/*--------------------------------*- C++ -*----------------------------------*\
| =========                 |                                                 |
| \\      /  F ield         | OpenFOAM: The Open Source CFD Toolbox           |
|  \\    /   O peration     | Version:  v2012                                 |
|   \\  /    A nd           | Website:  www.openfoam.com                      |
|    \\/     M anipulation  |                                                 |
\*---------------------------------------------------------------------------*/
FoamFile
{
    version     2.0;
    format      ascii;
    class       volScalarField;
    location    "125";
    object      epsilon;
}
// * * * * * * * * * * * * * * * * * * * * * * * * * * * * * * * * * * * * * //

dimensions      [0 2 -3 0 0 0 0];


internalField   nonuniform List<scalar> 
85864
(
4.95567e-07
4.9733e-07
4.9733e-07
4.99575e-07
4.45573e-07
4.53735e-07
4.53737e-07
4.6371e-07
4.03752e-07
4.18513e-07
4.18517e-07
4.39411e-07
3.68363e-07
3.88552e-07
3.88558e-07
4.17667e-07
3.38015e-07
3.62102e-07
3.6211e-07
3.96081e-07
3.11646e-07
3.38273e-07
3.38281e-07
3.74581e-07
2.88473e-07
3.16638e-07
3.16646e-07
3.5371e-07
2.67923e-07
2.97021e-07
2.97031e-07
3.34148e-07
2.49579e-07
2.7937e-07
2.79379e-07
3.16484e-07
2.33137e-07
2.63679e-07
2.63688e-07
3.01161e-07
2.18365e-07
2.49955e-07
2.49964e-07
2.88493e-07
2.0509e-07
2.38198e-07
2.38208e-07
2.78695e-07
1.93171e-07
2.2841e-07
2.28421e-07
2.71876e-07
1.82497e-07
2.206e-07
2.20611e-07
2.68162e-07
1.72979e-07
2.14772e-07
2.14785e-07
2.67642e-07
1.64541e-07
2.10937e-07
2.10953e-07
2.70494e-07
1.57122e-07
2.09107e-07
2.09126e-07
2.76699e-07
1.50667e-07
2.09296e-07
2.09319e-07
2.86285e-07
1.45139e-07
2.11551e-07
2.11578e-07
2.99236e-07
1.40491e-07
2.15886e-07
2.15917e-07
3.15618e-07
1.36708e-07
2.22334e-07
2.22367e-07
3.35372e-07
1.33742e-07
2.30871e-07
2.30908e-07
3.58384e-07
1.31612e-07
2.41537e-07
2.41577e-07
3.84493e-07
1.3022e-07
2.54183e-07
2.54226e-07
4.13234e-07
1.2962e-07
2.68556e-07
2.68603e-07
4.43836e-07
1.2938e-07
2.83711e-07
2.83761e-07
4.74505e-07
1.29507e-07
2.9826e-07
2.9831e-07
5.01464e-07
1.29066e-07
3.08611e-07
3.08669e-07
5.19607e-07
1.26695e-07
3.11717e-07
3.11789e-07
5.26245e-07
1.24297e-07
3.11713e-07
3.11792e-07
5.27098e-07
1.23305e-07
3.11942e-07
3.12024e-07
5.26943e-07
1.23211e-07
3.12543e-07
3.12623e-07
5.27491e-07
1.23296e-07
3.12902e-07
3.12982e-07
5.27862e-07
1.23352e-07
3.13032e-07
3.13111e-07
5.28035e-07
1.23368e-07
3.13058e-07
3.13137e-07
5.2802e-07
1.23372e-07
3.13063e-07
3.13143e-07
5.28031e-07
1.23373e-07
3.13066e-07
3.13146e-07
5.28034e-07
1.23374e-07
3.13068e-07
3.13147e-07
5.28036e-07
1.23375e-07
3.13069e-07
3.13149e-07
5.28045e-07
1.23376e-07
3.13071e-07
3.1315e-07
5.28028e-07
1.23377e-07
3.13073e-07
3.13152e-07
5.2805e-07
1.23378e-07
3.13072e-07
3.13153e-07
5.28045e-07
1.23378e-07
3.13071e-07
3.13154e-07
5.28038e-07
1.23378e-07
3.13071e-07
3.13155e-07
5.28031e-07
1.23378e-07
3.1307e-07
3.13155e-07
5.28021e-07
1.23378e-07
3.1307e-07
3.13155e-07
5.28147e-07
1.23378e-07
3.1307e-07
3.13154e-07
5.28118e-07
5.06417e-07
5.05584e-07
5.05582e-07
5.06417e-07
5.05583e-07
5.05582e-07
5.09649e-07
5.09649e-07
5.09649e-07
5.09649e-07
5.05584e-07
5.05584e-07
5.06418e-07
5.05584e-07
5.05583e-07
5.06418e-07
4.99575e-07
4.67237e-07
4.97331e-07
4.97335e-07
4.63713e-07
4.63721e-07
4.99575e-07
4.67235e-07
4.97335e-07
4.97336e-07
4.63718e-07
4.63724e-07
4.97332e-07
4.63709e-07
4.63714e-07
4.99575e-07
4.67241e-07
4.97334e-07
4.63711e-07
4.63719e-07
4.6724e-07
4.63709e-07
4.41426e-07
4.5374e-07
4.53748e-07
4.26739e-07
4.26747e-07
4.63708e-07
4.4142e-07
4.53744e-07
4.53751e-07
4.26739e-07
4.26751e-07
4.53741e-07
4.26729e-07
4.26741e-07
4.63711e-07
4.41431e-07
4.53744e-07
4.26734e-07
4.26741e-07
4.41429e-07
4.39407e-07
4.19283e-07
4.18522e-07
4.1853e-07
3.95676e-07
3.95682e-07
4.39405e-07
4.19275e-07
4.18522e-07
4.18535e-07
3.95672e-07
3.95689e-07
4.18525e-07
3.95663e-07
3.95679e-07
4.39413e-07
4.19289e-07
4.18523e-07
3.95669e-07
3.95673e-07
4.19287e-07
4.17662e-07
3.97645e-07
3.88566e-07
3.88571e-07
3.68461e-07
3.68466e-07
4.17656e-07
3.97636e-07
3.8856e-07
3.88578e-07
3.68452e-07
3.68473e-07
3.88569e-07
3.68444e-07
3.68464e-07
4.17669e-07
3.97651e-07
3.88562e-07
3.68452e-07
3.68454e-07
3.97649e-07
3.96076e-07
3.76086e-07
3.6212e-07
3.62124e-07
3.44033e-07
3.44036e-07
3.96069e-07
3.76076e-07
3.62109e-07
3.62131e-07
3.4402e-07
3.44043e-07
3.62123e-07
3.44013e-07
3.44036e-07
3.96082e-07
3.76091e-07
3.62111e-07
3.44022e-07
3.44021e-07
3.7609e-07
3.74575e-07
3.55112e-07
3.38293e-07
3.38295e-07
3.21875e-07
3.21876e-07
3.74568e-07
3.55101e-07
3.38279e-07
3.38303e-07
3.21858e-07
3.21884e-07
3.38296e-07
3.21853e-07
3.21877e-07
3.74582e-07
3.55117e-07
3.3828e-07
3.21862e-07
3.2186e-07
3.55116e-07
3.53705e-07
3.35395e-07
3.16659e-07
3.16661e-07
3.01763e-07
3.01764e-07
3.53697e-07
3.35385e-07
3.16642e-07
3.16668e-07
3.01745e-07
3.01772e-07
3.16662e-07
3.0174e-07
3.01766e-07
3.5371e-07
3.35401e-07
3.16644e-07
3.0175e-07
3.01746e-07
3.35401e-07
3.34142e-07
3.17533e-07
2.97044e-07
2.97045e-07
2.83623e-07
2.83624e-07
3.34134e-07
3.17523e-07
2.97025e-07
2.97052e-07
2.83603e-07
2.83631e-07
2.97047e-07
2.836e-07
2.83625e-07
3.34148e-07
3.1754e-07
2.97027e-07
2.83609e-07
2.83604e-07
3.17539e-07
3.16478e-07
3.01975e-07
2.79394e-07
2.79394e-07
2.67443e-07
2.67443e-07
3.1647e-07
3.01965e-07
2.79374e-07
2.79402e-07
2.67421e-07
2.6745e-07
2.79396e-07
2.67417e-07
2.67444e-07
3.16485e-07
3.01982e-07
2.79375e-07
2.67427e-07
2.67422e-07
3.01981e-07
3.01155e-07
2.8904e-07
2.63704e-07
2.63704e-07
2.53227e-07
2.53227e-07
3.01147e-07
2.8903e-07
2.63682e-07
2.63711e-07
2.53205e-07
2.53234e-07
2.63705e-07
2.53201e-07
2.53228e-07
3.01162e-07
2.89048e-07
2.63683e-07
2.5321e-07
2.53205e-07
2.89046e-07
2.88486e-07
2.7895e-07
2.49981e-07
2.49981e-07
2.40981e-07
2.40981e-07
2.88477e-07
2.78938e-07
2.49958e-07
2.49989e-07
2.40957e-07
2.40988e-07
2.49982e-07
2.40952e-07
2.40981e-07
2.88493e-07
2.78957e-07
2.49959e-07
2.40962e-07
2.40957e-07
2.78956e-07
2.78688e-07
2.71829e-07
2.38226e-07
2.38227e-07
2.30703e-07
2.30703e-07
2.78678e-07
2.71817e-07
2.38203e-07
2.38235e-07
2.30677e-07
2.30711e-07
2.38227e-07
2.30671e-07
2.30702e-07
2.78696e-07
2.71838e-07
2.38203e-07
2.30682e-07
2.30677e-07
2.71836e-07
2.71868e-07
2.67862e-07
2.2844e-07
2.28443e-07
2.22399e-07
2.22401e-07
2.71858e-07
2.67848e-07
2.28416e-07
2.28451e-07
2.22372e-07
2.22409e-07
2.28441e-07
2.22364e-07
2.22398e-07
2.71877e-07
2.67872e-07
2.28417e-07
2.22376e-07
2.22372e-07
2.6787e-07
2.68154e-07
2.66979e-07
2.20632e-07
2.20637e-07
2.16077e-07
2.16081e-07
2.68142e-07
2.66964e-07
2.20607e-07
2.20645e-07
2.1605e-07
2.1609e-07
2.20633e-07
2.16039e-07
2.16076e-07
2.68164e-07
2.66991e-07
2.20608e-07
2.16051e-07
2.16049e-07
2.66989e-07
2.67633e-07
2.69154e-07
2.14809e-07
2.14815e-07
2.11745e-07
2.11753e-07
2.67619e-07
2.69137e-07
2.14783e-07
2.14824e-07
2.11718e-07
2.11762e-07
2.14809e-07
2.11702e-07
2.11743e-07
2.67644e-07
2.69167e-07
2.14782e-07
2.11717e-07
2.11715e-07
2.69165e-07
2.70484e-07
2.74664e-07
2.10981e-07
2.10989e-07
2.09414e-07
2.09423e-07
2.70467e-07
2.74642e-07
2.10954e-07
2.10999e-07
2.09387e-07
2.09435e-07
2.10978e-07
2.09363e-07
2.09409e-07
2.70495e-07
2.74678e-07
2.1095e-07
2.09382e-07
2.0938e-07
2.74676e-07
2.76688e-07
2.83549e-07
2.09158e-07
2.09167e-07
2.09129e-07
2.09137e-07
2.76666e-07
2.83524e-07
2.09131e-07
2.0918e-07
2.09101e-07
2.09154e-07
2.09153e-07
2.09071e-07
2.09122e-07
2.76701e-07
2.83567e-07
2.09124e-07
2.09093e-07
2.09092e-07
2.83563e-07
2.86275e-07
2.95817e-07
2.09355e-07
2.09364e-07
2.10852e-07
2.10859e-07
2.86247e-07
2.95787e-07
2.09327e-07
2.09382e-07
2.10823e-07
2.10882e-07
2.09347e-07
2.10786e-07
2.10842e-07
2.86288e-07
2.95836e-07
2.09318e-07
2.10811e-07
2.10812e-07
2.95832e-07
2.99223e-07
3.11507e-07
2.11618e-07
2.11628e-07
2.14674e-07
2.14684e-07
2.99192e-07
3.11473e-07
2.1159e-07
2.1165e-07
2.14643e-07
2.14709e-07
2.11609e-07
2.14598e-07
2.14662e-07
2.99239e-07
3.11529e-07
2.11579e-07
2.14628e-07
2.14631e-07
3.11524e-07
3.15602e-07
3.30568e-07
2.15961e-07
2.15975e-07
2.20599e-07
2.2062e-07
3.15568e-07
3.30531e-07
2.15932e-07
2.15999e-07
2.2057e-07
2.20645e-07
2.15951e-07
2.2052e-07
2.20591e-07
3.15622e-07
3.30595e-07
2.15919e-07
2.20553e-07
2.20559e-07
3.30588e-07
3.35352e-07
3.5291e-07
2.22411e-07
2.22436e-07
2.28613e-07
2.28647e-07
3.35315e-07
3.5287e-07
2.22384e-07
2.22461e-07
2.28586e-07
2.28673e-07
2.22405e-07
2.28534e-07
2.28611e-07
3.35377e-07
3.52944e-07
2.22372e-07
2.28569e-07
2.28577e-07
3.52936e-07
3.58361e-07
3.78374e-07
2.30951e-07
2.30987e-07
2.38779e-07
2.38822e-07
3.58322e-07
3.78332e-07
2.30925e-07
2.31013e-07
2.38752e-07
2.38849e-07
2.30949e-07
2.38695e-07
2.3878e-07
3.5839e-07
3.78412e-07
2.30914e-07
2.38734e-07
2.38744e-07
3.78404e-07
3.84466e-07
4.0655e-07
2.41622e-07
2.41667e-07
2.50905e-07
2.50956e-07
3.84424e-07
4.06504e-07
2.41595e-07
2.41694e-07
2.50877e-07
2.50986e-07
2.41623e-07
2.50815e-07
2.50909e-07
3.84498e-07
4.06592e-07
2.41586e-07
2.50857e-07
2.5087e-07
4.06585e-07
4.13202e-07
4.36827e-07
2.54273e-07
2.54326e-07
2.6496e-07
2.65017e-07
4.13158e-07
4.36778e-07
2.54245e-07
2.54356e-07
2.64928e-07
2.65048e-07
2.54277e-07
2.64862e-07
2.64965e-07
4.13239e-07
4.36875e-07
2.5424e-07
2.64909e-07
2.64929e-07
4.3687e-07
4.43797e-07
4.67445e-07
2.68655e-07
2.68713e-07
2.80004e-07
2.80068e-07
4.4375e-07
4.67394e-07
2.68622e-07
2.68744e-07
2.79969e-07
2.80099e-07
2.6866e-07
2.799e-07
2.80012e-07
4.43838e-07
4.67495e-07
2.68623e-07
2.79948e-07
2.79974e-07
4.67493e-07
4.74461e-07
4.95392e-07
2.83816e-07
2.83881e-07
2.94926e-07
2.94992e-07
4.74412e-07
4.95339e-07
2.8378e-07
2.83912e-07
2.94882e-07
2.95027e-07
2.83825e-07
2.94816e-07
2.94935e-07
4.74504e-07
4.95457e-07
2.83786e-07
2.94866e-07
2.94893e-07
4.9545e-07
5.01409e-07
5.15433e-07
2.98368e-07
2.98434e-07
3.06817e-07
3.06884e-07
5.0136e-07
5.15385e-07
2.98322e-07
2.98472e-07
3.06768e-07
3.06928e-07
2.98378e-07
3.06708e-07
3.06833e-07
5.01468e-07
5.15507e-07
2.98334e-07
3.06761e-07
3.06783e-07
5.15496e-07
5.19543e-07
5.23976e-07
3.08723e-07
3.08791e-07
3.11574e-07
3.11644e-07
5.19495e-07
5.23916e-07
3.08675e-07
3.08832e-07
3.11529e-07
3.11675e-07
3.08741e-07
3.11452e-07
3.11597e-07
5.19611e-07
5.24038e-07
3.0869e-07
3.11522e-07
3.11547e-07
5.24043e-07
5.26176e-07
5.25412e-07
3.11839e-07
3.11909e-07
3.11878e-07
3.1195e-07
5.26115e-07
5.25342e-07
3.11796e-07
3.11938e-07
3.11839e-07
3.11971e-07
3.11863e-07
3.11751e-07
3.11905e-07
5.26228e-07
5.25458e-07
3.11813e-07
3.11829e-07
3.11858e-07
5.25475e-07
5.27033e-07
5.25027e-07
3.11839e-07
3.11912e-07
3.11925e-07
3.12001e-07
5.26962e-07
5.24956e-07
3.11802e-07
3.11931e-07
3.11889e-07
3.12015e-07
3.11868e-07
3.11796e-07
3.11956e-07
5.2707e-07
5.25074e-07
3.11821e-07
3.11877e-07
3.1191e-07
5.25094e-07
5.26874e-07
5.25678e-07
3.12068e-07
3.12138e-07
3.12529e-07
3.12606e-07
5.26804e-07
5.25605e-07
3.12033e-07
3.12157e-07
3.12493e-07
3.12618e-07
3.12099e-07
3.12399e-07
3.12559e-07
5.26911e-07
5.25719e-07
3.12053e-07
3.12479e-07
3.12513e-07
5.2574e-07
5.2743e-07
5.26071e-07
3.12668e-07
3.12743e-07
3.12967e-07
3.13045e-07
5.27359e-07
5.25994e-07
3.12634e-07
3.12758e-07
3.12932e-07
3.13057e-07
3.12698e-07
3.12838e-07
3.12997e-07
5.27463e-07
5.26111e-07
3.12653e-07
3.12917e-07
3.12951e-07
5.26133e-07
5.27799e-07
5.26254e-07
3.13028e-07
3.13107e-07
3.1314e-07
3.13221e-07
5.27726e-07
5.26177e-07
3.12993e-07
3.13118e-07
3.13106e-07
3.13231e-07
3.13059e-07
3.13013e-07
3.13172e-07
5.27833e-07
5.26295e-07
3.13012e-07
3.13092e-07
3.13125e-07
5.26316e-07
5.27972e-07
5.26257e-07
3.13158e-07
3.13239e-07
3.13181e-07
3.13267e-07
5.27898e-07
5.2618e-07
3.13124e-07
3.13249e-07
3.13149e-07
3.13274e-07
3.1319e-07
3.13056e-07
3.13215e-07
5.28006e-07
5.26299e-07
3.13143e-07
3.13135e-07
3.13168e-07
5.2632e-07
5.27957e-07
5.26258e-07
3.13181e-07
3.13267e-07
3.13187e-07
3.13272e-07
5.27883e-07
5.2618e-07
3.13149e-07
3.13274e-07
3.13155e-07
3.1328e-07
3.13215e-07
3.13061e-07
3.1322e-07
5.27992e-07
5.26299e-07
3.13168e-07
3.13141e-07
3.13174e-07
5.2632e-07
5.27968e-07
5.26268e-07
3.13187e-07
3.13272e-07
3.1319e-07
3.13276e-07
5.27893e-07
5.2619e-07
3.13155e-07
3.1328e-07
3.13159e-07
3.13284e-07
3.1322e-07
3.13065e-07
3.13224e-07
5.28003e-07
5.2631e-07
3.13174e-07
3.13144e-07
3.13177e-07
5.26331e-07
5.27971e-07
5.26268e-07
3.13189e-07
3.13276e-07
3.13191e-07
3.13278e-07
5.27896e-07
5.2619e-07
3.13159e-07
3.13283e-07
3.13161e-07
3.13285e-07
3.13224e-07
3.13067e-07
3.13226e-07
5.28006e-07
5.2631e-07
3.13176e-07
3.13146e-07
3.13179e-07
5.26331e-07
5.27973e-07
5.26273e-07
3.1319e-07
3.13278e-07
3.13192e-07
3.13281e-07
5.27898e-07
5.26195e-07
3.13161e-07
3.13285e-07
3.13163e-07
3.13287e-07
3.13225e-07
3.13069e-07
3.13228e-07
5.28008e-07
5.26315e-07
3.13178e-07
3.13148e-07
3.13181e-07
5.26337e-07
5.27981e-07
5.26258e-07
3.13192e-07
3.1328e-07
3.13193e-07
3.13282e-07
5.27907e-07
5.26181e-07
3.13162e-07
3.13287e-07
3.13164e-07
3.13289e-07
3.13227e-07
3.1307e-07
3.13229e-07
5.28016e-07
5.26301e-07
3.1318e-07
3.13149e-07
3.13182e-07
5.26323e-07
5.27963e-07
5.26289e-07
3.13192e-07
3.13282e-07
3.13193e-07
3.13283e-07
5.27888e-07
5.26213e-07
3.13164e-07
3.13288e-07
3.13166e-07
3.1329e-07
3.13228e-07
3.13071e-07
3.13231e-07
5.27999e-07
5.26329e-07
3.13182e-07
3.13151e-07
3.13184e-07
5.2635e-07
5.27983e-07
5.2627e-07
3.13193e-07
3.1328e-07
3.13194e-07
3.13281e-07
5.27916e-07
5.26197e-07
3.13166e-07
3.13289e-07
3.13167e-07
3.13291e-07
3.1323e-07
3.13071e-07
3.13231e-07
5.28022e-07
5.26309e-07
3.13183e-07
3.13152e-07
3.13185e-07
5.26332e-07
5.27978e-07
5.26269e-07
3.13193e-07
3.13279e-07
3.13194e-07
3.1328e-07
5.27908e-07
5.26198e-07
3.13167e-07
3.1329e-07
3.13169e-07
3.13292e-07
3.1323e-07
3.13071e-07
3.13232e-07
5.28015e-07
5.26311e-07
3.13184e-07
3.13153e-07
3.13186e-07
5.26334e-07
5.27967e-07
5.26269e-07
3.13192e-07
3.13278e-07
3.13194e-07
3.13279e-07
5.27898e-07
5.26195e-07
3.13168e-07
3.13291e-07
3.1317e-07
3.13293e-07
3.13231e-07
3.1307e-07
3.13233e-07
5.28007e-07
5.26308e-07
3.13185e-07
3.13154e-07
3.13186e-07
5.26325e-07
5.27967e-07
5.26298e-07
3.13193e-07
3.13277e-07
3.13195e-07
3.13279e-07
5.27898e-07
5.26221e-07
3.13169e-07
3.13292e-07
3.13172e-07
3.13294e-07
3.13232e-07
3.1307e-07
3.13234e-07
5.28005e-07
5.26335e-07
3.13185e-07
3.13155e-07
3.13187e-07
5.26351e-07
5.27972e-07
5.26357e-07
3.13193e-07
3.13276e-07
3.13195e-07
3.13277e-07
5.27899e-07
5.26289e-07
3.1317e-07
3.13292e-07
3.13172e-07
3.13294e-07
3.13232e-07
3.13069e-07
3.13234e-07
5.28007e-07
5.26401e-07
3.13185e-07
3.13154e-07
3.13188e-07
5.2644e-07
5.28073e-07
5.26252e-07
3.13194e-07
3.13276e-07
3.13195e-07
3.13277e-07
5.28006e-07
5.26187e-07
3.13171e-07
3.13293e-07
3.13172e-07
3.13294e-07
3.13233e-07
3.13069e-07
3.13234e-07
5.28113e-07
5.26296e-07
3.13186e-07
3.13153e-07
3.13187e-07
5.26328e-07
5.28041e-07
5.26117e-07
3.13195e-07
3.13275e-07
3.13198e-07
3.13278e-07
5.27983e-07
5.26042e-07
3.13171e-07
3.13293e-07
3.13173e-07
3.13295e-07
3.13232e-07
3.1307e-07
3.13235e-07
5.28086e-07
5.26154e-07
3.13186e-07
3.13155e-07
3.13188e-07
5.26182e-07
5.35663e-07
5.35601e-07
5.35655e-07
5.35655e-07
5.34573e-07
5.35516e-07
5.33634e-07
5.35654e-07
5.34573e-07
5.35517e-07
5.35654e-07
5.33634e-07
5.35256e-07
5.35986e-07
5.35987e-07
1.10713e-06
3.88088e-06
9.33893e-07
4.6061e-06
1.26081e-05
1.66008e-05
1.10725e-06
3.88112e-06
9.33926e-07
4.60647e-06
4.95567e-07
4.95567e-07
4.95567e-07
4.57231e-07
4.57231e-07
4.57232e-07
4.57232e-07
5.43144e-07
1.22027e-06
4.95565e-07
4.85522e-07
5.25341e-07
1.20946e-06
4.82301e-07
1.26097e-05
1.66034e-05
5.43163e-07
4.95565e-07
1.22025e-06
4.85523e-07
5.25319e-07
4.82302e-07
1.20945e-06
2.52172e-06
2.52242e-06
4.8419e-07
2.37249e-06
2.37288e-06
1.43081e-06
5.59335e-06
1.32966e-06
6.1363e-06
2.12847e-05
2.31102e-05
1.43121e-06
5.59401e-06
1.32972e-06
6.13696e-06
4.45572e-07
4.45573e-07
4.45573e-07
4.13542e-07
4.13542e-07
4.13543e-07
4.13543e-07
5.87084e-07
1.19483e-06
4.46434e-07
4.44291e-07
5.73801e-07
1.20431e-06
4.3569e-07
2.12869e-05
2.31139e-05
5.87102e-07
4.46435e-07
1.19484e-06
4.44294e-07
5.7381e-07
4.35692e-07
1.2044e-06
2.3117e-06
2.31221e-06
4.53488e-07
2.35332e-06
2.35378e-06
1.66327e-06
6.91806e-06
1.59584e-06
7.32005e-06
2.46406e-05
2.49369e-05
1.66337e-06
6.91889e-06
1.59576e-06
7.32101e-06
4.03752e-07
4.03753e-07
4.03753e-07
3.76689e-07
3.76689e-07
3.76691e-07
3.7669e-07
6.15569e-07
1.24281e-06
4.06546e-07
4.10617e-07
6.08379e-07
1.26558e-06
3.97729e-07
2.46437e-05
2.49404e-05
6.15585e-07
4.06547e-07
1.24291e-06
4.10622e-07
6.08396e-07
3.97732e-07
1.26574e-06
2.47396e-06
2.47444e-06
4.3018e-07
2.53268e-06
2.53316e-06
1.81233e-06
7.84644e-06
1.77234e-06
8.09931e-06
2.47369e-05
2.44299e-05
1.81247e-06
7.84741e-06
1.77234e-06
8.10062e-06
3.68362e-07
3.68365e-07
3.68364e-07
3.45193e-07
3.45192e-07
3.45195e-07
3.45194e-07
6.26293e-07
1.31313e-06
3.73478e-07
3.81656e-07
6.24882e-07
1.33369e-06
3.66029e-07
2.47392e-05
2.44336e-05
6.26306e-07
3.7348e-07
1.31321e-06
3.81662e-07
6.24894e-07
3.66032e-07
1.33386e-06
2.63523e-06
2.63572e-06
4.08471e-07
2.67932e-06
2.67982e-06
1.89283e-06
8.3955e-06
1.87319e-06
8.52944e-06
2.36927e-05
2.32646e-05
1.893e-06
8.39667e-06
1.87321e-06
8.5309e-06
3.38014e-07
3.38017e-07
3.38016e-07
3.17912e-07
3.17911e-07
3.17915e-07
3.17914e-07
6.2211e-07
1.37211e-06
3.45239e-07
3.55922e-07
6.25445e-07
1.3871e-06
3.38764e-07
2.36944e-05
2.32678e-05
6.22123e-07
3.45241e-07
1.37219e-06
3.5593e-07
6.25458e-07
3.38768e-07
1.38726e-06
2.76348e-06
2.76402e-06
3.86837e-07
2.8053e-06
2.80584e-06
1.92987e-06
8.66305e-06
1.92179e-06
8.7188e-06
2.2502e-05
2.21196e-05
1.93005e-06
8.66441e-06
1.92182e-06
8.72023e-06
3.11645e-07
3.11649e-07
3.11648e-07
2.94001e-07
2.94e-07
2.94004e-07
2.94003e-07
6.08888e-07
1.41603e-06
3.20492e-07
3.32668e-07
6.15378e-07
1.42752e-06
3.14745e-07
2.25032e-05
2.21225e-05
6.08902e-07
3.20493e-07
1.4161e-06
3.32677e-07
6.15391e-07
3.14749e-07
1.42768e-06
2.89511e-06
2.8957e-06
3.65488e-07
2.9436e-06
2.94423e-06
1.94789e-06
8.75942e-06
1.94363e-06
8.77081e-06
2.14776e-05
2.11779e-05
1.94807e-06
8.76086e-06
1.94367e-06
8.77224e-06
2.88472e-07
2.88476e-07
2.88474e-07
2.72839e-07
2.72838e-07
2.72842e-07
2.72841e-07
5.91864e-07
1.45273e-06
2.98409e-07
3.11548e-07
5.99369e-07
1.464e-06
2.93242e-07
2.14786e-05
2.11806e-05
5.91879e-07
2.98411e-07
1.4528e-06
3.11557e-07
5.99382e-07
2.93246e-07
1.46417e-06
3.04886e-06
3.04955e-06
3.45061e-07
3.10632e-06
3.10709e-06
1.9656e-06
8.76862e-06
1.95959e-06
8.76337e-06
2.06743e-05
2.04525e-05
1.96577e-06
8.77005e-06
1.95963e-06
8.7648e-06
2.67922e-07
2.67926e-07
2.67924e-07
2.53977e-07
2.53976e-07
2.5398e-07
2.53978e-07
5.75449e-07
1.49166e-06
2.785e-07
2.92425e-07
5.82273e-07
1.50547e-06
2.73825e-07
2.06755e-05
2.04547e-05
5.75466e-07
2.78501e-07
1.49173e-06
2.92434e-07
5.82287e-07
2.73829e-07
1.50563e-06
3.22591e-06
3.22671e-06
3.26206e-07
3.29173e-06
3.29268e-06
1.99555e-06
8.74923e-06
1.98437e-06
8.74307e-06
2.00718e-05
1.99103e-05
1.9957e-06
8.7507e-06
1.98439e-06
8.74454e-06
2.49578e-07
2.49583e-07
2.49581e-07
2.37083e-07
2.37082e-07
2.37086e-07
2.37084e-07
5.62901e-07
1.53981e-06
2.60474e-07
2.75263e-07
5.67828e-07
1.55768e-06
2.56239e-07
2.00736e-05
1.99121e-05
5.62917e-07
2.60475e-07
1.53988e-06
2.75273e-07
5.67845e-07
2.56243e-07
1.55785e-06
3.42132e-06
3.42227e-06
3.09449e-07
3.49264e-06
3.4938e-06
2.04524e-06
8.73348e-06
2.02678e-06
8.73132e-06
1.96319e-05
1.95161e-05
2.04539e-06
8.73499e-06
2.0268e-06
8.73286e-06
2.33136e-07
2.3314e-07
2.33138e-07
2.21912e-07
2.21911e-07
2.21915e-07
2.21913e-07
5.565e-07
1.60098e-06
2.44157e-07
2.60063e-07
5.58641e-07
1.62361e-06
2.40331e-07
1.96337e-05
1.95179e-05
5.56519e-07
2.44158e-07
1.60105e-06
2.60072e-07
5.5866e-07
2.40334e-07
1.62378e-06
3.62725e-06
3.62835e-06
2.95169e-07
3.70115e-06
3.70252e-06
2.11899e-06
8.73089e-06
2.09201e-06
8.73365e-06
1.93171e-05
1.92359e-05
2.11916e-06
8.73252e-06
2.09199e-06
8.73531e-06
2.18365e-07
2.18369e-07
2.18367e-07
2.08276e-07
2.08275e-07
2.08279e-07
2.08278e-07
5.57605e-07
1.67642e-06
2.29438e-07
2.4683e-07
5.56737e-07
1.70374e-06
2.25997e-07
1.9319e-05
1.92377e-05
5.57624e-07
2.29439e-07
1.6765e-06
2.4684e-07
5.56754e-07
2.26001e-07
1.70392e-06
3.8355e-06
3.83676e-06
2.83638e-07
3.9092e-06
3.91078e-06
2.21871e-06
8.74032e-06
2.18281e-06
8.74732e-06
1.9096e-05
1.904e-05
2.2189e-06
8.74207e-06
2.18285e-06
8.74906e-06
2.05089e-07
2.05093e-07
2.05091e-07
1.9603e-07
1.96029e-07
1.96033e-07
1.96031e-07
5.66946e-07
1.76536e-06
2.16237e-07
2.35566e-07
5.631e-07
1.79677e-06
2.13166e-07
1.90978e-05
1.90418e-05
5.66971e-07
2.16237e-07
1.76545e-06
2.35576e-07
5.63124e-07
2.1317e-07
1.79696e-06
4.03853e-06
4.03995e-06
2.75009e-07
4.10934e-06
4.11109e-06
2.34376e-06
8.75827e-06
2.2994e-06
8.76716e-06
1.89422e-05
1.89036e-05
2.34436e-06
8.76009e-06
2.2993e-06
8.76897e-06
1.9317e-07
1.93174e-07
1.93173e-07
1.85054e-07
1.85053e-07
1.85057e-07
1.85055e-07
5.8587e-07
1.86569e-06
2.04494e-07
2.2627e-07
5.78752e-07
1.90032e-06
2.01779e-07
1.8944e-05
1.89054e-05
5.859e-07
2.04494e-07
1.86579e-06
2.26281e-07
5.78781e-07
2.01783e-07
1.90051e-06
4.22966e-06
4.23122e-06
2.69469e-07
4.29529e-06
4.29717e-06
2.49192e-06
8.77936e-06
2.43872e-06
8.78838e-06
1.88344e-05
1.88074e-05
2.49246e-06
8.78124e-06
2.43847e-06
8.79024e-06
1.82496e-07
1.82501e-07
1.82499e-07
1.75253e-07
1.75252e-07
1.75257e-07
1.75255e-07
6.14899e-07
1.97459e-06
1.94156e-07
2.18954e-07
6.04374e-07
2.01137e-06
1.91786e-07
1.88362e-05
1.88092e-05
6.14931e-07
1.94157e-07
1.9747e-06
2.18966e-07
6.04411e-07
1.9179e-07
2.01158e-06
4.40384e-06
4.40551e-06
2.67054e-07
4.46272e-06
4.46472e-06
2.65677e-06
8.80011e-06
2.59694e-06
8.80848e-06
1.87566e-05
1.87368e-05
2.6573e-06
8.80202e-06
2.59669e-06
8.81036e-06
1.72978e-07
1.72982e-07
1.7298e-07
1.66551e-07
1.6655e-07
1.66555e-07
1.66553e-07
6.54318e-07
2.08874e-06
1.85182e-07
2.13622e-07
6.40329e-07
2.12652e-06
1.83146e-07
1.87583e-05
1.87385e-05
6.54354e-07
1.85182e-07
2.08887e-06
2.13635e-07
6.40371e-07
1.83151e-07
2.12674e-06
4.55802e-06
4.55977e-06
2.67667e-07
4.60938e-06
4.61144e-06
2.83126e-06
8.81916e-06
2.76774e-06
8.82675e-06
1.86972e-05
1.86816e-05
2.8318e-06
8.82109e-06
2.76751e-06
8.82864e-06
1.64539e-07
1.64544e-07
1.64542e-07
1.58882e-07
1.5888e-07
1.58886e-07
1.58883e-07
7.04075e-07
2.2047e-06
1.77533e-07
2.10282e-07
6.8669e-07
2.24235e-06
1.75824e-07
1.86987e-05
1.86832e-05
7.04114e-07
1.77533e-07
2.20482e-06
2.10299e-07
6.86733e-07
1.75829e-07
2.24257e-06
4.69105e-06
4.69286e-06
2.71501e-07
4.73478e-06
4.73688e-06
3.00723e-06
8.83647e-06
2.94329e-06
8.84344e-06
1.86483e-05
1.86352e-05
3.00779e-06
8.8384e-06
2.94307e-06
8.84533e-06
1.57121e-07
1.57126e-07
1.57123e-07
1.52192e-07
1.5219e-07
1.52196e-07
1.52193e-07
7.6368e-07
2.31922e-06
1.71184e-07
2.08951e-07
7.43123e-07
2.35578e-06
1.69797e-07
1.86499e-05
1.86367e-05
7.63721e-07
1.71184e-07
2.31935e-06
2.08972e-07
7.43168e-07
1.69802e-07
2.356e-06
4.80351e-06
4.80535e-06
2.78693e-07
4.83999e-06
4.84208e-06
3.17659e-06
8.85245e-06
3.11532e-06
8.85899e-06
1.86057e-05
1.85938e-05
3.17716e-06
8.85438e-06
3.11513e-06
8.86088e-06
1.50666e-07
1.50672e-07
1.50668e-07
1.46436e-07
1.46433e-07
1.4644e-07
1.46436e-07
8.32132e-07
2.42959e-06
1.66117e-07
2.09658e-07
8.08791e-07
2.46428e-06
1.65045e-07
1.86072e-05
1.85956e-05
8.32174e-07
1.66116e-07
2.42972e-06
2.09682e-07
8.08836e-07
1.6505e-07
2.4645e-06
4.89715e-06
4.89903e-06
2.89269e-07
4.927e-06
4.92908e-06
3.33243e-06
8.86747e-06
3.27639e-06
8.8737e-06
1.85669e-05
1.85564e-05
3.33298e-06
8.86944e-06
3.27622e-06
8.87563e-06
1.45136e-07
1.45143e-07
1.45139e-07
1.41569e-07
1.41566e-07
1.41573e-07
1.41569e-07
9.07919e-07
2.53364e-06
1.62329e-07
2.12432e-07
8.82351e-07
2.56589e-06
1.61564e-07
1.85686e-05
1.85579e-05
9.07962e-07
1.62329e-07
2.53377e-06
2.1246e-07
8.82397e-07
1.61569e-07
2.5661e-06
4.9743e-06
4.97618e-06
3.03252e-07
4.99838e-06
5.00046e-06
3.46998e-06
8.88189e-06
3.42082e-06
8.88783e-06
1.85313e-05
1.85213e-05
3.47054e-06
8.88379e-06
3.42067e-06
8.88965e-06
1.40488e-07
1.40495e-07
1.40491e-07
1.37577e-07
1.37574e-07
1.37583e-07
1.37578e-07
9.89097e-07
2.62991e-06
1.59806e-07
2.17291e-07
9.62e-07
2.65934e-06
1.59363e-07
1.85327e-05
1.85229e-05
9.8914e-07
1.59806e-07
2.63004e-06
2.17323e-07
9.62047e-07
1.59367e-07
2.65955e-06
5.03752e-06
5.03939e-06
3.20638e-07
5.05674e-06
5.05881e-06
3.58668e-06
8.8955e-06
3.54527e-06
8.901e-06
1.84976e-05
1.84882e-05
3.58724e-06
8.89727e-06
3.54511e-06
8.90275e-06
1.36705e-07
1.36714e-07
1.36709e-07
1.34401e-07
1.34397e-07
1.34407e-07
1.34401e-07
1.07343e-06
2.71753e-06
1.58576e-07
2.24273e-07
1.04554e-06
2.74406e-06
1.58436e-07
1.84993e-05
1.84902e-05
1.07347e-06
1.58578e-07
2.71765e-06
2.24307e-07
1.04559e-06
1.5844e-07
2.74426e-06
5.08922e-06
5.09109e-06
3.41369e-07
5.10455e-06
5.10661e-06
3.68198e-06
8.908e-06
3.6487e-06
8.91308e-06
1.84662e-05
1.8458e-05
3.68254e-06
8.90973e-06
3.64854e-06
8.91485e-06
1.33738e-07
1.33748e-07
1.33742e-07
1.32082e-07
1.32079e-07
1.3209e-07
1.32083e-07
1.15852e-06
2.79619e-06
1.58604e-07
2.3335e-07
1.13068e-06
2.81983e-06
1.58826e-07
1.84681e-05
1.84599e-05
1.15856e-06
1.58603e-07
2.79628e-06
2.33387e-07
1.13073e-06
1.58834e-07
2.82004e-06
5.13154e-06
5.13342e-06
3.65287e-07
5.14374e-06
5.14576e-06
3.75779e-06
8.91892e-06
3.73263e-06
8.92344e-06
1.84371e-05
1.84296e-05
3.75833e-06
8.92067e-06
3.73248e-06
8.9253e-06
1.31608e-07
1.31619e-07
1.31613e-07
1.30481e-07
1.30478e-07
1.3049e-07
1.30483e-07
1.24229e-06
2.86608e-06
1.59986e-07
2.44494e-07
1.21522e-06
2.88677e-06
1.60519e-07
1.84389e-05
1.84314e-05
1.24233e-06
1.59986e-07
2.86619e-06
2.44534e-07
1.21526e-06
1.60527e-07
2.88699e-06
5.16606e-06
5.168e-06
3.92185e-07
5.17613e-06
5.1781e-06
3.81643e-06
8.92953e-06
3.79616e-06
8.93181e-06
1.84107e-05
1.8403e-05
3.81694e-06
8.93129e-06
3.79602e-06
8.93364e-06
1.30217e-07
1.30229e-07
1.30222e-07
1.29722e-07
1.29719e-07
1.29733e-07
1.29725e-07
1.32198e-06
2.92779e-06
1.62621e-07
2.57661e-07
1.29636e-06
2.9455e-06
1.63499e-07
1.84125e-05
1.84046e-05
1.32201e-06
1.62621e-07
2.9279e-06
2.57706e-07
1.2964e-06
1.63507e-07
2.94571e-06
5.1945e-06
5.1964e-06
4.21577e-07
5.20188e-06
5.20386e-06
3.85757e-06
8.93365e-06
3.84627e-06
8.937e-06
1.83863e-05
1.83826e-05
3.85801e-06
8.93546e-06
3.84619e-06
8.93881e-06
1.29617e-07
1.2963e-07
1.29623e-07
1.29413e-07
1.29411e-07
1.29425e-07
1.29417e-07
1.39564e-06
2.97883e-06
1.6657e-07
2.723e-07
1.37279e-06
2.9934e-06
1.67696e-07
1.83882e-05
1.83846e-05
1.39566e-06
1.66572e-07
2.97894e-06
2.72347e-07
1.37283e-06
1.67705e-07
2.99351e-06
5.21552e-06
5.21749e-06
4.52206e-07
5.22293e-06
5.22476e-06
3.87304e-06
8.94125e-06
3.87038e-06
8.9417e-06
1.83681e-05
1.83613e-05
3.87324e-06
8.9431e-06
3.87042e-06
8.94354e-06
1.29378e-07
1.29392e-07
1.29384e-07
1.29459e-07
1.29457e-07
1.29472e-07
1.29464e-07
1.45497e-06
3.02085e-06
1.71296e-07
2.8749e-07
1.43783e-06
3.03149e-06
1.72562e-07
1.83697e-05
1.83631e-05
1.45496e-06
1.71298e-07
3.02097e-06
2.8754e-07
1.43784e-06
1.72571e-07
3.03165e-06
5.23397e-06
5.23598e-06
4.82237e-07
5.23624e-06
5.23824e-06
3.87293e-06
8.93767e-06
3.87429e-06
8.93439e-06
1.83438e-05
1.8337e-05
3.8731e-06
8.93956e-06
3.87444e-06
8.93635e-06
1.29505e-07
1.2952e-07
1.29512e-07
1.29377e-07
1.29376e-07
1.29393e-07
1.29384e-07
1.49269e-06
3.04896e-06
1.7633e-07
3.01452e-07
1.48341e-06
3.05373e-06
1.77445e-07
1.83455e-05
1.83387e-05
1.4927e-06
1.76333e-07
3.04891e-06
3.01501e-07
1.48342e-06
1.77453e-07
3.05374e-06
5.23908e-06
5.24096e-06
5.06717e-07
5.23885e-06
5.24076e-06
3.86635e-06
8.9251e-06
3.86984e-06
8.91963e-06
1.83185e-05
1.83113e-05
3.86649e-06
8.92713e-06
3.86993e-06
8.92172e-06
1.29064e-07
1.29082e-07
1.29073e-07
1.27396e-07
1.27393e-07
1.27411e-07
1.27404e-07
1.50882e-06
3.05901e-06
1.79672e-07
3.09996e-07
1.50604e-06
3.05787e-06
1.79951e-07
1.83197e-05
1.83125e-05
1.50884e-06
1.7968e-07
3.05905e-06
3.10058e-07
1.50607e-06
1.79963e-07
3.05802e-06
5.23679e-06
5.23865e-06
5.21172e-07
5.23313e-06
5.23502e-06
3.85789e-06
8.90921e-06
3.86184e-06
8.90509e-06
1.82948e-05
1.82904e-05
3.85809e-06
8.91126e-06
3.86193e-06
8.90715e-06
1.26691e-07
1.2671e-07
1.26703e-07
1.24775e-07
1.24771e-07
1.24789e-07
1.24784e-07
1.51165e-06
3.05545e-06
1.79722e-07
3.11807e-07
1.51208e-06
3.0523e-06
1.7924e-07
1.82958e-05
1.82914e-05
1.51171e-06
1.79734e-07
3.05561e-06
3.11881e-07
1.51213e-06
1.79259e-07
3.05246e-06
5.22767e-06
5.22956e-06
5.25173e-07
5.22348e-06
5.22539e-06
3.84981e-06
8.89873e-06
3.85293e-06
8.89684e-06
1.82803e-05
1.82791e-05
3.85003e-06
8.9008e-06
3.85296e-06
8.89898e-06
1.24293e-07
1.24311e-07
1.24306e-07
1.23432e-07
1.23427e-07
1.23445e-07
1.23441e-07
1.50997e-06
3.04946e-06
1.78248e-07
3.11711e-07
1.51122e-06
3.04711e-06
1.78097e-07
1.8281e-05
1.828e-05
1.51004e-06
1.78266e-07
3.04957e-06
3.11791e-07
1.51128e-06
1.78119e-07
3.04729e-06
5.21934e-06
5.22122e-06
5.24954e-07
5.21692e-06
5.21883e-06
3.84576e-06
8.89422e-06
3.84713e-06
8.89371e-06
1.82739e-05
1.8275e-05
3.84595e-06
8.89631e-06
3.84724e-06
8.89581e-06
1.233e-07
1.23318e-07
1.23315e-07
1.23208e-07
1.23203e-07
1.23221e-07
1.23218e-07
1.5085e-06
3.04582e-06
1.78017e-07
3.12088e-07
1.50941e-06
3.04464e-06
1.78036e-07
1.82748e-05
1.8276e-05
1.50857e-06
1.78037e-07
3.04593e-06
3.12169e-07
1.50949e-06
1.78059e-07
3.0448e-06
5.21527e-06
5.21716e-06
5.25563e-07
5.21444e-06
5.21634e-06
3.8444e-06
8.89279e-06
3.8449e-06
8.89289e-06
1.82723e-05
1.82742e-05
3.84456e-06
8.89486e-06
3.84498e-06
8.89496e-06
1.23206e-07
1.23224e-07
1.23221e-07
1.23273e-07
1.23268e-07
1.23286e-07
1.23283e-07
1.50791e-06
3.04458e-06
1.78276e-07
3.12659e-07
1.50852e-06
3.044e-06
1.78353e-07
1.82732e-05
1.82752e-05
1.50797e-06
1.78294e-07
3.04471e-06
3.12738e-07
1.50859e-06
1.7838e-07
3.04416e-06
5.2142e-06
5.21608e-06
5.25963e-07
5.21392e-06
5.21583e-06
3.8441e-06
8.8926e-06
3.8443e-06
8.89283e-06
1.82722e-05
1.82743e-05
3.84426e-06
8.89467e-06
3.8444e-06
8.89492e-06
1.23291e-07
1.23309e-07
1.23306e-07
1.23343e-07
1.23338e-07
1.23356e-07
1.23353e-07
1.50778e-06
3.0445e-06
1.78521e-07
3.12946e-07
1.50822e-06
3.044e-06
1.78553e-07
1.82731e-05
1.82753e-05
1.50784e-06
1.7854e-07