/*--------------------------------*- C++ -*----------------------------------*\
| =========                 |                                                 |
| \\      /  F ield         | OpenFOAM: The Open Source CFD Toolbox           |
|  \\    /   O peration     | Version:  v2012                                 |
|   \\  /    A nd           | Website:  www.openfoam.com                      |
|    \\/     M anipulation  |                                                 |
\*---------------------------------------------------------------------------*/
FoamFile
{
    version     2.0;
    format      ascii;
    class       volScalarField;
    location    "125";
    object      p;
}
// * * * * * * * * * * * * * * * * * * * * * * * * * * * * * * * * * * * * * //

dimensions      [0 2 -2 0 0 0 0];


internalField   nonuniform List<scalar> 
85864
(
0.00358287
0.0035832
0.0035832
0.00358625
0.00352751
0.00352793
0.00352793
0.00353092
0.00347676
0.00347673
0.00347673
0.00347948
0.00342437
0.00342439
0.00342439
0.00342716
0.00337302
0.00337303
0.00337303
0.00337578
0.00332305
0.00332306
0.00332306
0.00332578
0.00327452
0.00327454
0.00327454
0.00327722
0.00322729
0.00322732
0.00322732
0.00322996
0.00318117
0.00318119
0.00318119
0.00318381
0.00313594
0.00313596
0.00313596
0.00313855
0.00309143
0.00309145
0.00309145
0.00309401
0.00304752
0.00304754
0.00304754
0.00305008
0.00300413
0.00300414
0.00300414
0.00300666
0.0029612
0.00296122
0.00296122
0.00296372
0.0029187
0.00291872
0.00291872
0.00292122
0.00287662
0.00287662
0.00287662
0.00287911
0.00283491
0.00283491
0.00283491
0.00283739
0.00279357
0.00279356
0.00279356
0.00279603
0.00275255
0.00275254
0.00275254
0.002755
0.00271186
0.00271183
0.00271183
0.00271429
0.00267145
0.00267141
0.00267141
0.00267387
0.00263131
0.00263127
0.00263127
0.00263372
0.00259143
0.00259138
0.00259138
0.00259382
0.00255183
0.00255176
0.00255177
0.00255419
0.00251252
0.00251244
0.00251244
0.00251484
0.00247366
0.00247357
0.00247357
0.00247595
0.00243529
0.00243519
0.00243519
0.00243751
0.00239759
0.00239749
0.00239749
0.00239974
0.00236057
0.00236049
0.00236049
0.00236268
0.00232411
0.00232406
0.00232406
0.00232622
0.00228801
0.00228796
0.00228796
0.0022901
0.00225211
0.00225206
0.00225206
0.00225418
0.00221629
0.00221624
0.00221624
0.00221836
0.0021805
0.00218045
0.00218045
0.00218257
0.00214472
0.00214466
0.00214466
0.00214678
0.00210892
0.00210887
0.00210887
0.00211099
0.00207313
0.00207308
0.00207308
0.0020752
0.00203734
0.00203729
0.00203729
0.00203941
0.00200155
0.0020015
0.0020015
0.00200362
0.00196576
0.0019657
0.0019657
0.00196782
0.00192997
0.00192991
0.00192991
0.00193203
0.00189418
0.00189412
0.00189412
0.00189624
0.00185838
0.00185833
0.00185833
0.00186045
0.00182259
0.00182254
0.00182254
0.00182466
0.0017868
0.00178675
0.00178675
0.00178887
0.00175101
0.00175096
0.00175096
0.00175308
0.00171522
0.00171517
0.00171517
0.00171729
0.00359628
0.0035965
0.0035965
0.00359628
0.0035965
0.0035965
0.00359726
0.00359726
0.00359727
0.00359727
0.0035965
0.0035965
0.00359628
0.0035965
0.0035965
0.00359628
0.00358625
0.00353749
0.00358319
0.0035832
0.00353977
0.00353977
0.00358625
0.00353749
0.0035832
0.0035832
0.00353977
0.00353977
0.0035832
0.00353977
0.00353977
0.00358625
0.00353749
0.0035832
0.00353977
0.00353977
0.00353749
0.00353092
0.00348641
0.00352793
0.00352793
0.00348986
0.00348986
0.00353092
0.00348641
0.00352793
0.00352793
0.00348985
0.00348985
0.00352793
0.00348985
0.00348986
0.00353092
0.00348641
0.00352793
0.00348985
0.00348985
0.00348641
0.00347949
0.00343404
0.00347673
0.00347673
0.0034374
0.0034374
0.00347948
0.00343404
0.00347673
0.00347673
0.0034374
0.0034374
0.00347673
0.0034374
0.0034374
0.00347948
0.00343404
0.00347673
0.0034374
0.0034374
0.00343404
0.00342716
0.00338249
0.00342439
0.00342439
0.00338575
0.00338575
0.00342716
0.00338249
0.00342439
0.00342439
0.00338575
0.00338575
0.00342439
0.00338575
0.00338575
0.00342716
0.00338249
0.00342439
0.00338575
0.00338575
0.00338249
0.00337578
0.00333228
0.00337303
0.00337303
0.00333541
0.00333541
0.00337578
0.00333228
0.00337303
0.00337303
0.00333541
0.00333541
0.00337303
0.00333541
0.00333541
0.00337578
0.00333228
0.00337303
0.00333541
0.00333541
0.00333228
0.00332578
0.00328352
0.00332306
0.00332306
0.00328654
0.00328654
0.00332578
0.00328352
0.00332306
0.00332306
0.00328654
0.00328654
0.00332306
0.00328654
0.00328654
0.00332578
0.00328352
0.00332306
0.00328654
0.00328654
0.00328352
0.00327722
0.0032361
0.00327454
0.00327454
0.00323901
0.00323901
0.00327722
0.0032361
0.00327454
0.00327454
0.00323901
0.00323901
0.00327454
0.00323901
0.00323901
0.00327722
0.0032361
0.00327454
0.00323901
0.00323901
0.00323609
0.00322997
0.0031898
0.00322731
0.00322731
0.00319263
0.00319263
0.00322997
0.0031898
0.00322732
0.00322731
0.00319263
0.00319263
0.00322732
0.00319263
0.00319263
0.00322997
0.0031898
0.00322732
0.00319263
0.00319263
0.0031898
0.00318381
0.00314442
0.00318119
0.00318119
0.00314719
0.00314719
0.00318381
0.00314442
0.00318119
0.00318119
0.00314719
0.00314719
0.00318119
0.00314719
0.00314719
0.00318381
0.00314442
0.00318119
0.00314719
0.00314719
0.00314442
0.00313855
0.0030998
0.00313596
0.00313596
0.00310252
0.00310252
0.00313855
0.0030998
0.00313596
0.00313596
0.00310252
0.00310252
0.00313596
0.00310252
0.00310252
0.00313855
0.0030998
0.00313596
0.00310252
0.00310252
0.0030998
0.00309401
0.00305578
0.00309145
0.00309145
0.00305847
0.00305847
0.00309401
0.00305578
0.00309145
0.00309145
0.00305847
0.00305847
0.00309145
0.00305847
0.00305847
0.00309401
0.00305578
0.00309145
0.00305847
0.00305847
0.00305578
0.00305008
0.00301229
0.00304754
0.00304754
0.00301495
0.00301495
0.00305008
0.00301229
0.00304754
0.00304754
0.00301495
0.00301495
0.00304754
0.00301495
0.00301495
0.00305008
0.00301229
0.00304754
0.00301495
0.00301495
0.00301229
0.00300666
0.00296928
0.00300414
0.00300415
0.00297191
0.00297191
0.00300666
0.00296929
0.00300414
0.00300414
0.00297191
0.00297191
0.00300414
0.00297191
0.00297191
0.00300666
0.00296928
0.00300414
0.00297191
0.00297191
0.00296928
0.00296372
0.00292673
0.00296122
0.00296122
0.0029293
0.0029293
0.00296372
0.00292673
0.00296122
0.00296122
0.0029293
0.0029293
0.00296122
0.0029293
0.0029293
0.00296372
0.00292673
0.00296122
0.0029293
0.0029293
0.00292673
0.00292121
0.00288457
0.00291872
0.00291872
0.00288711
0.00288711
0.00292122
0.00288457
0.00291872
0.00291872
0.00288711
0.00288711
0.00291872
0.00288711
0.00288711
0.00292122
0.00288457
0.00291872
0.00288711
0.00288711
0.00288457
0.00287911
0.0028428
0.00287662
0.00287662
0.0028453
0.0028453
0.00287911
0.00284281
0.00287662
0.00287662
0.0028453
0.0028453
0.00287662
0.0028453
0.0028453
0.00287911
0.0028428
0.00287662
0.0028453
0.0028453
0.0028428
0.00283739
0.0028014
0.00283491
0.00283491
0.00280387
0.00280387
0.00283739
0.0028014
0.00283491
0.00283491
0.00280387
0.00280387
0.00283491
0.00280387
0.00280387
0.00283739
0.0028014
0.00283491
0.00280387
0.00280387
0.0028014
0.00279603
0.00276034
0.00279356
0.00279356
0.00276277
0.00276277
0.00279603
0.00276034
0.00279356
0.00279356
0.00276277
0.00276277
0.00279356
0.00276277
0.00276277
0.00279603
0.00276033
0.00279356
0.00276277
0.00276277
0.00276033
0.002755
0.00271958
0.00275254
0.00275254
0.00272198
0.00272198
0.002755
0.00271958
0.00275254
0.00275254
0.00272198
0.00272198
0.00275254
0.00272198
0.00272198
0.002755
0.00271958
0.00275254
0.00272198
0.00272198
0.00271958
0.00271429
0.00267912
0.00271183
0.00271183
0.00268149
0.00268149
0.00271429
0.00267913
0.00271183
0.00271183
0.00268149
0.00268149
0.00271183
0.00268149
0.00268149
0.00271429
0.00267912
0.00271183
0.00268149
0.00268149
0.00267912
0.00267387
0.00263894
0.00267141
0.00267141
0.00264128
0.00264128
0.00267387
0.00263894
0.00267141
0.00267141
0.00264128
0.00264128
0.00267141
0.00264128
0.00264128
0.00267387
0.00263894
0.00267141
0.00264128
0.00264128
0.00263894
0.00263372
0.00259902
0.00263127
0.00263127
0.00260133
0.00260133
0.00263372
0.00259902
0.00263127
0.00263127
0.00260133
0.00260133
0.00263127
0.00260133
0.00260133
0.00263372
0.00259902
0.00263127
0.00260133
0.00260133
0.00259902
0.00259382
0.00255936
0.00259138
0.00259138
0.00256165
0.00256165
0.00259382
0.00255936
0.00259138
0.00259138
0.00256165
0.00256165
0.00259138
0.00256165
0.00256165
0.00259382
0.00255936
0.00259138
0.00256165
0.00256165
0.00255936
0.00255419
0.00251996
0.00255177
0.00255176
0.00252223
0.00252223
0.00255419
0.00251996
0.00255176
0.00255176
0.00252223
0.00252223
0.00255177
0.00252223
0.00252223
0.00255419
0.00251996
0.00255176
0.00252223
0.00252223
0.00251996
0.00251484
0.00248102
0.00251244
0.00251244
0.00248325
0.00248325
0.00251484
0.00248102
0.00251244
0.00251244
0.00248325
0.00248325
0.00251244
0.00248325
0.00248325
0.00251484
0.00248102
0.00251244
0.00248325
0.00248325
0.00248102
0.00247595
0.00244252
0.00247357
0.00247357
0.00244473
0.00244473
0.00247595
0.00244252
0.00247357
0.00247357
0.00244473
0.00244473
0.00247357
0.00244473
0.00244473
0.00247595
0.00244252
0.00247357
0.00244473
0.00244473
0.00244252
0.00243751
0.00240465
0.00243519
0.00243519
0.00240684
0.00240684
0.00243751
0.00240465
0.00243519
0.00243519
0.00240684
0.00240684
0.00243519
0.00240684
0.00240684
0.00243751
0.00240465
0.00243519
0.00240684
0.00240684
0.00240465
0.00239973
0.00236751
0.00239749
0.00239749
0.00236968
0.00236968
0.00239973
0.00236751
0.00239749
0.00239749
0.00236968
0.00236968
0.00239749
0.00236968
0.00236968
0.00239974
0.00236751
0.00239749
0.00236968
0.00236968
0.00236751
0.00236268
0.00233098
0.00236049
0.00236049
0.00233313
0.00233313
0.00236268
0.00233098
0.00236049
0.00236049
0.00233313
0.00233313
0.00236049
0.00233313
0.00233313
0.00236268
0.00233098
0.00236049
0.00233313
0.00233313
0.00233098
0.00232622
0.00229483
0.00232406
0.00232406
0.00229696
0.00229696
0.00232622
0.00229483
0.00232406
0.00232406
0.00229696
0.00229696
0.00232406
0.00229696
0.00229696
0.00232622
0.00229483
0.00232406
0.00229696
0.00229696
0.00229483
0.0022901
0.00225889
0.00228796
0.00228796
0.00226102
0.00226102
0.0022901
0.00225889
0.00228796
0.00228796
0.00226102
0.00226102
0.00228796
0.00226102
0.00226102
0.0022901
0.00225889
0.00228796
0.00226102
0.00226102
0.00225889
0.00225418
0.00222307
0.00225206
0.00225206
0.00222519
0.00222519
0.00225418
0.00222307
0.00225206
0.00225206
0.00222519
0.00222519
0.00225206
0.00222519
0.00222519
0.00225418
0.00222307
0.00225206
0.00222519
0.00222519
0.00222307
0.00221836
0.00218728
0.00221624
0.00221624
0.0021894
0.0021894
0.00221836
0.00218728
0.00221624
0.00221624
0.0021894
0.0021894
0.00221624
0.0021894
0.0021894
0.00221836
0.00218728
0.00221624
0.0021894
0.0021894
0.00218728
0.00218257
0.00215149
0.00218045
0.00218045
0.00215361
0.00215361
0.00218257
0.00215149
0.00218045
0.00218045
0.00215361
0.00215361
0.00218045
0.00215361
0.00215361
0.00218257
0.00215149
0.00218045
0.00215361
0.00215361
0.00215149
0.00214678
0.0021157
0.00214466
0.00214466
0.00211782
0.00211782
0.00214678
0.0021157
0.00214466
0.00214466
0.00211782
0.00211782
0.00214466
0.00211782
0.00211782
0.00214678
0.0021157
0.00214466
0.00211782
0.00211782
0.0021157
0.00211099
0.00207991
0.00210887
0.00210887
0.00208203
0.00208203
0.00211099
0.00207991
0.00210887
0.00210887
0.00208203
0.00208203
0.00210887
0.00208203
0.00208203
0.00211099
0.00207991
0.00210887
0.00208203
0.00208203
0.00207991
0.0020752
0.00204412
0.00207308
0.00207308
0.00204624
0.00204624
0.0020752
0.00204412
0.00207308
0.00207308
0.00204624
0.00204624
0.00207308
0.00204624
0.00204624
0.0020752
0.00204412
0.00207308
0.00204624
0.00204624
0.00204412
0.00203941
0.00200832
0.00203729
0.00203729
0.00201044
0.00201044
0.00203941
0.00200832
0.00203729
0.00203729
0.00201044
0.00201044
0.00203729
0.00201044
0.00201044
0.00203941
0.00200832
0.00203729
0.00201044
0.00201044
0.00200832
0.00200362
0.00197253
0.0020015
0.0020015
0.00197465
0.00197465
0.00200362
0.00197253
0.0020015
0.0020015
0.00197465
0.00197465
0.0020015
0.00197465
0.00197465
0.00200362
0.00197253
0.0020015
0.00197465
0.00197465
0.00197253
0.00196782
0.00193674
0.0019657
0.0019657
0.00193886
0.00193886
0.00196782
0.00193674
0.0019657
0.0019657
0.00193886
0.00193886
0.0019657
0.00193886
0.00193886
0.00196782
0.00193674
0.0019657
0.00193886
0.00193886
0.00193674
0.00193203
0.00190095
0.00192991
0.00192991
0.00190307
0.00190307
0.00193203
0.00190095
0.00192991
0.00192991
0.00190307
0.00190307
0.00192991
0.00190307
0.00190307
0.00193203
0.00190095
0.00192991
0.00190307
0.00190307
0.00190095
0.00189624
0.00186516
0.00189412
0.00189412
0.00186728
0.00186728
0.00189624
0.00186516
0.00189412
0.00189412
0.00186728
0.00186728
0.00189412
0.00186728
0.00186728
0.00189624
0.00186516
0.00189412
0.00186728
0.00186728
0.00186516
0.00186045
0.00182937
0.00185833
0.00185833
0.00183149
0.00183149
0.00186045
0.00182937
0.00185833
0.00185833
0.00183149
0.00183149
0.00185833
0.00183149
0.00183149
0.00186045
0.00182937
0.00185833
0.00183149
0.00183149
0.00182937
0.00182466
0.00179358
0.00182254
0.00182254
0.0017957
0.0017957
0.00182466
0.00179358
0.00182254
0.00182254
0.0017957
0.0017957
0.00182254
0.0017957
0.0017957
0.00182466
0.00179358
0.00182254
0.0017957
0.0017957
0.00179358
0.00178887
0.00175779
0.00178675
0.00178675
0.00175991
0.0017599
0.00178887
0.00175779
0.00178675
0.00178675
0.00175991
0.00175991
0.00178675
0.0017599
0.00175991
0.00178887
0.00175779
0.00178675
0.00175991
0.00175991
0.00175779
0.00175308
0.001722
0.00175096
0.00175096
0.00172412
0.00172412
0.00175308
0.001722
0.00175096
0.00175096
0.00172412
0.00172412
0.00175096
0.00172412
0.00172412
0.00175308
0.001722
0.00175096
0.00172412
0.00172412
0.001722
0.00171729
0.00168621
0.00171517
0.00171517
0.00168833
0.00168833
0.00171729
0.00168621
0.00171517
0.00171517
0.00168833
0.00168833
0.00171517
0.00168833
0.00168833
0.00171729
0.00168621
0.00171517
0.00168833
0.00168833
0.00168621
0.00360465
0.00361441
0.00360921
0.00360922
0.0036316
0.00361838
0.00364699
0.00361243
0.0036316
0.00361838
0.00361243
0.00364698
0.00362295
0.00365073
0.00365073
0.00356001
0.00357916
0.00358835
0.00355209
0.00355283
0.0035556
0.00355999
0.00357913
0.00358834
0.00355207
0.00358287
0.00358287
0.00358287
0.00353946
0.00353947
0.00353946
0.00353946
0.00355751
0.00358334
0.00358327
0.00356634
0.00358636
0.00355641
0.00356722
0.00355293
0.00355559
0.00355752
0.00358327
0.00358335
0.00356634
0.00358636
0.00356722
0.00355641
0.00358921
0.0035892
0.00356074
0.00355605
0.00355605
0.00351338
0.00353266
0.00353402
0.00351191
0.00353156
0.00351147
0.00351337
0.00353265
0.00353402
0.00351191
0.00352751
0.00352751
0.00352751
0.00348992
0.00348992
0.00348992
0.00348992
0.00351196
0.00353273
0.00352751
0.00351564
0.00353152
0.0035125
0.00351537
0.00353156
0.00351146
0.00351196
0.00352751
0.00353273
0.00351564
0.00353152
0.00351537
0.0035125
0.00353375
0.00353375
0.00351219
0.00351284
0.00351284
0.00346111
0.00347992
0.00348099
0.00346009
0.00347955
0.00345981
0.00346111
0.00347992
0.00348099
0.00346009
0.00347676
0.00347676
0.00347676
0.00343738
0.00343738
0.00343738
0.00343738
0.00346021
0.00348032
0.00347663
0.00346359
0.00347976
0.00346058
0.0034635
0.00347955
0.00345981
0.00346021
0.00347663
0.00348032
0.00346359
0.00347976
0.0034635
0.00346057
0.00348056
0.00348056
0.0034602
0.00346064
0.00346064
0.00340859
0.00342724
0.0034281
0.00340782
0.00342704
0.00340764
0.00340859
0.00342724
0.0034281
0.00340782
0.00342437
0.00342437
0.00342437
0.00338575
0.00338575
0.00338575
0.00338575
0.00340808
0.00342765
0.00342434
0.00341144
0.00342737
0.00340826
0.0034114
0.00342704
0.00340764
0.00340808
0.00342434
0.00342765
0.00341144
0.00342737
0.0034114
0.00340826
0.00342769
0.00342769
0.00340812
0.0034082
0.0034082
0.00335739
0.00337575
0.00337638
0.00335684
0.0033756
0.0033567
0.00335739
0.00337575
0.00337638
0.00335684
0.00337302
0.00337302
0.00337302
0.0033354
0.0033354
0.0033354
0.0033354
0.00335712
0.0033761
0.003373
0.0033604
0.00337593
0.00335723
0.00336037
0.0033756
0.0033567
0.00335712
0.003373
0.0033761
0.0033604
0.00337593
0.00336037
0.00335723
0.00337608
0.00337608
0.0033572
0.00335714
0.00335714
0.00330775
0.0033257
0.00332615
0.00330735
0.00332559
0.00330723
0.00330775
0.0033257
0.00332615
0.00330735
0.00332305
0.00332305
0.00332305
0.00328653
0.00328653
0.00328653
0.00328653
0.00330763
0.003326
0.00332303
0.0033108
0.00332588
0.0033077
0.00331077
0.00332558
0.00330724
0.00330763
0.00332303
0.003326
0.0033108
0.00332588
0.00331077
0.0033077
0.00332598
0.00332598
0.00330772
0.00330761
0.00330761
0.00325958
0.00327713
0.00327745
0.0032593
0.00327702
0.0032592
0.00325958
0.00327713
0.00327745
0.0032593
0.00327452
0.00327452
0.00327452
0.00323899
0.00323899
0.00323899
0.00323899
0.00325956
0.00327739
0.00327451
0.00326262
0.00327729
0.00325961
0.00326259
0.00327702
0.0032592
0.00325956
0.00327451
0.00327739
0.00326262
0.00327729
0.00326259
0.00325961
0.00327738
0.00327738
0.00325965
0.00325953
0.00325953
0.00321269
0.00322987
0.0032301
0.00321248
0.00322978
0.00321239
0.00321269
0.00322987
0.0032301
0.00321248
0.0032273
0.0032273
0.0032273
0.00319261
0.00319261
0.00319261
0.00319261
0.00321272
0.0032301
0.00322728
0.00321569
0.00323002
0.00321278
0.00321565
0.00322978
0.00321239
0.00321272
0.00322728
0.0032301
0.00321569
0.00323002
0.00321565
0.00321278
0.0032301
0.0032301
0.00321282
0.00321269
0.00321269
0.00316685
0.00318372
0.0031839
0.00316669
0.00318363
0.0031666
0.00316685
0.00318372
0.0031839
0.00316669
0.00318117
0.00318117
0.00318117
0.00314717
0.00314717
0.00314717
0.00314717
0.00316693
0.00318393
0.00318116
0.0031698
0.00318386
0.00316697
0.00316977
0.00318363
0.0031666
0.00316693
0.00318116
0.00318393
0.0031698
0.00318386
0.00316977
0.00316697
0.00318393
0.00318393
0.00316701
0.00316688
0.00316688
0.00312186
0.00313846
0.00313861
0.00312173
0.00313838
0.00312164
0.00312186
0.00313846
0.00313861
0.00312173
0.00313594
0.00313593
0.00313593
0.00310249
0.00310249
0.00310249
0.00310249
0.00312196
0.00313867
0.00313593
0.00312477
0.0031386
0.003122
0.00312474
0.00313838
0.00312164
0.00312196
0.00313593
0.00313867
0.00312477
0.0031386
0.00312474
0.003122
0.00313866
0.00313866
0.00312203
0.0031219
0.0031219
0.00307756
0.00309393
0.00309407
0.00307743
0.00309385
0.00307735
0.00307756
0.00309393
0.00309407
0.00307743
0.00309143
0.00309143
0.00309143
0.00305844
0.00305844
0.00305844
0.00305844
0.00307768
0.00309413
0.00309142
0.00308042
0.00309408
0.00307771
0.0030804
0.00309385
0.00307735
0.00307768
0.00309142
0.00309413
0.00308042
0.00309408
0.0030804
0.00307771
0.00309411
0.00309411
0.00307772
0.00307759
0.00307759
0.00303382
0.00305
0.00305012
0.00303369
0.00304992
0.00303362
0.00303382
0.00305
0.00305012
0.00303369
0.00304752
0.00304752
0.00304752
0.00301493
0.00301493
0.00301493
0.00301493
0.00303396
0.00305019
0.00304752
0.00303664
0.00305016
0.00303397
0.00303663
0.00304992
0.00303362
0.00303396
0.00304752
0.00305019
0.00303664
0.00305016
0.00303663
0.00303397
0.00305016
0.00305016
0.00303398
0.00303384
0.00303384
0.00299058
0.00300658
0.0030067
0.00299045
0.0030065
0.00299038
0.00299058
0.00300657
0.0030067
0.00299045
0.00300413
0.00300413
0.00300413
0.00297189
0.00297189
0.00297189
0.00297189
0.00299074
0.00300676
0.00300413
0.00299337
0.00300675
0.00299072
0.00299336
0.0030065
0.00299038
0.00299074
0.00300413
0.00300676
0.00299337
0.00300675
0.00299336
0.00299072
0.00300672
0.00300672
0.00299072
0.00299059
0.00299058
0.00294779
0.00296362
0.00296374
0.00294766
0.00296355
0.00294759
0.00294779
0.00296362
0.00296374
0.00294766
0.0029612
0.0029612
0.0029612
0.00292929
0.00292929
0.00292929
0.00292929
0.00294797
0.00296379
0.00296121
0.00295055
0.00296381
0.00294793
0.00295054
0.00296355
0.00294759
0.00294797
0.00296121
0.00296379
0.00295055
0.00296381
0.00295054
0.00294793
0.00296375
0.00296375
0.00294796
0.00294778
0.00294778
0.00290542
0.00292109
0.00292122
0.00290529
0.00292104
0.00290524
0.00290542
0.00292109
0.00292122
0.00290529
0.00291871
0.00291871
0.00291871
0.0028871
0.0028871
0.0028871
0.0028871
0.00290563
0.00292126
0.00291872
0.00290815
0.00292131
0.00290556
0.00290816
0.00292104
0.00290524
0.00290563
0.00291872
0.00292126
0.00290816
0.00292131
0.00290816
0.00290556
0.00292122
0.00292122
0.0029056
0.0029054
0.0029054
0.00286345
0.00287898
0.0028791
0.00286333
0.00287892
0.00286328
0.00286345
0.00287898
0.0028791
0.00286333
0.00287662
0.00287662
0.00287662
0.00284531
0.00284531
0.00284531
0.0028453
0.00286368
0.00287914
0.00287663
0.00286616
0.00287921
0.00286358
0.00286617
0.00287893
0.00286328
0.00286368
0.00287663
0.00287914
0.00286616
0.00287921
0.00286617
0.00286358
0.00287909
0.00287909
0.00286364
0.00286343
0.00286343
0.00282185
0.00283725
0.00283737
0.00282174
0.00283721
0.00282169
0.00282185
0.00283725
0.00283737
0.00282174
0.00283491
0.00283491
0.00283491
0.00280387
0.00280387
0.00280387
0.00280387
0.00282211
0.0028374
0.00283493
0.00282454
0.00283749
0.00282198
0.00282456
0.00283721
0.00282169
0.00282211
0.00283493
0.0028374
0.00282454
0.00283749
0.00282456
0.00282198
0.00283736
0.00283736
0.00282206
0.00282183
0.00282183
0.00278061
0.00279589
0.002796
0.0027805
0.00279585
0.00278046
0.00278061
0.00279589
0.002796
0.0027805
0.00279357
0.00279357
0.00279357
0.00276278
0.00276278
0.00276278
0.00276278
0.00278088
0.00279602
0.00279358
0.00278328
0.00279613
0.00278073
0.0027833
0.00279585
0.00278046
0.00278088
0.00279358
0.00279602
0.00278328
0.00279613
0.0027833
0.00278073
0.00279598
0.00279598
0.00278083
0.00278058
0.00278058
0.00273969
0.00275486
0.00275496
0.00273959
0.00275483
0.00273956
0.00273969
0.00275486
0.00275496
0.00273959
0.00275255
0.00275255
0.00275255
0.002722
0.002722
0.002722
0.002722
0.00273997
0.00275497
0.00275257
0.00274234
0.0027551
0.0027398
0.00274237
0.00275482
0.00273956
0.00273997
0.00275257
0.00275497
0.00274234
0.0027551
0.00274237
0.0027398
0.00275494
0.00275494
0.00273992
0.00273966
0.00273966
0.00269908
0.00271414
0.00271423
0.00269898
0.0027141
0.00269896
0.00269908
0.00271414
0.00271423
0.00269898
0.00271186
0.00271186
0.00271186
0.00268153
0.00268153
0.00268153
0.00268153
0.00269935
0.00271424
0.00271186
0.0027017
0.00271437
0.00269918
0.00270173
0.00271411
0.00269895
0.00269935
0.00271186
0.00271424
0.0027017
0.00271437
0.00270173
0.00269918
0.00271421
0.00271421
0.00269932
0.00269904
0.00269904
0.00265875
0.00267372
0.0026738
0.00265866
0.00267368
0.00265864
0.00265875
0.00267372
0.0026738
0.00265866
0.00267145
0.00267145
0.00267145
0.00264132
0.00264132
0.00264132
0.00264132
0.00265902
0.0026738
0.00267144
0.00266135
0.00267393
0.00265885
0.00266138
0.00267369
0.00265863
0.00265902
0.00267144
0.0026738
0.00266135
0.00267393
0.00266138
0.00265884
0.00267378
0.00267378
0.002659
0.00265871
0.00265871
0.00261869
0.00263356
0.00263364
0.0026186
0.00263353
0.00261858
0.00261869
0.00263356
0.00263364
0.0026186
0.00263131
0.00263131
0.00263131
0.00260138
0.00260138
0.00260138
0.00260138
0.00261895
0.00263363
0.0026313
0.00262128
0.00263376
0.00261878
0.0026213
0.00263353
0.00261858
0.00261895
0.0026313
0.00263363
0.00262128
0.00263376
0.0026213
0.00261878
0.00263362
0.00263362
0.00261895
0.00261865
0.00261865
0.00257887
0.00259366
0.00259372
0.0025788
0.00259363
0.00257878
0.00257887
0.00259366
0.00259372
0.0025788
0.00259143
0.00259143
0.00259143
0.0025617
0.0025617
0.0025617
0.0025617
0.00257912
0.00259372
0.00259141
0.00258145
0.00259384
0.00257896
0.00258148
0.00259363
0.00257878
0.00257912
0.00259141
0.00259372
0.00258145
0.00259383
0.00258148
0.00257896
0.00259371
0.00259371
0.00257916
0.00257884
0.00257884
0.00253934
0.00255403
0.0025541
0.00253926
0.00255401
0.00253924
0.00253934
0.00255403
0.0025541
0.00253926
0.00255183
0.00255183
0.00255183
0.00252231
0.00252231
0.00252231
0.00252231
0.00253957
0.00255408
0.00255179
0.0025419
0.00255419
0.0025394
0.00254192
0.00255401
0.00253924
0.00253957
0.00255179
0.00255408
0.0025419
0.00255419
0.00254192
0.0025394
0.00255408
0.00255408
0.00253962
0.00253929
0.00253929
0.00250012
0.00251467
0.00251472
0.00250006
0.00251464
0.00250004
0.00250012
0.00251467
0.00251472
0.00250006
0.00251252
0.00251252
0.00251252
0.00248333
0.00248333
0.00248333
0.00248333
0.00250035
0.0025147
0.00251246
0.00250268
0.00251481
0.00250019
0.0025027
0.00251464
0.00250004
0.00250035
0.00251246
0.0025147
0.00250268
0.00251481
0.0025027
0.00250018
0.0025147
0.0025147
0.00250043
0.00250009
0.00250009
0.00246141
0.00247579
0.00247584
0.00246135
0.00247578
0.00246134
0.00246141
0.00247578
0.00247584
0.00246135
0.00247366
0.00247366
0.00247366
0.00244482
0.00244482
0.00244482
0.00244482
0.0024616
0.0024758
0.0024736
0.00246393
0.0024759
0.00246146
0.00246395
0.00247578
0.00246134
0.0024616
0.0024736
0.0024758
0.00246393
0.0024759
0.00246395
0.00246146
0.00247582
0.00247582
0.0024617
0.00246137
0.00246137
0.0024232
0.00243737
0.0024374
0.00242316
0.00243735
0.00242315
0.0024232
0.00243737
0.0024374
0.00242316
0.00243529
0.00243529
0.00243529
0.00240694
0.00240694
0.00240694
0.00240694
0.00242336
0.00243737
0.00243521
0.00242569
0.00243743
0.00242324
0.00242572
0.00243735
0.00242315
0.00242336
0.00243521
0.00243737
0.0024257
0.00243743
0.00242572
0.00242324
0.00243738
0.00243738
0.00242349
0.00242317
0.00242317
0.00238579
0.00239966
0.00239968
0.00238577
0.00239966
0.00238577
0.00238579
0.00239966
0.00239968
0.00238577
0.00239759
0.00239759
0.00239759
0.00236976
0.00236976
0.00236976
0.00236976
0.0023859
0.00239964
0.00239752
0.00238818
0.00239967
0.00238582
0.0023882
0.00239966
0.00238576
0.0023859
0.00239752
0.00239964
0.00238818
0.00239967
0.0023882
0.00238582
0.00239967
0.00239967
0.00238599
0.00238577
0.00238577
0.00234907
0.00236273
0.00236273
0.00234906
0.00236272
0.00234906
0.00234907
0.00236273
0.00236273
0.00234906
0.00236057
0.00236057
0.00236057
0.00233318
0.00233318
0.00233318
0.00233318
0.00234915
0.00236269
0.00236051
0.00235134
0.00236269
0.0023491
0.00235136
0.00236272
0.00234906
0.00234915
0.00236051
0.00236269
0.00235134
0.00236269
0.00235136
0.0023491
0.00236273
0.00236273
0.00234918
0.00234906
0.00234906
0.00231278
0.00232631
0.00232631
0.00231277
0.00232631
0.00231278
0.00231278
0.00232631
0.00232631
0.00231277
0.00232411
0.00232411
0.00232411
0.00229701
0.00229701
0.00229701
0.00229701
0.00231286
0.00232627
0.00232407
0.00231501
0.00232625
0.00231282
0.00231502
0.00232631
0.00231278
0.00231286
0.00232407
0.00232627
0.00231501
0.00232625
0.00231502
0.00231282
0.00232632
0.00232632
0.00231287
0.00231278
0.00231278
0.00227676
0.0022902
0.0022902
0.00227675
0.0022902
0.00227675
0.00227676
0.0022902
0.0022902
0.00227675
0.00228801
0.00228801
0.00228801
0.00226107
0.00226108
0.00226107
0.00226107
0.00227683
0.00229016
0.00228798
0.00227897
0.00229014
0.00227679
0.00227899
0.0022902
0.00227675
0.00227683
0.00228798
0.00229016
0.00227897
0.00229014
0.00227899
0.00227679
0.00229021
0.00229021
0.00227684
0.00227675
0.00227675
0.0022409
0.00225429
0.00225429
0.00224089
0.00225429
0.00224089
0.00224089
0.00225429
0.00225429
0.00224089
0.00225211
0.00225211
0.00225211
0.00222525
0.00222525
0.00222525
0.00222525
0.00224097
0.00225425
0.00225207
0.0022431
0.00225423
0.00224093
0.00224311
0.00225429
0.00224089
0.00224097
0.00225207
0.00225425
0.0022431
0.00225423
0.00224311
0.00224093
0.0022543
0.0022543
0.00224097
0.00224089
0.00224089
0.0022051
0.00221848
0.00221848
0.00220509
0.00221848
0.00220509
0.0022051
0.00221848
0.00221848
0.00220509
0.00221629
0.00221629
0.00221629
0.00218945
0.00218945
0.00218945
0.00218945
0.00220517
0.00221844
0.00221626
0.00220729
0.00221842
0.00220513
0.00220731
0.00221848
0.00220509
0.00220517
0.00221626
0.00221844
0.00220729
0.00221842
0.00220731
0.00220513
0.00221849
0.00221849
0.00220517
0.00220509
0.00220509
0.00216931
0.00218269
0.00218269
0.0021693
0.00218269
0.0021693
0.00216931
0.00218269
0.00218269
0.0021693
0.00218051
0.0021805
0.0021805
0.00215366
0.00215366
0.00215366
0.00215366
0.00216938
0.00218265
0.00218046
0.0021715
0.00218263
0.00216935
0.00217152
0.00218269
0.0021693
0.00216938
0.00218046
0.00218265
0.0021715
0.00218263
0.00217152
0.00216935
0.0021827
0.0021827
0.00216938
0.0021693
0.0021693
0.00213352
0.0021469
0.0021469
0.00213351
0.0021469
0.00213352
0.00213352
0.0021469
0.0021469
0.00213351
0.00214472
0.00214472
0.00214472
0.00211787
0.00211787
0.00211787
0.00211787
0.00213359
0.00214686
0.00214468
0.00213571
0.00214684
0.00213356
0.00213573
0.0021469
0.00213352
0.00213359
0.00214468
0.00214686
0.00213571
0.00214684
0.00213573
0.00213356
0.00214691
0.00214691
0.00213359
0.00213351
0.00213351
0.00209773
0.00211111
0.00211111
0.00209772
0.00211111
0.00209773
0.00209773
0.00211111
0.00211111
0.00209772
0.00210892
0.00210892
0.00210892
0.00208208
0.00208208
0.00208208
0.00208208
0.0020978
0.00211107
0.00210888
0.00209992
0.00211105
0.00209777
0.00209994
0.00211111
0.00209773
0.0020978
0.00210888
0.00211107
0.00209992
0.00211105
0.00209994
0.00209777
0.00211112
0.00211112
0.0020978
0.00209772
0.00209772
0.00206194
0.00207532
0.00207532
0.00206193
0.00207532
0.00206194
0.00206194
0.00207532
0.00207532
0.00206193
0.00207313
0.00207313
0.00207313
0.00204629
0.00204629
0.00204629
0.00204629
0.00206201
0.00207528
0.00207309
0.00206413
0.00207526
0.00206198
0.00206415
0.00207532
0.00206193
0.00206201
0.00207309
0.00207528
0.00206413
0.00207526
0.00206415
0.00206198
0.00207533
0.00207533
0.00206201
0.00206193
0.00206193
0.00202615
0.00203953
0.00203953
0.00202614
0.00203953
0.00202614
0.00202615
0.00203953
0.00203953
0.00202614
0.00203734
0.00203734
0.00203734
0.0020105
0.0020105
0.0020105
0.0020105
0.00202622
0.00203949
0.0020373
0.00202834
0.00203947
0.00202618
0.00202835
0.00203953
0.00202614
0.00202622
0.0020373
0.00203949
0.00202834
0.00203947
0.00202835
0.00202618
0.00203954
0.00203954
0.00202622
0.00202614
0.00202614
0.00199035
0.00200374
0.00200374
0.00199035
0.00200374
0.00199035
0.00199035
0.00200374
0.00200374
0.00199035
0.00200155
0.00200155
0.00200155
0.00197471
0.00197471
0.00197471
0.00197471
0.00199043
0.0020037
0.00200151
0.00199255
0.00200367
0.00199039
0.00199256
0.00200374
0.00199035
0.00199043
0.00200151
0.0020037