/*--------------------------------*- C++ -*----------------------------------*\
| =========                 |                                                 |
| \\      /  F ield         | OpenFOAM: The Open Source CFD Toolbox           |
|  \\    /   O peration     | Version:  v2012                                 |
|   \\  /    A nd           | Website:  www.openfoam.com                      |
|    \\/     M anipulation  |                                                 |
\*---------------------------------------------------------------------------*/
FoamFile
{
    version     2.0;
    format      ascii;
    class       surfaceScalarField;
    location    "125";
    object      phi;
}
// * * * * * * * * * * * * * * * * * * * * * * * * * * * * * * * * * * * * * //

dimensions      [0 3 -1 0 0 0 0];
oriented        oriented;


internalField   nonuniform List<scalar> 
248808
(
-0.00104221
-1.45815e-05
-1.44777e-05
9.34771e-06
9.17762e-06
0.00105274
-0.00026146
-5.64183e-06
1.44583e-05
6.83958e-06
0.00105941
-4.53274e-06
-1.62486e-06
-2.21805e-06
-2.57554e-06
-6.59144e-06
-7.04427e-06
-3.16376e-06
-0.000263303
-0.000259727
-0.000262829
-0.000261437
-5.64682e-06
1.44873e-05
6.92911e-06
0.0010592
-4.53786e-06
-1.63504e-06
-2.22565e-06
-2.57985e-06
-6.58553e-06
-7.04034e-06
-3.16594e-06
-0.000259699
-0.000263274
-0.000262793
-0.000260564
5.61732e-06
5.65742e-06
-4.87815e-06
-4.87222e-06
0.00025904
-1.63187e-06
-1.63376e-06
-0.00106073
8.98536e-07
8.99307e-07
0.0010622
-0.00106267
-1.60665e-06
1.62783e-06
8.28418e-07
0.00106395
-6.53885e-07
7.84503e-07
-1.48154e-07
3.78007e-07
-8.00662e-07
-1.39484e-06
-2.90558e-07
-0.00106235
-1.60156e-06
1.63834e-06
8.23606e-07
0.00106363
-6.53863e-07
7.79014e-07
-1.48202e-07
3.7539e-07
-8.03189e-07
-1.39453e-06
-2.88012e-07
-0.000261533
1.63928e-06
1.60171e-06
-7.13269e-07
-7.16419e-07
0.000259722
-1.36113e-06
-1.36255e-06
-0.0010664
6.82253e-07
6.83063e-07
0.00106775
-0.0010679
-1.55714e-06
1.3673e-06
6.90356e-07
0.00106925
-6.21819e-07
8.38623e-07
-1.06573e-07
4.24386e-07
-7.804e-07
-1.35996e-06
-2.45176e-07
-0.00106758
-1.55189e-06
1.36211e-06
6.95679e-07
0.00106892
-6.21818e-07
8.3321e-07
-1.06546e-07
4.24332e-07
-7.80323e-07
-1.35441e-06
-2.42623e-07
-0.000262766
1.58732e-06
1.55204e-06
-6.74941e-07
-6.83117e-07
0.000260984
-1.34099e-06
-1.34229e-06
-0.00107186
6.64411e-07
6.65263e-07
0.00107322
-0.00107326
-1.55555e-06
1.34196e-06
6.67273e-07
0.00107457
-6.19902e-07
8.63793e-07
-8.15837e-08
4.382e-07
-7.79442e-07
-1.36934e-06
-2.20278e-07
-0.00107292
-1.55022e-06
1.34186e-06
6.6735e-07
0.00107424
-6.17196e-07
8.58365e-07
-8.40401e-08
4.38144e-07
-7.81907e-07
-1.36911e-06
-2.17715e-07
-0.000264044
1.58325e-06
1.55043e-06
-6.64604e-07
-6.70259e-07
0.000262245
-1.29596e-06
-1.29715e-06
-0.00107721
6.42271e-07
6.43163e-07
0.00107852
-0.00107844
-1.54741e-06
1.29688e-06
6.34126e-07
0.00107969
-6.0736e-07
8.91633e-07
-5.62665e-08
4.6015e-07
-7.68228e-07
-1.37183e-06
-1.88991e-07
-0.0010781
-1.54202e-06
1.29671e-06
6.34133e-07
0.00107936
-6.04621e-07
8.86217e-07
-5.86806e-08
4.60087e-07
-7.70693e-07
-1.37161e-06
-1.86419e-07
-0.000265263
1.57524e-06
1.54224e-06
-6.4764e-07
-6.53308e-07
0.000263446
-1.24842e-06
-1.2495e-06
-0.00108237
6.20376e-07
6.21295e-07
0.00108362
-0.00108337
-1.53904e-06
1.24926e-06
6.04481e-07
0.00108457
-5.95142e-07
9.17268e-07
-3.3947e-08
4.84434e-07
-7.53947e-07
-1.36932e-06
-1.58454e-07
-0.00108303
-1.53361e-06
1.24905e-06
6.04441e-07
0.00108423
-5.92375e-07
9.11847e-07
-3.63097e-08
4.84363e-07
-7.56426e-07
-1.36911e-06
-1.55886e-07
-0.000266408
1.567e-06
1.53384e-06
-6.30761e-07
-6.36439e-07
0.000264575
-1.20434e-06
-1.20523e-06
-0.00108732
6.00851e-07
6.01745e-07
0.00108852
-0.00108806
-1.53241e-06
1.20496e-06
5.80572e-07
0.00108919
-5.85503e-07
9.40151e-07
-1.53588e-08
5.09136e-07
-7.40158e-07
-1.36514e-06
-1.3052e-07
-0.00108772
-1.52701e-06
1.20474e-06
5.80609e-07
0.00108885
-5.82773e-07
9.34659e-07
-1.76786e-08
5.09058e-07
-7.42661e-07
-1.36494e-06
-1.27965e-07
-0.00026748
1.56057e-06
1.52725e-06
-6.16211e-07
-6.2191e-07
0.00026563
-1.16557e-06
-1.16685e-06
-0.00109208
5.84403e-07
5.85347e-07
0.00109324
-0.00109251
-1.52795e-06
1.16661e-06
5.62492e-07
0.00109359
-5.78924e-07
9.6019e-07
-1.05776e-09
5.33142e-07
-7.27998e-07
-1.36104e-06
-1.05723e-07
-0.00109217
-1.52253e-06
1.16643e-06
5.62651e-07
0.00109325
-5.76174e-07
9.54684e-07
-3.06738e-09
5.33073e-07
-7.30499e-07
-1.36082e-06
-1.03164e-07
-0.000268483
1.55635e-06
1.52284e-06
-6.04334e-07
-6.10087e-07
0.000266618
-1.13188e-06
-1.13316e-06
-0.00109667
5.70316e-07
5.70994e-07
0.00109779
-0.00109676
-1.52671e-06
1.13296e-06
5.48755e-07
0.00109779
-5.75615e-07
9.76816e-07
1.6868e-08
5.55685e-07
-7.17573e-07
-1.35784e-06
-8.41076e-08
-0.00109641
-1.52118e-06
1.13291e-06
5.48827e-07
0.00109744
-5.72789e-07
9.71389e-07
1.37965e-08
5.55693e-07
-7.20011e-07
-1.35754e-06
-8.14885e-08
-0.000269423
1.55489e-06
1.52126e-06
-5.95793e-07
-6.01467e-07
0.000267544
-1.10335e-06
-1.10448e-06
-0.00110111
5.58637e-07
5.593e-07
0.0011022
-0.00110081
-1.52707e-06
1.10427e-06
5.38075e-07
0.0011018
-5.73991e-07
9.91984e-07
3.12144e-08
5.77078e-07
-7.08081e-07
-1.35511e-06
-6.5229e-08
-0.00110047
-1.52152e-06
1.10416e-06
5.38088e-07
0.00110145
-5.71177e-07
9.86531e-07
2.8274e-08
5.77072e-07
-7.10534e-07
-1.35483e-06
-6.26362e-08
-0.000270305
1.55539e-06
1.52163e-06
-5.8942e-07
-5.95145e-07
0.000268412
-1.07857e-06
-1.07955e-06
-0.00110542
5.48751e-07
5.49437e-07
0.00110648
-0.0011047
-1.52831e-06
1.07938e-06
5.28984e-07
0.00110564
-5.70773e-07
1.0062e-06
4.06003e-08
5.97218e-07
-6.98745e-07
-1.35231e-06
-4.89369e-08
-0.00110435
-1.52276e-06
1.07922e-06
5.28957e-07
0.0011053
-5.70708e-07
1.00071e-06
4.06524e-08
5.97197e-07
-7.01252e-07
-1.35204e-06
-4.63701e-08
-0.000271132
1.55678e-06
1.52289e-06
-5.84214e-07
-5.89973e-07
0.000269227
-1.05579e-06
-1.05679e-06
-0.00110962
5.39674e-07
5.40341e-07
0.00111065
-0.00110843
-1.52988e-06
1.05666e-06
5.20069e-07
0.00110934
-5.7039e-07
1.0198e-06
5.17029e-08
6.15895e-07
-6.88806e-07
-1.34877e-06
-3.48742e-08
-0.00110808
-1.52431e-06
1.05648e-06
5.20047e-07
0.00110899
-5.7031e-07
1.01431e-06
5.17674e-08
6.15878e-07
-6.91316e-07
-1.34849e-06
-3.23345e-08
-0.000271907
1.55847e-06
1.52446e-06
-5.7945e-07
-5.85244e-07
0.000269989
-1.03421e-06
-1.03514e-06
-0.00111371
5.30903e-07
5.31577e-07
0.00111472
-0.00111201
-1.53129e-06
1.03503e-06
5.10693e-07
0.00111288
-5.69091e-07
1.03315e-06
6.19127e-08
6.32932e-07
-6.77709e-07
-1.34414e-06
-2.27294e-08
-0.00111166
-1.52569e-06
1.03483e-06
5.10658e-07
0.00111253
-5.68995e-07
1.02765e-06
6.19898e-08
6.3292e-07
-6.80221e-07
-1.34385e-06
-2.02381e-08
-0.00027263
1.56001e-06
1.52586e-06
-5.74782e-07
-5.80662e-07
0.0002707
-1.01331e-06
-1.0142e-06
-0.0011177
5.22295e-07
5.23034e-07
0.00111868
-0.00111543
-1.53281e-06
1.01411e-06
5.00599e-07
0.00111627
-5.66531e-07
1.04585e-06
7.12581e-08
6.48518e-07
-6.64999e-07
-1.33792e-06
-1.20475e-08
-0.00111508
-1.52709e-06
1.01389e-06
5.00607e-07
0.00111592
-5.66411e-07
1.04039e-06
7.13453e-08
6.48516e-07
-6.67516e-07
-1.33763e-06
-9.65637e-09
-0.0002733
1.56153e-06
1.52737e-06
-5.69677e-07
-5.75296e-07
0.000271356
-9.92428e-07
-9.93195e-07
-0.00112159
5.13352e-07
5.14087e-07
0.00112255
-0.00111871
-1.53326e-06
9.93139e-07
4.90274e-07
0.00111951
-5.62592e-07
1.05874e-06
7.97554e-08
6.62435e-07
-6.50861e-07
-1.33007e-06
-3.19413e-09
-0.00111836
-1.52765e-06
9.92949e-07
4.90144e-07
0.00111916
-5.6243e-07
1.05318e-06
7.99035e-08
6.62456e-07
-6.5336e-07
-1.32976e-06
-1.08296e-09
-0.000273915
1.56204e-06
1.52779e-06
-5.62363e-07
-5.68065e-07
0.000271955
-9.7103e-07
-9.71782e-07
-0.00112539
5.03956e-07
5.04691e-07
0.00112633
-0.00112184
-1.533e-06
9.71782e-07
4.77906e-07
0.00112259
-5.56969e-07
1.07095e-06
8.75121e-08
6.74518e-07
-6.35787e-07
-1.321e-06
7.26128e-09
-0.00112148
-1.52743e-06
9.7153e-07
4.77363e-07
0.00112224
-5.5684e-07
1.06531e-06
8.76e-08
6.74441e-07
-6.3838e-07
-1.32078e-06
1.06713e-08
-0.000274471
1.56183e-06
1.52748e-06
-5.54607e-07
-5.60336e-07
0.000272497
-9.50108e-07
-9.5085e-07
-0.00112909
4.9465e-07
4.95319e-07
0.00113
-0.0011248
-1.53199e-06
9.50754e-07
4.66229e-07
0.00112552
-5.49523e-07
1.08226e-06
9.46049e-08
6.8485e-07
-6.19832e-07
-1.31064e-06
1.71316e-08
-0.00112445
-1.52647e-06
9.5058e-07
4.65888e-07
0.00112516
-5.49456e-07
1.07659e-06
9.47047e-08
6.84781e-07
-6.22411e-07
-1.31041e-06
2.03178e-08
-0.000274965
1.56097e-06
1.52654e-06
-5.46317e-07
-5.52053e-07
0.000272976
-9.28543e-07
-9.2931e-07
-0.0011327
4.84661e-07
4.85332e-07
0.00113359
-0.00112761
-1.52996e-06
9.2909e-07
4.55493e-07
0.00112828
-5.40374e-07
1.09271e-06
1.01307e-07
6.9394e-07
-6.03127e-07
-1.29897e-06
2.57303e-08
-0.00112725
-1.52444e-06
9.29057e-07
4.55112e-07
0.00112792
-5.40292e-07
1.08702e-06
1.01423e-07
6.93844e-07
-6.05696e-07
-1.29869e-06
2.88182e-08
-0.000275395
1.55903e-06
1.52451e-06
-5.37087e-07
-5.42822e-07
0.000273391
-9.06657e-07
-9.0722e-07
-0.00113622
4.74277e-07
4.7501e-07
0.00113708
-0.00113024
-1.52688e-06
9.07156e-07
4.44752e-07
0.00113087
-5.29867e-07
1.10217e-06
1.07437e-07
7.02367e-07
-5.85995e-07
-1.28552e-06
3.341e-08
-0.00112988
-1.5213e-06
9.06894e-07
4.44336e-07
0.00113051
-5.29683e-07
1.09653e-06
1.07674e-07
7.02248e-07
-5.88541e-07
-1.28533e-06
3.65081e-08
-0.000275756
1.55596e-06
1.52139e-06
-5.26965e-07
-5.32688e-07
0.000273738
-8.86561e-07
-8.87162e-07
-0.00113964
4.65357e-07
4.66073e-07
0.00114048
-0.00113269
-1.52268e-06
8.87035e-07
4.34752e-07
0.00113328
-5.18297e-07
1.11049e-06
1.13079e-07
7.09729e-07
-5.69023e-07
-1.271e-06
4.013e-08
-0.00113234
-1.51713e-06
8.86793e-07
4.34505e-07
0.00113292
-5.18216e-07
1.10479e-06
1.13201e-07
7.09606e-07
-5.71585e-07
-1.27082e-06
4.31933e-08
-0.000276047
1.55185e-06
1.5172e-06
-5.16058e-07
-5.21781e-07
0.000274016
-8.65491e-07
-8.66046e-07
-0.00114296
4.56077e-07
4.56759e-07
0.00114378
-0.00113497
-1.51689e-06
8.65873e-07
4.24965e-07
0.00113551
-5.0879e-07
1.11803e-06
1.21043e-07
7.16785e-07
-5.51888e-07
-1.25503e-06
4.66739e-08
-0.00113461
-1.51135e-06
8.6567e-07
4.24689e-07
0.00113515
-5.0583e-07
1.11231e-06
1.18397e-07
7.16665e-07
-5.54393e-07
-1.25484e-06
4.97078e-08
-0.000276267
1.54611e-06
1.51142e-06
-5.04005e-07
-5.09718e-07
0.000274223
-8.43254e-07
-8.43731e-07
-0.00114621
4.46063e-07
4.46817e-07
0.001147
-0.00113705
-1.50961e-06
8.43585e-07
4.14971e-07
0.00113755
-4.9604e-07
1.12482e-06
1.25929e-07
7.23678e-07
-5.34661e-07
-1.238e-06
5.32838e-08
-0.00113669
-1.50404e-06
8.4337e-07
4.14732e-07
0.00113719
-4.93046e-07
1.11913e-06
1.23229e-07
7.23549e-07
-5.37159e-07
-1.23781e-06
5.62985e-08
-0.000276416
1.53884e-06
1.50411e-06
-4.90904e-07
-4.96593e-07
0.00027436
-8.2327e-07
-8.23987e-07
-0.00114935
4.37748e-07
4.38451e-07
0.00115012
-0.00113895
-1.50101e-06
8.23767e-07
4.0699e-07
0.00113939
-4.82844e-07
1.13046e-06
1.30882e-07
7.30181e-07
-5.18159e-07
-1.22045e-06
5.93825e-08
-0.00113859
-1.49539e-06
8.23689e-07
4.06576e-07
0.00113903
-4.79968e-07
1.12483e-06
1.28051e-07
7.30072e-07
-5.20518e-07
-1.22023e-06
6.23651e-08
-0.000276496
1.53029e-06
1.49549e-06
-4.77147e-07
-4.82848e-07
0.00027443
-7.93738e-07
-7.94375e-07
-0.00115239
4.23841e-07
4.24507e-07
0.00115313
-0.00114063
-1.49007e-06
7.94265e-07
3.95766e-07
0.00114102
-4.67748e-07
1.13646e-06
1.37124e-07
7.37748e-07
-4.99827e-07
-1.20094e-06
6.72725e-08
-0.00114027
-1.48445e-06
7.93993e-07
3.95588e-07
0.00114066
-4.64902e-07
1.13083e-06
1.34293e-07
7.37691e-07
-5.02323e-07
-1.20069e-06
7.02206e-08
-0.000276507
1.51931e-06
1.48459e-06
-4.61967e-07
-4.67594e-07
0.000274433
-7.52333e-07
-7.5272e-07
-0.0011553
4.04032e-07
4.0473e-07
0.00115599
-0.0011421
-1.47482e-06
7.52638e-07
3.76464e-07
0.00114243
-4.49627e-07
1.14557e-06
1.46848e-07
7.51294e-07
-4.77766e-07
-1.17603e-06
8.04562e-08
-0.00114174
-1.46918e-06
7.52387e-07
3.76258e-07
0.00114207
-4.46773e-07
1.13992e-06
1.44022e-07
7.51225e-07
-4.80291e-07
-1.1758e-06
8.34125e-08
-0.000276457
1.50408e-06
1.46935e-06
-4.42798e-07
-4.4838e-07
0.000274374
-6.79703e-07
-6.79948e-07
-0.00115797
3.66341e-07
3.67101e-07
0.0011586
-0.00114329
-1.45237e-06
6.80033e-07
3.45555e-07
0.00114354
-4.25998e-07
1.16009e-06
1.61908e-07
7.71342e-07
-4.47756e-07
-1.14422e-06
1.01456e-07
-0.00114293
-1.44669e-06
6.79737e-07
3.45331e-07
0.00114318
-4.23122e-07
1.15449e-06
1.59109e-07
7.71268e-07
-4.50298e-07
-1.14399e-06
1.04342e-07
-0.00027634
1.48162e-06
1.44689e-06
-4.1745e-07
-4.22994e-07
0.000274252
-5.72969e-07
-5.7309e-07
-0.00116034
3.12973e-07
3.13581e-07
0.00116086
-0.00114416
-1.41986e-06
5.73282e-07
2.93932e-07
0.00114432
-3.94243e-07
1.18584e-06
1.87154e-07
8.02965e-07
-4.12804e-07
-1.1037e-06
1.30213e-07
-0.0011438
-1.41427e-06
5.72978e-07
2.938e-07
0.00114396
-3.91468e-07
1.18014e-06
1.84257e-07
8.02935e-07
-4.15261e-07
-1.10343e-06
1.33142e-07
-0.000276173
1.44914e-06
1.41439e-06
-3.8405e-07
-3.89516e-07
0.000274083
-3.93883e-07
-3.94072e-07
-0.00116218
2.20151e-07
2.20458e-07
0.00116252
-0.00114463
-1.37385e-06
3.94026e-07
2.08879e-07
0.00114469
-3.54598e-07
1.22476e-06
2.2105e-07
8.52375e-07
-3.63344e-07
-1.04655e-06
1.74434e-07
-0.00114427
-1.36828e-06
3.94038e-07
2.09028e-07
0.00114433
-3.51773e-07
1.21911e-06
2.1825e-07
8.52189e-07
-3.65939e-07
-1.04639e-06
1.77142e-07
-0.000275985
1.40323e-06
1.36841e-06
-3.40301e-07
-3.45795e-07
0.0002739
-2.14728e-07
-2.14625e-07
-0.00116331
1.20345e-07
1.20534e-07
0.0011635
-0.00114483
-1.33439e-06
2.14323e-07
1.18825e-07
0.00114486
-3.22746e-07
1.25891e-06
2.49032e-07
8.93129e-07
-3.2137e-07
-9.99619e-07
2.12708e-07
-0.00114446
-1.32868e-06
2.14595e-07
1.18739e-07
0.00114449
-3.19831e-07
1.25334e-06
2.46299e-07
8.92851e-07
-3.24065e-07
-9.99566e-07
2.15356e-07
-0.000275847
1.36388e-06
1.32893e-06
-3.07048e-07
-3.12619e-07
0.000273774
-1.22186e-07
-1.22038e-07
-0.00116391
7.10545e-08
7.11061e-08
0.00116401
-0.00114491
-1.31338e-06
1.21856e-07
7.21497e-08
0.00114492
-3.05265e-07
1.27686e-06
2.64258e-07
9.1643e-07
-2.97523e-07
-9.73062e-07
2.34344e-07
-0.00114455
-1.30772e-06
1.22079e-07
7.21161e-08
0.00114455
-3.0241e-07
1.27127e-06
2.61472e-07
9.1622e-07
-3.00208e-07
-9.72945e-07
2.36977e-07
-0.000275777
1.34287e-06
1.30793e-06
-2.88442e-07
-2.93953e-07
0.000273709
-6.50886e-08
-6.46802e-08
-0.00116423
4.09242e-08
4.09634e-08
0.00116428
-0.00114489
-1.30062e-06
6.4611e-08
4.34691e-08
0.00114488
-2.94692e-07
1.28798e-06
2.73689e-07
9.31225e-07
-2.82409e-07
-9.56516e-07
2.48235e-07
-0.00114452
-1.295e-06
6.46877e-08
4.34202e-08
0.00114451
-2.9186e-07
1.28234e-06
2.70882e-07
9.31031e-07
-2.85033e-07
-9.5638e-07
2.50927e-07
-0.000275727
1.33007e-06
1.29517e-06
-2.76779e-07
-2.82229e-07
0.000273661
-2.21512e-08
-2.16612e-08
-0.00116437
1.50356e-08
1.51218e-08
0.00116438
-0.00114483
-1.29266e-06
2.1608e-08
2.30112e-08
0.00114481
-2.88203e-07
1.29473e-06
2.79362e-07
9.39957e-07
-2.73208e-07
-9.46589e-07
2.56594e-07
-0.00114446
-1.28706e-06
2.16114e-08
2.29809e-08
0.00114444
-2.85377e-07
1.28908e-06
2.76552e-07
9.39776e-07
-2.75823e-07
-9.46438e-07
2.59294e-07
-0.000275693
1.32208e-06
1.28721e-06
-2.70275e-07
-2.75687e-07
0.000273629
-1.71848e-09
-1.22668e-09
-0.0011644
3.74823e-10
5.19486e-10
0.0011644
-0.00114478
-1.28999e-06
1.20837e-09
1.40133e-08
0.00114477
-2.86087e-07
1.29679e-06
2.81142e-07
9.43013e-07
-2.69843e-07
-9.43004e-07
2.5956e-07
-0.00114441
-1.28439e-06
1.20807e-09
1.39555e-08
0.00114441
-2.83255e-07
1.29114e-06
2.7834e-07
9.42828e-07
-2.72461e-07
-9.42854e-07
2.62256e-07
-0.000275678
1.31942e-06
1.28456e-06
-2.68571e-07
-2.73976e-07
0.000273616
4.14116e-09
4.73704e-09
-0.0011644
-4.39209e-09
-4.28435e-09
0.0011644
-0.00114476
-1.28953e-06
-4.74495e-09
1.18753e-08
0.00114476
-2.85718e-07
1.29712e-06
2.81442e-07
9.43408e-07
-2.69329e-07
-9.42498e-07
2.6e-07
-0.00114439
-1.28392e-06
-4.73077e-09
1.17984e-08
0.00114439
-2.82881e-07
1.29148e-06
2.78643e-07
9.4322e-07
-2.71951e-07
-9.42352e-07
2.62692e-07
-0.000275673
1.31897e-06
1.28409e-06
-2.68475e-07
-2.73897e-07
0.000273612
5.31793e-09
5.90968e-09
-0.0011644
-5.62684e-09
-5.51465e-09
0.0011644
-0.00114476
-1.28953e-06
-5.91631e-09
1.15143e-08
0.00114476
-2.85735e-07
1.29711e-06
2.81428e-07
9.43385e-07
-2.69337e-07
-9.42512e-07
2.59994e-07
-0.00114439
-1.28393e-06
-5.90052e-09
1.14354e-08
0.00114439
-2.82898e-07
1.29147e-06
2.7863e-07
9.43198e-07
-2.71959e-07
-9.42365e-07
2.62686e-07
-0.000275672
1.31897e-06
1.28409e-06
-2.6859e-07
-2.74014e-07
0.000273611
5.55284e-09
6.14373e-09
-0.0011644
-5.88148e-09
-5.77025e-09
0.0011644
-0.00114476
-1.28954e-06
-6.1616e-09
1.14806e-08
0.00114475
-2.85737e-07
1.2971e-06
2.81426e-07
9.43389e-07
-2.69341e-07
-9.42509e-07
2.59991e-07
-0.00114439
-1.28394e-06
-6.14566e-09
1.14116e-08
0.00114439
-2.82902e-07
1.29145e-06
2.78627e-07
9.43201e-07
-2.71963e-07
-9.42363e-07
2.62685e-07
-0.000275672
1.31899e-06
1.28411e-06
-2.68609e-07
-2.74032e-07
0.000273611
5.56947e-09
6.16807e-09
-0.0011644
-5.92096e-09
-5.81078e-09
0.0011644
-0.00114475
-1.28954e-06
-6.17562e-09
1.14949e-08
0.00114475
-2.85747e-07
1.2971e-06
2.81415e-07
9.43376e-07
-2.69353e-07
-9.42523e-07
2.59979e-07
-0.00114439
-1.28394e-06
-6.16109e-09
1.14288e-08
0.00114439
-2.82913e-07
1.29145e-06
2.78616e-07
9.43189e-07
-2.71975e-07
-9.42375e-07
2.62671e-07
-0.000275672
1.31899e-06
1.28411e-06
-2.68621e-07
-2.74043e-07
0.000273611
5.57944e-09
6.17377e-09
-0.0011644
-5.9232e-09
-5.81496e-09
0.0011644
-0.00114475
-1.28955e-06
-6.17557e-09
1.14967e-08
0.00114475
-2.85742e-07
1.29709e-06
2.8142e-07
9.43372e-07
-2.69352e-07
-9.42523e-07
2.59982e-07
-0.00114439
-1.28395e-06
-6.1686e-09
1.1432e-08
0.00114439
-2.82911e-07
1.29145e-06
2.7862e-07
9.4319e-07
-2.71973e-07
-9.42373e-07
2.62674e-07
-0.000275672
1.31899e-06
1.28412e-06
-2.68623e-07
-2.74044e-07
0.000273611
5.56823e-09
6.17422e-09
-0.0011644
-5.92446e-09
-5.81148e-09
0.0011644
-0.00114475
-1.28955e-06
-6.18087e-09
1.14919e-08
0.00114475
-2.85744e-07
1.29708e-06
2.81416e-07
9.43386e-07
-2.69354e-07
-9.42511e-07
2.59978e-07
-0.00114439
-1.28395e-06
-6.16474e-09
1.1434e-08
0.00114439
-2.82912e-07
1.29144e-06
2.78619e-07
9.43199e-07
-2.71975e-07
-9.42368e-07
2.62674e-07
-0.000275672
1.319e-06
1.28412e-06
-2.68625e-07
-2.74046e-07
0.000273611
5.5813e-09
6.18096e-09
-0.0011644
-5.96027e-09
-5.83746e-09
0.0011644
-0.00114475
-1.28954e-06
-6.19061e-09
1.15045e-08
0.00114475
-2.85749e-07
1.2971e-06
2.81411e-07
9.43374e-07
-2.69351e-07
-9.42526e-07
2.59982e-07
-0.00114439
-1.28394e-06
-6.17488e-09
1.14429e-08
0.00114439
-2.82916e-07
1.29145e-06
2.78613e-07
9.43191e-07
-2.71979e-07
-9.42382e-07
2.62672e-07
-0.000275672
1.31898e-06
1.28412e-06
-2.68629e-07
-2.74044e-07
0.000273611
5.54066e-09
-5.18003e-09
-0.00116439
-5.92886e-09
-5.79084e-09
0.00116441
-0.00114475
-1.28956e-06
-6.1976e-09
1.14887e-08
0.00114475
-2.85698e-07
1.29709e-06
2.81401e-07
9.43374e-07
-2.69349e-07
-9.42519e-07
2.5998e-07
-0.00114439
-1.28396e-06
-6.16388e-09
1.14498e-08
0.00114439
-2.8291e-07
1.29144e-06
2.7862e-07
9.43182e-07
-2.7198e-07
-9.42387e-07
2.6267e-07
-0.000275672
1.319e-06
1.28413e-06
-2.68637e-07
-2.74048e-07
0.000273611
5.53104e-09
6.17809e-09
-0.00116441
-5.93487e-09
-5.79611e-09
0.00116441
-0.00114475
-1.2896e-06
-6.13904e-09
1.15728e-08
0.00114475
-2.82981e-07
1.29704e-06
2.78555e-07
9.43386e-07
-2.69326e-07
-9.42519e-07
2.59965e-07
-0.00114439
-1.28396e-06
-6.16517e-09
1.14452e-08
0.00114439
-2.82914e-07
1.29143e-06
2.7862e-07
9.432e-07
-2.71979e-07
-9.42378e-07
2.62674e-07
-0.000275672
1.319e-06
1.28413e-06
-2.6863e-07
-2.74049e-07
0.000273611
5.56151e-09
6.16155e-09
-0.00116441
-5.92052e-09
-5.81138e-09
0.00116441
-0.00114475
-1.28953e-06
-6.16335e-09
1.15139e-08
0.00114475
-2.82956e-07
1.29711e-06
2.78576e-07
9.43354e-07
-2.69326e-07
-9.42542e-07
2.59959e-07
-0.00114439
-1.28392e-06
-6.17634e-09
1.14575e-08
0.00114439
-2.82922e-07
1.29146e-06
2.78608e-07
9.43175e-07
-2.71986e-07
-9.42404e-07
2.62668e-07
-0.000275672
1.31897e-06
1.2841e-06
-2.68621e-07
-2.7404e-07
0.000273611
5.57109e-09
6.14458e-09
-0.00116441
-5.91274e-09
-5.82476e-09
0.00116441
-0.00114475
-1.28952e-06
-6.16219e-09
1.15058e-08
0.00114475
-2.82962e-07
1.29714e-06
2.78568e-07
9.43362e-07
-2.69338e-07
-9.42528e-07
2.5995e-07
-0.00114439
-1.28392e-06
-6.16668e-09
1.14621e-08
0.00114439
-2.82924e-07
1.29149e-06
2.78601e-07
9.43175e-07
-2.71997e-07
-9.42396e-07
2.6266e-07
-0.000275672
1.31895e-06
1.28408e-06
-2.68614e-07
-2.74034e-07
0.000273611
5.59245e-09
6.1623e-09
-0.00116441
-5.93179e-09
-5.85195e-09
0.00116441
-0.00114475
-1.28956e-06
-6.1854e-09
1.14916e-08
0.00114475
-2.8295e-07
1.29714e-06
2.78575e-07
9.43378e-07
-2.69338e-07
-9.42519e-07
2.5994e-07
-0.00114439
-1.28395e-06
-6.18933e-09
1.14435e-08
0.00114439
-2.8291e-07
1.29148e-06
2.78611e-07
9.43191e-07
-2.72e-07
-9.42388e-07
2.6265e-07
-0.000275671
1.31898e-06
1.28411e-06
-2.6863e-07
-2.74051e-07
0.000273611
5.55281e-09
6.1147e-09
-0.00116441
-5.87762e-09
-5.80966e-09
0.00116441
-0.00114475
-1.28963e-06
-6.13803e-09
1.14927e-08
0.00114475
-2.82925e-07
1.29704e-06
2.78621e-07
9.43394e-07
-2.69303e-07
-9.42517e-07
2.59983e-07
-0.00114439
-1.28402e-06
-6.14307e-09
1.1444e-08
0.00114439
-2.82882e-07
1.29138e-06
2.7866e-07
9.4321e-07
-2.71968e-07
-9.42383e-07
2.62689e-07
-0.000275672
1.31907e-06
1.28419e-06
-2.68642e-07
-2.74065e-07
0.000273611
5.55523e-09
6.09981e-09
-0.00116441
-5.86343e-09
-5.79986e-09
0.00116441
-0.00114475
-1.28956e-06
-6.11311e-09
1.15198e-08
0.00114475
-2.82975e-07
1.29705e-06
2.78586e-07
9.43375e-07
-2.69327e-07
-9.42544e-07
2.59986e-07
-0.00114439
-1.28396e-06
-6.12964e-09
1.1467e-08
0.00114439
-2.8293e-07
1.29139e-06
2.78627e-07
9.43194e-07
-2.71992e-07
-9.42406e-07
2.62691e-07
-0.000275672
1.31901e-06
1.28414e-06
-2.68638e-07
-2.74062e-07
0.000273611
5.22146e-06
5.2323e-06
0.000260567
-0.000259171
-5.93189e-06
-5.91777e-06
5.08158e-06
0.000261409
-0.000258686
-5.96204e-06
3.37916e-06
-5.22153e-06
5.07656e-06
0.000261442
-0.000258702
-5.97005e-06
3.37432e-06
5.22213e-06
0.000260579
-0.000259173
-5.90328e-06
-5.94651e-06
5.07467e-06
0.000261473
-0.000258717
-5.96755e-06
3.369e-06
5.08139e-06
-5.22378e-06
0.000261417
-0.000258686
3.38421e-06
-5.97225e-06
1.07111e-05
1.06174e-05
-0.000252649
-0.000256079
-0.000255118
-0.000255118
-6.41734e-06
-4.12515e-06
-6.6623e-06
-6.4177e-06
-4.12608e-06
-6.66784e-06
-5.06963e-06
0.00104223
1.06707e-05
1.06227e-05
-0.000252651
-0.000256076
-0.000255121
-0.000255121
-6.41995e-06
-4.12544e-06
-6.66504e-06
-6.41517e-06
-4.12087e-06
-6.66025e-06
-5.06927e-06
0.00104211
1.0731e-05
1.06833e-05
-0.000252643
-0.000256071
-0.000255118
-0.000255113
-6.4198e-06
-4.13281e-06
-6.66497e-06
-6.42e-06
-4.12309e-06
-6.66258e-06
-5.08397e-06
-5.07209e-06
0.00104217
1.07263e-05
1.06276e-05
-0.000252646
-0.000256074
-0.000255118
-0.000255118
-6.4147e-06
-4.12777e-06
-6.65997e-06
-6.42014e-06
-4.12592e-06
-6.6653e-06
-0.000258712
-5.95992e-06
3.36394e-06
-5.22138e-06
0.000261404
-0.000258684
3.37919e-06
-5.96198e-06
5.22453e-06
0.000260559
-0.000259158
-5.9056e-06
-5.94373e-06
-0.000258697
3.37148e-06
-5.95704e-06
-5.23228e-06
0.000261471
-0.000258712
3.36649e-06
-5.96502e-06
-0.000259168
-5.93177e-06
-5.9178e-06
5.61757e-06
5.6548e-06
-4.87838e-06
-4.87223e-06
0.000259045
-7.80479e-07
-7.44601e-07
0.000261544
-0.000259462
-2.8225e-07
-2.74857e-07
7.09203e-06
0.00105882
-4.53009e-06
-1.57833e-06
-2.21273e-06
-2.57667e-06
-6.60588e-06
-7.05009e-06
-3.17074e-06
-0.000263264
-0.000259684
-0.000262793
-5.62803e-06
1.4555e-05
7.03144e-06
0.00105919
-4.54921e-06
-1.57072e-06
-2.21587e-06
-2.58757e-06
-6.63741e-06
-7.067e-06
-3.18642e-06
-0.000263338
-0.000259715
-0.000262834
0.00106192
2.02401e-06
-0.00106086
9.73752e-07
-1.71809e-06
-1.69111e-07
-6.92239e-07
-1.46543e-06
-3.07561e-07
-8.28047e-07
3.43218e-07
7.88561e-07
0.00106234
2.02437e-06
-0.00106128
9.68689e-07
-1.7285e-06
-1.61615e-07
-6.97738e-07
-1.47114e-06
-3.07712e-07
-8.28413e-07
3.48634e-07
-4.87646e-06
-4.86912e-06
0.000259055
-7.47275e-07
0.000261569
-0.000259482
-2.79602e-07
-2.71988e-07
6.81327e-06
0.00105966
-4.55437e-06
-1.63766e-06
-2.22893e-06
-2.58588e-06
-6.61991e-06
-7.06238e-06
-3.18164e-06
-0.000263359
-0.000259742
-0.000262847
-5.62773e-06
1.45894e-05
7.12547e-06
0.00105896
-4.54904e-06
-1.58079e-06
-2.2209e-06
-2.58953e-06
-6.6367e-06
-7.06587e-06
-3.18603e-06
-0.000259684
-0.000263315
-0.000262806
0.00106294
2.03159e-06
-0.00106187
9.6225e-07
-1.68817e-06
-1.7162e-07
-6.92517e-07
-1.46847e-06
-3.07673e-07
-8.25814e-07
3.45593e-07
7.77941e-07
0.00106203
2.0346e-06
-0.00106099
9.84064e-07
-1.71815e-06
-1.6666e-07
-6.92436e-07
-1.46824e-06
-3.05095e-07
-8.30802e-07
3.43162e-07
1.45864e-05
7.1128e-06
0.00105877
-4.53002e-06
-1.57822e-06
-2.2101e-06
-2.57669e-06
-6.60589e-06
-3.1708e-06
-7.04777e-06
-0.000259679
-0.000263259
-0.000262788
2.03091e-06
-0.00106161
9.67484e-07
-1.68807e-06
-1.68945e-07
-6.89598e-07
-1.46575e-06
-3.10046e-07
3.40402e-07
-8.25537e-07
7.77916e-07
0.00106182
2.03422e-06
-0.00106078
9.84098e-07
-1.71806e-06
-1.66544e-07
-6.92193e-07
-1.4681e-06
-3.07534e-07
-8.28002e-07
3.45752e-07
-4.88129e-06
-4.8689e-06
0.000259035
-7.39133e-07
0.000261521
-0.000259444
-2.82649e-07
-2.77214e-07
1.44875e-05
6.83175e-06
0.00105961
-4.55452e-06
-1.63767e-06
-2.22899e-06
-2.5857e-06
-6.61978e-06
-3.18154e-06
-7.05965e-06
-0.000259732
-0.000263356
-0.000262842
2.03595e-06
-0.00106131
9.83006e-07
-1.68559e-06
-1.71493e-07
-6.92268e-07
-1.46262e-06
-3.05027e-07
3.40445e-07
-8.28063e-07
7.39227e-07
0.00106284
2.03659e-06
-0.00106179
9.72566e-07
-1.68313e-06
-1.71648e-07
-6.89937e-07
-1.4657e-06
-3.07512e-07
-8.2823e-07
3.40603e-07
-0.000259459
-2.79781e-07
-2.7743e-07
1.63935e-06
1.60415e-06
-7.10558e-07
-7.19028e-07
0.00025973
-8.66328e-07
-8.27634e-07
0.000262778
-0.000260667
-2.12632e-07
-2.0506e-07
8.29639e-07
0.00106319
-6.56439e-07
8.17755e-07
-1.43305e-07
3.78163e-07
-8.00552e-07
-1.39714e-06
-2.90476e-07
-1.64463e-06
1.63226e-06
8.24417e-07
0.00106362
-6.59294e-07
8.25828e-07
-1.43313e-07
3.83588e-07
-8.03525e-07
-1.40283e-06
-2.88169e-07
0.00106713
1.38301e-06
-0.0010658
7.02155e-07
-1.59182e-06
-1.03505e-07
-6.28654e-07
-1.35465e-06
-2.49034e-07
-7.76777e-07
4.22394e-07
8.71691e-07
0.00106757
1.38328e-06
-0.00106623
6.97079e-07
-1.59714e-06
-1.03625e-07
-6.28882e-07
-1.35764e-06
-2.49146e-07
-7.77128e-07
4.252e-07
-7.1105e-07
-7.18359e-07
0.000259748
-8.32889e-07
0.000262804
-0.000260679
-2.12676e-07
-2.07563e-07
8.23145e-07
0.00106421
-6.54077e-07
7.81855e-07
-1.4576e-07
3.8061e-07
-8.03594e-07
-1.40027e-06
-2.88119e-07
-1.63935e-06
1.63749e-06
8.297e-07
0.0010633
-6.5928e-07
8.17858e-07
-1.43349e-07
3.78178e-07
-8.0326e-07
-1.39733e-06
-2.87994e-07
0.00106816
1.38438e-06
-0.00106684
7.01115e-07
-1.5539e-06
-1.08438e-07
-6.23652e-07
-1.35234e-06
-2.46609e-07
-7.77118e-07
4.25048e-07
8.61108e-07
0.00106725
1.38304e-06
-0.00106591
7.02237e-07
-1.58922e-06
-1.06089e-07
-6.28796e-07
-1.35478e-06
-2.48998e-07
-7.76832e-07
4.25171e-07
1.63205e-06
8.29734e-07
0.0010631
-6.59067e-07
8.15184e-07
-1.45743e-07
3.78099e-07
-8.03177e-07
-2.88033e-07
-1.39723e-06
1.38399e-06
-0.00106657
7.06472e-07
-1.56169e-06
-1.1086e-07
-6.23495e-07
-1.35226e-06
-2.46627e-07
4.24916e-07
-7.76924e-07
8.63707e-07
0.00106704
1.37773e-06
-0.0010657
7.02256e-07
-1.58914e-06
-1.05962e-07
-6.28632e-07
-1.35471e-06
-2.49064e-07
-7.76771e-07
4.2241e-07
-7.1382e-07
-7.15801e-07
0.000259709
-8.24824e-07
0.000262753
-0.000260646
-2.12863e-07
-2.07517e-07
1.63355e-06
8.18034e-07
0.00106413
-6.54138e-07
7.76437e-07
-1.50872e-07
3.75473e-07
-8.00807e-07
-2.92953e-07
-1.39476e-06
1.38398e-06
-0.00106625
7.01389e-07
-1.55117e-06
-1.10861e-07
-6.23452e-07
-1.34669e-06
-2.49039e-07
4.16857e-07
-7.76847e-07
8.275e-07
0.00106807
1.38438e-06
-0.00106674
7.01194e-07
-1.55136e-06
-1.11009e-07
-6.2373e-07
-1.35492e-06
-2.4906e-07
-7.79701e-07
4.22384e-07
-0.000260654
-2.12734e-07
-2.07649e-07
1.58996e-06
1.55721e-06
-6.72235e-07
-6.80571e-07
0.000260984
-8.90481e-07
-8.54269e-07
0.00026406
-0.000261937
-1.91628e-07
-1.86566e-07
6.91219e-07
0.00106848
-6.29691e-07
8.72072e-07
-9.92504e-08
4.2453e-07
-7.77646e-07
-1.35444e-06
-2.47574e-07
-1.59532e-06
1.36146e-06
7.01849e-07
0.00106891
-6.29904e-07
8.7748e-07
-9.93143e-08
4.30062e-07
-7.8061e-07
-1.36006e-06
-2.42717e-07
0.00107249
1.34952e-06
-0.00107117
6.75827e-07
-1.58991e-06
-8.55466e-08
-6.24924e-07
-1.36699e-06
-2.29951e-07
-7.78103e-07
4.33831e-07
8.9593e-07
0.00107292
1.34982e-06
-0.00107159
6.76044e-07
-1.59526e-06
-8.31212e-08
-6.27786e-07
-1.37529e-06
-2.2504e-07
-7.83667e-07
4.42086e-07
-6.7528e-07
-6.77491e-07
0.000261005
-8.56942e-07
0.000264088
-0.000261963
-1.89018e-07
-1.83818e-07
6.9023e-07
0.00106952
-6.27349e-07
8.3599e-07
-1.04177e-07
4.27145e-07
-7.80578e-07
-1.36003e-06
-2.42671e-07
-1.58735e-06
1.36128e-06
6.96574e-07
0.00106859
-6.29851e-07
8.69497e-07
-9.92885e-08
4.27285e-07
-7.80292e-07
-1.3572e-06
-2.42548e-07
0.00107352
1.35085e-06
-0.0010722
6.74836e-07
-1.55439e-06
-8.79838e-08
-6.22526e-07
-1.36992e-06
-2.25011e-07
-7.83669e-07
4.36497e-07
8.90564e-07
0.0010726
1.34962e-06
-0.00107127
6.75987e-07
-1.58993e-06
-8.30807e-08
-6.27721e-07
-1.36967e-06
-2.24885e-07
-7.83362e-07
4.36596e-07
1.36625e-06
6.91331e-07
0.00106839
-6.26999e-07
8.66801e-07
-1.04164e-07
4.27175e-07
-7.80244e-07
-2.4511e-07
-1.35716e-06
1.35051e-06
-0.00107193
6.74958e-07
-1.55696e-06
-8.78695e-08
-6.22362e-07
-1.36722e-06
-2.27528e-07
4.33713e-07
-7.8091e-07
8.85166e-07
0.0010724
1.34943e-06
-0.00107107
6.7594e-07
-1.58462e-06
-8.79634e-08
-6.22193e-07
-1.36705e-06
-2.27468e-07
-7.80695e-07
4.33826e-07
-6.75369e-07
-6.80009e-07
0.000260969
-8.51517e-07
0.000264039
-0.000261921
-1.91711e-07
-1.83826e-07
1.36252e-06
6.95527e-07
0.00106942
-6.22092e-07
8.27949e-07
-1.09174e-07
4.24564e-07
-7.77905e-07
-2.45122e-07
-1.35475e-06
1.35041e-06
-0.0010716
6.75035e-07
-1.55164e-06
-9.03278e-08
-6.19659e-07
-1.36693e-06
-2.24984e-07
4.3371e-07
-7.83396e-07
8.51505e-07
0.00107344
1.35086e-06
-0.00107211
6.74884e-07
-1.55185e-06
-9.04744e-08
-6.19937e-07
-1.36467e-06
-2.2748e-07
-7.80984e-07
4.31202e-07
-0.000261934
-1.89147e-07
-1.83951e-07
1.58854e-06
1.55297e-06
-6.61895e-07