/*--------------------------------*- C++ -*----------------------------------*\
| =========                 |                                                 |
| \\      /  F ield         | OpenFOAM: The Open Source CFD Toolbox           |
|  \\    /   O peration     | Version:  v2012                                 |
|   \\  /    A nd           | Website:  www.openfoam.com                      |
|    \\/     M anipulation  |                                                 |
\*---------------------------------------------------------------------------*/
FoamFile
{
    version     2.0;
    format      ascii;
    class       volVectorField;
    location    "125";
    object      U;
}
// * * * * * * * * * * * * * * * * * * * * * * * * * * * * * * * * * * * * * //

dimensions      [0 1 -1 0 0 0 0];


internalField   nonuniform List<vector> 
85864
(
(0.000107958 0.000107892 0.100299)
(-0.000190196 0.000119271 0.100385)
(0.000119341 -0.000190187 0.100385)
(-0.000239594 -0.000239612 0.100397)
(9.42792e-05 9.42319e-05 0.10086)
(-0.000158938 9.68067e-05 0.100942)
(9.68114e-05 -0.000158935 0.100942)
(-0.000201047 -0.000201099 0.100968)
(9.54248e-05 9.54127e-05 0.10137)
(-0.000155796 9.34673e-05 0.101449)
(9.34567e-05 -0.000155803 0.101449)
(-0.000201986 -0.000202038 0.101471)
(9.38834e-05 9.38739e-05 0.101892)
(-0.000152046 9.00878e-05 0.101957)
(9.01001e-05 -0.000152051 0.101957)
(-0.000198934 -0.000198979 0.101964)
(9.11288e-05 9.11273e-05 0.102398)
(-0.000146289 8.55716e-05 0.102446)
(8.55849e-05 -0.000146293 0.102446)
(-0.000193551 -0.000193599 0.102432)
(8.81508e-05 8.81561e-05 0.102885)
(-0.000140624 8.15995e-05 0.102912)
(8.16149e-05 -0.000140629 0.102912)
(-0.000188173 -0.000188222 0.102871)
(8.53189e-05 8.53345e-05 0.103353)
(-0.000135491 7.83893e-05 0.103354)
(7.84228e-05 -0.000135501 0.103354)
(-0.000183665 -0.000183719 0.103281)
(8.28428e-05 8.28542e-05 0.103803)
(-0.000131057 7.59314e-05 0.103774)
(7.59768e-05 -0.000131066 0.103774)
(-0.000180164 -0.000180246 0.103664)
(8.06316e-05 8.05943e-05 0.104237)
(-0.000127326 7.42362e-05 0.104174)
(7.42351e-05 -0.000127319 0.104174)
(-0.000178038 -0.000178077 0.104023)
(7.87256e-05 7.86998e-05 0.104658)
(-0.000124093 7.28961e-05 0.104557)
(7.28969e-05 -0.000124089 0.104557)
(-0.000176888 -0.000176941 0.104358)
(7.70912e-05 7.70731e-05 0.105066)
(-0.00012126 7.17417e-05 0.104924)
(7.17489e-05 -0.000121258 0.104924)
(-0.000176238 -0.000176301 0.104673)
(7.55891e-05 7.55728e-05 0.105464)
(-0.000118705 7.06306e-05 0.105277)
(7.06409e-05 -0.000118699 0.105277)
(-0.000175819 -0.000175893 0.104967)
(7.41422e-05 7.41317e-05 0.105851)
(-0.000116275 6.94601e-05 0.105615)
(6.94738e-05 -0.000116264 0.105615)
(-0.000175481 -0.000175587 0.10524)
(7.27406e-05 7.27371e-05 0.106229)
(-0.000113892 6.8233e-05 0.105938)
(6.82301e-05 -0.000113877 0.105938)
(-0.000175199 -0.000175214 0.105491)
(7.13385e-05 7.13314e-05 0.106598)
(-0.00011158 6.71738e-05 0.106248)
(6.71418e-05 -0.000111553 0.106248)
(-0.000174344 -0.000174365 0.10572)
(6.98661e-05 6.98707e-05 0.106957)
(-0.000109411 6.61379e-05 0.106543)
(6.61216e-05 -0.00010945 0.106543)
(-0.000173268 -0.000173301 0.105927)
(6.83542e-05 6.83591e-05 0.107308)
(-0.00010742 6.51011e-05 0.106822)
(6.50819e-05 -0.000107457 0.106822)
(-0.00017196 -0.000171999 0.106108)
(6.68603e-05 6.68693e-05 0.107649)
(-0.000105423 6.40255e-05 0.107086)
(6.40063e-05 -0.000105435 0.107086)
(-0.000170228 -0.000170275 0.106265)
(6.53224e-05 6.53385e-05 0.107982)
(-0.000103507 6.29489e-05 0.107334)
(6.29108e-05 -0.000103503 0.107334)
(-0.000168036 -0.000168078 0.106394)
(6.38549e-05 6.38681e-05 0.108306)
(-0.000101644 6.19252e-05 0.107565)
(6.19189e-05 -0.000101646 0.107565)
(-0.000165344 -0.000165393 0.106497)
(6.23096e-05 6.23307e-05 0.108622)
(-9.95597e-05 6.08586e-05 0.107779)
(6.08394e-05 -9.95647e-05 0.107779)
(-0.000161955 -0.000162005 0.106573)
(6.07026e-05 6.07402e-05 0.108929)
(-9.71494e-05 5.96821e-05 0.107975)
(5.96763e-05 -9.71607e-05 0.107975)
(-0.000157893 -0.00015794 0.106622)
(5.93529e-05 5.93711e-05 0.109226)
(-9.48931e-05 5.87695e-05 0.108152)
(5.87164e-05 -9.48863e-05 0.108152)
(-0.000153187 -0.000153249 0.106646)
(5.72641e-05 5.72771e-05 0.109513)
(-9.16539e-05 5.72567e-05 0.10831)
(5.72207e-05 -9.16301e-05 0.10831)
(-0.00014767 -0.000147691 0.106644)
(5.43081e-05 5.43283e-05 0.109787)
(-8.68959e-05 5.46415e-05 0.108446)
(5.46035e-05 -8.68749e-05 0.108446)
(-0.000140462 -0.000140472 0.106619)
(4.88636e-05 4.88946e-05 0.110038)
(-7.8793e-05 5.04387e-05 0.108555)
(5.04038e-05 -7.87727e-05 0.108555)
(-0.000130327 -0.000130331 0.10657)
(4.12359e-05 4.12612e-05 0.110259)
(-6.63413e-05 4.27616e-05 0.108634)
(4.27454e-05 -6.63155e-05 0.108634)
(-0.000116602 -0.000116598 0.106504)
(2.82704e-05 2.82801e-05 0.110425)
(-4.57812e-05 3.05331e-05 0.108674)
(3.05384e-05 -4.57874e-05 0.108673)
(-9.80781e-05 -9.80935e-05 0.106431)
(1.46839e-05 1.46957e-05 0.110525)
(-2.58075e-05 1.78126e-05 0.108691)
(1.77902e-05 -2.58446e-05 0.10869)
(-8.34109e-05 -8.34711e-05 0.106379)
(8.0207e-06 8.02315e-06 0.110578)
(-1.51258e-05 1.12048e-05 0.108698)
(1.11941e-05 -1.51577e-05 0.108697)
(-7.55425e-05 -7.55906e-05 0.106353)
(3.88988e-06 3.89722e-06 0.110606)
(-8.49781e-06 7.26588e-06 0.108694)
(7.25308e-06 -8.50796e-06 0.108694)
(-7.06976e-05 -7.0728e-05 0.106334)
(3.40255e-07 3.5825e-07 0.110616)
(-3.91526e-06 4.47367e-06 0.108688)
(4.4655e-06 -3.91868e-06 0.108688)
(-6.7862e-05 -6.78763e-05 0.106321)
(-1.58796e-06 -1.56481e-06 0.110619)
(-1.86408e-06 3.25572e-06 0.108684)
(3.24671e-06 -1.86937e-06 0.108684)
(-6.70713e-05 -6.70817e-05 0.106316)
(-2.23305e-06 -2.21016e-06 0.110619)
(-1.47215e-06 2.96043e-06 0.108683)
(2.94949e-06 -1.47974e-06 0.108682)
(-6.69856e-05 -6.70046e-05 0.106314)
(-2.39131e-06 -2.3675e-06 0.110619)
(-1.42733e-06 2.91409e-06 0.108682)
(2.90314e-06 -1.4351e-06 0.108682)
(-6.70163e-05 -6.70357e-05 0.106314)
(-2.42216e-06 -2.39811e-06 0.110619)
(-1.41536e-06 2.90668e-06 0.108682)
(2.89637e-06 -1.42351e-06 0.108682)
(-6.70272e-05 -6.70458e-05 0.106314)
(-2.42774e-06 -2.40369e-06 0.110619)
(-1.41767e-06 2.9095e-06 0.108682)
(2.89974e-06 -1.4263e-06 0.108682)
(-6.7029e-05 -6.70474e-05 0.106314)
(-2.42805e-06 -2.40436e-06 0.110619)
(-1.41776e-06 2.90831e-06 0.108682)
(2.89908e-06 -1.42549e-06 0.108682)
(-6.70313e-05 -6.70495e-05 0.106314)
(-2.42798e-06 -2.40342e-06 0.110619)
(-1.41712e-06 2.90752e-06 0.108682)
(2.89836e-06 -1.42565e-06 0.108682)
(-6.70342e-05 -6.70513e-05 0.106314)
(-2.43073e-06 -2.40528e-06 0.110619)
(-1.41599e-06 2.9101e-06 0.108682)
(2.90074e-06 -1.42465e-06 0.108682)
(-6.7031e-05 -6.70439e-05 0.106314)
(-2.42943e-06 -2.40094e-06 0.110619)
(-1.41374e-06 2.90662e-06 0.108682)
(2.89998e-06 -1.42568e-06 0.108681)
(-6.70407e-05 -6.70519e-05 0.106314)
(-2.42872e-06 -2.39994e-06 0.110619)
(-1.41637e-06 2.91655e-06 0.108682)
(2.89877e-06 -1.42422e-06 0.108681)
(-6.70368e-05 -6.70554e-05 0.106314)
(-2.42768e-06 -2.40352e-06 0.110619)
(-1.41896e-06 2.91171e-06 0.108682)
(2.90227e-06 -1.42412e-06 0.108681)
(-6.70218e-05 -6.70395e-05 0.106314)
(-2.42704e-06 -2.40552e-06 0.110619)
(-1.42144e-06 2.91335e-06 0.108682)
(2.90419e-06 -1.42591e-06 0.108682)
(-6.70115e-05 -6.7029e-05 0.106314)
(-2.43104e-06 -2.41053e-06 0.110619)
(-1.42176e-06 2.91559e-06 0.108682)
(2.90535e-06 -1.42598e-06 0.108682)
(-6.7026e-05 -6.70439e-05 0.106314)
(-2.41915e-06 -2.40053e-06 0.110619)
(-1.41855e-06 2.9008e-06 0.108682)
(2.88994e-06 -1.42223e-06 0.108682)
(-6.70689e-05 -6.70881e-05 0.106314)
(-2.41686e-06 -2.39898e-06 0.110619)
(-1.42191e-06 2.90599e-06 0.108682)
(2.89464e-06 -1.42374e-06 0.108682)
(-6.70416e-05 -6.70605e-05 0.106314)
(0.000134958 0.000134948 0.100282)
(0.000124248 0.000152867 0.100229)
(-0.00012424 0.000152848 0.100229)
(-0.000134955 0.000134917 0.100282)
(0.000152895 0.0001242 0.100229)
(0.000152868 -0.000124217 0.100229)
(9.08042e-05 9.07528e-05 0.100151)
(-9.07948e-05 9.07502e-05 0.100151)
(9.07786e-05 -9.07985e-05 0.100151)
(-9.07765e-05 -9.07965e-05 0.100151)
(-0.000152891 0.000124196 0.100229)
(-0.000152877 -0.000124212 0.100229)
(0.000134949 -0.000134968 0.100282)
(0.000124201 -0.000152897 0.100229)
(-0.000124197 -0.000152879 0.100229)
(-0.000134957 -0.000134941 0.100282)
(0.000239636 0.000239616 0.100397)
(0.000111305 0.000111179 0.100892)
(0.000119392 0.000190089 0.100385)
(-0.000119344 0.00019013 0.100385)
(8.91024e-05 0.000147213 0.100823)
(-8.9064e-05 0.00014721 0.100823)
(-0.000239646 0.000239564 0.100397)
(-0.000111266 0.000111147 0.100892)
(0.000190232 0.00011929 0.100385)
(0.00019017 -0.00011935 0.100385)
(0.000147189 8.90739e-05 0.100823)
(0.000147222 -8.90949e-05 0.100823)
(-0.000190152 -0.000119353 0.100385)
(-0.000147158 8.90751e-05 0.100823)
(-0.000147179 -8.9089e-05 0.100823)
(0.000239567 -0.000239658 0.100397)
(0.000111257 -0.00011127 0.100892)
(-0.000119322 -0.000190217 0.100385)
(8.90759e-05 -0.000147148 0.100823)
(-8.90555e-05 -0.000147173 0.100823)
(-0.000111254 -0.000111273 0.100892)
(0.000201135 0.000200969 0.100968)
(0.000105726 0.000105646 0.101395)
(9.68199e-05 0.000158992 0.100941)
(-9.67931e-05 0.000158989 0.100941)
(9.42e-05 0.000156671 0.10132)
(-9.42002e-05 0.000156672 0.10132)
(-0.000201097 0.000200935 0.100967)
(-0.000105716 0.00010564 0.101395)
(0.000158972 9.68005e-05 0.100942)
(0.00015899 -9.68131e-05 0.100942)
(0.000156627 9.42044e-05 0.10132)
(0.000156667 -9.42074e-05 0.10132)
(-0.000158967 -9.68079e-05 0.100942)
(-0.000156624 9.42131e-05 0.10132)
(-0.000156645 -9.41977e-05 0.10132)
(0.000201044 -0.000201107 0.100968)
(0.00010569 -0.000105703 0.101395)
(-9.67933e-05 -0.000158961 0.100942)
(9.4201e-05 -0.000156624 0.10132)
(-9.42072e-05 -0.000156644 0.10132)
(-0.000105705 -0.000105711 0.101395)
(0.000202055 0.000201927 0.101471)
(9.66161e-05 9.65561e-05 0.101893)
(9.34494e-05 0.000155854 0.101449)
(-9.34545e-05 0.000155851 0.101449)
(9.11465e-05 0.000153335 0.101832)
(-9.1135e-05 0.000153325 0.101832)
(-0.000202044 0.000201911 0.101471)
(-9.65994e-05 9.65513e-05 0.101893)
(0.000155804 9.3463e-05 0.101449)
(0.000155845 -9.34585e-05 0.101449)
(0.000153277 9.11493e-05 0.101832)
(0.00015331 -9.11342e-05 0.101832)
(-0.000155827 -9.34521e-05 0.101449)
(-0.000153272 9.11413e-05 0.101832)
(-0.00015331 -9.11383e-05 0.101832)
(0.000201968 -0.000202044 0.101471)
(9.65712e-05 -9.66053e-05 0.101893)
(-9.34646e-05 -0.000155826 0.101449)
(9.11492e-05 -0.000153275 0.101832)
(-9.11387e-05 -0.000153284 0.101832)
(-9.66302e-05 -9.6632e-05 0.101893)
(0.000198966 0.000198863 0.101964)
(8.60639e-05 8.6022e-05 0.102366)
(9.0096e-05 0.00015211 0.101957)
(-9.00836e-05 0.0001521 0.101957)
(8.66925e-05 0.000147833 0.102326)
(-8.66812e-05 0.000147826 0.102326)
(-0.000198953 0.000198845 0.101964)
(-8.60515e-05 8.60224e-05 0.102366)
(0.000152054 9.00975e-05 0.101957)
(0.000152084 -9.00811e-05 0.101957)
(0.000147776 8.66925e-05 0.102326)
(0.000147807 -8.66728e-05 0.102326)
(-0.000152086 -9.00859e-05 0.101957)
(-0.000147771 8.66854e-05 0.102326)
(-0.000147814 -8.66824e-05 0.102326)
(0.000198872 -0.00019897 0.101964)
(8.6024e-05 -8.60591e-05 0.102366)
(-9.00855e-05 -0.000152056 0.101957)
(8.66975e-05 -0.000147774 0.102326)
(-8.66783e-05 -0.000147774 0.102326)
(-8.60911e-05 -8.60943e-05 0.102366)
(0.000193572 0.000193485 0.102432)
(7.60486e-05 7.60162e-05 0.102812)
(8.5578e-05 0.000146351 0.102446)
(-8.5569e-05 0.000146348 0.102446)
(8.2524e-05 0.000142061 0.102797)
(-8.25149e-05 0.000142065 0.102797)
(-0.000193565 0.000193473 0.102432)
(-7.6041e-05 7.60247e-05 0.102812)
(0.000146295 8.5578e-05 0.102446)
(0.000146325 -8.55574e-05 0.102446)
(0.000142004 8.25252e-05 0.102798)
(0.000142035 -8.24987e-05 0.102798)
(-0.000146334 -8.55665e-05 0.102446)
(-0.000142 8.25225e-05 0.102798)
(-0.000142047 -8.25145e-05 0.102798)
(0.000193483 -0.000193582 0.102432)
(7.60123e-05 -7.6049e-05 0.102812)
(-8.5564e-05 -0.00014629 0.102446)
(8.25336e-05 -0.000142003 0.102798)
(-8.25102e-05 -0.000141997 0.102798)
(-7.60886e-05 -7.60916e-05 0.102812)
(0.000188185 0.000188106 0.10287)
(6.70761e-05 6.70483e-05 0.103229)
(8.16029e-05 0.000140685 0.102912)
(-8.15949e-05 0.000140692 0.102912)
(7.91271e-05 0.000136773 0.103245)
(-7.91037e-05 0.00013677 0.103245)
(-0.00018818 0.000188099 0.10287)
(-6.7067e-05 6.70443e-05 0.103229)
(0.00014063 8.16033e-05 0.102912)
(0.00014066 -8.15771e-05 0.102912)
(0.000136721 7.91306e-05 0.103245)
(0.000136748 -7.90927e-05 0.103245)
(-0.000140672 -8.15915e-05 0.102912)
(-0.000136712 7.91198e-05 0.103245)
(-0.000136764 -7.91205e-05 0.103245)
(0.000188098 -0.000188199 0.10287)
(6.7043e-05 -6.70821e-05 0.103229)
(-8.15902e-05 -0.000140621 0.102912)
(7.91431e-05 -0.000136718 0.103245)
(-7.91156e-05 -0.000136711 0.103245)
(-6.71327e-05 -6.71387e-05 0.103229)
(0.000183668 0.00018359 0.103281)
(5.91317e-05 5.90845e-05 0.10362)
(7.83998e-05 0.000135552 0.103354)
(-7.83772e-05 0.000135549 0.103354)
(7.64728e-05 0.000132159 0.103671)
(-7.64537e-05 0.000132155 0.103671)
(-0.000183656 0.00018356 0.103281)
(-5.91302e-05 5.91046e-05 0.10362)
(0.000135502 7.84046e-05 0.103354)
(0.000135528 -7.83683e-05 0.103354)
(0.00013211 7.6506e-05 0.103671)
(0.000132132 -7.64446e-05 0.103671)
(-0.000135545 -7.8393e-05 0.103354)
(-0.000132099 7.64851e-05 0.103671)
(-0.000132148 -7.64865e-05 0.103671)
(0.000183575 -0.000183687 0.103281)
(5.91084e-05 -5.91589e-05 0.10362)
(-7.83941e-05 -0.000135491 0.103354)
(7.65187e-05 -0.000132108 0.103671)
(-7.64853e-05 -0.000132094 0.103671)
(-5.91999e-05 -5.9213e-05 0.10362)
(0.000180172 0.000180042 0.103664)
(5.2604e-05 5.26313e-05 0.103987)
(7.59521e-05 0.000131118 0.103774)
(-7.59365e-05 0.000131119 0.103774)
(7.47049e-05 0.000128271 0.104076)
(-7.46919e-05 0.000128276 0.104076)
(-0.000180169 0.00018004 0.103664)
(-5.26144e-05 5.26654e-05 0.103987)
(0.000131068 7.59524e-05 0.103774)
(0.000131097 -7.59272e-05 0.103774)
(0.000128217 7.46371e-05 0.104076)
(0.000128251 -7.46839e-05 0.104076)
(-0.0001311 -7.59262e-05 0.103774)
(-0.000128206 7.46156e-05 0.104076)
(-0.000128248 -7.46363e-05 0.104076)
(0.000180055 -0.000180227 0.103664)
(5.26289e-05 -5.25571e-05 0.103987)
(-7.5936e-05 -0.000131046 0.103774)
(7.46101e-05 -0.000128198 0.104076)
(-7.45905e-05 -0.000128181 0.104076)
(-5.25778e-05 -5.25487e-05 0.103987)
(0.000178121 0.000178066 0.104023)
(4.68635e-05 4.68774e-05 0.104332)
(7.43263e-05 0.000127389 0.104174)
(-7.43129e-05 0.000127396 0.104174)
(7.32975e-05 0.000124927 0.104463)
(-7.32816e-05 0.000124934 0.104463)
(-0.000178127 0.000178075 0.104023)
(-4.68729e-05 4.69184e-05 0.104332)
(0.000127337 7.42613e-05 0.104175)
(0.000127373 -7.43097e-05 0.104174)
(0.000124871 7.32375e-05 0.104463)
(0.000124914 -7.32792e-05 0.104463)
(-0.000127372 -7.42666e-05 0.104174)
(-0.00012486 7.321e-05 0.104463)
(-0.000124915 -7.3243e-05 0.104463)
(0.000178059 -0.000178108 0.104023)
(4.68818e-05 -4.68354e-05 0.104332)
(-7.42182e-05 -0.000127305 0.104175)
(7.32089e-05 -0.000124854 0.104463)
(-7.31933e-05 -0.000124845 0.104463)
(-4.68555e-05 -4.68427e-05 0.104332)
(0.000176957 0.000176893 0.104358)
(4.15116e-05 4.15231e-05 0.104657)
(7.29854e-05 0.000124162 0.104557)
(-7.29673e-05 0.000124169 0.104557)
(7.21219e-05 0.00012202 0.104834)
(-7.20949e-05 0.000122015 0.104834)
(-0.000176962 0.000176905 0.104358)
(-4.15054e-05 4.15537e-05 0.104657)
(0.000124104 7.29286e-05 0.104557)
(0.000124149 -7.29664e-05 0.104557)
(0.000121951 7.20663e-05 0.104834)
(0.000121998 -7.20935e-05 0.104834)
(-0.00012415 -7.29314e-05 0.104557)
(-0.000121936 7.20201e-05 0.104834)
(-0.000121999 -7.20602e-05 0.104834)
(0.000176891 -0.000176956 0.104358)
(4.152e-05 -4.14882e-05 0.104657)
(-7.2881e-05 -0.000124079 0.104557)
(7.2026e-05 -0.000121932 0.104834)
(-7.20101e-05 -0.000121925 0.104834)
(-4.15077e-05 -4.15061e-05 0.104657)
(0.000176302 0.000176238 0.104673)
(3.6394e-05 3.638e-05 0.104961)
(7.18435e-05 0.000121342 0.104924)
(-7.1817e-05 0.000121336 0.104924)
(7.10008e-05 0.000119398 0.10519)
(-7.09818e-05 0.000119397 0.10519)
(-0.000176294 0.000176238 0.104673)
(-3.63949e-05 3.64327e-05 0.104961)
(0.000121275 7.17898e-05 0.104924)
(0.000121323 -7.18157e-05 0.104924)
(0.000119338 7.09483e-05 0.10519)
(0.000119388 -7.09789e-05 0.10519)
(-0.000121324 -7.17833e-05 0.104924)
(-0.000119327 7.09078e-05 0.10519)
(-0.000119392 -7.09471e-05 0.10519)
(0.000176228 -0.000176307 0.104673)
(3.63949e-05 -3.63844e-05 0.104961)
(-7.17322e-05 -0.00012125 0.104924)
(7.09165e-05 -0.000119319 0.10519)
(-7.08979e-05 -0.000119315 0.10519)
(-3.63981e-05 -3.64071e-05 0.104961)
(0.000175874 0.000175785 0.104967)
(3.14157e-05 3.13833e-05 0.105246)
(7.07222e-05 0.000118775 0.105277)
(-7.07047e-05 0.000118776 0.105277)
(6.98554e-05 0.000116947 0.105531)
(-6.98286e-05 0.000116944 0.105531)
(-0.000175873 0.000175807 0.104967)
(-3.14297e-05 3.14512e-05 0.105246)
(0.000118716 7.06742e-05 0.105277)
(0.000118768 -7.07028e-05 0.105277)
(0.000116884 6.98096e-05 0.105531)
(0.000116935 -6.98264e-05 0.105531)
(-0.00011877 -7.06711e-05 0.105277)
(-0.000116876 6.97641e-05 0.105531)
(-0.000116942 -6.97952e-05 0.105531)
(0.000175794 -0.000175895 0.104967)
(3.14025e-05 -3.14194e-05 0.105246)
(-7.06207e-05 -0.000118693 0.105277)
(6.97745e-05 -0.000116865 0.105531)
(-6.97526e-05 -0.000116862 0.105531)
(-3.14201e-05 -3.14486e-05 0.105246)
(0.000175538 0.000175424 0.10524)
(2.65439e-05 2.65408e-05 0.105511)
(6.9549e-05 0.000116341 0.105614)
(-6.95216e-05 0.000116342 0.105614)
(6.8601e-05 0.000114566 0.105859)
(-6.86011e-05 0.000114555 0.105859)
(-0.000175559 0.000175465 0.10524)
(-2.64983e-05 2.66105e-05 0.105511)
(0.000116283 6.95123e-05 0.105615)
(0.000116334 -6.95208e-05 0.105614)
(0.000114491 6.85607e-05 0.105859)
(0.000114548 -6.86024e-05 0.105859)
(-0.000116341 -6.94891e-05 0.105614)
(-0.000114481 6.8518e-05 0.105859)
(-0.000114558 -6.857e-05 0.105859)
(0.00017544 -0.00017558 0.10524)
(2.65575e-05 -2.64837e-05 0.105511)
(-6.94475e-05 -0.00011626 0.105615)
(6.85357e-05 -0.000114464 0.105859)
(-6.85028e-05 -0.000114466 0.105859)
(-2.65808e-05 -2.65243e-05 0.105511)
(0.000175217 0.000175144 0.105491)
(2.13871e-05 2.14474e-05 0.105755)
(6.83268e-05 0.000113974 0.105938)
(-6.83307e-05 0.000113968 0.105938)
(6.75293e-05 0.000112213 0.106172)
(-6.75389e-05 0.00011222 0.106172)
(-0.000175181 0.00017518 0.105491)
(-2.13486e-05 2.14789e-05 0.105755)
(0.000113901 6.82647e-05 0.105938)
(0.000113964 -6.83259e-05 0.105938)
(0.000112143 6.74526e-05 0.106172)
(0.000112209 -6.75243e-05 0.106172)
(-0.000113972 -6.83001e-05 0.105938)
(-0.000112153 6.74358e-05 0.106172)
(-0.000112229 -6.75087e-05 0.106172)
(0.000175152 -0.000175193 0.105491)
(2.14794e-05 -2.13569e-05 0.105755)
(-6.82166e-05 -0.000113875 0.105938)
(6.74052e-05 -0.000112118 0.106172)
(-6.74142e-05 -0.000112133 0.106172)
(-2.14495e-05 -2.138e-05 0.105755)
(0.000174352 0.000174319 0.10572)
(1.64713e-05 1.6538e-05 0.105977)
(6.72647e-05 0.000111641 0.106248)
(-6.72763e-05 0.000111654 0.106248)
(6.65017e-05 0.000110053 0.10647)
(-6.65312e-05 0.000110082 0.10647)
(-0.000174325 0.000174329 0.10572)
(-1.64295e-05 1.65453e-05 0.105977)
(0.000111577 6.71905e-05 0.106248)
(0.000111643 -6.72625e-05 0.106248)
(0.000110004 6.64354e-05 0.10647)
(0.00011007 -6.65084e-05 0.10647)
(-0.000111662 -6.72448e-05 0.106248)
(-0.000109944 6.6407e-05 0.10647)
(-0.000110017 -6.64737e-05 0.10647)
(0.000174348 -0.000174365 0.10572)
(1.65583e-05 -1.64535e-05 0.105977)
(-6.71507e-05 -0.000111558 0.106248)
(6.63865e-05 -0.000109977 0.10647)
(-6.6378e-05 -0.000109915 0.10647)
(-1.64888e-05 -1.64319e-05 0.105977)
(0.000173314 0.000173288 0.105926)
(1.18957e-05 1.19617e-05 0.106176)
(6.62337e-05 0.000109521 0.106542)
(-6.6263e-05 0.000109549 0.106542)
(6.54784e-05 0.000108055 0.106753)
(-6.54923e-05 0.000108066 0.106753)
(-0.00017328 0.000173274 0.105926)
(-1.18612e-05 1.19269e-05 0.106176)
(0.000109477 6.61699e-05 0.106543)
(0.000109544 -6.62433e-05 0.106542)
(0.000108015 6.54108e-05 0.106754)
(0.000108082 -6.54863e-05 0.106753)
(-0.000109491 -6.62079e-05 0.106542)
(-0.000107955 6.53779e-05 0.106754)
(-0.000108039 -6.54584e-05 0.106754)
(0.000173307 -0.000173341 0.105926)
(1.19754e-05 -1.18799e-05 0.106176)
(-6.61133e-05 -0.000109383 0.106543)
(6.53636e-05 -0.000107984 0.106754)
(-6.53598e-05 -0.000107934 0.106754)
(-1.19104e-05 -1.18591e-05 0.106176)
(0.00017201 0.000171982 0.106108)
(7.67748e-06 7.74311e-06 0.10635)
(6.5196e-05 0.000107524 0.106822)
(-6.52112e-05 0.000107537 0.106822)
(6.43666e-05 0.000105972 0.107021)
(-6.43827e-05 0.000105991 0.107021)
(-0.000171978 0.00017193 0.106108)
(-7.63898e-06 7.7072e-06 0.10635)
(0.000107489 6.51305e-05 0.106822)
(0.000107555 -6.52051e-05 0.106822)
(0.000105941 6.43035e-05 0.107022)
(0.000106011 -6.438e-05 0.107021)
(-0.000107514 -6.51775e-05 0.106822)
(-0.000105877 6.42719e-05 0.107022)
(-0.000105974 -6.4353e-05 0.107021)
(0.000171996 -0.000172039 0.106108)
(7.75641e-06 -7.66703e-06 0.10635)
(-6.50787e-05 -0.000107399 0.106822)
(6.42551e-05 -0.000105906 0.107022)
(-6.4251e-05 -0.000105854 0.107022)
(-7.69161e-06 -7.64909e-06 0.10635)
(0.000170278 0.000170252 0.106264)
(3.83989e-06 3.89837e-06 0.106498)
(6.41167e-05 0.000105518 0.107086)
(-6.41314e-05 0.000105519 0.107086)
(6.32886e-05 0.000104082 0.107273)
(-6.33039e-05 0.000104081 0.107273)
(-0.000170243 0.000170201 0.106265)
(-3.79771e-06 3.87461e-06 0.106498)
(0.00010547 6.40562e-05 0.107086)
(0.000105536 -6.41306e-05 0.107086)
(0.000104019 6.3233e-05 0.107274)
(0.000104086 -6.33014e-05 0.107273)
(-0.000105503 -6.4104e-05 0.107086)
(-0.000103987 6.32106e-05 0.107274)
(-0.00010406 -6.3275e-05 0.107273)
(0.000170265 -0.000170312 0.106264)
(3.9135e-06 -3.82906e-06 0.106498)
(-6.40025e-05 -0.0001054 0.107086)
(6.31788e-05 -0.000103982 0.107274)
(-6.31766e-05 -0.000103959 0.107274)
(-3.85831e-06 -3.81407e-06 0.106498)
(0.000168083 0.000168048 0.106394)
(4.3699e-07 5.05829e-07 0.106619)
(6.30163e-05 0.000103609 0.107334)
(-6.3036e-05 0.000103608 0.107334)
(6.22765e-05 0.000102198 0.107509)
(-6.22918e-05 0.000102216 0.107509)
(-0.000168043 0.000168011 0.106394)
(-3.94552e-07 4.81077e-07 0.106619)
(0.000103541 6.29702e-05 0.107334)
(0.000103606 -6.30343e-05 0.107334)
(0.000102142 6.22222e-05 0.107509)
(0.000102216 -6.22853e-05 0.107508)
(-0.000103582 -6.30082e-05 0.107334)
(-0.000102114 6.21893e-05 0.107509)
(-0.000102193 -6.22667e-05 0.107509)
(0.000168063 -0.000168114 0.106394)
(5.08585e-07 -4.28502e-07 0.106618)
(-6.29101e-05 -0.000103479 0.107334)
(6.21643e-05 -0.00010211 0.107509)
(-6.21618e-05 -0.000102088 0.107509)
(-4.54033e-07 -4.17699e-07 0.106618)
(0.000165392 0.000165361 0.106497)
(-2.64089e-06 -2.58162e-06 0.106712)
(6.20244e-05 0.000101716 0.107565)
(-6.20306e-05 0.000101731 0.107565)
(6.11332e-05 0.000100039 0.107727)
(-6.11486e-05 0.000100075 0.107727)
(-0.000165341 0.000165319 0.106497)
(2.68332e-06 -2.63702e-06 0.106712)
(0.000101675 6.19676e-05 0.107565)
(0.000101749 -6.20316e-05 0.107564)
(9.99964e-05 6.10806e-05 0.107727)
(0.000100074 -6.11543e-05 0.107726)
(-0.00010172 -6.20117e-05 0.107565)
(-9.99775e-05 6.10562e-05 0.107727)
(-0.000100047 -6.11302e-05 0.107727)
(0.000165371 -0.000165426 0.106497)
(-2.58148e-06 2.65106e-06 0.106712)
(-6.19068e-05 -0.000101622 0.107565)
(6.1033e-05 -9.99725e-05 0.107727)
(-6.10291e-05 -9.99544e-05 0.107727)
(2.63749e-06 2.6707e-06 0.106712)
(0.000162017 0.000161974 0.106573)
(-5.3461e-06 -5.34291e-06 0.106777)
(6.09323e-05 9.96288e-05 0.107778)
(-6.09475e-05 9.96705e-05 0.107778)
(6.01089e-05 9.7929e-05 0.107927)
(-6.01623e-05 9.79834e-05 0.107927)
(-0.000161972 0.00016191 0.106573)
(5.39371e-06 -5.32342e-06 0.106778)
(9.95961e-05 6.08901e-05 0.107779)
(9.96719e-05 -6.09527e-05 0.107778)
(9.78997e-05 6.00964e-05 0.107927)
(9.7974e-05 -6.01577e-05 0.107927)
(-9.96488e-05 -6.09287e-05 0.107778)
(-9.78709e-05 6.00604e-05 0.107927)
(-9.7956e-05 -6.01322e-05 0.107927)
(0.000161983 -0.000162046 0.106573)
(-5.28931e-06 5.34235e-06 0.106777)
(-6.08248e-05 -9.9528e-05 0.107779)
(6.00498e-05 -9.78683e-05 0.107927)
(-6.00309e-05 -9.78428e-05 0.107927)
(5.3485e-06 5.38025e-06 0.106777)
(0.000157973 0.000157852 0.106622)
(-7.85088e-06 -7.70752e-06 0.106815)
(5.97519e-05 9.72283e-05 0.107974)
(-5.97882e-05 9.72772e-05 0.107974)
(5.91149e-05 9.56359e-05 0.108109)
(-5.9146e-05 9.56927e-05 0.108109)
(-0.000157906 0.000157874 0.106622)
(7.82306e-06 -7.76118e-06 0.106816)
(9.71967e-05 5.97247e-05 0.107975)
(9.72669e-05 -5.978e-05 0.107974)
(9.56017e-05 5.90437e-05 0.108109)
(9.56813e-05 -5.91347e-05 0.108108)
(-9.72511e-05 -5.97554e-05 0.107974)
(-9.55442e-05 5.90428e-05 0.10811)
(-9.56621e-05 -5.91117e-05 0.108109)
(0.00015792 -0.000158013 0.106622)
(-7.73941e-06 7.85697e-06 0.106815)
(-5.96574e-05 -9.71189e-05 0.107974)
(5.89897e-05 -9.5562e-05 0.108109)
(-5.90039e-05 -9.55117e-05 0.108109)
(7.79498e-06 7.81197e-06 0.106815)
(0.000153204 0.000153223 0.106645)
(-1.02366e-05 -1.01065e-05 0.106826)
(5.88497e-05 9.49451e-05 0.108151)
(-5.88759e-05 9.50081e-05 0.108151)
(5.75683e-05 9.23524e-05 0.108271)
(-5.75823e-05 9.23982e-05 0.108271)
(-0.000153219 0.000153177 0.106646)
(1.02042e-05 -1.01435e-05 0.106826)
(9.49123e-05 5.87697e-05 0.108152)
(9.49782e-05 -5.88668e-05 0.108151)
(9.23039e-05 5.74734e-05 0.108272)
(9.23864e-05 -5.75714e-05 0.108271)
(-9.49745e-05 -5.88497e-05 0.108151)
(-9.23097e-05 5.74775e-05 0.108272)
(-9.23608e-05 -5.75283e-05 0.108271)
(0.000153211 -0.000153234 0.106646)
(-1.01257e-05 1.02477e-05 0.106825)
(-5.87359e-05 -9.48739e-05 0.108152)
(5.74392e-05 -9.22767e-05 0.108272)
(-5.74504e-05 -9.22832e-05 0.108272)
(1.01593e-05 1.02079e-05 0.106825)
(0.000147663 0.000147678 0.106644)
(-1.31435e-05 -1.30415e-05 0.106812)
(5.73431e-05 9.16924e-05 0.108309)
(-5.73663e-05 9.17478e-05 0.108309)
(5.58091e-05 8.87416e-05 0.108414)
(-5.58181e-05 8.87778e-05 0.108414)
(-0.000147679 0.000147646 0.106644)
(1.31351e-05 -1.30654e-05 0.106812)
(9.16554e-05 5.72526e-05 0.10831)
(9.17331e-05 -5.73502e-05 0.108309)
(8.86749e-05 5.57122e-05 0.108414)
(8.87458e-05 -5.58023e-05 0.108413)
(-9.17073e-05 -5.73153e-05 0.108309)
(-8.86685e-05 5.5712e-05 0.108415)
(-8.87409e-05 -5.5777e-05 0.108414)
(0.000147677 -0.000147685 0.106644)
(-1.30681e-05 1.31526e-05 0.106811)
(-5.72374e-05 -9.1641e-05 0.10831)
(5.56799e-05 -8.86615e-05 0.108414)
(-5.56973e-05 -8.86692e-05 0.108414)
(1.30708e-05 1.31202e-05 0.106811)
(0.000140448 0.000140456 0.106619)
(-1.89968e-05 -1.89185e-05 0.106771)
(5.47373e-05 8.69634e-05 0.108446)
(-5.47447e-05 8.69923e-05 0.108445)
(5.15603e-05 8.08432e-05 0.10853)
(-5.15928e-05 8.09059e-05 0.10853)
(-0.000140455 0.000140423 0.106619)
(1.89833e-05 -1.89218e-05 0.106771)
(8.68989e-05 5.46409e-05 0.108446)
(8.69746e-05 -5.47273e-05 0.108445)
(8.07984e-05 5.14745e-05 0.10853)
(8.08631e-05 -5.15615e-05 0.108529)
(-8.69556e-05 -5.469e-05 0.108445)
(-8.07973e-05 5.14791e-05 0.108531)
(-8.0865e-05 -5.15301e-05 0.10853)
(0.000140445 -0.000140471 0.106619)
(-1.89337e-05 1.90201e-05 0.10677)
(-5.46173e-05 -8.68829e-05 0.108446)
(5.1444e-05 -8.07803e-05 0.10853)
(-5.14686e-05 -8.07855e-05 0.10853)
(1.89298e-05 1.89834e-05 0.10677)
(0.000130311 0.000130301 0.10657)
(-2.77313e-05 -2.76221e-05 0.106709)
(5.05201e-05 7.88486e-05 0.108554)
(-5.05505e-05 7.8895e-05 0.108554)
(4.53841e-05 7.04117e-05 0.108617)
(-4.54139e-05 7.04485e-05 0.108617)
(-0.000130316 0.000130297 0.10657)
(2.76861e-05 -2.76565e-05 0.10671)
(7.87836e-05 5.04396e-05 0.108555)
(7.88536e-05 -5.05234e-05 0.108554)
(7.0328e-05 4.5302e-05 0.108618)
(7.04043e-05 -4.53908e-05 0.108616)
(-7.8859e-05 -5.04856e-05 0.108554)
(-7.0339e-05 4.53057e-05 0.108618)
(-7.04076e-05 -4.53456e-05 0.108617)
(0.000130295 -0.00013033 0.10657)
(-2.76336e-05 2.77393e-05 0.106709)
(-5.04289e-05 -7.87717e-05 0.108555)
(4.52852e-05 -7.03248e-05 0.108618)
(-4.52919e-05 -7.03262e-05 0.108617)
(2.76545e-05 2.77126e-05 0.106709)
(0.000116573 0.000116592 0.106503)
(-4.29134e-05 -4.2884e-05 0.106638)
(4.28347e-05 6.63848e-05 0.108633)
(-4.28729e-05 6.6418e-05 0.108633)
(3.39543e-05 5.144e-05 0.108666)
(-3.39868e-05 5.14656e-05 0.108666)
(-0.000116612 0.000116562 0.106504)
(4.28991e-05 -4.28923e-05 0.106638)
(6.63125e-05 4.27416e-05 0.108634)
(6.64042e-05 -4.28503e-05 0.108633)
(5.13878e-05 3.38487e-05 0.108667)
(5.14832e-05 -3.3972e-05 0.108665)
(-6.63893e-05 -4.27999e-05 0.108633)
(-5.14093e-05 3.38682e-05 0.108667)
(-5.14568e-05 -3.39242e-05 0.108666)
(0.000116601 -0.000116603 0.106503)
(-4.28522e-05 4.293e-05 0.106637)
(-4.27388e-05 -6.63029e-05 0.108634)
(3.38731e-05 -5.13763e-05 0.108667)
(-3.38522e-05 -5.13731e-05 0.108667)
(4.28826e-05 4.29204e-05 0.106637)
(9.80979e-05 9.80403e-05 0.106431)
(-5.65362e-05 -5.65216e-05 0.106583)
(3.0629e-05 4.58336e-05 0.108673)
(-3.06518e-05 4.58687e-05 0.108672)
(2.06136e-05 3.00827e-05 0.108686)
(-2.059e-05 3.01112e-05 0.108686)
(-9.80862e-05 9.80387e-05 0.106431)
(5.65955e-05 -5.65295e-05 0.106584)
(4.57986e-05 3.05284e-05 0.108674)
(4.58564e-05 -3.06372e-05 0.108672)
(3.00329e-05 2.05152e-05 0.108687)
(3.00641e-05 -2.05829e-05 0.108686)
(-4.58529e-05 -3.06105e-05 0.108673)
(-2.99973e-05 2.04899e-05 0.108688)
(-3.00817e-05 -2.05972e-05 0.108686)
(9.80683e-05 -9.81123e-05 0.106431)
(-5.65754e-05 5.65516e-05 0.106582)
(-3.05336e-05 -4.57824e-05 0.108673)
(2.0471e-05 -3.00358e-05 0.108687)
(-2.04995e-05 -3.00446e-05 0.108687)
(5.65341e-05 5.65206e-05 0.106582)
(8.34521e-05 8.33931e-05 0.106379)
(-6.43904e-05 -6.43934e-05 0.106556)
(1.79383e-05 2.58913e-05 0.10869)
(-1.79139e-05 2.59169e-05 0.108689)
(1.2478e-05 1.71529e-05 0.108696)
(-1.24761e-05 1.71912e-05 0.108695)
(-8.33881e-05 8.33826e-05 0.10638)
(6.44266e-05 -6.43868e-05 0.106556)
(2.58398e-05 1.78373e-05 0.10869)
(2.58768e-05 -1.79043e-05 0.108689)
(1.71032e-05 1.23825e-05 0.108696)
(1.71525e-05 -1.24605e-05 0.108695)
(-2.58896e-05 -1.79197e-05 0.108689)
(-1.70758e-05 1.23659e-05 0.108697)
(-1.7165e-05 -1.24718e-05 0.108695)
(8.33509e-05 -8.3465e-05 0.106379)
(-6.44125e-05 6.43969e-05 0.106555)
(-1.78185e-05 -2.58494e-05 0.10869)
(1.23563e-05 -1.71106e-05 0.108696)
(-1.23729e-05 -1.71141e-05 0.108696)
(6.43803e-05 6.43733e-05 0.106555)
(7.55703e-05 7.54931e-05 0.106353)
(-6.91409e-05 -6.91092e-05 0.106536)
(1.13119e-05 1.52011e-05 0.108696)