/*--------------------------------*- C++ -*----------------------------------*\
| =========                 |                                                 |
| \\      /  F ield         | OpenFOAM: The Open Source CFD Toolbox           |
|  \\    /   O peration     | Version:  v2012                                 |
|   \\  /    A nd           | Website:  www.openfoam.com                      |
|    \\/     M anipulation  |                                                 |
\*---------------------------------------------------------------------------*/
FoamFile
{
    version     2.0;
    format      ascii;
    class       volScalarField;
    location    "0.36";
    object      p;
}
// * * * * * * * * * * * * * * * * * * * * * * * * * * * * * * * * * * * * * //

dimensions      [0 2 -2 0 0 0 0];


internalField   nonuniform List<scalar> 
247104
(
1.84777e-06
1.84766e-06
1.84781e-06
1.84779e-06
1.8477e-06
1.8478e-06
1.8478e-06
1.84759e-06
1.84766e-06
1.84773e-06
1.84778e-06
1.84763e-06
1.84754e-06
1.84765e-06
1.84779e-06
1.8477e-06
1.84781e-06
1.84778e-06
1.84748e-06
1.84711e-06
1.84697e-06
1.84715e-06
1.84753e-06
1.8478e-06
1.84781e-06
1.84779e-06
1.84763e-06
1.84711e-06
1.84663e-06
1.84646e-06
1.84668e-06
1.84718e-06
1.84768e-06
1.84779e-06
1.84776e-06
1.8477e-06
1.84754e-06
1.84697e-06
1.84646e-06
1.84628e-06
1.84651e-06
1.84705e-06
1.84759e-06
1.84768e-06
1.84781e-06
1.84765e-06
1.84715e-06
1.84668e-06
1.84651e-06
1.84672e-06
1.84722e-06
1.8477e-06
1.84781e-06
1.8478e-06
1.84779e-06
1.84753e-06
1.84719e-06
1.84705e-06
1.84722e-06
1.84757e-06
1.84781e-06
1.8478e-06
1.84759e-06
1.8477e-06
1.8478e-06
1.84768e-06
1.84759e-06
1.8477e-06
1.84781e-06
1.84766e-06
1.84782e-06
1.84779e-06
1.84768e-06
1.84781e-06
1.8478e-06
1.81474e-06
1.81273e-06
1.81216e-06
1.81094e-06
1.81096e-06
1.81089e-06
1.81089e-06
1.8122e-06
1.81245e-06
1.81216e-06
1.8101e-06
1.80746e-06
1.80743e-06
1.80743e-06
1.80746e-06
1.81048e-06
1.81074e-06
1.81094e-06
1.80746e-06
1.8074e-06
1.80746e-06
1.80746e-06
1.8074e-06
1.80746e-06
1.81086e-06
1.81213e-06
1.81473e-06
1.81095e-06
1.80743e-06
1.80746e-06
1.80756e-06
1.80756e-06
1.80746e-06
1.80743e-06
1.81085e-06
1.81249e-06
1.81273e-06
1.81089e-06
1.80743e-06
1.80746e-06
1.80756e-06
1.80756e-06
1.80746e-06
1.80743e-06
1.81103e-06
1.81108e-06
1.81089e-06
1.80746e-06
1.8074e-06
1.80746e-06
1.80746e-06
1.8074e-06
1.80746e-06
1.8108e-06
1.81203e-06
1.8122e-06
1.81049e-06
1.80746e-06
1.80743e-06
1.80743e-06
1.80746e-06
1.81071e-06
1.81089e-06
1.81235e-06
1.81245e-06
1.81074e-06
1.81086e-06
1.81086e-06
1.81103e-06
1.8108e-06
1.81089e-06
1.81252e-06
1.81214e-06
1.8125e-06
1.81108e-06
1.81203e-06
1.81235e-06
1.79461e-06
1.79444e-06
1.79427e-06
1.79216e-06
1.79206e-06
1.79201e-06
1.79214e-06
1.79423e-06
1.79449e-06
1.79427e-06
1.79145e-06
1.78851e-06
1.78845e-06
1.78845e-06
1.78851e-06
1.79195e-06
1.7926e-06
1.79215e-06
1.78851e-06
1.78825e-06
1.78829e-06
1.78829e-06
1.78825e-06
1.78851e-06
1.79275e-06
1.79471e-06
1.79461e-06
1.79205e-06
1.78845e-06
1.78828e-06
1.78832e-06
1.78832e-06
1.78828e-06
1.78845e-06
1.7928e-06
1.79446e-06
1.79444e-06
1.79201e-06
1.78845e-06
1.78828e-06
1.78832e-06
1.78832e-06
1.78829e-06
1.78846e-06
1.79275e-06
1.79273e-06
1.79213e-06
1.7885e-06
1.78824e-06
1.78828e-06
1.78828e-06
1.78825e-06
1.78851e-06
1.7928e-06
1.79479e-06
1.79422e-06
1.79194e-06
1.78851e-06
1.78845e-06
1.78845e-06
1.7885e-06
1.79242e-06
1.79271e-06
1.79471e-06
1.79448e-06
1.7926e-06
1.79275e-06
1.7928e-06
1.79275e-06
1.79279e-06
1.79271e-06
1.79459e-06
1.79471e-06
1.79446e-06
1.79273e-06
1.79479e-06
1.7947e-06
1.77564e-06
1.77547e-06
1.77533e-06
1.77317e-06
1.77307e-06
1.77298e-06
1.77317e-06
1.77527e-06
1.77555e-06
1.77533e-06
1.77243e-06
1.76948e-06
1.76945e-06
1.76945e-06
1.76948e-06
1.77291e-06
1.77368e-06
1.77317e-06
1.76948e-06
1.76936e-06
1.76937e-06
1.76937e-06
1.76936e-06
1.76948e-06
1.77379e-06
1.77574e-06
1.77563e-06
1.77306e-06
1.76945e-06
1.76937e-06
1.76938e-06
1.76938e-06
1.76937e-06
1.76945e-06
1.77384e-06
1.77548e-06
1.77546e-06
1.77298e-06
1.76945e-06
1.76937e-06
1.76938e-06
1.76938e-06
1.76937e-06
1.76945e-06
1.77381e-06
1.77379e-06
1.77317e-06
1.76948e-06
1.76936e-06
1.76937e-06
1.76937e-06
1.76936e-06
1.76948e-06
1.77382e-06
1.7758e-06
1.77527e-06
1.77291e-06
1.76948e-06
1.76945e-06
1.76945e-06
1.76948e-06
1.77357e-06
1.77379e-06
1.77576e-06
1.77554e-06
1.77368e-06
1.77379e-06
1.77384e-06
1.77381e-06
1.77382e-06
1.77379e-06
1.77578e-06
1.77574e-06
1.77548e-06
1.7738e-06
1.77581e-06
1.77576e-06
1.75666e-06
1.75649e-06
1.75632e-06
1.75416e-06
1.75405e-06
1.75396e-06
1.75415e-06
1.75627e-06
1.75654e-06
1.75632e-06
1.75343e-06
1.75045e-06
1.75044e-06
1.75044e-06
1.75045e-06
1.75386e-06
1.75468e-06
1.75416e-06
1.75045e-06
1.75042e-06
1.75042e-06
1.75042e-06
1.75042e-06
1.75045e-06
1.75479e-06
1.75675e-06
1.75666e-06
1.75405e-06
1.75044e-06
1.75042e-06
1.75042e-06
1.75042e-06
1.75042e-06
1.75044e-06
1.75487e-06
1.75652e-06
1.75649e-06
1.75395e-06
1.75044e-06
1.75042e-06
1.75042e-06
1.75042e-06
1.75042e-06
1.75044e-06
1.75485e-06
1.75483e-06
1.75415e-06
1.75045e-06
1.75042e-06
1.75042e-06
1.75042e-06
1.75042e-06
1.75045e-06
1.75484e-06
1.75684e-06
1.75627e-06
1.75386e-06
1.75045e-06
1.75044e-06
1.75044e-06
1.75045e-06
1.75461e-06
1.75482e-06
1.75677e-06
1.75654e-06
1.75468e-06
1.75479e-06
1.75487e-06
1.75485e-06
1.75484e-06
1.75481e-06
1.75676e-06
1.75674e-06
1.75652e-06
1.75483e-06
1.75684e-06
1.75677e-06
1.73766e-06
1.73748e-06
1.73731e-06
1.73515e-06
1.73504e-06
1.73495e-06
1.73514e-06
1.73726e-06
1.73753e-06
1.73731e-06
1.73443e-06
1.73144e-06
1.73144e-06
1.73144e-06
1.73144e-06
1.73483e-06
1.73566e-06
1.73515e-06
1.73144e-06
1.73143e-06
1.73143e-06
1.73143e-06
1.73143e-06
1.73144e-06
1.73578e-06
1.73773e-06
1.73766e-06
1.73504e-06
1.73144e-06
1.73143e-06
1.73143e-06
1.73143e-06
1.73143e-06
1.73144e-06
1.73587e-06
1.73752e-06
1.73749e-06
1.73495e-06
1.73144e-06
1.73143e-06
1.73143e-06
1.73143e-06
1.73143e-06
1.73144e-06
1.73585e-06
1.73583e-06
1.73514e-06
1.73144e-06
1.73143e-06
1.73143e-06
1.73143e-06
1.73143e-06
1.73144e-06
1.73584e-06
1.73784e-06
1.73726e-06
1.73483e-06
1.73144e-06
1.73144e-06
1.73144e-06
1.73144e-06
1.73562e-06
1.73581e-06
1.73776e-06
1.73753e-06
1.73566e-06
1.73578e-06
1.73587e-06
1.73585e-06
1.73584e-06
1.73582e-06
1.73775e-06
1.73774e-06
1.73752e-06
1.73583e-06
1.73784e-06
1.73776e-06
1.71865e-06
1.71848e-06
1.7183e-06
1.71614e-06
1.71603e-06
1.71594e-06
1.71613e-06
1.71826e-06
1.71852e-06
1.7183e-06
1.71542e-06
1.71243e-06
1.71243e-06
1.71243e-06
1.71243e-06
1.71582e-06
1.71666e-06
1.71614e-06
1.71243e-06
1.71243e-06
1.71243e-06
1.71243e-06
1.71243e-06
1.71243e-06
1.71677e-06
1.71873e-06
1.71865e-06
1.71603e-06
1.71243e-06
1.71243e-06
1.71243e-06
1.71243e-06
1.71243e-06
1.71243e-06
1.71687e-06
1.71852e-06
1.71848e-06
1.71594e-06
1.71243e-06
1.71243e-06
1.71243e-06
1.71243e-06
1.71243e-06
1.71243e-06
1.71685e-06
1.71683e-06
1.71613e-06
1.71243e-06
1.71243e-06
1.71243e-06
1.71243e-06
1.71243e-06
1.71243e-06
1.71683e-06
1.71884e-06
1.71826e-06
1.71582e-06
1.71243e-06
1.71243e-06
1.71243e-06
1.71243e-06
1.71662e-06
1.71681e-06
1.71875e-06
1.71852e-06
1.71666e-06
1.71677e-06
1.71687e-06
1.71685e-06
1.71683e-06
1.71681e-06
1.71874e-06
1.71873e-06
1.71852e-06
1.71683e-06
1.71884e-06
1.71875e-06
1.69964e-06
1.69947e-06
1.6993e-06
1.69713e-06
1.69702e-06
1.69693e-06
1.69712e-06
1.69925e-06
1.69951e-06
1.6993e-06
1.69641e-06
1.69343e-06
1.69343e-06
1.69343e-06
1.69343e-06
1.69682e-06
1.69765e-06
1.69713e-06
1.69343e-06
1.69343e-06
1.69343e-06
1.69343e-06
1.69343e-06
1.69343e-06
1.69776e-06
1.69972e-06
1.69964e-06
1.69702e-06
1.69343e-06
1.69343e-06
1.69343e-06
1.69343e-06
1.69343e-06
1.69343e-06
1.69786e-06
1.69951e-06
1.69947e-06
1.69693e-06
1.69343e-06
1.69343e-06
1.69343e-06
1.69343e-06
1.69343e-06
1.69343e-06
1.69784e-06
1.69782e-06
1.69712e-06
1.69343e-06
1.69343e-06
1.69343e-06
1.69343e-06
1.69343e-06
1.69343e-06
1.69783e-06
1.69983e-06
1.69925e-06
1.69682e-06
1.69343e-06
1.69343e-06
1.69343e-06
1.69343e-06
1.69761e-06
1.69781e-06
1.69975e-06
1.69951e-06
1.69765e-06
1.69776e-06
1.69786e-06
1.69784e-06
1.69783e-06
1.69781e-06
1.69973e-06
1.69972e-06
1.69952e-06
1.69782e-06
1.69983e-06
1.69975e-06
1.68064e-06
1.68047e-06
1.68029e-06
1.67813e-06
1.67802e-06
1.67793e-06
1.67812e-06
1.68024e-06
1.68051e-06
1.68029e-06
1.67741e-06
1.67442e-06
1.67442e-06
1.67442e-06
1.67442e-06
1.67781e-06
1.67864e-06
1.67813e-06
1.67442e-06
1.67442e-06
1.67442e-06
1.67442e-06
1.67442e-06
1.67442e-06
1.67876e-06
1.68072e-06
1.68064e-06
1.67802e-06
1.67442e-06
1.67442e-06
1.67442e-06
1.67442e-06
1.67442e-06
1.67442e-06
1.67886e-06
1.68051e-06
1.68047e-06
1.67793e-06
1.67442e-06
1.67442e-06
1.67442e-06
1.67442e-06
1.67442e-06
1.67442e-06
1.67884e-06
1.67882e-06
1.67812e-06
1.67442e-06
1.67442e-06
1.67442e-06
1.67442e-06
1.67442e-06
1.67442e-06
1.67883e-06
1.68083e-06
1.68025e-06
1.67781e-06
1.67442e-06
1.67442e-06
1.67442e-06
1.67442e-06
1.67861e-06
1.6788e-06
1.68074e-06
1.68051e-06
1.67865e-06
1.67876e-06
1.67886e-06
1.67884e-06
1.67882e-06
1.6788e-06
1.68073e-06
1.68072e-06
1.68051e-06
1.67882e-06
1.68083e-06
1.68074e-06
1.66163e-06
1.66146e-06
1.66129e-06
1.65912e-06
1.65901e-06
1.65892e-06
1.65911e-06
1.66124e-06
1.6615e-06
1.66129e-06
1.6584e-06
1.65542e-06
1.65542e-06
1.65542e-06
1.65542e-06
1.6588e-06
1.65964e-06
1.65912e-06
1.65542e-06
1.65542e-06
1.65542e-06
1.65542e-06
1.65542e-06
1.65542e-06
1.65975e-06
1.66171e-06
1.66163e-06
1.65901e-06
1.65542e-06
1.65542e-06
1.65542e-06
1.65542e-06
1.65542e-06
1.65542e-06
1.65985e-06
1.66151e-06
1.66146e-06
1.65892e-06
1.65542e-06
1.65542e-06
1.65542e-06
1.65542e-06
1.65542e-06
1.65542e-06
1.65983e-06
1.65981e-06
1.65911e-06
1.65542e-06
1.65542e-06
1.65542e-06
1.65542e-06
1.65542e-06
1.65542e-06
1.65982e-06
1.66182e-06
1.66124e-06
1.65881e-06
1.65542e-06
1.65542e-06
1.65542e-06
1.65542e-06
1.6596e-06
1.6598e-06
1.66174e-06
1.6615e-06
1.65964e-06
1.65975e-06
1.65985e-06
1.65983e-06
1.65982e-06
1.6598e-06
1.66172e-06
1.66171e-06
1.66151e-06
1.65981e-06
1.66182e-06
1.66174e-06
1.64263e-06
1.64246e-06
1.64228e-06
1.64012e-06
1.64001e-06
1.63992e-06
1.64011e-06
1.64223e-06
1.6425e-06
1.64228e-06
1.6394e-06
1.63641e-06
1.63641e-06
1.63641e-06
1.63641e-06
1.6398e-06
1.64063e-06
1.64012e-06
1.63641e-06
1.63641e-06
1.63641e-06
1.63641e-06
1.63641e-06
1.63641e-06
1.64075e-06
1.64271e-06
1.64263e-06
1.64001e-06
1.63641e-06
1.63641e-06
1.63641e-06
1.63641e-06
1.63641e-06
1.63641e-06
1.64085e-06
1.6425e-06
1.64246e-06
1.63992e-06
1.63641e-06
1.63641e-06
1.63641e-06
1.63641e-06
1.63641e-06
1.63641e-06
1.64083e-06
1.6408e-06
1.64011e-06
1.63641e-06
1.63641e-06
1.63641e-06
1.63641e-06
1.63641e-06
1.63641e-06
1.64082e-06
1.64282e-06
1.64223e-06
1.6398e-06
1.63641e-06
1.63641e-06
1.63641e-06
1.63641e-06
1.6406e-06
1.64079e-06
1.64273e-06
1.6425e-06
1.64063e-06
1.64074e-06
1.64084e-06
1.64083e-06
1.64081e-06
1.64079e-06
1.64272e-06
1.64271e-06
1.6425e-06
1.64081e-06
1.64282e-06
1.64273e-06
1.62362e-06
1.62345e-06
1.62327e-06
1.62111e-06
1.621e-06
1.62091e-06
1.6211e-06
1.62323e-06
1.62349e-06
1.62328e-06
1.62039e-06
1.61741e-06
1.61741e-06
1.61741e-06
1.61741e-06
1.62079e-06
1.62163e-06
1.62111e-06
1.61741e-06
1.61741e-06
1.61741e-06
1.61741e-06
1.61741e-06
1.61741e-06
1.62174e-06
1.6237e-06
1.62362e-06
1.621e-06
1.61741e-06
1.61741e-06
1.61741e-06
1.61741e-06
1.61741e-06
1.61741e-06
1.62184e-06
1.62349e-06
1.62345e-06
1.62091e-06
1.61741e-06
1.61741e-06
1.61741e-06
1.61741e-06
1.61741e-06
1.61741e-06
1.62182e-06
1.6218e-06
1.6211e-06
1.61741e-06
1.61741e-06
1.61741e-06
1.61741e-06
1.61741e-06
1.61741e-06
1.62181e-06
1.62381e-06
1.62323e-06
1.62079e-06
1.61741e-06
1.61741e-06
1.61741e-06
1.61741e-06
1.62159e-06
1.62179e-06
1.62373e-06
1.62349e-06
1.62163e-06
1.62174e-06
1.62184e-06
1.62182e-06
1.62181e-06
1.62179e-06
1.62371e-06
1.6237e-06
1.6235e-06
1.6218e-06
1.62381e-06
1.62373e-06
1.60462e-06
1.60445e-06
1.60427e-06
1.60211e-06
1.602e-06
1.60191e-06
1.6021e-06
1.60422e-06
1.60449e-06
1.60427e-06
1.60139e-06
1.5984e-06
1.5984e-06
1.5984e-06
1.5984e-06
1.60179e-06
1.60262e-06
1.60211e-06
1.5984e-06
1.5984e-06
1.5984e-06
1.5984e-06
1.5984e-06
1.5984e-06
1.60274e-06
1.6047e-06
1.60462e-06
1.602e-06
1.5984e-06
1.5984e-06
1.5984e-06
1.5984e-06
1.5984e-06
1.5984e-06
1.60284e-06
1.60449e-06
1.60445e-06
1.60191e-06
1.5984e-06
1.5984e-06
1.5984e-06
1.5984e-06
1.5984e-06
1.5984e-06
1.60282e-06
1.6028e-06
1.6021e-06
1.5984e-06
1.5984e-06
1.5984e-06
1.5984e-06
1.5984e-06
1.5984e-06
1.60281e-06
1.60481e-06
1.60423e-06
1.60179e-06
1.5984e-06
1.5984e-06
1.5984e-06
1.5984e-06
1.60259e-06
1.60278e-06
1.60472e-06
1.60449e-06
1.60263e-06
1.60274e-06
1.60283e-06
1.60282e-06
1.60281e-06
1.60278e-06
1.60471e-06
1.6047e-06
1.60449e-06
1.6028e-06
1.60481e-06
1.60472e-06
1.58562e-06
1.58544e-06
1.58527e-06
1.5831e-06
1.58299e-06
1.5829e-06
1.58309e-06
1.58522e-06
1.58548e-06
1.58527e-06
1.58239e-06
1.5794e-06
1.5794e-06
1.5794e-06
1.5794e-06
1.58279e-06
1.58362e-06
1.5831e-06
1.5794e-06
1.5794e-06
1.5794e-06
1.5794e-06
1.5794e-06
1.5794e-06
1.58373e-06
1.58569e-06
1.58561e-06
1.58299e-06
1.5794e-06
1.5794e-06
1.5794e-06
1.5794e-06
1.5794e-06
1.5794e-06
1.58383e-06
1.58549e-06
1.58545e-06
1.5829e-06
1.5794e-06
1.5794e-06
1.5794e-06
1.5794e-06
1.5794e-06
1.5794e-06
1.58381e-06
1.58379e-06
1.58309e-06
1.5794e-06
1.5794e-06
1.5794e-06
1.5794e-06
1.5794e-06
1.5794e-06
1.5838e-06
1.58581e-06
1.58522e-06
1.58279e-06
1.5794e-06
1.5794e-06
1.5794e-06
1.5794e-06
1.58358e-06
1.58378e-06
1.58572e-06
1.58548e-06
1.58362e-06
1.58373e-06
1.58383e-06
1.58381e-06
1.5838e-06
1.58378e-06
1.5857e-06
1.58569e-06
1.58549e-06
1.58379e-06
1.5858e-06
1.58572e-06
1.56661e-06
1.56644e-06
1.56626e-06
1.5641e-06
1.56399e-06
1.5639e-06
1.56409e-06
1.56622e-06
1.56648e-06
1.56626e-06
1.56338e-06
1.56039e-06
1.56039e-06
1.56039e-06
1.56039e-06
1.56378e-06
1.56462e-06
1.5641e-06
1.56039e-06
1.56039e-06
1.56039e-06
1.56039e-06
1.56039e-06
1.56039e-06
1.56473e-06
1.56669e-06
1.56661e-06
1.56399e-06
1.56039e-06
1.56039e-06
1.56039e-06
1.56039e-06
1.56039e-06
1.56039e-06
1.56483e-06
1.56648e-06
1.56644e-06
1.5639e-06
1.56039e-06
1.56039e-06
1.56039e-06
1.56039e-06
1.56039e-06
1.56039e-06
1.56481e-06
1.56479e-06
1.56409e-06
1.56039e-06
1.56039e-06
1.56039e-06
1.56039e-06
1.56039e-06
1.56039e-06
1.5648e-06
1.5668e-06
1.56622e-06
1.56378e-06
1.56039e-06
1.56039e-06
1.56039e-06
1.56039e-06
1.56458e-06
1.56477e-06
1.56671e-06
1.56648e-06
1.56462e-06
1.56473e-06
1.56483e-06
1.56481e-06
1.5648e-06
1.56477e-06
1.5667e-06
1.56669e-06
1.56648e-06
1.56479e-06
1.5668e-06
1.56671e-06
1.54761e-06
1.54744e-06
1.54726e-06
1.54509e-06
1.54498e-06
1.54489e-06
1.54508e-06
1.54721e-06
1.54747e-06
1.54726e-06
1.54438e-06
1.54139e-06
1.54139e-06
1.54139e-06
1.54139e-06
1.54478e-06
1.54561e-06
1.54509e-06
1.54139e-06
1.54139e-06
1.54139e-06
1.54139e-06
1.54139e-06
1.54139e-06
1.54572e-06
1.54768e-06
1.54761e-06
1.54498e-06
1.54139e-06
1.54139e-06
1.54139e-06
1.54139e-06
1.54139e-06
1.54139e-06
1.54582e-06
1.54748e-06
1.54744e-06
1.54489e-06
1.54139e-06
1.54139e-06
1.54139e-06
1.54139e-06
1.54139e-06
1.54139e-06
1.54581e-06
1.54578e-06
1.54508e-06
1.54139e-06
1.54139e-06
1.54139e-06
1.54139e-06
1.54139e-06
1.54139e-06
1.54579e-06
1.5478e-06
1.54721e-06
1.54478e-06
1.54139e-06
1.54139e-06
1.54139e-06
1.54139e-06
1.54557e-06
1.54577e-06
1.54771e-06
1.54747e-06
1.54561e-06
1.54572e-06
1.54582e-06
1.5458e-06
1.54579e-06
1.54577e-06
1.54769e-06
1.54769e-06
1.54748e-06
1.54578e-06
1.5478e-06
1.54771e-06
1.5286e-06
1.52843e-06
1.52825e-06
1.52609e-06
1.52598e-06
1.52589e-06
1.52608e-06
1.52821e-06
1.52847e-06
1.52825e-06
1.52537e-06
1.52238e-06
1.52238e-06
1.52238e-06
1.52238e-06
1.52577e-06
1.52661e-06
1.52609e-06
1.52238e-06
1.52238e-06
1.52238e-06
1.52238e-06
1.52238e-06
1.52238e-06
1.52672e-06
1.52868e-06
1.5286e-06
1.52598e-06
1.52238e-06
1.52238e-06
1.52238e-06
1.52238e-06
1.52238e-06
1.52238e-06
1.52682e-06
1.52847e-06
1.52843e-06
1.52589e-06
1.52238e-06
1.52238e-06
1.52238e-06
1.52238e-06
1.52238e-06
1.52238e-06
1.5268e-06
1.52678e-06
1.52608e-06
1.52238e-06
1.52238e-06
1.52238e-06
1.52238e-06
1.52238e-06
1.52238e-06
1.52679e-06
1.52879e-06
1.52821e-06
1.52577e-06
1.52238e-06
1.52238e-06
1.52238e-06
1.52238e-06
1.52657e-06
1.52676e-06
1.5287e-06
1.52847e-06
1.52661e-06
1.52672e-06
1.52682e-06
1.5268e-06
1.52679e-06
1.52676e-06
1.52869e-06
1.52868e-06
1.52847e-06
1.52678e-06
1.52879e-06
1.5287e-06
1.5096e-06
1.50943e-06
1.50925e-06
1.50708e-06
1.50697e-06
1.50688e-06
1.50707e-06
1.5092e-06
1.50946e-06
1.50925e-06
1.50637e-06
1.50338e-06
1.50338e-06
1.50338e-06
1.50338e-06
1.50677e-06
1.5076e-06
1.50708e-06
1.50338e-06
1.50338e-06
1.50338e-06
1.50338e-06
1.50338e-06
1.50338e-06
1.50771e-06
1.50967e-06
1.5096e-06
1.50697e-06
1.50338e-06
1.50338e-06
1.50338e-06
1.50338e-06
1.50338e-06
1.50338e-06
1.50781e-06
1.50947e-06
1.50943e-06
1.50688e-06
1.50338e-06
1.50338e-06
1.50338e-06
1.50338e-06
1.50338e-06
1.50338e-06
1.50779e-06
1.50777e-06
1.50707e-06
1.50338e-06
1.50338e-06
1.50338e-06
1.50338e-06
1.50338e-06
1.50338e-06
1.50778e-06
1.50979e-06
1.5092e-06
1.50677e-06
1.50338e-06
1.50338e-06
1.50338e-06
1.50338e-06
1.50756e-06
1.50776e-06
1.5097e-06
1.50946e-06
1.5076e-06
1.50771e-06
1.50781e-06
1.50779e-06
1.50778e-06
1.50776e-06
1.50968e-06
1.50967e-06
1.50947e-06
1.50777e-06
1.50978e-06
1.5097e-06
1.49059e-06
1.49042e-06
1.49024e-06
1.48808e-06
1.48797e-06
1.48788e-06
1.48807e-06
1.4902e-06
1.49046e-06
1.49024e-06
1.48736e-06
1.48437e-06
1.48437e-06
1.48437e-06
1.48437e-06
1.48776e-06
1.48859e-06
1.48808e-06
1.48437e-06
1.48437e-06
1.48437e-06
1.48437e-06
1.48437e-06
1.48437e-06
1.48871e-06
1.49067e-06
1.49059e-06
1.48797e-06
1.48437e-06
1.48437e-06
1.48437e-06
1.48437e-06
1.48437e-06
1.48437e-06
1.48881e-06
1.49046e-06
1.49042e-06
1.48788e-06
1.48437e-06
1.48437e-06
1.48437e-06
1.48437e-06
1.48437e-06
1.48437e-06
1.48879e-06
1.48877e-06
1.48807e-06
1.48437e-06
1.48437e-06
1.48437e-06
1.48437e-06
1.48437e-06
1.48437e-06
1.48878e-06
1.49078e-06
1.4902e-06
1.48776e-06
1.48437e-06
1.48437e-06
1.48437e-06
1.48437e-06
1.48856e-06
1.48875e-06
1.49069e-06
1.49046e-06
1.4886e-06
1.48871e-06
1.4888e-06
1.48879e-06
1.48878e-06
1.48875e-06
1.49068e-06
1.49067e-06
1.49046e-06
1.48877e-06
1.49078e-06
1.49069e-06
1.47158e-06
1.47141e-06
1.47123e-06
1.46907e-06
1.46896e-06
1.46887e-06
1.46906e-06
1.47119e-06
1.47145e-06
1.47124e-06
1.46835e-06
1.46537e-06
1.46537e-06
1.46537e-06
1.46537e-06
1.46875e-06
1.46959e-06
1.46907e-06
1.46537e-06
1.46537e-06
1.46537e-06
1.46537e-06
1.46537e-06
1.46537e-06
1.4697e-06
1.47166e-06
1.47158e-06
1.46896e-06
1.46537e-06
1.46537e-06
1.46537e-06
1.46537e-06
1.46537e-06
1.46537e-06
1.4698e-06
1.47145e-06
1.47141e-06
1.46887e-06
1.46537e-06
1.46537e-06
1.46537e-06
1.46537e-06
1.46537e-06
1.46537e-06
1.46978e-06
1.46976e-06
1.46906e-06
1.46537e-06
1.46537e-06
1.46537e-06
1.46537e-06
1.46537e-06
1.46537e-06
1.46977e-06
1.47177e-06
1.47119e-06
1.46875e-06
1.46537e-06
1.46537e-06
1.46537e-06
1.46537e-06
1.46955e-06
1.46974e-06
1.47168e-06
1.47145e-06
1.46959e-06
1.4697e-06
1.4698e-06
1.46978e-06
1.46977e-06
1.46975e-06
1.47167e-06
1.47166e-06
1.47145e-06
1.46976e-06
1.47177e-06
1.47168e-06
1.45258e-06
1.45241e-06
1.45223e-06
1.45006e-06
1.44995e-06
1.44986e-06
1.45005e-06
1.45218e-06
1.45244e-06
1.45223e-06
1.44935e-06
1.44636e-06
1.44636e-06
1.44636e-06
1.44636e-06
1.44975e-06
1.45058e-06
1.45006e-06
1.44636e-06
1.44636e-06
1.44636e-06
1.44636e-06
1.44636e-06
1.44636e-06
1.45069e-06
1.45265e-06
1.45258e-06
1.44995e-06
1.44636e-06
1.44636e-06
1.44636e-06
1.44636e-06
1.44636e-06
1.44636e-06
1.45079e-06
1.45245e-06
1.45241e-06
1.44986e-06
1.44636e-06
1.44636e-06
1.44636e-06
1.44636e-06
1.44636e-06
1.44636e-06
1.45078e-06
1.45075e-06
1.45005e-06
1.44636e-06
1.44636e-06
1.44636e-06
1.44636e-06
1.44636e-06
1.44636e-06
1.45076e-06
1.45277e-06
1.45218e-06
1.44975e-06
1.44636e-06
1.44636e-06
1.44636e-06
1.44636e-06
1.45054e-06
1.45074e-06
1.45268e-06
1.45244e-06
1.45058e-06
1.45069e-06
1.45079e-06
1.45077e-06
1.45076e-06
1.45074e-06
1.45266e-06
1.45266e-06
1.45245e-06
1.45075e-06
1.45277e-06
1.45268e-06
1.43357e-06
1.4334e-06
1.43322e-06
1.43106e-06
1.43095e-06
1.43086e-06
1.43105e-06
1.43318e-06
1.43344e-06
1.43322e-06
1.43034e-06
1.42735e-06
1.42735e-06
1.42735e-06
1.42735e-06
1.43074e-06
1.43157e-06
1.43106e-06
1.42735e-06
1.42735e-06
1.42735e-06
1.42735e-06
1.42735e-06
1.42735e-06
1.43169e-06
1.43365e-06
1.43357e-06
1.43095e-06
1.42735e-06
1.42735e-06
1.42735e-06
1.42735e-06
1.42735e-06
1.42735e-06
1.43179e-06
1.43344e-06
1.4334e-06
1.43086e-06
1.42735e-06
1.42735e-06
1.42735e-06
1.42735e-06
1.42735e-06
1.42735e-06
1.43177e-06
1.43175e-06
1.43105e-06
1.42735e-06
1.42735e-06
1.42735e-06
1.42735e-06
1.42735e-06
1.42735e-06
1.43176e-06
1.43376e-06
1.43318e-06
1.43074e-06
1.42735e-06
1.42735e-06
1.42735e-06
1.42735e-06
1.43154e-06
1.43173e-06
1.43367e-06
1.43344e-06
1.43158e-06
1.43169e-06
1.43178e-06
1.43177e-06
1.43176e-06
1.43173e-06
1.43366e-06
1.43365e-06
1.43344e-06
1.43175e-06
1.43376e-06
1.43367e-06
1.41456e-06
1.41439e-06
1.41421e-06
1.41205e-06
1.41194e-06
1.41185e-06
1.41204e-06
1.41417e-06
1.41443e-06
1.41422e-06
1.41133e-06
1.40835e-06
1.40835e-06
1.40835e-06
1.40835e-06
1.41173e-06
1.41257e-06
1.41205e-06
1.40835e-06
1.40835e-06
1.40835e-06
1.40835e-06
1.40835e-06
1.40835e-06
1.41268e-06
1.41464e-06
1.41456e-06
1.41194e-06
1.40835e-06
1.40835e-06
1.40835e-06
1.40835e-06
1.40835e-06
1.40835e-06
1.41278e-06
1.41443e-06
1.41439e-06
1.41185e-06
1.40835e-06
1.40835e-06
1.40835e-06
1.40835e-06
1.40835e-06
1.40835e-06
1.41276e-06
1.41274e-06
1.41204e-06
1.40835e-06
1.40835e-06
1.40835e-06
1.40835e-06
1.40835e-06
1.40835e-06
1.41275e-06
1.41475e-06
1.41417e-06
1.41173e-06
1.40835e-06
1.40835e-06
1.40835e-06
1.40835e-06
1.41253e-06
1.41273e-06
1.41466e-06
1.41443e-06
1.41257e-06
1.41268e-06
1.41278e-06
1.41276e-06
1.41275e-06
1.41273e-06
1.41465e-06
1.41464e-06
1.41443e-06
1.41274e-06
1.41475e-06
1.41467e-06
1.39556e-06
1.39539e-06
1.39521e-06
1.39305e-06
1.39294e-06
1.39285e-06
1.39304e-06
1.39516e-06
1.39543e-06
1.39521e-06
1.39233e-06
1.38934e-06
1.38934e-06
1.38934e-06
1.38934e-06
1.39273e-06
1.39356e-06
1.39305e-06
1.38934e-06
1.38934e-06
1.38934e-06
1.38934e-06
1.38934e-06
1.38934e-06
1.39367e-06
1.39563e-06
1.39556e-06
1.39293e-06
1.38934e-06
1.38934e-06
1.38934e-06
1.38934e-06
1.38934e-06
1.38934e-06
1.39377e-06
1.39543e-06
1.39539e-06
1.39285e-06
1.38934e-06
1.38934e-06
1.38934e-06
1.38934e-06
1.38934e-06
1.38934e-06
1.39376e-06
1.39373e-06
1.39303e-06
1.38934e-06
1.38934e-06
1.38934e-06
1.38934e-06
1.38934e-06
1.38934e-06
1.39374e-06
1.39575e-06
1.39516e-06
1.39273e-06
1.38934e-06
1.38934e-06
1.38934e-06
1.38934e-06
1.39352e-06
1.39372e-06
1.39566e-06
1.39543e-06
1.39356e-06
1.39367e-06
1.39377e-06
1.39376e-06
1.39374e-06
1.39372e-06
1.39565e-06
1.39564e-06
1.39543e-06
1.39373e-06
1.39575e-06
1.39566e-06
1.37655e-06
1.37638e-06
1.3762e-06
1.37404e-06
1.37393e-06
1.37384e-06
1.37403e-06
1.37616e-06
1.37642e-06
1.3762e-06
1.37332e-06
1.37033e-06
1.37033e-06
1.37033e-06
1.37033e-06
1.37372e-06
1.37456e-06
1.37404e-06
1.37033e-06
1.37033e-06
1.37033e-06
1.37033e-06
1.37033e-06
1.37033e-06
1.37467e-06
1.37663e-06
1.37655e-06
1.37393e-06
1.37033e-06
1.37033e-06
1.37033e-06
1.37033e-06
1.37033e-06
1.37033e-06
1.37477e-06
1.37642e-06
1.37638e-06
1.37384e-06
1.37033e-06
1.37033e-06
1.37033e-06
1.37033e-06
1.37033e-06
1.37033e-06
1.37475e-06
1.37473e-06
1.37403e-06
1.37033e-06
1.37033e-06
1.37033e-06
1.37033e-06
1.37033e-06
1.37033e-06
1.37474e-06
1.37674e-06
1.37616e-06
1.37372e-06
1.37033e-06
1.37033e-06
1.37033e-06
1.37033e-06
1.37452e-06
1.37471e-06
1.37665e-06
1.37642e-06
1.37456e-06
1.37467e-06
1.37477e-06
1.37475e-06
1.37474e-06
1.37471e-06
1.37664e-06
1.37663e-06
1.37642e-06
1.37473e-06
1.37674e-06
1.37665e-06
1.35755e-06
1.35737e-06
1.3572e-06
1.35503e-06
1.35492e-06
1.35483e-06
1.35502e-06
1.35715e-06
1.35741e-06
1.3572e-06
1.35432e-06
1.35133e-06
1.35133e-06
1.35133e-06
1.35133e-06
1.35472e-06
1.35555e-06
1.35503e-06
1.35133e-06
1.35133e-06
1.35133e-06
1.35133e-06
1.35133e-06
1.35133e-06
1.35566e-06
1.35762e-06
1.35754e-06
1.35492e-06
1.35133e-06
1.35133e-06
1.35133e-06
1.35133e-06
1.35133e-06
1.35133e-06
1.35576e-06
1.35742e-06
1.35738e-06
1.35483e-06
1.35133e-06
1.35133e-06
1.35133e-06
1.35133e-06
1.35133e-06
1.35133e-06
1.35574e-06
1.35572e-06
1.35502e-06
1.35133e-06
1.35133e-06
1.35133e-06
1.35133e-06
1.35133e-06
1.35133e-06
1.35573e-06
1.35774e-06
1.35715e-06
1.35472e-06
1.35133e-06
1.35133e-06
1.35133e-06
1.35133e-06
1.35551e-06
1.35571e-06
1.35765e-06
1.35741e-06
1.35555e-06
1.35566e-06
1.35576e-06
1.35574e-06
1.35573e-06
1.35571e-06
1.35763e-06
1.35762e-06
1.35742e-06
1.35572e-06
1.35773e-06
1.35765e-06
1.33854e-06
1.33837e-06
1.33819e-06
1.33603e-06
1.33592e-06
1.33583e-06
1.33602e-06
1.33815e-06
1.33841e-06
1.33819e-06
1.33531e-06
1.33232e-06
1.33232e-06
1.33232e-06
1.33232e-06
1.33571e-06
1.33654e-06
1.33603e-06
1.33232e-06
1.33232e-06
1.33232e-06
1.33232e-06
1.33232e-06
1.33232e-06
1.33666e-06
1.33862e-06
1.33854e-06
1.33592e-06
1.33232e-06
1.33232e-06
1.33232e-06
1.33232e-06
1.33232e-06
1.33232e-06
1.33676e-06
1.33841e-06
1.33837e-06
1.33583e-06
1.33232e-06
1.33232e-06
1.33232e-06
1.33232e-06
1.33232e-06
1.33232e-06
1.33674e-06
1.33671e-06
1.33602e-06
1.33232e-06
1.33232e-06
1.33232e-06
1.33232e-06
1.33232e-06
1.33232e-06
1.33672e-06
1.33873e-06
1.33814e-06
1.33571e-06
1.33232e-06
1.33232e-06
1.33232e-06
1.33232e-06
1.33651e-06
1.3367e-06
1.33864e-06
1.33841e-06
1.33654e-06
1.33665e-06
1.33675e-06
1.33674e-06
1.33672e-06
1.3367e-06
1.33863e-06
1.33862e-06
1.33841e-06
1.33671e-06
1.33873e-06
1.33864e-06
1.31953e-06
1.31936e-06
1.31918e-06
1.31702e-06
1.31691e-06
1.31682e-06
1.31701e-06
1.31914e-06
1.3194e-06
1.31918e-06
1.3163e-06
1.31331e-06
1.31331e-06
1.31331e-06
1.31331e-06
1.3167e-06
1.31754e-06
1.31702e-06
1.31331e-06
1.31331e-06
1.31331e-06
1.31331e-06
1.31331e-06
1.31331e-06
1.31765e-06
1.31961e-06
1.31953e-06
1.31691e-06
1.31331e-06
1.31331e-06
1.31331e-06
1.31331e-06
1.31331e-06
1.31331e-06
1.31775e-06
1.3194e-06
1.31936e-06
1.31682e-06
1.31331e-06
1.31331e-06
1.31331e-06
1.31331e-06
1.31331e-06
1.31331e-06
1.31773e-06
1.31771e-06
1.31701e-06
1.31331e-06
1.31331e-06
1.31331e-06
1.31331e-06
1.31331e-06
1.31331e-06
1.31772e-06
1.31972e-06
1.31914e-06
1.3167e-06
1.31331e-06
1.31331e-06
1.31331e-06
1.31331e-06
1.3175e-06
1.31769e-06
1.31963e-06
1.3194e-06
1.31754e-06
1.31765e-06
1.31775e-06
1.31773e-06
1.31772e-06
1.3177e-06
1.31962e-06
1.31961e-06
1.3194e-06
1.31771e-06
1.31972e-06
1.31963e-06
1.30053e-06
1.30035e-06
1.30018e-06
1.29801e-06
1.2979e-06
1.29781e-06
1.298e-06
1.30013e-06
1.30039e-06
1.30018e-06
1.29729e-06
1.29431e-06
1.29431e-06
1.29431e-06
1.29431e-06
1.2977e-06
1.29853e-06
1.29801e-06
1.29431e-06
1.29431e-06
1.29431e-06
1.29431e-06
1.29431e-06
1.29431e-06
1.29864e-06
1.3006e-06
1.30052e-06
1.2979e-06
1.29431e-06
1.29431e-06
1.29431e-06
1.29431e-06
1.29431e-06
1.29431e-06
1.29874e-06
1.3004e-06
1.30036e-06
1.29781e-06
1.29431e-06
1.29431e-06
1.29431e-06
1.29431e-06
1.29431e-06
1.29431e-06
1.29872e-06
1.2987e-06
1.298e-06
1.29431e-06
1.29431e-06
1.29431e-06
1.29431e-06
1.29431e-06
1.29431e-06
1.29871e-06
1.30072e-06
1.30013e-06
1.2977e-06
1.29431e-06
1.29431e-06
1.29431e-06
1.29431e-06
1.29849e-06
1.29869e-06
1.30063e-06
1.30039e-06
1.29853e-06
1.29864e-06
1.29874e-06
1.29872e-06
1.29871e-06
1.29869e-06
1.30061e-06
1.3006e-06
1.3004e-06
1.2987e-06
1.30071e-06
1.30063e-06
1.28152e-06
1.28135e-06
1.28117e-06
1.27901e-06
1.27889e-06
1.27881e-06
1.279e-06
1.28113e-06
1.28139e-06
1.28117e-06
1.27829e-06
1.2753e-06
1.2753e-06
1.2753e-06
1.2753e-06
1.27869e-06
1.27952e-06
1.27901e-06
1.2753e-06
1.2753e-06
1.2753e-06
1.2753e-06
1.2753e-06
1.2753e-06
1.27963e-06
1.28159e-06
1.28152e-06
1.27889e-06
1.2753e-06
1.2753e-06
1.2753e-06
1.2753e-06
1.2753e-06
1.2753e-06
1.27973e-06
1.28139e-06
1.28135e-06
1.27881e-06
1.2753e-06
1.2753e-06
1.2753e-06
1.2753e-06
1.2753e-06
1.2753e-06
1.27972e-06
1.27969e-06
1.27899e-06
1.2753e-06
1.2753e-06
1.2753e-06
1.2753e-06
1.2753e-06
1.2753e-06
1.2797e-06
1.28171e-06
1.28112e-06
1.27869e-06
1.2753e-06
1.2753e-06
1.2753e-06
1.2753e-06
1.27948e-06
1.27968e-06
1.28162e-06
1.28139e-06
1.27952e-06
1.27963e-06
1.27973e-06
1.27972e-06
1.2797e-06
1.27968e-06
1.28161e-06
1.2816e-06
1.28139e-06
1.27969e-06
1.28171e-06
1.28162e-06
1.26251e-06
1.26234e-06
1.26216e-06
1.26e-06
1.25989e-06
1.2598e-06
1.25999e-06
1.26212e-06
1.26238e-06
1.26216e-06
1.25928e-06
1.25629e-06
1.25629e-06
1.25629e-06
1.25629e-06
1.25968e-06
1.26052e-06
1.26e-06
1.25629e-06
1.25629e-06
1.25629e-06
1.25629e-06
1.25629e-06
1.25629e-06
1.26063e-06
1.26259e-06
1.26251e-06
1.25989e-06
1.25629e-06
1.25629e-06
1.25629e-06
1.25629e-06
1.25629e-06
1.25629e-06
1.26073e-06
1.26238e-06
1.26234e-06
1.2598e-06
1.25629e-06
1.25629e-06
1.25629e-06
1.25629e-06
1.25629e-06
1.25629e-06
1.26071e-06
1.26069e-06
1.25999e-06
1.25629e-06
1.25629e-06
1.25629e-06
1.25629e-06
1.25629e-06
1.25629e-06
1.2607e-06
1.2627e-06
1.26212e-06
1.25968e-06
1.25629e-06
1.25629e-06
1.25629e-06
1.25629e-06
1.26048e-06
1.26067e-06
1.26261e-06
1.26238e-06
1.26052e-06
1.26063e-06
1.26073e-06
1.26071e-06
1.2607e-06
1.26067e-06
1.2626e-06
1.26259e-06
1.26238e-06
1.26069e-06
1.2627e-06
1.26261e-06
1.2435e-06
1.24333e-06
1.24315e-06
1.24099e-06
1.24088e-06
1.24079e-06
1.24098e-06
1.24311e-06
1.24337e-06
1.24315e-06
1.24027e-06
1.23728e-06
1.23728e-06
1.23728e-06
1.23728e-06
1.24067e-06
1.24151e-06
1.24099e-06
1.23728e-06
1.23728e-06
1.23728e-06
1.23728e-06
1.23728e-06
1.23728e-06
1.24162e-06
1.24358e-06
1.2435e-06
1.24088e-06
1.23728e-06
1.23728e-06
1.23728e-06
1.23728e-06
1.23728e-06
1.23728e-06
1.24172e-06
1.24337e-06
1.24333e-06
1.24079e-06
1.23728e-06
1.23728e-06
1.23728e-06
1.23728e-06
1.23728e-06
1.23728e-06
1.2417e-06
1.24168e-06
1.24098e-06
1.23728e-06
1.23728e-06
1.23728e-06
1.23728e-06
1.23728e-06
1.23728e-06
1.24169e-06
1.24369e-06
1.24311e-06
1.24067e-06
1.23728e-06
1.23728e-06
1.23728e-06
1.23728e-06
1.24147e-06
1.24166e-06
1.2436e-06
1.24337e-06