/*--------------------------------*- C++ -*----------------------------------*\
| =========                 |                                                 |
| \\      /  F ield         | OpenFOAM: The Open Source CFD Toolbox           |
|  \\    /   O peration     | Version:  v2012                                 |
|   \\  /    A nd           | Website:  www.openfoam.com                      |
|    \\/     M anipulation  |                                                 |
\*---------------------------------------------------------------------------*/
FoamFile
{
    version     2.0;
    format      ascii;
    class       volScalarField;
    location    "112.5";
    object      epsilon;
}
// * * * * * * * * * * * * * * * * * * * * * * * * * * * * * * * * * * * * * //

dimensions      [0 2 -3 0 0 0 0];


internalField   nonuniform List<scalar> 
171728
(
4.48333e-08
8.80575e-09
7.97077e-09
5.62142e-09
4.52636e-08
8.88642e-09
8.05077e-09
5.31205e-09
4.68193e-08
9.12792e-09
8.27319e-09
5.23794e-09
4.83724e-08
9.48164e-09
8.60221e-09
5.28655e-09
4.99159e-08
9.95435e-09
9.01665e-09
5.42944e-09
5.14424e-08
1.0561e-08
9.57053e-09
5.64958e-09
5.29531e-08
1.13043e-08
1.02713e-08
5.89695e-09
5.44249e-08
1.2109e-08
1.11698e-08
6.13841e-09
5.58876e-08
1.30769e-08
1.22774e-08
6.36163e-09
5.73517e-08
1.41621e-08
1.35545e-08
6.54506e-09
5.87328e-08
1.53286e-08
1.50989e-08
6.64401e-09
6.02104e-08
1.67435e-08
1.69152e-08
6.78048e-09
6.15936e-08
1.85328e-08
1.89761e-08
7.48049e-09
6.30806e-08
2.0769e-08
2.15322e-08
8.74001e-09
6.47989e-08
2.37455e-08
2.46889e-08
1.06845e-08
6.6557e-08
2.75128e-08
2.85343e-08
1.38462e-08
6.84747e-08
3.21721e-08
3.32461e-08
1.85691e-08
7.06858e-08
3.79481e-08
3.91152e-08
2.51611e-08
7.3164e-08
4.52935e-08
4.66832e-08
3.54439e-08
7.63989e-08
5.51547e-08
5.72159e-08
5.24136e-08
8.03892e-08
6.88368e-08
7.13507e-08
7.94625e-08
8.57768e-08
8.89711e-08
9.05661e-08
1.23306e-07
9.34497e-08
1.21971e-07
1.22962e-07
1.96153e-07
1.05623e-07
1.72658e-07
1.73417e-07
2.9634e-07
1.24219e-07
2.4035e-07
2.40687e-07
4.08876e-07
1.46388e-07
3.09586e-07
3.09719e-07
5.03988e-07
1.69042e-07
3.66406e-07
3.6649e-07
5.69484e-07
1.85803e-07
3.99411e-07
3.99487e-07
6.01882e-07
1.93735e-07
4.11449e-07
4.11525e-07
6.1194e-07
1.96286e-07
4.14568e-07
4.1464e-07
6.14227e-07
1.96908e-07
4.15235e-07
4.15306e-07
6.14813e-07
1.97032e-07
4.15355e-07
4.15425e-07
6.14845e-07
1.97053e-07
4.15361e-07
4.15432e-07
6.14804e-07
1.97059e-07
4.15367e-07
4.15437e-07
6.14837e-07
1.97062e-07
4.15369e-07
4.1544e-07
6.14826e-07
1.97065e-07
4.15373e-07
4.15443e-07
6.14836e-07
1.97067e-07
4.15375e-07
4.15445e-07
6.14835e-07
1.97069e-07
4.15379e-07
4.15449e-07
6.14839e-07
1.97071e-07
4.15379e-07
4.15449e-07
6.14838e-07
1.97072e-07
4.1538e-07
4.1545e-07
6.14839e-07
1.97074e-07
4.15384e-07
4.15453e-07
6.14834e-07
1.97075e-07
4.1538e-07
4.15451e-07
6.14845e-07
1.97075e-07
4.15377e-07
4.15449e-07
6.14847e-07
1.97076e-07
4.15378e-07
4.15451e-07
6.14835e-07
1.97075e-07
4.1538e-07
4.15452e-07
6.14847e-07
1.97075e-07
4.15376e-07
4.15451e-07
6.1484e-07
1.97075e-07
4.15375e-07
4.15451e-07
6.14788e-07
1.97075e-07
4.15378e-07
4.15451e-07
6.14746e-07
1.97076e-07
4.15378e-07
4.15449e-07
6.14748e-07
1.97076e-07
4.15377e-07
4.1545e-07
6.14774e-07
1.97076e-07
4.15377e-07
4.15449e-07
6.14808e-07
1.97076e-07
4.15377e-07
4.1545e-07
6.14848e-07
1.97076e-07
4.15378e-07
4.15451e-07
6.14869e-07
1.97076e-07
4.15378e-07
4.1545e-07
6.14866e-07
1.97076e-07
4.15377e-07
4.1545e-07
6.14854e-07
1.97076e-07
4.15378e-07
4.1545e-07
6.14857e-07
1.97076e-07
4.15378e-07
4.1545e-07
6.14866e-07
1.97077e-07
4.15379e-07
4.1545e-07
6.14863e-07
1.97077e-07
4.15379e-07
4.15451e-07
6.14852e-07
1.97077e-07
4.15379e-07
4.1545e-07
6.14847e-07
1.97077e-07
4.15379e-07
4.1545e-07
6.14846e-07
1.97077e-07
4.15379e-07
4.1545e-07
6.1485e-07
1.97077e-07
4.15378e-07
4.15451e-07
6.1485e-07
1.97077e-07
4.15378e-07
4.1545e-07
6.14835e-07
1.97077e-07
4.15379e-07
4.1545e-07
6.14827e-07
1.97077e-07
4.15379e-07
4.1545e-07
6.14846e-07
1.97077e-07
4.15379e-07
4.1545e-07
6.14867e-07
1.97077e-07
4.15379e-07
4.1545e-07
6.1487e-07
1.97077e-07
4.15379e-07
4.1545e-07
6.14857e-07
1.97077e-07
4.15379e-07
4.1545e-07
6.14841e-07
1.97077e-07
4.15379e-07
4.1545e-07
6.14841e-07
1.97077e-07
4.15379e-07
4.15449e-07
6.14846e-07
1.97077e-07
4.15379e-07
4.15449e-07
6.1484e-07
1.97077e-07
4.15379e-07
4.1545e-07
6.14835e-07
1.97078e-07
4.15379e-07
4.15449e-07
6.14846e-07
1.97078e-07
4.1538e-07
4.15448e-07
6.1486e-07
1.97078e-07
4.1538e-07
4.15449e-07
6.14863e-07
1.97078e-07
4.15379e-07
4.15449e-07
6.14856e-07
1.97078e-07
4.15379e-07
4.15448e-07
6.14846e-07
1.97079e-07
4.15378e-07
4.15448e-07
6.14845e-07
1.97079e-07
4.15379e-07
4.15448e-07
6.14846e-07
1.97079e-07
4.15379e-07
4.15448e-07
6.14832e-07
1.9708e-07
4.1538e-07
4.15449e-07
6.14831e-07
1.9708e-07
4.15381e-07
4.1545e-07
6.14854e-07
1.97081e-07
4.15382e-07
4.15451e-07
6.14865e-07
1.97081e-07
4.15384e-07
4.15452e-07
6.14862e-07
1.97082e-07
4.15385e-07
4.15454e-07
6.1486e-07
1.97082e-07
4.15387e-07
4.15455e-07
6.14851e-07
1.97082e-07
4.15387e-07
4.15455e-07
6.14836e-07
1.97083e-07
4.15386e-07
4.15454e-07
6.14836e-07
1.97083e-07
4.15383e-07
4.15451e-07
6.14846e-07
1.97084e-07
4.15375e-07
4.15443e-07
6.14832e-07
1.9708e-07
4.15352e-07
4.15418e-07
6.14776e-07
1.96927e-07
4.15255e-07
4.15317e-07
6.14498e-07
1.90954e-07
3.89592e-07
3.89604e-07
5.82598e-07
5.7304e-09
6.40491e-09
6.01529e-09
5.76266e-09
4.94936e-09
5.56413e-09
4.5892e-08
4.59375e-08
4.58462e-08
4.66343e-08
6.52777e-09
6.09082e-09
6.2632e-09
6.64347e-09
7.24116e-09
5.69322e-09
5.64125e-09
5.17819e-09
7.93635e-09
7.28735e-09
8.01294e-09
7.40739e-09
5.69569e-09
5.38161e-09
6.04393e-09
6.55609e-09
6.17894e-09
6.76216e-09
7.5314e-09
8.85315e-09
7.69918e-09
6.1883e-09
5.78809e-09
9.63842e-09
8.01977e-09
9.8766e-09
5.36197e-09
5.0851e-09
4.79608e-09
8.06233e-09
7.48059e-09
8.27252e-09
7.7131e-09
5.31029e-09
5.12485e-09
6.24913e-09
6.85601e-09
6.52069e-09
7.16047e-09
7.79163e-09
9.05898e-09
8.1139e-09
5.71208e-09
5.44085e-09
9.99936e-09
8.21251e-09
1.04331e-08
5.26406e-09
4.73244e-09
4.59637e-09
8.36077e-09
7.81586e-09
8.68064e-09
8.13275e-09
5.07569e-09
4.99516e-09
6.62896e-09
7.27786e-09
7.00403e-09
7.65981e-09
8.24079e-09
9.38706e-09
8.65174e-09
5.37983e-09
5.18695e-09
1.05958e-08
8.51964e-09
1.11428e-08
5.30639e-09
4.55871e-09
4.53573e-09
8.80798e-09
8.25054e-09
9.25597e-09
8.66401e-09
4.96304e-09
4.96924e-09
7.14394e-09
7.80173e-09
7.62928e-09
8.26294e-09
8.80416e-09
9.83548e-09
9.30883e-09
5.13572e-09
5.01153e-09
1.13468e-08
8.91573e-09
1.19902e-08
5.44707e-09
4.51542e-09
4.61081e-09
9.42132e-09
8.79124e-09
9.97542e-09
9.26647e-09
4.94992e-09
5.02288e-09
7.81332e-09
8.42144e-09
8.40262e-09
8.95494e-09
9.48624e-09
1.04216e-08
1.00703e-08
4.9688e-09
4.887e-09
1.22178e-08
9.42956e-09
1.29559e-08
5.6655e-09
4.59775e-09
4.80153e-09
1.01735e-08
9.4509e-09
1.08171e-08
9.96392e-09
5.00717e-09
5.14997e-09
8.61846e-09
9.13805e-09
9.3316e-09
9.7495e-09
1.02768e-08
1.11118e-08
1.09637e-08
4.85113e-09
4.8211e-09
1.32187e-08
1.00828e-08
1.40615e-08
5.9145e-09
4.79374e-09
5.09735e-09
1.10466e-08
1.01529e-08
1.17725e-08
1.08712e-08
5.13425e-09
5.28278e-09
9.57999e-09
9.965e-09
1.03856e-08
1.0666e-08
1.11935e-08
1.18958e-08
1.19814e-08
4.79377e-09
4.81288e-09
1.43596e-08
1.09417e-08
1.52376e-08
6.15793e-09
5.09334e-09
5.44359e-09
1.20325e-08
1.11244e-08
1.28529e-08
1.18735e-08
5.27098e-09
5.53396e-09
1.06727e-08
1.09255e-08
1.15967e-08
1.17321e-08
1.22584e-08
1.28283e-08
1.31232e-08
4.78996e-09
4.92073e-09
1.55326e-08
1.19837e-08
1.64399e-08
6.38289e-09
5.44107e-09
5.86342e-09
1.31435e-08
1.21579e-08
1.41079e-08
1.30622e-08
5.52551e-09
5.78347e-09
1.19206e-08
1.20345e-08
1.29384e-08
1.29969e-08
1.34415e-08
1.38937e-08
1.43906e-08
4.90754e-09
5.19459e-09
1.67294e-08
1.32228e-08
1.74887e-08
6.57047e-09
5.86728e-09
6.39068e-09
1.44514e-08
1.33831e-08
1.54864e-08
1.44466e-08
5.77276e-09
6.11137e-09
1.33131e-08
1.33336e-08
1.4442e-08
1.44845e-08
1.47274e-08
1.50411e-08
1.58394e-08
5.1898e-09
5.65669e-09
1.76965e-08
1.47094e-08
1.80975e-08
6.68367e-09
6.40207e-09
7.07426e-09
1.58593e-08
1.48249e-08
1.71761e-08
1.61249e-08
6.10967e-09
6.63998e-09
1.48193e-08
1.4861e-08
1.613e-08
1.60903e-08
1.62119e-08
1.63588e-08
1.74598e-08
5.66363e-09
6.32484e-09
1.81623e-08
1.64448e-08
1.82818e-08
6.78559e-09
7.10066e-09
7.95649e-09
1.76358e-08
1.66102e-08
1.89441e-08
1.80782e-08
6.65485e-09
7.4356e-09
1.662e-08
1.66048e-08
1.8085e-08
1.80171e-08
1.79454e-08
1.80443e-08
1.94358e-08
6.35072e-09
7.30023e-09
1.83249e-08
1.84163e-08
1.87558e-08
7.44632e-09
7.99973e-09
9.10283e-09
1.94084e-08
1.86339e-08
2.08599e-08
2.04957e-08
7.47784e-09
8.65721e-09
1.86221e-08
1.85199e-08
2.04002e-08
2.03653e-08
1.99822e-08
2.0208e-08
2.16293e-08
7.35398e-09
8.64726e-09
1.91508e-08
2.08857e-08
2.06745e-08
8.59522e-09
9.29923e-09
1.09504e-08
2.13708e-08
2.11556e-08
2.33225e-08
2.35031e-08
8.85402e-09
1.06214e-08
2.10185e-08
2.09651e-08
2.32255e-08
2.30199e-08
2.21351e-08
2.29364e-08
2.38551e-08
8.84465e-09
1.06842e-08
2.12668e-08
2.38593e-08
2.34414e-08
1.03281e-08
1.13199e-08
1.38585e-08
2.40398e-08
2.43462e-08
2.65231e-08
2.70482e-08
1.10116e-08
1.37041e-08
2.4019e-08
2.38523e-08
2.6674e-08
2.67091e-08
2.4486e-08
2.64543e-08
2.67433e-08
1.10739e-08
1.37119e-08
2.42172e-08
2.74754e-08
2.68384e-08
1.32509e-08
1.44477e-08
1.8203e-08
2.75376e-08
2.80973e-08
3.09264e-08
3.15096e-08
1.4319e-08
1.81331e-08
2.77487e-08
2.78005e-08
3.12121e-08
3.1204e-08
2.76594e-08
3.09655e-08
3.0781e-08
1.43226e-08
1.81984e-08
2.78884e-08
3.20226e-08
3.1388e-08
1.76737e-08
1.90908e-08
2.42789e-08
3.21502e-08
3.27261e-08
3.63406e-08
3.68941e-08
1.90235e-08
2.42765e-08
3.24137e-08
3.24008e-08
3.65277e-08
3.65381e-08
3.19778e-08
3.63514e-08
3.61199e-08
1.90952e-08
2.43404e-08
3.26295e-08
3.74891e-08
3.67239e-08
2.38205e-08
2.56014e-08
3.36982e-08
3.7969e-08
3.85259e-08
4.3363e-08
4.39715e-08
2.56193e-08
3.38616e-08
3.81395e-08
3.8165e-08
4.35612e-08
4.36168e-08
3.76932e-08
4.33211e-08
4.28845e-08
2.56779e-08
3.39072e-08
3.83145e-08
4.4606e-08
4.36067e-08
3.32687e-08
3.59055e-08
4.93144e-08
4.53671e-08
4.60046e-08
5.2574e-08
5.32252e-08
3.61005e-08
4.95357e-08
4.55632e-08
4.56264e-08
5.26761e-08
5.27588e-08
4.48422e-08
5.23912e-08
5.19574e-08
3.61486e-08
4.97837e-08
4.5553e-08
5.42751e-08
5.25384e-08
4.87729e-08
5.29496e-08
7.40494e-08
5.53908e-08
5.60473e-08
6.52158e-08
6.58778e-08
5.31582e-08
7.42833e-08
5.55078e-08
5.55824e-08
6.54934e-08
6.55091e-08
5.47791e-08
6.50031e-08
6.477e-08
5.3503e-08
7.51659e-08
5.533e-08
6.75054e-08
6.52238e-08
7.36723e-08
7.97787e-08
1.13647e-07
6.90245e-08
6.96395e-08
8.30512e-08
8.33531e-08
8.00398e-08
1.14043e-07
6.93197e-08
6.93146e-08
8.32461e-08
8.31811e-08
6.86599e-08
8.30134e-08
8.28502e-08
8.09819e-08
1.14618e-07
6.90652e-08
8.49023e-08
8.3136e-08
1.13728e-07
1.23144e-07
1.80682e-07
8.89866e-08
8.91921e-08
1.12239e-07
1.12317e-07
1.23569e-07
1.81023e-07
8.9174e-08
8.90851e-08
1.12586e-07
1.12414e-07
8.88098e-08
1.12294e-07
1.12086e-07
1.23985e-07
1.81094e-07
8.90796e-08
1.13343e-07
1.12336e-07
1.8092e-07
1.95978e-07
2.77065e-07
1.21941e-07
1.22006e-07
1.58057e-07
1.58081e-07
1.96249e-07
2.76906e-07
1.22338e-07
1.22158e-07
1.58383e-07
1.58316e-07
1.2179e-07
1.58009e-07
1.5791e-07
1.96337e-07
2.77395e-07
1.22018e-07
1.58851e-07
1.58041e-07
2.76864e-07
2.96571e-07
3.88862e-07
1.72745e-07
1.72764e-07
2.2283e-07
2.22845e-07
2.96377e-07
3.88719e-07
1.73009e-07
1.73001e-07
2.22901e-07
2.23024e-07
1.7261e-07
2.22712e-07
2.22747e-07
2.96914e-07
3.89137e-07
1.72709e-07
2.23143e-07
2.2276e-07
3.88769e-07
4.0895e-07
4.88019e-07
2.40481e-07
2.40502e-07
2.92982e-07
2.93028e-07
4.08829e-07
4.87951e-07
2.40509e-07
2.40654e-07
2.92944e-07
2.93113e-07
2.40416e-07
2.92859e-07
2.92966e-07
4.09183e-07
4.88136e-07
2.40409e-07
2.93019e-07
2.92921e-07
4.88045e-07
5.03963e-07
5.58704e-07
3.09717e-07
3.09767e-07
3.54302e-07
3.54356e-07
5.03901e-07
5.58641e-07
3.09669e-07
3.09837e-07
3.54239e-07
3.54397e-07
3.09713e-07
3.54173e-07
3.54321e-07
5.04059e-07
5.58769e-07
3.0966e-07
3.54262e-07
3.54253e-07
5.58762e-07
5.69435e-07
5.96521e-07
3.66537e-07
3.66591e-07
3.93662e-07
3.93715e-07
5.69373e-07
5.96452e-07
3.66475e-07
3.66627e-07
3.93597e-07
3.93739e-07
3.6656e-07
3.93531e-07
3.93688e-07
5.69485e-07
5.96563e-07
3.66491e-07
3.93605e-07
3.93621e-07
5.96583e-07
6.01826e-07
6.09441e-07
3.99543e-07
3.99597e-07
4.09826e-07
4.09879e-07
6.01761e-07
6.09377e-07
3.99479e-07
3.99618e-07
4.09762e-07
4.09895e-07
3.99571e-07
4.09695e-07
4.09859e-07
6.0186e-07
6.09477e-07
3.99505e-07
4.0977e-07
4.09793e-07
6.09507e-07
6.11876e-07
6.12445e-07
4.11578e-07
4.11631e-07
4.14286e-07
4.1434e-07
6.11813e-07
6.12381e-07
4.11517e-07
4.11647e-07
4.14227e-07
4.14355e-07
4.11611e-07
4.14159e-07
4.14319e-07
6.11904e-07
6.12474e-07
4.11547e-07
4.1423e-07
4.14257e-07
6.12506e-07
6.14167e-07
6.13183e-07
4.14693e-07
4.14746e-07
4.15279e-07
4.15336e-07
6.14105e-07
6.13118e-07
4.14636e-07
4.14762e-07
4.15222e-07
4.15347e-07
4.14726e-07
4.15153e-07
4.1531e-07
6.1419e-07
6.1321e-07
4.14664e-07
4.15223e-07
4.15248e-07
6.13239e-07
6.14759e-07
6.13232e-07
4.1536e-07
4.15411e-07
4.1547e-07
4.15527e-07
6.14696e-07
6.13165e-07
4.15304e-07
4.15429e-07
4.15414e-07
4.15539e-07
4.15391e-07
4.15344e-07
4.15499e-07
6.14779e-07
6.13258e-07
4.15329e-07
4.15414e-07
4.15437e-07
6.13286e-07
6.14794e-07
6.13199e-07
4.15481e-07
4.15536e-07
4.15486e-07
4.15545e-07
6.1473e-07
6.1313e-07
4.15425e-07
4.1555e-07
4.15432e-07
4.15556e-07
4.15509e-07
4.1536e-07
4.15515e-07
6.14814e-07
6.13228e-07
4.15447e-07
4.15431e-07
4.15452e-07
6.13252e-07
6.14754e-07
6.13224e-07
4.15486e-07
4.15545e-07
4.1549e-07
4.15551e-07
6.14687e-07
6.13154e-07
4.15432e-07
4.15556e-07
4.15437e-07
4.15561e-07
4.15514e-07
4.15365e-07
4.15518e-07
6.14776e-07
6.13251e-07
4.15452e-07
4.15435e-07
4.15456e-07
6.13276e-07
6.14786e-07
6.13218e-07
4.1549e-07
4.15552e-07
4.15493e-07
4.15556e-07
6.1472e-07
6.13149e-07
4.15437e-07
4.15561e-07
4.15441e-07
4.15565e-07
4.15519e-07
4.15369e-07
4.15522e-07
6.14807e-07
6.13247e-07
4.15457e-07
4.15439e-07
4.1546e-07
6.13271e-07
6.14774e-07
6.13225e-07
4.15493e-07
4.15556e-07
4.15496e-07
4.15559e-07
6.14708e-07
6.13155e-07
4.15441e-07
4.15565e-07
4.15443e-07
4.15568e-07
4.15522e-07
4.15372e-07
4.15525e-07
6.14797e-07
6.13254e-07
4.1546e-07
4.15442e-07
4.15463e-07
6.13278e-07
6.14786e-07
6.13225e-07
4.15496e-07
4.15559e-07
4.15498e-07
4.15563e-07
6.14719e-07
6.13156e-07
4.15443e-07
4.15568e-07
4.15447e-07
4.15571e-07
4.15525e-07
4.15374e-07
4.15528e-07
6.14808e-07
6.13255e-07
4.15463e-07
4.15445e-07
4.15466e-07
6.13279e-07
6.14783e-07
6.13228e-07
4.15498e-07
4.15563e-07
4.155e-07
4.15566e-07
6.14717e-07
6.1316e-07
4.15447e-07
4.15571e-07
4.15449e-07
4.15573e-07
4.15528e-07
4.15377e-07
4.1553e-07
6.14806e-07
6.13259e-07
4.15465e-07
4.15447e-07
4.15467e-07
6.13281e-07
6.14787e-07
6.13228e-07
4.155e-07
4.15566e-07
4.15501e-07
4.15568e-07
6.14723e-07
6.13159e-07
4.15449e-07
4.15573e-07
4.15451e-07
4.15575e-07
4.1553e-07
4.15379e-07
4.15531e-07
6.14812e-07
6.13257e-07
4.15467e-07
4.15448e-07
4.15469e-07
6.13281e-07
6.14785e-07
6.13232e-07
4.155e-07
4.15567e-07
4.15502e-07
4.1557e-07
6.14722e-07
6.1316e-07
4.15451e-07
4.15574e-07
4.15454e-07
4.15577e-07
4.15531e-07
4.15382e-07
4.15534e-07
6.1481e-07
6.13259e-07
4.15468e-07
4.15451e-07
4.15471e-07
6.13281e-07
6.14788e-07
6.13236e-07
4.15502e-07
4.1557e-07
4.155e-07
4.1557e-07
6.14721e-07
6.13167e-07
4.15454e-07
4.15577e-07
4.15453e-07
4.15577e-07
4.15532e-07
4.15382e-07
4.15534e-07
6.14811e-07
6.13261e-07
4.15471e-07
4.15452e-07
4.15472e-07
6.13279e-07
6.14789e-07
6.13231e-07
4.155e-07
4.15568e-07
4.15499e-07
4.15565e-07
6.14728e-07
6.13165e-07
4.15455e-07
4.15577e-07
4.15455e-07
4.15576e-07
4.15534e-07
4.15379e-07
4.15532e-07
6.14814e-07
6.13255e-07
4.15472e-07
4.1545e-07
4.1547e-07
6.13291e-07
6.14786e-07
6.13234e-07
4.15499e-07
4.15565e-07
4.15499e-07
4.15565e-07
6.14723e-07
6.13172e-07
4.15454e-07
4.15576e-07
4.15456e-07
4.15577e-07
4.15532e-07
4.15379e-07
4.15533e-07
6.14808e-07
6.13263e-07
4.1547e-07
4.1545e-07
4.15471e-07
6.13284e-07
6.14783e-07
6.1325e-07
4.15498e-07
4.15563e-07
4.15501e-07
4.15566e-07
6.14724e-07
6.13181e-07
4.15455e-07
4.15576e-07
4.15458e-07
4.15578e-07
4.15532e-07
4.1538e-07
4.15535e-07
6.14811e-07
6.13269e-07
4.1547e-07
4.15452e-07
4.15473e-07
6.13275e-07
6.14804e-07
6.13229e-07
4.15499e-07
4.15563e-07
4.15501e-07
4.15565e-07
6.14744e-07
6.13146e-07
4.15456e-07
4.15576e-07
4.15458e-07
4.15578e-07
4.15533e-07
4.15378e-07
4.15533e-07
6.14826e-07
6.13243e-07
4.15471e-07
4.15451e-07
4.15472e-07
6.13285e-07
6.14798e-07
6.13197e-07
4.155e-07
4.15564e-07
4.155e-07
4.15562e-07
6.1472e-07
6.13128e-07
4.15458e-07
4.15578e-07
4.15456e-07
4.15576e-07
4.15534e-07
4.15375e-07
4.15532e-07
6.14807e-07
6.13232e-07
4.15472e-07
4.1545e-07
4.15471e-07
6.13264e-07
6.14753e-07
6.13225e-07
4.155e-07
4.15562e-07
4.15501e-07
4.15561e-07
6.14676e-07
6.13181e-07
4.15456e-07
4.15577e-07
4.15455e-07
4.15576e-07
4.15532e-07
4.15377e-07
4.15534e-07
6.14779e-07
6.13266e-07
4.15471e-07
4.1545e-07
4.15472e-07
6.13222e-07
6.1475e-07
6.1328e-07
4.155e-07
4.15561e-07
4.15502e-07
4.15563e-07
6.14699e-07
6.13233e-07
4.15455e-07
4.15576e-07
4.15456e-07
4.15577e-07
4.15533e-07
4.15378e-07
4.15534e-07
6.14793e-07
6.13297e-07
4.15472e-07
4.1545e-07
4.15471e-07
6.1322e-07
6.14803e-07
6.13288e-07
4.15502e-07
4.15561e-07
4.15505e-07
4.15564e-07
6.14766e-07
6.13218e-07
4.15455e-07
4.15576e-07
4.15457e-07
4.15578e-07
4.15534e-07
4.15376e-07
4.15532e-07
6.14832e-07
6.1329e-07
4.15471e-07
4.15449e-07
4.15471e-07
6.13264e-07
6.14838e-07
6.1326e-07
4.15504e-07
4.15562e-07
4.15506e-07
4.15564e-07
6.14788e-07
6.13172e-07
4.15455e-07
4.15577e-07
4.15456e-07
4.15577e-07
4.15532e-07
4.15376e-07
4.15533e-07
6.14845e-07
6.13271e-07
4.1547e-07
4.1545e-07
4.15471e-07
6.13316e-07
6.1483e-07
6.1324e-07
4.15505e-07
4.15563e-07
4.15508e-07
4.15563e-07
6.14758e-07
6.13152e-07
4.15455e-07
4.15577e-07
4.15455e-07
4.15577e-07
4.15532e-07
4.15377e-07
4.15533e-07
6.14835e-07
6.13263e-07
4.1547e-07
4.15451e-07
4.15471e-07
6.13366e-07
6.14813e-07
6.13233e-07
4.15507e-07
4.15563e-07
4.15509e-07
4.15562e-07
6.14729e-07
6.13158e-07
4.15454e-07
4.15577e-07
4.15455e-07
4.15577e-07
4.15532e-07
4.15377e-07
4.15533e-07
6.14825e-07
6.13265e-07
4.15469e-07
4.15451e-07
4.15473e-07
6.13412e-07
6.14802e-07
6.13235e-07
4.15508e-07
4.15562e-07
4.15511e-07
4.15563e-07
6.14722e-07
6.13172e-07
4.15454e-07
4.15577e-07
4.15454e-07
4.15578e-07
4.15531e-07
4.15377e-07
4.15534e-07
6.14824e-07
6.13269e-07
4.15469e-07
4.1545e-07
4.15472e-07
6.1343e-07
6.14798e-07
6.13244e-07
4.1551e-07
4.15561e-07
4.15512e-07
4.15564e-07
6.1473e-07
6.13179e-07
4.15454e-07
4.15577e-07
4.15454e-07
4.15578e-07
4.15532e-07
4.15377e-07
4.15533e-07
6.14828e-07
6.13271e-07
4.15471e-07
4.15449e-07
4.15471e-07
6.13429e-07
6.14803e-07
6.13252e-07
4.15511e-07
4.15562e-07
4.15513e-07
4.15563e-07
6.1474e-07
6.13181e-07
4.15454e-07
4.15577e-07
4.15454e-07
4.15578e-07
4.15532e-07
4.15377e-07
4.15533e-07
6.14832e-07
6.13271e-07
4.1547e-07
4.15449e-07
4.1547e-07
6.13424e-07
6.14814e-07
6.13251e-07
4.15513e-07
4.15562e-07
4.15513e-07
4.15562e-07
6.14744e-07
6.13183e-07
4.15453e-07
4.15577e-07
4.15453e-07
4.15578e-07
4.15532e-07
4.15377e-07
4.15533e-07
6.14835e-07
6.13268e-07
4.15469e-07
4.15449e-07
4.1547e-07
6.13427e-07
6.14818e-07
6.13248e-07
4.15513e-07
4.15562e-07
4.15515e-07
4.15562e-07
6.14749e-07
6.13182e-07
4.15453e-07
4.15577e-07
4.15453e-07
4.15578e-07
4.15532e-07
4.15378e-07
4.15533e-07
6.14835e-07
6.13267e-07
4.15468e-07
4.15449e-07
4.1547e-07
6.1343e-07
6.14818e-07
6.13247e-07
4.15514e-07
4.15562e-07
4.15515e-07
4.15562e-07
6.14752e-07
6.13178e-07
4.15453e-07
4.15577e-07
4.15453e-07
4.15577e-07
4.15532e-07
4.15378e-07
4.15533e-07
6.14835e-07
6.13264e-07
4.15468e-07
4.15449e-07
4.15469e-07
6.13427e-07
6.14817e-07
6.13245e-07
4.15515e-07
4.15562e-07
4.15516e-07
4.15562e-07
6.14751e-07
6.13176e-07
4.15453e-07
4.15577e-07
4.15453e-07
4.15578e-07
4.15532e-07
4.15378e-07
4.15533e-07
6.14835e-07
6.13261e-07
4.15468e-07
4.1545e-07
4.15469e-07
6.13421e-07
6.14815e-07
6.13248e-07
4.15516e-07
4.15562e-07
4.15516e-07
4.15562e-07
6.1475e-07
6.13174e-07
4.15453e-07
4.15577e-07
4.15453e-07
4.15578e-07
4.15532e-07
4.15378e-07
4.15533e-07
6.14832e-07
6.13257e-07
4.15467e-07
4.15449e-07
4.15468e-07
6.13419e-07
6.14816e-07
6.13252e-07
4.15516e-07
4.15562e-07
4.15517e-07
4.15562e-07
6.14749e-07
6.13172e-07
4.15453e-07
4.15577e-07
4.15453e-07
4.15577e-07
4.15532e-07
4.15378e-07
4.15533e-07
6.14828e-07
6.13258e-07
4.15467e-07
4.15449e-07
4.15468e-07
6.13419e-07
6.1482e-07
6.13253e-07
4.15516e-07
4.15562e-07
4.15517e-07
4.15562e-07
6.14747e-07
6.1317e-07
4.15453e-07
4.15577e-07
4.15453e-07
4.15578e-07
4.15532e-07
4.15378e-07
4.15533e-07
6.14826e-07
6.13262e-07
4.15466e-07
4.1545e-07
4.15468e-07
6.13421e-07
6.14825e-07
6.13251e-07
4.15516e-07
4.15562e-07
4.15517e-07
4.15562e-07
6.14745e-07
6.13171e-07
4.15453e-07
4.15577e-07
4.15453e-07
4.15577e-07
4.15532e-07
4.15378e-07
4.15533e-07
6.14828e-07
6.13265e-07
4.15466e-07
4.1545e-07
4.15467e-07
6.13419e-07
6.14825e-07
6.13246e-07
4.15517e-07
4.15561e-07
4.15517e-07
4.15562e-07
6.14743e-07
6.13174e-07
4.15452e-07
4.15577e-07
4.15453e-07
4.15577e-07
4.15532e-07
4.15378e-07
4.15533e-07
6.14832e-07
6.13264e-07
4.15466e-07
4.15449e-07
4.15467e-07
6.13409e-07
6.14821e-07
6.13245e-07
4.15517e-07
4.15562e-07
4.15517e-07
4.15562e-07
6.14746e-07
6.13175e-07
4.15452e-07
4.15577e-07
4.15452e-07
4.15577e-07
4.15532e-07
4.15378e-07
4.15533e-07
6.14834e-07
6.13263e-07
4.15465e-07
4.15449e-07
4.15467e-07
6.13407e-07
6.14818e-07
6.13245e-07
4.15517e-07
4.15562e-07
4.15518e-07
4.15562e-07
6.14748e-07
6.13175e-07
4.15452e-07
4.15577e-07
4.15451e-07
4.15577e-07
4.15532e-07
4.15378e-07
4.15533e-07
6.14833e-07
6.13262e-07
4.15465e-07
4.15449e-07
4.15467e-07
6.13421e-07
6.14818e-07
6.13243e-07
4.15517e-07
4.15562e-07
4.15517e-07
4.15562e-07
6.14749e-07
6.13174e-07
4.15451e-07
4.15577e-07
4.15451e-07
4.15578e-07
4.15532e-07
4.15378e-07
4.15533e-07
6.14833e-07
6.1326e-07
4.15466e-07
4.15449e-07
4.15466e-07
6.13432e-07
6.14816e-07
6.13244e-07
4.15517e-07
4.15562e-07
4.15517e-07
4.15562e-07
6.14749e-07
6.13174e-07
4.15451e-07
4.15577e-07
4.15451e-07
4.15578e-07
4.15531e-07
4.15378e-07
4.15533e-07
6.14831e-07
6.13258e-07
4.15465e-07
4.15449e-07
4.15466e-07
6.13431e-07
6.14814e-07
6.13248e-07
4.15517e-07
4.15562e-07
4.15517e-07
4.15562e-07
6.14749e-07
6.13173e-07
4.15451e-07
4.15577e-07
4.15451e-07
4.15577e-07
4.15532e-07
4.15378e-07
4.15533e-07
6.14827e-07
6.13262e-07
4.15465e-07
4.15449e-07
4.15465e-07
6.13423e-07
6.14816e-07
6.1325e-07
4.15517e-07
4.15562e-07
4.15517e-07
4.15562e-07
6.14749e-07
6.13171e-07
4.15451e-07
4.15577e-07
4.15451e-07
4.15577e-07
4.15532e-07
4.15378e-07
4.15532e-07
6.14828e-07
6.13267e-07
4.15464e-07
4.15449e-07
4.15465e-07
6.13415e-07
6.14819e-07
6.13251e-07
4.15517e-07
4.15562e-07
4.15517e-07
4.15562e-07
6.14748e-07
6.13168e-07
4.15451e-07
4.15577e-07
4.15451e-07
4.15577e-07
4.15531e-07
4.15378e-07
4.15532e-07
6.14834e-07
6.13267e-07
4.15464e-07
4.15448e-07
4.15465e-07
6.13415e-07
6.14821e-07
6.1325e-07
4.15517e-07
4.15562e-07
4.15517e-07
4.15561e-07
6.14744e-07
6.1317e-07
4.15451e-07
4.15577e-07
4.15451e-07
4.15577e-07
4.15532e-07
4.15378e-07
4.15532e-07
6.14836e-07
6.13266e-07
4.15464e-07
4.15448e-07
4.15465e-07
6.13417e-07
6.14822e-07
6.13247e-07
4.15517e-07
4.15561e-07
4.15517e-07
4.15562e-07
6.14743e-07
6.13173e-07
4.15451e-07
4.15577e-07
4.1545e-07
4.15577e-07
4.15531e-07
4.15377e-07
4.15532e-07
6.14838e-07
6.13261e-07
4.15465e-07
4.15448e-07
4.15465e-07
6.13413e-07
6.1482e-07
6.13246e-07
4.15517e-07
4.15562e-07
4.15517e-07
4.15562e-07
6.14746e-07
6.13172e-07
4.15451e-07
4.15577e-07
4.1545e-07
4.15577e-07
4.15531e-07
4.15377e-07
4.15533e-07
6.14835e-07
6.13255e-07
4.15465e-07
4.15448e-07
4.15465e-07
6.13412e-07
6.14817e-07
6.13248e-07
4.15517e-07
4.15562e-07
4.15516e-07
4.15561e-07
6.14746e-07
6.13168e-07
4.1545e-07
4.15577e-07
4.1545e-07
4.15577e-07
4.15532e-07
4.15377e-07
4.15533e-07
6.14828e-07
6.13255e-07
4.15465e-07
4.15446e-07
4.15464e-07
6.1342e-07
6.14818e-07
6.13251e-07
4.15517e-07
4.15562e-07
4.15517e-07
4.15561e-07
6.14743e-07
6.13167e-07
4.1545e-07
4.15577e-07
4.1545e-07
4.15577e-07
4.15532e-07
4.15377e-07
4.15532e-07
6.14824e-07
6.13262e-07
4.15464e-07
4.15446e-07
4.15464e-07
6.13427e-07
6.14821e-07
6.13252e-07
4.15517e-07
4.15562e-07
4.15517e-07
4.15561e-07
6.1474e-07
6.1317e-07
4.15451e-07
4.15578e-07
4.1545e-07
4.15577e-07
4.15532e-07
4.15377e-07
4.15532e-07
6.14826e-07
6.1327e-07
4.15463e-07
4.15447e-07
4.15465e-07
6.13428e-07
6.14823e-07
6.1325e-07
4.15518e-07
4.15562e-07
4.15517e-07
4.15561e-07
6.14739e-07
6.13177e-07
4.15452e-07
4.15578e-07
4.15449e-07
4.15576e-07
4.15532e-07
4.15376e-07
4.15531e-07
6.14837e-07
6.13264e-07
4.15465e-07
4.15446e-07
4.15464e-07
6.13423e-07
6.14822e-07
6.13248e-07
4.15519e-07
4.15562e-07
4.15516e-07
4.1556e-07
6.14745e-07
6.1318e-07
4.15451e-07
4.15578e-07
4.15449e-07
4.15575e-07
4.15532e-07
4.15376e-07
4.15531e-07
6.14837e-07
6.13253e-07
4.15465e-07
4.15445e-07
4.15464e-07
6.13417e-07
6.14821e-07
6.1325e-07
4.15518e-07
4.15563e-07
4.15515e-07
4.15559e-07
6.14752e-07
6.13175e-07
4.15451e-07
4.15578e-07
4.15449e-07
4.15575e-07
4.15532e-07
4.15375e-07
4.1553e-07
6.14826e-07
6.13255e-07
4.15464e-07
4.15444e-07
4.15463e-07
6.13417e-07
6.14822e-07
6.13249e-07
4.15518e-07
4.15562e-07
4.15514e-07
4.15559e-07
6.14752e-07
6.1317e-07
4.15451e-07
4.15577e-07
4.15448e-07
4.15574e-07
4.15532e-07
4.15374e-07
4.1553e-07
6.14821e-07
6.13264e-07
4.15464e-07
4.15443e-07
4.15462e-07
6.13416e-07
6.14823e-07
6.13244e-07
4.15517e-07
4.15562e-07
4.15513e-07
4.15557e-07
6.14748e-07
6.13167e-07
4.15451e-07
4.15577e-07
4.15446e-07
4.15573e-07
4.15532e-07
4.15373e-07
4.15529e-07
6.14827e-07
6.13268e-07
4.15465e-07
4.15442e-07
4.15461e-07
6.13408e-07
6.1482e-07
6.13242e-07
4.15518e-07
4.15561e-07
4.15512e-07
4.15556e-07
6.14744e-07
6.13168e-07
4.15451e-07
4.15577e-07
4.15445e-07
4.15572e-07
4.15532e-07
4.15372e-07
4.15528e-07
6.14835e-07
6.13262e-07
4.15464e-07
4.15441e-07
4.1546e-07
6.1341e-07
6.14816e-07
6.13244e-07
4.15518e-07
4.15561e-07
4.15511e-07
4.15556e-07
6.14742e-07
6.13173e-07
4.15451e-07
4.15577e-07
4.15444e-07
4.15571e-07
4.15532e-07
4.15371e-07
4.15526e-07
6.14832e-07
6.1326e-07
4.15465e-07
4.1544e-07
4.15459e-07
6.13423e-07
6.14815e-07
6.13246e-07
4.15518e-07
4.15562e-07
4.1551e-07
4.15554e-07
6.14747e-07
6.13173e-07
4.15452e-07
4.15578e-07
4.15443e-07
4.1557e-07
4.15533e-07
4.1537e-07
4.15525e-07
6.14827e-07
6.13269e-07
4.15465e-07
4.15439e-07
4.15457e-07
6.13427e-07
6.14818e-07
6.13246e-07
4.1552e-07
4.15564e-07
4.15508e-07
4.15552e-07
6.1475e-07
6.13167e-07
4.15453e-07
4.15579e-07
4.15441e-07
4.15568e-07
4.15534e-07
4.15368e-07
4.15524e-07
6.14835e-07
6.13269e-07
4.15466e-07
4.15437e-07
4.15455e-07
6.13426e-07
6.14818e-07
6.13245e-07
4.15521e-07
4.15566e-07
4.15505e-07
4.15549e-07
6.14746e-07
6.13164e-07
4.15454e-07
4.15581e-07
4.15438e-07
4.15565e-07
4.15536e-07
4.15365e-07
4.15521e-07
6.14843e-07
6.13259e-07
4.15468e-07
4.15434e-07
4.15452e-07
6.13424e-07
6.14818e-07
6.13248e-07
4.15523e-07
4.15567e-07
4.15502e-07
4.15546e-07
6.14741e-07
6.13169e-07
4.15456e-07
4.15583e-07
4.15435e-07
4.15561e-07
4.15538e-07
4.15362e-07
4.15517e-07
6.14833e-07
6.13249e-07
4.15469e-07
4.1543e-07
4.15448e-07
6.13418e-07
6.14821e-07
6.13245e-07
4.15525e-07
4.15569e-07
4.15496e-07
4.1554e-07
6.14743e-07
6.13167e-07
4.15458e-07
4.15584e-07
4.15429e-07
4.15555e-07
4.1554e-07
4.15355e-07
4.15511e-07
6.14821e-07
6.13246e-07
4.15471e-07
4.15423e-07
4.15442e-07
6.1341e-07
6.14819e-07
6.13237e-07
4.15526e-07
4.1557e-07
4.15486e-07
4.1553e-07
6.14742e-07
6.1316e-07
4.15459e-07
4.15585e-07
4.1542e-07
4.15545e-07
4.1554e-07
4.15346e-07
4.15502e-07
6.14811e-07
6.13249e-07
4.15471e-07
4.15414e-07
4.15433e-07
6.13411e-07
6.1481e-07
6.13227e-07
4.15525e-07
4.15569e-07
4.15472e-07
4.15516e-07
6.14735e-07
6.13152e-07
4.15459e-07
4.15584e-07
4.15405e-07
4.1553e-07
4.1554e-07
4.15331e-07
4.15487e-07
6.14808e-07
6.13247e-07
4.1547e-07
4.15399e-07
4.15418e-07
6.13415e-07
6.14798e-07
6.13213e-07
4.15521e-07
4.15565e-07
4.15449e-07
4.15493e-07
6.14724e-07
6.13143e-07
4.15455e-07
4.15581e-07
4.15383e-07
4.15508e-07
4.15536e-07
4.15309e-07
4.15465e-07
6.14804e-07
6.13235e-07
4.15467e-07
4.15376e-07
4.15395e-07
6.13405e-07
6.14776e-07
6.13204e-07
4.15514e-07
4.15558e-07
4.15413e-07
4.15455e-07
6.14708e-07
6.1313e-07
4.15447e-07
4.15573e-07
4.15348e-07
4.15474e-07
4.15528e-07
4.15272e-07
4.15427e-07
6.14793e-07
6.1323e-07
4.15459e-07
4.1534e-07
4.15355e-07
6.13386e-07
6.14744e-07
6.13067e-07
4.15492e-07
4.15531e-07
4.15129e-07
4.15166e-07
6.14678e-07
6.1299e-07
4.15425e-07
4.15548e-07
4.15059e-07
4.15181e-07
4.15504e-07
4.14989e-07
4.15143e-07
6.14765e-07
6.13091e-07
4.1543e-07
4.15049e-07
4.15061e-07
6.13171e-07
6.14509e-07
5.99193e-07
4.15397e-07
4.15433e-07
4.02522e-07
4.02558e-07
6.14442e-07
5.99148e-07
4.15325e-07
4.15453e-07
4.02491e-07
4.02536e-07
4.15414e-07
4.02447e-07
4.02525e-07
6.14528e-07
5.99197e-07
4.15327e-07
4.02466e-07
4.02482e-07
5.992e-07
5.82605e-07
3.89642e-07
3.89673e-07
5.82574e-07
3.89623e-07
3.8965e-07
1.90951e-07
1.90944e-07
1.90947e-07
3.89642e-07
5.82611e-07
3.89616e-07
1.05153e-07
2.08373e-08
7.43946e-08
7.4281e-08
9.69324e-10
6.63081e-09
1.43397e-08
4.67179e-08
1.06954e-09
6.73237e-09
4.67554e-08
1.29256e-08
5.93368e-09
3.72627e-09
4.66151e-09
6.81107e-09
1.68849e-07
4.68037e-09
2.66088e-07
1.6231e-06
3.14076e-06
6.75912e-09
1.58223e-07
4.59017e-09
2.35837e-07
4.48932e-08
4.47819e-08
4.56317e-08
4.49005e-08
4.49651e-08
4.4827e-08
4.56878e-08
9.98114e-10
9.6232e-08
2.15741e-08
8.81064e-09
9.86458e-10
7.34271e-08
2.14314e-08
1.56018e-06
3.06941e-06
1.10901e-09
2.12216e-08
8.83911e-08
7.97497e-09
1.09177e-09
2.12415e-08
6.74919e-08
1.98266e-07
2.15895e-07
5.48773e-09
1.73023e-07
1.84355e-07
1.72517e-08
4.72452e-07
1.08288e-08
6.8193e-07
7.16762e-06
1.01691e-05
1.69608e-08
4.52771e-07
1.07541e-08
6.25326e-07
4.53315e-08
4.51925e-08
4.6051e-08