/*--------------------------------*- C++ -*----------------------------------*\
| =========                 |                                                 |
| \\      /  F ield         | OpenFOAM: The Open Source CFD Toolbox           |
|  \\    /   O peration     | Version:  v2012                                 |
|   \\  /    A nd           | Website:  www.openfoam.com                      |
|    \\/     M anipulation  |                                                 |
\*---------------------------------------------------------------------------*/
FoamFile
{
    version     2.0;
    format      ascii;
    class       volScalarField;
    location    "112.5";
    object      k;
}
// * * * * * * * * * * * * * * * * * * * * * * * * * * * * * * * * * * * * * //

dimensions      [0 2 -2 0 0 0 0];


internalField   nonuniform List<scalar> 
171728
(
4.60912e-06
6.76605e-07
6.69944e-07
3.41092e-07
4.67059e-06
7.19268e-07
7.12189e-07
3.38602e-07
4.83596e-06
7.86069e-07
7.74425e-07
3.53578e-07
4.99613e-06
8.62979e-07
8.42488e-07
3.78576e-07
5.15227e-06
9.5115e-07
9.11184e-07
4.11285e-07
5.30512e-06
1.05287e-06
9.88076e-07
4.48311e-07
5.45577e-06
1.16411e-06
1.07683e-06
4.86974e-07
5.60262e-06
1.27815e-06
1.18259e-06
5.26063e-07
5.748e-06
1.40523e-06
1.31087e-06
5.67425e-07
5.89337e-06
1.54251e-06
1.45158e-06
6.141e-07
6.03063e-06
1.67681e-06
1.61802e-06
6.60184e-07
6.17787e-06
1.82597e-06
1.80587e-06
7.02967e-07
6.31666e-06
2.00537e-06
2.01552e-06
7.90731e-07
6.46248e-06
2.22675e-06
2.26543e-06
9.30227e-07
6.63285e-06
2.5051e-06
2.56701e-06
1.12307e-06
6.80647e-06
2.85176e-06
2.91309e-06
1.40512e-06
6.98639e-06
3.25557e-06
3.3096e-06
1.78947e-06
7.19008e-06
3.71836e-06
3.77371e-06
2.25209e-06
7.42221e-06
4.25546e-06
4.32683e-06
2.90712e-06
7.72285e-06
4.94198e-06
5.03253e-06
3.82547e-06
8.08434e-06
5.79767e-06
5.90453e-06
5.13936e-06
8.55511e-06
6.95514e-06
7.03751e-06
7.05313e-06
9.14726e-06
8.58255e-06
8.63409e-06
9.94814e-06
1.00194e-05
1.09007e-05
1.09394e-05
1.37226e-05
1.12502e-05
1.39152e-05
1.39337e-05
1.79436e-05
1.26499e-05
1.70187e-05
1.7025e-05
2.15527e-05
1.41146e-05
1.97077e-05
1.97105e-05
2.42308e-05
1.52625e-05
2.14062e-05
2.14082e-05
2.5747e-05
1.58381e-05
2.20806e-05
2.20826e-05
2.62399e-05
1.60323e-05
2.22704e-05
2.22722e-05
2.63695e-05
1.6081e-05
2.23132e-05
2.2315e-05
2.64e-05
1.60908e-05
2.23211e-05
2.23229e-05
2.6408e-05
1.60923e-05
2.23218e-05
2.23236e-05
2.64043e-05
1.60927e-05
2.23222e-05
2.2324e-05
2.64064e-05
1.60929e-05
2.23223e-05
2.2324e-05
2.64057e-05
1.60931e-05
2.23224e-05
2.23242e-05
2.64063e-05
1.60933e-05
2.23225e-05
2.23243e-05
2.64062e-05
1.60934e-05
2.23228e-05
2.23245e-05
2.64064e-05
1.60935e-05
2.23228e-05
2.23245e-05
2.64063e-05
1.60936e-05
2.23229e-05
2.23246e-05
2.64064e-05
1.60937e-05
2.2323e-05
2.23247e-05
2.64063e-05
1.60938e-05
2.23229e-05
2.23246e-05
2.64065e-05
1.60938e-05
2.23229e-05
2.23246e-05
2.64066e-05
1.60939e-05
2.23229e-05
2.23246e-05
2.64062e-05
1.60939e-05
2.2323e-05
2.23246e-05
2.64067e-05
1.60939e-05
2.23229e-05
2.23246e-05
2.64067e-05
1.60939e-05
2.23229e-05
2.23246e-05
2.64054e-05
1.60939e-05
2.2323e-05
2.23246e-05
2.64042e-05
1.60939e-05
2.2323e-05
2.23245e-05
2.64042e-05
1.60939e-05
2.2323e-05
2.23245e-05
2.64049e-05
1.60939e-05
2.2323e-05
2.23245e-05
2.64055e-05
1.60939e-05
2.2323e-05
2.23245e-05
2.64062e-05
1.6094e-05
2.2323e-05
2.23246e-05
2.64067e-05
1.6094e-05
2.23231e-05
2.23246e-05
2.64065e-05
1.6094e-05
2.23231e-05
2.23246e-05
2.64059e-05
1.6094e-05
2.23231e-05
2.23246e-05
2.64056e-05
1.6094e-05
2.23231e-05
2.23246e-05
2.64057e-05
1.6094e-05
2.23231e-05
2.23246e-05
2.64057e-05
1.6094e-05
2.23231e-05
2.23246e-05
2.64055e-05
1.6094e-05
2.23231e-05
2.23246e-05
2.64054e-05
1.6094e-05
2.23231e-05
2.23246e-05
2.64053e-05
1.6094e-05
2.23231e-05
2.23246e-05
2.64054e-05
1.6094e-05
2.23231e-05
2.23246e-05
2.64054e-05
1.6094e-05
2.23231e-05
2.23246e-05
2.6405e-05
1.6094e-05
2.23231e-05
2.23246e-05
2.64047e-05
1.6094e-05
2.23231e-05
2.23246e-05
2.64051e-05
1.6094e-05
2.23231e-05
2.23246e-05
2.64056e-05
1.6094e-05
2.23231e-05
2.23246e-05
2.64058e-05
1.6094e-05
2.23231e-05
2.23246e-05
2.64056e-05
1.6094e-05
2.23231e-05
2.23246e-05
2.64052e-05
1.6094e-05
2.23231e-05
2.23245e-05
2.64051e-05
1.6094e-05
2.23231e-05
2.23245e-05
2.64053e-05
1.6094e-05
2.23231e-05
2.23245e-05
2.64052e-05
1.6094e-05
2.23231e-05
2.23245e-05
2.6405e-05
1.6094e-05
2.23231e-05
2.23245e-05
2.64051e-05
1.6094e-05
2.23231e-05
2.23244e-05
2.64054e-05
1.6094e-05
2.23231e-05
2.23244e-05
2.64055e-05
1.6094e-05
2.23231e-05
2.23245e-05
2.64054e-05
1.6094e-05
2.23231e-05
2.23245e-05
2.64052e-05
1.60941e-05
2.23231e-05
2.23245e-05
2.64053e-05
1.60941e-05
2.23231e-05
2.23245e-05
2.64055e-05
1.60941e-05
2.23232e-05
2.23245e-05
2.64051e-05
1.60941e-05
2.23232e-05
2.23245e-05
2.64049e-05
1.60942e-05
2.23233e-05
2.23246e-05
2.64054e-05
1.60942e-05
2.23234e-05
2.23247e-05
2.64057e-05
1.60942e-05
2.23234e-05
2.23248e-05
2.64056e-05
1.60943e-05
2.23236e-05
2.23249e-05
2.64056e-05
1.60943e-05
2.23237e-05
2.2325e-05
2.64056e-05
1.60943e-05
2.23239e-05
2.23252e-05
2.64053e-05
1.60944e-05
2.23242e-05
2.23255e-05
2.64054e-05
1.60944e-05
2.23247e-05
2.2326e-05
2.64059e-05
1.60945e-05
2.23255e-05
2.23268e-05
2.64061e-05
1.60945e-05
2.23266e-05
2.23279e-05
2.64055e-05
1.60877e-05
2.23228e-05
2.23239e-05
2.64004e-05
1.58973e-05
2.16366e-05
2.16365e-05
2.57598e-05
3.58576e-07
4.70751e-07
4.422e-07
3.58515e-07
4.15195e-07
4.89744e-07
4.70204e-06
4.70869e-06
4.71052e-06
4.73623e-06
4.94215e-07
4.40786e-07
3.99632e-07
5.23626e-07
4.99972e-07
3.43991e-07
3.53907e-07
3.33577e-07
6.35391e-07
5.86032e-07
6.63506e-07
6.15507e-07
3.5506e-07
3.47112e-07
5.55386e-07
6.11416e-07
5.76067e-07
6.42316e-07
5.98237e-07
7.04667e-07
6.28106e-07
3.97223e-07
3.94264e-07
6.97094e-07
6.97761e-07
7.30887e-07
3.39827e-07
3.28794e-07
3.21064e-07
6.77822e-07
6.31952e-07
7.24732e-07
6.824e-07
3.45296e-07
3.49685e-07
5.87832e-07
6.58689e-07
6.30723e-07
7.10256e-07
6.44297e-07
7.68382e-07
6.97137e-07
3.9322e-07
4.02834e-07
7.48718e-07
7.58715e-07
8.07242e-07
3.54386e-07
3.18655e-07
3.23598e-07
7.42443e-07
7.01962e-07
8.00452e-07
7.59939e-07
3.48481e-07
3.63543e-07
6.47708e-07
7.29325e-07
7.03722e-07
7.89809e-07
7.16854e-07
8.42845e-07
7.79797e-07
4.02058e-07
4.17855e-07
8.28014e-07
8.25659e-07
8.93238e-07
3.79175e-07
3.22166e-07
3.3982e-07
8.21809e-07
7.80107e-07
8.90945e-07
8.47142e-07
3.62518e-07
3.86692e-07
7.24129e-07
8.11401e-07
7.89279e-07
8.78573e-07
8.01713e-07
9.29302e-07
8.71222e-07
4.16927e-07
4.32726e-07
9.16256e-07
8.95002e-07
9.88483e-07
4.11856e-07
3.38818e-07
3.70047e-07
9.15176e-07
8.67462e-07
9.90895e-07
9.37148e-07
3.8578e-07
4.16289e-07
8.13113e-07
9.00945e-07
8.88022e-07
9.72739e-07
8.95167e-07
1.02807e-06
9.72031e-07
4.31206e-07
4.4299e-07
1.01346e-06
9.68792e-07
1.09231e-06
4.49049e-07
3.69425e-07
4.12308e-07
1.0171e-06
9.63632e-07
1.09826e-06
1.03445e-06
4.15528e-07
4.53509e-07
9.14694e-07
9.96773e-07
1.00259e-06
1.07296e-06
9.98766e-07
1.13564e-06
1.0825e-06
4.40851e-07
4.53713e-07
1.11988e-06
1.05266e-06
1.20492e-06
4.88037e-07
4.12074e-07
4.64992e-07
1.12645e-06
1.05928e-06
1.21203e-06
1.14998e-06
4.52607e-07
4.94545e-07
1.03361e-06
1.09904e-06
1.13073e-06
1.18258e-06
1.10934e-06
1.24821e-06
1.19907e-06
4.51324e-07
4.68822e-07
1.23534e-06
1.15606e-06
1.32736e-06
5.27504e-07
4.64698e-07
5.21129e-07
1.24229e-06
1.18033e-06
1.33635e-06
1.26927e-06
4.93817e-07
5.46e-07
1.1642e-06
1.21295e-06
1.26945e-06
1.30371e-06
1.23009e-06
1.37248e-06
1.32356e-06
4.66358e-07
4.94035e-07
1.36052e-06
1.27681e-06
1.46936e-06
5.69011e-07
5.20698e-07
5.85337e-07
1.36907e-06
1.30255e-06
1.47875e-06
1.40555e-06
5.45109e-07
5.95309e-07
1.30623e-06
1.33644e-06
1.42191e-06
1.44064e-06
1.35653e-06
1.50905e-06
1.45406e-06
4.91977e-07
5.37102e-07
1.50588e-06
1.41515e-06
1.6169e-06
6.15898e-07
5.85226e-07
6.61223e-07
1.51749e-06
1.44059e-06
1.63324e-06
1.55634e-06
5.93755e-07
6.47368e-07
1.46341e-06
1.47686e-06
1.58592e-06
1.59712e-06
1.48888e-06
1.64465e-06
1.604e-06
5.35778e-07
5.99889e-07
1.65807e-06
1.57648e-06
1.78643e-06
6.62921e-07
6.61441e-07
7.52236e-07
1.67538e-06
1.59726e-06
1.82449e-06
1.73486e-06
6.46055e-07
7.15093e-07
1.62628e-06
1.63694e-06
1.76466e-06
1.76228e-06
1.64258e-06
1.78579e-06
1.77143e-06
5.99266e-07
6.82217e-07
1.81313e-06
1.75729e-06
1.86449e-06
7.04891e-07
7.53477e-07
8.58619e-07
1.87609e-06
1.78484e-06
2.01883e-06
1.9334e-06
7.14641e-07
8.05224e-07
1.81567e-06
1.81304e-06
1.96556e-06
1.96286e-06
1.82175e-06
1.95693e-06
1.98346e-06
6.82872e-07
7.92519e-07
1.88691e-06
1.95792e-06
1.98782e-06
7.88691e-07
8.60454e-07
9.87265e-07
2.0691e-06
1.98928e-06
2.21755e-06
2.17486e-06
8.06619e-07
9.40992e-07
2.01893e-06
2.00941e-06
2.19579e-06
2.18752e-06
2.04173e-06
2.17209e-06
2.21994e-06
7.95348e-07
9.41195e-07
2.03439e-06
2.20366e-06
2.19468e-06
9.2547e-07
9.92142e-07
1.17169e-06
2.2651e-06
2.23899e-06
2.45322e-06
2.46754e-06
9.46985e-07
1.14424e-06
2.25514e-06
2.25098e-06
2.46701e-06
2.44661e-06
2.27465e-06
2.42906e-06
2.45896e-06
9.479e-07
1.1487e-06
2.25314e-06
2.48912e-06
2.46574e-06
1.11205e-06
1.18283e-06
1.44144e-06
2.52363e-06
2.54703e-06
2.75988e-06
2.79357e-06
1.15704e-06
1.43238e-06
2.54229e-06
2.51747e-06
2.77967e-06
2.76738e-06
2.52388e-06
2.75397e-06
2.74366e-06
1.16089e-06
1.43257e-06
2.53827e-06
2.81708e-06
2.77739e-06
1.3848e-06
1.46118e-06
1.80919e-06
2.85514e-06
2.88861e-06
3.14632e-06
3.18058e-06
1.45261e-06
1.80146e-06
2.87569e-06
2.87004e-06
3.17413e-06
3.17827e-06
2.83624e-06
3.15531e-06
3.12949e-06
1.45305e-06
1.80446e-06
2.87465e-06
3.20945e-06
3.17397e-06
1.76214e-06
1.83554e-06
2.24197e-06
3.24755e-06
3.28096e-06
3.58685e-06
3.618e-06
1.82787e-06
2.24174e-06
3.27204e-06
3.27755e-06
3.59827e-06
3.60712e-06
3.22971e-06
3.59361e-06
3.56122e-06
1.83074e-06
2.2411e-06
3.27549e-06
3.64742e-06
3.60676e-06
2.20726e-06
2.28545e-06
2.82471e-06
3.71255e-06
3.74433e-06
4.11366e-06
4.14803e-06
2.28765e-06
2.83367e-06
3.72399e-06
3.73216e-06
4.12576e-06
4.12909e-06
3.68537e-06
4.11496e-06
4.08254e-06
2.28931e-06
2.83474e-06
3.72958e-06
4.18112e-06
4.12333e-06
2.79675e-06
2.93568e-06
3.67885e-06
4.25694e-06
4.29133e-06
4.75728e-06
4.78768e-06
2.9454e-06
3.68973e-06
4.26664e-06
4.26995e-06
4.75893e-06
4.7651e-06
4.22504e-06
4.7528e-06
4.72519e-06
2.94792e-06
3.70622e-06
4.2636e-06
4.83878e-06
4.75548e-06
3.65258e-06
3.85162e-06
4.90651e-06
4.94785e-06
4.97724e-06
5.57221e-06
5.60159e-06
3.86249e-06
4.91677e-06
4.95081e-06
4.95666e-06
5.58658e-06
5.58802e-06
4.91661e-06
5.56727e-06
5.5477e-06
3.88338e-06
4.95912e-06
4.94531e-06
5.67136e-06
5.57252e-06
4.88541e-06
5.15819e-06
6.67076e-06
5.80277e-06
5.83156e-06
6.62429e-06
6.64426e-06
5.16874e-06
6.68485e-06
5.81889e-06
5.81935e-06
6.63424e-06
6.6353e-06
5.78167e-06
6.62388e-06
6.61248e-06
5.2133e-06
6.71903e-06
5.80424e-06
6.71649e-06
6.62768e-06
6.66773e-06
7.05266e-06
9.37428e-06
6.95495e-06
6.97097e-06
8.12659e-06
8.13258e-06
7.0679e-06
9.38632e-06
6.96277e-06
6.96387e-06
8.13721e-06
8.13497e-06
6.94509e-06
8.12931e-06
8.11829e-06
7.09696e-06
9.39964e-06
6.95888e-06
8.18527e-06
8.13069e-06
9.37977e-06
9.945e-06
1.30279e-05
8.58126e-06
8.58481e-06
1.02388e-05
1.02376e-05
9.95392e-06
1.30191e-05
8.59421e-06
8.5908e-06
1.02522e-05
1.02506e-05
8.57264e-06
1.02367e-05
1.02296e-05
9.96696e-06
1.30442e-05
8.58446e-06
1.02793e-05
1.02376e-05
1.30163e-05
1.37353e-05
1.72264e-05
1.09043e-05
1.09026e-05
1.31384e-05
1.31369e-05
1.37251e-05
1.72198e-05
1.0916e-05
1.09161e-05
1.31435e-05
1.31475e-05
1.08957e-05
1.31345e-05
1.31329e-05
1.37518e-05
1.7239e-05
1.09023e-05
1.31578e-05
1.31355e-05
1.722e-05
1.7949e-05
2.0968e-05
1.39195e-05
1.39184e-05
1.62605e-05
1.62605e-05
1.79435e-05
2.09658e-05
1.39228e-05
1.39274e-05
1.62605e-05
1.62651e-05
1.39151e-05
1.62574e-05
1.62589e-05
1.79597e-05
2.09726e-05
1.39167e-05
1.62656e-05
1.62586e-05
2.09673e-05
2.15532e-05
2.38165e-05
1.70219e-05
1.70222e-05
1.91138e-05
1.91142e-05
2.15513e-05
2.38151e-05
1.70214e-05
1.70257e-05
1.91125e-05
1.91158e-05
1.70211e-05
1.91112e-05
1.91143e-05
2.15569e-05
2.38182e-05
1.70204e-05
1.91144e-05
1.9113e-05
2.38176e-05
2.42299e-05
2.55275e-05
1.97104e-05
1.97109e-05
2.10937e-05
2.10941e-05
2.42286e-05
2.5526e-05
1.97091e-05
1.97121e-05
2.10924e-05
2.10946e-05
1.97112e-05
2.10914e-05
2.10946e-05
2.42311e-05
2.55278e-05
1.97098e-05
2.10933e-05
2.10935e-05
2.55285e-05
2.57462e-05
2.61611e-05
2.14086e-05
2.1409e-05
2.19803e-05
2.19806e-05
2.57448e-05
2.61598e-05
2.14074e-05
2.14094e-05
2.19791e-05
2.19807e-05
2.14096e-05
2.1978e-05
2.19816e-05
2.57463e-05
2.61615e-05
2.14085e-05
2.198e-05
2.19805e-05
2.61628e-05
2.62383e-05
2.63271e-05
2.20828e-05
2.20831e-05
2.2247e-05
2.22473e-05
2.6237e-05
2.63257e-05
2.20818e-05
2.20832e-05
2.22461e-05
2.22474e-05
2.20842e-05
2.22449e-05
2.22483e-05
2.62386e-05
2.63272e-05
2.20831e-05
2.22467e-05
2.22474e-05
2.63285e-05
2.63682e-05
2.6367e-05
2.22725e-05
2.22727e-05
2.23098e-05
2.23101e-05
2.63668e-05
2.63656e-05
2.22716e-05
2.22728e-05
2.23089e-05
2.23101e-05
2.22738e-05
2.23077e-05
2.2311e-05
2.63682e-05
2.6367e-05
2.22728e-05
2.23094e-05
2.231e-05
2.63682e-05
2.63989e-05
2.63777e-05
2.23153e-05
2.23155e-05
2.23225e-05
2.23229e-05
2.63975e-05
2.63762e-05
2.23144e-05
2.23156e-05
2.23217e-05
2.23229e-05
2.23164e-05
2.23204e-05
2.23236e-05
2.63987e-05
2.63776e-05
2.23155e-05
2.23222e-05
2.23226e-05
2.63787e-05
2.6407e-05
2.63739e-05
2.23232e-05
2.23235e-05
2.23238e-05
2.23241e-05
2.64056e-05
2.63724e-05
2.23224e-05
2.23235e-05
2.2323e-05
2.23241e-05
2.23242e-05
2.23217e-05
2.23248e-05
2.64068e-05
2.63739e-05
2.23233e-05
2.23235e-05
2.23238e-05
2.63749e-05
2.64034e-05
2.6376e-05
2.23239e-05
2.23242e-05
2.23242e-05
2.23246e-05
2.64019e-05
2.63745e-05
2.23231e-05
2.23242e-05
2.23235e-05
2.23246e-05
2.23249e-05
2.23221e-05
2.23251e-05
2.64033e-05
2.63759e-05
2.23239e-05
2.23239e-05
2.23242e-05
2.63769e-05
2.64056e-05
2.63754e-05
2.23243e-05
2.23247e-05
2.23244e-05
2.23247e-05
2.64041e-05
2.63739e-05
2.23237e-05
2.23247e-05
2.23237e-05
2.23247e-05
2.23252e-05
2.23223e-05
2.23253e-05
2.64054e-05
2.63754e-05
2.23243e-05
2.2324e-05
2.23243e-05
2.63763e-05
2.64048e-05
2.63758e-05
2.23243e-05
2.23247e-05
2.23244e-05
2.23248e-05
2.64034e-05
2.63743e-05
2.23237e-05
2.23247e-05
2.23238e-05
2.23248e-05
2.23253e-05
2.23223e-05
2.23254e-05
2.64047e-05
2.63758e-05
2.23243e-05
2.23241e-05
2.23244e-05
2.63767e-05
2.64054e-05
2.63758e-05
2.23244e-05
2.23248e-05
2.23246e-05
2.2325e-05
2.64039e-05
2.63743e-05
2.23238e-05
2.23248e-05
2.2324e-05
2.2325e-05
2.23254e-05
2.23225e-05
2.23256e-05
2.64053e-05
2.63758e-05
2.23244e-05
2.23243e-05
2.23246e-05
2.63767e-05
2.64053e-05
2.6376e-05
2.23246e-05
2.2325e-05
2.23247e-05
2.23251e-05
2.64039e-05
2.63745e-05
2.23241e-05
2.2325e-05
2.23242e-05
2.23252e-05
2.23256e-05
2.23227e-05
2.23257e-05
2.64052e-05
2.63761e-05
2.23246e-05
2.23244e-05
2.23247e-05
2.63769e-05
2.64054e-05
2.6376e-05
2.23247e-05
2.23252e-05
2.23248e-05
2.23253e-05
2.64041e-05
2.63745e-05
2.23242e-05
2.23252e-05
2.23242e-05
2.23253e-05
2.23257e-05
2.23228e-05
2.23258e-05
2.64055e-05
2.6376e-05
2.23247e-05
2.23245e-05
2.23248e-05
2.63768e-05
2.64054e-05
2.63761e-05
2.23248e-05
2.23253e-05
2.23248e-05
2.23254e-05
2.64041e-05
2.63745e-05
2.23242e-05
2.23253e-05
2.23244e-05
2.23254e-05
2.23258e-05
2.23229e-05
2.23259e-05
2.64054e-05
2.63761e-05
2.23247e-05
2.23246e-05
2.23249e-05
2.63769e-05
2.64055e-05
2.63763e-05
2.23248e-05
2.23254e-05
2.23248e-05
2.23254e-05
2.64041e-05
2.63747e-05
2.23244e-05
2.23254e-05
2.23244e-05
2.23254e-05
2.23258e-05
2.2323e-05
2.23259e-05
2.64054e-05
2.63761e-05
2.23249e-05
2.23246e-05
2.23249e-05
2.63768e-05
2.64056e-05
2.63761e-05
2.23248e-05
2.23253e-05
2.23248e-05
2.23253e-05
2.64042e-05
2.63746e-05
2.23244e-05
2.23254e-05
2.23244e-05
2.23254e-05
2.23259e-05
2.23229e-05
2.23259e-05
2.64055e-05
2.6376e-05
2.23249e-05
2.23246e-05
2.23249e-05
2.63771e-05
2.64056e-05
2.63762e-05
2.23248e-05
2.23253e-05
2.23248e-05
2.23253e-05
2.64041e-05
2.63748e-05
2.23244e-05
2.23254e-05
2.23244e-05
2.23254e-05
2.23259e-05
2.23229e-05
2.23259e-05
2.64054e-05
2.63762e-05
2.23249e-05
2.23246e-05
2.23249e-05
2.63769e-05
2.64054e-05
2.63765e-05
2.23248e-05
2.23253e-05
2.23248e-05
2.23254e-05
2.64042e-05
2.6375e-05
2.23244e-05
2.23254e-05
2.23245e-05
2.23254e-05
2.23258e-05
2.2323e-05
2.23259e-05
2.64055e-05
2.63763e-05
2.23249e-05
2.23246e-05
2.23249e-05
2.63767e-05
2.64059e-05
2.63761e-05
2.23248e-05
2.23253e-05
2.23249e-05
2.23254e-05
2.64047e-05
2.63742e-05
2.23244e-05
2.23254e-05
2.23245e-05
2.23255e-05
2.23259e-05
2.2323e-05
2.23259e-05
2.64058e-05
2.63757e-05
2.23249e-05
2.23246e-05
2.23249e-05
2.63771e-05
2.64059e-05
2.63753e-05
2.23248e-05
2.23254e-05
2.23249e-05
2.23254e-05
2.64041e-05
2.63738e-05
2.23245e-05
2.23254e-05
2.23244e-05
2.23254e-05
2.23259e-05
2.23229e-05
2.23259e-05
2.64053e-05
2.63756e-05
2.23249e-05
2.23246e-05
2.23249e-05
2.63767e-05
2.64048e-05
2.63758e-05
2.23249e-05
2.23254e-05
2.23249e-05
2.23253e-05
2.64031e-05
2.6375e-05
2.23245e-05
2.23254e-05
2.23244e-05
2.23254e-05
2.23259e-05
2.2323e-05
2.23259e-05
2.64048e-05
2.63762e-05
2.23249e-05
2.23246e-05
2.23249e-05
2.63755e-05
2.64046e-05
2.63771e-05
2.23249e-05
2.23253e-05
2.23249e-05
2.23254e-05
2.64036e-05
2.63761e-05
2.23244e-05
2.23254e-05
2.23244e-05
2.23254e-05
2.23259e-05
2.2323e-05
2.23259e-05
2.64052e-05
2.63767e-05
2.23249e-05
2.23245e-05
2.23249e-05
2.63752e-05
2.64058e-05
2.63773e-05
2.23249e-05
2.23253e-05
2.2325e-05
2.23254e-05
2.64051e-05
2.63756e-05
2.23244e-05
2.23254e-05
2.23244e-05
2.23254e-05
2.23259e-05
2.2323e-05
2.23259e-05
2.64058e-05
2.63763e-05
2.23249e-05
2.23245e-05
2.23249e-05
2.63762e-05
2.64066e-05
2.63767e-05
2.2325e-05
2.23254e-05
2.23251e-05
2.23255e-05
2.64054e-05
2.63745e-05
2.23244e-05
2.23254e-05
2.23244e-05
2.23254e-05
2.23258e-05
2.2323e-05
2.23259e-05
2.64058e-05
2.63761e-05
2.23249e-05
2.23245e-05
2.23249e-05
2.63774e-05
2.64063e-05
2.63764e-05
2.23251e-05
2.23254e-05
2.23251e-05
2.23255e-05
2.64045e-05
2.63744e-05
2.23244e-05
2.23254e-05
2.23243e-05
2.23254e-05
2.23259e-05
2.2323e-05
2.23259e-05
2.64055e-05
2.63763e-05
2.23249e-05
2.23246e-05
2.23248e-05
2.63783e-05
2.6406e-05
2.63763e-05
2.23251e-05
2.23255e-05
2.23252e-05
2.23254e-05
2.6404e-05
2.63748e-05
2.23243e-05
2.23254e-05
2.23243e-05
2.23254e-05
2.23259e-05
2.2323e-05
2.23259e-05
2.64055e-05
2.63765e-05
2.23248e-05
2.23246e-05
2.23249e-05
2.63791e-05
2.6406e-05
2.63763e-05
2.23252e-05
2.23254e-05
2.23252e-05
2.23254e-05
2.64041e-05
2.63753e-05
2.23243e-05
2.23254e-05
2.23243e-05
2.23254e-05
2.23259e-05
2.2323e-05
2.23259e-05
2.64058e-05
2.63766e-05
2.23248e-05
2.23246e-05
2.23249e-05
2.63794e-05
2.64059e-05
2.63765e-05
2.23252e-05
2.23254e-05
2.23253e-05
2.23255e-05
2.64045e-05
2.63754e-05
2.23243e-05
2.23254e-05
2.23243e-05
2.23254e-05
2.23259e-05
2.2323e-05
2.23259e-05
2.6406e-05
2.63766e-05
2.23249e-05
2.23245e-05
2.23249e-05
2.63792e-05
2.6406e-05
2.63766e-05
2.23253e-05
2.23254e-05
2.23253e-05
2.23254e-05
2.64048e-05
2.63753e-05
2.23243e-05
2.23254e-05
2.23243e-05
2.23254e-05
2.23259e-05
2.2323e-05
2.23259e-05
2.64061e-05
2.63765e-05
2.23249e-05
2.23245e-05
2.23248e-05
2.63788e-05
2.64063e-05
2.63766e-05
2.23253e-05
2.23254e-05
2.23254e-05
2.23254e-05
2.64049e-05
2.63753e-05
2.23243e-05
2.23254e-05
2.23243e-05
2.23254e-05
2.23259e-05
2.23231e-05
2.23259e-05
2.64061e-05
2.63764e-05
2.23248e-05
2.23245e-05
2.23248e-05
2.63787e-05
2.64064e-05
2.63766e-05
2.23254e-05
2.23254e-05
2.23254e-05
2.23254e-05
2.6405e-05
2.63752e-05
2.23243e-05
2.23254e-05
2.23243e-05
2.23254e-05
2.23259e-05
2.23231e-05
2.23259e-05
2.64061e-05
2.63764e-05
2.23248e-05
2.23245e-05
2.23248e-05
2.63788e-05
2.64064e-05
2.63765e-05
2.23254e-05
2.23254e-05
2.23255e-05
2.23255e-05
2.6405e-05
2.63751e-05
2.23243e-05
2.23254e-05
2.23243e-05
2.23254e-05
2.23259e-05
2.23231e-05
2.23259e-05
2.64061e-05
2.63763e-05
2.23248e-05
2.23246e-05
2.23248e-05
2.63787e-05
2.64064e-05
2.63764e-05
2.23255e-05
2.23255e-05
2.23255e-05
2.23254e-05
2.6405e-05
2.63751e-05
2.23243e-05
2.23254e-05
2.23243e-05
2.23254e-05
2.23259e-05
2.23231e-05
2.23259e-05
2.64061e-05
2.63762e-05
2.23248e-05
2.23246e-05
2.23247e-05
2.63785e-05
2.64063e-05
2.63764e-05
2.23255e-05
2.23254e-05
2.23255e-05
2.23254e-05
2.64049e-05
2.63751e-05
2.23243e-05
2.23254e-05
2.23243e-05
2.23254e-05
2.23259e-05
2.23231e-05
2.23259e-05
2.64061e-05
2.63761e-05
2.23247e-05
2.23246e-05
2.23247e-05
2.63785e-05
2.64062e-05
2.63765e-05
2.23255e-05
2.23254e-05
2.23255e-05
2.23254e-05
2.64049e-05
2.6375e-05
2.23243e-05
2.23254e-05
2.23243e-05
2.23254e-05
2.23259e-05
2.23231e-05
2.23259e-05
2.6406e-05
2.63761e-05
2.23247e-05
2.23245e-05
2.23247e-05
2.63784e-05
2.64063e-05
2.63766e-05
2.23255e-05
2.23254e-05
2.23255e-05
2.23254e-05
2.64049e-05
2.63749e-05
2.23243e-05
2.23254e-05
2.23243e-05
2.23254e-05
2.23259e-05
2.23231e-05
2.23259e-05
2.64059e-05
2.63762e-05
2.23247e-05
2.23246e-05
2.23247e-05
2.63785e-05
2.64065e-05
2.63767e-05
2.23255e-05
2.23254e-05
2.23255e-05
2.23254e-05
2.64048e-05
2.63749e-05
2.23243e-05
2.23254e-05
2.23242e-05
2.23254e-05
2.23259e-05
2.23231e-05
2.23259e-05
2.64059e-05
2.63763e-05
2.23247e-05
2.23246e-05
2.23247e-05
2.63784e-05
2.64066e-05
2.63765e-05
2.23255e-05
2.23254e-05
2.23255e-05
2.23254e-05
2.64048e-05
2.6375e-05
2.23243e-05
2.23254e-05
2.23242e-05
2.23254e-05
2.23259e-05
2.23231e-05
2.23259e-05
2.6406e-05
2.63763e-05
2.23247e-05
2.23245e-05
2.23247e-05
2.63781e-05
2.64065e-05
2.63764e-05
2.23255e-05
2.23254e-05
2.23255e-05
2.23254e-05
2.64048e-05
2.63751e-05
2.23243e-05
2.23254e-05
2.23242e-05
2.23254e-05
2.23259e-05
2.23231e-05
2.23259e-05
2.64061e-05
2.63763e-05
2.23246e-05
2.23245e-05
2.23247e-05
2.63779e-05
2.64064e-05
2.63764e-05
2.23255e-05
2.23254e-05
2.23255e-05
2.23254e-05
2.64049e-05
2.63751e-05
2.23242e-05
2.23254e-05
2.23242e-05
2.23254e-05
2.23259e-05
2.23231e-05
2.23259e-05
2.64061e-05
2.63763e-05
2.23246e-05
2.23245e-05
2.23247e-05
2.63783e-05
2.64064e-05
2.63764e-05
2.23255e-05
2.23254e-05
2.23255e-05
2.23254e-05
2.6405e-05
2.6375e-05
2.23242e-05
2.23254e-05
2.23242e-05
2.23254e-05
2.23259e-05
2.23231e-05
2.23258e-05
2.64061e-05
2.63762e-05
2.23247e-05
2.23246e-05
2.23246e-05
2.63787e-05
2.64063e-05
2.63763e-05
2.23255e-05
2.23254e-05
2.23255e-05
2.23254e-05
2.64049e-05
2.6375e-05
2.23242e-05
2.23254e-05
2.23242e-05
2.23254e-05
2.23258e-05
2.23231e-05
2.23259e-05
2.6406e-05
2.6376e-05
2.23246e-05
2.23245e-05
2.23246e-05
2.63788e-05
2.64062e-05
2.63764e-05
2.23255e-05
2.23254e-05
2.23255e-05
2.23254e-05
2.64049e-05
2.6375e-05
2.23242e-05
2.23254e-05
2.23242e-05
2.23254e-05
2.23258e-05
2.23231e-05
2.23258e-05
2.64059e-05
2.63761e-05
2.23246e-05
2.23245e-05
2.23246e-05
2.63786e-05
2.64062e-05
2.63765e-05
2.23255e-05
2.23255e-05
2.23255e-05
2.23254e-05
2.64049e-05
2.63749e-05
2.23242e-05
2.23254e-05
2.23242e-05
2.23254e-05
2.23258e-05
2.23231e-05
2.23258e-05
2.64058e-05
2.63763e-05
2.23246e-05
2.23245e-05
2.23246e-05
2.63783e-05
2.64063e-05
2.63766e-05
2.23255e-05
2.23254e-05
2.23255e-05
2.23254e-05
2.64049e-05
2.63748e-05
2.23242e-05
2.23254e-05
2.23242e-05
2.23254e-05
2.23258e-05
2.23231e-05
2.23258e-05
2.6406e-05
2.63764e-05
2.23246e-05
2.23245e-05
2.23246e-05
2.63783e-05
2.64064e-05
2.63766e-05
2.23255e-05
2.23254e-05
2.23255e-05
2.23254e-05
2.64048e-05
2.63749e-05
2.23242e-05
2.23254e-05
2.23242e-05
2.23254e-05
2.23259e-05
2.23231e-05
2.23258e-05
2.64061e-05
2.63764e-05
2.23246e-05
2.23245e-05
2.23246e-05
2.63784e-05
2.64065e-05
2.63765e-05
2.23255e-05
2.23254e-05
2.23255e-05
2.23254e-05
2.64047e-05
2.6375e-05
2.23242e-05
2.23254e-05
2.23242e-05
2.23254e-05
2.23259e-05
2.23231e-05
2.23258e-05
2.64062e-05
2.63763e-05
2.23246e-05
2.23245e-05
2.23246e-05
2.63783e-05
2.64064e-05
2.63764e-05
2.23255e-05
2.23254e-05
2.23255e-05
2.23254e-05
2.64049e-05
2.6375e-05
2.23242e-05
2.23254e-05
2.23241e-05
2.23254e-05
2.23258e-05
2.2323e-05
2.23259e-05
2.64062e-05
2.63761e-05
2.23246e-05
2.23245e-05
2.23246e-05
2.63781e-05
2.64063e-05
2.63765e-05
2.23256e-05
2.23255e-05
2.23255e-05
2.23254e-05
2.64049e-05
2.63748e-05
2.23242e-05
2.23254e-05
2.23241e-05
2.23254e-05
2.23259e-05
2.2323e-05
2.23259e-05
2.6406e-05
2.6376e-05
2.23246e-05
2.23244e-05
2.23246e-05
2.63783e-05
2.64063e-05
2.63766e-05
2.23255e-05
2.23254e-05
2.23255e-05
2.23254e-05
2.64048e-05
2.63747e-05
2.23242e-05
2.23254e-05
2.23242e-05
2.23254e-05
2.23259e-05
2.2323e-05
2.23258e-05
2.64058e-05
2.63761e-05
2.23246e-05
2.23244e-05
2.23246e-05
2.63785e-05
2.64064e-05
2.63766e-05
2.23255e-05
2.23254e-05
2.23255e-05
2.23254e-05
2.64046e-05
2.63748e-05
2.23242e-05
2.23254e-05
2.23241e-05
2.23253e-05
2.23259e-05
2.2323e-05
2.23258e-05
2.64058e-05
2.63764e-05
2.23246e-05
2.23244e-05
2.23246e-05
2.63786e-05
2.64065e-05
2.63766e-05
2.23255e-05
2.23254e-05
2.23255e-05
2.23254e-05
2.64046e-05
2.6375e-05
2.23242e-05
2.23254e-05
2.23241e-05
2.23253e-05
2.23258e-05
2.2323e-05
2.23258e-05
2.64061e-05
2.63763e-05
2.23246e-05
2.23244e-05
2.23246e-05
2.63785e-05
2.64065e-05
2.63765e-05
2.23255e-05
2.23254e-05
2.23254e-05
2.23253e-05
2.64047e-05
2.63752e-05
2.23242e-05
2.23254e-05
2.23241e-05
2.23253e-05
2.23258e-05
2.2323e-05
2.23258e-05
2.64062e-05
2.63759e-05
2.23246e-05
2.23243e-05
2.23245e-05
2.63783e-05
2.64064e-05
2.63765e-05
2.23255e-05
2.23254e-05
2.23254e-05
2.23253e-05
2.6405e-05
2.63751e-05
2.23241e-05
2.23253e-05
2.23241e-05
2.23253e-05
2.23258e-05
2.23229e-05
2.23258e-05
2.64059e-05
2.63759e-05
2.23246e-05
2.23243e-05
2.23245e-05
2.63784e-05
2.64065e-05
2.63765e-05
2.23255e-05
2.23254e-05
2.23254e-05
2.23253e-05
2.6405e-05
2.63749e-05
2.23241e-05
2.23254e-05
2.23241e-05
2.23252e-05
2.23258e-05
2.23229e-05
2.23257e-05
2.64056e-05
2.63762e-05
2.23246e-05
2.23243e-05
2.23245e-05
2.63784e-05
2.64065e-05
2.63764e-05
2.23255e-05
2.23254e-05
2.23254e-05
2.23253e-05
2.64049e-05
2.63748e-05
2.23242e-05
2.23254e-05
2.23241e-05
2.23252e-05
2.23259e-05
2.23229e-05
2.23257e-05
2.64058e-05
2.63764e-05
2.23246e-05
2.23243e-05
2.23245e-05
2.63782e-05
2.64064e-05
2.63763e-05
2.23256e-05
2.23255e-05
2.23254e-05
2.23253e-05
2.64048e-05
2.63748e-05
2.23242e-05
2.23254e-05
2.2324e-05
2.23252e-05
2.23259e-05
2.23229e-05
2.23257e-05
2.64061e-05
2.63763e-05
2.23246e-05
2.23243e-05
2.23245e-05
2.63781e-05
2.64063e-05
2.63764e-05
2.23257e-05
2.23255e-05
2.23254e-05
2.23253e-05
2.64047e-05
2.6375e-05
2.23243e-05
2.23255e-05
2.2324e-05
2.23252e-05
2.23259e-05
2.23229e-05
2.23257e-05
2.64061e-05
2.63762e-05
2.23247e-05
2.23243e-05
2.23244e-05
2.63785e-05
2.64063e-05
2.63765e-05
2.23257e-05
2.23256e-05
2.23254e-05
2.23253e-05
2.64049e-05
2.63751e-05
2.23244e-05
2.23255e-05
2.2324e-05
2.23252e-05
2.2326e-05
2.23229e-05
2.23257e-05
2.64059e-05
2.63764e-05
2.23247e-05
2.23242e-05
2.23244e-05
2.63786e-05
2.64064e-05
2.63765e-05
2.23258e-05
2.23257e-05
2.23253e-05
2.23252e-05
2.64051e-05
2.63749e-05
2.23244e-05
2.23256e-05
2.2324e-05
2.23252e-05
2.23261e-05
2.23229e-05
2.23257e-05
2.64061e-05
2.63765e-05
2.23248e-05
2.23242e-05
2.23244e-05
2.63786e-05
2.64064e-05
2.63765e-05
2.23259e-05
2.23258e-05
2.23253e-05
2.23252e-05
2.6405e-05
2.63748e-05
2.23245e-05
2.23257e-05
2.2324e-05
2.23252e-05
2.23262e-05
2.23228e-05
2.23256e-05
2.64064e-05
2.63763e-05
2.23249e-05
2.23241e-05
2.23244e-05
2.63786e-05
2.64065e-05
2.63767e-05
2.2326e-05
2.23259e-05
2.23253e-05
2.23252e-05
2.64049e-05
2.6375e-05
2.23247e-05
2.23259e-05
2.23239e-05
2.23251e-05
2.23263e-05
2.23228e-05
2.23256e-05
2.64063e-05
2.6376e-05
2.2325e-05
2.23241e-05
2.23243e-05
2.63786e-05
2.64066e-05
2.63767e-05
2.23262e-05
2.23261e-05
2.23252e-05
2.23251e-05
2.6405e-05
2.63751e-05
2.23248e-05
2.2326e-05
2.23239e-05
2.2325e-05
2.23265e-05
2.23227e-05
2.23255e-05
2.6406e-05
2.6376e-05
2.23252e-05
2.2324e-05
2.23242e-05
2.63783e-05
2.64067e-05
2.63766e-05
2.23264e-05
2.23263e-05
2.23252e-05
2.23251e-05
2.6405e-05
2.6375e-05
2.23251e-05
2.23262e-05
2.23239e-05
2.2325e-05
2.23267e-05
2.23226e-05
2.23255e-05
2.64058e-05
2.63762e-05
2.23254e-05
2.23239e-05
2.23242e-05
2.63785e-05
2.64066e-05
2.63766e-05
2.23267e-05
2.23266e-05
2.23252e-05
2.23251e-05
2.6405e-05
2.6375e-05
2.23254e-05
2.23265e-05
2.23239e-05
2.2325e-05
2.2327e-05
2.23227e-05
2.23255e-05
2.64058e-05
2.63763e-05
2.23257e-05
2.23239e-05
2.23242e-05
2.63788e-05
2.64066e-05
2.63766e-05
2.23272e-05
2.23271e-05
2.23253e-05
2.23252e-05
2.64049e-05
2.63752e-05
2.23259e-05
2.2327e-05
2.2324e-05
2.23251e-05
2.23275e-05
2.23228e-05
2.23257e-05
2.64059e-05
2.63766e-05
2.23262e-05
2.23241e-05
2.23243e-05
2.6379e-05
2.64065e-05
2.6377e-05
2.2328e-05
2.23278e-05
2.23257e-05
2.23256e-05
2.6405e-05
2.63756e-05
2.23266e-05
2.23278e-05
2.23244e-05
2.23256e-05
2.23283e-05
2.23232e-05
2.2326e-05
2.64061e-05
2.6377e-05
2.23269e-05
2.23245e-05
2.23247e-05
2.63789e-05
2.64063e-05
2.63751e-05
2.23291e-05
2.23289e-05
2.23209e-05
2.23208e-05
2.64049e-05
2.63736e-05
2.23278e-05
2.23289e-05
2.23196e-05
2.23207e-05
2.23293e-05
2.23185e-05
2.23212e-05
2.64061e-05
2.63751e-05
2.2328e-05
2.23196e-05
2.23197e-05
2.63755e-05
2.64018e-05
2.60948e-05
2.23253e-05
2.23251e-05
2.20179e-05
2.20178e-05
2.64005e-05
2.60937e-05
2.23239e-05
2.23251e-05
2.20176e-05
2.20168e-05
2.23255e-05
2.20172e-05
2.20178e-05
2.64017e-05
2.60942e-05
2.2324e-05
2.20173e-05
2.20174e-05
2.60945e-05
2.57599e-05
2.16368e-05
2.16366e-05
2.57591e-05
2.16368e-05
2.16356e-05
1.5897e-05
1.58966e-05
1.58968e-05
2.16367e-05
2.57594e-05
2.16366e-05
1.04787e-05
2.29248e-06
7.40308e-06
7.39555e-06
7.85513e-08
5.08455e-07
4.6872e-07
4.78092e-06
7.67159e-08
5.36646e-07
4.77922e-06
5.17853e-07
3.52401e-07
1.1496e-07
2.91695e-07
2.77211e-07
5.05677e-06
2.15073e-07
6.74761e-06
1.40652e-05
2.13862e-05
2.72505e-07
4.84004e-06
2.11798e-07
6.22206e-06
4.61611e-06
4.61844e-06
4.64469e-06
4.63065e-06
4.63659e-06
4.63819e-06
4.66476e-06
7.84273e-08
8.34154e-07
2.31324e-06
6.80035e-07
7.8894e-08
8.06791e-07
2.30497e-06
1.36605e-05
2.10611e-05
7.64782e-08
2.31322e-06
7.63723e-07
6.73277e-07
7.67598e-08
2.30434e-06
7.35703e-07
1.66583e-06
1.89346e-06
3.38721e-07
1.69524e-06
1.87069e-06
4.8737e-07
9.88962e-06
3.67738e-07
1.26301e-05
3.70438e-05
4.67821e-05
4.81189e-07
9.59672e-06
3.65433e-07
1.19233e-05
4.67655e-06