/*--------------------------------*- C++ -*----------------------------------*\
| =========                 |                                                 |
| \\      /  F ield         | OpenFOAM: The Open Source CFD Toolbox           |
|  \\    /   O peration     | Version:  v2012                                 |
|   \\  /    A nd           | Website:  www.openfoam.com                      |
|    \\/     M anipulation  |                                                 |
\*---------------------------------------------------------------------------*/
FoamFile
{
    version     2.0;
    format      ascii;
    class       volScalarField;
    location    "112.5";
    object      nut;
}
// * * * * * * * * * * * * * * * * * * * * * * * * * * * * * * * * * * * * * //

dimensions      [0 2 -1 0 0 0 0];


internalField   nonuniform List<scalar> 
171728
(
4.2646e-05
4.67893e-06
5.06779e-06
1.86269e-06
4.33749e-05
5.23959e-06
5.67016e-06
1.94249e-06
4.49556e-05
6.09246e-06
6.52421e-06
2.14808e-06
4.64421e-05
7.06903e-06
7.42608e-06
2.43992e-06
4.7863e-05
8.17952e-06
8.28723e-06
2.80396e-06
4.92392e-05
9.44684e-06
9.18095e-06
3.20173e-06
5.05899e-05
1.07891e-05
1.01604e-05
3.61932e-06
5.19071e-05
1.21422e-05
1.12685e-05
4.05754e-06
5.32061e-05
1.35904e-05
1.25967e-05
4.55503e-06
5.45035e-05
1.51206e-05
1.39907e-05
5.1857e-06
5.57297e-05
1.65084e-05
1.56051e-05
5.90394e-06
5.70491e-05
1.7922e-05
1.73516e-05
6.55922e-06
5.83017e-05
1.95295e-05
1.92669e-05
7.52263e-06
5.95862e-05
2.14867e-05
2.14514e-05
8.91062e-06
6.11047e-05
2.37855e-05
2.40212e-05
1.06245e-05
6.26459e-05
2.66031e-05
2.6766e-05
1.28334e-05
6.41531e-05
2.96495e-05
2.96519e-05
1.55204e-05
6.5823e-05
3.27911e-05
3.27668e-05
1.8142e-05
6.77659e-05
3.59833e-05
3.6093e-05
2.14599e-05
7.02604e-05
3.98531e-05
3.98382e-05
2.51286e-05
7.31701e-05
4.3947e-05
4.3976e-05
2.99156e-05
7.67934e-05
4.89334e-05
4.9217e-05
3.63096e-05
8.05837e-05
5.43526e-05
5.45638e-05
4.54079e-05
8.55401e-05
6.19385e-05
6.21063e-05
5.71905e-05
9.17023e-05
7.25062e-05
7.25977e-05
7.08709e-05
9.83813e-05
8.42001e-05
8.42263e-05
8.29514e-05
0.000106068
9.54012e-05
9.54061e-05
9.27889e-05
0.000112835
0.000103253
0.000103252
9.9125e-05
0.000116531
0.000106647
0.000106646
0.000101265
0.000117854
0.000107672
0.000107671
0.000101887
0.000118197
0.000107913
0.000107911
0.000102025
0.000118266
0.000107958
0.000107957
0.000102081
0.000118276
0.000107963
0.000107962
0.00010206
0.000118279
0.000107966
0.000107965
0.000102071
0.000118279
0.000107965
0.000107964
0.000102067
0.00011828
0.000107966
0.000107965
0.00010207
0.000118282
0.000107967
0.000107965
0.000102069
0.000118283
0.000107968
0.000107966
0.00010207
0.000118283
0.000107968
0.000107967
0.00010207
0.000118284
0.000107969
0.000107967
0.00010207
0.000118284
0.000107969
0.000107967
0.00010207
0.000118284
0.000107969
0.000107967
0.00010207
0.000118285
0.00010797
0.000107967
0.00010207
0.000118285
0.00010797
0.000107967
0.000102069
0.000118286
0.00010797
0.000107967
0.000102071
0.000118286
0.00010797
0.000107967
0.000102073
0.000118286
0.00010797
0.000107967
0.000102071
0.000118286
0.00010797
0.000107967
0.000102069
0.000118285
0.00010797
0.000107966
0.000102068
0.000118285
0.000107971
0.000107966
0.000102069
0.000118286
0.000107971
0.000107966
0.000102069
0.000118286
0.000107971
0.000107966
0.000102068
0.000118286
0.000107971
0.000107967
0.000102068
0.000118286
0.000107971
0.000107967
0.000102067
0.000118286
0.000107971
0.000107967
0.000102064
0.000118286
0.000107971
0.000107967
0.000102061
0.000118286
0.000107971
0.000107967
0.000102061
0.000118287
0.000107971
0.000107967
0.000102061
0.000118287
0.000107971
0.000107967
0.000102061
0.000118286
0.000107971
0.000107967
0.000102061
0.000118286
0.000107971
0.000107967
0.000102061
0.000118286
0.000107971
0.000107967
0.000102061
0.000118286
0.000107971
0.000107967
0.000102061
0.000118286
0.000107971
0.000107967
0.00010206
0.000118286
0.000107971
0.000107967
0.000102059
0.000118286
0.000107971
0.000107967
0.000102059
0.000118287
0.000107971
0.000107967
0.00010206
0.000118287
0.000107971
0.000107967
0.000102061
0.000118287
0.000107971
0.000107967
0.000102061
0.000118286
0.000107971
0.000107967
0.000102061
0.000118286
0.000107971
0.000107967
0.00010206
0.000118286
0.000107971
0.000107966
0.000102061
0.000118286
0.000107971
0.000107966
0.000102061
0.000118286
0.000107971
0.000107966
0.00010206
0.000118286
0.000107971
0.000107966
0.000102059
0.000118286
0.000107971
0.000107966
0.000102059
0.000118286
0.000107971
0.000107966
0.00010206
0.000118286
0.000107971
0.000107966
0.00010206
0.000118286
0.000107971
0.000107966
0.00010206
0.000118286
0.000107971
0.000107966
0.000102061
0.000118286
0.000107971
0.000107966
0.000102062
0.000118287
0.000107971
0.000107967
0.000102062
0.000118287
0.000107972
0.000107967
0.00010206
0.000118287
0.000107972
0.000107967
0.00010206
0.000118287
0.000107973
0.000107968
0.00010206
0.000118287
0.000107973
0.000107968
0.00010206
0.000118287
0.000107974
0.000107969
0.000102061
0.000118288
0.000107975
0.00010797
0.000102062
0.000118288
0.000107977
0.000107972
0.000102063
0.000118288
0.00010798
0.000107975
0.000102063
0.000118289
0.000107985
0.00010798
0.000102065
0.00011829
0.000107995
0.00010799
0.000102069
0.000118292
0.000108012
0.000108007
0.000102074
0.000118284
0.000108
0.000107995
0.000102081
0.000119113
0.000108146
0.000108142
0.000102508
2.01939e-06
3.11395e-06
2.92565e-06
2.0074e-06
3.13472e-06
3.87957e-06
4.33588e-05
4.34386e-05
4.35589e-05
4.32914e-05
3.36751e-06
2.87093e-06
2.29492e-06
3.71441e-06
3.10689e-06
1.87059e-06
1.99823e-06
1.934e-06
4.5783e-06
4.24146e-06
4.94471e-06
4.60303e-06
1.99205e-06
2.01497e-06
4.59318e-06
5.13182e-06
4.83363e-06
5.49103e-06
4.27675e-06
5.04792e-06
4.61173e-06
2.29477e-06
2.41702e-06
4.53753e-06
5.46379e-06
4.86784e-06
1.93836e-06
1.91333e-06
1.93437e-06
5.12877e-06
4.80479e-06
5.71425e-06
5.43365e-06
2.02072e-06
2.14741e-06
4.97655e-06
5.6955e-06
5.49069e-06
6.34061e-06
4.79498e-06
5.86567e-06
5.39074e-06
2.43624e-06
2.68428e-06
5.04553e-06
6.30847e-06
5.62132e-06
2.14721e-06
1.93108e-06
2.0504e-06
5.93365e-06
5.67405e-06
6.64295e-06
6.3909e-06
2.15331e-06
2.38125e-06
5.6958e-06
6.57781e-06
6.3635e-06
7.32941e-06
5.61223e-06
6.81096e-06
6.32562e-06
2.70428e-06
3.02958e-06
5.82351e-06
7.2015e-06
6.44443e-06
2.4385e-06
2.04909e-06
2.29135e-06
6.90094e-06
6.63847e-06
7.71832e-06
7.4548e-06
2.38317e-06
2.70821e-06
6.60596e-06
7.59492e-06
7.34886e-06
8.40745e-06
6.5704e-06
7.90243e-06
7.33847e-06
3.04622e-06
3.36278e-06
6.65892e-06
8.086e-06
7.33424e-06
2.80266e-06
2.28811e-06
2.67288e-06
8.00091e-06
7.70358e-06
8.85863e-06
8.52991e-06
2.70597e-06
3.10513e-06
7.61568e-06
8.67466e-06
8.44647e-06
9.50982e-06
7.60251e-06
9.12753e-06
8.44425e-06
3.36791e-06
3.614e-06
7.56597e-06
8.95803e-06
8.28827e-06
3.20326e-06
2.67146e-06
3.18645e-06
9.15164e-06
8.84284e-06
1.00356e-05
9.66572e-06
3.10349e-06
3.59426e-06
8.73704e-06
9.78546e-06
9.69472e-06
1.06275e-05
8.73601e-06
1.04457e-05
9.61927e-06
3.60565e-06
3.8429e-06
8.53871e-06
9.89088e-06
9.29247e-06
3.62435e-06
3.18799e-06
3.81758e-06
1.0338e-05
9.94668e-06
1.12305e-05
1.09482e-05
3.59094e-06
4.16669e-06
1.00368e-05
1.09092e-05
1.10798e-05
1.18005e-05
9.89484e-06
1.17877e-05
1.07999e-05
3.82422e-06
4.11011e-06
9.56466e-06
1.09931e-05
1.04065e-05
4.06685e-06
3.81577e-06
4.49001e-06
1.15433e-05
1.12714e-05
1.2505e-05
1.22116e-05
4.16374e-06
4.84833e-06
1.14293e-05
1.21195e-05
1.25066e-05
1.30384e-05
1.11092e-05
1.32155e-05
1.20141e-05
4.08648e-06
4.46403e-06
1.07254e-05
1.22435e-05
1.18195e-05
4.56527e-06
4.48466e-06
5.25901e-06
1.28346e-05
1.25595e-05
1.39498e-05
1.36119e-05
4.8399e-06
5.51491e-06
1.28819e-05
1.3357e-05
1.40639e-05
1.43719e-05
1.23212e-05
1.47513e-05
1.32229e-05
4.43883e-06
4.9981e-06
1.21995e-05
1.3631e-05
1.3454e-05
5.19593e-06
5.25356e-06
6.15731e-06
1.43412e-05
1.39562e-05
1.55022e-05
1.50899e-05
5.49635e-06
6.17172e-06
1.44776e-05
1.47222e-05
1.56739e-05
1.58495e-05
1.35467e-05
1.61848e-05
1.46188e-05
4.97809e-06
5.72561e-06
1.39817e-05
1.52063e-05
1.58706e-05
5.91768e-06
6.15041e-06
7.19895e-06
1.59289e-05
1.54883e-05
1.74422e-05
1.67988e-05
6.14843e-06
6.93108e-06
1.60622e-05
1.62277e-05
1.73752e-05
1.7371e-05
1.49783e-05
1.75449e-05
1.61753e-05
5.70672e-06
6.62275e-06
1.62903e-05
1.69005e-05
1.71136e-05
6.59021e-06
7.19587e-06
8.33915e-06
1.7962e-05
1.7261e-05
1.93628e-05
1.86093e-05
6.90686e-06
7.84801e-06
1.78519e-05
1.78166e-05
1.92264e-05
1.92459e-05
1.66444e-05
1.91009e-05
1.82175e-05
6.60844e-06
7.74329e-06
1.74865e-05
1.87339e-05
1.8961e-05
7.51822e-06
8.32957e-06
9.63681e-06
1.98526e-05
1.91131e-05
2.12166e-05
2.07702e-05
7.83076e-06
9.20526e-06
1.96996e-05
1.96219e-05
2.12711e-05
2.11474e-05
1.87757e-05
2.10125e-05
2.0506e-05
7.74166e-06
9.21984e-06
1.94502e-05
2.09259e-05
2.09676e-05
8.9683e-06
9.52671e-06
1.12835e-05
2.16071e-05
2.13267e-05
2.32243e-05
2.33156e-05
9.11565e-06
1.10941e-05
2.17765e-05
2.17515e-05
2.35841e-05
2.34028e-05
2.10374e-05
2.31523e-05
2.28121e-05
9.14297e-06
1.11151e-05
2.1484e-05
2.33709e-05
2.33428e-05
1.07763e-05
1.11236e-05
1.34934e-05
2.38432e-05
2.39816e-05
2.58462e-05
2.5967e-05
1.09417e-05
1.34744e-05
2.4218e-05
2.39134e-05
2.60701e-05
2.5806e-05
2.34133e-05
2.58026e-05
2.53331e-05
1.09527e-05
1.34702e-05
2.3944e-05
2.59954e-05
2.58679e-05
1.30247e-05
1.33001e-05
1.61833e-05
2.66422e-05
2.67273e-05
2.88084e-05
2.88942e-05
1.32626e-05
1.61073e-05
2.68215e-05
2.66665e-05
2.90516e-05
2.9135e-05
2.61749e-05
2.89367e-05
2.86356e-05
1.32673e-05
1.61028e-05
2.66678e-05
2.89499e-05
2.88859e-05
1.58123e-05
1.58836e-05
1.86326e-05
2.95237e-05
2.96039e-05
3.18623e-05
3.19317e-05
1.58068e-05
1.86307e-05
2.97271e-05
2.98391e-05
3.19012e-05
3.20493e-05
2.93577e-05
3.19729e-05
3.16005e-05
1.57968e-05
1.85711e-05
2.95928e-05
3.19381e-05
3.18807e-05
1.84077e-05
1.83621e-05
2.13099e-05
3.26708e-05
3.27519e-05
3.51221e-05
3.52172e-05
1.83846e-05
2.13419e-05
3.27255e-05
3.28471e-05
3.51682e-05
3.518e-05
3.24296e-05
3.51783e-05
3.49787e-05
1.83692e-05
2.13294e-05
3.26737e-05
3.52725e-05
3.50902e-05
2.11599e-05
2.16023e-05
2.46998e-05
3.59499e-05
3.60268e-05
3.87426e-05
3.87592e-05
2.16281e-05
2.47351e-05
3.59583e-05
3.59643e-05
3.86943e-05
3.87339e-05
3.58276e-05
3.88046e-05
3.86754e-05
2.16362e-05
2.48324e-05
3.59152e-05
3.88252e-05
3.87395e-05
2.46186e-05
2.52155e-05
2.92595e-05
3.97775e-05
3.97799e-05
4.28494e-05
4.28674e-05
2.52584e-05
2.92894e-05
3.97412e-05
3.97817e-05
4.28881e-05
4.28999e-05
3.97155e-05
4.29133e-05
4.27656e-05
2.53679e-05
2.94463e-05
3.97804e-05
4.28823e-05
4.28488e-05
2.91568e-05
3.00158e-05
3.524e-05
4.39047e-05
4.39498e-05
4.75527e-05
4.76665e-05
3.00405e-05
3.5266e-05
4.39609e-05
4.39711e-05
4.7584e-05
4.76364e-05
4.38174e-05
4.75685e-05
4.74982e-05
3.02051e-05
3.54487e-05
4.3901e-05
4.78198e-05
4.75528e-05
3.51829e-05
3.63525e-05
4.37727e-05
4.89223e-05
4.90347e-05
5.2956e-05
5.29975e-05
3.63841e-05
4.38026e-05
4.89293e-05
4.89936e-05
5.2931e-05
5.29825e-05
4.88807e-05
5.29655e-05
5.29198e-05
3.65609e-05
4.39097e-05
4.89264e-05
5.32002e-05
5.29638e-05
4.37664e-05
4.54197e-05
5.5133e-05
5.43493e-05
5.43654e-05
5.96929e-05
5.96705e-05
4.54385e-05
5.50896e-05
5.43366e-05
5.43734e-05
5.97263e-05
5.97331e-05
5.43076e-05
5.96874e-05
5.96414e-05
4.55372e-05
5.52046e-05
5.43554e-05
5.98664e-05
5.96858e-05
5.50743e-05
5.72518e-05
6.86812e-05
6.19487e-05
6.19227e-05
6.97198e-05
6.96991e-05
5.72044e-05
6.86537e-05
6.19872e-05
6.19909e-05
6.97512e-05
6.97556e-05
6.18995e-05
6.97147e-05
6.96874e-05
5.73233e-05
6.87326e-05
6.19383e-05
6.98274e-05
6.97108e-05
6.86464e-05
7.09008e-05
8.10813e-05
7.25113e-05
7.24942e-05
8.12208e-05
8.12083e-05
7.08785e-05
8.10756e-05
7.25378e-05
7.25419e-05
8.12313e-05
8.12305e-05
7.24856e-05
8.12241e-05
8.12094e-05
7.0945e-05
8.10976e-05
7.25049e-05
8.12614e-05
8.12194e-05
8.10712e-05
8.29596e-05
9.13724e-05
8.41969e-05
8.41856e-05
9.28034e-05
9.27935e-05
8.29557e-05
9.13721e-05
8.42045e-05
8.42015e-05
9.28068e-05
9.27976e-05
8.41892e-05
9.28116e-05
9.28032e-05
8.29723e-05
9.13749e-05
8.41975e-05
9.28195e-05
9.28085e-05
9.13714e-05
9.27901e-05
9.83181e-05
9.5393e-05
9.53834e-05
0.000101724
0.000101714
9.27899e-05
9.83181e-05
9.53967e-05
9.53854e-05
0.000101728
0.000101713
9.53942e-05
0.000101736
0.000101726
9.27913e-05
9.83133e-05
9.53993e-05
0.000101735
0.000101733
9.83154e-05
9.91282e-05
0.00010107
0.000103242
0.000103232
0.000106099
0.000106088
9.91281e-05
0.00010107
0.000103246
0.00010323
0.000106104
0.000106085
0.000103244
0.000106111
0.000106103
9.91232e-05
0.000101068
0.000103251
0.00010611
0.000106109
0.000101072
0.000101263
0.000101854
0.000106635
0.000106624
0.000107519
0.000107508
0.000101263
0.000101854
0.000106641
0.000106621
0.000107525
0.000107505
0.000106639
0.000107532
0.000107523
0.00010126
0.000101851
0.000106646
0.000107531
0.00010753
0.000101855
0.000101887
0.000102041
0.000107659
0.000107648
0.000107868
0.000107857
0.000101886
0.000102041
0.000107666
0.000107645
0.000107874
0.000107853
0.000107663
0.000107881
0.000107871
0.000101883
0.000102036
0.00010767
0.000107879
0.000107879
0.000102041
0.000102025
0.000102116
0.0001079
0.000107889
0.000107942
0.00010793
0.000102025
0.000102115
0.000107907
0.000107885
0.000107949
0.000107927
0.000107903
0.000107954
0.000107944
0.000102021
0.000102111
0.00010791
0.000107953
0.000107951
0.000102114
0.000102083
0.000102092
0.000107946
0.000107934
0.00010795
0.000107938
0.000102082
0.000102091
0.000107952
0.000107931
0.000107957
0.000107935
0.000107948
0.000107962
0.000107952
0.000102078
0.000102087
0.000107955
0.000107961
0.000107959
0.00010209
0.000102061
0.000102103
0.000107951
0.000107938
0.000107953
0.000107941
0.000102061
0.000102103
0.000107957
0.000107936
0.00010796
0.000107938
0.000107953
0.000107965
0.000107954
0.000102057
0.000102099
0.00010796
0.000107964
0.000107961
0.000102102
0.000102073
0.0001021
0.000107954
0.000107942
0.000107953
0.000107941
0.000102072
0.0001021
0.000107961
0.000107939
0.00010796
0.000107939
0.000107955
0.000107965
0.000107955
0.000102068
0.000102095
0.000107962
0.000107964
0.000107962
0.000102098
0.000102069
0.000102102
0.000107953
0.000107941
0.000107954
0.000107941
0.000102069
0.000102102
0.00010796
0.000107939
0.000107961
0.000107939
0.000107955
0.000107966
0.000107955
0.000102064
0.000102097
0.000107962
0.000107964
0.000107962
0.0001021
0.000102071
0.000102102
0.000107954
0.000107941
0.000107954
0.000107942
0.000102071
0.000102102
0.000107961
0.000107939
0.000107962
0.00010794
0.000107955
0.000107966
0.000107956
0.000102067
0.000102097
0.000107962
0.000107965
0.000107963
0.0001021
0.000102071
0.000102103
0.000107954
0.000107942
0.000107955
0.000107942
0.000102071
0.000102103
0.000107963
0.00010794
0.000107963
0.00010794
0.000107956
0.000107968
0.000107957
0.000102067
0.000102098
0.000107963
0.000107966
0.000107963
0.000102101
0.000102072
0.000102103
0.000107955
0.000107942
0.000107955
0.000107943
0.000102072
0.000102103
0.000107963
0.000107941
0.000107963
0.000107941
0.000107957
0.000107968
0.000107957
0.000102068
0.000102098
0.000107963
0.000107967
0.000107964
0.000102101
0.000102072
0.000102103
0.000107956
0.000107943
0.000107956
0.000107943
0.000102072
0.000102103
0.000107963
0.000107941
0.000107964
0.000107942
0.000107957
0.000107969
0.000107958
0.000102067
0.000102098
0.000107964
0.000107967
0.000107964
0.000102101
0.000102072
0.000102104
0.000107956
0.000107943
0.000107956
0.000107943
0.000102072
0.000102103
0.000107964
0.000107942
0.000107964
0.000107942
0.000107958
0.000107969
0.000107958
0.000102068
0.000102099
0.000107964
0.000107967
0.000107964
0.000102101
0.000102073
0.000102103
0.000107956
0.000107943
0.000107956
0.000107944
0.000102072
0.000102103
0.000107964
0.000107942
0.000107964
0.000107942
0.000107958
0.000107969
0.000107958
0.000102068
0.000102098
0.000107964
0.000107967
0.000107964
0.000102101
0.000102073
0.000102103
0.000107956
0.000107944
0.000107956
0.000107944
0.000102072
0.000102103
0.000107964
0.000107942
0.000107964
0.000107942
0.000107958
0.000107969
0.000107958
0.000102067
0.000102099
0.000107964
0.000107967
0.000107964
0.000102101
0.000102072
0.000102104
0.000107956
0.000107944
0.000107956
0.000107945
0.000102072
0.000102103
0.000107964
0.000107942
0.000107964
0.000107942
0.000107958
0.00010797
0.000107958
0.000102068
0.000102098
0.000107964
0.000107967
0.000107964
0.000102101
0.000102072
0.000102104
0.000107956
0.000107945
0.000107957
0.000107945
0.000102073
0.000102103
0.000107964
0.000107942
0.000107964
0.000107942
0.000107958
0.00010797
0.000107958
0.000102068
0.000102098
0.000107964
0.000107967
0.000107964
0.000102102
0.000102073
0.000102103
0.000107956
0.000107945
0.000107957
0.000107945
0.000102072
0.000102103
0.000107964
0.000107942
0.000107964
0.000107942
0.000107958
0.00010797
0.000107958
0.000102067
0.000102099
0.000107964
0.000107967
0.000107964
0.000102103
0.000102072
0.000102102
0.000107957
0.000107945
0.000107957
0.000107945
0.000102072
0.000102103
0.000107964
0.000107942
0.000107964
0.000107942
0.000107958
0.00010797
0.000107958
0.000102068
0.000102099
0.000107964
0.000107967
0.000107964
0.0001021
0.000102071
0.000102103
0.000107957
0.000107945
0.000107957
0.000107945
0.000102072
0.000102103
0.000107964
0.000107942
0.000107964
0.000107941
0.000107958
0.00010797
0.000107958
0.000102069
0.000102097
0.000107964
0.000107966
0.000107964
0.000102098
0.000102072
0.000102103
0.000107957
0.000107945
0.000107957
0.000107945
0.000102072
0.000102101
0.000107964
0.000107942
0.000107964
0.000107942
0.000107958
0.00010797
0.000107958
0.000102067
0.000102095
0.000107964
0.000107966
0.000107964
0.000102098
0.000102072
0.000102103
0.000107957
0.000107945
0.000107957
0.000107946
0.000102071
0.000102101
0.000107963
0.000107942
0.000107963
0.000107942
0.000107958
0.000107971
0.000107958
0.000102065
0.000102096
0.000107964
0.000107966
0.000107964
0.000102099
0.000102071
0.000102104
0.000107957
0.000107946
0.000107957
0.000107946
0.000102069
0.000102103
0.000107964
0.000107942
0.000107963
0.000107942
0.000107958
0.000107971
0.000107958
0.000102064
0.000102099
0.000107964
0.000107967
0.000107964
0.000102098
0.000102072
0.000102105
0.000107957
0.000107946
0.000107957
0.000107946
0.00010207
0.000102105
0.000107963
0.000107942
0.000107963
0.000107942
0.000107958
0.000107971
0.000107958
0.000102066
0.000102101
0.000107964
0.000107967
0.000107964
0.000102096
0.000102073
0.000102104
0.000107957
0.000107946
0.000107958
0.000107946
0.000102072
0.000102107
0.000107963
0.000107942
0.000107963
0.000107942
0.000107958
0.000107971
0.000107958
0.000102068
0.000102101
0.000107964
0.000107967
0.000107964
0.000102096
0.000102074
0.000102104
0.000107958
0.000107946
0.000107958
0.000107946
0.000102074
0.000102106
0.000107963
0.000107942
0.000107963
0.000107942
0.000107958
0.000107971
0.000107958
0.000102069
0.0001021
0.000107964
0.000107967
0.000107964
0.000102094
0.000102073
0.000102104
0.000107958
0.000107946
0.000107958
0.000107946
0.000102075
0.000102105
0.000107963
0.000107942
0.000107963
0.000107942
0.000107958
0.000107971
0.000107958
0.000102069
0.0001021
0.000107964
0.000107966
0.000107964
0.000102092
0.000102073
0.000102104
0.000107958
0.000107946
0.000107958
0.000107946
0.000102074
0.000102105
0.000107963
0.000107942
0.000107963
0.000107942
0.000107958
0.000107971
0.000107958
0.000102069
0.0001021
0.000107964
0.000107966
0.000107964
0.000102091
0.000102074
0.000102104
0.000107958
0.000107946
0.000107958
0.000107946
0.000102074
0.000102105
0.000107963
0.000107942
0.000107963
0.000107942
0.000107958
0.000107971
0.000107958
0.000102069
0.000102099
0.000107964
0.000107967
0.000107964
0.000102091
0.000102074
0.000102104
0.000107958
0.000107946
0.000107958
0.000107946
0.000102074
0.000102105
0.000107963
0.000107942
0.000107963
0.000107942
0.000107958
0.000107971
0.000107958
0.000102069
0.000102099
0.000107964
0.000107967
0.000107964
0.000102091
0.000102074
0.000102103
0.000107958
0.000107946
0.000107958
0.000107946
0.000102074
0.000102105
0.000107963
0.000107942
0.000107963
0.000107942
0.000107958
0.000107971
0.000107958
0.000102069
0.000102099
0.000107964
0.000107967
0.000107964
0.00010209
0.000102073
0.000102103
0.000107958
0.000107946
0.000107958
0.000107946
0.000102074
0.000102105
0.000107963
0.000107942
0.000107963
0.000107942
0.000107958
0.000107971
0.000107958
0.000102069
0.000102099
0.000107964
0.000107967
0.000107964
0.00010209
0.000102073
0.000102103
0.000107958
0.000107946
0.000107958
0.000107946
0.000102074
0.000102105
0.000107963
0.000107942
0.000107963
0.000107942
0.000107958
0.000107971
0.000107958
0.000102069
0.000102099
0.000107964
0.000107967
0.000107964
0.00010209
0.000102073
0.000102104
0.000107958
0.000107946
0.000107958
0.000107946
0.000102074
0.000102104
0.000107963
0.000107942
0.000107963
0.000107942
0.000107958
0.000107971
0.000107958
0.000102068
0.000102099
0.000107964
0.000107967
0.000107964
0.00010209
0.000102073
0.000102104
0.000107959
0.000107946
0.000107958
0.000107946
0.000102074
0.000102104
0.000107963
0.000107942
0.000107963
0.000107942
0.000107958
0.000107971
0.000107958
0.000102068
0.000102099
0.000107964
0.000107967
0.000107963
0.00010209
0.000102074
0.000102104
0.000107959
0.000107946
0.000107958
0.000107946
0.000102073
0.000102104
0.000107963
0.000107942
0.000107963
0.000107942
0.000107958
0.000107971
0.000107958
0.000102068
0.000102099
0.000107964
0.000107967
0.000107963
0.000102089
0.000102074
0.000102104
0.000107959
0.000107946
0.000107958
0.000107946
0.000102073
0.000102105
0.000107963
0.000107942
0.000107963
0.000107942
0.000107958
0.000107971
0.000107958
0.000102069
0.000102099
0.000107964
0.000107967
0.000107963
0.000102088
0.000102074
0.000102103
0.000107958
0.000107946
0.000107958
0.000107946
0.000102074
0.000102105
0.000107963
0.000107942
0.000107963
0.000107941
0.000107958
0.000107971
0.000107958
0.000102069
0.000102099
0.000107963
0.000107967
0.000107963
0.000102089
0.000102074
0.000102103
0.000107959
0.000107946
0.000107958
0.000107946
0.000102074
0.000102104
0.000107963
0.000107942
0.000107963
0.000107942
0.000107958
0.000107971
0.000107957
0.000102069
0.000102099
0.000107963
0.000107967
0.000107963
0.00010209
0.000102073
0.000102103
0.000107959
0.000107946
0.000107959
0.000107946
0.000102074
0.000102104
0.000107963
0.000107942
0.000107963
0.000107942
0.000107958
0.000107971
0.000107958
0.000102069
0.000102098
0.000107963
0.000107967
0.000107963
0.000102091
0.000102073
0.000102103
0.000107959
0.000107946
0.000107959
0.000107946
0.000102074
0.000102104
0.000107963
0.000107942
0.000107963
0.000107942
0.000107958
0.000107971
0.000107958
0.000102068
0.000102098
0.000107963
0.000107967
0.000107963
0.00010209
0.000102073
0.000102103
0.000107959
0.000107946
0.000107958
0.000107946
0.000102074
0.000102104
0.000107963
0.000107942
0.000107963
0.000107941
0.000107958
0.000107971
0.000107958
0.000102068
0.000102099
0.000107963
0.000107967
0.000107963
0.00010209
0.000102073
0.000102104
0.000107959
0.000107946
0.000107958
0.000107946
0.000102074
0.000102104
0.000107963
0.000107941
0.000107963
0.000107941
0.000107958
0.000107971
0.000107958
0.000102068
0.000102099
0.000107963
0.000107966
0.000107963
0.000102089
0.000102073
0.000102104
0.000107959
0.000107946
0.000107958
0.000107946
0.000102074
0.000102104
0.000107963
0.000107941
0.000107963
0.000107941
0.000107958
0.000107971
0.000107958
0.000102068
0.000102099
0.000107963
0.000107966
0.000107963
0.00010209
0.000102074
0.000102104
0.000107958
0.000107946
0.000107958
0.000107946
0.000102074
0.000102104
0.000107963
0.000107942
0.000107963
0.000107941
0.000107958
0.000107971
0.000107958
0.000102069
0.0001021
0.000107963
0.000107966
0.000107963
0.00010209
0.000102074
0.000102103
0.000107958
0.000107946
0.000107958
0.000107946
0.000102074
0.000102104
0.000107963
0.000107942
0.000107963
0.000107941
0.000107958
0.000107971
0.000107958
0.000102069
0.000102099
0.000107963
0.000107966
0.000107963
0.000102089
0.000102073
0.000102103
0.000107959
0.000107946
0.000107958
0.000107946
0.000102074
0.000102104
0.000107963
0.000107942
0.000107963
0.000107941
0.000107958
0.000107971
0.000107958
0.000102069
0.000102098
0.000107963
0.000107966
0.000107963
0.000102089
0.000102073
0.000102104
0.000107959
0.000107946
0.000107958
0.000107946
0.000102074
0.000102103
0.000107963
0.000107942
0.000107963
0.000107941
0.000107958
0.000107971
0.000107958
0.000102068
0.000102098
0.000107963
0.000107966
0.000107963
0.000102089
0.000102073
0.000102104
0.000107959
0.000107946
0.000107958
0.000107946
0.000102073
0.000102103
0.000107963
0.000107942
0.000107963
0.000107941
0.000107958
0.000107971
0.000107957
0.000102068
0.000102099
0.000107963
0.000107966
0.000107963
0.00010209
0.000102074
0.000102104
0.000107958
0.000107946
0.000107958
0.000107946
0.000102073
0.000102104
0.000107963
0.000107941
0.000107962
0.000107941
0.000107958
0.000107971
0.000107957
0.000102068
0.000102099
0.000107963
0.000107966
0.000107963
0.00010209
0.000102074
0.000102103
0.000107958
0.000107946
0.000107958
0.000107946
0.000102073
0.000102105
0.000107963
0.000107941
0.000107962
0.000107941
0.000107958
0.000107971
0.000107957
0.000102069
0.000102098
0.000107963
0.000107966
0.000107963
0.00010209
0.000102074
0.000102103
0.000107958
0.000107946
0.000107958
0.000107946
0.000102074
0.000102105
0.000107962
0.000107941
0.000107962
0.000107941
0.000107958
0.000107971
0.000107957
0.000102068
0.000102098
0.000107963
0.000107966
0.000107963
0.00010209
0.000102074
0.000102104
0.000107958
0.000107946
0.000107958
0.000107946
0.000102074
0.000102104
0.000107962
0.000107941
0.000107962
0.000107941
0.000107958
0.000107971
0.000107957
0.000102068
0.000102099
0.000107963
0.000107966
0.000107963
0.000102091
0.000102074
0.000102103
0.000107959
0.000107946
0.000107958
0.000107946
0.000102074
0.000102104
0.000107963
0.000107942
0.000107963
0.000107941
0.000107958
0.000107971
0.000107957
0.000102068
0.0001021
0.000107963
0.000107966
0.000107963
0.00010209
0.000102074
0.000102103
0.000107959
0.000107946
0.000107959
0.000107946
0.000102074
0.000102104
0.000107963
0.000107942
0.000107963
0.000107941
0.000107958
0.000107971
0.000107958
0.000102069
0.000102099
0.000107964
0.000107966
0.000107963
0.000102089
0.000102074
0.000102103
0.00010796
0.000107947
0.000107959
0.000107946
0.000102073
0.000102105
0.000107964
0.000107942
0.000107963
0.000107942
0.000107959
0.000107971
0.000107958
0.000102069
0.000102099
0.000107964
0.000107966
0.000107963
0.000102089
0.000102073
0.000102104
0.00010796
0.000107947
0.000107959
0.000107946
0.000102074
0.000102105
0.000107964
0.000107943
0.000107963
0.000107942
0.000107959
0.000107971
0.000107958
0.000102069
0.000102099
0.000107964
0.000107966
0.000107964
0.00010209
0.000102074
0.000102104
0.00010796
0.000107948
0.000107959
0.000107947
0.000102075
0.000102105
0.000107965
0.000107943
0.000107963
0.000107942
0.000107959
0.000107972
0.000107958
0.000102068
0.0001021
0.000107965
0.000107967
0.000107964
0.00010209
0.000102074
0.000102104
0.000107961
0.000107948
0.000107959
0.000107947
0.000102075
0.000102105
0.000107965
0.000107944
0.000107964
0.000107943
0.00010796
0.000107972
0.000107959
0.00010207
0.0001021
0.000107965
0.000107967
0.000107964
0.000102091
0.000102074
0.000102105
0.000107962
0.000107949
0.00010796
0.000107948
0.000102075
0.000102105
0.000107966
0.000107945
0.000107964
0.000107943
0.000107961
0.000107972
0.000107959
0.000102071
0.0001021
0.000107966
0.000107967
0.000107965
0.000102091
0.000102075
0.000102105
0.000107963
0.00010795
0.000107961
0.000107949
0.000102075
0.000102106
0.000107967
0.000107946
0.000107966
0.000107944
0.000107962
0.000107973
0.00010796
0.00010207
0.0001021
0.000107967
0.000107968
0.000107966
0.000102091
0.000102076
0.000102106
0.000107965
0.000107952
0.000107963
0.000107951
0.000102076
0.000102107
0.000107969
0.000107948
0.000107968
0.000107946
0.000107964
0.000107975
0.000107962
0.00010207
0.000102101
0.000107969
0.00010797
0.000107968
0.000102091
0.000102076
0.000102108
0.000107968
0.000107955
0.000107967
0.000107954
0.000102077
0.000102108
0.000107972
0.000107951
0.000107971
0.00010795
0.000107967
0.000107979
0.000107966
0.000102071
0.000102103
0.000107972
0.000107974
0.000107971
0.000102094
0.000102079
0.00010211
0.000107973
0.000107961
0.000107974
0.000107962
0.000102078
0.000102111
0.000107978
0.000107956
0.000107979
0.000107957
0.000107973
0.000107986
0.000107973
0.000102073
0.000102106
0.000107978
0.000107981
0.000107978
0.000102097
0.000102081
0.000102114
0.000107983
0.00010797
0.000107987
0.000107975
0.000102081
0.000102116
0.000107988
0.000107966
0.000107992
0.000107971
0.000107982
0.000108
0.000107987
0.000102076
0.000102111
0.000107987
0.000107995
0.000107992
0.000102099
0.000102085
0.000102123
0.000107999
0.000107988
0.000108015
0.000108004
0.000102086
0.000102124
0.000108004
0.000107983
0.00010802
0.000108
0.000107999
0.000108027
0.000108014
0.000102081
0.000102119
0.000108005
0.000108023
0.000108021
0.000102109
0.00010209
0.000102278
0.000107987
0.000107976
0.000108394
0.000108383
0.000102091
0.000102278
0.000107993
0.000107971
0.0001084
0.000108379
0.000107985
0.000108407
0.000108392
0.000102086
0.000102273
0.000107993
0.000108403
0.0001084
0.000102275
0.000102508
0.000108134
0.000108124
0.000102507
0.000108139
0.00010812
0.000119111
0.000119109
0.000119111
0.000108133
0.000102502
0.000108139
9.39788e-05
2.26993e-05
6.6302e-05
6.62682e-05
5.72902e-07
3.50898e-06
1.37889e-06
4.40335e-05
4.95243e-07
3.8499e-06
4.39667e-05
1.86726e-06
1.88362e-06
3.19198e-07
1.64276e-06
1.01542e-06
1.36298e-05
8.89474e-07
1.53999e-05
1.09696e-05
1.31062e-05
9.88784e-07
1.33251e-05
8.79543e-07
1.4774e-05
4.27183e-05
4.28677e-05
4.2549e-05
4.29809e-05
4.30292e-05
4.31917e-05
4.28649e-05
5.54621e-07
6.50752e-07
2.2323e-05
4.72387e-06
5.67875e-07
7.97827e-07
2.23112e-05
1.07648e-05
1.30062e-05
4.74661e-07
2.26933e-05
5.9389e-07
5.11564e-06
4.85713e-07
2.24984e-05
7.21764e-07
1.25967e-06
1.49455e-06
1.88163e-06
1.49487e-06
1.70841e-06
1.23916e-06
1.86314e-05
1.12393e-06
2.10531e-05
1.72306e-05
1.93696e-05
1.22865e-06
1.83067e-05
1.11759e-06