/*--------------------------------*- C++ -*----------------------------------*\
| =========                 |                                                 |
| \\      /  F ield         | OpenFOAM: The Open Source CFD Toolbox           |
|  \\    /   O peration     | Version:  v2012                                 |
|   \\  /    A nd           | Website:  www.openfoam.com                      |
|    \\/     M anipulation  |                                                 |
\*---------------------------------------------------------------------------*/
FoamFile
{
    version     2.0;
    format      ascii;
    class       volScalarField;
    location    "112.5";
    object      p;
}
// * * * * * * * * * * * * * * * * * * * * * * * * * * * * * * * * * * * * * //

dimensions      [0 2 -2 0 0 0 0];


internalField   nonuniform List<scalar> 
171728
(
0.00353125
0.0035309
0.00353082
0.00353241
0.0034944
0.00349366
0.00349352
0.00349669
0.00345792
0.00345674
0.00345668
0.00345912
0.00341284
0.00341191
0.00341187
0.00341453
0.00336479
0.0033639
0.00336384
0.00336659
0.00331668
0.00331585
0.00331586
0.00331855
0.00326865
0.00326792
0.00326791
0.00327067
0.00322157
0.00322095
0.00322092
0.00322368
0.00317541
0.00317486
0.00317485
0.00317762
0.00313029
0.00312979
0.00312978
0.00313253
0.00308605
0.00308562
0.00308564
0.00308839
0.00304254
0.00304219
0.00304222
0.00304495
0.00299959
0.00299929
0.00299931
0.00300197
0.00295703
0.00295681
0.0029568
0.00295956
0.00291484
0.0029147
0.00291468
0.0029174
0.00287298
0.00287285
0.00287288
0.00287543
0.00283162
0.00283149
0.0028315
0.00283415
0.0027907
0.00279055
0.00279055
0.00279309
0.00275049
0.00275032
0.00275032
0.00275275
0.00271123
0.00271098
0.00271097
0.00271338
0.00267355
0.00267327
0.00267321
0.00267553
0.00263747
0.00263719
0.0026372
0.00263952
0.00260116
0.00260091
0.00260094
0.00260338
0.0025636
0.00256336
0.00256337
0.00256594
0.00252505
0.00252481
0.00252481
0.00252734
0.00248645
0.00248624
0.00248624
0.00248862
0.00244847
0.00244832
0.00244832
0.00245056
0.00241136
0.00241127
0.00241127
0.00241343
0.00237492
0.00237486
0.00237486
0.00237699
0.00233881
0.00233876
0.00233876
0.00234089
0.00230278
0.00230274
0.00230274
0.00230487
0.00226677
0.00226673
0.00226673
0.00226886
0.00223077
0.00223072
0.00223072
0.00223285
0.00219476
0.00219471
0.00219471
0.00219684
0.00215875
0.0021587
0.0021587
0.00216083
0.00212273
0.00212269
0.00212269
0.00212482
0.00208672
0.00208668
0.00208668
0.00208881
0.00205071
0.00205066
0.00205066
0.00205279
0.0020147
0.00201465
0.00201465
0.00201678
0.00197868
0.00197864
0.00197864
0.00198077
0.00194267
0.00194262
0.00194262
0.00194475
0.00190666
0.00190661
0.00190661
0.00190874
0.00187064
0.0018706
0.0018706
0.00187273
0.00183463
0.00183458
0.00183458
0.00183671
0.00179861
0.00179857
0.00179857
0.00180069
0.00176259
0.00176255
0.00176255
0.00176468
0.00172658
0.00172653
0.00172653
0.00172866
0.00169056
0.00169052
0.00169052
0.00169264
0.00165454
0.0016545
0.0016545
0.00165663
0.00161853
0.00161848
0.00161848
0.00162061
0.00158251
0.00158247
0.00158247
0.0015846
0.0015465
0.00154645
0.00154645
0.00154858
0.00151048
0.00151044
0.00151044
0.00151257
0.00147447
0.00147442
0.00147442
0.00147655
0.00143845
0.00143841
0.00143841
0.00144054
0.00140244
0.00140239
0.00140239
0.00140452
0.00136642
0.00136637
0.00136637
0.0013685
0.0013304
0.00133036
0.00133036
0.00133248
0.00129438
0.00129434
0.00129434
0.00129647
0.00125836
0.00125832
0.00125832
0.00126045
0.00122235
0.0012223
0.0012223
0.00122443
0.00118633
0.00118628
0.00118628
0.00118841
0.00115031
0.00115026
0.00115026
0.00115239
0.00111429
0.00111424
0.00111424
0.00111637
0.00107826
0.00107822
0.00107822
0.00108035
0.00104224
0.0010422
0.0010422
0.00104433
0.00100622
0.00100618
0.00100618
0.0010083
0.000970199
0.000970155
0.000970154
0.000972283
0.000934178
0.000934133
0.000934133
0.000936262
0.000898157
0.000898112
0.000898112
0.000900241
0.000862134
0.00086209
0.00086209
0.000864219
0.000826109
0.000826065
0.000826065
0.000828193
0.000790083
0.000790038
0.000790038
0.000792167
0.000754056
0.000754011
0.000754011
0.00075614
0.00071803
0.000717985
0.000717985
0.000720114
0.000682005
0.00068196
0.00068196
0.000684088
0.00064598
0.000645935
0.000645935
0.000648064
0.000609955
0.00060991
0.00060991
0.000612039
0.00057393
0.000573885
0.000573885
0.000576013
0.000537905
0.00053786
0.00053786
0.000539988
0.000501879
0.000501835
0.000501835
0.000503963
0.000465854
0.000465809
0.000465809
0.000467937
0.000429828
0.000429783
0.000429783
0.000431911
0.000393803
0.000393758
0.000393758
0.000395886
0.000357778
0.000357733
0.000357733
0.00035986
0.000321753
0.000321708
0.000321708
0.000323834
0.000285727
0.000285682
0.000285682
0.000287807
0.0002497
0.000249656
0.000249656
0.000251777
0.000213672
0.000213629
0.000213629
0.000215746
0.000177641
0.000177601
0.000177601
0.00017971
0.000141603
0.000141567
0.000141567
0.000143664
0.000105549
0.000105524
0.000105523
0.000107603
6.95087e-05
6.94689e-05
6.94677e-05
7.15217e-05
3.43545e-05
3.3919e-05
3.39154e-05
3.56736e-05
4.67079e-06
3.94253e-06
3.94284e-06
4.0065e-06
0.00353788
0.00353659
0.00353664
0.00353794
0.00353657
0.00353661
0.00354034
0.0035404
0.00354034
0.00354033
0.00353669
0.00353653
0.00353787
0.00353662
0.0035366
0.0035378
0.00353248
0.00350102
0.00353085
0.00353087
0.00350247
0.0035025
0.00353251
0.00350102
0.00353087
0.00353083
0.0035024
0.00350247
0.0035308
0.00350246
0.00350237
0.00353247
0.00350098
0.00353084
0.00350252
0.00350236
0.00350097
0.00349673
0.00346447
0.00349361
0.00349359
0.00346678
0.00346677
0.0034967
0.00346447
0.00349369
0.0034936
0.00346669
0.00346678
0.00349367
0.00346673
0.0034667
0.00349668
0.00346445
0.00349365
0.00346683
0.00346679
0.00346448
0.00345912
0.00342069
0.00345673
0.00345671
0.00342377
0.00342377
0.00345911
0.00342069
0.00345679
0.00345671
0.0034237
0.00342376
0.00345681
0.00342375
0.00342376
0.00345909
0.00342069
0.00345677
0.00342376
0.00342379
0.00342069
0.00341455
0.00337283
0.00341186
0.00341182
0.00337588
0.00337587
0.00341453
0.00337282
0.00341192
0.00341186
0.00337582
0.00337588
0.00341187
0.00337589
0.0033759
0.00341453
0.00337283
0.00341187
0.00337591
0.0033759
0.00337283
0.00336659
0.00332481
0.00336387
0.00336389
0.00332788
0.0033279
0.00336659
0.0033248
0.00336388
0.00336388
0.00332787
0.00332785
0.00336385
0.00332787
0.00332791
0.00336659
0.00332481
0.00336388
0.00332784
0.00332791
0.00332478
0.00331857
0.00327682
0.00331587
0.00331585
0.00327982
0.00327981
0.00331857
0.00327683
0.00331582
0.00331586
0.00327984
0.00327984
0.00331585
0.0032798
0.00327982
0.00331857
0.00327682
0.00331587
0.0032798
0.00327983
0.00327681
0.00327068
0.00322969
0.00326794
0.0032679
0.00323259
0.00323259
0.00327069
0.00322967
0.00326793
0.00326788
0.00323258
0.00323257
0.00326791
0.00323259
0.0032326
0.00327067
0.0032297
0.00326793
0.0032326
0.00323262
0.00322969
0.00322368
0.00318349
0.00322093
0.00322092
0.00318627
0.00318629
0.00322367
0.00318349
0.00322092
0.00322094
0.00318626
0.00318631
0.00322093
0.0031863
0.00318628
0.00322368
0.00318348
0.00322094
0.00318628
0.00318631
0.00318349
0.00317761
0.00313829
0.00317489
0.00317487
0.003141
0.00314098
0.00317761
0.00313831
0.00317489
0.00317489
0.00314102
0.00314105
0.00317484
0.00314098
0.00314098
0.00317761
0.0031383
0.00317486
0.00314098
0.00314103
0.00313828
0.00313257
0.00309401
0.00312983
0.00312979
0.00309663
0.0030966
0.00313256
0.00309401
0.00312981
0.00312973
0.00309662
0.0030966
0.00312983
0.00309659
0.00309658
0.00313255
0.00309402
0.0031298
0.00309659
0.00309661
0.00309404
0.00308839
0.00305049
0.00308566
0.00308563
0.00305302
0.003053
0.00308838
0.00305047
0.00308563
0.00308555
0.00305298
0.00305298
0.00308562
0.00305298
0.003053
0.00308837
0.00305049
0.00308563
0.00305299
0.00305295
0.00305052
0.00304495
0.00300748
0.00304222
0.00304219
0.00300996
0.00300999
0.00304492
0.00300751
0.00304219
0.00304214
0.00300996
0.00301002
0.00304213
0.00300998
0.00300998
0.00304492
0.00300753
0.00304218
0.00300994
0.00300992
0.00300744
0.00300201
0.00296492
0.00299931
0.0029993
0.0029674
0.00296743
0.00300203
0.00296492
0.00299931
0.00299932
0.0029674
0.00296743
0.0029993
0.00296743
0.00296738
0.00300204
0.00296497
0.0029992
0.0029674
0.00296743
0.002965
0.0029595
0.00292273
0.00295682
0.00295684
0.00292518
0.00292518
0.0029595
0.00292275
0.00295684
0.0029569
0.0029252
0.00292519
0.00295683
0.00292521
0.00292519
0.00295954
0.00292273
0.00295683
0.00292521
0.00292525
0.00292277
0.00291735
0.00288082
0.00291466
0.00291468
0.00288325
0.00288327
0.00291735
0.00288086
0.00291468
0.00291468
0.00288329
0.00288329
0.00291464
0.00288326
0.00288329
0.00291736
0.00288085
0.00291469
0.00288329
0.00288329
0.00288075
0.00287551
0.00283941
0.00287287
0.00287287
0.00284182
0.0028418
0.00287552
0.00283941
0.00287286
0.00287283
0.00284181
0.00284177
0.00287282
0.00284179
0.00284178
0.00287551
0.00283941
0.00287287
0.00284179
0.0028418
0.00283943
0.00283412
0.00279833
0.00283152
0.00283151
0.00280074
0.00280074
0.00283412
0.00279834
0.00283151
0.0028315
0.00280075
0.00280077
0.00283155
0.00280074
0.00280076
0.00283412
0.00279834
0.0028315
0.00280073
0.00280075
0.00279835
0.00279309
0.00275789
0.00279055
0.00279055
0.00276029
0.00276029
0.0027931
0.00275789
0.00279057
0.00279057
0.00276029
0.00276029
0.00279055
0.0027603
0.00276028
0.0027931
0.0027579
0.00279055
0.00276029
0.00276026
0.00275786
0.00275277
0.00271834
0.00275032
0.00275031
0.00272071
0.0027207
0.00275277
0.00271833
0.00275031
0.00275031
0.00272071
0.00272071
0.00275031
0.0027207
0.00272072
0.00275277
0.00271835
0.00275029
0.00272071
0.00272073
0.00271838
0.00271334
0.00268024
0.00271097
0.00271096
0.00268247
0.00268247
0.00271334
0.00268026
0.00271099
0.00271098
0.00268246
0.00268246
0.002711
0.00268249
0.0026825
0.00271335
0.00268021
0.00271101
0.00268245
0.00268249
0.00268027
0.00267551
0.00264414
0.00267325
0.00267325
0.00264615
0.00264616
0.00267552
0.00264414
0.00267323
0.00267323
0.00264615
0.00264614
0.00267327
0.00264615
0.00264614
0.00267547
0.00264413
0.00267326
0.00264613
0.00264614
0.00264412
0.00263954
0.00260812
0.0026372
0.00263721
0.00261009
0.00261009
0.00263954
0.00260812
0.0026372
0.00263719
0.00261009
0.0026101
0.00263718
0.00261008
0.00261008
0.00263954
0.00260814
0.00263718
0.00261012
0.00261009
0.00260811
0.00260339
0.00257088
0.00260092
0.00260092
0.00257288
0.00257288
0.00260338
0.00257088
0.00260092
0.00260093
0.00257289
0.00257289
0.00260091
0.00257288
0.00257288
0.00260341
0.00257089
0.00260092
0.00257289
0.00257289
0.00257088
0.00256594
0.0025324
0.00256336
0.00256336
0.00253449
0.00253448
0.00256594
0.0025324
0.00256336
0.00256336
0.00253449
0.00253449
0.00256336
0.00253448
0.00253448
0.00256594
0.0025324
0.00256336
0.00253449
0.00253449
0.0025324
0.00252734
0.00249365
0.00252481
0.00252481
0.00249584
0.00249584
0.00252734
0.00249365
0.00252481
0.00252481
0.00249584
0.00249584
0.00252481
0.00249584
0.00249584
0.00252734
0.00249366
0.00252481
0.00249584
0.00249584
0.00249365
0.00248862
0.0024555
0.00248624
0.00248624
0.00245772
0.00245772
0.00248862
0.0024555
0.00248624
0.00248624
0.00245772
0.00245772
0.00248624
0.00245772
0.00245772
0.00248862
0.0024555
0.00248624
0.00245772
0.00245772
0.0024555
0.00245056
0.00241827
0.00244832
0.00244832
0.00242046
0.00242046
0.00245056
0.00241827
0.00244832
0.00244832
0.00242046
0.00242046
0.00244832
0.00242046
0.00242046
0.00245056
0.00241827
0.00244832
0.00242046
0.00242046
0.00241827
0.00241343
0.00238176
0.00241127
0.00241127
0.00238392
0.00238392
0.00241343
0.00238176
0.00241127
0.00241127
0.00238392
0.00238392
0.00241127
0.00238392
0.00238392
0.00241343
0.00238176
0.00241127
0.00238392
0.00238392
0.00238176
0.00237699
0.00234564
0.00237486
0.00237486
0.00234777
0.00234777
0.00237699
0.00234564
0.00237486
0.00237486
0.00234777
0.00234777
0.00237486
0.00234777
0.00234777
0.00237699
0.00234564
0.00237486
0.00234777
0.00234777
0.00234564
0.00234089
0.00230962
0.00233876
0.00233876
0.00231174
0.00231174
0.00234089
0.00230962
0.00233876
0.00233876
0.00231174
0.00231174
0.00233876
0.00231174
0.00231174
0.00234089
0.00230962
0.00233876
0.00231174
0.00231174
0.00230962
0.00230487
0.00227361
0.00230274
0.00230274
0.00227573
0.00227573
0.00230487
0.00227361
0.00230274
0.00230274
0.00227573
0.00227573
0.00230274
0.00227573
0.00227573
0.00230487
0.00227361
0.00230274
0.00227573
0.00227573
0.00227361
0.00226886
0.0022376
0.00226673
0.00226673
0.00223972
0.00223972
0.00226886
0.0022376
0.00226673
0.00226673
0.00223972
0.00223972
0.00226673
0.00223972
0.00223972
0.00226886
0.0022376
0.00226673
0.00223972
0.00223972
0.0022376
0.00223285
0.00220159
0.00223072
0.00223072
0.00220371
0.00220371
0.00223285
0.00220159
0.00223072
0.00223072
0.00220371
0.00220371
0.00223072
0.00220371
0.00220371
0.00223285
0.00220159
0.00223072
0.00220371
0.00220371
0.00220159
0.00219684
0.00216558
0.00219471
0.00219471
0.0021677
0.0021677
0.00219684
0.00216558
0.00219471
0.00219471
0.0021677
0.0021677
0.00219471
0.0021677
0.0021677
0.00219684
0.00216558
0.00219471
0.0021677
0.0021677
0.00216558
0.00216083
0.00212957
0.0021587
0.0021587
0.00213169
0.00213169
0.00216083
0.00212957
0.0021587
0.0021587
0.00213169
0.00213169
0.0021587
0.00213169
0.00213169
0.00216083
0.00212957
0.0021587
0.00213169
0.00213169
0.00212957
0.00212482
0.00209356
0.00212269
0.00212269
0.00209568
0.00209568
0.00212482
0.00209356
0.00212269
0.00212269
0.00209568
0.00209568
0.00212269
0.00209568
0.00209568
0.00212482
0.00209356
0.00212269
0.00209568
0.00209568
0.00209356
0.0020888
0.00205754
0.00208668
0.00208668
0.00205967
0.00205967
0.0020888
0.00205754
0.00208668
0.00208668
0.00205967
0.00205967
0.00208668
0.00205967
0.00205967
0.00208881
0.00205754
0.00208668
0.00205967
0.00205967
0.00205754
0.00205279
0.00202153
0.00205066
0.00205066
0.00202365
0.00202365
0.00205279
0.00202153
0.00205066
0.00205066
0.00202365
0.00202365
0.00205066
0.00202365
0.00202365
0.00205279
0.00202153
0.00205066
0.00202365
0.00202365
0.00202153
0.00201678
0.00198552
0.00201465
0.00201465
0.00198764
0.00198764
0.00201678
0.00198552
0.00201465
0.00201465
0.00198764
0.00198764
0.00201465
0.00198764
0.00198764
0.00201678
0.00198552
0.00201465
0.00198764
0.00198764
0.00198552
0.00198077
0.0019495
0.00197864
0.00197864
0.00195163
0.00195163
0.00198077
0.0019495
0.00197864
0.00197864
0.00195163
0.00195163
0.00197864
0.00195163
0.00195163
0.00198077
0.0019495
0.00197864
0.00195163
0.00195163
0.0019495
0.00194475
0.00191349
0.00194263
0.00194262
0.00191561
0.00191562
0.00194475
0.00191349
0.00194263
0.00194263
0.00191561
0.00191561
0.00194262
0.00191561
0.00191561
0.00194475
0.00191349
0.00194262
0.00191561
0.00191561
0.00191349
0.00190874
0.00187748
0.00190661
0.00190661
0.0018796
0.0018796
0.00190874
0.00187748
0.00190661
0.00190661
0.0018796
0.0018796
0.00190661
0.0018796
0.0018796
0.00190874
0.00187748
0.00190661
0.0018796
0.0018796
0.00187748
0.00187273
0.00184146
0.0018706
0.0018706
0.00184359
0.00184359
0.00187272
0.00184146
0.0018706
0.0018706
0.00184359
0.00184359
0.0018706
0.00184359
0.00184359
0.00187273
0.00184146
0.0018706
0.00184359
0.00184359
0.00184146
0.00183671
0.00180545
0.00183458
0.00183458
0.00180757
0.00180757
0.00183671
0.00180545
0.00183458
0.00183458
0.00180757
0.00180757
0.00183458
0.00180757
0.00180757
0.00183671
0.00180545
0.00183458
0.00180757
0.00180757
0.00180545
0.00180069
0.00176943
0.00179857
0.00179857
0.00177155
0.00177155
0.00180069
0.00176943
0.00179857
0.00179857
0.00177155
0.00177155
0.00179857
0.00177155
0.00177155
0.00180069
0.00176943
0.00179857
0.00177155
0.00177155
0.00176943
0.00176468
0.00173341
0.00176255
0.00176255
0.00173554
0.00173554
0.00176468
0.00173341
0.00176255
0.00176255
0.00173554
0.00173554
0.00176255
0.00173554
0.00173554
0.00176468
0.00173341
0.00176255
0.00173554
0.00173554
0.00173341
0.00172866
0.00169739
0.00172653
0.00172653
0.00169952
0.00169952
0.00172866
0.00169739
0.00172653
0.00172653
0.00169952
0.00169952
0.00172653
0.00169952
0.00169952
0.00172866
0.00169739
0.00172653
0.00169952
0.00169952
0.00169739
0.00169264
0.00166138
0.00169052
0.00169052
0.0016635
0.0016635
0.00169264
0.00166138
0.00169052
0.00169052
0.0016635
0.0016635
0.00169052
0.0016635
0.0016635
0.00169264
0.00166138
0.00169052
0.0016635
0.0016635
0.00166138
0.00165663
0.00162536
0.0016545
0.0016545
0.00162749
0.00162749
0.00165663
0.00162536
0.0016545
0.0016545
0.00162749
0.00162749
0.0016545
0.00162749
0.00162749
0.00165663
0.00162536
0.0016545
0.00162749
0.00162749
0.00162536
0.00162061
0.00158935
0.00161848
0.00161848
0.00159147
0.00159147
0.00162061
0.00158935
0.00161848
0.00161848
0.00159147
0.00159147
0.00161848
0.00159147
0.00159147
0.00162061
0.00158935
0.00161848
0.00159147
0.00159147
0.00158935
0.0015846
0.00155333
0.00158247
0.00158247
0.00155546
0.00155546
0.0015846
0.00155333
0.00158247
0.00158247
0.00155546
0.00155546
0.00158247
0.00155546
0.00155546
0.0015846
0.00155333
0.00158247
0.00155546
0.00155546
0.00155333
0.00154858
0.00151732
0.00154645
0.00154645
0.00151944
0.00151944
0.00154858
0.00151732
0.00154645
0.00154645
0.00151944
0.00151944
0.00154645
0.00151944
0.00151944
0.00154858
0.00151732
0.00154645
0.00151944
0.00151944
0.00151732
0.00151257
0.0014813
0.00151044
0.00151044
0.00148343
0.00148343
0.00151257
0.0014813
0.00151044
0.00151044
0.00148343
0.00148343
0.00151044
0.00148343
0.00148343
0.00151257
0.0014813
0.00151044
0.00148343
0.00148343
0.0014813
0.00147655
0.00144529
0.00147442
0.00147442
0.00144741
0.00144741
0.00147655
0.00144529
0.00147442
0.00147442
0.00144741
0.00144741
0.00147442
0.00144741
0.00144741
0.00147655
0.00144529
0.00147442
0.00144741
0.00144741
0.00144529
0.00144054
0.00140927
0.00143841
0.00143841
0.0014114
0.0014114
0.00144054
0.00140927
0.00143841
0.00143841
0.0014114
0.0014114
0.00143841
0.0014114
0.0014114
0.00144054
0.00140927
0.00143841
0.0014114
0.0014114
0.00140927
0.00140452
0.00137325
0.00140239
0.00140239
0.00137538
0.00137538
0.00140452
0.00137325
0.00140239
0.00140239
0.00137538
0.00137538
0.00140239
0.00137538
0.00137538
0.00140452
0.00137325
0.00140239
0.00137538
0.00137538
0.00137325
0.0013685
0.00133724
0.00136637
0.00136637
0.00133936
0.00133936
0.0013685
0.00133724
0.00136637
0.00136637
0.00133936
0.00133936
0.00136637
0.00133936
0.00133936
0.0013685
0.00133724
0.00136637
0.00133936
0.00133936
0.00133724
0.00133249
0.00130122
0.00133036
0.00133036
0.00130334
0.00130334
0.00133248
0.00130122
0.00133036
0.00133036
0.00130334
0.00130334
0.00133036
0.00130334
0.00130334
0.00133248
0.00130122
0.00133036
0.00130334
0.00130334
0.00130122
0.00129647
0.0012652
0.00129434
0.00129434
0.00126732
0.00126732
0.00129647
0.0012652
0.00129434
0.00129434
0.00126732
0.00126732
0.00129434
0.00126732
0.00126732
0.00129647
0.0012652
0.00129434
0.00126732
0.00126732
0.0012652
0.00126045
0.00122918
0.00125832
0.00125832
0.00123131
0.00123131
0.00126045
0.00122918
0.00125832
0.00125832
0.00123131
0.00123131
0.00125832
0.00123131
0.00123131
0.00126045
0.00122918
0.00125832
0.00123131
0.00123131
0.00122918
0.00122443
0.00119316
0.0012223
0.0012223
0.00119529
0.00119529
0.00122443
0.00119316
0.0012223
0.0012223
0.00119529
0.00119529
0.0012223
0.00119529
0.00119529
0.00122443
0.00119316
0.0012223
0.00119529
0.00119529
0.00119316
0.00118841
0.00115714
0.00118628
0.00118628
0.00115927
0.00115927
0.00118841
0.00115714
0.00118628
0.00118628
0.00115927
0.00115927
0.00118628
0.00115927
0.00115927
0.00118841
0.00115714
0.00118628
0.00115927
0.00115927
0.00115714
0.00115239
0.00112112
0.00115026
0.00115026
0.00112325
0.00112325
0.00115239
0.00112112
0.00115026
0.00115026
0.00112325
0.00112325
0.00115026
0.00112325
0.00112325
0.00115239
0.00112112
0.00115026
0.00112325
0.00112325
0.00112112
0.00111637
0.0010851
0.00111424
0.00111424
0.00108722
0.00108722
0.00111637
0.0010851
0.00111424
0.00111424
0.00108722
0.00108722
0.00111424
0.00108723
0.00108722
0.00111637
0.0010851
0.00111424
0.00108723
0.00108722
0.0010851
0.00108035
0.00104908
0.00107822
0.00107822
0.0010512
0.0010512
0.00108035
0.00104908
0.00107822
0.00107822
0.0010512
0.0010512
0.00107822
0.0010512
0.0010512
0.00108035
0.00104908
0.00107822
0.0010512
0.0010512
0.00104908
0.00104433
0.00101306
0.0010422
0.0010422
0.00101518
0.00101518
0.00104433
0.00101306
0.0010422
0.0010422
0.00101518
0.00101518
0.0010422
0.00101518
0.00101518
0.00104433
0.00101306
0.0010422
0.00101518
0.00101518
0.00101306
0.0010083
0.000977035
0.00100618
0.00100618
0.00097916
0.00097916
0.0010083
0.000977035
0.00100618
0.00100618
0.000979159
0.000979159
0.00100618
0.00097916
0.00097916
0.0010083
0.000977035
0.00100618
0.00097916
0.00097916
0.000977035
0.000972283
0.000941014
0.000970155
0.000970155
0.000943139
0.000943138
0.000972283
0.000941014
0.000970154
0.000970155
0.000943138
0.000943138
0.000970155
0.000943139
0.000943138
0.000972283
0.000941013
0.000970155
0.000943138
0.000943138
0.000941013
0.000936262
0.000904993
0.000934134
0.000934134
0.000907117
0.000907117
0.000936262
0.000904993
0.000934133
0.000934134
0.000907117
0.000907117
0.000934134
0.000907118
0.000907117
0.000936262
0.000904993
0.000934133
0.000907117
0.000907117
0.000904992
0.000900241
0.00086897
0.000898112
0.000898112
0.000871095
0.000871095
0.000900241
0.000868971
0.000898112
0.000898112
0.000871095
0.000871095
0.000898113
0.000871095
0.000871095
0.000900241
0.000868971
0.000898112
0.000871096
0.000871095
0.000868971
0.000864218
0.000832946
0.00086209
0.00086209
0.000835071
0.00083507
0.000864218
0.000832946
0.00086209
0.00086209
0.000835071
0.000835071
0.00086209
0.000835071
0.000835071
0.000864218
0.000832946
0.00086209
0.000835071
0.000835071
0.000832946
0.000828193
0.000796919
0.000826065
0.000826065
0.000799044
0.000799044
0.000828193
0.00079692
0.000826065
0.000826065
0.000799044
0.000799044
0.000826065
0.000799045
0.000799044
0.000828193
0.000796919
0.000826065
0.000799045
0.000799044
0.000796919
0.000792167
0.000760893
0.000790038
0.000790038
0.000763018
0.000763017
0.000792167
0.000760893
0.000790038
0.000790038
0.000763017
0.000763018
0.000790038
0.000763018
0.000763017
0.000792167
0.000760893
0.000790038
0.000763018
0.000763017
0.000760892
0.00075614
0.000724866
0.000754011
0.000754011
0.000726991
0.000726991
0.00075614
0.000724867
0.000754011
0.000754011
0.000726991
0.000726991
0.000754011
0.000726991
0.000726991
0.00075614
0.000724866
0.000754011
0.000726992
0.000726991
0.000724866
0.000720114
0.000688841
0.000717986
0.000717985
0.000690966
0.000690966
0.000720114
0.000688841
0.000717985
0.000717985
0.000690966
0.000690966
0.000717985
0.000690966
0.000690966
0.000720114
0.000688841
0.000717986
0.000690966
0.000690966
0.000688841
0.000684088
0.000652816
0.00068196
0.00068196
0.000654941
0.000654941
0.000684088
0.000652816
0.00068196
0.00068196
0.000654941
0.000654941
0.00068196
0.000654941
0.000654941
0.000684088
0.000652816
0.00068196
0.000654941
0.000654941
0.000652816
0.000648064
0.000616791
0.000645935
0.000645935
0.000618916
0.000618916
0.000648063
0.000616791
0.000645935
0.000645935
0.000618916
0.000618916
0.000645935
0.000618916
0.000618916
0.000648064
0.000616791
0.000645935
0.000618916
0.000618916
0.000616791
0.000612039
0.000580766
0.00060991
0.00060991
0.000582891
0.000582891
0.000612038
0.000580766
0.00060991
0.00060991
0.00058289
0.000582891
0.00060991
0.000582891
0.000582891
0.000612039
0.000580766
0.00060991
0.000582891
0.00058289
0.000580766
0.000576013
0.000544741
0.000573885
0.000573885
0.000546866
0.000546866
0.000576013
0.000544741
0.000573885
0.000573885
0.000546865
0.000546866
0.000573885
0.000546866
0.000546866
0.000576013
0.000544741
0.000573885
0.000546866
0.000546865
0.000544741
0.000539988
0.000508716
0.00053786
0.00053786
0.000510841
0.00051084
0.000539988
0.000508716
0.00053786
0.00053786
0.00051084
0.00051084
0.00053786
0.000510841
0.000510841
0.000539988
0.000508716
0.00053786
0.000510841
0.00051084
0.000508716
0.000503963
0.00047269
0.000501835
0.000501835
0.000474815
0.000474815
0.000503963
0.00047269
0.000501834
0.000501835
0.000474814
0.000474815
0.000501835
0.000474815
0.000474815
0.000503963
0.00047269
0.000501835
0.000474815
0.000474814
0.00047269
0.000467937
0.000436665
0.000465809
0.000465809
0.000438789
0.000438789
0.000467937
0.000436665
0.000465809
0.000465809
0.000438789
0.000438789
0.000465809
0.000438789
0.000438789
0.000467937
0.000436664
0.000465809
0.000438789
0.000438789
0.000436664
0.000431911
0.00040064
0.000429784
0.000429784
0.000402764
0.000402764
0.000431911
0.00040064
0.000429784
0.000429784
0.000402764
0.000402764
0.000429784
0.000402764
0.000402764
0.000431911
0.000400639
0.000429784
0.000402764
0.000402764
0.000400639
0.000395886
0.000364614
0.000393759
0.000393758
0.000366738
0.000366738
0.000395886
0.000364614
0.000393758
0.000393759
0.000366738
0.000366738
0.000393759
0.000366739
0.000366738
0.000395886
0.000364614
0.000393759
0.000366739
0.000366738
0.000364614
0.00035986
0.00032859
0.000357733
0.000357733
0.000330713
0.000330713
0.00035986
0.00032859
0.000357733
0.000357733
0.000330713
0.000330713
0.000357733
0.000330713
0.000330713
0.00035986
0.000328589
0.000357733
0.000330713
0.000330713
0.000328589
0.000323834
0.000292565
0.000321708
0.000321708
0.000294687
0.000294687
0.000323834
0.000292565
0.000321708
0.000321708
0.000294687
0.000294687
0.000321708
0.000294687
0.000294687
0.000323834
0.000292564
0.000321708
0.000294687
0.000294687
0.000292564
0.000287807
0.000256539
0.000285683
0.000285683
0.00025866
0.00025866
0.000287807
0.000256539
0.000285683
0.000285683
0.00025866
0.00025866
0.000285683
0.00025866
0.00025866
0.000287807
0.000256538
0.000285683
0.00025866
0.00025866
0.000256538
0.000251777
0.000220513
0.000249656
0.000249656
0.000222632
0.000222632
0.000251777
0.000220513
0.000249656
0.000249656
0.000222632
0.000222632
0.000249656
0.000222632
0.000222632
0.000251777
0.000220513
0.000249656
0.000222632
0.000222632
0.000220513
0.000215746
0.000184487
0.000213629
0.000213629
0.000186603
0.000186603
0.000215746
0.000184487
0.000213629
0.000213629
0.000186603
0.000186603
0.000213629
0.000186603
0.000186603
0.000215746
0.000184487
0.000213629
0.000186603
0.000186603
0.000184487
0.00017971
0.000148457
0.000177601
0.000177601
0.000150569
0.000150569
0.00017971
0.000148457
0.000177601
0.000177601
0.000150569
0.000150569
0.000177601
0.000150569
0.000150569
0.00017971
0.000148457
0.000177601
0.000150569
0.000150569
0.000148457
0.000143664
0.000112419
0.000141567
0.000141567
0.000114525
0.000114525
0.000143664
0.000112419
0.000141567
0.000141567
0.000114525
0.000114525
0.000141567
0.000114525
0.000114525
0.000143664
0.000112419
0.000141567
0.000114525
0.000114525
0.000112419
0.000107603
7.63687e-05
0.000105524
0.000105524
7.84672e-05
7.84672e-05
0.000107603
7.63694e-05
0.000105524
0.000105524
7.84667e-05
7.84661e-05
0.000105524
7.84671e-05
7.84663e-05
0.000107602
7.63678e-05
0.000105524
7.84663e-05
7.84662e-05
7.63678e-05
7.1523e-05
4.04578e-05
6.94693e-05
6.94693e-05
4.25882e-05
4.25888e-05
7.15229e-05
4.04589e-05
6.94685e-05
6.94677e-05
4.25867e-05
4.2585e-05
6.94682e-05
4.25879e-05
4.25848e-05
7.15222e-05
4.04551e-05
6.9468e-05
4.25848e-05
4.25842e-05
4.04549e-05
3.56774e-05
7.35942e-06
3.392e-05
3.39207e-05
1.00062e-05
1.00052e-05
3.56779e-05
7.35827e-06
3.39188e-05
3.39162e-05
1.00053e-05
1.00014e-05
3.39154e-05
1.00033e-05
9.99942e-06
3.56741e-05
7.35553e-06
3.39154e-05
1.00019e-05
1.00013e-05
7.35408e-06
4.0104e-06
3.94743e-06
3.94442e-06
4.01014e-06
3.94145e-06
3.9407e-06
4.66992e-06
4.66835e-06
4.66786e-06
3.94122e-06
4.00798e-06
3.93966e-06
0.00354449
0.00354853
0.00354674
0.00354672
0.0035693
0.00354998
0.00357663
0.00354834
0.00356898
0.00354991
0.00354823
0.0035765
0.00355848
0.0035805
0.00357968
0.00351461
0.00352933
0.00353284
0.00350674
0.00350617
0.00351024
0.00351459
0.00352929
0.0035328
0.00350679
0.00353128
0.00353123
0.00353122
0.00350321
0.00350321
0.00350319
0.00350317
0.0035142
0.00352758
0.00353187
0.00352158
0.0035342
0.00351119
0.00352203
0.00350621
0.00351019
0.00351422
0.00353183
0.00352748
0.0035216
0.0035341
0.00352206
0.00351112
0.00353277
0.0035331
0.00351835
0.003511
0.00351097
0.00348779
0.00350133
0.00350078
0.00348584
0.0034985
0.00348505
0.00348786
0.00350126
0.00350076
0.00348587
0.00349438
0.00349439
0.00349436
0.00346786
0.00346785
0.00346785
0.00346785
0.00348522
0.0035001
0.00349349
0.00348492
0.00349838
0.00348602
0.00348482
0.00349852
0.00348496
0.00348521
0.00349346
0.00349996
0.00348503
0.00349838
0.00348483
0.00348603
0.00350159
0.00350162
0.00348381
0.00348666
0.00348663
0.0034458
0.00346064
0.00346142
0.00344454
0.00345945
0.00344365
0.00344594
0.00346064
0.00346137
0.00344457
0.0034579
0.00345791
0.0034579
0.00342466
0.00342465
0.00342465
0.00342464
0.00344429
0.00346033
0.00345655
0.00344639
0.00345941
0.00344482
0.00344614
0.00345937
0.00344367
0.00344425
0.00345655
0.00346022
0.00344638
0.0034594
0.00344615
0.0034449
0.00346073
0.0034608
0.00344347
0.00344488
0.00344482
0.0033988
0.00341562
0.00341713
0.00339751
0.00341499
0.00339698
0.00339884
0.00341563
0.00341715
0.00339756
0.00341281
0.00341283
0.00341282
0.0033768
0.0033768
0.0033768
0.00337679
0.0033977
0.00341564
0.00341174
0.00339999
0.00341514
0.00339795
0.00339983
0.00341496
0.00339699
0.00339769
0.00341172
0.0034156
0.00339995
0.00341515
0.0033998
0.00339809
0.00341574
0.0034157
0.00339689
0.00339771
0.00339771
0.00335032
0.00336715
0.00336834
0.00334911
0.0033668
0.00334876
0.00335023
0.00336718
0.00336846
0.0033491
0.00336479
0.00336479
0.00336478
0.00332874
0.00332874
0.00332874
0.00332873
0.0033494
0.00336737
0.0033638
0.0033519
0.0033671
0.00334965
0.00335181
0.00336679
0.00334876
0.00334943
0.00336377
0.00336729
0.00335187
0.00336704
0.00335178
0.00334968
0.0033673
0.00336726
0.00334883
0.00334915
0.00334917
0.00330155
0.00331886
0.00331987
0.00330081
0.0033186
0.00330053
0.00330165
0.00331887
0.00331975
0.0033008
0.00331669
0.00331668
0.00331668
0.00328058
0.00328058
0.00328058
0.00328057
0.00330119
0.00331892
0.0033158
0.0033038
0.00331885
0.00330132
0.00330379
0.00331859
0.00330056
0.00330118