/*--------------------------------*- C++ -*----------------------------------*\
| =========                 |                                                 |
| \\      /  F ield         | OpenFOAM: The Open Source CFD Toolbox           |
|  \\    /   O peration     | Version:  v2012                                 |
|   \\  /    A nd           | Website:  www.openfoam.com                      |
|    \\/     M anipulation  |                                                 |
\*---------------------------------------------------------------------------*/
FoamFile
{
    version     2.0;
    format      ascii;
    class       volScalarField;
    location    "1000";
    object      epsilon;
}
// * * * * * * * * * * * * * * * * * * * * * * * * * * * * * * * * * * * * * //

dimensions      [0 2 -3 0 0 0 0];


internalField   nonuniform List<scalar> 
171728
(
4.95567e-07
4.9733e-07
4.9733e-07
4.99575e-07
4.45573e-07
4.53735e-07
4.53737e-07
4.6371e-07
4.03752e-07
4.18513e-07
4.18517e-07
4.39411e-07
3.68363e-07
3.88552e-07
3.88558e-07
4.17667e-07
3.38015e-07
3.62102e-07
3.6211e-07
3.96081e-07
3.11646e-07
3.38273e-07
3.38281e-07
3.74581e-07
2.88473e-07
3.16638e-07
3.16646e-07
3.5371e-07
2.67923e-07
2.97021e-07
2.9703e-07
3.34147e-07
2.49579e-07
2.7937e-07
2.79379e-07
3.16483e-07
2.33137e-07
2.63679e-07
2.63688e-07
3.0116e-07
2.18365e-07
2.49955e-07
2.49964e-07
2.88492e-07
2.0509e-07
2.38198e-07
2.38208e-07
2.78696e-07
1.93171e-07
2.28411e-07
2.28421e-07
2.71875e-07
1.82497e-07
2.206e-07
2.20611e-07
2.68162e-07
1.72979e-07
2.14774e-07
2.14787e-07
2.67648e-07
1.64542e-07
2.1094e-07
2.10956e-07
2.70505e-07
1.57122e-07
2.09109e-07
2.09128e-07
2.7671e-07
1.50669e-07
2.09298e-07
2.0932e-07
2.86289e-07
1.45137e-07
2.11551e-07
2.11577e-07
2.99237e-07
1.40492e-07
2.15886e-07
2.15917e-07
3.15606e-07
1.36703e-07
2.22322e-07
2.22358e-07
3.3535e-07
1.33747e-07
2.30875e-07
2.30913e-07
3.58362e-07
1.31605e-07
2.41543e-07
2.41582e-07
3.84488e-07
1.30254e-07
2.54293e-07
2.54334e-07
4.13506e-07
1.29702e-07
2.69085e-07
2.69145e-07
4.4498e-07
1.29922e-07
2.85882e-07
2.85924e-07
4.7867e-07
1.30882e-07
3.04498e-07
3.04531e-07
5.13975e-07
1.32706e-07
3.25062e-07
3.25172e-07
5.50759e-07
1.3526e-07
3.4734e-07
3.47434e-07
5.88482e-07
1.3842e-07
3.70628e-07
3.70646e-07
6.25826e-07
1.42542e-07
3.95583e-07
3.95688e-07
6.63315e-07
1.47401e-07
4.22277e-07
4.2237e-07
7.00782e-07
1.52861e-07
4.48621e-07
4.48784e-07
7.36923e-07
1.5949e-07
4.77748e-07
4.77878e-07
7.73153e-07
1.66533e-07
5.07095e-07
5.06579e-07
8.09519e-07
1.74346e-07
5.33625e-07
5.34262e-07
8.4089e-07
1.83071e-07
5.62831e-07
5.63588e-07
8.75126e-07
1.93002e-07
5.99298e-07
6.00197e-07
9.03124e-07
2.00765e-07
6.22156e-07
6.21893e-07
9.2075e-07
2.19977e-07
6.4423e-07
6.35582e-07
9.74509e-07
2.40841e-07
7.12836e-07
7.19588e-07
1.08376e-06
2.48604e-07
8.16744e-07
8.24772e-07
1.12127e-06
2.51796e-07
7.56385e-07
7.32608e-07
1.01983e-06
2.32695e-07
5.85944e-07
5.94999e-07
8.61047e-07
2.14123e-07
6.04446e-07
6.53254e-07
8.64816e-07
2.23994e-07
8.43272e-07
8.25608e-07
1.13459e-06
3.45605e-07
9.68135e-07
9.33108e-07
1.18541e-06
4.19936e-07
8.85584e-07
8.71008e-07
1.13267e-06
3.70844e-07
8.45433e-07
8.52494e-07
1.27899e-06
3.37924e-07
9.11784e-07
9.77003e-07
1.27037e-06
3.87354e-07
9.7933e-07
1.00699e-06
1.15641e-06
4.28815e-07
9.93392e-07
9.56942e-07
1.18908e-06
4.18703e-07
9.91628e-07
9.42462e-07
1.26356e-06
4.13841e-07
9.85631e-07
9.84734e-07
1.27657e-06
4.35467e-07
1.00137e-06
1.03289e-06
1.27913e-06
4.61298e-07
1.0372e-06
1.04355e-06
1.29177e-06
4.77889e-07
1.05452e-06
1.04536e-06
1.305e-06
4.8978e-07
1.06373e-06
1.06041e-06
1.31299e-06
5.0105e-07
1.07921e-06
1.07973e-06
1.3241e-06
5.17593e-07
1.09064e-06
1.09118e-06
1.33604e-06
5.31647e-07
1.09993e-06
1.10027e-06
1.3448e-06
5.45904e-07
1.11318e-06
1.11338e-06
1.35567e-06
5.59513e-07
1.12382e-06
1.12349e-06
1.36339e-06
5.72178e-07
1.13315e-06
1.13359e-06
1.37205e-06
5.84341e-07
1.14239e-06
1.14257e-06
1.37931e-06
5.95167e-07
1.15035e-06
1.15008e-06
1.38636e-06
6.06102e-07
1.15803e-06
1.1581e-06
1.39341e-06
6.15583e-07
1.16322e-06
1.16345e-06
1.39799e-06
6.25168e-07
1.17051e-06
1.17056e-06
1.40442e-06
6.34335e-07
1.17637e-06
1.17644e-06
1.40933e-06
6.4107e-07
1.17898e-06
1.17914e-06
1.41184e-06
6.48504e-07
1.18379e-06
1.18367e-06
1.41607e-06
6.56904e-07
1.18947e-06
1.18955e-06
1.42198e-06
6.61343e-07
1.18992e-06
1.1901e-06
1.42183e-06
6.66368e-07
1.19182e-06
1.19188e-06
1.42379e-06
6.73398e-07
1.1969e-06
1.19685e-06
1.42968e-06
6.76531e-07
1.19625e-06
1.19632e-06
1.42855e-06
6.79167e-07
1.19529e-06
1.19544e-06
1.42779e-06
6.83831e-07
1.19872e-06
1.19879e-06
1.43178e-06
6.8665e-07
1.19869e-06
1.19866e-06
1.43172e-06
6.88015e-07
1.19654e-06
1.19664e-06
1.42962e-06
6.90199e-07
1.19657e-06
1.19661e-06
1.43081e-06
6.91438e-07
1.19576e-06
1.19588e-06
1.4299e-06
6.92776e-07
1.19433e-06
1.19442e-06
1.42896e-06
6.93451e-07
1.19321e-06
1.19313e-06
1.42904e-06
6.92671e-07
1.1896e-06
1.18972e-06
1.42516e-06
6.93541e-07
1.18898e-06
1.18901e-06
1.42528e-06
6.93473e-07
1.18636e-06
1.18661e-06
1.42418e-06
6.89794e-07
1.17927e-06
1.1792e-06
1.41557e-06
6.90764e-07
1.18092e-06
1.18093e-06
1.41809e-06
6.92579e-07
1.1812e-06
1.18163e-06
1.42099e-06
6.8809e-07
1.17296e-06
1.17284e-06
1.41225e-06
6.84748e-07
1.16823e-06
1.16805e-06
1.40642e-06
6.83912e-07
1.16575e-06
1.1659e-06
1.40531e-06
6.66127e-07
1.11005e-06
1.11041e-06
1.36371e-06
5.06417e-07
5.05584e-07
5.05582e-07
5.06417e-07
5.05583e-07
5.05582e-07
5.09649e-07
5.09649e-07
5.09649e-07
5.09649e-07
5.05584e-07
5.05584e-07
5.06418e-07
5.05584e-07
5.05583e-07
5.06418e-07
4.99575e-07
4.67237e-07
4.97331e-07
4.97335e-07
4.63713e-07
4.63721e-07
4.99575e-07
4.67235e-07
4.97335e-07
4.97336e-07
4.63718e-07
4.63724e-07
4.97332e-07
4.63709e-07
4.63714e-07
4.99575e-07
4.67241e-07
4.97334e-07
4.6371e-07
4.63719e-07
4.6724e-07
4.63709e-07
4.41426e-07
4.5374e-07
4.53748e-07
4.26739e-07
4.26747e-07
4.63708e-07
4.4142e-07
4.53744e-07
4.53751e-07
4.26739e-07
4.26751e-07
4.53741e-07
4.26729e-07
4.26741e-07
4.63711e-07
4.41431e-07
4.53744e-07
4.26734e-07
4.26741e-07
4.41429e-07
4.39407e-07
4.19283e-07
4.18522e-07
4.1853e-07
3.95676e-07
3.95682e-07
4.39405e-07
4.19275e-07
4.18522e-07
4.18535e-07
3.95672e-07
3.95689e-07
4.18525e-07
3.95663e-07
3.95679e-07
4.39413e-07
4.19289e-07
4.18523e-07
3.95669e-07
3.95673e-07
4.19287e-07
4.17662e-07
3.97645e-07
3.88566e-07
3.88571e-07
3.68461e-07
3.68466e-07
4.17656e-07
3.97636e-07
3.8856e-07
3.88578e-07
3.68452e-07
3.68473e-07
3.88569e-07
3.68444e-07
3.68464e-07
4.17669e-07
3.97651e-07
3.88562e-07
3.68452e-07
3.68454e-07
3.97649e-07
3.96076e-07
3.76085e-07
3.6212e-07
3.62124e-07
3.44033e-07
3.44036e-07
3.96069e-07
3.76076e-07
3.62109e-07
3.62131e-07
3.4402e-07
3.44043e-07
3.62123e-07
3.44013e-07
3.44036e-07
3.96082e-07
3.76091e-07
3.62111e-07
3.44022e-07
3.44021e-07
3.7609e-07
3.74575e-07
3.55111e-07
3.38292e-07
3.38295e-07
3.21875e-07
3.21876e-07
3.74568e-07
3.55101e-07
3.38279e-07
3.38303e-07
3.21858e-07
3.21884e-07
3.38296e-07
3.21853e-07
3.21877e-07
3.74581e-07
3.55117e-07
3.3828e-07
3.21862e-07
3.2186e-07
3.55116e-07
3.53705e-07
3.35395e-07
3.16659e-07
3.16661e-07
3.01763e-07
3.01764e-07
3.53697e-07
3.35385e-07
3.16642e-07
3.16668e-07
3.01745e-07
3.01771e-07
3.16662e-07
3.0174e-07
3.01765e-07
3.5371e-07
3.35402e-07
3.16644e-07
3.01749e-07
3.01746e-07
3.354e-07
3.34142e-07
3.17532e-07
2.97044e-07
2.97045e-07
2.83623e-07
2.83624e-07
3.34134e-07
3.17523e-07
2.97025e-07
2.97052e-07
2.83603e-07
2.83631e-07
2.97047e-07
2.83599e-07
2.83625e-07
3.34148e-07
3.1754e-07
2.97027e-07
2.83609e-07
2.83604e-07
3.17537e-07
3.16477e-07
3.01974e-07
2.79394e-07
2.79394e-07
2.67442e-07
2.67442e-07
3.16471e-07
3.01964e-07
2.79374e-07
2.79402e-07
2.67421e-07
2.67449e-07
2.79396e-07
2.67417e-07
2.67443e-07
3.16485e-07
3.01981e-07
2.79375e-07
2.67426e-07
2.67421e-07
3.0198e-07
3.01153e-07
2.8904e-07
2.63704e-07
2.63703e-07
2.53227e-07
2.53227e-07
3.01146e-07
2.89028e-07
2.63682e-07
2.63711e-07
2.53204e-07
2.53234e-07
2.63705e-07
2.532e-07
2.53227e-07
3.01162e-07
2.89046e-07
2.63683e-07
2.5321e-07
2.53205e-07
2.89047e-07
2.88485e-07
2.78951e-07
2.49981e-07
2.49981e-07
2.40981e-07
2.4098e-07
2.88476e-07
2.78938e-07
2.49958e-07
2.49989e-07
2.40957e-07
2.40988e-07
2.49982e-07
2.40952e-07
2.40981e-07
2.88493e-07
2.78956e-07
2.49959e-07
2.40961e-07
2.40957e-07
2.78956e-07
2.78688e-07
2.71829e-07
2.38226e-07
2.38227e-07
2.30702e-07
2.30702e-07
2.78678e-07
2.71817e-07
2.38203e-07
2.38235e-07
2.30677e-07
2.3071e-07
2.38227e-07
2.3067e-07
2.30701e-07
2.78695e-07
2.71837e-07
2.38203e-07
2.30681e-07
2.30676e-07
2.71835e-07
2.71868e-07
2.67862e-07
2.2844e-07
2.28443e-07
2.22399e-07
2.224e-07
2.71858e-07
2.67848e-07
2.28416e-07
2.28451e-07
2.22373e-07
2.22409e-07
2.28442e-07
2.22364e-07
2.22397e-07
2.71877e-07
2.67873e-07
2.28417e-07
2.22376e-07
2.22372e-07
2.6787e-07
2.68154e-07
2.66984e-07
2.20632e-07
2.20637e-07
2.16077e-07
2.16081e-07
2.68143e-07
2.66968e-07
2.20608e-07
2.20645e-07
2.16049e-07
2.16089e-07
2.20634e-07
2.16039e-07
2.16075e-07
2.68165e-07
2.66995e-07
2.20608e-07
2.16051e-07
2.16048e-07
2.66993e-07
2.67639e-07
2.69164e-07
2.14812e-07
2.14817e-07
2.11747e-07
2.11755e-07
2.67623e-07
2.69147e-07
2.14785e-07
2.14826e-07
2.1172e-07
2.11764e-07
2.14811e-07
2.11704e-07
2.11744e-07
2.67648e-07
2.69177e-07
2.14784e-07
2.11719e-07
2.11717e-07
2.69176e-07
2.70494e-07
2.74675e-07
2.10985e-07
2.10992e-07
2.09417e-07
2.09425e-07
2.70479e-07
2.74654e-07
2.10957e-07
2.11002e-07
2.09389e-07
2.09438e-07
2.10981e-07
2.09366e-07
2.09412e-07
2.70506e-07
2.74689e-07
2.10954e-07
2.09385e-07
2.09383e-07
2.74688e-07
2.76698e-07
2.83554e-07
2.0916e-07
2.09169e-07
2.0913e-07
2.09139e-07
2.76676e-07
2.8353e-07
2.09133e-07
2.09182e-07
2.09102e-07
2.09156e-07
2.09155e-07
2.09073e-07
2.09124e-07
2.76711e-07
2.83573e-07
2.09127e-07
2.09095e-07
2.09095e-07
2.83569e-07
2.8628e-07
2.95821e-07
2.09356e-07
2.09366e-07
2.10852e-07
2.10859e-07
2.86254e-07
2.9579e-07
2.09329e-07
2.09384e-07
2.10822e-07
2.10881e-07
2.0935e-07
2.10786e-07
2.10842e-07
2.86296e-07
2.95836e-07
2.09321e-07
2.10811e-07
2.10812e-07
2.95831e-07
2.99228e-07
3.11501e-07
2.11618e-07
2.11627e-07
2.14675e-07
2.14685e-07
2.9919e-07
3.11461e-07
2.1159e-07
2.11649e-07
2.14644e-07
2.14709e-07
2.11609e-07
2.146e-07
2.14661e-07
2.99233e-07
3.11515e-07
2.11579e-07
2.14628e-07
2.14631e-07
3.11515e-07
3.15588e-07
3.30541e-07
2.15961e-07
2.15975e-07
2.20591e-07
2.20613e-07
3.15552e-07
3.30509e-07
2.15933e-07
2.15999e-07
2.20561e-07
2.20638e-07
2.1595e-07
2.20512e-07
2.20584e-07
3.15608e-07
3.30578e-07
2.15919e-07
2.20547e-07
2.20552e-07
3.30572e-07
3.35317e-07
3.52894e-07
2.22401e-07
2.22426e-07
2.28621e-07
2.28654e-07
3.35292e-07
3.52857e-07
2.22373e-07
2.22451e-07
2.28594e-07
2.28681e-07
2.22396e-07
2.28541e-07
2.28618e-07
3.3536e-07
3.52933e-07
2.22363e-07
2.28577e-07
2.28583e-07
3.5291e-07
3.58354e-07
3.78374e-07
2.30958e-07
2.30991e-07
2.38764e-07
2.38807e-07
3.58316e-07
3.78322e-07
2.30931e-07
2.3102e-07
2.38737e-07
2.38835e-07
2.30955e-07
2.38681e-07
2.38759e-07
3.58383e-07
3.78408e-07
2.3092e-07
2.38719e-07
2.38722e-07
3.78384e-07
3.84477e-07
4.06752e-07
2.41627e-07
2.41673e-07
2.51004e-07
2.51055e-07
3.84429e-07
4.06704e-07
2.41602e-07
2.41699e-07
2.50973e-07
2.51075e-07
2.41625e-07
2.50914e-07
2.51007e-07
3.84506e-07
4.06776e-07
2.41588e-07
2.50951e-07
2.5097e-07
4.06801e-07
4.13456e-07
4.37723e-07
2.54391e-07
2.54439e-07
2.65305e-07
2.65353e-07
4.13411e-07
4.37645e-07
2.54359e-07
2.5446e-07
2.65265e-07
2.65394e-07
2.5439e-07
2.65194e-07
2.65299e-07
4.13474e-07
4.37765e-07
2.54354e-07
2.6525e-07
2.6526e-07
4.37746e-07
4.44977e-07
4.70965e-07
2.69205e-07
2.69246e-07
2.81629e-07
2.81673e-07
4.44896e-07
4.70864e-07
2.69169e-07
2.69292e-07
2.81597e-07
2.8171e-07
2.69186e-07
2.81507e-07
2.81625e-07
4.45014e-07
4.70978e-07
2.69145e-07
2.81557e-07
2.81582e-07
4.70935e-07
4.78677e-07
5.05623e-07
2.85983e-07
2.86053e-07
2.99722e-07
2.99846e-07
4.78601e-07
5.05737e-07
2.85949e-07
2.86079e-07
2.99672e-07
2.99859e-07
2.86004e-07
2.99672e-07
2.998e-07
4.78691e-07
5.0579e-07
2.85961e-07
2.99693e-07
2.99759e-07
5.05885e-07
5.1368e-07
5.4218e-07
3.04543e-07
3.04669e-07
3.19847e-07
3.19926e-07
5.13837e-07
5.4214e-07
3.04496e-07
3.04698e-07
3.19816e-07
3.19988e-07
3.04634e-07
3.19733e-07
3.19864e-07
5.13883e-07
5.42281e-07
3.04595e-07
3.19811e-07
3.19828e-07
5.42242e-07
5.50767e-07
5.80066e-07
3.25212e-07
3.25266e-07
3.4188e-07
3.41866e-07
5.50654e-07
5.7978e-07
3.25189e-07
3.25344e-07
3.41849e-07
3.41923e-07
3.252e-07
3.4164e-07
3.41769e-07
5.50823e-07
5.7998e-07
3.25172e-07
3.41745e-07
3.41709e-07
5.79848e-07
5.88713e-07
6.16783e-07
3.47528e-07
3.47563e-07
3.64786e-07
3.64918e-07
5.88444e-07
6.16912e-07
3.47488e-07
3.47614e-07
3.64658e-07
3.64932e-07
3.47434e-07
3.64716e-07
3.64941e-07
5.88624e-07
6.17053e-07
3.47354e-07
3.64749e-07
3.64842e-07
6.17096e-07
6.25379e-07
6.54199e-07
3.7073e-07
3.70812e-07
3.89321e-07
3.89385e-07
6.25534e-07
6.54114e-07
3.70582e-07
3.70817e-07
3.89216e-07
3.89383e-07
3.70924e-07
3.89136e-07
3.89373e-07
6.25627e-07
6.54135e-07
3.70823e-07
3.89201e-07
3.89349e-07
6.5447e-07
6.63248e-07
6.92565e-07
3.95841e-07
3.95849e-07
4.15723e-07
4.15834e-07
6.63113e-07
6.92407e-07
3.95785e-07
3.95902e-07
4.15755e-07
4.15953e-07
3.95749e-07
4.15583e-07
4.15412e-07
6.63152e-07
6.92648e-07
3.95756e-07
4.15661e-07
4.15384e-07
6.91901e-07
7.01374e-07
7.28068e-07
4.2227e-07
4.22496e-07
4.421e-07
4.42154e-07
7.01341e-07
7.28152e-07
4.22295e-07
4.22642e-07
4.41977e-07
4.42271e-07
4.22143e-07
4.42009e-07
4.42307e-07
7.01577e-07
7.28449e-07
4.22081e-07
4.42101e-07
4.42134e-07
7.28311e-07
7.36798e-07
7.65159e-07
4.49024e-07
4.4881e-07
4.7071e-07
4.70429e-07
7.36646e-07
7.64297e-07
4.48865e-07
4.48918e-07
4.70622e-07
4.70569e-07
4.49016e-07
4.70066e-07
4.70068e-07
7.3692e-07
7.64703e-07
4.48837e-07
4.70439e-07
4.70018e-07
7.64171e-07
7.74041e-07
7.99799e-07
4.7793e-07
4.78108e-07
4.9946e-07
5.00247e-07
7.73581e-07
8.0101e-07
4.77865e-07
4.78022e-07
4.9898e-07
4.99645e-07
4.77414e-07
5.00044e-07
5.00179e-07
7.73847e-07
8.00359e-07
4.7741e-07
4.99405e-07
4.99962e-07
8.00846e-07
8.08143e-07
8.32073e-07
5.06604e-07
5.07233e-07
5.27905e-07
5.27498e-07
8.09245e-07
8.31701e-07
5.05999e-07
5.06889e-07
5.27951e-07
5.28103e-07
5.07601e-07
5.27155e-07
5.27851e-07
8.0866e-07
8.32096e-07
5.07261e-07
5.27539e-07
5.27785e-07
8.33183e-07
8.4032e-07
8.65991e-07
5.34957e-07
5.34169e-07
5.56527e-07
5.55271e-07
8.39318e-07
8.61779e-07
5.35403e-07
5.34832e-07
5.57324e-07
5.55538e-07
5.34608e-07
5.54729e-07
5.58052e-07
8.39864e-07
8.63166e-07
5.34797e-07
5.55308e-07
5.58322e-07
8.66153e-07
8.74332e-07
8.96849e-07
5.6451e-07
5.63026e-07
5.8929e-07
5.90583e-07
8.70363e-07
9.00103e-07
5.64938e-07
5.63691e-07
5.87774e-07
5.92067e-07
5.66852e-07
5.9107e-07
5.89913e-07
8.71961e-07
9.02291e-07
5.66745e-07
5.92237e-07
5.88758e-07
8.9753e-07
9.04022e-07
9.21359e-07
5.96047e-07
5.98973e-07
6.12139e-07
6.17376e-07
9.08857e-07
9.27165e-07
5.94296e-07
6.00114e-07
6.1166e-07
6.17699e-07
5.94297e-07
6.16202e-07
6.07124e-07
9.11095e-07
9.26348e-07
5.93111e-07
6.1734e-07
6.07288e-07
9.13675e-07
9.29359e-07
9.75015e-07
6.19064e-07
6.23268e-07
6.5391e-07
6.38046e-07
9.33032e-07
9.50181e-07
6.19296e-07
6.22106e-07
6.55259e-07
6.30736e-07
6.13197e-07
6.38854e-07
6.4212e-07
9.30712e-07
9.39421e-07
6.13799e-07
6.31227e-07
6.4261e-07
9.5861e-07
9.91158e-07
1.04404e-06
6.69227e-07
6.43995e-07
7.11375e-07
6.89139e-07
9.58122e-07
1.01457e-06
6.70387e-07
6.3545e-07
7.10676e-07
6.91645e-07
6.57988e-07
6.87856e-07
7.21819e-07
9.45913e-07
1.01698e-06
6.58142e-07
6.89771e-07
7.21124e-07
1.0626e-06
1.05192e-06
1.05752e-06
7.19721e-07
7.13994e-07
7.35769e-07
7.96249e-07
1.03747e-06
1.15439e-06
7.18632e-07
7.2113e-07
7.35605e-07
8.07794e-07
7.43486e-07
7.97313e-07
7.78761e-07
1.04504e-06
1.1716e-06
7.42814e-07
8.09049e-07
7.79551e-07
1.12119e-06
1.0616e-06
1.06244e-06
7.41682e-07
8.14401e-07
7.54983e-07
8.04473e-07
1.1727e-06
1.09432e-06
7.41889e-07
8.22243e-07
7.54557e-07
7.84347e-07
7.79536e-07
8.06557e-07
7.40635e-07
1.18373e-06
1.06541e-06
7.80562e-07
7.86089e-07
7.40236e-07
1.03008e-06
1.06286e-06
9.92529e-07
7.54701e-07
7.55724e-07
7.1683e-07
6.17067e-07
1.0712e-06
8.18881e-07
7.53854e-07
7.32134e-07
7.1429e-07
6.14221e-07
7.18999e-07
6.16515e-07
6.40769e-07
1.04098e-06
8.18622e-07
7.17555e-07
6.13645e-07
6.38641e-07
8.70361e-07
9.86658e-07
9.16357e-07
6.99258e-07
5.87157e-07
6.59128e-07
5.77368e-07
8.00859e-07
7.97271e-07
6.97366e-07
5.96155e-07
6.60861e-07
6.25814e-07
6.17484e-07
5.71845e-07
5.95514e-07
8.09807e-07
8.7108e-07
6.16102e-07
6.17453e-07
5.96624e-07
8.38182e-07
9.16206e-07
9.39144e-07
6.53549e-07
6.14134e-07
6.64697e-07
7.7918e-07
8.35842e-07
1.09851e-06
6.56147e-07
6.62636e-07
6.66664e-07
7.8089e-07
6.09317e-07
7.77836e-07
7.7624e-07
9.09746e-07
1.08841e-06
6.12296e-07
7.78588e-07
7.78996e-07
1.08671e-06
9.64634e-07
1.15234e-06
6.99921e-07
8.39827e-07
8.57433e-07
9.50348e-07
1.14627e-06
1.27692e-06
6.99498e-07
8.21294e-07
8.54558e-07
9.1124e-07
8.31124e-07
9.62628e-07
9.03683e-07
1.11886e-06
1.22709e-06
8.32649e-07
9.23035e-07
9.01195e-07
1.19105e-06
1.19774e-06
1.28946e-06
9.10923e-07
9.58404e-07
9.85241e-07
9.19566e-07
1.28295e-06
1.19943e-06
9.08067e-07
9.24482e-07
9.84835e-07
9.04166e-07
8.96979e-07
9.12037e-07
8.7202e-07
1.23719e-06
1.1704e-06
8.94321e-07
8.96093e-07
8.71354e-07
1.12594e-06
1.28626e-06
1.1738e-06
9.81551e-07
8.94574e-07
9.04329e-07
8.49092e-07
1.18982e-06
1.10723e-06
9.81246e-07
8.79624e-07
9.02133e-07
8.4924e-07
8.75685e-07
8.45452e-07
9.60743e-07
1.16094e-06
1.0965e-06
8.75069e-07
8.44113e-07
9.57917e-07
1.2539e-06
1.16615e-06
1.11739e-06
8.82396e-07
8.46319e-07
8.55045e-07
8.77331e-07
1.10931e-06
1.15381e-06
8.8024e-07
8.53466e-07
8.5503e-07
9.381e-07
9.81265e-07
8.91699e-07
9.90906e-07
1.10892e-06
1.23038e-06
9.78216e-07
9.51168e-07
9.89848e-07
1.27872e-06
1.12718e-06
1.22116e-06
8.59632e-07
8.97874e-07
9.43368e-07
9.61002e-07
1.1704e-06
1.24193e-06
8.60996e-07
9.63114e-07
9.47299e-07
1.00381e-06
9.6629e-07
9.66824e-07
9.01919e-07
1.25743e-06
1.2992e-06
9.67777e-07
1.01013e-06
9.03974e-07
1.15929e-06
1.24494e-06
1.28793e-06
9.68612e-07
9.78955e-07
1.00822e-06
1.00181e-06
1.2559e-06
1.27659e-06
9.72149e-07
1.00417e-06
1.00928e-06
9.74372e-07
8.93608e-07
9.92714e-07
9.12479e-07
1.29946e-06
1.24487e-06
8.95242e-07
9.6707e-07
9.10969e-07
1.17156e-06
1.28715e-06
1.24098e-06
1.00704e-06
1.00227e-06
9.80482e-07
9.94327e-07
1.2787e-06
1.26488e-06
1.00736e-06
9.63227e-07
9.77992e-07
9.423e-07
9.36035e-07
9.9294e-07
9.88804e-07
1.24189e-06
1.19986e-06
9.33966e-07
9.4182e-07
9.8518e-07
1.25307e-06
1.24084e-06
1.23751e-06
9.75832e-07
9.90975e-07
9.75842e-07
9.82913e-07
1.26557e-06
1.24608e-06
9.72962e-07
9.41712e-07
9.7336e-07
9.67173e-07
1.00102e-06
9.8636e-07
1.01277e-06
1.2014e-06
1.22449e-06
9.97077e-07
9.71481e-07
1.00983e-06
1.27484e-06
1.24421e-06
1.26723e-06
9.8312e-07
9.82334e-07
1.00681e-06
9.92556e-07
1.24707e-06
1.24937e-06
9.81831e-07
9.8139e-07
1.00877e-06
1.02203e-06
1.01232e-06
9.92542e-07
1.0115e-06
1.23582e-06
1.28248e-06
1.01005e-06
1.02331e-06
1.01257e-06
1.27561e-06
1.27472e-06
1.29311e-06
1.01457e-06
1.00173e-06
1.0355e-06
1.02993e-06
1.25604e-06
1.28355e-06
1.01726e-06
1.03256e-06
1.03759e-06
1.04434e-06
1.01341e-06
1.02874e-06
1.02828e-06
1.2921e-06
1.30267e-06
1.01634e-06
1.04319e-06
1.02974e-06
1.28737e-06
1.29779e-06
1.30445e-06
1.04049e-06
1.03847e-06
1.05174e-06
1.05279e-06
1.29172e-06
1.30525e-06
1.04161e-06
1.04464e-06
1.05055e-06
1.04467e-06
1.03375e-06
1.05236e-06
1.04891e-06
1.30424e-06
1.29825e-06
1.03454e-06
1.04408e-06
1.0481e-06
1.30112e-06
1.30776e-06
1.31206e-06
1.05474e-06
1.05476e-06
1.06202e-06
1.06095e-06
1.30814e-06
1.31105e-06
1.05333e-06
1.04558e-06
1.0611e-06
1.05615e-06
1.05275e-06
1.06075e-06
1.06044e-06
1.30018e-06
1.30552e-06
1.05159e-06
1.05593e-06
1.05957e-06
1.30972e-06
1.31512e-06
1.31959e-06
1.06406e-06
1.06397e-06
1.07156e-06
1.07523e-06
1.3144e-06
1.32268e-06
1.06344e-06
1.06065e-06
1.07158e-06
1.07497e-06
1.06289e-06
1.07516e-06
1.07288e-06
1.3098e-06
1.32179e-06
1.06231e-06
1.07503e-06
1.07293e-06
1.31997e-06
1.32315e-06
1.33125e-06
1.07508e-06
1.07918e-06
1.08725e-06
1.08844e-06
1.32711e-06
1.33389e-06
1.07516e-06
1.07955e-06
1.08726e-06
1.08904e-06
1.07688e-06
1.08846e-06
1.08775e-06
1.32673e-06
1.33418e-06
1.07699e-06
1.08915e-06
1.08777e-06
1.33242e-06
1.33543e-06
1.34155e-06
1.09087e-06
1.09075e-06
1.09886e-06
1.09742e-06
1.33685e-06
1.34011e-06
1.09084e-06
1.0912e-06
1.09873e-06
1.09768e-06
1.09066e-06
1.09719e-06
1.09896e-06
1.33717e-06
1.34051e-06
1.09064e-06
1.09751e-06
1.09884e-06
1.34131e-06
1.3446e-06
1.35036e-06
1.10126e-06
1.10007e-06
1.11005e-06
1.10978e-06
1.34328e-06
1.35013e-06
1.10114e-06
1.10036e-06
1.10997e-06
1.11006e-06
1.102e-06
1.10984e-06
1.11115e-06
1.34371e-06
1.35058e-06
1.10189e-06
1.11017e-06
1.11108e-06
1.35205e-06
1.35423e-06
1.36083e-06
1.11324e-06
1.11318e-06
1.12146e-06
1.12174e-06
1.35413e-06
1.36073e-06
1.11318e-06
1.11331e-06
1.12132e-06
1.12137e-06
1.11382e-06
1.12151e-06
1.121e-06
1.3545e-06
1.36052e-06
1.11376e-06
1.12121e-06
1.12087e-06
1.36033e-06
1.36395e-06
1.36843e-06
1.12378e-06
1.12405e-06
1.13099e-06
1.13081e-06
1.36389e-06
1.36828e-06
1.12362e-06
1.12366e-06
1.13086e-06
1.13099e-06
1.12347e-06
1.13072e-06
1.13122e-06
1.3636e-06
1.36841e-06
1.12331e-06
1.13094e-06
1.13109e-06
1.36868e-06
1.37176e-06
1.377e-06
1.13355e-06
1.13322e-06
1.14052e-06
1.14043e-06
1.3715e-06
1.37657e-06
1.13346e-06
1.13362e-06
1.14049e-06
1.14076e-06
1.13366e-06
1.14027e-06
1.14003e-06
1.3718e-06
1.37713e-06
1.13357e-06
1.14066e-06
1.13999e-06
1.37642e-06
1.38e-06
1.38319e-06
1.14248e-06
1.14259e-06
1.1481e-06
1.14845e-06
1.37971e-06
1.38363e-06
1.14243e-06
1.14269e-06
1.14796e-06
1.14813e-06
1.14201e-06
1.14831e-06
1.14832e-06
1.38011e-06
1.38329e-06
1.14196e-06
1.14803e-06
1.14819e-06
1.38327e-06
1.38607e-06
1.39022e-06
1.15012e-06
1.15045e-06
1.1562e-06
1.15642e-06
1.38654e-06
1.39035e-06
1.14998e-06
1.15015e-06
1.15608e-06
1.15637e-06
1.15055e-06
1.15638e-06
1.15656e-06
1.38618e-06
1.39034e-06
1.15042e-06
1.15638e-06
1.15644e-06
1.39062e-06
1.39314e-06
1.39554e-06
1.15796e-06
1.15809e-06
1.16233e-06
1.16203e-06
1.39318e-06
1.39524e-06
1.15785e-06
1.15811e-06
1.16223e-06
1.16219e-06
1.15813e-06
1.16187e-06
1.1622e-06
1.39324e-06
1.39545e-06
1.15802e-06
1.16208e-06
1.16211e-06
1.39545e-06
1.39807e-06
1.40119e-06
1.16375e-06
1.16338e-06
1.16872e-06
1.16861e-06
1.39771e-06
1.40081e-06
1.16367e-06
1.16356e-06
1.16865e-06
1.1687e-06
1.1637e-06
1.16853e-06
1.169e-06
1.39792e-06
1.40098e-06
1.16362e-06
1.16866e-06
1.16893e-06
1.40141e-06
1.40415e-06
1.4071e-06
1.17054e-06
1.17057e-06
1.17524e-06
1.17544e-06
1.40386e-06
1.40731e-06
1.17046e-06
1.17059e-06
1.17511e-06
1.17539e-06
1.1708e-06
1.17531e-06
1.17515e-06
1.40401e-06
1.40734e-06
1.17072e-06
1.17532e-06
1.17503e-06
1.40709e-06
1.40944e-06
1.40962e-06
1.17631e-06
1.17651e-06
1.17833e-06
1.1785e-06
1.40965e-06
1.40966e-06
1.17619e-06
1.17653e-06
1.17826e-06
1.17864e-06
1.17619e-06
1.17837e-06
1.17846e-06
1.40969e-06
1.40987e-06
1.17608e-06
1.17858e-06
1.17838e-06
1.40969e-06
1.41171e-06
1.41323e-06
1.17897e-06
1.17909e-06
1.1824e-06
1.18226e-06
1.41173e-06
1.41311e-06
1.17891e-06
1.17919e-06
1.1823e-06
1.18215e-06
1.17916e-06
1.18217e-06
1.18248e-06
1.41191e-06
1.41307e-06
1.17909e-06
1.1821e-06
1.18238e-06
1.41334e-06
1.41602e-06
1.41959e-06
1.18406e-06
1.18389e-06
1.18862e-06
1.18865e-06
1.41586e-06
1.41945e-06
1.18394e-06
1.18374e-06
1.1885e-06
1.18862e-06
1.18408e-06
1.18853e-06
1.18864e-06
1.41576e-06
1.41942e-06
1.18398e-06
1.18853e-06
1.18854e-06
1.41956e-06
1.42196e-06
1.42008e-06
1.18946e-06
1.1896e-06
1.18995e-06
1.19023e-06
1.42192e-06
1.42032e-06
1.18936e-06
1.18963e-06
1.18988e-06
1.19034e-06
1.18953e-06
1.19012e-06
1.19013e-06
1.42195e-06
1.42053e-06
1.18944e-06
1.19029e-06
1.19005e-06
1.42028e-06
1.42163e-06
1.42126e-06
1.18978e-06
1.19002e-06
1.19082e-06
1.19049e-06
1.42186e-06
1.42098e-06
1.18971e-06
1.19014e-06
1.19074e-06
1.19058e-06
1.18996e-06
1.19039e-06
1.19071e-06
1.42206e-06
1.42112e-06
1.18988e-06
1.19051e-06
1.19063e-06
1.42122e-06
1.42386e-06
1.42721e-06
1.19234e-06
1.19194e-06
1.19615e-06
1.19612e-06
1.42351e-06
1.42694e-06
1.19226e-06
1.19199e-06
1.19605e-06
1.19604e-06
1.19223e-06
1.19599e-06
1.19624e-06
1.42362e-06
1.42691e-06
1.19215e-06
1.19595e-06
1.19615e-06
1.42723e-06
1.42957e-06
1.42683e-06
1.19685e-06
1.19702e-06
1.1966e-06
1.19709e-06
1.42946e-06
1.42719e-06
1.19675e-06
1.19692e-06
1.1965e-06
1.19703e-06
1.19705e-06
1.19702e-06
1.19691e-06
1.4294e-06
1.4272e-06
1.19695e-06
1.19703e-06
1.19679e-06
1.4271e-06
1.4283e-06
1.42588e-06
1.19603e-06
1.19632e-06
1.19554e-06
1.19529e-06
1.42864e-06
1.42526e-06
1.19594e-06
1.19632e-06
1.19546e-06
1.19538e-06
1.1962e-06
1.19516e-06
1.19542e-06
1.42866e-06
1.42546e-06
1.1961e-06
1.1953e-06
1.19534e-06
1.42556e-06
1.42805e-06
1.4293e-06
1.19589e-06
1.19543e-06
1.19806e-06
1.19811e-06
1.42744e-06
1.42909e-06
1.19582e-06
1.19556e-06
1.19798e-06
1.19818e-06
1.19567e-06
1.19799e-06
1.19822e-06
1.42765e-06
1.42924e-06
1.19559e-06
1.19808e-06
1.19815e-06
1.4294e-06
1.43155e-06
1.42987e-06
1.19858e-06
1.19883e-06
1.19878e-06
1.19931e-06
1.43153e-06
1.43045e-06
1.1985e-06
1.19886e-06
1.19868e-06
1.19924e-06
1.19885e-06
1.19925e-06
1.19913e-06
1.43165e-06
1.4304e-06
1.19878e-06
1.19924e-06
1.19903e-06
1.43024e-06
1.43139e-06
1.42808e-06
1.19829e-06
1.19875e-06
1.19707e-06
1.19693e-06
1.43191e-06
1.42798e-06
1.19819e-06
1.19865e-06
1.19698e-06
1.19696e-06
1.19853e-06
1.19681e-06
1.197e-06
1.43187e-06
1.42804e-06
1.19842e-06
1.19688e-06
1.19691e-06
1.42799e-06
1.42978e-06
1.42897e-06
1.19692e-06
1.19667e-06
1.19683e-06
1.19665e-06
1.42954e-06
1.4285e-06
1.19684e-06
1.19673e-06
1.19676e-06
1.19669e-06
1.19681e-06
1.19652e-06
1.19686e-06
1.42961e-06
1.42859e-06
1.19673e-06
1.1966e-06
1.19679e-06
1.4289e-06
1.43083e-06
1.42813e-06
1.19681e-06
1.19669e-06
1.19594e-06
1.19633e-06
1.43039e-06
1.42843e-06
1.19673e-06
1.19669e-06
1.19584e-06
1.19631e-06
1.19686e-06
1.19625e-06
1.19618e-06
1.43047e-06
1.42852e-06
1.19679e-06
1.19629e-06
1.19607e-06
1.42836e-06
1.42969e-06
1.42737e-06
1.19552e-06
1.19585e-06
1.19473e-06
1.19466e-06
1.42996e-06
1.42718e-06
1.19544e-06
1.19591e-06
1.19466e-06
1.19474e-06
1.19566e-06
1.19453e-06
1.19465e-06
1.43005e-06
1.42743e-06
1.19557e-06
1.19465e-06
1.19458e-06
1.4271e-06
1.42925e-06
1.4272e-06
1.19463e-06
1.19447e-06
1.19405e-06
1.1939e-06
1.42894e-06
1.4271e-06
1.19456e-06
1.19453e-06
1.19394e-06
1.19379e-06
1.19454e-06
1.19378e-06
1.19417e-06
1.42916e-06
1.42693e-06
1.19447e-06
1.19371e-06
1.19407e-06
1.4276e-06
1.42864e-06
1.42348e-06
1.1932e-06
1.19329e-06
1.19009e-06
1.19037e-06
1.42857e-06
1.42372e-06
1.19308e-06
1.19316e-06
1.19002e-06
1.19044e-06
1.19363e-06
1.1903e-06
1.19028e-06
1.42842e-06
1.42385e-06
1.19351e-06
1.19041e-06
1.1902e-06
1.42375e-06
1.42491e-06
1.42343e-06
1.18946e-06
1.18969e-06
1.1891e-06
1.18899e-06
1.42515e-06
1.42321e-06
1.1894e-06
1.18977e-06
1.18901e-06
1.18901e-06
1.18953e-06
1.18884e-06
1.18889e-06
1.42529e-06
1.42327e-06
1.18946e-06
1.18889e-06
1.18881e-06
1.42313e-06
1.42557e-06
1.42277e-06
1.18937e-06
1.18915e-06
1.18851e-06
1.18838e-06
1.4253e-06
1.42257e-06
1.18927e-06
1.18914e-06
1.18843e-06
1.18848e-06
1.18917e-06
1.18825e-06
1.18864e-06
1.42535e-06
1.42275e-06
1.18908e-06
1.18839e-06
1.18854e-06
1.42297e-06
1.42395e-06
1.41382e-06
1.18641e-06
1.18645e-06
1.18e-06
1.18037e-06
1.42378e-06
1.41416e-06
1.18636e-06
1.18664e-06
1.17995e-06
1.18035e-06
1.18682e-06
1.18032e-06
1.1804e-06
1.42396e-06
1.4142e-06
1.18674e-06
1.18033e-06
1.18033e-06
1.41433e-06
1.41508e-06
1.41535e-06
1.17891e-06
1.17932e-06
1.17958e-06
1.17971e-06
1.41545e-06
1.41549e-06
1.17884e-06
1.17921e-06
1.17942e-06
1.17951e-06
1.17924e-06
1.17961e-06
1.17936e-06
1.41545e-06
1.41533e-06
1.17917e-06
1.17944e-06
1.17923e-06
1.41516e-06
1.41845e-06
1.42009e-06
1.1812e-06
1.18107e-06
1.1826e-06
1.18206e-06
1.41841e-06
1.41917e-06
1.18106e-06
1.18104e-06
1.18253e-06
1.18235e-06
1.18083e-06
1.18185e-06
1.18217e-06
1.41833e-06
1.41971e-06
1.1807e-06
1.18218e-06
1.1821e-06
1.41964e-06
1.42138e-06
1.41038e-06
1.182e-06
1.18141e-06
1.17389e-06
1.17422e-06
1.42047e-06
1.41059e-06
1.18197e-06
1.1818e-06
1.17384e-06
1.17421e-06
1.18177e-06
1.17419e-06
1.1746e-06
1.42102e-06
1.41066e-06
1.18173e-06
1.17421e-06
1.17454e-06
1.41118e-06
1.41139e-06
1.40455e-06
1.17233e-06
1.17294e-06
1.16807e-06
1.16857e-06
1.4117e-06
1.40533e-06
1.17226e-06
1.17279e-06
1.16795e-06
1.16831e-06
1.17318e-06
1.16853e-06
1.16816e-06
1.41172e-06
1.40501e-06
1.17309e-06
1.1683e-06
1.16804e-06
1.40488e-06
1.40626e-06
1.40432e-06
1.16796e-06
1.16831e-06
1.16644e-06
1.16599e-06
1.40694e-06
1.40352e-06
1.16783e-06
1.16809e-06
1.16633e-06
1.16605e-06
1.16785e-06
1.16577e-06
1.166e-06
1.40663e-06
1.40362e-06
1.16773e-06
1.16588e-06
1.1659e-06
1.40374e-06
1.40585e-06
1.38448e-06
1.16645e-06
1.16597e-06
1.1447e-06
1.14452e-06
1.40508e-06
1.38426e-06
1.16635e-06
1.16607e-06
1.1447e-06
1.1448e-06
1.16609e-06
1.14452e-06
1.14493e-06
1.40518e-06
1.3847e-06
1.16598e-06
1.14482e-06
1.14492e-06
1.38468e-06
1.36345e-06
1.11001e-06
1.10999e-06
1.36336e-06
1.11005e-06
1.11034e-06
6.65956e-07
6.66268e-07
6.66277e-07
1.11029e-06
1.36387e-06
1.11033e-06
5.35663e-07
5.35601e-07
5.35655e-07
5.35655e-07
5.34573e-07
5.35516e-07
5.33634e-07
5.35654e-07
5.34573e-07
5.35517e-07
5.35654e-07
5.33634e-07
5.35256e-07
5.35986e-07
5.35987e-07
1.10713e-06
3.88084e-06
9.33891e-07
4.60616e-06
1.26081e-05
1.66011e-05
1.10725e-06
3.88107e-06
9.33925e-07
4.60652e-06
4.95567e-07
4.95567e-07
4.95567e-07
4.57231e-07
4.57231e-07
4.57232e-07
4.57232e-07
5.43143e-07
1.22026e-06
4.95565e-07
4.85522e-07
5.25341e-07
1.20946e-06
4.82301e-07
1.26097e-05
1.66037e-05
5.43162e-07
4.95565e-07
1.22025e-06
4.85523e-07
5.2532e-07
4.82302e-07
1.20945e-06
2.52172e-06
2.52242e-06
4.8419e-07
2.37248e-06
2.37288e-06
1.4308e-06
5.59329e-06
1.32967e-06
6.13634e-06
2.12844e-05
2.31104e-05
1.4312e-06
5.59397e-06
1.32973e-06
6.137e-06
4.45572e-07
4.45573e-07
4.45573e-07
4.13542e-07
4.13542e-07