/*--------------------------------*- C++ -*----------------------------------*\
| =========                 |                                                 |
| \\      /  F ield         | OpenFOAM: The Open Source CFD Toolbox           |
|  \\    /   O peration     | Version:  v2012                                 |
|   \\  /    A nd           | Website:  www.openfoam.com                      |
|    \\/     M anipulation  |                                                 |
\*---------------------------------------------------------------------------*/
FoamFile
{
    version     2.0;
    format      ascii;
    class       volScalarField;
    location    "1000";
    object      k;
}
// * * * * * * * * * * * * * * * * * * * * * * * * * * * * * * * * * * * * * //

dimensions      [0 2 -2 0 0 0 0];


internalField   nonuniform List<scalar> 
171728
(
3.58932e-05
3.58912e-05
3.58912e-05
3.59957e-05
3.39296e-05
3.3889e-05
3.3889e-05
3.39622e-05
3.21578e-05
3.20081e-05
3.20081e-05
3.19522e-05
3.05346e-05
3.02293e-05
3.02292e-05
2.99884e-05
2.90329e-05
2.8554e-05
2.85539e-05
2.81226e-05
2.76353e-05
2.69872e-05
2.69871e-05
2.63907e-05
2.63308e-05
2.5531e-05
2.55309e-05
2.48073e-05
2.51112e-05
2.4185e-05
2.41848e-05
2.33782e-05
2.39709e-05
2.29506e-05
2.29504e-05
2.21047e-05
2.29057e-05
2.18269e-05
2.18267e-05
2.0986e-05
2.1912e-05
2.08114e-05
2.08112e-05
2.00133e-05
2.09864e-05
1.99013e-05
1.99011e-05
1.91814e-05
2.01241e-05
1.90947e-05
1.90945e-05
1.84896e-05
1.93238e-05
1.83884e-05
1.83883e-05
1.79328e-05
1.85848e-05
1.77793e-05
1.77792e-05
1.75062e-05
1.79042e-05
1.72656e-05
1.72656e-05
1.72001e-05
1.72798e-05
1.68467e-05
1.68467e-05
1.70229e-05
1.67097e-05
1.65211e-05
1.65214e-05
1.69822e-05
1.61924e-05
1.62897e-05
1.629e-05
1.70793e-05
1.57254e-05
1.61518e-05
1.6152e-05
1.73039e-05
1.53073e-05
1.61073e-05
1.61078e-05
1.76571e-05
1.49373e-05
1.61528e-05
1.61537e-05
1.81342e-05
1.46144e-05
1.62915e-05
1.62922e-05
1.87277e-05
1.43379e-05
1.65192e-05
1.65208e-05
1.94258e-05
1.41076e-05
1.68347e-05
1.68353e-05
2.02217e-05
1.3923e-05
1.72332e-05
1.72358e-05
2.10894e-05
1.37861e-05
1.77178e-05
1.77177e-05
2.20391e-05
1.36861e-05
1.82655e-05
1.82644e-05
2.30148e-05
1.36436e-05
1.89102e-05
1.89154e-05
2.40756e-05
1.36489e-05
1.96175e-05
1.96188e-05
2.51495e-05
1.36731e-05
2.0342e-05
2.03414e-05
2.62021e-05
1.37692e-05
2.11572e-05
2.11681e-05
2.72637e-05
1.39167e-05
2.20712e-05
2.20617e-05
2.83806e-05
1.40525e-05
2.28558e-05
2.28622e-05
2.93585e-05
1.43633e-05
2.39457e-05
2.39852e-05
3.04747e-05
1.45516e-05
2.48952e-05
2.47972e-05
3.16106e-05
1.49121e-05
2.5714e-05
2.5789e-05
3.23294e-05
1.52154e-05
2.66731e-05
2.67042e-05
3.38423e-05
1.58071e-05
2.83437e-05
2.84162e-05
3.44687e-05
1.58399e-05
2.86492e-05
2.87553e-05
3.39366e-05
1.70518e-05
2.90248e-05
2.8373e-05
3.59233e-05
1.84111e-05
3.21102e-05
3.27201e-05
4.19062e-05
1.89921e-05
3.94179e-05
4.00431e-05
4.456e-05
1.88724e-05
3.66385e-05
3.41669e-05
3.73488e-05
1.64608e-05
2.33149e-05
2.39318e-05
3.00324e-05
1.49772e-05
2.34985e-05
2.72757e-05
2.88182e-05
1.44165e-05
4.04336e-05
3.82642e-05
4.80002e-05
2.49937e-05
4.52427e-05
4.32343e-05
4.43768e-05
2.90882e-05
3.89422e-05
3.75854e-05
3.91652e-05
2.51854e-05
3.59235e-05
3.57355e-05
5.07255e-05
2.18742e-05
3.88514e-05
4.31842e-05
4.86307e-05
2.47643e-05
4.26237e-05
4.46953e-05
4.0746e-05
2.79637e-05
4.31422e-05
4.13368e-05
4.37446e-05
2.69704e-05
4.26417e-05
3.96428e-05
4.73007e-05
2.5965e-05
4.18621e-05
4.13707e-05
4.74245e-05
2.69164e-05
4.19959e-05
4.43868e-05
4.72888e-05
2.86825e-05
4.4392e-05
4.47536e-05
4.77769e-05
2.94803e-05
4.49498e-05
4.45527e-05
4.83364e-05
3.00044e-05
4.51337e-05
4.48501e-05
4.85906e-05
3.044e-05
4.6093e-05
4.61038e-05
4.92287e-05
3.14205e-05
4.64756e-05
4.64935e-05
4.9578e-05
3.20264e-05
4.6854e-05
4.68847e-05
5.0071e-05
3.286e-05
4.75521e-05
4.75675e-05
5.05156e-05
3.35418e-05
4.80121e-05
4.79714e-05
5.08262e-05
3.42495e-05
4.85012e-05
4.85464e-05
5.12792e-05
3.49013e-05
4.8943e-05
4.89366e-05
5.15329e-05
3.54797e-05
4.9365e-05
4.93515e-05
5.19552e-05
3.61139e-05
4.97914e-05
4.97874e-05
5.22366e-05
3.65997e-05
5.00004e-05
5.0016e-05
5.24359e-05
3.7173e-05
5.04881e-05
5.04832e-05
5.28497e-05
3.77466e-05
5.08346e-05
5.08377e-05
5.3061e-05
3.8071e-05
5.09171e-05
5.09287e-05
5.31195e-05
3.85259e-05
5.12976e-05
5.12835e-05
5.34972e-05
3.91382e-05
5.17075e-05
5.17102e-05
5.38014e-05
3.93447e-05
5.16804e-05
5.16878e-05
5.36851e-05
3.96401e-05
5.18692e-05
5.187e-05
5.39715e-05
4.02155e-05
5.23225e-05
5.23164e-05
5.4318e-05
4.04095e-05
5.22877e-05
5.22844e-05
5.41785e-05
4.05159e-05
5.2264e-05
5.22707e-05
5.42473e-05
4.09749e-05
5.26778e-05
5.26783e-05
5.4592e-05
4.11967e-05
5.27144e-05
5.27085e-05
5.45472e-05
4.12937e-05
5.26626e-05
5.26632e-05
5.45328e-05
4.15478e-05
5.28293e-05
5.28244e-05
5.4693e-05
4.16746e-05
5.2852e-05
5.28556e-05
5.46616e-05
4.18458e-05
5.29119e-05
5.29147e-05
5.4743e-05
4.20072e-05
5.29646e-05
5.29577e-05
5.48194e-05
4.19881e-05
5.28178e-05
5.2821e-05
5.4567e-05
4.21588e-05
5.30223e-05
5.3019e-05
5.48957e-05
4.22841e-05
5.29736e-05
5.29866e-05
5.47769e-05
4.20547e-05
5.25695e-05
5.25588e-05
5.42855e-05
4.2176e-05
5.29155e-05
5.29076e-05
5.47877e-05
4.25349e-05
5.30361e-05
5.30571e-05
5.4882e-05
4.23089e-05
5.26153e-05
5.26058e-05
5.44033e-05
4.21158e-05
5.24763e-05
5.2464e-05
5.4286e-05
4.17824e-05
5.14085e-05
5.14056e-05
5.40377e-05
3.63068e-05
3.6291e-05
3.6291e-05
3.63068e-05
3.6291e-05
3.6291e-05
3.6423e-05
3.6423e-05
3.6423e-05
3.6423e-05
3.6291e-05
3.6291e-05
3.63068e-05
3.6291e-05
3.6291e-05
3.63068e-05
3.59957e-05
3.42687e-05
3.58912e-05
3.58912e-05
3.43767e-05
3.43766e-05
3.59957e-05
3.42687e-05
3.58911e-05
3.58912e-05
3.43767e-05
3.43766e-05
3.58912e-05
3.43767e-05
3.43767e-05
3.59957e-05
3.42687e-05
3.58912e-05
3.43767e-05
3.43767e-05
3.42687e-05
3.39623e-05
3.22635e-05
3.38889e-05
3.38889e-05
3.24684e-05
3.24683e-05
3.39623e-05
3.22635e-05
3.38889e-05
3.38889e-05
3.24684e-05
3.24683e-05
3.38889e-05
3.24685e-05
3.24684e-05
3.39623e-05
3.22634e-05
3.38889e-05
3.24685e-05
3.24684e-05
3.22634e-05
3.19522e-05
3.02993e-05
3.20079e-05
3.20078e-05
3.06643e-05
3.06642e-05
3.19522e-05
3.02994e-05
3.2008e-05
3.20078e-05
3.06644e-05
3.06641e-05
3.20079e-05
3.06646e-05
3.06643e-05
3.19522e-05
3.02992e-05
3.2008e-05
3.06645e-05
3.06644e-05
3.02992e-05
2.99885e-05
2.84253e-05
3.0229e-05
3.02288e-05
2.89624e-05
2.89622e-05
2.99886e-05
2.84255e-05
3.02291e-05
3.02287e-05
2.89626e-05
2.89621e-05
3.02289e-05
2.89628e-05
2.89623e-05
2.99884e-05
2.84252e-05
3.02291e-05
2.89627e-05
2.89626e-05
2.84252e-05
2.81227e-05
2.6674e-05
2.85536e-05
2.85534e-05
2.7368e-05
2.73678e-05
2.81228e-05
2.66742e-05
2.85538e-05
2.85533e-05
2.73683e-05
2.73676e-05
2.85535e-05
2.73685e-05
2.73679e-05
2.81226e-05
2.66739e-05
2.85538e-05
2.73684e-05
2.73683e-05
2.66738e-05
2.63908e-05
2.50663e-05
2.69866e-05
2.69864e-05
2.58841e-05
2.58838e-05
2.6391e-05
2.50665e-05
2.69869e-05
2.69862e-05
2.58845e-05
2.58836e-05
2.69865e-05
2.58848e-05
2.5884e-05
2.63907e-05
2.50661e-05
2.69869e-05
2.58846e-05
2.58845e-05
2.50661e-05
2.48075e-05
2.36125e-05
2.55303e-05
2.553e-05
2.45103e-05
2.45099e-05
2.48077e-05
2.36127e-05
2.55308e-05
2.55299e-05
2.45107e-05
2.45097e-05
2.55302e-05
2.45111e-05
2.45102e-05
2.48073e-05
2.36123e-05
2.55307e-05
2.45109e-05
2.45107e-05
2.36123e-05
2.33784e-05
2.23124e-05
2.41842e-05
2.41838e-05
2.32478e-05
2.32475e-05
2.33786e-05
2.23126e-05
2.41847e-05
2.41836e-05
2.32484e-05
2.32473e-05
2.41841e-05
2.32488e-05
2.32478e-05
2.33782e-05
2.23122e-05
2.41846e-05
2.32485e-05
2.32484e-05
2.23122e-05
2.2105e-05
2.11681e-05
2.29497e-05
2.29494e-05
2.20966e-05
2.20962e-05
2.21051e-05
2.11683e-05
2.29503e-05
2.29491e-05
2.20972e-05
2.2096e-05
2.29496e-05
2.20976e-05
2.20965e-05
2.21047e-05
2.11679e-05
2.29503e-05
2.20974e-05
2.20972e-05
2.11678e-05
2.09863e-05
2.01707e-05
2.18258e-05
2.18255e-05
2.10541e-05
2.10538e-05
2.09865e-05
2.01709e-05
2.18265e-05
2.18253e-05
2.10549e-05
2.10536e-05
2.18258e-05
2.10552e-05
2.10541e-05
2.09861e-05
2.01705e-05
2.18265e-05
2.1055e-05
2.10549e-05
2.01704e-05
2.00137e-05
1.93146e-05
2.08103e-05
2.081e-05
2.0118e-05
2.01177e-05
2.00138e-05
1.93148e-05
2.08111e-05
2.08097e-05
2.01188e-05
2.01174e-05
2.08102e-05
2.01191e-05
2.01179e-05
2.00134e-05
1.93144e-05
2.0811e-05
2.01189e-05
2.01188e-05
1.93143e-05
1.91817e-05
1.85904e-05
1.99002e-05
1.98998e-05
1.92856e-05
1.92853e-05
1.91818e-05
1.85906e-05
1.9901e-05
1.98996e-05
1.92864e-05
1.9285e-05
1.99001e-05
1.92867e-05
1.92855e-05
1.91815e-05
1.85901e-05
1.9901e-05
1.92865e-05
1.92864e-05
1.859e-05
1.84898e-05
1.79976e-05
1.90935e-05
1.90933e-05
1.85545e-05
1.85542e-05
1.84899e-05
1.79979e-05
1.90944e-05
1.90931e-05
1.85553e-05
1.8554e-05
1.90935e-05
1.85556e-05
1.85544e-05
1.84896e-05
1.79976e-05
1.90944e-05
1.85554e-05
1.85553e-05
1.79973e-05
1.79332e-05
1.75392e-05
1.83874e-05
1.83871e-05
1.79213e-05
1.79211e-05
1.79334e-05
1.75392e-05
1.83882e-05
1.83869e-05
1.79221e-05
1.79209e-05
1.83874e-05
1.79223e-05
1.79213e-05
1.79331e-05
1.75391e-05
1.83883e-05
1.79222e-05
1.79222e-05
1.7539e-05
1.75064e-05
1.72177e-05
1.77784e-05
1.77781e-05
1.73839e-05
1.73837e-05
1.75065e-05
1.72177e-05
1.77792e-05
1.77779e-05
1.73847e-05
1.73835e-05
1.77783e-05
1.73847e-05
1.73838e-05
1.75064e-05
1.72176e-05
1.77791e-05
1.73846e-05
1.73846e-05
1.72173e-05
1.72005e-05
1.70264e-05
1.72648e-05
1.72646e-05
1.69412e-05
1.6941e-05
1.72004e-05
1.70263e-05
1.72655e-05
1.72644e-05
1.69419e-05
1.6941e-05
1.72647e-05
1.69419e-05
1.69411e-05
1.72003e-05
1.70265e-05
1.72656e-05
1.6942e-05
1.69419e-05
1.70262e-05
1.70232e-05
1.69731e-05
1.68459e-05
1.68458e-05
1.65923e-05
1.65922e-05
1.7023e-05
1.69729e-05
1.68466e-05
1.68458e-05
1.65929e-05
1.65921e-05
1.68459e-05
1.65928e-05
1.65922e-05
1.70232e-05
1.6973e-05
1.68467e-05
1.65929e-05
1.6593e-05
1.69729e-05
1.69824e-05
1.70436e-05
1.65208e-05
1.65205e-05
1.63369e-05
1.63368e-05
1.6982e-05
1.70434e-05
1.65215e-05
1.65206e-05
1.63375e-05
1.6337e-05
1.65208e-05
1.63372e-05
1.63369e-05
1.69823e-05
1.70439e-05
1.65215e-05
1.63375e-05
1.63376e-05
1.70437e-05
1.70791e-05
1.72436e-05
1.62894e-05
1.62893e-05
1.61754e-05
1.61754e-05
1.7079e-05
1.7243e-05
1.62899e-05
1.62895e-05
1.6176e-05
1.61756e-05
1.62893e-05
1.61756e-05
1.61754e-05
1.70795e-05
1.72436e-05
1.629e-05
1.61759e-05
1.6176e-05
1.72438e-05
1.73038e-05
1.75719e-05
1.61516e-05
1.61516e-05
1.61072e-05
1.61074e-05
1.73035e-05
1.75715e-05
1.61521e-05
1.61517e-05
1.61078e-05
1.61076e-05
1.61515e-05
1.61072e-05
1.61072e-05
1.7304e-05
1.75725e-05
1.61522e-05
1.61077e-05
1.61078e-05
1.75721e-05
1.7657e-05
1.80237e-05
1.61073e-05
1.61075e-05
1.61325e-05
1.61329e-05
1.76565e-05
1.8024e-05
1.61079e-05
1.61077e-05
1.6133e-05
1.61331e-05
1.61073e-05
1.61325e-05
1.61331e-05
1.76573e-05
1.80251e-05
1.61079e-05
1.61331e-05
1.61335e-05
1.80253e-05
1.81321e-05
1.85976e-05
1.6153e-05
1.61534e-05
1.6249e-05
1.62493e-05
1.81322e-05
1.85969e-05
1.61535e-05
1.61538e-05
1.62493e-05
1.62495e-05
1.61537e-05
1.62488e-05
1.62489e-05
1.81335e-05
1.85977e-05
1.61541e-05
1.62492e-05
1.62493e-05
1.85966e-05
1.8729e-05
1.92733e-05
1.6292e-05
1.62921e-05
1.64538e-05
1.64542e-05
1.87278e-05
1.92724e-05
1.62926e-05
1.62929e-05
1.64541e-05
1.6455e-05
1.6292e-05
1.64533e-05
1.64541e-05
1.87286e-05
1.92747e-05
1.62924e-05
1.64546e-05
1.64547e-05
1.92738e-05
1.94254e-05
2.00483e-05
1.65197e-05
1.65203e-05
1.67484e-05
1.67495e-05
1.94245e-05
2.00488e-05
1.65202e-05
1.65212e-05
1.67487e-05
1.67485e-05
1.65197e-05
1.67483e-05
1.67492e-05
1.94266e-05
2.00474e-05
1.65202e-05
1.67479e-05
1.67497e-05
2.00504e-05
2.02187e-05
2.09046e-05
1.68354e-05
1.6836e-05
1.71276e-05
1.71274e-05
2.0218e-05
2.09014e-05
1.68356e-05
1.68357e-05
1.71266e-05
1.71285e-05
1.68364e-05
1.71251e-05
1.71273e-05
2.0217e-05
2.09053e-05
1.68373e-05
1.7127e-05
1.71275e-05
2.0903e-05
2.10928e-05
2.18449e-05
1.72351e-05
1.72357e-05
1.75954e-05
1.75914e-05
2.1088e-05
2.18392e-05
1.72342e-05
1.72376e-05
1.75967e-05
1.75927e-05
1.72338e-05
1.75903e-05
1.75922e-05
2.10922e-05
2.184e-05
1.72341e-05
1.75912e-05
1.75917e-05
2.18352e-05
2.20474e-05
2.27863e-05
1.77224e-05
1.77189e-05
1.81145e-05
1.81252e-05
2.20388e-05
2.28073e-05
1.77236e-05
1.77187e-05
1.81121e-05
1.81234e-05
1.77211e-05
1.81232e-05
1.81248e-05
2.2038e-05
2.28031e-05
1.77209e-05
1.8121e-05
1.81249e-05
2.28085e-05
2.2995e-05
2.38502e-05
1.82594e-05
1.82668e-05
1.87409e-05
1.8741e-05
2.30171e-05
2.38439e-05
1.82576e-05
1.82669e-05
1.87418e-05
1.87437e-05
1.82683e-05
1.87401e-05
1.87386e-05
2.30112e-05
2.38509e-05
1.82686e-05
1.87419e-05
1.87376e-05
2.38467e-05
2.40847e-05
2.49442e-05
1.891e-05
1.89122e-05
1.94498e-05
1.94384e-05
2.40749e-05
2.49298e-05
1.89123e-05
1.89171e-05
1.945e-05
1.94387e-05
1.89097e-05
1.9433e-05
1.94384e-05
2.40806e-05
2.49385e-05
1.89103e-05
1.94375e-05
1.9439e-05
2.4929e-05
2.51681e-05
2.5935e-05
1.96279e-05
1.96219e-05
2.01484e-05
2.01625e-05
2.51579e-05
2.59561e-05
1.9628e-05
1.96204e-05
2.01434e-05
2.01673e-05
1.96091e-05
2.0163e-05
2.01718e-05
2.51642e-05
2.59597e-05
1.96053e-05
2.01644e-05
2.01689e-05
2.5966e-05
2.61493e-05
2.70406e-05
2.0331e-05
2.0339e-05
2.09541e-05
2.09405e-05
2.61753e-05
2.70122e-05
2.03217e-05
2.03424e-05
2.09485e-05
2.09267e-05
2.03646e-05
2.09331e-05
2.09515e-05
2.61767e-05
2.70039e-05
2.03626e-05
2.09302e-05
2.09501e-05
2.70351e-05
2.72993e-05
2.81703e-05
2.11779e-05
2.11677e-05
2.18496e-05
2.18566e-05
2.72654e-05
2.81861e-05
2.11801e-05
2.11689e-05
2.18577e-05
2.1865e-05
2.11571e-05
2.18526e-05
2.18148e-05
2.72605e-05
2.82031e-05
2.11638e-05
2.18496e-05
2.18169e-05
2.81397e-05
2.83869e-05
2.90991e-05
2.20608e-05
2.20725e-05
2.26314e-05
2.26543e-05
2.84124e-05
2.91032e-05
2.20648e-05
2.2071e-05
2.26264e-05
2.26642e-05
2.20534e-05
2.26652e-05
2.26933e-05
2.8423e-05
2.91092e-05
2.20461e-05
2.26678e-05
2.26881e-05
2.91469e-05
2.93373e-05
3.03445e-05
2.28546e-05
2.28502e-05
2.3747e-05
2.36401e-05
2.93104e-05
3.0258e-05
2.28484e-05
2.28606e-05
2.37476e-05
2.36693e-05
2.28747e-05
2.36175e-05
2.36225e-05
2.93294e-05
3.02829e-05
2.28689e-05
2.36727e-05
2.36237e-05
3.02039e-05
3.05958e-05
3.12147e-05
2.3992e-05
2.39647e-05
2.45377e-05
2.47013e-05
3.05495e-05
3.14079e-05
2.40054e-05
2.39808e-05
2.45069e-05
2.45798e-05
2.39066e-05
2.47137e-05
2.46949e-05
3.05584e-05
3.13116e-05
2.39201e-05
2.45837e-05
2.46816e-05
3.13977e-05
3.1414e-05
3.22808e-05
2.48181e-05
2.48719e-05
2.56485e-05
2.55715e-05
3.1583e-05
3.21626e-05
2.47455e-05
2.47971e-05
2.56581e-05
2.56998e-05
2.49651e-05
2.55565e-05
2.54882e-05
3.14952e-05
3.22638e-05
2.49226e-05
2.56583e-05
2.54933e-05
3.2167e-05
3.24953e-05
3.3237e-05
2.58044e-05
2.57617e-05
2.6418e-05
2.63502e-05
3.23625e-05
3.29926e-05
2.5895e-05
2.58354e-05
2.64785e-05
2.62784e-05
2.56439e-05
2.63304e-05
2.66702e-05
3.24579e-05
3.29234e-05
2.57003e-05
2.6292e-05
2.66883e-05
3.34662e-05
3.35351e-05
3.44222e-05
2.67775e-05
2.66491e-05
2.79862e-05
2.79585e-05
3.32707e-05
3.46458e-05
2.67823e-05
2.66798e-05
2.79041e-05
2.80893e-05
2.7092e-05
2.80153e-05
2.79746e-05
3.32433e-05
3.48522e-05
2.7075e-05
2.81157e-05
2.79171e-05
3.44381e-05
3.45099e-05
3.41119e-05
2.81615e-05
2.83188e-05
2.81282e-05
2.86507e-05
3.48767e-05
3.49791e-05
2.80596e-05
2.84115e-05
2.80366e-05
2.87404e-05
2.80196e-05
2.86028e-05
2.79168e-05
3.50449e-05
3.50293e-05
2.79599e-05
2.87063e-05
2.78843e-05
3.38813e-05
3.4168e-05
3.70979e-05
2.81293e-05
2.87013e-05
2.98531e-05
2.89615e-05
3.50064e-05
3.53941e-05
2.80554e-05
2.87512e-05
3.00664e-05
2.84578e-05
2.7898e-05
2.90371e-05
2.85114e-05
3.50432e-05
3.44492e-05
2.78836e-05
2.85299e-05
2.86708e-05
3.53892e-05
3.79092e-05
3.96437e-05
3.09049e-05
2.89513e-05
3.26353e-05
3.02554e-05
3.54689e-05
3.68873e-05
3.10269e-05
2.83404e-05
3.25718e-05
3.03776e-05
2.95799e-05
3.00475e-05
3.33912e-05
3.43885e-05
3.79663e-05
2.96089e-05
3.0099e-05
3.33331e-05
4.09149e-05
3.97868e-05
4.00526e-05
3.28956e-05
3.22821e-05
3.37435e-05
3.78331e-05
3.85537e-05
4.69365e-05
3.28432e-05
3.28709e-05
3.37701e-05
3.88752e-05
3.4515e-05
3.8034e-05
3.66974e-05
3.97281e-05
4.82799e-05
3.4496e-05
3.91002e-05
3.67971e-05
4.46056e-05
4.02178e-05
4.00827e-05
3.40806e-05
3.92185e-05
3.44362e-05
3.91755e-05
4.8044e-05
4.4381e-05
3.41119e-05
3.98297e-05
3.44102e-05
3.8322e-05
3.6826e-05
3.92964e-05
3.47014e-05
4.89754e-05
4.14567e-05
3.69264e-05
3.8409e-05
3.46377e-05
3.82983e-05
3.98489e-05
3.60553e-05
3.41844e-05
3.65866e-05
3.0929e-05
2.5107e-05
4.17405e-05
2.49565e-05
3.40848e-05
3.41609e-05
3.08115e-05
2.4681e-05
3.22776e-05
2.51923e-05
2.69e-05
3.8639e-05
2.5306e-05
3.21409e-05
2.47473e-05
2.68426e-05
3.07787e-05
3.58296e-05
3.38731e-05
3.00136e-05
2.32994e-05
2.86074e-05
2.2556e-05
2.40897e-05
2.92669e-05
2.9974e-05
2.39608e-05
2.87488e-05
2.56784e-05
2.52564e-05
2.22671e-05
2.33563e-05
2.52791e-05
3.40285e-05
2.52223e-05
2.48329e-05
2.34289e-05
2.69418e-05
3.36268e-05
3.14888e-05
2.78342e-05
2.40927e-05
2.71338e-05
3.66729e-05
3.15759e-05
4.43529e-05
2.79891e-05
2.82215e-05
2.7201e-05
3.51974e-05
2.40953e-05
3.71443e-05
3.7767e-05
3.54675e-05
4.19254e-05
2.42454e-05
3.57352e-05
3.78014e-05
4.66498e-05
3.26284e-05
4.70371e-05
2.81126e-05
3.96615e-05
4.02243e-05
4.4597e-05
4.60352e-05
5.13736e-05
2.80695e-05
3.74767e-05
4.00562e-05
4.25325e-05
4.05337e-05
4.51836e-05
4.18308e-05
4.332e-05
4.94259e-05
4.04229e-05
4.30594e-05
4.16439e-05
4.60661e-05
4.82298e-05
4.99753e-05
4.25648e-05
4.47917e-05
4.45887e-05
4.16589e-05
5.13824e-05
4.35895e-05
4.24885e-05
4.28831e-05
4.45577e-05
4.03851e-05
4.08374e-05
4.10379e-05
3.72579e-05
4.95792e-05
4.22222e-05
4.06907e-05
3.98148e-05
3.72054e-05
3.85264e-05
4.97412e-05
4.3117e-05
4.44797e-05
3.95036e-05
3.99808e-05
3.61494e-05
4.26034e-05
3.98335e-05
4.44281e-05
3.8103e-05
3.98461e-05
3.56076e-05
3.73565e-05
3.61014e-05
4.27333e-05
4.08636e-05
3.82791e-05
3.72932e-05
3.54791e-05
4.25155e-05
4.97222e-05
4.23563e-05
3.93231e-05
3.83227e-05
3.57871e-05
3.61093e-05
3.61681e-05
3.98502e-05
4.20724e-05
3.82325e-05
3.5744e-05
3.61809e-05
4.07936e-05
4.42789e-05
3.70723e-05
4.49143e-05
3.94885e-05
4.73006e-05
4.41254e-05
4.17242e-05
4.4929e-05
4.98446e-05
3.95307e-05
4.71258e-05
3.61709e-05
3.76387e-05
4.09213e-05
4.21436e-05
4.32005e-05
4.71343e-05
3.6263e-05
4.23598e-05
4.11872e-05
4.46108e-05
4.41024e-05
4.21602e-05
3.87567e-05
4.81433e-05
4.99027e-05
4.42333e-05
4.47203e-05
3.88794e-05
4.09982e-05
4.79814e-05
4.84486e-05
4.25935e-05
4.28916e-05
4.39503e-05
4.36011e-05
4.74958e-05
4.77071e-05
4.27892e-05
4.46684e-05
4.39999e-05
4.27776e-05
3.80108e-05
4.31119e-05
3.79669e-05
4.98657e-05
4.57213e-05
3.80788e-05
4.22352e-05
3.79736e-05
4.27714e-05
4.81377e-05
4.54409e-05
4.38669e-05
4.36038e-05
4.21733e-05
4.29191e-05
4.76946e-05
4.6885e-05
4.38853e-05
4.16992e-05
4.20052e-05
3.98186e-05
3.88296e-05
4.28791e-05
4.25633e-05
4.53176e-05
4.32906e-05
3.87682e-05
3.98091e-05
4.22994e-05
4.70365e-05
4.53668e-05
4.5351e-05
4.17775e-05
4.25902e-05
4.1452e-05
4.18612e-05
4.68004e-05
4.56515e-05
4.15981e-05
3.96026e-05
4.12928e-05
3.99502e-05
4.30817e-05
4.2038e-05
4.34863e-05
4.32736e-05
4.47515e-05
4.28081e-05
4.01627e-05
4.33508e-05
4.74139e-05
4.55703e-05
4.71308e-05
4.14883e-05
4.16899e-05
4.27808e-05
4.16601e-05
4.56071e-05
4.5671e-05
4.13522e-05
4.10388e-05
4.2971e-05
4.3946e-05
4.34834e-05
4.17879e-05
4.33892e-05
4.55675e-05
4.82247e-05
4.33943e-05
4.39939e-05
4.3455e-05
4.72639e-05
4.74174e-05
4.80048e-05
4.32639e-05
4.19501e-05
4.42199e-05
4.4029e-05
4.60636e-05
4.7995e-05
4.34859e-05
4.43953e-05
4.43285e-05
4.47939e-05
4.33889e-05
4.39571e-05
4.36679e-05
4.84641e-05
4.84489e-05
4.34789e-05
4.47519e-05
4.38736e-05
4.75951e-05
4.80951e-05
4.83703e-05
4.44061e-05
4.44455e-05
4.48342e-05
4.49336e-05
4.82207e-05
4.84335e-05
4.44534e-05
4.47937e-05
4.47643e-05
4.46134e-05
4.4003e-05
4.49305e-05
4.47135e-05
4.84343e-05
4.7993e-05
4.41089e-05
4.45971e-05
4.46515e-05
4.82556e-05
4.84763e-05
4.8697e-05
4.49761e-05
4.49497e-05
4.52619e-05
4.50138e-05
4.84488e-05
4.84591e-05
4.49005e-05
4.45689e-05
4.52285e-05
4.46256e-05
4.48371e-05
4.50011e-05
4.50443e-05
4.7999e-05
4.81758e-05
4.47654e-05
4.46096e-05
4.50132e-05
4.8508e-05
4.87396e-05
4.888e-05
4.52892e-05
4.51642e-05
4.55241e-05
4.58682e-05
4.85968e-05
4.92866e-05
4.5268e-05
4.48635e-05
4.55325e-05
4.584e-05
4.51407e-05
4.58844e-05
4.57122e-05
4.83912e-05
4.92809e-05
4.51247e-05
4.58624e-05
4.57174e-05
4.90775e-05
4.90187e-05
4.96125e-05
4.57447e-05
4.60674e-05
4.64087e-05
4.64393e-05
4.94152e-05
4.96114e-05
4.57515e-05
4.60736e-05
4.64125e-05
4.64605e-05
4.59348e-05
4.64377e-05
4.63349e-05
4.94235e-05
4.96288e-05
4.59418e-05
4.64629e-05
4.63392e-05
4.95201e-05
4.96936e-05
4.98297e-05
4.65228e-05
4.64896e-05
4.67409e-05
4.66969e-05
4.96484e-05
4.97773e-05
4.65246e-05
4.65039e-05
4.67393e-05
4.67168e-05
4.64082e-05
4.66974e-05
4.68198e-05
4.96629e-05
4.98017e-05
4.64102e-05
4.67183e-05
4.68186e-05
4.99216e-05
4.99206e-05
5.04332e-05
4.68776e-05
4.68411e-05
4.74263e-05
4.73867e-05
4.989e-05
5.03994e-05
4.68774e-05
4.68711e-05
4.74305e-05
4.74174e-05
4.70149e-05
4.73978e-05
4.74622e-05
4.99232e-05
5.04251e-05
4.70146e-05
4.74307e-05
4.74667e-05
5.04526e-05
5.05422e-05
5.07431e-05
4.75781e-05
4.75511e-05
4.78825e-05
4.79173e-05
5.05125e-05
5.07747e-05
4.75818e-05
4.7564e-05
4.78768e-05
4.78715e-05
4.75539e-05
4.79086e-05
4.78646e-05
5.05231e-05
5.07285e-05
4.75578e-05
4.78652e-05
4.78592e-05
5.07205e-05
5.08141e-05
5.1181e-05
4.79817e-05
4.80154e-05
4.83951e-05
4.83591e-05
5.08507e-05
5.1137e-05
4.79745e-05
4.79728e-05
4.83951e-05
4.83889e-05
4.80013e-05
4.83652e-05
4.84121e-05
5.08052e-05
5.11782e-05
4.79942e-05
4.83956e-05
4.84124e-05
5.11982e-05
5.1291e-05
5.15226e-05
4.85432e-05
4.84977e-05
4.88558e-05
4.88634e-05
5.12352e-05
5.15281e-05
4.85467e-05
4.85418e-05
4.88588e-05
4.88722e-05
4.85293e-05
4.88577e-05
4.88075e-05
5.12882e-05
5.15317e-05
4.85329e-05
4.88699e-05
4.88107e-05
5.14659e-05
5.1578e-05
5.18156e-05
4.89269e-05
4.89493e-05
4.92236e-05
4.923e-05
5.15972e-05
5.18312e-05
4.89275e-05
4.89399e-05
4.92203e-05
4.92106e-05
4.88922e-05
4.92301e-05
4.92415e-05
5.15871e-05
5.18088e-05
4.88928e-05
4.92107e-05
4.92386e-05
5.18485e-05
5.19178e-05
5.21858e-05
4.93572e-05
4.93614e-05
4.96929e-05
4.9724e-05
5.19276e-05
5.22091e-05
4.93547e-05
4.9348e-05
4.96915e-05
4.97166e-05
4.93882e-05
4.97304e-05
4.97155e-05
5.19114e-05
5.22065e-05
4.9386e-05
4.97256e-05
4.97141e-05
5.2196e-05
5.22373e-05
5.23703e-05
4.97629e-05
4.97884e-05
4.99546e-05
4.99183e-05
5.22577e-05
5.23347e-05
4.97612e-05
4.97813e-05
4.99547e-05
4.99272e-05
4.9764e-05
4.99137e-05
4.99339e-05
5.22556e-05
5.23444e-05
4.97623e-05
4.99241e-05
4.99344e-05
5.23504e-05
5.24421e-05
5.27481e-05
5.0042e-05
5.00026e-05
5.0363e-05
5.03673e-05
5.2396e-05
5.27547e-05
5.00437e-05
5.00176e-05
5.03646e-05
5.03707e-05
5.00421e-05
5.03731e-05
5.03928e-05
5.24095e-05
5.27561e-05
5.0044e-05
5.03777e-05
5.03945e-05
5.2779e-05
5.28313e-05
5.30348e-05
5.04736e-05
5.04831e-05
5.07702e-05
5.07698e-05
5.28455e-05
5.30383e-05
5.04736e-05
5.04769e-05
5.0767e-05
5.07618e-05
5.04881e-05
5.07681e-05
5.07502e-05
5.28409e-05
5.30337e-05
5.04881e-05
5.07614e-05
5.07474e-05
5.30147e-05
5.30777e-05
5.30787e-05
5.08329e-05
5.0837e-05
5.08843e-05
5.0902e-05
5.30813e-05
5.3098e-05
5.0831e-05
5.08382e-05
5.08862e-05
5.09155e-05
5.08192e-05
5.09022e-05
5.08933e-05
5.30827e-05
5.31129e-05
5.08176e-05
5.09187e-05
5.08955e-05
5.30937e-05
5.31021e-05
5.33913e-05
5.09008e-05
5.09158e-05
5.11727e-05
5.1156e-05
5.31208e-05
5.33693e-05
5.09031e-05
5.0925e-05
5.11706e-05
5.11397e-05
5.09125e-05
5.11587e-05
5.11712e-05
5.31303e-05
5.33497e-05
5.09145e-05
5.11425e-05
5.11695e-05
5.33847e-05
5.35055e-05
5.37703e-05
5.13135e-05
5.12958e-05
5.16546e-05
5.16535e-05
5.34828e-05
5.37689e-05
5.13108e-05
5.12819e-05
5.16535e-05
5.1651e-05
5.13091e-05
5.16536e-05
5.1654e-05
5.34656e-05
5.37696e-05
5.13071e-05
5.16526e-05
5.16535e-05
5.37684e-05
5.38006e-05
5.36649e-05
5.16993e-05
5.1707e-05
5.16857e-05
5.17071e-05
5.38042e-05
5.36923e-05
5.16992e-05
5.17076e-05
5.16866e-05
5.1711e-05
5.17033e-05
5.17088e-05
5.16979e-05
5.38063e-05
5.36983e-05
5.17034e-05
5.17155e-05
5.16984e-05
5.36803e-05
5.367e-05
5.38635e-05
5.16601e-05
5.16781e-05
5.17376e-05
5.17206e-05
5.36969e-05
5.38281e-05
5.16612e-05
5.16832e-05
5.17383e-05
5.17256e-05
5.16707e-05
5.17224e-05
5.17294e-05
5.3703e-05
5.38333e-05
5.16713e-05
5.17276e-05
5.17303e-05
5.38437e-05
5.39952e-05
5.42804e-05
5.19114e-05
5.18689e-05
5.22728e-05
5.22702e-05
5.39497e-05
5.42769e-05
5.19116e-05
5.1871e-05
5.22719e-05
5.22629e-05
5.18922e-05
5.22706e-05
5.22783e-05
5.39522e-05
5.42673e-05
5.18932e-05
5.22647e-05
5.2278e-05
5.42892e-05
5.43034e-05
5.41621e-05
5.23084e-05
5.23205e-05
5.22932e-05
5.23212e-05
5.43106e-05
5.41991e-05
5.23075e-05
5.23123e-05
5.22926e-05
5.23135e-05
5.23217e-05
5.23249e-05
5.23127e-05
5.43006e-05
5.41947e-05
5.2321e-05
5.23199e-05
5.23115e-05
5.4178e-05
5.41655e-05
5.42032e-05
5.22583e-05
5.22834e-05
5.22457e-05
5.22387e-05
5.41999e-05
5.41596e-05
5.2258e-05
5.22776e-05
5.22462e-05
5.22403e-05
5.22716e-05
5.22399e-05
5.22379e-05
5.41962e-05
5.4168e-05
5.22704e-05
5.22427e-05
5.2238e-05
5.41708e-05
5.42805e-05
5.45303e-05
5.22986e-05
5.22647e-05
5.26087e-05
5.26029e-05
5.4224e-05
5.45377e-05
5.23002e-05
5.22714e-05
5.26095e-05
5.26068e-05
5.22744e-05
5.26036e-05
5.2617e-05
5.42346e-05
5.45387e-05
5.22757e-05
5.26082e-05
5.26185e-05
5.45516e-05
5.45669e-05
5.45255e-05
5.2663e-05
5.26749e-05
5.2689e-05
5.27199e-05
5.45849e-05
5.45659e-05
5.26633e-05
5.2674e-05
5.26883e-05
5.27127e-05
5.26801e-05
5.27247e-05
5.27108e-05
5.45836e-05
5.45576e-05
5.26807e-05
5.27199e-05
5.271e-05
5.45424e-05
5.45319e-05
5.45127e-05
5.26754e-05
5.27094e-05
5.2655e-05
5.26589e-05
5.4571e-05
5.44943e-05
5.26745e-05
5.27008e-05
5.26548e-05
5.26568e-05
5.26952e-05
5.2661e-05
5.26536e-05
5.45628e-05
5.4496e-05
5.2694e-05
5.26603e-05
5.26533e-05
5.4494e-05
5.45534e-05
5.46593e-05
5.26703e-05
5.26612e-05
5.28135e-05
5.27876e-05
5.45227e-05
5.46365e-05
5.26709e-05
5.26608e-05
5.2814e-05
5.27856e-05
5.26597e-05
5.27863e-05
5.2811e-05
5.45276e-05
5.46336e-05
5.26599e-05
5.27851e-05
5.28118e-05
5.46624e-05
5.4684e-05
5.46409e-05
5.2836e-05
5.28281e-05
5.28336e-05
5.28526e-05
5.46705e-05
5.46739e-05
5.28357e-05
5.28222e-05
5.28333e-05
5.28506e-05
5.28444e-05
5.28566e-05
5.28497e-05
5.46652e-05
5.46751e-05
5.28443e-05
5.28567e-05
5.28489e-05
5.46548e-05
5.46496e-05
5.47146e-05
5.28284e-05
5.28483e-05
5.28767e-05
5.2868e-05
5.46828e-05
5.4701e-05
5.28287e-05
5.285e-05
5.28795e-05
5.2879e-05
5.28378e-05
5.28668e-05
5.28533e-05
5.46865e-05
5.47084e-05
5.28377e-05
5.28764e-05
5.28551e-05
5.46882e-05
5.47656e-05
5.47979e-05
5.29319e-05
5.29148e-05
5.2979e-05
5.29684e-05
5.47443e-05
5.4787e-05
5.29328e-05
5.29163e-05
5.29779e-05
5.29591e-05
5.29092e-05
5.29704e-05
5.29867e-05
5.47435e-05
5.47748e-05
5.29114e-05
5.29625e-05
5.29858e-05
5.48169e-05
5.47963e-05
5.45474e-05
5.29678e-05
5.29619e-05
5.28115e-05
5.28272e-05
5.47897e-05
5.45731e-05
5.29669e-05
5.29535e-05
5.28128e-05
5.28295e-05
5.29806e-05
5.28318e-05
5.28259e-05
5.47787e-05
5.45814e-05
5.29797e-05
5.28355e-05
5.28268e-05
5.45612e-05
5.4556e-05
5.4834e-05
5.27997e-05
5.28141e-05
5.29348e-05
5.2928e-05
5.45812e-05
5.48203e-05
5.28011e-05
5.28163e-05
5.29339e-05
5.29228e-05
5.2807e-05
5.29264e-05
5.29087e-05
5.45892e-05
5.48113e-05
5.28081e-05
5.29214e-05
5.29085e-05
5.48015e-05
5.49249e-05
5.48116e-05
5.30369e-05
5.30242e-05
5.30657e-05
5.30509e-05
5.49048e-05
5.47918e-05
5.30357e-05
5.30201e-05
5.3066e-05
5.30542e-05
5.30159e-05
5.30503e-05
5.30602e-05
5.48958e-05
5.48073e-05
5.30152e-05
5.30552e-05
5.30602e-05
5.48207e-05
5.47624e-05
5.42402e-05
5.29832e-05
5.2972e-05
5.25635e-05
5.25827e-05
5.47463e-05
5.42705e-05
5.29859e-05
5.29833e-05
5.25652e-05
5.25775e-05
5.29934e-05
5.25894e-05
5.25914e-05
5.47639e-05
5.42602e-05
5.29949e-05
5.25847e-05
5.25924e-05
5.42771e-05
5.42485e-05
5.46857e-05
5.25383e-05
5.25624e-05
5.27283e-05
5.2751e-05
5.42824e-05
5.47078e-05
5.25387e-05
5.25515e-05
5.27227e-05
5.27277e-05
5.25645e-05
5.27548e-05
5.27204e-05
5.42686e-05
5.46871e-05
5.25643e-05
5.27318e-05
5.2716e-05
5.46653e-05
5.48242e-05
5.49445e-05
5.29153e-05
5.29161e-05
5.30935e-05
5.3058e-05
5.48287e-05
5.48724e-05
5.29114e-05
5.2907e-05
5.30953e-05
5.30745e-05
5.28879e-05
5.30525e-05
5.30577e-05
5.4819e-05
5.49091e-05
5.28852e-05
5.3071e-05
5.30597e-05
5.48947e-05
5.49214e-05
5.43445e-05
5.30789e-05
5.30413e-05
5.26559e-05
5.26684e-05
5.48497e-05
5.43818e-05
5.30817e-05
5.30602e-05
5.26587e-05
5.26677e-05
5.30498e-05
5.26771e-05
5.27057e-05
5.48861e-05
5.43689e-05
5.30523e-05
5.26767e-05
5.27074e-05
5.44109e-05
5.43375e-05
5.4275e-05
5.25733e-05
5.26036e-05
5.24555e-05
5.24853e-05
5.43814e-05
5.431e-05
5.25737e-05
5.25942e-05
5.24535e-05
5.2469e-05
5.26284e-05
5.24916e-05
5.24636e-05
5.4366e-05
5.42933e-05
5.26282e-05
5.24757e-05
5.24619e-05
5.42772e-05
5.42997e-05
5.41951e-05
5.24557e-05
5.2474e-05
5.2351e-05
5.23397e-05
5.43264e-05
5.41754e-05
5.24536e-05
5.24606e-05
5.23512e-05
5.23319e-05
5.2449e-05
5.23387e-05
5.23227e-05
5.43114e-05
5.41686e-05
5.24474e-05
5.23321e-05
5.23226e-05
5.4159e-05
5.40697e-05
5.14291e-05
5.14086e-05
5.40427e-05
5.14299e-05
5.14047e-05
4.17676e-05
4.17627e-05
4.1762e-05
5.14034e-05
5.40385e-05
5.14041e-05
3.73773e-05
3.73765e-05
3.7377e-05
3.7377e-05
3.73701e-05
3.73777e-05
3.73043e-05
3.73768e-05
3.73702e-05
3.73777e-05
3.73768e-05
3.73043e-05
3.73741e-05
3.72959e-05
3.72959e-05
3.58798e-05
4.08721e-05
3.66033e-05
4.51466e-05
5.51147e-05
6.48951e-05
3.58803e-05
4.08713e-05
3.66034e-05
4.51464e-05
3.58932e-05
3.58933e-05
3.58932e-05
3.44005e-05
3.44005e-05
3.44005e-05
3.44005e-05
3.52758e-05
3.56384e-05
3.58929e-05
3.53771e-05
3.60475e-05
3.42365e-05
3.53822e-05
5.51168e-05
6.48993e-05
3.52758e-05
3.58929e-05
3.5638e-05
3.53771e-05
3.60474e-05
3.53822e-05
3.42375e-05
3.65971e-05
3.65977e-05
3.5279e-05
3.40642e-05
3.40633e-05
3.39657e-05
5.13534e-05
3.46792e-05
5.46246e-05
7.65448e-05
8.08614e-05
3.39682e-05
5.13545e-05
3.46789e-05
5.46252e-05
3.39296e-05
3.39297e-05
3.39297e-05
3.25855e-05
3.25854e-05
3.25855e-05
3.25855e-05