/*--------------------------------*- C++ -*----------------------------------*\
| =========                 |                                                 |
| \\      /  F ield         | OpenFOAM: The Open Source CFD Toolbox           |
|  \\    /   O peration     | Version:  v2012                                 |
|   \\  /    A nd           | Website:  www.openfoam.com                      |
|    \\/     M anipulation  |                                                 |
\*---------------------------------------------------------------------------*/
FoamFile
{
    version     2.0;
    format      ascii;
    class       volScalarField;
    location    "1000";
    object      nut;
}
// * * * * * * * * * * * * * * * * * * * * * * * * * * * * * * * * * * * * * //

dimensions      [0 2 -1 0 0 0 0];


internalField   nonuniform List<scalar> 
171728
(
0.000233973
0.000233116
0.000233116
0.000233423
0.000232532
0.000227802
0.000227801
0.000223866
0.000230516
0.00022032
0.000220318
0.000209109
0.000227799
0.000211665
0.000211661
0.000193785
0.000224433
0.00020265
0.000202644
0.000179709
0.000220552
0.000193772
0.000193765
0.000167339
0.000216304
0.000185275
0.000185267
0.000156587
0.00021182
0.000177234
0.000177226
0.000147206
0.000207207
0.000169688
0.00016968
0.00013895
0.000202545
0.000162611
0.000162603
0.000131615
0.000197889
0.000155949
0.000155941
0.000124953
0.000193275
0.000149646
0.000149637
0.000118816
0.000188682
0.000143665
0.000143656
0.000113169
0.00018415
0.000137951
0.000137943
0.00010793
0.000179706
0.000132461
0.000132453
0.000103053
0.000175337
0.000127188
0.000127179
9.843e-05
0.000171035
0.000122151
0.000122141
9.42509e-05
0.000166786
0.00011737
0.000117361
9.06624e-05
0.000162587
0.00011289
0.00011288
8.77339e-05
0.000158414
0.000108757
0.000108745
8.53861e-05
0.000154264
0.000105028
0.000105017
8.36725e-05
0.000150141
0.00010171
0.000101704
8.25881e-05
0.00014606
9.8894e-05
9.88873e-05
8.20977e-05
0.000142043
9.65797e-05
9.65827e-05
8.21329e-05
0.000138102
9.47899e-05
9.47763e-05
8.27058e-05
0.000134285
9.34953e-05
9.35094e-05
8.36248e-05
0.000130692
9.27846e-05
9.27738e-05
8.50528e-05
0.000127032
9.23713e-05
9.23291e-05
8.65557e-05
0.00012386
9.26569e-05
9.26832e-05
8.86469e-05
0.000121127
9.34523e-05
9.34608e-05
9.09597e-05
0.000118042
9.41436e-05
9.41138e-05
9.31525e-05
0.00011576
9.54026e-05
9.54803e-05
9.54617e-05
0.00011403
9.7727e-05
9.76077e-05
9.837e-05
0.000111433
9.84093e-05
9.84375e-05
0.000100333
0.000111494
0.000101767
0.000102208
0.000103251
0.000109308
0.000104529
0.000103585
0.000106947
0.00010932
0.000105731
0.000106206
0.00010749
0.000107956
0.000106843
0.000106932
0.000114134
0.00011201
0.000116213
0.000116858
0.000116132
0.000102652
0.000114663
0.000117087
0.000106364
0.000108656
0.000106363
0.000100686
0.000107168
0.000122714
0.000113617
0.000116826
0.000140958
0.000128926
0.000184879
0.000196982
0.000175229
0.000137756
0.000206187
0.000176578
0.000145804
0.000113889
8.09378e-05
7.89063e-05
9.3864e-05
9.01295e-05
5.89326e-05
8.11e-05
6.58773e-05
5.41233e-05
0.000151982
0.00014122
0.000174928
0.000133881
0.000208022
0.000193142
0.000156477
0.000205346
0.000161438
0.000149138
0.000107938
0.000168936
0.000127382
0.000117638
0.000182291
0.000111173
0.000138716
0.000166674
0.000184057
0.000128713
0.000164598
0.00018788
0.000125662
0.000168083
0.000168927
0.000163175
0.0001363
0.000158192
0.000166034
0.000143632
0.000157737
0.000139337
0.000157504
0.000149133
0.000158245
0.00014135
0.000153036
0.000169917
0.000155803
0.000154935
0.000168188
0.000172437
0.000157424
0.000159701
0.000170949
0.000168468
0.000160151
0.000161708
0.000169878
0.00016767
0.000160482
0.000161117
0.00017532
0.000175315
0.000163252
0.000167126
0.000176737
0.000176818
0.000164499
0.000169099
0.000177489
0.00017769
0.000166441
0.000173687
0.000181086
0.000181256
0.000168451
0.000176963
0.000183086
0.000182705
0.000169453
0.000180669
0.000185324
0.000185641
0.000171578
0.000184199
0.000187411
0.000187405
0.000172399
0.000186921
0.000189392
0.000189276
0.00017435
0.00019068
0.000191818
0.000191749
0.000175666
0.000192841
0.000192228
0.000192338
0.000176199
0.000196056
0.000195019
0.00019497
0.000178367
0.000200029
0.000197267
0.000197265
0.000179477
0.00020115
0.000197104
0.000197213
0.000179335
0.000203351
0.000199105
0.000198982
0.000181139
0.000208457
0.000202224
0.000202215
0.000183225
0.000209075
0.00020169
0.000201737
0.000182181
0.00021001
0.000202303
0.000202319
0.000183373
0.00021515
0.000205966
0.000205907
0.000185881
0.000216388
0.000205859
0.000205806
0.000185026
0.000216045
0.000205082
0.000205123
0.000184979
0.000220061
0.000208348
0.000208358
0.000187344
0.000222009
0.000209013
0.000208949
0.000187312
0.000222349
0.000208598
0.000208595
0.000187058
0.000224691
0.000210061
0.000210003
0.000188278
0.000225627
0.000210495
0.000210508
0.000188186
0.000227264
0.000211169
0.000211207
0.000188736
0.000229278
0.000212234
0.000212157
0.000189779
0.000228782
0.000211168
0.000211189
0.00018802
0.00023067
0.000213276
0.000213205
0.000190439
0.00023328
0.000214165
0.000214283
0.000190768
0.000230431
0.000210615
0.000210528
0.000187027
0.000231155
0.000213346
0.000213204
0.000190116
0.00023664
0.000215826
0.000216019
0.000191952
0.000235275
0.000213274
0.000213231
0.000189398
0.000233417
0.0002126
0.000212472
0.000188733
0.00023587
0.000214274
0.00021418
0.000192713
0.000234266
0.000234448
0.000234449
0.000234267
0.000234448
0.000234449
0.000234274
0.000234274
0.000234274
0.000234274
0.000234448
0.000234448
0.000234266
0.000234448
0.000234448
0.000234266
0.000233423
0.000226204
0.000233116
0.000233114
0.000229361
0.000229357
0.000233423
0.000226205
0.000233114
0.000233114
0.000229359
0.000229356
0.000233116
0.000229364
0.000229361
0.000233423
0.000226202
0.000233114
0.000229363
0.000229359
0.000226203
0.000223867
0.00021223
0.000227799
0.000227794
0.000222332
0.000222326
0.000223868
0.000212234
0.000227797
0.000227792
0.000222332
0.000222323
0.000227798
0.000222339
0.000222331
0.000223866
0.000212227
0.000227797
0.000222336
0.000222331
0.000212228
0.000209111
0.000197061
0.000220313
0.000220307
0.000213879
0.000213874
0.000209112
0.000197066
0.000220314
0.000220304
0.000213883
0.000213869
0.000220311
0.00021389
0.000213877
0.000209107
0.000197057
0.000220313
0.000213886
0.000213882
0.000197058
0.000193788
0.000182876
0.000211654
0.000211648
0.00020489
0.000204884
0.000193792
0.000182883
0.000211658
0.000211643
0.000204898
0.000204879
0.000211651
0.000204905
0.000204887
0.000193784
0.000182872
0.000211657
0.000204899
0.000204896
0.000182873
0.000179713
0.000170268
0.000202634
0.000202628
0.000195943
0.000195937
0.000179717
0.000170274
0.000202643
0.000202622
0.000195954
0.000195931
0.000202631
0.000195962
0.00019594
0.000179708
0.000170263
0.000202641
0.000195955
0.000195953
0.000170264
0.000167344
0.000159242
0.000193753
0.000193747
0.000187336
0.000187331
0.000167349
0.000159249
0.000193765
0.00019374
0.000187351
0.000187324
0.000193749
0.000187359
0.000187334
0.000167339
0.000159238
0.000193763
0.000187351
0.00018735
0.000159238
0.000156592
0.000149614
0.000185253
0.000185247
0.000179173
0.000179168
0.000156597
0.00014962
0.000185268
0.00018524
0.000179191
0.00017916
0.000185249
0.000179198
0.00017917
0.000156587
0.000149608
0.000185267
0.00017919
0.00017919
0.000149608
0.000147212
0.000141107
0.000177208
0.000177203
0.000171501
0.000171496
0.000147217
0.000141114
0.000177227
0.000177195
0.000171521
0.000171488
0.000177205
0.000171529
0.000171499
0.000147206
0.000141101
0.000177226
0.00017152
0.000171521
0.000141101
0.000138957
0.000133548
0.00016966
0.000169655
0.000164309
0.000164304
0.000138961
0.000133554
0.000169682
0.000169647
0.000164333
0.000164296
0.000169657
0.00016434
0.000164307
0.00013895
0.000133541
0.00016968
0.000164331
0.000164332
0.000133541
0.000131622
0.000126686
0.00016258
0.000162576
0.000157546
0.000157541
0.000131627
0.000126693
0.000162604
0.000162567
0.000157571
0.000157533
0.000162579
0.000157579
0.000157545
0.000131615
0.00012668
0.000162604
0.00015757
0.000157572
0.000126679
0.00012496
0.000120362
0.000155916
0.000155912
0.000151158
0.000151153
0.000124966
0.000120369
0.000155942
0.000155903
0.000151185
0.000151145
0.000155915
0.000151192
0.000151157
0.000124954
0.000120356
0.000155942
0.000151183
0.000151184
0.000120355
0.000118822
0.000114426
0.000149612
0.000149606
0.000145097
0.000145091
0.000118828
0.000114433
0.000149639
0.000149598
0.000145125
0.000145083
0.000149611
0.000145133
0.000145096
0.000118817
0.000114419
0.000149639
0.000145124
0.000145125
0.000114418
0.000113175
0.000108833
0.000143629
0.000143624
0.000139318
0.000139313
0.00011318
0.000108842
0.000143657
0.000143616
0.000139347
0.000139305
0.000143628
0.000139356
0.000139318
0.000113168
0.000108829
0.000143657
0.000139347
0.000139347
0.000108826
0.000107938
0.000103699
0.000137916
0.000137908
0.000133774
0.000133768
0.000107944
0.000103706
0.000137943
0.000137901
0.000133804
0.000133761
0.000137915
0.000133813
0.000133776
0.000107932
0.000103694
0.000137944
0.000133804
0.000133806
0.000103693
0.000103059
9.91239e-05
0.000132424
0.000132417
0.000128446
0.000128437
0.000103066
9.91294e-05
0.000132453
0.000132409
0.000128473
0.000128429
0.000132424
0.000128483
0.000128446
0.000103055
9.91171e-05
0.000132453
0.000128474
0.000128474
9.91144e-05
9.84391e-05
9.49885e-05
0.00012715
0.000127142
0.000123345
0.000123337
9.84431e-05
9.49943e-05
0.000127177
0.000127134
0.00012337
0.000123329
0.000127151
0.000123385
0.000123346
9.84321e-05
9.49846e-05
0.000127179
0.000123374
0.000123374
9.49818e-05
9.4258e-05
9.14388e-05
0.000122111
0.000122104
0.000118478
0.000118472
9.42638e-05
9.14437e-05
0.000122137
0.000122096
0.000118503
0.000118461
0.000122112
0.000118518
0.000118481
9.42538e-05
9.14315e-05
0.000122141
0.000118507
0.000118508
9.14309e-05
9.06668e-05
8.83761e-05
0.000117332
0.000117324
0.000113921
0.000113916
9.06716e-05
8.83834e-05
0.000117357
0.000117315
0.000113945
0.000113907
0.000117336
0.000113962
0.000113927
9.06604e-05
8.83753e-05
0.000117362
0.000113952
0.000113952
8.83745e-05
8.77345e-05
8.59086e-05
0.000112849
0.000112843
0.000109691
0.000109686
8.77446e-05
8.59142e-05
0.000112872
0.000112834
0.000109715
0.000109677
0.000112853
0.000109732
0.000109698
8.77376e-05
8.59051e-05
0.000112878
0.000109722
0.000109722
8.59073e-05
8.53894e-05
8.40729e-05
0.000108717
0.00010871
0.000105852
0.000105843
8.53966e-05
8.40775e-05
0.000108739
0.000108699
0.000105873
0.000105834
0.000108721
0.000105889
0.000105854
8.53863e-05
8.40691e-05
0.000108746
0.000105878
0.000105877
8.40664e-05
8.36804e-05
8.2849e-05
0.000104992
0.000104982
0.000102454
0.000102445
8.3681e-05
8.28606e-05
0.000105012
0.000104973
0.000102472
0.000102435
0.000104994
0.00010249
0.000102463
8.36718e-05
8.28527e-05
0.000105017
0.000102482
0.000102484
8.28599e-05
8.2571e-05
8.22688e-05
0.000101676
0.000101666
9.95242e-05
9.95099e-05
8.25809e-05
8.22738e-05
0.000101694
0.000101659
9.95386e-05
9.95006e-05
0.000101685
9.95566e-05
9.95247e-05
8.25765e-05
8.22622e-05
0.000101707
9.9545e-05
9.95449e-05
8.22582e-05
8.21106e-05
8.21914e-05
9.8866e-05
9.88481e-05
9.70723e-05
9.70577e-05
8.21109e-05
8.21935e-05
9.88836e-05
9.88472e-05
9.70869e-05
9.70592e-05
9.88667e-05
9.71015e-05
9.70744e-05
8.21016e-05
8.21984e-05
9.88862e-05
9.71024e-05
9.70952e-05
8.21854e-05
8.21401e-05
8.26419e-05
9.65486e-05
9.65371e-05
9.51578e-05
9.51525e-05
8.21412e-05
8.26603e-05
9.65662e-05
9.65393e-05
9.51747e-05
9.51272e-05
9.65485e-05
9.51968e-05
9.51683e-05
8.21464e-05
8.26265e-05
9.65683e-05
9.51711e-05
9.51889e-05
8.26543e-05
8.26824e-05
8.351e-05
9.47564e-05
9.47479e-05
9.37468e-05
9.37305e-05
8.26913e-05
8.35023e-05
9.47711e-05
9.47282e-05
9.3747e-05
9.37296e-05
9.47744e-05
9.37609e-05
9.37451e-05
8.26614e-05
8.3513e-05
9.47985e-05
9.37649e-05
9.37614e-05
8.35027e-05
8.365e-05
8.49406e-05
9.34828e-05
9.34665e-05
9.29659e-05
9.28849e-05
8.36257e-05
8.48769e-05
9.3484e-05
9.34777e-05
9.29953e-05
9.2894e-05
9.34619e-05
9.29274e-05
9.2908e-05
8.36437e-05
8.48746e-05
9.3479e-05
9.29303e-05
9.29151e-05
8.48214e-05
8.51661e-05
8.61879e-05
9.28195e-05
9.27449e-05
9.23318e-05
9.24186e-05
8.50732e-05
8.63531e-05
9.28462e-05
9.27334e-05
9.23169e-05
9.23827e-05
9.27777e-05
9.24534e-05
9.24326e-05
8.50597e-05
8.62988e-05
9.27878e-05
9.24092e-05
9.24432e-05
8.63457e-05
8.64058e-05
8.82566e-05
9.22675e-05
9.2327e-05
9.24596e-05
9.2464e-05
8.65897e-05
8.82543e-05
9.22561e-05
9.23061e-05
9.24762e-05
9.24751e-05
9.23611e-05
9.25159e-05
9.24661e-05
8.65184e-05
8.82754e-05
9.23716e-05
9.25059e-05
9.24734e-05
8.82646e-05
8.86791e-05
9.0792e-05
9.26054e-05
9.26176e-05
9.3333e-05
9.31898e-05
8.86473e-05
9.06684e-05
9.26385e-05
9.26524e-05
9.33679e-05
9.31889e-05
9.26269e-05
9.31892e-05
9.31834e-05
8.86625e-05
9.07113e-05
9.26551e-05
9.32242e-05
9.32148e-05
9.06356e-05
9.1159e-05
9.2535e-05
9.35257e-05
9.34482e-05
9.38458e-05
9.39623e-05
9.10629e-05
9.26972e-05
9.35641e-05
9.34328e-05
9.38245e-05
9.40069e-05
9.3298e-05
9.40266e-05
9.40513e-05
9.10949e-05
9.272e-05
9.32875e-05
9.40246e-05
9.403e-05
9.27176e-05
9.27869e-05
9.50197e-05
9.39806e-05
9.4053e-05
9.50556e-05
9.49066e-05
9.29902e-05
9.4842e-05
9.39085e-05
9.40716e-05
9.49976e-05
9.47544e-05
9.43133e-05
9.4897e-05
9.51025e-05
9.29948e-05
9.47508e-05
9.42936e-05
9.48529e-05
9.50962e-05
9.50723e-05
9.56301e-05
9.80967e-05
9.55912e-05
9.54482e-05
9.71869e-05
9.7238e-05
9.53977e-05
9.81952e-05
9.56051e-05
9.54264e-05
9.72863e-05
9.72863e-05
9.54318e-05
9.72338e-05
9.68329e-05
9.53314e-05
9.8274e-05
9.55072e-05
9.71869e-05
9.68894e-05
9.78507e-05
9.84307e-05
9.95979e-05
9.75478e-05
9.76978e-05
9.79292e-05
9.8186e-05
9.86275e-05
9.97381e-05
9.76168e-05
9.76606e-05
9.79046e-05
9.82427e-05
9.7484e-05
9.83562e-05
9.86004e-05
9.86646e-05
9.97263e-05
9.74577e-05
9.83008e-05
9.85651e-05
0.000100055
0.000100073
0.000103615
9.8362e-05
9.82868e-05
0.000101615
0.000100544
9.99496e-05
0.000102869
9.83214e-05
9.83944e-05
0.000101718
0.000100914
9.86414e-05
0.000100393
0.000100408
0.000100045
0.000103123
9.85922e-05
0.000100991
0.000100462
0.000102523
0.000104251
0.00010539
0.00010226
0.000101901
0.000102649
0.000104103
0.000103793
0.000106746
0.000102497
0.000102108
0.000102383
0.000102963
0.000101334
0.000104275
0.000103979
0.000103929
0.000106042
0.000101517
0.000103106
0.00010388
0.000106487
0.000105692
0.000108297
0.000103624
0.000104227
0.000106385
0.000105986
0.000106961
0.000108031
0.000102932
0.000103473
0.000106312
0.000107002
0.000104924
0.000105965
0.000104772
0.000106297
0.000108538
0.00010453
0.0001067
0.000104764
0.000107515
0.000108694
0.000110858
0.00010616
0.000106087
0.000106589
0.000105811
0.0001083
0.000108839
0.000106825
0.000106569
0.000107354
0.000104971
0.00010441
0.000105565
0.000108519
0.000108739
0.000108119
0.000104889
0.000105049
0.00010888
0.000112307
0.00011196
0.000115742
0.000108268
0.000106709
0.000115154
0.000113952
0.000109615
0.000116516
0.000108626
0.000106751
0.000114569
0.00011496
0.000111153
0.000114633
0.00011601
0.000109166
0.000118013
0.000111235
0.000115243
0.000115502
0.000116823
0.000115331
0.00010741
0.000115297
0.000115803
0.000108895
0.000115787
0.000117332
0.000115892
0.000114421
0.00011678
0.000107964
0.000117864
0.00011523
0.000115254
0.000109234
0.000118762
0.000117556
0.000114627
0.000117492
0.000108897
0.000107775
0.000106008
0.000118638
0.000106411
0.000115123
0.000112751
0.000109541
0.000115111
0.000111128
0.00010567
0.000117077
0.000114481
0.000105381
0.000106456
0.000110319
0.000101356
0.000116842
0.000105024
0.000106322
0.000106203
0.000102592
0.000106075
0.000122955
0.000133753
0.000119435
0.000105654
0.000130279
0.000103466
0.000109135
0.000106082
0.000120563
0.00010024
0.000129802
0.000102813
0.000105916
0.000101913
0.000128855
0.000101844
0.000110729
0.00010622
0.000100779
0.000128277
0.000134378
0.000134202
0.000135894
0.000131311
0.000115167
0.000135733
0.000160131
0.000114074
0.000181185
0.000130856
0.000118267
0.000136024
0.000173412
0.000137538
0.000161418
0.000163647
0.000120001
0.000196905
0.000137206
0.000175037
0.000164626
0.00017384
0.000136963
0.000145685
0.00013851
0.000183173
0.000148887
0.000223841
0.000193932
0.000216479
0.000138921
0.000195014
0.000149191
0.000215186
0.000169755
0.000225426
0.000169136
0.000207374
0.00018895
0.000171026
0.000216367
0.000169077
0.000151671
0.000144847
0.000127678
0.000150404
0.000205179
0.000130619
9.82603e-05
0.000195795
7.03077e-05
0.000149935
0.000176174
0.000129288
8.7604e-05
0.000151852
9.98851e-05
0.000109359
0.000165926
6.61657e-05
0.000150906
8.92678e-05
0.000108691
0.000101719
0.000126105
0.000109956
0.000124051
7.95555e-05
0.000110809
5.87664e-05
6.24858e-05
7.01769e-05
0.000123234
7.79777e-05
0.000111577
7.59958e-05
9.42196e-05
5.73696e-05
6.32492e-05
6.32187e-05
9.57492e-05
9.35085e-05
7.12836e-05
6.3418e-05
6.01148e-05
0.0001055
7.74417e-05
9.96212e-05
6.22047e-05
7.72794e-05
0.000127365
7.82827e-05
0.000138651
0.000100794
8.72775e-05
7.79241e-05
0.000122357
6.28697e-05
0.000128994
0.000142053
0.000101187
0.000128921
6.35388e-05
0.000124513
0.000142705
0.000164442
7.99964e-05
0.000154425
7.80843e-05
0.000147717
0.0001478
0.000194658
0.000148666
0.000198038
7.80896e-05
0.000136731
0.000146629
0.000180068
0.000164852
0.000201461
0.000180596
0.000136516
0.000187852
0.000164439
0.00018622
0.000179123
0.000169625
0.000162759
0.000191497
0.000166123
0.000201847
0.000197863
0.000183951
0.000199706
0.000154443
0.000165579
0.000188156
0.000198069
0.000172844
0.0001714
0.000179277
0.000130038
0.000190561
0.000146324
0.00017029
0.000169018
0.000130055
0.000106536
0.000190951
0.000149739
0.000201791
0.000165952
0.00016825
0.000134055
0.000147258
0.000123767
0.000201816
0.0001531
0.000167121
0.000121641
0.000127994
0.000131544
0.000165861
0.000135523
0.000107184
0.000127958
0.000119105
0.00016435
0.000174007
0.000143246
0.000113963
0.000153759
0.000128375
0.000124394
0.000122509
0.000122115
0.000128274
0.000152794
0.000119391
0.00012437
0.000149202
0.000182612
0.000127936
0.0002013
0.000111609
0.000154988
0.000181069
0.00015511
0.000200974
0.000192881
0.00011297
0.000155191
0.000121566
0.000130241
0.000149481
0.000159559
0.000133742
0.000156627
0.000121741
0.000160821
0.00015127
0.000183822
0.000195894
0.000161148
0.000148154
0.000160528
0.000180039
0.000196698
0.00018612
0.00014934
0.000129124
0.000160975
0.000170232
0.000162137
0.000165197
0.000177307
0.000172071
0.000158776
0.000161941
0.000163579
0.00018643
0.00017816
0.000174778
0.00013892
0.000168466
0.000131202
0.000180203
0.000156801
0.000139727
0.00017046
0.000131732
0.000131393
0.000168073
0.000150172
0.000177477
0.000172674
0.000164036
0.000168666
0.000161768
0.000158768
0.00017815
0.000166181
0.000163145
0.00014754
0.000135558
0.000167764
0.00016099
0.000153847
0.000137745
0.000135664
0.000146816
0.000159465
0.000156191
0.000148875
0.00014607
0.000159779
0.000166189
0.000153598
0.000158895
0.00015807
0.000150128
0.000158618
0.000143829
0.000152125
0.000140545
0.00016501
0.000160243
0.000168261
0.000136374
0.000140543
0.000163287
0.000141867
0.000167037
0.000158612
0.000146619
0.000154603
0.00015269
0.000156155
0.000159072
0.000151661
0.000149041
0.000146255
0.00015129
0.000146797
0.000160165
0.000166433
0.00016792
0.000152769
0.000164776
0.00014463
0.000160674
0.000166751
0.00016698
0.000165042
0.000156171
0.000155925
0.000158995
0.000161903
0.000152516
0.000167329
0.000165722
0.000147839
0.000158833
0.000163394
0.000169805
0.000168342
0.000172862
0.000163903
0.000165249
0.000163617
0.000162079
0.000162725
0.000164456
0.000172636
0.000165289
0.000156693
0.00015919
0.00016049
0.000168261
0.000168557
0.000170344
0.000171273
0.000159976
0.000161033
0.000168844
0.000172712
0.000169961
0.000169608
0.000165532
0.000171282
0.000169682
0.000162385
0.000158787
0.000166513
0.00016952
0.00016935
0.000160014
0.000160818
0.000161737
0.000171095
0.00017091
0.000172065
0.000169603
0.000160724
0.000159786
0.00017062
0.000168551
0.000171808
0.000166731
0.000170227
0.000169517
0.000170204
0.000158308
0.000158029
0.000169776
0.000166601
0.000169963
0.000160437
0.000161583
0.000161527
0.000171709
0.000170113
0.000171553
0.000173965
0.000160158
0.000163901
0.000171535
0.000167798
0.000171613
0.000173656
0.000170299
0.000174085
0.000172893
0.000158852
0.000163827
0.000170161
0.000173807
0.000172929
0.000162693
0.000161936
0.000165127
0.000172644
0.000175108
0.000176401
0.000176865
0.000164392
0.000165297
0.0001727
0.000175082
0.000176449
0.000176984
0.000174115
0.00017689
0.000175824
0.000164409
0.000165363
0.000174172
0.00017703
0.000175875
0.000164542
0.000165292
0.000165489
0.000176883
0.000176821
0.000177131
0.00017684
0.000165153
0.000165169
0.000176915
0.000176883
0.000177131
0.000176947
0.000175893
0.000176835
0.000177554
0.000165197
0.000165276
0.000175926
0.00017694
0.000177555
0.000165893
0.000165619
0.000168217
0.000177657
0.000177391
0.000180508
0.000180161
0.000165428
0.000168005
0.000177666
0.000177597
0.000180562
0.000180455
0.000178607
0.000180283
0.000180856
0.000165603
0.000168202
0.000178615
0.000180582
0.000180911
0.00016841
0.000168559
0.000169345
0.000181291
0.000181041
0.000182447
0.000182741
0.000168369
0.000169575
0.000181344
0.000181202
0.000182424
0.000182364
0.000181156
0.00018269
0.000182274
0.000168475
0.000169251
0.000181211
0.000182323
0.000182253
0.000169164
0.000169408
0.000171208
0.00018279
0.0001831
0.000184816
0.000184557
0.000169684
0.000170968
0.00018275
0.000182712
0.000184822
0.000184731
0.000182922
0.00018463
0.000185027
0.000169343
0.000171174
0.000182882
0.000184798
0.000185034
0.000171396
0.000171572
0.000172726
0.000185631
0.000185266
0.000187109
0.00018711
0.000171235
0.000172707
0.000185666
0.000185585
0.000187154
0.00018723
0.000185602
0.000187091
0.000186704
0.000171539
0.000172774
0.000185637
0.000187229
0.000186749
0.000172336
0.000172738
0.000173813
0.000187325
0.000187442
0.000188607
0.00018862
0.000172808
0.000173901
0.000187352
0.000187419
0.000188601
0.000188479
0.000186989
0.000188627
0.000188685
0.000172784
0.000173752
0.000187015
0.000188478
0.000188682
0.000173983
0.000174133
0.000175633
0.000189343
0.000189354
0.000191207
0.000191494
0.000174194
0.000175827
0.000189342
0.000189248
0.000191211
0.000191413
0.000189553
0.00019157
0.000191402
0.000174078
0.000175784
0.000189554
0.000191498
0.000191405
0.000175712
0.000175662
0.000176163
0.000191512
0.000191768
0.000192169
0.000191908
0.000175844
0.000175972
0.000191512
0.000191684
0.000192181
0.000191961
0.000191528
0.000191886
0.000191964
0.000175803
0.000176015
0.000191527
0.000191944
0.000191978
0.000176002
0.000176275
0.000177963
0.000192541
0.000192234
0.000194241
0.00019424
0.000176
0.000177981
0.000192568
0.000192345
0.000194274
0.000194274
0.0001925
0.000194306
0.000194486
0.000176073
0.000177987
0.000192528
0.000194341
0.000194519
0.000178174
0.000178228
0.000179582
0.000194917
0.000194956
0.000196876
0.000196844
0.000178299
0.0001796
0.000194936
0.000194906
0.000196863
0.000196759
0.000195048
0.000196853
0.0001967
0.000178262
0.000179543
0.000195067
0.000196767
0.000196691
0.000179437
0.000179607
0.00017942
0.000197255
0.000197268
0.000197081
0.000197242
0.000179628
0.000179566
0.000197251
0.000197261
0.000197113
0.000197365
0.000197118
0.000197258
0.000197138
0.000179615
0.000179671
0.000197117
0.000197399
0.000197171
0.000179508
0.000179224
0.000180726
0.000196933
0.000197078
0.000198278
0.000198145
0.000179371
0.000180594
0.00019697
0.000197172
0.000198282
0.000198023
0.00019702
0.000198186
0.000198263
0.000179448
0.000180465
0.000197053
0.000198059
0.000198267
0.000180685
0.000181197
0.000183238
0.00019923
0.00019907
0.000201804
0.000201749
0.000181049
0.000183197
0.000199227
0.000198957
0.000201809
0.000201711
0.000199184
0.000201769
0.000201769
0.000180929
0.000183175
0.000199184
0.000201731
0.000201779
0.000183199
0.000183245
0.000182368
0.000202183
0.000202203
0.0002019
0.000202123
0.000183239
0.000182591
0.000202194
0.000202188
0.000201922
0.000202139
0.000202184
0.000202154
0.000202015
0.000183228
0.000182614
0.000202198
0.000202187
0.000202032
0.000182478
0.00018207
0.000182956
0.000201443
0.000201652
0.000201405
0.000201278
0.000182297
0.000182749
0.000201466
0.000201683
0.000201428
0.00020133
0.000201546
0.000201313
0.000201325
0.000182325
0.000182788
0.000201563
0.000201361
0.000201347
0.000182818
0.000183548
0.000185847
0.000202641
0.000202281
0.000205517
0.000205411
0.000183252
0.000185776
0.00020266
0.000202315
0.000205527
0.000205364
0.000202458
0.000205426
0.000205506
0.000183277
0.000185709
0.000202482
0.000205377
0.000205523
0.000185872
0.000185814
0.000185161
0.000205894
0.000205939
0.000205858
0.000206123
0.000185818
0.000185495
0.000205902
0.000205875
0.000205867
0.000206045
0.000205969
0.000206174
0.000206033
0.000185748
0.000185439
0.000205981
0.00020611
0.000206038
0.000185311
0.000184903
0.000184999
0.000205523
0.0002058
0.000205052
0.000204989
0.000185218
0.000184729
0.000205533
0.000205733
0.00020507
0.00020499
0.000205667
0.00020502
0.000204963
0.000185165
0.000184767
0.00020567
0.000205025
0.000204976
0.000184765
0.000185236
0.000187164
0.000205378
0.00020507
0.000207788
0.00020765
0.000184853
0.000187138
0.000205406
0.000205118
0.000207811
0.000207693
0.000205142
0.000207665
0.000207791
0.000184909
0.000187152
0.000205165
0.000207703
0.000207821
0.000187262
0.000187216
0.000187366
0.000208301
0.000208316
0.000208719
0.000208988
0.000187271
0.000187656
0.00020832
0.000208326
0.000208729
0.000208927
0.000208395
0.000209048
0.000208905
0.000187269
0.000187591
0.000208419
0.000208997
0.000208915
0.000187494
0.000187186
0.000187161
0.000208639
0.00020895
0.000208492
0.000208553
0.000187486
0.000187097
0.000208646
0.000208872
0.000208502
0.000208531
0.000208814
0.000208593
0.000208475
0.000187421
0.000187095
0.000208818
0.000208575
0.000208486
0.000187042
0.000187197
0.000188279
0.000208617
0.000208566
0.000209905
0.000209632
0.000187043
0.000188083
0.000208636
0.000208561
0.000209927
0.000209618
0.000208523
0.000209636
0.000209842
0.000187066
0.000188052
0.000208539
0.000209618
0.000209869
0.00018827
0.000188244
0.000188253
0.000210157
0.000210037
0.000210278
0.000210441
0.000188115
0.000188505
0.00021017
0.00020998
0.000210288
0.00021041
0.000210199
0.000210496
0.00021042
0.000188067
0.000188481
0.000210216
0.000210475
0.000210426
0.000188384
0.000188066
0.000188783
0.000210254
0.000210441
0.000210742
0.000210698
0.000188335
0.000188703
0.000210268
0.000210444
0.000210783
0.000210805
0.000210344
0.00021071
0.000210534
0.000188331
0.000188777
0.000210356
0.000210798
0.000210565
0.000188549
0.000188945
0.000189853
0.000211332
0.00021118
0.000212261
0.000212126
0.000188807
0.000189746
0.00021136
0.000211214
0.000212265
0.000212039
0.000211075
0.000212155
0.000212289
0.000188822
0.000189644
0.000211114
0.000212072
0.000212296
0.000189949
0.000189652
0.000188129
0.000212284
0.000212196
0.000211097
0.000211242
0.000189574
0.000188335
0.000212288
0.000212114
0.000211124
0.000211257
0.000212373
0.000211305
0.000211249
0.00018948
0.000188384
0.000212379
0.000211326
0.00021127
0.000188263
0.000187905
0.000190198
0.000210954
0.000211109
0.000212189
0.000212158
0.000188114
0.000190131
0.000210983
0.000211128
0.000212196
0.000212098
0.000211048
0.000212168
0.000211957
0.000188162
0.000190043
0.000211073
0.000212102
0.000211973
0.000189947
0.000190673
0.000191246
0.000213385
0.000213275
0.000214777
0.000214589
0.000190556
0.000191062
0.000213385
0.000213208
0.000214789
0.00021462
0.000213144
0.000214594
0.00021466
0.000190468
0.000191165
0.000213151
0.000214631
0.000214672
0.00019124
0.000190734
0.000187078
0.000214308
0.000214144
0.000210807
0.000210937
0.000190572
0.000187268
0.000214343
0.000214253
0.000210849
0.000210931
0.00021433
0.000211008
0.000211069
0.000190694
0.000187218
0.000214356
0.000211001
0.000211102
0.000187357
0.000186726
0.000189529
0.000210315
0.000210532
0.000211589
0.000211867
0.000186964
0.000189805
0.000210343
0.00021045
0.000211556
0.00021163
0.000210591
0.000211936
0.000211602
0.00018688
0.000189589
0.000210612
0.000211692
0.00021158
0.000189447
0.000190317
0.000192644
0.000213201
0.000213312
0.000216122
0.000215772
0.00019047
0.00019211
0.000213174
0.00021317
0.000216146
0.000215908
0.000213021
0.000215733
0.000215699
0.000190329
0.000192357
0.000213007
0.00021588
0.000215728
0.000192185
0.000192344
0.000189242
0.000216289
0.000215872
0.000213632
0.000213643
0.000191801
0.000189396
0.000216326
0.000216052
0.000213677
0.000213684
0.000215896
0.00021372
0.00021402
0.000192052
0.00018935
0.000215933
0.000213759
0.000214056
0.00018966
0.000188963
0.000188789
0.000212984
0.000213165
0.000212307
0.000212629
0.000189176
0.00018914
0.00021301
0.000213129
0.000212309
0.000212486
0.000213449
0.000212719
0.000212452
0.000189111
0.000189011
0.00021347
0.000212571
0.000212457
0.000188881
0.000188756
0.000190931
0.000212305
0.000212542
0.000215477
0.000215418
0.000189044
0.000190822
0.000212307
0.000212414
0.000215478
0.000215301
0.000212317
0.000215409
0.000215201
0.000188926
0.000190713
0.000212323
0.000215298
0.000215201
0.00019065
0.000192979
0.000214453
0.000214287
0.0001928
0.000214452
0.000214187
0.000235763
0.000235597
0.000235586
0.000214185
0.000192697
0.000214184
0.00023473
0.000234746
0.000234729
0.000234729
0.000235118
0.000234798
0.000234701
0.000234727
0.000235118
0.000234798
0.000234727
0.000234701
0.000234867
0.000233566
0.000233566
0.000104651
3.87411e-05
0.000129118
3.98249e-05
2.16834e-05
2.28313e-05
0.000104643
3.87372e-05
0.000129114
3.98214e-05
0.000233973
0.000233973
0.000233973
0.000232935
0.000232935
0.000232935
0.000232935
0.000206196
9.36752e-05
0.000233969
0.000231994
0.000222614
8.72226e-05
0.000233611
2.16823e-05
2.28307e-05
0.00020619
0.000233969
9.36747e-05
0.000231994
0.000222622
0.000233611
8.72283e-05
4.78012e-05
4.77894e-05
0.000231345
4.40186e-05
4.4009e-05
7.25677e-05
4.2434e-05
8.14026e-05
4.37633e-05
2.47749e-05
2.54634e-05
7.25581e-05
4.24305e-05
8.13973e-05
4.37596e-05
0.000232532
0.000232532
0.000232532
0.000231084
0.000231084