/*--------------------------------*- C++ -*----------------------------------*\
| =========                 |                                                 |
| \\      /  F ield         | OpenFOAM: The Open Source CFD Toolbox           |
|  \\    /   O peration     | Version:  v2012                                 |
|   \\  /    A nd           | Website:  www.openfoam.com                      |
|    \\/     M anipulation  |                                                 |
\*---------------------------------------------------------------------------*/
FoamFile
{
    version     2.0;
    format      ascii;
    class       volScalarField;
    location    "1000";
    object      p;
}
// * * * * * * * * * * * * * * * * * * * * * * * * * * * * * * * * * * * * * //

dimensions      [0 2 -2 0 0 0 0];


internalField   nonuniform List<scalar> 
171728
(
0.00360503
0.00360536
0.00360536
0.00360841
0.00354967
0.00355009
0.00355009
0.00355308
0.00349892
0.00349889
0.00349889
0.00350165
0.00344653
0.00344655
0.00344655
0.00344932
0.00339518
0.00339519
0.00339519
0.00339794
0.00334521
0.00334522
0.00334522
0.00334794
0.00329668
0.0032967
0.0032967
0.00329938
0.00324945
0.00324948
0.00324948
0.00325212
0.00320332
0.00320335
0.00320335
0.00320596
0.00315809
0.00315811
0.00315812
0.0031607
0.00311358
0.0031136
0.0031136
0.00311617
0.00306967
0.00306969
0.00306969
0.00307224
0.00302628
0.0030263
0.00302629
0.00302881
0.00298335
0.00298336
0.00298337
0.00298587
0.00294085
0.00294086
0.00294086
0.00294336
0.00289876
0.00289877
0.00289877
0.00290125
0.00285705
0.00285705
0.00285704
0.00285953
0.0028157
0.0028157
0.0028157
0.00281817
0.00277469
0.00277468
0.00277468
0.00277714
0.00273399
0.00273396
0.00273396
0.00273643
0.00269358
0.00269354
0.00269355
0.00269599
0.00265344
0.0026534
0.0026534
0.00265584
0.00261355
0.0026135
0.0026135
0.00261594
0.0025739
0.00257384
0.00257384
0.00257627
0.00253447
0.00253441
0.00253442
0.00253683
0.00249526
0.0024952
0.00249521
0.00249761
0.00245625
0.0024562
0.00245621
0.00245859
0.00241746
0.00241741
0.00241741
0.00241978
0.00237885
0.00237881
0.00237881
0.00238116
0.00234041
0.00234038
0.00234038
0.0023427
0.00230218
0.00230214
0.00230215
0.00230446
0.00226414
0.00226411
0.00226411
0.00226638
0.00222621
0.00222619
0.00222618
0.00222845
0.00218851
0.0021885
0.0021885
0.00219073
0.00215095
0.00215092
0.00215091
0.00215317
0.00211351
0.00211349
0.00211351
0.00211566
0.00207618
0.00207618
0.00207616
0.00207842
0.00203929
0.00203928
0.00203929
0.00204126
0.002002
0.00200195
0.00200198
0.0020042
0.0019656
0.00196565
0.00196549
0.00196806
0.0019299
0.0019297
0.00192995
0.001932
0.0018934
0.00189419
0.00189408
0.00189523
0.00185444
0.001853
0.0018524
0.00185511
0.00181368
0.00181223
0.0018131
0.00181635
0.00177923
0.00178123
0.00178166
0.00178221
0.00174781
0.00175033
0.0017487
0.00175294
0.00171828
0.00171465
0.00171551
0.00171587
0.00167959
0.00167655
0.0016768
0.00167931
0.0016393
0.00164167
0.00164159
0.00164542
0.00160349
0.00160479
0.0016056
0.00160525
0.00156913
0.00156776
0.00156624
0.00156837
0.0015318
0.0015313
0.00153072
0.00153493
0.00149419
0.00149493
0.00149556
0.0014977
0.00145874
0.00145849
0.00145942
0.00146024
0.00142343
0.00142323
0.00142325
0.00142498
0.001388
0.0013882
0.00138719
0.0013899
0.00135226
0.00135201
0.00135208
0.00135425
0.00131664
0.00131646
0.00131673
0.00131856
0.00128104
0.00128108
0.00128116
0.00128311
0.00124584
0.00124554
0.00124546
0.00124756
0.00121021
0.00121014
0.00121012
0.00121214
0.00117492
0.00117483
0.00117482
0.00117679
0.00113953
0.0011394
0.00113939
0.0011414
0.00110417
0.00110406
0.00110408
0.00110608
0.00106883
0.00106871
0.0010687
0.0010707
0.00103341
0.00103333
0.00103332
0.00103535
0.000998086
0.00099797
0.000997978
0.000999963
0.000962628
0.00096253
0.000962532
0.000964545
0.00092727
0.000927202
0.000927196
0.0009292
0.000891895
0.000891775
0.000891777
0.000893775
0.000856378
0.000856295
0.000856297
0.000858313
0.000820948
0.000820901
0.000820894
0.000822911
0.000785604
0.00078549
0.000785496
0.000787488
0.000749996
0.000749904
0.000749903
0.000751916
0.000714482
0.000714459
0.000714457
0.000716486
0.000679099
0.000678999
0.000678997
0.000680999
0.000643417
0.000643319
0.000643323
0.000645331
0.000607798
0.000607763
0.000607765
0.000609796
0.000572268
0.000572232
0.000572227
0.000574253
0.000536592
0.000536491
0.000536491
0.000538505
0.00050087
0.000500824
0.000500828
0.000502857
0.000465171
0.000465139
0.000465135
0.000467176
0.0004294
0.000429343
0.000429347
0.000431369
0.000393631
0.00039358
0.000393579
0.000395619
0.00035782
0.000357767
0.000357764
0.000359804
0.000321852
0.000321813
0.00032182
0.000323845
0.000286075
0.000286044
0.000286036
0.000288086
0.000250094
0.000250017
0.000250024
0.000252067
0.000213906
0.000213885
0.000213878
0.000215923
0.000178197
0.000178204
0.000178204
0.000180254
0.000142222
0.000142097
0.00014211
0.000144136
0.00010586
0.000105819
0.000105801
0.000107821
6.97808e-05
6.97811e-05
6.97878e-05
7.17951e-05
3.43787e-05
3.38079e-05
3.38101e-05
3.56661e-05
6.03822e-06
6.94972e-06
6.95401e-06
5.21142e-06
0.00361844
0.00361866
0.00361866
0.00361844
0.00361866
0.00361866
0.00361943
0.00361942
0.00361943
0.00361943
0.00361866
0.00361866
0.00361844
0.00361866
0.00361866
0.00361844
0.00360841
0.00355965
0.00360536
0.00360536
0.00356193
0.00356193
0.00360841
0.00355965
0.00360536
0.00360536
0.00356193
0.00356193
0.00360536
0.00356193
0.00356193
0.00360841
0.00355965
0.00360536
0.00356193
0.00356193
0.00355965
0.00355308
0.00350857
0.00355009
0.00355009
0.00351202
0.00351202
0.00355308
0.00350857
0.00355009
0.00355009
0.00351202
0.00351202
0.00355009
0.00351202
0.00351202
0.00355308
0.00350857
0.00355009
0.00351202
0.00351202
0.00350857
0.00350165
0.0034562
0.00349889
0.00349889
0.00345956
0.00345956
0.00350165
0.0034562
0.00349889
0.00349889
0.00345956
0.00345956
0.00349889
0.00345956
0.00345956
0.00350165
0.0034562
0.00349889
0.00345956
0.00345956
0.0034562
0.00344932
0.00340465
0.00344655
0.00344655
0.00340791
0.00340792
0.00344932
0.00340465
0.00344655
0.00344655
0.00340791
0.00340792
0.00344655
0.00340792
0.00340792
0.00344932
0.00340465
0.00344655
0.00340791
0.00340791
0.00340465
0.00339794
0.00335444
0.00339519
0.00339519
0.00335757
0.00335757
0.00339794
0.00335444
0.00339519
0.00339519
0.00335757
0.00335757
0.00339519
0.00335757
0.00335757
0.00339794
0.00335444
0.00339519
0.00335757
0.00335757
0.00335444
0.00334794
0.00330568
0.00334522
0.00334522
0.0033087
0.0033087
0.00334794
0.00330568
0.00334522
0.00334522
0.0033087
0.0033087
0.00334522
0.0033087
0.0033087
0.00334794
0.00330568
0.00334522
0.0033087
0.0033087
0.00330568
0.00329938
0.00325825
0.0032967
0.0032967
0.00326117
0.00326117
0.00329938
0.00325826
0.0032967
0.0032967
0.00326117
0.00326117
0.0032967
0.00326117
0.00326118
0.00329938
0.00325826
0.0032967
0.00326117
0.00326117
0.00325825
0.00325213
0.00321195
0.00324947
0.00324947
0.00321478
0.00321478
0.00325213
0.00321196
0.00324947
0.00324947
0.00321479
0.00321478
0.00324948
0.00321478
0.00321479
0.00325212
0.00321196
0.00324947
0.00321478
0.00321479
0.00321195
0.00320597
0.00316658
0.00320334
0.00320335
0.00316935
0.00316935
0.00320597
0.00316658
0.00320334
0.00320335
0.00316936
0.00316934
0.00320334
0.00316935
0.00316935
0.00320597
0.00316658
0.00320334
0.00316934
0.00316935
0.00316658
0.0031607
0.00312195
0.00315811
0.00315811
0.00312468
0.00312468
0.00316071
0.00312195
0.00315811
0.00315812
0.00312468
0.00312467
0.00315811
0.00312468
0.00312467
0.00316071
0.00312195
0.00315811
0.00312467
0.00312467
0.00312195
0.00311616
0.00307794
0.0031136
0.0031136
0.00308062
0.00308062
0.00311617
0.00307794
0.0031136
0.0031136
0.00308062
0.00308062
0.00311361
0.00308063
0.00308061
0.00311617
0.00307793
0.00311361
0.00308063
0.00308061
0.00307794
0.00307223
0.00303445
0.0030697
0.00306969
0.00303709
0.0030371
0.00307223
0.00303444
0.0030697
0.00306969
0.00303709
0.0030371
0.0030697
0.0030371
0.0030371
0.00307223
0.00303444
0.0030697
0.0030371
0.0030371
0.00303444
0.00302881
0.00299143
0.0030263
0.0030263
0.00299406
0.00299405
0.00302881
0.00299144
0.0030263
0.00302629
0.00299406
0.00299405
0.0030263
0.00299405
0.00299406
0.00302881
0.00299143
0.00302629
0.00299405
0.00299406
0.00299143
0.00298586
0.00294888
0.00298336
0.00298336
0.00295145
0.00295145
0.00298587
0.00294887
0.00298336
0.00298337
0.00295145
0.00295145
0.00298336
0.00295145
0.00295144
0.00298587
0.00294887
0.00298336
0.00295145
0.00295144
0.00294888
0.00294336
0.00290671
0.00294086
0.00294086
0.00290925
0.00290924
0.00294336
0.00290672
0.00294086
0.00294086
0.00290925
0.00290925
0.00294086
0.00290925
0.00290925
0.00294336
0.00290672
0.00294087
0.00290925
0.00290925
0.00290672
0.00290125
0.00286494
0.00289876
0.00289877
0.00286744
0.00286745
0.00290125
0.00286495
0.00289876
0.00289877
0.00286744
0.00286744
0.00289876
0.00286745
0.00286744
0.00290125
0.00286494
0.00289876
0.00286744
0.00286744
0.00286495
0.00285953
0.00282354
0.00285705
0.00285705
0.002826
0.002826
0.00285953
0.00282354
0.00285705
0.00285704
0.002826
0.002826
0.00285705
0.002826
0.00282601
0.00285953
0.00282354
0.00285705
0.002826
0.00282601
0.00282354
0.00281817
0.00278248
0.0028157
0.0028157
0.0027849
0.00278491
0.00281817
0.00278247
0.0028157
0.0028157
0.0027849
0.00278491
0.0028157
0.00278491
0.0027849
0.00281817
0.00278247
0.0028157
0.00278491
0.0027849
0.00278247
0.00277715
0.00274172
0.00277468
0.00277468
0.00274412
0.00274412
0.00277714
0.00274171
0.00277468
0.00277468
0.00274412
0.00274412
0.00277468
0.00274412
0.00274412
0.00277714
0.00274171
0.00277468
0.00274412
0.00274412
0.00274172
0.00273642
0.00270126
0.00273397
0.00273396
0.00270363
0.00270362
0.00273642
0.00270126
0.00273397
0.00273396
0.00270363
0.00270362
0.00273397
0.00270362
0.00270363
0.00273642
0.00270126
0.00273397
0.00270362
0.00270363
0.00270126
0.00269599
0.00266107
0.00269354
0.00269355
0.00266341
0.00266341
0.002696
0.00266107
0.00269354
0.00269355
0.00266341
0.00266341
0.00269354
0.00266341
0.00266341
0.002696
0.00266107
0.00269354
0.00266341
0.00266341
0.00266107
0.00265584
0.00262114
0.0026534
0.0026534
0.00262345
0.00262345
0.00265584
0.00262114
0.0026534
0.0026534
0.00262345
0.00262345
0.00265339
0.00262345
0.00262345
0.00265584
0.00262114
0.00265339
0.00262345
0.00262345
0.00262114
0.00261594
0.00258144
0.0026135
0.0026135
0.00258374
0.00258373
0.00261594
0.00258144
0.0026135
0.0026135
0.00258374
0.00258373
0.0026135
0.00258373
0.00258373
0.00261594
0.00258144
0.0026135
0.00258373
0.00258373
0.00258144
0.00257627
0.00254198
0.00257384
0.00257384
0.00254425
0.00254424
0.00257627
0.00254198
0.00257384
0.00257384
0.00254425
0.00254425
0.00257384
0.00254424
0.00254425
0.00257627
0.00254198
0.00257384
0.00254425
0.00254425
0.00254198
0.00253683
0.00250273
0.00253441
0.00253441
0.00250499
0.00250498
0.00253683
0.00250273
0.00253441
0.00253442
0.00250499
0.00250498
0.00253441
0.00250498
0.00250499
0.00253683
0.00250273
0.00253441
0.00250498
0.00250499
0.00250273
0.0024976
0.00246369
0.0024952
0.0024952
0.00246594
0.00246593
0.00249761
0.00246369
0.0024952
0.00249521
0.00246594
0.00246593
0.00249521
0.00246593
0.00246594
0.00249761
0.00246369
0.00249521
0.00246593
0.00246594
0.0024637
0.00245859
0.00242486
0.0024562
0.0024562
0.00242709
0.00242709
0.00245858
0.00242485
0.0024562
0.00245621
0.00242709
0.00242708
0.00245621
0.00242709
0.00242709
0.00245859
0.00242486
0.00245621
0.00242709
0.00242709
0.00242486
0.00241978
0.00238622
0.00241741
0.00241741
0.00238845
0.00238845
0.00241977
0.00238622
0.00241741
0.00241741
0.00238845
0.00238844
0.00241741
0.00238845
0.00238844
0.00241978
0.00238622
0.00241741
0.00238844
0.00238844
0.00238622
0.00238116
0.00234775
0.00237881
0.00237881
0.00234997
0.00234997
0.00238116
0.00234775
0.00237881
0.00237881
0.00234997
0.00234997
0.00237881
0.00234997
0.00234997
0.00238116
0.00234775
0.00237881
0.00234997
0.00234997
0.00234775
0.00234271
0.00230947
0.00234038
0.00234038
0.00231168
0.00231169
0.0023427
0.00230947
0.00234038
0.00234038
0.00231168
0.00231169
0.00234038
0.00231168
0.00231169
0.0023427
0.00230947
0.00234038
0.00231169
0.00231169
0.00230948
0.00230445
0.00227139
0.00230214
0.00230214
0.00227361
0.00227361
0.00230445
0.0022714
0.00230214
0.00230214
0.00227361
0.00227361
0.00230214
0.00227361
0.00227359
0.00230445
0.0022714
0.00230215
0.0022736
0.00227359
0.00227139
0.00226638
0.00223343
0.0022641
0.00226411
0.00223564
0.00223564
0.00226639
0.00223344
0.0022641
0.00226411
0.00223564
0.00223564
0.0022641
0.00223565
0.00223566
0.00226639
0.00223344
0.0022641
0.00223564
0.00223565
0.00223344
0.00222845
0.00219573
0.00222618
0.00222618
0.00219791
0.00219789
0.00222844
0.00219571
0.00222618
0.00222618
0.00219792
0.0021979
0.00222619
0.00219788
0.00219789
0.00222844
0.00219572
0.00222618
0.0021979
0.00219789
0.0021957
0.00219073
0.00215809
0.0021885
0.0021885
0.00216031
0.00216033
0.00219075
0.00215811
0.0021885
0.00218851
0.0021603
0.0021603
0.00218848
0.00216033
0.00216033
0.00219075
0.0021581
0.00218848
0.0021603
0.00216033
0.00215812
0.00215315
0.00212065
0.00215094
0.00215092
0.00212283
0.00212282
0.00215314
0.00212063
0.00215092
0.00215091
0.00212283
0.00212286
0.00215096
0.00212283
0.00212282
0.00215314
0.00212067
0.00215095
0.00212286
0.00212282
0.00212062
0.00211569
0.00208331
0.00211347
0.00211349
0.00208547
0.00208548
0.00211568
0.00208331
0.00211349
0.00211352
0.00208549
0.00208545
0.00211344
0.00208547
0.00208549
0.0021157
0.0020833
0.00211345
0.00208545
0.0020855
0.00208333
0.00207838
0.00204631
0.00207619
0.00207618
0.00204853
0.00204854
0.00207841
0.00204636
0.00207619
0.00207616
0.0020485
0.00204857
0.00207626
0.00204855
0.00204847
0.00207841
0.00204636
0.00207626
0.00204857
0.00204845
0.00204623
0.00204138
0.00200908
0.00203924
0.00203928
0.00201122
0.00201124
0.00204139
0.00200899
0.00203922
0.0020393
0.00201123
0.00201122
0.00203911
0.0020112
0.00201116
0.00204139
0.002009
0.0020391
0.0020112
0.00201117
0.00200907
0.00200419
0.00197274
0.00200198
0.00200197
0.00197472
0.00197463
0.00200411
0.00197256
0.002002
0.00200198
0.00197475
0.00197457
0.002002
0.00197468
0.00197481
0.00200413
0.00197252
0.00200201
0.0019746
0.00197482
0.00197283
0.001968
0.00193644
0.00196582
0.00196561
0.00193881
0.00193864
0.00196772
0.00193663
0.00196584
0.00196545
0.00193876
0.00193869
0.00196579
0.00193862
0.00193886
0.00196769
0.00193665
0.00196579
0.00193864
0.00193883
0.00193669
0.00193152
0.0019001
0.00192958
0.0019297
0.0019022
0.00190336
0.0019319
0.00190091
0.00192955
0.00192995
0.00190225
0.00190355
0.00193013
0.00190344
0.00190267
0.001932
0.00190084
0.00193013
0.00190369
0.00190276
0.00190029
0.00189539
0.00186219
0.00189316
0.00189409
0.00186472
0.00186411
0.00189581
0.00186107
0.00189319
0.00189396
0.00186463
0.00186349
0.00189308
0.00186394
0.00186338
0.00189566
0.00186047
0.00189314
0.0018633
0.00186335
0.00186073
0.00185663
0.00182094
0.00185453
0.00185321
0.00182331
0.00182109
0.00185529
0.00181953
0.00185446
0.00185261
0.0018233
0.00182139
0.0018533
0.00182109
0.00182348
0.00185483
0.00182041
0.00185324
0.00182147
0.00182348
0.00182154
0.00181577
0.00178616
0.00181355
0.0018121
0.00178757
0.00178876
0.00181502
0.00178716
0.00181363
0.00181296
0.00178777
0.00178978
0.00181375
0.00178877
0.00178743
0.00181602
0.00178805
0.00181383
0.00178975
0.00178756
0.00178619
0.00178188
0.00175443
0.00177942
0.00178119
0.00175593
0.00175775
0.00178314
0.00175599
0.0017795
0.00178164
0.0017557
0.00175618
0.00177983
0.00175818
0.00175912
0.00178373
0.00175415
0.00177986
0.00175672
0.00175894
0.00175739
0.00175041
0.00172451
0.00174862
0.00174975
0.00172676
0.0017241
0.00175163
0.00172145
0.00174835
0.00174806
0.00172662
0.00172476
0.00175145
0.00172379
0.00172288
0.00174997
0.0017221
0.00175118
0.00172425
0.00172283
0.00172037
0.00172
0.00168481
0.00171837
0.00171529
0.00168768
0.0016867
0.00171671
0.00168396
0.0017185
0.00171629
0.00168788
0.00168737
0.00171316
0.00168616
0.00168588
0.00171742
0.00168461
0.0017135
0.00168681
0.00168612
0.00168396
0.00167935
0.00164572
0.0016774
0.00167686
0.00164779
0.00164927
0.00167877
0.00164848
0.00167753
0.00167721
0.00164777
0.00164906
0.00167744
0.00165057
0.00165249
0.0016794
0.001648
0.00167755
0.00164985
0.0016524
0.00165048
0.00164082
0.00161175
0.0016384
0.00164074
0.0016131
0.00161398
0.00164368
0.00161199
0.00163844
0.00164074
0.00161321
0.00161502
0.00164326
0.00161408
0.00161266
0.00164346
0.001613
0.0016432
0.00161518
0.00161278
0.00161032
0.00160717
0.00157697
0.00160471
0.00160494
0.00157913
0.00157793
0.00160702
0.00157512
0.00160478
0.0016057
0.00157903
0.00157663
0.00160261
0.00157712
0.0015748
0.00160782
0.00157384
0.00160272
0.00157573
0.00157454
0.0015729
0.0015721
0.00153771
0.00157017
0.00156866
0.00154048
0.00154026
0.00157015
0.00153819
0.00156998
0.0015672
0.00154028
0.00153953
0.00156636
0.00154029
0.00154176
0.0015689
0.00153757
0.001566
0.00153957
0.00154164
0.00153974
0.00153253
0.0015007
0.00153043
0.00153095
0.00150264
0.00150347
0.00153332
0.00150172
0.00153037
0.00153037
0.00150267
0.00150379
0.00153314
0.0015041
0.00150528
0.00153272
0.00150232
0.00153302
0.00150445
0.00150534
0.00150288
0.00149603
0.00146618
0.00149386
0.00149445
0.00146792
0.00146758
0.00149681
0.00146552
0.00149396
0.00149508
0.00146816
0.0014685
0.00149565
0.00146749
0.00146697
0.00149747
0.0014664
0.00149576
0.00146843
0.00146719
0.00146507
0.0014614
0.00143058
0.00145919
0.00145871
0.00143257
0.00143221
0.0014607
0.0014301
0.00145939
0.00145963
0.00143266
0.00143272
0.00145789
0.00143193
0.00143156
0.00146156
0.00143026
0.00145812
0.00143242
0.00143166
0.00142969
0.00142574
0.00139443
0.00142363
0.00142346
0.00139671
0.00139712
0.00142538
0.00139501
0.00142367
0.00142354
0.00139649
0.00139606
0.0014229
0.00139709
0.00139681
0.00142533
0.001394
0.00142293
0.00139604
0.0013966
0.00139467
0.0013896
0.00135881
0.00138772
0.00138816
0.00136094
0.0013609
0.00139017
0.00135883
0.00138747
0.00138714
0.00136086
0.00136076
0.00138801
0.00136102
0.00136131
0.00138923
0.0013588
0.00138779
0.00136086
0.00136122
0.00135909
0.00135402
0.00132336
0.00135205
0.00135192
0.00132538
0.0013253
0.001354
0.00132327
0.00135204
0.00135201
0.00132547
0.00132559
0.0013523
0.0013253
0.00132536
0.00135406
0.00132356
0.00135228
0.00132559
0.00132546
0.00132335
0.00131857
0.00128787
0.00131648
0.00131647
0.00128986
0.00128994
0.00131849
0.0012879
0.00131657
0.00131673
0.00128991
0.00129009
0.00131645
0.00128995
0.0012899
0.00131876
0.00128799
0.00131655
0.00129009
0.00128994
0.00128789
0.00128309
0.00125244
0.00128103
0.00128107
0.00125454
0.00125443
0.0012831
0.00125235
0.00128106
0.00128116
0.00125452
0.00125436
0.00128107
0.00125441
0.00125446
0.00128316
0.00125229
0.00128109
0.00125435
0.00125445
0.00125237
0.00124764
0.0012169
0.00124567
0.00124556
0.00121896
0.00121898
0.00124756
0.00121694
0.00124565
0.00124548
0.00121895
0.00121894
0.00124557
0.00121898
0.00121897
0.00124749
0.00121691
0.00124555
0.00121894
0.00121896
0.00121692
0.00121211
0.00118158
0.0012101
0.00121013
0.00118362
0.00118366
0.00121215
0.00118161
0.00121009
0.00121011
0.00118362
0.00118366
0.00121014
0.00118366
0.00118363
0.00121213
0.00118161
0.00121013
0.00118366
0.00118363
0.00118158
0.00117681
0.0011462
0.00117481
0.00117483
0.00114826
0.00114827
0.00117683
0.0011462
0.00117481
0.00117483
0.00114826
0.00114825
0.00117478
0.00114826
0.00114824
0.00117682
0.00114619
0.00117478
0.00114825
0.00114823
0.00114619
0.00114141
0.00111085
0.0011394
0.0011394
0.00111289
0.00111287
0.0011414
0.00111084
0.0011394
0.00113939
0.00111289
0.00111289
0.0011394
0.00111288
0.00111292
0.0011414
0.00111086
0.0011394
0.0011129
0.00111292
0.00111087
0.00110607
0.0010755
0.00110407
0.00110405
0.00107756
0.00107756
0.00110606
0.00107551
0.00110407
0.00110407
0.00107756
0.00107756
0.00110408
0.00107756
0.00107754
0.00110608
0.0010755
0.00110408
0.00107756
0.00107754
0.00107549
0.00107071
0.00104012
0.00106871
0.00106872
0.00104216
0.00104216
0.00107071
0.00104012
0.0010687
0.0010687
0.00104216
0.00104215
0.0010687
0.00104216
0.00104218
0.0010707
0.00104011
0.00106869
0.00104215
0.00104218
0.00104014
0.00103533
0.00100477
0.00103332
0.00103332
0.00100682
0.00100682
0.00103533
0.00100477
0.00103332
0.00103332
0.00100682
0.00100683
0.00103334
0.00100682
0.00100682
0.00103533
0.00100478
0.00103334
0.00100683
0.00100682
0.00100476
0.000999976
0.000969349
0.000997973
0.000997973
0.000971395
0.000971383
0.000999969
0.00096934
0.000997976
0.00099798
0.000971395
0.000971386
0.00099796
0.000971379
0.000971383
0.000999976
0.000969342
0.000997962
0.000971381
0.000971384
0.000969343
0.000964547
0.000933985
0.00096254
0.000962532
0.00093602
0.000936028
0.000964543
0.000933995
0.000962541
0.000962534
0.000936019
0.000936026
0.000962538
0.000936032
0.000936032
0.000964544
0.000933991
0.000962538
0.000936029
0.000936032
0.000933994
0.000929194
0.000898593
0.000927188
0.000927199
0.000900648
0.000900647
0.000929203
0.00089859
0.000927187
0.000927194
0.000900647
0.000900645
0.000927196
0.000900644
0.000900636
0.000929198
0.00089859
0.000927195
0.000900642
0.000900635
0.000898584
0.000893783
0.000863117
0.000891782
0.000891778
0.000865163
0.000865162
0.000893778
0.000863116
0.000891782
0.00089178
0.000865165
0.000865167
0.000891773
0.000865163
0.000865172
0.00089378
0.000863119
0.000891772
0.000865169
0.000865174
0.000863125
0.000858306
0.000827714
0.000856294
0.000856293
0.000829739
0.000829736
0.000858304
0.000827714
0.000856295
0.000856295
0.000829737
0.00082973
0.000856303
0.000829736
0.000829737
0.000858306
0.000827707
0.000856304
0.00082973
0.000829736
0.000827711
0.000822916
0.000792309
0.000820904
0.000820901
0.000794367
0.000794372
0.000822915
0.000792312
0.000820902
0.000820896
0.000794368
0.000794378
0.000820899
0.000794371
0.000794365
0.00082291
0.000792318
0.000820898
0.000794377
0.000794367
0.000792308
0.000787487
0.00075674
0.000785484
0.00078549
0.000758791
0.000758794
0.000787489
0.00075674
0.000785485
0.000785496
0.000758792
0.000758794
0.000785485
0.000758795
0.000758796
0.000787496
0.000756739
0.000785487
0.000758795
0.000758796
0.000756743
0.000751913
0.000721295
0.000749902
0.000749903
0.000723313
0.000723303
0.000751913
0.000721287
0.000749902
0.000749902
0.000723313
0.000723302
0.000749906
0.000723302
0.000723306
0.000751912
0.000721285
0.000749905
0.000723301
0.000723306
0.000721288
0.000716492
0.000685832
0.000714471
0.000714461
0.000687892
0.0006879
0.000716485
0.000685845
0.00071447
0.00071446
0.000687891
0.000687897
0.000714462
0.000687901
0.000687898
0.000716484
0.000685843
0.000714462
0.000687898
0.000687898
0.00068584
0.00068099
0.000650171
0.000678983
0.000678997
0.000652227
0.000652233
0.000681002
0.000650172
0.000678982
0.000678995
0.000652228
0.000652235
0.000678994
0.000652234
0.000652231
0.000681001
0.000650174
0.000678993
0.000652237
0.000652231
0.000650172
0.000645332
0.000614632
0.000643321
0.00064332
0.00061666
0.000616641
0.00064533
0.000614613
0.000643322
0.000643323
0.000616661
0.000616645
0.000643319
0.000616637
0.000616646
0.000645333
0.000614615
0.000643319
0.000616641
0.000616647
0.000614617
0.000609808
0.000579079
0.000607782
0.000607766
0.000581118
0.000581135
0.000609793
0.000579104
0.000607782
0.000607769
0.000581117
0.000581132
0.000607771
0.000581138
0.000581134
0.000609796
0.000579098
0.000607772
0.000581134
0.000581133
0.000579099
0.000574231
0.000543362
0.000572203
0.000572228
0.000545423
0.000545424
0.000574257
0.000543357
0.000572201
0.000572222
0.000545423
0.000545422
0.000572223
0.000545424
0.000545421
0.000574251
0.000543356
0.000572222
0.000545422
0.000545421
0.000543356
0.000538513
0.00050771
0.000536502
0.000536494
0.000509751
0.000509736
0.000538505
0.000507696
0.000536502
0.000536493
0.000509752
0.000509741
0.000536492
0.000509733
0.00050974
0.000538506
0.0005077
0.000536492
0.000509737
0.000509741
0.000507699
0.000502865
0.000472022
0.000500836
0.000500826
0.000474063
0.000474069
0.000502854
0.000472034
0.000500837
0.000500831
0.000474063
0.000474067
0.00050083
0.000474072
0.000474073
0.000502859
0.000472031
0.000500831
0.00047407
0.000474073
0.000472034
0.000467162
0.000436233
0.000465125
0.000465137
0.000438285
0.000438291
0.000467176
0.000436232
0.000465123
0.000465132
0.000438285
0.000438292
0.000465136
0.000438291
0.000438286
0.000467173
0.000436234
0.000465135
0.000438292
0.000438285
0.00043623
0.000431374
0.000400484
0.000429343
0.000429344
0.000402529
0.00040252
0.000431369
0.000400476
0.000429344
0.000429348
0.00040253
0.000402522
0.000429339
0.000402518
0.000402522
0.000431372
0.000400477
0.000429339
0.00040252
0.000402522
0.000400476
0.000395624
0.000364674
0.000393591
0.000393582
0.000366735
0.000366738
0.000395617
0.000364682
0.000393591
0.00039358
0.000366733
0.000366732
0.000393587
0.00036674
0.000366744
0.000395618
0.000364674
0.000393587
0.000366734
0.000366743
0.000364686
0.000359794
0.000328731
0.000357755
0.000357764
0.000330788
0.000330795
0.000359802
0.000328733
0.000357754
0.000357761
0.000330791
0.000330802
0.000357768
0.000330794
0.000330787
0.000359798
0.000328741
0.000357766
0.000330802
0.000330789
0.000328728
0.000323851
0.000292954
0.000321814
0.000321815
0.000294992
0.000294981
0.000323849
0.000292945
0.000321816
0.000321822
0.00029499
0.000294975
0.000321806
0.000294978
0.000294981
0.000323857
0.000292938
0.000321808
0.000294971
0.00029498
0.000292946
0.000288093
0.000256979
0.000286054
0.000286045
0.000259067
0.000259073
0.000288088
0.000256989
0.000286051
0.000286038
0.000259067
0.000259075
0.000286049
0.000259077
0.000259083
0.000288081
0.000256992
0.000286047
0.00025908
0.000259083
0.000256995
0.000252054
0.000220804
0.000250005
0.000250013
0.000222855
0.000222861
0.000252061
0.000220806
0.000250007
0.00025002
0.000222856
0.000222861
0.000250019
0.000222862
0.000222857
0.000252066
0.000220803
0.000250021
0.000222861
0.000222858
0.0002208
0.000215928
0.00018512
0.000213881
0.000213886
0.000187134
0.000187129
0.000215929
0.000185115
0.00021388
0.000213879
0.000187132
0.000187124
0.000213878
0.000187126
0.000187121
0.000215925
0.00018511
0.000213878
0.000187121
0.00018712
0.000185109
0.000180266
0.000149094
0.000178215
0.000178208
0.000151198
0.000151183
0.00018026
0.000149083
0.000178214
0.000178208
0.000151202
0.0001512
0.0001782
0.000151182
0.000151194
0.000180258
0.000149097
0.0001782
0.000151199
0.000151198
0.000149094
0.000144131
0.000112735
0.000142103
0.000142096
0.000114818
0.000114842
0.000144125
0.000112765
0.000142107
0.000142108
0.000114816
0.000114828
0.000142111
0.000114849
0.00011485
0.000144137
0.000112748
0.000142114
0.000114835
0.000114847
0.000112765
0.000107794
7.67914e-05
0.000105784
0.000105813
7.88052e-05
7.87976e-05
0.000107825
7.67738e-05
0.00010578
0.000105794
7.88036e-05
7.87949e-05
0.000105811
7.87918e-05
7.87753e-05
0.000107806
7.67749e-05
0.000105807
7.87896e-05
7.87746e-05
7.67603e-05
7.18259e-05
4.0637e-05
6.98081e-05
6.97892e-05
4.26872e-05
4.26728e-05
7.18029e-05
4.06232e-05
6.98087e-05
6.97958e-05
4.26894e-05
4.26785e-05
6.97738e-05
4.26687e-05
4.2677e-05
7.18095e-05
4.06275e-05
6.97747e-05
4.26756e-05
4.26792e-05
4.06316e-05
3.5666e-05
8.37364e-06
3.38204e-05
3.38093e-05
1.1364e-05
1.13761e-05
3.5658e-05
8.39182e-06
3.38198e-05
3.381e-05
1.13642e-05
1.13783e-05
3.38221e-05
1.13816e-05
1.1382e-05
3.56603e-05
8.39215e-06
3.38223e-05
1.13866e-05
1.13854e-05
8.38969e-06
5.20117e-06
6.93215e-06
6.94395e-06
5.21677e-06
6.93557e-06
6.94586e-06
6.05075e-06
6.05974e-06
6.04993e-06
6.94329e-06
5.21885e-06
6.94814e-06
0.00362681
0.00363658
0.00363137
0.00363138
0.00365376
0.00364054
0.00366915
0.00363458
0.00365376
0.00364054
0.00363459
0.00366915
0.00364511
0.00367289
0.00367289
0.00358217
0.00360132
0.00361051
0.00357425
0.00357499
0.00357776
0.00358215
0.00360129
0.0036105
0.00357423
0.00360503
0.00360503
0.00360503
0.00356163
0.00356163
0.00356162
0.00356162
0.00357967
0.00360549
0.00360543
0.0035885
0.00360852
0.00357857
0.00358938
0.00357509
0.00357776
0.00357968
0.00360543
0.00360551
0.0035885
0.00360852
0.00358938
0.00357857
0.00361137
0.00361136
0.0035829
0.00357821
0.00357821
0.00353554
0.00355482
0.00355618
0.00353408
0.00355373
0.00353363
0.00353554
0.00355481
0.00355618
0.00353407
0.00354967
0.00354967
0.00354967
0.00351208
0.00351208
0.00351208
0.00351208
0.00353412
0.00355489
0.00354967
0.0035378
0.00355368
0.00353467
0.00353753
0.00355372
0.00353363
0.00353413
0.00354967
0.00355489
0.0035378
0.00355368
0.00353753
0.00353466
0.00355591
0.00355591
0.00353435
0.003535
0.003535
0.00348328
0.00350208
0.00350315
0.00348225
0.00350172
0.00348197
0.00348328
0.00350208
0.00350315
0.00348225
0.00349892
0.00349892
0.00349892
0.00345954
0.00345954
0.00345954
0.00345954
0.00348238
0.00350248
0.0034988
0.00348575
0.00350192
0.00348274
0.00348566
0.00350172
0.00348197
0.00348238
0.0034988
0.00350248
0.00348575
0.00350192
0.00348566
0.00348274
0.00350272
0.00350272
0.00348237
0.0034828
0.0034828
0.00343075
0.0034494
0.00345026
0.00342998
0.0034492
0.0034298
0.00343075
0.0034494
0.00345026
0.00342998
0.00344653
0.00344653
0.00344653
0.00340791
0.00340791
0.00340791
0.00340791
0.00343024
0.00344981
0.0034465
0.0034336
0.00344953
0.00343043
0.00343356
0.0034492
0.0034298
0.00343024
0.0034465
0.00344981
0.0034336
0.00344953
0.00343356
0.00343043
0.00344985
0.00344985
0.00343028
0.00343036
0.00343036
0.00337955
0.00339791
0.00339854
0.003379
0.00339777
0.00337886
0.00337955
0.00339791
0.00339854
0.003379
0.00339518
0.00339518
0.00339518
0.00335756
0.00335756
0.00335756
0.00335756
0.00337928
0.00339826
0.00339516
0.00338256
0.00339809
0.00337939
0.00338253
0.00339776
0.00337886
0.00337928
0.00339516
0.00339826
0.00338256
0.00339809
0.00338253
0.00337939
0.00339824
0.00339824
0.00337936
0.0033793
0.0033793
0.00332991
0.00334786
0.00334831
0.00332951
0.00334775
0.00332939
0.00332991
0.00334786
0.00334831
0.00332951
0.00334521
0.00334521
0.00334521
0.00330869
0.00330869
0.00330869
0.00330869
0.00332979
0.00334816
0.00334519
0.00333296
0.00334804
0.00332986
0.00333293
0.00334774
0.0033294
0.00332979
0.00334519