/*--------------------------------*- C++ -*----------------------------------*\
| =========                 |                                                 |
| \\      /  F ield         | OpenFOAM: The Open Source CFD Toolbox           |
|  \\    /   O peration     | Version:  v2012                                 |
|   \\  /    A nd           | Website:  www.openfoam.com                      |
|    \\/     M anipulation  |                                                 |
\*---------------------------------------------------------------------------*/
FoamFile
{
    version     2.0;
    format      ascii;
    class       volScalarField;
    location    "0.23";
    object      p;
}
// * * * * * * * * * * * * * * * * * * * * * * * * * * * * * * * * * * * * * //

dimensions      [0 2 -2 0 0 0 0];


internalField   nonuniform List<scalar> 
247104
(
1.8859e-06
1.88601e-06
1.88611e-06
1.88602e-06
1.88588e-06
1.88605e-06
1.88611e-06
1.88594e-06
1.88601e-06
1.88607e-06
1.88612e-06
1.88594e-06
1.88582e-06
1.88596e-06
1.88613e-06
1.88604e-06
1.88612e-06
1.88612e-06
1.88581e-06
1.88543e-06
1.88528e-06
1.88547e-06
1.88586e-06
1.88614e-06
1.88611e-06
1.88603e-06
1.88594e-06
1.88543e-06
1.88494e-06
1.88476e-06
1.88499e-06
1.8855e-06
1.88598e-06
1.88601e-06
1.88589e-06
1.88588e-06
1.88582e-06
1.88528e-06
1.88476e-06
1.88458e-06
1.88481e-06
1.88536e-06
1.88587e-06
1.88585e-06
1.88605e-06
1.88596e-06
1.88547e-06
1.88499e-06
1.88481e-06
1.88504e-06
1.88554e-06
1.88601e-06
1.88604e-06
1.88611e-06
1.88613e-06
1.88586e-06
1.8855e-06
1.88535e-06
1.88554e-06
1.88591e-06
1.88614e-06
1.8861e-06
1.88594e-06
1.88604e-06
1.88613e-06
1.88598e-06
1.88587e-06
1.88601e-06
1.88614e-06
1.886e-06
1.88611e-06
1.88601e-06
1.88585e-06
1.88604e-06
1.8861e-06
1.85219e-06
1.85014e-06
1.84989e-06
1.84872e-06
1.84865e-06
1.84857e-06
1.84858e-06
1.84993e-06
1.8503e-06
1.84988e-06
1.84783e-06
1.84496e-06
1.84488e-06
1.84488e-06
1.84496e-06
1.84823e-06
1.84843e-06
1.84872e-06
1.84496e-06
1.84489e-06
1.84494e-06
1.84494e-06
1.84489e-06
1.84496e-06
1.84864e-06
1.84962e-06
1.85219e-06
1.84865e-06
1.84488e-06
1.84494e-06
1.84504e-06
1.84504e-06
1.84494e-06
1.84488e-06
1.84855e-06
1.85019e-06
1.85015e-06
1.84857e-06
1.84488e-06
1.84494e-06
1.84504e-06
1.84504e-06
1.84494e-06
1.84488e-06
1.84871e-06
1.84855e-06
1.84858e-06
1.84496e-06
1.84489e-06
1.84494e-06
1.84494e-06
1.84489e-06
1.84496e-06
1.84852e-06
1.84945e-06
1.84993e-06
1.84823e-06
1.84496e-06
1.84488e-06
1.84488e-06
1.84496e-06
1.84837e-06
1.84863e-06
1.85003e-06
1.85029e-06
1.84843e-06
1.84864e-06
1.84855e-06
1.84871e-06
1.84852e-06
1.84863e-06
1.85074e-06
1.84962e-06
1.85019e-06
1.84855e-06
1.84945e-06
1.85003e-06
1.83209e-06
1.8319e-06
1.83174e-06
1.82957e-06
1.8295e-06
1.82948e-06
1.82955e-06
1.83178e-06
1.83198e-06
1.83174e-06
1.82885e-06
1.82587e-06
1.82572e-06
1.82572e-06
1.82587e-06
1.82952e-06
1.83002e-06
1.82957e-06
1.82587e-06
1.82549e-06
1.82549e-06
1.82549e-06
1.82549e-06
1.82588e-06
1.83033e-06
1.83231e-06
1.83209e-06
1.8295e-06
1.82572e-06
1.82549e-06
1.82551e-06
1.82551e-06
1.82549e-06
1.82573e-06
1.83036e-06
1.832e-06
1.8319e-06
1.82949e-06
1.82573e-06
1.8255e-06
1.82552e-06
1.82552e-06
1.8255e-06
1.82573e-06
1.8303e-06
1.83007e-06
1.82955e-06
1.82588e-06
1.82549e-06
1.8255e-06
1.82549e-06
1.82549e-06
1.82588e-06
1.83039e-06
1.83236e-06
1.83178e-06
1.82952e-06
1.82588e-06
1.82573e-06
1.82572e-06
1.82587e-06
1.83001e-06
1.83021e-06
1.83226e-06
1.83198e-06
1.83002e-06
1.83033e-06
1.83036e-06
1.8303e-06
1.83039e-06
1.83021e-06
1.83221e-06
1.83231e-06
1.832e-06
1.83007e-06
1.83236e-06
1.83226e-06
1.81274e-06
1.81257e-06
1.81245e-06
1.81019e-06
1.81013e-06
1.81003e-06
1.81022e-06
1.81245e-06
1.81267e-06
1.81244e-06
1.80935e-06
1.80643e-06
1.80638e-06
1.80638e-06
1.80643e-06
1.81006e-06
1.81078e-06
1.81019e-06
1.80643e-06
1.80627e-06
1.80627e-06
1.80627e-06
1.80627e-06
1.80643e-06
1.81101e-06
1.81296e-06
1.81275e-06
1.81013e-06
1.80638e-06
1.80627e-06
1.80627e-06
1.80627e-06
1.80627e-06
1.80638e-06
1.81111e-06
1.81264e-06
1.81257e-06
1.81003e-06
1.80638e-06
1.80627e-06
1.80627e-06
1.80627e-06
1.80627e-06
1.80638e-06
1.81107e-06
1.81082e-06
1.81022e-06
1.80643e-06
1.80627e-06
1.80627e-06
1.80627e-06
1.80627e-06
1.80643e-06
1.81108e-06
1.81299e-06
1.81245e-06
1.81007e-06
1.80643e-06
1.80638e-06
1.80638e-06
1.80643e-06
1.81086e-06
1.81095e-06
1.81295e-06
1.81267e-06
1.81078e-06
1.81102e-06
1.81111e-06
1.81108e-06
1.81109e-06
1.81095e-06
1.81295e-06
1.81297e-06
1.81264e-06
1.81083e-06
1.81299e-06
1.81296e-06
1.79338e-06
1.79321e-06
1.79304e-06
1.79078e-06
1.79071e-06
1.79057e-06
1.79081e-06
1.79307e-06
1.79329e-06
1.79304e-06
1.78992e-06
1.787e-06
1.78698e-06
1.78698e-06
1.78699e-06
1.7906e-06
1.79141e-06
1.79078e-06
1.787e-06
1.78695e-06
1.78695e-06
1.78695e-06
1.78695e-06
1.78699e-06
1.79166e-06
1.79361e-06
1.79339e-06
1.79071e-06
1.78698e-06
1.78695e-06
1.78695e-06
1.78695e-06
1.78695e-06
1.78698e-06
1.7918e-06
1.79332e-06
1.79322e-06
1.79057e-06
1.78698e-06
1.78695e-06
1.78695e-06
1.78695e-06
1.78695e-06
1.78698e-06
1.79178e-06
1.79151e-06
1.79081e-06
1.787e-06
1.78695e-06
1.78695e-06
1.78695e-06
1.78695e-06
1.787e-06
1.79175e-06
1.79367e-06
1.79307e-06
1.7906e-06
1.787e-06
1.78698e-06
1.78698e-06
1.787e-06
1.79158e-06
1.79161e-06
1.79359e-06
1.79329e-06
1.79141e-06
1.79166e-06
1.7918e-06
1.79178e-06
1.79175e-06
1.79161e-06
1.79354e-06
1.79361e-06
1.79333e-06
1.79152e-06
1.79367e-06
1.79359e-06
1.77399e-06
1.77383e-06
1.77364e-06
1.77137e-06
1.7713e-06
1.77115e-06
1.7714e-06
1.77367e-06
1.77389e-06
1.77363e-06
1.77051e-06
1.76758e-06
1.76758e-06
1.76758e-06
1.76758e-06
1.77117e-06
1.77201e-06
1.77137e-06
1.76758e-06
1.76757e-06
1.76757e-06
1.76757e-06
1.76757e-06
1.76758e-06
1.77226e-06
1.77421e-06
1.774e-06
1.7713e-06
1.76758e-06
1.76757e-06
1.76757e-06
1.76757e-06
1.76757e-06
1.76758e-06
1.77242e-06
1.77395e-06
1.77383e-06
1.77115e-06
1.76758e-06
1.76757e-06
1.76757e-06
1.76757e-06
1.76757e-06
1.76758e-06
1.77241e-06
1.77214e-06
1.7714e-06
1.76758e-06
1.76757e-06
1.76757e-06
1.76757e-06
1.76757e-06
1.76758e-06
1.77236e-06
1.77429e-06
1.77367e-06
1.77117e-06
1.76758e-06
1.76758e-06
1.76758e-06
1.76758e-06
1.77221e-06
1.77223e-06
1.77419e-06
1.77388e-06
1.77201e-06
1.77226e-06
1.77242e-06
1.77241e-06
1.77236e-06
1.77222e-06
1.77417e-06
1.77421e-06
1.77395e-06
1.77214e-06
1.77429e-06
1.77419e-06
1.7546e-06
1.75443e-06
1.75424e-06
1.75197e-06
1.75189e-06
1.75175e-06
1.75199e-06
1.75427e-06
1.75449e-06
1.75423e-06
1.75111e-06
1.74818e-06
1.74818e-06
1.74818e-06
1.74818e-06
1.75176e-06
1.75258e-06
1.75197e-06
1.74818e-06
1.74818e-06
1.74817e-06
1.74817e-06
1.74817e-06
1.74818e-06
1.75286e-06
1.75481e-06
1.7546e-06
1.75189e-06
1.74818e-06
1.74817e-06
1.74818e-06
1.74817e-06
1.74817e-06
1.74818e-06
1.75302e-06
1.75456e-06
1.75443e-06
1.75175e-06
1.74818e-06
1.74817e-06
1.74817e-06
1.74817e-06
1.74817e-06
1.74818e-06
1.75302e-06
1.75274e-06
1.75199e-06
1.74818e-06
1.74817e-06
1.74817e-06
1.74817e-06
1.74817e-06
1.74818e-06
1.75296e-06
1.7549e-06
1.75426e-06
1.75176e-06
1.74818e-06
1.74818e-06
1.74818e-06
1.74818e-06
1.75283e-06
1.75283e-06
1.75479e-06
1.75448e-06
1.75261e-06
1.75286e-06
1.75302e-06
1.75302e-06
1.75296e-06
1.75282e-06
1.75477e-06
1.75481e-06
1.75456e-06
1.75274e-06
1.75489e-06
1.75479e-06
1.7352e-06
1.73503e-06
1.73484e-06
1.73257e-06
1.73249e-06
1.73235e-06
1.73259e-06
1.73486e-06
1.73509e-06
1.73483e-06
1.73171e-06
1.72878e-06
1.72878e-06
1.72878e-06
1.72878e-06
1.73236e-06
1.73318e-06
1.73257e-06
1.72878e-06
1.72877e-06
1.72877e-06
1.72877e-06
1.72877e-06
1.72878e-06
1.73345e-06
1.73541e-06
1.7352e-06
1.73249e-06
1.72877e-06
1.72877e-06
1.72878e-06
1.72878e-06
1.72877e-06
1.72878e-06
1.73362e-06
1.73516e-06
1.73503e-06
1.73235e-06
1.72877e-06
1.72877e-06
1.72878e-06
1.72878e-06
1.72877e-06
1.72877e-06
1.73362e-06
1.73334e-06
1.73259e-06
1.72878e-06
1.72877e-06
1.72877e-06
1.72877e-06
1.72877e-06
1.72878e-06
1.73356e-06
1.7355e-06
1.73486e-06
1.73236e-06
1.72878e-06
1.72877e-06
1.72878e-06
1.72878e-06
1.73342e-06
1.73343e-06
1.73539e-06
1.73508e-06
1.73321e-06
1.73346e-06
1.73362e-06
1.73362e-06
1.73356e-06
1.73342e-06
1.73537e-06
1.73541e-06
1.73516e-06
1.73334e-06
1.73549e-06
1.73539e-06
1.7158e-06
1.71563e-06
1.71544e-06
1.71317e-06
1.71309e-06
1.71295e-06
1.71319e-06
1.71546e-06
1.71569e-06
1.71543e-06
1.71231e-06
1.70937e-06
1.70937e-06
1.70937e-06
1.70937e-06
1.71295e-06
1.71378e-06
1.71317e-06
1.70937e-06
1.70937e-06
1.70937e-06
1.70937e-06
1.70937e-06
1.70937e-06
1.71406e-06
1.71601e-06
1.7158e-06
1.71309e-06
1.70937e-06
1.70937e-06
1.70937e-06
1.70937e-06
1.70937e-06
1.70937e-06
1.71422e-06
1.71575e-06
1.71563e-06
1.71295e-06
1.70937e-06
1.70937e-06
1.70937e-06
1.70937e-06
1.70937e-06
1.70937e-06
1.71422e-06
1.71394e-06
1.71319e-06
1.70937e-06
1.70937e-06
1.70937e-06
1.70937e-06
1.70937e-06
1.70937e-06
1.71416e-06
1.71609e-06
1.71546e-06
1.71296e-06
1.70937e-06
1.70937e-06
1.70937e-06
1.70937e-06
1.71403e-06
1.71403e-06
1.71599e-06
1.71567e-06
1.71381e-06
1.71406e-06
1.71422e-06
1.71422e-06
1.71416e-06
1.71402e-06
1.71597e-06
1.71601e-06
1.71576e-06
1.71394e-06
1.71609e-06
1.71599e-06
1.69639e-06
1.69623e-06
1.69603e-06
1.69377e-06
1.69369e-06
1.69355e-06
1.69379e-06
1.69606e-06
1.69629e-06
1.69603e-06
1.69291e-06
1.68997e-06
1.68997e-06
1.68997e-06
1.68997e-06
1.69355e-06
1.69437e-06
1.69376e-06
1.68997e-06
1.68997e-06
1.68997e-06
1.68997e-06
1.68997e-06
1.68997e-06
1.69465e-06
1.69661e-06
1.6964e-06
1.69369e-06
1.68997e-06
1.68997e-06
1.68997e-06
1.68997e-06
1.68997e-06
1.68997e-06
1.69482e-06
1.69635e-06
1.69623e-06
1.69354e-06
1.68997e-06
1.68997e-06
1.68997e-06
1.68997e-06
1.68997e-06
1.68997e-06
1.69482e-06
1.69454e-06
1.69379e-06
1.68997e-06
1.68997e-06
1.68997e-06
1.68997e-06
1.68997e-06
1.68997e-06
1.69476e-06
1.69669e-06
1.69606e-06
1.69355e-06
1.68997e-06
1.68997e-06
1.68997e-06
1.68997e-06
1.69462e-06
1.69463e-06
1.69659e-06
1.69627e-06
1.69441e-06
1.69466e-06
1.69482e-06
1.69482e-06
1.69475e-06
1.69462e-06
1.69657e-06
1.69661e-06
1.69636e-06
1.69454e-06
1.69669e-06
1.69659e-06
1.67699e-06
1.67683e-06
1.67663e-06
1.67436e-06
1.67429e-06
1.67414e-06
1.67438e-06
1.67666e-06
1.67689e-06
1.67663e-06
1.67351e-06
1.67057e-06
1.67057e-06
1.67057e-06
1.67057e-06
1.67415e-06
1.67497e-06
1.67436e-06
1.67057e-06
1.67057e-06
1.67057e-06
1.67057e-06
1.67057e-06
1.67057e-06
1.67525e-06
1.6772e-06
1.677e-06
1.67429e-06
1.67057e-06
1.67057e-06
1.67057e-06
1.67057e-06
1.67057e-06
1.67057e-06
1.67542e-06
1.67695e-06
1.67683e-06
1.67414e-06
1.67057e-06
1.67057e-06
1.67057e-06
1.67057e-06
1.67057e-06
1.67057e-06
1.67541e-06
1.67514e-06
1.67438e-06
1.67057e-06
1.67057e-06
1.67057e-06
1.67057e-06
1.67057e-06
1.67057e-06
1.67535e-06
1.67729e-06
1.67666e-06
1.67415e-06
1.67057e-06
1.67057e-06
1.67057e-06
1.67057e-06
1.67522e-06
1.67523e-06
1.67719e-06
1.67687e-06
1.675e-06
1.67525e-06
1.67542e-06
1.67541e-06
1.67535e-06
1.67522e-06
1.67717e-06
1.67721e-06
1.67695e-06
1.67514e-06
1.67729e-06
1.67719e-06
1.65759e-06
1.65743e-06
1.65722e-06
1.65496e-06
1.65489e-06
1.65474e-06
1.65498e-06
1.65726e-06
1.65749e-06
1.65722e-06
1.65411e-06
1.65117e-06
1.65117e-06
1.65117e-06
1.65117e-06
1.65475e-06
1.65557e-06
1.65496e-06
1.65117e-06
1.65117e-06
1.65117e-06
1.65117e-06
1.65117e-06
1.65117e-06
1.65585e-06
1.6578e-06
1.6576e-06
1.65489e-06
1.65117e-06
1.65117e-06
1.65117e-06
1.65117e-06
1.65117e-06
1.65117e-06
1.65602e-06
1.65755e-06
1.65743e-06
1.65474e-06
1.65117e-06
1.65117e-06
1.65117e-06
1.65117e-06
1.65117e-06
1.65117e-06
1.65601e-06
1.65574e-06
1.65498e-06
1.65117e-06
1.65117e-06
1.65117e-06
1.65117e-06
1.65117e-06
1.65117e-06
1.65595e-06
1.65789e-06
1.65726e-06
1.65475e-06
1.65117e-06
1.65117e-06
1.65117e-06
1.65117e-06
1.65582e-06
1.65582e-06
1.65779e-06
1.65747e-06
1.6556e-06
1.65585e-06
1.65602e-06
1.65601e-06
1.65595e-06
1.65582e-06
1.65776e-06
1.6578e-06
1.65755e-06
1.65574e-06
1.65789e-06
1.65778e-06
1.63819e-06
1.63802e-06
1.63782e-06
1.63556e-06
1.63549e-06
1.63534e-06
1.63558e-06
1.63786e-06
1.63808e-06
1.63783e-06
1.6347e-06
1.63177e-06
1.63177e-06
1.63177e-06
1.63177e-06
1.63535e-06
1.63617e-06
1.63556e-06
1.63177e-06
1.63177e-06
1.63177e-06
1.63177e-06
1.63177e-06
1.63177e-06
1.63645e-06
1.6384e-06
1.6382e-06
1.63548e-06
1.63177e-06
1.63177e-06
1.63177e-06
1.63177e-06
1.63177e-06
1.63177e-06
1.63662e-06
1.63815e-06
1.63802e-06
1.63534e-06
1.63177e-06
1.63177e-06
1.63177e-06
1.63177e-06
1.63177e-06
1.63177e-06
1.63661e-06
1.63634e-06
1.63558e-06
1.63177e-06
1.63177e-06
1.63177e-06
1.63177e-06
1.63177e-06
1.63177e-06
1.63655e-06
1.63849e-06
1.63786e-06
1.63535e-06
1.63177e-06
1.63177e-06
1.63177e-06
1.63177e-06
1.63642e-06
1.63642e-06
1.63838e-06
1.63807e-06
1.6362e-06
1.63645e-06
1.63662e-06
1.63661e-06
1.63655e-06
1.63642e-06
1.63836e-06
1.6384e-06
1.63815e-06
1.63634e-06
1.63849e-06
1.63838e-06
1.61879e-06
1.61862e-06
1.61842e-06
1.61616e-06
1.61608e-06
1.61594e-06
1.61618e-06
1.61846e-06
1.61868e-06
1.61843e-06
1.6153e-06
1.61237e-06
1.61237e-06
1.61237e-06
1.61237e-06
1.61595e-06
1.61677e-06
1.61616e-06
1.61237e-06
1.61237e-06
1.61237e-06
1.61237e-06
1.61237e-06
1.61237e-06
1.61705e-06
1.619e-06
1.61879e-06
1.61608e-06
1.61237e-06
1.61237e-06
1.61237e-06
1.61237e-06
1.61237e-06
1.61237e-06
1.61722e-06
1.61875e-06
1.61862e-06
1.61594e-06
1.61237e-06
1.61237e-06
1.61237e-06
1.61237e-06
1.61237e-06
1.61237e-06
1.61721e-06
1.61694e-06
1.61618e-06
1.61237e-06
1.61237e-06
1.61237e-06
1.61237e-06
1.61237e-06
1.61237e-06
1.61715e-06
1.61909e-06
1.61845e-06
1.61595e-06
1.61237e-06
1.61237e-06
1.61237e-06
1.61237e-06
1.61702e-06
1.61702e-06
1.61898e-06
1.61867e-06
1.6168e-06
1.61705e-06
1.61722e-06
1.61721e-06
1.61715e-06
1.61702e-06
1.61896e-06
1.619e-06
1.61875e-06
1.61694e-06
1.61909e-06
1.61898e-06
1.59939e-06
1.59922e-06
1.59902e-06
1.59676e-06
1.59668e-06
1.59654e-06
1.59678e-06
1.59906e-06
1.59928e-06
1.59902e-06
1.5959e-06
1.59297e-06
1.59297e-06
1.59297e-06
1.59297e-06
1.59655e-06
1.59737e-06
1.59676e-06
1.59297e-06
1.59297e-06
1.59297e-06
1.59297e-06
1.59297e-06
1.59297e-06
1.59765e-06
1.5996e-06
1.59939e-06
1.59668e-06
1.59297e-06
1.59297e-06
1.59297e-06
1.59297e-06
1.59297e-06
1.59297e-06
1.59782e-06
1.59935e-06
1.59922e-06
1.59654e-06
1.59297e-06
1.59297e-06
1.59297e-06
1.59297e-06
1.59297e-06
1.59297e-06
1.59781e-06
1.59754e-06
1.59678e-06
1.59297e-06
1.59297e-06
1.59297e-06
1.59297e-06
1.59297e-06
1.59297e-06
1.59775e-06
1.59969e-06
1.59905e-06
1.59655e-06
1.59297e-06
1.59297e-06
1.59297e-06
1.59297e-06
1.59762e-06
1.59762e-06
1.59958e-06
1.59927e-06
1.5974e-06
1.59765e-06
1.59782e-06
1.59781e-06
1.59775e-06
1.59761e-06
1.59956e-06
1.5996e-06
1.59935e-06
1.59754e-06
1.59969e-06
1.59958e-06
1.57999e-06
1.57982e-06
1.57962e-06
1.57736e-06
1.57728e-06
1.57714e-06
1.57738e-06
1.57966e-06
1.57988e-06
1.57962e-06
1.5765e-06
1.57357e-06
1.57357e-06
1.57357e-06
1.57357e-06
1.57715e-06
1.57797e-06
1.57736e-06
1.57357e-06
1.57357e-06
1.57357e-06
1.57357e-06
1.57357e-06
1.57357e-06
1.57825e-06
1.5802e-06
1.57999e-06
1.57728e-06
1.57357e-06
1.57357e-06
1.57357e-06
1.57357e-06
1.57357e-06
1.57357e-06
1.57842e-06
1.57995e-06
1.57982e-06
1.57714e-06
1.57357e-06
1.57357e-06
1.57357e-06
1.57357e-06
1.57357e-06
1.57357e-06
1.57841e-06
1.57814e-06
1.57738e-06
1.57357e-06
1.57357e-06
1.57357e-06
1.57357e-06
1.57357e-06
1.57357e-06
1.57835e-06
1.58029e-06
1.57965e-06
1.57715e-06
1.57357e-06
1.57357e-06
1.57357e-06
1.57357e-06
1.57822e-06
1.57822e-06
1.58018e-06
1.57987e-06
1.578e-06
1.57825e-06
1.57841e-06
1.57841e-06
1.57835e-06
1.57821e-06
1.58016e-06
1.5802e-06
1.57995e-06
1.57813e-06
1.58029e-06
1.58018e-06
1.56059e-06
1.56042e-06
1.56022e-06
1.55796e-06
1.55788e-06
1.55774e-06
1.55798e-06
1.56026e-06
1.56048e-06
1.56022e-06
1.5571e-06
1.55417e-06
1.55417e-06
1.55417e-06
1.55417e-06
1.55775e-06
1.55857e-06
1.55796e-06
1.55417e-06
1.55417e-06
1.55417e-06
1.55417e-06
1.55417e-06
1.55417e-06
1.55885e-06
1.5608e-06
1.56059e-06
1.55788e-06
1.55417e-06
1.55417e-06
1.55417e-06
1.55417e-06
1.55417e-06
1.55417e-06
1.55902e-06
1.56055e-06
1.56042e-06
1.55774e-06
1.55417e-06
1.55417e-06
1.55417e-06
1.55417e-06
1.55417e-06
1.55417e-06
1.55901e-06
1.55874e-06
1.55798e-06
1.55417e-06
1.55417e-06
1.55417e-06
1.55417e-06
1.55417e-06
1.55417e-06
1.55895e-06
1.56089e-06
1.56025e-06
1.55775e-06
1.55417e-06
1.55417e-06
1.55417e-06
1.55417e-06
1.55882e-06
1.55882e-06
1.56078e-06
1.56047e-06
1.5586e-06
1.55885e-06
1.55902e-06
1.55901e-06
1.55895e-06
1.55881e-06
1.56076e-06
1.5608e-06
1.56055e-06
1.55874e-06
1.56089e-06
1.56078e-06
1.54119e-06
1.54102e-06
1.54082e-06
1.53856e-06
1.53849e-06
1.53834e-06
1.53858e-06
1.54086e-06
1.54108e-06
1.54082e-06
1.53771e-06
1.53477e-06
1.53477e-06
1.53477e-06
1.53477e-06
1.53835e-06
1.53917e-06
1.53856e-06
1.53477e-06
1.53477e-06
1.53477e-06
1.53477e-06
1.53477e-06
1.53477e-06
1.53945e-06
1.5414e-06
1.54119e-06
1.53848e-06
1.53477e-06
1.53477e-06
1.53477e-06
1.53477e-06
1.53477e-06
1.53477e-06
1.53962e-06
1.54115e-06
1.54102e-06
1.53834e-06
1.53477e-06
1.53477e-06
1.53477e-06
1.53477e-06
1.53477e-06
1.53477e-06
1.53961e-06
1.53934e-06
1.53858e-06
1.53477e-06
1.53477e-06
1.53477e-06
1.53477e-06
1.53477e-06
1.53477e-06
1.53955e-06
1.54149e-06
1.54085e-06
1.53835e-06
1.53477e-06
1.53477e-06
1.53477e-06
1.53477e-06
1.53942e-06
1.53942e-06
1.54138e-06
1.54107e-06
1.5392e-06
1.53945e-06
1.53962e-06
1.53961e-06
1.53955e-06
1.53942e-06
1.54136e-06
1.5414e-06
1.54115e-06
1.53934e-06
1.54149e-06
1.54138e-06
1.52179e-06
1.52162e-06
1.52142e-06
1.51916e-06
1.51909e-06
1.51894e-06
1.51918e-06
1.52146e-06
1.52168e-06
1.52142e-06
1.51831e-06
1.51537e-06
1.51537e-06
1.51537e-06
1.51537e-06
1.51895e-06
1.51977e-06
1.51916e-06
1.51537e-06
1.51537e-06
1.51537e-06
1.51537e-06
1.51537e-06
1.51537e-06
1.52005e-06
1.522e-06
1.5218e-06
1.51909e-06
1.51537e-06
1.51537e-06
1.51537e-06
1.51537e-06
1.51537e-06
1.51537e-06
1.52022e-06
1.52175e-06
1.52162e-06
1.51894e-06
1.51537e-06
1.51537e-06
1.51537e-06
1.51537e-06
1.51537e-06
1.51537e-06
1.52021e-06
1.51994e-06
1.51918e-06
1.51537e-06
1.51537e-06
1.51537e-06
1.51537e-06
1.51537e-06
1.51537e-06
1.52015e-06
1.52209e-06
1.52146e-06
1.51895e-06
1.51537e-06
1.51537e-06
1.51537e-06
1.51537e-06
1.52002e-06
1.52002e-06
1.52198e-06
1.52167e-06
1.5198e-06
1.52005e-06
1.52022e-06
1.52021e-06
1.52015e-06
1.52002e-06
1.52196e-06
1.522e-06
1.52175e-06
1.51994e-06
1.52209e-06
1.52198e-06
1.50239e-06
1.50223e-06
1.50202e-06
1.49976e-06
1.49969e-06
1.49954e-06
1.49978e-06
1.50206e-06
1.50229e-06
1.50202e-06
1.49891e-06
1.49597e-06
1.49597e-06
1.49597e-06
1.49597e-06
1.49955e-06
1.50037e-06
1.49976e-06
1.49597e-06
1.49597e-06
1.49597e-06
1.49597e-06
1.49597e-06
1.49597e-06
1.50065e-06
1.5026e-06
1.5024e-06
1.49969e-06
1.49597e-06
1.49597e-06
1.49597e-06
1.49597e-06
1.49597e-06
1.49597e-06
1.50082e-06
1.50235e-06
1.50223e-06
1.49954e-06
1.49597e-06
1.49597e-06
1.49597e-06
1.49597e-06
1.49597e-06
1.49597e-06
1.50081e-06
1.50054e-06
1.49978e-06
1.49597e-06
1.49597e-06
1.49597e-06
1.49597e-06
1.49597e-06
1.49597e-06
1.50075e-06
1.50269e-06
1.50206e-06
1.49955e-06
1.49597e-06
1.49597e-06
1.49597e-06
1.49597e-06
1.50062e-06
1.50063e-06
1.50259e-06
1.50227e-06
1.5004e-06
1.50065e-06
1.50082e-06
1.50081e-06
1.50075e-06
1.50062e-06
1.50256e-06
1.5026e-06
1.50235e-06
1.50054e-06
1.50269e-06
1.50259e-06
1.48299e-06
1.48283e-06
1.48262e-06
1.48037e-06
1.48029e-06
1.48014e-06
1.48039e-06
1.48266e-06
1.48289e-06
1.48263e-06
1.47951e-06
1.47657e-06
1.47657e-06
1.47657e-06
1.47657e-06
1.48015e-06
1.48097e-06
1.48036e-06
1.47657e-06
1.47657e-06
1.47657e-06
1.47657e-06
1.47657e-06
1.47657e-06
1.48125e-06
1.4832e-06
1.483e-06
1.48029e-06
1.47657e-06
1.47657e-06
1.47657e-06
1.47657e-06
1.47657e-06
1.47657e-06
1.48142e-06
1.48295e-06
1.48283e-06
1.48014e-06
1.47657e-06
1.47657e-06
1.47657e-06
1.47657e-06
1.47657e-06
1.47657e-06
1.48142e-06
1.48114e-06
1.48038e-06
1.47657e-06
1.47657e-06
1.47657e-06
1.47657e-06
1.47657e-06
1.47657e-06
1.48136e-06
1.48329e-06
1.48266e-06
1.48015e-06
1.47657e-06
1.47657e-06
1.47657e-06
1.47657e-06
1.48122e-06
1.48123e-06
1.48319e-06
1.48287e-06
1.481e-06
1.48125e-06
1.48142e-06
1.48141e-06
1.48135e-06
1.48122e-06
1.48317e-06
1.48321e-06
1.48295e-06
1.48114e-06
1.48329e-06
1.48319e-06
1.4636e-06
1.46343e-06
1.46323e-06
1.46097e-06
1.46089e-06
1.46075e-06
1.46099e-06
1.46326e-06
1.46349e-06
1.46323e-06
1.46011e-06
1.45717e-06
1.45717e-06
1.45717e-06
1.45717e-06
1.46075e-06
1.46158e-06
1.46097e-06
1.45717e-06
1.45717e-06
1.45717e-06
1.45717e-06
1.45717e-06
1.45717e-06
1.46186e-06
1.46381e-06
1.4636e-06
1.46089e-06
1.45717e-06
1.45717e-06
1.45717e-06
1.45717e-06
1.45717e-06
1.45717e-06
1.46202e-06
1.46355e-06
1.46343e-06
1.46075e-06
1.45717e-06
1.45717e-06
1.45717e-06
1.45717e-06
1.45717e-06
1.45717e-06
1.46202e-06
1.46174e-06
1.46099e-06
1.45717e-06
1.45717e-06
1.45717e-06
1.45717e-06
1.45717e-06
1.45717e-06
1.46196e-06
1.46389e-06
1.46326e-06
1.46076e-06
1.45717e-06
1.45717e-06
1.45717e-06
1.45717e-06
1.46183e-06
1.46183e-06
1.46379e-06
1.46347e-06
1.46161e-06
1.46186e-06
1.46202e-06
1.46202e-06
1.46196e-06
1.46182e-06
1.46377e-06
1.46381e-06
1.46356e-06
1.46174e-06
1.46389e-06
1.46379e-06
1.4442e-06
1.44403e-06
1.44383e-06
1.44157e-06
1.44149e-06
1.44135e-06
1.44159e-06
1.44387e-06
1.44409e-06
1.44383e-06
1.44071e-06
1.43778e-06
1.43778e-06
1.43778e-06
1.43778e-06
1.44136e-06
1.44218e-06
1.44157e-06
1.43778e-06
1.43778e-06
1.43778e-06
1.43778e-06
1.43778e-06
1.43778e-06
1.44246e-06
1.44441e-06
1.4442e-06
1.44149e-06
1.43778e-06
1.43778e-06
1.43778e-06
1.43778e-06
1.43778e-06
1.43778e-06
1.44263e-06
1.44416e-06
1.44403e-06
1.44135e-06
1.43778e-06
1.43778e-06
1.43778e-06
1.43778e-06
1.43778e-06
1.43778e-06
1.44262e-06
1.44235e-06
1.44159e-06
1.43778e-06
1.43778e-06
1.43778e-06
1.43778e-06
1.43778e-06
1.43778e-06
1.44256e-06
1.4445e-06
1.44386e-06
1.44136e-06
1.43778e-06
1.43778e-06
1.43778e-06
1.43778e-06
1.44243e-06
1.44243e-06
1.44439e-06
1.44408e-06
1.44221e-06
1.44246e-06
1.44263e-06
1.44262e-06
1.44256e-06
1.44242e-06
1.44437e-06
1.44441e-06
1.44416e-06
1.44235e-06
1.44449e-06
1.44439e-06
1.4248e-06
1.42463e-06
1.42443e-06
1.42217e-06
1.4221e-06
1.42195e-06
1.42219e-06
1.42447e-06
1.42469e-06
1.42443e-06
1.42132e-06
1.41838e-06
1.41838e-06
1.41838e-06
1.41838e-06
1.42196e-06
1.42278e-06
1.42217e-06
1.41838e-06
1.41838e-06
1.41838e-06
1.41838e-06
1.41838e-06
1.41838e-06
1.42306e-06
1.42501e-06
1.42481e-06
1.4221e-06
1.41838e-06
1.41838e-06
1.41838e-06
1.41838e-06
1.41838e-06
1.41838e-06
1.42323e-06
1.42476e-06
1.42463e-06
1.42195e-06
1.41838e-06
1.41838e-06
1.41838e-06
1.41838e-06
1.41838e-06
1.41838e-06
1.42322e-06
1.42295e-06
1.42219e-06
1.41838e-06
1.41838e-06
1.41838e-06
1.41838e-06
1.41838e-06
1.41838e-06
1.42316e-06
1.4251e-06
1.42447e-06
1.42196e-06
1.41838e-06
1.41838e-06
1.41838e-06
1.41838e-06
1.42303e-06
1.42303e-06
1.42499e-06
1.42468e-06
1.42281e-06
1.42306e-06
1.42323e-06
1.42322e-06
1.42316e-06
1.42303e-06
1.42497e-06
1.42501e-06
1.42476e-06
1.42295e-06
1.4251e-06
1.42499e-06
1.4054e-06
1.40524e-06
1.40503e-06
1.40277e-06
1.4027e-06
1.40255e-06
1.4028e-06
1.40507e-06
1.4053e-06
1.40503e-06
1.40192e-06
1.39898e-06
1.39898e-06
1.39898e-06
1.39898e-06
1.40256e-06
1.40338e-06
1.40277e-06
1.39898e-06
1.39898e-06
1.39898e-06
1.39898e-06
1.39898e-06
1.39898e-06
1.40366e-06
1.40561e-06
1.40541e-06
1.4027e-06
1.39898e-06
1.39898e-06
1.39898e-06
1.39898e-06
1.39898e-06
1.39898e-06
1.40383e-06
1.40536e-06
1.40524e-06
1.40255e-06
1.39898e-06
1.39898e-06
1.39898e-06
1.39898e-06
1.39898e-06
1.39898e-06
1.40382e-06
1.40355e-06
1.40279e-06
1.39898e-06
1.39898e-06
1.39898e-06
1.39898e-06
1.39898e-06
1.39898e-06
1.40376e-06
1.4057e-06
1.40507e-06
1.40256e-06
1.39898e-06
1.39898e-06
1.39898e-06
1.39898e-06
1.40363e-06
1.40364e-06
1.4056e-06
1.40528e-06
1.40341e-06
1.40366e-06
1.40383e-06
1.40382e-06
1.40376e-06
1.40363e-06
1.40558e-06
1.40561e-06
1.40536e-06
1.40355e-06
1.4057e-06
1.4056e-06
1.386e-06
1.38584e-06
1.38563e-06
1.38338e-06
1.3833e-06
1.38315e-06
1.3834e-06
1.38567e-06
1.3859e-06
1.38564e-06
1.38252e-06
1.37958e-06
1.37958e-06
1.37958e-06
1.37958e-06
1.38316e-06
1.38398e-06
1.38337e-06
1.37958e-06
1.37958e-06
1.37958e-06
1.37958e-06
1.37958e-06
1.37958e-06
1.38426e-06
1.38621e-06
1.38601e-06
1.3833e-06
1.37958e-06
1.37958e-06
1.37958e-06
1.37958e-06
1.37958e-06
1.37958e-06
1.38443e-06
1.38596e-06
1.38584e-06
1.38315e-06
1.37958e-06
1.37958e-06
1.37958e-06
1.37958e-06
1.37958e-06
1.37958e-06
1.38443e-06
1.38415e-06
1.38339e-06
1.37958e-06
1.37958e-06
1.37958e-06
1.37958e-06
1.37958e-06
1.37958e-06
1.38437e-06
1.3863e-06
1.38567e-06
1.38316e-06
1.37958e-06
1.37958e-06
1.37958e-06
1.37958e-06
1.38423e-06
1.38424e-06
1.3862e-06
1.38588e-06
1.38401e-06
1.38426e-06
1.38443e-06
1.38442e-06
1.38436e-06
1.38423e-06
1.38618e-06
1.38622e-06
1.38596e-06
1.38415e-06
1.3863e-06
1.3862e-06
1.3666e-06
1.36644e-06
1.36624e-06
1.36398e-06
1.3639e-06
1.36376e-06
1.364e-06
1.36627e-06
1.3665e-06
1.36624e-06
1.36312e-06
1.36018e-06
1.36018e-06
1.36018e-06
1.36018e-06
1.36376e-06
1.36458e-06
1.36398e-06
1.36018e-06
1.36018e-06
1.36018e-06
1.36018e-06
1.36018e-06
1.36018e-06
1.36486e-06
1.36682e-06
1.36661e-06
1.3639e-06
1.36018e-06
1.36018e-06
1.36018e-06
1.36018e-06
1.36018e-06
1.36018e-06
1.36503e-06
1.36656e-06
1.36644e-06
1.36375e-06
1.36018e-06
1.36018e-06
1.36018e-06
1.36018e-06
1.36018e-06
1.36018e-06
1.36503e-06
1.36475e-06
1.364e-06
1.36018e-06
1.36018e-06
1.36018e-06
1.36018e-06
1.36018e-06
1.36018e-06
1.36497e-06
1.3669e-06
1.36627e-06
1.36376e-06
1.36018e-06
1.36018e-06
1.36018e-06
1.36018e-06
1.36483e-06
1.36484e-06
1.3668e-06
1.36648e-06
1.36462e-06
1.36487e-06
1.36503e-06
1.36503e-06
1.36497e-06
1.36483e-06
1.36678e-06
1.36682e-06
1.36657e-06
1.36475e-06
1.3669e-06
1.3668e-06
1.3472e-06
1.34704e-06
1.34684e-06
1.34458e-06
1.3445e-06
1.34436e-06
1.3446e-06
1.34687e-06
1.3471e-06
1.34684e-06
1.34372e-06
1.34078e-06
1.34078e-06
1.34078e-06
1.34078e-06
1.34436e-06
1.34519e-06
1.34458e-06
1.34078e-06
1.34078e-06
1.34078e-06
1.34078e-06
1.34078e-06
1.34078e-06
1.34546e-06
1.34742e-06
1.34721e-06
1.3445e-06
1.34078e-06
1.34078e-06
1.34078e-06
1.34078e-06
1.34078e-06
1.34078e-06
1.34563e-06
1.34716e-06
1.34704e-06
1.34435e-06
1.34078e-06
1.34078e-06
1.34078e-06
1.34078e-06
1.34078e-06
1.34078e-06
1.34563e-06
1.34535e-06
1.3446e-06
1.34078e-06
1.34078e-06
1.34078e-06
1.34078e-06
1.34078e-06
1.34078e-06
1.34557e-06
1.3475e-06
1.34687e-06
1.34436e-06
1.34078e-06
1.34078e-06
1.34078e-06
1.34078e-06
1.34543e-06
1.34544e-06
1.3474e-06
1.34708e-06
1.34522e-06
1.34547e-06
1.34563e-06
1.34563e-06
1.34557e-06
1.34543e-06
1.34738e-06
1.34742e-06
1.34717e-06
1.34535e-06
1.3475e-06
1.3474e-06
1.3278e-06
1.32764e-06
1.32743e-06
1.32518e-06
1.3251e-06
1.32496e-06
1.3252e-06
1.32747e-06
1.3277e-06
1.32744e-06
1.32432e-06
1.32138e-06
1.32138e-06
1.32138e-06
1.32138e-06
1.32496e-06
1.32578e-06
1.32517e-06
1.32138e-06
1.32138e-06
1.32138e-06
1.32138e-06
1.32138e-06
1.32138e-06
1.32606e-06
1.32802e-06
1.32781e-06
1.3251e-06
1.32138e-06
1.32138e-06
1.32138e-06
1.32138e-06
1.32138e-06
1.32138e-06
1.32623e-06
1.32776e-06
1.32764e-06
1.32495e-06
1.32138e-06
1.32138e-06
1.32138e-06
1.32138e-06
1.32138e-06
1.32138e-06
1.32623e-06
1.32595e-06
1.32519e-06
1.32138e-06
1.32138e-06
1.32138e-06
1.32138e-06
1.32138e-06
1.32138e-06
1.32617e-06
1.3281e-06
1.32747e-06
1.32496e-06
1.32138e-06
1.32138e-06
1.32138e-06
1.32138e-06
1.32603e-06
1.32604e-06
1.328e-06
1.32768e-06
1.32582e-06
1.32607e-06
1.32623e-06
1.32623e-06
1.32617e-06
1.32603e-06
1.32798e-06
1.32802e-06
1.32777e-06
1.32595e-06
1.3281e-06
1.328e-06
1.3084e-06
1.30824e-06
1.30803e-06
1.30578e-06
1.3057e-06
1.30555e-06
1.3058e-06
1.30807e-06
1.3083e-06
1.30804e-06
1.30492e-06
1.30198e-06
1.30198e-06
1.30198e-06
1.30198e-06
1.30556e-06
1.30638e-06
1.30577e-06
1.30198e-06
1.30198e-06
1.30198e-06
1.30198e-06
1.30198e-06
1.30198e-06
1.30666e-06
1.30861e-06
1.30841e-06
1.3057e-06
1.30198e-06
1.30198e-06
1.30198e-06
1.30198e-06
1.30198e-06
1.30198e-06
1.30683e-06
1.30836e-06
1.30824e-06
1.30555e-06
1.30198e-06
1.30198e-06
1.30198e-06
1.30198e-06
1.30198e-06
1.30198e-06
1.30683e-06
1.30655e-06
1.30579e-06
1.30198e-06
1.30198e-06
1.30198e-06
1.30198e-06
1.30198e-06
1.30198e-06
1.30677e-06
1.3087e-06
1.30807e-06
1.30556e-06
1.30198e-06
1.30198e-06
1.30198e-06
1.30198e-06
1.30663e-06
1.30664e-06
1.3086e-06
1.30828e-06
1.30641e-06
1.30666e-06
1.30683e-06
1.30682e-06
1.30676e-06
1.30663e-06
1.30858e-06
1.30862e-06
1.30836e-06
1.30655e-06
1.3087e-06
1.3086e-06
1.289e-06
1.28884e-06
1.28863e-06
1.28638e-06
1.2863e-06
1.28615e-06
1.2864e-06
1.28867e-06
1.2889e-06
1.28864e-06
1.28552e-06
1.28258e-06
1.28258e-06
1.28258e-06
1.28258e-06
1.28616e-06
1.28698e-06
1.28637e-06
1.28258e-06
1.28258e-06
1.28258e-06
1.28258e-06
1.28258e-06
1.28258e-06
1.28726e-06
1.28921e-06
1.28901e-06
1.2863e-06
1.28258e-06
1.28258e-06
1.28258e-06
1.28258e-06
1.28258e-06
1.28258e-06
1.28743e-06
1.28896e-06
1.28884e-06
1.28615e-06
1.28258e-06
1.28258e-06
1.28258e-06
1.28258e-06
1.28258e-06
1.28258e-06
1.28742e-06
1.28715e-06
1.28639e-06
1.28258e-06
1.28258e-06
1.28258e-06
1.28258e-06
1.28258e-06
1.28258e-06
1.28737e-06
1.2893e-06
1.28867e-06
1.28616e-06
1.28258e-06
1.28258e-06
1.28258e-06
1.28258e-06
1.28723e-06
1.28724e-06
1.2892e-06
1.28888e-06
1.28701e-06
1.28726e-06
1.28743e-06
1.28742e-06
1.28736e-06
1.28723e-06
1.28918e-06
1.28922e-06
1.28896e-06
1.28715e-06
1.2893e-06
1.2892e-06
1.2696e-06
1.26944e-06
1.26923e-06
1.26697e-06
1.2669e-06
1.26675e-06
1.26699e-06
1.26927e-06
1.2695e-06
1.26923e-06
1.26612e-06
1.26318e-06
1.26318e-06
1.26318e-06
1.26318e-06
1.26676e-06
1.26758e-06
1.26697e-06
1.26318e-06
1.26318e-06
1.26318e-06
1.26318e-06
1.26318e-06
1.26318e-06
1.26786e-06
1.26981e-06
1.26961e-06
1.2669e-06
1.26318e-06
1.26318e-06
1.26318e-06
1.26318e-06
1.26318e-06
1.26318e-06
1.26803e-06
1.26956e-06
1.26944e-06
1.26675e-06
1.26318e-06
1.26318e-06
1.26318e-06
1.26318e-06
1.26318e-06
1.26318e-06
1.26802e-06
1.26775e-06
1.26699e-06
1.26318e-06
1.26318e-06
1.26318e-06
1.26318e-06
1.26318e-06
1.26318e-06
1.26796e-06
1.2699e-06
1.26927e-06
1.26676e-06
1.26318e-06
1.26318e-06