/*--------------------------------*- C++ -*----------------------------------*\
| =========                 |                                                 |
| \\      /  F ield         | OpenFOAM: The Open Source CFD Toolbox           |
|  \\    /   O peration     | Version:  v2012                                 |
|   \\  /    A nd           | Website:  www.openfoam.com                      |
|    \\/     M anipulation  |                                                 |
\*---------------------------------------------------------------------------*/
FoamFile
{
    version     2.0;
    format      ascii;
    class       volScalarField;
    location    "200";
    object      epsilon;
}
// * * * * * * * * * * * * * * * * * * * * * * * * * * * * * * * * * * * * * //

dimensions      [0 2 -3 0 0 0 0];


internalField   nonuniform List<scalar> 
171728
(
1.10727e-08
5.98854e-09
8.47563e-09
4.9944e-09
1.09374e-08
4.02687e-09
6.33092e-09
4.54314e-09
1.10393e-08
3.5501e-09
4.76353e-09
4.13829e-09
1.11916e-08
3.34205e-09
4.06865e-09
3.7994e-09
1.13669e-08
3.2134e-09
3.6946e-09
3.52122e-09
1.1564e-08
3.12339e-09
3.49155e-09
3.28382e-09
1.17716e-08
3.06955e-09
3.36554e-09
3.07907e-09
1.199e-08
3.05729e-09
3.29917e-09
2.90273e-09
1.22216e-08
3.08194e-09
3.28327e-09
2.75058e-09
1.24719e-08
3.1448e-09
3.31265e-09
2.6384e-09
1.27318e-08
3.24925e-09
3.39467e-09
2.57617e-09
1.30032e-08
3.3987e-09
3.52595e-09
2.56298e-09
1.32865e-08
3.60225e-09
3.71121e-09
2.59975e-09
1.35765e-08
3.87356e-09
3.96628e-09
2.68678e-09
1.38735e-08
4.23773e-09
4.3142e-09
2.87247e-09
1.41726e-08
4.73132e-09
4.79334e-09
3.18545e-09
1.44759e-08
5.40684e-09
5.46875e-09
3.69562e-09
1.47842e-08
6.36992e-09
6.41223e-09
4.64905e-09
1.51028e-08
7.75717e-09
7.80227e-09
6.10346e-09
1.54361e-08
9.65081e-09
9.70048e-09
8.67209e-09
1.57943e-08
1.26607e-08
1.26495e-08
1.34817e-08
1.61985e-08
1.64588e-08
1.63937e-08
1.99445e-08
1.66533e-08
2.19246e-08
2.20524e-08
3.34009e-08
1.71762e-08
2.95063e-08
2.95136e-08
5.22842e-08
1.77892e-08
3.93529e-08
3.93566e-08
8.17818e-08
1.8532e-08
5.19217e-08
5.19685e-08
1.22009e-07
1.94538e-08
6.7643e-08
6.72759e-08
1.73736e-07
2.05943e-08
8.64449e-08
8.59229e-08
2.40531e-07
2.20266e-08
1.08029e-07
1.07684e-07
3.12266e-07
2.38173e-08
1.33637e-07
1.32466e-07
3.94886e-07
2.60761e-08
1.62502e-07
1.60862e-07
4.74895e-07
2.88715e-08
1.94783e-07
1.92908e-07
5.47253e-07
3.23877e-08
2.30705e-07
2.28553e-07
6.18088e-07
3.66549e-08
2.69272e-07
2.6828e-07
6.81088e-07
4.19613e-08
3.10147e-07
3.09747e-07
7.36501e-07
4.81686e-08
3.52882e-07
3.52271e-07
7.87283e-07
5.5653e-08
3.98738e-07
3.99836e-07
8.32193e-07
6.45613e-08
4.45671e-07
4.47552e-07
8.69978e-07
7.516e-08
4.92933e-07
4.9507e-07
9.04389e-07
8.75117e-08
5.37862e-07
5.40912e-07
9.34728e-07
1.02416e-07
5.83345e-07
5.85816e-07
9.64903e-07
1.1986e-07
6.2547e-07
6.26621e-07
9.91229e-07
1.35471e-07
6.49028e-07
6.49503e-07
9.94121e-07
1.48206e-07
6.61044e-07
6.6147e-07
9.83254e-07
1.63529e-07
6.78856e-07
6.79336e-07
9.78346e-07
1.90352e-07
7.16478e-07
7.16888e-07
9.96238e-07
2.30542e-07
7.66856e-07
7.67134e-07
1.03389e-06
2.78818e-07
8.17891e-07
8.18066e-07
1.08011e-06
3.25241e-07
8.61558e-07
8.61693e-07
1.12699e-06
3.56732e-07
8.87861e-07
8.8798e-07
1.1579e-06
3.72752e-07
9.00288e-07
9.00398e-07
1.17382e-06
3.79448e-07
9.05321e-07
9.05426e-07
1.18073e-06
3.819e-07
9.07208e-07
9.07309e-07
1.18356e-06
3.82693e-07
9.0785e-07
9.07952e-07
1.18461e-06
3.82825e-07
9.07917e-07
9.0802e-07
1.18484e-06
3.82834e-07
9.07872e-07
9.07975e-07
1.18456e-06
3.82874e-07
9.07965e-07
9.08066e-07
1.18486e-06
3.82859e-07
9.07918e-07
9.08021e-07
1.18477e-06
3.82854e-07
9.07906e-07
9.08011e-07
1.18469e-06
3.82858e-07
9.07932e-07
9.08033e-07
1.18481e-06
3.82855e-07
9.07913e-07
9.08017e-07
1.18468e-06
3.82857e-07
9.07921e-07
9.08027e-07
1.18478e-06
3.82857e-07
9.07922e-07
9.08024e-07
1.18476e-06
3.82858e-07
9.07921e-07
9.08023e-07
1.18472e-06
3.82858e-07
9.07919e-07
9.08021e-07
1.1848e-06
3.82858e-07
9.07923e-07
9.08026e-07
1.18475e-06
3.82858e-07
9.0792e-07
9.08022e-07
1.18471e-06
3.82858e-07
9.07917e-07
9.08019e-07
1.18475e-06
3.82858e-07
9.07926e-07
9.08028e-07
1.18481e-06
3.82857e-07
9.07918e-07
9.08021e-07
1.18476e-06
3.82855e-07
9.07921e-07
9.08021e-07
1.18475e-06
3.82855e-07
9.07921e-07
9.08021e-07
1.18467e-06
3.82854e-07
9.07922e-07
9.0802e-07
1.18481e-06
3.82854e-07
9.07916e-07
9.08015e-07
1.18474e-06
3.82851e-07
9.07921e-07
9.08018e-07
1.18471e-06
3.8285e-07
9.07922e-07
9.08019e-07
1.18482e-06
3.82848e-07
9.07914e-07
9.08011e-07
1.18479e-06
3.82848e-07
9.07917e-07
9.08011e-07
1.18471e-06
3.82848e-07
9.07921e-07
9.08014e-07
1.18477e-06
3.82848e-07
9.07915e-07
9.08013e-07
1.18476e-06
3.82848e-07
9.07912e-07
9.08017e-07
1.18468e-06
3.82848e-07
9.07913e-07
9.08015e-07
1.18463e-06
3.82847e-07
9.07915e-07
9.08017e-07
1.18467e-06
3.82847e-07
9.07915e-07
9.08016e-07
1.18476e-06
3.82847e-07
9.07914e-07
9.08015e-07
1.1848e-06
3.82846e-07
9.07919e-07
9.08019e-07
1.1848e-06
3.82845e-07
9.07923e-07
9.08025e-07
1.18475e-06
3.82845e-07
9.07929e-07
9.0803e-07
1.18471e-06
3.82845e-07
9.07939e-07
9.0804e-07
1.18474e-06
3.82847e-07
9.0795e-07
9.08051e-07
1.18475e-06
3.82849e-07
9.07968e-07
9.08068e-07
1.18472e-06
3.82853e-07
9.07999e-07
9.08102e-07
1.18472e-06
3.8285e-07
9.08041e-07
9.0814e-07
1.18471e-06
3.82341e-07
9.07744e-07
9.07834e-07
1.1844e-06
3.64749e-07
8.51638e-07
8.51645e-07
1.13922e-06
5.18304e-09
4.28375e-09
5.0327e-09
5.02804e-09
4.82753e-09
4.0871e-09
1.1224e-08
1.12212e-08
1.1213e-08
1.12547e-08
4.14058e-09
4.11731e-09
4.97037e-09
4.55372e-09
4.29011e-09
5.02309e-09
5.14677e-09
4.77892e-09
4.89487e-09
1.88799e-08
4.60775e-09
1.46084e-08
4.95808e-09
4.69592e-09
8.94009e-09
4.31226e-09
6.87425e-09
3.89477e-09
4.78903e-09
4.27645e-09
4.49523e-09
4.93721e-09
4.58621e-09
4.89443e-09
6.88564e-09
4.60985e-09
4.57694e-09
4.74144e-09
4.35762e-09
4.51612e-09
1.29219e-08
4.26806e-09
9.03089e-09
4.61403e-09
4.23976e-09
6.24919e-09
3.78392e-09
4.88758e-09
3.52088e-09
4.40029e-09
3.63288e-09
4.13963e-09
4.5552e-09
4.21339e-09
4.51866e-09
5.05354e-09
4.27283e-09
4.1809e-09
4.32592e-09
3.97166e-09
4.19379e-09
8.15893e-09
3.99098e-09
6.37484e-09
4.18064e-09
3.80072e-09
4.57562e-09
3.44905e-09
3.92451e-09
3.26956e-09
4.06027e-09
3.38087e-09
3.83831e-09
4.18576e-09
3.86487e-09
4.19882e-09
4.19583e-09
3.99743e-09
3.84047e-09
3.94288e-09
3.64139e-09
3.9295e-09
5.93436e-09
3.76487e-09
4.87026e-09
3.75663e-09
3.43778e-09
3.77142e-09
3.22164e-09
3.40888e-09
3.10341e-09
3.77013e-09
3.24244e-09
3.58087e-09
3.84141e-09
3.56896e-09
3.93643e-09
3.77183e-09
3.77337e-09
3.54934e-09
3.62169e-09
3.39205e-09
3.7161e-09
4.59042e-09
3.58678e-09
3.95166e-09
3.40851e-09
3.15818e-09
3.314e-09
3.072e-09
3.10946e-09
2.99129e-09
3.52338e-09
3.14235e-09
3.36937e-09
3.55019e-09
3.32038e-09
3.72318e-09
3.52836e-09
3.59428e-09
3.30199e-09
3.37565e-09
3.17731e-09
3.54997e-09
3.79542e-09
3.45783e-09
3.45433e-09
3.13906e-09
2.95496e-09
3.06534e-09
2.96925e-09
2.98152e-09
2.92058e-09
3.32334e-09
3.07922e-09
3.20411e-09
3.30412e-09
3.11287e-09
3.55922e-09
3.3944e-09
3.4741e-09
3.09357e-09
3.16443e-09
3.00227e-09
3.43538e-09
3.37014e-09
3.38118e-09
3.16358e-09
2.94085e-09
2.78901e-09
2.9633e-09
2.90897e-09
2.93295e-09
2.89045e-09
3.17134e-09
3.05646e-09
3.08933e-09
3.10114e-09
2.94895e-09
3.45112e-09
3.30939e-09
3.39761e-09
2.9144e-09
2.99257e-09
2.86643e-09
3.36791e-09
3.10964e-09
3.34315e-09
3.00367e-09
2.77895e-09
2.65802e-09
2.93099e-09
2.89056e-09
2.93987e-09
2.90213e-09
3.0703e-09
3.07422e-09
3.03016e-09
2.93989e-09
2.81901e-09
3.38215e-09
3.28235e-09
3.35257e-09
2.75912e-09
2.86057e-09
2.76533e-09
3.33926e-09
2.9891e-09
3.3453e-09
2.98862e-09
2.65209e-09
2.56613e-09
2.9491e-09
2.91191e-09
2.99227e-09
2.95609e-09
3.02832e-09
3.12873e-09
3.03691e-09
2.81372e-09
2.72692e-09
3.34972e-09
3.30329e-09
3.35775e-09
2.6417e-09
2.76356e-09
2.70241e-09
3.35259e-09
3.00017e-09
3.39432e-09
3.04899e-09
2.5646e-09
2.5126e-09
3.01234e-09
2.97662e-09
3.08791e-09
3.05447e-09
3.0481e-09
3.22368e-09
3.10291e-09
2.72608e-09
2.67426e-09
3.36775e-09
3.37289e-09
3.4154e-09
2.5738e-09
2.70553e-09
2.67774e-09
3.41481e-09
3.07304e-09
3.50087e-09
3.16576e-09
2.51619e-09
2.49531e-09
3.11847e-09
3.08667e-09
3.2271e-09
3.20013e-09
3.12941e-09
3.36012e-09
3.23009e-09
2.67805e-09
2.65583e-09
3.43886e-09
3.49173e-09
3.52813e-09
2.55227e-09
2.68821e-09
2.69219e-09
3.53559e-09
3.20509e-09
3.66335e-09
3.34856e-09
2.50662e-09
2.52114e-09
3.26943e-09
3.24531e-09
3.41768e-09
3.39585e-09
3.27e-09
3.55004e-09
3.41348e-09
2.6672e-09
2.67819e-09
3.56426e-09
3.66272e-09
3.69298e-09
2.57662e-09
2.71263e-09
2.7607e-09
3.71221e-09
3.40537e-09
3.88897e-09
3.60151e-09
2.54302e-09
2.60197e-09
3.47441e-09
3.45385e-09
3.66983e-09
3.65367e-09
3.46972e-09
3.80279e-09
3.65517e-09
2.69972e-09
2.75617e-09
3.74208e-09
3.89918e-09
3.91488e-09
2.65131e-09
2.79534e-09
2.90408e-09
3.9573e-09
3.67662e-09
4.20369e-09
3.93571e-09
2.63862e-09
2.76356e-09
3.74405e-09
3.72935e-09
3.99911e-09
3.99343e-09
3.72685e-09
4.14126e-09
3.98501e-09
2.79278e-09
2.91015e-09
3.98291e-09
4.22167e-09
4.22931e-09
2.80907e-09
2.96564e-09
3.16954e-09
4.29866e-09
4.03569e-09
4.64035e-09
4.38541e-09
2.82337e-09
3.0417e-09
4.09838e-09
4.09678e-09
4.44427e-09
4.45355e-09
4.08584e-09
4.59774e-09
4.43485e-09
2.97483e-09
3.18494e-09
4.32569e-09
4.66311e-09
4.6642e-09
3.07682e-09
3.27584e-09
3.63096e-09
4.77336e-09
4.52563e-09
5.24951e-09
5.01066e-09
3.1556e-09
3.50487e-09
4.57967e-09
4.5922e-09
5.05758e-09
5.08066e-09
4.57079e-09
5.22237e-09
5.05381e-09
3.28896e-09
3.66421e-09
4.79808e-09
5.28629e-09
5.27609e-09
3.53959e-09
3.80372e-09
4.40632e-09
5.43419e-09
5.19995e-09
6.10373e-09
5.88031e-09
3.68002e-09
4.32042e-09
5.24647e-09
5.27172e-09
5.9185e-09
5.96111e-09
5.23388e-09
6.10711e-09
5.91569e-09
3.83342e-09
4.45942e-09
5.46154e-09
6.1497e-09
6.15189e-09
4.34304e-09
4.69296e-09
5.81713e-09
6.36765e-09
6.14448e-09
7.35452e-09
7.13152e-09
4.60836e-09
5.65704e-09
6.18728e-09
6.23229e-09
7.17107e-09
7.22632e-09
6.20073e-09
7.35728e-09
7.15078e-09
4.74344e-09
5.85588e-09
6.43049e-09
7.40712e-09
7.38576e-09
5.64554e-09
6.25347e-09
8.04354e-09
7.71215e-09
7.53669e-09
9.10681e-09
8.87185e-09
6.18074e-09
7.94139e-09
7.53133e-09
7.6334e-09
8.90701e-09
8.95926e-09
7.52414e-09
9.14439e-09
8.89902e-09
6.38777e-09
8.02975e-09
7.77109e-09
9.13861e-09
9.15837e-09
7.85002e-09
9.02344e-09
1.22782e-08
9.72812e-09
9.38137e-09
1.17063e-08
1.15448e-08
8.59251e-09
1.22336e-08
9.52895e-09
9.52427e-09
1.15025e-08
1.1697e-08
9.47934e-09
1.18043e-08
1.15588e-08
8.78954e-09
1.27026e-08
9.73361e-09
1.18811e-08
1.18255e-08
1.21904e-08
1.3336e-08
1.82281e-08
1.24365e-08
1.24098e-08
1.51777e-08
1.5103e-08
1.38152e-08
1.87993e-08
1.22273e-08
1.24823e-08
1.49481e-08
1.5125e-08
1.23445e-08
1.5404e-08
1.50258e-08
1.40334e-08
1.83766e-08
1.26105e-08
1.52758e-08
1.5273e-08
1.811e-08
2.03797e-08
3.01917e-08
1.63258e-08
1.61583e-08
2.03653e-08
1.99928e-08
2.06039e-08
2.91854e-08
1.60892e-08
1.62481e-08
2.00934e-08
2.03547e-08
1.60808e-08
2.03483e-08
2.01739e-08
2.0381e-08
3.05349e-08
1.63313e-08
2.04945e-08
2.04465e-08
2.97854e-08
3.34257e-08
4.80231e-08
2.19108e-08
2.15319e-08
2.72454e-08
2.71017e-08
3.23692e-08
4.83031e-08
2.16158e-08
2.19202e-08
2.69192e-08
2.72992e-08
2.17869e-08
2.74632e-08
2.7032e-08
3.38799e-08
4.88767e-08
2.20653e-08
2.74691e-08
2.73284e-08
4.78212e-08
5.28065e-08
7.46419e-08
2.9295e-08
2.91651e-08
3.63433e-08
3.61254e-08
5.32929e-08
7.44956e-08
2.89608e-08
2.93403e-08
3.5947e-08
3.65394e-08
2.90562e-08
3.66048e-08
3.62228e-08
5.36382e-08
7.59949e-08
2.93509e-08
3.66889e-08
3.65608e-08
7.48532e-08
8.13184e-08
1.12534e-07
3.90298e-08
3.88729e-08
4.82094e-08
4.81704e-08
8.11739e-08
1.13615e-07
3.86385e-08
3.92508e-08
4.77626e-08
4.83422e-08
3.88998e-08
4.85809e-08
4.81182e-08
8.29027e-08
1.13671e-07
3.92866e-08
4.84328e-08
4.85407e-08
1.128e-07
1.21527e-07
1.61917e-07
5.1588e-08
5.14873e-08
6.28422e-08
6.27269e-08
1.2263e-07
1.62145e-07
5.1082e-08
5.18767e-08
6.23141e-08
6.33267e-08
5.15922e-08
6.3348e-08
6.26798e-08
1.22948e-07
1.65622e-07
5.19841e-08
6.33195e-08
6.31277e-08
1.62689e-07
1.73421e-07
2.24895e-07
6.70469e-08
6.69509e-08
8.08301e-08
8.06747e-08
1.73738e-07
2.26179e-07
6.65349e-08
6.73407e-08
8.00998e-08
8.08478e-08
6.68104e-08
8.15276e-08
8.09921e-08
1.76568e-07
2.25423e-07
6.73027e-08
8.08485e-08
8.15116e-08
2.26319e-07
2.38393e-07
2.96633e-07
8.57785e-08
8.56284e-08
1.01924e-07
1.01695e-07
2.39605e-07
2.97227e-07
8.49789e-08
8.59186e-08
1.01036e-07
1.02322e-07
8.59679e-08
1.0233e-07
1.01675e-07
2.39535e-07
3.00328e-07
8.65138e-08
1.02065e-07
1.02339e-07
2.97375e-07
3.12017e-07
3.75291e-07
1.07717e-07
1.07367e-07
1.26088e-07
1.25872e-07
3.12514e-07
3.76027e-07
1.06817e-07
1.07998e-07
1.25258e-07
1.26333e-07
1.07551e-07
1.26818e-07
1.26586e-07
3.15339e-07
3.76296e-07
1.08254e-07
1.25881e-07
1.27669e-07
3.78174e-07
3.91446e-07
4.55726e-07
1.32753e-07
1.32663e-07
1.5462e-07
1.54144e-07
3.92486e-07
4.56687e-07
1.31908e-07
1.33114e-07
1.53597e-07
1.542e-07
1.33216e-07
1.55115e-07
1.54856e-07
3.9237e-07
4.55246e-07
1.34467e-07
1.53456e-07
1.56516e-07
4.5864e-07
4.72193e-07
5.3156e-07
1.62113e-07
1.61498e-07
1.85501e-07
1.85198e-07
4.72823e-07
5.32049e-07
1.6118e-07
1.61563e-07
1.84709e-07
1.85795e-07
1.62468e-07
1.86277e-07
1.8542e-07
4.71312e-07
5.30926e-07
1.64386e-07
1.84544e-07
1.88725e-07
5.32084e-07
5.47479e-07
6.03965e-07
1.94121e-07
1.93681e-07
2.21597e-07
2.20147e-07
5.48042e-07
6.03045e-07
1.93161e-07
1.94173e-07
2.2021e-07
2.19731e-07
1.93524e-07
2.21477e-07
2.20251e-07
5.46857e-07
6.02157e-07
1.97318e-07
2.19345e-07
2.24292e-07
6.02693e-07
6.19075e-07
6.66845e-07
2.30789e-07
2.29322e-07
2.59259e-07
2.58156e-07
6.17971e-07
6.67044e-07
2.29427e-07
2.28957e-07
2.57851e-07
2.59171e-07
2.29636e-07
2.59433e-07
2.58582e-07
6.17279e-07
6.67665e-07
2.33381e-07
2.57901e-07
2.61887e-07
6.67227e-07
6.80862e-07
7.25659e-07
2.69379e-07
2.68108e-07
3.01225e-07
2.98888e-07
6.81173e-07
7.24438e-07
2.67908e-07
2.69619e-07
2.99536e-07
3.00538e-07
2.68668e-07
2.99723e-07
3.00747e-07
6.82122e-07
7.25254e-07
2.71808e-07
2.9952e-07
3.01576e-07
7.23588e-07
7.38977e-07
7.76446e-07
3.12057e-07
3.09529e-07
3.44306e-07
3.42296e-07
7.37509e-07
7.7549e-07
3.10352e-07
3.10712e-07
3.42835e-07
3.42006e-07
3.11882e-07
3.42013e-07
3.44928e-07
7.37752e-07
7.73999e-07
3.11692e-07
3.41183e-07
3.43206e-07
7.75101e-07
7.88133e-07
8.21065e-07
3.55037e-07
3.53414e-07
3.88309e-07
3.879e-07
7.87497e-07
8.21412e-07
3.53735e-07
3.52996e-07
3.8773e-07
3.87988e-07
3.55748e-07
3.86999e-07
3.89161e-07
7.86226e-07
8.22149e-07
3.53968e-07
3.87659e-07
3.87526e-07
8.21244e-07
8.32176e-07
8.61854e-07
3.99762e-07
3.99756e-07
4.344e-07
4.35366e-07
8.32671e-07
8.62736e-07
3.9953e-07
4.00053e-07
4.34943e-07
4.35655e-07
4.00593e-07
4.33968e-07
4.34503e-07
8.33655e-07
8.63604e-07
3.99123e-07
4.35799e-07
4.33964e-07
8.60387e-07
8.71724e-07
8.96442e-07
4.46003e-07
4.47188e-07
4.81174e-07
4.82752e-07
8.72643e-07
8.97246e-07
4.46618e-07
4.47244e-07
4.81543e-07
4.82183e-07
4.45792e-07
4.81113e-07
4.80638e-07
8.73328e-07
8.97874e-07
4.45609e-07
4.83087e-07
4.81146e-07
8.95249e-07
9.05225e-07
9.26335e-07
4.92966e-07
4.9456e-07
5.27269e-07
5.28647e-07
9.05978e-07
9.26648e-07
4.93271e-07
4.94001e-07
5.27653e-07
5.28515e-07
4.9245e-07
5.27026e-07
5.26696e-07
9.06747e-07
9.27788e-07
4.93043e-07
5.29892e-07
5.27237e-07
9.26669e-07
9.34291e-07
9.55572e-07
5.38225e-07
5.39506e-07
5.71944e-07
5.72852e-07
9.34505e-07
9.5558e-07
5.38668e-07
5.39467e-07
5.72319e-07
5.72799e-07
5.37625e-07
5.71501e-07
5.71443e-07
9.35474e-07
9.55303e-07
5.38126e-07
5.74305e-07
5.71943e-07
9.56265e-07
9.64176e-07
9.84935e-07
5.83735e-07
5.84482e-07
6.16686e-07
6.17045e-07
9.64186e-07
9.84899e-07
5.84055e-07
5.84384e-07
6.16896e-07
6.16835e-07
5.83306e-07
6.16462e-07
6.16439e-07
9.63614e-07
9.839e-07
5.83816e-07
6.17908e-07
6.16878e-07
9.85479e-07
9.90753e-07
9.91984e-07
6.25647e-07
6.25954e-07
6.44932e-07
6.45277e-07
9.90724e-07
9.92108e-07
6.25864e-07
6.25718e-07
6.45177e-07
6.44982e-07
6.25478e-07
6.44874e-07
6.44989e-07
9.89757e-07
9.91575e-07
6.25841e-07
6.45483e-07
6.45119e-07
9.9232e-07
9.93774e-07
9.81449e-07
6.4905e-07
6.49456e-07
6.58088e-07
6.58562e-07
9.93913e-07
9.81631e-07
6.49286e-07
6.49109e-07
6.58183e-07
6.58148e-07
6.49212e-07
6.58054e-07
6.58353e-07
9.93391e-07
9.81365e-07
6.49244e-07
6.58472e-07
6.58248e-07
9.81807e-07
9.82895e-07
9.75283e-07
6.61102e-07
6.61562e-07
6.73114e-07
6.73411e-07
9.83077e-07
9.75282e-07
6.61154e-07
6.61165e-07
6.73015e-07
6.73204e-07
6.6137e-07
6.7294e-07
6.73297e-07
9.82826e-07
9.75409e-07
6.61241e-07
6.73414e-07
6.73135e-07
9.7546e-07
9.78208e-07
9.89061e-07
6.79073e-07
6.79298e-07
7.05203e-07
7.05234e-07
9.78166e-07
9.88913e-07
6.78946e-07
6.79182e-07
7.05006e-07
7.05369e-07
6.79217e-07
7.04908e-07
7.05258e-07
9.78359e-07
9.89271e-07
6.79052e-07
7.05346e-07
7.05081e-07
9.89086e-07
9.96227e-07
1.02462e-06
7.16785e-07
7.16782e-07
7.54386e-07
7.54379e-07
9.96073e-07
1.02448e-06
7.16591e-07
7.16963e-07
7.54212e-07
7.54554e-07
7.16832e-07
7.54127e-07
7.5446e-07
9.96441e-07
1.02481e-06
7.16654e-07
7.54441e-07
7.54288e-07
1.02465e-06
1.03386e-06
1.06948e-06
7.67103e-07
7.67097e-07
8.05449e-07
8.05456e-07
1.03373e-06
1.06937e-06
7.66941e-07
7.67265e-07
8.05307e-07
8.05588e-07
7.67182e-07
8.05252e-07
8.05537e-07
1.03404e-06
1.0696e-06
7.67014e-07
8.05445e-07
8.05392e-07
1.06953e-06
1.08006e-06
1.11752e-06
8.1808e-07
8.1809e-07
8.52305e-07
8.52327e-07
1.07996e-06
1.11742e-06
8.17949e-07
8.18208e-07
8.52182e-07
8.52407e-07
8.18168e-07
8.52134e-07
8.52395e-07
1.08017e-06
1.11758e-06
8.1803e-07
8.52276e-07
8.52271e-07
1.11759e-06
1.12692e-06
1.15146e-06
8.61723e-07
8.61747e-07
8.83013e-07
8.83041e-07
1.12683e-06
1.15137e-06
8.61609e-07
8.61819e-07
8.82901e-07
8.83097e-07
8.61814e-07
8.82855e-07
8.83102e-07
1.12698e-06
1.15151e-06
8.61692e-07
8.82978e-07
8.82985e-07
1.15154e-06
1.15782e-06
1.16972e-06
8.88012e-07
8.8804e-07
8.98241e-07
8.98268e-07
1.15774e-06
1.16964e-06
8.87905e-07
8.88093e-07
8.9813e-07
8.98319e-07
8.881e-07
8.98094e-07
8.98328e-07
1.15786e-06
1.16976e-06
8.87984e-07
8.98206e-07
8.98215e-07
1.1698e-06
1.17373e-06
1.17785e-06
9.00428e-07
9.00454e-07
9.04612e-07
9.04639e-07
1.17366e-06
1.17777e-06
9.0032e-07
9.00506e-07
9.04501e-07
9.0469e-07
9.00516e-07
9.04474e-07
9.04701e-07
1.17378e-06
1.17789e-06
9.00403e-07
9.0458e-07
9.0459e-07
1.17793e-06
1.18064e-06
1.18118e-06
9.05453e-07
9.0548e-07
9.07025e-07
9.07053e-07
1.18057e-06
1.1811e-06
9.05346e-07
9.05531e-07
9.06916e-07
9.07102e-07
9.05542e-07
9.06893e-07
9.07113e-07
1.18068e-06
1.18122e-06
9.05432e-07
9.06995e-07
9.07005e-07
1.18127e-06
1.18347e-06
1.18241e-06
9.07336e-07
9.07365e-07
9.07892e-07
9.07923e-07
1.1834e-06
1.18233e-06
9.0723e-07
9.07413e-07
9.07784e-07
9.07968e-07
9.07425e-07
9.07761e-07
9.07981e-07
1.18351e-06
1.18245e-06
9.07318e-07
9.07862e-07
9.07874e-07
1.18249e-06
1.18452e-06
1.18271e-06
9.0798e-07
9.0801e-07
9.08062e-07
9.08091e-07
1.18445e-06
1.18264e-06
9.07873e-07
9.08055e-07
9.07953e-07
9.08136e-07
9.08069e-07
9.07929e-07
9.08151e-07
1.18456e-06
1.18275e-06
9.07962e-07
9.08032e-07
9.08043e-07
1.1828e-06
1.18475e-06
1.18243e-06
9.08048e-07
9.08076e-07
9.08001e-07
9.08029e-07
1.18468e-06
1.18235e-06
9.07939e-07
9.08122e-07
9.07891e-07
9.08074e-07
9.08137e-07
9.07867e-07
9.0809e-07
1.18479e-06
1.18247e-06
9.08029e-07
9.07971e-07
9.07981e-07
1.18252e-06
1.18446e-06
1.1827e-06
9.08003e-07
9.08031e-07
9.08085e-07
9.08113e-07
1.18439e-06
1.18262e-06
9.07893e-07
9.08076e-07
9.07974e-07
9.08157e-07
9.08092e-07
9.07951e-07
9.08172e-07
1.1845e-06
1.18274e-06
9.07983e-07
9.08053e-07
9.08063e-07
1.18278e-06
1.18477e-06
1.18271e-06
9.08097e-07
9.08125e-07
9.08071e-07
9.08098e-07
1.1847e-06
1.18264e-06
9.07987e-07
9.08169e-07
9.0796e-07
9.08143e-07
9.08185e-07
9.07936e-07
9.08157e-07
1.18481e-06
1.18275e-06
9.08075e-07
9.08039e-07
9.08049e-07
1.18279e-06
1.18469e-06
1.18255e-06
9.08051e-07
9.08078e-07
9.08032e-07
9.0806e-07
1.18461e-06
1.18248e-06
9.07942e-07
9.08124e-07
9.0792e-07
9.08105e-07
9.08138e-07
9.07898e-07
9.08121e-07
1.18472e-06
1.1826e-06
9.0803e-07
9.08002e-07
9.08012e-07
1.18265e-06
1.18459e-06
1.18274e-06
9.08036e-07
9.08065e-07
9.08076e-07
9.08103e-07
1.18452e-06
1.18266e-06
9.07925e-07
9.0811e-07
9.07964e-07
9.08148e-07
9.08126e-07
9.07941e-07
9.08163e-07
1.18464e-06
1.18278e-06
9.08017e-07
9.08044e-07
9.08052e-07
1.18282e-06
1.18473e-06
1.18252e-06
9.08064e-07
9.0809e-07
9.0804e-07
9.08068e-07
1.18465e-06
1.18245e-06
9.07953e-07
9.08136e-07
9.07927e-07
9.08112e-07
9.08151e-07
9.07906e-07
9.08129e-07
1.18476e-06
1.18257e-06
9.08038e-07
9.08009e-07
9.08017e-07
1.18261e-06
1.18457e-06
1.1827e-06
9.08043e-07
9.08072e-07
9.08062e-07
9.08088e-07
1.18452e-06
1.18261e-06
9.07931e-07
9.08115e-07
9.0795e-07
9.08133e-07
9.08132e-07
9.07926e-07
9.08148e-07
1.18463e-06
1.18273e-06
9.08022e-07
9.08029e-07
9.08038e-07
1.18278e-06
1.1847e-06
1.1826e-06
9.08054e-07
9.08081e-07
9.08054e-07
9.08082e-07
1.18462e-06
1.18253e-06
9.07942e-07
9.08125e-07
9.07939e-07
9.08123e-07
9.08141e-07
9.07919e-07
9.08141e-07
1.18473e-06
1.18265e-06
9.08032e-07
9.08022e-07
9.08031e-07
1.18269e-06
1.18466e-06
1.18263e-06
9.08054e-07
9.08082e-07
9.08053e-07
9.08078e-07
1.1846e-06
1.18254e-06
9.07939e-07
9.08123e-07
9.0794e-07
9.08123e-07
9.08141e-07
9.07918e-07
9.0814e-07
1.18471e-06
1.18266e-06
9.08031e-07
9.0802e-07
9.0803e-07
1.18271e-06
1.18463e-06
1.18268e-06
9.08053e-07
9.08078e-07
9.08056e-07
9.08083e-07
1.18455e-06
1.18262e-06
9.0794e-07
9.08123e-07
9.0794e-07
9.08125e-07
9.0814e-07
9.07919e-07
9.08142e-07
1.18466e-06
1.18273e-06
9.0803e-07
9.08023e-07
9.08032e-07
1.18277e-06
1.18471e-06
1.1826e-06
9.08053e-07
9.08079e-07
9.08054e-07
9.08081e-07
1.18465e-06
1.18253e-06
9.0794e-07
9.08122e-07
9.0794e-07
9.08125e-07
9.0814e-07
9.0792e-07
9.08142e-07
1.18475e-06
1.18265e-06
9.08028e-07
9.08022e-07
9.08031e-07
1.1827e-06
1.18464e-06
1.18261e-06
9.08054e-07
9.08082e-07
9.08049e-07
9.08077e-07
1.18458e-06
1.18253e-06
9.0794e-07
9.08126e-07
9.07937e-07
9.08121e-07
9.08142e-07
9.07916e-07
9.08138e-07
1.1847e-06
1.18264e-06
9.08032e-07
9.08018e-07
9.08027e-07
1.18269e-06
1.18462e-06
1.18267e-06
9.08049e-07
9.08077e-07
9.08054e-07
9.0808e-07
1.18455e-06
1.18257e-06
9.07937e-07
9.08121e-07
9.0794e-07
9.08122e-07
9.08138e-07
9.07918e-07
9.08139e-07
1.18466e-06
1.18268e-06
9.08026e-07
9.08021e-07
9.0803e-07
1.18274e-06
1.18468e-06
1.18265e-06
9.0805e-07
9.08077e-07
9.08053e-07
9.08083e-07
1.18458e-06
1.1826e-06
9.07939e-07
9.0812e-07
9.0794e-07
9.08125e-07
9.08135e-07
9.07924e-07
9.08147e-07
1.18468e-06
1.18272e-06
9.08025e-07
9.08025e-07
9.08035e-07
1.18277e-06
1.1847e-06
1.18259e-06
9.08053e-07
9.0808e-07
9.08053e-07
9.08081e-07
1.18462e-06
1.18258e-06
9.0794e-07
9.08123e-07
9.07938e-07
9.08124e-07
9.08145e-07
9.07913e-07
9.08134e-07
1.18473e-06
1.18271e-06
9.08034e-07
9.08016e-07
9.08024e-07
1.18269e-06
1.18464e-06
1.18261e-06
9.08053e-07
9.08082e-07
9.08054e-07
9.0808e-07
1.18464e-06
1.18253e-06
9.07938e-07
9.08124e-07
9.07939e-07
9.08124e-07
9.08138e-07
9.07918e-07
9.08146e-07
1.18475e-06
1.18266e-06
9.08027e-07
9.08019e-07
9.08033e-07
1.18271e-06
1.18463e-06
1.18265e-06
9.08054e-07
9.08082e-07
9.08053e-07
9.08079e-07
1.1846e-06
1.18252e-06
9.0794e-07
9.08125e-07
9.07938e-07
9.08121e-07
9.08146e-07
9.07917e-07
9.08139e-07
1.18472e-06
1.18264e-06
9.08032e-07
9.08017e-07
9.08027e-07
1.18265e-06
1.18466e-06
1.18267e-06
9.08054e-07
9.08079e-07
9.08054e-07
9.0808e-07
1.18454e-06
1.18258e-06
9.07941e-07
9.08123e-07
9.07938e-07
9.08121e-07
9.08139e-07
9.07916e-07
9.08145e-07
1.18469e-06
1.18265e-06
9.08028e-07
9.08014e-07
9.08033e-07
1.1828e-06
1.18468e-06
1.18265e-06
9.08054e-07
9.08082e-07
9.08053e-07
9.08077e-07
1.1846e-06
1.18254e-06
9.07937e-07
9.08122e-07
9.07938e-07
9.0812e-07
9.08146e-07
9.07913e-07
9.08137e-07
1.18469e-06
1.1826e-06
9.08035e-07
9.0801e-07
9.08024e-07
1.18268e-06
1.1847e-06
1.18263e-06
9.08055e-07
9.08075e-07
9.08053e-07
9.08084e-07
1.18453e-06
1.18265e-06
9.0794e-07
9.0812e-07
9.07937e-07
9.08125e-07
9.0814e-07
9.07918e-07
9.08142e-07
1.18464e-06
1.18271e-06
9.08028e-07
9.08016e-07
9.0803e-07
1.18271e-06
1.18464e-06
1.18268e-06
9.08052e-07
9.08084e-07
9.08051e-07
9.08073e-07
1.18466e-06
1.18254e-06
9.07937e-07
9.08125e-07
9.07936e-07
9.08119e-07
9.0814e-07
9.07912e-07
9.08143e-07
1.1847e-06
1.18269e-06
9.08028e-07
9.0801e-07
9.08031e-07
1.1828e-06
1.18475e-06
1.18257e-06
9.08057e-07
9.08078e-07
9.08042e-07
9.0807e-07
1.18462e-06
1.1825e-06
9.07942e-07
9.08126e-07
9.07926e-07
9.08114e-07
9.08147e-07
9.07907e-07
9.08131e-07
1.18476e-06
1.18262e-06
9.08034e-07
9.08003e-07
9.08022e-07
1.18272e-06
1.18462e-06
1.18264e-06
9.08046e-07
9.08073e-07
9.08043e-07
9.08069e-07
1.18453e-06
1.18258e-06
9.0793e-07
9.08117e-07
9.07927e-07
9.08115e-07
9.08138e-07
9.07912e-07
9.08133e-07
1.18464e-06
1.18271e-06
9.08029e-07
9.08004e-07
9.08019e-07
1.18267e-06
1.18466e-06
1.18261e-06
9.08046e-07
9.08072e-07
9.08041e-07
9.08067e-07
1.18459e-06
1.18257e-06
9.0793e-07
9.08117e-07
9.07924e-07
9.0811e-07
9.08133e-07
9.07908e-07
9.08131e-07
1.18472e-06
1.18266e-06
9.08021e-07
9.08002e-07
9.08022e-07
1.18273e-06
1.18465e-06
1.1826e-06
9.08046e-07
9.08071e-07
9.0804e-07
9.08063e-07
1.18461e-06
1.18252e-06
9.0793e-07
9.08117e-07
9.07923e-07
9.08109e-07
9.08137e-07
9.07901e-07
9.08121e-07
1.18472e-06
1.18263e-06
9.08026e-07
9.08002e-07
9.08016e-07
1.18269e-06
1.18461e-06
1.18264e-06
9.08048e-07
9.0807e-07
9.08037e-07
9.08061e-07
1.18456e-06
1.18256e-06
9.0793e-07
9.08114e-07
9.07923e-07
9.08108e-07
9.08131e-07
9.079e-07
9.08119e-07
1.18464e-06
1.18269e-06
9.08023e-07
9.08002e-07
9.08013e-07
1.18263e-06
1.18464e-06
1.18267e-06
9.08045e-07
9.08068e-07
9.08036e-07
9.08059e-07
1.18456e-06
1.18259e-06
9.07933e-07
9.08117e-07
9.07919e-07
9.08102e-07
9.08129e-07
9.07898e-07
9.08117e-07
1.18468e-06
1.18272e-06
9.08026e-07
9.07998e-07
9.08002e-07
1.18263e-06
1.18468e-06
1.18268e-06
9.08049e-07
9.08071e-07
9.0803e-07
9.08054e-07
1.1846e-06
1.1826e-06
9.07933e-07
9.08115e-07
9.07918e-07
9.081e-07
9.0813e-07
9.07893e-07
9.08114e-07
1.18471e-06
1.18273e-06
9.08014e-07
9.07995e-07
9.08003e-07
1.18272e-06
1.1847e-06
1.18266e-06
9.08047e-07
9.08071e-07
9.08029e-07
9.08052e-07
1.18464e-06
1.18255e-06
9.07932e-07
9.08114e-07
9.07915e-07
9.08095e-07
9.08131e-07
9.07886e-07
9.08111e-07
1.18476e-06
1.18267e-06
9.08017e-07
9.07987e-07
9.07998e-07
1.18279e-06
1.18472e-06
1.18259e-06
9.0805e-07
9.08073e-07
9.08024e-07
9.08047e-07
1.18463e-06
1.18248e-06
9.07938e-07
9.08118e-07
9.07906e-07
9.08088e-07
9.08132e-07
9.07881e-07
9.08109e-07
1.18473e-06
1.18263e-06
9.0802e-07
9.07982e-07
9.07993e-07
1.1828e-06
1.18465e-06
1.18259e-06
9.08053e-07
9.08076e-07
9.08016e-07
9.08041e-07
1.18454e-06
1.18252e-06
9.07937e-07
9.08118e-07
9.07902e-07
9.08086e-07
9.08135e-07
9.07879e-07
9.08105e-07
1.18467e-06
1.18268e-06
9.08021e-07
9.0798e-07
9.07988e-07
1.18277e-06
1.18464e-06
1.18258e-06
9.08054e-07
9.08077e-07
9.08009e-07
9.08035e-07
1.18454e-06
1.18257e-06
9.07939e-07
9.08121e-07
9.07894e-07
9.0808e-07
9.08141e-07
9.07871e-07
9.08095e-07
1.1847e-06
1.18268e-06
9.08023e-07
9.07973e-07
9.0798e-07
1.18271e-06
1.18463e-06
1.18258e-06
9.08055e-07
9.08081e-07
9.08002e-07
9.08028e-07
1.18459e-06
1.18256e-06
9.07941e-07
9.08127e-07
9.07888e-07
9.08071e-07
9.08144e-07
9.07864e-07
9.08088e-07
1.18473e-06
1.18262e-06
9.08027e-07
9.07964e-07
9.07972e-07
1.1827e-06
1.1846e-06
1.18266e-06
9.08059e-07
9.08088e-07
9.07995e-07
9.08019e-07
1.18461e-06
1.18251e-06
9.07945e-07
9.08131e-07
9.07881e-07
9.08064e-07
9.08147e-07
9.07854e-07
9.08081e-07
1.18468e-06
1.18263e-06
9.08031e-07
9.07956e-07
9.07963e-07
1.18274e-06
1.18468e-06
1.18261e-06
9.0807e-07
9.08096e-07
9.07982e-07
9.08007e-07
1.18459e-06
1.18249e-06
9.07957e-07
9.08141e-07
9.07868e-07
9.08053e-07
9.08157e-07
9.07842e-07
9.08068e-07
1.18466e-06
1.18263e-06
9.0804e-07
9.07944e-07
9.07951e-07
1.18273e-06
1.18469e-06
1.18253e-06
9.08084e-07
9.08109e-07
9.07967e-07
9.07994e-07
1.18456e-06
1.18249e-06
9.07971e-07
9.08155e-07
9.07854e-07
9.0804e-07
9.08169e-07
9.07831e-07
9.08056e-07
1.18467e-06
1.18262e-06
9.08052e-07
9.07933e-07
9.07939e-07
1.1827e-06
1.1846e-06
1.18256e-06
9.081e-07
9.08127e-07
9.07957e-07
9.07984e-07
1.18455e-06
1.18249e-06
9.07987e-07
9.08172e-07
9.07845e-07
9.08031e-07
9.08187e-07
9.07821e-07
9.08045e-07
1.18465e-06
1.18263e-06
9.08069e-07
9.07922e-07
9.07929e-07
1.18271e-06
1.18458e-06
1.18261e-06
9.0813e-07
9.08157e-07
9.07951e-07
9.07976e-07
1.18453e-06
1.1825e-06
9.08017e-07
9.08204e-07
9.07839e-07
9.08026e-07
9.08218e-07
9.07813e-07
9.08036e-07
1.18466e-06
1.18262e-06
9.08101e-07
9.07914e-07
9.07918e-07
1.18273e-06
1.18461e-06
1.18242e-06
9.08174e-07
9.08197e-07
9.0755e-07
9.07574e-07
1.18453e-06
1.18231e-06
9.0806e-07
9.08246e-07
9.07433e-07
9.07616e-07
9.08257e-07
9.07415e-07
9.07633e-07
1.18464e-06
1.18244e-06
9.08138e-07
9.07505e-07
9.07508e-07
1.18252e-06
1.18432e-06
1.16226e-06
9.07881e-07
9.07902e-07
8.85209e-07
8.85228e-07
1.18421e-06
1.16222e-06
9.07761e-07
9.07951e-07
8.85168e-07
8.85194e-07
9.07966e-07
8.85204e-07
8.85265e-07
1.18433e-06
1.16229e-06
9.07834e-07
8.85219e-07
8.85218e-07
1.16232e-06
1.13916e-06
8.51604e-07
8.5162e-07
1.13914e-06
8.51587e-07
8.51586e-07
3.64761e-07
3.6474e-07
3.64776e-07
8.51657e-07
1.13919e-06
8.51639e-07
2.98308e-08
4.96601e-09
1.953e-08
1.94597e-08
1.37898e-09
4.50544e-09
1.64086e-07
1.10085e-08
1.6326e-09
4.65299e-09
1.09661e-08
9.55482e-09
5.18365e-09
3.74926e-09
8.94044e-09
7.25636e-09
1.63891e-07
5.67347e-09
2.6026e-07
1.65938e-06
3.27243e-06
7.4058e-09
1.90357e-07
6.0121e-09
3.00546e-07
1.11679e-08
1.10446e-08
1.10002e-08
1.09305e-08
1.11425e-08
1.09103e-08
1.0878e-08
1.39648e-09
2.05388e-07
5.0633e-09
5.21675e-09
1.39628e-09
1.73933e-07
4.9709e-09
1.70839e-06
3.41487e-06
1.69732e-09
6.3443e-09
1.07861e-07
8.02628e-09
1.70291e-09
6.11295e-09
8.76238e-08
2.15251e-07
2.20011e-07
4.80169e-09
1.84045e-07
1.87873e-07
1.75762e-08
4.62794e-07
1.16544e-08
6.70674e-07
7.37097e-06
1.04536e-05
1.75803e-08
5.50747e-07
1.19568e-08
7.89336e-07
1.11429e-08
1.09218e-08
1.09115e-08
1.10095e-08