/*--------------------------------*- C++ -*----------------------------------*\
| =========                 |                                                 |
| \\      /  F ield         | OpenFOAM: The Open Source CFD Toolbox           |
|  \\    /   O peration     | Version:  v2012                                 |
|   \\  /    A nd           | Website:  www.openfoam.com                      |
|    \\/     M anipulation  |                                                 |
\*---------------------------------------------------------------------------*/
FoamFile
{
    version     2.0;
    format      ascii;
    class       volScalarField;
    location    "200";
    object      k;
}
// * * * * * * * * * * * * * * * * * * * * * * * * * * * * * * * * * * * * * //

dimensions      [0 2 -2 0 0 0 0];


internalField   nonuniform List<scalar> 
171728
(
1.4506e-06
9.54285e-07
5.92597e-07
3.5647e-07
1.44229e-06
4.93417e-07
6.01533e-07
3.38896e-07
1.46794e-06
3.13152e-07
5.46242e-07
3.24078e-07
1.49063e-06
2.81594e-07
4.39509e-07
3.12129e-07
1.51477e-06
2.7873e-07
3.59051e-07
3.0174e-07
1.5438e-06
2.79038e-07
3.30041e-07
2.93208e-07
1.57927e-06
2.80714e-07
3.27321e-07
2.8745e-07
1.61233e-06
2.84682e-07
3.26798e-07
2.83236e-07
1.64523e-06
2.90611e-07
3.28501e-07
2.74023e-07
1.67852e-06
2.98824e-07
3.33271e-07
2.61131e-07
1.7138e-06
3.08631e-07
3.40433e-07
2.51703e-07
1.75113e-06
3.20433e-07
3.51252e-07
2.4619e-07
1.78959e-06
3.35238e-07
3.639e-07
2.43932e-07
1.82845e-06
3.53556e-07
3.80808e-07
2.43943e-07
1.86732e-06
3.7576e-07
4.00522e-07
2.46882e-07
1.90565e-06
4.0262e-07
4.26008e-07
2.54492e-07
1.94401e-06
4.33947e-07
4.58411e-07
2.71545e-07
1.97986e-06
4.78528e-07
5.01032e-07
2.94345e-07
2.01843e-06
5.34222e-07
5.55048e-07
3.41674e-07
2.05191e-06
6.13855e-07
6.2161e-07
4.09345e-07
2.08996e-06
7.18503e-07
7.41904e-07
5.96685e-07
2.1254e-06
8.66144e-07
8.60882e-07
8.10567e-07
2.16571e-06
1.04449e-06
1.06773e-06
1.21211e-06
2.20692e-06
1.33498e-06
1.34341e-06
1.95276e-06
2.25211e-06
1.68305e-06
1.71473e-06
2.92778e-06
2.30751e-06
2.1578e-06
2.14705e-06
4.30465e-06
2.36507e-06
2.71876e-06
2.7501e-06
6.13176e-06
2.43809e-06
3.44354e-06
3.40119e-06
8.27651e-06
2.51918e-06
4.25185e-06
4.25268e-06
1.07269e-05
2.61513e-06
5.19303e-06
5.17502e-06
1.33037e-05
2.74178e-06
6.34135e-06
6.264e-06
1.59227e-05
2.87546e-06
7.5263e-06
7.45713e-06
1.83571e-05
3.06429e-06
8.92241e-06
8.8043e-06
2.05021e-05
3.27088e-06
1.04335e-05
1.02767e-05
2.25923e-05
3.54463e-06
1.20016e-05
1.20009e-05
2.44352e-05
3.8662e-06
1.36064e-05
1.35118e-05
2.61132e-05
4.22149e-06
1.52995e-05
1.52526e-05
2.76697e-05
4.6657e-06
1.7157e-05
1.72085e-05
2.91363e-05
5.20152e-06
1.90528e-05
1.90777e-05
3.04605e-05
5.87329e-06
2.10502e-05
2.11031e-05
3.18352e-05
6.59324e-06
2.28499e-05
2.30039e-05
3.30197e-05
7.63797e-06
2.52769e-05
2.54155e-05
3.48704e-05
8.67258e-06
2.70251e-05
2.71126e-05
3.58675e-05
9.15413e-06
2.72278e-05
2.72789e-05
3.56047e-05
9.10952e-06
2.67393e-05
2.67767e-05
3.47484e-05
9.28596e-06
2.69049e-05
2.69372e-05
3.45208e-05
1.0922e-05
2.91044e-05
2.91276e-05
3.58669e-05
1.36217e-05
3.19176e-05
3.19298e-05
3.78931e-05
1.7558e-05
3.5412e-05
3.54182e-05
4.06667e-05
2.15447e-05
3.83424e-05
3.83464e-05
4.30411e-05
2.42906e-05
4.00655e-05
4.00686e-05
4.44099e-05
2.573e-05
4.08691e-05
4.08715e-05
4.5028e-05
2.63438e-05
4.11872e-05
4.11892e-05
4.52809e-05
2.65753e-05
4.13079e-05
4.13098e-05
4.53795e-05
2.66425e-05
4.13392e-05
4.13411e-05
4.54141e-05
2.66482e-05
4.13324e-05
4.13344e-05
4.54019e-05
2.66549e-05
4.13394e-05
4.13414e-05
4.54041e-05
2.66566e-05
4.13422e-05
4.1344e-05
4.54219e-05
2.66537e-05
4.13354e-05
4.13374e-05
4.5395e-05
2.66553e-05
4.13409e-05
4.13429e-05
4.54183e-05
2.66543e-05
4.1337e-05
4.1339e-05
4.53982e-05
2.66545e-05
4.13391e-05
4.13411e-05
4.54176e-05
2.66545e-05
4.13385e-05
4.13405e-05
4.53975e-05
2.66545e-05
4.13383e-05
4.13402e-05
4.54151e-05
2.66545e-05
4.13387e-05
4.13408e-05
4.54111e-05
2.66544e-05
4.13389e-05
4.13408e-05
4.53995e-05
2.66544e-05
4.13382e-05
4.13399e-05
4.54069e-05
2.66544e-05
4.13383e-05
4.13403e-05
4.54157e-05
2.66545e-05
4.13396e-05
4.13414e-05
4.54123e-05
2.66545e-05
4.13382e-05
4.13402e-05
4.53999e-05
2.66546e-05
4.13386e-05
4.13406e-05
4.54029e-05
2.66546e-05
4.13388e-05
4.13406e-05
4.54084e-05
2.66545e-05
4.13389e-05
4.13405e-05
4.54153e-05
2.66547e-05
4.13384e-05
4.13398e-05
4.53984e-05
2.66547e-05
4.13396e-05
4.13411e-05
4.54147e-05
2.66545e-05
4.1339e-05
4.13408e-05
4.54134e-05
2.66543e-05
4.13383e-05
4.134e-05
4.53986e-05
2.66543e-05
4.13395e-05
4.13402e-05
4.54085e-05
2.66543e-05
4.13394e-05
4.13401e-05
4.54161e-05
2.66544e-05
4.13386e-05
4.13402e-05
4.54068e-05
2.66544e-05
4.13386e-05
4.13405e-05
4.54002e-05
2.66544e-05
4.13388e-05
4.13404e-05
4.54045e-05
2.66544e-05
4.13387e-05
4.13405e-05
4.54128e-05
2.66544e-05
4.13384e-05
4.13401e-05
4.54139e-05
2.66543e-05
4.13382e-05
4.13399e-05
4.54107e-05
2.66543e-05
4.13387e-05
4.13403e-05
4.54034e-05
2.66543e-05
4.13387e-05
4.13405e-05
4.53997e-05
2.66542e-05
4.13389e-05
4.13405e-05
4.54052e-05
2.66542e-05
4.13391e-05
4.13408e-05
4.54112e-05
2.66542e-05
4.13393e-05
4.13411e-05
4.54079e-05
2.66543e-05
4.134e-05
4.13418e-05
4.5405e-05
2.66545e-05
4.13412e-05
4.1343e-05
4.54095e-05
2.66544e-05
4.13433e-05
4.13448e-05
4.54133e-05
2.66448e-05
4.1334e-05
4.13355e-05
4.54054e-05
2.60568e-05
4.00251e-05
4.00249e-05
4.47636e-05
3.6461e-07
3.43183e-07
5.80028e-07
3.63923e-07
4.87754e-07
3.62291e-07
1.48703e-06
1.4878e-06
1.4755e-06
1.47335e-06
4.0067e-07
3.47426e-07
3.54971e-07
3.73524e-07
3.41421e-07
3.59191e-07
3.6181e-07
3.54943e-07
3.72746e-07
9.05776e-07
3.61739e-07
9.59188e-07
3.61345e-07
3.69241e-07
6.78026e-07
4.84516e-07
6.88369e-07
4.12596e-07
3.73637e-07
5.86731e-07
3.64407e-07
3.52554e-07
3.46784e-07
3.69128e-07
6.01654e-07
3.58961e-07
3.41838e-07
3.52943e-07
3.52751e-07
3.58511e-07
9.76986e-07
3.50737e-07
9.9598e-07
3.67211e-07
3.73317e-07
6.91061e-07
3.94694e-07
6.93801e-07
3.51318e-07
3.61633e-07
3.3584e-07
3.54085e-07
3.44411e-07
3.34127e-07
3.55778e-07
5.68267e-07
3.47376e-07
3.26659e-07
3.50435e-07
3.44471e-07
3.4865e-07
9.89571e-07
3.4329e-07
8.08556e-07
3.6927e-07
3.45037e-07
6.92497e-07
3.40204e-07
6.35573e-07
3.16053e-07
3.51877e-07
2.84583e-07
3.45416e-07
3.30244e-07
3.16876e-07
3.45102e-07
4.66287e-07
3.39378e-07
3.14352e-07
3.40065e-07
3.1428e-07
3.41675e-07
7.32009e-07
3.3715e-07
5.41466e-07
3.34792e-07
3.07433e-07
5.97882e-07
3.11233e-07
4.74892e-07
3.04715e-07
3.4341e-07
2.79034e-07
3.38384e-07
3.13786e-07
3.00589e-07
3.37716e-07
3.74107e-07
3.33489e-07
3.0381e-07
3.09104e-07
2.9453e-07
3.3603e-07
5.01423e-07
3.33194e-07
4.54591e-07
3.02031e-07
2.83553e-07
4.36774e-07
3.04062e-07
3.54122e-07
3.03854e-07
3.37205e-07
2.78845e-07
3.33909e-07
2.98252e-07
2.90947e-07
3.32303e-07
3.33621e-07
3.29564e-07
2.94941e-07
2.92203e-07
2.84925e-07
3.32483e-07
4.51581e-07
3.30681e-07
4.4222e-07
2.80453e-07
2.73391e-07
3.38414e-07
3.03956e-07
3.15681e-07
3.04874e-07
3.32991e-07
2.80306e-07
3.2989e-07
2.88688e-07
2.82123e-07
3.28895e-07
3.27632e-07
3.28061e-07
2.8867e-07
2.83064e-07
2.78612e-07
3.30634e-07
4.3346e-07
3.31091e-07
3.95406e-07
2.70763e-07
2.63771e-07
3.13452e-07
3.05444e-07
3.12388e-07
3.08076e-07
3.28962e-07
2.83663e-07
3.25525e-07
2.80489e-07
2.75616e-07
3.28112e-07
3.26762e-07
3.28893e-07
2.84455e-07
2.77454e-07
2.75182e-07
3.31521e-07
3.80289e-07
3.34302e-07
3.37464e-07
2.61788e-07
2.53729e-07
3.126e-07
3.09138e-07
3.16219e-07
3.12674e-07
3.24185e-07
2.89299e-07
3.1997e-07
2.74305e-07
2.7069e-07
3.29335e-07
3.27931e-07
3.31184e-07
2.76383e-07
2.74296e-07
2.7179e-07
3.35286e-07
3.26309e-07
3.38507e-07
3.07179e-07
2.51691e-07
2.44967e-07
3.1789e-07
3.14115e-07
3.22862e-07
3.19445e-07
3.18067e-07
2.96896e-07
3.13897e-07
2.69513e-07
2.65666e-07
3.31847e-07
3.32269e-07
3.34778e-07
2.63468e-07
2.70799e-07
2.67897e-07
3.39865e-07
3.05159e-07
3.44712e-07
3.04968e-07
2.43729e-07
2.41168e-07
3.25015e-07
3.21195e-07
3.31951e-07
3.27801e-07
3.13618e-07
3.06346e-07
3.13815e-07
2.64509e-07
2.61798e-07
3.36184e-07
3.38575e-07
3.40204e-07
2.53379e-07
2.66964e-07
2.64691e-07
3.46304e-07
3.06873e-07
3.52504e-07
3.14684e-07
2.40294e-07
2.38003e-07
3.34463e-07
3.30271e-07
3.42137e-07
3.38769e-07
3.14166e-07
3.17451e-07
3.18932e-07
2.61005e-07
2.59371e-07
3.42017e-07
3.48434e-07
3.4764e-07
2.47116e-07
2.63918e-07
2.62306e-07
3.55167e-07
3.17434e-07
3.64228e-07
3.25939e-07
2.37414e-07
2.36655e-07
3.44717e-07
3.42318e-07
3.53875e-07
3.53316e-07
3.22054e-07
3.31179e-07
3.32274e-07
2.58753e-07
2.57942e-07
3.50133e-07
3.60684e-07
3.5874e-07
2.44373e-07
2.61848e-07
2.61495e-07
3.67538e-07
3.29689e-07
3.77427e-07
3.42281e-07
2.3651e-07
2.36436e-07
3.57957e-07
3.57347e-07
3.71246e-07
3.69616e-07
3.35902e-07
3.49327e-07
3.48115e-07
2.57573e-07
2.58035e-07
3.61888e-07
3.76661e-07
3.73099e-07
2.43981e-07
2.61649e-07
2.63291e-07
3.81185e-07
3.46796e-07
3.95116e-07
3.61468e-07
2.36605e-07
2.38366e-07
3.76252e-07
3.74292e-07
3.91205e-07
3.88839e-07
3.52337e-07
3.70328e-07
3.67518e-07
2.58175e-07
2.60494e-07
3.76764e-07
3.95734e-07
3.90194e-07
2.45978e-07
2.63896e-07
2.68757e-07
4.00578e-07
3.67063e-07
4.19391e-07
3.8481e-07
2.39215e-07
2.42778e-07
3.96245e-07
3.93859e-07
4.14136e-07
4.1265e-07
3.73673e-07
3.95386e-07
3.94778e-07
2.61171e-07
2.67273e-07
3.9521e-07
4.1934e-07
4.12332e-07
2.53039e-07
2.70453e-07
2.8069e-07
4.26233e-07
3.91984e-07
4.50437e-07
4.17673e-07
2.44364e-07
2.56747e-07
4.20691e-07
4.19278e-07
4.44167e-07
4.41469e-07
4.01481e-07
4.25773e-07
4.26567e-07
2.6924e-07
2.79458e-07
4.18553e-07
4.50037e-07
4.39799e-07
2.67372e-07
2.84449e-07
3.02189e-07
4.58694e-07
4.26232e-07
4.87994e-07
4.57868e-07
2.59511e-07
2.81851e-07
4.52559e-07
4.49791e-07
4.81086e-07
4.78637e-07
4.35391e-07
4.65767e-07
4.60399e-07
2.83958e-07
3.00169e-07
4.4744e-07
4.89237e-07
4.74421e-07
2.84518e-07
3.08657e-07
3.48289e-07
4.97738e-07
4.70576e-07
5.40045e-07
5.06441e-07
2.90302e-07
3.22093e-07
4.91738e-07
4.90935e-07
5.35045e-07
5.26662e-07
4.72439e-07
5.18258e-07
5.12005e-07
3.08662e-07
3.3633e-07
4.87135e-07
5.36926e-07
5.24982e-07
3.30046e-07
3.65594e-07
3.95597e-07
5.558e-07
5.2232e-07
5.95374e-07
5.84424e-07
3.34242e-07
4.16598e-07
5.51703e-07
5.45598e-07
5.92015e-07
5.95676e-07
5.26652e-07
5.97856e-07
5.7264e-07
3.52251e-07
4.17412e-07
5.39556e-07
6.06817e-07
5.87756e-07
3.90462e-07
4.17847e-07
5.99e-07
6.19217e-07
5.97634e-07
7.02282e-07
6.63659e-07
4.33333e-07
5.10467e-07
6.15009e-07
6.10795e-07
6.9921e-07
6.94321e-07
5.92978e-07
6.8294e-07
6.71924e-07
4.29501e-07
5.72144e-07
6.07183e-07
7.07017e-07
6.85142e-07
5.47863e-07
6.28559e-07
7.41444e-07
7.26646e-07
7.03232e-07
8.11624e-07
8.07236e-07
5.72873e-07
8.19183e-07
7.23347e-07
7.27684e-07
8.066e-07
8.17558e-07
7.01631e-07
8.30344e-07
8.0399e-07
6.35277e-07
7.75109e-07
7.16561e-07
8.27264e-07
8.13074e-07
7.63793e-07
7.99572e-07
1.16498e-06
8.49042e-07
8.41047e-07
9.97314e-07
9.73102e-07
8.6341e-07
1.11893e-06
8.43643e-07
8.51449e-07
9.89552e-07
9.98508e-07
8.3487e-07
9.89085e-07
9.68296e-07
8.12395e-07
1.16237e-06
8.42715e-07
1.01088e-06
9.76421e-07
1.08618e-06
1.27599e-06
1.78961e-06
1.0545e-06
1.02231e-06
1.24499e-06
1.2282e-06
1.21071e-06
1.76166e-06
1.0444e-06
1.05757e-06
1.23074e-06
1.25868e-06
1.03514e-06
1.2581e-06
1.23111e-06
1.28085e-06
1.82702e-06
1.04228e-06
1.27057e-06
1.23981e-06
1.81923e-06
1.94613e-06
2.72375e-06
1.32134e-06
1.31367e-06
1.57808e-06
1.55637e-06
1.9476e-06
2.7252e-06
1.30766e-06
1.33107e-06
1.55803e-06
1.59217e-06
1.29951e-06
1.58534e-06
1.56684e-06
1.9892e-06
2.75003e-06
1.30746e-06
1.61024e-06
1.57029e-06
2.68049e-06
2.94134e-06
4.0181e-06
1.67118e-06
1.64925e-06
2.01028e-06
2.01421e-06
2.92076e-06
4.05082e-06
1.65025e-06
1.69905e-06
1.99629e-06
2.01154e-06
1.66485e-06
2.03506e-06
1.98711e-06
2.98383e-06
4.06484e-06
1.67127e-06
2.01931e-06
2.0027e-06
4.01587e-06
4.32506e-06
5.6975e-06
2.13851e-06
2.13976e-06
2.54014e-06
2.53224e-06
4.38279e-06
5.70568e-06
2.12023e-06
2.13753e-06
2.51109e-06
2.59691e-06
2.12475e-06
2.55642e-06
2.54553e-06
4.33714e-06
5.90168e-06
2.13793e-06
2.60628e-06
2.55132e-06
5.78181e-06
6.0553e-06
7.84165e-06
2.6929e-06
2.69021e-06
3.21532e-06
3.20587e-06
6.04312e-06
7.8985e-06
2.66986e-06
2.74636e-06
3.18998e-06
3.21424e-06
2.67812e-06
3.25587e-06
3.20632e-06
6.30615e-06
7.80629e-06
2.68849e-06
3.21358e-06
3.21755e-06
7.78129e-06
8.29061e-06
1.01907e-05
3.40118e-06
3.38831e-06
3.99663e-06
4.00515e-06
8.35845e-06
1.02273e-05
3.36754e-06
3.39423e-06
3.95777e-06
4.03719e-06
3.41605e-06
4.04256e-06
3.97994e-06
8.22126e-06
1.03804e-05
3.42426e-06
4.0353e-06
3.99417e-06
1.03057e-05
1.06743e-05
1.27492e-05
4.22316e-06
4.22399e-06
4.91936e-06
4.89017e-06
1.07095e-05
1.27413e-05
4.18006e-06
4.26748e-06
4.88006e-06
4.91634e-06
4.18432e-06
4.93383e-06
4.93316e-06
1.08921e-05
1.28208e-05
4.19662e-06
4.92596e-06
4.94626e-06
1.27431e-05
1.32466e-05
1.52776e-05
5.14872e-06
5.14016e-06
5.99595e-06
6.00387e-06
1.32436e-05
1.53666e-05
5.11973e-06
5.17197e-06
5.94466e-06
6.02442e-06
5.18262e-06
6.05618e-06
5.99111e-06
1.33024e-05
1.53482e-05
5.20289e-06
5.98439e-06
6.00383e-06
1.5404e-05
1.58132e-05
1.77435e-05
6.3136e-06
6.29076e-06
7.15658e-06
7.15164e-06
1.58935e-05
1.77422e-05
6.25449e-06
6.28366e-06
7.14248e-06
7.18589e-06
6.31166e-06
7.20647e-06
7.24294e-06
1.58587e-05
1.77262e-05
6.31671e-06
7.14742e-06
7.2622e-06
1.78977e-05
1.82126e-05
2.00331e-05
7.44756e-06
7.47242e-06
8.54489e-06
8.50826e-06
1.82281e-05
2.00716e-05
7.43796e-06
7.54122e-06
8.48452e-06
8.50251e-06
7.52709e-06
8.56401e-06
8.48729e-06
1.82176e-05
1.99916e-05
7.58287e-06
8.45774e-06
8.70841e-06
2.00118e-05
2.05389e-05
2.213e-05
8.92674e-06
8.85836e-06
9.98337e-06
9.95676e-06
2.05428e-05
2.21284e-05
8.85979e-06
8.80382e-06
9.93168e-06
9.90953e-06
8.84597e-06
1.00499e-05
9.9257e-06
2.04559e-05
2.20776e-05
9.08651e-06
9.87582e-06
1.01866e-05
2.21653e-05
2.25395e-05
2.40028e-05
1.03454e-05
1.03399e-05
1.15706e-05
1.15072e-05
2.25716e-05
2.40165e-05
1.02995e-05
1.03446e-05
1.15157e-05
1.16563e-05
1.0286e-05
1.16023e-05
1.14626e-05
2.25384e-05
2.41344e-05
1.05894e-05
1.15856e-05
1.17929e-05
2.40296e-05
2.44417e-05
2.58289e-05
1.20172e-05
1.19065e-05
1.33577e-05
1.31596e-05
2.44217e-05
2.57173e-05
1.19456e-05
1.20562e-05
1.3232e-05
1.31712e-05
1.19099e-05
1.32116e-05
1.33313e-05
2.45421e-05
2.5639e-05
1.21683e-05
1.31384e-05
1.33278e-05
2.57321e-05
2.61986e-05
2.72778e-05
1.37723e-05
1.35776e-05
1.49863e-05
1.48443e-05
2.6095e-05
2.72459e-05
1.36378e-05
1.35479e-05
1.48557e-05
1.48198e-05
1.37704e-05
1.48454e-05
1.50294e-05
2.59838e-05
2.72021e-05
1.37132e-05
1.4772e-05
1.48823e-05
2.73023e-05
2.76316e-05
2.8802e-05
1.54144e-05
1.52983e-05
1.6742e-05
1.67107e-05
2.76079e-05
2.88067e-05
1.53038e-05
1.53028e-05
1.67341e-05
1.67842e-05
1.54784e-05
1.66994e-05
1.68277e-05
2.75986e-05
2.88732e-05
1.53153e-05
1.67364e-05
1.66834e-05
2.88125e-05
2.91502e-05
3.02071e-05
1.71884e-05
1.7179e-05
1.85632e-05
1.86074e-05
2.9161e-05
3.0237e-05
1.72097e-05
1.72499e-05
1.86007e-05
1.85959e-05
1.72546e-05
1.8556e-05
1.85771e-05
2.92186e-05
3.0219e-05
1.71375e-05
1.85919e-05
1.85484e-05
3.01264e-05
3.05335e-05
3.15476e-05
1.90488e-05
1.9106e-05
2.05674e-05
2.06335e-05
3.05676e-05
3.15779e-05
1.90753e-05
1.90699e-05
2.05783e-05
2.06017e-05
1.9061e-05
2.05873e-05
2.05688e-05
3.05438e-05
3.16161e-05
1.90545e-05
2.0618e-05
2.05963e-05
3.15369e-05
3.18437e-05
3.2713e-05
2.1038e-05
2.11039e-05
2.23612e-05
2.24325e-05
3.18679e-05
3.27159e-05
2.10555e-05
2.1087e-05
2.23942e-05
2.2439e-05
2.10276e-05
2.23439e-05
2.23221e-05
3.19198e-05
3.27772e-05
2.10571e-05
2.24829e-05
2.2357e-05
3.27027e-05
3.30252e-05
3.44671e-05
2.28715e-05
2.29407e-05
2.4684e-05
2.47296e-05
3.30289e-05
3.44721e-05
2.29005e-05
2.29461e-05
2.46877e-05
2.47199e-05
2.2829e-05
2.46603e-05
2.46409e-05
3.30795e-05
3.44721e-05
2.28679e-05
2.48108e-05
2.46855e-05
3.44786e-05
3.48603e-05
3.57231e-05
2.52993e-05
2.53353e-05
2.67354e-05
2.67504e-05
3.48639e-05
3.57227e-05
2.52984e-05
2.53213e-05
2.674e-05
2.67395e-05
2.52578e-05
2.67185e-05
2.66992e-05
3.4859e-05
3.57169e-05
2.53017e-05
2.68248e-05
2.67397e-05
3.57251e-05
3.5865e-05
3.55887e-05
2.70353e-05
2.70509e-05
2.72452e-05
2.72695e-05
3.58657e-05
3.55994e-05
2.70459e-05
2.70399e-05
2.72631e-05
2.72509e-05
2.70091e-05
2.72483e-05
2.72432e-05
3.5859e-05
3.55889e-05
2.7043e-05
2.73033e-05
2.72604e-05
3.55996e-05
3.55931e-05
3.47407e-05
2.72229e-05
2.72491e-05
2.68476e-05
2.68769e-05
3.56044e-05
3.47502e-05
2.72412e-05
2.72285e-05
2.68596e-05
2.68517e-05
2.72242e-05
2.68535e-05
2.68593e-05
3.55935e-05
3.47463e-05
2.72391e-05
2.68911e-05
2.68625e-05
3.47511e-05
3.47386e-05
3.4393e-05
2.67364e-05
2.67619e-05
2.6702e-05
2.6716e-05
3.47474e-05
3.4391e-05
2.67448e-05
2.67405e-05
2.67027e-05
2.67077e-05
2.67461e-05
2.66971e-05
2.67056e-05
3.47444e-05
3.44031e-05
2.67478e-05
2.67329e-05
2.67044e-05
3.43933e-05
3.45224e-05
3.55352e-05
2.69184e-05
2.69182e-05
2.85136e-05
2.85119e-05
3.45185e-05
3.55296e-05
2.69112e-05
2.69267e-05
2.85083e-05
2.8523e-05
2.69147e-05
2.8502e-05
2.8512e-05
3.45329e-05
3.55456e-05
2.69105e-05
2.85279e-05
2.8508e-05
3.55332e-05
3.58686e-05
3.7453e-05
2.91161e-05
2.91141e-05
3.11417e-05
3.11398e-05
3.58634e-05
3.74492e-05
2.91109e-05
2.91251e-05
3.11372e-05
3.11492e-05
2.91154e-05
3.11337e-05
3.1143e-05
3.58785e-05
3.746e-05
2.91109e-05
3.11483e-05
3.11386e-05
3.7453e-05
3.78932e-05
4.01451e-05
3.19248e-05
3.19231e-05
3.45384e-05
3.45376e-05
3.789e-05
4.01426e-05
3.19209e-05
3.19317e-05
3.45353e-05
3.45429e-05
3.19265e-05
3.45341e-05
3.4541e-05
3.78996e-05
4.01483e-05
3.19224e-05
3.45413e-05
3.45381e-05
4.01465e-05
4.06654e-05
4.26704e-05
3.54161e-05
3.54155e-05
3.77246e-05
3.77244e-05
4.06633e-05
4.26684e-05
3.54133e-05
3.54199e-05
3.77225e-05
3.77267e-05
3.54189e-05
3.77219e-05
3.77277e-05
4.06681e-05
4.26714e-05
3.54163e-05
3.77263e-05
3.77259e-05
4.26723e-05
4.30394e-05
4.42005e-05
3.83448e-05
3.83447e-05
3.97401e-05
3.97399e-05
4.30376e-05
4.41989e-05
3.83432e-05
3.83466e-05
3.97387e-05
3.97409e-05
3.8348e-05
3.97384e-05
3.97433e-05
4.30402e-05
4.42009e-05
3.83463e-05
3.97417e-05
3.97419e-05
4.42026e-05
4.44078e-05
4.49206e-05
4.00669e-05
4.00667e-05
4.07299e-05
4.07295e-05
4.44064e-05
4.49193e-05
4.00657e-05
4.00675e-05
4.07286e-05
4.07303e-05
4.00702e-05
4.0729e-05
4.07332e-05
4.44082e-05
4.49211e-05
4.00688e-05
4.07316e-05
4.0732e-05
4.4923e-05
4.50255e-05
4.52199e-05
4.08696e-05
4.08692e-05
4.11338e-05
4.11335e-05
4.50244e-05
4.52189e-05
4.08685e-05
4.087e-05
4.11327e-05
4.11342e-05
4.0873e-05
4.11338e-05
4.11372e-05
4.50261e-05
4.52205e-05
4.08718e-05
4.11359e-05
4.11363e-05
4.52224e-05
4.52782e-05
4.53379e-05
4.11869e-05
4.11866e-05
4.12878e-05
4.12876e-05
4.52774e-05
4.53371e-05
4.1186e-05
4.11874e-05
4.12869e-05
4.12881e-05
4.11904e-05
4.12881e-05
4.12911e-05
4.52788e-05
4.53383e-05
4.11895e-05
4.129e-05
4.12904e-05
4.53403e-05
4.53769e-05
4.53803e-05
4.13076e-05
4.13074e-05
4.13371e-05
4.13369e-05
4.53762e-05
4.53795e-05
4.13068e-05
4.13078e-05
4.13361e-05
4.13372e-05
4.13109e-05
4.13372e-05
4.13403e-05
4.53773e-05
4.53806e-05
4.13102e-05
4.13392e-05
4.13396e-05
4.53827e-05
4.54117e-05
4.53743e-05
4.1339e-05
4.13388e-05
4.13343e-05
4.1334e-05
4.5411e-05
4.53733e-05
4.13381e-05
4.13391e-05
4.13333e-05
4.13344e-05
4.13423e-05
4.13344e-05
4.13377e-05
4.54119e-05
4.53747e-05
4.13416e-05
4.13364e-05
4.13368e-05
4.53768e-05
4.53992e-05
4.53666e-05
4.13322e-05
4.1332e-05
4.13348e-05
4.13347e-05
4.53983e-05
4.53658e-05
4.13313e-05
4.13324e-05
4.13339e-05
4.13349e-05
4.13356e-05
4.13351e-05
4.13382e-05
4.53997e-05
4.53669e-05
4.13348e-05
4.13371e-05
4.13374e-05
4.5369e-05
4.54016e-05
4.53911e-05
4.13391e-05
4.1339e-05
4.13426e-05
4.13424e-05
4.5401e-05
4.53904e-05
4.13381e-05
4.13392e-05
4.13415e-05
4.13426e-05
4.13425e-05
4.13427e-05
4.13457e-05
4.54019e-05
4.53914e-05
4.13416e-05
4.13445e-05
4.13449e-05
4.53934e-05
4.54196e-05
4.53664e-05
4.1342e-05
4.13418e-05
4.13357e-05
4.13355e-05
4.54189e-05
4.53652e-05
4.1341e-05
4.1342e-05
4.13347e-05
4.13358e-05
4.13451e-05
4.13358e-05
4.1339e-05
4.54198e-05
4.53663e-05
4.13443e-05
4.13377e-05
4.13382e-05
4.53683e-05
4.53928e-05
4.53837e-05
4.13353e-05
4.13351e-05
4.13403e-05
4.13402e-05
4.53917e-05
4.53835e-05
4.13342e-05
4.13353e-05
4.13393e-05
4.13404e-05
4.13386e-05
4.13404e-05
4.13436e-05
4.53928e-05
4.53848e-05
4.13378e-05
4.13426e-05
4.13429e-05
4.53871e-05
4.54151e-05
4.53709e-05
4.13409e-05
4.13406e-05
4.1337e-05
4.13367e-05
4.54148e-05
4.53692e-05
4.13398e-05
4.13409e-05
4.13359e-05
4.1337e-05
4.1344e-05
4.13371e-05
4.13403e-05
4.5416e-05
4.53703e-05
4.13432e-05
4.1339e-05
4.13392e-05
4.53722e-05
4.53965e-05
4.53835e-05
4.13368e-05
4.13366e-05
4.13391e-05
4.1339e-05
4.53951e-05
4.53836e-05
4.13356e-05
4.13368e-05
4.13382e-05
4.13392e-05
4.13401e-05
4.13392e-05
4.13423e-05
4.53961e-05
4.53847e-05
4.13391e-05
4.13412e-05
4.13415e-05
4.53867e-05
4.54145e-05
4.53681e-05
4.1339e-05
4.13387e-05
4.13381e-05
4.13379e-05
4.54144e-05
4.53665e-05
4.1338e-05
4.1339e-05
4.13369e-05
4.1338e-05
4.13421e-05
4.13382e-05
4.13413e-05
4.54154e-05
4.53677e-05
4.13413e-05
4.13403e-05
4.13407e-05
4.53699e-05
4.53949e-05
4.53866e-05
4.13382e-05
4.13383e-05
4.13383e-05
4.13379e-05
4.53943e-05
4.53853e-05
4.13369e-05
4.13381e-05
4.13372e-05
4.13382e-05
4.13415e-05
4.13384e-05
4.13415e-05
4.53953e-05
4.53863e-05
4.13407e-05
4.13402e-05
4.13406e-05
4.53886e-05
4.54141e-05
4.53715e-05
4.13382e-05
4.13378e-05
4.13387e-05
4.13387e-05
4.54116e-05
4.53737e-05
4.13372e-05
4.13381e-05
4.13371e-05
4.13385e-05
4.13414e-05
4.13388e-05
4.13419e-05
4.54123e-05
4.53755e-05
4.13406e-05
4.1341e-05
4.13413e-05
4.53768e-05
4.54063e-05
4.53714e-05
4.13386e-05
4.13385e-05
4.13381e-05
4.13379e-05
4.5408e-05
4.53692e-05
4.13371e-05
4.13383e-05
4.13372e-05
4.13382e-05
4.13417e-05
4.13384e-05
4.13415e-05
4.54095e-05
4.53698e-05
4.1341e-05
4.13402e-05
4.13405e-05
4.53723e-05
4.53975e-05
4.5384e-05
4.13385e-05
4.13384e-05
4.13381e-05
4.13378e-05
4.53961e-05
4.53806e-05
4.13372e-05
4.13386e-05
4.1337e-05
4.13379e-05
4.13419e-05
4.13382e-05
4.13412e-05
4.53971e-05
4.53802e-05
4.1341e-05
4.134e-05
4.13403e-05
4.53828e-05
4.54089e-05
4.53817e-05
4.13379e-05
4.13377e-05
4.13389e-05
4.13386e-05
4.54047e-05
4.5383e-05
4.13369e-05
4.13378e-05
4.13375e-05
4.13386e-05
4.13412e-05
4.13391e-05
4.13421e-05
4.54043e-05
4.53845e-05
4.13402e-05
4.1341e-05
4.13414e-05
4.53867e-05
4.5413e-05
4.53693e-05
4.13385e-05
4.1338e-05
4.13381e-05
4.13385e-05
4.54121e-05
4.53768e-05
4.13372e-05
4.1338e-05
4.13369e-05
4.13385e-05
4.13412e-05
4.13391e-05
4.13421e-05
4.5413e-05
4.53779e-05
4.13405e-05
4.13409e-05
4.13411e-05
4.5378e-05
4.54033e-05
4.53713e-05
4.13385e-05
4.13385e-05
4.13382e-05
4.13381e-05
4.54102e-05
4.53682e-05
4.13371e-05
4.13384e-05
4.13371e-05
4.13383e-05
4.13426e-05
4.13379e-05
4.13406e-05
4.54111e-05
4.53696e-05
4.13417e-05
4.13398e-05
4.13398e-05
4.53711e-05
4.53975e-05
4.53813e-05
4.13382e-05
4.13385e-05
4.13382e-05
4.1338e-05
4.54009e-05
4.53708e-05
4.13369e-05
4.13384e-05
4.13372e-05
4.13382e-05
4.13408e-05
4.13387e-05
4.13423e-05
4.54021e-05
4.53719e-05
4.134e-05
4.13408e-05
4.13413e-05
4.53775e-05
4.54053e-05
4.53838e-05
4.13382e-05
4.13382e-05
4.13384e-05
4.13384e-05
4.53969e-05
4.53838e-05
4.13372e-05
4.13385e-05
4.13371e-05
4.1338e-05
4.13422e-05
4.13388e-05
4.13416e-05
4.53986e-05
4.53772e-05
4.13411e-05
4.13404e-05
4.13407e-05
4.53847e-05
4.54123e-05
4.53798e-05
4.13383e-05
4.13382e-05
4.13388e-05
4.13382e-05
4.54088e-05
4.53783e-05
4.13371e-05
4.13381e-05
4.13375e-05
4.13383e-05
4.13414e-05
4.13385e-05
4.1342e-05
4.54021e-05
4.53773e-05
4.13405e-05
4.13402e-05
4.13411e-05
4.5383e-05
4.54123e-05
4.53678e-05
4.13387e-05
4.13384e-05
4.13382e-05
4.13388e-05
4.54092e-05
4.53822e-05
4.13373e-05
4.13382e-05
4.1337e-05
4.13384e-05
4.13425e-05
4.1339e-05
4.13412e-05
4.54021e-05
4.53786e-05
4.13417e-05
4.13402e-05
4.13402e-05
4.53718e-05
4.53994e-05
4.53786e-05
4.13384e-05
4.13379e-05
4.13392e-05
4.13389e-05
4.54111e-05
4.53773e-05
4.13374e-05
4.1338e-05
4.13376e-05
4.1339e-05
4.13412e-05
4.13394e-05
4.13425e-05
4.54025e-05
4.53853e-05
4.13402e-05
4.13413e-05
4.13414e-05
4.53883e-05
4.54046e-05
4.53684e-05
4.13389e-05
4.13392e-05
4.13379e-05
4.13376e-05
4.54107e-05
4.53681e-05
4.13376e-05
4.1339e-05
4.13367e-05
4.13377e-05
4.13418e-05
4.13382e-05
4.13419e-05
4.54155e-05
4.53672e-05
4.13408e-05
4.13399e-05
4.13411e-05
4.53795e-05
4.53976e-05
4.53789e-05
4.13389e-05
4.13381e-05
4.13382e-05
4.13383e-05
4.53952e-05
4.53841e-05
4.13376e-05
4.13385e-05
4.1337e-05
4.13382e-05
4.13428e-05
4.13386e-05
4.13408e-05
4.53986e-05
4.53808e-05
4.13417e-05
4.13401e-05
4.134e-05
4.53707e-05
4.54031e-05
4.53826e-05
4.1338e-05
4.13382e-05
4.13382e-05
4.13379e-05
4.5409e-05
4.5379e-05
4.13367e-05
4.1338e-05
4.1337e-05
4.13383e-05
4.13411e-05
4.13394e-05
4.13423e-05
4.54049e-05
4.53822e-05
4.13406e-05
4.134e-05
4.13408e-05
4.53845e-05
4.54136e-05
4.53684e-05
4.13382e-05
4.13381e-05
4.1338e-05
4.13378e-05
4.54114e-05
4.53677e-05
4.1337e-05
4.13383e-05
4.13366e-05
4.13377e-05
4.13417e-05
4.13385e-05
4.13417e-05
4.54135e-05
4.53677e-05
4.13403e-05
4.13397e-05
4.13411e-05
4.53851e-05
4.54015e-05
4.53723e-05
4.13383e-05
4.13381e-05
4.13381e-05
4.13377e-05
4.53998e-05
4.5372e-05
4.13369e-05
4.1338e-05
4.13367e-05
4.13381e-05
4.13423e-05
4.13384e-05
4.1341e-05
4.53979e-05
4.53797e-05
4.13413e-05
4.134e-05
4.13404e-05
4.53726e-05
4.53983e-05
4.53822e-05
4.13384e-05
4.13379e-05
4.13383e-05
4.13378e-05
4.53978e-05
4.53827e-05
4.13369e-05
4.13381e-05
4.13368e-05
4.13379e-05
4.13413e-05
4.13385e-05
4.1341e-05
4.54042e-05
4.53834e-05
4.13408e-05
4.13399e-05
4.13403e-05
4.53729e-05
4.54065e-05
4.53833e-05
4.13383e-05
4.1338e-05
4.13381e-05
4.13376e-05
4.54077e-05
4.53819e-05
4.13372e-05
4.13384e-05
4.13367e-05
4.13378e-05
4.13412e-05
4.13383e-05
4.13409e-05
4.5412e-05
4.53809e-05
4.13412e-05
4.13399e-05
4.13402e-05
4.53798e-05
4.54125e-05
4.53776e-05
4.13386e-05
4.13382e-05
4.13378e-05
4.13374e-05
4.54117e-05
4.5376e-05
4.13371e-05
4.13382e-05
4.1337e-05
4.13378e-05
4.13413e-05
4.13379e-05
4.13407e-05
4.54126e-05
4.53713e-05
4.13402e-05
4.13397e-05
4.134e-05
4.53858e-05
4.54107e-05
4.53691e-05
4.13384e-05
4.1338e-05
4.13379e-05
4.13374e-05
4.54098e-05
4.5367e-05
4.13373e-05
4.13383e-05
4.13365e-05
4.13373e-05
4.13413e-05
4.13373e-05
4.13406e-05
4.5406e-05
4.53698e-05
4.13404e-05
4.13392e-05
4.13395e-05
4.53827e-05
4.54021e-05
4.53719e-05
4.13386e-05
4.13381e-05
4.13376e-05
4.13372e-05
4.53979e-05
4.53737e-05
4.13375e-05
4.13382e-05
4.13361e-05
4.13371e-05
4.13413e-05
4.13374e-05
4.13406e-05
4.53968e-05
4.53805e-05
4.13404e-05
4.13392e-05
4.13393e-05
4.53762e-05
4.53984e-05
4.53782e-05
4.13386e-05
4.13381e-05
4.13374e-05
4.13371e-05
4.53989e-05
4.53836e-05
4.13371e-05
4.13379e-05
4.13362e-05
4.13372e-05
4.13415e-05
4.13375e-05
4.13404e-05
4.54045e-05
4.53837e-05
4.13403e-05
4.13392e-05
4.13393e-05
4.53711e-05
4.54032e-05
4.53753e-05
4.13386e-05
4.13382e-05
4.13372e-05
4.1337e-05
4.54107e-05
4.53779e-05
4.13373e-05
4.13382e-05
4.13359e-05
4.13369e-05
4.13418e-05
4.1337e-05
4.134e-05
4.54138e-05
4.53714e-05
4.13405e-05
4.13387e-05
4.1339e-05
4.53728e-05
4.54001e-05
4.53834e-05
4.13385e-05
4.13383e-05
4.13371e-05
4.13366e-05
4.54103e-05
4.53694e-05
4.13372e-05
4.13385e-05
4.13359e-05
4.13366e-05
4.13416e-05
4.13368e-05
4.134e-05
4.54061e-05
4.53699e-05
4.13405e-05
4.13383e-05
4.13388e-05
4.53804e-05
4.54079e-05
4.53806e-05
4.13387e-05
4.13386e-05
4.13368e-05
4.13362e-05
4.54036e-05
4.53685e-05
4.13374e-05
4.13384e-05
4.13355e-05
4.13365e-05
4.13417e-05
4.13363e-05
4.13397e-05
4.53972e-05
4.53773e-05
4.13405e-05
4.13382e-05
4.13384e-05
4.53841e-05
4.54124e-05
4.53677e-05
4.13393e-05
4.13388e-05
4.1336e-05
4.13358e-05
4.53974e-05
4.53714e-05
4.13381e-05
4.13388e-05
4.13347e-05
4.1336e-05
4.13422e-05
4.13359e-05
4.13391e-05
4.54023e-05
4.5381e-05
4.13409e-05
4.13378e-05
4.13379e-05
4.53811e-05
4.54003e-05
4.53726e-05
4.13395e-05
4.13391e-05
4.13357e-05
4.13356e-05
4.5398e-05
4.53764e-05
4.13382e-05
4.13392e-05
4.13346e-05
4.13358e-05
4.13424e-05
4.13358e-05
4.1339e-05
4.54061e-05
4.53823e-05
4.13411e-05
4.13378e-05
4.13378e-05
4.53799e-05
4.53988e-05
4.53827e-05
4.13398e-05
4.13397e-05
4.13359e-05
4.13356e-05
4.54017e-05
4.53808e-05
4.13387e-05
4.13398e-05
4.13347e-05
4.13358e-05
4.1343e-05
4.13358e-05
4.13389e-05
4.54089e-05
4.53813e-05
4.13417e-05
4.13374e-05
4.13377e-05
4.53838e-05
4.54087e-05
4.53808e-05
4.13411e-05
4.13409e-05
4.13362e-05
4.13359e-05
4.54066e-05
4.53809e-05
4.13399e-05
4.13411e-05
4.13351e-05
4.13362e-05
4.13442e-05
4.13362e-05
4.13393e-05
4.54094e-05
4.53821e-05
4.1343e-05
4.13378e-05
4.13379e-05
4.53843e-05
4.54118e-05
4.53695e-05
4.13432e-05
4.13429e-05
4.13285e-05
4.13284e-05
4.54094e-05
4.53757e-05
4.13419e-05
4.1343e-05
4.13274e-05
4.13285e-05
4.13462e-05
4.13286e-05
4.13315e-05
4.54096e-05
4.53784e-05
4.13448e-05
4.13302e-05
4.13304e-05
4.53756e-05
4.5399e-05
4.50701e-05
4.13339e-05
4.13337e-05
4.10284e-05
4.10286e-05
4.54028e-05
4.5072e-05
4.13328e-05
4.13339e-05
4.1029e-05
4.1027e-05
4.13369e-05
4.1031e-05
4.10308e-05
4.54056e-05
4.50718e-05
4.13357e-05
4.1031e-05
4.10313e-05
4.5072e-05
4.47602e-05
4.00216e-05
4.00217e-05
4.47611e-05
4.00227e-05
4.00203e-05
2.60574e-05
2.60563e-05
2.60586e-05
4.00241e-05
4.47625e-05
4.00252e-05
3.98371e-06
5.7682e-07
2.6053e-06
2.60073e-06
9.59241e-08
5.02717e-07
3.04261e-06
1.47526e-06
9.98532e-08
3.79813e-07
1.48449e-06
3.24513e-07
3.65682e-07
2.71575e-07
4.37391e-07
3.06509e-07
4.95576e-06
2.53149e-07
6.648e-06
1.4249e-05
2.19743e-05
3.02527e-07
5.47555e-06
2.52088e-07
7.31502e-06
1.46454e-06
1.43977e-06
1.43337e-06
1.43688e-06
1.44869e-06
1.42652e-06
1.41789e-06
1.03081e-07
3.27116e-06
6.95424e-07
8.2221e-07
1.01724e-07
3.38356e-06
6.73844e-07
1.45215e-05
2.26165e-05
9.41155e-08
7.92121e-07
9.40022e-07
5.96208e-07
9.70432e-08
7.82242e-07
9.72334e-07
1.89914e-06
1.93189e-06
3.50469e-07
1.86685e-06
1.90671e-06
5.06412e-07
9.75182e-06
4.09118e-07
1.24885e-05
3.77392e-05
4.7646e-05
4.96955e-07
1.09504e-05
4.15614e-07
1.39081e-05
1.45182e-06
1.43258e-06
1.42418e-06
1.46174e-06
1.46748e-06
1.4516e-06