/*--------------------------------*- C++ -*----------------------------------*\
| =========                 |                                                 |
| \\      /  F ield         | OpenFOAM: The Open Source CFD Toolbox           |
|  \\    /   O peration     | Version:  v2012                                 |
|   \\  /    A nd           | Website:  www.openfoam.com                      |
|    \\/     M anipulation  |                                                 |
\*---------------------------------------------------------------------------*/
FoamFile
{
    version     2.0;
    format      ascii;
    class       volScalarField;
    location    "200";
    object      nut;
}
// * * * * * * * * * * * * * * * * * * * * * * * * * * * * * * * * * * * * * //

dimensions      [0 2 -1 0 0 0 0];


internalField   nonuniform List<scalar> 
171728
(
1.71035e-05
1.3686e-05
3.72898e-06
2.28983e-06
1.71173e-05
5.4413e-06
5.14392e-06
2.27519e-06
1.75679e-05
2.48606e-06
5.63748e-06
2.28413e-06
1.78685e-05
2.13539e-06
4.27295e-06
2.30779e-06
1.81676e-05
2.17593e-06
3.14041e-06
2.3271e-06
1.85487e-05
2.24359e-06
2.80776e-06
2.35621e-06
1.90686e-05
2.31045e-06
2.86507e-06
2.41517e-06
1.95132e-05
2.38576e-06
2.91337e-06
2.48733e-06
1.99329e-05
2.46627e-06
2.95807e-06
2.45692e-06
2.03312e-05
2.55553e-06
3.0176e-06
2.32605e-06
2.07621e-05
2.63838e-06
3.07262e-06
2.21333e-06
2.1224e-05
2.71898e-06
3.14922e-06
2.12833e-06
2.1694e-05
2.80785e-06
3.21137e-06
2.05992e-06
2.21626e-05
2.90434e-06
3.29057e-06
1.99337e-06
2.262e-05
2.99868e-06
3.34653e-06
1.9097e-06
2.30611e-05
3.08354e-06
3.40754e-06
1.82986e-06
2.34961e-05
3.13453e-06
3.45831e-06
1.79572e-06
2.38624e-05
3.23537e-06
3.52342e-06
1.67723e-06
2.4278e-05
3.31118e-06
3.55371e-06
1.72144e-06
2.45483e-05
3.51407e-06
3.58496e-06
1.73899e-06
2.48897e-05
3.66978e-06
3.91619e-06
2.37677e-06
2.50984e-05
4.10227e-06
4.06868e-06
2.96481e-06
2.53481e-05
4.47834e-06
4.65279e-06
3.95882e-06
2.55203e-05
5.43598e-06
5.50346e-06
6.564e-06
2.56606e-05
6.47831e-06
6.72382e-06
9.43326e-06
2.58586e-05
8.07079e-06
7.98338e-06
1.36686e-05
2.58776e-05
9.83467e-06
1.01177e-05
1.9477e-05
2.59773e-05
1.23457e-05
1.2117e-05
2.5631e-05
2.59306e-05
1.50611e-05
1.51153e-05
3.31639e-05
2.58426e-05
1.81617e-05
1.81954e-05
4.03383e-05
2.59457e-05
2.22714e-05
2.1953e-05
4.80482e-05
2.57744e-05
2.61731e-05
2.59439e-05
5.54192e-05
2.60929e-05
3.10563e-05
3.05243e-05
6.12053e-05
2.62688e-05
3.63843e-05
3.54294e-05
6.74468e-05
2.69486e-05
4.17979e-05
4.18469e-05
7.29628e-05
2.79285e-05
4.7217e-05
4.66436e-05
7.79528e-05
2.88195e-05
5.28336e-05
5.23661e-05
8.27995e-05
3.03461e-05
5.94447e-05
5.95505e-05
8.7822e-05
3.23979e-05
6.62783e-05
6.61647e-05
9.2334e-05
3.54763e-05
7.41456e-05
7.40986e-05
9.75824e-05
3.82009e-05
8.05539e-05
8.12987e-05
0.000101697
4.38051e-05
9.19355e-05
9.27761e-05
0.000110404
4.9968e-05
0.000101277
0.00010186
0.000116468
5.08874e-05
0.000100934
0.000101248
0.000116036
4.56708e-05
9.47903e-05
9.49891e-05
0.000111076
4.07698e-05
9.09293e-05
9.10951e-05
0.000107657
4.65687e-05
9.94139e-05
9.95362e-05
0.000111984
5.98944e-05
0.0001121
0.000112162
0.000119646
8.53073e-05
0.000130996
0.000131022
0.000132069
0.000117106
0.000149024
0.000149035
0.000143993
0.000142462
0.000160473
0.000160478
0.000151217
0.000157026
0.000166046
0.000166047
0.000154546
0.000163549
0.00016829
0.000168288
0.000155913
0.000166092
0.000169159
0.000169156
0.000156454
0.000166876
0.000169403
0.000169399
0.000156663
0.000166942
0.000169355
0.000169353
0.000156615
0.000167009
0.000169396
0.000169393
0.000156591
0.000167037
0.000169427
0.000169423
0.000156725
0.000167003
0.000169374
0.000169371
0.00015655
0.000167021
0.000169414
0.000169412
0.000156695
0.00016701
0.000169386
0.000169382
0.000156574
0.000167012
0.000169401
0.000169398
0.000156694
0.000167011
0.000169396
0.000169393
0.000156559
0.000167011
0.000169395
0.000169391
0.000156686
0.000167011
0.000169398
0.000169396
0.000156647
0.00016701
0.000169399
0.000169396
0.000156574
0.00016701
0.000169394
0.000169389
0.000156629
0.00016701
0.000169395
0.000169393
0.000156686
0.000167011
0.000169404
0.0001694
0.000156654
0.000167012
0.000169394
0.000169391
0.000156576
0.000167014
0.000169397
0.000169395
0.000156597
0.000167013
0.000169399
0.000169395
0.000156645
0.000167012
0.000169399
0.000169394
0.000156675
0.000167016
0.000169397
0.00016939
0.000156568
0.000167017
0.000169405
0.0001694
0.000156683
0.000167015
0.000169401
0.000169397
0.00015666
0.000167014
0.000169396
0.000169392
0.000156562
0.000167013
0.000169405
0.000169393
0.00015664
0.000167013
0.000169404
0.000169392
0.000156686
0.000167014
0.000169398
0.000169393
0.000156622
0.000167015
0.000169399
0.000169395
0.000156587
0.000167015
0.0001694
0.000169395
0.000156624
0.000167014
0.000169399
0.000169395
0.000156676
0.000167015
0.000169396
0.000169392
0.000156672
0.000167014
0.000169395
0.00016939
0.000156644
0.000167014
0.000169398
0.000169393
0.000156594
0.000167014
0.000169398
0.000169393
0.000156574
0.000167013
0.000169398
0.000169392
0.000156618
0.000167013
0.000169398
0.000169393
0.000156655
0.000167012
0.000169398
0.000169393
0.000156632
0.000167012
0.0001694
0.000169396
0.000156615
0.000167013
0.000169404
0.000169399
0.000156647
0.000167014
0.000169413
0.000169407
0.000156674
0.000167115
0.000169393
0.000169388
0.00015666
0.000167529
0.000169298
0.000169295
0.000158301
2.30842e-06
2.4744e-06
6.01644e-06
2.37062e-06
4.43526e-06
2.89029e-06
1.77311e-05
1.77538e-05
1.74743e-05
1.73589e-05
3.48943e-06
2.63848e-06
2.28159e-06
2.75749e-06
2.44543e-06
2.31165e-06
2.28912e-06
2.37263e-06
2.55463e-06
3.91096e-06
2.5559e-06
5.66824e-06
2.37014e-06
2.61302e-06
4.628e-06
4.89952e-06
6.20383e-06
3.93378e-06
2.62359e-06
7.24497e-06
2.65866e-06
2.26575e-06
2.35997e-06
2.50549e-06
4.73143e-06
2.51565e-06
2.29777e-06
2.36451e-06
2.56998e-06
2.56143e-06
6.64804e-06
2.59403e-06
9.88583e-06
2.63023e-06
2.9584e-06
6.87783e-06
3.70529e-06
8.86376e-06
3.15495e-06
2.67484e-06
2.79419e-06
2.72581e-06
2.34362e-06
2.38471e-06
2.5211e-06
5.75111e-06
2.54171e-06
2.29701e-06
2.55492e-06
2.68891e-06
2.60864e-06
1.0802e-05
2.65758e-06
9.22982e-06
2.93553e-06
2.81908e-06
9.43253e-06
3.0201e-06
9.26377e-06
2.74962e-06
2.74454e-06
2.15592e-06
2.79762e-06
2.34497e-06
2.33822e-06
2.55276e-06
4.66372e-06
2.59316e-06
2.31575e-06
2.63969e-06
2.44123e-06
2.67382e-06
8.12646e-06
2.71731e-06
5.41792e-06
2.68531e-06
2.47437e-06
8.53038e-06
2.70606e-06
5.95414e-06
2.69271e-06
2.81522e-06
2.16116e-06
2.87788e-06
2.30685e-06
2.27849e-06
2.60762e-06
3.33951e-06
2.65263e-06
2.34045e-06
2.37432e-06
2.30165e-06
2.7347e-06
4.92945e-06
2.7857e-06
4.70658e-06
2.40869e-06
2.29125e-06
5.18087e-06
2.70861e-06
3.62964e-06
2.77787e-06
2.9045e-06
2.22696e-06
2.97818e-06
2.25506e-06
2.29447e-06
2.6693e-06
2.83906e-06
2.71963e-06
2.37103e-06
2.27644e-06
2.29955e-06
2.80257e-06
4.83565e-06
2.84615e-06
5.09512e-06
2.25508e-06
2.27646e-06
3.36249e-06
2.80038e-06
3.00817e-06
2.86428e-06
3.00285e-06
2.2965e-06
3.05684e-06
2.27009e-06
2.30122e-06
2.73529e-06
2.84611e-06
2.78811e-06
2.4243e-06
2.27885e-06
2.32698e-06
2.86393e-06
5.01755e-06
2.91789e-06
4.44784e-06
2.24361e-06
2.24516e-06
2.98407e-06
2.88646e-06
2.99451e-06
2.95524e-06
3.07108e-06
2.36935e-06
3.08707e-06
2.28326e-06
2.31838e-06
2.80755e-06
2.90374e-06
2.86535e-06
2.49873e-06
2.31516e-06
2.37762e-06
2.937e-06
4.18562e-06
3.0086e-06
3.41228e-06
2.21953e-06
2.17984e-06
3.00058e-06
2.97554e-06
3.06118e-06
3.03185e-06
3.08069e-06
2.4502e-06
3.04086e-06
2.30345e-06
2.33932e-06
2.8862e-06
2.94865e-06
2.94444e-06
2.4917e-06
2.36717e-06
2.40415e-06
3.02986e-06
3.20596e-06
3.08278e-06
2.84155e-06
2.14977e-06
2.10465e-06
3.08395e-06
3.0496e-06
3.13528e-06
3.10682e-06
3.00663e-06
2.53562e-06
2.92001e-06
2.32338e-06
2.3294e-06
2.95876e-06
3.00798e-06
3.00405e-06
2.36491e-06
2.38819e-06
2.39016e-06
3.1008e-06
2.79351e-06
3.15066e-06
2.74534e-06
2.08468e-06
2.08333e-06
3.15606e-06
3.1193e-06
3.21162e-06
3.16612e-06
2.90412e-06
2.62008e-06
2.85641e-06
2.30985e-06
2.30659e-06
3.02034e-06
3.05879e-06
3.04987e-06
2.24496e-06
2.3708e-06
2.3548e-06
3.16076e-06
2.75798e-06
3.19443e-06
2.81523e-06
2.06531e-06
2.04308e-06
3.22848e-06
3.18049e-06
3.26461e-06
3.22763e-06
2.83855e-06
2.69923e-06
2.83416e-06
2.28939e-06
2.27973e-06
3.06143e-06
3.12927e-06
3.08289e-06
2.15337e-06
2.33194e-06
2.30013e-06
3.21105e-06
2.8295e-06
3.25921e-06
2.85534e-06
2.02379e-06
1.9993e-06
3.27111e-06
3.24972e-06
3.29769e-06
3.30843e-06
2.85464e-06
2.78057e-06
2.91098e-06
2.25922e-06
2.23586e-06
3.09557e-06
3.19663e-06
3.13635e-06
2.08593e-06
2.27483e-06
2.2292e-06
3.27502e-06
2.87269e-06
3.29665e-06
2.92769e-06
1.97967e-06
1.93361e-06
3.31913e-06
3.32751e-06
3.38002e-06
3.36523e-06
2.92666e-06
2.88805e-06
2.98387e-06
2.21169e-06
2.17417e-06
3.14977e-06
3.27469e-06
3.20016e-06
2.02067e-06
2.20418e-06
2.14836e-06
3.30457e-06
2.94403e-06
3.34243e-06
2.98786e-06
1.90947e-06
1.85039e-06
3.40297e-06
3.38089e-06
3.4442e-06
3.4075e-06
2.99789e-06
2.98045e-06
3.05049e-06
2.148e-06
2.09856e-06
3.20761e-06
3.3386e-06
3.23992e-06
1.93853e-06
2.11344e-06
2.051e-06
3.35957e-06
3.00473e-06
3.41138e-06
3.03896e-06
1.82411e-06
1.744e-06
3.44792e-06
3.40786e-06
3.47319e-06
3.44112e-06
3.0757e-06
3.06013e-06
3.16279e-06
2.06362e-06
2.01861e-06
3.2497e-06
3.3939e-06
3.28065e-06
1.8729e-06
2.00958e-06
1.95288e-06
3.42541e-06
3.05563e-06
3.4785e-06
3.13344e-06
1.70309e-06
1.69271e-06
3.47804e-06
3.44529e-06
3.5107e-06
3.45241e-06
3.17381e-06
3.12415e-06
3.2404e-06
1.98364e-06
1.91821e-06
3.28607e-06
3.44816e-06
3.29943e-06
1.8177e-06
1.91444e-06
1.8652e-06
3.48462e-06
3.14438e-06
3.51137e-06
3.20866e-06
1.64705e-06
1.65484e-06
3.51339e-06
3.45391e-06
3.51946e-06
3.45882e-06
3.2597e-06
3.19701e-06
3.22482e-06
1.89306e-06
1.81843e-06
3.29911e-06
3.50289e-06
3.29277e-06
1.67752e-06
1.82704e-06
1.87678e-06
3.50158e-06
3.24353e-06
3.56901e-06
3.23681e-06
1.64587e-06
1.65051e-06
3.51731e-06
3.48051e-06
3.59286e-06
3.45453e-06
3.23959e-06
3.28562e-06
3.29943e-06
1.80766e-06
1.73853e-06
3.32121e-06
3.50285e-06
3.35843e-06
1.73654e-06
1.92362e-06
1.75106e-06
3.60499e-06
3.25788e-06
3.50312e-06
3.46485e-06
1.62676e-06
1.96689e-06
3.63731e-06
3.5097e-06
3.54141e-06
3.56443e-06
3.31766e-06
3.51788e-06
3.31638e-06
1.74822e-06
1.95286e-06
3.37158e-06
3.62641e-06
3.39483e-06
1.74795e-06
1.74143e-06
2.63005e-06
3.54731e-06
3.42647e-06
3.7918e-06
3.43357e-06
1.96683e-06
1.91701e-06
3.5724e-06
3.52534e-06
3.8253e-06
3.70926e-06
3.33842e-06
3.55605e-06
3.51535e-06
1.88888e-06
2.31932e-06
3.40885e-06
3.78657e-06
3.57259e-06
2.21599e-06
2.66631e-06
2.7143e-06
3.82111e-06
3.58655e-06
3.90612e-06
3.88313e-06
2.13796e-06
3.21265e-06
3.85127e-06
3.81798e-06
3.91719e-06
3.97725e-06
3.58912e-06
4.02834e-06
3.87173e-06
2.58824e-06
2.9424e-06
3.66453e-06
4.03205e-06
3.89564e-06
2.89919e-06
2.82332e-06
4.0457e-06
3.97398e-06
3.93992e-06
4.39558e-06
4.2627e-06
3.25632e-06
3.86086e-06
3.98131e-06
4.01566e-06
4.38597e-06
4.40841e-06
3.90096e-06
4.32695e-06
4.18281e-06
2.91442e-06
3.9823e-06
3.91367e-06
4.48752e-06
4.19661e-06
3.56483e-06
4.38387e-06
6.0022e-06
4.56752e-06
4.36842e-06
5.12012e-06
5.00935e-06
4.07558e-06
5.78246e-06
4.54158e-06
4.59213e-06
5.06425e-06
5.22305e-06
4.42633e-06
5.18703e-06
5.04612e-06
4.35809e-06
6.14649e-06
4.43099e-06
5.28929e-06
5.06218e-06
6.22872e-06
6.45503e-06
8.9453e-06
5.3639e-06
5.32541e-06
6.16705e-06
6.03469e-06
6.40579e-06
8.97242e-06
5.31399e-06
5.43474e-06
6.07759e-06
6.24397e-06
5.23071e-06
6.17944e-06
6.09972e-06
6.63937e-06
8.95636e-06
5.24179e-06
6.36045e-06
6.06999e-06
8.63893e-06
9.57511e-06
1.29122e-05
6.44011e-06
6.29751e-06
7.54442e-06
7.58004e-06
9.45838e-06
1.29985e-05
6.34339e-06
6.61925e-06
7.50935e-06
7.53311e-06
6.41275e-06
7.67242e-06
7.38544e-06
9.66546e-06
1.30821e-05
6.39872e-06
7.57718e-06
7.4365e-06
1.28674e-05
1.38533e-05
1.80434e-05
7.97839e-06
8.00334e-06
9.24074e-06
9.20023e-06
1.40976e-05
1.80698e-05
7.92028e-06
7.92675e-06
9.10713e-06
9.58452e-06
7.8754e-06
9.28482e-06
9.30402e-06
1.37698e-05
1.89267e-05
7.91336e-06
9.65485e-06
9.28012e-06
1.84931e-05
1.90289e-05
2.46081e-05
9.73431e-06
9.72878e-06
1.15111e-05
1.14656e-05
1.89177e-05
2.48244e-05
9.64207e-06
1.00805e-05
1.14337e-05
1.15009e-05
9.66183e-06
1.17023e-05
1.14239e-05
2.02702e-05
2.43296e-05
9.66557e-06
1.1496e-05
1.14307e-05
2.40782e-05
2.59491e-05
3.15085e-05
1.21373e-05
1.20668e-05
1.41044e-05
1.41965e-05
2.62421e-05
3.16724e-05
1.20104e-05
1.20681e-05
1.3953e-05
1.43362e-05
1.22167e-05
1.43731e-05
1.40212e-05
2.53952e-05
3.22903e-05
1.2198e-05
1.43588e-05
1.40299e-05
3.21432e-05
3.28656e-05
3.898e-05
1.49017e-05
1.49561e-05
1.72737e-05
1.70987e-05
3.30305e-05
3.88551e-05
1.4722e-05
1.51764e-05
1.71114e-05
1.72191e-05
1.46513e-05
1.72755e-05
1.73025e-05
3.386e-05
3.93136e-05
1.4642e-05
1.73486e-05
1.72469e-05
3.86456e-05
4.0344e-05
4.60944e-05
1.7972e-05
1.79245e-05
2.09264e-05
2.10464e-05
4.02189e-05
4.6535e-05
1.7884e-05
1.80855e-05
2.07068e-05
2.1183e-05
1.81461e-05
2.12807e-05
2.08607e-05
4.05887e-05
4.65707e-05
1.81183e-05
2.10039e-05
2.07272e-05
4.65626e-05
4.76611e-05
5.3305e-05
2.21298e-05
2.20538e-05
2.4849e-05
2.48552e-05
4.80821e-05
5.32485e-05
2.18431e-05
2.19951e-05
2.48572e-05
2.50133e-05
2.2068e-05
2.50916e-05
2.54633e-05
4.80252e-05
5.32647e-05
2.18454e-05
2.49139e-05
2.51507e-05
5.41822e-05
5.4528e-05
5.98034e-05
2.57157e-05
2.59465e-05
2.96545e-05
2.95945e-05
5.45648e-05
6.01254e-05
2.57769e-05
2.63595e-05
2.94211e-05
2.96105e-05
2.63488e-05
2.98036e-05
2.9435e-05
5.46201e-05
5.97349e-05
2.62266e-05
2.9351e-05
3.04303e-05
5.98021e-05
6.13274e-05
6.60969e-05
3.10752e-05
3.07967e-05
3.45989e-05
3.45618e-05
6.14602e-05
6.60673e-05
3.07925e-05
3.04671e-05
3.44286e-05
3.41007e-05
3.06686e-05
3.5038e-05
3.42899e-05
6.10098e-05
6.57034e-05
3.18399e-05
3.40358e-05
3.56605e-05
6.627e-05
6.71539e-05
7.14551e-05
3.57581e-05
3.58896e-05
4.00005e-05
3.98723e-05
6.73149e-05
7.16572e-05
3.56358e-05
3.57207e-05
3.98448e-05
4.06876e-05
3.54423e-05
4.04213e-05
3.93192e-05
6.70237e-05
7.22813e-05
3.71296e-05
4.03323e-05
4.1504e-05
7.18195e-05
7.27571e-05
7.73292e-05
4.16503e-05
4.12204e-05
4.66403e-05
4.5533e-05
7.27825e-05
7.6757e-05
4.13811e-05
4.21026e-05
4.59627e-05
4.56516e-05
4.09323e-05
4.59313e-05
4.63722e-05
7.34774e-05
7.64373e-05
4.27541e-05
4.55342e-05
4.65808e-05
7.68837e-05
7.83791e-05
8.15613e-05
4.80818e-05
4.69465e-05
5.20539e-05
5.11259e-05
7.7823e-05
8.13364e-05
4.73209e-05
4.67965e-05
5.12273e-05
5.09461e-05
4.79727e-05
5.12526e-05
5.22392e-05
7.72862e-05
8.10022e-05
4.78141e-05
5.06609e-05
5.14377e-05
8.16902e-05
8.25732e-05
8.66272e-05
5.34931e-05
5.26906e-05
5.80721e-05
5.77266e-05
8.23827e-05
8.65668e-05
5.27582e-05
5.26826e-05
5.7945e-05
5.81971e-05
5.38258e-05
5.78344e-05
5.86539e-05
8.22297e-05
8.68798e-05
5.28917e-05
5.78468e-05
5.7724e-05
8.68384e-05
8.77298e-05
9.16092e-05
5.96178e-05
5.93948e-05
6.44532e-05
6.45494e-05
8.77025e-05
9.17083e-05
5.96833e-05
5.98784e-05
6.46644e-05
6.45456e-05
6.01061e-05
6.44114e-05
6.4622e-05
8.79803e-05
9.15353e-05
5.93173e-05
6.43968e-05
6.43543e-05
9.12415e-05
9.26913e-05
9.66955e-05
6.62462e-05
6.64301e-05
7.22057e-05
7.24808e-05
9.2821e-05
9.6849e-05
6.63897e-05
6.62537e-05
7.22295e-05
7.22756e-05
6.64008e-05
7.23787e-05
7.22938e-05
9.25984e-05
9.69642e-05
6.62755e-05
7.2202e-05
7.24128e-05
9.6595e-05
9.76807e-05
0.00010079
7.40096e-05
7.4297e-05
7.86827e-05
7.906e-05
9.78063e-05
0.000100808
7.40716e-05
7.41837e-05
7.88634e-05
7.91126e-05
7.40192e-05
7.86216e-05
7.84767e-05
9.8024e-05
0.000101215
7.41578e-05
7.92143e-05
7.86529e-05
0.000100654
0.000101807
0.000108554
8.06524e-05
8.10372e-05
8.8922e-05
8.91988e-05
0.000101828
0.000108589
8.08128e-05
8.10892e-05
8.89183e-05
8.91595e-05
8.0412e-05
8.87836e-05
8.86475e-05
0.000102201
0.000108699
8.06155e-05
8.96607e-05
8.89049e-05
0.000108566
0.000110393
0.000115781
9.20722e-05
9.22897e-05
9.97477e-05
9.98059e-05
0.000110419
0.000115763
9.2034e-05
9.22222e-05
9.97436e-05
9.97706e-05
9.17956e-05
9.96303e-05
9.9469e-05
0.000110495
0.000115788
9.20613e-05
0.00010033
9.97504e-05
0.000115755
0.000116492
0.000116145
0.000101351
0.000101404
0.000101517
0.000101625
0.00011648
0.000116193
0.000101393
0.000101376
0.000101636
0.00010155
0.000101129
0.000101546
0.000101461
0.000116498
0.000116156
0.000101378
0.000101891
0.000101605
0.000116173
0.000116003
0.000111375
0.000100888
0.000101012
9.63748e-05
9.65432e-05
0.000116054
0.000111437
0.000101016
0.00010092
9.64757e-05
9.63915e-05
0.000100858
9.64426e-05
9.64332e-05
0.000116013
0.000111397
0.000100988
9.66449e-05
9.64794e-05
0.000111422
0.000111029
0.000107637
9.47395e-05
9.48894e-05
9.09949e-05
9.10864e-05
0.00011109
0.00010764
9.48169e-05
9.47535e-05
9.1025e-05
9.10119e-05
9.47885e-05
9.09993e-05
9.10122e-05
0.000111049
0.000107677
9.48235e-05
9.11868e-05
9.10266e-05
0.000107635
0.000107668
0.000110917
9.09815e-05
9.09804e-05
9.69962e-05
9.69854e-05
0.00010766
0.000110897
9.0957e-05
9.10149e-05
9.6982e-05
9.70382e-05
9.09503e-05
9.69499e-05
9.69754e-05
0.00010771
0.000110961
9.09447e-05
9.70858e-05
9.69703e-05
0.000110901
0.000111998
0.000118044
9.94614e-05
9.94485e-05
0.000108365
0.000108351
0.00011198
0.000118033
9.94467e-05
9.95017e-05
0.000108353
0.000108399
9.94462e-05
0.000108336
0.000108362
0.000112041
0.000118075
9.94378e-05
0.000108412
0.000108351
0.000118039
0.000119651
0.000129793
0.000112125
0.000112112
0.000125966
0.000125956
0.000119642
0.000129789
0.000112115
0.000112156
0.000125961
0.000125983
0.000112125
0.000125959
0.000125971
0.00011968
0.000129806
0.000112115
0.000125991
0.000125969
0.000129794
0.000132068
0.000142314
0.000131001
0.000130993
0.000145052
0.000145046
0.000132065
0.000142312
0.000130998
0.000131015
0.000145055
0.000145055
0.000131008
0.000145057
0.000145062
0.000132079
0.000142315
0.000131008
0.000145071
0.000145067
0.000142317
0.000143991
0.000150319
0.000149018
0.000149011
0.000158237
0.000158231
0.000143989
0.000150319
0.000149023
0.000149017
0.000158245
0.000158229
0.000149028
0.000158249
0.000158247
0.000143991
0.000150316
0.000149034
0.000158256
0.000158255
0.000150323
0.000151214
0.000154186
0.000160459
0.000160453
0.000165047
0.000165038
0.000151214
0.000154187
0.000160469
0.000160451
0.000165056
0.000165036
0.00016047
0.000165065
0.000165057
0.000151211
0.000154184
0.000160479
0.000165067
0.000165067
0.000154191
0.000154541
0.000155806
0.000166027
0.000166018
0.000167889
0.00016788
0.000154543
0.000155809
0.000166037
0.000166016
0.0001679
0.000167878
0.000166037
0.000167913
0.0001679
0.000154539
0.000155805
0.000166048
0.000167911
0.000167912
0.000155812
0.000155907
0.000156458
0.000168265
0.000168257
0.000168986
0.000168979
0.00015591
0.000156462
0.000168277
0.000168254
0.000168999
0.000168974
0.000168276
0.000169013
0.000168997
0.000155905
0.000156456
0.000168289
0.00016901
0.000169011
0.000156463
0.000156448
0.000156711
0.000169132
0.000169125
0.000169358
0.000169352
0.000156452
0.000156715
0.000169145
0.00016912
0.000169371
0.000169345
0.000169142
0.000169384
0.000169368
0.000156446
0.000156707
0.000169157
0.000169381
0.000169383
0.000156715
0.000156658
0.000156706
0.000169377
0.00016937
0.000169347
0.000169339
0.000156662
0.00015671
0.00016939
0.000169364
0.000169359
0.000169334
0.000169387
0.000169373
0.000169358
0.000156654
0.000156704
0.000169401
0.00016937
0.000169371
0.000156712
0.000156609
0.000156618
0.00016933
0.000169322
0.000169336
0.000169329
0.000156613
0.000156622
0.000169343
0.000169317
0.000169349
0.000169323
0.000169341
0.000169362
0.000169347
0.000156607
0.000156615
0.000169355
0.00016936
0.000169361
0.000156623
0.000156585
0.000156785
0.000169368
0.000169362
0.000169402
0.000169395
0.00015659
0.000156791
0.000169381
0.000169356
0.000169414
0.000169388
0.000169379
0.000169428
0.000169411
0.000156582
0.000156782
0.000169393
0.000169424
0.000169425
0.00015679
0.000156721
0.000156636
0.000169401
0.000169394
0.000169353
0.000169346
0.000156725
0.000156637
0.000169413
0.000169387
0.000169365
0.00016934
0.00016941
0.000169379
0.000169363
0.000156717
0.000156629
0.000169423
0.000169375
0.000169377
0.000156636
0.000156548
0.00015673
0.000169348
0.000169341
0.000169383
0.000169376
0.00015655
0.00015674
0.00016936
0.000169335
0.000169394
0.00016937
0.000169359
0.000169408
0.000169393
0.000156542
0.000156733
0.000169373
0.000169407
0.000169408
0.000156743
0.000156683
0.000156671
0.000169389
0.000169382
0.000169362
0.000169354
0.000156692
0.000156668
0.000169401
0.000169376
0.000169374
0.000169348
0.000169399
0.000169388
0.000169372
0.000156686
0.000156661
0.000169413
0.000169384
0.000169384
0.000156668
0.000156577
0.000156734
0.00016936
0.000169352
0.000169375
0.000169369
0.000156574
0.000156747
0.000169371
0.000169346
0.000169388
0.000169363
0.00016937
0.000169401
0.000169385
0.000156566
0.000156738
0.000169383
0.000169398
0.000169399
0.000156746
0.000156684
0.000156641
0.000169375
0.000169368
0.000169369
0.000169362
0.000156694
0.00015664
0.000169388
0.000169363
0.00016938
0.000169354
0.000169385
0.000169394
0.000169378
0.000156686
0.000156633
0.000169399
0.000169392
0.000169394
0.000156642
0.000156554
0.000156765
0.000169369
0.000169365
0.00016937
0.000169362
0.000156558
0.000156768
0.00016938
0.000169355
0.000169382
0.000169356
0.00016938
0.000169396
0.00016938
0.00015655
0.000156759
0.000169394
0.000169391
0.000169393
0.000156768
0.000156689
0.000156654
0.000169369
0.000169361
0.000169373
0.000169368
0.000156683
0.000156678
0.000169382
0.000169355
0.000169382
0.000169358
0.000169379
0.000169399
0.000169383
0.000156674
0.000156675
0.000169393
0.000169398
0.000169398
0.000156678
0.000156625
0.000156664
0.000169373
0.000169367
0.000169369
0.000169361
0.000156645
0.000156659
0.000169382
0.000169357
0.000169382
0.000169355
0.000169382
0.000169395
0.000169379
0.000156642
0.000156646
0.000169397
0.000169391
0.000169392
0.000156657
0.000156574
0.000156749
0.000169371
0.000169365
0.000169369
0.000169362
0.000156573
0.000156737
0.000169382
0.000169359
0.000169381
0.000169354
0.000169383
0.000169394
0.000169378
0.000156564
0.00015672
0.000169396
0.00016939
0.000169391
0.00015673
0.000156655
0.000156726
0.000169367
0.000169361
0.000169375
0.000169368
0.000156636
0.000156747
0.00016938
0.000169354
0.000169384
0.00016936
0.000169378
0.000169402
0.000169385
0.000156619
0.000156743
0.000169391
0.000169399
0.000169399
0.000156751
0.000156676
0.000156643
0.000169373
0.000169363
0.000169369
0.000169366
0.000156682
0.000156701
0.000169383
0.000169355
0.00016938
0.000169358
0.000169378
0.000169401
0.000169384
0.000156676
0.000156693
0.000169393
0.000169397
0.000169396
0.000156687
0.000156606
0.000156664
0.000169372
0.000169367
0.000169369
0.000169363
0.000156664
0.000156644
0.000169382
0.000169358
0.000169381
0.000169357
0.000169388
0.000169393
0.000169374
0.000156656
0.000156637
0.000169401
0.000169389
0.000169388
0.00015665
0.000156575
0.00015673
0.000169369
0.000169366
0.000169369
0.000169362
0.000156598
0.000156669
0.00016938
0.000169358
0.000169382
0.000169356
0.000169374
0.000169398
0.000169386
0.000156592
0.000156659
0.000169389
0.000169397
0.000169398
0.000156692
0.00015663
0.000156743
0.000169369
0.000169364
0.000169371
0.000169366
0.000156576
0.00015676
0.000169382
0.000169358
0.000169381
0.000169355
0.000169385
0.000169399
0.000169382
0.000156571
0.000156698
0.000169397
0.000169394
0.000169395
0.00015675
0.000156674
0.000156712
0.00016937
0.000169364
0.000169374
0.000169365
0.000156665
0.000156714
0.000169381
0.000169355
0.000169385
0.000169357
0.00016938
0.000169397
0.000169383
0.0001566
0.000156698
0.000169393
0.000169393
0.000169396
0.000156717
0.000156671
0.000156633
0.000169373
0.000169365
0.000169369
0.000169369
0.00015666
0.000156747
0.000169383
0.000169356
0.00016938
0.000169358
0.000169387
0.000169402
0.000169378
0.000156599
0.000156714
0.000169401
0.000169393
0.000169391
0.000156656
0.00015658
0.00015671
0.00016937
0.000169363
0.000169378
0.000169369
0.000156683
0.000156697
0.000169384
0.000169355
0.000169386
0.000169362
0.000169377
0.000169404
0.000169388
0.000156609
0.000156745
0.00016939
0.000169402
0.0001694
0.000156766
0.000156623
0.000156632
0.000169375
0.000169371
0.000169367
0.000169361
0.000156662
0.00015665
0.000169386
0.000169363
0.000169379
0.000169353
0.000169383
0.000169395
0.000169383
0.000156691
0.000156623
0.000169395
0.000169391
0.000169397
0.000156693
0.00015656
0.00015672
0.000169374
0.000169363
0.000169371
0.000169367
0.000156562
0.000156765
0.000169385
0.000169358
0.000169383
0.000169358
0.000169389
0.0001694
0.000169376
0.000156566
0.000156726
0.000169401
0.000169394
0.00016939
0.000156643
0.000156616
0.000156736
0.000169369
0.000169365
0.000169371
0.000169364
0.000156669
0.000156719
0.00016938
0.000169356
0.000169383
0.000169358
0.000169377
0.000169405
0.000169388
0.000156625
0.000156724
0.000169393
0.000169393
0.000169397
0.000156745
0.000156683
0.000156642
0.000169371
0.000169364
0.00016937
0.000169364
0.000156677
0.000156643
0.000169382
0.000169358
0.00016938
0.000169355
0.000169383
0.000169398
0.000169383
0.000156674
0.000156631
0.000169392
0.000169391
0.000169399
0.000156741
0.0001566
0.000156671
0.000169371
0.000169365
0.000169371
0.000169363
0.000156594
0.000156678
0.000169381
0.000169356
0.000169381
0.000169358
0.000169387
0.000169399
0.000169379
0.000156567
0.000156717
0.0001694
0.000169393
0.000169394
0.00015666
0.000156583
0.000156733
0.000169372
0.000169364
0.000169373
0.000169365
0.000156587
0.000156747
0.000169382
0.000169357
0.000169382
0.000169357
0.00016938
0.000169401
0.00016938
0.00015662
0.000156735
0.000169396
0.000169393
0.000169394
0.00015667
0.000156636
0.000156737
0.000169372
0.000169365
0.000169372
0.000169363
0.000156654
0.000156738
0.000169383
0.000169359
0.000169382
0.000169357
0.00016938
0.000169399
0.00016938
0.000156669
0.000156714
0.000169399
0.000169393
0.000169395
0.000156719
0.000156673
0.000156696
0.000169373
0.000169365
0.00016937
0.000169363
0.000156677
0.000156695
0.000169383
0.000169358
0.000169384
0.000169357
0.00016938
0.000169396
0.000169379
0.000156669
0.000156646
0.000169392
0.000169392
0.000169394
0.000156748
0.000156657
0.00015664
0.000169372
0.000169364
0.000169371
0.000169363
0.000156659
0.000156639
0.000169385
0.000169359
0.000169381
0.000169354
0.00016938
0.000169393
0.000169378
0.000156617
0.000156644
0.000169394
0.000169389
0.00016939
0.000156716
0.000156595
0.000156669
0.000169373
0.000169365
0.00016937
0.000169362
0.000156578
0.000156696
0.000169385
0.000169357
0.00016938
0.000169354
0.00016938
0.000169395
0.000169379
0.000156557
0.000156723
0.000169393
0.00016939
0.00016939
0.000156671
0.000156578
0.000156711
0.000169373
0.000169364
0.000169369
0.000169362
0.000156597
0.000156759
0.000169382
0.000169355
0.000169381
0.000169355
0.000169381
0.000169396
0.000169378
0.000156619
0.000156739
0.000169392
0.000169391
0.00016939
0.00015664
0.000156614
0.000156694
0.000169372
0.000169364
0.000169369
0.000169362
0.000156679
0.000156713
0.000169383
0.000169357
0.00016938
0.000169353
0.000169382
0.000169394
0.000169376
0.000156679
0.000156653
0.000169393
0.000169388
0.000169389
0.000156659
0.000156594
0.000156749
0.000169371
0.000169365
0.00016937
0.000169361
0.000156669
0.000156656
0.000169382
0.000169358
0.000169381
0.000169352
0.00016938
0.000169393
0.000169378
0.000156621
0.000156651
0.000169393
0.000169387
0.000169389
0.000156713
0.000156651
0.00015672
0.000169372
0.000169366
0.000169368
0.000169359
0.00015662
0.000156655
0.000169383
0.000169356
0.000169379
0.000169353
0.000169381
0.000169391
0.000169377
0.000156567
0.000156701
0.000169393
0.000169387
0.000169388
0.000156733
0.000156671
0.000156637
0.000169375
0.000169366
0.000169364
0.000169358
0.000156581
0.000156678
0.000169386
0.000169358
0.000169375
0.000169351
0.000169382
0.00016939
0.000169374
0.000156604
0.000156726
0.000169394
0.000169386
0.000169386
0.000156714
0.000156587
0.000156681
0.000169374
0.000169366
0.000169365
0.000169359
0.000156588
0.000156714
0.000169385
0.000169359
0.000169376
0.000169352
0.000169382
0.000169391
0.000169375
0.000156629
0.000156737
0.000169393
0.000169388
0.000169387
0.00015671
0.000156588
0.000156747
0.000169374
0.000169367
0.000169368
0.000169361
0.000156615
0.000156744
0.000169385
0.00016936
0.000169379
0.000169353
0.000169383
0.000169393
0.000169377
0.000156651
0.000156729
0.000169395
0.000169387
0.000169388
0.000156735
0.000156659
0.000156727
0.000169378
0.000169372
0.000169372
0.000169365
0.000156651
0.000156743
0.00016939
0.000169365
0.000169383
0.000169357
0.000169387
0.000169397
0.000169381
0.000156653
0.000156735
0.000169399
0.000169392
0.000169392
0.000156735
0.000156676
0.000156675
0.000169387
0.00016938
0.000169384
0.000169378
0.000156671
0.000156732
0.000169399
0.000169373
0.000169396
0.000169372
0.000169397
0.00016941
0.000169393
0.000156658
0.000156733
0.000169407
0.000169406
0.000169407
0.000156703
0.000156627
0.000157296
0.000169366
0.00016936
0.000171146
0.000171143
0.000156667
0.000157314
0.000169379
0.000169353
0.000171158
0.000171137
0.000169375
0.000171169
0.000171155
0.000156671
0.000157304
0.000169389
0.000171165
0.000171168
0.000157301
0.000158286
0.000169276
0.000169273
0.000158295
0.000169288
0.000169268
0.000167531
0.000167527
0.00016754
0.000169286
0.000158299
0.000169299
4.78798e-05
6.02998e-06
3.12792e-05
3.12821e-05
6.00539e-07
5.04838e-06
5.07765e-06
1.7793e-05
5.49652e-07
2.79029e-06
1.8086e-05
9.91935e-07
2.32175e-06
1.77043e-06
1.92586e-06
1.16522e-06
1.34868e-05
1.01659e-06
1.52833e-05
1.10119e-05
1.32801e-05
1.11224e-06
1.41752e-05
9.51304e-07
1.60237e-05
1.72852e-05
1.6892e-05
1.68096e-05
1.69998e-05
1.69515e-05
1.67867e-05
1.66334e-05
6.84806e-07
4.6889e-06
8.59622e-06
1.16629e-05
6.6699e-07
5.92391e-06
8.22102e-06
1.11091e-05
1.34809e-05
4.69679e-07
8.90106e-06
7.37314e-07
3.98588e-06
4.97716e-07
9.00894e-06
9.71072e-07
1.50803e-06
1.52674e-06
2.30223e-06
1.70427e-06
1.74159e-06
1.31318e-06
1.84938e-05
1.29255e-06
2.0929e-05
1.73901e-05
1.95446e-05
1.2643e-06
1.95953e-05
1.30019e-06
2.20555e-05
1.70244e-05
1.69115e-05
1.67297e-05
1.74668e-05
1.74312e-05