/*--------------------------------*- C++ -*----------------------------------*\
| =========                 |                                                 |
| \\      /  F ield         | OpenFOAM: The Open Source CFD Toolbox           |
|  \\    /   O peration     | Version:  v2012                                 |
|   \\  /    A nd           | Website:  www.openfoam.com                      |
|    \\/     M anipulation  |                                                 |
\*---------------------------------------------------------------------------*/
FoamFile
{
    version     2.0;
    format      ascii;
    class       volScalarField;
    location    "200";
    object      p;
}
// * * * * * * * * * * * * * * * * * * * * * * * * * * * * * * * * * * * * * //

dimensions      [0 2 -2 0 0 0 0];


internalField   nonuniform List<scalar> 
171728
(
0.00353127
0.00353056
0.00353041
0.00353136
0.00349525
0.00349424
0.0034941
0.00349693
0.00345755
0.00345562
0.00345595
0.0034581
0.003413
0.00341132
0.00341143
0.00341385
0.00336455
0.00336296
0.00336303
0.00336562
0.00331612
0.00331464
0.00331464
0.00331721
0.00326819
0.00326691
0.0032668
0.00326939
0.00322089
0.0032197
0.00321971
0.00322222
0.00317467
0.00317358
0.0031736
0.00317613
0.00312941
0.00312844
0.00312845
0.00313101
0.00308505
0.00308418
0.00308416
0.00308676
0.00304144
0.00304066
0.00304069
0.00304329
0.00299834
0.00299769
0.00299764
0.00300023
0.00295567
0.00295505
0.00295508
0.00295741
0.00291329
0.00291285
0.00291276
0.00291529
0.00287124
0.00287096
0.00287068
0.00287317
0.00282952
0.0028291
0.00282908
0.00283143
0.00278814
0.00278784
0.00278783
0.00279027
0.00274711
0.00274683
0.0027469
0.00274908
0.00270646
0.00270598
0.00270601
0.00270838
0.00266608
0.00266588
0.00266583
0.00266796
0.002626
0.0026257
0.0026257
0.00262778
0.00258626
0.002586
0.00258603
0.00258812
0.00254678
0.0025466
0.00254656
0.00254857
0.00250757
0.00250737
0.00250739
0.00250954
0.00246861
0.00246843
0.00246846
0.00247066
0.00242989
0.00242976
0.00242973
0.00243201
0.0023914
0.00239129
0.00239131
0.00239371
0.00235312
0.00235303
0.00235304
0.00235533
0.00231507
0.00231503
0.00231501
0.0023174
0.00227722
0.00227719
0.00227718
0.00227948
0.00223953
0.00223957
0.00223957
0.00224177
0.00220205
0.00220214
0.00220213
0.00220432
0.00216479
0.00216491
0.00216496
0.00216701
0.00212775
0.00212788
0.00212788
0.00212995
0.00209089
0.00209103
0.00209103
0.00209307
0.00205438
0.00205451
0.00205453
0.00205649
0.00201828
0.00201837
0.00201837
0.00202033
0.00198272
0.00198277
0.00198277
0.00198471
0.00194768
0.0019477
0.0019477
0.00194963
0.00191324
0.00191329
0.00191326
0.00191517
0.00187877
0.00187873
0.0018787
0.0018806
0.00184323
0.00184317
0.00184317
0.00184518
0.00180673
0.00180677
0.00180678
0.00180896
0.00177021
0.00177034
0.00177035
0.00177256
0.00173503
0.00173498
0.00173499
0.00173706
0.00170115
0.00170079
0.00170079
0.00170271
0.00166829
0.00166764
0.00166764
0.00166942
0.00163568
0.00163483
0.00163483
0.00163653
0.00160235
0.00160162
0.00160162
0.00160334
0.00156816
0.00156771
0.00156771
0.00156956
0.00153331
0.00153309
0.00153309
0.00153504
0.00149802
0.00149792
0.00149792
0.00149993
0.00146246
0.00146241
0.00146241
0.00146446
0.00142678
0.00142674
0.00142674
0.00142881
0.00139105
0.00139102
0.00139102
0.00139308
0.00135532
0.00135529
0.00135529
0.00135736
0.00131958
0.00131955
0.00131955
0.00132162
0.00128384
0.00128381
0.00128381
0.00128588
0.0012481
0.00124807
0.00124807
0.00125014
0.00121236
0.00121233
0.00121233
0.00121439
0.00117662
0.00117659
0.00117659
0.00117865
0.00114088
0.00114085
0.00114085
0.00114291
0.00110514
0.00110511
0.00110511
0.00110717
0.0010694
0.00106937
0.00106937
0.00107143
0.00103366
0.00103364
0.00103364
0.0010357
0.000997931
0.000997902
0.000997901
0.000999965
0.000962199
0.000962168
0.000962168
0.000964232
0.000926468
0.00092644
0.00092644
0.000928503
0.000890735
0.000890707
0.000890707
0.00089277
0.000855001
0.000854971
0.000854972
0.000857036
0.000819265
0.000819236
0.000819237
0.000821299
0.000783528
0.000783499
0.000783499
0.000785564
0.000747789
0.000747758
0.000747758
0.000749824
0.000712049
0.00071202
0.000712019
0.000714082
0.000676309
0.000676282
0.000676282
0.000678346
0.000640569
0.000640539
0.00064054
0.000642606
0.00060483
0.0006048
0.0006048
0.000606862
0.00056909
0.000569063
0.000569061
0.000571124
0.00053335
0.000533321
0.000533321
0.000535386
0.000497611
0.00049758
0.000497583
0.000499647
0.000461873
0.000461844
0.000461844
0.000463906
0.000426135
0.000426107
0.000426106
0.000428168
0.000390397
0.000390368
0.000390368
0.00039243
0.000354658
0.000354628
0.000354628
0.000356693
0.000318921
0.000318891
0.000318891
0.000320956
0.000283183
0.000283155
0.000283155
0.000285216
0.000247445
0.000247417
0.000247418
0.000249475
0.000211707
0.00021168
0.000211679
0.000213734
0.000175967
0.000175941
0.000175939
0.00017799
0.000140225
0.000140199
0.000140198
0.000142239
0.000104474
0.000104453
0.000104454
0.000106477
6.87293e-05
6.87055e-05
6.87039e-05
7.0695e-05
3.38004e-05
3.32553e-05
3.32516e-05
3.50629e-05
5.68787e-06
6.15099e-06
6.15165e-06
4.85111e-06
0.00353622
0.00353408
0.00353428
0.00353639
0.00353415
0.0035341
0.00353985
0.00353991
0.00353984
0.00353987
0.00353422
0.00353404
0.00353624
0.00353414
0.00353407
0.00353619
0.00353137
0.00350161
0.0035304
0.00353058
0.0035033
0.00350334
0.00353152
0.00350166
0.00353042
0.00353043
0.00350333
0.00350334
0.00353041
0.0035035
0.00350336
0.00353141
0.00350162
0.00353039
0.00350332
0.00350334
0.00350161
0.00349695
0.00346356
0.00349404
0.00349416
0.00346564
0.00346576
0.00349699
0.00346348
0.00349406
0.00349407
0.00346573
0.0034657
0.00349404
0.00346561
0.00346564
0.00349696
0.00346358
0.00349398
0.00346567
0.00346569
0.00346355
0.00345811
0.00342013
0.00345583
0.00345578
0.00342315
0.0034232
0.00345801
0.00342004
0.0034558
0.00345578
0.00342321
0.00342319
0.00345578
0.00342292
0.00342314
0.00345814
0.00342015
0.00345577
0.00342332
0.00342317
0.00342012
0.00341387
0.00337209
0.0034115
0.00341155
0.0033753
0.00337541
0.00341382
0.0033721
0.00341151
0.00341148
0.00337533
0.00337534
0.00341147
0.00337507
0.00337529
0.00341386
0.00337211
0.00341152
0.00337519
0.00337529
0.00337209
0.00336561
0.00332357
0.0033631
0.00336306
0.00332672
0.00332665
0.0033656
0.00332357
0.00336317
0.00336308
0.00332672
0.00332673
0.00336308
0.00332671
0.00332676
0.00336562
0.00332363
0.0033631
0.00332665
0.00332676
0.0033236
0.00331719
0.00327572
0.00331471
0.00331474
0.00327886
0.00327882
0.0033172
0.00327575
0.00331474
0.00331471
0.00327881
0.00327882
0.00331472
0.00327883
0.00327884
0.00331723
0.00327569
0.00331471
0.00327878
0.00327882
0.0032757
0.00326941
0.00322843
0.00326692
0.003267
0.00323141
0.0032315
0.00326944
0.00322842
0.00326687
0.00326691
0.00323138
0.00323142
0.00326693
0.00323141
0.00323143
0.00326939
0.00322843
0.00326693
0.00323139
0.00323142
0.00322839
0.00322224
0.00318215
0.00321972
0.00321981
0.00318503
0.00318505
0.00322224
0.00318212
0.00321969
0.00321971
0.00318503
0.00318505
0.00321974
0.00318505
0.00318506
0.00322224
0.00318214
0.00321974
0.00318504
0.00318507
0.00318216
0.00317612
0.00313687
0.0031736
0.00317364
0.00313963
0.0031396
0.0031761
0.00313682
0.00317359
0.0031736
0.00313964
0.00313966
0.0031736
0.00313962
0.00313965
0.00317611
0.00313687
0.0031736
0.00313966
0.00313968
0.00313691
0.00313097
0.00309248
0.00312846
0.00312843
0.00309518
0.00309518
0.00313094
0.0030925
0.00312846
0.00312844
0.00309515
0.00309519
0.00312848
0.00309518
0.00309519
0.00313097
0.00309249
0.00312847
0.0030952
0.0030952
0.00309252
0.0030867
0.00304886
0.00308419
0.0030842
0.00305149
0.00305147
0.00308671
0.00304886
0.00308419
0.00308416
0.0030515
0.00305151
0.00308424
0.00305149
0.00305147
0.00308668
0.00304889
0.00308423
0.0030515
0.00305149
0.00304897
0.00304318
0.00300578
0.00304069
0.00304062
0.00300837
0.00300835
0.00304317
0.0030058
0.00304065
0.00304064
0.00300837
0.00300843
0.00304076
0.00300834
0.00300824
0.00304321
0.00300578
0.00304074
0.0030084
0.00300824
0.00300576
0.00300018
0.00296312
0.00299767
0.00299767
0.00296572
0.00296565
0.0030002
0.00296303
0.00299767
0.00299763
0.00296573
0.00296573
0.00299764
0.00296567
0.00296564
0.00300015
0.00296311
0.00299764
0.00296567
0.00296564
0.002963
0.00295755
0.00292074
0.00295512
0.00295507
0.00292338
0.00292337
0.00295745
0.00292082
0.0029551
0.00295511
0.00292337
0.00292327
0.00295488
0.00292338
0.00292326
0.00295758
0.00292072
0.00295485
0.00292329
0.00292326
0.00292078
0.00291523
0.00287868
0.00291271
0.00291287
0.00288121
0.00288108
0.00291527
0.00287871
0.00291268
0.00291277
0.00288119
0.00288131
0.00291273
0.00288106
0.00288119
0.00291526
0.00287864
0.00291275
0.00288134
0.00288118
0.00287861
0.00287323
0.00283689
0.0028707
0.00287091
0.00283947
0.00283937
0.00287338
0.00283686
0.00287071
0.00287071
0.00283946
0.00283963
0.00287065
0.00283933
0.00283961
0.00287316
0.00283693
0.00287066
0.00283966
0.0028396
0.00283686
0.0028315
0.00279539
0.00282903
0.00282907
0.00279803
0.00279807
0.0028315
0.00279555
0.00282902
0.0028291
0.00279805
0.00279819
0.00282904
0.0027981
0.0027982
0.00283149
0.00279549
0.00282903
0.00279819
0.00279823
0.00279561
0.00279005
0.0027543
0.00278764
0.00278782
0.00275709
0.00275689
0.00279022
0.00275449
0.00278763
0.00278781
0.0027571
0.00275706
0.0027879
0.00275691
0.00275697
0.00279015
0.00275449
0.0027879
0.00275704
0.00275698
0.00275435
0.00274904
0.00271373
0.00274682
0.00274681
0.00271624
0.00271621
0.00274922
0.00271341
0.00274681
0.0027469
0.00271623
0.00271611
0.00274678
0.00271621
0.00271619
0.00274921
0.00271353
0.00274679
0.00271611
0.00271619
0.00271359
0.00270854
0.00267306
0.00270625
0.00270596
0.00267584
0.00267595
0.00270823
0.00267311
0.00270625
0.00270601
0.00267583
0.00267592
0.00270611
0.00267596
0.00267587
0.0027083
0.00267304
0.00270611
0.00267593
0.00267588
0.00267309
0.00266789
0.00263297
0.00266576
0.00266587
0.00263568
0.00263568
0.00266802
0.00263288
0.00266574
0.00266581
0.00263567
0.00263562
0.00266581
0.00263568
0.00263566
0.00266793
0.00263294
0.0026658
0.00263563
0.00263566
0.00263291
0.00262786
0.00259314
0.00262573
0.00262571
0.00259593
0.00259588
0.00262778
0.00259312
0.00262574
0.0026257
0.00259593
0.00259593
0.00262567
0.00259589
0.00259595
0.00262783
0.00259314
0.00262567
0.00259593
0.00259595
0.00259312
0.00258809
0.00255362
0.00258602
0.002586
0.00255641
0.00255644
0.00258806
0.00255366
0.00258602
0.00258602
0.00255641
0.00255642
0.00258606
0.00255643
0.0025564
0.0025881
0.00255362
0.00258606
0.00255642
0.0025564
0.0025536
0.00254861
0.00251447
0.00254658
0.0025466
0.00251716
0.00251715
0.00254866
0.00251445
0.00254658
0.00254657
0.00251715
0.00251717
0.00254656
0.00251715
0.00251718
0.00254861
0.00251449
0.00254656
0.00251717
0.00251717
0.00251451
0.00250949
0.00247562
0.00250738
0.00250738
0.00247816
0.00247816
0.00250946
0.00247566
0.00250737
0.00250739
0.00247816
0.00247815
0.00250739
0.00247816
0.00247816
0.00250953
0.0024756
0.00250739
0.00247815
0.00247816
0.0024756
0.00247066
0.00243697
0.00246844
0.00246843
0.00243939
0.00243939
0.00247069
0.00243694
0.00246844
0.00246846
0.0024394
0.00243939
0.00246846
0.00243939
0.00243938
0.00247066
0.00243702
0.00246845
0.00243939
0.00243937
0.00243695
0.00243204
0.00239857
0.00242975
0.00242976
0.00240089
0.00240089
0.00243202
0.00239859
0.00242975
0.00242973
0.00240088
0.00240089
0.00242973
0.00240089
0.00240091
0.00243205
0.00239854
0.00242973
0.00240089
0.00240091
0.00239863
0.00239364
0.00236032
0.00239129
0.00239129
0.00236259
0.00236258
0.00239365
0.00236031
0.00239128
0.0023913
0.00236259
0.00236259
0.0023913
0.00236257
0.00236256
0.00239363
0.00236035
0.0023913
0.00236258
0.00236256
0.00236026
0.0023554
0.00232226
0.00235304
0.00235304
0.00232449
0.0023245
0.0023554
0.00232227
0.00235305
0.00235304
0.00232449
0.0023245
0.00235304
0.0023245
0.00232451
0.00235542
0.00232225
0.00235304
0.00232449
0.00232452
0.00232232
0.00231735
0.00228443
0.00231501
0.00231502
0.00228665
0.00228664
0.00231736
0.00228443
0.00231501
0.00231502
0.00228665
0.00228662
0.002315
0.00228664
0.00228664
0.00231735
0.0022844
0.00231501
0.00228662
0.00228661
0.00228438
0.00227952
0.00224671
0.00227721
0.0022772
0.00224895
0.00224896
0.00227952
0.0022467
0.00227721
0.00227719
0.00224896
0.00224899
0.0022772
0.00224896
0.00224892
0.0022795
0.00224671
0.00227718
0.00224897
0.00224896
0.00224666
0.00224181
0.00220919
0.00223958
0.00223957
0.00221149
0.00221147
0.00224181
0.00220918
0.00223957
0.00223958
0.00221149
0.00221144
0.00223954
0.00221148
0.0022115
0.00224181
0.00220918
0.00223957
0.00221146
0.00221148
0.0022092
0.0022043
0.00217188
0.00220213
0.00220213
0.00217419
0.00217421
0.0022043
0.00217189
0.00220214
0.00220213
0.00217419
0.00217424
0.00220216
0.0021742
0.0021742
0.0022043
0.00217191
0.00220213
0.00217423
0.0021742
0.00217187
0.00216701
0.0021348
0.00216492
0.00216492
0.00213713
0.00213712
0.00216702
0.00213479
0.00216491
0.00216496
0.00213714
0.00213713
0.00216492
0.00213712
0.00213716
0.00216705
0.00213479
0.00216492
0.00213714
0.00213712
0.0021348
0.00212995
0.00209788
0.00212789
0.00212788
0.00210021
0.00210023
0.00212994
0.0020979
0.0021279
0.00212788
0.00210022
0.00210021
0.00212793
0.00210022
0.00210023
0.00212993
0.00209789
0.00212787
0.0021002
0.00210023
0.00209791
0.00209305
0.0020613
0.00209102
0.00209104
0.0020636
0.00206361
0.00209307
0.0020613
0.00209103
0.00209102
0.00206361
0.0020636
0.00209102
0.0020636
0.00206358
0.00209306
0.0020613
0.00209104
0.00206362
0.00206361
0.00206129
0.0020565
0.00202509
0.00205451
0.00205452
0.00202737
0.00202737
0.0020565
0.00202508
0.00205452
0.00205451
0.00202737
0.00202737
0.00205449
0.00202736
0.00202734
0.00205651
0.00202508
0.00205452
0.00202737
0.00202736
0.00202507
0.00202034
0.00198937
0.00201838
0.00201837
0.00199162
0.00199162
0.00202033
0.00198937
0.00201837
0.00201838
0.0019916
0.00199161
0.00201836
0.00199162
0.00199163
0.00202034
0.00198937
0.00201837
0.00199161
0.00199162
0.00198939
0.00198468
0.00195422
0.00198277
0.00198277
0.00195641
0.00195641
0.00198469
0.00195422
0.00198276
0.00198277
0.00195642
0.0019564
0.00198278
0.00195641
0.00195643
0.00198469
0.00195421
0.00198277
0.00195642
0.00195642
0.00195424
0.00194962
0.00191972
0.0019477
0.0019477
0.00192184
0.00192183
0.00194961
0.00191972
0.0019477
0.00194769
0.00192184
0.00192182
0.00194771
0.00192184
0.00192185
0.0019496
0.0019197
0.0019477
0.00192182
0.00192185
0.00191972
0.00191517
0.00188524
0.00191329
0.00191328
0.00188745
0.00188744
0.00191517
0.00188525
0.00191329
0.00191327
0.00188745
0.00188744
0.0019133
0.00188746
0.00188745
0.00191515
0.00188524
0.0019133
0.00188742
0.00188745
0.00188524
0.0018806
0.00184995
0.00187872
0.00187872
0.00185216
0.00185216
0.0018806
0.00184996
0.00187872
0.00187872
0.00185216
0.00185216
0.00187872
0.00185216
0.00185215
0.0018806
0.00184996
0.00187872
0.00185215
0.00185215
0.00184995
0.00184518
0.00181382
0.00184317
0.00184317
0.00181592
0.00181592
0.00184519
0.00181382
0.00184317
0.00184318
0.00181592
0.00181593
0.00184317
0.00181592
0.00181592
0.00184519
0.00181383
0.00184316
0.00181593
0.00181592
0.00181382
0.00180896
0.00177738
0.00180678
0.00180678
0.00177938
0.00177938
0.00180896
0.00177738
0.00180677
0.00180678
0.00177938
0.00177939
0.00180677
0.00177938
0.00177938
0.00180896
0.00177738
0.00180678
0.00177939
0.00177938
0.00177738
0.00177256
0.00174172
0.00177035
0.00177034
0.0017437
0.0017437
0.00177256
0.00174172
0.00177034
0.00177035
0.0017437
0.00174371
0.00177034
0.0017437
0.0017437
0.00177257
0.00174172
0.00177035
0.00174371
0.0017437
0.00174172
0.00173706
0.00170722
0.00173499
0.00173499
0.00170923
0.00170923
0.00173706
0.00170722
0.00173499
0.00173499
0.00170923
0.00170923
0.00173499
0.00170923
0.00170923
0.00173707
0.00170722
0.00173499
0.00170924
0.00170923
0.00170722
0.00170271
0.00167382
0.00170079
0.00170079
0.00167585
0.00167585
0.00170271
0.00167382
0.00170079
0.00170079
0.00167585
0.00167585
0.00170078
0.00167585
0.00167585
0.00170271
0.00167382
0.00170078
0.00167585
0.00167585
0.00167382
0.00166943
0.00164094
0.00166764
0.00166764
0.00164305
0.00164305
0.00166943
0.00164094
0.00166764
0.00166764
0.00164305
0.00164305
0.00166764
0.00164305
0.00164305
0.00166943
0.00164094
0.00166764
0.00164305
0.00164305
0.00164094
0.00163653
0.00160783
0.00163483
0.00163483
0.00160998
0.00160998
0.00163653
0.00160783
0.00163483
0.00163483
0.00160998
0.00160998
0.00163483
0.00160998
0.00160998
0.00163653
0.00160783
0.00163483
0.00160998
0.00160998
0.00160783
0.00160334
0.00157415
0.00160162
0.00160162
0.00157626
0.00157626
0.00160334
0.00157415
0.00160162
0.00160162
0.00157626
0.00157626
0.00160162
0.00157626
0.00157626
0.00160334
0.00157415
0.00160162
0.00157626
0.00157626
0.00157415
0.00156956
0.00153973
0.00156771
0.00156771
0.00154181
0.00154181
0.00156956
0.00153973
0.00156771
0.00156771
0.00154181
0.00154181
0.00156771
0.00154181
0.00154181
0.00156956
0.00153973
0.00156771
0.00154181
0.00154181
0.00153973
0.00153504
0.00150469
0.00153309
0.00153309
0.00150675
0.00150675
0.00153504
0.00150469
0.00153309
0.00153309
0.00150675
0.00150675
0.00153309
0.00150675
0.00150675
0.00153504
0.00150469
0.00153309
0.00150675
0.00150675
0.00150469
0.00149993
0.00146925
0.00149792
0.00149792
0.00147131
0.00147131
0.00149993
0.00146925
0.00149792
0.00149792
0.00147131
0.00147131
0.00149792
0.00147131
0.00147131
0.00149993
0.00146925
0.00149792
0.00147131
0.00147131
0.00146925
0.00146446
0.00143362
0.00146241
0.00146241
0.00143567
0.00143567
0.00146446
0.00143362
0.00146241
0.00146241
0.00143567
0.00143567
0.00146241
0.00143567
0.00143567
0.00146446
0.00143362
0.00146241
0.00143567
0.00143567
0.00143362
0.00142881
0.0013979
0.00142674
0.00142675
0.00139995
0.00139995
0.00142881
0.0013979
0.00142674
0.00142674
0.00139995
0.00139995
0.00142675
0.00139995
0.00139995
0.00142881
0.0013979
0.00142674
0.00139995
0.00139995
0.0013979
0.00139308
0.00136217
0.00139102
0.00139102
0.00136423
0.00136423
0.00139308
0.00136217
0.00139102
0.00139102
0.00136423
0.00136423
0.00139102
0.00136423
0.00136423
0.00139308
0.00136217
0.00139102
0.00136423
0.00136423
0.00136217
0.00135736
0.00132643
0.00135529
0.00135529
0.00132849
0.00132849
0.00135736
0.00132643
0.00135529
0.00135529
0.00132849
0.00132849
0.00135529
0.00132849
0.00132849
0.00135736
0.00132643
0.00135529
0.00132849
0.00132849
0.00132643
0.00132162
0.00129069
0.00131955
0.00131955
0.00129275
0.00129275
0.00132162
0.00129069
0.00131955
0.00131955
0.00129275
0.00129275
0.00131955
0.00129275
0.00129275
0.00132162
0.00129069
0.00131955
0.00129275
0.00129275
0.00129069
0.00128588
0.00125496
0.00128381
0.00128381
0.00125701
0.00125701
0.00128588
0.00125496
0.00128381
0.00128381
0.00125701
0.00125701
0.00128381
0.00125701
0.00125701
0.00128588
0.00125495
0.00128381
0.00125701
0.00125701
0.00125495
0.00125014
0.00121921
0.00124807
0.00124807
0.00122126
0.00122126
0.00125014
0.00121921
0.00124807
0.00124807
0.00122126
0.00122126
0.00124807
0.00122126
0.00122126
0.00125014
0.00121921
0.00124807
0.00122126
0.00122126
0.00121921
0.00121439
0.00118347
0.00121233
0.00121233
0.00118552
0.00118552
0.00121439
0.00118347
0.00121233
0.00121233
0.00118552
0.00118552
0.00121233
0.00118552
0.00118552
0.00121439
0.00118347
0.00121233
0.00118552
0.00118552
0.00118347
0.00117865
0.00114773
0.00117659
0.00117659
0.00114978
0.00114978
0.00117865
0.00114773
0.00117659
0.00117659
0.00114978
0.00114978
0.00117659
0.00114978
0.00114978
0.00117865
0.00114773
0.00117659
0.00114978
0.00114978
0.00114773
0.00114291
0.00111199
0.00114085
0.00114085
0.00111404
0.00111404
0.00114291
0.00111199
0.00114085
0.00114085
0.00111404
0.00111404
0.00114085
0.00111404
0.00111404
0.00114291
0.00111199
0.00114085
0.00111404
0.00111404
0.00111199
0.00110717
0.00107625
0.00110511
0.00110511
0.0010783
0.0010783
0.00110717
0.00107625
0.00110511
0.00110511
0.0010783
0.0010783
0.00110511
0.0010783
0.0010783
0.00110717
0.00107625
0.00110511
0.0010783
0.0010783
0.00107625
0.00107143
0.00104051
0.00106937
0.00106937
0.00104257
0.00104257
0.00107143
0.00104051
0.00106937
0.00106937
0.00104257
0.00104257
0.00106937
0.00104257
0.00104257
0.00107143
0.00104051
0.00106937
0.00104257
0.00104257
0.00104051
0.0010357
0.00100478
0.00103364
0.00103364
0.00100683
0.00100683
0.0010357
0.00100478
0.00103364
0.00103364
0.00100683
0.00100683
0.00103364
0.00100683
0.00100683
0.0010357
0.00100478
0.00103364
0.00100683
0.00100683
0.00100478
0.000999964
0.000969049
0.000997901
0.000997901
0.000971104
0.000971103
0.000999964
0.000969048
0.000997902
0.000997902
0.000971103
0.000971102
0.000997902
0.000971103
0.000971103
0.000999965
0.000969048
0.000997901
0.000971103
0.000971103
0.000969048
0.000964233
0.000933319
0.000962169
0.000962168
0.000935373
0.000935373
0.000964232
0.000933319
0.000962169
0.000962168
0.000935372
0.000935372
0.000962168
0.000935374
0.000935374
0.000964232
0.000933318
0.000962168
0.000935374
0.000935374
0.000933319
0.000928504
0.000897584
0.000926439
0.000926439
0.000899639
0.00089964
0.000928503
0.000897586
0.000926438
0.000926438
0.000899639
0.00089964
0.00092644
0.000899638
0.000899637
0.000928502
0.000897585
0.00092644
0.000899638
0.000899637
0.000897584
0.00089277
0.00086185
0.000890706
0.000890707
0.000863905
0.000863905
0.000892771
0.000861851
0.000890705
0.000890706
0.000863906
0.000863906
0.000890707
0.000863905
0.000863906
0.000892771
0.000861851
0.000890706
0.000863905
0.000863906
0.000861851
0.000857035
0.000826114
0.000854972
0.000854973
0.000828169
0.000828169
0.000857036
0.000826114
0.000854972
0.000854973
0.00082817
0.000828169
0.000854971
0.000828171
0.00082817
0.000857037
0.000826114
0.000854971
0.00082817
0.00082817
0.000826114
0.000821298
0.000790379
0.000819236
0.000819236
0.000792433
0.000792432
0.000821298
0.000790378
0.000819236
0.000819237
0.000792433
0.000792431
0.000819236
0.000792433
0.000792433
0.0008213
0.000790377
0.000819236
0.000792431
0.000792433
0.000790379
0.000785562
0.000754641
0.000783498
0.000783498
0.000756695
0.000756695
0.000785562
0.000754639
0.000783498
0.000783497
0.000756695
0.000756694
0.000783499
0.000756694
0.000756693
0.000785563
0.000754638
0.000783499
0.000756693
0.000756693
0.000754639
0.000749825
0.0007189
0.00074776
0.000747758
0.000720956
0.000720957
0.000749821
0.000718903
0.00074776
0.000747758
0.000720955
0.000720957
0.000747759
0.000720957
0.000720956
0.000749822
0.000718901
0.000747759
0.000720957
0.000720956
0.000718899
0.000714085
0.000683161
0.00071202
0.000712021
0.000685216
0.000685215
0.000714085
0.000683161
0.000712021
0.000712021
0.000685215
0.000685215
0.000712019
0.000685216
0.000685217
0.000714084
0.000683162
0.000712019
0.000685216
0.000685217
0.000683162
0.000678347
0.000647418
0.000676283
0.000676282
0.000649473
0.000649474
0.000678346
0.000647418
0.000676283
0.000676283
0.000649473
0.000649473
0.000676283
0.000649473
0.000649473
0.000678347
0.000647418
0.000676282
0.000649474
0.000649474
0.00064742
0.000642603
0.00061168
0.00064054
0.00064054
0.000613735
0.000613735
0.000642602
0.000611682
0.00064054
0.00064054
0.000613735
0.000613735
0.000640541
0.000613737
0.000613735
0.000642603
0.000611681
0.000640542
0.000613735
0.000613733
0.000611678
0.000606863
0.000575942
0.0006048
0.0006048
0.000577996
0.000577995
0.000606864
0.000575942
0.000604799
0.0006048
0.000577995
0.000577995
0.000604799
0.000577996
0.000577997
0.000606864
0.000575941
0.000604798
0.000577996
0.000577997
0.000575941
0.000571126
0.000540201
0.000569061
0.000569061
0.000542256
0.000542256
0.000571126
0.000540201
0.00056906
0.00056906
0.000542256
0.000542256
0.000569062
0.000542254
0.000542255
0.000571126
0.0005402
0.00056906
0.000542256
0.000542257
0.000540202
0.000535385
0.000504461
0.000533322
0.000533321
0.000506517
0.000506517
0.000535385
0.000504461
0.000533321
0.00053332
0.000506517
0.000506518
0.000533322
0.000506516
0.000506516
0.000535384
0.000504462
0.000533322
0.000506518
0.000506517
0.000504462
0.000499645
0.000468723
0.000497582
0.000497582
0.000470779
0.000470779
0.000499644
0.000468724
0.000497583
0.000497583
0.000470777
0.000470777
0.000497582
0.00047078
0.000470779
0.000499645
0.000468723
0.000497585
0.000470777
0.000470775
0.000468722
0.000463906
0.000432985
0.000461845
0.000461845
0.000435039
0.000435039
0.000463906
0.000432986
0.000461843
0.000461844
0.00043504
0.00043504
0.000461844
0.00043504
0.00043504
0.000463906
0.000432986
0.000461842
0.00043504
0.00043504
0.000432984
0.000428168
0.000397249
0.000426106
0.000426106
0.000399302
0.000399301
0.000428169
0.000397248
0.000426104
0.000426105
0.000399303
0.000399302
0.000426106
0.0003993
0.000399301
0.00042817
0.000397247
0.000426105
0.000399299
0.000399302
0.000397247
0.000392432
0.000361508
0.000390367
0.000390367
0.000363563
0.000363563
0.000392431
0.000361508
0.000390369
0.000390369
0.000363561
0.000363562
0.000390367
0.000363562
0.000363564
0.000392432
0.000361507
0.000390368
0.000363561
0.000363563
0.00036151
0.000356693
0.00032577
0.000354631
0.00035463
0.000327824
0.000327824
0.000356691
0.000325771
0.000354631
0.00035463
0.000327823
0.000327824
0.000354629
0.000327826
0.000327827
0.000356691
0.000325771
0.00035463
0.000327826
0.000327825
0.000325773
0.000320953
0.000290032
0.000318892
0.000318892
0.000292085
0.000292087
0.000320952
0.000290034
0.000318891
0.000318891
0.000292085
0.000292087
0.000318894
0.000292088
0.000292086
0.000320952
0.000290035
0.000318892
0.000292089
0.000292087
0.000290034
0.000285214
0.000254295
0.000283153
0.000283153
0.000256349
0.00025635
0.000285214
0.000254298
0.000283153
0.000283154
0.000256349
0.000256348
0.000283156
0.00025635
0.000256348
0.000285216
0.000254296
0.000283155
0.000256349
0.000256349
0.000254295
0.000249473
0.00021856
0.000247415
0.000247417
0.000220612
0.00022061
0.000249476
0.00021856
0.000247415
0.000247416
0.000220612
0.00022061
0.000247416
0.00022061
0.000220611
0.000249476
0.000218557
0.000247417
0.000220609
0.00022061
0.000218558
0.000213734
0.000182822
0.000211679
0.00021168
0.00018487
0.000184869
0.000213736
0.000182821
0.000211679
0.000211678
0.00018487
0.00018487
0.000211679
0.000184868
0.000184869
0.000213734
0.000182819
0.000211679
0.000184868
0.000184869
0.00018282
0.000177992
0.000147082
0.000175942
0.000175941
0.000149127
0.000149127
0.000177991
0.000147082
0.000175942
0.00017594
0.000149126
0.000149127
0.00017594
0.000149127
0.000149127
0.000177989
0.000147081
0.00017594
0.000149128
0.000149127
0.000147082
0.00014224
0.000111342
0.0001402
0.000140199
0.000113382
0.000113382
0.000142239
0.000111342
0.000140199
0.000140198
0.000113382
0.000113382
0.000140199
0.000113382
0.000113382
0.000142238
0.000111342
0.000140198
0.000113383
0.000113383
0.000111342
0.000106476
7.55977e-05
0.000104454
0.000104454
7.76318e-05
7.7631e-05
0.000106476
7.55981e-05
0.000104453
0.000104453
7.76313e-05
7.76307e-05
0.000104453
7.76316e-05
7.7631e-05
0.000106476
7.55963e-05
0.000104454
7.76301e-05
7.76306e-05
7.55965e-05
7.06962e-05
3.99232e-05
6.8706e-05
6.87054e-05
4.19629e-05
4.19635e-05
7.06962e-05
3.99239e-05
6.87051e-05
6.87042e-05
4.19613e-05
4.19604e-05
6.87046e-05
4.19624e-05
4.19603e-05
7.06959e-05
3.99201e-05
6.87042e-05
4.19602e-05
4.19592e-05
3.99201e-05
3.50666e-05
7.94091e-06
3.32561e-05
3.32561e-05
1.07745e-05
1.07742e-05
3.5067e-05
7.94114e-06
3.32548e-05
3.32523e-05
1.07748e-05
1.07693e-05
3.3253e-05
1.07742e-05
1.07682e-05
3.50634e-05
7.93813e-06
3.32513e-05
1.07733e-05
1.07737e-05
7.93753e-06
4.85257e-06
6.15185e-06
6.15081e-06
4.85364e-06
6.14985e-06
6.14754e-06
5.68765e-06
5.68665e-06
5.68657e-06
6.1483e-06
4.85175e-06
6.15084e-06
0.00354331
0.00354619
0.00354495
0.00354495
0.00357072
0.0035466
0.00357543
0.00354642
0.00357061
0.00354659
0.00354636
0.00357523
0.00355701
0.00357832
0.00357851
0.00351503
0.00352913
0.00353282
0.00350745
0.00350636
0.00351067
0.00351506
0.003529
0.00353288
0.00350737
0.00353133
0.00353126
0.00353128
0.00350425
0.0035042
0.00350423
0.00350431
0.00351478
0.00352735
0.00353185
0.00352232
0.00353416
0.00351217
0.00352254
0.00350552
0.0035109
0.00351474
0.0035318
0.00352692
0.00352227
0.00353404
0.0035225
0.00351197
0.00353267
0.00353286
0.00351956
0.00351185
0.00351182
0.00348773
0.00350181
0.00350148
0.00348577
0.00349896
0.00348481
0.00348779
0.00350172
0.00350154
0.00348569
0.00349518
0.00349525
0.00349531
0.00346753
0.00346746
0.00346753
0.00346757
0.00348539
0.00350042
0.00349397
0.00348472
0.0034988
0.00348624
0.00348471
0.00349894
0.00348471
0.00348534
0.00349397
0.00350038
0.0034847
0.00349882
0.0034847
0.00348608
0.00350209
0.0035021
0.00348325
0.0034864
0.00348635
0.00344532
0.00346015
0.00346093
0.00344408
0.00345894
0.00344309
0.00344543
0.00346004
0.00346088
0.00344409
0.00345749
0.00345756
0.0034576
0.00342475
0.00342471
0.00342478
0.00342479
0.00344404
0.00345962
0.00345567
0.00344544
0.00345866
0.00344437
0.00344533
0.00345897
0.00344333
0.0034441
0.00345577
0.00345991
0.00344534
0.00345877
0.00344539
0.00344464
0.00346036
0.00346037
0.00344266
0.00344439
0.00344443
0.00339883
0.00341534
0.00341661
0.00339728
0.00341442
0.00339684
0.00339873
0.00341527
0.00341677
0.00339732
0.003413
0.00341302
0.00341305
0.00337674
0.00337677
0.00337678
0.00337679
0.0033977
0.00341499
0.00341133
0.00339951
0.00341449
0.00339764
0.00339948
0.00341475
0.00339676
0.00339774
0.00341144
0.00341518
0.00339973
0.00341462
0.00339956
0.00339809
0.00341537
0.00341541
0.00339636
0.00339742
0.00339742
0.00334956
0.00336667
0.003368
0.00334839
0.0033664
0.0033479
0.00334962
0.00336663
0.00336796
0.00334847
0.00336457
0.00336458
0.00336459
0.00332817
0.00332816
0.0033282
0.00332819
0.00334906
0.00336651
0.00336308
0.00335087
0.00336638
0.0033491
0.00335096
0.00336634
0.00334821
0.00334908
0.00336309
0.00336683
0.00335109
0.00336639
0.00335097
0.00334897
0.00336674
0.00336676
0.00334777
0.00334852
0.00334851
0.00330077
0.00331801
0.003319
0.00329996
0.0033177
0.00330001
0.00330075
0.00331787
0.00331897
0.00329996
0.00331612
0.00331614
0.00331614
0.00328014
0.00328014
0.00328013
0.00328013
0.00330071
0.00331785
0.00331481
0.00330271
0.00331786