/*--------------------------------*- C++ -*----------------------------------*\
| =========                 |                                                 |
| \\      /  F ield         | OpenFOAM: The Open Source CFD Toolbox           |
|  \\    /   O peration     | Version:  v2012                                 |
|   \\  /    A nd           | Website:  www.openfoam.com                      |
|    \\/     M anipulation  |                                                 |
\*---------------------------------------------------------------------------*/
FoamFile
{
    version     2.0;
    format      ascii;
    class       volScalarField;
    location    "37500";
    object      p;
}
// * * * * * * * * * * * * * * * * * * * * * * * * * * * * * * * * * * * * * //

dimensions      [0 2 -2 0 0 0 0];


internalField   nonuniform List<scalar> 
171728
(
1.27992e-07
1.27926e-07
1.27926e-07
1.28073e-07
1.25081e-07
1.25004e-07
1.25004e-07
1.25135e-07
1.22922e-07
1.22896e-07
1.22896e-07
1.23005e-07
1.21093e-07
1.21086e-07
1.21086e-07
1.21181e-07
1.19438e-07
1.19437e-07
1.19437e-07
1.19527e-07
1.17885e-07
1.17887e-07
1.17887e-07
1.17972e-07
1.16401e-07
1.16403e-07
1.16403e-07
1.16485e-07
1.14963e-07
1.14965e-07
1.14965e-07
1.15045e-07
1.13559e-07
1.13561e-07
1.13561e-07
1.13639e-07
1.1218e-07
1.12181e-07
1.12181e-07
1.12258e-07
1.1082e-07
1.10821e-07
1.10821e-07
1.10897e-07
1.09477e-07
1.09477e-07
1.09477e-07
1.09553e-07
1.08148e-07
1.08148e-07
1.08148e-07
1.08223e-07
1.06829e-07
1.06829e-07
1.06829e-07
1.06903e-07
1.05516e-07
1.05515e-07
1.05515e-07
1.0559e-07
1.04204e-07
1.04204e-07
1.04204e-07
1.04278e-07
1.02893e-07
1.02893e-07
1.02893e-07
1.02967e-07
1.01582e-07
1.01582e-07
1.01582e-07
1.01656e-07
1.00271e-07
1.00271e-07
1.00271e-07
1.00345e-07
9.89608e-08
9.89605e-08
9.89605e-08
9.90346e-08
9.765e-08
9.76498e-08
9.76498e-08
9.77239e-08
9.63393e-08
9.63391e-08
9.63391e-08
9.64132e-08
9.50286e-08
9.50284e-08
9.50284e-08
9.51025e-08
9.37179e-08
9.37176e-08
9.37176e-08
9.37917e-08
9.24071e-08
9.24069e-08
9.24069e-08
9.2481e-08
9.10963e-08
9.10961e-08
9.10961e-08
9.11702e-08
8.97856e-08
8.97854e-08
8.97853e-08
8.98595e-08
8.84748e-08
8.84746e-08
8.84746e-08
8.85487e-08
8.71641e-08
8.71639e-08
8.71639e-08
8.7238e-08
8.58534e-08
8.58531e-08
8.58531e-08
8.59272e-08
8.45426e-08
8.45424e-08
8.45424e-08
8.46165e-08
8.32319e-08
8.32316e-08
8.32316e-08
8.33058e-08
8.19211e-08
8.19209e-08
8.19209e-08
8.1995e-08
8.06104e-08
8.06101e-08
8.06101e-08
8.06843e-08
7.92996e-08
7.92994e-08
7.92994e-08
7.93735e-08
7.79889e-08
7.79887e-08
7.79887e-08
7.80628e-08
7.66782e-08
7.66779e-08
7.66779e-08
7.6752e-08
7.53674e-08
7.53672e-08
7.53672e-08
7.54413e-08
7.40566e-08
7.40564e-08
7.40564e-08
7.41305e-08
7.27458e-08
7.27455e-08
7.27455e-08
7.28197e-08
7.14349e-08
7.14347e-08
7.14347e-08
7.15088e-08
7.01241e-08
7.01238e-08
7.01238e-08
7.0198e-08
6.88132e-08
6.8813e-08
6.8813e-08
6.88871e-08
6.75023e-08
6.75021e-08
6.75021e-08
6.75762e-08
6.61915e-08
6.61913e-08
6.61913e-08
6.62654e-08
6.48806e-08
6.48804e-08
6.48804e-08
6.49545e-08
6.35698e-08
6.35695e-08
6.35695e-08
6.36437e-08
6.22589e-08
6.22587e-08
6.22587e-08
6.23328e-08
6.09481e-08
6.09479e-08
6.09479e-08
6.1022e-08
5.96373e-08
5.96371e-08
5.96371e-08
5.97112e-08
5.83266e-08
5.83263e-08
5.83263e-08
5.84004e-08
5.70158e-08
5.70156e-08
5.70156e-08
5.70897e-08
5.57051e-08
5.57049e-08
5.57049e-08
5.5779e-08
5.43944e-08
5.43941e-08
5.43941e-08
5.44682e-08
5.30836e-08
5.30834e-08
5.30834e-08
5.31575e-08
5.17729e-08
5.17727e-08
5.17727e-08
5.18468e-08
5.04622e-08
5.04619e-08
5.04619e-08
5.0536e-08
4.91515e-08
4.91512e-08
4.91512e-08
4.92253e-08
4.78408e-08
4.78406e-08
4.78406e-08
4.79147e-08
4.65302e-08
4.653e-08
4.653e-08
4.66041e-08
4.52196e-08
4.52194e-08
4.52194e-08
4.52935e-08
4.39091e-08
4.39089e-08
4.39089e-08
4.3983e-08
4.25987e-08
4.25984e-08
4.25984e-08
4.26725e-08
4.12882e-08
4.1288e-08
4.1288e-08
4.13621e-08
3.99778e-08
3.99776e-08
3.99776e-08
4.00517e-08
3.86673e-08
3.86671e-08
3.86671e-08
3.87412e-08
3.73568e-08
3.73566e-08
3.73566e-08
3.74307e-08
3.60463e-08
3.60461e-08
3.60461e-08
3.61202e-08
3.47358e-08
3.47356e-08
3.47356e-08
3.48097e-08
3.34253e-08
3.34251e-08
3.34251e-08
3.34992e-08
3.21148e-08
3.21146e-08
3.21146e-08
3.21887e-08
3.08043e-08
3.08041e-08
3.08041e-08
3.08782e-08
2.94938e-08
2.94936e-08
2.94936e-08
2.95677e-08
2.81833e-08
2.81831e-08
2.81831e-08
2.82572e-08
2.68728e-08
2.68726e-08
2.68726e-08
2.69467e-08
2.55623e-08
2.55621e-08
2.5562e-08
2.56362e-08
2.42518e-08
2.42515e-08
2.42515e-08
2.43256e-08
2.29413e-08
2.29411e-08
2.29411e-08
2.30152e-08
2.16309e-08
2.16306e-08
2.16306e-08
2.17047e-08
2.03204e-08
2.03201e-08
2.03201e-08
2.03942e-08
1.90098e-08
1.90096e-08
1.90096e-08
1.90837e-08
1.76992e-08
1.7699e-08
1.7699e-08
1.77731e-08
1.63885e-08
1.63883e-08
1.63883e-08
1.64624e-08
1.50779e-08
1.50776e-08
1.50776e-08
1.51517e-08
1.37672e-08
1.37669e-08
1.37669e-08
1.3841e-08
1.24564e-08
1.24562e-08
1.24562e-08
1.25303e-08
1.11457e-08
1.11455e-08
1.11455e-08
1.12196e-08
9.83495e-09
9.83472e-09
9.83472e-09
9.90883e-09
8.52427e-09
8.52404e-09
8.52404e-09
8.59814e-09
7.21367e-09
7.21344e-09
7.21344e-09
7.28753e-09
5.90311e-09
5.9029e-09
5.9029e-09
5.97698e-09
4.59257e-09
4.5924e-09
4.59239e-09
4.66644e-09
3.28211e-09
3.28183e-09
3.28183e-09
3.35594e-09
1.97536e-09
1.97115e-09
1.97111e-09
2.04667e-09
6.72232e-10
7.41032e-10
7.40943e-10
6.73836e-10
1.28583e-07
1.28658e-07
1.28658e-07
1.28583e-07
1.28658e-07
1.28658e-07
1.28825e-07
1.28825e-07
1.28825e-07
1.28825e-07
1.28658e-07
1.28658e-07
1.28583e-07
1.28658e-07
1.28658e-07
1.28583e-07
1.28073e-07
1.25476e-07
1.27926e-07
1.27926e-07
1.25618e-07
1.25618e-07
1.28073e-07
1.25476e-07
1.27926e-07
1.27926e-07
1.25618e-07
1.25618e-07
1.27926e-07
1.25618e-07
1.25618e-07
1.28073e-07
1.25476e-07
1.27926e-07
1.25618e-07
1.25618e-07
1.25476e-07
1.25135e-07
1.23275e-07
1.25004e-07
1.25004e-07
1.23387e-07
1.23387e-07
1.25135e-07
1.23275e-07
1.25004e-07
1.25004e-07
1.23387e-07
1.23387e-07
1.25004e-07
1.23387e-07
1.23387e-07
1.25135e-07
1.23275e-07
1.25004e-07
1.23387e-07
1.23387e-07
1.23275e-07
1.23005e-07
1.21417e-07
1.22896e-07
1.22896e-07
1.2152e-07
1.2152e-07
1.23005e-07
1.21417e-07
1.22896e-07
1.22896e-07
1.2152e-07
1.2152e-07
1.22896e-07
1.2152e-07
1.2152e-07
1.23005e-07
1.21417e-07
1.22896e-07
1.2152e-07
1.2152e-07
1.21417e-07
1.21181e-07
1.19745e-07
1.21086e-07
1.21086e-07
1.19838e-07
1.19838e-07
1.21181e-07
1.19745e-07
1.21086e-07
1.21086e-07
1.19838e-07
1.19838e-07
1.21086e-07
1.19838e-07
1.19838e-07
1.21181e-07
1.19745e-07
1.21086e-07
1.19838e-07
1.19838e-07
1.19745e-07
1.19527e-07
1.18179e-07
1.19437e-07
1.19437e-07
1.18268e-07
1.18268e-07
1.19527e-07
1.18179e-07
1.19437e-07
1.19437e-07
1.18268e-07
1.18268e-07
1.19437e-07
1.18268e-07
1.18268e-07
1.19527e-07
1.18179e-07
1.19437e-07
1.18268e-07
1.18268e-07
1.18179e-07
1.17972e-07
1.16684e-07
1.17887e-07
1.17887e-07
1.16769e-07
1.16769e-07
1.17972e-07
1.16684e-07
1.17887e-07
1.17887e-07
1.1677e-07
1.16769e-07
1.17887e-07
1.16769e-07
1.16769e-07
1.17972e-07
1.16684e-07
1.17887e-07
1.16769e-07
1.16769e-07
1.16684e-07
1.16485e-07
1.15239e-07
1.16403e-07
1.16403e-07
1.15321e-07
1.15321e-07
1.16485e-07
1.15239e-07
1.16403e-07
1.16403e-07
1.15321e-07
1.15321e-07
1.16403e-07
1.15321e-07
1.15321e-07
1.16485e-07
1.15239e-07
1.16403e-07
1.15321e-07
1.15321e-07
1.15239e-07
1.15045e-07
1.13829e-07
1.14965e-07
1.14965e-07
1.13909e-07
1.13909e-07
1.15045e-07
1.13829e-07
1.14965e-07
1.14965e-07
1.13909e-07
1.13909e-07
1.14965e-07
1.13909e-07
1.13909e-07
1.15045e-07
1.13829e-07
1.14965e-07
1.13909e-07
1.13909e-07
1.13829e-07
1.13639e-07
1.12446e-07
1.13561e-07
1.13561e-07
1.12524e-07
1.12524e-07
1.13639e-07
1.12446e-07
1.13561e-07
1.13561e-07
1.12524e-07
1.12524e-07
1.13561e-07
1.12524e-07
1.12524e-07
1.13639e-07
1.12446e-07
1.13561e-07
1.12524e-07
1.12524e-07
1.12446e-07
1.12258e-07
1.11082e-07
1.12181e-07
1.12181e-07
1.11159e-07
1.11159e-07
1.12258e-07
1.11082e-07
1.12181e-07
1.12181e-07
1.11159e-07
1.11159e-07
1.12181e-07
1.11159e-07
1.11159e-07
1.12258e-07
1.11082e-07
1.12181e-07
1.11159e-07
1.11159e-07
1.11082e-07
1.10897e-07
1.09736e-07
1.10821e-07
1.10821e-07
1.09812e-07
1.09812e-07
1.10897e-07
1.09736e-07
1.10821e-07
1.10821e-07
1.09812e-07
1.09812e-07
1.10821e-07
1.09812e-07
1.09812e-07
1.10897e-07
1.09736e-07
1.10821e-07
1.09812e-07
1.09812e-07
1.09736e-07
1.09553e-07
1.08404e-07
1.09477e-07
1.09477e-07
1.08479e-07
1.08479e-07
1.09553e-07
1.08404e-07
1.09477e-07
1.09477e-07
1.08479e-07
1.08479e-07
1.09477e-07
1.08479e-07
1.08479e-07
1.09553e-07
1.08404e-07
1.09477e-07
1.08479e-07
1.08479e-07
1.08404e-07
1.08222e-07
1.07083e-07
1.08148e-07
1.08148e-07
1.07158e-07
1.07158e-07
1.08222e-07
1.07084e-07
1.08148e-07
1.08148e-07
1.07158e-07
1.07158e-07
1.08148e-07
1.07158e-07
1.07158e-07
1.08222e-07
1.07083e-07
1.08148e-07
1.07158e-07
1.07158e-07
1.07083e-07
1.06903e-07
1.05769e-07
1.06829e-07
1.06829e-07
1.05844e-07
1.05844e-07
1.06903e-07
1.05769e-07
1.06829e-07
1.06829e-07
1.05844e-07
1.05844e-07
1.06829e-07
1.05844e-07
1.05844e-07
1.06903e-07
1.05769e-07
1.06829e-07
1.05844e-07
1.05844e-07
1.05769e-07
1.0559e-07
1.04458e-07
1.05515e-07
1.05515e-07
1.04532e-07
1.04532e-07
1.0559e-07
1.04458e-07
1.05515e-07
1.05515e-07
1.04532e-07
1.04532e-07
1.05515e-07
1.04532e-07
1.04532e-07
1.0559e-07
1.04458e-07
1.05515e-07
1.04532e-07
1.04532e-07
1.04458e-07
1.04278e-07
1.03147e-07
1.04204e-07
1.04204e-07
1.03221e-07
1.03221e-07
1.04278e-07
1.03147e-07
1.04204e-07
1.04204e-07
1.03221e-07
1.03221e-07
1.04204e-07
1.03221e-07
1.03221e-07
1.04278e-07
1.03147e-07
1.04204e-07
1.03221e-07
1.03221e-07
1.03147e-07
1.02967e-07
1.01836e-07
1.02893e-07
1.02893e-07
1.0191e-07
1.0191e-07
1.02967e-07
1.01836e-07
1.02893e-07
1.02893e-07
1.0191e-07
1.0191e-07
1.02893e-07
1.0191e-07
1.0191e-07
1.02967e-07
1.01836e-07
1.02893e-07
1.0191e-07
1.0191e-07
1.01836e-07
1.01656e-07
1.00525e-07
1.01582e-07
1.01582e-07
1.00599e-07
1.00599e-07
1.01656e-07
1.00525e-07
1.01582e-07
1.01582e-07
1.00599e-07
1.00599e-07
1.01582e-07
1.00599e-07
1.00599e-07
1.01656e-07
1.00525e-07
1.01582e-07
1.00599e-07
1.00599e-07
1.00525e-07
1.00345e-07
9.92142e-08
1.00271e-07
1.00271e-07
9.92882e-08
9.92882e-08
1.00345e-07
9.92142e-08
1.00271e-07
1.00271e-07
9.92882e-08
9.92882e-08
1.00271e-07
9.92882e-08
9.92882e-08
1.00345e-07
9.92142e-08
1.00271e-07
9.92882e-08
9.92882e-08
9.92142e-08
9.90346e-08
9.79035e-08
9.89605e-08
9.89605e-08
9.79775e-08
9.79775e-08
9.90346e-08
9.79035e-08
9.89605e-08
9.89605e-08
9.79775e-08
9.79775e-08
9.89605e-08
9.79775e-08
9.79775e-08
9.90346e-08
9.79035e-08
9.89605e-08
9.79775e-08
9.79775e-08
9.79035e-08
9.77239e-08
9.65928e-08
9.76498e-08
9.76498e-08
9.66668e-08
9.66668e-08
9.77239e-08
9.65928e-08
9.76498e-08
9.76498e-08
9.66668e-08
9.66668e-08
9.76498e-08
9.66668e-08
9.66668e-08
9.77239e-08
9.65928e-08
9.76498e-08
9.66668e-08
9.66668e-08
9.65928e-08
9.64132e-08
9.52821e-08
9.63391e-08
9.63391e-08
9.53561e-08
9.53561e-08
9.64132e-08
9.5282e-08
9.63391e-08
9.63391e-08
9.53561e-08
9.53561e-08
9.63391e-08
9.53561e-08
9.53561e-08
9.64132e-08
9.5282e-08
9.63391e-08
9.53561e-08
9.53561e-08
9.5282e-08
9.51025e-08
9.39713e-08
9.50284e-08
9.50284e-08
9.40453e-08
9.40453e-08
9.51025e-08
9.39713e-08
9.50284e-08
9.50284e-08
9.40453e-08
9.40453e-08
9.50284e-08
9.40453e-08
9.40453e-08
9.51025e-08
9.39713e-08
9.50284e-08
9.40453e-08
9.40453e-08
9.39713e-08
9.37917e-08
9.26605e-08
9.37176e-08
9.37176e-08
9.27346e-08
9.27346e-08
9.37917e-08
9.26605e-08
9.37176e-08
9.37176e-08
9.27346e-08
9.27346e-08
9.37176e-08
9.27346e-08
9.27346e-08
9.37917e-08
9.26605e-08
9.37176e-08
9.27346e-08
9.27346e-08
9.26605e-08
9.2481e-08
9.13498e-08
9.24069e-08
9.24069e-08
9.14238e-08
9.14238e-08
9.2481e-08
9.13498e-08
9.24069e-08
9.24069e-08
9.14238e-08
9.14238e-08
9.24069e-08
9.14238e-08
9.14238e-08
9.2481e-08
9.13498e-08
9.24069e-08
9.14238e-08
9.14238e-08
9.13498e-08
9.11702e-08
9.0039e-08
9.10961e-08
9.10961e-08
9.0113e-08
9.0113e-08
9.11702e-08
9.0039e-08
9.10961e-08
9.10961e-08
9.0113e-08
9.0113e-08
9.10961e-08
9.0113e-08
9.0113e-08
9.11702e-08
9.0039e-08
9.10961e-08
9.0113e-08
9.0113e-08
9.0039e-08
8.98594e-08
8.87283e-08
8.97853e-08
8.97853e-08
8.88023e-08
8.88023e-08
8.98594e-08
8.87283e-08
8.97853e-08
8.97853e-08
8.88023e-08
8.88023e-08
8.97854e-08
8.88023e-08
8.88023e-08
8.98595e-08
8.87283e-08
8.97854e-08
8.88023e-08
8.88023e-08
8.87283e-08
8.85487e-08
8.74175e-08
8.84746e-08
8.84746e-08
8.74916e-08
8.74916e-08
8.85487e-08
8.74175e-08
8.84746e-08
8.84746e-08
8.74916e-08
8.74916e-08
8.84746e-08
8.74916e-08
8.74915e-08
8.85487e-08
8.74175e-08
8.84746e-08
8.74916e-08
8.74915e-08
8.74175e-08
8.7238e-08
8.61068e-08
8.71639e-08
8.71639e-08
8.61808e-08
8.61808e-08
8.7238e-08
8.61068e-08
8.71639e-08
8.71639e-08
8.61808e-08
8.61808e-08
8.71639e-08
8.61808e-08
8.61808e-08
8.7238e-08
8.61068e-08
8.71639e-08
8.61808e-08
8.61808e-08
8.61068e-08
8.59272e-08
8.47961e-08
8.58531e-08
8.58531e-08
8.48701e-08
8.48701e-08
8.59272e-08
8.47961e-08
8.58531e-08
8.58531e-08
8.48701e-08
8.48701e-08
8.58531e-08
8.48701e-08
8.48701e-08
8.59272e-08
8.4796e-08
8.58531e-08
8.48701e-08
8.48701e-08
8.4796e-08
8.46165e-08
8.34853e-08
8.45424e-08
8.45424e-08
8.35593e-08
8.35593e-08
8.46165e-08
8.34853e-08
8.45424e-08
8.45424e-08
8.35593e-08
8.35593e-08
8.45424e-08
8.35593e-08
8.35593e-08
8.46165e-08
8.34853e-08
8.45424e-08
8.35593e-08
8.35593e-08
8.34853e-08
8.33057e-08
8.21746e-08
8.32316e-08
8.32316e-08
8.22486e-08
8.22486e-08
8.33057e-08
8.21746e-08
8.32316e-08
8.32316e-08
8.22486e-08
8.22486e-08
8.32316e-08
8.22486e-08
8.22486e-08
8.33058e-08
8.21746e-08
8.32316e-08
8.22486e-08
8.22486e-08
8.21746e-08
8.1995e-08
8.08638e-08
8.19209e-08
8.19209e-08
8.09378e-08
8.09378e-08
8.1995e-08
8.08638e-08
8.19209e-08
8.19209e-08
8.09378e-08
8.09378e-08
8.19209e-08
8.09378e-08
8.09378e-08
8.1995e-08
8.08638e-08
8.19209e-08
8.09378e-08
8.09378e-08
8.08638e-08
8.06842e-08
7.95531e-08
8.06101e-08
8.06101e-08
7.96271e-08
7.96271e-08
8.06842e-08
7.95531e-08
8.06101e-08
8.06101e-08
7.96271e-08
7.96271e-08
8.06102e-08
7.96271e-08
7.96271e-08
8.06843e-08
7.95531e-08
8.06102e-08
7.96271e-08
7.96271e-08
7.95531e-08
7.93735e-08
7.82423e-08
7.92994e-08
7.92994e-08
7.83164e-08
7.83164e-08
7.93735e-08
7.82423e-08
7.92994e-08
7.92994e-08
7.83164e-08
7.83164e-08
7.92994e-08
7.83164e-08
7.83164e-08
7.93735e-08
7.82423e-08
7.92994e-08
7.83164e-08
7.83164e-08
7.82423e-08
7.80628e-08
7.69316e-08
7.79887e-08
7.79887e-08
7.70056e-08
7.70056e-08
7.80628e-08
7.69316e-08
7.79887e-08
7.79887e-08
7.70056e-08
7.70056e-08
7.79887e-08
7.70056e-08
7.70056e-08
7.80628e-08
7.69316e-08
7.79887e-08
7.70056e-08
7.70056e-08
7.69316e-08
7.6752e-08
7.56209e-08
7.66779e-08
7.66779e-08
7.56949e-08
7.56949e-08
7.6752e-08
7.56208e-08
7.66779e-08
7.66779e-08
7.56949e-08
7.56949e-08
7.66779e-08
7.56949e-08
7.56949e-08
7.6752e-08
7.56208e-08
7.66779e-08
7.56949e-08
7.56949e-08
7.56208e-08
7.54413e-08
7.431e-08
7.53672e-08
7.53672e-08
7.43841e-08
7.43841e-08
7.54413e-08
7.43101e-08
7.53672e-08
7.53672e-08
7.43841e-08
7.43841e-08
7.53672e-08
7.43841e-08
7.43841e-08
7.54413e-08
7.431e-08
7.53672e-08
7.43841e-08
7.43841e-08
7.431e-08
7.41305e-08
7.29992e-08
7.40564e-08
7.40564e-08
7.30732e-08
7.30733e-08
7.41305e-08
7.29992e-08
7.40564e-08
7.40564e-08
7.30732e-08
7.30732e-08
7.40564e-08
7.30733e-08
7.30733e-08
7.41305e-08
7.29992e-08
7.40564e-08
7.30733e-08
7.30733e-08
7.29992e-08
7.28196e-08
7.16884e-08
7.27455e-08
7.27455e-08
7.17624e-08
7.17624e-08
7.28196e-08
7.16884e-08
7.27455e-08
7.27455e-08
7.17624e-08
7.17624e-08
7.27456e-08
7.17624e-08
7.17624e-08
7.28197e-08
7.16884e-08
7.27456e-08
7.17624e-08
7.17624e-08
7.16884e-08
7.15088e-08
7.03775e-08
7.14347e-08
7.14347e-08
7.04516e-08
7.04516e-08
7.15088e-08
7.03775e-08
7.14347e-08
7.14347e-08
7.04516e-08
7.04516e-08
7.14347e-08
7.04516e-08
7.04516e-08
7.15088e-08
7.03775e-08
7.14347e-08
7.04516e-08
7.04516e-08
7.03775e-08
7.0198e-08
6.90667e-08
7.01239e-08
7.01238e-08
6.91407e-08
6.91407e-08
7.0198e-08
6.90667e-08
7.01239e-08
7.01238e-08
6.91407e-08
6.91407e-08
7.01238e-08
6.91407e-08
6.91407e-08
7.0198e-08
6.90667e-08
7.01238e-08
6.91407e-08
6.91407e-08
6.90667e-08
6.88871e-08
6.77558e-08
6.8813e-08
6.8813e-08
6.78298e-08
6.78298e-08
6.88871e-08
6.77558e-08
6.8813e-08
6.8813e-08
6.78298e-08
6.78298e-08
6.8813e-08
6.78298e-08
6.78298e-08
6.88871e-08
6.77558e-08
6.8813e-08
6.78298e-08
6.78298e-08
6.77558e-08
6.75762e-08
6.64449e-08
6.75021e-08
6.75021e-08
6.6519e-08
6.6519e-08
6.75762e-08
6.6445e-08
6.75021e-08
6.75021e-08
6.6519e-08
6.6519e-08
6.75021e-08
6.6519e-08
6.6519e-08
6.75762e-08
6.64449e-08
6.75021e-08
6.6519e-08
6.6519e-08
6.64449e-08
6.62654e-08
6.51341e-08
6.61913e-08
6.61913e-08
6.52081e-08
6.52081e-08
6.62654e-08
6.51341e-08
6.61913e-08
6.61913e-08
6.52081e-08
6.52081e-08
6.61913e-08
6.52081e-08
6.52081e-08
6.62654e-08
6.51341e-08
6.61913e-08
6.52081e-08
6.52081e-08
6.51341e-08
6.49545e-08
6.38232e-08
6.48804e-08
6.48804e-08
6.38973e-08
6.38973e-08
6.49545e-08
6.38232e-08
6.48804e-08
6.48804e-08
6.38973e-08
6.38973e-08
6.48804e-08
6.38973e-08
6.38973e-08
6.49545e-08
6.38232e-08
6.48804e-08
6.38973e-08
6.38973e-08
6.38232e-08
6.36437e-08
6.25124e-08
6.35696e-08
6.35695e-08
6.25864e-08
6.25864e-08
6.36437e-08
6.25124e-08
6.35695e-08
6.35695e-08
6.25864e-08
6.25864e-08
6.35695e-08
6.25864e-08
6.25864e-08
6.36437e-08
6.25124e-08
6.35695e-08
6.25864e-08
6.25864e-08
6.25124e-08
6.23328e-08
6.12015e-08
6.22587e-08
6.22587e-08
6.12756e-08
6.12756e-08
6.23328e-08
6.12016e-08
6.22587e-08
6.22587e-08
6.12756e-08
6.12756e-08
6.22587e-08
6.12756e-08
6.12756e-08
6.23328e-08
6.12015e-08
6.22587e-08
6.12756e-08
6.12756e-08
6.12015e-08
6.1022e-08
5.98908e-08
6.09479e-08
6.09479e-08
5.99648e-08
5.99648e-08
6.1022e-08
5.98908e-08
6.09479e-08
6.09479e-08
5.99648e-08
5.99648e-08
6.09479e-08
5.99648e-08
5.99648e-08
6.1022e-08
5.98907e-08
6.09479e-08
5.99648e-08
5.99648e-08
5.98907e-08
5.97112e-08
5.858e-08
5.96371e-08
5.96371e-08
5.8654e-08
5.8654e-08
5.97112e-08
5.858e-08
5.96371e-08
5.96371e-08
5.8654e-08
5.8654e-08
5.96371e-08
5.8654e-08
5.8654e-08
5.97112e-08
5.858e-08
5.96371e-08
5.8654e-08
5.8654e-08
5.858e-08
5.84004e-08
5.72692e-08
5.83263e-08
5.83263e-08
5.73433e-08
5.73433e-08
5.84004e-08
5.72692e-08
5.83263e-08
5.83263e-08
5.73433e-08
5.73433e-08
5.83263e-08
5.73433e-08
5.73433e-08
5.84004e-08
5.72692e-08
5.83263e-08
5.73433e-08
5.73433e-08
5.72692e-08
5.70897e-08
5.59585e-08
5.70156e-08
5.70156e-08
5.60325e-08
5.60325e-08
5.70897e-08
5.59585e-08
5.70156e-08
5.70156e-08
5.60325e-08
5.60325e-08
5.70156e-08
5.60325e-08
5.60325e-08
5.70897e-08
5.59585e-08
5.70156e-08
5.60325e-08
5.60325e-08
5.59585e-08
5.5779e-08
5.46478e-08
5.57049e-08
5.57049e-08
5.47218e-08
5.47218e-08
5.5779e-08
5.46478e-08
5.57049e-08
5.57049e-08
5.47218e-08
5.47218e-08
5.57049e-08
5.47218e-08
5.47218e-08
5.5779e-08
5.46478e-08
5.57049e-08
5.47218e-08
5.47218e-08
5.46478e-08
5.44682e-08
5.33371e-08
5.43941e-08
5.43941e-08
5.34111e-08
5.34111e-08
5.44682e-08
5.33371e-08
5.43941e-08
5.43941e-08
5.34111e-08
5.34111e-08
5.43941e-08
5.34111e-08
5.34111e-08
5.44682e-08
5.33371e-08
5.43941e-08
5.34111e-08
5.34111e-08
5.33371e-08
5.31575e-08
5.20263e-08
5.30834e-08
5.30834e-08
5.21003e-08
5.21004e-08
5.31575e-08
5.20263e-08
5.30834e-08
5.30834e-08
5.21003e-08
5.21003e-08
5.30834e-08
5.21004e-08
5.21004e-08
5.31575e-08
5.20263e-08
5.30834e-08
5.21003e-08
5.21003e-08
5.20263e-08
5.18468e-08
5.07156e-08
5.17727e-08
5.17727e-08
5.07896e-08
5.07896e-08
5.18468e-08
5.07156e-08
5.17727e-08
5.17727e-08
5.07896e-08
5.07896e-08
5.17727e-08
5.07896e-08
5.07896e-08
5.18468e-08
5.07156e-08
5.17727e-08
5.07896e-08
5.07896e-08
5.07156e-08
5.0536e-08
4.94049e-08
5.04619e-08
5.04619e-08
4.94789e-08
4.94789e-08
5.0536e-08
4.94049e-08
5.04619e-08
5.04619e-08
4.94789e-08
4.94789e-08
5.04619e-08
4.94789e-08
4.94789e-08
5.0536e-08
4.94049e-08
5.04619e-08
4.94789e-08
4.94789e-08
4.94049e-08
4.92253e-08
4.80942e-08
4.91512e-08
4.91512e-08
4.81682e-08
4.81682e-08
4.92253e-08
4.80942e-08
4.91512e-08
4.91512e-08
4.81682e-08
4.81682e-08
4.91512e-08
4.81682e-08
4.81682e-08
4.92253e-08
4.80942e-08
4.91512e-08
4.81682e-08
4.81682e-08
4.80942e-08
4.79147e-08
4.67836e-08
4.78406e-08
4.78406e-08
4.68576e-08
4.68576e-08
4.79147e-08
4.67836e-08
4.78406e-08
4.78406e-08
4.68576e-08
4.68576e-08
4.78406e-08
4.68576e-08
4.68576e-08
4.79147e-08
4.67836e-08
4.78406e-08
4.68576e-08
4.68576e-08
4.67836e-08
4.66041e-08
4.5473e-08
4.653e-08
4.653e-08
4.5547e-08
4.5547e-08
4.66041e-08
4.5473e-08
4.653e-08
4.653e-08
4.5547e-08
4.5547e-08
4.653e-08
4.5547e-08
4.5547e-08
4.66041e-08
4.5473e-08
4.653e-08
4.5547e-08
4.5547e-08
4.5473e-08
4.52935e-08
4.41625e-08
4.52194e-08
4.52194e-08
4.42365e-08
4.42365e-08
4.52935e-08
4.41625e-08
4.52194e-08
4.52194e-08
4.42365e-08
4.42365e-08
4.52194e-08
4.42365e-08
4.42365e-08
4.52935e-08
4.41625e-08
4.52194e-08
4.42365e-08
4.42365e-08
4.41625e-08
4.3983e-08
4.2852e-08
4.39089e-08
4.39089e-08
4.2926e-08
4.2926e-08
4.3983e-08
4.2852e-08
4.39089e-08
4.39089e-08
4.2926e-08
4.29261e-08
4.39089e-08
4.2926e-08
4.2926e-08
4.3983e-08
4.2852e-08
4.39089e-08
4.29261e-08
4.2926e-08
4.2852e-08
4.26725e-08
4.15416e-08
4.25984e-08
4.25984e-08
4.16156e-08
4.16156e-08
4.26725e-08
4.15416e-08
4.25984e-08
4.25984e-08
4.16156e-08
4.16156e-08
4.25984e-08
4.16156e-08
4.16156e-08
4.26725e-08
4.15416e-08
4.25984e-08
4.16156e-08
4.16156e-08
4.15416e-08
4.13621e-08
4.02312e-08
4.1288e-08
4.1288e-08
4.03052e-08
4.03052e-08
4.13621e-08
4.02312e-08
4.1288e-08
4.1288e-08
4.03052e-08
4.03052e-08
4.1288e-08
4.03052e-08
4.03052e-08
4.13621e-08
4.02312e-08
4.1288e-08
4.03052e-08
4.03052e-08
4.02312e-08
4.00517e-08
3.89207e-08
3.99776e-08
3.99776e-08
3.89947e-08
3.89947e-08
4.00517e-08
3.89207e-08
3.99776e-08
3.99776e-08
3.89947e-08
3.89947e-08
3.99776e-08
3.89947e-08
3.89947e-08
4.00517e-08
3.89207e-08
3.99776e-08
3.89947e-08
3.89947e-08
3.89207e-08
3.87412e-08
3.76102e-08
3.86671e-08
3.86671e-08
3.76842e-08
3.76842e-08
3.87412e-08
3.76102e-08
3.86671e-08
3.86671e-08
3.76842e-08
3.76842e-08
3.86671e-08
3.76842e-08
3.76842e-08
3.87412e-08
3.76102e-08
3.86671e-08
3.76842e-08
3.76842e-08
3.76102e-08
3.74307e-08
3.62997e-08
3.73566e-08
3.73566e-08
3.63737e-08
3.63737e-08
3.74307e-08
3.62997e-08
3.73566e-08
3.73566e-08
3.63737e-08
3.63737e-08
3.73566e-08
3.63737e-08
3.63737e-08
3.74307e-08
3.62997e-08
3.73566e-08
3.63737e-08
3.63737e-08
3.62997e-08
3.61202e-08
3.49892e-08
3.60461e-08
3.60461e-08
3.50632e-08
3.50632e-08
3.61201e-08
3.49892e-08
3.60461e-08
3.60461e-08
3.50632e-08
3.50632e-08
3.60461e-08
3.50632e-08
3.50632e-08
3.61202e-08
3.49892e-08
3.60461e-08
3.50632e-08
3.50632e-08
3.49892e-08
3.48097e-08
3.36787e-08
3.47356e-08
3.47356e-08
3.37527e-08
3.37527e-08
3.48097e-08
3.36787e-08
3.47356e-08
3.47356e-08
3.37527e-08
3.37527e-08
3.47356e-08
3.37527e-08
3.37527e-08
3.48097e-08
3.36787e-08
3.47356e-08
3.37527e-08
3.37527e-08
3.36787e-08
3.34992e-08
3.23682e-08
3.34251e-08
3.34251e-08
3.24422e-08
3.24422e-08
3.34992e-08
3.23682e-08
3.34251e-08
3.34251e-08
3.24422e-08
3.24422e-08
3.34251e-08
3.24422e-08
3.24422e-08
3.34992e-08
3.23682e-08
3.34251e-08
3.24422e-08
3.24422e-08
3.23682e-08
3.21887e-08
3.10577e-08
3.21146e-08
3.21146e-08
3.11317e-08
3.11317e-08
3.21887e-08
3.10577e-08
3.21146e-08
3.21146e-08
3.11317e-08
3.11317e-08
3.21146e-08
3.11317e-08
3.11317e-08
3.21887e-08
3.10577e-08
3.21146e-08
3.11317e-08
3.11317e-08
3.10577e-08
3.08782e-08
2.97472e-08
3.08041e-08
3.08041e-08
2.98213e-08
2.98212e-08
3.08782e-08
2.97472e-08
3.08041e-08
3.08041e-08
2.98212e-08
2.98212e-08
3.08041e-08
2.98213e-08
2.98213e-08
3.08782e-08
2.97472e-08
3.08041e-08
2.98213e-08
2.98213e-08
2.97472e-08
2.95677e-08
2.84367e-08
2.94936e-08
2.94936e-08
2.85107e-08
2.85107e-08
2.95677e-08
2.84367e-08
2.94936e-08
2.94936e-08
2.85107e-08
2.85107e-08
2.94936e-08
2.85107e-08
2.85107e-08
2.95677e-08
2.84367e-08
2.94936e-08
2.85107e-08
2.85107e-08
2.84367e-08
2.82572e-08
2.71262e-08
2.81831e-08
2.81831e-08
2.72002e-08
2.72002e-08
2.82572e-08
2.71262e-08
2.81831e-08
2.81831e-08
2.72002e-08
2.72002e-08
2.81831e-08
2.72002e-08
2.72002e-08
2.82572e-08
2.71262e-08
2.81831e-08
2.72002e-08
2.72002e-08
2.71262e-08
2.69467e-08
2.58157e-08
2.68726e-08
2.68726e-08
2.58897e-08
2.58897e-08
2.69467e-08
2.58157e-08
2.68726e-08
2.68726e-08
2.58897e-08
2.58897e-08
2.68726e-08
2.58897e-08
2.58897e-08
2.69467e-08
2.58157e-08
2.68726e-08
2.58897e-08
2.58897e-08
2.58157e-08
2.56361e-08
2.45052e-08
2.5562e-08
2.55621e-08
2.45792e-08
2.45792e-08
2.56361e-08
2.45052e-08
2.5562e-08
2.5562e-08
2.45792e-08
2.45792e-08
2.55621e-08
2.45792e-08
2.45792e-08
2.56361e-08
2.45052e-08
2.5562e-08
2.45792e-08
2.45792e-08
2.45051e-08
2.43256e-08
2.31947e-08
2.42515e-08
2.42515e-08
2.32687e-08
2.32687e-08
2.43256e-08
2.31947e-08
2.42515e-08
2.42515e-08
2.32687e-08
2.32687e-08
2.42515e-08
2.32687e-08
2.32687e-08
2.43256e-08
2.31947e-08
2.42515e-08
2.32687e-08
2.32687e-08
2.31947e-08
2.30152e-08
2.18842e-08
2.29411e-08
2.29411e-08
2.19582e-08
2.19582e-08
2.30152e-08
2.18842e-08
2.29411e-08
2.29411e-08
2.19582e-08
2.19582e-08
2.29411e-08
2.19582e-08
2.19582e-08
2.30152e-08
2.18842e-08
2.29411e-08
2.19582e-08
2.19582e-08
2.18842e-08
2.17047e-08
2.05738e-08
2.16306e-08
2.16306e-08
2.06478e-08
2.06478e-08
2.17047e-08
2.05738e-08
2.16306e-08
2.16306e-08
2.06478e-08
2.06478e-08
2.16306e-08
2.06478e-08
2.06478e-08
2.17047e-08
2.05738e-08
2.16306e-08
2.06478e-08
2.06478e-08
2.05738e-08
2.03942e-08
1.92632e-08
2.03202e-08
2.03201e-08
1.93372e-08
1.93372e-08
2.03942e-08
1.92632e-08
2.03202e-08
2.03201e-08
1.93372e-08
1.93372e-08
2.03201e-08
1.93372e-08
1.93372e-08
2.03942e-08
1.92632e-08
2.03201e-08
1.93372e-08
1.93372e-08
1.92632e-08
1.90837e-08
1.79526e-08
1.90096e-08
1.90096e-08
1.80266e-08
1.80266e-08
1.90837e-08
1.79526e-08
1.90096e-08
1.90096e-08
1.80266e-08
1.80266e-08
1.90096e-08
1.80266e-08
1.80266e-08
1.90837e-08
1.79526e-08
1.90096e-08
1.80266e-08
1.80266e-08
1.79526e-08
1.77731e-08
1.6642e-08
1.7699e-08
1.7699e-08
1.6716e-08
1.6716e-08
1.77731e-08
1.6642e-08
1.7699e-08
1.7699e-08
1.6716e-08
1.6716e-08
1.7699e-08
1.6716e-08
1.6716e-08
1.77731e-08
1.6642e-08
1.7699e-08
1.6716e-08
1.6716e-08
1.6642e-08
1.64624e-08
1.53313e-08
1.63883e-08
1.63883e-08
1.54053e-08
1.54053e-08
1.64624e-08
1.53313e-08
1.63883e-08
1.63883e-08
1.54053e-08
1.54053e-08
1.63883e-08
1.54053e-08
1.54053e-08
1.64624e-08
1.53313e-08
1.63883e-08
1.54053e-08
1.54053e-08
1.53313e-08
1.51517e-08
1.40206e-08
1.50776e-08
1.50776e-08
1.40946e-08
1.40946e-08
1.51517e-08
1.40206e-08
1.50776e-08
1.50776e-08
1.40946e-08
1.40946e-08
1.50776e-08
1.40946e-08
1.40946e-08
1.51517e-08
1.40206e-08
1.50776e-08
1.40946e-08
1.40946e-08
1.40206e-08
1.3841e-08
1.27099e-08
1.37669e-08
1.37669e-08
1.27839e-08
1.27839e-08
1.3841e-08
1.27099e-08
1.37669e-08
1.37669e-08
1.27839e-08
1.27839e-08
1.37669e-08
1.27839e-08
1.27839e-08
1.3841e-08
1.27099e-08
1.37669e-08
1.27839e-08
1.27839e-08
1.27099e-08
1.25303e-08
1.13991e-08
1.24562e-08
1.24562e-08
1.14731e-08
1.14731e-08
1.25303e-08
1.13991e-08
1.24562e-08
1.24562e-08
1.14731e-08
1.14731e-08
1.24562e-08
1.14731e-08
1.14731e-08
1.25303e-08
1.13991e-08
1.24562e-08
1.14731e-08
1.14731e-08
1.13991e-08
1.12196e-08
1.00884e-08
1.11455e-08
1.11455e-08
1.01624e-08
1.01624e-08
1.12196e-08
1.00884e-08
1.11455e-08
1.11455e-08
1.01624e-08
1.01624e-08
1.11455e-08
1.01624e-08
1.01624e-08
1.12196e-08
1.00884e-08
1.11455e-08
1.01624e-08
1.01624e-08
1.00884e-08
9.90883e-09
8.77768e-09
9.83472e-09
9.83472e-09
8.8517e-09
8.8517e-09
9.90882e-09
8.77768e-09
9.83472e-09
9.83472e-09
8.8517e-09
8.8517e-09
9.83472e-09
8.8517e-09
8.8517e-09
9.90883e-09
8.77767e-09
9.83472e-09
8.8517e-09
8.8517e-09
8.77767e-09
8.59814e-09
7.46705e-09
8.52404e-09
8.52404e-09
7.54107e-09
7.54107e-09
8.59813e-09
7.46706e-09
8.52404e-09
8.52404e-09
7.54107e-09
7.54107e-09
8.52404e-09
7.54107e-09
7.54107e-09
8.59815e-09
7.46704e-09
8.52404e-09
7.54107e-09
7.54107e-09
7.46704e-09
7.28753e-09
6.15649e-09
7.21344e-09
7.21344e-09
6.2305e-09
6.2305e-09
7.28752e-09
6.15649e-09
7.21344e-09
7.21344e-09
6.2305e-09
6.2305e-09
7.21344e-09
6.2305e-09
6.2305e-09
7.28753e-09
6.15648e-09
7.21344e-09
6.2305e-09
6.2305e-09
6.15648e-09
5.97697e-09
4.84593e-09
5.9029e-09
5.9029e-09
4.91995e-09
4.91995e-09
5.97697e-09
4.84594e-09
5.9029e-09
5.9029e-09
4.91994e-09
4.91994e-09
5.9029e-09
4.91995e-09
4.91995e-09
5.97698e-09
4.84592e-09
5.9029e-09
4.91994e-09
4.91994e-09
4.84592e-09
4.66644e-09
3.53537e-09
4.5924e-09
4.59239e-09
3.60935e-09
3.60935e-09
4.66643e-09
3.53537e-09
4.59239e-09
4.59239e-09
3.60935e-09
3.60935e-09
4.59239e-09
3.60935e-09
3.60935e-09
4.66644e-09
3.53535e-09
4.59239e-09
3.60935e-09
3.60935e-09
3.53535e-09
3.35595e-09
2.22584e-09
3.28183e-09
3.28183e-09
2.29855e-09
2.29855e-09
3.35593e-09
2.22584e-09
3.28183e-09
3.28182e-09
2.29855e-09
2.29852e-09
3.28183e-09
2.29854e-09
2.29853e-09
3.35595e-09
2.22581e-09
3.28183e-09
2.29852e-09
2.29853e-09
2.22582e-09
2.04669e-09
8.7959e-10
1.97116e-09
1.97115e-09
1.03582e-09
1.0358e-09
2.04666e-09
8.79538e-10
1.97116e-09
1.9711e-09
1.03602e-09
1.03575e-09
1.97112e-09
1.03593e-09
1.03574e-09
2.04666e-09
8.79501e-10
1.97114e-09
1.03584e-09
1.03597e-09
8.7955e-10
6.73886e-10
7.40923e-10
7.40886e-10
6.73839e-10
7.41065e-10
7.40855e-10
6.72216e-10
6.72201e-10
6.72219e-10
7.40865e-10
6.73827e-10
7.41012e-10
1.29324e-07
1.29935e-07
1.29608e-07
1.29608e-07
1.31336e-07
1.30193e-07
1.32721e-07
1.29828e-07
1.31336e-07
1.30193e-07
1.29828e-07
1.32721e-07
1.30489e-07
1.33156e-07
1.33156e-07
1.26689e-07
1.27941e-07
1.27956e-07
1.26652e-07
1.27879e-07
1.26636e-07
1.26689e-07
1.27941e-07
1.27956e-07
1.26652e-07
1.27992e-07
1.27992e-07
1.27992e-07
1.25713e-07
1.25713e-07
1.25713e-07
1.25713e-07
1.2675e-07
1.27996e-07
1.27968e-07
1.27066e-07
1.28031e-07
1.267e-07
1.27117e-07
1.27879e-07
1.26636e-07
1.2675e-07
1.27968e-07
1.27996e-07
1.27066e-07
1.28031e-07
1.27117e-07
1.267e-07
1.28013e-07
1.28012e-07
1.2687e-07
1.26685e-07
1.26685e-07
1.24254e-07
1.25061e-07
1.25081e-07
1.2424e-07
1.25055e-07
1.24235e-07
1.24254e-07
1.25061e-07
1.2508e-07
1.2424e-07
1.25081e-07
1.25081e-07