/*--------------------------------*- C++ -*----------------------------------*\
| =========                 |                                                 |
| \\      /  F ield         | OpenFOAM: The Open Source CFD Toolbox           |
|  \\    /   O peration     | Version:  v2012                                 |
|   \\  /    A nd           | Website:  www.openfoam.com                      |
|    \\/     M anipulation  |                                                 |
\*---------------------------------------------------------------------------*/
FoamFile
{
    version     2.0;
    format      ascii;
    class       volScalarField;
    location    "0.265";
    object      p;
}
// * * * * * * * * * * * * * * * * * * * * * * * * * * * * * * * * * * * * * //

dimensions      [0 2 -2 0 0 0 0];


internalField   nonuniform List<scalar> 
247104
(
1.87192e-06
1.87194e-06
1.87206e-06
1.872e-06
1.87187e-06
1.87202e-06
1.87205e-06
1.87186e-06
1.87193e-06
1.87199e-06
1.87205e-06
1.87188e-06
1.87177e-06
1.8719e-06
1.87206e-06
1.87196e-06
1.87206e-06
1.87204e-06
1.87174e-06
1.87136e-06
1.87121e-06
1.8714e-06
1.87179e-06
1.87206e-06
1.87206e-06
1.87199e-06
1.87188e-06
1.87136e-06
1.87087e-06
1.87069e-06
1.87092e-06
1.87143e-06
1.87192e-06
1.87199e-06
1.87191e-06
1.87187e-06
1.87177e-06
1.87121e-06
1.8707e-06
1.87051e-06
1.87075e-06
1.87129e-06
1.87182e-06
1.87184e-06
1.87202e-06
1.8719e-06
1.8714e-06
1.87092e-06
1.87075e-06
1.87097e-06
1.87147e-06
1.87194e-06
1.87202e-06
1.87205e-06
1.87206e-06
1.87179e-06
1.87143e-06
1.87129e-06
1.87147e-06
1.87183e-06
1.87207e-06
1.87205e-06
1.87187e-06
1.87196e-06
1.87206e-06
1.87192e-06
1.87182e-06
1.87194e-06
1.87207e-06
1.87193e-06
1.87206e-06
1.87199e-06
1.87185e-06
1.87202e-06
1.87205e-06
1.83839e-06
1.83636e-06
1.83597e-06
1.83479e-06
1.83477e-06
1.83469e-06
1.8347e-06
1.836e-06
1.83633e-06
1.83596e-06
1.83391e-06
1.83112e-06
1.83107e-06
1.83107e-06
1.83112e-06
1.83431e-06
1.83452e-06
1.83479e-06
1.83112e-06
1.83106e-06
1.83112e-06
1.83111e-06
1.83106e-06
1.83112e-06
1.8347e-06
1.83576e-06
1.83838e-06
1.83477e-06
1.83107e-06
1.83112e-06
1.83122e-06
1.83121e-06
1.83111e-06
1.83107e-06
1.83464e-06
1.83628e-06
1.83636e-06
1.83469e-06
1.83107e-06
1.83112e-06
1.83122e-06
1.83121e-06
1.83111e-06
1.83107e-06
1.83482e-06
1.83474e-06
1.8347e-06
1.83112e-06
1.83106e-06
1.83112e-06
1.83112e-06
1.83106e-06
1.83112e-06
1.8346e-06
1.83563e-06
1.836e-06
1.83431e-06
1.83112e-06
1.83107e-06
1.83107e-06
1.83112e-06
1.83448e-06
1.83471e-06
1.83612e-06
1.83634e-06
1.83453e-06
1.8347e-06
1.83465e-06
1.83482e-06
1.8346e-06
1.8347e-06
1.8367e-06
1.83577e-06
1.83628e-06
1.83474e-06
1.83562e-06
1.83612e-06
1.81828e-06
1.81809e-06
1.81793e-06
1.81577e-06
1.81569e-06
1.81567e-06
1.81575e-06
1.81793e-06
1.81816e-06
1.81793e-06
1.81505e-06
1.81204e-06
1.81195e-06
1.81194e-06
1.81203e-06
1.81564e-06
1.81622e-06
1.81577e-06
1.81208e-06
1.81172e-06
1.81174e-06
1.81173e-06
1.8117e-06
1.81203e-06
1.81646e-06
1.81845e-06
1.81828e-06
1.81569e-06
1.81195e-06
1.81174e-06
1.81176e-06
1.81176e-06
1.81173e-06
1.81194e-06
1.81651e-06
1.81817e-06
1.81809e-06
1.81567e-06
1.81194e-06
1.81173e-06
1.81176e-06
1.81176e-06
1.81173e-06
1.81194e-06
1.81645e-06
1.81632e-06
1.81575e-06
1.81203e-06
1.8117e-06
1.81173e-06
1.81173e-06
1.8117e-06
1.81203e-06
1.81652e-06
1.81852e-06
1.81793e-06
1.81564e-06
1.81203e-06
1.81194e-06
1.81194e-06
1.81204e-06
1.81612e-06
1.81638e-06
1.81842e-06
1.81817e-06
1.81622e-06
1.81646e-06
1.8165e-06
1.81644e-06
1.81652e-06
1.81638e-06
1.81835e-06
1.81845e-06
1.81817e-06
1.81631e-06
1.81851e-06
1.81841e-06
1.79909e-06
1.79892e-06
1.79879e-06
1.79656e-06
1.79649e-06
1.79639e-06
1.79659e-06
1.79878e-06
1.79902e-06
1.79878e-06
1.79576e-06
1.79282e-06
1.79278e-06
1.79278e-06
1.79283e-06
1.79639e-06
1.79714e-06
1.79656e-06
1.79282e-06
1.79267e-06
1.79268e-06
1.79268e-06
1.79268e-06
1.79283e-06
1.79732e-06
1.79929e-06
1.79909e-06
1.79648e-06
1.79278e-06
1.79267e-06
1.79268e-06
1.79268e-06
1.79268e-06
1.79278e-06
1.7974e-06
1.79899e-06
1.79892e-06
1.79639e-06
1.79278e-06
1.79268e-06
1.79268e-06
1.79268e-06
1.79268e-06
1.79278e-06
1.79737e-06
1.79721e-06
1.79659e-06
1.79283e-06
1.79268e-06
1.79268e-06
1.79268e-06
1.79268e-06
1.79283e-06
1.79738e-06
1.79933e-06
1.79878e-06
1.79639e-06
1.79283e-06
1.79278e-06
1.79278e-06
1.79283e-06
1.79714e-06
1.79729e-06
1.79929e-06
1.79903e-06
1.79714e-06
1.79732e-06
1.7974e-06
1.79737e-06
1.79738e-06
1.79728e-06
1.79928e-06
1.79929e-06
1.79899e-06
1.79721e-06
1.79932e-06
1.79929e-06
1.77986e-06
1.77969e-06
1.77953e-06
1.7773e-06
1.77721e-06
1.77709e-06
1.77731e-06
1.77952e-06
1.77976e-06
1.77953e-06
1.77649e-06
1.77354e-06
1.77353e-06
1.77353e-06
1.77354e-06
1.77707e-06
1.77789e-06
1.7773e-06
1.77354e-06
1.7735e-06
1.7735e-06
1.7735e-06
1.7735e-06
1.77354e-06
1.77809e-06
1.78004e-06
1.77987e-06
1.77721e-06
1.77353e-06
1.7735e-06
1.7735e-06
1.7735e-06
1.7735e-06
1.77353e-06
1.77821e-06
1.77979e-06
1.77969e-06
1.77709e-06
1.77353e-06
1.7735e-06
1.7735e-06
1.7735e-06
1.7735e-06
1.77353e-06
1.77819e-06
1.77802e-06
1.77731e-06
1.77354e-06
1.7735e-06
1.7735e-06
1.7735e-06
1.7735e-06
1.77354e-06
1.77816e-06
1.78012e-06
1.77952e-06
1.77707e-06
1.77354e-06
1.77353e-06
1.77353e-06
1.77354e-06
1.77797e-06
1.77807e-06
1.78004e-06
1.77976e-06
1.77789e-06
1.77809e-06
1.77821e-06
1.77819e-06
1.77816e-06
1.77806e-06
1.78001e-06
1.78004e-06
1.77979e-06
1.77802e-06
1.78012e-06
1.78004e-06
1.76062e-06
1.76045e-06
1.76027e-06
1.75804e-06
1.75795e-06
1.75782e-06
1.75804e-06
1.76026e-06
1.7605e-06
1.76027e-06
1.75723e-06
1.75428e-06
1.75427e-06
1.75427e-06
1.75428e-06
1.75779e-06
1.75863e-06
1.75804e-06
1.75428e-06
1.75427e-06
1.75427e-06
1.75427e-06
1.75427e-06
1.75428e-06
1.75883e-06
1.76078e-06
1.76062e-06
1.75795e-06
1.75427e-06
1.75427e-06
1.75427e-06
1.75427e-06
1.75427e-06
1.75427e-06
1.75897e-06
1.76055e-06
1.76045e-06
1.75782e-06
1.75427e-06
1.75427e-06
1.75427e-06
1.75427e-06
1.75427e-06
1.75427e-06
1.75896e-06
1.75878e-06
1.75804e-06
1.75428e-06
1.75427e-06
1.75427e-06
1.75427e-06
1.75427e-06
1.75428e-06
1.75891e-06
1.76088e-06
1.76026e-06
1.75779e-06
1.75428e-06
1.75427e-06
1.75427e-06
1.75428e-06
1.75875e-06
1.75882e-06
1.76078e-06
1.7605e-06
1.75863e-06
1.75883e-06
1.75896e-06
1.75895e-06
1.75891e-06
1.75882e-06
1.76074e-06
1.76079e-06
1.76055e-06
1.75878e-06
1.76088e-06
1.76078e-06
1.74137e-06
1.7412e-06
1.74101e-06
1.73878e-06
1.73869e-06
1.73857e-06
1.73879e-06
1.74101e-06
1.74124e-06
1.74101e-06
1.73798e-06
1.73502e-06
1.73502e-06
1.73502e-06
1.73502e-06
1.73853e-06
1.73937e-06
1.73878e-06
1.73502e-06
1.73502e-06
1.73502e-06
1.73502e-06
1.73502e-06
1.73502e-06
1.73957e-06
1.74153e-06
1.74137e-06
1.73869e-06
1.73502e-06
1.73502e-06
1.73502e-06
1.73502e-06
1.73502e-06
1.73502e-06
1.73971e-06
1.7413e-06
1.7412e-06
1.73857e-06
1.73502e-06
1.73502e-06
1.73502e-06
1.73502e-06
1.73502e-06
1.73502e-06
1.7397e-06
1.73953e-06
1.73879e-06
1.73502e-06
1.73502e-06
1.73502e-06
1.73502e-06
1.73502e-06
1.73502e-06
1.73966e-06
1.74163e-06
1.74101e-06
1.73853e-06
1.73502e-06
1.73502e-06
1.73502e-06
1.73502e-06
1.7395e-06
1.73957e-06
1.74153e-06
1.74125e-06
1.73938e-06
1.73957e-06
1.73971e-06
1.73971e-06
1.73966e-06
1.73957e-06
1.74148e-06
1.74153e-06
1.7413e-06
1.73953e-06
1.74163e-06
1.74153e-06
1.72211e-06
1.72195e-06
1.72176e-06
1.71953e-06
1.71944e-06
1.71931e-06
1.71953e-06
1.72175e-06
1.72199e-06
1.72176e-06
1.71872e-06
1.71577e-06
1.71577e-06
1.71577e-06
1.71577e-06
1.71927e-06
1.72012e-06
1.71952e-06
1.71577e-06
1.71577e-06
1.71577e-06
1.71577e-06
1.71577e-06
1.71577e-06
1.72032e-06
1.72228e-06
1.72212e-06
1.71944e-06
1.71577e-06
1.71577e-06
1.71577e-06
1.71577e-06
1.71577e-06
1.71577e-06
1.72046e-06
1.72205e-06
1.72195e-06
1.71931e-06
1.71577e-06
1.71577e-06
1.71577e-06
1.71577e-06
1.71577e-06
1.71577e-06
1.72045e-06
1.72027e-06
1.71953e-06
1.71577e-06
1.71577e-06
1.71577e-06
1.71577e-06
1.71577e-06
1.71577e-06
1.72041e-06
1.72238e-06
1.72175e-06
1.71927e-06
1.71577e-06
1.71577e-06
1.71577e-06
1.71577e-06
1.72025e-06
1.72032e-06
1.72227e-06
1.72199e-06
1.72012e-06
1.72032e-06
1.72046e-06
1.72045e-06
1.72041e-06
1.72032e-06
1.72223e-06
1.72228e-06
1.72205e-06
1.72027e-06
1.72237e-06
1.72227e-06
1.70286e-06
1.70269e-06
1.70251e-06
1.70027e-06
1.70018e-06
1.70006e-06
1.70028e-06
1.7025e-06
1.70274e-06
1.7025e-06
1.69947e-06
1.69651e-06
1.69651e-06
1.69651e-06
1.69651e-06
1.70002e-06
1.70087e-06
1.70027e-06
1.69651e-06
1.69651e-06
1.69651e-06
1.69651e-06
1.69651e-06
1.69651e-06
1.70107e-06
1.70302e-06
1.70286e-06
1.70018e-06
1.69651e-06
1.69651e-06
1.69651e-06
1.69651e-06
1.69651e-06
1.69651e-06
1.70121e-06
1.70279e-06
1.70269e-06
1.70006e-06
1.69651e-06
1.69651e-06
1.69651e-06
1.69651e-06
1.69651e-06
1.69651e-06
1.7012e-06
1.70102e-06
1.70028e-06
1.69651e-06
1.69651e-06
1.69651e-06
1.69651e-06
1.69651e-06
1.69651e-06
1.70115e-06
1.70312e-06
1.7025e-06
1.70002e-06
1.69651e-06
1.69651e-06
1.69651e-06
1.69651e-06
1.701e-06
1.70106e-06
1.70302e-06
1.70274e-06
1.70087e-06
1.70106e-06
1.70121e-06
1.7012e-06
1.70115e-06
1.70107e-06
1.70298e-06
1.70302e-06
1.70279e-06
1.70102e-06
1.70312e-06
1.70302e-06
1.68361e-06
1.68344e-06
1.68325e-06
1.68102e-06
1.68093e-06
1.68081e-06
1.68103e-06
1.68325e-06
1.68348e-06
1.68325e-06
1.68022e-06
1.67726e-06
1.67726e-06
1.67726e-06
1.67726e-06
1.68076e-06
1.68161e-06
1.68102e-06
1.67726e-06
1.67726e-06
1.67726e-06
1.67726e-06
1.67726e-06
1.67726e-06
1.68181e-06
1.68377e-06
1.68361e-06
1.68093e-06
1.67726e-06
1.67726e-06
1.67726e-06
1.67726e-06
1.67726e-06
1.67726e-06
1.68195e-06
1.68354e-06
1.68344e-06
1.6808e-06
1.67726e-06
1.67726e-06
1.67726e-06
1.67726e-06
1.67726e-06
1.67726e-06
1.68195e-06
1.68177e-06
1.68103e-06
1.67726e-06
1.67726e-06
1.67726e-06
1.67726e-06
1.67726e-06
1.67726e-06
1.6819e-06
1.68387e-06
1.68325e-06
1.68077e-06
1.67726e-06
1.67726e-06
1.67726e-06
1.67726e-06
1.68174e-06
1.68181e-06
1.68377e-06
1.68349e-06
1.68162e-06
1.68181e-06
1.68195e-06
1.68195e-06
1.6819e-06
1.68182e-06
1.68372e-06
1.68377e-06
1.68354e-06
1.68177e-06
1.68387e-06
1.68377e-06
1.66436e-06
1.66419e-06
1.664e-06
1.66176e-06
1.66168e-06
1.66155e-06
1.66177e-06
1.66399e-06
1.66423e-06
1.664e-06
1.66096e-06
1.65801e-06
1.65801e-06
1.65801e-06
1.65801e-06
1.66151e-06
1.66236e-06
1.66176e-06
1.65801e-06
1.65801e-06
1.65801e-06
1.65801e-06
1.65801e-06
1.65801e-06
1.66256e-06
1.66452e-06
1.66436e-06
1.66168e-06
1.65801e-06
1.65801e-06
1.65801e-06
1.65801e-06
1.65801e-06
1.65801e-06
1.6627e-06
1.66429e-06
1.66419e-06
1.66155e-06
1.65801e-06
1.65801e-06
1.65801e-06
1.65801e-06
1.65801e-06
1.65801e-06
1.66269e-06
1.66251e-06
1.66177e-06
1.65801e-06
1.65801e-06
1.65801e-06
1.65801e-06
1.65801e-06
1.65801e-06
1.66265e-06
1.66462e-06
1.66399e-06
1.66151e-06
1.65801e-06
1.65801e-06
1.65801e-06
1.65801e-06
1.66249e-06
1.66256e-06
1.66451e-06
1.66423e-06
1.66236e-06
1.66256e-06
1.6627e-06
1.66269e-06
1.66265e-06
1.66256e-06
1.66447e-06
1.66452e-06
1.66429e-06
1.66251e-06
1.66462e-06
1.66451e-06
1.6451e-06
1.64493e-06
1.64474e-06
1.64251e-06
1.64242e-06
1.6423e-06
1.64252e-06
1.64474e-06
1.64497e-06
1.64474e-06
1.64171e-06
1.63875e-06
1.63875e-06
1.63875e-06
1.63875e-06
1.64226e-06
1.64311e-06
1.64251e-06
1.63875e-06
1.63875e-06
1.63875e-06
1.63875e-06
1.63875e-06
1.63875e-06
1.64331e-06
1.64526e-06
1.6451e-06
1.64242e-06
1.63875e-06
1.63875e-06
1.63875e-06
1.63875e-06
1.63875e-06
1.63875e-06
1.64345e-06
1.64503e-06
1.64493e-06
1.6423e-06
1.63875e-06
1.63875e-06
1.63875e-06
1.63875e-06
1.63875e-06
1.63875e-06
1.64344e-06
1.64326e-06
1.64252e-06
1.63875e-06
1.63875e-06
1.63875e-06
1.63875e-06
1.63875e-06
1.63875e-06
1.64339e-06
1.64536e-06
1.64474e-06
1.64226e-06
1.63875e-06
1.63875e-06
1.63875e-06
1.63875e-06
1.64324e-06
1.6433e-06
1.64526e-06
1.64498e-06
1.64311e-06
1.6433e-06
1.64345e-06
1.64344e-06
1.64339e-06
1.64331e-06
1.64521e-06
1.64526e-06
1.64503e-06
1.64326e-06
1.64536e-06
1.64526e-06
1.62585e-06
1.62568e-06
1.62549e-06
1.62326e-06
1.62317e-06
1.62304e-06
1.62326e-06
1.62549e-06
1.62572e-06
1.62549e-06
1.62245e-06
1.6195e-06
1.6195e-06
1.6195e-06
1.6195e-06
1.623e-06
1.62385e-06
1.62326e-06
1.6195e-06
1.6195e-06
1.6195e-06
1.6195e-06
1.6195e-06
1.6195e-06
1.62405e-06
1.62601e-06
1.62585e-06
1.62317e-06
1.6195e-06
1.6195e-06
1.6195e-06
1.6195e-06
1.6195e-06
1.6195e-06
1.62419e-06
1.62578e-06
1.62568e-06
1.62304e-06
1.6195e-06
1.6195e-06
1.6195e-06
1.6195e-06
1.6195e-06
1.6195e-06
1.62419e-06
1.62401e-06
1.62326e-06
1.6195e-06
1.6195e-06
1.6195e-06
1.6195e-06
1.6195e-06
1.6195e-06
1.62414e-06
1.62611e-06
1.62549e-06
1.623e-06
1.6195e-06
1.6195e-06
1.6195e-06
1.6195e-06
1.62398e-06
1.62405e-06
1.626e-06
1.62572e-06
1.62385e-06
1.62405e-06
1.62419e-06
1.62418e-06
1.62414e-06
1.62405e-06
1.62596e-06
1.62601e-06
1.62578e-06
1.62401e-06
1.62611e-06
1.62601e-06
1.60659e-06
1.60642e-06
1.60623e-06
1.604e-06
1.60391e-06
1.60379e-06
1.60401e-06
1.60623e-06
1.60647e-06
1.60624e-06
1.6032e-06
1.60024e-06
1.60025e-06
1.60025e-06
1.60025e-06
1.60375e-06
1.6046e-06
1.604e-06
1.60025e-06
1.60025e-06
1.60025e-06
1.60025e-06
1.60025e-06
1.60025e-06
1.6048e-06
1.60675e-06
1.6066e-06
1.60391e-06
1.60024e-06
1.60025e-06
1.60025e-06
1.60025e-06
1.60025e-06
1.60025e-06
1.60494e-06
1.60653e-06
1.60642e-06
1.60379e-06
1.60025e-06
1.60025e-06
1.60025e-06
1.60025e-06
1.60025e-06
1.60025e-06
1.60493e-06
1.60475e-06
1.60401e-06
1.60025e-06
1.60025e-06
1.60025e-06
1.60025e-06
1.60025e-06
1.60025e-06
1.60488e-06
1.60685e-06
1.60623e-06
1.60375e-06
1.60025e-06
1.60025e-06
1.60025e-06
1.60025e-06
1.60473e-06
1.6048e-06
1.60675e-06
1.60647e-06
1.6046e-06
1.6048e-06
1.60494e-06
1.60493e-06
1.60488e-06
1.6048e-06
1.60671e-06
1.60676e-06
1.60653e-06
1.60475e-06
1.60685e-06
1.60675e-06
1.58734e-06
1.58717e-06
1.58698e-06
1.58475e-06
1.58466e-06
1.58454e-06
1.58476e-06
1.58698e-06
1.58721e-06
1.58698e-06
1.58395e-06
1.58099e-06
1.58099e-06
1.58099e-06
1.58099e-06
1.5845e-06
1.58535e-06
1.58475e-06
1.58099e-06
1.58099e-06
1.58099e-06
1.58099e-06
1.58099e-06
1.58099e-06
1.58555e-06
1.5875e-06
1.58734e-06
1.58466e-06
1.58099e-06
1.58099e-06
1.58099e-06
1.58099e-06
1.58099e-06
1.58099e-06
1.58569e-06
1.58727e-06
1.58717e-06
1.58454e-06
1.58099e-06
1.58099e-06
1.58099e-06
1.58099e-06
1.58099e-06
1.58099e-06
1.58568e-06
1.5855e-06
1.58476e-06
1.58099e-06
1.58099e-06
1.58099e-06
1.58099e-06
1.58099e-06
1.58099e-06
1.58563e-06
1.5876e-06
1.58698e-06
1.5845e-06
1.58099e-06
1.58099e-06
1.58099e-06
1.58099e-06
1.58547e-06
1.58554e-06
1.5875e-06
1.58722e-06
1.58535e-06
1.58554e-06
1.58569e-06
1.58568e-06
1.58563e-06
1.58555e-06
1.58745e-06
1.5875e-06
1.58727e-06
1.5855e-06
1.5876e-06
1.5875e-06
1.56809e-06
1.56792e-06
1.56773e-06
1.5655e-06
1.56541e-06
1.56528e-06
1.56551e-06
1.56773e-06
1.56796e-06
1.56773e-06
1.56469e-06
1.56174e-06
1.56174e-06
1.56174e-06
1.56174e-06
1.56524e-06
1.56609e-06
1.5655e-06
1.56174e-06
1.56174e-06
1.56174e-06
1.56174e-06
1.56174e-06
1.56174e-06
1.56629e-06
1.56825e-06
1.56809e-06
1.56541e-06
1.56174e-06
1.56174e-06
1.56174e-06
1.56174e-06
1.56174e-06
1.56174e-06
1.56643e-06
1.56802e-06
1.56792e-06
1.56528e-06
1.56174e-06
1.56174e-06
1.56174e-06
1.56174e-06
1.56174e-06
1.56174e-06
1.56643e-06
1.56625e-06
1.5655e-06
1.56174e-06
1.56174e-06
1.56174e-06
1.56174e-06
1.56174e-06
1.56174e-06
1.56638e-06
1.56835e-06
1.56773e-06
1.56524e-06
1.56174e-06
1.56174e-06
1.56174e-06
1.56174e-06
1.56622e-06
1.56629e-06
1.56824e-06
1.56796e-06
1.56609e-06
1.56629e-06
1.56643e-06
1.56642e-06
1.56638e-06
1.56629e-06
1.5682e-06
1.56825e-06
1.56802e-06
1.56625e-06
1.56835e-06
1.56825e-06
1.54883e-06
1.54867e-06
1.54847e-06
1.54625e-06
1.54616e-06
1.54603e-06
1.54625e-06
1.54847e-06
1.54871e-06
1.54848e-06
1.54544e-06
1.54249e-06
1.54249e-06
1.54249e-06
1.54249e-06
1.54599e-06
1.54684e-06
1.54624e-06
1.54249e-06
1.54249e-06
1.54249e-06
1.54249e-06
1.54249e-06
1.54249e-06
1.54704e-06
1.549e-06
1.54884e-06
1.54615e-06
1.54249e-06
1.54249e-06
1.54249e-06
1.54249e-06
1.54249e-06
1.54249e-06
1.54718e-06
1.54877e-06
1.54867e-06
1.54603e-06
1.54249e-06
1.54249e-06
1.54249e-06
1.54249e-06
1.54249e-06
1.54249e-06
1.54717e-06
1.54699e-06
1.54625e-06
1.54249e-06
1.54249e-06
1.54249e-06
1.54249e-06
1.54249e-06
1.54249e-06
1.54713e-06
1.5491e-06
1.54847e-06
1.54599e-06
1.54249e-06
1.54249e-06
1.54249e-06
1.54249e-06
1.54697e-06
1.54704e-06
1.54899e-06
1.54871e-06
1.54684e-06
1.54704e-06
1.54718e-06
1.54717e-06
1.54713e-06
1.54704e-06
1.54895e-06
1.549e-06
1.54877e-06
1.54699e-06
1.5491e-06
1.54899e-06
1.52958e-06
1.52941e-06
1.52922e-06
1.52699e-06
1.5269e-06
1.52678e-06
1.527e-06
1.52922e-06
1.52946e-06
1.52922e-06
1.52619e-06
1.52323e-06
1.52323e-06
1.52323e-06
1.52323e-06
1.52674e-06
1.52759e-06
1.52699e-06
1.52323e-06
1.52323e-06
1.52323e-06
1.52323e-06
1.52323e-06
1.52323e-06
1.52779e-06
1.52974e-06
1.52958e-06
1.5269e-06
1.52323e-06
1.52323e-06
1.52323e-06
1.52323e-06
1.52323e-06
1.52323e-06
1.52793e-06
1.52951e-06
1.52941e-06
1.52678e-06
1.52323e-06
1.52323e-06
1.52323e-06
1.52323e-06
1.52323e-06
1.52323e-06
1.52792e-06
1.52774e-06
1.527e-06
1.52323e-06
1.52323e-06
1.52323e-06
1.52323e-06
1.52323e-06
1.52323e-06
1.52787e-06
1.52984e-06
1.52922e-06
1.52674e-06
1.52323e-06
1.52323e-06
1.52323e-06
1.52323e-06
1.52772e-06
1.52779e-06
1.52974e-06
1.52946e-06
1.52759e-06
1.52779e-06
1.52793e-06
1.52792e-06
1.52787e-06
1.52779e-06
1.5297e-06
1.52975e-06
1.52952e-06
1.52774e-06
1.52984e-06
1.52974e-06
1.51033e-06
1.51016e-06
1.50997e-06
1.50774e-06
1.50765e-06
1.50753e-06
1.50775e-06
1.50997e-06
1.5102e-06
1.50997e-06
1.50694e-06
1.50398e-06
1.50398e-06
1.50398e-06
1.50398e-06
1.50749e-06
1.50834e-06
1.50774e-06
1.50398e-06
1.50398e-06
1.50398e-06
1.50398e-06
1.50398e-06
1.50398e-06
1.50854e-06
1.51049e-06
1.51033e-06
1.50765e-06
1.50398e-06
1.50398e-06
1.50398e-06
1.50398e-06
1.50398e-06
1.50398e-06
1.50868e-06
1.51026e-06
1.51016e-06
1.50753e-06
1.50398e-06
1.50398e-06
1.50398e-06
1.50398e-06
1.50398e-06
1.50398e-06
1.50867e-06
1.50849e-06
1.50775e-06
1.50398e-06
1.50398e-06
1.50398e-06
1.50398e-06
1.50398e-06
1.50398e-06
1.50862e-06
1.51059e-06
1.50997e-06
1.50749e-06
1.50398e-06
1.50398e-06
1.50398e-06
1.50398e-06
1.50846e-06
1.50853e-06
1.51049e-06
1.51021e-06
1.50834e-06
1.50853e-06
1.50868e-06
1.50867e-06
1.50862e-06
1.50854e-06
1.51044e-06
1.51049e-06
1.51026e-06
1.50849e-06
1.51059e-06
1.51049e-06
1.49108e-06
1.49091e-06
1.49072e-06
1.48849e-06
1.4884e-06
1.48828e-06
1.4885e-06
1.49072e-06
1.49095e-06
1.49072e-06
1.48769e-06
1.48473e-06
1.48473e-06
1.48473e-06
1.48473e-06
1.48824e-06
1.48908e-06
1.48849e-06
1.48473e-06
1.48473e-06
1.48473e-06
1.48473e-06
1.48473e-06
1.48473e-06
1.48928e-06
1.49124e-06
1.49108e-06
1.4884e-06
1.48473e-06
1.48473e-06
1.48473e-06
1.48473e-06
1.48473e-06
1.48473e-06
1.48942e-06
1.49101e-06
1.49091e-06
1.48827e-06
1.48473e-06
1.48473e-06
1.48473e-06
1.48473e-06
1.48473e-06
1.48473e-06
1.48942e-06
1.48924e-06
1.4885e-06
1.48473e-06
1.48473e-06
1.48473e-06
1.48473e-06
1.48473e-06
1.48473e-06
1.48937e-06
1.49134e-06
1.49072e-06
1.48823e-06
1.48473e-06
1.48473e-06
1.48473e-06
1.48473e-06
1.48921e-06
1.48928e-06
1.49124e-06
1.49095e-06
1.48908e-06
1.48928e-06
1.48942e-06
1.48942e-06
1.48937e-06
1.48929e-06
1.49119e-06
1.49124e-06
1.49101e-06
1.48924e-06
1.49134e-06
1.49124e-06
1.47183e-06
1.47166e-06
1.47146e-06
1.46924e-06
1.46915e-06
1.46902e-06
1.46924e-06
1.47146e-06
1.4717e-06
1.47147e-06
1.46843e-06
1.46548e-06
1.46548e-06
1.46548e-06
1.46548e-06
1.46898e-06
1.46983e-06
1.46924e-06
1.46548e-06
1.46548e-06
1.46548e-06
1.46548e-06
1.46548e-06
1.46548e-06
1.47003e-06
1.47199e-06
1.47183e-06
1.46915e-06
1.46548e-06
1.46548e-06
1.46548e-06
1.46548e-06
1.46548e-06
1.46548e-06
1.47017e-06
1.47176e-06
1.47166e-06
1.46902e-06
1.46548e-06
1.46548e-06
1.46548e-06
1.46548e-06
1.46548e-06
1.46548e-06
1.47016e-06
1.46998e-06
1.46924e-06
1.46548e-06
1.46548e-06
1.46548e-06
1.46548e-06
1.46548e-06
1.46548e-06
1.47012e-06
1.47209e-06
1.47146e-06
1.46898e-06
1.46548e-06
1.46548e-06
1.46548e-06
1.46548e-06
1.46996e-06
1.47003e-06
1.47198e-06
1.4717e-06
1.46983e-06
1.47003e-06
1.47017e-06
1.47016e-06
1.47012e-06
1.47003e-06
1.47194e-06
1.47199e-06
1.47176e-06
1.46998e-06
1.47209e-06
1.47198e-06
1.45257e-06
1.4524e-06
1.45221e-06
1.44998e-06
1.44989e-06
1.44977e-06
1.44999e-06
1.45221e-06
1.45245e-06
1.45221e-06
1.44918e-06
1.44622e-06
1.44622e-06
1.44622e-06
1.44622e-06
1.44973e-06
1.45058e-06
1.44998e-06
1.44622e-06
1.44622e-06
1.44622e-06
1.44622e-06
1.44622e-06
1.44622e-06
1.45078e-06
1.45273e-06
1.45257e-06
1.44989e-06
1.44622e-06
1.44622e-06
1.44622e-06
1.44622e-06
1.44622e-06
1.44622e-06
1.45092e-06
1.4525e-06
1.4524e-06
1.44977e-06
1.44622e-06
1.44622e-06
1.44622e-06
1.44622e-06
1.44622e-06
1.44622e-06
1.45091e-06
1.45073e-06
1.44999e-06
1.44622e-06
1.44622e-06
1.44622e-06
1.44622e-06
1.44622e-06
1.44622e-06
1.45086e-06
1.45283e-06
1.45221e-06
1.44973e-06
1.44622e-06
1.44622e-06
1.44622e-06
1.44622e-06
1.45071e-06
1.45077e-06
1.45273e-06
1.45245e-06
1.45058e-06
1.45078e-06
1.45092e-06
1.45091e-06
1.45086e-06
1.45078e-06
1.45269e-06
1.45273e-06
1.4525e-06
1.45073e-06
1.45283e-06
1.45273e-06
1.43332e-06
1.43315e-06
1.43296e-06
1.43073e-06
1.43064e-06
1.43052e-06
1.43074e-06
1.43296e-06
1.43319e-06
1.43296e-06
1.42993e-06
1.42697e-06
1.42697e-06
1.42697e-06
1.42697e-06
1.43048e-06
1.43132e-06
1.43073e-06
1.42697e-06
1.42697e-06
1.42697e-06
1.42697e-06
1.42697e-06
1.42697e-06
1.43152e-06
1.43348e-06
1.43332e-06
1.43064e-06
1.42697e-06
1.42697e-06
1.42697e-06
1.42697e-06
1.42697e-06
1.42697e-06
1.43166e-06
1.43325e-06
1.43315e-06
1.43051e-06
1.42697e-06
1.42697e-06
1.42697e-06
1.42697e-06
1.42697e-06
1.42697e-06
1.43166e-06
1.43148e-06
1.43074e-06
1.42697e-06
1.42697e-06
1.42697e-06
1.42697e-06
1.42697e-06
1.42697e-06
1.43161e-06
1.43358e-06
1.43296e-06
1.43047e-06
1.42697e-06
1.42697e-06
1.42697e-06
1.42697e-06
1.43145e-06
1.43152e-06
1.43348e-06
1.43319e-06
1.43132e-06
1.43152e-06
1.43166e-06
1.43166e-06
1.43161e-06
1.43153e-06
1.43343e-06
1.43348e-06
1.43325e-06
1.43148e-06
1.43358e-06
1.43348e-06
1.41407e-06
1.4139e-06
1.4137e-06
1.41148e-06
1.41139e-06
1.41126e-06
1.41148e-06
1.41371e-06
1.41394e-06
1.41371e-06
1.41067e-06
1.40772e-06
1.40772e-06
1.40772e-06
1.40772e-06
1.41122e-06
1.41207e-06
1.41147e-06
1.40772e-06
1.40772e-06
1.40772e-06
1.40772e-06
1.40772e-06
1.40772e-06
1.41227e-06
1.41423e-06
1.41407e-06
1.41139e-06
1.40772e-06
1.40772e-06
1.40772e-06
1.40772e-06
1.40772e-06
1.40772e-06
1.41241e-06
1.414e-06
1.4139e-06
1.41126e-06
1.40772e-06
1.40772e-06
1.40772e-06
1.40772e-06
1.40772e-06
1.40772e-06
1.4124e-06
1.41222e-06
1.41148e-06
1.40772e-06
1.40772e-06
1.40772e-06
1.40772e-06
1.40772e-06
1.40772e-06
1.41236e-06
1.41433e-06
1.4137e-06
1.41122e-06
1.40772e-06
1.40772e-06
1.40772e-06
1.40772e-06
1.4122e-06
1.41227e-06
1.41422e-06
1.41394e-06
1.41207e-06
1.41227e-06
1.41241e-06
1.4124e-06
1.41236e-06
1.41227e-06
1.41418e-06
1.41423e-06
1.414e-06
1.41222e-06
1.41433e-06
1.41422e-06
1.39481e-06
1.39464e-06
1.39445e-06
1.39222e-06
1.39213e-06
1.39201e-06
1.39223e-06
1.39445e-06
1.39469e-06
1.39445e-06
1.39142e-06
1.38846e-06
1.38846e-06
1.38846e-06
1.38846e-06
1.39197e-06
1.39282e-06
1.39222e-06
1.38846e-06
1.38846e-06
1.38846e-06
1.38846e-06
1.38846e-06
1.38846e-06
1.39302e-06
1.39497e-06
1.39481e-06
1.39213e-06
1.38846e-06
1.38846e-06
1.38846e-06
1.38846e-06
1.38846e-06
1.38846e-06
1.39316e-06
1.39474e-06
1.39464e-06
1.39201e-06
1.38846e-06
1.38846e-06
1.38846e-06
1.38846e-06
1.38846e-06
1.38846e-06
1.39315e-06
1.39297e-06
1.39223e-06
1.38846e-06
1.38846e-06
1.38846e-06
1.38846e-06
1.38846e-06
1.38846e-06
1.3931e-06
1.39507e-06
1.39445e-06
1.39197e-06
1.38846e-06
1.38846e-06
1.38846e-06
1.38846e-06
1.39295e-06
1.39301e-06
1.39497e-06
1.39469e-06
1.39282e-06
1.39302e-06
1.39316e-06
1.39315e-06
1.3931e-06
1.39302e-06
1.39493e-06
1.39498e-06
1.39475e-06
1.39297e-06
1.39507e-06
1.39497e-06
1.37556e-06
1.37539e-06
1.3752e-06
1.37297e-06
1.37288e-06
1.37276e-06
1.37298e-06
1.3752e-06
1.37543e-06
1.3752e-06
1.37217e-06
1.36921e-06
1.36921e-06
1.36921e-06
1.36921e-06
1.37272e-06
1.37356e-06
1.37297e-06
1.36921e-06
1.36921e-06
1.36921e-06
1.36921e-06
1.36921e-06
1.36921e-06
1.37376e-06
1.37572e-06
1.37556e-06
1.37288e-06
1.36921e-06
1.36921e-06
1.36921e-06
1.36921e-06
1.36921e-06
1.36921e-06
1.37391e-06
1.37549e-06
1.37539e-06
1.37276e-06
1.36921e-06
1.36921e-06
1.36921e-06
1.36921e-06
1.36921e-06
1.36921e-06
1.3739e-06
1.37372e-06
1.37298e-06
1.36921e-06
1.36921e-06
1.36921e-06
1.36921e-06
1.36921e-06
1.36921e-06
1.37385e-06
1.37582e-06
1.3752e-06
1.37272e-06
1.36921e-06
1.36921e-06
1.36921e-06
1.36921e-06
1.37369e-06
1.37376e-06
1.37572e-06
1.37544e-06
1.37357e-06
1.37376e-06
1.3739e-06
1.3739e-06
1.37385e-06
1.37377e-06
1.37567e-06
1.37572e-06
1.37549e-06
1.37372e-06
1.37582e-06
1.37572e-06
1.35631e-06
1.35614e-06
1.35595e-06
1.35372e-06
1.35363e-06
1.3535e-06
1.35372e-06
1.35595e-06
1.35618e-06
1.35595e-06
1.35291e-06
1.34996e-06
1.34996e-06
1.34996e-06
1.34996e-06
1.35346e-06
1.35431e-06
1.35372e-06
1.34996e-06
1.34996e-06
1.34996e-06
1.34996e-06
1.34996e-06
1.34996e-06
1.35451e-06
1.35647e-06
1.35631e-06
1.35363e-06
1.34996e-06
1.34996e-06
1.34996e-06
1.34996e-06
1.34996e-06
1.34996e-06
1.35465e-06
1.35624e-06
1.35614e-06
1.3535e-06
1.34996e-06
1.34996e-06
1.34996e-06
1.34996e-06
1.34996e-06
1.34996e-06
1.35464e-06
1.35446e-06
1.35372e-06
1.34996e-06
1.34996e-06
1.34996e-06
1.34996e-06
1.34996e-06
1.34996e-06
1.3546e-06
1.35657e-06
1.35594e-06
1.35346e-06
1.34996e-06
1.34996e-06
1.34996e-06
1.34996e-06
1.35444e-06
1.35451e-06
1.35646e-06
1.35618e-06
1.35431e-06
1.35451e-06
1.35465e-06
1.35464e-06
1.3546e-06
1.35451e-06
1.35642e-06
1.35647e-06
1.35624e-06
1.35447e-06
1.35657e-06
1.35646e-06
1.33705e-06
1.33688e-06
1.33669e-06
1.33446e-06
1.33437e-06
1.33425e-06
1.33447e-06
1.33669e-06
1.33693e-06
1.33669e-06
1.33366e-06
1.33071e-06
1.33071e-06
1.33071e-06
1.33071e-06
1.33421e-06
1.33506e-06
1.33446e-06
1.33071e-06
1.33071e-06
1.33071e-06
1.33071e-06
1.33071e-06
1.33071e-06
1.33526e-06
1.33721e-06
1.33706e-06
1.33437e-06
1.33071e-06
1.33071e-06
1.33071e-06
1.33071e-06
1.33071e-06
1.33071e-06
1.3354e-06
1.33699e-06
1.33688e-06
1.33425e-06
1.33071e-06
1.33071e-06
1.33071e-06
1.33071e-06
1.33071e-06
1.33071e-06
1.33539e-06
1.33521e-06
1.33447e-06
1.33071e-06
1.33071e-06
1.33071e-06
1.33071e-06
1.33071e-06
1.33071e-06
1.33535e-06
1.33731e-06
1.33669e-06
1.33421e-06
1.33071e-06
1.33071e-06
1.33071e-06
1.33071e-06
1.33519e-06
1.33526e-06
1.33721e-06
1.33693e-06
1.33506e-06
1.33526e-06
1.3354e-06
1.33539e-06
1.33535e-06
1.33526e-06
1.33717e-06
1.33722e-06
1.33699e-06
1.33521e-06
1.33731e-06
1.33721e-06
1.3178e-06
1.31763e-06
1.31744e-06
1.31521e-06
1.31512e-06
1.315e-06
1.31522e-06
1.31744e-06
1.31767e-06
1.31744e-06
1.31441e-06
1.31145e-06
1.31145e-06
1.31145e-06
1.31145e-06
1.31496e-06
1.31581e-06
1.31521e-06
1.31145e-06
1.31145e-06
1.31145e-06
1.31145e-06
1.31145e-06
1.31145e-06
1.31601e-06
1.31796e-06
1.3178e-06
1.31512e-06
1.31145e-06
1.31145e-06
1.31145e-06
1.31145e-06
1.31145e-06
1.31145e-06
1.31615e-06
1.31773e-06
1.31763e-06
1.315e-06
1.31145e-06
1.31145e-06
1.31145e-06
1.31145e-06
1.31145e-06
1.31145e-06
1.31614e-06
1.31596e-06
1.31522e-06
1.31145e-06
1.31145e-06
1.31145e-06
1.31145e-06
1.31145e-06
1.31145e-06
1.31609e-06
1.31806e-06
1.31744e-06
1.31496e-06
1.31145e-06
1.31145e-06
1.31145e-06
1.31145e-06
1.31593e-06
1.316e-06
1.31796e-06
1.31768e-06
1.31581e-06
1.316e-06
1.31615e-06
1.31614e-06
1.31609e-06
1.31601e-06
1.31791e-06
1.31796e-06
1.31773e-06
1.31596e-06
1.31806e-06
1.31796e-06
1.29855e-06
1.29838e-06
1.29819e-06
1.29596e-06
1.29587e-06
1.29574e-06
1.29597e-06
1.29819e-06
1.29842e-06
1.29819e-06
1.29515e-06
1.2922e-06
1.2922e-06
1.2922e-06
1.2922e-06
1.2957e-06
1.29655e-06
1.29596e-06
1.2922e-06
1.2922e-06
1.2922e-06
1.2922e-06
1.2922e-06
1.2922e-06
1.29675e-06
1.29871e-06
1.29855e-06
1.29587e-06
1.2922e-06
1.2922e-06
1.2922e-06
1.2922e-06
1.2922e-06
1.2922e-06
1.29689e-06
1.29848e-06
1.29838e-06
1.29574e-06
1.2922e-06
1.2922e-06
1.2922e-06
1.2922e-06
1.2922e-06
1.2922e-06
1.29689e-06
1.29671e-06
1.29596e-06
1.2922e-06
1.2922e-06
1.2922e-06
1.2922e-06
1.2922e-06
1.2922e-06
1.29684e-06
1.29881e-06
1.29819e-06
1.2957e-06
1.2922e-06
1.2922e-06
1.2922e-06
1.2922e-06
1.29668e-06
1.29675e-06
1.2987e-06
1.29842e-06
1.29655e-06
1.29675e-06
1.29689e-06
1.29688e-06
1.29684e-06
1.29675e-06
1.29866e-06
1.29871e-06
1.29848e-06
1.29671e-06
1.29881e-06
1.29871e-06
1.27929e-06
1.27912e-06
1.27893e-06
1.2767e-06
1.27661e-06
1.27649e-06
1.27671e-06
1.27893e-06
1.27917e-06
1.27894e-06
1.2759e-06
1.27295e-06
1.27294e-06
1.27294e-06
1.27294e-06
1.27645e-06
1.2773e-06
1.2767e-06
1.27294e-06
1.27294e-06
1.27294e-06
1.27294e-06
1.27294e-06
1.27294e-06
1.2775e-06
1.27945e-06
1.2793e-06
1.27661e-06
1.27294e-06
1.27294e-06
1.27294e-06
1.27294e-06
1.27294e-06
1.27294e-06
1.27764e-06
1.27923e-06
1.27912e-06
1.27649e-06
1.27294e-06
1.27294e-06
1.27294e-06
1.27294e-06
1.27294e-06
1.27294e-06
1.27763e-06
1.27745e-06
1.27671e-06
1.27294e-06
1.27294e-06
1.27294e-06
1.27294e-06
1.27294e-06
1.27294e-06
1.27758e-06
1.27956e-06
1.27893e-06
1.27645e-06
1.27294e-06
1.27294e-06
1.27294e-06
1.27294e-06
1.27743e-06
1.2775e-06
1.27945e-06
1.27917e-06
1.2773e-06
1.2775e-06
1.27764e-06
1.27763e-06
1.27758e-06
1.2775e-06
1.27941e-06
1.27946e-06
1.27923e-06
1.27745e-06
1.27955e-06
1.27945e-06
1.26004e-06
1.25987e-06
1.25968e-06
1.25745e-06
1.25736e-06
1.25724e-06
1.25746e-06
1.25968e-06
1.25991e-06
1.25968e-06
1.25665e-06
1.25369e-06
1.25369e-06
1.25369e-06
1.25369e-06
1.2572e-06
1.25804e-06
1.25745e-06
1.25369e-06
1.25369e-06
1.25369e-06
1.25369e-06
1.25369e-06
1.25369e-06
1.25824e-06
1.2602e-06
1.26004e-06
1.25736e-06
1.25369e-06
1.25369e-06
1.25369e-06
1.25369e-06
1.25369e-06
1.25369e-06
1.25838e-06
1.25997e-06
1.25987e-06
1.25723e-06
1.25369e-06
1.25369e-06
1.25369e-06
1.25369e-06
1.25369e-06
1.25369e-06
1.25838e-06
1.2582e-06
1.25746e-06
1.25369e-06
1.25369e-06
1.25369e-06
1.25369e-06
1.25369e-06
1.25369e-06
1.25833e-06
1.2603e-06
1.25968e-06
1.25719e-06
1.25369e-06
1.25369e-06
1.25369e-06
1.25369e-06
1.25817e-06
1.25824e-06