/*--------------------------------*- C++ -*----------------------------------*\
| =========                 |                                                 |
| \\      /  F ield         | OpenFOAM: The Open Source CFD Toolbox           |
|  \\    /   O peration     | Version:  v2012                                 |
|   \\  /    A nd           | Website:  www.openfoam.com                      |
|    \\/     M anipulation  |                                                 |
\*---------------------------------------------------------------------------*/
FoamFile
{
    version     2.0;
    format      ascii;
    class       volScalarField;
    location    "0.49";
    object      p;
}
// * * * * * * * * * * * * * * * * * * * * * * * * * * * * * * * * * * * * * //

dimensions      [0 2 -2 0 0 0 0];


internalField   nonuniform List<scalar> 
247104
(
1.82956e-06
1.82942e-06
1.82958e-06
1.82957e-06
1.8295e-06
1.82958e-06
1.82956e-06
1.82936e-06
1.82942e-06
1.8295e-06
1.82955e-06
1.8294e-06
1.82932e-06
1.82942e-06
1.82956e-06
1.82947e-06
1.82958e-06
1.82955e-06
1.82925e-06
1.82889e-06
1.82876e-06
1.82893e-06
1.8293e-06
1.82957e-06
1.82958e-06
1.82957e-06
1.8294e-06
1.82889e-06
1.82842e-06
1.82825e-06
1.82847e-06
1.82896e-06
1.82945e-06
1.82957e-06
1.82955e-06
1.8295e-06
1.82932e-06
1.82876e-06
1.82825e-06
1.82807e-06
1.8283e-06
1.82883e-06
1.82937e-06
1.82948e-06
1.82958e-06
1.82942e-06
1.82893e-06
1.82846e-06
1.8283e-06
1.82851e-06
1.829e-06
1.82947e-06
1.82959e-06
1.82956e-06
1.82956e-06
1.8293e-06
1.82896e-06
1.82883e-06
1.829e-06
1.82934e-06
1.82958e-06
1.82956e-06
1.82936e-06
1.82947e-06
1.82957e-06
1.82945e-06
1.82937e-06
1.82947e-06
1.82958e-06
1.82943e-06
1.82958e-06
1.82957e-06
1.82948e-06
1.82959e-06
1.82956e-06
1.79707e-06
1.79513e-06
1.79445e-06
1.79322e-06
1.79322e-06
1.79317e-06
1.79316e-06
1.79451e-06
1.79469e-06
1.79444e-06
1.79238e-06
1.78986e-06
1.78985e-06
1.78985e-06
1.78986e-06
1.79276e-06
1.79306e-06
1.79322e-06
1.78985e-06
1.78979e-06
1.78987e-06
1.78987e-06
1.78979e-06
1.78986e-06
1.79316e-06
1.79457e-06
1.79707e-06
1.79321e-06
1.78985e-06
1.78987e-06
1.78995e-06
1.78996e-06
1.78987e-06
1.78985e-06
1.7932e-06
1.79483e-06
1.79513e-06
1.79316e-06
1.78985e-06
1.78987e-06
1.78996e-06
1.78996e-06
1.78987e-06
1.78985e-06
1.79334e-06
1.79345e-06
1.79316e-06
1.78985e-06
1.78979e-06
1.78987e-06
1.78987e-06
1.78979e-06
1.78986e-06
1.79316e-06
1.79451e-06
1.79451e-06
1.79276e-06
1.78985e-06
1.78985e-06
1.78985e-06
1.78986e-06
1.79304e-06
1.79319e-06
1.79467e-06
1.79468e-06
1.79306e-06
1.79316e-06
1.7932e-06
1.79334e-06
1.79315e-06
1.79319e-06
1.79467e-06
1.79457e-06
1.79483e-06
1.79344e-06
1.79451e-06
1.79466e-06
1.77702e-06
1.77685e-06
1.77668e-06
1.77461e-06
1.77449e-06
1.77444e-06
1.77458e-06
1.77661e-06
1.77688e-06
1.77668e-06
1.77392e-06
1.77096e-06
1.77094e-06
1.77094e-06
1.77096e-06
1.77432e-06
1.77504e-06
1.77461e-06
1.77095e-06
1.77077e-06
1.77082e-06
1.77082e-06
1.77077e-06
1.77096e-06
1.77512e-06
1.77706e-06
1.77702e-06
1.77449e-06
1.77093e-06
1.77082e-06
1.77086e-06
1.77086e-06
1.77082e-06
1.77094e-06
1.77516e-06
1.77682e-06
1.77685e-06
1.77444e-06
1.77093e-06
1.77082e-06
1.77086e-06
1.77086e-06
1.77082e-06
1.77094e-06
1.77512e-06
1.77519e-06
1.77458e-06
1.77096e-06
1.77077e-06
1.77082e-06
1.77082e-06
1.77077e-06
1.77096e-06
1.77515e-06
1.77715e-06
1.77661e-06
1.77432e-06
1.77096e-06
1.77094e-06
1.77094e-06
1.77095e-06
1.77478e-06
1.77512e-06
1.77709e-06
1.77688e-06
1.77504e-06
1.77512e-06
1.77516e-06
1.77511e-06
1.77515e-06
1.77512e-06
1.77693e-06
1.77706e-06
1.77682e-06
1.77519e-06
1.77715e-06
1.77708e-06
1.75824e-06
1.75807e-06
1.75794e-06
1.75582e-06
1.7557e-06
1.75562e-06
1.7558e-06
1.75785e-06
1.75814e-06
1.75794e-06
1.75514e-06
1.75215e-06
1.75213e-06
1.75213e-06
1.75215e-06
1.7555e-06
1.75628e-06
1.75582e-06
1.75215e-06
1.75206e-06
1.75208e-06
1.75208e-06
1.75206e-06
1.75215e-06
1.75634e-06
1.75828e-06
1.75824e-06
1.7557e-06
1.75213e-06
1.75208e-06
1.75209e-06
1.75209e-06
1.75208e-06
1.75213e-06
1.75638e-06
1.75804e-06
1.75807e-06
1.75563e-06
1.75213e-06
1.75208e-06
1.75209e-06
1.75209e-06
1.75208e-06
1.75213e-06
1.75635e-06
1.75642e-06
1.7558e-06
1.75215e-06
1.75206e-06
1.75208e-06
1.75208e-06
1.75206e-06
1.75215e-06
1.75637e-06
1.75836e-06
1.75786e-06
1.75551e-06
1.75215e-06
1.75213e-06
1.75213e-06
1.75215e-06
1.75609e-06
1.75638e-06
1.75833e-06
1.75814e-06
1.75628e-06
1.75634e-06
1.75638e-06
1.75635e-06
1.75637e-06
1.75638e-06
1.75836e-06
1.75828e-06
1.75804e-06
1.75642e-06
1.75836e-06
1.75833e-06
1.73942e-06
1.73926e-06
1.73909e-06
1.73698e-06
1.73686e-06
1.73679e-06
1.73696e-06
1.73902e-06
1.7393e-06
1.73909e-06
1.7363e-06
1.73331e-06
1.7333e-06
1.7333e-06
1.73331e-06
1.73664e-06
1.73744e-06
1.73698e-06
1.73331e-06
1.73328e-06
1.73329e-06
1.73329e-06
1.73328e-06
1.73331e-06
1.73751e-06
1.73945e-06
1.73942e-06
1.73686e-06
1.7333e-06
1.73329e-06
1.73329e-06
1.73329e-06
1.73329e-06
1.7333e-06
1.73756e-06
1.73923e-06
1.73926e-06
1.73679e-06
1.7333e-06
1.73329e-06
1.73329e-06
1.73329e-06
1.73329e-06
1.7333e-06
1.73754e-06
1.73761e-06
1.73696e-06
1.73331e-06
1.73328e-06
1.73329e-06
1.73329e-06
1.73328e-06
1.73331e-06
1.73755e-06
1.73955e-06
1.73902e-06
1.73664e-06
1.73331e-06
1.7333e-06
1.7333e-06
1.73331e-06
1.73727e-06
1.73756e-06
1.7395e-06
1.7393e-06
1.73744e-06
1.73751e-06
1.73756e-06
1.73754e-06
1.73755e-06
1.73756e-06
1.7395e-06
1.73945e-06
1.73923e-06
1.73761e-06
1.73955e-06
1.7395e-06
1.72059e-06
1.72042e-06
1.72025e-06
1.71814e-06
1.71802e-06
1.71795e-06
1.71812e-06
1.72019e-06
1.72046e-06
1.72025e-06
1.71747e-06
1.71447e-06
1.71447e-06
1.71447e-06
1.71447e-06
1.71779e-06
1.7186e-06
1.71814e-06
1.71447e-06
1.71446e-06
1.71447e-06
1.71447e-06
1.71446e-06
1.71447e-06
1.71866e-06
1.72062e-06
1.72059e-06
1.71802e-06
1.71447e-06
1.71447e-06
1.71447e-06
1.71447e-06
1.71447e-06
1.71447e-06
1.71873e-06
1.7204e-06
1.72042e-06
1.71795e-06
1.71447e-06
1.71447e-06
1.71447e-06
1.71447e-06
1.71447e-06
1.71447e-06
1.7187e-06
1.71878e-06
1.71812e-06
1.71447e-06
1.71446e-06
1.71447e-06
1.71447e-06
1.71446e-06
1.71447e-06
1.71872e-06
1.72072e-06
1.72019e-06
1.71779e-06
1.71447e-06
1.71447e-06
1.71447e-06
1.71447e-06
1.71845e-06
1.71873e-06
1.72066e-06
1.72046e-06
1.7186e-06
1.71866e-06
1.71873e-06
1.7187e-06
1.71872e-06
1.71873e-06
1.72066e-06
1.72062e-06
1.7204e-06
1.71878e-06
1.72072e-06
1.72066e-06
1.70176e-06
1.70159e-06
1.70142e-06
1.69931e-06
1.69919e-06
1.69912e-06
1.69929e-06
1.70135e-06
1.70162e-06
1.70142e-06
1.69864e-06
1.69564e-06
1.69564e-06
1.69564e-06
1.69564e-06
1.69896e-06
1.69977e-06
1.69931e-06
1.69564e-06
1.69564e-06
1.69564e-06
1.69564e-06
1.69564e-06
1.69564e-06
1.69983e-06
1.70178e-06
1.70176e-06
1.69919e-06
1.69564e-06
1.69564e-06
1.69564e-06
1.69564e-06
1.69564e-06
1.69564e-06
1.6999e-06
1.70157e-06
1.70159e-06
1.69912e-06
1.69564e-06
1.69564e-06
1.69564e-06
1.69564e-06
1.69564e-06
1.69564e-06
1.69987e-06
1.69995e-06
1.69929e-06
1.69564e-06
1.69564e-06
1.69564e-06
1.69564e-06
1.69564e-06
1.69564e-06
1.69989e-06
1.70189e-06
1.70135e-06
1.69896e-06
1.69564e-06
1.69564e-06
1.69564e-06
1.69564e-06
1.69962e-06
1.69991e-06
1.70183e-06
1.70163e-06
1.69977e-06
1.69983e-06
1.6999e-06
1.69987e-06
1.69989e-06
1.69991e-06
1.70183e-06
1.70179e-06
1.70157e-06
1.69995e-06
1.70189e-06
1.70183e-06
1.68293e-06
1.68276e-06
1.68259e-06
1.68048e-06
1.68036e-06
1.68029e-06
1.68046e-06
1.68252e-06
1.68279e-06
1.68259e-06
1.67981e-06
1.67681e-06
1.67681e-06
1.67681e-06
1.67681e-06
1.68013e-06
1.68094e-06
1.68048e-06
1.67681e-06
1.67681e-06
1.67681e-06
1.67681e-06
1.67681e-06
1.67681e-06
1.681e-06
1.68295e-06
1.68293e-06
1.68036e-06
1.67681e-06
1.67681e-06
1.67681e-06
1.67681e-06
1.67681e-06
1.67681e-06
1.68107e-06
1.68274e-06
1.68276e-06
1.68029e-06
1.67681e-06
1.67681e-06
1.67681e-06
1.67681e-06
1.67681e-06
1.67681e-06
1.68104e-06
1.68112e-06
1.68046e-06
1.67681e-06
1.67681e-06
1.67681e-06
1.67681e-06
1.67681e-06
1.67681e-06
1.68106e-06
1.68306e-06
1.68252e-06
1.68013e-06
1.67681e-06
1.67681e-06
1.67681e-06
1.67681e-06
1.68079e-06
1.68108e-06
1.683e-06
1.68279e-06
1.68094e-06
1.681e-06
1.68107e-06
1.68104e-06
1.68106e-06
1.68108e-06
1.683e-06
1.68296e-06
1.68274e-06
1.68112e-06
1.68306e-06
1.683e-06
1.6641e-06
1.66393e-06
1.66376e-06
1.66165e-06
1.66153e-06
1.66146e-06
1.66163e-06
1.66369e-06
1.66396e-06
1.66376e-06
1.66098e-06
1.65798e-06
1.65798e-06
1.65798e-06
1.65798e-06
1.6613e-06
1.66211e-06
1.66165e-06
1.65798e-06
1.65798e-06
1.65798e-06
1.65798e-06
1.65798e-06
1.65798e-06
1.66217e-06
1.66412e-06
1.6641e-06
1.66153e-06
1.65798e-06
1.65798e-06
1.65798e-06
1.65798e-06
1.65798e-06
1.65798e-06
1.66224e-06
1.66391e-06
1.66393e-06
1.66146e-06
1.65798e-06
1.65798e-06
1.65798e-06
1.65798e-06
1.65798e-06
1.65798e-06
1.66221e-06
1.66229e-06
1.66163e-06
1.65798e-06
1.65798e-06
1.65798e-06
1.65798e-06
1.65798e-06
1.65798e-06
1.66223e-06
1.66423e-06
1.6637e-06
1.6613e-06
1.65798e-06
1.65798e-06
1.65798e-06
1.65798e-06
1.66196e-06
1.66225e-06
1.66417e-06
1.66396e-06
1.66211e-06
1.66217e-06
1.66224e-06
1.66221e-06
1.66223e-06
1.66225e-06
1.66417e-06
1.66413e-06
1.66391e-06
1.66229e-06
1.66423e-06
1.66417e-06
1.64527e-06
1.6451e-06
1.64493e-06
1.64282e-06
1.6427e-06
1.64263e-06
1.6428e-06
1.64486e-06
1.64513e-06
1.64493e-06
1.64215e-06
1.63915e-06
1.63915e-06
1.63915e-06
1.63915e-06
1.64247e-06
1.64328e-06
1.64282e-06
1.63915e-06
1.63915e-06
1.63915e-06
1.63915e-06
1.63915e-06
1.63915e-06
1.64334e-06
1.64529e-06
1.64527e-06
1.6427e-06
1.63915e-06
1.63915e-06
1.63915e-06
1.63915e-06
1.63915e-06
1.63915e-06
1.64341e-06
1.64508e-06
1.6451e-06
1.64263e-06
1.63915e-06
1.63915e-06
1.63915e-06
1.63915e-06
1.63915e-06
1.63915e-06
1.64338e-06
1.64346e-06
1.6428e-06
1.63915e-06
1.63915e-06
1.63915e-06
1.63915e-06
1.63915e-06
1.63915e-06
1.6434e-06
1.6454e-06
1.64487e-06
1.64247e-06
1.63915e-06
1.63915e-06
1.63915e-06
1.63915e-06
1.64313e-06
1.64342e-06
1.64534e-06
1.64513e-06
1.64328e-06
1.64334e-06
1.64341e-06
1.64338e-06
1.6434e-06
1.64342e-06
1.64534e-06
1.6453e-06
1.64508e-06
1.64346e-06
1.6454e-06
1.64534e-06
1.62644e-06
1.62627e-06
1.6261e-06
1.62399e-06
1.62387e-06
1.6238e-06
1.62397e-06
1.62603e-06
1.6263e-06
1.6261e-06
1.62332e-06
1.62032e-06
1.62032e-06
1.62032e-06
1.62032e-06
1.62363e-06
1.62445e-06
1.62399e-06
1.62032e-06
1.62032e-06
1.62032e-06
1.62032e-06
1.62032e-06
1.62032e-06
1.62451e-06
1.62646e-06
1.62644e-06
1.62387e-06
1.62032e-06
1.62032e-06
1.62032e-06
1.62032e-06
1.62032e-06
1.62032e-06
1.62458e-06
1.62625e-06
1.62627e-06
1.6238e-06
1.62032e-06
1.62032e-06
1.62032e-06
1.62032e-06
1.62032e-06
1.62032e-06
1.62455e-06
1.62463e-06
1.62397e-06
1.62032e-06
1.62032e-06
1.62032e-06
1.62032e-06
1.62032e-06
1.62032e-06
1.62456e-06
1.62657e-06
1.62603e-06
1.62364e-06
1.62032e-06
1.62032e-06
1.62032e-06
1.62032e-06
1.62429e-06
1.62458e-06
1.62651e-06
1.6263e-06
1.62445e-06
1.62451e-06
1.62457e-06
1.62455e-06
1.62456e-06
1.62458e-06
1.62651e-06
1.62646e-06
1.62625e-06
1.62463e-06
1.62657e-06
1.62651e-06
1.6076e-06
1.60744e-06
1.60727e-06
1.60516e-06
1.60503e-06
1.60497e-06
1.60513e-06
1.6072e-06
1.60747e-06
1.60727e-06
1.60449e-06
1.60148e-06
1.60148e-06
1.60148e-06
1.60148e-06
1.6048e-06
1.60562e-06
1.60516e-06
1.60148e-06
1.60148e-06
1.60148e-06
1.60148e-06
1.60148e-06
1.60148e-06
1.60567e-06
1.60763e-06
1.6076e-06
1.60503e-06
1.60148e-06
1.60148e-06
1.60148e-06
1.60148e-06
1.60148e-06
1.60148e-06
1.60574e-06
1.60742e-06
1.60744e-06
1.60497e-06
1.60148e-06
1.60148e-06
1.60148e-06
1.60148e-06
1.60148e-06
1.60148e-06
1.60572e-06
1.60579e-06
1.60513e-06
1.60148e-06
1.60148e-06
1.60148e-06
1.60148e-06
1.60148e-06
1.60148e-06
1.60573e-06
1.60774e-06
1.6072e-06
1.6048e-06
1.60148e-06
1.60148e-06
1.60148e-06
1.60148e-06
1.60546e-06
1.60575e-06
1.60767e-06
1.60747e-06
1.60562e-06
1.60567e-06
1.60574e-06
1.60571e-06
1.60573e-06
1.60575e-06
1.60767e-06
1.60763e-06
1.60742e-06
1.60579e-06
1.60774e-06
1.60767e-06
1.58877e-06
1.5886e-06
1.58843e-06
1.58632e-06
1.5862e-06
1.58613e-06
1.5863e-06
1.58837e-06
1.58864e-06
1.58843e-06
1.58565e-06
1.58265e-06
1.58265e-06
1.58265e-06
1.58265e-06
1.58597e-06
1.58678e-06
1.58632e-06
1.58265e-06
1.58265e-06
1.58265e-06
1.58265e-06
1.58265e-06
1.58265e-06
1.58684e-06
1.5888e-06
1.58877e-06
1.5862e-06
1.58265e-06
1.58265e-06
1.58265e-06
1.58265e-06
1.58265e-06
1.58265e-06
1.58691e-06
1.58859e-06
1.5886e-06
1.58613e-06
1.58265e-06
1.58265e-06
1.58265e-06
1.58265e-06
1.58265e-06
1.58265e-06
1.58688e-06
1.58696e-06
1.5863e-06
1.58265e-06
1.58265e-06
1.58265e-06
1.58265e-06
1.58265e-06
1.58265e-06
1.5869e-06
1.58891e-06
1.58837e-06
1.58597e-06
1.58265e-06
1.58265e-06
1.58265e-06
1.58265e-06
1.58663e-06
1.58692e-06
1.58884e-06
1.58864e-06
1.58678e-06
1.58684e-06
1.58691e-06
1.58688e-06
1.5869e-06
1.58692e-06
1.58884e-06
1.5888e-06
1.58859e-06
1.58696e-06
1.5889e-06
1.58884e-06
1.56994e-06
1.56977e-06
1.5696e-06
1.56749e-06
1.56737e-06
1.5673e-06
1.56747e-06
1.56953e-06
1.5698e-06
1.5696e-06
1.56682e-06
1.56382e-06
1.56382e-06
1.56382e-06
1.56382e-06
1.56714e-06
1.56795e-06
1.56749e-06
1.56382e-06
1.56382e-06
1.56382e-06
1.56382e-06
1.56382e-06
1.56382e-06
1.56801e-06
1.56996e-06
1.56994e-06
1.56737e-06
1.56382e-06
1.56382e-06
1.56382e-06
1.56382e-06
1.56382e-06
1.56382e-06
1.56808e-06
1.56975e-06
1.56977e-06
1.5673e-06
1.56382e-06
1.56382e-06
1.56382e-06
1.56382e-06
1.56382e-06
1.56382e-06
1.56805e-06
1.56813e-06
1.56747e-06
1.56382e-06
1.56382e-06
1.56382e-06
1.56382e-06
1.56382e-06
1.56382e-06
1.56807e-06
1.57007e-06
1.56954e-06
1.56714e-06
1.56382e-06
1.56382e-06
1.56382e-06
1.56382e-06
1.5678e-06
1.56809e-06
1.57001e-06
1.5698e-06
1.56795e-06
1.56801e-06
1.56808e-06
1.56805e-06
1.56807e-06
1.56809e-06
1.57001e-06
1.56997e-06
1.56975e-06
1.56813e-06
1.57007e-06
1.57001e-06
1.55111e-06
1.55094e-06
1.55077e-06
1.54866e-06
1.54854e-06
1.54847e-06
1.54864e-06
1.5507e-06
1.55097e-06
1.55077e-06
1.54799e-06
1.54499e-06
1.54499e-06
1.54499e-06
1.54499e-06
1.54831e-06
1.54912e-06
1.54866e-06
1.54499e-06
1.54499e-06
1.54499e-06
1.54499e-06
1.54499e-06
1.54499e-06
1.54918e-06
1.55113e-06
1.55111e-06
1.54854e-06
1.54499e-06
1.54499e-06
1.54499e-06
1.54499e-06
1.54499e-06
1.54499e-06
1.54925e-06
1.55092e-06
1.55094e-06
1.54847e-06
1.54499e-06
1.54499e-06
1.54499e-06
1.54499e-06
1.54499e-06
1.54499e-06
1.54922e-06
1.5493e-06
1.54864e-06
1.54499e-06
1.54499e-06
1.54499e-06
1.54499e-06
1.54499e-06
1.54499e-06
1.54924e-06
1.55124e-06
1.5507e-06
1.54831e-06
1.54499e-06
1.54499e-06
1.54499e-06
1.54499e-06
1.54897e-06
1.54926e-06
1.55118e-06
1.55097e-06
1.54912e-06
1.54918e-06
1.54925e-06
1.54922e-06
1.54924e-06
1.54925e-06
1.55118e-06
1.55113e-06
1.55092e-06
1.5493e-06
1.55124e-06
1.55118e-06
1.53228e-06
1.53211e-06
1.53194e-06
1.52983e-06
1.52971e-06
1.52964e-06
1.52981e-06
1.53187e-06
1.53214e-06
1.53194e-06
1.52916e-06
1.52616e-06
1.52616e-06
1.52616e-06
1.52616e-06
1.52948e-06
1.53029e-06
1.52983e-06
1.52616e-06
1.52616e-06
1.52616e-06
1.52616e-06
1.52616e-06
1.52616e-06
1.53035e-06
1.5323e-06
1.53228e-06
1.52971e-06
1.52616e-06
1.52616e-06
1.52616e-06
1.52616e-06
1.52616e-06
1.52616e-06
1.53042e-06
1.53209e-06
1.53211e-06
1.52964e-06
1.52616e-06
1.52616e-06
1.52616e-06
1.52616e-06
1.52616e-06
1.52616e-06
1.53039e-06
1.53047e-06
1.52981e-06
1.52616e-06
1.52616e-06
1.52616e-06
1.52616e-06
1.52616e-06
1.52616e-06
1.5304e-06
1.53241e-06
1.53187e-06
1.52947e-06
1.52616e-06
1.52616e-06
1.52616e-06
1.52616e-06
1.53013e-06
1.53042e-06
1.53235e-06
1.53214e-06
1.53029e-06
1.53035e-06
1.53041e-06
1.53039e-06
1.5304e-06
1.53042e-06
1.53235e-06
1.5323e-06
1.53209e-06
1.53046e-06
1.53241e-06
1.53235e-06
1.51345e-06
1.51328e-06
1.51311e-06
1.511e-06
1.51088e-06
1.51081e-06
1.51098e-06
1.51304e-06
1.51331e-06
1.51311e-06
1.51033e-06
1.50733e-06
1.50733e-06
1.50733e-06
1.50733e-06
1.51064e-06
1.51146e-06
1.511e-06
1.50733e-06
1.50733e-06
1.50733e-06
1.50733e-06
1.50733e-06
1.50733e-06
1.51151e-06
1.51347e-06
1.51344e-06
1.51088e-06
1.50733e-06
1.50733e-06
1.50733e-06
1.50733e-06
1.50733e-06
1.50733e-06
1.51158e-06
1.51326e-06
1.51328e-06
1.51081e-06
1.50733e-06
1.50733e-06
1.50733e-06
1.50733e-06
1.50733e-06
1.50733e-06
1.51156e-06
1.51163e-06
1.51098e-06
1.50733e-06
1.50733e-06
1.50733e-06
1.50733e-06
1.50733e-06
1.50733e-06
1.51157e-06
1.51358e-06
1.51304e-06
1.51064e-06
1.50733e-06
1.50733e-06
1.50733e-06
1.50733e-06
1.5113e-06
1.51159e-06
1.51352e-06
1.51331e-06
1.51146e-06
1.51151e-06
1.51158e-06
1.51156e-06
1.51157e-06
1.51159e-06
1.51352e-06
1.51347e-06
1.51326e-06
1.51163e-06
1.51358e-06
1.51352e-06
1.49461e-06
1.49445e-06
1.49428e-06
1.49217e-06
1.49204e-06
1.49198e-06
1.49215e-06
1.49421e-06
1.49448e-06
1.49428e-06
1.4915e-06
1.4885e-06
1.4885e-06
1.4885e-06
1.4885e-06
1.49181e-06
1.49263e-06
1.49217e-06
1.4885e-06
1.4885e-06
1.4885e-06
1.4885e-06
1.4885e-06
1.4885e-06
1.49268e-06
1.49464e-06
1.49461e-06
1.49204e-06
1.4885e-06
1.4885e-06
1.4885e-06
1.4885e-06
1.4885e-06
1.4885e-06
1.49275e-06
1.49443e-06
1.49445e-06
1.49198e-06
1.4885e-06
1.4885e-06
1.4885e-06
1.4885e-06
1.4885e-06
1.4885e-06
1.49273e-06
1.4928e-06
1.49215e-06
1.4885e-06
1.4885e-06
1.4885e-06
1.4885e-06
1.4885e-06
1.4885e-06
1.49274e-06
1.49475e-06
1.49421e-06
1.49181e-06
1.4885e-06
1.4885e-06
1.4885e-06
1.4885e-06
1.49247e-06
1.49276e-06
1.49469e-06
1.49448e-06
1.49263e-06
1.49268e-06
1.49275e-06
1.49273e-06
1.49274e-06
1.49276e-06
1.49469e-06
1.49464e-06
1.49443e-06
1.4928e-06
1.49475e-06
1.49468e-06
1.47578e-06
1.47562e-06
1.47545e-06
1.47334e-06
1.47321e-06
1.47315e-06
1.47332e-06
1.47538e-06
1.47565e-06
1.47545e-06
1.47267e-06
1.46967e-06
1.46967e-06
1.46967e-06
1.46967e-06
1.47298e-06
1.4738e-06
1.47334e-06
1.46967e-06
1.46967e-06
1.46967e-06
1.46967e-06
1.46967e-06
1.46967e-06
1.47385e-06
1.47581e-06
1.47578e-06
1.47321e-06
1.46967e-06
1.46967e-06
1.46967e-06
1.46967e-06
1.46967e-06
1.46967e-06
1.47392e-06
1.4756e-06
1.47562e-06
1.47315e-06
1.46967e-06
1.46967e-06
1.46967e-06
1.46967e-06
1.46967e-06
1.46967e-06
1.4739e-06
1.47397e-06
1.47332e-06
1.46967e-06
1.46967e-06
1.46967e-06
1.46967e-06
1.46967e-06
1.46967e-06
1.47391e-06
1.47592e-06
1.47538e-06
1.47298e-06
1.46967e-06
1.46967e-06
1.46967e-06
1.46967e-06
1.47364e-06
1.47393e-06
1.47585e-06
1.47565e-06
1.4738e-06
1.47385e-06
1.47392e-06
1.4739e-06
1.47391e-06
1.47393e-06
1.47586e-06
1.47581e-06
1.4756e-06
1.47397e-06
1.47592e-06
1.47585e-06
1.45695e-06
1.45679e-06
1.45662e-06
1.45451e-06
1.45438e-06
1.45432e-06
1.45449e-06
1.45655e-06
1.45682e-06
1.45662e-06
1.45384e-06
1.45084e-06
1.45084e-06
1.45084e-06
1.45084e-06
1.45415e-06
1.45497e-06
1.45451e-06
1.45084e-06
1.45084e-06
1.45084e-06
1.45084e-06
1.45084e-06
1.45084e-06
1.45502e-06
1.45698e-06
1.45695e-06
1.45438e-06
1.45084e-06
1.45084e-06
1.45084e-06
1.45084e-06
1.45084e-06
1.45084e-06
1.45509e-06
1.45677e-06
1.45679e-06
1.45432e-06
1.45084e-06
1.45084e-06
1.45084e-06
1.45084e-06
1.45084e-06
1.45084e-06
1.45507e-06
1.45514e-06
1.45449e-06
1.45084e-06
1.45084e-06
1.45084e-06
1.45084e-06
1.45084e-06
1.45084e-06
1.45508e-06
1.45709e-06
1.45655e-06
1.45415e-06
1.45084e-06
1.45084e-06
1.45084e-06
1.45084e-06
1.45481e-06
1.4551e-06
1.45703e-06
1.45682e-06
1.45497e-06
1.45502e-06
1.45509e-06
1.45507e-06
1.45508e-06
1.4551e-06
1.45703e-06
1.45698e-06
1.45677e-06
1.45514e-06
1.45709e-06
1.45702e-06
1.43812e-06
1.43796e-06
1.43779e-06
1.43568e-06
1.43556e-06
1.43549e-06
1.43566e-06
1.43772e-06
1.43799e-06
1.43779e-06
1.43501e-06
1.43201e-06
1.43201e-06
1.43201e-06
1.43201e-06
1.43532e-06
1.43614e-06
1.43568e-06
1.43201e-06
1.43201e-06
1.43201e-06
1.43201e-06
1.43201e-06
1.43201e-06
1.43619e-06
1.43815e-06
1.43812e-06
1.43555e-06
1.43201e-06
1.43201e-06
1.43201e-06
1.43201e-06
1.43201e-06
1.43201e-06
1.43626e-06
1.43794e-06
1.43796e-06
1.43549e-06
1.43201e-06
1.43201e-06
1.43201e-06
1.43201e-06
1.43201e-06
1.43201e-06
1.43624e-06
1.43631e-06
1.43566e-06
1.43201e-06
1.43201e-06
1.43201e-06
1.43201e-06
1.43201e-06
1.43201e-06
1.43625e-06
1.43826e-06
1.43772e-06
1.43532e-06
1.43201e-06
1.43201e-06
1.43201e-06
1.43201e-06
1.43598e-06
1.43627e-06
1.4382e-06
1.43799e-06
1.43614e-06
1.43619e-06
1.43626e-06
1.43624e-06
1.43625e-06
1.43627e-06
1.4382e-06
1.43815e-06
1.43794e-06
1.43631e-06
1.43826e-06
1.43819e-06
1.4193e-06
1.41913e-06
1.41896e-06
1.41685e-06
1.41673e-06
1.41666e-06
1.41683e-06
1.41889e-06
1.41916e-06
1.41896e-06
1.41618e-06
1.41318e-06
1.41318e-06
1.41318e-06
1.41318e-06
1.41649e-06
1.41731e-06
1.41685e-06
1.41318e-06
1.41318e-06
1.41318e-06
1.41318e-06
1.41318e-06
1.41318e-06
1.41736e-06
1.41932e-06
1.41929e-06
1.41673e-06
1.41318e-06
1.41318e-06
1.41318e-06
1.41318e-06
1.41318e-06
1.41318e-06
1.41743e-06
1.41911e-06
1.41913e-06
1.41666e-06
1.41318e-06
1.41318e-06
1.41318e-06
1.41318e-06
1.41318e-06
1.41318e-06
1.41741e-06
1.41748e-06
1.41683e-06
1.41318e-06
1.41318e-06
1.41318e-06
1.41318e-06
1.41318e-06
1.41318e-06
1.41742e-06
1.41943e-06
1.41889e-06
1.41649e-06
1.41318e-06
1.41318e-06
1.41318e-06
1.41318e-06
1.41715e-06
1.41744e-06
1.41937e-06
1.41916e-06
1.41731e-06
1.41736e-06
1.41743e-06
1.41741e-06
1.41742e-06
1.41744e-06
1.41937e-06
1.41932e-06
1.41911e-06
1.41748e-06
1.41943e-06
1.41937e-06
1.40047e-06
1.4003e-06
1.40013e-06
1.39802e-06
1.3979e-06
1.39783e-06
1.398e-06
1.40006e-06
1.40033e-06
1.40013e-06
1.39735e-06
1.39435e-06
1.39435e-06
1.39435e-06
1.39435e-06
1.39766e-06
1.39848e-06
1.39802e-06
1.39435e-06
1.39435e-06
1.39435e-06
1.39435e-06
1.39435e-06
1.39435e-06
1.39853e-06
1.40049e-06
1.40046e-06
1.3979e-06
1.39435e-06
1.39435e-06
1.39435e-06
1.39435e-06
1.39435e-06
1.39435e-06
1.3986e-06
1.40028e-06
1.4003e-06
1.39783e-06
1.39435e-06
1.39435e-06
1.39435e-06
1.39435e-06
1.39435e-06
1.39435e-06
1.39858e-06
1.39865e-06
1.398e-06
1.39435e-06
1.39435e-06
1.39435e-06
1.39435e-06
1.39435e-06
1.39435e-06
1.39859e-06
1.4006e-06
1.40006e-06
1.39766e-06
1.39435e-06
1.39435e-06
1.39435e-06
1.39435e-06
1.39832e-06
1.39861e-06
1.40054e-06
1.40033e-06
1.39848e-06
1.39853e-06
1.3986e-06
1.39858e-06
1.39859e-06
1.39861e-06
1.40054e-06
1.40049e-06
1.40028e-06
1.39865e-06
1.4006e-06
1.40054e-06
1.38164e-06
1.38147e-06
1.3813e-06
1.37919e-06
1.37907e-06
1.379e-06
1.37917e-06
1.38123e-06
1.3815e-06
1.3813e-06
1.37852e-06
1.37552e-06
1.37552e-06
1.37552e-06
1.37552e-06
1.37883e-06
1.37965e-06
1.37919e-06
1.37552e-06
1.37552e-06
1.37552e-06
1.37552e-06
1.37552e-06
1.37552e-06
1.37971e-06
1.38166e-06
1.38164e-06
1.37907e-06
1.37552e-06
1.37552e-06
1.37552e-06
1.37552e-06
1.37552e-06
1.37552e-06
1.37978e-06
1.38145e-06
1.38147e-06
1.379e-06
1.37552e-06
1.37552e-06
1.37552e-06
1.37552e-06
1.37552e-06
1.37552e-06
1.37975e-06
1.37982e-06
1.37917e-06
1.37552e-06
1.37552e-06
1.37552e-06
1.37552e-06
1.37552e-06
1.37552e-06
1.37976e-06
1.38177e-06
1.38123e-06
1.37883e-06
1.37552e-06
1.37552e-06
1.37552e-06
1.37552e-06
1.37949e-06
1.37978e-06
1.38171e-06
1.3815e-06
1.37965e-06
1.37971e-06
1.37977e-06
1.37975e-06
1.37976e-06
1.37978e-06
1.38171e-06
1.38166e-06
1.38145e-06
1.37982e-06
1.38177e-06
1.38171e-06
1.36281e-06
1.36264e-06
1.36247e-06
1.36036e-06
1.36024e-06
1.36017e-06
1.36034e-06
1.3624e-06
1.36267e-06
1.36247e-06
1.35969e-06
1.35669e-06
1.35669e-06
1.35669e-06
1.35669e-06
1.36001e-06
1.36082e-06
1.36036e-06
1.35669e-06
1.35669e-06
1.35669e-06
1.35669e-06
1.35669e-06
1.35669e-06
1.36088e-06
1.36283e-06
1.36281e-06
1.36024e-06
1.35669e-06
1.35669e-06
1.35669e-06
1.35669e-06
1.35669e-06
1.35669e-06
1.36095e-06
1.36262e-06
1.36264e-06
1.36017e-06
1.35669e-06
1.35669e-06
1.35669e-06
1.35669e-06
1.35669e-06
1.35669e-06
1.36092e-06
1.361e-06
1.36034e-06
1.35669e-06
1.35669e-06
1.35669e-06
1.35669e-06
1.35669e-06
1.35669e-06
1.36094e-06
1.36294e-06
1.3624e-06
1.36001e-06
1.35669e-06
1.35669e-06
1.35669e-06
1.35669e-06
1.36067e-06
1.36095e-06
1.36288e-06
1.36267e-06
1.36082e-06
1.36088e-06
1.36095e-06
1.36092e-06
1.36093e-06
1.36095e-06
1.36288e-06
1.36283e-06
1.36262e-06
1.361e-06
1.36294e-06
1.36288e-06
1.34398e-06
1.34381e-06
1.34364e-06
1.34153e-06
1.34141e-06
1.34134e-06
1.34151e-06
1.34357e-06
1.34384e-06
1.34364e-06
1.34086e-06
1.33786e-06
1.33786e-06
1.33786e-06
1.33786e-06
1.34118e-06
1.34199e-06
1.34153e-06
1.33786e-06
1.33786e-06
1.33786e-06
1.33786e-06
1.33786e-06
1.33786e-06
1.34205e-06
1.344e-06
1.34398e-06
1.34141e-06
1.33786e-06
1.33786e-06
1.33786e-06
1.33786e-06
1.33786e-06
1.33786e-06
1.34212e-06
1.34379e-06
1.34381e-06
1.34134e-06
1.33786e-06
1.33786e-06
1.33786e-06
1.33786e-06
1.33786e-06
1.33786e-06
1.34209e-06
1.34217e-06
1.34151e-06
1.33786e-06
1.33786e-06
1.33786e-06
1.33786e-06
1.33786e-06
1.33786e-06
1.34211e-06
1.34411e-06
1.34357e-06
1.34118e-06
1.33786e-06
1.33786e-06
1.33786e-06
1.33786e-06
1.34184e-06
1.34213e-06
1.34405e-06
1.34384e-06
1.34199e-06
1.34205e-06
1.34212e-06
1.34209e-06
1.34211e-06
1.34213e-06
1.34405e-06
1.344e-06
1.34379e-06
1.34217e-06
1.34411e-06
1.34405e-06
1.32515e-06
1.32498e-06
1.32481e-06
1.3227e-06
1.32258e-06
1.32251e-06
1.32268e-06
1.32475e-06
1.32501e-06
1.32481e-06
1.32203e-06
1.31903e-06
1.31903e-06
1.31903e-06
1.31903e-06
1.32235e-06
1.32316e-06
1.3227e-06
1.31903e-06
1.31903e-06
1.31903e-06
1.31903e-06
1.31903e-06
1.31903e-06
1.32322e-06
1.32517e-06
1.32515e-06
1.32258e-06
1.31903e-06
1.31903e-06
1.31903e-06
1.31903e-06
1.31903e-06
1.31903e-06
1.32329e-06
1.32496e-06
1.32498e-06
1.32251e-06
1.31903e-06
1.31903e-06
1.31903e-06
1.31903e-06
1.31903e-06
1.31903e-06
1.32326e-06
1.32334e-06
1.32268e-06
1.31903e-06
1.31903e-06
1.31903e-06
1.31903e-06
1.31903e-06
1.31903e-06
1.32328e-06
1.32528e-06
1.32474e-06
1.32235e-06
1.31903e-06
1.31903e-06
1.31903e-06
1.31903e-06
1.32301e-06
1.3233e-06
1.32522e-06
1.32501e-06
1.32316e-06
1.32322e-06
1.32329e-06
1.32326e-06
1.32328e-06
1.3233e-06
1.32522e-06
1.32518e-06
1.32496e-06
1.32334e-06
1.32528e-06
1.32522e-06
1.30632e-06
1.30615e-06
1.30598e-06
1.30387e-06
1.30375e-06
1.30368e-06
1.30385e-06
1.30592e-06
1.30618e-06
1.30598e-06
1.3032e-06
1.3002e-06
1.3002e-06
1.3002e-06
1.3002e-06
1.30352e-06
1.30433e-06
1.30387e-06
1.3002e-06
1.3002e-06
1.3002e-06
1.3002e-06
1.3002e-06
1.3002e-06
1.30439e-06
1.30634e-06
1.30632e-06
1.30375e-06
1.3002e-06
1.3002e-06
1.3002e-06
1.3002e-06
1.3002e-06
1.3002e-06
1.30446e-06
1.30613e-06
1.30615e-06
1.30368e-06
1.3002e-06
1.3002e-06
1.3002e-06
1.3002e-06
1.3002e-06
1.3002e-06
1.30443e-06
1.30451e-06
1.30385e-06
1.3002e-06
1.3002e-06
1.3002e-06
1.3002e-06
1.3002e-06
1.3002e-06
1.30445e-06
1.30645e-06
1.30592e-06
1.30352e-06
1.3002e-06
1.3002e-06
1.3002e-06
1.3002e-06
1.30418e-06
1.30447e-06
1.30639e-06
1.30619e-06
1.30433e-06
1.30439e-06
1.30446e-06
1.30443e-06
1.30445e-06
1.30447e-06
1.30639e-06
1.30635e-06
1.30613e-06
1.30451e-06
1.30645e-06
1.30639e-06
1.28749e-06
1.28732e-06
1.28715e-06
1.28504e-06
1.28492e-06
1.28485e-06
1.28502e-06
1.28709e-06
1.28736e-06
1.28715e-06
1.28437e-06
1.28137e-06
1.28137e-06
1.28137e-06
1.28137e-06
1.28469e-06
1.2855e-06
1.28504e-06
1.28137e-06
1.28137e-06
1.28137e-06
1.28137e-06
1.28137e-06
1.28137e-06
1.28556e-06
1.28752e-06
1.28749e-06
1.28492e-06
1.28137e-06
1.28137e-06
1.28137e-06
1.28137e-06
1.28137e-06
1.28137e-06
1.28563e-06
1.28731e-06
1.28732e-06
1.28485e-06
1.28137e-06
1.28137e-06
1.28137e-06
1.28137e-06
1.28137e-06
1.28137e-06
1.2856e-06
1.28568e-06
1.28502e-06
1.28137e-06
1.28137e-06
1.28137e-06
1.28137e-06
1.28137e-06
1.28137e-06
1.28562e-06
1.28763e-06
1.28709e-06
1.28469e-06
1.28137e-06
1.28137e-06
1.28137e-06
1.28137e-06
1.28535e-06
1.28564e-06
1.28756e-06
1.28736e-06
1.2855e-06
1.28556e-06
1.28563e-06
1.2856e-06
1.28562e-06
1.28564e-06
1.28756e-06
1.28752e-06
1.28731e-06
1.28568e-06
1.28762e-06
1.28756e-06
1.26866e-06
1.2685e-06
1.26832e-06
1.26622e-06
1.26609e-06
1.26603e-06
1.26619e-06
1.26826e-06
1.26853e-06
1.26832e-06
1.26555e-06
1.26254e-06
1.26254e-06
1.26254e-06
1.26254e-06
1.26586e-06
1.26668e-06
1.26622e-06
1.26254e-06
1.26254e-06
1.26254e-06
1.26254e-06
1.26254e-06
1.26254e-06
1.26673e-06
1.26869e-06
1.26866e-06
1.26609e-06
1.26254e-06
1.26254e-06
1.26254e-06
1.26254e-06
1.26254e-06
1.26254e-06
1.2668e-06
1.26848e-06
1.2685e-06
1.26603e-06
1.26254e-06
1.26254e-06
1.26254e-06
1.26254e-06
1.26254e-06
1.26254e-06
1.26677e-06
1.26685e-06
1.26619e-06
1.26254e-06
1.26254e-06
1.26254e-06
1.26254e-06
1.26254e-06
1.26254e-06
1.26679e-06
1.2688e-06
1.26826e-06
1.26586e-06
1.26254e-06
1.26254e-06
1.26254e-06
1.26254e-06
1.26652e-06
1.26681e-06
1.26873e-06
1.26853e-06
1.26668e-06
1.26673e-06
1.2668e-06
1.26677e-06
1.26679e-06
1.26681e-06
1.26873e-06
1.26869e-06
1.26848e-06
1.26685e-06
1.2688e-06
1.26873e-06
1.24983e-06
1.24967e-06
1.2495e-06
1.24739e-06
1.24726e-06
1.2472e-06
1.24736e-06
1.24943e-06
1.2497e-06
1.2495e-06
1.24672e-06
1.24371e-06
1.24371e-06
1.24371e-06
1.24371e-06
1.24703e-06
1.24785e-06
1.24739e-06
1.24371e-06
1.24371e-06
1.24371e-06
1.24371e-06
1.24371e-06
1.24371e-06
1.2479e-06
1.24986e-06
1.24983e-06
1.24726e-06
1.24371e-06
1.24371e-06
1.24371e-06
1.24371e-06
1.24371e-06
1.24371e-06
1.24797e-06
1.24965e-06
1.24967e-06
1.2472e-06
1.24371e-06
1.24371e-06
1.24371e-06
1.24371e-06
1.24371e-06
1.24371e-06
1.24795e-06
1.24802e-06
1.24736e-06
1.24371e-06
1.24371e-06
1.24371e-06
1.24371e-06
1.24371e-06
1.24371e-06
1.24796e-06
1.24997e-06
1.24943e-06
1.24703e-06
1.24371e-06
1.24371e-06
1.24371e-06
1.24371e-06
1.24769e-06
1.24798e-06
1.2499e-06
1.2497e-06
1.24785e-06
1.2479e-06
1.24797e-06
1.24794e-06
1.24796e-06
1.24798e-06
1.2499e-06
1.24986e-06
1.24965e-06
1.24802e-06
1.24997e-06
1.2499e-06
1.231e-06
1.23084e-06
1.23067e-06
1.22856e-06
1.22843e-06
1.22837e-06
1.22854e-06
1.2306e-06
1.23087e-06
1.23067e-06
1.22789e-06
1.22489e-06
1.22489e-06
1.22489e-06
1.22489e-06
1.2282e-06
1.22902e-06
1.22856e-06
1.22489e-06
1.22489e-06
1.22489e-06
1.22489e-06
1.22489e-06
1.22489e-06
1.22907e-06
1.23103e-06
1.231e-06
1.22843e-06
1.22489e-06
1.22489e-06
1.22489e-06
1.22489e-06
1.22489e-06
1.22489e-06
1.22914e-06
1.23082e-06
1.23084e-06
1.22837e-06
1.22489e-06
1.22489e-06
1.22489e-06
1.22489e-06
1.22489e-06
1.22489e-06
1.22912e-06
1.22919e-06
1.22854e-06
1.22489e-06
1.22489e-06
1.22489e-06
1.22489e-06
1.22489e-06
1.22489e-06
1.22913e-06
1.23114e-06
1.2306e-06
1.2282e-06
1.22489e-06
1.22489e-06
1.22489e-06
1.22489e-06
1.22886e-06
1.22915e-06
1.23107e-06