/*--------------------------------*- C++ -*----------------------------------*\
| =========                 |                                                 |
| \\      /  F ield         | OpenFOAM: The Open Source CFD Toolbox           |
|  \\    /   O peration     | Version:  v2012                                 |
|   \\  /    A nd           | Website:  www.openfoam.com                      |
|    \\/     M anipulation  |                                                 |
\*---------------------------------------------------------------------------*/
FoamFile
{
    version     2.0;
    format      ascii;
    class       volScalarField;
    location    "0.085";
    object      p;
}
// * * * * * * * * * * * * * * * * * * * * * * * * * * * * * * * * * * * * * //

dimensions      [0 2 -2 0 0 0 0];


internalField   nonuniform List<scalar> 
247104
(
2.03354e-06
2.0345e-06
2.03434e-06
2.0341e-06
2.03379e-06
2.03415e-06
2.03436e-06
2.03441e-06
2.03448e-06
2.03458e-06
2.03462e-06
2.03436e-06
2.03418e-06
2.0344e-06
2.03464e-06
2.03455e-06
2.03434e-06
2.03462e-06
2.03436e-06
2.03395e-06
2.03378e-06
2.034e-06
2.03441e-06
2.03462e-06
2.03428e-06
2.03409e-06
2.03436e-06
2.03395e-06
2.03347e-06
2.03329e-06
2.03352e-06
2.03402e-06
2.03438e-06
2.034e-06
2.03353e-06
2.03379e-06
2.03418e-06
2.03378e-06
2.03329e-06
2.03311e-06
2.03334e-06
2.03384e-06
2.03419e-06
2.03368e-06
2.03415e-06
2.03441e-06
2.034e-06
2.03352e-06
2.03334e-06
2.03357e-06
2.03406e-06
2.03442e-06
2.03405e-06
2.03437e-06
2.03464e-06
2.03441e-06
2.03402e-06
2.03384e-06
2.03406e-06
2.03446e-06
2.03463e-06
2.03431e-06
2.03442e-06
2.03456e-06
2.03462e-06
2.03438e-06
2.03419e-06
2.03442e-06
2.03463e-06
2.03452e-06
2.03428e-06
2.034e-06
2.03368e-06
2.03405e-06
2.03431e-06
2.00004e-06
1.99772e-06
1.99884e-06
1.99748e-06
1.99664e-06
1.9967e-06
1.99665e-06
1.99951e-06
1.99943e-06
1.99882e-06
1.99634e-06
1.99252e-06
1.9922e-06
1.9922e-06
1.99252e-06
1.99668e-06
1.99704e-06
1.99749e-06
1.99252e-06
1.99238e-06
1.99235e-06
1.99235e-06
1.99238e-06
1.99252e-06
1.99734e-06
1.99928e-06
2.00008e-06
1.99664e-06
1.9922e-06
1.99235e-06
1.99248e-06
1.99248e-06
1.99235e-06
1.99221e-06
1.99674e-06
1.99956e-06
1.99777e-06
1.9967e-06
1.9922e-06
1.99235e-06
1.99248e-06
1.99248e-06
1.99235e-06
1.99221e-06
1.99684e-06
1.99641e-06
1.99664e-06
1.99252e-06
1.99238e-06
1.99235e-06
1.99235e-06
1.99238e-06
1.99252e-06
1.99687e-06
1.99826e-06
1.9995e-06
1.99667e-06
1.99252e-06
1.99221e-06
1.99221e-06
1.99252e-06
1.99654e-06
1.99733e-06
1.99971e-06
1.99945e-06
1.99704e-06
1.99733e-06
1.99674e-06
1.99685e-06
1.99688e-06
1.99733e-06
2.00105e-06
1.99921e-06
1.99952e-06
1.99639e-06
1.9983e-06
1.99971e-06
1.97979e-06
1.97963e-06
1.97934e-06
1.97709e-06
1.97706e-06
1.97705e-06
1.97709e-06
1.97978e-06
1.97975e-06
1.97934e-06
1.97664e-06
1.97335e-06
1.97311e-06
1.97311e-06
1.97335e-06
1.97787e-06
1.97758e-06
1.97708e-06
1.97334e-06
1.97279e-06
1.97275e-06
1.97275e-06
1.97279e-06
1.97335e-06
1.97854e-06
1.98041e-06
1.97981e-06
1.97706e-06
1.9731e-06
1.97275e-06
1.97272e-06
1.97273e-06
1.97275e-06
1.97311e-06
1.97832e-06
1.97969e-06
1.97963e-06
1.97705e-06
1.9731e-06
1.97275e-06
1.97272e-06
1.97273e-06
1.97275e-06
1.97311e-06
1.97813e-06
1.97732e-06
1.97709e-06
1.97334e-06
1.97279e-06
1.97275e-06
1.97275e-06
1.9728e-06
1.97335e-06
1.9785e-06
1.98018e-06
1.97978e-06
1.97786e-06
1.97335e-06
1.97311e-06
1.9731e-06
1.97335e-06
1.97836e-06
1.97813e-06
1.98019e-06
1.97975e-06
1.97758e-06
1.97853e-06
1.97832e-06
1.97812e-06
1.9785e-06
1.97813e-06
1.98036e-06
1.98041e-06
1.97969e-06
1.97732e-06
1.98019e-06
1.98019e-06
1.95873e-06
1.95859e-06
1.95862e-06
1.95617e-06
1.95618e-06
1.95605e-06
1.95627e-06
1.95904e-06
1.95901e-06
1.95862e-06
1.95533e-06
1.95223e-06
1.95215e-06
1.95215e-06
1.95223e-06
1.95698e-06
1.95698e-06
1.95617e-06
1.95224e-06
1.95205e-06
1.95204e-06
1.95204e-06
1.95205e-06
1.95223e-06
1.95795e-06
1.95955e-06
1.95874e-06
1.95619e-06
1.95215e-06
1.95204e-06
1.95203e-06
1.95203e-06
1.95204e-06
1.95216e-06
1.95797e-06
1.95867e-06
1.9586e-06
1.95606e-06
1.95215e-06
1.95204e-06
1.95203e-06
1.95203e-06
1.95204e-06
1.95215e-06
1.95781e-06
1.95649e-06
1.95628e-06
1.95224e-06
1.95206e-06
1.95204e-06
1.95204e-06
1.95205e-06
1.95223e-06
1.95805e-06
1.95917e-06
1.95906e-06
1.95698e-06
1.95224e-06
1.95216e-06
1.95215e-06
1.95224e-06
1.95808e-06
1.95753e-06
1.95943e-06
1.95901e-06
1.95698e-06
1.95795e-06
1.95797e-06
1.95782e-06
1.95804e-06
1.95751e-06
1.95936e-06
1.95955e-06
1.95867e-06
1.95649e-06
1.95917e-06
1.95943e-06
1.938e-06
1.93788e-06
1.93775e-06
1.93524e-06
1.93526e-06
1.93505e-06
1.93537e-06
1.9382e-06
1.93816e-06
1.93774e-06
1.93397e-06
1.93106e-06
1.93104e-06
1.93104e-06
1.93106e-06
1.93584e-06
1.93618e-06
1.93524e-06
1.93106e-06
1.93102e-06
1.93102e-06
1.93102e-06
1.93102e-06
1.93106e-06
1.93717e-06
1.93878e-06
1.93801e-06
1.93526e-06
1.93104e-06
1.93102e-06
1.93102e-06
1.93102e-06
1.93102e-06
1.93104e-06
1.93742e-06
1.93798e-06
1.93788e-06
1.93505e-06
1.93104e-06
1.93102e-06
1.93102e-06
1.93102e-06
1.93102e-06
1.93104e-06
1.93729e-06
1.93585e-06
1.93538e-06
1.93106e-06
1.93102e-06
1.93102e-06
1.93102e-06
1.93102e-06
1.93106e-06
1.93739e-06
1.93847e-06
1.9382e-06
1.93584e-06
1.93106e-06
1.93104e-06
1.93104e-06
1.93106e-06
1.93739e-06
1.93674e-06
1.93864e-06
1.93816e-06
1.93618e-06
1.93718e-06
1.93742e-06
1.93729e-06
1.93739e-06
1.93673e-06
1.93856e-06
1.93878e-06
1.93798e-06
1.93585e-06
1.93847e-06
1.93864e-06
1.9171e-06
1.91699e-06
1.91678e-06
1.91426e-06
1.91429e-06
1.91402e-06
1.9144e-06
1.91725e-06
1.9172e-06
1.91679e-06
1.91286e-06
1.90999e-06
1.90999e-06
1.90999e-06
1.90999e-06
1.91476e-06
1.91523e-06
1.91425e-06
1.90999e-06
1.90998e-06
1.90998e-06
1.90998e-06
1.90998e-06
1.90999e-06
1.91624e-06
1.91786e-06
1.91711e-06
1.91429e-06
1.90999e-06
1.90998e-06
1.90998e-06
1.90998e-06
1.90998e-06
1.90999e-06
1.91656e-06
1.9171e-06
1.917e-06
1.91402e-06
1.90999e-06
1.90998e-06
1.90998e-06
1.90998e-06
1.90998e-06
1.90999e-06
1.91643e-06
1.91499e-06
1.91441e-06
1.90999e-06
1.90998e-06
1.90998e-06
1.90998e-06
1.90998e-06
1.90999e-06
1.9165e-06
1.91758e-06
1.91725e-06
1.91476e-06
1.90999e-06
1.90999e-06
1.90999e-06
1.90999e-06
1.91649e-06
1.91581e-06
1.91771e-06
1.9172e-06
1.91524e-06
1.91624e-06
1.91657e-06
1.91644e-06
1.9165e-06
1.9158e-06
1.91761e-06
1.91786e-06
1.9171e-06
1.915e-06
1.91759e-06
1.91771e-06
1.89612e-06
1.89602e-06
1.89578e-06
1.89325e-06
1.89328e-06
1.89299e-06
1.8934e-06
1.89625e-06
1.8962e-06
1.89579e-06
1.89182e-06
1.88896e-06
1.88896e-06
1.88896e-06
1.88896e-06
1.89372e-06
1.89424e-06
1.89324e-06
1.88896e-06
1.88896e-06
1.88896e-06
1.88896e-06
1.88896e-06
1.88896e-06
1.89524e-06
1.89687e-06
1.89613e-06
1.89328e-06
1.88896e-06
1.88896e-06
1.88896e-06
1.88896e-06
1.88896e-06
1.88896e-06
1.89559e-06
1.89612e-06
1.89602e-06
1.893e-06
1.88896e-06
1.88896e-06
1.88896e-06
1.88896e-06
1.88895e-06
1.88896e-06
1.89546e-06
1.89402e-06
1.8934e-06
1.88896e-06
1.88895e-06
1.88896e-06
1.88895e-06
1.88895e-06
1.88896e-06
1.8955e-06
1.8966e-06
1.89625e-06
1.89372e-06
1.88896e-06
1.88896e-06
1.88896e-06
1.88896e-06
1.89551e-06
1.89481e-06
1.89671e-06
1.8962e-06
1.89424e-06
1.89525e-06
1.89559e-06
1.89546e-06
1.89551e-06
1.89481e-06
1.89661e-06
1.89686e-06
1.89612e-06
1.89402e-06
1.8966e-06
1.89671e-06
1.87511e-06
1.87501e-06
1.87477e-06
1.87223e-06
1.87227e-06
1.87198e-06
1.87238e-06
1.87523e-06
1.87519e-06
1.87478e-06
1.87079e-06
1.86794e-06
1.86793e-06
1.86793e-06
1.86793e-06
1.8727e-06
1.87323e-06
1.87223e-06
1.86793e-06
1.86793e-06
1.86793e-06
1.86793e-06
1.86793e-06
1.86793e-06
1.87423e-06
1.87585e-06
1.87512e-06
1.87227e-06
1.86793e-06
1.86793e-06
1.86793e-06
1.86793e-06
1.86793e-06
1.86793e-06
1.87459e-06
1.87511e-06
1.87501e-06
1.87198e-06
1.86793e-06
1.86793e-06
1.86793e-06
1.86793e-06
1.86793e-06
1.86793e-06
1.87445e-06
1.87301e-06
1.87238e-06
1.86793e-06
1.86793e-06
1.86793e-06
1.86793e-06
1.86793e-06
1.86793e-06
1.87449e-06
1.87559e-06
1.87523e-06
1.8727e-06
1.86793e-06
1.86793e-06
1.86793e-06
1.86793e-06
1.8745e-06
1.87379e-06
1.8757e-06
1.87518e-06
1.87323e-06
1.87423e-06
1.87459e-06
1.87446e-06
1.8745e-06
1.8738e-06
1.87559e-06
1.87585e-06
1.87511e-06
1.87302e-06
1.87559e-06
1.8757e-06
1.85409e-06
1.85399e-06
1.85375e-06
1.85121e-06
1.85125e-06
1.85096e-06
1.85136e-06
1.85421e-06
1.85417e-06
1.85376e-06
1.84977e-06
1.84691e-06
1.84691e-06
1.84691e-06
1.84691e-06
1.85167e-06
1.85221e-06
1.85121e-06
1.84691e-06
1.84691e-06
1.84691e-06
1.84691e-06
1.84691e-06
1.84691e-06
1.85321e-06
1.85483e-06
1.8541e-06
1.85125e-06
1.84691e-06
1.84691e-06
1.84691e-06
1.84691e-06
1.84691e-06
1.84691e-06
1.85357e-06
1.85409e-06
1.85399e-06
1.85096e-06
1.84691e-06
1.84691e-06
1.84691e-06
1.84691e-06
1.84691e-06
1.84691e-06
1.85344e-06
1.852e-06
1.85136e-06
1.84691e-06
1.84691e-06
1.84691e-06
1.84691e-06
1.84691e-06
1.84691e-06
1.85347e-06
1.85457e-06
1.85422e-06
1.85167e-06
1.84691e-06
1.84691e-06
1.84691e-06
1.84691e-06
1.85348e-06
1.85278e-06
1.85468e-06
1.85416e-06
1.85221e-06
1.85321e-06
1.85357e-06
1.85344e-06
1.85348e-06
1.85278e-06
1.85458e-06
1.85483e-06
1.85409e-06
1.852e-06
1.85457e-06
1.85469e-06
1.83307e-06
1.83297e-06
1.83273e-06
1.83019e-06
1.83023e-06
1.82994e-06
1.83034e-06
1.83319e-06
1.83315e-06
1.83274e-06
1.82875e-06
1.82589e-06
1.82589e-06
1.82589e-06
1.82589e-06
1.83065e-06
1.83119e-06
1.83019e-06
1.82589e-06
1.82589e-06
1.82589e-06
1.82589e-06
1.82589e-06
1.82589e-06
1.83219e-06
1.83381e-06
1.83308e-06
1.83023e-06
1.82589e-06
1.82589e-06
1.82589e-06
1.82589e-06
1.82589e-06
1.82589e-06
1.83255e-06
1.83307e-06
1.83297e-06
1.82993e-06
1.82589e-06
1.82589e-06
1.82589e-06
1.82589e-06
1.82589e-06
1.82589e-06
1.83242e-06
1.83097e-06
1.83034e-06
1.82589e-06
1.82589e-06
1.82589e-06
1.82589e-06
1.82589e-06
1.82589e-06
1.83245e-06
1.83355e-06
1.83319e-06
1.83065e-06
1.82589e-06
1.82589e-06
1.82589e-06
1.82589e-06
1.83246e-06
1.83176e-06
1.83366e-06
1.83314e-06
1.83118e-06
1.83219e-06
1.83255e-06
1.83242e-06
1.83246e-06
1.83176e-06
1.83356e-06
1.83381e-06
1.83307e-06
1.83099e-06
1.83355e-06
1.83367e-06
1.81205e-06
1.81195e-06
1.81171e-06
1.80917e-06
1.80921e-06
1.80892e-06
1.80932e-06
1.81218e-06
1.81213e-06
1.81172e-06
1.80772e-06
1.80487e-06
1.80487e-06
1.80487e-06
1.80487e-06
1.80963e-06
1.81017e-06
1.80916e-06
1.80487e-06
1.80487e-06
1.80487e-06
1.80487e-06
1.80487e-06
1.80487e-06
1.81117e-06
1.81279e-06
1.81206e-06
1.80921e-06
1.80487e-06
1.80487e-06
1.80487e-06
1.80487e-06
1.80487e-06
1.80487e-06
1.81153e-06
1.81205e-06
1.81195e-06
1.80891e-06
1.80487e-06
1.80487e-06
1.80487e-06
1.80487e-06
1.80487e-06
1.80487e-06
1.8114e-06
1.80995e-06
1.80932e-06
1.80487e-06
1.80487e-06
1.80487e-06
1.80487e-06
1.80487e-06
1.80487e-06
1.81143e-06
1.81253e-06
1.81217e-06
1.80963e-06
1.80487e-06
1.80487e-06
1.80487e-06
1.80487e-06
1.81144e-06
1.81074e-06
1.81264e-06
1.81212e-06
1.81016e-06
1.81117e-06
1.81153e-06
1.8114e-06
1.81144e-06
1.81074e-06
1.81254e-06
1.81279e-06
1.81205e-06
1.80996e-06
1.81253e-06
1.81265e-06
1.79103e-06
1.79093e-06
1.79068e-06
1.78815e-06
1.78819e-06
1.7879e-06
1.7883e-06
1.79115e-06
1.79111e-06
1.79069e-06
1.7867e-06
1.78385e-06
1.78385e-06
1.78385e-06
1.78385e-06
1.78861e-06
1.78915e-06
1.78814e-06
1.78385e-06
1.78385e-06
1.78385e-06
1.78385e-06
1.78385e-06
1.78385e-06
1.79015e-06
1.79177e-06
1.79104e-06
1.78819e-06
1.78385e-06
1.78385e-06
1.78385e-06
1.78385e-06
1.78385e-06
1.78385e-06
1.79051e-06
1.79103e-06
1.79093e-06
1.78789e-06
1.78385e-06
1.78385e-06
1.78385e-06
1.78385e-06
1.78385e-06
1.78385e-06
1.79038e-06
1.78893e-06
1.7883e-06
1.78385e-06
1.78385e-06
1.78385e-06
1.78385e-06
1.78385e-06
1.78385e-06
1.79041e-06
1.79151e-06
1.79115e-06
1.78861e-06
1.78385e-06
1.78385e-06
1.78385e-06
1.78385e-06
1.79042e-06
1.78972e-06
1.79162e-06
1.7911e-06
1.78914e-06
1.79015e-06
1.79051e-06
1.79038e-06
1.79042e-06
1.78972e-06
1.79152e-06
1.79177e-06
1.79103e-06
1.78894e-06
1.79151e-06
1.79163e-06
1.77001e-06
1.76991e-06
1.76966e-06
1.76713e-06
1.76716e-06
1.76687e-06
1.76728e-06
1.77014e-06
1.77008e-06
1.76967e-06
1.76568e-06
1.76283e-06
1.76283e-06
1.76282e-06
1.76283e-06
1.76759e-06
1.76812e-06
1.76712e-06
1.76283e-06
1.76283e-06
1.76283e-06
1.76283e-06
1.76283e-06
1.76283e-06
1.76913e-06
1.77075e-06
1.77002e-06
1.76717e-06
1.76283e-06
1.76283e-06
1.76283e-06
1.76283e-06
1.76283e-06
1.76283e-06
1.76949e-06
1.77001e-06
1.76991e-06
1.76687e-06
1.76283e-06
1.76283e-06
1.76283e-06
1.76283e-06
1.76283e-06
1.76283e-06
1.76936e-06
1.76791e-06
1.76728e-06
1.76283e-06
1.76283e-06
1.76283e-06
1.76283e-06
1.76283e-06
1.76283e-06
1.76939e-06
1.77049e-06
1.77013e-06
1.76758e-06
1.76283e-06
1.76283e-06
1.76283e-06
1.76283e-06
1.7694e-06
1.7687e-06
1.7706e-06
1.77008e-06
1.76812e-06
1.76913e-06
1.76949e-06
1.76936e-06
1.7694e-06
1.7687e-06
1.77049e-06
1.77075e-06
1.77001e-06
1.76792e-06
1.77049e-06
1.7706e-06
1.74898e-06
1.74889e-06
1.74863e-06
1.7461e-06
1.74614e-06
1.74585e-06
1.74625e-06
1.74911e-06
1.74905e-06
1.74865e-06
1.74466e-06
1.7418e-06
1.7418e-06
1.7418e-06
1.7418e-06
1.74657e-06
1.7471e-06
1.7461e-06
1.7418e-06
1.7418e-06
1.7418e-06
1.7418e-06
1.7418e-06
1.7418e-06
1.7481e-06
1.74973e-06
1.749e-06
1.74614e-06
1.7418e-06
1.7418e-06
1.7418e-06
1.7418e-06
1.7418e-06
1.7418e-06
1.74846e-06
1.74898e-06
1.74889e-06
1.74585e-06
1.7418e-06
1.7418e-06
1.7418e-06
1.7418e-06
1.7418e-06
1.7418e-06
1.74833e-06
1.74689e-06
1.74626e-06
1.7418e-06
1.7418e-06
1.7418e-06
1.7418e-06
1.7418e-06
1.7418e-06
1.74837e-06
1.74947e-06
1.74911e-06
1.74656e-06
1.7418e-06
1.7418e-06
1.7418e-06
1.7418e-06
1.74838e-06
1.74768e-06
1.74958e-06
1.74905e-06
1.7471e-06
1.74811e-06
1.74847e-06
1.74834e-06
1.74837e-06
1.74767e-06
1.74947e-06
1.74972e-06
1.74899e-06
1.7469e-06
1.74947e-06
1.74958e-06
1.72796e-06
1.72786e-06
1.72761e-06
1.72508e-06
1.72512e-06
1.72483e-06
1.72523e-06
1.72809e-06
1.72803e-06
1.72763e-06
1.72363e-06
1.72078e-06
1.72078e-06
1.72078e-06
1.72078e-06
1.72555e-06
1.72608e-06
1.72508e-06
1.72078e-06
1.72078e-06
1.72078e-06
1.72078e-06
1.72078e-06
1.72078e-06
1.72708e-06
1.7287e-06
1.72797e-06
1.72512e-06
1.72078e-06
1.72078e-06
1.72078e-06
1.72078e-06
1.72078e-06
1.72078e-06
1.72744e-06
1.72796e-06
1.72786e-06
1.72482e-06
1.72078e-06
1.72078e-06
1.72078e-06
1.72078e-06
1.72078e-06
1.72078e-06
1.72731e-06
1.72586e-06
1.72523e-06
1.72078e-06
1.72078e-06
1.72078e-06
1.72078e-06
1.72078e-06
1.72078e-06
1.72734e-06
1.72844e-06
1.72808e-06
1.72554e-06
1.72078e-06
1.72078e-06
1.72078e-06
1.72078e-06
1.72735e-06
1.72665e-06
1.72855e-06
1.72803e-06
1.72607e-06
1.72708e-06
1.72745e-06
1.72732e-06
1.72735e-06
1.72665e-06
1.72845e-06
1.7287e-06
1.72797e-06
1.72588e-06
1.72845e-06
1.72856e-06
1.70694e-06
1.70684e-06
1.70659e-06
1.70406e-06
1.70409e-06
1.7038e-06
1.70421e-06
1.70706e-06
1.70701e-06
1.7066e-06
1.70261e-06
1.69976e-06
1.69976e-06
1.69976e-06
1.69976e-06
1.70452e-06
1.70505e-06
1.70405e-06
1.69976e-06
1.69976e-06
1.69976e-06
1.69976e-06
1.69976e-06
1.69976e-06
1.70606e-06
1.70768e-06
1.70695e-06
1.7041e-06
1.69976e-06
1.69976e-06
1.69976e-06
1.69976e-06
1.69976e-06
1.69976e-06
1.70642e-06
1.70694e-06
1.70684e-06
1.7038e-06
1.69976e-06
1.69976e-06
1.69976e-06
1.69976e-06
1.69976e-06
1.69976e-06
1.70629e-06
1.70484e-06
1.70421e-06
1.69976e-06
1.69976e-06
1.69976e-06
1.69976e-06
1.69976e-06
1.69976e-06
1.70632e-06
1.70742e-06
1.70706e-06
1.70452e-06
1.69976e-06
1.69976e-06
1.69976e-06
1.69976e-06
1.70633e-06
1.70563e-06
1.70753e-06
1.70701e-06
1.70505e-06
1.70606e-06
1.70642e-06
1.70629e-06
1.70633e-06
1.70563e-06
1.70742e-06
1.70768e-06
1.70694e-06
1.70485e-06
1.70742e-06
1.70754e-06
1.68591e-06
1.68582e-06
1.68557e-06
1.68304e-06
1.68307e-06
1.68278e-06
1.68319e-06
1.68604e-06
1.68598e-06
1.68558e-06
1.68159e-06
1.67873e-06
1.67873e-06
1.67873e-06
1.67873e-06
1.6835e-06
1.68403e-06
1.68303e-06
1.67873e-06
1.67873e-06
1.67873e-06
1.67873e-06
1.67873e-06
1.67873e-06
1.68504e-06
1.68666e-06
1.68593e-06
1.68307e-06
1.67873e-06
1.67873e-06
1.67873e-06
1.67873e-06
1.67873e-06
1.67873e-06
1.68539e-06
1.68591e-06
1.68582e-06
1.68278e-06
1.67873e-06
1.67873e-06
1.67873e-06
1.67873e-06
1.67873e-06
1.67873e-06
1.68526e-06
1.68382e-06
1.68319e-06
1.67873e-06
1.67873e-06
1.67873e-06
1.67873e-06
1.67873e-06
1.67873e-06
1.6853e-06
1.6864e-06
1.68604e-06
1.68349e-06
1.67873e-06
1.67873e-06
1.67873e-06
1.67873e-06
1.68531e-06
1.68461e-06
1.68651e-06
1.68599e-06
1.68403e-06
1.68504e-06
1.6854e-06
1.68527e-06
1.68531e-06
1.6846e-06
1.6864e-06
1.68666e-06
1.68592e-06
1.68383e-06
1.6864e-06
1.68651e-06
1.66489e-06
1.66479e-06
1.66454e-06
1.66201e-06
1.66205e-06
1.66176e-06
1.66216e-06
1.66502e-06
1.66496e-06
1.66456e-06
1.66056e-06
1.65771e-06
1.65771e-06
1.65771e-06
1.65771e-06
1.66248e-06
1.66301e-06
1.66201e-06
1.65771e-06
1.65771e-06
1.65771e-06
1.65771e-06
1.65771e-06
1.65771e-06
1.66401e-06
1.66564e-06
1.66491e-06
1.66205e-06
1.65771e-06
1.65771e-06
1.65771e-06
1.65771e-06
1.65771e-06
1.65771e-06
1.66437e-06
1.66489e-06
1.6648e-06
1.66176e-06
1.65771e-06
1.65771e-06
1.65771e-06
1.65771e-06
1.65771e-06
1.65771e-06
1.66424e-06
1.6628e-06
1.66216e-06
1.65771e-06
1.65771e-06
1.65771e-06
1.65771e-06
1.65771e-06
1.65771e-06
1.66427e-06
1.66537e-06
1.66502e-06
1.66247e-06
1.65771e-06
1.65771e-06
1.65771e-06
1.65771e-06
1.66429e-06
1.66358e-06
1.66548e-06
1.66496e-06
1.66301e-06
1.66401e-06
1.66438e-06
1.66425e-06
1.66428e-06
1.66358e-06
1.66538e-06
1.66563e-06
1.6649e-06
1.66281e-06
1.66538e-06
1.66549e-06
1.64387e-06
1.64377e-06
1.64352e-06
1.64099e-06
1.64103e-06
1.64073e-06
1.64114e-06
1.644e-06
1.64394e-06
1.64354e-06
1.63954e-06
1.63669e-06
1.63669e-06
1.63669e-06
1.63669e-06
1.64146e-06
1.64199e-06
1.64098e-06
1.63669e-06
1.63669e-06
1.63669e-06
1.63669e-06
1.63669e-06
1.63669e-06
1.64299e-06
1.64461e-06
1.64388e-06
1.64103e-06
1.63669e-06
1.63669e-06
1.63669e-06
1.63669e-06
1.63669e-06
1.63669e-06
1.64335e-06
1.64387e-06
1.64377e-06
1.64073e-06
1.63669e-06
1.63669e-06
1.63669e-06
1.63669e-06
1.63669e-06
1.63669e-06
1.64322e-06
1.64177e-06
1.64114e-06
1.63669e-06
1.63669e-06
1.63669e-06
1.63669e-06
1.63669e-06
1.63669e-06
1.64325e-06
1.64435e-06
1.64399e-06
1.64145e-06
1.63669e-06
1.63669e-06
1.63669e-06
1.63669e-06
1.64326e-06
1.64256e-06
1.64446e-06
1.64394e-06
1.64198e-06
1.64299e-06
1.64335e-06
1.64322e-06
1.64326e-06
1.64256e-06
1.64436e-06
1.64461e-06
1.64387e-06
1.64178e-06
1.64435e-06
1.64447e-06
1.62285e-06
1.62275e-06
1.6225e-06
1.61997e-06
1.62e-06
1.61971e-06
1.62012e-06
1.62297e-06
1.62292e-06
1.62251e-06
1.61852e-06
1.61567e-06
1.61567e-06
1.61567e-06
1.61567e-06
1.62043e-06
1.62096e-06
1.61996e-06
1.61567e-06
1.61567e-06
1.61567e-06
1.61567e-06
1.61567e-06
1.61567e-06
1.62197e-06
1.62359e-06
1.62286e-06
1.62001e-06
1.61567e-06
1.61567e-06
1.61567e-06
1.61567e-06
1.61567e-06
1.61567e-06
1.62233e-06
1.62285e-06
1.62275e-06
1.61971e-06
1.61567e-06
1.61567e-06
1.61567e-06
1.61567e-06
1.61567e-06
1.61567e-06
1.6222e-06
1.62075e-06
1.62012e-06
1.61567e-06
1.61567e-06
1.61567e-06
1.61567e-06
1.61567e-06
1.61567e-06
1.62223e-06
1.62333e-06
1.62297e-06
1.62042e-06
1.61567e-06
1.61567e-06
1.61567e-06
1.61567e-06
1.62224e-06
1.62154e-06
1.62344e-06
1.62292e-06
1.62096e-06
1.62197e-06
1.62233e-06
1.6222e-06
1.62224e-06
1.62153e-06
1.62333e-06
1.62359e-06
1.62285e-06
1.62076e-06
1.62333e-06
1.62344e-06
1.60182e-06
1.60173e-06
1.60148e-06
1.59894e-06
1.59898e-06
1.59869e-06
1.5991e-06
1.60195e-06
1.60189e-06
1.60149e-06
1.5975e-06
1.59464e-06
1.59464e-06
1.59464e-06
1.59464e-06
1.59941e-06
1.59994e-06
1.59894e-06
1.59464e-06
1.59464e-06
1.59464e-06
1.59464e-06
1.59464e-06
1.59464e-06
1.60095e-06
1.60257e-06
1.60184e-06
1.59898e-06
1.59464e-06
1.59464e-06
1.59464e-06
1.59464e-06
1.59464e-06
1.59464e-06
1.6013e-06
1.60182e-06
1.60173e-06
1.59869e-06
1.59464e-06
1.59464e-06
1.59464e-06
1.59464e-06
1.59464e-06
1.59464e-06
1.60117e-06
1.59973e-06
1.5991e-06
1.59464e-06
1.59464e-06
1.59464e-06
1.59464e-06
1.59464e-06
1.59464e-06
1.60121e-06
1.60231e-06
1.60195e-06
1.5994e-06
1.59464e-06
1.59464e-06
1.59464e-06
1.59464e-06
1.60122e-06
1.60052e-06
1.60242e-06
1.6019e-06
1.59994e-06
1.60094e-06
1.60131e-06
1.60118e-06
1.60121e-06
1.60051e-06
1.60231e-06
1.60256e-06
1.60183e-06
1.59974e-06
1.60231e-06
1.60242e-06
1.5808e-06
1.5807e-06
1.58045e-06
1.57792e-06
1.57796e-06
1.57767e-06
1.57808e-06
1.58093e-06
1.58087e-06
1.58047e-06
1.57647e-06
1.57362e-06
1.57362e-06
1.57362e-06
1.57362e-06
1.57839e-06
1.57892e-06
1.57792e-06
1.57362e-06
1.57362e-06
1.57362e-06
1.57362e-06
1.57362e-06
1.57362e-06
1.57992e-06
1.58155e-06
1.58082e-06
1.57796e-06
1.57362e-06
1.57362e-06
1.57362e-06
1.57362e-06
1.57362e-06
1.57362e-06
1.58028e-06
1.5808e-06
1.58071e-06
1.57767e-06
1.57362e-06
1.57362e-06
1.57362e-06
1.57362e-06
1.57362e-06
1.57362e-06
1.58015e-06
1.57871e-06
1.57807e-06
1.57362e-06
1.57362e-06
1.57362e-06
1.57362e-06
1.57362e-06
1.57362e-06
1.58019e-06
1.58128e-06
1.58093e-06
1.57838e-06
1.57362e-06
1.57362e-06
1.57362e-06
1.57362e-06
1.5802e-06
1.57949e-06
1.58139e-06
1.58087e-06
1.57892e-06
1.57992e-06
1.58029e-06
1.58016e-06
1.58019e-06
1.57949e-06
1.58129e-06
1.58154e-06
1.58081e-06
1.57872e-06
1.58129e-06
1.5814e-06
1.55978e-06
1.55968e-06
1.55943e-06
1.5569e-06
1.55694e-06
1.55665e-06
1.55705e-06
1.5599e-06
1.55985e-06
1.55945e-06
1.55545e-06
1.5526e-06
1.5526e-06
1.5526e-06
1.5526e-06
1.55737e-06
1.5579e-06
1.5569e-06
1.5526e-06
1.5526e-06
1.5526e-06
1.5526e-06
1.5526e-06
1.5526e-06
1.5589e-06
1.56053e-06
1.55979e-06
1.55694e-06
1.5526e-06
1.5526e-06
1.5526e-06
1.5526e-06
1.5526e-06
1.5526e-06
1.55926e-06
1.55978e-06
1.55968e-06
1.55664e-06
1.5526e-06
1.5526e-06
1.5526e-06
1.5526e-06
1.5526e-06
1.5526e-06
1.55913e-06
1.55769e-06
1.55705e-06
1.5526e-06
1.5526e-06
1.5526e-06
1.5526e-06
1.5526e-06
1.5526e-06
1.55916e-06
1.56026e-06
1.55991e-06
1.55736e-06
1.5526e-06
1.5526e-06
1.5526e-06
1.5526e-06
1.55917e-06
1.55847e-06
1.56037e-06
1.55985e-06
1.5579e-06
1.5589e-06
1.55927e-06
1.55913e-06
1.55917e-06
1.55847e-06
1.56027e-06
1.56052e-06
1.55979e-06
1.55769e-06
1.56027e-06
1.56038e-06
1.53876e-06
1.53866e-06
1.53841e-06
1.53588e-06
1.53592e-06
1.53563e-06
1.53603e-06
1.53889e-06
1.53883e-06
1.53843e-06
1.53443e-06
1.53158e-06
1.53158e-06
1.53158e-06
1.53158e-06
1.53635e-06
1.53688e-06
1.53587e-06
1.53158e-06
1.53158e-06
1.53158e-06
1.53158e-06
1.53158e-06
1.53158e-06
1.53788e-06
1.53951e-06
1.53877e-06
1.53592e-06
1.53158e-06
1.53158e-06
1.53158e-06
1.53158e-06
1.53158e-06
1.53158e-06
1.53824e-06
1.53876e-06
1.53866e-06
1.53562e-06
1.53158e-06
1.53158e-06
1.53158e-06
1.53158e-06
1.53158e-06
1.53158e-06
1.53811e-06
1.53666e-06
1.53603e-06
1.53158e-06
1.53158e-06
1.53158e-06
1.53158e-06
1.53158e-06
1.53158e-06
1.53814e-06
1.53924e-06
1.53888e-06
1.53634e-06
1.53158e-06
1.53158e-06
1.53158e-06
1.53158e-06
1.53815e-06
1.53745e-06
1.53935e-06
1.53883e-06
1.53687e-06
1.53788e-06
1.53824e-06
1.53811e-06
1.53815e-06
1.53745e-06
1.53925e-06
1.5395e-06
1.53876e-06
1.53667e-06
1.53925e-06
1.53936e-06
1.51774e-06
1.51764e-06
1.51739e-06
1.51486e-06
1.5149e-06
1.5146e-06
1.51501e-06
1.51786e-06
1.51782e-06
1.5174e-06
1.51341e-06
1.51056e-06
1.51056e-06
1.51056e-06
1.51056e-06
1.51533e-06
1.51586e-06
1.51485e-06
1.51056e-06
1.51056e-06
1.51056e-06
1.51056e-06
1.51056e-06
1.51056e-06
1.51686e-06
1.51848e-06
1.51775e-06
1.5149e-06
1.51056e-06
1.51056e-06
1.51056e-06
1.51056e-06
1.51056e-06
1.51056e-06
1.51722e-06
1.51774e-06
1.51764e-06
1.5146e-06
1.51056e-06
1.51056e-06
1.51056e-06
1.51056e-06
1.51056e-06
1.51056e-06
1.51709e-06
1.51564e-06
1.51501e-06
1.51056e-06
1.51056e-06
1.51056e-06
1.51056e-06
1.51056e-06
1.51056e-06
1.51712e-06
1.51822e-06
1.51786e-06
1.51532e-06
1.51056e-06
1.51056e-06
1.51056e-06
1.51056e-06
1.51713e-06
1.51643e-06
1.51833e-06
1.51781e-06
1.51585e-06
1.51686e-06
1.51722e-06
1.51709e-06
1.51713e-06
1.51643e-06
1.51823e-06
1.51848e-06
1.51774e-06
1.51565e-06
1.51822e-06
1.51833e-06
1.49672e-06
1.49662e-06
1.49637e-06
1.49384e-06
1.49387e-06
1.49358e-06
1.49399e-06
1.49684e-06
1.49679e-06
1.49638e-06
1.49239e-06
1.48954e-06
1.48954e-06
1.48954e-06
1.48954e-06
1.4943e-06
1.49483e-06
1.49383e-06
1.48954e-06
1.48954e-06
1.48954e-06
1.48954e-06
1.48954e-06
1.48954e-06
1.49584e-06
1.49746e-06
1.49673e-06
1.49388e-06
1.48954e-06
1.48954e-06
1.48954e-06
1.48954e-06
1.48954e-06
1.48954e-06
1.4962e-06
1.49672e-06
1.49662e-06
1.49358e-06
1.48954e-06
1.48954e-06
1.48954e-06
1.48954e-06
1.48954e-06
1.48954e-06
1.49607e-06
1.49462e-06
1.49399e-06
1.48954e-06
1.48954e-06
1.48954e-06
1.48954e-06
1.48954e-06
1.48954e-06
1.4961e-06
1.4972e-06
1.49684e-06
1.49429e-06
1.48954e-06
1.48954e-06
1.48954e-06
1.48954e-06
1.49611e-06
1.49541e-06
1.49731e-06
1.49679e-06
1.49483e-06
1.49584e-06
1.4962e-06
1.49607e-06
1.49611e-06
1.4954e-06
1.4972e-06
1.49746e-06
1.49672e-06
1.49463e-06
1.4972e-06
1.49731e-06
1.4757e-06
1.4756e-06
1.47535e-06
1.47282e-06
1.47285e-06
1.47256e-06
1.47297e-06
1.47582e-06
1.47577e-06
1.47536e-06
1.47137e-06
1.46851e-06
1.46851e-06
1.46851e-06
1.46851e-06
1.47328e-06
1.47381e-06
1.47281e-06
1.46851e-06
1.46851e-06
1.46851e-06
1.46851e-06
1.46851e-06
1.46851e-06
1.47482e-06
1.47644e-06
1.47571e-06
1.47285e-06
1.46851e-06
1.46851e-06
1.46851e-06
1.46851e-06
1.46851e-06
1.46851e-06
1.47518e-06
1.47569e-06
1.4756e-06
1.47256e-06
1.46851e-06
1.46851e-06
1.46851e-06
1.46851e-06
1.46851e-06
1.46851e-06
1.47504e-06
1.4736e-06
1.47297e-06
1.46851e-06
1.46851e-06
1.46851e-06
1.46851e-06
1.46851e-06
1.46851e-06
1.47508e-06
1.47618e-06
1.47582e-06
1.47327e-06
1.46851e-06
1.46851e-06
1.46851e-06
1.46851e-06
1.47509e-06
1.47439e-06
1.47629e-06
1.47577e-06
1.47381e-06
1.47482e-06
1.47518e-06
1.47505e-06
1.47509e-06
1.47438e-06
1.47618e-06
1.47644e-06
1.4757e-06
1.47361e-06
1.47618e-06
1.47629e-06
1.45467e-06
1.45458e-06
1.45433e-06
1.4518e-06
1.45183e-06
1.45154e-06
1.45195e-06
1.4548e-06
1.45474e-06
1.45434e-06
1.45034e-06
1.44749e-06
1.44749e-06
1.44749e-06
1.44749e-06
1.45226e-06
1.45279e-06
1.45179e-06
1.44749e-06
1.44749e-06
1.44749e-06
1.44749e-06
1.44749e-06
1.44749e-06
1.45379e-06
1.45542e-06
1.45469e-06
1.45183e-06
1.44749e-06
1.44749e-06
1.44749e-06
1.44749e-06
1.44749e-06
1.44749e-06
1.45415e-06
1.45467e-06
1.45458e-06
1.45154e-06
1.44749e-06
1.44749e-06
1.44749e-06
1.44749e-06
1.44749e-06
1.44749e-06
1.45402e-06
1.45258e-06
1.45195e-06
1.44749e-06
1.44749e-06
1.44749e-06
1.44749e-06
1.44749e-06
1.44749e-06
1.45406e-06
1.45516e-06
1.4548e-06
1.45225e-06
1.44749e-06
1.44749e-06
1.44749e-06
1.44749e-06
1.45407e-06
1.45337e-06
1.45527e-06
1.45474e-06
1.45279e-06
1.45379e-06
1.45416e-06
1.45403e-06
1.45406e-06
1.45336e-06
1.45516e-06
1.45541e-06
1.45468e-06
1.45259e-06
1.45516e-06
1.45527e-06
1.43365e-06
1.43355e-06
1.4333e-06
1.43077e-06
1.43081e-06
1.43052e-06
1.43093e-06
1.43378e-06
1.43372e-06
1.43332e-06
1.42932e-06
1.42647e-06
1.42647e-06
1.42647e-06
1.42647e-06
1.43124e-06
1.43177e-06
1.43077e-06
1.42647e-06
1.42647e-06
1.42647e-06
1.42647e-06
1.42647e-06
1.42647e-06
1.43277e-06
1.4344e-06
1.43367e-06
1.43081e-06
1.42647e-06
1.42647e-06
1.42647e-06
1.42647e-06
1.42647e-06
1.42647e-06
1.43313e-06
1.43365e-06
1.43355e-06
1.43051e-06
1.42647e-06
1.42647e-06
1.42647e-06
1.42647e-06
1.42647e-06
1.42647e-06
1.433e-06
1.43156e-06
1.43092e-06
1.42647e-06
1.42647e-06
1.42647e-06
1.42647e-06
1.42647e-06
1.42647e-06
1.43304e-06
1.43413e-06
1.43378e-06
1.43123e-06
1.42647e-06
1.42647e-06
1.42647e-06
1.42647e-06
1.43305e-06
1.43234e-06
1.43424e-06
1.43372e-06
1.43177e-06
1.43277e-06
1.43314e-06
1.43301e-06
1.43304e-06
1.43234e-06
1.43414e-06
1.43439e-06
1.43366e-06
1.43156e-06
1.43414e-06
1.43425e-06
1.41263e-06
1.41253e-06
1.41228e-06
1.40975e-06
1.40979e-06
1.4095e-06
1.4099e-06
1.41276e-06
1.4127e-06
1.4123e-06
1.4083e-06
1.40545e-06
1.40545e-06
1.40545e-06
1.40545e-06
1.41021e-06
1.41075e-06
1.40974e-06
1.40545e-06
1.40545e-06
1.40545e-06
1.40545e-06
1.40545e-06
1.40545e-06
1.41175e-06
1.41338e-06
1.41264e-06
1.40979e-06
1.40545e-06
1.40545e-06
1.40545e-06
1.40545e-06
1.40545e-06
1.40545e-06
1.41211e-06
1.41263e-06
1.41253e-06
1.40949e-06
1.40545e-06
1.40545e-06
1.40545e-06
1.40545e-06
1.40545e-06
1.40545e-06
1.41198e-06
1.41054e-06
1.4099e-06
1.40545e-06
1.40545e-06
1.40545e-06
1.40545e-06
1.40545e-06
1.40545e-06
1.41201e-06
1.41311e-06
1.41275e-06
1.41021e-06
1.40545e-06
1.40545e-06
1.40545e-06
1.40545e-06
1.41203e-06
1.41132e-06
1.41322e-06
1.4127e-06
1.41074e-06
1.41175e-06
1.41212e-06
1.41198e-06
1.41202e-06
1.41132e-06
1.41312e-06
1.41337e-06
1.41263e-06
1.41054e-06
1.41312e-06
1.41323e-06
1.39161e-06
1.39151e-06
1.39126e-06
1.38873e-06
1.38876e-06
1.38847e-06
1.38888e-06
1.39174e-06
1.39168e-06
1.39128e-06
1.38728e-06
1.38443e-06
1.38443e-06
1.38443e-06
1.38443e-06
1.38919e-06
1.38973e-06
1.38872e-06
1.38443e-06
1.38443e-06
1.38443e-06
1.38443e-06
1.38443e-06
1.38443e-06
1.39073e-06
1.39236e-06
1.39162e-06
1.38877e-06
1.38443e-06
1.38443e-06
1.38443e-06
1.38443e-06
1.38443e-06
1.38443e-06
1.39109e-06
1.39161e-06
1.39151e-06
1.38847e-06
1.38443e-06
1.38443e-06
1.38443e-06
1.38443e-06
1.38443e-06
1.38443e-06
1.39096e-06
1.38951e-06
1.38888e-06
1.38443e-06
1.38443e-06
1.38443e-06
1.38443e-06
1.38443e-06
1.38443e-06
1.39099e-06
1.39209e-06
1.39173e-06
1.38919e-06
1.38443e-06
1.38443e-06
1.38443e-06
1.38443e-06
1.391e-06
1.3903e-06
1.3922e-06
1.39168e-06
1.38972e-06
1.39073e-06
1.39109e-06
1.39096e-06
1.391e-06
1.3903e-06
1.3921e-06
1.39235e-06
1.39161e-06
1.38952e-06
1.3921e-06
1.39221e-06
1.37059e-06
1.37049e-06
1.37024e-06
1.36771e-06
1.36774e-06
1.36745e-06
1.36786e-06
1.37072e-06
1.37066e-06
1.37025e-06
1.36626e-06
1.36341e-06
1.36341e-06
1.36341e-06
1.36341e-06
1.36817e-06
1.3687e-06
1.3677e-06
1.36341e-06
1.36341e-06
1.36341e-06
1.36341e-06
1.36341e-06
1.36341e-06
1.36971e-06
1.37133e-06
1.3706e-06
1.36775e-06
1.36341e-06
1.36341e-06
1.36341e-06
1.36341e-06
1.36341e-06
1.36341e-06
1.37007e-06
1.37059e-06
1.37049e-06
1.36745e-06
1.36341e-06
1.36341e-06
1.36341e-06
1.36341e-06
1.36341e-06
1.36341e-06
1.36994e-06
1.36849e-06
1.36786e-06
1.36341e-06
1.36341e-06
1.36341e-06
1.36341e-06
1.36341e-06
1.36341e-06
1.36997e-06
1.37107e-06
1.37071e-06
1.36816e-06
1.36341e-06
1.36341e-06
1.36341e-06
1.36341e-06
1.36998e-06
1.36928e-06