/*--------------------------------*- C++ -*----------------------------------*\
| =========                 |                                                 |
| \\      /  F ield         | OpenFOAM: The Open Source CFD Toolbox           |
|  \\    /   O peration     | Version:  v2012                                 |
|   \\  /    A nd           | Website:  www.openfoam.com                      |
|    \\/     M anipulation  |                                                 |
\*---------------------------------------------------------------------------*/
FoamFile
{
    version     2.0;
    format      ascii;
    class       volScalarField;
    location    "0.025";
    object      p;
}
// * * * * * * * * * * * * * * * * * * * * * * * * * * * * * * * * * * * * * //

dimensions      [0 2 -2 0 0 0 0];


internalField   nonuniform List<scalar> 
247104
(
2.25652e-06
2.25776e-06
2.25723e-06
2.25757e-06
2.25719e-06
2.2576e-06
2.25729e-06
2.2576e-06
2.25771e-06
2.25796e-06
2.25814e-06
2.25808e-06
2.25792e-06
2.25812e-06
2.25815e-06
2.25793e-06
2.25724e-06
2.25816e-06
2.25796e-06
2.25757e-06
2.25741e-06
2.25762e-06
2.25802e-06
2.25813e-06
2.25702e-06
2.25756e-06
2.25808e-06
2.25757e-06
2.25702e-06
2.25683e-06
2.25708e-06
2.25766e-06
2.25811e-06
2.25735e-06
2.2564e-06
2.25713e-06
2.2579e-06
2.25739e-06
2.25682e-06
2.25661e-06
2.25688e-06
2.25748e-06
2.25792e-06
2.25693e-06
2.25751e-06
2.25808e-06
2.2576e-06
2.25707e-06
2.25687e-06
2.25713e-06
2.25769e-06
2.25812e-06
2.25731e-06
2.25723e-06
2.25811e-06
2.25798e-06
2.25763e-06
2.25747e-06
2.25768e-06
2.25804e-06
2.2581e-06
2.25705e-06
2.25754e-06
2.25788e-06
2.25809e-06
2.25808e-06
2.25791e-06
2.25812e-06
2.2581e-06
2.25786e-06
2.25697e-06
2.2573e-06
2.25691e-06
2.25732e-06
2.25707e-06
2.21864e-06
2.21842e-06
2.22482e-06
2.22161e-06
2.21887e-06
2.21989e-06
2.21926e-06
2.2276e-06
2.22536e-06
2.22483e-06
2.22034e-06
2.21408e-06
2.21363e-06
2.21363e-06
2.21408e-06
2.2201e-06
2.22165e-06
2.22155e-06
2.21407e-06
2.21397e-06
2.21392e-06
2.21392e-06
2.21398e-06
2.21409e-06
2.22086e-06
2.2302e-06
2.21882e-06
2.21884e-06
2.21361e-06
2.21392e-06
2.21413e-06
2.21413e-06
2.21393e-06
2.21363e-06
2.21899e-06
2.22387e-06
2.21839e-06
2.21986e-06
2.21361e-06
2.21391e-06
2.21413e-06
2.21413e-06
2.21392e-06
2.21363e-06
2.21952e-06
2.21893e-06
2.21926e-06
2.21406e-06
2.21396e-06
2.21392e-06
2.21392e-06
2.21397e-06
2.21408e-06
2.21933e-06
2.22128e-06
2.2276e-06
2.22007e-06
2.21407e-06
2.21362e-06
2.21362e-06
2.21406e-06
2.21934e-06
2.22138e-06
2.22968e-06
2.22531e-06
2.22165e-06
2.22086e-06
2.21897e-06
2.21949e-06
2.2193e-06
2.2214e-06
2.23091e-06
2.23025e-06
2.22377e-06
2.21892e-06
2.22119e-06
2.22979e-06
2.20203e-06
2.20235e-06
2.20082e-06
2.19912e-06
2.19894e-06
2.19885e-06
2.19913e-06
2.20236e-06
2.20195e-06
2.20083e-06
2.19883e-06
2.19686e-06
2.19649e-06
2.19648e-06
2.19682e-06
2.20139e-06
2.19983e-06
2.19909e-06
2.19675e-06
2.19621e-06
2.19603e-06
2.19604e-06
2.19623e-06
2.19684e-06
2.20193e-06
2.20293e-06
2.2019e-06
2.19891e-06
2.19646e-06
2.19602e-06
2.19585e-06
2.19586e-06
2.19605e-06
2.19651e-06
2.20091e-06
2.20198e-06
2.20231e-06
2.19881e-06
2.19647e-06
2.19603e-06
2.19585e-06
2.19586e-06
2.19605e-06
2.19652e-06
2.20038e-06
2.19882e-06
2.19908e-06
2.19678e-06
2.19621e-06
2.19603e-06
2.19603e-06
2.19624e-06
2.1969e-06
2.20153e-06
2.20257e-06
2.2023e-06
2.20135e-06
2.19683e-06
2.19648e-06
2.19645e-06
2.19678e-06
2.20209e-06
2.20097e-06
2.2023e-06
2.20192e-06
2.19978e-06
2.20193e-06
2.2009e-06
2.20036e-06
2.20149e-06
2.20098e-06
2.20381e-06
2.20297e-06
2.202e-06
2.19886e-06
2.20258e-06
2.20234e-06
2.17669e-06
2.17685e-06
2.17581e-06
2.17442e-06
2.17415e-06
2.17406e-06
2.1745e-06
2.17799e-06
2.17737e-06
2.17581e-06
2.17413e-06
2.17161e-06
2.17129e-06
2.17129e-06
2.17163e-06
2.17844e-06
2.17565e-06
2.17439e-06
2.17165e-06
2.17151e-06
2.1714e-06
2.1714e-06
2.17149e-06
2.17157e-06
2.17892e-06
2.17819e-06
2.17666e-06
2.17413e-06
2.1713e-06
2.1714e-06
2.1714e-06
2.17139e-06
2.17138e-06
2.17126e-06
2.17785e-06
2.17688e-06
2.17681e-06
2.17404e-06
2.17129e-06
2.17139e-06
2.17139e-06
2.17139e-06
2.17138e-06
2.17126e-06
2.17716e-06
2.17407e-06
2.17447e-06
2.17162e-06
2.17148e-06
2.17138e-06
2.17139e-06
2.17148e-06
2.17157e-06
2.17853e-06
2.17746e-06
2.17798e-06
2.1784e-06
2.17157e-06
2.17127e-06
2.17128e-06
2.17163e-06
2.18015e-06
2.17747e-06
2.17778e-06
2.17734e-06
2.17561e-06
2.17891e-06
2.17785e-06
2.17718e-06
2.17855e-06
2.17754e-06
2.17958e-06
2.17819e-06
2.17691e-06
2.17411e-06
2.17752e-06
2.17784e-06
2.15382e-06
2.15404e-06
2.15293e-06
2.15128e-06
2.15089e-06
2.15089e-06
2.15132e-06
2.15509e-06
2.15424e-06
2.15284e-06
2.15056e-06
2.14706e-06
2.14699e-06
2.14699e-06
2.14706e-06
2.1555e-06
2.15267e-06
2.15128e-06
2.14706e-06
2.14706e-06
2.14705e-06
2.14705e-06
2.14706e-06
2.14705e-06
2.15669e-06
2.15544e-06
2.15379e-06
2.15089e-06
2.14699e-06
2.14705e-06
2.14707e-06
2.14707e-06
2.14705e-06
2.14699e-06
2.15584e-06
2.15407e-06
2.15399e-06
2.15088e-06
2.147e-06
2.14705e-06
2.14707e-06
2.14707e-06
2.14705e-06
2.14699e-06
2.15516e-06
2.15115e-06
2.15133e-06
2.14707e-06
2.14707e-06
2.14705e-06
2.14705e-06
2.14706e-06
2.14705e-06
2.15638e-06
2.15467e-06
2.15507e-06
2.15552e-06
2.14706e-06
2.14699e-06
2.14699e-06
2.14706e-06
2.15792e-06
2.15487e-06
2.15495e-06
2.15409e-06
2.15265e-06
2.15669e-06
2.15584e-06
2.15517e-06
2.15639e-06
2.15487e-06
2.15615e-06
2.15545e-06
2.15407e-06
2.1512e-06
2.15468e-06
2.15497e-06
2.13072e-06
2.13091e-06
2.12981e-06
2.12818e-06
2.1276e-06
2.12761e-06
2.12817e-06
2.13217e-06
2.13121e-06
2.13004e-06
2.12732e-06
2.12329e-06
2.12328e-06
2.12328e-06
2.12332e-06
2.13242e-06
2.1296e-06
2.12818e-06
2.12331e-06
2.1233e-06
2.1233e-06
2.12331e-06
2.12332e-06
2.12332e-06
2.13379e-06
2.13252e-06
2.13069e-06
2.12758e-06
2.12328e-06
2.1233e-06
2.12331e-06
2.12332e-06
2.12331e-06
2.12329e-06
2.13299e-06
2.13096e-06
2.1309e-06
2.12761e-06
2.12329e-06
2.12331e-06
2.12332e-06
2.12332e-06
2.12331e-06
2.12329e-06
2.1323e-06
2.128e-06
2.12817e-06
2.12332e-06
2.12331e-06
2.12331e-06
2.12331e-06
2.12332e-06
2.12331e-06
2.13353e-06
2.13163e-06
2.13217e-06
2.13245e-06
2.12331e-06
2.12329e-06
2.12329e-06
2.12332e-06
2.13508e-06
2.13201e-06
2.1321e-06
2.13121e-06
2.1296e-06
2.13378e-06
2.13305e-06
2.13233e-06
2.13354e-06
2.13197e-06
2.1333e-06
2.13252e-06
2.13095e-06
2.12803e-06
2.13163e-06
2.13208e-06
2.10738e-06
2.10757e-06
2.10652e-06
2.10485e-06
2.1042e-06
2.10422e-06
2.10482e-06
2.10892e-06
2.10795e-06
2.1066e-06
2.10397e-06
2.09976e-06
2.09976e-06
2.09976e-06
2.09978e-06
2.1091e-06
2.10628e-06
2.10484e-06
2.09976e-06
2.09977e-06
2.09977e-06
2.09978e-06
2.09978e-06
2.09979e-06
2.11053e-06
2.10922e-06
2.10737e-06
2.10419e-06
2.09976e-06
2.09977e-06
2.09978e-06
2.09978e-06
2.09978e-06
2.09978e-06
2.10977e-06
2.10763e-06
2.10757e-06
2.10422e-06
2.09976e-06
2.09977e-06
2.09978e-06
2.09978e-06
2.09978e-06
2.09978e-06
2.10909e-06
2.10467e-06
2.10481e-06
2.09977e-06
2.09977e-06
2.09978e-06
2.09978e-06
2.09979e-06
2.09979e-06
2.11026e-06
2.10831e-06
2.1089e-06
2.10908e-06
2.09977e-06
2.09977e-06
2.09977e-06
2.09979e-06
2.11179e-06
2.1087e-06
2.10882e-06
2.10798e-06
2.10628e-06
2.11049e-06
2.10979e-06
2.10904e-06
2.11028e-06
2.10871e-06
2.10999e-06
2.10923e-06
2.10762e-06
2.10468e-06
2.1083e-06
2.10882e-06
2.08397e-06
2.08416e-06
2.08312e-06
2.08144e-06
2.08078e-06
2.0808e-06
2.08138e-06
2.08553e-06
2.08454e-06
2.08319e-06
2.08055e-06
2.07631e-06
2.0763e-06
2.07629e-06
2.07632e-06
2.08568e-06
2.0829e-06
2.08144e-06
2.0763e-06
2.0763e-06
2.0763e-06
2.0763e-06
2.07631e-06
2.07631e-06
2.08714e-06
2.08584e-06
2.08397e-06
2.08079e-06
2.0763e-06
2.0763e-06
2.0763e-06
2.07631e-06
2.07631e-06
2.07631e-06
2.08635e-06
2.08422e-06
2.08416e-06
2.08082e-06
2.07631e-06
2.07631e-06
2.07631e-06
2.07631e-06
2.07631e-06
2.0763e-06
2.08568e-06
2.08126e-06
2.08138e-06
2.0763e-06
2.07631e-06
2.07631e-06
2.07631e-06
2.07631e-06
2.0763e-06
2.08685e-06
2.0849e-06
2.08549e-06
2.08567e-06
2.07631e-06
2.0763e-06
2.0763e-06
2.07631e-06
2.08843e-06
2.08532e-06
2.08542e-06
2.0847e-06
2.08288e-06
2.08713e-06
2.08637e-06
2.0857e-06
2.08681e-06
2.08528e-06
2.08658e-06
2.08584e-06
2.08421e-06
2.08128e-06
2.08489e-06
2.08542e-06
2.06054e-06
2.06073e-06
2.0597e-06
2.05802e-06
2.05732e-06
2.05737e-06
2.05794e-06
2.06208e-06
2.0611e-06
2.05978e-06
2.05711e-06
2.05285e-06
2.05284e-06
2.05284e-06
2.05285e-06
2.06223e-06
2.05946e-06
2.05802e-06
2.05285e-06
2.05285e-06
2.05285e-06
2.05285e-06
2.05285e-06
2.05285e-06
2.06367e-06
2.06237e-06
2.06054e-06
2.05734e-06
2.05285e-06
2.05285e-06
2.05285e-06
2.05285e-06
2.05284e-06
2.05284e-06
2.0629e-06
2.06076e-06
2.06073e-06
2.05738e-06
2.05284e-06
2.05285e-06
2.05285e-06
2.05285e-06
2.05284e-06
2.05284e-06
2.06224e-06
2.05781e-06
2.05796e-06
2.05284e-06
2.05284e-06
2.05284e-06
2.05284e-06
2.05285e-06
2.05284e-06
2.06341e-06
2.06145e-06
2.06206e-06
2.06221e-06
2.05284e-06
2.05284e-06
2.05284e-06
2.05285e-06
2.06498e-06
2.06188e-06
2.06198e-06
2.06126e-06
2.05944e-06
2.06371e-06
2.06292e-06
2.06225e-06
2.06338e-06
2.06185e-06
2.06314e-06
2.0624e-06
2.06077e-06
2.05784e-06
2.06145e-06
2.06198e-06
2.03709e-06
2.03728e-06
2.03625e-06
2.03457e-06
2.03387e-06
2.03391e-06
2.03449e-06
2.03864e-06
2.03765e-06
2.03633e-06
2.03368e-06
2.02939e-06
2.02939e-06
2.02939e-06
2.02939e-06
2.0388e-06
2.03601e-06
2.03458e-06
2.02939e-06
2.02939e-06
2.02939e-06
2.02939e-06
2.02939e-06
2.02939e-06
2.04022e-06
2.03893e-06
2.03709e-06
2.0339e-06
2.02939e-06
2.02939e-06
2.02939e-06
2.02939e-06
2.02939e-06
2.02939e-06
2.03946e-06
2.03732e-06
2.03728e-06
2.03393e-06
2.02939e-06
2.02939e-06
2.02939e-06
2.02939e-06
2.02939e-06
2.02939e-06
2.03879e-06
2.03436e-06
2.03451e-06
2.02939e-06
2.02939e-06
2.02939e-06
2.02939e-06
2.02939e-06
2.02939e-06
2.03995e-06
2.038e-06
2.03861e-06
2.03876e-06
2.02939e-06
2.02939e-06
2.02939e-06
2.02939e-06
2.04154e-06
2.03843e-06
2.03853e-06
2.03781e-06
2.03601e-06
2.04026e-06
2.03948e-06
2.03883e-06
2.03994e-06
2.0384e-06
2.03969e-06
2.03895e-06
2.03732e-06
2.03439e-06
2.03801e-06
2.03853e-06
2.01364e-06
2.01383e-06
2.01282e-06
2.01112e-06
2.01042e-06
2.01046e-06
2.01104e-06
2.01516e-06
2.01419e-06
2.01288e-06
2.01021e-06
2.00593e-06
2.00594e-06
2.00594e-06
2.00593e-06
2.01536e-06
2.01256e-06
2.01112e-06
2.00594e-06
2.00593e-06
2.00594e-06
2.00594e-06
2.00593e-06
2.00594e-06
2.01677e-06
2.01548e-06
2.01364e-06
2.01044e-06
2.00594e-06
2.00594e-06
2.00594e-06
2.00594e-06
2.00593e-06
2.00594e-06
2.01601e-06
2.01387e-06
2.01383e-06
2.01047e-06
2.00594e-06
2.00594e-06
2.00594e-06
2.00594e-06
2.00594e-06
2.00594e-06
2.01534e-06
2.01091e-06
2.01105e-06
2.00594e-06
2.00594e-06
2.00594e-06
2.00594e-06
2.00594e-06
2.00594e-06
2.0165e-06
2.01455e-06
2.01516e-06
2.01531e-06
2.00593e-06
2.00594e-06
2.00594e-06
2.00594e-06
2.01809e-06
2.01498e-06
2.01508e-06
2.01436e-06
2.01255e-06
2.01681e-06
2.01604e-06
2.01538e-06
2.01648e-06
2.01494e-06
2.01624e-06
2.0155e-06
2.01387e-06
2.01093e-06
2.01455e-06
2.01508e-06
1.99019e-06
1.99038e-06
1.98951e-06
1.98766e-06
1.98697e-06
1.98702e-06
1.98759e-06
1.9917e-06
1.99074e-06
1.98948e-06
1.98675e-06
1.98248e-06
1.98248e-06
1.98248e-06
1.98248e-06
1.99188e-06
1.98911e-06
1.98767e-06
1.98248e-06
1.98248e-06
1.98248e-06
1.98248e-06
1.98248e-06
1.98248e-06
1.99331e-06
1.99202e-06
1.99019e-06
1.98699e-06
1.98248e-06
1.98248e-06
1.98248e-06
1.98248e-06
1.98248e-06
1.98248e-06
1.99255e-06
1.99041e-06
1.99038e-06
1.98702e-06
1.98248e-06
1.98248e-06
1.98248e-06
1.98248e-06
1.98248e-06
1.98248e-06
1.99188e-06
1.98745e-06
1.9876e-06
1.98248e-06
1.98248e-06
1.98248e-06
1.98248e-06
1.98248e-06
1.98248e-06
1.99304e-06
1.9911e-06
1.99171e-06
1.99186e-06
1.98248e-06
1.98248e-06
1.98248e-06
1.98248e-06
1.99463e-06
1.99152e-06
1.99162e-06
1.99091e-06
1.9891e-06
1.99335e-06
1.99258e-06
1.99192e-06
1.99303e-06
1.99149e-06
1.99279e-06
1.99204e-06
1.99042e-06
1.98748e-06
1.9911e-06
1.99163e-06
1.96674e-06
1.96692e-06
1.966e-06
1.9642e-06
1.96352e-06
1.96357e-06
1.96413e-06
1.96825e-06
1.96729e-06
1.96598e-06
1.9633e-06
1.95903e-06
1.95903e-06
1.95903e-06
1.95902e-06
1.96841e-06
1.96564e-06
1.96422e-06
1.95903e-06
1.95903e-06
1.95903e-06
1.95903e-06
1.95903e-06
1.95902e-06
1.96986e-06
1.96856e-06
1.96673e-06
1.96354e-06
1.95903e-06
1.95903e-06
1.95903e-06
1.95903e-06
1.95903e-06
1.95903e-06
1.9691e-06
1.96696e-06
1.96692e-06
1.96357e-06
1.95903e-06
1.95903e-06
1.95903e-06
1.95903e-06
1.95903e-06
1.95903e-06
1.96843e-06
1.964e-06
1.96414e-06
1.95903e-06
1.95903e-06
1.95903e-06
1.95903e-06
1.95903e-06
1.95903e-06
1.96959e-06
1.96764e-06
1.96825e-06
1.96841e-06
1.95903e-06
1.95903e-06
1.95903e-06
1.95903e-06
1.97118e-06
1.96807e-06
1.96817e-06
1.96745e-06
1.96564e-06
1.9699e-06
1.96913e-06
1.96847e-06
1.96957e-06
1.96804e-06
1.96933e-06
1.96859e-06
1.96696e-06
1.96403e-06
1.96764e-06
1.96817e-06
1.94328e-06
1.94347e-06
1.94254e-06
1.94075e-06
1.94006e-06
1.9401e-06
1.94068e-06
1.9448e-06
1.94383e-06
1.94253e-06
1.93984e-06
1.93558e-06
1.93557e-06
1.93557e-06
1.93557e-06
1.94497e-06
1.94219e-06
1.94076e-06
1.93558e-06
1.93558e-06
1.93557e-06
1.93557e-06
1.93557e-06
1.93557e-06
1.9464e-06
1.94511e-06
1.94328e-06
1.94008e-06
1.93558e-06
1.93557e-06
1.93557e-06
1.93557e-06
1.93557e-06
1.93557e-06
1.94564e-06
1.9435e-06
1.94347e-06
1.94011e-06
1.93557e-06
1.93557e-06
1.93557e-06
1.93557e-06
1.93557e-06
1.93557e-06
1.94497e-06
1.94054e-06
1.94069e-06
1.93557e-06
1.93557e-06
1.93557e-06
1.93557e-06
1.93557e-06
1.93557e-06
1.94613e-06
1.94419e-06
1.9448e-06
1.94496e-06
1.93557e-06
1.93557e-06
1.93557e-06
1.93557e-06
1.94772e-06
1.94461e-06
1.94471e-06
1.944e-06
1.94219e-06
1.94645e-06
1.94568e-06
1.94502e-06
1.94612e-06
1.94458e-06
1.94588e-06
1.94514e-06
1.94351e-06
1.94057e-06
1.94419e-06
1.94472e-06
1.91983e-06
1.92001e-06
1.91912e-06
1.9173e-06
1.91661e-06
1.91665e-06
1.91723e-06
1.92133e-06
1.92037e-06
1.91911e-06
1.91639e-06
1.91212e-06
1.91212e-06
1.91212e-06
1.91212e-06
1.92151e-06
1.91873e-06
1.91731e-06
1.91212e-06
1.91212e-06
1.91212e-06
1.91212e-06
1.91212e-06
1.91212e-06
1.92295e-06
1.92166e-06
1.91982e-06
1.91663e-06
1.91212e-06
1.91212e-06
1.91212e-06
1.91212e-06
1.91212e-06
1.91212e-06
1.92219e-06
1.92005e-06
1.92001e-06
1.91666e-06
1.91212e-06
1.91212e-06
1.91212e-06
1.91212e-06
1.91212e-06
1.91212e-06
1.92152e-06
1.91709e-06
1.91724e-06
1.91212e-06
1.91212e-06
1.91212e-06
1.91212e-06
1.91212e-06
1.91212e-06
1.92268e-06
1.92073e-06
1.92135e-06
1.92151e-06
1.91212e-06
1.91212e-06
1.91212e-06
1.91212e-06
1.92427e-06
1.92116e-06
1.92126e-06
1.92055e-06
1.91874e-06
1.923e-06
1.92223e-06
1.92157e-06
1.92267e-06
1.92113e-06
1.92243e-06
1.92169e-06
1.92006e-06
1.91712e-06
1.92075e-06
1.92127e-06
1.89637e-06
1.89656e-06
1.89565e-06
1.89384e-06
1.89315e-06
1.89319e-06
1.89378e-06
1.89789e-06
1.89692e-06
1.89565e-06
1.89292e-06
1.88866e-06
1.88867e-06
1.88866e-06
1.88866e-06
1.89805e-06
1.89528e-06
1.89385e-06
1.88867e-06
1.88866e-06
1.88867e-06
1.88867e-06
1.88867e-06
1.88867e-06
1.8995e-06
1.89821e-06
1.89637e-06
1.89318e-06
1.88867e-06
1.88867e-06
1.88867e-06
1.88867e-06
1.88867e-06
1.88867e-06
1.89874e-06
1.8966e-06
1.89656e-06
1.8932e-06
1.88867e-06
1.88867e-06
1.88867e-06
1.88867e-06
1.88867e-06
1.88867e-06
1.89807e-06
1.89364e-06
1.89378e-06
1.88867e-06
1.88867e-06
1.88867e-06
1.88866e-06
1.88867e-06
1.88867e-06
1.89923e-06
1.89728e-06
1.89789e-06
1.89805e-06
1.88867e-06
1.88867e-06
1.88866e-06
1.88867e-06
1.90082e-06
1.89771e-06
1.89781e-06
1.89709e-06
1.89529e-06
1.89954e-06
1.89877e-06
1.89811e-06
1.89921e-06
1.89767e-06
1.89897e-06
1.89824e-06
1.89661e-06
1.89364e-06
1.8973e-06
1.89782e-06
1.87292e-06
1.87311e-06
1.87209e-06
1.8704e-06
1.8697e-06
1.86974e-06
1.87033e-06
1.87443e-06
1.87346e-06
1.87218e-06
1.86946e-06
1.86521e-06
1.86521e-06
1.86521e-06
1.86521e-06
1.87459e-06
1.87182e-06
1.87039e-06
1.86521e-06
1.86521e-06
1.86521e-06
1.86521e-06
1.86521e-06
1.86521e-06
1.87604e-06
1.87475e-06
1.87292e-06
1.86972e-06
1.86521e-06
1.86521e-06
1.86521e-06
1.86521e-06
1.86521e-06
1.86521e-06
1.87529e-06
1.87314e-06
1.87311e-06
1.86975e-06
1.86521e-06
1.86521e-06
1.86521e-06
1.86521e-06
1.86521e-06
1.86521e-06
1.87461e-06
1.87018e-06
1.87033e-06
1.86521e-06
1.86521e-06
1.86521e-06
1.86521e-06
1.86521e-06
1.86521e-06
1.87577e-06
1.87383e-06
1.87444e-06
1.8746e-06
1.86521e-06
1.86521e-06
1.86521e-06
1.86521e-06
1.87737e-06
1.87426e-06
1.87435e-06
1.87364e-06
1.87183e-06
1.87609e-06
1.87532e-06
1.87466e-06
1.87576e-06
1.87423e-06
1.87552e-06
1.87478e-06
1.87315e-06
1.87021e-06
1.87383e-06
1.87435e-06
1.84947e-06
1.84965e-06
1.84875e-06
1.84694e-06
1.84625e-06
1.84629e-06
1.84688e-06
1.85098e-06
1.85001e-06
1.84873e-06
1.84601e-06
1.84176e-06
1.84175e-06
1.84176e-06
1.84176e-06
1.85114e-06
1.84837e-06
1.84694e-06
1.84176e-06
1.84176e-06
1.84176e-06
1.84176e-06
1.84176e-06
1.84176e-06
1.85259e-06
1.8513e-06
1.84946e-06
1.84627e-06
1.84176e-06
1.84176e-06
1.84176e-06
1.84176e-06
1.84176e-06
1.84176e-06
1.85183e-06
1.84969e-06
1.84965e-06
1.8463e-06
1.84176e-06
1.84176e-06
1.84176e-06
1.84176e-06
1.84176e-06
1.84176e-06
1.85116e-06
1.84673e-06
1.84688e-06
1.84176e-06
1.84176e-06
1.84176e-06
1.84176e-06
1.84176e-06
1.84176e-06
1.85232e-06
1.85037e-06
1.85098e-06
1.85114e-06
1.84176e-06
1.84176e-06
1.84176e-06
1.84176e-06
1.85391e-06
1.8508e-06
1.8509e-06
1.85018e-06
1.84838e-06
1.85264e-06
1.85187e-06
1.8512e-06
1.8523e-06
1.85077e-06
1.85207e-06
1.85133e-06
1.8497e-06
1.84677e-06
1.85039e-06
1.8509e-06
1.82601e-06
1.8262e-06
1.8253e-06
1.82348e-06
1.82279e-06
1.82283e-06
1.82343e-06
1.82752e-06
1.82656e-06
1.82528e-06
1.82256e-06
1.8183e-06
1.8183e-06
1.8183e-06
1.8183e-06
1.82769e-06
1.82492e-06
1.82348e-06
1.8183e-06
1.8183e-06
1.8183e-06
1.8183e-06
1.8183e-06
1.8183e-06
1.82914e-06
1.82784e-06
1.82601e-06
1.82281e-06
1.8183e-06
1.8183e-06
1.8183e-06
1.8183e-06
1.8183e-06
1.8183e-06
1.82838e-06
1.82623e-06
1.8262e-06
1.82284e-06
1.8183e-06
1.8183e-06
1.8183e-06
1.8183e-06
1.8183e-06
1.8183e-06
1.8277e-06
1.82327e-06
1.82342e-06
1.8183e-06
1.8183e-06
1.8183e-06
1.8183e-06
1.8183e-06
1.8183e-06
1.82886e-06
1.82692e-06
1.82753e-06
1.82769e-06
1.8183e-06
1.8183e-06
1.8183e-06
1.8183e-06
1.83046e-06
1.82735e-06
1.82744e-06
1.82673e-06
1.82492e-06
1.82918e-06
1.82841e-06
1.82775e-06
1.82884e-06
1.82732e-06
1.82861e-06
1.82788e-06
1.82626e-06
1.82332e-06
1.82693e-06
1.82745e-06
1.80256e-06
1.80274e-06
1.80184e-06
1.80002e-06
1.79933e-06
1.79938e-06
1.79997e-06
1.80406e-06
1.8031e-06
1.80183e-06
1.79911e-06
1.79485e-06
1.79485e-06
1.79485e-06
1.79485e-06
1.80424e-06
1.80146e-06
1.80003e-06
1.79485e-06
1.79485e-06
1.79485e-06
1.79485e-06
1.79485e-06
1.79485e-06
1.80568e-06
1.80439e-06
1.80255e-06
1.79935e-06
1.79485e-06
1.79485e-06
1.79485e-06
1.79485e-06
1.79485e-06
1.79485e-06
1.80492e-06
1.80278e-06
1.80274e-06
1.79939e-06
1.79485e-06
1.79485e-06
1.79485e-06
1.79485e-06
1.79485e-06
1.79485e-06
1.80425e-06
1.79982e-06
1.79997e-06
1.79485e-06
1.79485e-06
1.79485e-06
1.79485e-06
1.79485e-06
1.79485e-06
1.80541e-06
1.80346e-06
1.80407e-06
1.80423e-06
1.79485e-06
1.79485e-06
1.79485e-06
1.79485e-06
1.807e-06
1.80389e-06
1.80399e-06
1.80327e-06
1.80147e-06
1.80573e-06
1.80495e-06
1.80429e-06
1.80539e-06
1.80386e-06
1.80516e-06
1.80442e-06
1.80279e-06
1.79986e-06
1.80347e-06
1.80399e-06
1.7791e-06
1.77928e-06
1.77838e-06
1.77656e-06
1.77588e-06
1.77591e-06
1.77652e-06
1.78061e-06
1.77964e-06
1.77837e-06
1.77565e-06
1.7714e-06
1.7714e-06
1.7714e-06
1.7714e-06
1.78078e-06
1.77801e-06
1.77658e-06
1.7714e-06
1.7714e-06
1.7714e-06
1.7714e-06
1.7714e-06
1.7714e-06
1.78223e-06
1.78094e-06
1.7791e-06
1.7759e-06
1.7714e-06
1.7714e-06
1.7714e-06
1.7714e-06
1.7714e-06
1.7714e-06
1.78147e-06
1.77933e-06
1.77929e-06
1.77593e-06
1.7714e-06
1.7714e-06
1.7714e-06
1.7714e-06
1.7714e-06
1.7714e-06
1.7808e-06
1.77637e-06
1.77651e-06
1.7714e-06
1.7714e-06
1.7714e-06
1.7714e-06
1.7714e-06
1.7714e-06
1.78196e-06
1.78001e-06
1.78062e-06
1.78078e-06
1.7714e-06
1.7714e-06
1.7714e-06
1.7714e-06
1.78355e-06
1.78044e-06
1.78054e-06
1.77982e-06
1.77801e-06
1.78227e-06
1.7815e-06
1.78083e-06
1.78194e-06
1.78041e-06
1.7817e-06
1.78096e-06
1.77934e-06
1.7764e-06
1.78002e-06
1.78054e-06
1.75565e-06
1.75583e-06
1.7549e-06
1.75311e-06
1.75242e-06
1.75246e-06
1.75306e-06
1.75715e-06
1.75618e-06
1.75491e-06
1.7522e-06
1.74794e-06
1.74794e-06
1.74794e-06
1.74794e-06
1.75733e-06
1.75455e-06
1.75312e-06
1.74794e-06
1.74794e-06
1.74794e-06
1.74794e-06
1.74794e-06
1.74794e-06
1.75877e-06
1.75748e-06
1.75564e-06
1.75245e-06
1.74794e-06
1.74794e-06
1.74794e-06
1.74794e-06
1.74794e-06
1.74794e-06
1.75801e-06
1.75587e-06
1.75583e-06
1.75248e-06
1.74794e-06
1.74794e-06
1.74794e-06
1.74794e-06
1.74794e-06
1.74794e-06
1.75734e-06
1.75291e-06
1.75306e-06
1.74794e-06
1.74794e-06
1.74794e-06
1.74794e-06
1.74794e-06
1.74794e-06
1.7585e-06
1.75656e-06
1.75717e-06
1.75733e-06
1.74794e-06
1.74794e-06
1.74794e-06
1.74794e-06
1.7601e-06
1.75698e-06
1.75708e-06
1.75637e-06
1.75456e-06
1.75882e-06
1.75804e-06
1.75738e-06
1.75848e-06
1.75696e-06
1.75825e-06
1.75751e-06
1.75588e-06
1.75294e-06
1.75656e-06
1.75708e-06
1.73219e-06
1.73238e-06
1.73148e-06
1.72966e-06
1.72897e-06
1.72901e-06
1.72961e-06
1.7337e-06
1.73273e-06
1.73146e-06
1.72874e-06
1.72449e-06
1.72449e-06
1.72449e-06
1.72449e-06
1.73387e-06
1.7311e-06
1.72967e-06
1.72449e-06
1.72449e-06
1.72449e-06
1.72449e-06
1.72449e-06
1.72449e-06
1.73532e-06
1.73403e-06
1.73219e-06
1.72899e-06
1.72449e-06
1.72449e-06
1.72449e-06
1.72449e-06
1.72449e-06
1.72449e-06
1.73456e-06
1.73242e-06
1.73238e-06
1.72902e-06
1.72449e-06
1.72449e-06
1.72449e-06
1.72449e-06
1.72449e-06
1.72449e-06
1.73389e-06
1.72946e-06
1.72961e-06
1.72449e-06
1.72449e-06
1.72449e-06
1.72449e-06
1.72449e-06
1.72449e-06
1.73505e-06
1.7331e-06
1.73371e-06
1.73387e-06
1.72449e-06
1.72449e-06
1.72449e-06
1.72449e-06
1.73664e-06
1.73353e-06
1.73363e-06
1.73291e-06
1.73111e-06
1.73536e-06
1.73459e-06
1.73392e-06
1.73503e-06
1.7335e-06
1.73479e-06
1.73405e-06
1.73243e-06
1.72949e-06
1.73311e-06
1.73363e-06
1.70874e-06
1.70893e-06
1.70802e-06
1.7062e-06
1.70552e-06
1.70556e-06
1.70615e-06
1.71025e-06
1.70927e-06
1.70801e-06
1.70529e-06
1.70103e-06
1.70103e-06
1.70103e-06
1.70103e-06
1.71042e-06
1.70765e-06
1.70621e-06
1.70103e-06
1.70103e-06
1.70103e-06
1.70103e-06
1.70103e-06
1.70103e-06
1.71187e-06
1.71057e-06
1.70874e-06
1.70554e-06
1.70103e-06
1.70103e-06
1.70103e-06
1.70103e-06
1.70103e-06
1.70103e-06
1.71111e-06
1.70896e-06
1.70893e-06
1.70557e-06
1.70103e-06
1.70103e-06
1.70103e-06
1.70103e-06
1.70103e-06
1.70103e-06
1.71044e-06
1.706e-06
1.70615e-06
1.70103e-06
1.70103e-06
1.70103e-06
1.70103e-06
1.70103e-06
1.70103e-06
1.7116e-06
1.70965e-06
1.71026e-06
1.71042e-06
1.70103e-06
1.70103e-06
1.70103e-06
1.70103e-06
1.71319e-06
1.71008e-06
1.71017e-06
1.70946e-06
1.70765e-06
1.71191e-06
1.71114e-06
1.71047e-06
1.71157e-06
1.71005e-06
1.71134e-06
1.7106e-06
1.70897e-06
1.70604e-06
1.70965e-06
1.71018e-06
1.68529e-06
1.68547e-06
1.68457e-06
1.68276e-06
1.68206e-06
1.6821e-06
1.6827e-06
1.68676e-06
1.68579e-06
1.68456e-06
1.68183e-06
1.67758e-06
1.67758e-06
1.67758e-06
1.67758e-06
1.68697e-06
1.68419e-06
1.68276e-06
1.67758e-06
1.67758e-06
1.67758e-06
1.67758e-06
1.67758e-06
1.67758e-06
1.68841e-06
1.68712e-06
1.68528e-06
1.68209e-06
1.67758e-06
1.67758e-06
1.67758e-06
1.67758e-06
1.67758e-06
1.67758e-06
1.68765e-06
1.68551e-06
1.68547e-06
1.68212e-06
1.67758e-06
1.67758e-06
1.67758e-06
1.67758e-06
1.67758e-06
1.67758e-06
1.68698e-06
1.68255e-06
1.6827e-06
1.67758e-06
1.67758e-06
1.67758e-06
1.67758e-06
1.67758e-06
1.67758e-06
1.68814e-06
1.68619e-06
1.6868e-06
1.68696e-06
1.67758e-06
1.67758e-06
1.67758e-06
1.67758e-06
1.68973e-06
1.68662e-06
1.68672e-06
1.686e-06
1.6842e-06
1.68845e-06
1.68768e-06
1.68702e-06
1.68812e-06
1.68659e-06
1.68789e-06
1.68714e-06
1.68552e-06
1.68258e-06
1.6862e-06
1.68672e-06
1.66183e-06
1.66202e-06
1.66111e-06
1.6593e-06
1.65863e-06
1.65865e-06
1.65925e-06
1.66334e-06
1.66236e-06
1.66108e-06
1.65838e-06
1.65413e-06
1.65413e-06
1.65413e-06
1.65413e-06
1.66351e-06
1.66074e-06
1.65931e-06
1.65413e-06
1.65413e-06
1.65413e-06
1.65413e-06
1.65413e-06
1.65413e-06
1.66496e-06
1.66367e-06
1.66183e-06
1.65863e-06
1.65413e-06
1.65413e-06
1.65413e-06
1.65413e-06
1.65413e-06
1.65413e-06
1.6642e-06
1.66206e-06
1.66202e-06
1.65866e-06
1.65413e-06
1.65413e-06
1.65413e-06
1.65413e-06
1.65413e-06
1.65413e-06
1.66353e-06
1.6591e-06
1.65924e-06
1.65413e-06
1.65413e-06
1.65413e-06
1.65413e-06
1.65413e-06
1.65413e-06
1.66469e-06
1.66274e-06
1.66335e-06
1.66351e-06
1.65413e-06
1.65413e-06
1.65413e-06
1.65413e-06
1.66628e-06
1.66317e-06
1.66327e-06
1.66255e-06
1.66074e-06
1.665e-06
1.66423e-06
1.66356e-06
1.66467e-06
1.66314e-06
1.66443e-06
1.66369e-06
1.66207e-06
1.65913e-06
1.66275e-06
1.66327e-06
1.63838e-06
1.63857e-06
1.63766e-06
1.63584e-06
1.63518e-06
1.63519e-06
1.63579e-06
1.63989e-06
1.6389e-06
1.63765e-06
1.63492e-06
1.63067e-06
1.63067e-06
1.63067e-06
1.63067e-06
1.64006e-06
1.63728e-06
1.63585e-06
1.63067e-06
1.63067e-06
1.63067e-06
1.63067e-06
1.63067e-06
1.63067e-06
1.6415e-06
1.64021e-06
1.63837e-06
1.63518e-06
1.63067e-06
1.63067e-06
1.63067e-06
1.63067e-06
1.63067e-06
1.63067e-06
1.64075e-06
1.6386e-06
1.63856e-06
1.63521e-06
1.63067e-06
1.63067e-06
1.63067e-06
1.63067e-06
1.63067e-06
1.63067e-06
1.64008e-06
1.63564e-06
1.63579e-06
1.63067e-06
1.63067e-06
1.63067e-06
1.63067e-06
1.63067e-06
1.63067e-06
1.64124e-06
1.63929e-06
1.6399e-06
1.64006e-06
1.63067e-06
1.63067e-06
1.63067e-06
1.63067e-06
1.64283e-06
1.63972e-06
1.63981e-06
1.63909e-06
1.63729e-06
1.64155e-06
1.64077e-06
1.64011e-06
1.64121e-06
1.63969e-06
1.64098e-06
1.64024e-06
1.63861e-06
1.63567e-06
1.63929e-06
1.63981e-06
1.61493e-06
1.61511e-06
1.61418e-06
1.61239e-06
1.61173e-06
1.61174e-06
1.61234e-06
1.61644e-06
1.61545e-06
1.61419e-06
1.61147e-06
1.60721e-06
1.60722e-06
1.60722e-06
1.60722e-06
1.61661e-06
1.61383e-06
1.6124e-06
1.60722e-06
1.60722e-06
1.60722e-06
1.60722e-06
1.60722e-06
1.60722e-06
1.61805e-06
1.61676e-06
1.61491e-06
1.61171e-06
1.60722e-06
1.60722e-06
1.60722e-06
1.60722e-06
1.60722e-06
1.60722e-06
1.61729e-06
1.61515e-06
1.6151e-06
1.61174e-06
1.60722e-06
1.60722e-06
1.60722e-06
1.60722e-06
1.60722e-06
1.60722e-06
1.61662e-06
1.61219e-06
1.61233e-06
1.60722e-06
1.60722e-06
1.60722e-06
1.60722e-06
1.60722e-06
1.60722e-06
1.61778e-06
1.61583e-06
1.61644e-06
1.6166e-06
1.60722e-06
1.60722e-06
1.60722e-06
1.60722e-06
1.61937e-06
1.61626e-06
1.61636e-06
1.61564e-06
1.61383e-06
1.61809e-06
1.61732e-06
1.61665e-06
1.61776e-06
1.61623e-06
1.61753e-06
1.61678e-06
1.61516e-06
1.61222e-06
1.61584e-06
1.61636e-06
1.59147e-06
1.59165e-06
1.59072e-06
1.58893e-06
1.58827e-06
1.58828e-06
1.58888e-06
1.593e-06
1.59201e-06
1.59073e-06
1.58801e-06
1.58375e-06
1.58376e-06
1.58376e-06
1.58376e-06
1.59315e-06
1.59038e-06
1.58894e-06
1.58376e-06
1.58376e-06
1.58376e-06
1.58376e-06
1.58376e-06
1.58376e-06
1.5946e-06
1.59331e-06
1.59146e-06
1.58826e-06
1.58376e-06
1.58376e-06
1.58376e-06
1.58376e-06
1.58376e-06
1.58376e-06
1.59384e-06
1.59169e-06
1.59165e-06
1.5883e-06
1.58376e-06
1.58376e-06
1.58376e-06
1.58376e-06
1.58376e-06
1.58376e-06
1.59317e-06
1.58873e-06
1.58888e-06
1.58376e-06
1.58376e-06
1.58376e-06
1.58376e-06
1.58376e-06
1.58376e-06
1.59433e-06
1.59238e-06
1.59299e-06
1.59315e-06
1.58376e-06
1.58376e-06
1.58376e-06
1.58376e-06
1.59592e-06
1.59281e-06
1.59291e-06
1.59218e-06
1.59038e-06
1.59464e-06
1.59387e-06
1.5932e-06
1.59431e-06
1.59278e-06
1.59407e-06
1.59333e-06
1.5917e-06
1.58877e-06
1.59238e-06
1.59291e-06
1.56801e-06
1.5682e-06
1.56726e-06
1.56547e-06
1.56481e-06
1.56482e-06
1.56542e-06
1.56954e-06
1.56855e-06
1.56728e-06
1.56456e-06
1.5603e-06
1.56031e-06
1.56031e-06
1.56031e-06
1.5697e-06
1.56692e-06
1.56549e-06
1.56031e-06
1.56031e-06
1.56031e-06
1.56031e-06
1.56031e-06
1.56031e-06
1.57115e-06
1.56986e-06
1.56801e-06
1.56481e-06
1.56031e-06
1.56031e-06
1.56031e-06
1.56031e-06
1.56031e-06
1.56031e-06
1.57039e-06
1.56824e-06
1.5682e-06
1.56484e-06
1.56031e-06
1.56031e-06
1.56031e-06
1.56031e-06
1.56031e-06
1.56031e-06
1.56971e-06
1.56528e-06
1.56543e-06
1.56031e-06
1.56031e-06
1.56031e-06
1.56031e-06
1.56031e-06
1.56031e-06
1.57087e-06
1.56893e-06
1.56953e-06
1.56969e-06
1.56031e-06
1.56031e-06
1.56031e-06
1.56031e-06
1.57247e-06
1.56935e-06
1.56945e-06
1.56873e-06
1.56693e-06
1.57118e-06
1.57041e-06
1.56975e-06
1.57085e-06
1.56933e-06
1.57062e-06
1.56987e-06
1.56825e-06
1.56531e-06
1.56893e-06
1.56945e-06
1.54456e-06
1.54474e-06
1.54374e-06
1.54202e-06
1.54136e-06
1.54137e-06
1.54197e-06
1.54608e-06
1.5451e-06
1.54382e-06
1.54111e-06
1.53686e-06
1.53686e-06
1.53685e-06
1.53685e-06
1.54624e-06
1.54346e-06
1.54203e-06
1.53686e-06
1.53686e-06
1.53685e-06
1.53685e-06
1.53685e-06
1.53686e-06
1.54769e-06
1.54641e-06
1.54456e-06
1.54136e-06
1.53686e-06
1.53685e-06
1.53685e-06
1.53685e-06
1.53685e-06
1.53685e-06
1.54694e-06
1.54479e-06
1.54475e-06
1.54139e-06
1.53685e-06
1.53685e-06
1.53685e-06
1.53685e-06
1.53685e-06
1.53685e-06
1.54626e-06
1.54183e-06
1.54197e-06
1.53685e-06
1.53685e-06
1.53685e-06
1.53685e-06
1.53685e-06
1.53685e-06
1.54742e-06
1.54547e-06
1.54608e-06
1.54624e-06
1.53685e-06
1.53685e-06
1.53685e-06
1.53685e-06
1.54901e-06
1.5459e-06
1.546e-06
1.54528e-06
1.54347e-06
1.54773e-06
1.54696e-06
1.54629e-06
1.5474e-06
1.54587e-06
1.54716e-06
1.54642e-06
1.54479e-06
1.54186e-06
1.54547e-06
1.546e-06
1.5211e-06
1.52129e-06
1.52036e-06
1.51856e-06
1.5179e-06
1.51792e-06
1.51852e-06
1.52263e-06
1.52164e-06
1.52037e-06
1.51765e-06
1.5134e-06
1.5134e-06
1.5134e-06
1.5134e-06
1.52279e-06
1.52001e-06
1.51858e-06
1.5134e-06
1.5134e-06
1.5134e-06
1.5134e-06
1.5134e-06
1.5134e-06
1.52424e-06
1.52295e-06
1.5211e-06
1.5179e-06
1.5134e-06
1.5134e-06
1.5134e-06
1.5134e-06
1.5134e-06
1.5134e-06
1.52348e-06
1.52133e-06
1.52129e-06
1.51794e-06
1.5134e-06
1.5134e-06
1.5134e-06
1.5134e-06
1.5134e-06
1.5134e-06
1.5228e-06
1.51837e-06
1.51852e-06
1.5134e-06
1.5134e-06
1.5134e-06
1.5134e-06
1.5134e-06
1.5134e-06
1.52396e-06
1.52202e-06
1.52262e-06
1.52279e-06
1.5134e-06
1.5134e-06
1.5134e-06
1.5134e-06
1.52556e-06
1.52244e-06
1.52254e-06
1.52182e-06
1.52002e-06