/*--------------------------------*- C++ -*----------------------------------*\
| =========                 |                                                 |
| \\      /  F ield         | OpenFOAM: The Open Source CFD Toolbox           |
|  \\    /   O peration     | Version:  v2012                                 |
|   \\  /    A nd           | Website:  www.openfoam.com                      |
|    \\/     M anipulation  |                                                 |
\*---------------------------------------------------------------------------*/
FoamFile
{
    version     2.0;
    format      ascii;
    class       volScalarField;
    location    "0.205";
    object      p;
}
// * * * * * * * * * * * * * * * * * * * * * * * * * * * * * * * * * * * * * //

dimensions      [0 2 -2 0 0 0 0];


internalField   nonuniform List<scalar> 
247104
(
1.89848e-06
1.89868e-06
1.89876e-06
1.89865e-06
1.89848e-06
1.89868e-06
1.89876e-06
1.89861e-06
1.89868e-06
1.89874e-06
1.89879e-06
1.8986e-06
1.89847e-06
1.89862e-06
1.8988e-06
1.89871e-06
1.89876e-06
1.89879e-06
1.89848e-06
1.8981e-06
1.89794e-06
1.89814e-06
1.89853e-06
1.8988e-06
1.89876e-06
1.89865e-06
1.8986e-06
1.8981e-06
1.89761e-06
1.89743e-06
1.89766e-06
1.89817e-06
1.89864e-06
1.89863e-06
1.89847e-06
1.89848e-06
1.89847e-06
1.89794e-06
1.89743e-06
1.89724e-06
1.89748e-06
1.89802e-06
1.89851e-06
1.89844e-06
1.89868e-06
1.89862e-06
1.89814e-06
1.89766e-06
1.89748e-06
1.8977e-06
1.89821e-06
1.89866e-06
1.89866e-06
1.89876e-06
1.8988e-06
1.89853e-06
1.89817e-06
1.89802e-06
1.89821e-06
1.89858e-06
1.89881e-06
1.89875e-06
1.89861e-06
1.89871e-06
1.8988e-06
1.89864e-06
1.89851e-06
1.89866e-06
1.89881e-06
1.89868e-06
1.89876e-06
1.89862e-06
1.89844e-06
1.89866e-06
1.89875e-06
1.86467e-06
1.86259e-06
1.86245e-06
1.8613e-06
1.86118e-06
1.8611e-06
1.86111e-06
1.86252e-06
1.86289e-06
1.86245e-06
1.86039e-06
1.85745e-06
1.85736e-06
1.85736e-06
1.85745e-06
1.8608e-06
1.861e-06
1.8613e-06
1.85745e-06
1.85738e-06
1.85742e-06
1.85742e-06
1.85738e-06
1.85745e-06
1.86123e-06
1.86215e-06
1.86467e-06
1.86118e-06
1.85735e-06
1.85742e-06
1.85753e-06
1.85753e-06
1.85742e-06
1.85736e-06
1.86111e-06
1.86276e-06
1.86261e-06
1.8611e-06
1.85736e-06
1.85742e-06
1.85753e-06
1.85753e-06
1.85742e-06
1.85736e-06
1.86126e-06
1.86103e-06
1.86111e-06
1.85745e-06
1.85738e-06
1.85742e-06
1.85742e-06
1.85738e-06
1.85745e-06
1.86109e-06
1.86196e-06
1.86252e-06
1.8608e-06
1.85745e-06
1.85736e-06
1.85736e-06
1.85745e-06
1.86092e-06
1.86121e-06
1.8626e-06
1.86289e-06
1.861e-06
1.86123e-06
1.86111e-06
1.86126e-06
1.86109e-06
1.86121e-06
1.86343e-06
1.86215e-06
1.86276e-06
1.86103e-06
1.86196e-06
1.8626e-06
1.84458e-06
1.84437e-06
1.84422e-06
1.84204e-06
1.84197e-06
1.84197e-06
1.84202e-06
1.84429e-06
1.84447e-06
1.84423e-06
1.84133e-06
1.83832e-06
1.83815e-06
1.83815e-06
1.83832e-06
1.84205e-06
1.8425e-06
1.84204e-06
1.83831e-06
1.83791e-06
1.83791e-06
1.83791e-06
1.83791e-06
1.83832e-06
1.84286e-06
1.84484e-06
1.84458e-06
1.84197e-06
1.83815e-06
1.83791e-06
1.83792e-06
1.83792e-06
1.83791e-06
1.83816e-06
1.84288e-06
1.8445e-06
1.84437e-06
1.84197e-06
1.83815e-06
1.83791e-06
1.83792e-06
1.83793e-06
1.83791e-06
1.83816e-06
1.84281e-06
1.84251e-06
1.84202e-06
1.83831e-06
1.83791e-06
1.83791e-06
1.83791e-06
1.83791e-06
1.83832e-06
1.84292e-06
1.84487e-06
1.84429e-06
1.84205e-06
1.83832e-06
1.83816e-06
1.83815e-06
1.83832e-06
1.84255e-06
1.84272e-06
1.84478e-06
1.84447e-06
1.8425e-06
1.84286e-06
1.84288e-06
1.84281e-06
1.84292e-06
1.84272e-06
1.84479e-06
1.84483e-06
1.8445e-06
1.84251e-06
1.84487e-06
1.84478e-06
1.8251e-06
1.82493e-06
1.82482e-06
1.82254e-06
1.82249e-06
1.82238e-06
1.82258e-06
1.82486e-06
1.82507e-06
1.82482e-06
1.82168e-06
1.81876e-06
1.8187e-06
1.81869e-06
1.81875e-06
1.82247e-06
1.82316e-06
1.82254e-06
1.81876e-06
1.81859e-06
1.81858e-06
1.81858e-06
1.81859e-06
1.81876e-06
1.82344e-06
1.82538e-06
1.82511e-06
1.82249e-06
1.8187e-06
1.81858e-06
1.81858e-06
1.81858e-06
1.81858e-06
1.8187e-06
1.82354e-06
1.82502e-06
1.82493e-06
1.82239e-06
1.8187e-06
1.81858e-06
1.81858e-06
1.81858e-06
1.81858e-06
1.8187e-06
1.8235e-06
1.82316e-06
1.82258e-06
1.81875e-06
1.81859e-06
1.81858e-06
1.81858e-06
1.81859e-06
1.81876e-06
1.82352e-06
1.82538e-06
1.82487e-06
1.82247e-06
1.81876e-06
1.8187e-06
1.8187e-06
1.81876e-06
1.82331e-06
1.82335e-06
1.82537e-06
1.82507e-06
1.82316e-06
1.82344e-06
1.82354e-06
1.8235e-06
1.82352e-06
1.82335e-06
1.82535e-06
1.82538e-06
1.82502e-06
1.82317e-06
1.82538e-06
1.82537e-06
1.80563e-06
1.80546e-06
1.80528e-06
1.80299e-06
1.80293e-06
1.80278e-06
1.80303e-06
1.80534e-06
1.80553e-06
1.80528e-06
1.80208e-06
1.79918e-06
1.79916e-06
1.79916e-06
1.79918e-06
1.80286e-06
1.80366e-06
1.80299e-06
1.79918e-06
1.79913e-06
1.79913e-06
1.79913e-06
1.79913e-06
1.79918e-06
1.80395e-06
1.80589e-06
1.80563e-06
1.80293e-06
1.79916e-06
1.79913e-06
1.79913e-06
1.79913e-06
1.79913e-06
1.79916e-06
1.80411e-06
1.80558e-06
1.80546e-06
1.80278e-06
1.79916e-06
1.79913e-06
1.79913e-06
1.79913e-06
1.79913e-06
1.79916e-06
1.80409e-06
1.80374e-06
1.80303e-06
1.79918e-06
1.79913e-06
1.79913e-06
1.79913e-06
1.79913e-06
1.79918e-06
1.80406e-06
1.80593e-06
1.80534e-06
1.80286e-06
1.79918e-06
1.79916e-06
1.79916e-06
1.79918e-06
1.80391e-06
1.80388e-06
1.80586e-06
1.80554e-06
1.80366e-06
1.80396e-06
1.80412e-06
1.80409e-06
1.80406e-06
1.80388e-06
1.80581e-06
1.8059e-06
1.80558e-06
1.80374e-06
1.80594e-06
1.80587e-06
1.78611e-06
1.78594e-06
1.78575e-06
1.78345e-06
1.78339e-06
1.78323e-06
1.78349e-06
1.7858e-06
1.786e-06
1.78574e-06
1.78254e-06
1.77963e-06
1.77962e-06
1.77962e-06
1.77963e-06
1.78329e-06
1.78411e-06
1.78345e-06
1.77963e-06
1.77961e-06
1.77961e-06
1.77961e-06
1.77962e-06
1.77963e-06
1.78442e-06
1.78636e-06
1.78611e-06
1.78339e-06
1.77962e-06
1.77961e-06
1.77961e-06
1.77961e-06
1.77961e-06
1.77962e-06
1.78461e-06
1.78608e-06
1.78594e-06
1.78323e-06
1.77962e-06
1.77961e-06
1.77961e-06
1.77961e-06
1.77961e-06
1.77962e-06
1.7846e-06
1.78424e-06
1.78349e-06
1.77963e-06
1.77962e-06
1.77961e-06
1.77961e-06
1.77961e-06
1.77963e-06
1.78454e-06
1.78643e-06
1.78581e-06
1.78329e-06
1.77963e-06
1.77962e-06
1.77962e-06
1.77963e-06
1.78441e-06
1.78436e-06
1.78633e-06
1.78601e-06
1.78411e-06
1.78443e-06
1.78461e-06
1.7846e-06
1.78454e-06
1.78436e-06
1.78629e-06
1.78637e-06
1.78608e-06
1.78424e-06
1.78643e-06
1.78633e-06
1.76658e-06
1.76641e-06
1.76621e-06
1.76391e-06
1.76385e-06
1.76369e-06
1.76395e-06
1.76627e-06
1.76647e-06
1.76621e-06
1.763e-06
1.76009e-06
1.76009e-06
1.76009e-06
1.76009e-06
1.76374e-06
1.76457e-06
1.76391e-06
1.76009e-06
1.76009e-06
1.76009e-06
1.76008e-06
1.76008e-06
1.76009e-06
1.76489e-06
1.76683e-06
1.76658e-06
1.76385e-06
1.76009e-06
1.76009e-06
1.76009e-06
1.76009e-06
1.76008e-06
1.76009e-06
1.76508e-06
1.76655e-06
1.76641e-06
1.76369e-06
1.76009e-06
1.76009e-06
1.76009e-06
1.76009e-06
1.76008e-06
1.76009e-06
1.76507e-06
1.76471e-06
1.76395e-06
1.76009e-06
1.76009e-06
1.76009e-06
1.76009e-06
1.76008e-06
1.76009e-06
1.765e-06
1.7669e-06
1.76627e-06
1.76374e-06
1.76009e-06
1.76009e-06
1.76009e-06
1.76009e-06
1.76489e-06
1.76484e-06
1.7668e-06
1.76648e-06
1.76458e-06
1.76489e-06
1.76508e-06
1.76507e-06
1.765e-06
1.76483e-06
1.76676e-06
1.76683e-06
1.76655e-06
1.76471e-06
1.7669e-06
1.7668e-06
1.74704e-06
1.74688e-06
1.74668e-06
1.74438e-06
1.74432e-06
1.74415e-06
1.74441e-06
1.74673e-06
1.74694e-06
1.74668e-06
1.74347e-06
1.74055e-06
1.74055e-06
1.74055e-06
1.74055e-06
1.74421e-06
1.74503e-06
1.74438e-06
1.74055e-06
1.74055e-06
1.74055e-06
1.74055e-06
1.74055e-06
1.74055e-06
1.74535e-06
1.7473e-06
1.74705e-06
1.74432e-06
1.74055e-06
1.74055e-06
1.74055e-06
1.74055e-06
1.74055e-06
1.74055e-06
1.74555e-06
1.74702e-06
1.74688e-06
1.74415e-06
1.74055e-06
1.74055e-06
1.74055e-06
1.74055e-06
1.74055e-06
1.74055e-06
1.74554e-06
1.74518e-06
1.74441e-06
1.74055e-06
1.74055e-06
1.74055e-06
1.74055e-06
1.74055e-06
1.74055e-06
1.74547e-06
1.74737e-06
1.74673e-06
1.74421e-06
1.74055e-06
1.74055e-06
1.74055e-06
1.74055e-06
1.74536e-06
1.7453e-06
1.74727e-06
1.74695e-06
1.74504e-06
1.74536e-06
1.74555e-06
1.74554e-06
1.74547e-06
1.74529e-06
1.74722e-06
1.7473e-06
1.74702e-06
1.74518e-06
1.74737e-06
1.74727e-06
1.72751e-06
1.72734e-06
1.72715e-06
1.72485e-06
1.72478e-06
1.72462e-06
1.72488e-06
1.7272e-06
1.7274e-06
1.72715e-06
1.72393e-06
1.72102e-06
1.72102e-06
1.72102e-06
1.72102e-06
1.72467e-06
1.7255e-06
1.72484e-06
1.72102e-06
1.72102e-06
1.72102e-06
1.72102e-06
1.72102e-06
1.72102e-06
1.72582e-06
1.72776e-06
1.72751e-06
1.72478e-06
1.72102e-06
1.72102e-06
1.72102e-06
1.72102e-06
1.72102e-06
1.72102e-06
1.72601e-06
1.72749e-06
1.72734e-06
1.72462e-06
1.72102e-06
1.72102e-06
1.72102e-06
1.72102e-06
1.72102e-06
1.72102e-06
1.726e-06
1.72564e-06
1.72488e-06
1.72102e-06
1.72102e-06
1.72102e-06
1.72102e-06
1.72102e-06
1.72102e-06
1.72594e-06
1.72783e-06
1.7272e-06
1.72467e-06
1.72102e-06
1.72102e-06
1.72102e-06
1.72102e-06
1.72583e-06
1.72577e-06
1.72773e-06
1.72741e-06
1.72551e-06
1.72582e-06
1.72601e-06
1.726e-06
1.72594e-06
1.72576e-06
1.72769e-06
1.72776e-06
1.72749e-06
1.72564e-06
1.72783e-06
1.72773e-06
1.70797e-06
1.70781e-06
1.70761e-06
1.70531e-06
1.70525e-06
1.70509e-06
1.70534e-06
1.70767e-06
1.70787e-06
1.70761e-06
1.7044e-06
1.70149e-06
1.70149e-06
1.70149e-06
1.70149e-06
1.70514e-06
1.70597e-06
1.70531e-06
1.70149e-06
1.70148e-06
1.70149e-06
1.70148e-06
1.70148e-06
1.70148e-06
1.70629e-06
1.70823e-06
1.70798e-06
1.70525e-06
1.70149e-06
1.70148e-06
1.70149e-06
1.70148e-06
1.70148e-06
1.70148e-06
1.70648e-06
1.70795e-06
1.70781e-06
1.70508e-06
1.70149e-06
1.70148e-06
1.70149e-06
1.70148e-06
1.70148e-06
1.70148e-06
1.70647e-06
1.70611e-06
1.70534e-06
1.70149e-06
1.70148e-06
1.70148e-06
1.70148e-06
1.70148e-06
1.70148e-06
1.7064e-06
1.7083e-06
1.70767e-06
1.70514e-06
1.70148e-06
1.70149e-06
1.70148e-06
1.70148e-06
1.70629e-06
1.70624e-06
1.7082e-06
1.70788e-06
1.70597e-06
1.70629e-06
1.70648e-06
1.70647e-06
1.7064e-06
1.70623e-06
1.70816e-06
1.70823e-06
1.70795e-06
1.70611e-06
1.7083e-06
1.7082e-06
1.68844e-06
1.68828e-06
1.68808e-06
1.68578e-06
1.68572e-06
1.68555e-06
1.68581e-06
1.68814e-06
1.68834e-06
1.68808e-06
1.68487e-06
1.68195e-06
1.68195e-06
1.68195e-06
1.68195e-06
1.6856e-06
1.68643e-06
1.68578e-06
1.68195e-06
1.68195e-06
1.68195e-06
1.68195e-06
1.68195e-06
1.68195e-06
1.68675e-06
1.6887e-06
1.68845e-06
1.68572e-06
1.68195e-06
1.68195e-06
1.68195e-06
1.68195e-06
1.68195e-06
1.68195e-06
1.68695e-06
1.68842e-06
1.68828e-06
1.68555e-06
1.68195e-06
1.68195e-06
1.68195e-06
1.68195e-06
1.68195e-06
1.68195e-06
1.68694e-06
1.68658e-06
1.68581e-06
1.68195e-06
1.68195e-06
1.68195e-06
1.68195e-06
1.68195e-06
1.68195e-06
1.68687e-06
1.68877e-06
1.68813e-06
1.6856e-06
1.68195e-06
1.68195e-06
1.68195e-06
1.68195e-06
1.68676e-06
1.6867e-06
1.68867e-06
1.68835e-06
1.68644e-06
1.68675e-06
1.68695e-06
1.68694e-06
1.68687e-06
1.6867e-06
1.68862e-06
1.6887e-06
1.68842e-06
1.68658e-06
1.68877e-06
1.68867e-06
1.66891e-06
1.66875e-06
1.66855e-06
1.66625e-06
1.66618e-06
1.66602e-06
1.66628e-06
1.6686e-06
1.66881e-06
1.66855e-06
1.66533e-06
1.66242e-06
1.66242e-06
1.66242e-06
1.66242e-06
1.66607e-06
1.6669e-06
1.66624e-06
1.66242e-06
1.66242e-06
1.66242e-06
1.66242e-06
1.66242e-06
1.66242e-06
1.66722e-06
1.66916e-06
1.66892e-06
1.66618e-06
1.66242e-06
1.66242e-06
1.66242e-06
1.66242e-06
1.66242e-06
1.66242e-06
1.66741e-06
1.66889e-06
1.66875e-06
1.66602e-06
1.66242e-06
1.66242e-06
1.66242e-06
1.66242e-06
1.66242e-06
1.66242e-06
1.66741e-06
1.66704e-06
1.66628e-06
1.66242e-06
1.66242e-06
1.66242e-06
1.66242e-06
1.66242e-06
1.66242e-06
1.66734e-06
1.66924e-06
1.6686e-06
1.66607e-06
1.66242e-06
1.66242e-06
1.66242e-06
1.66242e-06
1.66723e-06
1.66717e-06
1.66913e-06
1.66881e-06
1.66691e-06
1.66722e-06
1.66741e-06
1.66741e-06
1.66734e-06
1.66716e-06
1.66909e-06
1.66917e-06
1.66889e-06
1.66704e-06
1.66923e-06
1.66913e-06
1.64938e-06
1.64921e-06
1.64901e-06
1.64671e-06
1.64665e-06
1.64649e-06
1.64675e-06
1.64907e-06
1.64927e-06
1.64901e-06
1.6458e-06
1.64289e-06
1.64289e-06
1.64289e-06
1.64289e-06
1.64654e-06
1.64737e-06
1.64671e-06
1.64289e-06
1.64289e-06
1.64289e-06
1.64289e-06
1.64289e-06
1.64289e-06
1.64769e-06
1.64963e-06
1.64938e-06
1.64665e-06
1.64289e-06
1.64289e-06
1.64289e-06
1.64289e-06
1.64289e-06
1.64289e-06
1.64788e-06
1.64935e-06
1.64921e-06
1.64649e-06
1.64289e-06
1.64289e-06
1.64289e-06
1.64289e-06
1.64289e-06
1.64289e-06
1.64787e-06
1.64751e-06
1.64675e-06
1.64289e-06
1.64289e-06
1.64289e-06
1.64289e-06
1.64289e-06
1.64289e-06
1.64781e-06
1.6497e-06
1.64907e-06
1.64654e-06
1.64289e-06
1.64289e-06
1.64289e-06
1.64289e-06
1.6477e-06
1.64764e-06
1.6496e-06
1.64928e-06
1.64737e-06
1.64769e-06
1.64788e-06
1.64787e-06
1.64781e-06
1.64763e-06
1.64956e-06
1.64963e-06
1.64936e-06
1.64751e-06
1.6497e-06
1.6496e-06
1.62984e-06
1.62968e-06
1.62948e-06
1.62718e-06
1.62712e-06
1.62696e-06
1.62721e-06
1.62954e-06
1.62974e-06
1.62948e-06
1.62627e-06
1.62336e-06
1.62336e-06
1.62336e-06
1.62336e-06
1.62701e-06
1.62784e-06
1.62718e-06
1.62336e-06
1.62336e-06
1.62336e-06
1.62335e-06
1.62335e-06
1.62335e-06
1.62816e-06
1.6301e-06
1.62985e-06
1.62712e-06
1.62336e-06
1.62336e-06
1.62335e-06
1.62335e-06
1.62335e-06
1.62335e-06
1.62835e-06
1.62982e-06
1.62968e-06
1.62695e-06
1.62335e-06
1.62335e-06
1.62335e-06
1.62335e-06
1.62335e-06
1.62335e-06
1.62834e-06
1.62798e-06
1.62721e-06
1.62335e-06
1.62335e-06
1.62335e-06
1.62335e-06
1.62335e-06
1.62335e-06
1.62827e-06
1.63017e-06
1.62954e-06
1.62701e-06
1.62335e-06
1.62335e-06
1.62335e-06
1.62335e-06
1.62816e-06
1.62811e-06
1.63007e-06
1.62975e-06
1.62784e-06
1.62816e-06
1.62835e-06
1.62834e-06
1.62827e-06
1.6281e-06
1.63003e-06
1.6301e-06
1.62982e-06
1.62798e-06
1.63017e-06
1.63007e-06
1.61031e-06
1.61015e-06
1.60995e-06
1.60765e-06
1.60759e-06
1.60742e-06
1.60768e-06
1.61e-06
1.61021e-06
1.60995e-06
1.60673e-06
1.60382e-06
1.60382e-06
1.60382e-06
1.60382e-06
1.60748e-06
1.6083e-06
1.60765e-06
1.60382e-06
1.60382e-06
1.60382e-06
1.60382e-06
1.60382e-06
1.60382e-06
1.60862e-06
1.61057e-06
1.61032e-06
1.60759e-06
1.60382e-06
1.60382e-06
1.60382e-06
1.60382e-06
1.60382e-06
1.60382e-06
1.60882e-06
1.61029e-06
1.61015e-06
1.60742e-06
1.60382e-06
1.60382e-06
1.60382e-06
1.60382e-06
1.60382e-06
1.60382e-06
1.60881e-06
1.60845e-06
1.60768e-06
1.60382e-06
1.60382e-06
1.60382e-06
1.60382e-06
1.60382e-06
1.60382e-06
1.60874e-06
1.61064e-06
1.61e-06
1.60747e-06
1.60382e-06
1.60382e-06
1.60382e-06
1.60382e-06
1.60863e-06
1.60857e-06
1.61054e-06
1.61022e-06
1.60831e-06
1.60862e-06
1.60882e-06
1.60881e-06
1.60874e-06
1.60856e-06
1.61049e-06
1.61057e-06
1.61029e-06
1.60845e-06
1.61064e-06
1.61054e-06
1.59078e-06
1.59061e-06
1.59041e-06
1.58811e-06
1.58805e-06
1.58789e-06
1.58815e-06
1.59047e-06
1.59067e-06
1.59042e-06
1.5872e-06
1.58429e-06
1.58429e-06
1.58429e-06
1.58429e-06
1.58794e-06
1.58877e-06
1.58811e-06
1.58429e-06
1.58429e-06
1.58429e-06
1.58429e-06
1.58429e-06
1.58429e-06
1.58909e-06
1.59103e-06
1.59078e-06
1.58805e-06
1.58429e-06
1.58429e-06
1.58429e-06
1.58429e-06
1.58429e-06
1.58429e-06
1.58928e-06
1.59076e-06
1.59061e-06
1.58789e-06
1.58429e-06
1.58429e-06
1.58429e-06
1.58429e-06
1.58429e-06
1.58429e-06
1.58928e-06
1.58891e-06
1.58815e-06
1.58429e-06
1.58429e-06
1.58429e-06
1.58429e-06
1.58429e-06
1.58429e-06
1.58921e-06
1.5911e-06
1.59047e-06
1.58794e-06
1.58429e-06
1.58429e-06
1.58429e-06
1.58429e-06
1.5891e-06
1.58904e-06
1.591e-06
1.59068e-06
1.58878e-06
1.58909e-06
1.58928e-06
1.58927e-06
1.58921e-06
1.58903e-06
1.59096e-06
1.59103e-06
1.59076e-06
1.58891e-06
1.5911e-06
1.591e-06
1.57125e-06
1.57108e-06
1.57088e-06
1.56858e-06
1.56852e-06
1.56836e-06
1.56862e-06
1.57094e-06
1.57114e-06
1.57088e-06
1.56766e-06
1.56476e-06
1.56476e-06
1.56476e-06
1.56476e-06
1.56841e-06
1.56924e-06
1.56858e-06
1.56476e-06
1.56476e-06
1.56476e-06
1.56476e-06
1.56476e-06
1.56476e-06
1.56956e-06
1.5715e-06
1.57125e-06
1.56852e-06
1.56476e-06
1.56476e-06
1.56476e-06
1.56476e-06
1.56476e-06
1.56476e-06
1.56975e-06
1.57122e-06
1.57108e-06
1.56835e-06
1.56476e-06
1.56476e-06
1.56476e-06
1.56476e-06
1.56476e-06
1.56476e-06
1.56974e-06
1.56938e-06
1.56861e-06
1.56476e-06
1.56476e-06
1.56476e-06
1.56476e-06
1.56476e-06
1.56476e-06
1.56967e-06
1.57157e-06
1.57094e-06
1.56841e-06
1.56476e-06
1.56476e-06
1.56476e-06
1.56476e-06
1.56956e-06
1.56951e-06
1.57147e-06
1.57115e-06
1.56924e-06
1.56956e-06
1.56975e-06
1.56974e-06
1.56967e-06
1.5695e-06
1.57143e-06
1.5715e-06
1.57122e-06
1.56938e-06
1.57157e-06
1.57147e-06
1.55171e-06
1.55155e-06
1.55135e-06
1.54905e-06
1.54899e-06
1.54882e-06
1.54908e-06
1.5514e-06
1.55161e-06
1.55135e-06
1.54813e-06
1.54522e-06
1.54522e-06
1.54522e-06
1.54522e-06
1.54888e-06
1.5497e-06
1.54905e-06
1.54522e-06
1.54522e-06
1.54522e-06
1.54522e-06
1.54522e-06
1.54522e-06
1.55002e-06
1.55197e-06
1.55172e-06
1.54898e-06
1.54522e-06
1.54522e-06
1.54522e-06
1.54522e-06
1.54522e-06
1.54522e-06
1.55021e-06
1.55169e-06
1.55155e-06
1.54882e-06
1.54522e-06
1.54522e-06
1.54522e-06
1.54522e-06
1.54522e-06
1.54522e-06
1.55021e-06
1.54985e-06
1.54908e-06
1.54522e-06
1.54522e-06
1.54522e-06
1.54522e-06
1.54522e-06
1.54522e-06
1.55014e-06
1.55204e-06
1.5514e-06
1.54887e-06
1.54522e-06
1.54522e-06
1.54522e-06
1.54522e-06
1.55003e-06
1.54997e-06
1.55194e-06
1.55162e-06
1.54971e-06
1.55002e-06
1.55021e-06
1.55021e-06
1.55014e-06
1.54996e-06
1.55189e-06
1.55197e-06
1.55169e-06
1.54985e-06
1.55204e-06
1.55194e-06
1.53218e-06
1.53201e-06
1.53181e-06
1.52951e-06
1.52945e-06
1.52929e-06
1.52955e-06
1.53187e-06
1.53207e-06
1.53182e-06
1.5286e-06
1.52569e-06
1.52569e-06
1.52569e-06
1.52569e-06
1.52934e-06
1.53017e-06
1.52951e-06
1.52569e-06
1.52569e-06
1.52569e-06
1.52569e-06
1.52569e-06
1.52569e-06
1.53049e-06
1.53243e-06
1.53218e-06
1.52945e-06
1.52569e-06
1.52569e-06
1.52569e-06
1.52569e-06
1.52569e-06
1.52569e-06
1.53068e-06
1.53216e-06
1.53201e-06
1.52929e-06
1.52569e-06
1.52569e-06
1.52569e-06
1.52569e-06
1.52569e-06
1.52569e-06
1.53067e-06
1.53031e-06
1.52955e-06
1.52569e-06
1.52569e-06
1.52569e-06
1.52569e-06
1.52569e-06
1.52569e-06
1.53061e-06
1.5325e-06
1.53187e-06
1.52934e-06
1.52569e-06
1.52569e-06
1.52569e-06
1.52569e-06
1.53049e-06
1.53044e-06
1.5324e-06
1.53208e-06
1.53018e-06
1.53049e-06
1.53068e-06
1.53067e-06
1.53061e-06
1.53043e-06
1.53236e-06
1.53243e-06
1.53216e-06
1.53031e-06
1.5325e-06
1.5324e-06
1.51264e-06
1.51248e-06
1.51228e-06
1.50998e-06
1.50992e-06
1.50975e-06
1.51001e-06
1.51234e-06
1.51254e-06
1.51228e-06
1.50906e-06
1.50615e-06
1.50615e-06
1.50615e-06
1.50615e-06
1.50981e-06
1.51064e-06
1.50998e-06
1.50615e-06
1.50615e-06
1.50615e-06
1.50615e-06
1.50615e-06
1.50615e-06
1.51096e-06
1.5129e-06
1.51265e-06
1.50992e-06
1.50615e-06
1.50615e-06
1.50615e-06
1.50615e-06
1.50615e-06
1.50615e-06
1.51115e-06
1.51262e-06
1.51248e-06
1.50975e-06
1.50615e-06
1.50615e-06
1.50615e-06
1.50615e-06
1.50615e-06
1.50615e-06
1.51114e-06
1.51078e-06
1.51001e-06
1.50615e-06
1.50615e-06
1.50615e-06
1.50615e-06
1.50615e-06
1.50615e-06
1.51107e-06
1.51297e-06
1.51234e-06
1.50981e-06
1.50615e-06
1.50615e-06
1.50615e-06
1.50615e-06
1.51096e-06
1.51091e-06
1.51287e-06
1.51255e-06
1.51064e-06
1.51096e-06
1.51115e-06
1.51114e-06
1.51107e-06
1.5109e-06
1.51282e-06
1.5129e-06
1.51262e-06
1.51078e-06
1.51297e-06
1.51287e-06
1.49311e-06
1.49295e-06
1.49275e-06
1.49045e-06
1.49038e-06
1.49022e-06
1.49048e-06
1.4928e-06
1.49301e-06
1.49275e-06
1.48953e-06
1.48662e-06
1.48662e-06
1.48662e-06
1.48662e-06
1.49027e-06
1.4911e-06
1.49044e-06
1.48662e-06
1.48662e-06
1.48662e-06
1.48662e-06
1.48662e-06
1.48662e-06
1.49142e-06
1.49336e-06
1.49312e-06
1.49038e-06
1.48662e-06
1.48662e-06
1.48662e-06
1.48662e-06
1.48662e-06
1.48662e-06
1.49161e-06
1.49309e-06
1.49295e-06
1.49022e-06
1.48662e-06
1.48662e-06
1.48662e-06
1.48662e-06
1.48662e-06
1.48662e-06
1.49161e-06
1.49124e-06
1.49048e-06
1.48662e-06
1.48662e-06
1.48662e-06
1.48662e-06
1.48662e-06
1.48662e-06
1.49154e-06
1.49344e-06
1.4928e-06
1.49027e-06
1.48662e-06
1.48662e-06
1.48662e-06
1.48662e-06
1.49143e-06
1.49137e-06
1.49333e-06
1.49301e-06
1.49111e-06
1.49142e-06
1.49161e-06
1.49161e-06
1.49154e-06
1.49136e-06
1.49329e-06
1.49337e-06
1.49309e-06
1.49125e-06
1.49343e-06
1.49334e-06
1.47358e-06
1.47341e-06
1.47321e-06
1.47091e-06
1.47085e-06
1.47069e-06
1.47095e-06
1.47327e-06
1.47347e-06
1.47321e-06
1.47e-06
1.46709e-06
1.46709e-06
1.46709e-06
1.46709e-06
1.47074e-06
1.47157e-06
1.47091e-06
1.46709e-06
1.46709e-06
1.46709e-06
1.46709e-06
1.46709e-06
1.46709e-06
1.47189e-06
1.47383e-06
1.47358e-06
1.47085e-06
1.46709e-06
1.46709e-06
1.46709e-06
1.46709e-06
1.46709e-06
1.46709e-06
1.47208e-06
1.47355e-06
1.47341e-06
1.47068e-06
1.46709e-06
1.46709e-06
1.46709e-06
1.46709e-06
1.46709e-06
1.46709e-06
1.47207e-06
1.47171e-06
1.47094e-06
1.46709e-06
1.46709e-06
1.46709e-06
1.46709e-06
1.46709e-06
1.46709e-06
1.47201e-06
1.4739e-06
1.47327e-06
1.47074e-06
1.46709e-06
1.46709e-06
1.46709e-06
1.46709e-06
1.47189e-06
1.47184e-06
1.4738e-06
1.47348e-06
1.47157e-06
1.47189e-06
1.47208e-06
1.47207e-06
1.472e-06
1.47183e-06
1.47376e-06
1.47383e-06
1.47355e-06
1.47171e-06
1.4739e-06
1.4738e-06
1.45404e-06
1.45388e-06
1.45368e-06
1.45138e-06
1.45131e-06
1.45115e-06
1.45141e-06
1.45373e-06
1.45394e-06
1.45368e-06
1.45046e-06
1.44755e-06
1.44755e-06
1.44755e-06
1.44755e-06
1.4512e-06
1.45203e-06
1.45137e-06
1.44755e-06
1.44755e-06
1.44755e-06
1.44755e-06
1.44755e-06
1.44755e-06
1.45235e-06
1.45429e-06
1.45405e-06
1.45131e-06
1.44755e-06
1.44755e-06
1.44755e-06
1.44755e-06
1.44755e-06
1.44755e-06
1.45254e-06
1.45402e-06
1.45388e-06
1.45115e-06
1.44755e-06
1.44755e-06
1.44755e-06
1.44755e-06
1.44755e-06
1.44755e-06
1.45254e-06
1.45217e-06
1.45141e-06
1.44755e-06
1.44755e-06
1.44755e-06
1.44755e-06
1.44755e-06
1.44755e-06
1.45247e-06
1.45437e-06
1.45373e-06
1.4512e-06
1.44755e-06
1.44755e-06
1.44755e-06
1.44755e-06
1.45236e-06
1.4523e-06
1.45427e-06
1.45395e-06
1.45204e-06
1.45235e-06
1.45254e-06
1.45254e-06
1.45247e-06
1.45229e-06
1.45422e-06
1.4543e-06
1.45402e-06
1.45218e-06
1.45436e-06
1.45427e-06
1.43451e-06
1.43434e-06
1.43414e-06
1.43184e-06
1.43178e-06
1.43162e-06
1.43188e-06
1.4342e-06
1.4344e-06
1.43414e-06
1.43093e-06
1.42801e-06
1.42801e-06
1.42801e-06
1.42801e-06
1.43167e-06
1.4325e-06
1.43184e-06
1.42801e-06
1.42801e-06
1.42801e-06
1.42801e-06
1.42801e-06
1.42801e-06
1.43282e-06
1.43476e-06
1.43451e-06
1.43178e-06
1.42801e-06
1.42801e-06
1.42801e-06
1.42801e-06
1.42801e-06
1.42801e-06
1.43301e-06
1.43448e-06
1.43434e-06
1.43161e-06
1.42801e-06
1.42801e-06
1.42801e-06
1.42801e-06
1.42801e-06
1.42801e-06
1.433e-06
1.43264e-06
1.43187e-06
1.42801e-06
1.42801e-06
1.42801e-06
1.42801e-06
1.42801e-06
1.42801e-06
1.43293e-06
1.43483e-06
1.4342e-06
1.43167e-06
1.42801e-06
1.42801e-06
1.42801e-06
1.42801e-06
1.43282e-06
1.43277e-06
1.43473e-06
1.43441e-06
1.4325e-06
1.43282e-06
1.43301e-06
1.433e-06
1.43293e-06
1.43276e-06
1.43469e-06
1.43476e-06
1.43448e-06
1.43264e-06
1.43483e-06
1.43473e-06
1.41497e-06
1.41481e-06
1.4146e-06
1.41231e-06
1.41224e-06
1.41208e-06
1.41234e-06
1.41466e-06
1.41486e-06
1.41461e-06
1.41139e-06
1.40848e-06
1.40848e-06
1.40848e-06
1.40848e-06
1.41213e-06
1.41296e-06
1.4123e-06
1.40848e-06
1.40848e-06
1.40848e-06
1.40848e-06
1.40848e-06
1.40848e-06
1.41328e-06
1.41522e-06
1.41497e-06
1.41224e-06
1.40848e-06
1.40848e-06
1.40848e-06
1.40848e-06
1.40848e-06
1.40848e-06
1.41347e-06
1.41495e-06
1.41481e-06
1.41208e-06
1.40848e-06
1.40848e-06
1.40848e-06
1.40848e-06
1.40848e-06
1.40848e-06
1.41347e-06
1.4131e-06
1.41234e-06
1.40848e-06
1.40848e-06
1.40848e-06
1.40848e-06
1.40848e-06
1.40848e-06
1.4134e-06
1.4153e-06
1.41466e-06
1.41213e-06
1.40848e-06
1.40848e-06
1.40848e-06
1.40848e-06
1.41329e-06
1.41323e-06
1.41519e-06
1.41487e-06
1.41297e-06
1.41328e-06
1.41347e-06
1.41347e-06
1.4134e-06
1.41322e-06
1.41515e-06
1.41522e-06
1.41495e-06
1.4131e-06
1.41529e-06
1.41519e-06
1.39543e-06
1.39527e-06
1.39507e-06
1.39277e-06
1.39271e-06
1.39254e-06
1.3928e-06
1.39513e-06
1.39533e-06
1.39507e-06
1.39185e-06
1.38894e-06
1.38894e-06
1.38894e-06
1.38894e-06
1.3926e-06
1.39343e-06
1.39277e-06
1.38894e-06
1.38894e-06
1.38894e-06
1.38894e-06
1.38894e-06
1.38894e-06
1.39375e-06
1.39569e-06
1.39544e-06
1.39271e-06
1.38894e-06
1.38894e-06
1.38894e-06
1.38894e-06
1.38894e-06
1.38894e-06
1.39394e-06
1.39541e-06
1.39527e-06
1.39254e-06
1.38894e-06
1.38894e-06
1.38894e-06
1.38894e-06
1.38894e-06
1.38894e-06
1.39393e-06
1.39357e-06
1.3928e-06
1.38894e-06
1.38894e-06
1.38894e-06
1.38894e-06
1.38894e-06
1.38894e-06
1.39386e-06
1.39576e-06
1.39513e-06
1.39259e-06
1.38894e-06
1.38894e-06
1.38894e-06
1.38894e-06
1.39375e-06
1.39369e-06
1.39566e-06
1.39534e-06
1.39343e-06
1.39375e-06
1.39394e-06
1.39393e-06
1.39386e-06
1.39369e-06
1.39561e-06
1.39569e-06
1.39541e-06
1.39357e-06
1.39576e-06
1.39566e-06
1.3759e-06
1.37573e-06
1.37553e-06
1.37323e-06
1.37317e-06
1.37301e-06
1.37327e-06
1.37559e-06
1.37579e-06
1.37554e-06
1.37232e-06
1.36941e-06
1.36941e-06
1.36941e-06
1.36941e-06
1.37306e-06
1.37389e-06
1.37323e-06
1.36941e-06
1.36941e-06
1.36941e-06
1.36941e-06
1.36941e-06
1.36941e-06
1.37421e-06
1.37615e-06
1.3759e-06
1.37317e-06
1.36941e-06
1.36941e-06
1.36941e-06
1.36941e-06
1.36941e-06
1.36941e-06
1.3744e-06
1.37587e-06
1.37573e-06
1.37301e-06
1.36941e-06
1.36941e-06
1.36941e-06
1.36941e-06
1.36941e-06
1.36941e-06
1.37439e-06
1.37403e-06
1.37327e-06
1.36941e-06
1.36941e-06
1.36941e-06
1.36941e-06
1.36941e-06
1.36941e-06
1.37433e-06
1.37622e-06
1.37559e-06
1.37306e-06
1.36941e-06
1.36941e-06
1.36941e-06
1.36941e-06
1.37421e-06
1.37416e-06
1.37612e-06
1.3758e-06
1.37389e-06
1.37421e-06
1.3744e-06
1.37439e-06
1.37433e-06
1.37415e-06
1.37608e-06
1.37615e-06
1.37588e-06
1.37403e-06
1.37622e-06
1.37612e-06
1.35636e-06
1.3562e-06
1.356e-06
1.3537e-06
1.35363e-06
1.35347e-06
1.35373e-06
1.35606e-06
1.35626e-06
1.356e-06
1.35278e-06
1.34987e-06
1.34987e-06
1.34987e-06
1.34987e-06
1.35352e-06
1.35435e-06
1.3537e-06
1.34987e-06
1.34987e-06
1.34987e-06
1.34987e-06
1.34987e-06
1.34987e-06
1.35467e-06
1.35662e-06
1.35637e-06
1.35363e-06
1.34987e-06
1.34987e-06
1.34987e-06
1.34987e-06
1.34987e-06
1.34987e-06
1.35486e-06
1.35634e-06
1.3562e-06
1.35347e-06
1.34987e-06
1.34987e-06
1.34987e-06
1.34987e-06
1.34987e-06
1.34987e-06
1.35486e-06
1.3545e-06
1.35373e-06
1.34987e-06
1.34987e-06
1.34987e-06
1.34987e-06
1.34987e-06
1.34987e-06
1.35479e-06
1.35669e-06
1.35605e-06
1.35352e-06
1.34987e-06
1.34987e-06
1.34987e-06
1.34987e-06
1.35468e-06
1.35462e-06
1.35659e-06
1.35627e-06
1.35436e-06
1.35467e-06
1.35486e-06
1.35486e-06
1.35479e-06
1.35461e-06
1.35654e-06
1.35662e-06
1.35634e-06
1.3545e-06
1.35669e-06
1.35659e-06
1.33683e-06
1.33666e-06
1.33646e-06
1.33416e-06
1.3341e-06
1.33394e-06
1.3342e-06
1.33652e-06
1.33672e-06
1.33646e-06
1.33325e-06
1.33033e-06
1.33033e-06
1.33033e-06
1.33033e-06
1.33399e-06
1.33482e-06
1.33416e-06
1.33033e-06
1.33033e-06
1.33033e-06
1.33033e-06
1.33033e-06
1.33033e-06
1.33514e-06
1.33708e-06
1.33683e-06
1.3341e-06
1.33033e-06
1.33033e-06
1.33033e-06
1.33033e-06
1.33033e-06
1.33033e-06
1.33533e-06
1.3368e-06
1.33666e-06
1.33393e-06
1.33033e-06
1.33033e-06
1.33033e-06
1.33033e-06
1.33033e-06
1.33033e-06
1.33532e-06
1.33496e-06
1.33419e-06
1.33033e-06
1.33033e-06
1.33033e-06
1.33033e-06
1.33033e-06
1.33033e-06
1.33525e-06
1.33715e-06
1.33652e-06
1.33399e-06
1.33033e-06
1.33033e-06
1.33033e-06
1.33033e-06
1.33514e-06
1.33509e-06
1.33705e-06
1.33673e-06
1.33482e-06
1.33514e-06
1.33533e-06
1.33532e-06
1.33525e-06
1.33508e-06
1.33701e-06
1.33708e-06
1.3368e-06
1.33496e-06
1.33715e-06
1.33705e-06
1.31729e-06
1.31712e-06
1.31692e-06
1.31462e-06
1.31456e-06
1.3144e-06
1.31466e-06
1.31698e-06
1.31718e-06
1.31693e-06
1.31371e-06
1.3108e-06
1.3108e-06
1.3108e-06
1.3108e-06
1.31445e-06
1.31528e-06
1.31462e-06
1.3108e-06
1.3108e-06
1.3108e-06
1.3108e-06
1.3108e-06
1.3108e-06
1.3156e-06
1.31754e-06
1.31729e-06
1.31456e-06
1.3108e-06
1.3108e-06
1.3108e-06
1.3108e-06
1.3108e-06
1.3108e-06
1.31579e-06
1.31727e-06
1.31712e-06
1.3144e-06
1.3108e-06
1.3108e-06
1.3108e-06
1.3108e-06
1.3108e-06
1.3108e-06
1.31579e-06
1.31542e-06
1.31466e-06
1.3108e-06
1.3108e-06
1.3108e-06
1.3108e-06
1.3108e-06
1.3108e-06
1.31572e-06
1.31761e-06
1.31698e-06
1.31445e-06
1.3108e-06
1.3108e-06
1.3108e-06
1.3108e-06
1.31561e-06
1.31555e-06
1.31751e-06
1.31719e-06
1.31529e-06
1.3156e-06
1.31579e-06
1.31578e-06
1.31572e-06
1.31554e-06
1.31747e-06
1.31754e-06
1.31727e-06
1.31542e-06
1.31761e-06
1.31751e-06
1.29775e-06
1.29759e-06
1.29739e-06
1.29509e-06
1.29503e-06
1.29486e-06
1.29512e-06
1.29745e-06
1.29765e-06
1.29739e-06
1.29417e-06
1.29126e-06
1.29126e-06
1.29126e-06
1.29126e-06
1.29492e-06
1.29574e-06
1.29509e-06
1.29126e-06
1.29126e-06
1.29126e-06
1.29126e-06
1.29126e-06
1.29126e-06
1.29606e-06
1.29801e-06
1.29776e-06
1.29503e-06
1.29126e-06
1.29126e-06
1.29126e-06
1.29126e-06
1.29126e-06
1.29126e-06
1.29626e-06
1.29773e-06
1.29759e-06
1.29486e-06
1.29126e-06
1.29126e-06
1.29126e-06
1.29126e-06
1.29126e-06
1.29126e-06
1.29625e-06
1.29589e-06
1.29512e-06
1.29126e-06
1.29126e-06
1.29126e-06
1.29126e-06
1.29126e-06
1.29126e-06
1.29618e-06
1.29808e-06
1.29744e-06
1.29491e-06
1.29126e-06
1.29126e-06
1.29126e-06
1.29126e-06
1.29607e-06
1.29601e-06
1.29798e-06
1.29766e-06
1.29575e-06
1.29606e-06
1.29625e-06
1.29625e-06
1.29618e-06
1.29601e-06
1.29793e-06
1.29801e-06
1.29773e-06
1.29589e-06
1.29808e-06
1.29798e-06
1.27822e-06
1.27805e-06
1.27785e-06
1.27555e-06
1.27549e-06
1.27533e-06
1.27559e-06
1.27791e-06
1.27811e-06
1.27785e-06
1.27464e-06
1.27173e-06
1.27173e-06
1.27173e-06
1.27173e-06
1.27538e-06
1.27621e-06
1.27555e-06
1.27173e-06
1.27173e-06
1.27173e-06
1.27173e-06
1.27173e-06
1.27173e-06
1.27653e-06
1.27847e-06
1.27822e-06
1.27549e-06
1.27173e-06
1.27173e-06
1.27173e-06
1.27173e-06
1.27173e-06
1.27173e-06
1.27672e-06
1.27819e-06
1.27805e-06
1.27532e-06
1.27173e-06
1.27173e-06
1.27173e-06
1.27173e-06
1.27173e-06
1.27173e-06
1.27671e-06
1.27635e-06
1.27558e-06
1.27173e-06
1.27173e-06
1.27173e-06
1.27173e-06
1.27173e-06
1.27173e-06
1.27665e-06
1.27854e-06
1.27791e-06
1.27538e-06
1.27173e-06
1.27173e-06
1.27173e-06