/*--------------------------------*- C++ -*----------------------------------*\
| =========                 |                                                 |
| \\      /  F ield         | OpenFOAM: The Open Source CFD Toolbox           |
|  \\    /   O peration     | Version:  v2012                                 |
|   \\  /    A nd           | Website:  www.openfoam.com                      |
|    \\/     M anipulation  |                                                 |
\*---------------------------------------------------------------------------*/
FoamFile
{
    version     2.0;
    format      ascii;
    class       volScalarField;
    location    "125";
    object      epsilon;
}
// * * * * * * * * * * * * * * * * * * * * * * * * * * * * * * * * * * * * * //

dimensions      [0 2 -3 0 0 0 0];


internalField   nonuniform List<scalar> 
85864
(
1.23361e-07
3.1293e-07
3.13015e-07
5.27851e-07
1.23365e-07
3.12956e-07
3.13041e-07
5.27663e-07
1.23369e-07
3.12978e-07
3.13062e-07
5.27755e-07
1.23372e-07
3.12992e-07
3.13075e-07
5.27924e-07
1.23375e-07
3.13007e-07
3.13089e-07
5.28071e-07
1.23378e-07
3.13015e-07
3.13098e-07
5.28099e-07
1.23381e-07
3.13024e-07
3.13107e-07
5.28006e-07
1.23383e-07
3.13034e-07
3.13117e-07
5.27865e-07
1.23387e-07
3.13049e-07
3.1313e-07
5.27824e-07
1.2339e-07
3.13059e-07
3.13141e-07
5.2796e-07
1.23393e-07
3.13066e-07
3.13148e-07
5.28084e-07
1.23395e-07
3.13072e-07
3.13154e-07
5.2807e-07
1.23397e-07
3.13077e-07
3.13159e-07
5.28016e-07
1.23398e-07
3.13082e-07
3.13162e-07
5.28037e-07
1.234e-07
3.13086e-07
3.13166e-07
5.2807e-07
1.23402e-07
3.13089e-07
3.13169e-07
5.28089e-07
1.23403e-07
3.13093e-07
3.13172e-07
5.28085e-07
1.23405e-07
3.13095e-07
3.13175e-07
5.28079e-07
1.23406e-07
3.13097e-07
3.13177e-07
5.28092e-07
1.23407e-07
3.13098e-07
3.13178e-07
5.28096e-07
1.23408e-07
3.13098e-07
3.13179e-07
5.28074e-07
1.23409e-07
3.13098e-07
3.13178e-07
5.2807e-07
1.23409e-07
3.13097e-07
3.13178e-07
5.28049e-07
1.23409e-07
3.13097e-07
3.13177e-07
5.28044e-07
1.23409e-07
3.13096e-07
3.13175e-07
5.28077e-07
1.23409e-07
3.13095e-07
3.13175e-07
5.28066e-07
1.23409e-07
3.13096e-07
3.13176e-07
5.28012e-07
1.2341e-07
3.13104e-07
3.13184e-07
5.27993e-07
1.2341e-07
3.13115e-07
3.13193e-07
5.28026e-07
1.23408e-07
3.13115e-07
3.13194e-07
5.28061e-07
1.23392e-07
3.13097e-07
3.13177e-07
5.28069e-07
1.23383e-07
3.1308e-07
3.13159e-07
5.28072e-07
1.23381e-07
3.13073e-07
3.13153e-07
5.28076e-07
1.2338e-07
3.13071e-07
3.1315e-07
5.28071e-07
1.2338e-07
3.1307e-07
3.13149e-07
5.28067e-07
1.23379e-07
3.13069e-07
3.13148e-07
5.28073e-07
1.23379e-07
3.13067e-07
3.13146e-07
5.28051e-07
1.23379e-07
3.13066e-07
3.13145e-07
5.28039e-07
1.23379e-07
3.13065e-07
3.13144e-07
5.28028e-07
1.23379e-07
3.13063e-07
3.13142e-07
5.28031e-07
1.23378e-07
3.13061e-07
3.13139e-07
5.2804e-07
1.23378e-07
3.13057e-07
3.13135e-07
5.28023e-07
1.23378e-07
3.1305e-07
3.13128e-07
5.28033e-07
1.23377e-07
3.13035e-07
3.13113e-07
5.2803e-07
1.23377e-07
3.13007e-07
3.13085e-07
5.27993e-07
1.23371e-07
3.12947e-07
3.13024e-07
5.2793e-07
1.23267e-07
3.12863e-07
3.12936e-07
5.27648e-07
1.18455e-07
2.88929e-07
2.88952e-07
4.94029e-07
5.27781e-07
5.25922e-07
3.13058e-07
3.13138e-07
3.13078e-07
3.13157e-07
5.27719e-07
5.25843e-07
3.13033e-07
3.13155e-07
3.13052e-07
3.13175e-07
3.13095e-07
3.1295e-07
3.13114e-07
5.27823e-07
5.25955e-07
3.13048e-07
3.13035e-07
3.13068e-07
5.25968e-07
5.27598e-07
5.26138e-07
3.13084e-07
3.13162e-07
3.13106e-07
3.13182e-07
5.27527e-07
5.26061e-07
3.13057e-07
3.1318e-07
3.13077e-07
3.132e-07
3.1312e-07
3.12975e-07
3.1314e-07
5.27633e-07
5.2617e-07
3.13073e-07
3.13059e-07
3.13094e-07
5.26167e-07
5.27716e-07
5.26287e-07
3.13109e-07
3.13183e-07
3.13121e-07
3.13196e-07
5.27644e-07
5.26211e-07
3.13079e-07
3.13201e-07
3.1309e-07
3.13214e-07
3.13141e-07
3.12989e-07
3.13154e-07
5.27747e-07
5.26319e-07
3.13095e-07
3.13072e-07
3.13107e-07
5.26325e-07
5.2789e-07
5.26322e-07
3.13123e-07
3.13197e-07
3.13136e-07
3.13209e-07
5.27819e-07
5.26244e-07
3.13092e-07
3.13217e-07
3.13104e-07
3.13229e-07
3.13155e-07
3.13003e-07
3.13167e-07
5.27922e-07
5.26357e-07
3.13107e-07
3.13085e-07
3.1312e-07
5.26385e-07
5.28023e-07
5.26233e-07
3.1314e-07
3.13211e-07
3.13148e-07
3.13219e-07
5.27946e-07
5.26169e-07
3.13107e-07
3.13232e-07
3.13114e-07
3.13238e-07
3.1317e-07
3.13012e-07
3.13178e-07
5.28053e-07
5.26277e-07
3.13123e-07
3.13095e-07
3.1313e-07
5.26314e-07
5.28025e-07
5.26117e-07
3.13148e-07
3.13219e-07
3.13158e-07
3.13228e-07
5.27958e-07
5.26054e-07
3.13114e-07
3.13238e-07
3.13122e-07
3.13246e-07
3.13178e-07
3.13021e-07
3.13187e-07
5.28063e-07
5.26159e-07
3.1313e-07
3.13104e-07
3.13139e-07
5.26176e-07
5.27939e-07
5.26061e-07
3.13158e-07
3.13228e-07
3.13168e-07
3.13237e-07
5.27881e-07
5.2598e-07
3.13122e-07
3.13245e-07
3.13131e-07
3.13255e-07
3.13187e-07
3.1303e-07
3.13196e-07
5.27982e-07
5.26089e-07
3.13139e-07
3.13114e-07
3.13148e-07
5.26089e-07
5.27853e-07
5.2607e-07
3.13169e-07
3.13238e-07
3.1318e-07
3.13251e-07
5.27778e-07
5.25998e-07
3.13131e-07
3.13257e-07
3.13142e-07
3.1327e-07
3.13197e-07
3.13044e-07
3.13208e-07
5.27882e-07
5.26109e-07
3.13148e-07
3.13126e-07
3.13159e-07
5.26154e-07
5.27806e-07
5.26135e-07
3.13182e-07
3.13253e-07
3.13195e-07
3.13264e-07
5.27727e-07
5.26081e-07
3.13145e-07
3.13272e-07
3.13156e-07
3.13282e-07
3.13209e-07
3.13057e-07
3.13223e-07
5.2783e-07
5.26195e-07
3.1316e-07
3.13139e-07
3.13174e-07
5.26346e-07
5.27808e-07
5.26216e-07
3.13195e-07
3.13264e-07
3.13203e-07
3.1327e-07
5.27737e-07
5.26179e-07
3.13156e-07
3.13282e-07
3.13163e-07
3.13289e-07
3.13223e-07
3.13064e-07
3.13229e-07
5.27843e-07
5.26298e-07
3.13174e-07
3.13146e-07
3.1318e-07
5.26421e-07
5.27834e-07
5.26332e-07
3.13203e-07
3.1327e-07
3.13209e-07
3.13276e-07
5.27793e-07
5.26269e-07
3.13163e-07
3.13289e-07
3.13168e-07
3.13295e-07
3.13229e-07
3.1307e-07
3.13235e-07
5.27903e-07
5.26397e-07
3.1318e-07
3.13152e-07
3.13185e-07
5.2635e-07
5.27928e-07
5.26413e-07
3.13209e-07
3.13276e-07
3.13215e-07
3.13281e-07
5.27891e-07
5.2628e-07
3.13168e-07
3.13295e-07
3.13173e-07
3.133e-07
3.13235e-07
3.13076e-07
3.1324e-07
5.28008e-07
5.26419e-07
3.13185e-07
3.13157e-07
3.13191e-07
5.26312e-07
5.2804e-07
5.26419e-07
3.13215e-07
3.13281e-07
3.1322e-07
3.13286e-07
5.27943e-07
5.2627e-07
3.13173e-07
3.133e-07
3.13178e-07
3.13304e-07
3.1324e-07
3.1308e-07
3.13244e-07
5.28082e-07
5.26369e-07
3.1319e-07
3.13161e-07
3.13195e-07
5.26353e-07
5.28109e-07
5.2637e-07
3.1322e-07
3.13286e-07
3.13224e-07
3.1329e-07
5.27964e-07
5.26267e-07
3.13177e-07
3.13304e-07
3.1318e-07
3.13308e-07
3.13244e-07
3.13084e-07
3.13247e-07
5.28076e-07
5.26333e-07
3.13195e-07
3.13165e-07
3.13198e-07
5.26381e-07
5.28121e-07
5.26298e-07
3.13224e-07
3.1329e-07
3.13229e-07
3.13294e-07
5.2799e-07
5.26258e-07
3.1318e-07
3.13308e-07
3.13183e-07
3.13312e-07
3.13247e-07
3.13088e-07
3.1325e-07
5.2805e-07
5.26334e-07
3.13197e-07
3.13168e-07
3.13201e-07
5.26385e-07
5.2809e-07
5.26228e-07
3.13229e-07
3.13294e-07
3.13233e-07
3.13298e-07
5.28013e-07
5.26218e-07
3.13183e-07
3.13312e-07
3.13187e-07
3.13316e-07
3.1325e-07
3.13092e-07
3.13253e-07
5.28055e-07
5.26334e-07
3.13201e-07
3.13172e-07
3.13204e-07
5.26376e-07
5.28027e-07
5.26193e-07
3.13233e-07
3.13297e-07
3.13236e-07
3.133e-07
5.28006e-07
5.26163e-07
3.13187e-07
3.13316e-07
3.1319e-07
3.1332e-07
3.13253e-07
3.13094e-07
3.13257e-07
5.28075e-07
5.26307e-07
3.13204e-07
3.13174e-07
3.13208e-07
5.26382e-07
5.27966e-07
5.26201e-07
3.13236e-07
3.13299e-07
3.13238e-07
3.13301e-07
5.27964e-07
5.26122e-07
3.1319e-07
3.13319e-07
3.13192e-07
3.13322e-07
3.13257e-07
3.13095e-07
3.1326e-07
5.28076e-07
5.26261e-07
3.13208e-07
3.13176e-07
3.13211e-07
5.26399e-07
5.27945e-07
5.26208e-07
3.13238e-07
3.13301e-07
3.13239e-07
3.13302e-07
5.27909e-07
5.26101e-07
3.13192e-07
3.13321e-07
3.13194e-07
3.13322e-07
3.13259e-07
3.13096e-07
3.13261e-07
5.2804e-07
5.26236e-07
3.13209e-07
3.13177e-07
3.13211e-07
5.2639e-07
5.27933e-07
5.26213e-07
3.13238e-07
3.13302e-07
3.13239e-07
3.13303e-07
5.27856e-07
5.26122e-07
3.13193e-07
3.13321e-07
3.13194e-07
3.13322e-07
3.1326e-07
3.13097e-07
3.13261e-07
5.27997e-07
5.26249e-07
3.1321e-07
3.13177e-07
3.13211e-07
5.26365e-07
5.27915e-07
5.26259e-07
3.13238e-07
3.13301e-07
3.13239e-07
3.13303e-07
5.2783e-07
5.26201e-07
3.13193e-07
3.13321e-07
3.13194e-07
3.13322e-07
3.1326e-07
3.13097e-07
3.13261e-07
5.27984e-07
5.26273e-07
3.13209e-07
3.13177e-07
3.1321e-07
5.26362e-07
5.27949e-07
5.26265e-07
3.13238e-07
3.13301e-07
3.1324e-07
3.13302e-07
5.27887e-07
5.26227e-07
3.13193e-07
3.13321e-07
3.13194e-07
3.13322e-07
3.13259e-07
3.13097e-07
3.1326e-07
5.28003e-07
5.26243e-07
3.13209e-07
3.13177e-07
3.13209e-07
5.26344e-07
5.27977e-07
5.26231e-07
3.13238e-07
3.13301e-07
3.13239e-07
3.13302e-07
5.2794e-07
5.26214e-07
3.13192e-07
3.1332e-07
3.13193e-07
3.13321e-07
3.13258e-07
3.13096e-07
3.1326e-07
5.27977e-07
5.26243e-07
3.13208e-07
3.13176e-07
3.13209e-07
5.26359e-07
5.27941e-07
5.26242e-07
3.13237e-07
3.133e-07
3.13238e-07
3.13301e-07
5.27942e-07
5.26208e-07
3.13191e-07
3.13319e-07
3.13192e-07
3.1332e-07
3.13257e-07
3.13095e-07
3.13259e-07
5.27946e-07
5.26312e-07
3.13207e-07
3.13175e-07
3.13208e-07
5.26382e-07
5.27943e-07
5.26228e-07
3.13236e-07
3.13299e-07
3.13237e-07
3.133e-07
5.27955e-07
5.2614e-07
3.1319e-07
3.13318e-07
3.13191e-07
3.13319e-07
3.13257e-07
3.13094e-07
3.13258e-07
5.28016e-07
5.26301e-07
3.13206e-07
3.13174e-07
3.13207e-07
5.26354e-07
5.27945e-07
5.26192e-07
3.13236e-07
3.13299e-07
3.13238e-07
3.133e-07
5.2793e-07
5.26048e-07
3.1319e-07
3.13318e-07
3.13192e-07
3.13319e-07
3.13257e-07
3.13094e-07
3.13259e-07
5.28054e-07
5.26201e-07
3.13205e-07
3.13174e-07
3.13208e-07
5.2631e-07
5.27894e-07
5.26251e-07
3.13238e-07
3.133e-07
3.13246e-07
3.13307e-07
5.27827e-07
5.26104e-07
3.13192e-07
3.13319e-07
3.13199e-07
3.13326e-07
3.13259e-07
3.13101e-07
3.13266e-07
5.27964e-07
5.26219e-07
3.13208e-07
3.1318e-07
3.13214e-07
5.26326e-07
5.27913e-07
5.26345e-07
3.13246e-07
3.13307e-07
3.13255e-07
3.13317e-07
5.27789e-07
5.26271e-07
3.13199e-07
3.13326e-07
3.13209e-07
3.13335e-07
3.13266e-07
3.13111e-07
3.13275e-07
5.27929e-07
5.2633e-07
3.13214e-07
3.1319e-07
3.13223e-07
5.26386e-07
5.28009e-07
5.26342e-07
3.13255e-07
3.13317e-07
3.13259e-07
3.1332e-07
5.27925e-07
5.26272e-07
3.13209e-07
3.13335e-07
3.13212e-07
3.13339e-07
3.13275e-07
3.13113e-07
3.13279e-07
5.28016e-07
5.26352e-07
3.13223e-07
3.13193e-07
3.13226e-07
5.26426e-07
5.28038e-07
5.26298e-07
3.1326e-07
3.13321e-07
3.13242e-07
3.13303e-07
5.27978e-07
5.26203e-07
3.13213e-07
3.1334e-07
3.13195e-07
3.13323e-07
3.13279e-07
3.13098e-07
3.13262e-07
5.28058e-07
5.26305e-07
3.13227e-07
3.13178e-07
3.13209e-07
5.26427e-07
5.27999e-07
5.26286e-07
3.13239e-07
3.133e-07
3.13224e-07
3.13286e-07
5.27918e-07
5.26162e-07
3.13192e-07
3.1332e-07
3.13176e-07
3.13305e-07
3.13258e-07
3.13079e-07
3.13244e-07
5.28013e-07
5.26258e-07
3.13206e-07
3.13159e-07
3.13191e-07
5.26411e-07
5.27984e-07
5.26308e-07
3.13223e-07
3.13284e-07
3.13217e-07
3.13279e-07
5.27872e-07
5.26152e-07
3.13175e-07
3.13304e-07
3.1317e-07
3.13298e-07
3.13243e-07
3.13071e-07
3.13237e-07
5.27948e-07
5.26267e-07
3.1319e-07
3.13151e-07
3.13185e-07
5.26394e-07
5.27995e-07
5.26318e-07
3.13217e-07
3.13279e-07
3.13215e-07
3.13276e-07
5.27852e-07
5.26176e-07
3.1317e-07
3.13298e-07
3.13167e-07
3.13295e-07
3.13237e-07
3.13068e-07
3.13235e-07
5.27943e-07
5.26308e-07
3.13185e-07
3.13148e-07
3.13182e-07
5.26379e-07
5.28014e-07
5.26292e-07
3.13215e-07
3.13276e-07
3.13212e-07
3.13274e-07
5.27872e-07
5.26175e-07
3.13167e-07
3.13295e-07
3.13165e-07
3.13294e-07
3.13235e-07
3.13067e-07
3.13233e-07
5.27982e-07
5.26321e-07
3.13182e-07
3.13146e-07
3.1318e-07
5.26365e-07
5.28006e-07
5.26289e-07
3.13213e-07
3.13275e-07
3.13211e-07
3.13273e-07
5.27879e-07
5.2617e-07
3.13166e-07
3.13294e-07
3.13163e-07
3.13292e-07
3.13233e-07
3.13065e-07
3.13231e-07
5.28016e-07
5.26311e-07
3.13181e-07
3.13144e-07
3.13178e-07
5.26362e-07
5.28006e-07
5.2628e-07
3.13212e-07
3.13274e-07
3.13208e-07
3.1327e-07
5.27873e-07
5.26167e-07
3.13165e-07
3.13294e-07
3.13161e-07
3.13289e-07
3.13233e-07
3.13063e-07
3.13228e-07
5.28021e-07
5.26284e-07
3.1318e-07
3.13142e-07
3.13176e-07
5.26336e-07
5.27986e-07
5.26287e-07
3.13211e-07
3.13273e-07
3.13206e-07
3.13268e-07
5.2786e-07
5.26201e-07
3.13163e-07
3.13292e-07
3.13158e-07
3.13287e-07
3.13231e-07
3.1306e-07
3.13226e-07
5.27984e-07
5.26303e-07
3.13178e-07
3.13139e-07
3.13173e-07
5.26335e-07
5.27978e-07
5.26277e-07
3.13209e-07
3.13271e-07
3.13202e-07
3.13263e-07
5.27897e-07
5.26177e-07
3.13161e-07
3.1329e-07
3.13154e-07
3.13282e-07
3.13229e-07
3.13056e-07
3.13222e-07
5.27995e-07
5.26293e-07
3.13176e-07
3.13135e-07
3.13169e-07
5.26331e-07
5.27974e-07
5.2627e-07
3.13206e-07
3.13268e-07
3.13196e-07
3.13258e-07
5.27894e-07
5.26147e-07
3.13159e-07
3.13287e-07
3.13149e-07
3.13277e-07
3.13226e-07
3.13051e-07
3.13217e-07
5.27997e-07
5.26286e-07
3.13173e-07
3.1313e-07
3.13163e-07
5.26343e-07
5.27961e-07
5.26284e-07
3.13204e-07
3.13266e-07
3.13189e-07
3.13251e-07
5.27843e-07
5.26185e-07
3.13157e-07
3.13285e-07
3.13142e-07
3.1327e-07
3.13224e-07
3.13045e-07
3.1321e-07
5.27973e-07
5.26311e-07
3.13171e-07
3.13123e-07
3.13156e-07
5.2635e-07
5.2798e-07
5.26265e-07
3.13202e-07
3.13264e-07
3.13179e-07
3.13241e-07
5.27868e-07
5.26194e-07
3.13155e-07
3.13283e-07
3.13132e-07
3.13261e-07
3.13222e-07
3.13035e-07
3.132e-07
5.28e-07
5.26292e-07
3.13168e-07
3.13113e-07
3.13146e-07
5.26336e-07
5.27968e-07
5.26252e-07
3.13197e-07
3.13259e-07
3.13165e-07
3.13227e-07
5.27895e-07
5.26192e-07
3.1315e-07
3.13279e-07
3.13118e-07
3.13246e-07
3.13217e-07
3.13021e-07
3.13185e-07
5.27997e-07
5.26269e-07
3.13164e-07
3.13099e-07
3.13132e-07
5.26352e-07
5.27937e-07
5.2627e-07
3.1319e-07
3.13252e-07
3.13142e-07
3.13203e-07
5.2789e-07
5.26201e-07
3.13143e-07
3.13271e-07
3.13095e-07
3.13222e-07
3.1321e-07
3.12998e-07
3.13162e-07
5.27957e-07
5.26272e-07
3.13156e-07
3.13076e-07
3.13108e-07
5.26343e-07
5.2794e-07
5.26291e-07
3.13175e-07
3.13237e-07
3.13104e-07
3.13165e-07
5.2789e-07
5.26197e-07
3.13128e-07
3.13256e-07
3.13057e-07
3.13184e-07
3.13195e-07
3.1296e-07
3.13124e-07
5.2794e-07
5.26295e-07
3.13141e-07
3.13038e-07
3.1307e-07
5.26319e-07
5.27965e-07
5.26249e-07
3.13147e-07
3.13209e-07
3.13038e-07
3.13096e-07
5.27886e-07
5.2615e-07
3.131e-07
3.13227e-07
3.12993e-07
3.13118e-07
3.13167e-07
3.12893e-07
3.13056e-07
5.27959e-07
5.26281e-07
3.13113e-07
3.12972e-07
3.12999e-07
5.26295e-07
5.2792e-07
5.26059e-07
3.1309e-07
3.13144e-07
3.12715e-07
3.12766e-07
5.27828e-07
5.25951e-07
3.13042e-07
3.13165e-07
3.12662e-07
3.12784e-07
3.13106e-07
3.1257e-07
3.12733e-07
5.27936e-07
5.26093e-07
3.13047e-07
3.1264e-07
3.12664e-07
5.26117e-07
5.27602e-07
5.1156e-07
3.13009e-07
3.1306e-07
3.00594e-07
3.00645e-07
5.275e-07
5.11504e-07
3.12956e-07
3.13085e-07
3.00578e-07
3.00629e-07
3.13032e-07
3.00511e-07
3.00602e-07
5.27633e-07
5.11575e-07
3.12958e-07
3.00541e-07
3.0057e-07
5.11572e-07
4.94002e-07
2.88987e-07
2.89032e-07
4.93962e-07
2.88982e-07
2.89016e-07
1.18454e-07
1.1845e-07
1.18454e-07
2.88995e-07
4.94019e-07
2.88978e-07
3.84387e-06
8.89269e-06
3.84405e-06
8.8929e-06
1.82728e-05
1.82748e-05
3.84401e-06
8.89467e-06
3.84411e-06
8.89488e-06
1.23357e-07
1.23376e-07
1.23373e-07
1.23364e-07
1.2336e-07
1.23378e-07
1.23375e-07
1.50765e-06
3.04429e-06
1.78595e-07
3.12936e-07
1.50819e-06
3.04379e-06
1.78598e-07
1.82733e-05
1.82754e-05
1.50771e-06
1.78613e-07
3.04442e-06
3.13021e-07
1.50828e-06
1.78616e-07
3.04396e-06
5.21412e-06
5.216e-06
5.26342e-07
5.21388e-06
5.21578e-06
3.84383e-06
8.89263e-06
3.84405e-06
8.89286e-06
1.82726e-05
1.82746e-05
3.84401e-06
8.8946e-06
3.8441e-06
8.89482e-06
1.23361e-07
1.23379e-07
1.23376e-07
1.23368e-07
1.23363e-07
1.23382e-07
1.23379e-07
1.50766e-06
3.04431e-06
1.78607e-07
3.12962e-07
1.50811e-06
3.04382e-06
1.7861e-07
1.82731e-05
1.82752e-05
1.50772e-06
1.78624e-07
3.04444e-06
3.13046e-07
1.50819e-06
1.78626e-07
3.044e-06
5.21405e-06
5.21593e-06
5.26265e-07
5.21384e-06
5.21575e-06
3.84384e-06
8.8926e-06
3.84399e-06
8.89284e-06
1.82725e-05
1.82745e-05
3.84404e-06
8.89456e-06
3.84413e-06
8.89479e-06
1.23364e-07
1.23383e-07
1.2338e-07
1.23371e-07
1.23367e-07
1.23385e-07
1.23382e-07
1.50768e-06
3.04436e-06
1.78618e-07
3.12979e-07
1.50812e-06
3.04387e-06
1.78619e-07
1.82729e-05
1.82751e-05
1.50776e-06
1.78634e-07
3.04448e-06
3.13063e-07
1.50822e-06
1.78636e-07
3.04404e-06
5.21404e-06
5.21592e-06
5.26111e-07
5.21385e-06
5.21575e-06
3.84388e-06
8.89261e-06
3.84402e-06
8.89285e-06
1.82724e-05
1.82745e-05
3.84407e-06
8.89456e-06
3.84417e-06
8.89481e-06
1.23367e-07
1.23386e-07
1.23383e-07
1.23374e-07
1.2337e-07
1.23388e-07
1.23385e-07
1.5077e-06
3.04442e-06
1.78626e-07
3.12993e-07
1.50815e-06
3.04395e-06
1.78627e-07
1.82729e-05
1.82751e-05
1.5078e-06
1.78643e-07
3.04453e-06
3.13076e-07
1.50826e-06
1.78643e-07
3.04408e-06
5.21406e-06
5.21594e-06
5.26019e-07
5.21388e-06
5.21577e-06
3.84391e-06
8.89266e-06
3.84404e-06
8.89292e-06
1.82725e-05
1.82745e-05
3.8441e-06
8.89462e-06
3.84417e-06
8.89487e-06
1.23371e-07
1.23389e-07
1.23386e-07
1.23377e-07
1.23372e-07
1.23391e-07
1.23388e-07
1.50757e-06
3.04454e-06
1.78631e-07
3.13007e-07
1.50803e-06
3.04405e-06
1.78631e-07
1.8273e-05
1.82751e-05
1.50766e-06
1.78648e-07
3.0446e-06
3.13089e-07
1.5082e-06
1.78648e-07
3.04419e-06
5.21411e-06
5.216e-06
5.26063e-07
5.21394e-06
5.21584e-06
3.84398e-06
8.89267e-06
3.84411e-06
8.8929e-06
1.82725e-05
1.82745e-05
3.84415e-06
8.89462e-06
3.84423e-06
8.89485e-06
1.23373e-07
1.23391e-07
1.23388e-07
1.2338e-07
1.23375e-07
1.23393e-07
1.2339e-07
1.50766e-06
3.0445e-06
1.78635e-07
3.13015e-07
1.50803e-06
3.04402e-06
1.78635e-07
1.82729e-05
1.82751e-05
1.50773e-06
1.78651e-07
3.04465e-06
3.13098e-07
1.50813e-06
1.78651e-07
3.04417e-06
5.21416e-06
5.21604e-06
5.26209e-07
5.21397e-06
5.21588e-06
3.84405e-06
8.89267e-06
3.84416e-06
8.8929e-06
1.82725e-05
1.82746e-05
3.84421e-06
8.89456e-06
3.84427e-06
8.89477e-06
1.23375e-07
1.23394e-07
1.23391e-07
1.23382e-07
1.23377e-07
1.23396e-07
1.23393e-07
1.50761e-06
3.04453e-06
1.78637e-07
3.13024e-07
1.50805e-06
3.04403e-06
1.78637e-07
1.8273e-05
1.82752e-05
1.50767e-06
1.78654e-07
3.04466e-06
3.13107e-07
1.50819e-06
1.78654e-07
3.0442e-06
5.2142e-06
5.21609e-06
5.26381e-07
5.21402e-06
5.21593e-06
3.84412e-06
8.89268e-06
3.84424e-06
8.89293e-06
1.82724e-05
1.82745e-05
3.84427e-06
8.89454e-06
3.84433e-06
8.89478e-06
1.23378e-07
1.23396e-07
1.23393e-07
1.23386e-07
1.23381e-07
1.23399e-07
1.23396e-07
1.50761e-06
3.04449e-06
1.7864e-07
3.13035e-07
1.50808e-06
3.04402e-06
1.7864e-07
1.8273e-05
1.82753e-05
1.50771e-06
1.78656e-07
3.04465e-06
3.13118e-07
1.50819e-06
1.78656e-07
3.04422e-06
5.21424e-06
5.21613e-06
5.26447e-07
5.21406e-06
5.21597e-06
3.84416e-06
8.89271e-06
3.84429e-06
8.89297e-06
1.82725e-05
1.82745e-05
3.84432e-06
8.89455e-06
3.84439e-06
8.89479e-06
1.23382e-07
1.234e-07
1.23397e-07
1.2339e-07
1.23384e-07
1.23402e-07
1.234e-07
1.50769e-06
3.04455e-06
1.78644e-07
3.13053e-07
1.50818e-06
3.04405e-06
1.78644e-07
1.82731e-05
1.82754e-05
1.50777e-06
1.7866e-07
3.04467e-06
3.13133e-07
1.50829e-06
1.7866e-07
3.04422e-06
5.21428e-06
5.21617e-06
5.2636e-07
5.2141e-06
5.21601e-06
3.8442e-06
8.89277e-06
3.84435e-06
8.89301e-06
1.82725e-05
1.82746e-05
3.84437e-06
8.89459e-06
3.84445e-06
8.89483e-06
1.23385e-07
1.23403e-07
1.234e-07
1.23392e-07
1.23387e-07
1.23405e-07
1.23402e-07
1.50775e-06
3.04459e-06
1.78649e-07
3.13059e-07
1.50814e-06
3.04407e-06
1.78649e-07
1.82732e-05
1.82754e-05
1.50783e-06
1.78664e-07
3.04471e-06
3.13141e-07
1.50824e-06
1.78664e-07
3.04427e-06
5.21432e-06
5.21621e-06
5.26246e-07
5.21413e-06
5.21604e-06
3.84423e-06
8.8928e-06
3.84437e-06
8.89305e-06
1.82726e-05
1.82747e-05
3.84439e-06
8.89461e-06
3.84447e-06
8.89486e-06
1.23387e-07
1.23405e-07
1.23403e-07
1.23394e-07
1.23389e-07
1.23407e-07
1.23404e-07
1.50774e-06
3.0446e-06
1.78653e-07
3.13066e-07
1.50819e-06
3.0441e-06
1.78653e-07
1.82733e-05
1.82755e-05
1.5078e-06
1.78668e-07
3.04472e-06
3.13148e-07
1.50828e-06
1.78668e-07
3.04428e-06
5.21434e-06
5.21623e-06
5.26271e-07
5.21415e-06
5.21606e-06
3.84423e-06
8.89283e-06
3.84437e-06
8.89307e-06
1.82726e-05
1.82747e-05
3.84439e-06
8.89464e-06
3.84448e-06
8.89488e-06
1.2339e-07
1.23408e-07
1.23405e-07
1.23396e-07
1.23391e-07
1.23409e-07
1.23407e-07
1.50777e-06
3.04462e-06
1.78658e-07
3.13072e-07
1.50824e-06
3.04411e-06
1.78658e-07
1.82733e-05
1.82755e-05
1.50782e-06
1.78671e-07
3.04474e-06
3.13154e-07
1.50834e-06
1.78671e-07
3.04428e-06
5.21435e-06
5.21624e-06
5.26374e-07
5.21415e-06
5.21607e-06
3.8442e-06
8.89285e-06
3.84435e-06
8.89309e-06
1.82727e-05
1.82748e-05
3.84437e-06
8.89466e-06
3.84447e-06
8.8949e-06
1.23391e-07
1.23409e-07
1.23407e-07
1.23398e-07
1.23393e-07
1.2341e-07
1.23408e-07
1.5078e-06
3.04463e-06
1.78662e-07
3.13077e-07
1.50825e-06
3.04411e-06
1.78662e-07
1.82733e-05
1.82755e-05
1.50785e-06
1.78675e-07
3.04475e-06
3.13159e-07
1.50834e-06
1.78675e-07
3.04429e-06
5.21435e-06
5.21624e-06
5.26369e-07
5.21415e-06
5.21606e-06
3.84418e-06
8.89287e-06
3.84432e-06
8.89311e-06
1.82727e-05
1.82748e-05
3.84434e-06
8.89468e-06
3.84444e-06
8.89491e-06
1.23393e-07
1.23411e-07
1.23408e-07
1.23399e-07
1.23395e-07
1.23412e-07
1.23409e-07
1.5078e-06
3.04462e-06
1.78666e-07
3.13082e-07
1.50824e-06
3.04411e-06
1.78666e-07
1.82734e-05
1.82756e-05
1.50786e-06
1.78678e-07
3.04474e-06
3.13163e-07
1.50834e-06
1.78678e-07
3.04428e-06
5.21434e-06
5.21624e-06
5.26333e-07
5.21414e-06
5.21606e-06
3.84416e-06
8.89288e-06
3.84432e-06
8.89311e-06
1.82727e-05
1.82748e-05
3.84432e-06
8.89469e-06
3.84442e-06
8.89492e-06
1.23395e-07
1.23412e-07
1.23409e-07
1.23401e-07
1.23396e-07
1.23414e-07
1.23411e-07
1.5078e-06
3.0446e-06
1.78669e-07
3.13086e-07
1.50823e-06
3.0441e-06
1.78669e-07
1.82734e-05
1.82756e-05
1.50786e-06
1.78682e-07
3.04473e-06
3.13166e-07
1.50833e-06
1.78682e-07
3.04428e-06
5.21433e-06
5.21622e-06
5.26321e-07
5.21413e-06
5.21604e-06
3.84414e-06
8.89288e-06
3.8443e-06
8.89312e-06
1.82728e-05
1.82748e-05
3.8443e-06
8.89469e-06
3.8444e-06
8.89492e-06
1.23397e-07
1.23414e-07
1.23411e-07
1.23403e-07
1.23398e-07
1.23415e-07
1.23412e-07
1.5078e-06
3.04459e-06
1.78673e-07
3.13089e-07
1.50823e-06
3.04409e-06
1.78673e-07
1.82734e-05
1.82756e-05
1.50785e-06
1.78686e-07
3.04472e-06
3.13169e-07
1.50832e-06
1.78686e-07
3.04426e-06
5.21432e-06
5.21621e-06
5.26337e-07
5.21412e-06
5.21603e-06
3.84412e-06
8.89288e-06
3.84428e-06
8.89312e-06
1.82728e-05
1.82748e-05
3.84428e-06
8.89469e-06
3.84438e-06
8.89492e-06
1.23398e-07
1.23416e-07
1.23412e-07
1.23404e-07
1.23399e-07
1.23417e-07
1.23414e-07
1.50779e-06
3.04458e-06
1.78677e-07
3.13092e-07
1.50823e-06
3.04408e-06
1.78677e-07
1.82734e-05
1.82756e-05
1.50784e-06
1.78689e-07
3.04471e-06
3.13172e-07
1.50831e-06
1.78689e-07
3.04426e-06
5.21431e-06
5.2162e-06
5.26347e-07
5.21411e-06
5.21602e-06
3.8441e-06
8.89288e-06
3.84426e-06
8.89312e-06
1.82728e-05
1.82749e-05
3.84425e-06
8.89469e-06
3.84436e-06
8.89492e-06
1.23399e-07
1.23417e-07
1.23414e-07
1.23406e-07
1.234e-07
1.23418e-07
1.23415e-07
1.50778e-06
3.04456e-06
1.7868e-07
3.13094e-07
1.50822e-06
3.04407e-06
1.7868e-07
1.82734e-05
1.82756e-05
1.50783e-06
1.78692e-07
3.0447e-06
3.13174e-07
1.50829e-06
1.78692e-07
3.04424e-06
5.2143e-06
5.21619e-06
5.26335e-07
5.21409e-06
5.21601e-06
3.84409e-06
8.89288e-06
3.84425e-06
8.89311e-06
1.82728e-05
1.82748e-05
3.84424e-06
8.89468e-06
3.84434e-06
8.89491e-06
1.23401e-07
1.23418e-07
1.23415e-07
1.23407e-07
1.23401e-07
1.23419e-07
1.23416e-07
1.50778e-06
3.04455e-06
1.78682e-07
3.13095e-07
1.50822e-06
3.04406e-06
1.78682e-07
1.82734e-05
1.82756e-05
1.50781e-06
1.78694e-07
3.04469e-06
3.13176e-07
1.50828e-06
1.78694e-07
3.04423e-06
5.21428e-06
5.21618e-06
5.26326e-07
5.21408e-06
5.216e-06
3.84406e-06
8.89287e-06
3.84422e-06
8.8931e-06
1.82728e-05
1.82748e-05
3.84421e-06
8.89467e-06
3.84431e-06
8.8949e-06
1.23402e-07
1.23419e-07
1.23416e-07
1.23408e-07
1.23402e-07
1.2342e-07
1.23417e-07
1.50776e-06
3.04454e-06
1.78684e-07
3.13096e-07
1.50821e-06
3.04404e-06
1.78684e-07
1.82734e-05
1.82756e-05
1.50779e-06
1.78696e-07
3.04468e-06
3.13177e-07
1.50826e-06
1.78696e-07
3.04422e-06
5.21427e-06
5.21617e-06
5.26342e-07
5.21407e-06
5.21599e-06
3.84404e-06
8.89286e-06
3.8442e-06
8.89309e-06
1.82728e-05
1.82748e-05
3.84418e-06
8.89466e-06
3.84429e-06
8.89489e-06
1.23402e-07
1.2342e-07
1.23417e-07
1.23409e-07
1.23403e-07
1.23421e-07
1.23418e-07
1.50774e-06
3.04453e-06
1.78686e-07
3.13096e-07
1.50819e-06
3.04403e-06
1.78686e-07
1.82734e-05
1.82756e-05
1.50777e-06
1.78697e-07
3.04466e-06
3.13177e-07
1.50824e-06
1.78697e-07
3.0442e-06
5.21426e-06
5.21616e-06
5.2635e-07
5.21406e-06
5.21598e-06
3.84402e-06
8.89285e-06
3.84418e-06
8.89308e-06
1.82728e-05
1.82748e-05
3.84417e-06
8.89465e-06
3.84427e-06
8.89488e-06
1.23403e-07
1.23421e-07
1.23417e-07
1.23409e-07
1.23404e-07
1.23421e-07
1.23418e-07
1.50772e-06
3.04451e-06
1.78687e-07
3.13096e-07
1.50817e-06
3.04401e-06
1.78686e-07
1.82734e-05
1.82756e-05
1.50775e-06
1.78697e-07
3.04465e-06
3.13176e-07
1.50821e-06
1.78697e-07
3.04418e-06
5.21425e-06
5.21615e-06
5.26352e-07
5.21405e-06
5.21597e-06
3.844e-06
8.89284e-06
3.84416e-06
8.89307e-06
1.82728e-05
1.82748e-05
3.84415e-06
8.89464e-06
3.84425e-06
8.89487e-06
1.23404e-07
1.23421e-07
1.23418e-07
1.23409e-07
1.23404e-07
1.23421e-07
1.23418e-07
1.50771e-06
3.04449e-06
1.78687e-07
3.13095e-07
1.50816e-06
3.044e-06
1.78686e-07
1.82734e-05
1.82756e-05
1.50773e-06
1.78698e-07
3.04463e-06
3.13176e-07
1.50819e-06
1.78697e-07
3.04417e-06
5.21423e-06
5.21613e-06
5.26357e-07
5.21403e-06
5.21595e-06
3.84397e-06
8.89283e-06
3.84414e-06
8.89306e-06
1.82727e-05
1.82748e-05
3.84413e-06
8.89463e-06
3.84423e-06
8.89486e-06
1.23404e-07
1.23421e-07
1.23418e-07
1.23409e-07
1.23404e-07
1.23421e-07
1.23419e-07
1.5077e-06
3.04449e-06
1.78687e-07
3.13094e-07
1.50814e-06
3.04399e-06
1.78686e-07
1.82734e-05
1.82756e-05
1.50771e-06
1.78697e-07
3.04462e-06
3.13175e-07
1.50817e-06
1.78696e-07
3.04416e-06
5.21422e-06
5.21613e-06
5.26316e-07
5.21402e-06
5.21595e-06
3.84398e-06
8.89282e-06
3.84412e-06
8.89306e-06
1.82727e-05
1.82748e-05
3.84413e-06
8.89462e-06
3.84421e-06
8.89485e-06
1.23404e-07
1.23421e-07
1.23418e-07
1.23409e-07
1.23404e-07
1.23421e-07
1.23418e-07
1.50768e-06
3.04448e-06
1.78687e-07
3.13093e-07
1.50812e-06
3.04398e-06
1.78685e-07
1.82734e-05
1.82756e-05
1.50771e-06
1.78695e-07
3.04461e-06
3.13173e-07
1.50815e-06
1.78694e-07
3.04415e-06
5.21421e-06
5.21612e-06
5.26316e-07
5.21401e-06
5.21593e-06
3.84403e-06
8.89282e-06
3.84417e-06
8.89306e-06
1.82727e-05
1.82748e-05
3.84418e-06
8.89462e-06
3.84426e-06
8.89486e-06
1.23404e-07
1.2342e-07
1.23418e-07
1.23409e-07
1.23403e-07
1.2342e-07
1.23418e-07
1.50769e-06
3.04447e-06
1.78685e-07
3.13093e-07
1.50812e-06
3.04398e-06
1.78685e-07
1.82734e-05
1.82756e-05
1.50771e-06
1.78694e-07
3.04461e-06
3.13173e-07
1.50814e-06
1.78692e-07
3.04415e-06
5.21421e-06
5.21612e-06
5.26359e-07
5.21402e-06
5.21594e-06
3.84408e-06
8.89284e-06
3.84421e-06
8.89308e-06
1.82727e-05
1.82748e-05
3.84423e-06
8.89464e-06
3.84431e-06
8.89488e-06
1.23403e-07
1.2342e-07
1.23417e-07
1.2341e-07
1.23403e-07
1.2342e-07
1.23417e-07
1.50774e-06
3.04449e-06
1.78686e-07
3.13096e-07
1.50815e-06
3.04401e-06
1.78686e-07
1.82734e-05
1.82756e-05
1.50776e-06
1.78693e-07
3.04463e-06
3.13176e-07
1.50817e-06
1.78693e-07
3.04419e-06
5.21424e-06
5.21614e-06
5.26405e-07
5.21405e-06
5.21598e-06
3.84411e-06
8.89285e-06
3.84426e-06
8.89309e-06
1.82727e-05
1.82748e-05
3.84427e-06
8.89466e-06
3.84435e-06
8.89489e-06
1.23403e-07
1.2342e-07
1.23417e-07
1.2341e-07
1.23403e-07
1.2342e-07
1.23418e-07
1.5078e-06
3.04456e-06
1.78688e-07
3.13104e-07
1.50822e-06
3.04408e-06
1.78688e-07
1.82734e-05
1.82756e-05
1.50783e-06
1.78695e-07
3.04469e-06
3.13184e-07
1.50824e-06
1.78695e-07
3.04425e-06
5.21427e-06
5.21617e-06
5.26402e-07
5.21409e-06
5.21601e-06
3.84411e-06
8.89285e-06
3.84426e-06
8.89308e-06
1.82727e-05
1.82747e-05
3.84426e-06
8.89465e-06
3.84436e-06
8.89488e-06
1.23403e-07
1.2342e-07
1.23418e-07
1.23409e-07
1.23403e-07
1.2342e-07
1.23417e-07
1.50783e-06
3.04459e-06
1.78693e-07
3.13113e-07
1.50827e-06
3.04409e-06
1.78692e-07
1.82733e-05
1.82755e-05
1.50785e-06
1.787e-07
3.04473e-06
3.13192e-07
1.50829e-06
1.78698e-07
3.04427e-06
5.21429e-06
5.21619e-06
5.26366e-07
5.2141e-06
5.21602e-06
3.8441e-06
8.89283e-06
3.84426e-06
8.89306e-06
1.82726e-05
1.82747e-05
3.84426e-06
8.89463e-06
3.84435e-06
8.89485e-06
1.23401e-07
1.23418e-07
1.23415e-07
1.23395e-07
1.23389e-07
1.23406e-07
1.23403e-07
1.50781e-06
3.04458e-06
1.78691e-07
3.13106e-07
1.50826e-06
3.04408e-06
1.78684e-07
1.82733e-05
1.82755e-05
1.50782e-06
1.78697e-07
3.04472e-06
3.13186e-07
1.50828e-06
1.78691e-07
3.04426e-06
5.21429e-06
5.21619e-06
5.2633e-07
5.21409e-06
5.21601e-06
3.84411e-06
8.89281e-06
3.84426e-06
8.89304e-06
1.82726e-05
1.82747e-05
3.84426e-06
8.89461e-06
3.84436e-06
8.89484e-06
1.23385e-07
1.23403e-07
1.23399e-07
1.23384e-07
1.23378e-07
1.23395e-07
1.23393e-07
1.50779e-06
3.04457e-06
1.78674e-07
3.13086e-07
1.50824e-06
3.04407e-06
1.78667e-07
1.82733e-05
1.82755e-05
1.5078e-06
1.7868e-07
3.04471e-06
3.13166e-07
1.50825e-06
1.78673e-07
3.04425e-06
5.21428e-06
5.21618e-06
5.26285e-07
5.21407e-06
5.21599e-06
3.84411e-06
8.89281e-06
3.84427e-06
8.89304e-06
1.82726e-05
1.82747e-05
3.84427e-06
8.89461e-06
3.84436e-06
8.89484e-06
1.23377e-07
1.23394e-07
1.23391e-07
1.23381e-07
1.23375e-07
1.23393e-07
1.2339e-07
1.50779e-06
3.04456e-06
1.78662e-07
3.13073e-07
1.50824e-06
3.04407e-06
1.78658e-07
1.82733e-05
1.82755e-05
1.50778e-06
1.78668e-07
3.0447e-06
3.13153e-07
1.50823e-06
1.78664e-07
3.04424e-06
5.21427e-06
5.21617e-06
5.26274e-07
5.21407e-06
5.21599e-06
3.84411e-06
8.89281e-06
3.84427e-06
8.89304e-06
1.82726e-05
1.82747e-05
3.84426e-06
8.89461e-06
3.84436e-06
8.89484e-06
1.23375e-07
1.23392e-07
1.23389e-07
1.2338e-07
1.23375e-07
1.23392e-07
1.23389e-07
1.50779e-06
3.04456e-06
1.78657e-07
3.13068e-07
1.50824e-06
3.04407e-06
1.78655e-07
1.82733e-05
1.82755e-05
1.50777e-06
1.78663e-07
3.0447e-06
3.13148e-07
1.50822e-06
1.7866e-07
3.04424e-06
5.21427e-06
5.21617e-06
5.26294e-07
5.21407e-06
5.21599e-06
3.84411e-06
8.89281e-06
3.84427e-06
8.89305e-06