/*--------------------------------*- C++ -*----------------------------------*\
| =========                 |                                                 |
| \\      /  F ield         | OpenFOAM: The Open Source CFD Toolbox           |
|  \\    /   O peration     | Version:  v2012                                 |
|   \\  /    A nd           | Website:  www.openfoam.com                      |
|    \\/     M anipulation  |                                                 |
\*---------------------------------------------------------------------------*/
FoamFile
{
    version     2.0;
    format      ascii;
    class       volScalarField;
    location    "125";
    object      k;
}
// * * * * * * * * * * * * * * * * * * * * * * * * * * * * * * * * * * * * * //

dimensions      [0 2 -2 0 0 0 0];


internalField   nonuniform List<scalar> 
85864
(
1.30769e-05
1.82565e-05
1.82586e-05
2.3082e-05
1.30771e-05
1.82575e-05
1.82596e-05
2.30853e-05
1.30773e-05
1.82583e-05
1.82604e-05
2.30833e-05
1.30775e-05
1.82588e-05
1.82608e-05
2.30767e-05
1.30776e-05
1.82592e-05
1.82611e-05
2.30714e-05
1.30778e-05
1.82596e-05
1.82616e-05
2.30728e-05
1.30779e-05
1.82599e-05
1.82619e-05
2.30784e-05
1.30781e-05
1.82604e-05
1.82623e-05
2.3086e-05
1.30782e-05
1.82609e-05
1.82629e-05
2.30883e-05
1.30784e-05
1.82615e-05
1.82634e-05
2.30858e-05
1.30786e-05
1.82619e-05
1.82638e-05
2.30793e-05
1.30787e-05
1.82621e-05
1.82639e-05
2.30758e-05
1.30788e-05
1.82621e-05
1.8264e-05
2.30823e-05
1.30789e-05
1.82622e-05
1.82641e-05
2.30894e-05
1.3079e-05
1.82623e-05
1.82641e-05
2.30884e-05
1.3079e-05
1.82624e-05
1.82642e-05
2.30864e-05
1.30791e-05
1.82625e-05
1.82643e-05
2.30862e-05
1.30792e-05
1.82626e-05
1.82644e-05
2.30876e-05
1.30792e-05
1.82626e-05
1.82645e-05
2.3087e-05
1.30793e-05
1.82627e-05
1.82645e-05
2.30834e-05
1.30794e-05
1.82628e-05
1.82646e-05
2.30795e-05
1.30794e-05
1.82628e-05
1.82646e-05
2.30778e-05
1.30795e-05
1.82628e-05
1.82646e-05
2.30789e-05
1.30795e-05
1.82628e-05
1.82646e-05
2.30844e-05
1.30795e-05
1.82628e-05
1.82646e-05
2.30843e-05
1.30794e-05
1.82627e-05
1.82645e-05
2.30865e-05
1.30793e-05
1.82626e-05
1.82644e-05
2.30895e-05
1.30792e-05
1.82628e-05
1.82645e-05
2.30897e-05
1.30791e-05
1.82631e-05
1.82647e-05
2.3088e-05
1.30791e-05
1.8263e-05
1.82648e-05
2.3085e-05
1.30782e-05
1.82623e-05
1.82643e-05
2.30815e-05
1.30772e-05
1.82612e-05
1.82631e-05
2.30786e-05
1.3077e-05
1.82608e-05
1.82626e-05
2.30771e-05
1.3077e-05
1.82607e-05
1.82624e-05
2.30767e-05
1.3077e-05
1.82606e-05
1.82623e-05
2.30763e-05
1.3077e-05
1.82605e-05
1.82623e-05
2.30762e-05
1.3077e-05
1.82605e-05
1.82623e-05
2.30768e-05
1.3077e-05
1.82606e-05
1.82623e-05
2.30789e-05
1.3077e-05
1.82606e-05
1.82623e-05
2.30805e-05
1.3077e-05
1.82607e-05
1.82624e-05
2.3083e-05
1.3077e-05
1.82609e-05
1.82626e-05
2.3084e-05
1.3077e-05
1.82611e-05
1.82628e-05
2.30855e-05
1.3077e-05
1.82614e-05
1.82631e-05
2.30878e-05
1.30771e-05
1.82619e-05
1.82635e-05
2.30838e-05
1.30772e-05
1.82625e-05
1.82642e-05
2.308e-05
1.30772e-05
1.82633e-05
1.82649e-05
2.30794e-05
1.30736e-05
1.82604e-05
1.8262e-05
2.30751e-05
1.29551e-05
1.76032e-05
1.76035e-05
2.23355e-05
2.30815e-05
2.30468e-05
1.82583e-05
1.8259e-05
1.82591e-05
1.82599e-05
2.30793e-05
2.30453e-05
1.82585e-05
1.82593e-05
1.82593e-05
1.82602e-05
1.82598e-05
1.82573e-05
1.82606e-05
2.30814e-05
2.30473e-05
1.82593e-05
1.82594e-05
1.82601e-05
2.30486e-05
2.30838e-05
2.30404e-05
1.82593e-05
1.826e-05
1.82599e-05
1.82606e-05
2.30823e-05
2.30387e-05
1.82595e-05
1.82603e-05
1.826e-05
1.82609e-05
1.82608e-05
1.8258e-05
1.82614e-05
2.30842e-05
2.30408e-05
1.82602e-05
1.82601e-05
1.82609e-05
2.30431e-05
2.3081e-05
2.30344e-05
1.82602e-05
1.82608e-05
1.82603e-05
1.8261e-05
2.30793e-05
2.30325e-05
1.82603e-05
1.82611e-05
1.82604e-05
1.82612e-05
1.82616e-05
1.82584e-05
1.82617e-05
2.30813e-05
2.30346e-05
1.8261e-05
1.82604e-05
1.82612e-05
2.30361e-05
2.30738e-05
2.30354e-05
1.82607e-05
1.82613e-05
1.82609e-05
1.82615e-05
2.3072e-05
2.30337e-05
1.82607e-05
1.82616e-05
1.82609e-05
1.82618e-05
1.8262e-05
1.8259e-05
1.82622e-05
2.30741e-05
2.30358e-05
1.82615e-05
1.82609e-05
1.82616e-05
2.30363e-05
2.30697e-05
2.30399e-05
1.82611e-05
1.82616e-05
1.82615e-05
1.82621e-05
2.3068e-05
2.3038e-05
1.8261e-05
1.8262e-05
1.82614e-05
1.82623e-05
1.82624e-05
1.82595e-05
1.82628e-05
2.30701e-05
2.30401e-05
1.82618e-05
1.82615e-05
1.82622e-05
2.30405e-05
2.30719e-05
2.30466e-05
1.82616e-05
1.82621e-05
1.8262e-05
1.82625e-05
2.30701e-05
2.30441e-05
1.82614e-05
1.82623e-05
1.82618e-05
1.82628e-05
1.82628e-05
1.82599e-05
1.82632e-05
2.30721e-05
2.30463e-05
1.82622e-05
1.82619e-05
1.82626e-05
2.30475e-05
2.30773e-05
2.30505e-05
1.8262e-05
1.82625e-05
1.82625e-05
1.8263e-05
2.30749e-05
2.30487e-05
1.82618e-05
1.82627e-05
1.82623e-05
1.82631e-05
1.82632e-05
1.82604e-05
1.82637e-05
2.3077e-05
2.30507e-05
1.82626e-05
1.82624e-05
1.82631e-05
2.30523e-05
2.30834e-05
2.30506e-05
1.82624e-05
1.82629e-05
1.8263e-05
1.82635e-05
2.30813e-05
2.3049e-05
1.82622e-05
1.82631e-05
1.82627e-05
1.82637e-05
1.82636e-05
1.82609e-05
1.82642e-05
2.30834e-05
2.3051e-05
1.8263e-05
1.82628e-05
1.82636e-05
2.30508e-05
2.30864e-05
2.30489e-05
1.82629e-05
1.82635e-05
1.82634e-05
1.8264e-05
2.3085e-05
2.30465e-05
1.82627e-05
1.82637e-05
1.82631e-05
1.82642e-05
1.82642e-05
1.82614e-05
1.82646e-05
2.3087e-05
2.30484e-05
1.82636e-05
1.82633e-05
1.82639e-05
2.30447e-05
2.30869e-05
2.30461e-05
1.82635e-05
1.82641e-05
1.82639e-05
1.82643e-05
2.30851e-05
2.30426e-05
1.82632e-05
1.82643e-05
1.82635e-05
1.82645e-05
1.82648e-05
1.82617e-05
1.82649e-05
2.3087e-05
2.30443e-05
1.82641e-05
1.82636e-05
1.82642e-05
2.30404e-05
2.30862e-05
2.30417e-05
1.8264e-05
1.82644e-05
1.8264e-05
1.82644e-05
2.30833e-05
2.30391e-05
1.82636e-05
1.82645e-05
1.82636e-05
1.82647e-05
1.8265e-05
1.82619e-05
1.82651e-05
2.30851e-05
2.30409e-05
1.82644e-05
1.82638e-05
1.82644e-05
2.30423e-05
2.30829e-05
2.30398e-05
1.82641e-05
1.82645e-05
1.82642e-05
1.82646e-05
2.30798e-05
2.30384e-05
1.82637e-05
1.82648e-05
1.82638e-05
1.82648e-05
1.82651e-05
1.8262e-05
1.82654e-05
2.30813e-05
2.30402e-05
1.82645e-05
1.82639e-05
1.82647e-05
2.30509e-05
2.3078e-05
2.30408e-05
1.82643e-05
1.82646e-05
1.82644e-05
1.82647e-05
2.30758e-05
2.30394e-05
1.82638e-05
1.82648e-05
1.82639e-05
1.82649e-05
1.82653e-05
1.82622e-05
1.82655e-05
2.30769e-05
2.30421e-05
1.82646e-05
1.8264e-05
1.82649e-05
2.30542e-05
2.3075e-05
2.30441e-05
1.82644e-05
1.82647e-05
1.82645e-05
1.82648e-05
2.30743e-05
2.30409e-05
1.82639e-05
1.82649e-05
1.82639e-05
1.8265e-05
1.82654e-05
1.82623e-05
1.82655e-05
2.30756e-05
2.30456e-05
1.82648e-05
1.82641e-05
1.82649e-05
2.30502e-05
2.30763e-05
2.30491e-05
1.82645e-05
1.82648e-05
1.82646e-05
1.82649e-05
2.3074e-05
2.30441e-05
1.82639e-05
1.82649e-05
1.8264e-05
1.82651e-05
1.82655e-05
1.82624e-05
1.82655e-05
2.30776e-05
2.3049e-05
1.82648e-05
1.82642e-05
1.82649e-05
2.3047e-05
2.308e-05
2.30527e-05
1.82646e-05
1.82649e-05
1.82649e-05
1.82651e-05
2.30759e-05
2.3048e-05
1.8264e-05
1.82651e-05
1.82642e-05
1.82653e-05
1.82655e-05
1.82626e-05
1.82656e-05
2.30802e-05
2.30509e-05
1.82649e-05
1.82643e-05
1.8265e-05
2.30468e-05
2.30841e-05
2.30537e-05
1.82648e-05
1.8265e-05
1.8265e-05
1.82652e-05
2.30789e-05
2.30507e-05
1.82641e-05
1.82653e-05
1.82644e-05
1.82654e-05
1.82656e-05
1.82626e-05
1.82658e-05
2.30819e-05
2.30521e-05
1.8265e-05
1.82644e-05
1.82652e-05
2.30482e-05
2.30873e-05
2.30529e-05
1.82649e-05
1.82651e-05
1.8265e-05
1.82653e-05
2.30821e-05
2.30517e-05
1.82643e-05
1.82653e-05
1.82644e-05
1.82655e-05
1.82658e-05
1.82627e-05
1.82659e-05
2.30834e-05
2.30533e-05
1.82651e-05
1.82645e-05
1.82652e-05
2.30469e-05
2.30883e-05
2.30519e-05
1.82649e-05
1.82652e-05
1.82651e-05
1.82653e-05
2.30848e-05
2.30514e-05
1.82643e-05
1.82654e-05
1.82645e-05
1.82656e-05
1.82659e-05
1.82628e-05
1.82659e-05
2.30854e-05
2.30536e-05
1.82652e-05
1.82646e-05
1.82652e-05
2.30435e-05
2.30883e-05
2.30513e-05
1.8265e-05
1.82652e-05
1.82651e-05
1.82653e-05
2.30863e-05
2.30505e-05
1.82644e-05
1.82655e-05
1.82645e-05
1.82656e-05
1.82659e-05
1.82628e-05
1.82659e-05
2.30873e-05
2.3053e-05
1.82652e-05
1.82646e-05
1.82653e-05
2.30426e-05
2.30883e-05
2.30501e-05
1.8265e-05
1.82653e-05
1.82651e-05
1.82653e-05
2.30868e-05
2.3048e-05
1.82645e-05
1.82655e-05
1.82645e-05
1.82656e-05
1.82659e-05
1.82628e-05
1.8266e-05
2.30881e-05
2.30519e-05
1.82653e-05
1.82646e-05
1.82653e-05
2.30433e-05
2.30878e-05
2.30487e-05
1.82651e-05
1.82653e-05
1.82651e-05
1.82653e-05
2.3086e-05
2.30446e-05
1.82645e-05
1.82655e-05
1.82645e-05
1.82656e-05
1.8266e-05
1.82628e-05
1.8266e-05
2.30879e-05
2.30518e-05
1.82653e-05
1.82646e-05
1.82653e-05
2.30465e-05
2.30867e-05
2.30498e-05
1.82651e-05
1.82653e-05
1.82652e-05
1.82654e-05
2.30836e-05
2.30453e-05
1.82645e-05
1.82655e-05
1.82645e-05
1.82656e-05
1.82659e-05
1.82628e-05
1.8266e-05
2.30876e-05
2.30523e-05
1.82652e-05
1.82646e-05
1.82653e-05
2.30519e-05
2.30873e-05
2.30505e-05
1.82651e-05
1.82653e-05
1.82651e-05
1.82654e-05
2.30836e-05
2.30486e-05
1.82645e-05
1.82655e-05
1.82645e-05
1.82656e-05
1.8266e-05
1.82628e-05
1.8266e-05
2.30884e-05
2.30502e-05
1.82652e-05
1.82646e-05
1.82653e-05
2.30506e-05
2.30876e-05
2.30503e-05
1.82651e-05
1.82653e-05
1.82651e-05
1.82653e-05
2.30846e-05
2.30504e-05
1.82644e-05
1.82655e-05
1.82644e-05
1.82655e-05
1.82659e-05
1.82628e-05
1.8266e-05
2.30874e-05
2.30498e-05
1.82652e-05
1.82646e-05
1.82653e-05
2.30534e-05
2.30874e-05
2.3051e-05
1.8265e-05
1.82652e-05
1.8265e-05
1.82653e-05
2.30842e-05
2.30516e-05
1.82643e-05
1.82654e-05
1.82644e-05
1.82655e-05
1.82659e-05
1.82627e-05
1.8266e-05
2.30865e-05
2.30523e-05
1.82651e-05
1.82645e-05
1.82652e-05
2.30541e-05
2.3088e-05
2.30502e-05
1.8265e-05
1.82651e-05
1.82651e-05
1.82653e-05
2.30858e-05
2.30506e-05
1.82643e-05
1.82653e-05
1.82645e-05
1.82655e-05
1.82659e-05
1.82628e-05
1.8266e-05
2.30873e-05
2.30529e-05
1.82651e-05
1.82645e-05
1.82652e-05
2.30516e-05
2.30884e-05
2.30462e-05
1.82651e-05
1.82653e-05
1.82654e-05
1.82655e-05
2.30877e-05
2.30443e-05
1.82645e-05
1.82655e-05
1.82647e-05
1.82657e-05
1.8266e-05
1.82629e-05
1.82662e-05
2.3089e-05
2.30497e-05
1.82652e-05
1.82646e-05
1.82654e-05
2.30476e-05
2.30864e-05
2.30422e-05
1.82655e-05
1.82657e-05
1.82655e-05
1.82656e-05
2.30849e-05
2.30384e-05
1.82648e-05
1.82657e-05
1.82648e-05
1.82658e-05
1.82663e-05
1.82629e-05
1.82663e-05
2.3088e-05
2.30469e-05
1.82655e-05
1.82647e-05
1.82655e-05
2.30443e-05
2.3081e-05
2.30435e-05
1.82655e-05
1.82656e-05
1.8265e-05
1.82651e-05
2.30747e-05
2.30453e-05
1.82649e-05
1.82658e-05
1.82643e-05
1.82654e-05
1.82664e-05
1.82626e-05
1.82658e-05
2.3086e-05
2.30485e-05
1.82656e-05
1.82645e-05
1.8265e-05
2.30428e-05
2.30791e-05
2.30437e-05
1.82648e-05
1.82648e-05
1.82637e-05
1.82639e-05
2.3077e-05
2.30506e-05
1.82641e-05
1.82651e-05
1.82631e-05
1.82642e-05
1.82656e-05
1.82614e-05
1.82645e-05
2.30866e-05
2.30502e-05
1.82648e-05
1.82632e-05
1.82637e-05
2.30415e-05
2.30822e-05
2.3045e-05
1.82636e-05
1.82637e-05
1.82632e-05
1.82634e-05
2.30832e-05
2.30495e-05
1.82629e-05
1.8264e-05
1.82625e-05
1.82636e-05
1.82645e-05
1.82609e-05
1.8264e-05
2.30871e-05
2.30494e-05
1.82637e-05
1.82626e-05
1.82632e-05
2.30412e-05
2.30846e-05
2.30432e-05
1.82632e-05
1.82633e-05
1.8263e-05
1.82632e-05
2.30848e-05
2.30479e-05
1.82625e-05
1.82635e-05
1.82623e-05
1.82634e-05
1.8264e-05
1.82606e-05
1.82638e-05
2.30868e-05
2.30476e-05
1.82632e-05
1.82624e-05
1.8263e-05
2.30418e-05
2.30833e-05
2.30409e-05
1.82631e-05
1.82632e-05
1.82629e-05
1.82631e-05
2.30847e-05
2.30466e-05
1.82624e-05
1.82634e-05
1.82622e-05
1.82633e-05
1.82639e-05
1.82605e-05
1.82637e-05
2.3086e-05
2.30455e-05
1.82631e-05
1.82622e-05
1.82629e-05
2.30421e-05
2.30794e-05
2.30431e-05
1.82629e-05
1.82631e-05
1.82628e-05
1.8263e-05
2.3084e-05
2.30469e-05
1.82622e-05
1.82634e-05
1.82621e-05
1.82632e-05
1.82638e-05
1.82604e-05
1.82637e-05
2.30844e-05
2.30458e-05
1.8263e-05
1.82621e-05
1.82629e-05
2.30426e-05
2.30802e-05
2.30482e-05
1.82629e-05
1.82631e-05
1.82628e-05
1.8263e-05
2.30842e-05
2.30473e-05
1.82622e-05
1.82633e-05
1.82621e-05
1.82632e-05
1.82637e-05
1.82604e-05
1.82636e-05
2.30843e-05
2.30486e-05
1.82629e-05
1.82621e-05
1.82628e-05
2.30442e-05
2.30851e-05
2.30503e-05
1.82629e-05
1.82631e-05
1.82627e-05
1.82629e-05
2.30845e-05
2.30463e-05
1.82622e-05
1.82633e-05
1.82621e-05
1.82631e-05
1.82637e-05
1.82603e-05
1.82636e-05
2.30858e-05
2.30493e-05
1.82629e-05
1.82621e-05
1.82628e-05
2.30471e-05
2.30861e-05
2.305e-05
1.82629e-05
1.82631e-05
1.82627e-05
1.82628e-05
2.30841e-05
2.30457e-05
1.82622e-05
1.82633e-05
1.8262e-05
1.8263e-05
1.82637e-05
1.82602e-05
1.82635e-05
2.30863e-05
2.30488e-05
1.82629e-05
1.8262e-05
1.82627e-05
2.30491e-05
2.30858e-05
2.30505e-05
1.82629e-05
1.82631e-05
1.82626e-05
1.82628e-05
2.30834e-05
2.30478e-05
1.82622e-05
1.82633e-05
1.82619e-05
1.8263e-05
1.82637e-05
1.82602e-05
1.82634e-05
2.30858e-05
2.30499e-05
1.82629e-05
1.82619e-05
1.82626e-05
2.30511e-05
2.30863e-05
2.30496e-05
1.8263e-05
1.82631e-05
1.82625e-05
1.82627e-05
2.30847e-05
2.30467e-05
1.82623e-05
1.82633e-05
1.82619e-05
1.82629e-05
1.82638e-05
1.82602e-05
1.82634e-05
2.30865e-05
2.30488e-05
1.8263e-05
1.82619e-05
1.82625e-05
2.30514e-05
2.30862e-05
2.30492e-05
1.82631e-05
1.82633e-05
1.82625e-05
1.82626e-05
2.30847e-05
2.30435e-05
1.82624e-05
1.82635e-05
1.82618e-05
1.82629e-05
1.82639e-05
1.82601e-05
1.82633e-05
2.30861e-05
2.3048e-05
1.82631e-05
1.82618e-05
1.82625e-05
2.30523e-05
2.30858e-05
2.30506e-05
1.82633e-05
1.82635e-05
1.82625e-05
1.82626e-05
2.30828e-05
2.30436e-05
1.82626e-05
1.82637e-05
1.82618e-05
1.82629e-05
1.82641e-05
1.82601e-05
1.82633e-05
2.30854e-05
2.30502e-05
1.82633e-05
1.82618e-05
1.82625e-05
2.30518e-05
2.30868e-05
2.30502e-05
1.82636e-05
1.82638e-05
1.82625e-05
1.82627e-05
2.3083e-05
2.30442e-05
1.8263e-05
1.8264e-05
1.82619e-05
1.82629e-05
1.82645e-05
1.82602e-05
1.82633e-05
2.30866e-05
2.30507e-05
1.82636e-05
1.82619e-05
1.82625e-05
2.30471e-05
2.30875e-05
2.3047e-05
1.82641e-05
1.82643e-05
1.82626e-05
1.82627e-05
2.30836e-05
2.30434e-05
1.82634e-05
1.82645e-05
1.82619e-05
1.8263e-05
1.82649e-05
1.82602e-05
1.82634e-05
2.30874e-05
2.30492e-05
1.82641e-05
1.8262e-05
1.82626e-05
2.30465e-05
2.30859e-05
2.30457e-05
1.82648e-05
1.82649e-05
1.82627e-05
1.82629e-05
2.30829e-05
2.3045e-05
1.82641e-05
1.82651e-05
1.82621e-05
1.82631e-05
1.82656e-05
1.82604e-05
1.82635e-05
2.30872e-05
2.30473e-05
1.82647e-05
1.82621e-05
1.82626e-05
2.3049e-05
2.30834e-05
2.30495e-05
1.82655e-05
1.82656e-05
1.82576e-05
1.82576e-05
2.30833e-05
2.30471e-05
1.82649e-05
1.82659e-05
1.82568e-05
1.82578e-05
1.82663e-05
1.82552e-05
1.82583e-05
2.30858e-05
2.30471e-05
1.82654e-05
1.82567e-05
1.82573e-05
2.30469e-05
2.30837e-05
2.273e-05
1.82628e-05
1.82628e-05
1.79621e-05
1.79622e-05
2.30827e-05
2.27292e-05
1.8262e-05
1.82631e-05
1.79623e-05
1.79614e-05
1.82635e-05
1.79613e-05
1.79624e-05
2.30829e-05
2.27295e-05
1.82624e-05
1.79618e-05
1.79624e-05
2.27267e-05
2.2338e-05
1.76034e-05
1.76035e-05
2.23377e-05
1.76039e-05
1.76027e-05
1.2955e-05
1.29548e-05
1.29552e-05
1.76037e-05
2.23378e-05
1.7604e-05
5.77328e-05
6.9953e-05
5.77296e-05
6.99541e-05
6.91404e-05
6.91454e-05
5.77369e-05
6.99586e-05
5.77331e-05
6.99597e-05
1.30766e-05
1.30772e-05
1.30775e-05
1.30771e-05
1.30768e-05
1.30774e-05
1.30776e-05
3.77737e-05
5.06261e-05
1.46462e-05
1.82566e-05
3.77815e-05
5.06261e-05
1.46463e-05
6.91382e-05
6.91435e-05
3.7775e-05
1.46473e-05
5.06287e-05
1.82587e-05
3.7783e-05
1.46474e-05
5.06296e-05
6.15986e-05
6.161e-05
2.30336e-05
6.15999e-05
6.16114e-05
5.77322e-05
6.99527e-05
5.77289e-05
6.99539e-05
6.91398e-05
6.91449e-05
5.77375e-05
6.99582e-05
5.77337e-05
6.99594e-05
1.30768e-05
1.30774e-05
1.30777e-05
1.30773e-05
1.3077e-05
1.30776e-05
1.30778e-05
3.77739e-05
5.06273e-05
1.46467e-05
1.82575e-05
3.77789e-05
5.06262e-05
1.46468e-05
6.91376e-05
6.9143e-05
3.77757e-05
1.46478e-05
5.06296e-05
1.82595e-05
3.77803e-05
1.4648e-05
5.06301e-05
6.15984e-05
6.16097e-05
2.30378e-05
6.15996e-05
6.16112e-05
5.77331e-05
6.99526e-05
5.77295e-05
6.99538e-05
6.91394e-05
6.91446e-05
5.77383e-05
6.9958e-05
5.77344e-05
6.99592e-05
1.3077e-05
1.30776e-05
1.30779e-05
1.30774e-05
1.30772e-05
1.30777e-05
1.3078e-05
3.77742e-05
5.06285e-05
1.46473e-05
1.82583e-05
3.77787e-05
5.06268e-05
1.46474e-05
6.91373e-05
6.91428e-05
3.7776e-05
1.46484e-05
5.06303e-05
1.82603e-05
3.778e-05
1.46485e-05
5.06307e-05
6.15982e-05
6.16097e-05
2.3046e-05
6.15996e-05
6.16111e-05
5.77338e-05
6.99526e-05
5.77304e-05
6.99539e-05
6.91393e-05
6.91445e-05
5.77386e-05
6.9958e-05
5.77351e-05
6.99593e-05
1.30772e-05
1.30778e-05
1.3078e-05
1.30776e-05
1.30773e-05
1.30779e-05
1.30781e-05
3.77741e-05
5.06288e-05
1.46478e-05
1.82589e-05
3.77794e-05
5.06276e-05
1.46479e-05
6.91373e-05
6.91428e-05
3.77759e-05
1.46489e-05
5.0631e-05
1.82609e-05
3.77809e-05
1.4649e-05
5.06308e-05
6.15985e-05
6.16098e-05
2.30501e-05
6.16e-05
6.16114e-05
5.77335e-05
6.99529e-05
5.77304e-05
6.99542e-05
6.91394e-05
6.91447e-05
5.77381e-05
6.99583e-05
5.77347e-05
6.99597e-05
1.30774e-05
1.30779e-05
1.30782e-05
1.30778e-05
1.30775e-05
1.3078e-05
1.30783e-05
3.77688e-05
5.0631e-05
1.46481e-05
1.82595e-05
3.7777e-05
5.06315e-05
1.46481e-05
6.91373e-05
6.91428e-05
3.77722e-05
1.46492e-05
5.06315e-05
1.82614e-05
3.77807e-05
1.46492e-05
5.06328e-05
6.15992e-05
6.16106e-05
2.30485e-05
6.16009e-05
6.16125e-05
5.77344e-05
6.99529e-05
5.77307e-05
6.99541e-05
6.91395e-05
6.91447e-05
5.77387e-05
6.99583e-05
5.77348e-05
6.99595e-05
1.30775e-05
1.30781e-05
1.30783e-05
1.30779e-05
1.30776e-05
1.30782e-05
1.30784e-05
3.77704e-05
5.06294e-05
1.46482e-05
1.82597e-05
3.7774e-05
5.06291e-05
1.46482e-05
6.91373e-05
6.91428e-05
3.7771e-05
1.46493e-05
5.06333e-05
1.82617e-05
3.77753e-05
1.46493e-05
5.06323e-05
6.15999e-05
6.16113e-05
2.30436e-05
6.16014e-05
6.16129e-05
5.7735e-05
6.99529e-05
5.77316e-05
6.99541e-05
6.91396e-05
6.91448e-05
5.77391e-05
6.99582e-05
5.77355e-05
6.99594e-05
1.30777e-05
1.30782e-05
1.30785e-05
1.30781e-05
1.30778e-05
1.30783e-05
1.30786e-05
3.77684e-05
5.0631e-05
1.46484e-05
1.826e-05
3.77771e-05
5.063e-05
1.46484e-05
6.91374e-05
6.91429e-05
3.77711e-05
1.46495e-05
5.0633e-05
1.8262e-05
3.77799e-05
1.46495e-05
5.06334e-05
6.16005e-05
6.16119e-05
2.30382e-05
6.1602e-05
6.16136e-05
5.77361e-05
6.9953e-05
5.77324e-05
6.99543e-05
6.91397e-05
6.91449e-05
5.774e-05
6.99581e-05
5.77361e-05
6.99594e-05
1.30778e-05
1.30783e-05
1.30786e-05
1.30782e-05
1.3078e-05
1.30785e-05
1.30788e-05
3.77686e-05
5.06294e-05
1.46485e-05
1.82604e-05
3.77775e-05
5.06291e-05
1.46485e-05
6.91376e-05
6.91432e-05
3.77726e-05
1.46495e-05
5.06327e-05
1.82623e-05
3.77776e-05
1.46495e-05
5.06335e-05
6.1601e-05
6.16124e-05
2.30384e-05
6.16026e-05
6.16141e-05
5.77369e-05
6.99532e-05
5.77335e-05
6.99545e-05
6.91398e-05
6.91451e-05
5.77409e-05
6.99582e-05
5.77372e-05
6.99595e-05
1.3078e-05
1.30785e-05
1.30788e-05
1.30784e-05
1.30782e-05
1.30787e-05
1.3079e-05
3.77734e-05
5.06313e-05
1.46487e-05
1.82609e-05
3.77786e-05
5.06293e-05
1.46487e-05
6.91378e-05
6.91434e-05
3.77756e-05
1.46497e-05
5.06332e-05
1.82628e-05
3.77794e-05
1.46498e-05
5.06334e-05
6.16015e-05
6.16129e-05
2.30439e-05
6.1603e-05
6.16146e-05
5.77376e-05
6.99534e-05
5.77341e-05
6.99547e-05
6.914e-05
6.91452e-05
5.77417e-05
6.99584e-05
5.77378e-05
6.99597e-05
1.30782e-05
1.30787e-05
1.3079e-05
1.30786e-05
1.30783e-05
1.30788e-05
1.30791e-05
3.77723e-05
5.06324e-05
1.4649e-05
1.82615e-05
3.77754e-05
5.06305e-05
1.4649e-05
6.91379e-05
6.91435e-05
3.77741e-05
1.465e-05
5.06339e-05
1.82634e-05
3.77759e-05
1.465e-05
5.06346e-05
6.1602e-05
6.16135e-05
2.30523e-05
6.16035e-05
6.16151e-05
5.77379e-05
6.99536e-05
5.77345e-05
6.99549e-05
6.91401e-05
6.91454e-05
5.77419e-05
6.99585e-05
5.77383e-05
6.99598e-05
1.30784e-05
1.30789e-05
1.30792e-05
1.30787e-05
1.30785e-05
1.30789e-05
1.30792e-05
3.77717e-05
5.06323e-05
1.46491e-05
1.82618e-05
3.77792e-05
5.0631e-05
1.46491e-05
6.91381e-05
6.91437e-05
3.77729e-05
1.46501e-05
5.0634e-05
1.82637e-05
3.77801e-05
1.46501e-05
5.06344e-05
6.16023e-05
6.16138e-05
2.30542e-05
6.16037e-05
6.16153e-05
5.77381e-05
6.99538e-05
5.77349e-05
6.9955e-05
6.91402e-05
6.91455e-05
5.77421e-05
6.99587e-05
5.77386e-05
6.99599e-05
1.30785e-05
1.3079e-05
1.30793e-05
1.30788e-05
1.30785e-05
1.3079e-05
1.30793e-05
3.77741e-05
5.06328e-05
1.46493e-05
1.8262e-05
3.77802e-05
5.06313e-05
1.46493e-05
6.91382e-05
6.91438e-05
3.77746e-05
1.46502e-05
5.06346e-05
1.82639e-05
3.77814e-05
1.46502e-05
5.06346e-05
6.16025e-05
6.1614e-05
2.30494e-05
6.16038e-05
6.16155e-05
5.7738e-05
6.99539e-05
5.77349e-05
6.99552e-05
6.91404e-05
6.91456e-05
5.77421e-05
6.99588e-05
5.77387e-05
6.996e-05
1.30786e-05
1.30791e-05
1.30794e-05
1.30789e-05
1.30786e-05
1.30791e-05
1.30794e-05
3.77752e-05
5.06328e-05
1.46494e-05
1.82621e-05
3.77794e-05
5.06319e-05
1.46494e-05
6.91383e-05
6.91439e-05
3.77761e-05
1.46503e-05
5.06347e-05
1.82641e-05
3.77809e-05
1.46504e-05
5.0635e-05
6.16025e-05
6.1614e-05
2.30416e-05
6.16039e-05
6.16155e-05
5.77379e-05
6.9954e-05
5.77348e-05
6.99552e-05
6.91404e-05
6.91457e-05
5.77419e-05
6.99589e-05
5.77385e-05
6.99601e-05
1.30787e-05
1.30791e-05
1.30794e-05
1.30789e-05
1.30787e-05
1.30792e-05
1.30795e-05
3.77751e-05
5.06325e-05
1.46496e-05
1.82622e-05
3.77791e-05
5.0632e-05
1.46496e-05
6.91384e-05
6.91439e-05
3.77763e-05
1.46505e-05
5.06346e-05
1.82641e-05
3.77803e-05
1.46505e-05
5.0635e-05
6.16025e-05
6.1614e-05
2.30438e-05
6.16037e-05
6.16154e-05
5.77377e-05
6.9954e-05
5.77346e-05
6.99552e-05
6.91405e-05
6.91457e-05
5.77417e-05
6.99589e-05
5.77382e-05
6.99602e-05
1.30787e-05
1.30792e-05
1.30795e-05
1.3079e-05
1.30788e-05
1.30792e-05
1.30795e-05
3.77749e-05
5.06321e-05
1.46497e-05
1.82623e-05
3.77791e-05
5.06318e-05
1.46497e-05
6.91384e-05
6.9144e-05
3.77761e-05
1.46506e-05
5.06345e-05
1.82641e-05
3.77799e-05
1.46506e-05
5.06349e-05
6.16023e-05
6.16138e-05
2.30476e-05
6.16036e-05
6.16152e-05
5.77376e-05
6.9954e-05
5.77345e-05
6.99553e-05
6.91406e-05
6.91458e-05
5.77415e-05
6.99589e-05
5.7738e-05
6.99602e-05
1.30788e-05
1.30793e-05
1.30795e-05
1.30791e-05
1.30789e-05
1.30793e-05
1.30796e-05
3.77749e-05
5.06319e-05
1.46498e-05
1.82624e-05
3.77793e-05
5.06317e-05
1.46499e-05
6.91385e-05
6.9144e-05
3.77758e-05
1.46508e-05
5.06343e-05
1.82642e-05
3.77797e-05
1.46508e-05
5.06347e-05
6.16022e-05
6.16137e-05
2.30498e-05
6.16035e-05
6.16151e-05
5.77375e-05
6.9954e-05
5.77343e-05
6.99553e-05
6.91406e-05
6.91458e-05
5.77413e-05
6.99589e-05
5.77379e-05
6.99602e-05
1.30789e-05
1.30793e-05
1.30796e-05
1.30792e-05
1.30789e-05
1.30794e-05
1.30797e-05
3.77748e-05
5.06317e-05
1.465e-05
1.82625e-05
3.77796e-05
5.06315e-05
1.465e-05
6.91385e-05
6.91441e-05
3.77755e-05
1.46509e-05
5.06342e-05
1.82643e-05
3.77796e-05
1.46509e-05
5.06347e-05
6.16021e-05
6.16136e-05
2.30489e-05
6.16034e-05
6.16151e-05
5.77372e-05
6.9954e-05
5.77341e-05
6.99553e-05
6.91406e-05
6.91458e-05
5.77411e-05
6.99589e-05
5.77376e-05
6.99601e-05
1.30789e-05
1.30794e-05
1.30797e-05
1.30792e-05
1.3079e-05
1.30795e-05
1.30797e-05
3.77745e-05
5.06315e-05
1.46501e-05
1.82626e-05
3.77796e-05
5.06312e-05
1.46501e-05
6.91386e-05
6.91441e-05
3.77752e-05
1.4651e-05
5.06341e-05
1.82644e-05
3.77796e-05
1.4651e-05
5.06345e-05
6.16019e-05
6.16135e-05
2.30485e-05
6.16032e-05
6.16149e-05
5.7737e-05
6.9954e-05
5.77339e-05
6.99552e-05
6.91406e-05
6.91458e-05
5.77408e-05
6.99589e-05
5.77374e-05
6.99601e-05
1.3079e-05
1.30795e-05
1.30798e-05
1.30793e-05
1.3079e-05
1.30795e-05
1.30798e-05
3.77746e-05
5.06314e-05
1.46502e-05
1.82626e-05
3.77796e-05
5.0631e-05
1.46502e-05
6.91386e-05
6.91441e-05
3.77749e-05
1.46511e-05
5.0634e-05
1.82645e-05
3.77795e-05
1.46511e-05
5.06343e-05
6.16018e-05
6.16134e-05
2.30515e-05
6.16031e-05
6.16148e-05
5.77367e-05
6.9954e-05
5.77336e-05
6.99552e-05
6.91406e-05
6.91458e-05
5.77405e-05
6.99588e-05
5.77371e-05
6.996e-05
1.3079e-05
1.30795e-05
1.30798e-05
1.30794e-05
1.30791e-05
1.30796e-05
1.30799e-05
3.77747e-05
5.06314e-05
1.46503e-05
1.82627e-05
3.77796e-05
5.06309e-05
1.46503e-05
6.91386e-05
6.91441e-05
3.77748e-05
1.46512e-05
5.06339e-05
1.82645e-05
3.77792e-05
1.46512e-05
5.06341e-05
6.16017e-05
6.16132e-05
2.3054e-05
6.1603e-05
6.16146e-05
5.77364e-05
6.99539e-05
5.77333e-05
6.99551e-05
6.91406e-05
6.91458e-05
5.77402e-05
6.99588e-05
5.77368e-05
6.996e-05
1.30791e-05
1.30796e-05
1.30799e-05
1.30794e-05
1.30791e-05
1.30796e-05
1.30799e-05
3.77744e-05
5.06313e-05
1.46504e-05
1.82627e-05
3.77791e-05
5.06308e-05
1.46504e-05
6.91385e-05
6.91441e-05
3.77744e-05
1.46513e-05
5.06337e-05
1.82645e-05
3.77787e-05
1.46513e-05
5.06338e-05
6.16016e-05
6.16131e-05
2.30537e-05
6.16028e-05
6.16145e-05
5.77361e-05
6.99539e-05
5.7733e-05
6.99551e-05
6.91406e-05
6.91458e-05
5.77399e-05
6.99587e-05
5.77365e-05
6.99599e-05
1.30792e-05
1.30796e-05
1.30799e-05
1.30795e-05
1.30792e-05
1.30797e-05
1.308e-05
3.77743e-05
5.06309e-05
1.46505e-05
1.82627e-05
3.77786e-05
5.06304e-05
1.46505e-05
6.91385e-05
6.9144e-05
3.77739e-05
1.46513e-05
5.06335e-05
1.82646e-05
3.77781e-05
1.46513e-05
5.06336e-05
6.16014e-05
6.1613e-05
2.30521e-05
6.16027e-05
6.16144e-05
5.77358e-05
6.99538e-05
5.77327e-05
6.9955e-05
6.91406e-05
6.91457e-05
5.77397e-05
6.99587e-05
5.77362e-05
6.99599e-05
1.30792e-05
1.30797e-05
1.308e-05
1.30795e-05
1.30793e-05
1.30797e-05
1.308e-05
3.77742e-05
5.06308e-05
1.46505e-05
1.82628e-05
3.7778e-05
5.063e-05
1.46505e-05
6.91385e-05
6.9144e-05
3.77735e-05
1.46513e-05
5.06334e-05
1.82645e-05
3.77778e-05
1.46513e-05
5.06334e-05
6.16012e-05
6.16128e-05
2.30465e-05
6.16025e-05
6.16143e-05
5.77355e-05
6.99537e-05
5.77324e-05
6.9955e-05
6.91405e-05
6.91457e-05
5.77393e-05
6.99586e-05
5.77359e-05
6.99598e-05
1.30793e-05
1.30797e-05
1.308e-05
1.30795e-05
1.30793e-05
1.30797e-05
1.308e-05
3.7774e-05
5.06309e-05
1.46505e-05
1.82628e-05
3.77774e-05
5.06298e-05
1.46505e-05
6.91385e-05
6.9144e-05
3.77733e-05
1.46514e-05
5.06332e-05
1.82645e-05
3.77774e-05
1.46513e-05
5.06332e-05
6.16011e-05
6.16128e-05
2.30447e-05
6.16024e-05
6.16142e-05
5.77354e-05
6.99537e-05
5.77322e-05
6.99549e-05
6.91405e-05
6.91457e-05
5.77392e-05
6.99586e-05
5.77357e-05
6.99598e-05
1.30793e-05
1.30797e-05
1.308e-05
1.30794e-05
1.30793e-05
1.30796e-05
1.308e-05
3.77735e-05
5.06307e-05
1.46506e-05
1.82627e-05
3.7777e-05
5.06296e-05
1.46505e-05
6.91384e-05
6.9144e-05
3.77729e-05
1.46513e-05
5.0633e-05
1.82645e-05
3.7777e-05
1.46512e-05
5.06329e-05
6.16009e-05
6.16126e-05
2.30449e-05
6.16021e-05
6.16139e-05
5.77357e-05
6.99537e-05
5.77323e-05
6.9955e-05
6.91405e-05
6.91457e-05
5.77395e-05
6.99586e-05
5.77358e-05
6.99598e-05
1.30793e-05
1.30795e-05
1.308e-05
1.30793e-05
1.30791e-05
1.30794e-05
1.30799e-05
3.77729e-05
5.06303e-05
1.46505e-05
1.82626e-05
3.77768e-05
5.06294e-05
1.46504e-05
6.91384e-05
6.91439e-05
3.77722e-05
1.46511e-05
5.06328e-05
1.82644e-05
3.77768e-05
1.4651e-05
5.06327e-05
6.16008e-05
6.16124e-05
2.30417e-05
6.16021e-05
6.16139e-05
5.77362e-05
6.99538e-05
5.77327e-05
6.99551e-05
6.91404e-05
6.91456e-05
5.77401e-05
6.99587e-05
5.77363e-05
6.99599e-05
1.30791e-05
1.30794e-05
1.30798e-05
1.30792e-05
1.30789e-05
1.30793e-05
1.30797e-05
3.77732e-05
5.06303e-05
1.46504e-05
1.82625e-05
3.77773e-05
5.06293e-05
1.46503e-05
6.91384e-05
6.91439e-05
3.77723e-05
1.4651e-05
5.06327e-05
1.82643e-05
3.77771e-05
1.46509e-05
5.06329e-05
6.16009e-05
6.16126e-05
2.30428e-05
6.16024e-05
6.16142e-05
5.77369e-05
6.99539e-05
5.77334e-05
6.99551e-05
6.91404e-05
6.91456e-05
5.77408e-05
6.99588e-05
5.7737e-05
6.996e-05
1.30789e-05
1.30793e-05
1.30796e-05
1.30791e-05
1.30787e-05
1.30791e-05
1.30795e-05
3.77745e-05
5.06313e-05
1.46502e-05
1.82627e-05
3.77785e-05
5.06307e-05
1.46502e-05
6.91384e-05
6.91439e-05
3.77733e-05
1.46508e-05
5.06336e-05
1.82644e-05
3.77783e-05
1.46508e-05
5.06342e-05
6.16014e-05
6.1613e-05
2.30468e-05
6.1603e-05
6.16147e-05
5.77373e-05
6.99539e-05
5.7734e-05
6.99551e-05
6.91403e-05
6.91455e-05
5.77412e-05
6.99587e-05
5.77376e-05
6.99599e-05
1.30787e-05
1.30791e-05
1.30794e-05
1.30791e-05
1.30786e-05
1.30791e-05
1.30794e-05
3.77757e-05
5.06325e-05
1.46502e-05
1.8263e-05
3.77802e-05
5.06312e-05
1.46502e-05
6.91383e-05
6.91438e-05
3.77742e-05
1.46508e-05
5.06346e-05
1.82647e-05
3.778e-05
1.46508e-05
5.06349e-05
6.16019e-05
6.16135e-05
2.30518e-05
6.16034e-05
6.16151e-05
5.77372e-05
6.99537e-05
5.77341e-05
6.99549e-05
6.91403e-05
6.91454e-05
5.77411e-05
6.99586e-05
5.77376e-05
6.99598e-05
1.30786e-05
1.30791e-05
1.30794e-05
1.30785e-05
1.30782e-05
1.30787e-05
1.30789e-05
3.77753e-05
5.06324e-05
1.46503e-05
1.8263e-05
3.77806e-05
5.06309e-05
1.46501e-05
6.91382e-05
6.91437e-05
3.77736e-05
1.46509e-05
5.06346e-05
1.82646e-05
3.77802e-05
1.46508e-05
5.06347e-05
6.1602e-05
6.16136e-05
2.30542e-05
6.16033e-05
6.1615e-05
5.77372e-05
6.99537e-05
5.7734e-05
6.99549e-05
6.91402e-05
6.91454e-05
5.7741e-05
6.99585e-05
5.77375e-05
6.99597e-05
1.30779e-05
1.30783e-05
1.30785e-05
1.30774e-05
1.3077e-05
1.30775e-05
1.30778e-05
3.77747e-05
5.06322e-05
1.46495e-05
1.82619e-05
3.778e-05
5.06307e-05
1.4649e-05
6.91382e-05
6.91437e-05
3.77729e-05
1.46501e-05
5.06342e-05
1.82636e-05
3.77793e-05
1.46497e-05
5.06344e-05
6.16019e-05
6.16134e-05
2.30539e-05
6.16031e-05
6.16148e-05
5.77372e-05
6.99536e-05
5.7734e-05
6.99549e-05
6.91402e-05
6.91454e-05
5.7741e-05
6.99585e-05
5.77375e-05
6.99597e-05
1.30769e-05
1.30774e-05
1.30776e-05
1.3077e-05
1.30767e-05
1.30772e-05
1.30774e-05
3.77745e-05
5.06316e-05
1.46485e-05
1.82609e-05
3.77795e-05
5.06309e-05
1.46483e-05
6.91381e-05
6.91437e-05
3.77726e-05
1.46491e-05
5.0634e-05
1.82627e-05
3.77786e-05
1.46489e-05
5.06342e-05
6.16017e-05
6.16133e-05
2.30528e-05
6.1603e-05
6.16147e-05
5.77372e-05
6.99536e-05
5.7734e-05
6.99549e-05
6.91402e-05
6.91454e-05
5.7741e-05
6.99585e-05
5.77375e-05
6.99597e-05
1.30767e-05
1.30771e-05
1.30774e-05
1.3077e-05
1.30767e-05
1.30771e-05
1.30774e-05
3.77746e-05
5.06315e-05
1.46481e-05
1.82606e-05
3.77791e-05
5.0631e-05
1.4648e-05
6.91381e-05
6.91437e-05
3.77727e-05
1.46487e-05
5.06341e-05
1.82624e-05
3.7778e-05
1.46486e-05
5.06342e-05
6.16017e-05
6.16133e-05
2.30521e-05
6.16031e-05
6.16148e-05
5.77372e-05
6.99537e-05
5.7734e-05
6.99549e-05
6.91402e-05
6.91454e-05
5.7741e-05
6.99585e-05