/*--------------------------------*- C++ -*----------------------------------*\
| =========                 |                                                 |
| \\      /  F ield         | OpenFOAM: The Open Source CFD Toolbox           |
|  \\    /   O peration     | Version:  v2012                                 |
|   \\  /    A nd           | Website:  www.openfoam.com                      |
|    \\/     M anipulation  |                                                 |
\*---------------------------------------------------------------------------*/
FoamFile
{
    version     2.0;
    format      ascii;
    class       volScalarField;
    location    "125";
    object      nut;
}
// * * * * * * * * * * * * * * * * * * * * * * * * * * * * * * * * * * * * * //

dimensions      [0 2 -1 0 0 0 0];


internalField   nonuniform List<scalar> 
85864
(
0.000124759
9.58579e-05
9.5854e-05
9.08401e-05
0.000124759
9.58607e-05
9.58567e-05
9.08985e-05
0.000124759
9.58627e-05
9.58585e-05
9.08669e-05
0.000124759
9.58632e-05
9.5859e-05
9.07857e-05
0.000124759
9.5863e-05
9.58584e-05
9.07188e-05
0.000124759
9.58648e-05
9.586e-05
9.07254e-05
0.000124759
9.58659e-05
9.58609e-05
9.07849e-05
0.00012476
9.58672e-05
9.58624e-05
9.08689e-05
0.000124759
9.58687e-05
9.58638e-05
9.08945e-05
0.000124759
9.58718e-05
9.58662e-05
9.08513e-05
0.00012476
9.58732e-05
9.58681e-05
9.07791e-05
0.00012476
9.58733e-05
9.58681e-05
9.0754e-05
0.00012476
9.58726e-05
9.58675e-05
9.0814e-05
0.00012476
9.58723e-05
9.58666e-05
9.08664e-05
0.00012476
9.58717e-05
9.58662e-05
9.08525e-05
0.000124759
9.58717e-05
9.58661e-05
9.0834e-05
0.000124759
9.5872e-05
9.58663e-05
9.08332e-05
0.000124759
9.58719e-05
9.58664e-05
9.08452e-05
0.000124759
9.5872e-05
9.58666e-05
9.08383e-05
0.000124759
9.58723e-05
9.58669e-05
9.08093e-05
0.000124759
9.58728e-05
9.58674e-05
9.07822e-05
0.000124759
9.58735e-05
9.58676e-05
9.07693e-05
0.00012476
9.58738e-05
9.58673e-05
9.07819e-05
0.00012476
9.5874e-05
9.58681e-05
9.08258e-05
0.00012476
9.58736e-05
9.58686e-05
9.08191e-05
0.000124758
9.58727e-05
9.58675e-05
9.08384e-05
0.000124757
9.58717e-05
9.58658e-05
9.08713e-05
0.000124754
9.58711e-05
9.58647e-05
9.08761e-05
0.000124752
9.58714e-05
9.58642e-05
9.08572e-05
0.000124754
9.58706e-05
9.58649e-05
9.08272e-05
0.000124754
9.58688e-05
9.58643e-05
9.07987e-05
0.000124744
9.58622e-05
9.5857e-05
9.07756e-05
0.000124741
9.58602e-05
9.58547e-05
9.07629e-05
0.000124741
9.5859e-05
9.58533e-05
9.07606e-05
0.000124742
9.58583e-05
9.58525e-05
9.07584e-05
0.000124742
9.58583e-05
9.58523e-05
9.07561e-05
0.000124742
9.58588e-05
9.58528e-05
9.0765e-05
0.000124743
9.58596e-05
9.58535e-05
9.07833e-05
0.000124743
9.58603e-05
9.58543e-05
9.07977e-05
0.000124743
9.58617e-05
9.58557e-05
9.08172e-05
0.000124744
9.58641e-05
9.5858e-05
9.08233e-05
0.000124744
9.58676e-05
9.58613e-05
9.08384e-05
0.000124745
9.58733e-05
9.5867e-05
9.08541e-05
0.000124747
9.58826e-05
9.58764e-05
9.08238e-05
0.00012475
9.58982e-05
9.58921e-05
9.08004e-05
0.000124756
9.59241e-05
9.59183e-05
9.08058e-05
0.000124792
9.59204e-05
9.59141e-05
9.08204e-05
0.000127518
9.65235e-05
9.65193e-05
9.08824e-05
9.08482e-05
9.08957e-05
9.5838e-05
9.58216e-05
9.58405e-05
9.58244e-05
9.08417e-05
9.08973e-05
9.58481e-05
9.58193e-05
9.58507e-05
9.58219e-05
9.58426e-05
9.58609e-05
9.58452e-05
9.08405e-05
9.08939e-05
9.58513e-05
9.58569e-05
9.58539e-05
9.09018e-05
9.08983e-05
9.0808e-05
9.58405e-05
9.58243e-05
9.58402e-05
9.5824e-05
9.0898e-05
9.08075e-05
9.58506e-05
9.58218e-05
9.58502e-05
9.58214e-05
9.5845e-05
9.58604e-05
9.58453e-05
9.08949e-05
9.08056e-05
9.58537e-05
9.58564e-05
9.5854e-05
9.08238e-05
9.08556e-05
9.07344e-05
9.58423e-05
9.58263e-05
9.58403e-05
9.58242e-05
9.08548e-05
9.07333e-05
9.58523e-05
9.58236e-05
9.585e-05
9.58213e-05
9.5847e-05
9.58604e-05
9.58449e-05
9.08527e-05
9.07308e-05
9.58557e-05
9.58562e-05
9.58536e-05
9.07417e-05
9.07692e-05
9.07366e-05
9.58429e-05
9.58268e-05
9.58415e-05
9.58256e-05
9.07674e-05
9.07368e-05
9.58526e-05
9.58237e-05
9.58511e-05
9.58229e-05
9.58476e-05
9.58618e-05
9.58458e-05
9.07658e-05
9.07338e-05
9.58563e-05
9.58573e-05
9.58544e-05
9.07328e-05
9.07139e-05
9.07876e-05
9.58421e-05
9.58262e-05
9.58447e-05
9.58287e-05
9.07141e-05
9.07834e-05
9.58516e-05
9.58237e-05
9.5854e-05
9.58257e-05
9.58468e-05
9.5865e-05
9.58487e-05
9.07116e-05
9.0781e-05
9.58552e-05
9.58602e-05
9.58572e-05
9.0778e-05
9.07308e-05
9.08602e-05
9.58448e-05
9.58287e-05
9.58465e-05
9.58305e-05
9.07282e-05
9.08515e-05
9.5854e-05
9.58257e-05
9.58558e-05
9.58275e-05
9.58488e-05
9.58668e-05
9.58504e-05
9.07257e-05
9.08506e-05
9.58573e-05
9.58619e-05
9.58589e-05
9.08572e-05
9.07883e-05
9.09004e-05
9.58458e-05
9.583e-05
9.58485e-05
9.58323e-05
9.07794e-05
9.09003e-05
9.58552e-05
9.58269e-05
9.58577e-05
9.58287e-05
9.58498e-05
9.58687e-05
9.58529e-05
9.07785e-05
9.08977e-05
9.58583e-05
9.58638e-05
9.58614e-05
9.09101e-05
9.08511e-05
9.08997e-05
9.58477e-05
9.58312e-05
9.585e-05
9.58337e-05
9.08475e-05
9.08993e-05
9.58568e-05
9.58273e-05
9.58585e-05
9.58298e-05
9.58518e-05
9.58699e-05
9.58541e-05
9.08461e-05
9.08961e-05
9.58604e-05
9.58649e-05
9.58626e-05
9.08869e-05
9.08824e-05
9.08753e-05
9.58489e-05
9.58328e-05
9.58502e-05
9.58353e-05
9.08852e-05
9.0866e-05
9.58574e-05
9.58292e-05
9.58591e-05
9.58319e-05
9.58536e-05
9.58711e-05
9.58533e-05
9.0883e-05
9.08611e-05
9.58621e-05
9.58655e-05
9.58615e-05
9.08061e-05
9.08861e-05
9.08393e-05
9.5851e-05
9.58359e-05
9.58523e-05
9.5836e-05
9.08846e-05
9.08178e-05
9.58599e-05
9.58324e-05
9.58607e-05
9.58322e-05
9.58556e-05
9.58719e-05
9.58549e-05
9.08811e-05
9.08109e-05
9.58637e-05
9.58668e-05
9.58631e-05
9.07588e-05
9.08761e-05
9.0785e-05
9.58531e-05
9.58369e-05
9.58521e-05
9.58358e-05
9.08606e-05
9.0775e-05
9.58614e-05
9.58332e-05
9.58601e-05
9.58322e-05
9.58566e-05
9.5872e-05
9.58555e-05
9.08555e-05
9.07669e-05
9.58648e-05
9.58667e-05
9.58636e-05
9.07863e-05
9.08341e-05
9.07554e-05
9.58532e-05
9.58368e-05
9.58522e-05
9.58355e-05
9.08156e-05
9.07672e-05
9.58611e-05
9.58334e-05
9.58601e-05
9.58323e-05
9.58557e-05
9.5872e-05
9.58569e-05
9.08075e-05
9.07576e-05
9.58638e-05
9.58668e-05
9.5865e-05
9.08607e-05
9.07762e-05
9.07627e-05
9.5853e-05
9.58357e-05
9.58523e-05
9.58355e-05
9.07756e-05
9.07775e-05
9.58608e-05
9.58325e-05
9.58602e-05
9.58319e-05
9.58559e-05
9.5872e-05
9.58569e-05
9.07608e-05
9.07812e-05
9.58641e-05
9.58665e-05
9.58654e-05
9.08792e-05
9.0741e-05
9.07972e-05
9.58523e-05
9.58355e-05
9.58522e-05
9.58355e-05
9.07601e-05
9.07891e-05
9.58602e-05
9.58318e-05
9.58599e-05
9.58316e-05
9.58562e-05
9.58717e-05
9.58559e-05
9.07514e-05
9.08152e-05
9.58647e-05
9.58664e-05
9.58643e-05
9.08432e-05
9.07491e-05
9.08483e-05
9.58518e-05
9.58354e-05
9.58525e-05
9.58356e-05
9.07537e-05
9.08165e-05
9.58597e-05
9.58314e-05
9.58601e-05
9.58322e-05
9.58555e-05
9.58718e-05
9.58553e-05
9.07715e-05
9.08415e-05
9.58639e-05
9.58664e-05
9.58636e-05
9.08169e-05
9.0783e-05
9.08893e-05
9.58518e-05
9.58352e-05
9.58536e-05
9.58363e-05
9.07645e-05
9.08538e-05
9.58594e-05
9.58318e-05
9.58608e-05
9.58328e-05
9.5855e-05
9.58725e-05
9.58554e-05
9.07906e-05
9.08567e-05
9.58633e-05
9.58667e-05
9.58635e-05
9.08172e-05
9.08265e-05
9.0903e-05
9.58527e-05
9.58355e-05
9.5854e-05
9.58365e-05
9.07894e-05
9.08846e-05
9.586e-05
9.58321e-05
9.58615e-05
9.58327e-05
9.58552e-05
9.58727e-05
9.58563e-05
9.08009e-05
9.08712e-05
9.58633e-05
9.58669e-05
9.58643e-05
9.08275e-05
9.08617e-05
9.08958e-05
9.5853e-05
9.58357e-05
9.58536e-05
9.58366e-05
9.08214e-05
9.08998e-05
9.58605e-05
9.58321e-05
9.58612e-05
9.58331e-05
9.58561e-05
9.58729e-05
9.58561e-05
9.08128e-05
9.0888e-05
9.58642e-05
9.58673e-05
9.58642e-05
9.08141e-05
9.08737e-05
9.08866e-05
9.58529e-05
9.58359e-05
9.58536e-05
9.58368e-05
9.08524e-05
9.09012e-05
9.58605e-05
9.58324e-05
9.58612e-05
9.58336e-05
9.5856e-05
9.58731e-05
9.58558e-05
9.08345e-05
9.08952e-05
9.58642e-05
9.58678e-05
9.58642e-05
9.07888e-05
9.08756e-05
9.08809e-05
9.58532e-05
9.58361e-05
9.58541e-05
9.58372e-05
9.08728e-05
9.08901e-05
9.58608e-05
9.58329e-05
9.58617e-05
9.58339e-05
9.58562e-05
9.58734e-05
9.58562e-05
9.0857e-05
9.08877e-05
9.58646e-05
9.5868e-05
9.58646e-05
9.0786e-05
9.08789e-05
9.08629e-05
9.58537e-05
9.58367e-05
9.58542e-05
9.58371e-05
9.08819e-05
9.08568e-05
9.58613e-05
9.58333e-05
9.58619e-05
9.58338e-05
9.58566e-05
9.58733e-05
9.58566e-05
9.08655e-05
9.08751e-05
9.5865e-05
9.58682e-05
9.58647e-05
9.07923e-05
9.08692e-05
9.0851e-05
9.58541e-05
9.58372e-05
9.58543e-05
9.58373e-05
9.08659e-05
9.08256e-05
9.58618e-05
9.58335e-05
9.5862e-05
9.5834e-05
9.5857e-05
9.58735e-05
9.5857e-05
9.08603e-05
9.08794e-05
9.58651e-05
9.58682e-05
9.5865e-05
9.08199e-05
9.08557e-05
9.0866e-05
9.58543e-05
9.58375e-05
9.58548e-05
9.58377e-05
9.08376e-05
9.0833e-05
9.5862e-05
9.58334e-05
9.58623e-05
9.58343e-05
9.58571e-05
9.5874e-05
9.58577e-05
9.08629e-05
9.08833e-05
9.5865e-05
9.58687e-05
9.58656e-05
9.08603e-05
9.08667e-05
9.0869e-05
9.58545e-05
9.58379e-05
9.5855e-05
9.5838e-05
9.08367e-05
9.08599e-05
9.5862e-05
9.5834e-05
9.58623e-05
9.58344e-05
9.58576e-05
9.58741e-05
9.58575e-05
9.08742e-05
9.08551e-05
9.58655e-05
9.58687e-05
9.58654e-05
9.08462e-05
9.08686e-05
9.08702e-05
9.58547e-05
9.58378e-05
9.58548e-05
9.58377e-05
9.08427e-05
9.08861e-05
9.5862e-05
9.58343e-05
9.58621e-05
9.5834e-05
9.58576e-05
9.58739e-05
9.5858e-05
9.08542e-05
9.08538e-05
9.58656e-05
9.58682e-05
9.58658e-05
9.08728e-05
9.08663e-05
9.0882e-05
9.5854e-05
9.58369e-05
9.58538e-05
9.58373e-05
9.08442e-05
9.0912e-05
9.58612e-05
9.58335e-05
9.58611e-05
9.58333e-05
9.5857e-05
9.58734e-05
9.58572e-05
9.08408e-05
9.0891e-05
9.58648e-05
9.58674e-05
9.5865e-05
9.08859e-05
9.08802e-05
9.08651e-05
9.58528e-05
9.58357e-05
9.58521e-05
9.58358e-05
9.0874e-05
9.08944e-05
9.58602e-05
9.58319e-05
9.58597e-05
9.58317e-05
9.5856e-05
9.58718e-05
9.58554e-05
9.08628e-05
9.0892e-05
9.58637e-05
9.58654e-05
9.58629e-05
9.08639e-05
9.08797e-05
9.08176e-05
9.58521e-05
9.58355e-05
9.58518e-05
9.58347e-05
9.08958e-05
9.08157e-05
9.58598e-05
9.58313e-05
9.58593e-05
9.58308e-05
9.58553e-05
9.58704e-05
9.58545e-05
9.08819e-05
9.08481e-05
9.58628e-05
9.58641e-05
9.58618e-05
9.08215e-05
9.08478e-05
9.07868e-05
9.58532e-05
9.58363e-05
9.5852e-05
9.5834e-05
9.085e-05
9.07687e-05
9.58607e-05
9.58312e-05
9.58595e-05
9.58307e-05
9.58554e-05
9.58701e-05
9.58548e-05
9.08591e-05
9.08221e-05
9.58628e-05
9.58645e-05
9.58622e-05
9.07886e-05
9.07999e-05
9.08042e-05
9.58522e-05
9.5834e-05
9.58518e-05
9.5834e-05
9.07612e-05
9.08351e-05
9.58597e-05
9.58309e-05
9.58594e-05
9.58315e-05
9.58553e-05
9.5871e-05
9.58543e-05
9.08358e-05
9.08431e-05
9.58628e-05
9.58661e-05
9.5862e-05
9.07764e-05
9.07922e-05
9.08083e-05
9.58506e-05
9.58324e-05
9.58445e-05
9.58275e-05
9.07897e-05
9.08839e-05
9.58582e-05
9.58296e-05
9.5852e-05
9.58243e-05
9.58539e-05
9.58646e-05
9.58468e-05
9.08483e-05
9.08645e-05
9.58615e-05
9.58591e-05
9.58545e-05
9.07691e-05
9.08186e-05
9.08144e-05
9.58436e-05
9.58257e-05
9.58412e-05
9.58246e-05
9.08462e-05
9.08772e-05
9.5851e-05
9.58224e-05
9.58485e-05
9.58208e-05
9.58468e-05
9.58611e-05
9.5843e-05
9.08638e-05
9.08566e-05
9.58545e-05
9.58552e-05
9.58507e-05
9.07697e-05
9.08356e-05
9.0799e-05
9.58411e-05
9.58233e-05
9.58395e-05
9.5823e-05
9.08624e-05
9.08602e-05
9.58484e-05
9.58199e-05
9.58467e-05
9.58191e-05
9.58433e-05
9.58592e-05
9.58419e-05
9.08622e-05
9.08353e-05
9.5851e-05
9.58532e-05
9.58497e-05
9.07773e-05
9.08222e-05
9.07848e-05
9.58402e-05
9.5823e-05
9.58388e-05
9.58223e-05
9.08581e-05
9.085e-05
9.58473e-05
9.58194e-05
9.5846e-05
9.58185e-05
9.58424e-05
9.58583e-05
9.58416e-05
9.08489e-05
9.08162e-05
9.58502e-05
9.58523e-05
9.58494e-05
9.07819e-05
9.07927e-05
9.08027e-05
9.58393e-05
9.58224e-05
9.58388e-05
9.58222e-05
9.08512e-05
9.08534e-05
9.58465e-05
9.58189e-05
9.5846e-05
9.58183e-05
9.58419e-05
9.58582e-05
9.58415e-05
9.08311e-05
9.08206e-05
9.58496e-05
9.58521e-05
9.58493e-05
9.07864e-05
9.0799e-05
9.08444e-05
9.58388e-05
9.58221e-05
9.58393e-05
9.58224e-05
9.08533e-05
9.08573e-05
9.58461e-05
9.58184e-05
9.58465e-05
9.58186e-05
9.58415e-05
9.58585e-05
9.58417e-05
9.08293e-05
9.08468e-05
9.58493e-05
9.58525e-05
9.58495e-05
9.08038e-05
9.08411e-05
9.086e-05
9.58393e-05
9.58224e-05
9.58397e-05
9.58225e-05
9.08583e-05
9.08436e-05
9.58465e-05
9.58186e-05
9.58469e-05
9.58189e-05
9.58417e-05
9.58587e-05
9.58421e-05
9.08475e-05
9.08496e-05
9.58494e-05
9.58529e-05
9.58498e-05
9.08268e-05
9.08502e-05
9.08596e-05
9.584e-05
9.5823e-05
9.58401e-05
9.58229e-05
9.08485e-05
9.08429e-05
9.58472e-05
9.58193e-05
9.58473e-05
9.58192e-05
9.58424e-05
9.58593e-05
9.58425e-05
9.08494e-05
9.08469e-05
9.58501e-05
9.58533e-05
9.58503e-05
9.0843e-05
9.08488e-05
9.08647e-05
9.58409e-05
9.58239e-05
9.5841e-05
9.5824e-05
9.08435e-05
9.08645e-05
9.58482e-05
9.58201e-05
9.58483e-05
9.58202e-05
9.58433e-05
9.58604e-05
9.58436e-05
9.08447e-05
9.08571e-05
9.58511e-05
9.58544e-05
9.58513e-05
9.08565e-05
9.08549e-05
9.08553e-05
9.58423e-05
9.58253e-05
9.58424e-05
9.58254e-05
9.08629e-05
9.08495e-05
9.58496e-05
9.58215e-05
9.58497e-05
9.58216e-05
9.58448e-05
9.58619e-05
9.5845e-05
9.08545e-05
9.08442e-05
9.58525e-05
9.58558e-05
9.58527e-05
9.08576e-05
9.08513e-05
9.0855e-05
9.58445e-05
9.58276e-05
9.58448e-05
9.58276e-05
9.08585e-05
9.08228e-05
9.58519e-05
9.58238e-05
9.58522e-05
9.5824e-05
9.58469e-05
9.58642e-05
9.58476e-05
9.0847e-05
9.08414e-05
9.58546e-05
9.58582e-05
9.58553e-05
9.08678e-05
9.08503e-05
9.08684e-05
9.58478e-05
9.5831e-05
9.58493e-05
9.5832e-05
9.08387e-05
9.08234e-05
9.58552e-05
9.58271e-05
9.58566e-05
9.58285e-05
9.58504e-05
9.58686e-05
9.58521e-05
9.08422e-05
9.08624e-05
9.58581e-05
9.58627e-05
9.58597e-05
9.08611e-05
9.08633e-05
9.08625e-05
9.58536e-05
9.58367e-05
9.58568e-05
9.58394e-05
9.0841e-05
9.08267e-05
9.5861e-05
9.58328e-05
9.58642e-05
9.5836e-05
9.58565e-05
9.5876e-05
9.58591e-05
9.08583e-05
9.08658e-05
9.58641e-05
9.58701e-05
9.58667e-05
9.08254e-05
9.08683e-05
9.08333e-05
9.58632e-05
9.5846e-05
9.58691e-05
9.58519e-05
9.08462e-05
9.08214e-05
9.58705e-05
9.58423e-05
9.58765e-05
9.58486e-05
9.58657e-05
9.58886e-05
9.58716e-05
9.08676e-05
9.08499e-05
9.58733e-05
9.58827e-05
9.58792e-05
9.08249e-05
9.08514e-05
9.08305e-05
9.58788e-05
9.58616e-05
9.58907e-05
9.58743e-05
9.08414e-05
9.08421e-05
9.58862e-05
9.58581e-05
9.5898e-05
9.58704e-05
9.5881e-05
9.59107e-05
9.58936e-05
9.08626e-05
9.08379e-05
9.58886e-05
9.59044e-05
9.59018e-05
9.08485e-05
9.08393e-05
9.08929e-05
9.59043e-05
9.58883e-05
9.59355e-05
9.59207e-05
9.08547e-05
9.08932e-05
9.59119e-05
9.58847e-05
9.59442e-05
9.59165e-05
9.59071e-05
9.59555e-05
9.59376e-05
9.08552e-05
9.08686e-05
9.59155e-05
9.59497e-05
9.59481e-05
9.08629e-05
9.08964e-05
9.0896e-05
9.58999e-05
9.58852e-05
9.65992e-05
9.65846e-05
9.09064e-05
9.08993e-05
9.59086e-05
9.58803e-05
9.6607e-05
9.65815e-05
9.5901e-05
9.66181e-05
9.66004e-05
9.0885e-05
9.08896e-05
9.59121e-05
9.66136e-05
9.66103e-05
9.08678e-05
9.09079e-05
9.65064e-05
9.64924e-05
9.09128e-05
9.65135e-05
9.64897e-05
0.000127516
0.000127518
0.000127521
9.65072e-05
9.09036e-05
9.65162e-05
7.80403e-05
4.95248e-05
7.8028e-05
4.95252e-05
2.35451e-05
2.35459e-05
7.80485e-05
4.95216e-05
7.80362e-05
4.9522e-05
0.000124758
0.000124751
0.000124759
0.00012476
0.000124759
0.000124751
0.00012476
8.51766e-05
7.57713e-05
0.0001081
9.5857e-05
8.51818e-05
7.57839e-05
0.000108099
2.3543e-05
2.35439e-05
8.51797e-05
0.000108105
7.57761e-05
9.58532e-05
8.51828e-05
0.000108105
7.57901e-05
6.54943e-05
6.54948e-05
9.07193e-05
6.55001e-05
6.55006e-05
7.80395e-05
4.95247e-05
7.8026e-05
4.95251e-05
2.3545e-05
2.35458e-05
7.80501e-05
4.95215e-05
7.80381e-05
4.95219e-05
0.000124759
0.000124751
0.000124759
0.00012476
0.000124759
0.000124751
0.000124759
8.51774e-05
7.57745e-05
0.0001081
9.58587e-05
8.51742e-05
7.57834e-05
0.0001081
2.35429e-05
2.35438e-05
8.5182e-05
0.000108106
7.57781e-05
9.58546e-05
8.51757e-05
0.000108106
7.57907e-05
6.54947e-05
6.54952e-05
9.07656e-05
6.54999e-05
6.55006e-05
7.80418e-05
4.95246e-05
7.8029e-05
4.9525e-05
2.35449e-05
2.35458e-05
7.80518e-05
4.95214e-05
7.80396e-05
4.95218e-05
0.000124759
0.000124751
0.000124759
0.000124759
0.000124759
0.000124751
0.000124759
8.51773e-05
7.57769e-05
0.000108101
9.5862e-05
8.51725e-05
7.57842e-05
0.000108102
2.35428e-05
2.35438e-05
8.51806e-05
0.000108108
7.57791e-05
9.58578e-05
8.51728e-05
0.000108108
7.57912e-05
6.54945e-05
6.54952e-05
9.08569e-05
6.54998e-05
6.55004e-05
7.80428e-05
4.95246e-05
7.80307e-05
4.95251e-05
2.35449e-05
2.35458e-05
7.8052e-05
4.95214e-05
7.80405e-05
4.95219e-05
0.000124759
0.000124751
0.000124759
0.000124759
0.000124759
0.000124751
0.000124759
8.51755e-05
7.57763e-05
0.000108104
9.58643e-05
8.51739e-05
7.57843e-05
0.000108105
2.35428e-05
2.35438e-05
8.51779e-05
0.00010811
7.57801e-05
9.58599e-05
8.51747e-05
0.000108111
7.57909e-05
6.54948e-05
6.54953e-05
9.09045e-05
6.55002e-05
6.55008e-05
7.80413e-05
4.95247e-05
7.80303e-05
4.95252e-05
2.35449e-05
2.35458e-05
7.805e-05
4.95215e-05
7.80394e-05
4.9522e-05
0.000124759
0.000124751
0.000124759
0.00012476
0.000124759
0.000124751
0.000124759
8.51595e-05
7.57798e-05
0.000108106
9.5866e-05
8.51704e-05
7.57935e-05
0.000108106
2.35428e-05
2.35438e-05
8.51698e-05
0.000108112
7.57799e-05
9.58613e-05
8.51775e-05
0.000108112
7.57941e-05
6.54957e-05
6.54962e-05
9.08845e-05
6.55015e-05
6.55021e-05
7.80423e-05
4.95247e-05
7.80299e-05
4.95252e-05
2.35449e-05
2.35458e-05
7.80507e-05
4.95215e-05
7.80386e-05
4.9522e-05
0.00012476
0.000124751
0.00012476
0.00012476
0.00012476
0.000124751
0.000124759
8.51608e-05
7.57763e-05
0.000108105
9.58663e-05
8.51565e-05
7.57873e-05
0.000108105
2.35428e-05
2.35438e-05
8.516e-05
0.000108111
7.5784e-05
9.58616e-05
8.51568e-05
0.000108111
7.5793e-05
6.54965e-05
6.54972e-05
9.0821e-05
6.55019e-05
6.55026e-05
7.80426e-05
4.95247e-05
7.80313e-05
4.95252e-05
2.35449e-05
2.35458e-05
7.80507e-05
4.95217e-05
7.80396e-05
4.95221e-05
0.00012476
0.000124751
0.00012476
0.00012476
0.00012476
0.000124751
0.00012476
8.51553e-05
7.57799e-05
0.000108107
9.58666e-05
8.51697e-05
7.57895e-05
0.000108107
2.35428e-05
2.35438e-05
8.51639e-05
0.000108113
7.57829e-05
9.58617e-05
8.51746e-05
0.000108113
7.57955e-05
6.54972e-05
6.54979e-05
9.07482e-05
6.55027e-05
6.55034e-05
7.80443e-05
4.95248e-05
7.80318e-05
4.95252e-05
2.35451e-05
2.3546e-05
7.80517e-05
4.95217e-05
7.80399e-05
4.95222e-05
0.00012476
0.000124751
0.00012476
0.00012476
0.000124759
0.000124751
0.00012476
8.51557e-05
7.57763e-05
0.000108106
9.58669e-05
8.51695e-05
7.5787e-05
0.000108106
2.35429e-05
2.35438e-05
8.51684e-05
0.000108112
7.5782e-05
9.58622e-05
8.51637e-05
0.000108112
7.57953e-05
6.54978e-05
6.54984e-05
9.07389e-05
6.55034e-05
6.5504e-05
7.80454e-05
4.95248e-05
7.80336e-05
4.95253e-05
2.35452e-05
2.35461e-05
7.8053e-05
4.95217e-05
7.80416e-05
4.95222e-05
0.000124759
0.000124751
0.00012476
0.000124759
0.00012476
0.000124751
0.00012476
8.51732e-05
7.57806e-05
0.000108106
9.58672e-05
8.51689e-05
7.57872e-05
0.000108107
2.35429e-05
2.35439e-05
8.51783e-05
0.000108112
7.57833e-05
9.58624e-05
8.51663e-05
0.000108113
7.57949e-05
6.54984e-05
6.54989e-05
9.07967e-05
6.55039e-05
6.55045e-05
7.80466e-05
4.95249e-05
7.8034e-05
4.95254e-05
2.35452e-05
2.35461e-05
7.80542e-05
4.95218e-05
7.8042e-05
4.95223e-05
0.00012476
0.000124752
0.00012476
0.00012476
0.000124761
0.000124752
0.00012476
8.51647e-05
7.57829e-05
0.000108107
9.58712e-05
8.51566e-05
7.57899e-05
0.000108108
2.35429e-05
2.35439e-05
8.51682e-05
0.000108113
7.57842e-05
9.58657e-05
8.51534e-05
0.000108113
7.57973e-05
6.54991e-05
6.54997e-05
9.08825e-05
6.55045e-05
6.55053e-05
7.8047e-05
4.9525e-05
7.80348e-05
4.95254e-05
2.35452e-05
2.35461e-05
7.80544e-05
4.95218e-05
7.80429e-05
4.95223e-05
0.000124761
0.000124752
0.000124761
0.00012476
0.000124761
0.000124752
0.00012476
8.51626e-05
7.57822e-05
0.000108106
9.58726e-05
8.51711e-05
7.57909e-05
0.000108106
2.3543e-05
2.35439e-05
8.51648e-05
0.000108112
7.57844e-05
9.58674e-05
8.51701e-05
0.000108112
7.57967e-05
6.54993e-05
6.55e-05
9.08939e-05
6.55048e-05
6.55055e-05
7.80473e-05
4.9525e-05
7.80358e-05
4.95255e-05
2.35452e-05
2.35461e-05
7.80548e-05
4.95219e-05
7.80437e-05
4.95223e-05
0.000124761
0.000124752
0.00012476
0.00012476
0.000124761
0.000124752
0.00012476
8.51716e-05
7.57831e-05
0.000108107
9.58731e-05
8.51727e-05
7.57915e-05
0.000108108
2.3543e-05
2.35439e-05
8.5171e-05
0.000108112
7.57855e-05
9.58679e-05
8.51728e-05
0.000108112
7.57971e-05
6.54996e-05
6.55003e-05
9.08382e-05
6.55049e-05
6.55056e-05
7.80478e-05
4.95251e-05
7.80363e-05
4.95255e-05
2.35453e-05
2.35461e-05
7.80552e-05
4.95219e-05
7.80441e-05
4.95224e-05
0.000124761
0.000124752
0.00012476
0.00012476
0.000124761
0.000124752
0.00012476
8.51751e-05
7.5783e-05
0.000108106
9.58726e-05
8.51688e-05
7.5793e-05
0.000108106
2.3543e-05
2.3544e-05
8.51758e-05
0.000108112
7.57858e-05
9.58678e-05
8.51702e-05
0.000108113
7.57979e-05
6.54997e-05
6.55004e-05
9.0777e-05
6.5505e-05
6.55058e-05
7.80478e-05
4.95251e-05
7.80364e-05
4.95255e-05
2.35453e-05
2.35462e-05
7.80554e-05
4.9522e-05
7.80442e-05
4.95224e-05
0.000124761
0.000124752
0.000124761
0.00012476
0.00012476
0.000124751
0.00012476
8.51748e-05
7.57824e-05
0.000108106
9.58723e-05
8.51681e-05
7.57935e-05
0.000108106
2.3543e-05
2.3544e-05
8.51765e-05
0.000108112
7.57856e-05
9.58668e-05
8.51678e-05
0.000108112
7.57981e-05
6.54997e-05
6.55004e-05
9.08007e-05
6.55049e-05
6.55057e-05
7.80478e-05
4.95251e-05
7.80361e-05
4.95255e-05
2.35453e-05
2.35462e-05
7.80552e-05
4.9522e-05
7.8044e-05
4.95224e-05
0.00012476
0.000124751
0.00012476
0.000124759
0.00012476
0.000124751
0.000124759
8.51735e-05
7.57816e-05
0.000108106
9.58719e-05
8.51684e-05
7.57931e-05
0.000108106
2.3543e-05
2.3544e-05
8.51757e-05
0.000108112
7.57855e-05
9.58661e-05
8.51665e-05
0.000108112
7.5798e-05
6.54995e-05
6.55002e-05
9.08326e-05
6.55047e-05
6.55055e-05
7.80479e-05
4.95251e-05
7.8036e-05
4.95256e-05
2.35453e-05
2.35462e-05
7.80551e-05
4.9522e-05
7.80436e-05
4.95224e-05
0.00012476
0.000124751
0.000124759
0.000124759
0.00012476
0.000124751
0.000124759
8.51738e-05
7.57813e-05
0.000108106
9.58721e-05
8.51692e-05
7.5793e-05
0.000108106
2.3543e-05
2.3544e-05
8.51746e-05
0.000108112
7.57853e-05
9.58661e-05
8.51663e-05
0.000108112
7.57979e-05
6.54994e-05
6.55001e-05
9.08475e-05
6.55047e-05
6.55054e-05
7.80479e-05
4.95251e-05
7.8036e-05
4.95256e-05
2.35453e-05
2.35462e-05
7.80551e-05
4.9522e-05
7.80437e-05
4.95224e-05
0.00012476
0.000124751
0.000124759
0.000124759
0.00012476
0.000124751
0.000124759
8.51736e-05
7.5781e-05
0.000108106
9.58721e-05
8.51704e-05
7.57927e-05
0.000108106
2.3543e-05
2.3544e-05
8.5174e-05
0.000108112
7.57852e-05
9.58663e-05
8.51665e-05
0.000108112
7.57979e-05
6.54993e-05
6.55e-05
9.08388e-05
6.55045e-05
6.55054e-05
7.80476e-05
4.95251e-05
7.80358e-05
4.95256e-05
2.35453e-05
2.35462e-05
7.80549e-05
4.9522e-05
7.80435e-05
4.95224e-05
0.00012476
0.000124751
0.000124759
0.000124759
0.000124759
0.000124751
0.000124759
8.5173e-05
7.57808e-05
0.000108106
9.5872e-05
8.51712e-05
7.57922e-05
0.000108106
2.3543e-05
2.3544e-05
8.51738e-05
0.000108112
7.57851e-05
9.58665e-05
8.5167e-05
0.000108112
7.57978e-05
6.54991e-05
6.55e-05
9.08375e-05
6.55043e-05
6.55053e-05
7.80473e-05
4.95251e-05
7.80355e-05
4.95255e-05
2.35453e-05
2.35462e-05
7.80546e-05
4.9522e-05
7.80433e-05
4.95224e-05
0.00012476
0.000124751
0.000124759
0.000124759
0.00012476
0.000124751
0.000124759
8.51736e-05
7.57809e-05
0.000108106
9.5872e-05
8.51712e-05
7.57919e-05
0.000108106
2.35431e-05
2.3544e-05
8.51735e-05
0.000108112
7.5785e-05
9.58667e-05
8.51673e-05
0.000108112
7.57975e-05
6.5499e-05
6.54998e-05
9.08626e-05
6.55043e-05
6.55051e-05
7.80471e-05
4.95251e-05
7.80353e-05
4.95255e-05
2.35453e-05
2.35462e-05
7.80543e-05
4.9522e-05
7.8043e-05
4.95224e-05
0.00012476
0.000124751
0.00012476
0.000124759
0.00012476
0.000124751
0.00012476
8.51749e-05
7.57809e-05
0.000108106
9.58721e-05
8.51714e-05
7.57918e-05
0.000108106
2.35431e-05
2.3544e-05
8.51739e-05
0.000108112
7.57851e-05
9.5867e-05
8.5167e-05
0.000108112
7.57973e-05
6.54989e-05
6.54996e-05
9.08794e-05
6.55042e-05
6.55049e-05
7.80467e-05
4.95251e-05
7.80349e-05
4.95255e-05
2.35453e-05
2.35462e-05
7.80539e-05
4.95219e-05
7.80427e-05
4.95224e-05
0.00012476
0.000124751
0.00012476
0.00012476
0.00012476
0.000124751
0.00012476
8.51751e-05
7.5781e-05
0.000108106
9.58723e-05
8.51705e-05
7.5792e-05
0.000108107
2.3543e-05
2.3544e-05
8.51734e-05
0.000108113
7.5785e-05
9.58673e-05
8.5166e-05
0.000108113
7.57969e-05
6.54988e-05
6.54995e-05
9.08759e-05
6.5504e-05
6.55048e-05
7.80462e-05
4.95251e-05
7.80345e-05
4.95255e-05
2.35453e-05
2.35462e-05
7.80534e-05
4.95219e-05
7.80422e-05
4.95223e-05
0.00012476
0.000124751
0.00012476
0.00012476
0.00012476
0.000124751
0.00012476
8.51753e-05
7.57805e-05
0.000108107
9.58732e-05
8.51692e-05
7.57913e-05
0.000108107
2.3543e-05
2.3544e-05
8.5172e-05
0.000108113
7.57847e-05
9.58677e-05
8.51649e-05
0.000108113
7.57966e-05
6.54986e-05
6.54993e-05
9.08634e-05
6.55038e-05
6.55046e-05
7.80459e-05
4.9525e-05
7.80341e-05
4.95255e-05
2.35453e-05
2.35462e-05
7.80532e-05
4.95219e-05
7.80418e-05
4.95223e-05
0.000124761
0.000124752
0.000124761
0.00012476
0.000124761
0.000124752
0.000124761
8.51757e-05
7.57804e-05
0.000108107
9.58738e-05
8.51676e-05
7.57903e-05
0.000108108
2.3543e-05
2.3544e-05
8.51717e-05
0.000108113
7.57847e-05
9.58674e-05
8.51647e-05
0.000108113
7.57962e-05
6.54983e-05
6.54992e-05
9.08183e-05
6.55036e-05
6.55045e-05
7.80456e-05
4.9525e-05
7.80336e-05
4.95254e-05
2.35453e-05
2.35462e-05
7.80528e-05
4.95219e-05
7.80414e-05
4.95223e-05
0.000124761
0.000124753
0.000124761
0.000124761
0.000124762
0.000124752
0.000124761
8.51755e-05
7.57807e-05
0.000108107
9.5874e-05
8.51658e-05
7.579e-05
0.000108108
2.3543e-05
2.3544e-05
8.51714e-05
0.000108114
7.57845e-05
9.58678e-05
8.5164e-05
0.000108114
7.5796e-05
6.54982e-05
6.54992e-05
9.08105e-05
6.55035e-05
6.55044e-05
7.80452e-05
4.9525e-05
7.80335e-05
4.95254e-05
2.35453e-05
2.35462e-05
7.80525e-05
4.95219e-05
7.80413e-05
4.95223e-05
0.000124762
0.000124753
0.000124761
0.000124759
0.000124762
0.00012475
0.000124761
8.51742e-05
7.57803e-05
0.000108108
9.58739e-05
8.51652e-05
7.57897e-05
0.000108109
2.3543e-05
2.3544e-05
8.51699e-05
0.000108114
7.57841e-05
9.58684e-05
8.51636e-05
0.000108114
7.57954e-05
6.5498e-05
6.54988e-05
9.08128e-05
6.55032e-05
6.5504e-05
7.80448e-05
4.9525e-05
7.80328e-05
4.95255e-05
2.35453e-05
2.35462e-05
7.8052e-05
4.95219e-05
7.80406e-05
4.95223e-05
0.000124762
0.00012475
0.000124761
0.000124757
0.000124759
0.000124748
0.000124759
8.51708e-05
7.57795e-05
0.000108108
9.58729e-05
8.51645e-05
7.57891e-05
0.000108107
2.3543e-05
2.3544e-05
8.51663e-05
0.000108113
7.57835e-05
9.58674e-05
8.51628e-05
0.000108112
7.57947e-05
6.54977e-05
6.54986e-05
9.07801e-05
6.5503e-05
6.55039e-05
7.80453e-05
4.9525e-05
7.80331e-05
4.95255e-05
2.35453e-05
2.35462e-05
7.80526e-05
4.95219e-05
7.80409e-05
4.95223e-05
0.000124759
0.000124748
0.000124759
0.000124755
0.000124756
0.000124746
0.000124756
8.51695e-05
7.57789e-05
0.000108106
9.58709e-05
8.51645e-05
7.5788e-05
0.000108105
2.3543e-05
2.3544e-05
8.51641e-05
0.00010811
7.57829e-05
9.58651e-05
8.51626e-05
0.000108109
7.57943e-05
6.54977e-05
6.54986e-05
9.07808e-05
6.55032e-05
6.5504e-05
7.80465e-05
4.95251e-05
7.80341e-05
4.95255e-05
2.35453e-05
2.35461e-05
7.80539e-05
4.95219e-05
7.80419e-05
4.95224e-05
0.000124755
0.000124745
0.000124754
0.000124752
0.000124752
0.000124742
0.000124751
8.51715e-05
7.57803e-05
0.000108102
9.587e-05
8.51661e-05
7.57906e-05
0.000108102
2.3543e-05
2.3544e-05
8.51646e-05
0.000108107
7.57838e-05
9.58639e-05
8.5164e-05
0.000108106
7.57967e-05
6.54984e-05
6.54992e-05
9.08127e-05
6.5504e-05
6.55048e-05
7.80477e-05
4.95251e-05
7.80356e-05
4.95255e-05
2.35453e-05
2.35461e-05
7.8055e-05
4.95219e-05
7.80433e-05
4.95223e-05
0.000124751
0.000124742
0.000124751
0.000124752
0.000124751
0.000124742
0.000124751
8.51757e-05
7.5783e-05
0.0001081
9.58709e-05
8.51709e-05
7.57917e-05
0.0001081
2.3543e-05
2.35439e-05
8.51677e-05
0.000108104
7.57859e-05
9.58638e-05
8.51688e-05
0.000108105
7.57983e-05
6.54992e-05
6.55e-05
9.08585e-05
6.55047e-05
6.55055e-05
7.80476e-05
4.9525e-05
7.80359e-05
4.95254e-05
2.35452e-05
2.35461e-05
7.80549e-05
4.95219e-05
7.80436e-05
4.95223e-05
0.000124752
0.000124743
0.000124753
0.000124757
0.000124756
0.000124748
0.000124755
8.5175e-05
7.57831e-05
0.000108102
9.58725e-05
8.51732e-05
7.57911e-05
0.000108104
2.3543e-05
2.35439e-05
8.51665e-05
0.000108107
7.57861e-05
9.58657e-05
8.51706e-05
0.000108109
7.5798e-05
6.54994e-05
6.55002e-05
9.08836e-05
6.55046e-05
6.55054e-05
7.80473e-05
4.9525e-05
7.80355e-05
4.95254e-05
2.35452e-05
2.35461e-05
7.80545e-05
4.95218e-05
7.80433e-05
4.95223e-05
0.000124754
0.000124745
0.000124753
0.000124745
0.000124745
0.000124736
0.000124744
8.5173e-05
7.57826e-05
0.000108101
9.58672e-05
8.51715e-05
7.57909e-05
0.000108098
2.3543e-05
2.35439e-05
8.51648e-05
0.000108106
7.57854e-05
9.58612e-05
8.51684e-05
0.000108103
7.57972e-05
6.54992e-05
6.55e-05
9.08887e-05
6.55044e-05
6.55052e-05
7.80472e-05
4.9525e-05
7.80354e-05
4.95254e-05
2.35452e-05
2.35461e-05
7.80545e-05
4.95218e-05
7.80431e-05
4.95223e-05
0.000124744
0.000124735
0.000124743
0.000124741
0.000124742
0.000124733
0.000124741
8.51725e-05
7.57812e-05
0.000108093
9.58612e-05
8.51697e-05
7.57914e-05
0.000108092
2.3543e-05
2.35439e-05
8.51647e-05
0.000108098
7.57849e-05
9.58554e-05
8.51663e-05
0.000108097
7.57969e-05
6.5499e-05
6.54998e-05
9.08821e-05
6.55043e-05
6.55051e-05
7.80472e-05
4.9525e-05
7.80354e-05
4.95254e-05
2.35452e-05
2.35461e-05
7.80545e-05
4.95218e-05
7.80432e-05
4.95223e-05
0.000124742
0.000124733
0.000124741
0.000124741
0.000124742
0.000124733
0.000124741
8.51725e-05
7.57808e-05
0.00010809
9.5859e-05
8.51681e-05
7.57915e-05
0.00010809
2.3543e-05
2.35439e-05
8.51655e-05
0.000108095
7.5785e-05
9.58533e-05
8.51641e-05
0.000108095
7.57969e-05
6.54991e-05
6.54998e-05
9.08729e-05
6.55044e-05
6.55051e-05
7.80472e-05
4.9525e-05
7.80354e-05
4.95254e-05
2.35452e-05
2.35461e-05
7.80546e-05
4.95218e-05
7.80432e-05
4.95223e-05
0.000124742
0.000124733
0.000124741
0.000124742