/*--------------------------------*- C++ -*----------------------------------*\
| =========                 |                                                 |
| \\      /  F ield         | OpenFOAM: The Open Source CFD Toolbox           |
|  \\    /   O peration     | Version:  v2012                                 |
|   \\  /    A nd           | Website:  www.openfoam.com                      |
|    \\/     M anipulation  |                                                 |
\*---------------------------------------------------------------------------*/
FoamFile
{
    version     2.0;
    format      ascii;
    class       volScalarField;
    location    "125";
    object      p;
}
// * * * * * * * * * * * * * * * * * * * * * * * * * * * * * * * * * * * * * //

dimensions      [0 2 -2 0 0 0 0];


internalField   nonuniform List<scalar> 
85864
(
0.00167944
0.00167938
0.00167938
0.0016815
0.00164365
0.00164359
0.00164359
0.00164571
0.00160786
0.0016078
0.0016078
0.00160992
0.00157207
0.00157201
0.00157201
0.00157413
0.00153628
0.00153622
0.00153622
0.00153834
0.00150049
0.00150043
0.00150043
0.00150255
0.00146469
0.00146464
0.00146464
0.00146676
0.0014289
0.00142885
0.00142885
0.00143097
0.00139312
0.00139306
0.00139306
0.00139518
0.00135733
0.00135727
0.00135727
0.00135939
0.00132154
0.00132149
0.00132149
0.00132361
0.00128576
0.0012857
0.0012857
0.00128782
0.00124997
0.00124992
0.00124992
0.00125204
0.00121419
0.00121413
0.00121413
0.00121625
0.0011784
0.00117835
0.00117835
0.00118047
0.00114262
0.00114256
0.00114256
0.00114468
0.00110683
0.00110677
0.00110677
0.00110889
0.00107104
0.00107099
0.00107099
0.00107311
0.00103525
0.0010352
0.0010352
0.00103732
0.000999468
0.000999412
0.000999412
0.00100153
0.000963682
0.000963626
0.000963626
0.000965748
0.000927896
0.000927841
0.000927841
0.000929963
0.000892111
0.000892056
0.000892056
0.000894177
0.000856326
0.000856271
0.000856271
0.000858393
0.000820541
0.000820486
0.000820486
0.000822607
0.000784755
0.000784699
0.000784699
0.00078682
0.000748967
0.000748911
0.000748911
0.000751033
0.000713178
0.000713122
0.000713122
0.000715244
0.000677388
0.000677334
0.000677333
0.000679454
0.0006416
0.000641545
0.000641545
0.000643666
0.000605812
0.000605756
0.000605756
0.000607878
0.000570024
0.000569968
0.000569969
0.00057209
0.000534236
0.00053418
0.000534181
0.000536302
0.000498447
0.000498392
0.000498392
0.000500514
0.000462658
0.000462603
0.000462603
0.000464724
0.000426869
0.000426814
0.000426815
0.000428935
0.000391082
0.000391026
0.000391026
0.000393147
0.000355293
0.000355238
0.000355238
0.000357357
0.000319505
0.000319449
0.000319449
0.000321567
0.000283715
0.00028366
0.00028366
0.000285776
0.000247925
0.00024787
0.00024787
0.000249983
0.000212131
0.000212079
0.000212079
0.000214186
0.000176334
0.000176284
0.000176284
0.000178383
0.000140529
0.000140485
0.000140484
0.00014257
0.000104708
0.000104675
0.000104674
0.000106741
6.88996e-05
6.88485e-05
6.88472e-05
7.08894e-05
3.39719e-05
3.35177e-05
3.3514e-05
3.5269e-05
4.51501e-06
3.55756e-06
3.55744e-06
3.9368e-06
0.0016815
0.00165042
0.00167938
0.00167938
0.00165254
0.00165254
0.0016815
0.00165042
0.00167938
0.00167938
0.00165254
0.00165254
0.00167938
0.00165254
0.00165254
0.0016815
0.00165042
0.00167938
0.00165254
0.00165254
0.00165042
0.00164571
0.00161463
0.00164359
0.00164359
0.00161675
0.00161675
0.00164571
0.00161463
0.00164359
0.00164359
0.00161675
0.00161675
0.00164359
0.00161675
0.00161675
0.00164571
0.00161463
0.00164359
0.00161675
0.00161675
0.00161463
0.00160992
0.00157884
0.0016078
0.0016078
0.00158096
0.00158096
0.00160992
0.00157884
0.0016078
0.0016078
0.00158096
0.00158096
0.0016078
0.00158096
0.00158096
0.00160992
0.00157884
0.0016078
0.00158096
0.00158096
0.00157884
0.00157413
0.00154305
0.00157201
0.00157201
0.00154517
0.00154517
0.00157413
0.00154305
0.00157201
0.00157201
0.00154517
0.00154517
0.00157201
0.00154517
0.00154517
0.00157413
0.00154305
0.00157201
0.00154517
0.00154517
0.00154305
0.00153834
0.00150726
0.00153622
0.00153622
0.00150938
0.00150938
0.00153834
0.00150726
0.00153622
0.00153622
0.00150938
0.00150938
0.00153622
0.00150938
0.00150938
0.00153834
0.00150726
0.00153622
0.00150938
0.00150938
0.00150726
0.00150255
0.00147147
0.00150043
0.00150043
0.00147359
0.00147359
0.00150255
0.00147147
0.00150043
0.00150043
0.00147359
0.00147359
0.00150043
0.00147359
0.00147359
0.00150255
0.00147147
0.00150043
0.00147359
0.00147359
0.00147147
0.00146676
0.00143568
0.00146464
0.00146464
0.0014378
0.0014378
0.00146676
0.00143568
0.00146464
0.00146464
0.0014378
0.0014378
0.00146464
0.0014378
0.0014378
0.00146676
0.00143568
0.00146464
0.0014378
0.0014378
0.00143568
0.00143097
0.00139989
0.00142885
0.00142885
0.00140201
0.00140201
0.00143097
0.00139989
0.00142885
0.00142885
0.00140201
0.00140201
0.00142885
0.00140201
0.00140201
0.00143097
0.00139989
0.00142885
0.00140201
0.00140201
0.00139989
0.00139518
0.0013641
0.00139306
0.00139306
0.00136622
0.00136622
0.00139518
0.0013641
0.00139306
0.00139306
0.00136622
0.00136622
0.00139306
0.00136622
0.00136622
0.00139518
0.0013641
0.00139306
0.00136622
0.00136622
0.0013641
0.00135939
0.00132831
0.00135727
0.00135727
0.00133043
0.00133043
0.00135939
0.00132831
0.00135727
0.00135727
0.00133043
0.00133043
0.00135727
0.00133043
0.00133043
0.00135939
0.00132831
0.00135727
0.00133043
0.00133043
0.00132831
0.00132361
0.00129253
0.00132149
0.00132149
0.00129465
0.00129465
0.00132361
0.00129253
0.00132149
0.00132149
0.00129465
0.00129465
0.00132149
0.00129465
0.00129465
0.00132361
0.00129253
0.00132149
0.00129465
0.00129465
0.00129253
0.00128782
0.00125674
0.0012857
0.0012857
0.00125886
0.00125886
0.00128782
0.00125674
0.0012857
0.0012857
0.00125886
0.00125886
0.0012857
0.00125886
0.00125886
0.00128782
0.00125674
0.0012857
0.00125886
0.00125886
0.00125674
0.00125204
0.00122096
0.00124992
0.00124992
0.00122308
0.00122308
0.00125204
0.00122096
0.00124992
0.00124992
0.00122308
0.00122308
0.00124992
0.00122308
0.00122308
0.00125204
0.00122096
0.00124992
0.00122308
0.00122308
0.00122096
0.00121625
0.00118517
0.00121413
0.00121413
0.00118729
0.00118729
0.00121625
0.00118517
0.00121413
0.00121413
0.00118729
0.00118729
0.00121413
0.00118729
0.00118729
0.00121625
0.00118517
0.00121413
0.00118729
0.00118729
0.00118517
0.00118047
0.00114939
0.00117835
0.00117835
0.00115151
0.00115151
0.00118047
0.00114939
0.00117835
0.00117835
0.00115151
0.00115151
0.00117835
0.00115151
0.00115151
0.00118047
0.00114939
0.00117835
0.00115151
0.00115151
0.00114939
0.00114468
0.0011136
0.00114256
0.00114256
0.00111572
0.00111572
0.00114468
0.0011136
0.00114256
0.00114256
0.00111572
0.00111572
0.00114256
0.00111572
0.00111572
0.00114468
0.0011136
0.00114256
0.00111572
0.00111572
0.0011136
0.00110889
0.00107781
0.00110677
0.00110677
0.00107993
0.00107993
0.00110889
0.00107781
0.00110677
0.00110677
0.00107993
0.00107993
0.00110677
0.00107993
0.00107993
0.00110889
0.00107781
0.00110677
0.00107993
0.00107993
0.00107781
0.00107311
0.00104203
0.00107099
0.00107099
0.00104415
0.00104415
0.00107311
0.00104203
0.00107099
0.00107099
0.00104415
0.00104415
0.00107099
0.00104415
0.00104415
0.00107311
0.00104203
0.00107099
0.00104415
0.00104415
0.00104203
0.00103732
0.00100624
0.0010352
0.0010352
0.00100836
0.00100836
0.00103732
0.00100624
0.0010352
0.0010352
0.00100836
0.00100836
0.0010352
0.00100836
0.00100836
0.00103732
0.00100624
0.0010352
0.00100836
0.00100836
0.00100624
0.00100153
0.000970453
0.000999413
0.000999412
0.000972574
0.000972574
0.00100153
0.000970453
0.000999412
0.000999412
0.000972574
0.000972574
0.000999413
0.000972574
0.000972573
0.00100153
0.000970453
0.000999413
0.000972574
0.000972573
0.000970453
0.000965747
0.000934668
0.000963627
0.000963626
0.000936788
0.000936788
0.000965747
0.000934668
0.000963626
0.000963626
0.000936788
0.000936788
0.000963627
0.000936788
0.000936788
0.000965747
0.000934667
0.000963627
0.000936788
0.000936787
0.000934668
0.000929962
0.000898882
0.000927841
0.000927841
0.000901003
0.000901003
0.000929962
0.000898883
0.000927841
0.000927841
0.000901003
0.000901003
0.000927842
0.000901003
0.000901002
0.000929962
0.000898882
0.000927841
0.000901003
0.000901002
0.000898882
0.000894177
0.000863097
0.000892056
0.000892056
0.000865218
0.000865218
0.000894177
0.000863098
0.000892056
0.000892056
0.000865218
0.000865218
0.000892056
0.000865218
0.000865218
0.000894177
0.000863098
0.000892056
0.000865218
0.000865218
0.000863098
0.000858392
0.000827312
0.000856271
0.000856271
0.000829433
0.000829433
0.000858392
0.000827313
0.000856271
0.000856271
0.000829433
0.000829433
0.000856271
0.000829433
0.000829433
0.000858392
0.000827312
0.000856272
0.000829433
0.000829432
0.000827312
0.000822607
0.000791526
0.000820486
0.000820486
0.000793647
0.000793646
0.000822607
0.000791526
0.000820486
0.000820486
0.000793647
0.000793647
0.000820486
0.000793646
0.000793646
0.000822606
0.000791526
0.000820486
0.000793647
0.000793646
0.000791526
0.00078682
0.000755739
0.0007847
0.000784699
0.00075786
0.000757859
0.00078682
0.000755739
0.000784699
0.000784699
0.00075786
0.000757859
0.000784699
0.000757859
0.00075786
0.00078682
0.000755739
0.000784699
0.000757859
0.000757859
0.000755739
0.000751033
0.00071995
0.000748912
0.000748911
0.000722071
0.000722071
0.000751032
0.00071995
0.000748912
0.000748912
0.000722071
0.000722071
0.000748912
0.000722071
0.000722071
0.000751033
0.00071995
0.000748912
0.000722071
0.000722071
0.00071995
0.000715243
0.00068416
0.000713123
0.000713122
0.000686281
0.000686281
0.000715243
0.000684161
0.000713122
0.000713122
0.000686281
0.000686281
0.000713123
0.000686281
0.000686281
0.000715243
0.00068416
0.000713123
0.000686281
0.000686281
0.000684161
0.000679454
0.000648372
0.000677333
0.000677333
0.000650492
0.000650492
0.000679454
0.000648372
0.000677333
0.000677333
0.000650492
0.000650492
0.000677334
0.000650492
0.000650492
0.000679454
0.000648372
0.000677334
0.000650492
0.000650492
0.000648372
0.000643666
0.000612584
0.000641545
0.000641545
0.000614704
0.000614703
0.000643666
0.000612584
0.000641545
0.000641545
0.000614704
0.000614704
0.000641545
0.000614703
0.000614704
0.000643666
0.000612583
0.000641545
0.000614704
0.000614704
0.000612584
0.000607878
0.000576796
0.000605757
0.000605756
0.000578916
0.000578916
0.000607878
0.000576795
0.000605757
0.000605757
0.000578916
0.000578916
0.000605757
0.000578916
0.000578916
0.000607877
0.000576796
0.000605757
0.000578916
0.000578916
0.000576796
0.00057209
0.000541008
0.000569969
0.000569968
0.000543128
0.000543128
0.000572089
0.000541008
0.000569969
0.000569969
0.000543128
0.000543128
0.00056997
0.000543128
0.000543128
0.000572089
0.000541008
0.000569969
0.000543128
0.000543128
0.000541008
0.000536302
0.00050522
0.000534181
0.00053418
0.00050734
0.00050734
0.000536301
0.00050522
0.000534181
0.000534181
0.00050734
0.00050734
0.000534182
0.00050734
0.000507339
0.000536301
0.000505219
0.000534181
0.00050734
0.000507339
0.00050522
0.000500513
0.000469431
0.000498393
0.000498392
0.000471551
0.000471551
0.000500513
0.00046943
0.000498393
0.000498392
0.00047155
0.000471551
0.000498393
0.000471551
0.00047155
0.000500513
0.00046943
0.000498393
0.000471551
0.00047155
0.00046943
0.000464724
0.000433641
0.000462604
0.000462603
0.000435761
0.000435761
0.000464723
0.000433641
0.000462603
0.000462603
0.000435761
0.000435762
0.000462604
0.000435761
0.000435761
0.000464724
0.000433641
0.000462603
0.000435762
0.000435761
0.000433642
0.000428935
0.000397854
0.000426815
0.000426814
0.000399973
0.000399974
0.000428934
0.000397854
0.000426814
0.000426815
0.000399973
0.000399974
0.000426815
0.000399974
0.000399973
0.000428935
0.000397853
0.000426815
0.000399974
0.000399973
0.000397854
0.000393146
0.000362066
0.000391027
0.000391026
0.000364185
0.000364186
0.000393146
0.000362066
0.000391026
0.000391026
0.000364185
0.000364185
0.000391027
0.000364185
0.000364184
0.000393146
0.000362065
0.000391027
0.000364185
0.000364184
0.000362065
0.000357357
0.000326277
0.000355238
0.000355239
0.000328396
0.000328396
0.000357357
0.000326277
0.000355238
0.000355238
0.000328396
0.000328396
0.000355238
0.000328396
0.000328396
0.000357357
0.000326277
0.000355238
0.000328396
0.000328395
0.000326277
0.000321567
0.000290488
0.000319449
0.000319449
0.000292606
0.000292606
0.000321567
0.000290488
0.000319449
0.000319449
0.000292606
0.000292607
0.000319449
0.000292606
0.000292606
0.000321567
0.000290488
0.000319449
0.000292606
0.000292606
0.000290488
0.000285775
0.000254699
0.00028366
0.00028366
0.000256816
0.000256816
0.000285775
0.000254699
0.00028366
0.00028366
0.000256816
0.000256816
0.00028366
0.000256816
0.000256816
0.000285776
0.0002547
0.00028366
0.000256816
0.000256816
0.0002547
0.000249982
0.000218909
0.00024787
0.00024787
0.000221024
0.000221024
0.000249982
0.00021891
0.00024787
0.00024787
0.000221023
0.000221024
0.00024787
0.000221024
0.000221024
0.000249983
0.000218909
0.00024787
0.000221024
0.000221024
0.000218909
0.000214185
0.000183117
0.000212079
0.000212079
0.000185229
0.000185228
0.000214186
0.000183118
0.000212078
0.000212079
0.000185228
0.000185228
0.000212079
0.000185229
0.000185228
0.000214186
0.000183117
0.000212078
0.000185228
0.000185228
0.000183117
0.000178383
0.000147321
0.000176284
0.000176284
0.000149428
0.000149428
0.000178383
0.000147322
0.000176284
0.000176284
0.000149428
0.000149428
0.000176284
0.000149428
0.000149428
0.000178382
0.000147321
0.000176284
0.000149428
0.000149428
0.000147321
0.00014257
0.000111517
0.000140485
0.000140485
0.000113618
0.000113618
0.00014257
0.000111517
0.000140484
0.000140484
0.000113618
0.000113618
0.000140485
0.000113618
0.000113617
0.00014257
0.000111516
0.000140485
0.000113617
0.000113617
0.000111517
0.000106741
7.56962e-05
0.000104675
0.000104675
7.77895e-05
7.77896e-05
0.000106741
7.56969e-05
0.000104675
0.000104675
7.77888e-05
7.77892e-05
0.000104675
7.77895e-05
7.77887e-05
0.000106741
7.56959e-05
0.000104675
7.77892e-05
7.77884e-05
7.56959e-05
7.08899e-05
4.0013e-05
6.88484e-05
6.88486e-05
4.21295e-05
4.21304e-05
7.08899e-05
4.00138e-05
6.88474e-05
6.88472e-05
4.21282e-05
4.21264e-05
6.88478e-05
4.21292e-05
4.21254e-05
7.08895e-05
4.00101e-05
6.88471e-05
4.21261e-05
4.21248e-05
4.00099e-05
3.52725e-05
7.30506e-06
3.35186e-05
3.35194e-05
9.89165e-06
9.8906e-06
3.52728e-05
7.30399e-06
3.35176e-05
3.35147e-05
9.89015e-06
9.8858e-06
3.35136e-05
9.88858e-06
9.88389e-06
3.52689e-05
7.30056e-06
3.35137e-05
9.88688e-06
9.88578e-06
7.29932e-06
3.94048e-06
3.56129e-06
3.55879e-06
3.94008e-06
3.55771e-06
3.55551e-06
4.51413e-06
4.51249e-06
4.51201e-06
3.55579e-06
3.93747e-06
3.55577e-06
0.00166824
0.00168162
0.00168162
0.00166823
0.00168162
0.00166824
0.00166824
0.00168162
0.00168162
0.00166823
0.00167944
0.00167944
0.00167944
0.00165259
0.00165259
0.00165259
0.00165259
0.00166831
0.00168158
0.00167939
0.00167043
0.00168156
0.00166828
0.00167045
0.00168162
0.00166824
0.00166831
0.00167939
0.00168158
0.00167043
0.00168156
0.00167045
0.00166828
0.00168163
0.00168163
0.00166831
0.00166823
0.00166823
0.00163245
0.00164583
0.00164583
0.00163245
0.00164583
0.00163245
0.00163245
0.00164583
0.00164583
0.00163245
0.00164365
0.00164365
0.00164365
0.0016168
0.0016168
0.0016168
0.0016168
0.00163252
0.00164579
0.00164361
0.00163464
0.00164577
0.00163249
0.00163466
0.00164583
0.00163245
0.00163252
0.00164361
0.00164579
0.00163464
0.00164577
0.00163466
0.00163249
0.00164584
0.00164584
0.00163252
0.00163245
0.00163245
0.00159666
0.00161005
0.00161004
0.00159666
0.00161004
0.00159666
0.00159666
0.00161005
0.00161004
0.00159666
0.00160786
0.00160786
0.00160786
0.00158101
0.00158101
0.00158101
0.00158101
0.00159674
0.00161
0.00160782
0.00159885
0.00160998
0.0015967
0.00159887
0.00161004
0.00159666
0.00159674
0.00160782
0.00161
0.00159885
0.00160998
0.00159887
0.0015967
0.00161005
0.00161005
0.00159673
0.00159666
0.00159666
0.00156087
0.00157426
0.00157425
0.00156087
0.00157425
0.00156087
0.00156087
0.00157426
0.00157425
0.00156087
0.00157207
0.00157207
0.00157207
0.00154522
0.00154522
0.00154522
0.00154522
0.00156095
0.00157421
0.00157203
0.00156307
0.00157419
0.00156091
0.00156308
0.00157425
0.00156087
0.00156095
0.00157203
0.00157421
0.00156307
0.00157419
0.00156308
0.00156091
0.00157426
0.00157426
0.00156094
0.00156087
0.00156087
0.00152508
0.00153846
0.00153846
0.00152507
0.00153846
0.00152508
0.00152508
0.00153846
0.00153846
0.00152507
0.00153628
0.00153628
0.00153628
0.00150943
0.00150943
0.00150943
0.00150943
0.00152515
0.00153842
0.00153624
0.00152727
0.0015384
0.00152512
0.00152729
0.00153846
0.00152508
0.00152515
0.00153624
0.00153842
0.00152727
0.0015384
0.00152729
0.00152512
0.00153847
0.00153847
0.00152515
0.00152507
0.00152507
0.00148929
0.00150267
0.00150267
0.00148928
0.00150267
0.00148929
0.00148929
0.00150267
0.00150267
0.00148928
0.00150049
0.00150049
0.00150049
0.00147364
0.00147364
0.00147364
0.00147364
0.00148936
0.00150263
0.00150044
0.00149148
0.00150261
0.00148933
0.0014915
0.00150267
0.00148929
0.00148936
0.00150045
0.00150263
0.00149148
0.00150261
0.0014915
0.00148933
0.00150268
0.00150268
0.00148936
0.00148928
0.00148928
0.0014535
0.00146688
0.00146688
0.00145349
0.00146688
0.00145349
0.0014535
0.00146688
0.00146688
0.00145349
0.00146469
0.00146469
0.00146469
0.00143785
0.00143785
0.00143785
0.00143785
0.00145357
0.00146684
0.00146465
0.00145569
0.00146682
0.00145353
0.00145571
0.00146688
0.00145349
0.00145357
0.00146465
0.00146684
0.00145569
0.00146682
0.00145571
0.00145353
0.00146689
0.00146689
0.00145357
0.00145349
0.00145349
0.00141771
0.00143109
0.00143109
0.0014177
0.0014311
0.00141771
0.00141771
0.00143109
0.00143109
0.0014177
0.0014289
0.0014289
0.0014289
0.00140206
0.00140206
0.00140206
0.00140206
0.00141778
0.00143105
0.00142886
0.0014199
0.00143103
0.00141775
0.00141992
0.00143109
0.00141771
0.00141778
0.00142886
0.00143105
0.0014199
0.00143103
0.00141992
0.00141775
0.0014311
0.0014311
0.00141778
0.0014177
0.0014177
0.00138192
0.0013953
0.0013953
0.00138192
0.0013953
0.00138192
0.00138192
0.0013953
0.0013953
0.00138192
0.00139312
0.00139312
0.00139312
0.00136628
0.00136628
0.00136628
0.00136628
0.00138199
0.00139526
0.00139308
0.00138411
0.00139524
0.00138196
0.00138413
0.0013953
0.00138192
0.00138199
0.00139308
0.00139526
0.00138411
0.00139524
0.00138413
0.00138196
0.00139531
0.00139531
0.00138199
0.00138192
0.00138192
0.00134613
0.00135952
0.00135951
0.00134613
0.00135952
0.00134613
0.00134613
0.00135952
0.00135951
0.00134613
0.00135733
0.00135733
0.00135733
0.00133049
0.00133049
0.00133049
0.00133049
0.00134621
0.00135947
0.00135729
0.00134833
0.00135945
0.00134617
0.00134834
0.00135952
0.00134613
0.00134621
0.00135729
0.00135948
0.00134833
0.00135945
0.00134834
0.00134617
0.00135952
0.00135952
0.00134621
0.00134613
0.00134613
0.00131035
0.00132373
0.00132373
0.00131034
0.00132373
0.00131034
0.00131035
0.00132373
0.00132373
0.00131034
0.00132154
0.00132154
0.00132154
0.0012947
0.0012947
0.0012947
0.0012947
0.00131042
0.00132369
0.0013215
0.00131254
0.00132367
0.00131038
0.00131256
0.00132373
0.00131034
0.00131042
0.0013215
0.00132369
0.00131254
0.00132367
0.00131256
0.00131038
0.00132374
0.00132374
0.00131042
0.00131034
0.00131034
0.00127456
0.00128794
0.00128794
0.00127456
0.00128794
0.00127456
0.00127456
0.00128794
0.00128794
0.00127456
0.00128576
0.00128576
0.00128576
0.00125892
0.00125892
0.00125892
0.00125892
0.00127464
0.0012879
0.00128572
0.00127676
0.00128788
0.0012746
0.00127677
0.00128794
0.00127456
0.00127464
0.00128572
0.0012879
0.00127676
0.00128788
0.00127677
0.0012746
0.00128795
0.00128795
0.00127464
0.00127456
0.00127456
0.00123878
0.00125216
0.00125216
0.00123877
0.00125216
0.00123877
0.00123878
0.00125216
0.00125216
0.00123877
0.00124997
0.00124997
0.00124997
0.00122313
0.00122313
0.00122313
0.00122313
0.00123885
0.00125212
0.00124993
0.00124097
0.0012521
0.00123881
0.00124098
0.00125216
0.00123877
0.00123885
0.00124993
0.00125212
0.00124097
0.0012521
0.00124098
0.00123881
0.00125217
0.00125217
0.00123885
0.00123877
0.00123877
0.00120299
0.00121637
0.00121637
0.00120299
0.00121637
0.00120299
0.00120299
0.00121637
0.00121637
0.00120299
0.00121419
0.00121419
0.00121419
0.00118735
0.00118735
0.00118735
0.00118735
0.00120307
0.00121633
0.00121415
0.00120519
0.00121631
0.00120303
0.0012052
0.00121637
0.00120299
0.00120307
0.00121415
0.00121633
0.00120519
0.00121631
0.0012052
0.00120303
0.00121638
0.00121638
0.00120306
0.00120299
0.00120299
0.00116721
0.00118059
0.00118059
0.0011672
0.00118059
0.0011672
0.00116721
0.00118059
0.00118059
0.0011672
0.0011784
0.0011784
0.0011784
0.00115156
0.00115156
0.00115156
0.00115156
0.00116728
0.00118055
0.00117836
0.0011694
0.00118052
0.00116724
0.00116941
0.00118059
0.0011672
0.00116728
0.00117836
0.00118055
0.0011694
0.00118052
0.00116941
0.00116724
0.00118059
0.00118059
0.00116728
0.0011672
0.0011672
0.00113142
0.0011448
0.0011448
0.00113142
0.0011448
0.00113142
0.00113142
0.0011448
0.0011448
0.00113142
0.00114262
0.00114262
0.00114262
0.00111578
0.00111578
0.00111578
0.00111578
0.00113149
0.00114476
0.00114257
0.00113361
0.00114474
0.00113146
0.00113363
0.0011448
0.00113142
0.00113149
0.00114257
0.00114476
0.00113361
0.00114474
0.00113363
0.00113146
0.00114481
0.00114481
0.00113149
0.00113141
0.00113141
0.00109563
0.00110902
0.00110901
0.00109563
0.00110902
0.00109563
0.00109563
0.00110902
0.00110901
0.00109563
0.00110683
0.00110683
0.00110683
0.00107999
0.00107999
0.00107999
0.00107999
0.00109571
0.00110898
0.00110679
0.00109783
0.00110895
0.00109567
0.00109784
0.00110902
0.00109563
0.00109571
0.00110679
0.00110898
0.00109783
0.00110895
0.00109784
0.00109567
0.00110902
0.00110902
0.00109571
0.00109563
0.00109563
0.00105985
0.00107323
0.00107323
0.00105984
0.00107323
0.00105984
0.00105985
0.00107323
0.00107323
0.00105984
0.00107104
0.00107104
0.00107104
0.0010442
0.0010442
0.0010442
0.0010442
0.00105992
0.00107319
0.001071
0.00106204
0.00107317
0.00105988
0.00106205
0.00107323
0.00105984
0.00105992
0.001071
0.00107319
0.00106204
0.00107317
0.00106205
0.00105988
0.00107324
0.00107324
0.00105992
0.00105984
0.00105984
0.00102406
0.00103744
0.00103744
0.00102405
0.00103744
0.00102406
0.00102406
0.00103744
0.00103744
0.00102405
0.00103525
0.00103525
0.00103525
0.00100841
0.00100841
0.00100841
0.00100841
0.00102413
0.0010374
0.00103521
0.00102625
0.00103738
0.0010241
0.00102627
0.00103744
0.00102406
0.00102413
0.00103521
0.0010374
0.00102625
0.00103738
0.00102627
0.0010241
0.00103745
0.00103745
0.00102413
0.00102405
0.00102405
0.000988274
0.00100166
0.00100165
0.000988268
0.00100166
0.00098827
0.000988274
0.00100166
0.00100165
0.000988268
0.000999468
0.000999468
0.000999468
0.000972628
0.000972628
0.000972628
0.000972628
0.000988347
0.00100161
0.000999428
0.000990466
0.00100159
0.000988311
0.000990481
0.00100165
0.00098827
0.000988347
0.000999427
0.00100161
0.000990466
0.00100159
0.000990481
0.00098831
0.00100166
0.00100166
0.000988346
0.000988267
0.000988267
0.000952488
0.00096587
0.000965868
0.000952482
0.000965869
0.000952484
0.000952488
0.00096587
0.000965868
0.000952482
0.000963682
0.000963682
0.000963682
0.000936843
0.000936843
0.000936843
0.000936843
0.000952561
0.000965828
0.000963641
0.00095468
0.000965805
0.000952525
0.000954695
0.000965869
0.000952484
0.000952561
0.000963641
0.000965828
0.00095468
0.000965805
0.000954695
0.000952524
0.000965875
0.000965875
0.00095256
0.000952481
0.000952481
0.000916702
0.000930084
0.000930082
0.000916696
0.000930083
0.000916699
0.000916703
0.000930084
0.000930082
0.000916697
0.000927896
0.000927896
0.000927896
0.000901057
0.000901057
0.000901057
0.000901057
0.000916776
0.000930042
0.000927856
0.000918894
0.000930019
0.000916739
0.000918909
0.000930083
0.000916699
0.000916775
0.000927856
0.000930042
0.000918895
0.000930019
0.000918909
0.000916738
0.00093009
0.00093009
0.000916775
0.000916696
0.000916695
0.000880918
0.000894299
0.000894297
0.000880911
0.000894298
0.000880914
0.000880918
0.000894299
0.000894297
0.000880912
0.000892111
0.000892111
0.000892111
0.000865272
0.000865272
0.000865273
0.000865273
0.000880991
0.000894257
0.000892071
0.00088311
0.000894234
0.000880954
0.000883125
0.000894298
0.000880914
0.000880992
0.000892071
0.000894258
0.00088311
0.000894234
0.000883125
0.000880955
0.000894305
0.000894305
0.00088099
0.000880911
0.000880911
0.000845133
0.000858514
0.000858512
0.000845127
0.000858513
0.000845129
0.000845132
0.000858514
0.000858512
0.000845127
0.000856326
0.000856326
0.000856327
0.000829487
0.000829487
0.000829487
0.000829487
0.000845206
0.000858473
0.000856286
0.000847325
0.00085845
0.00084517
0.00084734
0.000858513
0.000845128
0.000845206
0.000856286
0.000858473
0.000847325
0.000858451
0.00084734
0.000845169
0.00085852
0.000858521
0.000845205
0.000845126
0.000845126
0.000809347
0.000822729
0.000822727
0.000809341
0.000822728
0.000809343
0.000809347
0.000822729
0.000822727
0.000809341
0.000820541
0.000820541
0.000820541
0.000793701
0.000793701
0.000793701
0.000793701
0.000809421
0.000822688
0.000820501
0.00081154
0.000822664
0.000809384
0.000811554
0.000822728
0.000809343
0.00080942
0.0008205
0.000822687
0.000811539
0.000822664
0.000811554
0.000809383
0.000822735
0.000822735
0.000809419
0.00080934
0.00080934
0.00077356
0.000786943
0.000786941
0.000773554
0.000786942
0.000773556
0.000773561
0.000786943
0.000786941
0.000773555
0.000784755
0.000784755
0.000784755
0.000757914
0.000757914
0.000757914
0.000757914
0.000773634
0.000786901
0.000784714
0.000775753
0.000786878
0.000773597
0.000775767
0.000786942
0.000773556
0.000773634
0.000784714
0.000786901
0.000775753
0.000786878
0.000775767
0.000773597
0.000786949
0.000786949
0.000773633
0.000773554
0.000773554
0.000737772
0.000751155
0.000751153
0.000737766
0.000751154
0.000737768
0.000737772
0.000751155
0.000751153
0.000737766
0.000748967
0.000748967
0.000748967
0.000722125
0.000722125
0.000722125
0.000722125
0.000737846
0.000751113
0.000748927
0.000739964
0.00075109
0.000737809
0.000739979
0.000751155
0.000737768
0.000737846
0.000748927
0.000751114
0.000739965
0.00075109
0.000739979
0.000737809
0.000751161
0.000751161
0.000737845
0.000737766
0.000737766
0.000701982
0.000715366
0.000715364
0.000701976
0.000715364
0.000701978
0.000701983
0.000715366
0.000715364
0.000701977
0.000713178
0.000713178
0.000713178
0.000686335
0.000686335
0.000686336
0.000686336
0.000702056
0.000715324
0.000713137
0.000704174
0.000715301
0.000702019
0.00070419
0.000715365
0.000701978
0.000702056
0.000713137
0.000715325
0.000704175
0.000715301
0.00070419
0.000702019
0.000715372
0.000715372
0.000702055
0.000701976
0.000701976
0.000666193
0.000679576
0.000679574
0.000666187
0.000679575
0.000666189
0.000666193
0.000679576
0.000679574
0.000666187
0.000677388
0.000677388
0.000677388
0.000650547
0.000650547
0.000650547
0.000650547
0.000666267
0.000679534
0.000677348
0.000668386
0.000679512
0.00066623
0.000668401
0.000679575
0.000666189
0.000666267
0.000677348
0.000679535
0.000668385
0.000679511
0.0006684
0.00066623
0.000679582
0.000679582
0.000666266
0.000666187
0.000666187
0.000630406
0.000643788
0.000643786
0.000630399
0.000643787
0.000630401
0.000630405
0.000643788
0.000643786
0.0006304
0.0006416
0.0006416
0.0006416
0.000614759
0.000614759
0.000614758
0.000614759
0.000630479
0.000643746
0.000641559
0.000632598
0.000643723
0.000630442
0.000632612
0.000643787
0.000630401
0.000630479
0.000641559
0.000643746
0.000632597
0.000643723
0.000632612
0.000630442
0.000643794
0.000643794
0.000630477
0.000630399
0.000630399
0.000594617
0.000608
0.000607998
0.000594611
0.000607999
0.000594613
0.000594617
0.000608
0.000607998
0.000594611
0.000605812
0.000605812
0.000605811
0.00057897
0.000578971
0.000578971
0.000578971
0.000594691
0.000607958
0.000605771
0.00059681
0.000607935
0.000594654
0.000596824
0.000607999
0.000594613
0.000594691
0.000605771
0.000607958
0.000596809
0.000607935
0.000596824
0.000594654
0.000608005
0.000608005
0.000594689
0.000594611
0.000594611
0.000558829
0.000572212
0.00057221
0.000558823
0.000572211
0.000558825
0.00055883
0.000572212
0.00057221
0.000558823
0.000570024
0.000570024
0.000570024
0.000543183
0.000543183
0.000543183
0.000543183
0.000558903
0.00057217
0.000569983
0.000561022
0.000572147
0.000558866
0.000561036
0.000572211
0.000558825
0.000558903
0.000569984
0.000572171
0.000561021
0.000572147
0.000561036
0.000558866
0.000572218
0.000572218
0.000558902
0.000558823
0.000558823
0.000523041
0.000536424
0.000536422
0.000523035
0.000536423
0.000523037
0.000523041
0.000536424
0.000536422
0.000523035
0.000534236
0.000534236
0.000534236
0.000507394
0.000507394
0.000507394
0.000507394
0.000523115
0.000536382
0.000534196
0.000525233
0.000536359
0.000523078
0.000525248
0.000536423
0.000523037
0.000523115
0.000534196
0.000536383
0.000525233
0.000536359
0.000525248
0.000523078
0.00053643
0.00053643
0.000523113
0.000523034
0.000523034
0.000487252
0.000500635
0.000500633
0.000487246
0.000500635
0.000487248
0.000487252
0.000500635
0.000500633
0.000487247
0.000498447
0.000498447
0.000498447
0.000471605
0.000471605
0.000471605
0.000471605
0.000487326
0.000500594
0.000498407
0.000489445
0.000500571
0.000487289
0.00048946
0.000500635
0.000487248
0.000487326
0.000498407
0.000500594
0.000489444
0.000500571
0.000489459
0.000487289
0.000500641
0.000500641
0.000487325
0.000487246
0.000487246
0.000451463
0.000464846
0.000464844
0.000451457
0.000464845
0.000451459
0.000451463
0.000464846
0.000464844
0.000451457
0.000462658
0.000462658
0.000462658
0.000435816
0.000435816
0.000435816
0.000435816
0.000451536
0.000464804
0.000462618
0.000453655
0.000464781
0.0004515
0.00045367
0.000464845
0.000451459
0.000451536
0.000462618
0.000464805
0.000453655
0.000464781
0.00045367
0.000451499
0.000464852
0.000464852
0.000451535
0.000451456
0.000451456
0.000415674
0.000429057
0.000429055
0.000415668
0.000429056
0.00041567
0.000415675
0.000429057
0.000429055
0.000415668
0.000426869
0.00042687
0.000426869
0.000400028
0.000400028
0.000400028
0.000400028
0.000415748
0.000429015
0.000426829
0.000417867
0.000428992
0.000415711
0.000417882
0.000429057
0.00041567
0.000415748
0.000426829
0.000429016
0.000417867