/*--------------------------------*- C++ -*----------------------------------*\
| =========                 |                                                 |
| \\      /  F ield         | OpenFOAM: The Open Source CFD Toolbox           |
|  \\    /   O peration     | Version:  v2012                                 |
|   \\  /    A nd           | Website:  www.openfoam.com                      |
|    \\/     M anipulation  |                                                 |
\*---------------------------------------------------------------------------*/
FoamFile
{
    version     2.0;
    format      ascii;
    class       surfaceScalarField;
    location    "125";
    object      phi;
}
// * * * * * * * * * * * * * * * * * * * * * * * * * * * * * * * * * * * * * //

dimensions      [0 3 -1 0 0 0 0];
oriented        oriented;


internalField   nonuniform List<scalar> 
248808
(
5.59689e-09
6.13223e-09
-5.90676e-09
-5.84624e-09
0.00116441
-1.28946e-06
-6.16135e-09
1.15198e-08
0.00114475
-2.83017e-07
1.29718e-06
2.78546e-07
9.43372e-07
-2.69376e-07
-9.4256e-07
2.59958e-07
-1.28385e-06
-6.17504e-09
1.1477e-08
0.00114439
-2.82973e-07
1.29152e-06
2.78584e-07
9.43189e-07
-2.72039e-07
-9.42426e-07
2.62666e-07
1.31891e-06
1.28403e-06
-2.68614e-07
-2.74035e-07
0.000273611
5.63337e-09
6.17757e-09
-0.00116441
-5.94571e-09
-5.88236e-09
0.00116441
-0.00114475
-1.28948e-06
-6.20575e-09
1.15039e-08
0.00114476
-2.83009e-07
1.29722e-06
2.7853e-07
9.43356e-07
-2.69383e-07
-9.4256e-07
2.5993e-07
-0.00114439
-1.28386e-06
-6.2092e-09
1.14587e-08
0.00114439
-2.82962e-07
1.29158e-06
2.78574e-07
9.43164e-07
-2.72049e-07
-9.42435e-07
2.62634e-07
-0.000275672
1.31891e-06
1.28404e-06
-2.68622e-07
-2.74038e-07
0.000273611
5.61559e-09
6.15995e-09
-0.00116441
-5.93018e-09
-5.87518e-09
0.00116441
-0.00114476
-1.28956e-06
-6.1993e-09
1.14611e-08
0.00114476
-2.82961e-07
1.29717e-06
2.78585e-07
9.4336e-07
-2.69356e-07
-9.4255e-07
2.59939e-07
-0.00114439
-1.28396e-06
-6.20812e-09
1.13873e-08
0.00114439
-2.82905e-07
1.29152e-06
2.78636e-07
9.4317e-07
-2.72018e-07
-9.42419e-07
2.62647e-07
-0.000275672
1.31898e-06
1.2841e-06
-2.68629e-07
-2.74049e-07
0.000273611
5.59781e-09
6.11572e-09
-0.00116441
-5.895e-09
-5.85014e-09
0.00116441
-0.00114476
-1.28962e-06
-6.1287e-09
1.14512e-08
0.00114476
-2.82923e-07
1.29709e-06
2.78632e-07
9.43361e-07
-2.69334e-07
-9.42546e-07
2.59953e-07
-0.00114439
-1.28403e-06
-6.18781e-09
1.14172e-08
0.00114439
-2.82884e-07
1.29142e-06
2.78663e-07
9.43195e-07
-2.71986e-07
-9.42399e-07
2.62678e-07
-0.000275672
1.31907e-06
1.28419e-06
-2.68652e-07
-2.74082e-07
0.000273612
5.49742e-09
5.99569e-09
-0.00116441
-5.78809e-09
-5.74467e-09
0.00116441
-0.00114476
-1.28965e-06
-6.0714e-09
1.15342e-08
0.00114476
-2.82943e-07
1.29701e-06
2.78618e-07
9.43357e-07
-2.69332e-07
-9.42558e-07
2.59967e-07
-0.00114439
-1.28405e-06
-6.05678e-09
1.14826e-08
0.00114439
-2.82892e-07
1.29135e-06
2.78668e-07
9.43165e-07
-2.72003e-07
-9.42429e-07
2.62663e-07
-0.000275673
1.3191e-06
1.28422e-06
-2.68664e-07
-2.74097e-07
0.000273612
5.59067e-09
6.09212e-09
-0.00116441
-5.85354e-09
-5.8163e-09
0.00116441
-0.00114476
-1.28959e-06
-6.12024e-09
1.14876e-08
0.00114476
-2.82961e-07
1.29701e-06
2.786e-07
9.43368e-07
-2.69328e-07
-9.42532e-07
2.5997e-07
-0.00114439
-1.28399e-06
-6.15878e-09
1.14657e-08
0.00114439
-2.82919e-07
1.29135e-06
2.78636e-07
9.43191e-07
-2.71983e-07
-9.42402e-07
2.62689e-07
-0.000275673
1.31905e-06
1.28417e-06
-2.68653e-07
-2.74077e-07
0.000273612
5.58004e-09
6.05948e-09
-0.00116441
-5.81464e-09
-5.78802e-09
0.00116441
-0.00114476
-1.2895e-06
-6.15256e-09
1.14782e-08
0.00114476
-2.82958e-07
1.29708e-06
2.78586e-07
9.43362e-07
-2.69331e-07
-9.4253e-07
2.59968e-07
-0.00114439
-1.2839e-06
-6.10995e-09
1.14786e-08
0.00114439
-2.82915e-07
1.29142e-06
2.78624e-07
9.43162e-07
-2.72003e-07
-9.42416e-07
2.62669e-07
-0.000275673
1.31896e-06
1.28408e-06
-2.68616e-07
-2.74037e-07
0.000273612
5.73446e-09
6.20105e-09
-0.0011644
-5.90975e-09
-5.92068e-09
0.0011644
-0.00114476
-1.28939e-06
-6.33784e-09
1.14076e-08
0.00114476
-2.82917e-07
1.29719e-06
2.78598e-07
9.43414e-07
-2.69306e-07
-9.4247e-07
2.59981e-07
-0.00114439
-1.28384e-06
-6.28903e-09
1.14677e-08
0.00114439
-2.8292e-07
1.29149e-06
2.78598e-07
9.43214e-07
-2.71978e-07
-9.42355e-07
2.62688e-07
-0.000275672
1.31886e-06
1.28398e-06
-2.68547e-07
-2.7398e-07
0.000273612
5.67079e-09
6.11413e-09
-0.0011644
-5.86707e-09
-5.85649e-09
0.0011644
-0.00114476
-1.28945e-06
-6.2071e-09
1.15536e-08
0.00114476
-2.82979e-07
1.29718e-06
2.78526e-07
9.43395e-07
-2.6932e-07
-9.42493e-07
2.59948e-07
-0.00114439
-1.28386e-06
-6.20662e-09
1.15374e-08
0.00114439
-2.82939e-07
1.29151e-06
2.78565e-07
9.43197e-07
-2.71983e-07
-9.42364e-07
2.62654e-07
-0.000275672
1.31892e-06
1.28405e-06
-2.68576e-07
-2.74005e-07
0.000273612
5.64768e-09
6.16701e-09
-0.0011644
-5.91825e-09
-5.85711e-09
0.0011644
-0.00114475
-1.28946e-06
-6.22174e-09
1.14899e-08
0.00114475
-2.82928e-07
1.2972e-06
2.78566e-07
9.43377e-07
-2.69299e-07
-9.42505e-07
2.59959e-07
-0.00114439
-1.28387e-06
-6.21787e-09
1.14709e-08
0.00114439
-2.82891e-07
1.29153e-06
2.78601e-07
9.43185e-07
-2.71968e-07
-9.42376e-07
2.62668e-07
-0.000275672
1.31898e-06
1.28412e-06
-2.68602e-07
-2.74016e-07
0.000273611
5.67928e-09
6.26166e-09
-0.0011644
-5.98136e-09
-5.88469e-09
0.0011644
-0.00114475
-1.28949e-06
-6.23081e-09
1.14738e-08
0.00114475
-2.82911e-07
1.29718e-06
2.78593e-07
9.43371e-07
-2.69293e-07
-9.42509e-07
2.59964e-07
-0.00114439
-1.28391e-06
-6.30049e-09
1.1445e-08
0.00114439
-2.82866e-07
1.2915e-06
2.7863e-07
9.43204e-07
-2.71949e-07
-9.42354e-07
2.62682e-07
-0.000275672
1.31902e-06
1.28417e-06
-2.68624e-07
-2.74028e-07
0.000273611
5.67859e-09
6.20012e-09
-0.0011644
-5.9402e-09
-5.87713e-09
0.0011644
-0.00114475
-1.28954e-06
-6.18036e-09
1.14578e-08
0.00114475
-2.82895e-07
1.29714e-06
2.78612e-07
9.43367e-07
-2.69288e-07
-9.42506e-07
2.59968e-07
-0.00114439
-1.28396e-06
-6.26117e-09
1.14336e-08
0.00114439
-2.82857e-07
1.29146e-06
2.78648e-07
9.43203e-07
-2.71936e-07
-9.42352e-07
2.62692e-07
-0.000275672
1.31901e-06
1.28415e-06
-2.68626e-07
-2.74035e-07
0.000273611
5.66639e-09
6.17322e-09
-0.0011644
-5.92527e-09
-5.86687e-09
0.0011644
-0.00114475
-1.28957e-06
-6.21351e-09
1.14569e-08
0.00114475
-2.82907e-07
1.29709e-06
2.78608e-07
9.43382e-07
-2.6927e-07
-9.42485e-07
2.59994e-07
-0.00114439
-1.28398e-06
-6.24432e-09
1.1424e-08
0.00114439
-2.82857e-07
1.29141e-06
2.78657e-07
9.43205e-07
-2.71926e-07
-9.42347e-07
2.62707e-07
-0.000275672
1.31894e-06
1.28407e-06
-2.68598e-07
-2.74016e-07
0.000273611
5.68473e-09
6.19476e-09
-0.0011644
-5.93469e-09
-5.88242e-09
0.0011644
-0.00114475
-1.28959e-06
-6.22659e-09
1.15118e-08
0.00114475
-2.82928e-07
1.29705e-06
2.78594e-07
9.43401e-07
-2.69264e-07
-9.42463e-07
2.60002e-07
-0.00114439
-1.28397e-06
-6.24491e-09
1.14561e-08
0.00114439
-2.82875e-07
1.29139e-06
2.78648e-07
9.43209e-07
-2.71931e-07
-9.42341e-07
2.62708e-07
-0.000275671
1.3189e-06
1.28403e-06
-2.68567e-07
-2.73988e-07
0.000273611
5.57454e-09
6.19167e-09
-0.0011644
-5.92021e-09
-5.81281e-09
0.0011644
-0.00114475
-1.28959e-06
-6.17972e-09
1.15245e-08
0.00114475
-2.82939e-07
1.29702e-06
2.7859e-07
9.43398e-07
-2.69282e-07
-9.42467e-07
2.59987e-07
-0.00114439
-1.28394e-06
-6.24329e-09
1.14272e-08
0.00114439
-2.82883e-07
1.2914e-06
2.78639e-07
9.43202e-07
-2.71945e-07
-9.42348e-07
2.627e-07
-0.000275671
1.31893e-06
1.28408e-06
-2.68594e-07
-2.74e-07
0.000273611
5.58044e-09
6.11701e-09
-0.0011644
-5.87459e-09
-5.81578e-09
0.0011644
-0.00114475
-1.28955e-06
-6.19291e-09
1.14688e-08
0.00114475
-2.82939e-07
1.29703e-06
2.78593e-07
9.43393e-07
-2.69292e-07
-9.4248e-07
2.59982e-07
-0.00114439
-1.28393e-06
-6.2333e-09
1.14572e-08
0.00114439
-2.82904e-07
1.29139e-06
2.78617e-07
9.43198e-07
-2.71954e-07
-9.42352e-07
2.62693e-07
-0.000275671
1.31896e-06
1.2841e-06
-2.68598e-07
-2.74018e-07
0.000273611
5.67389e-09
6.06662e-09
-0.0011644
-5.85152e-09
-5.87636e-09
0.0011644
-0.00114475
-1.2895e-06
-6.22175e-09
1.14225e-08
0.00114475
-2.82941e-07
1.29707e-06
2.78588e-07
9.43391e-07
-2.693e-07
-9.42486e-07
2.59978e-07
-0.00114439
-1.28392e-06
-6.2102e-09
1.14684e-08
0.00114439
-2.82911e-07
1.2914e-06
2.78612e-07
9.43194e-07
-2.71965e-07
-9.42358e-07
2.62682e-07
-0.000275671
1.31897e-06
1.28408e-06
-2.68591e-07
-2.74033e-07
0.000273611
5.70425e-09
6.11339e-09
-0.0011644
-5.88399e-09
-5.90191e-09
0.0011644
-0.00114475
-1.28946e-06
-6.1981e-09
1.14381e-08
0.00114475
-2.82949e-07
1.2971e-06
2.78574e-07
9.43381e-07
-2.69316e-07
-9.42496e-07
2.59962e-07
-0.00114439
-1.28389e-06
-6.1976e-09
1.14422e-08
0.00114439
-2.82906e-07
1.29142e-06
2.78615e-07
9.43192e-07
-2.71975e-07
-9.42364e-07
2.62675e-07
-0.000275671
1.31896e-06
1.28409e-06
-2.68601e-07
-2.74024e-07
0.000273611
5.69067e-09
6.17342e-09
-0.0011644
-5.9331e-09
-5.88155e-09
0.0011644
-0.00114475
-1.28943e-06
-6.16223e-09
1.14326e-08
0.00114475
-2.82949e-07
1.29714e-06
2.78567e-07
9.43364e-07
-2.69328e-07
-9.42514e-07
2.59949e-07
-0.00114438
-1.28386e-06
-6.23074e-09
1.14198e-08
0.00114438
-2.82903e-07
1.29146e-06
2.78614e-07
9.43195e-07
-2.71976e-07
-9.42364e-07
2.62673e-07
-0.000275671
1.31895e-06
1.28412e-06
-2.68625e-07
-2.74006e-07
0.000273611
5.70395e-09
6.2093e-09
-0.0011644
-5.96296e-09
-5.88229e-09
0.0011644
-0.00114475
-1.28942e-06
-6.19596e-09
1.14473e-08
0.00114475
-2.82949e-07
1.29717e-06
2.78561e-07
9.43363e-07
-2.69325e-07
-9.42514e-07
2.5995e-07
-0.00114438
-1.28384e-06
-6.27742e-09
1.14208e-08
0.00114438
-2.829e-07
1.29149e-06
2.7861e-07
9.43196e-07
-2.71973e-07
-9.42366e-07
2.62676e-07
-0.000275671
1.31897e-06
1.28414e-06
-2.68627e-07
-2.7401e-07
0.000273611
5.7114e-09
6.20377e-09
-0.0011644
-5.95033e-09
-5.8911e-09
0.0011644
-0.00114475
-1.28944e-06
-6.2229e-09
1.14843e-08
0.00114475
-2.82947e-07
1.29718e-06
2.78558e-07
9.43367e-07
-2.69319e-07
-9.42505e-07
2.59953e-07
-0.00114438
-1.28385e-06
-6.28543e-09
1.14665e-08
0.00114438
-2.82909e-07
1.29148e-06
2.78598e-07
9.43195e-07
-2.71964e-07
-9.42366e-07
2.62681e-07
-0.000275671
1.31899e-06
1.28414e-06
-2.68621e-07
-2.74028e-07
0.000273611
5.68105e-09
6.17476e-09
-0.0011644
-5.91544e-09
-5.8692e-09
0.0011644
-0.00114475
-1.28948e-06
-6.24839e-09
1.14863e-08
0.00114475
-2.82938e-07
1.29716e-06
2.78569e-07
9.43381e-07
-2.69305e-07
-9.42485e-07
2.59963e-07
-0.00114438
-1.28387e-06
-6.31301e-09
1.14927e-08
0.00114438
-2.82912e-07
1.29147e-06
2.78594e-07
9.43207e-07
-2.71956e-07
-9.42354e-07
2.6269e-07
-0.000275671
1.319e-06
1.28415e-06
-2.68623e-07
-2.74035e-07
0.000273611
5.65578e-09
6.15803e-09
-0.0011644
-5.89418e-09
-5.84048e-09
0.0011644
-0.00114475
-1.28951e-06
-6.2675e-09
1.14856e-08
0.00114475
-2.82939e-07
1.29712e-06
2.78575e-07
9.43397e-07
-2.69296e-07
-9.42475e-07
2.59975e-07
-0.00114438
-1.28387e-06
-6.40131e-09
1.15305e-08
0.00114438
-2.82929e-07
1.29147e-06
2.78577e-07
9.43243e-07
-2.71933e-07
-9.42311e-07
2.62714e-07
-0.000275671
1.31896e-06
1.28413e-06
-2.68627e-07
-2.74014e-07
0.000273611
5.65453e-09
6.1397e-09
-0.0011644
-5.88674e-09
-5.84378e-09
0.0011644
-0.00114475
-1.28951e-06
-6.23289e-09
1.14857e-08
0.00114475
-2.82948e-07
1.29712e-06
2.78573e-07
9.43393e-07
-2.69306e-07
-9.42489e-07
2.59971e-07
-0.00114438
-1.28388e-06
-6.3071e-09
1.15163e-08
0.00114438
-2.82928e-07
1.29149e-06
2.78587e-07
9.43199e-07
-2.71972e-07
-9.4236e-07
2.62682e-07
-0.000275671
1.31894e-06
1.28411e-06
-2.68623e-07
-2.74015e-07
0.000273611
5.67863e-09
6.16005e-09
-0.0011644
-5.91234e-09
-5.87042e-09
0.0011644
-0.00114475
-1.28949e-06
-6.21853e-09
1.14718e-08
0.00114475
-2.82959e-07
1.29711e-06
2.78569e-07
9.4339e-07
-2.69314e-07
-9.42501e-07
2.59968e-07
-0.00114438
-1.2839e-06
-6.27114e-09
1.14872e-08
0.00114438
-2.82914e-07
1.29147e-06
2.78605e-07
9.43202e-07
-2.71974e-07
-9.42361e-07
2.62679e-07
-0.000275671
1.31896e-06
1.28411e-06
-2.68619e-07
-2.74023e-07
0.000273611
5.54837e-09
6.03025e-09
-0.0011644
-5.82899e-09
-5.78968e-09
0.0011644
-0.00114475
-1.28949e-06
-6.07528e-09
1.1522e-08
0.00114475
-2.82994e-07
1.2971e-06
2.7854e-07
9.43356e-07
-2.69361e-07
-9.4254e-07
2.59928e-07
-0.00114438
-1.28392e-06
-6.13119e-09
1.15332e-08
0.00114438
-2.82946e-07
1.29144e-06
2.7858e-07
9.43174e-07
-2.7202e-07
-9.424e-07
2.62641e-07
-0.000275671
1.31895e-06
1.28411e-06
-2.6864e-07
-2.74044e-07
0.000273611
5.3397e-09
5.82826e-09
-0.0011644
-5.7222e-09
-5.67693e-09
0.0011644
-0.00114475
-1.2895e-06
-5.88411e-09
1.16105e-08
0.00114475
-2.83057e-07
1.2971e-06
2.78464e-07
9.43272e-07
-2.69428e-07
-9.42619e-07
2.59854e-07
-0.00114438
-1.28393e-06
-5.9434e-09
1.16144e-08
0.00114438
-2.83014e-07
1.29141e-06
2.78505e-07
9.43099e-07
-2.7208e-07
-9.42477e-07
2.62577e-07
-0.000275671
1.31897e-06
1.28413e-06
-2.68687e-07
-2.74089e-07
0.000273611
5.02702e-09
5.51213e-09
-0.0011644
-5.56324e-09
-5.52133e-09
0.0011644
-0.00114475
-1.28959e-06
-5.57308e-09
1.17324e-08
0.00114475
-2.83082e-07
1.29707e-06
2.78433e-07
9.43168e-07
-2.69512e-07
-9.42711e-07
2.59757e-07
-0.00114438
-1.284e-06
-5.62716e-09
1.17339e-08
0.00114438
-2.83047e-07
1.29138e-06
2.78469e-07
9.42994e-07
-2.72165e-07
-9.42575e-07
2.62482e-07
-0.000275671
1.31906e-06
1.28421e-06
-2.68751e-07
-2.74155e-07
0.000273611
5.18486e-09
5.65735e-09
-0.0011644
-5.63819e-09
-5.6089e-09
0.0011644
-0.00114475
-1.28962e-06
-5.70074e-09
1.15985e-08
0.00114475
-2.82989e-07
1.29706e-06
2.78531e-07
9.43227e-07
-2.69438e-07
-9.42644e-07
2.59823e-07
-0.00114439
-1.28399e-06
-5.74741e-09
1.16226e-08
0.00114439
-2.82969e-07
1.29141e-06
2.78546e-07
9.43041e-07
-2.72104e-07
-9.42522e-07
2.62537e-07
-0.000275671
1.31905e-06
1.2842e-06
-2.68708e-07
-2.74115e-07
0.000273611
5.60257e-09
6.07274e-09
-0.00116441
-5.88455e-09
-5.85195e-09
0.00116441
-0.00114475
-1.2896e-06
-6.09745e-09
1.14477e-08
0.00114475
-2.82937e-07
1.29704e-06
2.78592e-07
9.43353e-07
-2.69321e-07
-9.4251e-07
2.59933e-07
-0.00114439
-1.28394e-06
-6.15403e-09
1.14773e-08
0.00114439
-2.82917e-07
1.29145e-06
2.78594e-07
9.43142e-07
-2.72002e-07
-9.42407e-07
2.62626e-07
-0.000275671
1.31901e-06
1.28417e-06
-2.68656e-07
-2.74064e-07
0.000273611
5.78106e-09
6.2609e-09
-0.00116441
-6.00527e-09
-5.96388e-09
0.00116441
-0.00114475
-1.28951e-06
-6.31069e-09
1.13631e-08
0.00114475
-2.82948e-07
1.29709e-06
2.78575e-07
9.4337e-07
-2.69295e-07
-9.42486e-07
2.59947e-07
-0.00114439
-1.28389e-06
-6.35619e-09
1.13864e-08
0.00114439
-2.82904e-07
1.29149e-06
2.78599e-07
9.43168e-07
-2.71966e-07
-9.42365e-07
2.62646e-07
-0.000275671
1.31901e-06
1.28416e-06
-2.68645e-07
-2.74053e-07
0.000273611
5.72319e-09
6.20074e-09
-0.00116441
-5.95448e-09
-5.91299e-09
0.00116441
-0.00114475
-1.28946e-06
-6.25571e-09
1.13764e-08
0.00114475
-2.82952e-07
1.29714e-06
2.78553e-07
9.43334e-07
-2.69297e-07
-9.42492e-07
2.59916e-07
-0.00114439
-1.28387e-06
-6.30257e-09
1.14e-08
0.00114439
-2.82906e-07
1.2915e-06
2.78587e-07
9.43144e-07
-2.7196e-07
-9.42362e-07
2.62623e-07
-0.000275671
1.31902e-06
1.28417e-06
-2.68643e-07
-2.7405e-07
0.000273611
5.61311e-09
6.08562e-09
-0.00116441
-5.86013e-09
-5.82495e-09
0.00116441
-0.00114475
-1.28945e-06
-6.1443e-09
1.14066e-08
0.00114475
-2.82942e-07
1.29715e-06
2.7854e-07
9.43297e-07
-2.69284e-07
-9.42477e-07
2.59878e-07
-0.00114439
-1.28387e-06
-6.18601e-09
1.14338e-08
0.00114439
-2.82897e-07
1.29149e-06
2.78578e-07
9.43108e-07
-2.71945e-07
-9.42347e-07
2.62588e-07
-0.000275672
1.31902e-06
1.28417e-06
-2.68628e-07
-2.74037e-07
0.000273611
5.47248e-09
5.94338e-09
-0.0011644
-5.75327e-09
-5.71963e-09
0.0011644
-0.00114475
-1.28946e-06
-6.00824e-09
1.1424e-08
0.00114475
-2.82925e-07
1.29712e-06
2.78526e-07
9.43246e-07
-2.69251e-07
-9.42441e-07
2.59825e-07
-0.00114439
-1.28389e-06
-6.04722e-09
1.14522e-08
0.00114439
-2.82879e-07
1.29145e-06
2.78567e-07
9.43059e-07
-2.71911e-07
-9.4231e-07
2.62538e-07
-0.000275672
1.31901e-06
1.28416e-06
-2.68603e-07
-2.74015e-07
0.000273611
5.2903e-09
5.7607e-09
-0.0011644
-5.62882e-09
-5.5942e-09
0.00116441
-0.00114475
-1.28944e-06
-5.83103e-09
1.14502e-08
0.00114475
-2.82908e-07
1.29709e-06
2.78492e-07
9.43159e-07
-2.692e-07
-9.42389e-07
2.59739e-07
-0.00114439
-1.28389e-06
-5.86844e-09
1.14758e-08
0.00114439
-2.82859e-07
1.2914e-06
2.78538e-07
9.42976e-07
-2.71856e-07
-9.42255e-07
2.62456e-07
-0.000275672
1.31899e-06
1.28414e-06
-2.68564e-07
-2.73975e-07
0.000273611
5.04366e-09
5.51294e-09
-0.0011644
-5.4745e-09
-5.44044e-09
0.00116441
-0.00114475
-1.28941e-06
-5.5846e-09
1.14945e-08
0.00114475
-2.82878e-07
1.29703e-06
2.78431e-07
9.4302e-07
-2.6911e-07
-9.42294e-07
2.59599e-07
-0.00114439
-1.28385e-06
-5.6117e-09
1.15214e-08
0.00114439
-2.82832e-07
1.29134e-06
2.78476e-07
9.42834e-07
-2.71768e-07
-9.42163e-07
2.62315e-07
-0.000275672
1.31895e-06
1.28411e-06
-2.6849e-07
-2.739e-07
0.000273611
4.65607e-09
5.1257e-09
-0.0011644
-5.26798e-09
-5.23271e-09
0.00116441
-0.00114475
-1.28936e-06
-5.1962e-09
1.15817e-08
0.00114475
-2.82824e-07
1.29693e-06
2.78326e-07
9.42779e-07
-2.68963e-07
-9.42145e-07
2.59361e-07
-0.00114439
-1.28377e-06
-5.22862e-09
1.16112e-08
0.00114439
-2.82786e-07
1.29125e-06
2.78362e-07
9.42591e-07
-2.71626e-07
-9.42018e-07
2.62076e-07
-0.000275672
1.31888e-06
1.28404e-06
-2.68365e-07
-2.73772e-07
0.000273611
4.08299e-09
4.55041e-09
-0.0011644
-5.00566e-09
-4.96781e-09
0.00116441
-0.00114475
-1.28928e-06
-4.61582e-09
1.17217e-08
0.00114475
-2.82722e-07
1.29675e-06
2.78157e-07
9.42388e-07
-2.68707e-07
-9.41886e-07
2.58982e-07
-0.00114439
-1.28368e-06
-4.6524e-09
1.17515e-08
0.00114439
-2.82688e-07
1.29108e-06
2.7819e-07
9.42199e-07
-2.71373e-07
-9.4176e-07
2.61691e-07
-0.000275672
1.31877e-06
1.28393e-06
-2.68147e-07
-2.73555e-07
0.000273611
3.23314e-09
3.6961e-09
-0.0011644
-4.68335e-09
-4.64616e-09
0.00116441
-0.00114476
-1.28911e-06
-3.75898e-09
1.19656e-08
0.00114475
-2.8256e-07
1.29645e-06
2.77844e-07
9.41733e-07
-2.68284e-07
-9.41461e-07
2.58346e-07
-0.00114439
-1.28352e-06
-3.80402e-09
1.19945e-08
0.00114439
-2.82525e-07
1.29078e-06
2.77878e-07
9.41548e-07
-2.70949e-07
-9.41328e-07
2.61056e-07
-0.000275672
1.3186e-06
1.28375e-06
-2.67782e-07
-2.73189e-07
0.000273611
2.03938e-09
2.49298e-09
-0.0011644
-4.3597e-09
-4.32248e-09
0.00116441
-0.00114476
-1.28882e-06
-2.56505e-09
1.23436e-08
0.00114475
-2.8227e-07
1.29595e-06
2.77303e-07
9.40645e-07
-2.67571e-07
-9.40739e-07
2.5729e-07
-0.00114439
-1.28325e-06
-2.61283e-09
1.23745e-08
0.00114439
-2.82204e-07
1.29027e-06
2.77338e-07
9.40465e-07
-2.7023e-07
-9.40602e-07
2.60003e-07
-0.000275673
1.3183e-06
1.28346e-06
-2.67163e-07
-2.72569e-07
0.00027361
2.98971e-10
8.03991e-10
-0.0011644
-4.14696e-09
-4.10741e-09
0.00116441
-0.00114476
-1.28834e-06
-8.90844e-10
1.28953e-08
0.00114475
-2.81728e-07
1.29504e-06
2.76378e-07
9.3886e-07
-2.66337e-07
-9.39499e-07
2.55544e-07
-0.00114439
-1.28276e-06
-9.35995e-10
1.29316e-08
0.00114439
-2.81667e-07
1.28936e-06
2.76409e-07
9.3868e-07
-2.68994e-07
-9.39363e-07
2.58259e-07
-0.000275673
1.3178e-06
1.28296e-06
-2.66104e-07
-2.71509e-07
0.00027361
-1.5551e-09
-1.20445e-09
-0.0011644
-4.30274e-09
-4.25276e-09
0.00116441
-0.00114476
-1.28746e-06
1.14976e-09
1.37406e-08
0.00114475
-2.80741e-07
1.29344e-06
2.74743e-07
9.35906e-07
-2.6422e-07
-9.37393e-07
2.52629e-07
-0.00114439
-1.28186e-06
1.10026e-09
1.37787e-08
0.00114439
-2.80692e-07
1.28777e-06
2.74763e-07
9.35723e-07
-2.66879e-07
-9.37261e-07
2.55342e-07
-0.000275674
1.31687e-06
1.28204e-06
-2.6428e-07
-2.69675e-07
0.000273609
-4.14893e-09
-3.79327e-09
-0.0011644
-5.08965e-09
-5.03721e-09
0.00116442
-0.00114476
-1.28577e-06
3.72567e-09
1.50287e-08
0.00114476
-2.78886e-07
1.29066e-06
2.71806e-07
9.30935e-07
-2.60575e-07
-9.3385e-07
2.477e-07
-0.00114439
-1.28015e-06
3.66661e-09
1.50644e-08
0.00114439
-2.78844e-07
1.28501e-06
2.71786e-07
9.30753e-07
-2.63231e-07
-9.33716e-07
2.50413e-07
-0.000275676
1.3152e-06
1.28036e-06
-2.61117e-07
-2.6652e-07
0.000273608
-7.56795e-09
-7.19658e-09
-0.0011644
-7.10741e-09
-7.03707e-09
0.00116442
-0.00114476
-1.2826e-06
7.14684e-09
1.71374e-08
0.00114476
-2.75347e-07
1.28557e-06
2.66389e-07
9.22677e-07
-2.54254e-07
-9.27734e-07
2.39297e-07
-0.00114439
-1.27699e-06
7.08676e-09
1.71803e-08
0.00114439
-2.75303e-07
1.27994e-06
2.66367e-07
9.22495e-07
-2.56915e-07
-9.27598e-07
2.42001e-07
-0.000275678
1.31206e-06
1.27722e-06
-2.55663e-07
-2.61049e-07
0.000273606
-1.25507e-08
-1.2156e-08
-0.00116439
-1.09742e-08
-1.08775e-08
0.00116444
-0.00114476
-1.27642e-06
1.20858e-08
2.12158e-08
0.00114477
-2.68382e-07
1.2759e-06
2.56064e-07
9.08549e-07
-2.43158e-07
-9.17091e-07
2.24797e-07
-0.00114439
-1.27079e-06
1.20115e-08
2.12299e-08
0.0011444
-2.68351e-07
1.27028e-06
2.56092e-07
9.08356e-07
-2.4583e-07
-9.16912e-07
2.27518e-07
-0.000275682
1.30586e-06
1.27101e-06
-2.46186e-07
-2.51558e-07
0.000273603
-2.04273e-09
-1.57073e-09
-0.00116439
-2.52315e-08
-3.06648e-08
0.00116445
-0.00114477
-1.26351e-06
7.00315e-09
1.58201e-08
0.0011448
-2.53972e-07
1.25923e-06
2.41134e-07
8.88317e-07
-2.25962e-07
-9.00829e-07
2.01782e-07
-0.00114441
-1.25512e-06
1.4482e-09
2.1439e-08
0.00114444
-2.53862e-07
1.25079e-06
2.38386e-07
8.85383e-07
-2.25889e-07
-8.97892e-07
2.04537e-07
-0.000275691
1.29572e-06
1.25809e-06
-2.26957e-07
-2.32258e-07
0.000273597
8.74351e-07
8.81756e-07
-0.00116423
-7.75727e-07
-7.64877e-07
0.00116401
-0.00114508
-1.15088e-06
-8.75823e-07
-3.55249e-07
0.00114544
-1.55928e-07
1.41086e-06
3.2258e-07
1.03032e-06
-1.07025e-07
-7.74585e-07
2.9817e-07
-0.00114473
-1.14242e-06
-8.8718e-07
-3.66583e-07
0.00114511
-1.55766e-07
1.40529e-06
3.25508e-07
1.02724e-06
-1.12487e-07
-7.7166e-07
3.00927e-07
-0.000275766
1.18598e-06
1.14267e-06
-1.25688e-07
-1.28224e-07
0.000273691
5.43897e-06
5.43195e-06
-0.00115051
-1.13158e-05
-1.12117e-05
0.000279266
0.000282627
0.000281824
0.000281825
4.43807e-06
6.74385e-06
7.12434e-06
4.44224e-06
6.7447e-06
7.128e-06
-0.000283111
5.35691e-06
-5.42906e-06
5.92363e-06
-3.41735e-06
0.000280677
-0.000283086
-5.43142e-06
5.36235e-06
-3.42562e-06
5.92056e-06
0.00028066
-0.000276717
-5.35356e-06
-5.36512e-06
5.86327e-06
5.85108e-06
0.000275721
1.32443e-06
1.28676e-06
-2.66012e-07
-2.7396e-07
0.000273618
-1.33192e-06
-1.29434e-06
0.000275689
-0.000273617
2.73396e-07
2.81444e-07
1.20741e-08
0.00114392
-2.88675e-07
1.33198e-06
2.83872e-07
9.43162e-07
-2.69468e-07
-9.42645e-07
2.59738e-07
-1.33009e-06
-5.49639e-09
1.20752e-08
0.00114437
-2.91469e-07
1.33767e-06
2.86695e-07
9.48849e-07
-2.72356e-07
-9.48371e-07
2.62499e-07
0.00114392
-5.64258e-09
-0.00114392
1.20269e-08
-1.32458e-06
2.83918e-07
-2.8861e-07
-9.42602e-07
2.59735e-07
-2.69441e-07
9.43184e-07
1.33761e-06
0.00114437
-5.50567e-09
-0.00114437
1.20531e-08
-1.33024e-06
2.86731e-07
-2.91413e-07
-9.48346e-07
2.62492e-07
-2.72332e-07
9.48858e-07
-2.68804e-07
-2.71144e-07
0.00027364
-1.29713e-06
0.00027572
-0.00027364
2.7632e-07
2.78614e-07
1.14162e-08
0.00114503
-2.85802e-07
1.2944e-06
2.81386e-07
9.46237e-07
-2.72172e-07
-9.4529e-07
2.62727e-07
-1.32453e-06
-5.52004e-09
1.21481e-08
0.00114403
-2.91485e-07
1.33201e-06
2.86653e-07
9.45902e-07
-2.72236e-07
-9.45454e-07
2.62522e-07
0.00114503
-6.1755e-09
-0.00114503
1.13882e-08
-1.28692e-06
2.81429e-07
-2.85741e-07
-9.45256e-07
2.62721e-07
-2.72142e-07
9.46253e-07
1.33196e-06
0.00114403
-5.56372e-09
-0.00114403
1.20864e-08
-1.32468e-06
2.86701e-07
-2.91421e-07
-9.45421e-07
2.62515e-07
-2.7221e-07
9.45916e-07
-5.53879e-09
1.21199e-08
0.00114381
-2.85819e-07
1.32637e-06
2.81088e-07
9.43141e-07
-2.69477e-07
2.59717e-07
-9.42692e-07
-6.18276e-09
-0.00114475
1.15019e-08
-1.28961e-06
2.78581e-07
-2.8296e-07
-9.42539e-07
2.59952e-07
9.43379e-07
-2.69347e-07
1.32634e-06
0.00114382
-5.55754e-09
-0.00114382
1.20912e-08
-1.31905e-06
2.81125e-07
-2.85762e-07
-9.42669e-07
2.59704e-07
-2.69457e-07
9.43146e-07
-2.6621e-07
-2.73769e-07
0.000273598
-1.29149e-06
0.000275667
-0.000273598
2.73681e-07
2.81152e-07
-6.12392e-09
1.15424e-08
0.00114493
-2.83028e-07
1.29159e-06
2.7858e-07
9.43505e-07
-2.72132e-07
2.62729e-07
-9.42623e-07
-6.19174e-09
-0.00114439
1.14457e-08
-1.284e-06
2.78624e-07
-2.82916e-07
-9.42358e-07
2.62637e-07
9.4324e-07
-2.72031e-07
1.29156e-06
0.00114493
-6.14972e-09
-0.00114493
1.15042e-08
-1.28417e-06
2.78617e-07
-2.8297e-07
-9.42602e-07
2.62715e-07
-2.72112e-07
9.43514e-07
-0.000273611
2.75957e-07
2.81439e-07
1.32444e-06
1.28679e-06
-2.66018e-07
-2.73965e-07
0.000273618
-1.33183e-06
-1.29424e-06
0.000275689
-0.000273618
2.73352e-07
2.81424e-07
1.20439e-08
0.00114392
-2.88656e-07
1.33202e-06
2.83866e-07
9.43141e-07
-2.69475e-07
-9.42645e-07
2.59714e-07
-1.33011e-06
-5.5342e-09
1.20552e-08
0.00114437
-2.91459e-07
1.3377e-06
2.86681e-07
9.48829e-07
-2.72363e-07
-9.48373e-07
2.62472e-07
0.00114392
-5.5911e-09
-0.00114392
1.20215e-08
-1.32463e-06
2.83936e-07
-2.88613e-07
-9.42587e-07
2.59762e-07
-2.69416e-07
9.43202e-07
1.33753e-06
0.00114437
-5.47861e-09
-0.00114437
1.20157e-08
-1.33029e-06
2.86767e-07
-2.91402e-07
-9.48336e-07
2.62522e-07
-2.72305e-07
9.48872e-07
-2.68816e-07
-2.71152e-07
0.00027364
-1.29704e-06
0.00027572
-0.00027364
2.76298e-07
2.78593e-07
1.13992e-08
0.00114503
-2.85787e-07
1.29444e-06
2.81378e-07
9.46224e-07
-2.72178e-07
-9.45287e-07
2.627e-07
-1.32455e-06
-5.5834e-09
1.21015e-08
0.00114403
-2.91469e-07
1.33205e-06
2.86648e-07
9.45883e-07
-2.7224e-07
-9.45453e-07
2.62497e-07
0.00114503
-6.13155e-09
-0.00114503
1.13729e-08
-1.28698e-06
2.81446e-07
-2.85744e-07
-9.45245e-07
2.62757e-07
-2.72109e-07
9.46266e-07
1.33188e-06
0.00114403
-5.49309e-09
-0.00114403
1.20864e-08
-1.32473e-06
2.8673e-07
-2.91414e-07
-9.45413e-07
2.62532e-07
-2.72189e-07
9.45926e-07
-5.57441e-09
1.21082e-08
0.00114382
-2.8581e-07
1.32642e-06
2.81073e-07
9.43121e-07
-2.69487e-07
2.59688e-07
-9.42696e-07
-6.13695e-09
-0.00114476
1.14686e-08
-1.28965e-06
2.78615e-07
-2.82952e-07
-9.42535e-07
2.5998e-07
9.43383e-07
-2.69321e-07
1.32625e-06
0.00114382
-5.52402e-09
-0.00114382
1.20559e-08
-1.31911e-06
2.81156e-07
-2.85754e-07
-9.42656e-07
2.59732e-07
-2.69429e-07
9.4316e-07
-2.66196e-07
-2.73781e-07
0.000273598
-1.29137e-06
0.000275667
-0.000273598
2.73616e-07
2.81144e-07
-6.15994e-09
1.15277e-08
0.00114493
-2.83023e-07
1.29163e-06
2.78562e-07
9.43491e-07
-2.72142e-07
2.62701e-07
-9.42625e-07
-6.16179e-09
-0.00114439
1.14118e-08
-1.28407e-06
2.78666e-07
-2.82898e-07
-9.42348e-07
2.62671e-07
9.43253e-07
-2.72002e-07
1.29148e-06
0.00114493
-6.10729e-09
-0.00114493
1.14856e-08
-1.28422e-06
2.78645e-07
-2.82965e-07
-9.42596e-07
2.62743e-07
-2.72085e-07
9.43521e-07
-0.000273611
2.75938e-07
2.81405e-07
1.32452e-06
1.28687e-06
-2.66045e-07
-2.73974e-07
0.000273618
-1.33182e-06
-1.29424e-06
0.00027569
-0.000273618
2.73361e-07
2.81404e-07
1.19823e-08
0.00114392
-2.88621e-07
1.33198e-06
2.83907e-07
9.4315e-07
-2.6945e-07
-9.42622e-07
2.59719e-07
-1.33019e-06
-5.51493e-09
1.20051e-08
0.00114437
-2.91409e-07
1.33766e-06
2.86737e-07
9.48838e-07
-2.72337e-07
-9.48355e-07
2.62478e-07
0.00114392
-5.60878e-09
-0.00114392
1.19857e-08
-1.32458e-06
2.83947e-07
-2.88612e-07
-9.42602e-07
2.59765e-07
-2.69422e-07
9.43197e-07
1.33752e-06
0.00114437
-5.48001e-09
-0.00114437
1.19722e-08
-1.33023e-06
2.86779e-07
-2.91397e-07
-9.48349e-07
2.62519e-07
-2.72318e-07
9.4886e-07
-2.68831e-07
-2.71162e-07
0.00027364
-1.29703e-06
0.000275721
-0.000273641
2.76298e-07
2.78586e-07
1.13526e-08
0.00114503
-2.85756e-07
1.2944e-06
2.81414e-07
9.46229e-07
-2.72145e-07
-9.4527e-07
2.62709e-07
-1.32461e-06
-5.55969e-09
1.20587e-08
0.00114403
-2.91421e-07
1.33202e-06
2.867e-07
9.45892e-07
-2.72223e-07
-9.45435e-07
2.62495e-07
0.00114503
-6.11555e-09
-0.00114503
1.13462e-08
-1.28691e-06
2.81455e-07
-2.85747e-07
-9.45262e-07
2.6275e-07
-2.72124e-07
9.46248e-07
1.33186e-06
0.00114403
-5.49039e-09
-0.00114403
1.20516e-08
-1.32468e-06
2.86738e-07
-2.91414e-07
-9.45421e-07
2.62539e-07
-2.7219e-07
9.45919e-07
-5.56532e-09
1.20406e-08
0.00114382
-2.85769e-07
1.32641e-06
2.8112e-07
9.43121e-07
-2.69468e-07
2.59685e-07
-9.42683e-07
-6.13071e-09
-0.00114476
1.14354e-08
-1.2896e-06
2.78625e-07
-2.82952e-07
-9.42537e-07
2.59978e-07
9.43373e-07
-2.69331e-07
1.32622e-06
0.00114382
-5.52814e-09
-0.00114382
1.20334e-08
-1.31906e-06
2.81169e-07
-2.85748e-07
-9.42665e-07
2.59736e-07
-2.69436e-07
9.43154e-07
-2.66245e-07
-2.73772e-07
0.000273598
-1.29137e-06
0.000275667
-0.000273599
2.73631e-07
2.81123e-07
-6.1675e-09
1.14565e-08
0.00114493
-2.82979e-07
1.29162e-06
2.78611e-07
9.43491e-07
-2.7212e-07
2.627e-07
-9.42616e-07
-6.16119e-09
-0.00114439
1.13992e-08
-1.284e-06
2.78665e-07
-2.82905e-07
-9.42357e-07
2.62671e-07
9.43244e-07
-2.72014e-07
1.29144e-06
0.00114493
-6.10156e-09
-0.00114493
1.14485e-08
-1.28419e-06
2.78661e-07
-2.8296e-07
-9.42603e-07
2.62753e-07
-2.72087e-07
9.43516e-07
-0.000273612
2.75922e-07
2.81395e-07
1.3246e-06
1.28694e-06
-2.66062e-07
-2.74007e-07
0.000273618
-1.33185e-06
-1.29427e-06
0.00027569
-0.000273619
2.73368e-07
2.81412e-07
1.19952e-08
0.00114392
-2.88588e-07
1.33188e-06
2.83949e-07
9.43185e-07
-2.69422e-07
-9.42594e-07
2.59745e-07
-1.33025e-06
-5.50883e-09
1.19806e-08
0.00114437
-2.91373e-07
1.33757e-06
2.8678e-07
9.48861e-07
-2.72307e-07
-9.48338e-07
2.62507e-07
0.00114392
-5.55476e-09
-0.00114392
1.20785e-08
-1.32452e-06
2.83905e-07
-2.88643e-07
-9.42636e-07
2.59738e-07
-2.69446e-07
9.43152e-07
1.33754e-06
0.00114437
-5.42316e-09
-0.00114437
1.20638e-08
-1.33018e-06
2.86734e-07
-2.91432e-07
-9.48373e-07
2.62489e-07
-2.72344e-07
9.48826e-07
-2.6884e-07
-2.71181e-07
0.000273641
-1.29706e-06
0.000275721
-0.000273641
2.76297e-07
2.78585e-07
1.13475e-08
0.00114503
-2.8572e-07
1.29429e-06
2.81459e-07
9.46245e-07
-2.72117e-07
-9.45257e-07
2.62733e-07
-1.3247e-06
-5.46584e-09
1.20769e-08
0.00114403
-2.91389e-07
1.33191e-06
2.86742e-07
9.459e-07
-2.72201e-07
-9.45425e-07
2.62506e-07
0.00114503
-6.04455e-09
-0.00114503
1.14352e-08
-1.28685e-06
2.81413e-07
-2.85778e-07
-9.4529e-07
2.62709e-07
-2.7216e-07
9.46208e-07
1.33189e-06
0.00114403
-5.41868e-09
-0.00114403
1.21415e-08
-1.32462e-06
2.86692e-07
-2.91447e-07
-9.45473e-07
2.62501e-07
-2.72233e-07
9.45864e-07
-5.55706e-09
1.20501e-08
0.00114382
-2.85732e-07
1.32629e-06
2.81163e-07
9.43147e-07
-2.69432e-07
2.59719e-07
-9.42661e-07
-6.06575e-09
-0.00114476
1.15358e-08
-1.28954e-06
2.78576e-07