/*--------------------------------*- C++ -*----------------------------------*\
| =========                 |                                                 |
| \\      /  F ield         | OpenFOAM: The Open Source CFD Toolbox           |
|  \\    /   O peration     | Version:  v2012                                 |
|   \\  /    A nd           | Website:  www.openfoam.com                      |
|    \\/     M anipulation  |                                                 |
\*---------------------------------------------------------------------------*/
FoamFile
{
    version     2.0;
    format      ascii;
    class       volVectorField;
    location    "125";
    object      U;
}
// * * * * * * * * * * * * * * * * * * * * * * * * * * * * * * * * * * * * * //

dimensions      [0 1 -1 0 0 0 0];


internalField   nonuniform List<vector> 
85864
(
(-2.42733e-06 -2.4099e-06 0.110619)
(-1.42686e-06 2.92214e-06 0.108682)
(2.91185e-06 -1.42859e-06 0.108682)
(-6.69883e-05 -6.70057e-05 0.106314)
(-2.43441e-06 -2.41668e-06 0.110619)
(-1.42478e-06 2.92433e-06 0.108682)
(2.91412e-06 -1.42861e-06 0.108682)
(-6.69926e-05 -6.7008e-05 0.106314)
(-2.43006e-06 -2.41348e-06 0.110619)
(-1.42178e-06 2.9093e-06 0.108682)
(2.89235e-06 -1.42388e-06 0.108682)
(-6.70259e-05 -6.70434e-05 0.106314)
(-2.42295e-06 -2.40756e-06 0.110619)
(-1.42596e-06 2.89658e-06 0.108682)
(2.88878e-06 -1.42018e-06 0.108682)
(-6.70685e-05 -6.70896e-05 0.106314)
(-2.40762e-06 -2.39224e-06 0.110619)
(-1.42439e-06 2.90233e-06 0.108682)
(2.88793e-06 -1.42798e-06 0.108682)
(-6.70824e-05 -6.71041e-05 0.106314)
(-2.41362e-06 -2.39898e-06 0.110619)
(-1.42065e-06 2.89971e-06 0.108682)
(2.88993e-06 -1.41726e-06 0.108682)
(-6.70591e-05 -6.70776e-05 0.106314)
(-2.41238e-06 -2.39854e-06 0.110619)
(-1.42071e-06 2.90741e-06 0.108682)
(2.89843e-06 -1.42654e-06 0.108682)
(-6.70107e-05 -6.70282e-05 0.106314)
(-2.42684e-06 -2.41608e-06 0.110619)
(-1.40392e-06 2.90539e-06 0.108682)
(2.90267e-06 -1.40714e-06 0.108682)
(-6.69633e-05 -6.69846e-05 0.106314)
(-2.41998e-06 -2.40905e-06 0.110619)
(-1.41915e-06 2.92737e-06 0.108682)
(2.91869e-06 -1.42068e-06 0.108682)
(-6.6988e-05 -6.70073e-05 0.106314)
(-2.42722e-06 -2.41045e-06 0.110619)
(-1.42372e-06 2.91848e-06 0.108682)
(2.90802e-06 -1.42526e-06 0.108682)
(-6.70301e-05 -6.70434e-05 0.106314)
(-2.43302e-06 -2.41279e-06 0.110619)
(-1.41961e-06 2.90996e-06 0.108682)
(2.89861e-06 -1.4115e-06 0.108682)
(-6.70581e-05 -6.70671e-05 0.106314)
(-2.4262e-06 -2.41037e-06 0.110619)
(-1.4232e-06 2.90243e-06 0.108682)
(2.89307e-06 -1.41423e-06 0.108681)
(-6.705e-05 -6.70603e-05 0.106314)
(-2.4237e-06 -2.40799e-06 0.110619)
(-1.41999e-06 2.9007e-06 0.108682)
(2.88976e-06 -1.41712e-06 0.108681)
(-6.70112e-05 -6.70237e-05 0.106314)
(-2.42387e-06 -2.40825e-06 0.110619)
(-1.41807e-06 2.90676e-06 0.108682)
(2.89254e-06 -1.41673e-06 0.108681)
(-6.69912e-05 -6.70058e-05 0.106314)
(-2.42191e-06 -2.39961e-06 0.110619)
(-1.42204e-06 2.90757e-06 0.108682)
(2.89184e-06 -1.41782e-06 0.108681)
(-6.70129e-05 -6.70225e-05 0.106314)
(-2.41752e-06 -2.4011e-06 0.110619)
(-1.42218e-06 2.90233e-06 0.108682)
(2.89682e-06 -1.41909e-06 0.108681)
(-6.70224e-05 -6.70362e-05 0.106314)
(-2.41621e-06 -2.40931e-06 0.110619)
(-1.42114e-06 2.90046e-06 0.108682)
(2.89856e-06 -1.42071e-06 0.108681)
(-6.70174e-05 -6.7039e-05 0.106314)
(-2.42036e-06 -2.41272e-06 0.110619)
(-1.42353e-06 2.9051e-06 0.108682)
(2.89675e-06 -1.42235e-06 0.108681)
(-6.70173e-05 -6.70335e-05 0.106314)
(-2.42559e-06 -2.41159e-06 0.110619)
(-1.42738e-06 2.90626e-06 0.108682)
(2.89609e-06 -1.4205e-06 0.108681)
(-6.70326e-05 -6.70332e-05 0.106314)
(-2.4293e-06 -2.41293e-06 0.110618)
(-1.42517e-06 2.90914e-06 0.108682)
(2.89685e-06 -1.41766e-06 0.108681)
(-6.70441e-05 -6.70438e-05 0.106314)
(-2.42863e-06 -2.41403e-06 0.110618)
(-1.42311e-06 2.91393e-06 0.108682)
(2.90194e-06 -1.41612e-06 0.108681)
(-6.70462e-05 -6.70544e-05 0.106314)
(-2.42473e-06 -2.4109e-06 0.110618)
(-1.41937e-06 2.91107e-06 0.108682)
(2.90353e-06 -1.41217e-06 0.108681)
(-6.70472e-05 -6.70577e-05 0.106314)
(-2.42192e-06 -2.40755e-06 0.110618)
(-1.41544e-06 2.90803e-06 0.108682)
(2.90968e-06 -1.4031e-06 0.108681)
(-6.70366e-05 -6.70381e-05 0.106314)
(-2.42105e-06 -2.40795e-06 0.110618)
(-1.41872e-06 2.90912e-06 0.108682)
(2.90936e-06 -1.41466e-06 0.108681)
(-6.70261e-05 -6.70291e-05 0.106313)
(-2.42306e-06 -2.41022e-06 0.110618)
(-1.41933e-06 2.90736e-06 0.108682)
(2.90178e-06 -1.41557e-06 0.108681)
(-6.70301e-05 -6.70379e-05 0.106313)
(-2.41178e-06 -2.39914e-06 0.110618)
(-1.43156e-06 2.91412e-06 0.108682)
(2.90672e-06 -1.42682e-06 0.108681)
(-6.70244e-05 -6.70314e-05 0.106313)
(-2.39884e-06 -2.38531e-06 0.110618)
(-1.4541e-06 2.93497e-06 0.108682)
(2.92573e-06 -1.44792e-06 0.108681)
(-6.70321e-05 -6.70381e-05 0.106313)
(-2.37943e-06 -2.36597e-06 0.110619)
(-1.48983e-06 2.95606e-06 0.108682)
(2.94575e-06 -1.48373e-06 0.108681)
(-6.7065e-05 -6.7072e-05 0.106313)
(-2.38854e-06 -2.37665e-06 0.110619)
(-1.47322e-06 2.92945e-06 0.108682)
(2.925e-06 -1.46891e-06 0.108681)
(-6.70649e-05 -6.70732e-05 0.106313)
(-2.41827e-06 -2.40621e-06 0.110619)
(-1.4295e-06 2.8983e-06 0.108682)
(2.90083e-06 -1.42841e-06 0.108682)
(-6.70561e-05 -6.70646e-05 0.106313)
(-2.43409e-06 -2.42091e-06 0.110619)
(-1.41232e-06 2.89335e-06 0.108682)
(2.89069e-06 -1.41056e-06 0.108682)
(-6.70585e-05 -6.70669e-05 0.106314)
(-2.42877e-06 -2.41567e-06 0.110619)
(-1.41877e-06 2.90045e-06 0.108682)
(2.89522e-06 -1.41519e-06 0.108682)
(-6.70611e-05 -6.70689e-05 0.106314)
(-2.41706e-06 -2.40459e-06 0.110619)
(-1.4273e-06 2.90649e-06 0.108683)
(2.90004e-06 -1.42341e-06 0.108682)
(-6.70573e-05 -6.70662e-05 0.106314)
(-2.40293e-06 -2.39059e-06 0.110619)
(-1.43774e-06 2.90975e-06 0.108683)
(2.90263e-06 -1.43377e-06 0.108682)
(-6.70489e-05 -6.70583e-05 0.106314)
(-2.3863e-06 -2.37379e-06 0.11062)
(-1.45288e-06 2.91599e-06 0.108683)
(2.90722e-06 -1.4485e-06 0.108682)
(-6.70366e-05 -6.70456e-05 0.106314)
(-2.36663e-06 -2.35403e-06 0.11062)
(-1.47545e-06 2.92787e-06 0.108683)
(2.91892e-06 -1.472e-06 0.108683)
(-6.70127e-05 -6.70213e-05 0.106314)
(-2.34061e-06 -2.32802e-06 0.110621)
(-1.51559e-06 2.95129e-06 0.108684)
(2.94399e-06 -1.51224e-06 0.108683)
(-6.69655e-05 -6.69735e-05 0.106314)
(-2.30663e-06 -2.29377e-06 0.110621)
(-1.57943e-06 2.98818e-06 0.108684)
(2.98217e-06 -1.57631e-06 0.108684)
(-6.68878e-05 -6.6896e-05 0.106314)
(-2.26454e-06 -2.25202e-06 0.110623)
(-1.6834e-06 3.05746e-06 0.108685)
(3.05138e-06 -1.67931e-06 0.108685)
(-6.6761e-05 -6.6769e-05 0.106315)
(-2.2245e-06 -2.21199e-06 0.110624)
(-1.84593e-06 3.17792e-06 0.108687)
(3.17087e-06 -1.84085e-06 0.108686)
(-6.6548e-05 -6.65557e-05 0.106315)
(-2.20383e-06 -2.19092e-06 0.110626)
(-2.09724e-06 3.37342e-06 0.108689)
(3.36679e-06 -2.09224e-06 0.108688)
(-6.61822e-05 -6.619e-05 0.106317)
(-2.23153e-06 -2.21667e-06 0.110629)
(-2.50689e-06 3.70246e-06 0.108692)
(3.69764e-06 -2.50038e-06 0.108691)
(-6.55285e-05 -6.55314e-05 0.106319)
(-2.36077e-06 -2.34638e-06 0.110632)
(-3.15595e-06 4.24963e-06 0.108696)
(4.24633e-06 -3.1497e-06 0.108695)
(-6.4356e-05 -6.43639e-05 0.106324)
(-2.70414e-06 -2.68763e-06 0.110636)
(-4.15735e-06 5.16458e-06 0.108702)
(5.16358e-06 -4.15185e-06 0.108701)
(-6.22042e-05 -6.22072e-05 0.106332)
(-3.37625e-06 -3.3568e-06 0.110641)
(-5.74921e-06 6.69791e-06 0.10871)
(6.69235e-06 -5.744e-06 0.108709)
(-5.80675e-05 -5.80695e-05 0.106349)
(-4.81739e-06 -4.789e-06 0.110648)
(-8.29701e-06 9.24689e-06 0.108721)
(9.23156e-06 -8.27004e-06 0.10872)
(-4.97293e-05 -4.97113e-05 0.10638)
(-1.17867e-05 -1.17194e-05 0.110648)
(-6.80876e-06 1.11029e-05 0.108735)
(1.10608e-05 -6.78629e-06 0.108734)
(-2.94593e-05 -2.94326e-05 0.106436)
(-3.42384e-05 -3.41103e-05 0.110662)
(5.62162e-05 -3.88964e-05 0.108809)
(-3.89812e-05 5.61987e-05 0.108809)
(4.43568e-05 4.43914e-05 0.106705)
(6.69787e-05 6.69563e-05 0.106314)
(-7.29399e-05 -7.29105e-05 0.106513)
(2.99948e-06 1.51151e-06 0.108681)
(-3.01011e-06 1.53202e-06 0.10868)
(2.98738e-06 1.50381e-06 0.108681)
(-3.00251e-06 1.53115e-06 0.10868)
(-6.69697e-05 6.69224e-05 0.106314)
(7.29516e-05 -7.29277e-05 0.106514)
(1.43876e-06 2.91929e-06 0.108682)
(1.52001e-06 -2.99943e-06 0.10868)
(1.43257e-06 2.90988e-06 0.108682)
(1.51368e-06 -2.98323e-06 0.10868)
(-1.51487e-06 -2.98517e-06 0.108681)
(-1.42396e-06 2.91511e-06 0.108682)
(-1.51393e-06 -2.97796e-06 0.108681)
(6.69466e-05 -6.70153e-05 0.106314)
(-7.29279e-05 7.29384e-05 0.106513)
(-2.90556e-06 -1.42938e-06 0.108681)
(2.9025e-06 -1.4265e-06 0.108682)
(-2.89718e-06 -1.42667e-06 0.108681)
(7.29036e-05 7.2927e-05 0.106512)
(6.69871e-05 6.69652e-05 0.106314)
(-7.28934e-05 -7.28557e-05 0.106513)
(2.99879e-06 1.51048e-06 0.108681)
(-3.01139e-06 1.53093e-06 0.108681)
(2.97479e-06 1.50209e-06 0.108681)
(-2.98467e-06 1.52489e-06 0.108681)
(-6.69783e-05 6.69314e-05 0.106314)
(7.2905e-05 -7.28798e-05 0.106514)
(1.4363e-06 2.92043e-06 0.108682)
(1.51404e-06 -2.9949e-06 0.10868)
(1.42748e-06 2.89394e-06 0.108682)
(1.51655e-06 -2.97445e-06 0.10868)
(-1.51408e-06 -2.98812e-06 0.108681)
(-1.42105e-06 2.89697e-06 0.108682)
(-1.50841e-06 -2.95909e-06 0.108681)
(6.69442e-05 -6.70248e-05 0.106314)
(-7.28628e-05 7.28956e-05 0.106513)
(-2.90903e-06 -1.42835e-06 0.108681)
(2.88253e-06 -1.42001e-06 0.108682)
(-2.88217e-06 -1.42378e-06 0.108681)
(7.2859e-05 7.28762e-05 0.106513)
(6.70265e-05 6.7011e-05 0.106314)
(-7.2881e-05 -7.28535e-05 0.106513)
(2.98138e-06 1.50928e-06 0.108681)
(-2.99692e-06 1.52986e-06 0.108681)
(2.96852e-06 1.49976e-06 0.108681)
(-2.97833e-06 1.5259e-06 0.108681)
(-6.70185e-05 6.6975e-05 0.106314)
(7.28972e-05 -7.28748e-05 0.106514)
(1.43396e-06 2.90451e-06 0.108682)
(1.51663e-06 -2.98391e-06 0.10868)
(1.43252e-06 2.89154e-06 0.108682)
(1.51606e-06 -2.96715e-06 0.10868)
(-1.51337e-06 -2.97171e-06 0.108681)
(-1.42427e-06 2.8922e-06 0.108682)
(-1.50934e-06 -2.95491e-06 0.108681)
(6.70009e-05 -6.70573e-05 0.106314)
(-7.2861e-05 7.2881e-05 0.106513)
(-2.89082e-06 -1.42494e-06 0.108681)
(2.88212e-06 -1.42239e-06 0.108682)
(-2.8763e-06 -1.42468e-06 0.108681)
(7.28391e-05 7.28594e-05 0.106513)
(6.70677e-05 6.70467e-05 0.106314)
(-7.29018e-05 -7.28738e-05 0.106513)
(2.97441e-06 1.50566e-06 0.108681)
(-2.98385e-06 1.52403e-06 0.108681)
(2.98344e-06 1.50193e-06 0.108681)
(-2.99404e-06 1.52802e-06 0.108681)
(-6.70533e-05 6.7005e-05 0.106314)
(7.29142e-05 -7.28905e-05 0.106514)
(1.43383e-06 2.89544e-06 0.108682)
(1.52074e-06 -2.97367e-06 0.10868)
(1.43643e-06 2.90608e-06 0.108682)
(1.52114e-06 -2.98217e-06 0.10868)
(-1.50863e-06 -2.96256e-06 0.108681)
(-1.42839e-06 2.90876e-06 0.108682)
(-1.51074e-06 -2.96864e-06 0.108681)
(6.70349e-05 -6.71024e-05 0.106314)
(-7.28799e-05 7.29022e-05 0.106513)
(-2.8841e-06 -1.42418e-06 0.108681)
(2.89596e-06 -1.42587e-06 0.108682)
(-2.88835e-06 -1.42912e-06 0.108681)
(7.28564e-05 7.28759e-05 0.106513)
(6.70775e-05 6.7055e-05 0.106314)
(-7.29433e-05 -7.29129e-05 0.106513)
(2.97697e-06 1.50784e-06 0.108681)
(-2.98652e-06 1.53041e-06 0.108681)
(2.99304e-06 1.50141e-06 0.108681)
(-3.00062e-06 1.52449e-06 0.108681)
(-6.70655e-05 6.70189e-05 0.106315)
(7.29541e-05 -7.29294e-05 0.106514)
(1.43949e-06 2.89863e-06 0.108682)
(1.51312e-06 -2.97581e-06 0.10868)
(1.4325e-06 2.91742e-06 0.108682)
(1.51544e-06 -2.99221e-06 0.10868)
(-1.51293e-06 -2.96435e-06 0.108681)
(-1.41925e-06 2.91565e-06 0.108682)
(-1.50825e-06 -2.97799e-06 0.108681)
(6.70431e-05 -6.7111e-05 0.106314)
(-7.2918e-05 7.29407e-05 0.106513)
(-2.88339e-06 -1.43082e-06 0.108681)
(2.90578e-06 -1.42517e-06 0.108682)
(-2.90028e-06 -1.42403e-06 0.108681)
(7.28965e-05 7.29179e-05 0.106513)
(6.70487e-05 6.70266e-05 0.106314)
(-7.29769e-05 -7.29453e-05 0.106513)
(2.97642e-06 1.49928e-06 0.108681)
(-2.98788e-06 1.51998e-06 0.108681)
(3.00053e-06 1.5025e-06 0.108681)
(-3.00426e-06 1.52442e-06 0.108681)
(-6.70385e-05 6.69909e-05 0.106315)
(7.29847e-05 -7.29667e-05 0.106514)
(1.42958e-06 2.89861e-06 0.108682)
(1.51744e-06 -2.97753e-06 0.10868)
(1.43511e-06 2.92281e-06 0.108682)
(1.51273e-06 -2.99526e-06 0.10868)
(-1.5038e-06 -2.96071e-06 0.108681)
(-1.4238e-06 2.92041e-06 0.108682)
(-1.51272e-06 -2.98932e-06 0.108681)
(6.70175e-05 -6.70844e-05 0.106314)
(-7.2955e-05 7.2974e-05 0.106513)
(-2.8828e-06 -1.41909e-06 0.108681)
(2.90848e-06 -1.42625e-06 0.108682)
(-2.91059e-06 -1.42812e-06 0.108681)
(7.29348e-05 7.29582e-05 0.106513)
(6.7003e-05 6.6983e-05 0.106314)
(-7.29761e-05 -7.29517e-05 0.106513)
(2.99519e-06 1.5019e-06 0.108681)
(-2.99375e-06 1.51654e-06 0.108681)
(2.99197e-06 1.48864e-06 0.108681)
(-2.99005e-06 1.49876e-06 0.108681)
(-6.69962e-05 6.69414e-05 0.106315)
(7.30001e-05 -7.29883e-05 0.106514)
(1.43524e-06 2.91642e-06 0.108682)
(1.5039e-06 -2.98789e-06 0.10868)
(1.41977e-06 2.91256e-06 0.108682)
(1.50397e-06 -2.99429e-06 0.10868)
(-1.51116e-06 -2.98255e-06 0.108681)
(-1.40155e-06 2.90532e-06 0.108682)
(-1.49411e-06 -2.97998e-06 0.108681)
(6.6969e-05 -6.70416e-05 0.106314)
(-7.29564e-05 7.298e-05 0.106513)
(-2.90215e-06 -1.42765e-06 0.108681)
(2.9048e-06 -1.40992e-06 0.108682)
(-2.89719e-06 -1.41521e-06 0.108681)
(7.29394e-05 7.29575e-05 0.106513)
(6.69705e-05 6.69435e-05 0.106314)
(-7.29492e-05 -7.29298e-05 0.106513)
(2.98442e-06 1.49306e-06 0.108681)
(-2.9889e-06 1.50365e-06 0.108681)
(2.99864e-06 1.48751e-06 0.108681)
(-3.0112e-06 1.52149e-06 0.108681)
(-6.69514e-05 6.68917e-05 0.106315)
(7.2961e-05 -7.29376e-05 0.106514)
(1.42524e-06 2.90439e-06 0.108682)
(1.51279e-06 -2.9928e-06 0.10868)
(1.43252e-06 2.91891e-06 0.108682)
(1.51475e-06 -2.9964e-06 0.10868)
(-1.49791e-06 -2.97689e-06 0.108681)
(-1.42441e-06 2.92478e-06 0.108682)
(-1.49911e-06 -2.97984e-06 0.108681)
(6.69401e-05 -6.7002e-05 0.106314)
(-7.29204e-05 7.29498e-05 0.106513)
(-2.89313e-06 -1.41693e-06 0.108681)
(2.91448e-06 -1.42157e-06 0.108682)
(-2.89889e-06 -1.41774e-06 0.108681)
(7.28872e-05 7.29077e-05 0.106513)
(6.69769e-05 6.69462e-05 0.106314)
(-7.29312e-05 -7.28965e-05 0.106513)
(3.00693e-06 1.49663e-06 0.108681)
(-3.01281e-06 1.51695e-06 0.108681)
(2.98843e-06 1.49457e-06 0.108681)
(-2.99401e-06 1.52204e-06 0.10868)
(-6.69618e-05 6.6914e-05 0.106314)
(7.29366e-05 -7.29167e-05 0.106514)
(1.43338e-06 2.92604e-06 0.108682)
(1.51121e-06 -2.99974e-06 0.10868)
(1.42895e-06 2.91591e-06 0.108682)
(1.51192e-06 -2.98607e-06 0.10868)
(-1.50308e-06 -2.99517e-06 0.108681)
(-1.4196e-06 2.90842e-06 0.108682)
(-1.49747e-06 -2.96555e-06 0.108681)
(6.69432e-05 -6.70073e-05 0.106314)
(-7.28987e-05 7.29195e-05 0.106513)
(-2.91496e-06 -1.42347e-06 0.108681)
(2.89822e-06 -1.41976e-06 0.108682)
(-2.88758e-06 -1.41332e-06 0.108681)
(7.28415e-05 7.28659e-05 0.106513)
(6.69751e-05 6.69582e-05 0.106314)
(-7.29093e-05 -7.28674e-05 0.106513)
(2.99382e-06 1.50201e-06 0.108681)
(-3.00425e-06 1.52599e-06 0.10868)
(2.9746e-06 1.49093e-06 0.108681)
(-2.98662e-06 1.5177e-06 0.10868)
(-6.69705e-05 6.69192e-05 0.106314)
(7.29103e-05 -7.28904e-05 0.106514)
(1.43144e-06 2.92356e-06 0.108682)
(1.51091e-06 -2.99377e-06 0.10868)
(1.41439e-06 2.90766e-06 0.108682)
(1.5036e-06 -2.97629e-06 0.10868)
(-1.50553e-06 -2.97312e-06 0.108681)
(-1.41914e-06 2.89916e-06 0.108682)
(-1.49395e-06 -2.95659e-06 0.10868)
(6.69524e-05 -6.70184e-05 0.106314)
(-7.28782e-05 7.28926e-05 0.106513)
(-2.89733e-06 -1.42014e-06 0.108681)
(2.88759e-06 -1.40996e-06 0.108682)
(-2.88768e-06 -1.40519e-06 0.108681)
(7.28385e-05 7.28691e-05 0.106513)
(6.69895e-05 6.69793e-05 0.106314)
(-7.288e-05 -7.28474e-05 0.106513)
(2.98144e-06 1.49788e-06 0.108681)
(-2.99725e-06 1.52063e-06 0.10868)
(2.97284e-06 1.48671e-06 0.108681)
(-2.98683e-06 1.5164e-06 0.10868)
(-6.69934e-05 6.69409e-05 0.106314)
(7.28939e-05 -7.28793e-05 0.106514)
(1.41951e-06 2.915e-06 0.108682)
(1.50887e-06 -2.98804e-06 0.10868)
(1.41894e-06 2.90286e-06 0.108681)
(1.50527e-06 -2.9767e-06 0.10868)
(-1.49901e-06 -2.95556e-06 0.10868)
(-1.42395e-06 2.89628e-06 0.108682)
(-1.49696e-06 -2.96601e-06 0.10868)
(6.6973e-05 -6.70425e-05 0.106314)
(-7.28639e-05 7.28769e-05 0.106513)
(-2.88571e-06 -1.4079e-06 0.108681)
(2.88863e-06 -1.41581e-06 0.108681)
(-2.89573e-06 -1.41041e-06 0.108681)
(7.28735e-05 7.2905e-05 0.106513)
(6.70283e-05 6.70105e-05 0.106314)
(-7.28783e-05 -7.28474e-05 0.106513)
(2.98317e-06 1.49477e-06 0.108681)
(-2.99409e-06 1.51529e-06 0.10868)
(2.97477e-06 1.48954e-06 0.108681)
(-2.98823e-06 1.52158e-06 0.10868)
(-6.70213e-05 6.69641e-05 0.106314)
(7.29019e-05 -7.28836e-05 0.106514)
(1.42273e-06 2.91182e-06 0.108681)
(1.50711e-06 -2.98209e-06 0.10868)
(1.42436e-06 2.90485e-06 0.108681)
(1.50801e-06 -2.97482e-06 0.10868)
(-1.49895e-06 -2.96104e-06 0.10868)
(-1.42335e-06 2.90158e-06 0.108682)
(-1.50045e-06 -2.97437e-06 0.10868)
(6.69983e-05 -6.70739e-05 0.106314)
(-7.28738e-05 7.28921e-05 0.106513)
(-2.88946e-06 -1.4124e-06 0.108681)
(2.88982e-06 -1.41742e-06 0.108681)
(-2.901e-06 -1.41783e-06 0.108681)
(7.29062e-05 7.29353e-05 0.106513)
(6.70524e-05 6.7032e-05 0.106314)
(-7.29088e-05 -7.28734e-05 0.106513)
(2.9751e-06 1.49434e-06 0.108681)
(-2.98976e-06 1.52021e-06 0.10868)
(2.97283e-06 1.48646e-06 0.108681)
(-2.99163e-06 1.52307e-06 0.10868)
(-6.70308e-05 6.69795e-05 0.106314)
(7.29162e-05 -7.28906e-05 0.106514)
(1.42483e-06 2.90455e-06 0.108681)
(1.50603e-06 -2.97531e-06 0.10868)
(1.42064e-06 2.90254e-06 0.108681)
(1.50809e-06 -2.98104e-06 0.10868)
(-1.49947e-06 -2.96787e-06 0.10868)
(-1.41728e-06 2.90738e-06 0.108682)
(-1.49118e-06 -2.96015e-06 0.10868)
(6.70098e-05 -6.70835e-05 0.106314)
(-7.28964e-05 7.29157e-05 0.106513)
(-2.89353e-06 -1.41887e-06 0.108681)
(2.89775e-06 -1.41649e-06 0.108681)
(-2.8848e-06 -1.41225e-06 0.108681)
(7.29023e-05 7.29269e-05 0.106512)
(6.70482e-05 6.70334e-05 0.106314)
(-7.29426e-05 -7.28953e-05 0.106513)
(2.9682e-06 1.49166e-06 0.108681)
(-2.99107e-06 1.52162e-06 0.10868)
(2.97902e-06 1.49701e-06 0.108681)
(-2.99386e-06 1.52688e-06 0.10868)
(-6.7033e-05 6.69866e-05 0.106314)
(7.29305e-05 -7.29038e-05 0.106514)
(1.42149e-06 2.89852e-06 0.108681)
(1.50667e-06 -2.97724e-06 0.10868)
(1.41923e-06 2.91761e-06 0.108681)
(1.50991e-06 -2.9851e-06 0.10868)
(-1.49562e-06 -2.96475e-06 0.10868)
(-1.42027e-06 2.91409e-06 0.108682)
(-1.49465e-06 -2.95929e-06 0.10868)
(6.70038e-05 -6.70755e-05 0.106314)
(-7.29153e-05 7.29376e-05 0.106513)
(-2.88826e-06 -1.41687e-06 0.108681)
(2.89785e-06 -1.41683e-06 0.108681)
(-2.88612e-06 -1.41098e-06 0.108681)
(7.28742e-05 7.29038e-05 0.106512)
(6.70295e-05 6.70262e-05 0.106314)
(-7.2964e-05 -7.29246e-05 0.106513)
(2.96811e-06 1.50283e-06 0.108681)
(-2.98627e-06 1.5276e-06 0.10868)
(2.9844e-06 1.50282e-06 0.108681)
(-2.99072e-06 1.53264e-06 0.10868)
(-6.70303e-05 6.69868e-05 0.106314)
(7.29559e-05 -7.29285e-05 0.106514)
(1.4207e-06 2.90857e-06 0.108681)
(1.50915e-06 -2.97877e-06 0.10868)
(1.42694e-06 2.92074e-06 0.108681)
(1.51699e-06 -2.98494e-06 0.10868)
(-1.50225e-06 -2.96592e-06 0.10868)
(-1.42287e-06 2.91338e-06 0.108682)
(-1.49794e-06 -2.96088e-06 0.10868)
(6.69903e-05 -6.70579e-05 0.106314)
(-7.29202e-05 7.29478e-05 0.106513)
(-2.89247e-06 -1.41774e-06 0.108681)
(2.90182e-06 -1.41847e-06 0.108681)
(-2.88779e-06 -1.41427e-06 0.108681)
(7.28659e-05 7.28931e-05 0.106512)
(6.70095e-05 6.69953e-05 0.106314)
(-7.29664e-05 -7.29438e-05 0.106513)
(2.97451e-06 1.50407e-06 0.108681)
(-2.981e-06 1.5306e-06 0.10868)
(2.99294e-06 1.49516e-06 0.108681)
(-2.99348e-06 1.52867e-06 0.10868)
(-6.7014e-05 6.69708e-05 0.106314)
(7.29747e-05 -7.29525e-05 0.106514)
(1.42996e-06 2.90703e-06 0.108681)
(1.51794e-06 -2.97834e-06 0.10868)
(1.43763e-06 2.91443e-06 0.108681)
(1.52313e-06 -2.98497e-06 0.10868)
(-1.50335e-06 -2.96537e-06 0.10868)
(-1.42274e-06 2.91095e-06 0.108682)
(-1.49671e-06 -2.96748e-06 0.10868)
(6.69868e-05 -6.70476e-05 0.106314)
(-7.29253e-05 7.29538e-05 0.106513)
(-2.88992e-06 -1.42066e-06 0.108681)
(2.90604e-06 -1.4203e-06 0.108681)
(-2.88772e-06 -1.42026e-06 0.108681)
(7.28723e-05 7.28915e-05 0.106512)
(6.69939e-05 6.69646e-05 0.106314)
(-7.29616e-05 -7.29364e-05 0.106513)
(2.9858e-06 1.49654e-06 0.108681)
(-2.98464e-06 1.52483e-06 0.10868)
(2.99355e-06 1.49107e-06 0.108681)
(-3.00118e-06 1.52499e-06 0.10868)
(-6.69968e-05 6.69471e-05 0.106314)
(7.29799e-05 -7.29636e-05 0.106514)
(1.4379e-06 2.90601e-06 0.108681)
(1.52145e-06 -2.9798e-06 0.10868)
(1.43545e-06 2.91494e-06 0.108681)
(1.5188e-06 -2.99104e-06 0.10868)
(-1.49998e-06 -2.97125e-06 0.10868)
(-1.42341e-06 2.91268e-06 0.108682)
(-1.49465e-06 -2.96977e-06 0.10868)
(6.69814e-05 -6.7043e-05 0.106314)
(-7.29386e-05 7.29593e-05 0.106513)
(-2.88921e-06 -1.42566e-06 0.108681)
(2.9049e-06 -1.42292e-06 0.108681)
(-2.88994e-06 -1.4225e-06 0.108681)
(7.287e-05 7.2892e-05 0.106512)
(6.69803e-05 6.6955e-05 0.106314)
(-7.29551e-05 -7.29219e-05 0.106513)
(2.98925e-06 1.49475e-06 0.108681)
(-2.99535e-06 1.52155e-06 0.10868)
(2.98651e-06 1.49063e-06 0.108681)
(-3.0051e-06 1.52329e-06 0.10868)
(-6.69836e-05 6.69279e-05 0.106314)
(7.29764e-05 -7.29635e-05 0.106514)
(1.43408e-06 2.91326e-06 0.108681)
(1.51469e-06 -2.9851e-06 0.10868)
(1.42823e-06 2.91631e-06 0.108681)
(1.51104e-06 -2.99189e-06 0.10868)
(-1.50008e-06 -2.97276e-06 0.10868)
(-1.42726e-06 2.91055e-06 0.108682)
(-1.50051e-06 -2.95984e-06 0.10868)
(6.69664e-05 -6.70366e-05 0.106314)
(-7.29485e-05 7.29649e-05 0.106513)
(-2.89506e-06 -1.42533e-06 0.108681)
(2.90194e-06 -1.42102e-06 0.108681)
(-2.89385e-06 -1.41368e-06 0.108681)
(7.28536e-05 7.28911e-05 0.106512)
(6.69744e-05 6.69567e-05 0.106314)
(-7.29497e-05 -7.29153e-05 0.106513)
(2.98509e-06 1.49581e-06 0.108681)
(-3.00126e-06 1.52156e-06 0.10868)
(2.98144e-06 1.49077e-06 0.10868)
(-3.00187e-06 1.52409e-06 0.10868)
(-6.69718e-05 6.69141e-05 0.106314)
(7.29699e-05 -7.29546e-05 0.106514)
(1.42873e-06 2.91687e-06 0.108681)
(1.5081e-06 -2.98613e-06 0.10868)
(1.42551e-06 2.91439e-06 0.108681)
(1.5078e-06 -2.98675e-06 0.10868)
(-1.50726e-06 -2.96318e-06 0.10868)
(-1.42653e-06 2.90898e-06 0.108682)
(-1.50147e-06 -2.95306e-06 0.10868)
(6.695e-05 -6.70236e-05 0.106314)
(-7.29468e-05 7.29631e-05 0.106512)
(-2.89935e-06 -1.41667e-06 0.108681)
(2.89874e-06 -1.41894e-06 0.108681)
(-2.89288e-06 -1.40754e-06 0.108681)
(7.28487e-05 7.28891e-05 0.106512)
(6.69738e-05 6.69567e-05 0.106314)
(-7.29426e-05 -7.29095e-05 0.106513)
(2.98168e-06 1.49476e-06 0.10868)
(-3.00087e-06 1.5222e-06 0.10868)
(2.98025e-06 1.48916e-06 0.10868)
(-2.99723e-06 1.52271e-06 0.10868)
(-6.69637e-05 6.69087e-05 0.106314)
(7.29544e-05 -7.29375e-05 0.106513)
(1.42607e-06 2.91462e-06 0.108681)
(1.50615e-06 -2.98428e-06 0.10868)
(1.42466e-06 2.91104e-06 0.108681)
(1.50929e-06 -2.98501e-06 0.10868)
(-1.50464e-06 -2.95527e-06 0.10868)
(-1.42343e-06 2.90929e-06 0.108682)
(-1.49656e-06 -2.95636e-06 0.10868)
(6.69411e-05 -6.70135e-05 0.106314)
(-7.29326e-05 7.29534e-05 0.106512)
(-2.89339e-06 -1.41031e-06 0.108681)
(2.89985e-06 -1.41632e-06 0.108681)
(-2.89096e-06 -1.40864e-06 0.108681)
(7.28594e-05 7.28918e-05 0.106512)
(6.6977e-05 6.69589e-05 0.106314)
(-7.29305e-05 -7.28963e-05 0.106513)
(2.98436e-06 1.49445e-06 0.10868)
(-3.00129e-06 1.52203e-06 0.10868)
(2.97945e-06 1.4887e-06 0.10868)
(-2.98928e-06 1.5211e-06 0.10868)
(-6.69676e-05 6.69141e-05 0.106314)
(7.29363e-05 -7.29148e-05 0.106513)
(1.42626e-06 2.91471e-06 0.108681)
(1.50973e-06 -2.98702e-06 0.10868)
(1.42383e-06 2.90963e-06 0.108681)
(1.51125e-06 -2.98304e-06 0.10868)
(-1.49949e-06 -2.95765e-06 0.10868)
(-1.41777e-06 2.90507e-06 0.108682)
(-1.49266e-06 -2.96011e-06 0.10868)
(6.69471e-05 -6.70147e-05 0.106314)
(-7.29216e-05 7.29489e-05 0.106512)
(-2.88984e-06 -1.41219e-06 0.108681)
(2.90159e-06 -1.41244e-06 0.108681)
(-2.89132e-06 -1.40995e-06 0.108681)
(7.28693e-05 7.28984e-05 0.106512)
(6.69892e-05 6.69724e-05 0.106314)
(-7.293e-05 -7.28941e-05 0.106513)
(2.9847e-06 1.4963e-06 0.10868)
(-2.99493e-06 1.52314e-06 0.10868)
(2.9838e-06 1.49344e-06 0.10868)
(-2.98922e-06 1.52582e-06 0.10868)
(-6.69828e-05 6.69343e-05 0.106314)
(7.29314e-05 -7.29052e-05 0.106513)
(1.4271e-06 2.91493e-06 0.108681)
(1.51272e-06 -2.98379e-06 0.10868)
(1.42713e-06 2.91534e-06 0.108681)
(1.51614e-06 -2.98145e-06 0.10868)
(-1.49758e-06 -2.95817e-06 0.10868)
(-1.41716e-06 2.90769e-06 0.108682)
(-1.4967e-06 -2.96532e-06 0.10868)
(6.69552e-05 -6.70166e-05 0.106314)
(-7.29207e-05 7.29588e-05 0.106512)
(-2.88914e-06 -1.4131e-06 0.108681)
(2.90962e-06 -1.40481e-06 0.108681)
(-2.90281e-06 -1.40772e-06 0.108681)
(7.28847e-05 7.29231e-05 0.106512)
(6.69945e-05 6.69791e-05 0.106314)
(-7.29382e-05 -7.29034e-05 0.106513)
(2.98385e-06 1.49731e-06 0.10868)
(-2.98996e-06 1.52439e-06 0.10868)
(2.9843e-06 1.49407e-06 0.10868)
(-2.993e-06 1.52804e-06 0.10868)
(-6.69962e-05 6.6952e-05 0.106314)
(7.29398e-05 -7.2916e-05 0.106513)
(1.42717e-06 2.91511e-06 0.108681)
(1.5143e-06 -2.9798e-06 0.10868)
(1.42919e-06 2.91577e-06 0.108681)
(1.51674e-06 -2.98174e-06 0.10868)
(-1.4984e-06 -2.95743e-06 0.10868)
(-1.42026e-06 2.9103e-06 0.108682)
(-1.4985e-06 -2.96384e-06 0.10868)
(6.69555e-05 -6.70076e-05 0.106314)
(-7.29169e-05 7.2948e-05 0.106512)
(-2.89588e-06 -1.40514e-06 0.108681)
(2.90855e-06 -1.41391e-06 0.108681)
(-2.90282e-06 -1.41282e-06 0.108681)
(7.2888e-05 7.29264e-05 0.106512)
(6.69887e-05 6.69721e-05 0.106314)
(-7.29395e-05 -7.29051e-05 0.106513)
(2.98537e-06 1.49812e-06 0.10868)
(-2.99275e-06 1.52599e-06 0.10868)
(2.98296e-06 1.49111e-06 0.10868)
(-2.99684e-06 1.52466e-06 0.10868)
(-6.69969e-05 6.69496e-05 0.106314)
(7.29576e-05 -7.2937e-05 0.106513)
(1.42968e-06 2.9167e-06 0.108681)
(1.51497e-06 -2.98563e-06 0.10868)
(1.42729e-06 2.91359e-06 0.108681)
(1.51106e-06 -2.98225e-06 0.10868)
(-1.5006e-06 -2.96297e-06 0.10868)
(-1.4206e-06 2.91087e-06 0.108682)
(-1.49497e-06 -2.9639e-06 0.10868)
(6.69573e-05 -6.70169e-05 0.106314)
(-7.29101e-05 7.29324e-05 0.106512)
(-2.89943e-06 -1.41623e-06 0.108681)
(2.89973e-06 -1.41532e-06 0.108681)
(-2.89703e-06 -1.41363e-06 0.108681)
(7.28877e-05 7.292e-05 0.106512)
(6.69913e-05 6.69744e-05 0.106314)
(-7.2938e-05 -7.29027e-05 0.106513)
(2.98452e-06 1.49614e-06 0.10868)
(-2.99443e-06 1.52262e-06 0.10868)
(2.99126e-06 1.50125e-06 0.10868)
(-3.00894e-06 1.53474e-06 0.10868)
(-6.69921e-05 6.6941e-05 0.106314)
(7.29727e-05 -7.29518e-05 0.106513)
(1.4281e-06 2.91523e-06 0.108681)
(1.51112e-06 -2.98533e-06 0.10868)
(1.4371e-06 2.92175e-06 0.108681)
(1.52094e-06 -2.99426e-06 0.10868)
(-1.4983e-06 -2.96105e-06 0.10868)
(-1.43196e-06 2.92206e-06 0.108682)
(-1.50636e-06 -2.97655e-06 0.10868)
(6.69705e-05 -6.7038e-05 0.106314)
(-7.29166e-05 7.29377e-05 0.106512)
(-2.89393e-06 -1.41436e-06 0.108681)
(2.91102e-06 -1.42706e-06 0.108681)
(-2.91013e-06 -1.4242e-06 0.108681)
(7.2898e-05 7.29307e-05 0.106512)
(6.69973e-05 6.69815e-05 0.106314)
(-7.2923e-05 -7.28877e-05 0.106513)
(2.98982e-06 1.50767e-06 0.10868)
(-3.00148e-06 1.53346e-06 0.10868)
(3.00005e-06 1.51963e-06 0.10868)
(-3.02031e-06 1.55392e-06 0.10868)
(-6.69885e-05 6.69379e-05 0.106314)
(7.29636e-05 -7.29414e-05 0.106513)
(1.43942e-06 2.92077e-06 0.108681)
(1.52125e-06 -2.99023e-06 0.10868)
(1.4555e-06 2.9313e-06 0.108681)
(1.53963e-06 -3.0067e-06 0.10868)
(-1.51062e-06 -2.97114e-06 0.10868)
(-1.45092e-06 2.93389e-06 0.108682)
(-1.52426e-06 -2.98548e-06 0.10868)
(6.69766e-05 -6.70449e-05 0.106314)
(-7.29177e-05 7.29409e-05 0.106512)
(-2.90493e-06 -1.42693e-06 0.108681)
(2.92445e-06 -1.44415e-06 0.108681)
(-2.9204e-06 -1.4406e-06 0.108681)
(7.2877e-05 7.29106e-05 0.106512)
(6.70105e-05 6.69949e-05 0.106314)
(-7.28732e-05 -7.28385e-05 0.106513)
(3.0058e-06 1.53008e-06 0.10868)
(-3.02169e-06 1.55661e-06 0.10868)
(3.02025e-06 1.55626e-06 0.10868)
(-3.0367e-06 1.58883e-06 0.10868)
(-6.69899e-05 6.69407e-05 0.106314)
(7.28966e-05 -7.28753e-05 0.106513)
(1.46164e-06 2.93717e-06 0.108681)
(1.54285e-06 -3.00766e-06 0.10868)
(1.4925e-06 2.95137e-06 0.108681)
(1.57581e-06 -3.02665e-06 0.10868)
(-1.53314e-06 -2.99038e-06 0.10868)
(-1.48779e-06 2.95025e-06 0.108682)
(-1.56002e-06 -3.00492e-06 0.10868)
(6.69794e-05 -6.70458e-05 0.106314)
(-7.28714e-05 7.2895e-05 0.106512)
(-2.92513e-06 -1.44903e-06 0.108681)
(2.94376e-06 -1.48073e-06 0.108681)
(-2.94039e-06 -1.47738e-06 0.108681)
(7.2823e-05 7.28561e-05 0.106512)
(6.70471e-05 6.70308e-05 0.106314)
(-7.28627e-05 -7.28285e-05 0.106513)
(3.02429e-06 1.56457e-06 0.108681)
(-3.04316e-06 1.5912e-06 0.10868)
(3.00822e-06 1.55446e-06 0.10868)
(-3.02037e-06 1.5851e-06 0.10868)
(-6.70256e-05 6.69759e-05 0.106314)
(7.28642e-05 -7.28448e-05 0.106513)
(1.4967e-06 2.95538e-06 0.108681)
(1.57819e-06 -3.02947e-06 0.10868)
(1.49084e-06 2.93796e-06 0.108681)
(1.57299e-06 -3.0144e-06 0.10868)
(-1.56702e-06 -3.00989e-06 0.10868)
(-1.4851e-06 2.93216e-06 0.108682)
(-1.55792e-06 -2.99314e-06 0.10868)
(6.70062e-05 -6.7072e-05 0.106314)
(-7.28583e-05 7.28796e-05 0.106512)
(-2.94426e-06 -1.48483e-06 0.108681)
(2.93074e-06 -1.48004e-06 0.108681)
(-2.9276e-06 -1.47724e-06 0.108681)
(7.28115e-05 7.28435e-05 0.106512)
(6.70531e-05 6.70364e-05 0.106314)
(-7.28889e-05 -7.28557e-05 0.106513)
(3.00303e-06 1.54747e-06 0.108681)
(-3.01813e-06 1.5731e-06 0.10868)
(2.98917e-06 1.51308e-06 0.10868)
(-3.00311e-06 1.54384e-06 0.10868)
(-6.70507e-05 6.69989e-05 0.106314)
(7.28993e-05 -7.28797e-05 0.106514)
(1.48013e-06 2.93248e-06 0.108681)
(1.55989e-06 -3.01008e-06 0.10868)
(1.44983e-06 2.91858e-06 0.108681)
(1.5323e-06 -2.99533e-06 0.10868)
(-1.55027e-06 -2.99098e-06 0.10868)
(-1.44479e-06 2.91467e-06 0.108682)
(-1.51692e-06 -2.97085e-06 0.10868)
(6.70074e-05 -6.70762e-05 0.106314)
(-7.2883e-05 7.29049e-05 0.106512)
(-2.92404e-06 -1.47044e-06 0.108681)
(2.9112e-06 -1.44089e-06 0.108681)
(-2.90561e-06 -1.4382e-06 0.108681)
(7.28275e-05 7.28593e-05 0.106512)
(6.70435e-05 6.70258e-05 0.106314)
(-7.29154e-05 -7.28824e-05 0.106513)
(2.97705e-06 1.5044e-06 0.108681)
(-2.9868e-06 1.52929e-06 0.10868)
(2.98071e-06 1.48854e-06 0.10868)
(-3.00058e-06 1.52218e-06 0.10868)
(-6.70489e-05 6.69975e-05 0.106314)
(7.29565e-05 -7.29378e-05 0.106514)
(1.43746e-06 2.90662e-06 0.108682)
(1.51841e-06 -2.98583e-06 0.10868)
(1.42567e-06 2.91014e-06 0.108681)
(1.50912e-06 -2.98468e-06 0.10868)
(-1.50822e-06 -2.96498e-06 0.10868)
(-1.42136e-06 2.91221e-06 0.108682)
(-1.49293e-06 -2.95901e-06 0.10868)
(6.69889e-05 -6.70577e-05 0.106314)
(-7.2906e-05 7.29283e-05 0.106513)