/*--------------------------------*- C++ -*----------------------------------*\
| =========                 |                                                 |
| \\      /  F ield         | OpenFOAM: The Open Source CFD Toolbox           |
|  \\    /   O peration     | Version:  v2012                                 |
|   \\  /    A nd           | Website:  www.openfoam.com                      |
|    \\/     M anipulation  |                                                 |
\*---------------------------------------------------------------------------*/
FoamFile
{
    version     2.0;
    format      ascii;
    class       volScalarField;
    location    "0.255";
    object      p;
}
// * * * * * * * * * * * * * * * * * * * * * * * * * * * * * * * * * * * * * //

dimensions      [0 2 -2 0 0 0 0];


internalField   nonuniform List<scalar> 
247104
(
1.87547e-06
1.87551e-06
1.87563e-06
1.87556e-06
1.87543e-06
1.87558e-06
1.87562e-06
1.87544e-06
1.8755e-06
1.87556e-06
1.87562e-06
1.87544e-06
1.87534e-06
1.87547e-06
1.87563e-06
1.87554e-06
1.87563e-06
1.87561e-06
1.87531e-06
1.87493e-06
1.87478e-06
1.87497e-06
1.87536e-06
1.87564e-06
1.87563e-06
1.87555e-06
1.87544e-06
1.87493e-06
1.87444e-06
1.87426e-06
1.87449e-06
1.875e-06
1.87549e-06
1.87554e-06
1.87546e-06
1.87542e-06
1.87533e-06
1.87478e-06
1.87426e-06
1.87408e-06
1.87431e-06
1.87486e-06
1.87538e-06
1.87539e-06
1.87558e-06
1.87547e-06
1.87497e-06
1.87449e-06
1.87431e-06
1.87453e-06
1.87504e-06
1.87551e-06
1.87557e-06
1.87561e-06
1.87562e-06
1.87535e-06
1.875e-06
1.87486e-06
1.87504e-06
1.8754e-06
1.87564e-06
1.87561e-06
1.87543e-06
1.87553e-06
1.87563e-06
1.87548e-06
1.87538e-06
1.87551e-06
1.87564e-06
1.8755e-06
1.87562e-06
1.87554e-06
1.8754e-06
1.87558e-06
1.87561e-06
1.84188e-06
1.83985e-06
1.83949e-06
1.83832e-06
1.83829e-06
1.83821e-06
1.83822e-06
1.83953e-06
1.83988e-06
1.83948e-06
1.83743e-06
1.83462e-06
1.83457e-06
1.83457e-06
1.83463e-06
1.83783e-06
1.83805e-06
1.83831e-06
1.83463e-06
1.83456e-06
1.83462e-06
1.83462e-06
1.83456e-06
1.83463e-06
1.83823e-06
1.83927e-06
1.84188e-06
1.83829e-06
1.83456e-06
1.83462e-06
1.83472e-06
1.83472e-06
1.83462e-06
1.83457e-06
1.83816e-06
1.8398e-06
1.83985e-06
1.8382e-06
1.83456e-06
1.83461e-06
1.83472e-06
1.83472e-06
1.83462e-06
1.83456e-06
1.83834e-06
1.83823e-06
1.83821e-06
1.83462e-06
1.83456e-06
1.83461e-06
1.83461e-06
1.83456e-06
1.83462e-06
1.83812e-06
1.83912e-06
1.83952e-06
1.83783e-06
1.83462e-06
1.83456e-06
1.83456e-06
1.83462e-06
1.838e-06
1.83823e-06
1.83964e-06
1.83987e-06
1.83804e-06
1.83823e-06
1.83816e-06
1.83834e-06
1.83812e-06
1.83823e-06
1.84025e-06
1.83927e-06
1.8398e-06
1.83823e-06
1.83912e-06
1.83964e-06
1.82178e-06
1.82159e-06
1.82144e-06
1.81927e-06
1.81919e-06
1.81917e-06
1.81925e-06
1.82144e-06
1.82166e-06
1.82142e-06
1.81854e-06
1.81553e-06
1.81543e-06
1.81542e-06
1.81552e-06
1.81915e-06
1.81971e-06
1.81926e-06
1.81559e-06
1.8152e-06
1.81522e-06
1.81521e-06
1.81519e-06
1.81556e-06
1.81997e-06
1.82195e-06
1.82177e-06
1.81918e-06
1.81545e-06
1.81522e-06
1.81524e-06
1.81524e-06
1.81521e-06
1.81544e-06
1.82001e-06
1.82167e-06
1.82158e-06
1.81916e-06
1.81544e-06
1.81522e-06
1.81524e-06
1.81524e-06
1.81522e-06
1.81544e-06
1.81995e-06
1.81979e-06
1.81924e-06
1.81556e-06
1.81521e-06
1.81522e-06
1.81521e-06
1.81519e-06
1.81556e-06
1.82003e-06
1.82202e-06
1.82143e-06
1.81916e-06
1.81556e-06
1.81544e-06
1.81543e-06
1.81552e-06
1.81963e-06
1.81988e-06
1.82192e-06
1.82165e-06
1.81972e-06
1.81998e-06
1.82001e-06
1.81995e-06
1.82003e-06
1.81988e-06
1.82185e-06
1.82195e-06
1.82167e-06
1.81979e-06
1.82202e-06
1.82192e-06
1.80256e-06
1.80238e-06
1.80225e-06
1.80002e-06
1.79995e-06
1.79985e-06
1.80005e-06
1.80225e-06
1.80248e-06
1.80223e-06
1.7992e-06
1.79627e-06
1.79622e-06
1.79622e-06
1.79627e-06
1.79985e-06
1.80058e-06
1.8e-06
1.79626e-06
1.79611e-06
1.79611e-06
1.79611e-06
1.79611e-06
1.79627e-06
1.80078e-06
1.80273e-06
1.80253e-06
1.79993e-06
1.79621e-06
1.79611e-06
1.79611e-06
1.79612e-06
1.79611e-06
1.79622e-06
1.80086e-06
1.80243e-06
1.80236e-06
1.79983e-06
1.79621e-06
1.79611e-06
1.79611e-06
1.79611e-06
1.79611e-06
1.79622e-06
1.80082e-06
1.80064e-06
1.80003e-06
1.79626e-06
1.79611e-06
1.79611e-06
1.79611e-06
1.79611e-06
1.79626e-06
1.80084e-06
1.80277e-06
1.80223e-06
1.79984e-06
1.79627e-06
1.79622e-06
1.79622e-06
1.79627e-06
1.80061e-06
1.80073e-06
1.80273e-06
1.80247e-06
1.80058e-06
1.80078e-06
1.80086e-06
1.80083e-06
1.80085e-06
1.80074e-06
1.80273e-06
1.80274e-06
1.80243e-06
1.80066e-06
1.80278e-06
1.80275e-06
1.78328e-06
1.78311e-06
1.78294e-06
1.7807e-06
1.78062e-06
1.78049e-06
1.78072e-06
1.78294e-06
1.78318e-06
1.78294e-06
1.77988e-06
1.77694e-06
1.77693e-06
1.77693e-06
1.77694e-06
1.78049e-06
1.78131e-06
1.7807e-06
1.77694e-06
1.7769e-06
1.7769e-06
1.7769e-06
1.7769e-06
1.77694e-06
1.78151e-06
1.78347e-06
1.78328e-06
1.78062e-06
1.77693e-06
1.7769e-06
1.7769e-06
1.7769e-06
1.7769e-06
1.77693e-06
1.78164e-06
1.78321e-06
1.78311e-06
1.78049e-06
1.77693e-06
1.7769e-06
1.7769e-06
1.7769e-06
1.7769e-06
1.77693e-06
1.78162e-06
1.78142e-06
1.78072e-06
1.77694e-06
1.7769e-06
1.7769e-06
1.7769e-06
1.7769e-06
1.77694e-06
1.78159e-06
1.78354e-06
1.78294e-06
1.78049e-06
1.77694e-06
1.77693e-06
1.77693e-06
1.77694e-06
1.78141e-06
1.78149e-06
1.78346e-06
1.78318e-06
1.78131e-06
1.78151e-06
1.78164e-06
1.78162e-06
1.78159e-06
1.78149e-06
1.78343e-06
1.78347e-06
1.78321e-06
1.78143e-06
1.78354e-06
1.78346e-06
1.764e-06
1.76383e-06
1.76365e-06
1.76141e-06
1.76132e-06
1.76119e-06
1.76142e-06
1.76365e-06
1.76388e-06
1.76365e-06
1.76059e-06
1.75764e-06
1.75764e-06
1.75764e-06
1.75764e-06
1.76117e-06
1.76201e-06
1.76141e-06
1.75764e-06
1.75763e-06
1.75763e-06
1.75763e-06
1.75763e-06
1.75764e-06
1.76222e-06
1.76418e-06
1.764e-06
1.76132e-06
1.75764e-06
1.75763e-06
1.75763e-06
1.75763e-06
1.75763e-06
1.75763e-06
1.76237e-06
1.76393e-06
1.76383e-06
1.76119e-06
1.75764e-06
1.75763e-06
1.75763e-06
1.75763e-06
1.75763e-06
1.75764e-06
1.76236e-06
1.76215e-06
1.76142e-06
1.75764e-06
1.75763e-06
1.75763e-06
1.75763e-06
1.75763e-06
1.75764e-06
1.76231e-06
1.76427e-06
1.76365e-06
1.76117e-06
1.75764e-06
1.75763e-06
1.75763e-06
1.75764e-06
1.76215e-06
1.76221e-06
1.76417e-06
1.76388e-06
1.76201e-06
1.76222e-06
1.76236e-06
1.76236e-06
1.76231e-06
1.76221e-06
1.76412e-06
1.76418e-06
1.76394e-06
1.76215e-06
1.76427e-06
1.76417e-06
1.74471e-06
1.74454e-06
1.74436e-06
1.74211e-06
1.74203e-06
1.7419e-06
1.74212e-06
1.74436e-06
1.74459e-06
1.74435e-06
1.7413e-06
1.73835e-06
1.73835e-06
1.73835e-06
1.73835e-06
1.74187e-06
1.74272e-06
1.74211e-06
1.73835e-06
1.73834e-06
1.73834e-06
1.73834e-06
1.73834e-06
1.73835e-06
1.74293e-06
1.74489e-06
1.74471e-06
1.74203e-06
1.73835e-06
1.73834e-06
1.73834e-06
1.73834e-06
1.73834e-06
1.73834e-06
1.74308e-06
1.74465e-06
1.74454e-06
1.7419e-06
1.73835e-06
1.73834e-06
1.73834e-06
1.73834e-06
1.73834e-06
1.73834e-06
1.74307e-06
1.74287e-06
1.74212e-06
1.73835e-06
1.73834e-06
1.73834e-06
1.73834e-06
1.73834e-06
1.73835e-06
1.74302e-06
1.74498e-06
1.74436e-06
1.74187e-06
1.73835e-06
1.73835e-06
1.73835e-06
1.73835e-06
1.74287e-06
1.74292e-06
1.74488e-06
1.74459e-06
1.74272e-06
1.74293e-06
1.74308e-06
1.74307e-06
1.74302e-06
1.74293e-06
1.74482e-06
1.74489e-06
1.74465e-06
1.74287e-06
1.74498e-06
1.74488e-06
1.72542e-06
1.72525e-06
1.72507e-06
1.72282e-06
1.72274e-06
1.72261e-06
1.72283e-06
1.72507e-06
1.72529e-06
1.72506e-06
1.72201e-06
1.71906e-06
1.71906e-06
1.71906e-06
1.71906e-06
1.72258e-06
1.72343e-06
1.72282e-06
1.71906e-06
1.71905e-06
1.71906e-06
1.71906e-06
1.71905e-06
1.71906e-06
1.72364e-06
1.7256e-06
1.72543e-06
1.72274e-06
1.71906e-06
1.71906e-06
1.71906e-06
1.71906e-06
1.71906e-06
1.71906e-06
1.72379e-06
1.72536e-06
1.72525e-06
1.72261e-06
1.71906e-06
1.71906e-06
1.71906e-06
1.71906e-06
1.71906e-06
1.71906e-06
1.72378e-06
1.72358e-06
1.72283e-06
1.71906e-06
1.71905e-06
1.71905e-06
1.71906e-06
1.71905e-06
1.71906e-06
1.72373e-06
1.72569e-06
1.72507e-06
1.72258e-06
1.71906e-06
1.71905e-06
1.71906e-06
1.71906e-06
1.72358e-06
1.72363e-06
1.72559e-06
1.7253e-06
1.72343e-06
1.72364e-06
1.72379e-06
1.72378e-06
1.72373e-06
1.72364e-06
1.72554e-06
1.7256e-06
1.72536e-06
1.72358e-06
1.72569e-06
1.72559e-06
1.70613e-06
1.70596e-06
1.70578e-06
1.70353e-06
1.70345e-06
1.70332e-06
1.70354e-06
1.70578e-06
1.70601e-06
1.70577e-06
1.70272e-06
1.69977e-06
1.69977e-06
1.69977e-06
1.69977e-06
1.70329e-06
1.70414e-06
1.70353e-06
1.69977e-06
1.69977e-06
1.69977e-06
1.69977e-06
1.69977e-06
1.69977e-06
1.70435e-06
1.70631e-06
1.70614e-06
1.70345e-06
1.69977e-06
1.69977e-06
1.69977e-06
1.69977e-06
1.69977e-06
1.69977e-06
1.7045e-06
1.70607e-06
1.70596e-06
1.70332e-06
1.69977e-06
1.69977e-06
1.69977e-06
1.69977e-06
1.69977e-06
1.69977e-06
1.70449e-06
1.70429e-06
1.70354e-06
1.69977e-06
1.69977e-06
1.69977e-06
1.69977e-06
1.69977e-06
1.69977e-06
1.70444e-06
1.7064e-06
1.70578e-06
1.70329e-06
1.69977e-06
1.69977e-06
1.69977e-06
1.69977e-06
1.70429e-06
1.70434e-06
1.7063e-06
1.70601e-06
1.70414e-06
1.70435e-06
1.7045e-06
1.70449e-06
1.70444e-06
1.70435e-06
1.70625e-06
1.70631e-06
1.70607e-06
1.70429e-06
1.7064e-06
1.7063e-06
1.68684e-06
1.68667e-06
1.68649e-06
1.68424e-06
1.68416e-06
1.68403e-06
1.68425e-06
1.68649e-06
1.68672e-06
1.68648e-06
1.68343e-06
1.68048e-06
1.68048e-06
1.68048e-06
1.68048e-06
1.684e-06
1.68485e-06
1.68424e-06
1.68048e-06
1.68048e-06
1.68048e-06
1.68048e-06
1.68048e-06
1.68048e-06
1.68506e-06
1.68702e-06
1.68685e-06
1.68416e-06
1.68048e-06
1.68048e-06
1.68048e-06
1.68048e-06
1.68048e-06
1.68048e-06
1.68521e-06
1.68678e-06
1.68667e-06
1.68403e-06
1.68048e-06
1.68048e-06
1.68048e-06
1.68048e-06
1.68048e-06
1.68048e-06
1.6852e-06
1.685e-06
1.68425e-06
1.68048e-06
1.68048e-06
1.68048e-06
1.68048e-06
1.68048e-06
1.68048e-06
1.68515e-06
1.68711e-06
1.68649e-06
1.684e-06
1.68048e-06
1.68048e-06
1.68048e-06
1.68048e-06
1.685e-06
1.68505e-06
1.68701e-06
1.68672e-06
1.68485e-06
1.68506e-06
1.68521e-06
1.6852e-06
1.68515e-06
1.68506e-06
1.68696e-06
1.68702e-06
1.68678e-06
1.685e-06
1.68711e-06
1.68701e-06
1.66755e-06
1.66738e-06
1.66719e-06
1.66495e-06
1.66487e-06
1.66474e-06
1.66496e-06
1.6672e-06
1.66742e-06
1.66719e-06
1.66414e-06
1.66118e-06
1.66118e-06
1.66118e-06
1.66118e-06
1.66471e-06
1.66556e-06
1.66495e-06
1.66118e-06
1.66118e-06
1.66118e-06
1.66118e-06
1.66118e-06
1.66118e-06
1.66577e-06
1.66773e-06
1.66756e-06
1.66487e-06
1.66118e-06
1.66118e-06
1.66118e-06
1.66118e-06
1.66118e-06
1.66118e-06
1.66592e-06
1.66749e-06
1.66738e-06
1.66474e-06
1.66118e-06
1.66118e-06
1.66118e-06
1.66118e-06
1.66118e-06
1.66118e-06
1.66591e-06
1.66571e-06
1.66496e-06
1.66118e-06
1.66118e-06
1.66118e-06
1.66118e-06
1.66118e-06
1.66118e-06
1.66586e-06
1.66782e-06
1.6672e-06
1.66471e-06
1.66118e-06
1.66118e-06
1.66118e-06
1.66118e-06
1.66571e-06
1.66576e-06
1.66772e-06
1.66743e-06
1.66556e-06
1.66577e-06
1.66592e-06
1.66591e-06
1.66586e-06
1.66577e-06
1.66767e-06
1.66773e-06
1.66749e-06
1.66571e-06
1.66782e-06
1.66772e-06
1.64826e-06
1.64809e-06
1.6479e-06
1.64566e-06
1.64557e-06
1.64545e-06
1.64567e-06
1.64791e-06
1.64813e-06
1.6479e-06
1.64484e-06
1.64189e-06
1.64189e-06
1.64189e-06
1.64189e-06
1.64542e-06
1.64627e-06
1.64566e-06
1.64189e-06
1.64189e-06
1.64189e-06
1.64189e-06
1.64189e-06
1.64189e-06
1.64648e-06
1.64844e-06
1.64826e-06
1.64557e-06
1.64189e-06
1.64189e-06
1.64189e-06
1.64189e-06
1.64189e-06
1.64189e-06
1.64663e-06
1.6482e-06
1.64809e-06
1.64544e-06
1.64189e-06
1.64189e-06
1.64189e-06
1.64189e-06
1.64189e-06
1.64189e-06
1.64662e-06
1.64642e-06
1.64567e-06
1.64189e-06
1.64189e-06
1.64189e-06
1.64189e-06
1.64189e-06
1.64189e-06
1.64657e-06
1.64853e-06
1.64791e-06
1.64542e-06
1.64189e-06
1.64189e-06
1.64189e-06
1.64189e-06
1.64642e-06
1.64647e-06
1.64843e-06
1.64814e-06
1.64627e-06
1.64648e-06
1.64663e-06
1.64662e-06
1.64657e-06
1.64648e-06
1.64837e-06
1.64844e-06
1.6482e-06
1.64642e-06
1.64853e-06
1.64843e-06
1.62897e-06
1.6288e-06
1.62861e-06
1.62637e-06
1.62628e-06
1.62616e-06
1.62638e-06
1.62862e-06
1.62884e-06
1.62861e-06
1.62555e-06
1.6226e-06
1.6226e-06
1.6226e-06
1.6226e-06
1.62613e-06
1.62698e-06
1.62637e-06
1.6226e-06
1.6226e-06
1.6226e-06
1.6226e-06
1.6226e-06
1.6226e-06
1.62719e-06
1.62915e-06
1.62897e-06
1.62628e-06
1.6226e-06
1.6226e-06
1.6226e-06
1.6226e-06
1.6226e-06
1.6226e-06
1.62734e-06
1.62891e-06
1.6288e-06
1.62615e-06
1.6226e-06
1.6226e-06
1.6226e-06
1.6226e-06
1.6226e-06
1.6226e-06
1.62733e-06
1.62713e-06
1.62638e-06
1.6226e-06
1.6226e-06
1.6226e-06
1.6226e-06
1.6226e-06
1.6226e-06
1.62728e-06
1.62924e-06
1.62862e-06
1.62613e-06
1.6226e-06
1.6226e-06
1.6226e-06
1.6226e-06
1.62713e-06
1.62718e-06
1.62914e-06
1.62885e-06
1.62698e-06
1.62719e-06
1.62734e-06
1.62733e-06
1.62728e-06
1.62719e-06
1.62908e-06
1.62915e-06
1.62891e-06
1.62713e-06
1.62924e-06
1.62914e-06
1.60968e-06
1.60951e-06
1.60932e-06
1.60708e-06
1.607e-06
1.60687e-06
1.60709e-06
1.60933e-06
1.60955e-06
1.60932e-06
1.60626e-06
1.60331e-06
1.60331e-06
1.60331e-06
1.60331e-06
1.60684e-06
1.60769e-06
1.60708e-06
1.60331e-06
1.60331e-06
1.60331e-06
1.60331e-06
1.60331e-06
1.60331e-06
1.6079e-06
1.60986e-06
1.60968e-06
1.60699e-06
1.60331e-06
1.60331e-06
1.60331e-06
1.60331e-06
1.60331e-06
1.60331e-06
1.60805e-06
1.60962e-06
1.60951e-06
1.60686e-06
1.60331e-06
1.60331e-06
1.60331e-06
1.60331e-06
1.60331e-06
1.60331e-06
1.60804e-06
1.60784e-06
1.60709e-06
1.60331e-06
1.60331e-06
1.60331e-06
1.60331e-06
1.60331e-06
1.60331e-06
1.60799e-06
1.60995e-06
1.60933e-06
1.60684e-06
1.60331e-06
1.60331e-06
1.60331e-06
1.60331e-06
1.60784e-06
1.60789e-06
1.60985e-06
1.60956e-06
1.60769e-06
1.6079e-06
1.60805e-06
1.60804e-06
1.60799e-06
1.6079e-06
1.60979e-06
1.60986e-06
1.60962e-06
1.60784e-06
1.60995e-06
1.60985e-06
1.59039e-06
1.59022e-06
1.59003e-06
1.58779e-06
1.58771e-06
1.58758e-06
1.5878e-06
1.59004e-06
1.59026e-06
1.59003e-06
1.58698e-06
1.58403e-06
1.58403e-06
1.58403e-06
1.58403e-06
1.58755e-06
1.5884e-06
1.58779e-06
1.58403e-06
1.58403e-06
1.58403e-06
1.58403e-06
1.58403e-06
1.58403e-06
1.58861e-06
1.59057e-06
1.5904e-06
1.58771e-06
1.58403e-06
1.58403e-06
1.58403e-06
1.58403e-06
1.58403e-06
1.58403e-06
1.58876e-06
1.59033e-06
1.59022e-06
1.58758e-06
1.58403e-06
1.58403e-06
1.58403e-06
1.58403e-06
1.58403e-06
1.58403e-06
1.58875e-06
1.58855e-06
1.5878e-06
1.58403e-06
1.58403e-06
1.58403e-06
1.58403e-06
1.58403e-06
1.58403e-06
1.5887e-06
1.59066e-06
1.59004e-06
1.58755e-06
1.58403e-06
1.58403e-06
1.58403e-06
1.58403e-06
1.58855e-06
1.5886e-06
1.59056e-06
1.59027e-06
1.5884e-06
1.58861e-06
1.58876e-06
1.58875e-06
1.5887e-06
1.58861e-06
1.59051e-06
1.59057e-06
1.59033e-06
1.58855e-06
1.59066e-06
1.59056e-06
1.5711e-06
1.57093e-06
1.57074e-06
1.5685e-06
1.56842e-06
1.56829e-06
1.56851e-06
1.57075e-06
1.57097e-06
1.57074e-06
1.56769e-06
1.56474e-06
1.56474e-06
1.56474e-06
1.56474e-06
1.56826e-06
1.56911e-06
1.5685e-06
1.56474e-06
1.56474e-06
1.56474e-06
1.56474e-06
1.56474e-06
1.56474e-06
1.56932e-06
1.57128e-06
1.57111e-06
1.56842e-06
1.56474e-06
1.56474e-06
1.56474e-06
1.56474e-06
1.56474e-06
1.56474e-06
1.56947e-06
1.57104e-06
1.57093e-06
1.56829e-06
1.56474e-06
1.56474e-06
1.56474e-06
1.56474e-06
1.56474e-06
1.56474e-06
1.56946e-06
1.56926e-06
1.56851e-06
1.56474e-06
1.56474e-06
1.56474e-06
1.56474e-06
1.56474e-06
1.56474e-06
1.56941e-06
1.57137e-06
1.57075e-06
1.56826e-06
1.56474e-06
1.56474e-06
1.56474e-06
1.56474e-06
1.56926e-06
1.56931e-06
1.57127e-06
1.57098e-06
1.56911e-06
1.56932e-06
1.56947e-06
1.56946e-06
1.56941e-06
1.56932e-06
1.57122e-06
1.57128e-06
1.57104e-06
1.56926e-06
1.57137e-06
1.57127e-06
1.55181e-06
1.55164e-06
1.55145e-06
1.54921e-06
1.54913e-06
1.549e-06
1.54922e-06
1.55146e-06
1.55168e-06
1.55145e-06
1.5484e-06
1.54545e-06
1.54545e-06
1.54545e-06
1.54545e-06
1.54897e-06
1.54982e-06
1.54921e-06
1.54545e-06
1.54545e-06
1.54545e-06
1.54545e-06
1.54545e-06
1.54545e-06
1.55003e-06
1.55199e-06
1.55182e-06
1.54913e-06
1.54545e-06
1.54545e-06
1.54545e-06
1.54545e-06
1.54545e-06
1.54545e-06
1.55018e-06
1.55175e-06
1.55164e-06
1.549e-06
1.54545e-06
1.54545e-06
1.54545e-06
1.54545e-06
1.54545e-06
1.54545e-06
1.55017e-06
1.54997e-06
1.54922e-06
1.54545e-06
1.54545e-06
1.54545e-06
1.54545e-06
1.54545e-06
1.54545e-06
1.55012e-06
1.55208e-06
1.55146e-06
1.54897e-06
1.54545e-06
1.54545e-06
1.54545e-06
1.54545e-06
1.54997e-06
1.55002e-06
1.55198e-06
1.55169e-06
1.54982e-06
1.55003e-06
1.55018e-06
1.55017e-06
1.55012e-06
1.55003e-06
1.55193e-06
1.55199e-06
1.55175e-06
1.54997e-06
1.55208e-06
1.55198e-06
1.53252e-06
1.53235e-06
1.53216e-06
1.52992e-06
1.52984e-06
1.52971e-06
1.52993e-06
1.53217e-06
1.53239e-06
1.53216e-06
1.52911e-06
1.52616e-06
1.52616e-06
1.52616e-06
1.52616e-06
1.52968e-06
1.53053e-06
1.52992e-06
1.52616e-06
1.52616e-06
1.52616e-06
1.52616e-06
1.52616e-06
1.52616e-06
1.53074e-06
1.5327e-06
1.53253e-06
1.52984e-06
1.52616e-06
1.52616e-06
1.52616e-06
1.52616e-06
1.52616e-06
1.52616e-06
1.53089e-06
1.53246e-06
1.53235e-06
1.52971e-06
1.52616e-06
1.52616e-06
1.52616e-06
1.52616e-06
1.52616e-06
1.52616e-06
1.53088e-06
1.53068e-06
1.52993e-06
1.52616e-06
1.52616e-06
1.52616e-06
1.52616e-06
1.52616e-06
1.52616e-06
1.53083e-06
1.53279e-06
1.53217e-06
1.52968e-06
1.52616e-06
1.52616e-06
1.52616e-06
1.52616e-06
1.53068e-06
1.53073e-06
1.53269e-06
1.5324e-06
1.53053e-06
1.53074e-06
1.53089e-06
1.53088e-06
1.53083e-06
1.53074e-06
1.53264e-06
1.5327e-06
1.53246e-06
1.53068e-06
1.53279e-06
1.53269e-06
1.51323e-06
1.51306e-06
1.51287e-06
1.51063e-06
1.51055e-06
1.51042e-06
1.51064e-06
1.51288e-06
1.5131e-06
1.51287e-06
1.50982e-06
1.50687e-06
1.50687e-06
1.50687e-06
1.50687e-06
1.51039e-06
1.51124e-06
1.51063e-06
1.50687e-06
1.50687e-06
1.50687e-06
1.50687e-06
1.50687e-06
1.50687e-06
1.51145e-06
1.51341e-06
1.51324e-06
1.51055e-06
1.50687e-06
1.50687e-06
1.50687e-06
1.50687e-06
1.50687e-06
1.50687e-06
1.5116e-06
1.51317e-06
1.51306e-06
1.51042e-06
1.50687e-06
1.50687e-06
1.50687e-06
1.50687e-06
1.50687e-06
1.50687e-06
1.51159e-06
1.51139e-06
1.51064e-06
1.50687e-06
1.50687e-06
1.50687e-06
1.50687e-06
1.50687e-06
1.50687e-06
1.51154e-06
1.5135e-06
1.51288e-06
1.51039e-06
1.50687e-06
1.50687e-06
1.50687e-06
1.50687e-06
1.51139e-06
1.51144e-06
1.5134e-06
1.51311e-06
1.51124e-06
1.51145e-06
1.5116e-06
1.51159e-06
1.51154e-06
1.51145e-06
1.51335e-06
1.51341e-06
1.51317e-06
1.51139e-06
1.5135e-06
1.5134e-06
1.49394e-06
1.49377e-06
1.49358e-06
1.49134e-06
1.49126e-06
1.49113e-06
1.49135e-06
1.49359e-06
1.49381e-06
1.49358e-06
1.49053e-06
1.48758e-06
1.48758e-06
1.48758e-06
1.48758e-06
1.4911e-06
1.49195e-06
1.49134e-06
1.48758e-06
1.48758e-06
1.48758e-06
1.48758e-06
1.48758e-06
1.48758e-06
1.49216e-06
1.49412e-06
1.49395e-06
1.49126e-06
1.48758e-06
1.48758e-06
1.48758e-06
1.48758e-06
1.48758e-06
1.48758e-06
1.49231e-06
1.49388e-06
1.49377e-06
1.49113e-06
1.48758e-06
1.48758e-06
1.48758e-06
1.48758e-06
1.48758e-06
1.48758e-06
1.4923e-06
1.4921e-06
1.49135e-06
1.48758e-06
1.48758e-06
1.48758e-06
1.48758e-06
1.48758e-06
1.48758e-06
1.49225e-06
1.49421e-06
1.49359e-06
1.4911e-06
1.48758e-06
1.48758e-06
1.48758e-06
1.48758e-06
1.4921e-06
1.49215e-06
1.49411e-06
1.49382e-06
1.49195e-06
1.49216e-06
1.49231e-06
1.4923e-06
1.49225e-06
1.49216e-06
1.49406e-06
1.49412e-06
1.49388e-06
1.4921e-06
1.49421e-06
1.49411e-06
1.47465e-06
1.47448e-06
1.47429e-06
1.47205e-06
1.47197e-06
1.47184e-06
1.47206e-06
1.4743e-06
1.47452e-06
1.47429e-06
1.47124e-06
1.46828e-06
1.46828e-06
1.46828e-06
1.46828e-06
1.47181e-06
1.47266e-06
1.47205e-06
1.46828e-06
1.46828e-06
1.46828e-06
1.46828e-06
1.46828e-06
1.46828e-06
1.47287e-06
1.47483e-06
1.47466e-06
1.47197e-06
1.46828e-06
1.46828e-06
1.46828e-06
1.46828e-06
1.46828e-06
1.46828e-06
1.47302e-06
1.47459e-06
1.47448e-06
1.47184e-06
1.46828e-06
1.46828e-06
1.46828e-06
1.46828e-06
1.46828e-06
1.46828e-06
1.47301e-06
1.47281e-06
1.47206e-06
1.46828e-06
1.46828e-06
1.46828e-06
1.46828e-06
1.46828e-06
1.46828e-06
1.47296e-06
1.47492e-06
1.4743e-06
1.47181e-06
1.46828e-06
1.46828e-06
1.46828e-06
1.46828e-06
1.47281e-06
1.47286e-06
1.47482e-06
1.47453e-06
1.47266e-06
1.47287e-06
1.47302e-06
1.47301e-06
1.47296e-06
1.47287e-06
1.47476e-06
1.47483e-06
1.47459e-06
1.47281e-06
1.47492e-06
1.47482e-06
1.45536e-06
1.45519e-06
1.455e-06
1.45276e-06
1.45267e-06
1.45255e-06
1.45277e-06
1.45501e-06
1.45523e-06
1.455e-06
1.45194e-06
1.44899e-06
1.44899e-06
1.44899e-06
1.44899e-06
1.45252e-06
1.45337e-06
1.45276e-06
1.44899e-06
1.44899e-06
1.44899e-06
1.44899e-06
1.44899e-06
1.44899e-06
1.45358e-06
1.45553e-06
1.45536e-06
1.45267e-06
1.44899e-06
1.44899e-06
1.44899e-06
1.44899e-06
1.44899e-06
1.44899e-06
1.45373e-06
1.4553e-06
1.45519e-06
1.45254e-06
1.44899e-06
1.44899e-06
1.44899e-06
1.44899e-06
1.44899e-06
1.44899e-06
1.45372e-06
1.45352e-06
1.45277e-06
1.44899e-06
1.44899e-06
1.44899e-06
1.44899e-06
1.44899e-06
1.44899e-06
1.45367e-06
1.45563e-06
1.45501e-06
1.45252e-06
1.44899e-06
1.44899e-06
1.44899e-06
1.44899e-06
1.45352e-06
1.45357e-06
1.45553e-06
1.45524e-06
1.45337e-06
1.45358e-06
1.45373e-06
1.45372e-06
1.45367e-06
1.45358e-06
1.45547e-06
1.45554e-06
1.4553e-06
1.45352e-06
1.45563e-06
1.45553e-06
1.43607e-06
1.4359e-06
1.43571e-06
1.43347e-06
1.43338e-06
1.43326e-06
1.43348e-06
1.43572e-06
1.43594e-06
1.43571e-06
1.43265e-06
1.4297e-06
1.4297e-06
1.4297e-06
1.4297e-06
1.43323e-06
1.43408e-06
1.43347e-06
1.4297e-06
1.4297e-06
1.4297e-06
1.4297e-06
1.4297e-06
1.4297e-06
1.43429e-06
1.43624e-06
1.43607e-06
1.43338e-06
1.4297e-06
1.4297e-06
1.4297e-06
1.4297e-06
1.4297e-06
1.4297e-06
1.43444e-06
1.43601e-06
1.4359e-06
1.43325e-06
1.4297e-06
1.4297e-06
1.4297e-06
1.4297e-06
1.4297e-06
1.4297e-06
1.43443e-06
1.43423e-06
1.43348e-06
1.4297e-06
1.4297e-06
1.4297e-06
1.4297e-06
1.4297e-06
1.4297e-06
1.43438e-06
1.43634e-06
1.43572e-06
1.43323e-06
1.4297e-06
1.4297e-06
1.4297e-06
1.4297e-06
1.43423e-06
1.43428e-06
1.43624e-06
1.43595e-06
1.43408e-06
1.43429e-06
1.43444e-06
1.43443e-06
1.43438e-06
1.43429e-06
1.43618e-06
1.43625e-06
1.43601e-06
1.43423e-06
1.43634e-06
1.43624e-06
1.41678e-06
1.41661e-06
1.41642e-06
1.41418e-06
1.41409e-06
1.41397e-06
1.41419e-06
1.41643e-06
1.41665e-06
1.41642e-06
1.41336e-06
1.41041e-06
1.41041e-06
1.41041e-06
1.41041e-06
1.41394e-06
1.41479e-06
1.41418e-06
1.41041e-06
1.41041e-06
1.41041e-06
1.41041e-06
1.41041e-06
1.41041e-06
1.415e-06
1.41695e-06
1.41678e-06
1.41409e-06
1.41041e-06
1.41041e-06
1.41041e-06
1.41041e-06
1.41041e-06
1.41041e-06
1.41515e-06
1.41672e-06
1.41661e-06
1.41396e-06
1.41041e-06
1.41041e-06
1.41041e-06
1.41041e-06
1.41041e-06
1.41041e-06
1.41514e-06
1.41494e-06
1.41419e-06
1.41041e-06
1.41041e-06
1.41041e-06
1.41041e-06
1.41041e-06
1.41041e-06
1.41509e-06
1.41705e-06
1.41643e-06
1.41394e-06
1.41041e-06
1.41041e-06
1.41041e-06
1.41041e-06
1.41494e-06
1.41499e-06
1.41695e-06
1.41666e-06
1.41479e-06
1.415e-06
1.41515e-06
1.41514e-06
1.41509e-06
1.415e-06
1.41689e-06
1.41696e-06
1.41672e-06
1.41494e-06
1.41705e-06
1.41695e-06
1.39749e-06
1.39732e-06
1.39713e-06
1.39489e-06
1.39481e-06
1.39468e-06
1.3949e-06
1.39714e-06
1.39736e-06
1.39713e-06
1.39407e-06
1.39112e-06
1.39112e-06
1.39112e-06
1.39112e-06
1.39465e-06
1.3955e-06
1.39489e-06
1.39112e-06
1.39112e-06
1.39112e-06
1.39112e-06
1.39112e-06
1.39112e-06
1.39571e-06
1.39767e-06
1.39749e-06
1.3948e-06
1.39112e-06
1.39112e-06
1.39112e-06
1.39112e-06
1.39112e-06
1.39112e-06
1.39586e-06
1.39743e-06
1.39732e-06
1.39467e-06
1.39112e-06
1.39112e-06
1.39112e-06
1.39112e-06
1.39112e-06
1.39112e-06
1.39585e-06
1.39565e-06
1.3949e-06
1.39112e-06
1.39112e-06
1.39112e-06
1.39112e-06
1.39112e-06
1.39112e-06
1.3958e-06
1.39776e-06
1.39714e-06
1.39465e-06
1.39112e-06
1.39112e-06
1.39112e-06
1.39112e-06
1.39565e-06
1.3957e-06
1.39766e-06
1.39737e-06
1.3955e-06
1.39571e-06
1.39586e-06
1.39585e-06
1.3958e-06
1.39571e-06
1.3976e-06
1.39767e-06
1.39743e-06
1.39565e-06
1.39776e-06
1.39766e-06
1.3782e-06
1.37803e-06
1.37784e-06
1.3756e-06
1.37551e-06
1.37539e-06
1.37561e-06
1.37785e-06
1.37807e-06
1.37784e-06
1.37478e-06
1.37183e-06
1.37183e-06
1.37183e-06
1.37183e-06
1.37536e-06
1.37621e-06
1.3756e-06
1.37183e-06
1.37183e-06
1.37183e-06
1.37183e-06
1.37183e-06
1.37183e-06
1.37642e-06
1.37837e-06
1.3782e-06
1.37551e-06
1.37183e-06
1.37183e-06
1.37183e-06
1.37183e-06
1.37183e-06
1.37183e-06
1.37657e-06
1.37814e-06
1.37803e-06
1.37538e-06
1.37183e-06
1.37183e-06
1.37183e-06
1.37183e-06
1.37183e-06
1.37183e-06
1.37656e-06
1.37636e-06
1.37561e-06
1.37183e-06
1.37183e-06
1.37183e-06
1.37183e-06
1.37183e-06
1.37183e-06
1.37651e-06
1.37847e-06
1.37785e-06
1.37536e-06
1.37183e-06
1.37183e-06
1.37183e-06
1.37183e-06
1.37636e-06
1.37641e-06
1.37837e-06
1.37808e-06
1.37621e-06
1.37642e-06
1.37657e-06
1.37656e-06
1.37651e-06
1.37642e-06
1.37831e-06
1.37838e-06
1.37814e-06
1.37636e-06
1.37847e-06
1.37837e-06
1.35891e-06
1.35874e-06
1.35855e-06
1.35631e-06
1.35622e-06
1.35609e-06
1.35632e-06
1.35856e-06
1.35878e-06
1.35855e-06
1.35549e-06
1.35254e-06
1.35254e-06
1.35254e-06
1.35254e-06
1.35607e-06
1.35692e-06
1.35631e-06
1.35254e-06
1.35254e-06
1.35254e-06
1.35254e-06
1.35254e-06
1.35254e-06
1.35713e-06
1.35908e-06
1.35891e-06
1.35622e-06
1.35254e-06
1.35254e-06
1.35254e-06
1.35254e-06
1.35254e-06
1.35254e-06
1.35728e-06
1.35885e-06
1.35874e-06
1.35609e-06
1.35254e-06
1.35254e-06
1.35254e-06
1.35254e-06
1.35254e-06
1.35254e-06
1.35727e-06
1.35707e-06
1.35632e-06
1.35254e-06
1.35254e-06
1.35254e-06
1.35254e-06
1.35254e-06
1.35254e-06
1.35722e-06
1.35918e-06
1.35856e-06
1.35607e-06
1.35254e-06
1.35254e-06
1.35254e-06
1.35254e-06
1.35707e-06
1.35712e-06
1.35908e-06
1.35879e-06
1.35692e-06
1.35713e-06
1.35728e-06
1.35727e-06
1.35722e-06
1.35713e-06
1.35902e-06
1.35909e-06
1.35885e-06
1.35707e-06
1.35918e-06
1.35908e-06
1.33962e-06
1.33945e-06
1.33926e-06
1.33702e-06
1.33693e-06
1.3368e-06
1.33703e-06
1.33927e-06
1.33949e-06
1.33926e-06
1.3362e-06
1.33325e-06
1.33325e-06
1.33325e-06
1.33325e-06
1.33678e-06
1.33763e-06
1.33702e-06
1.33325e-06
1.33325e-06
1.33325e-06
1.33325e-06
1.33325e-06
1.33325e-06
1.33784e-06
1.33979e-06
1.33962e-06
1.33693e-06
1.33325e-06
1.33325e-06
1.33325e-06
1.33325e-06
1.33325e-06
1.33325e-06
1.33799e-06
1.33956e-06
1.33945e-06
1.3368e-06
1.33325e-06
1.33325e-06
1.33325e-06
1.33325e-06
1.33325e-06
1.33325e-06
1.33798e-06
1.33778e-06
1.33703e-06
1.33325e-06
1.33325e-06
1.33325e-06
1.33325e-06
1.33325e-06
1.33325e-06
1.33793e-06
1.33989e-06
1.33926e-06
1.33678e-06
1.33325e-06
1.33325e-06
1.33325e-06
1.33325e-06
1.33778e-06
1.33783e-06
1.33979e-06
1.3395e-06
1.33763e-06
1.33784e-06
1.33799e-06
1.33798e-06
1.33793e-06
1.33784e-06
1.33973e-06
1.3398e-06
1.33956e-06
1.33778e-06
1.33989e-06
1.33979e-06
1.32033e-06
1.32016e-06
1.31997e-06
1.31773e-06
1.31764e-06
1.31751e-06
1.31774e-06
1.31997e-06
1.3202e-06
1.31997e-06
1.31691e-06
1.31396e-06
1.31396e-06
1.31396e-06
1.31396e-06
1.31749e-06
1.31834e-06
1.31773e-06
1.31396e-06
1.31396e-06
1.31396e-06
1.31396e-06
1.31396e-06
1.31396e-06
1.31855e-06
1.3205e-06
1.32033e-06
1.31764e-06
1.31396e-06
1.31396e-06
1.31396e-06
1.31396e-06
1.31396e-06
1.31396e-06
1.3187e-06
1.32027e-06
1.32016e-06
1.31751e-06
1.31396e-06
1.31396e-06
1.31396e-06
1.31396e-06
1.31396e-06
1.31396e-06
1.31869e-06
1.31848e-06
1.31774e-06
1.31396e-06
1.31396e-06
1.31396e-06
1.31396e-06
1.31396e-06
1.31396e-06
1.31864e-06
1.3206e-06
1.31997e-06
1.31748e-06
1.31396e-06
1.31396e-06
1.31396e-06
1.31396e-06
1.31849e-06
1.31854e-06
1.32049e-06
1.32021e-06
1.31834e-06
1.31855e-06
1.31869e-06
1.31869e-06
1.31864e-06
1.31854e-06
1.32044e-06
1.3205e-06
1.32027e-06
1.31849e-06
1.3206e-06
1.3205e-06
1.30104e-06
1.30087e-06
1.30067e-06
1.29844e-06
1.29835e-06
1.29822e-06
1.29845e-06
1.30068e-06
1.30091e-06
1.30068e-06
1.29762e-06
1.29467e-06
1.29467e-06
1.29467e-06
1.29467e-06
1.2982e-06
1.29905e-06
1.29844e-06
1.29467e-06
1.29467e-06
1.29467e-06
1.29467e-06
1.29467e-06
1.29467e-06
1.29926e-06
1.30121e-06
1.30104e-06
1.29835e-06
1.29467e-06
1.29467e-06
1.29467e-06
1.29467e-06
1.29467e-06
1.29467e-06
1.2994e-06
1.30098e-06
1.30087e-06
1.29822e-06
1.29467e-06
1.29467e-06
1.29467e-06
1.29467e-06
1.29467e-06
1.29467e-06
1.2994e-06
1.29919e-06
1.29845e-06
1.29467e-06
1.29467e-06
1.29467e-06
1.29467e-06
1.29467e-06
1.29467e-06
1.29935e-06
1.30131e-06
1.30068e-06
1.29819e-06
1.29467e-06
1.29467e-06
1.29467e-06
1.29467e-06
1.2992e-06
1.29925e-06
1.3012e-06
1.30092e-06
1.29904e-06
1.29926e-06
1.2994e-06
1.2994e-06
1.29935e-06
1.29925e-06
1.30115e-06
1.30121e-06
1.30098e-06
1.29919e-06
1.30131e-06
1.3012e-06
1.28174e-06
1.28158e-06
1.28139e-06
1.27915e-06
1.27906e-06
1.27893e-06
1.27916e-06
1.28139e-06
1.28162e-06
1.28139e-06
1.27833e-06
1.27538e-06
1.27538e-06
1.27538e-06
1.27538e-06
1.2789e-06
1.27975e-06
1.27915e-06
1.27538e-06
1.27538e-06
1.27538e-06
1.27538e-06
1.27538e-06
1.27538e-06
1.27997e-06
1.28192e-06
1.28175e-06
1.27906e-06
1.27538e-06
1.27538e-06
1.27538e-06
1.27538e-06
1.27538e-06
1.27538e-06
1.28011e-06
1.28169e-06
1.28158e-06
1.27893e-06
1.27538e-06
1.27538e-06
1.27538e-06
1.27538e-06
1.27538e-06
1.27538e-06
1.28011e-06
1.2799e-06
1.27916e-06
1.27538e-06
1.27538e-06
1.27538e-06
1.27538e-06
1.27538e-06
1.27538e-06
1.28006e-06
1.28202e-06
1.28139e-06
1.2789e-06
1.27538e-06
1.27538e-06
1.27538e-06
1.27538e-06
1.27991e-06
1.27996e-06
1.28191e-06
1.28162e-06
1.27975e-06
1.27996e-06
1.28011e-06
1.28011e-06
1.28006e-06
1.27996e-06
1.28186e-06
1.28192e-06
1.28169e-06
1.2799e-06
1.28202e-06
1.28191e-06
1.26246e-06
1.26229e-06
1.26209e-06
1.25986e-06
1.25977e-06
1.25964e-06
1.25987e-06
1.2621e-06
1.26233e-06
1.2621e-06
1.25904e-06
1.25609e-06
1.25609e-06
1.25609e-06
1.25609e-06
1.25961e-06
1.26046e-06
1.25986e-06
1.25609e-06
1.25609e-06
1.25609e-06
1.25609e-06
1.25609e-06
1.25609e-06
1.26068e-06
1.26263e-06
1.26246e-06
1.25977e-06
1.25609e-06
1.25609e-06
1.25609e-06
1.25609e-06
1.25609e-06
1.25609e-06
1.26082e-06
1.2624e-06
1.26229e-06
1.25964e-06
1.25609e-06
1.25609e-06
1.25609e-06
1.25609e-06
1.25609e-06
1.25609e-06
1.26082e-06
1.26061e-06
1.25987e-06
1.25609e-06
1.25609e-06
1.25609e-06
1.25609e-06
1.25609e-06
1.25609e-06
1.26077e-06
1.26273e-06
1.2621e-06
1.25961e-06
1.25609e-06
1.25609e-06
1.25609e-06
1.25609e-06
1.26062e-06