/*--------------------------------*- C++ -*----------------------------------*\
| =========                 |                                                 |
| \\      /  F ield         | OpenFOAM: The Open Source CFD Toolbox           |
|  \\    /   O peration     | Version:  v2012                                 |
|   \\  /    A nd           | Website:  www.openfoam.com                      |
|    \\/     M anipulation  |                                                 |
\*---------------------------------------------------------------------------*/
FoamFile
{
    version     2.0;
    format      ascii;
    class       volScalarField;
    location    "325";
    object      epsilon;
}
// * * * * * * * * * * * * * * * * * * * * * * * * * * * * * * * * * * * * * //

dimensions      [0 2 -3 0 0 0 0];


internalField   nonuniform List<scalar> 
171728
(
3.32608e-09
7.21962e-09
4.79148e-09
5.01741e-09
3.25216e-09
6.73965e-09
4.44271e-09
4.53613e-09
3.1532e-09
6.24115e-09
4.1072e-09
4.111e-09
3.1101e-09
5.83329e-09
3.82853e-09
3.75108e-09
3.08647e-09
5.59386e-09
3.58915e-09
3.44207e-09
3.06909e-09
5.44396e-09
3.38552e-09
3.18284e-09
3.05512e-09
5.26833e-09
3.21981e-09
2.96497e-09
3.04512e-09
4.80419e-09
3.09184e-09
2.77892e-09
3.03865e-09
4.10165e-09
2.99296e-09
2.62476e-09
3.03535e-09
3.48103e-09
2.93782e-09
2.50515e-09
3.03473e-09
2.9643e-09
2.91708e-09
2.41967e-09
3.03793e-09
2.58969e-09
2.93657e-09
2.36838e-09
3.04461e-09
2.43519e-09
3.00259e-09
2.36134e-09
3.05653e-09
2.47897e-09
3.11679e-09
2.4097e-09
3.07292e-09
2.66606e-09
3.3176e-09
2.53097e-09
3.09411e-09
2.98672e-09
3.65508e-09
2.76564e-09
3.12058e-09
3.47165e-09
4.19874e-09
3.1983e-09
3.15185e-09
4.20901e-09
5.03443e-09
3.94006e-09
3.19016e-09
5.29988e-09
6.22344e-09
5.26803e-09
3.23756e-09
6.93318e-09
7.81024e-09
7.53903e-09
3.29885e-09
9.42446e-09
1.00902e-08
1.16018e-08
3.377e-09
1.2931e-08
1.31553e-08
1.83466e-08
3.47965e-09
1.77187e-08
1.82108e-08
2.94875e-08
3.61368e-09
2.44647e-08
2.45333e-08
4.79787e-08
3.7958e-09
3.3155e-08
3.35697e-08
7.56574e-08
4.03872e-09
4.55261e-08
4.40774e-08
1.09947e-07
4.3591e-09
5.92762e-08
5.87929e-08
1.62808e-07
4.82056e-09
7.78497e-08
7.56419e-08
2.19697e-07
5.40565e-09
9.83898e-08
9.49358e-08
3.03201e-07
6.291e-09
1.25668e-07
1.20209e-07
3.63474e-07
7.25228e-09
1.548e-07
1.4424e-07
4.56495e-07
8.79696e-09
1.82428e-07
1.75431e-07
5.23925e-07
1.05177e-08
2.20873e-07
2.11916e-07
5.96958e-07
1.28868e-08
2.39406e-07
2.43976e-07
6.57872e-07
1.58741e-08
2.94376e-07
2.8679e-07
7.15163e-07
1.99239e-08
3.2906e-07
3.29964e-07
7.68198e-07
2.28589e-08
3.6028e-07
3.60842e-07
8.10534e-07
2.8689e-08
4.1515e-07
4.12386e-07
8.49866e-07
3.58765e-08
4.5748e-07
4.64002e-07
8.91395e-07
4.24816e-08
5.15416e-07
5.04686e-07
9.24994e-07
5.15567e-08
5.48632e-07
5.60023e-07
9.53294e-07
6.12993e-08
6.08245e-07
6.01054e-07
9.94865e-07
7.63159e-08
6.53835e-07
6.5749e-07
1.01298e-06
8.54362e-08
6.9354e-07
6.94272e-07
1.04461e-06
1.0654e-07
7.49049e-07
7.46867e-07
1.08294e-06
1.25015e-07
7.85567e-07
7.9067e-07
1.10786e-06
1.43294e-07
8.3393e-07
8.33842e-07
1.1287e-06
1.63045e-07
8.73559e-07
8.64213e-07
1.15348e-06
1.88324e-07
9.03363e-07
9.10994e-07
1.1863e-06
2.23841e-07
9.51153e-07
9.50547e-07
1.21313e-06
2.42916e-07
9.72613e-07
9.67766e-07
1.22499e-06
2.68413e-07
1.0005e-06
1.0084e-06
1.25312e-06
3.06118e-07
1.03735e-06
1.03413e-06
1.27295e-06
3.30375e-07
1.05929e-06
1.05932e-06
1.29723e-06
3.63674e-07
1.07601e-06
1.0802e-06
1.3071e-06
3.88236e-07
1.1072e-06
1.1011e-06
1.3316e-06
4.27576e-07
1.12305e-06
1.12472e-06
1.34531e-06
4.50361e-07
1.13921e-06
1.14092e-06
1.35819e-06
4.80172e-07
1.16309e-06
1.15668e-06
1.37845e-06
5.05812e-07
1.17248e-06
1.18013e-06
1.38736e-06
5.35706e-07
1.19225e-06
1.18669e-06
1.40132e-06
5.53459e-07
1.20081e-06
1.20167e-06
1.40611e-06
5.77219e-07
1.21744e-06
1.22171e-06
1.42589e-06
6.05346e-07
1.22869e-06
1.22659e-06
1.43713e-06
6.16983e-07
1.23316e-06
1.23453e-06
1.43764e-06
6.31032e-07
1.23853e-06
1.24233e-06
1.44032e-06
6.50872e-07
1.25276e-06
1.25115e-06
1.4563e-06
6.6724e-07
1.25339e-06
1.25366e-06
1.46037e-06
6.7427e-07
1.24947e-06
1.24991e-06
1.4539e-06
6.93603e-07
1.27198e-06
1.27157e-06
1.4853e-06
7.13126e-07
1.28152e-06
1.28055e-06
1.50008e-06
7.02301e-07
1.24582e-06
1.24487e-06
1.45863e-06
6.7248e-07
1.19815e-06
1.19769e-06
1.39507e-06
6.67214e-07
1.1966e-06
1.19637e-06
1.39645e-06
7.0484e-07
1.24688e-06
1.24661e-06
1.46108e-06
7.60726e-07
1.31038e-06
1.31005e-06
1.54125e-06
7.94553e-07
1.35664e-06
1.35643e-06
1.6062e-06
7.93377e-07
1.35065e-06
1.35061e-06
1.60306e-06
7.44002e-07
1.27275e-06
1.27281e-06
1.50371e-06
6.88575e-07
1.19403e-06
1.19406e-06
1.39801e-06
6.60417e-07
1.15227e-06
1.1523e-06
1.34768e-06
6.57412e-07
1.14378e-06
1.14381e-06
1.34772e-06
6.72061e-07
1.15512e-06
1.15516e-06
1.37204e-06
6.77167e-07
1.16166e-06
1.16173e-06
1.39116e-06
6.74568e-07
1.16229e-06
1.16235e-06
1.40071e-06
6.71797e-07
1.16141e-06
1.16148e-06
1.40448e-06
6.70339e-07
1.16066e-06
1.16072e-06
1.40592e-06
6.69578e-07
1.16021e-06
1.16028e-06
1.40619e-06
6.69181e-07
1.15992e-06
1.15999e-06
1.40599e-06
6.69108e-07
1.15992e-06
1.15998e-06
1.4061e-06
6.69091e-07
1.15993e-06
1.16e-06
1.40626e-06
6.69075e-07
1.15992e-06
1.15998e-06
1.40597e-06
6.69077e-07
1.15997e-06
1.16004e-06
1.40621e-06
6.68836e-07
1.15968e-06
1.15974e-06
1.40577e-06
6.5106e-07
1.10521e-06
1.1052e-06
1.36441e-06
5.29457e-09
4.58349e-09
3.89911e-09
4.75751e-09
3.9748e-09
5.66646e-09
3.26743e-09
3.50055e-09
3.46839e-09
3.2565e-09
4.75542e-09
4.23101e-09
5.25304e-09
4.24042e-09
4.13181e-09
5.0438e-09
5.24479e-09
4.91469e-09
1.69105e-08
3.86077e-09
1.16699e-08
3.6826e-09
4.72057e-09
4.41064e-09
3.91987e-09
2.96775e-08
3.73357e-09
2.15985e-08
4.73213e-09
6.87111e-09
4.41537e-09
5.18223e-09
4.98443e-09
4.53376e-09
4.53517e-09
4.30204e-09
4.57024e-09
4.86801e-09
4.36938e-09
9.69517e-09
3.61784e-09
5.43327e-09
3.42859e-09
4.35218e-09
4.12739e-09
3.66329e-09
1.78342e-08
3.46336e-09
8.6596e-09
4.30409e-09
6.36353e-09
3.99705e-09
4.87585e-09
4.37366e-09
4.21566e-09
4.18533e-09
3.96523e-09
4.13987e-09
4.32801e-09
3.8396e-09
4.61614e-09
3.36815e-09
3.32669e-09
3.20356e-09
4.07623e-09
3.87686e-09
3.40048e-09
6.77236e-09
3.2212e-09
3.83107e-09
3.90298e-09
5.91985e-09
3.63932e-09
4.30799e-09
3.80331e-09
3.88535e-09
3.89412e-09
3.65664e-09
3.77597e-09
3.81409e-09
3.52828e-09
3.12366e-09
3.15392e-09
2.78649e-09
3.01503e-09
3.83316e-09
3.67249e-09
3.16498e-09
3.40803e-09
3.0069e-09
2.80555e-09
3.55775e-09
5.64007e-09
3.33389e-09
3.76862e-09
3.44776e-09
3.58511e-09
3.64597e-09
3.38774e-09
3.46298e-09
3.51557e-09
3.24848e-09
2.72362e-09
2.97244e-09
2.607e-09
2.8612e-09
3.63739e-09
3.51093e-09
2.95697e-09
2.7065e-09
2.8178e-09
2.55357e-09
3.26584e-09
5.47448e-09
3.08431e-09
3.43474e-09
3.20516e-09
3.32741e-09
3.43292e-09
3.162e-09
3.19975e-09
3.23362e-09
2.99676e-09
2.57997e-09
2.82944e-09
2.50436e-09
2.74411e-09
3.48157e-09
3.363e-09
2.77486e-09
2.52329e-09
2.65999e-09
2.44269e-09
3.02968e-09
5.33545e-09
2.88076e-09
3.18902e-09
2.9854e-09
3.11188e-09
3.25905e-09
2.97681e-09
2.97802e-09
2.98715e-09
2.79229e-09
2.48244e-09
2.71772e-09
2.42799e-09
2.64254e-09
3.34746e-09
3.12123e-09
2.6253e-09
2.42179e-09
2.53512e-09
2.37448e-09
2.83493e-09
4.94986e-09
2.71485e-09
2.97505e-09
2.79791e-09
2.93611e-09
3.12021e-09
2.82802e-09
2.7885e-09
2.78576e-09
2.62953e-09
2.41321e-09
2.61921e-09
2.37786e-09
2.55172e-09
3.09126e-09
2.82514e-09
2.50876e-09
2.36214e-09
2.44221e-09
2.33142e-09
2.67943e-09
4.28319e-09
2.58813e-09
2.79029e-09
2.65536e-09
2.79755e-09
3.01461e-09
2.71977e-09
2.63046e-09
2.62666e-09
2.50518e-09
2.37011e-09
2.53002e-09
2.3522e-09
2.47243e-09
2.81444e-09
2.66874e-09
2.42401e-09
2.32526e-09
2.38184e-09
2.31665e-09
2.56241e-09
3.62078e-09
2.50053e-09
2.65165e-09
2.54061e-09
2.70016e-09
2.94806e-09
2.65525e-09
2.50651e-09
2.50584e-09
2.41848e-09
2.35015e-09
2.45644e-09
2.3532e-09
2.41815e-09
2.66173e-09
2.4845e-09
2.37245e-09
2.31751e-09
2.35988e-09
2.32966e-09
2.48451e-09
3.08734e-09
2.45137e-09
2.54077e-09
2.46505e-09
2.6448e-09
2.91849e-09
2.61953e-09
2.41718e-09
2.42247e-09
2.3685e-09
2.35716e-09
2.41078e-09
2.38303e-09
2.40453e-09
2.47492e-09
2.33123e-09
2.36078e-09
2.33764e-09
2.37541e-09
2.37367e-09
2.44524e-09
2.66461e-09
2.44629e-09
2.46877e-09
2.42614e-09
2.61383e-09
2.92717e-09
2.60695e-09
2.36018e-09
2.378e-09
2.35508e-09
2.39577e-09
2.40783e-09
2.45582e-09
2.43967e-09
2.33516e-09
2.28444e-09
2.38511e-09
2.39155e-09
2.43146e-09
2.45852e-09
2.45105e-09
2.44815e-09
2.48941e-09
2.43661e-09
2.42531e-09
2.60952e-09
2.98166e-09
2.64015e-09
2.34254e-09
2.37399e-09
2.39043e-09
2.48108e-09
2.45354e-09
2.58364e-09
2.53369e-09
2.30137e-09
2.31292e-09
2.45153e-09
2.48535e-09
2.5333e-09
2.59024e-09
2.50875e-09
2.45125e-09
2.58428e-09
2.44461e-09
2.47063e-09
2.65692e-09
3.08324e-09
2.72352e-09
2.37777e-09
2.42302e-09
2.49464e-09
2.62431e-09
2.56655e-09
2.79025e-09
2.68442e-09
2.34588e-09
2.41875e-09
2.56787e-09
2.63416e-09
2.70473e-09
2.79002e-09
2.61718e-09
2.60732e-09
2.75359e-09
2.50341e-09
2.58462e-09
2.75302e-09
3.25594e-09
2.8815e-09
2.47635e-09
2.54974e-09
2.70291e-09
2.85618e-09
2.73594e-09
3.09812e-09
2.94676e-09
2.47178e-09
2.63092e-09
2.76398e-09
2.85308e-09
2.98858e-09
3.09182e-09
2.81174e-09
2.88737e-09
3.03572e-09
2.64183e-09
2.80954e-09
2.93608e-09
3.55329e-09
3.13901e-09
2.67737e-09
2.79548e-09
3.08064e-09
3.19602e-09
3.04495e-09
3.57023e-09
3.39448e-09
2.72838e-09
2.98652e-09
3.07792e-09
3.18855e-09
3.42142e-09
3.54583e-09
3.12556e-09
3.32582e-09
3.46945e-09
2.90562e-09
3.20601e-09
3.22412e-09
4.03671e-09
3.55397e-09
3.04438e-09
3.23329e-09
3.73906e-09
3.71235e-09
3.5441e-09
4.26792e-09
4.07005e-09
3.14961e-09
3.64398e-09
3.55798e-09
3.7006e-09
4.09086e-09
4.24094e-09
3.61794e-09
3.99164e-09
4.14837e-09
3.37257e-09
3.88367e-09
3.68644e-09
4.78369e-09
4.19097e-09
3.69229e-09
4.00189e-09
4.89883e-09
4.49755e-09
4.29138e-09
5.33604e-09
5.09999e-09
3.89844e-09
4.77466e-09
4.31117e-09
4.48166e-09
5.10079e-09
5.27307e-09
4.36154e-09
4.9719e-09
5.1879e-09
4.16978e-09
5.03943e-09
4.39917e-09
5.85097e-09
5.19822e-09
4.84805e-09
5.32646e-09
6.92309e-09
5.67008e-09
5.42656e-09
6.91618e-09
6.64909e-09
5.20425e-09
6.80205e-09
5.42034e-09
5.62515e-09
6.61797e-09
6.86069e-09
5.50616e-09
6.47308e-09
6.72329e-09
5.48857e-09
7.08085e-09
5.50772e-09
7.33358e-09
6.69603e-09
6.83466e-09
7.63143e-09
1.0433e-08
7.39728e-09
7.10549e-09
9.21901e-09
8.91569e-09
7.5009e-09
1.02785e-08
7.08407e-09
7.35541e-09
8.79904e-09
9.04025e-09
7.18427e-09
8.70281e-09
9.00318e-09
7.8085e-09
1.0353e-08
7.16686e-09
9.38576e-09
8.96579e-09
1.04126e-08
1.15824e-08
1.6599e-08
9.91116e-09
9.64463e-09
1.25659e-08
1.21501e-08
1.15843e-08
1.62063e-08
9.46531e-09
9.82573e-09
1.19978e-08
1.23935e-08
9.68636e-09
1.1876e-08
1.22169e-08
1.14744e-08
1.69443e-08
9.64967e-09
1.24718e-08
1.2186e-08
1.63687e-08
1.85024e-08
2.68085e-08
1.35523e-08
1.32148e-08
1.7144e-08
1.66898e-08
1.82333e-08
2.59044e-08
1.2953e-08
1.32417e-08
1.64705e-08
1.73032e-08
1.32403e-08
1.61786e-08
1.67322e-08
1.83627e-08
2.72571e-08
1.31914e-08
1.6885e-08
1.66771e-08
2.66471e-08
2.98097e-08
4.34056e-08
1.8518e-08
1.8186e-08
2.35296e-08
2.34307e-08
2.86589e-08
4.45441e-08
1.77839e-08
1.8609e-08
2.26965e-08
2.30855e-08
1.80908e-08
2.26712e-08
2.30112e-08
3.10528e-08
4.08201e-08
1.80669e-08
2.23795e-08
2.2904e-08
4.36309e-08
4.8197e-08
6.6911e-08
2.53645e-08
2.5317e-08
3.17066e-08
3.10218e-08
4.84016e-08
6.72829e-08
2.45453e-08
2.53613e-08
3.07772e-08
3.24092e-08
2.47534e-08
3.07383e-08
3.14642e-08
4.57581e-08
7.08655e-08
2.46685e-08
3.14278e-08
3.13703e-08
6.82004e-08
7.32632e-08
1.04652e-07
3.4281e-08
3.39439e-08
4.25598e-08
4.32973e-08
7.37978e-08
1.04588e-07
3.33692e-08
3.46848e-08
4.16003e-08
4.21511e-08
3.39573e-08
4.23354e-08
4.17852e-08
7.65918e-08
1.00028e-07
3.38317e-08
4.08723e-08
4.16456e-08
1.017e-07
1.12353e-07
1.51114e-07
4.57352e-08
4.55239e-08
5.55465e-08
5.61283e-08
1.14484e-07
1.47376e-07
4.47842e-08
4.54823e-08
5.482e-08
5.69664e-08
4.49754e-08
5.50362e-08
5.57847e-08
1.07238e-07
1.54124e-07
4.48458e-08
5.50527e-08
5.58338e-08
1.52512e-07
1.62081e-07
2.08672e-07
5.90635e-08
6.07923e-08
7.23807e-08
7.23598e-08
1.56144e-07
2.18407e-07
5.84096e-08
6.07396e-08
7.16037e-08
7.3447e-08
5.94542e-08
7.27344e-08
7.04683e-08
1.65918e-07
2.07798e-07
5.94509e-08
7.08245e-08
7.01816e-08
2.08434e-07
2.23399e-07
2.81538e-07
7.71223e-08
7.70673e-08
9.07211e-08
9.14552e-08
2.32015e-07
2.80826e-07
7.6433e-08
7.8101e-08
9.07504e-08
9.35002e-08
7.53871e-08
9.43406e-08
9.21913e-08
2.2218e-07
2.80376e-07
7.51955e-08
9.03226e-08
9.236e-08
2.84815e-07
2.9317e-07
3.56133e-07
9.51707e-08
9.49704e-08
1.13297e-07
1.12358e-07
2.95632e-07
3.48945e-07
9.55725e-08
9.87585e-08
1.129e-07
1.15371e-07
9.683e-08
1.1586e-07
1.11393e-07
2.93792e-07
3.58191e-07
9.67266e-08
1.1358e-07
1.11131e-07
3.49954e-07
3.743e-07
4.37846e-07
1.20468e-07
1.21808e-07
1.38801e-07
1.44678e-07
3.6924e-07
4.53824e-07
1.20279e-07
1.22392e-07
1.39567e-07
1.42111e-07
1.18133e-07
1.50276e-07
1.40184e-07
3.73785e-07
4.33739e-07
1.18063e-07
1.37036e-07
1.39318e-07
4.39233e-07
4.53848e-07
5.07129e-07
1.44701e-07
1.48778e-07
1.66728e-07
1.64902e-07
4.65631e-07
4.97437e-07
1.44911e-07
1.47242e-07
1.68508e-07
1.70968e-07
1.46584e-07
1.71787e-07
1.66118e-07
4.49741e-07
5.07621e-07
1.45551e-07
1.68365e-07
1.66711e-07
5.10078e-07
5.23132e-07
5.83602e-07
1.74684e-07
1.75108e-07
1.98713e-07
2.08624e-07
5.13473e-07
5.97748e-07
1.77621e-07
1.80329e-07
2.00778e-07
2.01312e-07
1.74301e-07
2.15137e-07
1.98999e-07
5.23597e-07
5.8729e-07
1.74566e-07
2.01385e-07
1.97162e-07
5.80567e-07
5.99336e-07
6.42519e-07
2.0786e-07
2.16113e-07
2.352e-07
2.331e-07
6.09892e-07
6.34946e-07
2.09296e-07
2.09525e-07
2.38548e-07
2.37971e-07
2.07164e-07
2.32691e-07
2.33699e-07
6.01635e-07
6.42587e-07
2.05453e-07
2.37321e-07
2.35069e-07
6.4371e-07
6.56065e-07
7.04439e-07
2.42419e-07
2.41309e-07
2.69416e-07
2.84057e-07
6.47444e-07
7.12657e-07
2.46512e-07
2.45273e-07
2.7287e-07
2.69172e-07
2.42548e-07
2.78188e-07
2.71336e-07
6.57313e-07
7.01052e-07
2.44796e-07
2.73339e-07
2.68881e-07
7.02968e-07
7.17568e-07
7.61076e-07
2.83739e-07
2.99663e-07
3.20897e-07
3.28927e-07
7.28204e-07
7.57538e-07
2.85989e-07
2.81762e-07
3.23751e-07
3.19113e-07
2.81285e-07
3.23699e-07
3.11772e-07
7.15341e-07
7.59394e-07
2.77088e-07
3.22378e-07
3.1351e-07
7.54647e-07
7.72431e-07
7.96356e-07
3.28465e-07
3.33961e-07
3.52797e-07
3.51165e-07
7.66491e-07
7.92974e-07
3.33415e-07
3.27087e-07
3.56318e-07
3.50757e-07
3.23837e-07
3.49111e-07
3.57355e-07
7.70002e-07
7.94456e-07
3.27063e-07
3.51097e-07
3.54853e-07
8.00612e-07
8.0703e-07
8.43139e-07
3.6242e-07
3.60932e-07
3.98766e-07
4.05582e-07
8.04818e-07
8.40692e-07
3.63233e-07
3.61855e-07
3.95586e-07
3.99173e-07
3.65693e-07
4.0431e-07
3.96877e-07
8.05295e-07
8.42934e-07
3.6194e-07
3.97205e-07
3.97422e-07
8.38911e-07
8.5458e-07
8.81938e-07
4.1405e-07
4.17697e-07
4.5361e-07
4.52677e-07
8.51593e-07
8.81674e-07
4.11888e-07
4.12848e-07
4.55875e-07
4.5145e-07
4.10056e-07
4.4376e-07
4.46174e-07
8.54473e-07
8.81055e-07
4.1205e-07
4.54539e-07
4.45732e-07
8.81068e-07
8.90899e-07
9.13893e-07
4.62199e-07
4.67287e-07
4.90962e-07
5.08491e-07
8.93082e-07
9.18424e-07
4.64973e-07
4.61058e-07
4.93579e-07
4.89093e-07
4.5859e-07
5.0375e-07
5.00754e-07
8.9017e-07
9.14957e-07
4.56973e-07
4.90968e-07
4.99322e-07
9.16893e-07
9.23696e-07
9.49655e-07
5.0524e-07
5.19347e-07
5.45709e-07
5.44118e-07
9.26022e-07
9.44995e-07
5.07456e-07
5.02899e-07
5.43758e-07
5.50132e-07
5.12633e-07
5.40185e-07
5.37866e-07
9.24696e-07
9.50552e-07
5.12133e-07
5.49637e-07
5.39078e-07
9.44089e-07
9.5733e-07
9.7871e-07
5.56238e-07
5.52103e-07
5.88636e-07
5.91692e-07
9.53686e-07
9.78684e-07
5.52765e-07
5.61895e-07
5.87969e-07
5.88613e-07
5.47523e-07
5.92389e-07
5.94191e-07
9.58347e-07
9.77397e-07
5.48408e-07
5.87886e-07
5.93011e-07
9.85957e-07
9.88151e-07
1.01246e-06
6.02127e-07
6.06421e-07
6.45401e-07
6.40905e-07
9.88361e-07
1.01181e-06
6.03923e-07
6.00207e-07
6.45406e-07
6.43886e-07
6.11487e-07
6.41954e-07
6.47316e-07
9.86569e-07
1.0145e-06
6.10052e-07
6.4442e-07
6.45482e-07
1.00752e-06
1.01922e-06
1.03452e-06
6.56553e-07
6.54554e-07
6.80607e-07
6.93854e-07
1.01952e-06
1.04034e-06
6.54063e-07
6.5802e-07
6.77264e-07
6.87948e-07
6.5514e-07
6.84597e-07
6.80591e-07
1.02225e-06
1.03839e-06
6.53137e-07
6.86482e-07
6.79307e-07
1.03433e-06
1.04215e-06
1.07161e-06
6.90494e-07
7.02708e-07
7.37074e-07
7.32571e-07
1.04745e-06
1.06745e-06
6.89173e-07
6.95968e-07
7.3896e-07
7.33423e-07
6.92603e-07
7.34048e-07
7.41444e-07
1.04533e-06
1.06807e-06
6.92239e-07
7.30454e-07
7.42445e-07
1.07502e-06
1.08103e-06
1.10033e-06
7.52081e-07
7.46772e-07
7.81004e-07
7.80429e-07
1.07578e-06
1.09646e-06
7.53448e-07
7.4904e-07
7.80173e-07
7.82145e-07
7.56142e-07
7.78363e-07
7.86967e-07
1.07707e-06
1.10064e-06
7.56352e-07
7.82854e-07
7.85005e-07
1.10132e-06
1.10606e-06
1.1227e-06
7.9095e-07
7.8786e-07
8.23426e-07
8.18472e-07
1.10228e-06
1.12321e-06
7.87949e-07
7.89243e-07
8.20928e-07
8.19031e-07
7.94111e-07
8.19469e-07
8.1858e-07
1.10662e-06
1.12244e-06
7.92198e-07
8.22346e-07
8.1902e-07
1.12253e-06
1.12932e-06
1.14573e-06
8.31818e-07
8.32299e-07
8.54397e-07
8.65461e-07
1.132e-06
1.15205e-06
8.31213e-07
8.31973e-07
8.55504e-07
8.60212e-07
8.3031e-07
8.66556e-07
8.59168e-07
1.1296e-06
1.14746e-06
8.31067e-07
8.57408e-07
8.59368e-07
1.14691e-06
1.15256e-06
1.17882e-06
8.64134e-07
8.72702e-07
9.01677e-07
8.93851e-07
1.15733e-06
1.1726e-06
8.64799e-07
8.67287e-07
9.01261e-07
8.9789e-07
8.67024e-07
8.94025e-07
8.98754e-07
1.15318e-06
1.17618e-06
8.66853e-07
8.9672e-07
8.98441e-07
1.17803e-06
1.18725e-06
1.20679e-06
9.14475e-07
9.03619e-07
9.42259e-07
9.41342e-07
1.17979e-06
1.20647e-06
9.13978e-07
9.11288e-07
9.41135e-07
9.42991e-07
9.11294e-07
9.40675e-07
9.4305e-07
1.18533e-06
1.20788e-06
9.11357e-07
9.44289e-07
9.43169e-07
1.20785e-06
1.21109e-06
1.21845e-06
9.47803e-07
9.51722e-07
9.62757e-07
9.69772e-07
1.21345e-06
1.22575e-06
9.4651e-07
9.48913e-07
9.62704e-07
9.6152e-07
9.50015e-07
9.6856e-07
9.64547e-07
1.21254e-06
1.21925e-06
9.50082e-07
9.62617e-07
9.64604e-07
1.22106e-06
1.22369e-06
1.2465e-06
9.69513e-07
9.73923e-07
9.95645e-07
9.92522e-07
1.2297e-06
1.24155e-06
9.70253e-07
9.67417e-07
9.95302e-07
9.98246e-07
9.70194e-07
9.91544e-07
9.9644e-07
1.22344e-06
1.24595e-06
9.70219e-07
9.96034e-07
9.9638e-07
1.24544e-06
1.25309e-06
1.27138e-06
1.00546e-06
1.00189e-06
1.03082e-06
1.02888e-06
1.24788e-06
1.26961e-06
1.0044e-06
1.01023e-06
1.03052e-06
1.03069e-06
1.00447e-06
1.02847e-06
1.02561e-06
1.25517e-06
1.27302e-06
1.00485e-06
1.03034e-06
1.02591e-06
1.26727e-06
1.27677e-06
1.28593e-06
1.03564e-06
1.03582e-06
1.04974e-06
1.05375e-06
1.27596e-06
1.29032e-06
1.0357e-06
1.0342e-06
1.04895e-06
1.04969e-06
1.03501e-06
1.05613e-06
1.05748e-06
1.27643e-06
1.28525e-06
1.03443e-06
1.05087e-06
1.05619e-06
1.2929e-06
1.29064e-06
1.30766e-06
1.05749e-06
1.0589e-06
1.07787e-06
1.07259e-06
1.29438e-06
1.30186e-06
1.05642e-06
1.05813e-06
1.07746e-06
1.07869e-06
1.06157e-06
1.0697e-06
1.07239e-06
1.2918e-06
1.30891e-06
1.06087e-06
1.07738e-06
1.0726e-06
1.30287e-06
1.31189e-06
1.32e-06
1.08118e-06
1.07807e-06
1.09435e-06
1.09876e-06
1.30628e-06
1.32517e-06
1.08095e-06
1.08179e-06
1.0949e-06
1.09376e-06
1.07761e-06
1.10061e-06
1.09908e-06
1.31194e-06
1.31851e-06
1.07792e-06
1.09357e-06
1.10023e-06
1.32543e-06
1.32595e-06
1.34604e-06
1.10244e-06
1.10542e-06
1.12403e-06
1.12012e-06
1.33156e-06
1.3422e-06
1.10306e-06
1.10068e-06
1.12268e-06
1.12078e-06
1.10661e-06
1.11988e-06
1.12157e-06
1.32452e-06
1.34307e-06
1.10749e-06
1.12047e-06
1.12005e-06
1.34243e-06
1.34966e-06
1.35301e-06
1.12714e-06
1.12356e-06
1.13535e-06
1.13531e-06
1.34521e-06
1.35252e-06
1.12554e-06
1.12579e-06
1.13483e-06
1.13732e-06
1.12405e-06
1.13405e-06
1.13407e-06
1.34716e-06
1.35517e-06
1.12266e-06
1.13741e-06
1.13712e-06
1.35263e-06
1.35722e-06
1.37228e-06
1.14045e-06
1.1405e-06
1.15635e-06
1.15713e-06
1.35759e-06
1.37276e-06
1.14037e-06
1.14002e-06
1.15564e-06
1.15131e-06
1.14014e-06
1.15807e-06
1.15986e-06
1.3591e-06
1.36661e-06
1.14375e-06
1.15112e-06
1.15776e-06
1.37442e-06
1.37594e-06
1.38225e-06
1.15917e-06
1.16168e-06
1.16954e-06
1.1699e-06
1.37736e-06
1.38316e-06
1.15859e-06
1.15773e-06
1.1709e-06
1.1765e-06
1.16393e-06
1.1703e-06
1.17063e-06
1.37138e-06
1.38893e-06
1.16082e-06
1.17594e-06
1.17199e-06
1.38385e-06
1.38712e-06
1.40091e-06
1.17524e-06
1.17268e-06
1.1907e-06
1.18778e-06
1.38603e-06
1.39648e-06
1.17668e-06
1.17989e-06
1.19033e-06
1.18466e-06
1.17362e-06
1.18682e-06
1.18844e-06
1.3934e-06
1.39494e-06
1.17659e-06
1.18527e-06
1.18772e-06
1.39764e-06
1.40414e-06
1.40404e-06
1.19345e-06
1.19291e-06
1.19704e-06
1.19989e-06
1.40178e-06
1.40797e-06
1.19248e-06
1.18669e-06
1.19591e-06
1.19817e-06
1.19262e-06
1.19951e-06
1.19769e-06
1.39677e-06
1.40499e-06
1.18958e-06
1.19632e-06
1.19409e-06
1.40346e-06
1.40639e-06
1.41964e-06
1.19883e-06
1.20116e-06
1.21244e-06
1.21186e-06
1.41015e-06
1.41899e-06
1.19804e-06
1.20311e-06
1.21274e-06
1.21736e-06
1.19914e-06
1.21172e-06
1.21118e-06
1.4108e-06
1.42672e-06
1.19727e-06
1.21813e-06
1.2144e-06
1.4195e-06
1.42639e-06
1.43609e-06
1.21886e-06
1.21737e-06
1.22924e-06
1.22695e-06
1.42479e-06
1.43306e-06
1.21949e-06
1.22102e-06
1.23042e-06
1.2259e-06
1.21749e-06
1.22776e-06
1.22941e-06
1.4308e-06
1.43083e-06
1.2202e-06
1.22595e-06
1.22882e-06
1.43529e-06
1.43777e-06
1.43457e-06
1.2298e-06
1.22784e-06
1.2311e-06
1.23186e-06
1.43479e-06
1.43433e-06
1.23095e-06
1.22646e-06
1.2311e-06
1.23084e-06
1.23042e-06
1.23144e-06
1.23208e-06
1.43207e-06
1.43313e-06
1.22939e-06
1.2316e-06
1.2308e-06
1.43519e-06
1.43715e-06
1.44034e-06
1.23275e-06
1.2344e-06
1.23715e-06
1.23952e-06
1.43762e-06
1.4425e-06
1.23198e-06
1.2336e-06
1.23619e-06
1.24103e-06
1.23314e-06
1.23723e-06
1.23552e-06
1.43715e-06
1.44575e-06
1.23184e-06
1.24169e-06
1.23477e-06
1.43833e-06
1.44265e-06
1.45153e-06
1.23828e-06
1.24037e-06
1.24748e-06
1.24858e-06
1.44472e-06
1.45342e-06
1.23781e-06
1.24189e-06
1.2484e-06
1.24826e-06
1.23659e-06
1.249e-06
1.24669e-06
1.44802e-06
1.45236e-06
1.23608e-06
1.24775e-06
1.24705e-06
1.45044e-06
1.45669e-06
1.45825e-06
1.25143e-06
1.25228e-06
1.25457e-06
1.25502e-06
1.45851e-06
1.45897e-06
1.25205e-06
1.25154e-06
1.25451e-06
1.25424e-06
1.25114e-06
1.25515e-06
1.25485e-06
1.45671e-06
1.4583e-06
1.25166e-06
1.25472e-06
1.25558e-06
1.45959e-06
1.459e-06
1.4498e-06
1.25318e-06
1.25342e-06
1.24915e-06
1.24913e-06
1.45964e-06
1.44946e-06
1.25291e-06
1.25286e-06
1.24891e-06
1.24892e-06
1.25348e-06
1.2491e-06
1.24934e-06
1.45906e-06
1.44947e-06
1.25431e-06
1.2496e-06
1.25005e-06
1.45102e-06
1.45291e-06
1.47723e-06
1.24955e-06
1.24947e-06
1.26512e-06
1.26464e-06
1.4524e-06
1.47622e-06
1.24934e-06
1.24933e-06
1.26515e-06
1.26492e-06
1.2497e-06
1.26475e-06
1.2648e-06
1.45244e-06
1.47628e-06
1.25035e-06
1.26458e-06
1.26472e-06
1.47676e-06
1.48591e-06
1.49918e-06
1.27236e-06
1.27186e-06
1.28223e-06
1.28195e-06
1.48493e-06
1.49879e-06
1.2724e-06
1.27209e-06
1.28217e-06
1.28169e-06
1.27199e-06
1.28207e-06
1.28218e-06
1.48489e-06
1.49811e-06
1.27171e-06
1.28116e-06
1.28168e-06
1.4989e-06
1.50031e-06
1.46245e-06
1.28164e-06
1.28141e-06
1.25851e-06
1.25859e-06
1.49998e-06
1.46272e-06
1.28155e-06
1.28106e-06
1.25833e-06
1.25791e-06
1.28166e-06
1.25861e-06
1.25889e-06
1.49925e-06
1.46173e-06
1.28114e-06
1.2576e-06
1.25843e-06
1.46281e-06
1.45823e-06
1.39602e-06
1.24568e-06
1.24581e-06
1.20614e-06
1.20621e-06
1.45853e-06
1.39618e-06
1.24548e-06
1.24511e-06
1.20596e-06
1.20577e-06
1.24612e-06
1.20619e-06
1.20651e-06
1.45755e-06
1.39577e-06
1.24569e-06
1.20563e-06
1.20622e-06
1.3964e-06
1.39471e-06
1.38876e-06
1.19814e-06
1.19815e-06
1.19275e-06
1.19268e-06
1.39484e-06
1.3886e-06
1.19798e-06
1.19784e-06
1.19264e-06
1.19257e-06
1.19846e-06
1.19268e-06
1.19298e-06
1.39448e-06
1.38867e-06
1.19819e-06
1.19237e-06
1.19274e-06
1.38889e-06
1.39636e-06
1.44665e-06
1.19671e-06
1.19659e-06
1.23186e-06
1.23174e-06
1.39615e-06
1.44641e-06
1.19664e-06
1.19662e-06
1.23181e-06
1.23187e-06
1.1969e-06
1.23176e-06
1.23198e-06
1.39629e-06
1.44657e-06
1.19665e-06
1.23152e-06
1.23171e-06
1.44661e-06
1.46112e-06
1.52522e-06
1.24695e-06
1.24687e-06
1.29444e-06
1.2945e-06
1.46092e-06
1.52522e-06
1.24689e-06
1.24695e-06
1.29433e-06
1.29439e-06
1.24708e-06
1.29448e-06
1.29461e-06
1.46103e-06
1.52508e-06
1.24681e-06
1.29414e-06
1.29438e-06
1.5253e-06
1.54117e-06
1.59653e-06
1.31033e-06
1.31042e-06
1.34917e-06
1.3493e-06
1.54119e-06
1.59662e-06
1.31022e-06
1.31027e-06
1.34905e-06
1.3491e-06
1.31052e-06
1.34923e-06
1.34935e-06
1.54101e-06
1.59639e-06
1.3103e-06
1.34898e-06
1.34918e-06
1.5967e-06
1.60604e-06
1.60537e-06
1.35659e-06
1.35672e-06
1.35923e-06
1.35935e-06
1.60614e-06
1.60547e-06
1.35647e-06
1.35652e-06
1.35911e-06
1.35917e-06
1.35677e-06
1.35926e-06
1.35937e-06
1.6059e-06
1.6053e-06
1.35662e-06
1.35913e-06
1.35926e-06
1.60553e-06
1.60291e-06
1.51217e-06
1.35064e-06
1.35074e-06
1.29567e-06
1.29574e-06
1.60301e-06
1.51222e-06
1.35052e-06
1.35059e-06
1.29555e-06
1.29566e-06
1.35074e-06
1.29566e-06
1.29573e-06
1.60285e-06
1.51222e-06
1.35067e-06
1.29571e-06
1.2957e-06
1.51228e-06
1.5036e-06
1.40319e-06
1.27275e-06
1.27281e-06
1.21068e-06
1.21072e-06
1.50365e-06
1.40319e-06
1.27264e-06
1.27275e-06
1.21056e-06
1.2107e-06
1.2728e-06
1.21066e-06
1.21072e-06
1.50366e-06
1.40329e-06
1.27278e-06
1.2107e-06
1.21068e-06
1.40326e-06
1.39794e-06
1.34773e-06
1.19404e-06
1.19408e-06
1.15908e-06
1.15912e-06
1.39794e-06
1.3477e-06
1.19393e-06
1.19407e-06
1.15897e-06
1.15912e-06
1.19408e-06
1.15904e-06
1.15913e-06
1.39803e-06
1.3478e-06
1.19403e-06
1.15906e-06
1.15904e-06
1.34778e-06
1.34763e-06
1.34321e-06
1.15232e-06
1.15236e-06
1.14383e-06
1.14388e-06
1.34761e-06
1.34318e-06
1.1522e-06
1.15235e-06
1.14372e-06
1.14388e-06
1.15236e-06
1.14377e-06
1.14389e-06
1.3477e-06
1.34326e-06
1.15227e-06
1.1438e-06
1.14378e-06
1.34327e-06
1.34767e-06
1.36594e-06
1.14385e-06
1.14389e-06
1.15227e-06
1.15232e-06
1.34763e-06
1.3659e-06
1.14374e-06
1.14389e-06
1.15217e-06
1.15232e-06
1.1439e-06
1.1522e-06
1.15234e-06
1.34771e-06
1.36599e-06
1.1438e-06
1.15224e-06
1.15224e-06
1.36601e-06
1.37198e-06
1.38663e-06
1.15518e-06
1.15523e-06
1.16075e-06
1.1608e-06
1.37194e-06
1.38658e-06
1.1551e-06
1.15524e-06
1.16067e-06
1.16082e-06
1.15526e-06
1.16068e-06
1.16083e-06
1.37202e-06
1.38667e-06
1.15516e-06
1.16074e-06
1.16074e-06
1.3867e-06
1.39109e-06
1.39775e-06
1.16174e-06
1.16178e-06
1.16243e-06
1.16247e-06
1.39104e-06
1.39769e-06
1.16166e-06
1.1618e-06
1.16235e-06
1.16249e-06
1.16182e-06
1.16235e-06
1.16251e-06
1.39112e-06
1.39778e-06
1.16173e-06
1.16242e-06
1.16242e-06
1.39782e-06
1.40064e-06
1.40224e-06
1.16237e-06
1.16241e-06
1.16164e-06
1.16168e-06
1.40059e-06
1.40219e-06
1.16229e-06
1.16243e-06
1.16155e-06
1.16171e-06
1.16245e-06
1.16156e-06
1.16172e-06
1.40067e-06
1.40228e-06
1.16236e-06
1.16162e-06
1.16163e-06
1.40231e-06
1.40441e-06
1.40394e-06
1.16149e-06
1.16153e-06
1.16083e-06
1.16086e-06
1.40436e-06
1.40389e-06
1.16141e-06
1.16156e-06
1.16074e-06
1.16089e-06
1.16157e-06
1.16074e-06
1.16091e-06
1.40444e-06
1.40398e-06
1.16149e-06
1.16081e-06
1.16082e-06
1.40402e-06
1.40585e-06
1.40428e-06
1.16074e-06
1.16078e-06
1.16034e-06
1.16037e-06
1.4058e-06
1.40423e-06
1.16066e-06
1.16081e-06
1.16025e-06
1.1604e-06
1.16082e-06
1.16025e-06
1.16042e-06
1.40588e-06
1.40431e-06
1.16073e-06
1.16032e-06
1.16033e-06
1.40435e-06
1.40612e-06
1.40415e-06
1.1603e-06
1.16033e-06
1.16e-06
1.16004e-06
1.40607e-06
1.4041e-06
1.16021e-06
1.16036e-06
1.15992e-06
1.16007e-06
1.16038e-06
1.15992e-06
1.16008e-06
1.40615e-06
1.40419e-06
1.16029e-06
1.15998e-06
1.15999e-06
1.40422e-06
1.40592e-06
1.40418e-06
1.16001e-06
1.16004e-06
1.15993e-06
1.15997e-06
1.40587e-06
1.40413e-06
1.15992e-06
1.16007e-06
1.15985e-06
1.16e-06
1.16009e-06
1.15985e-06
1.16001e-06
1.40595e-06
1.40421e-06
1.16e-06
1.15992e-06
1.15992e-06
1.40425e-06
1.40603e-06
1.40439e-06
1.16e-06
1.16004e-06
1.15995e-06
1.15999e-06
1.40599e-06
1.40433e-06
1.15992e-06
1.16007e-06
1.15986e-06
1.16001e-06
1.16008e-06
1.15986e-06
1.16003e-06
1.40606e-06
1.40442e-06
1.15999e-06
1.15993e-06
1.15994e-06
1.40446e-06
1.40619e-06
1.4041e-06
1.16002e-06
1.16006e-06
1.15989e-06
1.15992e-06
1.40614e-06
1.40404e-06
1.15994e-06
1.16009e-06
1.1598e-06
1.15995e-06
1.1601e-06
1.1598e-06
1.15997e-06
1.40621e-06
1.40413e-06
1.16001e-06
1.15987e-06
1.15988e-06
1.40417e-06
1.4059e-06
1.40432e-06
1.16e-06
1.16004e-06
1.15989e-06
1.15993e-06
1.40585e-06
1.40427e-06
1.15992e-06
1.16007e-06
1.15981e-06
1.15996e-06
1.16008e-06
1.1598e-06
1.15997e-06
1.40593e-06
1.40436e-06
1.15999e-06
1.15987e-06
1.15988e-06
1.40439e-06
1.40615e-06
1.40403e-06
1.16006e-06
1.16009e-06
1.1595e-06
1.15954e-06
1.4061e-06
1.40398e-06
1.15998e-06
1.16012e-06
1.15941e-06
1.15956e-06
1.16013e-06
1.15941e-06
1.15957e-06
1.40618e-06
1.40406e-06
1.16004e-06
1.15947e-06
1.15948e-06
1.40409e-06
1.40571e-06
1.38545e-06
1.15977e-06
1.1598e-06
1.13949e-06
1.13952e-06
1.40566e-06
1.38544e-06
1.15968e-06
1.15983e-06
1.13947e-06
1.13948e-06
1.15984e-06
1.13952e-06
1.13954e-06
1.40573e-06
1.38547e-06
1.15974e-06
1.13951e-06
1.13951e-06
1.38549e-06
1.36437e-06
1.10515e-06
1.10518e-06
1.36437e-06
1.10515e-06
1.10513e-06
6.51089e-07
6.51059e-07
6.511e-07
1.1052e-06
1.36438e-06
1.10519e-06
7.8848e-09
2.61391e-09
4.85804e-09
4.84832e-09
1.57821e-09
5.56352e-09
1.61692e-08
2.75324e-09
1.50781e-09
4.31181e-09
2.85521e-09
7.44615e-09
5.21897e-09
3.72333e-09
6.60682e-09
7.73548e-09
2.24018e-07
6.29624e-09
3.48659e-07
1.48285e-06
2.86721e-06
7.45414e-09
1.59312e-07
6.25674e-09
2.51667e-07
3.51446e-09
3.59161e-09
3.26332e-09
3.28515e-09
3.50133e-09
3.54102e-09
3.24573e-09
1.53523e-09
1.0345e-07
3.23729e-09
7.13255e-09
1.56032e-09
7.9514e-08
3.19218e-09
1.91579e-06
3.76346e-06
1.51896e-09
2.52767e-09
8.25983e-08
4.71844e-09
1.5234e-09
2.4926e-09
6.08387e-08
2.16071e-07
2.14188e-07
4.81194e-09
1.83985e-07
1.83535e-07
1.71098e-08
6.51813e-07
1.29413e-08
9.10256e-07
6.69905e-06
9.68647e-06
1.61557e-08
4.49871e-07
1.29019e-08
6.42743e-07
3.49044e-09
3.47444e-09
3.23543e-09
3.17167e-09
3.45722e-09
3.31204e-09
3.20582e-09