/*--------------------------------*- C++ -*----------------------------------*\
| =========                 |                                                 |
| \\      /  F ield         | OpenFOAM: The Open Source CFD Toolbox           |
|  \\    /   O peration     | Version:  v2012                                 |
|   \\  /    A nd           | Website:  www.openfoam.com                      |
|    \\/     M anipulation  |                                                 |
\*---------------------------------------------------------------------------*/
FoamFile
{
    version     2.0;
    format      ascii;
    class       volScalarField;
    location    "325";
    object      k;
}
// * * * * * * * * * * * * * * * * * * * * * * * * * * * * * * * * * * * * * //

dimensions      [0 2 -2 0 0 0 0];


internalField   nonuniform List<scalar> 
171728
(
4.84357e-07
4.23708e-07
3.16839e-07
3.52304e-07
4.79681e-07
4.06903e-07
3.05352e-07
3.33188e-07
4.76743e-07
3.87279e-07
2.93435e-07
3.15957e-07
4.71014e-07
3.63793e-07
2.85551e-07
3.00328e-07
4.72445e-07
3.55668e-07
2.78943e-07
2.8588e-07
4.77984e-07
3.60482e-07
2.72572e-07
2.73233e-07
4.8189e-07
3.77112e-07
2.67471e-07
2.62787e-07
4.86151e-07
4.02845e-07
2.63442e-07
2.53571e-07
4.91103e-07
4.49875e-07
2.59505e-07
2.44425e-07
4.9635e-07
4.74008e-07
2.5721e-07
2.36033e-07
5.01882e-07
4.21624e-07
2.56648e-07
2.29388e-07
5.08023e-07
2.83954e-07
2.57809e-07
2.23066e-07
5.14234e-07
2.12352e-07
2.60516e-07
2.17989e-07
5.2082e-07
1.92009e-07
2.65343e-07
2.14339e-07
5.27964e-07
1.90574e-07
2.74408e-07
2.12798e-07
5.35364e-07
1.96321e-07
2.90099e-07
2.14119e-07
5.42156e-07
2.06566e-07
3.12554e-07
2.20417e-07
5.49396e-07
2.2407e-07
3.42907e-07
2.36933e-07
5.56611e-07
2.50597e-07
3.78742e-07
2.72756e-07
5.64187e-07
2.98111e-07
4.14793e-07
3.41066e-07
5.72068e-07
3.75032e-07
4.49052e-07
4.75609e-07
5.81016e-07
4.91094e-07
5.43509e-07
6.981e-07
5.9077e-07
6.4163e-07
6.97649e-07
1.09508e-06
6.02773e-07
8.89906e-07
8.79046e-07
1.75662e-06
6.1607e-07
1.189e-06
1.25305e-06
2.64381e-06
6.3245e-07
1.67809e-06
1.58897e-06
3.84143e-06
6.50981e-07
2.14183e-06
2.15819e-06
5.76564e-06
6.78176e-07
2.78206e-06
2.74155e-06
7.75286e-06
7.12291e-07
3.81053e-06
3.52339e-06
1.02951e-05
7.53014e-07
4.35591e-06
4.50922e-06
1.23553e-05
8.08608e-07
6.2188e-06
5.30199e-06
1.53326e-05
8.8978e-07
6.57687e-06
6.64161e-06
1.75809e-05
9.6081e-07
8.91333e-06
7.89121e-06
1.97267e-05
1.12513e-06
9.32022e-06
9.4074e-06
2.17041e-05
1.19152e-06
1.06811e-05
1.05868e-05
2.3674e-05
1.49382e-06
1.31762e-05
1.29767e-05
2.51847e-05
1.65988e-06
1.344e-05
1.36872e-05
2.68979e-05
1.7748e-06
1.59935e-05
1.52649e-05
2.79998e-05
2.40566e-06
1.69284e-05
1.79457e-05
2.95192e-05
2.57049e-06
1.98145e-05
1.87439e-05
3.09639e-05
3.19907e-06
2.09626e-05
2.15401e-05
3.16737e-05
3.52225e-06
2.27638e-05
2.24142e-05
3.33806e-05
4.51712e-06
2.47056e-05
2.48116e-05
3.4441e-05
5.04534e-06
2.62604e-05
2.64879e-05
3.48278e-05
5.66155e-06
2.80217e-05
2.76882e-05
3.68989e-05
7.27856e-06
2.99264e-05
3.00794e-05
3.78888e-05
7.9057e-06
3.10252e-05
3.14695e-05
3.8568e-05
9.217e-06
3.35091e-05
3.28855e-05
3.95048e-05
9.75945e-06
3.40127e-05
3.38765e-05
4.05873e-05
1.23656e-05
3.60063e-05
3.65127e-05
4.22186e-05
1.34736e-05
3.74643e-05
3.71052e-05
4.25271e-05
1.41942e-05
3.78563e-05
3.77491e-05
4.34164e-05
1.63033e-05
3.95071e-05
3.99888e-05
4.42519e-05
1.77315e-05
4.109e-05
4.03753e-05
4.56085e-05
1.93688e-05
4.13588e-05
4.20127e-05
4.58369e-05
2.03207e-05
4.27839e-05
4.22913e-05
4.67953e-05
2.24516e-05
4.39406e-05
4.38113e-05
4.77165e-05
2.37898e-05
4.43844e-05
4.4772e-05
4.79394e-05
2.5181e-05
4.56759e-05
4.52019e-05
4.91625e-05
2.64204e-05
4.64312e-05
4.66407e-05
4.95603e-05
2.79985e-05
4.71507e-05
4.73426e-05
5.03119e-05
2.94707e-05
4.80188e-05
4.74431e-05
5.05798e-05
2.98656e-05
4.84086e-05
4.89528e-05
5.1181e-05
3.2029e-05
4.9767e-05
4.97254e-05
5.22787e-05
3.30604e-05
4.98918e-05
4.97409e-05
5.23381e-05
3.36325e-05
5.03171e-05
5.05854e-05
5.25244e-05
3.44698e-05
5.10667e-05
5.09357e-05
5.30116e-05
3.60397e-05
5.19312e-05
5.18949e-05
5.39879e-05
3.68477e-05
5.16721e-05
5.1706e-05
5.34777e-05
3.69651e-05
5.20582e-05
5.20966e-05
5.42637e-05
3.9496e-05
5.43412e-05
5.43244e-05
5.6291e-05
4.07021e-05
5.45558e-05
5.45196e-05
5.60946e-05
3.91299e-05
5.12746e-05
5.12487e-05
5.26899e-05
3.65521e-05
4.95029e-05
4.94969e-05
5.10961e-05
3.63755e-05
5.08289e-05
5.08308e-05
5.3008e-05
4.11036e-05
5.46716e-05
5.46575e-05
5.64737e-05
4.57609e-05
5.85935e-05
5.85755e-05
6.02473e-05
4.84186e-05
6.06042e-05
6.05904e-05
6.22105e-05
4.82889e-05
5.88287e-05
5.88296e-05
5.96216e-05
4.26708e-05
5.3213e-05
5.32155e-05
5.43338e-05
3.80134e-05
4.98017e-05
4.98036e-05
5.12348e-05
3.63373e-05
4.90238e-05
4.90247e-05
5.0753e-05
3.75852e-05
5.03611e-05
5.03607e-05
5.22117e-05
4.01674e-05
5.1673e-05
5.1673e-05
5.34579e-05
4.12412e-05
5.21432e-05
5.21434e-05
5.39937e-05
4.15949e-05
5.22414e-05
5.22417e-05
5.41589e-05
4.17137e-05
5.22496e-05
5.22499e-05
5.42101e-05
4.17424e-05
5.22412e-05
5.22415e-05
5.42231e-05
4.17331e-05
5.22204e-05
5.22206e-05
5.42099e-05
4.17282e-05
5.22151e-05
5.22153e-05
5.4199e-05
4.17301e-05
5.2218e-05
5.22182e-05
5.42169e-05
4.17288e-05
5.22157e-05
5.22159e-05
5.42023e-05
4.17286e-05
5.22178e-05
5.2218e-05
5.42071e-05
4.17185e-05
5.22016e-05
5.22015e-05
5.42048e-05
4.13321e-05
5.1122e-05
5.11208e-05
5.38875e-05
3.65062e-07
4.27329e-07
2.96652e-07
3.46511e-07
3.06135e-07
4.74033e-07
4.87495e-07
4.98647e-07
5.05059e-07
4.90316e-07
3.50374e-07
3.41889e-07
3.66078e-07
3.34096e-07
3.29832e-07
3.53352e-07
3.63502e-07
3.63372e-07
8.03203e-07
2.59641e-07
7.81526e-07
2.51628e-07
3.45214e-07
3.30727e-07
2.63802e-07
1.11583e-06
2.55518e-07
1.09106e-06
3.43295e-07
4.11635e-07
3.29314e-07
3.62728e-07
3.68686e-07
3.03286e-07
3.08448e-07
2.95667e-07
3.34488e-07
3.61256e-07
3.40919e-07
7.63432e-07
2.49156e-07
5.76178e-07
2.42448e-07
3.27885e-07
3.15196e-07
2.53202e-07
1.0768e-06
2.46714e-07
8.39636e-07
3.2471e-07
3.92526e-07
3.11668e-07
3.66237e-07
3.53407e-07
2.93269e-07
2.96129e-07
2.85776e-07
3.17221e-07
3.37625e-07
3.10825e-07
5.01749e-07
2.40581e-07
3.24048e-07
2.3618e-07
3.12526e-07
3.01081e-07
2.44873e-07
7.21468e-07
2.40345e-07
4.11943e-07
3.07681e-07
3.6901e-07
2.96344e-07
3.44684e-07
3.16583e-07
2.83104e-07
2.87212e-07
2.75004e-07
3.02148e-07
3.0809e-07
2.89524e-07
2.87988e-07
2.34988e-07
2.30315e-07
2.32209e-07
2.98595e-07
2.89525e-07
2.38771e-07
3.44628e-07
2.34044e-07
2.41082e-07
2.92543e-07
3.56053e-07
2.81487e-07
3.13901e-07
2.88272e-07
2.72263e-07
2.80643e-07
2.64485e-07
2.87887e-07
2.88889e-07
2.75705e-07
2.21897e-07
2.31567e-07
2.11498e-07
2.30601e-07
2.87685e-07
2.82044e-07
2.32573e-07
2.26047e-07
2.28317e-07
2.06527e-07
2.7821e-07
3.57366e-07
2.70194e-07
2.8776e-07
2.76582e-07
2.62114e-07
2.74063e-07
2.56139e-07
2.75099e-07
2.74937e-07
2.63251e-07
2.1052e-07
2.30504e-07
2.09011e-07
2.30136e-07
2.8091e-07
2.79185e-07
2.27035e-07
2.04391e-07
2.23285e-07
2.01564e-07
2.679e-07
3.72294e-07
2.6123e-07
2.75767e-07
2.64935e-07
2.54448e-07
2.68377e-07
2.49807e-07
2.64174e-07
2.62583e-07
2.52451e-07
2.08582e-07
2.29888e-07
2.07141e-07
2.28899e-07
2.78516e-07
2.80741e-07
2.22123e-07
2.01224e-07
2.18848e-07
2.00428e-07
2.58963e-07
3.9461e-07
2.52574e-07
2.64274e-07
2.55882e-07
2.48626e-07
2.64328e-07
2.45778e-07
2.54398e-07
2.51901e-07
2.43085e-07
2.06596e-07
2.28409e-07
2.05404e-07
2.26716e-07
2.80632e-07
2.87649e-07
2.17772e-07
2.0014e-07
2.14799e-07
1.99292e-07
2.50513e-07
4.37547e-07
2.44127e-07
2.55301e-07
2.47387e-07
2.44672e-07
2.60358e-07
2.41129e-07
2.45172e-07
2.42684e-07
2.34181e-07
2.05073e-07
2.25951e-07
2.04479e-07
2.23607e-07
2.8763e-07
2.91979e-07
2.13958e-07
1.98927e-07
2.11373e-07
1.9828e-07
2.4206e-07
4.72487e-07
2.36449e-07
2.46931e-07
2.39803e-07
2.40218e-07
2.57625e-07
2.39392e-07
2.36599e-07
2.33825e-07
2.2587e-07
2.04306e-07
2.22821e-07
2.04441e-07
2.19344e-07
2.91415e-07
2.85411e-07
2.1051e-07
1.9814e-07
2.08127e-07
1.98205e-07
2.34624e-07
4.5748e-07
2.29449e-07
2.39425e-07
2.33013e-07
2.3946e-07
2.56613e-07
2.39448e-07
2.29851e-07
2.25599e-07
2.19078e-07
2.04564e-07
2.17962e-07
2.04846e-07
2.13067e-07
2.78406e-07
2.31746e-07
2.07574e-07
1.98336e-07
2.06868e-07
1.98943e-07
2.27888e-07
3.12846e-07
2.23956e-07
2.32767e-07
2.27816e-07
2.39047e-07
2.57342e-07
2.3853e-07
2.23407e-07
2.18944e-07
2.13839e-07
2.04862e-07
2.11443e-07
2.05048e-07
2.07171e-07
2.29479e-07
2.11195e-07
2.0691e-07
1.99312e-07
2.07614e-07
2.00912e-07
2.23026e-07
2.24131e-07
2.21122e-07
2.27702e-07
2.23859e-07
2.38419e-07
2.59627e-07
2.38151e-07
2.18132e-07
2.13849e-07
2.10181e-07
2.05246e-07
2.05633e-07
2.06824e-07
2.03014e-07
2.10516e-07
2.02516e-07
2.0791e-07
2.01622e-07
2.08628e-07
2.03932e-07
2.20792e-07
1.94608e-07
2.20257e-07
2.23895e-07
2.2145e-07
2.38238e-07
2.6395e-07
2.39258e-07
2.14255e-07
2.10394e-07
2.08872e-07
2.07735e-07
2.02413e-07
2.12065e-07
2.01202e-07
2.02606e-07
1.98983e-07
2.08831e-07
2.04861e-07
2.1016e-07
2.08282e-07
2.2008e-07
1.90332e-07
2.20471e-07
2.218e-07
2.21768e-07
2.39704e-07
2.71469e-07
2.40887e-07
2.12264e-07
2.09611e-07
2.107e-07
2.14001e-07
2.01202e-07
2.212e-07
2.02164e-07
1.99509e-07
1.99205e-07
2.10817e-07
2.09571e-07
2.14925e-07
2.14762e-07
2.20873e-07
1.94152e-07
2.23678e-07
2.22736e-07
2.25601e-07
2.4126e-07
2.85623e-07
2.42677e-07
2.12845e-07
2.12401e-07
2.17435e-07
2.23997e-07
2.03577e-07
2.34494e-07
2.09431e-07
2.00971e-07
2.04752e-07
2.16759e-07
2.17146e-07
2.23963e-07
2.25429e-07
2.25031e-07
2.03207e-07
2.31233e-07
2.27703e-07
2.34594e-07
2.43083e-07
3.05717e-07
2.46223e-07
2.17501e-07
2.2088e-07
2.32794e-07
2.38394e-07
2.12785e-07
2.53646e-07
2.2547e-07
2.0767e-07
2.19851e-07
2.26647e-07
2.29821e-07
2.3862e-07
2.43253e-07
2.3433e-07
2.18413e-07
2.47035e-07
2.38744e-07
2.52214e-07
2.47573e-07
3.32976e-07
2.5536e-07
2.3124e-07
2.39317e-07
2.64492e-07
2.59996e-07
2.30918e-07
2.83808e-07
2.5236e-07
2.25472e-07
2.4887e-07
2.43862e-07
2.5049e-07
2.64144e-07
2.725e-07
2.5188e-07
2.42384e-07
2.73823e-07
2.59337e-07
2.86588e-07
2.58764e-07
3.67685e-07
2.76197e-07
2.60276e-07
2.76381e-07
3.25257e-07
2.93249e-07
2.60867e-07
3.3047e-07
2.97254e-07
2.60337e-07
3.09665e-07
2.72313e-07
2.82033e-07
3.04411e-07
3.18454e-07
2.82143e-07
2.84833e-07
3.1664e-07
2.97156e-07
3.47403e-07
2.83515e-07
4.05178e-07
3.14107e-07
3.1928e-07
3.4684e-07
4.39216e-07
3.45061e-07
3.11218e-07
4.02497e-07
3.6349e-07
3.31733e-07
4.13958e-07
3.17738e-07
3.35147e-07
3.69046e-07
3.7998e-07
3.29274e-07
3.50227e-07
3.85288e-07
3.66573e-07
4.49686e-07
3.27195e-07
4.40821e-07
3.82294e-07
4.3463e-07
4.769e-07
6.45328e-07
4.23209e-07
3.8902e-07
5.09188e-07
4.68478e-07
4.55684e-07
6.21914e-07
3.88292e-07
4.03668e-07
4.6887e-07
4.992e-07
4.06564e-07
4.512e-07
4.84962e-07
4.75197e-07
6.94121e-07
4.03044e-07
5.31091e-07
4.81953e-07
6.33175e-07
7.1292e-07
9.95444e-07
5.41773e-07
5.04573e-07
6.63503e-07
6.22658e-07
6.77185e-07
9.81375e-07
4.98887e-07
5.16603e-07
6.19011e-07
6.64059e-07
5.19818e-07
5.89102e-07
6.35774e-07
7.47712e-07
9.66615e-07
5.1637e-07
6.40061e-07
6.31147e-07
1.00143e-06
1.09952e-06
1.5634e-06
7.0719e-07
6.7249e-07
8.89914e-07
8.63277e-07
1.04305e-06
1.65645e-06
6.61255e-07
7.19241e-07
8.35668e-07
8.41318e-07
6.78811e-07
8.27492e-07
8.61166e-07
1.12822e-06
1.47589e-06
6.76911e-07
8.09512e-07
8.54731e-07
1.58844e-06
1.72435e-06
2.42045e-06
9.59488e-07
9.44949e-07
1.17117e-06
1.12133e-06
1.81595e-06
2.38837e-06
9.06739e-07
9.21993e-07
1.11492e-06
1.21294e-06
9.18674e-07
1.11682e-06
1.1556e-06
1.56348e-06
2.61586e-06
9.12132e-07
1.16724e-06
1.1539e-06
2.38726e-06
2.58259e-06
3.78742e-06
1.27177e-06
1.20451e-06
1.55977e-06
1.64465e-06
2.6192e-06
3.63653e-06
1.21585e-06
1.30893e-06
1.50458e-06
1.53667e-06
1.25445e-06
1.53844e-06
1.53122e-06
2.82755e-06
3.64154e-06
1.24931e-06
1.48091e-06
1.52251e-06
3.64884e-06
4.05734e-06
5.2921e-06
1.68083e-06
1.73622e-06
2.06322e-06
1.98392e-06
3.96774e-06
5.34267e-06
1.62194e-06
1.64673e-06
2.01673e-06
2.10099e-06
1.63854e-06
1.98332e-06
2.05071e-06
3.83574e-06
5.32786e-06
1.62922e-06
2.00714e-06
2.05554e-06
5.4193e-06
5.70802e-06
7.15178e-06
2.16541e-06
2.21616e-06
2.65592e-06
2.64554e-06
5.49058e-06
7.54616e-06
2.13054e-06
2.23667e-06
2.60712e-06
2.72327e-06
2.21449e-06
2.61937e-06
2.56597e-06
5.8521e-06
7.16645e-06
2.22483e-06
2.56997e-06
2.54699e-06
7.38045e-06
7.57816e-06
9.93491e-06
2.85051e-06
2.7911e-06
3.41191e-06
3.51202e-06
8.17458e-06
9.706e-06
2.79844e-06
2.88909e-06
3.37768e-06
3.48799e-06
2.71051e-06
3.60929e-06
3.4428e-06
7.56316e-06
9.78582e-06
2.68754e-06
3.38248e-06
3.46809e-06
9.53352e-06
1.03014e-05
1.19045e-05
3.55895e-06
3.65714e-06
4.11331e-06
3.89933e-06
1.02158e-05
1.15835e-05
3.56273e-06
3.71712e-06
4.09026e-06
4.24443e-06
3.66201e-06
4.08257e-06
4.09288e-06
1.01601e-05
1.2203e-05
3.68139e-06
4.14773e-06
4.06413e-06
1.21426e-05
1.25518e-05
1.4758e-05
4.43691e-06
4.19779e-06
5.27464e-06
5.67486e-06
1.19523e-05
1.57368e-05
4.37584e-06
4.50268e-06
5.34854e-06
5.49927e-06
4.30396e-06
5.94531e-06
5.26975e-06
1.27415e-05
1.46417e-05
4.29605e-06
5.1071e-06
5.25849e-06
1.46652e-05
1.5291e-05
1.6942e-05
5.45179e-06
5.91174e-06
6.23947e-06
6.10425e-06
1.63425e-05
1.67037e-05
5.49125e-06
5.65619e-06
6.22204e-06
6.30026e-06
5.56485e-06
6.44489e-06
6.19685e-06
1.51534e-05
1.69141e-05
5.4991e-06
6.3643e-06
6.23578e-06
1.71845e-05
1.73595e-05
1.93237e-05
6.58025e-06
6.23171e-06
7.41799e-06
7.91001e-06
1.68338e-05
2.00607e-05
6.65515e-06
6.80635e-06
7.58327e-06
7.66014e-06
6.49403e-06
8.43418e-06
7.51755e-06
1.73706e-05
1.95155e-05
6.57429e-06
7.42179e-06
7.43731e-06
1.91679e-05
1.98435e-05
2.14033e-05
7.73848e-06
8.40371e-06
9.05915e-06
8.99669e-06
2.08323e-05
2.12973e-05
7.82585e-06
7.85067e-06
9.14353e-06
9.17995e-06
7.80235e-06
9.31694e-06
8.85376e-06
2.00802e-05
2.13517e-05
7.68674e-06
9.2103e-06
8.82539e-06
2.13018e-05
2.17302e-05
2.31486e-05
9.37609e-06
9.06722e-06
9.85887e-06
1.02484e-05
2.14094e-05
2.31537e-05
9.5456e-06
9.55339e-06
1.01019e-05
1.00108e-05
9.19708e-06
9.73237e-06
1.0247e-05
2.17846e-05
2.29912e-05
9.28576e-06
1.00809e-05
1.03218e-05
2.33018e-05
2.35754e-05
2.52825e-05
1.02932e-05
1.11255e-05
1.24325e-05
1.31666e-05
2.39476e-05
2.56367e-05
1.05261e-05
1.02944e-05
1.23934e-05
1.23195e-05
1.06577e-05
1.29297e-05
1.16961e-05
2.33699e-05
2.53332e-05
1.05039e-05
1.25303e-05
1.15899e-05
2.47286e-05
2.57495e-05
2.64262e-05
1.2783e-05
1.34502e-05
1.34977e-05
1.36536e-05
2.58274e-05
2.60882e-05
1.28935e-05
1.27741e-05
1.39208e-05
1.3271e-05
1.212e-05
1.33602e-05
1.37405e-05
2.57608e-05
2.62756e-05
1.22631e-05
1.34468e-05
1.3812e-05
2.6623e-05
2.66551e-05
2.77321e-05
1.37815e-05
1.36852e-05
1.47613e-05
1.50511e-05
2.63785e-05
2.79198e-05
1.40794e-05
1.35939e-05
1.45873e-05
1.4921e-05
1.40796e-05
1.53044e-05
1.49005e-05
2.65079e-05
2.77346e-05
1.39703e-05
1.47265e-05
1.47022e-05
2.76558e-05
2.81855e-05
2.94592e-05
1.53444e-05
1.58462e-05
1.75113e-05
1.69716e-05
2.83272e-05
2.90842e-05
1.51356e-05
1.54372e-05
1.75149e-05
1.7277e-05
1.5405e-05
1.67135e-05
1.6846e-05
2.82023e-05
2.93757e-05
1.5421e-05
1.74229e-05
1.69612e-05
2.91974e-05
2.97426e-05
3.03085e-05
1.79462e-05
1.74642e-05
1.84069e-05
1.9418e-05
2.94756e-05
3.08582e-05
1.80262e-05
1.77608e-05
1.858e-05
1.83655e-05
1.72154e-05
1.90967e-05
1.89323e-05
2.96528e-05
3.03308e-05
1.72299e-05
1.85152e-05
1.87844e-05
3.06443e-05
3.05746e-05
3.18417e-05
1.87366e-05
2.00191e-05
2.07284e-05
2.11207e-05
3.11327e-05
3.16545e-05
1.89807e-05
1.86539e-05
2.07954e-05
2.07956e-05
1.96113e-05
2.08806e-05
2.06692e-05
3.06097e-05
3.18962e-05
1.94969e-05
2.09226e-05
2.0747e-05
3.1511e-05
3.20949e-05
3.26585e-05
2.12017e-05
2.12273e-05
2.21357e-05
2.18753e-05
3.18657e-05
3.26123e-05
2.11247e-05
2.15145e-05
2.18819e-05
2.23415e-05
2.07542e-05
2.1742e-05
2.17632e-05
3.22076e-05
3.26905e-05
2.08545e-05
2.21757e-05
2.17458e-05
3.28965e-05
3.29366e-05
3.42415e-05
2.25005e-05
2.27389e-05
2.43557e-05
2.40786e-05
3.3009e-05
3.40994e-05
2.24337e-05
2.25214e-05
2.46227e-05
2.40324e-05
2.26829e-05
2.43024e-05
2.49756e-05
3.28924e-05
3.41538e-05
2.26395e-05
2.41668e-05
2.49103e-05
3.43349e-05
3.45152e-05
3.4914e-05
2.50043e-05
2.44718e-05
2.59202e-05
2.6435e-05
3.43255e-05
3.52629e-05
2.51234e-05
2.4737e-05
2.56066e-05
2.63229e-05
2.53625e-05
2.60757e-05
2.57165e-05
3.44963e-05
3.52201e-05
2.52775e-05
2.62968e-05
2.55896e-05
3.45924e-05
3.50612e-05
3.61325e-05
2.60074e-05
2.6892e-05
2.73118e-05
2.74136e-05
3.55038e-05
3.60635e-05
2.571e-05
2.64967e-05
2.74726e-05
2.72325e-05
2.57899e-05
2.72811e-05
2.74328e-05
3.53902e-05
3.59783e-05
2.56747e-05
2.70193e-05
2.75609e-05
3.64823e-05
3.65708e-05
3.76194e-05
2.82229e-05
2.78201e-05
2.96083e-05
2.97639e-05
3.63391e-05
3.75016e-05
2.83556e-05
2.79296e-05
2.98308e-05
2.98706e-05
2.83697e-05
2.97549e-05
3.02263e-05
3.62884e-05
3.76362e-05
2.84917e-05
2.98182e-05
3.01598e-05
3.77075e-05
3.77771e-05
3.84404e-05
2.98401e-05
3.00458e-05
3.1241e-05
3.04749e-05
3.76476e-05
3.81074e-05
2.99417e-05
3.01186e-05
3.08832e-05
3.05729e-05
3.04898e-05
3.04093e-05
3.07965e-05
3.78387e-05
3.83024e-05
3.03609e-05
3.08797e-05
3.06961e-05
3.83772e-05
3.87093e-05
3.91842e-05
3.16883e-05
3.09665e-05
3.23067e-05
3.29864e-05
3.84451e-05
3.98067e-05
3.1472e-05
3.11478e-05
3.24162e-05
3.28132e-05
3.10921e-05
3.30754e-05
3.26628e-05
3.85587e-05
3.94599e-05
3.1135e-05
3.27646e-05
3.27563e-05
3.93721e-05
3.93245e-05
4.03516e-05
3.24656e-05
3.34289e-05
3.36362e-05
3.38802e-05
3.99817e-05
4.02003e-05
3.2585e-05
3.30139e-05
3.36511e-05
3.34724e-05
3.28721e-05
3.3951e-05
3.36094e-05
3.95721e-05
4.0102e-05
3.29454e-05
3.32968e-05
3.35239e-05
4.02478e-05
4.07194e-05
4.20084e-05
3.42769e-05
3.39539e-05
3.61277e-05
3.53004e-05
4.03286e-05
4.16049e-05
3.42663e-05
3.40002e-05
3.60902e-05
3.59739e-05
3.40921e-05
3.52489e-05
3.59297e-05
4.04533e-05
4.20051e-05
3.40426e-05
3.60024e-05
3.59473e-05
4.19808e-05
4.21683e-05
4.22342e-05
3.64886e-05
3.60365e-05
3.68e-05
3.74022e-05
4.19948e-05
4.27729e-05
3.64331e-05
3.6442e-05
3.67161e-05
3.69316e-05
3.64408e-05
3.73483e-05
3.70999e-05
4.22277e-05
4.24193e-05
3.64594e-05
3.70951e-05
3.71249e-05
4.24919e-05
4.22913e-05
4.32223e-05
3.68435e-05
3.75407e-05
3.76383e-05
3.7677e-05
4.2856e-05
4.30107e-05
3.67926e-05
3.6945e-05
3.77367e-05
3.73166e-05
3.71268e-05
3.76297e-05
3.7586e-05
4.245e-05
4.28757e-05
3.71532e-05
3.72492e-05
3.75506e-05
4.30311e-05
4.34847e-05
4.44155e-05
3.80576e-05
3.78306e-05
3.95732e-05
3.92334e-05
4.31596e-05
4.42002e-05
3.80702e-05
3.80441e-05
3.94967e-05
3.98018e-05
3.81916e-05
3.90371e-05
3.89706e-05
4.32719e-05
4.46937e-05
3.81446e-05
3.97516e-05
3.90463e-05
4.41371e-05
4.46569e-05
4.50304e-05
3.9923e-05
3.96222e-05
4.02616e-05
4.05515e-05
4.44564e-05
4.53316e-05
3.99013e-05
4.00218e-05
4.03007e-05
4.01848e-05
3.93189e-05
4.08326e-05
4.07596e-05
4.47993e-05
4.48282e-05
3.93681e-05
4.01945e-05
4.06792e-05
4.53871e-05
4.51129e-05
4.60016e-05
4.0419e-05
4.08494e-05
4.17112e-05
4.14391e-05
4.54949e-05
4.57307e-05
4.04198e-05
4.03084e-05
4.16516e-05
4.17736e-05
4.10707e-05
4.13114e-05
4.14338e-05
4.49609e-05
4.61788e-05
4.10128e-05
4.18043e-05
4.14263e-05
4.57848e-05
4.61968e-05
4.63499e-05
4.19671e-05
4.15531e-05
4.217e-05
4.2285e-05
4.57973e-05
4.65066e-05
4.19125e-05
4.20341e-05
4.21596e-05
4.22359e-05
4.15276e-05
4.23068e-05
4.22305e-05
4.63021e-05
4.63025e-05
4.15015e-05
4.21638e-05
4.22942e-05
4.65197e-05
4.64464e-05
4.77221e-05
4.22911e-05
4.26715e-05
4.37909e-05
4.3708e-05
4.68108e-05
4.7623e-05
4.23535e-05
4.23694e-05
4.37978e-05
4.34779e-05
4.2633e-05
4.37717e-05
4.38259e-05
4.63967e-05
4.75163e-05
4.27499e-05
4.35594e-05
4.37731e-05
4.76301e-05
4.792e-05
4.79913e-05
4.41482e-05
4.39083e-05
4.44338e-05
4.42892e-05
4.77078e-05
4.78708e-05
4.40914e-05
4.3784e-05
4.43327e-05
4.46037e-05
4.4037e-05
4.42527e-05
4.42139e-05
4.76941e-05
4.81487e-05
4.38772e-05
4.45208e-05
4.41471e-05
4.78154e-05
4.80218e-05
4.88947e-05
4.44799e-05
4.44707e-05
4.54001e-05
4.53048e-05
4.79979e-05
4.88252e-05
4.44094e-05
4.47825e-05
4.53903e-05
4.5002e-05
4.42945e-05
4.52723e-05
4.54086e-05
4.82987e-05
4.85318e-05
4.44831e-05
4.50978e-05
4.54872e-05
4.89627e-05
4.90738e-05
4.92398e-05
4.56624e-05
4.5635e-05
4.59449e-05
4.62758e-05
4.90403e-05
4.9512e-05
4.56094e-05
4.51541e-05
4.59954e-05
4.63362e-05
4.58106e-05
4.63842e-05
4.63526e-05
4.86077e-05
4.95913e-05
4.56877e-05
4.62244e-05
4.61901e-05
4.94862e-05
4.93331e-05
5.02987e-05
4.61339e-05
4.6337e-05
4.71719e-05
4.68501e-05
4.95672e-05
4.98922e-05
4.62331e-05
4.67098e-05
4.72296e-05
4.7197e-05
4.63901e-05
4.67397e-05
4.69252e-05
4.98552e-05
5.01978e-05
4.64157e-05
4.73053e-05
4.7222e-05
5.01211e-05
5.04882e-05
5.06196e-05
4.74936e-05
4.72176e-05
4.79082e-05
4.79858e-05
5.01289e-05
5.0762e-05
4.75087e-05
4.72227e-05
4.78424e-05
4.7414e-05
4.73065e-05
4.79626e-05
4.79202e-05
5.021e-05
5.02108e-05
4.74176e-05
4.73672e-05
4.76047e-05
5.05595e-05
5.06273e-05
5.0833e-05
4.79156e-05
4.80432e-05
4.80147e-05
4.81765e-05
5.08039e-05
5.09649e-05
4.78451e-05
4.7632e-05
4.79512e-05
4.8533e-05
4.79465e-05
4.81432e-05
4.80244e-05
5.03766e-05
5.14652e-05
4.76231e-05
4.85525e-05
4.81589e-05
5.09091e-05
5.11191e-05
5.22284e-05
4.83399e-05
4.84493e-05
4.96362e-05
4.95379e-05
5.11903e-05
5.20922e-05
4.83016e-05
4.8894e-05
4.9681e-05
4.96511e-05
4.82593e-05
4.95875e-05
4.9617e-05
5.17013e-05
5.21022e-05
4.86135e-05
4.9668e-05
4.97034e-05
5.21923e-05
5.23164e-05
5.2272e-05
4.98272e-05
4.9686e-05
4.99441e-05
4.97716e-05
5.21577e-05
5.21067e-05
4.98953e-05
4.97266e-05
5.00345e-05
4.97371e-05
4.98407e-05
4.98728e-05
5.00037e-05
5.21134e-05
5.19372e-05
4.98661e-05
4.97288e-05
4.9965e-05
5.22969e-05
5.22913e-05
5.25217e-05
4.99547e-05
4.98162e-05
5.02958e-05
5.04136e-05
5.21557e-05
5.26306e-05
5.00334e-05
4.9744e-05
5.01671e-05
5.03521e-05
5.00343e-05
5.02661e-05
5.03027e-05
5.19906e-05
5.27556e-05
4.99762e-05
5.04143e-05
5.021e-05
5.25086e-05
5.25696e-05
5.28749e-05
5.03559e-05
5.04863e-05
5.05739e-05
5.06797e-05
5.26778e-05
5.29665e-05
5.02188e-05
5.05244e-05
5.06669e-05
5.07694e-05
5.03214e-05
5.06901e-05
5.04648e-05
5.28634e-05
5.30106e-05
5.02356e-05
5.07585e-05
5.04342e-05
5.27326e-05
5.31273e-05
5.39092e-05
5.09142e-05
5.09932e-05
5.18054e-05
5.18513e-05
5.32194e-05
5.39734e-05
5.10175e-05
5.10425e-05
5.18255e-05
5.18172e-05
5.08037e-05
5.1877e-05
5.18214e-05
5.31691e-05
5.39061e-05
5.0822e-05
5.18095e-05
5.1849e-05
5.39512e-05
5.39377e-05
5.34216e-05
5.18793e-05
5.19146e-05
5.17659e-05
5.1776e-05
5.39955e-05
5.3422e-05
5.18863e-05
5.18778e-05
5.17534e-05
5.17448e-05
5.19068e-05
5.17771e-05
5.18098e-05
5.39374e-05
5.34223e-05
5.19427e-05
5.1801e-05
5.18613e-05
5.35039e-05
5.33964e-05
5.38929e-05
5.16697e-05
5.16719e-05
5.17281e-05
5.17149e-05
5.33931e-05
5.38545e-05
5.1656e-05
5.16465e-05
5.17196e-05
5.17104e-05
5.17124e-05
5.17159e-05
5.17522e-05
5.33958e-05
5.38782e-05
5.1767e-05
5.17552e-05
5.18009e-05
5.3898e-05
5.42835e-05
5.61075e-05
5.20938e-05
5.2055e-05
5.39888e-05
5.39574e-05
5.42365e-05
5.60778e-05
5.20997e-05
5.20928e-05
5.3994e-05
5.39789e-05
5.20739e-05
5.39639e-05
5.39559e-05
5.42648e-05
5.60767e-05
5.21019e-05
5.39585e-05
5.39471e-05
5.60726e-05
5.63223e-05
5.63314e-05
5.43586e-05
5.43351e-05
5.46601e-05
5.46505e-05
5.62987e-05
5.63381e-05
5.43613e-05
5.43447e-05
5.46586e-05
5.46401e-05
5.43322e-05
5.46552e-05
5.46463e-05
5.62909e-05
5.62997e-05
5.43192e-05
5.46229e-05
5.46295e-05
5.63261e-05
5.60945e-05
5.30789e-05
5.45562e-05
5.45522e-05
5.21499e-05
5.21649e-05
5.61049e-05
5.30968e-05
5.45527e-05
5.45334e-05
5.21393e-05
5.21229e-05
5.45483e-05
5.21636e-05
5.21666e-05
5.6064e-05
5.30642e-05
5.45313e-05
5.21293e-05
5.21564e-05
5.30974e-05
5.26713e-05
5.10917e-05
5.12628e-05
5.12747e-05
4.9659e-05
4.96608e-05
5.26874e-05
5.10928e-05
5.12541e-05
5.12409e-05
4.9656e-05
4.96493e-05
5.12785e-05
4.96634e-05
4.96713e-05
5.26593e-05
5.1089e-05
5.12713e-05
4.96545e-05
4.96678e-05
5.1102e-05
5.10867e-05
5.24543e-05
4.95003e-05
4.94993e-05
4.99327e-05
4.99199e-05
5.10864e-05
5.24394e-05
4.94989e-05
4.94934e-05
4.99387e-05
4.9939e-05
4.95116e-05
4.99278e-05
4.99384e-05
5.10843e-05
5.24534e-05
4.95081e-05
4.993e-05
4.99327e-05
5.24505e-05
5.30135e-05
5.58388e-05
5.08358e-05
5.08206e-05
5.36684e-05
5.36631e-05
5.29987e-05
5.58351e-05
5.08431e-05
5.08446e-05
5.3671e-05
5.36688e-05
5.08386e-05
5.36696e-05
5.3672e-05
5.30119e-05
5.58324e-05
5.08315e-05
5.36586e-05
5.36644e-05
5.58367e-05
5.64747e-05
5.97025e-05
5.46683e-05
5.46658e-05
5.76871e-05
5.76907e-05
5.64731e-05
5.97079e-05
5.46701e-05
5.46667e-05
5.7687e-05
5.76812e-05
5.4673e-05
5.76956e-05
5.76947e-05
5.64675e-05
5.96937e-05
5.46657e-05
5.76775e-05
5.7689e-05
5.97073e-05
6.02428e-05
6.21125e-05
5.85846e-05
5.85894e-05
6.03797e-05
6.03862e-05
6.0249e-05
6.21205e-05
5.85841e-05
5.85777e-05
6.03782e-05
6.03712e-05
5.85928e-05
6.03895e-05
6.03879e-05
6.0234e-05
6.21051e-05
5.85877e-05
6.03744e-05
6.0385e-05
6.21195e-05
6.22036e-05
6.03603e-05
6.05946e-05
6.06011e-05
6.01023e-05
6.01081e-05
6.22116e-05
6.03663e-05
6.0593e-05
6.0586e-05
6.01008e-05
6.00949e-05
6.06023e-05
6.01109e-05
6.01072e-05
6.21966e-05
6.03597e-05
6.06002e-05
6.0105e-05
6.01093e-05
6.03649e-05
5.96165e-05
5.4938e-05
5.88212e-05
5.88257e-05
5.44723e-05
5.44743e-05
5.96221e-05
5.49405e-05
5.88198e-05
5.88155e-05
5.44718e-05
5.44709e-05
5.88234e-05
5.44776e-05
5.44735e-05
5.96166e-05
5.49413e-05
5.88288e-05
5.44798e-05
5.44778e-05
5.49399e-05
5.43312e-05
5.14355e-05
5.32078e-05
5.32091e-05
5.03815e-05
5.03818e-05
5.43336e-05
5.14364e-05
5.32073e-05
5.32073e-05
5.03804e-05
5.03823e-05
5.32087e-05
5.03843e-05
5.03821e-05
5.43347e-05
5.14389e-05
5.32127e-05
5.03865e-05
5.03841e-05
5.14368e-05
5.12332e-05
5.06728e-05
4.97991e-05
4.97994e-05
4.90351e-05
4.90356e-05
5.12341e-05
5.06733e-05
4.97978e-05
4.98e-05
4.90336e-05
4.90359e-05
4.97999e-05
4.90365e-05
4.90363e-05
5.12364e-05
5.06747e-05
4.98011e-05
4.90376e-05
4.90358e-05
5.06738e-05
5.0752e-05
5.19119e-05
4.90225e-05
4.9023e-05
4.98869e-05
4.98882e-05
5.07524e-05
5.19124e-05
4.90209e-05
4.90231e-05
4.98858e-05
4.9887e-05
4.90237e-05
4.98884e-05
4.98888e-05
5.07535e-05
5.19126e-05
4.90231e-05
4.9888e-05
4.98875e-05
5.19132e-05
5.22105e-05
5.32833e-05
5.03595e-05
5.03607e-05
5.14308e-05
5.14319e-05
5.22111e-05
5.32839e-05
5.03588e-05
5.03595e-05
5.14307e-05
5.14306e-05
5.03615e-05
5.1433e-05
5.14331e-05
5.22112e-05
5.32837e-05
5.03606e-05
5.14329e-05
5.14328e-05
5.3285e-05
5.34563e-05
5.39205e-05
5.16708e-05
5.16719e-05
5.20748e-05
5.20756e-05
5.34568e-05
5.39207e-05
5.1671e-05
5.16706e-05
5.20752e-05
5.20745e-05
5.16732e-05
5.20771e-05
5.20774e-05
5.34566e-05
5.39205e-05
5.16732e-05
5.20773e-05
5.20776e-05
5.39222e-05
5.39921e-05
5.41248e-05
5.21409e-05
5.21416e-05
5.22257e-05
5.22262e-05
5.39924e-05
5.41252e-05
5.21414e-05
5.21406e-05
5.2226e-05
5.22254e-05
5.21435e-05
5.22281e-05
5.22282e-05
5.3992e-05
5.41249e-05
5.21438e-05
5.22283e-05
5.22285e-05
5.41265e-05
5.41573e-05
5.41899e-05
5.22391e-05
5.22396e-05
5.22475e-05
5.22479e-05
5.41577e-05
5.41902e-05
5.22394e-05
5.22388e-05
5.22478e-05
5.22471e-05
5.22417e-05
5.22497e-05
5.22501e-05
5.41574e-05
5.419e-05
5.2242e-05
5.22501e-05
5.22504e-05
5.41916e-05
5.42084e-05
5.42065e-05
5.22474e-05
5.22478e-05
5.22408e-05
5.22412e-05
5.42087e-05
5.42068e-05
5.22476e-05
5.2247e-05
5.22411e-05
5.22404e-05
5.225e-05
5.2243e-05
5.22434e-05
5.42083e-05
5.42065e-05
5.22503e-05
5.22434e-05
5.22437e-05
5.42083e-05
5.42213e-05
5.4196e-05
5.22389e-05
5.22393e-05
5.22207e-05
5.22211e-05
5.42216e-05
5.41962e-05
5.22392e-05
5.22385e-05
5.22211e-05
5.22202e-05
5.22415e-05
5.2223e-05
5.22234e-05
5.42212e-05
5.41958e-05
5.22418e-05
5.22233e-05
5.22235e-05
5.41976e-05
5.42083e-05
5.41818e-05
5.2218e-05
5.22184e-05
5.22103e-05
5.22108e-05
5.42085e-05
5.41821e-05
5.22185e-05
5.22176e-05
5.22107e-05
5.22099e-05
5.22208e-05
5.22127e-05
5.2213e-05
5.4208e-05
5.41818e-05
5.22209e-05
5.2213e-05
5.22132e-05
5.41835e-05
5.41974e-05
5.41991e-05
5.22127e-05
5.22131e-05
5.2213e-05
5.22135e-05
5.41977e-05
5.41995e-05
5.22131e-05
5.22123e-05
5.22134e-05
5.22126e-05
5.22153e-05
5.22154e-05
5.22156e-05
5.41974e-05
5.4199e-05
5.22155e-05
5.22156e-05
5.22158e-05
5.42006e-05
5.42154e-05
5.41878e-05
5.22157e-05
5.22161e-05
5.22105e-05
5.22109e-05
5.42158e-05
5.41877e-05
5.22161e-05
5.22152e-05
5.22109e-05
5.221e-05
5.22183e-05
5.22128e-05
5.22131e-05
5.42152e-05
5.41875e-05
5.22184e-05
5.2213e-05
5.22132e-05
5.41893e-05
5.42008e-05
5.41881e-05
5.22134e-05
5.22138e-05
5.22097e-05
5.22101e-05
5.42008e-05
5.41886e-05
5.22138e-05
5.22129e-05
5.22102e-05
5.22094e-05
5.2216e-05
5.22121e-05
5.22123e-05
5.42005e-05
5.41883e-05
5.22161e-05
5.22123e-05
5.22124e-05
5.41898e-05
5.42055e-05
5.4193e-05
5.22154e-05
5.22159e-05
5.22086e-05
5.2209e-05
5.4206e-05
5.41931e-05
5.22158e-05
5.22151e-05
5.2209e-05
5.22082e-05
5.2218e-05
5.22109e-05
5.22111e-05
5.42056e-05
5.41926e-05
5.22181e-05
5.22111e-05
5.22112e-05
5.41943e-05
5.42036e-05
5.4027e-05
5.21993e-05
5.21996e-05
5.2053e-05
5.20537e-05
5.42037e-05
5.40276e-05
5.21996e-05
5.21987e-05
5.20547e-05
5.20518e-05
5.22016e-05
5.20571e-05
5.2055e-05
5.42031e-05
5.40269e-05
5.22017e-05
5.2056e-05
5.20565e-05
5.40284e-05
5.38859e-05
5.11175e-05
5.11182e-05
5.38868e-05
5.11194e-05
5.11162e-05
4.13334e-05
4.13322e-05
4.13341e-05
5.11194e-05
5.38859e-05
5.11212e-05
1.47804e-06
2.74612e-07
9.03229e-07
9.03093e-07
1.03165e-07
3.54515e-07
5.25825e-07
4.91656e-07
1.02665e-07
3.30037e-07
4.82803e-07
2.56234e-07
3.60158e-07
2.70061e-07
3.79145e-07
3.3447e-07
6.10119e-06
2.95233e-07
8.07327e-06
1.32392e-05
2.0129e-05
3.04396e-07
4.86339e-06
2.68697e-07
6.50024e-06
4.91978e-07
5.03871e-07
4.82443e-07
4.80015e-07
4.87864e-07
5.01604e-07
4.77082e-07
1.07481e-07
9.37828e-07
3.32288e-07
4.19969e-07
1.07333e-07
9.05932e-07
3.27043e-07
1.569e-05
2.41203e-05
9.67773e-08
2.79347e-07
6.22378e-07
3.14226e-07
9.89274e-08
2.76237e-07
6.06772e-07
1.899e-06
1.89477e-06
3.44213e-07
1.87361e-06
1.87302e-06
5.21548e-07
1.22389e-05
4.47518e-07
1.53083e-05
3.54154e-05
4.52855e-05
4.87842e-07
9.5657e-06
4.23216e-07
1.21396e-05
4.88236e-07
5.00372e-07
4.77224e-07
4.78432e-07
4.89872e-07
4.96964e-07
4.78149e-07