/*--------------------------------*- C++ -*----------------------------------*\
| =========                 |                                                 |
| \\      /  F ield         | OpenFOAM: The Open Source CFD Toolbox           |
|  \\    /   O peration     | Version:  v2012                                 |
|   \\  /    A nd           | Website:  www.openfoam.com                      |
|    \\/     M anipulation  |                                                 |
\*---------------------------------------------------------------------------*/
FoamFile
{
    version     2.0;
    format      ascii;
    class       volScalarField;
    location    "325";
    object      nut;
}
// * * * * * * * * * * * * * * * * * * * * * * * * * * * * * * * * * * * * * //

dimensions      [0 2 -1 0 0 0 0];


internalField   nonuniform List<scalar> 
171728
(
6.34804e-06
2.238e-06
1.8856e-06
2.22638e-06
6.36758e-06
2.21099e-06
1.88884e-06
2.20259e-06
6.48723e-06
2.16284e-06
1.88678e-06
2.1855e-06
6.42002e-06
2.04191e-06
1.91681e-06
2.1641e-06
6.50855e-06
2.03527e-06
1.95111e-06
2.13694e-06
6.69978e-06
2.14829e-06
1.97506e-06
2.11103e-06
6.84084e-06
2.42946e-06
1.99971e-06
2.09619e-06
6.98524e-06
3.04018e-06
2.0202e-06
2.08241e-06
7.14345e-06
4.44087e-06
2.02504e-06
2.04854e-06
7.30482e-06
5.80905e-06
2.02672e-06
2.0015e-06
7.47008e-06
5.39724e-06
2.03221e-06
1.95717e-06
7.64594e-06
2.80215e-06
2.03704e-06
1.89085e-06
7.81685e-06
1.66657e-06
2.0343e-06
1.81115e-06
7.98709e-06
1.33849e-06
2.03306e-06
1.71586e-06
8.16395e-06
1.22603e-06
2.04274e-06
1.61024e-06
8.3369e-06
1.1614e-06
2.07223e-06
1.49196e-06
8.47727e-06
1.10617e-06
2.09399e-06
1.36714e-06
8.61882e-06
1.07357e-06
2.10206e-06
1.28231e-06
8.74046e-06
1.06642e-06
2.07443e-06
1.27099e-06
8.84853e-06
1.15362e-06
1.98262e-06
1.38869e-06
8.92843e-06
1.34315e-06
1.79861e-06
1.75477e-06
8.99681e-06
1.67858e-06
2.02095e-06
2.39069e-06
9.027e-06
2.09113e-06
2.4054e-06
3.66011e-06
9.049e-06
2.91334e-06
2.83472e-06
5.7883e-06
8.99912e-06
3.8376e-06
4.20948e-06
8.31478e-06
8.91356e-06
5.56686e-06
5.15536e-06
1.20795e-05
8.74948e-06
6.96521e-06
7.1301e-06
1.83764e-05
8.58675e-06
8.94788e-06
8.94279e-06
2.4623e-05
8.44714e-06
1.3282e-05
1.17688e-05
3.14609e-05
8.11201e-06
1.35886e-05
1.52233e-05
3.77987e-05
8.11416e-06
2.24845e-05
1.75403e-05
4.63485e-05
8.09982e-06
2.13398e-05
2.26299e-05
5.30952e-05
7.89948e-06
3.23728e-05
2.64463e-05
5.86691e-05
8.84106e-06
3.26558e-05
3.26464e-05
6.44445e-05
8.0493e-06
3.48796e-05
3.51728e-05
7.05309e-05
1.00801e-05
4.7484e-05
4.59307e-05
7.4309e-05
1.08477e-05
4.51234e-05
4.67253e-05
8.03355e-05
9.88161e-06
5.54526e-05
5.08539e-05
8.30236e-05
1.45178e-05
5.6377e-05
6.24663e-05
8.79793e-05
1.39983e-05
6.85568e-05
6.2653e-05
9.32856e-05
1.78651e-05
7.20858e-05
7.45648e-05
9.47136e-05
1.82149e-05
7.66746e-05
7.52276e-05
0.000100802
2.40631e-05
8.40164e-05
8.42683e-05
0.000105389
2.68152e-05
8.94899e-05
9.0951e-05
0.000104506
2.70769e-05
9.43457e-05
9.23822e-05
0.000113153
3.8139e-05
0.000102605
0.000102988
0.000116622
3.9255e-05
0.000103882
0.00010689
0.000118609
4.68937e-05
0.000115685
0.000112624
0.000121768
4.55184e-05
0.000115256
0.000113377
0.000124976
6.14799e-05
0.000122673
0.000126228
0.000132234
6.72597e-05
0.000129879
0.000128039
0.000132875
6.75559e-05
0.000128914
0.000127182
0.00013538
7.8146e-05
0.000135415
0.000139169
0.000138451
8.56496e-05
0.00014345
0.0001385
0.000144316
9.28396e-05
0.000143074
0.000147062
0.000144666
9.5725e-05
0.000148792
0.000146189
0.000148004
0.000106102
0.00015473
0.000153592
0.00015232
0.000113101
0.000155632
0.000158126
0.000152288
0.000118848
0.000161437
0.000158979
0.000157805
0.000124203
0.000165484
0.000165898
0.000159339
0.0001317
0.000167823
0.000169985
0.000162572
0.000141233
0.000172819
0.000168579
0.000163748
0.000139074
0.000173237
0.000176535
0.000165339
0.00015252
0.000181419
0.000181425
0.000171158
0.000159436
0.00018167
0.000180372
0.000171485
0.000161328
0.000183979
0.000185376
0.000172388
0.000164295
0.000187348
0.000186629
0.000173673
0.000175196
0.000193648
0.000193336
0.000179628
0.00018123
0.000192323
0.000192506
0.000177032
0.000177303
0.000191752
0.000192097
0.000178421
0.000196872
0.000207385
0.000207413
0.000190111
0.000212301
0.000215016
0.000214893
0.000194151
0.000204918
0.000197486
0.000197362
0.000179103
0.000180219
0.000184312
0.000184304
0.000168265
0.000168954
0.000186483
0.000186538
0.000173082
0.000199882
0.00020529
0.000205236
0.000186235
0.000237197
0.000227759
0.000227655
0.000203384
0.000265942
0.000244739
0.000244636
0.00021728
0.000282074
0.000244724
0.000244721
0.000212758
0.000237986
0.000213435
0.000213448
0.000190052
0.000196923
0.000193721
0.000193731
0.000175301
0.000180763
0.000189109
0.000189111
0.000172015
0.000189176
0.000197609
0.000197599
0.000178818
0.000214434
0.000206866
0.000206855
0.00018488
0.000226924
0.000210534
0.000210525
0.000187319
0.000231785
0.000211488
0.000211478
0.000187961
0.000233618
0.000211692
0.000211683
0.000188123
0.000234205
0.000211705
0.000211695
0.000188177
0.000234239
0.000211589
0.000211579
0.000188112
0.00023421
0.000211547
0.000211537
0.000188022
0.000234238
0.000211568
0.000211557
0.000188125
0.000234228
0.000211552
0.000211542
0.000188062
0.000234225
0.000211559
0.000211549
0.000188064
0.000234196
0.000211481
0.00021147
0.000188107
0.000236154
0.00021282
0.000212813
0.000191546
2.2654e-06
3.58567e-06
2.03128e-06
2.27141e-06
2.12204e-06
3.56901e-06
6.54599e-06
6.39283e-06
6.6191e-06
6.64421e-06
2.32337e-06
2.48639e-06
2.29604e-06
2.36906e-06
2.36967e-06
2.22792e-06
2.2674e-06
2.41797e-06
3.43349e-06
1.57151e-06
4.71044e-06
1.54741e-06
2.27208e-06
2.23192e-06
1.59782e-06
3.77581e-06
1.57384e-06
4.96037e-06
2.24141e-06
2.21943e-06
2.21053e-06
2.285e-06
2.45437e-06
1.82595e-06
1.88805e-06
1.82883e-06
2.20325e-06
2.4128e-06
2.39401e-06
5.41038e-06
1.54432e-06
5.49913e-06
1.54299e-06
2.22321e-06
2.16634e-06
1.5751e-06
5.85141e-06
1.58173e-06
7.32701e-06
2.20472e-06
2.17912e-06
2.18719e-06
2.47581e-06
2.57009e-06
1.83615e-06
1.8857e-06
1.85364e-06
2.18766e-06
2.3704e-06
2.26459e-06
4.90837e-06
1.54658e-06
2.84084e-06
1.56709e-06
2.15653e-06
2.1044e-06
1.58703e-06
6.91731e-06
1.61397e-06
3.98655e-06
2.18297e-06
2.07018e-06
2.17178e-06
2.48204e-06
2.37168e-06
1.85654e-06
1.9065e-06
1.8614e-06
2.17598e-06
2.23978e-06
2.1382e-06
2.38961e-06
1.57574e-06
1.71329e-06
1.60956e-06
2.0934e-06
2.05425e-06
1.62119e-06
3.13646e-06
1.63953e-06
1.86446e-06
2.16493e-06
2.02296e-06
2.13899e-06
2.35313e-06
2.16925e-06
1.86088e-06
1.94419e-06
1.85838e-06
2.15396e-06
2.13653e-06
2.10598e-06
1.62705e-06
1.62361e-06
1.54424e-06
1.67269e-06
2.0478e-06
2.03917e-06
1.64631e-06
1.69915e-06
1.66499e-06
1.5033e-06
2.133e-06
2.09955e-06
2.13028e-06
2.16975e-06
2.14803e-06
1.85831e-06
1.96915e-06
1.86738e-06
2.12866e-06
2.10387e-06
2.08128e-06
1.54601e-06
1.69004e-06
1.56994e-06
1.73704e-06
2.03986e-06
2.08593e-06
1.67181e-06
1.49005e-06
1.68688e-06
1.49693e-06
2.13203e-06
2.338e-06
2.13196e-06
2.14621e-06
2.11602e-06
1.87249e-06
1.98904e-06
1.88668e-06
2.1091e-06
2.07739e-06
2.05418e-06
1.57731e-06
1.75013e-06
1.59048e-06
1.78446e-06
2.08559e-06
2.27262e-06
1.69142e-06
1.50475e-06
1.70031e-06
1.52262e-06
2.12901e-06
2.8313e-06
2.11482e-06
2.1128e-06
2.10614e-06
1.8948e-06
2.01532e-06
1.92241e-06
2.08881e-06
2.05003e-06
2.02247e-06
1.5918e-06
1.79267e-06
1.59689e-06
1.81291e-06
2.29288e-06
2.6359e-06
1.70132e-06
1.52617e-06
1.7003e-06
1.53321e-06
2.10794e-06
4.02276e-06
2.07247e-06
2.10231e-06
2.0743e-06
1.9259e-06
2.02374e-06
1.92401e-06
2.05661e-06
2.01799e-06
1.97018e-06
1.59694e-06
1.81612e-06
1.59981e-06
1.82008e-06
2.64557e-06
2.87502e-06
1.69967e-06
1.53165e-06
1.68821e-06
1.52736e-06
2.05798e-06
5.54908e-06
2.01227e-06
2.06957e-06
2.0371e-06
1.92337e-06
2.0262e-06
1.94248e-06
2.01002e-06
1.96368e-06
1.89852e-06
1.59848e-06
1.81906e-06
1.59852e-06
1.79064e-06
2.87146e-06
2.95083e-06
1.68109e-06
1.52463e-06
1.652e-06
1.51767e-06
1.9941e-06
6.10101e-06
1.93289e-06
2.03056e-06
1.98233e-06
1.95126e-06
2.03068e-06
1.96989e-06
1.9671e-06
1.89086e-06
1.82376e-06
1.59777e-06
1.77356e-06
1.58477e-06
1.6992e-06
2.81863e-06
2.07339e-06
1.64261e-06
1.51449e-06
1.62141e-06
1.50065e-06
1.91146e-06
3.30573e-06
1.84527e-06
1.97517e-06
1.92528e-06
1.96758e-06
2.03618e-06
1.96425e-06
1.90322e-06
1.81425e-06
1.74748e-06
1.5766e-06
1.67111e-06
1.54084e-06
1.58331e-06
2.02962e-06
1.75723e-06
1.61547e-06
1.49496e-06
1.59547e-06
1.47768e-06
1.82643e-06
1.84676e-06
1.76771e-06
1.9151e-06
1.85962e-06
1.96048e-06
2.03463e-06
1.93339e-06
1.82807e-06
1.73371e-06
1.66323e-06
1.5281e-06
1.55109e-06
1.49009e-06
1.46401e-06
1.73311e-06
1.59589e-06
1.58692e-06
1.47207e-06
1.54633e-06
1.44501e-06
1.74885e-06
1.39051e-06
1.68952e-06
1.84553e-06
1.78643e-06
1.92259e-06
2.03367e-06
1.89166e-06
1.73754e-06
1.6442e-06
1.57396e-06
1.47995e-06
1.43671e-06
1.45056e-06
1.35724e-06
1.57486e-06
1.47327e-06
1.52848e-06
1.4339e-06
1.46966e-06
1.39938e-06
1.6656e-06
1.25047e-06
1.58871e-06
1.76862e-06
1.71256e-06
1.87838e-06
2.03706e-06
1.81239e-06
1.63751e-06
1.55087e-06
1.47822e-06
1.44308e-06
1.33169e-06
1.42139e-06
1.24826e-06
1.4493e-06
1.35748e-06
1.44716e-06
1.38544e-06
1.39108e-06
1.34259e-06
1.56154e-06
1.17496e-06
1.4833e-06
1.69013e-06
1.63038e-06
1.78421e-06
2.06633e-06
1.68853e-06
1.52287e-06
1.45245e-06
1.38121e-06
1.41292e-06
1.22495e-06
1.38615e-06
1.16292e-06
1.33231e-06
1.26338e-06
1.37385e-06
1.33092e-06
1.31944e-06
1.28987e-06
1.45814e-06
1.11743e-06
1.38702e-06
1.60598e-06
1.54493e-06
1.64945e-06
2.0838e-06
1.53528e-06
1.39851e-06
1.35804e-06
1.30443e-06
1.37779e-06
1.14979e-06
1.35669e-06
1.12414e-06
1.23235e-06
1.19377e-06
1.29939e-06
1.28455e-06
1.25268e-06
1.25573e-06
1.36595e-06
1.07559e-06
1.32398e-06
1.52106e-06
1.47413e-06
1.49638e-06
2.08596e-06
1.40034e-06
1.30339e-06
1.28802e-06
1.28521e-06
1.35269e-06
1.1183e-06
1.35854e-06
1.12386e-06
1.17364e-06
1.16747e-06
1.24147e-06
1.26004e-06
1.23108e-06
1.26739e-06
1.30916e-06
1.06348e-06
1.30074e-06
1.45164e-06
1.46682e-06
1.36987e-06
2.07954e-06
1.32077e-06
1.2576e-06
1.29069e-06
1.3753e-06
1.36498e-06
1.12864e-06
1.42115e-06
1.19601e-06
1.17208e-06
1.26878e-06
1.23126e-06
1.27264e-06
1.2602e-06
1.33036e-06
1.30116e-06
1.12801e-06
1.34213e-06
1.44795e-06
1.534e-06
1.31347e-06
2.01473e-06
1.32611e-06
1.34236e-06
1.41872e-06
1.66415e-06
1.44865e-06
1.22681e-06
1.58156e-06
1.33374e-06
1.3204e-06
1.50046e-06
1.28262e-06
1.37438e-06
1.39306e-06
1.43742e-06
1.35823e-06
1.26848e-06
1.48394e-06
1.5488e-06
1.75791e-06
1.3444e-06
1.86337e-06
1.46706e-06
1.63277e-06
1.76725e-06
2.25798e-06
1.6264e-06
1.41222e-06
1.85696e-06
1.6257e-06
1.61325e-06
2.14793e-06
1.43359e-06
1.49254e-06
1.6491e-06
1.80966e-06
1.53581e-06
1.54281e-06
1.73259e-06
1.77116e-06
2.5591e-06
1.51507e-06
2.03541e-06
1.71551e-06
2.20432e-06
2.47227e-06
3.32662e-06
1.94924e-06
1.73392e-06
2.31109e-06
2.09069e-06
2.26355e-06
3.3461e-06
1.72932e-06
1.81389e-06
2.09378e-06
2.29367e-06
1.83674e-06
1.93056e-06
2.17418e-06
2.74014e-06
3.08511e-06
1.81917e-06
2.18365e-06
2.14973e-06
3.38716e-06
3.64999e-06
5.06798e-06
2.43064e-06
2.23809e-06
3.02917e-06
2.86258e-06
3.41658e-06
5.54378e-06
2.21286e-06
2.50189e-06
2.76918e-06
2.75946e-06
2.29236e-06
2.71829e-06
2.90053e-06
3.68915e-06
4.8026e-06
2.28255e-06
2.63535e-06
2.87071e-06
5.2046e-06
5.55229e-06
7.88022e-06
3.2666e-06
3.17429e-06
3.89341e-06
3.64787e-06
6.13185e-06
7.63029e-06
3.01466e-06
3.01666e-06
3.63496e-06
4.08555e-06
3.06853e-06
3.65196e-06
3.81978e-06
4.80793e-06
8.69034e-06
3.03539e-06
3.90168e-06
3.82001e-06
7.52062e-06
8.19347e-06
1.23362e-05
4.24625e-06
3.84684e-06
5.14476e-06
5.6225e-06
8.36633e-06
1.13798e-05
3.98709e-06
4.44568e-06
4.89754e-06
5.04188e-06
4.17076e-06
5.03155e-06
5.05004e-06
9.39467e-06
1.19314e-05
4.15199e-06
4.82912e-06
5.00947e-06
1.17823e-05
1.31868e-05
1.668e-05
5.55956e-06
5.95953e-06
6.89724e-06
6.31115e-06
1.2376e-05
1.74314e-05
5.28672e-06
5.3659e-06
6.67725e-06
6.97386e-06
5.37257e-06
6.43248e-06
6.78475e-06
1.23479e-05
1.6576e-05
5.32697e-06
6.58598e-06
6.81081e-06
1.73311e-05
1.80918e-05
2.20601e-05
7.14505e-06
7.27101e-06
8.77102e-06
8.70513e-06
1.73762e-05
2.34654e-05
6.99417e-06
7.41266e-06
8.54337e-06
9.08762e-06
7.42345e-06
8.4898e-06
8.40917e-06
1.85769e-05
2.22438e-05
7.4934e-06
8.39298e-06
8.31904e-06
2.35201e-05
2.3136e-05
3.15525e-05
9.48218e-06
9.09753e-06
1.15486e-05
1.2138e-05
2.59214e-05
3.01916e-05
9.22131e-06
9.61852e-06
1.13144e-05
1.17106e-05
8.77097e-06
1.24276e-05
1.15712e-05
2.3171e-05
3.07395e-05
8.64489e-06
1.14003e-05
1.17203e-05
2.87201e-05
3.25771e-05
3.58138e-05
1.19779e-05
1.26747e-05
1.34403e-05
1.21792e-05
3.17711e-05
3.46071e-05
1.1953e-05
1.25916e-05
1.33368e-05
1.40535e-05
1.24644e-05
1.29472e-05
1.35345e-05
3.16226e-05
3.7416e-05
1.26102e-05
1.36321e-05
1.33764e-05
3.79191e-05
3.7882e-05
4.47687e-05
1.47073e-05
1.302e-05
1.804e-05
2.00332e-05
3.48207e-05
4.91121e-05
1.43276e-05
1.49084e-05
1.84472e-05
1.91525e-05
1.41126e-05
2.11691e-05
1.78289e-05
3.909e-05
4.44833e-05
1.40691e-05
1.71301e-05
1.78631e-05
4.40682e-05
4.63664e-05
5.09396e-05
1.84862e-05
2.11414e-05
2.1015e-05
2.03368e-05
5.16222e-05
5.04814e-05
1.87277e-05
1.9555e-05
2.0677e-05
2.08951e-05
1.90136e-05
2.17613e-05
2.0805e-05
4.59512e-05
5.07227e-05
1.86987e-05
2.16517e-05
2.09923e-05
5.2105e-05
5.18449e-05
5.75845e-05
2.23087e-05
1.99596e-05
2.49223e-05
2.69918e-05
4.96694e-05
6.05918e-05
2.24421e-05
2.31209e-05
2.57774e-05
2.62328e-05
2.17756e-05
2.97587e-05
2.55591e-05
5.18648e-05
5.83644e-05
2.22834e-05
2.46169e-05
2.52494e-05
5.69562e-05
5.91299e-05
6.41679e-05
2.59288e-05
2.94106e-05
3.14036e-05
3.12512e-05
6.4042e-05
6.42915e-05
2.63357e-05
2.6474e-05
3.15425e-05
3.18713e-05
2.64472e-05
3.35746e-05
3.01885e-05
6.03179e-05
6.38519e-05
2.5883e-05
3.21702e-05
2.98205e-05
6.3443e-05
6.47776e-05
6.84616e-05
3.26377e-05
3.06632e-05
3.24693e-05
3.32771e-05
6.37162e-05
6.77021e-05
3.32668e-05
3.34894e-05
3.36582e-05
3.3508e-05
3.13867e-05
3.06437e-05
3.48282e-05
6.49785e-05
6.78601e-05
3.17011e-05
3.34614e-05
3.56613e-05
6.95159e-05
6.97105e-05
7.55885e-05
3.36062e-05
3.71745e-05
4.33505e-05
4.74342e-05
7.08785e-05
7.80841e-05
3.48678e-05
3.38506e-05
4.26984e-05
4.28043e-05
3.63431e-05
4.64814e-05
3.949e-05
6.87137e-05
7.60599e-05
3.58363e-05
4.38327e-05
3.8561e-05
7.29285e-05
7.72537e-05
7.89232e-05
4.47736e-05
4.87537e-05
4.64767e-05
4.7778e-05
7.83244e-05
7.72452e-05
4.48747e-05
4.48994e-05
4.89475e-05
4.51901e-05
4.08245e-05
4.60158e-05
4.75498e-05
7.75655e-05
7.8213e-05
4.13818e-05
4.63506e-05
4.83844e-05
7.96775e-05
7.9234e-05
8.20934e-05
4.71651e-05
4.67001e-05
4.91782e-05
5.02692e-05
7.78116e-05
8.34507e-05
4.91165e-05
4.59617e-05
4.84116e-05
5.01971e-05
4.87872e-05
5.21387e-05
5.03484e-05
7.85305e-05
8.21281e-05
4.85306e-05
4.91389e-05
4.89506e-05
8.20539e-05
8.36646e-05
8.8562e-05
5.11788e-05
5.4104e-05
6.08409e-05
5.72666e-05
8.48045e-05
8.63472e-05
5.00569e-05
5.19505e-05
6.05636e-05
5.95073e-05
5.20862e-05
5.66537e-05
5.72443e-05
8.3775e-05
8.81487e-05
5.1942e-05
6.01051e-05
5.80876e-05
8.70804e-05
8.9366e-05
9.04638e-05
6.27133e-05
5.8743e-05
6.21095e-05
6.67372e-05
8.75541e-05
9.33126e-05
6.28959e-05
6.15762e-05
6.29476e-05
6.20666e-05
5.81638e-05
6.51546e-05
6.44206e-05
8.88998e-05
9.04917e-05
5.84677e-05
6.28416e-05
6.35997e-05
9.21769e-05
9.10825e-05
9.6088e-05
6.25356e-05
6.94505e-05
7.08618e-05
7.37844e-05
9.4201e-05
9.54301e-05
6.3895e-05
6.22729e-05
7.15767e-05
7.07484e-05
6.75228e-05
7.26415e-05
7.14854e-05
9.11933e-05
9.63259e-05
6.68023e-05
7.16803e-05
7.18626e-05
9.46575e-05
9.68397e-05
9.80799e-05
7.27319e-05
7.34532e-05
7.49174e-05
7.27872e-05
9.58263e-05
9.78056e-05
7.2658e-05
7.41396e-05
7.32926e-05
7.63201e-05
7.08032e-05
7.1818e-05
7.17404e-05
9.74174e-05
9.84046e-05
7.1374e-05
7.52842e-05
7.17677e-05
9.87835e-05
9.88046e-05
0.000104225
7.56725e-05
7.67376e-05
8.27204e-05
8.14163e-05
9.92184e-05
0.000103428
7.50002e-05
7.60561e-05
8.45433e-05
8.0729e-05
7.57271e-05
8.2801e-05
8.67276e-05
9.86974e-05
0.000103483
7.56153e-05
8.15665e-05
8.65196e-05
0.000105308
0.000105195
0.000106048
8.5704e-05
8.23431e-05
8.88429e-05
9.0643e-05
0.000104011
0.000107574
8.6852e-05
8.36945e-05
8.71344e-05
9.06472e-05
8.83675e-05
8.9388e-05
8.74539e-05
0.000104769
0.000107514
8.80457e-05
9.06607e-05
8.67566e-05
0.000104123
0.000106161
0.000109648
8.81613e-05
9.26221e-05
9.10819e-05
9.23262e-05
0.000108308
0.000109656
8.63216e-05
9.07896e-05
9.19222e-05
9.10046e-05
8.64287e-05
9.12522e-05
9.13493e-05
0.000107834
0.000109075
8.57035e-05
8.99492e-05
9.20801e-05
0.000111427
0.000111346
0.000115756
9.53194e-05
9.32764e-05
0.000101022
0.000102162
0.000110475
0.000115438
9.60434e-05
9.37275e-05
0.000102655
0.00010267
9.57965e-05
0.000102371
0.000104486
0.000110035
0.000115826
9.65947e-05
0.000102218
0.000104286
0.000116194
0.000116124
0.000118455
0.00010132
0.000103124
0.000106676
0.000102123
0.000115725
0.000116359
0.000102399
0.000103443
0.000104564
0.000102711
0.000105358
0.00010156
0.000104276
0.000116444
0.000117634
0.000104722
0.00010436
0.000103541
0.000118084
0.000119415
0.00012061
0.000108646
0.000103692
0.000109943
0.000113153
0.00011751
0.000123789
0.000107246
0.000104951
0.000110546
0.000112651
0.000104785
0.000113621
0.000111756
0.000118458
0.000122128
0.000104979
0.000112685
0.000112371
0.000121644
0.000120755
0.000124314
0.000109776
0.000115245
0.000112929
0.000115576
0.000124311
0.000124036
0.0001105
0.000113103
0.000113081
0.000112303
0.000112167
0.000116037
0.000113116
0.000122215
0.000123055
0.00011269
0.000111273
0.00011258
0.000123757
0.000125691
0.000131608
0.000115631
0.000114825
0.000124667
0.000119139
0.000124068
0.000129126
0.000115622
0.00011417
0.000124557
0.000123512
0.000114787
0.000118876
0.000123201
0.000124254
0.000131469
0.000114445
0.000123538
0.000123306
0.00013132
0.000132141
0.000131754
0.000126427
0.000122806
0.000126596
0.000129828
0.000130801
0.000134332
0.000126214
0.000125956
0.000126027
0.000127668
0.000125802
0.000129616
0.000128429
0.000132355
0.000132824
0.000125922
0.000128654
0.000128595
0.000133081
0.000131545
0.000134885
0.000126012
0.000130233
0.000128055
0.000128723
0.000134422
0.000134101
0.000125568
0.000126982
0.00012877
0.000125548
0.000127867
0.000128526
0.000127598
0.000132561
0.00013279
0.000128046
0.000125373
0.000127366
0.000133808
0.00013581
0.000139648
0.000129646
0.000128562
0.00013673
0.000134645
0.000134346
0.000138491
0.00012987
0.000128942
0.000136242
0.000138332
0.00013069
0.000133354
0.000133271
0.000134262
0.000141221
0.000130319
0.00013803
0.00013375
0.00013835
0.000140575
0.000141918
0.000138509
0.000136407
0.000138977
0.000140449
0.000139404
0.000143333
0.000138352
0.000139389
0.000139351
0.000138454
0.000134431
0.000142082
0.000141394
0.000141511
0.00014072
0.000134843
0.000138365
0.000141008
0.000143397
0.000141919
0.000145644
0.00013904
0.000141826
0.000145273
0.000144088
0.000143915
0.000144576
0.000139185
0.000138196
0.000144913
0.000145596
0.000143006
0.00014359
0.000144078
0.000140837
0.000146629
0.000142698
0.000145988
0.000143998
0.000144805
0.000146409
0.000146476
0.00014661
0.000144147
0.000146249
0.000146458
0.000144506
0.000146892
0.00014626
0.000146995
0.000146104
0.000146786
0.00014403
0.000146362
0.000146037
0.000147072
0.000146342
0.000143808
0.00014631
0.000146326
0.000146947
0.000146426
0.000152274
0.000146011
0.000148248
0.000153543
0.000153497
0.000148107
0.000152075
0.00014636
0.000146787
0.000153776
0.000151796
0.000147822
0.000153978
0.000154126
0.000146271
0.000151296
0.000148516
0.000152408
0.000153965
0.000152095
0.000153128
0.000153203
0.00015563
0.000154434
0.000156509
0.000155498
0.000152275
0.00015249
0.000155449
0.000153256
0.000155869
0.000157436
0.000155272
0.000155414
0.000155139
0.000151968
0.000153964
0.000154338
0.000156838
0.000154255
0.000152124
0.000152921
0.000156792
0.000156133
0.000156061
0.000160423
0.000159643
0.000152728
0.000156292
0.000155649
0.000158324
0.000160453
0.000158312
0.000154876
0.000159285
0.000159997
0.000154477
0.000155114
0.000155704
0.000159013
0.000160844
0.000156983
0.000157523
0.000157866
0.000161888
0.000161343
0.000162444
0.000164741
0.000157145
0.000159511
0.000161593
0.0001585
0.000162611
0.000164246
0.000162274
0.000165457
0.000165185
0.000155058
0.000159357
0.000161837
0.000163531
0.000163839
0.000159265
0.000157908
0.000162535
0.000162987
0.000164786
0.000168193
0.000166313
0.000159536
0.000160426
0.00016349
0.000166424
0.000168657
0.00016923
0.000165031
0.000165664
0.000166754
0.000160541
0.000162577
0.000164795
0.00016992
0.000168972
0.000161767
0.000163385
0.000164248
0.000170101
0.000168207
0.000172565
0.000172714
0.00016134
0.000164713
0.000170349
0.000169125
0.000172254
0.000168864
0.000168882
0.000172601
0.000172558
0.000162442
0.000161497
0.00017011
0.000168791
0.000170807
0.000163927
0.000164024
0.000163815
0.00017236
0.000172944
0.000171131
0.00017237
0.000164729
0.000164742
0.000171968
0.00016972
0.000170637
0.00017414
0.000172539
0.000172152
0.000171379
0.000161895
0.000167083
0.000170485
0.000174169
0.000171884
0.000164322
0.00016488
0.000170953
0.000172544
0.000173538
0.000180386
0.000180008
0.000165526
0.000170421
0.000172181
0.00017621
0.000180538
0.000180986
0.000172162
0.000180248
0.000180223
0.000168138
0.000170753
0.000174311
0.000181101
0.000180937
0.000170811
0.000171328
0.00017142
0.000181694
0.000180955
0.000182356
0.000180986
0.000170644
0.000170366
0.000182021
0.000181454
0.000183016
0.000180885
0.000181701
0.000181785
0.000182645
0.000170678
0.0001694
0.000182039
0.000180712
0.000182551
0.000171508
0.000171238
0.000172367
0.000182189
0.000180937
0.000184028
0.000184537
0.000170294
0.000172824
0.000182877
0.000180531
0.00018323
0.000183864
0.000182712
0.0001838
0.000184321
0.000169274
0.000173255
0.00018248
0.00018422
0.000183754
0.000172522
0.000172406
0.000173347
0.0001843
0.000184944
0.000184527
0.000185137
0.000172868
0.000173722
0.000183367
0.000184996
0.000185071
0.000185842
0.000184298
0.000185151
0.000183848
0.000173692
0.000174138
0.000183747
0.000185837
0.000183573
0.000172544
0.000174386
0.000179365
0.000186429
0.000186881
0.00019253
0.000192802
0.000174772
0.000179704
0.000187094
0.000187352
0.000192688
0.000192668
0.000185665
0.000192973
0.000192606
0.000174657
0.000179337
0.000185721
0.000192537
0.000192699
0.000179479
0.000179461
0.000177161
0.000193293
0.000193519
0.00019307
0.000193149
0.000179768
0.000177205
0.000193388
0.000193331
0.000193014
0.000192949
0.000193452
0.000193161
0.000193368
0.000179453
0.000177206
0.000193592
0.000193263
0.000193643
0.000177558
0.000176615
0.000176953
0.000192292
0.00019232
0.000190356
0.00019033
0.000176655
0.000176821
0.000192222
0.000192153
0.000190289
0.000190255
0.000192587
0.00019032
0.00019058
0.000176668
0.000176971
0.000192894
0.000190636
0.000190952
0.000177043
0.000178478
0.000188986
0.000191956
0.000191747
0.000204589
0.000204395
0.000178287
0.000188836
0.000191994
0.000191991
0.000204639
0.000204601
0.000191866
0.000204426
0.000204348
0.000178478
0.000188914
0.000192116
0.000204531
0.000204362
0.000188787
0.000190293
0.000195282
0.000207498
0.000207355
0.000213661
0.000213573
0.000190174
0.000195292
0.000207533
0.000207485
0.000213681
0.000213607
0.000207293
0.000213606
0.000213489
0.000190215
0.000195159
0.000207278
0.000213526
0.000213437
0.000195197
0.000194203
0.000181633
0.000215043
0.000214989
0.000202933
0.000203038
0.000194236
0.000181735
0.00021505
0.000214961
0.00020288
0.000202785
0.000214905
0.00020303
0.000203
0.000194083
0.000181565
0.000214844
0.000202859
0.00020297
0.00018171
0.000179023
0.000169168
0.000197397
0.000197486
0.000186076
0.000186101
0.000179116
0.000169195
0.000197355
0.000197278
0.000186069
0.000186031
0.000197465
0.000186119
0.000186131
0.000178971
0.00016916
0.000197453
0.000186101
0.000186143
0.00016922
0.000168213
0.000171175
0.000184276
0.000184287
0.00018216
0.000182084
0.000168237
0.000171107
0.000184276
0.000184238
0.00018221
0.000182204
0.000184331
0.000182138
0.000182183
0.000168206
0.000171179
0.000184344
0.000182189
0.000182182
0.000171155
0.000173113
0.000183984
0.000186523
0.000186423
0.000200262
0.000200213
0.00017304
0.000183961
0.000186586
0.000186588
0.000200298
0.000200273
0.000186524
0.000200265
0.000200262
0.000173114
0.00018396
0.000186513
0.000200235
0.000200241
0.000183962
0.000186252
0.000200932
0.000205273
0.000205241
0.000221991
0.000221997
0.000186239
0.000200957
0.000205304
0.00020527
0.000222009
0.000221956
0.00020528
0.000222046
0.000222019
0.000186223
0.000200891
0.000205258
0.000221948
0.000222002
0.000200944
0.000203374
0.000216284
0.000227698
0.000227713
0.000241397
0.000241427
0.000203403
0.000216327
0.000227714
0.000227657
0.000241406
0.00024134
0.000227733
0.00024147
0.000241438
0.000203332
0.000216242
0.000227718
0.000241371
0.000241434
0.000216312
0.000217252
0.000216843
0.000244665
0.000244698
0.000250917
0.000250952
0.000217295
0.00021688
0.000244673
0.000244604
0.000250927
0.000250857
0.000244709
0.00025099
0.000250947
0.000217212
0.00021683
0.000244705
0.000250933
0.00025097
0.00021686
0.000212736
0.000193584
0.000244662
0.000244688
0.00022058
0.000220589
0.00021277
0.000193602
0.000244672
0.000244614
0.000220596
0.000220564
0.000244671
0.000220626
0.000220582
0.000212729
0.000193594
0.00024472
0.000220636
0.000220625
0.000193588
0.000190044
0.000176672
0.00021339
0.000213394
0.000197092
0.000197089
0.00019006
0.000176681
0.000213406
0.00021338
0.000197104
0.000197093
0.00021339
0.000197122
0.00019709
0.000190055
0.000176685
0.00021343
0.000197135
0.00019712
0.000176674
0.000175298
0.000172047
0.000193692
0.000193688
0.000189188
0.000189184
0.000175307
0.000172055
0.000193702
0.000193693
0.000189194
0.000189187
0.000193691
0.00018921
0.000189188
0.000175309
0.000172053
0.000193715
0.000189213
0.000189202
0.000172047
0.000172015
0.00017756
0.000189088
0.000189085
0.000194385
0.000194386
0.000172022
0.000177569
0.000189094
0.000189086
0.000194392
0.000194377
0.000189089
0.000194407
0.000194388
0.000172019
0.000177558
0.000189101
0.000194398
0.000194395
0.00017756
0.000178818
0.000184275
0.000197585
0.000197587
0.000205092
0.000205093
0.000178827
0.000184285
0.000197595
0.000197576
0.000205106
0.00020508
0.000197589
0.000205123
0.000205097
0.000178816
0.000184272
0.000197597
0.000205112
0.00020511
0.000184276
0.000184878
0.000187207
0.000206835
0.000206836
0.000209957
0.000209956
0.000184888
0.000187216
0.000206851
0.000206822
0.000209975
0.000209943
0.000206841
0.00020999
0.000209964
0.000184875
0.000187202
0.000206855
0.00020998
0.000209981
0.000187209
0.000187317
0.000188024
0.000210502
0.0002105
0.000211319
0.000211317
0.000187325
0.000188033
0.00021052
0.000210487
0.000211338
0.000211305
0.000210509
0.000211354
0.000211326
0.000187312
0.00018802
0.000210526
0.000211343
0.000211344
0.000188026
0.000187959
0.000188248
0.000211454
0.000211452
0.000211644
0.000211641
0.000187968
0.000188257
0.000211473
0.00021144
0.000211662
0.000211629
0.000211461
0.000211678
0.00021165
0.000187955
0.000188243
0.000211479
0.000211668
0.000211668
0.00018825
0.000188121
0.000188318
0.000211658
0.000211655
0.000211679
0.000211675
0.000188129
0.000188327
0.000211676
0.000211643
0.000211697
0.000211664
0.000211665
0.000211713
0.000211686
0.000188116
0.000188313
0.000211683
0.000211703
0.000211704
0.00018832
0.000188175
0.000188262
0.000211671
0.000211667
0.000211578
0.000211574
0.000188183
0.000188271
0.000211689
0.000211656
0.000211596
0.000211562
0.000211678
0.000211612
0.000211585
0.00018817
0.000188257
0.000211696
0.000211602
0.000211602
0.000188264
0.00018811
0.00018816
0.000211555
0.000211551
0.000211506
0.000211503
0.000188118
0.000188169
0.000211574
0.00021154
0.000211524
0.000211491
0.000211562
0.000211541
0.000211513
0.000188105
0.000188155
0.00021158
0.00021153
0.00021153
0.000188162
0.00018802
0.000188252
0.000211513
0.000211509
0.000211525
0.000211522
0.000188028
0.000188262
0.000211531
0.000211497
0.000211544
0.000211509
0.00021152
0.00021156
0.000211532
0.000188016
0.000188247
0.000211537
0.000211549
0.000211549
0.000188253
0.000188124
0.000188212
0.000211534
0.00021153
0.000211516
0.000211512
0.000188134
0.000188219
0.000211552
0.000211518
0.000211534
0.0002115
0.00021154
0.00021155
0.000211522
0.000188119
0.000188206
0.000211557
0.000211539
0.00021154
0.000188213
0.000188061
0.000188185
0.000211518
0.000211514
0.000211509
0.000211506
0.000188068
0.000188194
0.000211537
0.000211502
0.000211527
0.000211493
0.000211525
0.000211544
0.000211516
0.000188055
0.000188181
0.000211542
0.000211533
0.000211533
0.000188187
0.000188061
0.000188258
0.000211524
0.000211521
0.000211571
0.000211568
0.00018807
0.000188265
0.000211543
0.000211509
0.00021159
0.000211557
0.000211531
0.000211605
0.000211578
0.000188057
0.000188251
0.000211549
0.000211596
0.000211596
0.000188258
0.000188106
0.000189615
0.000211446
0.000211443
0.000214004
0.000214005
0.000188113
0.000189621
0.000211466
0.00021143
0.000214023
0.000213996
0.000211451
0.000214033
0.000214012
0.0001881
0.000189612
0.000211471
0.000214026
0.000214029
0.000189619
0.000191541
0.000212794
0.000212795
0.000191547
0.00021281
0.000212787
0.000236159
0.000236156
0.000236163
0.000212802
0.000191538
0.000212817
2.49359e-05
2.59651e-06
1.51139e-05
1.51397e-05
6.0693e-07
2.03312e-06
1.539e-06
7.90171e-06
6.29129e-07
2.27357e-06
7.34757e-06
7.93566e-07
2.23688e-06
1.76293e-06
1.95821e-06
1.30158e-06
1.49551e-05
1.24593e-06
1.68244e-05
1.06382e-05
1.27182e-05
1.11872e-06
1.3362e-05
1.03853e-06
1.51103e-05
6.19834e-06
6.36199e-06
6.41913e-06
6.31243e-06
6.11797e-06
6.39495e-06
6.31126e-06
6.77225e-07
7.65172e-07
3.06966e-06
2.22553e-06
6.64497e-07
9.28944e-07
3.01554e-06
1.15648e-05
1.3913e-05
5.54936e-07
2.77851e-06
4.22065e-07
1.88334e-06
5.78178e-07
2.7552e-06
5.44645e-07
1.5021e-06
1.50855e-06
2.21603e-06
1.71718e-06
1.7203e-06
1.43083e-06
2.06825e-05
1.39279e-06
2.31702e-05
1.68505e-05
1.90544e-05
1.32579e-06
1.83057e-05
1.24944e-06
2.06355e-05
6.14642e-06
6.48551e-06
6.33512e-06
6.49523e-06
6.24714e-06
6.71114e-06
6.41846e-06
6.3244e-07