/*--------------------------------*- C++ -*----------------------------------*\
| =========                 |                                                 |
| \\      /  F ield         | OpenFOAM: The Open Source CFD Toolbox           |
|  \\    /   O peration     | Version:  v2012                                 |
|   \\  /    A nd           | Website:  www.openfoam.com                      |
|    \\/     M anipulation  |                                                 |
\*---------------------------------------------------------------------------*/
FoamFile
{
    version     2.0;
    format      ascii;
    class       volScalarField;
    location    "325";
    object      p;
}
// * * * * * * * * * * * * * * * * * * * * * * * * * * * * * * * * * * * * * //

dimensions      [0 2 -2 0 0 0 0];


internalField   nonuniform List<scalar> 
171728
(
0.00352168
0.00352061
0.00352063
0.00352128
0.00348602
0.00348455
0.00348449
0.00348745
0.00344771
0.00344581
0.00344582
0.00344809
0.00340347
0.00340184
0.00340189
0.00340407
0.00335509
0.00335366
0.00335355
0.00335601
0.00330634
0.00330497
0.00330494
0.00330729
0.00325833
0.00325706
0.00325712
0.0032594
0.00321106
0.00320999
0.00320998
0.0032123
0.00316463
0.00316364
0.00316361
0.00316603
0.0031193
0.00311839
0.00311844
0.0031208
0.00307491
0.00307411
0.00307409
0.00307651
0.00303121
0.00303053
0.0030306
0.00303292
0.00298811
0.00298755
0.0029876
0.00298996
0.0029454
0.00294494
0.00294484
0.00294723
0.002903
0.00290262
0.00290268
0.00290493
0.00286096
0.00286081
0.00286071
0.00286289
0.00281925
0.00281903
0.00281908
0.00282127
0.0027779
0.0027777
0.00277776
0.00277986
0.00273689
0.00273668
0.00273675
0.00273879
0.00269624
0.00269606
0.00269615
0.00269812
0.00265595
0.00265593
0.0026558
0.00265773
0.00261596
0.00261598
0.00261581
0.00261766
0.00257623
0.0025762
0.00257636
0.0025779
0.00253676
0.00253675
0.00253693
0.00253853
0.00249755
0.00249763
0.00249768
0.00249951
0.00245854
0.00245878
0.00245865
0.00246041
0.00241982
0.00242002
0.00241999
0.00242185
0.00238126
0.0023815
0.00238156
0.00238332
0.00234294
0.0023432
0.00234325
0.00234551
0.00230482
0.00230512
0.0023051
0.00230692
0.00226686
0.00226719
0.00226721
0.00226932
0.00222909
0.00222954
0.00222952
0.00223129
0.00219138
0.00219167
0.00219183
0.00219384
0.00215386
0.00215428
0.00215425
0.00215615
0.00211659
0.00211703
0.00211699
0.00211885
0.00207918
0.00207952
0.00207957
0.00208155
0.00204201
0.00204247
0.00204241
0.00204429
0.00200522
0.00200542
0.00200553
0.00200738
0.00196827
0.0019687
0.00196854
0.00197063
0.00193159
0.00193163
0.00193184
0.00193359
0.00189495
0.00189527
0.00189506
0.00189731
0.00185862
0.00185862
0.0018588
0.00186054
0.00182233
0.00182237
0.00182228
0.00182431
0.00178599
0.00178611
0.00178612
0.00178847
0.00175032
0.00175008
0.00175015
0.00175185
0.00171417
0.00171411
0.00171407
0.00171625
0.00167835
0.00167829
0.00167821
0.00168032
0.0016428
0.00164251
0.00164267
0.00164473
0.00160739
0.00160727
0.00160719
0.00160918
0.00157201
0.00157165
0.00157155
0.00157362
0.00153653
0.00153629
0.00153638
0.00153846
0.00150128
0.00150118
0.00150125
0.00150315
0.00146633
0.00146601
0.00146579
0.00146797
0.00143118
0.00143072
0.00143107
0.00143282
0.00139617
0.00139607
0.00139578
0.00139795
0.00136138
0.00136106
0.0013612
0.00136308
0.00132657
0.00132622
0.00132627
0.00132815
0.00129183
0.00129167
0.00129152
0.00129362
0.00125709
0.00125691
0.00125701
0.00125882
0.00122266
0.00122225
0.00122227
0.00122421
0.00118802
0.00118787
0.00118768
0.00118964
0.00115332
0.00115316
0.00115344
0.00115519
0.00111923
0.00111892
0.00111874
0.00112081
0.0010846
0.00108431
0.00108428
0.00108612
0.00105013
0.00105012
0.00105023
0.00105204
0.00101574
0.00101556
0.00101553
0.00101751
0.00098164
0.000981406
0.000981418
0.000983335
0.000947096
0.000946837
0.000946846
0.000948719
0.000913216
0.000913194
0.00091318
0.000915061
0.000879662
0.000879481
0.000879461
0.000881343
0.000844708
0.000844288
0.000844284
0.000846145
0.00080903
0.000808841
0.000808853
0.000810823
0.000773508
0.000774028
0.000774042
0.000776206
0.000739781
0.000740058
0.000740066
0.000742118
0.000707208
0.000706762
0.000706765
0.000708415
0.000675366
0.000674737
0.000674741
0.000676302
0.00064231
0.000641804
0.00064181
0.000643537
0.000605305
0.000604936
0.000604941
0.000606947
0.000564738
0.000565179
0.000565181
0.000567693
0.000524937
0.000525822
0.00052582
0.000528402
0.000487689
0.000488076
0.000488073
0.000490323
0.0004531
0.000452815
0.000452804
0.000454656
0.000420882
0.000420489
0.000420489
0.000422099
0.000391226
0.000391122
0.000391119
0.000392741
0.000359873
0.000359817
0.000359818
0.000361632
0.000325732
0.000325698
0.000325698
0.000327671
0.000290097
0.000290073
0.000290073
0.000292122
0.000253836
0.000253816
0.000253816
0.000255895
0.000217335
0.000217313
0.000217313
0.000219403
0.000180761
0.000180737
0.000180736
0.000182825
0.000144156
0.000144132
0.000144131
0.000146215
0.000107535
0.000107513
0.000107513
0.00010958
7.09187e-05
7.08918e-05
7.08903e-05
7.2925e-05
3.50545e-05
3.44814e-05
3.44779e-05
3.6364e-05
6.24698e-06
7.16484e-06
7.16358e-06
5.43608e-06
0.00352613
0.0035237
0.00352372
0.00352615
0.00352366
0.00352382
0.00353009
0.00353009
0.00353011
0.00353005
0.00352377
0.0035236
0.0035262
0.00352373
0.0035236
0.00352605
0.00352136
0.00349224
0.00352064
0.00352062
0.00349408
0.00349406
0.00352136
0.0034922
0.00352062
0.0035207
0.00349406
0.00349417
0.00352057
0.00349404
0.00349407
0.00352143
0.00349227
0.00352057
0.00349411
0.0034941
0.00349224
0.00348747
0.00345364
0.0034847
0.00348453
0.00345593
0.0034559
0.00348745
0.00345365
0.0034846
0.00348467
0.0034559
0.00345584
0.00348458
0.00345594
0.00345589
0.00348744
0.00345365
0.00348456
0.00345591
0.00345591
0.00345362
0.0034481
0.00341024
0.00344577
0.00344579
0.00341341
0.00341338
0.00344814
0.00341028
0.00344577
0.00344595
0.00341338
0.00341371
0.00344578
0.00341337
0.00341333
0.00344811
0.00341015
0.00344577
0.00341346
0.00341332
0.00341027
0.00340403
0.00336237
0.00340192
0.00340181
0.00336583
0.0033659
0.00340408
0.0033625
0.0034018
0.00340202
0.00336579
0.00336595
0.00340182
0.0033659
0.0033659
0.00340398
0.0033623
0.00340184
0.00336577
0.00336587
0.00336251
0.00335589
0.00331373
0.00335367
0.0033536
0.00331691
0.003317
0.00335601
0.00331372
0.00335354
0.00335356
0.00331697
0.00331684
0.00335363
0.00331705
0.00331703
0.00335584
0.00331374
0.00335363
0.00331692
0.00331704
0.00331372
0.00330731
0.00326571
0.00330486
0.00330495
0.00326886
0.00326891
0.00330731
0.0032657
0.00330486
0.00330487
0.00326892
0.00326876
0.00330492
0.00326892
0.0032689
0.00330732
0.00326573
0.00330492
0.0032689
0.0032689
0.00326569
0.00325942
0.00321849
0.003257
0.00325701
0.00322167
0.00322166
0.00325941
0.00321849
0.00325706
0.00325699
0.00322167
0.00322167
0.00325705
0.00322166
0.00322165
0.00325944
0.00321854
0.00325705
0.00322167
0.00322166
0.00321848
0.0032123
0.00317208
0.00320993
0.00320996
0.0031751
0.00317513
0.00321231
0.00317207
0.00320993
0.00320993
0.00317509
0.00317512
0.00320996
0.00317512
0.0031751
0.00321232
0.00317207
0.00320995
0.0031751
0.0031751
0.00317207
0.00316603
0.0031267
0.00316364
0.00316365
0.00312961
0.00312968
0.00316603
0.0031267
0.00316363
0.00316363
0.00312959
0.00312962
0.00316364
0.00312967
0.00312964
0.00316602
0.00312672
0.00316361
0.00312963
0.00312963
0.00312671
0.00312081
0.0030823
0.00311842
0.00311839
0.00308512
0.00308515
0.00312078
0.00308229
0.00311842
0.00311843
0.00308513
0.00308515
0.00311842
0.00308517
0.00308518
0.00312081
0.0030823
0.00311841
0.00308519
0.00308518
0.00308231
0.00307652
0.00303861
0.00307415
0.0030741
0.00304141
0.00304146
0.00307647
0.00303863
0.00307414
0.00307413
0.0030414
0.00304138
0.00307413
0.00304141
0.00304138
0.00307652
0.00303861
0.00307412
0.00304133
0.00304139
0.00303862
0.00303292
0.0029955
0.00303052
0.00303054
0.00299824
0.00299831
0.00303291
0.00299555
0.00303055
0.00303056
0.00299826
0.00299827
0.00303054
0.00299833
0.00299824
0.00303293
0.00299553
0.00303055
0.00299831
0.00299825
0.00299553
0.00298989
0.00295283
0.00298753
0.00298762
0.00295553
0.00295557
0.00298994
0.0029528
0.0029875
0.0029876
0.00295553
0.0029556
0.00298761
0.00295554
0.00295552
0.00298993
0.00295283
0.00298761
0.00295564
0.00295552
0.00295279
0.00294731
0.00291046
0.00294499
0.00294487
0.00291324
0.00291316
0.00294724
0.00291039
0.002945
0.00294491
0.00291324
0.00291317
0.00294486
0.00291319
0.00291313
0.00294725
0.00291046
0.00294486
0.00291311
0.00291315
0.00291043
0.00290496
0.00286842
0.00290262
0.00290263
0.00287115
0.00287118
0.00290491
0.00286848
0.00290262
0.00290266
0.00287116
0.00287117
0.00290253
0.00287119
0.00287107
0.00290499
0.00286843
0.00290256
0.00287117
0.00287106
0.00286834
0.00286295
0.0028266
0.0028606
0.00286083
0.00282936
0.00282934
0.00286307
0.00282662
0.00286058
0.00286073
0.00282937
0.00282947
0.0028606
0.00282931
0.00282932
0.00286301
0.00282672
0.00286059
0.00282941
0.00282932
0.0028266
0.00282122
0.00278521
0.00281896
0.00281913
0.00278794
0.00278799
0.00282132
0.00278521
0.00281894
0.00281907
0.00278794
0.00278799
0.00281899
0.00278793
0.00278796
0.00282135
0.00278527
0.00281899
0.00278798
0.00278797
0.00278519
0.00277992
0.0027441
0.00277771
0.00277776
0.00274694
0.00274701
0.00277991
0.00274411
0.00277769
0.00277779
0.00274695
0.0027469
0.00277765
0.00274699
0.00274698
0.00277999
0.00274417
0.00277764
0.00274685
0.00274696
0.00274403
0.00273884
0.0027033
0.00273676
0.00273675
0.00270626
0.00270628
0.00273884
0.00270332
0.00273673
0.00273677
0.00270626
0.00270619
0.00273672
0.00270625
0.00270628
0.00273893
0.00270342
0.00273669
0.00270623
0.00270629
0.00270328
0.00269813
0.0026628
0.00269613
0.00269615
0.00266591
0.00266589
0.00269812
0.00266281
0.00269608
0.00269617
0.00266589
0.0026658
0.00269613
0.00266587
0.00266599
0.00269822
0.00266294
0.00269612
0.00266586
0.00266601
0.00266282
0.00265771
0.00262266
0.00265586
0.00265597
0.00262591
0.0026258
0.0026577
0.00262269
0.00265583
0.00265583
0.0026259
0.0026259
0.00265585
0.00262582
0.0026259
0.00265774
0.00262268
0.00265584
0.00262586
0.00262589
0.00262273
0.00261764
0.00258289
0.00261592
0.00261593
0.0025862
0.00258601
0.00261763
0.00258294
0.00261592
0.00261581
0.00258618
0.0025862
0.00261586
0.00258607
0.00258613
0.00261759
0.00258296
0.00261585
0.00258619
0.00258616
0.00258295
0.00257791
0.00254348
0.00257624
0.00257611
0.00254671
0.00254668
0.00257785
0.00254358
0.00257625
0.00257632
0.00254669
0.00254653
0.00257616
0.00254669
0.00254673
0.00257803
0.00254334
0.00257615
0.00254652
0.00254674
0.00254351
0.00253856
0.0025043
0.00253689
0.00253668
0.00250739
0.0025075
0.0025385
0.00250443
0.0025369
0.00253689
0.00250738
0.00250738
0.00253681
0.00250748
0.00250753
0.00253845
0.0025044
0.0025368
0.00250739
0.00250753
0.0025044
0.00249938
0.00246546
0.00249772
0.00249769
0.00246838
0.00246845
0.00249946
0.00246547
0.0024977
0.00249767
0.00246839
0.00246833
0.00249776
0.0024685
0.00246845
0.00249943
0.0024653
0.00249774
0.00246836
0.00246845
0.00246527
0.00246045
0.00242687
0.00245869
0.00245878
0.00242969
0.00242962
0.00246063
0.00242649
0.00245868
0.00245865
0.0024297
0.00242969
0.00245879
0.00242965
0.00242964
0.00246034
0.002427
0.00245879
0.00242974
0.00242967
0.00242678
0.00242189
0.00238839
0.00242
0.00242007
0.00239119
0.00239108
0.00242163
0.00238858
0.00242
0.00241997
0.00239117
0.00239111
0.00242004
0.00239111
0.00239108
0.00242198
0.0023883
0.00242007
0.00239115
0.00239108
0.0023883
0.00238354
0.00235005
0.00238158
0.00238143
0.00235277
0.00235281
0.00238357
0.00235014
0.00238156
0.0023815
0.00235279
0.0023528
0.00238152
0.00235278
0.00235282
0.00238347
0.00235008
0.00238153
0.00235277
0.00235282
0.00235042
0.00234506
0.00231215
0.00234324
0.00234321
0.00231468
0.00231468
0.00234524
0.00231194
0.00234323
0.00234321
0.00231467
0.00231465
0.00234322
0.00231462
0.00231463
0.00234515
0.00231206
0.00234322
0.0023146
0.00231463
0.00231176
0.00230723
0.00227418
0.00230519
0.00230521
0.00227671
0.0022767
0.00230715
0.00227433
0.00230518
0.00230516
0.00227667
0.00227668
0.00230517
0.00227674
0.00227677
0.00230712
0.00227416
0.00230516
0.00227674
0.00227676
0.00227425
0.00226928
0.00223623
0.00226724
0.00226717
0.00223887
0.00223891
0.00226937
0.00223599
0.00226721
0.00226721
0.00223888
0.00223893
0.00226726
0.00223891
0.00223885
0.00226925
0.00223623
0.00226725
0.00223895
0.00223889
0.00223621
0.00223137
0.00219873
0.00222949
0.00222952
0.00220124
0.0022012
0.0022312
0.00219878
0.00222951
0.00222951
0.0022012
0.00220119
0.00222945
0.00220116
0.00220127
0.00223134
0.00219875
0.00222948
0.00220118
0.00220122
0.00219874
0.00219382
0.002161
0.00219182
0.00219173
0.00216362
0.00216359
0.00219385
0.00216095
0.00219175
0.00219178
0.00216367
0.00216367
0.00219184
0.00216355
0.00216362
0.00219379
0.00216112
0.00219182
0.00216366
0.00216372
0.00216102
0.00215615
0.00212377
0.00215426
0.00215432
0.00212634
0.00212639
0.00215609
0.00212381
0.0021543
0.00215428
0.00212629
0.0021263
0.00215426
0.00212642
0.00212629
0.00215628
0.00212373
0.00215433
0.00212632
0.00212622
0.00212374
0.00211884
0.00208647
0.00211705
0.00211701
0.00208898
0.00208882
0.00211887
0.00208637
0.002117
0.002117
0.00208897
0.00208896
0.00211698
0.00208881
0.002089
0.00211881
0.0020864
0.00211692
0.00208894
0.00208906
0.00208645
0.00208158
0.00204914
0.00207957
0.00207949
0.0020516
0.0020517
0.00208148
0.00204938
0.00207958
0.00207959
0.00205161
0.00205168
0.00207966
0.00205177
0.00205162
0.00208155
0.00204922
0.0020797
0.00205165
0.0020516
0.00204914
0.00204429
0.00201231
0.00204238
0.00204244
0.00201479
0.00201473
0.0020445
0.00201213
0.00204237
0.00204243
0.00201477
0.00201471
0.00204233
0.00201465
0.00201473
0.00204432
0.00201226
0.00204233
0.00201474
0.00201472
0.00201224
0.00200742
0.00197532
0.00200553
0.00200546
0.00197773
0.00197791
0.00200729
0.0019756
0.00200554
0.00200548
0.00197775
0.00197778
0.00200552
0.00197795
0.00197784
0.0020074
0.00197534
0.00200549
0.00197778
0.00197787
0.00197548
0.00197051
0.00193871
0.00196853
0.00196866
0.00194105
0.00194081
0.0019707
0.00193839
0.00196852
0.00196856
0.00194103
0.00194104
0.00196865
0.00194083
0.00194089
0.00197049
0.00193873
0.00196868
0.00194104
0.0019409
0.00193847
0.0019338
0.00190191
0.00193185
0.00193163
0.00190422
0.00190437
0.00193356
0.00190216
0.00193183
0.00193185
0.00190421
0.0019042
0.00193165
0.00190437
0.00190433
0.00193384
0.0019018
0.00193165
0.00190419
0.00190432
0.00190209
0.00189712
0.0018656
0.00189508
0.00189524
0.00186785
0.00186777
0.00189735
0.00186543
0.00189509
0.00189505
0.00186789
0.00186784
0.00189531
0.0018678
0.00186785
0.00189701
0.00186567
0.00189529
0.00186787
0.00186783
0.00186545
0.00186075
0.00182907
0.00185876
0.00185864
0.00183134
0.00183149
0.00186058
0.00182923
0.00185877
0.00185879
0.0018313
0.00183143
0.00185858
0.00183144
0.00183122
0.00186084
0.0018291
0.00185857
0.0018314
0.00183124
0.00182904
0.00182428
0.0017931
0.00182223
0.00182242
0.0017952
0.00179505
0.00182439
0.00179294
0.00182222
0.00182229
0.00179525
0.00179509
0.0018223
0.00179511
0.00179545
0.00182427
0.00179299
0.00182232
0.00179508
0.00179546
0.00179333
0.0017883
0.00175683
0.00178621
0.00178602
0.00175911
0.00175916
0.00178817
0.00175693
0.00178625
0.00178612
0.00175908
0.00175917
0.00178633
0.00175914
0.00175887
0.00178824
0.00175694
0.00178634
0.0017592
0.00175882
0.00175662
0.00175203
0.00172102
0.00175005
0.00175015
0.00172311
0.00172305
0.00175211
0.00172095
0.00175002
0.00175013
0.0017231
0.00172303
0.00174982
0.00172303
0.00172312
0.00175211
0.00172093
0.0017498
0.00172303
0.00172315
0.00172102
0.00171623
0.00168502
0.00171412
0.00171412
0.00168711
0.00168729
0.0017162
0.00168515
0.00171413
0.00171408
0.00168717
0.00168723
0.00171418
0.00168731
0.00168718
0.00171617
0.00168508
0.00171423
0.0016872
0.00168719
0.00168512
0.00168026
0.00164953
0.00167818
0.00167826
0.00165162
0.00165133
0.00168032
0.00164928
0.00167821
0.00167825
0.00165158
0.00165146
0.00167826
0.00165133
0.00165153
0.00168029
0.00164944
0.00167821
0.00165149
0.0016515
0.00164945
0.00164477
0.00161389
0.00164276
0.00164251
0.00161594
0.00161615
0.00164458
0.00161411
0.00164272
0.00164264
0.00161602
0.00161607
0.00164269
0.00161612
0.00161603
0.00164471
0.00161398
0.0016427
0.00161611
0.00161609
0.00161395
0.00160915
0.00157837
0.00160704
0.0016073
0.00158044
0.00158056
0.00160936
0.00157841
0.00160709
0.00160718
0.0015804
0.00158042
0.00160709
0.00158061
0.00158044
0.00160921
0.00157834
0.00160713
0.00158041
0.00158039
0.00157836
0.00157364
0.00154324
0.00157164
0.00157161
0.00154527
0.00154505
0.00157366
0.00154308
0.00157162
0.00157157
0.00154529
0.00154521
0.00157162
0.00154506
0.00154521
0.00157361
0.00154318
0.00157157
0.00154515
0.0015452
0.00154318
0.00153851
0.00150786
0.00153645
0.00153628
0.0015099
0.00151001
0.00153836
0.00150796
0.00153646
0.00153642
0.0015099
0.00151003
0.00153641
0.00150997
0.00150995
0.00153846
0.00150797
0.0015364
0.00151012
0.00151003
0.0015079
0.00150313
0.0014726
0.00150109
0.00150123
0.00147468
0.0014747
0.00150322
0.00147267
0.0015011
0.00150117
0.00147466
0.00147451
0.00150107
0.0014748
0.0014748
0.0015032
0.0014725
0.00150115
0.0014745
0.0014747
0.00147269
0.00146787
0.00143768
0.00146586
0.0014659
0.0014397
0.00143963
0.00146795
0.00143754
0.00146583
0.00146578
0.00143971
0.00143981
0.00146606
0.00143951
0.00143957
0.0014678
0.00143779
0.00146596
0.0014398
0.00143963
0.00143754
0.00143299
0.00140258
0.001431
0.00143086
0.0014046
0.00140465
0.00143283
0.00140266
0.00143104
0.00143113
0.00140463
0.00140455
0.00143077
0.0014047
0.00140463
0.00143309
0.0014025
0.00143085
0.00140451
0.00140464
0.00140263
0.00139784
0.0013678
0.00139581
0.00139596
0.00136985
0.00136984
0.00139797
0.0013678
0.00139582
0.00139576
0.00136981
0.00136979
0.00139598
0.00136987
0.00136989
0.00139779
0.00136783
0.00139594
0.00136987
0.00136985
0.00136779
0.00136315
0.00133285
0.00136123
0.0013611
0.0013349
0.00133493
0.00136309
0.00133285
0.00136119
0.00136117
0.00133492
0.00133503
0.00136112
0.00133488
0.00133483
0.00136316
0.00133291
0.0013611
0.00133496
0.00133489
0.00133283
0.00132813
0.00129824
0.00132613
0.00132623
0.00130028
0.00130027
0.00132815
0.00129825
0.00132618
0.00132629
0.00130028
0.00130016
0.00132614
0.00130029
0.00130033
0.00132821
0.00129817
0.00132624
0.00130022
0.00130034
0.00129829
0.00129358
0.00126351
0.00129168
0.00129163
0.00126554
0.00126561
0.0012936
0.00126356
0.00129165
0.0012915
0.00126554
0.00126565
0.00129175
0.00126566
0.0012656
0.00129349
0.00126358
0.00129166
0.0012656
0.00126553
0.00126351
0.00125883
0.00122895
0.00125684
0.0012569
0.001231
0.00123089
0.00125884
0.00122885
0.00125686
0.00125704
0.00123102
0.00123097
0.00125684
0.00123082
0.00123087
0.00125893
0.00122891
0.00125687
0.00123101
0.00123098
0.00122888
0.00122428
0.00119431
0.00122242
0.0012223
0.00119641
0.00119652
0.0012242
0.00119445
0.0012224
0.00122225
0.00119635
0.00119631
0.00122231
0.00119656
0.0011965
0.00122419
0.00119425
0.00122233
0.00119625
0.00119633
0.00119433
0.00118961
0.00115978
0.00118769
0.00118783
0.00116175
0.00116174
0.00118974
0.00115973
0.00118767
0.00118771
0.00116182
0.00116197
0.00118778
0.00116175
0.00116175
0.00118959
0.00115998
0.00118767
0.00116202
0.00116188
0.00115983
0.00115514
0.00112556
0.0011532
0.00115315
0.00112762
0.00112752
0.00115507
0.00112552
0.00115327
0.00115336
0.00112761
0.00112745
0.00115319
0.00112753
0.00112759
0.00115533
0.00112539
0.00115334
0.00112744
0.00112755
0.00112552
0.00112085
0.00109079
0.00111896
0.00111891
0.00109288
0.00109291
0.00112083
0.00109083
0.00111894
0.00111878
0.00109285
0.00109285
0.00111896
0.0010929
0.00109287
0.00112068
0.00109077
0.00111885
0.00109282
0.00109283
0.00109078
0.00108613
0.00105669
0.00108427
0.00108433
0.00105868
0.00105874
0.00108617
0.00105673
0.00108424
0.0010843
0.00105864
0.00105875
0.00108428
0.00105871
0.00105865
0.00108612
0.00105678
0.00108427
0.00105878
0.00105869
0.00105669
0.00105205
0.00102219
0.00105011
0.00105016
0.00102417
0.00102412
0.00105208
0.00102214
0.0010501
0.00105021
0.00102424
0.00102419
0.00105006
0.00102416
0.00102417
0.00105216
0.00102216
0.00105011
0.00102416
0.00102419
0.00102218
0.00101751
0.000987951
0.00101558
0.00101552
0.000990002
0.000989985
0.00101747
0.000987966
0.00101562
0.00101554
0.000989972
0.00098993
0.00101561
0.000989993
0.000990054
0.00101748
0.000987944
0.0010156
0.000989961
0.000990042
0.000988017
0.000983282
0.00095341
0.000981423
0.000981418
0.000955454
0.000955465
0.000983295
0.000953412
0.000981383
0.00098138
0.000955441
0.000955462
0.000981461
0.00095545
0.000955453
0.000983286
0.000953413
0.000981455
0.000955463
0.00095546
0.000953407
0.000948724
0.000919616
0.00094684
0.00094685
0.000921517
0.00092152
0.00094872
0.000919611
0.000946833
0.000946852
0.000921527
0.000921535
0.000946832
0.00092152
0.000921494
0.000948726
0.000919607
0.000946837
0.000921508
0.000921483
0.000919581
0.000915099
0.000886056
0.000913194
0.000913192
0.00088808
0.000888074
0.000915091
0.000886065
0.000913204
0.000913207
0.000888079
0.000888069
0.000913168
0.000888079
0.000888063
0.000915089
0.000886049
0.000913153
0.000888064
0.00088805
0.000886053
0.000881335
0.000850909
0.000879471
0.000879473
0.000853073
0.000853086
0.000881349
0.00085092
0.000879465
0.000879453
0.000853072
0.000853067
0.000879472
0.000853087
0.000853094
0.000881331
0.000850913
0.000879464
0.000853076
0.0008531
0.000850928
0.000846129
0.000815642
0.00084428
0.000844291
0.000817753
0.000817754
0.000846136
0.000815637
0.000844282
0.00084428
0.000817756
0.00081776
0.000844296
0.000817751
0.000817758
0.000846134
0.000815649
0.000844306
0.000817759
0.000817765
0.000815643
0.000810824
0.000780887
0.000808846
0.000808843
0.000782617
0.000782605
0.000810817
0.000780878
0.000808849
0.000808854
0.000782612
0.000782619
0.000808847
0.000782601
0.000782604
0.000810831
0.000780891
0.000808852
0.00078262
0.000782605
0.000780877
0.000776217
0.000746722
0.00077404
0.00077403
0.000748511
0.000748503
0.000776206
0.000746713
0.00077404
0.000774045
0.000748516
0.00074852
0.000774027
0.000748504
0.000748507
0.00077622
0.000746722
0.000774028
0.000748507
0.0007485
0.000746712
0.000742128
0.000712941
0.000740065
0.000740058
0.000715028
0.000715026
0.000742117
0.000712935
0.000740072
0.000740073
0.000715042
0.000715038
0.00074006
0.000715028
0.000715025
0.000742129
0.000712943
0.000740059
0.000715035
0.000715032
0.000712937
0.000708418
0.000680584
0.000706761
0.000706761
0.000682624
0.000682626
0.000708413
0.000680583
0.000706767
0.000706765
0.000682628
0.000682628
0.000706759
0.000682626
0.000682624
0.00070842
0.000680587
0.000706764
0.000682629
0.000682629
0.000680584
0.000676302
0.000648212
0.000674736
0.000674738
0.000650367
0.000650366
0.0006763
0.000648209
0.000674739
0.00067474
0.000650369
0.000650371
0.000674736
0.000650364
0.000650365
0.000676305
0.000648213
0.000674741
0.00065037
0.000650367
0.000648208
0.000643541
0.000612203
0.000641809
0.000641807
0.000614541
0.00061454
0.000643538
0.000612203
0.00064181
0.000641813
0.000614541
0.000614543
0.000641807
0.00061454
0.000614538
0.000643544
0.000612206
0.000641809
0.000614545
0.000614541
0.000612201
0.000606949
0.000573063
0.000604938
0.000604936
0.000575103
0.0005751
0.000606946
0.000573057
0.000604939
0.00060494
0.000575104
0.000575105
0.000604936
0.0005751
0.000575102
0.000606951
0.000573063
0.000604937
0.000575105
0.000575102
0.000573057
0.000567695
0.000533732
0.000565181
0.000565178
0.000535601
0.000535601
0.000567691
0.000533732
0.000565181
0.000565182
0.0005356
0.000535601
0.000565181
0.000535601
0.000535603
0.000567695
0.000533731
0.00056518
0.0005356
0.000535601
0.000533733
0.000528401
0.000495348
0.000525822
0.000525822
0.00049727
0.000497271
0.000528401
0.000495349
0.000525821
0.000525821
0.00049727
0.000497269
0.000525823
0.00049727
0.000497269
0.0005284
0.000495347
0.000525821
0.000497268
0.000497268
0.000495346
0.000490326
0.000459342
0.000488076
0.000488076
0.00046138
0.00046138
0.000490326
0.000459342
0.000488076
0.000488074
0.000461379
0.000461373
0.000488074
0.000461378
0.000461368
0.000490324
0.000459336
0.000488074
0.000461372
0.000461371
0.000459332
0.000454668
0.000426253
0.000452817
0.000452817
0.000428166
0.000428163
0.000454667
0.000426253
0.000452816
0.000452805
0.000428164
0.000428163
0.000452798
0.000428166
0.000428164
0.00045466
0.000426251
0.000452801
0.000428163
0.000428162
0.000426251
0.000422101
0.000396739
0.000420491
0.00042049
0.000398486
0.000398487
0.0004221
0.00039674
0.000420491
0.00042049
0.000398486
0.000398487
0.000420489
0.000398486
0.000398487
0.0004221
0.000396739
0.00042049
0.000398486
0.000398486
0.000396739
0.000392742
0.000366069
0.000391123
0.000391124
0.000367946
0.000367946
0.000392742
0.000366069
0.000391123
0.000391122
0.000367946
0.000367947
0.000391123
0.000367946
0.000367947
0.000392741
0.000366068
0.000391122
0.000367947
0.000367946
0.000366069
0.000361632
0.00033242
0.000359818
0.000359818
0.000334419
0.000334419
0.000361631
0.00033242
0.000359817
0.000359818
0.000334419
0.000334419
0.000359818
0.000334419
0.000334419
0.000361632
0.00033242
0.000359818
0.000334419
0.000334419
0.00033242
0.000327672
0.000297009
0.000325699
0.000325699
0.00029906
0.00029906
0.000327671
0.000297009
0.000325699
0.000325699
0.00029906
0.00029906
0.000325699
0.00029906
0.00029906
0.000327672
0.000297008
0.000325699
0.00029906
0.00029906
0.000297008
0.000292122
0.000260839
0.000290073
0.000290073
0.000262912
0.000262912
0.000292121
0.000260839
0.000290073
0.000290073
0.000262912
0.000262912
0.000290073
0.000262911
0.000262912
0.000292122
0.000260838
0.000290073
0.000262912
0.000262912
0.000260838
0.000255895
0.000224368
0.000253816
0.000253816
0.000226447
0.000226447
0.000255895
0.000224368
0.000253816
0.000253816
0.000226447
0.000226447
0.000253816
0.000226447
0.000226448
0.000255896
0.000224368
0.000253816
0.000226447
0.000226447
0.000224368
0.000219403
0.000187798
0.000217313
0.000217313
0.000189879
0.000189879
0.000219402
0.000187799
0.000217313
0.000217313
0.000189879
0.000189879
0.000217313
0.000189879
0.00018988
0.000219403
0.000187798
0.000217313
0.000189879
0.00018988
0.000187799
0.000182825
0.0001512
0.000180736
0.000180736
0.00015328
0.000153279
0.000182825
0.000151201
0.000180736
0.000180736
0.00015328
0.00015328
0.000180736
0.00015328
0.00015328
0.000182825
0.0001512
0.000180737
0.000153279
0.00015328
0.0001512
0.000146214
0.000114584
0.000144132
0.000144132
0.00011666
0.00011666
0.000146214
0.000114585
0.000144131
0.000144131
0.000116659
0.000116659
0.000144132
0.00011666
0.00011666
0.000146214
0.000114584
0.000144132
0.000116659
0.00011666
0.000114584
0.00010958
7.79667e-05
0.000107513
0.000107513
8.00372e-05
8.00373e-05
0.00010958
7.7968e-05
0.000107513
0.000107513
8.00366e-05
8.00364e-05
0.000107513
8.00375e-05
8.00368e-05
0.00010958
7.79659e-05
0.000107513
8.00366e-05
8.00369e-05
7.79665e-05
7.29254e-05
4.13811e-05
7.08917e-05
7.08917e-05
4.34493e-05
4.34504e-05
7.29256e-05
4.13829e-05
7.08906e-05
7.08902e-05
4.34475e-05
4.34467e-05
7.08912e-05
4.34491e-05
4.3447e-05
7.2925e-05
4.13786e-05
7.08909e-05
4.34462e-05
4.34455e-05
4.13789e-05
3.6367e-05
8.68095e-06
3.44822e-05
3.44829e-05
1.16943e-05
1.1694e-05
3.63678e-05
8.68128e-06
3.44807e-05
3.44787e-05
1.16953e-05
1.16888e-05
3.44785e-05
1.16944e-05
1.16875e-05
3.63642e-05
8.67744e-06
3.44776e-05
1.16922e-05
1.16926e-05
8.67654e-06
5.43887e-06
7.1638e-06
7.16371e-06
5.44007e-06
7.16422e-06
7.16013e-06
6.24668e-06
6.24627e-06
6.24545e-06
7.15946e-06
5.43756e-06
7.16306e-06
0.00353321
0.00353578
0.00353458
0.00353456
0.00356211
0.00353576
0.00356528
0.00353595
0.00356207
0.00353582
0.00353594
0.00356535
0.00354665
0.00356837
0.00356842
0.00350567
0.00351917
0.00352288
0.0034979
0.00349617
0.00350129
0.00350582
0.00351934
0.00352325
0.00349788
0.00352166
0.00352168
0.00352165
0.0034951
0.00349511
0.00349508
0.00349513
0.00350535
0.00351709
0.00352223
0.00351283
0.00352435
0.00350237
0.00351319
0.0034958
0.00350135
0.00350536
0.00352223
0.00351704
0.00351295
0.00352432
0.00351323
0.00350248
0.00352312
0.00352314
0.0035102
0.0035023
0.00350238
0.00347819
0.00349218
0.00349212
0.00347611
0.00348955
0.00347513
0.00347816
0.00349232
0.00349224
0.00347617
0.00348602
0.00348596
0.00348604
0.00345779
0.00345782
0.00345774
0.00345785
0.00347591
0.00349092
0.00348444
0.00347522
0.00348926
0.00347637
0.00347514
0.00348936
0.00347493
0.00347595
0.00348443
0.00349087
0.00347535
0.00348926
0.00347517
0.0034763
0.00349252
0.00349254
0.0034736
0.00347674
0.00347676
0.00343572
0.00345043
0.00345141
0.00343418
0.00344929
0.0034333
0.00343556
0.00345041
0.00345144
0.00343432
0.00344774
0.00344768
0.00344778
0.00341511
0.00341511
0.00341508
0.00341512
0.00343442
0.00345003
0.00344579
0.00343544
0.0034489
0.00343477
0.00343535
0.00344902
0.0034334
0.00343442
0.00344579
0.00344992
0.00343543
0.00344889
0.00343534
0.00343472
0.00345062
0.00345064
0.00343267
0.00343467
0.00343467
0.00338902
0.00340553
0.00340724
0.00338762
0.00340496
0.00338713
0.00338896
0.00340561
0.00340712
0.00338762
0.00340348
0.00340348
0.0034035
0.00336733
0.00336735
0.00336729
0.00336738
0.00338832
0.00340546
0.00340181
0.00339004
0.00340489
0.00338837
0.00338999
0.00340484
0.00338726
0.0033883
0.00340182
0.00340549
0.00338999
0.00340492
0.00338993
0.0033884
0.00340573
0.00340576
0.00338671
0.00338787
0.00338785
0.00333999
0.0033567
0.00335836
0.00333867
0.00335671
0.00333847
0.00333988
0.00335705
0.00335832
0.00333874
0.00335511
0.00335506
0.00335513
0.00331847
0.00331843
0.00331846
0.00331843
0.00333963
0.00335719
0.00335365
0.00334148
0.00335686
0.0033395
0.00334145
0.0033563
0.00333883
0.00333962
0.00335358
0.00335711
0.00334148
0.00335677
0.00334143
0.00333945
0.00335726
0.00335725
0.00333807
0.00333893
0.00333894
0.00329109
0.00330853
0.0033092
0.00329013
0.00330796
0.00328991
0.00329101
0.00330823
0.00330919
0.00329014
0.0033063
0.00330631
0.0033063
0.00327025
0.00327021
0.00327024
0.00327021
0.00329095
0.00330824
0.00330495
0.00329281
0.00330802
0.00329073
0.00329288
0.00330803