/*--------------------------------*- C++ -*----------------------------------*\
| =========                 |                                                 |
| \\      /  F ield         | OpenFOAM: The Open Source CFD Toolbox           |
|  \\    /   O peration     | Version:  v2012                                 |
|   \\  /    A nd           | Website:  www.openfoam.com                      |
|    \\/     M anipulation  |                                                 |
\*---------------------------------------------------------------------------*/
FoamFile
{
    version     2.0;
    format      ascii;
    class       volScalarField;
    location    "350";
    object      epsilon;
}
// * * * * * * * * * * * * * * * * * * * * * * * * * * * * * * * * * * * * * //

dimensions      [0 2 -3 0 0 0 0];


internalField   nonuniform List<scalar> 
85864
(
3.23701e-07
8.68951e-07
1.15404e-06
8.68997e-07
8.68897e-07
8.69087e-07
1.15404e-06
9.16261e-06
9.1646e-06
4.09575e-06
3.23745e-07
1.84302e-05
3.4775e-06
1.84279e-05
1.84301e-05
5.46384e-06
5.46598e-06
3.4771e-06
3.47791e-06
5.64187e-07
2.10967e-06
9.1639e-06
4.09563e-06
5.64224e-07
3.47807e-06
2.10963e-06
5.46594e-06
5.464e-06
1.84286e-05
9.1636e-06
9.16516e-06
7.09003e-06
2.20592e-05
2.20659e-05
9.16708e-06
7.09152e-06
7.09116e-06
2.20593e-05
1.22105e-05
4.09565e-06
4.74778e-06
1.08315e-05
4.74782e-06
1.08336e-05
1.2208e-05
1.84352e-05
1.84328e-05
1.84351e-05
4.54131e-06
2.81341e-06
5.46435e-06
9.50141e-06
9.50441e-06
2.81442e-06
4.54124e-06
4.54742e-06
2.81486e-06
5.46605e-06
9.5063e-06
9.5093e-06
2.81541e-06
4.54724e-06
9.73776e-06
2.17291e-05
2.17284e-05
2.17354e-05
2.17347e-05
9.73814e-06
2.2066e-05
9.16642e-06
7.09018e-06
7.08968e-06
2.20591e-05
1.22106e-05
4.09556e-06
1.08313e-05
4.74754e-06
1.08334e-05
4.74762e-06
1.22079e-05
4.54766e-06
2.81465e-06
5.46603e-06
9.5059e-06
9.5089e-06
2.81565e-06
4.54739e-06
4.54166e-06
2.81377e-06
5.46442e-06
9.50127e-06
2.81431e-06
9.50438e-06
4.54141e-06
9.73827e-06
2.17287e-05
2.17291e-05
2.17351e-05
2.17354e-05
9.73864e-06
1.84336e-05
9.16614e-06
1.68747e-07
2.67168e-06
1.77159e-06
1.77181e-06
1.15346e-06
1.77211e-06
1.77229e-06
2.67063e-06
2.67178e-06
1.77178e-06
1.77165e-06
1.15361e-06
1.77216e-06
1.77232e-06
2.67071e-06
1.68808e-07
1.62088e-06
2.03597e-06
3.47743e-06
2.86276e-06
2.03591e-06
2.86295e-06
1.62267e-06
1.62066e-06
2.03613e-06
3.47771e-06
2.86269e-06
2.86289e-06
2.03584e-06
1.6226e-06
1.62192e-06
2.03601e-06
3.47838e-06
2.86306e-06
2.86377e-06
2.03662e-06
1.62146e-06
1.42121e-06
2.11061e-06
2.36856e-06
1.28409e-06
2.36939e-06
1.28479e-06
1.42119e-06
1.62076e-06
2.03625e-06
3.47802e-06
2.86285e-06
2.86303e-06
2.0361e-06
1.62274e-06
1.41963e-06
2.11053e-06
1.28513e-06
2.36836e-06
1.28384e-06
2.36915e-06
1.42224e-06
8.68827e-07
1.15399e-06
3.39729e-07
8.92268e-07
8.9238e-07
1.1734e-06
3.56003e-07
9.14712e-07
9.1482e-07
1.19182e-06
3.72441e-07
9.3615e-07
9.36249e-07
1.20933e-06
3.88962e-07
9.56568e-07
9.56665e-07
1.22596e-06
4.05485e-07
9.75994e-07
9.76083e-07
1.24178e-06
4.21932e-07
9.94432e-07
9.94512e-07
1.25678e-06
4.38228e-07
1.01189e-06
1.01196e-06
1.27098e-06
4.54301e-07
1.02837e-06
1.02845e-06
1.28445e-06
4.70085e-07
1.04392e-06
1.04399e-06
1.29715e-06
4.85523e-07
1.05854e-06
1.05861e-06
1.30913e-06
5.00565e-07
1.07228e-06
1.07235e-06
1.32044e-06
5.15166e-07
1.08515e-06
1.08523e-06
1.3311e-06
5.29288e-07
1.09719e-06
1.09729e-06
1.34113e-06
5.42901e-07
1.10844e-06
1.10855e-06
1.35061e-06
5.55985e-07
1.11895e-06
1.11906e-06
1.35948e-06
5.68522e-07
1.12876e-06
1.12887e-06
1.36784e-06
5.80509e-07
1.13791e-06
1.13802e-06
1.37571e-06
5.91949e-07
1.14646e-06
1.14655e-06
1.38318e-06
6.02849e-07
1.15445e-06
1.15451e-06
1.39023e-06
6.13223e-07
1.16193e-06
1.16194e-06
1.39691e-06
6.23083e-07
1.16894e-06
1.16891e-06
1.40324e-06
6.32442e-07
1.1755e-06
1.17543e-06
1.40927e-06
6.4131e-07
1.18166e-06
1.18156e-06
1.41503e-06
6.49686e-07
1.18742e-06
1.18731e-06
1.42051e-06
6.57558e-07
1.19277e-06
1.19267e-06
1.42569e-06
6.64901e-07
1.19768e-06
1.19764e-06
1.43045e-06
6.71681e-07
1.20214e-06
1.20215e-06
1.4348e-06
6.77865e-07
1.20611e-06
1.20617e-06
1.43874e-06
6.83418e-07
1.20954e-06
1.20963e-06
1.4422e-06
6.88315e-07
1.21239e-06
1.21251e-06
1.44513e-06
6.92548e-07
1.21468e-06
1.21479e-06
1.44753e-06
6.96133e-07
1.2164e-06
1.21647e-06
1.44941e-06
6.991e-07
1.21756e-06
1.21763e-06
1.45076e-06
7.015e-07
1.21826e-06
1.21833e-06
1.45176e-06
7.03404e-07
1.21859e-06
1.21865e-06
1.45262e-06
7.04893e-07
1.21864e-06
1.21868e-06
1.45266e-06
7.06052e-07
1.21855e-06
1.21859e-06
1.45312e-06
7.06962e-07
1.21839e-06
1.21842e-06
1.4528e-06
7.07688e-07
1.2182e-06
1.21823e-06
1.45281e-06
7.08296e-07
1.21807e-06
1.21812e-06
1.45313e-06
7.0882e-07
1.21803e-06
1.21812e-06
1.45304e-06
7.09279e-07
1.21808e-06
1.21821e-06
1.45329e-06
7.09658e-07
1.21817e-06
1.21835e-06
1.45359e-06
7.09947e-07
1.21825e-06
1.21848e-06
1.45354e-06
7.10139e-07
1.21828e-06
1.21858e-06
1.45353e-06
7.09978e-07
1.21794e-06
1.21827e-06
1.45322e-06
6.91968e-07
1.16107e-06
1.16132e-06
1.41303e-06
1.16803e-06
8.68998e-07
8.86646e-07
8.86663e-07
1.15417e-06
1.16774e-06
8.86544e-07
8.86742e-07
8.69097e-07
8.86498e-07
8.8675e-07
1.16811e-06
8.68968e-07
8.86615e-07
8.8663e-07
1.16819e-06
1.17331e-06
1.18661e-06
8.92409e-07
8.92428e-07
9.09325e-07
9.09351e-07
1.17346e-06
1.18636e-06
8.92314e-07
8.92508e-07
9.09225e-07
9.09424e-07
8.92519e-07
9.09195e-07
9.09439e-07
1.17336e-06
1.18667e-06
8.92398e-07
9.09305e-07
9.09319e-07
1.18677e-06
1.19175e-06
1.20432e-06
9.14838e-07
9.14867e-07
9.31001e-07
9.31032e-07
1.19184e-06
1.20408e-06
9.14745e-07
9.14939e-07
9.30903e-07
9.31102e-07
9.14955e-07
9.30886e-07
9.31115e-07
1.19177e-06
1.20435e-06
9.14838e-07
9.30989e-07
9.31003e-07
1.20445e-06
1.20924e-06
1.22115e-06
9.36262e-07
9.36295e-07
9.51668e-07
9.51704e-07
1.20932e-06
1.22105e-06
9.3617e-07
9.36363e-07
9.51569e-07
9.51762e-07
9.36379e-07
9.51561e-07
9.51778e-07
1.2093e-06
1.22114e-06
9.36268e-07
9.51659e-07
9.51671e-07
1.22124e-06
1.22588e-06
1.23708e-06
9.56675e-07
9.56714e-07
9.7133e-07
9.71373e-07
1.22586e-06
1.23702e-06
9.56583e-07
9.56771e-07
9.71231e-07
9.71421e-07
9.56791e-07
9.71231e-07
9.7144e-07
1.22594e-06
1.23712e-06
9.56684e-07
9.71323e-07
9.71335e-07
1.23724e-06
1.2417e-06
1.25221e-06
9.76091e-07
9.76138e-07
9.90005e-07
9.90059e-07
1.24173e-06
1.25224e-06
9.75998e-07
9.76183e-07
9.89907e-07
9.90091e-07
9.76205e-07
9.89916e-07
9.90111e-07
1.24177e-06
1.25218e-06
9.76102e-07
9.89998e-07
9.90009e-07
1.25241e-06
1.25672e-06
1.26652e-06
9.9452e-07
9.94577e-07
1.0077e-06
1.00776e-06
1.25669e-06
1.26652e-06
9.94428e-07
9.94607e-07
1.0076e-06
1.00778e-06
9.94632e-07
1.00761e-06
1.0078e-06
1.25681e-06
1.26653e-06
9.94531e-07
1.00769e-06
1.0077e-06
1.26672e-06
1.27095e-06
1.2801e-06
1.01197e-06
1.01203e-06
1.02442e-06
1.02448e-06
1.27098e-06
1.2801e-06
1.01187e-06
1.01205e-06
1.02432e-06
1.0245e-06
1.01208e-06
1.02434e-06
1.02452e-06
1.27106e-06
1.28014e-06
1.01198e-06
1.02441e-06
1.02441e-06
1.28027e-06
1.2844e-06
1.2929e-06
1.02845e-06
1.02852e-06
1.04019e-06
1.04025e-06
1.28443e-06
1.29293e-06
1.02836e-06
1.02853e-06
1.04009e-06
1.04027e-06
1.02856e-06
1.04011e-06
1.04028e-06
1.28449e-06
1.29308e-06
1.02845e-06
1.04019e-06
1.04018e-06
1.29306e-06
1.29717e-06
1.30508e-06
1.04399e-06
1.04406e-06
1.05503e-06
1.0551e-06
1.29711e-06
1.3051e-06
1.0439e-06
1.04407e-06
1.05494e-06
1.05511e-06
1.04409e-06
1.05497e-06
1.05513e-06
1.29714e-06
1.30518e-06
1.04399e-06
1.05504e-06
1.05503e-06
1.30521e-06
1.30916e-06
1.31655e-06
1.05861e-06
1.05868e-06
1.06898e-06
1.06904e-06
1.30909e-06
1.31652e-06
1.05852e-06
1.05869e-06
1.06889e-06
1.06906e-06
1.05871e-06
1.06892e-06
1.06907e-06
1.30911e-06
1.31663e-06
1.05861e-06
1.06899e-06
1.06898e-06
1.31668e-06
1.32044e-06
1.32738e-06
1.07234e-06
1.0724e-06
1.08206e-06
1.08212e-06
1.32038e-06
1.3273e-06
1.07226e-06
1.07242e-06
1.08197e-06
1.08214e-06
1.07244e-06
1.08199e-06
1.08215e-06
1.32045e-06
1.3274e-06
1.07234e-06
1.08207e-06
1.08206e-06
1.32746e-06
1.33104e-06
1.33753e-06
1.08521e-06
1.08526e-06
1.09431e-06
1.09435e-06
1.33102e-06
1.33743e-06
1.08513e-06
1.08529e-06
1.09422e-06
1.09439e-06
1.0853e-06
1.09423e-06
1.09439e-06
1.33114e-06
1.33756e-06
1.08521e-06
1.09433e-06
1.09431e-06
1.3376e-06
1.34105e-06
1.34708e-06
1.09725e-06
1.0973e-06
1.10574e-06
1.10579e-06
1.34104e-06
1.34699e-06
1.09717e-06
1.09734e-06
1.10566e-06
1.10583e-06
1.09735e-06
1.10567e-06
1.10584e-06
1.34118e-06
1.34711e-06
1.09726e-06
1.10578e-06
1.10575e-06
1.34713e-06
1.35048e-06
1.35601e-06
1.1085e-06
1.10855e-06
1.11641e-06
1.11646e-06
1.35048e-06
1.35602e-06
1.10842e-06
1.10859e-06
1.11633e-06
1.11652e-06
1.1086e-06
1.11635e-06
1.11652e-06
1.35061e-06
1.35611e-06
1.10852e-06
1.11646e-06
1.11645e-06
1.35617e-06
1.35939e-06
1.36448e-06
1.11899e-06
1.11904e-06
1.12637e-06
1.12643e-06
1.35934e-06
1.3645e-06
1.11891e-06
1.1191e-06
1.12628e-06
1.12648e-06
1.11911e-06
1.12632e-06
1.12649e-06
1.35949e-06
1.36457e-06
1.11903e-06
1.12643e-06
1.12642e-06
1.36463e-06
1.36774e-06
1.37248e-06
1.12878e-06
1.12884e-06
1.13565e-06
1.13573e-06
1.36772e-06
1.37247e-06
1.1287e-06
1.12889e-06
1.13556e-06
1.13577e-06
1.1289e-06
1.13562e-06
1.13578e-06
1.36785e-06
1.37255e-06
1.12884e-06
1.13573e-06
1.13572e-06
1.3726e-06
1.37559e-06
1.37999e-06
1.1379e-06
1.13799e-06
1.1443e-06
1.1444e-06
1.37565e-06
1.38005e-06
1.13782e-06
1.13802e-06
1.14421e-06
1.14443e-06
1.13804e-06
1.1443e-06
1.14444e-06
1.37572e-06
1.38008e-06
1.13798e-06
1.14439e-06
1.14439e-06
1.38011e-06
1.38303e-06
1.38709e-06
1.14641e-06
1.14652e-06
1.15238e-06
1.15251e-06
1.38312e-06
1.38721e-06
1.14632e-06
1.14654e-06
1.15228e-06
1.15251e-06
1.14656e-06
1.15241e-06
1.15253e-06
1.38316e-06
1.38718e-06
1.14651e-06
1.15247e-06
1.15249e-06
1.38727e-06
1.39005e-06
1.39382e-06
1.15436e-06
1.1545e-06
1.15993e-06
1.1601e-06
1.3902e-06
1.39398e-06
1.15426e-06
1.15449e-06
1.15982e-06
1.16005e-06
1.15452e-06
1.16e-06
1.16009e-06
1.39019e-06
1.39391e-06
1.15447e-06
1.16002e-06
1.16005e-06
1.39402e-06
1.39671e-06
1.40022e-06
1.16179e-06
1.16196e-06
1.16701e-06
1.1672e-06
1.3969e-06
1.4004e-06
1.16168e-06
1.16191e-06
1.16688e-06
1.16711e-06
1.16196e-06
1.1671e-06
1.16717e-06
1.39684e-06
1.4003e-06
1.16192e-06
1.16708e-06
1.16713e-06
1.40042e-06
1.40306e-06
1.40636e-06
1.16876e-06
1.16896e-06
1.17365e-06
1.17386e-06
1.40327e-06
1.40651e-06
1.16864e-06
1.16885e-06
1.17352e-06
1.17373e-06
1.16892e-06
1.17376e-06
1.17381e-06
1.40317e-06
1.4064e-06
1.16888e-06
1.17369e-06
1.17375e-06
1.40651e-06
1.40916e-06
1.4122e-06
1.1753e-06
1.17551e-06
1.1799e-06
1.18011e-06
1.40933e-06
1.41236e-06
1.17517e-06
1.17537e-06
1.17977e-06
1.17995e-06
1.17546e-06
1.18e-06
1.18004e-06
1.40921e-06
1.41223e-06
1.1754e-06
1.1799e-06
1.17997e-06
1.41232e-06
1.41496e-06
1.41776e-06
1.18146e-06
1.18166e-06
1.18577e-06
1.18596e-06
1.41509e-06
1.41786e-06
1.18133e-06
1.1815e-06
1.18564e-06
1.1858e-06
1.1816e-06
1.18585e-06
1.18589e-06
1.41496e-06
1.41776e-06
1.18152e-06
1.18574e-06
1.18578e-06
1.41782e-06
1.42048e-06
1.42304e-06
1.18724e-06
1.18741e-06
1.19126e-06
1.1914e-06
1.42053e-06
1.42301e-06
1.18711e-06
1.18726e-06
1.19114e-06
1.19128e-06
1.18735e-06
1.19129e-06
1.19135e-06
1.42046e-06
1.42299e-06
1.18724e-06
1.19119e-06
1.19122e-06
1.42304e-06
1.42564e-06
1.42793e-06
1.19263e-06
1.19276e-06
1.19635e-06
1.19644e-06
1.42566e-06
1.42785e-06
1.19251e-06
1.19264e-06
1.19623e-06
1.19636e-06
1.19272e-06
1.19632e-06
1.19641e-06
1.42566e-06
1.42791e-06
1.19258e-06
1.19626e-06
1.19626e-06
1.42793e-06
1.43047e-06
1.43238e-06
1.1976e-06
1.19768e-06
1.20097e-06
1.20102e-06
1.43044e-06
1.43231e-06
1.19749e-06
1.19762e-06
1.20088e-06
1.20101e-06
1.19766e-06
1.20089e-06
1.20102e-06
1.43049e-06
1.43238e-06
1.19751e-06
1.20088e-06
1.20085e-06
1.43235e-06
1.43485e-06
1.43642e-06
1.2021e-06
1.20215e-06
1.2051e-06
1.20511e-06
1.4348e-06
1.43629e-06
1.20202e-06
1.20215e-06
1.20504e-06
1.20518e-06
1.20215e-06
1.20499e-06
1.20513e-06
1.43486e-06
1.43644e-06
1.20198e-06
1.20503e-06
1.20497e-06
1.43637e-06
1.43881e-06
1.43998e-06
1.2061e-06
1.20611e-06
1.20869e-06
1.20868e-06
1.43867e-06
1.43981e-06
1.20605e-06
1.2062e-06
1.20866e-06
1.20882e-06
1.20614e-06
1.20856e-06
1.20872e-06
1.43883e-06
1.44e-06
1.20597e-06
1.20865e-06
1.20855e-06
1.43993e-06
1.44227e-06
1.44299e-06
1.20955e-06
1.20954e-06
1.2117e-06
1.21167e-06
1.4421e-06
1.44282e-06
1.20953e-06
1.20969e-06
1.21169e-06
1.21185e-06
1.20959e-06
1.21157e-06
1.21173e-06
1.4423e-06
1.44303e-06
1.20942e-06
1.21168e-06
1.21157e-06
1.44295e-06
1.44518e-06
1.44547e-06
1.21242e-06
1.21239e-06
1.21413e-06
1.21409e-06
1.44502e-06
1.44532e-06
1.21241e-06
1.21258e-06
1.21412e-06
1.21429e-06
1.21246e-06
1.21402e-06
1.21418e-06
1.44522e-06
1.44551e-06
1.21231e-06
1.21413e-06
1.21403e-06
1.44545e-06
1.44756e-06
1.44739e-06
1.2147e-06
1.21467e-06
1.21599e-06
1.21595e-06
1.44743e-06
1.44728e-06
1.2147e-06
1.21487e-06
1.21597e-06
1.21613e-06
1.21477e-06
1.2159e-06
1.21606e-06
1.44759e-06
1.44746e-06
1.21462e-06
1.21599e-06
1.21591e-06
1.44744e-06
1.44944e-06
1.44871e-06
1.21642e-06
1.21639e-06
1.21731e-06
1.21729e-06
1.44934e-06
1.44893e-06
1.2164e-06
1.21656e-06
1.21727e-06
1.21743e-06
1.2165e-06
1.21723e-06
1.2174e-06
1.44942e-06
1.44878e-06
1.21635e-06
1.2173e-06
1.21724e-06
1.44903e-06
1.45098e-06
1.44966e-06
1.21759e-06
1.21758e-06
1.21813e-06
1.21815e-06
1.45066e-06
1.44992e-06
1.21755e-06
1.2177e-06
1.21808e-06
1.21824e-06
1.21769e-06
1.21806e-06
1.21825e-06
1.45095e-06
1.44975e-06
1.21752e-06
1.21812e-06
1.21807e-06
1.45005e-06
1.45193e-06
1.45064e-06
1.21829e-06
1.21832e-06
1.21857e-06
1.21862e-06
1.45161e-06
1.45059e-06
1.21823e-06
1.2184e-06
1.2185e-06
1.21868e-06
1.21841e-06
1.21851e-06
1.21869e-06
1.45197e-06
1.45043e-06
1.21823e-06
1.21856e-06
1.2185e-06
1.45039e-06
1.45229e-06
1.45105e-06
1.21864e-06
1.21869e-06
1.21872e-06
1.21877e-06
1.45224e-06
1.45065e-06
1.21856e-06
1.21874e-06
1.21863e-06
1.21882e-06
1.21875e-06
1.21863e-06
1.2188e-06
1.4526e-06
1.45109e-06
1.21856e-06
1.21867e-06
1.2186e-06
1.45102e-06
1.45268e-06
1.45128e-06
1.21873e-06
1.21878e-06
1.21867e-06
1.21872e-06
1.45288e-06
1.45092e-06
1.21863e-06
1.21883e-06
1.21856e-06
1.21876e-06
1.2188e-06
1.21857e-06
1.21871e-06
1.4527e-06
1.45131e-06
1.2186e-06
1.21861e-06
1.21852e-06
1.45095e-06
1.45289e-06
1.45138e-06
1.21867e-06
1.21872e-06
1.21855e-06
1.21859e-06
1.45307e-06
1.45101e-06
1.21855e-06
1.21876e-06
1.21842e-06
1.21862e-06
1.21869e-06
1.2184e-06
1.21851e-06
1.45291e-06
1.45106e-06
1.2185e-06
1.21844e-06
1.21834e-06
1.45127e-06
1.45299e-06
1.45147e-06
1.21853e-06
1.21857e-06
1.2184e-06
1.21842e-06
1.45315e-06
1.45109e-06
1.2184e-06
1.2186e-06
1.21825e-06
1.21843e-06
1.21847e-06
1.2182e-06
1.21828e-06
1.45327e-06
1.4514e-06
1.21831e-06
1.21823e-06
1.21811e-06
1.45128e-06
1.45308e-06
1.4516e-06
1.2184e-06
1.21842e-06
1.21829e-06
1.2183e-06
1.45322e-06
1.45118e-06
1.21826e-06
1.21842e-06
1.21815e-06
1.2183e-06
1.21825e-06
1.21806e-06
1.21812e-06
1.453e-06
1.45149e-06
1.21809e-06
1.2181e-06
1.21794e-06
1.45129e-06
1.45322e-06
1.45179e-06
1.21833e-06
1.21833e-06
1.21827e-06
1.21824e-06
1.45332e-06
1.45131e-06
1.21819e-06
1.21832e-06
1.21813e-06
1.21823e-06
1.21815e-06
1.21798e-06
1.21805e-06
1.4531e-06
1.45163e-06
1.21796e-06
1.21805e-06
1.21787e-06
1.45149e-06
1.45343e-06
1.45203e-06
1.21834e-06
1.2183e-06
1.21832e-06
1.21824e-06
1.45346e-06
1.45149e-06
1.2182e-06
1.2183e-06
1.21819e-06
1.21826e-06
1.21811e-06
1.21799e-06
1.21804e-06
1.45325e-06
1.45183e-06
1.21794e-06
1.21811e-06
1.21791e-06
1.45166e-06
1.45368e-06
1.45224e-06
1.21843e-06
1.21834e-06
1.21839e-06
1.21829e-06
1.45364e-06
1.45166e-06
1.21831e-06
1.21837e-06
1.2183e-06
1.21836e-06
1.21814e-06
1.21805e-06
1.21808e-06
1.45347e-06
1.45206e-06
1.21802e-06
1.21821e-06
1.218e-06
1.4519e-06
1.45388e-06
1.45233e-06
1.21853e-06
1.21842e-06
1.21843e-06
1.21833e-06
1.45381e-06
1.45176e-06
1.21844e-06
1.2185e-06
1.21838e-06
1.21844e-06
1.21821e-06
1.21809e-06
1.21812e-06
1.4537e-06
1.45219e-06
1.21814e-06
1.21831e-06
1.21808e-06
1.45193e-06
1.45397e-06
1.45234e-06
1.2186e-06
1.2185e-06
1.21845e-06
1.21834e-06
1.45388e-06
1.45174e-06
1.21855e-06
1.21862e-06
1.21839e-06
1.21846e-06
1.2183e-06
1.21809e-06
1.21814e-06
1.45384e-06
1.45191e-06
1.21826e-06
1.21837e-06
1.21813e-06
1.45189e-06
1.45394e-06
1.45204e-06
1.21866e-06
1.21856e-06
1.21805e-06
1.21796e-06
1.45388e-06
1.45143e-06
1.2186e-06
1.21867e-06
1.21798e-06
1.21806e-06
1.21835e-06
1.21767e-06
1.21774e-06
1.45412e-06
1.45164e-06
1.21835e-06
1.218e-06
1.21776e-06
1.45124e-06
1.45341e-06
1.43369e-06
1.21833e-06
1.21824e-06
1.19837e-06
1.19827e-06
1.45353e-06
1.43335e-06
1.21826e-06
1.21835e-06
1.19837e-06
1.19832e-06
1.21802e-06
1.19797e-06
1.19811e-06
1.45376e-06
1.4336e-06
1.21804e-06
1.19826e-06
1.19822e-06
1.4342e-06
1.41416e-06
1.16123e-06
1.16117e-06
1.41415e-06
1.16124e-06
1.16119e-06
6.91839e-07
6.91978e-07
6.91835e-07
1.16045e-06
1.41428e-06
1.16057e-06
4.09734e-06
9.16921e-06
4.0955e-06
1.84296e-05
1.84401e-05
4.09754e-06
9.17125e-06
3.23649e-07
3.23764e-07
3.35694e-07
3.35651e-07
3.35748e-07
3.35765e-07
2.11421e-06
3.47727e-06
5.64135e-07
8.74778e-07
3.48055e-06
5.70004e-07
2.10967e-06
1.84407e-05
2.11422e-06
5.6422e-07
8.74903e-07
5.70087e-07
3.48037e-06
2.10973e-06
5.464e-06
5.466e-06
1.15862e-06
5.46678e-06
5.46876e-06
4.10515e-06
9.1788e-06
4.10314e-06
9.18549e-06
1.84518e-05
1.84626e-05
4.10514e-06
9.18055e-06
4.10326e-06
9.18768e-06
3.39685e-07
3.39783e-07
3.39801e-07
3.51914e-07
3.51878e-07
3.51976e-07
3.51992e-07
2.12802e-06
3.4883e-06
5.87467e-07
8.97973e-07
2.12374e-06
3.49135e-06
5.93263e-07
1.84524e-05
1.84633e-05
2.12804e-06
5.87553e-07
3.48855e-06
8.98085e-07
2.12379e-06
5.93351e-07
3.49133e-06
5.47343e-06
5.47518e-06
1.1776e-06
5.47574e-06
5.47791e-06
4.11253e-06
9.19518e-06
4.11057e-06
9.20199e-06
1.84748e-05
1.8486e-05
4.11266e-06
9.19694e-06
4.11075e-06
9.20413e-06
3.55966e-07
3.56064e-07
3.56081e-07
3.68319e-07
3.68288e-07
3.68388e-07
3.68403e-07
2.14112e-06
3.49872e-06
6.10465e-07
9.20169e-07
2.13705e-06
3.50169e-06
6.16162e-07
1.84755e-05
1.84867e-05
2.14114e-06
6.10558e-07
3.49899e-06
9.20272e-07
2.13707e-06
6.16255e-07
3.50181e-06
5.48254e-06
5.48433e-06
1.19573e-06
5.48499e-06
5.48699e-06
4.11993e-06
9.21147e-06
4.118e-06
9.21871e-06
1.84986e-05
1.851e-05
4.12028e-06
9.21346e-06
4.11802e-06
9.22071e-06
3.72409e-07
3.72509e-07
3.72525e-07
3.84827e-07
3.848e-07
3.84901e-07
3.84915e-07
2.15353e-06
3.50893e-06
6.3303e-07
9.41351e-07
2.14967e-06
3.51154e-06
6.38604e-07
1.84993e-05
1.85108e-05
2.15353e-06
6.33125e-07
3.50882e-06
9.4145e-07
2.14969e-06
6.38698e-07
3.51183e-06
5.4915e-06
5.49328e-06
1.21297e-06
5.49382e-06
5.49602e-06
4.12714e-06
9.2281e-06
4.12514e-06
9.23536e-06
1.8523e-05
1.85347e-05
4.12737e-06
9.23013e-06
4.12503e-06
9.23735e-06
3.88934e-07
3.89035e-07
3.8905e-07
4.01356e-07
4.01334e-07
4.01435e-07
4.01449e-07
2.16526e-06
3.51873e-06
6.55068e-07
9.61518e-07
2.16162e-06
3.52101e-06
6.60497e-07
1.85237e-05
1.85354e-05
2.16524e-06
6.55165e-07
3.51862e-06
9.61613e-07
2.16162e-06
6.60592e-07
3.52132e-06
5.50043e-06
5.50212e-06
1.22938e-06
5.50282e-06
5.50479e-06
4.13415e-06
9.24479e-06
4.1323e-06
9.25207e-06
1.8548e-05
1.85598e-05
4.13422e-06
9.2471e-06
4.13246e-06
9.25396e-06
4.05462e-07
4.05563e-07
4.05576e-07
4.17828e-07
4.17812e-07
4.17912e-07
4.17925e-07
2.17636e-06
3.52792e-06
6.76499e-07
9.80696e-07
2.17294e-06
3.53049e-06
6.81763e-07
1.85486e-05
1.85605e-05
2.17631e-06
6.76595e-07
3.52792e-06
9.80783e-07
2.17294e-06
6.81859e-07
3.53043e-06
5.50917e-06
5.51078e-06
1.24494e-06
5.51122e-06
5.51347e-06
4.14098e-06
9.26152e-06
4.13919e-06
9.26881e-06
1.85734e-05
1.85854e-05
4.14111e-06
9.26381e-06
4.13932e-06
9.27069e-06
4.21915e-07
4.22013e-07
4.22026e-07
4.34168e-07
4.34158e-07
4.34255e-07
4.34269e-07
2.18682e-06
3.53677e-06
6.97249e-07
9.98887e-07
2.18359e-06
3.53929e-06
7.02329e-07
1.8574e-05
1.85861e-05
2.1868e-06
6.97343e-07
3.53705e-06
9.98966e-07
2.18363e-06
7.02426e-07
3.5393e-06
5.51771e-06
5.51945e-06
1.2597e-06
5.51996e-06
5.52201e-06
4.14766e-06
9.27826e-06
4.14605e-06
9.28553e-06
1.8599e-05
1.86111e-05
4.14786e-06
9.2803e-06
4.14613e-06
9.28751e-06
4.38217e-07
4.38313e-07
4.38324e-07
4.50301e-07
4.50297e-07
4.50392e-07
4.50406e-07
2.19669e-06
3.54535e-06
7.17251e-07
1.0161e-06
2.19372e-06
3.54775e-06
7.22139e-07
1.85998e-05
1.8612e-05
2.19669e-06
7.17349e-07
3.54558e-06
1.01617e-06
2.19373e-06
7.22237e-07
3.54763e-06
5.526e-06
5.52795e-06
1.27359e-06
5.52849e-06
5.53044e-06
4.15423e-06
9.29497e-06
4.15263e-06
9.30217e-06
1.86252e-05
1.86374e-05
4.1546e-06
9.29727e-06
4.15284e-06
9.30412e-06
4.54294e-07
4.54389e-07
4.54397e-07
4.66162e-07
4.66162e-07
4.66255e-07
4.6627e-07
2.20605e-06
3.55365e-06
7.36478e-07
1.03234e-06
2.20329e-06
3.55579e-06
7.41162e-07
1.8626e-05
1.86383e-05
2.20606e-06
7.36573e-07
3.55375e-06
1.03242e-06
2.20327e-06
7.41257e-07
3.55585e-06
5.53429e-06
5.5362e-06
1.28677e-06
5.53676e-06
5.53868e-06
4.16101e-06
9.31191e-06
4.15909e-06
9.31883e-06
1.86516e-05
1.86639e-05
4.16098e-06
9.314e-06
4.15925e-06
9.32089e-06
4.70083e-07
4.70176e-07
4.70183e-07
4.81688e-07
4.81693e-07
4.81785e-07
4.81799e-07
2.2149e-06
3.56167e-06
7.54884e-07
1.04765e-06
2.2123e-06
3.5637e-06
7.5935e-07
1.86525e-05
1.86649e-05
2.21492e-06
7.54975e-07
3.56176e-06
1.04773e-06
2.21228e-06
7.59444e-07
3.56378e-06
5.54255e-06
5.54443e-06
1.29924e-06
5.54488e-06
5.54679e-06
4.16736e-06
9.32843e-06
4.16548e-06
9.33562e-06
1.86784e-05
1.86908e-05
4.16761e-06
9.33047e-06
4.16561e-06
9.33765e-06
4.85524e-07
4.85615e-07
4.85622e-07
4.9683e-07
4.96838e-07
4.96928e-07
4.96942e-07
2.22327e-06
3.56932e-06
7.7243e-07
1.06205e-06
2.22086e-06
3.57122e-06
7.76673e-07
1.86792e-05
1.86917e-05
2.2233e-06
7.72514e-07
3.56939e-06
1.06212e-06
2.22081e-06
7.76758e-07
3.57119e-06
5.55058e-06
5.55243e-06
1.31104e-06
5.55286e-06
5.55483e-06
4.17366e-06
9.34534e-06
4.17176e-06
9.35225e-06
1.87053e-05
1.87179e-05
4.17384e-06
9.34739e-06
4.17185e-06
9.35417e-06
5.00568e-07
5.00658e-07
5.00664e-07
5.11541e-07
5.11551e-07
5.11642e-07
5.11654e-07
2.2312e-06
3.57663e-06
7.89093e-07
1.07556e-06
2.22893e-06
3.57843e-06
7.93108e-07
1.87062e-05
1.87188e-05
2.23122e-06
7.89174e-07
3.57673e-06
1.07564e-06
2.22888e-06
7.9319e-07
3.57858e-06
5.55842e-06
5.56034e-06
1.32215e-06
5.56064e-06
5.56269e-06
4.17979e-06
9.36179e-06
4.17797e-06
9.369e-06
1.87325e-05
1.87451e-05
4.18001e-06
9.36379e-06
4.17803e-06
9.37098e-06
5.15169e-07
5.15261e-07
5.15265e-07
5.25781e-07
5.25791e-07
5.25886e-07
5.25897e-07
2.23867e-06
3.58369e-06
8.04862e-07
1.08821e-06
2.23658e-06
3.58539e-06
8.08648e-07
1.87334e-05
1.87461e-05
2.23869e-06
8.04946e-07
3.58377e-06
1.0883e-06
2.23659e-06
8.08732e-07
3.58553e-06
5.56626e-06
5.5681e-06
1.33261e-06
5.5683e-06
5.5704e-06
4.1858e-06
9.37839e-06
4.18402e-06
9.38553e-06
1.87599e-05
1.87726e-05
4.18593e-06
9.38037e-06
4.18423e-06
9.38751e-06
5.29291e-07
5.29387e-07
5.29387e-07
5.39517e-07
5.39528e-07
5.39629e-07
5.39639e-07
2.24576e-06
3.59045e-06
8.19736e-07
1.10005e-06
2.2438e-06
3.59211e-06
8.23292e-07
1.87607e-05
1.87735e-05
2.2458e-06
8.19826e-07
3.59054e-06
1.10014e-06
2.24385e-06
8.23382e-07
3.59219e-06
5.57391e-06
5.57575e-06
1.34242e-06
5.57587e-06
5.57799e-06
4.19173e-06
9.39521e-06
4.18998e-06
9.40197e-06
1.87876e-05
1.88004e-05
4.19173e-06
9.39717e-06
4.19018e-06
9.40397e-06
5.42903e-07
5.43005e-07
5.43002e-07
5.52726e-07
5.52741e-07
5.52848e-07
5.52857e-07
2.25248e-06
3.59695e-06
8.33727e-07
1.1111e-06
2.25065e-06
3.5986e-06
8.37053e-07
1.87884e-05
1.88012e-05
2.25253e-06
8.33824e-07
3.59706e-06
1.11121e-06
2.25072e-06
8.37151e-07
3.59861e-06
5.58139e-06
5.58333e-06
1.35172e-06
5.58342e-06
5.58531e-06
4.19749e-06
9.41176e-06
4.19585e-06
9.41861e-06
1.88154e-05
1.88283e-05
4.19754e-06
9.41347e-06
4.19604e-06
9.42062e-06
5.55987e-07
5.56095e-07
5.5609e-07
5.65391e-07
5.65413e-07
5.65524e-07
5.65533e-07
2.25895e-06
3.60324e-06
8.46848e-07
1.12142e-06
2.25712e-06
3.60481e-06
8.49948e-07
1.88162e-05
1.88291e-05
2.25894e-06
8.46955e-07
3.60335e-06
1.12153e-06
2.25724e-06
8.50057e-07
3.60489e-06
5.5887e-06
5.5908e-06
1.36047e-06
5.59085e-06
5.59279e-06
4.20315e-06
9.42811e-06
4.20178e-06
9.43534e-06
1.88435e-05
1.88564e-05
4.20329e-06
9.43026e-06
4.20191e-06
9.43702e-06
5.68529e-07
5.6864e-07
5.68634e-07
5.77505e-07
5.77538e-07
5.7765e-07
5.77659e-07
2.26506e-06
3.60934e-06
8.59137e-07
1.13104e-06
2.26331e-06
3.61087e-06
8.6202e-07
1.88441e-05
1.88571e-05
2.26509e-06
8.59253e-07
3.60943e-06
1.13115e-06
2.26344e-06
8.62136e-07
3.61096e-06
5.59598e-06
5.59813e-06
1.36868e-06
5.59809e-06
5.59999e-06
4.20882e-06
9.44469e-06
4.20741e-06
9.45185e-06
1.88716e-05
1.88845e-05
4.20901e-06
9.44677e-06
4.20745e-06
9.45351e-06
5.80523e-07
5.80634e-07
5.80628e-07
5.89069e-07
5.89118e-07
5.89227e-07
5.89235e-07
2.27086e-06
3.61526e-06
8.70634e-07
1.14002e-06
2.26923e-06
3.61674e-06
8.73306e-07
1.88722e-05
1.88852e-05
2.27093e-06
8.70755e-07
3.61535e-06
1.14012e-06
2.26929e-06
8.73428e-07
3.6168e-06
5.60321e-06
5.60534e-06
1.37639e-06
5.60528e-06
5.60709e-06
4.21432e-06
9.46112e-06
4.21297e-06
9.46816e-06
1.88997e-05
1.89125e-05
4.21461e-06
9.46319e-06
4.21294e-06
9.46988e-06
5.91973e-07
5.92079e-07
5.92073e-07
6.00091e-07
6.00161e-07
6.0026e-07
6.0027e-07
2.27637e-06
3.621e-06
8.81374e-07
1.1484e-06
2.27484e-06
3.62244e-06
8.83843e-07
1.89003e-05
1.89132e-05
2.27641e-06
8.81499e-07
3.62106e-06
1.14848e-06
2.2749e-06
8.83969e-07
3.62244e-06
5.61033e-06
5.61247e-06
1.38374e-06
5.61235e-06
5.61422e-06
4.2197e-06
9.47755e-06
4.2184e-06
9.48416e-06
1.89275e-05
1.89402e-05
4.21994e-06
9.47945e-06
4.2183e-06
9.48608e-06
6.02888e-07
6.02983e-07
6.0298e-07
6.10583e-07
6.10677e-07
6.1076e-07
6.10775e-07
2.28155e-06
3.62657e-06
8.91397e-07
1.15624e-06
2.28019e-06
3.62791e-06
8.93671e-07
1.89282e-05
1.89411e-05
2.28155e-06
8.91518e-07
3.62659e-06
1.15628e-06
2.2802e-06
8.93792e-07
3.6279e-06
5.61743e-06
5.61947e-06
1.39069e-06
5.61938e-06
5.62136e-06
4.22502e-06
9.49354e-06
4.22374e-06
9.50002e-06
1.89549e-05
1.89673e-05
4.22515e-06
9.49522e-06
4.22362e-06
9.5021e-06
6.13278e-07
6.13356e-07
6.13358e-07
6.20558e-07
6.20678e-07
6.20739e-07
6.20762e-07
2.28645e-06
3.63215e-06
9.00747e-07
1.16357e-06
2.28534e-06
3.63326e-06
9.02836e-07
1.89558e-05
1.89684e-05
2.28647e-06
9.00851e-07
3.63197e-06
1.16358e-06
2.28517e-06
9.02937e-07
3.6332e-06
5.62438e-06
5.6264e-06
1.39726e-06
5.62634e-06
5.62828e-06
4.23023e-06
9.50917e-06
4.22895e-06
9.51546e-06
1.89817e-05
1.89938e-05
4.2304e-06
9.51114e-06
4.22886e-06
9.51748e-06
6.23155e-07
6.2321e-07
6.2322e-07
6.30031e-07
6.30175e-07
6.30208e-07
6.30239e-07
2.29123e-06
3.63746e-06
9.0946e-07
1.17044e-06
2.29018e-06
3.63852e-06
9.11375e-07
1.89829e-05
1.89952e-05
2.29105e-06
9.09539e-07
3.63722e-06
1.1704e-06
2.28996e-06
9.11449e-07
3.6384e-06
5.63128e-06
5.63327e-06
1.4035e-06
5.63321e-06
5.63514e-06
4.23526e-06
9.52434e-06
4.23396e-06
9.53042e-06
1.90077e-05
1.90194e-05
4.23536e-06
9.52646e-06
4.23417e-06
9.53268e-06
6.32528e-07
6.32556e-07
6.32573e-07
6.39014e-07
6.39172e-07
6.3918e-07
6.39215e-07
2.29583e-06
3.6425e-06
9.17576e-07
1.17688e-06
2.29469e-06
3.64369e-06
9.19325e-07
1.90092e-05
1.90212e-05
2.2956e-06
9.17619e-07
3.64239e-06
1.1768e-06
2.29436e-06
9.1936e-07
3.64353e-06
5.63811e-06
5.63999e-06
1.40945e-06
5.63998e-06
5.64184e-06
4.24015e-06
9.53867e-06
4.23883e-06
9.54478e-06
1.90327e-05
1.9044e-05
4.24031e-06
9.54117e-06
4.23914e-06
9.5471e-06
6.41401e-07
6.41405e-07
6.41425e-07
6.4751e-07
6.4767e-07
6.47661e-07
6.47693e-07
2.30014e-06
3.64752e-06
9.25124e-07
1.18292e-06
2.29898e-06
3.64868e-06
9.26717e-07
1.90346e-05
1.90461e-05
2.29987e-06
9.25125e-07
3.6475e-06
1.18281e-06
2.29874e-06
9.26709e-07
3.64857e-06
5.64481e-06
5.64662e-06
1.4151e-06
5.6466e-06
5.64836e-06
4.24495e-06
9.55256e-06
4.24368e-06
9.55831e-06
1.90566e-05
1.90674e-05
4.24525e-06
9.55488e-06
4.24409e-06
9.56068e-06
6.4977e-07
6.4976e-07
6.49776e-07
6.55511e-07
6.55658e-07
6.55644e-07
6.55667e-07
2.30428e-06
3.65239e-06
9.32124e-07
1.18856e-06
2.30318e-06
3.65349e-06
9.33566e-07
1.90587e-05
1.90695e-05
2.30408e-06
9.32087e-07
3.65229e-06
1.18845e-06
2.30316e-06
9.33523e-07
3.65344e-06
5.65128e-06
5.65306e-06
1.42046e-06
5.65295e-06
5.65473e-06
4.24961e-06
9.56565e-06
4.24862e-06
9.57111e-06
1.90793e-05
1.90895e-05
4.24986e-06
9.56814e-06
4.24874e-06
9.57325e-06
6.57623e-07
6.57613e-07
6.57617e-07
6.62995e-07
6.63115e-07
6.63113e-07
6.63117e-07
2.3082e-06
3.65703e-06
9.38571e-07
1.19379e-06
2.30717e-06
3.65804e-06
9.39864e-07
1.90812e-05
1.90914e-05
2.30808e-06
9.38517e-07
3.65701e-06
1.1937e-06
2.30723e-06
9.39809e-07
3.65812e-06
5.65744e-06
5.65924e-06
1.42552e-06
5.65899e-06
5.66079e-06
4.25407e-06
9.57798e-06
4.25313e-06
9.58285e-06
1.91006e-05
1.91103e-05
4.25446e-06
9.58021e-06
4.25337e-06
9.58506e-06
6.64938e-07
6.64943e-07
6.64928e-07
6.69929e-07
6.70012e-07
6.70038e-07
6.70016e-07
2.31188e-06
3.66143e-06
9.44458e-07
1.19859e-06
2.31094e-06
3.66238e-06
9.45608e-07
1.91021e-05
1.91117e-05
2.31174e-06
9.44404e-07
3.66153e-06
1.19855e-06
2.31099e-06
9.45555e-07
3.66253e-06
5.66324e-06
5.66508e-06
1.43018e-06
5.66468e-06
5.66651e-06
4.25814e-06
9.58917e-06
4.25718e-06
9.59351e-06
1.91205e-05
1.91296e-05
4.25852e-06
9.59142e-06
4.25741e-06
9.59592e-06
6.71686e-07
6.71722e-07
6.71679e-07
6.7628e-07
6.76319e-07
6.76386e-07
6.7633e-07
2.31506e-06
3.66561e-06
9.49776e-07
1.20293e-06
2.31438e-06
3.66646e-06
9.50783e-07
1.91215e-05
1.91304e-05
2.31488e-06
9.4973e-07
3.66569e-06
1.20295e-06
2.31422e-06
9.5074e-07
3.66657e-06
5.66871e-06
5.67053e-06
1.4344e-06
5.67001e-06
5.67186e-06
4.2619e-06
9.5995e-06
4.26105e-06
9.60362e-06
1.91389e-05
1.91473e-05
4.26224e-06
9.60156e-06
4.26132e-06
9.60586e-06
6.77836e-07
6.77915e-07
6.77838e-07
6.8201e-07
6.82006e-07
6.82121e-07
6.82028e-07
2.31802e-06
3.66945e-06
9.54497e-07
1.20677e-06
2.31744e-06
3.67016e-06
9.55358e-07
1.91394e-05
1.91478e-05
2.31783e-06
9.5447e-07
3.66945e-06
1.20684e-06
2.31726e-06
9.55336e-07
3.67019e-06
5.67377e-06
5.67561e-06
1.4382e-06
5.67492e-06
5.67678e-06
4.26517e-06
9.60873e-06
4.26449e-06
9.61252e-06
1.91557e-05
1.91635e-05
4.26545e-06
9.61109e-06
4.26468e-06
9.61467e-06