/*--------------------------------*- C++ -*----------------------------------*\
| =========                 |                                                 |
| \\      /  F ield         | OpenFOAM: The Open Source CFD Toolbox           |
|  \\    /   O peration     | Version:  v2012                                 |
|   \\  /    A nd           | Website:  www.openfoam.com                      |
|    \\/     M anipulation  |                                                 |
\*---------------------------------------------------------------------------*/
FoamFile
{
    version     2.0;
    format      ascii;
    class       volScalarField;
    location    "350";
    object      k;
}
// * * * * * * * * * * * * * * * * * * * * * * * * * * * * * * * * * * * * * //

dimensions      [0 2 -2 0 0 0 0];


internalField   nonuniform List<scalar> 
85864
(
2.1038e-05
3.669e-05
4.19303e-05
3.66909e-05
3.66894e-05
3.66912e-05
4.19514e-05
7.13599e-05
7.13653e-05
6.4731e-05
2.10388e-05
6.95335e-05
6.02142e-05
6.95333e-05
6.95355e-05
6.69221e-05
6.69324e-05
6.02136e-05
6.02193e-05
2.90776e-05
5.33388e-05
7.13599e-05
6.47288e-05
2.90777e-05
6.02161e-05
5.33361e-05
6.69268e-05
6.69222e-05
6.95331e-05
7.13606e-05
7.13755e-05
7.73966e-05
7.01959e-05
7.02122e-05
7.1381e-05
7.74165e-05
7.74374e-05
7.01981e-05
7.01561e-05
6.47726e-05
6.82247e-05
6.98504e-05
6.8261e-05
6.98632e-05
7.01436e-05
6.95462e-05
6.95459e-05
6.95481e-05
7.01202e-05
5.9369e-05
6.69392e-05
7.11427e-05
7.11608e-05
5.94212e-05
7.00993e-05
7.01715e-05
5.93794e-05
6.69503e-05
7.11529e-05
7.11711e-05
5.9431e-05
7.01488e-05
9.23857e-05
7.20346e-05
7.20281e-05
7.20486e-05
7.20421e-05
9.23738e-05
7.02093e-05
7.13753e-05
7.73949e-05
7.74147e-05
7.01946e-05
7.01526e-05
6.47698e-05
6.98495e-05
6.82164e-05
6.98623e-05
6.8252e-05
7.01416e-05
7.01707e-05
5.9379e-05
6.69417e-05
7.11509e-05
7.11691e-05
5.94264e-05
7.01496e-05
7.01215e-05
5.93712e-05
6.69393e-05
7.11421e-05
5.94224e-05
7.11602e-05
7.01004e-05
9.23866e-05
7.2028e-05
7.20343e-05
7.2042e-05
7.20483e-05
9.23781e-05
6.95457e-05
7.13764e-05
1.50347e-05
5.96546e-05
5.06098e-05
5.06137e-05
4.19556e-05
5.06425e-05
5.06465e-05
5.96227e-05
5.96538e-05
5.06171e-05
5.06166e-05
4.19431e-05
5.06443e-05
5.06439e-05
5.96229e-05
1.50371e-05
4.82237e-05
5.26149e-05
6.02621e-05
5.85484e-05
5.26456e-05
5.86062e-05
4.82104e-05
4.82406e-05
5.26081e-05
6.02608e-05
5.85476e-05
5.86059e-05
5.26522e-05
4.82024e-05
4.82437e-05
5.26133e-05
6.02665e-05
5.85559e-05
5.86143e-05
5.26553e-05
4.82063e-05
4.58953e-05
5.34175e-05
5.56431e-05
4.39311e-05
5.57162e-05
4.39787e-05
4.58745e-05
4.82371e-05
5.26108e-05
6.02585e-05
5.85459e-05
5.8604e-05
5.26513e-05
4.82006e-05
4.58715e-05
5.34152e-05
4.39287e-05
5.5638e-05
4.39755e-05
5.57084e-05
4.58713e-05
3.66873e-05
4.1952e-05
2.17961e-05
3.75935e-05
3.75955e-05
4.26755e-05
2.25725e-05
3.84735e-05
3.84752e-05
4.33753e-05
2.33635e-05
3.93261e-05
3.93278e-05
4.40461e-05
2.41649e-05
4.01508e-05
4.01524e-05
4.46903e-05
2.49731e-05
4.09474e-05
4.09488e-05
4.53192e-05
2.57842e-05
4.17153e-05
4.17164e-05
4.59224e-05
2.65948e-05
4.24545e-05
4.24555e-05
4.64865e-05
2.74014e-05
4.31646e-05
4.31657e-05
4.7042e-05
2.8201e-05
4.38463e-05
4.38476e-05
4.75739e-05
2.89907e-05
4.45e-05
4.45009e-05
4.80976e-05
2.97681e-05
4.51257e-05
4.51267e-05
4.85856e-05
3.05308e-05
4.57241e-05
4.57254e-05
4.90585e-05
3.12768e-05
4.62957e-05
4.62975e-05
4.95012e-05
3.20043e-05
4.68416e-05
4.68435e-05
4.99294e-05
3.27123e-05
4.73625e-05
4.73646e-05
5.03484e-05
3.33995e-05
4.78596e-05
4.78615e-05
5.07428e-05
3.40653e-05
4.83336e-05
4.83352e-05
5.11173e-05
3.47092e-05
4.8786e-05
4.87871e-05
5.14792e-05
3.53312e-05
4.92176e-05
4.92176e-05
5.18295e-05
3.5931e-05
4.96293e-05
4.9628e-05
5.21614e-05
3.65086e-05
5.00216e-05
5.00193e-05
5.24801e-05
3.7064e-05
5.03957e-05
5.03919e-05
5.27858e-05
3.7597e-05
5.07515e-05
5.07469e-05
5.3078e-05
3.81068e-05
5.10889e-05
5.10843e-05
5.33463e-05
3.85927e-05
5.14072e-05
5.14033e-05
5.36065e-05
3.90529e-05
5.17057e-05
5.17032e-05
5.38565e-05
3.94857e-05
5.19833e-05
5.19816e-05
5.40717e-05
3.98891e-05
5.2238e-05
5.22377e-05
5.42762e-05
4.02612e-05
5.24685e-05
5.24695e-05
5.44616e-05
4.06003e-05
5.26737e-05
5.26753e-05
5.46247e-05
4.09053e-05
5.28535e-05
5.28547e-05
5.47677e-05
4.1176e-05
5.30078e-05
5.30084e-05
5.48895e-05
4.1413e-05
5.31367e-05
5.31374e-05
5.49905e-05
4.16174e-05
5.32422e-05
5.32433e-05
5.50745e-05
4.17916e-05
5.3327e-05
5.33284e-05
5.51435e-05
4.19385e-05
5.3394e-05
5.33954e-05
5.51972e-05
4.20614e-05
5.34467e-05
5.34481e-05
5.52383e-05
4.21636e-05
5.34883e-05
5.34894e-05
5.52705e-05
4.22481e-05
5.3522e-05
5.35224e-05
5.52952e-05
4.23175e-05
5.35495e-05
5.35498e-05
5.53168e-05
4.2374e-05
5.35724e-05
5.35737e-05
5.53363e-05
4.24183e-05
5.35914e-05
5.35946e-05
5.53568e-05
4.24496e-05
5.36055e-05
5.36108e-05
5.53706e-05
4.24681e-05
5.36146e-05
5.36215e-05
5.53756e-05
4.24768e-05
5.36203e-05
5.36289e-05
5.53771e-05
4.24703e-05
5.36057e-05
5.36156e-05
5.53661e-05
4.20632e-05
5.24581e-05
5.24666e-05
5.50623e-05
4.24932e-05
3.66894e-05
3.7372e-05
3.73712e-05
4.19431e-05
4.25063e-05
3.73705e-05
3.73726e-05
3.66951e-05
3.73695e-05
3.73764e-05
4.24921e-05
3.66929e-05
3.73717e-05
3.73742e-05
4.24942e-05
4.26728e-05
4.31885e-05
3.75961e-05
3.75953e-05
3.82579e-05
3.82576e-05
4.26597e-05
4.32131e-05
3.75947e-05
3.75967e-05
3.82565e-05
3.82586e-05
3.76005e-05
3.82562e-05
3.82623e-05
4.26675e-05
4.31954e-05
3.75983e-05
3.8258e-05
3.82603e-05
4.31968e-05
4.33739e-05
4.38723e-05
3.84754e-05
3.84751e-05
3.91171e-05
3.91169e-05
4.3354e-05
4.38824e-05
3.84743e-05
3.84761e-05
3.91158e-05
3.91179e-05
3.84797e-05
3.91157e-05
3.91213e-05
4.33655e-05
4.38702e-05
3.84778e-05
3.91174e-05
3.91196e-05
4.38754e-05
4.4039e-05
4.45247e-05
3.93276e-05
3.93275e-05
3.99487e-05
3.99485e-05
4.40208e-05
4.45214e-05
3.93265e-05
3.93286e-05
3.99473e-05
3.99494e-05
3.93318e-05
3.99474e-05
3.99526e-05
4.40486e-05
4.4528e-05
3.93303e-05
3.99491e-05
3.99511e-05
4.45256e-05
4.46947e-05
4.5158e-05
4.01521e-05
4.01521e-05
4.07518e-05
4.07522e-05
4.4689e-05
4.51761e-05
4.01509e-05
4.01529e-05
4.07505e-05
4.07527e-05
4.01561e-05
4.07511e-05
4.07558e-05
4.46872e-05
4.51564e-05
4.01548e-05
4.07527e-05
4.07546e-05
4.51633e-05
4.53096e-05
4.57617e-05
4.09482e-05
4.09487e-05
4.15265e-05
4.15274e-05
4.53058e-05
4.57662e-05
4.0947e-05
4.09491e-05
4.15253e-05
4.15273e-05
4.09523e-05
4.15263e-05
4.15303e-05
4.53197e-05
4.57782e-05
4.09512e-05
4.15275e-05
4.15294e-05
4.5768e-05
4.5914e-05
4.63461e-05
4.17156e-05
4.17167e-05
4.22723e-05
4.22738e-05
4.59163e-05
4.63642e-05
4.17146e-05
4.17164e-05
4.22712e-05
4.22732e-05
4.17196e-05
4.22727e-05
4.22761e-05
4.59053e-05
4.63645e-05
4.17188e-05
4.22737e-05
4.22753e-05
4.63526e-05
4.64935e-05
4.69142e-05
4.24543e-05
4.24559e-05
4.29895e-05
4.29912e-05
4.64875e-05
4.69241e-05
4.24534e-05
4.24553e-05
4.29885e-05
4.29904e-05
4.24581e-05
4.29902e-05
4.29932e-05
4.64835e-05
4.69177e-05
4.24573e-05
4.29912e-05
4.29924e-05
4.69274e-05
4.70439e-05
4.74592e-05
4.31642e-05
4.3166e-05
4.3678e-05
4.36797e-05
4.70399e-05
4.7459e-05
4.31633e-05
4.31652e-05
4.3677e-05
4.3679e-05
4.31681e-05
4.36791e-05
4.36817e-05
4.70411e-05
4.74519e-05
4.31672e-05
4.36802e-05
4.36809e-05
4.74618e-05
4.75742e-05
4.79774e-05
4.38456e-05
4.38473e-05
4.43383e-05
4.434e-05
4.75735e-05
4.79783e-05
4.38449e-05
4.38467e-05
4.43376e-05
4.43392e-05
4.38495e-05
4.43398e-05
4.43419e-05
4.75874e-05
4.79663e-05
4.38487e-05
4.43408e-05
4.43413e-05
4.79673e-05
4.80904e-05
4.84699e-05
4.4499e-05
4.45007e-05
4.49709e-05
4.49723e-05
4.80898e-05
4.84703e-05
4.44984e-05
4.44999e-05
4.49702e-05
4.49716e-05
4.45026e-05
4.49725e-05
4.49743e-05
4.80888e-05
4.84627e-05
4.4502e-05
4.49735e-05
4.49738e-05
4.84631e-05
4.85736e-05
4.89356e-05
4.51247e-05
4.51261e-05
4.55761e-05
4.55774e-05
4.85756e-05
4.89463e-05
4.51242e-05
4.51255e-05
4.55755e-05
4.55769e-05
4.51282e-05
4.55778e-05
4.55795e-05
4.85879e-05
4.89487e-05
4.51278e-05
4.5579e-05
4.55792e-05
4.89382e-05
4.90571e-05
4.93893e-05
4.5723e-05
4.57244e-05
4.61544e-05
4.61556e-05
4.90483e-05
4.93976e-05
4.57226e-05
4.5724e-05
4.61539e-05
4.61555e-05
4.57265e-05
4.61561e-05
4.61577e-05
4.90493e-05
4.94011e-05
4.57263e-05
4.61578e-05
4.61575e-05
4.93913e-05
4.95029e-05
4.98244e-05
4.62946e-05
4.6296e-05
4.67065e-05
4.67077e-05
4.94953e-05
4.98309e-05
4.62943e-05
4.62959e-05
4.67061e-05
4.67078e-05
4.62983e-05
4.67084e-05
4.67101e-05
4.94954e-05
4.98341e-05
4.62981e-05
4.67103e-05
4.671e-05
4.98354e-05
4.99301e-05
5.02486e-05
4.68403e-05
4.68416e-05
4.72332e-05
4.72346e-05
4.99253e-05
5.02448e-05
4.68401e-05
4.68419e-05
4.72328e-05
4.72349e-05
4.68442e-05
4.72355e-05
4.72372e-05
4.99268e-05
5.02495e-05
4.68442e-05
4.72376e-05
4.72375e-05
5.0245e-05
5.03385e-05
5.0646e-05
4.73609e-05
4.73625e-05
4.77358e-05
4.77375e-05
5.03448e-05
5.06423e-05
4.73607e-05
4.73628e-05
4.77354e-05
4.77376e-05
4.73652e-05
4.77386e-05
4.774e-05
5.034e-05
5.06463e-05
4.73655e-05
4.77406e-05
4.77406e-05
5.06402e-05
5.0733e-05
5.10219e-05
4.78576e-05
4.78596e-05
4.8215e-05
4.82173e-05
5.07395e-05
5.10315e-05
4.78573e-05
4.78596e-05
4.82145e-05
4.8217e-05
4.7862e-05
4.82183e-05
4.82194e-05
5.07321e-05
5.10283e-05
4.78627e-05
4.822e-05
4.82202e-05
5.10236e-05
5.11169e-05
5.13858e-05
4.83312e-05
4.83337e-05
4.8672e-05
4.8675e-05
5.1115e-05
5.13938e-05
4.83308e-05
4.83334e-05
4.86714e-05
4.86741e-05
4.83358e-05
4.86761e-05
4.86766e-05
5.11124e-05
5.13931e-05
4.83367e-05
4.86773e-05
4.86776e-05
5.1397e-05
5.14791e-05
5.17368e-05
4.87828e-05
4.87862e-05
4.91078e-05
4.91119e-05
5.14823e-05
5.17448e-05
4.87823e-05
4.87852e-05
4.9107e-05
4.911e-05
4.87877e-05
4.91128e-05
4.91128e-05
5.14743e-05
5.17441e-05
4.87887e-05
4.91131e-05
4.9114e-05
5.17434e-05
5.1823e-05
5.20716e-05
4.92135e-05
4.92181e-05
4.95235e-05
4.95286e-05
5.18305e-05
5.208e-05
4.92129e-05
4.9216e-05
4.95224e-05
4.95255e-05
4.92189e-05
4.95295e-05
4.95289e-05
5.18215e-05
5.20783e-05
4.92202e-05
4.95285e-05
4.95303e-05
5.20772e-05
5.21559e-05
5.23934e-05
4.96245e-05
4.96299e-05
4.992e-05
4.99259e-05
5.2163e-05
5.24073e-05
4.96236e-05
4.96266e-05
4.99186e-05
4.99215e-05
4.96301e-05
4.99265e-05
4.99255e-05
5.21534e-05
5.23998e-05
4.96315e-05
4.99244e-05
4.99268e-05
5.23972e-05
5.24743e-05
5.2707e-05
5.00164e-05
5.00227e-05
5.02981e-05
5.03045e-05
5.24807e-05
5.27125e-05
5.00152e-05
5.0018e-05
5.02968e-05
5.0299e-05
5.00221e-05
5.03049e-05
5.03035e-05
5.24709e-05
5.27075e-05
5.00234e-05
5.03014e-05
5.03045e-05
5.27039e-05
5.27826e-05
5.30039e-05
5.03903e-05
5.03969e-05
5.06585e-05
5.06649e-05
5.27844e-05
5.30045e-05
5.03891e-05
5.03912e-05
5.06571e-05
5.06586e-05
5.03958e-05
5.06651e-05
5.06636e-05
5.27752e-05
5.29976e-05
5.03967e-05
5.06606e-05
5.06638e-05
5.29977e-05
5.30714e-05
5.32849e-05
5.07465e-05
5.07531e-05
5.10011e-05
5.10067e-05
5.30818e-05
5.32809e-05
5.07453e-05
5.07467e-05
5.09998e-05
5.1001e-05
5.07517e-05
5.10068e-05
5.10055e-05
5.30752e-05
5.32835e-05
5.07517e-05
5.10021e-05
5.10047e-05
5.32843e-05
5.33451e-05
5.35419e-05
5.10849e-05
5.10905e-05
5.13253e-05
5.13296e-05
5.33573e-05
5.35507e-05
5.10839e-05
5.10849e-05
5.13243e-05
5.13249e-05
5.10892e-05
5.13296e-05
5.13287e-05
5.33465e-05
5.35503e-05
5.10883e-05
5.13254e-05
5.13275e-05
5.35509e-05
5.36175e-05
5.379e-05
5.14048e-05
5.14088e-05
5.16301e-05
5.16329e-05
5.36079e-05
5.37992e-05
5.14039e-05
5.14044e-05
5.16291e-05
5.16294e-05
5.1408e-05
5.16326e-05
5.16324e-05
5.36067e-05
5.37994e-05
5.14067e-05
5.16298e-05
5.16307e-05
5.37899e-05
5.38624e-05
5.40177e-05
5.17048e-05
5.17075e-05
5.19132e-05
5.19154e-05
5.38517e-05
5.40283e-05
5.17041e-05
5.17042e-05
5.1913e-05
5.19132e-05
5.1707e-05
5.19151e-05
5.19149e-05
5.38514e-05
5.40184e-05
5.17052e-05
5.19133e-05
5.19127e-05
5.40163e-05
5.40741e-05
5.42276e-05
5.19828e-05
5.19849e-05
5.21739e-05
5.21749e-05
5.40766e-05
5.42277e-05
5.1983e-05
5.1983e-05
5.21748e-05
5.21749e-05
5.19845e-05
5.21751e-05
5.2175e-05
5.4073e-05
5.42283e-05
5.19822e-05
5.21745e-05
5.21727e-05
5.42251e-05
5.42789e-05
5.44171e-05
5.22382e-05
5.22388e-05
5.24105e-05
5.24103e-05
5.42779e-05
5.44148e-05
5.22395e-05
5.22395e-05
5.24124e-05
5.24126e-05
5.22391e-05
5.24111e-05
5.24108e-05
5.4279e-05
5.44176e-05
5.22368e-05
5.24119e-05
5.24084e-05
5.44139e-05
5.44636e-05
5.45849e-05
5.24689e-05
5.24684e-05
5.26215e-05
5.26199e-05
5.44613e-05
5.45823e-05
5.24712e-05
5.24713e-05
5.26241e-05
5.26238e-05
5.24692e-05
5.26218e-05
5.26213e-05
5.44638e-05
5.45853e-05
5.24669e-05
5.26233e-05
5.2619e-05
5.4582e-05
5.46271e-05
5.4733e-05
5.26741e-05
5.26722e-05
5.28067e-05
5.28037e-05
5.46245e-05
5.47303e-05
5.2677e-05
5.26764e-05
5.28096e-05
5.28084e-05
5.26739e-05
5.28071e-05
5.2806e-05
5.46273e-05
5.47315e-05
5.26717e-05
5.28083e-05
5.28039e-05
5.47293e-05
5.47706e-05
5.48597e-05
5.28535e-05
5.28503e-05
5.29662e-05
5.29623e-05
5.47681e-05
5.48572e-05
5.28567e-05
5.28551e-05
5.29692e-05
5.29669e-05
5.28529e-05
5.29668e-05
5.29651e-05
5.47702e-05
5.48565e-05
5.28508e-05
5.29674e-05
5.29629e-05
5.48562e-05
5.48927e-05
5.49637e-05
5.30074e-05
5.30035e-05
5.31006e-05
5.30964e-05
5.48902e-05
5.49615e-05
5.30105e-05
5.30079e-05
5.31033e-05
5.31001e-05
5.30064e-05
5.31011e-05
5.30993e-05
5.48914e-05
5.49614e-05
5.30042e-05
5.31017e-05
5.30968e-05
5.49611e-05
5.49932e-05
5.50489e-05
5.31363e-05
5.31321e-05
5.32114e-05
5.32072e-05
5.49909e-05
5.50463e-05
5.31389e-05
5.31357e-05
5.32137e-05
5.32103e-05
5.3135e-05
5.32116e-05
5.32097e-05
5.49937e-05
5.50498e-05
5.31324e-05
5.32126e-05
5.32068e-05
5.50469e-05
5.50779e-05
5.51197e-05
5.3242e-05
5.32379e-05
5.33017e-05
5.32974e-05
5.50753e-05
5.51166e-05
5.32442e-05
5.32408e-05
5.33034e-05
5.32999e-05
5.32402e-05
5.33012e-05
5.32992e-05
5.50781e-05
5.51221e-05
5.32372e-05
5.33025e-05
5.32959e-05
5.51166e-05
5.5147e-05
5.51769e-05
5.33276e-05
5.33233e-05
5.33746e-05
5.337e-05
5.51439e-05
5.51753e-05
5.33292e-05
5.33257e-05
5.33757e-05
5.33722e-05
5.33248e-05
5.3373e-05
5.33707e-05
5.51452e-05
5.51773e-05
5.33214e-05
5.33744e-05
5.33671e-05
5.51724e-05
5.5202e-05
5.52222e-05
5.33957e-05
5.3391e-05
5.34328e-05
5.34278e-05
5.51977e-05
5.52213e-05
5.33966e-05
5.33932e-05
5.34333e-05
5.34299e-05
5.33912e-05
5.34301e-05
5.34267e-05
5.52014e-05
5.52213e-05
5.33876e-05
5.34314e-05
5.34232e-05
5.52158e-05
5.52453e-05
5.52581e-05
5.345e-05
5.34444e-05
5.34792e-05
5.34734e-05
5.52397e-05
5.5256e-05
5.34499e-05
5.34465e-05
5.34787e-05
5.34751e-05
5.34429e-05
5.34751e-05
5.34701e-05
5.52441e-05
5.52557e-05
5.34394e-05
5.34763e-05
5.3467e-05
5.5249e-05
5.52797e-05
5.5287e-05
5.34933e-05
5.34872e-05
5.3517e-05
5.351e-05
5.52753e-05
5.52833e-05
5.34925e-05
5.34887e-05
5.35153e-05
5.3511e-05
5.34828e-05
5.35106e-05
5.35043e-05
5.52769e-05
5.52824e-05
5.34798e-05
5.35119e-05
5.35018e-05
5.52796e-05
5.53108e-05
5.53111e-05
5.3528e-05
5.35218e-05
5.35477e-05
5.35405e-05
5.53069e-05
5.53122e-05
5.35272e-05
5.35225e-05
5.35459e-05
5.35403e-05
5.35146e-05
5.35394e-05
5.35325e-05
5.53061e-05
5.53048e-05
5.35118e-05
5.35407e-05
5.35296e-05
5.53021e-05
5.53352e-05
5.53328e-05
5.35569e-05
5.35499e-05
5.35734e-05
5.35653e-05
5.53268e-05
5.53314e-05
5.35563e-05
5.35499e-05
5.35721e-05
5.35646e-05
5.35418e-05
5.35634e-05
5.35566e-05
5.53291e-05
5.53246e-05
5.35384e-05
5.35652e-05
5.35532e-05
5.53218e-05
5.53576e-05
5.53545e-05
5.35819e-05
5.35734e-05
5.35953e-05
5.35855e-05
5.53463e-05
5.53481e-05
5.3581e-05
5.35729e-05
5.35942e-05
5.35851e-05
5.35649e-05
5.35837e-05
5.35763e-05
5.53491e-05
5.53417e-05
5.35619e-05
5.35866e-05
5.35747e-05
5.53379e-05
5.53739e-05
5.53716e-05
5.3603e-05
5.35929e-05
5.36117e-05
5.36011e-05
5.5363e-05
5.53612e-05
5.36023e-05
5.3593e-05
5.36122e-05
5.36024e-05
5.35836e-05
5.35994e-05
5.35919e-05
5.53669e-05
5.53567e-05
5.35829e-05
5.36041e-05
5.35926e-05
5.53511e-05
5.53854e-05
5.53787e-05
5.36178e-05
5.36072e-05
5.36204e-05
5.36101e-05
5.53762e-05
5.53681e-05
5.36186e-05
5.36092e-05
5.3622e-05
5.36129e-05
5.35984e-05
5.36083e-05
5.36023e-05
5.53796e-05
5.537e-05
5.35997e-05
5.36147e-05
5.36044e-05
5.53621e-05
5.53907e-05
5.5374e-05
5.36266e-05
5.36165e-05
5.36252e-05
5.36156e-05
5.53806e-05
5.53682e-05
5.36283e-05
5.36195e-05
5.36268e-05
5.36187e-05
5.36091e-05
5.36131e-05
5.3609e-05
5.53837e-05
5.53731e-05
5.36113e-05
5.36213e-05
5.36121e-05
5.53645e-05
5.53947e-05
5.53696e-05
5.36323e-05
5.3623e-05
5.36243e-05
5.36157e-05
5.53805e-05
5.53635e-05
5.36339e-05
5.36261e-05
5.36256e-05
5.36186e-05
5.36166e-05
5.36122e-05
5.36096e-05
5.53854e-05
5.53683e-05
5.36199e-05
5.36219e-05
5.36135e-05
5.53611e-05
5.53781e-05
5.52114e-05
5.36174e-05
5.36094e-05
5.34983e-05
5.3492e-05
5.53684e-05
5.52166e-05
5.36186e-05
5.36122e-05
5.35009e-05
5.34935e-05
5.36032e-05
5.34886e-05
5.34848e-05
5.53752e-05
5.52214e-05
5.36075e-05
5.3498e-05
5.3491e-05
5.52121e-05
5.50943e-05
5.24745e-05
5.24593e-05
5.50685e-05
5.24772e-05
5.2468e-05
4.20508e-05
4.20572e-05
4.20517e-05
5.24533e-05
5.50751e-05
5.24592e-05
6.48263e-05
7.13965e-05
6.47282e-05
6.95353e-05
6.95618e-05
6.48302e-05
7.14016e-05
2.10352e-05
2.10411e-05
2.16044e-05
2.16021e-05
2.16058e-05
2.1608e-05
5.35349e-05
6.02166e-05
2.90754e-05
3.69162e-05
6.03326e-05
2.93201e-05
5.33409e-05
6.95601e-05
5.35356e-05
2.90789e-05
3.69188e-05
2.93235e-05
6.03346e-05
5.33411e-05
6.6924e-05
6.69341e-05
4.21292e-05
6.69833e-05
6.69961e-05
6.50525e-05
7.1444e-05
6.49572e-05
7.1481e-05
6.95912e-05
6.96185e-05
6.50565e-05
7.14505e-05
6.49609e-05
7.14852e-05
2.17937e-05
2.17974e-05
2.17996e-05
2.23767e-05
2.23748e-05
2.23784e-05
2.23805e-05
5.39973e-05
6.05052e-05
3.00531e-05
3.78161e-05
5.38122e-05
6.06172e-05
3.02966e-05
6.95894e-05
6.96169e-05
5.39972e-05
3.00567e-05
6.05025e-05
3.7818e-05
5.38127e-05
3.03001e-05
6.06188e-05
6.71e-05
6.71104e-05
4.28474e-05
6.71575e-05
6.71704e-05
6.527e-05
7.15289e-05
6.51799e-05
7.15659e-05
6.96492e-05
6.96771e-05
6.5274e-05
7.15355e-05
6.51841e-05
7.15705e-05
2.25705e-05
2.25742e-05
2.25763e-05
2.31644e-05
2.31627e-05
2.31663e-05
2.31684e-05
5.44415e-05
6.07827e-05
3.1024e-05
3.86894e-05
5.42626e-05
6.08909e-05
3.1265e-05
6.96474e-05
6.96756e-05
5.44417e-05
3.10278e-05
6.07806e-05
3.8691e-05
5.42613e-05
3.12687e-05
6.08929e-05
6.72709e-05
6.72816e-05
4.35365e-05
6.73265e-05
6.73393e-05
6.5482e-05
7.16158e-05
6.53959e-05
7.1651e-05
6.9709e-05
6.97376e-05
6.54853e-05
7.16213e-05
6.54001e-05
7.16564e-05
2.33617e-05
2.33653e-05
2.33675e-05
2.39636e-05
2.39621e-05
2.39658e-05
2.39677e-05
5.48673e-05
6.10497e-05
3.19839e-05
3.95351e-05
5.46925e-05
6.11542e-05
3.22216e-05
6.97073e-05
6.9736e-05
5.48655e-05
3.19876e-05
6.10479e-05
3.95368e-05
5.46938e-05
3.22252e-05
6.11557e-05
6.74367e-05
6.74478e-05
4.42138e-05
6.74907e-05
6.7503e-05
6.56876e-05
7.17019e-05
6.56024e-05
7.17373e-05
6.97703e-05
6.97994e-05
6.56913e-05
7.17075e-05
6.5607e-05
7.17433e-05
2.41633e-05
2.4167e-05
2.41691e-05
2.47704e-05
2.47691e-05
2.47728e-05
2.47747e-05
5.52742e-05
6.13063e-05
3.29288e-05
4.03528e-05
5.51069e-05
6.14071e-05
3.31623e-05
6.97686e-05
6.97979e-05
5.52714e-05
3.29325e-05
6.13047e-05
4.03544e-05
5.51084e-05
3.31659e-05
6.14085e-05
6.75973e-05
6.76088e-05
4.48539e-05
6.76494e-05
6.76615e-05
6.58852e-05
7.17883e-05
6.5802e-05
7.18238e-05
6.98329e-05
6.98625e-05
6.58876e-05
7.1793e-05
6.58067e-05
7.18308e-05
2.49717e-05
2.49754e-05
2.49773e-05
2.55812e-05
2.55802e-05
2.55838e-05
2.55856e-05
5.56645e-05
6.15533e-05
3.38555e-05
4.11423e-05
5.55042e-05
6.16506e-05
3.4084e-05
6.98311e-05
6.9861e-05
5.56618e-05
3.3859e-05
6.15518e-05
4.11437e-05
5.55056e-05
3.40875e-05
6.16516e-05
6.77529e-05
6.77648e-05
4.54672e-05
6.78036e-05
6.78153e-05
6.60766e-05
7.18749e-05
6.59967e-05
7.19104e-05
6.98967e-05
6.99267e-05
6.60794e-05
7.18797e-05
6.60014e-05
7.1917e-05
2.57832e-05
2.57867e-05
2.57886e-05
2.63922e-05
2.63915e-05
2.6395e-05
2.63968e-05
5.60378e-05
6.17905e-05
3.47608e-05
4.19031e-05
5.58851e-05
6.18841e-05
3.49836e-05
6.98949e-05
6.99251e-05
5.60368e-05
3.47644e-05
6.17894e-05
4.19041e-05
5.58862e-05
3.49872e-05
6.1885e-05
6.79036e-05
6.79154e-05
4.60719e-05
6.79525e-05
6.79643e-05
6.62617e-05
7.19615e-05
6.61845e-05
7.19969e-05
6.99614e-05
6.99917e-05
6.62654e-05
7.19674e-05
6.61874e-05
7.20031e-05
2.65941e-05
2.65975e-05
2.65993e-05
2.72002e-05
2.71997e-05
2.72031e-05
2.72048e-05
5.63964e-05
6.20184e-05
3.56421e-05
4.26351e-05
5.62512e-05
6.21086e-05
3.58586e-05
6.99596e-05
6.99902e-05
5.63971e-05
3.56457e-05
6.2018e-05
4.26361e-05
5.62504e-05
3.58622e-05
6.21104e-05
6.80495e-05
6.80613e-05
4.66498e-05
6.80968e-05
6.81087e-05
6.64406e-05
7.20479e-05
6.63654e-05
7.20836e-05
7.00268e-05
7.00575e-05
6.64444e-05
7.20528e-05
6.63691e-05
7.20903e-05
2.7401e-05
2.74044e-05
2.74059e-05
2.80018e-05
2.80016e-05
2.80049e-05
2.80065e-05
5.67408e-05
6.22383e-05
3.6497e-05
4.33382e-05
5.66013e-05
6.23255e-05
3.67068e-05
7.00251e-05
7.0056e-05
5.67412e-05
3.65006e-05
6.2238e-05
4.33392e-05
5.66005e-05
3.67103e-05
6.23272e-05
6.81907e-05
6.82024e-05
4.71974e-05
6.82366e-05
6.82483e-05
6.66133e-05
7.21331e-05
6.65417e-05
7.21703e-05
7.00931e-05
7.0124e-05
6.66181e-05
7.21391e-05
6.65446e-05
7.21762e-05
2.82008e-05
2.82041e-05
2.82056e-05
2.87942e-05
2.87942e-05
2.87975e-05
2.8799e-05
5.70712e-05
6.24494e-05
3.7324e-05
4.40129e-05
5.69391e-05
6.25336e-05
3.75266e-05
7.00914e-05
7.01226e-05
5.70711e-05
3.73274e-05
6.24497e-05
4.4014e-05
5.69361e-05
3.75299e-05
6.2535e-05
6.83276e-05
6.83393e-05
4.77174e-05
6.83722e-05
6.83837e-05
6.67812e-05
7.22205e-05
6.67124e-05
7.22562e-05
7.016e-05
7.01912e-05
6.67845e-05
7.22265e-05
6.67169e-05
7.22618e-05
2.89908e-05
2.8994e-05
2.89955e-05
2.95749e-05
2.95751e-05
2.95782e-05
2.95797e-05
5.739e-05
6.26528e-05
3.81214e-05
4.46596e-05
5.72614e-05
6.27337e-05
3.83166e-05
7.01584e-05
7.01897e-05
5.73887e-05
3.81246e-05
6.26532e-05
4.46606e-05
5.72619e-05
3.83196e-05
6.2735e-05
6.846e-05
6.84716e-05
4.8225e-05
6.85033e-05
6.8515e-05
6.69445e-05
7.23055e-05
6.68777e-05
7.23425e-05
7.02276e-05
7.02588e-05
6.69476e-05
7.23113e-05
6.68818e-05
7.23485e-05
2.97684e-05
2.97715e-05
2.97729e-05
3.03415e-05
3.03419e-05
3.03449e-05
3.03464e-05
5.76956e-05
6.28482e-05
3.88885e-05
4.52786e-05
5.75725e-05
6.29262e-05
3.90761e-05
7.02259e-05
7.02574e-05
5.7694e-05
3.88914e-05
6.28491e-05
4.52797e-05
5.75713e-05
3.90789e-05
6.29278e-05
6.85886e-05
6.86002e-05
4.87023e-05
6.86305e-05
6.8642e-05
6.71025e-05
7.23925e-05
6.70384e-05
7.24275e-05
7.02955e-05
7.0327e-05
6.7106e-05
7.23977e-05
6.70423e-05
7.2433e-05
3.05313e-05
3.05343e-05
3.05357e-05
3.10918e-05
3.10923e-05
3.10954e-05
3.10967e-05
5.79894e-05
6.30359e-05
3.96247e-05
4.58703e-05
5.78682e-05
6.31111e-05
3.98046e-05
7.02939e-05
7.03255e-05
5.79871e-05
3.96275e-05
6.30376e-05
4.58717e-05
5.78707e-05
3.98074e-05
6.31131e-05
6.87132e-05
6.87248e-05
4.91722e-05
6.87533e-05
6.87655e-05
6.72562e-05
7.24779e-05
6.71939e-05
7.25131e-05
7.0364e-05
7.03956e-05
6.72604e-05
7.24834e-05
6.71969e-05
7.25186e-05
3.12774e-05
3.12805e-05
3.12818e-05
3.18241e-05
3.18247e-05
3.18279e-05
3.18292e-05
5.8269e-05
6.32167e-05
4.03298e-05
4.64355e-05
5.81561e-05
6.32893e-05
4.05021e-05
7.03623e-05
7.03941e-05
5.82701e-05
4.03327e-05
6.3218e-05
4.64373e-05
5.81562e-05
4.0505e-05
6.3291e-05
6.88336e-05
6.88455e-05
4.96224e-05
6.88726e-05
6.88848e-05
6.74053e-05
7.25623e-05
6.73444e-05
7.2599e-05
7.0433e-05
7.04648e-05
6.74099e-05
7.25675e-05
6.7346e-05
7.26043e-05
3.20051e-05
3.20085e-05
3.20096e-05
3.25371e-05
3.25378e-05
3.25413e-05
3.25425e-05
5.85397e-05
6.33908e-05
4.10042e-05
4.69751e-05
5.84298e-05
6.34607e-05
4.11688e-05
7.04312e-05
7.04632e-05
5.85408e-05
4.10071e-05
6.33919e-05
4.69771e-05
5.84296e-05
4.11718e-05
6.34623e-05
6.89505e-05
6.89625e-05
5.00389e-05
6.89883e-05
6.90008e-05
6.75507e-05
7.26472e-05
6.74914e-05
7.26839e-05
7.05024e-05
7.05344e-05
6.75547e-05
7.26535e-05
6.74928e-05
7.26886e-05
3.27133e-05
3.27169e-05
3.27179e-05
3.32295e-05
3.32306e-05
3.32342e-05
3.32354e-05
5.87991e-05
6.35586e-05
4.16479e-05
4.749e-05
5.86942e-05
6.36261e-05
4.18051e-05
7.05005e-05
7.05327e-05
5.87997e-05
4.16512e-05
6.35595e-05
4.74921e-05
5.86955e-05
4.18084e-05
6.36277e-05
6.9064e-05
6.90761e-05
5.04509e-05
6.91006e-05
6.91131e-05
6.76925e-05
7.27334e-05
6.76327e-05
7.27681e-05
7.05723e-05
7.06045e-05
6.76957e-05
7.27373e-05
6.76354e-05
7.27741e-05
3.3401e-05
3.34046e-05
3.34057e-05
3.39007e-05
3.39022e-05
3.39058e-05
3.3907e-05
5.90493e-05
6.3721e-05
4.2262e-05
4.79813e-05
5.89489e-05
6.3786e-05
4.24121e-05
7.05702e-05
7.06025e-05
5.90505e-05
4.22656e-05
6.37216e-05
4.79832e-05
5.89496e-05
4.24156e-05
6.37874e-05
6.91744e-05
6.91868e-05
5.08397e-05
6.92099e-05
6.9223e-05
6.78298e-05
7.28183e-05
6.77716e-05
7.28529e-05
7.06424e-05
7.06746e-05
6.78325e-05
7.2822e-05
6.77739e-05
7.28586e-05
3.40674e-05
3.4071e-05
3.40721e-05
3.45501e-05
3.45523e-05
3.45558e-05
3.45569e-05
5.92901e-05
6.3878e-05
4.28476e-05
4.845e-05
5.91934e-05
6.39407e-05
4.29907e-05
7.06402e-05
7.06724e-05
5.92916e-05
4.28513e-05
6.38777e-05
4.84514e-05
5.91946e-05
4.29944e-05
6.39411e-05
6.92821e-05
6.92946e-05
5.12159e-05
6.9317e-05
6.93302e-05
6.79623e-05
7.29024e-05
6.7906e-05
7.2937e-05
7.07124e-05
7.07443e-05
6.79624e-05
7.29062e-05
6.79085e-05
7.29425e-05
3.47122e-05
3.47156e-05
3.47167e-05
3.51775e-05
3.51806e-05
3.51837e-05
3.51849e-05
5.95208e-05
6.40297e-05
4.34054e-05
4.88971e-05
5.94282e-05
6.40902e-05
4.35418e-05
7.07101e-05
7.07423e-05
5.95221e-05
4.34092e-05
6.40287e-05
4.8898e-05
5.9429e-05
4.35456e-05
6.4089e-05
6.93872e-05
6.93997e-05
5.15713e-05
6.94212e-05
6.94342e-05
6.80905e-05
7.29845e-05
6.80353e-05
7.30204e-05
7.07818e-05
7.08134e-05
6.809e-05
7.29894e-05
6.80378e-05
7.30252e-05
3.53352e-05
3.53381e-05
3.53393e-05
3.57827e-05
3.57869e-05
3.57894e-05
3.57909e-05
5.97439e-05
6.41762e-05
4.39365e-05
4.93237e-05
5.96509e-05
6.42346e-05
4.40664e-05
7.07798e-05
7.08117e-05
5.97418e-05
4.39403e-05
6.41735e-05
4.93234e-05
5.96536e-05
4.40701e-05
6.42316e-05
6.9489e-05
6.95025e-05
5.19127e-05
6.95225e-05
6.95357e-05
6.82144e-05
7.30665e-05
6.81611e-05
7.31017e-05
7.08502e-05
7.08812e-05
6.82136e-05
7.30726e-05
6.81629e-05
7.3106e-05
3.59363e-05
3.59385e-05
3.594e-05
3.63657e-05
3.63711e-05
3.63727e-05
3.63745e-05
5.99551e-05
6.43175e-05
4.4442e-05
4.97305e-05
5.98664e-05
6.43735e-05
4.45657e-05
7.08486e-05
7.088e-05
5.9952e-05
4.44452e-05
6.43136e-05
4.97289e-05
5.98672e-05
4.45686e-05
6.437e-05
6.9589e-05
6.96023e-05
5.22397e-05
6.96214e-05
6.96348e-05
6.83325e-05
7.31467e-05
6.82821e-05
7.31809e-05
7.09171e-05
7.09473e-05
6.83328e-05
7.31519e-05
6.82838e-05
7.31865e-05
3.65151e-05
3.65165e-05
3.65183e-05
3.69264e-05
3.69328e-05
3.69334e-05
3.69356e-05
6.01555e-05
6.44536e-05
4.49227e-05
5.01181e-05
6.00719e-05
6.45076e-05
4.50401e-05
7.09161e-05
7.09468e-05
6.01528e-05
4.4925e-05
6.44492e-05
5.01154e-05
6.00703e-05
4.50422e-05
6.4503e-05
6.96862e-05
6.9699e-05
5.25528e-05
6.97179e-05
6.97307e-05
6.84444e-05
7.32246e-05
6.83966e-05
7.32574e-05
7.09821e-05
7.10113e-05
6.84462e-05
7.32306e-05
6.83998e-05
7.32635e-05
3.70716e-05
3.70719e-05
3.70741e-05
3.74646e-05
3.74717e-05
3.74714e-05
3.74738e-05
6.03471e-05
6.45854e-05
4.53794e-05
5.04874e-05
6.0269e-05
6.46369e-05
4.54907e-05
7.0982e-05
7.10118e-05
6.0343e-05
4.53806e-05
6.45796e-05
5.04834e-05
6.02661e-05
4.54915e-05
6.46322e-05
6.9781e-05
6.97928e-05
5.2853e-05
6.98119e-05
6.98233e-05
6.85526e-05
7.33005e-05
6.85062e-05
7.33304e-05
7.10447e-05
7.10729e-05
6.85565e-05
7.33062e-05
6.85081e-05
7.33374e-05
3.76052e-05
3.76046e-05
3.76069e-05
3.79798e-05
3.79871e-05
3.79862e-05
3.79885e-05
6.05304e-05
6.47108e-05
4.58126e-05
5.08384e-05
6.04559e-05
6.47598e-05
4.59177e-05
7.10454e-05
7.10742e-05
6.05253e-05
4.58123e-05
6.47058e-05
5.08338e-05
6.04511e-05
4.59171e-05
6.47561e-05
6.98729e-05
6.98832e-05
5.3143e-05
6.99027e-05
6.99126e-05
6.86584e-05
7.33714e-05
6.8613e-05
7.34002e-05
7.11046e-05
7.11316e-05
6.86625e-05
7.33791e-05
6.86178e-05
7.34075e-05
3.81151e-05
3.8114e-05
3.81161e-05
3.84712e-05
3.84781e-05
3.8477e-05
3.84788e-05
6.07029e-05
6.483e-05
4.62224e-05
5.11708e-05
6.06318e-05
6.48759e-05
4.63212e-05
7.11059e-05
7.1133e-05
6.06984e-05
4.62209e-05
6.48263e-05
5.11664e-05
6.06282e-05
4.63195e-05
6.4874e-05
6.99605e-05
6.99697e-05
5.34197e-05
6.99885e-05
6.99978e-05
6.87583e-05
7.3439e-05
6.87165e-05
7.34658e-05
7.11614e-05
7.1187e-05
6.87609e-05
7.34454e-05
6.87175e-05
7.3473e-05
3.86003e-05
3.85992e-05
3.86007e-05
3.89373e-05
3.8943e-05
3.89424e-05
3.89434e-05
6.08633e-05
6.49411e-05
4.66081e-05
5.14839e-05
6.07967e-05
6.49835e-05
4.67003e-05
7.11625e-05
7.11881e-05
6.08611e-05
4.66063e-05
6.49399e-05
5.14803e-05
6.07954e-05
4.66984e-05
6.49844e-05
7.00431e-05
7.00518e-05
5.36764e-05
7.00694e-05
7.00779e-05
6.88508e-05
7.35011e-05
6.88104e-05
7.35266e-05
7.1215e-05
7.12393e-05
6.88549e-05
7.35078e-05
6.88148e-05
7.35331e-05
3.90591e-05
3.90586e-05
3.90592e-05
3.93764e-05
3.93804e-05
3.93807e-05
3.93805e-05
6.10137e-05
6.50444e-05
4.69692e-05
5.17767e-05
6.09529e-05
6.50844e-05
4.70546e-05
7.12153e-05
7.12392e-05
6.10091e-05
4.69673e-05
6.50459e-05
5.17745e-05
6.09473e-05
4.70526e-05
6.50865e-05
7.01202e-05
7.01281e-05
5.39068e-05
7.01447e-05
7.01523e-05
6.89347e-05
7.35592e-05
6.88987e-05
7.35833e-05
7.12652e-05
7.12879e-05
6.89394e-05
7.35657e-05
6.8903e-05
7.35892e-05
3.949e-05
3.94905e-05
3.94898e-05
3.97865e-05
3.97883e-05
3.979e-05
3.97882e-05
6.11515e-05
6.51412e-05
4.7305e-05
5.20483e-05
6.1096e-05
6.51776e-05
4.73832e-05
7.1264e-05
7.12864e-05
6.11498e-05
4.73032e-05
6.51416e-05
5.20469e-05
6.1091e-05
4.73814e-05
6.5178e-05
7.0192e-05
7.01996e-05
5.41226e-05
7.02142e-05
7.02221e-05
6.90107e-05
7.36126e-05
6.89789e-05
7.3634e-05
7.13115e-05
7.13325e-05
6.90158e-05
7.36203e-05
6.89828e-05
7.36406e-05
3.98908e-05
3.98929e-05
3.98905e-05
4.01657e-05
4.01649e-05
4.01683e-05
4.01647e-05
6.1273e-05
6.52284e-05
4.7614e-05
5.22964e-05
6.12231e-05
6.52607e-05
4.76845e-05
7.13092e-05
7.133e-05
6.12724e-05
4.76127e-05
6.52272e-05
5.22965e-05
6.1221e-05
4.76834e-05
6.52594e-05
7.02563e-05
7.02649e-05
5.43223e-05
7.02761e-05
7.02849e-05
6.90741e-05
7.36622e-05
6.90474e-05
7.36811e-05
7.13539e-05
7.13733e-05
6.90807e-05
7.36676e-05
6.90536e-05
7.36871e-05
4.026e-05