/*--------------------------------*- C++ -*----------------------------------*\
| =========                 |                                                 |
| \\      /  F ield         | OpenFOAM: The Open Source CFD Toolbox           |
|  \\    /   O peration     | Version:  v2012                                 |
|   \\  /    A nd           | Website:  www.openfoam.com                      |
|    \\/     M anipulation  |                                                 |
\*---------------------------------------------------------------------------*/
FoamFile
{
    version     2.0;
    format      ascii;
    class       volScalarField;
    location    "350";
    object      nut;
}
// * * * * * * * * * * * * * * * * * * * * * * * * * * * * * * * * * * * * * //

dimensions      [0 2 -1 0 0 0 0];


internalField   nonuniform List<scalar> 
85864
(
0.000123057
0.000139425
0.000137112
0.000139425
0.00013943
0.000139413
0.00013725
5.00187e-05
5.00154e-05
9.20734e-05
0.00012305
2.36103e-05
9.38368e-05
2.36131e-05
2.36118e-05
7.37707e-05
7.37644e-05
9.38457e-05
9.38414e-05
0.000134876
0.000121371
5.00116e-05
9.20696e-05
0.000134868
9.38276e-05
0.000121361
7.37527e-05
7.37688e-05
2.36121e-05
5.00142e-05
5.00266e-05
7.60393e-05
2.01036e-05
2.01069e-05
5.00238e-05
7.60625e-05
7.61074e-05
2.01049e-05
3.62776e-05
9.21938e-05
8.82338e-05
4.05407e-05
8.8327e-05
4.05477e-05
3.62722e-05
2.36125e-05
2.36153e-05
2.36139e-05
9.74424e-05
0.000112753
7.38015e-05
4.79419e-05
4.79512e-05
0.000112911
9.73856e-05
9.74538e-05
0.000112735
7.38029e-05
4.7931e-05
4.79404e-05
0.000112909
9.73947e-05
7.88847e-05
2.14923e-05
2.14891e-05
2.14944e-05
2.14912e-05
7.88613e-05
2.01052e-05
5.00195e-05
7.60344e-05
7.60786e-05
2.01031e-05
3.62738e-05
9.21882e-05
4.05405e-05
8.82168e-05
4.05475e-05
8.83075e-05
3.62706e-05
9.74464e-05
0.000112741
7.37843e-05
4.79303e-05
4.79397e-05
0.000112882
9.73937e-05
9.74383e-05
0.000112747
7.38006e-05
4.79418e-05
0.00011292
4.79505e-05
9.7385e-05
7.88821e-05
2.14887e-05
2.14921e-05
2.14908e-05
2.14942e-05
7.88646e-05
2.36142e-05
5.00225e-05
0.000120558
0.00011988
0.000130121
0.000130125
0.000137347
0.000130251
0.000130259
0.000119799
0.000119872
0.000130145
0.000130152
0.000137248
0.000130257
0.000130243
0.000119796
0.000120552
0.000129125
0.000122374
9.39882e-05
0.000107767
0.000122521
0.000107973
0.000128912
0.000129234
0.000122333
9.39766e-05
0.000107767
0.000107974
0.000122555
0.000128875
0.00012915
0.000122364
9.39761e-05
0.000107784
0.000107972
0.000122522
0.000128986
0.00013339
0.000121675
0.000117647
0.000135267
0.000117915
0.000135486
0.00013327
0.000129207
0.000122338
9.39608e-05
0.000107755
0.000107962
0.000122536
0.000128854
0.000133399
0.000121669
0.000135142
0.000117635
0.000135567
0.000117894
0.000133153
0.000139425
0.00013726
0.000125854
0.000142552
0.000142549
0.000139687
0.00012881
0.00014564
0.000145636
0.000142075
0.000131904
0.000148682
0.000148679
0.000144382
0.000135116
0.000151675
0.000151672
0.00014662
0.000138424
0.000154614
0.00015461
0.000148854
0.00014181
0.000157492
0.000157487
0.00015102
0.000145257
0.000160309
0.000160304
0.000153023
0.000148746
0.00016306
0.000163056
0.000155058
0.000152263
0.000165746
0.000165744
0.000157033
0.000155794
0.000168366
0.000168361
0.00015904
0.000159325
0.000170916
0.000170912
0.000160894
0.000162844
0.000173398
0.000173395
0.000162728
0.000166339
0.00017581
0.000175808
0.000164439
0.000169801
0.000178153
0.000178151
0.000166121
0.000173221
0.000180427
0.000180425
0.000167819
0.000176594
0.000182632
0.000182629
0.000169417
0.000179911
0.00018477
0.000184766
0.000170943
0.000183168
0.000186841
0.000186836
0.000172436
0.000186359
0.000188845
0.000188837
0.000173904
0.00018948
0.000190782
0.000190771
0.000175297
0.000192525
0.00019265
0.000192636
0.000176644
0.000195491
0.000194449
0.000194432
0.000177944
0.000198372
0.000196176
0.000196158
0.000179187
0.000201162
0.000197829
0.000197812
0.000180304
0.000203854
0.000199405
0.000199389
0.000181406
0.000206439
0.000200899
0.000200887
0.000182493
0.000208909
0.000202308
0.000202294
0.000183397
0.000211255
0.000203624
0.000203612
0.00018428
0.000213466
0.000204843
0.000204834
0.000185096
0.000215533
0.000205961
0.000205954
0.000185829
0.000217446
0.000206979
0.000206971
0.000186493
0.000219199
0.000207897
0.000207889
0.000187081
0.000220788
0.000208708
0.000208703
0.000187596
0.00022221
0.000209417
0.000209415
0.00018804
0.000223468
0.000210028
0.00021003
0.000188399
0.000224567
0.000210549
0.000210552
0.000188762
0.000225514
0.00021098
0.000210984
0.000188983
0.000226319
0.000211336
0.00021134
0.000189244
0.000226994
0.000211636
0.000211634
0.000189412
0.000227545
0.000211875
0.000211869
0.000189518
0.000227985
0.000212063
0.000212059
0.000189664
0.000228314
0.000212206
0.000212208
0.000189773
0.000228529
0.000212302
0.000212312
0.000189828
0.000228635
0.000212361
0.000212373
0.000189868
0.000228667
0.000212399
0.000212416
0.00018988
0.000228648
0.000212343
0.000212364
0.000189845
0.000230124
0.000213309
0.000213332
0.000193108
0.000139132
0.000139413
0.00014177
0.000141762
0.000137181
0.000139252
0.000141775
0.000141759
0.000139441
0.000141775
0.000141787
0.000139116
0.000139445
0.000141773
0.00014179
0.000139119
0.000139679
0.000141472
0.000142549
0.00014254
0.000144866
0.000144859
0.000139576
0.000141662
0.000142554
0.000142537
0.000144871
0.000144856
0.000142565
0.000144873
0.000144881
0.000139639
0.00014151
0.000142568
0.000144869
0.000144885
0.000141508
0.000142074
0.00014384
0.000145635
0.000145628
0.000147919
0.000147913
0.000141933
0.000143935
0.000145641
0.000145624
0.000147925
0.00014791
0.000145649
0.000147927
0.000147933
0.000142016
0.000143823
0.000145653
0.000147924
0.000147938
0.000143846
0.000144347
0.000146108
0.000148676
0.00014867
0.000150925
0.000150918
0.000144217
0.000146098
0.000148682
0.000148667
0.000150931
0.000150916
0.000148689
0.000150933
0.000150937
0.000144402
0.000146131
0.000148695
0.00015093
0.000150943
0.000146104
0.000146658
0.000148359
0.000151668
0.000151662
0.000153876
0.000153871
0.000146623
0.000148486
0.000151674
0.000151659
0.000153881
0.000153868
0.00015168
0.000153886
0.000153888
0.000146602
0.000148344
0.000151687
0.000153883
0.000153896
0.000148374
0.000148801
0.000150512
0.000154604
0.000154601
0.000156767
0.000156766
0.000148773
0.000150537
0.00015461
0.000154597
0.000156774
0.00015676
0.000154617
0.00015678
0.00015678
0.00014886
0.000150623
0.000154625
0.000156776
0.000156789
0.000150529
0.000150972
0.000152636
0.00015748
0.00015748
0.000159597
0.000159598
0.00015099
0.000152755
0.000157487
0.000157473
0.000159605
0.000159591
0.000157493
0.000159613
0.00015961
0.000150903
0.000152756
0.000157502
0.000159608
0.000159619
0.000152655
0.000153073
0.000154742
0.000160295
0.000160296
0.000162364
0.000162366
0.000153029
0.000154807
0.000160303
0.000160289
0.000162372
0.000162358
0.000160307
0.000162382
0.000162377
0.000152993
0.00015476
0.000160316
0.000162378
0.000162387
0.000154809
0.000155077
0.00015679
0.000163045
0.000163047
0.000165065
0.000165068
0.000155048
0.000156785
0.000163053
0.000163039
0.000165074
0.00016506
0.000163057
0.000165085
0.000165078
0.000155048
0.00015672
0.000163067
0.000165082
0.000165088
0.000156788
0.000157032
0.000158737
0.000165729
0.000165731
0.000167701
0.000167703
0.000157035
0.000158741
0.000165738
0.000165725
0.00016771
0.000167695
0.000165742
0.000167722
0.000167713
0.000157123
0.000158651
0.000165752
0.000167719
0.000167724
0.000158655
0.000158989
0.000160601
0.000168348
0.00016835
0.000170269
0.00017027
0.000158994
0.000160608
0.000168358
0.000168342
0.000170278
0.000170262
0.00016836
0.000170291
0.000170281
0.000158985
0.000160544
0.00016837
0.000170287
0.000170292
0.00016054
0.000160814
0.000162366
0.000170898
0.0001709
0.000172768
0.00017277
0.000160835
0.000162448
0.000170908
0.000170892
0.000172778
0.000172762
0.00017091
0.000172792
0.00017278
0.000160908
0.000162452
0.000170922
0.000172789
0.000172792
0.000162374
0.000162726
0.000164136
0.000173379
0.000173381
0.000175198
0.0001752
0.00016267
0.000164203
0.00017339
0.000173374
0.000175209
0.000175194
0.000173391
0.000175223
0.00017521
0.000162662
0.000164211
0.000173404
0.000175221
0.000175222
0.000164142
0.000164459
0.000165857
0.000175791
0.000175794
0.000177559
0.000177561
0.00016441
0.000165911
0.000175802
0.000175787
0.00017757
0.000177555
0.000175804
0.000177585
0.000177571
0.000164394
0.000165917
0.000175816
0.000177583
0.000177584
0.000165925
0.000166142
0.000167581
0.000178134
0.000178137
0.00017985
0.000179853
0.000166111
0.000167555
0.000178145
0.000178131
0.000179861
0.000179847
0.000178147
0.000179878
0.000179864
0.000166104
0.000167576
0.00017816
0.000179876
0.000179878
0.000167539
0.000167764
0.000169186
0.000180408
0.000180412
0.000182075
0.000182078
0.000167812
0.000169159
0.00018042
0.000180405
0.000182085
0.000182071
0.000180422
0.000182104
0.000182088
0.000167761
0.000169177
0.000180436
0.000182101
0.000182103
0.000169129
0.000169364
0.000170707
0.000182614
0.000182619
0.000184231
0.000184236
0.000169409
0.000170772
0.000182625
0.000182612
0.000184241
0.000184227
0.000182628
0.000184261
0.000184244
0.000169344
0.00017074
0.000182644
0.000184257
0.00018426
0.000170703
0.000170955
0.000172208
0.000184753
0.000184759
0.00018632
0.000186327
0.000170934
0.000172253
0.000184764
0.00018475
0.000186331
0.000186316
0.000184767
0.000186352
0.000186333
0.000170909
0.000172246
0.000184783
0.000186347
0.000186349
0.000172268
0.000172455
0.000173676
0.000186825
0.000186833
0.000188342
0.000188352
0.000172465
0.000173713
0.000186836
0.000186822
0.000188353
0.000188339
0.000186839
0.000188376
0.000188356
0.000172405
0.000173712
0.000186855
0.000188368
0.000188373
0.000173697
0.000173883
0.00017508
0.00018883
0.000188842
0.000190297
0.000190309
0.000173915
0.000175116
0.000188841
0.000188828
0.000190307
0.000190293
0.000188845
0.000190333
0.000190312
0.000173856
0.000175114
0.000188862
0.000190321
0.00019033
0.000175093
0.000175284
0.000176441
0.000190768
0.000190782
0.000192184
0.000192198
0.000175309
0.000176512
0.000190779
0.000190765
0.000192194
0.000192179
0.000190784
0.000192219
0.0001922
0.000175251
0.000176474
0.000190802
0.000192206
0.000192217
0.000176441
0.000176628
0.000177781
0.000192638
0.000192654
0.000194002
0.000194017
0.000176645
0.000177798
0.000192649
0.000192635
0.000194013
0.000193997
0.000192655
0.000194037
0.000194019
0.00017659
0.000177779
0.000192672
0.000194021
0.000194034
0.000177739
0.000177937
0.000179045
0.000194441
0.000194457
0.00019575
0.000195765
0.000177927
0.000179029
0.000194453
0.000194436
0.000195762
0.000195743
0.000194457
0.000195784
0.000195766
0.000177879
0.000178998
0.000194473
0.000195766
0.00019578
0.000178987
0.000179151
0.000180239
0.000196172
0.000196188
0.000197424
0.000197437
0.000179205
0.000180199
0.000196184
0.000196166
0.000197437
0.000197419
0.000196188
0.000197455
0.000197438
0.000179177
0.00018023
0.000196202
0.000197438
0.00019745
0.000180226
0.000180301
0.000181307
0.00019783
0.000197843
0.00019902
0.00019903
0.000180377
0.000181369
0.000197843
0.000197825
0.000199033
0.000199014
0.000197843
0.000199048
0.000199032
0.000180312
0.000181369
0.000197855
0.000199033
0.000199044
0.000181367
0.000181487
0.000182363
0.00019941
0.000199419
0.000200535
0.000200542
0.00018142
0.000182436
0.000199422
0.000199403
0.000200547
0.000200528
0.000199419
0.00020056
0.000200543
0.000181412
0.00018243
0.000199432
0.000200548
0.000200555
0.000182363
0.00018253
0.000183339
0.000200906
0.000200913
0.00020196
0.000201969
0.000182462
0.000183421
0.000200919
0.000200898
0.000201974
0.000201954
0.000200913
0.000201988
0.000201966
0.000182454
0.000183344
0.000200924
0.000201975
0.000201976
0.000183334
0.000183406
0.000184248
0.000202311
0.00020232
0.000203294
0.0002033
0.000183429
0.000184265
0.000202327
0.000202305
0.000203311
0.000203289
0.000202316
0.000203323
0.000203297
0.000183398
0.00018425
0.000202327
0.00020331
0.000203308
0.000184237
0.000184289
0.00018508
0.000203626
0.00020363
0.000204533
0.000204534
0.0001843
0.000185086
0.000203645
0.000203621
0.000204553
0.000204528
0.000203628
0.00020456
0.000204531
0.000184288
0.000185079
0.000203638
0.000204551
0.000204541
0.000185064
0.000185101
0.000185834
0.000204844
0.000204842
0.000205671
0.000205665
0.000185107
0.000185838
0.000204865
0.000204838
0.000205694
0.000205663
0.00020484
0.000205696
0.000205664
0.000185099
0.000185832
0.000204849
0.000205689
0.000205673
0.000185819
0.000185839
0.000186524
0.00020596
0.000205951
0.000206707
0.000206691
0.000185842
0.000186524
0.000205985
0.000205951
0.000206732
0.000206693
0.000205952
0.000206729
0.000206693
0.000185836
0.000186508
0.000205961
0.000206721
0.000206702
0.000186499
0.000186509
0.000187138
0.000206976
0.000206957
0.00020764
0.000207615
0.000186509
0.000187135
0.000207002
0.000206961
0.000207666
0.000207621
0.00020696
0.000207659
0.000207619
0.000186503
0.000187107
0.00020697
0.00020765
0.000207628
0.000187108
0.000187098
0.000187678
0.000207889
0.000207863
0.000208469
0.000208438
0.000187095
0.000187634
0.000207917
0.00020787
0.000208496
0.000208445
0.000207868
0.000208485
0.000208442
0.000187093
0.000187653
0.000207877
0.000208479
0.00020845
0.000187618
0.000187585
0.000188137
0.000208701
0.000208669
0.000209198
0.000209162
0.000187611
0.000188085
0.000208728
0.000208676
0.000209225
0.00020917
0.000208673
0.000209211
0.000209165
0.000187593
0.000188131
0.000208681
0.000209209
0.000209173
0.000188072
0.000188041
0.000188494
0.000209412
0.000209374
0.000209833
0.000209791
0.000188064
0.000188479
0.000209438
0.000209383
0.000209858
0.000209801
0.000209377
0.00020984
0.000209793
0.000188037
0.000188538
0.000209384
0.000209842
0.0002098
0.000188505
0.000188466
0.000188831
0.000210026
0.000209982
0.000210382
0.000210336
0.000188451
0.000188873
0.000210051
0.000209993
0.000210407
0.000210346
0.000209984
0.000210385
0.000210336
0.000188414
0.000188829
0.000209991
0.000210388
0.000210343
0.000188805
0.000188791
0.000189112
0.000210546
0.0002105
0.00021085
0.000210801
0.000188736
0.000189153
0.00021057
0.00021051
0.000210872
0.000210811
0.000210498
0.000210846
0.000210794
0.000188784
0.000189102
0.000210504
0.00021085
0.0002108
0.00018911
0.00018906
0.000189344
0.000210985
0.000210933
0.000211237
0.000211184
0.000188999
0.000189378
0.000211005
0.000210943
0.000211256
0.000211192
0.000210926
0.00021123
0.000211172
0.000189049
0.00018937
0.000210931
0.000211233
0.000211178
0.000189297
0.000189283
0.000189531
0.000211351
0.000211297
0.000211562
0.000211502
0.000189232
0.000189555
0.000211369
0.000211303
0.000211573
0.000211508
0.000211278
0.000211545
0.000211483
0.000189227
0.000189509
0.000211283
0.00021155
0.000211491
0.000189505
0.000189484
0.00018968
0.000211648
0.000211596
0.000211822
0.000211765
0.000189439
0.000189742
0.000211667
0.000211601
0.000211833
0.000211764
0.000211567
0.000211798
0.000211732
0.000189463
0.000189651
0.000211574
0.000211801
0.000211741
0.000189658
0.000189633
0.000189803
0.000211889
0.000211835
0.00021203
0.000211972
0.000189562
0.000189857
0.000211909
0.000211835
0.000212044
0.000211967
0.000211801
0.000212002
0.000211935
0.000189608
0.000189768
0.000211807
0.000212003
0.000211939
0.000189767
0.000189759
0.000189921
0.000212085
0.000212025
0.000212194
0.000212131
0.000189677
0.000189948
0.000212102
0.000212022
0.000212208
0.000212124
0.00021199
0.00021216
0.000212093
0.000189724
0.000189859
0.000211996
0.000212163
0.000212103
0.000189855
0.000189838
0.000190011
0.000212237
0.000212172
0.000212312
0.000212245
0.000189769
0.000190016
0.000212252
0.000212167
0.000212332
0.000212244
0.000212134
0.000212275
0.00021221
0.000189817
0.000189933
0.000212149
0.000212283
0.000212229
0.000189914
0.00018989
0.000190047
0.000212337
0.000212271
0.000212373
0.00021231
0.000189837
0.000190049
0.000212358
0.000212273
0.000212396
0.000212313
0.000212238
0.000212338
0.000212285
0.000189875
0.000190006
0.000212261
0.00021235
0.000212308
0.000189986
0.000189916
0.000190014
0.000212393
0.000212331
0.000212409
0.000212351
0.000189859
0.000190053
0.000212416
0.000212335
0.000212432
0.000212355
0.000212308
0.000212377
0.000212335
0.000189885
0.000190064
0.000212332
0.000212392
0.000212361
0.000190009
0.000189946
0.000190023
0.000212429
0.000212373
0.000212471
0.000212419
0.000189858
0.000190062
0.000212451
0.000212377
0.000212494
0.000212424
0.000212358
0.000212442
0.000212409
0.00018986
0.000190067
0.000212385
0.000212461
0.000212437
0.00019007
0.000189903
0.000191357
0.000212368
0.000212321
0.000214947
0.000214914
0.00018982
0.000191438
0.00021239
0.000212324
0.000214968
0.000214917
0.00021231
0.000214941
0.000214885
0.000189836
0.000191438
0.000212341
0.000214964
0.000214916
0.000191294
0.000193178
0.000213414
0.000213301
0.000192997
0.000213432
0.000213367
0.00023003
0.000230055
0.000230042
0.000213383
0.000193027
0.00021341
9.23088e-05
5.0034e-05
9.20709e-05
2.36123e-05
2.36168e-05
9.23155e-05
5.00299e-05
0.000123044
0.00012307
0.000125137
0.000125126
0.000125132
0.000125151
0.000122003
9.38506e-05
0.000134868
0.00014021
9.41236e-05
0.000135736
0.000121381
2.36148e-05
0.000122005
0.000134881
0.000140209
0.000135748
9.41348e-05
0.000121378
7.37728e-05
7.37679e-05
0.000137869
7.38659e-05
7.38675e-05
9.27772e-05
5.00481e-05
9.2551e-05
5.00635e-05
2.36218e-05
2.36265e-05
9.27888e-05
5.00477e-05
9.25588e-05
5.00575e-05
0.000125843
0.000125849
0.000125868
0.000128055
0.000128046
0.000128052
0.00012807
0.000123313
9.44526e-05
0.000138369
0.000143328
0.000122717
9.47198e-05
0.000139246
2.36198e-05
2.36245e-05
0.000123312
0.000138381
9.44374e-05
0.000143325
0.000122716
0.000139257
9.47253e-05
7.40333e-05
7.40328e-05
0.000140311
7.41291e-05
7.41282e-05
9.3231e-05
5.00778e-05
9.30181e-05
5.00925e-05
2.36317e-05
2.36364e-05
9.32396e-05
5.00775e-05
9.30261e-05
5.00873e-05
0.000128801
0.000128806
0.000128825
0.000131117
0.000131109
0.000131115
0.000131133
0.000124584
9.50372e-05
0.000141898
0.000146406
0.000124002
9.5295e-05
0.000142779
2.36296e-05
2.36344e-05
0.000124583
0.000141911
9.50231e-05
0.000146402
0.000123995
0.000142791
9.52978e-05
7.42875e-05
7.42868e-05
0.000142664
7.43771e-05
7.43781e-05
9.36692e-05
5.01108e-05
9.34666e-05
5.01207e-05
2.36418e-05
2.36466e-05
9.36707e-05
5.01076e-05
9.34784e-05
5.01174e-05
0.000131896
0.000131902
0.00013192
0.000134302
0.000134294
0.0001343
0.000134317
0.000125811
9.5595e-05
0.000145439
0.000149437
0.000125235
9.58513e-05
0.00014632
2.36398e-05
2.36446e-05
0.000125803
0.000145451
9.55921e-05
0.000149434
0.00012524
0.000146332
9.58481e-05
7.45322e-05
7.45326e-05
0.000145047
7.462e-05
7.46174e-05
9.40934e-05
5.01409e-05
9.38951e-05
5.01509e-05
2.36522e-05
2.36571e-05
9.40988e-05
5.01376e-05
9.3911e-05
5.01485e-05
0.000135108
0.000135114
0.000135131
0.000137588
0.000137581
0.000137587
0.000137604
0.000126992
9.61317e-05
0.000148973
0.000152416
0.000126437
9.63855e-05
0.000149852
2.36502e-05
2.36551e-05
0.000126981
0.000148984
9.61296e-05
0.000152414
0.000126444
0.000149862
9.63817e-05
7.47661e-05
7.47686e-05
0.000147285
7.48488e-05
7.48488e-05
9.45e-05
5.0171e-05
9.43037e-05
5.01811e-05
2.36628e-05
2.36678e-05
9.45055e-05
5.01651e-05
9.43137e-05
5.01806e-05
0.000138417
0.000138423
0.00013844
0.000140957
0.000140951
0.000140957
0.000140973
0.000128135
9.66556e-05
0.000152487
0.000155341
0.000127599
9.68906e-05
0.00015336
2.36608e-05
2.36658e-05
0.000128125
0.000152497
9.66507e-05
0.000155337
0.000127605
0.00015337
9.68957e-05
7.49916e-05
7.49958e-05
0.000149448
7.50759e-05
7.5071e-05
9.48931e-05
5.02013e-05
9.47047e-05
5.02114e-05
2.36736e-05
2.36787e-05
9.48982e-05
5.01956e-05
9.47151e-05
5.02103e-05
0.000141804
0.000141811
0.000141827
0.00014439
0.000144386
0.000144391
0.000144406
0.000129239
9.71582e-05
0.000155967
0.000158204
0.000128725
9.73835e-05
0.000156831
2.36715e-05
2.36767e-05
0.000129235
0.000155978
9.71471e-05
0.0001582
0.000128728
0.000156841
9.7386e-05
7.5209e-05
7.52112e-05
0.000151651
7.52865e-05
7.52846e-05
9.52717e-05
5.02316e-05
9.50869e-05
5.02416e-05
2.36848e-05
2.36898e-05
9.52778e-05
5.02287e-05
9.50933e-05
5.02395e-05
0.000145252
0.000145258
0.000145274
0.000147871
0.000147868
0.000147873
0.000147887
0.00013031
9.76394e-05
0.000159404
0.000161006
0.000129815
9.78574e-05
0.000160254
2.36825e-05
2.36877e-05
0.000130313
0.000159414
9.76317e-05
0.000161002
0.00012981
0.000160264
9.78661e-05
7.54192e-05
7.54188e-05
0.000153785
7.54899e-05
7.54898e-05
9.56355e-05
5.02617e-05
9.5456e-05
5.02726e-05
2.36958e-05
2.3701e-05
9.5638e-05
5.0256e-05
9.54618e-05
5.02714e-05
0.000148743
0.000148749
0.000148763
0.000151383
0.000151381
0.000151387
0.000151399
0.000131347
9.81031e-05
0.000162779
0.000163742
0.000130865
9.83192e-05
0.000163615
2.36936e-05
2.36988e-05
0.000131347
0.00016279
9.80995e-05
0.000163738
0.000130862
0.000163625
9.83227e-05
7.56189e-05
7.5619e-05
0.000155804
7.56871e-05
7.56868e-05
9.59765e-05
5.02889e-05
9.58146e-05
5.03034e-05
2.3707e-05
2.37123e-05
9.59912e-05
5.02861e-05
9.58193e-05
5.03006e-05
0.000152262
0.000152268
0.000152281
0.000154913
0.000154911
0.000154917
0.000154929
0.000132349
9.85475e-05
0.000166088
0.000166412
0.000131892
9.87571e-05
0.000166908
2.37048e-05
2.37101e-05
0.000132348
0.000166099
9.8546e-05
0.000166409
0.00013188
0.000166918
9.87593e-05
7.58098e-05
7.58101e-05
0.000157727
7.58769e-05
7.58764e-05
9.63141e-05
5.03217e-05
9.61591e-05
5.03326e-05
2.37183e-05
2.37236e-05
9.63179e-05
5.0319e-05
9.61691e-05
5.03296e-05
0.000155794
0.000155799
0.000155813
0.000158446
0.000158446
0.00015845
0.000158462
0.000133328
9.89777e-05
0.000169325
0.000169016
0.000132876
9.9181e-05
0.000170129
2.37161e-05
2.37214e-05
0.00013332
0.000169335
9.89771e-05
0.000169012
0.000132881
0.000170137
9.9186e-05
7.59936e-05
7.59943e-05
0.000159651
7.60587e-05
7.60576e-05
9.66397e-05
5.03489e-05
9.64908e-05
5.03632e-05
2.37297e-05
2.37349e-05
9.66444e-05
5.0346e-05
9.65006e-05
5.03612e-05
0.000159327
0.000159332
0.000159345
0.000161971
0.000161971
0.000161975
0.000161987
0.000134273
9.93926e-05
0.000172488
0.000171551
0.000133837
9.95895e-05
0.000173274
2.37275e-05
2.37328e-05
0.000134264
0.000172495
9.93927e-05
0.000171547
0.000133834
0.000173281
9.95904e-05
7.61719e-05
7.61713e-05
0.000161458
7.62346e-05
7.6232e-05
9.6954e-05
5.03815e-05
9.68108e-05
5.03913e-05
2.37412e-05
2.37464e-05
9.69589e-05
5.0378e-05
9.68207e-05
5.03883e-05
0.000162848
0.000162851
0.000162865
0.000165474
0.000165476
0.000165479
0.00016549
0.000135191
9.97902e-05
0.000175571
0.000174017
0.000134753
9.9981e-05
0.00017634
2.3739e-05
2.37442e-05
0.00013518
0.000175578
9.97935e-05
0.000174014
0.000134764
0.000176346
9.99832e-05
7.63412e-05
7.63417e-05
0.000163297
7.64023e-05
7.64006e-05
9.72587e-05
5.0411e-05
9.712e-05
5.04216e-05
2.37527e-05
2.3758e-05
9.72677e-05
5.04081e-05
9.71239e-05
5.04186e-05
0.000166345
0.000166348
0.000166361
0.000168947
0.000168949
0.000168952
0.000168963
0.000136068
0.000100174
0.000178575
0.000176413
0.000135659
0.000100358
0.000179326
2.37505e-05
2.37558e-05
0.00013607
0.000178581
0.000100176
0.000176411
0.000135656
0.000179332
0.000100362
7.6504e-05
7.6505e-05
0.000165085
7.65636e-05
7.65617e-05
9.75523e-05
5.0438e-05
9.74167e-05
5.04527e-05
2.37643e-05
2.37696e-05
9.75654e-05
5.04347e-05
9.74167e-05
5.04494e-05
0.000169808
0.000169812
0.000169825
0.000172381
0.000172384
0.000172388
0.000172398
0.000136925
0.000100545
0.000181499
0.000178741
0.000136522
0.000100721
0.000182233
2.37621e-05
2.37674e-05
0.000136927
0.000181504
0.000100545
0.000178739
0.000136517
0.000182238
0.000100726
7.66612e-05
7.66611e-05
0.000166713
7.67172e-05
7.6719e-05
9.78391e-05
5.04672e-05
9.77056e-05
5.04815e-05
2.37759e-05
2.37812e-05
9.78495e-05
5.04669e-05
9.7705e-05
5.04772e-05
0.000173232
0.000173236
0.000173248
0.000175769
0.000175773
0.000175777
0.000175787
0.000137745
0.000100902
0.000184342
0.000181001
0.000137366
0.000101072
0.000185059
2.37736e-05
2.37791e-05
0.000137749
0.000184347
0.000100901
0.000180999
0.000137364
0.000185064
0.000101075
7.68132e-05
7.68112e-05
0.000168381
7.68648e-05
7.6866e-05
9.81182e-05
5.04994e-05
9.79766e-05
5.05088e-05
2.37876e-05
2.3793e-05
9.81239e-05
5.04933e-05
9.79813e-05
5.05082e-05
0.000176607
0.000176611
0.000176624
0.000179103
0.000179109
0.000179112
0.000179123
0.000138545
0.000101246
0.000187103
0.000183193
0.000138182
0.00010141
0.000187804
2.37853e-05
2.37907e-05
0.00013855
0.000187109
0.000101246
0.00018319
0.000138177
0.00018781
0.000101412
7.69586e-05
7.69566e-05
0.00016996
7.70086e-05
7.70116e-05
9.83836e-05
5.05284e-05
9.82478e-05
5.05382e-05
2.37993e-05
2.38047e-05
9.83871e-05
5.05224e-05
9.82535e-05
5.05372e-05
0.000179929
0.000179933
0.000179946
0.000182379
0.000182387
0.00018239
0.0001824
0.000139321
0.000101579
0.000189784
0.000185318
0.000138967
0.000101737
0.000190469
2.37971e-05
2.38024e-05
0.000139324
0.00018979
0.000101576
0.000185313
0.000138969
0.000190476
0.000101737
7.70987e-05
7.70973e-05
0.000171518
7.71479e-05
7.71524e-05
9.86396e-05
5.05573e-05
9.85079e-05
5.05676e-05
2.38111e-05
2.38164e-05
9.8633e-05
5.05514e-05
9.85158e-05
5.05661e-05
0.000183192
0.000183194
0.000183207
0.00018559
0.000185602
0.000185603
0.000185613
0.000140068
0.000101901
0.000192384
0.000187376
0.000139726
0.000102053
0.000193055
2.38088e-05
2.38142e-05
0.000140071
0.000192391
0.000101896
0.00018737
0.000139726
0.000193061
0.000102049
7.72347e-05
7.72333e-05
0.000172983
7.72827e-05
7.72859e-05
9.88857e-05
5.05834e-05
9.8756e-05
5.05978e-05
2.38228e-05
2.38281e-05
9.88788e-05
5.058e-05
9.87654e-05
5.05942e-05
0.00018639
0.000186391
0.000186405
0.000188731
0.000188747
0.000188747
0.000188758
0.000140799
0.00010221
0.000194905
0.000189368
0.000140445
0.000102359
0.00019556
2.38205e-05
2.38258e-05
0.000140789
0.000194911
0.000102201
0.000189358
0.000140457
0.000195566
0.000102349
7.73637e-05
7.73655e-05
0.000174405
7.74115e-05
7.74136e-05
9.91211e-05
5.06118e-05
9.89961e-05
5.06259e-05
2.38343e-05
2.38396e-05
9.91157e-05
5.06112e-05
9.90042e-05
5.06207e-05
0.000189518
0.000189517
0.000189532
0.000191798
0.000191818
0.000191816
0.000191828
0.000141492
0.000102503
0.000197346
0.000191291
0.000141142
0.00010265
0.000197986
2.38321e-05
2.38374e-05
0.000141476
0.000197351
0.000102496
0.000191278
0.000141157
0.00019799
0.000102641
7.74907e-05
7.74923e-05
0.00017578
7.75357e-05
7.75389e-05
9.93422e-05
5.06395e-05
9.92254e-05
5.06534e-05
2.38457e-05
2.38508e-05
9.93391e-05
5.06361e-05
9.92327e-05
5.06504e-05
0.000192571
0.000192569
0.000192585
0.000194784
0.000194808
0.000194804
0.000194818
0.000142143
0.000102787
0.000199706
0.000193145
0.000141813
0.000102929
0.00020033
2.38435e-05
2.38487e-05
0.000142141
0.000199709
0.00010278
0.00019313
0.000141819
0.000200332
0.000102918
7.76121e-05
7.7613e-05
0.000177101
7.76561e-05
7.76579e-05
9.95495e-05
5.06665e-05
9.9441e-05
5.06797e-05
2.38567e-05
2.38617e-05
9.95521e-05
5.06637e-05
9.94452e-05
5.06761e-05
0.000195544
0.000195539
0.000195557
0.000197685
0.000197711
0.000197705
0.00019772
0.000142763
0.000103065
0.000201985
0.000194929
0.000142464
0.000103196
0.000202591
2.38547e-05
2.38598e-05
0.000142758
0.000201986
0.00010305
0.000194911
0.000142471
0.00020259
0.000103185
7.77291e-05
7.77294e-05
0.000178374
7.77722e-05
7.77718e-05
9.97492e-05
5.06954e-05
9.96453e-05
5.07043e-05
2.38674e-05
2.38722e-05
9.97567e-05
5.069e-05
9.96435e-05
5.07016e-05
0.00019843
0.000198423
0.000198441
0.000200494
0.000200522
0.000200515
0.000200529
0.000143362
0.000103323
0.000204179
0.00019664
0.000143082
0.000103447
0.000204765
2.38655e-05
2.38705e-05
0.000143355
0.000204177
0.000103308
0.000196622
0.000143074
0.000204761
0.000103438
7.78414e-05
7.78394e-05
0.000179617
7.78831e-05
7.78809e-05
9.99441e-05
5.07197e-05
9.98418e-05
5.07289e-05
2.38777e-05
2.38823e-05
9.9949e-05
5.0718e-05
9.98462e-05
5.07264e-05
0.000201223
0.000201215
0.000201232
0.000203205
0.000203232
0.000203225
0.000203237
0.000143921
0.000103566
0.000206288
0.000198274
0.000143653
0.000103681
0.000206851
2.38759e-05
2.38807e-05
0.000143913
0.000206283
0.000103557
0.000198258
0.000143637
0.000206845
0.000103677
7.79475e-05
7.79433e-05
0.000180807
7.79868e-05
7.79829e-05
0.000100125
5.07437e-05
0.000100027
5.07516e-05
2.38875e-05
2.38919e-05
0.000100127
5.07392e-05
0.000100027
5.07503e-05
0.000203913
0.000203905
0.00020392
0.000205809
0.000205832
0.000205826
0.000205835
0.000144437
0.000103789
0.000208304
0.000199828
0.000144186
0.000103896
0.000208841
2.38858e-05
2.38902e-05
0.000144435
0.0002083
0.000103786
0.000199815
0.000144176
0.000208837
0.000103897
7.80466e-05
7.80411e-05
0.000181901
7.80836e-05
7.80779e-05
0.000100289
5.0764e-05
0.000100194
5.07734e-05
2.38968e-05
2.39009e-05
0.000100292
5.07614e-05
0.000100201
5.07707e-05
0.000206493
0.000206486
0.000206498
0.000208298
0.000208315
0.000208309
0.000208314
0.000144921
0.000103995
0.000210226
0.000201299
0.000144692
0.000104096
0.000210734
2.3895e-05
2.38991e-05
0.000144908
0.000210221
0.000103997
0.000201288
0.000144662
0.000210729
0.000104098
7.81383e-05
7.81304e-05
0.000182869
7.8173e-05
7.81647e-05
0.000100438
5.0785e-05
0.000100356
5.07953e-05
2.39055e-05
2.39094e-05
0.000100443
5.0782e-05
0.000100363
5.07906e-05
0.000208953
0.000208948
0.000208954
0.000210663
0.000210669
0.000210666
0.000210665
0.000145377
0.000104186
0.000212049
0.000202682
0.000145156
0.000104278
0.000212525
2.39035e-05
2.39073e-05
0.00014538
0.000212042
0.000104184
0.000202668
0.000145142
0.000212518
0.000104276
7.82227e-05
7.82146e-05
0.000183793
7.82543e-05
7.82463e-05
0.000100571
5.0804e-05
0.000100498
5.08118e-05
2.39136e-05
2.39172e-05
0.000100578
5.08038e-05
0.000100503
5.0809e-05
0.000211283
0.00021128
0.000211279
0.000212894
0.000212886
0.000212887
0.000212877
0.000145769
0.000104356
0.000213765
0.000203968
0.000145568
0.000104438
0.000214206
2.39114e-05
2.3915e-05
0.000145778
0.00021376
0.000104352
0.000203957
0.000145569
0.000214201
0.000104434
7.82964e-05
7.82901e-05
0.000184663
7.83246e-05
7.83185e-05
0.000100678
5.08236e-05
0.000100617
5.08297e-05
2.3921e-05
2.39244e-05
0.000100691
5.08186e-05
0.00010063
5.08266e-05