/*--------------------------------*- C++ -*----------------------------------*\
| =========                 |                                                 |
| \\      /  F ield         | OpenFOAM: The Open Source CFD Toolbox           |
|  \\    /   O peration     | Version:  v2012                                 |
|   \\  /    A nd           | Website:  www.openfoam.com                      |
|    \\/     M anipulation  |                                                 |
\*---------------------------------------------------------------------------*/
FoamFile
{
    version     2.0;
    format      ascii;
    class       volScalarField;
    location    "350";
    object      p;
}
// * * * * * * * * * * * * * * * * * * * * * * * * * * * * * * * * * * * * * //

dimensions      [0 2 -2 0 0 0 0];


internalField   nonuniform List<scalar> 
85864
(
0.00167167
0.00167159
0.00167316
0.00167159
0.00167159
0.00167159
0.00167316
0.0016736
0.0016736
0.00167361
0.00167167
0.00167361
0.00167357
0.00167361
0.0016736
0.00167361
0.00167361
0.00167357
0.00167357
0.00167163
0.00167355
0.0016736
0.00167361
0.00167163
0.00167357
0.00167355
0.00167361
0.00167361
0.00167361
0.0016736
0.00166925
0.00167361
0.00167361
0.00166924
0.00166925
0.00167361
0.00166924
0.00167361
0.00166924
0.00166927
0.0016736
0.00167361
0.00166926
0.00166924
0.00167361
0.00166924
0.00166924
0.00166924
0.00166929
0.00167357
0.00166925
0.0016736
0.00166925
0.00166934
0.00167359
0.00166929
0.00167357
0.00166925
0.0016736
0.00166925
0.00166934
0.00167359
0.00166924
0.00167362
0.00167362
0.00166924
0.00166924
0.00167362
0.00166924
0.00166925
0.00167361
0.00166924
0.00167361
0.00166924
0.00166927
0.00167361
0.0016736
0.00166924
0.00166926
0.00167361
0.00166929
0.00167357
0.00166925
0.0016736
0.00166925
0.00166934
0.00167359
0.00166929
0.00167357
0.00166925
0.0016736
0.00166934
0.00166925
0.00167359
0.00166924
0.00167362
0.00167362
0.00166924
0.00166924
0.00167362
0.00166924
0.00166925
0.00167168
0.00166944
0.00167337
0.00167337
0.00166994
0.00166963
0.00166963
0.0016735
0.00166944
0.00167337
0.00167337
0.00166994
0.00166963
0.00166963
0.0016735
0.00167168
0.00166962
0.00167343
0.00166932
0.00167355
0.00166948
0.00166937
0.00167338
0.00166962
0.00167343
0.00166932
0.00167355
0.00166937
0.00166948
0.00167338
0.00166962
0.00167343
0.00166932
0.00167355
0.00166937
0.00166948
0.00167338
0.00166965
0.00166941
0.00167354
0.00167336
0.00166939
0.00166966
0.00167334
0.00166962
0.00167343
0.00166932
0.00167355
0.00166937
0.00166948
0.00167338
0.00166965
0.00166941
0.00167336
0.00167354
0.00166966
0.00166939
0.00167334
0.00167159
0.00167316
0.00163585
0.00163577
0.00163577
0.00163734
0.00160011
0.00160002
0.00160002
0.00160159
0.00156443
0.00156434
0.00156434
0.00156591
0.00152881
0.00152872
0.00152872
0.00153028
0.00149325
0.00149315
0.00149315
0.00149472
0.00145773
0.00145764
0.00145764
0.0014592
0.00142226
0.00142217
0.00142217
0.00142373
0.00138684
0.00138674
0.00138674
0.0013883
0.00135145
0.00135135
0.00135135
0.00135291
0.0013161
0.00131599
0.001316
0.00131755
0.00128078
0.00128067
0.00128067
0.00128223
0.00124547
0.00124538
0.00124538
0.00124693
0.0012102
0.0012101
0.0012101
0.00121166
0.00117494
0.00117485
0.00117485
0.0011764
0.0011397
0.00113961
0.00113961
0.00114116
0.00110447
0.00110438
0.00110438
0.00110594
0.00106924
0.00106916
0.00106916
0.00107072
0.00103402
0.00103394
0.00103394
0.0010355
0.00099879
0.000998714
0.000998713
0.00100027
0.000963549
0.000963476
0.000963475
0.000965037
0.000928288
0.000928218
0.000928217
0.000929781
0.000893
0.000892932
0.000892932
0.000894498
0.000857678
0.000857612
0.000857613
0.000859182
0.000822315
0.000822252
0.000822253
0.000823825
0.000786908
0.000786848
0.000786849
0.000788425
0.000751455
0.000751398
0.000751399
0.000752978
0.000715957
0.000715903
0.000715904
0.000717487
0.000680417
0.000680366
0.000680367
0.000681953
0.000644837
0.00064479
0.00064479
0.000646381
0.000609223
0.000609179
0.000609179
0.000610773
0.000573575
0.000573535
0.000573535
0.000575132
0.000537897
0.00053786
0.00053786
0.000539459
0.000502186
0.000502153
0.000502152
0.000503755
0.000466439
0.000466409
0.000466409
0.000468014
0.000430653
0.000430627
0.000430626
0.000432235
0.000394824
0.0003948
0.0003948
0.000396412
0.000358945
0.000358924
0.000358924
0.00036054
0.000323014
0.000322996
0.000322996
0.000324615
0.000287028
0.000287012
0.000287012
0.000288635
0.000250987
0.000250972
0.000250973
0.000252598
0.000214894
0.000214881
0.000214882
0.000216509
0.000178751
0.00017874
0.00017874
0.000180366
0.000142564
0.000142554
0.000142554
0.000144177
0.000106337
0.000106332
0.000106332
0.000107941
7.00929e-05
7.00799e-05
7.00792e-05
7.16393e-05
3.44111e-05
3.39639e-05
3.39613e-05
3.52253e-05
7.00311e-06
8.05591e-06
8.05143e-06
5.94128e-06
0.00164307
0.00167159
0.00164472
0.00164472
0.00167316
0.00164307
0.00164472
0.00164472
0.00167159
0.00164472
0.00164472
0.00164307
0.00167159
0.00164472
0.00164472
0.00164307
0.00163734
0.00160731
0.00163577
0.00163577
0.00160895
0.00160895
0.00163734
0.00160731
0.00163577
0.00163577
0.00160895
0.00160895
0.00163577
0.00160895
0.00160895
0.00163734
0.00160731
0.00163577
0.00160895
0.00160895
0.00160731
0.00160159
0.00157162
0.00160002
0.00160002
0.00157326
0.00157326
0.00160159
0.00157162
0.00160002
0.00160002
0.00157326
0.00157326
0.00160002
0.00157326
0.00157326
0.00160159
0.00157162
0.00160002
0.00157326
0.00157326
0.00157162
0.00156591
0.00153599
0.00156434
0.00156434
0.00153762
0.00153762
0.00156591
0.00153599
0.00156434
0.00156434
0.00153762
0.00153762
0.00156434
0.00153762
0.00153762
0.00156591
0.00153599
0.00156434
0.00153762
0.00153762
0.00153598
0.00153028
0.00150041
0.00152872
0.00152872
0.00150204
0.00150204
0.00153028
0.00150041
0.00152872
0.00152872
0.00150204
0.00150204
0.00152872
0.00150204
0.00150204
0.00153028
0.00150041
0.00152872
0.00150204
0.00150204
0.00150041
0.00149472
0.00146488
0.00149315
0.00149315
0.00146651
0.00146651
0.00149472
0.00146488
0.00149315
0.00149315
0.00146651
0.00146651
0.00149315
0.00146651
0.00146651
0.00149472
0.00146488
0.00149315
0.00146651
0.00146651
0.00146488
0.0014592
0.0014294
0.00145764
0.00145764
0.00143103
0.00143103
0.0014592
0.00142941
0.00145764
0.00145764
0.00143103
0.00143103
0.00145764
0.00143103
0.00143103
0.0014592
0.0014294
0.00145764
0.00143103
0.00143103
0.0014294
0.00142373
0.00139397
0.00142217
0.00142217
0.00139559
0.00139559
0.00142373
0.00139397
0.00142217
0.00142217
0.00139559
0.00139559
0.00142217
0.00139559
0.00139559
0.00142373
0.00139397
0.00142217
0.00139559
0.00139559
0.00139397
0.0013883
0.00135857
0.00138674
0.00138674
0.00136019
0.00136019
0.0013883
0.00135857
0.00138674
0.00138674
0.00136019
0.00136019
0.00138674
0.00136019
0.00136019
0.0013883
0.00135857
0.00138674
0.00136019
0.00136019
0.00135857
0.00135291
0.00132321
0.00135135
0.00135135
0.00132483
0.00132483
0.00135291
0.00132321
0.00135135
0.00135135
0.00132483
0.00132483
0.00135135
0.00132483
0.00132483
0.00135291
0.00132321
0.00135135
0.00132483
0.00132483
0.00132321
0.00131755
0.00128788
0.00131599
0.001316
0.0012895
0.0012895
0.00131755
0.00128788
0.001316
0.001316
0.0012895
0.0012895
0.001316
0.0012895
0.0012895
0.00131755
0.00128788
0.001316
0.0012895
0.0012895
0.00128788
0.00128223
0.00125258
0.00128067
0.00128067
0.0012542
0.0012542
0.00128223
0.00125258
0.00128067
0.00128067
0.0012542
0.0012542
0.00128067
0.0012542
0.0012542
0.00128223
0.00125258
0.00128067
0.0012542
0.0012542
0.00125258
0.00124693
0.0012173
0.00124538
0.00124538
0.00121892
0.00121892
0.00124693
0.0012173
0.00124538
0.00124538
0.00121892
0.00121892
0.00124538
0.00121892
0.00121892
0.00124693
0.0012173
0.00124538
0.00121892
0.00121892
0.0012173
0.00121166
0.00118204
0.0012101
0.0012101
0.00118366
0.00118366
0.00121166
0.00118204
0.0012101
0.0012101
0.00118366
0.00118366
0.0012101
0.00118366
0.00118366
0.00121166
0.00118204
0.0012101
0.00118366
0.00118366
0.00118204
0.0011764
0.0011468
0.00117485
0.00117485
0.00114842
0.00114842
0.0011764
0.0011468
0.00117485
0.00117485
0.00114842
0.00114842
0.00117485
0.00114842
0.00114842
0.0011764
0.0011468
0.00117485
0.00114842
0.00114842
0.0011468
0.00114116
0.00111157
0.00113961
0.00113961
0.00111319
0.00111319
0.00114116
0.00111157
0.00113961
0.00113961
0.00111319
0.00111319
0.00113961
0.00111319
0.00111319
0.00114116
0.00111157
0.00113961
0.00111319
0.00111319
0.00111157
0.00110594
0.00107635
0.00110438
0.00110438
0.00107796
0.00107796
0.00110594
0.00107635
0.00110438
0.00110438
0.00107796
0.00107796
0.00110438
0.00107796
0.00107796
0.00110594
0.00107635
0.00110438
0.00107796
0.00107796
0.00107635
0.00107072
0.00104113
0.00106916
0.00106916
0.00104274
0.00104274
0.00107072
0.00104113
0.00106916
0.00106916
0.00104274
0.00104274
0.00106916
0.00104274
0.00104274
0.00107072
0.00104113
0.00106916
0.00104274
0.00104274
0.00104113
0.0010355
0.00100591
0.00103394
0.00103394
0.00100752
0.00100752
0.0010355
0.00100591
0.00103394
0.00103394
0.00100752
0.00100752
0.00103394
0.00100752
0.00100752
0.0010355
0.00100591
0.00103394
0.00100752
0.00100752
0.00100591
0.00100027
0.000970674
0.000998714
0.000998714
0.000972287
0.000972287
0.00100027
0.000970674
0.000998713
0.000998713
0.000972287
0.000972286
0.000998714
0.000972287
0.000972287
0.00100027
0.000970674
0.000998714
0.000972286
0.000972286
0.000970673
0.000965037
0.000935421
0.000963476
0.000963476
0.000937034
0.000937034
0.000965037
0.000935421
0.000963475
0.000963475
0.000937034
0.000937034
0.000963475
0.000937035
0.000937034
0.000965037
0.000935421
0.000963475
0.000937034
0.000937034
0.00093542
0.000929781
0.000900143
0.000928218
0.000928218
0.000901757
0.000901757
0.000929781
0.000900143
0.000928218
0.000928217
0.000901757
0.000901756
0.000928217
0.000901756
0.000901756
0.000929781
0.000900142
0.000928217
0.000901756
0.000901756
0.000900142
0.000894499
0.000864832
0.000892933
0.000892932
0.000866446
0.000866446
0.000894498
0.000864832
0.000892932
0.000892932
0.000866446
0.000866447
0.000892932
0.000866446
0.000866446
0.000894498
0.000864832
0.000892932
0.000866447
0.000866446
0.000864831
0.000859182
0.000829481
0.000857613
0.000857612
0.000831097
0.000831097
0.000859182
0.000829481
0.000857613
0.000857613
0.000831097
0.000831097
0.000857612
0.000831096
0.000831096
0.000859183
0.000829481
0.000857613
0.000831097
0.000831097
0.000829481
0.000823826
0.000794087
0.000822253
0.000822252
0.000795704
0.000795704
0.000823825
0.000794087
0.000822253
0.000822253
0.000795704
0.000795705
0.000822252
0.000795703
0.000795704
0.000823826
0.000794087
0.000822253
0.000795704
0.000795704
0.000794086
0.000788425
0.000758647
0.000786849
0.000786848
0.000760265
0.000760265
0.000788424
0.000758647
0.000786849
0.000786849
0.000760265
0.000760266
0.000786848
0.000760265
0.000760265
0.000788425
0.000758647
0.000786848
0.000760266
0.000760265
0.000758647
0.000752978
0.000723162
0.000751398
0.000751398
0.000724782
0.000724781
0.000752978
0.000723162
0.000751399
0.000751399
0.000724782
0.000724782
0.000751398
0.000724781
0.000724781
0.000752979
0.000723163
0.000751398
0.000724782
0.000724782
0.000723162
0.000717487
0.000687634
0.000715904
0.000715903
0.000689254
0.000689254
0.000717486
0.000687635
0.000715904
0.000715904
0.000689255
0.000689255
0.000715904
0.000689254
0.000689255
0.000717488
0.000687635
0.000715904
0.000689255
0.000689255
0.000687634
0.000681953
0.000652067
0.000680366
0.000680366
0.000653688
0.000653688
0.000681953
0.000652067
0.000680367
0.000680367
0.000653688
0.000653688
0.000680366
0.000653688
0.000653688
0.000681953
0.000652067
0.000680366
0.000653688
0.000653688
0.000652067
0.00064638
0.000616463
0.00064479
0.00064479
0.000618084
0.000618085
0.00064638
0.000616464
0.00064479
0.00064479
0.000618084
0.000618084
0.000644791
0.000618085
0.000618085
0.00064638
0.000616463
0.000644791
0.000618085
0.000618085
0.000616464
0.000610772
0.000580827
0.000609178
0.000609179
0.000582448
0.000582449
0.000610772
0.000580828
0.000609178
0.000609178
0.000582448
0.000582449
0.000609179
0.000582449
0.000582449
0.000610772
0.000580827
0.000609179
0.000582449
0.000582449
0.000580827
0.000575131
0.000545159
0.000573535
0.000573535
0.000546781
0.000546782
0.000575131
0.00054516
0.000573535
0.000573535
0.000546781
0.000546781
0.000573535
0.000546782
0.000546782
0.000575131
0.000545159
0.000573535
0.000546781
0.000546782
0.00054516
0.000539459
0.00050946
0.00053786
0.00053786
0.000511082
0.000511083
0.000539459
0.000509461
0.000537859
0.000537859
0.000511082
0.000511082
0.00053786
0.000511083
0.000511083
0.000539458
0.000509459
0.00053786
0.000511082
0.000511082
0.00050946
0.000503754
0.000473725
0.000502152
0.000502153
0.000475348
0.000475348
0.000503754
0.000473726
0.000502152
0.000502152
0.000475348
0.000475348
0.000502153
0.000475348
0.000475348
0.000503754
0.000473725
0.000502152
0.000475348
0.000475348
0.000473725
0.000468014
0.000437952
0.000466409
0.000466409
0.000439576
0.000439576
0.000468014
0.000437953
0.000466409
0.000466409
0.000439575
0.000439575
0.000466409
0.000439576
0.000439576
0.000468014
0.000437952
0.000466409
0.000439575
0.000439575
0.000437952
0.000432235
0.000402135
0.000430626
0.000430627
0.00040376
0.00040376
0.000432235
0.000402136
0.000430626
0.000430626
0.00040376
0.00040376
0.000430626
0.00040376
0.00040376
0.000432235
0.000402136
0.000430626
0.00040376
0.00040376
0.000402136
0.000396411
0.000366271
0.000394799
0.0003948
0.000367896
0.000367897
0.000396411
0.000366272
0.000394799
0.0003948
0.000367896
0.000367896
0.0003948
0.000367897
0.000367897
0.000396411
0.000366271
0.0003948
0.000367897
0.000367897
0.000366271
0.000360539
0.000330354
0.000358924
0.000358924
0.000331981
0.000331982
0.00036054
0.000330355
0.000358923
0.000358924
0.000331981
0.000331981
0.000358924
0.000331982
0.000331982
0.000360539
0.000330354
0.000358924
0.000331981
0.000331982
0.000330355
0.000324614
0.000294382
0.000322995
0.000322996
0.00029601
0.000296011
0.000324615
0.000294383
0.000322995
0.000322995
0.00029601
0.000296011
0.000322996
0.000296011
0.000296011
0.000324615
0.000294383
0.000322996
0.000296011
0.000296011
0.000294383
0.000288633
0.000258354
0.000287011
0.000287011
0.000259983
0.000259984
0.000288633
0.000258355
0.000287011
0.000287012
0.000259984
0.000259984
0.000287012
0.000259984
0.000259985
0.000288634
0.000258355
0.000287012
0.000259984
0.000259985
0.000258356
0.000252596
0.000222274
0.000250971
0.000250972
0.000223904
0.000223904
0.000252597
0.000222275
0.000250972
0.000250972
0.000223904
0.000223904
0.000250973
0.000223904
0.000223905
0.000252597
0.000222275
0.000250973
0.000223905
0.000223905
0.000222275
0.000216507
0.000186144
0.000214881
0.000214881
0.000187773
0.000187772
0.000216507
0.000186144
0.000214881
0.000214881
0.000187773
0.000187773
0.000214881
0.000187772
0.000187773
0.000216508
0.000186144
0.000214882
0.000187773
0.000187773
0.000186143
0.000180366
0.000149967
0.00017874
0.000178739
0.000151594
0.000151593
0.000180366
0.000149967
0.00017874
0.00017874
0.000151595
0.000151594
0.00017874
0.000151594
0.000151594
0.000180367
0.000149967
0.00017874
0.000151594
0.000151594
0.000149966
0.000144177
0.000113751
0.000142554
0.000142554
0.000115374
0.000115374
0.000144176
0.000113752
0.000142554
0.000142554
0.000115374
0.000115375
0.000142555
0.000115375
0.000115375
0.000144177
0.000113751
0.000142554
0.000115374
0.000115375
0.000113751
0.000107941
7.7503e-05
0.000106333
0.000106333
7.91205e-05
7.91191e-05
0.000107941
7.75026e-05
0.000106332
0.000106332
7.91195e-05
7.91184e-05
0.000106333
7.91182e-05
7.91184e-05
0.000107941
7.75011e-05
0.000106333
7.91186e-05
7.91186e-05
7.7501e-05
7.16411e-05
4.12439e-05
7.00822e-05
7.0081e-05
4.28868e-05
4.28871e-05
7.164e-05
4.12448e-05
7.00811e-05
7.00796e-05
4.28853e-05
4.28831e-05
7.00793e-05
4.28858e-05
4.28823e-05
7.16395e-05
4.12408e-05
7.00793e-05
4.28831e-05
4.28816e-05
4.12397e-05
3.52316e-05
8.76208e-06
3.3967e-05
3.39663e-05
1.12529e-05
1.12536e-05
3.52303e-05
8.76061e-06
3.39649e-05
3.39617e-05
1.12537e-05
1.12462e-05
3.39603e-05
1.12521e-05
1.12429e-05
3.52272e-05
8.75533e-06
3.39596e-05
1.12473e-05
1.1247e-05
8.7538e-06
5.94937e-06
8.05855e-06
8.05581e-06
5.95155e-06
8.05888e-06
8.05034e-06
7.00245e-06
6.99938e-06
6.99625e-06
8.04923e-06
5.94433e-06
8.05119e-06
0.00166031
0.00166029
0.00167361
0.00167361
0.00166029
0.00166031
0.00166029
0.00167167
0.00167167
0.0016448
0.0016448
0.0016448
0.0016448
0.00166045
0.00167357
0.00167163
0.00166263
0.00166036
0.00166267
0.00167355
0.00166028
0.00166045
0.00167163
0.00166263
0.00166267
0.00166036
0.00167355
0.00167361
0.00167361
0.00166098
0.0016603
0.0016603
0.00162452
0.00163779
0.00163779
0.0016245
0.00163779
0.0016245
0.00162452
0.00163779
0.00163779
0.0016245
0.00163585
0.00163585
0.00163585
0.00160904
0.00160904
0.00160904
0.00160904
0.00162466
0.00163775
0.00163582
0.00162683
0.00163773
0.00162457
0.00162687
0.00163779
0.0016245
0.00162466
0.00163582
0.00163775
0.00162683
0.00163773
0.00162687
0.00162457
0.0016378
0.0016378
0.00162518
0.00162451
0.00162451
0.0015888
0.00160205
0.00160205
0.00158878
0.00160205
0.00158878
0.0015888
0.00160204
0.00160205
0.00158878
0.00160011
0.00160011
0.00160011
0.00157334
0.00157334
0.00157334
0.00157334
0.00158893
0.00160201
0.00160007
0.0015911
0.00160199
0.00158885
0.00159114
0.00160205
0.00158878
0.00158893
0.00160007
0.00160201
0.0015911
0.00160199
0.00159114
0.00158885
0.00160205
0.00160205
0.00158946
0.00158879
0.00158879
0.00155315
0.00156637
0.00156637
0.00155313
0.00156637
0.00155312
0.00155315
0.00156637
0.00156637
0.00155313
0.00156443
0.00156443
0.00156443
0.00153771
0.00153771
0.00153771
0.00153771
0.00155327
0.00156633
0.00156439
0.00155543
0.00156631
0.00155319
0.00155548
0.00156637
0.00155312
0.00155327
0.00156439
0.00156633
0.00155543
0.00156631
0.00155548
0.00155319
0.00156637
0.00156637
0.00155379
0.00155313
0.00155313
0.00151755
0.00153075
0.00153075
0.00151753
0.00153075
0.00151753
0.00151755
0.00153075
0.00153075
0.00151753
0.00152881
0.00152881
0.00152881
0.00150213
0.00150213
0.00150213
0.00150213
0.00151767
0.00153071
0.00152877
0.00151982
0.00153069
0.00151759
0.00151987
0.00153075
0.00151753
0.00151767
0.00152877
0.00153071
0.00151982
0.00153069
0.00151987
0.00151759
0.00153076
0.00153076
0.00151819
0.00151753
0.00151753
0.001482
0.00149519
0.00149519
0.00148199
0.00149519
0.00148198
0.001482
0.00149519
0.00149519
0.00148199
0.00149325
0.00149325
0.00149325
0.00146661
0.00146661
0.00146661
0.00146661
0.00148212
0.00149515
0.0014932
0.00148427
0.00149512
0.00148205
0.00148432
0.00149519
0.00148198
0.00148212
0.0014932
0.00149515
0.00148427
0.00149512
0.00148432
0.00148205
0.00149519
0.00149519
0.00148264
0.00148199
0.00148199
0.00144651
0.00145968
0.00145967
0.00144649
0.00145968
0.00144649
0.00144651
0.00145968
0.00145968
0.00144649
0.00145773
0.00145773
0.00145773
0.00143113
0.00143113
0.00143113
0.00143113
0.00144663
0.00145964
0.00145768
0.00144877
0.00145961
0.00144655
0.00144881
0.00145968
0.00144649
0.00144663
0.00145768
0.00145964
0.00144877
0.00145961
0.00144881
0.00144655
0.00145968
0.00145968
0.00144714
0.00144649
0.00144649
0.00141106
0.00142421
0.00142421
0.00141104
0.00142423
0.00141104
0.00141106
0.00142421
0.00142421
0.00141104
0.00142227
0.00142226
0.00142226
0.00139569
0.00139569
0.00139569
0.00139569
0.00141117
0.00142417
0.00142222
0.00141331
0.00142414
0.0014111
0.00141336
0.00142422
0.00141104
0.00141117
0.00142222
0.00142417
0.00141331
0.00142414
0.00141335
0.0014111
0.00142422
0.00142422
0.00141168
0.00141104
0.00141104
0.00137565
0.00138879
0.00138879
0.00137564
0.00138879
0.00137563
0.00137565
0.00138879
0.00138879
0.00137564
0.00138684
0.00138684
0.00138684
0.0013603
0.0013603
0.0013603
0.0013603
0.00137576
0.00138875
0.00138679
0.00137789
0.00138872
0.00137569
0.00137794
0.00138879
0.00137563
0.00137576
0.00138679
0.00138875
0.00137789
0.00138872
0.00137794
0.00137569
0.00138879
0.00138879
0.00137627
0.00137564
0.00137564
0.00134027
0.0013534
0.0013534
0.00134026
0.00135341
0.00134026
0.00134027
0.0013534
0.0013534
0.00134026
0.00135145
0.00135145
0.00135145
0.00132494
0.00132494
0.00132494
0.00132494
0.00134039
0.00135336
0.0013514
0.00134251
0.00135333
0.00134032
0.00134256
0.00135341
0.00134026
0.00134039
0.0013514
0.00135336
0.00134251
0.00135333
0.00134256
0.00134032
0.00135341
0.00135341
0.00134089
0.00134026
0.00134026
0.00130493
0.00131805
0.00131805
0.00130492
0.00131806
0.00130492
0.00130493
0.00131805
0.00131805
0.00130492
0.0013161
0.0013161
0.0013161
0.00128961
0.00128961
0.00128961
0.00128961
0.00130504
0.00131801
0.00131604
0.00130716
0.00131798
0.00130498
0.00130721
0.00131806
0.00130492
0.00130504
0.00131604
0.00131801
0.00130716
0.00131798
0.00130721
0.00130498
0.00131806
0.00131806
0.00130554
0.00130492
0.00130492
0.00126962
0.00128273
0.00128273
0.00126962
0.00128274
0.00126961
0.00126962
0.00128273
0.00128273
0.00126962
0.00128078
0.00128078
0.00128078
0.0012543
0.0012543
0.0012543
0.0012543
0.00126973
0.00128269
0.00128071
0.00127184
0.00128266
0.00126966
0.00127189
0.00128274
0.00126961
0.00126973
0.00128071
0.00128269
0.00127184
0.00128266
0.00127189
0.00126966
0.00128274
0.00128274
0.00127023
0.00126961
0.00126961
0.00123434
0.00124744
0.00124744
0.00123433
0.00124745
0.00123433
0.00123434
0.00124744
0.00124744
0.00123433
0.00124547
0.00124547
0.00124547
0.00121901
0.00121901
0.00121901
0.00121901
0.00123444
0.0012474
0.00124541
0.00123656
0.00124736
0.00123438
0.00123659
0.00124745
0.00123433
0.00123444
0.00124541
0.0012474
0.00123656
0.00124736
0.00123659
0.00123438
0.00124744
0.00124744
0.00123494
0.00123433
0.00123433
0.00119907
0.00121217
0.00121217
0.00119907
0.00121218
0.00119907
0.00119907
0.00121217
0.00121217
0.00119907
0.0012102
0.0012102
0.0012102
0.00118375
0.00118375
0.00118375
0.00118375
0.00119918
0.00121213
0.00121014
0.00120129
0.00121209
0.00119912
0.00120132
0.00121218
0.00119907
0.00119918
0.00121014
0.00121213
0.00120129
0.00121209
0.00120132
0.00119912
0.00121217
0.00121217
0.00119967
0.00119907
0.00119907
0.00116383
0.00117692
0.00117691
0.00116382
0.00117693
0.00116382
0.00116383
0.00117692
0.00117691
0.00116382
0.00117494
0.00117494
0.00117494
0.00114851
0.00114851
0.00114851
0.00114851
0.00116393
0.00117688
0.00117488
0.00116604
0.00117684
0.00116387
0.00116607
0.00117693
0.00116382
0.00116393
0.00117488
0.00117688
0.00116604
0.00117684
0.00116607
0.00116387
0.00117692
0.00117692
0.00116442
0.00116382
0.00116382
0.0011286
0.00114169
0.00114168
0.00112859
0.00114169
0.00112859
0.0011286
0.00114169
0.00114168
0.00112859
0.0011397
0.0011397
0.0011397
0.00111327
0.00111327
0.00111327
0.00111327
0.0011287
0.00114164
0.00113964
0.0011308
0.00114161
0.00112864
0.00113083
0.00114169
0.00112859
0.0011287
0.00113964
0.00114164
0.0011308
0.00114161
0.00113083
0.00112864
0.00114169
0.00114169
0.00112919
0.00112859
0.00112859
0.00109338
0.00110646
0.00110645
0.00109337
0.00110647
0.00109337
0.00109338
0.00110646
0.00110645
0.00109337
0.00110447
0.00110447
0.00110447
0.00107805
0.00107805
0.00107805
0.00107805
0.00109347
0.00110642
0.00110441
0.00109558
0.00110638
0.00109342
0.00109561
0.00110647
0.00109337
0.00109347
0.00110441
0.00110642
0.00109558
0.00110638
0.00109561
0.00109342
0.00110646
0.00110647
0.00109396
0.00109337
0.00109337
0.00105816
0.00107125
0.00107124
0.00105816
0.00107125
0.00105815
0.00105816
0.00107125
0.00107124
0.00105816
0.00106924
0.00106924
0.00106924
0.00104282
0.00104282
0.00104282
0.00104282
0.00105826
0.0010712
0.00106919
0.00106035
0.00107116
0.0010582
0.00106039
0.00107125
0.00105816
0.00105826
0.00106919
0.0010712
0.00106035
0.00107116
0.00106039
0.0010582
0.00107125
0.00107125
0.00105874
0.00105815
0.00105815
0.00102294
0.00103603
0.00103602
0.00102294
0.00103604
0.00102294
0.00102294
0.00103603
0.00103602
0.00102294
0.00103402
0.00103402
0.00103402
0.0010076
0.0010076
0.0010076
0.0010076
0.00102304
0.00103599
0.00103397
0.00102513
0.00103595
0.00102298
0.00102516
0.00103604
0.00102294
0.00102304
0.00103397
0.00103599
0.00102513
0.00103595
0.00102516
0.00102298
0.00103603
0.00103603
0.00102352
0.00102293
0.00102293
0.000987717
0.00100081
0.0010008
0.000987715
0.00100082
0.000987713
0.000987716
0.00100081
0.0010008
0.000987715
0.00099879
0.00099879
0.00099879
0.000972361
0.000972361
0.000972361
0.000972361
0.000987811
0.00100077
0.000998743
0.000989906
0.00100072
0.000987756
0.000989935
0.00100082
0.000987713
0.000987811
0.000998743
0.00100077
0.000989905
0.00100072
0.000989934
0.000987756
0.00100081
0.00100081
0.000988292
0.00098771
0.00098771
0.000952477
0.000965576
0.000965567
0.000952475
0.000965583
0.000952474
0.000952476
0.000965576
0.000965567
0.000952475
0.000963549
0.000963549
0.000963549
0.000937106
0.000937106
0.000937105
0.000937105
0.000952569
0.000965532
0.000963504
0.000954663
0.000965491
0.000952516
0.000954691
0.000965583
0.000952473
0.000952568
0.000963503
0.000965532
0.000954663
0.00096549
0.000954691
0.000952515
0.000965577
0.000965577
0.000953049
0.00095247
0.000952469
0.000917215
0.000930324
0.000930315
0.000917213
0.000930331
0.000917211
0.000917214
0.000930324
0.000930314
0.000917213
0.000928289
0.000928288
0.000928288
0.000901825
0.000901825
0.000901825
0.000901824
0.000917306
0.00093028
0.000928245
0.000919399
0.000930237
0.000917253
0.000919426
0.00093033
0.000917211
0.000917303
0.000928244
0.000930279
0.000919398
0.000930235
0.000919425
0.000917252
0.000930324
0.000930324
0.000917785
0.000917207
0.000917207
0.000881923
0.000895044
0.000895035
0.000881922
0.000895051
0.000881919
0.000881922
0.000895044
0.000895035
0.000881921
0.000893
0.000893
0.000893
0.000866512
0.000866512
0.000866512
0.000866512
0.000882012
0.000895
0.000892958
0.000884106
0.000894957
0.000881961
0.000884131
0.000895051
0.000881919
0.000882013
0.000892958
0.000895
0.000884106
0.000894957
0.000884131
0.000881961
0.000895044
0.000895044
0.000882491
0.000881915
0.000881916
0.000846594
0.000859731
0.000859721
0.000846593
0.000859737
0.000846591
0.000846595
0.000859731
0.000859721
0.000846593
0.000857678
0.000857678
0.000857678
0.00083116
0.000831159
0.00083116
0.000831159
0.000846683
0.000859686
0.000857637
0.000848776
0.000859643
0.000846633
0.000848801
0.000859737
0.000846592
0.000846684
0.000857638
0.000859687
0.000848777
0.000859643
0.000848801
0.000846632
0.000859731
0.000859732
0.000847161
0.000846587
0.000846588
0.000811224
0.000824376
0.000824367
0.000811223
0.000824383
0.00081122
0.000811225
0.000824377
0.000824369
0.000811224
0.000822314
0.000822315
0.000822315
0.000795764
0.000795763
0.000795764
0.000795764
0.000811312
0.000824332
0.000822276
0.000813405
0.000824288
0.000811262
0.000813429
0.000824384
0.000811222
0.000811312
0.000822277
0.000824333
0.000813406
0.000824289
0.00081343
0.000811263
0.000824377
0.000824377
0.000811789
0.000811217
0.000811217
0.000775809
0.000788979
0.000788969
0.000775808
0.000788984
0.000775805
0.000775809
0.000788979
0.00078897
0.000775808
0.000786907
0.000786908
0.000786908
0.000760322
0.000760322
0.000760323
0.000760322
0.000775896
0.000788934
0.00078687
0.000777989
0.00078889
0.000775846
0.000778012
0.000788985
0.000775806
0.000775896
0.000786871
0.000788935
0.00077799
0.00078889
0.000778013
0.000775847
0.000788979
0.00078898
0.000776372
0.000775802
0.000775803
0.000740347
0.000753535
0.000753525
0.000740347
0.00075354
0.000740344
0.000740348
0.000753535
0.000753526
0.000740347
0.000751454
0.000751455
0.000751455
0.000724836
0.000724835
0.000724836
0.000724835
0.000740434
0.00075349
0.00075142
0.000742528
0.000753445
0.000740385
0.00074255
0.000753541
0.000740345
0.000740435
0.00075142
0.000753492
0.000742529
0.000753446
0.00074255
0.000740386
0.000753536
0.000753536
0.00074091
0.000740342
0.000740342
0.000704843
0.000718046
0.000718037
0.000704842
0.000718052
0.00070484
0.000704843
0.000718046
0.000718037
0.000704842
0.000715957
0.000715958
0.000715957
0.000689306
0.000689305
0.000689306
0.000689306
0.000704928
0.000718002
0.000715924
0.000707023
0.000717956
0.000704881
0.000707043
0.000718053
0.00070484
0.000704929
0.000715925
0.000718003
0.000707024
0.000717957
0.000707044
0.000704881
0.000718048
0.000718048
0.000705403
0.000704837
0.000704838
0.000669298
0.000682516
0.000682507
0.000669296
0.000682522
0.000669295
0.000669297
0.000682516
0.000682507
0.000669297
0.000680417
0.000680417
0.000680417
0.000653736
0.000653735
0.000653736
0.000653736
0.000669382
0.000682472
0.000680386
0.000671476
0.000682425
0.000669335
0.000671495
0.000682522
0.000669294
0.000669382
0.000680386
0.000682473
0.000671476
0.000682426
0.000671495
0.000669335
0.000682517
0.000682518
0.000669855
0.000669292
0.000669292
0.000633714
0.000646946
0.000646936
0.000633713
0.000646952
0.000633711
0.000633713
0.000646946
0.000646937
0.000633712
0.000644837
0.000644838
0.000644838
0.000618129
0.000618129
0.000618129
0.00061813
0.000633797
0.000646902
0.000644808
0.00063589
0.000646855
0.000633751
0.000635908
0.000646952
0.000633711
0.000633797
0.000644808
0.000646902
0.00063589
0.000646855
0.000635908
0.000633751
0.000646948
0.000646948
0.00063427
0.000633708
0.000633708
0.000598095
0.00061134
0.000611331
0.000598094
0.000611346
0.000598092
0.000598094
0.00061134
0.00061133
0.000598094
0.000609223
0.000609223
0.000609223
0.00058249
0.00058249
0.00058249
0.00058249
0.000598178
0.000611296
0.000609196
0.000600271
0.000611248
0.000598133
0.000600287
0.000611346
0.000598092
0.000598178
0.000609195
0.000611296
0.00060027
0.000611248
0.000600287
0.000598132
0.000611342
0.000611342
0.00059865
0.00059809
0.00059809
0.000562445
0.000575702
0.000575692
0.000562444
0.000575708
0.000562442
0.000562444
0.000575701
0.000575692
0.000562444
0.000573576
0.000573575
0.000573576
0.000546819
0.00054682
0.000546819
0.00054682
0.000562526
0.000575657
0.000573551
0.000564619
0.000575609
0.000562482
0.000564634
0.000575707
0.000562442
0.000562526
0.00057355
0.000575657
0.000564619
0.000575608
0.000564634
0.000562481
0.000575703
0.000575703
0.000562998
0.000562439
0.000562439
0.000526763
0.000540032
0.000540022
0.000526762
0.000540038
0.000526761
0.000526762
0.000540032
0.000540022
0.000526762