/*--------------------------------*- C++ -*----------------------------------*\
| =========                 |                                                 |
| \\      /  F ield         | OpenFOAM: The Open Source CFD Toolbox           |
|  \\    /   O peration     | Version:  v2012                                 |
|   \\  /    A nd           | Website:  www.openfoam.com                      |
|    \\/     M anipulation  |                                                 |
\*---------------------------------------------------------------------------*/
FoamFile
{
    version     2.0;
    format      ascii;
    class       surfaceScalarField;
    location    "350";
    object      phi;
}
// * * * * * * * * * * * * * * * * * * * * * * * * * * * * * * * * * * * * * //

dimensions      [0 3 -1 0 0 0 0];
oriented        oriented;


internalField   nonuniform List<scalar> 
248808
(
-2.12769e-07
-2.13365e-07
1.85511e-07
1.85577e-07
0.00119096
-1.25333e-06
2.13154e-07
-2.80451e-07
1.22491e-06
2.581e-07
8.81013e-07
-2.81437e-07
2.36218e-07
-9.27496e-07
7.50316e-08
0.00113996
1.29311e-06
1.25615e-06
-2.38757e-07
-2.4672e-07
0.000269496
-2.86049e-07
1.26451e-06
2.63462e-07
8.81138e-07
-2.78755e-07
2.33401e-07
-9.27584e-07
7.55674e-08
0.00113948
7.47308e-08
-2.83296e-07
1.22777e-06
2.61019e-07
8.83921e-07
-2.8162e-07
2.36228e-07
-9.30343e-07
0.0011406
-1.29314e-06
2.1306e-07
7.5764e-08
-2.8889e-07
1.26458e-06
2.6629e-07
8.83758e-07
-2.81487e-07
2.36127e-07
-9.30321e-07
0.00113959
-2.38867e-07
-2.46534e-07
0.000269477
-7.90696e-09
4.05396e-08
0.00019205
-6.08578e-09
-7.98252e-09
4.057e-08
0.00019207
-6.0529e-09
6.06053e-08
2.20436e-10
0.000228355
2.54268e-10
-2.34337e-08
1.85611e-07
1.85847e-07
0.00119055
7.97476e-09
1.81991e-08
9.70703e-05
-1.95789e-08
-4.05586e-08
1.06395e-07
0.000244398
1.26244e-08
1.59665e-08
9.70872e-05
1.59044e-08
9.7086e-05
1.95111e-08
4.09914e-08
0.000276421
-1.24754e-08
2.1974e-08
4.09812e-08
0.000276376
-1.26482e-08
1.0398e-07
0.000244401
1.25586e-08
1.04052e-07
0.000244414
1.25621e-08
3.23042e-09
3.29009e-07
9.62858e-07
-8.54523e-07
7.81795e-07
-1.0301e-06
0.00116167
1.75533e-09
0.00025015
-1.81966e-09
1.92669e-07
4.27243e-08
0.000192017
-6.09836e-09
6.05805e-08
0.000228319
-2.34161e-08
3.90128e-10
3.28919e-07
9.62924e-07
-8.57273e-07
7.81847e-07
-1.03281e-06
0.00116165
-2.18755e-08
1.03936e-07
0.000244346
1.4964e-08
0.00025012
1.95258e-07
-2.066e-09
4.31884e-08
0.00027633
-1.22046e-08
-1.59432e-08
4.32239e-08
0.000276426
-1.20324e-08
7.95463e-09
9.70797e-05
0.000192032
-6.01226e-09
5.82159e-09
-3.53264e-08
1.47414e-09
0.000192078
-2.58454e-08
5.13621e-08
0.000261312
2.62719e-10
7.84824e-05
1.00526e-09
-2.5016e-08
-7.85274e-05
-1.86715e-09
7.85543e-05
2.22159e-09
5.67734e-09
-3.7654e-08
0.000192099
0.000261419
-2.36282e-08
3.92234e-10
5.14982e-08
-4.44175e-09
-5.34017e-08
0.000261454
9.10469e-10
-2.49699e-08
-7.32448e-10
-0.000142162
0.000142186
2.72957e-09
2.62846e-08
-8.22206e-11
-5.71044e-08
0.000228383
0.00022221
-2.4403e-08
6.05597e-08
0.000169693
1.30902e-09
5.69617e-11
-5.7051e-08
0.00022224
-3.28228e-11
0.000169719
-5.73185e-09
-2.38597e-08
9.70999e-05
-2.14798e-08
9.71145e-05
-2.16288e-08
9.71133e-05
2.95869e-08
-2.57301e-08
-0.000220936
2.3666e-08
-5.70583e-08
0.000220965
0.000250166
-3.27633e-08
9.51805e-08
5.07188e-08
8.46001e-09
-4.18105e-08
-1.75826e-08
0.00027645
0.000181699
2.50514e-08
-1.30146e-08
1.25191e-08
0.000181724
-9.14749e-08
-3.27456e-08
0.000250223
-2.22181e-08
5.10327e-08
2.96157e-08
-2.57851e-08
-0.000220869
2.16447e-08
-5.92647e-08
0.000220903
0.000250074
-3.27854e-08
9.51175e-08
5.5806e-08
8.37316e-09
-4.18891e-08
-1.98827e-08
0.000276408
0.000181649
2.50132e-08
-1.31255e-08
1.24737e-08
0.000181674
-9.1458e-08
-3.7916e-08
0.000250136
-2.02587e-08
5.32752e-08
1.2525e-08
1.25798e-08
-0.000212361
0.000212381
7.98948e-05
1.06745e-08
7.98813e-05
1.05828e-08
7.99198e-05
7.99063e-05
-2.71657e-08
-7.84797e-05
-2.03393e-09
7.85089e-05
1.76224e-09
-3.75751e-08
0.000192047
0.0002613
-2.58591e-08
2.71769e-10
5.14221e-08
-4.39717e-09
-5.08594e-08
0.00026133
1.01984e-09
-6.65286e-10
-2.69543e-08
-0.000142089
0.000142114
2.62698e-08
2.36415e-09
-5.46792e-08
0.000228345
0.000169658
1.42295e-09
0.000222118
-2.64035e-08
6.04099e-08
0.000169684
-5.45356e-08
0.000222144
3.1535e-08
-2.57347e-08
-0.000220857
2.16779e-08
-5.92092e-08
0.000220889
0.000250029
-3.28479e-08
9.50693e-08
5.58572e-08
7.98572e-09
-4.40828e-08
-1.97673e-08
0.000276362
0.000181641
2.69288e-08
-1.31525e-08
1.25533e-08
0.000181668
-9.14247e-08
-3.77864e-08
0.000250089
-2.03048e-08
5.31356e-08
-2.57282e-08
3.15708e-08
-0.000220933
2.3639e-08
-5.46954e-08
0.000220958
0.000250177
-3.272e-08
9.26111e-08
5.07342e-08
-4.41414e-08
7.85509e-09
2.16248e-08
-1.74985e-08
0.000276459
0.000181699
2.69928e-08
-1.30397e-08
-8.89394e-08
-3.28172e-08
0.000250229
1.24768e-08
0.000181726
-2.22055e-08
4.87172e-08
1.25288e-08
1.2575e-08
-0.000212353
0.000212374
7.98777e-05
1.05851e-08
7.98956e-05
1.0677e-08
7.99028e-05
7.99207e-05
-5.678e-09
9.7107e-05
-3.54816e-08
1.80636e-09
0.00019206
2.4614e-10
0.00121574
2.50453e-07
-1.04027e-07
-1.01814e-07
-0.000242575
0.000242665
0.000261258
-1.0646e-07
0.000261682
-1.04047e-07
2.2882e-07
2.3667e-07
0.000271523
0.000261555
0.000261986
-1.01537e-07
-1.04215e-07
-0.00024256
0.000242652
0.00026163
-1.06633e-07
0.000261273
-1.0377e-07
2.36533e-07
2.28916e-07
0.000271501
0.000261577
0.00026193
0.00121487
2.50186e-07
1.59352e-08
1.70622e-07
-0.00026449
0.000265197
-1.2879e-08
0.000260349
2.79332e-08
-8.73997e-08
-1.37617e-08
0.000244446
0.000250081
1.87376e-07
-5.15059e-08
6.81347e-09
0.000260481
5.10049e-08
0.000250195
-8.73478e-09
2.56027e-08
1.65497e-07
1.34236e-08
-0.000264485
0.000265193
-5.29595e-09
0.000260339
2.79888e-08
-1.3915e-08
-8.48665e-08
0.000244447
0.000250083
1.82255e-07
6.70164e-09
5.07981e-08
0.000250192
-8.87138e-09
0.000260468
1.79645e-08
1.68171e-07
1.34141e-08
-0.000264542
-1.81175e-08
0.000265262
0.000260369
2.79074e-08
-1.3792e-08
-8.4926e-08
0.000244455
0.000250147
1.84809e-07
9.10812e-09
-8.77402e-09
0.000250257
0.000260496
3.33139e-08
1.83247e-07
-2.74447e-09
-0.000266517
0.000267281
3.47054e-09
-1.62717e-07
-4.4142e-10
0.000250253
0.000249327
2.10114e-07
0.000266917
-6.92499e-09
7.26514e-09
0.000249448
-4.61865e-09
0.000267537
1.68007e-07
1.58634e-08
-0.000264458
-2.60925e-09
0.000265161
0.000260288
3.05305e-08
-1.61159e-08
-8.48437e-08
0.00024439
0.000250056
1.84773e-07
6.68807e-09
-6.27929e-09
0.000250163
0.000260418
1.79902e-08
1.51559e-09
1.83244e-07
-0.000266455
0.00026723
-1.62738e-07
2.39841e-09
0.000250225
0.000266901
-5.501e-09
0.000249241
2.12605e-07
0.000267517
0.000249366
-1.25874e-06
2.13249e-07
7.48145e-08
0.00114033
-2.80395e-07
1.23048e-06
2.58149e-07
8.81161e-07
-2.78742e-07
2.33435e-07
-9.27612e-07
1.28762e-06
1.25339e-06
-2.41258e-07
-2.46705e-07
0.00026949
-1.89041e-07
-1.89406e-07
-0.0011911
1.718e-07
1.71855e-07
0.00119113
-0.0011399
-1.25337e-06
1.89465e-07
6.44739e-08
0.00113976
-2.7625e-07
1.23185e-06
2.59914e-07
8.83825e-07
-2.73273e-07
-9.21439e-07
2.36485e-07
-0.00113953
-1.24797e-06
1.89345e-07
6.4648e-08
0.00113939
-2.76292e-07
1.22631e-06
2.59905e-07
8.83695e-07
-2.75963e-07
-9.21386e-07
2.39273e-07
-0.000271398
1.28225e-06
1.24807e-06
-2.37284e-07
-2.42675e-07
0.000269348
-1.66108e-07
-1.66238e-07
-0.00119121
1.57957e-07
1.58123e-07
0.00119122
-0.00113934
-1.24846e-06
1.66351e-07
5.48041e-08
0.0011392
-2.72438e-07
1.23307e-06
2.61465e-07
8.86358e-07
-2.68084e-07
-9.15673e-07
2.39359e-07
-0.00113897
-1.24299e-06
1.66263e-07
5.48636e-08
0.00113884
-2.72439e-07
1.22756e-06
2.61479e-07
8.86176e-07
-2.708e-07
-9.15527e-07
2.42115e-07
-0.000271263
1.27724e-06
1.24308e-06
-2.33591e-07
-2.38966e-07
0.000269215
-1.43962e-07
-1.43936e-07
-0.00119125
1.44058e-07
1.44318e-07
0.00119125
-0.0011388
-1.24386e-06
1.4412e-07
4.57668e-08
0.00113867
-2.68889e-07
1.23417e-06
2.62885e-07
8.88679e-07
-2.63196e-07
-9.10159e-07
2.42069e-07
-0.00113843
-1.23832e-06
1.43997e-07
4.57596e-08
0.0011383
-2.6887e-07
1.22869e-06
2.62924e-07
8.8853e-07
-2.65915e-07
-9.10089e-07
2.44805e-07
-0.000271136
1.27254e-06
1.23842e-06
-2.30172e-07
-2.35516e-07
0.000269091
-1.22644e-07
-1.2249e-07
-0.00119122
1.30174e-07
1.30489e-07
0.00119121
-0.00113828
-1.23951e-06
1.2266e-07
3.72723e-08
0.00113816
-2.65584e-07
1.23514e-06
2.64142e-07
8.90906e-07
-2.58571e-07
-9.05028e-07
2.44606e-07
-0.00113791
-1.23401e-06
1.22558e-07
3.72015e-08
0.00113779
-2.65565e-07
1.22967e-06
2.64191e-07
8.90762e-07
-2.61294e-07
-9.04934e-07
2.47338e-07
-0.000271019
1.26822e-06
1.23413e-06
-2.2706e-07
-2.32381e-07
0.000268976
-1.02198e-07
-1.01973e-07
-0.00119114
1.16366e-07
1.16712e-07
0.00119111
-0.00113779
-1.23547e-06
1.02142e-07
2.93302e-08
0.00113767
-2.62524e-07
1.23604e-06
2.65259e-07
8.92977e-07
-2.54216e-07
-9.00176e-07
2.46969e-07
-0.00113742
-1.22995e-06
1.02025e-07
2.918e-08
0.0011373
-2.62492e-07
1.23055e-06
2.65324e-07
8.92817e-07
-2.56913e-07
-9.00077e-07
2.49721e-07
-0.000270909
1.26413e-06
1.23007e-06
-2.24135e-07
-2.29435e-07
0.000268869
-8.26881e-08
-8.24102e-08
-0.00119101
1.02744e-07
1.03104e-07
0.00119097
-0.00113732
-1.23166e-06
8.25688e-08
2.17958e-08
0.0011372
-2.59646e-07
1.23679e-06
2.66285e-07
8.94912e-07
-2.50116e-07
-8.95622e-07
2.49184e-07
-0.00113695
-1.22619e-06
8.24487e-08
2.1715e-08
0.00113683
-2.59639e-07
1.23134e-06
2.66349e-07
8.94759e-07
-2.52805e-07
-8.95511e-07
2.51936e-07
-0.000270808
1.26032e-06
1.22629e-06
-2.21443e-07
-2.2672e-07
0.00026877
-6.40876e-08
-6.38187e-08
-0.00119083
8.93437e-08
8.97126e-08
0.00119078
-0.00113687
-1.22816e-06
6.39155e-08
1.47627e-08
0.00113676
-2.56989e-07
1.23753e-06
2.67203e-07
8.96693e-07
-2.46269e-07
-8.91348e-07
2.51222e-07
-0.0011365
-1.22269e-06
6.38055e-08
1.47278e-08
0.00113639
-2.56999e-07
1.23204e-06
2.67238e-07
8.96558e-07
-2.48939e-07
-8.91214e-07
2.53988e-07
-0.000270715
1.25678e-06
1.22278e-06
-2.18953e-07
-2.24218e-07
0.000268679
-4.63232e-08
-4.60359e-08
-0.00119061
7.60588e-08
7.64385e-08
0.00119055
-0.00113644
-1.22491e-06
4.6117e-08
8.37737e-09
0.00113634
-2.5456e-07
1.23815e-06
2.68001e-07
8.98376e-07
-2.42655e-07
-8.87322e-07
2.53122e-07
-0.00113607
-1.21944e-06
4.59859e-08
8.30059e-09
0.00113597
-2.5454e-07
1.23264e-06
2.6805e-07
8.98236e-07
-2.45325e-07
-8.87198e-07
2.5589e-07
-0.00027063
1.25351e-06
1.21952e-06
-2.16661e-07
-2.21927e-07
0.000268596
-2.93457e-08
-2.91064e-08
-0.00119036
6.30282e-08
6.33596e-08
0.00119029
-0.00113604
-1.22185e-06
2.91451e-08
2.56273e-09
0.00113594
-2.52288e-07
1.23869e-06
2.68728e-07
8.99912e-07
-2.39286e-07
-8.83539e-07
2.54866e-07
-0.00113567
-1.21638e-06
2.899e-08
2.46785e-09
0.00113557
-2.52282e-07
1.23323e-06
2.68738e-07
8.9977e-07
-2.41955e-07
-8.83448e-07
2.57626e-07
-0.000270552
1.2505e-06
1.21652e-06
-2.14558e-07
-2.1984e-07
0.00026852
-1.36796e-08
-1.34976e-08
-0.00119007
5.07987e-08
5.11157e-08
0.00119
-0.00113566
-1.21899e-06
1.35031e-08
-3.69151e-09
0.00113557
-2.50151e-07
1.23924e-06
2.6939e-07
9.01408e-07
-2.36078e-07
-8.8002e-07
2.56542e-07
-0.00113529
-1.21352e-06
1.3352e-08
-3.74054e-09
0.0011352
-2.50153e-07
1.23372e-06
2.69407e-07
9.01283e-07
-2.38761e-07
-8.79889e-07
2.59308e-07
-0.000270482
1.24763e-06
1.21364e-06
-2.12568e-07
-2.17848e-07
0.000268451
2.33267e-10
3.8953e-10
-0.00118977
3.92583e-08
3.95133e-08
0.00118969
-0.0011353
-1.21636e-06
-4.03981e-10
-9.60612e-09
0.00113522
-2.48206e-07
1.23966e-06
2.69905e-07
9.02794e-07
-2.33026e-07
-8.76649e-07
2.58115e-07
-0.00113494
-1.21091e-06
-5.86894e-10
-9.63746e-09
0.00113485
-2.48209e-07
1.23416e-06
2.69919e-07
9.0268e-07
-2.35681e-07
-8.765e-07
2.60883e-07
-0.000270418
1.245e-06
1.21099e-06
-2.10729e-07
-2.16044e-07
0.000268388
1.65416e-08
1.66487e-08
-0.00118944
2.5787e-08
2.5952e-08
0.00118935
-0.00113497
-1.21386e-06
-1.67102e-08
-1.34726e-08
0.00113489
-2.4636e-07
1.24009e-06
2.70461e-07
9.04228e-07
-2.30149e-07
-8.73418e-07
2.59635e-07
-0.0011346
-1.2084e-06
-1.68736e-08
-1.34381e-08
0.00113452
-2.46346e-07
1.2346e-06
2.7049e-07
9.04097e-07
-2.3282e-07
-8.73267e-07
2.62386e-07
-0.00027036
1.24252e-06
1.2085e-06
-2.08998e-07
-2.14342e-07
0.000268332
3.07307e-08
3.07761e-08
-0.00118909
1.36892e-08
1.37407e-08
0.001189
-0.00113465
-1.21158e-06
-3.08507e-08
-1.70587e-08
0.00113458
-2.44659e-07
1.24046e-06
2.70911e-07
9.05386e-07
-2.27602e-07
-8.7056e-07
2.60871e-07
-0.00113429
-1.20613e-06
-3.09726e-08
-1.6977e-08
0.00113421
-2.44666e-07
1.23496e-06
2.70925e-07
9.05228e-07
-2.30285e-07
-8.7042e-07
2.6361e-07
-0.000270308
1.24025e-06
1.2062e-06
-2.07422e-07
-2.1279e-07
0.000268282
4.38633e-08
4.38696e-08
-0.00118873
2.1954e-09
2.14137e-09
0.00118864
-0.00113436
-1.20948e-06
-4.38829e-08
-2.00965e-08
0.00113429
-2.43135e-07
1.24074e-06
2.71268e-07
9.06393e-07
-2.25292e-07
-8.67933e-07
2.61961e-07
-0.00113399
-1.20403e-06
-4.39335e-08
-2.00687e-08
0.00113392
-2.43128e-07
1.23525e-06
2.71297e-07
9.06245e-07
-2.27988e-07
-8.67804e-07
2.64689e-07
-0.000270263
1.23822e-06
1.20414e-06
-2.06028e-07
-2.11408e-07
0.000268238
5.42707e-08
5.42907e-08
-0.00118836
-6.88954e-09
-6.98211e-09
0.00118826
-0.00113408
-1.20757e-06
-5.42242e-08
-2.44836e-08
0.00113402
-2.41689e-07
1.24097e-06
2.71607e-07
9.07299e-07
-2.23232e-07
-8.65579e-07
2.62875e-07
-0.00113372
-1.2021e-06
-5.42223e-08
-2.44301e-08
0.00113365
-2.41689e-07
1.23549e-06
2.71642e-07
9.07096e-07
-2.25944e-07
-8.65463e-07
2.65584e-07
-0.000270222
1.23633e-06
1.20226e-06
-2.0476e-07
-2.10142e-07
0.000268198
6.40752e-08
6.41609e-08
-0.00118798
-1.57467e-08
-1.58273e-08
0.00118788
-0.00113383
-1.20578e-06
-6.39343e-08
-2.82777e-08
0.00113376
-2.40353e-07
1.24119e-06
2.71913e-07
9.0804e-07
-2.21405e-07
-8.63444e-07
2.63654e-07
-0.00113346
-1.20031e-06
-6.38705e-08
-2.82547e-08
0.0011334
-2.40342e-07
1.23572e-06
2.71968e-07
9.07826e-07
-2.24131e-07
-8.63335e-07
2.66332e-07
-0.000270187
1.23459e-06
1.20053e-06
-2.03601e-07
-2.08972e-07
0.000268164
7.29097e-08
7.31443e-08
-0.00118759
-2.40446e-08
-2.40731e-08
0.00118749
-0.00113359
-1.20422e-06
-7.26737e-08
-3.15997e-08
0.00113353
-2.39182e-07
1.24132e-06
2.7214e-07
9.08675e-07
-2.19754e-07
-8.61547e-07
2.64303e-07
-0.00113322
-1.19871e-06
-7.25886e-08
-3.17012e-08
0.00113316
-2.39138e-07
1.23589e-06
2.72231e-07
9.08458e-07
-2.22528e-07
-8.61492e-07
2.6697e-07
-0.000270156
1.23301e-06
1.19898e-06
-2.02575e-07
-2.07919e-07
0.000268134
8.06574e-08
8.10783e-08
-0.0011872
-3.16339e-08
-3.15752e-08
0.0011871
-0.00113336
-1.20286e-06
-8.0358e-08
-3.43965e-08
0.00113331
-2.38219e-07
1.24135e-06
2.7224e-07
9.09167e-07
-2.18378e-07
-8.59919e-07
2.64783e-07
-0.001133
-1.19731e-06
-8.02487e-08
-3.47065e-08
0.00113294
-2.38131e-07
1.23597e-06
2.72368e-07
9.0893e-07
-2.21171e-07
-8.59891e-07
2.67415e-07
-0.000270129
1.23165e-06
1.19766e-06
-2.01735e-07
-2.07047e-07
0.000268109
8.70905e-08
8.78204e-08
-0.0011868
-3.84045e-08
-3.81321e-08
0.0011867
-0.00113315
-1.20175e-06
-8.67657e-08
-3.66916e-08
0.0011331
-2.3748e-07
1.24127e-06
2.72201e-07
9.09415e-07
-2.17273e-07
-8.58631e-07
2.65082e-07
-0.00113279
-1.19619e-06
-8.66847e-08
-3.72386e-08
0.00113274
-2.37346e-07
1.23591e-06
2.72377e-07
9.09186e-07
-2.20104e-07
-8.58595e-07
2.67684e-07
-0.000270107
1.23048e-06
1.19657e-06
-2.01095e-07
-2.06324e-07
0.000268088
9.21955e-08
9.32894e-08
-0.00118641
-4.43218e-08
-4.37341e-08
0.00118631
-0.00113296
-1.20095e-06
-9.19631e-08
-3.83656e-08
0.00113292
-2.37005e-07
1.24098e-06
2.71971e-07
9.09502e-07
-2.16516e-07
-8.57647e-07
2.65141e-07
-0.0011326
-1.19532e-06
-9.19575e-08
-3.91785e-08
0.00113255
-2.36809e-07
1.23569e-06
2.72215e-07
9.09256e-07
-2.19323e-07
-8.57628e-07
2.67756e-07
-0.000270089
1.22956e-06
1.19579e-06
-2.00726e-07
-2.05821e-07
0.00026807
9.58495e-08
9.73799e-08
-0.00118602
-4.92631e-08
-4.83011e-08
0.00118593
-0.00113279
-1.20046e-06
-9.57337e-08
-3.92997e-08
0.00113275
-2.36789e-07
1.24052e-06
2.71579e-07
9.09288e-07
-2.16085e-07
-8.57073e-07
2.64937e-07
-0.00113243
-1.1948e-06
-9.5994e-08
-4.05218e-08
0.00113239
-2.3657e-07
1.23526e-06
2.71832e-07
9.09131e-07
-2.18829e-07
-8.56974e-07
2.6763e-07
-0.000270075
1.22891e-06
1.19531e-06
-2.0062e-07
-2.05546e-07
0.000268057
9.8127e-08
9.99879e-08
-0.00118564
-5.3131e-08
-5.18352e-08
0.00118555
-0.00113263
-1.20025e-06
-9.82842e-08
-3.97488e-08
0.00113259
-2.36812e-07
1.23988e-06
2.7102e-07
9.08874e-07
-2.15982e-07
-8.5682e-07
2.64504e-07
-0.00113227
-1.19459e-06
-9.88718e-08
-4.09733e-08
0.00113224
-2.36617e-07
1.23464e-06
2.71248e-07
9.08784e-07
-2.18642e-07
-8.56643e-07
2.67276e-07
-0.000270065
1.2285e-06
1.19509e-06
-2.00744e-07
-2.05491e-07
0.000268048
9.92952e-08
1.01085e-07
-0.00118527
-5.5916e-08
-5.45606e-08
0.00118518
-0.00113249
-1.20027e-06
-9.96017e-08
-3.97185e-08
0.00113246
-2.37057e-07
1.23915e-06
2.70334e-07
9.08207e-07
-2.16223e-07
-8.5693e-07
2.63833e-07
-0.00113214
-1.19467e-06
-1.00379e-07
-4.08385e-08
0.0011321
-2.3692e-07
1.23384e-06
2.70501e-07
9.0821e-07
-2.18774e-07
-8.56676e-07
2.66704e-07
-0.000270059
1.22842e-06
1.19507e-06
-2.01027e-07
-2.05729e-07
0.000268043
9.94809e-08
1.00821e-07
-0.00118492
-5.76389e-08
-5.65199e-08
0.00118483
-0.00113237
-1.20048e-06
-9.99435e-08
-3.9334e-08
0.00113234
-2.3742e-07
1.23831e-06
2.69599e-07
9.0735e-07
-2.16742e-07
-8.57322e-07
2.62931e-07
-0.00113202
-1.19499e-06
-1.0082e-07
-4.0062e-08
0.00113199
-2.37424e-07
1.23289e-06
2.69608e-07
9.07438e-07
-2.19181e-07
-8.5698e-07
2.6594e-07
-0.000270057
1.22863e-06
1.19516e-06
-2.01387e-07
-2.06227e-07
0.000268041
9.89803e-08
9.95003e-08
-0.00118458
-5.85078e-08
-5.79528e-08
0.0011845
-0.00113227
-1.20085e-06
-9.95421e-08
-3.88445e-08
0.00113225
-2.37888e-07
1.23743e-06
2.68806e-07
9.06403e-07
-2.17382e-07
-8.57881e-07
2.61982e-07
-0.00113192
-1.19548e-06
-1.00367e-07
-3.88219e-08
0.0011319
-2.38031e-07
1.23189e-06
2.68685e-07
9.06513e-07
-2.19797e-07
-8.57512e-07
2.64985e-07
-0.000270058
1.22905e-06
1.19535e-06
-2.01795e-07
-2.06902e-07
0.000268042
9.81186e-08
9.75519e-08
-0.00118426
-5.87645e-08
-5.90238e-08
0.00118418
-0.00113219
-1.20125e-06
-9.86445e-08
-3.83009e-08
0.00113217
-2.38371e-07
1.2366e-06
2.68047e-07
9.0543e-07
-2.18095e-07
-8.58531e-07
2.61004e-07
-0.00113184
-1.19599e-06
-9.93134e-08
-3.74584e-08
0.00113182
-2.38661e-07
1.23095e-06
2.67796e-07
9.05506e-07
-2.20554e-07
-8.58181e-07
2.63958e-07
-0.000270062
1.22959e-06
1.19556e-06
-2.02217e-07
-2.07662e-07
0.000268047
9.70002e-08
9.53749e-08
-0.00118395
-5.85822e-08
-5.98695e-08
0.00118388
-0.00113212
-1.20161e-06
-9.75228e-08
-3.7858e-08
0.00113211
-2.38811e-07
1.23589e-06
2.67366e-07
9.04495e-07
-2.18829e-07
-8.592e-07
2.60043e-07
-0.00113177
-1.19647e-06
-9.78265e-08
-3.6221e-08
0.00113175
-2.39196e-07
1.23009e-06
2.67014e-07
9.04505e-07
-2.21351e-07
-8.58924e-07
2.62942e-07
-0.00027007
1.23019e-06
1.19577e-06
-2.02581e-07
-2.08421e-07
0.000268055
9.57912e-08
9.3227e-08
-0.00118366
-5.81548e-08
-6.04639e-08
0.00118359
-0.00113207
-1.20194e-06
-9.62415e-08
-3.74802e-08
0.00113206
-2.39194e-07
1.23524e-06
2.66789e-07
9.03649e-07
-2.19537e-07
-8.59847e-07
2.59151e-07
-0.00113171
-1.19685e-06
-9.61081e-08
-3.52447e-08
0.0011317
-2.39611e-07
1.22939e-06
2.66395e-07
9.03558e-07
-2.22144e-07
-8.59656e-07
2.61958e-07
-0.000270079
1.23072e-06
1.19602e-06
-2.02978e-07
-2.09068e-07
0.000268064
9.44269e-08
9.14214e-08
-0.00118339
-5.77794e-08
-6.07941e-08
0.00118332
-0.00113203
-1.2022e-06
-9.48487e-08
-3.7291e-08
0.00113203
-2.39504e-07
1.23472e-06
2.66301e-07
9.02917e-07
-2.20157e-07
-8.60415e-07
2.58378e-07
-0.00113167
-1.19711e-06
-9.42708e-08
-3.46621e-08
0.00113166
-2.39896e-07
1.22886e-06
2.65945e-07
9.02702e-07
-2.2294e-07
-8.60381e-07
2.61016e-07
-0.00027009
1.23112e-06
1.19631e-06
-2.03386e-07
-2.09545e-07
0.000268076
9.28901e-08
8.99629e-08
-0.00118312
-5.74741e-08
-6.07977e-08
0.00118306
-0.001132
-1.2024e-06
-9.33007e-08
-3.7012e-08
0.001132
-2.39751e-07
1.23431e-06
2.65901e-07
9.02307e-07
-2.20742e-07
-8.60943e-07
2.57686e-07
-0.00113164
-1.19729e-06
-9.24202e-08
-3.44999e-08
0.00113163
-2.40089e-07
1.22847e-06
2.65604e-07
9.01963e-07
-2.23636e-07
-8.60969e-07
2.60215e-07
-0.000270103
1.2314e-06
1.19667e-06
-2.0381e-07
-2.0985e-07
0.000268089
9.10325e-08
8.86218e-08
-0.00118287
-5.71842e-08
-6.03414e-08
0.00118281
-0.00113198
-1.2026e-06
-9.15321e-08
-3.65873e-08
0.00113198
-2.39998e-07
1.23396e-06
2.65543e-07
9.01697e-07
-2.21241e-07
-8.61452e-07
2.57102e-07
-0.00113161
-1.19739e-06
-9.04382e-08
-3.45494e-08
0.0011316
-2.4022e-07
1.22821e-06
2.65371e-07
9.0131e-07
-2.2419e-07
-8.61601e-07
2.59575e-07
-0.000270117
1.2316e-06
1.19709e-06
-2.0426e-07
-2.10035e-07
0.000268102
8.85731e-08
8.69333e-08
-0.00118262
-5.6617e-08
-5.92288e-08
0.00118256
-0.00113196
-1.20292e-06
-8.93432e-08
-3.57016e-08
0.00113196
-2.40377e-07
1.23354e-06
2.65097e-07
9.01074e-07
-2.21794e-07
-8.62035e-07
2.56513e-07
-0.00113158
-1.19762e-06
-8.81766e-08
-3.42929e-08
0.00113158
-2.40487e-07
1.22787e-06
2.64999e-07
9.00729e-07
-2.24747e-07
-8.62131e-07
2.58984e-07
-0.00027013
1.23181e-06
1.1976e-06
-2.04748e-07
-2.10225e-07
0.000268116
8.52542e-08
8.4467e-08
-0.00118239
-5.55178e-08
-5.73502e-08
0.00118233
-0.00113195
-1.20348e-06
-8.65064e-08
-3.42606e-08
0.00113194
-2.40944e-07
1.23294e-06
2.64498e-07
9.00421e-07
-2.22457e-07
-8.62729e-07
2.55864e-07
-0.00113156
-1.19809e-06
-8.53802e-08
-3.34404e-08
0.00113156
-2.40979e-07
1.22733e-06
2.64481e-07
9.00082e-07
-2.25352e-07
-8.6285e-07
2.58379e-07
-0.000270144
1.23217e-06
1.19822e-06
-2.05329e-07
-2.10557e-07
0.00026813
8.09754e-08
8.09611e-08
-0.00118217
-5.36738e-08
-5.46411e-08
0.00118211
-0.00113193
-1.20426e-06
-8.2761e-08
-3.21255e-08
0.00113193
-2.41706e-07
1.23217e-06
2.63767e-07
8.99612e-07
-2.23312e-07
-8.63658e-07
2.55068e-07
-0.00113155
-1.19883e-06
-8.1863e-08
-3.18253e-08
0.00113155
-2.41702e-07
1.2266e-06
2.63784e-07
8.99317e-07
-2.26172e-07
-8.6371e-07
2.57622e-07
-0.000270158
1.23272e-06
1.19897e-06
-2.06002e-07
-2.11066e-07
0.000268143
7.5685e-08
7.62637e-08
-0.00118196
-5.0959e-08
-5.11635e-08
0.00118191
-0.00113192
-1.20526e-06
-7.79947e-08
-2.94546e-08
0.00113192
-2.42643e-07
1.23125e-06
2.62916e-07
8.98579e-07
-2.24426e-07
-8.64854e-07
2.54064e-07
-0.00113154
-1.1998e-06
-7.74046e-08
-2.96295e-08
0.00113153
-2.42617e-07
1.22572e-06
2.6296e-07
8.98304e-07
-2.27228e-07
-8.64849e-07
2.56678e-07
-0.000270171
1.2335e-06
1.19985e-06
-2.06797e-07
-2.11796e-07
0.000268157
6.94578e-08
7.04818e-08
-0.00118177
-4.74864e-08
-4.70542e-08
0.00118172
-0.00113191
-1.20642e-06
-7.21382e-08
-2.65052e-08
0.00113191
-2.43693e-07
1.23023e-06
2.62001e-07
8.97276e-07
-2.25839e-07
-8.66336e-07
2.52806e-07
-0.00113153
-1.20091e-06
-7.18043e-08
-2.70993e-08
0.00113152
-2.43626e-07
1.22476e-06
2.62093e-07
8.97076e-07
-2.28612e-07
-8.66308e-07
2.5544e-07
-0.000270185
1.23453e-06
1.20085e-06
-2.07712e-07
-2.12769e-07
0.00026817
6.23624e-08
6.39317e-08
-0.0011816
-4.35388e-08
-4.24339e-08
0.00118156
-0.0011319
-1.2077e-06
-6.51655e-08
-2.34596e-08
0.0011319
-2.44811e-07
1.22913e-06
2.61049e-07
8.95731e-07
-2.27538e-07
-8.68135e-07
2.51266e-07
-0.00113152
-1.20206e-06
-6.49366e-08
-2.45222e-08
0.00113152
-2.4464e-07
1.2238e-06
2.61253e-07
8.95441e-07
-2.3034e-07
-8.68123e-07
2.53874e-07
-0.000270198
1.23577e-06
1.202e-06
-2.0875e-07
-2.13926e-07
0.000268183
5.45947e-08
5.66115e-08
-0.00118145
-3.90891e-08
-3.74285e-08
0.00118141
-0.0011319
-1.20905e-06
-5.71005e-08
-2.04512e-08
0.0011319
-2.45976e-07
1.22798e-06
2.60058e-07
8.93858e-07
-2.29492e-07
-8.70197e-07
2.49445e-07
-0.00113152
-1.20332e-06
-5.70349e-08
-2.1767e-08
0.00113152
-2.45732e-07
1.22274e-06
2.60328e-07
8.93612e-07
-2.32286e-07
-8.70164e-07
2.52069e-07
-0.000270211
1.23717e-06
1.20336e-06
-2.09962e-07
-2.15202e-07
0.000268196
4.68576e-08
4.83039e-08
-0.00118132
-3.37889e-08
-3.2445e-08
0.00118129
-0.0011319
-1.21036e-06
-4.83048e-08
-1.79004e-08
0.0011319
-2.47084e-07
1.22684e-06
2.59085e-07
8.91812e-07
-2.31514e-07
-8.72353e-07
2.47444e-07
-0.00113152
-1.20475e-06
-4.86693e-08
-1.8527e-08
0.00113152
-2.46945e-07
1.22149e-06
2.59212e-07
8.9168e-07
-2.34208e-07
-8.72217e-07
2.50176e-07
-0.000270223
1.23868e-06
1.2049e-06
-2.11284e-07
-2.16507e-07
0.000268207
3.95215e-08
4.00009e-08
-0.00118122
-2.82872e-08
-2.77231e-08
0.00118119
-0.0011319
-1.21158e-06
-3.96176e-08
-1.56572e-08
0.0011319
-2.48103e-07
1.22572e-06
2.58094e-07
8.8969e-07
-2.33333e-07
-8.74326e-07
2.45375e-07
-0.00113152
-1.20605e-06
-3.9817e-08
-1.57286e-08
0.00113153
-2.48048e-07
1.22029e-06
2.58154e-07
8.89586e-07
-2.35989e-07
-8.74184e-07
2.48121e-07
-0.000270233
1.24033e-06
1.20637e-06
-2.12531e-07
-2.17857e-07
0.000268216
3.24654e-08
3.27242e-08
-0.00118114
-2.33227e-08
-2.32092e-08
0.00118112
-0.0011319
-1.21276e-06
-3.18985e-08
-1.29908e-08
0.00113191
-2.49096e-07
1.22445e-06
2.56913e-07
8.87491e-07
-2.34732e-07
-8.75923e-07
2.43133e-07
-0.00113152
-1.20715e-06
-3.10813e-08
-1.32678e-08
0.00113153
-2.48939e-07
1.2191e-06
2.57078e-07
8.8716e-07
-2.37537e-07
-8.75949e-07
2.45726e-07
-0.00027024
1.24201e-06
1.20757e-06
-2.13467e-07
-2.19233e-07
0.000268223
2.71438e-08
2.6485e-08
-0.00118108
-1.89947e-08
-1.97364e-08
0.00118107
-0.0011319
-1.21372e-06
-2.59164e-08
-1.05141e-08
0.00113191
-2.49842e-07
1.223e-06
2.55515e-07
8.8493e-07
-2.35208e-07
-8.76736e-07
2.40477e-07
-0.00113152
-1.20822e-06
-2.47951e-08
-1.03033e-08
0.00113153
-2.49799e-07
1.21754e-06
2.55516e-07
8.84611e-07
-2.38054e-07
-8.76796e-07
2.43037e-07
-0.000270245
1.24316e-06
1.20858e-06
-2.14154e-07
-2.20051e-07
0.000268228
2.50209e-08
2.33389e-08
-0.00118105
-1.69893e-08
-1.86125e-08
0.00118103
-0.0011319
-1.21391e-06
-2.26194e-08
-8.84809e-09
0.00113192
-2.4975e-07
1.22123e-06
2.53602e-07
8.81502e-07
-2.33777e-07
-8.76186e-07
2.36324e-07
-0.00113152
-1.20863e-06
-2.18351e-08
-7.72716e-09
0.00113153
-2.49936e-07
1.21553e-06
2.53393e-07
8.81269e-07
-2.36524e-07
-8.76158e-07
2.38959e-07
-0.000270249
1.24339e-06
1.20903e-06
-2.14092e-07
-2.19775e-07
0.00026823
2.52598e-08
2.44029e-08
-0.00118102
-2.03625e-08
-2.14159e-08
0.00118101
-0.0011319
-1.21233e-06
-2.31134e-08
-6.31376e-09
0.00113192
-2.47536e-07
1.21753e-06
2.49155e-07
8.75599e-07
-2.27408e-07
-8.72593e-07
2.27494e-07
-0.00113151
-1.20699e-06
-2.20242e-08
-5.49694e-09
0.00113153
-2.4764e-07
1.21193e-06
2.49113e-07
8.75201e-07
-2.30247e-07
-8.7253e-07
2.30033e-07
-0.000270251
1.24182e-06
1.20752e-06
-2.11436e-07
-2.17062e-07
0.000268231
4.76684e-08
4.8743e-08
-0.00118101
-3.8555e-08
-4.45912e-08
0.001181
-0.0011319
-1.20509e-06
-4.19394e-08
-1.11888e-08
0.00113195
-2.37482e-07
1.20978e-06
2.40492e-07
8.66177e-07
-2.09767e-07
-8.6311e-07
2.06641e-07
-0.00113152
-1.19673e-06
-4.58681e-08
-6.37599e-09
0.00113156
-2.37224e-07
1.20175e-06
2.37956e-07
8.63023e-07
-2.10012e-07
-8.60503e-07
2.09195e-07
-0.000270261
1.23705e-06
1.19996e-06
-1.97644e-07
-2.03295e-07
0.000268225
9.69036e-07
9.76519e-07
-0.0011809
-8.55927e-07
-8.45237e-07
0.00118066
-0.00113219
-1.10094e-06
-9.70017e-07
-4.05287e-07
0.00113268
-1.31795e-07
1.36301e-06
3.03134e-07
9.88199e-07
-7.27943e-08
-7.39246e-07
2.76166e-07
-0.00113181
-1.09252e-06
-9.79657e-07
-4.16704e-07
0.00113232
-1.31468e-07
1.35769e-06
3.06163e-07
9.84811e-07
-7.90676e-08
-7.36699e-07
2.78658e-07
-0.000270355
1.13534e-06
1.09293e-06
-9.15134e-08
-9.43007e-08
0.000268312
5.50545e-06
5.49832e-06
-0.00116788
-1.1665e-05
-1.15582e-05
0.000284319
0.000286493
0.000286262
0.000286262
4.51939e-06
6.70734e-06
7.15309e-06
4.5233e-06
6.70819e-06
7.15661e-06
-0.000280729
5.40533e-06
-5.49542e-06
5.94345e-06
-3.37671e-06
0.000278252
-0.000280696
-5.49758e-06
5.41047e-06
-3.38485e-06
5.94003e-06
0.000278228
-0.000271282
-5.4017e-06
-5.41318e-06
5.72539e-06
5.71343e-06
0.000270658
-1.26556e-06
-1.2288e-06
0.000271415
-0.000269389
2.30001e-07
2.37898e-07
-1.29862e-06
2.13e-07
7.57997e-08
0.00113994
-2.88936e-07
1.27003e-06
2.66252e-07
8.86686e-07
-2.8157e-07
2.362e-07
-9.33123e-07
0.00113905
1.949e-07
-0.0011392
6.75794e-08
-1.28901e-06
2.64838e-07
-2.8286e-07
-9.22941e-07
2.35746e-07
-2.74611e-07
8.83167e-07
1.27109e-06
0.00113951
1.95089e-07
-0.00113965
6.79098e-08
-1.29454e-06
2.67604e-07
-2.85786e-07
-9.28494e-07
2.38509e-07
-2.77401e-07
8.887e-07
-2.41429e-07
-2.43953e-07
0.000269519
-1.23154e-06
0.000271446
-0.000269411
2.32855e-07
2.35155e-07
0.00114017
1.95303e-07
-0.00114031
6.68898e-08
-1.2521e-06
2.62359e-07
-2.80146e-07
-9.25669e-07
2.38592e-07
-2.77404e-07
8.85981e-07
1.26564e-06
0.00113916
1.95137e-07
-0.0011393
6.77383e-08
-1.28905e-06
2.6767e-07
-2.85734e-07
-9.25649e-07
2.38452e-07
-2.77353e-07
8.85794e-07
2.12695e-07
7.57024e-08
0.00113938
-2.83209e-07
1.25909e-06
2.60662e-07
8.81126e-07
-2.78709e-07
2.33415e-07
-9.27562e-07
1.95316e-07
-0.00114004
6.69712e-08
-1.2547e-06
2.59469e-07
-2.77276e-07
-9.22914e-07
2.35758e-07
8.83183e-07
-2.74607e-07
1.26013e-06
0.00113895
1.94786e-07
-0.00113909
6.77231e-08
-1.28355e-06
2.6203e-07
-2.80065e-07
-9.22934e-07
2.35716e-07
-2.7456e-07
8.83186e-07
-1.22597e-06
0.000271393
-0.000269369
2.30145e-07
2.3774e-07
2.13181e-07
7.4749e-08
0.00114049
-2.80489e-07
1.22509e-06
2.5826e-07
8.81261e-07
-2.81523e-07
2.36234e-07
-9.27674e-07
1.95194e-07
-0.00113967
6.7152e-08
-1.24926e-06
2.59454e-07
-2.77321e-07
-9.22768e-07
2.38508e-07
8.83085e-07
-2.77313e-07
1.22613e-06
0.00114006
1.95239e-07
-0.00114021
6.69614e-08
-1.24935e-06
2.59607e-07
-2.77353e-07
-9.23055e-07
2.3856e-07
-2.77352e-07
8.83266e-07
-0.000269383
2.32644e-07
2.37904e-07
1.28769e-06
1.25081e-06
-2.34761e-07
-2.42647e-07
0.000269354
-1.26685e-06
-1.23005e-06
0.00027128
-0.000269254
2.31415e-07
2.39374e-07
6.49983e-08
0.00113891
-2.81852e-07
1.26593e-06
2.65279e-07
8.8378e-07
-2.73303e-07
-9.21428e-07
2.36454e-07
-1.29321e-06
1.89225e-07
6.53719e-08
0.00113936
-2.84756e-07
1.2714e-06
2.68052e-07
8.89336e-07
-2.76124e-07
-9.26989e-07
2.39244e-07
0.0011385
1.71759e-07
-0.00113863
5.75925e-08
-1.28385e-06
2.66516e-07
-2.78905e-07
-9.17093e-07
2.38603e-07
-2.69385e-07
8.85683e-07
1.27236e-06
0.00113895
1.7195e-07
-0.00113908
5.79295e-08
-1.28944e-06
2.69256e-07
-2.81853e-07
-9.22623e-07
2.4139e-07
-2.72189e-07
8.91192e-07
-2.37407e-07
-2.3991e-07
0.000269377
-1.23281e-06
0.00027131
-0.000269276
2.34287e-07