/*--------------------------------*- C++ -*----------------------------------*\
| =========                 |                                                 |
| \\      /  F ield         | OpenFOAM: The Open Source CFD Toolbox           |
|  \\    /   O peration     | Version:  v2012                                 |
|   \\  /    A nd           | Website:  www.openfoam.com                      |
|    \\/     M anipulation  |                                                 |
\*---------------------------------------------------------------------------*/
FoamFile
{
    version     2.0;
    format      ascii;
    class       volVectorField;
    location    "350";
    object      U;
}
// * * * * * * * * * * * * * * * * * * * * * * * * * * * * * * * * * * * * * //

dimensions      [0 1 -1 0 0 0 0];


internalField   nonuniform List<vector> 
85864
(
(2.23088e-05 2.22689e-05 0.113139)
(9.83047e-06 -1.71602e-05 0.108268)
(4.40961e-05 4.40456e-05 0.104731)
(9.89927e-06 1.7161e-05 0.108266)
(1.71774e-05 9.82008e-06 0.108268)
(1.71962e-05 -9.90683e-06 0.108265)
(4.40275e-05 -4.40945e-05 0.104731)
(6.47962e-07 1.09774e-05 0.0815645)
(1.09745e-05 6.50368e-07 0.0815635)
(1.23998e-05 -3.83148e-07 0.0909793)
(2.22975e-05 -2.23031e-05 0.113139)
(5.44228e-06 -4.57752e-06 0.070856)
(6.69594e-06 -1.89129e-05 0.0926135)
(4.59574e-06 5.48895e-06 0.0708599)
(5.47695e-06 4.64528e-06 0.0708586)
(6.96985e-06 7.24892e-06 0.0869801)
(7.23803e-06 7.02624e-06 0.0869773)
(6.67089e-06 1.89003e-05 0.0926143)
(1.89222e-05 6.68462e-06 0.0926129)
(2.70262e-05 4.53765e-06 0.110821)
(2.44131e-05 9.11181e-08 0.098532)
(1.09569e-05 -6.40117e-07 0.0815626)
(1.23939e-05 4.15912e-07 0.0909793)
(2.70085e-05 -4.619e-06 0.11082)
(1.89031e-05 -6.66653e-06 0.0926122)
(2.44045e-05 -1.03467e-07 0.0985322)
(7.21465e-06 -7.00753e-06 0.0869757)
(6.99449e-06 -7.23822e-06 0.0869789)
(4.62025e-06 -5.48912e-06 0.0708591)
(6.57105e-07 -1.09863e-05 0.081564)
(-1.59081e-06 -1.14474e-05 0.0816217)
(-4.92429e-07 9.57225e-06 0.0852115)
(-7.2725e-07 6.36788e-06 0.0677471)
(-6.71607e-06 1.19091e-07 0.0678175)
(-1.14896e-05 -1.49062e-06 0.0816213)
(9.60582e-06 -4.50596e-07 0.0852109)
(-1.17945e-05 -1.49219e-06 0.085274)
(6.42993e-06 -6.41671e-07 0.0677478)
(-6.83797e-06 1.1031e-07 0.0762649)
(-1.40762e-05 -5.87911e-07 0.0910294)
(1.23937e-05 3.0801e-08 0.0894132)
(6.29329e-06 -5.9805e-07 0.0780037)
(-1.35632e-05 -1.0773e-06 0.0894697)
(-7.08446e-06 -3.87954e-07 0.0780496)
(6.99044e-06 -8.4629e-07 0.0762116)
(-6.86107e-06 1.99554e-06 0.0709214)
(-2.07384e-06 -6.87504e-06 0.0709208)
(-6.91704e-06 -2.02889e-06 0.0709199)
(-8.31141e-06 -1.64193e-05 0.0913139)
(1.40197e-05 2.09778e-05 0.0960662)
(-5.20431e-06 -8.38496e-06 0.087036)
(4.40828e-06 6.41326e-06 0.0809463)
(-3.87452e-06 -7.61121e-06 0.0810035)
(-8.32731e-06 -2.0741e-05 0.0961242)
(8.29175e-06 1.35811e-05 0.0912583)
(-1.64093e-05 -8.33046e-06 0.0913067)
(2.09404e-05 1.40177e-05 0.0960625)
(-8.41414e-06 -5.1763e-06 0.0870339)
(6.38829e-06 4.45554e-06 0.0809402)
(-7.64132e-06 -3.85888e-06 0.0809978)
(-2.07315e-05 -8.35591e-06 0.0961211)
(1.3562e-05 8.31928e-06 0.0912511)
(-6.69558e-06 -6.68395e-06 0.0831099)
(5.44821e-06 3.47959e-06 0.0677605)
(3.4457e-06 5.49295e-06 0.0677541)
(-5.53348e-06 -4.0829e-06 0.0678234)
(-4.10954e-06 -5.50975e-06 0.0678171)
(5.64883e-06 5.681e-06 0.0830579)
(-6.65901e-06 -1.50133e-07 0.0678205)
(-1.14586e-05 1.50274e-06 0.0816217)
(9.58586e-06 4.88937e-07 0.0852103)
(-1.17407e-05 1.47627e-06 0.0852752)
(6.37236e-06 7.16295e-07 0.0677461)
(-6.7943e-06 -1.30621e-07 0.0762652)
(-1.40759e-05 5.47643e-07 0.0910293)
(6.29034e-06 6.37467e-07 0.0780033)
(1.23505e-05 1.50018e-08 0.0894126)
(-7.08026e-06 3.60355e-07 0.0780494)
(-1.35227e-05 1.03912e-06 0.0894701)
(6.94777e-06 8.95578e-07 0.0762092)
(-1.63861e-05 8.33318e-06 0.0913069)
(2.09279e-05 -1.40497e-05 0.0960619)
(-8.37598e-06 5.17393e-06 0.0870349)
(6.35596e-06 -4.475e-06 0.0809389)
(-7.59534e-06 3.89247e-06 0.0809983)
(-2.07206e-05 8.32356e-06 0.0961214)
(1.35223e-05 -8.34295e-06 0.0912505)
(-8.2972e-06 1.63982e-05 0.0913135)
(1.40132e-05 -2.09405e-05 0.0960656)
(-5.17578e-06 8.42253e-06 0.0870356)
(4.41239e-06 -6.38543e-06 0.0809447)
(-8.3473e-06 2.07299e-05 0.0961239)
(-3.8464e-06 7.63194e-06 0.0810032)
(8.27483e-06 -1.35664e-05 0.0912577)
(-6.68556e-06 6.70327e-06 0.0831096)
(3.44652e-06 -5.50329e-06 0.0677534)
(5.46055e-06 -3.47506e-06 0.0677596)
(-4.08577e-06 5.54788e-06 0.067817)
(-5.51751e-06 4.10398e-06 0.0678229)
(5.65145e-06 -5.69179e-06 0.0830573)
(-2.02901e-06 6.91285e-06 0.0709202)
(-1.49202e-06 1.15045e-05 0.081621)
(3.11091e-05 1.02375e-05 0.115031)
(-2.01102e-05 -2.01361e-05 0.0974816)
(4.29279e-05 2.39776e-05 0.101631)
(2.39694e-05 4.2842e-05 0.101628)
(-3.85372e-05 -3.85633e-05 0.104891)
(-4.00795e-05 -2.14098e-05 0.10172)
(-2.13944e-05 -4.01012e-05 0.101717)
(1.86099e-05 1.85941e-05 0.0974117)
(-2.00934e-05 2.01357e-05 0.0974813)
(2.39288e-05 -4.29103e-05 0.101627)
(4.2853e-05 -2.39779e-05 0.101631)
(-3.85399e-05 3.8567e-05 0.104891)
(-4.00936e-05 2.14035e-05 0.10172)
(-2.13656e-05 4.0065e-05 0.101717)
(1.85385e-05 -1.86298e-05 0.0974116)
(3.11088e-05 -1.02849e-05 0.11503)
(-1.98685e-06 4.56673e-05 0.101663)
(1.22302e-05 -5.23212e-05 0.0995351)
(-6.77883e-06 1.38343e-05 0.0926792)
(3.32902e-06 -2.15133e-05 0.0953759)
(-5.82393e-06 4.39862e-05 0.0996111)
(-3.5167e-06 1.85827e-05 0.0954558)
(8.01336e-06 -5.51639e-05 0.101527)
(-2.02031e-06 -4.56595e-05 0.101663)
(1.22302e-05 5.23356e-05 0.0995357)
(-6.81284e-06 -1.37634e-05 0.0926791)
(3.28554e-06 2.14682e-05 0.0953772)
(-3.57393e-06 -1.85334e-05 0.0954561)
(-5.81675e-06 -4.39591e-05 0.0996106)
(8.03453e-06 5.51555e-05 0.101528)
(-4.56745e-05 -2.00685e-06 0.101663)
(5.23555e-05 1.22189e-05 0.0995338)
(-1.38013e-05 -6.78537e-06 0.0926789)
(2.15103e-05 3.28096e-06 0.0953753)
(-1.85902e-05 -3.53572e-06 0.0954553)
(-4.39534e-05 -5.83031e-06 0.0996099)
(5.51421e-05 7.98833e-06 0.101527)
(-4.23504e-05 7.74332e-07 0.103337)
(-1.73919e-05 -4.67354e-07 0.0985998)
(2.44484e-05 1.51408e-06 0.0974697)
(5.68868e-05 7.56383e-07 0.103929)
(-1.78327e-05 -1.10633e-06 0.0975482)
(-4.05293e-05 6.13667e-07 0.104055)
(5.65602e-05 3.89996e-06 0.103181)
(-4.56343e-05 1.95459e-06 0.101662)
(5.23171e-05 -1.22257e-05 0.0995331)
(-1.37723e-05 6.73571e-06 0.0926792)
(2.14966e-05 -3.27598e-06 0.0953756)
(-1.85423e-05 3.48937e-06 0.0954555)
(-4.3948e-05 5.77068e-06 0.0996094)
(5.51738e-05 -8.02007e-06 0.101526)
(-4.2348e-05 -8.10475e-07 0.103337)
(-1.74012e-05 4.35856e-07 0.0985997)
(5.68869e-05 -8.00633e-07 0.103929)
(2.44069e-05 -1.50996e-06 0.09747)
(-4.05319e-05 -6.68391e-07 0.104055)
(-1.78159e-05 1.07804e-06 0.0975483)
(5.65426e-05 -3.94146e-06 0.103181)
(-1.71596e-05 9.81664e-06 0.108269)
(-4.40295e-05 -4.40726e-05 0.104731)
(2.05163e-05 2.04871e-05 0.113156)
(-1.48991e-05 8.48002e-06 0.108214)
(8.48704e-06 -1.48932e-05 0.108213)
(-4.22542e-05 -4.22826e-05 0.104677)
(1.87078e-05 1.86943e-05 0.113166)
(-1.27393e-05 7.23577e-06 0.108162)
(7.23474e-06 -1.27398e-05 0.108161)
(-4.06002e-05 -4.06232e-05 0.104626)
(1.68901e-05 1.68906e-05 0.113169)
(-1.06698e-05 6.06646e-06 0.108111)
(6.05783e-06 -1.0671e-05 0.10811)
(-3.90604e-05 -3.90764e-05 0.104579)
(1.50753e-05 1.50848e-05 0.113166)
(-8.69675e-06 4.97019e-06 0.108062)
(4.95971e-06 -8.69534e-06 0.108061)
(-3.76643e-05 -3.76702e-05 0.104536)
(1.32702e-05 1.32854e-05 0.113157)
(-6.82268e-06 3.94389e-06 0.108015)
(3.92511e-06 -6.81515e-06 0.108014)
(-3.63317e-05 -3.63321e-05 0.104495)
(1.14879e-05 1.15092e-05 0.113144)
(-5.04272e-06 2.97359e-06 0.10797)
(2.95611e-06 -5.03647e-06 0.107969)
(-3.51064e-05 -3.50972e-05 0.104458)
(9.73791e-06 9.75879e-06 0.113127)
(-3.3657e-06 2.05369e-06 0.107928)
(2.0435e-06 -3.35721e-06 0.107927)
(-3.39703e-05 -3.39558e-05 0.104424)
(7.99815e-06 8.02316e-06 0.113105)
(-1.77125e-06 1.20355e-06 0.107888)
(1.18683e-06 -1.7624e-06 0.107887)
(-3.29237e-05 -3.29081e-05 0.104392)
(6.27397e-06 6.29534e-06 0.113081)
(-2.6094e-07 3.79662e-07 0.10785)
(3.67302e-07 -2.47618e-07 0.107849)
(-3.19684e-05 -3.19589e-05 0.104364)
(4.59024e-06 4.60824e-06 0.113054)
(1.1923e-06 -3.62264e-07 0.107814)
(-3.67134e-07 1.20664e-06 0.107813)
(-3.10462e-05 -3.10401e-05 0.104338)
(2.97031e-06 2.98484e-06 0.113025)
(2.62013e-06 -1.00833e-06 0.107781)
(-1.01186e-06 2.63794e-06 0.10778)
(-3.01913e-05 -3.01956e-05 0.104314)
(1.56098e-06 1.56626e-06 0.112993)
(3.75163e-06 -1.55522e-06 0.107749)
(-1.56198e-06 3.76632e-06 0.107748)
(-2.93711e-05 -2.93843e-05 0.104293)
(1.97949e-07 1.95224e-07 0.11296)
(4.77206e-06 -2.07339e-06 0.107719)
(-2.07268e-06 4.78143e-06 0.107718)
(-2.86201e-05 -2.86446e-05 0.104275)
(-1.11322e-06 -1.12259e-06 0.112926)
(5.72233e-06 -2.52868e-06 0.107692)
(-2.53422e-06 5.73136e-06 0.107691)
(-2.79415e-05 -2.79741e-05 0.104258)
(-2.2142e-06 -2.22488e-06 0.11289)
(6.52004e-06 -3.04005e-06 0.107666)
(-3.04069e-06 6.52351e-06 0.107665)
(-2.73329e-05 -2.73688e-05 0.104244)
(-3.25479e-06 -3.26215e-06 0.112854)
(7.23961e-06 -3.50362e-06 0.107642)
(-3.51137e-06 7.23762e-06 0.107641)
(-2.67801e-05 -2.68125e-05 0.104231)
(-4.20919e-06 -4.21201e-06 0.112817)
(7.8898e-06 -3.9221e-06 0.107619)
(-3.93828e-06 7.8827e-06 0.107618)
(-2.62857e-05 -2.63093e-05 0.10422)
(-5.07752e-06 -5.06682e-06 0.11278)
(8.44839e-06 -4.27176e-06 0.107598)
(-4.30562e-06 8.43673e-06 0.107597)
(-2.58728e-05 -2.58814e-05 0.104211)
(-5.84565e-06 -5.80832e-06 0.112742)
(8.9014e-06 -4.55344e-06 0.107578)
(-4.60998e-06 8.88535e-06 0.107577)
(-2.55343e-05 -2.55137e-05 0.104203)
(-6.50556e-06 -6.43787e-06 0.112705)
(9.23113e-06 -4.75729e-06 0.10756)
(-4.83859e-06 9.22472e-06 0.10756)
(-2.53104e-05 -2.52386e-05 0.104197)
(-7.04895e-06 -6.94471e-06 0.112668)
(9.4414e-06 -4.88086e-06 0.107544)
(-4.98071e-06 9.45064e-06 0.107543)
(-2.5193e-05 -2.50593e-05 0.104192)
(-7.46327e-06 -7.32694e-06 0.112632)
(9.52435e-06 -4.92905e-06 0.107529)
(-5.02655e-06 9.56968e-06 0.107529)
(-2.51722e-05 -2.49693e-05 0.104189)
(-7.74808e-06 -7.60728e-06 0.112597)
(9.49687e-06 -4.91145e-06 0.107516)
(-4.99687e-06 9.56401e-06 0.107516)
(-2.52202e-05 -2.49929e-05 0.104188)
(-7.90347e-06 -7.79325e-06 0.112564)
(9.37179e-06 -4.84885e-06 0.107505)
(-4.89028e-06 9.45781e-06 0.107505)
(-2.53004e-05 -2.5123e-05 0.104187)
(-7.96932e-06 -7.91628e-06 0.112532)
(9.18962e-06 -4.75326e-06 0.107496)
(-4.74016e-06 9.27647e-06 0.107496)
(-2.54053e-05 -2.53229e-05 0.104189)
(-7.96085e-06 -7.99423e-06 0.112502)
(8.96965e-06 -4.65202e-06 0.107488)
(-4.56425e-06 9.03763e-06 0.107489)
(-2.55175e-05 -2.55582e-05 0.104191)
(-7.90981e-06 -8.04322e-06 0.112473)
(8.7338e-06 -4.55387e-06 0.107482)
(-4.40964e-06 8.78068e-06 0.107482)
(-2.56203e-05 -2.58082e-05 0.104194)
(-7.83591e-06 -8.06999e-06 0.112446)
(8.49784e-06 -4.46996e-06 0.107478)
(-4.29132e-06 8.51415e-06 0.107477)
(-2.57329e-05 -2.6025e-05 0.104198)
(-7.77628e-06 -8.07064e-06 0.11242)
(8.27712e-06 -4.4119e-06 0.107474)
(-4.21313e-06 8.2523e-06 0.107473)
(-2.58533e-05 -2.61786e-05 0.104203)
(-7.72517e-06 -8.03828e-06 0.112395)
(8.06969e-06 -4.35666e-06 0.107471)
(-4.17289e-06 8.01421e-06 0.10747)
(-2.59857e-05 -2.62779e-05 0.104208)
(-7.67514e-06 -7.96142e-06 0.112371)
(7.87359e-06 -4.29815e-06 0.107469)
(-4.15761e-06 7.79859e-06 0.107468)
(-2.61376e-05 -2.63395e-05 0.104214)
(-7.58653e-06 -7.80973e-06 0.112348)
(7.65128e-06 -4.19019e-06 0.107468)
(-4.10162e-06 7.56907e-06 0.107466)
(-2.63155e-05 -2.64026e-05 0.104219)
(-7.43142e-06 -7.57303e-06 0.112326)
(7.37871e-06 -4.02468e-06 0.107466)
(-3.97476e-06 7.3017e-06 0.107464)
(-2.65376e-05 -2.65267e-05 0.104225)
(-7.18225e-06 -7.23935e-06 0.112305)
(7.02638e-06 -3.77681e-06 0.107465)
(-3.76031e-06 6.96416e-06 0.107462)
(-2.6804e-05 -2.67235e-05 0.10423)
(-6.82579e-06 -6.81357e-06 0.112286)
(6.57598e-06 -3.46811e-06 0.107464)
(-3.47914e-06 6.53613e-06 0.107461)
(-2.71227e-05 -2.70083e-05 0.104236)
(-6.37318e-06 -6.30736e-06 0.112268)
(6.02048e-06 -3.11966e-06 0.107464)
(-3.16018e-06 5.99468e-06 0.107461)
(-2.74896e-05 -2.73902e-05 0.104241)
(-5.8566e-06 -5.72551e-06 0.112253)
(5.35939e-06 -2.75142e-06 0.107463)
(-2.83844e-06 5.3328e-06 0.107461)
(-2.79096e-05 -2.78524e-05 0.104246)
(-5.27064e-06 -5.08734e-06 0.112239)
(4.59616e-06 -2.37371e-06 0.107463)
(-2.48921e-06 4.57358e-06 0.107461)
(-2.84083e-05 -2.83732e-05 0.104251)
(-4.58071e-06 -4.4407e-06 0.112229)
(3.77336e-06 -2.01845e-06 0.107464)
(-2.07419e-06 3.78771e-06 0.107462)
(-2.89647e-05 -2.89201e-05 0.104256)
(-3.87188e-06 -3.81994e-06 0.112221)
(2.9713e-06 -1.69002e-06 0.107465)
(-1.70269e-06 2.97889e-06 0.107463)
(-2.95026e-05 -2.95055e-05 0.10426)
(-3.25066e-06 -3.23007e-06 0.112216)
(2.25827e-06 -1.32853e-06 0.107467)
(-1.38022e-06 2.18838e-06 0.107464)
(-2.99289e-05 -3.01109e-05 0.104263)
(-2.73734e-06 -2.80376e-06 0.112214)
(1.69203e-06 -9.8334e-07 0.107469)
(-9.89027e-07 1.60244e-06 0.107466)
(-3.02762e-05 -3.05154e-05 0.104265)
(-2.57776e-06 -2.7443e-06 0.112215)
(1.30854e-06 -6.99856e-07 0.107471)
(-6.08691e-07 1.26299e-06 0.107469)
(-3.03489e-05 -3.05006e-05 0.104266)
(-3.14361e-06 -3.24103e-06 0.112219)
(1.03402e-06 -2.10545e-07 0.107475)
(-1.55784e-07 9.54243e-07 0.107472)
(-2.94168e-05 -2.95477e-05 0.10427)
(-5.08391e-06 -5.07379e-06 0.112227)
(6.37222e-07 1.11844e-06 0.107481)
(1.05406e-06 5.09128e-07 0.107477)
(-2.52014e-05 -2.53515e-05 0.104281)
(-1.45708e-05 -1.45404e-05 0.112235)
(2.5455e-06 2.72001e-06 0.107491)
(2.61666e-06 2.46346e-06 0.107488)
(-1.00277e-05 -1.01217e-05 0.104327)
(-1.65322e-05 -1.6438e-05 0.11237)
(0.000115681 -5.59238e-05 0.107764)
(-5.59781e-05 0.000115609 0.107761)
(3.53406e-05 3.53597e-05 0.10469)
(-3.8948e-05 -3.8958e-05 0.104848)
(-9.924e-06 1.71907e-05 0.108266)
(8.8676e-06 1.54541e-05 0.108225)
(-8.91267e-06 1.54819e-05 0.108225)
(-4.40681e-05 4.39825e-05 0.104731)
(3.8965e-05 -3.89817e-05 0.104849)
(1.54541e-05 8.79576e-06 0.108227)
(1.54782e-05 -8.88206e-06 0.108224)
(-1.71488e-05 -9.88193e-06 0.108266)
(-1.54504e-05 8.81205e-06 0.108228)
(-1.54449e-05 -8.86335e-06 0.108225)
(-3.89518e-05 3.89781e-05 0.104848)
(-9.80111e-06 -1.71598e-05 0.108267)
(8.82113e-06 -1.5447e-05 0.108227)
(-8.79265e-06 -1.54497e-05 0.108226)
(3.89814e-05 3.89452e-05 0.104848)
(4.22852e-05 4.22584e-05 0.104677)
(-3.94417e-05 -3.94284e-05 0.104794)
(8.53503e-06 1.49038e-05 0.108212)
(-8.58103e-06 1.49284e-05 0.108211)
(7.58416e-06 1.32834e-05 0.108172)
(-7.63305e-06 1.33002e-05 0.108172)
(-4.22625e-05 4.21872e-05 0.104677)
(3.94587e-05 -3.94654e-05 0.104795)
(1.49027e-05 8.47291e-06 0.108213)
(1.49257e-05 -8.55581e-06 0.108211)
(1.32649e-05 7.53677e-06 0.108173)
(1.33004e-05 -7.60316e-06 0.108171)
(-1.48962e-05 -8.5362e-06 0.108211)
(-1.32669e-05 7.5382e-06 0.108175)
(-1.32679e-05 -7.57813e-06 0.108171)
(4.22339e-05 -4.23034e-05 0.104677)
(-3.94473e-05 3.94715e-05 0.104794)
(-8.47077e-06 -1.48985e-05 0.108213)
(7.53909e-06 -1.32682e-05 0.108174)
(-7.51589e-06 -1.32632e-05 0.108173)
(3.94654e-05 3.94337e-05 0.104794)
(4.06165e-05 4.06137e-05 0.104627)
(-3.99115e-05 -3.98795e-05 0.104744)
(7.27512e-06 1.27546e-05 0.108159)
(-7.32082e-06 1.27743e-05 0.108158)
(6.38201e-06 1.1201e-05 0.108121)
(-6.42644e-06 1.12195e-05 0.10812)
(-4.06263e-05 4.05649e-05 0.104627)
(3.9889e-05 -3.98786e-05 0.104744)
(1.27368e-05 7.23684e-06 0.10816)
(1.27678e-05 -7.29559e-06 0.108158)
(1.11696e-05 6.35904e-06 0.108122)
(1.12078e-05 -6.39724e-06 0.108119)
(-1.2736e-05 -7.27333e-06 0.108158)
(-1.11777e-05 6.35631e-06 0.108123)
(-1.11797e-05 -6.38271e-06 0.10812)
(4.05821e-05 -4.06496e-05 0.104626)
(-3.98781e-05 3.99051e-05 0.104743)
(-7.2153e-06 -1.27318e-05 0.10816)
(6.34463e-06 -1.11727e-05 0.108122)
(-6.33125e-06 -1.11721e-05 0.108122)
(3.99093e-05 3.98843e-05 0.104743)
(3.90645e-05 3.9082e-05 0.10458)
(-4.02981e-05 -4.02557e-05 0.104697)
(6.09116e-06 1.06975e-05 0.108108)
(-6.12796e-06 1.07108e-05 0.108108)
(5.25515e-06 9.21287e-06 0.108071)
(-5.29379e-06 9.23187e-06 0.108071)
(-3.91032e-05 3.90586e-05 0.10458)
(4.02651e-05 -4.0242e-05 0.104697)
(1.06631e-05 6.07374e-06 0.10811)
(1.0703e-05 -6.11259e-06 0.108107)
(9.16878e-06 5.24341e-06 0.108073)
(9.21414e-06 -5.2782e-06 0.10807)
(-1.06737e-05 -6.09441e-06 0.108108)
(-9.18069e-06 5.24702e-06 0.108074)
(-9.19109e-06 -5.25891e-06 0.108071)
(3.90381e-05 -3.91039e-05 0.104579)
(-4.02582e-05 4.02878e-05 0.104696)
(-6.04555e-06 -1.06649e-05 0.108109)
(5.22982e-06 -9.17589e-06 0.108073)
(-5.21194e-06 -9.17385e-06 0.108072)
(4.02847e-05 4.02682e-05 0.104696)
(3.76318e-05 3.76589e-05 0.104536)
(-4.06334e-05 -4.05881e-05 0.104653)
(4.98552e-06 8.73357e-06 0.108059)
(-5.0193e-06 8.74856e-06 0.108059)
(4.2014e-06 7.31852e-06 0.108024)
(-4.23531e-06 7.33842e-06 0.108023)
(-3.76602e-05 3.76298e-05 0.104536)
(4.06079e-05 -4.05721e-05 0.104653)
(8.69006e-06 4.9747e-06 0.108061)
(8.72946e-06 -5.00573e-06 0.108058)
(7.26724e-06 4.20092e-06 0.108025)
(7.31553e-06 -4.22048e-06 0.108022)
(-8.70642e-06 -4.98623e-06 0.108059)
(-7.27874e-06 4.18741e-06 0.108026)
(-7.2915e-06 -4.20485e-06 0.108023)
(3.76272e-05 -3.76842e-05 0.104536)
(-4.05914e-05 4.06275e-05 0.104652)
(-4.94321e-06 -8.68788e-06 0.10806)
(4.17605e-06 -7.27392e-06 0.108025)
(-4.16559e-06 -7.26925e-06 0.108025)
(4.06127e-05 4.06033e-05 0.104652)
(3.63227e-05 3.63527e-05 0.104496)
(-4.09188e-05 -4.08745e-05 0.104613)
(3.94486e-06 6.861e-06 0.108013)
(-3.98485e-06 6.88041e-06 0.108012)
(3.21193e-06 5.51994e-06 0.107979)
(-3.24376e-06 5.53929e-06 0.107978)
(-3.63309e-05 3.63137e-05 0.104496)
(4.0904e-05 -4.08656e-05 0.104613)
(6.80823e-06 3.94342e-06 0.108014)
(6.85594e-06 -3.96515e-06 0.108011)
(5.46796e-06 3.21042e-06 0.10798)
(5.51956e-06 -3.23601e-06 0.107977)
(-6.8345e-06 -3.95082e-06 0.108012)
(-5.47557e-06 3.21262e-06 0.107981)
(-5.49372e-06 -3.20924e-06 0.107978)
(3.6301e-05 -3.63494e-05 0.104495)
(-4.08677e-05 4.09112e-05 0.104612)
(-3.91728e-06 -6.80984e-06 0.108013)
(3.19566e-06 -5.47084e-06 0.10798)
(-3.18194e-06 -5.4662e-06 0.10798)
(4.09049e-05 4.09046e-05 0.104612)
(3.50977e-05 3.51274e-05 0.104458)
(-4.11684e-05 -4.11335e-05 0.104575)
(2.97077e-06 5.08618e-06 0.107968)
(-3.00945e-06 5.10813e-06 0.107967)
(2.29129e-06 3.81753e-06 0.107936)
(-2.30132e-06 3.82763e-06 0.107935)
(-3.50908e-05 3.50731e-05 0.104458)
(4.11653e-05 -4.11419e-05 0.104576)
(5.03602e-06 2.97465e-06 0.107969)
(5.08262e-06 -2.99158e-06 0.107966)
(3.76846e-06 2.28371e-06 0.107937)
(3.81445e-06 -2.28948e-06 0.107934)
(-5.06143e-06 -2.9745e-06 0.107967)
(-3.77089e-06 2.26742e-06 0.107938)
(-3.79261e-06 -2.28455e-06 0.107935)
(3.50849e-05 -3.5125e-05 0.104458)
(-4.1122e-05 4.11764e-05 0.104575)
(-2.94748e-06 -5.03262e-06 0.107969)
(2.26409e-06 -3.76214e-06 0.107937)
(-2.26255e-06 -3.76359e-06 0.107937)
(4.11532e-05 4.11584e-05 0.104575)
(3.39677e-05 3.39869e-05 0.104424)
(-4.13918e-05 -4.13645e-05 0.104541)
(2.06529e-06 3.40812e-06 0.107926)
(-2.07943e-06 3.42768e-06 0.107925)
(1.42262e-06 2.20716e-06 0.107895)
(-1.4369e-06 2.23074e-06 0.107894)
(-3.39677e-05 3.39422e-05 0.104424)
(4.13822e-05 -4.13456e-05 0.104541)
(3.36167e-06 2.05888e-06 0.107927)
(3.4079e-06 -2.06513e-06 0.107924)
(2.16091e-06 1.41363e-06 0.107897)
(2.20855e-06 -1.41299e-06 0.107894)
(-3.3829e-06 -2.05749e-06 0.107925)
(-2.15855e-06 1.41382e-06 0.107898)
(-2.18023e-06 -1.40206e-06 0.107895)
(3.39597e-05 -3.39874e-05 0.104424)
(-4.13465e-05 4.14021e-05 0.10454)
(-2.03709e-06 -3.35257e-06 0.107926)
(1.39918e-06 -2.14922e-06 0.107897)
(-1.38719e-06 -2.14759e-06 0.107896)
(4.13763e-05 4.13834e-05 0.10454)
(3.29056e-05 3.29177e-05 0.104393)
(-4.15492e-05 -4.15326e-05 0.10451)
(1.21171e-06 1.81857e-06 0.107886)
(-1.22607e-06 1.84085e-06 0.107885)
(5.92871e-07 6.68514e-07 0.107857)
(-6.09093e-07 6.9418e-07 0.107856)
(-3.29135e-05 3.28997e-05 0.104392)
(4.15632e-05 -4.1528e-05 0.10451)
(1.77407e-06 1.20215e-06 0.107887)
(1.82021e-06 -1.19942e-06 0.107884)
(6.31038e-07 5.84745e-07 0.107858)
(6.77553e-07 -5.82596e-07 0.107855)
(-1.79088e-06 -1.19163e-06 0.107885)
(-6.27824e-07 5.85311e-07 0.107859)
(-6.50242e-07 -5.81002e-07 0.107856)
(3.29134e-05 -3.29385e-05 0.104392)
(-4.1516e-05 4.15732e-05 0.104509)
(-1.17659e-06 -1.75822e-06 0.107886)
(5.67185e-07 -6.1432e-07 0.107858)
(-5.61476e-07 -6.12101e-07 0.107858)
(4.15553e-05 4.1556e-05 0.104509)
(3.19586e-05 3.19597e-05 0.104364)
(-4.17002e-05 -4.16976e-05 0.104481)
(3.94687e-07 2.98499e-07 0.107848)
(-4.06876e-07 3.22954e-07 0.107847)
(-1.77656e-07 -8.03256e-07 0.107821)
(1.71492e-07 -7.77311e-07 0.10782)
(-3.19354e-05 3.19208e-05 0.104364)
(4.17168e-05 -4.16875e-05 0.104481)
(2.61178e-07 3.78368e-07 0.107849)
(3.07139e-07 -3.80464e-07 0.107846)
(-8.31496e-07 -1.93651e-07 0.107822)
(-7.88371e-07 1.87329e-07 0.107819)
(-2.77678e-07 -3.76833e-07 0.107847)
(8.3504e-07 -1.91399e-07 0.107823)
(8.15069e-07 1.91942e-07 0.10782)
(3.19259e-05 -3.19501e-05 0.104364)
(-4.16823e-05 4.17384e-05 0.10448)
(-3.57856e-07 -2.39999e-07 0.107849)
(-1.93087e-07 8.49316e-07 0.107822)
(2.07671e-07 8.49558e-07 0.107821)
(4.17021e-05 4.16993e-05 0.10448)
(3.10407e-05 3.10284e-05 0.104338)
(-4.18332e-05 -4.18409e-05 0.104455)
(-3.43465e-07 -1.16209e-06 0.107812)
(3.42425e-07 -1.13803e-06 0.107811)
(-8.328e-07 -2.25235e-06 0.107787)
(8.34737e-07 -2.22674e-06 0.107786)
(-3.10266e-05 3.10076e-05 0.104338)
(4.18442e-05 -4.1822e-05 0.104455)
(-1.18994e-06 -3.67159e-07 0.107813)
(-1.14908e-06 3.60138e-07 0.10781)
(-2.27081e-06 -8.56154e-07 0.107788)
(-2.23583e-06 8.49784e-07 0.107785)
(1.17854e-06 3.62862e-07 0.107811)
(2.27703e-06 -8.57249e-07 0.107789)
(2.26122e-06 8.47621e-07 0.107786)
(3.10128e-05 -3.10382e-05 0.104338)
(-4.18053e-05 4.18544e-05 0.104455)
(3.81262e-07 1.21343e-06 0.107813)
(-8.61643e-07 2.29585e-06 0.107788)
(8.72366e-07 2.29399e-06 0.107787)
(4.18582e-05 4.18443e-05 0.104455)
(3.0208e-05 3.01864e-05 0.104315)
(-4.19583e-05 -4.19779e-05 0.104432)
(-9.79095e-07 -2.59519e-06 0.107778)
(9.85465e-07 -2.574e-06 0.107777)
(-1.38653e-06 -3.47097e-06 0.107755)
(1.39099e-06 -3.44966e-06 0.107754)
(-3.01933e-05 3.0166e-05 0.104314)
(4.19847e-05 -4.19693e-05 0.104432)
(-2.6129e-06 -1.00608e-06 0.10778)
(-2.58236e-06 9.98543e-07 0.107777)
(-3.48489e-06 -1.42455e-06 0.107756)
(-3.45747e-06 1.40595e-06 0.107753)
(2.60987e-06 9.97612e-07 0.107778)
(3.49268e-06 -1.41958e-06 0.107757)
(3.4792e-06 1.39845e-06 0.107754)
(3.01751e-05 -3.02069e-05 0.104314)
(-4.19585e-05 4.19913e-05 0.104431)
(1.02374e-06 2.64086e-06 0.107779)
(-1.42679e-06 3.50974e-06 0.107756)
(1.43064e-06 3.50287e-06 0.107755)
(4.19927e-05 4.19703e-05 0.104431)
(2.94018e-05 2.93694e-05 0.104294)
(-4.20762e-05 -4.21021e-05 0.104411)
(-1.51945e-06 -3.73109e-06 0.107747)
(1.52785e-06 -3.71203e-06 0.107746)
(-1.89988e-06 -4.50492e-06 0.107725)
(1.91162e-06 -4.48839e-06 0.107724)
(-2.93773e-05 2.93453e-05 0.104294)
(4.20917e-05 -4.20867e-05 0.104411)
(-3.74314e-06 -1.55705e-06 0.107748)
(-3.72021e-06 1.5409e-06 0.107745)
(-4.51236e-06 -1.94401e-06 0.107726)
(-4.49518e-06 1.91709e-06 0.107723)
(3.74302e-06 1.53143e-06 0.107746)
(4.52462e-06 -1.94552e-06 0.107727)
(4.51794e-06 1.91161e-06 0.107724)
(2.93577e-05 -2.94032e-05 0.104293)
(-4.20797e-05 4.21008e-05 0.10441)
(1.56098e-06 3.76346e-06 0.107748)
(-1.94757e-06 4.53593e-06 0.107726)
(1.95452e-06 4.53449e-06 0.107725)
(4.21058e-05 4.2072e-05 0.10441)
(2.86608e-05 2.86242e-05 0.104275)
(-4.21578e-05 -4.21871e-05 0.104392)
(-2.0241e-06 -4.75239e-06 0.107717)
(2.03382e-06 -4.7385e-06 0.107716)
(-2.35748e-06 -5.48813e-06 0.107696)
(2.36644e-06 -5.47761e-06 0.107695)
(-2.86444e-05 2.86006e-05 0.104275)
(4.21644e-05 -4.21778e-05 0.104392)
(-4.75925e-06 -2.07151e-06 0.107719)
(-4.74556e-06 2.03744e-06 0.107716)
(-5.49348e-06 -2.40993e-06 0.107698)
(-5.48392e-06 2.36327e-06 0.107695)
(4.76842e-06 2.03329e-06 0.107717)
(5.50182e-06 -2.41149e-06 0.107698)
(5.50072e-06 2.36069e-06 0.107696)
(2.86113e-05 -2.86702e-05 0.104275)
(-4.21701e-05 4.21662e-05 0.104392)
(2.07807e-06 4.78344e-06 0.107718)
(-2.41174e-06 5.51231e-06 0.107697)
(2.41652e-06 5.51221e-06 0.107697)
(4.21941e-05 4.21504e-05 0.104391)
(2.79714e-05 2.7932e-05 0.104258)
(-4.22093e-05 -4.22323e-05 0.104376)
(-2.47672e-06 -5.7119e-06 0.10769)
(2.47893e-06 -5.70399e-06 0.107689)
(-2.86437e-06 -6.33248e-06 0.10767)
(2.85124e-06 -6.32876e-06 0.107669)
(-2.79668e-05 2.79051e-05 0.104258)
(4.22014e-05 -4.22367e-05 0.104376)
(-5.71667e-06 -2.52951e-06 0.107691)
(-5.70915e-06 2.47673e-06 0.107688)
(-6.33569e-06 -2.91239e-06 0.107671)
(-6.33073e-06 2.83838e-06 0.107668)
(5.72137e-06 2.47374e-06 0.107689)
(6.3361e-06 -2.91626e-06 0.107672)
(6.33386e-06 2.84627e-06 0.107669)
(2.79148e-05 -2.7999e-05 0.104258)
(-4.22364e-05 4.2203e-05 0.104375)
(2.536e-06 5.7325e-06 0.10769)
(-2.91559e-06 6.34043e-06 0.107671)
(2.91178e-06 6.34167e-06 0.107671)
(4.22442e-05 4.21964e-05 0.104375)
(2.73656e-05 2.73345e-05 0.104244)
(-4.22555e-05 -4.22664e-05 0.104361)
(-2.98772e-06 -6.51749e-06 0.107664)
(2.9705e-06 -6.51828e-06 0.107663)
(-3.34112e-06 -7.07211e-06 0.107646)
(3.3061e-06 -7.07915e-06 0.107645)
(-2.73691e-05 2.72861e-05 0.104244)
(4.22212e-05 -4.22766e-05 0.104361)
(-6.5231e-06 -3.03496e-06 0.107665)
(-6.52106e-06 2.95634e-06 0.107662)
(-7.08454e-06 -3.38373e-06 0.107647)
(-7.08383e-06 3.29242e-06 0.107644)
(6.52256e-06 2.96961e-06 0.107663)
(7.07151e-06 -3.39396e-06 0.107647)
(7.07484e-06 3.31144e-06 0.107645)
(2.72845e-05 -2.73971e-05 0.104243)
(-4.22788e-05 4.22139e-05 0.10436)
(3.03354e-06 6.5298e-06 0.107664)
(-3.39854e-06 7.07036e-06 0.107646)
(3.37322e-06 7.07964e-06 0.107646)
(4.22612e-05 4.22163e-05 0.10436)
(2.678e-05 2.67635e-05 0.104231)
(-4.22727e-05 -4.22669e-05 0.104348)
(-3.45471e-06 -7.24219e-06 0.10764)
(3.41101e-06 -7.25201e-06 0.107639)
(-3.78213e-06 -7.74389e-06 0.107623)
(3.71476e-06 -7.76157e-06 0.107622)
(-2.68138e-05 2.67113e-05 0.104231)
(4.22089e-05 -4.22858e-05 0.104348)
(-7.25784e-06 -3.49715e-06 0.107641)
(-7.2598e-06 3.4017e-06 0.107638)
(-7.77056e-06 -3.81597e-06 0.107624)
(-7.77202e-06 3.70099e-06 0.107621)
(7.24622e-06 3.42291e-06 0.107639)
(7.73922e-06 -3.82362e-06 0.107624)
(7.7431e-06 3.73303e-06 0.107622)
(2.67117e-05 -2.68557e-05 0.104231)
(-4.23e-05 4.22044e-05 0.104347)
(3.48316e-06 7.2513e-06 0.10764)
(-3.83467e-06 7.73423e-06 0.107623)
(3.78669e-06 7.7496e-06 0.107623)
(4.22665e-05 4.22302e-05 0.104347)
(2.62672e-05 2.62689e-05 0.104221)
(-4.22641e-05 -4.22301e-05 0.104338)
(-3.88359e-06 -7.89466e-06 0.107617)
(3.80692e-06 -7.91661e-06 0.107616)
(-4.17017e-06 -8.33278e-06 0.107601)
(4.06527e-06 -8.35719e-06 0.1076)
(-2.63395e-05 2.62168e-05 0.10422)
(4.2171e-05 -4.22595e-05 0.104337)
(-7.92456e-06 -3.91216e-06 0.107619)
(-7.92797e-06 3.79733e-06 0.107615)
(-8.37381e-06 -4.17737e-06 0.107603)
(-8.37405e-06 4.05758e-06 0.1076)
(7.89475e-06 3.83102e-06 0.107616)
(8.32248e-06 -4.19016e-06 0.107603)
(8.32885e-06 4.10428e-06 0.1076)
(2.6197e-05 -2.637e-05 0.10422)
(-4.22865e-05 4.2164e-05 0.104336)
(3.88331e-06 7.90298e-06 0.107618)
(-4.22152e-06 8.31437e-06 0.107602)
(4.14825e-06 8.34247e-06 0.107601)
(4.2225e-05 4.22013e-05 0.104336)
(2.58155e-05 2.58467e-05 0.104212)
(-4.22169e-05 -4.2143e-05 0.104328)
(-4.25609e-06 -8.45725e-06 0.107596)
(4.14248e-06 -8.48568e-06 0.107595)
(-4.50079e-06 -8.80997e-06 0.107582)
(4.35782e-06 -8.84321e-06 0.10758)
(-2.59141e-05 2.57813e-05 0.104211)
(4.20957e-05 -4.21855e-05 0.104328)
(-8.50236e-06 -4.25734e-06 0.107598)
(-8.50367e-06 4.13818e-06 0.107595)
(-8.87409e-06 -4.47469e-06 0.107583)
(-8.86661e-06 4.35987e-06 0.10758)
(8.45333e-06 4.18959e-06 0.107595)
(8.80192e-06 -4.48935e-06 0.107583)
(8.80565e-06 4.42623e-06 0.10758)
(2.57545e-05 -2.59524e-05 0.104211)
(-4.22171e-05 4.2081e-05 0.104327)
(4.2308e-06 8.47029e-06 0.107596)
(-4.5383e-06 8.78847e-06 0.107582)
(4.44134e-06 8.83046e-06 0.107582)
(4.21412e-05 4.21442e-05 0.104327)
(2.54475e-05 2.55222e-05 0.104204)
(-4.21159e-05 -4.19893e-05 0.104321)
(-4.57577e-06 -8.9046e-06 0.107577)
(4.41852e-06 -8.94006e-06 0.107576)
(-4.77234e-06 -9.16533e-06 0.107564)
(4.58466e-06 -9.20109e-06 0.107562)
(-2.55689e-05 2.54376e-05 0.104203)
(4.19595e-05 -4.20409e-05 0.10432)
(-8.97621e-06 -4.53464e-06 0.107579)
(-8.96665e-06 4.42417e-06 0.107575)
(-9.26723e-06 -4.69601e-06 0.107565)
(-9.24549e-06 4.60721e-06 0.107562)
(8.90088e-06 4.49948e-06 0.107576)
(9.16304e-06 -4.71434e-06 0.107565)
(9.15579e-06 4.68821e-06 0.107562)
(2.54098e-05 -2.56193e-05 0.104203)
(-4.2095e-05 4.19592e-05 0.10432)
(4.50396e-06 8.93002e-06 0.107577)
(-4.78962e-06 9.15651e-06 0.107564)
(4.65615e-06 9.20574e-06 0.107563)
(4.19879e-05 4.20379e-05 0.104319)
(2.51672e-05 2.52945e-05 0.104199)
(-4.19342e-05 -4.17648e-05 0.104315)
(-4.82563e-06 -9.22531e-06 0.107559)
(4.63137e-06 -9.26636e-06 0.107558)
(-4.95643e-06 -9.38697e-06 0.107547)
(4.74972e-06 -9.4258e-06 0.107545)
(-2.5324e-05 2.52053e-05 0.104197)
(4.17608e-05 -4.18094e-05 0.104314)
(-9.33823e-06 -4.7398e-06 0.107561)
(-9.31439e-06 4.65983e-06 0.107557)
(-9.53084e-06 -4.8362e-06 0.107549)
(-9.48646e-06 4.79955e-06 0.107545)
(9.21905e-06 4.74524e-06 0.107558)
(9.40081e-06 -4.85581e-06 0.107548)
(9.37488e-06 4.88624e-06 0.107546)
(2.51511e-05 -2.53539e-05 0.104197)
(-4.18806e-05 4.17843e-05 0.104314)
(4.69915e-06 9.27824e-06 0.107559)
(-4.9528e-06 9.40808e-06 0.107547)
(4.80171e-06 9.46751e-06 0.107547)
(4.17599e-05 4.18717e-05 0.104313)
(2.5002e-05 2.51687e-05 0.104194)
(-4.16797e-05 -4.14816e-05 0.104311)
(-4.98967e-06 -9.41641e-06 0.107543)
(4.77944e-06 -9.45732e-06 0.107541)
(-5.05939e-06 -9.48485e-06 0.107532)
(4.85047e-06 -9.51648e-06 0.10753)
(-2.51746e-05 2.50905e-05 0.104192)
(4.15145e-05 -4.15233e-05 0.104309)
(-9.5684e-06 -4.85895e-06 0.107545)
(-9.51997e-06 4.83632e-06 0.107541)
(-9.65793e-06 -4.90211e-06 0.107534)
(-9.58606e-06 4.92917e-06 0.10753)
(9.40589e-06 4.92408e-06 0.107542)
(9.51607e-06 -4.92296e-06 0.107533)
(9.46866e-06 5.02425e-06 0.107531)
(2.50229e-05 -2.51762e-05 0.104193)
(-4.15842e-05 4.15708e-05 0.104309)
(4.82547e-06 9.51043e-06 0.107543)
(-5.02337e-06 9.55965e-06 0.107532)
(4.86685e-06 9.61817e-06 0.107532)
(4.14635e-05 4.16489e-05 0.104309)
(2.4943e-05 2.51327e-05 0.104191)
(-4.13285e-05 -4.11546e-05 0.104308)
(-5.06734e-06 -9.48358e-06 0.107529)
(4.86644e-06 -9.51408e-06 0.107527)