/*--------------------------------*- C++ -*----------------------------------*\
| =========                 |                                                 |
| \\      /  F ield         | OpenFOAM: The Open Source CFD Toolbox           |
|  \\    /   O peration     | Version:  v2012                                 |
|   \\  /    A nd           | Website:  www.openfoam.com                      |
|    \\/     M anipulation  |                                                 |
\*---------------------------------------------------------------------------*/
FoamFile
{
    version     2.0;
    format      ascii;
    class       volScalarField;
    location    "0";
    object      p;
}
// * * * * * * * * * * * * * * * * * * * * * * * * * * * * * * * * * * * * * //

dimensions      [0 2 -2 0 0 0 0];


internalField   nonuniform List<scalar> 
247104
(
5.62678e-07
5.62526e-07
5.62609e-07
5.62668e-07
5.62672e-07
5.62663e-07
5.62602e-07
5.62527e-07
5.62526e-07
5.6264e-07
5.62651e-07
5.6262e-07
5.62605e-07
5.62623e-07
5.62654e-07
5.62634e-07
5.62609e-07
5.62651e-07
5.62577e-07
5.62492e-07
5.62461e-07
5.62501e-07
5.6259e-07
5.62655e-07
5.6259e-07
5.62668e-07
5.62619e-07
5.62492e-07
5.62383e-07
5.62346e-07
5.62393e-07
5.62509e-07
5.62632e-07
5.62669e-07
5.62677e-07
5.62672e-07
5.62605e-07
5.62461e-07
5.62345e-07
5.62307e-07
5.62356e-07
5.62479e-07
5.62621e-07
5.62671e-07
5.62663e-07
5.62623e-07
5.625e-07
5.62393e-07
5.62356e-07
5.62404e-07
5.62517e-07
5.62635e-07
5.62663e-07
5.62602e-07
5.62653e-07
5.62589e-07
5.62508e-07
5.62479e-07
5.62517e-07
5.62601e-07
5.62656e-07
5.62566e-07
5.62526e-07
5.62634e-07
5.62654e-07
5.62632e-07
5.62621e-07
5.62635e-07
5.62656e-07
5.6263e-07
5.62589e-07
5.62668e-07
5.62671e-07
5.62663e-07
5.62565e-07
5.56341e-07
5.56272e-07
5.5625e-07
5.55758e-07
5.5573e-07
5.55735e-07
5.55744e-07
5.56151e-07
5.5625e-07
5.5625e-07
5.55664e-07
5.54819e-07
5.5481e-07
5.5481e-07
5.54819e-07
5.5553e-07
5.5575e-07
5.55758e-07
5.54819e-07
5.54806e-07
5.54798e-07
5.54798e-07
5.54806e-07
5.54819e-07
5.55646e-07
5.56216e-07
5.5634e-07
5.55729e-07
5.5481e-07
5.54798e-07
5.54791e-07
5.54791e-07
5.54798e-07
5.5481e-07
5.55584e-07
5.56148e-07
5.56272e-07
5.55735e-07
5.5481e-07
5.54798e-07
5.54791e-07
5.54791e-07
5.54798e-07
5.5481e-07
5.55569e-07
5.55834e-07
5.55744e-07
5.54819e-07
5.54806e-07
5.54798e-07
5.54798e-07
5.54806e-07
5.54819e-07
5.55607e-07
5.56181e-07
5.5615e-07
5.5553e-07
5.54819e-07
5.5481e-07
5.5481e-07
5.54819e-07
5.55395e-07
5.55698e-07
5.56272e-07
5.56249e-07
5.5575e-07
5.55646e-07
5.55584e-07
5.55568e-07
5.55607e-07
5.55698e-07
5.56033e-07
5.56216e-07
5.56147e-07
5.55834e-07
5.56181e-07
5.56272e-07
5.50819e-07
5.50733e-07
5.50746e-07
5.50121e-07
5.50094e-07
5.50103e-07
5.50105e-07
5.50626e-07
5.5074e-07
5.50746e-07
5.50055e-07
5.48926e-07
5.48929e-07
5.48929e-07
5.48926e-07
5.49857e-07
5.50138e-07
5.50121e-07
5.48926e-07
5.48933e-07
5.48936e-07
5.48936e-07
5.48934e-07
5.48926e-07
5.49969e-07
5.5069e-07
5.50819e-07
5.50094e-07
5.48928e-07
5.48936e-07
5.48939e-07
5.48939e-07
5.48936e-07
5.48929e-07
5.49893e-07
5.50599e-07
5.50733e-07
5.50103e-07
5.48929e-07
5.48936e-07
5.48939e-07
5.48939e-07
5.48936e-07
5.48929e-07
5.49879e-07
5.50205e-07
5.50105e-07
5.48926e-07
5.48933e-07
5.48936e-07
5.48936e-07
5.48934e-07
5.48926e-07
5.49915e-07
5.50642e-07
5.50626e-07
5.49857e-07
5.48926e-07
5.48929e-07
5.48929e-07
5.48926e-07
5.4965e-07
5.50064e-07
5.50763e-07
5.5074e-07
5.50138e-07
5.49969e-07
5.49893e-07
5.49879e-07
5.49915e-07
5.50064e-07
5.50482e-07
5.5069e-07
5.50599e-07
5.50205e-07
5.50642e-07
5.50763e-07
5.44916e-07
5.44829e-07
5.44842e-07
5.44213e-07
5.44185e-07
5.44194e-07
5.44197e-07
5.44721e-07
5.44836e-07
5.44842e-07
5.44146e-07
5.43019e-07
5.43018e-07
5.43018e-07
5.43019e-07
5.43947e-07
5.44231e-07
5.44213e-07
5.43019e-07
5.4302e-07
5.43021e-07
5.43021e-07
5.4302e-07
5.43019e-07
5.4406e-07
5.44786e-07
5.44916e-07
5.44185e-07
5.43018e-07
5.43021e-07
5.43022e-07
5.43022e-07
5.43021e-07
5.43018e-07
5.43983e-07
5.44694e-07
5.44829e-07
5.44194e-07
5.43018e-07
5.43021e-07
5.43022e-07
5.43022e-07
5.43021e-07
5.43018e-07
5.43969e-07
5.44298e-07
5.44197e-07
5.43019e-07
5.4302e-07
5.43021e-07
5.43021e-07
5.4302e-07
5.43019e-07
5.44006e-07
5.44737e-07
5.4472e-07
5.43947e-07
5.43019e-07
5.43018e-07
5.43018e-07
5.43019e-07
5.43741e-07
5.44156e-07
5.44859e-07
5.44835e-07
5.44231e-07
5.4406e-07
5.43983e-07
5.43969e-07
5.44006e-07
5.44156e-07
5.44577e-07
5.44786e-07
5.44694e-07
5.44298e-07
5.44737e-07
5.44859e-07
5.39001e-07
5.38914e-07
5.38926e-07
5.38296e-07
5.38267e-07
5.38276e-07
5.3828e-07
5.38805e-07
5.3892e-07
5.38926e-07
5.38228e-07
5.37097e-07
5.37095e-07
5.37095e-07
5.37097e-07
5.38029e-07
5.38314e-07
5.38296e-07
5.37097e-07
5.37097e-07
5.37096e-07
5.37096e-07
5.37097e-07
5.37097e-07
5.38142e-07
5.3887e-07
5.39001e-07
5.38267e-07
5.37095e-07
5.37096e-07
5.37096e-07
5.37096e-07
5.37096e-07
5.37095e-07
5.38064e-07
5.38778e-07
5.38914e-07
5.38276e-07
5.37095e-07
5.37096e-07
5.37096e-07
5.37096e-07
5.37096e-07
5.37095e-07
5.3805e-07
5.38381e-07
5.38279e-07
5.37097e-07
5.37097e-07
5.37096e-07
5.37096e-07
5.37097e-07
5.37097e-07
5.38088e-07
5.38821e-07
5.38805e-07
5.38029e-07
5.37097e-07
5.37095e-07
5.37095e-07
5.37097e-07
5.37822e-07
5.38239e-07
5.38944e-07
5.3892e-07
5.38314e-07
5.38142e-07
5.38064e-07
5.3805e-07
5.38088e-07
5.38239e-07
5.38661e-07
5.3887e-07
5.38778e-07
5.38381e-07
5.38821e-07
5.38944e-07
5.3308e-07
5.32994e-07
5.33006e-07
5.32376e-07
5.32346e-07
5.32355e-07
5.32359e-07
5.32884e-07
5.33e-07
5.33006e-07
5.32308e-07
5.31175e-07
5.31174e-07
5.31174e-07
5.31175e-07
5.32108e-07
5.32393e-07
5.32375e-07
5.31175e-07
5.31175e-07
5.31174e-07
5.31174e-07
5.31175e-07
5.31175e-07
5.32221e-07
5.3295e-07
5.3308e-07
5.32346e-07
5.31174e-07
5.31174e-07
5.31174e-07
5.31174e-07
5.31174e-07
5.31174e-07
5.32143e-07
5.32857e-07
5.32993e-07
5.32355e-07
5.31174e-07
5.31174e-07
5.31174e-07
5.31174e-07
5.31174e-07
5.31174e-07
5.32129e-07
5.3246e-07
5.32359e-07
5.31175e-07
5.31175e-07
5.31174e-07
5.31174e-07
5.31175e-07
5.31175e-07
5.32167e-07
5.329e-07
5.32884e-07
5.32108e-07
5.31175e-07
5.31174e-07
5.31174e-07
5.31175e-07
5.319e-07
5.32318e-07
5.33023e-07
5.33e-07
5.32393e-07
5.32221e-07
5.32143e-07
5.32129e-07
5.32167e-07
5.32318e-07
5.3274e-07
5.32949e-07
5.32857e-07
5.3246e-07
5.329e-07
5.33023e-07
5.27159e-07
5.27072e-07
5.27085e-07
5.26454e-07
5.26425e-07
5.26434e-07
5.26437e-07
5.26963e-07
5.27078e-07
5.27085e-07
5.26386e-07
5.25254e-07
5.25252e-07
5.25252e-07
5.25254e-07
5.26187e-07
5.26472e-07
5.26454e-07
5.25254e-07
5.25253e-07
5.25253e-07
5.25253e-07
5.25253e-07
5.25254e-07
5.263e-07
5.27028e-07
5.27159e-07
5.26425e-07
5.25252e-07
5.25253e-07
5.25253e-07
5.25253e-07
5.25253e-07
5.25252e-07
5.26222e-07
5.26936e-07
5.27072e-07
5.26434e-07
5.25252e-07
5.25253e-07
5.25253e-07
5.25253e-07
5.25253e-07
5.25252e-07
5.26208e-07
5.26539e-07
5.26437e-07
5.25254e-07
5.25253e-07
5.25253e-07
5.25253e-07
5.25253e-07
5.25254e-07
5.26245e-07
5.26979e-07
5.26963e-07
5.26187e-07
5.25254e-07
5.25252e-07
5.25252e-07
5.25254e-07
5.25979e-07
5.26396e-07
5.27102e-07
5.27078e-07
5.26472e-07
5.263e-07
5.26222e-07
5.26208e-07
5.26245e-07
5.26396e-07
5.26819e-07
5.27028e-07
5.26936e-07
5.26539e-07
5.26979e-07
5.27102e-07
5.21237e-07
5.21151e-07
5.21163e-07
5.20533e-07
5.20504e-07
5.20513e-07
5.20516e-07
5.21041e-07
5.21157e-07
5.21163e-07
5.20465e-07
5.19333e-07
5.19331e-07
5.19331e-07
5.19333e-07
5.20265e-07
5.2055e-07
5.20533e-07
5.19333e-07
5.19332e-07
5.19331e-07
5.19331e-07
5.19332e-07
5.19333e-07
5.20379e-07
5.21107e-07
5.21237e-07
5.20504e-07
5.19331e-07
5.19331e-07
5.19331e-07
5.19331e-07
5.19331e-07
5.19331e-07
5.20301e-07
5.21015e-07
5.21151e-07
5.20513e-07
5.19331e-07
5.19331e-07
5.19331e-07
5.19331e-07
5.19331e-07
5.19331e-07
5.20286e-07
5.20618e-07
5.20516e-07
5.19333e-07
5.19332e-07
5.19331e-07
5.19331e-07
5.19332e-07
5.19333e-07
5.20324e-07
5.21058e-07
5.21041e-07
5.20265e-07
5.19333e-07
5.19331e-07
5.19331e-07
5.19333e-07
5.20058e-07
5.20475e-07
5.21181e-07
5.21157e-07
5.2055e-07
5.20379e-07
5.20301e-07
5.20286e-07
5.20324e-07
5.20475e-07
5.20898e-07
5.21107e-07
5.21015e-07
5.20617e-07
5.21058e-07
5.2118e-07
5.15316e-07
5.1523e-07
5.15242e-07
5.14612e-07
5.14582e-07
5.14591e-07
5.14595e-07
5.1512e-07
5.15236e-07
5.15242e-07
5.14544e-07
5.13411e-07
5.13409e-07
5.13409e-07
5.13411e-07
5.14344e-07
5.14629e-07
5.14612e-07
5.13411e-07
5.13411e-07
5.1341e-07
5.1341e-07
5.13411e-07
5.13411e-07
5.14457e-07
5.15186e-07
5.15316e-07
5.14582e-07
5.13409e-07
5.1341e-07
5.1341e-07
5.1341e-07
5.1341e-07
5.13409e-07
5.14379e-07
5.15093e-07
5.1523e-07
5.14591e-07
5.13409e-07
5.1341e-07
5.1341e-07
5.1341e-07
5.1341e-07
5.13409e-07
5.14365e-07
5.14696e-07
5.14595e-07
5.13411e-07
5.13411e-07
5.1341e-07
5.1341e-07
5.13411e-07
5.13411e-07
5.14403e-07
5.15136e-07
5.1512e-07
5.14344e-07
5.13411e-07
5.13409e-07
5.13409e-07
5.13411e-07
5.14136e-07
5.14554e-07
5.15259e-07
5.15236e-07
5.14629e-07
5.14457e-07
5.14379e-07
5.14365e-07
5.14403e-07
5.14554e-07
5.14976e-07
5.15186e-07
5.15093e-07
5.14696e-07
5.15136e-07
5.15259e-07
5.09394e-07
5.09308e-07
5.0932e-07
5.0869e-07
5.08661e-07
5.0867e-07
5.08673e-07
5.09198e-07
5.09314e-07
5.0932e-07
5.08622e-07
5.0749e-07
5.07488e-07
5.07488e-07
5.0749e-07
5.08422e-07
5.08707e-07
5.0869e-07
5.0749e-07
5.07489e-07
5.07488e-07
5.07488e-07
5.07489e-07
5.0749e-07
5.08536e-07
5.09264e-07
5.09394e-07
5.08661e-07
5.07488e-07
5.07488e-07
5.07488e-07
5.07488e-07
5.07488e-07
5.07488e-07
5.08458e-07
5.09172e-07
5.09308e-07
5.0867e-07
5.07488e-07
5.07488e-07
5.07488e-07
5.07488e-07
5.07488e-07
5.07488e-07
5.08443e-07
5.08774e-07
5.08673e-07
5.0749e-07
5.07489e-07
5.07488e-07
5.07488e-07
5.07489e-07
5.0749e-07
5.08481e-07
5.09215e-07
5.09198e-07
5.08422e-07
5.0749e-07
5.07488e-07
5.07488e-07
5.0749e-07
5.08215e-07
5.08632e-07
5.09337e-07
5.09314e-07
5.08707e-07
5.08536e-07
5.08458e-07
5.08443e-07
5.08481e-07
5.08632e-07
5.09055e-07
5.09264e-07
5.09172e-07
5.08774e-07
5.09215e-07
5.09337e-07
5.03473e-07
5.03386e-07
5.03399e-07
5.02768e-07
5.02739e-07
5.02748e-07
5.02751e-07
5.03277e-07
5.03392e-07
5.03399e-07
5.027e-07
5.01568e-07
5.01566e-07
5.01566e-07
5.01568e-07
5.02501e-07
5.02786e-07
5.02768e-07
5.01568e-07
5.01567e-07
5.01567e-07
5.01567e-07
5.01567e-07
5.01568e-07
5.02614e-07
5.03342e-07
5.03473e-07
5.02739e-07
5.01566e-07
5.01567e-07
5.01567e-07
5.01567e-07
5.01567e-07
5.01566e-07
5.02536e-07
5.0325e-07
5.03386e-07
5.02748e-07
5.01566e-07
5.01567e-07
5.01567e-07
5.01567e-07
5.01567e-07
5.01566e-07
5.02522e-07
5.02853e-07
5.02751e-07
5.01568e-07
5.01567e-07
5.01567e-07
5.01567e-07
5.01567e-07
5.01568e-07
5.02559e-07
5.03293e-07
5.03277e-07
5.02501e-07
5.01568e-07
5.01566e-07
5.01566e-07
5.01568e-07
5.02293e-07
5.02711e-07
5.03416e-07
5.03393e-07
5.02786e-07
5.02614e-07
5.02536e-07
5.02522e-07
5.02559e-07
5.02711e-07
5.03133e-07
5.03342e-07
5.0325e-07
5.02853e-07
5.03293e-07
5.03416e-07
4.97551e-07
4.97465e-07
4.97477e-07
4.96847e-07
4.96818e-07
4.96827e-07
4.9683e-07
4.97355e-07
4.97471e-07
4.97477e-07
4.96779e-07
4.95646e-07
4.95645e-07
4.95645e-07
4.95646e-07
4.96579e-07
4.96864e-07
4.96847e-07
4.95646e-07
4.95646e-07
4.95645e-07
4.95645e-07
4.95646e-07
4.95646e-07
4.96692e-07
4.97421e-07
4.97551e-07
4.96817e-07
4.95645e-07
4.95645e-07
4.95645e-07
4.95645e-07
4.95645e-07
4.95645e-07
4.96614e-07
4.97328e-07
4.97465e-07
4.96827e-07
4.95645e-07
4.95645e-07
4.95645e-07
4.95645e-07
4.95645e-07
4.95645e-07
4.966e-07
4.96931e-07
4.9683e-07
4.95646e-07
4.95646e-07
4.95645e-07
4.95645e-07
4.95646e-07
4.95646e-07
4.96638e-07
4.97371e-07
4.97355e-07
4.96579e-07
4.95646e-07
4.95645e-07
4.95645e-07
4.95646e-07
4.96371e-07
4.96789e-07
4.97494e-07
4.97471e-07
4.96864e-07
4.96692e-07
4.96614e-07
4.966e-07
4.96638e-07
4.96789e-07
4.97211e-07
4.97421e-07
4.97328e-07
4.96931e-07
4.97371e-07
4.97494e-07
4.91629e-07
4.91543e-07
4.91555e-07
4.90925e-07
4.90896e-07
4.90905e-07
4.90908e-07
4.91433e-07
4.91549e-07
4.91555e-07
4.90857e-07
4.89724e-07
4.89723e-07
4.89723e-07
4.89724e-07
4.90657e-07
4.90942e-07
4.90925e-07
4.89724e-07
4.89724e-07
4.89723e-07
4.89723e-07
4.89724e-07
4.89724e-07
4.90771e-07
4.91499e-07
4.91629e-07
4.90896e-07
4.89723e-07
4.89723e-07
4.89723e-07
4.89723e-07
4.89723e-07
4.89723e-07
4.90692e-07
4.91407e-07
4.91543e-07
4.90905e-07
4.89723e-07
4.89723e-07
4.89723e-07
4.89723e-07
4.89723e-07
4.89723e-07
4.90678e-07
4.91009e-07
4.90908e-07
4.89724e-07
4.89724e-07
4.89723e-07
4.89723e-07
4.89724e-07
4.89724e-07
4.90716e-07
4.9145e-07
4.91433e-07
4.90657e-07
4.89724e-07
4.89723e-07
4.89723e-07
4.89724e-07
4.9045e-07
4.90867e-07
4.91572e-07
4.91549e-07
4.90942e-07
4.9077e-07
4.90692e-07
4.90678e-07
4.90716e-07
4.90867e-07
4.91289e-07
4.91499e-07
4.91406e-07
4.91009e-07
4.9145e-07
4.91572e-07
4.85707e-07
4.85621e-07
4.85633e-07
4.85003e-07
4.84974e-07
4.84983e-07
4.84986e-07
4.85511e-07
4.85627e-07
4.85633e-07
4.84935e-07
4.83802e-07
4.83801e-07
4.83801e-07
4.83802e-07
4.84735e-07
4.8502e-07
4.85003e-07
4.83802e-07
4.83802e-07
4.83801e-07
4.83801e-07
4.83802e-07
4.83802e-07
4.84849e-07
4.85577e-07
4.85707e-07
4.84974e-07
4.83801e-07
4.83801e-07
4.83801e-07
4.83801e-07
4.83801e-07
4.83801e-07
4.8477e-07
4.85485e-07
4.85621e-07
4.84983e-07
4.83801e-07
4.83801e-07
4.83801e-07
4.83801e-07
4.83801e-07
4.83801e-07
4.84756e-07
4.85087e-07
4.84986e-07
4.83802e-07
4.83802e-07
4.83801e-07
4.83801e-07
4.83802e-07
4.83802e-07
4.84794e-07
4.85528e-07
4.85511e-07
4.84735e-07
4.83802e-07
4.83801e-07
4.83801e-07
4.83802e-07
4.84528e-07
4.84945e-07
4.8565e-07
4.85627e-07
4.8502e-07
4.84849e-07
4.8477e-07
4.84756e-07
4.84794e-07
4.84945e-07
4.85368e-07
4.85577e-07
4.85485e-07
4.85087e-07
4.85528e-07
4.8565e-07
4.79786e-07
4.79699e-07
4.79711e-07
4.79081e-07
4.79052e-07
4.79061e-07
4.79064e-07
4.79589e-07
4.79705e-07
4.79711e-07
4.79013e-07
4.7788e-07
4.77879e-07
4.77879e-07
4.7788e-07
4.78813e-07
4.79098e-07
4.79081e-07
4.7788e-07
4.7788e-07
4.77879e-07
4.77879e-07
4.7788e-07
4.7788e-07
4.78927e-07
4.79655e-07
4.79786e-07
4.79052e-07
4.77879e-07
4.77879e-07
4.77879e-07
4.77879e-07
4.77879e-07
4.77879e-07
4.78849e-07
4.79563e-07
4.79699e-07
4.79061e-07
4.77879e-07
4.77879e-07
4.77879e-07
4.77879e-07
4.77879e-07
4.77879e-07
4.78834e-07
4.79166e-07
4.79064e-07
4.7788e-07
4.7788e-07
4.77879e-07
4.77879e-07
4.7788e-07
4.7788e-07
4.78872e-07
4.79606e-07
4.79589e-07
4.78813e-07
4.7788e-07
4.77879e-07
4.77879e-07
4.7788e-07
4.78606e-07
4.79023e-07
4.79729e-07
4.79705e-07
4.79098e-07
4.78927e-07
4.78848e-07
4.78834e-07
4.78872e-07
4.79023e-07
4.79446e-07
4.79655e-07
4.79563e-07
4.79165e-07
4.79606e-07
4.79728e-07
4.73863e-07
4.73777e-07
4.73789e-07
4.73159e-07
4.7313e-07
4.73139e-07
4.73142e-07
4.73667e-07
4.73783e-07
4.73789e-07
4.73091e-07
4.71958e-07
4.71957e-07
4.71957e-07
4.71958e-07
4.72891e-07
4.73176e-07
4.73159e-07
4.71958e-07
4.71958e-07
4.71957e-07
4.71957e-07
4.71958e-07
4.71958e-07
4.73005e-07
4.73733e-07
4.73863e-07
4.7313e-07
4.71957e-07
4.71957e-07
4.71957e-07
4.71957e-07
4.71957e-07
4.71957e-07
4.72926e-07
4.73641e-07
4.73777e-07
4.73139e-07
4.71957e-07
4.71957e-07
4.71957e-07
4.71957e-07
4.71957e-07
4.71957e-07
4.72912e-07
4.73243e-07
4.73142e-07
4.71958e-07
4.71958e-07
4.71957e-07
4.71957e-07
4.71958e-07
4.71958e-07
4.7295e-07
4.73684e-07
4.73667e-07
4.72891e-07
4.71958e-07
4.71957e-07
4.71957e-07
4.71958e-07
4.72684e-07
4.73101e-07
4.73806e-07
4.73783e-07
4.73176e-07
4.73005e-07
4.72926e-07
4.72912e-07
4.7295e-07
4.73101e-07
4.73524e-07
4.73733e-07
4.73641e-07
4.73243e-07
4.73684e-07
4.73806e-07
4.67941e-07
4.67855e-07
4.67867e-07
4.67237e-07
4.67208e-07
4.67217e-07
4.6722e-07
4.67745e-07
4.67861e-07
4.67867e-07
4.67169e-07
4.66036e-07
4.66035e-07
4.66035e-07
4.66036e-07
4.66969e-07
4.67254e-07
4.67237e-07
4.66036e-07
4.66036e-07
4.66035e-07
4.66035e-07
4.66036e-07
4.66036e-07
4.67082e-07
4.67811e-07
4.67941e-07
4.67208e-07
4.66035e-07
4.66035e-07
4.66035e-07
4.66035e-07
4.66035e-07
4.66035e-07
4.67004e-07
4.67718e-07
4.67855e-07
4.67217e-07
4.66035e-07
4.66035e-07
4.66035e-07
4.66035e-07
4.66035e-07
4.66035e-07
4.6699e-07
4.67321e-07
4.6722e-07
4.66036e-07
4.66036e-07
4.66035e-07
4.66035e-07
4.66036e-07
4.66036e-07
4.67028e-07
4.67761e-07
4.67745e-07
4.66969e-07
4.66036e-07
4.66035e-07
4.66035e-07
4.66036e-07
4.66761e-07
4.67179e-07
4.67884e-07
4.67861e-07
4.67254e-07
4.67082e-07
4.67004e-07
4.6699e-07
4.67028e-07
4.67179e-07
4.67601e-07
4.67811e-07
4.67718e-07
4.67321e-07
4.67761e-07
4.67884e-07
4.62019e-07
4.61933e-07
4.61945e-07
4.61315e-07
4.61285e-07
4.61295e-07
4.61298e-07
4.61823e-07
4.61939e-07
4.61945e-07
4.61247e-07
4.60114e-07
4.60113e-07
4.60113e-07
4.60114e-07
4.61047e-07
4.61332e-07
4.61315e-07
4.60114e-07
4.60114e-07
4.60113e-07
4.60113e-07
4.60114e-07
4.60114e-07
4.6116e-07
4.61889e-07
4.62019e-07
4.61285e-07
4.60113e-07
4.60113e-07
4.60113e-07
4.60113e-07
4.60113e-07
4.60113e-07
4.61082e-07
4.61796e-07
4.61933e-07
4.61295e-07
4.60113e-07
4.60113e-07
4.60113e-07
4.60113e-07
4.60113e-07
4.60113e-07
4.61068e-07
4.61399e-07
4.61298e-07
4.60114e-07
4.60114e-07
4.60113e-07
4.60113e-07
4.60114e-07
4.60114e-07
4.61106e-07
4.61839e-07
4.61823e-07
4.61047e-07
4.60114e-07
4.60113e-07
4.60113e-07
4.60114e-07
4.60839e-07
4.61257e-07
4.61962e-07
4.61939e-07
4.61332e-07
4.6116e-07
4.61082e-07
4.61068e-07
4.61106e-07
4.61257e-07
4.61679e-07
4.61889e-07
4.61796e-07
4.61399e-07
4.61839e-07
4.61962e-07
4.56097e-07
4.56011e-07
4.56023e-07
4.55393e-07
4.55363e-07
4.55372e-07
4.55376e-07
4.55901e-07
4.56017e-07
4.56023e-07
4.55325e-07
4.54192e-07
4.5419e-07
4.5419e-07
4.54192e-07
4.55125e-07
4.5541e-07
4.55393e-07
4.54192e-07
4.54191e-07
4.54191e-07
4.54191e-07
4.54191e-07
4.54192e-07
4.55238e-07
4.55967e-07
4.56097e-07
4.55363e-07
4.5419e-07
4.54191e-07
4.54191e-07
4.54191e-07
4.54191e-07
4.5419e-07
4.5516e-07
4.55874e-07
4.56011e-07
4.55372e-07
4.5419e-07
4.54191e-07
4.54191e-07
4.54191e-07
4.54191e-07
4.5419e-07
4.55146e-07
4.55477e-07
4.55376e-07
4.54192e-07
4.54191e-07
4.54191e-07
4.54191e-07
4.54191e-07
4.54192e-07
4.55184e-07
4.55917e-07
4.55901e-07
4.55125e-07
4.54192e-07
4.5419e-07
4.5419e-07
4.54192e-07
4.54917e-07
4.55335e-07
4.5604e-07
4.56017e-07
4.5541e-07
4.55238e-07
4.5516e-07
4.55146e-07
4.55184e-07
4.55335e-07
4.55757e-07
4.55967e-07
4.55874e-07
4.55477e-07
4.55917e-07
4.5604e-07
4.50175e-07
4.50088e-07
4.50101e-07
4.4947e-07
4.49441e-07
4.4945e-07
4.49453e-07
4.49979e-07
4.50094e-07
4.50101e-07
4.49402e-07
4.4827e-07
4.48268e-07
4.48268e-07
4.4827e-07
4.49203e-07
4.49488e-07
4.4947e-07
4.4827e-07
4.48269e-07
4.48269e-07
4.48269e-07
4.48269e-07
4.4827e-07
4.49316e-07
4.50044e-07
4.50175e-07
4.49441e-07
4.48268e-07
4.48269e-07
4.48269e-07
4.48269e-07
4.48269e-07
4.48268e-07
4.49238e-07
4.49952e-07
4.50088e-07
4.4945e-07
4.48268e-07
4.48269e-07
4.48269e-07
4.48269e-07
4.48269e-07
4.48268e-07
4.49223e-07
4.49555e-07
4.49453e-07
4.4827e-07
4.48269e-07
4.48269e-07
4.48269e-07
4.48269e-07
4.4827e-07
4.49261e-07
4.49995e-07
4.49979e-07
4.49203e-07
4.4827e-07
4.48268e-07
4.48268e-07
4.4827e-07
4.48995e-07
4.49412e-07
4.50118e-07
4.50094e-07
4.49488e-07
4.49316e-07
4.49238e-07
4.49223e-07
4.49261e-07
4.49412e-07
4.49835e-07
4.50044e-07
4.49952e-07
4.49555e-07
4.49995e-07
4.50118e-07
4.44252e-07
4.44166e-07
4.44178e-07
4.43548e-07
4.43519e-07
4.43528e-07
4.43531e-07
4.44056e-07
4.44172e-07
4.44178e-07
4.4348e-07
4.42347e-07
4.42346e-07
4.42346e-07
4.42347e-07
4.4328e-07
4.43565e-07
4.43548e-07
4.42347e-07
4.42347e-07
4.42346e-07
4.42346e-07
4.42347e-07
4.42347e-07
4.43393e-07
4.44122e-07
4.44252e-07
4.43519e-07
4.42346e-07
4.42346e-07
4.42346e-07
4.42346e-07
4.42346e-07
4.42346e-07
4.43315e-07
4.4403e-07
4.44166e-07
4.43528e-07
4.42346e-07
4.42346e-07
4.42346e-07
4.42346e-07
4.42346e-07
4.42346e-07
4.43301e-07
4.43632e-07
4.43531e-07
4.42347e-07
4.42347e-07
4.42346e-07
4.42346e-07
4.42347e-07
4.42347e-07
4.43339e-07
4.44073e-07
4.44056e-07
4.4328e-07
4.42347e-07
4.42346e-07
4.42346e-07
4.42347e-07
4.43073e-07
4.4349e-07
4.44195e-07
4.44172e-07
4.43565e-07
4.43393e-07
4.43315e-07
4.43301e-07
4.43339e-07
4.4349e-07
4.43912e-07
4.44122e-07
4.4403e-07
4.43632e-07
4.44073e-07
4.44195e-07
4.3833e-07
4.38244e-07
4.38256e-07
4.37626e-07
4.37596e-07
4.37605e-07
4.37609e-07
4.38134e-07
4.3825e-07
4.38256e-07
4.37558e-07
4.36425e-07
4.36424e-07
4.36424e-07
4.36425e-07
4.37358e-07
4.37643e-07
4.37626e-07
4.36425e-07
4.36425e-07
4.36424e-07
4.36424e-07
4.36425e-07
4.36425e-07
4.37471e-07
4.382e-07
4.3833e-07
4.37596e-07
4.36424e-07
4.36424e-07
4.36424e-07
4.36424e-07
4.36424e-07
4.36424e-07
4.37393e-07
4.38107e-07
4.38244e-07
4.37605e-07
4.36424e-07
4.36424e-07
4.36424e-07
4.36424e-07
4.36424e-07
4.36424e-07
4.37379e-07
4.3771e-07
4.37609e-07
4.36425e-07
4.36425e-07
4.36424e-07
4.36424e-07
4.36425e-07
4.36425e-07
4.37417e-07
4.3815e-07
4.38134e-07
4.37358e-07
4.36425e-07
4.36424e-07
4.36424e-07
4.36425e-07
4.3715e-07
4.37568e-07
4.38273e-07
4.3825e-07
4.37643e-07
4.37471e-07
4.37393e-07
4.37379e-07
4.37417e-07
4.37568e-07
4.3799e-07
4.382e-07
4.38107e-07
4.3771e-07
4.3815e-07
4.38273e-07
4.32408e-07
4.32322e-07
4.32334e-07
4.31704e-07
4.31675e-07
4.31684e-07
4.31687e-07
4.32212e-07
4.32328e-07
4.32334e-07
4.31636e-07
4.30504e-07
4.30502e-07
4.30502e-07
4.30504e-07
4.31436e-07
4.31721e-07
4.31704e-07
4.30504e-07
4.30503e-07
4.30503e-07
4.30503e-07
4.30503e-07
4.30504e-07
4.3155e-07
4.32278e-07
4.32408e-07
4.31675e-07
4.30502e-07
4.30503e-07
4.30503e-07
4.30503e-07
4.30503e-07
4.30502e-07
4.31472e-07
4.32186e-07
4.32322e-07
4.31684e-07
4.30502e-07
4.30503e-07
4.30503e-07
4.30503e-07
4.30503e-07
4.30502e-07
4.31457e-07
4.31788e-07
4.31687e-07
4.30504e-07
4.30503e-07
4.30503e-07
4.30503e-07
4.30503e-07
4.30504e-07
4.31495e-07
4.32229e-07
4.32212e-07
4.31436e-07
4.30504e-07
4.30502e-07
4.30502e-07
4.30504e-07
4.31229e-07
4.31646e-07
4.32351e-07
4.32328e-07
4.31721e-07
4.3155e-07
4.31471e-07
4.31457e-07
4.31495e-07
4.31646e-07
4.32069e-07
4.32278e-07
4.32186e-07
4.31788e-07
4.32229e-07
4.32351e-07
4.26487e-07
4.26401e-07
4.26413e-07
4.25783e-07
4.25753e-07
4.25763e-07
4.25766e-07
4.26291e-07
4.26407e-07
4.26413e-07
4.25715e-07
4.24582e-07
4.24581e-07
4.24581e-07
4.24582e-07
4.25515e-07
4.258e-07
4.25783e-07
4.24582e-07
4.24582e-07
4.24581e-07
4.24581e-07
4.24582e-07
4.24582e-07
4.25628e-07
4.26357e-07
4.26487e-07
4.25753e-07
4.24581e-07
4.24581e-07
4.24581e-07
4.24581e-07
4.24581e-07
4.24581e-07
4.2555e-07
4.26264e-07
4.26401e-07
4.25763e-07
4.24581e-07
4.24581e-07
4.24581e-07
4.24581e-07
4.24581e-07
4.24581e-07
4.25536e-07
4.25867e-07
4.25766e-07
4.24582e-07
4.24582e-07
4.24581e-07
4.24581e-07
4.24582e-07
4.24582e-07
4.25574e-07
4.26307e-07
4.26291e-07
4.25515e-07
4.24582e-07
4.24581e-07
4.24581e-07
4.24582e-07
4.25308e-07
4.25725e-07
4.2643e-07
4.26407e-07
4.258e-07
4.25628e-07
4.2555e-07
4.25536e-07
4.25574e-07
4.25725e-07
4.26147e-07
4.26357e-07
4.26264e-07
4.25867e-07
4.26307e-07
4.2643e-07
4.20566e-07
4.20479e-07
4.20492e-07
4.19861e-07
4.19832e-07
4.19841e-07
4.19845e-07
4.2037e-07
4.20485e-07
4.20492e-07
4.19794e-07
4.18661e-07
4.1866e-07
4.1866e-07
4.18661e-07
4.19594e-07
4.19879e-07
4.19861e-07
4.18661e-07
4.18661e-07
4.1866e-07
4.1866e-07
4.18661e-07
4.18661e-07
4.19707e-07
4.20435e-07
4.20566e-07
4.19832e-07
4.1866e-07
4.1866e-07
4.1866e-07
4.1866e-07
4.1866e-07
4.1866e-07
4.19629e-07
4.20343e-07
4.20479e-07
4.19841e-07
4.1866e-07
4.1866e-07
4.1866e-07
4.1866e-07
4.1866e-07
4.1866e-07
4.19615e-07
4.19946e-07
4.19845e-07
4.18661e-07
4.18661e-07
4.1866e-07
4.1866e-07
4.18661e-07
4.18661e-07
4.19653e-07
4.20386e-07
4.2037e-07
4.19594e-07
4.18661e-07
4.1866e-07
4.1866e-07
4.18661e-07
4.19386e-07
4.19804e-07
4.20509e-07
4.20486e-07
4.19879e-07
4.19707e-07
4.19629e-07
4.19615e-07
4.19653e-07
4.19804e-07
4.20226e-07
4.20435e-07
4.20343e-07
4.19946e-07
4.20386e-07
4.20509e-07
4.14645e-07
4.14558e-07
4.14571e-07
4.1394e-07
4.13911e-07
4.1392e-07
4.13923e-07
4.14449e-07
4.14564e-07
4.14571e-07
4.13872e-07
4.1274e-07
4.12738e-07
4.12738e-07
4.1274e-07
4.13673e-07
4.13958e-07
4.1394e-07
4.1274e-07
4.12739e-07
4.12739e-07
4.12739e-07
4.12739e-07
4.1274e-07
4.13786e-07
4.14514e-07
4.14645e-07
4.13911e-07
4.12738e-07
4.12739e-07
4.12739e-07
4.12739e-07
4.12739e-07
4.12738e-07
4.13708e-07
4.14422e-07
4.14558e-07
4.1392e-07
4.12738e-07
4.12739e-07
4.12739e-07
4.12739e-07
4.12739e-07
4.12738e-07
4.13694e-07
4.14025e-07
4.13923e-07
4.1274e-07
4.12739e-07
4.12739e-07
4.12739e-07
4.12739e-07
4.1274e-07
4.13731e-07
4.14465e-07
4.14449e-07
4.13673e-07
4.1274e-07
4.12738e-07
4.12738e-07
4.1274e-07
4.13465e-07
4.13882e-07
4.14588e-07
4.14564e-07
4.13958e-07
4.13786e-07
4.13708e-07
4.13694e-07
4.13731e-07
4.13882e-07
4.14305e-07
4.14514e-07
4.14422e-07
4.14025e-07
4.14465e-07
4.14588e-07
4.08724e-07
4.08637e-07
4.0865e-07
4.08019e-07
4.0799e-07
4.07999e-07
4.08002e-07
4.08528e-07
4.08643e-07
4.08649e-07
4.07951e-07
4.06819e-07
4.06817e-07
4.06817e-07
4.06819e-07
4.07751e-07
4.08037e-07
4.08019e-07
4.06819e-07
4.06818e-07
4.06818e-07
4.06818e-07
4.06818e-07
4.06819e-07
4.07865e-07
4.08593e-07
4.08724e-07
4.0799e-07
4.06817e-07
4.06818e-07
4.06818e-07
4.06818e-07
4.06818e-07
4.06817e-07
4.07787e-07
4.08501e-07
4.08637e-07
4.07999e-07
4.06817e-07
4.06818e-07
4.06818e-07
4.06818e-07
4.06818e-07
4.06817e-07
4.07772e-07
4.08104e-07
4.08002e-07
4.06819e-07
4.06818e-07
4.06818e-07
4.06818e-07
4.06818e-07
4.06819e-07
4.0781e-07
4.08544e-07
4.08528e-07
4.07752e-07
4.06819e-07
4.06817e-07
4.06817e-07
4.06819e-07
4.07544e-07
4.07961e-07
4.08667e-07
4.08643e-07
4.08037e-07
4.07865e-07
4.07787e-07
4.07772e-07
4.0781e-07
4.07961e-07
4.08384e-07
4.08593e-07
4.08501e-07
4.08104e-07
4.08544e-07
4.08667e-07
4.02802e-07
4.02716e-07
4.02728e-07
4.02098e-07
4.02069e-07
4.02078e-07
4.02081e-07
4.02606e-07
4.02722e-07
4.02728e-07
4.0203e-07
4.00898e-07
4.00896e-07
4.00896e-07
4.00898e-07
4.0183e-07
4.02115e-07
4.02098e-07
4.00898e-07
4.00897e-07
4.00897e-07
4.00897e-07
4.00897e-07
4.00898e-07
4.01944e-07
4.02672e-07
4.02802e-07
4.02069e-07
4.00896e-07
4.00897e-07
4.00897e-07
4.00897e-07
4.00897e-07
4.00896e-07
4.01866e-07
4.0258e-07
4.02716e-07
4.02078e-07
4.00896e-07
4.00897e-07
4.00897e-07
4.00897e-07
4.00897e-07
4.00896e-07
4.01851e-07
4.02182e-07
4.02081e-07
4.00898e-07
4.00897e-07
4.00897e-07
4.00897e-07
4.00897e-07
4.00898e-07
4.01889e-07
4.02623e-07
4.02606e-07
4.0183e-07
4.00898e-07
4.00896e-07
4.00896e-07
4.00898e-07
4.01623e-07
4.0204e-07
4.02745e-07
4.02722e-07
4.02115e-07
4.01944e-07
4.01866e-07
4.01851e-07
4.01889e-07
4.0204e-07
4.02463e-07
4.02672e-07
4.0258e-07
4.02182e-07
4.02623e-07
4.02745e-07
3.96881e-07
3.96795e-07
3.96807e-07
3.96177e-07
3.96147e-07
3.96157e-07
3.9616e-07
3.96685e-07
3.96801e-07
3.96807e-07
3.96109e-07
3.94976e-07
3.94975e-07
3.94975e-07
3.94976e-07
3.95909e-07
3.96194e-07
3.96177e-07
3.94976e-07
3.94976e-07
3.94975e-07
3.94975e-07
3.94976e-07
3.94976e-07
3.96022e-07
3.96751e-07
3.96881e-07
3.96147e-07
3.94975e-07
3.94975e-07
3.94975e-07
3.94975e-07
3.94975e-07
3.94975e-07
3.95944e-07
3.96658e-07
3.96795e-07
3.96157e-07
3.94975e-07
3.94975e-07
3.94975e-07
3.94975e-07
3.94975e-07
3.94975e-07
3.9593e-07
3.96261e-07
3.9616e-07
3.94976e-07
3.94976e-07
3.94975e-07
3.94975e-07
3.94976e-07
3.94976e-07
3.95968e-07
3.96701e-07
3.96685e-07
3.95909e-07
3.94976e-07
3.94975e-07
3.94975e-07
3.94976e-07
3.95701e-07
3.96119e-07
3.96824e-07
3.96801e-07
3.96194e-07
3.96022e-07
3.95944e-07
3.9593e-07
3.95968e-07
3.96119e-07
3.96541e-07
3.96751e-07
3.96658e-07
3.96261e-07
3.96701e-07
3.96824e-07
3.9096e-07
3.90873e-07
3.90886e-07
3.90255e-07
3.90226e-07
3.90235e-07
3.90238e-07
3.90764e-07
3.90879e-07
3.90886e-07
3.90187e-07
3.89055e-07
3.89053e-07
3.89053e-07
3.89055e-07
3.89988e-07
3.90273e-07
3.90255e-07
3.89055e-07
3.89054e-07
3.89054e-07
3.89054e-07
3.89054e-07
3.89055e-07
3.90101e-07
3.90829e-07
3.9096e-07
3.90226e-07
3.89053e-07
3.89054e-07
3.89054e-07
3.89054e-07
3.89054e-07
3.89053e-07
3.90023e-07
3.90737e-07
3.90873e-07
3.90235e-07
3.89053e-07
3.89054e-07
3.89054e-07
3.89054e-07
3.89054e-07
3.89053e-07
3.90008e-07
3.9034e-07
3.90238e-07
3.89055e-07
3.89054e-07
3.89054e-07
3.89054e-07
3.89054e-07
3.89055e-07
3.90046e-07
3.9078e-07
3.90764e-07
3.89987e-07
3.89055e-07
3.89053e-07
3.89053e-07
3.89055e-07
3.8978e-07
3.90197e-07
3.90903e-07
3.90879e-07
3.90273e-07
3.90101e-07
3.90023e-07
3.90008e-07
3.90046e-07
3.90197e-07
3.9062e-07
3.90829e-07
3.90737e-07
3.9034e-07
3.9078e-07
3.90903e-07
3.85038e-07
3.84952e-07
3.84964e-07
3.84334e-07
3.84305e-07
3.84314e-07
3.84317e-07
3.84842e-07
3.84958e-07
3.84964e-07
3.84266e-07
3.83133e-07
3.83132e-07
3.83132e-07
3.83133e-07
3.84066e-07
3.84351e-07
3.84334e-07
3.83133e-07
3.83133e-07
3.83132e-07
3.83132e-07
3.83133e-07
3.83133e-07
3.84179e-07
3.84908e-07
3.85038e-07
3.84305e-07
3.83132e-07
3.83132e-07
3.83132e-07
3.83132e-07
3.83132e-07
3.83132e-07
3.84101e-07
3.84815e-07
3.84952e-07
3.84314e-07
3.83132e-07
3.83132e-07
3.83132e-07
3.83132e-07
3.83132e-07
3.83132e-07
3.84087e-07
3.84418e-07
3.84317e-07
3.83133e-07
3.83133e-07
3.83132e-07
3.83132e-07
3.83133e-07
3.83133e-07
3.84125e-07
3.84858e-07
3.84842e-07
3.84066e-07
3.83133e-07
3.83132e-07
3.83132e-07
3.83133e-07
3.83859e-07
3.84276e-07
3.84981e-07
3.84958e-07
3.84351e-07
3.84179e-07
3.84101e-07
3.84087e-07
3.84125e-07
3.84276e-07
3.84698e-07
3.84908e-07
3.84815e-07
3.84418e-07
3.84858e-07
3.84981e-07
3.79117e-07
3.7903e-07
3.79043e-07
3.78412e-07
3.78383e-07
3.78392e-07
3.78395e-07
3.78921e-07
3.79036e-07
3.79043e-07
3.78344e-07
3.77212e-07
3.7721e-07
3.7721e-07
3.77212e-07
3.78145e-07
3.7843e-07
3.78412e-07
3.77212e-07
3.77212e-07
3.77211e-07
3.77211e-07
3.77212e-07
3.77212e-07
3.78258e-07
3.78986e-07
3.79117e-07
3.78383e-07
3.7721e-07
3.77211e-07
3.77211e-07
3.77211e-07
3.77211e-07
3.7721e-07
3.7818e-07
3.78894e-07
3.7903e-07
3.78392e-07
3.7721e-07
3.77211e-07
3.77211e-07
3.77211e-07
3.77211e-07
3.7721e-07
3.78166e-07
3.78497e-07
3.78395e-07
3.77212e-07
3.77212e-07
3.77211e-07
3.77211e-07
3.77212e-07
3.77212e-07
3.78203e-07
3.78937e-07
3.78921e-07
3.78145e-07
3.77212e-07
3.7721e-07
3.7721e-07
3.77212e-07
3.77937e-07
3.78355e-07
3.7906e-07
3.79036e-07
3.7843e-07