/*--------------------------------*- C++ -*----------------------------------*\
| =========                 |                                                 |
| \\      /  F ield         | OpenFOAM: The Open Source CFD Toolbox           |
|  \\    /   O peration     | Version:  v2012                                 |
|   \\  /    A nd           | Website:  www.openfoam.com                      |
|    \\/     M anipulation  |                                                 |
\*---------------------------------------------------------------------------*/
FoamFile
{
    version     2.0;
    format      ascii;
    class       volScalarField;
    location    "0.02";
    object      p;
}
// * * * * * * * * * * * * * * * * * * * * * * * * * * * * * * * * * * * * * //

dimensions      [0 2 -2 0 0 0 0];


internalField   nonuniform List<scalar> 
247104
(
2.27917e-06
2.27969e-06
2.27924e-06
2.28009e-06
2.27974e-06
2.28005e-06
2.27926e-06
2.27951e-06
2.27962e-06
2.27993e-06
2.28025e-06
2.28037e-06
2.28026e-06
2.28039e-06
2.28024e-06
2.27991e-06
2.27922e-06
2.28024e-06
2.28006e-06
2.27971e-06
2.27957e-06
2.27976e-06
2.28013e-06
2.28025e-06
2.27901e-06
2.27997e-06
2.28033e-06
2.2797e-06
2.27911e-06
2.2789e-06
2.27917e-06
2.2798e-06
2.2804e-06
2.27979e-06
2.27895e-06
2.27961e-06
2.28021e-06
2.27954e-06
2.2789e-06
2.27867e-06
2.27896e-06
2.27965e-06
2.28025e-06
2.27936e-06
2.28e-06
2.28037e-06
2.27975e-06
2.27916e-06
2.27896e-06
2.27922e-06
2.27984e-06
2.2804e-06
2.27975e-06
2.27931e-06
2.28025e-06
2.28013e-06
2.27979e-06
2.27964e-06
2.27983e-06
2.28016e-06
2.28021e-06
2.27905e-06
2.27952e-06
2.27991e-06
2.28024e-06
2.28039e-06
2.28024e-06
2.2804e-06
2.28021e-06
2.27985e-06
2.27901e-06
2.27978e-06
2.27935e-06
2.27974e-06
2.27905e-06
2.23537e-06
2.23582e-06
2.24493e-06
2.24148e-06
2.23821e-06
2.23976e-06
2.23881e-06
2.24865e-06
2.24539e-06
2.24497e-06
2.24089e-06
2.23388e-06
2.23344e-06
2.23345e-06
2.23389e-06
2.24037e-06
2.2425e-06
2.24157e-06
2.23387e-06
2.23384e-06
2.23383e-06
2.23383e-06
2.23385e-06
2.23389e-06
2.24082e-06
2.25177e-06
2.2355e-06
2.23822e-06
2.23343e-06
2.23382e-06
2.23408e-06
2.23409e-06
2.23383e-06
2.23344e-06
2.23861e-06
2.24235e-06
2.23575e-06
2.23972e-06
2.23343e-06
2.23382e-06
2.23408e-06
2.23408e-06
2.23383e-06
2.23344e-06
2.23933e-06
2.23816e-06
2.2387e-06
2.23387e-06
2.23384e-06
2.23383e-06
2.23383e-06
2.23384e-06
2.23388e-06
2.23901e-06
2.2392e-06
2.24855e-06
2.24033e-06
2.23388e-06
2.23344e-06
2.23344e-06
2.23387e-06
2.23949e-06
2.24165e-06
2.25111e-06
2.24531e-06
2.24244e-06
2.24084e-06
2.23862e-06
2.23934e-06
2.23904e-06
2.24162e-06
2.25346e-06
2.25179e-06
2.24244e-06
2.23827e-06
2.23921e-06
2.25116e-06
2.2222e-06
2.22293e-06
2.22065e-06
2.21921e-06
2.21892e-06
2.21881e-06
2.21919e-06
2.22242e-06
2.2219e-06
2.22057e-06
2.21856e-06
2.21626e-06
2.21619e-06
2.21621e-06
2.21628e-06
2.22121e-06
2.21979e-06
2.21921e-06
2.21619e-06
2.21581e-06
2.21573e-06
2.21574e-06
2.21584e-06
2.21626e-06
2.22212e-06
2.22308e-06
2.22199e-06
2.21894e-06
2.21621e-06
2.21573e-06
2.21557e-06
2.21557e-06
2.21575e-06
2.21622e-06
2.22092e-06
2.22233e-06
2.22286e-06
2.21882e-06
2.21624e-06
2.21574e-06
2.21557e-06
2.21558e-06
2.21575e-06
2.21621e-06
2.22033e-06
2.21894e-06
2.21919e-06
2.21626e-06
2.21582e-06
2.21574e-06
2.21575e-06
2.21585e-06
2.21624e-06
2.22157e-06
2.22291e-06
2.2224e-06
2.2212e-06
2.21622e-06
2.21622e-06
2.21624e-06
2.21634e-06
2.22183e-06
2.22102e-06
2.22228e-06
2.22196e-06
2.21976e-06
2.22208e-06
2.22089e-06
2.22031e-06
2.22156e-06
2.22104e-06
2.22495e-06
2.22307e-06
2.22228e-06
2.21889e-06
2.22285e-06
2.22229e-06
2.19669e-06
2.19678e-06
2.19554e-06
2.19433e-06
2.19404e-06
2.194e-06
2.19445e-06
2.19807e-06
2.19732e-06
2.19552e-06
2.19368e-06
2.19171e-06
2.19121e-06
2.19122e-06
2.19176e-06
2.19884e-06
2.19565e-06
2.19431e-06
2.19178e-06
2.19154e-06
2.19135e-06
2.19135e-06
2.19153e-06
2.1917e-06
2.19962e-06
2.19846e-06
2.19669e-06
2.19402e-06
2.19122e-06
2.19136e-06
2.19134e-06
2.19134e-06
2.19135e-06
2.1912e-06
2.19819e-06
2.19717e-06
2.19676e-06
2.19399e-06
2.19122e-06
2.19136e-06
2.19134e-06
2.19134e-06
2.19135e-06
2.1912e-06
2.19735e-06
2.19422e-06
2.19443e-06
2.19176e-06
2.19153e-06
2.19135e-06
2.19135e-06
2.19153e-06
2.1917e-06
2.19906e-06
2.19776e-06
2.19815e-06
2.1988e-06
2.1917e-06
2.1912e-06
2.19121e-06
2.19178e-06
2.20074e-06
2.19778e-06
2.19794e-06
2.19733e-06
2.19563e-06
2.19958e-06
2.19816e-06
2.19733e-06
2.19904e-06
2.19783e-06
2.20066e-06
2.19839e-06
2.1971e-06
2.19416e-06
2.1977e-06
2.1979e-06
2.17334e-06
2.17361e-06
2.17194e-06
2.17067e-06
2.17024e-06
2.17041e-06
2.17074e-06
2.17469e-06
2.17376e-06
2.17188e-06
2.16972e-06
2.16668e-06
2.16657e-06
2.16657e-06
2.16669e-06
2.17586e-06
2.17209e-06
2.1706e-06
2.16667e-06
2.16667e-06
2.16665e-06
2.16665e-06
2.16667e-06
2.16666e-06
2.17717e-06
2.17494e-06
2.17327e-06
2.17022e-06
2.16657e-06
2.16665e-06
2.16667e-06
2.16667e-06
2.16664e-06
2.16656e-06
2.17597e-06
2.17368e-06
2.17352e-06
2.1704e-06
2.16657e-06
2.16665e-06
2.16667e-06
2.16666e-06
2.16664e-06
2.16656e-06
2.1751e-06
2.17072e-06
2.17072e-06
2.16669e-06
2.16667e-06
2.16665e-06
2.16664e-06
2.16667e-06
2.16666e-06
2.17669e-06
2.17428e-06
2.17461e-06
2.17583e-06
2.16666e-06
2.16656e-06
2.16656e-06
2.16667e-06
2.17866e-06
2.17488e-06
2.17437e-06
2.17358e-06
2.17203e-06
2.17715e-06
2.17595e-06
2.1751e-06
2.17671e-06
2.17495e-06
2.17692e-06
2.17492e-06
2.17365e-06
2.17077e-06
2.17427e-06
2.17436e-06
2.14997e-06
2.15018e-06
2.14883e-06
2.14737e-06
2.14666e-06
2.14685e-06
2.14732e-06
2.15157e-06
2.1505e-06
2.14883e-06
2.14642e-06
2.14263e-06
2.14261e-06
2.14261e-06
2.14265e-06
2.15276e-06
2.14903e-06
2.14736e-06
2.14266e-06
2.14264e-06
2.14264e-06
2.14264e-06
2.14265e-06
2.14265e-06
2.1542e-06
2.15183e-06
2.14991e-06
2.14663e-06
2.14261e-06
2.14264e-06
2.14264e-06
2.14265e-06
2.14264e-06
2.14261e-06
2.15293e-06
2.15025e-06
2.15015e-06
2.14685e-06
2.1426e-06
2.14263e-06
2.14264e-06
2.14264e-06
2.14264e-06
2.14261e-06
2.15207e-06
2.14722e-06
2.14731e-06
2.14264e-06
2.14264e-06
2.14264e-06
2.14264e-06
2.14265e-06
2.14264e-06
2.15371e-06
2.15094e-06
2.15154e-06
2.1528e-06
2.14263e-06
2.14261e-06
2.14261e-06
2.14266e-06
2.15585e-06
2.15188e-06
2.15132e-06
2.15053e-06
2.14901e-06
2.15419e-06
2.15301e-06
2.15212e-06
2.15376e-06
2.15204e-06
2.15369e-06
2.15182e-06
2.15024e-06
2.14728e-06
2.15096e-06
2.15132e-06
2.12639e-06
2.12658e-06
2.12528e-06
2.12382e-06
2.12303e-06
2.12319e-06
2.12376e-06
2.12813e-06
2.12701e-06
2.12526e-06
2.1229e-06
2.11887e-06
2.11887e-06
2.11887e-06
2.11889e-06
2.12931e-06
2.12563e-06
2.12383e-06
2.11887e-06
2.11887e-06
2.11888e-06
2.11888e-06
2.11889e-06
2.1189e-06
2.13081e-06
2.12835e-06
2.12635e-06
2.12302e-06
2.11887e-06
2.11888e-06
2.11888e-06
2.11889e-06
2.11889e-06
2.11889e-06
2.12955e-06
2.12672e-06
2.12657e-06
2.12317e-06
2.11887e-06
2.11888e-06
2.11888e-06
2.11889e-06
2.11889e-06
2.11889e-06
2.12868e-06
2.12365e-06
2.12376e-06
2.11887e-06
2.11888e-06
2.11888e-06
2.11888e-06
2.11889e-06
2.1189e-06
2.13029e-06
2.1274e-06
2.1281e-06
2.12933e-06
2.11887e-06
2.11887e-06
2.11887e-06
2.11889e-06
2.13243e-06
2.12841e-06
2.12786e-06
2.12694e-06
2.1255e-06
2.13074e-06
2.12956e-06
2.12862e-06
2.13032e-06
2.12859e-06
2.13025e-06
2.12834e-06
2.1267e-06
2.12367e-06
2.12741e-06
2.12786e-06
2.10277e-06
2.10296e-06
2.10169e-06
2.10021e-06
2.09941e-06
2.09955e-06
2.10013e-06
2.10455e-06
2.10343e-06
2.10166e-06
2.09928e-06
2.09521e-06
2.0952e-06
2.0952e-06
2.09522e-06
2.10571e-06
2.10197e-06
2.10022e-06
2.09521e-06
2.09521e-06
2.0952e-06
2.0952e-06
2.09521e-06
2.0952e-06
2.10722e-06
2.10476e-06
2.10275e-06
2.09941e-06
2.0952e-06
2.09521e-06
2.09521e-06
2.0952e-06
2.0952e-06
2.0952e-06
2.10594e-06
2.10311e-06
2.10296e-06
2.09957e-06
2.09521e-06
2.09521e-06
2.09521e-06
2.0952e-06
2.0952e-06
2.0952e-06
2.10507e-06
2.10004e-06
2.10013e-06
2.0952e-06
2.09521e-06
2.0952e-06
2.0952e-06
2.0952e-06
2.0952e-06
2.10668e-06
2.1038e-06
2.10452e-06
2.10575e-06
2.09522e-06
2.0952e-06
2.0952e-06
2.0952e-06
2.1089e-06
2.10486e-06
2.10427e-06
2.10342e-06
2.1019e-06
2.10721e-06
2.10596e-06
2.1051e-06
2.10666e-06
2.10497e-06
2.10664e-06
2.10476e-06
2.10309e-06
2.10006e-06
2.1038e-06
2.10426e-06
2.07913e-06
2.07932e-06
2.07808e-06
2.07659e-06
2.07574e-06
2.07591e-06
2.07648e-06
2.08091e-06
2.07978e-06
2.07804e-06
2.07565e-06
2.07154e-06
2.07154e-06
2.07154e-06
2.07154e-06
2.08207e-06
2.07835e-06
2.0766e-06
2.07154e-06
2.07154e-06
2.07154e-06
2.07154e-06
2.07154e-06
2.07154e-06
2.08354e-06
2.08108e-06
2.0791e-06
2.07576e-06
2.07154e-06
2.07154e-06
2.07154e-06
2.07154e-06
2.07154e-06
2.07153e-06
2.08228e-06
2.07944e-06
2.07932e-06
2.07593e-06
2.07154e-06
2.07154e-06
2.07154e-06
2.07154e-06
2.07153e-06
2.07153e-06
2.08143e-06
2.07638e-06
2.0765e-06
2.07153e-06
2.07153e-06
2.07154e-06
2.07154e-06
2.07154e-06
2.07153e-06
2.08303e-06
2.08014e-06
2.08087e-06
2.08208e-06
2.07153e-06
2.07153e-06
2.07153e-06
2.07154e-06
2.08525e-06
2.08121e-06
2.08062e-06
2.07978e-06
2.07826e-06
2.08359e-06
2.08231e-06
2.08144e-06
2.08304e-06
2.08135e-06
2.083e-06
2.08111e-06
2.07944e-06
2.07642e-06
2.08016e-06
2.08062e-06
2.05548e-06
2.05566e-06
2.05443e-06
2.05294e-06
2.05208e-06
2.05225e-06
2.05282e-06
2.05725e-06
2.05613e-06
2.05439e-06
2.052e-06
2.04788e-06
2.04788e-06
2.04788e-06
2.04787e-06
2.05844e-06
2.0547e-06
2.05295e-06
2.04788e-06
2.04788e-06
2.04788e-06
2.04788e-06
2.04788e-06
2.04788e-06
2.05989e-06
2.05744e-06
2.05545e-06
2.05211e-06
2.04788e-06
2.04788e-06
2.04788e-06
2.04788e-06
2.04788e-06
2.04787e-06
2.05864e-06
2.05579e-06
2.05567e-06
2.05228e-06
2.04788e-06
2.04787e-06
2.04788e-06
2.04788e-06
2.04787e-06
2.04787e-06
2.05778e-06
2.05273e-06
2.05285e-06
2.04788e-06
2.04788e-06
2.04787e-06
2.04787e-06
2.04787e-06
2.04787e-06
2.05937e-06
2.05649e-06
2.05722e-06
2.05842e-06
2.04788e-06
2.04788e-06
2.04787e-06
2.04787e-06
2.06161e-06
2.05756e-06
2.05697e-06
2.05613e-06
2.05462e-06
2.05994e-06
2.05867e-06
2.05783e-06
2.0594e-06
2.0577e-06
2.05934e-06
2.05746e-06
2.05579e-06
2.05276e-06
2.0565e-06
2.05697e-06
2.03182e-06
2.032e-06
2.03077e-06
2.02928e-06
2.02842e-06
2.0286e-06
2.02916e-06
2.03356e-06
2.0325e-06
2.03072e-06
2.02832e-06
2.02421e-06
2.02422e-06
2.02422e-06
2.0242e-06
2.03479e-06
2.03103e-06
2.02929e-06
2.02421e-06
2.02421e-06
2.02422e-06
2.02422e-06
2.02421e-06
2.02422e-06
2.03623e-06
2.03378e-06
2.03179e-06
2.02845e-06
2.02422e-06
2.02422e-06
2.02422e-06
2.02422e-06
2.02422e-06
2.02422e-06
2.03498e-06
2.03213e-06
2.03201e-06
2.02862e-06
2.02422e-06
2.02422e-06
2.02422e-06
2.02422e-06
2.02422e-06
2.02422e-06
2.03412e-06
2.02907e-06
2.02919e-06
2.02422e-06
2.02422e-06
2.02422e-06
2.02422e-06
2.02422e-06
2.02422e-06
2.03571e-06
2.03283e-06
2.03357e-06
2.03476e-06
2.02422e-06
2.02422e-06
2.02422e-06
2.02422e-06
2.03795e-06
2.0339e-06
2.03331e-06
2.03248e-06
2.03097e-06
2.03628e-06
2.03501e-06
2.03417e-06
2.03573e-06
2.03404e-06
2.03569e-06
2.0338e-06
2.03213e-06
2.0291e-06
2.03284e-06
2.03331e-06
2.00817e-06
2.00835e-06
2.0071e-06
2.00563e-06
2.00478e-06
2.00496e-06
2.00551e-06
2.0099e-06
2.00886e-06
2.00703e-06
2.00472e-06
2.00056e-06
2.00056e-06
2.00056e-06
2.00056e-06
2.01111e-06
2.00737e-06
2.00563e-06
2.00057e-06
2.00056e-06
2.00056e-06
2.00056e-06
2.00056e-06
2.00056e-06
2.01257e-06
2.01012e-06
2.00814e-06
2.00479e-06
2.00057e-06
2.00056e-06
2.00056e-06
2.00056e-06
2.00056e-06
2.00056e-06
2.01132e-06
2.00847e-06
2.00835e-06
2.00496e-06
2.00056e-06
2.00056e-06
2.00056e-06
2.00056e-06
2.00056e-06
2.00056e-06
2.01046e-06
2.00541e-06
2.00553e-06
2.00056e-06
2.00056e-06
2.00056e-06
2.00056e-06
2.00056e-06
2.00056e-06
2.01205e-06
2.00917e-06
2.00992e-06
2.01113e-06
2.00056e-06
2.00056e-06
2.00056e-06
2.00056e-06
2.0143e-06
2.01025e-06
2.00965e-06
2.00882e-06
2.00732e-06
2.01263e-06
2.01136e-06
2.01051e-06
2.01207e-06
2.01039e-06
2.01203e-06
2.01015e-06
2.00847e-06
2.00545e-06
2.00919e-06
2.00965e-06
1.98451e-06
1.98469e-06
1.98351e-06
1.98198e-06
1.98113e-06
1.9813e-06
1.98184e-06
1.98625e-06
1.9852e-06
1.98345e-06
1.98103e-06
1.97691e-06
1.97691e-06
1.97691e-06
1.9769e-06
1.98743e-06
1.98371e-06
1.98197e-06
1.97691e-06
1.97691e-06
1.97691e-06
1.97691e-06
1.97691e-06
1.9769e-06
1.98892e-06
1.98646e-06
1.98448e-06
1.98113e-06
1.97691e-06
1.97691e-06
1.97691e-06
1.97691e-06
1.97691e-06
1.97691e-06
1.98767e-06
1.98482e-06
1.9847e-06
1.98131e-06
1.97691e-06
1.97691e-06
1.97691e-06
1.97691e-06
1.97691e-06
1.97691e-06
1.98681e-06
1.98176e-06
1.98188e-06
1.97691e-06
1.97691e-06
1.97691e-06
1.97691e-06
1.97691e-06
1.97691e-06
1.9884e-06
1.98552e-06
1.98626e-06
1.98748e-06
1.97691e-06
1.97691e-06
1.97691e-06
1.97691e-06
1.99064e-06
1.98659e-06
1.986e-06
1.98517e-06
1.98366e-06
1.98897e-06
1.98771e-06
1.98687e-06
1.98842e-06
1.98673e-06
1.98838e-06
1.98649e-06
1.98482e-06
1.98179e-06
1.98553e-06
1.986e-06
1.96085e-06
1.96103e-06
1.95985e-06
1.95832e-06
1.95747e-06
1.95762e-06
1.9582e-06
1.96261e-06
1.96154e-06
1.95978e-06
1.95737e-06
1.95325e-06
1.95325e-06
1.95325e-06
1.95325e-06
1.96378e-06
1.96006e-06
1.95831e-06
1.95325e-06
1.95325e-06
1.95325e-06
1.95325e-06
1.95325e-06
1.95325e-06
1.96526e-06
1.96281e-06
1.96082e-06
1.95748e-06
1.95325e-06
1.95325e-06
1.95325e-06
1.95325e-06
1.95325e-06
1.95325e-06
1.96401e-06
1.96117e-06
1.96104e-06
1.95765e-06
1.95325e-06
1.95325e-06
1.95325e-06
1.95325e-06
1.95325e-06
1.95325e-06
1.96315e-06
1.9581e-06
1.95822e-06
1.95325e-06
1.95325e-06
1.95325e-06
1.95325e-06
1.95325e-06
1.95325e-06
1.96475e-06
1.96186e-06
1.96261e-06
1.96382e-06
1.95325e-06
1.95325e-06
1.95325e-06
1.95325e-06
1.96699e-06
1.96294e-06
1.96235e-06
1.96151e-06
1.96001e-06
1.96532e-06
1.96405e-06
1.96321e-06
1.96477e-06
1.96308e-06
1.96472e-06
1.96284e-06
1.96117e-06
1.95814e-06
1.96188e-06
1.96235e-06
1.93719e-06
1.93737e-06
1.93613e-06
1.93465e-06
1.93381e-06
1.93397e-06
1.93455e-06
1.93893e-06
1.93788e-06
1.93605e-06
1.93375e-06
1.92959e-06
1.92959e-06
1.9296e-06
1.9296e-06
1.94013e-06
1.9364e-06
1.93466e-06
1.92959e-06
1.92959e-06
1.9296e-06
1.9296e-06
1.9296e-06
1.9296e-06
1.94161e-06
1.93916e-06
1.93717e-06
1.93382e-06
1.9296e-06
1.9296e-06
1.9296e-06
1.9296e-06
1.9296e-06
1.9296e-06
1.94036e-06
1.93751e-06
1.93738e-06
1.93399e-06
1.9296e-06
1.9296e-06
1.9296e-06
1.9296e-06
1.9296e-06
1.9296e-06
1.9395e-06
1.93445e-06
1.93457e-06
1.9296e-06
1.9296e-06
1.9296e-06
1.9296e-06
1.9296e-06
1.9296e-06
1.94109e-06
1.93821e-06
1.93895e-06
1.94017e-06
1.9296e-06
1.9296e-06
1.9296e-06
1.9296e-06
1.94334e-06
1.93929e-06
1.93869e-06
1.93786e-06
1.93635e-06
1.94167e-06
1.9404e-06
1.93956e-06
1.94111e-06
1.93943e-06
1.94107e-06
1.93919e-06
1.93752e-06
1.93449e-06
1.93824e-06
1.93869e-06
1.91354e-06
1.91372e-06
1.9125e-06
1.91101e-06
1.91016e-06
1.91032e-06
1.91091e-06
1.91529e-06
1.91422e-06
1.91242e-06
1.9101e-06
1.90593e-06
1.90594e-06
1.90594e-06
1.90594e-06
1.91646e-06
1.91274e-06
1.91101e-06
1.90594e-06
1.90594e-06
1.90594e-06
1.90594e-06
1.90595e-06
1.90595e-06
1.91796e-06
1.9155e-06
1.91352e-06
1.91018e-06
1.90595e-06
1.90594e-06
1.90594e-06
1.90594e-06
1.90595e-06
1.90595e-06
1.91671e-06
1.91386e-06
1.91373e-06
1.91035e-06
1.90595e-06
1.90594e-06
1.90594e-06
1.90594e-06
1.90595e-06
1.90595e-06
1.91585e-06
1.9108e-06
1.91092e-06
1.90595e-06
1.90594e-06
1.90594e-06
1.90594e-06
1.90594e-06
1.90595e-06
1.91744e-06
1.91456e-06
1.9153e-06
1.91652e-06
1.90595e-06
1.90594e-06
1.90594e-06
1.90595e-06
1.91968e-06
1.91563e-06
1.91504e-06
1.91421e-06
1.9127e-06
1.91801e-06
1.91675e-06
1.9159e-06
1.91746e-06
1.91577e-06
1.91742e-06
1.91553e-06
1.91387e-06
1.91079e-06
1.91459e-06
1.91505e-06
1.88988e-06
1.89007e-06
1.88887e-06
1.88736e-06
1.88651e-06
1.88667e-06
1.88725e-06
1.89164e-06
1.89056e-06
1.88878e-06
1.88645e-06
1.8823e-06
1.88229e-06
1.88229e-06
1.8823e-06
1.89281e-06
1.8891e-06
1.88736e-06
1.8823e-06
1.8823e-06
1.8823e-06
1.8823e-06
1.8823e-06
1.8823e-06
1.89431e-06
1.89185e-06
1.88987e-06
1.88653e-06
1.8823e-06
1.8823e-06
1.8823e-06
1.8823e-06
1.8823e-06
1.8823e-06
1.89306e-06
1.89021e-06
1.89008e-06
1.88669e-06
1.8823e-06
1.8823e-06
1.8823e-06
1.8823e-06
1.8823e-06
1.8823e-06
1.8922e-06
1.88715e-06
1.88727e-06
1.8823e-06
1.8823e-06
1.8823e-06
1.8823e-06
1.8823e-06
1.8823e-06
1.89379e-06
1.89091e-06
1.89165e-06
1.89287e-06
1.8823e-06
1.8823e-06
1.8823e-06
1.8823e-06
1.89603e-06
1.89199e-06
1.89139e-06
1.89056e-06
1.88905e-06
1.89436e-06
1.8931e-06
1.89225e-06
1.8938e-06
1.89213e-06
1.89377e-06
1.89188e-06
1.89021e-06
1.88718e-06
1.89093e-06
1.89138e-06
1.86624e-06
1.86643e-06
1.8652e-06
1.86372e-06
1.86286e-06
1.86302e-06
1.86361e-06
1.868e-06
1.86692e-06
1.86512e-06
1.8628e-06
1.85865e-06
1.85864e-06
1.85865e-06
1.85865e-06
1.86916e-06
1.86545e-06
1.86371e-06
1.85865e-06
1.85865e-06
1.85865e-06
1.85865e-06
1.85865e-06
1.85865e-06
1.87066e-06
1.8682e-06
1.86622e-06
1.86288e-06
1.85865e-06
1.85865e-06
1.85865e-06
1.85865e-06
1.85865e-06
1.85865e-06
1.86941e-06
1.86656e-06
1.86643e-06
1.86305e-06
1.85865e-06
1.85865e-06
1.85865e-06
1.85865e-06
1.85865e-06
1.85865e-06
1.86855e-06
1.8635e-06
1.86362e-06
1.85865e-06
1.85865e-06
1.85865e-06
1.85865e-06
1.85865e-06
1.85865e-06
1.87014e-06
1.86726e-06
1.868e-06
1.86922e-06
1.85865e-06
1.85865e-06
1.85865e-06
1.85865e-06
1.87239e-06
1.86834e-06
1.86774e-06
1.86691e-06
1.8654e-06
1.87072e-06
1.86945e-06
1.86859e-06
1.87015e-06
1.86848e-06
1.87012e-06
1.86823e-06
1.86657e-06
1.86355e-06
1.86728e-06
1.86773e-06
1.84259e-06
1.84278e-06
1.84156e-06
1.84006e-06
1.83921e-06
1.83938e-06
1.83996e-06
1.84435e-06
1.84327e-06
1.84148e-06
1.83916e-06
1.835e-06
1.835e-06
1.835e-06
1.835e-06
1.84551e-06
1.8418e-06
1.84007e-06
1.835e-06
1.835e-06
1.835e-06
1.835e-06
1.835e-06
1.835e-06
1.84701e-06
1.84456e-06
1.84257e-06
1.83923e-06
1.835e-06
1.835e-06
1.835e-06
1.835e-06
1.835e-06
1.835e-06
1.84576e-06
1.84291e-06
1.84278e-06
1.8394e-06
1.835e-06
1.835e-06
1.835e-06
1.835e-06
1.835e-06
1.835e-06
1.8449e-06
1.83985e-06
1.83997e-06
1.835e-06
1.835e-06
1.835e-06
1.835e-06
1.835e-06
1.835e-06
1.84649e-06
1.84361e-06
1.84435e-06
1.84557e-06
1.835e-06
1.835e-06
1.835e-06
1.835e-06
1.84874e-06
1.84469e-06
1.84409e-06
1.84326e-06
1.84175e-06
1.84707e-06
1.8458e-06
1.84494e-06
1.8465e-06
1.84483e-06
1.84647e-06
1.84458e-06
1.84293e-06
1.83989e-06
1.84363e-06
1.84409e-06
1.81895e-06
1.81914e-06
1.81791e-06
1.81641e-06
1.81556e-06
1.81573e-06
1.81632e-06
1.8207e-06
1.81962e-06
1.81783e-06
1.81551e-06
1.81135e-06
1.81135e-06
1.81135e-06
1.81135e-06
1.82187e-06
1.81815e-06
1.81642e-06
1.81135e-06
1.81135e-06
1.81135e-06
1.81135e-06
1.81135e-06
1.81135e-06
1.82336e-06
1.82091e-06
1.81892e-06
1.81558e-06
1.81135e-06
1.81135e-06
1.81135e-06
1.81135e-06
1.81135e-06
1.81135e-06
1.82211e-06
1.81927e-06
1.81914e-06
1.81575e-06
1.81135e-06
1.81135e-06
1.81135e-06
1.81135e-06
1.81135e-06
1.81135e-06
1.82125e-06
1.8162e-06
1.81632e-06
1.81135e-06
1.81135e-06
1.81135e-06
1.81135e-06
1.81135e-06
1.81135e-06
1.82284e-06
1.81996e-06
1.8207e-06
1.82192e-06
1.81135e-06
1.81135e-06
1.81135e-06
1.81135e-06
1.82509e-06
1.82104e-06
1.82045e-06
1.81961e-06
1.81811e-06
1.82342e-06
1.82215e-06
1.82129e-06
1.82286e-06
1.82119e-06
1.82282e-06
1.82094e-06
1.81927e-06
1.81625e-06
1.81999e-06
1.82043e-06
1.7953e-06
1.79549e-06
1.79426e-06
1.79277e-06
1.79192e-06
1.79208e-06
1.79267e-06
1.79705e-06
1.79596e-06
1.79418e-06
1.79186e-06
1.78771e-06
1.78771e-06
1.78771e-06
1.78771e-06
1.79823e-06
1.7945e-06
1.79277e-06
1.78771e-06
1.78771e-06
1.78771e-06
1.78771e-06
1.78771e-06
1.78771e-06
1.79972e-06
1.79726e-06
1.79528e-06
1.79193e-06
1.78771e-06
1.78771e-06
1.78771e-06
1.78771e-06
1.78771e-06
1.78771e-06
1.79847e-06
1.79562e-06
1.79549e-06
1.7921e-06
1.78771e-06
1.78771e-06
1.78771e-06
1.78771e-06
1.78771e-06
1.78771e-06
1.79761e-06
1.79256e-06
1.79268e-06
1.78771e-06
1.78771e-06
1.78771e-06
1.78771e-06
1.78771e-06
1.78771e-06
1.7992e-06
1.79632e-06
1.79706e-06
1.79827e-06
1.78771e-06
1.78771e-06
1.78771e-06
1.78771e-06
1.80144e-06
1.79739e-06
1.7968e-06
1.79596e-06
1.79446e-06
1.79977e-06
1.7985e-06
1.79764e-06
1.79921e-06
1.79754e-06
1.79918e-06
1.79729e-06
1.79562e-06
1.79259e-06
1.79633e-06
1.7968e-06
1.77165e-06
1.77184e-06
1.77061e-06
1.76912e-06
1.76827e-06
1.76843e-06
1.76903e-06
1.7734e-06
1.7723e-06
1.77054e-06
1.76822e-06
1.76406e-06
1.76406e-06
1.76406e-06
1.76406e-06
1.77458e-06
1.77086e-06
1.76913e-06
1.76406e-06
1.76406e-06
1.76406e-06
1.76406e-06
1.76406e-06
1.76406e-06
1.77607e-06
1.77362e-06
1.77163e-06
1.76829e-06
1.76406e-06
1.76406e-06
1.76406e-06
1.76406e-06
1.76406e-06
1.76406e-06
1.77482e-06
1.77197e-06
1.77184e-06
1.76845e-06
1.76406e-06
1.76406e-06
1.76406e-06
1.76406e-06
1.76406e-06
1.76406e-06
1.77396e-06
1.76891e-06
1.76903e-06
1.76406e-06
1.76406e-06
1.76406e-06
1.76406e-06
1.76406e-06
1.76406e-06
1.77555e-06
1.77267e-06
1.77341e-06
1.77463e-06
1.76406e-06
1.76406e-06
1.76406e-06
1.76406e-06
1.7778e-06
1.77375e-06
1.77315e-06
1.77232e-06
1.77081e-06
1.77612e-06
1.77485e-06
1.774e-06
1.77556e-06
1.77389e-06
1.77553e-06
1.77364e-06
1.77197e-06
1.76894e-06
1.77269e-06
1.77315e-06
1.748e-06
1.74819e-06
1.74697e-06
1.74547e-06
1.74462e-06
1.74478e-06
1.74538e-06
1.74975e-06
1.74865e-06
1.74689e-06
1.74457e-06
1.74041e-06
1.74041e-06
1.74041e-06
1.74041e-06
1.75093e-06
1.74721e-06
1.74548e-06
1.74041e-06
1.74041e-06
1.74041e-06
1.74041e-06
1.74041e-06
1.74041e-06
1.75242e-06
1.74997e-06
1.74798e-06
1.74464e-06
1.74041e-06
1.74041e-06
1.74041e-06
1.74041e-06
1.74041e-06
1.74041e-06
1.75117e-06
1.74832e-06
1.74819e-06
1.74481e-06
1.74041e-06
1.74041e-06
1.74041e-06
1.74041e-06
1.74041e-06
1.74041e-06
1.75031e-06
1.74526e-06
1.74538e-06
1.74041e-06
1.74041e-06
1.74041e-06
1.74041e-06
1.74041e-06
1.74041e-06
1.7519e-06
1.74902e-06
1.74976e-06
1.75098e-06
1.74041e-06
1.74041e-06
1.74041e-06
1.74041e-06
1.75415e-06
1.7501e-06
1.7495e-06
1.74867e-06
1.74716e-06
1.75247e-06
1.7512e-06
1.75035e-06
1.75191e-06
1.75024e-06
1.75188e-06
1.74999e-06
1.74832e-06
1.74529e-06
1.74904e-06
1.7495e-06
1.72436e-06
1.72454e-06
1.72332e-06
1.72182e-06
1.72097e-06
1.72113e-06
1.72173e-06
1.72611e-06
1.72501e-06
1.72324e-06
1.72092e-06
1.71676e-06
1.71676e-06
1.71676e-06
1.71676e-06
1.72728e-06
1.72356e-06
1.72183e-06
1.71676e-06
1.71676e-06
1.71676e-06
1.71676e-06
1.71676e-06
1.71676e-06
1.72877e-06
1.72632e-06
1.72433e-06
1.72099e-06
1.71676e-06
1.71676e-06
1.71676e-06
1.71676e-06
1.71676e-06
1.71676e-06
1.72752e-06
1.72467e-06
1.72455e-06
1.72116e-06
1.71676e-06
1.71676e-06
1.71676e-06
1.71676e-06
1.71676e-06
1.71676e-06
1.72666e-06
1.72161e-06
1.72173e-06
1.71676e-06
1.71676e-06
1.71676e-06
1.71676e-06
1.71676e-06
1.71676e-06
1.72825e-06
1.72537e-06
1.72611e-06
1.72733e-06
1.71676e-06
1.71676e-06
1.71676e-06
1.71676e-06
1.7305e-06
1.72645e-06
1.72585e-06
1.72502e-06
1.72351e-06
1.72882e-06
1.72756e-06
1.7267e-06
1.72826e-06
1.72659e-06
1.72823e-06
1.72634e-06
1.72468e-06
1.72164e-06
1.72539e-06
1.72585e-06
1.70071e-06
1.70089e-06
1.69967e-06
1.69818e-06
1.69732e-06
1.69749e-06
1.69807e-06
1.70243e-06
1.70128e-06
1.69958e-06
1.69726e-06
1.69311e-06
1.69311e-06
1.69311e-06
1.69311e-06
1.70364e-06
1.6999e-06
1.69818e-06
1.69311e-06
1.69311e-06
1.69311e-06
1.69311e-06
1.69311e-06
1.69311e-06
1.70512e-06
1.70266e-06
1.70068e-06
1.69734e-06
1.69311e-06
1.69311e-06
1.69311e-06
1.69311e-06
1.69311e-06
1.69311e-06
1.70387e-06
1.70102e-06
1.70089e-06
1.69751e-06
1.69311e-06
1.69311e-06
1.69311e-06
1.69311e-06
1.69311e-06
1.69311e-06
1.70301e-06
1.69796e-06
1.69808e-06
1.69311e-06
1.69311e-06
1.69311e-06
1.69311e-06
1.69311e-06
1.69311e-06
1.7046e-06
1.70172e-06
1.70246e-06
1.70368e-06
1.69311e-06
1.69311e-06
1.69311e-06
1.69311e-06
1.70685e-06
1.7028e-06
1.7022e-06
1.70137e-06
1.69986e-06
1.70517e-06
1.70391e-06
1.70305e-06
1.70461e-06
1.70294e-06
1.70458e-06
1.70269e-06
1.70103e-06
1.69799e-06
1.70174e-06
1.7022e-06
1.67706e-06
1.67724e-06
1.67601e-06
1.67452e-06
1.6737e-06
1.67384e-06
1.67443e-06
1.67881e-06
1.6777e-06
1.67592e-06
1.67361e-06
1.66946e-06
1.66946e-06
1.66946e-06
1.66946e-06
1.67998e-06
1.67626e-06
1.67453e-06
1.66946e-06
1.66946e-06
1.66946e-06
1.66946e-06
1.66946e-06
1.66946e-06
1.68147e-06
1.67902e-06
1.67703e-06
1.67369e-06
1.66946e-06
1.66946e-06
1.66946e-06
1.66946e-06
1.66946e-06
1.66946e-06
1.68022e-06
1.67737e-06
1.67724e-06
1.67385e-06
1.66946e-06
1.66946e-06
1.66946e-06
1.66946e-06
1.66946e-06
1.66946e-06
1.67936e-06
1.67431e-06
1.67443e-06
1.66946e-06
1.66946e-06
1.66946e-06
1.66946e-06
1.66946e-06
1.66946e-06
1.68095e-06
1.67807e-06
1.67881e-06
1.68003e-06
1.66946e-06
1.66946e-06
1.66946e-06
1.66946e-06
1.6832e-06
1.67915e-06
1.67855e-06
1.67772e-06
1.67621e-06
1.68152e-06
1.68026e-06
1.6794e-06
1.68096e-06
1.6793e-06
1.68093e-06
1.67904e-06
1.67737e-06
1.67434e-06
1.67809e-06
1.67855e-06
1.65341e-06
1.6536e-06
1.65236e-06
1.65088e-06
1.65005e-06
1.65019e-06
1.65078e-06
1.65516e-06
1.65406e-06
1.65228e-06
1.64996e-06
1.64581e-06
1.64581e-06
1.64581e-06
1.64581e-06
1.65634e-06
1.65261e-06
1.65088e-06
1.64581e-06
1.64581e-06
1.64581e-06
1.64581e-06
1.64581e-06
1.64581e-06
1.65782e-06
1.65537e-06
1.65338e-06
1.65004e-06
1.64581e-06
1.64581e-06
1.64581e-06
1.64581e-06
1.64581e-06
1.64581e-06
1.65658e-06
1.65373e-06
1.65359e-06
1.65021e-06
1.64581e-06
1.64581e-06
1.64581e-06
1.64581e-06
1.64581e-06
1.64581e-06
1.65571e-06
1.65066e-06
1.65078e-06
1.64581e-06
1.64581e-06
1.64581e-06
1.64581e-06
1.64581e-06
1.64581e-06
1.65731e-06
1.65442e-06
1.65516e-06
1.65638e-06
1.64581e-06
1.64581e-06
1.64581e-06
1.64581e-06
1.65955e-06
1.6555e-06
1.65491e-06
1.65407e-06
1.65256e-06
1.65788e-06
1.65661e-06
1.65575e-06
1.65731e-06
1.65565e-06
1.65729e-06
1.65539e-06
1.65373e-06
1.65069e-06
1.65444e-06
1.6549e-06
1.62976e-06
1.62995e-06
1.62873e-06
1.62723e-06
1.62641e-06
1.62654e-06
1.62713e-06
1.63152e-06
1.63042e-06
1.62863e-06
1.62632e-06
1.62216e-06
1.62216e-06
1.62217e-06
1.62217e-06
1.63269e-06
1.62896e-06
1.62723e-06
1.62217e-06
1.62217e-06
1.62217e-06
1.62217e-06
1.62217e-06
1.62217e-06
1.63418e-06
1.63173e-06
1.62973e-06
1.62639e-06
1.62217e-06
1.62217e-06
1.62217e-06
1.62217e-06
1.62217e-06
1.62217e-06
1.63293e-06
1.63008e-06
1.62994e-06
1.62655e-06
1.62217e-06
1.62217e-06
1.62217e-06
1.62217e-06
1.62217e-06
1.62217e-06
1.63207e-06
1.62702e-06
1.62713e-06
1.62217e-06
1.62217e-06
1.62217e-06
1.62217e-06
1.62217e-06
1.62217e-06
1.63366e-06
1.63078e-06
1.63152e-06
1.63273e-06
1.62217e-06
1.62217e-06
1.62217e-06
1.62217e-06
1.63591e-06
1.63186e-06
1.63126e-06
1.63042e-06
1.62892e-06
1.63423e-06
1.63296e-06
1.63211e-06
1.63367e-06
1.632e-06
1.63364e-06
1.63175e-06
1.63008e-06
1.62705e-06
1.63079e-06
1.63126e-06
1.60611e-06
1.6063e-06
1.60508e-06
1.60357e-06
1.60275e-06
1.60289e-06
1.60348e-06
1.60788e-06
1.60678e-06
1.60499e-06
1.60267e-06
1.59851e-06
1.59851e-06
1.59851e-06
1.59852e-06
1.60905e-06
1.60532e-06
1.60358e-06
1.59852e-06
1.59852e-06
1.59852e-06
1.59852e-06
1.59852e-06
1.59852e-06
1.61053e-06
1.60808e-06
1.60609e-06
1.60274e-06
1.59852e-06
1.59852e-06
1.59852e-06
1.59852e-06
1.59852e-06
1.59852e-06
1.60928e-06
1.60643e-06
1.6063e-06
1.60291e-06
1.59852e-06
1.59852e-06
1.59852e-06
1.59852e-06
1.59852e-06
1.59852e-06
1.60842e-06
1.60337e-06
1.60349e-06
1.59852e-06
1.59852e-06
1.59852e-06
1.59852e-06
1.59852e-06
1.59852e-06
1.61001e-06
1.60713e-06
1.60787e-06
1.60909e-06
1.59852e-06
1.59852e-06
1.59852e-06
1.59852e-06
1.61226e-06
1.60821e-06
1.60761e-06
1.60678e-06
1.60527e-06
1.61058e-06
1.60932e-06
1.60846e-06
1.61002e-06
1.60835e-06
1.60999e-06
1.6081e-06
1.60643e-06
1.6034e-06
1.60715e-06
1.60761e-06
1.58246e-06
1.58265e-06
1.58143e-06
1.57992e-06
1.5791e-06
1.57924e-06
1.57982e-06
1.58423e-06
1.58312e-06
1.58134e-06
1.57902e-06
1.57486e-06
1.57486e-06
1.57487e-06
1.57487e-06
1.58539e-06
1.58166e-06
1.57993e-06
1.57487e-06
1.57487e-06
1.57487e-06
1.57487e-06
1.57487e-06
1.57487e-06
1.5869e-06
1.58444e-06
1.58244e-06
1.5791e-06
1.57487e-06
1.57487e-06
1.57487e-06
1.57487e-06
1.57487e-06
1.57487e-06
1.58564e-06
1.58279e-06
1.58265e-06
1.57926e-06
1.57487e-06
1.57487e-06
1.57487e-06
1.57487e-06
1.57487e-06
1.57487e-06
1.58477e-06
1.57972e-06
1.57984e-06
1.57487e-06
1.57487e-06
1.57487e-06
1.57487e-06
1.57487e-06
1.57487e-06
1.58637e-06
1.58348e-06
1.58422e-06
1.58544e-06
1.57487e-06
1.57487e-06
1.57487e-06
1.57487e-06
1.58861e-06
1.58456e-06
1.58396e-06
1.58313e-06
1.58162e-06
1.58693e-06
1.58567e-06
1.58481e-06
1.58637e-06
1.5847e-06
1.58634e-06
1.58445e-06
1.58278e-06
1.57975e-06
1.5835e-06
1.58396e-06
1.5588e-06
1.55899e-06
1.55779e-06
1.55626e-06
1.55545e-06
1.55558e-06
1.55617e-06
1.56058e-06
1.55947e-06
1.55771e-06
1.55538e-06
1.55122e-06
1.55122e-06
1.55122e-06
1.55122e-06
1.56175e-06
1.55801e-06
1.55629e-06
1.55122e-06
1.55122e-06
1.55122e-06
1.55122e-06
1.55122e-06
1.55122e-06
1.56325e-06
1.56079e-06
1.55879e-06
1.55545e-06
1.55122e-06
1.55122e-06
1.55122e-06
1.55122e-06
1.55122e-06
1.55122e-06
1.56199e-06
1.55914e-06
1.55901e-06
1.55561e-06
1.55122e-06
1.55122e-06
1.55122e-06
1.55122e-06
1.55122e-06
1.55122e-06
1.56113e-06
1.55607e-06
1.55619e-06
1.55122e-06
1.55122e-06
1.55122e-06
1.55122e-06
1.55122e-06
1.55122e-06
1.56272e-06
1.55983e-06
1.56057e-06
1.56179e-06
1.55122e-06
1.55122e-06
1.55122e-06
1.55122e-06
1.56496e-06
1.56091e-06
1.56032e-06
1.55948e-06
1.55797e-06
1.56329e-06
1.56202e-06
1.56116e-06
1.56273e-06
1.56106e-06
1.5627e-06
1.5608e-06
1.55914e-06
1.5561e-06
1.55985e-06
1.56031e-06
1.53516e-06
1.53535e-06
1.53414e-06
1.53262e-06
1.5318e-06
1.53194e-06
1.53253e-06
1.53693e-06
1.53583e-06
1.53405e-06
1.53172e-06
1.52757e-06
1.52757e-06
1.52757e-06
1.52757e-06
1.5381e-06
1.53437e-06
1.53264e-06
1.52757e-06
1.52757e-06
1.52757e-06
1.52757e-06
1.52757e-06
1.52757e-06
1.5396e-06
1.53714e-06
1.53514e-06
1.5318e-06
1.52757e-06
1.52757e-06
1.52757e-06
1.52757e-06
1.52757e-06
1.52757e-06
1.53835e-06
1.53549e-06
1.53536e-06
1.53197e-06
1.52757e-06
1.52757e-06
1.52757e-06
1.52757e-06
1.52757e-06
1.52757e-06
1.53748e-06
1.53242e-06
1.53254e-06
1.52757e-06
1.52757e-06
1.52757e-06
1.52757e-06
1.52757e-06
1.52757e-06
1.53907e-06
1.53618e-06
1.53693e-06
1.53814e-06
1.52757e-06
1.52757e-06
1.52757e-06
1.52757e-06
1.54131e-06
1.53726e-06
1.53667e-06
1.53583e-06
1.53432e-06
1.53964e-06
1.53837e-06
1.53752e-06