/*--------------------------------*- C++ -*----------------------------------*\
| =========                 |                                                 |
| \\      /  F ield         | OpenFOAM: The Open Source CFD Toolbox           |
|  \\    /   O peration     | Version:  v2012                                 |
|   \\  /    A nd           | Website:  www.openfoam.com                      |
|    \\/     M anipulation  |                                                 |
\*---------------------------------------------------------------------------*/
FoamFile
{
    version     2.0;
    format      ascii;
    class       volScalarField;
    location    "625";
    object      epsilon;
}
// * * * * * * * * * * * * * * * * * * * * * * * * * * * * * * * * * * * * * //

dimensions      [0 2 -3 0 0 0 0];


internalField   nonuniform List<scalar> 
85864
(
4.95567e-07
4.9733e-07
4.9733e-07
4.99575e-07
4.45573e-07
4.53735e-07
4.53737e-07
4.6371e-07
4.03752e-07
4.18513e-07
4.18517e-07
4.39411e-07
3.68363e-07
3.88552e-07
3.88558e-07
4.17667e-07
3.38015e-07
3.62102e-07
3.6211e-07
3.96081e-07
3.11646e-07
3.38273e-07
3.38281e-07
3.74581e-07
2.88473e-07
3.16638e-07
3.16646e-07
3.5371e-07
2.67923e-07
2.97021e-07
2.97031e-07
3.34148e-07
2.4958e-07
2.7937e-07
2.79379e-07
3.16484e-07
2.33137e-07
2.63679e-07
2.63688e-07
3.01161e-07
2.18366e-07
2.49955e-07
2.49964e-07
2.88493e-07
2.0509e-07
2.38198e-07
2.38208e-07
2.78695e-07
1.93172e-07
2.28411e-07
2.28421e-07
2.71876e-07
1.82498e-07
2.206e-07
2.20611e-07
2.68162e-07
1.72979e-07
2.14773e-07
2.14786e-07
2.67645e-07
1.64541e-07
2.10939e-07
2.10954e-07
2.70499e-07
1.57122e-07
2.09107e-07
2.09127e-07
2.76701e-07
1.50668e-07
2.09295e-07
2.09318e-07
2.86281e-07
1.45137e-07
2.11549e-07
2.11576e-07
2.99229e-07
1.40492e-07
2.15885e-07
2.15916e-07
3.15604e-07
1.36703e-07
2.22325e-07
2.22359e-07
3.35362e-07
1.33749e-07
2.30887e-07
2.30924e-07
3.58396e-07
1.31605e-07
2.41553e-07
2.41593e-07
3.8453e-07
1.30256e-07
2.54302e-07
2.54346e-07
4.13516e-07
1.29692e-07
2.69082e-07
2.69136e-07
4.44996e-07
1.29922e-07
2.85864e-07
2.85918e-07
4.78659e-07
1.30912e-07
3.04529e-07
3.04584e-07
5.14028e-07
1.32663e-07
3.24973e-07
3.2504e-07
5.50613e-07
1.3519e-07
3.47104e-07
3.4717e-07
5.88029e-07
1.38492e-07
3.70762e-07
3.7083e-07
6.25857e-07
1.42558e-07
3.95789e-07
3.95865e-07
6.63686e-07
1.4738e-07
4.22053e-07
4.22155e-07
7.01123e-07
1.53031e-07
4.4939e-07
4.49512e-07
7.38038e-07
1.59418e-07
4.77504e-07
4.77586e-07
7.73968e-07
1.66505e-07
5.06301e-07
5.06297e-07
8.0869e-07
1.74476e-07
5.35565e-07
5.35625e-07
8.42455e-07
1.8323e-07
5.65351e-07
5.65675e-07
8.7532e-07
1.93145e-07
5.95843e-07
5.95873e-07
9.07498e-07
2.03646e-07
6.25826e-07
6.25955e-07
9.37765e-07
2.13896e-07
6.54689e-07
6.54761e-07
9.65276e-07
2.25875e-07
6.83815e-07
6.83956e-07
9.92497e-07
2.38425e-07
7.10795e-07
7.13094e-07
1.0175e-06
2.49277e-07
7.35304e-07
7.33238e-07
1.03326e-06
2.58321e-07
7.54756e-07
7.50853e-07
1.04916e-06
2.74781e-07
7.73147e-07
7.90794e-07
1.09439e-06
3.18868e-07
8.55101e-07
8.66934e-07
1.1631e-06
3.49936e-07
9.32197e-07
9.00589e-07
1.19309e-06
5.06417e-07
5.05584e-07
5.05582e-07
5.06417e-07
5.05583e-07
5.05582e-07
5.09649e-07
5.09649e-07
5.09649e-07
5.09649e-07
5.05584e-07
5.05584e-07
5.06418e-07
5.05584e-07
5.05583e-07
5.06418e-07
4.99575e-07
4.67237e-07
4.97331e-07
4.97335e-07
4.63713e-07
4.63721e-07
4.99575e-07
4.67235e-07
4.97335e-07
4.97336e-07
4.63718e-07
4.63724e-07
4.97332e-07
4.63709e-07
4.63714e-07
4.99575e-07
4.67241e-07
4.97334e-07
4.6371e-07
4.63719e-07
4.6724e-07
4.63709e-07
4.41426e-07
4.5374e-07
4.53748e-07
4.26739e-07
4.26747e-07
4.63708e-07
4.4142e-07
4.53744e-07
4.53751e-07
4.26739e-07
4.26751e-07
4.53741e-07
4.26729e-07
4.26741e-07
4.63711e-07
4.41431e-07
4.53744e-07
4.26734e-07
4.26741e-07
4.41429e-07
4.39407e-07
4.19283e-07
4.18522e-07
4.1853e-07
3.95676e-07
3.95682e-07
4.39405e-07
4.19275e-07
4.18522e-07
4.18535e-07
3.95672e-07
3.95689e-07
4.18525e-07
3.95663e-07
3.95679e-07
4.39413e-07
4.19289e-07
4.18523e-07
3.95669e-07
3.95673e-07
4.19287e-07
4.17662e-07
3.97645e-07
3.88566e-07
3.88571e-07
3.68461e-07
3.68466e-07
4.17656e-07
3.97636e-07
3.8856e-07
3.88578e-07
3.68452e-07
3.68473e-07
3.88569e-07
3.68444e-07
3.68464e-07
4.17669e-07
3.97651e-07
3.88562e-07
3.68452e-07
3.68454e-07
3.97649e-07
3.96076e-07
3.76086e-07
3.6212e-07
3.62124e-07
3.44033e-07
3.44036e-07
3.96069e-07
3.76076e-07
3.62109e-07
3.62131e-07
3.4402e-07
3.44043e-07
3.62123e-07
3.44013e-07
3.44036e-07
3.96082e-07
3.76091e-07
3.62111e-07
3.44022e-07
3.44021e-07
3.7609e-07
3.74575e-07
3.55112e-07
3.38293e-07
3.38295e-07
3.21875e-07
3.21876e-07
3.74568e-07
3.55101e-07
3.38279e-07
3.38303e-07
3.21858e-07
3.21884e-07
3.38296e-07
3.21853e-07
3.21877e-07
3.74581e-07
3.55117e-07
3.3828e-07
3.21862e-07
3.2186e-07
3.55116e-07
3.53704e-07
3.35395e-07
3.16659e-07
3.16661e-07
3.01763e-07
3.01764e-07
3.53696e-07
3.35385e-07
3.16643e-07
3.16668e-07
3.01745e-07
3.01771e-07
3.16662e-07
3.0174e-07
3.01765e-07
3.5371e-07
3.354e-07
3.16644e-07
3.01749e-07
3.01746e-07
3.35401e-07
3.34141e-07
3.17533e-07
2.97044e-07
2.97045e-07
2.83623e-07
2.83623e-07
3.34133e-07
3.17522e-07
2.97026e-07
2.97053e-07
2.83603e-07
2.83631e-07
2.97047e-07
2.83599e-07
2.83625e-07
3.34148e-07
3.17538e-07
2.97027e-07
2.83608e-07
2.83604e-07
3.17539e-07
3.16477e-07
3.01975e-07
2.79394e-07
2.79394e-07
2.67442e-07
2.67442e-07
3.16469e-07
3.01964e-07
2.79374e-07
2.79402e-07
2.67421e-07
2.67449e-07
2.79396e-07
2.67417e-07
2.67443e-07
3.16484e-07
3.01981e-07
2.79375e-07
2.67426e-07
2.67421e-07
3.01981e-07
3.01154e-07
2.89041e-07
2.63704e-07
2.63704e-07
2.53227e-07
2.53227e-07
3.01146e-07
2.89029e-07
2.63682e-07
2.63711e-07
2.53204e-07
2.53234e-07
2.63705e-07
2.532e-07
2.53227e-07
3.01161e-07
2.89046e-07
2.63683e-07
2.5321e-07
2.53205e-07
2.89046e-07
2.88485e-07
2.7895e-07
2.49981e-07
2.49981e-07
2.40981e-07
2.4098e-07
2.88476e-07
2.78937e-07
2.49958e-07
2.49989e-07
2.40956e-07
2.40988e-07
2.49982e-07
2.40952e-07
2.4098e-07
2.88493e-07
2.78957e-07
2.49959e-07
2.40961e-07
2.40957e-07
2.78956e-07
2.78688e-07
2.71829e-07
2.38227e-07
2.38227e-07
2.30702e-07
2.30702e-07
2.78678e-07
2.71817e-07
2.38203e-07
2.38235e-07
2.30676e-07
2.3071e-07
2.38227e-07
2.3067e-07
2.30701e-07
2.78695e-07
2.71837e-07
2.38204e-07
2.30681e-07
2.30676e-07
2.71835e-07
2.71868e-07
2.67862e-07
2.28441e-07
2.28443e-07
2.22398e-07
2.224e-07
2.71858e-07
2.67849e-07
2.28417e-07
2.28451e-07
2.22372e-07
2.22408e-07
2.28442e-07
2.22364e-07
2.22397e-07
2.71876e-07
2.67873e-07
2.28417e-07
2.22375e-07
2.22371e-07
2.6787e-07
2.68153e-07
2.66981e-07
2.20633e-07
2.20637e-07
2.16077e-07
2.1608e-07
2.68143e-07
2.66966e-07
2.20608e-07
2.20645e-07
2.16049e-07
2.16089e-07
2.20634e-07
2.16038e-07
2.16075e-07
2.68165e-07
2.66992e-07
2.20608e-07
2.16051e-07
2.16048e-07
2.66991e-07
2.67636e-07
2.69158e-07
2.14811e-07
2.14816e-07
2.11745e-07
2.11753e-07
2.67621e-07
2.69141e-07
2.14784e-07
2.14825e-07
2.11719e-07
2.11763e-07
2.1481e-07
2.11702e-07
2.11743e-07
2.67645e-07
2.69172e-07
2.14783e-07
2.11717e-07
2.11715e-07
2.6917e-07
2.70489e-07
2.74667e-07
2.10983e-07
2.1099e-07
2.09415e-07
2.09424e-07
2.70471e-07
2.74645e-07
2.10956e-07
2.11001e-07
2.09388e-07
2.09436e-07
2.1098e-07
2.09364e-07
2.0941e-07
2.705e-07
2.74682e-07
2.10952e-07
2.09383e-07
2.09381e-07
2.74679e-07
2.7669e-07
2.83546e-07
2.09158e-07
2.09167e-07
2.09128e-07
2.09137e-07
2.76669e-07
2.83521e-07
2.09131e-07
2.0918e-07
2.091e-07
2.09153e-07
2.09153e-07
2.09071e-07
2.09121e-07
2.76704e-07
2.83563e-07
2.09124e-07
2.09093e-07
2.09092e-07
2.83559e-07
2.86271e-07
2.95811e-07
2.09355e-07
2.09364e-07
2.10851e-07
2.10857e-07
2.86243e-07
2.9578e-07
2.09327e-07
2.09381e-07
2.10821e-07
2.1088e-07
2.09347e-07
2.10784e-07
2.10841e-07
2.86283e-07
2.95829e-07
2.09318e-07
2.1081e-07
2.10811e-07
2.95825e-07
2.99217e-07
3.11493e-07
2.11616e-07
2.11625e-07
2.14673e-07
2.14683e-07
2.99184e-07
3.11461e-07
2.11588e-07
2.11648e-07
2.14642e-07
2.14708e-07
2.11607e-07
2.14598e-07
2.14661e-07
2.99232e-07
3.11517e-07
2.11577e-07
2.14627e-07
2.1463e-07
3.1151e-07
3.15589e-07
3.30559e-07
2.1596e-07
2.15974e-07
2.20593e-07
2.20614e-07
3.15556e-07
3.30521e-07
2.15931e-07
2.15998e-07
2.20564e-07
2.20639e-07
2.15949e-07
2.20515e-07
2.20586e-07
3.1561e-07
3.30584e-07
2.15918e-07
2.20548e-07
2.20554e-07
3.30579e-07
3.35343e-07
3.52915e-07
2.22403e-07
2.22427e-07
2.28629e-07
2.28662e-07
3.35303e-07
3.52871e-07
2.22376e-07
2.22453e-07
2.28601e-07
2.28688e-07
2.22397e-07
2.2855e-07
2.28626e-07
3.35365e-07
3.52946e-07
2.22364e-07
2.28585e-07
2.28592e-07
3.52941e-07
3.58374e-07
3.78399e-07
2.30968e-07
2.31004e-07
2.38774e-07
2.38817e-07
3.58332e-07
3.78356e-07
2.30941e-07
2.3103e-07
2.38747e-07
2.38844e-07
2.30965e-07
2.3869e-07
2.38774e-07
3.58402e-07
3.78435e-07
2.30931e-07
2.38727e-07
2.38737e-07
3.7843e-07
3.84505e-07
4.0678e-07
2.41638e-07
2.41683e-07
2.51014e-07
2.51066e-07
3.84462e-07
4.06737e-07
2.41612e-07
2.41712e-07
2.50986e-07
2.51094e-07
2.41638e-07
2.50925e-07
2.51018e-07
3.84534e-07
4.06824e-07
2.416e-07
2.50966e-07
2.50979e-07
4.06816e-07
4.13484e-07
4.37713e-07
2.54392e-07
2.54446e-07
2.65294e-07
2.65357e-07
4.13441e-07
4.37669e-07
2.54365e-07
2.54475e-07
2.65263e-07
2.65386e-07
2.54398e-07
2.65199e-07
2.65303e-07
4.1352e-07
4.37766e-07
2.5436e-07
2.65248e-07
2.65265e-07
4.37756e-07
4.44959e-07
4.70885e-07
2.69181e-07
2.69241e-07
2.81597e-07
2.81655e-07
4.44914e-07
4.70831e-07
2.6915e-07
2.69275e-07
2.81557e-07
2.81693e-07
2.6919e-07
2.81487e-07
2.81602e-07
4.45002e-07
4.7094e-07
2.69154e-07
2.81538e-07
2.81565e-07
4.70937e-07
4.78611e-07
5.05857e-07
2.85976e-07
2.86035e-07
2.99814e-07
2.99877e-07
4.7856e-07
5.05805e-07
2.85937e-07
2.86076e-07
2.99767e-07
2.9991e-07
2.85982e-07
2.99693e-07
2.99821e-07
4.78659e-07
5.05917e-07
2.85946e-07
2.99742e-07
2.99778e-07
5.05918e-07
5.13976e-07
5.42135e-07
3.04654e-07
3.04715e-07
3.19827e-07
3.19898e-07
5.13923e-07
5.42073e-07
3.04607e-07
3.0475e-07
3.19774e-07
3.1994e-07
3.04659e-07
3.197e-07
3.1984e-07
5.14025e-07
5.422e-07
3.04616e-07
3.19764e-07
3.19788e-07
5.42192e-07
5.50559e-07
5.79293e-07
3.25094e-07
3.25172e-07
3.41542e-07
3.41628e-07
5.50503e-07
5.79253e-07
3.25046e-07
3.25215e-07
3.4149e-07
3.41676e-07
3.25112e-07
3.41421e-07
3.41569e-07
5.50621e-07
5.79383e-07
3.25061e-07
3.41489e-07
3.41513e-07
5.79373e-07
5.87956e-07
6.16983e-07
3.47226e-07
3.47311e-07
3.64862e-07
3.64924e-07
5.8792e-07
6.16912e-07
3.47174e-07
3.47355e-07
3.64792e-07
3.64958e-07
3.47253e-07
3.64712e-07
3.6487e-07
5.88035e-07
6.1703e-07
3.47201e-07
3.64768e-07
3.64815e-07
6.17057e-07
6.25798e-07
6.54743e-07
3.70918e-07
3.70972e-07
3.89593e-07
3.89655e-07
6.25722e-07
6.54649e-07
3.70847e-07
3.71021e-07
3.89508e-07
3.89706e-07
3.70927e-07
3.89419e-07
3.89604e-07
6.25835e-07
6.54813e-07
3.70867e-07
3.89498e-07
3.89522e-07
6.54814e-07
6.63623e-07
6.92151e-07
3.95972e-07
3.96022e-07
4.15527e-07
4.15622e-07
6.63529e-07
6.92075e-07
3.95891e-07
3.96068e-07
4.15451e-07
4.15698e-07
3.95983e-07
4.15378e-07
4.1557e-07
6.63681e-07
6.92259e-07
3.959e-07
4.15491e-07
4.15495e-07
6.92244e-07
7.01028e-07
7.29073e-07
4.22177e-07
4.22293e-07
4.42651e-07
4.42716e-07
7.00972e-07
7.29011e-07
4.22106e-07
4.22356e-07
4.42558e-07
4.42733e-07
4.22228e-07
4.42465e-07
4.42693e-07
7.01149e-07
7.29123e-07
4.22152e-07
4.42542e-07
4.42615e-07
7.29182e-07
7.37943e-07
7.65202e-07
4.49599e-07
4.49647e-07
4.70653e-07
4.70697e-07
7.37869e-07
7.65101e-07
4.495e-07
4.49699e-07
4.70529e-07
4.70712e-07
4.49633e-07
4.70435e-07
4.70649e-07
7.37971e-07
7.65261e-07
4.49553e-07
4.70507e-07
4.70542e-07
7.65269e-07
7.73919e-07
8.00066e-07
4.77763e-07
4.77761e-07
4.99164e-07
4.99212e-07
7.73807e-07
7.99947e-07
4.77645e-07
4.77814e-07
4.99063e-07
4.99392e-07
4.77759e-07
4.9901e-07
4.9923e-07
7.73944e-07
8.00194e-07
4.77645e-07
4.99109e-07
4.99096e-07
8.0017e-07
8.08592e-07
8.33942e-07
5.06366e-07
5.06495e-07
5.2837e-07
5.2842e-07
8.08537e-07
8.33874e-07
5.06265e-07
5.06574e-07
5.28267e-07
5.28491e-07
5.06428e-07
5.28202e-07
5.28406e-07
8.0873e-07
8.33965e-07
5.06291e-07
5.28214e-07
5.28277e-07
8.34034e-07
8.42347e-07
8.66854e-07
5.35717e-07
5.35796e-07
5.57951e-07
5.5812e-07
8.42263e-07
8.66889e-07
5.3561e-07
5.35871e-07
5.57782e-07
5.58203e-07
5.35775e-07
5.57811e-07
5.58072e-07
8.42392e-07
8.67123e-07
5.35665e-07
5.58082e-07
5.58032e-07
8.67051e-07
8.75159e-07
8.99381e-07
5.6554e-07
5.65692e-07
5.88562e-07
5.88547e-07
8.7517e-07
8.99125e-07
5.65378e-07
5.65781e-07
5.88412e-07
5.88438e-07
5.65614e-07
5.88216e-07
5.885e-07
8.7539e-07
8.9931e-07
5.65586e-07
5.88334e-07
5.88394e-07
8.99409e-07
9.07499e-07
9.30238e-07
5.96285e-07
5.96121e-07
6.19087e-07
6.18655e-07
9.07192e-07
9.29749e-07
5.96145e-07
5.96004e-07
6.18982e-07
6.18966e-07
5.96209e-07
6.18467e-07
6.19044e-07
9.07329e-07
9.29902e-07
5.96095e-07
6.18636e-07
6.18842e-07
9.30196e-07
9.37788e-07
9.57753e-07
6.26318e-07
6.25979e-07
6.47231e-07
6.47686e-07
9.37351e-07
9.57841e-07
6.26236e-07
6.2632e-07
6.47138e-07
6.47704e-07
6.26271e-07
6.47572e-07
6.47564e-07
9.37529e-07
9.57968e-07
6.26072e-07
6.4746e-07
6.47409e-07
9.5803e-07
9.64965e-07
9.84895e-07
6.5449e-07
6.54814e-07
6.76811e-07
6.77015e-07
9.65082e-07
9.84523e-07
6.5436e-07
6.5496e-07
6.76503e-07
6.76735e-07
6.54793e-07
6.76617e-07
6.76853e-07
9.65208e-07
9.84955e-07
6.54619e-07
6.76674e-07
6.76691e-07
9.85275e-07
9.92026e-07
1.01066e-06
6.84163e-07
6.84251e-07
7.05793e-07
7.04312e-07
9.91461e-07
1.00884e-06
6.83844e-07
6.83941e-07
7.0577e-07
7.06117e-07
6.84369e-07
7.04101e-07
7.06505e-07
9.92016e-07
1.01069e-06
6.8427e-07
7.06152e-07
7.06547e-07
1.01134e-06
1.01694e-06
1.02913e-06
7.12365e-07
7.1092e-07
7.29325e-07
7.2984e-07
1.01509e-06
1.02913e-06
7.12562e-07
7.13162e-07
7.29929e-07
7.29453e-07
7.13073e-07
7.29626e-07
7.29586e-07
1.01703e-06
1.02833e-06
7.13177e-07
7.28732e-07
7.29145e-07
1.02872e-06
1.03399e-06
1.04381e-06
7.3453e-07
7.3582e-07
7.48857e-07
7.52221e-07
1.03445e-06
1.04461e-06
7.35065e-07
7.34174e-07
7.48556e-07
7.47538e-07
7.34179e-07
7.50924e-07
7.47408e-07
1.0326e-06
1.04135e-06
7.33359e-07
7.4672e-07
7.46084e-07
1.04309e-06
1.04893e-06
1.0725e-06
7.53328e-07
7.56153e-07
7.75222e-07
7.64919e-07
1.04895e-06
1.05882e-06
7.52554e-07
7.51259e-07
7.7379e-07
7.73422e-07
7.53229e-07
7.64825e-07
7.82553e-07
1.04671e-06
1.0715e-06
7.52045e-07
7.75233e-07
7.83211e-07
1.08119e-06
1.08478e-06
1.14972e-06
7.88742e-07
7.70664e-07
8.44973e-07
8.28217e-07
1.06637e-06
1.12845e-06
7.87849e-07
7.88573e-07
8.46194e-07
8.47825e-07
7.96666e-07
8.30252e-07
8.44357e-07
1.08447e-06
1.15198e-06
7.98439e-07
8.49001e-07
8.48686e-07
1.15023e-06
1.16641e-06
1.21111e-06
8.64176e-07
8.5416e-07
9.06125e-07
9.21342e-07
1.14949e-06
1.2298e-06
8.65766e-07
8.66509e-07
9.07507e-07
9.01953e-07
8.59013e-07
9.19389e-07
8.89056e-07
1.16802e-06
1.20279e-06
8.63413e-07
8.9942e-07
8.9043e-07
1.18991e-06
1.21576e-06
1.17325e-06
9.11092e-07
9.35115e-07
8.92452e-07
9.26325e-07
1.24268e-06
1.20627e-06
9.11775e-07
9.03638e-07
8.89689e-07
8.77999e-07
8.93494e-07
9.22668e-07
8.9042e-07
1.20438e-06
1.15845e-06
8.92941e-07
8.76197e-07
8.8366e-07
1.17188e-06
5.35663e-07
5.35601e-07
5.35655e-07
5.35655e-07
5.34573e-07
5.35516e-07
5.33634e-07
5.35654e-07
5.34573e-07
5.35517e-07
5.35654e-07
5.33634e-07
5.35256e-07
5.35986e-07
5.35987e-07
1.10713e-06
3.88082e-06
9.33891e-07
4.60617e-06
1.26081e-05
1.66011e-05
1.10725e-06
3.88106e-06
9.33925e-07
4.60653e-06
4.95567e-07
4.95567e-07
4.95567e-07
4.57231e-07
4.57231e-07
4.57232e-07
4.57232e-07
5.43144e-07
1.22026e-06
4.95565e-07
4.85522e-07
5.25341e-07
1.20946e-06
4.82301e-07
1.26097e-05
1.66037e-05
5.43162e-07
4.95565e-07
1.22025e-06
4.85523e-07
5.2532e-07
4.82302e-07
1.20945e-06
2.52172e-06
2.52242e-06
4.8419e-07
2.37248e-06
2.37288e-06
1.4308e-06
5.59329e-06
1.32967e-06
6.13637e-06
2.12844e-05
2.31105e-05
1.4312e-06
5.59395e-06
1.32973e-06
6.13703e-06
4.45572e-07
4.45573e-07
4.45573e-07
4.13542e-07
4.13542e-07
4.13543e-07
4.13543e-07
5.87084e-07
1.19483e-06
4.46434e-07
4.44291e-07
5.73801e-07
1.20431e-06
4.3569e-07
2.12866e-05
2.31142e-05
5.87102e-07
4.46435e-07
1.19484e-06
4.44294e-07
5.73811e-07
4.35692e-07
1.2044e-06
2.31171e-06
2.31222e-06
4.53488e-07
2.35332e-06
2.35378e-06
1.66327e-06
6.918e-06
1.59584e-06
7.32012e-06
2.46404e-05
2.4937e-05
1.66337e-06
6.91882e-06
1.59576e-06
7.32107e-06
4.03752e-07
4.03753e-07
4.03753e-07
3.76689e-07
3.76689e-07
3.76691e-07
3.7669e-07
6.15569e-07
1.24281e-06
4.06546e-07
4.10617e-07
6.0838e-07
1.26558e-06
3.97729e-07
2.46436e-05
2.49405e-05
6.15585e-07
4.06547e-07
1.24291e-06
4.10622e-07
6.08396e-07
3.97732e-07
1.26574e-06
2.47396e-06
2.47444e-06
4.3018e-07
2.53268e-06
2.53316e-06
1.81233e-06
7.8464e-06
1.77234e-06
8.09941e-06
2.47364e-05
2.44304e-05
1.81247e-06
7.84737e-06
1.77234e-06
8.1007e-06
3.68362e-07
3.68365e-07
3.68364e-07
3.45192e-07
3.45192e-07
3.45195e-07
3.45194e-07
6.26293e-07
1.31313e-06
3.73478e-07
3.81656e-07
6.24882e-07
1.33369e-06
3.66029e-07
2.47388e-05
2.4434e-05
6.26306e-07
3.7348e-07
1.31321e-06
3.81662e-07
6.24894e-07
3.66032e-07
1.33386e-06
2.63523e-06
2.63572e-06
4.08471e-07
2.67932e-06
2.67982e-06
1.89282e-06
8.39548e-06
1.87319e-06
8.52966e-06
2.36922e-05
2.3265e-05
1.89299e-06
8.39665e-06
1.87321e-06
8.53097e-06
3.38014e-07
3.38017e-07
3.38016e-07
3.17912e-07
3.17911e-07
3.17915e-07
3.17914e-07
6.22109e-07
1.37211e-06
3.45239e-07
3.55922e-07
6.25445e-07
1.3871e-06
3.38764e-07
2.3694e-05
2.32682e-05
6.22123e-07
3.45241e-07
1.37219e-06
3.5593e-07
6.25457e-07
3.38768e-07
1.38727e-06
2.76347e-06
2.76401e-06
3.86837e-07
2.80527e-06
2.80582e-06
1.92987e-06
8.66301e-06
1.9218e-06
8.71893e-06
2.25015e-05
2.21201e-05
1.93005e-06
8.66443e-06
1.92183e-06
8.72027e-06
3.11645e-07
3.11649e-07
3.11648e-07
2.94001e-07
2.94e-07
2.94004e-07
2.94002e-07
6.08887e-07
1.41602e-06
3.20492e-07
3.32668e-07
6.15378e-07
1.42751e-06
3.14745e-07
2.25028e-05
2.2123e-05
6.08901e-07
3.20493e-07
1.41609e-06
3.32677e-07
6.15391e-07
3.14749e-07
1.42768e-06
2.89505e-06
2.89565e-06
3.65488e-07
2.94359e-06
2.94421e-06
1.94789e-06
8.75948e-06
1.94364e-06
8.77085e-06
2.14771e-05
2.11784e-05
1.94807e-06
8.76089e-06
1.94367e-06
8.77227e-06
2.88472e-07
2.88476e-07
2.88475e-07
2.72839e-07
2.72838e-07
2.72842e-07
2.72841e-07
5.91864e-07
1.45272e-06
2.98409e-07
3.11548e-07
5.99369e-07
1.464e-06
2.93242e-07
2.14782e-05
2.11809e-05
5.91878e-07
2.98411e-07
1.45279e-06
3.11557e-07
5.99382e-07
2.93246e-07
1.46418e-06
3.04887e-06
3.04956e-06
3.45061e-07
3.10623e-06
3.10699e-06
1.9656e-06
8.76862e-06
1.9596e-06
8.76337e-06
2.0674e-05
2.04528e-05
1.96576e-06
8.77007e-06
1.95963e-06
8.76483e-06
2.67922e-07
2.67926e-07
2.67925e-07
2.53977e-07
2.53976e-07
2.5398e-07
2.53978e-07
5.75449e-07
1.49165e-06
2.785e-07
2.92425e-07
5.82273e-07
1.50548e-06
2.73825e-07
2.06752e-05
2.04548e-05
5.75465e-07
2.78501e-07
1.49171e-06
2.92434e-07
5.82287e-07
2.73829e-07
1.50564e-06
3.22604e-06
3.22684e-06
3.26206e-07
3.29159e-06
3.29254e-06
1.99555e-06
8.74924e-06
1.98438e-06
8.74307e-06
2.00718e-05
1.99104e-05
1.9957e-06
8.75069e-06
1.98439e-06
8.74458e-06
2.49579e-07
2.49583e-07
2.49581e-07
2.37082e-07
2.37081e-07
2.37086e-07
2.37084e-07
5.629e-07
1.53982e-06
2.60474e-07
2.75263e-07
5.67828e-07
1.55769e-06
2.56239e-07
2.00736e-05
1.99121e-05
5.62916e-07
2.60475e-07
1.53986e-06
2.75272e-07
5.67845e-07
2.56243e-07
1.55786e-06
3.42144e-06
3.4224e-06
3.09449e-07
3.49256e-06
3.49371e-06
2.04523e-06
8.73355e-06
2.0268e-06
8.7313e-06
1.96319e-05
1.95161e-05
2.04538e-06
8.73497e-06
2.0268e-06
8.7329e-06
2.33136e-07
2.3314e-07
2.33138e-07
2.21911e-07
2.2191e-07
2.21914e-07
2.21913e-07
5.565e-07
1.60098e-06
2.44157e-07
2.60063e-07
5.58642e-07
1.62362e-06
2.4033e-07
1.96337e-05
1.9518e-05
5.56519e-07
2.44158e-07
1.60103e-06
2.60072e-07
5.5866e-07
2.40334e-07
1.62379e-06
3.62736e-06
3.62847e-06
2.95169e-07
3.70104e-06
3.70241e-06
2.11896e-06
8.73091e-06
2.09204e-06
8.73361e-06
1.93171e-05
1.92359e-05
2.11918e-06
8.7325e-06
2.09197e-06
8.73538e-06
2.18365e-07
2.18369e-07
2.18367e-07
2.08276e-07
2.08275e-07
2.08279e-07
2.08277e-07
5.57606e-07
1.67643e-06
2.29438e-07
2.4683e-07
5.56738e-07
1.70374e-06
2.25997e-07
1.93189e-05
1.92378e-05
5.57624e-07
2.29439e-07
1.6765e-06
2.4684e-07
5.56755e-07
2.26001e-07
1.70392e-06
3.83559e-06
3.83685e-06
2.83637e-07
3.90914e-06
3.91072e-06
2.21867e-06
8.7403e-06
2.18283e-06
8.74734e-06
1.9096e-05
1.904e-05
2.21891e-06
8.74209e-06
2.18287e-06
8.74911e-06
2.05089e-07
2.05093e-07
2.05092e-07
1.9603e-07
1.96029e-07
1.96033e-07
1.96031e-07
5.66945e-07
1.76537e-06
2.16237e-07
2.35565e-07
5.63103e-07
1.79676e-06
2.13166e-07
1.90978e-05
1.90419e-05
5.66969e-07
2.16238e-07
1.76545e-06
2.35575e-07
5.63132e-07
2.1317e-07
1.79696e-06
4.03864e-06
4.04006e-06
2.75008e-07
4.10927e-06
4.11102e-06
2.34374e-06
8.75827e-06
2.2994e-06
8.76716e-06
1.89422e-05
1.89036e-05
2.34439e-06
8.76011e-06
2.29931e-06
8.76895e-06
1.93171e-07
1.93175e-07
1.93173e-07
1.85053e-07
1.85052e-07
1.85057e-07
1.85055e-07
5.8586e-07
1.8657e-06
2.04494e-07
2.2627e-07
5.78762e-07
1.9003e-06
2.01779e-07
1.8944e-05
1.89054e-05
5.85889e-07
2.04495e-07
1.8658e-06
2.26281e-07
5.78793e-07
2.01783e-07
1.9005e-06
4.22973e-06
4.23129e-06
2.69469e-07
4.29518e-06
4.29707e-06
2.49201e-06
8.77938e-06
2.43866e-06
8.78838e-06
1.88345e-05
1.88074e-05
2.49251e-06
8.78126e-06
2.43846e-06
8.79025e-06
1.82497e-07
1.82501e-07
1.82499e-07
1.75253e-07
1.75252e-07
1.75256e-07
1.75254e-07
6.14904e-07
1.97458e-06
1.94157e-07
2.18953e-07
6.0437e-07
2.01136e-06
1.91785e-07
1.88362e-05
1.88092e-05
6.1494e-07
1.94157e-07
1.97469e-06
2.18965e-07
6.04403e-07
1.9179e-07
2.01156e-06
4.40384e-06
4.40551e-06
2.67055e-07
4.46267e-06
4.46466e-06
2.65675e-06
8.80015e-06
2.59701e-06
8.80847e-06
1.87566e-05
1.87368e-05
2.6574e-06
8.80201e-06
2.59666e-06
8.81039e-06
1.72978e-07
1.72983e-07
1.7298e-07
1.66551e-07
1.6655e-07
1.66554e-07
1.66552e-07
6.54322e-07
2.08873e-06
1.85183e-07
2.13622e-07
6.40333e-07
2.1265e-06
1.83145e-07
1.87584e-05
1.87386e-05
6.54358e-07
1.85183e-07
2.08886e-06
2.13635e-07
6.40372e-07
1.83149e-07
2.12672e-06
4.55799e-06
4.55974e-06
2.6767e-07
4.60936e-06
4.61142e-06
2.83135e-06
8.81917e-06
2.76766e-06
8.8268e-06
1.86972e-05
1.86816e-05
2.83183e-06
8.82112e-06
2.76749e-06
8.82864e-06
1.6454e-07
1.64545e-07
1.64543e-07
1.58882e-07
1.58881e-07
1.58886e-07
1.58883e-07
7.04076e-07
2.20468e-06
1.77535e-07
2.10282e-07
6.867e-07
2.24234e-06
1.75823e-07
1.86988e-05
1.86832e-05
7.04114e-07
1.77535e-07
2.2048e-06
2.103e-07
6.86739e-07
1.75828e-07
2.24255e-06
4.69102e-06
4.69281e-06
2.71507e-07
4.7348e-06
4.73689e-06
3.00737e-06
8.8365e-06
2.9432e-06
8.84344e-06
1.86483e-05
1.86352e-05
3.00794e-06
8.83843e-06
2.94297e-06
8.84535e-06
1.5712e-07
1.57126e-07
1.57123e-07
1.52192e-07
1.52191e-07
1.52196e-07
1.52193e-07
7.63691e-07
2.31921e-06
1.71187e-07
2.08951e-07
7.43123e-07
2.35577e-06
1.69794e-07
1.86499e-05
1.86368e-05
7.63736e-07
1.71187e-07
2.31933e-06
2.08972e-07
7.43163e-07
1.69799e-07
2.35599e-06
4.80347e-06
4.80531e-06
2.78693e-07
4.84e-06
4.84209e-06
3.17666e-06
8.85249e-06
3.11531e-06
8.85898e-06
1.86057e-05
1.85938e-05
3.17726e-06
8.85439e-06
3.11509e-06
8.86091e-06
1.50667e-07
1.50672e-07
1.50669e-07
1.46434e-07
1.46432e-07
1.46439e-07
1.46435e-07
8.32136e-07
2.42957e-06
1.6612e-07
2.09658e-07
8.088e-07
2.46426e-06
1.65045e-07
1.86073e-05
1.85956e-05
8.32172e-07
1.6612e-07
2.4297e-06
2.09681e-07
8.08851e-07
1.65049e-07
2.46448e-06
4.89712e-06
4.89899e-06
2.89264e-07
4.927e-06
4.92909e-06
3.33256e-06
8.86748e-06
3.27628e-06
8.87372e-06
1.85669e-05
1.85564e-05
3.33313e-06
8.86942e-06
3.2761e-06
8.87565e-06
1.45134e-07
1.45141e-07
1.45137e-07
1.41571e-07
1.41568e-07
1.41576e-07
1.41572e-07
9.07929e-07
2.53362e-06
1.62328e-07
2.12429e-07
8.82357e-07
2.56587e-06
1.61566e-07
1.85686e-05
1.85579e-05
9.07975e-07
1.62328e-07
2.53375e-06
2.12457e-07
8.82392e-07
1.61571e-07
2.56609e-06
4.97426e-06
4.97614e-06
3.03242e-07
4.99841e-06
5.00049e-06
3.46999e-06
8.88191e-06
3.42081e-06
8.88784e-06
1.85313e-05
1.85213e-05
3.47058e-06
8.88382e-06
3.42064e-06
8.88966e-06
1.40488e-07
1.40496e-07
1.40492e-07
1.37573e-07
1.3757e-07
1.37579e-07
1.37574e-07
9.89105e-07
2.62988e-06
1.59809e-07
2.17292e-07
9.62006e-07
2.65933e-06
1.59362e-07
1.85327e-05
1.85229e-05
9.89147e-07
1.5981e-07
2.63001e-06
2.17323e-07
9.62055e-07
1.59366e-07
2.65954e-06
5.03745e-06
5.03932e-06
3.20626e-07
5.05682e-06
5.05889e-06
3.58669e-06
8.89549e-06
3.54528e-06
8.90103e-06
1.84976e-05
1.84883e-05
3.58726e-06
8.89728e-06
3.54511e-06
8.90277e-06
1.367e-07
1.36709e-07
1.36704e-07
1.34413e-07
1.3441e-07
1.3442e-07
1.34414e-07
1.07343e-06
2.71749e-06
1.58573e-07
2.24268e-07
1.04556e-06
2.744e-06
1.5844e-07
1.84994e-05
1.84903e-05
1.07348e-06
1.58575e-07
2.71759e-06
2.24302e-07
1.0456e-06
1.58444e-07
2.74422e-06
5.08911e-06
5.09098e-06
3.41357e-07
5.10456e-06
5.10662e-06
3.68234e-06
8.90806e-06
3.64885e-06
8.91303e-06
1.84664e-05
1.8458e-05
3.6829e-06
8.90978e-06
3.64869e-06
8.91482e-06
1.33745e-07
1.33755e-07
1.33749e-07
1.32072e-07
1.32068e-07
1.32078e-07
1.32072e-07
1.15861e-06
2.7962e-06
1.58617e-07
2.33356e-07
1.13072e-06
2.81983e-06
1.58832e-07
1.84683e-05
1.846e-05
1.15865e-06
1.58615e-07
2.79632e-06
2.33393e-07
1.13077e-06
1.58841e-07
2.82006e-06
5.13141e-06
5.13328e-06
3.65307e-07
5.14374e-06
5.14577e-06
3.75855e-06
8.91932e-06
3.73233e-06
8.92373e-06
1.84376e-05
1.843e-05
3.75911e-06
8.92103e-06
3.73216e-06
8.92553e-06
1.31602e-07
1.31613e-07
1.31606e-07
1.30531e-07
1.30527e-07
1.3054e-07
1.30533e-07
1.24246e-06
2.86627e-06
1.59987e-07
2.44548e-07
1.21525e-06
2.88716e-06
1.60534e-07
1.84395e-05
1.84319e-05
1.24249e-06
1.59984e-07
2.86639e-06
2.44587e-07
1.21529e-06
1.60544e-07
2.88738e-06
5.1661e-06
5.16803e-06
3.92278e-07
5.17613e-06
5.17809e-06
3.81788e-06
8.92923e-06
3.79792e-06
8.93316e-06
1.84111e-05
1.84042e-05
3.81844e-06
8.93104e-06
3.79775e-06
8.93498e-06
1.30254e-07
1.30266e-07
1.30259e-07
1.29774e-07
1.29771e-07
1.29785e-07
1.29777e-07
1.32312e-06
2.92823e-06
1.62692e-07
2.57808e-07
1.29716e-06
2.94661e-06
1.63575e-07
1.84129e-05
1.8406e-05
1.32315e-06
1.62689e-07
2.92833e-06
2.57852e-07
1.29719e-06
1.63588e-07
2.94683e-06
5.19472e-06
5.19665e-06
4.2199e-07
5.20301e-06
5.20498e-06
3.86333e-06
8.93789e-06
3.84848e-06
8.94127e-06
1.8387e-05
1.83807e-05
3.86388e-06
8.93976e-06
3.84831e-06
8.94315e-06
1.29689e-07
1.29704e-07
1.29696e-07
1.29793e-07
1.29789e-07
1.29804e-07
1.29796e-07
1.39918e-06
2.98283e-06
1.66746e-07
2.73096e-07
1.37488e-06
2.99895e-06
1.67977e-07
1.83887e-05
1.83824e-05
1.39922e-06
1.66748e-07
2.98292e-06
2.73147e-07
1.37492e-06
1.67994e-07
2.99916e-06
5.21858e-06
5.22052e-06
4.54088e-07
5.22546e-06
5.22742e-06
3.89794e-06
8.94541e-06
3.88696e-06
8.94859e-06
1.83649e-05
1.83593e-05
3.89849e-06
8.9473e-06
3.88684e-06
8.95044e-06
1.29918e-07
1.29933e-07
1.29926e-07
1.30591e-07
1.30587e-07
1.30601e-07
1.30594e-07
1.4697e-06
3.03088e-06
1.72181e-07
2.90363e-07
1.4473e-06
3.04507e-06
1.73756e-07
1.83666e-05
1.83611e-05
1.46972e-06
1.72179e-07
3.03097e-06
2.90411e-07
1.44733e-06
1.73768e-07
3.04526e-06
5.23857e-06
5.24051e-06
4.88235e-07
5.24443e-06
5.24639e-06
3.92428e-06
8.9523e-06
3.91628e-06
8.95506e-06
1.83452e-05
1.83404e-05
3.92476e-06
8.95415e-06
3.91615e-06
8.95693e-06
1.30906e-07
1.30921e-07
1.30916e-07
1.32154e-07
1.3215e-07
1.32169e-07
1.32159e-07
1.53416e-06
3.07332e-06
1.7899e-07
3.09481e-07
1.51381e-06
3.08581e-06
1.80909e-07
1.83469e-05
1.83421e-05
1.53417e-06
1.78986e-07
3.07337e-06
3.09533e-07
1.51382e-06
1.80923e-07
3.08595e-06
5.25574e-06
5.25767e-06
5.23917e-07
5.26068e-06
5.26263e-06
3.9445e-06
8.9584e-06
3.9385e-06
8.961e-06
1.83277e-05
1.83236e-05
3.94486e-06
8.96023e-06
3.93844e-06
8.96284e-06
1.32663e-07
1.32682e-07
1.32671e-07
1.34487e-07
1.34485e-07
1.34507e-07
1.34497e-07
1.59246e-06
3.11083e-06
1.87179e-07
3.30355e-07
1.57412e-06
3.12189e-06
1.89443e-07
1.83294e-05
1.83254e-05
1.59249e-06
1.87179e-07
3.1109e-06
3.30416e-07
1.57414e-06
1.89463e-07
3.12207e-06
5.27045e-06
5.27237e-06
5.60696e-07
5.27474e-06
5.27669e-06
3.96022e-06
8.96412e-06
3.9556e-06
8.96662e-06
1.83126e-05
1.83093e-05
3.96054e-06
8.96598e-06
3.95567e-06
8.96863e-06
1.35191e-07
1.35211e-07
1.352e-07
1.37596e-07
1.37587e-07
1.37606e-07
1.37603e-07
1.64488e-06
3.14427e-06
1.9675e-07
3.52884e-07
1.62844e-06
3.15414e-06
1.99358e-07
1.83143e-05
1.83112e-05
1.64491e-06
1.96755e-07
3.14434e-06
3.52937e-07
1.62846e-06
1.99383e-07
3.1543e-06
5.28338e-06
5.2853e-06
5.98189e-07
5.28721e-06
5.28913e-06
3.97276e-06
8.96992e-06
3.96908e-06
8.97251e-06
1.82998e-05
1.82974e-05
3.97296e-06
8.97179e-06
3.96921e-06
8.97431e-06
1.38483e-07
1.38507e-07
1.38498e-07
1.41471e-07
1.41461e-07
1.41489e-07
1.41477e-07
1.69181e-06
3.1743e-06
2.07682e-07
3.76902e-07
1.67711e-06
3.18316e-06
2.10619e-07
1.83014e-05
1.82991e-05
1.69182e-06
2.07681e-07
3.17433e-06
3.76976e-07
1.67714e-06
2.10639e-07
3.18328e-06
5.29496e-06
5.29687e-06
6.35943e-07
5.29844e-06
5.30038e-06
3.98283e-06
8.97571e-06
3.97989e-06
8.97834e-06
1.82893e-05
1.82878e-05
3.98305e-06
8.97752e-06
3.98002e-06
8.98019e-06
1.42547e-07
1.42573e-07
1.42566e-07
1.46103e-07
1.46104e-07
1.46138e-07
1.4612e-07
1.73388e-06
3.2014e-06
2.19921e-07
4.02234e-07
1.72049e-06
3.20945e-06
2.23184e-07
1.82909e-05
1.82896e-05
1.73391e-06
2.19927e-07
3.20146e-06
4.02321e-07
1.72052e-06
2.23217e-07
3.2096e-06
5.30562e-06
5.30754e-06
6.73579e-07
5.30878e-06
5.3107e-06
3.99124e-06
8.98178e-06
3.98878e-06
8.98443e-06
1.82814e-05
1.82806e-05
3.99153e-06
8.98361e-06
3.98896e-06
8.98629e-06
1.47388e-07
1.4742e-07
1.47399e-07
1.51541e-07
1.51536e-07
1.51554e-07
1.51562e-07
1.77168e-06
3.22605e-06
2.33473e-07
4.28789e-07
1.75943e-06
3.23341e-06
2.37057e-07
1.82831e-05
1.82822e-05
1.77171e-06
2.33489e-07
3.22614e-06
4.2886e-07
1.75945e-06
2.37097e-07
3.23354e-06
5.31553e-06
5.31747e-06
7.10775e-07
5.31837e-06
5.32033e-06
3.99855e-06
8.98788e-06
3.99636e-06
8.99098e-06
1.82754e-05
1.82757e-05
3.99876e-06
8.98983e-06
3.99653e-06
8.99301e-06
1.53015e-07
1.5305e-07
1.53047e-07
1.57745e-07
1.57729e-07
1.57755e-07
1.57749e-07
1.80571e-06
3.24885e-06
2.48258e-07
4.56372e-07
1.79449e-06
3.25566e-06
2.52137e-07
1.82772e-05
1.82777e-05
1.80578e-06
2.48296e-07
3.2489e-06