/*--------------------------------*- C++ -*----------------------------------*\
| =========                 |                                                 |
| \\      /  F ield         | OpenFOAM: The Open Source CFD Toolbox           |
|  \\    /   O peration     | Version:  v2012                                 |
|   \\  /    A nd           | Website:  www.openfoam.com                      |
|    \\/     M anipulation  |                                                 |
\*---------------------------------------------------------------------------*/
FoamFile
{
    version     2.0;
    format      ascii;
    class       volScalarField;
    location    "625";
    object      k;
}
// * * * * * * * * * * * * * * * * * * * * * * * * * * * * * * * * * * * * * //

dimensions      [0 2 -2 0 0 0 0];


internalField   nonuniform List<scalar> 
85864
(
3.58932e-05
3.58912e-05
3.58912e-05
3.59957e-05
3.39296e-05
3.3889e-05
3.3889e-05
3.39622e-05
3.21578e-05
3.20081e-05
3.20081e-05
3.19522e-05
3.05346e-05
3.02293e-05
3.02292e-05
2.99884e-05
2.90329e-05
2.8554e-05
2.85539e-05
2.81226e-05
2.76353e-05
2.69872e-05
2.69871e-05
2.63907e-05
2.63308e-05
2.5531e-05
2.55309e-05
2.48073e-05
2.51112e-05
2.4185e-05
2.41848e-05
2.33782e-05
2.39709e-05
2.29506e-05
2.29504e-05
2.21047e-05
2.29058e-05
2.18269e-05
2.18267e-05
2.0986e-05
2.1912e-05
2.08114e-05
2.08112e-05
2.00133e-05
2.09865e-05
1.99013e-05
1.99011e-05
1.91814e-05
2.01241e-05
1.90947e-05
1.90946e-05
1.84895e-05
1.93239e-05
1.83884e-05
1.83884e-05
1.79329e-05
1.85847e-05
1.77793e-05
1.77792e-05
1.75062e-05
1.79042e-05
1.72656e-05
1.72656e-05
1.72e-05
1.72799e-05
1.68466e-05
1.68466e-05
1.70227e-05
1.67097e-05
1.65212e-05
1.65214e-05
1.69822e-05
1.61923e-05
1.62894e-05
1.62897e-05
1.70788e-05
1.57254e-05
1.61517e-05
1.6152e-05
1.7304e-05
1.53073e-05
1.61072e-05
1.61076e-05
1.76567e-05
1.49374e-05
1.61533e-05
1.61539e-05
1.81339e-05
1.46145e-05
1.62918e-05
1.62925e-05
1.87289e-05
1.43381e-05
1.65199e-05
1.65207e-05
1.94285e-05
1.4108e-05
1.68355e-05
1.68366e-05
2.02212e-05
1.39229e-05
1.72339e-05
1.72353e-05
2.1093e-05
1.37843e-05
1.77144e-05
1.77163e-05
2.2034e-05
1.36905e-05
1.82728e-05
1.82732e-05
2.30317e-05
1.36419e-05
1.89006e-05
1.89025e-05
2.40633e-05
1.36387e-05
1.95974e-05
1.96e-05
2.51252e-05
1.36823e-05
2.0356e-05
2.03549e-05
2.6204e-05
1.37713e-05
2.11727e-05
2.1176e-05
2.72863e-05
1.39069e-05
2.20321e-05
2.204e-05
2.83618e-05
1.40877e-05
2.29435e-05
2.29399e-05
2.94327e-05
1.43171e-05
2.38935e-05
2.38936e-05
3.05017e-05
1.45876e-05
2.48429e-05
2.48543e-05
3.15123e-05
1.49032e-05
2.58509e-05
2.58333e-05
3.25127e-05
1.52465e-05
2.68252e-05
2.68521e-05
3.35068e-05
1.5693e-05
2.79053e-05
2.79e-05
3.45017e-05
1.62072e-05
2.89685e-05
2.90029e-05
3.55335e-05
1.6606e-05
2.99458e-05
2.99144e-05
3.62903e-05
1.71639e-05
3.10099e-05
3.096e-05
3.72227e-05
1.77834e-05
3.19476e-05
3.21146e-05
3.83016e-05
1.83506e-05
3.29039e-05
3.29895e-05
3.88016e-05
1.85762e-05
3.36256e-05
3.30119e-05
3.84242e-05
1.84426e-05
3.30137e-05
3.28724e-05
3.90991e-05
2.10151e-05
3.477e-05
3.75999e-05
4.32738e-05
3.63068e-05
3.6291e-05
3.6291e-05
3.63068e-05
3.6291e-05
3.6291e-05
3.6423e-05
3.6423e-05
3.6423e-05
3.6423e-05
3.6291e-05
3.6291e-05
3.63068e-05
3.6291e-05
3.6291e-05
3.63068e-05
3.59957e-05
3.42687e-05
3.58912e-05
3.58912e-05
3.43767e-05
3.43766e-05
3.59957e-05
3.42687e-05
3.58911e-05
3.58912e-05
3.43767e-05
3.43766e-05
3.58912e-05
3.43767e-05
3.43767e-05
3.59957e-05
3.42687e-05
3.58912e-05
3.43767e-05
3.43767e-05
3.42687e-05
3.39623e-05
3.22635e-05
3.38889e-05
3.38889e-05
3.24684e-05
3.24683e-05
3.39623e-05
3.22635e-05
3.38889e-05
3.38889e-05
3.24684e-05
3.24683e-05
3.38889e-05
3.24685e-05
3.24684e-05
3.39623e-05
3.22634e-05
3.38889e-05
3.24685e-05
3.24684e-05
3.22634e-05
3.19522e-05
3.02993e-05
3.20079e-05
3.20078e-05
3.06643e-05
3.06642e-05
3.19522e-05
3.02994e-05
3.2008e-05
3.20078e-05
3.06644e-05
3.06641e-05
3.20079e-05
3.06646e-05
3.06643e-05
3.19522e-05
3.02992e-05
3.2008e-05
3.06645e-05
3.06644e-05
3.02992e-05
2.99885e-05
2.84253e-05
3.0229e-05
3.02288e-05
2.89624e-05
2.89622e-05
2.99886e-05
2.84255e-05
3.02291e-05
3.02287e-05
2.89626e-05
2.89621e-05
3.02289e-05
2.89628e-05
2.89623e-05
2.99884e-05
2.84252e-05
3.02291e-05
2.89627e-05
2.89626e-05
2.84252e-05
2.81227e-05
2.6674e-05
2.85536e-05
2.85534e-05
2.7368e-05
2.73678e-05
2.81228e-05
2.66741e-05
2.85538e-05
2.85533e-05
2.73683e-05
2.73676e-05
2.85535e-05
2.73685e-05
2.73679e-05
2.81226e-05
2.66739e-05
2.85538e-05
2.73684e-05
2.73683e-05
2.66738e-05
2.63908e-05
2.50663e-05
2.69866e-05
2.69864e-05
2.58841e-05
2.58838e-05
2.6391e-05
2.50665e-05
2.6987e-05
2.69862e-05
2.58845e-05
2.58836e-05
2.69865e-05
2.58848e-05
2.5884e-05
2.63907e-05
2.50661e-05
2.69869e-05
2.58846e-05
2.58844e-05
2.50661e-05
2.48075e-05
2.36125e-05
2.55304e-05
2.55301e-05
2.45102e-05
2.45099e-05
2.48077e-05
2.36127e-05
2.55308e-05
2.55299e-05
2.45107e-05
2.45097e-05
2.55302e-05
2.4511e-05
2.45102e-05
2.48073e-05
2.36123e-05
2.55307e-05
2.45108e-05
2.45107e-05
2.36123e-05
2.33784e-05
2.23125e-05
2.41842e-05
2.41838e-05
2.32478e-05
2.32475e-05
2.33785e-05
2.23126e-05
2.41847e-05
2.41836e-05
2.32484e-05
2.32473e-05
2.41841e-05
2.32487e-05
2.32478e-05
2.33782e-05
2.23122e-05
2.41846e-05
2.32485e-05
2.32484e-05
2.23122e-05
2.21049e-05
2.11681e-05
2.29497e-05
2.29494e-05
2.20965e-05
2.20962e-05
2.21051e-05
2.11683e-05
2.29503e-05
2.29491e-05
2.20972e-05
2.2096e-05
2.29496e-05
2.20975e-05
2.20965e-05
2.21047e-05
2.11678e-05
2.29503e-05
2.20973e-05
2.20972e-05
2.11678e-05
2.09863e-05
2.01707e-05
2.18259e-05
2.18255e-05
2.10542e-05
2.10538e-05
2.09865e-05
2.01709e-05
2.18266e-05
2.18253e-05
2.10549e-05
2.10536e-05
2.18258e-05
2.10552e-05
2.10541e-05
2.09861e-05
2.01705e-05
2.18265e-05
2.1055e-05
2.10549e-05
2.01704e-05
2.00137e-05
1.93146e-05
2.08103e-05
2.081e-05
2.0118e-05
2.01176e-05
2.00138e-05
1.93148e-05
2.08111e-05
2.08097e-05
2.01188e-05
2.01174e-05
2.08102e-05
2.01191e-05
2.01179e-05
2.00134e-05
1.93144e-05
2.08111e-05
2.01189e-05
2.01188e-05
1.93143e-05
1.91817e-05
1.85904e-05
1.99002e-05
1.98999e-05
1.92855e-05
1.92852e-05
1.91818e-05
1.85906e-05
1.9901e-05
1.98997e-05
1.92863e-05
1.9285e-05
1.99001e-05
1.92866e-05
1.92855e-05
1.91814e-05
1.85902e-05
1.9901e-05
1.92865e-05
1.92864e-05
1.859e-05
1.84898e-05
1.79977e-05
1.90936e-05
1.90933e-05
1.85545e-05
1.85542e-05
1.84899e-05
1.79979e-05
1.90945e-05
1.90931e-05
1.85553e-05
1.8554e-05
1.90936e-05
1.85555e-05
1.85544e-05
1.84895e-05
1.79976e-05
1.90945e-05
1.85554e-05
1.85553e-05
1.79974e-05
1.79332e-05
1.75392e-05
1.83874e-05
1.83871e-05
1.79214e-05
1.79211e-05
1.79333e-05
1.75393e-05
1.83883e-05
1.8387e-05
1.79221e-05
1.79209e-05
1.83874e-05
1.79223e-05
1.79213e-05
1.79331e-05
1.75391e-05
1.83883e-05
1.79222e-05
1.79222e-05
1.75389e-05
1.75064e-05
1.72176e-05
1.77783e-05
1.77781e-05
1.73838e-05
1.73836e-05
1.75065e-05
1.72176e-05
1.77791e-05
1.77779e-05
1.73845e-05
1.73834e-05
1.77783e-05
1.73846e-05
1.73837e-05
1.75063e-05
1.72175e-05
1.77792e-05
1.73846e-05
1.73846e-05
1.72173e-05
1.72003e-05
1.70263e-05
1.72648e-05
1.72646e-05
1.69411e-05
1.6941e-05
1.72003e-05
1.7026e-05
1.72656e-05
1.72645e-05
1.69418e-05
1.69409e-05
1.72647e-05
1.69418e-05
1.69411e-05
1.72002e-05
1.70262e-05
1.72656e-05
1.69419e-05
1.69418e-05
1.7026e-05
1.7023e-05
1.69729e-05
1.68459e-05
1.68457e-05
1.65922e-05
1.6592e-05
1.70228e-05
1.69726e-05
1.68466e-05
1.68457e-05
1.65928e-05
1.65921e-05
1.68458e-05
1.65927e-05
1.65922e-05
1.70228e-05
1.69729e-05
1.68466e-05
1.65928e-05
1.65929e-05
1.69728e-05
1.69823e-05
1.70435e-05
1.65207e-05
1.65206e-05
1.63369e-05
1.63368e-05
1.6982e-05
1.70433e-05
1.65214e-05
1.65206e-05
1.63375e-05
1.6337e-05
1.65207e-05
1.63373e-05
1.63368e-05
1.69823e-05
1.70438e-05
1.65214e-05
1.63375e-05
1.63375e-05
1.70434e-05
1.70788e-05
1.72436e-05
1.62891e-05
1.6289e-05
1.61754e-05
1.61753e-05
1.70787e-05
1.7243e-05
1.62897e-05
1.62892e-05
1.61759e-05
1.61754e-05
1.62891e-05
1.61754e-05
1.61753e-05
1.70791e-05
1.72435e-05
1.62897e-05
1.61757e-05
1.61759e-05
1.72437e-05
1.7304e-05
1.75717e-05
1.61516e-05
1.61515e-05
1.6107e-05
1.61072e-05
1.73033e-05
1.75715e-05
1.61521e-05
1.61517e-05
1.61075e-05
1.61074e-05
1.61515e-05
1.61071e-05
1.61071e-05
1.73038e-05
1.75723e-05
1.61521e-05
1.61075e-05
1.61077e-05
1.75721e-05
1.76563e-05
1.80251e-05
1.61071e-05
1.61074e-05
1.61327e-05
1.61331e-05
1.76561e-05
1.80247e-05
1.61076e-05
1.61076e-05
1.61332e-05
1.61333e-05
1.61072e-05
1.61328e-05
1.61329e-05
1.76568e-05
1.80255e-05
1.61078e-05
1.61331e-05
1.61334e-05
1.80254e-05
1.81336e-05
1.85972e-05
1.61534e-05
1.61538e-05
1.62489e-05
1.62493e-05
1.81331e-05
1.85963e-05
1.6154e-05
1.61541e-05
1.62494e-05
1.62496e-05
1.61535e-05
1.62486e-05
1.62491e-05
1.81337e-05
1.85977e-05
1.6154e-05
1.62492e-05
1.62496e-05
1.85977e-05
1.87284e-05
1.9276e-05
1.62921e-05
1.62925e-05
1.64552e-05
1.64561e-05
1.87274e-05
1.92758e-05
1.62926e-05
1.62929e-05
1.64555e-05
1.64563e-05
1.62923e-05
1.6455e-05
1.64556e-05
1.87287e-05
1.92772e-05
1.62927e-05
1.64557e-05
1.6456e-05
1.92767e-05
1.94277e-05
2.00499e-05
1.65203e-05
1.6521e-05
1.67493e-05
1.67499e-05
1.94275e-05
2.0049e-05
1.65207e-05
1.65213e-05
1.67495e-05
1.67508e-05
1.65208e-05
1.67486e-05
1.67495e-05
1.94286e-05
2.0051e-05
1.65212e-05
1.67495e-05
1.67498e-05
2.00504e-05
2.02207e-05
2.09056e-05
1.68363e-05
1.68366e-05
1.71278e-05
1.71288e-05
2.02199e-05
2.0905e-05
1.68366e-05
1.68377e-05
1.7128e-05
1.71292e-05
1.68366e-05
1.7127e-05
1.71285e-05
2.02218e-05
2.09069e-05
1.6837e-05
1.71281e-05
1.71287e-05
2.09069e-05
2.10919e-05
2.18308e-05
1.72345e-05
1.72357e-05
1.75881e-05
1.7588e-05
2.10915e-05
2.18294e-05
1.72349e-05
1.72362e-05
1.75878e-05
1.75893e-05
1.72354e-05
1.75861e-05
1.75883e-05
2.10931e-05
2.18319e-05
1.72356e-05
1.75879e-05
1.75884e-05
2.1832e-05
2.20329e-05
2.2817e-05
1.77162e-05
1.77161e-05
1.81283e-05
1.81286e-05
2.20313e-05
2.28166e-05
1.7716e-05
1.77177e-05
1.81277e-05
1.81298e-05
1.77165e-05
1.81265e-05
1.81287e-05
2.20339e-05
2.28186e-05
1.77169e-05
1.81275e-05
1.81286e-05
2.28193e-05
2.30297e-05
2.38421e-05
1.82742e-05
1.82751e-05
1.87401e-05
1.87396e-05
2.30294e-05
2.38391e-05
1.82737e-05
1.82755e-05
1.87387e-05
1.87407e-05
1.8275e-05
1.8737e-05
1.87396e-05
2.30311e-05
2.38417e-05
1.82748e-05
1.8739e-05
1.87389e-05
2.38423e-05
2.40634e-05
2.48938e-05
1.89032e-05
1.89033e-05
1.94181e-05
1.94194e-05
2.40602e-05
2.48947e-05
1.89019e-05
1.89041e-05
1.94177e-05
1.94223e-05
1.89028e-05
1.94167e-05
1.94202e-05
2.40632e-05
2.48982e-05
1.89023e-05
1.94199e-05
1.94189e-05
2.48975e-05
2.51214e-05
2.59692e-05
1.95971e-05
1.95999e-05
2.01645e-05
2.01645e-05
2.51226e-05
2.59688e-05
1.95972e-05
1.96025e-05
2.01632e-05
2.01637e-05
1.95999e-05
2.0162e-05
2.01648e-05
2.51259e-05
2.59686e-05
1.95987e-05
2.01613e-05
2.01642e-05
2.59712e-05
2.62025e-05
2.70504e-05
2.036e-05
2.03585e-05
2.09659e-05
2.09669e-05
2.62008e-05
2.70482e-05
2.03584e-05
2.03565e-05
2.09635e-05
2.09708e-05
2.03594e-05
2.09649e-05
2.09666e-05
2.62e-05
2.70524e-05
2.03596e-05
2.09685e-05
2.0965e-05
2.7051e-05
2.72856e-05
2.81277e-05
2.11749e-05
2.11756e-05
2.18204e-05
2.18177e-05
2.72841e-05
2.81234e-05
2.11726e-05
2.11792e-05
2.18184e-05
2.1819e-05
2.11756e-05
2.18123e-05
2.18208e-05
2.72886e-05
2.81268e-05
2.11726e-05
2.18155e-05
2.1819e-05
2.81288e-05
2.83609e-05
2.91906e-05
2.20376e-05
2.20362e-05
2.27076e-05
2.27148e-05
2.83577e-05
2.91952e-05
2.20361e-05
2.20428e-05
2.27068e-05
2.27102e-05
2.20385e-05
2.27122e-05
2.27116e-05
2.83601e-05
2.91999e-05
2.20377e-05
2.27083e-05
2.27101e-05
2.91973e-05
2.94265e-05
3.02715e-05
2.29452e-05
2.29462e-05
2.36597e-05
2.36566e-05
2.94325e-05
3.02609e-05
2.29442e-05
2.29423e-05
2.36556e-05
2.36591e-05
2.29488e-05
2.3652e-05
2.36582e-05
2.94329e-05
3.02652e-05
2.29472e-05
2.36609e-05
2.36566e-05
3.02708e-05
3.05026e-05
3.12852e-05
2.38965e-05
2.39e-05
2.46183e-05
2.4599e-05
3.04921e-05
3.1279e-05
2.38911e-05
2.38916e-05
2.46173e-05
2.46205e-05
2.38922e-05
2.45967e-05
2.46172e-05
3.05e-05
3.12859e-05
2.38902e-05
2.46122e-05
2.46133e-05
3.12852e-05
3.15119e-05
3.22885e-05
2.48534e-05
2.48419e-05
2.559e-05
2.55982e-05
3.15023e-05
3.23001e-05
2.48533e-05
2.48629e-05
2.55892e-05
2.5593e-05
2.48566e-05
2.56002e-05
2.55921e-05
3.15104e-05
3.22919e-05
2.48523e-05
2.55853e-05
2.55868e-05
3.22916e-05
3.25139e-05
3.32734e-05
2.5851e-05
2.58504e-05
2.65788e-05
2.65792e-05
3.25259e-05
3.32676e-05
2.58502e-05
2.58439e-05
2.65747e-05
2.65877e-05
2.58434e-05
2.65771e-05
2.65918e-05
3.25123e-05
3.32829e-05
2.58376e-05
2.65884e-05
2.65916e-05
3.3286e-05
3.34857e-05
3.42741e-05
2.6821e-05
2.68268e-05
2.76355e-05
2.76569e-05
3.34849e-05
3.42916e-05
2.68166e-05
2.68466e-05
2.76268e-05
2.7648e-05
2.68433e-05
2.76361e-05
2.76266e-05
3.35112e-05
3.42895e-05
2.68493e-05
2.76549e-05
2.76275e-05
3.42719e-05
3.45154e-05
3.53276e-05
2.79157e-05
2.79247e-05
2.87567e-05
2.87082e-05
3.4524e-05
3.5272e-05
2.79065e-05
2.78935e-05
2.87568e-05
2.8717e-05
2.78917e-05
2.87118e-05
2.8764e-05
3.45072e-05
3.52759e-05
2.78898e-05
2.87193e-05
2.87594e-05
3.53189e-05
3.55378e-05
3.61172e-05
2.90389e-05
2.89592e-05
2.96772e-05
2.97248e-05
3.54769e-05
3.61481e-05
2.90418e-05
2.90134e-05
2.96769e-05
2.9705e-05
2.90354e-05
2.9725e-05
2.96884e-05
3.54955e-05
3.61477e-05
2.90294e-05
2.96878e-05
2.96813e-05
3.61221e-05
3.62803e-05
3.69843e-05
2.98633e-05
2.99361e-05
3.06834e-05
3.06968e-05
3.63399e-05
3.70191e-05
2.98635e-05
2.99212e-05
3.06856e-05
3.06797e-05
2.98927e-05
3.07007e-05
3.06783e-05
3.63245e-05
3.69765e-05
2.98938e-05
3.06759e-05
3.06586e-05
3.69822e-05
3.72292e-05
3.80305e-05
3.09887e-05
3.10231e-05
3.18236e-05
3.17698e-05
3.72434e-05
3.79196e-05
3.09752e-05
3.09602e-05
3.1778e-05
3.1776e-05
3.09608e-05
3.17372e-05
3.18574e-05
3.71978e-05
3.80439e-05
3.09524e-05
3.18114e-05
3.18576e-05
3.80928e-05
3.82221e-05
3.87128e-05
3.20979e-05
3.19567e-05
3.27544e-05
3.2631e-05
3.80798e-05
3.86207e-05
3.20752e-05
3.20714e-05
3.28174e-05
3.28952e-05
3.21667e-05
3.26876e-05
3.28448e-05
3.82667e-05
3.87662e-05
3.2161e-05
3.28904e-05
3.29065e-05
3.87344e-05
3.88182e-05
3.87927e-05
3.28876e-05
3.28792e-05
3.323e-05
3.36041e-05
3.87991e-05
3.92215e-05
3.29476e-05
3.29944e-05
3.32527e-05
3.31552e-05
3.29676e-05
3.3549e-05
3.29617e-05
3.88436e-05
3.86101e-05
3.29891e-05
3.30525e-05
3.28897e-05
3.84283e-05
3.87999e-05
3.82595e-05
3.32223e-05
3.37327e-05
3.30078e-05
3.34603e-05
3.92864e-05
3.84685e-05
3.32373e-05
3.31293e-05
3.29373e-05
3.28195e-05
3.29067e-05
3.33092e-05
3.30865e-05
3.86108e-05
3.81363e-05
3.27925e-05
3.27926e-05
3.2927e-05
3.86545e-05
3.83252e-05
4.16912e-05
3.30314e-05
3.30831e-05
3.55601e-05
3.31202e-05
3.83539e-05
3.88769e-05
3.29486e-05
3.28477e-05
3.55751e-05
3.58334e-05
3.35998e-05
3.32926e-05
3.62909e-05
3.82213e-05
4.21562e-05
3.34796e-05
3.61521e-05
3.65993e-05
4.24915e-05
4.27589e-05
4.70533e-05
3.7003e-05
3.4257e-05
4.07934e-05
4.07712e-05
4.00999e-05
4.70788e-05
3.71146e-05
3.73926e-05
4.09413e-05
4.10054e-05
3.73135e-05
4.07277e-05
3.97871e-05
4.32099e-05
4.71301e-05
3.76787e-05
4.08696e-05
4.00565e-05
4.57012e-05
3.73773e-05
3.73765e-05
3.7377e-05
3.7377e-05
3.73701e-05
3.73777e-05
3.73043e-05
3.73768e-05
3.73702e-05
3.73777e-05
3.73768e-05
3.73043e-05
3.73741e-05
3.72959e-05
3.72959e-05
3.58798e-05
4.08721e-05
3.66033e-05
4.51467e-05
5.51147e-05
6.48951e-05
3.58803e-05
4.08712e-05
3.66034e-05
4.51465e-05
3.58932e-05
3.58933e-05
3.58932e-05
3.44005e-05
3.44005e-05
3.44005e-05
3.44005e-05
3.52758e-05
3.56384e-05
3.58929e-05
3.53771e-05
3.60475e-05
3.42365e-05
3.53822e-05
5.51168e-05
6.48994e-05
3.52758e-05
3.58929e-05
3.5638e-05
3.53771e-05
3.60475e-05
3.53822e-05
3.42375e-05
3.65971e-05
3.65977e-05
3.5279e-05
3.40642e-05
3.40633e-05
3.39657e-05
5.13534e-05
3.46793e-05
5.46248e-05
7.65447e-05
8.08614e-05
3.39682e-05
5.13544e-05
3.46789e-05
5.46254e-05
3.39296e-05
3.39297e-05
3.39297e-05
3.25855e-05
3.25854e-05
3.25855e-05
3.25855e-05
3.30541e-05
3.2475e-05
3.39295e-05
3.34087e-05
3.38961e-05
3.15755e-05
3.34678e-05
7.65458e-05
8.08655e-05
3.30541e-05
3.39295e-05
3.24739e-05
3.34087e-05
3.38958e-05
3.34678e-05
3.15773e-05
3.17169e-05
3.17162e-05
3.32638e-05
3.09255e-05
3.09239e-05
3.22498e-05
5.91694e-05
3.29238e-05
6.14406e-05
8.43919e-05
8.50677e-05
3.2252e-05
5.91712e-05
3.29217e-05
6.14427e-05
3.21578e-05
3.21578e-05
3.21578e-05
3.09282e-05
3.09282e-05
3.09281e-05
3.09282e-05
3.07893e-05
3.05137e-05
3.21376e-05
3.15541e-05
3.16368e-05
2.98864e-05
3.17101e-05
8.43937e-05
8.50702e-05
3.07892e-05
3.21376e-05
3.05135e-05
3.1554e-05
3.16363e-05
3.17101e-05
2.98874e-05
3.02179e-05
3.02169e-05
3.12731e-05
3.00048e-05
3.00034e-05
3.0753e-05
6.43513e-05
3.13503e-05
6.57273e-05
8.46111e-05
8.39116e-05
3.07539e-05
6.43529e-05
3.13504e-05
6.57306e-05
3.05346e-05
3.05346e-05
3.05346e-05
2.9398e-05
2.9398e-05
2.93979e-05
2.9398e-05
2.86006e-05
2.91415e-05
3.04694e-05
2.98005e-05
2.9413e-05
2.86746e-05
3.00687e-05
8.4611e-05
8.39146e-05
2.86005e-05
3.04694e-05
2.91421e-05
2.98004e-05
2.94126e-05
3.00687e-05
2.86756e-05
2.99417e-05
2.99406e-05
2.93483e-05
3.00363e-05
3.00353e-05
2.95178e-05
6.73197e-05
3.00007e-05
6.8035e-05
8.22129e-05
8.12213e-05
2.95188e-05
6.73219e-05
3.0001e-05
6.8038e-05
2.90329e-05
2.90328e-05
2.90328e-05
2.79756e-05
2.79756e-05
2.79756e-05
2.79756e-05
2.65676e-05
2.8123e-05
2.89027e-05
2.8152e-05
2.73171e-05
2.77811e-05
2.85257e-05
8.22116e-05
8.12238e-05
2.65676e-05
2.89027e-05
2.81235e-05
2.81519e-05
2.73166e-05
2.85256e-05
2.77821e-05
3.04408e-05
3.04407e-05
2.7533e-05
3.07834e-05
3.07825e-05
2.86038e-05
6.87423e-05
2.89474e-05
6.90378e-05
7.94344e-05
7.85339e-05
2.86048e-05
6.87457e-05
2.89476e-05
6.90408e-05
2.76353e-05
2.76353e-05
2.76353e-05
2.66486e-05
2.66487e-05
2.66486e-05
2.66486e-05
2.47435e-05
2.74061e-05
2.74287e-05
2.66128e-05
2.54141e-05
2.71909e-05
2.70743e-05
7.94325e-05
7.85363e-05
2.47437e-05
2.74286e-05
2.74065e-05
2.66126e-05
2.54135e-05
2.70741e-05
2.71919e-05
3.15603e-05
3.15605e-05
2.58511e-05
3.21319e-05
3.21313e-05
2.80582e-05
6.92517e-05
2.82445e-05
6.93116e-05
7.70046e-05
7.62888e-05
2.8059e-05
6.9255e-05
2.82446e-05
6.9315e-05
2.63308e-05
2.63307e-05
2.63307e-05
2.54084e-05
2.54084e-05
2.54083e-05
2.54084e-05
2.31635e-05
2.70012e-05
2.60445e-05
2.51841e-05
2.37463e-05
2.6921e-05
2.57123e-05
7.70028e-05
7.62905e-05
2.31638e-05
2.60444e-05
2.70017e-05
2.51839e-05
2.37457e-05
2.57121e-05
2.69217e-05
3.31897e-05
3.319e-05
2.432e-05
3.39213e-05
3.39226e-05
2.79138e-05
6.92998e-05
2.79275e-05
6.92722e-05
7.50726e-05
7.45362e-05
2.79141e-05
6.93034e-05
2.79276e-05
6.92758e-05
2.51112e-05
2.51111e-05
2.51111e-05
2.42488e-05
2.42488e-05
2.42486e-05
2.42487e-05
2.18465e-05
2.69346e-05
2.47489e-05
2.38659e-05
2.2337e-05
2.6982e-05
2.44388e-05
7.50714e-05
7.4537e-05
2.18468e-05
2.47488e-05
2.69346e-05
2.38657e-05
2.23365e-05
2.44386e-05
2.69828e-05
3.51889e-05
3.51905e-05
2.29424e-05
3.60293e-05
3.60326e-05
2.81583e-05
6.91977e-05
2.8032e-05
6.91652e-05
7.36076e-05
7.32125e-05
2.81586e-05
6.92012e-05
2.80314e-05
6.91691e-05
2.3971e-05
2.39708e-05
2.39709e-05
2.31652e-05
2.31652e-05
2.3165e-05
2.31651e-05
2.08003e-05
2.72003e-05
2.3541e-05
2.26594e-05
2.11953e-05
2.7355e-05
2.32523e-05
7.36079e-05
7.32127e-05
2.08006e-05
2.35409e-05
2.72004e-05
2.26592e-05
2.11947e-05
2.3252e-05
2.7356e-05
3.74352e-05
3.74384e-05
2.1721e-05
3.83457e-05
3.83502e-05
2.88214e-05
6.91152e-05
2.85548e-05
6.91033e-05
7.25282e-05
7.22428e-05
2.88254e-05
6.91186e-05
2.85543e-05
6.91077e-05
2.29058e-05
2.29056e-05
2.29057e-05
2.21538e-05
2.21538e-05
2.21536e-05
2.21537e-05
2.00274e-05
2.77802e-05
2.24171e-05
2.15629e-05
2.03182e-05
2.80345e-05
2.21492e-05
7.25286e-05
7.22433e-05
2.00275e-05
2.2417e-05
2.77805e-05
2.15627e-05
2.03181e-05
2.2149e-05
2.80357e-05
3.98192e-05
3.98236e-05
2.06511e-05
4.07588e-05
4.07655e-05
2.99295e-05
6.91015e-05
2.94785e-05
6.91157e-05
7.17509e-05
7.15497e-05
2.99378e-05
6.91056e-05
2.94712e-05
6.91208e-05
2.1912e-05
2.19118e-05
2.19119e-05
2.12114e-05
2.12115e-05
2.12112e-05
2.12114e-05
1.95212e-05
2.86495e-05
2.1377e-05
2.05741e-05
1.97027e-05
2.89934e-05
2.113e-05
7.17513e-05
7.15502e-05
1.95212e-05
2.13768e-05
2.86501e-05
2.05739e-05
1.97026e-05
2.11298e-05
2.89946e-05
4.2242e-05
4.22479e-05
1.97251e-05
4.31793e-05
4.31878e-05
3.1443e-05
6.9151e-05
3.08032e-05
6.91881e-05
7.12023e-05
7.10631e-05
3.14483e-05
6.91562e-05
3.08038e-05
6.91932e-05
2.09865e-05
2.09863e-05
2.09864e-05
2.03339e-05
2.0334e-05
2.03337e-05
2.03339e-05
1.92794e-05
2.97741e-05
2.042e-05
1.96899e-05
1.93513e-05
3.01942e-05
2.01934e-05
7.12027e-05
7.10636e-05
1.92796e-05
2.04199e-05
2.97747e-05
1.96897e-05
1.93513e-05
2.01931e-05
3.01958e-05
4.46201e-05
4.46275e-05
1.89357e-05
4.55216e-05
4.55316e-05
3.33278e-05
6.92458e-05
3.25281e-05
6.92926e-05
7.08195e-05
7.07233e-05
3.33255e-05
6.92512e-05
3.25329e-05
6.92977e-05
2.01241e-05
2.01239e-05
2.0124e-05
1.9518e-05
1.9518e-05
1.95177e-05
1.95179e-05
1.92975e-05
3.11127e-05
1.95433e-05
1.89087e-05
1.92658e-05
3.15947e-05
1.93363e-05
7.08199e-05
7.07238e-05
1.92978e-05
1.95432e-05
3.11136e-05
1.89085e-05
1.92659e-05
1.93362e-05
3.15963e-05
4.68771e-05
4.68856e-05
1.82772e-05
4.77295e-05
4.77409e-05
3.55308e-05
6.9357e-05
3.46089e-05
6.94043e-05
7.05507e-05
7.04832e-05
3.55292e-05
6.93626e-05
3.46084e-05
6.94099e-05
1.93239e-05
1.93237e-05
1.93238e-05
1.87638e-05
1.87638e-05
1.87636e-05
1.87637e-05
1.95665e-05
3.26189e-05
1.87441e-05
1.8227e-05
1.9449e-05
3.31457e-05
1.8556e-05
7.0551e-05
7.04836e-05
1.95667e-05
1.8744e-05
3.262e-05
1.82269e-05
1.94494e-05
1.85558e-05
3.31473e-05
4.89693e-05
4.8979e-05
1.77512e-05
4.97536e-05
4.97656e-05
3.79593e-05
6.94663e-05
3.69672e-05
6.95101e-05
7.03562e-05
7.03066e-05
3.79623e-05
6.94718e-05
3.69682e-05
6.95159e-05
1.85848e-05
1.85845e-05
1.85847e-05
1.80687e-05
1.80688e-05
1.80685e-05
1.80687e-05
2.00909e-05
3.42412e-05
1.80197e-05
1.76416e-05
1.98896e-05
3.47948e-05
1.78499e-05
7.03566e-05
7.0307e-05
2.00913e-05
1.80196e-05
3.42424e-05
1.76415e-05
1.98899e-05
1.78498e-05
3.47966e-05
5.08616e-05
5.08717e-05
1.73616e-05
5.15713e-05
5.15842e-05
4.055e-05
6.95664e-05
3.94913e-05
6.96065e-05
7.02072e-05
7.01682e-05
4.05467e-05
6.95723e-05
3.94935e-05
6.96119e-05
1.79042e-05
1.7904e-05
1.79041e-05
1.74305e-05
1.74305e-05
1.74303e-05
1.74305e-05
2.08646e-05
3.59272e-05
1.73678e-05
1.71514e-05
2.0581e-05
3.64913e-05
1.72159e-05
7.02075e-05
7.01685e-05
2.08651e-05
1.73678e-05
3.59282e-05
1.71514e-05
2.05814e-05
1.72158e-05
3.64931e-05
5.2545e-05
5.25562e-05
1.71053e-05
5.31764e-05
5.31891e-05
4.31517e-05
6.96575e-05
4.21029e-05
6.96939e-05
7.00847e-05
7.00518e-05
4.31555e-05
6.96633e-05
4.21012e-05
6.96996e-05
1.72799e-05
1.72797e-05
1.72798e-05
1.6847e-05
1.6847e-05
1.68468e-05
1.68469e-05
2.18734e-05
3.76289e-05
1.67877e-05
1.67556e-05
2.15139e-05
3.81889e-05
1.66535e-05
7.0085e-05
7.00522e-05
2.18734e-05
1.67877e-05
3.763e-05
1.67557e-05
2.15144e-05
1.66534e-05
3.81904e-05
5.40224e-05
5.40337e-05
1.69823e-05
5.45791e-05
5.45914e-05
4.56709e-05
6.97415e-05
4.46637e-05
6.97756e-05
6.9978e-05
6.99485e-05
4.56721e-05
6.97471e-05
4.46667e-05
6.97814e-05
1.67097e-05
1.67096e-05
1.67097e-05
1.63165e-05
1.63165e-05
1.63164e-05
1.63165e-05
2.3096e-05
3.93047e-05
1.62771e-05
1.64533e-05
2.26689e-05
3.98482e-05
1.61598e-05
6.99782e-05
6.9949e-05
2.30969e-05
1.62771e-05
3.93058e-05
1.64535e-05
2.26691e-05
1.61598e-05
3.98501e-05
5.53109e-05
5.53227e-05
1.69916e-05
5.57982e-05
5.58108e-05
4.80248e-05
6.98205e-05
4.70815e-05
6.98531e-05
6.9881e-05
6.98542e-05
4.80253e-05
6.98261e-05
4.7083e-05
6.98587e-05
1.61923e-05
1.61922e-05
1.61923e-05
1.58372e-05
1.58372e-05
1.58371e-05
1.58372e-05
2.45012e-05
4.09208e-05
1.58344e-05
1.62446e-05
2.40176e-05
4.14386e-05
1.5734e-05
6.98812e-05
6.98544e-05
2.45012e-05
1.58344e-05
4.09218e-05
1.62449e-05
2.40183e-05
1.5734e-05
4.144e-05
5.64328e-05
5.64448e-05
1.71271e-05
5.68568e-05
5.68692e-05
5.0131e-05
6.98959e-05
4.92915e-05
6.99268e-05
6.97912e-05
6.97664e-05
5.01331e-05
6.99016e-05
4.92926e-05
6.99322e-05
1.57254e-05
1.57253e-05
1.57254e-05
1.54071e-05
1.54071e-05
1.54071e-05
1.54072e-05
2.60493e-05
4.24531e-05
1.54594e-05
1.61297e-05
2.55233e-05
4.29397e-05
1.53758e-05
6.97912e-05
6.97665e-05
2.60496e-05
1.54594e-05
4.24537e-05
1.61301e-05
2.55232e-05
1.53758e-05
4.29432e-05
5.7409e-05
5.74211e-05
1.7392e-05
5.77794e-05
5.77915e-05
5.19707e-05
6.99669e-05
5.124e-05
6.99957e-05
6.97072e-05
6.96841e-05
5.19729e-05
6.99724e-05
5.12413e-05
7.00012e-05
1.53073e-05
1.53073e-05
1.53073e-05
1.50252e-05
1.50253e-05
1.50252e-05
1.50253e-05
2.76945e-05
4.38865e-05
1.51518e-05
1.61103e-05
2.71419e-05
4.43395e-05
1.50848e-05
6.97075e-05
6.96846e-05
2.76949e-05
1.51519e-05
4.38816e-05
1.61108e-05
2.71424e-05
1.50849e-05
4.43478e-05
5.82612e-05
5.82733e-05
1.77832e-05
5.85859e-05
5.8598e-05
5.35398e-05
7.00325e-05
5.29172e-05
7.00586e-05
6.9629e-05
6.9608e-05
5.35424e-05
7.00379e-05
5.29194e-05
7.00643e-05
1.49374e-05
1.49374e-05
1.49374e-05
1.46908e-05
1.46907e-05
1.46908e-05
1.46908e-05
2.93912e-05
4.52097e-05
1.49118e-05
1.61792e-05
2.88269e-05
4.56368e-05
1.48616e-05
6.96294e-05
6.96084e-05
2.93914e-05
1.4912e-05
4.52049e-05
1.61798e-05
2.88272e-05
1.48617e-05
4.56445e-05
5.90091e-05
5.9021e-05
1.82971e-05
5.92949e-05
5.93071e-05
5.48575e-05
7.00915e-05
5.4336e-05
7.01146e-05
6.95568e-05
6.95376e-05
5.4859e-05
7.00969e-05
5.43367e-05
7.01205e-05
1.46145e-05
1.46145e-05
1.46145e-05
1.4403e-05
1.44031e-05
1.4403e-05
1.44031e-05
3.10964e-05
4.6427e-05
1.47401e-05
1.63403e-05
3.05321e-05
4.6828e-05
1.47068e-05
6.95569e-05
6.95379e-05
3.10962e-05
1.47402e-05
4.64225e-05
1.63412e-05
3.05329e-05
1.4707e-05
4.68355e-05
5.96691e-05
5.96809e-05
1.89246e-05
5.99224e-05
5.99348e-05
5.59553e-05
7.01434e-05
5.55207e-05
7.0164e-05
6.94901e-05
6.94726e-05
5.5957e-05
7.01493e-05
5.55224e-05
7.01699e-05
1.43381e-05
1.43382e-05
1.43383e-05
1.41611e-05
1.41611e-05
1.41613e-05
1.41613e-05
3.27731e-05
4.75435e-05
1.46375e-05
1.65905e-05
3.2213e-05
4.79173e-05
1.46212e-05
6.949e-05
6.94728e-05
3.27721e-05
1.46377e-05
4.75381e-05
1.65912e-05
3.22135e-05
1.46214e-05
4.79237e-05
6.02556e-05
6.02676e-05
1.96522e-05
6.04813e-05
6.04933e-05
5.68725e-05
7.01888e-05
5.65084e-05
7.02065e-05
6.94293e-05
6.94134e-05
5.68724e-05
7.0195e-05
5.65106e-05
7.02127e-05
1.41078e-05
1.41082e-05
1.41082e-05
1.3965e-05
1.3965e-05
1.39652e-05
1.39652e-05
3.43893e-05
4.85667e-05
1.46049e-05
1.69281e-05
3.38407e-05
4.8916e-05
1.46073e-05
6.94291e-05
6.94134e-05
3.43882e-05
1.46051e-05
4.85614e-05
1.69287e-05
3.38409e-05
1.46076e-05
4.8921e-05
6.07812e-05
6.07931e-05
2.047e-05
6.09846e-05
6.09965e-05
5.76387e-05
7.02281e-05
5.73305e-05
7.02448e-05
6.93737e-05
6.93597e-05
5.76404e-05
7.02344e-05
5.73334e-05
7.02508e-05
1.39229e-05
1.39232e-05
1.39233e-05
1.38144e-05
1.3814e-05
1.38143e-05
1.38143e-05
3.59192e-05
4.94996e-05
1.46397e-05
1.73465e-05
3.53903e-05
4.98268e-05
1.46597e-05
6.93735e-05
6.93597e-05
3.59194e-05
1.46402e-05
4.94957e-05
1.73476e-05
3.53915e-05
1.46603e-05
4.9832e-05
6.12501e-05
6.12618e-05
2.13599e-05
6.14336e-05
6.14458e-05
5.82945e-05
7.02642e-05
5.8032e-05
7.02787e-05
6.93242e-05
6.9312e-05
5.82975e-05
7.02703e-05
5.80345e-05
7.02848e-05
1.37837e-05
1.37843e-05
1.37846e-05
1.37098e-05
1.37092e-05
1.37096e-05
1.37099e-05
3.73564e-05
5.0358e-05
1.47448e-05
1.7848e-05
3.68494e-05
5.06669e-05
1.47825e-05
6.9324e-05
6.93119e-05
3.73561e-05
1.47456e-05
5.03548e-05
1.78491e-05
3.6851e-05
1.47831e-05
5.06706e-05
6.16808e-05
6.16929e-05
2.23203e-05
6.18485e-05
6.18602e-05
5.88585e-05
7.02961e-05
5.8632e-05
7.03097e-05
6.92799e-05
6.92697e-05
5.88594e-05
7.03021e-05
5.8632e-05
7.03157e-05
1.36906e-05
1.36909e-05
1.36909e-05
1.36494e-05
1.36493e-05
1.36504e-05
1.36497e-05
3.8691e-05
5.11465e-05
1.49191e-05
1.84236e-05
3.82105e-05
5.14374e-05
1.49735e-05
6.92798e-05
6.92698e-05
3.869e-05
1.4919e-05
5.11414e-05
1.84239e-05
3.82087e-05
1.49735e-05
5.14409e-05
6.2071e-05
6.20827e-05
2.33267e-05
6.22256e-05
6.22375e-05
5.93525e-05
7.03261e-05
5.91543e-05
7.03391e-05
6.92418e-05
6.92337e-05
5.93549e-05
7.03322e-05
5.91531e-05
7.0346e-05
1.36422e-05
1.36423e-05
1.36421e-05
1.36358e-05
1.36359e-05
1.36368e-05
1.36366e-05
3.99257e-05
5.18723e-05
1.51602e-05
1.90688e-05
3.94694e-05
5.21505e-05
1.52311e-05
6.92418e-05
6.92339e-05
3.99244e-05
1.51606e-05
5.18694e-05
1.907e-05
3.94691e-05
1.52316e-05
5.21538e-05
6.24299e-05
6.24415e-05
2.43663e-05
6.25749e-05
6.25866e-05
5.97972e-05
7.03564e-05
5.96143e-05
7.03699e-05
6.92096e-05
6.92036e-05
5.97973e-05
7.03625e-05
5.96193e-05
7.03757e-05
1.3639e-05
1.364e-05
1.36396e-05
1.3667e-05
1.36671e-05
1.36671e-05
1.36675e-05
4.10697e-05
5.2547e-05
1.54687e-05
1.97826e-05
4.06366e-05
5.28139e-05
1.55565e-05
6.92092e-05
6.92034e-05
4.10703e-05
1.54699e-05
5.25452e-05
1.9784e-05
4.06376e-05
1.55575e-05
5.28139e-05
6.27641e-05
6.27755e-05
2.54313e-05
6.28988e-05
6.29107e-05
6.01963e-05
7.03867e-05
6.00334e-05
7.04004e-05
6.91831e-05
6.91794e-05
6.01983e-05
7.03925e-05
6.00344e-05
7.04064e-05
1.3682e-05
1.36813e-05
1.36827e-05
1.37446e-05
1.3745e-05
1.37465e-05
1.37453e-05
4.21268e-05
5.31771e-05
1.58436e-05
2.0554e-05
4.17199e-05
5.34299e-05
1.59468e-05
6.91828e-05
6.91795e-05
4.21285e-05
1.58441e-05
5.31758e-05
2.05549e-05
4.17213e-05
1.59482e-05
5.34276e-05
6.30797e-05
6.30918e-05
2.65111e-05
6.32036e-05
6.32154e-05
6.0564e-05
7.04184e-05
6.0412e-05
7.04322e-05
6.91632e-05
6.91613e-05
6.05653e-05
7.04243e-05
6.04117e-05
7.04383e-05
1.37718e-05
1.37735e-05
1.37718e-05
1.38696e-05
1.38676e-05
1.38685e-05
1.38701e-05
4.31011e-05
5.37689e-05
1.6281e-05
2.1382e-05
4.27225e-05
5.40027e-05
1.63981e-05
6.91631e-05
6.91609e-05
4.31041e-05
1.62815e-05
5.37718e-05
2.13829e-05
4.27176e-05
1.63986e-05
5.40023e-05
6.33783e-05
6.33898e-05
2.75934e-05
6.34952e-05
6.35076e-05
6.08964e-05
7.04502e-05
6.07587e-05
7.04664e-05
6.91482e-05
6.91488e-05
6.09034e-05
7.04568e-05
6.07609e-05
7.04734e-05
1.39053e-05
1.39088e-05
1.39075e-05
1.40349e-05
1.40376e-05
1.40356e-05
1.40362e-05
4.40223e-05
5.43239e-05
1.67772e-05
2.22558e-05
4.36591e-05
5.45466e-05
1.6911e-05
6.91483e-05
6.91496e-05
4.40222e-05
1.67801e-05
5.43238e-05