/*--------------------------------*- C++ -*----------------------------------*\
| =========                 |                                                 |
| \\      /  F ield         | OpenFOAM: The Open Source CFD Toolbox           |
|  \\    /   O peration     | Version:  v2012                                 |
|   \\  /    A nd           | Website:  www.openfoam.com                      |
|    \\/     M anipulation  |                                                 |
\*---------------------------------------------------------------------------*/
FoamFile
{
    version     2.0;
    format      ascii;
    class       volScalarField;
    location    "625";
    object      nut;
}
// * * * * * * * * * * * * * * * * * * * * * * * * * * * * * * * * * * * * * //

dimensions      [0 2 -1 0 0 0 0];


internalField   nonuniform List<scalar> 
85864
(
0.000233973
0.000233116
0.000233116
0.000233423
0.000232532
0.000227802
0.000227801
0.000223866
0.000230516
0.00022032
0.000220318
0.000209109
0.000227799
0.000211665
0.000211661
0.000193785
0.000224433
0.00020265
0.000202644
0.000179709
0.000220552
0.000193772
0.000193765
0.000167339
0.000216304
0.000185275
0.000185267
0.000156587
0.00021182
0.000177234
0.000177226
0.000147206
0.000207207
0.000169688
0.00016968
0.00013895
0.000202545
0.000162611
0.000162603
0.000131615
0.000197889
0.000155949
0.000155941
0.000124953
0.000193275
0.000149647
0.000149638
0.000118816
0.000188683
0.000143665
0.000143657
0.000113168
0.000184151
0.000137952
0.000137943
0.000107931
0.000179706
0.000132462
0.000132454
0.000103054
0.000175338
0.000127189
0.00012718
9.8432e-05
0.000171036
0.000122151
0.00012214
9.42517e-05
0.000166785
0.000117373
0.000117363
9.06643e-05
0.000162586
0.000112887
0.000112877
8.77313e-05
0.000158415
0.000108756
0.000108746
8.53869e-05
0.000154264
0.000105025
0.000105015
8.36656e-05
0.000150142
0.00010171
0.000101701
8.25777e-05
0.000146062
9.88931e-05
9.88852e-05
8.20983e-05
0.000142045
9.65845e-05
9.6577e-05
8.21541e-05
0.000138121
9.48005e-05
9.47941e-05
8.2699e-05
0.000134283
9.35081e-05
9.35062e-05
8.36549e-05
0.000130627
9.27395e-05
9.27427e-05
8.50043e-05
0.000127155
9.24709e-05
9.24558e-05
8.67057e-05
0.000123893
9.26259e-05
9.26269e-05
8.86242e-05
0.000120883
9.32275e-05
9.32355e-05
9.0779e-05
0.000118187
9.42248e-05
9.41963e-05
9.31142e-05
0.000115812
9.55938e-05
9.55998e-05
9.55737e-05
0.000113744
9.72147e-05
9.72581e-05
9.80913e-05
0.000112043
9.92164e-05
9.91683e-05
0.000100735
0.000110797
0.000101483
0.000101484
0.00010354
0.000109769
0.000103713
0.000103797
0.000106086
0.000109096
0.000106384
0.000106178
0.000108688
0.000108317
0.000108692
0.000108905
0.000111343
0.000108837
0.000111986
0.00011192
0.000114243
0.000110524
0.000115361
0.000115623
0.000117725
0.000109876
0.000118026
0.000117754
0.000119425
0.000111204
0.000121759
0.000120976
0.000122554
0.00011418
0.000124926
0.000126591
0.000127781
0.000117323
0.000129102
0.000130448
0.000129151
0.000113023
0.000131619
0.000124028
0.000121417
9.60007e-05
0.000114713
0.000112181
0.000118293
0.000113584
0.00011672
0.000141283
0.00014126
0.000234266
0.000234448
0.000234449
0.000234267
0.000234448
0.000234449
0.000234274
0.000234274
0.000234274
0.000234274
0.000234448
0.000234448
0.000234266
0.000234448
0.000234448
0.000234266
0.000233423
0.000226204
0.000233116
0.000233114
0.000229361
0.000229357
0.000233423
0.000226205
0.000233114
0.000233114
0.000229359
0.000229356
0.000233116
0.000229364
0.000229361
0.000233423
0.000226202
0.000233114
0.000229363
0.000229359
0.000226202
0.000223867
0.00021223
0.000227799
0.000227794
0.000222332
0.000222326
0.000223868
0.000212234
0.000227797
0.000227792
0.000222332
0.000222323
0.000227798
0.000222339
0.000222331
0.000223866
0.000212227
0.000227797
0.000222336
0.000222331
0.000212228
0.000209111
0.000197061
0.000220313
0.000220307
0.000213879
0.000213874
0.000209112
0.000197066
0.000220314
0.000220304
0.000213883
0.000213869
0.000220311
0.00021389
0.000213877
0.000209107
0.000197057
0.000220313
0.000213886
0.000213882
0.000197058
0.000193788
0.000182876
0.000211654
0.000211648
0.00020489
0.000204884
0.000193792
0.000182883
0.000211658
0.000211643
0.000204897
0.000204879
0.000211651
0.000204905
0.000204887
0.000193784
0.000182872
0.000211657
0.000204899
0.000204896
0.000182873
0.000179713
0.000170268
0.000202634
0.000202628
0.000195943
0.000195937
0.000179717
0.000170274
0.000202643
0.000202622
0.000195954
0.000195931
0.000202631
0.000195962
0.00019594
0.000179708
0.000170263
0.000202641
0.000195955
0.000195953
0.000170264
0.000167344
0.000159242
0.000193753
0.000193747
0.000187336
0.000187331
0.000167349
0.000159249
0.000193765
0.00019374
0.000187351
0.000187324
0.00019375
0.000187359
0.000187333
0.000167339
0.000159238
0.000193764
0.000187351
0.00018735
0.000159238
0.000156592
0.000149613
0.000185253
0.000185247
0.000179173
0.000179168
0.000156597
0.00014962
0.000185268
0.00018524
0.000179191
0.00017916
0.000185249
0.000179198
0.00017917
0.000156587
0.000149608
0.000185267
0.000179189
0.00017919
0.000149608
0.000147211
0.000141107
0.000177208
0.000177203
0.000171501
0.000171496
0.000147217
0.000141114
0.000177227
0.000177195
0.000171521
0.000171488
0.000177205
0.000171529
0.000171498
0.000147206
0.000141102
0.000177225
0.00017152
0.000171521
0.000141101
0.000138956
0.000133547
0.00016966
0.000169655
0.000164309
0.000164304
0.000138961
0.000133554
0.000169682
0.000169647
0.000164332
0.000164296
0.000169658
0.000164339
0.000164307
0.000138951
0.000133542
0.00016968
0.000164331
0.000164332
0.000133541
0.000131621
0.000126686
0.000162581
0.000162576
0.000157546
0.000157541
0.000131627
0.000126693
0.000162605
0.000162567
0.000157572
0.000157533
0.000162578
0.000157579
0.000157545
0.000131615
0.00012668
0.000162604
0.00015757
0.000157571
0.000126679
0.00012496
0.000120362
0.000155916
0.000155912
0.000151157
0.000151152
0.000124966
0.000120369
0.000155942
0.000155903
0.000151184
0.000151144
0.000155915
0.000151192
0.000151157
0.000124954
0.000120356
0.000155942
0.000151183
0.000151184
0.000120355
0.000118822
0.000114426
0.000149612
0.000149607
0.000145095
0.000145091
0.000118828
0.000114433
0.000149639
0.000149599
0.000145124
0.000145083
0.000149611
0.000145132
0.000145095
0.000118816
0.000114419
0.000149639
0.000145123
0.000145124
0.000114418
0.000113175
0.000108834
0.00014363
0.000143624
0.000139318
0.000139313
0.00011318
0.000108842
0.000143658
0.000143616
0.000139347
0.000139305
0.000143629
0.000139356
0.000139319
0.000113168
0.000108828
0.000143658
0.000139347
0.000139348
0.000108827
0.000107939
0.0001037
0.000137916
0.000137909
0.000133776
0.000133769
0.000107944
0.000103707
0.000137944
0.000137901
0.000133804
0.000133762
0.000137915
0.000133814
0.000133776
0.000107932
0.000103695
0.000137944
0.000133805
0.000133805
0.000103694
0.000103061
9.9124e-05
0.000132425
0.000132418
0.000128445
0.000128437
0.000103067
9.91306e-05
0.000132453
0.00013241
0.000128472
0.000128429
0.000132424
0.000128484
0.000128445
0.000103056
9.91181e-05
0.000132454
0.000128474
0.000128475
9.91164e-05
9.84388e-05
9.49897e-05
0.00012715
0.000127143
0.000123345
0.000123337
9.8445e-05
9.49945e-05
0.000127178
0.000127135
0.000123371
0.000123328
0.000127151
0.000123384
0.000123347
9.84332e-05
9.49829e-05
0.00012718
0.000123374
0.000123375
9.49819e-05
9.42588e-05
9.14389e-05
0.000122112
0.000122104
0.000118478
0.000118471
9.42632e-05
9.14437e-05
0.000122138
0.000122096
0.000118503
0.000118463
0.000122114
0.000118518
0.000118482
9.4252e-05
9.14332e-05
0.000122141
0.000118507
0.000118508
9.14336e-05
9.06686e-05
8.83782e-05
0.000117333
0.000117326
0.000113921
0.000113917
9.06739e-05
8.83855e-05
0.000117357
0.000117316
0.000113946
0.000113907
0.000117336
0.000113963
0.000113926
9.06646e-05
8.83758e-05
0.000117363
0.000113953
0.000113952
8.83732e-05
8.77352e-05
8.59112e-05
0.000112846
0.000112841
0.000109692
0.000109685
8.7743e-05
8.59143e-05
0.00011287
0.00011283
0.000109715
0.000109675
0.000112851
0.000109731
0.000109697
8.77334e-05
8.59038e-05
0.000112876
0.000109719
0.000109721
8.59073e-05
8.53912e-05
8.40663e-05
0.000108718
0.00010871
0.000105847
0.00010584
8.53939e-05
8.40736e-05
0.000108739
0.0001087
0.000105868
0.000105831
0.000108722
0.000105886
0.000105852
8.53841e-05
8.40652e-05
0.000108746
0.000105876
0.000105875
8.40646e-05
8.36666e-05
8.28568e-05
0.000104987
0.000104979
0.000102453
0.000102444
8.36749e-05
8.28632e-05
0.000105007
0.00010497
0.000102472
0.000102435
0.000104991
0.00010249
0.000102457
8.36658e-05
8.2853e-05
0.000105015
0.000102478
0.000102479
8.28533e-05
8.258e-05
8.22599e-05
0.000101676
0.000101665
9.9519e-05
9.95051e-05
8.25853e-05
8.22608e-05
0.000101695
0.000101657
9.95355e-05
9.94981e-05
0.000101679
9.95499e-05
9.95214e-05
8.25744e-05
8.22568e-05
0.0001017
9.95413e-05
9.95419e-05
8.22571e-05
8.20997e-05
8.22088e-05
9.88626e-05
9.88492e-05
9.70844e-05
9.7075e-05
8.21004e-05
8.22151e-05
9.88791e-05
9.88414e-05
9.70988e-05
9.70667e-05
9.88645e-05
9.71169e-05
9.70874e-05
8.2096e-05
8.221e-05
9.8885e-05
9.7109e-05
9.71074e-05
8.22076e-05
8.21539e-05
8.26568e-05
9.65549e-05
9.65426e-05
9.51715e-05
9.51557e-05
8.21604e-05
8.26572e-05
9.65704e-05
9.65356e-05
9.51855e-05
9.51556e-05
9.6558e-05
9.51983e-05
9.51709e-05
8.21543e-05
8.26553e-05
9.65775e-05
9.5191e-05
9.51876e-05
8.26529e-05
8.27018e-05
8.35324e-05
9.47748e-05
9.47566e-05
9.37604e-05
9.37512e-05
8.27037e-05
8.35371e-05
9.47892e-05
9.47574e-05
9.37754e-05
9.37432e-05
9.47749e-05
9.37876e-05
9.37661e-05
8.2703e-05
8.35323e-05
9.47921e-05
9.37825e-05
9.37809e-05
8.35335e-05
8.36551e-05
8.47919e-05
9.34785e-05
9.34722e-05
9.28599e-05
9.28396e-05
8.36603e-05
8.47894e-05
9.34949e-05
9.34641e-05
9.28717e-05
9.28425e-05
9.34857e-05
9.28769e-05
9.28595e-05
8.36562e-05
8.47903e-05
9.35003e-05
9.28803e-05
9.28743e-05
8.47907e-05
8.50044e-05
8.64274e-05
9.27211e-05
9.27005e-05
9.24786e-05
9.24613e-05
8.50009e-05
8.64343e-05
9.27328e-05
9.27067e-05
9.24875e-05
9.24612e-05
9.27219e-05
9.2497e-05
9.24792e-05
8.50045e-05
8.64294e-05
9.27394e-05
9.24883e-05
9.24932e-05
8.64356e-05
8.66992e-05
8.83148e-05
9.24511e-05
9.24375e-05
9.25427e-05
9.25147e-05
8.67059e-05
8.82983e-05
9.24598e-05
9.24297e-05
9.25433e-05
9.25125e-05
9.24534e-05
9.25447e-05
9.25304e-05
8.67001e-05
8.82983e-05
9.24664e-05
9.25459e-05
9.25387e-05
8.83044e-05
8.86365e-05
9.03968e-05
9.26193e-05
9.25977e-05
9.30096e-05
9.30061e-05
8.86181e-05
9.04135e-05
9.26204e-05
9.25932e-05
9.30241e-05
9.3025e-05
9.26082e-05
9.30348e-05
9.30274e-05
8.86229e-05
9.04213e-05
9.26168e-05
9.3051e-05
9.30295e-05
9.04127e-05
9.07607e-05
9.27021e-05
9.31852e-05
9.31986e-05
9.39303e-05
9.39158e-05
9.07803e-05
9.27123e-05
9.32041e-05
9.32112e-05
9.39384e-05
9.38955e-05
9.32101e-05
9.3949e-05
9.39306e-05
9.07872e-05
9.26874e-05
9.32137e-05
9.39235e-05
9.39451e-05
9.27059e-05
9.31121e-05
9.51454e-05
9.42176e-05
9.41924e-05
9.52073e-05
9.51948e-05
9.3113e-05
9.51403e-05
9.42221e-05
9.4163e-05
9.52031e-05
9.52124e-05
9.42096e-05
9.52321e-05
9.52038e-05
9.30863e-05
9.51448e-05
9.42312e-05
9.52387e-05
9.52066e-05
9.51371e-05
9.5582e-05
9.76651e-05
9.55856e-05
9.55653e-05
9.6807e-05
9.67684e-05
9.55786e-05
9.76437e-05
9.55802e-05
9.55836e-05
9.68097e-05
9.67768e-05
9.55805e-05
9.67759e-05
9.68009e-05
9.55864e-05
9.76524e-05
9.55698e-05
9.6787e-05
9.68022e-05
9.76581e-05
9.80979e-05
0.000100219
9.72177e-05
9.71952e-05
9.86017e-05
9.86546e-05
9.80854e-05
0.000100264
9.72263e-05
9.72417e-05
9.86204e-05
9.8612e-05
9.72181e-05
9.8687e-05
9.8637e-05
9.8089e-05
0.000100276
9.72282e-05
9.86382e-05
9.86465e-05
0.000100257
0.000100699
0.000103082
9.91779e-05
9.91866e-05
0.000100929
0.000100893
0.000100754
0.000103025
9.91934e-05
9.9142e-05
0.000100915
0.000100878
9.92091e-05
0.000100895
0.000100904
0.00010074
0.000103023
9.92195e-05
0.000100951
0.000100916
0.000103064
0.000103559
0.000105629
0.000101495
0.000101499
0.000103233
0.000103062
0.000103494
0.000105596
0.00010147
0.000101412
0.000103245
0.000103228
0.000101446
0.000103085
0.000103218
0.000103524
0.000105631
0.000101457
0.000103213
0.00010321
0.000105617
0.000106097
0.000108241
0.000103772
0.00010366
0.00010563
0.000105665
0.000106043
0.000108315
0.000103791
0.000103821
0.000105655
0.000105607
0.000103787
0.00010574
0.000105624
0.000106081
0.00010823
0.000103773
0.000105566
0.000105588
0.000108237
0.000108716
0.000110788
0.000106349
0.000106316
0.000108024
0.00010803
0.000108795
0.000110781
0.000106373
0.000106246
0.000108018
0.000108119
0.000106272
0.000108074
0.000108141
0.000108677
0.00011086
0.000106231
0.000108145
0.000108159
0.000110868
0.000111203
0.000113653
0.000108577
0.000108654
0.000111026
0.000111276
0.000111235
0.000113829
0.000108567
0.000108836
0.000110975
0.000111148
0.000108772
0.000111142
0.000110962
0.000111393
0.000113796
0.000108841
0.000111263
0.000111006
0.000113644
0.000114331
0.000117278
0.000111981
0.000112114
0.000114991
0.000114523
0.000114441
0.000116899
0.000111922
0.000111803
0.000115008
0.00011459
0.000111797
0.000114571
0.000114989
0.000114308
0.000116909
0.000111818
0.000114651
0.00011498
0.000117187
0.000117791
0.000119201
0.000115957
0.000115265
0.000117117
0.000117458
0.000117373
0.00011945
0.000116004
0.000115671
0.000117168
0.00011735
0.000115876
0.000117529
0.000117199
0.000117481
0.000119395
0.000115859
0.000117225
0.000117171
0.000119188
0.000119416
0.000121807
0.000117316
0.000117874
0.000120053
0.00012041
0.000119877
0.000122256
0.000117372
0.00011781
0.000120074
0.000119969
0.000117512
0.000120477
0.000119892
0.000119708
0.000121753
0.000117538
0.000119933
0.000119731
0.000121712
0.000122664
0.000126484
0.000121324
0.000121841
0.000124974
0.000124464
0.00012298
0.000125748
0.000121185
0.000120965
0.000124513
0.000124578
0.000120986
0.000124245
0.000125195
0.000122445
0.000126672
0.000120902
0.00012498
0.000125273
0.000126949
0.000127161
0.00012922
0.000126237
0.000124909
0.000128939
0.000127397
0.000126161
0.000128508
0.000125967
0.00012609
0.000129487
0.000130279
0.000126839
0.00012806
0.000129903
0.000127629
0.000129883
0.000126936
0.000130384
0.000130623
0.000129454
0.000129291
0.000126283
0.000129218
0.00012867
0.000128197
0.000132866
0.000129161
0.000130757
0.000129823
0.000130416
0.000128609
0.000127917
0.000129864
0.000132446
0.000124953
0.000129734
0.000125214
0.000130238
0.000126829
0.000124304
0.000122926
0.0001249
0.000114586
0.000125941
0.000132886
0.000116047
0.000121663
0.000130263
0.000118024
0.000126197
0.000125264
0.000115385
0.000114341
0.000122331
0.000120271
0.000116686
0.00012372
0.000113625
0.000121213
0.000113995
0.000114974
0.000116912
0.000113334
0.000129166
0.00011363
0.000115323
0.000125597
0.000107154
0.000115174
0.000110609
0.000112854
0.000112067
0.000125512
0.000128125
0.000118281
0.000108502
0.000133325
0.000112565
0.000132977
0.000116838
0.000130781
0.000135391
0.000136562
0.000135347
0.000169838
0.000135255
0.000112947
0.000167818
0.000161505
0.000116459
0.000165367
0.000135971
0.000139257
0.000169561
0.000172357
0.000140244
0.0001618
0.000160004
0.000139523
0.000172568
0.000143091
0.00017157
0.000163419
0.000160403
0.00023473
0.000234746
0.000234729
0.000234729
0.000235117
0.000234798
0.000234701
0.000234727
0.000235118
0.000234798
0.000234727
0.000234701
0.000234867
0.000233566
0.000233566
0.000104651
3.87411e-05
0.000129118
3.98249e-05
2.16834e-05
2.28313e-05
0.000104643
3.87371e-05
0.000129114
3.98214e-05
0.000233973
0.000233973
0.000233973
0.000232935
0.000232935
0.000232935
0.000232935
0.000206196
9.36752e-05
0.000233969
0.000231994
0.000222614
8.72226e-05
0.000233611
2.16823e-05
2.28307e-05
0.00020619
0.000233969
9.36747e-05
0.000231994
0.000222622
0.000233611
8.72283e-05
4.78012e-05
4.77894e-05
0.000231345
4.40185e-05
4.4009e-05
7.25677e-05
4.2434e-05
8.14027e-05
4.37634e-05
2.47749e-05
2.54634e-05
7.25581e-05
4.24305e-05
8.13974e-05
4.37596e-05
0.000232532
0.000232532
0.000232532
0.000231084
0.000231084
0.000231083
0.000231084
0.000167491
7.94389e-05
0.000232081
0.000226097
0.000180211
7.45079e-05
0.000231376
2.47731e-05
2.54619e-05
0.000167487
0.000232081
7.94328e-05
0.000226096
0.000180204
0.000231375
7.4511e-05
3.91644e-05
3.91541e-05
0.000219593
3.65758e-05
3.65651e-05
5.62773e-05
4.55466e-05
6.11325e-05
4.64126e-05
2.60134e-05
2.61173e-05
5.62814e-05
4.55439e-05
6.11277e-05
4.64097e-05
0.000230516
0.000230515
0.000230515
0.000228543
0.000228543
0.000228541
0.000228542
0.000138601
6.74261e-05
0.000228643
0.000218231
0.000148065
6.35184e-05
0.000227537
2.60111e-05
2.61152e-05
0.000138596
0.000228643
6.74201e-05
0.000218228
0.000148057
0.000227534
6.35147e-05
3.32183e-05
3.32097e-05
0.000204613
3.19922e-05
3.19831e-05
4.69657e-05
4.74992e-05
4.99089e-05
4.80043e-05
2.60471e-05
2.59392e-05
4.69648e-05
4.74958e-05
4.99095e-05
4.80015e-05
0.000227799
0.000227797
0.000227798
0.000225328
0.000225329
0.000225326
0.000225327
0.000117548
5.82051e-05
0.000223721
0.00020942
0.000124602
5.54861e-05
0.00022231
2.60446e-05
2.59372e-05
0.000117545
0.000223719
5.82034e-05
0.000209415
0.000124595
0.000222306
5.54828e-05
3.0618e-05
3.06101e-05
0.000189779
3.03048e-05
3.0297e-05
4.14286e-05
4.85826e-05
4.32437e-05
4.884e-05
2.56753e-05
2.55199e-05
4.14276e-05
4.85791e-05
4.32442e-05
4.88367e-05
0.000224433
0.000224431
0.000224432
0.000221562
0.000221563
0.000221559
0.000221561
0.000102113
5.18773e-05
0.000217771
0.000200404
0.00010738
5.00766e-05
0.000216181
2.56727e-05
2.5518e-05
0.000102111
0.000217769
5.1876e-05
0.000200398
0.000107374
0.000216177
5.00742e-05
3.01786e-05
3.01727e-05
0.000176369
3.04018e-05
3.03941e-05
3.8156e-05
4.90933e-05
3.92421e-05
4.91986e-05
2.52376e-05
2.5094e-05
3.8155e-05
4.90901e-05
3.92423e-05
4.91953e-05
0.000220552
0.000220549
0.00022055
0.000217392
0.000217393
0.000217389
0.000217391
9.04958e-05
4.77382e-05
0.000211269
0.000191607
9.44602e-05
4.66134e-05
0.000209603
2.5235e-05
2.50922e-05
9.04948e-05
0.000211267
4.77371e-05
0.0001916
9.44544e-05
0.000209598
4.66111e-05
3.09648e-05
3.09588e-05
0.000164561
3.15674e-05
3.15596e-05
3.63745e-05
4.92748e-05
3.69398e-05
4.92961e-05
2.48484e-05
2.47327e-05
3.63734e-05
4.92716e-05
3.69396e-05
4.92929e-05
0.000216305
0.0002163
0.000216302
0.000212957
0.000212957
0.000212952
0.000212955
8.15888e-05
4.51678e-05
0.000204579
0.000183219
8.46717e-05
4.45536e-05
0.000202907
2.48461e-05
2.47309e-05
8.15885e-05
0.000204576
4.51672e-05
0.000183211
8.4666e-05
0.000202902
4.45508e-05
3.25171e-05
3.25103e-05
0.000154267
3.33391e-05
3.33336e-05
3.56768e-05
4.92919e-05
3.58212e-05
4.92821e-05
2.45348e-05
2.4447e-05
3.56746e-05
4.92888e-05
3.58208e-05
4.9279e-05
0.000211821
0.000211816
0.000211818
0.000208367
0.000208368
0.000208362
0.000208365
7.46449e-05
4.37721e-05
0.000197938
0.000175301
7.71199e-05
4.35225e-05
0.000196304
2.45325e-05
2.4445e-05
7.46448e-05
0.000197935
4.37702e-05
0.000175292
7.71142e-05
0.000196298
4.35205e-05
3.45449e-05
3.45396e-05
0.00014522
3.54936e-05
3.54898e-05
3.57595e-05
4.92556e-05
3.5639e-05
4.9244e-05
2.42942e-05
2.42289e-05
3.57579e-05
4.92525e-05
3.56374e-05
4.9241e-05
0.000207208
0.000207202
0.000207204
0.000203711
0.000203712
0.000203705
0.000203708
6.91753e-05
4.32434e-05
0.000191483
0.000167877
7.12038e-05
4.32351e-05
0.000189901
2.42922e-05
2.42269e-05
6.91749e-05
0.00019148
4.32425e-05
0.000167868
7.11982e-05
0.000189895
4.32334e-05
3.68632e-05
3.68594e-05
0.000137218
3.78907e-05
3.7887e-05
3.65536e-05
4.92264e-05
3.62068e-05
4.92222e-05
2.41154e-05
2.40679e-05
3.65612e-05
4.92233e-05
3.62055e-05
4.92194e-05
0.000202546
0.000202539
0.000202542
0.000199049
0.00019905
0.000199043
0.000199046
6.48674e-05
4.33837e-05
0.00018524
0.000160909
6.65088e-05
4.35658e-05
0.000183717
2.41134e-05
2.4066e-05
6.48656e-05
0.000185237
4.33832e-05
0.0001609
6.65058e-05
0.000183711
4.35648e-05
3.93403e-05
3.93368e-05
0.000130034
4.03981e-05
4.03964e-05
3.80468e-05
4.92218e-05
3.73838e-05
4.92268e-05
2.39858e-05
2.39522e-05
3.80641e-05
4.92187e-05
3.73664e-05
4.92241e-05
0.000197891
0.000197883
0.000197887
0.000194421
0.000194422
0.000194415
0.000194419
6.15072e-05
4.40646e-05
0.000179254
0.000154342
6.2754e-05
4.44057e-05
0.000177803
2.39839e-05
2.39502e-05
6.15053e-05
0.000179252
4.40647e-05
0.000154333
6.27519e-05
0.000177796
4.44047e-05
4.18696e-05
4.18676e-05
0.000123457
4.29252e-05
4.29248e-05
4.01048e-05
4.92394e-05
3.91215e-05
4.92526e-05
2.3894e-05
2.38706e-05
4.0114e-05
4.92367e-05
3.91222e-05
4.92499e-05
0.000193277
0.000193269
0.000193273
0.000189829
0.000189831
0.000189823
0.000189827
5.90048e-05
4.51945e-05
0.000173549
0.000148122
5.98513e-05
4.56667e-05
0.000172164
2.3892e-05
2.38687e-05
5.90034e-05
0.000173547
4.51942e-05
0.000148113
5.98484e-05
0.000172157
4.56664e-05
4.4368e-05
4.4367e-05
0.000117344
4.5385e-05
4.53858e-05
4.26527e-05
4.92732e-05
4.14138e-05
4.92898e-05
2.38296e-05
2.38135e-05
4.2635e-05
4.92705e-05
4.14276e-05
4.92871e-05
0.000188684
0.000188676
0.00018868
0.000185274
0.000185275
0.000185267
0.000185271
5.72072e-05
4.66956e-05
0.000168096
0.000142213
5.7719e-05
4.72769e-05
0.000166769
2.38277e-05
2.38115e-05
5.7206e-05
0.000168094
4.66959e-05
0.000142204
5.77165e-05
0.000166763
4.72766e-05
4.67574e-05
4.67572e-05
0.000111572
4.77347e-05
4.77366e-05
4.55935e-05
4.93127e-05
4.42044e-05
4.93295e-05
2.37844e-05
2.3773e-05
4.55802e-05
4.93101e-05
4.4207e-05
4.93269e-05
0.000184152
0.000184143
0.000184148
0.000180808
0.00018081
0.000180801
0.000180806
5.6035e-05
4.8496e-05
0.000162861
0.000136559
5.63295e-05
4.91593e-05
0.000161583
2.37824e-05
2.3771e-05
5.60331e-05
0.000162859
4.84965e-05
0.00013655
5.63284e-05
0.000161576
4.91593e-05
4.9007e-05
4.90079e-05
0.000106194
4.99225e-05
4.99243e-05
4.88121e-05
4.93516e-05
4.7359e-05
4.93671e-05
2.37516e-05
2.37432e-05
4.8808e-05
4.93489e-05
4.73678e-05
4.93646e-05
0.000179707
0.000179698
0.000179703
0.000176421
0.000176423
0.000176414
0.000176419
5.55202e-05
5.05193e-05
0.00015781
0.000131121
5.5602e-05
5.12398e-05
0.000156574
2.37496e-05
2.37412e-05
5.55191e-05
0.000157809
5.05197e-05
0.000131112
5.56e-05
0.000156568
5.12395e-05
5.10798e-05
5.10806e-05
0.000101349
5.193e-05
5.19327e-05
5.22675e-05
4.93871e-05
5.07145e-05
4.94013e-05
2.37262e-05
2.37196e-05
5.225e-05
4.93846e-05
5.07232e-05
4.93986e-05
0.00017534
0.000175331
0.000175336
0.000172103
0.000172105
0.000172095
0.000172101
5.56471e-05
5.26919e-05
0.000152914
0.000125904
5.55148e-05
5.34466e-05
0.000151715
2.37244e-05
2.37178e-05
5.5647e-05
0.000152913
5.26919e-05
0.000125894
5.55135e-05
0.000151709
5.34467e-05
5.2971e-05
5.29733e-05
9.6989e-05
5.37501e-05
5.37519e-05
5.57252e-05
4.94194e-05
5.42059e-05
4.94324e-05
2.37055e-05
2.37e-05
5.57245e-05
4.94169e-05
5.42056e-05
4.94298e-05
0.000171038
0.000171028
0.000171033
0.000167839
0.000167841
0.000167832
0.000167837
5.63844e-05
5.49473e-05
0.000148169
0.000120926
5.60559e-05
5.57166e-05
0.000147004
2.37037e-05
2.36982e-05
5.63808e-05
0.000148168
5.49475e-05
0.000120915
5.60552e-05
0.000146998
5.57158e-05
5.46808e-05
5.46827e-05
9.31347e-05
5.53923e-05
5.53934e-05
5.90951e-05
4.94492e-05
5.76304e-05
4.94613e-05
2.36875e-05
2.36828e-05
5.9087e-05
4.94466e-05
5.76421e-05
4.94587e-05
0.000166788
0.000166778
0.000166784
0.000163627
0.00016363
0.00016362
0.000163626
5.76929e-05
5.72271e-05
0.000143541
0.000116209
5.71824e-05
5.79928e-05
0.000142401
2.36857e-05
2.36807e-05
5.7695e-05
0.000143541
5.72271e-05
0.000116199
5.718e-05
0.000142397
5.7993e-05
5.62243e-05
5.62268e-05
8.98295e-05
5.68723e-05
5.68737e-05
6.22867e-05
4.94775e-05
6.08921e-05
4.9489e-05
2.36712e-05
2.36664e-05
6.22774e-05
4.94746e-05
6.08995e-05
4.94861e-05
0.000162589
0.000162579
0.000162585
0.00015945
0.000159453
0.000159442
0.000159449
5.95064e-05
5.94824e-05
0.000139013
0.000111801
5.8838e-05
6.02307e-05
0.000137902
2.36692e-05
2.36647e-05
5.95034e-05
0.000139013
5.94826e-05
0.00011179
5.88392e-05
0.000137898
6.02296e-05
5.76205e-05
5.76233e-05
8.706e-05
5.8207e-05
5.82081e-05
6.51819e-05
4.95039e-05
6.39231e-05
4.95146e-05
2.36558e-05
2.36518e-05
6.51764e-05
4.95013e-05
6.39291e-05
4.95122e-05
0.000158418
0.000158407
0.000158415
0.000155292
0.000155296
0.000155286
0.000155293
6.17436e-05
6.16772e-05
0.000134594
0.000107758
6.09452e-05
6.24006e-05
0.000133515
2.3654e-05
2.36498e-05
6.17425e-05
0.000134593
6.16762e-05
0.000107748
6.09415e-05
0.000133512
6.24058e-05
5.88833e-05
5.88861e-05
8.49069e-05
5.9417e-05
5.94177e-05
6.77744e-05
4.95287e-05
6.66517e-05
4.95387e-05
2.36419e-05
2.36381e-05
6.77695e-05
4.95266e-05
6.66581e-05
4.95368e-05
0.000154267
0.000154256
0.000154263
0.000151162
0.000151166
0.000151154
0.000151162
6.43065e-05
6.37874e-05
0.000130299
0.000104155
6.34124e-05
6.44823e-05
0.000129258
2.36398e-05
2.36359e-05
6.43057e-05
0.000130298
6.37711e-05
0.000104146
6.34121e-05
0.000129257
6.45011e-05
6.00287e-05
6.00316e-05
8.33783e-05
6.05159e-05
6.05165e-05
7.00602e-05
4.95517e-05
6.90685e-05
4.9561e-05
2.36288e-05
2.36252e-05
7.00566e-05
4.95498e-05
6.90774e-05
4.95592e-05
0.000150146
0.000150135
0.000150142
0.00014707
0.000147073
0.000147062
0.00014707
6.71028e-05
6.57866e-05
0.00012617
0.000100957
6.61429e-05
6.64736e-05
0.000125151
2.36266e-05
2.3623e-05
6.71013e-05
0.000126174
6.57696e-05
0.000100949
6.61418e-05
0.000125145
6.64908e-05
6.10722e-05
6.10747e-05
8.24798e-05
6.15175e-05
6.15184e-05
7.206e-05
4.95726e-05
7.11932e-05
4.95808e-05
2.36165e-05
2.36133e-05
7.20534e-05
4.95707e-05
7.11983e-05
4.9579e-05
0.000146067
0.000146053
0.000146062
0.000143032
0.000143038
0.000143024
0.000143033
7.00458e-05
6.76811e-05
0.000122224
9.82652e-05
6.90382e-05
6.8357e-05
0.000121258
2.36143e-05
2.3611e-05
7.00431e-05
0.000122229
6.76652e-05
9.82599e-05
6.90396e-05
0.000121254
6.83737e-05
6.20267e-05
6.20282e-05
8.21676e-05
6.24332e-05
6.24355e-05
7.38078e-05
4.9591e-05
7.30478e-05
4.95982e-05
2.36052e-05
2.36022e-05
7.38014e-05
4.95892e-05
7.30554e-05
4.95965e-05
0.000142047
0.000142037
0.000142045
0.000139076
0.000139078
0.000139067
0.000139075
7.30598e-05
6.94736e-05
0.000118526
9.60867e-05
7.19965e-05
7.01302e-05
0.000117623
2.36029e-05
2.36e-05
7.30535e-05
0.000118531
6.94557e-05
9.60789e-05
7.19973e-05
0.000117617
7.01437e-05
6.29036e-05
6.29052e-05
8.23689e-05
6.32747e-05
6.32759e-05
7.53504e-05
4.9607e-05
7.46757e-05
4.96132e-05
2.35949e-05
2.35922e-05
7.53393e-05
4.96054e-05
7.46847e-05
4.96116e-05
0.00013812
0.000138113
0.000138121
0.00013523
0.000135234
0.000135223
0.00013523
7.60702e-05
7.11691e-05
0.000115129
9.44372e-05
7.49648e-05
7.18084e-05
0.000114323
2.35926e-05
2.35899e-05
7.60631e-05
0.00011513
7.11514e-05
9.44268e-05
7.49633e-05
0.000114315
7.18182e-05
6.37131e-05
6.37145e-05
8.30497e-05
6.40558e-05
6.40568e-05
7.67071e-05
4.96209e-05
7.61034e-05
4.96268e-05
2.35854e-05
2.3583e-05
7.67008e-05
4.96193e-05
7.61134e-05
4.96251e-05
0.000134287
0.000134276
0.000134286
0.00013152
0.000131517
0.000131508
0.000131516
7.90071e-05
7.27573e-05
0.000112027
9.32666e-05
7.78849e-05
7.33789e-05
0.000111314
2.35831e-05
2.35808e-05
7.90073e-05
0.000112036
7.27439e-05
9.32628e-05
7.78881e-05
0.000111315
7.33896e-05
6.44531e-05
6.44537e-05
8.41028e-05
6.47674e-05
6.47687e-05
7.79359e-05
4.96336e-05
7.73933e-05
4.96387e-05
2.3577e-05
2.35749e-05
7.79346e-05
4.96319e-05
7.74025e-05
4.96371e-05
0.000130621
0.000130618
0.000130628
0.000128004
0.000127997
0.000127986
0.000128002
8.18655e-05
7.4263e-05
0.000109317
9.26373e-05
8.07297e-05
7.48726e-05
0.000108712
2.35747e-05
2.35726e-05
8.18639e-05
0.000109333
7.42522e-05
9.26333e-05
8.07359e-05
0.000108712
7.488e-05
6.51492e-05
6.51507e-05
8.55812e-05
6.54422e-05
6.54429e-05
7.90438e-05
4.96449e-05
7.85564e-05
4.96497e-05
2.35695e-05
2.35677e-05
7.90392e-05
4.96432e-05
7.85577e-05
4.9648e-05
0.000127157
0.000127143
0.000127155
0.000124679
0.000124677
0.000124677
0.000124675
8.46047e-05
7.56829e-05
0.000107021
9.24727e-05
8.34778e-05
7.6275e-05
0.000106515
2.35672e-05
2.35655e-05
8.45986e-05
0.000107019
7.56661e-05
9.24579e-05
8.34685e-05
0.000106504
7.6281e-05
6.5792e-05
6.57927e-05
8.73419e-05
6.60662e-05
6.60672e-05
8.00575e-05
4.96555e-05
7.96164e-05
4.96601e-05
2.3563e-05
2.35616e-05
8.00574e-05
4.96538e-05
7.96117e-05
4.96587e-05
0.000123897
0.000123881
0.000123887
0.000121618
0.000121628
0.000121627
0.000121625
8.72198e-05
7.70182e-05
0.000105132
9.27383e-05
8.60979e-05
7.76029e-05
0.000104731
2.35607e-05
2.35594e-05
8.72125e-05
0.000105136
7.7008e-05
9.27354e-05
8.60952e-05
0.000104723
7.76088e-05
6.6392e-05
6.63926e-05
8.93274e-05
6.66525e-05
6.66532e-05
8.10049e-05
4.96662e-05
8.05849e-05
4.9671e-05
2.35575e-05
2.35565e-05
8.10012e-05
4.96645e-05
8.05957e-05
4.96692e-05
0.000120895
0.000120892
0.000120893
0.00011883
0.000118838
0.000118815
0.000118832
8.97293e-05
7.8287e-05
0.000103694
9.34501e-05
8.8617e-05
7.88642e-05
0.000103412
2.35552e-05
2.35542e-05
8.97314e-05
0.00010371
7.82811e-05
9.34452e-05
8.86196e-05
0.000103415
7.88613e-05
6.6958e-05
6.69582e-05
9.15298e-05
6.72014e-05
6.72024e-05
8.18825e-05
4.96769e-05
8.14999e-05
4.96817e-05
2.3553e-05
2.35524e-05
8.18834e-05
4.96751e-05
8.15001e-05
4.968e-05
0.000118191
0.000118157
0.000118187
0.000116371
0.000116377
0.000116376
0.00011637
9.21172e-05
7.94971e-05
0.000102726
9.45269e-05
9.10495e-05
8.00533e-05
0.000102548
2.35507e-05
2.35501e-05
9.2123e-05
0.00010273
7.94918e-05
9.45146e-05
9.1054e-05
0.000102551
8.0043e-05
6.74971e-05
6.74986e-05
9.39091e-05
6.77222e-05
6.7723e-05
8.2711e-05
4.96881e-05
8.23473e-05
4.9693e-05
2.35496e-05
2.35493e-05
8.27086e-05
4.96863e-05
8.23428e-05
4.96913e-05
0.000115815
0.000115818
0.000115805
0.000114246
0.000114218
0.000114218
0.000114239
9.43704e-05
8.06555e-05
0.00010218
9.59608e-05
9.33648e-05
8.11732e-05
0.000102088
2.35473e-05
2.3547e-05
9.43815e-05
0.00010218
8.06618e-05
9.59536e-05
9.33423e-05
0.000102078
8.11687e-05
6.80105e-05
6.80105e-05
9.64098e-05
6.82254e-05
6.82268e-05
8.34686e-05
4.96993e-05
8.31371e-05
4.9705e-05
2.35471e-05
2.35472e-05
8.34833e-05
4.96978e-05
8.31397e-05
4.97036e-05
0.000113729
0.00011376
0.00011374
0.000112385
0.000112438
0.000112388
0.000112403
9.65919e-05
8.17515e-05
0.000102042
9.76811e-05
9.55985e-05
8.22506e-05
0.000102081
2.35448e-05
2.3545e-05
9.65875e-05