/*--------------------------------*- C++ -*----------------------------------*\
| =========                 |                                                 |
| \\      /  F ield         | OpenFOAM: The Open Source CFD Toolbox           |
|  \\    /   O peration     | Version:  v2012                                 |
|   \\  /    A nd           | Website:  www.openfoam.com                      |
|    \\/     M anipulation  |                                                 |
\*---------------------------------------------------------------------------*/
FoamFile
{
    version     2.0;
    format      ascii;
    class       volScalarField;
    location    "625";
    object      p;
}
// * * * * * * * * * * * * * * * * * * * * * * * * * * * * * * * * * * * * * //

dimensions      [0 2 -2 0 0 0 0];


internalField   nonuniform List<scalar> 
85864
(
0.00360529
0.00360562
0.00360562
0.00360867
0.00354993
0.00355035
0.00355035
0.00355334
0.00349918
0.00349915
0.00349915
0.0035019
0.00344679
0.00344681
0.00344681
0.00344958
0.00339544
0.00339545
0.00339545
0.0033982
0.00334547
0.00334548
0.00334547
0.0033482
0.00329694
0.00329695
0.00329695
0.00329964
0.00324971
0.00324973
0.00324973
0.00325238
0.00320358
0.00320359
0.00320359
0.00320622
0.00315834
0.00315836
0.00315836
0.00316096
0.00311383
0.00311385
0.00311385
0.00311642
0.00306992
0.00306994
0.00306993
0.00307248
0.00302652
0.00302654
0.00302654
0.00302905
0.00298359
0.0029836
0.0029836
0.00298611
0.00294108
0.00294109
0.00294109
0.0029436
0.00289899
0.00289899
0.00289899
0.00290148
0.00285728
0.00285727
0.00285727
0.00285975
0.00281592
0.00281592
0.00281592
0.00281839
0.0027749
0.00277489
0.00277489
0.00277735
0.0027342
0.00273417
0.00273417
0.00273663
0.00269378
0.00269375
0.00269375
0.0026962
0.00265363
0.00265359
0.00265359
0.00265604
0.00261373
0.00261369
0.00261369
0.00261613
0.00257408
0.00257402
0.00257402
0.00257645
0.00253464
0.00253458
0.00253458
0.002537
0.00249542
0.00249537
0.00249537
0.00249777
0.00245641
0.00245636
0.00245636
0.00245875
0.0024176
0.00241755
0.00241755
0.00241992
0.00237898
0.00237894
0.00237894
0.00238129
0.00234055
0.00234052
0.00234052
0.00234284
0.00230231
0.00230227
0.00230227
0.00230458
0.00226424
0.0022642
0.0022642
0.00226649
0.00222633
0.0022263
0.0022263
0.00222857
0.00218859
0.00218857
0.00218856
0.00219081
0.00215099
0.00215097
0.00215098
0.00215319
0.00211355
0.00211354
0.00211354
0.00211575
0.00207626
0.00207625
0.00207625
0.00207844
0.00203913
0.00203912
0.00203912
0.00204128
0.00200217
0.00200213
0.00200214
0.00200429
0.00196525
0.00196522
0.00196521
0.00196736
0.00192847
0.00192845
0.00192845
0.00193058
0.00189189
0.00189182
0.00189184
0.00189396
0.00185528
0.00185519
0.00185519
0.0018573
0.00181858
0.00181859
0.0018185
0.00182066
0.00178179
0.00178202
0.00178206
0.00178431
0.00174694
0.00174677
0.00174721
0.00174903
0.00171336
0.001713
0.00171234
0.00171413
0.0036187
0.00361892
0.00361892
0.0036187
0.00361892
0.00361892
0.00361968
0.00361968
0.00361969
0.00361969
0.00361892
0.00361892
0.0036187
0.00361892
0.00361892
0.0036187
0.00360867
0.00355991
0.00360561
0.00360562
0.00356219
0.00356219
0.00360867
0.00355991
0.00360562
0.00360562
0.00356219
0.00356219
0.00360562
0.00356219
0.00356219
0.00360867
0.00355991
0.00360562
0.00356219
0.00356219
0.00355991
0.00355334
0.00350883
0.00355035
0.00355035
0.00351228
0.00351228
0.00355334
0.00350883
0.00355035
0.00355035
0.00351227
0.00351227
0.00355035
0.00351228
0.00351228
0.00355334
0.00350883
0.00355035
0.00351227
0.00351228
0.00350883
0.00350191
0.00345646
0.00349915
0.00349915
0.00345982
0.00345982
0.00350191
0.00345646
0.00349915
0.00349915
0.00345982
0.00345982
0.00349915
0.00345982
0.00345982
0.0035019
0.00345646
0.00349915
0.00345982
0.00345982
0.00345646
0.00344958
0.00340491
0.00344681
0.00344681
0.00340817
0.00340817
0.00344958
0.00340491
0.00344681
0.00344681
0.00340817
0.00340817
0.00344681
0.00340817
0.00340817
0.00344958
0.00340491
0.00344681
0.00340817
0.00340817
0.00340491
0.0033982
0.0033547
0.00339545
0.00339545
0.00335783
0.00335783
0.0033982
0.0033547
0.00339545
0.00339545
0.00335783
0.00335783
0.00339545
0.00335783
0.00335783
0.0033982
0.00335469
0.00339545
0.00335783
0.00335783
0.00335469
0.0033482
0.00330594
0.00334548
0.00334548
0.00330896
0.00330896
0.00334819
0.00330594
0.00334548
0.00334548
0.00330895
0.00330896
0.00334548
0.00330896
0.00330895
0.00334819
0.00330594
0.00334548
0.00330896
0.00330895
0.00330594
0.00329964
0.00325851
0.00329696
0.00329695
0.00326142
0.00326143
0.00329963
0.00325851
0.00329695
0.00329695
0.00326142
0.00326143
0.00329696
0.00326143
0.00326142
0.00329963
0.00325851
0.00329696
0.00326143
0.00326142
0.00325851
0.00325238
0.00321221
0.00324973
0.00324972
0.00321503
0.00321504
0.00325238
0.00321221
0.00324973
0.00324972
0.00321504
0.00321504
0.00324973
0.00321504
0.00321503
0.00325238
0.00321221
0.00324973
0.00321504
0.00321504
0.00321221
0.00320622
0.00316684
0.0032036
0.00320359
0.0031696
0.0031696
0.00320621
0.00316683
0.0032036
0.00320359
0.0031696
0.0031696
0.0032036
0.0031696
0.0031696
0.00320622
0.00316683
0.0032036
0.0031696
0.0031696
0.00316683
0.00316096
0.0031222
0.00315837
0.00315836
0.00312492
0.00312493
0.00316095
0.0031222
0.00315837
0.00315836
0.00312492
0.00312493
0.00315837
0.00312493
0.00312492
0.00316095
0.0031222
0.00315837
0.00312493
0.00312492
0.0031222
0.00311642
0.00307818
0.00311386
0.00311385
0.00308086
0.00308087
0.00311641
0.00307818
0.00311386
0.00311385
0.00308086
0.00308087
0.00311386
0.00308087
0.00308086
0.00311641
0.00307818
0.00311386
0.00308087
0.00308086
0.00307818
0.00307248
0.00303469
0.00306994
0.00306994
0.00303734
0.00303734
0.00307248
0.00303469
0.00306994
0.00306993
0.00303734
0.00303734
0.00306994
0.00303734
0.00303734
0.00307248
0.00303469
0.00306994
0.00303734
0.00303734
0.00303468
0.00302905
0.00299167
0.00302654
0.00302654
0.0029943
0.00299429
0.00302905
0.00299167
0.00302654
0.00302654
0.0029943
0.00299429
0.00302653
0.00299429
0.0029943
0.00302905
0.00299167
0.00302653
0.00299429
0.0029943
0.00299167
0.0029861
0.00294911
0.0029836
0.0029836
0.00295168
0.00295169
0.00298611
0.00294911
0.0029836
0.0029836
0.00295168
0.00295169
0.0029836
0.00295169
0.00295168
0.00298611
0.00294911
0.0029836
0.00295169
0.00295168
0.00294911
0.0029436
0.00290695
0.0029411
0.0029411
0.00290948
0.00290948
0.00294359
0.00290695
0.0029411
0.00294109
0.00290948
0.00290948
0.0029411
0.00290948
0.00290948
0.00294359
0.00290695
0.0029411
0.00290948
0.00290948
0.00290695
0.00290148
0.00286517
0.00289899
0.00289899
0.00286767
0.00286767
0.00290148
0.00286517
0.00289899
0.00289899
0.00286767
0.00286767
0.00289899
0.00286767
0.00286767
0.00290148
0.00286517
0.00289899
0.00286767
0.00286767
0.00286517
0.00285975
0.00282376
0.00285727
0.00285727
0.00282622
0.00282622
0.00285975
0.00282376
0.00285727
0.00285727
0.00282622
0.00282622
0.00285727
0.00282622
0.00282622
0.00285975
0.00282376
0.00285727
0.00282622
0.00282622
0.00282376
0.00281839
0.00278269
0.00281592
0.00281592
0.00278512
0.00278512
0.00281839
0.00278269
0.00281592
0.00281592
0.00278512
0.00278512
0.00281592
0.00278512
0.00278512
0.00281839
0.00278268
0.00281592
0.00278512
0.00278512
0.00278268
0.00277735
0.00274192
0.00277489
0.00277489
0.00274432
0.00274432
0.00277735
0.00274192
0.00277489
0.00277489
0.00274432
0.00274432
0.00277489
0.00274432
0.00274432
0.00277735
0.00274193
0.00277489
0.00274432
0.00274432
0.00274192
0.00273663
0.00270146
0.00273417
0.00273417
0.00270383
0.00270383
0.00273663
0.00270146
0.00273417
0.00273417
0.00270383
0.00270383
0.00273417
0.00270383
0.00270383
0.00273663
0.00270146
0.00273417
0.00270383
0.00270383
0.00270146
0.0026962
0.00266127
0.00269375
0.00269375
0.00266361
0.0026636
0.0026962
0.00266126
0.00269375
0.00269375
0.0026636
0.0026636
0.00269375
0.0026636
0.0026636
0.0026962
0.00266126
0.00269375
0.0026636
0.00266361
0.00266126
0.00265604
0.00262133
0.00265359
0.00265359
0.00262364
0.00262364
0.00265604
0.00262133
0.00265359
0.00265359
0.00262364
0.00262364
0.00265359
0.00262364
0.00262364
0.00265604
0.00262133
0.00265359
0.00262364
0.00262364
0.00262133
0.00261613
0.00258162
0.00261369
0.00261369
0.00258391
0.00258391
0.00261613
0.00258162
0.00261369
0.00261369
0.00258391
0.00258391
0.00261369
0.00258391
0.00258392
0.00261613
0.00258162
0.00261369
0.00258391
0.00258391
0.00258162
0.00257645
0.00254215
0.00257402
0.00257402
0.00254442
0.00254442
0.00257645
0.00254215
0.00257402
0.00257402
0.00254442
0.00254442
0.00257402
0.00254442
0.00254442
0.00257645
0.00254215
0.00257402
0.00254442
0.00254442
0.00254215
0.002537
0.00250289
0.00253458
0.00253458
0.00250515
0.00250515
0.002537
0.00250289
0.00253458
0.00253458
0.00250515
0.00250515
0.00253458
0.00250515
0.00250515
0.002537
0.00250289
0.00253458
0.00250515
0.00250515
0.00250289
0.00249777
0.00246385
0.00249537
0.00249537
0.00246609
0.00246609
0.00249777
0.00246385
0.00249537
0.00249537
0.00246609
0.00246609
0.00249537
0.00246609
0.00246609
0.00249777
0.00246385
0.00249537
0.00246609
0.00246609
0.00246385
0.00245875
0.002425
0.00245636
0.00245636
0.00242724
0.00242724
0.00245875
0.002425
0.00245636
0.00245636
0.00242724
0.00242724
0.00245636
0.00242724
0.00242724
0.00245875
0.002425
0.00245636
0.00242724
0.00242724
0.002425
0.00241992
0.00238635
0.00241755
0.00241755
0.00238858
0.00238858
0.00241992
0.00238635
0.00241755
0.00241755
0.00238858
0.00238858
0.00241755
0.00238858
0.00238858
0.00241992
0.00238635
0.00241755
0.00238858
0.00238858
0.00238635
0.00238129
0.00234789
0.00237894
0.00237894
0.00235011
0.00235011
0.00238129
0.00234789
0.00237894
0.00237894
0.00235011
0.00235011
0.00237894
0.00235011
0.00235011
0.00238129
0.00234789
0.00237894
0.00235011
0.00235011
0.00234789
0.00234284
0.0023096
0.00234052
0.00234052
0.00231182
0.00231182
0.00234284
0.0023096
0.00234052
0.00234052
0.00231182
0.00231182
0.00234052
0.00231182
0.00231182
0.00234284
0.0023096
0.00234052
0.00231182
0.00231182
0.0023096
0.00230458
0.0022715
0.00230227
0.00230227
0.0022737
0.0022737
0.00230458
0.0022715
0.00230227
0.00230227
0.0022737
0.0022737
0.00230227
0.0022737
0.0022737
0.00230458
0.0022715
0.00230227
0.0022737
0.0022737
0.0022715
0.00226648
0.00223356
0.0022642
0.0022642
0.00223576
0.00223576
0.00226649
0.00223356
0.0022642
0.0022642
0.00223576
0.00223576
0.0022642
0.00223576
0.00223576
0.00226649
0.00223356
0.0022642
0.00223576
0.00223576
0.00223356
0.00222856
0.00219579
0.0022263
0.0022263
0.00219799
0.00219799
0.00222856
0.00219579
0.0022263
0.0022263
0.00219798
0.00219798
0.0022263
0.00219799
0.00219798
0.00222857
0.00219578
0.0022263
0.00219798
0.00219798
0.00219578
0.00219081
0.00215816
0.00218857
0.00218857
0.00216036
0.00216036
0.00219081
0.00215816
0.00218857
0.00218856
0.00216036
0.00216036
0.00218857
0.00216036
0.00216036
0.0021908
0.00215817
0.00218856
0.00216036
0.00216036
0.00215816
0.00215319
0.0021207
0.00215097
0.00215097
0.00212288
0.00212288
0.00215319
0.00212069
0.00215097
0.00215098
0.00212288
0.00212288
0.00215097
0.00212288
0.00212288
0.0021532
0.00212069
0.00215097
0.00212288
0.00212288
0.00212069
0.00211575
0.00208337
0.00211354
0.00211354
0.00208555
0.00208555
0.00211574
0.00208337
0.00211354
0.00211354
0.00208555
0.00208555
0.00211354
0.00208555
0.00208555
0.00211574
0.00208337
0.00211354
0.00208556
0.00208555
0.00208337
0.00207843
0.00204621
0.00207624
0.00207625
0.00204838
0.00204839
0.00207843
0.00204621
0.00207624
0.00207624
0.00204838
0.00204839
0.00207625
0.00204839
0.00204838
0.00207843
0.00204621
0.00207625
0.0020484
0.00204839
0.00204621
0.00204129
0.0020092
0.00203911
0.00203912
0.00201138
0.00201137
0.00204129
0.00200919
0.00203912
0.00203912
0.00201138
0.00201136
0.00203911
0.00201137
0.00201138
0.00204128
0.00200919
0.00203911
0.00201136
0.00201138
0.0020092
0.00200429
0.00197225
0.00200214
0.00200213
0.00197442
0.00197443
0.00200428
0.00197227
0.00200214
0.00200214
0.00197442
0.00197444
0.00200214
0.00197443
0.00197442
0.00200429
0.00197226
0.00200214
0.00197444
0.00197443
0.00197226
0.00196735
0.00193549
0.0019652
0.00196522
0.00193763
0.00193762
0.00196737
0.00193548
0.0019652
0.00196521
0.00193763
0.00193763
0.00196521
0.00193762
0.00193763
0.00196735
0.00193548
0.00196521
0.00193763
0.00193762
0.00193548
0.00193059
0.00189883
0.00192846
0.00192845
0.00190099
0.00190099
0.0019306
0.00189883
0.00192846
0.00192845
0.00190099
0.00190097
0.00192845
0.00190099
0.001901
0.00193058
0.00189882
0.00192844
0.00190097
0.001901
0.00189884
0.00189396
0.00186218
0.00189184
0.00189182
0.00186434
0.00186434
0.00189393
0.00186218
0.00189184
0.00189184
0.00186435
0.00186439
0.00189186
0.00186435
0.00186435
0.00189396
0.00186222
0.00189187
0.00186439
0.00186436
0.00186219
0.00185729
0.0018256
0.00185517
0.00185518
0.00182772
0.00182775
0.00185729
0.00182559
0.00185518
0.0018552
0.0018277
0.00182764
0.00185518
0.00182773
0.00182766
0.0018573
0.00182553
0.00185517
0.00182762
0.00182764
0.00182555
0.00182069
0.00178904
0.00181856
0.00181861
0.0017911
0.00179114
0.00182071
0.00178911
0.00181854
0.0018185
0.00179109
0.00179113
0.00181849
0.00179115
0.00179113
0.00182067
0.00178911
0.00181847
0.00179115
0.00179114
0.0017891
0.0017842
0.00175363
0.00178201
0.001782
0.00175554
0.00175521
0.00178426
0.00175337
0.00178202
0.00178202
0.0017556
0.00175563
0.00178215
0.00175529
0.0017557
0.00178425
0.00175369
0.00178218
0.00175569
0.00175578
0.0017537
0.00174904
0.00171907
0.00174702
0.00174672
0.00172143
0.00172189
0.00174881
0.00171951
0.0017471
0.00174719
0.0017214
0.00172143
0.00174702
0.00172175
0.00172107
0.00174912
0.001719
0.0017471
0.00172128
0.00172101
0.00171882
0.00171436
0.00168202
0.00171258
0.00171317
0.00168463
0.00168496
0.00171475
0.0016823
0.00171248
0.00171245
0.00168437
0.00168411
0.00171227
0.00168495
0.00168466
0.00171423
0.00168176
0.00171216
0.00168413
0.00168446
0.00168218
0.00362707
0.00363683
0.00363163
0.00363164
0.00365402
0.0036408
0.0036694
0.00363484
0.00365402
0.0036408
0.00363485
0.0036694
0.00364537
0.00367314
0.00367315
0.00358243
0.00360158
0.00361077
0.00357451
0.00357525
0.00357802
0.00358241
0.00360155
0.00361076
0.00357449
0.00360529
0.00360529
0.00360529
0.00356189
0.00356188
0.00356188
0.00356188
0.00357993
0.00360575
0.00360569
0.00358876
0.00360878
0.00357883
0.00358964
0.00357535
0.00357802
0.00357994
0.00360569
0.00360577
0.00358876
0.00360878
0.00358964
0.00357883
0.00361163
0.00361161
0.00358316
0.00357847
0.00357847
0.0035358
0.00355508
0.00355644
0.00353433
0.00355398
0.00353389
0.00353579
0.00355507
0.00355644
0.00353433
0.00354993
0.00354993
0.00354993
0.00351234
0.00351234
0.00351234
0.00351234
0.00353438
0.00355515
0.00354993
0.00353806
0.00355394
0.00353492
0.00353779
0.00355398
0.00353388
0.00353438
0.00354993
0.00355515
0.00353806
0.00355394
0.00353779
0.00353492
0.00355617
0.00355617
0.00353461
0.00353526
0.00353526
0.00348353
0.00350234
0.00350341
0.00348251
0.00350197
0.00348223
0.00348353
0.00350234
0.00350341
0.00348251
0.00349918
0.00349918
0.00349918
0.0034598
0.0034598
0.0034598
0.0034598
0.00348263
0.00350274
0.00349905
0.00348601
0.00350218
0.003483
0.00348592
0.00350197
0.00348223
0.00348263
0.00349905
0.00350274
0.00348601
0.00350218
0.00348592
0.003483
0.00350298
0.00350298
0.00348262
0.00348306
0.00348306
0.00343101
0.00344966
0.00345052
0.00343024
0.00344946
0.00343006
0.00343101
0.00344966
0.00345052
0.00343024
0.00344679
0.00344679
0.00344679
0.00340816
0.00340816
0.00340816
0.00340816
0.0034305
0.00345007
0.00344676
0.00343386
0.00344979
0.00343068
0.00343382
0.00344946
0.00343006
0.0034305
0.00344676
0.00345007
0.00343386
0.00344979
0.00343382
0.00343068
0.00345011
0.00345011
0.00343054
0.00343062
0.00343062
0.00337981
0.00339817
0.0033988
0.00337925
0.00339802
0.00337912
0.00337981
0.00339816
0.0033988
0.00337925
0.00339544
0.00339544
0.00339544
0.00335782
0.00335782
0.00335782
0.00335782
0.00337954
0.00339852
0.00339542
0.00338282
0.00339835
0.00337965
0.00338279
0.00339802
0.00337912
0.00337954
0.00339542
0.00339851
0.00338282
0.00339835
0.00338279
0.00337965
0.0033985
0.0033985
0.00337962
0.00337956
0.00337956
0.00333016
0.00334811
0.00334857
0.00332977
0.00334801
0.00332965
0.00333016
0.00334811
0.00334857
0.00332977
0.00334546
0.00334546
0.00334547
0.00330894
0.00330894
0.00330894
0.00330894
0.00333005
0.00334841
0.00334545
0.00333321
0.0033483
0.00333012
0.00333319
0.003348
0.00332966
0.00333005
0.00334545
0.00334841
0.00333321
0.0033483
0.00333319
0.00333012
0.0033484
0.0033484
0.00333014
0.00333003
0.00333003
0.00328199
0.00329954
0.00329986
0.00328172
0.00329944
0.00328161
0.00328199
0.00329954
0.00329986
0.00328171
0.00329694
0.00329694
0.00329694
0.0032614
0.00326141
0.00326141
0.00326141
0.00328197
0.0032998
0.00329692
0.00328504
0.00329971
0.00328203
0.003285
0.00329944
0.00328161
0.00328197
0.00329692
0.0032998
0.00328504
0.00329971
0.003285
0.00328203
0.0032998
0.0032998
0.00328207
0.00328195
0.00328195
0.0032351
0.00325228
0.00325251
0.0032349
0.00325219
0.0032348
0.0032351
0.00325228
0.00325252
0.0032349
0.00324971
0.00324971
0.00324971
0.00321502
0.00321502
0.00321502
0.00321502
0.00323514
0.00325251
0.00324969
0.00323811
0.00325243
0.00323519
0.00323807
0.00325219
0.0032348
0.00323514
0.00324969
0.00325251
0.00323811
0.00325243
0.00323807
0.00323519
0.00325251
0.00325251
0.00323524
0.00323511
0.00323511
0.00318926
0.00320613
0.00320631
0.0031891
0.00320604
0.00318901
0.00318926
0.00320613
0.00320631
0.0031891
0.00320358
0.00320358
0.00320358
0.00316958
0.00316958
0.00316958
0.00316958
0.00318934
0.00320634
0.00320356
0.00319222
0.00320627
0.00318938
0.00319218
0.00320604
0.00318901
0.00318934
0.00320356
0.00320634
0.00319222
0.00320627
0.00319218
0.00318938
0.00320634
0.00320634
0.00318942
0.00318929
0.00318929
0.00314427
0.00316087
0.00316102
0.00314413
0.00316079
0.00314405
0.00314427
0.00316087
0.00316102
0.00314413
0.00315834
0.00315834
0.00315834
0.0031249
0.0031249
0.0031249
0.0031249
0.00314437
0.00316107
0.00315833
0.00314718
0.00316101
0.00314441
0.00314715
0.00316079
0.00314405
0.00314437
0.00315833
0.00316107
0.00314718
0.00316101
0.00314715
0.00314441
0.00316106
0.00316106
0.00314443
0.00314431
0.00314431
0.00309996
0.00311634
0.00311647
0.00309983
0.00311625
0.00309975
0.00309996
0.00311634
0.00311647
0.00309983
0.00311383
0.00311383
0.00311383
0.00308084
0.00308084
0.00308084
0.00308084
0.00310008
0.00311653
0.00311383
0.00310282
0.00311648
0.00310011
0.0031028
0.00311626
0.00309975
0.00310008
0.00311383
0.00311653
0.00310283
0.00311648
0.0031028
0.00310011
0.00311651
0.00311651
0.00310012
0.00309999
0.00309999
0.00305621
0.0030724
0.00307252
0.00305609
0.00307232
0.00305601
0.00305622
0.0030724
0.00307252
0.00305609
0.00306992
0.00306992
0.00306992
0.00303732
0.00303732
0.00303732
0.00303732
0.00305636
0.00307259
0.00306992
0.00305904
0.00307256
0.00305637
0.00305902
0.00307232
0.00305601
0.00305636
0.00306992
0.00307259
0.00305904
0.00307256
0.00305902
0.00305637
0.00307256
0.00307256
0.00305637
0.00305624
0.00305624
0.00301296
0.00302897
0.00302909
0.00301284
0.0030289
0.00301277
0.00301297
0.00302897
0.00302909
0.00301284
0.00302652
0.00302652
0.00302652
0.00299428
0.00299428
0.00299428
0.00299428
0.00301313
0.00302915
0.00302652
0.00301576
0.00302915
0.00301311
0.00301575
0.0030289
0.00301277
0.00301313
0.00302652
0.00302915
0.00301576
0.00302915
0.00301575
0.00301311
0.00302912
0.00302912
0.00301311
0.00301298
0.00301298
0.00297017
0.002986
0.00298613
0.00297004
0.00298594
0.00296998
0.00297017
0.002986
0.00298613
0.00297004
0.00298359
0.00298359
0.00298359
0.00295167
0.00295167
0.00295167
0.00295167
0.00297035
0.00298618
0.00298359
0.00297294
0.0029862
0.00297031
0.00297293
0.00298594
0.00296998
0.00297035
0.00298359
0.00298618
0.00297294
0.0029862
0.00297293
0.00297031
0.00298614
0.00298614
0.00297034
0.00297016
0.00297016
0.00292779
0.00294347
0.0029436
0.00292767
0.00294342
0.00292762
0.00292779
0.00294347
0.0029436
0.00292767
0.00294108
0.00294108
0.00294108
0.00290948
0.00290947
0.00290947
0.00290947
0.00292801
0.00294364
0.0029411
0.00293053
0.00294369
0.00292793
0.00293053
0.00294342
0.00292761
0.00292801
0.0029411
0.00294364
0.00293053
0.00294369
0.00293053
0.00292793
0.0029436
0.0029436
0.00292798
0.00292778
0.00292778
0.00288581
0.00290135
0.00290147
0.00288569
0.00290129
0.00288565
0.00288581
0.00290135
0.00290148
0.00288569
0.00289899
0.00289899
0.00289899
0.00286767
0.00286767
0.00286767
0.00286767
0.00288605
0.00290151
0.002899
0.00288853
0.00290158
0.00288595
0.00288854
0.0029013
0.00288565
0.00288605
0.002899
0.00290151
0.00288853
0.00290159
0.00288854
0.00288595
0.00290147
0.00290147
0.00288601
0.0028858
0.0028858
0.00284421
0.00285962
0.00285973
0.0028441
0.00285957
0.00284406
0.00284421
0.00285962
0.00285973
0.0028441
0.00285728
0.00285728
0.00285728
0.00282623
0.00282623
0.00282623
0.00282623
0.00284447
0.00285976
0.00285729
0.0028469
0.00285986
0.00284434
0.00284692
0.00285957
0.00284406
0.00284447
0.00285729
0.00285976
0.0028469
0.00285986
0.00284692
0.00284434
0.00285972
0.00285972
0.00284442
0.00284419
0.00284419
0.00280296
0.00281824
0.00281835
0.00280285
0.00281821
0.00280282
0.00280296
0.00281824
0.00281835
0.00280285
0.00281592
0.00281592
0.00281592
0.00278513
0.00278513
0.00278513
0.00278513
0.00280323
0.00281837
0.00281594
0.00280563
0.00281849
0.00280308
0.00280565
0.00281821
0.00280282
0.00280323
0.00281594
0.00281838
0.00280563
0.00281849
0.00280566
0.00280308
0.00281834
0.00281834
0.00280318
0.00280293
0.00280293
0.00276204
0.00277721
0.00277731
0.00276193
0.00277717
0.0027619
0.00276204
0.00277721
0.00277731
0.00276193
0.0027749
0.0027749
0.0027749
0.00274435
0.00274435
0.00274435
0.00274435
0.00276231
0.00277732
0.00277492
0.00276468
0.00277745
0.00276215
0.00276471
0.00277717
0.0027619
0.00276231
0.00277492
0.00277732
0.00276468
0.00277745
0.00276471
0.00276215
0.00277729
0.00277729
0.00276227
0.00276201
0.00276201
0.00272142
0.00273648
0.00273657
0.00272132
0.00273644
0.0027213
0.00272142
0.00273648
0.00273657
0.00272132
0.0027342
0.0027342
0.0027342
0.00270386
0.00270386
0.00270386
0.00270386
0.00272169
0.00273658
0.00273421
0.00272404
0.00273671
0.00272152
0.00272407
0.00273645
0.00272129
0.00272169
0.00273421
0.00273658
0.00272404
0.00273671
0.00272407
0.00272152
0.00273655
0.00273655
0.00272166
0.00272138
0.00272138
0.00268108
0.00269605
0.00269613
0.00268098
0.00269601
0.00268097
0.00268108
0.00269605
0.00269613
0.00268099
0.00269378
0.00269378
0.00269378
0.00266365
0.00266365
0.00266365
0.00266365
0.00268135
0.00269613
0.00269378
0.00268368
0.00269626
0.00268118
0.00268371
0.00269602
0.00268096
0.00268135
0.00269378
0.00269613
0.00268368
0.00269626
0.00268371
0.00268118
0.00269611
0.00269611
0.00268133
0.00268104
0.00268104
0.002641
0.00265588
0.00265596
0.00264092
0.00265585
0.00264089
0.002641
0.00265588
0.00265596
0.00264092
0.00265363
0.00265363
0.00265363
0.00262369
0.00262369
0.00262369
0.00262369
0.00264127
0.00265595
0.00265362
0.00264359
0.00265608
0.00264109
0.00264362
0.00265585
0.00264089
0.00264127
0.00265362
0.00265595
0.00264359
0.00265608
0.00264362
0.00264109
0.00265594
0.00265594
0.00264127
0.00264097
0.00264097
0.00260117
0.00261597
0.00261604
0.00260109
0.00261594
0.00260107
0.00260117
0.00261597
0.00261604
0.00260109
0.00261373
0.00261373
0.00261373
0.00258397
0.00258397
0.00258397
0.00258397
0.00260142
0.00261603
0.00261371
0.00260375
0.00261614
0.00260125
0.00260377
0.00261594
0.00260107
0.00260142
0.00261371
0.00261603
0.00260375
0.00261614
0.00260377
0.00260126
0.00261602
0.00261602
0.00260145
0.00260114
0.00260114
0.00256158
0.00257629
0.00257636
0.0025615
0.00257627
0.00256148
0.00256158
0.00257629
0.00257636
0.0025615
0.00257408
0.00257408
0.00257408
0.00254448
0.00254448
0.00254448
0.00254448
0.00256181
0.00257634
0.00257404
0.00256414
0.00257645
0.00256165
0.00256416
0.00257627
0.00256148
0.00256181
0.00257404
0.00257634
0.00256414
0.00257645
0.00256416
0.00256165
0.00257634
0.00257634
0.00256186
0.00256154
0.00256154
0.00252221
0.00253684
0.00253691
0.00252214
0.00253682
0.00252212
0.00252221
0.00253684
0.00253691
0.00252214
0.00253464
0.00253464
0.00253464
0.00250521
0.00250521
0.00250521
0.00250521
0.00252243
0.00253688
0.0025346
0.00252476
0.00253698
0.00252227
0.00252477
0.00253682
0.00252212
0.00252243
0.0025346
0.00253688
0.00252476
0.00253698
0.00252477
0.00252227
0.00253688
0.00253688
0.0025225
0.00252217
0.00252217
0.00248305
0.00249761
0.00249767
0.00248298
0.00249759
0.00248297
0.00248305
0.00249761
0.00249767
0.00248298
0.00249542
0.00249542
0.00249542
0.00246615
0.00246615
0.00246615
0.00246615
0.00248326
0.00249764
0.00249538
0.0024856
0.00249773
0.00248311
0.0024856
0.00249759
0.00248297
0.00248326
0.00249538
0.00249764
0.0024856
0.00249773
0.0024856
0.00248311
0.00249765
0.00249765
0.00248335
0.00248301
0.00248301
0.0024441
0.00245859
0.00245864
0.00244403
0.00245857
0.00244402
0.0024441
0.00245859
0.00245864
0.00244403
0.00245641
0.00245641
0.00245641
0.00242729
0.00242729
0.00242729
0.00242729
0.00244429
0.00245861
0.00245637
0.00244664
0.00245869
0.00244416
0.00244665
0.00245857
0.00244402
0.00244429
0.00245637
0.00245861
0.00244664
0.00245869
0.00244665
0.00244416
0.00245862
0.00245862
0.0024444
0.00244406
0.00244406
0.00240535
0.00241976
0.00241982
0.00240528
0.00241975
0.00240527
0.00240535
0.00241976
0.00241982
0.00240529
0.0024176
0.0024176
0.0024176
0.00238862
0.00238862
0.00238862
0.00238862
0.00240553
0.00241978
0.00241756
0.00240788
0.00241986
0.0024054
0.00240789
0.00241975
0.00240527
0.00240553
0.00241756
0.00241979
0.00240788
0.00241986
0.00240789
0.0024054
0.0024198
0.0024198
0.00240565
0.00240531
0.00240531
0.00236679
0.00238113
0.00238119
0.00236673
0.00238112
0.00236672
0.00236679
0.00238113
0.00238119
0.00236673
0.00237898
0.00237898
0.00237898
0.00235014
0.00235014
0.00235014
0.00235014
0.00236696
0.00238115
0.00237895
0.00236932
0.00238122
0.00236684
0.00236932
0.00238112
0.00236672
0.00236696
0.00237895
0.00238115
0.00236932
0.00238122
0.00236932
0.00236684
0.00238116
0.00238116
0.0023671
0.00236675
0.00236675
0.00232841
0.00234269
0.00234274
0.00232835
0.00234268
0.00232834
0.00232841
0.00234269
0.00234274
0.00232835
0.00234055
0.00234055
0.00234055
0.00231185
0.00231185
0.00231185
0.00231185
0.00232858
0.00234271
0.00234052
0.00233094
0.00234277
0.00232846
0.00233095
0.00234268
0.00232835
0.00232858
0.00234052
0.00234271
0.00233094
0.00234276
0.00233095
0.00232846
0.00234272
0.00234272
0.00232872
0.00232838
0.00232838
0.00229021
0.00230443
0.00230448
0.00229016
0.00230442
0.00229015
0.00229021
0.00230443
0.00230448
0.00229016
0.00230231
0.00230231
0.00230231
0.00227374
0.00227374
0.00227374
0.00227374
0.00229038
0.00230444
0.00230228
0.00229274
0.0023045
0.00229026
0.00229275
0.00230442
0.00229015
0.00229037
0.00230228
0.00230444
0.00229274
0.0023045
0.00229275
0.00229026
0.00230446
0.00230446
0.00229053
0.00229018
0.00229018
0.00225219
0.00226634
0.00226639
0.00225213
0.00226634
0.00225213
0.00225219
0.00226634
0.00226639
0.00225214
0.00226424
0.00226424
0.00226424
0.00223579
0.00223579
0.00223579
0.00223579
0.00225235
0.00226636
0.00226421
0.00225471
0.00226641
0.00225224
0.00225472
0.00226634
0.00225214
0.00225235
0.00226421
0.00226636
0.00225471
0.00226641
0.00225472
0.00225224
0.00226637
0.00226638
0.0022525
0.00225216
0.00225216
0.00221433
0.00222843
0.00222847
0.00221428
0.00222842
0.00221428
0.00221433
0.00222843
0.00222847
0.00221428
0.00222633
0.00222633
0.00222633
0.00219801
0.00219801
0.00219801
0.00219801
0.00221449
0.00222844
0.00222631
0.00221685
0.00222849
0.00221438
0.00221687
0.00222842
0.00221428
0.00221449
0.00222631
0.00222844
0.00221686
0.00222848
0.00221687
0.00221438
0.00222846
0.00222846
0.00221465
0.00221431
0.00221431
0.00217663
0.00219067
0.00219071
0.00217658
0.00219067
0.00217658
0.00217663
0.00219067
0.00219072
0.00217658
0.00218859
0.00218859
0.00218859
0.00216037
0.00216037
0.00216037
0.00216037
0.00217679
0.00219069
0.00218858
0.00217915
0.00219073
0.00217668
0.00217917
0.00219067
0.00217658
0.00217679
0.00218858
0.00219069
0.00217915
0.00219073
0.00217917
0.00217668
0.0021907
0.0021907
0.00217696
0.00217661
0.00217661
0.00213909
0.00215308
0.00215311
0.00213904
0.00215307
0.00213905
0.00213909
0.00215308
0.00215311
0.00213904
0.00215099
0.00215099
0.00215099
0.00212289
0.00212289
0.00212289
0.00212289
0.00213924
0.00215309
0.00215099
0.0021416
0.00215313
0.00213914
0.00214162
0.00215308
0.00213905
0.00213924
0.00215099
0.00215309
0.0021416
0.00215313
0.00214162
0.00213914
0.00215311
0.00215311
0.0021394
0.00213906
0.00213906
0.00210169
0.00211563
0.00211567
0.00210166
0.00211563
0.00210165
0.0021017
0.00211563
0.00211566
0.00210166
0.00211355
0.00211354
0.00211355
0.00208557
0.00208557
0.00208557
0.00208557
0.00210184
0.00211564
0.00211357
0.0021042
0.00211567
0.00210174
0.00210423
0.00211562
0.00210166
0.00210184
0.00211356
0.00211564
0.0021042
0.00211567
0.00210423
0.00210175
0.00211566
0.00211566
0.00210201
0.00210168
0.00210168
0.00206446
0.00207833
0.00207836
0.00206442
0.00207834
0.00206443
0.00206446
0.00207833
0.00207837
0.00206442
0.00207626
0.00207626
0.00207626
0.00204839
0.00204839
0.00204841
0.0020484
0.0020646
0.00207834
0.00207628
0.00206695
0.00207837
0.00206451
0.00206698
0.00207834
0.00206441
0.0020646
0.00207628
0.00207835
0.00206695
0.00207838
0.00206698
0.0020645
0.00207836
0.00207836
0.00206477
0.00206444
0.00206444
0.00202736
0.0020412
0.00204122
0.00202731
0.00204119
0.00202731
0.00202736
0.0020412
0.00204123
0.00202732
0.00203913
0.00203914
0.00203913
0.0020114
0.00201139
0.00201138
0.00201139
0.0020275
0.0020412
0.00203915
0.00202986
0.00204123
0.00202741
0.00202989
0.00204119
0.00202732
0.00202749
0.00203916
0.00204119
0.00202985
0.00204123
0.00202989
0.0020274
0.00204122
0.00204122
0.00202768
0.00202734
0.00202734
0.00199039
0.00200417
0.0020042
0.00199035
0.00200417
0.00199036
0.00199039
0.00200417
0.0020042
0.00199035
0.00200215
0.00200215
0.00200216
0.00197447
0.00197446
0.00197449
0.00197447
0.00199053
0.00200418
0.00200217
0.00199289
0.00200422
0.00199044
0.00199294