/*--------------------------------*- C++ -*----------------------------------*\
| =========                 |                                                 |
| \\      /  F ield         | OpenFOAM: The Open Source CFD Toolbox           |
|  \\    /   O peration     | Version:  v2012                                 |
|   \\  /    A nd           | Website:  www.openfoam.com                      |
|    \\/     M anipulation  |                                                 |
\*---------------------------------------------------------------------------*/
FoamFile
{
    version     2.0;
    format      ascii;
    class       surfaceScalarField;
    location    "625";
    object      phi;
}
// * * * * * * * * * * * * * * * * * * * * * * * * * * * * * * * * * * * * * //

dimensions      [0 3 -1 0 0 0 0];
oriented        oriented;


internalField   nonuniform List<scalar> 
248808
(
-0.00104221
-1.45815e-05
-1.44777e-05
9.34771e-06
9.17762e-06
0.00105274
-0.00026146
-5.64183e-06
1.44583e-05
6.83957e-06
0.00105941
-4.53274e-06
-1.62486e-06
-2.21805e-06
-2.57554e-06
-6.59143e-06
-7.04427e-06
-3.16375e-06
-0.000263303
-0.000259727
-0.000262829
-0.000261437
-5.64682e-06
1.44873e-05
6.92911e-06
0.0010592
-4.53785e-06
-1.63504e-06
-2.22565e-06
-2.57985e-06
-6.58553e-06
-7.04034e-06
-3.16594e-06
-0.000259699
-0.000263274
-0.000262793
-0.000260564
5.61732e-06
5.65742e-06
-4.87815e-06
-4.87221e-06
0.00025904
-1.63187e-06
-1.63376e-06
-0.00106073
8.98537e-07
8.99307e-07
0.0010622
-0.00106267
-1.60665e-06
1.62783e-06
8.28417e-07
0.00106395
-6.53888e-07
7.84507e-07
-1.48148e-07
3.78012e-07
-8.00667e-07
-1.39484e-06
-2.90553e-07
-0.00106235
-1.60156e-06
1.63834e-06
8.23605e-07
0.00106363
-6.53865e-07
7.79017e-07
-1.48198e-07
3.75395e-07
-8.03195e-07
-1.39453e-06
-2.88006e-07
-0.000261533
1.63928e-06
1.60171e-06
-7.13271e-07
-7.16421e-07
0.000259722
-1.36113e-06
-1.36255e-06
-0.0010664
6.82252e-07
6.83062e-07
0.00106775
-0.0010679
-1.55715e-06
1.3673e-06
6.90356e-07
0.00106925
-6.21822e-07
8.38625e-07
-1.06574e-07
4.24394e-07
-7.80406e-07
-1.35997e-06
-2.45167e-07
-0.00106758
-1.55189e-06
1.36211e-06
6.95678e-07
0.00106892
-6.21825e-07
8.33215e-07
-1.06542e-07
4.24339e-07
-7.80329e-07
-1.35442e-06
-2.42616e-07
-0.000262766
1.58732e-06
1.55204e-06
-6.74945e-07
-6.8312e-07
0.000260984
-1.34098e-06
-1.34229e-06
-0.00107186
6.6441e-07
6.65261e-07
0.00107322
-0.00107326
-1.55555e-06
1.34196e-06
6.6727e-07
0.00107457
-6.19909e-07
8.638e-07
-8.15687e-08
4.38209e-07
-7.79456e-07
-1.36934e-06
-2.20267e-07
-0.00107292
-1.55022e-06
1.34185e-06
6.67346e-07
0.00107424
-6.1719e-07
8.5837e-07
-8.40293e-08
4.38155e-07
-7.81928e-07
-1.36912e-06
-2.17694e-07
-0.000264044
1.58325e-06
1.55043e-06
-6.64601e-07
-6.70257e-07
0.000262245
-1.29595e-06
-1.29715e-06
-0.00107721
6.42269e-07
6.43163e-07
0.00107852
-0.00107844
-1.54741e-06
1.29687e-06
6.34118e-07
0.00107969
-6.07377e-07
8.91668e-07
-5.6208e-08
4.60145e-07
-7.68239e-07
-1.37185e-06
-1.88968e-07
-0.0010781
-1.54201e-06
1.29669e-06
6.34118e-07
0.00107936
-6.04602e-07
8.86216e-07
-5.86537e-08
4.60143e-07
-7.70685e-07
-1.37164e-06
-1.8639e-07
-0.000265263
1.57524e-06
1.54224e-06
-6.47643e-07
-6.53308e-07
0.000263446
-1.24839e-06
-1.24949e-06
-0.00108237
6.20367e-07
6.21285e-07
0.00108362
-0.00108337
-1.53899e-06
1.24922e-06
6.0444e-07
0.00108457
-5.94997e-07
9.17337e-07
-3.38044e-08
4.84429e-07
-7.53926e-07
-1.36941e-06
-1.58506e-07
-0.00108303
-1.53354e-06
1.24902e-06
6.04418e-07
0.00108423
-5.92171e-07
9.11783e-07
-3.63765e-08
4.84449e-07
-7.56431e-07
-1.36918e-06
-1.55865e-07
-0.000266408
1.56706e-06
1.5339e-06
-6.30885e-07
-6.36566e-07
0.000264575
-1.20429e-06
-1.20517e-06
-0.00108732
6.00834e-07
6.01727e-07
0.00108852
-0.00108806
-1.53228e-06
1.20492e-06
5.80531e-07
0.00108919
-5.85126e-07
9.40164e-07
-1.53376e-08
5.09166e-07
-7.4017e-07
-1.36525e-06
-1.30562e-07
-0.00108772
-1.52691e-06
1.20475e-06
5.80638e-07
0.00108885
-5.82542e-07
9.34457e-07
-1.80101e-08
5.0914e-07
-7.42686e-07
-1.365e-06
-1.27893e-07
-0.00026748
1.56073e-06
1.52741e-06
-6.16541e-07
-6.22239e-07
0.00026563
-1.16543e-06
-1.16674e-06
-0.00109208
5.84367e-07
5.85301e-07
0.00109324
-0.00109251
-1.52774e-06
1.16649e-06
5.62394e-07
0.00109359
-5.78307e-07
9.60145e-07
-1.11776e-09
5.33196e-07
-7.28019e-07
-1.36104e-06
-1.05654e-07
-0.00109217
-1.52236e-06
1.16641e-06
5.62673e-07
0.00109325
-5.75832e-07
9.54449e-07
-3.48086e-09
5.331e-07
-7.30579e-07
-1.36085e-06
-1.03064e-07
-0.000268483
1.5566e-06
1.52309e-06
-6.04845e-07
-6.10588e-07
0.000266618
-1.13175e-06
-1.13306e-06
-0.00109667
5.70286e-07
5.70952e-07
0.00109779
-0.00109676
-1.52649e-06
1.13286e-06
5.48682e-07
0.00109779
-5.74981e-07
9.76767e-07
1.67941e-08
5.55668e-07
-7.17696e-07
-1.35782e-06
-8.40775e-08
-0.00109641
-1.52107e-06
1.13295e-06
5.48892e-07
0.00109744
-5.72441e-07
9.7116e-07
1.3184e-08
5.5566e-07
-7.20101e-07
-1.35755e-06
-8.14344e-08
-0.000269422
1.55514e-06
1.52151e-06
-5.96316e-07
-6.02003e-07
0.000267544
-1.10317e-06
-1.10434e-06
-0.00110111
5.5859e-07
5.59238e-07
0.0011022
-0.00110081
-1.52688e-06
1.10415e-06
5.37995e-07
0.0011018
-5.73397e-07
9.91947e-07
3.13241e-08
5.77035e-07
-7.08158e-07
-1.35507e-06
-6.5222e-08
-0.00110047
-1.52142e-06
1.10419e-06
5.38151e-07
0.00110145
-5.70801e-07
9.86314e-07
2.776e-08
5.76993e-07
-7.10641e-07
-1.35484e-06
-6.25839e-08
-0.000270304
1.55565e-06
1.52188e-06
-5.89946e-07
-5.95671e-07
0.000268412
-1.07853e-06
-1.07951e-06
-0.00110542
5.4874e-07
5.49421e-07
0.00110648
-0.0011047
-1.52812e-06
1.07917e-06
5.28775e-07
0.00110564
-5.70171e-07
1.00632e-06
4.12616e-08
5.97201e-07
-6.98835e-07
-1.3523e-06
-4.89674e-08
-0.00110435
-1.52256e-06
1.0791e-06
5.28864e-07
0.0011053
-5.69901e-07
1.00062e-06
4.06505e-08
5.97134e-07
-7.01442e-07
-1.35206e-06
-4.63941e-08
-0.000271132
1.55699e-06
1.5231e-06
-5.84626e-07
-5.90377e-07
0.000269227
-1.05583e-06
-1.05683e-06
-0.00110962
5.39678e-07
5.40343e-07
0.00111065
-0.00110843
-1.52974e-06
1.05645e-06
5.19835e-07
0.00110933
-5.70087e-07
1.01999e-06
5.25966e-08
6.1596e-07
-6.88829e-07
-1.34875e-06
-3.48722e-08
-0.00110808
-1.52417e-06
1.05638e-06
5.19921e-07
0.00110899
-5.69741e-07
1.01427e-06
5.1975e-08
6.15892e-07
-6.91455e-07
-1.34859e-06
-3.23578e-08
-0.000271907
1.55865e-06
1.52464e-06
-5.79762e-07
-5.8556e-07
0.000269989
-1.03438e-06
-1.0353e-06
-0.00111371
5.3096e-07
5.31643e-07
0.00111472
-0.00111201
-1.53143e-06
1.03505e-06
5.10659e-07
0.00111288
-5.69844e-07
1.03336e-06
6.21324e-08
6.33252e-07
-6.77686e-07
-1.34423e-06
-2.24801e-08
-0.00111166
-1.52569e-06
1.0347e-06
5.10424e-07
0.00111253
-5.69286e-07
1.0279e-06
6.27574e-08
6.33122e-07
-6.80151e-07
-1.34388e-06
-2.0134e-08
-0.00027263
1.55999e-06
1.52584e-06
-5.7469e-07
-5.80579e-07
0.0002707
-1.01325e-06
-1.01411e-06
-0.0011177
5.22245e-07
5.22997e-07
0.00111868
-0.00111543
-1.53307e-06
1.01433e-06
5.00947e-07
0.00111627
-5.6699e-07
1.04569e-06
7.04107e-08
6.48802e-07
-6.65223e-07
-1.33816e-06
-1.18029e-08
-0.00111508
-1.52735e-06
1.01402e-06
5.00838e-07
0.00111592
-5.67264e-07
1.0404e-06
7.08426e-08
6.48927e-07
-6.67554e-07
-1.33773e-06
-9.35606e-09
-0.0002733
1.56147e-06
1.52731e-06
-5.69608e-07
-5.75251e-07
0.000271356
-9.92353e-07
-9.93141e-07
-0.00112159
5.13332e-07
5.1405e-07
0.00112255
-0.00111871
-1.53325e-06
9.93036e-07
4.90172e-07
0.00111951
-5.62505e-07
1.05896e-06
8.03239e-08
6.6257e-07
-6.51001e-07
-1.33023e-06
-3.18096e-09
-0.00111836
-1.5276e-06
9.92848e-07
4.90051e-07
0.00111916
-5.62138e-07
1.05336e-06
8.03192e-08
6.62558e-07
-6.53619e-07
-1.33005e-06
-1.0472e-09
-0.000273915
1.56217e-06
1.52793e-06
-5.62545e-07
-5.68242e-07
0.000271955
-9.71256e-07
-9.72015e-07
-0.00112539
5.04125e-07
5.04855e-07
0.00112633
-0.00112184
-1.53323e-06
9.72074e-07
4.78031e-07
0.00112259
-5.57363e-07
1.07103e-06
8.74677e-08
6.74809e-07
-6.35918e-07
-1.32125e-06
7.51725e-09
-0.00112148
-1.52766e-06
9.71825e-07
4.77493e-07
0.00112224
-5.57225e-07
1.06542e-06
8.76739e-08
6.74668e-07
-6.38504e-07
-1.32102e-06
1.08382e-08
-0.000274471
1.562e-06
1.52766e-06
-5.54851e-07
-5.60581e-07
0.000272497
-9.49953e-07
-9.50754e-07
-0.00112909
4.94658e-07
4.95282e-07
0.00113
-0.0011248
-1.53212e-06
9.50647e-07
4.66125e-07
0.00112552
-5.49737e-07
1.08255e-06
9.49479e-08
6.85143e-07
-6.19958e-07
-1.31084e-06
1.72836e-08
-0.00112445
-1.52663e-06
9.5053e-07
4.6591e-07
0.00112516
-5.49714e-07
1.07676e-06
9.48037e-08
6.85144e-07
-6.22545e-07
-1.31066e-06
2.05486e-08
-0.000274965
1.56121e-06
1.52676e-06
-5.46666e-07
-5.52423e-07
0.000272976
-9.28138e-07
-9.28882e-07
-0.0011327
4.8439e-07
4.8508e-07
0.00113359
-0.0011276
-1.53016e-06
9.28632e-07
4.55312e-07
0.00112828
-5.40575e-07
1.09307e-06
1.01667e-07
6.94316e-07
-6.03284e-07
-1.29927e-06
2.5949e-08
-0.00112725
-1.52467e-06
9.28623e-07
4.54852e-07
0.00112792
-5.40554e-07
1.08742e-06
1.01773e-07
6.94192e-07
-6.05845e-07
-1.29895e-06
2.9031e-08
-0.000275395
1.55911e-06
1.52458e-06
-5.37184e-07
-5.42919e-07
0.000273391
-9.07098e-07
-9.076e-07
-0.00113622
4.74614e-07
4.75393e-07
0.00113708
-0.00113024
-1.52721e-06
9.07385e-07
4.4483e-07
0.00113087
-5.30193e-07
1.10254e-06
1.07735e-07
7.02698e-07
-5.86232e-07
-1.28588e-06
3.35242e-08
-0.00112988
-1.52163e-06
9.07047e-07
4.44468e-07
0.00113051
-5.30087e-07
1.09685e-06
1.07868e-07
7.02623e-07
-5.88751e-07
-1.28569e-06
3.66937e-08
-0.000275756
1.55633e-06
1.52176e-06
-5.27334e-07
-5.33073e-07
0.000273738
-8.85884e-07
-8.86515e-07
-0.00113964
4.65057e-07
4.65762e-07
0.00114048
-0.00113269
-1.523e-06
8.86481e-07
4.34449e-07
0.00113328
-5.18573e-07
1.11118e-06
1.13563e-07
7.10219e-07
-5.69175e-07
-1.27134e-06
4.04405e-08
-0.00113233
-1.51756e-06
8.86271e-07
4.34211e-07
0.00113292
-5.18663e-07
1.1054e-06
1.13604e-07
7.10159e-07
-5.71677e-07
-1.27108e-06
4.35328e-08
-0.000276047
1.55219e-06
1.51754e-06
-5.16421e-07
-5.22149e-07
0.000274016
-8.65368e-07
-8.65991e-07
-0.00114296
4.55998e-07
4.56662e-07
0.00114378
-0.00113497
-1.51761e-06
8.65929e-07
4.25213e-07
0.00113551
-5.09518e-07
1.1187e-06
1.21366e-07
7.17294e-07
-5.52176e-07
-1.25554e-06
4.69444e-08
-0.00113461
-1.51218e-06
8.65729e-07
4.25053e-07
0.00113515
-5.06744e-07
1.11289e-06
1.18555e-07
7.17275e-07
-5.54618e-07
-1.25527e-06
5.00308e-08
-0.000276267
1.54683e-06
1.51213e-06
-5.04693e-07
-5.10417e-07
0.000274223
-8.44811e-07
-8.45366e-07
-0.00114621
4.47042e-07
4.47745e-07
0.001147
-0.00113705
-1.51069e-06
8.45259e-07
4.15906e-07
0.00113754
-4.97104e-07
1.12566e-06
1.2625e-07
7.23971e-07
-5.35316e-07
-1.23883e-06
5.31979e-08
-0.00113669
-1.50529e-06
8.45209e-07
4.15979e-07
0.00113718
-4.94361e-07
1.11981e-06
1.23333e-07
7.23925e-07
-5.37752e-07
-1.23859e-06
5.62543e-08
-0.000276417
1.53991e-06
1.50516e-06
-4.91864e-07
-4.97575e-07
0.000274361
-8.23686e-07
-8.24309e-07
-0.00114935
4.37738e-07
4.38502e-07
0.00115013
-0.00113895
-1.50273e-06
8.24202e-07
4.07602e-07
0.00113939
-4.84375e-07
1.13157e-06
1.31287e-07
7.3032e-07
-5.18909e-07
-1.22159e-06
5.93371e-08
-0.00113859
-1.49716e-06
8.2416e-07
4.07192e-07
0.00113903
-4.8161e-07
1.1259e-06
1.28341e-07
7.30254e-07
-5.21297e-07
-1.22134e-06
6.23458e-08
-0.000276496
1.53189e-06
1.4971e-06
-4.7861e-07
-4.84317e-07
0.00027443
-8.02093e-07
-8.02776e-07
-0.0011524
4.2837e-07
4.28917e-07
0.00115315
-0.00114065
-1.49362e-06
8.02547e-07
3.99569e-07
0.00114104
-4.71024e-07
1.13698e-06
1.36357e-07
7.36491e-07
-5.02713e-07
-1.20389e-06
6.55704e-08
-0.00114028
-1.48808e-06
8.02434e-07
3.99762e-07
0.00114068
-4.68397e-07
1.13117e-06
1.33161e-07
7.36431e-07
-5.05199e-07
-1.20368e-06
6.85592e-08
-0.000276511
1.52284e-06
1.48813e-06
-4.65119e-07
-4.7074e-07
0.000274436
-7.79623e-07
-7.8016e-07
-0.00115536
4.18261e-07
4.18885e-07
0.00115608
-0.00114215
-1.48359e-06
7.80019e-07
3.91831e-07
0.00114249
-4.58038e-07
1.14202e-06
1.41262e-07
7.42824e-07
-4.86685e-07
-1.18575e-06
7.19572e-08
-0.00114178
-1.47783e-06
7.80132e-07
3.91711e-07
0.00114213
-4.55092e-07
1.13644e-06
1.38385e-07
7.42635e-07
-4.89289e-07
-1.18565e-06
7.48134e-08
-0.000276465
1.51299e-06
1.47823e-06
-4.51474e-07
-4.5712e-07
0.000274382
-7.57526e-07
-7.58043e-07
-0.00115821
4.08872e-07
4.09267e-07
0.00115891
-0.00114345
-1.47262e-06
7.57322e-07
3.84142e-07
0.00114374
-4.45513e-07
1.1467e-06
1.45585e-07
7.49139e-07
-4.70974e-07
-1.16758e-06
7.84545e-08
-0.00114308
-1.46693e-06
7.57534e-07
3.84271e-07
0.00114338
-4.42593e-07
1.14104e-06
1.42722e-07
7.48965e-07
-4.73576e-07
-1.16747e-06
8.13138e-08
-0.000276366
1.50202e-06
1.46723e-06
-4.37485e-07
-4.431e-07
0.000274277
-7.35155e-07
-7.35439e-07
-0.00116096
3.99285e-07
4.00187e-07
0.00116163
-0.00114455
-1.46109e-06
7.35547e-07
3.7674e-07
0.0011448
-4.3329e-07
1.15115e-06
1.49917e-07
7.55441e-07
-4.55812e-07
-1.14958e-06
8.4885e-08
-0.00114419
-1.45531e-06
7.34653e-07
3.75963e-07
0.00114444
-4.30232e-07
1.14568e-06
1.47323e-07
7.5547e-07
-4.58274e-07
-1.14926e-06
8.78524e-08
-0.000276219
1.49017e-06
1.45546e-06
-4.23391e-07
-4.28902e-07
0.000274126
-7.12437e-07
-7.12181e-07
-0.00116361
3.89721e-07
3.91009e-07
0.00116425
-0.00114547
-1.4484e-06
7.12365e-07
3.6688e-07
0.00114567
-4.20938e-07
1.15607e-06
1.54594e-07
7.61773e-07
-4.40971e-07
-1.13183e-06
9.14985e-08
-0.0011451
-1.44272e-06
7.1214e-07
3.66198e-07
0.0011453
-4.18037e-07
1.15053e-06
1.5186e-07
7.61562e-07
-4.4359e-07
-1.13173e-06
9.43003e-08
-0.000276033
1.47765e-06
1.44287e-06
-4.09461e-07
-4.15028e-07
0.000273937
-6.87978e-07
-6.89282e-07
-0.00116614
3.80551e-07
3.80632e-07
0.00116676
-0.0011462
-1.43568e-06
6.90206e-07
3.56765e-07
0.00114635
-4.09285e-07
1.16062e-06
1.58928e-07
7.68088e-07
-4.26619e-07
-1.11452e-06
9.81168e-08
-0.00114583
-1.43015e-06
6.8974e-07
3.56673e-07
0.00114599
-4.0646e-07
1.15496e-06
1.56144e-07
7.67918e-07
-4.29178e-07
-1.11432e-06
1.00929e-07
-0.000275817
1.46492e-06
1.43015e-06
-3.95951e-07
-4.01468e-07
0.00027372
-6.66967e-07
-6.66521e-07
-0.00116856
3.72314e-07
3.73751e-07
0.00116915
-0.00114675
-1.42257e-06
6.66944e-07
3.45147e-07
0.00114686
-3.97715e-07
1.16528e-06
1.63409e-07
7.74192e-07
-4.12772e-07
-1.0979e-06
1.04756e-07
-0.00114638
-1.41676e-06
6.65858e-07
3.43364e-07
0.0011465
-3.94621e-07
1.15995e-06
1.60943e-07
7.74129e-07
-4.15327e-07
-1.09764e-06
1.07586e-07
-0.000275578
1.45191e-06
1.41708e-06
-3.82619e-07
-3.8822e-07
0.00027348
-6.42673e-07
-6.42963e-07
-0.00117087
3.63866e-07
3.6431e-07
0.00117142
-0.00114713
-1.40929e-06
6.43652e-07
3.32244e-07
0.00114721
-3.86297e-07
1.16999e-06
1.67979e-07
7.80172e-07
-3.99452e-07
-1.08182e-06
1.11308e-07
-0.00114677
-1.4043e-06
6.44368e-07
3.34563e-07
0.00114684
-3.84094e-07
1.16371e-06
1.64545e-07
7.80118e-07
-4.02017e-07
-1.08154e-06
1.14023e-07
-0.000275323
1.43845e-06
1.40386e-06
-3.6973e-07
-3.75061e-07
0.000273226
-6.20567e-07
-6.21748e-07
-0.00117305
3.57519e-07
3.56762e-07
0.00117358
-0.00114736
-1.39607e-06
6.17999e-07
3.16633e-07
0.0011474
-3.74849e-07
1.17498e-06
1.73324e-07
7.86319e-07
-3.86526e-07
-1.06591e-06
1.17782e-07
-0.001147
-1.39005e-06
6.19502e-07
3.16755e-07
0.00114703
-3.71462e-07
1.16974e-06
1.7102e-07
7.85968e-07
-3.89134e-07
-1.06594e-06
1.20502e-07
-0.000275058
1.42593e-06
1.39089e-06
-3.57543e-07
-3.63258e-07
0.000272962
-5.94356e-07
-5.95307e-07
-0.00117512
3.4666e-07
3.47059e-07
0.00117561
-0.00114745
-1.3837e-06
5.96241e-07
3.03706e-07
0.00114745
-3.64974e-07
1.17882e-06
1.77052e-07
7.91927e-07
-3.74377e-07
-1.05139e-06
1.24012e-07
-0.00114708
-1.37819e-06
5.94175e-07
3.01555e-07
0.00114709
-3.62068e-07
1.17343e-06
1.74951e-07
7.92421e-07
-3.76432e-07
-1.05069e-06
1.27282e-07
-0.000274789
1.4125e-06
1.3779e-06
-3.45874e-07
-3.51129e-07
0.000272695
-5.74663e-07
-5.72473e-07
-0.00117706
3.39993e-07
3.42285e-07
0.00117752
-0.00114741
-1.37177e-06
5.73773e-07
2.91378e-07
0.00114738
-3.55007e-07
1.1825e-06
1.81312e-07
7.97601e-07
-3.62459e-07
-1.03688e-06
1.30048e-07
-0.00114704
-1.36644e-06
5.75757e-07
2.9144e-07
0.00114701
-3.53129e-07
1.17637e-06
1.7745e-07
7.96773e-07
-3.65384e-07
-1.03757e-06
1.32581e-07
-0.000274516
1.401e-06
1.36625e-06
-3.35418e-07
-3.40909e-07
0.000272425
-5.47846e-07
-5.49958e-07
-0.00117887
3.31972e-07
3.31722e-07
0.0011793
-0.00114726
-1.3582e-06
5.47938e-07
2.66729e-07
0.00114721
-3.43332e-07
1.18843e-06
1.87987e-07
8.0273e-07
-3.51134e-07
-1.02384e-06
1.36341e-07
-0.00114689
-1.35322e-06
5.46187e-07
2.71681e-07
0.00114683
-3.41084e-07
1.18186e-06
1.84111e-07
8.02717e-07
-3.53459e-07
-1.02325e-06
1.39219e-07
-0.000274249
1.38861e-06
1.35415e-06
-3.24851e-07
-3.3003e-07
0.000272161
-5.23516e-07
-5.20301e-07
-0.00118055
3.17307e-07
3.23189e-07
0.00118096
-0.00114701
-1.34912e-06
5.29496e-07
2.61036e-07
0.00114693
-3.36673e-07
1.18955e-06
1.89632e-07
8.07244e-07
-3.40649e-07
-1.01152e-06
1.41579e-07
-0.00114665
-1.34147e-06
5.18847e-07
2.48291e-07
0.00114657
-3.31167e-07
1.18662e-06
1.89966e-07
8.08288e-07
-3.42644e-07
-1.01049e-06
1.45448e-07
-0.000273989
1.37575e-06
1.34169e-06
-3.14056e-07
-3.19221e-07
0.000271905
-4.95005e-07
-4.98547e-07
-0.00118211
3.17176e-07
3.12728e-07
0.00118248
-0.00114667
-1.33494e-06
4.9316e-07
2.31446e-07
0.00114657
-3.24157e-07
1.1965e-06
1.97129e-07
8.1389e-07
-3.28802e-07
-9.97538e-07
1.49012e-07
-0.0011463
-1.33173e-06
5.04866e-07
2.37541e-07
0.00114621
-3.24196e-07
1.18847e-06
1.91818e-07
8.1194e-07
-3.33079e-07
-9.99015e-07
1.49784e-07
-0.000273729
1.36675e-06
1.33078e-06
-3.0521e-07
-3.1159e-07
0.000271649
-4.79576e-07
-4.78247e-07
-0.00118353
3.09862e-07
3.0827e-07
0.00118387
-0.00114626
-1.32771e-06
4.72817e-07
2.25195e-07
0.00114615
-3.1838e-07
1.1967e-06
1.98866e-07
8.18598e-07
-3.19444e-07
-9.86109e-07
1.53846e-07
-0.00114587
-1.32084e-06
4.83216e-07
2.27033e-07
0.00114575
-3.14833e-07
1.19159e-06
1.95866e-07
8.17503e-07
-3.22251e-07
-9.86496e-07
1.55919e-07
-0.00027348
1.35544e-06
1.32067e-06
-2.96568e-07
-3.01528e-07
0.000271402
-4.55769e-07
-4.6236e-07
-0.0011848
3.13249e-07
3.14466e-07
0.00118509
-0.00114576
-1.31333e-06
4.5725e-07
1.95236e-07
0.00114563
-3.06319e-07
1.20351e-06
2.05678e-07
8.20862e-07
-3.11048e-07
-9.76918e-07
1.57954e-07
-0.00114539
-1.3087e-06
4.36196e-07
1.9332e-07
0.00114527
-3.03886e-07
1.19704e-06
2.02717e-07
8.24388e-07
-3.1029e-07
-9.73532e-07
1.64176e-07
-0.000273235
1.34484e-06
1.31161e-06
-2.88225e-07
-2.92881e-07
0.000271159
-4.12463e-07
-4.13978e-07
-0.00118594
2.84121e-07
2.74518e-07
0.00118621
-0.00114525
-1.30462e-06
4.1031e-07
1.78183e-07
0.00114511
-2.98857e-07
1.20638e-06
2.09841e-07
8.28177e-07
-2.99634e-07
-9.63934e-07
1.65658e-07
-0.00114487
-1.30015e-06
4.3046e-07
1.85375e-07
0.00114473
-2.96795e-07
1.20014e-06
2.06923e-07
8.23665e-07
-3.06964e-07
-9.67843e-07
1.63783e-07
-0.000273001
1.33133e-06
1.29572e-06
-2.77259e-07
-2.8365e-07
0.000270935
-4.01895e-07
-4.06024e-07
-0.001187
2.66872e-07
2.69292e-07
0.00118727
-0.00114467
-1.29785e-06
4.00479e-07
1.57536e-07
0.00114454
-2.93545e-07
1.20667e-06
2.11313e-07
8.28937e-07
-2.94949e-07
-9.57546e-07
1.67006e-07
-0.00114434
-1.29197e-06
4.07e-07
1.7422e-07
0.00114419
-2.92758e-07
1.19988e-06
2.04963e-07
8.29616e-07
-2.95612e-07
-9.55984e-07
1.70493e-07
-0.000272796
1.33168e-06
1.29625e-06
-2.77475e-07
-2.82646e-07
0.000270728
-3.74211e-07
-3.7452e-07
-0.00118794
2.66275e-07
2.84784e-07
0.00118814
-0.00114411
-1.28866e-06
3.83968e-07
1.467e-07
0.00114397
-2.83706e-07
1.2096e-06
2.11403e-07
8.31133e-07
-2.87736e-07
-9.4841e-07
1.6899e-07
-0.00114374
-1.27877e-06
3.54826e-07
1.27773e-07
0.00114359
-2.78852e-07
1.20857e-06
2.16158e-07
8.38677e-07
-2.83059e-07
-9.42324e-07
1.81e-07
-0.000272577
1.31807e-06
1.28252e-06
-2.64023e-07
-2.7085e-07
0.000270512
-3.42171e-07
-3.80773e-07
-0.00118872
2.97246e-07
2.36564e-07
0.00118891
-0.00114361
-1.28103e-06
3.53005e-07
1.30569e-07
0.00114348
-2.80078e-07
1.20985e-06
2.09606e-07
8.34993e-07
-2.79545e-07
-9.40761e-07
1.7495e-07
-0.00114311
-1.28433e-06
3.9424e-07
1.59079e-07
0.00114298
-2.85586e-07
1.19819e-06
2.0808e-07
8.22849e-07
-2.93664e-07
-9.50582e-07
1.647e-07
-0.000272366
1.30717e-06
1.2701e-06
-2.61105e-07
-2.66978e-07
0.000270317
-3.56132e-07
-2.93164e-07
-0.00118949
1.79629e-07
2.71978e-07
0.00118968
-0.00114306
-1.28492e-06
3.24783e-07
1.78381e-07
0.0011429
-2.81693e-07
1.20371e-06
2.07858e-07
8.36448e-07
-2.71994e-07
-9.341e-07
1.7906e-07
-0.00114277
-1.26152e-06
2.18628e-07
6.17195e-08
0.00114275
-2.65615e-07
1.21636e-06
2.22088e-07
8.42444e-07
-2.67618e-07
-9.29758e-07
1.90724e-07
-0.00027226
1.29633e-06
1.28384e-06
-2.68688e-07
-2.60211e-07
0.000270209
-2.08766e-07
-1.77114e-07
-0.00119033
7.02592e-08
1.27028e-07
0.00119052
-0.0011425
-1.24984e-06
2.66507e-07
-1.95342e-08
0.00114245
-2.46064e-07
1.24326e-06
2.47531e-07
8.34766e-07
-2.74128e-07
-9.34837e-07
1.78126e-07
-0.00114248
-1.2512e-06
2.98918e-07
6.87301e-08
0.00114229
-2.57792e-07
1.23214e-06
2.38246e-07
8.52546e-07
-2.68622e-07
-9.22097e-07
1.93488e-07
-0.000272102
1.30999e-06
1.24748e-06
-2.30252e-07
-2.56673e-07
0.000270031
-1.21497e-07
-3.26139e-07
-0.00119055
5.17526e-07
1.71816e-07
0.00119031
-0.00114235
-1.21226e-06
2.98069e-08
-1.33304e-07
0.00114216
-2.28843e-07
1.26424e-06
2.51822e-07
9.45382e-07
-1.7862e-07
-8.299e-07
2.78322e-07
-0.00114123
-1.25228e-06
3.05195e-07
2.31654e-07
0.00114064
-2.70126e-07
1.19966e-06
2.00212e-07
9.30872e-07
-1.89111e-07
-8.29386e-07
2.57307e-07
-0.000271632
1.32651e-06
1.25091e-06
-2.30876e-07
-2.57453e-07
0.000269542
-4.62756e-07
-3.85639e-07
-0.00118927
5.16673e-07
5.02348e-07
0.0011891
-0.00114046
-1.33691e-06
3.08749e-07
7.49282e-07
0.00113967
-3.24578e-07
1.12089e-06
1.44879e-07
9.06809e-07
-1.90638e-07
-8.32889e-07
2.37395e-07
-0.0011389
-1.29146e-06
3.09167e-07
3.74461e-07
0.00113857
-2.77759e-07
1.15857e-06
1.99393e-07
8.34181e-07
-2.52371e-07
-9.05298e-07
1.80555e-07
-0.000271368
1.18597e-06
1.21806e-06
-2.24727e-07
-1.78539e-07
0.000269368
5.22146e-06
5.23231e-06
0.000260567
-0.000259171
-5.93189e-06
-5.91777e-06
5.08158e-06
0.000261409
-0.000258686
-5.96204e-06
3.37916e-06
-5.22153e-06
5.07656e-06
0.000261442
-0.000258702
-5.97005e-06
3.37432e-06
5.22214e-06
0.000260579
-0.000259173
-5.90328e-06
-5.94651e-06
5.07467e-06
0.000261473
-0.000258717
-5.96755e-06
3.369e-06
5.0814e-06
-5.22378e-06
0.000261417
-0.000258686
3.38421e-06
-5.97225e-06
1.07111e-05
1.06174e-05
-0.000252649
-0.000256079
-0.000255118
-0.000255118
-6.41734e-06
-4.12515e-06
-6.6623e-06
-6.41771e-06
-4.12609e-06
-6.66784e-06
-5.06963e-06
0.00104223
1.06707e-05
1.06227e-05
-0.000252651
-0.000256076
-0.000255121
-0.000255121
-6.41996e-06
-4.12544e-06
-6.66504e-06
-6.41517e-06
-4.12087e-06
-6.66025e-06
-5.06927e-06
0.00104211
1.0731e-05
1.06833e-05
-0.000252643
-0.000256071
-0.000255118
-0.000255113
-6.41981e-06
-4.13282e-06
-6.66497e-06
-6.42001e-06
-4.12309e-06
-6.66258e-06
-5.08397e-06
-5.07209e-06
0.00104217
1.07263e-05
1.06276e-05
-0.000252646
-0.000256074
-0.000255118
-0.000255118
-6.4147e-06
-4.12777e-06
-6.65997e-06
-6.42014e-06
-4.12593e-06
-6.6653e-06
-0.000258712
-5.95991e-06
3.36395e-06
-5.22138e-06
0.000261404
-0.000258684
3.37919e-06
-5.96198e-06
5.22453e-06
0.000260559
-0.000259158
-5.9056e-06
-5.94373e-06
-0.000258697
3.37148e-06
-5.95704e-06
-5.23228e-06
0.000261471
-0.000258712
3.36649e-06
-5.96502e-06
-0.000259168
-5.93177e-06
-5.9178e-06
5.61757e-06
5.65479e-06
-4.87838e-06
-4.87223e-06
0.000259045
-7.80481e-07
-7.44603e-07
0.000261544
-0.000259462
-2.82244e-07
-2.74852e-07
7.09202e-06
0.00105882
-4.53008e-06
-1.57833e-06
-2.21273e-06
-2.57666e-06
-6.60588e-06
-7.05009e-06
-3.17074e-06
-0.000263264
-0.000259684
-0.000262793
-5.62803e-06
1.4555e-05
7.03143e-06
0.00105919
-4.54921e-06
-1.57072e-06
-2.21587e-06
-2.58757e-06
-6.6374e-06
-7.067e-06
-3.18641e-06
-0.000263338
-0.000259715
-0.000262834
0.00106192
2.02401e-06
-0.00106086
9.73752e-07
-1.71809e-06
-1.69108e-07
-6.9224e-07
-1.46543e-06
-3.07555e-07
-8.28054e-07
3.43224e-07
7.88563e-07
0.00106234
2.02437e-06
-0.00106128
9.68688e-07
-1.72851e-06
-1.61612e-07
-6.9774e-07
-1.47114e-06
-3.07706e-07
-8.28419e-07
3.48639e-07
-4.87646e-06
-4.86912e-06
0.000259055
-7.47278e-07
0.000261569
-0.000259482
-2.79598e-07
-2.71983e-07
6.81326e-06
0.00105966
-4.55437e-06
-1.63766e-06
-2.22893e-06
-2.58587e-06
-6.61991e-06
-7.06238e-06
-3.18164e-06
-0.000263359
-0.000259742
-0.000262847
-5.62773e-06
1.45894e-05
7.12547e-06
0.00105896
-4.54903e-06
-1.58079e-06
-2.2209e-06
-2.58953e-06
-6.6367e-06
-7.06587e-06
-3.18603e-06
-0.000259684
-0.000263315
-0.000262806
0.00106294
2.03159e-06
-0.00106187
9.6225e-07
-1.68817e-06
-1.71616e-07
-6.92518e-07
-1.46847e-06
-3.07668e-07
-8.2582e-07
3.45597e-07
7.77943e-07
0.00106203
2.0346e-06
-0.00106099
9.84064e-07
-1.71815e-06
-1.66657e-07
-6.92438e-07
-1.46825e-06
-3.05089e-07
-8.30807e-07
3.43167e-07
1.45864e-05
7.11279e-06
0.00105877
-4.53002e-06
-1.57822e-06
-2.2101e-06
-2.57669e-06
-6.60589e-06
-3.17079e-06
-7.04777e-06
-0.000259679
-0.000263259
-0.000262788
2.03091e-06
-0.00106161
9.67483e-07
-1.68807e-06
-1.68942e-07
-6.89599e-07
-1.46576e-06
-3.1004e-07
3.40406e-07
-8.25542e-07
7.77918e-07
0.00106182
2.03422e-06
-0.00106078
9.84099e-07
-1.71806e-06
-1.6654e-07
-6.92196e-07
-1.46811e-06
-3.0753e-07
-8.28007e-07
3.45756e-07
-4.88128e-06
-4.8689e-06
0.000259035
-7.39135e-07
0.000261521
-0.000259444
-2.82644e-07
-2.7721e-07
1.44875e-05
6.83175e-06
0.00105961
-4.55451e-06
-1.63767e-06
-2.22898e-06
-2.5857e-06
-6.61978e-06
-3.18154e-06
-7.05965e-06
-0.000259732
-0.000263356
-0.000262842
2.03595e-06
-0.00106131
9.83006e-07
-1.68559e-06
-1.7149e-07
-6.9227e-07
-1.46262e-06
-3.05021e-07
3.40449e-07
-8.28068e-07
7.39229e-07
0.00106284
2.03659e-06
-0.00106179
9.72566e-07
-1.68313e-06
-1.71643e-07
-6.8994e-07
-1.4657e-06
-3.07509e-07
-8.28235e-07
3.40606e-07
-0.000259459
-2.79776e-07
-2.77425e-07
1.63935e-06
1.60415e-06
-7.10562e-07
-7.19032e-07
0.00025973
-8.6633e-07
-8.27636e-07
0.000262778
-0.000260667
-2.12629e-07
-2.05055e-07
8.29639e-07
0.00106319
-6.56443e-07
8.17759e-07
-1.433e-07
3.78167e-07
-8.00557e-07
-1.39714e-06
-2.90472e-07
-1.64463e-06
1.63226e-06
8.24415e-07
0.00106362
-6.59297e-07
8.25832e-07
-1.43307e-07
3.83593e-07
-8.03531e-07
-1.40283e-06
-2.88163e-07
0.00106713
1.38301e-06
-0.0010658
7.02154e-07
-1.59182e-06
-1.03503e-07
-6.2866e-07
-1.35465e-06
-2.4903e-07
-7.76777e-07
4.224e-07
8.71694e-07
0.00106757
1.38328e-06
-0.00106623
6.97077e-07
-1.59714e-06
-1.03619e-07
-6.28884e-07
-1.35764e-06
-2.49139e-07
-7.77136e-07
4.25207e-07
-7.11053e-07
-7.18361e-07
0.000259748
-8.32892e-07
0.000262804
-0.000260679
-2.12669e-07
-2.07556e-07
8.23145e-07
0.00106421
-6.54081e-07
7.81858e-07
-1.45756e-07
3.80614e-07
-8.03598e-07
-1.40027e-06
-2.88114e-07
-1.63935e-06
1.63749e-06
8.297e-07
0.0010633
-6.59281e-07
8.17861e-07
-1.43345e-07
3.78182e-07
-8.03266e-07
-1.39733e-06
-2.87988e-07
0.00106816
1.38438e-06
-0.00106684
7.01114e-07
-1.55391e-06
-1.08435e-07
-6.23657e-07
-1.35235e-06
-2.46603e-07
-7.77121e-07
4.25054e-07
8.61111e-07
0.00106725
1.38304e-06
-0.00106591
7.02235e-07
-1.58922e-06
-1.06084e-07
-6.28797e-07
-1.35478e-06
-2.48994e-07
-7.76838e-07
4.25176e-07
1.63205e-06
8.29733e-07
0.0010631
-6.59069e-07
8.15186e-07
-1.45741e-07
3.78104e-07
-8.03181e-07
-2.88027e-07
-1.39723e-06
1.38399e-06
-0.00106657
7.06471e-07
-1.56169e-06
-1.10854e-07
-6.23498e-07
-1.35226e-06
-2.46622e-07
4.24922e-07
-7.7693e-07
8.63708e-07
0.00106704
1.37773e-06
-0.0010657
7.02254e-07
-1.58914e-06
-1.05963e-07
-6.28633e-07
-1.35472e-06
-2.49053e-07
-7.76777e-07
4.22418e-07
-7.13822e-07
-7.15804e-07
0.000259709
-8.24826e-07
0.000262753
-0.000260646
-2.12858e-07
-2.07511e-07
1.63355e-06
8.18033e-07
0.00106413
-6.54139e-07
7.76438e-07
-1.5087e-07
3.75479e-07
-8.00811e-07
-2.92947e-07
-1.39476e-06
1.38398e-06
-0.00106625
7.01387e-07
-1.55117e-06
-1.10856e-07
-6.23452e-07
-1.34669e-06
-2.49032e-07
4.16863e-07
-7.76854e-07
8.27502e-07
0.00106807
1.38438e-06
-0.00106674
7.01192e-07
-1.55136e-06
-1.1101e-07
-6.2373e-07
-1.35492e-06
-2.49047e-07
-7.79708e-07
4.22393e-07
-0.000260654
-2.12731e-07
-2.07646e-07
1.58996e-06
1.55721e-06
-6.72235e-07
-6.80571e-07
0.000260984
-8.90489e-07
-8.54276e-07
0.00026406
-0.000261937
-1.91616e-07
-1.86555e-07
6.91218e-07
0.00106848
-6.29687e-07
8.72073e-07
-9.92499e-08
4.2454e-07
-7.7766e-07
-1.35445e-06
-2.47558e-07
-1.59533e-06
1.36146e-06
7.01848e-07
0.00106891
-6.29908e-07
8.77482e-07
-9.93149e-08
4.30068e-07
-7.80615e-07
-1.36007e-06
-2.4271e-07
0.00107249
1.34952e-06
-0.00107117
6.75826e-07
-1.58991e-06
-8.55328e-08
-6.24922e-07
-1.367e-06
-2.29943e-07
-7.78128e-07
4.33834e-07
8.95928e-07
0.00107292
1.34982e-06
-0.00107159
6.7604e-07
-1.59526e-06
-8.31268e-08
-6.27782e-07
-1.3753e-06
-2.25024e-07
-7.83674e-07
4.42098e-07
-6.75283e-07
-6.77496e-07
0.000261005
-8.56943e-07
0.000264088
-0.000261963
-1.89016e-07
-1.8382e-07
6.90229e-07
0.00106952
-6.27347e-07
8.35992e-07
-1.04176e-07
4.27153e-07
-7.80589e-07
-1.36003e-06
-2.42659e-07
-1.58735e-06
1.36128e-06
6.96572e-07
0.00106859
-6.29858e-07
8.69501e-07
-9.92853e-08
4.27294e-07
-7.803e-07
-1.35721e-06
-2.42538e-07
0.00107352
1.35084e-06
-0.0010722
6.74834e-07
-1.55439e-06
-8.79723e-08
-6.22526e-07
-1.36993e-06
-2.25003e-07
-7.83684e-07
4.36504e-07
8.90566e-07
0.0010726
1.34962e-06
-0.00107127
6.75986e-07
-1.58993e-06
-8.30836e-08
-6.27723e-07
-1.36968e-06
-2.24873e-07
-7.83375e-07
4.36604e-07
1.36625e-06
6.9133e-07
0.00106839
-6.27e-07
8.66806e-07
-1.04155e-07
4.2718e-07
-7.80256e-07
-2.45103e-07
-1.35717e-06
1.35051e-06
-0.00107193
6.74955e-07
-1.55696e-06
-8.78722e-08
-6.22357e-07
-1.36723e-06
-2.27513e-07
4.33723e-07
-7.80922e-07
8.8517e-07
0.0010724
1.34943e-06
-0.00107107
6.75938e-07
-1.58462e-06
-8.79543e-08
-6.22202e-07
-1.36706e-06
-2.27466e-07
-7.807e-07
4.33834e-07
-6.75376e-07
-6.80015e-07
0.000260969
-8.51518e-07
0.000264039
-0.000261921
-1.91708e-07
-1.83825e-07
1.36252e-06
6.95525e-07
0.00106942
-6.22094e-07
8.27954e-07
-1.09165e-07
4.24568e-07
-7.77918e-07
-2.45116e-07
-1.35476e-06
1.35041e-06
-0.0010716
6.75034e-07
-1.55165e-06
-9.03326e-08
-6.19664e-07
-1.36693e-06
-2.24974e-07
4.3372e-07
-7.834e-07
8.51509e-07
0.00107344
1.35086e-06
-0.00107211
6.74882e-07
-1.55186e-06
-9.04655e-08
-6.19946e-07
-1.36467e-06
-2.27479e-07
-7.80988e-07
4.3121e-07
-0.000261934
-1.89139e-07
-1.83943e-07
1.58854e-06
1.55297e-06
-6.619e-07
-6.67629e-07
0.000262248