/*--------------------------------*- C++ -*----------------------------------*\
| =========                 |                                                 |
| \\      /  F ield         | OpenFOAM: The Open Source CFD Toolbox           |
|  \\    /   O peration     | Version:  v2012                                 |
|   \\  /    A nd           | Website:  www.openfoam.com                      |
|    \\/     M anipulation  |                                                 |
\*---------------------------------------------------------------------------*/
FoamFile
{
    version     2.0;
    format      ascii;
    class       volVectorField;
    location    "625";
    object      U;
}
// * * * * * * * * * * * * * * * * * * * * * * * * * * * * * * * * * * * * * //

dimensions      [0 1 -1 0 0 0 0];


internalField   nonuniform List<vector> 
85864
(
(0.000107958 0.000107892 0.100299)
(-0.000190195 0.00011927 0.100385)
(0.000119341 -0.000190187 0.100385)
(-0.000239594 -0.000239612 0.100397)
(9.42792e-05 9.42319e-05 0.10086)
(-0.000158939 9.68064e-05 0.100942)
(9.68112e-05 -0.000158935 0.100942)
(-0.000201047 -0.0002011 0.100968)
(9.54246e-05 9.54125e-05 0.10137)
(-0.000155796 9.34671e-05 0.101449)
(9.34564e-05 -0.000155803 0.101449)
(-0.000201987 -0.000202039 0.101471)
(9.38832e-05 9.38736e-05 0.101892)
(-0.000152046 9.00873e-05 0.101957)
(9.00997e-05 -0.000152051 0.101957)
(-0.000198932 -0.000198978 0.101964)
(9.11287e-05 9.11267e-05 0.102398)
(-0.000146289 8.55709e-05 0.102446)
(8.55855e-05 -0.000146294 0.102446)
(-0.00019355 -0.000193597 0.102432)
(8.81493e-05 8.81539e-05 0.102885)
(-0.000140624 8.15999e-05 0.102912)
(8.1619e-05 -0.000140631 0.102912)
(-0.000188207 -0.000188256 0.10287)
(8.53146e-05 8.53306e-05 0.103353)
(-0.000135498 7.83988e-05 0.103354)
(7.84359e-05 -0.000135508 0.103354)
(-0.00018376 -0.000183813 0.103281)
(8.28351e-05 8.2844e-05 0.103803)
(-0.000131067 7.59445e-05 0.103774)
(7.59948e-05 -0.000131077 0.103774)
(-0.000180312 -0.000180391 0.103664)
(8.06244e-05 8.05855e-05 0.104237)
(-0.000127335 7.42471e-05 0.104174)
(7.42481e-05 -0.000127329 0.104174)
(-0.00017819 -0.000178234 0.104023)
(7.87154e-05 7.86866e-05 0.104658)
(-0.000124105 7.29111e-05 0.104557)
(7.29095e-05 -0.000124096 0.104557)
(-0.000177042 -0.000177096 0.104358)
(7.70878e-05 7.70694e-05 0.105066)
(-0.000121265 7.17458e-05 0.104924)
(7.17629e-05 -0.000121267 0.104924)
(-0.000176362 -0.000176422 0.104673)
(7.55904e-05 7.55744e-05 0.105464)
(-0.000118717 7.06401e-05 0.105277)
(7.06534e-05 -0.000118709 0.105277)
(-0.000175924 -0.000176 0.104966)
(7.41554e-05 7.41457e-05 0.105851)
(-0.000116266 6.94484e-05 0.105615)
(6.94652e-05 -0.000116263 0.105615)
(-0.000175468 -0.000175574 0.105239)
(7.2734e-05 7.27305e-05 0.106229)
(-0.000113886 6.82404e-05 0.105938)
(6.82241e-05 -0.000113865 0.105938)
(-0.000175159 -0.000175179 0.105491)
(7.13386e-05 7.13295e-05 0.106598)
(-0.000111582 6.7173e-05 0.106248)
(6.71412e-05 -0.000111554 0.106248)
(-0.000174419 -0.000174439 0.10572)
(6.98851e-05 6.989e-05 0.106957)
(-0.000109435 6.61534e-05 0.106543)
(6.61392e-05 -0.000109474 0.106543)
(-0.000173359 -0.00017339 0.105926)
(6.83498e-05 6.83495e-05 0.107308)
(-0.000107405 6.50849e-05 0.106822)
(6.50792e-05 -0.000107447 0.106822)
(-0.000172087 -0.000172135 0.106108)
(6.68313e-05 6.68421e-05 0.107649)
(-0.000105384 6.40001e-05 0.107086)
(6.39695e-05 -0.000105392 0.107086)
(-0.000170294 -0.000170338 0.106264)
(6.53611e-05 6.53822e-05 0.107982)
(-0.00010353 6.2963e-05 0.107334)
(6.29306e-05 -0.000103518 0.107334)
(-0.000168215 -0.000168265 0.106394)
(6.38149e-05 6.38271e-05 0.108306)
(-0.000101583 6.18869e-05 0.107565)
(6.18786e-05 -0.000101585 0.107565)
(-0.000165555 -0.000165603 0.106497)
(6.23011e-05 6.23198e-05 0.108622)
(-9.95755e-05 6.09042e-05 0.107779)
(6.08973e-05 -9.95759e-05 0.107779)
(-0.000162331 -0.000162386 0.106572)
(6.08146e-05 6.08473e-05 0.108928)
(-9.73473e-05 5.9815e-05 0.107975)
(5.98445e-05 -9.73685e-05 0.107974)
(-0.000158406 -0.000158461 0.106621)
(5.93534e-05 5.93785e-05 0.109226)
(-9.49577e-05 5.88383e-05 0.108152)
(5.87766e-05 -9.49574e-05 0.108152)
(-0.000154045 -0.000154109 0.106644)
(5.7885e-05 5.78885e-05 0.109515)
(-9.25354e-05 5.77952e-05 0.108311)
(5.78041e-05 -9.25255e-05 0.108311)
(-0.000149333 -0.000149354 0.106643)
(5.63422e-05 5.63542e-05 0.109794)
(-8.98683e-05 5.66766e-05 0.108451)
(5.66469e-05 -8.98862e-05 0.108451)
(-0.000144282 -0.000144314 0.106619)
(5.4911e-05 5.49107e-05 0.110064)
(-8.70507e-05 5.5499e-05 0.108573)
(5.54881e-05 -8.70791e-05 0.108572)
(-0.000138786 -0.000138813 0.106575)
(5.35341e-05 5.35724e-05 0.110324)
(-8.41369e-05 5.42481e-05 0.108675)
(5.41475e-05 -8.40477e-05 0.108675)
(-0.000133078 -0.000133077 0.106515)
(5.2189e-05 5.22695e-05 0.110574)
(-8.0978e-05 5.26022e-05 0.10876)
(5.25026e-05 -8.0969e-05 0.108759)
(-0.000127221 -0.000127239 0.10644)
(5.09363e-05 5.0886e-05 0.110813)
(-7.77524e-05 5.08541e-05 0.108827)
(5.08132e-05 -7.7713e-05 0.108826)
(-0.000121402 -0.000121421 0.106354)
(4.97753e-05 4.98652e-05 0.111042)
(-7.43305e-05 4.89007e-05 0.108877)
(4.8726e-05 -7.42659e-05 0.108877)
(-0.000115508 -0.000115561 0.106261)
(4.85733e-05 4.8586e-05 0.11126)
(-7.08167e-05 4.67691e-05 0.108912)
(4.71162e-05 -7.09242e-05 0.108911)
(-0.000109714 -0.000109675 0.106162)
(4.75637e-05 4.74649e-05 0.111466)
(-6.69646e-05 4.42617e-05 0.108932)
(4.42089e-05 -6.71183e-05 0.108931)
(-0.000104223 -0.000104322 0.106059)
(4.61699e-05 4.61251e-05 0.11166)
(-6.36102e-05 4.21458e-05 0.108939)
(4.17976e-05 -6.32879e-05 0.108938)
(-9.89171e-05 -9.88673e-05 0.105956)
(4.52176e-05 4.54581e-05 0.111843)
(-6.01173e-05 4.01444e-05 0.108933)
(4.01914e-05 -6.0382e-05 0.108932)
(-9.41415e-05 -9.41804e-05 0.105852)
(4.41535e-05 4.40505e-05 0.112014)
(-5.64052e-05 3.67138e-05 0.108918)
(3.72265e-05 -5.62746e-05 0.108917)
(-8.91724e-05 -8.90805e-05 0.10575)
(4.25778e-05 4.2959e-05 0.112173)
(-5.34527e-05 3.53744e-05 0.108893)
(3.40641e-05 -5.25455e-05 0.108893)
(-8.43608e-05 -8.42509e-05 0.105652)
(4.20068e-05 4.16577e-05 0.112319)
(-4.89651e-05 3.15699e-05 0.10886)
(3.23975e-05 -5.00294e-05 0.108859)
(-8.03304e-05 -8.08257e-05 0.105553)
(4.10015e-05 4.10889e-05 0.112453)
(-4.59357e-05 3.05172e-05 0.10882)
(3.06338e-05 -4.66978e-05 0.108817)
(-7.62463e-05 -7.62279e-05 0.105459)
(4.11051e-05 4.06896e-05 0.112571)
(-4.33263e-05 2.67383e-05 0.108771)
(2.67845e-05 -4.15306e-05 0.108772)
(-7.24453e-05 -7.20385e-05 0.105366)
(3.72225e-05 3.66949e-05 0.112678)
(-3.82366e-05 2.38478e-05 0.108723)
(2.45023e-05 -3.98243e-05 0.10872)
(-6.76133e-05 -6.80147e-05 0.105279)
(3.57353e-05 3.61018e-05 0.112779)
(-3.64876e-05 2.21709e-05 0.108668)
(2.36386e-05 -3.73013e-05 0.108671)
(-6.72497e-05 -6.73334e-05 0.105201)
(3.53545e-05 3.65496e-05 0.112864)
(-3.44034e-05 2.06183e-05 0.108614)
(1.79471e-05 -3.1019e-05 0.108613)
(-6.13642e-05 -6.18564e-05 0.10512)
(3.66039e-05 3.16932e-05 0.112937)
(-3.18604e-05 1.87082e-05 0.108568)
(2.04375e-05 -3.51524e-05 0.108553)
(-5.93025e-05 -6.01167e-05 0.105042)
(2.62797e-05 3.31779e-05 0.113011)
(-2.79789e-05 2.08288e-05 0.108514)
(1.21582e-05 -2.25189e-05 0.108527)
(-6.37824e-05 -5.64878e-05 0.105)
(1.54763e-05 2.05727e-05 0.113092)
(-2.4715e-05 3.1048e-06 0.108465)
(9.43643e-06 -2.57996e-05 0.108493)
(-4.79136e-05 -5.78524e-05 0.104937)
(5.06198e-05 2.49045e-05 0.113094)
(3.20993e-06 -9.54139e-07 0.108449)
(2.89964e-05 -6.35314e-06 0.108356)
(-4.61536e-05 -5.8401e-05 0.104758)
(5.24638e-05 5.48077e-05 0.112969)
(-4.17403e-06 6.60571e-05 0.108237)
(3.3014e-05 -1.77478e-05 0.10814)
(-4.15124e-05 -2.02163e-05 0.10468)
(0.000134959 0.000134949 0.100282)
(0.000124248 0.000152867 0.100229)
(-0.000124241 0.000152848 0.100229)
(-0.000134956 0.000134917 0.100282)
(0.000152896 0.0001242 0.100229)
(0.000152868 -0.000124217 0.100229)
(9.08047e-05 9.0753e-05 0.100151)
(-9.07948e-05 9.07504e-05 0.100151)
(9.0779e-05 -9.07988e-05 0.100151)
(-9.07765e-05 -9.07968e-05 0.100151)
(-0.000152892 0.000124197 0.100229)
(-0.000152878 -0.000124213 0.100229)
(0.000134949 -0.000134968 0.100282)
(0.000124201 -0.000152897 0.100229)
(-0.000124198 -0.00015288 0.100229)
(-0.000134957 -0.000134941 0.100282)
(0.000239636 0.000239615 0.100397)
(0.000111304 0.000111177 0.100892)
(0.000119392 0.000190088 0.100385)
(-0.000119343 0.000190129 0.100385)
(8.91024e-05 0.000147213 0.100823)
(-8.90638e-05 0.00014721 0.100823)
(-0.000239646 0.000239564 0.100397)
(-0.000111265 0.000111146 0.100892)
(0.000190231 0.000119289 0.100385)
(0.00019017 -0.000119349 0.100385)
(0.000147189 8.90738e-05 0.100823)
(0.000147222 -8.90948e-05 0.100823)
(-0.000190151 -0.000119353 0.100385)
(-0.000147158 8.9075e-05 0.100823)
(-0.000147179 -8.9089e-05 0.100823)
(0.000239567 -0.000239657 0.100397)
(0.000111256 -0.000111269 0.100892)
(-0.000119321 -0.000190216 0.100385)
(8.90758e-05 -0.000147148 0.100823)
(-8.90554e-05 -0.000147174 0.100823)
(-0.000111253 -0.000111272 0.100892)
(0.000201136 0.000200969 0.100968)
(0.000105725 0.000105645 0.101395)
(9.68197e-05 0.000158993 0.100941)
(-9.67928e-05 0.000158989 0.100941)
(9.41999e-05 0.000156671 0.10132)
(-9.42e-05 0.000156672 0.10132)
(-0.000201098 0.000200936 0.100967)
(-0.000105715 0.000105638 0.101395)
(0.000158972 9.68003e-05 0.100942)
(0.00015899 -9.68128e-05 0.100942)
(0.000156627 9.42041e-05 0.10132)
(0.000156667 -9.42072e-05 0.10132)
(-0.000158967 -9.68078e-05 0.100942)
(-0.000156624 9.42129e-05 0.10132)
(-0.000156645 -9.41975e-05 0.10132)
(0.000201044 -0.000201108 0.100968)
(0.000105689 -0.000105702 0.101395)
(-9.67931e-05 -0.000158961 0.100942)
(9.42009e-05 -0.000156624 0.10132)
(-9.4207e-05 -0.000156644 0.10132)
(-0.000105704 -0.000105711 0.101395)
(0.000202055 0.000201927 0.101471)
(9.66123e-05 9.65527e-05 0.101893)
(9.34492e-05 0.000155854 0.101449)
(-9.34542e-05 0.000155851 0.101449)
(9.1146e-05 0.000153335 0.101832)
(-9.11347e-05 0.000153325 0.101832)
(-0.000202045 0.000201912 0.101471)
(-9.66003e-05 9.65508e-05 0.101893)
(0.000155804 9.34629e-05 0.101449)
(0.000155845 -9.34583e-05 0.101449)
(0.000153277 9.11489e-05 0.101832)
(0.00015331 -9.11337e-05 0.101832)
(-0.000155827 -9.34518e-05 0.101449)
(-0.000153272 9.1141e-05 0.101832)
(-0.00015331 -9.11379e-05 0.101832)
(0.000201969 -0.000202045 0.101471)
(9.65708e-05 -9.66047e-05 0.101893)
(-9.34643e-05 -0.000155826 0.101449)
(9.11488e-05 -0.000153275 0.101832)
(-9.11382e-05 -0.000153284 0.101832)
(-9.66284e-05 -9.66301e-05 0.101893)
(0.000198967 0.000198864 0.101964)
(8.60537e-05 8.60175e-05 0.102366)
(9.00957e-05 0.00015211 0.101957)
(-9.00832e-05 0.000152099 0.101957)
(8.66921e-05 0.000147832 0.102326)
(-8.66807e-05 0.000147826 0.102326)
(-0.000198953 0.000198847 0.101964)
(-8.60541e-05 8.60286e-05 0.102366)
(0.000152053 9.00971e-05 0.101957)
(0.000152084 -9.00809e-05 0.101957)
(0.000147776 8.66923e-05 0.102326)
(0.000147806 -8.6672e-05 0.102326)
(-0.000152086 -9.00856e-05 0.101957)
(-0.00014777 8.66852e-05 0.102326)
(-0.000147814 -8.66816e-05 0.102326)
(0.000198871 -0.00019897 0.101964)
(8.60218e-05 -8.60571e-05 0.102366)
(-9.00852e-05 -0.000152056 0.101957)
(8.66965e-05 -0.000147774 0.102326)
(-8.66775e-05 -0.000147773 0.102326)
(-8.60797e-05 -8.60838e-05 0.102366)
(0.000193586 0.000193494 0.102432)
(7.60639e-05 7.60414e-05 0.102812)
(8.55776e-05 0.000146351 0.102446)
(-8.55687e-05 0.000146347 0.102446)
(8.25261e-05 0.000142063 0.102797)
(-8.2514e-05 0.000142065 0.102797)
(-0.000193562 0.000193476 0.102432)
(-7.60548e-05 7.60609e-05 0.102812)
(0.000146295 8.55773e-05 0.102446)
(0.000146326 -8.55578e-05 0.102446)
(0.000142007 8.25282e-05 0.102798)
(0.000142032 -8.2495e-05 0.102798)
(-0.000146333 -8.55668e-05 0.102446)
(-0.000141999 8.25219e-05 0.102798)
(-0.000142048 -8.25139e-05 0.102798)
(0.000193476 -0.000193578 0.102432)
(7.59876e-05 -7.60374e-05 0.102812)
(-8.55642e-05 -0.00014629 0.102446)
(8.25297e-05 -0.000142001 0.102798)
(-8.251e-05 -0.000141998 0.102798)
(-7.60615e-05 -7.60629e-05 0.102812)
(0.000188231 0.00018814 0.10287)
(6.71479e-05 6.71259e-05 0.103229)
(8.15991e-05 0.000140683 0.102912)
(-8.15954e-05 0.000140691 0.102912)
(7.91335e-05 0.000136776 0.103245)
(-7.90984e-05 0.000136768 0.103245)
(-0.000188136 0.00018807 0.10287)
(-6.70556e-05 6.70667e-05 0.103229)
(0.000140627 8.15987e-05 0.102912)
(0.000140663 -8.15807e-05 0.102912)
(0.000136725 7.91369e-05 0.103245)
(0.000136744 -7.90867e-05 0.103245)
(-0.00014067 -8.15912e-05 0.102912)
(-0.000136708 7.91143e-05 0.103245)
(-0.000136769 -7.91264e-05 0.103245)
(0.000188055 -0.000188159 0.10287)
(6.69565e-05 -6.7027e-05 0.103229)
(-8.15893e-05 -0.000140619 0.102912)
(7.91352e-05 -0.000136715 0.103245)
(-7.91223e-05 -0.000136716 0.103245)
(-6.71282e-05 -6.71275e-05 0.103229)
(0.000183697 0.000183611 0.103281)
(5.92642e-05 5.92068e-05 0.10362)
(7.83937e-05 0.00013555 0.103354)
(-7.83867e-05 0.000135555 0.103354)
(7.6479e-05 0.000132162 0.103671)
(-7.64424e-05 0.000132146 0.103671)
(-0.000183556 0.00018348 0.103281)
(-5.91274e-05 5.90959e-05 0.103621)
(0.000135498 7.83985e-05 0.103354)
(0.000135537 -7.83799e-05 0.103354)
(0.000132113 7.65133e-05 0.103671)
(0.000132122 -7.64308e-05 0.103671)
(-0.00013554 -7.83876e-05 0.103354)
(-0.000132089 7.64702e-05 0.103671)
(-0.000132154 -7.64951e-05 0.103671)
(0.00018351 -0.000183631 0.103281)
(5.8978e-05 -5.90522e-05 0.103621)
(-7.83881e-05 -0.000135487 0.103354)
(7.65018e-05 -0.000132098 0.103671)
(-7.64946e-05 -0.000132101 0.103671)
(-5.92087e-05 -5.92153e-05 0.10362)
(0.000180183 0.000180059 0.103664)
(5.27432e-05 5.27644e-05 0.103987)
(7.5946e-05 0.000131113 0.103774)
(-7.59468e-05 0.000131127 0.103774)
(7.47106e-05 0.000128275 0.104076)
(-7.46809e-05 0.000128265 0.104076)
(-0.00018001 0.000179908 0.103664)
(-5.2599e-05 5.26483e-05 0.103988)
(0.000131063 7.59429e-05 0.103774)
(0.000131106 -7.59377e-05 0.103774)
(0.000128221 7.46464e-05 0.104076)
(0.000128242 -7.46718e-05 0.104076)
(-0.000131091 -7.5915e-05 0.103774)
(-0.000128197 7.46057e-05 0.104076)
(-0.000128256 -7.46448e-05 0.104076)
(0.000179944 -0.000180135 0.103664)
(5.25027e-05 -5.24507e-05 0.103988)
(-7.59215e-05 -0.000131036 0.103774)
(7.45978e-05 -0.000128187 0.104076)
(-7.45997e-05 -0.000128189 0.104076)
(-5.25922e-05 -5.2559e-05 0.103987)
(0.000178131 0.000178086 0.104023)
(4.69892e-05 4.70041e-05 0.104332)
(7.43205e-05 0.000127384 0.104174)
(-7.43254e-05 0.000127406 0.104174)
(7.32983e-05 0.000124928 0.104463)
(-7.3265e-05 0.000124921 0.104463)
(-0.000177999 0.000177935 0.104023)
(-4.68388e-05 4.6894e-05 0.104333)
(0.000127332 7.42525e-05 0.104174)
(0.000127381 -7.43224e-05 0.104174)
(0.000124871 7.3243e-05 0.104463)
(0.000124905 -7.32655e-05 0.104463)
(-0.000127362 -7.42566e-05 0.104174)
(-0.000124848 7.31941e-05 0.104463)
(-0.000124923 -7.3251e-05 0.104463)
(0.000177982 -0.00017801 0.104022)
(4.67498e-05 -4.67318e-05 0.104333)
(-7.42079e-05 -0.000127295 0.104175)
(7.31953e-05 -0.000124844 0.104463)
(-7.32022e-05 -0.000124853 0.104463)
(-4.68517e-05 -4.68319e-05 0.104332)
(0.000176972 0.000176932 0.104359)
(4.16421e-05 4.16383e-05 0.104656)
(7.29774e-05 0.000124156 0.104557)
(-7.29832e-05 0.00012418 0.104557)
(7.2134e-05 0.000122028 0.104834)
(-7.20822e-05 0.000122003 0.104834)
(-0.000176835 0.000176783 0.104358)
(-4.15427e-05 4.15974e-05 0.104657)
(0.000124099 7.29176e-05 0.104557)
(0.000124156 -7.29772e-05 0.104557)
(0.000121959 7.20798e-05 0.104834)
(0.000121985 -7.20793e-05 0.104834)
(-0.000124139 -7.29208e-05 0.104557)
(-0.000121925 7.20081e-05 0.104834)
(-0.000122006 -7.20625e-05 0.104834)
(0.000176819 -0.000176868 0.104358)
(4.14316e-05 -4.14268e-05 0.104657)
(-7.28693e-05 -0.000124068 0.104557)
(7.20061e-05 -0.000121919 0.104834)
(-7.20146e-05 -0.000121932 0.104834)
(-4.14446e-05 -4.14381e-05 0.104657)
(0.00017641 0.00017636 0.104673)
(3.6443e-05 3.64192e-05 0.104961)
(7.18304e-05 0.000121331 0.104924)
(-7.18225e-05 0.000121341 0.104924)
(7.10104e-05 0.000119406 0.10519)
(-7.09696e-05 0.000119385 0.10519)
(-0.000176176 0.000176124 0.104673)
(-3.64317e-05 3.6468e-05 0.104961)
(0.000121266 7.17782e-05 0.104924)
(0.000121332 -7.18226e-05 0.104924)
(0.000119345 7.0956e-05 0.10519)
(0.000119381 -7.09709e-05 0.10519)
(-0.000121318 -7.17831e-05 0.104924)
(-0.000119314 7.08953e-05 0.10519)
(-0.000119402 -7.09559e-05 0.10519)
(0.0001761 -0.00017618 0.104673)
(3.63359e-05 -3.63308e-05 0.104961)
(-7.173e-05 -0.000121243 0.104924)
(7.09081e-05 -0.000119313 0.10519)
(-7.09077e-05 -0.000119325 0.10519)
(-3.63183e-05 -3.63212e-05 0.104961)
(0.000175999 0.000175911 0.104967)
(3.13425e-05 3.13067e-05 0.105246)
(7.07072e-05 0.000118761 0.105276)
(-7.07139e-05 0.000118787 0.105276)
(6.98646e-05 0.000116958 0.105531)
(-6.98397e-05 0.000116949 0.105531)
(-0.00017579 0.000175723 0.104967)
(-3.14941e-05 3.15235e-05 0.105246)
(0.000118704 7.06605e-05 0.105277)
(0.000118777 -7.07156e-05 0.105276)
(0.000116892 6.98147e-05 0.105531)
(0.000116932 -6.98318e-05 0.105531)
(-0.00011876 -7.06638e-05 0.105277)
(-0.000116882 6.97771e-05 0.105531)
(-0.00011694 -6.97941e-05 0.105531)
(0.000175704 -0.000175808 0.104967)
(3.14796e-05 -3.14911e-05 0.105246)
(-7.06104e-05 -0.000118681 0.105277)
(6.97813e-05 -0.000116862 0.105531)
(-6.97512e-05 -0.000116861 0.105531)
(-3.13126e-05 -3.13427e-05 0.105246)
(0.000175648 0.000175529 0.105239)
(2.64153e-05 2.64321e-05 0.105512)
(6.95368e-05 0.000116328 0.105614)
(-6.95118e-05 0.000116335 0.105614)
(6.8587e-05 0.000114559 0.105859)
(-6.8618e-05 0.000114571 0.105858)
(-0.000175653 0.000175562 0.105239)
(-2.6403e-05 2.65196e-05 0.105511)
(0.000116269 6.95026e-05 0.105615)
(0.000116332 -6.9515e-05 0.105614)
(0.000114482 6.85428e-05 0.105859)
(0.000114562 -6.8617e-05 0.105858)
(-0.000116335 -6.94797e-05 0.105614)
(-0.000114497 6.85355e-05 0.105859)
(-0.000114542 -6.85642e-05 0.105859)
(0.000175446 -0.000175595 0.10524)
(2.65519e-05 -2.64852e-05 0.105511)
(-6.94364e-05 -0.000116254 0.105615)
(6.85548e-05 -0.000114476 0.105859)
(-6.84942e-05 -0.000114451 0.105859)
(-2.66146e-05 -2.65575e-05 0.105511)
(0.000175153 0.000175093 0.105491)
(2.14433e-05 2.14986e-05 0.105755)
(6.83334e-05 0.000113986 0.105938)
(-6.83396e-05 0.000113964 0.105938)
(6.75389e-05 0.000112215 0.106172)
(-6.75335e-05 0.000112215 0.106172)
(-0.000175318 0.000175325 0.105491)
(-2.13199e-05 2.14527e-05 0.105755)
(0.000113904 6.82649e-05 0.105938)
(0.000113951 -6.83207e-05 0.105938)
(0.000112153 6.74645e-05 0.106172)
(0.000112209 -6.75206e-05 0.106172)
(-0.000113973 -6.82927e-05 0.105938)
(-0.000112149 6.7428e-05 0.106172)
(-0.000112235 -6.74998e-05 0.106172)
(0.000175314 -0.000175354 0.105491)
(2.14036e-05 -2.12779e-05 0.105755)
(-6.82115e-05 -0.000113873 0.105938)
(6.73949e-05 -0.000112113 0.106172)
(-6.7408e-05 -0.000112143 0.106172)
(-2.13332e-05 -2.12644e-05 0.105755)
(0.000174486 0.000174451 0.10572)
(1.63527e-05 1.64317e-05 0.105978)
(6.7246e-05 0.000111622 0.106248)
(-6.72735e-05 0.000111652 0.106248)
(6.65026e-05 0.000110057 0.10647)
(-6.65397e-05 0.000110087 0.10647)
(-0.000174317 0.000174323 0.10572)
(-1.63532e-05 1.64805e-05 0.105977)
(0.000111564 6.71746e-05 0.106248)
(0.000111645 -6.72592e-05 0.106247)
(0.000110001 6.64404e-05 0.10647)
(0.000110071 -6.65198e-05 0.10647)
(-0.00011166 -6.72523e-05 0.106248)
(-0.000109945 6.64206e-05 0.10647)
(-0.000110021 -6.64932e-05 0.10647)
(0.000174321 -0.000174348 0.10572)
(1.65167e-05 -1.64116e-05 0.105977)
(-6.71568e-05 -0.000111558 0.106248)
(6.63984e-05 -0.000109982 0.10647)
(-6.63992e-05 -0.000109921 0.10647)
(-1.648e-05 -1.64244e-05 0.105977)
(0.000173323 0.000173301 0.105926)
(1.17883e-05 1.18469e-05 0.106176)
(6.62608e-05 0.000109553 0.106542)
(-6.62787e-05 0.000109571 0.106542)
(6.54511e-05 0.000108016 0.106753)
(-6.54792e-05 0.000108031 0.106753)
(-0.000173395 0.000173392 0.105926)
(-1.17746e-05 1.18427e-05 0.106176)
(0.000109508 6.61963e-05 0.106543)
(0.000109572 -6.62637e-05 0.106542)
(0.000107979 6.53803e-05 0.106754)
(0.000108051 -6.54685e-05 0.106753)
(-0.000109514 -6.62205e-05 0.106542)
(-0.000107919 6.53631e-05 0.106754)
(-0.000108013 -6.54603e-05 0.106753)
(0.000173426 -0.00017346 0.105926)
(1.18466e-05 -1.17506e-05 0.106176)
(-6.61266e-05 -0.000109407 0.106543)
(6.53512e-05 -0.000107949 0.106754)
(-6.53569e-05 -0.000107909 0.106754)
(-1.18432e-05 -1.17994e-05 0.106176)
(0.00017207 0.000172039 0.106108)
(7.49675e-06 7.56691e-06 0.10635)
(6.51866e-05 0.000107511 0.106822)
(-6.51986e-05 0.000107522 0.106822)
(6.43687e-05 0.000105965 0.107021)
(-6.4384e-05 0.00010599 0.107021)
(-0.000172055 0.000172012 0.106108)
(-7.50428e-06 7.57586e-06 0.10635)
(0.00010748 6.51127e-05 0.106822)
(0.000107544 -6.51949e-05 0.106822)
(0.000105936 6.43054e-05 0.107022)
(0.000106007 -6.43954e-05 0.107021)
(-0.000107501 -6.51676e-05 0.106822)
(-0.000105871 6.42756e-05 0.107022)
(-0.000105963 -6.43361e-05 0.107021)
(0.000172084 -0.000172122 0.106108)
(7.66106e-06 -7.57377e-06 0.10635)
(-6.50698e-05 -0.000107387 0.106822)
(6.4265e-05 -0.000105909 0.107022)
(-6.42348e-05 -0.000105843 0.107022)
(-7.53396e-06 -7.48843e-06 0.10635)
(0.000170406 0.000170382 0.106264)
(3.65818e-06 3.72554e-06 0.106498)
(6.40827e-05 0.000105478 0.107086)
(-6.41025e-05 0.000105484 0.107086)
(6.33012e-05 0.000104108 0.107273)
(-6.33031e-05 0.000104098 0.107273)
(-0.000170364 0.000170323 0.106264)
(-3.56425e-06 3.63664e-06 0.106499)
(0.000105427 6.40255e-05 0.107086)
(0.000105491 -6.41014e-05 0.107086)
(0.000104044 6.32573e-05 0.107274)
(0.000104106 -6.32982e-05 0.107273)
(-0.000105467 -6.40676e-05 0.107086)
(-0.000104 6.32112e-05 0.107274)
(-0.000104081 -6.32851e-05 0.107273)
(0.000170407 -0.000170461 0.106264)
(3.65678e-06 -3.56888e-06 0.106498)
(-6.39582e-05 -0.000105358 0.107086)
(6.31798e-05 -0.00010399 0.107274)
(-6.31885e-05 -0.000103974 0.107274)
(-3.60217e-06 -3.56158e-06 0.106498)
(0.00016833 0.0001683 0.106394)
(1.5289e-07 2.2009e-07 0.106619)
(6.30508e-05 0.000103645 0.107334)
(-6.30501e-05 0.000103634 0.107334)
(6.22382e-05 0.00010214 0.107508)
(-6.22525e-05 0.000102167 0.107508)
(-0.000168218 0.000168185 0.106394)
(-8.82745e-08 1.71395e-07 0.10662)
(0.00010357 6.3005e-05 0.107334)
(0.00010363 -6.30425e-05 0.107333)
(0.000102094 6.21779e-05 0.107509)
(0.000102188 -6.22837e-05 0.107508)
(-0.000103619 -6.30445e-05 0.107334)
(-0.00010207 6.21486e-05 0.107509)
(-0.000102142 -6.22175e-05 0.107508)
(0.000168233 -0.000168276 0.106394)
(2.40039e-07 -1.60509e-07 0.106619)
(-6.29555e-05 -0.00010351 0.107334)
(6.21573e-05 -0.000102087 0.107509)
(-6.21147e-05 -0.000102044 0.107509)
(-1.12653e-07 -7.69002e-08 0.106619)
(0.00016561 0.000165576 0.106497)
(-2.98731e-06 -2.92628e-06 0.106713)
(6.19563e-05 0.000101636 0.107565)
(-6.19931e-05 0.000101666 0.107565)
(6.12107e-05 0.00010013 0.107726)
(-6.12113e-05 0.000100169 0.107726)
(-0.000165547 0.000165519 0.106497)
(3.068e-06 -3.01859e-06 0.106713)
(0.0001016 6.18977e-05 0.107565)
(0.000101684 -6.20061e-05 0.107564)
(0.000100101 6.11569e-05 0.107727)
(0.000100187 -6.12378e-05 0.107726)
(-0.000101656 -6.1972e-05 0.107565)
(-0.000100074 6.11233e-05 0.107727)
(-0.000100142 -6.11882e-05 0.107726)
(0.000165634 -0.000165691 0.106497)
(-2.93148e-06 3.00113e-06 0.106713)
(-6.18596e-05 -0.000101559 0.107565)
(6.11177e-05 -0.000100084 0.107727)
(-6.10837e-05 -0.00010004 0.107727)
(3.01051e-06 3.04704e-06 0.106713)
(0.000162429 0.000162379 0.106572)
(-5.88216e-06 -5.8754e-06 0.106779)
(6.09706e-05 9.96164e-05 0.107778)
(-6.09943e-05 9.96728e-05 0.107778)
(6.01498e-05 9.79792e-05 0.107927)
(-6.01648e-05 9.80159e-05 0.107927)
(-0.000162345 0.00016229 0.106572)
(5.9668e-06 -5.88987e-06 0.106779)
(9.95931e-05 6.0921e-05 0.107779)
(9.96848e-05 -6.10108e-05 0.107778)
(9.79557e-05 6.01301e-05 0.107927)
(9.80179e-05 -6.01719e-05 0.107926)
(-9.96366e-05 -6.09566e-05 0.107778)
(-9.78987e-05 6.00609e-05 0.107927)
(-9.79997e-05 -6.01579e-05 0.107927)
(0.000162415 -0.000162475 0.106572)
(-5.82236e-06 5.87305e-06 0.106778)
(-6.08563e-05 -9.95316e-05 0.107779)
(6.00607e-05 -9.79072e-05 0.107927)
(-6.00567e-05 -9.78836e-05 0.107927)
(5.9015e-06 5.93234e-06 0.106778)
(0.000158539 0.000158418 0.106621)
(-8.50296e-06 -8.33882e-06 0.106817)
(5.98998e-05 9.74123e-05 0.107974)
(-5.99203e-05 9.74643e-05 0.107974)
(5.91568e-05 9.56528e-05 0.108109)
(-5.91991e-05 9.5709e-05 0.108109)
(-0.000158442 0.000158408 0.106621)
(8.46679e-06 -8.40913e-06 0.106817)
(9.7388e-05 5.98739e-05 0.107974)
(9.74737e-05 -5.99498e-05 0.107974)
(9.55968e-05 5.90939e-05 0.108109)
(9.56756e-05 -5.91904e-05 0.108108)
(-9.74296e-05 -5.98907e-05 0.107974)
(-9.55653e-05 5.90944e-05 0.10811)
(-9.56674e-05 -5.91503e-05 0.108109)
(0.000158527 -0.000158621 0.106621)
(-8.37789e-06 8.49132e-06 0.106816)
(-5.97883e-05 -9.73119e-05 0.107974)
(5.90333e-05 -9.55705e-05 0.108109)
(-5.90378e-05 -9.55369e-05 0.108109)
(8.46755e-06 8.48569e-06 0.106817)
(0.000154109 0.000154139 0.106644)
(-1.07185e-05 -1.06024e-05 0.106829)
(5.89001e-05 9.50206e-05 0.108151)
(-5.89429e-05 9.50857e-05 0.108151)
(5.81537e-05 9.31967e-05 0.108272)
(-5.8149e-05 9.32494e-05 0.108272)
(-0.000154144 0.000154093 0.106644)
(1.07631e-05 -1.07e-05 0.10683)
(9.49773e-05 5.88247e-05 0.108152)
(9.50488e-05 -5.89328e-05 0.108151)
(9.31698e-05 5.80476e-05 0.108273)
(9.32531e-05 -5.81281e-05 0.108272)
(-9.50482e-05 -5.89025e-05 0.108151)
(-9.31412e-05 5.80341e-05 0.108273)
(-9.32005e-05 -5.80836e-05 0.108272)
(0.000154158 -0.000154189 0.106644)
(-1.07033e-05 1.08398e-05 0.106829)
(-5.87979e-05 -9.49448e-05 0.108152)
(5.80153e-05 -9.31199e-05 0.108273)
(-5.80008e-05 -9.31052e-05 0.108273)
(1.07045e-05 1.07585e-05 0.106829)
(0.0001494 0.000149398 0.106643)
(-1.28067e-05 -1.26864e-05 0.106818)
(5.79051e-05 9.25858e-05 0.10831)
(-5.79194e-05 9.26254e-05 0.10831)
(5.71121e-05 9.06523e-05 0.108417)
(-5.71265e-05 9.06879e-05 0.108417)
(-0.000149354 0.000149311 0.106643)
(1.28083e-05 -1.2749e-05 0.106818)
(9.25476e-05 5.77988e-05 0.108311)
(9.26416e-05 -5.7926e-05 0.10831)
(9.05913e-05 5.70202e-05 0.108418)
(9.06459e-05 -5.71027e-05 0.108417)
(-9.25878e-05 -5.7844e-05 0.10831)
(-9.0581e-05 5.70107e-05 0.108418)
(-9.06737e-05 -5.71215e-05 0.108417)
(0.000149368 -0.000149372 0.106643)
(-1.28275e-05 1.29124e-05 0.106817)
(-5.77706e-05 -9.25126e-05 0.108311)
(5.69505e-05 -9.05717e-05 0.108418)
(-5.70343e-05 -9.06202e-05 0.108417)
(1.27306e-05 1.27696e-05 0.106817)
(0.000144257 0.000144263 0.106619)
(-1.489e-05 -1.4808e-05 0.106784)
(5.67763e-05 8.99272e-05 0.10845)
(-5.67926e-05 8.99831e-05 0.10845)
(5.59173e-05 8.78322e-05 0.108543)
(-5.59198e-05 8.78824e-05 0.108543)
(-0.000144233 0.000144198 0.106619)
(1.48985e-05 -1.48385e-05 0.106785)
(8.98771e-05 5.66844e-05 0.108451)
(8.99397e-05 -5.68042e-05 0.10845)
(8.77851e-05 5.58017e-05 0.108544)
(8.78502e-05 -5.58728e-05 0.108542)
(-8.99428e-05 -5.67648e-05 0.10845)
(-8.77681e-05 5.58085e-05 0.108544)
(-8.78579e-05 -5.58758e-05 0.108543)
(0.00014415 -0.000144207 0.106619)
(-1.48833e-05 1.4989e-05 0.106783)
(-5.66818e-05 -8.98923e-05 0.108451)
(5.57454e-05 -8.77702e-05 0.108544)
(-5.57843e-05 -8.77976e-05 0.108543)
(1.49033e-05 1.49487e-05 0.106784)
(0.000138812 0.000138789 0.106575)
(-1.68656e-05 -1.67762e-05 0.106732)
(5.56589e-05 8.71657e-05 0.108571)
(-5.5605e-05 8.71596e-05 0.108571)
(5.46241e-05 8.49457e-05 0.10865)
(-5.47066e-05 8.50028e-05 0.10865)
(-0.000138781 0.000138745 0.106576)
(1.68294e-05 -1.67651e-05 0.106732)
(8.71047e-05 5.55325e-05 0.108572)
(8.71821e-05 -5.559e-05 0.108571)
(8.48848e-05 5.45338e-05 0.108651)
(8.49637e-05 -5.4645e-05 0.10865)
(-8.71613e-05 -5.56587e-05 0.108571)
(-8.49098e-05 5.46007e-05 0.108651)
(-8.49358e-05 -5.45855e-05 0.10865)
(0.000138726 -0.00013873 0.106575)
(-1.67717e-05 1.69045e-05 0.106731)
(-5.55592e-05 -8.71309e-05 0.108572)
(5.45429e-05 -8.48301e-05 0.108651)
(-5.45269e-05 -8.48488e-05 0.108651)
(1.68435e-05 1.69028e-05 0.106731)
(0.000133092 0.00013307 0.106515)
(-1.88895e-05 -1.87722e-05 0.106663)
(5.42441e-05 8.41777e-05 0.108674)
(-5.43523e-05 8.42625e-05 0.108674)
(5.30995e-05 8.18271e-05 0.108739)
(-5.30726e-05 8.18562e-05 0.108739)
(-0.000133139 0.000133122 0.106515)
(1.89501e-05 -1.88849e-05 0.106663)
(8.41178e-05 5.41514e-05 0.108675)
(8.41927e-05 -5.42466e-05 0.108674)
(8.17365e-05 5.30411e-05 0.10874)
(8.17886e-05 -5.31005e-05 0.108738)
(-8.42221e-05 -5.42674e-05 0.108674)
(-8.17545e-05 5.29738e-05 0.10874)
(-8.17815e-05 -5.29746e-05 0.108739)
(0.000133094 -0.000133079 0.106515)
(-1.88635e-05 1.89277e-05 0.106662)
(-5.42185e-05 -8.41308e-05 0.108675)
(5.29541e-05 -8.17582e-05 0.10874)
(-5.29177e-05 -8.16901e-05 0.10874)
(1.88782e-05 1.89393e-05 0.106662)
(0.000127286 0.000127291 0.10644)
(-2.09584e-05 -2.09363e-05 0.106582)
(5.2709e-05 8.10531e-05 0.108759)
(-5.27006e-05 8.10998e-05 0.108758)
(5.13385e-05 7.84972e-05 0.10881)
(-5.1394e-05 7.85712e-05 0.10881)
(-0.000127206 0.000127181 0.10644)
(2.08805e-05 -2.08491e-05 0.106583)
(8.09385e-05 5.2636e-05 0.108759)
(8.09705e-05 -5.26539e-05 0.108758)
(7.85247e-05 5.11788e-05 0.108811)
(7.86407e-05 -5.14319e-05 0.10881)
(-8.099e-05 -5.25926e-05 0.108758)
(-7.85111e-05 5.12456e-05 0.108812)
(-7.85664e-05 -5.13544e-05 0.10881)
(0.000127203 -0.000127265 0.10644)
(-2.07706e-05 2.08974e-05 0.106581)
(-5.25174e-05 -8.09273e-05 0.108759)
(5.13172e-05 -7.85287e-05 0.108811)
(-5.12748e-05 -7.85136e-05 0.108811)
(2.08613e-05 2.09026e-05 0.106581)
(0.000121334 0.000121238 0.106354)
(-2.28919e-05 -2.27777e-05 0.106491)
(5.08262e-05 7.76385e-05 0.108826)
(-5.10169e-05 7.77983e-05 0.108825)
(4.95478e-05 7.52822e-05 0.108865)
(-4.94823e-05 7.52742e-05 0.108864)
(-0.000121428 0.000121364 0.106355)
(2.29197e-05 -2.28582e-05 0.106492)
(7.76888e-05 5.06568e-05 0.108826)
(7.78008e-05 -5.09345e-05 0.108825)
(7.52161e-05 4.94774e-05 0.108866)
(7.52898e-05 -4.95268e-05 0.108864)
(-7.77194e-05 -5.08167e-05 0.108825)
(-7.51542e-05 4.93762e-05 0.108866)
(-7.52923e-05 -4.95482e-05 0.108864)
(0.000121434 -0.000121424 0.106354)
(-2.28523e-05 2.29342e-05 0.10649)
(-5.07482e-05 -7.76515e-05 0.108826)
(4.93808e-05 -7.5179e-05 0.108865)
(-4.94539e-05 -7.52683e-05 0.108865)
(2.2919e-05 2.29375e-05 0.10649)
(0.000115563 0.0001156 0.106261)
(-2.49275e-05 -2.48556e-05 0.106393)
(4.89784e-05 7.4426e-05 0.108876)
(-4.89913e-05 7.44761e-05 0.108876)