/*--------------------------------*- C++ -*----------------------------------*\
| =========                 |                                                 |
| \\      /  F ield         | OpenFOAM: The Open Source CFD Toolbox           |
|  \\    /   O peration     | Version:  v2012                                 |
|   \\  /    A nd           | Website:  www.openfoam.com                      |
|    \\/     M anipulation  |                                                 |
\*---------------------------------------------------------------------------*/
FoamFile
{
    version     2.0;
    format      ascii;
    class       volScalarField;
    location    "0.185";
    object      p;
}
// * * * * * * * * * * * * * * * * * * * * * * * * * * * * * * * * * * * * * //

dimensions      [0 2 -2 0 0 0 0];


internalField   nonuniform List<scalar> 
247104
(
1.91063e-06
1.91093e-06
1.91098e-06
1.91084e-06
1.91066e-06
1.91088e-06
1.91098e-06
1.91086e-06
1.91092e-06
1.91098e-06
1.91103e-06
1.91083e-06
1.9107e-06
1.91086e-06
1.91104e-06
1.91096e-06
1.91099e-06
1.91103e-06
1.91073e-06
1.91034e-06
1.91018e-06
1.91038e-06
1.91078e-06
1.91105e-06
1.91097e-06
1.91085e-06
1.91083e-06
1.91034e-06
1.90985e-06
1.90967e-06
1.9099e-06
1.91041e-06
1.91087e-06
1.91081e-06
1.91062e-06
1.91066e-06
1.9107e-06
1.91018e-06
1.90967e-06
1.90949e-06
1.90972e-06
1.91026e-06
1.91073e-06
1.91061e-06
1.91088e-06
1.91086e-06
1.91038e-06
1.9099e-06
1.90972e-06
1.90995e-06
1.91045e-06
1.9109e-06
1.91085e-06
1.91098e-06
1.91104e-06
1.91078e-06
1.91041e-06
1.91026e-06
1.91045e-06
1.91083e-06
1.91105e-06
1.91097e-06
1.91085e-06
1.91095e-06
1.91104e-06
1.91087e-06
1.91073e-06
1.9109e-06
1.91105e-06
1.91092e-06
1.91097e-06
1.91081e-06
1.91061e-06
1.91085e-06
1.91097e-06
1.87677e-06
1.87467e-06
1.87464e-06
1.8735e-06
1.87331e-06
1.87325e-06
1.87324e-06
1.87475e-06
1.87511e-06
1.87464e-06
1.87257e-06
1.86956e-06
1.86944e-06
1.86944e-06
1.86956e-06
1.87298e-06
1.87318e-06
1.8735e-06
1.86956e-06
1.86948e-06
1.86952e-06
1.86952e-06
1.86948e-06
1.86956e-06
1.87343e-06
1.87431e-06
1.87677e-06
1.87331e-06
1.86944e-06
1.86952e-06
1.86963e-06
1.86963e-06
1.86952e-06
1.86945e-06
1.87327e-06
1.87495e-06
1.87469e-06
1.87324e-06
1.86944e-06
1.86952e-06
1.86963e-06
1.86963e-06
1.86952e-06
1.86945e-06
1.87341e-06
1.87313e-06
1.87324e-06
1.86956e-06
1.86948e-06
1.86952e-06
1.86952e-06
1.86948e-06
1.86956e-06
1.87328e-06
1.8741e-06
1.87474e-06
1.87298e-06
1.86956e-06
1.86945e-06
1.86945e-06
1.86956e-06
1.87308e-06
1.8734e-06
1.8748e-06
1.87511e-06
1.87318e-06
1.87343e-06
1.87328e-06
1.87341e-06
1.87328e-06
1.8734e-06
1.87571e-06
1.87431e-06
1.87495e-06
1.87313e-06
1.8741e-06
1.8748e-06
1.85668e-06
1.85648e-06
1.85632e-06
1.85413e-06
1.85408e-06
1.85407e-06
1.85411e-06
1.85643e-06
1.85659e-06
1.85634e-06
1.85344e-06
1.85039e-06
1.85021e-06
1.85021e-06
1.85038e-06
1.8542e-06
1.8546e-06
1.85413e-06
1.85038e-06
1.84995e-06
1.84995e-06
1.84995e-06
1.84995e-06
1.85039e-06
1.855e-06
1.85698e-06
1.85668e-06
1.85407e-06
1.85021e-06
1.84995e-06
1.84996e-06
1.84996e-06
1.84995e-06
1.85021e-06
1.85501e-06
1.85662e-06
1.85648e-06
1.85408e-06
1.85021e-06
1.84995e-06
1.84996e-06
1.84996e-06
1.84995e-06
1.85021e-06
1.85493e-06
1.85458e-06
1.85411e-06
1.85038e-06
1.84995e-06
1.84995e-06
1.84995e-06
1.84995e-06
1.85039e-06
1.85506e-06
1.85699e-06
1.85643e-06
1.8542e-06
1.85038e-06
1.85021e-06
1.85021e-06
1.85039e-06
1.85469e-06
1.85484e-06
1.85691e-06
1.85659e-06
1.85459e-06
1.855e-06
1.85501e-06
1.85493e-06
1.85506e-06
1.85484e-06
1.85694e-06
1.85698e-06
1.85662e-06
1.85458e-06
1.857e-06
1.8569e-06
1.83709e-06
1.83692e-06
1.83683e-06
1.83451e-06
1.83448e-06
1.83437e-06
1.83457e-06
1.83689e-06
1.83708e-06
1.83682e-06
1.83363e-06
1.83071e-06
1.83064e-06
1.83064e-06
1.83071e-06
1.83451e-06
1.83516e-06
1.83452e-06
1.83071e-06
1.83053e-06
1.83052e-06
1.83052e-06
1.83053e-06
1.83071e-06
1.83548e-06
1.83742e-06
1.8371e-06
1.83448e-06
1.83064e-06
1.83052e-06
1.83052e-06
1.83052e-06
1.83052e-06
1.83064e-06
1.83559e-06
1.83701e-06
1.83692e-06
1.83437e-06
1.83064e-06
1.83052e-06
1.83052e-06
1.83052e-06
1.83052e-06
1.83064e-06
1.83554e-06
1.83513e-06
1.83457e-06
1.83071e-06
1.83053e-06
1.83052e-06
1.83052e-06
1.83053e-06
1.83071e-06
1.83558e-06
1.83739e-06
1.83689e-06
1.8345e-06
1.83071e-06
1.83064e-06
1.83064e-06
1.83071e-06
1.83537e-06
1.83537e-06
1.83739e-06
1.83707e-06
1.83516e-06
1.83549e-06
1.83559e-06
1.83555e-06
1.83558e-06
1.83537e-06
1.83736e-06
1.83742e-06
1.83702e-06
1.83514e-06
1.83739e-06
1.83739e-06
1.8175e-06
1.81733e-06
1.81716e-06
1.81484e-06
1.81479e-06
1.81463e-06
1.81489e-06
1.81724e-06
1.81741e-06
1.81716e-06
1.81388e-06
1.81099e-06
1.81097e-06
1.81097e-06
1.81099e-06
1.81475e-06
1.81554e-06
1.81484e-06
1.81099e-06
1.81094e-06
1.81094e-06
1.81094e-06
1.81094e-06
1.81099e-06
1.81588e-06
1.81781e-06
1.8175e-06
1.81479e-06
1.81097e-06
1.81094e-06
1.81094e-06
1.81094e-06
1.81094e-06
1.81097e-06
1.81606e-06
1.81746e-06
1.81733e-06
1.81463e-06
1.81097e-06
1.81094e-06
1.81094e-06
1.81094e-06
1.81094e-06
1.81097e-06
1.81603e-06
1.81559e-06
1.81489e-06
1.81099e-06
1.81094e-06
1.81094e-06
1.81094e-06
1.81094e-06
1.81099e-06
1.816e-06
1.81783e-06
1.81724e-06
1.81476e-06
1.811e-06
1.81097e-06
1.81097e-06
1.81099e-06
1.81586e-06
1.81578e-06
1.81777e-06
1.81741e-06
1.81554e-06
1.81588e-06
1.81606e-06
1.81603e-06
1.816e-06
1.81577e-06
1.81771e-06
1.81781e-06
1.81747e-06
1.81559e-06
1.81783e-06
1.81777e-06
1.79785e-06
1.79769e-06
1.79749e-06
1.79517e-06
1.79512e-06
1.79494e-06
1.79522e-06
1.79758e-06
1.79776e-06
1.79749e-06
1.7942e-06
1.79131e-06
1.79131e-06
1.79131e-06
1.79131e-06
1.79505e-06
1.79585e-06
1.79516e-06
1.79131e-06
1.7913e-06
1.7913e-06
1.7913e-06
1.7913e-06
1.79131e-06
1.79622e-06
1.79815e-06
1.79786e-06
1.79512e-06
1.79131e-06
1.7913e-06
1.7913e-06
1.7913e-06
1.7913e-06
1.79131e-06
1.79643e-06
1.79784e-06
1.79769e-06
1.79494e-06
1.79131e-06
1.7913e-06
1.7913e-06
1.7913e-06
1.7913e-06
1.79131e-06
1.79642e-06
1.79597e-06
1.79522e-06
1.79131e-06
1.7913e-06
1.7913e-06
1.7913e-06
1.7913e-06
1.79131e-06
1.79636e-06
1.7982e-06
1.79759e-06
1.79505e-06
1.79131e-06
1.79131e-06
1.79131e-06
1.79131e-06
1.79624e-06
1.79614e-06
1.79811e-06
1.79777e-06
1.79586e-06
1.79623e-06
1.79643e-06
1.79642e-06
1.79636e-06
1.79613e-06
1.79805e-06
1.79816e-06
1.79784e-06
1.79597e-06
1.7982e-06
1.79811e-06
1.7782e-06
1.77803e-06
1.77783e-06
1.7755e-06
1.77545e-06
1.77527e-06
1.77555e-06
1.77792e-06
1.77809e-06
1.77783e-06
1.77454e-06
1.77164e-06
1.77164e-06
1.77164e-06
1.77164e-06
1.77537e-06
1.77619e-06
1.7755e-06
1.77164e-06
1.77164e-06
1.77164e-06
1.77164e-06
1.77164e-06
1.77164e-06
1.77656e-06
1.77849e-06
1.7782e-06
1.77545e-06
1.77164e-06
1.77164e-06
1.77164e-06
1.77164e-06
1.77164e-06
1.77164e-06
1.77677e-06
1.77818e-06
1.77803e-06
1.77527e-06
1.77164e-06
1.77164e-06
1.77164e-06
1.77164e-06
1.77164e-06
1.77164e-06
1.77676e-06
1.77631e-06
1.77555e-06
1.77164e-06
1.77164e-06
1.77164e-06
1.77164e-06
1.77164e-06
1.77164e-06
1.77669e-06
1.77854e-06
1.77792e-06
1.77537e-06
1.77164e-06
1.77164e-06
1.77164e-06
1.77164e-06
1.7766e-06
1.77649e-06
1.77845e-06
1.77813e-06
1.77619e-06
1.77656e-06
1.77677e-06
1.77676e-06
1.77669e-06
1.77647e-06
1.77838e-06
1.77849e-06
1.77819e-06
1.77631e-06
1.77854e-06
1.77845e-06
1.75853e-06
1.75837e-06
1.75816e-06
1.75584e-06
1.75579e-06
1.75561e-06
1.75588e-06
1.75825e-06
1.75843e-06
1.75817e-06
1.75487e-06
1.75198e-06
1.75198e-06
1.75198e-06
1.75198e-06
1.75571e-06
1.75653e-06
1.75583e-06
1.75198e-06
1.75198e-06
1.75198e-06
1.75198e-06
1.75198e-06
1.75198e-06
1.7569e-06
1.75883e-06
1.75854e-06
1.75579e-06
1.75198e-06
1.75198e-06
1.75198e-06
1.75198e-06
1.75198e-06
1.75198e-06
1.75711e-06
1.75852e-06
1.75837e-06
1.75561e-06
1.75198e-06
1.75198e-06
1.75198e-06
1.75198e-06
1.75198e-06
1.75198e-06
1.7571e-06
1.75665e-06
1.75588e-06
1.75198e-06
1.75198e-06
1.75198e-06
1.75198e-06
1.75198e-06
1.75198e-06
1.75703e-06
1.75888e-06
1.75825e-06
1.7557e-06
1.75198e-06
1.75198e-06
1.75198e-06
1.75198e-06
1.75693e-06
1.75682e-06
1.75879e-06
1.75846e-06
1.75653e-06
1.7569e-06
1.75711e-06
1.7571e-06
1.75703e-06
1.75681e-06
1.75872e-06
1.75883e-06
1.75852e-06
1.75665e-06
1.75888e-06
1.75879e-06
1.73887e-06
1.73871e-06
1.7385e-06
1.73617e-06
1.73612e-06
1.73594e-06
1.73622e-06
1.73859e-06
1.73877e-06
1.7385e-06
1.73521e-06
1.73231e-06
1.73231e-06
1.73231e-06
1.73231e-06
1.73604e-06
1.73687e-06
1.73617e-06
1.73231e-06
1.73231e-06
1.73231e-06
1.73231e-06
1.73231e-06
1.73231e-06
1.73723e-06
1.73916e-06
1.73887e-06
1.73612e-06
1.73231e-06
1.73231e-06
1.73231e-06
1.73231e-06
1.73231e-06
1.73231e-06
1.73745e-06
1.73886e-06
1.73871e-06
1.73594e-06
1.73231e-06
1.73231e-06
1.73231e-06
1.73231e-06
1.73231e-06
1.73231e-06
1.73744e-06
1.73699e-06
1.73622e-06
1.73231e-06
1.73231e-06
1.73231e-06
1.73231e-06
1.73231e-06
1.73231e-06
1.73737e-06
1.73922e-06
1.73859e-06
1.73604e-06
1.73231e-06
1.73231e-06
1.73231e-06
1.73231e-06
1.73727e-06
1.73716e-06
1.73912e-06
1.7388e-06
1.73686e-06
1.73723e-06
1.73745e-06
1.73744e-06
1.73737e-06
1.73715e-06
1.73906e-06
1.73916e-06
1.73886e-06
1.73699e-06
1.73922e-06
1.73912e-06
1.71921e-06
1.71904e-06
1.71884e-06
1.71651e-06
1.71646e-06
1.71628e-06
1.71656e-06
1.71892e-06
1.7191e-06
1.71884e-06
1.71555e-06
1.71265e-06
1.71265e-06
1.71265e-06
1.71265e-06
1.71638e-06
1.7172e-06
1.71651e-06
1.71265e-06
1.71265e-06
1.71265e-06
1.71265e-06
1.71265e-06
1.71265e-06
1.71757e-06
1.7195e-06
1.71921e-06
1.71646e-06
1.71265e-06
1.71265e-06
1.71265e-06
1.71265e-06
1.71265e-06
1.71265e-06
1.71778e-06
1.7192e-06
1.71904e-06
1.71628e-06
1.71265e-06
1.71265e-06
1.71265e-06
1.71265e-06
1.71265e-06
1.71265e-06
1.71778e-06
1.71733e-06
1.71655e-06
1.71265e-06
1.71265e-06
1.71265e-06
1.71265e-06
1.71265e-06
1.71265e-06
1.7177e-06
1.71955e-06
1.71892e-06
1.71637e-06
1.71265e-06
1.71265e-06
1.71265e-06
1.71265e-06
1.71761e-06
1.7175e-06
1.71946e-06
1.71913e-06
1.7172e-06
1.71757e-06
1.71779e-06
1.71778e-06
1.7177e-06
1.71749e-06
1.71939e-06
1.7195e-06
1.7192e-06
1.71733e-06
1.71955e-06
1.71946e-06
1.69954e-06
1.69938e-06
1.69917e-06
1.69685e-06
1.6968e-06
1.69662e-06
1.69689e-06
1.69926e-06
1.69944e-06
1.69918e-06
1.69588e-06
1.69299e-06
1.69299e-06
1.69299e-06
1.69299e-06
1.69672e-06
1.69754e-06
1.69684e-06
1.69299e-06
1.69299e-06
1.69299e-06
1.69299e-06
1.69299e-06
1.69299e-06
1.69791e-06
1.69984e-06
1.69955e-06
1.6968e-06
1.69299e-06
1.69299e-06
1.69299e-06
1.69299e-06
1.69299e-06
1.69299e-06
1.69812e-06
1.69953e-06
1.69938e-06
1.69661e-06
1.69299e-06
1.69299e-06
1.69299e-06
1.69299e-06
1.69299e-06
1.69299e-06
1.69811e-06
1.69766e-06
1.69689e-06
1.69299e-06
1.69299e-06
1.69299e-06
1.69299e-06
1.69299e-06
1.69299e-06
1.69804e-06
1.69989e-06
1.69926e-06
1.69671e-06
1.69299e-06
1.69299e-06
1.69299e-06
1.69299e-06
1.69795e-06
1.69783e-06
1.6998e-06
1.69947e-06
1.69754e-06
1.69791e-06
1.69812e-06
1.69811e-06
1.69804e-06
1.69782e-06
1.69973e-06
1.69984e-06
1.69953e-06
1.69766e-06
1.69989e-06
1.6998e-06
1.67988e-06
1.67972e-06
1.67953e-06
1.67718e-06
1.67714e-06
1.67695e-06
1.67723e-06
1.6796e-06
1.67978e-06
1.67953e-06
1.67621e-06
1.67332e-06
1.67332e-06
1.67332e-06
1.67332e-06
1.67706e-06
1.67788e-06
1.67718e-06
1.67332e-06
1.67332e-06
1.67332e-06
1.67332e-06
1.67332e-06
1.67332e-06
1.67825e-06
1.68017e-06
1.67989e-06
1.67713e-06
1.67332e-06
1.67332e-06
1.67332e-06
1.67332e-06
1.67332e-06
1.67332e-06
1.67846e-06
1.67987e-06
1.67972e-06
1.67695e-06
1.67332e-06
1.67332e-06
1.67332e-06
1.67332e-06
1.67332e-06
1.67332e-06
1.67845e-06
1.678e-06
1.67723e-06
1.67332e-06
1.67332e-06
1.67332e-06
1.67332e-06
1.67332e-06
1.67332e-06
1.67838e-06
1.68023e-06
1.6796e-06
1.67705e-06
1.67332e-06
1.67332e-06
1.67332e-06
1.67332e-06
1.67828e-06
1.67817e-06
1.68013e-06
1.67981e-06
1.67787e-06
1.67824e-06
1.67846e-06
1.67845e-06
1.67838e-06
1.67816e-06
1.68007e-06
1.68018e-06
1.67987e-06
1.678e-06
1.68023e-06
1.68013e-06
1.66022e-06
1.66006e-06
1.65985e-06
1.65752e-06
1.65747e-06
1.65729e-06
1.65757e-06
1.65994e-06
1.66011e-06
1.65985e-06
1.65656e-06
1.65366e-06
1.65366e-06
1.65366e-06
1.65366e-06
1.65739e-06
1.65822e-06
1.65752e-06
1.65366e-06
1.65366e-06
1.65366e-06
1.65366e-06
1.65366e-06
1.65366e-06
1.65858e-06
1.66051e-06
1.66022e-06
1.65747e-06
1.65366e-06
1.65366e-06
1.65366e-06
1.65366e-06
1.65366e-06
1.65366e-06
1.6588e-06
1.66021e-06
1.66006e-06
1.65729e-06
1.65366e-06
1.65366e-06
1.65366e-06
1.65366e-06
1.65366e-06
1.65366e-06
1.65879e-06
1.65834e-06
1.65757e-06
1.65366e-06
1.65366e-06
1.65366e-06
1.65366e-06
1.65366e-06
1.65366e-06
1.65872e-06
1.66057e-06
1.65994e-06
1.65738e-06
1.65366e-06
1.65366e-06
1.65366e-06
1.65366e-06
1.65862e-06
1.65851e-06
1.66047e-06
1.66014e-06
1.65821e-06
1.65858e-06
1.6588e-06
1.65879e-06
1.65872e-06
1.6585e-06
1.6604e-06
1.66051e-06
1.66021e-06
1.65834e-06
1.66057e-06
1.66047e-06
1.64056e-06
1.64039e-06
1.64019e-06
1.63786e-06
1.63781e-06
1.63763e-06
1.63791e-06
1.64028e-06
1.64045e-06
1.64019e-06
1.6369e-06
1.634e-06
1.634e-06
1.634e-06
1.634e-06
1.63773e-06
1.63855e-06
1.63786e-06
1.634e-06
1.634e-06
1.634e-06
1.634e-06
1.634e-06
1.634e-06
1.63892e-06
1.64085e-06
1.64056e-06
1.63781e-06
1.634e-06
1.634e-06
1.634e-06
1.634e-06
1.634e-06
1.634e-06
1.63914e-06
1.64055e-06
1.64039e-06
1.63763e-06
1.634e-06
1.634e-06
1.634e-06
1.634e-06
1.634e-06
1.634e-06
1.63913e-06
1.63868e-06
1.6379e-06
1.634e-06
1.634e-06
1.634e-06
1.634e-06
1.634e-06
1.634e-06
1.63905e-06
1.6409e-06
1.64028e-06
1.63772e-06
1.634e-06
1.634e-06
1.634e-06
1.634e-06
1.63896e-06
1.63885e-06
1.64081e-06
1.64048e-06
1.63855e-06
1.63892e-06
1.63914e-06
1.63913e-06
1.63905e-06
1.63884e-06
1.64074e-06
1.64085e-06
1.64055e-06
1.63868e-06
1.6409e-06
1.64081e-06
1.62089e-06
1.62073e-06
1.62054e-06
1.6182e-06
1.61815e-06
1.61797e-06
1.61824e-06
1.62061e-06
1.62079e-06
1.62054e-06
1.61722e-06
1.61434e-06
1.61434e-06
1.61434e-06
1.61434e-06
1.61807e-06
1.61889e-06
1.61819e-06
1.61434e-06
1.61434e-06
1.61434e-06
1.61434e-06
1.61434e-06
1.61434e-06
1.61926e-06
1.62119e-06
1.6209e-06
1.61815e-06
1.61434e-06
1.61434e-06
1.61434e-06
1.61434e-06
1.61434e-06
1.61434e-06
1.61947e-06
1.62088e-06
1.62073e-06
1.61796e-06
1.61434e-06
1.61434e-06
1.61434e-06
1.61434e-06
1.61434e-06
1.61434e-06
1.61946e-06
1.61901e-06
1.61824e-06
1.61434e-06
1.61434e-06
1.61434e-06
1.61434e-06
1.61434e-06
1.61434e-06
1.61939e-06
1.62124e-06
1.62061e-06
1.61806e-06
1.61434e-06
1.61434e-06
1.61433e-06
1.61433e-06
1.6193e-06
1.61918e-06
1.62115e-06
1.62082e-06
1.61889e-06
1.61926e-06
1.61947e-06
1.61946e-06
1.61939e-06
1.61917e-06
1.62108e-06
1.62119e-06
1.62088e-06
1.61901e-06
1.62124e-06
1.62115e-06
1.60123e-06
1.60107e-06
1.60087e-06
1.59853e-06
1.59848e-06
1.5983e-06
1.59858e-06
1.60095e-06
1.60112e-06
1.60087e-06
1.59756e-06
1.59467e-06
1.59467e-06
1.59467e-06
1.59467e-06
1.5984e-06
1.59923e-06
1.59853e-06
1.59467e-06
1.59467e-06
1.59467e-06
1.59467e-06
1.59467e-06
1.59467e-06
1.59959e-06
1.60152e-06
1.60123e-06
1.59848e-06
1.59467e-06
1.59467e-06
1.59467e-06
1.59467e-06
1.59467e-06
1.59467e-06
1.59981e-06
1.60122e-06
1.60107e-06
1.5983e-06
1.59467e-06
1.59467e-06
1.59467e-06
1.59467e-06
1.59467e-06
1.59467e-06
1.5998e-06
1.59935e-06
1.59858e-06
1.59467e-06
1.59467e-06
1.59467e-06
1.59467e-06
1.59467e-06
1.59467e-06
1.59973e-06
1.60158e-06
1.60095e-06
1.59839e-06
1.59467e-06
1.59467e-06
1.59467e-06
1.59467e-06
1.59963e-06
1.59952e-06
1.60148e-06
1.60115e-06
1.59922e-06
1.59959e-06
1.59981e-06
1.5998e-06
1.59973e-06
1.59951e-06
1.60141e-06
1.60152e-06
1.60122e-06
1.59935e-06
1.60157e-06
1.60148e-06
1.58156e-06
1.5814e-06
1.5812e-06
1.57887e-06
1.57882e-06
1.57864e-06
1.57891e-06
1.58128e-06
1.58146e-06
1.58121e-06
1.57789e-06
1.57501e-06
1.57501e-06
1.57501e-06
1.57501e-06
1.57874e-06
1.57956e-06
1.57886e-06
1.57501e-06
1.57501e-06
1.57501e-06
1.57501e-06
1.57501e-06
1.57501e-06
1.57993e-06
1.58186e-06
1.58157e-06
1.57882e-06
1.57501e-06
1.57501e-06
1.57501e-06
1.57501e-06
1.57501e-06
1.57501e-06
1.58014e-06
1.58155e-06
1.5814e-06
1.57863e-06
1.57501e-06
1.57501e-06
1.57501e-06
1.57501e-06
1.57501e-06
1.57501e-06
1.58013e-06
1.57968e-06
1.57891e-06
1.57501e-06
1.57501e-06
1.57501e-06
1.57501e-06
1.57501e-06
1.57501e-06
1.58006e-06
1.58191e-06
1.58128e-06
1.57873e-06
1.57501e-06
1.57501e-06
1.57501e-06
1.57501e-06
1.57997e-06
1.57985e-06
1.58182e-06
1.58149e-06
1.57956e-06
1.57993e-06
1.58014e-06
1.58013e-06
1.58006e-06
1.57984e-06
1.58175e-06
1.58186e-06
1.58155e-06
1.57968e-06
1.58191e-06
1.58182e-06
1.5619e-06
1.56174e-06
1.56154e-06
1.5592e-06
1.55915e-06
1.55897e-06
1.55925e-06
1.56162e-06
1.56179e-06
1.56154e-06
1.55823e-06
1.55534e-06
1.55534e-06
1.55534e-06
1.55534e-06
1.55907e-06
1.5599e-06
1.5592e-06
1.55534e-06
1.55534e-06
1.55534e-06
1.55534e-06
1.55534e-06
1.55534e-06
1.56026e-06
1.56219e-06
1.5619e-06
1.55915e-06
1.55534e-06
1.55534e-06
1.55534e-06
1.55534e-06
1.55534e-06
1.55534e-06
1.56048e-06
1.56189e-06
1.56174e-06
1.55897e-06
1.55534e-06
1.55534e-06
1.55534e-06
1.55534e-06
1.55534e-06
1.55534e-06
1.56047e-06
1.56002e-06
1.55925e-06
1.55534e-06
1.55534e-06
1.55534e-06
1.55534e-06
1.55534e-06
1.55534e-06
1.5604e-06
1.56225e-06
1.56162e-06
1.55906e-06
1.55534e-06
1.55534e-06
1.55534e-06
1.55534e-06
1.5603e-06
1.56019e-06
1.56215e-06
1.56182e-06
1.55989e-06
1.56026e-06
1.56048e-06
1.56047e-06
1.5604e-06
1.56018e-06
1.56208e-06
1.56219e-06
1.56189e-06
1.56002e-06
1.56225e-06
1.56215e-06
1.54223e-06
1.54207e-06
1.54187e-06
1.53954e-06
1.53949e-06
1.53931e-06
1.53958e-06
1.54195e-06
1.54213e-06
1.54188e-06
1.53856e-06
1.53568e-06
1.53568e-06
1.53568e-06
1.53568e-06
1.53941e-06
1.54023e-06
1.53953e-06
1.53568e-06
1.53568e-06
1.53568e-06
1.53568e-06
1.53568e-06
1.53568e-06
1.5406e-06
1.54253e-06
1.54224e-06
1.53949e-06
1.53568e-06
1.53568e-06
1.53568e-06
1.53568e-06
1.53568e-06
1.53568e-06
1.54081e-06
1.54222e-06
1.54207e-06
1.5393e-06
1.53568e-06
1.53568e-06
1.53568e-06
1.53568e-06
1.53568e-06
1.53568e-06
1.5408e-06
1.54035e-06
1.53958e-06
1.53568e-06
1.53568e-06
1.53568e-06
1.53568e-06
1.53568e-06
1.53568e-06
1.54073e-06
1.54258e-06
1.54195e-06
1.5394e-06
1.53568e-06
1.53568e-06
1.53568e-06
1.53568e-06
1.54064e-06
1.54053e-06
1.54249e-06
1.54216e-06
1.54023e-06
1.5406e-06
1.54081e-06
1.5408e-06
1.54073e-06
1.54051e-06
1.54242e-06
1.54253e-06
1.54222e-06
1.54035e-06
1.54258e-06
1.54249e-06
1.52257e-06
1.52241e-06
1.52221e-06
1.51987e-06
1.51982e-06
1.51964e-06
1.51992e-06
1.52229e-06
1.52246e-06
1.52221e-06
1.5189e-06
1.51601e-06
1.51601e-06
1.51601e-06
1.51601e-06
1.51974e-06
1.52057e-06
1.51987e-06
1.51601e-06
1.51601e-06
1.51601e-06
1.51601e-06
1.51601e-06
1.51601e-06
1.52093e-06
1.52286e-06
1.52257e-06
1.51982e-06
1.51601e-06
1.51601e-06
1.51601e-06
1.51601e-06
1.51601e-06
1.51601e-06
1.52115e-06
1.52256e-06
1.52241e-06
1.51964e-06
1.51601e-06
1.51601e-06
1.51601e-06
1.51601e-06
1.51601e-06
1.51601e-06
1.52114e-06
1.52069e-06
1.51991e-06
1.51601e-06
1.51601e-06
1.51601e-06
1.51601e-06
1.51601e-06
1.51601e-06
1.52107e-06
1.52292e-06
1.52229e-06
1.51973e-06
1.51601e-06
1.51601e-06
1.51601e-06
1.51601e-06
1.52097e-06
1.52086e-06
1.52282e-06
1.52249e-06
1.52056e-06
1.52093e-06
1.52115e-06
1.52114e-06
1.52107e-06
1.52085e-06
1.52275e-06
1.52286e-06
1.52256e-06
1.52069e-06
1.52291e-06
1.52282e-06
1.5029e-06
1.50274e-06
1.50254e-06
1.5002e-06
1.50016e-06
1.49998e-06
1.50025e-06
1.50262e-06
1.5028e-06
1.50255e-06
1.49923e-06
1.49634e-06
1.49634e-06
1.49634e-06
1.49634e-06
1.50008e-06
1.5009e-06
1.5002e-06
1.49634e-06
1.49634e-06
1.49634e-06
1.49634e-06
1.49634e-06
1.49634e-06
1.50127e-06
1.5032e-06
1.50291e-06
1.50016e-06
1.49634e-06
1.49634e-06
1.49634e-06
1.49634e-06
1.49634e-06
1.49634e-06
1.50148e-06
1.50289e-06
1.50274e-06
1.49997e-06
1.49634e-06
1.49634e-06
1.49634e-06
1.49634e-06
1.49634e-06
1.49634e-06
1.50147e-06
1.50102e-06
1.50025e-06
1.49634e-06
1.49634e-06
1.49634e-06
1.49634e-06
1.49634e-06
1.49634e-06
1.5014e-06
1.50325e-06
1.50262e-06
1.50007e-06
1.49634e-06
1.49634e-06
1.49634e-06
1.49634e-06
1.5013e-06
1.50119e-06
1.50316e-06
1.50283e-06
1.5009e-06
1.50127e-06
1.50148e-06
1.50147e-06
1.5014e-06
1.50118e-06
1.50309e-06
1.5032e-06
1.50289e-06
1.50102e-06
1.50325e-06
1.50316e-06
1.48324e-06
1.48307e-06
1.48288e-06
1.48054e-06
1.48049e-06
1.48031e-06
1.48059e-06
1.48296e-06
1.48313e-06
1.48288e-06
1.47956e-06
1.47668e-06
1.47668e-06
1.47668e-06
1.47668e-06
1.48041e-06
1.48123e-06
1.48054e-06
1.47668e-06
1.47668e-06
1.47668e-06
1.47668e-06
1.47668e-06
1.47668e-06
1.4816e-06
1.48353e-06
1.48324e-06
1.48049e-06
1.47668e-06
1.47668e-06
1.47668e-06
1.47668e-06
1.47668e-06
1.47668e-06
1.48181e-06
1.48323e-06
1.48307e-06
1.48031e-06
1.47668e-06
1.47668e-06
1.47668e-06
1.47668e-06
1.47668e-06
1.47668e-06
1.48181e-06
1.48136e-06
1.48058e-06
1.47668e-06
1.47668e-06
1.47668e-06
1.47668e-06
1.47668e-06
1.47668e-06
1.48173e-06
1.48358e-06
1.48295e-06
1.4804e-06
1.47668e-06
1.47668e-06
1.47668e-06
1.47668e-06
1.48164e-06
1.48153e-06
1.48349e-06
1.48316e-06
1.48123e-06
1.4816e-06
1.48181e-06
1.48181e-06
1.48173e-06
1.48152e-06
1.48342e-06
1.48353e-06
1.48323e-06
1.48136e-06
1.48358e-06
1.48349e-06
1.46357e-06
1.46341e-06
1.46321e-06
1.46087e-06
1.46082e-06
1.46064e-06
1.46092e-06
1.46329e-06
1.46346e-06
1.46321e-06
1.4599e-06
1.45701e-06
1.45701e-06
1.45701e-06
1.45701e-06
1.46074e-06
1.46157e-06
1.46087e-06
1.45701e-06
1.45701e-06
1.45701e-06
1.45701e-06
1.45701e-06
1.45701e-06
1.46193e-06
1.46386e-06
1.46357e-06
1.46082e-06
1.45701e-06
1.45701e-06
1.45701e-06
1.45701e-06
1.45701e-06
1.45701e-06
1.46215e-06
1.46356e-06
1.46341e-06
1.46064e-06
1.45701e-06
1.45701e-06
1.45701e-06
1.45701e-06
1.45701e-06
1.45701e-06
1.46214e-06
1.46169e-06
1.46092e-06
1.45701e-06
1.45701e-06
1.45701e-06
1.45701e-06
1.45701e-06
1.45701e-06
1.46207e-06
1.46392e-06
1.46329e-06
1.46073e-06
1.45701e-06
1.45701e-06
1.45701e-06
1.45701e-06
1.46197e-06
1.46186e-06
1.46382e-06
1.46349e-06
1.46156e-06
1.46193e-06
1.46215e-06
1.46214e-06
1.46207e-06
1.46185e-06
1.46375e-06
1.46386e-06
1.46356e-06
1.46169e-06
1.46392e-06
1.46382e-06
1.4439e-06
1.44374e-06
1.44354e-06
1.4412e-06
1.44116e-06
1.44097e-06
1.44125e-06
1.44362e-06
1.4438e-06
1.44355e-06
1.44023e-06
1.43734e-06
1.43734e-06
1.43734e-06
1.43734e-06
1.44108e-06
1.4419e-06
1.4412e-06
1.43734e-06
1.43734e-06
1.43734e-06
1.43734e-06
1.43734e-06
1.43734e-06
1.44227e-06
1.44419e-06
1.44391e-06
1.44115e-06
1.43734e-06
1.43734e-06
1.43734e-06
1.43734e-06
1.43734e-06
1.43734e-06
1.44248e-06
1.44389e-06
1.44374e-06
1.44097e-06
1.43734e-06
1.43734e-06
1.43734e-06
1.43734e-06
1.43734e-06
1.43734e-06
1.44247e-06
1.44202e-06
1.44125e-06
1.43734e-06
1.43734e-06
1.43734e-06
1.43734e-06
1.43734e-06
1.43734e-06
1.4424e-06
1.44425e-06
1.44362e-06
1.44107e-06
1.43734e-06
1.43734e-06
1.43734e-06
1.43734e-06
1.4423e-06
1.44219e-06
1.44415e-06
1.44383e-06
1.44189e-06
1.44226e-06
1.44248e-06
1.44247e-06
1.4424e-06
1.44218e-06
1.44409e-06
1.4442e-06
1.44389e-06
1.44202e-06
1.44425e-06
1.44415e-06
1.42423e-06
1.42407e-06
1.42387e-06
1.42153e-06
1.42149e-06
1.42131e-06
1.42158e-06
1.42395e-06
1.42413e-06
1.42388e-06
1.42056e-06
1.41767e-06
1.41767e-06
1.41767e-06
1.41767e-06
1.42141e-06
1.42223e-06
1.42153e-06
1.41767e-06
1.41767e-06
1.41767e-06
1.41767e-06
1.41767e-06
1.41767e-06
1.4226e-06
1.42453e-06
1.42424e-06
1.42149e-06
1.41767e-06
1.41767e-06
1.41767e-06
1.41767e-06
1.41767e-06
1.41767e-06
1.42281e-06
1.42422e-06
1.42407e-06
1.4213e-06
1.41767e-06
1.41767e-06
1.41767e-06
1.41767e-06
1.41767e-06
1.41767e-06
1.4228e-06
1.42235e-06
1.42158e-06
1.41767e-06
1.41767e-06
1.41767e-06
1.41767e-06
1.41767e-06
1.41767e-06
1.42273e-06
1.42458e-06
1.42395e-06
1.4214e-06
1.41767e-06
1.41767e-06
1.41767e-06
1.41767e-06
1.42263e-06
1.42252e-06
1.42449e-06
1.42416e-06
1.42223e-06
1.4226e-06
1.42281e-06
1.4228e-06
1.42273e-06
1.42251e-06
1.42442e-06
1.42453e-06
1.42422e-06
1.42235e-06
1.42458e-06
1.42449e-06
1.40456e-06
1.4044e-06
1.4042e-06
1.40187e-06
1.40182e-06
1.40164e-06
1.40192e-06
1.40429e-06
1.40446e-06
1.40421e-06
1.40089e-06
1.39801e-06
1.39801e-06
1.39801e-06
1.39801e-06
1.40174e-06
1.40256e-06
1.40187e-06
1.39801e-06
1.39801e-06
1.39801e-06
1.39801e-06
1.39801e-06
1.39801e-06
1.40293e-06
1.40486e-06
1.40457e-06
1.40182e-06
1.39801e-06
1.39801e-06
1.39801e-06
1.39801e-06
1.39801e-06
1.39801e-06
1.40314e-06
1.40455e-06
1.4044e-06
1.40163e-06
1.39801e-06
1.39801e-06
1.39801e-06
1.39801e-06
1.39801e-06
1.39801e-06
1.40313e-06
1.40268e-06
1.40191e-06
1.39801e-06
1.39801e-06
1.39801e-06
1.39801e-06
1.39801e-06
1.39801e-06
1.40306e-06
1.40491e-06
1.40428e-06
1.40173e-06
1.39801e-06
1.39801e-06
1.39801e-06
1.39801e-06
1.40297e-06
1.40286e-06
1.40482e-06
1.40449e-06
1.40256e-06
1.40293e-06
1.40314e-06
1.40313e-06
1.40306e-06
1.40284e-06
1.40475e-06
1.40486e-06
1.40456e-06
1.40268e-06
1.40491e-06
1.40482e-06
1.3849e-06
1.38473e-06
1.38454e-06
1.3822e-06
1.38215e-06
1.38197e-06
1.38225e-06
1.38462e-06
1.38479e-06
1.38454e-06
1.38122e-06
1.37834e-06
1.37834e-06
1.37834e-06
1.37834e-06
1.38207e-06
1.38289e-06
1.3822e-06
1.37834e-06
1.37834e-06
1.37834e-06
1.37834e-06
1.37834e-06
1.37834e-06
1.38326e-06
1.38519e-06
1.3849e-06
1.38215e-06
1.37834e-06
1.37834e-06
1.37834e-06
1.37834e-06
1.37834e-06
1.37834e-06
1.38348e-06
1.38489e-06
1.38473e-06
1.38197e-06
1.37834e-06
1.37834e-06
1.37834e-06
1.37834e-06
1.37834e-06
1.37834e-06
1.38347e-06
1.38302e-06
1.38224e-06
1.37834e-06
1.37834e-06
1.37834e-06
1.37834e-06
1.37834e-06
1.37834e-06
1.38339e-06
1.38524e-06
1.38462e-06
1.38206e-06
1.37834e-06
1.37834e-06
1.37834e-06
1.37834e-06
1.3833e-06
1.38319e-06
1.38515e-06
1.38482e-06
1.38289e-06
1.38326e-06
1.38348e-06
1.38347e-06
1.38339e-06
1.38318e-06
1.38508e-06
1.38519e-06
1.38489e-06
1.38302e-06
1.38524e-06
1.38515e-06
1.36523e-06
1.36507e-06
1.36487e-06
1.36253e-06
1.36248e-06
1.3623e-06
1.36258e-06
1.36495e-06
1.36512e-06
1.36487e-06
1.36156e-06
1.35867e-06
1.35867e-06
1.35867e-06
1.35867e-06
1.3624e-06
1.36323e-06
1.36253e-06
1.35867e-06
1.35867e-06
1.35867e-06
1.35867e-06
1.35867e-06
1.35867e-06
1.36359e-06
1.36552e-06
1.36523e-06
1.36248e-06
1.35867e-06
1.35867e-06
1.35867e-06
1.35867e-06
1.35867e-06
1.35867e-06
1.36381e-06
1.36522e-06
1.36507e-06
1.3623e-06
1.35867e-06
1.35867e-06
1.35867e-06
1.35867e-06
1.35867e-06
1.35867e-06
1.3638e-06
1.36335e-06
1.36258e-06
1.35867e-06
1.35867e-06
1.35867e-06
1.35867e-06
1.35867e-06
1.35867e-06
1.36373e-06
1.36558e-06
1.36495e-06
1.36239e-06
1.35867e-06
1.35867e-06
1.35867e-06
1.35867e-06
1.36363e-06
1.36352e-06
1.36548e-06
1.36515e-06
1.36322e-06
1.36359e-06
1.36381e-06
1.3638e-06
1.36373e-06
1.36351e-06
1.36542e-06
1.36552e-06
1.36522e-06
1.36335e-06
1.36558e-06
1.36548e-06
1.34556e-06
1.3454e-06
1.3452e-06
1.34286e-06
1.34281e-06
1.34263e-06
1.34291e-06
1.34528e-06
1.34546e-06
1.34521e-06
1.34189e-06
1.339e-06
1.339e-06
1.339e-06
1.339e-06
1.34274e-06
1.34356e-06
1.34286e-06
1.339e-06
1.339e-06
1.339e-06
1.339e-06
1.339e-06
1.339e-06
1.34393e-06
1.34586e-06
1.34557e-06
1.34281e-06
1.339e-06
1.339e-06
1.339e-06
1.339e-06
1.339e-06
1.339e-06
1.34414e-06
1.34555e-06
1.3454e-06
1.34263e-06
1.339e-06
1.339e-06
1.339e-06
1.339e-06
1.339e-06
1.339e-06
1.34413e-06
1.34368e-06
1.34291e-06
1.339e-06
1.339e-06
1.339e-06
1.339e-06
1.339e-06
1.339e-06
1.34406e-06
1.34591e-06
1.34528e-06
1.34273e-06
1.339e-06
1.339e-06
1.339e-06
1.339e-06
1.34396e-06
1.34385e-06
1.34582e-06
1.34549e-06
1.34355e-06
1.34392e-06
1.34414e-06
1.34413e-06
1.34406e-06
1.34384e-06
1.34575e-06
1.34586e-06
1.34555e-06
1.34368e-06
1.34591e-06
1.34582e-06
1.32589e-06
1.32573e-06
1.32553e-06
1.3232e-06
1.32315e-06
1.32297e-06
1.32324e-06
1.32562e-06
1.32579e-06
1.32554e-06
1.32222e-06
1.31934e-06
1.31934e-06
1.31934e-06
1.31934e-06
1.32307e-06
1.32389e-06
1.32319e-06
1.31934e-06
1.31934e-06
1.31934e-06
1.31934e-06
1.31934e-06
1.31934e-06
1.32426e-06
1.32619e-06
1.3259e-06
1.32315e-06
1.31934e-06
1.31934e-06
1.31934e-06
1.31934e-06
1.31934e-06
1.31934e-06
1.32447e-06
1.32588e-06
1.32573e-06
1.32296e-06
1.31934e-06
1.31934e-06
1.31934e-06
1.31934e-06
1.31934e-06
1.31934e-06
1.32446e-06
1.32401e-06
1.32324e-06
1.31934e-06
1.31934e-06
1.31934e-06
1.31934e-06
1.31934e-06
1.31934e-06
1.32439e-06
1.32624e-06
1.32561e-06
1.32306e-06
1.31934e-06
1.31934e-06
1.31934e-06
1.31934e-06
1.3243e-06
1.32419e-06
1.32615e-06
1.32582e-06
1.32389e-06
1.32426e-06
1.32447e-06
1.32446e-06
1.32439e-06
1.32417e-06
1.32608e-06
1.32619e-06
1.32588e-06
1.32401e-06
1.32624e-06
1.32615e-06
1.30623e-06
1.30607e-06
1.30587e-06
1.30353e-06
1.30348e-06
1.3033e-06
1.30358e-06
1.30595e-06
1.30612e-06
1.30587e-06
1.30256e-06
1.29967e-06
1.29967e-06
1.29967e-06
1.29967e-06
1.3034e-06
1.30422e-06
1.30353e-06
1.29967e-06
1.29967e-06
1.29967e-06
1.29967e-06
1.29967e-06
1.29967e-06
1.30459e-06
1.30652e-06
1.30623e-06
1.30348e-06
1.29967e-06
1.29967e-06
1.29967e-06
1.29967e-06
1.29967e-06
1.29967e-06
1.30481e-06
1.30622e-06
1.30606e-06
1.3033e-06
1.29967e-06
1.29967e-06
1.29967e-06
1.29967e-06
1.29967e-06
1.29967e-06
1.3048e-06
1.30435e-06
1.30357e-06
1.29967e-06
1.29967e-06
1.29967e-06
1.29967e-06
1.29967e-06
1.29967e-06
1.30473e-06
1.30657e-06
1.30595e-06
1.30339e-06
1.29967e-06
1.29967e-06
1.29967e-06
1.29967e-06
1.30463e-06
1.30452e-06
1.30648e-06
1.30615e-06
1.30422e-06
1.30459e-06
1.30481e-06
1.3048e-06
1.30472e-06
1.30451e-06
1.30641e-06
1.30652e-06
1.30622e-06
1.30435e-06
1.30657e-06
1.30648e-06
1.28656e-06
1.2864e-06
1.2862e-06
1.28386e-06
1.28381e-06
1.28363e-06
1.28391e-06
1.28628e-06
1.28646e-06
1.28621e-06
1.28289e-06
1.28e-06
1.28e-06
1.28e-06
1.28e-06
1.28373e-06
1.28456e-06
1.28386e-06
1.28e-06
1.28e-06
1.28e-06
1.28e-06
1.28e-06
1.28e-06
1.28492e-06
1.28685e-06
1.28656e-06
1.28381e-06
1.28e-06
1.28e-06
1.28e-06
1.28e-06
1.28e-06
1.28e-06
1.28514e-06
1.28655e-06
1.2864e-06
1.28363e-06
1.28e-06
1.28e-06
1.28e-06
1.28e-06
1.28e-06
1.28e-06
1.28513e-06
1.28468e-06
1.28391e-06
1.28e-06
1.28e-06
1.28e-06
1.28e-06
1.28e-06
1.28e-06
1.28506e-06
1.28691e-06
1.28628e-06
1.28373e-06
1.28e-06
1.28e-06
1.28e-06
1.28e-06
1.28496e-06
1.28485e-06
1.28681e-06
1.28649e-06
1.28455e-06
1.28492e-06
1.28514e-06
1.28513e-06
1.28506e-06
1.28484e-06
1.28675e-06
1.28686e-06
1.28655e-06
1.28468e-06
1.28691e-06