/*--------------------------------*- C++ -*----------------------------------*\
| =========                 |                                                 |
| \\      /  F ield         | OpenFOAM: The Open Source CFD Toolbox           |
|  \\    /   O peration     | Version:  v2012                                 |
|   \\  /    A nd           | Website:  www.openfoam.com                      |
|    \\/     M anipulation  |                                                 |
\*---------------------------------------------------------------------------*/
FoamFile
{
    version     2.0;
    format      ascii;
    class       volScalarField;
    location    "625";
    object      epsilon;
}
// * * * * * * * * * * * * * * * * * * * * * * * * * * * * * * * * * * * * * //

dimensions      [0 2 -3 0 0 0 0];


internalField   nonuniform List<scalar> 
171728
(
4.95567e-07
4.9733e-07
4.9733e-07
4.99575e-07
4.45573e-07
4.53735e-07
4.53737e-07
4.6371e-07
4.03752e-07
4.18513e-07
4.18517e-07
4.39411e-07
3.68363e-07
3.88552e-07
3.88558e-07
4.17667e-07
3.38015e-07
3.62102e-07
3.6211e-07
3.96081e-07
3.11646e-07
3.38273e-07
3.38281e-07
3.74581e-07
2.88473e-07
3.16638e-07
3.16646e-07
3.5371e-07
2.67923e-07
2.97021e-07
2.97031e-07
3.34148e-07
2.4958e-07
2.7937e-07
2.79379e-07
3.16484e-07
2.33137e-07
2.63679e-07
2.63688e-07
3.01161e-07
2.18366e-07
2.49955e-07
2.49964e-07
2.88493e-07
2.0509e-07
2.38198e-07
2.38208e-07
2.78695e-07
1.93172e-07
2.28411e-07
2.28421e-07
2.71876e-07
1.82498e-07
2.206e-07
2.20611e-07
2.68162e-07
1.72979e-07
2.14773e-07
2.14786e-07
2.67645e-07
1.64541e-07
2.10939e-07
2.10954e-07
2.70499e-07
1.57122e-07
2.09107e-07
2.09127e-07
2.76701e-07
1.50668e-07
2.09295e-07
2.09318e-07
2.86281e-07
1.45137e-07
2.11549e-07
2.11576e-07
2.99229e-07
1.40492e-07
2.15885e-07
2.15916e-07
3.15604e-07
1.36703e-07
2.22325e-07
2.22359e-07
3.35362e-07
1.33749e-07
2.30887e-07
2.30924e-07
3.58396e-07
1.31605e-07
2.41553e-07
2.41593e-07
3.8453e-07
1.30256e-07
2.54302e-07
2.54346e-07
4.13516e-07
1.29692e-07
2.69082e-07
2.69136e-07
4.44996e-07
1.29922e-07
2.85864e-07
2.85918e-07
4.78659e-07
1.30912e-07
3.04529e-07
3.04584e-07
5.14028e-07
1.32663e-07
3.24973e-07
3.2504e-07
5.50613e-07
1.3519e-07
3.47104e-07
3.4717e-07
5.88029e-07
1.38492e-07
3.70762e-07
3.7083e-07
6.25857e-07
1.42558e-07
3.95789e-07
3.95865e-07
6.63686e-07
1.4738e-07
4.22053e-07
4.22155e-07
7.01123e-07
1.53031e-07
4.4939e-07
4.49512e-07
7.38038e-07
1.59418e-07
4.77504e-07
4.77586e-07
7.73968e-07
1.66505e-07
5.06301e-07
5.06297e-07
8.0869e-07
1.74476e-07
5.35565e-07
5.35625e-07
8.42455e-07
1.8323e-07
5.65351e-07
5.65675e-07
8.7532e-07
1.93145e-07
5.95843e-07
5.95873e-07
9.07498e-07
2.03646e-07
6.25826e-07
6.25955e-07
9.37765e-07
2.13896e-07
6.54689e-07
6.54761e-07
9.65276e-07
2.25875e-07
6.83815e-07
6.83956e-07
9.92497e-07
2.38425e-07
7.10795e-07
7.13094e-07
1.0175e-06
2.49277e-07
7.35304e-07
7.33238e-07
1.03326e-06
2.58321e-07
7.54756e-07
7.50853e-07
1.04916e-06
2.74781e-07
7.73147e-07
7.90794e-07
1.09439e-06
3.18868e-07
8.55101e-07
8.66934e-07
1.1631e-06
3.49936e-07
9.32197e-07
9.00589e-07
1.19309e-06
3.36234e-07
8.96995e-07
8.67345e-07
1.17158e-06
3.10495e-07
8.42565e-07
8.65082e-07
1.14984e-06
3.27019e-07
8.90719e-07
9.15803e-07
1.17931e-06
3.78237e-07
9.3595e-07
9.30088e-07
1.18856e-06
3.94074e-07
9.26109e-07
9.41584e-07
1.19323e-06
3.90622e-07
9.49551e-07
1.00378e-06
1.24136e-06
4.28053e-07
1.01709e-06
9.79326e-07
1.25892e-06
4.59866e-07
1.03547e-06
9.45405e-07
1.28097e-06
4.77676e-07
1.0495e-06
1.03072e-06
1.33651e-06
4.89486e-07
1.06107e-06
1.11764e-06
1.32253e-06
4.7594e-07
1.04134e-06
1.10705e-06
1.27187e-06
4.67882e-07
1.05127e-06
1.04603e-06
1.29707e-06
5.13473e-07
1.11852e-06
1.04382e-06
1.35358e-06
5.60319e-07
1.13986e-06
1.10201e-06
1.37462e-06
5.76139e-07
1.10461e-06
1.13301e-06
1.36501e-06
5.63221e-07
1.09528e-06
1.13052e-06
1.35472e-06
5.51544e-07
1.12112e-06
1.12425e-06
1.35824e-06
5.61455e-07
1.14316e-06
1.13117e-06
1.37107e-06
5.89204e-07
1.15356e-06
1.14475e-06
1.3852e-06
6.11629e-07
1.15812e-06
1.15711e-06
1.39224e-06
6.21829e-07
1.16495e-06
1.16798e-06
1.39828e-06
6.25391e-07
1.17122e-06
1.17406e-06
1.40658e-06
6.30802e-07
1.17607e-06
1.17564e-06
1.41198e-06
6.40742e-07
1.17893e-06
1.1786e-06
1.41303e-06
6.50763e-07
1.18294e-06
1.18427e-06
1.41489e-06
6.56476e-07
1.18876e-06
1.1881e-06
1.41959e-06
6.61065e-07
1.19183e-06
1.19079e-06
1.42423e-06
6.67589e-07
1.19223e-06
1.19329e-06
1.42541e-06
6.73245e-07
1.19472e-06
1.19555e-06
1.4261e-06
6.75886e-07
1.19724e-06
1.19643e-06
1.42942e-06
6.79168e-07
1.19697e-06
1.19604e-06
1.43094e-06
6.83416e-07
1.19654e-06
1.19641e-06
1.42886e-06
6.86299e-07
1.19827e-06
1.19994e-06
1.43044e-06
6.88833e-07
1.19851e-06
1.20091e-06
1.43325e-06
6.9025e-07
1.19581e-06
1.19425e-06
1.42997e-06
6.90893e-07
1.1946e-06
1.19125e-06
1.42708e-06
6.92965e-07
1.19563e-06
1.19591e-06
1.43105e-06
6.94177e-07
1.1944e-06
1.19769e-06
1.43207e-06
6.93331e-07
1.18883e-06
1.19002e-06
1.4234e-06
6.91657e-07
1.18622e-06
1.184e-06
1.42093e-06
6.92842e-07
1.18712e-06
1.18382e-06
1.42721e-06
6.92412e-07
1.18523e-06
1.18596e-06
1.42113e-06
6.91129e-07
1.17705e-06
1.18338e-06
1.40918e-06
6.90946e-07
1.1775e-06
1.17575e-06
1.41537e-06
6.82886e-07
1.17806e-06
1.17898e-06
1.43694e-06
6.85718e-07
1.16473e-06
1.1706e-06
1.40805e-06
6.86689e-07
1.15721e-06
1.13398e-06
1.36182e-06
6.6069e-07
1.10052e-06
1.11027e-06
1.36433e-06
5.06417e-07
5.05584e-07
5.05582e-07
5.06417e-07
5.05583e-07
5.05582e-07
5.09649e-07
5.09649e-07
5.09649e-07
5.09649e-07
5.05584e-07
5.05584e-07
5.06418e-07
5.05584e-07
5.05583e-07
5.06418e-07
4.99575e-07
4.67237e-07
4.97331e-07
4.97335e-07
4.63713e-07
4.63721e-07
4.99575e-07
4.67235e-07
4.97335e-07
4.97336e-07
4.63718e-07
4.63724e-07
4.97332e-07
4.63709e-07
4.63714e-07
4.99575e-07
4.67241e-07
4.97334e-07
4.6371e-07
4.63719e-07
4.6724e-07
4.63709e-07
4.41426e-07
4.5374e-07
4.53748e-07
4.26739e-07
4.26747e-07
4.63708e-07
4.4142e-07
4.53744e-07
4.53751e-07
4.26739e-07
4.26751e-07
4.53741e-07
4.26729e-07
4.26741e-07
4.63711e-07
4.41431e-07
4.53744e-07
4.26734e-07
4.26741e-07
4.41429e-07
4.39407e-07
4.19283e-07
4.18522e-07
4.1853e-07
3.95676e-07
3.95682e-07
4.39405e-07
4.19275e-07
4.18522e-07
4.18535e-07
3.95672e-07
3.95689e-07
4.18525e-07
3.95663e-07
3.95679e-07
4.39413e-07
4.19289e-07
4.18523e-07
3.95669e-07
3.95673e-07
4.19287e-07
4.17662e-07
3.97645e-07
3.88566e-07
3.88571e-07
3.68461e-07
3.68466e-07
4.17656e-07
3.97636e-07
3.8856e-07
3.88578e-07
3.68452e-07
3.68473e-07
3.88569e-07
3.68444e-07
3.68464e-07
4.17669e-07
3.97651e-07
3.88562e-07
3.68452e-07
3.68454e-07
3.97649e-07
3.96076e-07
3.76086e-07
3.6212e-07
3.62124e-07
3.44033e-07
3.44036e-07
3.96069e-07
3.76076e-07
3.62109e-07
3.62131e-07
3.4402e-07
3.44043e-07
3.62123e-07
3.44013e-07
3.44036e-07
3.96082e-07
3.76091e-07
3.62111e-07
3.44022e-07
3.44021e-07
3.7609e-07
3.74575e-07
3.55112e-07
3.38293e-07
3.38295e-07
3.21875e-07
3.21876e-07
3.74568e-07
3.55101e-07
3.38279e-07
3.38303e-07
3.21858e-07
3.21884e-07
3.38296e-07
3.21853e-07
3.21877e-07
3.74581e-07
3.55117e-07
3.3828e-07
3.21862e-07
3.2186e-07
3.55116e-07
3.53704e-07
3.35395e-07
3.16659e-07
3.16661e-07
3.01763e-07
3.01764e-07
3.53696e-07
3.35385e-07
3.16643e-07
3.16668e-07
3.01745e-07
3.01771e-07
3.16662e-07
3.0174e-07
3.01765e-07
3.5371e-07
3.354e-07
3.16644e-07
3.01749e-07
3.01746e-07
3.35401e-07
3.34141e-07
3.17533e-07
2.97044e-07
2.97045e-07
2.83623e-07
2.83623e-07
3.34133e-07
3.17522e-07
2.97026e-07
2.97053e-07
2.83603e-07
2.83631e-07
2.97047e-07
2.83599e-07
2.83625e-07
3.34148e-07
3.17538e-07
2.97027e-07
2.83608e-07
2.83604e-07
3.17539e-07
3.16477e-07
3.01975e-07
2.79394e-07
2.79394e-07
2.67442e-07
2.67442e-07
3.16469e-07
3.01964e-07
2.79374e-07
2.79402e-07
2.67421e-07
2.67449e-07
2.79396e-07
2.67417e-07
2.67443e-07
3.16484e-07
3.01981e-07
2.79375e-07
2.67426e-07
2.67421e-07
3.01981e-07
3.01154e-07
2.89041e-07
2.63704e-07
2.63704e-07
2.53227e-07
2.53227e-07
3.01146e-07
2.89029e-07
2.63682e-07
2.63711e-07
2.53204e-07
2.53234e-07
2.63705e-07
2.532e-07
2.53227e-07
3.01161e-07
2.89046e-07
2.63683e-07
2.5321e-07
2.53205e-07
2.89046e-07
2.88485e-07
2.7895e-07
2.49981e-07
2.49981e-07
2.40981e-07
2.4098e-07
2.88476e-07
2.78937e-07
2.49958e-07
2.49989e-07
2.40956e-07
2.40988e-07
2.49982e-07
2.40952e-07
2.4098e-07
2.88493e-07
2.78957e-07
2.49959e-07
2.40961e-07
2.40957e-07
2.78956e-07
2.78688e-07
2.71829e-07
2.38227e-07
2.38227e-07
2.30702e-07
2.30702e-07
2.78678e-07
2.71817e-07
2.38203e-07
2.38235e-07
2.30676e-07
2.3071e-07
2.38227e-07
2.3067e-07
2.30701e-07
2.78695e-07
2.71837e-07
2.38204e-07
2.30681e-07
2.30676e-07
2.71835e-07
2.71868e-07
2.67862e-07
2.28441e-07
2.28443e-07
2.22398e-07
2.224e-07
2.71858e-07
2.67849e-07
2.28417e-07
2.28451e-07
2.22372e-07
2.22408e-07
2.28442e-07
2.22364e-07
2.22397e-07
2.71876e-07
2.67873e-07
2.28417e-07
2.22375e-07
2.22371e-07
2.6787e-07
2.68153e-07
2.66981e-07
2.20633e-07
2.20637e-07
2.16077e-07
2.1608e-07
2.68143e-07
2.66966e-07
2.20608e-07
2.20645e-07
2.16049e-07
2.16089e-07
2.20634e-07
2.16038e-07
2.16075e-07
2.68165e-07
2.66992e-07
2.20608e-07
2.16051e-07
2.16048e-07
2.66991e-07
2.67636e-07
2.69158e-07
2.14811e-07
2.14816e-07
2.11745e-07
2.11753e-07
2.67621e-07
2.69141e-07
2.14784e-07
2.14825e-07
2.11719e-07
2.11763e-07
2.1481e-07
2.11702e-07
2.11743e-07
2.67645e-07
2.69172e-07
2.14783e-07
2.11717e-07
2.11715e-07
2.6917e-07
2.70489e-07
2.74667e-07
2.10983e-07
2.1099e-07
2.09415e-07
2.09424e-07
2.70471e-07
2.74645e-07
2.10956e-07
2.11001e-07
2.09388e-07
2.09436e-07
2.1098e-07
2.09364e-07
2.0941e-07
2.705e-07
2.74682e-07
2.10952e-07
2.09383e-07
2.09381e-07
2.74679e-07
2.7669e-07
2.83546e-07
2.09158e-07
2.09167e-07
2.09128e-07
2.09137e-07
2.76669e-07
2.83521e-07
2.09131e-07
2.0918e-07
2.091e-07
2.09153e-07
2.09153e-07
2.09071e-07
2.09121e-07
2.76704e-07
2.83563e-07
2.09124e-07
2.09093e-07
2.09092e-07
2.83559e-07
2.86271e-07
2.95811e-07
2.09355e-07
2.09364e-07
2.10851e-07
2.10857e-07
2.86243e-07
2.9578e-07
2.09327e-07
2.09381e-07
2.10821e-07
2.1088e-07
2.09347e-07
2.10784e-07
2.10841e-07
2.86283e-07
2.95829e-07
2.09318e-07
2.1081e-07
2.10811e-07
2.95825e-07
2.99217e-07
3.11493e-07
2.11616e-07
2.11625e-07
2.14673e-07
2.14683e-07
2.99184e-07
3.11461e-07
2.11588e-07
2.11648e-07
2.14642e-07
2.14708e-07
2.11607e-07
2.14598e-07
2.14661e-07
2.99232e-07
3.11517e-07
2.11577e-07
2.14627e-07
2.1463e-07
3.1151e-07
3.15589e-07
3.30559e-07
2.1596e-07
2.15974e-07
2.20593e-07
2.20614e-07
3.15556e-07
3.30521e-07
2.15931e-07
2.15998e-07
2.20564e-07
2.20639e-07
2.15949e-07
2.20515e-07
2.20586e-07
3.1561e-07
3.30584e-07
2.15918e-07
2.20548e-07
2.20554e-07
3.30579e-07
3.35343e-07
3.52915e-07
2.22403e-07
2.22427e-07
2.28629e-07
2.28662e-07
3.35303e-07
3.52871e-07
2.22376e-07
2.22453e-07
2.28601e-07
2.28688e-07
2.22397e-07
2.2855e-07
2.28626e-07
3.35365e-07
3.52946e-07
2.22364e-07
2.28585e-07
2.28592e-07
3.52941e-07
3.58374e-07
3.78399e-07
2.30968e-07
2.31004e-07
2.38774e-07
2.38817e-07
3.58332e-07
3.78356e-07
2.30941e-07
2.3103e-07
2.38747e-07
2.38844e-07
2.30965e-07
2.3869e-07
2.38774e-07
3.58402e-07
3.78435e-07
2.30931e-07
2.38727e-07
2.38737e-07
3.7843e-07
3.84505e-07
4.0678e-07
2.41638e-07
2.41683e-07
2.51014e-07
2.51066e-07
3.84462e-07
4.06737e-07
2.41612e-07
2.41712e-07
2.50986e-07
2.51094e-07
2.41638e-07
2.50925e-07
2.51018e-07
3.84534e-07
4.06824e-07
2.416e-07
2.50966e-07
2.50979e-07
4.06816e-07
4.13484e-07
4.37713e-07
2.54392e-07
2.54446e-07
2.65294e-07
2.65357e-07
4.13441e-07
4.37669e-07
2.54365e-07
2.54475e-07
2.65263e-07
2.65386e-07
2.54398e-07
2.65199e-07
2.65303e-07
4.1352e-07
4.37766e-07
2.5436e-07
2.65248e-07
2.65265e-07
4.37756e-07
4.44959e-07
4.70885e-07
2.69181e-07
2.69241e-07
2.81597e-07
2.81655e-07
4.44914e-07
4.70831e-07
2.6915e-07
2.69275e-07
2.81557e-07
2.81693e-07
2.6919e-07
2.81487e-07
2.81602e-07
4.45002e-07
4.7094e-07
2.69154e-07
2.81538e-07
2.81565e-07
4.70937e-07
4.78611e-07
5.05857e-07
2.85976e-07
2.86035e-07
2.99814e-07
2.99877e-07
4.7856e-07
5.05805e-07
2.85937e-07
2.86076e-07
2.99767e-07
2.9991e-07
2.85982e-07
2.99693e-07
2.99821e-07
4.78659e-07
5.05917e-07
2.85946e-07
2.99742e-07
2.99778e-07
5.05918e-07
5.13976e-07
5.42135e-07
3.04654e-07
3.04715e-07
3.19827e-07
3.19898e-07
5.13923e-07
5.42073e-07
3.04607e-07
3.0475e-07
3.19774e-07
3.1994e-07
3.04659e-07
3.197e-07
3.1984e-07
5.14025e-07
5.422e-07
3.04616e-07
3.19764e-07
3.19788e-07
5.42192e-07
5.50559e-07
5.79293e-07
3.25094e-07
3.25172e-07
3.41542e-07
3.41628e-07
5.50503e-07
5.79253e-07
3.25046e-07
3.25215e-07
3.4149e-07
3.41676e-07
3.25112e-07
3.41421e-07
3.41569e-07
5.50621e-07
5.79383e-07
3.25061e-07
3.41489e-07
3.41513e-07
5.79373e-07
5.87956e-07
6.16983e-07
3.47226e-07
3.47311e-07
3.64862e-07
3.64924e-07
5.8792e-07
6.16912e-07
3.47174e-07
3.47355e-07
3.64792e-07
3.64958e-07
3.47253e-07
3.64712e-07
3.6487e-07
5.88035e-07
6.1703e-07
3.47201e-07
3.64768e-07
3.64815e-07
6.17057e-07
6.25798e-07
6.54743e-07
3.70918e-07
3.70972e-07
3.89593e-07
3.89655e-07
6.25722e-07
6.54649e-07
3.70847e-07
3.71021e-07
3.89508e-07
3.89706e-07
3.70927e-07
3.89419e-07
3.89604e-07
6.25835e-07
6.54813e-07
3.70867e-07
3.89498e-07
3.89522e-07
6.54814e-07
6.63623e-07
6.92151e-07
3.95972e-07
3.96022e-07
4.15527e-07
4.15622e-07
6.63529e-07
6.92075e-07
3.95891e-07
3.96068e-07
4.15451e-07
4.15698e-07
3.95983e-07
4.15378e-07
4.1557e-07
6.63681e-07
6.92259e-07
3.959e-07
4.15491e-07
4.15495e-07
6.92244e-07
7.01028e-07
7.29073e-07
4.22177e-07
4.22293e-07
4.42651e-07
4.42716e-07
7.00972e-07
7.29011e-07
4.22106e-07
4.22356e-07
4.42558e-07
4.42733e-07
4.22228e-07
4.42465e-07
4.42693e-07
7.01149e-07
7.29123e-07
4.22152e-07
4.42542e-07
4.42615e-07
7.29182e-07
7.37943e-07
7.65202e-07
4.49599e-07
4.49647e-07
4.70653e-07
4.70697e-07
7.37869e-07
7.65101e-07
4.495e-07
4.49699e-07
4.70529e-07
4.70712e-07
4.49633e-07
4.70435e-07
4.70649e-07
7.37971e-07
7.65261e-07
4.49553e-07
4.70507e-07
4.70542e-07
7.65269e-07
7.73919e-07
8.00066e-07
4.77763e-07
4.77761e-07
4.99164e-07
4.99212e-07
7.73807e-07
7.99947e-07
4.77645e-07
4.77814e-07
4.99063e-07
4.99392e-07
4.77759e-07
4.9901e-07
4.9923e-07
7.73944e-07
8.00194e-07
4.77645e-07
4.99109e-07
4.99096e-07
8.0017e-07
8.08592e-07
8.33942e-07
5.06366e-07
5.06495e-07
5.2837e-07
5.2842e-07
8.08537e-07
8.33874e-07
5.06265e-07
5.06574e-07
5.28267e-07
5.28491e-07
5.06428e-07
5.28202e-07
5.28406e-07
8.0873e-07
8.33965e-07
5.06291e-07
5.28214e-07
5.28277e-07
8.34034e-07
8.42347e-07
8.66854e-07
5.35717e-07
5.35796e-07
5.57951e-07
5.5812e-07
8.42263e-07
8.66889e-07
5.3561e-07
5.35871e-07
5.57782e-07
5.58203e-07
5.35775e-07
5.57811e-07
5.58072e-07
8.42392e-07
8.67123e-07
5.35665e-07
5.58082e-07
5.58032e-07
8.67051e-07
8.75159e-07
8.99381e-07
5.6554e-07
5.65692e-07
5.88562e-07
5.88547e-07
8.7517e-07
8.99125e-07
5.65378e-07
5.65781e-07
5.88412e-07
5.88438e-07
5.65614e-07
5.88216e-07
5.885e-07
8.7539e-07
8.9931e-07
5.65586e-07
5.88334e-07
5.88394e-07
8.99409e-07
9.07499e-07
9.30238e-07
5.96285e-07
5.96121e-07
6.19087e-07
6.18655e-07
9.07192e-07
9.29749e-07
5.96145e-07
5.96004e-07
6.18982e-07
6.18966e-07
5.96209e-07
6.18467e-07
6.19044e-07
9.07329e-07
9.29902e-07
5.96095e-07
6.18636e-07
6.18842e-07
9.30196e-07
9.37788e-07
9.57753e-07
6.26318e-07
6.25979e-07
6.47231e-07
6.47686e-07
9.37351e-07
9.57841e-07
6.26236e-07
6.2632e-07
6.47138e-07
6.47704e-07
6.26271e-07
6.47572e-07
6.47564e-07
9.37529e-07
9.57968e-07
6.26072e-07
6.4746e-07
6.47409e-07
9.5803e-07
9.64965e-07
9.84895e-07
6.5449e-07
6.54814e-07
6.76811e-07
6.77015e-07
9.65082e-07
9.84523e-07
6.5436e-07
6.5496e-07
6.76503e-07
6.76735e-07
6.54793e-07
6.76617e-07
6.76853e-07
9.65208e-07
9.84955e-07
6.54619e-07
6.76674e-07
6.76691e-07
9.85275e-07
9.92026e-07
1.01066e-06
6.84163e-07
6.84251e-07
7.05793e-07
7.04312e-07
9.91461e-07
1.00884e-06
6.83844e-07
6.83941e-07
7.0577e-07
7.06117e-07
6.84369e-07
7.04101e-07
7.06505e-07
9.92016e-07
1.01069e-06
6.8427e-07
7.06152e-07
7.06547e-07
1.01134e-06
1.01694e-06
1.02913e-06
7.12365e-07
7.1092e-07
7.29325e-07
7.2984e-07
1.01509e-06
1.02913e-06
7.12562e-07
7.13162e-07
7.29929e-07
7.29453e-07
7.13073e-07
7.29626e-07
7.29586e-07
1.01703e-06
1.02833e-06
7.13177e-07
7.28732e-07
7.29145e-07
1.02872e-06
1.03399e-06
1.04381e-06
7.3453e-07
7.3582e-07
7.48857e-07
7.52221e-07
1.03445e-06
1.04461e-06
7.35065e-07
7.34174e-07
7.48556e-07
7.47538e-07
7.34179e-07
7.50924e-07
7.47408e-07
1.0326e-06
1.04135e-06
7.33359e-07
7.4672e-07
7.46084e-07
1.04309e-06
1.04893e-06
1.0725e-06
7.53328e-07
7.56153e-07
7.75222e-07
7.64919e-07
1.04895e-06
1.05882e-06
7.52554e-07
7.51259e-07
7.7379e-07
7.73422e-07
7.53229e-07
7.64825e-07
7.82553e-07
1.04671e-06
1.0715e-06
7.52045e-07
7.75233e-07
7.83211e-07
1.08119e-06
1.08478e-06
1.14972e-06
7.88742e-07
7.70664e-07
8.44973e-07
8.28217e-07
1.06637e-06
1.12845e-06
7.87849e-07
7.88573e-07
8.46194e-07
8.47825e-07
7.96666e-07
8.30252e-07
8.44357e-07
1.08447e-06
1.15198e-06
7.98439e-07
8.49001e-07
8.48686e-07
1.15023e-06
1.16641e-06
1.21111e-06
8.64176e-07
8.5416e-07
9.06125e-07
9.21342e-07
1.14949e-06
1.2298e-06
8.65766e-07
8.66509e-07
9.07507e-07
9.01953e-07
8.59013e-07
9.19389e-07
8.89056e-07
1.16802e-06
1.20279e-06
8.63413e-07
8.9942e-07
8.9043e-07
1.18991e-06
1.21576e-06
1.17325e-06
9.11092e-07
9.35115e-07
8.92452e-07
9.26325e-07
1.24268e-06
1.20627e-06
9.11775e-07
9.03638e-07
8.89689e-07
8.77999e-07
8.93494e-07
9.22668e-07
8.9042e-07
1.20438e-06
1.15845e-06
8.92941e-07
8.76197e-07
8.8366e-07
1.17188e-06
1.16959e-06
1.11821e-06
8.76786e-07
8.9919e-07
8.46369e-07
8.47088e-07
1.19953e-06
1.12226e-06
8.7455e-07
8.67894e-07
8.46875e-07
8.57601e-07
8.83756e-07
8.48261e-07
8.70823e-07
1.15676e-06
1.13673e-06
8.77703e-07
8.59698e-07
8.68809e-07
1.14725e-06
1.11911e-06
1.15223e-06
8.42941e-07
8.40579e-07
8.73059e-07
8.6595e-07
1.12175e-06
1.14803e-06
8.4449e-07
8.61294e-07
8.78532e-07
9.02103e-07
8.70059e-07
8.70268e-07
8.91635e-07
1.14446e-06
1.18265e-06
8.69515e-07
9.06501e-07
8.981e-07
1.17206e-06
1.16689e-06
1.21562e-06
8.93591e-07
8.87315e-07
9.41983e-07
9.30729e-07
1.16246e-06
1.20314e-06
8.97912e-07
9.12205e-07
9.41406e-07
9.30111e-07
9.00403e-07
9.30132e-07
9.16679e-07
1.19156e-06
1.20202e-06
9.0623e-07
9.29833e-07
9.18896e-07
1.18708e-06
1.22417e-06
1.21612e-06
9.52315e-07
9.38139e-07
9.56564e-07
9.35804e-07
1.20873e-06
1.1893e-06
9.50001e-07
9.32161e-07
9.50536e-07
9.35977e-07
9.19379e-07
9.30121e-07
9.2437e-07
1.20345e-06
1.20124e-06
9.19565e-07
9.3154e-07
9.21241e-07
1.18489e-06
1.21622e-06
1.20382e-06
9.49776e-07
9.30545e-07
9.42052e-07
9.29892e-07
1.18942e-06
1.18899e-06
9.45293e-07
9.459e-07
9.42611e-07
9.91158e-07
9.33809e-07
9.30925e-07
9.69978e-07
1.21187e-06
1.26337e-06
9.29882e-07
9.94771e-07
9.74788e-07
1.23254e-06
1.21062e-06
1.25417e-06
9.44944e-07
9.42362e-07
9.93688e-07
1.00326e-06
1.20206e-06
1.26186e-06
9.50308e-07
9.98888e-07
9.97124e-07
9.94715e-07
9.78221e-07
1.00524e-06
9.94407e-07
1.27283e-06
1.24928e-06
9.84152e-07
9.98528e-07
9.97791e-07
1.25686e-06
1.26471e-06
1.29037e-06
1.00789e-06
1.01688e-06
1.03446e-06
1.03813e-06
1.27419e-06
1.30013e-06
1.00827e-06
9.78269e-07
1.02743e-06
9.49293e-07
9.96903e-07
1.03479e-06
1.01208e-06
1.24489e-06
1.18905e-06
9.98278e-07
9.46474e-07
1.00238e-06
1.26916e-06
1.29499e-06
1.31011e-06
1.03809e-06
1.03899e-06
1.04753e-06
1.04086e-06
1.30288e-06
1.30937e-06
1.02937e-06
9.48121e-07
1.03961e-06
9.9654e-07
1.02726e-06
1.04233e-06
1.06476e-06
1.18965e-06
1.24262e-06
1.01543e-06
1.00004e-06
1.05817e-06
1.32726e-06
1.31817e-06
1.33355e-06
1.05458e-06
1.04677e-06
1.06833e-06
1.05926e-06
1.31479e-06
1.31925e-06
1.04911e-06
1.02667e-06
1.06875e-06
1.1002e-06
1.07163e-06
1.06097e-06
1.06987e-06
1.26458e-06
1.35687e-06
1.06649e-06
1.1021e-06
1.0697e-06
1.32518e-06
1.33504e-06
1.28931e-06
1.06877e-06
1.06016e-06
1.0451e-06
1.04907e-06
1.32015e-06
1.28744e-06
1.07058e-06
1.11704e-06
1.05143e-06
1.12823e-06
1.05597e-06
1.04577e-06
1.0286e-06
1.37374e-06
1.38377e-06
1.05918e-06
1.12419e-06
1.03425e-06
1.27218e-06
1.28704e-06
1.26051e-06
1.03648e-06
1.04436e-06
1.0267e-06
1.04101e-06
1.28703e-06
1.28178e-06
1.04241e-06
1.11232e-06
1.03078e-06
1.05653e-06
1.02603e-06
1.04029e-06
1.04578e-06
1.3809e-06
1.31691e-06
1.03194e-06
1.05657e-06
1.04935e-06
1.28529e-06
1.26679e-06
1.31668e-06
1.03093e-06
1.0484e-06
1.08138e-06
1.10209e-06
1.29254e-06
1.35244e-06
1.03307e-06
1.04489e-06
1.07497e-06
1.03442e-06
1.06221e-06
1.10485e-06
1.10066e-06
1.31474e-06
1.28801e-06
1.06319e-06
1.0367e-06
1.09546e-06
1.34311e-06
1.33053e-06
1.37727e-06
1.09645e-06
1.11629e-06
1.13127e-06
1.14029e-06
1.36626e-06
1.3958e-06
1.08897e-06
1.04167e-06
1.12432e-06
1.0897e-06
1.10964e-06
1.14062e-06
1.12341e-06
1.29314e-06
1.32498e-06
1.10316e-06
1.08912e-06
1.11655e-06
1.37236e-06
1.38538e-06
1.39324e-06
1.13796e-06
1.14016e-06
1.143e-06
1.11428e-06
1.39691e-06
1.35777e-06
1.13252e-06
1.10339e-06
1.14333e-06
1.13154e-06
1.12339e-06
1.112e-06
1.11721e-06
1.33459e-06
1.3635e-06
1.1179e-06
1.12855e-06
1.11876e-06
1.36415e-06
1.3944e-06
1.36985e-06
1.14088e-06
1.10682e-06
1.12367e-06
1.09609e-06
1.35667e-06
1.32937e-06
1.14338e-06
1.13624e-06
1.12868e-06
1.13546e-06
1.11565e-06
1.09472e-06
1.11355e-06
1.36968e-06
1.37212e-06
1.11873e-06
1.13322e-06
1.11875e-06
1.35326e-06
1.36962e-06
1.34638e-06
1.11851e-06
1.09614e-06
1.109e-06
1.11246e-06
1.33085e-06
1.34194e-06
1.12274e-06
1.13178e-06
1.11081e-06
1.12416e-06
1.11391e-06
1.11428e-06
1.11976e-06
1.3734e-06
1.36404e-06
1.11899e-06
1.12492e-06
1.12083e-06
1.35513e-06
1.34741e-06
1.35154e-06
1.10874e-06
1.11921e-06
1.12082e-06
1.13708e-06
1.34842e-06
1.36963e-06
1.10958e-06
1.12314e-06
1.11848e-06
1.12625e-06
1.12236e-06
1.13846e-06
1.13287e-06
1.36533e-06
1.36499e-06
1.12227e-06
1.12765e-06
1.13091e-06
1.36656e-06
1.35674e-06
1.37348e-06
1.12678e-06
1.142e-06
1.14387e-06
1.15182e-06
1.37607e-06
1.38887e-06
1.12459e-06
1.13014e-06
1.14233e-06
1.14099e-06
1.13697e-06
1.15203e-06
1.1477e-06
1.36836e-06
1.3756e-06
1.13486e-06
1.14147e-06
1.14633e-06
1.38132e-06
1.37964e-06
1.39423e-06
1.14911e-06
1.15358e-06
1.1612e-06
1.15747e-06
1.39231e-06
1.3944e-06
1.14779e-06
1.1444e-06
1.161e-06
1.15463e-06
1.15022e-06
1.15684e-06
1.15504e-06
1.37951e-06
1.38733e-06
1.14926e-06
1.15418e-06
1.155e-06
1.38964e-06
1.39844e-06
1.40338e-06
1.16374e-06
1.15893e-06
1.16795e-06
1.16418e-06
1.39677e-06
1.39826e-06
1.16377e-06
1.15784e-06
1.16826e-06
1.1666e-06
1.15636e-06
1.16314e-06
1.16151e-06
1.39105e-06
1.39838e-06
1.15648e-06
1.16552e-06
1.16182e-06
1.39522e-06
1.40562e-06
1.40313e-06
1.16851e-06
1.16584e-06
1.16903e-06
1.16975e-06
1.40071e-06
1.40249e-06
1.16884e-06
1.16893e-06
1.16932e-06
1.17308e-06
1.16374e-06
1.16975e-06
1.17093e-06
1.40196e-06
1.40617e-06
1.16407e-06
1.17314e-06
1.17121e-06
1.40342e-06
1.40469e-06
1.40306e-06
1.16911e-06
1.17089e-06
1.17121e-06
1.1742e-06
1.40495e-06
1.40631e-06
1.16936e-06
1.17366e-06
1.17111e-06
1.17445e-06
1.1731e-06
1.17504e-06
1.17767e-06
1.40853e-06
1.40756e-06
1.17333e-06
1.17533e-06
1.1776e-06
1.40969e-06
1.40542e-06
1.40833e-06
1.17276e-06
1.17528e-06
1.17809e-06
1.17812e-06
1.40859e-06
1.40937e-06
1.17256e-06
1.17482e-06
1.17776e-06
1.1773e-06
1.17852e-06
1.17831e-06
1.1796e-06
1.40928e-06
1.4093e-06
1.17832e-06
1.17752e-06
1.17923e-06
1.41132e-06
1.41137e-06
1.41567e-06
1.17996e-06
1.17902e-06
1.1849e-06
1.18235e-06
1.41154e-06
1.41263e-06
1.17969e-06
1.17865e-06
1.1849e-06
1.18351e-06
1.17978e-06
1.18163e-06
1.1812e-06
1.41159e-06
1.41383e-06
1.17948e-06
1.18283e-06
1.18124e-06
1.41266e-06
1.41835e-06
1.41923e-06
1.18602e-06
1.18373e-06
1.18771e-06
1.1879e-06
1.41515e-06
1.41794e-06
1.1861e-06
1.18503e-06
1.18785e-06
1.18788e-06
1.18219e-06
1.18739e-06
1.18644e-06
1.41649e-06
1.41833e-06
1.18232e-06
1.18742e-06
1.18647e-06
1.4169e-06
1.42111e-06
1.41999e-06
1.18802e-06
1.18907e-06
1.18935e-06
1.1912e-06
1.42061e-06
1.42206e-06
1.18805e-06
1.18835e-06
1.18892e-06
1.18976e-06
1.18801e-06
1.19145e-06
1.19182e-06
1.42048e-06
1.42048e-06
1.18792e-06
1.19007e-06
1.19146e-06
1.42195e-06
1.42216e-06
1.42324e-06
1.19007e-06
1.19148e-06
1.19292e-06
1.19189e-06
1.42404e-06
1.42245e-06
1.1897e-06
1.19038e-06
1.19283e-06
1.19252e-06
1.19253e-06
1.19215e-06
1.19319e-06
1.42257e-06
1.42305e-06
1.1922e-06
1.19271e-06
1.19309e-06
1.42375e-06
1.42566e-06
1.42672e-06
1.19393e-06
1.19221e-06
1.19591e-06
1.19443e-06
1.42429e-06
1.42449e-06
1.19391e-06
1.19333e-06
1.19602e-06
1.19557e-06
1.19316e-06
1.19383e-06
1.19321e-06
1.42524e-06
1.42575e-06
1.19312e-06
1.19504e-06
1.19331e-06
1.42393e-06
1.42873e-06
1.42655e-06
1.19615e-06
1.19529e-06
1.19597e-06
1.197e-06
1.42668e-06
1.4274e-06
1.19624e-06
1.19605e-06
1.19589e-06
1.19652e-06
1.19373e-06
1.19686e-06
1.19685e-06
1.42778e-06
1.42722e-06
1.19388e-06
1.19638e-06
1.19674e-06
1.42713e-06
1.42815e-06
1.4261e-06
1.19578e-06
1.19718e-06
1.19577e-06
1.19683e-06
1.42946e-06
1.42754e-06
1.19565e-06
1.19644e-06
1.19555e-06
1.19576e-06
1.19761e-06
1.19727e-06
1.1985e-06
1.42896e-06
1.4263e-06
1.19746e-06
1.19614e-06
1.19826e-06
1.42939e-06
1.42815e-06
1.42806e-06
1.19623e-06
1.19663e-06
1.1975e-06
1.19661e-06
1.42914e-06
1.42739e-06
1.196e-06
1.19569e-06
1.19732e-06
1.19623e-06
1.19833e-06
1.1965e-06
1.19652e-06
1.42796e-06
1.42692e-06
1.19809e-06
1.19605e-06
1.19634e-06
1.42732e-06
1.43009e-06
1.42949e-06
1.19776e-06
1.19704e-06
1.19813e-06
1.19835e-06
1.42938e-06
1.42926e-06
1.19756e-06
1.19687e-06
1.198e-06
1.19946e-06
1.19617e-06
1.19789e-06
1.19673e-06
1.42897e-06
1.43037e-06
1.19601e-06
1.19908e-06
1.19665e-06
1.42817e-06
1.43125e-06
1.43e-06
1.19814e-06
1.1986e-06
1.19805e-06
1.19865e-06
1.43131e-06
1.43038e-06
1.19814e-06
1.20022e-06
1.19829e-06
1.20106e-06
1.19775e-06
1.19866e-06
1.19941e-06
1.43285e-06
1.43364e-06
1.19779e-06
1.2011e-06
1.19969e-06
1.4313e-06
1.43169e-06
1.42833e-06
1.19797e-06
1.19826e-06
1.19685e-06
1.19639e-06
1.43189e-06
1.42797e-06
1.19826e-06
1.20074e-06
1.1969e-06
1.1958e-06
1.19948e-06
1.19647e-06
1.19715e-06
1.43519e-06
1.4278e-06
1.19977e-06
1.1959e-06
1.19712e-06
1.42864e-06
1.42983e-06
1.42685e-06
1.19631e-06
1.19586e-06
1.19514e-06
1.19505e-06
1.42945e-06
1.42673e-06
1.19614e-06
1.19429e-06
1.19451e-06
1.19168e-06
1.19597e-06
1.19462e-06
1.19375e-06
1.42899e-06
1.42279e-06
1.19573e-06
1.19134e-06
1.19316e-06
1.42523e-06
1.4288e-06
1.4287e-06
1.19506e-06
1.19508e-06
1.19545e-06
1.19563e-06
1.42874e-06
1.42871e-06
1.19436e-06
1.19161e-06
1.19507e-06
1.19471e-06
1.19365e-06
1.19545e-06
1.19575e-06
1.42453e-06
1.42662e-06
1.19304e-06
1.19464e-06
1.19547e-06
1.42857e-06
1.43074e-06
1.42839e-06
1.19553e-06
1.19568e-06
1.1949e-06
1.1949e-06
1.43076e-06
1.42839e-06
1.19533e-06
1.19582e-06
1.19526e-06
1.19743e-06
1.19645e-06
1.19533e-06
1.19686e-06
1.4294e-06
1.43159e-06
1.19634e-06
1.19775e-06
1.19705e-06
1.43075e-06
1.42986e-06
1.42457e-06
1.19412e-06
1.19402e-06
1.19099e-06
1.19046e-06
1.42984e-06
1.4235e-06
1.19463e-06
1.19736e-06
1.19126e-06
1.19253e-06
1.19605e-06
1.19009e-06
1.18887e-06
1.43344e-06
1.42626e-06
1.19642e-06
1.19216e-06
1.18908e-06
1.42233e-06
1.42596e-06
1.42105e-06
1.18997e-06
1.18939e-06
1.18719e-06
1.18693e-06
1.42481e-06
1.42009e-06
1.19019e-06
1.19062e-06
1.18712e-06
1.18553e-06
1.18703e-06
1.18636e-06
1.18499e-06
1.42739e-06
1.41907e-06
1.18717e-06
1.18495e-06
1.185e-06
1.41817e-06
1.42255e-06
1.42104e-06
1.18674e-06
1.18663e-06
1.18666e-06
1.18652e-06
1.42194e-06
1.42182e-06
1.18652e-06
1.18445e-06
1.18582e-06
1.18315e-06
1.18582e-06
1.1869e-06
1.19037e-06
1.42043e-06
1.41817e-06
1.18571e-06
1.18324e-06
1.18963e-06
1.42486e-06
1.42299e-06
1.41987e-06
1.18673e-06
1.18661e-06
1.18486e-06
1.18595e-06
1.42386e-06
1.421e-06
1.1858e-06
1.18345e-06
1.18432e-06
1.18552e-06
1.1906e-06
1.18658e-06
1.18501e-06
1.4202e-06
1.42e-06
1.18977e-06
1.18565e-06
1.18437e-06
1.42023e-06
1.42122e-06
1.41602e-06
1.18308e-06
1.18469e-06
1.1799e-06
1.17976e-06
1.42238e-06
1.41442e-06
1.18318e-06
1.18596e-06
1.18096e-06
1.18603e-06
1.18139e-06
1.17853e-06
1.17261e-06
1.42189e-06
1.42133e-06
1.18137e-06
1.18514e-06
1.17359e-06
1.40811e-06
1.41774e-06
1.41671e-06
1.17988e-06
1.17894e-06
1.18007e-06
1.17861e-06
1.4157e-06
1.41419e-06
1.18087e-06
1.18565e-06
1.17993e-06
1.17861e-06
1.17138e-06
1.17587e-06
1.17474e-06
1.42314e-06
1.4162e-06
1.17233e-06
1.17661e-06
1.17354e-06
1.40967e-06
1.41795e-06
1.40464e-06
1.17959e-06
1.17907e-06
1.16837e-06
1.1756e-06
1.41701e-06
1.41393e-06
1.17827e-06
1.17645e-06
1.16811e-06
1.17311e-06
1.18199e-06
1.17919e-06
1.19413e-06
1.41742e-06
1.41236e-06
1.17924e-06
1.1769e-06
1.19262e-06
1.43243e-06
1.40568e-06
1.40263e-06
1.166e-06
1.17196e-06
1.16548e-06
1.16606e-06
1.41481e-06
1.40062e-06
1.16707e-06
1.17333e-06
1.1687e-06
1.17301e-06
1.1948e-06
1.1663e-06
1.1713e-06
1.41465e-06
1.41018e-06
1.19417e-06
1.17779e-06
1.1776e-06
1.41107e-06
1.40553e-06
1.40194e-06
1.16873e-06
1.16629e-06
1.1706e-06
1.16708e-06
1.40177e-06
1.39723e-06
1.17017e-06
1.17034e-06
1.16521e-06
1.14489e-06
1.15831e-06
1.15801e-06
1.13362e-06
1.40988e-06
1.37219e-06
1.16104e-06
1.13778e-06
1.12861e-06
1.36163e-06
1.40279e-06
1.37562e-06
1.16848e-06
1.16619e-06
1.1368e-06
1.13422e-06
1.39867e-06
1.37394e-06
1.16108e-06
1.14106e-06
1.13404e-06
1.12839e-06
1.13256e-06
1.13359e-06
1.1382e-06
1.37251e-06
1.37014e-06
1.1265e-06
1.12833e-06
1.13408e-06
1.37371e-06
1.35588e-06
1.10245e-06
1.09872e-06
1.35288e-06
1.10245e-06
1.10766e-06
6.57038e-07
6.60947e-07
6.66368e-07
1.11696e-06
1.35978e-06
1.11628e-06
5.35663e-07
5.35601e-07
5.35655e-07
5.35655e-07
5.34573e-07
5.35516e-07
5.33634e-07
5.35654e-07
5.34573e-07
5.35517e-07
5.35654e-07
5.33634e-07
5.35256e-07
5.35986e-07
5.35987e-07
1.10713e-06
3.88082e-06
9.33891e-07
4.60617e-06
1.26081e-05
1.66011e-05
1.10725e-06
3.88106e-06
9.33925e-07
4.60653e-06
4.95567e-07
4.95567e-07
4.95567e-07
4.57231e-07
4.57231e-07
4.57232e-07
4.57232e-07
5.43144e-07
1.22026e-06
4.95565e-07
4.85522e-07
5.25341e-07
1.20946e-06
4.82301e-07
1.26097e-05
1.66037e-05
5.43162e-07
4.95565e-07
1.22025e-06
4.85523e-07
5.2532e-07
4.82302e-07
1.20945e-06
2.52172e-06
2.52242e-06
4.8419e-07
2.37248e-06
2.37288e-06
1.4308e-06
5.59329e-06
1.32967e-06
6.13637e-06
2.12844e-05
2.31105e-05
1.4312e-06
5.59395e-06
1.32973e-06
6.13703e-06
4.45572e-07
4.45573e-07
4.45573e-07
4.13542e-07
4.13542e-07