/*--------------------------------*- C++ -*----------------------------------*\
| =========                 |                                                 |
| \\      /  F ield         | OpenFOAM: The Open Source CFD Toolbox           |
|  \\    /   O peration     | Version:  v2012                                 |
|   \\  /    A nd           | Website:  www.openfoam.com                      |
|    \\/     M anipulation  |                                                 |
\*---------------------------------------------------------------------------*/
FoamFile
{
    version     2.0;
    format      ascii;
    class       volScalarField;
    location    "625";
    object      k;
}
// * * * * * * * * * * * * * * * * * * * * * * * * * * * * * * * * * * * * * //

dimensions      [0 2 -2 0 0 0 0];


internalField   nonuniform List<scalar> 
171728
(
3.58932e-05
3.58912e-05
3.58912e-05
3.59957e-05
3.39296e-05
3.3889e-05
3.3889e-05
3.39622e-05
3.21578e-05
3.20081e-05
3.20081e-05
3.19522e-05
3.05346e-05
3.02293e-05
3.02292e-05
2.99884e-05
2.90329e-05
2.8554e-05
2.85539e-05
2.81226e-05
2.76353e-05
2.69872e-05
2.69871e-05
2.63907e-05
2.63308e-05
2.5531e-05
2.55309e-05
2.48073e-05
2.51112e-05
2.4185e-05
2.41848e-05
2.33782e-05
2.39709e-05
2.29506e-05
2.29504e-05
2.21047e-05
2.29058e-05
2.18269e-05
2.18267e-05
2.0986e-05
2.1912e-05
2.08114e-05
2.08112e-05
2.00133e-05
2.09865e-05
1.99013e-05
1.99011e-05
1.91814e-05
2.01241e-05
1.90947e-05
1.90946e-05
1.84895e-05
1.93239e-05
1.83884e-05
1.83884e-05
1.79329e-05
1.85847e-05
1.77793e-05
1.77792e-05
1.75062e-05
1.79042e-05
1.72656e-05
1.72656e-05
1.72e-05
1.72799e-05
1.68466e-05
1.68466e-05
1.70227e-05
1.67097e-05
1.65212e-05
1.65214e-05
1.69822e-05
1.61923e-05
1.62894e-05
1.62897e-05
1.70788e-05
1.57254e-05
1.61517e-05
1.6152e-05
1.7304e-05
1.53073e-05
1.61072e-05
1.61076e-05
1.76567e-05
1.49374e-05
1.61533e-05
1.61539e-05
1.81339e-05
1.46145e-05
1.62918e-05
1.62925e-05
1.87289e-05
1.43381e-05
1.65199e-05
1.65207e-05
1.94285e-05
1.4108e-05
1.68355e-05
1.68366e-05
2.02212e-05
1.39229e-05
1.72339e-05
1.72353e-05
2.1093e-05
1.37843e-05
1.77144e-05
1.77163e-05
2.2034e-05
1.36905e-05
1.82728e-05
1.82732e-05
2.30317e-05
1.36419e-05
1.89006e-05
1.89025e-05
2.40633e-05
1.36387e-05
1.95974e-05
1.96e-05
2.51252e-05
1.36823e-05
2.0356e-05
2.03549e-05
2.6204e-05
1.37713e-05
2.11727e-05
2.1176e-05
2.72863e-05
1.39069e-05
2.20321e-05
2.204e-05
2.83618e-05
1.40877e-05
2.29435e-05
2.29399e-05
2.94327e-05
1.43171e-05
2.38935e-05
2.38936e-05
3.05017e-05
1.45876e-05
2.48429e-05
2.48543e-05
3.15123e-05
1.49032e-05
2.58509e-05
2.58333e-05
3.25127e-05
1.52465e-05
2.68252e-05
2.68521e-05
3.35068e-05
1.5693e-05
2.79053e-05
2.79e-05
3.45017e-05
1.62072e-05
2.89685e-05
2.90029e-05
3.55335e-05
1.6606e-05
2.99458e-05
2.99144e-05
3.62903e-05
1.71639e-05
3.10099e-05
3.096e-05
3.72227e-05
1.77834e-05
3.19476e-05
3.21146e-05
3.83016e-05
1.83506e-05
3.29039e-05
3.29895e-05
3.88016e-05
1.85762e-05
3.36256e-05
3.30119e-05
3.84242e-05
1.84426e-05
3.30137e-05
3.28724e-05
3.90991e-05
2.10151e-05
3.477e-05
3.75999e-05
4.32738e-05
2.47742e-05
4.22175e-05
4.11573e-05
4.58534e-05
2.52454e-05
4.2936e-05
3.88626e-05
4.38147e-05
2.10605e-05
3.58359e-05
3.61373e-05
4.13198e-05
1.97718e-05
3.58863e-05
3.93634e-05
4.42492e-05
2.42269e-05
4.10278e-05
4.07619e-05
4.49207e-05
2.60354e-05
4.0191e-05
3.92459e-05
4.22467e-05
2.49818e-05
3.88972e-05
4.361e-05
4.68646e-05
2.53651e-05
4.35794e-05
4.50098e-05
4.71901e-05
2.86756e-05
4.46523e-05
3.95152e-05
4.51661e-05
2.9633e-05
4.5051e-05
3.95984e-05
5.06894e-05
3.13176e-05
4.65667e-05
4.81924e-05
5.23749e-05
3.09996e-05
4.46338e-05
5.0235e-05
4.60559e-05
2.81741e-05
4.29999e-05
4.63492e-05
4.58082e-05
2.84127e-05
4.70582e-05
4.38122e-05
5.08674e-05
3.35352e-05
5.02853e-05
4.54045e-05
5.23376e-05
3.56418e-05
4.8735e-05
4.85209e-05
5.10952e-05
3.54358e-05
4.64325e-05
4.89326e-05
5.0364e-05
3.34816e-05
4.65048e-05
4.83783e-05
5.04668e-05
3.29301e-05
4.8833e-05
4.82216e-05
5.10808e-05
3.42875e-05
4.98366e-05
4.8991e-05
5.20171e-05
3.62744e-05
5.00079e-05
4.95177e-05
5.22367e-05
3.72277e-05
5.00598e-05
5.02206e-05
5.23845e-05
3.75402e-05
5.04954e-05
5.07558e-05
5.28616e-05
3.75329e-05
5.08057e-05
5.08978e-05
5.32332e-05
3.78901e-05
5.10193e-05
5.09144e-05
5.33349e-05
3.86432e-05
5.11352e-05
5.12556e-05
5.3319e-05
3.91531e-05
5.15685e-05
5.15982e-05
5.35856e-05
3.93545e-05
5.18971e-05
5.17559e-05
5.39267e-05
3.97092e-05
5.1968e-05
5.19764e-05
5.40537e-05
4.01645e-05
5.20428e-05
5.21578e-05
5.40071e-05
4.04411e-05
5.23754e-05
5.23661e-05
5.42924e-05
4.05465e-05
5.24822e-05
5.24131e-05
5.44828e-05
4.08706e-05
5.24629e-05
5.24005e-05
5.43948e-05
4.11443e-05
5.26454e-05
5.26575e-05
5.43853e-05
4.13972e-05
5.28603e-05
5.30525e-05
5.47999e-05
4.15873e-05
5.28061e-05
5.28984e-05
5.47192e-05
4.15974e-05
5.26959e-05
5.24914e-05
5.44139e-05
4.17999e-05
5.29486e-05
5.27208e-05
5.47396e-05
4.20827e-05
5.31085e-05
5.32526e-05
5.51316e-05
4.21469e-05
5.28976e-05
5.31671e-05
5.47142e-05
4.20018e-05
5.26655e-05
5.26871e-05
5.41203e-05
4.20776e-05
5.29238e-05
5.26344e-05
5.50311e-05
4.23101e-05
5.30608e-05
5.28815e-05
5.5208e-05
4.2278e-05
5.26492e-05
5.30309e-05
5.41819e-05
4.24295e-05
5.25458e-05
5.27727e-05
5.33574e-05
4.21459e-05
5.31635e-05
5.27174e-05
5.59203e-05
4.19602e-05
5.24894e-05
5.35203e-05
5.69409e-05
4.19558e-05
5.09959e-05
5.00317e-05
5.10596e-05
3.63068e-05
3.6291e-05
3.6291e-05
3.63068e-05
3.6291e-05
3.6291e-05
3.6423e-05
3.6423e-05
3.6423e-05
3.6423e-05
3.6291e-05
3.6291e-05
3.63068e-05
3.6291e-05
3.6291e-05
3.63068e-05
3.59957e-05
3.42687e-05
3.58912e-05
3.58912e-05
3.43767e-05
3.43766e-05
3.59957e-05
3.42687e-05
3.58911e-05
3.58912e-05
3.43767e-05
3.43766e-05
3.58912e-05
3.43767e-05
3.43767e-05
3.59957e-05
3.42687e-05
3.58912e-05
3.43767e-05
3.43767e-05
3.42687e-05
3.39623e-05
3.22635e-05
3.38889e-05
3.38889e-05
3.24684e-05
3.24683e-05
3.39623e-05
3.22635e-05
3.38889e-05
3.38889e-05
3.24684e-05
3.24683e-05
3.38889e-05
3.24685e-05
3.24684e-05
3.39623e-05
3.22634e-05
3.38889e-05
3.24685e-05
3.24684e-05
3.22634e-05
3.19522e-05
3.02993e-05
3.20079e-05
3.20078e-05
3.06643e-05
3.06642e-05
3.19522e-05
3.02994e-05
3.2008e-05
3.20078e-05
3.06644e-05
3.06641e-05
3.20079e-05
3.06646e-05
3.06643e-05
3.19522e-05
3.02992e-05
3.2008e-05
3.06645e-05
3.06644e-05
3.02992e-05
2.99885e-05
2.84253e-05
3.0229e-05
3.02288e-05
2.89624e-05
2.89622e-05
2.99886e-05
2.84255e-05
3.02291e-05
3.02287e-05
2.89626e-05
2.89621e-05
3.02289e-05
2.89628e-05
2.89623e-05
2.99884e-05
2.84252e-05
3.02291e-05
2.89627e-05
2.89626e-05
2.84252e-05
2.81227e-05
2.6674e-05
2.85536e-05
2.85534e-05
2.7368e-05
2.73678e-05
2.81228e-05
2.66741e-05
2.85538e-05
2.85533e-05
2.73683e-05
2.73676e-05
2.85535e-05
2.73685e-05
2.73679e-05
2.81226e-05
2.66739e-05
2.85538e-05
2.73684e-05
2.73683e-05
2.66738e-05
2.63908e-05
2.50663e-05
2.69866e-05
2.69864e-05
2.58841e-05
2.58838e-05
2.6391e-05
2.50665e-05
2.6987e-05
2.69862e-05
2.58845e-05
2.58836e-05
2.69865e-05
2.58848e-05
2.5884e-05
2.63907e-05
2.50661e-05
2.69869e-05
2.58846e-05
2.58844e-05
2.50661e-05
2.48075e-05
2.36125e-05
2.55304e-05
2.55301e-05
2.45102e-05
2.45099e-05
2.48077e-05
2.36127e-05
2.55308e-05
2.55299e-05
2.45107e-05
2.45097e-05
2.55302e-05
2.4511e-05
2.45102e-05
2.48073e-05
2.36123e-05
2.55307e-05
2.45108e-05
2.45107e-05
2.36123e-05
2.33784e-05
2.23125e-05
2.41842e-05
2.41838e-05
2.32478e-05
2.32475e-05
2.33785e-05
2.23126e-05
2.41847e-05
2.41836e-05
2.32484e-05
2.32473e-05
2.41841e-05
2.32487e-05
2.32478e-05
2.33782e-05
2.23122e-05
2.41846e-05
2.32485e-05
2.32484e-05
2.23122e-05
2.21049e-05
2.11681e-05
2.29497e-05
2.29494e-05
2.20965e-05
2.20962e-05
2.21051e-05
2.11683e-05
2.29503e-05
2.29491e-05
2.20972e-05
2.2096e-05
2.29496e-05
2.20975e-05
2.20965e-05
2.21047e-05
2.11678e-05
2.29503e-05
2.20973e-05
2.20972e-05
2.11678e-05
2.09863e-05
2.01707e-05
2.18259e-05
2.18255e-05
2.10542e-05
2.10538e-05
2.09865e-05
2.01709e-05
2.18266e-05
2.18253e-05
2.10549e-05
2.10536e-05
2.18258e-05
2.10552e-05
2.10541e-05
2.09861e-05
2.01705e-05
2.18265e-05
2.1055e-05
2.10549e-05
2.01704e-05
2.00137e-05
1.93146e-05
2.08103e-05
2.081e-05
2.0118e-05
2.01176e-05
2.00138e-05
1.93148e-05
2.08111e-05
2.08097e-05
2.01188e-05
2.01174e-05
2.08102e-05
2.01191e-05
2.01179e-05
2.00134e-05
1.93144e-05
2.08111e-05
2.01189e-05
2.01188e-05
1.93143e-05
1.91817e-05
1.85904e-05
1.99002e-05
1.98999e-05
1.92855e-05
1.92852e-05
1.91818e-05
1.85906e-05
1.9901e-05
1.98997e-05
1.92863e-05
1.9285e-05
1.99001e-05
1.92866e-05
1.92855e-05
1.91814e-05
1.85902e-05
1.9901e-05
1.92865e-05
1.92864e-05
1.859e-05
1.84898e-05
1.79977e-05
1.90936e-05
1.90933e-05
1.85545e-05
1.85542e-05
1.84899e-05
1.79979e-05
1.90945e-05
1.90931e-05
1.85553e-05
1.8554e-05
1.90936e-05
1.85555e-05
1.85544e-05
1.84895e-05
1.79976e-05
1.90945e-05
1.85554e-05
1.85553e-05
1.79974e-05
1.79332e-05
1.75392e-05
1.83874e-05
1.83871e-05
1.79214e-05
1.79211e-05
1.79333e-05
1.75393e-05
1.83883e-05
1.8387e-05
1.79221e-05
1.79209e-05
1.83874e-05
1.79223e-05
1.79213e-05
1.79331e-05
1.75391e-05
1.83883e-05
1.79222e-05
1.79222e-05
1.75389e-05
1.75064e-05
1.72176e-05
1.77783e-05
1.77781e-05
1.73838e-05
1.73836e-05
1.75065e-05
1.72176e-05
1.77791e-05
1.77779e-05
1.73845e-05
1.73834e-05
1.77783e-05
1.73846e-05
1.73837e-05
1.75063e-05
1.72175e-05
1.77792e-05
1.73846e-05
1.73846e-05
1.72173e-05
1.72003e-05
1.70263e-05
1.72648e-05
1.72646e-05
1.69411e-05
1.6941e-05
1.72003e-05
1.7026e-05
1.72656e-05
1.72645e-05
1.69418e-05
1.69409e-05
1.72647e-05
1.69418e-05
1.69411e-05
1.72002e-05
1.70262e-05
1.72656e-05
1.69419e-05
1.69418e-05
1.7026e-05
1.7023e-05
1.69729e-05
1.68459e-05
1.68457e-05
1.65922e-05
1.6592e-05
1.70228e-05
1.69726e-05
1.68466e-05
1.68457e-05
1.65928e-05
1.65921e-05
1.68458e-05
1.65927e-05
1.65922e-05
1.70228e-05
1.69729e-05
1.68466e-05
1.65928e-05
1.65929e-05
1.69728e-05
1.69823e-05
1.70435e-05
1.65207e-05
1.65206e-05
1.63369e-05
1.63368e-05
1.6982e-05
1.70433e-05
1.65214e-05
1.65206e-05
1.63375e-05
1.6337e-05
1.65207e-05
1.63373e-05
1.63368e-05
1.69823e-05
1.70438e-05
1.65214e-05
1.63375e-05
1.63375e-05
1.70434e-05
1.70788e-05
1.72436e-05
1.62891e-05
1.6289e-05
1.61754e-05
1.61753e-05
1.70787e-05
1.7243e-05
1.62897e-05
1.62892e-05
1.61759e-05
1.61754e-05
1.62891e-05
1.61754e-05
1.61753e-05
1.70791e-05
1.72435e-05
1.62897e-05
1.61757e-05
1.61759e-05
1.72437e-05
1.7304e-05
1.75717e-05
1.61516e-05
1.61515e-05
1.6107e-05
1.61072e-05
1.73033e-05
1.75715e-05
1.61521e-05
1.61517e-05
1.61075e-05
1.61074e-05
1.61515e-05
1.61071e-05
1.61071e-05
1.73038e-05
1.75723e-05
1.61521e-05
1.61075e-05
1.61077e-05
1.75721e-05
1.76563e-05
1.80251e-05
1.61071e-05
1.61074e-05
1.61327e-05
1.61331e-05
1.76561e-05
1.80247e-05
1.61076e-05
1.61076e-05
1.61332e-05
1.61333e-05
1.61072e-05
1.61328e-05
1.61329e-05
1.76568e-05
1.80255e-05
1.61078e-05
1.61331e-05
1.61334e-05
1.80254e-05
1.81336e-05
1.85972e-05
1.61534e-05
1.61538e-05
1.62489e-05
1.62493e-05
1.81331e-05
1.85963e-05
1.6154e-05
1.61541e-05
1.62494e-05
1.62496e-05
1.61535e-05
1.62486e-05
1.62491e-05
1.81337e-05
1.85977e-05
1.6154e-05
1.62492e-05
1.62496e-05
1.85977e-05
1.87284e-05
1.9276e-05
1.62921e-05
1.62925e-05
1.64552e-05
1.64561e-05
1.87274e-05
1.92758e-05
1.62926e-05
1.62929e-05
1.64555e-05
1.64563e-05
1.62923e-05
1.6455e-05
1.64556e-05
1.87287e-05
1.92772e-05
1.62927e-05
1.64557e-05
1.6456e-05
1.92767e-05
1.94277e-05
2.00499e-05
1.65203e-05
1.6521e-05
1.67493e-05
1.67499e-05
1.94275e-05
2.0049e-05
1.65207e-05
1.65213e-05
1.67495e-05
1.67508e-05
1.65208e-05
1.67486e-05
1.67495e-05
1.94286e-05
2.0051e-05
1.65212e-05
1.67495e-05
1.67498e-05
2.00504e-05
2.02207e-05
2.09056e-05
1.68363e-05
1.68366e-05
1.71278e-05
1.71288e-05
2.02199e-05
2.0905e-05
1.68366e-05
1.68377e-05
1.7128e-05
1.71292e-05
1.68366e-05
1.7127e-05
1.71285e-05
2.02218e-05
2.09069e-05
1.6837e-05
1.71281e-05
1.71287e-05
2.09069e-05
2.10919e-05
2.18308e-05
1.72345e-05
1.72357e-05
1.75881e-05
1.7588e-05
2.10915e-05
2.18294e-05
1.72349e-05
1.72362e-05
1.75878e-05
1.75893e-05
1.72354e-05
1.75861e-05
1.75883e-05
2.10931e-05
2.18319e-05
1.72356e-05
1.75879e-05
1.75884e-05
2.1832e-05
2.20329e-05
2.2817e-05
1.77162e-05
1.77161e-05
1.81283e-05
1.81286e-05
2.20313e-05
2.28166e-05
1.7716e-05
1.77177e-05
1.81277e-05
1.81298e-05
1.77165e-05
1.81265e-05
1.81287e-05
2.20339e-05
2.28186e-05
1.77169e-05
1.81275e-05
1.81286e-05
2.28193e-05
2.30297e-05
2.38421e-05
1.82742e-05
1.82751e-05
1.87401e-05
1.87396e-05
2.30294e-05
2.38391e-05
1.82737e-05
1.82755e-05
1.87387e-05
1.87407e-05
1.8275e-05
1.8737e-05
1.87396e-05
2.30311e-05
2.38417e-05
1.82748e-05
1.8739e-05
1.87389e-05
2.38423e-05
2.40634e-05
2.48938e-05
1.89032e-05
1.89033e-05
1.94181e-05
1.94194e-05
2.40602e-05
2.48947e-05
1.89019e-05
1.89041e-05
1.94177e-05
1.94223e-05
1.89028e-05
1.94167e-05
1.94202e-05
2.40632e-05
2.48982e-05
1.89023e-05
1.94199e-05
1.94189e-05
2.48975e-05
2.51214e-05
2.59692e-05
1.95971e-05
1.95999e-05
2.01645e-05
2.01645e-05
2.51226e-05
2.59688e-05
1.95972e-05
1.96025e-05
2.01632e-05
2.01637e-05
1.95999e-05
2.0162e-05
2.01648e-05
2.51259e-05
2.59686e-05
1.95987e-05
2.01613e-05
2.01642e-05
2.59712e-05
2.62025e-05
2.70504e-05
2.036e-05
2.03585e-05
2.09659e-05
2.09669e-05
2.62008e-05
2.70482e-05
2.03584e-05
2.03565e-05
2.09635e-05
2.09708e-05
2.03594e-05
2.09649e-05
2.09666e-05
2.62e-05
2.70524e-05
2.03596e-05
2.09685e-05
2.0965e-05
2.7051e-05
2.72856e-05
2.81277e-05
2.11749e-05
2.11756e-05
2.18204e-05
2.18177e-05
2.72841e-05
2.81234e-05
2.11726e-05
2.11792e-05
2.18184e-05
2.1819e-05
2.11756e-05
2.18123e-05
2.18208e-05
2.72886e-05
2.81268e-05
2.11726e-05
2.18155e-05
2.1819e-05
2.81288e-05
2.83609e-05
2.91906e-05
2.20376e-05
2.20362e-05
2.27076e-05
2.27148e-05
2.83577e-05
2.91952e-05
2.20361e-05
2.20428e-05
2.27068e-05
2.27102e-05
2.20385e-05
2.27122e-05
2.27116e-05
2.83601e-05
2.91999e-05
2.20377e-05
2.27083e-05
2.27101e-05
2.91973e-05
2.94265e-05
3.02715e-05
2.29452e-05
2.29462e-05
2.36597e-05
2.36566e-05
2.94325e-05
3.02609e-05
2.29442e-05
2.29423e-05
2.36556e-05
2.36591e-05
2.29488e-05
2.3652e-05
2.36582e-05
2.94329e-05
3.02652e-05
2.29472e-05
2.36609e-05
2.36566e-05
3.02708e-05
3.05026e-05
3.12852e-05
2.38965e-05
2.39e-05
2.46183e-05
2.4599e-05
3.04921e-05
3.1279e-05
2.38911e-05
2.38916e-05
2.46173e-05
2.46205e-05
2.38922e-05
2.45967e-05
2.46172e-05
3.05e-05
3.12859e-05
2.38902e-05
2.46122e-05
2.46133e-05
3.12852e-05
3.15119e-05
3.22885e-05
2.48534e-05
2.48419e-05
2.559e-05
2.55982e-05
3.15023e-05
3.23001e-05
2.48533e-05
2.48629e-05
2.55892e-05
2.5593e-05
2.48566e-05
2.56002e-05
2.55921e-05
3.15104e-05
3.22919e-05
2.48523e-05
2.55853e-05
2.55868e-05
3.22916e-05
3.25139e-05
3.32734e-05
2.5851e-05
2.58504e-05
2.65788e-05
2.65792e-05
3.25259e-05
3.32676e-05
2.58502e-05
2.58439e-05
2.65747e-05
2.65877e-05
2.58434e-05
2.65771e-05
2.65918e-05
3.25123e-05
3.32829e-05
2.58376e-05
2.65884e-05
2.65916e-05
3.3286e-05
3.34857e-05
3.42741e-05
2.6821e-05
2.68268e-05
2.76355e-05
2.76569e-05
3.34849e-05
3.42916e-05
2.68166e-05
2.68466e-05
2.76268e-05
2.7648e-05
2.68433e-05
2.76361e-05
2.76266e-05
3.35112e-05
3.42895e-05
2.68493e-05
2.76549e-05
2.76275e-05
3.42719e-05
3.45154e-05
3.53276e-05
2.79157e-05
2.79247e-05
2.87567e-05
2.87082e-05
3.4524e-05
3.5272e-05
2.79065e-05
2.78935e-05
2.87568e-05
2.8717e-05
2.78917e-05
2.87118e-05
2.8764e-05
3.45072e-05
3.52759e-05
2.78898e-05
2.87193e-05
2.87594e-05
3.53189e-05
3.55378e-05
3.61172e-05
2.90389e-05
2.89592e-05
2.96772e-05
2.97248e-05
3.54769e-05
3.61481e-05
2.90418e-05
2.90134e-05
2.96769e-05
2.9705e-05
2.90354e-05
2.9725e-05
2.96884e-05
3.54955e-05
3.61477e-05
2.90294e-05
2.96878e-05
2.96813e-05
3.61221e-05
3.62803e-05
3.69843e-05
2.98633e-05
2.99361e-05
3.06834e-05
3.06968e-05
3.63399e-05
3.70191e-05
2.98635e-05
2.99212e-05
3.06856e-05
3.06797e-05
2.98927e-05
3.07007e-05
3.06783e-05
3.63245e-05
3.69765e-05
2.98938e-05
3.06759e-05
3.06586e-05
3.69822e-05
3.72292e-05
3.80305e-05
3.09887e-05
3.10231e-05
3.18236e-05
3.17698e-05
3.72434e-05
3.79196e-05
3.09752e-05
3.09602e-05
3.1778e-05
3.1776e-05
3.09608e-05
3.17372e-05
3.18574e-05
3.71978e-05
3.80439e-05
3.09524e-05
3.18114e-05
3.18576e-05
3.80928e-05
3.82221e-05
3.87128e-05
3.20979e-05
3.19567e-05
3.27544e-05
3.2631e-05
3.80798e-05
3.86207e-05
3.20752e-05
3.20714e-05
3.28174e-05
3.28952e-05
3.21667e-05
3.26876e-05
3.28448e-05
3.82667e-05
3.87662e-05
3.2161e-05
3.28904e-05
3.29065e-05
3.87344e-05
3.88182e-05
3.87927e-05
3.28876e-05
3.28792e-05
3.323e-05
3.36041e-05
3.87991e-05
3.92215e-05
3.29476e-05
3.29944e-05
3.32527e-05
3.31552e-05
3.29676e-05
3.3549e-05
3.29617e-05
3.88436e-05
3.86101e-05
3.29891e-05
3.30525e-05
3.28897e-05
3.84283e-05
3.87999e-05
3.82595e-05
3.32223e-05
3.37327e-05
3.30078e-05
3.34603e-05
3.92864e-05
3.84685e-05
3.32373e-05
3.31293e-05
3.29373e-05
3.28195e-05
3.29067e-05
3.33092e-05
3.30865e-05
3.86108e-05
3.81363e-05
3.27925e-05
3.27926e-05
3.2927e-05
3.86545e-05
3.83252e-05
4.16912e-05
3.30314e-05
3.30831e-05
3.55601e-05
3.31202e-05
3.83539e-05
3.88769e-05
3.29486e-05
3.28477e-05
3.55751e-05
3.58334e-05
3.35998e-05
3.32926e-05
3.62909e-05
3.82213e-05
4.21562e-05
3.34796e-05
3.61521e-05
3.65993e-05
4.24915e-05
4.27589e-05
4.70533e-05
3.7003e-05
3.4257e-05
4.07934e-05
4.07712e-05
4.00999e-05
4.70788e-05
3.71146e-05
3.73926e-05
4.09413e-05
4.10054e-05
3.73135e-05
4.07277e-05
3.97871e-05
4.32099e-05
4.71301e-05
3.76787e-05
4.08696e-05
4.00565e-05
4.57012e-05
4.74879e-05
4.57212e-05
4.15783e-05
4.23992e-05
4.17465e-05
4.36121e-05
4.80862e-05
4.91538e-05
4.16268e-05
4.13711e-05
4.16057e-05
4.05969e-05
4.0233e-05
4.33225e-05
4.02892e-05
4.72916e-05
4.37563e-05
4.03429e-05
4.02614e-05
4.00379e-05
4.41616e-05
4.49699e-05
3.99923e-05
4.09172e-05
4.3215e-05
3.63932e-05
3.72053e-05
4.82758e-05
4.01406e-05
4.06019e-05
3.91285e-05
3.63312e-05
3.62021e-05
3.9765e-05
3.71481e-05
3.72604e-05
4.30396e-05
4.01997e-05
3.9208e-05
3.62456e-05
3.69548e-05
4.13295e-05
3.97772e-05
4.06075e-05
3.55277e-05
3.58125e-05
3.51398e-05
3.51088e-05
3.96071e-05
4.04112e-05
3.55701e-05
3.60416e-05
3.53369e-05
3.74237e-05
3.69246e-05
3.52739e-05
3.73127e-05
4.02654e-05
4.39565e-05
3.67524e-05
3.78786e-05
3.76497e-05
4.34304e-05
4.15009e-05
4.61404e-05
3.5679e-05
3.55989e-05
4.07342e-05
4.03916e-05
4.15036e-05
4.60146e-05
3.60142e-05
3.89022e-05
4.09155e-05
4.07071e-05
3.83703e-05
4.05267e-05
3.9969e-05
4.48192e-05
4.57944e-05
3.89411e-05
4.08359e-05
4.02854e-05
4.51649e-05
4.65406e-05
4.60644e-05
4.1676e-05
4.1106e-05
4.21226e-05
4.11977e-05
4.62294e-05
4.47714e-05
4.16509e-05
4.06831e-05
4.18371e-05
3.967e-05
3.99471e-05
4.08614e-05
3.91165e-05
4.55586e-05
4.25733e-05
4.02184e-05
3.93018e-05
3.89042e-05
4.22397e-05
4.58453e-05
4.37055e-05
4.18792e-05
4.07053e-05
4.00568e-05
3.89236e-05
4.44663e-05
4.21319e-05
4.1456e-05
3.96201e-05
4.00859e-05
4.1664e-05
3.90679e-05
3.88701e-05
4.05499e-05
4.25645e-05
4.73309e-05
3.88357e-05
4.17008e-05
4.06763e-05
4.60567e-05
4.36934e-05
4.59161e-05
3.99217e-05
3.89024e-05
4.08121e-05
4.16266e-05
4.21614e-05
4.69132e-05
4.00681e-05
4.32904e-05
4.1565e-05
4.48475e-05
4.16673e-05
4.21744e-05
4.3117e-05
4.84862e-05
5.04355e-05
4.21534e-05
4.52496e-05
4.34675e-05
4.74632e-05
4.66438e-05
4.77338e-05
4.22482e-05
4.33056e-05
4.4294e-05
4.49509e-05
4.77441e-05
4.86512e-05
4.27298e-05
4.46734e-05
4.38887e-05
4.08286e-05
4.30979e-05
4.46994e-05
4.25721e-05
4.98635e-05
4.26848e-05
4.338e-05
4.06413e-05
4.22704e-05
4.51214e-05
4.77187e-05
4.81488e-05
4.43277e-05
4.4931e-05
4.4501e-05
4.48575e-05
4.85688e-05
4.85744e-05
4.38576e-05
3.97028e-05
4.39217e-05
3.89575e-05
4.25874e-05
4.47067e-05
4.50771e-05
4.21039e-05
4.22413e-05
4.22569e-05
3.89383e-05
4.44501e-05
4.97264e-05
4.86648e-05
5.1555e-05
4.49773e-05
4.50035e-05
4.70753e-05
4.63305e-05
4.89423e-05
5.05519e-05
4.43431e-05
3.94541e-05
4.69697e-05
4.63234e-05
4.64369e-05
4.65274e-05
4.79508e-05
4.3375e-05
5.07821e-05
4.59319e-05
4.66077e-05
4.77997e-05
5.26701e-05
5.17322e-05
4.8991e-05
4.73023e-05
4.64331e-05
4.64444e-05
4.56441e-05
5.05737e-05
4.78904e-05
4.73423e-05
4.80682e-05
4.68694e-05
5.04336e-05
4.78505e-05
4.54299e-05
4.46176e-05
5.16545e-05
5.42211e-05
4.77429e-05
5.02246e-05
4.49711e-05
4.66156e-05
4.82976e-05
4.48265e-05
4.51982e-05
4.4851e-05
4.25467e-05
4.30817e-05
4.75066e-05
4.56174e-05
4.57459e-05
5.04526e-05
4.29879e-05
4.79279e-05
4.35548e-05
4.30425e-05
4.254e-05
5.42662e-05
5.03466e-05
4.39611e-05
4.77775e-05
4.29944e-05
4.52291e-05
4.4802e-05
4.78824e-05
4.23465e-05
4.30034e-05
4.36077e-05
4.50609e-05
4.5648e-05
4.96988e-05
4.27316e-05
4.63625e-05
4.35227e-05
4.38486e-05
4.26545e-05
4.53812e-05
4.61988e-05
4.97152e-05
4.69065e-05
4.31025e-05
4.39944e-05
4.60397e-05
5.02213e-05
4.88394e-05
5.17935e-05
4.53273e-05
4.68058e-05
4.85932e-05
4.99753e-05
5.06655e-05
5.3773e-05
4.48767e-05
4.36682e-05
4.7988e-05
4.41619e-05
4.7352e-05
5.00474e-05
4.9095e-05
4.68434e-05
4.78455e-05
4.69611e-05
4.42808e-05
4.85157e-05
5.23137e-05
5.21001e-05
5.28576e-05
4.91267e-05
5.02563e-05
4.99499e-05
4.98292e-05
5.39071e-05
5.19595e-05
4.86099e-05
4.5352e-05
4.97662e-05
4.82157e-05
4.91993e-05
4.971e-05
4.88031e-05
4.85414e-05
5.11182e-05
4.86704e-05
4.80683e-05
4.85853e-05
5.11936e-05
5.29517e-05
5.20168e-05
4.99953e-05
4.89191e-05
4.92836e-05
4.68737e-05
5.15016e-05
4.90321e-05
4.99127e-05
4.87105e-05
4.97123e-05
4.91501e-05
4.83892e-05
4.67346e-05
4.76239e-05
5.14234e-05
5.18438e-05
4.83526e-05
4.89424e-05
4.78895e-05
5.03612e-05
5.17869e-05
5.01113e-05
4.86828e-05
4.65388e-05
4.74819e-05
4.63257e-05
4.89354e-05
4.90276e-05
4.91463e-05
4.91311e-05
4.773e-05
4.85359e-05
4.75083e-05
4.62891e-05
4.74277e-05
5.18445e-05
5.11035e-05
4.78156e-05
4.8528e-05
4.77444e-05
5.03931e-05
5.00509e-05
4.98016e-05
4.72623e-05
4.64675e-05
4.71102e-05
4.82066e-05
4.93476e-05
5.12525e-05
4.74575e-05
4.83418e-05
4.71924e-05
4.81245e-05
4.7483e-05
4.83682e-05
4.8156e-05
5.10766e-05
5.08715e-05
4.77522e-05
4.82093e-05
4.8069e-05
5.08966e-05
4.99508e-05
5.12209e-05
4.72151e-05
4.8697e-05
4.85928e-05
4.96324e-05
5.15706e-05
5.23455e-05
4.72242e-05
4.81314e-05
4.83905e-05
4.86797e-05
4.8443e-05
4.96876e-05
4.92833e-05
5.09311e-05
5.14851e-05
4.83122e-05
4.87887e-05
4.91536e-05
5.18803e-05
5.14744e-05
5.23483e-05
4.89801e-05
4.97989e-05
4.98387e-05
4.99981e-05
5.24283e-05
5.24797e-05
4.88185e-05
4.89051e-05
4.97742e-05
4.93596e-05
4.94888e-05
5.00058e-05
4.97605e-05
5.16055e-05
5.1861e-05
4.93749e-05
4.93859e-05
4.97058e-05
5.22088e-05
5.25214e-05
5.29882e-05
5.00575e-05
5.00087e-05
5.05089e-05
5.00763e-05
5.24902e-05
5.24711e-05
5.00193e-05
4.95233e-05
5.05195e-05
5.01238e-05
4.97755e-05
5.00162e-05
4.98861e-05
5.19624e-05
5.25214e-05
4.97423e-05
5.00359e-05
4.98977e-05
5.23121e-05
5.3043e-05
5.29503e-05
5.05857e-05
5.01835e-05
5.0636e-05
5.04685e-05
5.25347e-05
5.27846e-05
5.06031e-05
5.03152e-05
5.06624e-05
5.07071e-05
4.99826e-05
5.04139e-05
5.03796e-05
5.26615e-05
5.30217e-05
4.99987e-05
5.06605e-05
5.04089e-05
5.27557e-05
5.29501e-05
5.27252e-05
5.0623e-05
5.05109e-05
5.05125e-05
5.0654e-05
5.28351e-05
5.29752e-05
5.06521e-05
5.07714e-05
5.05393e-05
5.08269e-05
5.05205e-05
5.0722e-05
5.08782e-05
5.30801e-05
5.31304e-05
5.05543e-05
5.08927e-05
5.09076e-05
5.31726e-05
5.2736e-05
5.29684e-05
5.05068e-05
5.07324e-05
5.07176e-05
5.09392e-05
5.30388e-05
5.31773e-05
5.05291e-05
5.08248e-05
5.06912e-05
5.08314e-05
5.0966e-05
5.09946e-05
5.11218e-05
5.31421e-05
5.30697e-05
5.09861e-05
5.08984e-05
5.11037e-05
5.33156e-05
5.30869e-05
5.35092e-05
5.08762e-05
5.09764e-05
5.12988e-05
5.10964e-05
5.32067e-05
5.32465e-05
5.08521e-05
5.08671e-05
5.12966e-05
5.11675e-05
5.1134e-05
5.10739e-05
5.11335e-05
5.31039e-05
5.33497e-05
5.11102e-05
5.11429e-05
5.11239e-05
5.32927e-05
5.35994e-05
5.37568e-05
5.14166e-05
5.11783e-05
5.16327e-05
5.15058e-05
5.32981e-05
5.36179e-05
5.14215e-05
5.12956e-05
5.16576e-05
5.15923e-05
5.11432e-05
5.14554e-05
5.13632e-05
5.34433e-05
5.36805e-05
5.11527e-05
5.15469e-05
5.13893e-05
5.35015e-05
5.37799e-05
5.37212e-05
5.16571e-05
5.1606e-05
5.16844e-05
5.18303e-05
5.37063e-05
5.3902e-05
5.16786e-05
5.16352e-05
5.16768e-05
5.16938e-05
5.14737e-05
5.18337e-05
5.1788e-05
5.37203e-05
5.37635e-05
5.14889e-05
5.17007e-05
5.17673e-05
5.38641e-05
5.37368e-05
5.38895e-05
5.1708e-05
5.18806e-05
5.18674e-05
5.19274e-05
5.39437e-05
5.3962e-05
5.16804e-05
5.17323e-05
5.18533e-05
5.18904e-05
5.18733e-05
5.19699e-05
5.20338e-05
5.37996e-05
5.3937e-05
5.18493e-05
5.19367e-05
5.20235e-05
5.40334e-05
5.39647e-05
5.42125e-05
5.19463e-05
5.19289e-05
5.21888e-05
5.20104e-05
5.39721e-05
5.39877e-05
5.19449e-05
5.19403e-05
5.22047e-05
5.21217e-05
5.20414e-05
5.19827e-05
5.20216e-05
5.3982e-05
5.41049e-05
5.20384e-05
5.20963e-05
5.20313e-05
5.3993e-05
5.42644e-05
5.42904e-05
5.22552e-05
5.20969e-05
5.23375e-05
5.23351e-05
5.40487e-05
5.42883e-05
5.22719e-05
5.21928e-05
5.23447e-05
5.23569e-05
5.20237e-05
5.23091e-05
5.22329e-05
5.416e-05
5.42953e-05
5.2036e-05
5.23339e-05
5.22452e-05
5.42117e-05
5.42954e-05
5.41901e-05
5.23355e-05
5.23832e-05
5.23096e-05
5.2438e-05
5.43352e-05
5.4377e-05
5.23415e-05
5.23766e-05
5.23038e-05
5.23719e-05
5.23326e-05
5.24778e-05
5.25395e-05
5.43245e-05
5.42962e-05
5.23348e-05
5.24017e-05
5.25281e-05
5.44555e-05
5.42122e-05
5.43934e-05
5.23148e-05
5.24373e-05
5.24792e-05
5.24341e-05
5.43889e-05
5.43213e-05
5.23068e-05
5.23633e-05
5.24722e-05
5.23646e-05
5.25609e-05
5.24644e-05
5.25436e-05
5.43051e-05
5.42558e-05
5.25504e-05
5.24041e-05
5.25358e-05
5.43944e-05
5.44439e-05
5.45359e-05
5.25335e-05
5.24478e-05
5.2648e-05
5.26142e-05
5.43401e-05
5.44952e-05
5.25303e-05
5.23783e-05
5.26347e-05
5.25854e-05
5.2503e-05
5.25665e-05
5.24654e-05
5.4273e-05
5.44477e-05
5.24958e-05
5.25274e-05
5.24564e-05
5.43248e-05
5.45683e-05
5.464e-05
5.26776e-05
5.26814e-05
5.27766e-05
5.28302e-05
5.45626e-05
5.47046e-05
5.26672e-05
5.26939e-05
5.27983e-05
5.29958e-05
5.24934e-05
5.28366e-05
5.28393e-05
5.45535e-05
5.49184e-05
5.24869e-05
5.30037e-05
5.2863e-05
5.4748e-05
5.46678e-05
5.46288e-05
5.2807e-05
5.28444e-05
5.28174e-05
5.28203e-05
5.47275e-05
5.46099e-05
5.28359e-05
5.30358e-05
5.28495e-05
5.29893e-05
5.29074e-05
5.28475e-05
5.29273e-05
5.49675e-05
5.47613e-05
5.29366e-05
5.30159e-05
5.29557e-05
5.47319e-05
5.4632e-05
5.4523e-05
5.28013e-05
5.27759e-05
5.27337e-05
5.26999e-05
5.46078e-05
5.44841e-05
5.28324e-05
5.28707e-05
5.27174e-05
5.25449e-05
5.28917e-05
5.2697e-05
5.2666e-05
5.47204e-05
5.42651e-05
5.29124e-05
5.25383e-05
5.26446e-05
5.44093e-05
5.45467e-05
5.47421e-05
5.27355e-05
5.27039e-05
5.28907e-05
5.28969e-05
5.45141e-05
5.47583e-05
5.27105e-05
5.25047e-05
5.28171e-05
5.25725e-05
5.26407e-05
5.28633e-05
5.27319e-05
5.4267e-05
5.447e-05
5.26102e-05
5.25501e-05
5.26779e-05
5.46235e-05
5.48046e-05
5.48898e-05
5.29545e-05
5.29666e-05
5.30533e-05
5.30744e-05
5.48235e-05
5.49247e-05
5.29082e-05
5.27415e-05
5.30684e-05
5.31523e-05
5.28761e-05
5.30992e-05
5.32009e-05
5.46017e-05
5.50201e-05
5.28309e-05
5.31784e-05
5.32162e-05
5.5085e-05
5.49019e-05
5.47368e-05
5.30583e-05
5.30781e-05
5.29989e-05
5.29801e-05
5.49392e-05
5.46992e-05
5.30809e-05
5.3217e-05
5.30384e-05
5.32232e-05
5.32326e-05
5.30177e-05
5.31148e-05
5.50786e-05
5.49815e-05
5.32564e-05
5.32551e-05
5.31485e-05
5.48004e-05
5.47301e-05
5.45347e-05
5.29293e-05
5.28912e-05
5.27447e-05
5.27124e-05
5.46742e-05
5.44373e-05
5.2969e-05
5.31584e-05
5.27709e-05
5.27934e-05
5.28948e-05
5.26689e-05
5.24829e-05
5.49471e-05
5.45106e-05
5.29279e-05
5.27449e-05
5.25038e-05
5.41056e-05
5.45411e-05
5.46088e-05
5.27257e-05
5.27065e-05
5.27819e-05
5.28147e-05
5.44637e-05
5.47295e-05
5.27428e-05
5.27267e-05
5.27571e-05
5.26308e-05
5.24808e-05
5.28318e-05
5.29099e-05
5.45145e-05
5.44765e-05
5.25005e-05
5.26323e-05
5.28919e-05
5.48703e-05
5.46794e-05
5.48586e-05
5.28919e-05
5.28978e-05
5.30156e-05
5.30166e-05
5.47853e-05
5.48261e-05
5.2834e-05
5.26291e-05
5.29542e-05
5.27359e-05
5.31259e-05
5.30587e-05
5.33225e-05
5.44914e-05
5.45233e-05
5.30875e-05
5.27872e-05
5.32556e-05
5.52277e-05
5.48686e-05
5.43918e-05
5.30059e-05
5.30141e-05
5.27062e-05
5.27516e-05
5.48313e-05
5.4472e-05
5.29477e-05
5.28413e-05
5.27696e-05
5.29887e-05
5.33017e-05
5.28264e-05
5.26234e-05
5.45769e-05
5.47582e-05
5.32337e-05
5.30198e-05
5.26749e-05
5.43091e-05
5.43928e-05
5.48922e-05
5.26763e-05
5.26599e-05
5.28912e-05
5.26651e-05
5.44308e-05
5.4367e-05
5.27668e-05
5.30614e-05
5.29683e-05
5.31073e-05
5.23061e-05
5.24933e-05
5.18655e-05
5.4834e-05
5.49785e-05
5.24237e-05
5.29222e-05
5.19526e-05
5.33273e-05
5.50242e-05
5.45347e-05
5.30273e-05
5.28207e-05
5.29307e-05
5.30689e-05
5.45153e-05
5.51809e-05
5.30087e-05
5.30666e-05
5.26978e-05
5.26072e-05
5.1912e-05
5.31303e-05
5.34669e-05
5.49495e-05
5.43033e-05
5.19705e-05
5.26424e-05
5.31908e-05
5.54514e-05
5.43328e-05
5.37744e-05
5.26035e-05
5.30209e-05
5.2112e-05
5.22664e-05
5.51804e-05
5.39045e-05
5.24283e-05
5.26079e-05
5.22952e-05
5.3035e-05
5.40748e-05
5.27497e-05
5.45143e-05
5.43234e-05
5.54142e-05
5.38803e-05
5.3501e-05
5.4647e-05
5.71363e-05
5.3892e-05
5.44122e-05
5.21548e-05
5.2221e-05
5.25536e-05
5.23319e-05
5.38267e-05
5.39214e-05
5.24345e-05
5.30919e-05
5.24955e-05
5.19452e-05
5.42787e-05
5.19903e-05
5.0779e-05
5.54991e-05
5.31389e-05
5.45154e-05
5.162e-05
5.07892e-05
5.17337e-05
5.4201e-05
5.15807e-05
5.14225e-05
5.38524e-05
5.13918e-05
5.04072e-05
4.18484e-05
4.10777e-05
4.0395e-05
4.93493e-05
5.23473e-05
4.92041e-05
3.73773e-05
3.73765e-05
3.7377e-05
3.7377e-05
3.73701e-05
3.73777e-05
3.73043e-05
3.73768e-05
3.73702e-05
3.73777e-05
3.73768e-05
3.73043e-05
3.73741e-05
3.72959e-05
3.72959e-05
3.58798e-05
4.08721e-05
3.66033e-05
4.51467e-05
5.51147e-05
6.48951e-05
3.58803e-05
4.08712e-05
3.66034e-05
4.51465e-05
3.58932e-05
3.58933e-05
3.58932e-05
3.44005e-05
3.44005e-05
3.44005e-05
3.44005e-05
3.52758e-05
3.56384e-05
3.58929e-05
3.53771e-05
3.60475e-05
3.42365e-05
3.53822e-05
5.51168e-05
6.48994e-05
3.52758e-05
3.58929e-05
3.5638e-05
3.53771e-05
3.60475e-05
3.53822e-05
3.42375e-05
3.65971e-05
3.65977e-05
3.5279e-05
3.40642e-05
3.40633e-05
3.39657e-05
5.13534e-05
3.46793e-05
5.46248e-05
7.65447e-05
8.08614e-05
3.39682e-05
5.13544e-05
3.46789e-05
5.46254e-05
3.39296e-05
3.39297e-05
3.39297e-05
3.25855e-05