/*--------------------------------*- C++ -*----------------------------------*\
| =========                 |                                                 |
| \\      /  F ield         | OpenFOAM: The Open Source CFD Toolbox           |
|  \\    /   O peration     | Version:  v2012                                 |
|   \\  /    A nd           | Website:  www.openfoam.com                      |
|    \\/     M anipulation  |                                                 |
\*---------------------------------------------------------------------------*/
FoamFile
{
    version     2.0;
    format      ascii;
    class       volScalarField;
    location    "625";
    object      nut;
}
// * * * * * * * * * * * * * * * * * * * * * * * * * * * * * * * * * * * * * //

dimensions      [0 2 -1 0 0 0 0];


internalField   nonuniform List<scalar> 
171728
(
0.000233973
0.000233116
0.000233116
0.000233423
0.000232532
0.000227802
0.000227801
0.000223866
0.000230516
0.00022032
0.000220318
0.000209109
0.000227799
0.000211665
0.000211661
0.000193785
0.000224433
0.00020265
0.000202644
0.000179709
0.000220552
0.000193772
0.000193765
0.000167339
0.000216304
0.000185275
0.000185267
0.000156587
0.00021182
0.000177234
0.000177226
0.000147206
0.000207207
0.000169688
0.00016968
0.00013895
0.000202545
0.000162611
0.000162603
0.000131615
0.000197889
0.000155949
0.000155941
0.000124953
0.000193275
0.000149647
0.000149638
0.000118816
0.000188683
0.000143665
0.000143657
0.000113168
0.000184151
0.000137952
0.000137943
0.000107931
0.000179706
0.000132462
0.000132454
0.000103054
0.000175338
0.000127189
0.00012718
9.8432e-05
0.000171036
0.000122151
0.00012214
9.42517e-05
0.000166785
0.000117373
0.000117363
9.06643e-05
0.000162586
0.000112887
0.000112877
8.77313e-05
0.000158415
0.000108756
0.000108746
8.53869e-05
0.000154264
0.000105025
0.000105015
8.36656e-05
0.000150142
0.00010171
0.000101701
8.25777e-05
0.000146062
9.88931e-05
9.88852e-05
8.20983e-05
0.000142045
9.65845e-05
9.6577e-05
8.21541e-05
0.000138121
9.48005e-05
9.47941e-05
8.2699e-05
0.000134283
9.35081e-05
9.35062e-05
8.36549e-05
0.000130627
9.27395e-05
9.27427e-05
8.50043e-05
0.000127155
9.24709e-05
9.24558e-05
8.67057e-05
0.000123893
9.26259e-05
9.26269e-05
8.86242e-05
0.000120883
9.32275e-05
9.32355e-05
9.0779e-05
0.000118187
9.42248e-05
9.41963e-05
9.31142e-05
0.000115812
9.55938e-05
9.55998e-05
9.55737e-05
0.000113744
9.72147e-05
9.72581e-05
9.80913e-05
0.000112043
9.92164e-05
9.91683e-05
0.000100735
0.000110797
0.000101483
0.000101484
0.00010354
0.000109769
0.000103713
0.000103797
0.000106086
0.000109096
0.000106384
0.000106178
0.000108688
0.000108317
0.000108692
0.000108905
0.000111343
0.000108837
0.000111986
0.00011192
0.000114243
0.000110524
0.000115361
0.000115623
0.000117725
0.000109876
0.000118026
0.000117754
0.000119425
0.000111204
0.000121759
0.000120976
0.000122554
0.00011418
0.000124926
0.000126591
0.000127781
0.000117323
0.000129102
0.000130448
0.000129151
0.000113023
0.000131619
0.000124028
0.000121417
9.60007e-05
0.000114713
0.000112181
0.000118293
0.000113584
0.00011672
0.000141283
0.00014126
0.000164286
0.000178829
0.00017577
0.000161515
0.000184736
0.000196916
0.000157126
0.000150261
0.00012207
0.000129759
0.000128337
0.000130296
9.30184e-05
0.000123836
0.000149935
0.000148262
0.000134048
0.000163582
0.000158815
0.000152198
0.000156176
0.000153102
0.0001381
0.000129399
0.000131218
0.000133881
0.000174779
0.000157013
0.000125917
0.000165069
0.000192859
0.000156461
0.000154929
0.000170981
0.000136342
0.000137371
0.000161456
0.000172151
0.000126269
0.000174852
0.000185467
0.000187413
0.000188814
0.000194109
0.000184849
0.000170551
0.000217126
0.00014718
0.000139131
0.000148776
0.000185226
0.000139522
0.000129668
0.000174849
0.000156764
0.00016941
0.000175678
0.000206023
0.00016376
0.000180606
0.000202994
0.000195164
0.000187423
0.000173441
0.000204902
0.000173075
0.00019168
0.000168077
0.000179696
0.000170267
0.000186216
0.000167184
0.00016564
0.00018605
0.000182817
0.000169529
0.000172993
0.000193013
0.000186681
0.000174911
0.000190446
0.000193202
0.000188941
0.000175631
0.000199445
0.000192567
0.000193338
0.000175584
0.000201067
0.000195126
0.000197215
0.000178112
0.000197872
0.000197052
0.000197822
0.000180492
0.00019855
0.000198038
0.000197002
0.000180944
0.000204725
0.000197965
0.000199009
0.000180237
0.000208704
0.000200816
0.000201222
0.00018145
0.000208796
0.000203314
0.00020203
0.000183615
0.000210791
0.000203445
0.00020337
0.000184392
0.00021481
0.000203601
0.000204642
0.000183647
0.000216727
0.000206259
0.000206347
0.000185395
0.000216503
0.000207176
0.000206654
0.00018697
0.000219054
0.000206725
0.000205945
0.000186161
0.000221181
0.000208124
0.000207804
0.00018573
0.000223449
0.000210301
0.00021211
0.000189006
0.000225296
0.000210082
0.00021141
0.000188831
0.000224732
0.000209025
0.000207357
0.000186212
0.000226529
0.000211253
0.000208864
0.000188314
0.000229884
0.000213526
0.000214472
0.000192184
0.000231144
0.000212301
0.000214872
0.000189613
0.000229163
0.00021028
0.00021104
0.000184704
0.000230134
0.000212687
0.000210238
0.000191789
0.000233116
0.000215277
0.000212679
0.000194661
0.000232824
0.000211868
0.000215272
0.000186673
0.000237264
0.000210936
0.000212596
0.000178318
0.000233135
0.000218395
0.000213669
0.000199878
0.000230758
0.000214276
0.000227339
0.000214275
0.000239789
0.000212675
0.00020291
0.00017198
0.000234266
0.000234448
0.000234449
0.000234267
0.000234448
0.000234449
0.000234274
0.000234274
0.000234274
0.000234274
0.000234448
0.000234448
0.000234266
0.000234448
0.000234448
0.000234266
0.000233423
0.000226204
0.000233116
0.000233114
0.000229361
0.000229357
0.000233423
0.000226205
0.000233114
0.000233114
0.000229359
0.000229356
0.000233116
0.000229364
0.000229361
0.000233423
0.000226202
0.000233114
0.000229363
0.000229359
0.000226202
0.000223867
0.00021223
0.000227799
0.000227794
0.000222332
0.000222326
0.000223868
0.000212234
0.000227797
0.000227792
0.000222332
0.000222323
0.000227798
0.000222339
0.000222331
0.000223866
0.000212227
0.000227797
0.000222336
0.000222331
0.000212228
0.000209111
0.000197061
0.000220313
0.000220307
0.000213879
0.000213874
0.000209112
0.000197066
0.000220314
0.000220304
0.000213883
0.000213869
0.000220311
0.00021389
0.000213877
0.000209107
0.000197057
0.000220313
0.000213886
0.000213882
0.000197058
0.000193788
0.000182876
0.000211654
0.000211648
0.00020489
0.000204884
0.000193792
0.000182883
0.000211658
0.000211643
0.000204897
0.000204879
0.000211651
0.000204905
0.000204887
0.000193784
0.000182872
0.000211657
0.000204899
0.000204896
0.000182873
0.000179713
0.000170268
0.000202634
0.000202628
0.000195943
0.000195937
0.000179717
0.000170274
0.000202643
0.000202622
0.000195954
0.000195931
0.000202631
0.000195962
0.00019594
0.000179708
0.000170263
0.000202641
0.000195955
0.000195953
0.000170264
0.000167344
0.000159242
0.000193753
0.000193747
0.000187336
0.000187331
0.000167349
0.000159249
0.000193765
0.00019374
0.000187351
0.000187324
0.00019375
0.000187359
0.000187333
0.000167339
0.000159238
0.000193764
0.000187351
0.00018735
0.000159238
0.000156592
0.000149613
0.000185253
0.000185247
0.000179173
0.000179168
0.000156597
0.00014962
0.000185268
0.00018524
0.000179191
0.00017916
0.000185249
0.000179198
0.00017917
0.000156587
0.000149608
0.000185267
0.000179189
0.00017919
0.000149608
0.000147211
0.000141107
0.000177208
0.000177203
0.000171501
0.000171496
0.000147217
0.000141114
0.000177227
0.000177195
0.000171521
0.000171488
0.000177205
0.000171529
0.000171498
0.000147206
0.000141102
0.000177225
0.00017152
0.000171521
0.000141101
0.000138956
0.000133547
0.00016966
0.000169655
0.000164309
0.000164304
0.000138961
0.000133554
0.000169682
0.000169647
0.000164332
0.000164296
0.000169658
0.000164339
0.000164307
0.000138951
0.000133542
0.00016968
0.000164331
0.000164332
0.000133541
0.000131621
0.000126686
0.000162581
0.000162576
0.000157546
0.000157541
0.000131627
0.000126693
0.000162605
0.000162567
0.000157572
0.000157533
0.000162578
0.000157579
0.000157545
0.000131615
0.00012668
0.000162604
0.00015757
0.000157571
0.000126679
0.00012496
0.000120362
0.000155916
0.000155912
0.000151157
0.000151152
0.000124966
0.000120369
0.000155942
0.000155903
0.000151184
0.000151144
0.000155915
0.000151192
0.000151157
0.000124954
0.000120356
0.000155942
0.000151183
0.000151184
0.000120355
0.000118822
0.000114426
0.000149612
0.000149607
0.000145095
0.000145091
0.000118828
0.000114433
0.000149639
0.000149599
0.000145124
0.000145083
0.000149611
0.000145132
0.000145095
0.000118816
0.000114419
0.000149639
0.000145123
0.000145124
0.000114418
0.000113175
0.000108834
0.00014363
0.000143624
0.000139318
0.000139313
0.00011318
0.000108842
0.000143658
0.000143616
0.000139347
0.000139305
0.000143629
0.000139356
0.000139319
0.000113168
0.000108828
0.000143658
0.000139347
0.000139348
0.000108827
0.000107939
0.0001037
0.000137916
0.000137909
0.000133776
0.000133769
0.000107944
0.000103707
0.000137944
0.000137901
0.000133804
0.000133762
0.000137915
0.000133814
0.000133776
0.000107932
0.000103695
0.000137944
0.000133805
0.000133805
0.000103694
0.000103061
9.9124e-05
0.000132425
0.000132418
0.000128445
0.000128437
0.000103067
9.91306e-05
0.000132453
0.00013241
0.000128472
0.000128429
0.000132424
0.000128484
0.000128445
0.000103056
9.91181e-05
0.000132454
0.000128474
0.000128475
9.91164e-05
9.84388e-05
9.49897e-05
0.00012715
0.000127143
0.000123345
0.000123337
9.8445e-05
9.49945e-05
0.000127178
0.000127135
0.000123371
0.000123328
0.000127151
0.000123384
0.000123347
9.84332e-05
9.49829e-05
0.00012718
0.000123374
0.000123375
9.49819e-05
9.42588e-05
9.14389e-05
0.000122112
0.000122104
0.000118478
0.000118471
9.42632e-05
9.14437e-05
0.000122138
0.000122096
0.000118503
0.000118463
0.000122114
0.000118518
0.000118482
9.4252e-05
9.14332e-05
0.000122141
0.000118507
0.000118508
9.14336e-05
9.06686e-05
8.83782e-05
0.000117333
0.000117326
0.000113921
0.000113917
9.06739e-05
8.83855e-05
0.000117357
0.000117316
0.000113946
0.000113907
0.000117336
0.000113963
0.000113926
9.06646e-05
8.83758e-05
0.000117363
0.000113953
0.000113952
8.83732e-05
8.77352e-05
8.59112e-05
0.000112846
0.000112841
0.000109692
0.000109685
8.7743e-05
8.59143e-05
0.00011287
0.00011283
0.000109715
0.000109675
0.000112851
0.000109731
0.000109697
8.77334e-05
8.59038e-05
0.000112876
0.000109719
0.000109721
8.59073e-05
8.53912e-05
8.40663e-05
0.000108718
0.00010871
0.000105847
0.00010584
8.53939e-05
8.40736e-05
0.000108739
0.0001087
0.000105868
0.000105831
0.000108722
0.000105886
0.000105852
8.53841e-05
8.40652e-05
0.000108746
0.000105876
0.000105875
8.40646e-05
8.36666e-05
8.28568e-05
0.000104987
0.000104979
0.000102453
0.000102444
8.36749e-05
8.28632e-05
0.000105007
0.00010497
0.000102472
0.000102435
0.000104991
0.00010249
0.000102457
8.36658e-05
8.2853e-05
0.000105015
0.000102478
0.000102479
8.28533e-05
8.258e-05
8.22599e-05
0.000101676
0.000101665
9.9519e-05
9.95051e-05
8.25853e-05
8.22608e-05
0.000101695
0.000101657
9.95355e-05
9.94981e-05
0.000101679
9.95499e-05
9.95214e-05
8.25744e-05
8.22568e-05
0.0001017
9.95413e-05
9.95419e-05
8.22571e-05
8.20997e-05
8.22088e-05
9.88626e-05
9.88492e-05
9.70844e-05
9.7075e-05
8.21004e-05
8.22151e-05
9.88791e-05
9.88414e-05
9.70988e-05
9.70667e-05
9.88645e-05
9.71169e-05
9.70874e-05
8.2096e-05
8.221e-05
9.8885e-05
9.7109e-05
9.71074e-05
8.22076e-05
8.21539e-05
8.26568e-05
9.65549e-05
9.65426e-05
9.51715e-05
9.51557e-05
8.21604e-05
8.26572e-05
9.65704e-05
9.65356e-05
9.51855e-05
9.51556e-05
9.6558e-05
9.51983e-05
9.51709e-05
8.21543e-05
8.26553e-05
9.65775e-05
9.5191e-05
9.51876e-05
8.26529e-05
8.27018e-05
8.35324e-05
9.47748e-05
9.47566e-05
9.37604e-05
9.37512e-05
8.27037e-05
8.35371e-05
9.47892e-05
9.47574e-05
9.37754e-05
9.37432e-05
9.47749e-05
9.37876e-05
9.37661e-05
8.2703e-05
8.35323e-05
9.47921e-05
9.37825e-05
9.37809e-05
8.35335e-05
8.36551e-05
8.47919e-05
9.34785e-05
9.34722e-05
9.28599e-05
9.28396e-05
8.36603e-05
8.47894e-05
9.34949e-05
9.34641e-05
9.28717e-05
9.28425e-05
9.34857e-05
9.28769e-05
9.28595e-05
8.36562e-05
8.47903e-05
9.35003e-05
9.28803e-05
9.28743e-05
8.47907e-05
8.50044e-05
8.64274e-05
9.27211e-05
9.27005e-05
9.24786e-05
9.24613e-05
8.50009e-05
8.64343e-05
9.27328e-05
9.27067e-05
9.24875e-05
9.24612e-05
9.27219e-05
9.2497e-05
9.24792e-05
8.50045e-05
8.64294e-05
9.27394e-05
9.24883e-05
9.24932e-05
8.64356e-05
8.66992e-05
8.83148e-05
9.24511e-05
9.24375e-05
9.25427e-05
9.25147e-05
8.67059e-05
8.82983e-05
9.24598e-05
9.24297e-05
9.25433e-05
9.25125e-05
9.24534e-05
9.25447e-05
9.25304e-05
8.67001e-05
8.82983e-05
9.24664e-05
9.25459e-05
9.25387e-05
8.83044e-05
8.86365e-05
9.03968e-05
9.26193e-05
9.25977e-05
9.30096e-05
9.30061e-05
8.86181e-05
9.04135e-05
9.26204e-05
9.25932e-05
9.30241e-05
9.3025e-05
9.26082e-05
9.30348e-05
9.30274e-05
8.86229e-05
9.04213e-05
9.26168e-05
9.3051e-05
9.30295e-05
9.04127e-05
9.07607e-05
9.27021e-05
9.31852e-05
9.31986e-05
9.39303e-05
9.39158e-05
9.07803e-05
9.27123e-05
9.32041e-05
9.32112e-05
9.39384e-05
9.38955e-05
9.32101e-05
9.3949e-05
9.39306e-05
9.07872e-05
9.26874e-05
9.32137e-05
9.39235e-05
9.39451e-05
9.27059e-05
9.31121e-05
9.51454e-05
9.42176e-05
9.41924e-05
9.52073e-05
9.51948e-05
9.3113e-05
9.51403e-05
9.42221e-05
9.4163e-05
9.52031e-05
9.52124e-05
9.42096e-05
9.52321e-05
9.52038e-05
9.30863e-05
9.51448e-05
9.42312e-05
9.52387e-05
9.52066e-05
9.51371e-05
9.5582e-05
9.76651e-05
9.55856e-05
9.55653e-05
9.6807e-05
9.67684e-05
9.55786e-05
9.76437e-05
9.55802e-05
9.55836e-05
9.68097e-05
9.67768e-05
9.55805e-05
9.67759e-05
9.68009e-05
9.55864e-05
9.76524e-05
9.55698e-05
9.6787e-05
9.68022e-05
9.76581e-05
9.80979e-05
0.000100219
9.72177e-05
9.71952e-05
9.86017e-05
9.86546e-05
9.80854e-05
0.000100264
9.72263e-05
9.72417e-05
9.86204e-05
9.8612e-05
9.72181e-05
9.8687e-05
9.8637e-05
9.8089e-05
0.000100276
9.72282e-05
9.86382e-05
9.86465e-05
0.000100257
0.000100699
0.000103082
9.91779e-05
9.91866e-05
0.000100929
0.000100893
0.000100754
0.000103025
9.91934e-05
9.9142e-05
0.000100915
0.000100878
9.92091e-05
0.000100895
0.000100904
0.00010074
0.000103023
9.92195e-05
0.000100951
0.000100916
0.000103064
0.000103559
0.000105629
0.000101495
0.000101499
0.000103233
0.000103062
0.000103494
0.000105596
0.00010147
0.000101412
0.000103245
0.000103228
0.000101446
0.000103085
0.000103218
0.000103524
0.000105631
0.000101457
0.000103213
0.00010321
0.000105617
0.000106097
0.000108241
0.000103772
0.00010366
0.00010563
0.000105665
0.000106043
0.000108315
0.000103791
0.000103821
0.000105655
0.000105607
0.000103787
0.00010574
0.000105624
0.000106081
0.00010823
0.000103773
0.000105566
0.000105588
0.000108237
0.000108716
0.000110788
0.000106349
0.000106316
0.000108024
0.00010803
0.000108795
0.000110781
0.000106373
0.000106246
0.000108018
0.000108119
0.000106272
0.000108074
0.000108141
0.000108677
0.00011086
0.000106231
0.000108145
0.000108159
0.000110868
0.000111203
0.000113653
0.000108577
0.000108654
0.000111026
0.000111276
0.000111235
0.000113829
0.000108567
0.000108836
0.000110975
0.000111148
0.000108772
0.000111142
0.000110962
0.000111393
0.000113796
0.000108841
0.000111263
0.000111006
0.000113644
0.000114331
0.000117278
0.000111981
0.000112114
0.000114991
0.000114523
0.000114441
0.000116899
0.000111922
0.000111803
0.000115008
0.00011459
0.000111797
0.000114571
0.000114989
0.000114308
0.000116909
0.000111818
0.000114651
0.00011498
0.000117187
0.000117791
0.000119201
0.000115957
0.000115265
0.000117117
0.000117458
0.000117373
0.00011945
0.000116004
0.000115671
0.000117168
0.00011735
0.000115876
0.000117529
0.000117199
0.000117481
0.000119395
0.000115859
0.000117225
0.000117171
0.000119188
0.000119416
0.000121807
0.000117316
0.000117874
0.000120053
0.00012041
0.000119877
0.000122256
0.000117372
0.00011781
0.000120074
0.000119969
0.000117512
0.000120477
0.000119892
0.000119708
0.000121753
0.000117538
0.000119933
0.000119731
0.000121712
0.000122664
0.000126484
0.000121324
0.000121841
0.000124974
0.000124464
0.00012298
0.000125748
0.000121185
0.000120965
0.000124513
0.000124578
0.000120986
0.000124245
0.000125195
0.000122445
0.000126672
0.000120902
0.00012498
0.000125273
0.000126949
0.000127161
0.00012922
0.000126237
0.000124909
0.000128939
0.000127397
0.000126161
0.000128508
0.000125967
0.00012609
0.000129487
0.000130279
0.000126839
0.00012806
0.000129903
0.000127629
0.000129883
0.000126936
0.000130384
0.000130623
0.000129454
0.000129291
0.000126283
0.000129218
0.00012867
0.000128197
0.000132866
0.000129161
0.000130757
0.000129823
0.000130416
0.000128609
0.000127917
0.000129864
0.000132446
0.000124953
0.000129734
0.000125214
0.000130238
0.000126829
0.000124304
0.000122926
0.0001249
0.000114586
0.000125941
0.000132886
0.000116047
0.000121663
0.000130263
0.000118024
0.000126197
0.000125264
0.000115385
0.000114341
0.000122331
0.000120271
0.000116686
0.00012372
0.000113625
0.000121213
0.000113995
0.000114974
0.000116912
0.000113334
0.000129166
0.00011363
0.000115323
0.000125597
0.000107154
0.000115174
0.000110609
0.000112854
0.000112067
0.000125512
0.000128125
0.000118281
0.000108502
0.000133325
0.000112565
0.000132977
0.000116838
0.000130781
0.000135391
0.000136562
0.000135347
0.000169838
0.000135255
0.000112947
0.000167818
0.000161505
0.000116459
0.000165367
0.000135971
0.000139257
0.000169561
0.000172357
0.000140244
0.0001618
0.000160004
0.000139523
0.000172568
0.000143091
0.00017157
0.000163419
0.000160403
0.000173529
0.000168249
0.000177453
0.000179931
0.000185321
0.000202082
0.00017349
0.000193759
0.000178321
0.000177488
0.000183962
0.000172959
0.000164845
0.000199131
0.000167761
0.000174006
0.000151589
0.00016689
0.000169697
0.000166059
0.000152994
0.000162635
0.000124927
0.000178755
0.000199955
0.000136533
0.000143866
0.000186984
0.000126315
0.000175688
0.000159984
0.000135221
0.000130754
0.000163567
0.000142712
0.000140136
0.000145672
0.000122979
0.000159116
0.000130432
0.000136855
0.000131163
0.000122035
0.000122084
0.000127127
0.000130087
0.000117977
0.000119193
0.000121454
0.00012216
0.000126817
0.000128161
0.000119377
0.000135519
0.000136281
0.000120394
0.00013669
0.000122459
0.00014467
0.000134145
0.000138875
0.000138835
0.000143005
0.000126624
0.000157554
0.000120306
0.000121576
0.000156116
0.000156907
0.000128259
0.000160229
0.000122875
0.000146117
0.000158507
0.000159337
0.000144125
0.000158923
0.000155541
0.000150226
0.000157122
0.000148415
0.000161111
0.000158549
0.000154942
0.000160285
0.00015864
0.000164586
0.000163424
0.000169511
0.000164269
0.000161712
0.000151728
0.000165168
0.00015748
0.000167122
0.000142897
0.000153799
0.000161419
0.000141972
0.000154145
0.000129118
0.000156554
0.000139747
0.000139742
0.000130282
0.000156252
0.000137075
0.000167045
0.000158244
0.000145326
0.000135912
0.00014804
0.000126606
0.000162762
0.000141435
0.000145036
0.00015706
0.000140425
0.000135271
0.000148819
0.000128105
0.000161388
0.000137925
0.000156737
0.000149241
0.000151894
0.000135858
0.000147048
0.000142314
0.000133944
0.000144913
0.000150222
0.000125556
0.000152351
0.000143306
0.000172412
0.000151337
0.000190686
0.00015674
0.000154699
0.000165319
0.000169961
0.000192537
0.000160198
0.000194699
0.000169645
0.00015975
0.000151204
0.000156526
0.000154748
0.000162451
0.000168565
0.000174713
0.000157463
0.000162692
0.000159636
0.000189442
0.000166754
0.000150549
0.000162732
0.000172521
0.000153194
0.000188101
0.000131963
0.000166791
0.000148649
0.00015197
0.000138055
0.000155471
0.00015646
0.000167692
0.000173573
0.00016683
0.000170965
0.000161473
0.000160965
0.000165011
0.000138183
0.000162452
0.000124152
0.000152321
0.000169544
0.000170932
0.000126166
0.000118353
0.000150688
0.000123816
0.000166236
0.000167935
0.000159654
0.000185536
0.00017035
0.000171935
0.000190841
0.000184151
0.0001633
0.000178645
0.000165302
0.000125418
0.000188841
0.000171178
0.000183787
0.000186305
0.000201181
0.000123259
0.000167726
0.000179268
0.000173906
0.000198824
0.000196256
0.000187143
0.000171367
0.000194288
0.000185801
0.000189089
0.000180119
0.000178856
0.000161037
0.000193509
0.000186952
0.000191803
0.00021667
0.000200842
0.000178555
0.000171323
0.000173899
0.00020092
0.000198794
0.00021487
0.000173456
0.000152161
0.000165725
0.000137351
0.000178343
0.000172687
0.000150659
0.000151569
0.000157148
0.000138479
0.000182313
0.00021925
0.000154718
0.000199857
0.000160733
0.000150916
0.000147974
0.000201586
0.000177117
0.000163594
0.000198169
0.000151869
0.000137078
0.000135773
0.000149822
0.000147194
0.000149099
0.000151288
0.00016026
0.000137263
0.000159261
0.000150913
0.000185715
0.00015163
0.000158799
0.000147567
0.000162499
0.000170987
0.000172018
0.000149451
0.000151569
0.000159941
0.000170856
0.000165406
0.000154959
0.000173287
0.000162493
0.000172932
0.00018593
0.000201725
0.000165386
0.000191666
0.000160044
0.00015554
0.000181275
0.00015512
0.000179634
0.000202721
0.000194169
0.000147976
0.000151102
0.000177548
0.00015637
0.000189351
0.000180556
0.000175199
0.000183563
0.000190387
0.000205374
0.000199835
0.000203876
0.000192779
0.00018278
0.000185995
0.000162916
0.000197488
0.000184268
0.000195269
0.000203155
0.000192498
0.000154827
0.000171396
0.000190567
0.000183504
0.000189897
0.000174299
0.000184248
0.000180868
0.000201123
0.000196487
0.000197113
0.000177753
0.000179372
0.000161239
0.000199703
0.00018868
0.000200231
0.000193403
0.000189186
0.000176411
0.000182292
0.000173288
0.000177342
0.000188043
0.000191643
0.000184155
0.000168443
0.000179136
0.000167218
0.000192381
0.000174165
0.000181035
0.000169862
0.000159832
0.00015795
0.000195914
0.000193429
0.000183314
0.000188249
0.000180987
0.000169388
0.000178701
0.000177179
0.000172193
0.000183351
0.000187955
0.000181409
0.000167246
0.000166176
0.000162519
0.000178415
0.000170166
0.00017462
0.000181582
0.00015927
0.00017022
0.000180242
0.000186104
0.000175466
0.000182681
0.000178472
0.000182767
0.00018185
0.000171588
0.000169317
0.000180838
0.000183248
0.000181411
0.000168782
0.000162765
0.000169356
0.000174598
0.000185013
0.000183011
0.000191542
0.000171914
0.000176854
0.000174868
0.000182189
0.000181523
0.000184712
0.000183622
0.000192072
0.000189254
0.000169232
0.000171959
0.000182784
0.000185612
0.000188265
0.000174319
0.000170522
0.000175741
0.000185535
0.000192586
0.000191405
0.000193255
0.000177112
0.000177271
0.000184309
0.00018591
0.000190858
0.000187959
0.000190618
0.000193486
0.000191862
0.000172302
0.000173101
0.000189722
0.000188334
0.00019139
0.000175828
0.000176623
0.000180095
0.000192996
0.000193062
0.000196405
0.000192936
0.000177032
0.000176679
0.000192647
0.000188832
0.000196439
0.000192754
0.00019161
0.000192473
0.000191281
0.000173335
0.000176553
0.0001913
0.000192069
0.000191324
0.000175493
0.000180268
0.000179847
0.00019699
0.000193575
0.000197027
0.000195227
0.000176797
0.000178311
0.000197082
0.000194133
0.000197249
0.000197035
0.000191667
0.000194667
0.000193967
0.0001772
0.000179755
0.000191752
0.000196527
0.000194205
0.000177688
0.000179543
0.000177654
0.000196666
0.000195376
0.000194922
0.00019601
0.000178362
0.00017921
0.000196926
0.000197474
0.000195184
0.000197489
0.000194914
0.000196506
0.000197502
0.000179932
0.000180271
0.000195207
0.000197963
0.000197792
0.000180299
0.000177344
0.000178367
0.000194569
0.000196468
0.00019538
0.000197515
0.000179365
0.000180164
0.000194786
0.000197246
0.000195176
0.000196487
0.000198153
0.000198066
0.000199127
0.000180058
0.000179283
0.000198361
0.00019712
0.00019898
0.000181098
0.000178828
0.000181572
0.000196418
0.000197573
0.000199409
0.000197808
0.000180042
0.000179956
0.000196219
0.000196512
0.000199369
0.000198362
0.000199056
0.000197719
0.000198338
0.000179177
0.000180605
0.000198849
0.000198248
0.00019826
0.0001804
0.000181944
0.000183157
0.000200274
0.000198248
0.000201735
0.000200433
0.000179966
0.000181947
0.000200308
0.000199278
0.000202003
0.000201351
0.000198152
0.000199999
0.000199222
0.000180965
0.000182574
0.000198241
0.000200943
0.000199485
0.000181171
0.000183035
0.000182497
0.000201805
0.000201167
0.000201534
0.000202849
0.000182293
0.000183829
0.000202036
0.00020158
0.00020149
0.000201677
0.00019996
0.000202832
0.000202297
0.000182577
0.000182809
0.000200133
0.000201698
0.000202154
0.000183404
0.000182293
0.000183194
0.000201549
0.000203188
0.000202457
0.000203177
0.000183877
0.000183976
0.000201336
0.000201839
0.000202329
0.000202695
0.00020297
0.000203612
0.000204219
0.000182773
0.000183642
0.000202789
0.000203147
0.000204121
0.000184534
0.000183448
0.000185419
0.000203032
0.000203042
0.000204963
0.00020339
0.000183762
0.000183775
0.000203006
0.000203003
0.000205102
0.000204344
0.00020419
0.000203196
0.000203503
0.000183687
0.000184598
0.00020414
0.000204168
0.000203597
0.000183847
0.000185566
0.00018601
0.000205519
0.000204035
0.000206168
0.000205966
0.000183925
0.000185808
0.000205673
0.000204914
0.000206262
0.000206322
0.00020339
0.000205686
0.000204876
0.000184748
0.000186019
0.000203512
0.000206075
0.000205014
0.000185044
0.000185778
0.000185071
0.000206074
0.000206379
0.00020565
0.000206815
0.000185922
0.000186437
0.00020616
0.000206491
0.000205636
0.00020636
0.000205688
0.000207148
0.000207631
0.000186002
0.000185944
0.000205747
0.000206625
0.000207573
0.000186985
0.000184958
0.000186275
0.000205647
0.000206736
0.000206877
0.000206484
0.000186259
0.00018581
0.000205618
0.000206182
0.000206845
0.000205746
0.000207861
0.000206803
0.000207628
0.000185738
0.000185219
0.000207807
0.000206123
0.00020758
0.000186454
0.000186392
0.000187185
0.000207304
0.000206548
0.000208225
0.000207852
0.000185674
0.000186856
0.000207278
0.000205723
0.000208078
0.000207209
0.00020713
0.000207475
0.000206547
0.000185016
0.000186106
0.000207068
0.000206745
0.000206429
0.00018557
0.000187186
0.00018812
0.000208472
0.000208452
0.000209453
0.00020996
0.000187122
0.000188613
0.000208339
0.000208121
0.000209615
0.000211382
0.000206757
0.000209995
0.000209898
0.000186629
0.000190113
0.000206655
0.000211427
0.000210092
0.000188824
0.000188114
0.000188238
0.000209789
0.000210165
0.000210077
0.000210116
0.000188576
0.000188123
0.000210047
0.000211968
0.000210443
0.000212061
0.000210648
0.000210407
0.000211199
0.000190294
0.000189693
0.000210921
0.000212333
0.000211528
0.000189164
0.000188003
0.000187267
0.000209962
0.000209757
0.000209357
0.000209058
0.000187845
0.000186999
0.000210333
0.000211123
0.000209295
0.000207989
0.00021093
0.000209066
0.000208768
0.000189178
0.00018577
0.000211204
0.000207948
0.000208647
0.000186504
0.000187163
0.000188816
0.000209357
0.00020908
0.000210702
0.000210751
0.000186936
0.000188928
0.000209193
0.000207479
0.000210052
0.000207735
0.000208445
0.000210408
0.000209096
0.000185422
0.000186525
0.000208222
0.000207503
0.000208635
0.000187688
0.000189053
0.000190345
0.000211349
0.000211462
0.000212697
0.000212961
0.000189185
0.00019073
0.00021089
0.000209084
0.00021277
0.000213214
0.000210383
0.000213226
0.000214263
0.000187187
0.000191023
0.000209959
0.000213489
0.000214347
0.000192004
0.000190243
0.000189754
0.000212919
0.000213182
0.00021294
0.000212836
0.000190656
0.000189623
0.000213061
0.000214077
0.00021327
0.000215046
0.00021485
0.00021324
0.000214269
0.000191278
0.000191721
0.000215016
0.000215409
0.000214538
0.000190582
0.000189508
0.000188357
0.000212461
0.000212176
0.000210996
0.000210762
0.000189203
0.000187581
0.00021282
0.000214719
0.000211354
0.000212013
0.000212349
0.000210346
0.000208256
0.000191299
0.000188572
0.000212634
0.000211608
0.000208551
0.000184908
0.000188143
0.000189024
0.000210832
0.0002107
0.000211616
0.000211682
0.000187496
0.000189711
0.000211133
0.000211423
0.000211512
0.000210287
0.000208199
0.000211708
0.000212616
0.00018833
0.000188092
0.0002085
0.000210277
0.000212586
0.000190792
0.000189334
0.000191277
0.000212816
0.000212575
0.00021439
0.000214423
0.000189914
0.000191267
0.000212335
0.000210196
0.000213702
0.000211037
0.000215011
0.000214988
0.000218229
0.000187946
0.000188239
0.000214705
0.000211607
0.000217499
0.000194949
0.000191114
0.000187945
0.000214316
0.000214553
0.000211864
0.000212493
0.00019113
0.000188834
0.000213666
0.000211951
0.000212399
0.000214408
0.000218287
0.000213592
0.000212157
0.00018837
0.000190553
0.000217553
0.000215023
0.000212791
0.000188308
0.000187787
0.000193063
0.00021171
0.000211672
0.000215492
0.000212338
0.000188174
0.000188142
0.000212676
0.000215391
0.000216168
0.000216378
0.000208321
0.000210313
0.000202743
0.000190916
0.000192612
0.000209747
0.00021418
0.000203683
0.000178677
0.000193848
0.000190829
0.000217042
0.000214259
0.000216349
0.000217371
0.000189052
0.000195659
0.000216689
0.000216005
0.000213857
0.00021234
0.000202993
0.00021783
0.000219657
0.000192097
0.000188199
0.000203559
0.000211761
0.000216231
0.000196119
0.000189028
0.000185637
0.000213088
0.000216934
0.000208791
0.000210662
0.000195495
0.000187165
0.00021141
0.00021283
0.000211233
0.000221108
0.0002272
0.000216256
0.000235937
0.000188379
0.000201405
0.000225037
0.000226416
0.000238139
0.000215779
0.000186336
0.000193704
0.000209513
0.000210458
0.000218658
0.000217308
0.000186433
0.000190457
0.000213116
0.000222326
0.000218704
0.000215217
0.000234121
0.000214601
0.000203889
0.000201976
0.000185483
0.000237437
0.000212541
0.00020471
0.000175345
0.000195
0.000217199
0.000216602
0.000192928
0.000215611
0.000206452
0.000239888
0.000229767
0.000220385
0.000196231
0.000181369
0.000195196
0.00023473
0.000234746
0.000234729
0.000234729
0.000235117
0.000234798
0.000234701
0.000234727
0.000235118
0.000234798
0.000234727
0.000234701
0.000234867
0.000233566
0.000233566
0.000104651
3.87411e-05
0.000129118
3.98249e-05
2.16834e-05
2.28313e-05
0.000104643
3.87371e-05
0.000129114
3.98214e-05
0.000233973
0.000233973
0.000233973
0.000232935
0.000232935
0.000232935
0.000232935
0.000206196
9.36752e-05
0.000233969
0.000231994
0.000222614
8.72226e-05
0.000233611
2.16823e-05
2.28307e-05
0.00020619
0.000233969
9.36747e-05
0.000231994
0.000222622
0.000233611
8.72283e-05
4.78012e-05
4.77894e-05
0.000231345
4.40185e-05
4.4009e-05
7.25677e-05
4.2434e-05
8.14027e-05
4.37634e-05
2.47749e-05
2.54634e-05
7.25581e-05
4.24305e-05
8.13974e-05
4.37596e-05
0.000232532
0.000232532
0.000232532