/*--------------------------------*- C++ -*----------------------------------*\
| =========                 |                                                 |
| \\      /  F ield         | OpenFOAM: The Open Source CFD Toolbox           |
|  \\    /   O peration     | Version:  v2012                                 |
|   \\  /    A nd           | Website:  www.openfoam.com                      |
|    \\/     M anipulation  |                                                 |
\*---------------------------------------------------------------------------*/
FoamFile
{
    version     2.0;
    format      ascii;
    class       volScalarField;
    location    "375";
    object      epsilon;
}
// * * * * * * * * * * * * * * * * * * * * * * * * * * * * * * * * * * * * * //

dimensions      [0 2 -3 0 0 0 0];


internalField   nonuniform List<scalar> 
85864
(
3.2688e-07
8.74445e-07
8.74544e-07
1.15961e-06
3.43031e-07
8.97953e-07
8.98111e-07
1.17902e-06
3.59434e-07
9.20468e-07
9.20566e-07
1.19757e-06
3.76009e-07
9.4193e-07
9.42036e-07
1.21501e-06
3.92641e-07
9.62397e-07
9.6251e-07
1.2317e-06
4.09274e-07
9.81857e-07
9.81961e-07
1.24754e-06
4.25803e-07
1.00031e-06
1.0004e-06
1.26251e-06
4.42186e-07
1.01775e-06
1.01786e-06
1.27669e-06
4.58326e-07
1.03425e-06
1.03434e-06
1.29013e-06
4.74157e-07
1.04974e-06
1.04985e-06
1.30276e-06
4.8965e-07
1.06436e-06
1.06444e-06
1.31476e-06
5.04711e-07
1.07799e-06
1.0781e-06
1.32592e-06
5.19309e-07
1.09081e-06
1.09088e-06
1.33654e-06
5.33457e-07
1.10272e-06
1.10282e-06
1.34638e-06
5.46971e-07
1.11376e-06
1.11384e-06
1.35565e-06
5.60063e-07
1.12413e-06
1.12422e-06
1.36428e-06
5.72376e-07
1.13351e-06
1.13358e-06
1.37227e-06
5.84292e-07
1.14235e-06
1.14244e-06
1.37978e-06
5.95357e-07
1.1503e-06
1.15035e-06
1.38651e-06
6.05973e-07
1.15754e-06
1.15765e-06
1.39302e-06
6.15878e-07
1.16433e-06
1.16436e-06
1.39855e-06
6.24973e-07
1.16988e-06
1.16999e-06
1.40394e-06
6.33975e-07
1.17586e-06
1.17591e-06
1.40884e-06
6.41264e-07
1.17949e-06
1.17955e-06
1.41241e-06
6.49531e-07
1.18499e-06
1.18506e-06
1.41743e-06
6.55064e-07
1.18668e-06
1.18675e-06
1.41883e-06
6.62382e-07
1.19183e-06
1.19189e-06
1.4241e-06
6.67128e-07
1.19249e-06
1.19254e-06
1.42433e-06
6.71815e-07
1.19525e-06
1.19534e-06
1.42755e-06
6.77073e-07
1.19652e-06
1.19657e-06
1.42894e-06
6.80606e-07
1.19795e-06
1.19802e-06
1.43085e-06
6.81953e-07
1.19443e-06
1.19447e-06
1.42694e-06
6.87569e-07
1.20107e-06
1.20116e-06
1.43409e-06
6.91891e-07
1.20324e-06
1.20333e-06
1.44374e-06
6.7407e-07
1.16069e-06
1.16066e-06
1.37612e-06
6.95552e-07
1.21456e-06
1.21459e-06
1.45206e-06
7.30577e-07
1.2605e-06
1.26062e-06
1.53358e-06
6.71031e-07
1.13464e-06
1.13471e-06
1.37256e-06
6.06232e-07
1.05081e-06
1.05085e-06
1.23877e-06
6.42372e-07
1.13479e-06
1.13486e-06
1.35298e-06
7.56473e-07
1.2824e-06
1.28245e-06
1.55143e-06
7.77817e-07
1.29721e-06
1.29727e-06
1.59152e-06
7.01325e-07
1.18461e-06
1.18468e-06
1.46055e-06
6.18912e-07
1.07858e-06
1.07864e-06
1.31336e-06
5.85987e-07
1.03689e-06
1.03695e-06
1.25712e-06
5.8402e-07
1.03511e-06
1.03517e-06
1.26473e-06
5.97912e-07
1.04745e-06
1.0475e-06
1.28736e-06
5.86472e-07
1.00112e-06
1.0011e-06
1.25583e-06
1.15959e-06
1.17347e-06
8.74617e-07
8.74633e-07
8.9232e-07
8.92341e-07
1.1595e-06
1.17337e-06
8.74499e-07
8.74677e-07
8.92204e-07
8.92458e-07
8.74653e-07
8.92157e-07
8.9238e-07
1.15957e-06
1.17358e-06
8.74525e-07
8.92331e-07
8.92261e-07
1.1735e-06
1.17895e-06
1.19209e-06
8.98093e-07
8.98132e-07
9.15058e-07
9.15111e-07
1.17887e-06
1.19206e-06
8.97982e-07
8.98234e-07
9.14936e-07
9.15155e-07
8.98195e-07
9.14944e-07
9.1523e-07
1.17907e-06
1.19216e-06
8.98076e-07
9.15046e-07
9.15109e-07
1.19228e-06
1.19739e-06
1.20986e-06
9.20592e-07
9.20634e-07
9.36814e-07
9.36827e-07
1.19735e-06
1.20976e-06
9.20477e-07
9.20675e-07
9.36692e-07
9.3687e-07
9.20751e-07
9.36658e-07
9.36884e-07
1.19744e-06
1.20988e-06
9.2063e-07
9.36759e-07
9.36765e-07
1.20992e-06
1.21497e-06
1.22671e-06
9.42088e-07
9.42099e-07
9.57514e-07
9.57534e-07
1.21487e-06
1.22663e-06
9.41974e-07
9.42148e-07
9.57397e-07
9.57591e-07
9.42148e-07
9.57371e-07
9.57593e-07
1.21498e-06
1.22675e-06
9.4203e-07
9.57486e-07
9.57479e-07
1.22678e-06
1.23163e-06
1.24271e-06
9.62533e-07
9.62557e-07
9.77223e-07
9.77248e-07
1.23155e-06
1.24264e-06
9.62422e-07
9.62613e-07
9.77104e-07
9.77293e-07
9.62628e-07
9.77093e-07
9.7732e-07
1.23166e-06
1.24275e-06
9.62514e-07
9.77196e-07
9.77206e-07
1.24281e-06
1.24745e-06
1.25786e-06
9.81989e-07
9.82012e-07
9.95907e-07
9.95931e-07
1.24738e-06
1.25779e-06
9.81877e-07
9.82058e-07
9.95791e-07
9.95972e-07
9.82084e-07
9.95782e-07
9.96004e-07
1.24748e-06
1.25789e-06
9.81972e-07
9.95882e-07
9.95893e-07
1.25795e-06
1.26243e-06
1.27223e-06
1.00043e-06
1.00045e-06
1.01362e-06
1.01363e-06
1.26236e-06
1.27215e-06
1.00032e-06
1.00049e-06
1.0135e-06
1.01368e-06
1.00053e-06
1.01348e-06
1.01369e-06
1.26246e-06
1.27226e-06
1.00042e-06
1.01359e-06
1.01358e-06
1.2723e-06
1.27663e-06
1.2858e-06
1.01788e-06
1.0179e-06
1.03033e-06
1.03036e-06
1.27655e-06
1.28573e-06
1.01777e-06
1.01795e-06
1.03021e-06
1.03039e-06
1.01796e-06
1.03022e-06
1.03043e-06
1.27665e-06
1.28583e-06
1.01785e-06
1.03031e-06
1.03032e-06
1.28589e-06
1.29004e-06
1.29863e-06
1.03436e-06
1.03439e-06
1.04608e-06
1.04609e-06
1.28998e-06
1.29854e-06
1.03425e-06
1.03442e-06
1.04597e-06
1.04614e-06
1.03446e-06
1.04594e-06
1.04614e-06
1.29007e-06
1.29865e-06
1.03436e-06
1.04606e-06
1.04603e-06
1.29868e-06
1.30271e-06
1.31071e-06
1.04986e-06
1.04988e-06
1.0609e-06
1.06094e-06
1.30262e-06
1.31066e-06
1.04976e-06
1.04993e-06
1.06078e-06
1.06095e-06
1.04994e-06
1.06081e-06
1.06101e-06
1.30273e-06
1.31074e-06
1.04983e-06
1.06088e-06
1.06091e-06
1.31081e-06
1.31465e-06
1.32211e-06
1.06447e-06
1.0645e-06
1.0748e-06
1.07479e-06
1.31461e-06
1.322e-06
1.06436e-06
1.06451e-06
1.07469e-06
1.07485e-06
1.06457e-06
1.07465e-06
1.07484e-06
1.31468e-06
1.32212e-06
1.06446e-06
1.07477e-06
1.07474e-06
1.32214e-06
1.32589e-06
1.33275e-06
1.07811e-06
1.07813e-06
1.08777e-06
1.08782e-06
1.32579e-06
1.33273e-06
1.07801e-06
1.07818e-06
1.08765e-06
1.08782e-06
1.07818e-06
1.0877e-06
1.08789e-06
1.32591e-06
1.33279e-06
1.07808e-06
1.08776e-06
1.08779e-06
1.33288e-06
1.33641e-06
1.34285e-06
1.0909e-06
1.09093e-06
1.09996e-06
1.09994e-06
1.3364e-06
1.34273e-06
1.09079e-06
1.09095e-06
1.09985e-06
1.1e-06
1.09101e-06
1.09981e-06
1.09999e-06
1.33645e-06
1.34286e-06
1.0909e-06
1.09992e-06
1.09989e-06
1.34286e-06
1.34637e-06
1.35213e-06
1.10285e-06
1.10286e-06
1.11116e-06
1.11122e-06
1.34626e-06
1.35212e-06
1.10274e-06
1.10289e-06
1.11105e-06
1.11121e-06
1.1029e-06
1.1111e-06
1.11128e-06
1.34638e-06
1.35216e-06
1.1028e-06
1.11115e-06
1.11118e-06
1.35226e-06
1.35551e-06
1.36097e-06
1.11384e-06
1.11388e-06
1.12173e-06
1.12172e-06
1.3555e-06
1.36086e-06
1.11374e-06
1.11391e-06
1.12163e-06
1.12179e-06
1.11396e-06
1.1216e-06
1.12178e-06
1.35555e-06
1.36101e-06
1.11386e-06
1.12172e-06
1.12168e-06
1.361e-06
1.36426e-06
1.36904e-06
1.12425e-06
1.12426e-06
1.13131e-06
1.13136e-06
1.36416e-06
1.36902e-06
1.12414e-06
1.12429e-06
1.13119e-06
1.13133e-06
1.1243e-06
1.13123e-06
1.1314e-06
1.36429e-06
1.36905e-06
1.1242e-06
1.13127e-06
1.1313e-06
1.36914e-06
1.37216e-06
1.37666e-06
1.13359e-06
1.13363e-06
1.14036e-06
1.14037e-06
1.37214e-06
1.37657e-06
1.13349e-06
1.13364e-06
1.14027e-06
1.14044e-06
1.13369e-06
1.14025e-06
1.14044e-06
1.37217e-06
1.37672e-06
1.1336e-06
1.14037e-06
1.14035e-06
1.37673e-06
1.37971e-06
1.38351e-06
1.14244e-06
1.14247e-06
1.14835e-06
1.14839e-06
1.37963e-06
1.38349e-06
1.14235e-06
1.14251e-06
1.14824e-06
1.14837e-06
1.14253e-06
1.14827e-06
1.14842e-06
1.37977e-06
1.38351e-06
1.14243e-06
1.1483e-06
1.14831e-06
1.38357e-06
1.38645e-06
1.39019e-06
1.15039e-06
1.15042e-06
1.15607e-06
1.15608e-06
1.38642e-06
1.39009e-06
1.15029e-06
1.15042e-06
1.15598e-06
1.15614e-06
1.15046e-06
1.15596e-06
1.15615e-06
1.38644e-06
1.39024e-06
1.15036e-06
1.15609e-06
1.15608e-06
1.39027e-06
1.39293e-06
1.39565e-06
1.15762e-06
1.15766e-06
1.16255e-06
1.16261e-06
1.39285e-06
1.39564e-06
1.15754e-06
1.1577e-06
1.16245e-06
1.1626e-06
1.15773e-06
1.1625e-06
1.16264e-06
1.39298e-06
1.39569e-06
1.15765e-06
1.16253e-06
1.16253e-06
1.39574e-06
1.39848e-06
1.40146e-06
1.1644e-06
1.16444e-06
1.16884e-06
1.16884e-06
1.39847e-06
1.40136e-06
1.16429e-06
1.16443e-06
1.16874e-06
1.16887e-06
1.16449e-06
1.16872e-06
1.16889e-06
1.3985e-06
1.40145e-06
1.16436e-06
1.16881e-06
1.1688e-06
1.40149e-06
1.4039e-06
1.40602e-06
1.17e-06
1.17001e-06
1.17444e-06
1.17448e-06
1.40381e-06
1.40599e-06
1.16991e-06
1.17006e-06
1.17434e-06
1.17451e-06
1.17005e-06
1.17438e-06
1.17455e-06
1.40391e-06
1.40609e-06
1.16997e-06
1.17446e-06
1.17446e-06
1.40613e-06
1.40872e-06
1.41016e-06
1.1759e-06
1.17596e-06
1.17861e-06
1.17863e-06
1.4087e-06
1.41011e-06
1.1758e-06
1.17596e-06
1.17851e-06
1.17864e-06
1.17604e-06
1.17852e-06
1.17867e-06
1.40878e-06
1.41016e-06
1.17594e-06
1.17856e-06
1.17856e-06
1.41022e-06
1.41238e-06
1.41478e-06
1.17961e-06
1.17961e-06
1.18398e-06
1.18401e-06
1.41232e-06
1.41472e-06
1.17951e-06
1.17964e-06
1.18388e-06
1.18404e-06
1.17962e-06
1.1839e-06
1.18406e-06
1.41238e-06
1.41482e-06
1.17952e-06
1.18398e-06
1.18397e-06
1.41483e-06
1.41732e-06
1.41686e-06
1.18502e-06
1.18509e-06
1.18619e-06
1.18625e-06
1.41729e-06
1.41685e-06
1.18494e-06
1.1851e-06
1.1861e-06
1.18626e-06
1.18517e-06
1.18615e-06
1.18633e-06
1.41738e-06
1.41692e-06
1.18508e-06
1.18622e-06
1.18624e-06
1.41701e-06
1.41876e-06
1.42142e-06
1.18679e-06
1.1868e-06
1.19076e-06
1.19076e-06
1.4187e-06
1.4213e-06
1.1867e-06
1.18683e-06
1.19066e-06
1.19079e-06
1.18683e-06
1.19062e-06
1.19075e-06
1.41878e-06
1.4214e-06
1.18675e-06
1.1907e-06
1.19066e-06
1.42137e-06
1.42407e-06
1.42259e-06
1.19189e-06
1.19194e-06
1.19255e-06
1.19266e-06
1.42402e-06
1.42268e-06
1.19179e-06
1.19195e-06
1.19247e-06
1.19264e-06
1.19198e-06
1.19257e-06
1.19276e-06
1.42409e-06
1.42271e-06
1.19189e-06
1.19262e-06
1.19266e-06
1.42287e-06
1.42407e-06
1.42485e-06
1.1925e-06
1.19258e-06
1.19423e-06
1.19416e-06
1.42415e-06
1.42464e-06
1.19241e-06
1.19257e-06
1.19414e-06
1.19423e-06
1.19267e-06
1.19402e-06
1.19414e-06
1.42418e-06
1.42478e-06
1.19258e-06
1.19412e-06
1.19407e-06
1.42472e-06
1.42771e-06
1.42728e-06
1.19544e-06
1.19539e-06
1.19666e-06
1.19674e-06
1.42749e-06
1.4274e-06
1.19534e-06
1.19544e-06
1.19658e-06
1.19673e-06
1.19538e-06
1.19663e-06
1.19679e-06
1.42762e-06
1.42741e-06
1.1953e-06
1.19668e-06
1.1967e-06
1.42755e-06
1.42866e-06
1.42813e-06
1.19652e-06
1.19662e-06
1.1974e-06
1.19741e-06
1.42878e-06
1.42806e-06
1.19644e-06
1.19661e-06
1.19731e-06
1.19745e-06
1.19668e-06
1.19731e-06
1.19746e-06
1.42879e-06
1.42816e-06
1.19659e-06
1.19737e-06
1.19737e-06
1.42817e-06
1.43085e-06
1.42599e-06
1.19806e-06
1.19806e-06
1.19631e-06
1.19634e-06
1.43074e-06
1.42594e-06
1.19796e-06
1.19809e-06
1.19621e-06
1.19633e-06
1.1981e-06
1.19622e-06
1.19638e-06
1.43085e-06
1.42598e-06
1.19801e-06
1.19626e-06
1.19628e-06
1.42608e-06
1.42685e-06
1.42733e-06
1.1945e-06
1.19455e-06
1.1958e-06
1.19584e-06
1.42681e-06
1.4273e-06
1.19441e-06
1.19453e-06
1.19572e-06
1.19586e-06
1.19458e-06
1.19573e-06
1.19584e-06
1.42684e-06
1.42735e-06
1.19449e-06
1.19578e-06
1.19576e-06
1.42734e-06
1.43413e-06
1.44513e-06
1.20117e-06
1.20118e-06
1.20752e-06
1.20755e-06
1.43407e-06
1.44506e-06
1.20109e-06
1.20125e-06
1.20745e-06
1.20763e-06
1.20118e-06
1.20745e-06
1.20761e-06
1.43416e-06
1.44525e-06
1.2011e-06
1.20755e-06
1.20753e-06
1.44527e-06
1.44358e-06
1.37682e-06
1.2033e-06
1.20334e-06
1.16536e-06
1.16543e-06
1.44352e-06
1.37686e-06
1.20322e-06
1.20339e-06
1.16526e-06
1.16539e-06
1.20343e-06
1.16535e-06
1.16548e-06
1.44369e-06
1.37682e-06
1.20334e-06
1.16534e-06
1.16539e-06
1.37695e-06
1.376e-06
1.42394e-06
1.16069e-06
1.16076e-06
1.18725e-06
1.1873e-06
1.37605e-06
1.42397e-06
1.16058e-06
1.16072e-06
1.18715e-06
1.18732e-06
1.16079e-06
1.18722e-06
1.18729e-06
1.376e-06
1.42396e-06
1.1607e-06
1.18721e-06
1.18719e-06
1.42394e-06
1.45208e-06
1.53198e-06
1.21464e-06
1.21468e-06
1.26182e-06
1.2618e-06
1.45209e-06
1.5318e-06
1.21454e-06
1.21473e-06
1.26173e-06
1.26191e-06
1.21468e-06
1.26165e-06
1.26185e-06
1.45211e-06
1.53202e-06
1.21458e-06
1.26178e-06
1.26175e-06
1.53199e-06
1.53358e-06
1.39477e-06
1.26067e-06
1.26064e-06
1.17531e-06
1.17531e-06
1.53339e-06
1.39467e-06
1.26058e-06
1.26076e-06
1.17524e-06
1.17539e-06
1.26069e-06
1.17524e-06
1.17538e-06
1.53361e-06
1.39484e-06
1.2606e-06
1.17533e-06
1.17533e-06
1.39483e-06
1.37244e-06
1.23978e-06
1.13464e-06
1.13467e-06
1.05546e-06
1.05553e-06
1.37239e-06
1.23988e-06
1.13459e-06
1.13473e-06
1.0554e-06
1.05555e-06
1.13474e-06
1.05551e-06
1.0556e-06
1.37251e-06
1.23989e-06
1.1347e-06
1.05554e-06
1.05557e-06
1.23997e-06
1.23857e-06
1.31578e-06
1.05077e-06
1.05085e-06
1.09531e-06
1.09536e-06
1.23868e-06
1.31576e-06
1.05071e-06
1.05086e-06
1.09519e-06
1.09539e-06
1.05091e-06
1.09522e-06
1.09541e-06
1.23868e-06
1.31584e-06
1.05088e-06
1.09528e-06
1.09531e-06
1.3159e-06
1.35289e-06
1.52509e-06
1.13493e-06
1.13497e-06
1.25746e-06
1.25748e-06
1.35285e-06
1.52499e-06
1.13481e-06
1.13502e-06
1.25733e-06
1.25754e-06
1.13502e-06
1.2573e-06
1.2575e-06
1.35294e-06
1.5251e-06
1.1349e-06
1.25736e-06
1.25737e-06
1.52511e-06
1.55144e-06
1.59236e-06
1.28257e-06
1.28259e-06
1.30337e-06
1.3034e-06
1.55134e-06
1.59227e-06
1.28244e-06
1.28264e-06
1.30325e-06
1.30345e-06
1.28261e-06
1.30324e-06
1.30341e-06
1.55144e-06
1.59238e-06
1.28248e-06
1.3033e-06
1.3033e-06
1.59238e-06
1.5915e-06
1.47381e-06
1.29732e-06
1.29735e-06
1.21759e-06
1.21764e-06
1.59143e-06
1.4738e-06
1.29722e-06
1.2974e-06
1.21753e-06
1.21769e-06
1.29737e-06
1.21755e-06
1.21768e-06
1.59152e-06
1.47389e-06
1.29727e-06
1.21761e-06
1.21762e-06
1.47392e-06
1.46041e-06
1.32018e-06
1.18462e-06
1.18466e-06
1.09828e-06
1.09831e-06
1.46041e-06
1.32016e-06
1.18456e-06
1.18472e-06
1.09821e-06
1.09837e-06
1.18471e-06
1.09825e-06
1.09836e-06
1.46047e-06
1.32027e-06
1.18466e-06
1.09831e-06
1.09831e-06
1.32031e-06
1.31324e-06
1.25678e-06
1.0786e-06
1.07863e-06
1.04202e-06
1.04206e-06
1.31322e-06
1.25674e-06
1.07854e-06
1.07869e-06
1.04195e-06
1.0421e-06
1.07868e-06
1.04197e-06
1.0421e-06
1.31331e-06
1.25683e-06
1.07863e-06
1.04202e-06
1.04203e-06
1.25686e-06
1.25704e-06
1.25866e-06
1.03695e-06
1.03699e-06
1.033e-06
1.03305e-06
1.257e-06
1.25862e-06
1.03688e-06
1.03703e-06
1.03292e-06
1.03308e-06
1.03703e-06
1.03292e-06
1.03308e-06
1.25709e-06
1.25871e-06
1.03696e-06
1.03299e-06
1.03299e-06
1.25873e-06
1.26467e-06
1.28276e-06
1.03519e-06
1.03524e-06
1.04539e-06
1.04545e-06
1.26463e-06
1.28273e-06
1.03511e-06
1.03528e-06
1.04531e-06
1.04547e-06
1.03527e-06
1.04531e-06
1.04547e-06
1.26471e-06
1.28282e-06
1.03518e-06
1.04537e-06
1.04538e-06
1.28284e-06
1.28729e-06
1.27614e-06
1.04753e-06
1.04758e-06
1.03115e-06
1.03118e-06
1.28727e-06
1.27613e-06
1.04744e-06
1.04761e-06
1.03111e-06
1.03115e-06
1.0476e-06
1.03115e-06
1.03119e-06
1.28735e-06
1.27616e-06
1.04751e-06
1.03114e-06
1.03116e-06
1.27618e-06
1.25578e-06
1.00108e-06
1.00111e-06
1.25579e-06
1.00107e-06
1.00107e-06
5.86497e-07
5.86468e-07
5.86505e-07
1.00112e-06
1.2558e-06
1.00111e-06
4.09712e-06
9.16437e-06
4.09451e-06
9.17124e-06
1.84338e-05
1.8444e-05
4.09753e-06
9.16647e-06
4.09442e-06
9.17334e-06
3.2686e-07
3.26934e-07
3.26934e-07
3.38971e-07
3.38951e-07
3.39079e-07
3.39022e-07
2.11723e-06
3.4787e-06
5.68267e-07
8.80403e-07
2.11153e-06
3.48206e-06
5.74152e-07
1.84346e-05
1.8445e-05
2.11727e-06
5.68342e-07
3.47871e-06
8.80545e-07
2.11157e-06
5.7425e-07
3.48226e-06
5.464e-06
5.46591e-06
1.16381e-06
5.46702e-06
5.46896e-06
4.10482e-06
9.18067e-06
4.10221e-06
9.18764e-06
1.84564e-05
1.84669e-05
4.10519e-06
9.18276e-06
4.10214e-06
9.18972e-06
3.43022e-07
3.43149e-07
3.43105e-07
3.55311e-07
3.55321e-07
3.5542e-07
3.55443e-07
2.13115e-06
3.48979e-06
5.91742e-07
9.03685e-07
2.12569e-06
3.49308e-06
5.97576e-07
1.8457e-05
1.84676e-05
2.13117e-06
5.91862e-07
3.4899e-06
9.03819e-07
2.12577e-06
5.97687e-07
3.49317e-06
5.47353e-06
5.47544e-06
1.18302e-06
5.4766e-06
5.47853e-06
4.11244e-06
9.19727e-06
4.10985e-06
9.20436e-06
1.84797e-05
1.84905e-05
4.11281e-06
9.19935e-06
4.10976e-06
9.20644e-06
3.59438e-07
3.59533e-07
3.59564e-07
3.71855e-07
3.71842e-07
3.71929e-07
3.7194e-07
2.1443e-06
3.50043e-06
6.14919e-07
9.25927e-07
2.13918e-06
3.50353e-06
6.20634e-07
1.84803e-05
1.84912e-05
2.14431e-06
6.15008e-07
3.50045e-06
9.26024e-07
2.1392e-06
6.20722e-07
3.50362e-06
5.48284e-06
5.48475e-06
1.20124e-06
5.48565e-06
5.48758e-06
4.11993e-06
9.21405e-06
4.1174e-06
9.22116e-06
1.85037e-05
1.85149e-05
4.12031e-06
9.21614e-06
4.11731e-06
9.22324e-06
3.75993e-07
3.76081e-07
3.76081e-07
3.88482e-07
3.88462e-07
3.88564e-07
3.88548e-07
2.15675e-06
3.51063e-06
6.37602e-07
9.47139e-07
2.15189e-06
3.51363e-06
6.43194e-07
1.85044e-05
1.85156e-05
2.15677e-06
6.37693e-07
3.51066e-06
9.4725e-07
2.15192e-06
6.43289e-07
3.51373e-06
5.49175e-06
5.49367e-06
1.21844e-06
5.49469e-06
5.49662e-06
4.1273e-06
9.23093e-06
4.12481e-06
9.23808e-06
1.85285e-05
1.85399e-05
4.12768e-06
9.23301e-06
4.12473e-06
9.24017e-06
3.92626e-07
3.92728e-07
3.92716e-07
4.05122e-07
4.05114e-07
4.0521e-07
4.0521e-07
2.16859e-06
3.52048e-06
6.59776e-07
9.67362e-07
2.16399e-06
3.52335e-06
6.65234e-07
1.85291e-05
1.85406e-05
2.1686e-06
6.59878e-07
3.52051e-06
9.6747e-07
2.16402e-06
6.65332e-07
3.52344e-06
5.50083e-06
5.50275e-06
1.2349e-06
5.50371e-06
5.50564e-06
4.13451e-06
9.24789e-06
4.1321e-06
9.25505e-06
1.85537e-05
1.85653e-05
4.13488e-06
9.24997e-06
4.132e-06
9.25714e-06
4.09264e-07
4.09363e-07
4.0936e-07
4.21679e-07
4.21673e-07
4.21772e-07
4.21776e-07
2.17975e-06
3.52992e-06
6.81344e-07
9.86557e-07
2.17544e-06
3.53263e-06
6.86619e-07
1.85544e-05
1.8566e-05
2.17976e-06
6.8144e-07
3.52993e-06
9.86662e-07
2.17546e-06
6.86718e-07
3.53271e-06
5.50967e-06
5.51158e-06
1.25048e-06
5.51246e-06
5.51439e-06
4.14158e-06
9.26488e-06
4.13921e-06
9.27207e-06
1.85795e-05
1.85912e-05
4.14195e-06
9.26692e-06
4.13912e-06
9.27409e-06
4.25799e-07
4.25894e-07
4.25901e-07
4.38117e-07
4.38098e-07
4.38202e-07
4.38193e-07
2.19031e-06
3.53895e-06
7.022e-07
1.00476e-06
2.18623e-06
3.54157e-06
7.07299e-07
1.85801e-05
1.85919e-05
2.19031e-06
7.02293e-07
3.53897e-06
1.00486e-06
2.18626e-06
7.07391e-07
3.54164e-06
5.51837e-06
5.52029e-06
1.26523e-06
5.5211e-06
5.52304e-06
4.14848e-06
9.2819e-06
4.1462e-06
9.28905e-06
1.86054e-05
1.86172e-05
4.14884e-06
9.28393e-06
4.14609e-06
9.29106e-06
4.42168e-07
4.42276e-07
4.42259e-07
4.54309e-07
4.54313e-07
4.54406e-07
4.54422e-07
2.20028e-06
3.54763e-06
7.22286e-07
1.02196e-06
2.19645e-06
3.55011e-06
7.27191e-07
1.86062e-05
1.86181e-05
2.20028e-06
7.22388e-07
3.54765e-06
1.02206e-06
2.19646e-06
7.2729e-07
3.55019e-06
5.52688e-06
5.5288e-06
1.27918e-06
5.52959e-06
5.53153e-06
4.15521e-06
9.29886e-06
4.15299e-06
9.30604e-06
1.86318e-05
1.86437e-05
4.15558e-06
9.30088e-06
4.15289e-06
9.30804e-06
4.58327e-07
4.58419e-07
4.58432e-07
4.70237e-07
4.7021e-07
4.70331e-07
4.70314e-07
2.20967e-06
3.55596e-06
7.41619e-07
1.03821e-06
2.20608e-06
3.55831e-06
7.46305e-07
1.86326e-05
1.86447e-05
2.20967e-06
7.41708e-07
3.55595e-06
1.0383e-06
2.2061e-06
7.464e-07
3.55838e-06
5.53531e-06
5.53724e-06
1.29239e-06
5.53792e-06
5.53987e-06
4.16178e-06
9.3158e-06
4.15964e-06
9.3229e-06
1.86584e-05
1.86705e-05
4.16214e-06
9.31781e-06
4.15953e-06
9.32489e-06
4.74139e-07
4.74258e-07
4.74236e-07
4.85807e-07
4.8582e-07
4.85906e-07
4.85936e-07
2.21851e-06
3.56387e-06
7.60049e-07
1.05349e-06
2.21512e-06
3.56616e-06
7.64542e-07
1.86593e-05
1.86714e-05
2.21851e-06
7.60154e-07
3.56392e-06
1.05358e-06
2.21515e-06
7.64637e-07
3.56624e-06
5.54343e-06
5.54535e-06
1.30482e-06
5.54608e-06
5.54802e-06
4.16819e-06
9.33267e-06
4.16613e-06
9.33976e-06
1.86854e-05
1.86973e-05
4.16856e-06
9.33468e-06
4.16602e-06
9.34175e-06
4.89652e-07
4.89742e-07
4.8976e-07
5.00995e-07
5.00965e-07
5.01091e-07
5.0107e-07
2.22684e-06
3.57159e-06
7.7767e-07
1.06785e-06
2.22371e-06
3.57368e-06
7.81908e-07
1.86861e-05
1.86983e-05
2.22682e-06
7.7775e-07
3.57155e-06
1.06794e-06
2.22372e-06
7.81998e-07
3.57375e-06
5.55164e-06
5.55357e-06
1.31659e-06
5.55405e-06
5.55599e-06
4.17438e-06
9.34934e-06
4.1724e-06
9.35632e-06
1.87122e-05
1.87244e-05
4.17474e-06
9.35134e-06
4.1723e-06
9.3583e-06
5.04693e-07
5.04814e-07
5.04793e-07
5.15693e-07
5.15712e-07
5.15798e-07
5.1583e-07
2.23463e-06
3.57874e-06
7.94301e-07
1.08128e-06
2.23166e-06
3.58083e-06
7.98333e-07
1.87131e-05
1.87253e-05
2.2346e-06
7.94405e-07
3.57882e-06
1.08137e-06
2.23172e-06
7.98426e-07
3.5809e-06
5.55929e-06
5.56121e-06
1.32757e-06
5.56187e-06
5.56382e-06
4.18046e-06
9.36598e-06
4.17854e-06
9.373e-06
1.87393e-05
1.87513e-05
4.18082e-06
9.36798e-06
4.17843e-06
9.37498e-06
5.19316e-07
5.19411e-07
5.19425e-07
5.29979e-07
5.29947e-07
5.30074e-07
5.30057e-07
2.24199e-06
3.58583e-06
8.10074e-07
1.09386e-06
2.23926e-06
3.58769e-06
8.13856e-07
1.87401e-05
1.87524e-05
2.24195e-06
8.10152e-07
3.58577e-06
1.09395e-06
2.2393e-06
8.13945e-07
3.58778e-06
5.56716e-06
5.56909e-06
1.33797e-06
5.56944e-06
5.57138e-06
4.18627e-06
9.38239e-06
4.18449e-06
9.38914e-06
1.87663e-05
1.87784e-05
4.18662e-06
9.38439e-06
4.18439e-06
9.39113e-06
5.33436e-07
5.33551e-07
5.33532e-07
5.43642e-07
5.43665e-07
5.43745e-07
5.4378e-07
2.24883e-06
3.59238e-06
8.24879e-07
1.10558e-06
2.24626e-06
3.59422e-06
8.28444e-07
1.87671e-05
1.87792e-05
2.24878e-06
8.24974e-07
3.59243e-06
1.10565e-06
2.24634e-06
8.28523e-07
3.59424e-06
5.57451e-06
5.57644e-06
1.34764e-06
5.5769e-06
5.57886e-06
4.19187e-06
9.39848e-06
4.19011e-06
9.40537e-06
1.87932e-05
1.88053e-05
4.19225e-06
9.40048e-06
4.19001e-06
9.40737e-06
5.46985e-07
5.47081e-07
5.47092e-07
5.5684e-07
5.56811e-07
5.56948e-07
5.56931e-07
2.25519e-06
3.59866e-06
8.3873e-07
1.1164e-06
2.25286e-06
3.60032e-06
8.42039e-07
1.87941e-05
1.88064e-05
2.25515e-06
8.38808e-07
3.59862e-06
1.11651e-06
2.2529e-06
8.42135e-07
3.60046e-06
5.58179e-06
5.58373e-06
1.35669e-06
5.58401e-06
5.58595e-06
4.19743e-06
9.41469e-06
4.19578e-06
9.42123e-06
1.88203e-05
1.88322e-05
4.19771e-06
9.41668e-06
4.19571e-06
9.42318e-06
5.60046e-07
5.60162e-07
5.60142e-07
5.69354e-07
5.69372e-07
5.69443e-07
5.69475e-07
2.26122e-06
3.60475e-06
8.5175e-07
1.12658e-06
2.25903e-06
3.60636e-06
8.54853e-07
1.88211e-05
1.88329e-05
2.26113e-06
8.51837e-07
3.60478e-06
1.12663e-06
2.25909e-06
8.54917e-07
3.60635e-06
5.58899e-06
5.5909e-06
1.36518e-06
5.59114e-06
5.59309e-06
4.20241e-06
9.43006e-06
4.20082e-06
9.43672e-06
1.88467e-05
1.88586e-05
4.2028e-06
9.43207e-06
4.20073e-06
9.43877e-06
5.7238e-07
5.72474e-07
5.72484e-07
5.81403e-07
5.81386e-07
5.81523e-07
5.81517e-07
2.26657e-06
3.61022e-06
8.63693e-07
1.13578e-06
2.26463e-06
3.6117e-06
8.66577e-07
1.88475e-05
1.88598e-05
2.26653e-06
8.63769e-07
3.61019e-06
1.13589e-06
2.26467e-06
8.6668e-07
3.61185e-06
5.59563e-06
5.59758e-06
1.37296e-06
5.59781e-06
5.59978e-06
4.20747e-06
9.44575e-06
4.20605e-06
9.45197e-06
1.88734e-05
1.88851e-05
4.2077e-06
9.44776e-06
4.20603e-06
9.4539e-06
5.84293e-07
5.84408e-07
5.84395e-07
5.92559e-07
5.9257e-07
5.92646e-07
5.92662e-07
2.27171e-06
3.61574e-06
8.74953e-07
1.14435e-06
2.26997e-06
3.61704e-06
8.77537e-07
1.88742e-05
1.88857e-05
2.27159e-06
8.75035e-07
3.61578e-06
1.14439e-06
2.27003e-06
8.7759e-07
3.61701e-06
5.60247e-06
5.60439e-06
1.38026e-06
5.60428e-06
5.60619e-06
4.2123e-06
9.46068e-06
4.21068e-06
9.46729e-06
1.88995e-05
1.89114e-05
4.21265e-06
9.46267e-06
4.21058e-06
9.46936e-06
5.95351e-07
5.95442e-07
5.9544e-07
6.03531e-07
6.03519e-07
6.03644e-07
6.03652e-07
2.27636e-06
3.62061e-06
8.85141e-07
1.15232e-06
2.27465e-06
3.62209e-06
8.87695e-07
1.89004e-05
1.89126e-05
2.27631e-06
8.85197e-07
3.62053e-06
1.15241e-06
2.27461e-06
8.87779e-07
3.62223e-06
5.60874e-06
5.61065e-06
1.38699e-06
5.61105e-06
5.61305e-06
4.21619e-06
9.47531e-06
4.21528e-06
9.48084e-06
1.89251e-05
1.89361e-05
4.2164e-06
9.47737e-06
4.21534e-06
9.48278e-06
6.05975e-07
6.06095e-07
6.06091e-07
6.1328e-07
6.13293e-07
6.13384e-07
6.13393e-07
2.28025e-06
3.62534e-06
8.94566e-07
1.15908e-06
2.27917e-06
3.62612e-06
8.96624e-07
1.89258e-05
1.89368e-05
2.28018e-06
8.94674e-07
3.62546e-06
1.15916e-06
2.2793e-06
8.96709e-07
3.62615e-06
5.61484e-06
5.61684e-06
1.393e-06
5.61613e-06
5.61806e-06
4.22123e-06
9.48996e-06
4.21944e-06
9.49661e-06
1.89513e-05
1.8963e-05
4.22149e-06
9.49191e-06
4.21936e-06
9.49864e-06
6.15889e-07
6.1597e-07
6.15975e-07
6.22925e-07
6.22914e-07
6.23013e-07
6.23023e-07
2.28454e-06
3.62982e-06
9.03246e-07
1.16604e-06
2.2829e-06
3.63133e-06
9.05429e-07
1.89523e-05
1.89638e-05
2.28439e-06
9.03268e-07
3.62965e-06
1.16608e-06
2.28279e-06
9.05458e-07
3.63137e-06
5.62124e-06
5.62305e-06
1.39886e-06
5.62351e-06
5.62546e-06
4.22405e-06
9.50333e-06
4.22346e-06
9.50863e-06
1.8975e-05
1.89863e-05
4.2243e-06
9.50542e-06
4.22354e-06
9.51064e-06
6.24954e-07
6.25072e-07
6.25051e-07
6.31698e-07
6.31704e-07
6.31817e-07
6.31823e-07
2.28717e-06
3.63353e-06
9.10749e-07
1.1712e-06
2.2866e-06
3.6341e-06
9.12468e-07
1.89758e-05
1.89876e-05
2.28719e-06
9.10851e-07
3.63364e-06
1.17131e-06
2.28669e-06
9.12578e-07
3.6342e-06
5.62578e-06
5.62781e-06
1.40357e-06
5.6273e-06
5.62927e-06
4.22873e-06
9.51794e-06
4.22745e-06
9.52308e-06
1.90016e-05
1.90109e-05
4.2289e-06
9.5199e-06
4.22746e-06
9.5251e-06
6.34001e-07
6.34094e-07
6.34115e-07
6.39505e-07
6.39512e-07
6.39596e-07
6.39615e-07
2.29095e-06
3.63817e-06
9.18283e-07
1.17698e-06
2.28979e-06
3.63888e-06
9.1989e-07
1.90022e-05
1.90114e-05
2.29083e-06
9.1834e-07
3.63814e-06
1.17702e-06
2.28977e-06
9.19929e-07
3.6389e-06
5.63324e-06
5.63515e-06
1.40872e-06
5.63385e-06
5.63576e-06
4.23087e-06
9.52899e-06
4.22972e-06
9.53621e-06
1.9023e-05
1.90372e-05
4.23121e-06
9.53099e-06
4.22973e-06
9.53806e-06
6.41245e-07
6.41344e-07
6.41319e-07
6.47542e-07
6.47538e-07
6.47643e-07
6.47638e-07
2.29246e-06
3.63973e-06
9.23615e-07
1.18083e-06
2.29182e-06
3.64122e-06
9.25193e-07
1.90242e-05
1.90384e-05
2.2924e-06
9.23664e-07
3.63966e-06
1.1809e-06
2.29177e-06
9.25256e-07
3.64126e-06
5.63515e-06
5.63705e-06
1.41198e-06
5.63907e-06
5.64107e-06
4.23486e-06
9.54419e-06
4.2349e-06
9.54672e-06
1.90488e-05
1.90553e-05
4.23503e-06
9.54623e-06
4.235e-06
9.5489e-06
6.49558e-07
6.49653e-07
6.4967e-07
6.5378e-07
6.53804e-07
6.53899e-07
6.53936e-07
2.29578e-06
3.64542e-06
9.30399e-07
1.1856e-06
2.2955e-06
3.64476e-06
9.31488e-07
1.90494e-05
1.90561e-05
2.29576e-06
9.30468e-07
3.64544e-06
1.18566e-06
2.29551e-06
9.31551e-07
3.64482e-06
5.64364e-06
5.6456e-06
1.41669e-06
5.64259e-06
5.64454e-06
4.23634e-06
9.55264e-06
4.23448e-06
9.56183e-06
1.90687e-05
1.90853e-05
4.23658e-06
9.5546e-06
4.2346e-06
9.56346e-06
6.55052e-07
6.55156e-07
6.55148e-07
6.60441e-07
6.60404e-07
6.60511e-07
6.60479e-07
2.29586e-06
3.64448e-06
9.33567e-07
1.18768e-06
2.29517e-06
3.64665e-06
9.34722e-07
1.907e-05
1.90865e-05
2.29582e-06
9.33629e-07
3.64447e-06
1.18776e-06
2.29515e-06
9.34788e-07
3.64672e-06
5.64326e-06
5.64519e-06
1.41829e-06
5.64907e-06
5.65106e-06
4.24126e-06
9.56966e-06
4.24151e-06
9.57038e-06
1.9096e-05
1.90997e-05
4.24146e-06
9.57176e-06
4.24158e-06
9.57265e-06
6.62385e-07
6.62478e-07
6.62467e-07
6.66325e-07
6.66402e-07
6.66472e-07
6.66535e-07
2.29978e-06
3.65218e-06
9.39541e-07
1.19246e-06
2.29969e-06
3.65113e-06
9.40619e-07
1.90964e-05
1.91002e-05
2.29973e-06
9.39595e-07
3.65217e-06
1.1925e-06
2.29966e-06
9.40664e-07
3.65118e-06
5.65504e-06
5.65698e-06
1.42344e-06
5.65266e-06
5.65459e-06
4.23827e-06
9.57224e-06
4.23813e-06
9.58127e-06
1.91081e-05
1.91264e-05
4.23847e-06
9.57425e-06
4.23825e-06
9.58296e-06
6.67194e-07
6.67267e-07
6.67316e-07
6.70271e-07
6.70234e-07
6.70341e-07
6.70326e-07
2.29688e-06
3.64795e-06
9.41635e-07
1.19253e-06
2.29759e-06
3.64846e-06
9.41998e-07
1.91093e-05
1.91279e-05
2.29685e-06
9.4168e-07
3.64792e-06
1.19259e-06
2.29757e-06
9.42054e-07
3.64854e-06
5.64863e-06
5.65055e-06
1.42224e-06
5.65312e-06
5.65514e-06
4.24781e-06
9.59486e-06
4.24654e-06
9.59625e-06
1.9144e-05
1.91467e-05
4.24796e-06
9.59686e-06
4.24658e-06
9.59842e-06
6.71752e-07
6.71869e-07
6.71824e-07
6.76137e-07
6.76149e-07
6.76242e-07
6.76241e-07
2.30258e-06
3.65709e-06
9.44978e-07
1.19618e-06
2.30131e-06
3.65716e-06
9.46191e-07
1.91446e-05
1.91472e-05
2.30253e-06
9.45052e-07
3.65716e-06
1.19627e-06
2.30132e-06
9.46261e-07
3.65728e-06
5.66565e-06
5.66756e-06
1.4275e-06
5.66463e-06
5.66657e-06
4.24215e-06
9.59296e-06
4.24353e-06
9.59912e-06
1.91474e-05
1.91649e-05
4.24235e-06
9.59515e-06
4.24358e-06
9.60104e-06
6.77107e-07
6.77192e-07
6.77202e-07
6.79647e-07
6.79669e-07
6.79757e-07
6.79779e-07
2.29871e-06
3.65252e-06
9.47607e-07
1.19647e-06
2.30013e-06
3.65163e-06
9.47721e-07
1.91481e-05
1.91661e-05
2.29868e-06
9.47651e-07
3.6524e-06
1.19652e-06
2.30011e-06
9.47765e-07
3.65162e-06
5.65569e-06
5.65766e-06
1.42634e-06
5.65767e-06
5.65967e-06
4.25203e-06
9.61717e-06
4.25048e-06
9.61811e-06
1.91892e-05
1.91876e-05
4.25226e-06
9.6191e-06
4.25064e-06
9.62008e-06
6.80621e-07
6.80708e-07
6.80728e-07
6.81915e-07
6.81921e-07
6.81994e-07
6.82012e-07
2.30344e-06
3.66186e-06
9.49427e-07
1.19807e-06
2.30256e-06
3.66219e-06
9.49815e-07
1.91901e-05
1.91884e-05
2.30338e-06
9.4948e-07
3.66193e-06
1.19814e-06
2.30252e-06
9.49865e-07
3.66238e-06
5.67711e-06
5.67901e-06
1.43019e-06
5.6768e-06
5.67871e-06
4.22903e-06
9.59604e-06
4.23584e-06
9.59817e-06
1.91634e-05
1.9187e-05
4.22906e-06
9.59803e-06
4.23571e-06
9.60017e-06
6.81956e-07
6.8203e-07
6.82041e-07
6.84592e-07
6.84565e-07
6.84678e-07
6.84633e-07
2.28799e-06
3.6443e-06
9.48446e-07
1.19369e-06
2.29347e-06
3.63793e-06
9.47824e-07
1.91637e-05
1.91879e-05
2.28792e-06
9.48481e-07
3.64417e-06
1.19372e-06
2.29343e-06
9.47862e-07
3.63785e-06
5.6445e-06
5.6464e-06
1.42187e-06
5.63919e-06
5.64112e-06
4.29267e-06
9.66975e-06
4.26209e-06
9.69864e-06
1.92851e-05
1.93057e-05
4.29327e-06
9.67197e-06
4.26243e-06
9.70089e-06
6.87551e-07
6.87666e-07
6.8763e-07
6.9253e-07
6.9254e-07
6.92643e-07
6.92641e-07
2.32569e-06
3.67362e-06
9.51832e-07
1.2058e-06
2.30571e-06
3.70042e-06
9.55633e-07
1.92868e-05
1.93075e-05
2.32572e-06
9.51901e-07
3.67353e-06
1.2059e-06
2.30568e-06
9.55707e-07
3.70066e-06
5.70488e-06
5.70684e-06
1.44301e-06
5.74041e-06
5.74247e-06
4.1981e-06
9.62151e-06
4.278e-06
9.51896e-06