/*--------------------------------*- C++ -*----------------------------------*\
| =========                 |                                                 |
| \\      /  F ield         | OpenFOAM: The Open Source CFD Toolbox           |
|  \\    /   O peration     | Version:  v2012                                 |
|   \\  /    A nd           | Website:  www.openfoam.com                      |
|    \\/     M anipulation  |                                                 |
\*---------------------------------------------------------------------------*/
FoamFile
{
    version     2.0;
    format      ascii;
    class       volScalarField;
    location    "375";
    object      k;
}
// * * * * * * * * * * * * * * * * * * * * * * * * * * * * * * * * * * * * * //

dimensions      [0 2 -2 0 0 0 0];


internalField   nonuniform List<scalar> 
85864
(
2.12006e-05
3.69025e-05
3.68996e-05
4.21297e-05
2.19649e-05
3.7807e-05
3.78139e-05
4.2847e-05
2.27446e-05
3.86905e-05
3.86931e-05
4.35535e-05
2.3541e-05
3.95427e-05
3.95443e-05
4.42221e-05
2.43482e-05
4.03677e-05
4.03706e-05
4.48705e-05
2.51611e-05
4.11669e-05
4.11689e-05
4.5499e-05
2.59749e-05
4.19342e-05
4.19363e-05
4.60999e-05
2.6791e-05
4.26734e-05
4.26758e-05
4.66783e-05
2.75987e-05
4.33857e-05
4.33863e-05
4.72352e-05
2.84026e-05
4.40636e-05
4.40673e-05
4.77663e-05
2.91931e-05
4.47213e-05
4.47206e-05
4.82803e-05
2.99747e-05
4.53413e-05
4.53455e-05
4.8765e-05
3.07345e-05
4.59409e-05
4.59396e-05
4.92357e-05
3.14853e-05
4.65077e-05
4.65122e-05
4.96783e-05
3.22096e-05
4.70498e-05
4.70476e-05
5.0105e-05
3.29159e-05
4.75644e-05
4.75696e-05
5.05069e-05
3.35984e-05
4.80488e-05
4.80455e-05
5.08904e-05
3.42667e-05
4.85199e-05
4.85257e-05
5.12586e-05
3.48769e-05
4.89356e-05
4.89319e-05
5.15861e-05
3.55286e-05
4.93748e-05
4.93795e-05
5.19382e-05
3.60582e-05
4.97278e-05
4.97265e-05
5.22029e-05
3.66605e-05
5.01073e-05
5.01076e-05
5.25234e-05
3.71658e-05
5.04569e-05
5.04599e-05
5.27713e-05
3.76591e-05
5.07113e-05
5.07094e-05
5.30075e-05
3.81499e-05
5.10895e-05
5.10911e-05
5.32856e-05
3.85909e-05
5.12789e-05
5.12785e-05
5.34404e-05
3.89551e-05
5.1564e-05
5.15664e-05
5.36791e-05
3.95022e-05
5.18289e-05
5.18271e-05
5.38744e-05
3.96057e-05
5.18502e-05
5.18507e-05
5.39029e-05
4.01722e-05
5.22361e-05
5.22364e-05
5.42157e-05
4.0398e-05
5.22972e-05
5.22965e-05
5.42293e-05
4.06842e-05
5.24459e-05
5.24466e-05
5.44421e-05
4.07358e-05
5.23216e-05
5.232e-05
5.40337e-05
4.16461e-05
5.34463e-05
5.34499e-05
5.57083e-05
4.10966e-05
5.15904e-05
5.15894e-05
5.30684e-05
4.01271e-05
5.08774e-05
5.08719e-05
5.23507e-05
4.43865e-05
5.7263e-05
5.72666e-05
5.98141e-05
4.58821e-05
5.68937e-05
5.68992e-05
5.79568e-05
3.80808e-05
4.61957e-05
4.6194e-05
4.71953e-05
3.44025e-05
4.46327e-05
4.46315e-05
4.67985e-05
4.14636e-05
5.53765e-05
5.53774e-05
5.76666e-05
5.07154e-05
6.16765e-05
6.1676e-05
6.3739e-05
5.14797e-05
6.05042e-05
6.05034e-05
6.13322e-05
4.31224e-05
5.15201e-05
5.15207e-05
5.30249e-05
3.70279e-05
4.70872e-05
4.70877e-05
4.90052e-05
3.55383e-05
4.64953e-05
4.64957e-05
4.88181e-05
3.70525e-05
4.79708e-05
4.79705e-05
5.03107e-05
3.83578e-05
4.76759e-05
4.76748e-05
5.06097e-05
4.21278e-05
4.26887e-05
3.69039e-05
3.6904e-05
3.75867e-05
3.75844e-05
4.21269e-05
4.26847e-05
3.69017e-05
3.68996e-05
3.7585e-05
3.75888e-05
3.69071e-05
3.75825e-05
3.75845e-05
4.21227e-05
4.26907e-05
3.69046e-05
3.75885e-05
3.75828e-05
4.26851e-05
4.28498e-05
4.3389e-05
3.78103e-05
3.78088e-05
3.84715e-05
3.84737e-05
4.28462e-05
4.33905e-05
3.7809e-05
3.78141e-05
3.84698e-05
3.84756e-05
3.78093e-05
3.84726e-05
3.84792e-05
4.28534e-05
4.33925e-05
3.78077e-05
3.84762e-05
3.84775e-05
4.33962e-05
4.35449e-05
4.40695e-05
3.86892e-05
3.86913e-05
3.9333e-05
3.9333e-05
4.35467e-05
4.40679e-05
3.86876e-05
3.86924e-05
3.93311e-05
3.9333e-05
3.86983e-05
3.93321e-05
3.93381e-05
4.35478e-05
4.40687e-05
3.86966e-05
3.93337e-05
3.93363e-05
4.4073e-05
4.42204e-05
4.47248e-05
3.95442e-05
3.95438e-05
4.01661e-05
4.01653e-05
4.42184e-05
4.47229e-05
3.95425e-05
3.95437e-05
4.01645e-05
4.01661e-05
3.95474e-05
4.01639e-05
4.01671e-05
4.42192e-05
4.47246e-05
3.95456e-05
4.01666e-05
4.01656e-05
4.47249e-05
4.487e-05
4.53557e-05
4.03695e-05
4.0369e-05
4.09706e-05
4.0971e-05
4.48684e-05
4.5355e-05
4.03682e-05
4.03701e-05
4.0969e-05
4.09714e-05
4.03713e-05
4.09702e-05
4.09743e-05
4.487e-05
4.53565e-05
4.03699e-05
4.09723e-05
4.09728e-05
4.53588e-05
4.54959e-05
4.59626e-05
4.11675e-05
4.11678e-05
4.17452e-05
4.17453e-05
4.54954e-05
4.59615e-05
4.1166e-05
4.1168e-05
4.17437e-05
4.17459e-05
4.11709e-05
4.17445e-05
4.17487e-05
4.54966e-05
4.59628e-05
4.11695e-05
4.1747e-05
4.17475e-05
4.59649e-05
4.60974e-05
4.65473e-05
4.19344e-05
4.19348e-05
4.24931e-05
4.24928e-05
4.60964e-05
4.65463e-05
4.19331e-05
4.19351e-05
4.24916e-05
4.24928e-05
4.19386e-05
4.2492e-05
4.24952e-05
4.60977e-05
4.6547e-05
4.19374e-05
4.24938e-05
4.2494e-05
4.6549e-05
4.66773e-05
4.71071e-05
4.26751e-05
4.26743e-05
4.3209e-05
4.32101e-05
4.66761e-05
4.71067e-05
4.26739e-05
4.26749e-05
4.32076e-05
4.32097e-05
4.26763e-05
4.32097e-05
4.32129e-05
4.66768e-05
4.71077e-05
4.26752e-05
4.32112e-05
4.32118e-05
4.71096e-05
4.72319e-05
4.76463e-05
4.33842e-05
4.33859e-05
4.3899e-05
4.38978e-05
4.72321e-05
4.76445e-05
4.3383e-05
4.33847e-05
4.3898e-05
4.38987e-05
4.33894e-05
4.38971e-05
4.39002e-05
4.72324e-05
4.76458e-05
4.33882e-05
4.38998e-05
4.38994e-05
4.76475e-05
4.77663e-05
4.816e-05
4.40662e-05
4.40644e-05
4.45572e-05
4.45596e-05
4.77638e-05
4.8161e-05
4.40654e-05
4.40663e-05
4.45558e-05
4.45581e-05
4.40663e-05
4.45595e-05
4.45625e-05
4.77657e-05
4.81612e-05
4.40656e-05
4.456e-05
4.45615e-05
4.81637e-05
4.82753e-05
4.86566e-05
4.47183e-05
4.47212e-05
4.51917e-05
4.51894e-05
4.82774e-05
4.86535e-05
4.47171e-05
4.47185e-05
4.51907e-05
4.51907e-05
4.47248e-05
4.51889e-05
4.51914e-05
4.82764e-05
4.8655e-05
4.47237e-05
4.51919e-05
4.51906e-05
4.86561e-05
4.8767e-05
4.91232e-05
4.53446e-05
4.53419e-05
4.57904e-05
4.57937e-05
4.87629e-05
4.91257e-05
4.5344e-05
4.53445e-05
4.57891e-05
4.57914e-05
4.53436e-05
4.57938e-05
4.57966e-05
4.87656e-05
4.91251e-05
4.53429e-05
4.57935e-05
4.57958e-05
4.91285e-05
4.92289e-05
4.95789e-05
4.59369e-05
4.59405e-05
4.63705e-05
4.6368e-05
4.92326e-05
4.95752e-05
4.59357e-05
4.59373e-05
4.63698e-05
4.63703e-05
4.59441e-05
4.63679e-05
4.63704e-05
4.92306e-05
4.95778e-05
4.59432e-05
4.63718e-05
4.63697e-05
4.95778e-05
4.96812e-05
5.00035e-05
4.65111e-05
4.65081e-05
4.69158e-05
4.69188e-05
4.96763e-05
5.00061e-05
4.65107e-05
4.65111e-05
4.69143e-05
4.69147e-05
4.65098e-05
4.6919e-05
4.69207e-05
4.968e-05
5.00034e-05
4.65093e-05
4.6917e-05
4.692e-05
5.0008e-05
5.00987e-05
5.04126e-05
4.70457e-05
4.70493e-05
4.74358e-05
4.74341e-05
5.01026e-05
5.04098e-05
4.70444e-05
4.7045e-05
4.74358e-05
4.74379e-05
4.70521e-05
4.74344e-05
4.74376e-05
5.00988e-05
5.04141e-05
4.70513e-05
4.74396e-05
4.74373e-05
5.04132e-05
5.05078e-05
5.0802e-05
4.75666e-05
4.75642e-05
4.79322e-05
4.79346e-05
5.0504e-05
5.08037e-05
4.75666e-05
4.75681e-05
4.79303e-05
4.79294e-05
4.75671e-05
4.79348e-05
4.7935e-05
5.05091e-05
5.07998e-05
4.75668e-05
4.79316e-05
4.79337e-05
5.08041e-05
5.08871e-05
5.11689e-05
4.80456e-05
4.80484e-05
4.84028e-05
4.84013e-05
5.08899e-05
5.11665e-05
4.8044e-05
4.80431e-05
4.84032e-05
4.84049e-05
4.80494e-05
4.84017e-05
4.84058e-05
5.08849e-05
5.11709e-05
4.80483e-05
4.84074e-05
4.84066e-05
5.11713e-05
5.12568e-05
5.15076e-05
4.85209e-05
4.85194e-05
4.88276e-05
4.88306e-05
5.12537e-05
5.15103e-05
4.85215e-05
4.85233e-05
4.8826e-05
4.88265e-05
4.85238e-05
4.88314e-05
4.88308e-05
5.12591e-05
5.15067e-05
4.85245e-05
4.88281e-05
4.88289e-05
5.15095e-05
5.15844e-05
5.18594e-05
4.89325e-05
4.8935e-05
4.92804e-05
4.92784e-05
5.15878e-05
5.1856e-05
4.89309e-05
4.89306e-05
4.92803e-05
4.92795e-05
4.8935e-05
4.92788e-05
4.92817e-05
5.15829e-05
5.18589e-05
4.89327e-05
4.92825e-05
4.92825e-05
5.18601e-05
5.19366e-05
5.21274e-05
4.93757e-05
4.93743e-05
4.96179e-05
4.96203e-05
5.19332e-05
5.21299e-05
4.93761e-05
4.93759e-05
4.96174e-05
4.96197e-05
4.93782e-05
4.96212e-05
4.96222e-05
5.1937e-05
5.21294e-05
4.93799e-05
4.96218e-05
4.96218e-05
5.21315e-05
5.21992e-05
5.2463e-05
4.97243e-05
4.97267e-05
5.00424e-05
5.00424e-05
5.22027e-05
5.24614e-05
4.97234e-05
4.97251e-05
5.00413e-05
5.00392e-05
4.97283e-05
5.00435e-05
5.00449e-05
5.22007e-05
5.24605e-05
4.97266e-05
5.00419e-05
5.00434e-05
5.24632e-05
5.25236e-05
5.26909e-05
5.01075e-05
5.01067e-05
5.03393e-05
5.03387e-05
5.25214e-05
5.269e-05
5.01071e-05
5.01048e-05
5.03398e-05
5.03414e-05
5.01087e-05
5.0339e-05
5.03394e-05
5.25212e-05
5.26926e-05
5.01083e-05
5.03431e-05
5.0341e-05
5.26917e-05
5.27689e-05
5.29647e-05
5.04552e-05
5.04561e-05
5.06759e-05
5.0679e-05
5.27693e-05
5.29669e-05
5.04555e-05
5.04574e-05
5.06748e-05
5.06746e-05
5.04584e-05
5.06813e-05
5.06841e-05
5.27717e-05
5.29642e-05
5.04594e-05
5.06793e-05
5.06828e-05
5.29697e-05
5.30042e-05
5.31975e-05
5.07083e-05
5.07096e-05
5.09712e-05
5.0968e-05
5.30055e-05
5.31938e-05
5.07074e-05
5.07065e-05
5.09709e-05
5.09697e-05
5.07126e-05
5.09674e-05
5.09657e-05
5.30029e-05
5.3196e-05
5.07113e-05
5.09691e-05
5.09658e-05
5.31924e-05
5.3288e-05
5.3411e-05
5.10906e-05
5.10894e-05
5.12602e-05
5.12668e-05
5.32858e-05
5.34161e-05
5.10905e-05
5.10901e-05
5.12605e-05
5.12627e-05
5.10892e-05
5.12702e-05
5.12743e-05
5.32875e-05
5.34143e-05
5.10893e-05
5.12699e-05
5.12744e-05
5.34213e-05
5.34301e-05
5.35861e-05
5.12692e-05
5.12754e-05
5.14308e-05
5.14191e-05
5.34352e-05
5.35756e-05
5.12695e-05
5.12715e-05
5.14297e-05
5.14246e-05
5.1283e-05
5.14163e-05
5.14124e-05
5.34333e-05
5.35791e-05
5.1283e-05
5.14196e-05
5.14129e-05
5.35721e-05
5.36913e-05
5.38487e-05
5.15735e-05
5.15661e-05
5.18099e-05
5.18154e-05
5.36827e-05
5.38559e-05
5.15726e-05
5.1569e-05
5.181e-05
5.18119e-05
5.1561e-05
5.18182e-05
5.182e-05
5.36854e-05
5.38528e-05
5.15612e-05
5.18169e-05
5.18196e-05
5.38594e-05
5.38619e-05
5.38365e-05
5.18185e-05
5.18254e-05
5.18183e-05
5.18233e-05
5.38703e-05
5.38341e-05
5.18188e-05
5.18213e-05
5.18184e-05
5.18202e-05
5.18314e-05
5.18267e-05
5.18291e-05
5.38668e-05
5.38346e-05
5.1831e-05
5.18255e-05
5.18288e-05
5.3836e-05
5.39118e-05
5.41922e-05
5.1849e-05
5.18484e-05
5.21926e-05
5.21895e-05
5.39031e-05
5.41905e-05
5.18488e-05
5.18477e-05
5.21926e-05
5.219e-05
5.18513e-05
5.21891e-05
5.21884e-05
5.39059e-05
5.41907e-05
5.18514e-05
5.2191e-05
5.21886e-05
5.41909e-05
5.42129e-05
5.41615e-05
5.22336e-05
5.2235e-05
5.22581e-05
5.22631e-05
5.42144e-05
5.41688e-05
5.22339e-05
5.22335e-05
5.22586e-05
5.22604e-05
5.22364e-05
5.22659e-05
5.22668e-05
5.42134e-05
5.41661e-05
5.22366e-05
5.22649e-05
5.2267e-05
5.41709e-05
5.42243e-05
5.44534e-05
5.22894e-05
5.22938e-05
5.24579e-05
5.24564e-05
5.4228e-05
5.44478e-05
5.22898e-05
5.2292e-05
5.24577e-05
5.24562e-05
5.22979e-05
5.24573e-05
5.24586e-05
5.42271e-05
5.44503e-05
5.22982e-05
5.24583e-05
5.24584e-05
5.44503e-05
5.44433e-05
5.40016e-05
5.24464e-05
5.24451e-05
5.22944e-05
5.22955e-05
5.44388e-05
5.40049e-05
5.24461e-05
5.24443e-05
5.22942e-05
5.22917e-05
5.24473e-05
5.22964e-05
5.22963e-05
5.44404e-05
5.39997e-05
5.2447e-05
5.22948e-05
5.22964e-05
5.40051e-05
5.40314e-05
5.55866e-05
5.23195e-05
5.23205e-05
5.3309e-05
5.33085e-05
5.40345e-05
5.55843e-05
5.23194e-05
5.23171e-05
5.331e-05
5.33115e-05
5.23208e-05
5.33107e-05
5.33098e-05
5.40294e-05
5.55899e-05
5.2321e-05
5.33135e-05
5.33103e-05
5.55853e-05
5.5708e-05
5.36228e-05
5.34446e-05
5.34442e-05
5.25966e-05
5.25976e-05
5.57058e-05
5.36244e-05
5.34458e-05
5.34475e-05
5.25968e-05
5.25965e-05
5.34471e-05
5.26e-05
5.26048e-05
5.57117e-05
5.36236e-05
5.34477e-05
5.26022e-05
5.26057e-05
5.36324e-05
5.30595e-05
5.18282e-05
5.15855e-05
5.15874e-05
5.06506e-05
5.06535e-05
5.30619e-05
5.18342e-05
5.15852e-05
5.15839e-05
5.06497e-05
5.06482e-05
5.15924e-05
5.06569e-05
5.06545e-05
5.30593e-05
5.18265e-05
5.15928e-05
5.06516e-05
5.0654e-05
5.18289e-05
5.23528e-05
5.91221e-05
5.08711e-05
5.08743e-05
5.60365e-05
5.60361e-05
5.236e-05
5.91193e-05
5.08701e-05
5.08692e-05
5.60363e-05
5.60379e-05
5.08745e-05
5.60363e-05
5.60366e-05
5.23516e-05
5.91223e-05
5.08737e-05
5.60375e-05
5.6036e-05
5.91212e-05
5.98164e-05
5.93009e-05
5.7266e-05
5.72638e-05
5.78069e-05
5.78027e-05
5.98121e-05
5.9292e-05
5.72663e-05
5.72674e-05
5.7808e-05
5.78079e-05
5.72654e-05
5.78028e-05
5.78052e-05
5.98164e-05
5.93006e-05
5.72652e-05
5.78084e-05
5.78058e-05
5.92969e-05
5.79584e-05
4.80934e-05
5.68963e-05
5.68915e-05
4.81191e-05
4.81204e-05
5.79511e-05
4.8099e-05
5.68982e-05
5.68967e-05
4.81214e-05
4.81194e-05
5.68946e-05
4.81271e-05
4.81237e-05
5.79583e-05
4.80965e-05
5.68961e-05
4.81263e-05
4.81266e-05
4.80993e-05
4.7187e-05
4.59289e-05
4.61856e-05
4.61886e-05
4.44121e-05
4.4416e-05
4.71939e-05
4.59344e-05
4.61875e-05
4.61863e-05
4.44126e-05
4.44133e-05
4.61918e-05
4.44201e-05
4.44192e-05
4.71904e-05
4.59318e-05
4.61945e-05
4.44184e-05
4.44208e-05
4.59352e-05
4.67931e-05
5.6135e-05
4.46262e-05
4.46298e-05
5.24269e-05
5.24268e-05
4.67966e-05
5.61326e-05
4.46262e-05
4.46276e-05
5.24241e-05
5.24276e-05
4.4633e-05
5.24228e-05
5.24278e-05
4.67954e-05
5.61341e-05
4.4634e-05
5.24243e-05
5.24251e-05
5.61351e-05
5.76695e-05
6.33544e-05
5.53814e-05
5.53806e-05
6.09241e-05
6.09229e-05
5.76672e-05
6.33522e-05
5.53791e-05
5.53812e-05
6.09231e-05
6.09228e-05
5.53812e-05
6.09227e-05
6.09229e-05
5.76681e-05
6.33522e-05
5.53788e-05
6.09224e-05
6.09217e-05
6.33518e-05
6.37421e-05
6.24107e-05
6.16774e-05
6.16764e-05
6.1691e-05
6.16907e-05
6.37402e-05
6.24118e-05
6.16769e-05
6.1676e-05
6.16916e-05
6.16901e-05
6.16765e-05
6.16933e-05
6.16916e-05
6.37399e-05
6.24111e-05
6.16756e-05
6.16926e-05
6.16918e-05
6.24118e-05
6.13285e-05
5.39192e-05
6.04974e-05
6.04981e-05
5.34122e-05
5.34131e-05
6.13304e-05
5.39215e-05
6.04997e-05
6.04972e-05
5.34146e-05
5.34134e-05
6.05005e-05
5.34192e-05
5.34172e-05
6.13295e-05
5.39222e-05
6.05025e-05
5.34198e-05
5.34202e-05
5.39241e-05
5.3019e-05
4.92157e-05
5.15129e-05
5.15134e-05
4.77121e-05
4.77122e-05
5.30212e-05
4.92164e-05
5.15149e-05
5.15141e-05
4.77129e-05
4.77129e-05
5.15175e-05
4.77159e-05
4.77151e-05
5.30216e-05
4.92171e-05
5.15203e-05
4.77164e-05
4.77167e-05
4.92182e-05
4.90029e-05
4.86463e-05
4.70839e-05
4.70841e-05
4.64623e-05
4.64627e-05
4.90034e-05
4.86461e-05
4.70844e-05
4.70844e-05
4.64621e-05
4.64625e-05
4.70864e-05
4.64639e-05
4.64642e-05
4.90039e-05
4.86464e-05
4.70876e-05
4.64643e-05
4.64643e-05
4.86471e-05
4.88173e-05
5.00882e-05
4.64939e-05
4.64944e-05
4.76011e-05
4.76026e-05
4.88172e-05
5.00892e-05
4.64936e-05
4.6494e-05
4.7601e-05
4.76017e-05
4.64957e-05
4.76033e-05
4.76035e-05
4.88173e-05
5.00891e-05
4.64956e-05
4.7603e-05
4.76031e-05
5.009e-05
5.0309e-05
5.07219e-05
4.79688e-05
4.79702e-05
4.84305e-05
4.84315e-05
5.03103e-05
5.07229e-05
4.79685e-05
4.79696e-05
4.84314e-05
4.84299e-05
4.79714e-05
4.84341e-05
4.84327e-05
5.03099e-05
5.07223e-05
4.79708e-05
4.84331e-05
4.84338e-05
5.07237e-05
5.06079e-05
4.76719e-05
4.76728e-05
5.06091e-05
4.76732e-05
4.76711e-05
3.83594e-05
3.83577e-05
3.83597e-05
4.76739e-05
5.06082e-05
4.76755e-05
6.48539e-05
7.13703e-05
6.47557e-05
7.14059e-05
6.9546e-05
6.95716e-05
6.48582e-05
7.13763e-05
6.47593e-05
7.14119e-05
2.12005e-05
2.11994e-05
2.1206e-05
2.17726e-05
2.17701e-05
2.17748e-05
2.1772e-05
5.36082e-05
6.02734e-05
2.92595e-05
3.71307e-05
5.34106e-05
6.03948e-05
2.95047e-05
6.95445e-05
6.95708e-05
5.36082e-05
2.92599e-05
6.02723e-05
3.71306e-05
5.34099e-05
2.95062e-05
6.03971e-05
6.69544e-05
6.69659e-05
4.23265e-05
6.70284e-05
6.70401e-05
6.50818e-05
7.14549e-05
6.49859e-05
7.1491e-05
6.96028e-05
6.96293e-05
6.5086e-05
7.14608e-05
6.49907e-05
7.14969e-05
2.19625e-05
2.19689e-05
2.19642e-05
2.25477e-05
2.25487e-05
2.25545e-05
2.25535e-05
5.40742e-05
6.05626e-05
3.02386e-05
3.80305e-05
5.38825e-05
6.06822e-05
3.04837e-05
6.96011e-05
6.96275e-05
5.40755e-05
3.02449e-05
6.05673e-05
3.80367e-05
5.38845e-05
3.049e-05
6.06842e-05
6.71329e-05
6.71444e-05
4.30428e-05
6.72078e-05
6.72192e-05
6.53033e-05
7.1541e-05
6.52102e-05
7.15777e-05
6.96613e-05
6.96886e-05
6.53072e-05
7.15469e-05
6.52139e-05
7.15836e-05
2.2746e-05
2.27511e-05
2.27525e-05
2.33406e-05
2.3341e-05
2.33446e-05
2.3348e-05
5.4522e-05
6.08436e-05
3.12175e-05
3.89061e-05
5.43393e-05
6.09568e-05
3.14599e-05
6.96594e-05
6.96869e-05
5.45217e-05
3.12219e-05
6.08441e-05
3.89082e-05
5.43391e-05
3.14639e-05
6.09578e-05
6.73085e-05
6.73198e-05
4.37403e-05
6.7377e-05
6.73885e-05
6.55178e-05
7.1628e-05
6.54277e-05
7.16648e-05
6.97218e-05
6.97498e-05
6.55219e-05
7.16339e-05
6.54317e-05
7.16707e-05
2.35412e-05
2.35442e-05
2.35471e-05
2.4146e-05
2.41447e-05
2.41481e-05
2.4148e-05
5.49489e-05
6.11115e-05
3.2181e-05
3.97516e-05
5.47737e-05
6.12213e-05
3.24195e-05
6.972e-05
6.97482e-05
5.4949e-05
3.21842e-05
6.11126e-05
3.97533e-05
5.47739e-05
3.24226e-05
6.12228e-05
6.74712e-05
6.74827e-05
4.44003e-05
6.75403e-05
6.75519e-05
6.57257e-05
7.17154e-05
6.56383e-05
7.17525e-05
6.9784e-05
6.98125e-05
6.57298e-05
7.17213e-05
6.56423e-05
7.17583e-05
2.43466e-05
2.43506e-05
2.435e-05
2.49569e-05
2.49568e-05
2.49604e-05
2.49609e-05
5.5361e-05
6.13711e-05
3.31288e-05
4.05702e-05
5.5192e-05
6.14767e-05
3.33637e-05
6.97822e-05
6.98109e-05
5.53611e-05
3.3133e-05
6.13723e-05
4.0573e-05
5.51923e-05
3.33679e-05
6.14783e-05
6.76344e-05
6.76459e-05
4.50448e-05
6.77015e-05
6.77131e-05
6.59268e-05
7.18032e-05
6.58424e-05
7.18403e-05
6.98474e-05
6.98763e-05
6.59305e-05
7.18091e-05
6.58462e-05
7.18462e-05
2.51611e-05
2.51643e-05
2.51651e-05
2.57717e-05
2.5771e-05
2.57754e-05
2.57755e-05
5.57557e-05
6.16207e-05
3.40622e-05
4.13612e-05
5.55942e-05
6.17216e-05
3.42912e-05
6.98455e-05
6.98747e-05
5.57554e-05
3.40655e-05
6.16216e-05
4.13634e-05
5.55943e-05
3.42947e-05
6.17226e-05
6.77917e-05
6.78032e-05
4.5665e-05
6.78555e-05
6.78671e-05
6.61209e-05
7.18912e-05
6.60391e-05
7.19284e-05
6.99119e-05
6.99413e-05
6.61249e-05
7.1897e-05
6.60431e-05
7.19341e-05
2.59748e-05
2.59789e-05
2.59796e-05
2.65872e-05
2.65872e-05
2.659e-05
2.65916e-05
5.61334e-05
6.18593e-05
3.49701e-05
4.21224e-05
5.59781e-05
6.19571e-05
3.51943e-05
6.99101e-05
6.99397e-05
5.61334e-05
3.49738e-05
6.18605e-05
4.21239e-05
5.59783e-05
3.51975e-05
6.19581e-05
6.79433e-05
6.79548e-05
4.62603e-05
6.80054e-05
6.8017e-05
6.63089e-05
7.19792e-05
6.623e-05
7.20161e-05
6.99773e-05
7.00069e-05
6.63126e-05
7.19849e-05
6.62337e-05
7.20218e-05
2.67899e-05
2.67935e-05
2.67937e-05
2.73967e-05
2.73967e-05
2.74008e-05
2.74007e-05
5.64958e-05
6.20896e-05
3.58547e-05
4.28531e-05
5.63474e-05
6.21829e-05
3.60708e-05
6.99755e-05
7.00054e-05
5.64956e-05
3.58583e-05
6.20904e-05
4.28558e-05
5.63472e-05
3.60748e-05
6.21843e-05
6.80896e-05
6.8101e-05
4.68311e-05
6.81498e-05
6.81614e-05
6.64898e-05
7.20668e-05
6.64135e-05
7.21039e-05
7.00435e-05
7.00734e-05
6.64937e-05
7.20726e-05
6.64173e-05
7.21095e-05
2.76001e-05
2.76029e-05
2.76044e-05
2.82033e-05
2.82021e-05
2.82059e-05
2.82069e-05
5.68436e-05
6.23106e-05
3.67142e-05
4.3559e-05
5.67008e-05
6.24005e-05
3.69249e-05
7.00417e-05
7.0072e-05
5.68433e-05
3.67167e-05
6.23112e-05
4.35595e-05
5.67008e-05
3.69271e-05
6.24012e-05
6.82324e-05
6.8244e-05
4.73831e-05
6.82904e-05
6.83021e-05
6.66649e-05
7.21543e-05
6.65913e-05
7.2191e-05
7.01102e-05
7.01405e-05
6.66686e-05
7.216e-05
6.65951e-05
7.21965e-05
2.84001e-05
2.84055e-05
2.84041e-05
2.89958e-05
2.89971e-05
2.90005e-05
2.90016e-05
5.71749e-05
6.25213e-05
3.754e-05
4.42296e-05
5.70388e-05
6.26075e-05
3.77422e-05
7.01086e-05
7.01389e-05
5.71751e-05
3.75444e-05
6.25229e-05
4.42331e-05
5.7039e-05
3.77468e-05
6.26093e-05
6.83677e-05
6.83793e-05
4.79059e-05
6.84244e-05
6.84359e-05
6.6834e-05
7.22414e-05
6.67629e-05
7.2278e-05
7.01776e-05
7.02076e-05
6.68377e-05
7.2247e-05
6.67664e-05
7.22835e-05
2.91957e-05
2.91974e-05
2.92005e-05
2.97811e-05
2.97792e-05
2.97835e-05
2.97838e-05
5.74958e-05
6.27267e-05
3.83433e-05
4.48799e-05
5.73645e-05
6.2809e-05
3.85384e-05
7.01758e-05
7.02063e-05
5.74949e-05
3.8345e-05
6.27262e-05
4.48793e-05
5.7364e-05
3.85398e-05
6.28089e-05
6.85032e-05
6.85148e-05
4.84157e-05
6.85561e-05
6.85677e-05
6.69956e-05
7.23274e-05
6.69275e-05
7.23634e-05
7.02448e-05
7.02755e-05
6.69995e-05
7.2333e-05
6.69315e-05
7.23689e-05
2.99717e-05
2.99776e-05
2.99755e-05
3.05461e-05
3.05478e-05
3.05506e-05
3.05525e-05
5.7797e-05
6.29178e-05
3.91074e-05
4.54931e-05
5.76727e-05
6.29971e-05
3.92942e-05
7.02433e-05
7.02737e-05
5.77976e-05
3.91118e-05
6.29203e-05
4.54969e-05
5.76731e-05
3.92986e-05
6.29993e-05
6.86263e-05
6.86378e-05
4.8892e-05
6.868e-05
6.86916e-05
6.71527e-05
7.24132e-05
6.70865e-05
7.24494e-05
7.03128e-05
7.03428e-05
6.71562e-05
7.24188e-05
6.70898e-05
7.24548e-05
3.07374e-05
3.07389e-05
3.07423e-05
3.12988e-05
3.12974e-05
3.13025e-05
3.13023e-05
5.80907e-05
6.31068e-05
3.98459e-05
4.60853e-05
5.79709e-05
6.31816e-05
4.00248e-05
7.0311e-05
7.03417e-05
5.80897e-05
3.98472e-05
6.31056e-05
4.60848e-05
5.79703e-05
4.00262e-05
6.31818e-05
6.87534e-05
6.8765e-05
4.93582e-05
6.88017e-05
6.88133e-05
6.73025e-05
7.24977e-05
6.72397e-05
7.25325e-05
7.03802e-05
7.04105e-05
6.73063e-05
7.25033e-05
6.72437e-05
7.2538e-05
3.14825e-05
3.14889e-05
3.14867e-05
3.20321e-05
3.20332e-05
3.20347e-05
3.20371e-05
5.83655e-05
6.32817e-05
4.0548e-05
4.66469e-05
5.82519e-05
6.33547e-05
4.07197e-05
7.03785e-05
7.04086e-05
5.83656e-05
4.05525e-05
6.32847e-05
4.66499e-05
5.82523e-05
4.07237e-05
6.33557e-05
6.88678e-05
6.88792e-05
4.97942e-05
6.89174e-05
6.89291e-05
6.74438e-05
7.25806e-05
6.7384e-05
7.26161e-05
7.04474e-05
7.04776e-05
6.74476e-05
7.25862e-05
6.73871e-05
7.26216e-05
3.22124e-05
3.22126e-05
3.2216e-05
3.27378e-05
3.27368e-05
3.27429e-05
3.27426e-05
5.86282e-05
6.34517e-05
4.12209e-05
4.71779e-05
5.85215e-05
6.35182e-05
4.13809e-05
7.04458e-05
7.04767e-05
5.86272e-05
4.12212e-05
6.345e-05
4.71776e-05
5.85202e-05
4.13819e-05
6.35196e-05
6.89825e-05
6.89943e-05
5.02129e-05
6.90271e-05
6.90387e-05
6.7585e-05
7.2664e-05
6.75258e-05
7.26977e-05
7.05151e-05
7.05449e-05
6.75884e-05
7.26696e-05
6.75303e-05
7.2703e-05
3.29133e-05
3.29209e-05
3.29188e-05
3.34354e-05
3.3437e-05
3.34377e-05
3.34397e-05
5.88805e-05
6.36121e-05
4.18581e-05
4.76929e-05
5.87755e-05
6.36798e-05
4.20171e-05
7.05133e-05
7.05427e-05
5.88795e-05
4.18633e-05
6.36154e-05
4.76958e-05
5.87756e-05
4.2021e-05
6.368e-05
6.90911e-05
6.91024e-05
5.06137e-05
6.91362e-05
6.91478e-05
6.77088e-05
7.27431e-05
6.76564e-05
7.27773e-05
7.0581e-05
7.06109e-05
6.77128e-05
7.27487e-05
6.76586e-05
7.27831e-05
3.36011e-05
3.36003e-05
3.3603e-05
3.40955e-05
3.40936e-05
3.40999e-05
3.41003e-05
5.91107e-05
6.37637e-05
4.24634e-05
4.81631e-05
5.9018e-05
6.38223e-05
4.26054e-05
7.05793e-05
7.061e-05
5.91096e-05
4.24624e-05
6.37616e-05
4.81623e-05
5.90159e-05
4.26058e-05
6.38239e-05
6.91925e-05
6.92043e-05
5.09849e-05
6.92344e-05
6.92463e-05
6.7837e-05
7.28238e-05
6.77844e-05
7.28558e-05
7.06477e-05
7.06768e-05
6.78407e-05
7.28294e-05
6.77901e-05
7.28609e-05
3.42643e-05
3.42718e-05
3.42711e-05
3.47304e-05
3.47332e-05
3.47344e-05
3.4736e-05
5.9339e-05
6.39092e-05
4.30467e-05
4.86303e-05
5.92449e-05
6.3968e-05
4.31865e-05
7.06459e-05
7.06746e-05
5.93382e-05
4.30528e-05
6.39131e-05
4.86335e-05
5.92458e-05
4.31909e-05
6.39683e-05
6.9295e-05
6.93067e-05
5.13513e-05
6.93324e-05
6.93435e-05
6.79517e-05
7.29005e-05
6.78995e-05
7.29344e-05
7.07128e-05
7.07424e-05
6.79551e-05
7.29059e-05
6.79005e-05
7.29403e-05
3.48795e-05
3.48798e-05
3.48812e-05
3.53716e-05
3.53697e-05
3.53737e-05
3.53745e-05
5.95416e-05
6.40403e-05
4.35677e-05
4.90492e-05
5.94557e-05
6.40994e-05
4.37043e-05
7.07111e-05
7.07416e-05
5.95378e-05
4.35654e-05
6.40368e-05
4.90473e-05
5.94509e-05
4.37029e-05
6.41e-05
6.93824e-05
6.93931e-05
5.1677e-05
6.94276e-05
6.94396e-05
6.80563e-05
7.29757e-05
6.80202e-05
7.3004e-05
7.07766e-05
7.08042e-05
6.80605e-05
7.29815e-05
6.80266e-05
7.30092e-05
3.55271e-05
3.55318e-05
3.55325e-05
3.59154e-05
3.59164e-05
3.59209e-05
3.59213e-05
5.974e-05
6.41778e-05
4.41137e-05
4.94557e-05
5.96676e-05
6.42161e-05
4.42221e-05
7.07746e-05
7.08021e-05
5.97428e-05
4.4119e-05
6.4183e-05
4.946e-05
5.96706e-05
4.4228e-05
6.42185e-05
6.94804e-05
6.94936e-05
5.20053e-05
6.95026e-05
6.95145e-05
6.8168e-05
7.30508e-05
6.81084e-05
7.3085e-05
7.0842e-05
7.08712e-05
6.8171e-05
7.3056e-05
6.81099e-05
7.30906e-05
3.60593e-05
3.60631e-05
3.60629e-05
3.65358e-05
3.65375e-05
3.65377e-05
3.65411e-05
5.99206e-05
6.42808e-05
4.45526e-05
4.98454e-05
5.98312e-05
6.435e-05
4.46906e-05
7.08407e-05
7.08694e-05
5.99137e-05
4.45529e-05
6.4277e-05
4.98429e-05
5.98263e-05
4.46889e-05
6.43478e-05
6.95555e-05
6.95643e-05
5.22993e-05
6.96072e-05
6.96182e-05
6.82479e-05
7.31195e-05
6.82281e-05
7.31466e-05
7.09009e-05
7.0929e-05
6.82519e-05
7.31255e-05
6.8233e-05
7.31521e-05
3.66613e-05
3.66622e-05
3.66648e-05
3.701e-05
3.70074e-05
3.70136e-05
3.70108e-05
6.00836e-05
6.44084e-05
4.50376e-05
5.01644e-05
6.00372e-05
6.44285e-05
4.51161e-05
7.08992e-05
7.09286e-05
6.00856e-05
4.50379e-05
6.44117e-05
5.01667e-05
6.00365e-05
4.51188e-05
6.44316e-05
6.96373e-05
6.96503e-05
5.25689e-05
6.9649e-05
6.96615e-05
6.83594e-05
7.31943e-05
6.83003e-05
7.32208e-05
7.09674e-05
7.09904e-05
6.83631e-05
7.31995e-05
6.83046e-05
7.32264e-05
3.71642e-05
3.71702e-05
3.71679e-05
3.75745e-05
3.75791e-05
3.75798e-05
3.75857e-05
6.02589e-05
6.45104e-05
4.54477e-05
5.05648e-05
6.01654e-05
6.45698e-05
4.5582e-05
7.0965e-05
7.0988e-05
6.02565e-05
4.54522e-05
6.45092e-05
5.05657e-05
6.0166e-05
4.55847e-05
6.45702e-05
6.97324e-05
6.97435e-05
5.28694e-05
6.97581e-05
6.97692e-05
6.83976e-05
7.3251e-05
6.83843e-05
7.32878e-05
7.10205e-05
7.10557e-05
6.84007e-05
7.32564e-05
6.83859e-05
7.32925e-05
3.76626e-05
3.76634e-05
3.7668e-05
3.79887e-05
3.79844e-05
3.79886e-05
3.79846e-05
6.03525e-05
6.45769e-05
4.58151e-05
5.07608e-05
6.0331e-05
6.46038e-05
4.58705e-05
7.10197e-05
7.1055e-05
6.03493e-05
4.5814e-05
6.45768e-05
5.07603e-05
6.03269e-05
4.58701e-05
6.46033e-05
6.9751e-05
6.97619e-05
5.30339e-05
6.97961e-05
6.98078e-05
6.85199e-05
7.3329e-05
6.84904e-05
7.3342e-05
7.10849e-05
7.11011e-05
6.85241e-05
7.33347e-05
6.84939e-05
7.33484e-05
3.81466e-05
3.81508e-05
3.81472e-05
3.85349e-05
3.8542e-05
3.85431e-05
3.85501e-05
6.05593e-05
6.47308e-05
4.62271e-05
5.11868e-05
6.04679e-05
6.47466e-05
4.63577e-05
7.10825e-05
7.10991e-05
6.05583e-05
4.62292e-05
6.47316e-05
5.11877e-05
6.04678e-05
4.63597e-05
6.47475e-05
6.98895e-05
6.99012e-05
5.33667e-05
6.98847e-05
6.98966e-05
6.85109e-05
7.3372e-05
6.85057e-05
7.34189e-05
7.11341e-05
7.11754e-05
6.85147e-05
7.33773e-05
6.85099e-05
7.34224e-05
3.85976e-05
3.85989e-05
3.86059e-05
3.8808e-05
3.88015e-05
3.88067e-05
3.88024e-05
6.0566e-05
6.47133e-05
4.6523e-05
5.12905e-05
6.05655e-05
6.47358e-05
4.65416e-05
7.11334e-05
7.11746e-05
6.05642e-05
4.65239e-05
6.47144e-05
5.12905e-05
6.05639e-05
4.65427e-05
6.47368e-05
6.98434e-05
6.98547e-05
5.3433e-05
6.99104e-05
6.99221e-05
6.86751e-05
7.34595e-05
6.86428e-05
7.34633e-05
7.12024e-05
7.12116e-05
6.86781e-05
7.34654e-05
6.86452e-05
7.34701e-05
3.89477e-05
3.8953e-05
3.89474e-05
3.94168e-05
3.94195e-05
3.94212e-05
3.94232e-05
6.08074e-05
6.49098e-05
4.68195e-05
5.16902e-05
6.07071e-05
6.49348e-05
4.69673e-05
7.11994e-05
7.12091e-05
6.08053e-05
4.6822e-05
6.49096e-05
5.16911e-05
6.0707e-05
4.69691e-05
6.49348e-05
7.00405e-05
7.00518e-05
5.37933e-05
7.0038e-05
7.00495e-05
6.85845e-05
7.34724e-05
6.8615e-05
7.35181e-05
7.12321e-05
7.12772e-05
6.85889e-05
7.34779e-05
6.86205e-05
7.35219e-05
3.951e-05
3.951e-05
3.95157e-05
3.95748e-05
3.95857e-05
3.95846e-05
3.95935e-05
6.07546e-05
6.48433e-05
4.72177e-05
5.18281e-05
6.08007e-05
6.48199e-05
4.72304e-05
7.1231e-05
7.12771e-05
6.07519e-05
4.72171e-05
6.48433e-05
5.18262e-05
6.0798e-05
4.72295e-05
6.48202e-05
6.99194e-05
6.99309e-05
5.38238e-05
6.99251e-05
6.9937e-05
6.88136e-05
7.35882e-05
6.87198e-05
7.35957e-05
7.13215e-05
7.13284e-05
6.88173e-05
7.35935e-05
6.87223e-05
7.36019e-05
3.96113e-05
3.9612e-05
3.96177e-05
4.00267e-05
4.0016e-05
4.00226e-05
4.00155e-05
6.09739e-05
6.50017e-05
4.72476e-05
5.19478e-05
6.08072e-05
6.50859e-05
4.73081e-05
7.13191e-05
7.13259e-05
6.09722e-05
4.72479e-05
6.5003e-05
5.19527e-05
6.08077e-05
4.73112e-05
6.50877e-05
7.01517e-05
7.01628e-05
5.40432e-05
7.01844e-05
7.01956e-05
6.86907e-05
7.35787e-05
6.8767e-05
7.36093e-05
7.13299e-05
7.13727e-05
6.86941e-05
7.35851e-05
6.87699e-05
7.36144e-05
4.01669e-05
4.01716e-05
4.01677e-05
4.03697e-05
4.03753e-05
4.03759e-05
4.03791e-05
6.09616e-05
6.4999e-05
4.77105e-05
5.22517e-05
6.1023e-05
6.49344e-05
4.776e-05
7.13276e-05
7.13718e-05
6.09586e-05
4.77121e-05
6.49984e-05
5.2251e-05
6.10205e-05
4.77607e-05
6.49334e-05
7.00168e-05
7.00289e-05
5.41764e-05
6.9982e-05
6.99944e-05
6.89184e-05
7.3702e-05
6.87788e-05
7.37076e-05
7.14337e-05
7.14302e-05
6.89243e-05
7.37071e-05
6.87842e-05
7.37128e-05
4.04044e-05
4.04052e-05
4.04096e-05
4.0628e-05
4.06291e-05
4.06316e-05
4.0634e-05
6.11206e-05
6.51013e-05
4.7804e-05
5.2383e-05
6.09506e-05
6.52392e-05
4.7852e-05
7.14321e-05
7.14283e-05
6.11179e-05
4.78041e-05
6.5102e-05
5.23835e-05
6.09486e-05
4.78527e-05
6.52423e-05
7.02758e-05
7.0287e-05
5.43658e-05
7.03671e-05
7.0378e-05
6.84564e-05
7.3595e-05
6.8765e-05
7.3604e-05
7.13697e-05
7.14266e-05
6.84528e-05
7.36004e-05
6.87617e-05
7.36093e-05
4.06839e-05
4.06862e-05
4.06876e-05
4.0715e-05
4.07134e-05
4.07153e-05
4.07158e-05
6.07995e-05
6.5005e-05
4.80031e-05
5.23823e-05
6.11254e-05
6.46804e-05
4.79951e-05
7.13666e-05
7.1425e-05
6.07967e-05
4.80039e-05
6.50049e-05
5.23819e-05
6.11236e-05
4.79958e-05
6.46779e-05
6.9931e-05
6.9942e-05
5.4155e-05
6.96596e-05
6.96711e-05
6.94667e-05
7.3967e-05
6.85722e-05
7.41176e-05
7.16697e-05
7.1723e-05
6.9477e-05
7.39734e-05
6.8578e-05
7.41242e-05
4.0734e-05
4.07359e-05
4.07359e-05
4.14497e-05
4.14495e-05
4.14534e-05
4.1452e-05
6.14811e-05
6.48535e-05
4.79603e-05
5.2491e-05
6.06605e-05
6.5798e-05
4.80418e-05
7.16701e-05
7.17236e-05
6.14785e-05
4.79605e-05
6.48492e-05
5.24899e-05
6.06565e-05
4.80422e-05
6.57993e-05
7.02609e-05
7.0273e-05
5.45957e-05
7.10976e-05
7.11104e-05
6.89402e-05
7.37333e-05
7.00706e-05
7.32071e-05
7.13825e-05
7.11128e-05
6.89379e-05
7.37382e-05