/*--------------------------------*- C++ -*----------------------------------*\
| =========                 |                                                 |
| \\      /  F ield         | OpenFOAM: The Open Source CFD Toolbox           |
|  \\    /   O peration     | Version:  v2012                                 |
|   \\  /    A nd           | Website:  www.openfoam.com                      |
|    \\/     M anipulation  |                                                 |
\*---------------------------------------------------------------------------*/
FoamFile
{
    version     2.0;
    format      ascii;
    class       volScalarField;
    location    "375";
    object      nut;
}
// * * * * * * * * * * * * * * * * * * * * * * * * * * * * * * * * * * * * * //

dimensions      [0 2 -1 0 0 0 0];


internalField   nonuniform List<scalar> 
85864
(
0.000123752
0.000140159
0.000140122
0.000137756
0.000126581
0.000143263
0.00014329
0.000140141
0.000129533
0.000146366
0.000146371
0.000142556
0.000132646
0.000149402
0.000149397
0.000144858
0.000135887
0.00015239
0.000152394
0.000147116
0.000139215
0.000155343
0.000155341
0.000149346
0.000142607
0.000158215
0.000158215
0.000151498
0.000146089
0.000161033
0.000161035
0.000153599
0.000149571
0.000163799
0.00016379
0.000155647
0.000153122
0.000166464
0.000166475
0.000157624
0.000156646
0.000169115
0.000169098
0.000159565
0.000160218
0.000171638
0.000171653
0.000161414
0.000163708
0.000174138
0.000174117
0.000163237
0.000167248
0.000176533
0.000176552
0.000164971
0.000170706
0.000178881
0.000178852
0.00016667
0.000174108
0.000181129
0.000181156
0.000168282
0.0001775
0.000183309
0.000183272
0.000169854
0.000180866
0.000185474
0.000185504
0.000171383
0.000183883
0.000187363
0.000187325
0.000172738
0.000187476
0.000189547
0.000189566
0.000174285
0.000190001
0.000191146
0.000191132
0.000175369
0.000193543
0.000193154
0.000193138
0.000176848
0.00019609
0.000194863
0.000194877
0.0001779
0.000199043
0.000196227
0.000196203
0.000179042
0.000201664
0.00019824
0.00019824
0.000180286
0.000204611
0.000199428
0.000199413
0.000181155
0.000206187
0.000200781
0.00020079
0.000182101
0.000210512
0.000202737
0.000202714
0.000183399
0.00021014
0.000202435
0.000202423
0.000183179
0.000214515
0.000205241
0.000205235
0.000185131
0.000215807
0.000205476
0.000205459
0.000184977
0.000218444
0.000207254
0.000207254
0.000186941
0.000217209
0.000205132
0.000205106
0.00018323
0.000225607
0.00021366
0.000213674
0.00019346
0.000225501
0.000206379
0.000206375
0.000184187
0.000208348
0.000191811
0.000191765
0.000169865
0.000242705
0.000234126
0.000234132
0.000209963
0.000282349
0.000256751
0.000256786
0.000220252
0.000215286
0.000182777
0.000182757
0.000161827
0.000165819
0.000157991
0.000157973
0.000145685
0.000204542
0.000215214
0.000215212
0.000192912
0.000297608
0.000263919
0.000263903
0.000229742
0.000340091
0.000278124
0.000278101
0.000231794
0.000270409
0.000221484
0.000221478
0.000192672
0.000210578
0.000192448
0.000192441
0.00017193
0.000194629
0.000187964
0.000187956
0.000169592
0.000206652
0.000197726
0.000197714
0.000176955
0.000225789
0.000204341
0.000204334
0.000183561
0.000137745
0.000139764
0.000140143
0.00014014
0.000142492
0.000142471
0.00013775
0.00013975
0.000140145
0.0001401
0.000142498
0.000142486
0.000140161
0.000142486
0.000142466
0.000137714
0.000139764
0.000140162
0.000142504
0.000142471
0.000139737
0.000140166
0.000142132
0.000143266
0.000143248
0.00014557
0.000145578
0.000140153
0.000142146
0.000143273
0.000143272
0.000145577
0.000145585
0.000143241
0.000145597
0.000145601
0.000140176
0.000142147
0.000143248
0.000145607
0.000145608
0.000142157
0.000142522
0.000144471
0.000146337
0.000146347
0.000148629
0.000148627
0.000142539
0.000144473
0.000146344
0.000146348
0.000148634
0.00014862
0.000146381
0.000148647
0.000148656
0.000142535
0.000144465
0.000146387
0.000148643
0.000148662
0.000144487
0.000144852
0.000146756
0.000149388
0.000149384
0.000151641
0.000151632
0.000144851
0.000146754
0.000149394
0.000149375
0.000151647
0.000151629
0.000149403
0.000151647
0.000151636
0.000144843
0.00014675
0.000149408
0.000151649
0.000151643
0.000146749
0.000147121
0.000148983
0.000152382
0.000152374
0.000154595
0.000154594
0.00014712
0.000148987
0.00015239
0.000152374
0.000154601
0.000154589
0.00015238
0.000154612
0.000154607
0.000147117
0.000148984
0.000152388
0.000154611
0.000154614
0.000148992
0.000149337
0.000151153
0.000155326
0.000155325
0.000157484
0.000157481
0.000149341
0.000151156
0.000155333
0.000155319
0.000157492
0.000157479
0.000155337
0.000157499
0.000157495
0.000149337
0.000151151
0.000155344
0.000157502
0.000157504
0.000151159
0.000151491
0.000153273
0.000158196
0.000158196
0.000160326
0.000160322
0.000151494
0.000153276
0.000158204
0.000158192
0.000160333
0.000160315
0.000158212
0.00016034
0.000160332
0.00015149
0.000153268
0.000158221
0.000160336
0.00016034
0.000153276
0.000153599
0.000155326
0.000161025
0.000161017
0.000163086
0.000163089
0.0001536
0.000155331
0.000161033
0.000161014
0.000163094
0.000163082
0.000161023
0.000163108
0.000163099
0.000153593
0.000155325
0.000161031
0.000163105
0.000163107
0.000155331
0.000155636
0.000157331
0.00016377
0.000163778
0.000165801
0.000165791
0.000155645
0.00015733
0.000163778
0.000163764
0.00016581
0.000165789
0.000163793
0.000165808
0.000165801
0.000155636
0.000157325
0.000163801
0.000165811
0.000165811
0.000157333
0.000157629
0.000159261
0.000166464
0.000166448
0.000168424
0.000168435
0.000157623
0.000159273
0.000166474
0.000166455
0.000168432
0.000168423
0.000166454
0.000168455
0.000168446
0.000157623
0.000159265
0.000166464
0.000168449
0.000168455
0.000159273
0.000159545
0.000161161
0.000169076
0.000169093
0.000171014
0.000170998
0.000159563
0.000161153
0.000169083
0.00016907
0.000171024
0.000170998
0.000169108
0.000171016
0.000171006
0.000159549
0.000161148
0.000169117
0.00017102
0.000171015
0.000161154
0.000161431
0.000162955
0.000171644
0.000171622
0.000173482
0.000173499
0.000161416
0.000162974
0.000171656
0.000171633
0.000173491
0.000173481
0.000171625
0.000173519
0.000173509
0.000161419
0.000162962
0.000171636
0.000173508
0.00017352
0.000162974
0.000163208
0.000164744
0.000174093
0.000174115
0.000175934
0.000175917
0.000163235
0.000164734
0.000174101
0.000174088
0.000175946
0.000175925
0.000174131
0.000175938
0.000175928
0.000163215
0.000164735
0.000174141
0.000175949
0.000175939
0.000164734
0.000164992
0.000166427
0.000176539
0.000176515
0.000178281
0.000178294
0.000164973
0.000166446
0.000176553
0.000176531
0.000178288
0.000178264
0.00017652
0.000178315
0.000178298
0.000164983
0.000166423
0.000176532
0.000178292
0.000178309
0.000166442
0.000166645
0.000168063
0.000178837
0.000178858
0.000180537
0.000180525
0.000166672
0.000168058
0.000178844
0.000178822
0.000180553
0.000180543
0.000178867
0.000180548
0.000180543
0.000166641
0.000168069
0.000178877
0.000180568
0.000180557
0.000168064
0.000168292
0.000169663
0.000181127
0.000181108
0.000182775
0.000182785
0.000168278
0.000169677
0.000181145
0.000181132
0.000182779
0.000182749
0.000181123
0.000182806
0.000182781
0.000168297
0.000169648
0.000181137
0.000182776
0.000182787
0.000169665
0.000169845
0.00017117
0.000183271
0.000183287
0.000184902
0.000184889
0.000169867
0.000171165
0.000183275
0.000183244
0.00018492
0.000184905
0.000183283
0.000184912
0.000184912
0.000169829
0.000171176
0.00018329
0.000184935
0.000184933
0.000171177
0.000171378
0.000172585
0.000185467
0.000185451
0.000186852
0.000186868
0.000171368
0.000172606
0.000185487
0.000185474
0.000186859
0.00018684
0.000185475
0.000186894
0.000186866
0.000171387
0.000172579
0.000185497
0.000186865
0.000186869
0.00017259
0.000172734
0.000174109
0.000187323
0.000187338
0.000189064
0.000189046
0.000172759
0.000174099
0.000187328
0.000187304
0.000189078
0.000189045
0.000187331
0.000189069
0.000189059
0.000172723
0.000174101
0.000187331
0.000189076
0.000189077
0.000174105
0.000174285
0.000175226
0.00018954
0.000189524
0.000190593
0.000190603
0.000174272
0.000175244
0.000189558
0.000189529
0.000190606
0.000190599
0.000189543
0.000190628
0.000190611
0.000174281
0.000175234
0.000189568
0.000190627
0.000190627
0.000175242
0.000175353
0.000176754
0.000191107
0.000191119
0.000192825
0.000192825
0.000175378
0.000176755
0.000191118
0.000191109
0.000192833
0.000192796
0.000191124
0.000192853
0.000192837
0.000175361
0.000176737
0.000191131
0.000192827
0.000192839
0.000176751
0.000176854
0.000177713
0.000193135
0.000193128
0.00019419
0.000194178
0.000176851
0.000177712
0.000193147
0.000193106
0.00019421
0.000194194
0.000193137
0.000194197
0.000194173
0.000176837
0.000177717
0.000193146
0.000194216
0.000194199
0.000177706
0.000177899
0.000179039
0.000194843
0.00019484
0.000196099
0.000196119
0.000177904
0.00017906
0.000194861
0.00019485
0.000196108
0.000196085
0.000194844
0.000196156
0.000196153
0.00017791
0.000179035
0.000194868
0.000196133
0.000196161
0.000179065
0.000179024
0.000180026
0.000196183
0.000196193
0.000197492
0.000197462
0.000179041
0.000180009
0.000196192
0.000196164
0.000197505
0.00019747
0.000196215
0.000197476
0.000197436
0.000179016
0.000180011
0.000196221
0.000197476
0.000197451
0.000179985
0.000180315
0.000181207
0.000198243
0.000198223
0.000199364
0.000199406
0.000180304
0.000181244
0.000198257
0.000198227
0.000199382
0.000199373
0.000198207
0.00019945
0.000199451
0.000180305
0.000181223
0.000198223
0.000199436
0.000199466
0.000181258
0.000181094
0.000181812
0.000199334
0.000199381
0.000199923
0.000199834
0.000181136
0.000181756
0.000199353
0.000199345
0.000199932
0.00019987
0.000199434
0.000199834
0.000199782
0.000181114
0.000181768
0.000199448
0.000199847
0.000199801
0.000181724
0.000182187
0.000183448
0.000200844
0.000200778
0.000202577
0.000202602
0.000182136
0.000183485
0.000200854
0.0002008
0.000202593
0.000202578
0.000200732
0.000202639
0.000202622
0.000182145
0.000183461
0.000200749
0.000202621
0.000202635
0.000183484
0.000183348
0.000183073
0.000202654
0.000202694
0.000202357
0.00020241
0.000183394
0.000183084
0.000202671
0.000202663
0.000202375
0.000202373
0.000202726
0.00020246
0.000202457
0.000183367
0.000183071
0.000202738
0.000202433
0.000202468
0.000183087
0.00018322
0.000185186
0.000202393
0.000202397
0.000204875
0.000204838
0.000183188
0.000185159
0.000202408
0.000202382
0.000204889
0.000204842
0.000202421
0.000204852
0.00020482
0.00018319
0.000185159
0.000202436
0.000204858
0.000204837
0.000185141
0.000185148
0.000184866
0.000205221
0.000205216
0.000205263
0.0002053
0.000185142
0.000184924
0.000205238
0.000205205
0.000205283
0.000205273
0.000205215
0.000205341
0.000205321
0.000185134
0.000184894
0.000205232
0.000205321
0.000205337
0.000184924
0.000184942
0.000187144
0.000205396
0.00020543
0.000207025
0.000207007
0.000184982
0.000187112
0.000205416
0.000205411
0.000207039
0.000207007
0.000205455
0.000207035
0.000207017
0.000184961
0.000187124
0.000205473
0.000207036
0.000207032
0.000187111
0.000186963
0.000183879
0.000207247
0.000207228
0.000205822
0.000205825
0.000186936
0.000183904
0.000207261
0.000207225
0.000205835
0.000205792
0.000207239
0.000205851
0.00020583
0.000186944
0.000183863
0.000207253
0.000205829
0.000205846
0.000183901
0.000183209
0.00019243
0.000205101
0.000205106
0.00021181
0.000211802
0.000183237
0.000192425
0.000205113
0.000205067
0.000211832
0.000211812
0.000205108
0.000211837
0.000211802
0.000183192
0.000192438
0.000205123
0.000211841
0.000211821
0.000192403
0.000193481
0.00018796
0.000213638
0.000213626
0.000213648
0.000213643
0.000193473
0.000187966
0.000213661
0.000213644
0.000213668
0.000213641
0.000213634
0.000213676
0.000213692
0.000193492
0.000187965
0.000213654
0.000213697
0.000213715
0.000188009
0.000184141
0.000169779
0.00020634
0.000206342
0.000194478
0.000194491
0.000184151
0.000169814
0.000206356
0.000206321
0.000194487
0.000194447
0.000206377
0.000194531
0.0001945
0.00018414
0.000169765
0.000206396
0.000194493
0.000194513
0.000169784
0.000169876
0.000205347
0.000191752
0.000191768
0.000223969
0.000223969
0.000169922
0.000205352
0.000191759
0.000191723
0.000223983
0.000223963
0.00019177
0.000223996
0.000223965
0.000169865
0.000205344
0.00019178
0.000223984
0.000223977
0.00020534
0.00020998
0.000226915
0.000234119
0.000234105
0.000255888
0.00025585
0.000209976
0.000226863
0.000234138
0.000234113
0.000255911
0.000255879
0.000234109
0.000255867
0.000255857
0.000209975
0.000226901
0.000234125
0.000255897
0.000255875
0.000226874
0.000220284
0.000167907
0.000256774
0.000256726
0.000197441
0.000197437
0.000220235
0.000167933
0.000256804
0.000256759
0.000197469
0.000197426
0.000256737
0.000197497
0.000197451
0.000220271
0.000167914
0.00025676
0.000197485
0.000197482
0.000167923
0.000161796
0.000144288
0.000182704
0.000182714
0.000162073
0.000162094
0.000161829
0.000144325
0.000182729
0.000182694
0.000162093
0.000162069
0.000182728
0.000162143
0.000162109
0.000161805
0.0001443
0.000182756
0.000162122
0.000162135
0.000144315
0.000145661
0.000185958
0.000157926
0.000157946
0.000196724
0.000196719
0.000145687
0.000185954
0.000157942
0.000157924
0.000196724
0.000196717
0.000157962
0.000196718
0.000196724
0.00014567
0.00018595
0.000157985
0.00019672
0.000196724
0.000185956
0.00019293
0.000226858
0.000215224
0.000215214
0.000256304
0.000256288
0.000192927
0.000226855
0.000215228
0.00021521
0.000256317
0.000256276
0.000215215
0.000256316
0.000256284
0.00019292
0.00022684
0.000215219
0.000256302
0.000256296
0.000226837
0.000229767
0.000237858
0.000263906
0.00026389
0.00028131
0.000281297
0.000229764
0.00023787
0.000263921
0.000263876
0.00028133
0.000281278
0.000263887
0.000281339
0.000281294
0.000229748
0.00023785
0.0002639
0.000281318
0.000281311
0.000237849
0.000231789
0.000198197
0.000278058
0.000278056
0.000233782
0.000233784
0.000231802
0.000198216
0.000278094
0.000278034
0.000233817
0.000233774
0.000278065
0.00023385
0.000233809
0.000231786
0.000198205
0.000278096
0.000233842
0.000233844
0.000198213
0.000192647
0.000173457
0.000221417
0.000221417
0.000196617
0.000196613
0.000192665
0.000173467
0.000221449
0.00022141
0.000196639
0.000196609
0.000221441
0.00019666
0.000196628
0.000192655
0.00017346
0.000221475
0.000196653
0.000196654
0.000173464
0.000171924
0.000169212
0.00019241
0.000192404
0.000188081
0.000188075
0.000171933
0.000169217
0.000192429
0.0001924
0.000188094
0.000188066
0.000192417
0.000188108
0.000188082
0.000171924
0.000169207
0.00019244
0.000188099
0.000188098
0.000169209
0.000169595
0.000176022
0.000187937
0.000187932
0.000195073
0.000195076
0.000169599
0.000176034
0.00018795
0.000187923
0.000195089
0.000195062
0.000187938
0.000195106
0.000195079
0.000169589
0.00017602
0.000187954
0.000195093
0.000195092
0.000176024
0.000176953
0.000181441
0.000197694
0.000197696
0.00020472
0.000204721
0.000176965
0.00018145
0.000197708
0.000197686
0.000204734
0.000204715
0.000197701
0.000204749
0.00020473
0.000176951
0.000181442
0.000197715
0.000204743
0.000204745
0.000181448
0.000183555
0.000204314
0.000204315
0.000183562
0.000204327
0.000204309
0.000225798
0.000225789
0.000225799
0.000204323
0.000183555
0.000204338
9.23924e-05
5.00236e-05
9.21715e-05
5.00361e-05
2.36141e-05
2.36185e-05
9.23955e-05
5.00205e-05
9.21838e-05
5.0033e-05
0.000123758
0.000123717
0.000123794
0.000125864
0.000125842
0.000125849
0.000125838
0.000122162
9.3989e-05
0.000135589
0.000140938
0.000121591
9.42767e-05
0.000136458
2.36122e-05
2.36166e-05
0.00012216
0.000135575
9.39852e-05
0.000140914
0.000121585
0.000136448
9.42785e-05
7.38397e-05
7.38393e-05
0.000138544
7.39622e-05
7.39617e-05
9.28684e-05
5.00532e-05
9.26539e-05
5.00659e-05
2.36238e-05
2.36283e-05
9.28719e-05
5.00501e-05
9.2669e-05
5.00628e-05
0.000126557
0.000126584
0.000126545
0.000128777
0.000128785
0.000128815
0.000128796
0.000123483
9.45916e-05
0.00013907
0.000144042
0.000122925
9.48761e-05
0.000139953
2.36218e-05
2.36262e-05
0.000123488
0.000139099
9.46031e-05
0.000144068
0.000122929
0.000139986
9.48799e-05
7.41046e-05
7.41041e-05
0.000140945
7.42284e-05
7.42277e-05
9.33284e-05
5.00834e-05
9.31208e-05
5.00962e-05
2.36337e-05
2.36383e-05
9.3331e-05
5.00802e-05
9.31336e-05
5.00931e-05
0.000129548
0.000129571
0.000129575
0.000131854
0.000131863
0.000131873
0.000131908
0.000124767
9.51811e-05
0.000142634
0.00014713
0.000124229
9.54509e-05
0.000143523
2.36317e-05
2.36363e-05
0.000124766
0.000142653
9.51822e-05
0.000147131
0.000124227
0.000143539
9.5452e-05
7.43663e-05
7.43655e-05
0.000143343
7.44797e-05
7.4479e-05
9.37717e-05
5.01138e-05
9.35714e-05
5.01267e-05
2.3644e-05
2.36487e-05
9.37747e-05
5.01107e-05
9.35849e-05
5.01236e-05
0.000132654
0.000132657
0.000132689
0.000135071
0.000135063
0.000135066
0.000135071
0.000125997
9.57423e-05
0.000146182
0.000150154
0.000125478
9.60046e-05
0.000147066
2.36419e-05
2.36467e-05
0.000125997
0.000146189
9.57447e-05
0.00015015
0.000125477
0.000147073
9.60067e-05
7.4605e-05
7.46045e-05
0.000145616
7.47181e-05
7.47174e-05
9.41991e-05
5.01444e-05
9.40053e-05
5.01573e-05
2.36545e-05
2.36593e-05
9.42023e-05
5.01412e-05
9.40187e-05
5.01542e-05
0.000135875
0.000135885
0.000135882
0.000138369
0.000138371
0.000138377
0.000138382
0.000127196
9.62873e-05
0.000149712
0.000153132
0.000126689
9.65401e-05
0.000150597
2.36525e-05
2.36573e-05
0.000127196
0.000149727
9.62901e-05
0.000153137
0.000126689
0.000150613
9.65425e-05
7.48426e-05
7.4842e-05
0.000147876
7.49521e-05
7.49514e-05
9.4611e-05
5.01751e-05
9.44242e-05
5.0188e-05
2.36653e-05
2.36702e-05
9.46133e-05
5.01719e-05
9.44374e-05
5.01849e-05
0.000139219
0.000139221
0.00013923
0.000141758
0.000141752
0.000141767
0.000141767
0.000128355
9.68125e-05
0.000153257
0.000156065
0.000127866
9.70553e-05
0.000154131
2.36632e-05
2.36681e-05
0.000128354
0.000153265
9.6815e-05
0.000156065
0.000127865
0.000154141
9.70561e-05
7.50707e-05
7.507e-05
0.000150084
7.5174e-05
7.51732e-05
9.50067e-05
5.02058e-05
9.48258e-05
5.02188e-05
2.36762e-05
2.36812e-05
9.50097e-05
5.02029e-05
9.48395e-05
5.02158e-05
0.000142607
0.00014262
0.000142626
0.000145211
0.000145216
0.000145213
0.000145233
0.000129473
9.73145e-05
0.000156738
0.000158929
0.000128998
9.75504e-05
0.00015761
2.36741e-05
2.36791e-05
0.000129473
0.000156751
9.73177e-05
0.000158926
0.000128997
0.000157618
9.75517e-05
7.52878e-05
7.52873e-05
0.000152227
7.53882e-05
7.53874e-05
9.53889e-05
5.02365e-05
9.52143e-05
5.02494e-05
2.36874e-05
2.36924e-05
9.53912e-05
5.02336e-05
9.52273e-05
5.02464e-05
0.000146082
0.000146086
0.000146094
0.000148693
0.000148691
0.000148705
0.000148699
0.000130556
9.78009e-05
0.000160186
0.000161723
0.000130098
9.80264e-05
0.000161029
2.36852e-05
2.36903e-05
0.000130555
0.000160196
9.78028e-05
0.000161728
0.000130096
0.000161043
9.80284e-05
7.5496e-05
7.54952e-05
0.000154305
7.55926e-05
7.55917e-05
9.57548e-05
5.02671e-05
9.55862e-05
5.028e-05
2.36986e-05
2.37037e-05
9.57574e-05
5.02641e-05
9.55993e-05
5.0277e-05
0.000149585
0.000149585
0.000149598
0.000152239
0.000152235
0.000152237
0.000152253
0.000131607
9.82673e-05
0.00016358
0.00016448
0.000131159
9.8486e-05
0.000164424
2.36964e-05
2.37015e-05
0.000131605
0.000163583
9.82694e-05
0.000164469
0.000131158
0.000164422
9.84861e-05
7.56976e-05
7.56969e-05
0.000156349
7.57907e-05
7.57899e-05
9.61075e-05
5.02976e-05
9.59449e-05
5.03104e-05
2.37099e-05
2.3715e-05
9.61099e-05
5.02946e-05
9.59584e-05
5.03073e-05
0.0001531
0.00015312
0.000153113
0.000155757
0.000155767
0.000155776
0.000155778
0.000132615
9.87135e-05
0.000166874
0.000167124
0.000132186
9.89223e-05
0.000167686
2.37077e-05
2.37129e-05
0.000132616
0.00016689
9.87173e-05
0.000167136
0.000132185
0.000167705
9.89259e-05
7.58868e-05
7.58861e-05
0.000158296
7.59762e-05
7.59752e-05
9.64474e-05
5.03279e-05
9.62897e-05
5.03407e-05
2.37213e-05
2.37264e-05
9.64495e-05
5.03249e-05
9.63024e-05
5.03377e-05
0.000156672
0.000156662
0.000156689
0.000159327
0.000159317
0.000159323
0.000159332
0.000133606
9.91482e-05
0.000170148
0.00016976
0.000133184
9.93504e-05
0.000170952
2.37191e-05
2.37242e-05
0.000133603
0.000170145
9.91481e-05
0.000169742
0.000133181
0.000170945
9.93483e-05
7.60752e-05
7.60744e-05
0.000160238
7.61596e-05
7.61588e-05
9.67706e-05
5.03579e-05
9.66198e-05
5.03704e-05
2.37327e-05
2.37378e-05
9.67734e-05
5.03549e-05
9.66335e-05
5.03674e-05
0.000160191
0.000160215
0.0001602
0.000162841
0.000162852
0.000162855
0.000162866
0.000134539
9.95539e-05
0.000173291
0.000172264
0.000134139
9.97471e-05
0.000174067
2.37305e-05
2.37356e-05
0.000134543
0.000173307
9.95599e-05
0.000172279
0.000134138
0.000174086
9.97521e-05
7.62438e-05
7.6243e-05
0.000162055
7.63277e-05
7.63268e-05
9.70834e-05
5.03877e-05
9.69365e-05
5.04003e-05
2.37441e-05
2.37492e-05
9.70851e-05
5.03847e-05
9.69489e-05
5.03973e-05
0.000163737
0.000163722
0.000163754
0.000166356
0.000166352
0.000166366
0.000166369
0.000135464
9.99554e-05
0.000176395
0.000174746
0.00013507
0.00010014
0.000177155
2.37419e-05
2.37471e-05
0.000135461
0.000176389
9.99529e-05
0.000174727
0.000135065
0.000177148
0.000100138
7.64183e-05
7.64176e-05
0.000163875
7.64944e-05
7.64935e-05
9.73818e-05
5.04171e-05
9.72416e-05
5.04292e-05
2.37555e-05
2.37606e-05
9.73847e-05
5.04141e-05
9.72555e-05
5.04262e-05
0.000167224
0.000167255
0.000167239
0.000169863
0.000169868
0.000169859
0.000169873
0.000136332
0.000100327
0.000179387
0.000177132
0.000135957
0.000100507
0.000180131
2.37533e-05
2.37584e-05
0.000136335
0.000179406
0.000100335
0.000177144
0.000135955
0.000180149
0.000100509
7.65717e-05
7.65707e-05
0.000165587
7.66492e-05
7.66483e-05
9.76605e-05
5.04459e-05
9.75284e-05
5.04583e-05
2.37669e-05
2.3772e-05
9.76628e-05
5.04429e-05
9.75398e-05
5.04552e-05
0.000170731
0.000170703
0.000170737
0.000173225
0.000173223
0.000173246
0.000173248
0.000137174
0.00010069
0.000182329
0.000179433
0.000136817
0.000100855
0.000183025
2.37647e-05
2.37699e-05
0.000137172
0.000182315
0.000100686
0.000179413
0.000136808
0.000183013
0.000100856
7.67267e-05
7.67263e-05
0.00016726
7.67954e-05
7.67945e-05
9.794e-05
5.04749e-05
9.78068e-05
5.04866e-05
2.37783e-05
2.37833e-05
9.79432e-05
5.04719e-05
9.78216e-05
5.04835e-05
0.000174086
0.00017413
0.000174114
0.000176715
0.000176727
0.000176712
0.000176723
0.000137989
0.000101029
0.000185136
0.000181713
0.00013763
0.000101199
0.000185868
2.37761e-05
2.3781e-05
0.000137989
0.000185162
0.000101039
0.000181728
0.000137627
0.000185888
0.0001012
7.68695e-05
7.68682e-05
0.000168884
7.69403e-05
7.69391e-05
9.81825e-05
5.05024e-05
9.80678e-05
5.05142e-05
2.37894e-05
2.37944e-05
9.81851e-05
5.04994e-05
9.80761e-05
5.05113e-05
0.000177527
0.00017749
0.000177516
0.000179954
0.000179938
0.000179962
0.000179969
0.000138741
0.000101357
0.000187894
0.000183813
0.000138425
0.000101502
0.000188523
2.37872e-05
2.37923e-05
0.000138738
0.000187868
0.000101352
0.000183789
0.000138413
0.000188504
0.000101503
7.70036e-05
7.70031e-05
0.000170399
7.70668e-05
7.70664e-05
9.84362e-05
5.05304e-05
9.83168e-05
5.05415e-05
2.38006e-05
2.38055e-05
9.84416e-05
5.05274e-05
9.83337e-05
5.05383e-05
0.000180841
0.000180884
0.00018088
0.000183203
0.000183228
0.000183217
0.00018323
0.000139499
0.000101665
0.000190607
0.000185994
0.000139163
0.000101816
0.000191281
2.37984e-05
2.38032e-05
0.000139502
0.000190642
0.000101676
0.000186011
0.000139164
0.000191309
0.000101817
7.71378e-05
7.71372e-05
0.000171943
7.71959e-05
7.71944e-05
9.86563e-05
5.0557e-05
9.85423e-05
5.05687e-05
2.38116e-05
2.38166e-05
9.86578e-05
5.05539e-05
9.85476e-05
5.05658e-05
0.000183912
0.000183887
0.000183902
0.000186574
0.000186558
0.000186562
0.000186567
0.000140166
0.000101945
0.000193001
0.000187903
0.000139867
0.000102092
0.000193654
2.38094e-05
2.38145e-05
0.000140152
0.000192969
0.000101937
0.000187874
0.000139847
0.000193623
0.00010209
7.72461e-05
7.72436e-05
0.000173287
7.73148e-05
7.73138e-05
9.88686e-05
5.05831e-05
9.87854e-05
5.05929e-05
2.38223e-05
2.3827e-05
9.88759e-05
5.05801e-05
9.88024e-05
5.05897e-05
0.00018746
0.000187472
0.00018748
0.000189297
0.000189304
0.000189324
0.000189325
0.000140861
0.00010225
0.000195784
0.000189916
0.000140587
0.00010235
0.000196296
2.38201e-05
2.38247e-05
0.000140878
0.000195808
0.000102263
0.000189936
0.000140593
0.000196329
0.000102357
7.73802e-05
7.7382e-05
0.000174737
7.74119e-05
7.74117e-05
9.90751e-05
5.0609e-05
9.89437e-05
5.06209e-05
2.38333e-05
2.38382e-05
9.90776e-05
5.06058e-05
9.89501e-05
5.06179e-05
0.000190009
0.000190024
0.000190021
0.000192861
0.000192882
0.000192853
0.000192887
0.000141448
0.000102452
0.00019778
0.000191769
0.000141127
0.00010263
0.000198527
2.38312e-05
2.3836e-05
0.000141424
0.000197778
0.000102445
0.000191744
0.000141111
0.000198506
0.000102622
7.74593e-05
7.74538e-05
0.000175978
7.75431e-05
7.75408e-05
9.92412e-05
5.0633e-05
9.91975e-05
5.06422e-05
2.38433e-05
2.38479e-05
9.92469e-05
5.063e-05
9.92099e-05
5.06391e-05
0.000193558
0.00019353
0.000193565
0.000195151
0.000195122
0.000195152
0.000195121
0.000142055
0.000102754
0.000200445
0.000193377
0.000141871
0.000102802
0.000200765
2.3841e-05
2.38459e-05
0.000142063
0.000200425
0.000102762
0.000193376
0.000141862
0.000200765
0.000102809
7.75788e-05
7.758e-05
0.000177201
7.7584e-05
7.75846e-05
9.94557e-05
5.06587e-05
9.93137e-05
5.06681e-05
2.38544e-05
2.38583e-05
9.94622e-05
5.06555e-05
9.9326e-05
5.0665e-05
0.000196066
0.0001961
0.00019607
0.000198694
0.00019874
0.000198722
0.000198778
0.000142649
0.000102948
0.000202437
0.00019551
0.000142279
0.000103118
0.000203279
2.38521e-05
2.3856e-05
0.000142645
0.000202464
0.000102945
0.000195511
0.000142283
0.000203295
0.000103119
7.7688e-05
7.76864e-05
0.000178578
7.77369e-05
7.77353e-05
9.95162e-05
5.06783e-05
9.95045e-05
5.06909e-05
2.38633e-05
2.38692e-05
9.95174e-05
5.06753e-05
9.95093e-05
5.06875e-05
0.000199085
0.000199063
0.000199119
0.000200578
0.000200534
0.000200546
0.000200505
0.000142999
0.000103116
0.000204536
0.000196387
0.000142936
0.00010316
0.000204681
2.38612e-05
2.38672e-05
0.000142987
0.000204515
0.000103118
0.000196371
0.00014292
0.000204663
0.000103157
7.7703e-05
7.77011e-05
0.000179275
7.77493e-05
7.77478e-05
9.97784e-05
5.07055e-05
9.96917e-05
5.07101e-05
2.38742e-05
2.38769e-05
9.97868e-05
5.07025e-05
9.96996e-05
5.07073e-05
0.000201622
0.000201636
0.000201593
0.000204418
0.000204486
0.000204467
0.000204531
0.000143772
0.000103447
0.000206712
0.000198894
0.000143356
0.000103516
0.000207639
2.38719e-05
2.38747e-05
0.000143768
0.000206715
0.000103449
0.00019889
0.000143355
0.000207643
0.000103517
7.78946e-05
7.78937e-05
0.000180928
7.78982e-05
7.78978e-05
9.97173e-05
5.072e-05
9.97459e-05
5.0736e-05
2.38823e-05
2.38893e-05
9.97227e-05
5.07169e-05
9.97556e-05
5.07322e-05
0.000204685
0.000204667
0.000204743
0.000205235
0.000205178
0.0002052
0.000205164
0.000143798
0.000103417
0.000208656
0.000199351
0.000143839
0.000103428
0.000208565
2.38803e-05
2.38872e-05
0.000143793
0.000208651
0.000103421
0.000199338
0.000143833
0.000208561
0.000103429
7.7797e-05
7.77958e-05
0.000181175
7.78662e-05
7.78649e-05
0.00010008
5.07507e-05
9.99798e-05
5.07521e-05
2.3894e-05
2.38955e-05
0.000100084
5.07477e-05
9.99853e-05
5.07495e-05
0.000206109
0.000206135
0.000206079
0.000209855
0.00020986
0.000209856
0.000209857
0.0001447
0.000103827
0.000209981
0.000201658
0.000144229
0.000103937
0.000211067
2.38916e-05
2.38932e-05
0.000144693
0.000209991
0.000103827
0.000201658
0.00014423
0.000211073
0.000103936
7.80738e-05
7.80722e-05
0.000182961
7.81011e-05
7.80999e-05
9.98863e-05
5.07549e-05
9.99786e-05
5.07701e-05
2.38988e-05
2.39062e-05
9.98944e-05
5.07518e-05
9.99917e-05
5.07664e-05
0.000210573
0.00021055
0.000210596
0.000210295
0.000210423
0.000210377
0.000210476
0.000144631
0.000103735
0.000213093
0.000202723
0.000144806
0.000103645
0.000213126
2.38967e-05
2.39043e-05
0.00014462
0.000213077
0.000103736
0.000202699
0.000144794
0.000213105
0.000103644
7.78924e-05
7.78916e-05
0.000183323
7.78431e-05
7.78417e-05
0.000100329
5.07949e-05
0.000100085
5.07978e-05
2.39139e-05
2.39152e-05
0.000100336
5.07917e-05
0.000100092
5.0795e-05
0.000210219
0.00021019
0.000210264
0.000213259
0.000213142
0.000213183
0.000213107
0.000145317
0.000103982
0.000212608
0.000203039
0.000144603
0.000104249
0.00021288
2.39116e-05
2.39128e-05
0.000145312
0.000212594
0.000103984
0.000203063
0.000144605
0.000212893
0.000104251
7.81752e-05
7.81736e-05
0.00018414
7.82622e-05
7.82603e-05
0.000100104
5.07919e-05
0.000100294
5.08016e-05
2.39153e-05
2.39222e-05
0.000100109
5.07891e-05
0.000100301
5.07983e-05
0.000214447
0.000214471
0.000214427
0.000215809
0.000215862
0.000215841
0.000215868
0.000145503
0.000104103
0.000216193
0.000205372
0.000145706
0.000103922
0.000216616
2.39129e-05
2.39201e-05
0.00014549
0.000216198
0.000104104
0.000205359
0.000145695
0.000216612
0.000103919
7.80121e-05
7.80117e-05
0.000185199
7.79071e-05
7.79072e-05
0.000100535
5.0834e-05
0.000100165
5.08367e-05
2.39327e-05
2.39324e-05
0.000100547
5.08307e-05
0.000100176
5.08335e-05
0.000215871
0.000215852
0.000215893
0.000217852
0.000217863
0.000217866
0.000217886
0.000145963
0.000104165
0.000216625
0.000206129
0.000145207
0.000104597
0.000216972
2.39305e-05
2.39302e-05
0.000145954
0.000216615
0.000104165
0.000206122
0.0001452
0.000216967
0.000104602
7.82938e-05
7.82925e-05
0.000185995
7.85015e-05
7.84995e-05
9.97309e-05
5.07981e-05
0.00010047
5.07991e-05
2.3922e-05
2.39307e-05
9.97195e-05
5.07949e-05
0.000100464
5.0796e-05
0.000218439
0.00021844
0.000218452
0.000217931
0.000217923
0.000217907
0.000217926
0.000145408
0.000104357
0.000218659
0.00020688
0.00014662
0.000103498
0.00021873
2.39196e-05
2.39285e-05
0.000145399
0.000218659
0.000104361
0.000206872
0.000146614
0.000218728
0.000103493
7.79751e-05
7.79735e-05
0.000185635
7.7444e-05
7.74431e-05
0.000101174
5.09217e-05
9.92925e-05
5.0977e-05
2.39713e-05
2.39814e-05
0.00010119
5.09189e-05
9.93012e-05
5.09743e-05
0.000217196
0.00021718
0.000217191
0.000223278
0.000223274
0.000223282
0.000223268
0.000146276
0.000103042
0.000217493
0.000205654
0.000143632
0.000105297
0.000217365
2.39694e-05
2.39795e-05
0.000146262
0.00021748
0.000103031
0.000205628
0.000143615
0.000217352
0.000105295
7.78796e-05
7.78795e-05
0.000185905
7.92518e-05
7.92519e-05
0.000101891
5.08542e-05