/*--------------------------------*- C++ -*----------------------------------*\
| =========                 |                                                 |
| \\      /  F ield         | OpenFOAM: The Open Source CFD Toolbox           |
|  \\    /   O peration     | Version:  v2012                                 |
|   \\  /    A nd           | Website:  www.openfoam.com                      |
|    \\/     M anipulation  |                                                 |
\*---------------------------------------------------------------------------*/
FoamFile
{
    version     2.0;
    format      ascii;
    class       volScalarField;
    location    "375";
    object      p;
}
// * * * * * * * * * * * * * * * * * * * * * * * * * * * * * * * * * * * * * //

dimensions      [0 2 -2 0 0 0 0];


internalField   nonuniform List<scalar> 
85864
(
0.00167007
0.00166999
0.00166999
0.00167207
0.00163408
0.00163399
0.00163399
0.00163606
0.00159816
0.00159806
0.00159806
0.00160012
0.0015623
0.00156219
0.00156219
0.00156425
0.0015265
0.00152639
0.00152639
0.00152844
0.00149076
0.00149064
0.00149064
0.00149268
0.00145506
0.00145494
0.00145494
0.00145698
0.00141941
0.00141929
0.00141929
0.00142133
0.00138381
0.00138368
0.00138368
0.00138571
0.00134824
0.00134812
0.00134812
0.00135014
0.00131271
0.00131258
0.00131258
0.0013146
0.0012772
0.00127708
0.00127708
0.0012791
0.00124173
0.0012416
0.0012416
0.00124362
0.00120627
0.00120615
0.00120615
0.00120816
0.00117082
0.00117071
0.00117071
0.00117272
0.0011354
0.00113529
0.00113528
0.00113729
0.00109998
0.00109987
0.00109987
0.00110188
0.00106457
0.00106446
0.00106446
0.00106647
0.00102916
0.00102906
0.00102906
0.00103107
0.000993738
0.000993645
0.000993644
0.000995652
0.000958349
0.000958244
0.000958244
0.000960247
0.000922894
0.000922816
0.000922816
0.000924826
0.000887498
0.000887393
0.000887391
0.000889395
0.000852014
0.00085195
0.000851951
0.000853962
0.000816594
0.000816483
0.000816483
0.000818488
0.000781059
0.000781014
0.000781014
0.000783029
0.000745631
0.00074552
0.000745519
0.000747525
0.000710049
0.000709983
0.000709984
0.000711989
0.000674541
0.000674505
0.000674503
0.000676538
0.000638953
0.000638852
0.000638852
0.000640848
0.00060344
0.0006034
0.000603401
0.000605437
0.000567583
0.000567501
0.0005675
0.000569511
0.000532586
0.000532583
0.000532584
0.000534585
0.000496052
0.000495957
0.000495953
0.000498016
0.000460232
0.000460359
0.000460356
0.00046235
0.000427511
0.000427909
0.000427904
0.000429909
0.000390939
0.000390255
0.000390252
0.00039217
0.000350547
0.000350232
0.000350228
0.000352491
0.000314501
0.00031563
0.000315631
0.000318021
0.000283282
0.000283895
0.000283892
0.000285887
0.000253824
0.000252067
0.000252069
0.000253259
0.000218222
0.000217456
0.000217456
0.000219143
0.000176607
0.000176829
0.00017683
0.000179352
0.000135014
0.000136215
0.000136212
0.000138963
9.74152e-05
9.79442e-05
9.79464e-05
0.000100264
6.34788e-05
6.35143e-05
6.35128e-05
6.53561e-05
3.18393e-05
3.09925e-05
3.09896e-05
3.2481e-05
5.63986e-06
6.39959e-06
6.39811e-06
4.81222e-06
0.00167207
0.00164088
0.00166999
0.00166999
0.00164298
0.00164298
0.00167207
0.00164088
0.00166999
0.00166999
0.00164298
0.00164298
0.00166999
0.00164298
0.00164299
0.00167207
0.00164088
0.00166999
0.00164298
0.00164299
0.00164088
0.00163606
0.00160494
0.00163399
0.00163399
0.00160704
0.00160704
0.00163606
0.00160494
0.00163399
0.00163399
0.00160704
0.00160704
0.00163399
0.00160704
0.00160704
0.00163606
0.00160494
0.00163399
0.00160704
0.00160704
0.00160494
0.00160012
0.00156906
0.00159806
0.00159806
0.00157115
0.00157115
0.00160012
0.00156906
0.00159806
0.00159806
0.00157115
0.00157115
0.00159806
0.00157115
0.00157115
0.00160012
0.00156906
0.00159806
0.00157115
0.00157115
0.00156906
0.00156425
0.00153325
0.00156219
0.00156219
0.00153533
0.00153533
0.00156425
0.00153325
0.00156219
0.00156219
0.00153533
0.00153533
0.00156219
0.00153533
0.00153533
0.00156425
0.00153325
0.00156219
0.00153533
0.00153533
0.00153325
0.00152844
0.00149749
0.00152639
0.00152639
0.00149957
0.00149957
0.00152844
0.00149749
0.00152639
0.00152639
0.00149957
0.00149957
0.00152639
0.00149957
0.00149957
0.00152844
0.00149749
0.00152639
0.00149957
0.00149957
0.00149749
0.00149268
0.00146179
0.00149064
0.00149064
0.00146386
0.00146386
0.00149268
0.00146179
0.00149064
0.00149064
0.00146386
0.00146386
0.00149064
0.00146386
0.00146386
0.00149268
0.00146179
0.00149064
0.00146386
0.00146386
0.00146179
0.00145698
0.00142613
0.00145494
0.00145494
0.0014282
0.0014282
0.00145698
0.00142613
0.00145494
0.00145494
0.0014282
0.0014282
0.00145494
0.0014282
0.0014282
0.00145698
0.00142613
0.00145494
0.0014282
0.0014282
0.00142613
0.00142133
0.00139051
0.00141929
0.00141929
0.00139258
0.00139258
0.00142133
0.00139051
0.00141929
0.00141929
0.00139258
0.00139258
0.00141929
0.00139258
0.00139258
0.00142133
0.00139051
0.00141929
0.00139258
0.00139258
0.00139051
0.00138571
0.00135494
0.00138369
0.00138369
0.00135701
0.00135701
0.00138571
0.00135494
0.00138369
0.00138369
0.001357
0.001357
0.00138368
0.00135701
0.00135701
0.00138571
0.00135494
0.00138368
0.00135701
0.00135701
0.00135494
0.00135014
0.0013194
0.00134812
0.00134812
0.00132146
0.00132146
0.00135014
0.0013194
0.00134812
0.00134812
0.00132146
0.00132146
0.00134812
0.00132146
0.00132146
0.00135014
0.0013194
0.00134812
0.00132146
0.00132146
0.0013194
0.00131461
0.00128389
0.00131258
0.00131258
0.00128595
0.00128595
0.0013146
0.00128389
0.00131258
0.00131258
0.00128595
0.00128595
0.00131258
0.00128595
0.00128595
0.00131461
0.00128389
0.00131258
0.00128595
0.00128595
0.00128389
0.0012791
0.00124841
0.00127708
0.00127708
0.00125047
0.00125047
0.0012791
0.00124841
0.00127708
0.00127708
0.00125047
0.00125047
0.00127708
0.00125047
0.00125047
0.0012791
0.00124841
0.00127708
0.00125047
0.00125047
0.00124841
0.00124362
0.00121295
0.0012416
0.0012416
0.00121501
0.00121501
0.00124362
0.00121295
0.0012416
0.0012416
0.00121501
0.00121501
0.0012416
0.00121501
0.00121501
0.00124362
0.00121295
0.0012416
0.00121501
0.00121501
0.00121295
0.00120816
0.00117751
0.00120615
0.00120615
0.00117957
0.00117957
0.00120816
0.00117751
0.00120615
0.00120615
0.00117957
0.00117957
0.00120615
0.00117957
0.00117957
0.00120816
0.00117751
0.00120615
0.00117957
0.00117957
0.00117751
0.00117272
0.00114209
0.00117071
0.00117071
0.00114414
0.00114414
0.00117272
0.00114209
0.00117071
0.00117071
0.00114414
0.00114414
0.00117071
0.00114414
0.00114414
0.00117272
0.00114209
0.00117071
0.00114414
0.00114414
0.00114209
0.00113729
0.00110667
0.00113529
0.00113529
0.00110872
0.00110872
0.00113729
0.00110667
0.00113528
0.00113528
0.00110872
0.00110872
0.00113529
0.00110872
0.00110872
0.00113729
0.00110667
0.00113529
0.00110872
0.00110872
0.00110667
0.00110188
0.00107126
0.00109987
0.00109987
0.00107331
0.00107332
0.00110188
0.00107126
0.00109987
0.00109987
0.00107331
0.00107331
0.00109987
0.00107332
0.00107331
0.00110188
0.00107126
0.00109987
0.00107331
0.00107331
0.00107126
0.00106647
0.00103586
0.00106446
0.00106446
0.00103791
0.00103791
0.00106647
0.00103586
0.00106446
0.00106446
0.00103791
0.00103791
0.00106446
0.00103791
0.00103791
0.00106647
0.00103586
0.00106446
0.00103791
0.00103791
0.00103586
0.00103107
0.00100045
0.00102906
0.00102906
0.0010025
0.0010025
0.00103107
0.00100045
0.00102906
0.00102906
0.0010025
0.0010025
0.00102906
0.0010025
0.0010025
0.00103107
0.00100045
0.00102906
0.0010025
0.0010025
0.00100045
0.000995652
0.00096505
0.000993644
0.000993645
0.000967097
0.000967097
0.000995653
0.00096505
0.000993644
0.000993644
0.000967097
0.000967096
0.000993645
0.000967097
0.000967097
0.000995652
0.000965049
0.000993644
0.000967096
0.000967097
0.000965049
0.000960247
0.000929628
0.000958245
0.000958245
0.00093167
0.000931669
0.000960247
0.000929628
0.000958245
0.000958244
0.00093167
0.000931671
0.000958244
0.000931669
0.000931669
0.000960247
0.000929628
0.000958245
0.00093167
0.00093167
0.000929628
0.000924826
0.000894205
0.000922816
0.000922816
0.000896255
0.000896255
0.000924826
0.000894206
0.000922816
0.000922817
0.000896254
0.000896254
0.000922816
0.000896256
0.000896256
0.000924827
0.000894204
0.000922816
0.000896254
0.000896255
0.000894205
0.000889395
0.000858768
0.000887393
0.000887393
0.000860804
0.000860803
0.000889395
0.000858768
0.000887392
0.000887391
0.000860805
0.000860805
0.000887393
0.000860802
0.000860802
0.000889394
0.000858769
0.000887392
0.000860804
0.000860803
0.000858767
0.000853962
0.000823309
0.00085195
0.00085195
0.000825366
0.000825368
0.000853962
0.00082331
0.000851951
0.000851951
0.000825366
0.000825367
0.00085195
0.000825369
0.00082537
0.000853963
0.00082331
0.00085195
0.000825369
0.00082537
0.000823312
0.000818485
0.00078784
0.000816481
0.000816482
0.000789873
0.000789871
0.000818486
0.000787838
0.000816481
0.000816482
0.000789873
0.000789872
0.000816484
0.00078987
0.000789869
0.000818486
0.000787838
0.000816484
0.00078987
0.000789869
0.000787836
0.000783032
0.000752358
0.000781016
0.000781015
0.000754419
0.000754422
0.00078303
0.000752362
0.000781016
0.000781016
0.000754419
0.00075442
0.000781013
0.000754424
0.000754425
0.00078303
0.000752361
0.000781014
0.000754423
0.000754425
0.000752365
0.000747519
0.000716806
0.000745515
0.000745518
0.000718848
0.000718846
0.000747523
0.000716803
0.000745515
0.000745516
0.000718848
0.000718847
0.000745521
0.000718844
0.000718844
0.000747522
0.000716803
0.000745521
0.000718845
0.000718844
0.000716801
0.000711995
0.000681377
0.000709988
0.000709985
0.000683405
0.000683404
0.00071199
0.000681379
0.000709989
0.000709987
0.000683404
0.000683404
0.000709982
0.000683404
0.000683404
0.000711992
0.000681378
0.000709983
0.000683404
0.000683403
0.000681379
0.000676531
0.000645666
0.000674499
0.000674503
0.000647722
0.000647723
0.000676536
0.000645667
0.000674498
0.0006745
0.000647722
0.000647723
0.000674505
0.000647723
0.000647724
0.000676534
0.000645666
0.000674505
0.000647723
0.000647724
0.000645667
0.000640848
0.000610288
0.000638854
0.000638853
0.000612317
0.000612314
0.000640848
0.000610284
0.000638854
0.000638854
0.000612317
0.000612315
0.000638852
0.000612313
0.000612312
0.000640848
0.000610285
0.000638852
0.000612314
0.000612312
0.000610282
0.000605441
0.000574362
0.000603403
0.000603401
0.000576425
0.000576427
0.000605438
0.000574366
0.000603402
0.000603401
0.000576425
0.000576426
0.0006034
0.000576428
0.000576429
0.000605439
0.000574363
0.0006034
0.000576427
0.000576428
0.000574366
0.000569507
0.000539317
0.000567498
0.0005675
0.000541295
0.000541294
0.00056951
0.000539316
0.000567498
0.000567499
0.000541295
0.000541295
0.000567501
0.000541293
0.000541293
0.000569509
0.000539317
0.000567501
0.000541295
0.000541294
0.000539314
0.000534589
0.000503089
0.000532585
0.000532583
0.000505265
0.000505266
0.000534587
0.000503091
0.000532584
0.000532585
0.000505264
0.000505263
0.000532583
0.000505266
0.000505266
0.000534588
0.000503088
0.000532583
0.000505263
0.000505265
0.000503091
0.000498014
0.000466865
0.000495955
0.000495957
0.000468669
0.00046867
0.000498015
0.000466867
0.000495955
0.000495954
0.00046867
0.000468669
0.000495956
0.00046867
0.000468668
0.000498013
0.000466863
0.000495955
0.000468667
0.000468667
0.000466863
0.00046235
0.000434397
0.000460357
0.000460359
0.000436093
0.000436095
0.000462352
0.0004344
0.000460358
0.000460357
0.000436089
0.00043609
0.000460358
0.000436096
0.000436099
0.000462349
0.000434395
0.000460357
0.000436089
0.000436093
0.000434401
0.000429905
0.000397476
0.000427908
0.000427909
0.000400027
0.000400025
0.000429907
0.000397477
0.000427904
0.000427905
0.000400025
0.000400023
0.000427912
0.000400027
0.000400026
0.000429903
0.000397474
0.000427908
0.000400025
0.000400026
0.000397475
0.000392172
0.00035762
0.000390256
0.000390253
0.000359988
0.000359992
0.000392171
0.000357625
0.000390255
0.000390253
0.000359988
0.000359987
0.000390256
0.000359991
0.00035999
0.000392169
0.000357619
0.000390253
0.000359988
0.000359992
0.000357625
0.000352486
0.000322627
0.000350229
0.000350238
0.000323985
0.000323985
0.000352491
0.000322626
0.000350231
0.000350232
0.000323986
0.000323987
0.000350232
0.000323983
0.000323985
0.000352486
0.000322626
0.000350235
0.000323984
0.000323985
0.000322624
0.000318024
0.000290106
0.000315632
0.000315634
0.000291546
0.000291537
0.000318023
0.000290105
0.000315634
0.000315635
0.000291536
0.000291536
0.000315633
0.000291542
0.000291544
0.000318023
0.000290104
0.000315633
0.000291533
0.000291535
0.000290104
0.000285882
0.000257611
0.000283901
0.000283897
0.000260149
0.00026015
0.000285886
0.000257612
0.000283894
0.000283898
0.00026015
0.00026015
0.000283897
0.000260151
0.00026015
0.000285889
0.000257613
0.000283893
0.000260151
0.000260152
0.000257612
0.000253257
0.000224162
0.000252065
0.000252066
0.000226656
0.000226655
0.000253258
0.000224166
0.000252066
0.000252068
0.000226653
0.000226656
0.000252067
0.000226657
0.000226655
0.000253261
0.000224166
0.000252068
0.00022666
0.000226656
0.000224162
0.000219143
0.000184916
0.000217454
0.000217455
0.00018723
0.000187234
0.000219147
0.000184917
0.000217455
0.000217455
0.000187234
0.000187233
0.000217453
0.000187231
0.00018723
0.000219147
0.000184915
0.000217455
0.000187234
0.000187234
0.000184916
0.000179352
0.000144477
0.000176829
0.00017683
0.000146259
0.000146259
0.000179351
0.000144479
0.00017683
0.000176829
0.000146257
0.000146259
0.000176829
0.00014626
0.000146259
0.000179351
0.000144477
0.00017683
0.000146257
0.000146258
0.000144478
0.000138962
0.00010531
0.000136215
0.000136214
0.000107146
0.000107146
0.000138963
0.000105309
0.000136212
0.000136213
0.000107146
0.000107146
0.000136214
0.000107145
0.000107147
0.000138963
0.000105309
0.000136213
0.000107145
0.000107146
0.00010531
0.000100265
6.99175e-05
9.79499e-05
9.79465e-05
7.17882e-05
7.17892e-05
0.00010026
6.99183e-05
9.79506e-05
9.795e-05
7.17865e-05
7.1788e-05
9.79501e-05
7.17876e-05
7.17879e-05
0.000100264
6.99175e-05
9.79468e-05
7.17861e-05
7.17844e-05
6.99168e-05
6.53572e-05
3.69706e-05
6.35154e-05
6.35128e-05
3.89984e-05
3.89986e-05
6.53558e-05
3.69712e-05
6.35136e-05
6.35139e-05
3.89962e-05
3.89942e-05
6.35137e-05
3.89965e-05
3.89945e-05
6.53572e-05
3.69681e-05
6.3511e-05
3.89942e-05
3.8994e-05
3.69671e-05
3.24858e-05
7.63518e-06
3.09955e-05
3.0995e-05
1.0397e-05
1.03964e-05
3.24846e-05
7.63463e-06
3.09927e-05
3.09902e-05
1.0398e-05
1.03913e-05
3.09899e-05
1.0396e-05
1.03893e-05
3.24831e-05
7.6305e-06
3.09887e-05
1.03939e-05
1.03938e-05
7.62922e-06
4.81661e-06
6.39945e-06
6.399e-06
4.81685e-06
6.40026e-06
6.39504e-06
5.63892e-06
5.63834e-06
5.63717e-06
6.39398e-06
4.81381e-06
6.39725e-06
0.0016586
0.00167207
0.00167208
0.00165858
0.00167207
0.00165859
0.0016586
0.00167207
0.00167208
0.00165858
0.00167007
0.00167008
0.00167007
0.00164307
0.00164307
0.00164307
0.00164307
0.00165871
0.00167206
0.00167005
0.00166098
0.00167207
0.00165864
0.00166105
0.00167207
0.00165859
0.00165871
0.00167005
0.00167206
0.00166099
0.00167207
0.00166105
0.00165864
0.00167208
0.00167208
0.00165888
0.0016586
0.0016586
0.00162263
0.00163607
0.00163608
0.00162262
0.00163607
0.00162262
0.00162263
0.00163607
0.00163608
0.00162262
0.00163408
0.00163408
0.00163408
0.00160713
0.00160713
0.00160713
0.00160713
0.00162274
0.00163606
0.00163405
0.001625
0.00163607
0.00162267
0.00162506
0.00163607
0.00162262
0.00162274
0.00163405
0.00163606
0.001625
0.00163607
0.00162506
0.00162267
0.00163608
0.00163608
0.0016229
0.00162262
0.00162262
0.00158673
0.00160014
0.00160015
0.00158671
0.00160014
0.00158672
0.00158673
0.00160014
0.00160015
0.00158671
0.00159816
0.00159816
0.00159816
0.00157126
0.00157126
0.00157126
0.00157126
0.00158683
0.00160013
0.00159812
0.00158909
0.00160014
0.00158677
0.00158915
0.00160015
0.00158672
0.00158683
0.00159812
0.00160013
0.00158909
0.00160014
0.00158915
0.00158677
0.00160015
0.00160015
0.00158699
0.00158672
0.00158672
0.00155089
0.00156428
0.00156429
0.00155088
0.00156428
0.00155088
0.00155089
0.00156428
0.00156429
0.00155088
0.0015623
0.0015623
0.0015623
0.00153544
0.00153544
0.00153544
0.00153544
0.00155099
0.00156427
0.00156225
0.00155324
0.00156427
0.00155093
0.00155329
0.00156428
0.00155088
0.00155099
0.00156225
0.00156427
0.00155324
0.00156427
0.0015533
0.00155093
0.00156429
0.00156429
0.00155115
0.00155088
0.00155088
0.00151511
0.00152848
0.00152849
0.0015151
0.00152848
0.0015151
0.00151511
0.00152848
0.00152849
0.0015151
0.0015265
0.0015265
0.0015265
0.00149969
0.00149969
0.00149969
0.00149969
0.00151521
0.00152846
0.00152645
0.00151745
0.00152847
0.00151515
0.0015175
0.00152848
0.0015151
0.00151521
0.00152645
0.00152846
0.00151745
0.00152847
0.0015175
0.00151515
0.00152849
0.00152849
0.00151536
0.0015151
0.0015151
0.00147939
0.00149274
0.00149274
0.00147937
0.00149274
0.00147938
0.00147939
0.00149274
0.00149274
0.00147937
0.00149075
0.00149076
0.00149075
0.00146398
0.00146398
0.00146398
0.00146398
0.00147948
0.00149272
0.0014907
0.00148171
0.00149272
0.00147942
0.00148177
0.00149274
0.00147938
0.00147948
0.0014907
0.00149272
0.00148171
0.00149272
0.00148177
0.00147942
0.00149275
0.00149275
0.00147963
0.00147938
0.00147938
0.00144371
0.00145705
0.00145705
0.0014437
0.00145705
0.0014437
0.00144371
0.00145705
0.00145705
0.0014437
0.00145506
0.00145506
0.00145506
0.00142832
0.00142832
0.00142832
0.00142832
0.0014438
0.00145702
0.001455
0.00144603
0.00145703
0.00144374
0.00144608
0.00145705
0.0014437
0.0014438
0.001455
0.00145703
0.00144603
0.00145703
0.00144608
0.00144374
0.00145705
0.00145705
0.00144395
0.0014437
0.0014437
0.00140808
0.0014214
0.0014214
0.00140807
0.00142141
0.00140808
0.00140808
0.0014214
0.0014214
0.00140807
0.00141941
0.00141941
0.00141941
0.00139271
0.00139271
0.00139271
0.00139271
0.00140817
0.00142138
0.00141935
0.00141039
0.00142138
0.00140811
0.00141044
0.0014214
0.00140807
0.00140817
0.00141935
0.00142138
0.00141039
0.00142138
0.00141044
0.00140811
0.00142141
0.00142141
0.00140832
0.00140807
0.00140807
0.00137249
0.0013858
0.0013858
0.00137248
0.0013858
0.00137249
0.00137249
0.0013858
0.0013858
0.00137248
0.00138381
0.00138381
0.00138381
0.00135713
0.00135713
0.00135713
0.00135713
0.00137257
0.00138577
0.00138374
0.00137479
0.00138577
0.00137252
0.00137484
0.0013858
0.00137249
0.00137258
0.00138374
0.00138577
0.00137479
0.00138577
0.00137484
0.00137252
0.0013858
0.0013858
0.00137272
0.00137248
0.00137248
0.00133694
0.00135024
0.00135024
0.00133694
0.00135024
0.00133694
0.00133694
0.00135024
0.00135024
0.00133694
0.00134824
0.00134824
0.00134824
0.00132159
0.00132159
0.00132159
0.00132159
0.00133702
0.00135021
0.00134817
0.00133923
0.00135021
0.00133697
0.00133928
0.00135024
0.00133694
0.00133702
0.00134817
0.00135021
0.00133923
0.00135021
0.00133928
0.00133697
0.00135024
0.00135024
0.00133717
0.00133693
0.00133693
0.00130142
0.00131471
0.00131471
0.00130142
0.00131471
0.00130142
0.00130142
0.00131471
0.00131471
0.00130142
0.00131271
0.00131271
0.00131271
0.00128608
0.00128608
0.00128608
0.00128608
0.0013015
0.00131468
0.00131263
0.0013037
0.00131467
0.00130145
0.00130375
0.00131471
0.00130142
0.0013015
0.00131263
0.00131468
0.0013037
0.00131467
0.00130375
0.00130145
0.00131471
0.00131471
0.00130164
0.00130142
0.00130142
0.00126594
0.00127921
0.00127921
0.00126593
0.00127921
0.00126593
0.00126594
0.00127921
0.00127921
0.00126593
0.00127721
0.0012772
0.00127721
0.00125059
0.00125059
0.00125059
0.00125059
0.00126601
0.00127918
0.00127712
0.00126821
0.00127917
0.00126596
0.00126825
0.00127921
0.00126593
0.00126601
0.00127712
0.00127918
0.00126821
0.00127917
0.00126825
0.00126596
0.00127921
0.00127921
0.00126615
0.00126593
0.00126593
0.00123047
0.00124374
0.00124374
0.00123047
0.00124374
0.00123047
0.00123047
0.00124374
0.00124374
0.00123047
0.00124172
0.00124172
0.00124172
0.00121513
0.00121513
0.00121513
0.00121513
0.00123054
0.00124371
0.00124164
0.00123274
0.0012437
0.0012305
0.00123278
0.00124374
0.00123047
0.00123054
0.00124164
0.00124371
0.00123274
0.0012437
0.00123278
0.0012305
0.00124374
0.00124374
0.00123068
0.00123046
0.00123046
0.00119503
0.00120829
0.00120828
0.00119502
0.00120829
0.00119502
0.00119503
0.00120829
0.00120828
0.00119502
0.00120627
0.00120627
0.00120627
0.00117968
0.00117968
0.00117968
0.00117968
0.0011951
0.00120825
0.00120619
0.00119729
0.00120824
0.00119505
0.00119733
0.00120829
0.00119503
0.0011951
0.00120619
0.00120825
0.00119729
0.00120824
0.00119732
0.00119505
0.00120829
0.00120829
0.00119523
0.00119502
0.00119502
0.0011596
0.00117286
0.00117285
0.0011596
0.00117286
0.0011596
0.0011596
0.00117286
0.00117285
0.0011596
0.00117082
0.00117083
0.00117082
0.00114426
0.00114425
0.00114425
0.00114425
0.00115967
0.00117282
0.00117075
0.00116185
0.00117281
0.00115963
0.00116189
0.00117286
0.0011596
0.00115967
0.00117075
0.00117282
0.00116185
0.00117281
0.00116189
0.00115962
0.00117285
0.00117285
0.0011598
0.00115959
0.00115959
0.00112418
0.00113743
0.00113743
0.00112418
0.00113743
0.00112418
0.00112418
0.00113743
0.00113743
0.00112418
0.0011354
0.0011354
0.0011354
0.00110883
0.00110883
0.00110883
0.00110883
0.00112425
0.0011374
0.00113533
0.00112643
0.00113739
0.00112421
0.00112647
0.00113743
0.00112418
0.00112425
0.00113532
0.0011374
0.00112643
0.00113739
0.00112647
0.00112421
0.00113743
0.00113743
0.00112438
0.00112417
0.00112417
0.00108878
0.00110203
0.00110202
0.00108877
0.00110203
0.00108878
0.00108878
0.00110203
0.00110202
0.00108877
0.00109998
0.00109998
0.00109998
0.00107343
0.00107343
0.00107343
0.00107342
0.00108884
0.00110199
0.00109991
0.00109102
0.00110198
0.0010888
0.00109106
0.00110203
0.00108878
0.00108884
0.00109991
0.00110199
0.00109102
0.00110198
0.00109106
0.0010888
0.00110203
0.00110203
0.00108897
0.00108877
0.00108877
0.00105337
0.00106662
0.00106662
0.00105337
0.00106662
0.00105337
0.00105337
0.00106662
0.00106661
0.00105337
0.00106457
0.00106457
0.00106457
0.00103801
0.00103801
0.00103801
0.00103801
0.00105343
0.00106658
0.0010645
0.00105561
0.00106657
0.0010534
0.00105564
0.00106662
0.00105338
0.00105343
0.0010645
0.00106658
0.00105561
0.00106657
0.00105564
0.0010534
0.00106662
0.00106662
0.00105356
0.00105336
0.00105336
0.00101797
0.00103123
0.00103122
0.00101797
0.00103123
0.00101797
0.00101797
0.00103123
0.00103122
0.00101797
0.00102916
0.00102916
0.00102916
0.0010026
0.0010026
0.0010026
0.0010026
0.00101803
0.00103119
0.0010291
0.00102021
0.00103117
0.00101799
0.00102025
0.00103123
0.00101797
0.00101803
0.0010291
0.00103119
0.00102021
0.00103117
0.00102025
0.00101799
0.00103122
0.00103122
0.00101816
0.00101796
0.00101796
0.000982573
0.000995819
0.00099581
0.000982576
0.000995819
0.000982578
0.000982572
0.000995818
0.00099581
0.000982576
0.00099374
0.000993739
0.000993739
0.000967192
0.000967192
0.000967191
0.000967191
0.000982628
0.000995779
0.000993677
0.000984795
0.00099576
0.000982597
0.000984825
0.000995819
0.000982578
0.000982626
0.000993676
0.000995777
0.000984793
0.000995759
0.000984823
0.000982596
0.000995814
0.000995814
0.000982751
0.000982566
0.000982566
0.000947152
0.000960414
0.00096041
0.000947149
0.000960413
0.000947151
0.000947152
0.000960415
0.000960411
0.000947149
0.000958349
0.000958348
0.000958349
0.000931758
0.000931757
0.000931759
0.000931757
0.000947212
0.000960376
0.000958281
0.000949387
0.000960361
0.000947173
0.000949424
0.000960413
0.000947151
0.000947213
0.00095828
0.000960377
0.000949388
0.000960362
0.000949424
0.000947174
0.00096041
0.000960411
0.000947337
0.000947139
0.000947139
0.000911752
0.000925006
0.000924993
0.000911755
0.000925008
0.000911757
0.000911751
0.000925006
0.000924993
0.000911754
0.000922893
0.000922895
0.000922893
0.000896358
0.000896359
0.000896358
0.00089636
0.000911802
0.000924963
0.000922842
0.000913965
0.000924938
0.000911776
0.000913993
0.000925008
0.000911755
0.0009118
0.000922843
0.000924962
0.000913965
0.000924937
0.000913993
0.000911774
0.000925002
0.000925002
0.000911922
0.000911746
0.000911745
0.000876299
0.000889565
0.000889564
0.000876303
0.000889563
0.000876307
0.0008763
0.000889565
0.000889564
0.000876303
0.0008875
0.000887498
0.000887501
0.00086087
0.000860868
0.000860869
0.000860867
0.000876355
0.000889527
0.000887429
0.000878525
0.000889516
0.000876322
0.000878559
0.000889563
0.000876309
0.000876357
0.000887427
0.000889527
0.000878525
0.000889514
0.000878558
0.000876323
0.000889557
0.000889557
0.000876478
0.000876292
0.000876292
0.000840886
0.000854159
0.000854144
0.00084088
0.000854162
0.000840879
0.000840885
0.00085416
0.000854145
0.000840881
0.000852012
0.000852014
0.000852011
0.000825471
0.000825473
0.000825473
0.000825475
0.000840937
0.000854114
0.000851971
0.000843097
0.000854081
0.000840906
0.000843123
0.000854161
0.000840878
0.000840938
0.000851973
0.000854116
0.000843098
0.000854083
0.000843125
0.000840907
0.000854155
0.000854156
0.000841056
0.000840873
0.000840873
0.000805387
0.000818663
0.000818654
0.000805399
0.000818663
0.000805403
0.000805388
0.000818662
0.000818654
0.000805398
0.000816596
0.000816596
0.000816599
0.000789928
0.000789926
0.000789926
0.000789925
0.000805435
0.000818621
0.000816524
0.000807599
0.00081861
0.000805412
0.000807635
0.000818664
0.000805405
0.000805435
0.000816524
0.000818621
0.000807599
0.000818609
0.000807634
0.000805412
0.000818657
0.000818657
0.000805552
0.000805386
0.000805386
0.000769963
0.000783245
0.00078323
0.000769952
0.000783246
0.000769952
0.000769962
0.000783245
0.00078323
0.000769953
0.000781057
0.000781057
0.000781055
0.000754512
0.000754513
0.000754512
0.000754513
0.000770012
0.000783196
0.000781029
0.000772159
0.000783158
0.000769985
0.000772176
0.000783246
0.00076995
0.000770012
0.00078103
0.000783197
0.000772159
0.000783158
0.000772176
0.000769985
0.000783238
0.000783238
0.000770131
0.000769949
0.000769949
0.000734389
0.000747689
0.000747681
0.000734399
0.000747689
0.000734404
0.000734389
0.000747689
0.000747681
0.000734399
0.000745636
0.000745634
0.000745638
0.00071893
0.00071893
0.00071893
0.00071893
0.000734437
0.00074765
0.000745564
0.000736612
0.000747643
0.000734412
0.000736654
0.00074769
0.000734406
0.000734437
0.000745563
0.00074765
0.000736611
0.000747643
0.000736653
0.000734412
0.000747685
0.000747685
0.000734553
0.000734386
0.000734386
0.000698969
0.00071224
0.000712215
0.000698969
0.00071224
0.000698965
0.000698969
0.00071224
0.000712216
0.000698969
0.000710046
0.000710047
0.000710045
0.00068342
0.000683418
0.000683419
0.000683418
0.000699
0.000712182
0.000710003
0.000701129
0.000712129
0.000698986
0.000701143
0.000712241
0.000698964
0.000699001
0.000710004
0.000712183
0.000701131
0.00071213
0.000701144
0.000698986
0.000712228
0.000712228
0.000699104
0.000698953
0.000698954
0.000663301
0.00067666
0.000676667
0.000663306
0.000676663
0.000663316
0.0006633
0.00067666
0.000676667
0.000663306
0.00067454
0.00067454
0.000674539
0.000647838
0.000647842
0.00064784
0.000647843
0.000663367
0.000676636
0.000674522
0.000665569
0.000676647
0.000663331
0.000665606
0.000676661
0.000663316
0.000663365
0.000674521
0.000676635
0.000665566
0.000676646
0.000665604
0.00066333
0.000676664
0.000676664
0.000663499
0.000663308
0.000663308
0.000627867
0.000641122
0.000641082
0.000627877
0.000641125
0.000627871
0.000627867
0.000641122
0.000641082
0.000627877
0.000638953
0.000638953
0.000638953
0.000612351
0.000612349
0.00061235
0.000612349
0.000627881
0.000641053
0.000638877
0.000630011
0.000640992
0.000627879
0.000630026
0.000641126
0.000627871
0.000627882
0.000638877
0.000641054
0.000630012
0.000640992
0.000630027
0.000627879
0.000641111
0.000641111
0.000627975
0.000627847
0.000627847
0.00059213
0.000605552
0.000605578
0.000592124
0.000605538
0.000592127
0.000592129
0.000605551
0.000605579
0.000592123
0.000603439
0.000603439
0.000603439
0.000576495
0.000576497
0.000576496
0.000576497
0.000592211
0.000605535
0.000603422
0.000594415
0.000605562
0.000592159
0.000594453
0.000605536
0.000592125
0.000592211
0.000603422
0.000605534
0.000594414
0.000605562
0.000594452
0.000592157
0.000605536
0.000605537
0.000592355
0.000592123
0.000592123
0.000556702
0.0005699
0.000569814
0.000556742
0.000569933
0.000556759
0.000556702
0.000569901
0.000569816
0.000556744
0.000567583
0.000567583
0.000567583
0.00054133
0.000541329
0.00054133
0.000541329
0.000556658
0.000569795
0.000567522
0.000558704
0.000569675
0.000556716
0.000558709
0.000569935
0.000556761
0.000556659
0.000567522
0.000569795
0.000558705
0.000569675
0.000558709
0.000556716
0.000569908
0.000569908
0.000556699
0.000556729
0.000556729
0.000521023
0.000534545
0.000534659
0.000520924
0.000534499
0.000520896
0.000521019
0.000534543
0.000534658
0.000520921
0.000532585
0.000532587
0.000532585
0.000505369
0.000505371
0.000505369
0.000505371
0.000521289
0.000534628
0.000532575
0.000523718
0.000534726
0.00052106
0.000523754
0.000534496
0.000520892
0.000521288
0.000532575
0.000534629
0.000523718
0.000534727
0.000523753
0.000521058
0.000534543
0.000534542
0.000521594
0.000520925
0.000520924
0.000484698
0.000498095
0.000498039
0.000484993
0.00049813
0.000484993
0.000484723
0.000498092
0.000498036
0.000484973
0.000496054
0.00049605
0.000496052
0.00046871
0.000468712
0.000468709
0.00046871
0.000484329
0.000498016
0.000495996
0.000486581
0.000498045
0.000484691
0.000486667
0.000498127
0.000485003
0.000484327
0.000495994
0.000498011
0.000486577
0.000498042
0.000486664
0.000484673
0.000498082
0.000498081
0.000484351
0.000484903
0.000484901
0.000450756
0.000463461
0.00046336
0.000450731
0.000463452
0.000450715
0.000450755
0.000463462
0.000463363
0.000450731
0.000460234
0.000460231
0.000460233
0.000435732
0.000435737
0.000435731
0.000435747
0.000450641
0.000463255
0.000460234
0.000452198
0.000462932
0.00045074
0.000452128
0.000463453
0.000450714
0.000450638
0.00046023
0.000463255
0.000452195
0.000462929
0.000452124
0.000450738
0.000463393
0.000463391
0.000450459
0.000450723
0.00045072
0.000415109
0.000428603
0.000428823
0.000414884
0.000428612
0.000414902
0.000415104
0.000428599
0.00042882
0.000414883
0.000427514
0.000427509
0.000427516
0.00040087
0.000400868
0.000400868
0.000400869
0.000415753
0.000428938
0.00042793
0.000419064
0.000429375
0.000415259
0.000419295
0.000428606
0.000414896
0.000415748
0.000427924
0.000428937