/*--------------------------------*- C++ -*----------------------------------*\
| =========                 |                                                 |
| \\      /  F ield         | OpenFOAM: The Open Source CFD Toolbox           |
|  \\    /   O peration     | Version:  v2012                                 |
|   \\  /    A nd           | Website:  www.openfoam.com                      |
|    \\/     M anipulation  |                                                 |
\*---------------------------------------------------------------------------*/
FoamFile
{
    version     2.0;
    format      ascii;
    class       surfaceScalarField;
    location    "375";
    object      phi;
}
// * * * * * * * * * * * * * * * * * * * * * * * * * * * * * * * * * * * * * //

dimensions      [0 3 -1 0 0 0 0];
oriented        oriented;


internalField   nonuniform List<scalar> 
248808
(
-2.18891e-07
-2.19103e-07
1.92496e-07
1.92544e-07
0.00119109
-1.24757e-06
2.18585e-07
7.1917e-08
0.00114033
-2.50626e-07
1.22055e-06
2.26456e-07
8.54135e-07
-2.44106e-07
-9.00263e-07
1.96436e-07
-1.2421e-06
2.19039e-07
7.28466e-08
0.00113996
-2.50689e-07
1.21487e-06
2.26384e-07
8.53983e-07
-2.46735e-07
-9.00114e-07
1.99099e-07
1.27653e-06
1.24194e-06
-2.35e-07
-2.40371e-07
0.000269464
-1.93961e-07
-1.93855e-07
-0.00119122
1.77217e-07
1.77038e-07
0.00119125
-0.0011399
-1.24205e-06
1.94514e-07
6.09401e-08
0.00113976
-2.46237e-07
1.22188e-06
2.28329e-07
8.56889e-07
-2.38497e-07
-8.93969e-07
1.9967e-07
-0.00113953
-1.2364e-06
1.9434e-07
6.03687e-08
0.00113939
-2.46133e-07
1.21639e-06
2.28412e-07
8.56731e-07
-2.41127e-07
-8.93845e-07
2.02367e-07
-0.000271363
1.27117e-06
1.23679e-06
-2.31179e-07
-2.3641e-07
0.000269323
-1.70553e-07
-1.70169e-07
-0.00119133
1.62609e-07
1.63491e-07
0.00119134
-0.00113934
-1.23714e-06
1.70025e-07
5.23675e-08
0.0011392
-2.42431e-07
1.2228e-06
2.29742e-07
8.59557e-07
-2.33105e-07
-8.87953e-07
2.02805e-07
-0.00113897
-1.23158e-06
1.69584e-07
5.21153e-08
0.00113883
-2.42406e-07
1.21725e-06
2.29767e-07
8.5942e-07
-2.35732e-07
-8.87808e-07
2.05501e-07
-0.000271228
1.26605e-06
1.23167e-06
-2.27519e-07
-2.32772e-07
0.00026919
-1.47165e-07
-1.47053e-07
-0.00119136
1.48201e-07
1.48594e-07
0.00119135
-0.0011388
-1.23251e-06
1.46728e-07
4.39919e-08
0.00113867
-2.38812e-07
1.22372e-06
2.31132e-07
8.61991e-07
-2.28123e-07
-8.82379e-07
2.05661e-07
-0.00113843
-1.22695e-06
1.46628e-07
4.41109e-08
0.0011383
-2.38784e-07
1.21817e-06
2.31162e-07
8.61856e-07
-2.30743e-07
-8.82225e-07
2.08356e-07
-0.000271102
1.26146e-06
1.22699e-06
-2.24201e-07
-2.29503e-07
0.000269068
-1.24301e-07
-1.24163e-07
-0.00119132
1.32719e-07
1.32663e-07
0.00119131
-0.00113828
-1.22801e-06
1.2443e-07
3.52875e-08
0.00113816
-2.35317e-07
1.22466e-06
2.32475e-07
8.64394e-07
-2.23311e-07
-8.77013e-07
2.08454e-07
-0.00113791
-1.22248e-06
1.24478e-07
3.52854e-08
0.00113779
-2.3531e-07
1.21909e-06
2.32489e-07
8.64213e-07
-2.25973e-07
-8.76908e-07
2.11113e-07
-0.000270985
1.25708e-06
1.22271e-06
-2.21138e-07
-2.26371e-07
0.000268953
-1.02828e-07
-1.02624e-07
-0.00119124
1.17755e-07
1.17987e-07
0.00119121
-0.00113779
-1.22406e-06
1.0255e-07
2.83399e-08
0.00113767
-2.32288e-07
1.22529e-06
2.33508e-07
8.66632e-07
-2.18813e-07
-8.71993e-07
2.11053e-07
-0.00113742
-1.21851e-06
1.0244e-07
2.82979e-08
0.0011373
-2.32273e-07
1.21974e-06
2.33516e-07
8.6646e-07
-2.21456e-07
-8.71867e-07
2.13718e-07
-0.000270876
1.25302e-06
1.21864e-06
-2.18308e-07
-2.23566e-07
0.000268846
-8.24169e-08
-8.20926e-08
-0.0011911
1.03084e-07
1.03414e-07
0.00119106
-0.00113731
-1.22033e-06
8.23106e-08
2.15375e-08
0.0011372
-2.29443e-07
1.22588e-06
2.34453e-07
8.6865e-07
-2.14675e-07
-8.67343e-07
2.13376e-07
-0.00113695
-1.21477e-06
8.2114e-08
2.15182e-08
0.00113683
-2.29408e-07
1.22035e-06
2.34488e-07
8.68518e-07
-2.17289e-07
-8.67195e-07
2.16086e-07
-0.000270776
1.24926e-06
1.21492e-06
-2.1575e-07
-2.20981e-07
0.000268748
-6.30434e-08
-6.29281e-08
-0.00119091
8.93636e-08
8.91392e-08
0.00119086
-0.00113687
-1.21672e-06
6.25847e-08
1.48463e-08
0.00113676
-2.26653e-07
1.22656e-06
2.35455e-07
8.70623e-07
-2.10716e-07
-8.62913e-07
2.1563e-07
-0.0011365
-1.21124e-06
6.28099e-08
1.49481e-08
0.00113639
-2.26697e-07
1.22095e-06
2.35422e-07
8.70406e-07
-2.13409e-07
-8.62836e-07
2.18255e-07
-0.000270683
1.24573e-06
1.21138e-06
-2.13308e-07
-2.18548e-07
0.000268658
-4.43089e-08
-4.39541e-08
-0.00119069
7.4556e-08
7.5046e-08
0.00119063
-0.00113644
-1.21361e-06
4.42405e-08
9.33367e-09
0.00113634
-2.24347e-07
1.22689e-06
2.36081e-07
8.72385e-07
-2.07101e-07
-8.58851e-07
2.17653e-07
-0.00113607
-1.20804e-06
4.38516e-08
9.36104e-09
0.00113597
-2.24306e-07
1.22137e-06
2.36116e-07
8.72275e-07
-2.09678e-07
-8.58664e-07
2.2038e-07
-0.000270599
1.24254e-06
1.20819e-06
-2.11175e-07
-2.16415e-07
0.000268575
-2.66386e-08
-2.63592e-08
-0.00119043
6.12024e-08
6.09066e-08
0.00119036
-0.00113604
-1.21049e-06
2.62973e-08
3.77583e-09
0.00113594
-2.21981e-07
1.22742e-06
2.36857e-07
8.74105e-07
-2.03621e-07
-8.54951e-07
2.1959e-07
-0.00113567
-1.20498e-06
2.66223e-08
3.66054e-09
0.00113557
-2.21966e-07
1.22186e-06
2.36882e-07
8.73857e-07
-2.06344e-07
-8.54917e-07
2.22197e-07
-0.000270521
1.2394e-06
1.20514e-06
-2.09109e-07
-2.14294e-07
0.0002685
-1.01432e-08
-9.79186e-09
-0.00119015
4.76924e-08
4.82234e-08
0.00119007
-0.00113566
-1.20783e-06
9.75022e-09
-8.38713e-10
0.00113557
-2.20007e-07
1.22765e-06
2.37346e-07
8.75646e-07
-2.0045e-07
-8.5141e-07
2.21358e-07
-0.00113529
-1.20228e-06
9.30428e-09
-6.71104e-10
0.0011352
-2.19991e-07
1.2221e-06
2.37351e-07
8.75537e-07
-2.03022e-07
-8.51208e-07
2.24076e-07
-0.000270451
1.23672e-06
1.20237e-06
-2.07284e-07
-2.1253e-07
0.000268432
5.80389e-09
6.16777e-09
-0.00118983
3.47731e-08
3.4518e-08
0.00118975
-0.0011353
-1.20516e-06
-5.9483e-09
-5.88954e-09
0.00113522
-2.18025e-07
1.22804e-06
2.37933e-07
8.77101e-07
-1.97501e-07
-8.4806e-07
2.22951e-07
-0.00113493
-1.19961e-06
-5.66648e-09
-6.18592e-09
0.00113485
-2.17965e-07
1.22253e-06
2.38005e-07
8.76875e-07
-2.00206e-07
-8.48014e-07
2.25589e-07
-0.000270388
1.23408e-06
1.19983e-06
-2.05633e-07
-2.1082e-07
0.00026837
2.02378e-08
2.0571e-08
-0.0011895
2.24885e-08
2.28091e-08
0.00118942
-0.00113497
-1.20278e-06
-2.07076e-08
-9.88054e-09
0.00113489
-2.16266e-07
1.2283e-06
2.3838e-07
8.78458e-07
-1.94744e-07
-8.44975e-07
2.24476e-07
-0.0011346
-1.19728e-06
-2.09505e-08
-9.51169e-09
0.00113452
-2.16299e-07
1.2227e-06
2.38341e-07
8.78307e-07
-1.97361e-07
-8.44807e-07
2.27142e-07
-0.000270331
1.23164e-06
1.19731e-06
-2.03941e-07
-2.09185e-07
0.000268315
3.41769e-08
3.47318e-08
-0.00118915
1.06337e-08
1.06394e-08
0.00118906
-0.00113466
-1.20047e-06
-3.46978e-08
-1.39297e-08
0.00113458
-2.14553e-07
1.22864e-06
2.38883e-07
8.79568e-07
-1.9232e-07
-8.42208e-07
2.25696e-07
-0.00113429
-1.19489e-06
-3.46227e-08
-1.45012e-08
0.00113421
-2.14455e-07
1.22317e-06
2.38983e-07
8.79369e-07
-1.94991e-07
-8.42135e-07
2.28371e-07
-0.00027028
1.22936e-06
1.19515e-06
-2.02569e-07
-2.07742e-07
0.000268266
4.70259e-08
4.7019e-08
-0.00118879
-8.32529e-10
-8.81831e-10
0.00118869
-0.00113436
-1.19846e-06
-4.68486e-08
-1.78003e-08
0.00113429
-2.13074e-07
1.22881e-06
2.39205e-07
8.80643e-07
-1.9003e-07
-8.39672e-07
2.26929e-07
-0.001134
-1.193e-06
-4.69503e-08
-1.71314e-08
0.00113393
-2.13128e-07
1.22318e-06
2.39149e-07
8.80489e-07
-1.92657e-07
-8.39502e-07
2.29583e-07
-0.000270236
1.22737e-06
1.19298e-06
-2.01138e-07
-2.06427e-07
0.000268223
5.71913e-08
5.82002e-08
-0.00118841
-9.82455e-09
-9.49908e-09
0.00118831
-0.00113409
-1.19656e-06
-5.82663e-08
-2.12442e-08
0.00113403
-2.11663e-07
1.22898e-06
2.39539e-07
8.8147e-07
-1.88063e-07
-8.37391e-07
2.27814e-07
-0.00113373
-1.19097e-06
-5.8187e-08
-2.20262e-08
0.00113366
-2.11558e-07
1.22353e-06
2.39654e-07
8.81252e-07
-1.90756e-07
-8.37343e-07
2.30472e-07
-0.000270197
1.22535e-06
1.19124e-06
-2.00049e-07
-2.05168e-07
0.000268186
6.86957e-08
6.82513e-08
-0.00118802
-1.95621e-08
-1.99275e-08
0.00118793
-0.00113384
-1.19466e-06
-6.84306e-08
-2.6058e-08
0.00113378
-2.10197e-07
1.22935e-06
2.40036e-07
8.82359e-07
-1.86181e-07
-8.35289e-07
2.28799e-07
-0.00113348
-1.18918e-06
-6.84772e-08
-2.54475e-08
0.00113342
-2.10236e-07
1.22373e-06
2.39982e-07
8.82205e-07
-1.88802e-07
-8.35112e-07
2.31456e-07
-0.000270163
1.22367e-06
1.18919e-06
-1.98707e-07
-2.04076e-07
0.000268153
7.64579e-08
7.76772e-08
-0.00118763
-2.82692e-08
-2.7763e-08
0.00118753
-0.00113361
-1.19338e-06
-7.69707e-08
-2.76111e-08
0.00113355
-2.09313e-07
1.22912e-06
2.39985e-07
8.828e-07
-1.84773e-07
-8.3365e-07
2.29327e-07
-0.00113324
-1.18786e-06
-7.71378e-08
-2.80304e-08
0.00113319
-2.09272e-07
1.22361e-06
2.40052e-07
8.82631e-07
-1.87432e-07
-8.33554e-07
2.32018e-07
-0.000270136
1.22205e-06
1.18809e-06
-1.98059e-07
-2.03078e-07
0.000268127
8.58121e-08
8.55612e-08
-0.00118724
-3.48259e-08
-3.50754e-08
0.00118713
-0.00113339
-1.19148e-06
-8.65614e-08
-3.29056e-08
0.00113334
-2.07833e-07
1.2297e-06
2.40585e-07
8.83663e-07
-1.83069e-07
-8.31674e-07
2.30142e-07
-0.00113303
-1.18591e-06
-8.62054e-08
-3.28155e-08
0.00113298
-2.07768e-07
1.22418e-06
2.40627e-07
8.83408e-07
-1.85768e-07
-8.316e-07
2.32743e-07
-0.000270112
1.22055e-06
1.18594e-06
-1.96664e-07
-2.02152e-07
0.000268104
9.38556e-08
9.43964e-08
-0.00118683
-4.48842e-08
-4.50666e-08
0.00118674
-0.0011332
-1.19049e-06
-9.34091e-08
-3.469e-08
0.00113315
-2.07088e-07
1.22954e-06
2.40641e-07
8.84058e-07
-1.81948e-07
-8.30469e-07
2.30709e-07
-0.00113283
-1.18503e-06
-9.365e-08
-3.45794e-08
0.00113279
-2.0714e-07
1.22393e-06
2.40587e-07
8.83945e-07
-1.84552e-07
-8.30305e-07
2.33422e-07
-0.000270093
1.21922e-06
1.18525e-06
-1.9626e-07
-2.01246e-07
0.000268086
9.7563e-08
9.83597e-08
-0.00118643
-4.74769e-08
-4.65882e-08
0.00118633
-0.00113302
-1.18939e-06
-9.86106e-08
-3.69992e-08
0.00113297
-2.06377e-07
1.22934e-06
2.40501e-07
8.84037e-07
-1.8119e-07
-8.2938e-07
2.30575e-07
-0.00113265
-1.18382e-06
-9.87657e-08
-3.72904e-08
0.00113261
-2.06275e-07
1.22389e-06
2.4063e-07
8.83823e-07
-1.83888e-07
-8.29296e-07
2.33204e-07
-0.000270079
1.21826e-06
1.18394e-06
-1.95576e-07
-2.009e-07
0.000268073
1.08871e-07
1.08314e-07
-0.00118603
-5.75688e-08
-5.88866e-08
0.00118593
-0.00113285
-1.18775e-06
-1.09065e-07
-4.12929e-08
0.00113281
-2.04975e-07
1.23018e-06
2.41371e-07
8.8556e-07
-1.79114e-07
-8.27319e-07
2.32177e-07
-0.00113249
-1.18226e-06
-1.08644e-07
-4.10626e-08
0.00113245
-2.04999e-07
1.22455e-06
2.41312e-07
8.85383e-07
-1.81738e-07
-8.27196e-07
2.34865e-07
-0.000270067
1.21666e-06
1.18221e-06
-1.94209e-07
-1.99542e-07
0.000268062
1.08599e-07
1.10093e-07
-0.00118563
-6.09297e-08
-5.95716e-08
0.00118553
-0.0011327
-1.18778e-06
-1.0842e-07
-4.18107e-08
0.00113267
-2.05127e-07
1.22921e-06
2.40667e-07
8.83943e-07
-1.80148e-07
-8.28173e-07
2.30702e-07
-0.00113234
-1.18223e-06
-1.08909e-07
-4.20482e-08
0.0011323
-2.05101e-07
1.22373e-06
2.40696e-07
8.83824e-07
-1.82798e-07
-8.2801e-07
2.33375e-07
-0.000270063
1.21659e-06
1.18274e-06
-1.95144e-07
-2.00084e-07
0.000268059
1.14969e-07
1.14611e-07
-0.00118524
-6.43185e-08
-6.50736e-08
0.00118513
-0.00113257
-1.18641e-06
-1.16778e-07
-4.32836e-08
0.00113253
-2.04184e-07
1.22956e-06
2.40881e-07
8.8599e-07
-1.77579e-07
-8.25391e-07
2.32355e-07
-0.0011322
-1.18099e-06
-1.16711e-07
-4.30825e-08
0.00113217
-2.04196e-07
1.22394e-06
2.4089e-07
8.85811e-07
-1.8021e-07
-8.25247e-07
2.35016e-07
-0.000270057
1.21513e-06
1.1806e-06
-1.93267e-07
-1.98716e-07
0.000268054
1.22653e-07
1.2316e-07
-0.00118483
-7.29792e-08
-7.26567e-08
0.00118473
-0.00113244
-1.18545e-06
-1.20714e-07
-4.83716e-08
0.00113241
-2.033e-07
1.22996e-06
2.41275e-07
8.84834e-07
-1.78362e-07
-8.26365e-07
2.31655e-07
-0.00113207
-1.17982e-06
-1.20655e-07
-4.85358e-08
0.00113205
-2.03253e-07
1.2245e-06
2.41285e-07
8.84669e-07
-1.80996e-07
-8.26275e-07
2.34349e-07
-0.00027006
1.21462e-06
1.18047e-06
-1.93591e-07
-1.98727e-07
0.000268057
1.19565e-07
1.19938e-07
-0.00118444
-7.30487e-08
-7.35497e-08
0.00118435
-0.00113234
-1.1856e-06
-1.22907e-07
-4.48194e-08
0.00113231
-2.03581e-07
1.22891e-06
2.40592e-07
8.85962e-07
-1.76781e-07
-8.2444e-07
2.32378e-07
-0.00113197
-1.18027e-06
-1.22887e-07
-4.45385e-08
0.00113195
-2.03658e-07
1.22322e-06
2.40563e-07
8.85785e-07
-1.79442e-07
-8.24298e-07
2.35006e-07
-0.000270062
1.21401e-06
1.17973e-06
-1.92934e-07
-1.98193e-07
0.00026806
1.27373e-07
1.27935e-07
-0.00118406
-7.59921e-08
-7.53153e-08
0.00118396
-0.00113222
-1.18415e-06
-1.24615e-07
-5.23395e-08
0.0011322
-2.02238e-07
1.23025e-06
2.41585e-07
8.84904e-07
-1.77665e-07
-8.25443e-07
2.31546e-07
-0.00113185
-1.17843e-06
-1.24647e-07
-5.29117e-08
0.00113183
-2.02111e-07
1.22488e-06
2.41671e-07
8.84708e-07
-1.80364e-07
-8.25388e-07
2.34177e-07
-0.000270066
1.21354e-06
1.17939e-06
-1.93049e-07
-1.98224e-07
0.000268064
1.39183e-07
1.39046e-07
-0.00118365
-9.29498e-08
-9.33671e-08
0.00118356
-0.00113216
-1.18432e-06
-1.41683e-07
-4.80877e-08
0.00113215
-2.03052e-07
1.22874e-06
2.40162e-07
8.87191e-07
-1.74949e-07
-8.22332e-07
2.33432e-07
-0.0011318
-1.17903e-06
-1.41805e-07
-4.72024e-08
0.00113178
-2.03208e-07
1.223e-06
2.40037e-07
8.87092e-07
-1.77526e-07
-8.22117e-07
2.36149e-07
-0.000270081
1.21257e-06
1.17805e-06
-1.92198e-07
-1.97632e-07
0.00026808
9.74235e-08
9.8247e-08
-0.00118332
-5.39482e-08
-5.42163e-08
0.00118323
-0.00113206
-1.18548e-06
-9.73497e-08
-4.85887e-08
0.00113202
-2.02699e-07
1.22862e-06
2.4092e-07
8.81073e-07
-1.80734e-07
-8.28817e-07
2.28167e-07
-0.00113169
-1.17973e-06
-9.67979e-08
-4.9654e-08
0.00113166
-2.02471e-07
1.22333e-06
2.41135e-07
8.80743e-07
-1.83571e-07
-8.28889e-07
2.30665e-07
-0.000270084
1.21495e-06
1.18104e-06
-1.93939e-07
-1.98914e-07
0.000268081
1.8994e-07
1.89959e-07
-0.00118288
-1.29015e-07
-1.2851e-07
0.00118276
-0.00113197
-1.17935e-06
-1.88415e-07
-6.14706e-08
0.00113198
-1.99457e-07
1.23247e-06
2.42786e-07
8.94135e-07
-1.67945e-07
-8.14955e-07
2.39926e-07
-0.00113161
-1.17396e-06
-1.89449e-07
-6.08194e-08
0.00113161
-1.99591e-07
1.22678e-06
2.42637e-07
8.94154e-07
-1.7041e-07
-8.14645e-07
2.42763e-07
-0.000270099
1.20777e-06
1.17333e-06
-1.8888e-07
-1.9425e-07
0.000268101
5.88476e-08
5.9606e-08
-0.00118253
-3.91107e-08
-3.97155e-08
0.00118249
-0.00113196
-1.19089e-06
-6.2924e-08
-3.58412e-08
0.00113194
-2.07188e-07
1.22196e-06
2.35902e-07
8.70951e-07
-1.89016e-07
-8.36906e-07
2.18486e-07
-0.0011316
-1.18533e-06
-6.15102e-08
-3.61734e-08
0.00113157
-2.07087e-07
1.21652e-06
2.36035e-07
8.70541e-07
-1.91898e-07
-8.37023e-07
2.20921e-07
-0.000270122
1.21984e-06
1.18581e-06
-1.98771e-07
-2.03853e-07
0.000268119
2.26823e-07
2.27953e-07
-0.00118223
-1.42628e-07
-1.40638e-07
0.00118206
-0.00113186
-1.17056e-06
-2.23792e-07
-8.48103e-08
0.00113186
-1.91994e-07
1.24213e-06
2.5022e-07
9.04943e-07
-1.60118e-07
-8.0694e-07
2.49889e-07
-0.0011315
-1.16492e-06
-2.25994e-07
-8.55973e-08
0.00113149
-1.91944e-07
1.23667e-06
2.50223e-07
9.05145e-07
-1.62454e-07
-8.06483e-07
2.5289e-07
-0.000270128
1.19941e-06
1.16519e-06
-1.81564e-07
-1.86789e-07
0.000268132
6.15836e-08
5.89164e-08
-0.0011816
-4.44133e-08
-4.85208e-08
0.00118158
-0.0011318
-1.1941e-06
-6.29685e-08
-1.44828e-08
0.00113175
-2.09738e-07
1.21434e-06
2.3068e-07
8.73407e-07
-1.79507e-07
-8.28722e-07
2.22858e-07
-0.00113144
-1.18889e-06
-6.10533e-08
-1.24172e-08
0.00113139
-2.09909e-07
1.20856e-06
2.30557e-07
8.72902e-07
-1.82443e-07
-8.28863e-07
2.2519e-07
-0.000270152
1.2231e-06
1.18839e-06
-1.98681e-07
-2.04227e-07
0.000268144
8.93012e-08
9.34019e-08
-0.00118163
-4.57544e-08
-4.21318e-08
0.00118154
-0.0011316
-1.18849e-06
-9.05442e-08
-5.47081e-08
0.00113165
-2.08095e-07
1.22728e-06
2.35458e-07
8.68115e-07
-2.01382e-07
-8.44752e-07
2.07901e-07
-0.00113124
-1.18268e-06
-9.06824e-08
-5.70364e-08
0.00113129
-2.07873e-07
1.22202e-06
2.35647e-07
8.67955e-07
-2.04043e-07
-8.44691e-07
2.10631e-07
-0.000270118
1.21711e-06
1.18374e-06
-2.03562e-07
-2.08158e-07
0.000268129
4.61547e-07
4.61418e-07
-0.00118083
-3.50664e-07
-3.50133e-07
0.00118061
-0.00113209
-1.14394e-06
-4.60279e-07
-1.66117e-07
0.00113216
-1.69464e-07
1.26767e-06
2.74971e-07
9.40726e-07
-1.28713e-07
-7.70223e-07
2.8487e-07
-0.00113173
-1.13844e-06
-4.63088e-07
-1.66175e-07
0.00113181
-1.6944e-07
1.26215e-06
2.75035e-07
9.40933e-07
-1.31073e-07
-7.69713e-07
2.87816e-07
-0.000270305
1.17284e-06
1.13803e-06
-1.60867e-07
-1.66558e-07
0.000268322
-5.66565e-08
-5.97674e-08
-0.00118024
1.25784e-07
1.2118e-07
0.00118011
-0.0011314
-1.16293e-06
5.65499e-08
-5.55512e-08
0.00113092
-1.67871e-07
1.24623e-06
2.70276e-07
9.1723e-07
-1.22004e-07
-7.87082e-07
2.79507e-07
-0.00113104
-1.15755e-06
5.94161e-08
-5.33022e-08
0.00113056
-1.67987e-07
1.24054e-06
2.70145e-07
9.16685e-07
-1.24994e-07
-7.87323e-07
2.81852e-07
-0.00027016
1.19243e-06
1.15753e-06
-1.44858e-07
-1.50367e-07
0.000268105
2.08871e-07
2.11328e-07
-0.00117952
-1.20548e-07
-1.2005e-07
0.00117934
-0.00113034
-1.20627e-06
-2.11941e-07
-2.23146e-08
0.00113064
-2.34434e-07
1.19803e-06
1.98612e-07
8.50972e-07
-2.09313e-07
-8.4771e-07
1.8314e-07
-0.00112997
-1.20083e-06
-2.1093e-07
-2.29022e-08
0.00113027
-2.34475e-07
1.19243e-06
1.98584e-07
8.50689e-07
-2.1209e-07
-8.47735e-07
1.85716e-07
-0.000270007
1.2346e-06
1.2013e-06
-2.36539e-07
-2.4113e-07
0.000268049
2.56763e-07
2.58754e-07
-0.00117932
-4.10769e-07
-4.07834e-07
0.00117962
-0.00113289
-1.25108e-06
-2.5389e-07
3.75466e-09
0.00113374
-2.84699e-07
1.15846e-06
1.60151e-07
7.68578e-07
-3.08425e-07
-9.43706e-07
1.04481e-07
-0.00113253
-1.24528e-06
-2.56231e-07
1.97424e-09
0.00113338
-2.84427e-07
1.15318e-06
1.60369e-07
7.68646e-07
-3.10811e-07
-9.43335e-07
1.07439e-07
-0.000270673
1.28006e-06
1.24575e-06
-3.00823e-07
-3.06411e-07
0.000268755
-4.81301e-07
-4.84475e-07
-0.00118113
2.98385e-07
2.96485e-07
0.0011815
-0.00113447
-1.2145e-06
4.81612e-07
7.68726e-08
0.0011339
-2.15557e-07
1.21487e-06
2.40904e-07
8.57601e-07
-2.11833e-07
-8.74363e-07
2.1823e-07
-0.00113411
-1.20927e-06
4.82349e-07
7.9112e-08
0.00113353
-2.15819e-07
1.20904e-06
2.40656e-07
8.57337e-07
-2.14546e-07
-8.74338e-07
2.20825e-07
-0.00027082
1.24353e-06
1.20852e-06
-1.81657e-07
-1.87337e-07
0.000268737
2.80065e-07
2.80407e-07
-0.00118069
2.50574e-07
2.4971e-07
0.00117963
-0.00113043
-1.03948e-06
-2.83736e-07
-2.21306e-07
0.00112923
-5.62773e-08
1.37254e-06
3.80549e-07
1.11593e-06
5.67526e-08
-5.89489e-07
4.61542e-07
-0.00113006
-1.0343e-06
-2.8256e-07
-2.20677e-07
0.00112886
-5.64256e-08
1.36677e-06
3.80427e-07
1.11549e-06
5.407e-08
-5.89646e-07
4.63898e-07
-0.000269881
1.06827e-06
1.03419e-06
-3.50755e-09
-7.8262e-09
0.00026779
1.54065e-06
1.544e-06
-0.00117566
-1.05027e-06
-1.05031e-06
0.00117468
-0.00112775
-9.94555e-07
-1.54245e-06
-5.4241e-07
0.00112798
-3.52957e-08
1.38845e-06
3.81866e-07
1.12662e-06
7.87034e-08
-5.49886e-07
4.59888e-07
-0.00112739
-9.88967e-07
-1.54243e-06
-5.43407e-07
0.00112762
-3.52188e-08
1.38303e-06
3.81926e-07
1.12638e-06
7.62065e-08
-5.49848e-07
4.62455e-07
-0.000269659
1.02371e-06
9.89601e-07
-3.84601e-08
-4.33898e-08
0.000267727
7.53079e-07
7.53886e-07
-0.00117336
-7.82615e-07
-7.84044e-07
0.00117342
-0.00112993
-1.1667e-06
-7.52364e-07
-2.62091e-07
0.00113084
-2.00616e-07
1.22401e-06
2.23822e-07
8.56412e-07
-1.95747e-07
-8.28883e-07
1.89677e-07
-0.00112957
-1.16116e-06
-7.52226e-07
-2.62093e-07
0.00113048
-2.00573e-07
1.2185e-06
2.23843e-07
8.56235e-07
-1.98333e-07
-8.28809e-07
1.92401e-07
-0.00027041
1.19575e-06
1.16138e-06
-2.31419e-07
-2.36813e-07
0.000268521
-6.2184e-07
-6.22623e-07
-0.00117496
1.74637e-07
1.74165e-07
0.00117586
-0.00113361
-1.36976e-06
6.2202e-07
3.1354e-07
0.00113428
-3.79265e-07
1.04704e-06
6.68622e-08
6.13261e-07
-4.46186e-07
-1.10495e-06
-3.30143e-08
-0.00113324
-1.36425e-06
6.22282e-07
3.13807e-07
0.00113391
-3.79203e-07
1.04147e-06
6.68951e-08
6.13151e-07
-4.48753e-07
-1.10477e-06
-3.05856e-08
-0.000271204
1.39823e-06
1.36408e-06
-3.93578e-07
-3.98941e-07
0.000269234
-1.19918e-06
-1.19993e-06
-0.0011787
8.52785e-07
8.54642e-07
0.00117939
-0.00113474
-1.35907e-06
1.19886e-06
4.41276e-07
0.00113443
-3.5885e-07
1.07824e-06
1.00069e-07
6.67298e-07
-4.02132e-07
-1.0684e-06
1.64919e-08
-0.00113438
-1.35354e-06
1.19835e-06
4.40756e-07
0.00113407
-3.58773e-07
1.07271e-06
1.00078e-07
6.67163e-07
-4.04712e-07
-1.06822e-06
1.95294e-08
-0.000271149
1.38758e-06
1.35354e-06
-3.29649e-07
-3.34904e-07
0.000269072
-3.86689e-07
-3.86839e-07
-0.00118
5.19748e-07
5.21506e-07
0.00117973
-0.00113273
-1.21355e-06
3.86868e-07
1.48314e-07
0.00113212
-2.26139e-07
1.21048e-06
2.20592e-07
8.76841e-07
-1.81844e-07
-8.38762e-07
2.22428e-07
-0.00113237
-1.20793e-06
3.86672e-07
1.48093e-07
0.00113176
-2.2607e-07
1.20504e-06
2.20676e-07
8.76618e-07
-1.84597e-07
-8.38645e-07
2.25032e-07
-0.000270572
1.2426e-06
1.20829e-06
-1.86645e-07
-1.91934e-07
0.0002685
7.27753e-07
7.28669e-07
-0.00117801
-3.87226e-07
-3.93588e-07
0.00117734
-0.00113084
-1.08244e-06
-7.22282e-07
-2.69225e-07
0.00113071
-1.07527e-07
1.31953e-06
3.18434e-07
1.01922e-06
-2.14401e-08
-6.68691e-07
3.45844e-07
-0.00113049
-1.07416e-06
-7.27905e-07
-2.63684e-07
0.00113036
-1.07521e-07
1.3113e-06
3.15655e-07
1.0163e-06
-2.15122e-08
-6.65918e-07
3.48378e-07
-0.000270291
1.11433e-06
1.07712e-06
-8.7676e-08
-9.28748e-08
0.00026828
1.82681e-06
1.83522e-06
-0.00117554
-1.53702e-06
-1.52775e-06
0.00117494
-0.00113131
-9.83975e-07
-1.82913e-06
-7.64783e-07
0.00113197
-2.07249e-08
1.48122e-06
4.04167e-07
1.1484e-06
5.61503e-08
-5.78511e-07
4.26601e-07
-0.00113097
-9.75682e-07
-1.84013e-06
-7.76121e-07
0.00113165
-2.05886e-08
1.47577e-06
4.07022e-07
1.14529e-06
5.1184e-08
-5.75776e-07
4.29208e-07
-0.000270619
1.01843e-06
9.75761e-07
-1.41243e-08
-1.65478e-08
0.000268655
5.54381e-06
5.53659e-06
-0.00116123
-1.20374e-05
-1.19315e-05
0.000282747
0.000284811
0.000284611
0.000284612
4.58211e-06
6.83613e-06
7.24595e-06
4.58609e-06
6.83689e-06
7.24951e-06
-0.000280678
5.45485e-06
-5.53383e-06
6.03399e-06
-3.47603e-06
0.000278199
-0.000280653
-5.5362e-06
5.46021e-06
-3.48427e-06
6.03096e-06
0.000278182
-0.000271868
-5.45151e-06
-5.46313e-06
5.80384e-06
5.79194e-06
0.000271187
1.28209e-06
1.24475e-06
-2.32543e-07
-2.40374e-07
0.000269471
-1.25599e-06
-1.2188e-06
0.000271381
-0.000269364
2.25132e-07
2.3302e-07
7.22114e-08
0.00113948
-2.56167e-07
1.25498e-06
2.31768e-07
8.53991e-07
-2.44154e-07
-9.00303e-07
1.96263e-07
-1.28759e-06
2.19326e-07
7.1661e-08
0.00113993
-2.58854e-07
1.26067e-06
2.34666e-07
8.59578e-07
-2.46963e-07
-9.05951e-07
1.99039e-07
0.00113905
1.99982e-07
-0.00113919
6.41508e-08
-1.27791e-06
2.33189e-07
-2.52853e-07
-8.95486e-07
1.9875e-07
-2.39887e-07
8.56137e-07
1.26146e-06
0.0011395
2.00503e-07
-0.00113964
6.45975e-08
-1.28361e-06
2.3589e-07
-2.55739e-07
-9.01135e-07
2.01495e-07
-2.42707e-07
8.61702e-07
-2.35321e-07
-2.37607e-07
0.000269492
-1.22157e-06
0.000271411
-0.000269386
2.27973e-07
2.30166e-07
7.08256e-08
0.0011406
-2.53288e-07
1.21794e-06
2.29397e-07
8.56912e-07
-2.46848e-07
-9.03008e-07
1.99184e-07
-1.28216e-06
2.19754e-07
7.27048e-08
0.00113958
-2.5894e-07
1.255e-06
2.34546e-07
8.56693e-07
-2.46887e-07
-9.03039e-07
1.99003e-07
0.00114017
2.00217e-07
-0.00114031
6.34392e-08
-1.24071e-06
2.3066e-07
-2.50111e-07
-8.98171e-07
2.01704e-07
-2.42539e-07
8.59067e-07
1.25594e-06
0.00113915
2.00814e-07
-0.00113929
6.46352e-08
-1.27805e-06
2.35926e-07
-2.55675e-07
-8.983e-07
2.0147e-07
-2.4265e-07
8.5877e-07
2.18058e-07
7.15175e-08
0.00113938
-2.53295e-07
1.24954e-06
2.29043e-07
8.54098e-07
-2.44024e-07
1.96398e-07
-9.00248e-07
2.00392e-07
-0.00114004
6.35236e-08
-1.24339e-06
2.27892e-07
-2.47296e-07
-8.95517e-07
1.98869e-07
8.56208e-07
-2.39877e-07
1.25041e-06
0.00113895
2.0014e-07
-0.00113909
6.49395e-08
-1.2725e-06
2.30374e-07
-2.50095e-07
-8.95468e-07
1.98773e-07
-2.39837e-07
8.56171e-07
-2.32791e-07
-2.40189e-07
0.000269451
-1.21605e-06
0.000271358
-0.000269344
2.25441e-07
2.32738e-07
2.18279e-07
7.02347e-08
0.00114049
-2.50489e-07
1.21526e-06
2.26667e-07
8.54345e-07
-2.46731e-07
1.99274e-07
-9.00278e-07
2.00763e-07
-0.00113967
6.34456e-08
-1.23779e-06
2.27971e-07
-2.47214e-07
-8.95376e-07
2.01502e-07
8.5605e-07
-2.42575e-07
1.216e-06
0.00114006
2.0041e-07
-0.00114021
6.43104e-08
-1.23804e-06
2.27844e-07
-2.47421e-07
-8.95479e-07
2.01683e-07
-2.42507e-07
8.56433e-07
-0.000269357
2.27657e-07
2.32991e-07
1.27656e-06
1.23944e-06
-2.28639e-07
-2.36326e-07
0.000269329
-1.25703e-06
-1.21981e-06
0.000271246
-0.00026923
2.26446e-07
2.34332e-07
6.15079e-08
0.00113891
-2.51794e-07
1.2563e-06
2.33628e-07
8.56804e-07
-2.38509e-07
-8.93946e-07
1.99543e-07
-1.2823e-06
1.94329e-07
6.23125e-08
0.00113936
-2.54703e-07
1.26174e-06
2.36315e-07
8.62381e-07
-2.4133e-07
-8.99587e-07
2.02292e-07
0.00113849
1.76343e-07
-0.00113863
5.47892e-08
-1.27279e-06
2.34753e-07
-2.4886e-07
-8.89449e-07
2.01841e-07
-2.34508e-07
8.58775e-07
1.26264e-06
0.00113894
1.76154e-07
-0.00113908
5.47496e-08
-1.27838e-06
2.37586e-07
-2.51631e-07
-8.95076e-07
2.04628e-07
-2.37294e-07
8.64367e-07
-2.31307e-07
-2.33731e-07
0.000269351
-1.2226e-06
0.000271276
-0.000269251
2.29289e-07
2.31622e-07
6.12898e-08
0.00114003
-2.4912e-07
1.21905e-06
2.3104e-07
8.59763e-07
-2.41144e-07
-8.96606e-07
2.02514e-07
-1.27669e-06
1.9411e-07
6.18523e-08
0.00113901
-2.54615e-07
1.25625e-06
2.36357e-07
8.59484e-07
-2.41227e-07
-8.9672e-07
2.0231e-07
0.00113961
1.75832e-07
-0.00113975
5.48148e-08
-1.2357e-06
2.32192e-07
-2.46184e-07
-8.92139e-07
2.04783e-07
-2.37166e-07
8.61693e-07
1.2571e-06
0.0011386
1.75496e-07
-0.00113873
5.4385e-08
-1.27284e-06
2.3758e-07
-2.51613e-07
-8.9218e-07
2.04651e-07
-2.37179e-07
8.61498e-07
1.94599e-07
6.25393e-08
0.00113881
-2.49046e-07
1.2507e-06
2.30791e-07
8.56786e-07
-2.38514e-07
1.99509e-07
-8.93979e-07
1.76201e-07
-0.00113948
5.42921e-08
-1.23832e-06
2.2941e-07
-2.4334e-07
-8.89421e-07
2.02046e-07
8.5891e-07
-2.34417e-07
1.25152e-06
0.00113839
1.76847e-07
-0.00113853
5.47486e-08
-1.26732e-06
2.32011e-07
-2.4603e-07
-8.8956e-07
2.01776e-07
-2.34561e-07
8.58691e-07
-2.28652e-07
-2.3621e-07
0.000269309
-1.21706e-06
0.000271223
-0.00026921
2.26683e-07
2.34114e-07
1.94527e-07
6.24128e-08
0.00113992
-2.46441e-07
1.21622e-06
2.282e-07
8.57062e-07
-2.41166e-07
2.02433e-07
-8.93973e-07
1.75599e-07
-0.00113911
5.38084e-08
-1.23273e-06
2.29446e-07
-2.43307e-07
-8.89216e-07
2.04725e-07
8.58817e-07
-2.37058e-07
1.21707e-06
0.0011395
1.76373e-07
-0.00113964
5.48476e-08
-1.23297e-06
2.29448e-07
-2.43423e-07
-8.89573e-07
2.0468e-07
-2.3723e-07
8.58947e-07
-0.000269223
2.28996e-07
2.34337e-07
1.2716e-06
1.23448e-06
-2.2504e-07
-2.32755e-07
0.000269197
-1.25792e-06
-1.22084e-06
0.000271119
-0.000269104
2.2769e-07
2.35508e-07
5.27476e-08
0.00113836
-2.47932e-07
1.25724e-06
2.351e-07
8.59397e-07
-2.33215e-07
-8.88006e-07
2.02584e-07
-1.27712e-06
1.70321e-07
5.22964e-08
0.00113881
-2.5065e-07
1.26291e-06
2.37981e-07
8.65005e-07
-2.35995e-07
-8.9362e-07
2.05375e-07
0.00113795
1.53054e-07
-0.00113809
4.62744e-08
-1.26807e-06
2.36137e-07
-2.45191e-07
-8.83753e-07
2.04782e-07
-2.29409e-07
8.61277e-07
1.26355e-06
0.0011384
1.53261e-07
-0.00113854
4.58197e-08
-1.27361e-06
2.38969e-07
-2.47943e-07
-8.89395e-07
2.0754e-07
-2.3222e-07
8.66851e-07
-2.27746e-07
-2.30007e-07
0.000269219
-1.22346e-06
0.00027115
-0.000269126
2.30427e-07
2.32761e-07
5.25634e-08
0.00113947
-2.45219e-07
1.22007e-06
2.32575e-07
8.62311e-07
-2.35888e-07
-8.9071e-07
2.05515e-07
-1.2716e-06
1.69842e-07
5.21502e-08
0.00113846
-2.5064e-07
1.25736e-06
2.37966e-07
8.62131e-07
-2.35888e-07
-8.90733e-07
2.05397e-07
0.00113907
1.52833e-07
-0.0011392
4.56465e-08
-1.23088e-06
2.33684e-07
-2.42405e-07
-8.86453e-07
2.07717e-07
-2.32074e-07
8.64191e-07
1.25798e-06
0.00113806
1.53079e-07
-0.00113819
4.60392e-08
-1.26811e-06
2.38947e-07
-2.47945e-07
-8.86492e-07
2.07572e-07
-2.32096e-07
8.63995e-07
1.70498e-07
5.21377e-08
0.00113825
-2.45043e-07
1.25181e-06
2.3241e-07
8.59362e-07
-2.33227e-07
2.02568e-07
-8.88079e-07
1.5239e-07
-0.00113893
4.62594e-08
-1.23367e-06
2.30762e-07
-2.39723e-07
-8.83747e-07
2.04953e-07
8.61387e-07
-2.29347e-07
1.25244e-06
0.00113785
1.52264e-07
-0.00113798
4.56179e-08
-1.26256e-06
2.33376e-07
-2.42371e-07
-8.83756e-07
2.04831e-07
-2.29351e-07
8.61314e-07
-2.25172e-07
-2.32568e-07
0.000269178
-1.21791e-06
0.000271097
-0.000269085
2.27847e-07
2.35273e-07
1.70106e-07
5.20395e-08
0.00113937
-2.424e-07
1.2174e-06
2.29882e-07
8.59609e-07
-2.35905e-07
2.05464e-07
-8.88104e-07
1.52271e-07
-0.00113856
4.63611e-08
-1.22812e-06
2.30784e-07
-2.39708e-07
-8.83541e-07
2.07636e-07
8.61301e-07
-2.31983e-07
1.21813e-06
0.00113897
1.52082e-07
-0.0011391
4.50522e-08
-1.2281e-06
2.30926e-07
-2.39648e-07
-8.83787e-07
2.07727e-07
-2.32029e-07
8.61557e-07
-0.000269097
2.30211e-07
2.35483e-07
1.26693e-06
1.22973e-06
-2.21659e-07
-2.29419e-07
0.000269074
-1.2588e-06
-1.22168e-06
0.000271002
-0.000268987
2.28732e-07
2.36591e-07
4.41175e-08
0.00113782
-2.44309e-07
1.25813e-06
2.36468e-07
8.61892e-07
-2.28167e-07
-8.82369e-07
2.05503e-07
-1.27251e-06
1.47512e-07
4.38939e-08
0.00113827
-2.47096e-07
1.26372e-06
2.3927e-07
8.67468e-07
-2.30982e-07
-8.88011e-07
2.0826e-07
0.00113744
1.29901e-07
-0.00113756
3.78228e-08
-1.26358e-06
2.3746e-07
-2.41714e-07
-8.78326e-07
2.07617e-07
-2.24537e-07
8.637e-07
1.26432e-06
0.00113789
1.30062e-07
-0.00113801
3.81631e-08
-1.26923e-06
2.40204e-07
-2.44556e-07
-8.83925e-07
2.10403e-07
-2.27315e-07
8.69312e-07
-2.24437e-07
-2.26743e-07
0.000269096
-1.22448e-06
0.000271032
-0.000269009
2.31603e-07
2.33811e-07
4.33908e-08
0.00113894
-2.41512e-07
1.22107e-06
2.34024e-07
8.64803e-07
-2.30839e-07
-8.85072e-07
2.08431e-07
-1.267e-06
1.47353e-07
4.41193e-08
0.00113793
-2.47085e-07
1.25817e-06
2.39258e-07
8.64608e-07
-2.30863e-07
-8.85108e-07
2.08284e-07
0.00113855
1.29856e-07
-0.00113868
3.73071e-08
-1.22645e-06
2.34946e-07
-2.38979e-07
-8.81015e-07
2.1055e-07
-2.27199e-07
8.66622e-07
1.25873e-06
0.00113754
1.30144e-07
-0.00113767
3.83361e-08
-1.26374e-06
2.40154e-07
-2.44576e-07
-8.8108e-07
2.10373e-07
-2.27251e-07
8.66395e-07
1.46566e-07
4.3852e-08
0.00113772
-2.41517e-07
1.25263e-06
2.33692e-07
8.61937e-07
-2.28114e-07
2.0555e-07
-8.82366e-07
1.29889e-07
-0.00113841
3.72578e-08
-1.22907e-06
2.32202e-07
-2.36121e-07