/*--------------------------------*- C++ -*----------------------------------*\
| =========                 |                                                 |
| \\      /  F ield         | OpenFOAM: The Open Source CFD Toolbox           |
|  \\    /   O peration     | Version:  v2012                                 |
|   \\  /    A nd           | Website:  www.openfoam.com                      |
|    \\/     M anipulation  |                                                 |
\*---------------------------------------------------------------------------*/
FoamFile
{
    version     2.0;
    format      ascii;
    class       volVectorField;
    location    "375";
    object      U;
}
// * * * * * * * * * * * * * * * * * * * * * * * * * * * * * * * * * * * * * //

dimensions      [0 1 -1 0 0 0 0];


internalField   nonuniform List<vector> 
85864
(
(2.40284e-05 2.40079e-05 0.113151)
(-1.67597e-05 1.01471e-05 0.108269)
(1.02095e-05 -1.6795e-05 0.108268)
(-4.78528e-05 -4.79044e-05 0.10472)
(2.19055e-05 2.18947e-05 0.113168)
(-1.44387e-05 8.72909e-06 0.108214)
(8.67519e-06 -1.44153e-05 0.108213)
(-4.60241e-05 -4.60157e-05 0.104666)
(1.9834e-05 1.98832e-05 0.113177)
(-1.21192e-05 7.52551e-06 0.108161)
(7.50573e-06 -1.21068e-05 0.10816)
(-4.42664e-05 -4.42632e-05 0.104616)
(1.77571e-05 1.77647e-05 0.113179)
(-9.97566e-06 6.36675e-06 0.108111)
(6.36228e-06 -9.97143e-06 0.10811)
(-4.26525e-05 -4.26795e-05 0.104569)
(1.56101e-05 1.56016e-05 0.113175)
(-7.91878e-06 5.21572e-06 0.108062)
(5.20998e-06 -7.92104e-06 0.108061)
(-4.11613e-05 -4.11596e-05 0.104526)
(1.35382e-05 1.35445e-05 0.113166)
(-5.95265e-06 4.23348e-06 0.108015)
(4.22464e-06 -5.95256e-06 0.108014)
(-3.97678e-05 -3.97772e-05 0.104485)
(1.15202e-05 1.15375e-05 0.113153)
(-4.16845e-06 3.29554e-06 0.10797)
(3.28407e-06 -4.15472e-06 0.107969)
(-3.84965e-05 -3.84948e-05 0.104448)
(9.61023e-06 9.59494e-06 0.113135)
(-2.46268e-06 2.36339e-06 0.107928)
(2.37162e-06 -2.48054e-06 0.107927)
(-3.72882e-05 -3.72933e-05 0.104414)
(7.65129e-06 7.67371e-06 0.113113)
(-8.75693e-07 1.59484e-06 0.107888)
(1.58192e-06 -8.4965e-07 0.107887)
(-3.62058e-05 -3.62107e-05 0.104383)
(5.8169e-06 5.81151e-06 0.113088)
(6.2007e-07 7.92832e-07 0.10785)
(7.8324e-07 5.93693e-07 0.107849)
(-3.51601e-05 -3.51421e-05 0.104355)
(4.02825e-06 4.05114e-06 0.113061)
(2.03647e-06 1.31174e-07 0.107814)
(1.2992e-07 2.06659e-06 0.107813)
(-3.42293e-05 -3.42375e-05 0.104329)
(2.32935e-06 2.32796e-06 0.113031)
(3.29758e-06 -5.39299e-07 0.107781)
(-5.65886e-07 3.27897e-06 0.10778)
(-3.33536e-05 -3.33392e-05 0.104306)
(8.31485e-07 8.43787e-07 0.112999)
(4.40691e-06 -1.11006e-06 0.107749)
(-1.09034e-06 4.41802e-06 0.107748)
(-3.24925e-05 -3.25003e-05 0.104285)
(-6.63961e-07 -6.42331e-07 0.112965)
(5.41987e-06 -1.69594e-06 0.10772)
(-1.74253e-06 5.41346e-06 0.107719)
(-3.17438e-05 -3.17223e-05 0.104267)
(-1.98235e-06 -2.00676e-06 0.112931)
(6.34997e-06 -2.21069e-06 0.107692)
(-2.1703e-06 6.35792e-06 0.107691)
(-3.10104e-05 -3.10402e-05 0.104251)
(-3.20219e-06 -3.13382e-06 0.112895)
(7.15206e-06 -2.70109e-06 0.107667)
(-2.75949e-06 7.14283e-06 0.107666)
(-3.04079e-05 -3.03578e-05 0.104237)
(-4.34156e-06 -4.40376e-06 0.112858)
(7.89743e-06 -3.28323e-06 0.107643)
(-3.24845e-06 7.89767e-06 0.107642)
(-2.97306e-05 -2.98006e-05 0.104225)
(-5.37191e-06 -5.28535e-06 0.112821)
(8.49133e-06 -3.54587e-06 0.107621)
(-3.56945e-06 8.51066e-06 0.10762)
(-2.93463e-05 -2.92479e-05 0.104215)
(-6.27733e-06 -6.3138e-06 0.112783)
(9.16298e-06 -4.14926e-06 0.107601)
(-4.16276e-06 9.12218e-06 0.1076)
(-2.86164e-05 -2.87363e-05 0.104207)
(-7.27115e-06 -7.26223e-06 0.112745)
(9.66833e-06 -4.43815e-06 0.107583)
(-4.41402e-06 9.70487e-06 0.107582)
(-2.84085e-05 -2.83083e-05 0.104201)
(-7.77122e-06 -7.68702e-06 0.112707)
(9.94649e-06 -4.6511e-06 0.107566)
(-4.68514e-06 9.93437e-06 0.107565)
(-2.79244e-05 -2.795e-05 0.104196)
(-8.81046e-06 -8.91811e-06 0.112669)
(1.08176e-05 -5.2853e-06 0.10755)
(-5.27624e-06 1.08087e-05 0.107549)
(-2.73811e-05 -2.74504e-05 0.104193)
(-9.2136e-06 -9.07134e-06 0.11263)
(1.05293e-05 -5.20881e-06 0.107536)
(-5.21329e-06 1.05559e-05 0.107535)
(-2.75617e-05 -2.7421e-05 0.104192)
(-9.64258e-06 -9.70637e-06 0.112593)
(1.12524e-05 -5.51846e-06 0.107523)
(-5.50792e-06 1.12515e-05 0.107522)
(-2.67992e-05 -2.68988e-05 0.10419)
(-1.05973e-05 -1.05644e-05 0.112555)
(1.1445e-05 -5.93796e-06 0.107512)
(-5.95816e-06 1.14357e-05 0.107511)
(-2.67379e-05 -2.67006e-05 0.104192)
(-1.04993e-05 -1.05059e-05 0.112518)
(1.15035e-05 -5.7543e-06 0.107502)
(-5.72329e-06 1.1519e-05 0.107501)
(-2.65307e-05 -2.65441e-05 0.104193)
(-1.10303e-05 -1.09703e-05 0.112481)
(1.1764e-05 -6.39533e-06 0.107491)
(-6.4495e-06 1.17481e-05 0.10749)
(-2.63501e-05 -2.63192e-05 0.104196)
(-1.28833e-05 -1.29279e-05 0.112443)
(1.26394e-05 -6.07637e-06 0.107486)
(-6.00194e-06 1.26634e-05 0.107485)
(-2.59421e-05 -2.6036e-05 0.104202)
(-8.14171e-06 -8.1005e-06 0.112412)
(9.47248e-06 -5.95929e-06 0.107475)
(-6.05184e-06 9.41962e-06 0.107474)
(-2.68967e-05 -2.67852e-05 0.104203)
(-1.75686e-05 -1.75603e-05 0.112368)
(1.69527e-05 -7.88752e-06 0.107469)
(-7.8273e-06 1.703e-05 0.107468)
(-2.42872e-05 -2.43481e-05 0.10421)
(-5.57455e-06 -5.56461e-06 0.112339)
(5.35881e-06 -4.12462e-06 0.107466)
(-4.16157e-06 5.2493e-06 0.107465)
(-2.86337e-05 -2.85718e-05 0.104219)
(-1.99781e-05 -1.9817e-05 0.112305)
(2.10273e-05 -1.08888e-05 0.107458)
(-1.09327e-05 2.12055e-05 0.107458)
(-2.13211e-05 -2.13052e-05 0.104223)
(-6.04323e-06 -6.41207e-06 0.11225)
(5.26521e-06 -1.74726e-06 0.10745)
(-1.60937e-06 5.11122e-06 0.107449)
(-2.90703e-05 -2.92321e-05 0.104231)
(-6.90956e-06 -6.50362e-06 0.112254)
(9.7153e-06 -6.99632e-06 0.107434)
(-7.15017e-06 9.72849e-06 0.107433)
(-2.88881e-05 -2.85897e-05 0.104221)
(-4.71689e-05 -4.7162e-05 0.112169)
(3.67415e-05 -2.08219e-05 0.107487)
(-2.08282e-05 3.69541e-05 0.107487)
(-1.24309e-05 -1.26133e-05 0.104295)
(1.58247e-05 1.54252e-05 0.112119)
(6.27037e-06 -7.64663e-06 0.10739)
(-7.51913e-06 6.07776e-06 0.10739)
(-1.34832e-05 -1.36727e-05 0.104228)
(-1.85893e-05 -1.84387e-05 0.112046)
(1.95834e-05 -4.47623e-06 0.107321)
(-4.49296e-06 1.95224e-05 0.10732)
(-3.76193e-05 -3.73109e-05 0.10419)
(-4.7774e-05 -4.7503e-05 0.112047)
(-2.60853e-06 3.16454e-06 0.107601)
(3.00939e-06 -2.45568e-06 0.107601)
(-5.97431e-05 -5.98165e-05 0.104449)
(4.60309e-05 4.57659e-05 0.112232)
(-4.09052e-05 1.36823e-05 0.10769)
(1.38434e-05 -4.09575e-05 0.107689)
(-3.10073e-05 -3.12419e-05 0.104469)
(1.7387e-05 1.73405e-05 0.112128)
(7.18249e-05 -3.64926e-05 0.107261)
(-3.64356e-05 7.17229e-05 0.10726)
(3.913e-05 3.92227e-05 0.104111)
(-0.000140427 -0.000140274 0.111639)
(0.000139567 -7.19995e-05 0.107074)
(-7.20667e-05 0.000139558 0.107073)
(4.20464e-05 4.21083e-05 0.104067)
(-9.57317e-05 -9.57645e-05 0.111472)
(4.19252e-05 -3.05134e-05 0.107318)
(-3.05239e-05 4.19234e-05 0.107317)
(-2.95375e-05 -2.9583e-05 0.104367)
(3.16522e-05 3.15898e-05 0.111669)
(-8.21713e-05 4.47291e-05 0.107665)
(4.47431e-05 -8.21717e-05 0.107665)
(-0.000100685 -0.000100682 0.104649)
(0.000114062 0.000114139 0.112028)
(-0.000103655 5.84606e-05 0.107728)
(5.84275e-05 -0.000103633 0.107727)
(-8.63153e-05 -8.62651e-05 0.1046)
(5.86729e-05 5.87461e-05 0.112112)
(-1.21338e-05 1.62085e-05 0.10752)
(1.61803e-05 -1.21554e-05 0.107519)
(-2.98246e-05 -2.98491e-05 0.104379)
(-5.88304e-05 -5.88526e-05 0.111906)
(7.09971e-05 -3.57392e-05 0.107363)
(-3.5748e-05 7.10049e-05 0.107363)
(1.39755e-05 1.3926e-05 0.104295)
(-0.000103606 -0.00010359 0.111705)
(7.47295e-05 -4.38995e-05 0.107408)
(-4.39323e-05 7.4722e-05 0.107408)
(2.28502e-05 2.28451e-05 0.10444)
(-8.10701e-05 -8.09943e-05 0.111724)
(0.000120046 -7.62069e-05 0.107747)
(-7.62894e-05 0.000120036 0.107747)
(6.07157e-05 6.07349e-05 0.104893)
(4.79143e-05 4.78643e-05 0.10472)
(-4.34185e-05 -4.3389e-05 0.104836)
(1.01905e-05 1.68234e-05 0.108266)
(-1.0149e-05 1.68528e-05 0.108266)
(9.12112e-06 1.50335e-05 0.108225)
(-9.17429e-06 1.50724e-05 0.108225)
(-4.78842e-05 4.78799e-05 0.10472)
(4.33771e-05 -4.34093e-05 0.104837)
(1.67862e-05 1.0076e-05 0.108268)
(1.68814e-05 -1.0217e-05 0.108265)
(1.49763e-05 9.07208e-06 0.108227)
(1.50643e-05 -9.15621e-06 0.108224)
(-1.67699e-05 -1.01341e-05 0.108266)
(-1.50175e-05 9.06693e-06 0.108228)
(-1.50416e-05 -9.16313e-06 0.108225)
(4.79043e-05 -4.79221e-05 0.10472)
(-4.34307e-05 4.3396e-05 0.104836)
(-1.00272e-05 -1.67429e-05 0.108267)
(9.04308e-06 -1.50218e-05 0.108227)
(-9.11897e-06 -1.49942e-05 0.108226)
(4.33806e-05 4.33948e-05 0.104836)
(4.59929e-05 4.60049e-05 0.104666)
(-4.37259e-05 -4.36862e-05 0.104783)
(8.77602e-06 1.44612e-05 0.108212)
(-8.85197e-06 1.44872e-05 0.108211)
(7.84901e-06 1.27651e-05 0.108172)
(-7.84776e-06 1.27654e-05 0.108171)
(-4.60388e-05 4.59591e-05 0.104666)
(4.37353e-05 -4.37062e-05 0.104783)
(1.43822e-05 8.76213e-06 0.108213)
(1.44539e-05 -8.80375e-06 0.10821)
(1.2688e-05 7.84311e-06 0.108174)
(1.27328e-05 -7.81726e-06 0.108171)
(-1.44894e-05 -8.83484e-06 0.108211)
(-1.26888e-05 7.80944e-06 0.108174)
(-1.27775e-05 -7.82927e-06 0.108171)
(4.59344e-05 -4.6034e-05 0.104666)
(-4.37039e-05 4.37302e-05 0.104782)
(-8.8268e-06 -1.44235e-05 0.108213)
(7.77301e-06 -1.26684e-05 0.108173)
(-7.82805e-06 -1.27099e-05 0.108173)
(4.36889e-05 4.3716e-05 0.104782)
(4.42705e-05 4.42746e-05 0.104616)
(-4.39822e-05 -4.39784e-05 0.104732)
(7.55918e-06 1.22123e-05 0.108159)
(-7.52547e-06 1.22115e-05 0.108158)
(6.67896e-06 1.0574e-05 0.108121)
(-6.65463e-06 1.06014e-05 0.10812)
(-4.42522e-05 4.42494e-05 0.104616)
(4.39903e-05 -4.39495e-05 0.104733)
(1.21458e-05 7.53516e-06 0.108161)
(1.21891e-05 -7.5108e-06 0.108158)
(1.05128e-05 6.61731e-06 0.108122)
(1.05847e-05 -6.65745e-06 0.108119)
(-1.21952e-05 -7.49941e-06 0.108158)
(-1.05016e-05 6.66687e-06 0.108123)
(-1.0541e-05 -6.63308e-06 0.10812)
(4.42559e-05 -4.42788e-05 0.104616)
(-4.39508e-05 4.39875e-05 0.104732)
(-7.4815e-06 -1.21344e-05 0.10816)
(6.66359e-06 -1.04987e-05 0.108122)
(-6.57408e-06 -1.04902e-05 0.108122)
(4.39757e-05 4.39655e-05 0.104732)
(4.266e-05 4.26354e-05 0.104569)
(-4.42243e-05 -4.42013e-05 0.104685)
(6.39097e-06 1.00313e-05 0.108108)
(-6.38551e-06 1.00643e-05 0.108107)
(5.54125e-06 8.46592e-06 0.108071)
(-5.57781e-06 8.47747e-06 0.108071)
(-4.26618e-05 4.26478e-05 0.10457)
(4.42066e-05 -4.42352e-05 0.104686)
(9.97823e-06 6.32161e-06 0.10811)
(1.00472e-05 -6.38584e-06 0.108107)
(8.40312e-06 5.4997e-06 0.108073)
(8.47582e-06 -5.58276e-06 0.10807)
(-1.00106e-05 -6.37036e-06 0.108108)
(-8.41971e-06 5.47955e-06 0.108074)
(-8.47318e-06 -5.56121e-06 0.108071)
(4.26483e-05 -4.26833e-05 0.104569)
(-4.42242e-05 4.4193e-05 0.104685)
(-6.30481e-06 -9.96246e-06 0.108109)
(5.48044e-06 -8.42788e-06 0.108073)
(-5.5234e-06 -8.417e-06 0.108072)
(4.41968e-05 4.42084e-05 0.104685)
(4.11419e-05 4.11441e-05 0.104526)
(-4.44041e-05 -4.43863e-05 0.104642)
(5.26778e-06 7.95946e-06 0.108059)
(-5.31253e-06 7.97457e-06 0.108058)
(4.516e-06 6.49557e-06 0.108024)
(-4.52206e-06 6.5159e-06 0.108023)
(-4.11651e-05 4.10984e-05 0.104526)
(4.44067e-05 -4.43862e-05 0.104642)
(7.89237e-06 5.23744e-06 0.108061)
(7.96773e-06 -5.31223e-06 0.108058)
(6.42454e-06 4.47687e-06 0.108026)
(6.49326e-06 -4.51135e-06 0.108023)
(-7.97728e-06 -5.29153e-06 0.108059)
(-6.43147e-06 4.48036e-06 0.108026)
(-6.4985e-06 -4.51412e-06 0.108023)
(4.11113e-05 -4.11981e-05 0.104526)
(-4.4392e-05 4.44069e-05 0.104641)
(-5.2647e-06 -7.91184e-06 0.10806)
(4.46315e-06 -6.42252e-06 0.108025)
(-4.47516e-06 -6.43225e-06 0.108025)
(4.43842e-05 4.43897e-05 0.104641)
(3.97687e-05 3.9759e-05 0.104486)
(-4.45614e-05 -4.45361e-05 0.104602)
(4.2752e-06 6.02433e-06 0.108013)
(-4.27288e-06 6.04055e-06 0.108012)
(3.54731e-06 4.65909e-06 0.107979)
(-3.55611e-06 4.67992e-06 0.107978)
(-3.9762e-05 3.97439e-05 0.104486)
(4.4554e-05 -4.45373e-05 0.104602)
(5.96423e-06 4.23126e-06 0.108014)
(6.02817e-06 -4.26688e-06 0.108011)
(4.59367e-06 3.51929e-06 0.10798)
(4.66996e-06 -3.55187e-06 0.107977)
(-6.01949e-06 -4.26489e-06 0.108012)
(-4.60661e-06 3.51989e-06 0.107981)
(-4.67646e-06 -3.54327e-06 0.107978)
(3.97466e-05 -3.97855e-05 0.104486)
(-4.45367e-05 4.45534e-05 0.104601)
(-4.22465e-06 -5.95891e-06 0.108013)
(3.5116e-06 -4.60155e-06 0.10798)
(-3.5167e-06 -4.60602e-06 0.10798)
(4.45243e-05 4.45407e-05 0.104601)
(3.84751e-05 3.84757e-05 0.104449)
(-4.46661e-05 -4.46591e-05 0.104565)
(3.31657e-06 4.22125e-06 0.107968)
(-3.31745e-06 4.24437e-06 0.107967)
(2.65177e-06 2.94751e-06 0.107936)
(-2.63674e-06 2.94499e-06 0.107935)
(-3.84825e-05 3.84656e-05 0.104449)
(4.46835e-05 -4.46896e-05 0.104565)
(4.15391e-06 3.28161e-06 0.107969)
(4.22634e-06 -3.31169e-06 0.107967)
(2.89278e-06 2.60372e-06 0.107937)
(2.95585e-06 -2.65112e-06 0.107935)
(-4.23999e-06 -3.31485e-06 0.107967)
(-2.86785e-06 2.59536e-06 0.107938)
(-2.93368e-06 -2.63685e-06 0.107935)
(3.84668e-05 -3.85013e-05 0.104448)
(-4.46621e-05 4.4668e-05 0.104564)
(-3.28118e-06 -4.16595e-06 0.107969)
(2.60464e-06 -2.87885e-06 0.107937)
(-2.59111e-06 -2.86939e-06 0.107937)
(4.46659e-05 4.46674e-05 0.104564)
(3.72957e-05 3.72844e-05 0.104415)
(-4.47799e-05 -4.47622e-05 0.104531)
(2.42402e-06 2.53139e-06 0.107926)
(-2.4338e-06 2.52634e-06 0.107925)
(1.80217e-06 1.30413e-06 0.107895)
(-1.81556e-06 1.3378e-06 0.107895)
(-3.72884e-05 3.72344e-05 0.104415)
(4.47728e-05 -4.47519e-05 0.104531)
(2.47606e-06 2.3874e-06 0.107927)
(2.54217e-06 -2.44577e-06 0.107924)
(1.24071e-06 1.77058e-06 0.107897)
(1.30841e-06 -1.80011e-06 0.107894)
(-2.5205e-06 -2.41663e-06 0.107925)
(-1.27915e-06 1.77639e-06 0.107898)
(-1.35809e-06 -1.81881e-06 0.107895)
(3.72673e-05 -3.73244e-05 0.104414)
(-4.47629e-05 4.47827e-05 0.10453)
(-2.38408e-06 -2.45364e-06 0.107927)
(1.75596e-06 -1.25249e-06 0.107897)
(-1.78839e-06 -1.27964e-06 0.107896)
(4.47354e-05 4.47468e-05 0.10453)
(3.61858e-05 3.61759e-05 0.104383)
(-4.48566e-05 -4.48297e-05 0.104499)
(1.62183e-06 9.2832e-07 0.107886)
(-1.59962e-06 9.52256e-07 0.107885)
(1.02072e-06 -1.86628e-07 0.107857)
(-1.02814e-06 -1.92283e-07 0.107856)
(-3.61799e-05 3.61786e-05 0.104383)
(4.48605e-05 -4.4857e-05 0.1045)
(8.69045e-07 1.57266e-06 0.107887)
(9.23604e-07 -1.59149e-06 0.107884)
(-2.43034e-07 9.9596e-07 0.107858)
(-1.68065e-07 -1.04532e-06 0.107855)
(-9.6317e-07 -1.6213e-06 0.107885)
(2.78525e-07 9.83185e-07 0.107859)
(2.18242e-07 -9.95995e-07 0.107856)
(3.61714e-05 -3.61907e-05 0.104383)
(-4.48362e-05 4.4836e-05 0.104499)
(-1.57578e-06 -8.8857e-07 0.107886)
(9.91501e-07 2.43994e-07 0.107858)
(-9.69689e-07 2.88805e-07 0.107858)
(4.48442e-05 4.48653e-05 0.104499)
(3.51425e-05 3.51564e-05 0.104355)
(-4.48878e-05 -4.48797e-05 0.104471)
(8.15349e-07 -5.61284e-07 0.107848)
(-8.73405e-07 -5.57198e-07 0.107847)
(3.21919e-07 -1.6464e-06 0.107821)
(-3.17045e-07 -1.60509e-06 0.10782)
(-3.51597e-05 3.51163e-05 0.104355)
(4.4902e-05 -4.48626e-05 0.104471)
(-6.29506e-07 8.15378e-07 0.107849)
(-5.44e-07 -8.72203e-07 0.107846)
(-1.70751e-06 2.91736e-07 0.107822)
(-1.66001e-06 -2.85505e-07 0.107819)
(5.69058e-07 -8.19042e-07 0.107847)
(1.66466e-06 3.02262e-07 0.107823)
(1.58048e-06 -3.29755e-07 0.10782)
(3.51343e-05 -3.5198e-05 0.104355)
(-4.48777e-05 4.49244e-05 0.104471)
(-8.17656e-07 6.48483e-07 0.107848)
(2.72015e-07 1.71884e-06 0.107822)
(-3.07485e-07 1.66188e-06 0.107821)
(4.48532e-05 4.48642e-05 0.10447)
(3.42309e-05 3.42089e-05 0.104329)
(-4.49304e-05 -4.49069e-05 0.104445)
(1.7337e-07 -1.96618e-06 0.107812)
(-1.08378e-07 -1.95428e-06 0.107811)
(-3.55037e-07 -2.95126e-06 0.107787)
(3.31724e-07 -2.95395e-06 0.107786)
(-3.41941e-05 3.42137e-05 0.104329)
(4.49169e-05 -4.49253e-05 0.104446)
(-2.01792e-06 1.1176e-07 0.107813)
(-1.98299e-06 -1.06899e-07 0.10781)
(-2.99905e-06 -3.79522e-07 0.107788)
(-2.91909e-06 3.06709e-07 0.107785)
(1.95153e-06 -1.45177e-07 0.107811)
(3.03368e-06 -3.85809e-07 0.107789)
(2.98998e-06 3.64506e-07 0.107786)
(3.42112e-05 -3.42008e-05 0.104329)
(-4.4909e-05 4.48875e-05 0.104445)
(-9.26522e-08 2.0189e-06 0.107813)
(-3.7941e-07 2.98701e-06 0.107788)
(3.97747e-07 3.04178e-06 0.107787)
(4.49152e-05 4.49262e-05 0.104445)
(3.33206e-05 3.33352e-05 0.104306)
(-4.49691e-05 -4.49669e-05 0.104422)
(-5.34929e-07 -3.2578e-06 0.107778)
(4.40781e-07 -3.24525e-06 0.107778)
(-9.37729e-07 -4.08635e-06 0.107755)
(9.51356e-07 -4.05241e-06 0.107754)
(-3.33625e-05 3.33069e-05 0.104306)
(4.49912e-05 -4.49565e-05 0.104423)
(-3.32355e-06 -5.26653e-07 0.10778)
(-3.24423e-06 4.52077e-07 0.107777)
(-4.14726e-06 -9.70975e-07 0.107756)
(-4.0992e-06 9.76698e-07 0.107753)
(3.2571e-06 5.02929e-07 0.107778)
(4.10387e-06 -9.68731e-07 0.107757)
(4.0296e-06 9.43538e-07 0.107754)
(3.33117e-05 -3.33953e-05 0.104306)
(-4.49581e-05 4.5009e-05 0.104422)
(4.99916e-07 3.32183e-06 0.107779)
(-9.84292e-07 4.15225e-06 0.107756)
(9.61577e-07 4.10619e-06 0.107755)
(4.49451e-05 4.49593e-05 0.104422)
(3.25095e-05 3.24813e-05 0.104286)
(-4.50091e-05 -4.49751e-05 0.104402)
(-1.05263e-06 -4.33712e-06 0.107747)
(1.14174e-06 -4.32871e-06 0.107746)
(-1.53891e-06 -5.11169e-06 0.107725)
(1.51854e-06 -5.11858e-06 0.107724)
(-3.24607e-05 3.24809e-05 0.104286)
(4.49979e-05 -4.49916e-05 0.104402)
(-4.38406e-06 -1.12045e-06 0.107748)
(-4.33322e-06 1.12808e-06 0.107745)
(-5.16002e-06 -1.54224e-06 0.107726)
(-5.08959e-06 1.5077e-06 0.107723)
(4.33628e-06 1.10052e-06 0.107746)
(5.20666e-06 -1.5466e-06 0.107727)
(5.15828e-06 1.54096e-06 0.107724)
(3.24959e-05 -3.24778e-05 0.104285)
(-4.49901e-05 4.49786e-05 0.104401)
(1.15704e-06 4.39769e-06 0.107748)
(-1.55882e-06 5.16536e-06 0.107726)
(1.56068e-06 5.19989e-06 0.107725)
(4.49819e-05 4.49971e-05 0.104401)
(3.17006e-05 3.17263e-05 0.104267)
(-4.49841e-05 -4.50124e-05 0.104384)
(-1.71128e-06 -5.35976e-06 0.107717)
(1.61153e-06 -5.36045e-06 0.107717)
(-2.02942e-06 -6.10376e-06 0.107697)
(2.026e-06 -6.06023e-06 0.107696)
(-3.17408e-05 3.16952e-05 0.104267)
(4.49946e-05 -4.49885e-05 0.104384)
(-5.43234e-06 -1.68315e-06 0.107719)
(-5.37597e-06 1.6404e-06 0.107716)
(-6.14923e-06 -2.09944e-06 0.107698)
(-6.10184e-06 2.03999e-06 0.107695)
(5.37447e-06 1.67485e-06 0.107717)
(6.08735e-06 -2.07816e-06 0.107699)
(6.04906e-06 2.02276e-06 0.107696)
(3.16849e-05 -3.17629e-05 0.104267)
(-4.49829e-05 4.50079e-05 0.104383)
(1.65609e-06 5.42944e-06 0.107718)
(-2.07822e-06 6.13634e-06 0.107698)
(2.07375e-06 6.1063e-06 0.107698)
(4.49849e-05 4.49748e-05 0.104383)
(3.10435e-05 3.09876e-05 0.104251)
(-4.50174e-05 -4.49476e-05 0.104368)
(-2.14096e-06 -6.32994e-06 0.10769)
(2.21735e-06 -6.29588e-06 0.107689)
(-2.59907e-06 -6.88013e-06 0.107671)
(2.59981e-06 -6.91149e-06 0.10767)
(-3.10064e-05 3.10037e-05 0.104251)
(4.50178e-05 -4.49876e-05 0.104368)
(-6.34662e-06 -2.24154e-06 0.107692)
(-6.28795e-06 2.18699e-06 0.107689)
(-6.94539e-06 -2.55656e-06 0.107672)
(-6.87775e-06 2.58595e-06 0.107669)
(6.30076e-06 2.16626e-06 0.107689)
(6.9987e-06 -2.59436e-06 0.107673)
(6.92665e-06 2.62074e-06 0.10767)
(3.10263e-05 -3.10296e-05 0.104251)
(-4.49823e-05 4.49919e-05 0.104367)
(2.25413e-06 6.34063e-06 0.107691)
(-2.60348e-06 6.94816e-06 0.107672)
(2.59842e-06 6.97423e-06 0.107672)
(4.49662e-05 4.50129e-05 0.104367)
(3.03482e-05 3.04084e-05 0.104237)
(-4.49508e-05 -4.50176e-05 0.104354)
(-2.73648e-06 -7.06011e-06 0.107665)
(2.65801e-06 -7.09137e-06 0.107664)
(-3.06593e-06 -7.71224e-06 0.107647)
(3.06333e-06 -7.65833e-06 0.107646)
(-3.03766e-05 3.03557e-05 0.104237)
(4.4966e-05 -4.49737e-05 0.104354)
(-7.16258e-06 -2.66417e-06 0.107666)
(-7.10913e-06 2.69425e-06 0.107663)
(-7.73098e-06 -3.16662e-06 0.107648)
(-7.70836e-06 3.08727e-06 0.107645)
(7.09459e-06 2.72703e-06 0.107664)
(7.68706e-06 -3.12096e-06 0.107649)
(7.68374e-06 3.04389e-06 0.107646)
(3.03453e-05 -3.04018e-05 0.104237)
(-4.49832e-05 4.49867e-05 0.104354)
(2.67144e-06 7.16534e-06 0.107665)
(-3.146e-06 7.73956e-06 0.107648)
(3.14357e-06 7.70652e-06 0.107647)
(4.49941e-05 4.4937e-05 0.104353)
(2.97985e-05 2.97051e-05 0.104226)
(-4.49254e-05 -4.48408e-05 0.104342)
(-3.18171e-06 -7.89473e-06 0.107641)
(3.2456e-06 -7.85709e-06 0.10764)
(-3.49231e-06 -8.26913e-06 0.107625)
(3.46233e-06 -8.3155e-06 0.107624)
(-2.97594e-05 2.97315e-05 0.104225)
(4.4903e-05 -4.4887e-05 0.104343)
(-7.86453e-06 -3.31696e-06 0.107642)
(-7.85004e-06 3.21888e-06 0.10764)
(-8.3406e-06 -3.44228e-06 0.107626)
(-8.2581e-06 3.44597e-06 0.107623)
(7.87721e-06 3.18418e-06 0.10764)
(8.36117e-06 -3.48331e-06 0.107627)
(8.28441e-06 3.51854e-06 0.107624)
(2.97457e-05 -2.97767e-05 0.104225)
(-4.48498e-05 4.48838e-05 0.104342)
(3.31104e-06 7.86372e-06 0.107642)
(-3.44271e-06 8.31989e-06 0.107626)
(3.4411e-06 8.35582e-06 0.107625)
(4.48265e-05 4.49253e-05 0.104342)
(2.92434e-05 2.93218e-05 0.104216)
(-4.49483e-05 -4.50029e-05 0.104332)
(-3.61872e-06 -8.43754e-06 0.107619)
(3.53172e-06 -8.44946e-06 0.107619)
(-4.01936e-06 -9.00312e-06 0.107604)
(4.06855e-06 -8.96765e-06 0.107603)
(-2.92896e-05 2.92767e-05 0.104216)
(4.49967e-05 -4.49708e-05 0.104332)
(-8.55672e-06 -3.53093e-06 0.107621)
(-8.45051e-06 3.56645e-06 0.107618)
(-9.02872e-06 -4.08869e-06 0.107605)
(-9.01064e-06 4.07081e-06 0.107602)
(8.43345e-06 3.62591e-06 0.107619)
(9.02414e-06 -4.0654e-06 0.107606)
(9.01827e-06 4.00761e-06 0.107603)
(2.92927e-05 -2.9309e-05 0.104215)
(-4.50082e-05 4.49888e-05 0.104332)
(3.52225e-06 8.55776e-06 0.10762)
(-4.1306e-06 9.05122e-06 0.107605)
(4.13607e-06 9.02504e-06 0.107605)
(4.50295e-05 4.49279e-05 0.104332)
(2.87262e-05 2.86408e-05 0.104208)
(-4.4775e-05 -4.47448e-05 0.104324)
(-4.02916e-06 -9.10549e-06 0.107599)
(4.12528e-06 -9.11242e-06 0.107598)
(-4.22633e-06 -9.45742e-06 0.107585)
(4.16162e-06 -9.46448e-06 0.107584)
(-2.86595e-05 2.86442e-05 0.104207)
(4.47262e-05 -4.47505e-05 0.104325)
(-9.07955e-06 -4.14103e-06 0.1076)
(-9.11064e-06 4.08152e-06 0.107598)
(-9.48368e-06 -4.24681e-06 0.107586)
(-9.45814e-06 4.17478e-06 0.107584)
(9.15356e-06 4.03057e-06 0.107598)
(9.48202e-06 -4.24139e-06 0.107587)
(9.4477e-06 4.20776e-06 0.107584)
(2.86277e-05 -2.87014e-05 0.104207)
(-4.4723e-05 4.47485e-05 0.104324)
(4.19779e-06 9.08763e-06 0.1076)
(-4.20444e-06 9.46067e-06 0.107586)
(4.18623e-06 9.46124e-06 0.107586)
(4.46889e-05 4.47661e-05 0.104324)
(2.83008e-05 2.83318e-05 0.104201)
(-4.4814e-05 -4.47859e-05 0.104318)
(-4.4945e-06 -9.67621e-06 0.107581)
(4.38631e-06 -9.64957e-06 0.10758)
(-4.72113e-06 -9.90711e-06 0.107568)
(4.73601e-06 -9.92613e-06 0.107567)
(-2.8367e-05 2.8326e-05 0.104201)
(4.48363e-05 -4.48149e-05 0.104318)
(-9.7447e-06 -4.46925e-06 0.107582)
(-9.65088e-06 4.42658e-06 0.107579)
(-9.98042e-06 -4.68858e-06 0.107569)
(-9.89271e-06 4.73841e-06 0.107566)
(9.62076e-06 4.47119e-06 0.10758)
(9.95979e-06 -4.73241e-06 0.10757)
(9.91177e-06 4.77264e-06 0.107567)
(2.83532e-05 -2.83531e-05 0.104201)
(-4.48003e-05 4.48216e-05 0.104318)
(4.3837e-06 9.7159e-06 0.107581)
(-4.74339e-06 9.99119e-06 0.107569)
(4.73418e-06 1.00288e-05 0.107568)
(4.48095e-05 4.48301e-05 0.104317)
(2.79643e-05 2.79548e-05 0.104197)
(-4.47576e-05 -4.48223e-05 0.104313)
(-4.59192e-06 -9.87461e-06 0.107564)
(4.65063e-06 -9.90007e-06 0.107563)
(-5.01573e-06 -1.05634e-05 0.107552)
(5.0737e-06 -1.05259e-05 0.107551)
(-2.79223e-05 2.79176e-05 0.104197)
(4.47957e-05 -4.47579e-05 0.104313)
(-9.91579e-06 -4.60302e-06 0.107565)
(-9.91316e-06 4.65365e-06 0.107562)
(-1.05399e-05 -5.13757e-06 0.107553)
(-1.05569e-05 5.05095e-06 0.10755)
(9.90665e-06 4.62968e-06 0.107563)
(1.05901e-05 -5.04419e-06 0.107554)
(1.05989e-05 4.98018e-06 0.107551)
(2.79115e-05 -2.79638e-05 0.104196)
(-4.47822e-05 4.47965e-05 0.104313)
(4.67586e-06 9.95459e-06 0.107564)
(-5.07772e-06 1.05719e-05 0.107553)
(5.16226e-06 1.0502e-05 0.107553)
(4.48295e-05 4.47224e-05 0.104312)
(2.7435e-05 2.73719e-05 0.104193)
(-4.44486e-05 -4.43512e-05 0.10431)
(-5.2695e-06 -1.07978e-05 0.107548)
(5.2701e-06 -1.07764e-05 0.107547)
(-5.13374e-06 -1.0396e-05 0.107537)
(5.00005e-06 -1.04432e-05 0.107537)
(-2.74218e-05 2.74019e-05 0.104193)
(4.43671e-05 -4.44409e-05 0.104311)
(-1.0779e-05 -5.35909e-06 0.107549)
(-1.0729e-05 5.22247e-06 0.107547)
(-1.04835e-05 -5.03818e-06 0.107539)
(-1.04554e-05 5.04442e-06 0.107536)
(1.08407e-05 5.24978e-06 0.107547)
(1.0409e-05 -5.17214e-06 0.107539)
(1.0358e-05 5.13593e-06 0.107537)
(2.7418e-05 -2.74348e-05 0.104193)
(-4.44276e-05 4.43702e-05 0.10431)
(5.35865e-06 1.07752e-05 0.107549)
(-5.14807e-06 1.04109e-05 0.107538)
(4.98048e-06 1.05047e-05 0.107538)
(4.42899e-05 4.44554e-05 0.10431)
(2.74228e-05 2.74938e-05 0.104192)
(-4.46406e-05 -4.47174e-05 0.104308)
(-5.19557e-06 -1.05258e-05 0.107534)
(5.11955e-06 -1.05547e-05 0.107533)
(-5.58635e-06 -1.13827e-05 0.107525)
(5.74331e-06 -1.1332e-05 0.107524)
(-2.74787e-05 2.74168e-05 0.104192)
(4.47562e-05 -4.46062e-05 0.104308)
(-1.06319e-05 -5.1104e-06 0.107536)
(-1.06315e-05 5.19464e-06 0.107533)
(-1.1382e-05 -5.69267e-06 0.107526)
(-1.12719e-05 5.7227e-06 0.107523)
(1.04463e-05 5.19052e-06 0.107533)
(1.14622e-05 -5.53467e-06 0.107527)
(1.14185e-05 5.63984e-06 0.107524)
(2.74053e-05 -2.74844e-05 0.104192)
(-4.45629e-05 4.47693e-05 0.104307)
(5.05864e-06 1.06143e-05 0.107535)
(-5.53301e-06 1.15122e-05 0.107526)
(5.75099e-06 1.14017e-05 0.107525)
(4.47409e-05 4.46489e-05 0.104307)
(2.69306e-05 2.68367e-05 0.104191)
(-4.44536e-05 -4.44147e-05 0.104308)
(-5.50682e-06 -1.11258e-05 0.107521)
(5.63416e-06 -1.11086e-05 0.10752)
(-5.77377e-06 -1.10822e-05 0.107512)
(5.58128e-06 -1.111e-05 0.107511)
(-2.68284e-05 2.69069e-05 0.104191)
(4.43193e-05 -4.45124e-05 0.104308)
(-1.10987e-05 -5.62582e-06 0.107523)
(-1.10116e-05 5.58224e-06 0.10752)
(-1.10976e-05 -5.75127e-06 0.107513)
(-1.11954e-05 5.60112e-06 0.107511)
(1.1251e-05 5.58757e-06 0.107521)
(1.10082e-05 -5.89035e-06 0.107514)
(1.10554e-05 5.69134e-06 0.107511)
(2.69588e-05 -2.68497e-05 0.10419)
(-4.45803e-05 4.43004e-05 0.104307)
(5.71638e-06 1.11905e-05 0.107522)
(-5.93405e-06 1.09606e-05 0.107513)
(5.70291e-06 1.10802e-05 0.107513)
(4.43693e-05 4.44039e-05 0.104307)
(2.66344e-05 2.66625e-05 0.104192)
(-4.43278e-05 -4.43426e-05 0.104309)
(-5.87133e-06 -1.15826e-05 0.10751)
(5.70664e-06 -1.15792e-05 0.107509)
(-5.89457e-06 -1.18067e-05 0.107503)
(6.1459e-06 -1.17734e-05 0.107502)
(-2.67618e-05 2.65778e-05 0.104192)
(4.4526e-05 -4.42485e-05 0.104309)
(-1.16146e-05 -5.83678e-06 0.107511)
(-1.16805e-05 5.74135e-06 0.107508)
(-1.1851e-05 -5.95369e-06 0.107504)
(-1.16861e-05 6.12033e-06 0.107501)
(1.14568e-05 5.76437e-06 0.107509)
(1.19543e-05 -5.80683e-06 0.107505)
(1.18351e-05 5.99248e-06 0.107502)
(2.65274e-05 -2.67796e-05 0.104192)
(-4.4152e-05 4.45333e-05 0.104308)
(5.75323e-06 1.15156e-05 0.10751)
(-5.748e-06 1.19978e-05 0.107504)
(6.02119e-06 1.18522e-05 0.107503)
(4.43883e-05 4.43826e-05 0.104308)
(2.66351e-05 2.6604e-05 0.104194)
(-4.41963e-05 -4.41677e-05 0.104309)
(-5.79864e-06 -1.12427e-05 0.1075)
(6.03434e-06 -1.1265e-05 0.107499)
(-5.98084e-06 -1.10197e-05 0.107491)
(5.62353e-06 -1.10677e-05 0.10749)
(-2.6441e-05 2.66573e-05 0.104194)
(4.39479e-05 -4.43038e-05 0.104309)
(-1.12891e-05 -5.86156e-06 0.107501)
(-1.11447e-05 5.99115e-06 0.107499)
(-1.10412e-05 -5.93789e-06 0.107492)
(-1.11556e-05 5.6616e-06 0.10749)
(1.14107e-05 5.951e-06 0.107499)
(1.09066e-05 -6.10095e-06 0.107493)
(1.09843e-05 5.87305e-06 0.10749)
(2.67445e-05 -2.64659e-05 0.104193)
(-4.43994e-05 4.39213e-05 0.104309)
(5.98413e-06 1.14106e-05 0.107501)
(-6.18265e-06 1.08667e-05 0.107492)
(5.85023e-06 1.10386e-05 0.107492)
(4.40943e-05 4.41331e-05 0.104309)
(2.62358e-05 2.62479e-05 0.104196)
(-4.44178e-05 -4.44918e-05 0.104315)
(-6.28693e-06 -1.20024e-05 0.107489)
(5.91732e-06 -1.20062e-05 0.107488)
(-6.69756e-06 -1.34875e-05 0.107485)
(7.09154e-06 -1.33554e-05 0.107485)
(-2.64819e-05 2.61176e-05 0.104196)
(4.47225e-05 -4.42677e-05 0.104315)
(-1.2017e-05 -6.24412e-06 0.10749)
(-1.21244e-05 5.97445e-06 0.107487)
(-1.34717e-05 -6.82086e-06 0.107487)
(-1.33118e-05 7.07684e-06 0.107484)
(1.18338e-05 6.1229e-06 0.107488)
(1.35585e-05 -6.61091e-06 0.107487)
(1.34493e-05 6.77959e-06 0.107484)
(2.6038e-05 -2.65121e-05 0.104196)
(-4.4181e-05 4.4755e-05 0.104314)
(6.10147e-06 1.1899e-05 0.10749)
(-6.53396e-06 1.36023e-05 0.107486)
(6.891e-06 1.34255e-05 0.107486)
(4.45092e-05 4.4427e-05 0.104314)
(2.60878e-05 2.59974e-05 0.104203)
(-4.30436e-05 -4.29618e-05 0.104315)
(-6.15788e-06 -1.23979e-05 0.107484)
(6.69562e-06 -1.2301e-05 0.107483)
(-5.29059e-06 -8.82298e-06 0.107476)
(5.03808e-06 -9.02477e-06 0.107475)
(-2.57389e-05 2.62028e-05 0.104202)
(4.28025e-05 -4.32156e-05 0.104316)
(-1.23866e-05 -6.30661e-06 0.107486)
(-1.22149e-05 6.6416e-06 0.107483)
(-8.88782e-06 -5.22556e-06 0.107477)
(-9.01094e-06 5.00673e-06 0.107474)
(1.25125e-05 6.34178e-06 0.107483)
(8.97446e-06 -5.44738e-06 0.107478)
(9.01351e-06 5.3063e-06 0.107476)
(2.62931e-05 -2.57405e-05 0.104202)
(-4.3282e-05 4.27368e-05 0.104315)
(6.48195e-06 1.24614e-05 0.107485)
(-5.51038e-06 8.90136e-06 0.107477)
(5.26275e-06 9.05297e-06 0.107477)
(4.29721e-05 4.30578e-05 0.104315)
(2.67509e-05 2.68348e-05 0.104203)
(-4.55848e-05 -4.56391e-05 0.10432)
(-5.80048e-06 -9.55178e-06 0.107472)
(5.23802e-06 -9.73385e-06 0.107472)
(-8.21171e-06 -1.67008e-05 0.107467)
(8.15814e-06 -1.6509e-05 0.107466)
(-2.71091e-05 2.6547e-05 0.104203)
(4.56527e-05 -4.54624e-05 0.10432)
(-9.6351e-06 -5.66714e-06 0.107474)
(-9.79106e-06 5.27076e-06 0.107471)
(-1.66953e-05 -8.26639e-06 0.107469)
(-1.65806e-05 8.24907e-06 0.107466)
(9.55065e-06 5.68043e-06 0.107472)
(1.64548e-05 -8.11691e-06 0.107469)
(1.6427e-05 8.12214e-06 0.107466)
(2.64636e-05 -2.71728e-05 0.104203)
(-4.54414e-05 4.57254e-05 0.10432)
(5.56119e-06 9.63596e-06 0.107473)
(-8.12135e-06 1.65431e-05 0.107468)
(8.14222e-06 1.64571e-05 0.107468)
(4.55579e-05 4.55395e-05 0.104319)
(2.4356e-05 2.42547e-05 0.104211)
(-4.12629e-05 -4.12017e-05 0.104329)
(-7.95276e-06 -1.6964e-05 0.107468)
(8.32e-06 -1.67569e-05 0.107466)
(-4.4282e-06 -7.38392e-06 0.107466)
(4.73335e-06 -7.50157e-06 0.107465)
(-2.41468e-05 2.44696e-05 0.104211)
(4.14054e-05 -4.12729e-05 0.104329)
(-1.69191e-05 -8.11601e-06 0.107469)
(-1.67451e-05 8.33659e-06 0.107466)
(-7.41219e-06 -4.44075e-06 0.107467)
(-7.39629e-06 4.62622e-06 0.107465)
(1.6884e-05 8.05463e-06 0.107466)
(7.74883e-06 -4.47678e-06 0.107468)
(7.68613e-06 4.54348e-06 0.107466)