/*--------------------------------*- C++ -*----------------------------------*\
| =========                 |                                                 |
| \\      /  F ield         | OpenFOAM: The Open Source CFD Toolbox           |
|  \\    /   O peration     | Version:  v2012                                 |
|   \\  /    A nd           | Website:  www.openfoam.com                      |
|    \\/     M anipulation  |                                                 |
\*---------------------------------------------------------------------------*/
FoamFile
{
    version     2.0;
    format      ascii;
    class       volScalarField;
    location    "500";
    object      epsilon;
}
// * * * * * * * * * * * * * * * * * * * * * * * * * * * * * * * * * * * * * //

dimensions      [0 2 -3 0 0 0 0];


internalField   nonuniform List<scalar> 
171728
(
4.95567e-07
4.9733e-07
4.9733e-07
4.99575e-07
4.45573e-07
4.53735e-07
4.53737e-07
4.6371e-07
4.03752e-07
4.18513e-07
4.18517e-07
4.39411e-07
3.68363e-07
3.88552e-07
3.88558e-07
4.17667e-07
3.38015e-07
3.62102e-07
3.6211e-07
3.96081e-07
3.11646e-07
3.38273e-07
3.38281e-07
3.7458e-07
2.88473e-07
3.16637e-07
3.16646e-07
3.5371e-07
2.67923e-07
2.97021e-07
2.97031e-07
3.34148e-07
2.4958e-07
2.7937e-07
2.79379e-07
3.16484e-07
2.33137e-07
2.63679e-07
2.63688e-07
3.01164e-07
2.18366e-07
2.49955e-07
2.49965e-07
2.88498e-07
2.05091e-07
2.38203e-07
2.38211e-07
2.78704e-07
1.93172e-07
2.28419e-07
2.2843e-07
2.71904e-07
1.82502e-07
2.20624e-07
2.20632e-07
2.68264e-07
1.72982e-07
2.14816e-07
2.14858e-07
2.67943e-07
1.64554e-07
2.11117e-07
2.11083e-07
2.71336e-07
1.57191e-07
2.09632e-07
2.09558e-07
2.78789e-07
1.50749e-07
2.10359e-07
2.1068e-07
2.92966e-07
1.45471e-07
2.14145e-07
2.13455e-07
3.08969e-07
1.40865e-07
2.20086e-07
2.20248e-07
3.33387e-07
1.36769e-07
2.26799e-07
2.25018e-07
3.35929e-07
1.3369e-07
2.29535e-07
2.30751e-07
3.6471e-07
1.31489e-07
2.42345e-07
2.41981e-07
3.79977e-07
1.30057e-07
2.52793e-07
2.54848e-07
4.14231e-07
1.29572e-07
2.66144e-07
2.65777e-07
4.31003e-07
1.29394e-07
2.78871e-07
2.84155e-07
4.5511e-07
1.30552e-07
3.05662e-07
3.02989e-07
4.96494e-07
1.32944e-07
3.25297e-07
3.18322e-07
5.47511e-07
1.34894e-07
3.43495e-07
3.49692e-07
5.95562e-07
1.38892e-07
3.75336e-07
3.69107e-07
6.2135e-07
1.42078e-07
3.87106e-07
3.90818e-07
6.52465e-07
1.46e-07
4.2379e-07
4.34979e-07
7.13344e-07
1.53354e-07
4.51744e-07
4.49172e-07
7.50665e-07
1.6029e-07
4.86078e-07
4.79034e-07
7.81176e-07
1.66521e-07
5.0809e-07
5.03546e-07
7.97136e-07
1.75386e-07
5.32408e-07
5.34823e-07
8.34567e-07
1.83503e-07
5.63754e-07
5.67452e-07
8.91435e-07
1.93117e-07
5.95363e-07
5.96527e-07
9.09545e-07
2.03083e-07
6.25324e-07
6.25682e-07
9.32643e-07
2.13995e-07
6.55126e-07
6.54627e-07
9.64405e-07
2.26639e-07
6.85228e-07
6.84563e-07
9.92351e-07
2.3894e-07
7.14171e-07
7.144e-07
1.02234e-06
2.52045e-07
7.43097e-07
7.43133e-07
1.04816e-06
2.65694e-07
7.70804e-07
7.70729e-07
1.07216e-06
2.80414e-07
7.97793e-07
7.98248e-07
1.09512e-06
2.95549e-07
8.24536e-07
8.2471e-07
1.11709e-06
3.10966e-07
8.50178e-07
8.49872e-07
1.13953e-06
3.26802e-07
8.74385e-07
8.74647e-07
1.1605e-06
3.43263e-07
8.97804e-07
8.98216e-07
1.17819e-06
3.59432e-07
9.20648e-07
9.20516e-07
1.19729e-06
3.75858e-07
9.42155e-07
9.42029e-07
1.21672e-06
3.92723e-07
9.61688e-07
9.62156e-07
1.23037e-06
4.09332e-07
9.82514e-07
9.82081e-07
1.24792e-06
4.25657e-07
1.00025e-06
1.00152e-06
1.26287e-06
4.42218e-07
1.01753e-06
1.01772e-06
1.27573e-06
4.58183e-07
1.03355e-06
1.03254e-06
1.29032e-06
4.74631e-07
1.05118e-06
1.05053e-06
1.30379e-06
4.89621e-07
1.06386e-06
1.06472e-06
1.3141e-06
5.04253e-07
1.07795e-06
1.07892e-06
1.32849e-06
5.20188e-07
1.08894e-06
1.08792e-06
1.32621e-06
5.31294e-07
1.10643e-06
1.10684e-06
1.35622e-06
5.49519e-07
1.10827e-06
1.10835e-06
1.35404e-06
5.57644e-07
1.12884e-06
1.12498e-06
1.36461e-06
5.73928e-07
1.12809e-06
1.14318e-06
1.35974e-06
5.85492e-07
1.15086e-06
1.12629e-06
1.387e-06
5.90965e-07
1.13774e-06
1.16474e-06
1.42612e-06
6.08368e-07
1.1619e-06
1.15385e-06
1.33226e-06
6.15808e-07
1.17752e-06
1.14255e-06
1.40466e-06
6.25501e-07
1.15474e-06
1.19744e-06
1.45942e-06
6.33977e-07
1.179e-06
1.15701e-06
1.36734e-06
6.39019e-07
1.18227e-06
1.17622e-06
1.3993e-06
6.48893e-07
1.18247e-06
1.19008e-06
1.43924e-06
6.57853e-07
1.18988e-06
1.18626e-06
1.42043e-06
6.61982e-07
1.18913e-06
1.19367e-06
1.41497e-06
6.65775e-07
1.19274e-06
1.1933e-06
1.43322e-06
6.71829e-07
1.19452e-06
1.1917e-06
1.42407e-06
6.76708e-07
1.19505e-06
1.19539e-06
1.42316e-06
6.80312e-07
1.19813e-06
1.19842e-06
1.43235e-06
6.83666e-07
1.19851e-06
1.19835e-06
1.43239e-06
6.86332e-07
1.1978e-06
1.19787e-06
1.42945e-06
6.8857e-07
1.19786e-06
1.19766e-06
1.43245e-06
6.90048e-07
1.19602e-06
1.19674e-06
1.42895e-06
6.91655e-07
1.19635e-06
1.19583e-06
1.43236e-06
6.92687e-07
1.19399e-06
1.19477e-06
1.42773e-06
6.92488e-07
1.19197e-06
1.19185e-06
1.42801e-06
6.93715e-07
1.19162e-06
1.19181e-06
1.42737e-06
6.92697e-07
1.18707e-06
1.18696e-06
1.42343e-06
6.92511e-07
1.18546e-06
1.18636e-06
1.42238e-06
6.9228e-07
1.184e-06
1.18303e-06
1.42131e-06
6.90373e-07
1.17848e-06
1.17946e-06
1.41641e-06
6.89647e-07
1.17733e-06
1.17635e-06
1.41546e-06
6.8884e-07
1.17434e-06
1.176e-06
1.41502e-06
6.85747e-07
1.16824e-06
1.16778e-06
1.40552e-06
6.84621e-07
1.16694e-06
1.1665e-06
1.40468e-06
6.67031e-07
1.11354e-06
1.11439e-06
1.37598e-06
5.06417e-07
5.05584e-07
5.05582e-07
5.06417e-07
5.05583e-07
5.05582e-07
5.09649e-07
5.09649e-07
5.09649e-07
5.09649e-07
5.05584e-07
5.05584e-07
5.06418e-07
5.05584e-07
5.05583e-07
5.06418e-07
4.99575e-07
4.67237e-07
4.97331e-07
4.97335e-07
4.63713e-07
4.63721e-07
4.99575e-07
4.67235e-07
4.97335e-07
4.97336e-07
4.63718e-07
4.63724e-07
4.97332e-07
4.63709e-07
4.63714e-07
4.99575e-07
4.67241e-07
4.97334e-07
4.6371e-07
4.63719e-07
4.6724e-07
4.63709e-07
4.41426e-07
4.5374e-07
4.53748e-07
4.26738e-07
4.26747e-07
4.63708e-07
4.4142e-07
4.53744e-07
4.53751e-07
4.26739e-07
4.26751e-07
4.53741e-07
4.26729e-07
4.26741e-07
4.63711e-07
4.41431e-07
4.53744e-07
4.26734e-07
4.26741e-07
4.41429e-07
4.39407e-07
4.19283e-07
4.18522e-07
4.1853e-07
3.95676e-07
3.95682e-07
4.39405e-07
4.19275e-07
4.18522e-07
4.18535e-07
3.95672e-07
3.95689e-07
4.18525e-07
3.95663e-07
3.95679e-07
4.39413e-07
4.19289e-07
4.18523e-07
3.95669e-07
3.95673e-07
4.19287e-07
4.17662e-07
3.97645e-07
3.88566e-07
3.88571e-07
3.68461e-07
3.68466e-07
4.17656e-07
3.97636e-07
3.8856e-07
3.88578e-07
3.68452e-07
3.68473e-07
3.88569e-07
3.68444e-07
3.68464e-07
4.17669e-07
3.97651e-07
3.88562e-07
3.68452e-07
3.68454e-07
3.97649e-07
3.96076e-07
3.76085e-07
3.6212e-07
3.62124e-07
3.44033e-07
3.44036e-07
3.96069e-07
3.76075e-07
3.62109e-07
3.62131e-07
3.4402e-07
3.44043e-07
3.62123e-07
3.44013e-07
3.44036e-07
3.96082e-07
3.76091e-07
3.62111e-07
3.44021e-07
3.44021e-07
3.7609e-07
3.74575e-07
3.55111e-07
3.38292e-07
3.38295e-07
3.21875e-07
3.21876e-07
3.74568e-07
3.55101e-07
3.38279e-07
3.38303e-07
3.21858e-07
3.21884e-07
3.38296e-07
3.21853e-07
3.21877e-07
3.74581e-07
3.55116e-07
3.3828e-07
3.21862e-07
3.2186e-07
3.55116e-07
3.53704e-07
3.35396e-07
3.16659e-07
3.16661e-07
3.01763e-07
3.01764e-07
3.53696e-07
3.35385e-07
3.16642e-07
3.16668e-07
3.01745e-07
3.01771e-07
3.16662e-07
3.0174e-07
3.01766e-07
3.5371e-07
3.35401e-07
3.16644e-07
3.0175e-07
3.01746e-07
3.354e-07
3.34142e-07
3.17533e-07
2.97044e-07
2.97045e-07
2.83623e-07
2.83624e-07
3.34133e-07
3.17525e-07
2.97026e-07
2.97053e-07
2.83603e-07
2.83631e-07
2.97047e-07
2.836e-07
2.83625e-07
3.34147e-07
3.17541e-07
2.97027e-07
2.83609e-07
2.83604e-07
3.17538e-07
3.16479e-07
3.01977e-07
2.79395e-07
2.79394e-07
2.67442e-07
2.67443e-07
3.16472e-07
3.01965e-07
2.79374e-07
2.79401e-07
2.6742e-07
2.6745e-07
2.79396e-07
2.67418e-07
2.67443e-07
3.16486e-07
3.01983e-07
2.79375e-07
2.67427e-07
2.67422e-07
3.01984e-07
3.01155e-07
2.89048e-07
2.63705e-07
2.63704e-07
2.53229e-07
2.53228e-07
3.01147e-07
2.89036e-07
2.63682e-07
2.63712e-07
2.53206e-07
2.53236e-07
2.63705e-07
2.53202e-07
2.53229e-07
3.01165e-07
2.89051e-07
2.63684e-07
2.53211e-07
2.53206e-07
2.8905e-07
2.88495e-07
2.78958e-07
2.49983e-07
2.49982e-07
2.40985e-07
2.40985e-07
2.88482e-07
2.78956e-07
2.49961e-07
2.4999e-07
2.4096e-07
2.40991e-07
2.49984e-07
2.40957e-07
2.40984e-07
2.88497e-07
2.78966e-07
2.49961e-07
2.40964e-07
2.40959e-07
2.78963e-07
2.78699e-07
2.71853e-07
2.38233e-07
2.38231e-07
2.30707e-07
2.30709e-07
2.78697e-07
2.71861e-07
2.38209e-07
2.38239e-07
2.30682e-07
2.30718e-07
2.38231e-07
2.30678e-07
2.30705e-07
2.78704e-07
2.7188e-07
2.38207e-07
2.30688e-07
2.30682e-07
2.71862e-07
2.71895e-07
2.67957e-07
2.2845e-07
2.28448e-07
2.22419e-07
2.22426e-07
2.71905e-07
2.67967e-07
2.28425e-07
2.28459e-07
2.22391e-07
2.22428e-07
2.28448e-07
2.22385e-07
2.22417e-07
2.71919e-07
2.67982e-07
2.28423e-07
2.2239e-07
2.22382e-07
2.67963e-07
2.68261e-07
2.67238e-07
2.20666e-07
2.20669e-07
2.16125e-07
2.16134e-07
2.6827e-07
2.67244e-07
2.2064e-07
2.20676e-07
2.16099e-07
2.16141e-07
2.20664e-07
2.16091e-07
2.16113e-07
2.6828e-07
2.67305e-07
2.20635e-07
2.16112e-07
2.16085e-07
2.67263e-07
2.67933e-07
2.698e-07
2.14861e-07
2.1486e-07
2.11862e-07
2.11873e-07
2.67957e-07
2.69876e-07
2.14845e-07
2.14891e-07
2.11821e-07
2.11922e-07
2.14875e-07
2.11828e-07
2.11869e-07
2.68007e-07
2.6988e-07
2.14849e-07
2.11851e-07
2.11843e-07
2.69885e-07
2.71319e-07
2.76458e-07
2.11157e-07
2.1116e-07
2.09739e-07
2.09829e-07
2.71409e-07
2.76681e-07
2.11113e-07
2.11156e-07
2.0974e-07
2.09704e-07
2.11104e-07
2.09756e-07
2.0966e-07
2.71392e-07
2.76491e-07
2.11077e-07
2.09615e-07
2.09615e-07
2.7646e-07
2.78816e-07
2.88506e-07
2.09649e-07
2.09702e-07
2.10028e-07
2.10082e-07
2.79261e-07
2.88836e-07
2.09594e-07
2.09618e-07
2.09902e-07
2.10188e-07
2.09567e-07
2.10026e-07
2.1009e-07
2.7889e-07
2.89413e-07
2.09557e-07
2.102e-07
2.10122e-07
2.89428e-07
2.91525e-07
3.04485e-07
2.10344e-07
2.10411e-07
2.12511e-07
2.1278e-07
2.91931e-07
3.06356e-07
2.10227e-07
2.10679e-07
2.12491e-07
2.1256e-07
2.10541e-07
2.12917e-07
2.12315e-07
2.93144e-07
3.05607e-07
2.10593e-07
2.12455e-07
2.12494e-07
3.04255e-07
3.10632e-07
3.28492e-07
2.14116e-07
2.13984e-07
2.18342e-07
2.18259e-07
3.1193e-07
3.29855e-07
2.14073e-07
2.13559e-07
2.18101e-07
2.1869e-07
2.13684e-07
2.18038e-07
2.18535e-07
3.09922e-07
3.31059e-07
2.13885e-07
2.18447e-07
2.18455e-07
3.30192e-07
3.3131e-07
3.3671e-07
2.1933e-07
2.20474e-07
2.22069e-07
2.26058e-07
3.35773e-07
3.55376e-07
2.19075e-07
2.2056e-07
2.22233e-07
2.24217e-07
2.19578e-07
2.25809e-07
2.21322e-07
3.36932e-07
3.46874e-07
2.19402e-07
2.24138e-07
2.21083e-07
3.33903e-07
3.39429e-07
3.49526e-07
2.23082e-07
2.26925e-07
2.27966e-07
2.28457e-07
3.57446e-07
3.50746e-07
2.23386e-07
2.25002e-07
2.28129e-07
2.28839e-07
2.22441e-07
2.28353e-07
2.29968e-07
3.48615e-07
3.53471e-07
2.22269e-07
2.28844e-07
2.29633e-07
3.57894e-07
3.54845e-07
3.74959e-07
2.3038e-07
2.29787e-07
2.37924e-07
2.38837e-07
3.52431e-07
3.78721e-07
2.30412e-07
2.30718e-07
2.37774e-07
2.3826e-07
2.32443e-07
2.38765e-07
2.37994e-07
3.57334e-07
3.76656e-07
2.32147e-07
2.38352e-07
2.38207e-07
3.76361e-07
3.80242e-07
4.01066e-07
2.40613e-07
2.42327e-07
2.50005e-07
2.50702e-07
3.87703e-07
4.04256e-07
2.40514e-07
2.41998e-07
2.50051e-07
2.52872e-07
2.40411e-07
2.5064e-07
2.51162e-07
3.84527e-07
4.12947e-07
2.40711e-07
2.52536e-07
2.5122e-07
4.06633e-07
4.07412e-07
4.27763e-07
2.52999e-07
2.52944e-07
2.63393e-07
2.62257e-07
4.06983e-07
4.21235e-07
2.5304e-07
2.5518e-07
2.63355e-07
2.62039e-07
2.54693e-07
2.62047e-07
2.63227e-07
4.16545e-07
4.20911e-07
2.54662e-07
2.61884e-07
2.63163e-07
4.26831e-07
4.36289e-07
4.58193e-07
2.67694e-07
2.66328e-07
2.79503e-07
2.76202e-07
4.2957e-07
4.46019e-07
2.67621e-07
2.65899e-07
2.79371e-07
2.79729e-07
2.66232e-07
2.76038e-07
2.77268e-07
4.26966e-07
4.62376e-07
2.66179e-07
2.79575e-07
2.77196e-07
4.49118e-07
4.61636e-07
4.838e-07
2.82061e-07
2.79033e-07
2.94477e-07
2.97664e-07
4.49673e-07
4.9785e-07
2.81962e-07
2.84329e-07
2.94506e-07
2.9827e-07
2.80756e-07
2.9754e-07
2.94486e-07
4.7062e-07
4.99153e-07
2.80692e-07
2.98126e-07
2.94486e-07
4.84167e-07
4.98939e-07
5.54727e-07
3.01785e-07
3.05787e-07
3.23057e-07
3.22978e-07
5.17305e-07
5.50855e-07
3.01826e-07
3.03118e-07
3.23021e-07
3.15284e-07
3.00887e-07
3.22794e-07
3.19116e-07
5.06921e-07
5.2125e-07
3.00886e-07
3.15139e-07
3.19057e-07
5.39675e-07
5.60787e-07
5.69702e-07
3.27605e-07
3.25505e-07
3.3897e-07
3.35734e-07
5.52178e-07
5.55918e-07
3.27523e-07
3.18479e-07
3.38767e-07
3.39959e-07
3.23809e-07
3.35441e-07
3.41747e-07
5.25946e-07
5.7347e-07
3.23707e-07
3.3968e-07
3.41551e-07
5.81319e-07
5.78025e-07
6.24737e-07
3.44869e-07
3.43758e-07
3.66995e-07
3.70185e-07
5.69828e-07
6.36282e-07
3.44734e-07
3.49952e-07
3.67149e-07
3.67561e-07
3.49259e-07
3.70101e-07
3.6695e-07
5.95158e-07
6.20488e-07
3.49137e-07
3.67511e-07
3.67113e-07
6.20018e-07
6.33372e-07
6.46928e-07
3.73527e-07
3.75421e-07
3.88276e-07
3.82631e-07
6.41398e-07
6.24375e-07
3.73642e-07
3.69133e-07
3.88043e-07
3.78498e-07
3.70225e-07
3.82394e-07
3.84362e-07
6.1823e-07
6.15389e-07
3.70352e-07
3.78249e-07
3.84118e-07
6.35926e-07
6.51545e-07
6.62369e-07
3.93193e-07
3.87481e-07
4.07319e-07
4.1517e-07
6.28732e-07
6.96694e-07
3.9292e-07
3.91194e-07
4.07193e-07
4.28348e-07
3.92855e-07
4.14852e-07
4.18405e-07
6.40122e-07
7.4291e-07
3.9257e-07
4.28036e-07
4.18319e-07
7.05273e-07
6.69492e-07
7.34187e-07
4.13e-07
4.24033e-07
4.41825e-07
4.44048e-07
7.11181e-07
7.37652e-07
4.12984e-07
4.35191e-07
4.41901e-07
4.44673e-07
4.25087e-07
4.43978e-07
4.45591e-07
7.4902e-07
7.30276e-07
4.2508e-07
4.44627e-07
4.45632e-07
7.40197e-07
7.52911e-07
7.82963e-07
4.52853e-07
4.51825e-07
4.77277e-07
4.78759e-07
7.4761e-07
7.91715e-07
4.5287e-07
4.49234e-07
4.77111e-07
4.71651e-07
4.5312e-07
4.7843e-07
4.74122e-07
7.33807e-07
7.68599e-07
4.5312e-07
4.71383e-07
4.74004e-07
7.75036e-07
7.85555e-07
7.92767e-07
4.82108e-07
4.86464e-07
4.97263e-07
5.03386e-07
7.99937e-07
8.07436e-07
4.81943e-07
4.79357e-07
4.97131e-07
4.97667e-07
4.80466e-07
5.03161e-07
4.98249e-07
7.77659e-07
7.92896e-07
4.80334e-07
4.97469e-07
4.98114e-07
7.92078e-07
8.03323e-07
8.49369e-07
5.05187e-07
5.08224e-07
5.32888e-07
5.2576e-07
8.10978e-07
8.24009e-07
5.0505e-07
5.0364e-07
5.32715e-07
5.26415e-07
5.03584e-07
5.25544e-07
5.23497e-07
7.99094e-07
8.30083e-07
5.03445e-07
5.26252e-07
5.23336e-07
8.21146e-07
8.57622e-07
8.68726e-07
5.40936e-07
5.32738e-07
5.5937e-07
5.55926e-07
8.31861e-07
8.61144e-07
5.40777e-07
5.35099e-07
5.59243e-07
5.60226e-07
5.32747e-07
5.55529e-07
5.62479e-07
8.41461e-07
8.73121e-07
5.32592e-07
5.5984e-07
5.62381e-07
8.82812e-07
8.74597e-07
9.01285e-07
5.65548e-07
5.64066e-07
5.88773e-07
5.87903e-07
8.70843e-07
8.98243e-07
5.65453e-07
5.67749e-07
5.88705e-07
5.89272e-07
5.70951e-07
5.8776e-07
5.9121e-07
8.81131e-07
9.01414e-07
5.70865e-07
5.8916e-07
5.91091e-07
9.04595e-07
9.10051e-07
9.27619e-07
5.96973e-07
5.95525e-07
6.18137e-07
6.18097e-07
9.06319e-07
9.28626e-07
5.96895e-07
5.96652e-07
6.17979e-07
6.18762e-07
5.97283e-07
6.17805e-07
6.1699e-07
9.0887e-07
9.29702e-07
5.97158e-07
6.1852e-07
6.16867e-07
9.2501e-07
9.33398e-07
9.545e-07
6.24518e-07
6.25631e-07
6.46035e-07
6.47917e-07
9.3646e-07
9.582e-07
6.24352e-07
6.25936e-07
6.45887e-07
6.47466e-07
6.24274e-07
6.47688e-07
6.4721e-07
9.36891e-07
9.56549e-07
6.24154e-07
6.47282e-07
6.47077e-07
9.56537e-07
9.64391e-07
9.93032e-07
6.54367e-07
6.55325e-07
6.798e-07
6.77946e-07
9.65764e-07
9.8755e-07
6.54234e-07
6.54777e-07
6.79653e-07
6.77193e-07
6.5483e-07
6.77736e-07
6.76921e-07
9.63959e-07
9.85679e-07
6.547e-07
6.77032e-07
6.76785e-07
9.84968e-07
1.00008e-06
1.01441e-06
6.87365e-07
6.85472e-07
7.0749e-07
7.07291e-07
9.95045e-07
1.01438e-06
6.87229e-07
6.84759e-07
7.07351e-07
7.07229e-07
6.84289e-07
7.0701e-07
7.07087e-07
9.93344e-07
1.01462e-06
6.8415e-07
7.06993e-07
7.06934e-07
1.01468e-06
1.02072e-06
1.03971e-06
7.14254e-07
7.1443e-07
7.35819e-07
7.36084e-07
1.02129e-06
1.04064e-06
7.14122e-07
7.14612e-07
7.35693e-07
7.36288e-07
7.14689e-07
7.35877e-07
7.36501e-07
1.02192e-06
1.04087e-06
7.1454e-07
7.36133e-07
7.36378e-07
1.04161e-06
1.04637e-06
1.06234e-06
7.42867e-07
7.43309e-07
7.62934e-07
7.64274e-07
1.04765e-06
1.06525e-06
7.42749e-07
7.43293e-07
7.62811e-07
7.63986e-07
7.43503e-07
7.64044e-07
7.64293e-07
1.04744e-06
1.0647e-06
7.43378e-07
7.63807e-07
7.64152e-07
1.06552e-06
1.06894e-06
1.08913e-06
7.69761e-07
7.71022e-07
7.91264e-07
7.91232e-07
1.07155e-06
1.08822e-06
7.6964e-07
7.709e-07
7.91128e-07
7.91558e-07
7.71238e-07
7.9105e-07
7.9169e-07
1.07134e-06
1.08919e-06
7.71092e-07
7.91431e-07
7.91547e-07
1.08905e-06
1.09608e-06
1.11216e-06
7.98389e-07
7.97978e-07
8.18379e-07
8.18134e-07
1.09465e-06
1.1117e-06
7.98266e-07
7.98376e-07
8.18265e-07
8.18438e-07
7.98242e-07
8.17914e-07
8.1775e-07
1.09568e-06
1.11207e-06
7.98106e-07
8.18271e-07
8.17625e-07
1.11079e-06
1.11796e-06
1.13291e-06
8.24725e-07
8.24754e-07
8.43719e-07
8.44034e-07
1.118e-06
1.13373e-06
8.24623e-07
8.24878e-07
8.43595e-07
8.43656e-07
8.24348e-07
8.4384e-07
8.43893e-07
1.11802e-06
1.13281e-06
8.24227e-07
8.43523e-07
8.43764e-07
1.13351e-06
1.1388e-06
1.15322e-06
8.49978e-07
8.50377e-07
8.68188e-07
8.68753e-07
1.13971e-06
1.15382e-06
8.49843e-07
8.50011e-07
8.68067e-07
8.68861e-07
8.50224e-07
8.68558e-07
8.68971e-07
1.1389e-06
1.15432e-06
8.50083e-07
8.68719e-07
8.6884e-07
1.15475e-06
1.15923e-06
1.17537e-06
8.7432e-07
8.74561e-07
8.93125e-07
8.9205e-07
1.15921e-06
1.17284e-06
8.74215e-07
8.74767e-07
8.92994e-07
8.92284e-07
8.75097e-07
8.91908e-07
8.92412e-07
1.15981e-06
1.1735e-06
8.74975e-07
8.92194e-07
8.92277e-07
1.17312e-06
1.18081e-06
1.19156e-06
8.9904e-07
8.97961e-07
9.14993e-07
9.15256e-07
1.17856e-06
1.19253e-06
8.98917e-07
8.98328e-07
9.149e-07
9.15507e-07
8.97927e-07
9.15048e-07
9.14742e-07
1.17941e-06
1.19253e-06
8.97795e-07
9.15363e-07
9.14646e-07
1.19159e-06
1.19643e-06
1.20911e-06
9.20204e-07
9.20851e-07
9.36405e-07
9.37203e-07
1.19792e-06
1.21025e-06
9.20116e-07
9.20645e-07
9.36254e-07
9.36584e-07
9.20468e-07
9.37027e-07
9.37516e-07
1.19728e-06
1.20942e-06
9.20378e-07
9.36457e-07
9.37381e-07
1.21156e-06
1.21439e-06
1.22718e-06
9.4178e-07
9.42322e-07
9.57561e-07
9.56766e-07
1.21503e-06
1.22506e-06
9.41625e-07
9.4216e-07
9.57465e-07
9.57425e-07
9.43001e-07
9.56661e-07
9.5759e-07
1.21484e-06
1.22637e-06
9.4285e-07
9.57391e-07
9.57484e-07
1.22607e-06
1.23254e-06
1.24321e-06
9.62815e-07
9.61798e-07
9.77692e-07
9.77717e-07
1.2302e-06
1.24404e-06
9.62738e-07
9.62191e-07
9.77567e-07
9.77168e-07
9.62061e-07
9.77503e-07
9.76785e-07
1.23103e-06
1.24292e-06
9.6197e-07
9.76999e-07
9.76672e-07
1.2425e-06
1.24721e-06
1.2569e-06
9.82054e-07
9.82736e-07
9.95291e-07
9.96097e-07
1.24893e-06
1.25772e-06
9.81924e-07
9.82257e-07
9.95141e-07
9.96898e-07
9.82043e-07
9.95967e-07
9.96611e-07
1.24811e-06
1.26e-06
9.81921e-07
9.96831e-07
9.96469e-07
1.2588e-06
1.26204e-06
1.27219e-06
1.00014e-06
1.00035e-06
1.0139e-06
1.0134e-06
1.26195e-06
1.2714e-06
1.00001e-06
1.00157e-06
1.01386e-06
1.01438e-06
1.00086e-06
1.01325e-06
1.01331e-06
1.26472e-06
1.27235e-06
1.00073e-06
1.01427e-06
1.01327e-06
1.27123e-06
1.27604e-06
1.28521e-06
1.01778e-06
1.01771e-06
1.02959e-06
1.02963e-06
1.27582e-06
1.28478e-06
1.01774e-06
1.01785e-06
1.02942e-06
1.02811e-06
1.01763e-06
1.02951e-06
1.03024e-06
1.27546e-06
1.28168e-06
1.01759e-06
1.02807e-06
1.03008e-06
1.2859e-06
1.29051e-06
1.30193e-06
1.03419e-06
1.03365e-06
1.04779e-06
1.0471e-06
1.28918e-06
1.30105e-06
1.03401e-06
1.03255e-06
1.04769e-06
1.04694e-06
1.03429e-06
1.04696e-06
1.04653e-06
1.28697e-06
1.30062e-06
1.03411e-06
1.04681e-06
1.04642e-06
1.29962e-06
1.30528e-06
1.309e-06
1.05136e-06
1.05134e-06
1.06042e-06
1.06102e-06
1.30549e-06
1.30984e-06
1.05129e-06
1.05068e-06
1.0603e-06
1.06049e-06
1.05055e-06
1.06087e-06
1.06094e-06
1.30424e-06
1.30999e-06
1.05047e-06
1.06045e-06
1.06084e-06
1.31041e-06
1.31275e-06
1.32034e-06
1.06369e-06
1.06405e-06
1.07367e-06
1.07487e-06
1.31321e-06
1.32217e-06
1.06353e-06
1.06478e-06
1.07357e-06
1.07708e-06
1.06419e-06
1.07469e-06
1.07594e-06
1.31553e-06
1.32584e-06
1.06404e-06
1.07691e-06
1.07588e-06
1.32462e-06
1.32434e-06
1.33758e-06
1.07704e-06
1.07806e-06
1.09002e-06
1.08504e-06
1.32544e-06
1.32777e-06
1.07703e-06
1.07901e-06
1.08992e-06
1.08313e-06
1.0797e-06
1.08521e-06
1.08501e-06
1.32715e-06
1.32363e-06
1.07968e-06
1.08336e-06
1.08496e-06
1.32422e-06
1.34177e-06
1.33116e-06
1.09349e-06
1.08902e-06
1.09675e-06
1.10438e-06
1.33308e-06
1.3527e-06
1.09333e-06
1.08781e-06
1.09656e-06
1.10489e-06
1.08622e-06
1.10387e-06
1.1007e-06
1.33113e-06
1.35409e-06
1.08613e-06
1.10438e-06
1.10058e-06
1.34934e-06
1.3324e-06
1.3694e-06
1.09745e-06
1.10666e-06
1.11559e-06
1.10737e-06
1.35501e-06
1.33827e-06
1.09727e-06
1.10705e-06
1.11552e-06
1.10754e-06
1.10678e-06
1.10774e-06
1.1146e-06
1.35562e-06
1.33965e-06
1.10666e-06
1.10802e-06
1.11452e-06
1.35292e-06
1.37876e-06
1.33848e-06
1.12166e-06
1.10794e-06
1.12112e-06
1.12625e-06
1.3411e-06
1.37441e-06
1.12167e-06
1.10792e-06
1.12113e-06
1.11972e-06
1.11497e-06
1.12533e-06
1.12027e-06
1.34233e-06
1.36111e-06
1.11495e-06
1.1185e-06
1.1203e-06
1.36052e-06
1.33565e-06
1.37594e-06
1.11681e-06
1.12943e-06
1.12446e-06
1.12744e-06
1.37847e-06
1.35103e-06
1.11652e-06
1.12577e-06
1.12391e-06
1.1411e-06
1.12402e-06
1.12827e-06
1.12853e-06
1.36825e-06
1.39378e-06
1.12353e-06
1.14206e-06
1.12779e-06
1.35852e-06
1.39701e-06
1.38171e-06
1.13881e-06
1.12722e-06
1.151e-06
1.14733e-06
1.35232e-06
1.4014e-06
1.13911e-06
1.14217e-06
1.15213e-06
1.13057e-06
1.12871e-06
1.14597e-06
1.13442e-06
1.39654e-06
1.3331e-06
1.12834e-06
1.12979e-06
1.13699e-06
1.37428e-06
1.37223e-06
1.34171e-06
1.14551e-06
1.1524e-06
1.13168e-06
1.14321e-06
1.40813e-06
1.34894e-06
1.1459e-06
1.12733e-06
1.12989e-06
1.14722e-06
1.14488e-06
1.14365e-06
1.16664e-06
1.33149e-06
1.41302e-06
1.14555e-06
1.14785e-06
1.16424e-06
1.42518e-06
1.35899e-06
1.41506e-06
1.13421e-06
1.13646e-06
1.16339e-06
1.14378e-06
1.34549e-06
1.38913e-06
1.13285e-06
1.16329e-06
1.16619e-06
1.16902e-06
1.16725e-06
1.14497e-06
1.1421e-06
1.43379e-06
1.37642e-06
1.16507e-06
1.17044e-06
1.14481e-06
1.33651e-06
1.417e-06
1.38966e-06
1.16657e-06
1.16227e-06
1.16417e-06
1.18292e-06
1.41433e-06
1.43181e-06
1.16903e-06
1.1537e-06
1.16165e-06
1.1355e-06
1.13439e-06
1.18039e-06
1.13886e-06
1.35979e-06
1.33888e-06
1.13653e-06
1.1336e-06
1.13682e-06
1.37375e-06
1.39109e-06
1.40421e-06
1.16338e-06
1.1799e-06
1.16869e-06
1.1544e-06
1.4239e-06
1.35805e-06
1.16008e-06
1.14472e-06
1.16908e-06
1.19462e-06
1.15986e-06
1.15553e-06
1.19682e-06
1.37545e-06
1.46787e-06
1.1545e-06
1.19567e-06
1.19679e-06
1.46335e-06
1.40873e-06
1.40342e-06
1.17165e-06
1.15319e-06
1.1744e-06
1.17205e-06
1.361e-06
1.41227e-06
1.17378e-06
1.19599e-06
1.17654e-06
1.1638e-06
1.19719e-06
1.17274e-06
1.16733e-06
1.46355e-06
1.35528e-06
1.19814e-06
1.16427e-06
1.16884e-06
1.36868e-06
1.40428e-06
1.40033e-06
1.17413e-06
1.17925e-06
1.17362e-06
1.18494e-06
1.42164e-06
1.41741e-06
1.17447e-06
1.15731e-06
1.1717e-06
1.16618e-06
1.16057e-06
1.18358e-06
1.15984e-06
1.35436e-06
1.40494e-06
1.16058e-06
1.1646e-06
1.1579e-06
1.38596e-06
1.40439e-06
1.41756e-06
1.17459e-06
1.18357e-06
1.18324e-06
1.18125e-06
1.41774e-06
1.41078e-06
1.17253e-06
1.17738e-06
1.18382e-06
1.19011e-06
1.16803e-06
1.18086e-06
1.19105e-06
1.41983e-06
1.42568e-06
1.16613e-06
1.19012e-06
1.19162e-06
1.43515e-06
1.4221e-06
1.42595e-06
1.18625e-06
1.18219e-06
1.19179e-06
1.18883e-06
1.41475e-06
1.42091e-06
1.18714e-06
1.18987e-06
1.19176e-06
1.18579e-06
1.19449e-06
1.18927e-06
1.1938e-06
1.42539e-06
1.4111e-06
1.19518e-06
1.18622e-06
1.1937e-06
1.42066e-06
1.42748e-06
1.41867e-06
1.19217e-06
1.18965e-06
1.19057e-06
1.18969e-06
1.42284e-06
1.41806e-06
1.1919e-06
1.1859e-06
1.19025e-06
1.19262e-06
1.19023e-06
1.18927e-06
1.18569e-06
1.41485e-06
1.42689e-06
1.18988e-06
1.19218e-06
1.18543e-06
1.41032e-06
1.41979e-06
1.41631e-06
1.18959e-06
1.18962e-06
1.1887e-06
1.19158e-06
1.41974e-06
1.42216e-06
1.18956e-06
1.19413e-06
1.18898e-06
1.19428e-06
1.18594e-06
1.19144e-06
1.19454e-06
1.43015e-06
1.4234e-06
1.18582e-06
1.19422e-06
1.19488e-06
1.42991e-06
1.41931e-06
1.42502e-06
1.18919e-06
1.19258e-06
1.19407e-06
1.19415e-06
1.42469e-06
1.4239e-06
1.18948e-06
1.19302e-06
1.19377e-06
1.19132e-06
1.19631e-06
1.19449e-06
1.19601e-06
1.42436e-06
1.41814e-06
1.1965e-06
1.1917e-06
1.19571e-06
1.42329e-06
1.42792e-06
1.42828e-06
1.19535e-06
1.19431e-06
1.19694e-06
1.19512e-06
1.42541e-06
1.42505e-06
1.19499e-06
1.19139e-06
1.19674e-06
1.19464e-06
1.19426e-06
1.19457e-06
1.19236e-06
1.42054e-06
1.42508e-06
1.19391e-06
1.19417e-06
1.19208e-06
1.41986e-06
1.42999e-06
1.42804e-06
1.19705e-06
1.19573e-06
1.19733e-06
1.19778e-06
1.42752e-06
1.42922e-06
1.19694e-06
1.19591e-06
1.19729e-06
1.1983e-06
1.19262e-06
1.19752e-06
1.19733e-06
1.42821e-06
1.43016e-06
1.19241e-06
1.19807e-06
1.1973e-06
1.42948e-06
1.42983e-06
1.42899e-06
1.19749e-06
1.19827e-06
1.19801e-06
1.19858e-06
1.43134e-06
1.4298e-06
1.19744e-06
1.19851e-06
1.19789e-06
1.19834e-06
1.19854e-06
1.19861e-06
1.19952e-06
1.43203e-06
1.4291e-06
1.19848e-06
1.19847e-06
1.19942e-06
1.43103e-06
1.43098e-06
1.42977e-06
1.1982e-06
1.19844e-06
1.19827e-06
1.19796e-06
1.43131e-06
1.42851e-06
1.19809e-06
1.19823e-06
1.19819e-06
1.1981e-06
1.19927e-06
1.19783e-06
1.19762e-06
1.43072e-06
1.42933e-06
1.19916e-06
1.19799e-06
1.19753e-06
1.42761e-06
1.43132e-06
1.42928e-06
1.19813e-06
1.19798e-06
1.19776e-06
1.19812e-06
1.4306e-06
1.43033e-06
1.19806e-06
1.19805e-06
1.19764e-06
1.19773e-06
1.19751e-06
1.19795e-06
1.19807e-06
1.43111e-06
1.42918e-06
1.19742e-06
1.19767e-06
1.19796e-06
1.43064e-06
1.43131e-06
1.42815e-06
1.19772e-06
1.19797e-06
1.19694e-06
1.19638e-06
1.43181e-06
1.42696e-06
1.19759e-06
1.19769e-06
1.1969e-06
1.19733e-06
1.19808e-06
1.19626e-06
1.19661e-06
1.43103e-06
1.42916e-06
1.19796e-06
1.19725e-06
1.19657e-06
1.42734e-06
1.42955e-06
1.4283e-06
1.19626e-06
1.19617e-06
1.19566e-06
1.19638e-06
1.42866e-06
1.43004e-06
1.19626e-06
1.19689e-06
1.19561e-06
1.19586e-06
1.1963e-06
1.19631e-06
1.19655e-06
1.43062e-06
1.42799e-06
1.19628e-06
1.19585e-06
1.19648e-06
1.43041e-06
1.43105e-06
1.42875e-06
1.19599e-06
1.19639e-06
1.19608e-06
1.19497e-06
1.43199e-06
1.4267e-06
1.19586e-06
1.19581e-06
1.19596e-06
1.19563e-06
1.19658e-06
1.19482e-06
1.19476e-06
1.43022e-06
1.42848e-06
1.19649e-06
1.19558e-06
1.19464e-06
1.42633e-06
1.42972e-06
1.42172e-06
1.19493e-06
1.19423e-06
1.19121e-06
1.1923e-06
1.42811e-06
1.42491e-06
1.1949e-06
1.19503e-06
1.19114e-06
1.19202e-06
1.19396e-06
1.19219e-06
1.19264e-06
1.42971e-06
1.42376e-06
1.19392e-06
1.19202e-06
1.19259e-06
1.42608e-06
1.42453e-06
1.42998e-06
1.19112e-06
1.19199e-06
1.19262e-06
1.19172e-06
1.4268e-06
1.42669e-06
1.19104e-06
1.19179e-06
1.19253e-06
1.192e-06
1.19249e-06
1.19173e-06
1.19169e-06
1.4259e-06
1.42794e-06
1.19241e-06
1.19201e-06
1.1916e-06
1.42586e-06
1.43169e-06
1.41827e-06
1.19261e-06
1.19166e-06
1.18762e-06
1.18857e-06
1.42859e-06
1.421e-06
1.19252e-06
1.19188e-06
1.1875e-06
1.18777e-06
1.19138e-06
1.18834e-06
1.18868e-06
1.42937e-06
1.41939e-06
1.19129e-06
1.18767e-06
1.18856e-06
1.42204e-06
1.41942e-06
1.42178e-06
1.18626e-06
1.18717e-06
1.18567e-06
1.18547e-06
1.42217e-06
1.42026e-06
1.18617e-06
1.18698e-06
1.18569e-06
1.1865e-06
1.18788e-06
1.18547e-06
1.18584e-06
1.42088e-06
1.42306e-06
1.18773e-06
1.18648e-06
1.1858e-06
1.42047e-06
1.42447e-06
1.42017e-06
1.18598e-06
1.18549e-06
1.18476e-06
1.18483e-06
1.42276e-06
1.42048e-06
1.18598e-06
1.18641e-06
1.18454e-06
1.18359e-06
1.18553e-06
1.18458e-06
1.18407e-06
1.42493e-06
1.41799e-06
1.18547e-06
1.18347e-06
1.18391e-06
1.41945e-06
1.42156e-06
1.41378e-06
1.18412e-06
1.18424e-06
1.17984e-06
1.17987e-06
1.42186e-06
1.41376e-06
1.18387e-06
1.18312e-06
1.17988e-06
1.18114e-06
1.18387e-06
1.1798e-06
1.18099e-06
1.41957e-06
1.41614e-06
1.18372e-06
1.18123e-06
1.1812e-06
1.41563e-06
1.41477e-06
1.41327e-06
1.17828e-06
1.17853e-06
1.17653e-06
1.17696e-06
1.41489e-06
1.41414e-06
1.17834e-06
1.17942e-06
1.17644e-06
1.17635e-06
1.17906e-06
1.17691e-06
1.17617e-06
1.41703e-06
1.41165e-06
1.17915e-06
1.17614e-06
1.17587e-06
1.41131e-06
1.41771e-06
1.41389e-06
1.17729e-06
1.17743e-06
1.17751e-06
1.17688e-06
1.41791e-06
1.41213e-06
1.17707e-06
1.1766e-06
1.17734e-06
1.17707e-06
1.17653e-06
1.17664e-06
1.17703e-06
1.41558e-06
1.41453e-06
1.17616e-06
1.17697e-06
1.17692e-06
1.41441e-06
1.41405e-06
1.40131e-06
1.1753e-06
1.17463e-06
1.16775e-06
1.16848e-06
1.41256e-06
1.40357e-06
1.17535e-06
1.17594e-06
1.16772e-06
1.16843e-06
1.17573e-06
1.16846e-06
1.16885e-06
1.41515e-06
1.40283e-06
1.17591e-06
1.16846e-06
1.16889e-06
1.40377e-06
1.40417e-06
1.40631e-06
1.16755e-06
1.16823e-06
1.16722e-06
1.16682e-06
1.40634e-06
1.40412e-06
1.16747e-06
1.16782e-06
1.16704e-06
1.16628e-06
1.16834e-06
1.1667e-06
1.16609e-06
1.40444e-06
1.40351e-06
1.16824e-06
1.16602e-06
1.16568e-06
1.40236e-06
1.40879e-06
1.39559e-06
1.16766e-06
1.1671e-06
1.14923e-06
1.14904e-06
1.40606e-06
1.39626e-06
1.16749e-06
1.16678e-06
1.1493e-06
1.15001e-06
1.16644e-06
1.14891e-06
1.14944e-06
1.40656e-06
1.39824e-06
1.16606e-06
1.14997e-06
1.14971e-06
1.39828e-06
1.37207e-06
1.11323e-06
1.11355e-06
1.37357e-06
1.11333e-06
1.11424e-06
6.67147e-07
6.67368e-07
6.67536e-07
1.11435e-06
1.3749e-06
1.11466e-06
5.35663e-07
5.35601e-07
5.35655e-07
5.35655e-07
5.34573e-07
5.35516e-07
5.33634e-07
5.35654e-07
5.34573e-07
5.35517e-07
5.35654e-07
5.33634e-07
5.35256e-07
5.35986e-07
5.35987e-07
1.10713e-06
3.88088e-06
9.33894e-07
4.60608e-06
1.26081e-05
1.66009e-05
1.10724e-06
3.88111e-06
9.33927e-07
4.60646e-06
4.95567e-07
4.95567e-07
4.95567e-07
4.57231e-07
4.57231e-07
4.57232e-07
4.57232e-07
5.43143e-07
1.22027e-06
4.95565e-07
4.85522e-07
5.25341e-07
1.20946e-06
4.82301e-07
1.26097e-05
1.66035e-05
5.43162e-07
4.95565e-07
1.22025e-06
4.85523e-07
5.2532e-07
4.82302e-07
1.20945e-06
2.52172e-06
2.52242e-06
4.8419e-07
2.37249e-06
2.37288e-06
1.4308e-06
5.59344e-06
1.32967e-06
6.13626e-06
2.12846e-05
2.31103e-05
1.4312e-06
5.59407e-06
1.32973e-06
6.13689e-06
4.45572e-07
4.45573e-07
4.45573e-07
4.13542e-07
4.13542e-07