/*--------------------------------*- C++ -*----------------------------------*\
| =========                 |                                                 |
| \\      /  F ield         | OpenFOAM: The Open Source CFD Toolbox           |
|  \\    /   O peration     | Version:  v2012                                 |
|   \\  /    A nd           | Website:  www.openfoam.com                      |
|    \\/     M anipulation  |                                                 |
\*---------------------------------------------------------------------------*/
FoamFile
{
    version     2.0;
    format      ascii;
    class       volScalarField;
    location    "500";
    object      k;
}
// * * * * * * * * * * * * * * * * * * * * * * * * * * * * * * * * * * * * * //

dimensions      [0 2 -2 0 0 0 0];


internalField   nonuniform List<scalar> 
171728
(
3.58932e-05
3.58912e-05
3.58912e-05
3.59957e-05
3.39296e-05
3.3889e-05
3.3889e-05
3.39623e-05
3.21578e-05
3.20081e-05
3.20081e-05
3.19522e-05
3.05346e-05
3.02293e-05
3.02292e-05
2.99885e-05
2.90329e-05
2.8554e-05
2.85539e-05
2.81226e-05
2.76353e-05
2.69872e-05
2.69871e-05
2.63907e-05
2.63308e-05
2.5531e-05
2.55309e-05
2.48073e-05
2.51112e-05
2.4185e-05
2.41848e-05
2.33782e-05
2.39709e-05
2.29506e-05
2.29504e-05
2.21046e-05
2.29057e-05
2.18269e-05
2.18267e-05
2.09859e-05
2.1912e-05
2.08114e-05
2.08112e-05
2.00136e-05
2.09865e-05
1.99014e-05
1.99011e-05
1.91812e-05
2.0124e-05
1.9095e-05
1.90945e-05
1.84897e-05
1.93239e-05
1.83888e-05
1.83887e-05
1.7934e-05
1.85849e-05
1.77802e-05
1.77802e-05
1.75076e-05
1.7905e-05
1.72693e-05
1.72698e-05
1.7212e-05
1.72812e-05
1.68557e-05
1.68524e-05
1.70458e-05
1.67111e-05
1.65277e-05
1.65299e-05
1.70247e-05
1.62048e-05
1.63451e-05
1.63563e-05
1.73002e-05
1.57406e-05
1.62612e-05
1.62325e-05
1.75268e-05
1.53553e-05
1.63015e-05
1.63348e-05
1.88338e-05
1.49653e-05
1.65515e-05
1.64459e-05
1.84067e-05
1.46074e-05
1.63189e-05
1.63286e-05
1.89546e-05
1.43293e-05
1.64661e-05
1.6441e-05
1.94535e-05
1.41007e-05
1.68997e-05
1.70281e-05
2.02862e-05
1.38882e-05
1.69915e-05
1.70451e-05
2.0851e-05
1.37833e-05
1.74704e-05
1.75979e-05
2.11684e-05
1.35928e-05
1.78541e-05
1.81996e-05
2.16438e-05
1.3681e-05
1.92128e-05
1.86849e-05
2.40553e-05
1.36137e-05
1.91558e-05
1.91823e-05
2.49161e-05
1.37082e-05
2.08626e-05
2.07538e-05
2.69296e-05
1.37781e-05
2.08959e-05
2.04211e-05
2.57786e-05
1.38131e-05
2.19027e-05
2.28698e-05
2.90537e-05
1.39665e-05
2.28713e-05
2.32082e-05
2.9733e-05
1.44616e-05
2.43944e-05
2.39223e-05
3.10938e-05
1.45696e-05
2.51754e-05
2.47635e-05
3.13382e-05
1.49584e-05
2.56974e-05
2.56731e-05
3.15286e-05
1.53308e-05
2.66918e-05
2.69713e-05
3.42676e-05
1.56872e-05
2.78781e-05
2.79472e-05
3.48315e-05
1.61639e-05
2.89063e-05
2.8963e-05
3.52148e-05
1.65817e-05
2.9938e-05
2.99195e-05
3.62751e-05
1.72043e-05
3.09968e-05
3.09473e-05
3.71332e-05
1.77949e-05
3.2017e-05
3.20066e-05
3.81232e-05
1.83951e-05
3.3034e-05
3.30557e-05
3.9038e-05
1.90271e-05
3.40411e-05
3.40162e-05
3.98067e-05
1.97151e-05
3.4994e-05
3.50064e-05
4.06303e-05
2.04602e-05
3.59634e-05
3.59886e-05
4.13182e-05
2.1199e-05
3.69026e-05
3.68791e-05
4.21318e-05
2.19542e-05
3.78267e-05
3.78363e-05
4.28873e-05
2.27585e-05
3.86733e-05
3.86678e-05
4.35519e-05
2.35536e-05
3.95437e-05
3.95807e-05
4.41651e-05
2.43363e-05
4.04024e-05
4.03488e-05
4.49508e-05
2.51536e-05
4.11131e-05
4.11697e-05
4.54867e-05
2.59931e-05
4.19608e-05
4.19102e-05
4.60581e-05
2.67729e-05
4.26856e-05
4.27148e-05
4.67503e-05
2.76105e-05
4.33757e-05
4.3476e-05
4.71685e-05
2.83736e-05
4.40163e-05
4.39067e-05
4.77532e-05
2.92276e-05
4.47728e-05
4.47836e-05
4.83334e-05
2.99852e-05
4.53419e-05
4.52683e-05
4.87371e-05
3.07056e-05
4.59887e-05
4.61338e-05
4.94097e-05
3.15113e-05
4.63101e-05
4.62457e-05
4.93991e-05
3.21675e-05
4.73241e-05
4.73435e-05
5.01977e-05
3.29273e-05
4.74142e-05
4.74639e-05
5.07282e-05
3.36997e-05
4.82483e-05
4.76861e-05
5.08938e-05
3.3974e-05
4.83644e-05
4.92152e-05
5.1016e-05
3.52284e-05
4.91879e-05
4.86149e-05
5.06956e-05
3.52563e-05
4.93734e-05
4.87591e-05
5.41642e-05
3.60819e-05
4.89025e-05
5.0874e-05
5.11151e-05
3.67651e-05
5.10887e-05
4.85248e-05
4.96608e-05
3.71525e-05
4.99222e-05
5.19669e-05
5.59446e-05
3.77642e-05
5.04888e-05
5.05952e-05
5.22105e-05
3.79954e-05
5.12454e-05
5.00961e-05
5.16817e-05
3.84385e-05
5.11773e-05
5.16203e-05
5.42263e-05
3.91361e-05
5.17152e-05
5.15556e-05
5.41982e-05
3.94998e-05
5.17681e-05
5.185e-05
5.33143e-05
3.96663e-05
5.18785e-05
5.20852e-05
5.42634e-05
4.00054e-05
5.21675e-05
5.20322e-05
5.42551e-05
4.03883e-05
5.22148e-05
5.21616e-05
5.39131e-05
4.06702e-05
5.24448e-05
5.24705e-05
5.43825e-05
4.09303e-05
5.26246e-05
5.26104e-05
5.46054e-05
4.11648e-05
5.26593e-05
5.26755e-05
5.44815e-05
4.13605e-05
5.2784e-05
5.27441e-05
5.46744e-05
4.15418e-05
5.27776e-05
5.28246e-05
5.45878e-05
4.16723e-05
5.28788e-05
5.28326e-05
5.47777e-05
4.18682e-05
5.29205e-05
5.2938e-05
5.47095e-05
4.19143e-05
5.28668e-05
5.28574e-05
5.46894e-05
4.20649e-05
5.29511e-05
5.29701e-05
5.47736e-05
4.21361e-05
5.29243e-05
5.28601e-05
5.47131e-05
4.21518e-05
5.28265e-05
5.28855e-05
5.46453e-05
4.22521e-05
5.28869e-05
5.28404e-05
5.46695e-05
4.22777e-05
5.28159e-05
5.28446e-05
5.47486e-05
4.22375e-05
5.26744e-05
5.26467e-05
5.42898e-05
4.23322e-05
5.28141e-05
5.28183e-05
5.48306e-05
4.22332e-05
5.24907e-05
5.25021e-05
5.42582e-05
4.18293e-05
5.14088e-05
5.13555e-05
5.38839e-05
3.63068e-05
3.6291e-05
3.6291e-05
3.63068e-05
3.6291e-05
3.6291e-05
3.6423e-05
3.6423e-05
3.6423e-05
3.6423e-05
3.6291e-05
3.6291e-05
3.63068e-05
3.6291e-05
3.6291e-05
3.63068e-05
3.59957e-05
3.42687e-05
3.58912e-05
3.58912e-05
3.43767e-05
3.43766e-05
3.59957e-05
3.42687e-05
3.58911e-05
3.58912e-05
3.43767e-05
3.43766e-05
3.58912e-05
3.43767e-05
3.43767e-05
3.59957e-05
3.42687e-05
3.58912e-05
3.43767e-05
3.43767e-05
3.42687e-05
3.39623e-05
3.22635e-05
3.38889e-05
3.38889e-05
3.24684e-05
3.24683e-05
3.39623e-05
3.22635e-05
3.38889e-05
3.38889e-05
3.24684e-05
3.24683e-05
3.38889e-05
3.24685e-05
3.24684e-05
3.39623e-05
3.22634e-05
3.38889e-05
3.24685e-05
3.24684e-05
3.22634e-05
3.19522e-05
3.02993e-05
3.20079e-05
3.20078e-05
3.06643e-05
3.06642e-05
3.19522e-05
3.02994e-05
3.2008e-05
3.20078e-05
3.06644e-05
3.06641e-05
3.20079e-05
3.06646e-05
3.06643e-05
3.19522e-05
3.02992e-05
3.2008e-05
3.06645e-05
3.06644e-05
3.02992e-05
2.99885e-05
2.84253e-05
3.0229e-05
3.02288e-05
2.89624e-05
2.89622e-05
2.99886e-05
2.84255e-05
3.02291e-05
3.02287e-05
2.89626e-05
2.89621e-05
3.02289e-05
2.89628e-05
2.89623e-05
2.99885e-05
2.84252e-05
3.02291e-05
2.89627e-05
2.89626e-05
2.84252e-05
2.81227e-05
2.6674e-05
2.85536e-05
2.85534e-05
2.7368e-05
2.73678e-05
2.81228e-05
2.66742e-05
2.85538e-05
2.85533e-05
2.73683e-05
2.73676e-05
2.85535e-05
2.73685e-05
2.73679e-05
2.81226e-05
2.66739e-05
2.85538e-05
2.73684e-05
2.73683e-05
2.66738e-05
2.63909e-05
2.50663e-05
2.69866e-05
2.69864e-05
2.58841e-05
2.58838e-05
2.63909e-05
2.50665e-05
2.6987e-05
2.69862e-05
2.58845e-05
2.58836e-05
2.69865e-05
2.58848e-05
2.5884e-05
2.63907e-05
2.50661e-05
2.69869e-05
2.58846e-05
2.58845e-05
2.50661e-05
2.48075e-05
2.36125e-05
2.55304e-05
2.553e-05
2.45102e-05
2.45099e-05
2.48077e-05
2.36126e-05
2.55308e-05
2.55299e-05
2.45107e-05
2.45097e-05
2.55302e-05
2.45111e-05
2.45102e-05
2.48073e-05
2.36123e-05
2.55307e-05
2.45109e-05
2.45107e-05
2.36123e-05
2.33783e-05
2.23124e-05
2.41842e-05
2.41839e-05
2.32479e-05
2.32475e-05
2.33786e-05
2.23127e-05
2.41847e-05
2.41836e-05
2.32484e-05
2.32473e-05
2.41841e-05
2.32488e-05
2.32478e-05
2.33782e-05
2.23123e-05
2.41846e-05
2.32486e-05
2.32484e-05
2.23121e-05
2.2105e-05
2.1168e-05
2.29497e-05
2.29494e-05
2.20966e-05
2.20962e-05
2.2105e-05
2.11683e-05
2.29503e-05
2.29491e-05
2.20972e-05
2.2096e-05
2.29496e-05
2.20976e-05
2.20965e-05
2.21046e-05
2.11679e-05
2.29503e-05
2.20974e-05
2.20972e-05
2.11678e-05
2.09863e-05
2.01709e-05
2.18259e-05
2.18255e-05
2.10542e-05
2.10538e-05
2.09866e-05
2.01709e-05
2.18266e-05
2.18253e-05
2.1055e-05
2.10536e-05
2.18258e-05
2.10553e-05
2.10542e-05
2.09862e-05
2.01704e-05
2.18266e-05
2.10551e-05
2.1055e-05
2.01704e-05
2.00139e-05
1.93145e-05
2.08103e-05
2.08099e-05
2.0118e-05
2.01177e-05
2.00137e-05
1.93151e-05
2.08111e-05
2.08098e-05
2.01188e-05
2.01175e-05
2.08102e-05
2.01192e-05
2.01179e-05
2.00132e-05
1.93148e-05
2.08111e-05
2.01189e-05
2.01188e-05
1.93144e-05
1.91815e-05
1.85907e-05
1.99003e-05
1.99e-05
1.92857e-05
1.92855e-05
1.91824e-05
1.8591e-05
1.99011e-05
1.98996e-05
1.92866e-05
1.92854e-05
1.99002e-05
1.92868e-05
1.92858e-05
1.9182e-05
1.85916e-05
1.99011e-05
1.92869e-05
1.92867e-05
1.85906e-05
1.84895e-05
1.79987e-05
1.90935e-05
1.90935e-05
1.8555e-05
1.85547e-05
1.8491e-05
1.79981e-05
1.90944e-05
1.90931e-05
1.85558e-05
1.85545e-05
1.90936e-05
1.85559e-05
1.85549e-05
1.84909e-05
1.79992e-05
1.90944e-05
1.85559e-05
1.85558e-05
1.79993e-05
1.79332e-05
1.7541e-05
1.83876e-05
1.83877e-05
1.79224e-05
1.79217e-05
1.79348e-05
1.75407e-05
1.83886e-05
1.83873e-05
1.79229e-05
1.79218e-05
1.83873e-05
1.79234e-05
1.7922e-05
1.79357e-05
1.75419e-05
1.83884e-05
1.79235e-05
1.79226e-05
1.75412e-05
1.75075e-05
1.72267e-05
1.77791e-05
1.77789e-05
1.73862e-05
1.73868e-05
1.75084e-05
1.72238e-05
1.77797e-05
1.77788e-05
1.73867e-05
1.73866e-05
1.7779e-05
1.73873e-05
1.73871e-05
1.75089e-05
1.72255e-05
1.77791e-05
1.73869e-05
1.73879e-05
1.7229e-05
1.72092e-05
1.70342e-05
1.72684e-05
1.72684e-05
1.69418e-05
1.6943e-05
1.72078e-05
1.70333e-05
1.72688e-05
1.72684e-05
1.69436e-05
1.69454e-05
1.72664e-05
1.69441e-05
1.69471e-05
1.72102e-05
1.70356e-05
1.72674e-05
1.69462e-05
1.6948e-05
1.70461e-05
1.70309e-05
1.70214e-05
1.68501e-05
1.68538e-05
1.66025e-05
1.65991e-05
1.70337e-05
1.70059e-05
1.68508e-05
1.68534e-05
1.6603e-05
1.66044e-05
1.68507e-05
1.65982e-05
1.66063e-05
1.70362e-05
1.70106e-05
1.68523e-05
1.66045e-05
1.66052e-05
1.70128e-05
1.70284e-05
1.72208e-05
1.65255e-05
1.65294e-05
1.64024e-05
1.63997e-05
1.70198e-05
1.72411e-05
1.65288e-05
1.65316e-05
1.63984e-05
1.63772e-05
1.65306e-05
1.64004e-05
1.63766e-05
1.70204e-05
1.71786e-05
1.65289e-05
1.63789e-05
1.63796e-05
1.71923e-05
1.73059e-05
1.73455e-05
1.6363e-05
1.6348e-05
1.62128e-05
1.6243e-05
1.73052e-05
1.74477e-05
1.63554e-05
1.63498e-05
1.62126e-05
1.62584e-05
1.63595e-05
1.62487e-05
1.6227e-05
1.72796e-05
1.75897e-05
1.63624e-05
1.6258e-05
1.62355e-05
1.75022e-05
1.74237e-05
1.85887e-05
1.62187e-05
1.62504e-05
1.63566e-05
1.6282e-05
1.75914e-05
1.82836e-05
1.62194e-05
1.62345e-05
1.6351e-05
1.62677e-05
1.6218e-05
1.62936e-05
1.63437e-05
1.76432e-05
1.82617e-05
1.62304e-05
1.62678e-05
1.63574e-05
1.86282e-05
1.8673e-05
1.85964e-05
1.63698e-05
1.62954e-05
1.63244e-05
1.65378e-05
1.83504e-05
1.96632e-05
1.63577e-05
1.63368e-05
1.63141e-05
1.64642e-05
1.63899e-05
1.65107e-05
1.63073e-05
1.85308e-05
1.91905e-05
1.63931e-05
1.64494e-05
1.62873e-05
1.84977e-05
1.86042e-05
1.84996e-05
1.62848e-05
1.65703e-05
1.62352e-05
1.64064e-05
1.97986e-05
1.88409e-05
1.6294e-05
1.64575e-05
1.62612e-05
1.63238e-05
1.62202e-05
1.64176e-05
1.62428e-05
1.92024e-05
1.88063e-05
1.62071e-05
1.63325e-05
1.62325e-05
1.85383e-05
1.85438e-05
1.92368e-05
1.62428e-05
1.63184e-05
1.64446e-05
1.63343e-05
1.87192e-05
1.88266e-05
1.62664e-05
1.6321e-05
1.64344e-05
1.63891e-05
1.63672e-05
1.6325e-05
1.65271e-05
1.88099e-05
1.90347e-05
1.63479e-05
1.63991e-05
1.65197e-05
1.94572e-05
1.93841e-05
1.98007e-05
1.64907e-05
1.64737e-05
1.66949e-05
1.6846e-05
1.93003e-05
2.04051e-05
1.64758e-05
1.64289e-05
1.66998e-05
1.69271e-05
1.65282e-05
1.6859e-05
1.66401e-05
1.91531e-05
2.08116e-05
1.65279e-05
1.69194e-05
1.66766e-05
1.98382e-05
2.00109e-05
2.04213e-05
1.68106e-05
1.68922e-05
1.69687e-05
1.69408e-05
2.04132e-05
2.01513e-05
1.68191e-05
1.70415e-05
1.69741e-05
1.70519e-05
1.68345e-05
1.69376e-05
1.71453e-05
2.09527e-05
2.0271e-05
1.68575e-05
1.70423e-05
1.71412e-05
2.08373e-05
2.05606e-05
2.17846e-05
1.70591e-05
1.69982e-05
1.76168e-05
1.74562e-05
2.02876e-05
2.11345e-05
1.70571e-05
1.70532e-05
1.76095e-05
1.74231e-05
1.71636e-05
1.7453e-05
1.73938e-05
2.02668e-05
2.13708e-05
1.71595e-05
1.7426e-05
1.73937e-05
2.10001e-05
2.18065e-05
2.11965e-05
1.76935e-05
1.74728e-05
1.77027e-05
1.75567e-05
2.10921e-05
2.09861e-05
1.76873e-05
1.75984e-05
1.77005e-05
1.80092e-05
1.75169e-05
1.75562e-05
1.76598e-05
2.17045e-05
2.25792e-05
1.75159e-05
1.80073e-05
1.76605e-05
2.13859e-05
2.12948e-05
2.47696e-05
1.77619e-05
1.78523e-05
1.89252e-05
1.914e-05
2.17997e-05
2.51255e-05
1.77626e-05
1.82e-05
1.8929e-05
1.8671e-05
1.78065e-05
1.91401e-05
1.87363e-05
2.289e-05
2.32906e-05
1.78101e-05
1.86722e-05
1.87388e-05
2.38365e-05
2.50098e-05
2.45256e-05
1.92056e-05
1.92154e-05
1.93739e-05
1.9145e-05
2.50998e-05
2.35121e-05
1.9205e-05
1.86842e-05
1.93659e-05
1.88234e-05
1.88952e-05
1.91387e-05
1.92154e-05
2.32638e-05
2.32854e-05
1.8894e-05
1.88186e-05
1.92008e-05
2.44339e-05
2.4543e-05
2.63166e-05
1.94e-05
1.91621e-05
2.02009e-05
2.04017e-05
2.35482e-05
2.7453e-05
1.93919e-05
1.91933e-05
2.02107e-05
2.07401e-05
1.9518e-05
2.04043e-05
2.05436e-05
2.41234e-05
2.78054e-05
1.9507e-05
2.0744e-05
2.05564e-05
2.69529e-05
2.67894e-05
2.72077e-05
2.05649e-05
2.08568e-05
2.10281e-05
2.09615e-05
2.78552e-05
2.59817e-05
2.05792e-05
2.07487e-05
2.10225e-05
2.03982e-05
2.06603e-05
2.09625e-05
2.06569e-05
2.76933e-05
2.42161e-05
2.06717e-05
2.04008e-05
2.06602e-05
2.56496e-05
2.7256e-05
2.70221e-05
2.11481e-05
2.08987e-05
2.15651e-05
2.12627e-05
2.58196e-05
2.76223e-05
2.11347e-05
2.042e-05
2.15534e-05
2.2246e-05
2.0704e-05
2.12481e-05
2.19394e-05
2.42782e-05
3.07039e-05
2.07024e-05
2.22275e-05
2.19269e-05
2.8796e-05
2.70348e-05
2.8263e-05
2.15927e-05
2.19175e-05
2.21009e-05
2.27289e-05
2.84829e-05
2.94433e-05
2.15838e-05
2.28812e-05
2.21184e-05
2.32189e-05
2.22269e-05
2.27325e-05
2.28014e-05
3.11466e-05
2.95666e-05
2.22238e-05
2.32246e-05
2.28094e-05
2.94063e-05
2.923e-05
3.15094e-05
2.2741e-05
2.28623e-05
2.41944e-05
2.40106e-05
2.9519e-05
3.13418e-05
2.27554e-05
2.32014e-05
2.41904e-05
2.34943e-05
2.30973e-05
2.40078e-05
2.39211e-05
2.94992e-05
3.02846e-05
2.31039e-05
2.34942e-05
2.39198e-05
3.09307e-05
3.15355e-05
3.08506e-05
2.44089e-05
2.44036e-05
2.45458e-05
2.50799e-05
3.17985e-05
3.20175e-05
2.44025e-05
2.3928e-05
2.45399e-05
2.46639e-05
2.41308e-05
2.50713e-05
2.4753e-05
3.07555e-05
3.1222e-05
2.41273e-05
2.46547e-05
2.47488e-05
3.12954e-05
3.08983e-05
3.29222e-05
2.46236e-05
2.51772e-05
2.57353e-05
2.55108e-05
3.20408e-05
3.19505e-05
2.46193e-05
2.47659e-05
2.57288e-05
2.53577e-05
2.49033e-05
2.55186e-05
2.5165e-05
3.12584e-05
3.18074e-05
2.48996e-05
2.53668e-05
2.51592e-05
3.12913e-05
3.33367e-05
3.35644e-05
2.61398e-05
2.56966e-05
2.68279e-05
2.64166e-05
3.20875e-05
3.29328e-05
2.61339e-05
2.56704e-05
2.68238e-05
2.66879e-05
2.54145e-05
2.63996e-05
2.67036e-05
3.21882e-05
3.35555e-05
2.54083e-05
2.66707e-05
2.6701e-05
3.38623e-05
3.36027e-05
3.42484e-05
2.69273e-05
2.67053e-05
2.75959e-05
2.75984e-05
3.32145e-05
3.42583e-05
2.6924e-05
2.69859e-05
2.75973e-05
2.76993e-05
2.7112e-05
2.76023e-05
2.7931e-05
3.38085e-05
3.43966e-05
2.71111e-05
2.77035e-05
2.79299e-05
3.47518e-05
3.4607e-05
3.53305e-05
2.79354e-05
2.78726e-05
2.87702e-05
2.86494e-05
3.44902e-05
3.51768e-05
2.79371e-05
2.79415e-05
2.87682e-05
2.8724e-05
2.81094e-05
2.86455e-05
2.86382e-05
3.45773e-05
3.52964e-05
2.81073e-05
2.87213e-05
2.86355e-05
3.50508e-05
3.5426e-05
3.57455e-05
2.8958e-05
2.89129e-05
2.95168e-05
2.9692e-05
3.539e-05
3.61222e-05
2.89545e-05
2.8968e-05
2.95127e-05
2.96765e-05
2.88558e-05
2.96881e-05
2.96324e-05
3.54925e-05
3.60568e-05
2.88537e-05
2.96734e-05
2.96302e-05
3.6039e-05
3.60002e-05
3.73175e-05
2.97811e-05
2.99396e-05
3.07972e-05
3.07206e-05
3.63189e-05
3.7046e-05
2.97784e-05
2.99201e-05
3.07942e-05
3.06798e-05
2.9912e-05
3.07223e-05
3.069e-05
3.62491e-05
3.69571e-05
2.99095e-05
3.06824e-05
3.06874e-05
3.69564e-05
3.75735e-05
3.79985e-05
3.11225e-05
3.09967e-05
3.18335e-05
3.17783e-05
3.72698e-05
3.79468e-05
3.11196e-05
3.09462e-05
3.18306e-05
3.17482e-05
3.09312e-05
3.17719e-05
3.17231e-05
3.71694e-05
3.79203e-05
3.09288e-05
3.17429e-05
3.17193e-05
3.78861e-05
3.8124e-05
3.87887e-05
3.20321e-05
3.20232e-05
3.27799e-05
3.27735e-05
3.81238e-05
3.8783e-05
3.20295e-05
3.20118e-05
3.27775e-05
3.28025e-05
3.20072e-05
3.27726e-05
3.28151e-05
3.81279e-05
3.88308e-05
3.20032e-05
3.28027e-05
3.28131e-05
3.88605e-05
3.90054e-05
3.95018e-05
3.30508e-05
3.30346e-05
3.37404e-05
3.38075e-05
3.89888e-05
3.9652e-05
3.30486e-05
3.30549e-05
3.37388e-05
3.37754e-05
3.30655e-05
3.38043e-05
3.37911e-05
3.90171e-05
3.95843e-05
3.30638e-05
3.37737e-05
3.37889e-05
3.96205e-05
3.96424e-05
4.03791e-05
3.39564e-05
3.40441e-05
3.47151e-05
3.47525e-05
3.98239e-05
4.0383e-05
3.39547e-05
3.40182e-05
3.47121e-05
3.47591e-05
3.40362e-05
3.47524e-05
3.47918e-05
3.97638e-05
4.04208e-05
3.40334e-05
3.47601e-05
3.47886e-05
4.04575e-05
4.06053e-05
4.1256e-05
3.49918e-05
3.49934e-05
3.57571e-05
3.57169e-05
4.05641e-05
4.11888e-05
3.49893e-05
3.50045e-05
3.5755e-05
3.57464e-05
3.503e-05
3.57145e-05
3.57056e-05
4.06057e-05
4.12347e-05
3.50273e-05
3.57456e-05
3.57033e-05
4.11462e-05
4.14083e-05
4.19456e-05
3.59858e-05
3.59665e-05
3.66641e-05
3.66733e-05
4.13697e-05
4.19767e-05
3.59845e-05
3.59905e-05
3.66631e-05
3.66577e-05
3.59402e-05
3.66715e-05
3.66691e-05
4.14086e-05
4.19218e-05
3.59384e-05
3.66578e-05
3.6668e-05
4.19602e-05
4.21177e-05
4.26377e-05
3.69014e-05
3.69043e-05
3.75661e-05
3.76156e-05
4.21432e-05
4.2725e-05
3.68993e-05
3.68787e-05
3.75633e-05
3.76053e-05
3.69036e-05
3.76131e-05
3.75912e-05
4.20817e-05
4.27275e-05
3.69015e-05
3.76039e-05
3.75885e-05
4.2712e-05
4.27846e-05
4.34701e-05
3.77712e-05
3.78292e-05
3.84955e-05
3.84489e-05
4.2878e-05
4.33367e-05
3.77694e-05
3.78375e-05
3.84936e-05
3.84419e-05
3.78277e-05
3.84504e-05
3.85064e-05
4.28938e-05
4.33405e-05
3.78254e-05
3.84455e-05
3.85044e-05
4.34227e-05
4.36614e-05
4.40839e-05
3.87475e-05
3.86709e-05
3.93619e-05
3.93348e-05
4.35025e-05
4.40794e-05
3.87455e-05
3.86643e-05
3.93608e-05
3.93917e-05
3.87026e-05
3.93313e-05
3.93027e-05
4.35084e-05
4.41508e-05
3.87007e-05
3.93893e-05
3.9301e-05
4.39992e-05
4.4195e-05
4.46815e-05
3.95431e-05
3.95481e-05
4.01366e-05
4.01903e-05
4.42318e-05
4.47751e-05
3.95435e-05
3.95829e-05
4.01346e-05
4.01221e-05
3.95195e-05
4.01889e-05
4.01719e-05
4.42775e-05
4.46507e-05
3.95193e-05
4.01231e-05
4.01713e-05
4.47825e-05
4.48359e-05
4.53354e-05
4.03494e-05
4.0404e-05
4.09507e-05
4.09435e-05
4.49219e-05
4.52782e-05
4.03451e-05
4.03495e-05
4.0949e-05
4.09902e-05
4.04027e-05
4.09448e-05
4.10241e-05
4.48251e-05
4.53782e-05
4.03997e-05
4.09929e-05
4.10218e-05
4.53931e-05
4.54912e-05
4.60534e-05
4.11495e-05
4.111e-05
4.18013e-05
4.17404e-05
4.53868e-05
4.60065e-05
4.11501e-05
4.11638e-05
4.18006e-05
4.17079e-05
4.118e-05
4.17395e-05
4.16864e-05
4.54885e-05
4.59156e-05
4.11796e-05
4.17084e-05
4.16861e-05
4.58793e-05
4.61649e-05
4.64395e-05
4.19861e-05
4.19647e-05
4.244e-05
4.25207e-05
4.61791e-05
4.65686e-05
4.19847e-05
4.19133e-05
4.24357e-05
4.25208e-05
4.18948e-05
4.25166e-05
4.25422e-05
4.60712e-05
4.66143e-05
4.18939e-05
4.2519e-05
4.25381e-05
4.66321e-05
4.65877e-05
4.71661e-05
4.26271e-05
4.26862e-05
4.32439e-05
4.3199e-05
4.66719e-05
4.70908e-05
4.26224e-05
4.27127e-05
4.32462e-05
4.33047e-05
4.27249e-05
4.32025e-05
4.31937e-05
4.67642e-05
4.72327e-05
4.27203e-05
4.33091e-05
4.31963e-05
4.70503e-05
4.72644e-05
4.75164e-05
4.34171e-05
4.33758e-05
4.3831e-05
4.38762e-05
4.72148e-05
4.75902e-05
4.34221e-05
4.34752e-05
4.38303e-05
4.37796e-05
4.33672e-05
4.38727e-05
4.38843e-05
4.73161e-05
4.74058e-05
4.33713e-05
4.37788e-05
4.38848e-05
4.76318e-05
4.76516e-05
4.8349e-05
4.39907e-05
4.4017e-05
4.46333e-05
4.45518e-05
4.76966e-05
4.82187e-05
4.39873e-05
4.39027e-05
4.46287e-05
4.45662e-05
4.40488e-05
4.4554e-05
4.45677e-05
4.7483e-05
4.82842e-05
4.40464e-05
4.45711e-05
4.45612e-05
4.82018e-05
4.84691e-05
4.86284e-05
4.48264e-05
4.47714e-05
4.52017e-05
4.52477e-05
4.84023e-05
4.86876e-05
4.48224e-05
4.47822e-05
4.5207e-05
4.51399e-05
4.47442e-05
4.52457e-05
4.52302e-05
4.84206e-05
4.85224e-05
4.47387e-05
4.514e-05
4.52348e-05
4.86614e-05
4.86996e-05
4.90443e-05
4.53224e-05
4.53453e-05
4.57621e-05
4.57995e-05
4.87382e-05
4.91908e-05
4.53269e-05
4.52663e-05
4.57506e-05
4.59576e-05
4.53467e-05
4.57941e-05
4.57762e-05
4.85979e-05
4.94985e-05
4.53495e-05
4.59555e-05
4.57695e-05
4.92031e-05
4.91186e-05
4.97071e-05
4.58584e-05
4.59957e-05
4.63808e-05
4.62457e-05
4.93343e-05
4.92864e-05
4.58516e-05
4.61376e-05
4.63917e-05
4.62149e-05
4.60009e-05
4.62591e-05
4.64244e-05
4.95577e-05
4.90597e-05
4.59959e-05
4.62204e-05
4.64328e-05
4.94294e-05
4.99821e-05
4.98297e-05
4.66387e-05
4.62962e-05
4.69656e-05
4.70712e-05
4.93078e-05
5.05405e-05
4.66461e-05
4.62372e-05
4.69574e-05
4.70909e-05
4.64258e-05
4.70362e-05
4.65739e-05
4.90827e-05
5.06545e-05
4.64342e-05
4.70601e-05
4.65698e-05
4.97521e-05
4.96785e-05
5.02405e-05
4.69328e-05
4.73601e-05
4.70936e-05
4.74334e-05
5.07419e-05
4.99307e-05
4.69233e-05
4.73805e-05
4.70908e-05
4.74679e-05
4.69318e-05
4.74585e-05
4.77671e-05
5.08056e-05
5.00468e-05
4.69158e-05
4.74928e-05
4.77687e-05
5.07824e-05
5.09846e-05
5.14658e-05
4.76222e-05
4.73845e-05
4.83501e-05
4.78085e-05
4.98569e-05
5.12151e-05
4.763e-05
4.74284e-05
4.83581e-05
4.75346e-05
4.77928e-05
4.77636e-05
4.78229e-05
5.00174e-05
5.03523e-05
4.77995e-05
4.75167e-05
4.78346e-05
5.06704e-05
5.08271e-05
4.94092e-05
4.82072e-05
4.83119e-05
4.77093e-05
4.84801e-05
5.16273e-05
5.07048e-05
4.82092e-05
4.77754e-05
4.76858e-05
4.88301e-05
4.79374e-05
4.84976e-05
4.84465e-05
5.05346e-05
5.23108e-05
4.79445e-05
4.88768e-05
4.84083e-05
5.10728e-05
5.02288e-05
5.37575e-05
4.79059e-05
4.83075e-05
4.96929e-05
4.85669e-05
5.04554e-05
5.19097e-05
4.78861e-05
4.91349e-05
4.97822e-05
4.91104e-05
4.84402e-05
4.85722e-05
4.83444e-05
5.26646e-05
5.10537e-05
4.84101e-05
4.91387e-05
4.83899e-05
5.05476e-05
5.34891e-05
4.95496e-05
4.96801e-05
4.92735e-05
4.8595e-05
4.97452e-05
5.26571e-05
5.21139e-05
4.9764e-05
4.86641e-05
4.85007e-05
4.82814e-05
4.84143e-05
4.96651e-05
5.00828e-05
5.03419e-05
5.02512e-05
4.84887e-05
4.82352e-05
4.99353e-05
5.38005e-05
4.95823e-05
5.31769e-05
4.85381e-05
4.93762e-05
4.96067e-05
4.86065e-05
5.13887e-05
4.98184e-05
4.84341e-05
4.87599e-05
4.97424e-05
5.08753e-05
5.04957e-05
4.87191e-05
5.02718e-05
5.17556e-05
5.51677e-05
5.03268e-05
5.10141e-05
5.02904e-05
5.19169e-05
5.34308e-05
5.2354e-05
5.0083e-05
4.87959e-05
5.02732e-05
5.11579e-05
5.06056e-05
5.50855e-05
5.02868e-05
5.07493e-05
5.03157e-05
4.86467e-05
4.95137e-05
5.1017e-05
4.84339e-05
5.42259e-05
4.84425e-05
4.97276e-05
4.85629e-05
4.84708e-05
4.90916e-05
5.22646e-05
5.26656e-05
5.02142e-05
5.12523e-05
5.02756e-05
5.02252e-05
5.50684e-05
5.12552e-05
5.00975e-05
4.86238e-05
5.00932e-05
5.12198e-05
4.85582e-05
5.01953e-05
5.15096e-05
4.85414e-05
5.60236e-05
4.85455e-05
5.11864e-05
5.13213e-05
5.57507e-05
5.29082e-05
5.31763e-05
5.04537e-05
4.98707e-05
5.07897e-05
4.99316e-05
5.10398e-05
5.24447e-05
5.03667e-05
5.19108e-05
5.09676e-05
5.1357e-05
5.19748e-05
5.00465e-05
5.14847e-05
5.63198e-05
5.20391e-05
5.19565e-05
5.14874e-05
5.17073e-05
5.27474e-05
5.31425e-05
5.27089e-05
5.07958e-05
5.03641e-05
5.07543e-05
5.13024e-05
5.29579e-05
5.38204e-05
5.09551e-05
5.05191e-05
5.0697e-05
4.99623e-05
5.07897e-05
5.12461e-05
5.00309e-05
5.13849e-05
5.17736e-05
5.096e-05
4.99316e-05
4.99622e-05
5.13412e-05
5.27222e-05
5.32831e-05
5.07541e-05
5.1312e-05
5.10386e-05
5.12153e-05
5.37568e-05
5.32075e-05
5.06766e-05
5.01505e-05
5.09364e-05
5.1522e-05
5.00547e-05
5.11655e-05
5.11145e-05
5.24356e-05
5.42584e-05
4.99796e-05
5.14945e-05
5.109e-05
5.39155e-05
5.34722e-05
5.39852e-05
5.12192e-05
5.1218e-05
5.17123e-05
5.15307e-05
5.32423e-05
5.37786e-05
5.12128e-05
5.16191e-05
5.17566e-05
5.15399e-05
5.15594e-05
5.15902e-05
5.20029e-05
5.42428e-05
5.33415e-05
5.15808e-05
5.15742e-05
5.20316e-05
5.43187e-05
5.40439e-05
5.39245e-05
5.18215e-05
5.16614e-05
5.18949e-05
5.17748e-05
5.38519e-05
5.37621e-05
5.18375e-05
5.15211e-05
5.1873e-05
5.16796e-05
5.19837e-05
5.17836e-05
5.16323e-05
5.33454e-05
5.39022e-05
5.20031e-05
5.16858e-05
5.16147e-05
5.33081e-05
5.39105e-05
5.36711e-05
5.18802e-05
5.17737e-05
5.17838e-05
5.18329e-05
5.37681e-05
5.38646e-05
5.18578e-05
5.18694e-05
5.18013e-05
5.20953e-05
5.15927e-05
5.1791e-05
5.17654e-05
5.40737e-05
5.41921e-05
5.15819e-05
5.20839e-05
5.18006e-05
5.40636e-05
5.3684e-05
5.39966e-05
5.1781e-05
5.19077e-05
5.19662e-05
5.20897e-05
5.39473e-05
5.409e-05
5.18016e-05
5.20917e-05
5.19783e-05
5.20095e-05
5.2007e-05
5.21285e-05
5.22694e-05
5.41727e-05
5.38693e-05
5.20449e-05
5.20426e-05
5.22739e-05
5.42987e-05
5.40968e-05
5.42801e-05
5.20807e-05
5.21266e-05
5.23002e-05
5.21982e-05
5.41099e-05
5.41124e-05
5.20752e-05
5.19984e-05
5.22848e-05
5.20746e-05
5.22601e-05
5.21964e-05
5.21267e-05
5.38758e-05
5.4028e-05
5.22597e-05
5.20787e-05
5.2112e-05
5.38942e-05
5.43146e-05
5.4359e-05
5.23399e-05
5.22357e-05
5.24251e-05
5.23998e-05
5.41542e-05
5.43516e-05
5.23292e-05
5.2178e-05
5.24272e-05
5.24261e-05
5.21188e-05
5.23793e-05
5.22686e-05
5.4125e-05
5.4398e-05
5.21054e-05
5.24051e-05
5.22723e-05
5.42738e-05
5.43837e-05
5.44332e-05
5.24544e-05
5.24577e-05
5.25412e-05
5.25879e-05
5.44063e-05
5.45033e-05
5.24576e-05
5.24838e-05
5.25411e-05
5.25786e-05
5.23933e-05
5.25949e-05
5.26384e-05
5.44421e-05
5.44832e-05
5.23969e-05
5.25873e-05
5.26386e-05
5.45848e-05
5.44691e-05
5.45436e-05
5.25745e-05
5.2614e-05
5.26644e-05
5.26423e-05
5.45256e-05
5.44968e-05
5.25736e-05
5.25973e-05
5.2664e-05
5.26524e-05
5.26668e-05
5.26507e-05
5.26586e-05
5.45005e-05
5.45229e-05
5.26661e-05
5.26612e-05
5.26578e-05
5.4473e-05
5.45645e-05
5.45782e-05
5.26835e-05
5.26574e-05
5.27228e-05
5.27566e-05
5.45144e-05
5.46357e-05
5.26841e-05
5.26726e-05
5.27226e-05
5.27227e-05
5.2654e-05
5.27531e-05
5.27261e-05
5.45457e-05
5.45764e-05
5.26536e-05
5.272e-05
5.27264e-05
5.46255e-05
5.46125e-05
5.46591e-05
5.27503e-05
5.27832e-05
5.28136e-05
5.27821e-05
5.46666e-05
5.4566e-05
5.27477e-05
5.27424e-05
5.28137e-05
5.28123e-05
5.27803e-05
5.27868e-05
5.28007e-05
5.46046e-05
5.46539e-05
5.27789e-05
5.28178e-05
5.27995e-05
5.45843e-05
5.46634e-05
5.45653e-05
5.28117e-05
5.27752e-05
5.27923e-05
5.28226e-05
5.45721e-05
5.46986e-05
5.28128e-05
5.28233e-05
5.27968e-05
5.28227e-05
5.27886e-05
5.28187e-05
5.28216e-05
5.46701e-05
5.46274e-05
5.27898e-05
5.28231e-05
5.28293e-05
5.47087e-05
5.46149e-05
5.48828e-05
5.28054e-05
5.28763e-05
5.29642e-05
5.29194e-05
5.47592e-05
5.47285e-05
5.28088e-05
5.28288e-05
5.29618e-05
5.29305e-05
5.28849e-05
5.29259e-05
5.29254e-05
5.46552e-05
5.47902e-05
5.28892e-05
5.29351e-05
5.2923e-05
5.47112e-05
5.48923e-05
5.44744e-05
5.29657e-05
5.29166e-05
5.28333e-05
5.28754e-05
5.47309e-05
5.46424e-05
5.2964e-05
5.29368e-05
5.28362e-05
5.28726e-05
5.29125e-05
5.28714e-05
5.28743e-05
5.4808e-05
5.4588e-05
5.29102e-05
5.28711e-05
5.28766e-05
5.46566e-05
5.44764e-05
5.48927e-05
5.28084e-05
5.2868e-05
5.29172e-05
5.28946e-05
5.46543e-05
5.47439e-05
5.28105e-05
5.28536e-05
5.29167e-05
5.29162e-05
5.28748e-05
5.29088e-05
5.29213e-05
5.45932e-05
5.48317e-05
5.28771e-05
5.29306e-05
5.29219e-05
5.4748e-05
5.49817e-05
5.46243e-05
5.29993e-05
5.29433e-05
5.29744e-05
5.29645e-05
5.47974e-05
5.47457e-05
5.29992e-05
5.2964e-05
5.29727e-05
5.29236e-05
5.29409e-05
5.29614e-05
5.29404e-05
5.4886e-05
5.45833e-05
5.29414e-05
5.29189e-05
5.29401e-05
5.47139e-05
5.45616e-05
5.45652e-05
5.28746e-05
5.29307e-05
5.27914e-05
5.28126e-05
5.4721e-05
5.45452e-05
5.28718e-05
5.28602e-05
5.27931e-05
5.28436e-05
5.29194e-05
5.28212e-05
5.28504e-05
5.45627e-05
5.46995e-05
5.29173e-05
5.28518e-05
5.28507e-05
5.46225e-05
5.46797e-05
5.47385e-05
5.28243e-05
5.28172e-05
5.28935e-05
5.28805e-05
5.46052e-05
5.47409e-05
5.283e-05
5.28798e-05
5.28952e-05
5.28611e-05
5.28488e-05
5.28808e-05
5.28465e-05
5.47672e-05
5.46132e-05
5.28497e-05
5.28602e-05
5.28461e-05
5.46482e-05
5.47428e-05
5.46557e-05
5.28939e-05
5.28886e-05
5.28656e-05
5.28626e-05
5.47562e-05
5.46296e-05
5.28929e-05
5.28403e-05
5.28607e-05
5.28428e-05
5.2853e-05
5.28609e-05
5.28749e-05
5.46158e-05
5.47034e-05
5.28504e-05
5.28479e-05
5.28762e-05
5.47493e-05
5.46433e-05
5.42789e-05
5.28265e-05
5.28149e-05
5.26304e-05
5.26578e-05
5.46104e-05
5.43506e-05
5.28281e-05
5.28384e-05
5.26346e-05
5.26522e-05
5.28623e-05
5.26646e-05
5.26413e-05
5.47146e-05
5.42996e-05
5.28665e-05
5.26541e-05
5.26381e-05
5.42676e-05
5.43227e-05
5.49188e-05
5.26392e-05
5.26675e-05
5.28499e-05
5.282e-05
5.44113e-05
5.48312e-05
5.26416e-05
5.26478e-05
5.28428e-05
5.28044e-05
5.26402e-05
5.28181e-05
5.28051e-05
5.43179e-05
5.48231e-05
5.2633e-05
5.28012e-05
5.27971e-05
5.48211e-05
5.49164e-05
5.40909e-05
5.28511e-05
5.28171e-05
5.25121e-05
5.25348e-05
5.48159e-05
5.41771e-05
5.28455e-05
5.2818e-05
5.25221e-05
5.25874e-05
5.28144e-05
5.25357e-05
5.25869e-05
5.48363e-05
5.42327e-05
5.28123e-05
5.26025e-05
5.26086e-05
5.42579e-05
5.40922e-05
5.41244e-05
5.24448e-05
5.24845e-05
5.23094e-05
5.23284e-05
5.41928e-05
5.4117e-05
5.24506e-05
5.24908e-05
5.23068e-05
5.22745e-05
5.25086e-05
5.23377e-05
5.23035e-05
5.42252e-05
5.4003e-05
5.252e-05
5.22752e-05
5.22901e-05
5.40258e-05
5.402e-05
5.14098e-05
5.1402e-05
5.39734e-05
5.14062e-05
5.13565e-05
4.18332e-05
4.18124e-05
4.1816e-05
5.13686e-05
5.38893e-05
5.13564e-05
3.73773e-05
3.73765e-05
3.7377e-05
3.7377e-05
3.73701e-05
3.73777e-05
3.73043e-05
3.73768e-05
3.73701e-05
3.73777e-05
3.73768e-05
3.73043e-05
3.73741e-05
3.72959e-05
3.72959e-05
3.58797e-05
4.08725e-05
3.66033e-05
4.51461e-05
5.51147e-05
6.48947e-05
3.58803e-05
4.08716e-05
3.66034e-05
4.5146e-05
3.58932e-05
3.58933e-05
3.58932e-05
3.44005e-05
3.44005e-05
3.44005e-05
3.44005e-05
3.52757e-05
3.56385e-05
3.58929e-05
3.53771e-05
3.60476e-05
3.42364e-05
3.53822e-05
5.51168e-05
6.48988e-05
3.52758e-05
3.58929e-05
3.56381e-05
3.53771e-05
3.60475e-05
3.53822e-05
3.42374e-05
3.65969e-05
3.65974e-05
3.5279e-05
3.40645e-05
3.40637e-05
3.39657e-05
5.13543e-05
3.46793e-05
5.46241e-05
7.65452e-05
8.08611e-05
3.39681e-05
5.13551e-05
3.46789e-05
5.46246e-05
3.39296e-05
3.39297e-05
3.39297e-05