/*--------------------------------*- C++ -*----------------------------------*\
| =========                 |                                                 |
| \\      /  F ield         | OpenFOAM: The Open Source CFD Toolbox           |
|  \\    /   O peration     | Version:  v2012                                 |
|   \\  /    A nd           | Website:  www.openfoam.com                      |
|    \\/     M anipulation  |                                                 |
\*---------------------------------------------------------------------------*/
FoamFile
{
    version     2.0;
    format      ascii;
    class       volScalarField;
    location    "500";
    object      nut;
}
// * * * * * * * * * * * * * * * * * * * * * * * * * * * * * * * * * * * * * //

dimensions      [0 2 -1 0 0 0 0];


internalField   nonuniform List<scalar> 
171728
(
0.000233973
0.000233116
0.000233116
0.000233423
0.000232532
0.000227802
0.000227801
0.000223867
0.000230516
0.00022032
0.000220318
0.000209109
0.000227799
0.000211665
0.000211661
0.000193785
0.000224433
0.00020265
0.000202644
0.000179709
0.000220552
0.000193772
0.000193765
0.00016734
0.000216304
0.000185275
0.000185268
0.000156587
0.00021182
0.000177234
0.000177225
0.000147206
0.000207207
0.000169688
0.00016968
0.00013895
0.000202545
0.00016261
0.000162603
0.000131612
0.000197889
0.000155949
0.00015594
0.000124954
0.000193275
0.000149645
0.000149636
0.000118809
0.000188681
0.000143664
0.000143651
0.000113158
0.000184147
0.000137943
0.000137935
0.000107903
0.000179705
0.00013245
0.000132423
0.000102956
0.00017534
0.000127136
0.000127165
9.82644e-05
0.000170988
0.000121978
0.000121972
9.38e-05
0.000166723
0.000116871
0.000116724
8.90395e-05
0.000162463
0.000112282
0.000112799
8.71826e-05
0.000158301
0.000108132
0.000107672
8.29278e-05
0.000155157
0.000105453
0.000106722
9.50323e-05
0.00015077
0.000107417
0.000105491
8.36079e-05
0.000146049
9.88982e-05
9.91649e-05
8.50969e-05
0.000142088
9.65292e-05
9.54594e-05
8.22234e-05
0.000138106
9.65786e-05
9.81872e-05
8.59333e-05
0.000134159
9.31754e-05
9.20203e-05
8.59764e-05
0.000130968
8.98686e-05
9.19897e-05
8.12276e-05
0.000125081
8.81937e-05
9.36478e-05
7.70046e-05
0.000124877
9.67169e-05
8.98538e-05
8.74454e-05
0.000120092
8.79883e-05
8.972e-05
8.99223e-05
0.000119035
0.000101193
9.91893e-05
0.000100033
0.000117021
9.27287e-05
8.6284e-05
8.38418e-05
0.000111978
9.55749e-05
0.000104798
0.000101204
0.000109524
9.68539e-05
0.000101195
0.000101852
0.000113033
0.00010541
0.000102285
0.000109158
0.000108929
0.00010714
0.000103194
0.000105908
0.000109741
0.000105422
0.000104537
0.00010036
0.000109535
0.0001077
0.000109753
0.000116195
0.000109058
0.000111857
0.000112348
0.000117077
0.000109884
0.00011479
0.000115328
0.000115727
0.000109186
0.000117721
0.000117689
0.000119342
0.000111488
0.00012108
0.000120656
0.000121387
0.000113072
0.000124153
0.000124066
0.000124793
0.000114622
0.000127415
0.000127595
0.000127926
0.000116196
0.000130725
0.00013046
0.000130225
0.000118361
0.000133666
0.000133732
0.000133002
0.000121157
0.000136916
0.000137157
0.000134834
0.000123762
0.00014017
0.000139949
0.000137664
0.000126372
0.000143436
0.000143443
0.000140503
0.000129692
0.000146208
0.000146188
0.000142579
0.000132842
0.000149374
0.000149673
0.000144282
0.000135727
0.000152765
0.000152286
0.000147802
0.000139113
0.000154833
0.000155328
0.00014922
0.000142856
0.000158425
0.000157841
0.000151181
0.000145881
0.000161161
0.00016135
0.000154188
0.000149745
0.000163834
0.000164753
0.000155184
0.000152657
0.000165879
0.000165156
0.000157413
0.000157025
0.000169585
0.000169529
0.000159996
0.000160475
0.00017165
0.000170939
0.000160918
0.000163124
0.000174799
0.000176069
0.000165674
0.000168205
0.00017445
0.000173901
0.000161938
0.00016947
0.00018187
0.000182005
0.000167486
0.000174983
0.000179237
0.000180229
0.000169719
0.000178089
0.000185722
0.000179025
0.000171441
0.000177425
0.000182925
0.000193549
0.00016888
0.000189002
0.000191389
0.000182622
0.000162192
0.000183886
0.000188824
0.00018544
0.000198188
0.000190273
0.000182783
0.000203872
0.000167406
0.000194485
0.000203427
0.000176976
0.000152086
0.00019595
0.000190246
0.000210067
0.000206007
0.000200858
0.000194052
0.000195872
0.000175326
0.000200232
0.000199878
0.00018979
0.000167026
0.000202138
0.000198105
0.000202164
0.000186313
0.000208234
0.000202418
0.000200406
0.000186838
0.000210914
0.000202218
0.000202763
0.000178491
0.000210779
0.00020278
0.000204882
0.000186091
0.000212853
0.000204954
0.000203835
0.000186153
0.000215797
0.000204798
0.000204331
0.000182634
0.000217747
0.000206541
0.000206771
0.000185824
0.000219684
0.000208082
0.000207958
0.000187735
0.000221486
0.000208346
0.000208511
0.000186493
0.000223118
0.000209656
0.000209214
0.000188275
0.000224556
0.000209548
0.000210012
0.000187233
0.000225631
0.000210768
0.000210264
0.00018915
0.000227824
0.000211459
0.00021162
0.000188641
0.000227921
0.000211092
0.000210982
0.000188586
0.000229899
0.000212576
0.00021275
0.000189692
0.000230741
0.00021265
0.000211974
0.000189413
0.00023099
0.000212126
0.000212775
0.000189086
0.000232732
0.000213607
0.000213055
0.000189909
0.000233258
0.000213242
0.000213651
0.000190586
0.000233088
0.000212641
0.000212119
0.000187463
0.00023519
0.000214886
0.000215006
0.000192509
0.000234478
0.000212499
0.000212672
0.000188624
0.000236079
0.000213604
0.000213001
0.00018991
0.000234266
0.000234448
0.000234449
0.000234267
0.000234448
0.000234449
0.000234274
0.000234274
0.000234274
0.000234274
0.000234448
0.000234448
0.000234266
0.000234448
0.000234448
0.000234266
0.000233423
0.000226204
0.000233116
0.000233114
0.000229361
0.000229357
0.000233423
0.000226205
0.000233114
0.000233114
0.000229359
0.000229356
0.000233116
0.000229364
0.000229361
0.000233423
0.000226202
0.000233114
0.000229363
0.000229359
0.000226202
0.000223867
0.00021223
0.000227799
0.000227794
0.000222332
0.000222326
0.000223868
0.000212234
0.000227797
0.000227792
0.000222332
0.000222323
0.000227798
0.000222339
0.000222331
0.000223866
0.000212227
0.000227797
0.000222336
0.000222331
0.000212228
0.000209111
0.00019706
0.000220313
0.000220307
0.000213879
0.000213874
0.000209112
0.000197066
0.000220314
0.000220304
0.000213883
0.000213869
0.000220311
0.00021389
0.000213877
0.000209108
0.000197056
0.000220313
0.000213886
0.000213882
0.000197057
0.000193788
0.000182876
0.000211654
0.000211648
0.00020489
0.000204884
0.000193792
0.000182882
0.000211658
0.000211643
0.000204897
0.000204879
0.000211651
0.000204905
0.000204887
0.000193784
0.000182872
0.000211657
0.000204899
0.000204896
0.000182872
0.000179713
0.000170268
0.000202634
0.000202628
0.000195942
0.000195938
0.000179717
0.000170274
0.000202643
0.000202623
0.000195954
0.000195931
0.000202631
0.000195962
0.00019594
0.000179709
0.000170264
0.000202641
0.000195955
0.000195953
0.000170264
0.000167344
0.000159242
0.000193753
0.000193747
0.000187336
0.000187331
0.000167349
0.00015925
0.000193765
0.000193741
0.000187351
0.000187324
0.00019375
0.000187359
0.000187334
0.000167339
0.000159238
0.000193764
0.000187351
0.00018735
0.000159238
0.000156592
0.000149613
0.000185253
0.000185247
0.000179172
0.000179168
0.000156597
0.000149619
0.000185268
0.00018524
0.000179191
0.00017916
0.000185249
0.000179198
0.00017917
0.000156587
0.000149608
0.000185267
0.00017919
0.00017919
0.000149608
0.00014721
0.000141107
0.000177208
0.000177203
0.000171501
0.000171496
0.000147217
0.000141113
0.000177227
0.000177195
0.000171521
0.000171488
0.000177205
0.000171529
0.000171498
0.000147207
0.000141101
0.000177225
0.00017152
0.000171521
0.0001411
0.000138957
0.000133546
0.00016966
0.000169655
0.000164309
0.000164304
0.00013896
0.000133554
0.000169681
0.000169647
0.000164333
0.000164297
0.000169657
0.000164339
0.000164308
0.000138949
0.000133541
0.00016968
0.000164331
0.000164332
0.00013354
0.000131621
0.000126685
0.00016258
0.000162575
0.000157546
0.000157541
0.000131627
0.00012669
0.000162604
0.000162567
0.000157571
0.000157533
0.000162579
0.000157579
0.000157545
0.000131615
0.000126676
0.000162603
0.00015757
0.000157572
0.000126677
0.000124959
0.000120357
0.000155915
0.000155911
0.000151155
0.000151151
0.000124962
0.000120365
0.000155941
0.000155903
0.000151183
0.000151143
0.000155913
0.00015119
0.000151155
0.00012495
0.000120358
0.00015594
0.000151182
0.000151184
0.000120354
0.000118816
0.00011442
0.000149609
0.000149606
0.000145096
0.00014509
0.000118827
0.00011442
0.000149637
0.000149596
0.000145124
0.000145084
0.000149609
0.000145131
0.000145099
0.000118819
0.000114419
0.000149638
0.000145125
0.000145126
0.000114414
0.000113159
0.000108808
0.000143623
0.000143625
0.000139313
0.000139304
0.000113174
0.000108797
0.000143651
0.000143611
0.000139343
0.0001393
0.000143625
0.000139348
0.000139313
0.000113167
0.000108804
0.000143653
0.000139346
0.000139348
0.000108813
0.000107894
0.000103622
0.000137898
0.000137897
0.00013376
0.000133745
0.000107911
0.000103617
0.000137929
0.000137888
0.000133784
0.000133743
0.000137895
0.000133798
0.000133763
0.000107917
0.000103606
0.00013793
0.000133785
0.000133789
0.000103615
0.000102959
9.89927e-05
0.000132405
0.000132403
0.00012841
0.000128412
0.000102961
9.89323e-05
0.000132424
0.000132382
0.000128442
0.000128379
0.000132394
0.000128447
0.00012842
0.000102947
9.89501e-05
0.000132412
0.000128428
0.000128447
9.89887e-05
9.82385e-05
9.44615e-05
0.000127098
0.000127097
0.000123163
0.000123129
9.81911e-05
9.43759e-05
0.000127131
0.0001271
0.00012319
0.000123237
0.000127101
0.000123187
0.000123287
9.82236e-05
9.44666e-05
0.000127133
0.000123301
0.000123326
9.45935e-05
9.36262e-05
9.03812e-05
0.000121886
0.000121909
0.000118117
0.000118038
9.35081e-05
9.01137e-05
0.000121929
0.000121952
0.000118195
0.000118053
0.000121943
0.000118057
0.000118136
9.36606e-05
8.9984e-05
0.000121972
0.000118049
0.000118102
9.00025e-05
8.95186e-05
8.76566e-05
0.000116848
0.000116865
0.00011394
0.000113758
8.93036e-05
8.73263e-05
0.00011696
0.000116748
0.000113895
0.000113564
0.000116811
0.000113695
0.000113687
8.89405e-05
8.69065e-05
0.000116758
0.000113643
0.000113633
8.74328e-05
8.6773e-05
8.24316e-05
0.000112543
0.000112407
0.000108348
0.000108793
8.64051e-05
8.30608e-05
0.000112461
0.000112654
0.000108465
0.000108785
0.000112723
0.00010898
0.000108442
8.6708e-05
8.4111e-05
0.000112657
0.000108901
0.000108596
8.34949e-05
8.24687e-05
9.23602e-05
0.000107939
0.000107799
0.000108428
0.000105545
8.2946e-05
8.46596e-05
0.000108074
0.000107545
0.000108273
0.000106225
0.000107807
0.000105812
0.000108622
8.31488e-05
8.65277e-05
0.000108059
0.000106264
0.000108922
9.35327e-05
9.24532e-05
8.90473e-05
0.00010811
0.000105315
0.000105208
0.000107744
8.47858e-05
9.92108e-05
0.000107803
0.000106756
0.000105
0.000106609
0.000108688
0.000107441
0.000104073
8.86513e-05
9.37694e-05
0.000108814
0.000106415
0.000103969
8.60446e-05
8.77859e-05
8.21454e-05
0.000103601
0.000107542
9.97059e-05
0.00010143
0.000100101
8.43584e-05
0.000103704
0.000105655
0.000100089
0.000100654
0.000101868
0.000101599
9.97701e-05
9.2871e-05
8.45091e-05
0.000101834
0.000100723
9.95539e-05
8.21826e-05
8.13915e-05
8.30412e-05
9.86839e-05
9.88995e-05
9.7351e-05
9.57825e-05
8.13425e-05
7.89093e-05
9.90118e-05
9.90658e-05
9.72122e-05
9.55984e-05
0.000100285
9.56973e-05
9.78774e-05
8.28106e-05
7.89656e-05
9.99239e-05
9.58428e-05
9.77667e-05
8.37916e-05
8.30042e-05
8.24903e-05
9.67394e-05
9.65613e-05
9.52372e-05
9.73884e-05
8.2375e-05
8.89598e-05
9.65483e-05
9.51941e-05
9.53072e-05
9.8411e-05
9.65328e-05
9.76173e-05
9.46728e-05
7.92607e-05
9.26113e-05
9.65407e-05
9.83797e-05
9.51108e-05
8.29832e-05
8.26037e-05
8.19149e-05
9.50106e-05
9.64273e-05
9.27153e-05
9.35153e-05
8.73035e-05
8.19401e-05
9.51328e-05
9.82973e-05
9.28184e-05
9.3551e-05
9.58041e-05
9.35355e-05
9.54184e-05
9.25402e-05
7.9983e-05
9.60845e-05
9.34976e-05
9.5398e-05
8.70092e-05
8.24169e-05
8.8283e-05
9.28567e-05
9.31949e-05
9.48515e-05
9.21333e-05
8.23775e-05
8.0747e-05
9.28673e-05
9.20519e-05
9.47637e-05
9.15971e-05
9.44349e-05
9.21378e-05
9.2463e-05
7.85492e-05
8.23479e-05
9.44103e-05
9.16722e-05
9.24614e-05
8.19768e-05
8.57764e-05
7.28943e-05
9.33627e-05
8.98561e-05
8.73052e-05
8.58923e-05
7.73987e-05
7.19566e-05
9.3284e-05
9.19555e-05
8.72932e-05
9.25823e-05
9.1781e-05
8.59366e-05
8.79561e-05
8.36373e-05
8.80266e-05
9.17713e-05
9.26056e-05
8.79788e-05
7.6272e-05
7.27766e-05
9.69242e-05
8.66701e-05
8.81195e-05
9.50956e-05
9.82041e-05
7.74575e-05
0.000102203
8.66989e-05
9.3606e-05
9.51915e-05
9.22891e-05
8.81276e-05
9.82908e-05
9.24502e-05
8.96588e-05
8.51319e-05
8.81909e-05
9.23772e-05
9.25276e-05
8.79654e-05
9.73903e-05
8.66535e-05
9.62592e-05
9.6669e-05
9.20487e-05
8.91114e-05
9.95034e-05
7.81947e-05
9.62914e-05
8.97803e-05
9.19338e-05
8.67581e-05
9.2002e-05
8.90731e-05
9.05594e-05
8.1841e-05
7.86462e-05
9.20222e-05
8.67251e-05
9.03818e-05
8.66612e-05
8.55934e-05
9.6349e-05
9.06826e-05
8.80261e-05
9.459e-05
9.79031e-05
7.7809e-05
0.000108637
9.05791e-05
8.98166e-05
9.47379e-05
0.000102283
9.26074e-05
9.79884e-05
9.88221e-05
8.47164e-05
0.000113071
9.24719e-05
0.000102388
9.9008e-05
0.000102813
9.91339e-05
0.000100584
9.68032e-05
0.000101038
9.77036e-05
9.5249e-05
0.000111068
8.72037e-05
9.70053e-05
9.90446e-05
9.76811e-05
8.74235e-05
9.77878e-05
9.53314e-05
9.17862e-05
0.000107828
7.10422e-05
9.79663e-05
8.75095e-05
9.18339e-05
8.39548e-05
9.98665e-05
8.95107e-05
9.7462e-05
9.27004e-05
9.47321e-05
9.16322e-05
8.43646e-05
9.30917e-05
9.73423e-05
8.62334e-05
9.46124e-05
0.000100163
9.07553e-05
9.15209e-05
9.72203e-05
7.08243e-05
0.000116183
9.07431e-05
0.000100006
9.71004e-05
0.000100823
8.73663e-05
9.18198e-05
9.26612e-05
9.56874e-05
9.21071e-05
9.71145e-05
9.76644e-05
9.85475e-05
9.25818e-05
0.000104888
9.22851e-05
0.000102874
9.81265e-05
9.72116e-05
9.86901e-05
0.000118982
0.000102364
9.80991e-05
0.000102983
9.87844e-05
0.000100416
9.7887e-05
0.000112714
9.65425e-05
9.67011e-05
0.000105946
0.000103073
9.8037e-05
0.000109492
9.66978e-05
0.000101068
0.00010594
9.98227e-05
9.9931e-05
0.000103096
0.000103361
0.00010071
0.000104105
0.000100016
9.98615e-05
0.000103378
0.000108706
0.000111417
0.000100849
0.000106142
0.000105462
0.000101756
0.000107673
0.000112214
0.000111966
0.000106115
0.000102314
0.00010174
0.000104001
0.000104068
0.000107644
0.000105338
0.000106534
0.000105692
0.000104066
0.000103956
0.000105334
0.000107346
0.000100188
0.000112289
0.000100879
0.000107089
0.000106562
0.00010536
0.00011107
0.000106689
0.000100873
0.000103161
0.000106532
0.0001033
0.00010477
0.000105499
0.000101328
0.000104506
0.000104286
0.000104769
0.000103445
0.000101299
9.98212e-05
0.000114361
0.000112497
0.000108737
0.000105357
0.000110019
0.000106829
0.000106408
0.000108669
0.000108706
0.00010446
0.000109998
0.000108781
0.000101814
0.000106718
0.000108552
0.000105827
0.000112421
0.000101779
0.000108662
0.000108553
0.000114083
0.000111667
0.000113803
0.000109313
0.00010778
0.000110879
0.000110905
0.000109551
0.000113745
0.000109301
0.000109849
0.000110918
0.000111598
0.00011076
0.00011099
0.000113799
0.000113186
0.000114533
0.000110776
0.000111676
0.000113813
0.000117503
0.000115479
0.000117697
0.000112462
0.000111759
0.000115311
0.000114013
0.000114326
0.000116225
0.000112506
0.000112257
0.000115322
0.000114687
0.000113913
0.000114022
0.000114048
0.000114851
0.000117219
0.000113917
0.000114699
0.00011405
0.000115595
0.000117121
0.000115803
0.000115335
0.000114807
0.000115345
0.000117038
0.000116717
0.000118913
0.000115329
0.000115341
0.000115338
0.000117045
0.000114441
0.000117043
0.000116745
0.000117613
0.000118708
0.000114446
0.000117049
0.000116751
0.000118677
0.000116632
0.000123553
0.000116128
0.000117691
0.000120655
0.000120089
0.000119307
0.000121766
0.00011613
0.000117661
0.000120655
0.000119781
0.000117678
0.00012015
0.000119884
0.000119052
0.000121153
0.000117682
0.000119841
0.00011989
0.000121141
0.00012448
0.000124986
0.00012205
0.000121036
0.000123948
0.000123474
0.000122408
0.000124535
0.00012205
0.000120611
0.000123947
0.000123206
0.000120481
0.000123459
0.000122976
0.000121674
0.000124334
0.000120488
0.000123191
0.000122967
0.000124021
0.000125013
0.000127464
0.000124309
0.000124166
0.000126757
0.000126485
0.000124858
0.000127079
0.000124309
0.00012408
0.000126759
0.000126757
0.000124009
0.000126516
0.000126803
0.00012491
0.000127458
0.000123999
0.000126788
0.000126811
0.000127555
0.000128097
0.000128943
0.000127718
0.000127384
0.000129485
0.000130006
0.000127676
0.000130034
0.00012772
0.000127561
0.000129496
0.000129707
0.000127587
0.000130012
0.000129805
0.000127887
0.000129475
0.000127597
0.000129714
0.000129812
0.000129728
0.000129039
0.000131943
0.000129978
0.000130718
0.000132533
0.000132858
0.000130393
0.000132023
0.000129986
0.000130454
0.000132528
0.00013286
0.000130614
0.000132893
0.000133222
0.000129878
0.000132227
0.000130615
0.000132895
0.000133217
0.00013262
0.000132733
0.000135214
0.000133618
0.000133626
0.000136386
0.000136029
0.00013246
0.000134677
0.000133616
0.00013369
0.00013639
0.000136314
0.000133971
0.000136042
0.000135965
0.000132729
0.000135086
0.00013397
0.00013633
0.000135969
0.000134424
0.00013551
0.000137311
0.000137119
0.000136907
0.000139351
0.00013933
0.000135149
0.000137442
0.000137131
0.000137149
0.000139363
0.000139195
0.000136732
0.000139348
0.000139264
0.0001355
0.000137024
0.000136741
0.000139218
0.000139276
0.000137224
0.000137721
0.000139206
0.000140171
0.000140154
0.000142207
0.000142754
0.000137891
0.000140078
0.000140171
0.000139927
0.000142207
0.000142639
0.000140063
0.000142758
0.000142511
0.000137418
0.000140016
0.000140067
0.000142642
0.000142512
0.000139959
0.00013952
0.000142728
0.000142819
0.00014343
0.000145762
0.000145368
0.000140398
0.000141737
0.000142824
0.000143434
0.000145763
0.000145275
0.000143423
0.000145412
0.000145884
0.0001404
0.000141762
0.000143427
0.000145325
0.000145885
0.000142413
0.000143401
0.000144656
0.00014684
0.000146157
0.000148912
0.000148581
0.000142181
0.00014449
0.000146839
0.00014614
0.000148928
0.000149109
0.000146459
0.000148582
0.000148289
0.000142295
0.000145058
0.000146458
0.000149111
0.000148298
0.000143809
0.000144754
0.000146416
0.000149429
0.000149381
0.000151411
0.000151943
0.000144919
0.000147285
0.000149457
0.00014967
0.000151411
0.000151323
0.000149057
0.000151948
0.000151673
0.000145241
0.000146311
0.000149079
0.000151336
0.000151685
0.000147212
0.000146789
0.00014879
0.000152185
0.000152759
0.00015437
0.000154312
0.000147633
0.000148316
0.000152166
0.000152285
0.000154377
0.000154751
0.000152708
0.000154355
0.000155068
0.000146898
0.000149105
0.0001527
0.000154798
0.000155068
0.000149254
0.000149333
0.000151868
0.00015518
0.000154775
0.000158006
0.000157418
0.000148444
0.000151459
0.000155206
0.000155256
0.000158024
0.000157047
0.000155412
0.000157432
0.00015693
0.000149209
0.000150589
0.000155428
0.000157061
0.00015695
0.000150494
0.000151983
0.000152569
0.000158633
0.000158438
0.000159881
0.00016057
0.000152086
0.000153513
0.000158643
0.000157858
0.000159855
0.000160415
0.000157829
0.000160562
0.000160747
0.000151046
0.0001537
0.000157843
0.000160419
0.000160722
0.000153953
0.000153081
0.000155786
0.00016068
0.000161137
0.000163466
0.00016312
0.000153661
0.000155341
0.00016065
0.000161314
0.00016351
0.000164162
0.000161441
0.000163167
0.000162984
0.000154313
0.000156656
0.000161413
0.000164202
0.000163028
0.000154938
0.000155793
0.000156078
0.000164045
0.000163819
0.000165018
0.000165467
0.000155627
0.000156669
0.000164111
0.000164746
0.000165028
0.000164765
0.000163653
0.000165464
0.000165619
0.000156564
0.000155508
0.000163712
0.000164779
0.00016564
0.000157116
0.000156565
0.000160723
0.000165657
0.000165859
0.000169076
0.000168364
0.000156835
0.000159755
0.000165643
0.000165102
0.00016906
0.000168556
0.000166224
0.000168405
0.000168496
0.000155583
0.000160171
0.00016622
0.0001686
0.000168464
0.000159573
0.000161061
0.000161189
0.000170019
0.000169544
0.00017127
0.000171427
0.000160562
0.000161358
0.000170013
0.000169509
0.000171326
0.000170261
0.000169315
0.000171441
0.000171124
0.000160399
0.000159822
0.000169297
0.000170288
0.000171169
0.000160886
0.000161173
0.000161845
0.000171648
0.000171659
0.00017291
0.000173987
0.000161295
0.000164016
0.000171683
0.000170909
0.00017284
0.000175499
0.000171408
0.000173919
0.000173815
0.000160162
0.000166595
0.000171432
0.000175446
0.000173773
0.000164539
0.000161828
0.000167051
0.000173087
0.00017484
0.000176528
0.000174288
0.000164318
0.00016162
0.000173062
0.000176116
0.000176642
0.000173975
0.00017533
0.000174469
0.000176225
0.000166053
0.000159973
0.000175307
0.000174097
0.000176308
0.000162964
0.000168747
0.000163188
0.000178382
0.000174309
0.000177949
0.000180078
0.000161484
0.000171782
0.000178467
0.000173803
0.000177899
0.000180201
0.000175267
0.000179749
0.00017515
0.000159942
0.000172381
0.000175349
0.000179887
0.000175131
0.000164661
0.000161099
0.000169723
0.00017674
0.000182201
0.000178039
0.000179795
0.000172789
0.000163253
0.000176666
0.000182361
0.000178017
0.000181106
0.000177793
0.000180132
0.000183306
0.000173064
0.000165616
0.000177675
0.000181495
0.000183314
0.000170594
0.000175157
0.000173252
0.000182761
0.000178919
0.000187109
0.000182456
0.000162291
0.000174733
0.000182868
0.000179834
0.000187263
0.000178212
0.000182892
0.000181979
0.000182391
0.000164559
0.000163714
0.000183022
0.000177929
0.0001826
0.000170093
0.000166431
0.000159016
0.00018366
0.000186355
0.000177981
0.000184367
0.000177387
0.000165112
0.000183627
0.000179855
0.000177631
0.000189811
0.000183235
0.000184718
0.000186205
0.000164576
0.000184741
0.000183349
0.000190305
0.000185492
0.000170824
0.000165471
0.000193849
0.00018031
0.00018225
0.000196384
0.000185694
0.000162711
0.000179782
0.000180101
0.000192739
0.000197403
0.000189209
0.000184457
0.000185663
0.000180301
0.000187475
0.000166015
0.00018412
0.000189323
0.000181013
0.000161352
0.000189477
0.000156152
0.000195846
0.000192271
0.000182684
0.000194716
0.000185471
0.000175957
0.000196743
0.00018322
0.000181539
0.000179464
0.000180728
0.000193889
0.000197658
0.000159081
0.000165114
0.000181623
0.000178904
0.000196032
0.000194914
0.000156144
0.000183138
0.000181759
0.000188787
0.000190242
0.000179754
0.000168046
0.000156005
0.0001806
0.000185471
0.000191698
0.000205149
0.000202297
0.000180973
0.000199719
0.000177291
0.000204583
0.000200567
0.000206615
0.000200227
0.000176584
0.000184702
0.000175675
0.000194045
0.000181621
0.000194633
0.000204039
0.000161867
0.000201095
0.000196184
0.00020249
0.000194897
0.000178287
0.000190234
0.000202717
0.000176405
0.000192403
0.000143883
0.000192772
0.000177517
0.000176679
0.000148221
0.000174514
0.000177873
0.000193685
0.000205007
0.000193705
0.000193704
0.000200535
0.000167418
0.000192437
0.000177915
0.000191951
0.000202881
0.000177257
0.000193359
0.000204563
0.000144897
0.000208427
0.000177025
0.000202534
0.000202807
0.000204381
0.000179405
0.000181739
0.000195124
0.000189814
0.000197819
0.000189365
0.000164919
0.000174643
0.000194396
0.00020956
0.000199532
0.000203552
0.000209487
0.000190455
0.000205684
0.00021078
0.000173478
0.000209337
0.000204864
0.000207813
0.000180673
0.000180983
0.000176387
0.000197702
0.000192881
0.000195937
0.000200528
0.000178036
0.000184789
0.000199295
0.000195091
0.000195399
0.000188774
0.000198765
0.000200155
0.000189143
0.00016737
0.000169214
0.000200427
0.00018854
0.000188534
0.000165302
0.000175914
0.000179191
0.000195438
0.000200444
0.000196716
0.000198574
0.000183835
0.000179317
0.000194695
0.000190236
0.000195934
0.000201475
0.000188777
0.000198115
0.000196969
0.000173605
0.000187767
0.000188102
0.000201186
0.000196796
0.000184153
0.000180272
0.000184889
0.000198047
0.000198458
0.000202151
0.000200883
0.000179309
0.000183555
0.000198042
0.000202216
0.000202552
0.000200459
0.000201014
0.000201417
0.00020527
0.000187161
0.000179466
0.000201239
0.000200801
0.000205542
0.000188289
0.000185145
0.000184781
0.000203172
0.000201913
0.000203902
0.000202468
0.000183838
0.000182914
0.000203304
0.000200061
0.000203681
0.000201267
0.000205076
0.000202561
0.000200856
0.000179083
0.000183709
0.00020525
0.000201327
0.000200662
0.000178863
0.000184295
0.00018193
0.000203701
0.000202289
0.000202116
0.000202486
0.000182629
0.000183388
0.000203476
0.000202963
0.000202303
0.000205026
0.00020025
0.000202101
0.000201644
0.000184754
0.000186378
0.000200136
0.000204871
0.000201971
0.000184824
0.000181647
0.000183722
0.000201878
0.000203044
0.000203055
0.000204331
0.000183757
0.000184776
0.0002021
0.000204986
0.000203182
0.000203785
0.00020383
0.00020473
0.00020622
0.000185931
0.000183268
0.000204187
0.000204125
0.000206303
0.000186885
0.000184184
0.000185688
0.000203932
0.000204517
0.000205605
0.000204728
0.000184593
0.00018439
0.000203907
0.000203482
0.000205491
0.000203671
0.000206101
0.000204759
0.000204243
0.000182911
0.000183694
0.000206134
0.000203742
0.000204134
0.000182872
0.000185692
0.000186104
0.00020589
0.000204938
0.000206472
0.000206175
0.0001844
0.000185948
0.000205816
0.000204445
0.000206509
0.000206422
0.000203977
0.000206008
0.000204982
0.000184113
0.000186357
0.000203881
0.000206236
0.000205028
0.000185257
0.000186014
0.00018651
0.000206669
0.000206654
0.000207342
0.000207764
0.000186127
0.000187157
0.000206714
0.000206896
0.000207356
0.000207667
0.000206004
0.000207843
0.000208222
0.000186448
0.000186912
0.000206052
0.000207754
0.000208241
0.000187835
0.000186555
0.000187333
0.00020763
0.000207967
0.000208405
0.000208167
0.000187036
0.000186874
0.000207635
0.000207824
0.000208423
0.000208314
0.000208466
0.000208263
0.000208305
0.000186798
0.000187204
0.000208476
0.000208396
0.000208317
0.00018667
0.000187211
0.000187719
0.000208563
0.000208312
0.00020901
0.000209376
0.000186802
0.000188271
0.00020859
0.000208482
0.000209014
0.000208941
0.000208267
0.000209369
0.000209093
0.000187118
0.000187573
0.000208284
0.000208934
0.000209104
0.000188151
0.000187771
0.000188256
0.000209346
0.000209624
0.000209954
0.000209578
0.000188259
0.000187388
0.000209326
0.000209175
0.000209965
0.000209911
0.000209578
0.000209628
0.000209697
0.000187575
0.000188261
0.00020957
0.000209956
0.000209699
0.000187464
0.000187924
0.000187551
0.000209882
0.000209521
0.000209711
0.000210149
0.000187174
0.000188739
0.000209913
0.000210006
0.000209769
0.000210033
0.000209595
0.000210143
0.000210177
0.000188079
0.000188014
0.00020962
0.000210045
0.000210259
0.000188858
0.000187764
0.000190679
0.000210018
0.000210706
0.000211943
0.000211392
0.000188972
0.000189184
0.000210051
0.000210186
0.000211936
0.00021153
0.000210822
0.000211463
0.000211379
0.000188043
0.000189764
0.000210864
0.000211567
0.000211368
0.000188908
0.000190367
0.000186766
0.000211972
0.000211424
0.000210648
0.000211143
0.000188949
0.000188353
0.000211972
0.000211621
0.000210687
0.00021107
0.000211303
0.00021111
0.000211138
0.0001896
0.000187813
0.000211298
0.000211057
0.000211174
0.000188561
0.000186556
0.000191212
0.000210451
0.000211093
0.000212207
0.000211856
0.000188184
0.000189811
0.000210484
0.00021094
0.000212224
0.000212172
0.000211198
0.000212011
0.00021205
0.000187662
0.000190635
0.000211231
0.000212305
0.000212077
0.000189699
0.000191676
0.000188878
0.000213109
0.000212497
0.000213016
0.000212971
0.000190025
0.000189923
0.000213125
0.000212696
0.000212997
0.000212458
0.000212351
0.000212946
0.000212712
0.000190813
0.000188425
0.000212381
0.000212424
0.000212716
0.000189672
0.000188089
0.000188683
0.000212159
0.000212697
0.000211708
0.000211866
0.000189417
0.000188504
0.000212134
0.000211965
0.000211761
0.000212337
0.000212598
0.000211979
0.000212306
0.000188036
0.000189905
0.000212592
0.000212425
0.000212337
0.000189176
0.000189292
0.000190742
0.000212088
0.000212008
0.000213414
0.000213304
0.000188735
0.000190761
0.000212177
0.000212713
0.00021342
0.000212918
0.000212329
0.00021332
0.000212828
0.000190163
0.000189553
0.000212363
0.000212895
0.000212788
0.000189865
0.000190639
0.000190234
0.0002137
0.000213612
0.000213789
0.000213687
0.000190716
0.000189936
0.00021368
0.000213062
0.000213766
0.000213637
0.000213229
0.000213683
0.000213929
0.000189452
0.000190785
0.000213191
0.000213717
0.000213995
0.000191152
0.000189552
0.000187538
0.000213335
0.000213216
0.000211715
0.000212049
0.000189298
0.000188268
0.000213388
0.000213556
0.000211778
0.000211969
0.000213762
0.000212147
0.00021189
0.000190333
0.000187596
0.000213863
0.000212003
0.000211883
0.000187391
0.000187819
0.00019371
0.000212183
0.000212533
0.000215269
0.000214891
0.000188632
0.000192781
0.000212195
0.000212137
0.000215216
0.000214772
0.000212114
0.00021488
0.000214702
0.00018764
0.000192825
0.000212024
0.000214742
0.00021463
0.000192682
0.000193298
0.000187245
0.000215316
0.000214913
0.000212622
0.00021288
0.000192293
0.000188135
0.000215285
0.000214997
0.000212736
0.000213403
0.000214871
0.000212908
0.000213434
0.000192697
0.000188603
0.000214872
0.000213575
0.000213687
0.000188934
0.000186925
0.000188917
0.000211997
0.000212422
0.000214286
0.000214478
0.000187985
0.000188775
0.000212076
0.000212529
0.000214253
0.000213856
0.000212736
0.000214578
0.0002142
0.000188143
0.000187714
0.000212898
0.000213868
0.00021404
0.000187867
0.000191415
0.000213674
0.000213546
0.000190876
0.000213623
0.000213037
0.000236082
0.000235769
0.000235751
0.000213116
0.000190098
0.000212956
0.00023473
0.000234746
0.000234729
0.000234729
0.000235117
0.000234798
0.000234701
0.000234727
0.000235118
0.000234798
0.000234727
0.000234701
0.000234867
0.000233566
0.000233566
0.000104651
3.87413e-05
0.000129118
3.98246e-05
2.16834e-05
2.28312e-05
0.000104643
3.87373e-05
0.000129113
3.98212e-05
0.000233973
0.000233973
0.000233973
0.000232935
0.000232935
0.000232935
0.000232935
0.000206196
9.36755e-05
0.000233969
0.000231994
0.000222614
8.72225e-05
0.000233611
2.16823e-05
2.28306e-05
0.00020619
0.000233969
9.36751e-05
0.000231994
0.000222622
0.000233611
8.72281e-05
4.78006e-05
4.77888e-05
0.000231345
4.40193e-05
4.40097e-05
7.2568e-05
4.24344e-05
8.14027e-05
4.37631e-05
2.4775e-05
2.54634e-05
7.25579e-05
4.24308e-05
8.13973e-05
4.37593e-05
0.000232532
0.000232532
0.000232532
0.000231084