/*--------------------------------*- C++ -*----------------------------------*\
| =========                 |                                                 |
| \\      /  F ield         | OpenFOAM: The Open Source CFD Toolbox           |
|  \\    /   O peration     | Version:  v2012                                 |
|   \\  /    A nd           | Website:  www.openfoam.com                      |
|    \\/     M anipulation  |                                                 |
\*---------------------------------------------------------------------------*/
FoamFile
{
    version     2.0;
    format      ascii;
    class       volScalarField;
    location    "500";
    object      p;
}
// * * * * * * * * * * * * * * * * * * * * * * * * * * * * * * * * * * * * * //

dimensions      [0 2 -2 0 0 0 0];


internalField   nonuniform List<scalar> 
171728
(
0.00360472
0.00360504
0.00360505
0.0036081
0.00354936
0.00354978
0.00354978
0.00355277
0.00349861
0.00349858
0.00349858
0.00350133
0.00344622
0.00344623
0.00344623
0.00344901
0.00339487
0.00339488
0.00339488
0.00339763
0.0033449
0.00334491
0.00334491
0.00334762
0.00329637
0.00329638
0.00329638
0.00329907
0.00324915
0.00324917
0.00324915
0.00325183
0.00320301
0.00320304
0.00320305
0.00320566
0.00315778
0.0031578
0.00315781
0.00316041
0.00311328
0.00311329
0.00311329
0.00311586
0.00306937
0.00306938
0.00306938
0.00307193
0.00302598
0.003026
0.00302598
0.00302851
0.00298307
0.00298306
0.00298304
0.0029856
0.00294058
0.00294061
0.00294061
0.00294308
0.00289853
0.00289853
0.00289856
0.00290097
0.0028569
0.00285694
0.0028569
0.00285932
0.00281565
0.00281563
0.0028156
0.00281806
0.00277469
0.00277464
0.00277473
0.00277724
0.0027341
0.0027341
0.00273398
0.00273653
0.00269334
0.00269347
0.00269345
0.00269576
0.00265277
0.00265266
0.00265265
0.00265506
0.00261282
0.00261259
0.00261276
0.0026154
0.00257316
0.00257328
0.00257325
0.0025754
0.00253357
0.00253333
0.00253326
0.00253608
0.00249447
0.00249445
0.0024944
0.00249658
0.00245539
0.00245516
0.00245544
0.00245764
0.00241712
0.0024175
0.0024169
0.00241965
0.00237817
0.00237771
0.00237802
0.00238043
0.00234009
0.0023404
0.0023407
0.00234293
0.00230161
0.00230109
0.00230045
0.0023031
0.00226361
0.00226381
0.00226467
0.00226662
0.00222602
0.002226
0.00222557
0.00222812
0.00218845
0.00218841
0.00218821
0.00219057
0.0021504
0.0021505
0.0021505
0.0021527
0.00211308
0.00211283
0.00211293
0.00211496
0.00207579
0.0020758
0.00207593
0.00207839
0.00203865
0.00203874
0.00203865
0.00204078
0.00200167
0.0020016
0.00200161
0.00200365
0.00196467
0.00196472
0.00196469
0.0019669
0.00192808
0.00192799
0.00192799
0.00193011
0.00189141
0.00189138
0.00189139
0.0018935
0.00185488
0.00185484
0.00185486
0.00185698
0.00181846
0.00181842
0.0018184
0.0018205
0.00178216
0.00178208
0.0017821
0.0017842
0.00174596
0.00174588
0.00174588
0.00174794
0.0017098
0.00170974
0.00170972
0.00171183
0.00167375
0.00167368
0.0016737
0.00167575
0.0016378
0.00163767
0.00163767
0.00163976
0.00160188
0.00160179
0.00160181
0.00160381
0.00156601
0.00156594
0.00156589
0.00156801
0.00153025
0.00153011
0.00153017
0.00153218
0.00149455
0.00149443
0.00149439
0.00149642
0.00145884
0.00145874
0.00145877
0.00146083
0.00142325
0.00142309
0.00142313
0.00142511
0.00138759
0.0013875
0.00138741
0.00138955
0.00135215
0.00135198
0.00135206
0.001354
0.00131657
0.00131647
0.0013164
0.0013185
0.00128107
0.00128094
0.00128108
0.00128298
0.00124561
0.00124543
0.00124524
0.00124746
0.00121021
0.00121019
0.0012103
0.00121202
0.00117467
0.0011745
0.00117447
0.0011769
0.00113969
0.00113933
0.0011392
0.00114097
0.00110336
0.00110372
0.00110407
0.00110602
0.00106947
0.00106848
0.00106838
0.00107017
0.0010322
0.00103341
0.00103239
0.00103577
0.000998445
0.000996712
0.000999611
0.000999388
0.000962267
0.000963682
0.000959592
0.000963282
0.00092709
0.000926053
0.000929443
0.000931302
0.000892003
0.000891938
0.000890761
0.000892772
0.000855816
0.000856196
0.000855328
0.000857421
0.00082094
0.000820549
0.000821783
0.000823703
0.000785703
0.000785695
0.000785137
0.000787489
0.000749942
0.000749746
0.000749884
0.00075143
0.000714273
0.0007143
0.000714367
0.000716557
0.000678853
0.000678858
0.000678668
0.000680821
0.000643331
0.000643133
0.000643196
0.000645012
0.000607726
0.000607706
0.00060775
0.000609813
0.00057215
0.000572125
0.000572091
0.000574166
0.000536503
0.000536397
0.000536414
0.000538375
0.000500776
0.000500756
0.000500728
0.000502796
0.000465081
0.00046498
0.00046503
0.000467012
0.000429253
0.000429265
0.000429218
0.000431301
0.0003936
0.000393484
0.000393528
0.000395504
0.000357573
0.000357585
0.000357547
0.000359634
0.000321879
0.000321789
0.000321834
0.000323834
0.000285911
0.000285897
0.00028583
0.000287919
0.000249878
0.000249811
0.000249907
0.000251905
0.00021405
0.000214038
0.000213949
0.000216018
0.000177989
0.000177928
0.000178
0.000180044
0.000141764
0.000141741
0.000141698
0.000143698
0.000106048
0.000106046
0.000106049
0.000108114
6.95168e-05
6.94347e-05
6.94735e-05
7.14688e-05
3.42838e-05
3.37347e-05
3.36583e-05
3.54538e-05
6.16351e-06
7.03974e-06
7.09784e-06
5.42147e-06
0.00361812
0.00361835
0.00361835
0.00361812
0.00361835
0.00361835
0.00361911
0.00361911
0.00361911
0.00361911
0.00361835
0.00361835
0.00361812
0.00361835
0.00361835
0.00361812
0.0036081
0.00355934
0.00360504
0.00360504
0.00356162
0.00356162
0.0036081
0.00355934
0.00360505
0.00360504
0.00356162
0.00356162
0.00360504
0.00356162
0.00356162
0.0036081
0.00355934
0.00360505
0.00356162
0.00356161
0.00355934
0.00355277
0.00350826
0.00354978
0.00354978
0.0035117
0.0035117
0.00355277
0.00350826
0.00354978
0.00354978
0.0035117
0.0035117
0.00354978
0.0035117
0.0035117
0.00355277
0.00350826
0.00354978
0.0035117
0.0035117
0.00350826
0.00350133
0.00345589
0.00349858
0.00349858
0.00345925
0.00345925
0.00350133
0.00345589
0.00349858
0.00349858
0.00345925
0.00345925
0.00349858
0.00345925
0.00345925
0.00350133
0.00345589
0.00349858
0.00345925
0.00345925
0.00345589
0.00344901
0.00340434
0.00344624
0.00344624
0.0034076
0.0034076
0.00344901
0.00340434
0.00344624
0.00344624
0.0034076
0.0034076
0.00344623
0.0034076
0.0034076
0.00344901
0.00340434
0.00344623
0.0034076
0.0034076
0.00340434
0.00339763
0.00335413
0.00339488
0.00339488
0.00335726
0.00335726
0.00339763
0.00335413
0.00339488
0.00339488
0.00335726
0.00335726
0.00339488
0.00335726
0.00335726
0.00339763
0.00335413
0.00339488
0.00335726
0.00335726
0.00335413
0.00334763
0.00330537
0.00334491
0.00334491
0.00330839
0.00330839
0.00334763
0.00330537
0.00334491
0.00334491
0.0033084
0.00330838
0.0033449
0.00330839
0.00330839
0.00334763
0.00330537
0.0033449
0.00330839
0.00330839
0.00330538
0.00329906
0.00325795
0.00329639
0.00329638
0.00326085
0.00326087
0.00329907
0.00325794
0.00329637
0.0032964
0.00326086
0.00326086
0.00329638
0.00326086
0.00326085
0.00329907
0.00325794
0.00329638
0.00326088
0.00326085
0.00325794
0.00325182
0.00321164
0.00324918
0.00324915
0.00321448
0.00321446
0.00325181
0.00321165
0.00324918
0.00324915
0.00321446
0.00321448
0.00324916
0.00321447
0.00321447
0.00325181
0.00321165
0.00324918
0.00321447
0.00321447
0.00321164
0.00320566
0.00316627
0.00320302
0.00320305
0.00316906
0.00316904
0.00320566
0.00316626
0.00320305
0.00320304
0.00316906
0.00316904
0.00320304
0.00316903
0.00316904
0.00320566
0.00316627
0.00320303
0.00316902
0.00316903
0.00316628
0.00316039
0.00312165
0.0031578
0.0031578
0.00312434
0.00312437
0.0031604
0.00312165
0.00315779
0.00315779
0.00312436
0.00312437
0.00315782
0.0031244
0.00312437
0.0031604
0.00312164
0.00315783
0.00312439
0.00312437
0.00312164
0.00311587
0.00307763
0.00311332
0.0031133
0.00308031
0.00308033
0.00311586
0.00307764
0.0031133
0.00311331
0.00308031
0.0030803
0.00311328
0.00308031
0.00308032
0.00311586
0.00307762
0.00311329
0.00308031
0.00308032
0.00307763
0.00307193
0.00303414
0.00306938
0.0030694
0.00303678
0.0030368
0.00307192
0.00303414
0.00306939
0.0030694
0.00303678
0.00303682
0.0030694
0.00303679
0.00303679
0.00307193
0.00303413
0.00306937
0.00303679
0.00303677
0.00303413
0.00302853
0.00299116
0.00302601
0.00302599
0.00299376
0.0029938
0.00302851
0.00299112
0.003026
0.00302598
0.00299376
0.00299378
0.00302598
0.00299379
0.00299373
0.0030285
0.00299111
0.00302599
0.00299377
0.00299373
0.00299115
0.0029856
0.00294861
0.00298309
0.00298306
0.00295116
0.00295115
0.00298556
0.00294861
0.0029831
0.00298304
0.00295117
0.00295115
0.00298309
0.00295118
0.00295119
0.00298555
0.00294859
0.0029831
0.00295114
0.00295117
0.0029486
0.00294309
0.00290649
0.00294058
0.0029406
0.00290896
0.00290901
0.0029431
0.00290648
0.00294058
0.00294061
0.00290897
0.00290904
0.00294058
0.00290903
0.00290901
0.0029431
0.00290648
0.00294057
0.00290902
0.00290899
0.00290643
0.00290105
0.0028648
0.00289856
0.00289854
0.00286722
0.00286726
0.00290102
0.00286481
0.00289855
0.00289854
0.00286723
0.00286731
0.00289847
0.00286727
0.00286727
0.00290102
0.00286479
0.00289848
0.00286729
0.00286727
0.00286474
0.0028594
0.00282341
0.00285691
0.00285693
0.00282585
0.0028259
0.00285941
0.00282346
0.0028569
0.0028569
0.00282588
0.0028259
0.00285684
0.00282589
0.0028259
0.00285938
0.00282341
0.00285685
0.0028259
0.0028259
0.0028234
0.00281807
0.00278248
0.00281558
0.00281562
0.00278495
0.00278496
0.0028181
0.00278241
0.00281561
0.00281563
0.00278496
0.00278499
0.0028156
0.00278495
0.00278494
0.00281806
0.00278257
0.00281561
0.002785
0.00278494
0.00278258
0.00277713
0.00274202
0.00277467
0.00277464
0.0027442
0.00274422
0.00277707
0.00274193
0.00277469
0.00277473
0.00274423
0.00274413
0.00277471
0.00274425
0.00274408
0.00277722
0.00274168
0.00277473
0.00274411
0.00274407
0.00274177
0.0027368
0.00270104
0.00273421
0.00273411
0.00270349
0.00270351
0.00273666
0.00270127
0.00273417
0.00273397
0.0027035
0.00270367
0.00273403
0.00270351
0.0027036
0.00273642
0.00270142
0.00273403
0.00270366
0.00270357
0.0027012
0.00269571
0.00266035
0.00269329
0.00269349
0.00266277
0.00266292
0.00269603
0.00266047
0.00269328
0.00269346
0.00266281
0.00266276
0.00269327
0.00266298
0.00266268
0.00269607
0.00266024
0.00269326
0.00266278
0.00266267
0.00266021
0.00265506
0.0026204
0.00265268
0.0026526
0.00262267
0.00262246
0.00265503
0.00261998
0.0026527
0.00265261
0.00262267
0.00262264
0.00265271
0.00262245
0.00262294
0.00265496
0.00262025
0.0026527
0.00262264
0.00262293
0.00262076
0.00261522
0.00258069
0.0026128
0.0026126
0.00258299
0.00258326
0.0026149
0.00258121
0.0026128
0.00261275
0.00258298
0.002583
0.0026128
0.00258326
0.00258284
0.00261507
0.002581
0.00261281
0.00258298
0.00258285
0.00258047
0.00257551
0.00254109
0.00257307
0.00257327
0.0025434
0.00254323
0.00257594
0.0025407
0.00257309
0.00257327
0.00254341
0.00254334
0.00257303
0.00254322
0.00254359
0.00257585
0.0025408
0.00257302
0.00254334
0.00254358
0.00254138
0.00253593
0.00250214
0.0025335
0.00253334
0.00250413
0.0025042
0.00253564
0.0025021
0.0025335
0.00253324
0.00250412
0.00250405
0.00253356
0.00250416
0.00250394
0.00253558
0.00250181
0.00253356
0.00250404
0.00250394
0.00250169
0.00249707
0.00246227
0.0024945
0.00249447
0.00246477
0.00246475
0.00249693
0.00246234
0.0024945
0.00249441
0.0024648
0.00246518
0.00249424
0.00246474
0.00246501
0.00249673
0.00246293
0.00249424
0.00246518
0.00246502
0.00246267
0.00245728
0.00242482
0.00245503
0.00245516
0.00242677
0.00242715
0.00245747
0.00242554
0.00245504
0.00245543
0.00242673
0.00242658
0.00245527
0.00242715
0.00242669
0.00245784
0.0024244
0.00245527
0.00242658
0.00242665
0.00242463
0.00241997
0.00238535
0.00241735
0.0024175
0.00238782
0.00238746
0.00242039
0.00238485
0.00241732
0.00241691
0.00238782
0.00238757
0.00241716
0.00238746
0.00238781
0.00241924
0.00238516
0.00241711
0.00238757
0.0023878
0.00238547
0.0023802
0.00234736
0.00237796
0.00237771
0.00234944
0.00234958
0.00237974
0.0023478
0.00237797
0.00237801
0.00234947
0.00235016
0.0023781
0.0023496
0.0023498
0.00238026
0.00234887
0.00237811
0.00235018
0.00234982
0.00234803
0.00234244
0.002309
0.00234009
0.00234039
0.00231133
0.00231125
0.00234297
0.00230849
0.00234011
0.00234069
0.00231128
0.00231023
0.00234032
0.00231123
0.00231073
0.00234371
0.00230706
0.00234034
0.00231019
0.00231067
0.00230801
0.00230388
0.00227069
0.00230159
0.00230112
0.00227292
0.00227277
0.00230316
0.00227088
0.00230155
0.00230049
0.00227298
0.00227366
0.00230104
0.00227287
0.00227332
0.00230225
0.00227196
0.002301
0.00227368
0.00227338
0.00227146
0.00226563
0.00223309
0.00226346
0.00226376
0.00223525
0.00223569
0.00226608
0.00223338
0.00226354
0.00226464
0.00223525
0.00223545
0.00226413
0.00223571
0.0022354
0.00226733
0.00223273
0.00226417
0.00223547
0.00223539
0.00223307
0.00222825
0.00219618
0.00222594
0.002226
0.00219824
0.00219772
0.00222824
0.00219566
0.00222593
0.00222556
0.0021982
0.00219745
0.00222591
0.00219769
0.00219775
0.00222758
0.00219537
0.00222588
0.00219739
0.00219772
0.00219558
0.00219102
0.00215725
0.00218864
0.00218844
0.00215971
0.00216007
0.00219071
0.00215775
0.00218861
0.00218825
0.00215971
0.00216007
0.00218831
0.00216007
0.00215995
0.00219052
0.00215778
0.00218827
0.00216007
0.00215994
0.00215772
0.00215228
0.00212038
0.00215021
0.00215049
0.00212236
0.00212216
0.00215266
0.00211993
0.00215022
0.00215049
0.00212237
0.00212222
0.0021505
0.00212216
0.00212213
0.00215268
0.00212005
0.0021505
0.00212221
0.00212214
0.00211987
0.00211549
0.00208282
0.00211319
0.00211285
0.00208514
0.00208505
0.002115
0.00208289
0.00211321
0.00211295
0.00208516
0.00208523
0.00211278
0.00208504
0.00208521
0.00211514
0.0020831
0.00211279
0.00208522
0.00208522
0.00208323
0.0020778
0.00204569
0.0020757
0.00207579
0.00204782
0.002048
0.00207799
0.00204586
0.00207572
0.00207592
0.00204781
0.00204794
0.00207608
0.00204803
0.00204806
0.00207815
0.00204573
0.00207609
0.00204796
0.00204806
0.00204577
0.00204082
0.00200879
0.00203863
0.00203873
0.00201098
0.00201088
0.00204092
0.00200868
0.00203863
0.00203864
0.00201098
0.00201087
0.00203867
0.00201087
0.00201076
0.0020408
0.0020087
0.00203867
0.00201085
0.00201075
0.00200856
0.00200381
0.00197162
0.00200166
0.00200162
0.00197381
0.00197392
0.00200376
0.00197176
0.00200166
0.00200163
0.00197381
0.0019739
0.00200151
0.00197392
0.00197392
0.00200378
0.00197172
0.00200151
0.0019739
0.00197392
0.00197179
0.00196675
0.00193518
0.00196461
0.00196471
0.00193724
0.00193715
0.00196686
0.001935
0.00196461
0.00196468
0.00193724
0.00193715
0.00196474
0.00193715
0.00193717
0.00196682
0.001935
0.00196473
0.00193715
0.00193717
0.00193501
0.0019303
0.00189831
0.00192812
0.001928
0.00190053
0.00190054
0.00193013
0.00189838
0.00192812
0.001928
0.00190053
0.00190054
0.00192799
0.00190053
0.0019005
0.00193013
0.00189839
0.00192798
0.00190053
0.0019005
0.00189836
0.00189341
0.00186181
0.00189133
0.00189138
0.00186392
0.00186394
0.0018935
0.00186181
0.00189133
0.00189139
0.00186392
0.00186397
0.00189138
0.00186395
0.001864
0.00189351
0.00186184
0.00189138
0.00186398
0.001864
0.00186186
0.00185696
0.00182536
0.00185483
0.00185483
0.00182752
0.00182753
0.00185695
0.0018254
0.00185484
0.00185485
0.00182752
0.00182751
0.00185487
0.00182753
0.0018275
0.00185697
0.00182536
0.00185487
0.0018275
0.0018275
0.00182536
0.00182049
0.00178904
0.0018184
0.00181842
0.00179114
0.00179115
0.00182053
0.00178902
0.00181839
0.0018184
0.00179114
0.00179116
0.0018184
0.00179115
0.00179117
0.0018205
0.00178905
0.0018184
0.00179116
0.00179117
0.00178905
0.00178421
0.00175283
0.00178211
0.00178208
0.00175496
0.00175493
0.00178417
0.00175281
0.00178211
0.0017821
0.00175496
0.00175493
0.0017821
0.00175492
0.0017549
0.0017842
0.00175281
0.0017821
0.00175493
0.0017549
0.00175278
0.00174798
0.00171663
0.00174589
0.00174588
0.00171874
0.00171877
0.00174797
0.00171666
0.00174589
0.00174589
0.00171874
0.00171875
0.00174585
0.00171877
0.00171877
0.00174797
0.00171663
0.00174585
0.00171875
0.00171877
0.00171667
0.0017118
0.00168058
0.00170972
0.00170974
0.00168268
0.00168269
0.00171182
0.00168059
0.00170972
0.00170972
0.00168268
0.00168269
0.00170975
0.00168269
0.00168269
0.00171179
0.00168061
0.00170975
0.00168269
0.00168268
0.00168058
0.00167574
0.00164461
0.00167367
0.00167368
0.00164668
0.00164666
0.00167576
0.00164456
0.00167367
0.0016737
0.00164668
0.00164667
0.00167368
0.00164667
0.0016467
0.00167578
0.00164455
0.00167368
0.00164667
0.0016467
0.00164459
0.00163979
0.00160864
0.00163772
0.00163767
0.00161077
0.00161077
0.00163974
0.00160868
0.00163772
0.00163767
0.00161077
0.00161079
0.00163769
0.00161076
0.00161072
0.00163973
0.00160872
0.00163769
0.00161078
0.00161072
0.00160862
0.00160381
0.00157278
0.00160176
0.00160179
0.00157485
0.00157489
0.00160385
0.0015728
0.00160177
0.00160181
0.00157485
0.00157484
0.00160176
0.00157489
0.0015749
0.00160388
0.00157274
0.00160176
0.00157485
0.0015749
0.00157282
0.00156797
0.001537
0.00156592
0.00156594
0.00153909
0.00153907
0.00156799
0.00153697
0.00156591
0.00156589
0.00153909
0.00153912
0.00156595
0.00153907
0.00153911
0.00156795
0.00153703
0.00156595
0.00153912
0.00153911
0.00153701
0.00153219
0.00150131
0.00153014
0.00153011
0.00150337
0.00150333
0.00153215
0.00150128
0.00153015
0.00153017
0.00150337
0.00150331
0.00153014
0.00150332
0.00150328
0.00153221
0.00150123
0.00153014
0.00150331
0.00150328
0.00150121
0.00149649
0.00146551
0.00149444
0.00149444
0.00146762
0.00146767
0.00149649
0.00146557
0.00149444
0.00149439
0.00146761
0.00146768
0.00149437
0.00146768
0.00146771
0.00149644
0.0014656
0.00149437
0.00146768
0.00146771
0.00146564
0.00146073
0.00143001
0.0014587
0.00145873
0.00143205
0.00143199
0.00146077
0.00142993
0.0014587
0.00145876
0.00143205
0.00143204
0.00145879
0.00143199
0.00143199
0.0014608
0.00142998
0.00145879
0.00143204
0.00143199
0.0014299
0.0014252
0.00139427
0.00142315
0.0014231
0.00139636
0.00139641
0.00142514
0.00139433
0.00142316
0.00142313
0.00139635
0.00139633
0.00142307
0.00139641
0.0013964
0.00142517
0.00139422
0.00142308
0.00139633
0.00139639
0.00139434
0.00138948
0.00135888
0.00138746
0.0013875
0.00136089
0.00136084
0.00138952
0.00135878
0.00138744
0.00138741
0.00136089
0.00136087
0.00138752
0.00136084
0.00136084
0.00138943
0.00135887
0.00138751
0.00136087
0.00136084
0.00135879
0.00135409
0.00132321
0.00135205
0.00135199
0.00132534
0.00132541
0.00135402
0.00132331
0.00135205
0.00135206
0.00132534
0.00132534
0.00135197
0.00132541
0.00132538
0.00135411
0.00132318
0.00135197
0.00132534
0.00132539
0.00132331
0.00131842
0.00128778
0.00131642
0.00131647
0.0012898
0.00128977
0.00131847
0.00128774
0.00131641
0.0013164
0.00128981
0.00128988
0.00131649
0.00128977
0.00128977
0.00131838
0.00128792
0.00131649
0.00128988
0.00128977
0.00128772
0.00128297
0.00125229
0.00128095
0.00128094
0.00125435
0.00125437
0.00128298
0.00125224
0.00128096
0.00128109
0.00125435
0.00125424
0.00128094
0.00125438
0.00125448
0.00128314
0.00125201
0.00128094
0.00125425
0.00125448
0.00125236
0.00124756
0.00121697
0.00124553
0.00124542
0.00121907
0.00121892
0.0012474
0.00121697
0.00124552
0.00124523
0.00121906
0.00121899
0.0012455
0.00121888
0.00121863
0.0012472
0.00121713
0.00124548
0.00121895
0.00121863
0.00121664
0.001212
0.00118109
0.00121005
0.00121022
0.00118318
0.00118357
0.00121225
0.00118132
0.00121006
0.00121033
0.00118318
0.0011835
0.00120998
0.00118365
0.00118397
0.0012124
0.00118122
0.00120998
0.00118357
0.00118396
0.00118188
0.00117658
0.0011469
0.00117456
0.00117441
0.00114882
0.00114793
0.00117638
0.00114604
0.00117455
0.00117437
0.00114884
0.00114803
0.00117493
0.00114783
0.00114767
0.00117636
0.00114605
0.00117492
0.00114791
0.00114768
0.00114563
0.00114169
0.00110927
0.00113969
0.00113944
0.0011116
0.00111296
0.00114145
0.0011107
0.0011397
0.00113932
0.00111156
0.00111275
0.00113896
0.00111307
0.00111297
0.0011413
0.00111073
0.00113898
0.00111285
0.00111293
0.00111092
0.00110493
0.00107718
0.00110297
0.00110357
0.00107857
0.00107684
0.00110557
0.00107495
0.00110296
0.00110393
0.00107866
0.00107777
0.00110401
0.00107674
0.00107691
0.00110602
0.00107553
0.00110399
0.00107768
0.00107702
0.00107491
0.00107216
0.00103795
0.00106987
0.00106866
0.00104084
0.00104283
0.00107059
0.00104071
0.00106991
0.00106854
0.00104056
0.0010406
0.00106812
0.00104288
0.00104237
0.00107035
0.00103856
0.0010682
0.00104067
0.00104213
0.0010404
0.00103315
0.00100548
0.00103159
0.00103323
0.00100685
0.001005
0.00103533
0.00100296
0.00103138
0.00103222
0.00100717
0.00100854
0.00103378
0.00100512
0.00100671
0.00103432
0.00100724
0.00103357
0.00100859
0.00100703
0.00100455
0.00100096
0.000968959
0.000998579
0.00099679
0.000971575
0.000972675
0.000998727
0.000971081
0.000998977
0.000999674
0.000971318
0.000968956
0.000997271
0.000972355
0.000969677
0.00100186
0.000965847
0.000997709
0.000968693
0.000969459
0.000967595
0.000963921
0.000933592
0.000962229
0.000963939
0.000935401
0.000934954
0.000966111
0.000932552
0.000961747
0.000959759
0.000935425
0.000936949
0.000961442
0.00093526
0.00093731
0.000961349
0.000935932
0.000960958
0.000937161
0.000937226
0.000935881
0.000929026
0.000898859
0.000926862
0.000925741
0.000900837
0.000900377
0.000927634
0.000898711
0.000927161
0.00092923
0.000901166
0.000901036
0.000928904
0.00090042
0.000900546
0.000931691
0.000897957
0.000929127
0.000901152
0.000900947
0.000897954
0.000893917
0.000862518
0.000891894
0.000892028
0.000864776
0.000865568
0.000894091
0.000863346
0.00089195
0.0008907
0.000864396
0.000863494
0.000890854
0.000865369
0.000863831
0.000892591
0.000861889
0.000890944
0.000863297
0.000863427
0.000861919
0.000857712
0.000827667
0.000855836
0.000856332
0.000829526
0.000829165
0.000858279
0.000827103
0.000855546
0.000855449
0.000829705
0.000830575
0.000855439
0.000829259
0.000830147
0.000857546
0.000828697
0.000855167
0.000830664
0.000830304
0.000828429
0.000822959
0.000792424
0.000820831
0.000820431
0.000794499
0.00079447
0.00082243
0.00079253
0.000821041
0.000821671
0.000794515
0.00079416
0.000821498
0.000794508
0.000794668
0.000823775
0.000791923
0.000821717
0.000794179
0.000794688
0.000792453
0.000787574
0.000756681
0.000785615
0.000785685
0.000758787
0.000758801
0.000787738
0.000756652
0.000785551
0.000785133
0.000758739
0.000758715
0.00078556
0.000758742
0.000758368
0.00078706
0.000756739
0.000785507
0.000758652
0.000758319
0.000756213
0.000751828
0.000721021
0.000749827
0.000749799
0.000723051
0.000723094
0.000751772
0.000721093
0.000749819
0.000749938
0.000723093
0.000723304
0.000749466
0.000723102
0.000723217
0.000751952
0.000721219
0.000749459
0.000723311
0.000723258
0.000721318
0.00071621
0.000685667
0.000714183
0.000714267
0.000687683
0.000687738
0.000716304
0.000685707
0.000714209
0.000714333
0.000687652
0.000687527
0.000714492
0.000687781
0.000687881
0.000716346
0.000685474
0.000714514
0.000687565
0.000687845
0.000685739
0.00068086
0.000650112
0.000678844
0.000678841
0.000652178
0.000652081
0.00068086
0.000650007
0.000678811
0.000678654
0.000652176
0.0006521
0.000678849
0.000652034
0.000651873
0.000680663
0.000650071
0.000678812
0.000652053
0.000651871
0.000649805
0.000645264
0.000614494
0.000643249
0.000643177
0.00061653
0.000616552
0.000645173
0.000614536
0.000643261
0.00064324
0.000616545
0.000616624
0.000643006
0.000616557
0.000616591
0.000645253
0.00061459
0.000643016
0.000616628
0.000616605
0.000614614
0.000609668
0.000578937
0.000607648
0.000607687
0.000580988
0.000581025
0.000609719
0.000578979
0.000607657
0.000607731
0.000580983
0.000580995
0.000607767
0.000581047
0.0005811
0.000609757
0.000578939
0.000607777
0.000581017
0.000581095
0.000579027
0.000574102
0.000543326
0.000572088
0.000572111
0.000545366
0.000545335
0.000574134
0.000543276
0.000572082
0.000572077
0.000545365
0.000545339
0.000572157
0.000545327
0.000545303
0.000574095
0.000543291
0.000572151
0.000545331
0.000545302
0.000543231
0.000538474
0.000507593
0.000536447
0.000536409
0.000509648
0.000509665
0.000538424
0.000507633
0.000536448
0.000536426
0.000509648
0.000509654
0.000536362
0.000509658
0.000509646
0.000538445
0.000507605
0.000536362
0.000509648
0.000509646
0.000507628
0.000502745
0.000471932
0.000500721
0.000500756
0.000473968
0.000473943
0.000502789
0.000471875
0.000500719
0.000500726
0.000473967
0.000473961
0.00050076
0.000473951
0.000473973
0.000502755
0.000471921
0.000500759
0.000473968
0.000473972
0.000471892
0.000467067
0.000436069
0.00046503
0.00046498
0.000438135
0.000438166
0.000467006
0.000436144
0.000465034
0.000465031
0.000438138
0.000438162
0.000464987
0.000438161
0.000438151
0.000467063
0.000436105
0.000464991
0.000438158
0.000438155
0.000436132
0.000431218
0.000400495
0.000429198
0.000429263
0.000402503
0.000402472
0.000431304
0.000400399
0.000429196
0.000429214
0.000402495
0.000402457
0.000429263
0.000402478
0.000402483
0.000431245
0.000400429
0.000429262
0.000402462
0.000402475
0.000400398
0.000395632
0.000364412
0.000393577
0.000393488
0.000366516
0.000366544
0.000395513
0.000364492
0.000393576
0.000393533
0.000366523
0.000366556
0.000393478
0.000366536
0.000366528
0.000395571
0.000364471
0.000393476
0.000366548
0.000366535
0.00036449
0.000359507
0.000328742
0.000357489
0.000357582
0.000330726
0.000330722
0.000359621
0.000328684
0.000357489
0.000357541
0.000330719
0.000330716
0.000357594
0.000330734
0.000330751
0.000359576
0.00032872
0.000357596
0.000330731
0.000330746
0.000328703
0.000323921
0.000292833
0.000321866
0.000321788
0.000294961
0.000294937
0.000323831
0.000292866
0.000321866
0.000321834
0.000294964
0.00029492
0.000321789
0.00029492
0.000294883
0.000323883
0.000292796
0.000321788
0.0002949
0.000294885
0.000292819
0.000287878
0.000256704
0.000285849
0.000285905
0.000258709
0.000258752
0.000287945
0.000256694
0.000285845
0.000285835
0.00025871
0.000258785
0.00028588
0.00025877
0.000258825
0.000287867
0.000256798
0.000285877
0.000258805
0.000258825
0.000256774
0.000251888
0.000221017
0.000249831
0.000249796
0.000223085
0.000223049
0.000251841
0.000221008
0.00024984
0.000249897
0.000223088
0.000223026
0.000249856
0.000223036
0.000222979
0.000251959
0.000220917
0.000249863
0.000223011
0.000222979
0.000220916
0.000216084
0.000184876
0.000214041
0.000214051
0.000186919
0.000186932
0.000216104
0.000184877
0.000214031
0.000213961
0.000186912
0.00018693
0.000213979
0.000186939
0.000186982
0.000215993
0.000184931
0.00021397
0.00018694
0.000186979
0.000184951
0.000179976
0.000148648
0.000177929
0.000177919
0.00015076
0.000150769
0.000179964
0.000148669
0.000177935
0.000177988
0.000150769
0.000150795
0.000177991
0.000150772
0.000150761
0.000180044
0.000148665
0.000178
0.000150795
0.000150764
0.000148627
0.000143735
0.000113074
0.000141714
0.000141742
0.000115018
0.000115
0.000143768
0.000113038
0.000141712
0.000141706
0.000115
0.000114949
0.000141688
0.000114993
0.000114972
0.000143731
0.000112999
0.000141676
0.000114937
0.000114957
0.000113024
0.000108155
7.63582e-05
0.000106098
0.00010605
7.85234e-05
7.85337e-05
0.000108104
7.63888e-05
0.000106085
0.000106052
7.85369e-05
7.86054e-05
0.000106059
7.85387e-05
7.85859e-05
0.000108096
7.64691e-05
0.000106061
7.86212e-05
7.86119e-05
7.64545e-05
7.13618e-05
4.05533e-05
6.93812e-05
6.9424e-05
4.25456e-05
4.25571e-05
7.14134e-05
4.05565e-05
6.93859e-05
6.9461e-05
4.25287e-05
4.24645e-05
6.94631e-05
4.25596e-05
4.25094e-05
7.14718e-05
4.04517e-05
6.94754e-05
4.24553e-05
4.24783e-05
4.0485e-05
3.55629e-05
8.49463e-06
3.37718e-05
3.37442e-05
1.14632e-05
1.14153e-05
3.55307e-05
8.43745e-06
3.37575e-05
3.36746e-05
1.14699e-05
1.14726e-05
3.3676e-05
1.13955e-05
1.13904e-05
3.54449e-05
8.52559e-06
3.36585e-05
1.14561e-05
1.14064e-05
8.44033e-06
5.42401e-06
7.0812e-06
7.03894e-06
5.40122e-06
7.0834e-06
7.09178e-06
6.14629e-06
6.18713e-06
6.16679e-06
7.04144e-06
5.48209e-06
7.04825e-06
0.0036265
0.00363626
0.00363106
0.00363106
0.00365344
0.00364022
0.00366883
0.00363427
0.00365344
0.00364023
0.00363427
0.00366883
0.0036448
0.00367257
0.00367257
0.00358186
0.003601
0.00361019
0.00357394
0.00357468
0.00357744
0.00358184
0.00360098
0.00361018
0.00357392
0.00360471
0.00360472
0.00360472
0.00356131
0.00356131
0.00356131
0.00356131
0.00357936
0.00360518
0.00360512
0.00358818
0.00360821
0.00357826
0.00358907
0.00357478
0.00357744
0.00357936
0.00360512
0.00360519
0.00358819
0.0036082
0.00358907
0.00357826
0.00361106
0.00361104
0.00358259
0.0035779
0.00357789
0.00353523
0.0035545
0.00355587
0.00353376
0.00355341
0.00353332
0.00353522
0.0035545
0.00355586
0.00353376
0.00354936
0.00354936
0.00354936
0.00351177
0.00351177
0.00351177
0.00351177
0.00353381
0.00355458
0.00354936
0.00353749
0.00355337
0.00353435
0.00353722
0.00355341
0.00353331
0.00353381
0.00354936
0.00355458
0.00353749
0.00355337
0.00353722
0.00353435
0.0035556
0.0035556
0.00353404
0.00353468
0.00353469
0.00348296
0.00350176
0.00350284
0.00348194
0.0035014
0.00348165
0.00348296
0.00350176
0.00350284
0.00348194
0.00349861
0.00349861
0.00349861
0.00345923
0.00345923
0.00345923
0.00345923
0.00348206
0.00350216
0.00349848
0.00348544
0.0035016
0.00348242
0.00348535
0.0035014
0.00348165
0.00348206
0.00349848
0.00350217
0.00348544
0.0035016
0.00348535
0.00348242
0.00350241
0.00350241
0.00348205
0.00348249
0.00348249
0.00343044
0.00344909
0.00344995
0.00342967
0.00344889
0.00342949
0.00343044
0.00344909
0.00344995
0.00342967
0.00344622
0.00344622
0.00344622
0.00340759
0.00340759
0.00340759
0.00340759
0.00342993
0.0034495
0.00344619
0.00343329
0.00344921
0.00343011
0.00343325
0.00344889
0.00342949
0.00342993
0.00344619
0.0034495
0.00343329
0.00344921
0.00343325
0.00343011
0.00344954
0.00344954
0.00342997
0.00343005
0.00343005
0.00337924
0.0033976
0.00339823
0.00337869
0.00339745
0.00337855
0.00337924
0.0033976
0.00339823
0.00337869
0.00339487
0.00339487
0.00339487
0.00335725
0.00335725
0.00335725
0.00335725
0.00337897
0.00339795
0.00339485
0.00338225
0.00339777
0.00337908
0.00338222
0.00339745
0.00337855
0.00337897
0.00339485
0.00339795
0.00338225
0.00339777
0.00338222
0.00337908
0.00339793
0.00339793
0.00337905
0.00337899
0.00337899
0.00332959
0.00334754
0.003348
0.0033292
0.00334744
0.00332909
0.0033296
0.00334754
0.003348
0.0033292
0.0033449
0.0033449
0.0033449
0.00330838
0.00330837
0.00330837
0.00330838
0.00332948
0.00334785
0.00334488
0.00333264
0.00334773
0.00332954
0.00333262
0.00334743
0.00332909
0.00332948