/*--------------------------------*- C++ -*----------------------------------*\
| =========                 |                                                 |
| \\      /  F ield         | OpenFOAM: The Open Source CFD Toolbox           |
|  \\    /   O peration     | Version:  v2012                                 |
|   \\  /    A nd           | Website:  www.openfoam.com                      |
|    \\/     M anipulation  |                                                 |
\*---------------------------------------------------------------------------*/
FoamFile
{
    version     2.0;
    format      ascii;
    class       volScalarField;
    location    "0.005";
    object      p;
}
// * * * * * * * * * * * * * * * * * * * * * * * * * * * * * * * * * * * * * //

dimensions      [0 2 -2 0 0 0 0];


internalField   nonuniform List<scalar> 
247104
(
0.000301504
0.000300259
0.000300506
0.000300871
0.000300896
0.000300844
0.000300461
0.00030024
0.000300249
0.000300137
0.000300094
0.00030012
0.000300127
0.000300118
0.000300094
0.000300151
0.000300494
0.00030009
0.000299821
0.000299693
0.000299659
0.000299703
0.000299846
0.000300138
0.000300552
0.000300859
0.000300115
0.000299691
0.000299485
0.000299429
0.000299502
0.000299731
0.000300191
0.000300984
0.000301493
0.000300887
0.000300122
0.000299656
0.000299428
0.000299366
0.000299446
0.0002997
0.000300203
0.000300998
0.000300837
0.000300113
0.0002997
0.0002995
0.000299446
0.000299516
0.000299738
0.000300184
0.000300952
0.000300454
0.00030009
0.000299843
0.000299729
0.000299699
0.000299738
0.000299866
0.000300131
0.000300497
0.000300235
0.000300148
0.000300135
0.000300189
0.000300201
0.000300184
0.00030013
0.000300156
0.00030055
0.000300981
0.000300996
0.000300951
0.000300497
0.000290763
0.000291277
0.000293479
0.000292549
0.000292252
0.000292222
0.000292355
0.000292982
0.00029355
0.000293479
0.000293014
0.000292356
0.000292339
0.000292339
0.000292356
0.00029289
0.000293076
0.000292549
0.000292356
0.00029243
0.000292454
0.000292454
0.00029243
0.000292357
0.000292671
0.000292391
0.000290767
0.000292253
0.00029234
0.000292454
0.000292498
0.000292498
0.000292454
0.00029234
0.000292428
0.000291514
0.000291282
0.000292223
0.00029234
0.000292454
0.000292499
0.000292499
0.000292454
0.00029234
0.000292392
0.000291896
0.000292357
0.000292357
0.000292431
0.000292454
0.000292454
0.000292431
0.000292357
0.000292518
0.000291554
0.000292983
0.000292891
0.000292357
0.000292341
0.000292341
0.000292357
0.0002928
0.000292919
0.000292786
0.000293555
0.000293078
0.000292673
0.00029243
0.000292393
0.000292518
0.000292919
0.000293452
0.000292394
0.000291517
0.000291898
0.000291556
0.000292786
0.000290009
0.000289977
0.000290022
0.000289691
0.000289658
0.000289655
0.000289669
0.000289948
0.000290022
0.00029002
0.000289646
0.000289107
0.000289109
0.000289109
0.000289107
0.000289559
0.000289709
0.00028969
0.000289107
0.000289117
0.000289121
0.000289121
0.000289117
0.000289107
0.000289599
0.000289973
0.000290009
0.000289658
0.000289108
0.000289121
0.000289127
0.000289128
0.000289121
0.000289109
0.00028956
0.000289914
0.000289976
0.000289654
0.000289109
0.000289121
0.000289128
0.000289128
0.000289121
0.000289109
0.000289556
0.000289712
0.00028967
0.000289107
0.000289117
0.000289121
0.000289121
0.000289117
0.000289107
0.000289572
0.000289933
0.000289948
0.000289559
0.000289107
0.000289109
0.000289109
0.000289107
0.00028947
0.00028966
0.000290005
0.000290023
0.000289709
0.000289599
0.00028956
0.000289556
0.000289572
0.000289659
0.000289914
0.000289973
0.000289914
0.000289712
0.000289933
0.000290004
0.000286964
0.000286937
0.000286926
0.000286604
0.00028658
0.00028658
0.000286588
0.000286864
0.000286927
0.000286926
0.00028654
0.00028599
0.00028599
0.00028599
0.00028599
0.00028645
0.000286607
0.000286604
0.000285989
0.00028599
0.000285991
0.000285991
0.00028599
0.000285989
0.000286502
0.000286898
0.000286964
0.00028658
0.00028599
0.000285991
0.000285991
0.000285991
0.000285991
0.00028599
0.000286471
0.000286855
0.000286937
0.00028658
0.00028599
0.000285991
0.000285991
0.000285991
0.000285991
0.00028599
0.000286468
0.000286648
0.000286588
0.00028599
0.00028599
0.000285991
0.000285991
0.00028599
0.00028599
0.00028648
0.000286872
0.000286863
0.00028645
0.00028599
0.00028599
0.00028599
0.00028599
0.000286357
0.000286558
0.000286925
0.000286926
0.000286607
0.000286502
0.000286471
0.000286468
0.00028648
0.000286558
0.000286812
0.000286899
0.000286855
0.000286648
0.000286872
0.000286925
0.000283859
0.000283831
0.000283819
0.000283496
0.000283473
0.000283472
0.00028348
0.000283756
0.000283819
0.000283819
0.000283432
0.000282879
0.000282879
0.000282879
0.000282879
0.000283341
0.000283498
0.000283496
0.000282879
0.000282879
0.000282879
0.000282879
0.000282879
0.000282879
0.000283394
0.000283792
0.000283859
0.000283473
0.000282879
0.000282879
0.000282879
0.000282879
0.000282879
0.000282879
0.000283362
0.000283749
0.000283831
0.000283472
0.000282879
0.000282879
0.000282879
0.000282879
0.000282879
0.000282879
0.00028336
0.000283541
0.00028348
0.000282879
0.000282879
0.000282879
0.000282879
0.000282879
0.000282879
0.000283371
0.000283765
0.000283756
0.000283341
0.000282879
0.000282879
0.000282879
0.000282879
0.000283248
0.00028345
0.000283818
0.000283819
0.000283498
0.000283394
0.000283362
0.00028336
0.000283371
0.00028345
0.000283704
0.000283792
0.000283749
0.000283541
0.000283765
0.000283818
0.000280749
0.000280722
0.00028071
0.000280387
0.000280363
0.000280363
0.00028037
0.000280646
0.000280709
0.00028071
0.000280322
0.00027977
0.00027977
0.00027977
0.00027977
0.000280232
0.000280389
0.000280387
0.00027977
0.00027977
0.00027977
0.00027977
0.00027977
0.00027977
0.000280284
0.000280683
0.000280749
0.000280363
0.00027977
0.00027977
0.00027977
0.00027977
0.00027977
0.00027977
0.000280253
0.000280639
0.000280722
0.000280363
0.00027977
0.00027977
0.00027977
0.00027977
0.00027977
0.00027977
0.00028025
0.000280432
0.00028037
0.00027977
0.00027977
0.00027977
0.00027977
0.00027977
0.00027977
0.000280262
0.000280656
0.000280646
0.000280232
0.00027977
0.00027977
0.00027977
0.00027977
0.000280138
0.00028034
0.000280708
0.000280709
0.000280389
0.000280284
0.000280253
0.00028025
0.000280262
0.00028034
0.000280595
0.000280683
0.000280639
0.000280432
0.000280656
0.000280708
0.00027764
0.000277612
0.0002776
0.000277277
0.000277254
0.000277253
0.000277261
0.000277537
0.0002776
0.0002776
0.000277213
0.00027666
0.00027666
0.00027666
0.00027666
0.000277122
0.00027728
0.000277277
0.00027666
0.00027666
0.00027666
0.00027666
0.00027666
0.00027666
0.000277175
0.000277573
0.00027764
0.000277254
0.00027666
0.00027666
0.00027666
0.00027666
0.00027666
0.00027666
0.000277143
0.00027753
0.000277612
0.000277253
0.00027666
0.00027666
0.00027666
0.00027666
0.00027666
0.00027666
0.000277141
0.000277322
0.000277261
0.00027666
0.00027666
0.00027666
0.00027666
0.00027666
0.00027666
0.000277152
0.000277546
0.000277537
0.000277122
0.00027666
0.00027666
0.00027666
0.00027666
0.000277029
0.000277231
0.000277599
0.0002776
0.000277279
0.000277175
0.000277143
0.000277141
0.000277152
0.000277231
0.000277485
0.000277573
0.00027753
0.000277322
0.000277546
0.000277599
0.00027453
0.000274503
0.000274491
0.000274168
0.000274144
0.000274144
0.000274152
0.000274428
0.00027449
0.000274491
0.000274103
0.000273551
0.000273551
0.000273551
0.000273551
0.000274013
0.00027417
0.000274168
0.000273551
0.000273551
0.000273551
0.000273551
0.000273551
0.000273551
0.000274065
0.000274464
0.00027453
0.000274144
0.000273551
0.000273551
0.000273551
0.000273551
0.000273551
0.000273551
0.000274034
0.00027442
0.000274503
0.000274144
0.000273551
0.000273551
0.000273551
0.000273551
0.000273551
0.000273551
0.000274031
0.000274213
0.000274151
0.000273551
0.000273551
0.000273551
0.000273551
0.000273551
0.000273551
0.000274043
0.000274437
0.000274427
0.000274013
0.000273551
0.000273551
0.000273551
0.000273551
0.000273919
0.000274121
0.000274489
0.00027449
0.00027417
0.000274065
0.000274034
0.000274031
0.000274043
0.000274121
0.000274376
0.000274464
0.00027442
0.000274213
0.000274437
0.000274489
0.000271421
0.000271394
0.000271381
0.000271058
0.000271035
0.000271035
0.000271042
0.000271318
0.000271381
0.000271381
0.000270994
0.000270441
0.000270441
0.000270441
0.000270441
0.000270903
0.000271061
0.000271058
0.000270441
0.000270441
0.000270441
0.000270441
0.000270441
0.000270441
0.000270956
0.000271354
0.000271421
0.000271035
0.000270441
0.000270441
0.000270441
0.000270441
0.000270441
0.000270441
0.000270924
0.000271311
0.000271393
0.000271034
0.000270441
0.000270441
0.000270441
0.000270441
0.000270441
0.000270441
0.000270922
0.000271103
0.000271042
0.000270441
0.000270441
0.000270441
0.000270441
0.000270441
0.000270441
0.000270933
0.000271327
0.000271318
0.000270903
0.000270441
0.000270441
0.000270441
0.000270441
0.000270809
0.000271012
0.00027138
0.000271381
0.00027106
0.000270956
0.000270924
0.000270922
0.000270933
0.000271012
0.000271266
0.000271354
0.000271311
0.000271103
0.000271327
0.00027138
0.000268311
0.000268284
0.000268272
0.000267949
0.000267925
0.000267925
0.000267932
0.000268208
0.000268271
0.000268272
0.000267884
0.000267331
0.000267331
0.000267331
0.000267331
0.000267794
0.000267951
0.000267949
0.000267331
0.000267331
0.000267331
0.000267331
0.000267331
0.000267331
0.000267846
0.000268245
0.000268311
0.000267925
0.000267331
0.000267331
0.000267331
0.000267331
0.000267331
0.000267331
0.000267815
0.000268201
0.000268284
0.000267925
0.000267331
0.000267331
0.000267331
0.000267331
0.000267331
0.000267331
0.000267812
0.000267993
0.000267932
0.000267331
0.000267331
0.000267331
0.000267331
0.000267331
0.000267331
0.000267823
0.000268217
0.000268208
0.000267794
0.000267331
0.000267331
0.000267331
0.000267331
0.0002677
0.000267902
0.00026827
0.000268271
0.000267951
0.000267846
0.000267814
0.000267812
0.000267823
0.000267902
0.000268157
0.000268245
0.000268201
0.000267993
0.000268217
0.00026827
0.000265201
0.000265174
0.000265161
0.000264838
0.000264815
0.000264815
0.000264822
0.000265098
0.000265161
0.000265161
0.000264774
0.000264221
0.000264221
0.000264221
0.000264221
0.000264684
0.000264841
0.000264838
0.000264221
0.000264221
0.000264221
0.000264221
0.000264221
0.000264221
0.000264736
0.000265135
0.000265201
0.000264815
0.000264221
0.000264221
0.000264221
0.000264221
0.000264221
0.000264221
0.000264705
0.000265091
0.000265174
0.000264815
0.000264221
0.000264221
0.000264221
0.000264221
0.000264221
0.000264221
0.000264702
0.000264884
0.000264822
0.000264221
0.000264221
0.000264221
0.000264221
0.000264221
0.000264221
0.000264713
0.000265108
0.000265098
0.000264684
0.000264221
0.000264221
0.000264221
0.000264221
0.00026459
0.000264792
0.00026516
0.000265161
0.000264841
0.000264736
0.000264705
0.000264702
0.000264713
0.000264792
0.000265047
0.000265135
0.000265091
0.000264884
0.000265108
0.00026516
0.000262091
0.000262064
0.000262052
0.000261729
0.000261705
0.000261705
0.000261712
0.000261988
0.000262051
0.000262052
0.000261664
0.000261111
0.000261111
0.000261112
0.000261112
0.000261574
0.000261731
0.000261729
0.000261112
0.000261112
0.000261112
0.000261112
0.000261112
0.000261112
0.000261626
0.000262025
0.000262091
0.000261705
0.000261112
0.000261112
0.000261112
0.000261112
0.000261112
0.000261112
0.000261595
0.000261981
0.000262064
0.000261705
0.000261112
0.000261112
0.000261112
0.000261112
0.000261112
0.000261112
0.000261592
0.000261774
0.000261712
0.000261112
0.000261112
0.000261112
0.000261112
0.000261112
0.000261112
0.000261604
0.000261998
0.000261988
0.000261574
0.000261112
0.000261112
0.000261112
0.000261112
0.00026148
0.000261682
0.00026205
0.000262051
0.000261731
0.000261626
0.000261595
0.000261592
0.000261604
0.000261682
0.000261937
0.000262025
0.000261981
0.000261774
0.000261998
0.00026205
0.000258981
0.000258954
0.000258942
0.000258619
0.000258595
0.000258595
0.000258603
0.000258879
0.000258942
0.000258942
0.000258554
0.000258002
0.000258002
0.000258002
0.000258002
0.000258464
0.000258621
0.000258619
0.000258002
0.000258002
0.000258002
0.000258002
0.000258002
0.000258002
0.000258517
0.000258915
0.000258981
0.000258595
0.000258002
0.000258002
0.000258002
0.000258002
0.000258002
0.000258002
0.000258485
0.000258872
0.000258954
0.000258595
0.000258002
0.000258002
0.000258002
0.000258002
0.000258002
0.000258002
0.000258483
0.000258664
0.000258603
0.000258002
0.000258002
0.000258002
0.000258002
0.000258002
0.000258002
0.000258494
0.000258888
0.000258879
0.000258464
0.000258002
0.000258002
0.000258002
0.000258002
0.00025837
0.000258572
0.00025894
0.000258942
0.000258621
0.000258517
0.000258485
0.000258483
0.000258494
0.000258572
0.000258827
0.000258915
0.000258871
0.000258664
0.000258888
0.00025894
0.000255872
0.000255844
0.000255832
0.000255509
0.000255486
0.000255485
0.000255493
0.000255769
0.000255832
0.000255832
0.000255445
0.000254892
0.000254892
0.000254892
0.000254892
0.000255354
0.000255511
0.000255509
0.000254892
0.000254892
0.000254892
0.000254892
0.000254892
0.000254892
0.000255407
0.000255805
0.000255872
0.000255486
0.000254892
0.000254892
0.000254892
0.000254892
0.000254892
0.000254892
0.000255375
0.000255762
0.000255844
0.000255485
0.000254892
0.000254892
0.000254892
0.000254892
0.000254892
0.000254892
0.000255373
0.000255554
0.000255493
0.000254892
0.000254892
0.000254892
0.000254892
0.000254892
0.000254892
0.000255384
0.000255778
0.000255769
0.000255354
0.000254892
0.000254892
0.000254892
0.000254892
0.00025526
0.000255463
0.000255831
0.000255832
0.000255511
0.000255407
0.000255375
0.000255373
0.000255384
0.000255463
0.000255717
0.000255805
0.000255762
0.000255554
0.000255778
0.000255831
0.000252762
0.000252735
0.000252722
0.0002524
0.000252376
0.000252376
0.000252383
0.00025266
0.000252722
0.000252722
0.000252335
0.000251782
0.000251782
0.000251782
0.000251783
0.000252245
0.000252402
0.000252399
0.000251782
0.000251782
0.000251782
0.000251782
0.000251782
0.000251782
0.000252297
0.000252696
0.000252762
0.000252376
0.000251782
0.000251782
0.000251782
0.000251782
0.000251782
0.000251782
0.000252266
0.000252652
0.000252734
0.000252375
0.000251782
0.000251782
0.000251782
0.000251782
0.000251782
0.000251782
0.000252263
0.000252444
0.000252383
0.000251782
0.000251782
0.000251782
0.000251782
0.000251782
0.000251782
0.000252274
0.000252668
0.000252659
0.000252244
0.000251782
0.000251782
0.000251782
0.000251782
0.000252151
0.000252353
0.000252721
0.000252722
0.000252402
0.000252297
0.000252265
0.000252263
0.000252274
0.000252353
0.000252608
0.000252695
0.000252652
0.000252444
0.000252668
0.000252721
0.000249652
0.000249625
0.000249613
0.00024929
0.000249266
0.000249266
0.000249274
0.00024955
0.000249613
0.000249613
0.000249225
0.000248673
0.000248673
0.000248673
0.000248673
0.000249135
0.000249292
0.00024929
0.000248672
0.000248672
0.000248672
0.000248673
0.000248673
0.000248673
0.000249187
0.000249586
0.000249652
0.000249266
0.000248672
0.000248672
0.000248672
0.000248672
0.000248672
0.000248672
0.000249156
0.000249542
0.000249625
0.000249266
0.000248672
0.000248672
0.000248672
0.000248672
0.000248672
0.000248672
0.000249153
0.000249335
0.000249273
0.000248672
0.000248672
0.000248672
0.000248672
0.000248672
0.000248672
0.000249164
0.000249559
0.000249549
0.000249135
0.000248672
0.000248672
0.000248672
0.000248672
0.000249041
0.000249243
0.000249611
0.000249612
0.000249292
0.000249187
0.000249155
0.000249153
0.000249164
0.000249243
0.000249498
0.000249585
0.000249542
0.000249334
0.000249558
0.000249611
0.000246543
0.000246515
0.000246504
0.00024618
0.000246157
0.000246156
0.000246164
0.00024644
0.000246503
0.000246503
0.000246116
0.000245563
0.000245563
0.000245563
0.000245563
0.000246025
0.000246182
0.00024618
0.000245563
0.000245563
0.000245563
0.000245563
0.000245563
0.000245563
0.000246077
0.000246476
0.000246542
0.000246156
0.000245563
0.000245563
0.000245563
0.000245563
0.000245563
0.000245563
0.000246046
0.000246432
0.000246515
0.000246156
0.000245562
0.000245562
0.000245562
0.000245562
0.000245562
0.000245563
0.000246043
0.000246225
0.000246163
0.000245562
0.000245562
0.000245562
0.000245562
0.000245562
0.000245562
0.000246055
0.000246449
0.000246439
0.000246025
0.000245562
0.000245562
0.000245562
0.000245562
0.000245931
0.000246133
0.000246501
0.000246502
0.000246182
0.000246077
0.000246046
0.000246043
0.000246054
0.000246133
0.000246388
0.000246476
0.000246432
0.000246224
0.000246448
0.000246501
0.000243433
0.000243405
0.000243393
0.00024307
0.000243046
0.000243046
0.000243054
0.00024333
0.000243393
0.000243393
0.000243005
0.000242453
0.000242453
0.000242453
0.000242453
0.000242915
0.000243072
0.00024307
0.000242453
0.000242453
0.000242453
0.000242453
0.000242453
0.000242453
0.000242967
0.000243366
0.000243432
0.000243046
0.000242453
0.000242453
0.000242453
0.000242453
0.000242453
0.000242453
0.000242936
0.000243322
0.000243405
0.000243046
0.000242452
0.000242452
0.000242452
0.000242452
0.000242452
0.000242453
0.000242933
0.000243115
0.000243053
0.000242452
0.000242452
0.000242452
0.000242452
0.000242452
0.000242452
0.000242945
0.000243339
0.000243329
0.000242915
0.000242452
0.000242452
0.000242452
0.000242452
0.000242821
0.000243023
0.000243391
0.000243392
0.000243072
0.000242967
0.000242935
0.000242933
0.000242944
0.000243023
0.000243278
0.000243366
0.000243322
0.000243114
0.000243338
0.000243391
0.000240323
0.000240295
0.000240283
0.00023996
0.000239936
0.000239936
0.000239944
0.00024022
0.000240283
0.000240283
0.000239895
0.000239343
0.000239343
0.000239343
0.000239343
0.000239805
0.000239962
0.00023996
0.000239343
0.000239343
0.000239343
0.000239343
0.000239343
0.000239343
0.000239858
0.000240256
0.000240322
0.000239936
0.000239343
0.000239343
0.000239343
0.000239343
0.000239343
0.000239343
0.000239826
0.000240212
0.000240295
0.000239936
0.000239343
0.000239343
0.000239343
0.000239343
0.000239343
0.000239343
0.000239824
0.000240005
0.000239943
0.000239343
0.000239343
0.000239343
0.000239343
0.000239343
0.000239343
0.000239835
0.000240229
0.000240219
0.000239805
0.000239342
0.000239342
0.000239342
0.000239342
0.000239711
0.000239913
0.000240281
0.000240282
0.000239962
0.000239857
0.000239825
0.000239823
0.000239834
0.000239913
0.000240168
0.000240255
0.000240211
0.000240004
0.000240228
0.000240281
0.000237213
0.000237185
0.000237173
0.00023685
0.000236827
0.000236826
0.000236834
0.00023711
0.000237173
0.000237173
0.000236786
0.000236233
0.000236233
0.000236233
0.000236233
0.000236695
0.000236852
0.00023685
0.000236233
0.000236233
0.000236233
0.000236233
0.000236233
0.000236233
0.000236748
0.000237146
0.000237213
0.000236827
0.000236233
0.000236233
0.000236233
0.000236233
0.000236233
0.000236233
0.000236716
0.000237103
0.000237185
0.000236826
0.000236233
0.000236233
0.000236233
0.000236233
0.000236233
0.000236233
0.000236714
0.000236895
0.000236834
0.000236233
0.000236233
0.000236233
0.000236233
0.000236233
0.000236233
0.000236725
0.000237119
0.00023711
0.000236695
0.000236233
0.000236233
0.000236233
0.000236233
0.000236601
0.000236804
0.000237172
0.000237173
0.000236852
0.000236748
0.000236716
0.000236714
0.000236725
0.000236804
0.000237058
0.000237146
0.000237102
0.000236895
0.000237119
0.000237171
0.000234103
0.000234076
0.000234064
0.000233741
0.000233717
0.000233717
0.000233724
0.000234
0.000234063
0.000234063
0.000233676
0.000233123
0.000233123
0.000233123
0.000233123
0.000233586
0.000233743
0.000233741
0.000233123
0.000233123
0.000233123
0.000233123
0.000233123
0.000233123
0.000233638
0.000234037
0.000234103
0.000233717
0.000233123
0.000233123
0.000233123
0.000233123
0.000233123
0.000233123
0.000233607
0.000233993
0.000234076
0.000233717
0.000233123
0.000233123
0.000233123
0.000233123
0.000233123
0.000233123
0.000233604
0.000233785
0.000233724
0.000233123
0.000233123
0.000233123
0.000233123
0.000233123
0.000233123
0.000233615
0.000234009
0.000234
0.000233585
0.000233123
0.000233123
0.000233123
0.000233123
0.000233492
0.000233694
0.000234062
0.000234063
0.000233743
0.000233638
0.000233606
0.000233604
0.000233615
0.000233694
0.000233949
0.000234036
0.000233993
0.000233785
0.000234009
0.000234062
0.000230994
0.000230966
0.000230954
0.000230631
0.000230607
0.000230607
0.000230614
0.00023089
0.000230953
0.000230954
0.000230566
0.000230014
0.000230014
0.000230014
0.000230014
0.000230476
0.000230633
0.000230631
0.000230014
0.000230014
0.000230014
0.000230014
0.000230013
0.000230013
0.000230528
0.000230927
0.000230993
0.000230607
0.000230014
0.000230014
0.000230014
0.000230013
0.000230013
0.000230013
0.000230497
0.000230883
0.000230966
0.000230607
0.000230013
0.000230013
0.000230013
0.000230013
0.000230013
0.000230013
0.000230494
0.000230676
0.000230614
0.000230013
0.000230013
0.000230013
0.000230013
0.000230013
0.000230013
0.000230506
0.0002309
0.00023089
0.000230476
0.000230013
0.000230013
0.000230013
0.000230013
0.000230382
0.000230584
0.000230952
0.000230953
0.000230633
0.000230528
0.000230497
0.000230494
0.000230505
0.000230584
0.000230839
0.000230927
0.000230883
0.000230676
0.0002309
0.000230952
0.000227883
0.000227856
0.000227844
0.000227521
0.000227497
0.000227497
0.000227504
0.000227781
0.000227843
0.000227844
0.000227456
0.000226904
0.000226904
0.000226904
0.000226904
0.000227366
0.000227523
0.000227521
0.000226904
0.000226904
0.000226904
0.000226904
0.000226904
0.000226904
0.000227418
0.000227817
0.000227883
0.000227497
0.000226904
0.000226904
0.000226904
0.000226904
0.000226904
0.000226904
0.000227387
0.000227773
0.000227856
0.000227497
0.000226904
0.000226904
0.000226904
0.000226904
0.000226904
0.000226904
0.000227384
0.000227566
0.000227504
0.000226904
0.000226904
0.000226904
0.000226904
0.000226904
0.000226904
0.000227396
0.00022779
0.00022778
0.000227366
0.000226904
0.000226904
0.000226904
0.000226904
0.000227272
0.000227474
0.000227842
0.000227843
0.000227523
0.000227418
0.000227387
0.000227384
0.000227396
0.000227474
0.000227729
0.000227817
0.000227773
0.000227566
0.00022779
0.000227842
0.000224774
0.000224746
0.000224734
0.000224411
0.000224387
0.000224387
0.000224395
0.000224671
0.000224734
0.000224734
0.000224346
0.000223794
0.000223794
0.000223794
0.000223794
0.000224256
0.000224413
0.000224411
0.000223794
0.000223794
0.000223794
0.000223794
0.000223794
0.000223794
0.000224309
0.000224707
0.000224773
0.000224387
0.000223794
0.000223794
0.000223794
0.000223794
0.000223794
0.000223794
0.000224277
0.000224663
0.000224746
0.000224387
0.000223794
0.000223794
0.000223794
0.000223794
0.000223794
0.000223794
0.000224275
0.000224456
0.000224394
0.000223794
0.000223794
0.000223794
0.000223794
0.000223794
0.000223794
0.000224286
0.00022468
0.000224671
0.000224256
0.000223794
0.000223794
0.000223794
0.000223794
0.000224162
0.000224364
0.000224732
0.000224733
0.000224413
0.000224308
0.000224277
0.000224275
0.000224286
0.000224364
0.000224619
0.000224707
0.000224663
0.000224456
0.00022468
0.000224732
0.000221664
0.000221636
0.000221624
0.000221301
0.000221278
0.000221277
0.000221285
0.000221562
0.000221625
0.000221624
0.000221236
0.000220684
0.000220684
0.000220684
0.000220684
0.000221146
0.000221304
0.000221301
0.000220684
0.000220684
0.000220684
0.000220684
0.000220684
0.000220684
0.000221199
0.000221597
0.000221663
0.000221277
0.000220684
0.000220684
0.000220684
0.000220684
0.000220684
0.000220684
0.000221167
0.000221554
0.000221636
0.000221277
0.000220684
0.000220684
0.000220684
0.000220684
0.000220684
0.000220684
0.000221165
0.000221346
0.000221285
0.000220684
0.000220684
0.000220684
0.000220684
0.000220684
0.000220684
0.000221176
0.00022157
0.000221561
0.000221146
0.000220684
0.000220684
0.000220684
0.000220684
0.000221052
0.000221254
0.000221622
0.000221623
0.000221303
0.000221198
0.000221167
0.000221165
0.000221176
0.000221254
0.000221509
0.000221597
0.000221553
0.000221346
0.00022157
0.000221622
0.000218553
0.000218526
0.000218514
0.000218191
0.000218167
0.000218167
0.000218175
0.000218451
0.000218514
0.000218514
0.000218126
0.000217574
0.000217574
0.000217574
0.000217574
0.000218036
0.000218193
0.000218191
0.000217574
0.000217574
0.000217574
0.000217574
0.000217574
0.000217573
0.000218088
0.000218487
0.000218554
0.000218167
0.000217574
0.000217574
0.000217574
0.000217573
0.000217573
0.000217573
0.000218057
0.000218443
0.000218526
0.000218167
0.000217574
0.000217574
0.000217573
0.000217573
0.000217573
0.000217573
0.000218054
0.000218236
0.000218174
0.000217574
0.000217573
0.000217573
0.000217573
0.000217573
0.000217573
0.000218066
0.00021846
0.00021845
0.000218036
0.000217573
0.000217573
0.000217573
0.000217573
0.000217942
0.000218144
0.000218512
0.000218513
0.000218193
0.000218088
0.000218057
0.000218054
0.000218066
0.000218144
0.000218399
0.000218487
0.000218443
0.000218236
0.00021846
0.000218512
0.000215443
0.000215416
0.000215404
0.000215081
0.000215057
0.000215057
0.000215064
0.00021534
0.000215403
0.000215404
0.000215016
0.000214463
0.000214463
0.000214463
0.000214463
0.000214926
0.000215083
0.000215081
0.000214463
0.000214463
0.000214463
0.000214463
0.000214463
0.000214463
0.000214978
0.000215377
0.000215443
0.000215057
0.000214463
0.000214463
0.000214463
0.000214463
0.000214463
0.000214463
0.000214947
0.000215333
0.000215416
0.000215057
0.000214463
0.000214463
0.000214463
0.000214463
0.000214463
0.000214463
0.000214944
0.000215125
0.000215064
0.000214463
0.000214463
0.000214463
0.000214463
0.000214463
0.000214463
0.000214955
0.000215349
0.00021534
0.000214926
0.000214463
0.000214463
0.000214463
0.000214463
0.000214832
0.000215034
0.000215402
0.000215403
0.000215083
0.000214978
0.000214947
0.000214944
0.000214955
0.000215034
0.000215289
0.000215377
0.000215333
0.000215125
0.00021535
0.000215402
0.000212333
0.000212305
0.000212293
0.00021197
0.000211947
0.000211946
0.000211954
0.00021223
0.000212293
0.000212293
0.000211906
0.000211353
0.000211353
0.000211353
0.000211353
0.000211815
0.000211972
0.000211971
0.000211353
0.000211353
0.000211353
0.000211353
0.000211353
0.000211353
0.000211868
0.000212266
0.000212334
0.000211947
0.000211353
0.000211353
0.000211353
0.000211353
0.000211353
0.000211353
0.000211836
0.000212223
0.000212306
0.000211947
0.000211353
0.000211353
0.000211353
0.000211353
0.000211353
0.000211353
0.000211834
0.000212015
0.000211954
0.000211353
0.000211353
0.000211353
0.000211353
0.000211353
0.000211353
0.000211845
0.000212239
0.00021223
0.000211815
0.000211353
0.000211353
0.000211353
0.000211353
0.000211721
0.000211924
0.000212292
0.000212293
0.000211972
0.000211868
0.000211836
0.000211834
0.000211845
0.000211924
0.000212178
0.000212266
0.000212223
0.000212015
0.000212239
0.000212292
0.000209222
0.000209195
0.000209183
0.00020886
0.000208836
0.000208836
0.000208843
0.000209119
0.000209182
0.000209183
0.000208795
0.000208242
0.000208242
0.000208242
0.000208242
0.000208705
0.000208862
0.00020886
0.000208242
0.000208242
0.000208242
0.000208242
0.000208242
0.000208242
0.000208757
0.000209156
0.000209222
0.000208836
0.000208242
0.000208242
0.000208242
0.000208242
0.000208242
0.000208242
0.000208726
0.000209112
0.000209195
0.000208836
0.000208242
0.000208242
0.000208242
0.000208242
0.000208242
0.000208242
0.000208723
0.000208905
0.000208843
0.000208242
0.000208242
0.000208242
0.000208242
0.000208242
0.000208242
0.000208734
0.000209129
0.000209119
0.000208705
0.000208242
0.000208242
0.000208242
0.000208242
0.000208611
0.000208813
0.000209181
0.000209182
0.000208862
0.000208757
0.000208726
0.000208723
0.000208734
0.000208813
0.000209068
0.000209156
0.000209112
0.000208905
0.000209129
0.000209181
0.000206112
0.000206084
0.000206072
0.000205749
0.000205726
0.000205725
0.000205733
0.000206009
0.000206072
0.000206072
0.000205685
0.000205132
0.000205132
0.000205132
0.000205132
0.000205594
0.000205751
0.000205749
0.000205132
0.000205132
0.000205132
0.000205132
0.000205132
0.000205132
0.000205647
0.000206045
0.000206112
0.000205726
0.000205132
0.000205132
0.000205132
0.000205132
0.000205132
0.000205132
0.000205615
0.000206002
0.000206084
0.000205725
0.000205132
0.000205132
0.000205132
0.000205132
0.000205132
0.000205132
0.000205613
0.000205794
0.000205733
0.000205132
0.000205132
0.000205132
0.000205132
0.000205132
0.000205132
0.000205624
0.000206018
0.000206009
0.000205594
0.000205132
0.000205132
0.000205132
0.000205132
0.0002055
0.000205702
0.00020607
0.000206072
0.000205751
0.000205646
0.000205615
0.000205613
0.000205624
0.000205702
0.000205957
0.000206045
0.000206001
0.000205794
0.000206018
0.00020607
0.000203002
0.000202974
0.000202964
0.00020264
0.000202615
0.000202615
0.000202622
0.000202898
0.000202961
0.000202962
0.000202575
0.000202021
0.000202021
0.000202021
0.000202021
0.000202484
0.000202641
0.000202639
0.000202021
0.000202021
0.000202021
0.000202021
0.000202021
0.000202021
0.000202536
0.000202935
0.000203001
0.000202615
0.000202021
0.000202021
0.000202021
0.000202021
0.000202021
0.000202021
0.000202504
0.000202891
0.000202974
0.000202614
0.000202021
0.000202021
0.000202021
0.000202021
0.000202021
0.000202021
0.000202502
0.000202683
0.000202622
0.000202021
0.000202021
0.000202021
0.000202021
0.000202021
0.000202021
0.000202513
0.000202907
0.000202898
0.000202483
0.000202021
0.000202021
0.000202021
0.000202021
0.000202389
0.000202592
0.00020296
0.000202961
0.00020264
0.000202536
0.000202504
0.000202502
0.000202513
0.000202592
0.000202846
0.000202934
0.000202891
0.000202683
0.000202907
0.00020296
0.00019989
0.000199863
0.000199851
0.000199527
0.000199504
0.000199504
0.000199511
0.000199787
0.00019985
0.00019985
0.000199463
0.00019891
0.00019891
0.00019891
0.00019891
0.000199372
0.00019953
0.000199527
0.00019891
0.00019891
0.00019891
0.00019891
0.00019891
0.00019891
0.000199425
0.000199824
0.00019989
0.000199504
0.00019891
0.00019891
0.00019891
0.00019891
0.00019891
0.00019891
0.000199393
0.00019978
0.000199862
0.000199503
0.00019891
0.00019891
0.00019891
0.00019891
0.00019891
0.00019891
0.000199391
0.000199572
0.000199511
0.00019891
0.00019891
0.00019891
0.00019891
0.00019891
0.00019891
0.000199402
0.000199796
0.000199787
0.000199372
0.00019891
0.00019891
0.00019891
0.00019891
0.000199278
0.000199481
0.000199849
0.00019985