/*--------------------------------*- C++ -*----------------------------------*\
| =========                 |                                                 |
| \\      /  F ield         | OpenFOAM: The Open Source CFD Toolbox           |
|  \\    /   O peration     | Version:  v2012                                 |
|   \\  /    A nd           | Website:  www.openfoam.com                      |
|    \\/     M anipulation  |                                                 |
\*---------------------------------------------------------------------------*/
FoamFile
{
    version     2.0;
    format      ascii;
    class       volScalarField;
    location    "500";
    object      epsilon;
}
// * * * * * * * * * * * * * * * * * * * * * * * * * * * * * * * * * * * * * //

dimensions      [0 2 -3 0 0 0 0];


internalField   nonuniform List<scalar> 
171728
(
4.95567e-07
4.9733e-07
4.9733e-07
4.99575e-07
4.45573e-07
4.53735e-07
4.53737e-07
4.6371e-07
4.03752e-07
4.18513e-07
4.18517e-07
4.39411e-07
3.68363e-07
3.88552e-07
3.88558e-07
4.17667e-07
3.38015e-07
3.62102e-07
3.6211e-07
3.96081e-07
3.11646e-07
3.38273e-07
3.38281e-07
3.7458e-07
2.88473e-07
3.16637e-07
3.16646e-07
3.5371e-07
2.67923e-07
2.97021e-07
2.97031e-07
3.34148e-07
2.4958e-07
2.7937e-07
2.79379e-07
3.16484e-07
2.33137e-07
2.6368e-07
2.63688e-07
3.01164e-07
2.18366e-07
2.49955e-07
2.49965e-07
2.88499e-07
2.05091e-07
2.38203e-07
2.38211e-07
2.78703e-07
1.93172e-07
2.28419e-07
2.2843e-07
2.71904e-07
1.82501e-07
2.20624e-07
2.20632e-07
2.68269e-07
1.72983e-07
2.14816e-07
2.14864e-07
2.67924e-07
1.64554e-07
2.11118e-07
2.11082e-07
2.71307e-07
1.57188e-07
2.09638e-07
2.09582e-07
2.78691e-07
1.50765e-07
2.10374e-07
2.10614e-07
2.91993e-07
1.45457e-07
2.14165e-07
2.13425e-07
3.09798e-07
1.40862e-07
2.20104e-07
2.19994e-07
3.26785e-07
1.36678e-07
2.26642e-07
2.22137e-07
3.36352e-07
1.33733e-07
2.29496e-07
2.32502e-07
3.59975e-07
1.31511e-07
2.42422e-07
2.43136e-07
3.81829e-07
1.30146e-07
2.53015e-07
2.55504e-07
4.07499e-07
1.29505e-07
2.65983e-07
2.65524e-07
4.16241e-07
1.29486e-07
2.79787e-07
2.85297e-07
4.84342e-07
1.30566e-07
3.0296e-07
3.06667e-07
5.08689e-07
1.32744e-07
3.26481e-07
3.12278e-07
5.26786e-07
1.35119e-07
3.43748e-07
3.45377e-07
6.05814e-07
1.38809e-07
3.74331e-07
3.68134e-07
6.40506e-07
1.42103e-07
3.89574e-07
4.04302e-07
6.30046e-07
1.46001e-07
4.23806e-07
4.25165e-07
6.96629e-07
1.53162e-07
4.49896e-07
4.47307e-07
7.54862e-07
1.59971e-07
4.8733e-07
4.77048e-07
7.84298e-07
1.66924e-07
5.07194e-07
5.07214e-07
8.01103e-07
1.7573e-07
5.32199e-07
5.37143e-07
8.50415e-07
1.83181e-07
5.6409e-07
5.65617e-07
8.74081e-07
1.92992e-07
5.95249e-07
5.96114e-07
9.07011e-07
2.03076e-07
6.25431e-07
6.2513e-07
9.37377e-07
2.14313e-07
6.55115e-07
6.54887e-07
9.66246e-07
2.26533e-07
6.85256e-07
6.84799e-07
9.93342e-07
2.38767e-07
7.14281e-07
7.14523e-07
1.02086e-06
2.51955e-07
7.43012e-07
7.43153e-07
1.04787e-06
2.6579e-07
7.70827e-07
7.70632e-07
1.07209e-06
2.80486e-07
7.97813e-07
7.98328e-07
1.09516e-06
2.95512e-07
8.2452e-07
8.24676e-07
1.11735e-06
3.10984e-07
8.50169e-07
8.50002e-07
1.13956e-06
3.26779e-07
8.74403e-07
8.74574e-07
1.15985e-06
3.4328e-07
8.97788e-07
8.98157e-07
1.17862e-06
3.59445e-07
9.20591e-07
9.20566e-07
1.19725e-06
3.75868e-07
9.42275e-07
9.42054e-07
1.21637e-06
3.92688e-07
9.61644e-07
9.62141e-07
1.23101e-06
4.0934e-07
9.82551e-07
9.82066e-07
1.24748e-06
4.25703e-07
1.00009e-06
1.00148e-06
1.263e-06
4.42203e-07
1.01758e-06
1.01787e-06
1.27591e-06
4.58157e-07
1.03368e-06
1.03247e-06
1.2897e-06
4.74618e-07
1.05113e-06
1.05043e-06
1.30428e-06
4.89651e-07
1.06388e-06
1.06492e-06
1.31408e-06
5.04276e-07
1.07792e-06
1.07878e-06
1.32851e-06
5.20172e-07
1.08889e-06
1.08796e-06
1.32558e-06
5.31286e-07
1.10655e-06
1.10687e-06
1.35739e-06
5.49556e-07
1.10817e-06
1.10821e-06
1.35308e-06
5.5762e-07
1.12868e-06
1.12507e-06
1.36427e-06
5.73948e-07
1.12823e-06
1.14319e-06
1.3605e-06
5.85488e-07
1.15076e-06
1.12627e-06
1.38768e-06
5.9099e-07
1.13764e-06
1.16479e-06
1.42452e-06
6.08384e-07
1.16233e-06
1.15378e-06
1.33298e-06
6.15733e-07
1.17713e-06
1.1427e-06
1.40528e-06
6.255e-07
1.15488e-06
1.1973e-06
1.45859e-06
6.34029e-07
1.17907e-06
1.15705e-06
1.36778e-06
6.39012e-07
1.18215e-06
1.17629e-06
1.39953e-06
6.48868e-07
1.18249e-06
1.19e-06
1.439e-06
6.57845e-07
1.18987e-06
1.18625e-06
1.4204e-06
6.61992e-07
1.18913e-06
1.19367e-06
1.41502e-06
6.65781e-07
1.19277e-06
1.19328e-06
1.43319e-06
6.71822e-07
1.19452e-06
1.19171e-06
1.42408e-06
6.76708e-07
1.19505e-06
1.19539e-06
1.42322e-06
6.80322e-07
1.19813e-06
1.19843e-06
1.43228e-06
6.83655e-07
1.1985e-06
1.19834e-06
1.43245e-06
6.86337e-07
1.19781e-06
1.19787e-06
1.42941e-06
6.8857e-07
1.19787e-06
1.19768e-06
1.43247e-06
6.90049e-07
1.19601e-06
1.19669e-06
1.42892e-06
6.91649e-07
1.19634e-06
1.19584e-06
1.43235e-06
6.92687e-07
1.19402e-06
1.19477e-06
1.42774e-06
6.92498e-07
1.19196e-06
1.19185e-06
1.42804e-06
6.93715e-07
1.19162e-06
1.19185e-06
1.42738e-06
6.92684e-07
1.18704e-06
1.18689e-06
1.42334e-06
6.92514e-07
1.18546e-06
1.18636e-06
1.42248e-06
6.92291e-07
1.18405e-06
1.18306e-06
1.42133e-06
6.9037e-07
1.17846e-06
1.17942e-06
1.41637e-06
6.89643e-07
1.17733e-06
1.17635e-06
1.41547e-06
6.88843e-07
1.17434e-06
1.17601e-06
1.41499e-06
6.85746e-07
1.16825e-06
1.16777e-06
1.40556e-06
6.84619e-07
1.16694e-06
1.1665e-06
1.40465e-06
6.67049e-07
1.11357e-06
1.11443e-06
1.37601e-06
5.06417e-07
5.05584e-07
5.05582e-07
5.06417e-07
5.05583e-07
5.05582e-07
5.09649e-07
5.09649e-07
5.09649e-07
5.09649e-07
5.05584e-07
5.05584e-07
5.06418e-07
5.05584e-07
5.05583e-07
5.06418e-07
4.99575e-07
4.67237e-07
4.97331e-07
4.97335e-07
4.63713e-07
4.63721e-07
4.99575e-07
4.67235e-07
4.97335e-07
4.97336e-07
4.63718e-07
4.63724e-07
4.97332e-07
4.63709e-07
4.63714e-07
4.99575e-07
4.67241e-07
4.97334e-07
4.6371e-07
4.63719e-07
4.6724e-07
4.63709e-07
4.41426e-07
4.5374e-07
4.53748e-07
4.26738e-07
4.26747e-07
4.63708e-07
4.4142e-07
4.53744e-07
4.53751e-07
4.26739e-07
4.26751e-07
4.53741e-07
4.26729e-07
4.26741e-07
4.63711e-07
4.41431e-07
4.53744e-07
4.26734e-07
4.26741e-07
4.41429e-07
4.39407e-07
4.19283e-07
4.18522e-07
4.1853e-07
3.95676e-07
3.95682e-07
4.39405e-07
4.19275e-07
4.18522e-07
4.18535e-07
3.95672e-07
3.95689e-07
4.18525e-07
3.95663e-07
3.95679e-07
4.39413e-07
4.19289e-07
4.18523e-07
3.95669e-07
3.95673e-07
4.19287e-07
4.17662e-07
3.97645e-07
3.88566e-07
3.88571e-07
3.68461e-07
3.68466e-07
4.17656e-07
3.97636e-07
3.8856e-07
3.88578e-07
3.68452e-07
3.68473e-07
3.88569e-07
3.68444e-07
3.68464e-07
4.17669e-07
3.97651e-07
3.88562e-07
3.68452e-07
3.68454e-07
3.97649e-07
3.96076e-07
3.76085e-07
3.6212e-07
3.62124e-07
3.44033e-07
3.44036e-07
3.96069e-07
3.76075e-07
3.62109e-07
3.62131e-07
3.4402e-07
3.44043e-07
3.62123e-07
3.44013e-07
3.44036e-07
3.96082e-07
3.76091e-07
3.62111e-07
3.44021e-07
3.44021e-07
3.7609e-07
3.74575e-07
3.55111e-07
3.38292e-07
3.38295e-07
3.21875e-07
3.21876e-07
3.74568e-07
3.55101e-07
3.38279e-07
3.38303e-07
3.21858e-07
3.21884e-07
3.38296e-07
3.21853e-07
3.21877e-07
3.74581e-07
3.55116e-07
3.3828e-07
3.21862e-07
3.2186e-07
3.55116e-07
3.53704e-07
3.35396e-07
3.16659e-07
3.16661e-07
3.01763e-07
3.01764e-07
3.53696e-07
3.35385e-07
3.16642e-07
3.16668e-07
3.01745e-07
3.01771e-07
3.16662e-07
3.0174e-07
3.01766e-07
3.5371e-07
3.354e-07
3.16644e-07
3.0175e-07
3.01746e-07
3.354e-07
3.34142e-07
3.17533e-07
2.97044e-07
2.97045e-07
2.83623e-07
2.83624e-07
3.34133e-07
3.17525e-07
2.97026e-07
2.97053e-07
2.83603e-07
2.83631e-07
2.97047e-07
2.836e-07
2.83625e-07
3.34147e-07
3.17541e-07
2.97027e-07
2.83609e-07
2.83604e-07
3.17538e-07
3.16479e-07
3.01977e-07
2.79395e-07
2.79394e-07
2.67442e-07
2.67443e-07
3.16472e-07
3.01965e-07
2.79374e-07
2.79401e-07
2.6742e-07
2.6745e-07
2.79396e-07
2.67418e-07
2.67443e-07
3.16486e-07
3.01983e-07
2.79375e-07
2.67427e-07
2.67421e-07
3.01985e-07
3.01156e-07
2.89048e-07
2.63705e-07
2.63704e-07
2.53229e-07
2.53228e-07
3.01147e-07
2.89036e-07
2.63683e-07
2.63712e-07
2.53206e-07
2.53235e-07
2.63705e-07
2.53202e-07
2.53229e-07
3.01165e-07
2.8905e-07
2.63684e-07
2.53211e-07
2.53206e-07
2.8905e-07
2.88495e-07
2.78957e-07
2.49983e-07
2.49982e-07
2.40985e-07
2.40985e-07
2.88483e-07
2.78956e-07
2.49961e-07
2.4999e-07
2.4096e-07
2.40991e-07
2.49984e-07
2.40957e-07
2.40984e-07
2.88496e-07
2.78967e-07
2.49961e-07
2.40964e-07
2.4096e-07
2.78963e-07
2.78698e-07
2.71852e-07
2.38233e-07
2.38231e-07
2.30706e-07
2.30709e-07
2.78698e-07
2.7186e-07
2.38209e-07
2.38239e-07
2.30682e-07
2.30719e-07
2.38231e-07
2.30678e-07
2.30706e-07
2.78705e-07
2.71882e-07
2.38207e-07
2.3069e-07
2.30683e-07
2.71864e-07
2.71894e-07
2.67958e-07
2.28449e-07
2.28447e-07
2.2242e-07
2.22426e-07
2.71905e-07
2.67968e-07
2.28424e-07
2.28459e-07
2.2239e-07
2.2243e-07
2.28446e-07
2.22386e-07
2.22418e-07
2.71921e-07
2.67981e-07
2.28422e-07
2.22391e-07
2.22384e-07
2.67967e-07
2.68262e-07
2.67235e-07
2.20666e-07
2.2067e-07
2.16122e-07
2.16133e-07
2.68272e-07
2.67242e-07
2.20639e-07
2.20675e-07
2.16097e-07
2.16139e-07
2.20667e-07
2.16091e-07
2.1611e-07
2.6828e-07
2.67293e-07
2.20636e-07
2.16109e-07
2.16086e-07
2.67251e-07
2.6793e-07
2.6981e-07
2.14865e-07
2.14858e-07
2.11865e-07
2.11874e-07
2.67956e-07
2.69882e-07
2.1485e-07
2.14896e-07
2.11823e-07
2.11918e-07
2.14873e-07
2.11829e-07
2.11861e-07
2.67993e-07
2.69883e-07
2.14852e-07
2.11846e-07
2.11834e-07
2.69872e-07
2.71324e-07
2.7646e-07
2.11151e-07
2.11161e-07
2.09731e-07
2.09828e-07
2.71416e-07
2.76687e-07
2.11106e-07
2.11153e-07
2.09732e-07
2.09708e-07
2.1112e-07
2.09756e-07
2.09704e-07
2.71395e-07
2.76494e-07
2.11091e-07
2.0962e-07
2.09659e-07
2.7636e-07
2.7881e-07
2.8865e-07
2.09635e-07
2.09708e-07
2.10061e-07
2.10094e-07
2.79274e-07
2.88915e-07
2.09577e-07
2.09644e-07
2.09937e-07
2.10198e-07
2.09559e-07
2.10041e-07
2.0998e-07
2.78903e-07
2.89388e-07
2.09553e-07
2.102e-07
2.10021e-07
2.8874e-07
2.91809e-07
3.04676e-07
2.10414e-07
2.10423e-07
2.12544e-07
2.12794e-07
2.92013e-07
3.06432e-07
2.103e-07
2.10627e-07
2.12518e-07
2.12227e-07
2.10345e-07
2.1293e-07
2.12528e-07
2.92926e-07
3.03889e-07
2.1038e-07
2.12132e-07
2.12693e-07
3.04654e-07
3.10414e-07
3.27754e-07
2.14045e-07
2.1401e-07
2.18279e-07
2.18298e-07
3.12018e-07
3.2997e-07
2.13999e-07
2.13517e-07
2.18033e-07
2.19011e-07
2.13841e-07
2.18074e-07
2.17419e-07
3.08364e-07
3.32143e-07
2.14018e-07
2.18784e-07
2.17353e-07
3.24438e-07
3.3072e-07
3.34388e-07
2.19319e-07
2.20495e-07
2.21497e-07
2.25928e-07
3.35855e-07
3.54727e-07
2.19064e-07
2.20293e-07
2.21673e-07
2.21822e-07
2.18117e-07
2.25683e-07
2.21261e-07
3.35784e-07
3.34134e-07
2.17951e-07
2.2156e-07
2.21046e-07
3.32428e-07
3.36524e-07
3.49538e-07
2.2235e-07
2.26759e-07
2.27952e-07
2.28329e-07
3.56705e-07
3.50351e-07
2.22655e-07
2.22282e-07
2.28104e-07
2.29424e-07
2.22835e-07
2.28231e-07
2.29162e-07
3.3505e-07
3.57125e-07
2.22628e-07
2.29501e-07
2.28831e-07
3.54091e-07
3.56244e-07
3.76682e-07
2.30665e-07
2.29739e-07
2.38272e-07
2.38862e-07
3.52149e-07
3.79029e-07
2.30692e-07
2.32451e-07
2.38135e-07
2.39968e-07
2.31487e-07
2.38778e-07
2.38259e-07
3.66067e-07
3.85274e-07
2.31211e-07
2.40042e-07
2.38471e-07
3.769e-07
3.81532e-07
4.02367e-07
2.40802e-07
2.42415e-07
2.50393e-07
2.51142e-07
3.88221e-07
4.05518e-07
2.40714e-07
2.43154e-07
2.50432e-07
2.53419e-07
2.41047e-07
2.51069e-07
2.50596e-07
3.90854e-07
4.15366e-07
2.41336e-07
2.53089e-07
2.50654e-07
4.02555e-07
4.09255e-07
4.27384e-07
2.536e-07
2.53174e-07
2.63174e-07
2.619e-07
4.08096e-07
4.18895e-07
2.53625e-07
2.55828e-07
2.6315e-07
2.62324e-07
2.53535e-07
2.61734e-07
2.59657e-07
4.192e-07
4.21849e-07
2.53495e-07
2.62204e-07
2.59619e-07
4.13154e-07
4.34329e-07
4.60732e-07
2.67153e-07
2.66135e-07
2.79841e-07
2.77585e-07
4.27574e-07
4.51059e-07
2.67122e-07
2.65623e-07
2.79694e-07
2.79257e-07
2.6229e-07
2.77322e-07
2.80587e-07
4.26569e-07
4.6217e-07
2.62279e-07
2.7903e-07
2.80452e-07
4.66255e-07
4.65721e-07
4.86127e-07
2.83121e-07
2.80045e-07
2.95187e-07
2.94796e-07
4.54178e-07
4.83475e-07
2.8295e-07
2.85544e-07
2.95202e-07
3.03372e-07
2.8768e-07
2.94753e-07
3.01141e-07
4.73504e-07
5.172e-07
2.8752e-07
3.03316e-07
3.01139e-07
5.07717e-07
4.98934e-07
5.48863e-07
3.01649e-07
3.02975e-07
3.21524e-07
3.23261e-07
5.01857e-07
5.53644e-07
3.01762e-07
3.06693e-07
3.21561e-07
3.10429e-07
3.03333e-07
3.23067e-07
3.13505e-07
5.21036e-07
4.94562e-07
3.03405e-07
3.10342e-07
3.13509e-07
5.15039e-07
5.55803e-07
5.74124e-07
3.26221e-07
3.26741e-07
3.40002e-07
3.36919e-07
5.56881e-07
5.60855e-07
3.26124e-07
3.12446e-07
3.39797e-07
3.36217e-07
3.19788e-07
3.36685e-07
3.43126e-07
4.95498e-07
5.6268e-07
3.19662e-07
3.3601e-07
3.42915e-07
5.92204e-07
5.84709e-07
6.2567e-07
3.46465e-07
3.43954e-07
3.67433e-07
3.68749e-07
5.72581e-07
6.31281e-07
3.46402e-07
3.45566e-07
3.67498e-07
3.63259e-07
3.50979e-07
3.68517e-07
3.7073e-07
5.83949e-07
6.12838e-07
3.50913e-07
3.63037e-07
3.70806e-07
6.36087e-07
6.32418e-07
6.43868e-07
3.73246e-07
3.74526e-07
3.87572e-07
3.8432e-07
6.3753e-07
6.32232e-07
3.73157e-07
3.68302e-07
3.87311e-07
3.94856e-07
3.75511e-07
3.84229e-07
3.84144e-07
6.17432e-07
6.789e-07
3.75418e-07
3.94801e-07
3.83807e-07
6.28014e-07
6.49388e-07
6.62283e-07
3.92806e-07
3.89752e-07
4.07563e-07
4.16166e-07
6.37994e-07
6.97849e-07
3.92669e-07
4.04455e-07
4.07635e-07
4.22047e-07
3.87314e-07
4.15748e-07
4.10194e-07
6.9614e-07
7.09813e-07
3.87113e-07
4.21624e-07
4.10282e-07
6.78164e-07
6.68959e-07
7.31858e-07
4.13017e-07
4.24155e-07
4.41159e-07
4.42124e-07
7.09702e-07
7.30685e-07
4.13056e-07
4.2551e-07
4.4109e-07
4.40518e-07
4.20163e-07
4.42007e-07
4.4591e-07
7.11312e-07
7.20469e-07
4.20202e-07
4.40453e-07
4.45825e-07
7.44879e-07
7.50254e-07
7.76963e-07
4.52064e-07
4.5004e-07
4.75232e-07
4.79371e-07
7.4125e-07
7.95134e-07
4.52005e-07
4.47406e-07
4.75155e-07
4.69828e-07
4.53703e-07
4.7908e-07
4.76322e-07
7.29975e-07
7.62916e-07
4.53655e-07
4.69569e-07
4.76291e-07
7.79749e-07
7.79769e-07
8.00759e-07
4.79907e-07
4.87606e-07
4.98985e-07
5.03205e-07
8.04038e-07
8.06087e-07
4.79792e-07
4.7729e-07
4.98744e-07
4.99636e-07
4.82058e-07
5.03012e-07
4.97124e-07
7.72244e-07
8.02502e-07
4.81966e-07
4.99473e-07
4.96889e-07
7.92452e-07
8.14962e-07
8.53421e-07
5.0824e-07
5.07384e-07
5.35244e-07
5.25032e-07
8.08268e-07
8.2156e-07
5.08013e-07
5.07365e-07
5.35133e-07
5.30339e-07
5.04372e-07
5.2476e-07
5.30701e-07
8.12181e-07
8.38429e-07
5.04153e-07
5.30109e-07
5.30601e-07
8.41745e-07
8.58804e-07
8.62695e-07
5.4199e-07
5.32508e-07
5.57508e-07
5.5642e-07
8.30679e-07
8.62431e-07
5.4191e-07
5.37408e-07
5.57421e-07
5.58396e-07
5.38623e-07
5.56114e-07
5.58656e-07
8.45881e-07
8.66744e-07
5.38547e-07
5.58103e-07
5.58562e-07
8.6736e-07
8.68693e-07
9.01068e-07
5.63624e-07
5.64354e-07
5.88278e-07
5.87748e-07
8.71788e-07
8.98027e-07
5.63537e-07
5.65859e-07
5.88154e-07
5.88774e-07
5.65359e-07
5.87553e-07
5.87879e-07
8.75108e-07
9.00396e-07
5.65251e-07
5.88621e-07
5.87745e-07
8.98373e-07
9.10552e-07
9.28011e-07
5.96917e-07
5.95475e-07
6.1804e-07
6.18243e-07
9.06238e-07
9.29067e-07
5.96784e-07
5.96292e-07
6.17894e-07
6.18164e-07
5.95743e-07
6.17935e-07
6.18401e-07
9.08198e-07
9.2823e-07
5.95616e-07
6.17904e-07
6.1828e-07
9.299e-07
9.34005e-07
9.58621e-07
6.24422e-07
6.25727e-07
6.47396e-07
6.47886e-07
9.36822e-07
9.58138e-07
6.24281e-07
6.25375e-07
6.47245e-07
6.47528e-07
6.2577e-07
6.47691e-07
6.4815e-07
9.35507e-07
9.57124e-07
6.25648e-07
6.47378e-07
6.4801e-07
9.58741e-07
9.68344e-07
9.91234e-07
6.559e-07
6.55302e-07
6.7953e-07
6.77988e-07
9.65686e-07
9.87548e-07
6.55763e-07
6.55025e-07
6.79391e-07
6.77513e-07
6.55602e-07
6.77736e-07
6.77548e-07
9.64813e-07
9.86296e-07
6.55468e-07
6.77309e-07
6.77415e-07
9.86213e-07
9.97367e-07
1.01263e-06
6.86421e-07
6.85522e-07
7.06618e-07
7.07377e-07
9.95101e-07
1.01464e-06
6.86293e-07
6.85018e-07
7.06484e-07
7.07345e-07
6.84824e-07
7.07136e-07
7.06791e-07
9.93837e-07
1.01492e-06
6.84688e-07
7.0715e-07
7.06638e-07
1.0135e-06
1.01968e-06
1.03921e-06
7.13831e-07
7.14513e-07
7.35595e-07
7.3605e-07
1.02151e-06
1.04049e-06
7.137e-07
7.14708e-07
7.35461e-07
7.36332e-07
7.14166e-07
7.35818e-07
7.36161e-07
1.02218e-06
1.04094e-06
7.14018e-07
7.36151e-07
7.36037e-07
1.04098e-06
1.04577e-06
1.06359e-06
7.425e-07
7.43241e-07
7.63272e-07
7.64245e-07
1.04748e-06
1.06527e-06
7.42378e-07
7.43329e-07
7.63154e-07
7.63924e-07
7.43346e-07
7.64034e-07
7.64312e-07
1.04751e-06
1.06454e-06
7.4322e-07
7.63765e-07
7.64175e-07
1.06557e-06
1.07059e-06
1.08949e-06
7.70379e-07
7.7103e-07
7.91571e-07
7.91283e-07
1.07162e-06
1.08829e-06
7.70262e-07
7.70786e-07
7.91435e-07
7.91567e-07
7.71196e-07
7.91087e-07
7.9162e-07
1.0711e-06
1.08925e-06
7.71054e-07
7.91425e-07
7.91472e-07
1.08897e-06
1.09596e-06
1.11152e-06
7.98446e-07
7.98015e-07
8.18112e-07
8.18114e-07
1.09468e-06
1.11166e-06
7.98323e-07
7.98474e-07
8.18002e-07
8.18455e-07
7.98256e-07
8.17898e-07
8.17871e-07
1.09586e-06
1.11209e-06
7.98117e-07
8.18293e-07
8.17749e-07
1.11108e-06
1.1175e-06
1.13338e-06
8.2451e-07
8.24729e-07
8.43903e-07
8.44011e-07
1.11796e-06
1.1337e-06
8.24408e-07
8.24833e-07
8.43774e-07
8.43739e-07
8.24446e-07
8.43817e-07
8.43991e-07
1.11798e-06
1.13305e-06
8.24326e-07
8.43607e-07
8.43859e-07
1.13364e-06
1.13916e-06
1.15265e-06
8.50151e-07
8.50369e-07
8.67988e-07
8.68799e-07
1.13969e-06
1.15387e-06
8.50017e-07
8.50143e-07
8.6787e-07
8.68846e-07
8.50287e-07
8.68606e-07
8.68714e-07
1.13916e-06
1.15419e-06
8.50144e-07
8.68705e-07
8.6859e-07
1.15411e-06
1.15873e-06
1.1757e-06
8.74136e-07
8.74579e-07
8.93218e-07
8.92014e-07
1.15923e-06
1.17279e-06
8.74032e-07
8.74694e-07
8.93086e-07
8.92214e-07
8.74782e-07
8.91866e-07
8.92415e-07
1.15961e-06
1.1734e-06
8.74667e-07
8.92117e-07
8.92278e-07
1.17335e-06
1.18119e-06
1.19167e-06
8.99144e-07
8.97948e-07
9.15042e-07
9.15228e-07
1.17853e-06
1.19244e-06
8.99022e-07
8.98273e-07
9.14943e-07
9.15508e-07
8.98085e-07
9.15031e-07
9.1493e-07
1.17933e-06
1.19257e-06
8.97946e-07
9.15376e-07
9.14824e-07
1.19177e-06
1.19652e-06
1.20919e-06
9.20254e-07
9.20782e-07
9.36457e-07
9.3723e-07
1.19779e-06
1.21042e-06
9.20162e-07
9.20682e-07
9.36316e-07
9.36655e-07
9.20513e-07
9.37048e-07
9.37243e-07
1.19737e-06
1.20954e-06
9.2042e-07
9.3652e-07
9.37123e-07
1.21107e-06
1.21443e-06
1.22692e-06
9.41805e-07
9.42455e-07
9.57452e-07
9.56852e-07
1.21532e-06
1.22512e-06
9.41658e-07
9.42198e-07
9.57348e-07
9.57396e-07
9.42777e-07
9.56738e-07
9.57828e-07
1.2149e-06
1.22632e-06
9.42637e-07
9.57355e-07
9.57712e-07
1.22666e-06
1.23229e-06
1.2433e-06
9.62699e-07
9.61754e-07
9.77696e-07
9.77641e-07
1.23005e-06
1.24398e-06
9.62612e-07
9.62175e-07
9.77578e-07
9.77158e-07
9.62383e-07
9.7745e-07
9.76764e-07
1.231e-06
1.24286e-06
9.62281e-07
9.7701e-07
9.76658e-07
1.24223e-06
1.24739e-06
1.25718e-06
9.82116e-07
9.82754e-07
9.95442e-07
9.96057e-07
1.24899e-06
1.25754e-06
9.81993e-07
9.82225e-07
9.95285e-07
9.96845e-07
9.81854e-07
9.95908e-07
9.96457e-07
1.24801e-06
1.25995e-06
9.8174e-07
9.96759e-07
9.96307e-07
1.25869e-06
1.26226e-06
1.27199e-06
1.00027e-06
1.00021e-06
1.01385e-06
1.01334e-06
1.26163e-06
1.27137e-06
1.00013e-06
1.00154e-06
1.01381e-06
1.01448e-06
1.00088e-06
1.01319e-06
1.01357e-06
1.26472e-06
1.27258e-06
1.00074e-06
1.01438e-06
1.01353e-06
1.27162e-06
1.27577e-06
1.28513e-06
1.01766e-06
1.01774e-06
1.02951e-06
1.02977e-06
1.27594e-06
1.28506e-06
1.01763e-06
1.01799e-06
1.02935e-06
1.02812e-06
1.01778e-06
1.02965e-06
1.02993e-06
1.2757e-06
1.28161e-06
1.01774e-06
1.02809e-06
1.02978e-06
1.28524e-06
1.29051e-06
1.3019e-06
1.03416e-06
1.03378e-06
1.0478e-06
1.04714e-06
1.28944e-06
1.30102e-06
1.03399e-06
1.03247e-06
1.04768e-06
1.04679e-06
1.03396e-06
1.04698e-06
1.04663e-06
1.28678e-06
1.30039e-06
1.0338e-06
1.04663e-06
1.0465e-06
1.29997e-06
1.30522e-06
1.30919e-06
1.05134e-06
1.05129e-06
1.06048e-06
1.06091e-06
1.30533e-06
1.30976e-06
1.05125e-06
1.05059e-06
1.06036e-06
1.06067e-06
1.05078e-06
1.06078e-06
1.06104e-06
1.30414e-06
1.31037e-06
1.05068e-06
1.06065e-06
1.06093e-06
1.31052e-06
1.313e-06
1.32034e-06
1.0638e-06
1.06406e-06
1.07374e-06
1.07499e-06
1.31332e-06
1.32222e-06
1.06366e-06
1.06497e-06
1.07365e-06
1.07702e-06
1.06419e-06
1.0748e-06
1.07604e-06
1.31586e-06
1.32551e-06
1.06405e-06
1.07685e-06
1.07598e-06
1.32471e-06
1.32423e-06
1.33754e-06
1.07703e-06
1.07803e-06
1.08996e-06
1.08479e-06
1.32525e-06
1.32738e-06
1.07702e-06
1.07887e-06
1.08985e-06
1.08304e-06
1.07975e-06
1.08497e-06
1.08471e-06
1.32677e-06
1.32366e-06
1.07972e-06
1.08328e-06
1.08464e-06
1.32348e-06
1.34179e-06
1.33111e-06
1.09345e-06
1.08899e-06
1.09675e-06
1.1046e-06
1.33304e-06
1.35323e-06
1.09329e-06
1.08786e-06
1.09657e-06
1.105e-06
1.08593e-06
1.10409e-06
1.10121e-06
1.33136e-06
1.35426e-06
1.08583e-06
1.10448e-06
1.10109e-06
1.35056e-06
1.33234e-06
1.3696e-06
1.09746e-06
1.10677e-06
1.11566e-06
1.10726e-06
1.35534e-06
1.33789e-06
1.09729e-06
1.10707e-06
1.11559e-06
1.1074e-06
1.10735e-06
1.10767e-06
1.11454e-06
1.35568e-06
1.3392e-06
1.10723e-06
1.10791e-06
1.11449e-06
1.35206e-06
1.37892e-06
1.33823e-06
1.12171e-06
1.10783e-06
1.12106e-06
1.12613e-06
1.34082e-06
1.37414e-06
1.12172e-06
1.10776e-06
1.12106e-06
1.11975e-06
1.11475e-06
1.12519e-06
1.11962e-06
1.34192e-06
1.36133e-06
1.11475e-06
1.1185e-06
1.11965e-06
1.35991e-06
1.33543e-06
1.37625e-06
1.11674e-06
1.12929e-06
1.1245e-06
1.12751e-06
1.37811e-06
1.35157e-06
1.11645e-06
1.12588e-06
1.12398e-06
1.14115e-06
1.12369e-06
1.12833e-06
1.12866e-06
1.36855e-06
1.39384e-06
1.1232e-06
1.1421e-06
1.12797e-06
1.3592e-06
1.39726e-06
1.38128e-06
1.13888e-06
1.12736e-06
1.15099e-06
1.14746e-06
1.35298e-06
1.40121e-06
1.1392e-06
1.14217e-06
1.1521e-06
1.13049e-06
1.12895e-06
1.14612e-06
1.13517e-06
1.39652e-06
1.33294e-06
1.12863e-06
1.12973e-06
1.13771e-06
1.37531e-06
1.37182e-06
1.34193e-06
1.14544e-06
1.15229e-06
1.13168e-06
1.14281e-06
1.40759e-06
1.34864e-06
1.14579e-06
1.1273e-06
1.1299e-06
1.14732e-06
1.14541e-06
1.14327e-06
1.16609e-06
1.33137e-06
1.41327e-06
1.14594e-06
1.14797e-06
1.16372e-06
1.42365e-06
1.35939e-06
1.41513e-06
1.13426e-06
1.13637e-06
1.16346e-06
1.14443e-06
1.3455e-06
1.3905e-06
1.13294e-06
1.16335e-06
1.16625e-06
1.16899e-06
1.16661e-06
1.14557e-06
1.14198e-06
1.43394e-06
1.37621e-06
1.16445e-06
1.17037e-06
1.14466e-06
1.33696e-06
1.41696e-06
1.38914e-06
1.16658e-06
1.16274e-06
1.16397e-06
1.18266e-06
1.41522e-06
1.4305e-06
1.16902e-06
1.15367e-06
1.16145e-06
1.13559e-06
1.13458e-06
1.18016e-06
1.1394e-06
1.35964e-06
1.33924e-06
1.13669e-06
1.13371e-06
1.1373e-06
1.37469e-06
1.3906e-06
1.40437e-06
1.16316e-06
1.17947e-06
1.16866e-06
1.15444e-06
1.4227e-06
1.35863e-06
1.15988e-06
1.14482e-06
1.16909e-06
1.19451e-06
1.16026e-06
1.15559e-06
1.19653e-06
1.37577e-06
1.46751e-06
1.15492e-06
1.19558e-06
1.19653e-06
1.4625e-06
1.409e-06
1.40363e-06
1.17173e-06
1.15334e-06
1.17458e-06
1.1723e-06
1.36174e-06
1.41248e-06
1.17387e-06
1.19585e-06
1.17669e-06
1.16379e-06
1.19686e-06
1.17296e-06
1.16735e-06
1.46312e-06
1.35539e-06
1.19782e-06
1.16424e-06
1.16884e-06
1.36903e-06
1.40446e-06
1.40015e-06
1.17429e-06
1.17934e-06
1.17362e-06
1.18482e-06
1.42162e-06
1.41713e-06
1.17457e-06
1.15736e-06
1.1717e-06
1.16629e-06
1.16072e-06
1.18347e-06
1.16007e-06
1.35452e-06
1.40507e-06
1.16071e-06
1.16473e-06
1.15813e-06
1.38632e-06
1.40422e-06
1.41751e-06
1.17449e-06
1.18343e-06
1.18318e-06
1.18121e-06
1.41749e-06
1.41083e-06
1.17248e-06
1.17743e-06
1.18377e-06
1.19003e-06
1.16819e-06
1.18083e-06
1.19098e-06
1.41987e-06
1.42549e-06
1.16631e-06
1.19005e-06
1.19155e-06
1.43492e-06
1.42206e-06
1.42593e-06
1.18621e-06
1.18219e-06
1.19178e-06
1.18884e-06
1.41482e-06
1.42093e-06
1.1871e-06
1.18979e-06
1.19174e-06
1.18578e-06
1.19439e-06
1.18927e-06
1.19373e-06
1.42522e-06
1.41116e-06
1.19508e-06
1.18621e-06
1.19363e-06
1.42061e-06
1.42746e-06
1.41873e-06
1.19217e-06
1.18965e-06
1.19059e-06
1.18968e-06
1.42284e-06
1.41804e-06
1.19189e-06
1.1859e-06
1.19027e-06
1.19264e-06
1.19019e-06
1.18926e-06
1.1857e-06
1.41494e-06
1.42691e-06
1.18985e-06
1.1922e-06
1.18544e-06
1.41037e-06
1.41985e-06
1.41632e-06
1.18962e-06
1.18962e-06
1.18872e-06
1.19161e-06
1.41973e-06
1.4222e-06
1.18959e-06
1.19413e-06
1.189e-06
1.19426e-06
1.18595e-06
1.19146e-06
1.19455e-06
1.43014e-06
1.42336e-06
1.18583e-06
1.19419e-06
1.19488e-06
1.4299e-06
1.41931e-06
1.42498e-06
1.1892e-06
1.19261e-06
1.19406e-06
1.19415e-06
1.42473e-06
1.42388e-06
1.18948e-06
1.193e-06
1.19376e-06
1.19133e-06
1.19631e-06
1.19449e-06
1.196e-06
1.42433e-06
1.41818e-06
1.19649e-06
1.19171e-06
1.19569e-06
1.42329e-06
1.42788e-06
1.42827e-06
1.19533e-06
1.1943e-06
1.19692e-06
1.19511e-06
1.42539e-06
1.42504e-06
1.19497e-06
1.1914e-06
1.19674e-06
1.19464e-06
1.19426e-06
1.19456e-06
1.19239e-06
1.42057e-06
1.42508e-06
1.19392e-06
1.19417e-06
1.19212e-06
1.41995e-06
1.43e-06
1.42812e-06
1.19705e-06
1.19572e-06
1.19737e-06
1.19779e-06
1.42752e-06
1.42923e-06
1.19694e-06
1.1959e-06
1.19733e-06
1.19831e-06
1.19265e-06
1.19753e-06
1.19731e-06
1.4282e-06
1.43018e-06
1.19244e-06
1.19808e-06
1.19727e-06
1.42941e-06
1.4299e-06
1.42888e-06
1.19752e-06
1.19828e-06
1.19797e-06
1.19857e-06
1.43135e-06
1.42977e-06
1.19746e-06
1.19852e-06
1.19785e-06
1.19834e-06
1.19851e-06
1.1986e-06
1.19953e-06
1.43206e-06
1.42909e-06
1.19846e-06
1.19847e-06
1.19943e-06
1.4311e-06
1.4309e-06
1.42984e-06
1.19817e-06
1.19843e-06
1.19827e-06
1.19796e-06
1.43128e-06
1.42852e-06
1.19806e-06
1.19822e-06
1.19819e-06
1.19808e-06
1.1993e-06
1.19783e-06
1.19762e-06
1.4307e-06
1.4293e-06
1.19918e-06
1.19798e-06
1.19753e-06
1.4276e-06
1.4314e-06
1.42923e-06
1.19816e-06
1.19799e-06
1.19777e-06
1.19813e-06
1.43063e-06
1.43033e-06
1.19808e-06
1.19804e-06
1.19764e-06
1.19777e-06
1.1975e-06
1.19796e-06
1.19807e-06
1.4311e-06
1.42927e-06
1.19741e-06
1.19769e-06
1.19796e-06
1.43065e-06
1.43125e-06
1.42815e-06
1.19772e-06
1.19798e-06
1.19692e-06
1.19637e-06
1.4318e-06
1.42694e-06
1.19759e-06
1.19772e-06
1.19689e-06
1.19729e-06
1.19808e-06
1.19625e-06
1.19661e-06
1.43111e-06
1.42904e-06
1.19797e-06
1.19722e-06
1.19656e-06
1.42731e-06
1.42956e-06
1.42829e-06
1.19626e-06
1.19616e-06
1.19566e-06
1.19636e-06
1.42864e-06
1.43001e-06
1.19626e-06
1.19683e-06
1.19561e-06
1.19585e-06
1.19629e-06
1.19629e-06
1.19653e-06
1.43051e-06
1.42804e-06
1.19627e-06
1.19584e-06
1.19646e-06
1.43039e-06
1.43102e-06
1.42875e-06
1.19598e-06
1.19638e-06
1.19607e-06
1.19499e-06
1.43196e-06
1.42676e-06
1.19585e-06
1.19582e-06
1.19595e-06
1.19566e-06
1.19657e-06
1.19485e-06
1.19477e-06
1.4303e-06
1.42847e-06
1.19647e-06
1.1956e-06
1.19466e-06
1.42635e-06
1.42972e-06
1.42178e-06
1.19493e-06
1.19426e-06
1.19124e-06
1.1923e-06
1.42816e-06
1.42489e-06
1.1949e-06
1.19503e-06
1.19117e-06
1.192e-06
1.19397e-06
1.19219e-06
1.19265e-06
1.4297e-06
1.42371e-06
1.19392e-06
1.192e-06
1.19259e-06
1.4261e-06
1.4246e-06
1.42997e-06
1.19115e-06
1.19198e-06
1.19262e-06
1.19172e-06
1.42676e-06
1.42669e-06
1.19107e-06
1.19179e-06
1.19253e-06
1.19205e-06
1.1925e-06
1.19172e-06
1.19171e-06
1.42592e-06
1.42804e-06
1.19242e-06
1.19205e-06
1.19163e-06
1.42587e-06
1.43166e-06
1.41818e-06
1.1926e-06
1.19166e-06
1.18758e-06
1.18855e-06
1.4286e-06
1.42094e-06
1.19252e-06
1.19192e-06
1.18745e-06
1.18771e-06
1.19139e-06
1.18832e-06
1.18864e-06
1.42945e-06
1.41923e-06
1.19131e-06
1.18761e-06
1.18852e-06
1.42195e-06
1.41934e-06
1.42184e-06
1.18623e-06
1.18713e-06
1.18568e-06
1.18546e-06
1.42211e-06
1.42026e-06
1.18614e-06
1.18692e-06
1.1857e-06
1.18649e-06
1.18783e-06
1.18546e-06
1.18585e-06
1.42072e-06
1.4231e-06
1.18768e-06
1.18646e-06
1.1858e-06
1.42055e-06
1.42454e-06
1.42019e-06
1.186e-06
1.18549e-06
1.18479e-06
1.18488e-06
1.42279e-06
1.42055e-06
1.18601e-06
1.18642e-06
1.18457e-06
1.18364e-06
1.18555e-06
1.18464e-06
1.1841e-06
1.425e-06
1.41805e-06
1.1855e-06
1.18351e-06
1.18394e-06
1.4195e-06
1.42157e-06
1.41375e-06
1.18414e-06
1.18429e-06
1.17983e-06
1.17986e-06
1.42193e-06
1.41371e-06
1.18389e-06
1.18315e-06
1.17988e-06
1.18111e-06
1.18389e-06
1.17978e-06
1.18097e-06
1.41962e-06
1.41608e-06
1.18374e-06
1.1812e-06
1.18117e-06
1.41559e-06
1.41473e-06
1.41325e-06
1.17826e-06
1.1785e-06
1.17651e-06
1.17694e-06
1.41483e-06
1.41413e-06
1.17832e-06
1.17938e-06
1.17642e-06
1.17634e-06
1.17904e-06
1.17689e-06
1.17616e-06
1.41697e-06
1.41166e-06
1.17913e-06
1.17613e-06
1.17586e-06
1.41131e-06
1.41772e-06
1.4139e-06
1.17728e-06
1.17743e-06
1.17752e-06
1.17689e-06
1.41792e-06
1.41212e-06
1.17706e-06
1.1766e-06
1.17736e-06
1.17709e-06
1.17653e-06
1.17665e-06
1.17702e-06
1.41561e-06
1.41453e-06
1.17616e-06
1.17698e-06
1.17692e-06
1.41439e-06
1.41405e-06
1.40129e-06
1.17531e-06
1.17464e-06
1.16774e-06
1.16847e-06
1.41254e-06
1.40358e-06
1.17536e-06
1.17595e-06
1.16772e-06
1.16842e-06
1.17572e-06
1.16846e-06
1.16885e-06
1.41514e-06
1.40281e-06
1.1759e-06
1.16844e-06
1.16889e-06
1.40379e-06
1.40417e-06
1.4063e-06
1.16755e-06
1.16823e-06
1.16722e-06
1.16682e-06
1.40636e-06
1.40413e-06
1.16746e-06
1.16781e-06
1.16703e-06
1.16628e-06
1.16835e-06
1.16671e-06
1.1661e-06
1.40442e-06
1.40351e-06
1.16825e-06
1.16602e-06
1.16568e-06
1.40236e-06
1.40877e-06
1.39562e-06
1.16766e-06
1.1671e-06
1.14924e-06
1.14904e-06
1.40605e-06
1.39627e-06
1.16748e-06
1.16678e-06
1.1493e-06
1.15002e-06
1.16644e-06
1.1489e-06
1.14942e-06
1.40654e-06
1.39828e-06
1.16606e-06
1.14999e-06
1.1497e-06
1.39827e-06
1.37214e-06
1.11326e-06
1.11358e-06
1.37361e-06
1.11337e-06
1.11428e-06
6.6716e-07
6.67388e-07
6.67546e-07
1.11437e-06
1.37498e-06
1.11467e-06
5.35663e-07
5.35601e-07
5.35655e-07
5.35655e-07
5.34573e-07
5.35516e-07
5.33634e-07
5.35654e-07
5.34573e-07
5.35517e-07
5.35654e-07
5.33634e-07
5.35256e-07
5.35986e-07
5.35987e-07
1.10713e-06
3.88088e-06
9.33894e-07
4.60608e-06
1.26081e-05
1.66009e-05
1.10724e-06
3.88111e-06
9.33927e-07
4.60646e-06
4.95567e-07
4.95567e-07
4.95567e-07
4.57231e-07
4.57231e-07
4.57232e-07
4.57232e-07
5.43143e-07
1.22027e-06
4.95565e-07
4.85522e-07
5.25341e-07
1.20946e-06
4.82301e-07
1.26097e-05
1.66035e-05
5.43162e-07
4.95565e-07
1.22025e-06
4.85523e-07
5.2532e-07
4.82302e-07
1.20945e-06
2.52172e-06
2.52242e-06
4.8419e-07
2.37249e-06
2.37288e-06
1.4308e-06
5.59344e-06
1.32967e-06
6.13626e-06
2.12846e-05
2.31103e-05
1.4312e-06
5.59408e-06
1.32973e-06
6.13689e-06
4.45572e-07
4.45573e-07
4.45573e-07
4.13542e-07
4.13542e-07
4.13543e-07