/*--------------------------------*- C++ -*----------------------------------*\
| =========                 |                                                 |
| \\      /  F ield         | OpenFOAM: The Open Source CFD Toolbox           |
|  \\    /   O peration     | Version:  v2012                                 |
|   \\  /    A nd           | Website:  www.openfoam.com                      |
|    \\/     M anipulation  |                                                 |
\*---------------------------------------------------------------------------*/
FoamFile
{
    version     2.0;
    format      ascii;
    class       volScalarField;
    location    "500";
    object      k;
}
// * * * * * * * * * * * * * * * * * * * * * * * * * * * * * * * * * * * * * //

dimensions      [0 2 -2 0 0 0 0];


internalField   nonuniform List<scalar> 
171728
(
3.58932e-05
3.58912e-05
3.58912e-05
3.59957e-05
3.39296e-05
3.3889e-05
3.3889e-05
3.39622e-05
3.21578e-05
3.20081e-05
3.20081e-05
3.19522e-05
3.05346e-05
3.02293e-05
3.02292e-05
2.99885e-05
2.90329e-05
2.8554e-05
2.85539e-05
2.81226e-05
2.76353e-05
2.69872e-05
2.69871e-05
2.63907e-05
2.63308e-05
2.5531e-05
2.55309e-05
2.48073e-05
2.51112e-05
2.4185e-05
2.41848e-05
2.33782e-05
2.39709e-05
2.29506e-05
2.29504e-05
2.21046e-05
2.29057e-05
2.18269e-05
2.18267e-05
2.09859e-05
2.1912e-05
2.08114e-05
2.08112e-05
2.00136e-05
2.09865e-05
1.99014e-05
1.9901e-05
1.91812e-05
2.0124e-05
1.90949e-05
1.90946e-05
1.849e-05
1.93239e-05
1.83888e-05
1.83886e-05
1.79348e-05
1.85848e-05
1.77803e-05
1.77802e-05
1.75079e-05
1.7905e-05
1.72694e-05
1.72692e-05
1.72117e-05
1.72812e-05
1.68556e-05
1.68522e-05
1.70466e-05
1.6711e-05
1.65276e-05
1.653e-05
1.70201e-05
1.62047e-05
1.63459e-05
1.63692e-05
1.72891e-05
1.57421e-05
1.62626e-05
1.62085e-05
1.75595e-05
1.5354e-05
1.6304e-05
1.64047e-05
1.85117e-05
1.4959e-05
1.65438e-05
1.62454e-05
1.8234e-05
1.46028e-05
1.63112e-05
1.6269e-05
1.87725e-05
1.43375e-05
1.64595e-05
1.66107e-05
1.9441e-05
1.41025e-05
1.6925e-05
1.70539e-05
2.03474e-05
1.3891e-05
1.6973e-05
1.7084e-05
2.00725e-05
1.37763e-05
1.75726e-05
1.74363e-05
2.11994e-05
1.36065e-05
1.7693e-05
1.86905e-05
2.38272e-05
1.36593e-05
1.92374e-05
1.84654e-05
2.23612e-05
1.36186e-05
1.92631e-05
1.89472e-05
2.55253e-05
1.37267e-05
2.07136e-05
2.03056e-05
2.75644e-05
1.37709e-05
2.09678e-05
2.13538e-05
2.63772e-05
1.38217e-05
2.2028e-05
2.25279e-05
2.71555e-05
1.39436e-05
2.2782e-05
2.27796e-05
3.0037e-05
1.44326e-05
2.44404e-05
2.38264e-05
3.13705e-05
1.45631e-05
2.51826e-05
2.4836e-05
3.10207e-05
1.5029e-05
2.5632e-05
2.59798e-05
3.29652e-05
1.53126e-05
2.67365e-05
2.68425e-05
3.3533e-05
1.56589e-05
2.78593e-05
2.79301e-05
3.44424e-05
1.61585e-05
2.89165e-05
2.89174e-05
3.54582e-05
1.66027e-05
2.99385e-05
2.99246e-05
3.63562e-05
1.72217e-05
3.09941e-05
3.09616e-05
3.72118e-05
1.7768e-05
3.20269e-05
3.20186e-05
3.80716e-05
1.83877e-05
3.30296e-05
3.30547e-05
3.90067e-05
1.90258e-05
3.40403e-05
3.40155e-05
3.98137e-05
1.97282e-05
3.4997e-05
3.50053e-05
4.06166e-05
2.04566e-05
3.59623e-05
3.5988e-05
4.1334e-05
2.12017e-05
3.68996e-05
3.68859e-05
4.21479e-05
2.19509e-05
3.78315e-05
3.78351e-05
4.28513e-05
2.27599e-05
3.86693e-05
3.86639e-05
4.35579e-05
2.35541e-05
3.95445e-05
3.958e-05
4.41862e-05
2.43384e-05
4.03992e-05
4.03535e-05
4.49134e-05
2.51518e-05
4.11206e-05
4.11671e-05
4.5518e-05
2.59909e-05
4.19577e-05
4.19122e-05
4.60475e-05
2.67766e-05
4.26833e-05
4.27088e-05
4.67343e-05
2.76122e-05
4.33711e-05
4.34817e-05
4.72053e-05
2.83704e-05
4.4022e-05
4.39108e-05
4.77124e-05
2.92272e-05
4.47783e-05
4.47702e-05
4.83475e-05
2.99844e-05
4.53313e-05
4.52806e-05
4.87431e-05
3.071e-05
4.60031e-05
4.6132e-05
4.94237e-05
3.15101e-05
4.6292e-05
4.62362e-05
4.93542e-05
3.21659e-05
4.73421e-05
4.73537e-05
5.02645e-05
3.29298e-05
4.741e-05
4.74573e-05
5.07042e-05
3.3699e-05
4.8241e-05
4.76802e-05
5.08579e-05
3.39725e-05
4.8363e-05
4.92197e-05
5.10245e-05
3.52309e-05
4.92118e-05
4.86092e-05
5.0767e-05
3.52549e-05
4.93472e-05
4.87638e-05
5.4104e-05
3.60867e-05
4.89183e-05
5.08726e-05
5.10985e-05
3.67618e-05
5.10778e-05
4.85268e-05
4.97187e-05
3.7148e-05
4.99207e-05
5.19661e-05
5.59171e-05
3.77673e-05
5.05058e-05
5.0589e-05
5.22097e-05
3.7998e-05
5.12418e-05
5.01e-05
5.17012e-05
3.84363e-05
5.11741e-05
5.16182e-05
5.42216e-05
3.91351e-05
5.1716e-05
5.15537e-05
5.41936e-05
3.94998e-05
5.17672e-05
5.1852e-05
5.33145e-05
3.96671e-05
5.18795e-05
5.20842e-05
5.42645e-05
4.00053e-05
5.21681e-05
5.20322e-05
5.42527e-05
4.03878e-05
5.22141e-05
5.21619e-05
5.39173e-05
4.06711e-05
5.24455e-05
5.24712e-05
5.4379e-05
4.09302e-05
5.2624e-05
5.26103e-05
5.46071e-05
4.11644e-05
5.26595e-05
5.26744e-05
5.44813e-05
4.13609e-05
5.27842e-05
5.27457e-05
5.46754e-05
4.15416e-05
5.27775e-05
5.28234e-05
5.45879e-05
4.16721e-05
5.28772e-05
5.28308e-05
5.47761e-05
4.18679e-05
5.29211e-05
5.29394e-05
5.47105e-05
4.19146e-05
5.28674e-05
5.2856e-05
5.46898e-05
4.20656e-05
5.29514e-05
5.29731e-05
5.47762e-05
4.21354e-05
5.29238e-05
5.28573e-05
5.47089e-05
4.2151e-05
5.28245e-05
5.28849e-05
5.46466e-05
4.22529e-05
5.28891e-05
5.28426e-05
5.46728e-05
4.22782e-05
5.28155e-05
5.28446e-05
5.47479e-05
4.22371e-05
5.26731e-05
5.26457e-05
5.42883e-05
4.23323e-05
5.28147e-05
5.28193e-05
5.48315e-05
4.2233e-05
5.24899e-05
5.25009e-05
5.42568e-05
4.18291e-05
5.14093e-05
5.13552e-05
5.38848e-05
3.63068e-05
3.6291e-05
3.6291e-05
3.63068e-05
3.6291e-05
3.6291e-05
3.6423e-05
3.6423e-05
3.6423e-05
3.6423e-05
3.6291e-05
3.6291e-05
3.63068e-05
3.6291e-05
3.6291e-05
3.63068e-05
3.59957e-05
3.42687e-05
3.58912e-05
3.58912e-05
3.43767e-05
3.43766e-05
3.59957e-05
3.42687e-05
3.58911e-05
3.58912e-05
3.43767e-05
3.43766e-05
3.58912e-05
3.43767e-05
3.43767e-05
3.59957e-05
3.42687e-05
3.58912e-05
3.43767e-05
3.43767e-05
3.42687e-05
3.39623e-05
3.22635e-05
3.38889e-05
3.38889e-05
3.24684e-05
3.24683e-05
3.39623e-05
3.22635e-05
3.38889e-05
3.38889e-05
3.24684e-05
3.24683e-05
3.38889e-05
3.24685e-05
3.24684e-05
3.39623e-05
3.22634e-05
3.38889e-05
3.24685e-05
3.24684e-05
3.22634e-05
3.19522e-05
3.02993e-05
3.20079e-05
3.20078e-05
3.06643e-05
3.06642e-05
3.19522e-05
3.02994e-05
3.2008e-05
3.20078e-05
3.06644e-05
3.06641e-05
3.20079e-05
3.06646e-05
3.06643e-05
3.19522e-05
3.02992e-05
3.2008e-05
3.06645e-05
3.06644e-05
3.02992e-05
2.99885e-05
2.84253e-05
3.0229e-05
3.02288e-05
2.89624e-05
2.89622e-05
2.99886e-05
2.84255e-05
3.02291e-05
3.02287e-05
2.89626e-05
2.89621e-05
3.02289e-05
2.89628e-05
2.89623e-05
2.99885e-05
2.84252e-05
3.02291e-05
2.89627e-05
2.89626e-05
2.84252e-05
2.81227e-05
2.6674e-05
2.85536e-05
2.85534e-05
2.7368e-05
2.73678e-05
2.81228e-05
2.66742e-05
2.85538e-05
2.85533e-05
2.73683e-05
2.73676e-05
2.85535e-05
2.73685e-05
2.73679e-05
2.81226e-05
2.66739e-05
2.85538e-05
2.73684e-05
2.73683e-05
2.66738e-05
2.63909e-05
2.50663e-05
2.69866e-05
2.69864e-05
2.58841e-05
2.58838e-05
2.63909e-05
2.50665e-05
2.6987e-05
2.69862e-05
2.58845e-05
2.58836e-05
2.69865e-05
2.58848e-05
2.5884e-05
2.63907e-05
2.50661e-05
2.69869e-05
2.58846e-05
2.58844e-05
2.50661e-05
2.48075e-05
2.36125e-05
2.55304e-05
2.553e-05
2.45102e-05
2.45099e-05
2.48077e-05
2.36126e-05
2.55308e-05
2.55299e-05
2.45107e-05
2.45097e-05
2.55302e-05
2.4511e-05
2.45102e-05
2.48073e-05
2.36123e-05
2.55307e-05
2.45109e-05
2.45107e-05
2.36123e-05
2.33783e-05
2.23124e-05
2.41842e-05
2.41839e-05
2.32479e-05
2.32475e-05
2.33786e-05
2.23127e-05
2.41847e-05
2.41836e-05
2.32484e-05
2.32473e-05
2.41841e-05
2.32488e-05
2.32478e-05
2.33782e-05
2.23123e-05
2.41847e-05
2.32485e-05
2.32484e-05
2.23121e-05
2.2105e-05
2.1168e-05
2.29497e-05
2.29494e-05
2.20966e-05
2.20962e-05
2.2105e-05
2.11683e-05
2.29503e-05
2.29491e-05
2.20972e-05
2.2096e-05
2.29496e-05
2.20976e-05
2.20965e-05
2.21046e-05
2.11679e-05
2.29503e-05
2.20974e-05
2.20972e-05
2.11678e-05
2.09863e-05
2.01709e-05
2.18259e-05
2.18255e-05
2.10542e-05
2.10538e-05
2.09866e-05
2.01709e-05
2.18266e-05
2.18253e-05
2.1055e-05
2.10536e-05
2.18258e-05
2.10553e-05
2.10542e-05
2.09862e-05
2.01704e-05
2.18266e-05
2.10551e-05
2.1055e-05
2.01704e-05
2.00139e-05
1.93145e-05
2.08103e-05
2.08099e-05
2.0118e-05
2.01177e-05
2.00137e-05
1.93151e-05
2.08111e-05
2.08097e-05
2.01188e-05
2.01175e-05
2.08102e-05
2.01192e-05
2.0118e-05
2.00132e-05
1.93149e-05
2.08111e-05
2.0119e-05
2.01189e-05
1.93144e-05
1.91815e-05
1.85908e-05
1.99003e-05
1.98999e-05
1.92858e-05
1.92855e-05
1.91824e-05
1.85909e-05
1.99011e-05
1.98996e-05
1.92866e-05
1.92854e-05
1.99001e-05
1.92869e-05
1.92858e-05
1.9182e-05
1.85916e-05
1.9901e-05
1.92869e-05
1.92867e-05
1.85909e-05
1.84896e-05
1.79991e-05
1.90935e-05
1.90935e-05
1.8555e-05
1.85547e-05
1.84909e-05
1.7998e-05
1.90943e-05
1.90932e-05
1.85559e-05
1.85546e-05
1.90936e-05
1.85559e-05
1.8555e-05
1.8491e-05
1.79989e-05
1.90945e-05
1.8556e-05
1.85559e-05
1.8e-05
1.79334e-05
1.75411e-05
1.83876e-05
1.83877e-05
1.79224e-05
1.79216e-05
1.79347e-05
1.75406e-05
1.83886e-05
1.83873e-05
1.79229e-05
1.79217e-05
1.83875e-05
1.79234e-05
1.79221e-05
1.79356e-05
1.75414e-05
1.83886e-05
1.79234e-05
1.79227e-05
1.75411e-05
1.75076e-05
1.72268e-05
1.7779e-05
1.77789e-05
1.73861e-05
1.73868e-05
1.75083e-05
1.72237e-05
1.77795e-05
1.77788e-05
1.73865e-05
1.73868e-05
1.77785e-05
1.73873e-05
1.7387e-05
1.75086e-05
1.72254e-05
1.77788e-05
1.73872e-05
1.73876e-05
1.72295e-05
1.7209e-05
1.70353e-05
1.72681e-05
1.72685e-05
1.69423e-05
1.6943e-05
1.72076e-05
1.70336e-05
1.72686e-05
1.7268e-05
1.6944e-05
1.6946e-05
1.72668e-05
1.69443e-05
1.6947e-05
1.72097e-05
1.7036e-05
1.72675e-05
1.69469e-05
1.69483e-05
1.70482e-05
1.70321e-05
1.7022e-05
1.68499e-05
1.68537e-05
1.66038e-05
1.65987e-05
1.7034e-05
1.70054e-05
1.68505e-05
1.68532e-05
1.66042e-05
1.66051e-05
1.68508e-05
1.65978e-05
1.66032e-05
1.70366e-05
1.70091e-05
1.68527e-05
1.66048e-05
1.66017e-05
1.70098e-05
1.70292e-05
1.72073e-05
1.65252e-05
1.65291e-05
1.63976e-05
1.64003e-05
1.70189e-05
1.72443e-05
1.65288e-05
1.65312e-05
1.63936e-05
1.63798e-05
1.65298e-05
1.64008e-05
1.6382e-05
1.70181e-05
1.72044e-05
1.65274e-05
1.63823e-05
1.63861e-05
1.72034e-05
1.72964e-05
1.73965e-05
1.63625e-05
1.63491e-05
1.62212e-05
1.62437e-05
1.73093e-05
1.7451e-05
1.63552e-05
1.63645e-05
1.6221e-05
1.6227e-05
1.63505e-05
1.62499e-05
1.62296e-05
1.7307e-05
1.74949e-05
1.63535e-05
1.62271e-05
1.62379e-05
1.74633e-05
1.74817e-05
1.85483e-05
1.62259e-05
1.62512e-05
1.63466e-05
1.62847e-05
1.75945e-05
1.82957e-05
1.62266e-05
1.62097e-05
1.63412e-05
1.63304e-05
1.62328e-05
1.62959e-05
1.6323e-05
1.7509e-05
1.86295e-05
1.62428e-05
1.63342e-05
1.63341e-05
1.84559e-05
1.86579e-05
1.85429e-05
1.6366e-05
1.62987e-05
1.63227e-05
1.65343e-05
1.83659e-05
1.96425e-05
1.63536e-05
1.6408e-05
1.63077e-05
1.63886e-05
1.63246e-05
1.65072e-05
1.62094e-05
1.89192e-05
1.86623e-05
1.63321e-05
1.63669e-05
1.61972e-05
1.82241e-05
1.85258e-05
1.82905e-05
1.6251e-05
1.65627e-05
1.61865e-05
1.63924e-05
1.97669e-05
1.88033e-05
1.62573e-05
1.62607e-05
1.62123e-05
1.6173e-05
1.62034e-05
1.64039e-05
1.62593e-05
1.85135e-05
1.81771e-05
1.61924e-05
1.61809e-05
1.62483e-05
1.86123e-05
1.84138e-05
1.93939e-05
1.6209e-05
1.63104e-05
1.64853e-05
1.63287e-05
1.86874e-05
1.88229e-05
1.62318e-05
1.62612e-05
1.64769e-05
1.65759e-05
1.63273e-05
1.63197e-05
1.64738e-05
1.85766e-05
1.97417e-05
1.63092e-05
1.65879e-05
1.64575e-05
1.93752e-05
1.94913e-05
1.97974e-05
1.65275e-05
1.64677e-05
1.66741e-05
1.68704e-05
1.92922e-05
2.05068e-05
1.65159e-05
1.65977e-05
1.66802e-05
1.69326e-05
1.64954e-05
1.68832e-05
1.67518e-05
1.97881e-05
2.0843e-05
1.64969e-05
1.69254e-05
1.67775e-05
2.00883e-05
2.00405e-05
2.05547e-05
1.68143e-05
1.69176e-05
1.7023e-05
1.69439e-05
2.05183e-05
2.00753e-05
1.68231e-05
1.70669e-05
1.70268e-05
1.71009e-05
1.68607e-05
1.69418e-05
1.69923e-05
2.10537e-05
2.04135e-05
1.68717e-05
1.70935e-05
1.69895e-05
2.01465e-05
2.06198e-05
2.17206e-05
1.7068e-05
1.69775e-05
1.756e-05
1.75062e-05
2.01259e-05
2.14856e-05
1.70701e-05
1.70889e-05
1.75532e-05
1.72635e-05
1.69739e-05
1.7498e-05
1.70688e-05
2.03777e-05
2.09476e-05
1.69722e-05
1.72651e-05
1.70669e-05
2.02059e-05
2.18465e-05
2.15895e-05
1.77028e-05
1.75807e-05
1.77991e-05
1.75963e-05
2.14921e-05
2.08332e-05
1.76941e-05
1.74422e-05
1.77928e-05
1.84231e-05
1.74196e-05
1.75924e-05
1.84642e-05
2.12929e-05
2.4114e-05
1.74147e-05
1.8424e-05
1.84653e-05
2.39088e-05
2.16536e-05
2.43715e-05
1.7857e-05
1.76918e-05
1.88441e-05
1.90397e-05
2.09934e-05
2.50587e-05
1.78554e-05
1.86846e-05
1.88565e-05
1.86377e-05
1.8488e-05
1.90435e-05
1.84199e-05
2.45056e-05
2.2464e-05
1.84936e-05
1.8643e-05
1.84275e-05
2.23213e-05
2.46401e-05
2.45323e-05
1.90975e-05
1.92406e-05
1.92963e-05
1.92569e-05
2.51307e-05
2.38841e-05
1.91026e-05
1.84647e-05
1.92881e-05
1.85235e-05
1.8434e-05
1.92497e-05
1.92438e-05
2.20461e-05
2.26294e-05
1.84397e-05
1.85204e-05
1.92259e-05
2.48879e-05
2.4606e-05
2.6601e-05
1.93907e-05
1.927e-05
2.03263e-05
2.02809e-05
2.39123e-05
2.70277e-05
1.93792e-05
1.89522e-05
2.03394e-05
2.02541e-05
1.96415e-05
2.02783e-05
2.05791e-05
2.39546e-05
2.60565e-05
1.96292e-05
2.02504e-05
2.05937e-05
2.73411e-05
2.68943e-05
2.70303e-05
2.06207e-05
2.07142e-05
2.09692e-05
2.09779e-05
2.74329e-05
2.62897e-05
2.06289e-05
2.03082e-05
2.09538e-05
2.07076e-05
2.08339e-05
2.09817e-05
2.10645e-05
2.6005e-05
2.69393e-05
2.08419e-05
2.07141e-05
2.10481e-05
2.65327e-05
2.70956e-05
2.70557e-05
2.10731e-05
2.09652e-05
2.1596e-05
2.14439e-05
2.62195e-05
2.79515e-05
2.10553e-05
2.1346e-05
2.16031e-05
2.24977e-05
2.10174e-05
2.14288e-05
2.10755e-05
2.80528e-05
2.96135e-05
2.10008e-05
2.24831e-05
2.10731e-05
2.63761e-05
2.70723e-05
2.81525e-05
2.16352e-05
2.20437e-05
2.2046e-05
2.27094e-05
2.86663e-05
2.91317e-05
2.16438e-05
2.25446e-05
2.20451e-05
2.26099e-05
2.14247e-05
2.27051e-05
2.2793e-05
2.95406e-05
2.88027e-05
2.14419e-05
2.26083e-05
2.27895e-05
2.97882e-05
2.91549e-05
3.12086e-05
2.26857e-05
2.27834e-05
2.41228e-05
2.39563e-05
2.91703e-05
3.14131e-05
2.26816e-05
2.2764e-05
2.41243e-05
2.3568e-05
2.30461e-05
2.39542e-05
2.40705e-05
2.89527e-05
3.01185e-05
2.3043e-05
2.35631e-05
2.40757e-05
3.12135e-05
3.12069e-05
3.07562e-05
2.42578e-05
2.44464e-05
2.44246e-05
2.51422e-05
3.19893e-05
3.20689e-05
2.42581e-05
2.38328e-05
2.44171e-05
2.45752e-05
2.43635e-05
2.51424e-05
2.46038e-05
3.03719e-05
3.12605e-05
2.43659e-05
2.45749e-05
2.45978e-05
3.0983e-05
3.10559e-05
3.33919e-05
2.46706e-05
2.51814e-05
2.59864e-05
2.54229e-05
3.20558e-05
3.17501e-05
2.46553e-05
2.48347e-05
2.59818e-05
2.57201e-05
2.46622e-05
2.54218e-05
2.56366e-05
3.15405e-05
3.25705e-05
2.46539e-05
2.57198e-05
2.56313e-05
3.25637e-05
3.36025e-05
3.32978e-05
2.63286e-05
2.5636e-05
2.67544e-05
2.64566e-05
3.19164e-05
3.30229e-05
2.63272e-05
2.59821e-05
2.67544e-05
2.66133e-05
2.60118e-05
2.64478e-05
2.67128e-05
3.27848e-05
3.32387e-05
2.60104e-05
2.6604e-05
2.67132e-05
3.34315e-05
3.33203e-05
3.41765e-05
2.68117e-05
2.67436e-05
2.75173e-05
2.75807e-05
3.33004e-05
3.42231e-05
2.68115e-05
2.68505e-05
2.75161e-05
2.76587e-05
2.68862e-05
2.75824e-05
2.75816e-05
3.3429e-05
3.43665e-05
2.68856e-05
2.76611e-05
2.75782e-05
3.41713e-05
3.45994e-05
3.53228e-05
2.79011e-05
2.78576e-05
2.87744e-05
2.86615e-05
3.44541e-05
3.52105e-05
2.78994e-05
2.79274e-05
2.8771e-05
2.8688e-05
2.7868e-05
2.86552e-05
2.8688e-05
3.45998e-05
3.52119e-05
2.78649e-05
2.86827e-05
2.86858e-05
3.52692e-05
3.54038e-05
3.58983e-05
2.89264e-05
2.89242e-05
2.95617e-05
2.96906e-05
3.54212e-05
3.61192e-05
2.89234e-05
2.89238e-05
2.95578e-05
2.96614e-05
2.89333e-05
2.96897e-05
2.96986e-05
3.539e-05
3.60598e-05
2.89312e-05
2.96615e-05
2.9696e-05
3.61378e-05
3.62299e-05
3.73266e-05
2.98811e-05
2.99372e-05
3.08547e-05
3.07218e-05
3.63148e-05
3.70409e-05
2.98778e-05
2.99223e-05
3.08523e-05
3.07009e-05
2.99648e-05
3.07204e-05
3.07291e-05
3.62779e-05
3.699e-05
2.99618e-05
3.07004e-05
3.07267e-05
3.70277e-05
3.74978e-05
3.78549e-05
3.11214e-05
3.09974e-05
3.17438e-05
3.17829e-05
3.7265e-05
3.79614e-05
3.1119e-05
3.0964e-05
3.17414e-05
3.17572e-05
3.09777e-05
3.1779e-05
3.1734e-05
3.7192e-05
3.79358e-05
3.09756e-05
3.17544e-05
3.17302e-05
3.78692e-05
3.80132e-05
3.87951e-05
3.19749e-05
3.20299e-05
3.27867e-05
3.27746e-05
3.81417e-05
3.87782e-05
3.19728e-05
3.20206e-05
3.27838e-05
3.28041e-05
3.19915e-05
3.27725e-05
3.27812e-05
3.81444e-05
3.88325e-05
3.19875e-05
3.28028e-05
3.27792e-05
3.88052e-05
3.89824e-05
3.94977e-05
3.30309e-05
3.30322e-05
3.37253e-05
3.38031e-05
3.89789e-05
3.9649e-05
3.30282e-05
3.30561e-05
3.37239e-05
3.37796e-05
3.30444e-05
3.38009e-05
3.37967e-05
3.90181e-05
3.95886e-05
3.30425e-05
3.37789e-05
3.37948e-05
3.96347e-05
3.96952e-05
4.04371e-05
3.39781e-05
3.40417e-05
3.47512e-05
3.47564e-05
3.98246e-05
4.0389e-05
3.39767e-05
3.40158e-05
3.47481e-05
3.475e-05
3.40396e-05
3.47558e-05
3.47805e-05
3.97611e-05
4.04085e-05
3.40372e-05
3.47504e-05
3.4777e-05
4.04394e-05
4.06273e-05
4.12166e-05
3.50103e-05
3.49977e-05
3.57453e-05
3.5716e-05
4.05689e-05
4.11858e-05
3.50077e-05
3.50048e-05
3.57435e-05
3.57536e-05
3.50224e-05
3.57135e-05
3.57142e-05
4.06046e-05
4.12437e-05
3.50193e-05
3.57528e-05
3.57123e-05
4.11638e-05
4.13721e-05
4.19714e-05
3.5966e-05
3.5965e-05
3.66706e-05
3.66719e-05
4.13666e-05
4.19759e-05
3.59651e-05
3.59894e-05
3.66691e-05
3.66575e-05
3.59467e-05
3.66703e-05
3.66746e-05
4.14073e-05
4.19282e-05
3.59452e-05
3.66578e-05
3.66732e-05
4.19726e-05
4.21565e-05
4.26065e-05
3.69219e-05
3.69012e-05
3.75545e-05
3.7619e-05
4.21415e-05
4.27282e-05
3.69193e-05
3.68854e-05
3.75523e-05
3.76096e-05
3.69138e-05
3.76167e-05
3.75863e-05
4.20977e-05
4.27279e-05
3.69113e-05
3.76084e-05
3.75838e-05
4.26882e-05
4.27353e-05
4.34896e-05
3.77521e-05
3.78338e-05
3.84996e-05
3.84448e-05
4.28827e-05
4.33315e-05
3.77507e-05
3.78362e-05
3.84974e-05
3.8438e-05
3.78115e-05
3.84458e-05
3.84913e-05
4.28868e-05
4.33357e-05
3.78098e-05
3.84409e-05
3.84895e-05
4.34124e-05
4.36858e-05
4.40866e-05
3.87543e-05
3.86676e-05
3.93638e-05
3.93378e-05
4.34973e-05
4.40816e-05
3.87522e-05
3.86611e-05
3.93625e-05
3.93881e-05
3.86992e-05
3.93348e-05
3.93226e-05
4.35065e-05
4.41471e-05
3.86972e-05
3.93862e-05
3.93201e-05
4.40296e-05
4.41964e-05
4.46889e-05
3.95446e-05
3.95479e-05
4.01406e-05
4.01813e-05
4.42295e-05
4.47681e-05
3.95446e-05
3.95812e-05
4.0139e-05
4.01282e-05
3.95355e-05
4.01801e-05
4.01581e-05
4.42771e-05
4.46612e-05
3.95344e-05
4.01293e-05
4.01582e-05
4.47472e-05
4.48439e-05
4.53251e-05
4.03548e-05
4.04012e-05
4.09471e-05
4.09612e-05
4.49237e-05
4.53031e-05
4.03511e-05
4.03546e-05
4.09452e-05
4.09882e-05
4.03833e-05
4.09613e-05
4.10241e-05
4.48333e-05
4.53744e-05
4.03813e-05
4.09898e-05
4.10218e-05
4.54136e-05
4.54755e-05
4.60507e-05
4.11423e-05
4.11185e-05
4.17967e-05
4.17281e-05
4.54039e-05
4.59902e-05
4.11424e-05
4.1162e-05
4.1796e-05
4.17091e-05
4.11945e-05
4.17287e-05
4.17012e-05
4.54853e-05
4.5917e-05
4.11935e-05
4.1711e-05
4.17008e-05
4.58873e-05
4.61675e-05
4.64546e-05
4.19844e-05
4.19596e-05
4.24475e-05
4.25285e-05
4.61753e-05
4.65772e-05
4.19836e-05
4.19134e-05
4.24431e-05
4.25163e-05
4.18963e-05
4.25238e-05
4.25212e-05
4.60705e-05
4.66067e-05
4.18958e-05
4.2514e-05
4.25174e-05
4.66055e-05
4.66046e-05
4.71635e-05
4.26365e-05
4.26854e-05
4.32479e-05
4.31865e-05
4.66713e-05
4.70716e-05
4.26312e-05
4.27083e-05
4.32501e-05
4.33068e-05
4.27096e-05
4.31893e-05
4.32139e-05
4.67576e-05
4.72413e-05
4.27047e-05
4.33105e-05
4.32161e-05
4.70883e-05
4.72562e-05
4.75053e-05
4.34157e-05
4.33709e-05
4.38222e-05
4.38822e-05
4.72073e-05
4.76044e-05
4.3421e-05
4.34808e-05
4.38221e-05
4.37878e-05
4.33884e-05
4.38798e-05
4.38751e-05
4.73271e-05
4.74166e-05
4.33926e-05
4.37884e-05
4.38761e-05
4.75999e-05
4.76465e-05
4.83493e-05
4.39855e-05
4.4022e-05
4.46354e-05
4.45612e-05
4.77071e-05
4.82317e-05
4.39826e-05
4.39058e-05
4.46305e-05
4.45547e-05
4.40302e-05
4.45625e-05
4.45574e-05
4.74895e-05
4.82635e-05
4.40284e-05
4.45584e-05
4.45508e-05
4.82012e-05
4.84653e-05
4.86276e-05
4.48263e-05
4.47781e-05
4.51983e-05
4.52335e-05
4.84087e-05
4.867e-05
4.48217e-05
4.47703e-05
4.52028e-05
4.51447e-05
4.47466e-05
4.52322e-05
4.52447e-05
4.8405e-05
4.85362e-05
4.47407e-05
4.51454e-05
4.5248e-05
4.86764e-05
4.87033e-05
4.90535e-05
4.53238e-05
4.53344e-05
4.57722e-05
4.5817e-05
4.87252e-05
4.92178e-05
4.53281e-05
4.52775e-05
4.5762e-05
4.59636e-05
4.53506e-05
4.58109e-05
4.57801e-05
4.86178e-05
4.94933e-05
4.53532e-05
4.59614e-05
4.57748e-05
4.92119e-05
4.91217e-05
4.96958e-05
4.58645e-05
4.60102e-05
4.63752e-05
4.6228e-05
4.93447e-05
4.9248e-05
4.58582e-05
4.61362e-05
4.63853e-05
4.62045e-05
4.60112e-05
4.62402e-05
4.64113e-05
4.95468e-05
4.90454e-05
4.6007e-05
4.62099e-05
4.64184e-05
4.93905e-05
4.99783e-05
4.98294e-05
4.66347e-05
4.62786e-05
4.69649e-05
4.70914e-05
4.92705e-05
5.05851e-05
4.66418e-05
4.62276e-05
4.69574e-05
4.7105e-05
4.64083e-05
4.70544e-05
4.65682e-05
4.907e-05
5.06775e-05
4.64154e-05
4.70716e-05
4.65642e-05
4.98024e-05
4.96747e-05
5.02487e-05
4.6932e-05
4.73778e-05
4.70955e-05
4.74304e-05
5.07757e-05
4.99081e-05
4.69231e-05
4.73909e-05
4.70927e-05
4.74635e-05
4.69585e-05
4.74567e-05
4.77786e-05
5.08231e-05
5.00251e-05
4.69442e-05
4.74901e-05
4.77812e-05
5.0787e-05
5.09967e-05
5.14572e-05
4.76283e-05
4.73795e-05
4.83515e-05
4.78066e-05
4.98368e-05
5.12158e-05
4.76356e-05
4.74205e-05
4.8359e-05
4.75256e-05
4.77886e-05
4.77603e-05
4.78025e-05
4.99941e-05
5.03477e-05
4.77958e-05
4.7508e-05
4.78136e-05
5.06245e-05
5.08137e-05
4.94096e-05
4.82049e-05
4.83064e-05
4.77052e-05
4.84702e-05
5.16184e-05
5.0695e-05
4.82063e-05
4.77722e-05
4.76822e-05
4.88378e-05
4.79065e-05
4.84882e-05
4.84443e-05
5.05363e-05
5.2326e-05
4.79107e-05
4.88842e-05
4.84049e-05
5.10758e-05
5.02441e-05
5.37606e-05
4.79051e-05
4.83069e-05
4.9697e-05
4.85889e-05
5.04612e-05
5.19598e-05
4.78864e-05
4.91393e-05
4.97857e-05
4.91081e-05
4.84414e-05
4.85927e-05
4.83649e-05
5.26744e-05
5.10347e-05
4.84126e-05
4.91365e-05
4.84096e-05
5.06036e-05
5.34833e-05
4.954e-05
4.96829e-05
4.92961e-05
4.85899e-05
4.97278e-05
5.26843e-05
5.20424e-05
4.97659e-05
4.86579e-05
4.84953e-05
4.828e-05
4.84416e-05
4.96499e-05
5.00795e-05
5.0324e-05
5.02668e-05
4.85202e-05
4.82352e-05
4.99313e-05
5.37562e-05
4.95747e-05
5.31988e-05
4.85346e-05
4.9347e-05
4.96189e-05
4.86127e-05
5.13307e-05
4.98736e-05
4.84311e-05
4.87628e-05
4.97561e-05
5.08772e-05
5.04698e-05
4.87244e-05
5.02366e-05
5.17738e-05
5.51651e-05
5.03024e-05
5.1014e-05
5.02579e-05
5.18806e-05
5.34473e-05
5.23315e-05
5.00922e-05
4.88131e-05
5.02698e-05
5.1156e-05
5.06957e-05
5.50575e-05
5.02954e-05
5.07503e-05
5.03097e-05
4.86473e-05
4.94911e-05
5.10147e-05
4.8451e-05
5.42151e-05
4.84439e-05
4.97053e-05
4.85633e-05
4.8488e-05
4.91419e-05
5.22394e-05
5.26576e-05
5.02048e-05
5.12401e-05
5.02634e-05
5.02086e-05
5.50343e-05
5.12518e-05
5.00865e-05
4.86253e-05
5.00831e-05
5.12221e-05
4.85773e-05
5.01819e-05
5.15085e-05
4.85447e-05
5.60237e-05
4.8564e-05
5.11913e-05
5.13225e-05
5.57293e-05
5.29087e-05
5.31949e-05
5.04447e-05
4.98675e-05
5.07991e-05
4.99434e-05
5.10493e-05
5.2474e-05
5.03627e-05
5.19086e-05
5.09754e-05
5.13496e-05
5.19637e-05
5.00587e-05
5.1471e-05
5.63154e-05
5.20286e-05
5.19472e-05
5.14789e-05
5.16941e-05
5.27387e-05
5.31592e-05
5.27048e-05
5.08055e-05
5.0383e-05
5.07588e-05
5.13001e-05
5.29799e-05
5.38073e-05
5.09628e-05
5.05145e-05
5.06982e-05
4.99646e-05
5.07846e-05
5.12433e-05
5.00396e-05
5.13778e-05
5.17849e-05
5.09533e-05
4.99335e-05
4.99706e-05
5.13622e-05
5.27173e-05
5.3279e-05
5.0757e-05
5.1308e-05
5.10308e-05
5.1211e-05
5.3743e-05
5.32042e-05
5.06765e-05
5.01547e-05
5.09321e-05
5.15212e-05
5.00635e-05
5.11617e-05
5.11169e-05
5.24458e-05
5.42541e-05
4.99883e-05
5.14947e-05
5.10933e-05
5.39128e-05
5.34698e-05
5.39838e-05
5.12151e-05
5.12142e-05
5.17113e-05
5.15325e-05
5.32408e-05
5.37809e-05
5.12097e-05
5.16165e-05
5.17547e-05
5.15372e-05
5.15584e-05
5.15917e-05
5.19992e-05
5.42373e-05
5.33397e-05
5.15804e-05
5.15713e-05
5.20276e-05
5.43132e-05
5.40425e-05
5.39264e-05
5.18207e-05
5.16627e-05
5.18952e-05
5.17743e-05
5.38533e-05
5.37607e-05
5.1836e-05
5.15194e-05
5.1873e-05
5.16821e-05
5.19801e-05
5.17829e-05
5.16311e-05
5.33441e-05
5.39062e-05
5.19992e-05
5.16881e-05
5.16134e-05
5.33081e-05
5.39126e-05
5.36725e-05
5.18808e-05
5.17731e-05
5.17848e-05
5.1833e-05
5.37666e-05
5.38658e-05
5.18585e-05
5.18715e-05
5.18024e-05
5.20944e-05
5.15921e-05
5.17909e-05
5.17665e-05
5.40767e-05
5.41888e-05
5.15813e-05
5.2083e-05
5.18021e-05
5.40655e-05
5.36851e-05
5.39959e-05
5.17819e-05
5.19087e-05
5.19661e-05
5.20909e-05
5.39492e-05
5.40911e-05
5.18026e-05
5.20908e-05
5.19779e-05
5.20092e-05
5.20079e-05
5.21298e-05
5.22689e-05
5.41696e-05
5.387e-05
5.20459e-05
5.20423e-05
5.22731e-05
5.42959e-05
5.40958e-05
5.4279e-05
5.20803e-05
5.21273e-05
5.22992e-05
5.21974e-05
5.41104e-05
5.41111e-05
5.20747e-05
5.19984e-05
5.2284e-05
5.20753e-05
5.22596e-05
5.21958e-05
5.2128e-05
5.38766e-05
5.40279e-05
5.22589e-05
5.20795e-05
5.21133e-05
5.38979e-05
5.43139e-05
5.43613e-05
5.2339e-05
5.2235e-05
5.24264e-05
5.24004e-05
5.41533e-05
5.43529e-05
5.23285e-05
5.21781e-05
5.24285e-05
5.24264e-05
5.21203e-05
5.23802e-05
5.2269e-05
5.41245e-05
5.43991e-05
5.21069e-05
5.24057e-05
5.22727e-05
5.42715e-05
5.43863e-05
5.44319e-05
5.24566e-05
5.24585e-05
5.25411e-05
5.25879e-05
5.44073e-05
5.45026e-05
5.24596e-05
5.24845e-05
5.2541e-05
5.25794e-05
5.23924e-05
5.25944e-05
5.26382e-05
5.44434e-05
5.44835e-05
5.23959e-05
5.25878e-05
5.26384e-05
5.45854e-05
5.44664e-05
5.45432e-05
5.2573e-05
5.26136e-05
5.26631e-05
5.26416e-05
5.45247e-05
5.44965e-05
5.25722e-05
5.25975e-05
5.26628e-05
5.26508e-05
5.26676e-05
5.26505e-05
5.26597e-05
5.45004e-05
5.45212e-05
5.2667e-05
5.26601e-05
5.26589e-05
5.44732e-05
5.45654e-05
5.45801e-05
5.26836e-05
5.26572e-05
5.27244e-05
5.27575e-05
5.45148e-05
5.46365e-05
5.26842e-05
5.26712e-05
5.27241e-05
5.27242e-05
5.26544e-05
5.27534e-05
5.27238e-05
5.45443e-05
5.45789e-05
5.2654e-05
5.27209e-05
5.27239e-05
5.46247e-05
5.46128e-05
5.46579e-05
5.27508e-05
5.27839e-05
5.28129e-05
5.2782e-05
5.46673e-05
5.45655e-05
5.27482e-05
5.27445e-05
5.28131e-05
5.28126e-05
5.27799e-05
5.27868e-05
5.28018e-05
5.46076e-05
5.46535e-05
5.27786e-05
5.28183e-05
5.28008e-05
5.45848e-05
5.46626e-05
5.45662e-05
5.28112e-05
5.27749e-05
5.27924e-05
5.28211e-05
5.45715e-05
5.46967e-05
5.28123e-05
5.28218e-05
5.27968e-05
5.28203e-05
5.2789e-05
5.2817e-05
5.2819e-05
5.4669e-05
5.46237e-05
5.27903e-05
5.28208e-05
5.28261e-05
5.47054e-05
5.4615e-05
5.48811e-05
5.28055e-05
5.2875e-05
5.29635e-05
5.29195e-05
5.47574e-05
5.473e-05
5.28087e-05
5.28272e-05
5.29613e-05
5.29321e-05
5.28828e-05
5.2926e-05
5.29257e-05
5.4654e-05
5.47943e-05
5.28869e-05
5.29367e-05
5.29234e-05
5.47126e-05
5.48908e-05
5.44762e-05
5.29651e-05
5.2917e-05
5.28341e-05
5.28764e-05
5.47326e-05
5.46436e-05
5.29635e-05
5.29379e-05
5.28369e-05
5.2871e-05
5.29132e-05
5.28724e-05
5.28745e-05
5.48115e-05
5.45833e-05
5.29111e-05
5.28696e-05
5.28766e-05
5.46563e-05
5.44783e-05
5.48954e-05
5.28096e-05
5.28685e-05
5.29192e-05
5.28943e-05
5.46551e-05
5.47437e-05
5.28115e-05
5.28522e-05
5.29186e-05
5.29188e-05
5.28751e-05
5.29082e-05
5.29228e-05
5.45887e-05
5.48389e-05
5.28772e-05
5.2933e-05
5.29234e-05
5.47506e-05
5.49834e-05
5.46191e-05
5.30003e-05
5.29436e-05
5.29729e-05
5.29649e-05
5.47984e-05
5.47459e-05
5.30004e-05
5.29672e-05
5.29714e-05
5.29235e-05
5.29421e-05
5.29619e-05
5.29402e-05
5.48933e-05
5.45775e-05
5.29428e-05
5.29188e-05
5.29401e-05
5.47102e-05
5.45562e-05
5.45656e-05
5.28719e-05
5.29302e-05
5.27898e-05
5.28103e-05
5.47201e-05
5.4541e-05
5.28691e-05
5.28574e-05
5.27912e-05
5.28401e-05
5.29173e-05
5.28189e-05
5.28491e-05
5.45551e-05
5.46981e-05
5.29153e-05
5.28483e-05
5.28492e-05
5.46214e-05
5.4682e-05
5.47404e-05
5.28241e-05
5.28153e-05
5.2895e-05
5.28826e-05
5.46027e-05
5.47452e-05
5.28296e-05
5.2879e-05
5.28968e-05
5.28639e-05
5.28482e-05
5.28827e-05
5.28479e-05
5.47689e-05
5.46173e-05
5.2849e-05
5.2863e-05
5.28476e-05
5.46517e-05
5.47445e-05
5.46563e-05
5.28954e-05
5.28909e-05
5.28665e-05
5.28637e-05
5.47605e-05
5.46291e-05
5.28944e-05
5.28426e-05
5.28616e-05
5.28433e-05
5.28551e-05
5.28621e-05
5.28756e-05
5.46195e-05
5.4702e-05
5.28522e-05
5.28483e-05
5.28769e-05
5.47489e-05
5.46435e-05
5.42758e-05
5.28268e-05
5.28145e-05
5.2629e-05
5.26563e-05
5.46091e-05
5.4348e-05
5.28285e-05
5.28384e-05
5.26331e-05
5.2651e-05
5.28627e-05
5.26632e-05
5.26401e-05
5.47129e-05
5.42978e-05
5.28668e-05
5.26528e-05
5.2637e-05
5.42659e-05
5.43199e-05
5.49217e-05
5.26378e-05
5.26661e-05
5.28508e-05
5.28207e-05
5.44094e-05
5.48334e-05
5.26401e-05
5.26467e-05
5.28437e-05
5.28053e-05
5.26391e-05
5.28187e-05
5.28053e-05
5.43163e-05
5.48257e-05
5.26319e-05
5.28021e-05
5.27974e-05
5.48222e-05
5.49192e-05
5.4088e-05
5.28521e-05
5.28178e-05
5.2511e-05
5.25336e-05
5.48178e-05
5.41745e-05
5.28465e-05
5.2819e-05
5.25211e-05
5.25865e-05
5.28146e-05
5.25345e-05
5.2586e-05
5.48387e-05
5.42304e-05
5.28127e-05
5.26016e-05
5.26078e-05
5.42564e-05
5.40894e-05
5.41248e-05
5.24436e-05
5.24836e-05
5.23091e-05
5.23286e-05
5.41904e-05
5.41183e-05
5.24495e-05
5.24897e-05
5.23064e-05
5.22738e-05
5.25081e-05
5.23381e-05
5.23041e-05
5.42228e-05
5.40025e-05
5.25195e-05
5.22746e-05
5.22906e-05
5.40272e-05
5.40202e-05
5.14099e-05
5.14024e-05
5.39743e-05
5.14062e-05
5.13561e-05
4.18333e-05
4.1812e-05
4.18162e-05
5.13691e-05
5.38888e-05
5.13569e-05
3.73773e-05
3.73765e-05
3.7377e-05
3.7377e-05
3.73701e-05
3.73777e-05
3.73043e-05
3.73768e-05
3.73701e-05
3.73777e-05
3.73768e-05
3.73043e-05
3.73741e-05
3.72959e-05
3.72959e-05
3.58797e-05
4.08725e-05
3.66033e-05
4.51461e-05
5.51147e-05
6.48947e-05
3.58803e-05
4.08716e-05
3.66034e-05
4.5146e-05
3.58932e-05
3.58933e-05
3.58932e-05
3.44005e-05
3.44005e-05
3.44005e-05
3.44005e-05
3.52758e-05
3.56385e-05
3.58929e-05
3.53771e-05
3.60476e-05
3.42364e-05
3.53822e-05
5.51168e-05
6.48989e-05
3.52758e-05
3.58929e-05
3.56381e-05
3.53771e-05
3.60475e-05
3.53822e-05
3.42374e-05
3.6597e-05
3.65976e-05
3.5279e-05
3.40643e-05
3.40634e-05
3.39657e-05
5.13543e-05
3.46793e-05
5.46241e-05
7.65453e-05
8.0861e-05
3.39681e-05
5.13551e-05
3.46789e-05
5.46246e-05
3.39296e-05
3.39297e-05
3.39297e-05
3.25854e-05
3.25854e-05
3.25855e-05