/*--------------------------------*- C++ -*----------------------------------*\
| =========                 |                                                 |
| \\      /  F ield         | OpenFOAM: The Open Source CFD Toolbox           |
|  \\    /   O peration     | Version:  v2012                                 |
|   \\  /    A nd           | Website:  www.openfoam.com                      |
|    \\/     M anipulation  |                                                 |
\*---------------------------------------------------------------------------*/
FoamFile
{
    version     2.0;
    format      ascii;
    class       volScalarField;
    location    "500";
    object      nut;
}
// * * * * * * * * * * * * * * * * * * * * * * * * * * * * * * * * * * * * * //

dimensions      [0 2 -1 0 0 0 0];


internalField   nonuniform List<scalar> 
171728
(
0.000233973
0.000233116
0.000233116
0.000233423
0.000232532
0.000227802
0.000227801
0.000223867
0.000230516
0.00022032
0.000220318
0.000209109
0.000227799
0.000211665
0.000211661
0.000193785
0.000224433
0.00020265
0.000202644
0.000179709
0.000220552
0.000193772
0.000193765
0.000167339
0.000216304
0.000185275
0.000185268
0.000156587
0.00021182
0.000177234
0.000177226
0.000147206
0.000207207
0.000169688
0.00016968
0.00013895
0.000202545
0.00016261
0.000162603
0.000131612
0.000197889
0.000155949
0.00015594
0.000124954
0.000193275
0.000149644
0.000149635
0.00011881
0.00018868
0.000143663
0.000143652
0.000113162
0.000184147
0.000137942
0.000137934
0.000107911
0.000179703
0.00013245
0.00013242
0.000102968
0.000175341
0.000127136
0.000127156
9.82721e-05
0.00017099
0.000121971
0.000121956
9.38414e-05
0.000166703
0.000116861
0.000116762
8.92878e-05
0.000162476
0.000112282
0.000112994
8.68377e-05
0.000158333
0.000108142
0.000107478
8.4919e-05
0.000155234
0.000105558
0.000109034
9.16939e-05
0.000150596
0.000107334
0.000102159
8.31256e-05
0.000145933
9.87737e-05
9.79748e-05
8.30649e-05
0.000142154
9.6367e-05
9.71896e-05
8.34743e-05
0.000138213
9.69276e-05
9.85794e-05
8.95189e-05
0.000134117
9.26685e-05
9.20719e-05
7.48673e-05
0.000130821
9.17337e-05
8.92244e-05
7.95132e-05
0.000125522
8.62953e-05
0.00010068
9.69963e-05
0.000124274
9.68931e-05
8.88518e-05
7.42838e-05
0.000120252
8.92156e-05
8.77665e-05
9.15509e-05
0.000119337
9.91204e-05
9.17838e-05
0.000108534
0.000116899
9.33642e-05
9.6524e-05
8.98875e-05
0.000112257
9.7069e-05
0.000102113
8.79207e-05
0.000109383
9.58521e-05
9.78977e-05
0.000103532
0.000112308
0.000105995
0.000100732
0.00011056
0.000108618
0.000107243
0.000103351
0.000101839
0.000110974
0.000104823
0.000107397
0.000111893
0.000109345
0.000108082
0.000108783
0.000111577
0.000108669
0.000111687
0.000112309
0.000113898
0.000109647
0.000114873
0.000114919
0.000117108
0.000109514
0.00011772
0.000117689
0.000119757
0.000111795
0.000121041
0.000120746
0.000122079
0.000112771
0.000124244
0.000124156
0.000124491
0.000114488
0.000127377
0.000127604
0.000127729
0.00011615
0.000130716
0.000130442
0.000130266
0.000118533
0.000133691
0.000133729
0.00013288
0.000121107
0.000136909
0.000137132
0.000134933
0.000123802
0.000140144
0.000140012
0.000137846
0.000126328
0.000143475
0.000143443
0.000140216
0.000129704
0.000146187
0.00014615
0.000142624
0.000132843
0.000149361
0.000149665
0.000144461
0.000135762
0.000152747
0.000152323
0.00014748
0.00013909
0.000154884
0.000155311
0.000149478
0.000142817
0.000158426
0.000157864
0.000151096
0.000145925
0.000161136
0.000161282
0.000154062
0.000149772
0.000163778
0.000164808
0.000155502
0.000152626
0.000165931
0.000165204
0.000157085
0.000157011
0.000169624
0.000169396
0.000160092
0.00016046
0.000171575
0.000171055
0.000160955
0.000163176
0.000174918
0.000176048
0.000165846
0.000168196
0.000174294
0.000173825
0.000161505
0.000169443
0.000182024
0.000182108
0.000168051
0.000175018
0.00017923
0.000180164
0.000169602
0.000178076
0.000185643
0.000178978
0.000171104
0.000177411
0.000182929
0.000193587
0.000168854
0.000189021
0.000191591
0.000182571
0.000162831
0.000183867
0.000188554
0.000185487
0.000197641
0.000190346
0.000182961
0.000203835
0.000167224
0.000194451
0.000203316
0.000177012
0.000152528
0.000195887
0.000190223
0.000210054
0.000205738
0.000200893
0.000194202
0.000195813
0.000175293
0.000200266
0.000199846
0.000189832
0.000167179
0.000202117
0.000198081
0.000202149
0.000186285
0.00020822
0.000202425
0.000200391
0.0001868
0.000210912
0.000202207
0.000202783
0.000178496
0.000210789
0.000202788
0.000204872
0.000186097
0.000212851
0.000204959
0.000203834
0.000186128
0.000215789
0.000204792
0.000204332
0.000182672
0.000217759
0.000206549
0.000206779
0.000185791
0.000219681
0.000208076
0.000207958
0.000187751
0.000221482
0.000208347
0.000208497
0.000186489
0.000223122
0.00020966
0.000209235
0.000188287
0.000224555
0.000209549
0.000210002
0.000187234
0.00022563
0.000210749
0.000210249
0.000189137
0.000227817
0.000211465
0.000211631
0.000188645
0.000227925
0.000211096
0.000210964
0.000188588
0.000229912
0.000212585
0.000212786
0.000189722
0.000230732
0.000212647
0.000211951
0.00018937
0.000230977
0.000212101
0.000212764
0.000189092
0.000232741
0.00021363
0.000213079
0.000189937
0.000233266
0.000213239
0.000213652
0.00019058
0.000233083
0.000212631
0.000212109
0.000187456
0.000235192
0.00021489
0.000215016
0.000192511
0.000234476
0.000212493
0.000212663
0.000188618
0.00023607
0.000213604
0.00021299
0.000189912
0.000234266
0.000234448
0.000234449
0.000234267
0.000234448
0.000234449
0.000234274
0.000234274
0.000234274
0.000234274
0.000234448
0.000234448
0.000234266
0.000234448
0.000234448
0.000234266
0.000233423
0.000226204
0.000233116
0.000233114
0.000229361
0.000229357
0.000233423
0.000226205
0.000233114
0.000233114
0.000229359
0.000229356
0.000233116
0.000229364
0.000229361
0.000233423
0.000226202
0.000233114
0.000229363
0.000229359
0.000226202
0.000223867
0.00021223
0.000227799
0.000227794
0.000222332
0.000222326
0.000223868
0.000212234
0.000227797
0.000227792
0.000222332
0.000222323
0.000227798
0.000222339
0.000222331
0.000223866
0.000212227
0.000227797
0.000222336
0.000222331
0.000212228
0.000209111
0.00019706
0.000220313
0.000220307
0.000213879
0.000213874
0.000209112
0.000197066
0.000220314
0.000220304
0.000213883
0.000213869
0.000220311
0.00021389
0.000213877
0.000209108
0.000197056
0.000220313
0.000213886
0.000213882
0.000197057
0.000193788
0.000182876
0.000211654
0.000211648
0.00020489
0.000204884
0.000193792
0.000182882
0.000211658
0.000211643
0.000204897
0.000204879
0.000211651
0.000204905
0.000204887
0.000193785
0.000182872
0.000211657
0.000204899
0.000204896
0.000182872
0.000179713
0.000170268
0.000202634
0.000202628
0.000195942
0.000195938
0.000179717
0.000170274
0.000202643
0.000202623
0.000195954
0.000195931
0.000202631
0.000195962
0.00019594
0.000179708
0.000170264
0.000202641
0.000195955
0.000195953
0.000170264
0.000167344
0.000159242
0.000193753
0.000193747
0.000187336
0.000187331
0.000167349
0.00015925
0.000193765
0.000193741
0.000187351
0.000187324
0.00019375
0.000187359
0.000187334
0.000167339
0.000159238
0.000193764
0.000187351
0.00018735
0.000159237
0.000156592
0.000149613
0.000185253
0.000185247
0.000179172
0.000179168
0.000156597
0.000149619
0.000185268
0.00018524
0.000179191
0.00017916
0.000185249
0.000179198
0.00017917
0.000156587
0.000149608
0.000185267
0.00017919
0.00017919
0.000149608
0.00014721
0.000141107
0.000177208
0.000177203
0.000171501
0.000171496
0.000147217
0.000141113
0.000177227
0.000177195
0.000171521
0.000171488
0.000177205
0.000171529
0.000171498
0.000147207
0.000141101
0.000177226
0.00017152
0.000171521
0.0001411
0.000138957
0.000133546
0.00016966
0.000169655
0.000164309
0.000164304
0.00013896
0.000133554
0.000169681
0.000169647
0.000164333
0.000164297
0.000169657
0.000164339
0.000164308
0.000138949
0.000133541
0.00016968
0.000164331
0.000164332
0.000133539
0.00013162
0.000126685
0.00016258
0.000162575
0.000157546
0.000157541
0.000131627
0.00012669
0.000162604
0.000162567
0.000157572
0.000157533
0.000162579
0.000157579
0.000157545
0.000131615
0.000126677
0.000162603
0.00015757
0.000157572
0.000126677
0.000124959
0.000120357
0.000155915
0.000155911
0.000151155
0.000151151
0.000124962
0.000120365
0.000155941
0.000155902
0.000151183
0.000151144
0.000155913
0.000151191
0.000151156
0.00012495
0.000120358
0.000155941
0.000151183
0.000151185
0.000120353
0.000118816
0.000114422
0.000149609
0.000149606
0.000145097
0.00014509
0.000118827
0.000114418
0.000149637
0.000149595
0.000145125
0.000145083
0.000149608
0.000145131
0.000145098
0.000118819
0.000114418
0.000149636
0.000145124
0.000145125
0.000114417
0.000113161
0.000108812
0.000143623
0.000143624
0.000139313
0.000139304
0.000113173
0.000108795
0.00014365
0.000143612
0.000139344
0.000139301
0.000143626
0.000139348
0.000139313
0.000113168
0.0001088
0.000143655
0.000139346
0.000139348
0.00010882
0.000107897
0.000103624
0.000137898
0.000137897
0.000133762
0.000133744
0.000107908
0.000103616
0.000137929
0.000137887
0.000133786
0.000133742
0.000137896
0.000133797
0.000133765
0.000107916
0.000103606
0.000137931
0.000133786
0.00013379
0.000103618
0.000102961
9.89904e-05
0.000132401
0.000132404
0.000128406
0.000128412
0.00010296
9.89282e-05
0.000132418
0.000132379
0.000128439
0.000128386
0.000132389
0.000128446
0.000128422
0.000102949
9.89472e-05
0.000132406
0.000128434
0.000128447
9.8999e-05
9.82349e-05
9.44739e-05
0.000127099
0.000127098
0.000123176
0.000123129
9.81851e-05
9.43768e-05
0.000127133
0.000127094
0.0001232
0.000123242
0.000127097
0.00012319
0.000123259
9.82176e-05
9.44697e-05
0.000127126
0.000123308
0.000123305
9.46507e-05
9.36416e-05
9.03421e-05
0.000121891
0.000121904
0.000118117
0.000118026
9.35067e-05
9.00837e-05
0.000121935
0.000121935
0.000118193
0.000118059
0.000121948
0.000118043
0.000118155
9.36608e-05
8.99753e-05
0.00012198
0.000118052
0.000118109
9.01851e-05
8.94397e-05
8.74641e-05
0.000116805
0.000116856
0.000113856
0.00011376
8.92692e-05
8.73373e-05
0.000116919
0.000116772
0.000113814
0.000113778
0.000116909
0.000113694
0.000113647
8.89827e-05
8.76605e-05
0.000116854
0.000113864
0.000113617
8.74307e-05
8.67386e-05
8.3103e-05
0.000112574
0.000112408
0.000108491
0.000108783
8.64217e-05
8.30627e-05
0.000112497
0.000112879
0.000108612
0.000108206
0.000112515
0.000108978
0.000109034
8.74222e-05
8.29356e-05
0.000112465
0.00010832
0.000109179
8.45989e-05
8.31665e-05
9.25978e-05
0.00010804
0.000107799
0.000108575
0.000105641
8.2955e-05
8.49272e-05
0.000108175
0.000107348
0.000108417
0.000108202
0.000108728
0.0001059
0.000108377
8.21686e-05
9.34815e-05
0.000108945
0.000108379
0.00010863
9.22177e-05
9.31008e-05
8.85327e-05
0.000108416
0.000105435
0.000105192
0.000107759
8.51059e-05
9.9114e-05
0.000108102
0.000109005
0.000104929
0.000105363
0.000107633
0.000107452
0.000103189
9.61474e-05
8.77715e-05
0.000107832
0.000105049
0.000103183
8.44152e-05
8.67064e-05
7.99316e-05
0.000103043
0.000107466
9.89635e-05
0.000101247
9.98601e-05
8.39537e-05
0.000103111
0.000102374
9.93368e-05
9.81005e-05
0.000102077
0.000101425
9.9861e-05
8.42672e-05
7.71828e-05
0.00010206
9.81663e-05
9.9638e-05
8.27207e-05
7.99828e-05
8.41301e-05
9.81959e-05
9.87677e-05
9.76817e-05
9.55493e-05
8.09586e-05
7.86331e-05
9.85087e-05
9.78742e-05
9.75677e-05
9.75791e-05
9.95334e-05
9.5472e-05
9.74669e-05
7.94623e-05
8.44462e-05
9.9194e-05
9.78475e-05
9.72514e-05
8.39284e-05
8.35469e-05
8.25357e-05
9.69408e-05
9.64026e-05
9.50791e-05
9.78041e-05
8.20811e-05
9.03512e-05
9.67952e-05
9.69154e-05
9.51567e-05
9.83675e-05
9.65893e-05
9.80144e-05
9.72673e-05
8.4068e-05
9.26844e-05
9.66221e-05
9.8329e-05
9.75799e-05
8.79059e-05
8.32228e-05
8.25308e-05
9.52451e-05
9.67876e-05
9.31972e-05
9.30841e-05
8.8616e-05
8.04143e-05
9.53558e-05
9.86934e-05
9.32882e-05
9.4249e-05
9.75463e-05
9.31493e-05
9.26142e-05
9.35208e-05
8.11474e-05
9.76781e-05
9.42435e-05
9.26287e-05
7.83461e-05
8.21647e-05
8.73451e-05
9.26051e-05
9.26324e-05
9.40145e-05
9.35629e-05
8.02648e-05
8.59337e-05
9.26838e-05
9.20445e-05
9.39368e-05
8.84148e-05
9.01355e-05
9.34895e-05
8.70717e-05
7.89275e-05
7.63579e-05
9.01673e-05
8.84474e-05
8.70528e-05
7.23728e-05
8.60919e-05
7.64302e-05
9.35022e-05
9.18133e-05
8.86804e-05
8.62046e-05
8.28365e-05
7.0554e-05
9.33754e-05
8.92774e-05
8.86067e-05
9.84027e-05
9.00324e-05
8.6218e-05
9.7872e-05
7.83146e-05
0.000105819
8.99605e-05
9.84391e-05
9.78825e-05
9.9889e-05
7.59247e-05
9.31111e-05
8.79724e-05
8.62156e-05
9.3997e-05
9.68363e-05
7.12271e-05
0.000100765
8.79833e-05
0.000100562
9.41771e-05
9.29842e-05
9.61968e-05
9.69422e-05
8.89945e-05
0.000109076
8.07149e-05
9.62928e-05
9.3094e-05
8.91223e-05
7.57197e-05
9.34522e-05
8.65715e-05
9.47403e-05
9.68675e-05
9.12035e-05
9.05072e-05
9.92694e-05
8.13272e-05
9.48088e-05
8.87962e-05
9.111e-05
8.50101e-05
8.71368e-05
9.04965e-05
8.99016e-05
7.49083e-05
7.52042e-05
8.72073e-05
8.50337e-05
8.97161e-05
8.764e-05
8.61629e-05
9.89104e-05
9.06637e-05
8.92323e-05
9.59414e-05
9.63222e-05
8.07206e-05
0.000103988
9.05783e-05
8.77725e-05
9.61298e-05
9.35035e-05
9.24632e-05
9.632e-05
9.92209e-05
8.36432e-05
9.00055e-05
9.23701e-05
9.3483e-05
9.94486e-05
0.000107128
0.000100244
9.9289e-05
9.74247e-05
9.9081e-05
9.70981e-05
9.51697e-05
0.000106162
8.91357e-05
9.75369e-05
9.17727e-05
9.69383e-05
9.14411e-05
0.000100861
9.53003e-05
9.73542e-05
8.743e-05
9.20175e-05
0.000100991
9.15907e-05
9.71819e-05
9.34265e-05
9.87733e-05
9.00187e-05
9.67681e-05
9.32643e-05
9.51463e-05
9.36068e-05
8.71798e-05
9.62328e-05
9.65957e-05
9.63757e-05
9.52242e-05
0.000103408
9.46201e-05
9.34992e-05
8.96502e-05
9.95714e-05
0.000109549
9.4462e-05
0.000103289
8.96469e-05
8.40581e-05
8.79194e-05
9.1807e-05
9.31886e-05
9.71766e-05
9.20442e-05
9.68237e-05
9.9775e-05
9.60581e-05
9.32749e-05
0.000102241
9.20516e-05
9.79265e-05
9.10547e-05
9.68462e-05
9.81625e-05
0.00010759
9.78661e-05
9.12099e-05
9.7967e-05
9.81388e-05
0.000102418
9.81069e-05
0.000109468
9.65138e-05
9.58097e-05
0.000104957
0.000102645
9.52462e-05
0.000110175
9.65016e-05
9.77144e-05
0.00010502
0.000100054
9.916e-05
0.000102667
0.000104893
9.76939e-05
0.000101734
9.91527e-05
0.000100045
0.000104989
0.000110651
0.000107549
9.97571e-05
0.000104202
0.000106007
0.000100311
0.000108359
0.000113946
0.000112661
0.000104251
0.000100756
0.00010027
0.00010249
0.000105918
0.000108416
0.000102659
0.00010222
0.000104898
0.000105986
0.000102533
0.000102628
0.000102638
0.000101073
0.000116324
0.000101067
0.000107171
0.000109014
0.000104542
0.000111332
0.000105198
0.000100957
0.00010329
0.000108993
0.000106622
0.00010163
0.00010459
0.000105881
0.000105845
0.000110154
0.000101576
0.000106676
0.000105856
0.00011003
0.000116982
0.000110743
0.00011069
0.000104807
0.00010951
0.000107181
0.000105162
0.00010929
0.000110696
0.00010737
0.000109532
0.000108266
0.000107711
0.000107145
0.000109243
0.000110542
0.000110432
0.000107719
0.000108218
0.000109271
0.000111969
0.000109738
0.000113278
0.000108387
0.000108098
0.000110265
0.000110738
0.000110128
0.000113458
0.000108409
0.000108815
0.000110282
0.000111379
0.000109205
0.000110806
0.000110716
0.000110741
0.000114513
0.000109223
0.000111445
0.000110711
0.000113013
0.000115353
0.00011714
0.000112204
0.000111621
0.000115103
0.000114115
0.000114043
0.000116455
0.000112215
0.000112244
0.000115103
0.000114389
0.000111697
0.000114099
0.000114279
0.000115171
0.000116588
0.000111693
0.000114373
0.000114286
0.000116771
0.000116497
0.000117008
0.000114814
0.000114901
0.000115742
0.00011702
0.000116932
0.000118894
0.000114814
0.000114946
0.000115736
0.000116872
0.000114921
0.000117056
0.000117159
0.000116831
0.000118654
0.000114928
0.000116907
0.000117161
0.000119178
0.000118446
0.000123831
0.00011707
0.000117664
0.000121255
0.000120084
0.000119273
0.0001217
0.000117066
0.000117633
0.00012126
0.000119926
0.000118001
0.000120114
0.000120241
0.000119182
0.000121333
0.000118001
0.000119955
0.000120248
0.000121751
0.000124105
0.000124103
0.000122114
0.000121027
0.000123288
0.000123516
0.000122349
0.000124649
0.000122118
0.000120733
0.000123292
0.000123269
0.000120932
0.000123524
0.000123117
0.000121791
0.000124428
0.000120941
0.000123277
0.000123108
0.000123987
0.000124359
0.000127357
0.000123926
0.00012423
0.000126753
0.000126498
0.000124997
0.000127045
0.00012393
0.000124142
0.00012675
0.000126779
0.000123914
0.000126517
0.000126538
0.00012501
0.000127489
0.000123904
0.000126796
0.000126545
0.000127187
0.000127749
0.000128873
0.000127462
0.000127364
0.00012932
0.000129964
0.000127603
0.000130005
0.00012746
0.000127589
0.000129331
0.000129737
0.00012743
0.00012998
0.00012986
0.000127922
0.000129496
0.00012744
0.000129755
0.000129869
0.00012983
0.000129396
0.0001324
0.000130135
0.000130694
0.000132852
0.000132891
0.000130394
0.000132068
0.000130145
0.00013042
0.000132847
0.000132787
0.000130638
0.000132922
0.000133116
0.000129839
0.000132144
0.000130642
0.000132817
0.000133109
0.000132466
0.000132932
0.0001349
0.000133795
0.000133662
0.000136266
0.000136025
0.000132496
0.00013466
0.000133791
0.0001337
0.000136273
0.000136356
0.000133897
0.000136037
0.000136015
0.000132726
0.000135116
0.000133893
0.000136371
0.000136021
0.000134523
0.000135229
0.000137548
0.00013694
0.000136897
0.000139433
0.000139312
0.000135131
0.000137432
0.000136955
0.00013712
0.00013944
0.000139196
0.000136771
0.000139331
0.000139347
0.00013546
0.000137082
0.000136783
0.00013922
0.000139356
0.000137381
0.000138035
0.000138962
0.000140356
0.000140128
0.000142105
0.000142786
0.000137878
0.000140104
0.000140353
0.00013999
0.000142109
0.000142682
0.000140191
0.000142792
0.000142474
0.000137546
0.00014003
0.00014019
0.000142689
0.000142477
0.000139776
0.000139154
0.000142843
0.000142658
0.000143467
0.000145785
0.000145341
0.000140432
0.000141715
0.000142667
0.000143433
0.000145785
0.000145245
0.000143276
0.00014538
0.00014574
0.000140364
0.000141727
0.000143285
0.000145288
0.000145744
0.000142324
0.00014355
0.000144664
0.000146884
0.000146144
0.000148918
0.0001486
0.000142163
0.000144484
0.000146883
0.00014611
0.000148931
0.000149071
0.000146426
0.000148605
0.000148483
0.000142273
0.00014502
0.000146425
0.000149078
0.000148482
0.000144066
0.000144759
0.000146496
0.000149436
0.000149358
0.000151458
0.000151861
0.000144869
0.000147231
0.00014946
0.00014965
0.000151463
0.000151373
0.000149213
0.00015187
0.000151531
0.000145231
0.000146385
0.000149228
0.000151388
0.00015155
0.00014691
0.000146871
0.000148711
0.000152244
0.000152745
0.000154342
0.000154458
0.000147663
0.000148486
0.000152231
0.000152326
0.000154347
0.000154737
0.00015251
0.000154488
0.000155072
0.000146956
0.000149088
0.000152511
0.000154773
0.00015507
0.000149421
0.000149208
0.000151816
0.000155116
0.000154836
0.000157947
0.000157332
0.000148549
0.000151375
0.000155136
0.000155247
0.000157966
0.000157064
0.000155551
0.00015736
0.000157066
0.000149199
0.000150604
0.000155562
0.000157092
0.000157086
0.000150559
0.000151973
0.000152692
0.000158599
0.000158421
0.000159946
0.000160638
0.0001521
0.000153573
0.000158615
0.000157862
0.000159919
0.000160364
0.000157838
0.000160626
0.000160546
0.000151041
0.000153622
0.000157857
0.000160363
0.000160523
0.00015373
0.000153224
0.000155778
0.000160769
0.000161125
0.000163509
0.000163005
0.000153643
0.00015518
0.000160734
0.000161259
0.000163551
0.000164177
0.000161302
0.000163045
0.000163185
0.00015424
0.000156722
0.000161271
0.00016421
0.000163225
0.000155269
0.000155739
0.000156009
0.00016404
0.000163761
0.000164951
0.000165507
0.000155547
0.000156766
0.000164106
0.0001648
0.000164968
0.000164851
0.000163865
0.000165514
0.000165534
0.00015666
0.000155608
0.000163923
0.000164879
0.000165561
0.000156863
0.000156539
0.000160701
0.000165621
0.000165904
0.000169084
0.000168452
0.000156924
0.000159851
0.000165614
0.00016514
0.000169065
0.000168441
0.000166047
0.000168484
0.000168404
0.000155638
0.000159988
0.00016605
0.000168473
0.000168371
0.000159556
0.000161004
0.000161184
0.000170001
0.000169593
0.000171233
0.000171301
0.000160589
0.000161236
0.000169988
0.000169389
0.000171282
0.000170307
0.000169334
0.000171321
0.000171218
0.000160255
0.000159952
0.000169311
0.000170339
0.000171252
0.000160975
0.000161212
0.000161911
0.000171659
0.000171581
0.000172996
0.00017416
0.000161233
0.000164245
0.000171694
0.000171016
0.000172936
0.000175561
0.00017143
0.000174085
0.000173893
0.000160339
0.000166556
0.000171454
0.000175504
0.000173863
0.000164689
0.000161847
0.000166982
0.00017314
0.000174956
0.000176484
0.000174119
0.000164392
0.000161306
0.000173117
0.000176097
0.000176591
0.00017388
0.000175457
0.000174292
0.000176044
0.00016595
0.000159858
0.000175439
0.000174001
0.000176117
0.000162561
0.000168729
0.000163162
0.000178349
0.000174158
0.000177934
0.00018025
0.000161201
0.000172134
0.000178431
0.000173727
0.000177888
0.000180332
0.000175045
0.0001799
0.000175116
0.000159852
0.000172595
0.000175118
0.000179993
0.000175094
0.0001651
0.000161055
0.000169809
0.000176726
0.000182355
0.000178062
0.00017979
0.000173055
0.000163138
0.000176657
0.000182467
0.000178041
0.000181067
0.000178029
0.00018014
0.000183501
0.000173236
0.000165446
0.000177922
0.000181473
0.000183516
0.000170702
0.000175269
0.000173156
0.000182818
0.000178904
0.000187112
0.000182431
0.000162203
0.000174667
0.000182922
0.000179756
0.000187257
0.000178138
0.000182913
0.000181945
0.000182214
0.000164368
0.000163677
0.000183048
0.000177857
0.00018241
0.000169699
0.000166314
0.000159069
0.000183631
0.000186289
0.000177952
0.00018427
0.000177239
0.000165071
0.00018359
0.00017983
0.000177608
0.000189883
0.000182961
0.000184622
0.000186066
0.000164589
0.000184871
0.000183045
0.000190372
0.000185349
0.000170715
0.000165622
0.000193838
0.000180316
0.000182264
0.000196418
0.000185928
0.00016281
0.000180169
0.00018012
0.00019278
0.00019743
0.000189175
0.000184381
0.000185881
0.000180539
0.000187561
0.000165863
0.000184077
0.000189287
0.000181242
0.000161883
0.00018938
0.000156084
0.000195859
0.000192464
0.000182634
0.00019447
0.000185662
0.000175302
0.000196744
0.000183164
0.000181488
0.000179459
0.000181032
0.000193668
0.000197653
0.000158951
0.000165242
0.000181955
0.000178915
0.000196026
0.000194528
0.000156101
0.000183358
0.000181732
0.000188486
0.000190368
0.000179839
0.000167561
0.000156494
0.000180579
0.000185498
0.000191839
0.000205149
0.000202056
0.000181049
0.000199346
0.000177434
0.000204509
0.000200344
0.000206595
0.000199883
0.000176217
0.000184881
0.000175503
0.000194152
0.000181814
0.000194612
0.000204016
0.000162582
0.000200805
0.000196285
0.000202479
0.000194849
0.000178307
0.000189994
0.000202689
0.000176572
0.000192281
0.000143926
0.000192529
0.000177534
0.000176844
0.000148611
0.000174312
0.000177791
0.000193601
0.000204883
0.000193581
0.000193535
0.000200178
0.000167371
0.000192338
0.000177947
0.000191851
0.000202901
0.000177446
0.000193221
0.00020455
0.000144959
0.000208412
0.000177207
0.000202579
0.000202816
0.000204172
0.000179386
0.00018189
0.000195029
0.000189775
0.000197892
0.000189472
0.000164983
0.000174872
0.000194348
0.000209533
0.000199595
0.000203474
0.000209371
0.000190565
0.000205534
0.000210722
0.000173391
0.000209239
0.000204774
0.000207666
0.000180567
0.00018112
0.000176367
0.000197796
0.000193049
0.000195982
0.000200517
0.000178215
0.000184692
0.000199362
0.000195047
0.000195416
0.000188803
0.000198699
0.000200138
0.00018922
0.000167319
0.000169311
0.000200343
0.000188566
0.000188608
0.000165463
0.000175886
0.000179166
0.000195466
0.000200412
0.000196657
0.000198538
0.000183733
0.000179293
0.000194701
0.000190281
0.000195905
0.00020147
0.00018886
0.000198085
0.000196999
0.000173693
0.00018773
0.000188184
0.00020119
0.000196834
0.000184142
0.000180258
0.000184871
0.000198015
0.000198428
0.000202139
0.000200898
0.000179298
0.000183573
0.00019802
0.000202196
0.000202533
0.000200436
0.000201013
0.00020143
0.000205239
0.000187112
0.000179452
0.000201243
0.000200775
0.000205508
0.000188244
0.000185127
0.000184793
0.000203162
0.000201924
0.000203901
0.00020246
0.000183849
0.000182899
0.000203287
0.000200047
0.000203677
0.000201291
0.000205045
0.000202552
0.000200846
0.000179076
0.000183741
0.000205216
0.000201349
0.000200653
0.000178864
0.000184309
0.000181943
0.000203705
0.00020228
0.000202126
0.000202486
0.000182614
0.000183398
0.000203481
0.000202983
0.000202315
0.000205018
0.000200247
0.0002021
0.000201654
0.000184779
0.000186351
0.000200133
0.000204863
0.000201985
0.000184837
0.00018166
0.000183719
0.000201888
0.000203052
0.000203056
0.000204342
0.000183773
0.000184785
0.000202111
0.000204977
0.000203181
0.000203783
0.000203836
0.000204741
0.00020621
0.000185906
0.000183273
0.000204194
0.000204121
0.000206291
0.000186855
0.000184177
0.000185669
0.000203929
0.000204523
0.000205592
0.00020472
0.000184595
0.000184379
0.000203902
0.000203483
0.000205478
0.000203674
0.000206092
0.000204752
0.000204257
0.000182916
0.000183691
0.000206122
0.000203746
0.000204149
0.000182907
0.000185678
0.000186134
0.000205878
0.000204932
0.000206489
0.000206181
0.000184393
0.000185961
0.000205805
0.000204444
0.000206525
0.000206425
0.000203992
0.000206016
0.000204984
0.000184107
0.000186366
0.000203897
0.00020624
0.000205031
0.000185232
0.000186042
0.000186493
0.000206692
0.000206663
0.000207341
0.000207764
0.000186136
0.00018715
0.000206736
0.000206904
0.000207356
0.000207676
0.000205993
0.000207838
0.000208221
0.000186459
0.000186917
0.00020604
0.00020776
0.00020824
0.00018784
0.000186525
0.000187337
0.000207613
0.000207963
0.000208393
0.00020816
0.000187026
0.000186871
0.000207619
0.000207826
0.000208412
0.000208295
0.000208475
0.000208261
0.000208313
0.000186798
0.00018718
0.000208486
0.000208382
0.000208326
0.00018667
0.000187224
0.000187731
0.000208564
0.000208309
0.000209026
0.000209385
0.000186805
0.000188279
0.00020859
0.000208465
0.00020903
0.00020896
0.00020827
0.000209373
0.000209076
0.000187098
0.000187607
0.000208286
0.000208947
0.000209085
0.000188149
0.000187772
0.000188249
0.00020935
0.000209631
0.000209949
0.00020958
0.000188268
0.000187388
0.00020933
0.000209201
0.00020996
0.000209914
0.000209578
0.000209632
0.000209709
0.000187611
0.000188252
0.000209571
0.000209962
0.000209714
0.00018747
0.000187922
0.000187558
0.000209879
0.000209521
0.000209715
0.000210133
0.000187173
0.000188718
0.000209911
0.000209992
0.000209771
0.000210009
0.000209601
0.000210124
0.000210154
0.00018806
0.000187989
0.000209627
0.000210022
0.000210229
0.000188833
0.000187766
0.000190658
0.000210018
0.00021069
0.000211932
0.000211392
0.000188952
0.000189196
0.00021005
0.000210174
0.000211927
0.000211545
0.000210803
0.000211463
0.00021138
0.000188036
0.000189798
0.000210845
0.000211582
0.000211371
0.000188915
0.000190348
0.000186779
0.000211962
0.000211428
0.000210654
0.000211151
0.000188966
0.000188361
0.000211963
0.000211629
0.000210691
0.000211048
0.000211306
0.000211118
0.000211136
0.000189623
0.000187768
0.000211304
0.000211037
0.000211169
0.000188557
0.000186573
0.000191242
0.000210461
0.000211097
0.00021223
0.000211857
0.000188188
0.000189818
0.000210492
0.000210922
0.000212248
0.000212204
0.000211198
0.000212009
0.000212068
0.00018762
0.000190707
0.000211229
0.000212335
0.000212096
0.00018973
0.000191698
0.000188835
0.000213123
0.000212505
0.000213002
0.000212977
0.000190041
0.000189924
0.000213141
0.000212733
0.000212986
0.00021246
0.000212368
0.000212952
0.000212709
0.000190885
0.00018838
0.000212401
0.000212427
0.000212715
0.000189636
0.000188043
0.000188683
0.000212133
0.000212692
0.00021169
0.000211838
0.000189407
0.000188466
0.00021211
0.000211941
0.000211741
0.000212301
0.000212577
0.000211951
0.00021229
0.000187974
0.000189887
0.000212571
0.000212388
0.00021232
0.000189162
0.000189305
0.000190759
0.000212082
0.000211985
0.000213428
0.000213323
0.00018871
0.000190798
0.00021217
0.000212702
0.000213434
0.000212947
0.00021232
0.000213339
0.000212843
0.000190168
0.00018959
0.000212353
0.000212924
0.000212804
0.000189894
0.000190655
0.00019024
0.000213715
0.000213635
0.000213799
0.0002137
0.000190753
0.000189933
0.000213696
0.000213086
0.000213777
0.000213643
0.000213249
0.000213696
0.000213937
0.000189487
0.000190774
0.00021321
0.000213721
0.000214003
0.000191149
0.000189552
0.000187516
0.000213339
0.000213213
0.000211701
0.000212035
0.000189287
0.000188251
0.000213393
0.000213557
0.000211764
0.000211957
0.000213767
0.000212134
0.00021188
0.000190317
0.000187584
0.000213867
0.00021199
0.000211874
0.000187382
0.0001878
0.000193732
0.00021217
0.000212521
0.000215279
0.000214898
0.00018862
0.000192796
0.000212181
0.000212127
0.000215224
0.000214782
0.000212106
0.000214885
0.000214704
0.00018763
0.000192847
0.000212016
0.000214752
0.000214632
0.000192687
0.000193317
0.000187225
0.000215325
0.000214919
0.000212613
0.000212869
0.000192304
0.000188116
0.000215294
0.000215007
0.00021273
0.000213397
0.000214871
0.000212897
0.000213426
0.000192716
0.000188587
0.000214873
0.000213568
0.000213679
0.000188923
0.000186908
0.000188916
0.000211988
0.000212413
0.000214283
0.00021448
0.000187969
0.000188782
0.000212069
0.000212521
0.000214248
0.000213847
0.000212732
0.000214582
0.000214208
0.000188128
0.000187705
0.000212894
0.00021386
0.000214046
0.000187879
0.000191406
0.000213668
0.000213545
0.000190876
0.000213615
0.000213026
0.000236078
0.000235758
0.000235749
0.000213118
0.000190083
0.000212957
0.00023473
0.000234746
0.000234729
0.000234729
0.000235117
0.000234798
0.000234701
0.000234727
0.000235118
0.000234798
0.000234727
0.000234701
0.000234867
0.000233566
0.000233566
0.000104651
3.87413e-05
0.000129118
3.98246e-05
2.16834e-05
2.28312e-05
0.000104643
3.87373e-05
0.000129114
3.98212e-05
0.000233973
0.000233973
0.000233973
0.000232935
0.000232935
0.000232935
0.000232935
0.000206196
9.36756e-05
0.000233969
0.000231994
0.000222614
8.72225e-05
0.000233611
2.16823e-05
2.28306e-05
0.00020619
0.000233969
9.36751e-05
0.000231994
0.000222622
0.000233611
8.72281e-05
4.7801e-05
4.77893e-05
0.000231345
4.40188e-05
4.40093e-05
7.2568e-05
4.24344e-05
8.14027e-05
4.37631e-05
2.4775e-05
2.54634e-05
7.2558e-05
4.24308e-05
8.13973e-05
4.37593e-05
0.000232532
0.000232532
0.000232532
0.000231084
0.000231084
0.000231083