/*--------------------------------*- C++ -*----------------------------------*\
| =========                 |                                                 |
| \\      /  F ield         | OpenFOAM: The Open Source CFD Toolbox           |
|  \\    /   O peration     | Version:  v2012                                 |
|   \\  /    A nd           | Website:  www.openfoam.com                      |
|    \\/     M anipulation  |                                                 |
\*---------------------------------------------------------------------------*/
FoamFile
{
    version     2.0;
    format      ascii;
    class       volScalarField;
    location    "500";
    object      p;
}
// * * * * * * * * * * * * * * * * * * * * * * * * * * * * * * * * * * * * * //

dimensions      [0 2 -2 0 0 0 0];


internalField   nonuniform List<scalar> 
171728
(
0.00360463
0.00360496
0.00360496
0.00360801
0.00354927
0.00354969
0.00354969
0.00355268
0.00349852
0.00349849
0.00349849
0.00350125
0.00344614
0.00344615
0.00344615
0.00344892
0.00339479
0.00339479
0.00339479
0.00339754
0.00334481
0.00334482
0.00334482
0.00334754
0.00329628
0.0032963
0.0032963
0.00329898
0.00324906
0.00324908
0.00324907
0.00325174
0.00320293
0.00320295
0.00320297
0.00320557
0.0031577
0.00315772
0.00315773
0.00316032
0.00311319
0.0031132
0.00311321
0.00311578
0.00306928
0.0030693
0.00306929
0.00307184
0.0030259
0.00302592
0.00302589
0.00302842
0.00298298
0.00298298
0.00298295
0.00298551
0.00294049
0.00294053
0.00294052
0.00294299
0.00289845
0.00289845
0.00289847
0.00290088
0.00285681
0.00285685
0.00285681
0.00285925
0.00281556
0.00281553
0.00281552
0.00281799
0.00277459
0.00277453
0.00277462
0.00277707
0.00273397
0.00273399
0.00273386
0.00273658
0.00269321
0.00269334
0.00269318
0.00269543
0.00265269
0.00265257
0.00265253
0.00265512
0.00261285
0.00261256
0.00261298
0.00261524
0.00257312
0.00257327
0.00257307
0.00257547
0.00253351
0.0025332
0.00253323
0.00253574
0.0024944
0.00249447
0.00249423
0.00249642
0.0024554
0.00245505
0.00245581
0.0024589
0.00241693
0.00241735
0.00241618
0.00241821
0.0023781
0.0023777
0.00237812
0.00238076
0.0023401
0.00234026
0.00234025
0.00234263
0.00230162
0.00230122
0.00230156
0.00230354
0.00226347
0.00226364
0.00226384
0.00226562
0.0022258
0.00222576
0.00222551
0.00222853
0.00218837
0.0021884
0.00218824
0.00219052
0.00215043
0.00215049
0.00215053
0.00215238
0.00211318
0.00211282
0.00211312
0.00211542
0.00207565
0.00207579
0.00207567
0.00207784
0.00203854
0.00203859
0.00203858
0.0020407
0.00200162
0.00200158
0.00200156
0.00200376
0.00196466
0.00196468
0.00196467
0.00196682
0.00192805
0.00192796
0.00192796
0.00193008
0.00189133
0.00189133
0.00189133
0.00189344
0.00185486
0.00185479
0.00185481
0.00185693
0.00181842
0.00181839
0.00181837
0.00182048
0.00178214
0.00178205
0.00178206
0.00178416
0.00174592
0.00174585
0.00174586
0.00174792
0.00170978
0.00170971
0.00170969
0.0017118
0.00167372
0.00167366
0.00167367
0.00167571
0.00163777
0.00163764
0.00163764
0.00163973
0.00160186
0.00160177
0.00160179
0.0016038
0.00156599
0.00156591
0.00156587
0.00156797
0.00153023
0.0015301
0.00153014
0.00153218
0.00149453
0.0014944
0.00149437
0.0014964
0.00145882
0.00145873
0.00145875
0.0014608
0.00142324
0.00142307
0.00142312
0.0014251
0.00138758
0.00138749
0.0013874
0.00138952
0.00135214
0.00135197
0.00135204
0.001354
0.00131657
0.00131645
0.00131641
0.00131849
0.00128106
0.00128094
0.00128107
0.00128297
0.00124559
0.00124539
0.00124523
0.00124743
0.0012102
0.0012102
0.00121031
0.00121203
0.00117467
0.00117449
0.00117446
0.00117688
0.00113969
0.00113933
0.00113919
0.00114095
0.00110336
0.00110372
0.00110408
0.00110604
0.00106948
0.00106852
0.00106838
0.00107019
0.00103219
0.00103337
0.0010324
0.00103575
0.000998455
0.00099675
0.000999605
0.000999391
0.00096226
0.000963682
0.000959594
0.000963312
0.000927089
0.000926051
0.000929441
0.000931275
0.000891991
0.000891953
0.000890767
0.000892782
0.000855808
0.000856185
0.000855341
0.000857435
0.000820935
0.000820548
0.000821772
0.000823694
0.000785697
0.000785689
0.00078513
0.000787482
0.000749935
0.000749738
0.000749881
0.000751426
0.000714266
0.000714294
0.000714358
0.000716552
0.000678844
0.00067885
0.000678661
0.000680812
0.00064332
0.000643122
0.000643186
0.000645005
0.000607716
0.000607696
0.000607739
0.0006098
0.000572136
0.000572112
0.000572078
0.000574155
0.000536489
0.000536384
0.0005364
0.000538362
0.000500763
0.000500742
0.000500715
0.000502781
0.000465065
0.000464966
0.000465015
0.000466999
0.000429239
0.000429249
0.000429202
0.000431284
0.000393586
0.000393471
0.000393517
0.000395492
0.000357559
0.000357571
0.000357529
0.000359619
0.000321864
0.000321773
0.000321822
0.00032382
0.000285894
0.000285881
0.00028581
0.000287902
0.000249862
0.000249793
0.00024989
0.00025189
0.000214039
0.000214029
0.00021394
0.000216007
0.000177977
0.000177916
0.000177987
0.000180033
0.000141752
0.00014173
0.000141688
0.000143688
0.00010604
0.000106042
0.000106041
0.000108106
6.95038e-05
6.94216e-05
6.94598e-05
7.14549e-05
3.42743e-05
3.3726e-05
3.3649e-05
3.54419e-05
6.15971e-06
7.03509e-06
7.09323e-06
5.41401e-06
0.00361804
0.00361826
0.00361826
0.00361804
0.00361826
0.00361826
0.00361903
0.00361902
0.00361903
0.00361903
0.00361826
0.00361826
0.00361804
0.00361826
0.00361826
0.00361804
0.00360801
0.00355925
0.00360496
0.00360496
0.00356153
0.00356153
0.00360801
0.00355925
0.00360496
0.00360496
0.00356153
0.00356153
0.00360496
0.00356153
0.00356153
0.00360801
0.00355925
0.00360496
0.00356153
0.00356153
0.00355925
0.00355268
0.00350817
0.00354969
0.0035497
0.00351162
0.00351162
0.00355268
0.00350817
0.00354969
0.00354969
0.00351162
0.00351162
0.00354969
0.00351162
0.00351162
0.00355268
0.00350817
0.00354969
0.00351162
0.00351162
0.00350817
0.00350125
0.0034558
0.00349849
0.00349849
0.00345916
0.00345917
0.00350125
0.0034558
0.00349849
0.00349849
0.00345916
0.00345917
0.00349849
0.00345916
0.00345916
0.00350125
0.0034558
0.00349849
0.00345916
0.00345917
0.0034558
0.00344892
0.00340425
0.00344615
0.00344615
0.00340751
0.00340752
0.00344892
0.00340425
0.00344615
0.00344615
0.00340751
0.00340752
0.00344615
0.00340752
0.00340752
0.00344892
0.00340425
0.00344615
0.00340752
0.00340752
0.00340425
0.00339755
0.00335404
0.0033948
0.00339479
0.00335717
0.00335718
0.00339755
0.00335404
0.0033948
0.0033948
0.00335717
0.00335717
0.00339479
0.00335717
0.00335718
0.00339755
0.00335404
0.00339479
0.00335717
0.00335718
0.00335404
0.00334754
0.00330529
0.00334482
0.00334482
0.00330831
0.00330831
0.00334754
0.00330528
0.00334482
0.00334483
0.00330831
0.0033083
0.00334482
0.0033083
0.00330831
0.00334754
0.00330529
0.00334482
0.0033083
0.00330831
0.00330529
0.00329898
0.00325787
0.0032963
0.0032963
0.00326076
0.00326079
0.00329898
0.00325786
0.00329629
0.00329631
0.00326077
0.00326078
0.0032963
0.00326078
0.00326077
0.00329899
0.00325785
0.0032963
0.00326079
0.00326076
0.00325786
0.00325174
0.00321155
0.00324909
0.00324907
0.00321439
0.00321438
0.00325172
0.00321157
0.00324909
0.00324907
0.00321437
0.00321439
0.00324909
0.00321439
0.00321438
0.00325172
0.00321157
0.0032491
0.00321439
0.00321439
0.00321155
0.00320558
0.00316619
0.00320294
0.00320296
0.00316897
0.00316895
0.00320557
0.00316618
0.00320296
0.00320296
0.00316898
0.00316896
0.00320295
0.00316895
0.00316895
0.00320557
0.00316618
0.00320294
0.00316894
0.00316895
0.0031662
0.0031603
0.00312156
0.00315772
0.00315771
0.00312426
0.00312428
0.00316031
0.00312156
0.00315771
0.0031577
0.00312428
0.00312429
0.00315773
0.00312431
0.00312429
0.00316032
0.00312156
0.00315774
0.0031243
0.00312429
0.00312155
0.00311579
0.00307754
0.00311323
0.00311322
0.00308023
0.00308024
0.00311577
0.00307755
0.00311322
0.00311323
0.00308023
0.00308021
0.00311319
0.00308023
0.00308023
0.00311577
0.00307754
0.00311321
0.00308023
0.00308024
0.00307754
0.00307185
0.00303405
0.00306929
0.00306932
0.0030367
0.00303672
0.00307184
0.00303406
0.00306931
0.00306931
0.00303669
0.00303673
0.00306931
0.0030367
0.00303671
0.00307184
0.00303405
0.00306928
0.00303671
0.00303669
0.00303404
0.00302844
0.00299107
0.00302592
0.00302591
0.00299367
0.00299371
0.00302842
0.00299104
0.00302591
0.0030259
0.00299368
0.0029937
0.00302589
0.0029937
0.00299365
0.00302841
0.00299103
0.0030259
0.00299369
0.00299365
0.00299106
0.00298551
0.00294852
0.002983
0.00298297
0.00295107
0.00295107
0.00298547
0.00294853
0.00298301
0.00298296
0.00295107
0.00295107
0.002983
0.00295109
0.0029511
0.00298547
0.00294851
0.00298301
0.00295106
0.00295109
0.00294851
0.00294301
0.0029064
0.0029405
0.00294052
0.00290887
0.00290892
0.00294302
0.0029064
0.00294049
0.00294052
0.00290888
0.00290895
0.00294048
0.00290894
0.0029089
0.00294301
0.00290639
0.00294047
0.00290894
0.00290888
0.00290634
0.00290096
0.0028647
0.00289847
0.00289845
0.00286713
0.00286717
0.00290093
0.00286472
0.00289846
0.00289845
0.00286715
0.00286722
0.00289838
0.00286718
0.00286716
0.00290093
0.00286471
0.0028984
0.0028672
0.00286717
0.00286466
0.00285931
0.00282331
0.00285682
0.00285684
0.00282576
0.0028258
0.00285933
0.00282337
0.00285682
0.00285681
0.00282579
0.0028258
0.00285677
0.00282579
0.00282579
0.00285929
0.00282332
0.00285678
0.0028258
0.00282579
0.00282334
0.00281797
0.0027824
0.00281549
0.00281552
0.00278486
0.00278486
0.00281801
0.00278231
0.00281552
0.00281554
0.00278487
0.00278485
0.00281553
0.00278484
0.00278483
0.00281799
0.00278249
0.00281554
0.00278486
0.00278482
0.0027824
0.00277705
0.00274185
0.0027746
0.00277454
0.0027441
0.00274412
0.00277697
0.00274183
0.00277461
0.00277462
0.00274411
0.00274394
0.00277458
0.00274414
0.00274407
0.00277714
0.0027416
0.00277461
0.00274391
0.00274406
0.00274185
0.00273662
0.00270105
0.00273407
0.002734
0.00270341
0.00270339
0.00273655
0.00270115
0.00273406
0.00273386
0.00270341
0.00270355
0.00273397
0.00270338
0.00270332
0.00273639
0.00270124
0.002734
0.00270351
0.00270328
0.00270077
0.00269567
0.00266011
0.00269322
0.00269336
0.00266259
0.00266281
0.00269591
0.00266035
0.00269321
0.00269321
0.00266262
0.00266246
0.00269306
0.00266288
0.0026628
0.00269572
0.00265984
0.00269304
0.0026625
0.00266278
0.00266034
0.00265487
0.00262058
0.00265254
0.0026525
0.00262277
0.00262243
0.00265492
0.00261995
0.00265257
0.00265246
0.0026228
0.00262303
0.00265275
0.00262241
0.00262277
0.00265472
0.00262084
0.00265275
0.00262302
0.00262279
0.00262048
0.0026154
0.0025806
0.00261287
0.00261258
0.00258292
0.00258323
0.00261488
0.00258122
0.0026129
0.002613
0.00258291
0.00258291
0.00261276
0.00258324
0.00258292
0.0026156
0.00258075
0.00261279
0.0025829
0.00258292
0.0025806
0.00257543
0.00254111
0.00257301
0.00257325
0.00254339
0.00254314
0.00257598
0.00254061
0.00257302
0.00257311
0.00254339
0.00254335
0.00257308
0.00254312
0.00254343
0.00257557
0.00254087
0.00257307
0.00254334
0.00254342
0.00254113
0.00253591
0.00250188
0.00253347
0.00253322
0.00250399
0.00250406
0.00253547
0.00250207
0.00253347
0.00253323
0.002504
0.00250388
0.00253338
0.00250408
0.00250371
0.0025356
0.00250165
0.00253338
0.00250387
0.00250371
0.00250127
0.0024968
0.00246244
0.00249436
0.00249447
0.00246493
0.00246475
0.00249698
0.00246213
0.00249436
0.00249424
0.00246495
0.00246529
0.00249412
0.00246479
0.0024658
0.00249658
0.00246327
0.00249411
0.00246534
0.00246582
0.00246422
0.0024574
0.00242455
0.00245513
0.00245502
0.00242656
0.00242683
0.00245727
0.00242505
0.00245517
0.00245573
0.00242653
0.00242652
0.002456
0.0024268
0.00242591
0.00245834
0.0024239
0.00245602
0.00242648
0.00242587
0.00242327
0.00241959
0.00238524
0.00241711
0.00241739
0.00238769
0.00238748
0.00242015
0.00238493
0.00241703
0.0024163
0.00238763
0.00238712
0.00241623
0.00238747
0.00238781
0.00241831
0.00238492
0.00241615
0.0023871
0.00238775
0.00238566
0.00238017
0.00234748
0.00237793
0.00237768
0.00234952
0.0023495
0.0023798
0.00234758
0.00237792
0.0023781
0.00234959
0.00235029
0.00237836
0.00234953
0.00234974
0.00238026
0.00234824
0.00237835
0.00235026
0.0023498
0.00234762
0.00234256
0.00230884
0.00234015
0.00234025
0.00231121
0.00231124
0.00234273
0.00230862
0.00234019
0.00234027
0.0023112
0.00231083
0.00234018
0.00231124
0.00231123
0.00234284
0.00230865
0.00234021
0.00231088
0.00231121
0.00230885
0.0023038
0.00227072
0.00230153
0.00230124
0.00227291
0.0022728
0.00230332
0.00227083
0.00230154
0.00230156
0.00227296
0.00227361
0.00230141
0.00227279
0.00227251
0.00230388
0.00227154
0.00230141
0.00227361
0.00227256
0.00227034
0.00226559
0.00223281
0.00226339
0.00226366
0.00223498
0.0022354
0.00226596
0.00223302
0.00226342
0.00226384
0.00223491
0.00223481
0.00226336
0.00223545
0.00223568
0.00226624
0.00223245
0.0022634
0.00223485
0.00223563
0.00223365
0.00222803
0.00219611
0.00222571
0.00222572
0.00219814
0.00219762
0.0022279
0.00219564
0.00222568
0.00222547
0.00219813
0.00219761
0.00222611
0.00219759
0.00219763
0.00222758
0.00219548
0.00222607
0.00219759
0.00219762
0.00219549
0.00219091
0.00215724
0.00218856
0.00218843
0.00215966
0.00216013
0.00219074
0.00215777
0.00218854
0.00218826
0.00215965
0.00215995
0.00218827
0.00216013
0.00215983
0.00219053
0.00215774
0.00218826
0.00215995
0.00215981
0.00215736
0.00215237
0.00212066
0.00215027
0.00215049
0.00212258
0.00212211
0.00215263
0.00211986
0.00215027
0.00215053
0.00212261
0.00212246
0.00215026
0.00212209
0.00212234
0.00215276
0.0021203
0.00215026
0.00212244
0.00212237
0.00212034
0.00211574
0.00208257
0.00211335
0.00211283
0.00208497
0.00208507
0.00211498
0.00208294
0.00211338
0.00211313
0.00208497
0.00208502
0.00211313
0.00208508
0.00208511
0.00211535
0.00208278
0.00211316
0.00208503
0.00208511
0.00208282
0.00207758
0.00204562
0.00207552
0.00207578
0.00204769
0.00204786
0.00207801
0.0020457
0.00207551
0.00207567
0.00204769
0.00204781
0.0020757
0.00204787
0.00204776
0.00207784
0.00204568
0.00207569
0.00204782
0.00204776
0.0020456
0.00204077
0.00200874
0.00203855
0.00203858
0.00201095
0.00201083
0.00204076
0.00200865
0.00203855
0.00203857
0.00201095
0.00201082
0.00203853
0.00201082
0.00201085
0.00204077
0.00200863
0.00203853
0.00201082
0.00201085
0.00200868
0.00200374
0.00197163
0.0020016
0.00200159
0.00197378
0.00197389
0.00200374
0.00197173
0.0020016
0.00200157
0.00197378
0.00197386
0.0020016
0.00197389
0.00197388
0.00200371
0.0019717
0.0020016
0.00197387
0.00197388
0.00197171
0.00196677
0.00193513
0.00196462
0.00196468
0.00193725
0.00193712
0.00196682
0.00193497
0.00196462
0.00196467
0.00193725
0.00193714
0.00196468
0.00193712
0.00193713
0.00196681
0.00193498
0.00196468
0.00193713
0.00193713
0.00193497
0.00193021
0.00189823
0.00192806
0.00192796
0.00190042
0.00190049
0.00193009
0.00189834
0.00192806
0.00192797
0.00190042
0.00190048
0.00192795
0.00190049
0.00190046
0.0019301
0.00189833
0.00192795
0.00190048
0.00190046
0.00189831
0.00189336
0.00186182
0.00189125
0.00189133
0.00186392
0.0018639
0.00189345
0.00186176
0.00189125
0.00189133
0.00186392
0.00186393
0.00189132
0.0018639
0.00186393
0.00189346
0.00186179
0.00189132
0.00186393
0.00186393
0.0018618
0.00185695
0.00182531
0.00185483
0.00185479
0.00182746
0.00182749
0.0018569
0.00182536
0.00185483
0.00185481
0.00182746
0.00182747
0.00185481
0.00182749
0.00182748
0.00185692
0.00182533
0.00185482
0.00182747
0.00182748
0.00182534
0.00182045
0.00178904
0.00181836
0.00181839
0.00179115
0.00179112
0.0018205
0.00178899
0.00181835
0.00181837
0.00179115
0.00179113
0.00181838
0.00179112
0.00179113
0.00182047
0.00178901
0.00181838
0.00179112
0.00179113
0.00178901
0.00178419
0.00175278
0.00178209
0.00178205
0.0017549
0.00175489
0.00178414
0.00175278
0.00178209
0.00178207
0.0017549
0.00175491
0.00178206
0.00175489
0.00175488
0.00178417
0.00175279
0.00178206
0.00175491
0.00175488
0.00175276
0.00174793
0.00171661
0.00174584
0.00174585
0.00171872
0.00171874
0.00174794
0.00171663
0.00174585
0.00174586
0.00171871
0.00171871
0.00174583
0.00171874
0.00171874
0.00174795
0.0017166
0.00174583
0.00171872
0.00171874
0.00171664
0.00171179
0.00168053
0.0017097
0.00170971
0.00168265
0.00168266
0.00171179
0.00168057
0.0017097
0.00170969
0.00168265
0.00168267
0.00170972
0.00168266
0.00168266
0.00171176
0.00168058
0.00170972
0.00168267
0.00168266
0.00168054
0.00167569
0.00164459
0.00167362
0.00167366
0.00164665
0.00164663
0.00167573
0.00164452
0.00167362
0.00167367
0.00164665
0.00164663
0.00167364
0.00164663
0.00164666
0.00167575
0.00164452
0.00167364
0.00164663
0.00164666
0.00164456
0.00163978
0.00160861
0.0016377
0.00163764
0.00161074
0.00161074
0.00163971
0.00160866
0.0016377
0.00163764
0.00161074
0.00161076
0.00163767
0.00161074
0.00161071
0.0016397
0.00160869
0.00163767
0.00161076
0.00161071
0.00160861
0.00160378
0.00157275
0.00160174
0.00160177
0.00157483
0.00157486
0.00160383
0.00157277
0.00160174
0.00160179
0.00157483
0.00157482
0.00160174
0.00157486
0.00157487
0.00160385
0.00157272
0.00160174
0.00157482
0.00157486
0.00157278
0.00156795
0.00153697
0.00156589
0.00156591
0.00153906
0.00153906
0.00156796
0.00153696
0.00156589
0.00156587
0.00153906
0.00153909
0.00156591
0.00153906
0.00153909
0.00156792
0.001537
0.00156591
0.00153909
0.00153909
0.001537
0.00153217
0.00150129
0.00153012
0.0015301
0.00150334
0.00150329
0.00153214
0.00150124
0.00153012
0.00153014
0.00150334
0.00150329
0.00153013
0.00150329
0.00150327
0.00153218
0.00150122
0.00153013
0.00150329
0.00150327
0.00150119
0.00149647
0.0014655
0.00149443
0.0014944
0.0014676
0.00146767
0.00149645
0.00146556
0.00149443
0.00149438
0.0014676
0.00146766
0.00149435
0.00146767
0.00146767
0.00149642
0.00146558
0.00149435
0.00146766
0.00146767
0.00146561
0.00146072
0.00142999
0.00145868
0.00145872
0.00143203
0.00143196
0.00146075
0.0014299
0.00145868
0.00145874
0.00143204
0.00143203
0.00145876
0.00143196
0.00143199
0.00146078
0.00142997
0.00145876
0.00143203
0.00143199
0.0014299
0.00142518
0.00139425
0.00142313
0.00142307
0.00139634
0.00139641
0.00142511
0.00139433
0.00142314
0.00142312
0.00139634
0.00139632
0.00142307
0.0013964
0.00139638
0.00142516
0.00139421
0.00142308
0.00139632
0.00139637
0.00139431
0.00138946
0.00135887
0.00138744
0.00138749
0.00136088
0.00136082
0.00138952
0.00135877
0.00138743
0.00138739
0.00136088
0.00136084
0.00138749
0.00136082
0.00136082
0.00138941
0.00135885
0.00138748
0.00136084
0.00136082
0.00135878
0.00135409
0.0013232
0.00135204
0.00135198
0.00132532
0.00132539
0.001354
0.00132328
0.00135204
0.00135204
0.00132533
0.00132534
0.00135196
0.00132539
0.00132539
0.00135409
0.00132319
0.00135197
0.00132534
0.0013254
0.00132331
0.00131841
0.00128777
0.00131639
0.00131645
0.0012898
0.00128978
0.00131845
0.00128776
0.00131641
0.0013164
0.0012898
0.00128988
0.00131649
0.00128977
0.00128975
0.00131838
0.00128791
0.00131649
0.00128987
0.00128975
0.00128771
0.00128297
0.00125227
0.00128095
0.00128095
0.00125433
0.00125435
0.00128298
0.0012522
0.00128095
0.00128108
0.00125433
0.00125422
0.00128093
0.00125435
0.00125447
0.00128313
0.001252
0.00128094
0.00125423
0.00125447
0.00125234
0.00124754
0.00121696
0.00124551
0.00124539
0.00121906
0.00121892
0.00124736
0.00121699
0.0012455
0.00124522
0.00121905
0.00121899
0.00124547
0.00121888
0.00121862
0.00124719
0.00121714
0.00124546
0.00121896
0.00121862
0.00121664
0.00121199
0.00118108
0.00121004
0.00121023
0.00118316
0.00118355
0.00121226
0.0011813
0.00121005
0.00121035
0.00118317
0.0011835
0.00120999
0.00118364
0.00118398
0.00121242
0.0011812
0.00121
0.00118357
0.00118398
0.00118188
0.00117657
0.00114689
0.00117455
0.00117439
0.00114881
0.00114793
0.00117638
0.00114605
0.00117455
0.00117436
0.00114884
0.00114802
0.00117491
0.00114782
0.00114763
0.00117635
0.00114604
0.00117491
0.0011479
0.00114764
0.0011456
0.00114168
0.00110927
0.00113968
0.00113944
0.0011116
0.00111295
0.00114145
0.00111067
0.00113969
0.00113932
0.00111156
0.00111275
0.00113894
0.00111306
0.00111298
0.00114129
0.00111074
0.00113895
0.00111286
0.00111294
0.00111093
0.00110493
0.00107719
0.00110297
0.00110357
0.00107858
0.00107688
0.00110556
0.001075
0.00110295
0.00110394
0.00107867
0.00107777
0.00110402
0.00107678
0.00107693
0.00110602
0.00107553
0.001104
0.00107768
0.00107703
0.00107492
0.00107216
0.00103795
0.00106988
0.00106869
0.00104083
0.00104281
0.00107064
0.00104066
0.00106992
0.00106854
0.00104055
0.00104061
0.00106814
0.00104285
0.00104237
0.00107035
0.00103858
0.00106822
0.00104068
0.00104212
0.00104039
0.00103314
0.00100549
0.00103158
0.0010332
0.00100686
0.00100505
0.00103529
0.00100301
0.00103136
0.00103223
0.00100717
0.00100853
0.00103375
0.00100514
0.00100668
0.00103433
0.00100724
0.00103354
0.00100859
0.001007
0.00100454
0.00100097
0.000968951
0.000998593
0.000996841
0.000971575
0.000972702
0.000998767
0.000971089
0.000998979
0.000999659
0.000971309
0.00096894
0.000997273
0.000972371
0.000969726
0.00100186
0.00096584
0.000997706
0.000968683
0.000969513
0.000967637
0.000963912
0.000933592
0.000962224
0.000963933
0.0009354
0.00093498
0.00096611
0.00093255
0.000961737
0.000959763
0.000935421
0.000936954
0.000961477
0.000935246
0.000937296
0.000961351
0.000935936
0.000960998
0.000937164
0.000937213
0.000935861
0.000929025
0.000898856
0.000926864
0.000925753
0.000900847
0.000900402
0.000927605
0.000898729
0.000927163
0.00092923
0.000901156
0.000901049
0.00092888
0.000900443
0.000900543
0.000931695
0.000897964
0.000929102
0.000901147
0.000900937
0.000897958
0.000893904
0.000862502
0.000891896
0.000892041
0.000864764
0.000865551
0.000894103
0.000863329
0.00089191
0.00089074
0.000864386
0.000863506
0.000890865
0.000865359
0.000863851
0.000892606
0.000861906
0.000890949
0.000863314
0.000863448
0.000861938
0.000857696
0.000827663
0.000855821
0.000856315
0.000829519
0.000829161
0.000858263
0.000827103
0.000855536
0.000855457
0.0008297
0.000830569
0.000855451
0.000829256
0.000830143
0.000857558
0.000828688
0.000855183
0.000830657
0.000830315
0.000828426
0.000822955
0.000792418
0.000820827
0.00082043
0.000794494
0.000794466
0.000822431
0.000792526
0.000821037
0.000821662
0.000794509
0.000794152
0.00082149
0.000794504
0.000794659
0.000823764
0.000791917
0.000821709
0.000794172
0.000794678
0.000792446
0.000787567
0.000756674
0.000785609
0.00078568
0.000758779
0.000758791
0.000787733
0.000756643
0.000785545
0.000785127
0.000758732
0.000758712
0.000785552
0.000758734
0.000758364
0.000787055
0.000756737
0.000785499
0.000758652
0.000758315
0.000756209
0.000751822
0.000721014
0.00074982
0.00074979
0.000723045
0.000723087
0.000751764
0.000721087
0.000749813
0.000749934
0.000723086
0.000723296
0.000749461
0.000723096
0.000723212
0.000751949
0.000721209
0.000749456
0.000723303
0.000723252
0.000721313
0.000716203
0.000685659
0.000714177
0.000714261
0.000687675
0.000687731
0.000716299
0.000685699
0.000714202
0.000714324
0.000687643
0.000687519
0.000714487
0.000687774
0.000687874
0.000716336
0.000685467
0.000714508
0.000687557
0.000687837
0.000685731
0.000680851
0.000650101
0.000678835
0.000678833
0.000652168
0.00065207
0.000680852
0.000649996
0.000678803
0.000678647
0.000652166
0.00065209
0.00067884
0.000652024
0.000651865
0.000680656
0.000650061
0.000678803
0.000652044
0.000651863
0.000649798
0.000645254
0.000614485
0.000643238
0.000643166
0.000616521
0.000616542
0.000645162
0.000614526
0.00064325
0.000643229
0.000616535
0.000616613
0.000642998
0.000616548
0.00061658
0.000645242
0.000614579
0.000643008
0.000616617
0.000616594
0.000614602
0.000609658
0.000578924
0.000607638
0.000607677
0.000580975
0.000581013
0.000609709
0.000578966
0.000607647
0.00060772
0.000580971
0.000580983
0.000607755
0.000581034
0.000581087
0.000609746
0.000578927
0.000607764
0.000581005
0.000581082
0.000579014
0.000574088
0.000543312
0.000572074
0.000572098
0.000545351
0.000545322
0.00057412
0.000543262
0.000572068
0.000572064
0.00054535
0.000545325
0.000572146
0.000545314
0.000545291
0.000574083
0.000543277
0.000572139
0.000545317
0.00054529
0.000543218
0.000538461
0.00050758
0.000536434
0.000536395
0.000509636
0.000509652
0.00053841
0.000507619
0.000536435
0.000536412
0.000509636
0.000509642
0.000536348
0.000509644
0.000509629
0.000538431
0.000507592
0.000536349
0.000509635
0.00050963
0.000507612
0.000502732
0.000471915
0.000500708
0.000500742
0.000473952
0.000473928
0.000502775
0.00047186
0.000500705
0.000500714
0.000473951
0.000473946
0.000500745
0.000473936
0.000473961
0.000502742
0.000471906
0.000500744
0.000473954
0.000473961
0.000471879
0.000467051
0.000436055
0.000465015
0.000464965
0.000438121
0.000438151
0.000466991
0.000436128
0.000465018
0.000465015
0.000438124
0.000438145
0.000464974
0.000438145
0.000438133
0.000467047
0.000436088
0.000464977
0.000438141
0.000438137
0.000436114
0.000431204
0.000400479
0.000429184
0.000429248
0.000402487
0.000402457
0.000431288
0.000400385
0.000429182
0.000429199
0.00040248
0.000402445
0.000429247
0.000402465
0.000402471
0.000431229
0.000400419
0.000429245
0.000402451
0.000402464
0.000400387
0.000395617
0.000364398
0.000393563
0.000393475
0.000366503
0.000366531
0.000395499
0.000364478
0.000393561
0.000393521
0.000366509
0.00036654
0.000393466
0.000366523
0.000366513
0.000395561
0.000364454
0.000393465
0.000366532
0.00036652
0.000364475
0.000359494
0.000328727
0.000357475
0.000357567
0.000330711
0.000330705
0.000359607
0.000328667
0.000357476
0.000357524
0.000330704
0.000330703
0.000357579
0.000330717
0.000330737
0.000359558
0.000328708
0.00035758
0.000330717
0.000330732
0.000328689
0.000323906
0.000292815
0.00032185
0.000321771
0.000294945
0.000294922
0.000323815
0.000292851
0.000321851
0.000321822
0.000294947
0.000294904
0.000321775
0.000294905
0.000294867
0.000323872
0.000292778
0.000321774
0.000294884
0.000294868
0.000292802
0.00028786
0.000256687
0.000285832
0.000285888
0.000258692
0.000258732
0.000287929
0.000256675
0.000285827
0.000285816
0.000258692
0.000258764
0.000285863
0.00025875
0.000258806
0.000287848
0.000256779
0.000285859
0.000258784
0.000258806
0.000256757
0.000251872
0.000221005
0.000249815
0.000249778
0.000223074
0.000223039
0.000251822
0.000220999
0.000249825
0.00024988
0.000223077
0.000223017
0.00024984
0.000223025
0.000222968
0.000251942
0.000220907
0.000249846
0.000223002
0.000222969
0.000220905
0.000216072
0.000184865
0.00021403
0.000214042
0.000186907
0.000186921
0.000216095
0.000184865
0.00021402
0.000213951
0.0001869
0.000186917
0.000213969
0.000186927
0.00018697
0.000215982
0.000184918
0.00021396
0.000186927
0.000186967
0.00018494
0.000179964
0.000148636
0.000177918
0.000177907
0.000150749
0.000150758
0.000179951
0.000148658
0.000177923
0.000177976
0.000150757
0.000150785
0.00017798
0.00015076
0.00015075
0.000180031
0.000148654
0.000177989
0.000150784
0.000150754
0.000148617
0.000143723
0.000113068
0.000141703
0.000141731
0.00011501
0.000114994
0.000143758
0.000113032
0.0001417
0.000141696
0.000114993
0.000114941
0.000141678
0.000114986
0.000114964
0.00014372
0.000112991
0.000141666
0.000114929
0.000114948
0.000113016
0.000108149
7.6344e-05
0.000106091
0.000106044
7.8511e-05
7.85221e-05
0.000108099
7.63761e-05
0.000106078
0.000106045
7.85243e-05
7.85932e-05
0.000106051
7.85273e-05
7.8574e-05
0.000108089
7.64556e-05
0.000106052
7.86089e-05
7.85978e-05
7.64404e-05
7.13472e-05
4.05442e-05
6.93673e-05
6.94108e-05
4.25355e-05
4.25469e-05
7.14002e-05
4.05477e-05
6.93718e-05
6.94472e-05
4.25184e-05
4.24535e-05
6.945e-05
4.25498e-05
4.24992e-05
7.14577e-05
4.04416e-05
6.94617e-05
4.24446e-05
4.2469e-05
4.04751e-05
3.55542e-05
8.48692e-06
3.37632e-05
3.37355e-05
1.14564e-05
1.14082e-05
3.55222e-05
8.42984e-06
3.37489e-05
3.36651e-05
1.14632e-05
1.14663e-05
3.36657e-05
1.13888e-05
1.13827e-05
3.54353e-05
8.51867e-06
3.36498e-05
1.14497e-05
1.13986e-05
8.43147e-06
5.41787e-06
7.0761e-06
7.03379e-06
5.39538e-06
7.07838e-06
7.08726e-06
6.14238e-06
6.18359e-06
6.16215e-06
7.03549e-06
5.47681e-06
7.04204e-06
0.00362641
0.00363618
0.00363097
0.00363098
0.00365336
0.00364014
0.00366875
0.00363419
0.00365336
0.00364014
0.00363419
0.00366875
0.00364471
0.00367249
0.00367249
0.00358177
0.00360092
0.00361011
0.00357385
0.00357459
0.00357736
0.00358175
0.00360089
0.0036101
0.00357383
0.00360463
0.00360463
0.00360463
0.00356123
0.00356123
0.00356122
0.00356122
0.00357927
0.0036051
0.00360503
0.0035881
0.00360812
0.00357817
0.00358898
0.00357469
0.00357736
0.00357928
0.00360503
0.00360511
0.0035881
0.00360812
0.00358898
0.00357817
0.00361097
0.00361096
0.0035825
0.00357781
0.00357781
0.00353514
0.00355442
0.00355578
0.00353368
0.00355333
0.00353324
0.00353514
0.00355441
0.00355578
0.00353367
0.00354927
0.00354927
0.00354927
0.00351168
0.00351168
0.00351168
0.00351168
0.00353372
0.00355449
0.00354927
0.0035374
0.00355328
0.00353427
0.00353713
0.00355332
0.00353323
0.00353373
0.00354927
0.00355449
0.0035374
0.00355328
0.00353713
0.00353426
0.00355551
0.00355551
0.00353395
0.0035346
0.0035346
0.00348288
0.00350168
0.00350275
0.00348185
0.00350132
0.00348157
0.00348288
0.00350168
0.00350275
0.00348185
0.00349852
0.00349852
0.00349852
0.00345914
0.00345914
0.00345914
0.00345914
0.00348198
0.00350208
0.0034984
0.00348535
0.00350152
0.00348234
0.00348526
0.00350132
0.00348157
0.00348198
0.0034984
0.00350208
0.00348535
0.00350152
0.00348526
0.00348234
0.00350232
0.00350232
0.00348197
0.0034824
0.0034824
0.00343035
0.00344901
0.00344987
0.00342958
0.0034488
0.0034294
0.00343035
0.00344901
0.00344986
0.00342958
0.00344614
0.00344613
0.00344613
0.00340751
0.00340751
0.00340751
0.00340751
0.00342984
0.00344941
0.0034461
0.0034332
0.00344913
0.00343003
0.00343316
0.0034488
0.0034294
0.00342984
0.0034461
0.00344941
0.0034332
0.00344913
0.00343316
0.00343003
0.00344945
0.00344945
0.00342988
0.00342996
0.00342996
0.00337915
0.00339751
0.00339814
0.0033786
0.00339737
0.00337846
0.00337915
0.00339751
0.00339814
0.0033786
0.00339478
0.00339478
0.00339478
0.00335716
0.00335716
0.00335716
0.00335716
0.00337888
0.00339786
0.00339476
0.00338216
0.00339769
0.00337899
0.00338213
0.00339736
0.00337846
0.00337888
0.00339476
0.00339786
0.00338216
0.00339769
0.00338213
0.00337899
0.00339785
0.00339785
0.00337896
0.0033789
0.0033789
0.00332951
0.00334746
0.00334792
0.00332912
0.00334735
0.003329
0.00332951
0.00334746
0.00334792
0.00332912
0.00334481
0.00334481
0.00334481
0.00330829
0.00330829
0.00330829
0.00330829
0.00332939
0.00334776
0.00334479
0.00333256
0.00334764