/*--------------------------------*- C++ -*----------------------------------*\
| =========                 |                                                 |
| \\      /  F ield         | OpenFOAM: The Open Source CFD Toolbox           |
|  \\    /   O peration     | Version:  v2012                                 |
|   \\  /    A nd           | Website:  www.openfoam.com                      |
|    \\/     M anipulation  |                                                 |
\*---------------------------------------------------------------------------*/
FoamFile
{
    version     2.0;
    format      ascii;
    class       volScalarField;
    location    "162.5";
    object      epsilon;
}
// * * * * * * * * * * * * * * * * * * * * * * * * * * * * * * * * * * * * * //

dimensions      [0 2 -3 0 0 0 0];


internalField   nonuniform List<scalar> 
171728
(
1.77957e-08
4.94777e-09
5.21443e-09
4.9773e-09
1.77315e-08
4.76871e-09
4.94933e-09
4.51019e-09
1.81274e-08
4.62704e-09
4.73413e-09
4.12675e-09
1.85412e-08
4.51977e-09
4.58109e-09
3.83064e-09
1.89654e-08
4.45099e-09
4.48362e-09
3.59589e-09
1.94156e-08
4.43231e-09
4.43846e-09
3.40001e-09
1.98923e-08
4.47234e-09
4.45393e-09
3.23677e-09
2.0389e-08
4.58219e-09
4.53144e-09
3.10029e-09
2.0899e-08
4.75731e-09
4.67465e-09
2.99519e-09
2.14147e-08
4.9832e-09
4.88229e-09
2.9202e-09
2.19343e-08
5.26249e-09
5.15622e-09
2.90858e-09
2.24555e-08
5.60797e-09
5.50104e-09
2.95213e-09
2.29779e-08
6.04204e-09
5.931e-09
3.11058e-09
2.34996e-08
6.57694e-09
6.44994e-09
3.37676e-09
2.40199e-08
7.24304e-09
7.08611e-09
3.77298e-09
2.45447e-08
8.0845e-09
7.86002e-09
4.35348e-09
2.5067e-08
9.1666e-09
8.84606e-09
5.22534e-09
2.56006e-08
1.05792e-08
1.01625e-08
6.55435e-09
2.61473e-08
1.24798e-08
1.19825e-08
8.65604e-09
2.67236e-08
1.50717e-08
1.44949e-08
1.21013e-08
2.73629e-08
1.87287e-08
1.80323e-08
1.78909e-08
2.8074e-08
2.36665e-08
2.29296e-08
2.73278e-08
2.88961e-08
3.04735e-08
2.9643e-08
4.24942e-08
2.98826e-08
3.94837e-08
3.87896e-08
6.41175e-08
3.10609e-08
5.10787e-08
5.08125e-08
9.53917e-08
3.25395e-08
6.58107e-08
6.59845e-08
1.40096e-07
3.43697e-08
8.4381e-08
8.47936e-08
1.94639e-07
3.6731e-08
1.06858e-07
1.08058e-07
2.60602e-07
3.97029e-08
1.3335e-07
1.35121e-07
3.38609e-07
4.3457e-08
1.6368e-07
1.65885e-07
4.18061e-07
4.80544e-08
1.96354e-07
1.99889e-07
4.90649e-07
5.38638e-08
2.31477e-07
2.35817e-07
5.55167e-07
6.15122e-08
2.68896e-07
2.72017e-07
6.11313e-07
7.21425e-08
3.09202e-07
3.10841e-07
6.56112e-07
8.73393e-08
3.57493e-07
3.58509e-07
6.94965e-07
1.08907e-07
4.19343e-07
4.20007e-07
7.40716e-07
1.37533e-07
4.91022e-07
4.91387e-07
7.96195e-07
1.70432e-07
5.58428e-07
5.58639e-07
8.50304e-07
2.02471e-07
6.11194e-07
6.11338e-07
8.9409e-07
2.26972e-07
6.43914e-07
6.4404e-07
9.22755e-07
2.40511e-07
6.58282e-07
6.584e-07
9.3531e-07
2.46238e-07
6.63361e-07
6.63472e-07
9.39844e-07
2.48186e-07
6.6493e-07
6.65038e-07
9.41511e-07
2.4874e-07
6.65367e-07
6.65476e-07
9.42018e-07
2.48849e-07
6.6541e-07
6.6552e-07
9.42053e-07
2.48863e-07
6.65385e-07
6.65495e-07
9.41852e-07
2.48872e-07
6.65421e-07
6.65529e-07
9.42049e-07
2.4887e-07
6.65403e-07
6.6551e-07
9.41979e-07
2.48872e-07
6.65406e-07
6.65514e-07
9.41973e-07
2.48873e-07
6.65406e-07
6.65513e-07
9.41939e-07
2.48873e-07
6.65406e-07
6.65513e-07
9.42036e-07
2.48875e-07
6.65411e-07
6.65517e-07
9.41914e-07
2.48876e-07
6.65406e-07
6.65511e-07
9.41977e-07
2.48876e-07
6.65411e-07
6.65517e-07
9.42025e-07
2.48877e-07
6.65413e-07
6.65518e-07
9.42012e-07
2.48877e-07
6.65409e-07
6.65515e-07
9.41948e-07
2.48878e-07
6.6541e-07
6.65517e-07
9.41939e-07
2.48878e-07
6.65412e-07
6.65518e-07
9.41946e-07
2.48878e-07
6.65409e-07
6.65515e-07
9.42017e-07
2.48878e-07
6.65411e-07
6.65516e-07
9.41962e-07
2.48878e-07
6.65417e-07
6.6552e-07
9.42003e-07
2.48879e-07
6.65411e-07
6.65516e-07
9.42021e-07
2.48879e-07
6.65408e-07
6.65513e-07
9.41919e-07
2.4888e-07
6.65418e-07
6.65515e-07
9.41968e-07
2.4888e-07
6.65411e-07
6.65516e-07
9.42078e-07
2.4888e-07
6.65408e-07
6.65517e-07
9.42029e-07
2.4888e-07
6.65413e-07
6.65518e-07
9.4197e-07
2.4888e-07
6.65415e-07
6.65518e-07
9.41945e-07
2.48879e-07
6.65413e-07
6.65516e-07
9.41941e-07
2.48879e-07
6.65409e-07
6.65512e-07
9.41935e-07
2.48878e-07
6.65409e-07
6.65515e-07
9.41922e-07
2.48877e-07
6.65412e-07
6.65517e-07
9.41914e-07
2.48876e-07
6.6541e-07
6.65514e-07
9.41919e-07
2.48876e-07
6.65411e-07
6.65513e-07
9.41927e-07
2.48875e-07
6.65408e-07
6.65511e-07
9.41908e-07
2.48875e-07
6.65405e-07
6.65509e-07
9.41868e-07
2.48874e-07
6.65404e-07
6.65508e-07
9.41863e-07
2.48874e-07
6.65403e-07
6.65506e-07
9.41881e-07
2.48874e-07
6.65404e-07
6.65506e-07
9.41884e-07
2.48874e-07
6.65403e-07
6.65509e-07
9.4188e-07
2.48874e-07
6.65403e-07
6.65505e-07
9.41872e-07
2.48873e-07
6.65404e-07
6.65506e-07
9.4187e-07
2.48873e-07
6.65406e-07
6.65509e-07
9.41883e-07
2.48873e-07
6.65407e-07
6.65512e-07
9.41889e-07
2.48873e-07
6.65411e-07
6.65513e-07
9.41869e-07
2.48873e-07
6.65416e-07
6.65516e-07
9.41843e-07
2.48873e-07
6.65419e-07
6.65522e-07
9.41849e-07
2.48873e-07
6.65426e-07
6.65528e-07
9.41876e-07
2.48873e-07
6.65435e-07
6.65536e-07
9.41896e-07
2.48874e-07
6.65446e-07
6.65546e-07
9.4188e-07
2.48874e-07
6.65461e-07
6.65563e-07
9.41858e-07
2.48875e-07
6.65484e-07
6.65584e-07
9.4186e-07
2.48874e-07
6.65506e-07
6.65607e-07
9.41843e-07
2.48474e-07
6.65276e-07
6.65372e-07
9.41521e-07
2.36063e-07
6.19771e-07
6.19786e-07
8.97511e-07
5.46507e-09
4.61364e-09
3.86216e-09
4.96475e-09
4.24216e-09
4.2255e-09
1.82772e-08
1.82671e-08
1.83031e-08
1.84162e-08
4.26892e-09
3.93269e-09
5.34603e-09
4.51939e-09
4.65289e-09
5.02866e-09
5.43914e-09
4.95523e-09
5.33929e-09
4.52002e-09
5.12627e-09
4.34247e-09
4.93935e-09
4.54937e-09
4.24048e-09
4.15931e-09
4.10068e-09
4.02966e-09
4.65435e-09
4.81212e-09
4.46901e-09
5.32365e-09
4.88402e-09
5.47338e-09
5.01377e-09
5.23886e-09
4.58378e-09
4.91857e-09
4.51223e-09
5.05439e-09
4.27937e-09
4.85422e-09
4.12988e-09
4.48615e-09
4.15349e-09
4.05791e-09
3.99026e-09
3.95621e-09
3.8937e-09
4.41271e-09
4.65911e-09
4.27271e-09
4.84999e-09
4.46458e-09
5.16121e-09
4.78353e-09
4.95017e-09
4.18794e-09
4.46257e-09
4.15254e-09
4.7945e-09
4.09038e-09
4.63986e-09
4.00158e-09
4.09235e-09
3.83928e-09
3.93046e-09
3.86779e-09
3.86922e-09
3.80724e-09
4.23501e-09
4.54302e-09
4.14119e-09
4.42117e-09
4.12888e-09
4.89045e-09
4.6154e-09
4.75269e-09
3.87869e-09
4.09974e-09
3.85894e-09
4.59788e-09
3.97857e-09
4.4972e-09
3.93383e-09
3.79057e-09
3.57939e-09
3.85499e-09
3.79302e-09
3.82725e-09
3.7701e-09
4.11849e-09
4.46276e-09
4.06466e-09
4.07886e-09
3.84531e-09
4.71683e-09
4.50476e-09
4.63497e-09
3.63696e-09
3.81258e-09
3.61451e-09
4.47384e-09
3.92667e-09
4.42966e-09
3.92904e-09
3.53682e-09
3.37479e-09
3.82408e-09
3.7704e-09
3.82812e-09
3.7818e-09
4.05573e-09
4.43109e-09
4.04296e-09
3.80071e-09
3.61238e-09
4.61126e-09
4.44467e-09
4.5685e-09
3.43546e-09
3.5748e-09
3.3987e-09
4.42075e-09
3.93536e-09
4.42006e-09
3.97847e-09
3.34093e-09
3.21691e-09
3.83337e-09
3.79266e-09
3.87248e-09
3.846e-09
4.04457e-09
4.45938e-09
4.06653e-09
3.5756e-09
3.4165e-09
4.55899e-09
4.44618e-09
4.56175e-09
3.26634e-09
3.36448e-09
3.20511e-09
4.425e-09
4.00123e-09
4.46336e-09
4.08354e-09
3.19109e-09
3.10122e-09
3.89163e-09
3.87194e-09
3.96613e-09
3.9692e-09
4.08065e-09
4.55223e-09
4.13945e-09
3.38609e-09
3.24988e-09
4.5689e-09
4.50975e-09
4.62106e-09
3.12483e-09
3.1898e-09
3.06667e-09
4.48303e-09
4.11623e-09
4.57026e-09
4.23552e-09
3.08166e-09
3.01505e-09
3.99672e-09
4.00904e-09
4.10932e-09
4.15353e-09
4.16702e-09
4.7144e-09
4.27573e-09
3.23666e-09
3.13812e-09
4.64694e-09
4.63805e-09
4.74937e-09
3.00783e-09
3.05471e-09
2.96689e-09
4.60532e-09
4.28077e-09
4.73835e-09
4.44115e-09
3.00583e-09
2.96031e-09
4.15311e-09
4.20883e-09
4.30594e-09
4.39826e-09
4.32036e-09
4.92855e-09
4.48403e-09
3.12865e-09
3.07151e-09
4.79267e-09
4.82908e-09
4.95369e-09
2.92776e-09
2.95828e-09
2.90413e-09
4.78934e-09
4.50296e-09
4.97384e-09
4.70818e-09
2.95354e-09
2.93128e-09
4.3623e-09
4.46669e-09
4.55343e-09
4.69848e-09
4.54734e-09
5.19113e-09
4.76941e-09
3.0664e-09
3.05268e-09
5.01823e-09
5.08592e-09
5.24387e-09
2.905e-09
2.90186e-09
2.8863e-09
5.04336e-09
4.7852e-09
5.28518e-09
5.04712e-09
2.93447e-09
2.95271e-09
4.6219e-09
4.7848e-09
4.85327e-09
5.0669e-09
4.85142e-09
5.51827e-09
5.12764e-09
3.05798e-09
3.09643e-09
5.33082e-09
5.41346e-09
5.61863e-09
2.94107e-09
2.89443e-09
2.93133e-09
5.37431e-09
5.14182e-09
5.67932e-09
5.45992e-09
2.96201e-09
3.04183e-09
4.9395e-09
5.17045e-09
5.22837e-09
5.50745e-09
5.22953e-09
5.93252e-09
5.56319e-09
3.11028e-09
3.21828e-09
5.72487e-09
5.81966e-09
6.08257e-09
3.07666e-09
2.9494e-09
3.06157e-09
5.79035e-09
5.58158e-09
6.17234e-09
5.98174e-09
3.06751e-09
3.2317e-09
5.33692e-09
5.63071e-09
5.70624e-09
6.04203e-09
5.68805e-09
6.43694e-09
6.10237e-09
3.25092e-09
3.43669e-09
6.21561e-09
6.31738e-09
6.66152e-09
3.31916e-09
3.10341e-09
3.33317e-09
6.3156e-09
6.12577e-09
6.80199e-09
6.61682e-09
3.28111e-09
3.54508e-09
5.84689e-09
6.19287e-09
6.3207e-09
6.69347e-09
6.25467e-09
7.07217e-09
6.76754e-09
3.49229e-09
3.76831e-09
6.8264e-09
6.92261e-09
7.37581e-09
3.68192e-09
3.41142e-09
3.78538e-09
6.98127e-09
6.7996e-09
7.59791e-09
7.39878e-09
3.6275e-09
4.02252e-09
6.49889e-09
6.87898e-09
7.10332e-09
7.48737e-09
6.95505e-09
7.86108e-09
7.58322e-09
3.85632e-09
4.2522e-09
7.57552e-09
7.65428e-09
8.24628e-09
4.21091e-09
3.91618e-09
4.50486e-09
7.83096e-09
7.62488e-09
8.61549e-09
8.37999e-09
4.15896e-09
4.76343e-09
7.32949e-09
7.71723e-09
8.10206e-09
8.49446e-09
7.81976e-09
8.8792e-09
8.61171e-09
4.3882e-09
4.9665e-09
8.49966e-09
8.5824e-09
9.3366e-09
4.99925e-09
4.71943e-09
5.65126e-09
8.91142e-09
8.66082e-09
9.95072e-09
9.66893e-09
4.98031e-09
5.92938e-09
8.39261e-09
8.77812e-09
9.4175e-09
9.78691e-09
8.90932e-09
1.02011e-08
9.94772e-09
5.18205e-09
6.06544e-09
9.65273e-09
9.80444e-09
1.07394e-08
6.1927e-09
6.00608e-09
7.50536e-09
1.03425e-08
1.0054e-08
1.17082e-08
1.13777e-08
6.28698e-09
7.79009e-09
9.80836e-09
1.01761e-08
1.11707e-08
1.15061e-08
1.03397e-08
1.19463e-08
1.17147e-08
6.41215e-09
7.83721e-09
1.11486e-08
1.14717e-08
1.26018e-08
8.07289e-09
8.08527e-09
1.05834e-08
1.22438e-08
1.19007e-08
1.41156e-08
1.37327e-08
8.37464e-09
1.08668e-08
1.17067e-08
1.20351e-08
1.35894e-08
1.38979e-08
1.22576e-08
1.43478e-08
1.41218e-08
8.40409e-09
1.0785e-08
1.31669e-08
1.37937e-08
1.51123e-08
1.11515e-08
1.15359e-08
1.57409e-08
1.4849e-08
1.44518e-08
1.74666e-08
1.70142e-08
1.18153e-08
1.60522e-08
1.43241e-08
1.46193e-08
1.69355e-08
1.71971e-08
1.48666e-08
1.77261e-08
1.74918e-08
1.17111e-08
1.57371e-08
1.58809e-08
1.70515e-08
1.86602e-08
1.63386e-08
1.72889e-08
2.43165e-08
1.84881e-08
1.80159e-08
2.21276e-08
2.15656e-08
1.76038e-08
2.46271e-08
1.79502e-08
1.82146e-08
2.15322e-08
2.17652e-08
1.84934e-08
2.2291e-08
2.20883e-08
1.72444e-08
2.39951e-08
1.97278e-08
2.15575e-08
2.35555e-08
2.48404e-08
2.67613e-08
3.81199e-08
2.355e-08
2.29503e-08
2.85407e-08
2.78409e-08
2.70667e-08
3.82643e-08
2.29411e-08
2.31579e-08
2.78856e-08
2.81271e-08
2.35065e-08
2.85781e-08
2.83427e-08
2.6355e-08
3.73012e-08
2.51136e-08
2.77782e-08
3.05042e-08
3.887e-08
4.18426e-08
5.9439e-08
3.04738e-08
2.97355e-08
3.72014e-08
3.63178e-08
4.19598e-08
5.92426e-08
2.97931e-08
2.99993e-08
3.64657e-08
3.6468e-08
3.02057e-08
3.70343e-08
3.68168e-08
4.09252e-08
5.77002e-08
3.24754e-08
3.6253e-08
3.89832e-08
5.89781e-08
6.48951e-08
9.01757e-08
3.97726e-08
3.88349e-08
4.85672e-08
4.74142e-08
6.45706e-08
8.92968e-08
3.90281e-08
3.9012e-08
4.77614e-08
4.77547e-08
3.9334e-08
4.79156e-08
4.81648e-08
6.29786e-08
8.81829e-08
4.13704e-08
4.75376e-08
4.93372e-08
8.81172e-08
9.75696e-08
1.31953e-07
5.18803e-08
5.06488e-08
6.30208e-08
6.16946e-08
9.66035e-08
1.30104e-07
5.10338e-08
5.10179e-08
6.20288e-08
6.18842e-08
5.1643e-08
6.18141e-08
6.34595e-08
9.56011e-08
1.29608e-07
5.23214e-08
6.19088e-08
6.25641e-08
1.30341e-07
1.41635e-07
1.85479e-07
6.70701e-08
6.58169e-08
8.02362e-08
7.96262e-08
1.39567e-07
1.83542e-07
6.60933e-08
6.59148e-08
7.96807e-08
7.969e-08
6.77333e-08
7.9373e-08
8.14104e-08
1.39035e-07
1.81832e-07
6.64095e-08
7.96722e-08
7.93673e-08
1.83112e-07
1.97306e-07
2.50305e-07
8.50437e-08
8.47359e-08
1.00981e-07
1.01574e-07
1.95544e-07
2.4936e-07
8.47584e-08
8.48885e-08
1.01632e-07
1.01839e-07
8.62696e-08
1.00902e-07
1.01968e-07
1.9368e-07
2.48893e-07
8.4258e-08
1.01891e-07
1.00872e-07
2.46691e-07
2.64345e-07
3.25883e-07
1.06849e-07
1.07671e-07
1.26281e-07
1.27569e-07
2.63517e-07
3.25422e-07
1.07752e-07
1.07829e-07
1.27442e-07
1.27066e-07
1.07687e-07
1.26345e-07
1.26612e-07
2.63406e-07
3.25817e-07
1.07053e-07
1.28015e-07
1.27267e-07
3.2273e-07
3.41525e-07
4.04997e-07
1.33327e-07
1.34705e-07
1.55869e-07
1.5738e-07
3.41173e-07
4.05358e-07
1.34438e-07
1.34016e-07
1.56657e-07
1.56534e-07
1.33456e-07
1.55824e-07
1.55323e-07
3.41448e-07
4.05111e-07
1.34429e-07
1.57858e-07
1.56808e-07
4.02531e-07
4.20614e-07
4.78611e-07
1.63778e-07
1.65297e-07
1.88329e-07
1.89904e-07
4.21096e-07
4.7927e-07
1.64477e-07
1.64519e-07
1.88893e-07
1.89338e-07
1.63015e-07
1.88022e-07
1.87074e-07
4.2084e-07
4.80253e-07
1.64564e-07
1.9116e-07
1.88647e-07
4.76106e-07
4.93014e-07
5.42388e-07
1.96765e-07
1.98344e-07
2.22962e-07
2.24471e-07
4.9368e-07
5.43198e-07
1.97307e-07
1.97801e-07
2.2335e-07
2.23751e-07
1.9545e-07
2.2244e-07
2.21824e-07
4.9498e-07
5.44834e-07
1.96977e-07
2.26767e-07
2.23076e-07
5.41748e-07
5.55423e-07
5.98525e-07
2.31989e-07
2.33393e-07
2.59695e-07
2.60631e-07
5.56291e-07
5.99379e-07
2.3232e-07
2.32635e-07
2.5997e-07
2.59983e-07
2.30978e-07
2.59395e-07
2.59065e-07
5.57662e-07
5.99182e-07
2.32113e-07
2.6294e-07
2.59848e-07
5.99336e-07
6.10468e-07
6.45413e-07
2.69124e-07
2.69912e-07
2.98635e-07
2.99158e-07
6.11275e-07
6.45838e-07
2.69454e-07
2.69373e-07
2.99129e-07
2.98953e-07
2.68617e-07
2.98631e-07
2.98474e-07
6.10812e-07
6.45154e-07
2.69298e-07
3.00555e-07
2.98866e-07
6.46078e-07
6.55501e-07
6.84821e-07
3.09189e-07
3.09667e-07
3.44346e-07
3.44718e-07
6.55881e-07
6.84963e-07
3.09694e-07
3.09541e-07
3.44707e-07
3.44714e-07
3.09112e-07
3.4432e-07
3.44374e-07
6.55235e-07
6.84811e-07
3.09411e-07
3.45434e-07
3.44453e-07
6.85181e-07
6.94665e-07
7.29187e-07
3.57578e-07
3.57906e-07
4.02777e-07
4.02941e-07
6.94771e-07
7.29083e-07
3.57871e-07
3.57934e-07
4.02852e-07
4.03085e-07
3.576e-07
4.02565e-07
4.02753e-07
6.94678e-07
7.29333e-07
3.57632e-07
4.03312e-07
4.0269e-07
7.29275e-07
7.40665e-07
7.83812e-07
4.1959e-07
4.19709e-07
4.73164e-07
4.73214e-07
7.40539e-07
7.83646e-07
4.19612e-07
4.19883e-07
4.73074e-07
4.73399e-07
4.19559e-07
4.72905e-07
4.73157e-07
7.40808e-07
7.83979e-07
4.19476e-07
4.73328e-07
4.73033e-07
7.83854e-07
7.96159e-07
8.39058e-07
4.91283e-07
4.91327e-07
5.42933e-07
5.42977e-07
7.96004e-07
8.38928e-07
4.91179e-07
4.91499e-07
5.42805e-07
5.43098e-07
4.9129e-07
5.42701e-07
5.42984e-07
7.9631e-07
8.39184e-07
4.91159e-07
5.42935e-07
5.4284e-07
8.39133e-07
8.50239e-07
8.84978e-07
5.58653e-07
5.58698e-07
5.99885e-07
5.99933e-07
8.50119e-07
8.84867e-07
5.58529e-07
5.58805e-07
5.99765e-07
6.00012e-07
5.58712e-07
5.9969e-07
5.99958e-07
8.50347e-07
8.85064e-07
5.58571e-07
5.99841e-07
5.99824e-07
8.8506e-07
8.94018e-07
9.16677e-07
6.11383e-07
6.11431e-07
6.37924e-07
6.37977e-07
8.93914e-07
9.16582e-07
6.1127e-07
6.11503e-07
6.37814e-07
6.38031e-07
6.11455e-07
6.37746e-07
6.38004e-07
8.94089e-07
9.16739e-07
6.1133e-07
6.37872e-07
6.37879e-07
9.16763e-07
9.22673e-07
9.31814e-07
6.44087e-07
6.4414e-07
6.56055e-07
6.56114e-07
9.22584e-07
9.31725e-07
6.43984e-07
6.44189e-07
6.55956e-07
6.56154e-07
6.44166e-07
6.5589e-07
6.56141e-07
9.22727e-07
9.31867e-07
6.44049e-07
6.56009e-07
6.56025e-07
9.31901e-07
9.3522e-07
9.37263e-07
6.58437e-07
6.58494e-07
6.62722e-07
6.62778e-07
9.3514e-07
9.37183e-07
6.5835e-07
6.58536e-07
6.62633e-07
6.62819e-07
6.58523e-07
6.62566e-07
6.62806e-07
9.35271e-07
9.37312e-07
6.5841e-07
6.62678e-07
6.62696e-07
9.37346e-07
9.39755e-07
9.39277e-07
6.63509e-07
6.63565e-07
6.64844e-07
6.649e-07
9.39679e-07
9.39196e-07
6.63424e-07
6.63607e-07
6.64759e-07
6.64943e-07
6.63593e-07
6.64695e-07
6.64928e-07
9.39802e-07
9.39323e-07
6.63484e-07
6.64803e-07
6.64821e-07
9.39359e-07
9.41426e-07
9.39833e-07
6.65075e-07
6.65131e-07
6.65459e-07
6.65514e-07
9.41348e-07
9.39749e-07
6.64992e-07
6.65174e-07
6.65374e-07
6.65556e-07
6.65159e-07
6.65308e-07
6.65542e-07
9.4147e-07
9.39874e-07
6.65053e-07
6.65417e-07
6.65436e-07
9.3991e-07
9.41936e-07
9.3993e-07
6.65514e-07
6.65568e-07
6.65567e-07
6.65621e-07
9.41857e-07
9.39845e-07
6.65431e-07
6.65611e-07
6.65482e-07
6.65663e-07
6.65597e-07
6.65415e-07
6.65649e-07
9.41976e-07
9.39972e-07
6.65491e-07
6.65525e-07
6.65543e-07
9.40009e-07
9.41969e-07
9.39738e-07
6.65559e-07
6.65613e-07
6.65537e-07
6.65591e-07
9.41889e-07
9.39655e-07
6.65475e-07
6.65655e-07
6.65452e-07
6.65633e-07
6.65641e-07
6.65385e-07
6.6562e-07
9.4201e-07
9.39782e-07
6.65535e-07
6.65495e-07
6.65513e-07
9.39817e-07
9.41768e-07
9.39889e-07
6.65535e-07
6.65588e-07
6.6556e-07
6.65613e-07
9.41689e-07
9.39806e-07
6.65449e-07
6.65631e-07
6.65472e-07
6.65655e-07
6.65617e-07
6.65409e-07
6.65642e-07
9.4181e-07
9.39932e-07
6.65511e-07
6.65517e-07
6.65536e-07
9.39971e-07
9.41959e-07
9.39901e-07
6.65571e-07
6.65623e-07
6.65569e-07
6.65618e-07
9.41883e-07
9.39812e-07
6.65484e-07
6.65666e-07
6.65479e-07
6.6566e-07
6.65652e-07
6.65414e-07
6.65646e-07
9.42003e-07
9.39933e-07
6.65546e-07
6.65521e-07
6.6554e-07
9.39967e-07
9.41915e-07
9.39784e-07
6.65557e-07
6.65606e-07
6.65552e-07
6.65601e-07
9.41827e-07
9.39707e-07
6.65467e-07
6.65648e-07
6.6546e-07
6.65642e-07
6.65634e-07
6.65396e-07
6.65629e-07
9.41939e-07
9.39837e-07
6.65527e-07
6.65504e-07
6.65524e-07
9.39878e-07
9.41875e-07
9.39871e-07
6.65558e-07
6.65606e-07
6.65567e-07
6.65612e-07
9.41802e-07
9.39776e-07
6.65466e-07
6.65648e-07
6.65474e-07
6.65656e-07
6.65635e-07
6.65409e-07
6.65641e-07
9.41924e-07
9.39899e-07
6.65531e-07
6.65516e-07
6.65537e-07
9.39932e-07
9.41871e-07
9.39867e-07
6.65561e-07
6.65606e-07
6.65563e-07
6.65609e-07
9.41782e-07
9.39791e-07
6.65468e-07
6.6565e-07
6.65469e-07
6.65651e-07
6.65636e-07
6.65405e-07
6.65638e-07
9.41899e-07
9.3992e-07
6.65531e-07
6.65512e-07
6.65531e-07
9.39957e-07
9.41944e-07
9.39796e-07
6.65561e-07
6.65607e-07
6.65564e-07
6.65609e-07
9.41871e-07
9.39706e-07
6.65467e-07
6.65649e-07
6.65468e-07
6.65653e-07
6.65636e-07
6.65407e-07
6.65638e-07
9.41993e-07
9.39828e-07
6.6553e-07
6.65514e-07
6.65534e-07
9.39869e-07
9.41829e-07
9.39904e-07
6.65564e-07
6.65609e-07
6.65569e-07
6.65612e-07
9.41748e-07
9.39813e-07
6.65468e-07
6.65653e-07
6.65468e-07
6.65653e-07
6.65638e-07
6.65407e-07
6.65639e-07
9.41869e-07
9.39923e-07
6.65534e-07
6.65514e-07
6.65534e-07
9.39962e-07
9.41921e-07
9.39891e-07
6.65565e-07
6.65608e-07
6.65573e-07
6.65616e-07
9.41828e-07
9.39814e-07
6.65467e-07
6.6565e-07
6.65472e-07
6.65658e-07
6.65636e-07
6.65413e-07
6.65645e-07
9.41929e-07
9.39944e-07
6.6553e-07
6.65518e-07
6.65538e-07
9.3998e-07
9.41949e-07
9.39832e-07
6.65571e-07
6.65612e-07
6.6557e-07
6.65613e-07
9.41864e-07
9.39781e-07
6.6547e-07
6.65654e-07
6.65469e-07
6.65656e-07
6.6564e-07
6.65408e-07
6.6564e-07
9.41976e-07
9.3992e-07
6.65534e-07
6.65514e-07
6.65532e-07
9.39936e-07
9.41906e-07
9.39806e-07
6.6557e-07
6.65613e-07
6.65574e-07
6.65612e-07
9.41854e-07
9.39733e-07
6.65469e-07
6.65655e-07
6.6547e-07
6.65656e-07
6.65641e-07
6.65406e-07
6.65638e-07
9.41981e-07
9.3988e-07
6.65532e-07
6.65513e-07
6.65531e-07
9.39883e-07
9.41845e-07
9.39861e-07
6.65573e-07
6.65612e-07
6.65574e-07
6.65612e-07
9.41808e-07
9.39717e-07
6.65469e-07
6.65656e-07
6.6547e-07
6.65654e-07
6.65638e-07
6.65411e-07
6.65643e-07
9.41951e-07
9.39863e-07
6.65531e-07
6.65516e-07
6.65535e-07
9.39904e-07
9.41871e-07
9.39896e-07
6.65573e-07
6.65611e-07
6.65577e-07
6.65613e-07
9.41762e-07
9.3977e-07
6.6547e-07
6.65654e-07
6.6547e-07
6.65653e-07
6.65641e-07
6.65411e-07
6.65642e-07
9.41924e-07
9.39868e-07
6.65533e-07
6.65516e-07
6.65533e-07
9.39927e-07
9.41913e-07
9.39899e-07
6.65573e-07
6.65611e-07
6.65578e-07
6.65615e-07
9.41788e-07
9.3978e-07
6.65468e-07
6.65652e-07
6.65472e-07
6.65657e-07
6.65641e-07
6.6541e-07
6.65645e-07
9.4192e-07
9.3987e-07
6.65531e-07
6.65515e-07
6.65537e-07
9.39988e-07
9.41939e-07
9.39882e-07
6.65576e-07
6.65612e-07
6.65578e-07
6.65618e-07
9.41802e-07
9.39811e-07
6.65469e-07
6.65654e-07
6.65471e-07
6.65657e-07
6.65642e-07
6.65415e-07
6.65643e-07
9.41912e-07
9.39894e-07
6.65533e-07
6.65519e-07
6.65533e-07
9.39915e-07
9.41938e-07
9.3988e-07
6.65577e-07
6.65612e-07
6.65578e-07
6.65615e-07
9.41828e-07
9.39804e-07
6.65471e-07
6.65655e-07
6.65469e-07
6.65656e-07
6.65641e-07
6.65412e-07
6.65647e-07
9.4192e-07
9.39911e-07
6.6553e-07
6.65518e-07
6.65537e-07
9.39993e-07
9.41944e-07
9.39824e-07
6.65578e-07
6.65615e-07
6.65575e-07
6.65609e-07
9.41884e-07
9.39689e-07
6.65469e-07
6.65655e-07
6.65468e-07
6.65653e-07
6.65644e-07
6.65408e-07
6.6564e-07
9.41945e-07
9.39858e-07
6.65533e-07
6.65513e-07
6.65529e-07
9.39942e-07
9.41903e-07
9.39825e-07
6.65576e-07
6.65608e-07
6.65576e-07
6.65615e-07
9.41739e-07
9.39836e-07
6.65468e-07
6.65653e-07
6.65467e-07
6.65655e-07
6.6564e-07
6.65412e-07
6.6564e-07
9.41899e-07
9.39885e-07
6.6553e-07
6.65514e-07
6.65528e-07
9.39871e-07
9.41824e-07
9.39952e-07
6.65571e-07
6.65611e-07
6.6558e-07
6.65613e-07
9.41837e-07
9.3983e-07
6.65464e-07
6.65652e-07
6.65473e-07
6.65656e-07
6.65637e-07
6.65415e-07
6.65648e-07
9.41901e-07
9.39914e-07
6.65527e-07
6.65515e-07
6.65535e-07
9.39971e-07
9.41981e-07
9.39837e-07
6.65578e-07
6.65611e-07
6.65578e-07
6.65612e-07
9.41918e-07
9.397e-07
6.65471e-07
6.65653e-07
6.6547e-07
6.65655e-07
6.65642e-07
6.65406e-07
6.65641e-07
9.41944e-07
9.39855e-07
6.65528e-07
6.65515e-07
6.65533e-07
9.40024e-07
9.4192e-07
9.39795e-07
6.65576e-07
6.65611e-07
6.65577e-07
6.65612e-07
9.41793e-07
9.39704e-07
6.6547e-07
6.65654e-07
6.6547e-07
6.65656e-07
6.65642e-07
6.6541e-07
6.65641e-07
9.41888e-07
9.39895e-07
6.65532e-07
6.65516e-07
6.65529e-07
9.39933e-07
9.41847e-07
9.39836e-07
6.65577e-07
6.65612e-07
6.65579e-07
6.65613e-07
9.41739e-07
9.39788e-07
6.6547e-07
6.65655e-07
6.65468e-07
6.65655e-07
6.6564e-07
6.65414e-07
6.65643e-07
9.41906e-07
9.39934e-07
6.65529e-07
6.65515e-07
6.6553e-07
9.39884e-07
9.41849e-07
9.39893e-07
6.65579e-07
6.65613e-07
6.6558e-07
6.65613e-07
9.41788e-07
9.39828e-07
6.65468e-07
6.65654e-07
6.65469e-07
6.65656e-07
6.65643e-07
6.65411e-07
6.65641e-07
9.41952e-07
9.39933e-07
6.6553e-07
6.65515e-07
6.65529e-07
9.39881e-07
9.41897e-07
9.39912e-07
6.6558e-07
6.65613e-07
6.65579e-07
6.65614e-07
9.41856e-07
9.398e-07
6.65467e-07
6.65655e-07
6.65471e-07
6.65657e-07
6.65641e-07
6.65409e-07
6.6564e-07
9.41977e-07
9.39877e-07
6.65526e-07
6.65512e-07
6.65536e-07
9.3989e-07
9.41941e-07
9.39879e-07
6.65579e-07
6.65614e-07
6.65583e-07
6.65614e-07
9.41861e-07
9.39738e-07
6.6547e-07
6.65657e-07
6.65467e-07
6.65653e-07
6.6564e-07
6.65407e-07
6.65641e-07
9.41942e-07
9.39846e-07
6.65535e-07
6.65511e-07
6.6553e-07
9.3989e-07
9.41935e-07
9.39841e-07
6.65583e-07
6.65614e-07
6.65577e-07
6.65612e-07
9.41799e-07
9.39772e-07
6.65469e-07
6.65653e-07
6.65465e-07
6.65655e-07
6.65641e-07
6.65409e-07
6.65642e-07
9.4186e-07
9.39959e-07
6.6553e-07
6.65515e-07
6.6553e-07
9.39883e-07
9.41895e-07
9.39839e-07
6.65578e-07
6.65612e-07
6.65577e-07
6.65612e-07
9.41787e-07
9.39845e-07
6.65465e-07
6.65653e-07
6.65469e-07
6.65658e-07
6.65642e-07
6.65409e-07
6.65641e-07
9.41944e-07
9.39966e-07
6.6553e-07
6.65513e-07
6.65531e-07
9.39886e-07
9.41888e-07
9.39828e-07
6.65576e-07
6.65611e-07
6.65579e-07
6.65614e-07
9.41872e-07
9.39817e-07
6.65468e-07
6.65656e-07
6.65467e-07
6.65657e-07
6.65641e-07
6.65407e-07
6.65641e-07
9.41992e-07
9.39932e-07
6.65532e-07
6.6551e-07
6.65529e-07
9.39894e-07
9.41853e-07
9.3992e-07
6.65577e-07
6.65613e-07
6.6558e-07
6.65611e-07
9.4189e-07
9.39763e-07
6.65466e-07
6.65657e-07
6.65469e-07
6.65655e-07
6.65641e-07
6.65406e-07
6.65641e-07
9.41971e-07
9.39902e-07
6.65532e-07
6.65508e-07
6.65528e-07
9.39894e-07
9.4192e-07
9.39928e-07
6.65581e-07
6.65613e-07
6.65577e-07
6.65608e-07
9.41853e-07
9.39735e-07
6.6547e-07
6.65655e-07
6.65464e-07
6.65653e-07
6.65644e-07
6.65401e-07
6.65639e-07
9.41949e-07
9.39873e-07
6.65532e-07
6.65505e-07
6.65527e-07
9.39875e-07
9.41993e-07
9.39819e-07
6.65582e-07
6.65612e-07
6.65573e-07
6.65607e-07
9.41815e-07
9.39736e-07
6.65469e-07
6.65655e-07
6.65461e-07
6.65649e-07
6.65643e-07
6.65401e-07
6.65637e-07
9.41927e-07
9.39873e-07
6.65531e-07
6.65504e-07
6.65526e-07
9.39859e-07
9.41882e-07
9.39877e-07
6.65576e-07
6.6561e-07
6.65574e-07
6.65607e-07
9.41798e-07
9.39747e-07
6.65463e-07
6.65652e-07
6.65462e-07
6.65649e-07
6.65638e-07
6.65399e-07
6.65638e-07
9.4191e-07
9.39897e-07
6.65527e-07
6.65503e-07
6.65526e-07
9.39882e-07
9.41901e-07
9.39892e-07
6.65574e-07
6.65608e-07
6.65573e-07
6.65606e-07
9.41794e-07
9.39763e-07
6.65462e-07
6.6565e-07
6.65459e-07
6.65648e-07
6.65638e-07
6.65397e-07
6.65634e-07
9.4192e-07
9.39912e-07
6.65527e-07
6.655e-07
6.65523e-07
9.39903e-07
9.41929e-07
9.39871e-07
6.65575e-07
6.65608e-07
6.6557e-07
6.65603e-07
9.41799e-07
9.39773e-07
6.65461e-07
6.6565e-07
6.65457e-07
6.65646e-07
6.65637e-07
6.65395e-07
6.65631e-07
9.41932e-07
9.39926e-07
6.65525e-07
6.65499e-07
6.6552e-07
9.39892e-07
9.41905e-07
9.39861e-07
6.65574e-07
6.65606e-07
6.65567e-07
6.656e-07
9.41806e-07
9.39786e-07
6.65461e-07
6.65649e-07
6.65453e-07
6.65643e-07
6.65636e-07
6.65392e-07
6.65627e-07
9.41948e-07
9.39928e-07
6.65523e-07
6.65496e-07
6.65515e-07
9.39872e-07
9.41882e-07
9.3988e-07
6.65572e-07
6.65605e-07
6.65564e-07
6.65597e-07
9.41818e-07
9.39793e-07
6.6546e-07
6.65648e-07
6.65451e-07
6.6564e-07
6.65634e-07
6.6539e-07
6.65624e-07
9.41957e-07
9.39911e-07
6.65522e-07
6.65492e-07
6.65512e-07
9.39863e-07
9.41891e-07
9.39911e-07
6.65571e-07
6.65605e-07
6.6556e-07
6.65593e-07
9.41831e-07
9.39783e-07
6.65459e-07
6.65647e-07
6.65448e-07
6.65636e-07
6.65633e-07
6.65388e-07
6.65622e-07
9.41937e-07
9.39912e-07
6.65521e-07
6.65491e-07
6.65509e-07
9.39866e-07
9.41927e-07
9.39918e-07
6.65571e-07
6.65604e-07
6.65557e-07
6.6559e-07
9.41822e-07
9.3978e-07
6.65461e-07
6.65647e-07
6.65445e-07
6.65633e-07
6.65633e-07
6.65385e-07
6.65619e-07
9.41927e-07
9.39951e-07
6.65521e-07
6.65489e-07
6.65507e-07
9.39872e-07
9.41952e-07
9.39902e-07
6.65572e-07
6.65604e-07
6.65554e-07
6.65587e-07
9.41812e-07
9.39788e-07
6.65461e-07
6.65648e-07
6.65442e-07
6.6563e-07
6.65635e-07
6.65381e-07
6.65614e-07
9.4197e-07
9.39948e-07
6.65523e-07
6.65484e-07
6.65502e-07
9.39862e-07
9.41953e-07
9.39882e-07
6.65575e-07
6.65607e-07
6.6555e-07
6.65583e-07
9.41818e-07
9.39802e-07
6.65463e-07
6.65651e-07
6.65438e-07
6.65625e-07
6.65636e-07
6.65379e-07
6.65611e-07
9.42003e-07
9.399e-07
6.65524e-07
6.65479e-07
6.65497e-07
9.39842e-07
9.41934e-07
9.39877e-07
6.65578e-07
6.6561e-07
6.65545e-07
6.65578e-07
9.41836e-07
9.39805e-07
6.65466e-07
6.65653e-07
6.65433e-07
6.6562e-07
6.65639e-07
6.65375e-07
6.65606e-07
9.41966e-07
9.39902e-07
6.65525e-07
6.65476e-07
6.65493e-07
9.39835e-07
9.41916e-07
9.39877e-07
6.65581e-07
6.65614e-07
6.6554e-07
6.65573e-07
9.41853e-07
9.39789e-07
6.65469e-07
6.65656e-07
6.65428e-07
6.65615e-07
6.65643e-07
6.65368e-07
6.65601e-07
9.41956e-07
9.39918e-07
6.65529e-07
6.65472e-07
6.65488e-07
9.39857e-07
9.41912e-07
9.39873e-07
6.65585e-07
6.65618e-07
6.65534e-07
6.65566e-07
9.41846e-07
9.39779e-07
6.65473e-07
6.6566e-07
6.65423e-07
6.6561e-07
6.65646e-07
6.65364e-07
6.65596e-07
9.4196e-07
9.39903e-07
6.65534e-07
6.65464e-07
6.65479e-07
9.39872e-07
9.41908e-07
9.39874e-07
6.65591e-07
6.65624e-07
6.65527e-07
6.65559e-07
9.4183e-07
9.39775e-07
6.6548e-07
6.65667e-07
6.65416e-07
6.65603e-07
6.65654e-07
6.65356e-07
6.65588e-07
9.41936e-07
9.39901e-07
6.65539e-07
6.65457e-07
6.65473e-07
9.39867e-07
9.41912e-07
9.39871e-07
6.65599e-07
6.65631e-07
6.65519e-07
6.65551e-07
9.41821e-07
9.39771e-07
6.6549e-07
6.65677e-07
6.65405e-07
6.65593e-07
6.65663e-07
6.65348e-07
6.65578e-07
9.41925e-07
9.39917e-07
6.65547e-07
6.65448e-07
6.65464e-07
9.39846e-07
9.41911e-07
9.39874e-07
6.65613e-07
6.65644e-07
6.65506e-07
6.65539e-07
9.4182e-07
9.39759e-07
6.655e-07
6.65687e-07
6.65396e-07
6.65584e-07
6.65673e-07
6.65338e-07
6.65568e-07
9.41943e-07
9.39925e-07
6.65557e-07
6.65439e-07
6.65454e-07
9.39836e-07
9.41917e-07
9.39863e-07
6.65626e-07
6.65659e-07
6.65496e-07
6.65529e-07
9.41812e-07
9.39747e-07
6.65514e-07
6.65703e-07
6.65386e-07
6.65572e-07
6.65687e-07
6.65327e-07
6.65558e-07
9.41962e-07
9.39902e-07
6.65572e-07
6.65425e-07
6.65442e-07
9.39847e-07
9.41908e-07
9.39851e-07
6.65647e-07
6.6568e-07
6.65485e-07
6.65515e-07
9.41789e-07
9.3975e-07
6.65536e-07
6.65724e-07
6.65374e-07
6.65561e-07
6.65711e-07
6.65311e-07
6.65541e-07
9.41955e-07
9.39897e-07
6.65595e-07
6.65416e-07
6.65426e-07
9.39848e-07
9.41883e-07
9.39646e-07
6.65675e-07
6.65703e-07
6.65108e-07
6.65136e-07
9.41777e-07
9.39562e-07
6.65563e-07
6.65748e-07
6.64991e-07
6.65175e-07
6.65731e-07
6.64939e-07
6.65166e-07
9.41927e-07
9.39703e-07
6.65613e-07
6.6503e-07
6.6504e-07
9.39627e-07
9.4155e-07
9.20164e-07
6.65449e-07
6.65475e-07
6.45039e-07
6.45065e-07
9.4147e-07
9.2012e-07
6.65329e-07
6.6552e-07
6.44995e-07
6.45037e-07
6.65508e-07
6.4499e-07
6.45077e-07
9.41602e-07
9.20179e-07
6.65378e-07
6.45009e-07
6.45018e-07
9.20191e-07
8.97463e-07
6.19789e-07
6.19811e-07
8.97439e-07
6.19762e-07
6.19781e-07
2.36065e-07
2.36052e-07
2.36071e-07
6.19822e-07
8.97482e-07
6.1979e-07
4.66526e-08
7.40775e-09
3.12897e-08
3.12062e-08
1.36658e-09
4.29987e-09
6.21019e-09
1.84645e-08
1.42374e-09
4.54926e-09
1.83707e-08
1.01989e-08
5.19536e-09
3.48433e-09
6.67523e-09
7.0955e-09
1.63883e-07
5.43903e-09
2.53437e-07
1.51446e-06
2.98764e-06
7.23114e-09
1.57832e-07
5.60857e-09
2.41622e-07
1.77894e-08
1.78185e-08
1.79428e-08
1.76463e-08
1.76558e-08
1.76655e-08
1.78074e-08
1.40217e-09
7.90792e-08
8.45539e-09
4.90158e-09
1.40749e-09
5.79802e-08
8.37542e-09
1.54816e-06
3.07738e-06
1.47555e-09
8.21942e-09
8.40255e-08
5.14951e-09
1.4639e-09
8.14113e-09
6.25915e-08
2.13792e-07
2.18987e-07
4.8112e-09
1.83724e-07
1.8793e-07
1.77482e-08
4.6086e-07
1.0763e-08
6.68838e-07
7.06238e-06
1.0138e-05
1.77586e-08
4.61311e-07
1.0768e-08
6.45076e-07
1.77488e-08
1.77546e-08
1.79012e-08
1.80298e-08
1.80606e-08