/*--------------------------------*- C++ -*----------------------------------*\
| =========                 |                                                 |
| \\      /  F ield         | OpenFOAM: The Open Source CFD Toolbox           |
|  \\    /   O peration     | Version:  v2012                                 |
|   \\  /    A nd           | Website:  www.openfoam.com                      |
|    \\/     M anipulation  |                                                 |
\*---------------------------------------------------------------------------*/
FoamFile
{
    version     2.0;
    format      ascii;
    class       volScalarField;
    location    "162.5";
    object      k;
}
// * * * * * * * * * * * * * * * * * * * * * * * * * * * * * * * * * * * * * //

dimensions      [0 2 -2 0 0 0 0];


internalField   nonuniform List<scalar> 
171728
(
2.2267e-06
3.67292e-07
4.10316e-07
3.58342e-07
2.23002e-06
3.69072e-07
4.07503e-07
3.36854e-07
2.29287e-06
3.75096e-07
4.1117e-07
3.22486e-07
2.35762e-06
3.84753e-07
4.17595e-07
3.11077e-07
2.42342e-06
3.97548e-07
4.26991e-07
3.01507e-07
2.4904e-06
4.12451e-07
4.39551e-07
2.95153e-07
2.5576e-06
4.31034e-07
4.55877e-07
2.89437e-07
2.62364e-06
4.53653e-07
4.77072e-07
2.85929e-07
2.68953e-06
4.8276e-07
5.0189e-07
2.83119e-07
2.75404e-06
5.17983e-07
5.31762e-07
2.78776e-07
2.81734e-06
5.54401e-07
5.66214e-07
2.76417e-07
2.87896e-06
5.94005e-07
6.05952e-07
2.76715e-07
2.94e-06
6.38844e-07
6.5194e-07
2.83999e-07
3.0008e-06
6.9047e-07
7.02255e-07
3.00547e-07
3.06151e-06
7.49949e-07
7.62444e-07
3.25122e-07
3.12211e-06
8.18455e-07
8.26569e-07
3.60033e-07
3.18098e-06
8.99513e-07
8.9912e-07
4.05678e-07
3.24107e-06
9.97725e-07
9.80933e-07
4.69274e-07
3.29998e-06
1.10873e-06
1.07438e-06
5.59095e-07
3.35815e-06
1.24323e-06
1.19413e-06
6.9382e-07
3.42553e-06
1.41333e-06
1.35617e-06
9.23998e-07
3.49061e-06
1.62618e-06
1.55712e-06
1.26816e-06
3.56077e-06
1.90222e-06
1.82924e-06
1.8285e-06
3.64316e-06
2.25358e-06
2.18749e-06
2.61297e-06
3.72882e-06
2.70316e-06
2.64823e-06
3.65255e-06
3.83637e-06
3.25243e-06
3.24436e-06
5.17811e-06
3.95282e-06
3.92788e-06
3.93199e-06
7.10308e-06
4.10743e-06
4.80182e-06
4.82105e-06
9.26473e-06
4.28349e-06
5.82892e-06
5.88611e-06
1.17903e-05
4.51181e-06
7.03954e-06
7.11533e-06
1.45664e-05
4.77728e-06
8.43732e-06
8.50427e-06
1.71248e-05
5.12349e-06
9.94691e-06
1.01015e-05
1.9461e-05
5.53716e-06
1.15452e-05
1.17712e-05
2.15774e-05
6.01834e-06
1.30589e-05
1.32115e-05
2.32827e-05
6.59787e-06
1.4604e-05
1.46841e-05
2.4597e-05
7.36954e-06
1.65834e-05
1.66369e-05
2.59725e-05
8.6883e-06
1.94705e-05
1.9502e-05
2.80278e-05
1.06133e-05
2.28716e-05
2.28867e-05
3.05319e-05
1.29541e-05
2.61336e-05
2.61407e-05
3.29404e-05
1.54182e-05
2.88615e-05
2.88656e-05
3.49698e-05
1.72551e-05
3.04589e-05
3.04625e-05
3.60922e-05
1.82274e-05
3.11515e-05
3.11546e-05
3.6531e-05
1.86199e-05
3.13967e-05
3.13994e-05
3.66945e-05
1.87487e-05
3.14729e-05
3.14755e-05
3.67476e-05
1.87824e-05
3.14909e-05
3.14934e-05
3.67695e-05
1.87874e-05
3.14895e-05
3.1492e-05
3.6757e-05
1.87892e-05
3.14907e-05
3.14933e-05
3.67563e-05
1.87895e-05
3.14926e-05
3.14949e-05
3.67707e-05
1.87892e-05
3.14903e-05
3.14928e-05
3.67481e-05
1.87894e-05
3.14915e-05
3.14939e-05
3.67726e-05
1.87894e-05
3.14913e-05
3.14937e-05
3.67538e-05
1.87895e-05
3.14913e-05
3.14936e-05
3.67593e-05
1.87896e-05
3.14912e-05
3.14935e-05
3.67697e-05
1.87897e-05
3.14921e-05
3.14943e-05
3.67635e-05
1.87897e-05
3.14917e-05
3.14939e-05
3.67528e-05
1.87898e-05
3.14911e-05
3.14935e-05
3.67555e-05
1.87898e-05
3.14916e-05
3.14938e-05
3.67638e-05
1.87898e-05
3.14916e-05
3.14938e-05
3.67685e-05
1.87898e-05
3.14913e-05
3.14935e-05
3.67665e-05
1.87898e-05
3.14922e-05
3.1494e-05
3.67641e-05
1.87898e-05
3.14923e-05
3.14942e-05
3.67704e-05
1.87899e-05
3.14913e-05
3.14935e-05
3.67529e-05
1.87898e-05
3.14918e-05
3.14936e-05
3.67574e-05
1.879e-05
3.14925e-05
3.14937e-05
3.67709e-05
1.879e-05
3.14912e-05
3.14937e-05
3.67614e-05
1.87899e-05
3.14914e-05
3.14939e-05
3.67521e-05
1.87899e-05
3.14921e-05
3.1494e-05
3.67601e-05
1.87899e-05
3.14919e-05
3.14941e-05
3.67682e-05
1.879e-05
3.14917e-05
3.14935e-05
3.67686e-05
1.87899e-05
3.14913e-05
3.14934e-05
3.67648e-05
1.87899e-05
3.14915e-05
3.1494e-05
3.6758e-05
1.87899e-05
3.14918e-05
3.1494e-05
3.67543e-05
1.87899e-05
3.14917e-05
3.14938e-05
3.67551e-05
1.87898e-05
3.14919e-05
3.14938e-05
3.67547e-05
1.87898e-05
3.14914e-05
3.14936e-05
3.6754e-05
1.87897e-05
3.14913e-05
3.14936e-05
3.67573e-05
1.87897e-05
3.14913e-05
3.14936e-05
3.67631e-05
1.87897e-05
3.14913e-05
3.14935e-05
3.67647e-05
1.87897e-05
3.14913e-05
3.14936e-05
3.67614e-05
1.87897e-05
3.14913e-05
3.14935e-05
3.67575e-05
1.87897e-05
3.14913e-05
3.14933e-05
3.67569e-05
1.87897e-05
3.14914e-05
3.14934e-05
3.67578e-05
1.87897e-05
3.14914e-05
3.14937e-05
3.67574e-05
1.87897e-05
3.14914e-05
3.14936e-05
3.67553e-05
1.87897e-05
3.14917e-05
3.14935e-05
3.6755e-05
1.87897e-05
3.14918e-05
3.14937e-05
3.67575e-05
1.87897e-05
3.14919e-05
3.1494e-05
3.67606e-05
1.87897e-05
3.14922e-05
3.14942e-05
3.67583e-05
1.87897e-05
3.14926e-05
3.14945e-05
3.67545e-05
1.87897e-05
3.14931e-05
3.14951e-05
3.67545e-05
1.87898e-05
3.14939e-05
3.14961e-05
3.67569e-05
1.87899e-05
3.14955e-05
3.14971e-05
3.67581e-05
1.879e-05
3.14974e-05
3.14995e-05
3.67569e-05
1.87699e-05
3.14891e-05
3.14909e-05
3.67504e-05
1.83212e-05
3.02983e-05
3.02978e-05
3.59411e-05
3.7799e-07
3.74227e-07
3.08537e-07
3.5351e-07
3.62917e-07
3.59824e-07
2.28936e-06
2.28088e-06
2.29467e-06
2.2862e-06
3.36598e-07
3.19046e-07
3.70155e-07
3.67862e-07
3.63331e-07
3.62259e-07
3.75086e-07
3.60303e-07
4.21126e-07
3.47619e-07
4.16162e-07
3.47817e-07
3.50957e-07
3.36905e-07
3.80446e-07
3.74915e-07
3.80198e-07
3.75127e-07
3.66816e-07
3.68283e-07
3.60058e-07
3.67328e-07
3.53446e-07
4.19321e-07
4.07458e-07
4.14655e-07
3.40274e-07
3.57207e-07
3.45529e-07
4.15908e-07
3.48862e-07
4.16378e-07
3.5336e-07
3.33989e-07
3.21773e-07
3.81321e-07
3.76392e-07
3.85538e-07
3.80977e-07
3.59723e-07
3.73649e-07
3.62189e-07
3.50785e-07
3.41414e-07
4.14375e-07
4.10269e-07
4.14422e-07
3.25213e-07
3.42775e-07
3.3442e-07
4.16851e-07
3.55009e-07
4.19258e-07
3.6059e-07
3.19108e-07
3.09829e-07
3.87196e-07
3.82854e-07
3.92295e-07
3.89298e-07
3.63931e-07
3.82366e-07
3.69687e-07
3.39163e-07
3.32571e-07
4.14925e-07
4.15977e-07
4.18106e-07
3.13645e-07
3.32329e-07
3.27491e-07
4.20811e-07
3.6303e-07
4.26198e-07
3.71164e-07
3.07276e-07
2.98079e-07
3.94396e-07
3.91611e-07
4.02726e-07
3.9965e-07
3.7228e-07
3.94367e-07
3.80671e-07
3.30569e-07
3.24903e-07
4.19699e-07
4.24355e-07
4.2493e-07
3.03691e-07
3.25521e-07
3.19923e-07
4.27823e-07
3.7421e-07
4.35149e-07
3.83456e-07
2.95559e-07
2.88729e-07
4.05867e-07
4.02466e-07
4.15263e-07
4.1167e-07
3.83654e-07
4.09057e-07
3.94577e-07
3.22827e-07
3.17377e-07
4.27259e-07
4.36412e-07
4.34311e-07
2.97013e-07
3.17724e-07
3.11741e-07
4.38353e-07
3.87398e-07
4.50822e-07
4.00541e-07
2.86506e-07
2.81554e-07
4.1827e-07
4.15298e-07
4.2923e-07
4.27862e-07
3.98982e-07
4.26322e-07
4.1325e-07
3.15439e-07
3.11462e-07
4.36958e-07
4.51683e-07
4.4685e-07
2.91171e-07
3.09517e-07
3.04461e-07
4.55312e-07
4.05666e-07
4.69673e-07
4.24337e-07
2.79838e-07
2.78708e-07
4.33765e-07
4.32383e-07
4.49524e-07
4.48295e-07
4.178e-07
4.48346e-07
4.33034e-07
3.09581e-07
3.05177e-07
4.5056e-07
4.72073e-07
4.63413e-07
2.87267e-07
3.02511e-07
2.98869e-07
4.74575e-07
4.30442e-07
4.91383e-07
4.51397e-07
2.77875e-07
2.80854e-07
4.55273e-07
4.5355e-07
4.73816e-07
4.72803e-07
4.37808e-07
4.75345e-07
4.54725e-07
3.03164e-07
3.00087e-07
4.68372e-07
4.95632e-07
4.8459e-07
2.84686e-07
2.97107e-07
2.94585e-07
4.97156e-07
4.58355e-07
5.16607e-07
4.80401e-07
2.80104e-07
2.82904e-07
4.80181e-07
4.79817e-07
5.01902e-07
5.03117e-07
4.60735e-07
5.09163e-07
4.80857e-07
2.98694e-07
2.98513e-07
4.91118e-07
5.23972e-07
5.1186e-07
2.80492e-07
2.9309e-07
2.92277e-07
5.23827e-07
4.88604e-07
5.46573e-07
5.12918e-07
2.82062e-07
2.84401e-07
5.096e-07
5.11205e-07
5.33449e-07
5.36754e-07
4.88044e-07
5.44874e-07
5.13706e-07
2.97448e-07
2.99603e-07
5.18821e-07
5.57265e-07
5.41202e-07
2.77714e-07
2.90979e-07
2.9154e-07
5.54411e-07
5.21607e-07
5.79458e-07
5.5092e-07
2.8352e-07
2.87549e-07
5.41439e-07
5.46333e-07
5.65828e-07
5.7619e-07
5.2305e-07
5.84323e-07
5.53359e-07
2.98815e-07
3.04925e-07
5.49928e-07
5.96338e-07
5.79297e-07
2.77766e-07
2.90291e-07
2.92124e-07
5.88423e-07
5.60681e-07
6.17919e-07
5.91307e-07
2.86693e-07
2.92696e-07
5.74812e-07
5.86921e-07
6.01448e-07
6.21335e-07
5.64205e-07
6.28134e-07
5.96893e-07
3.04328e-07
3.15979e-07
5.89048e-07
6.3985e-07
6.20545e-07
2.84418e-07
2.91044e-07
2.96937e-07
6.28991e-07
6.03732e-07
6.63627e-07
6.40574e-07
2.92043e-07
3.04318e-07
6.10674e-07
6.33441e-07
6.41224e-07
6.7268e-07
6.08333e-07
6.7749e-07
6.45874e-07
3.15758e-07
3.34093e-07
6.31089e-07
6.89462e-07
6.66181e-07
3.00417e-07
2.96321e-07
3.09835e-07
6.76099e-07
6.52893e-07
7.16563e-07
6.98447e-07
3.04134e-07
3.23905e-07
6.51787e-07
6.86076e-07
6.89592e-07
7.29972e-07
6.58612e-07
7.34574e-07
7.01717e-07
3.34381e-07
3.59302e-07
6.79652e-07
7.4731e-07
7.23522e-07
3.24234e-07
3.09864e-07
3.31278e-07
7.30608e-07
7.15154e-07
7.7898e-07
7.62752e-07
3.24506e-07
3.51481e-07
7.02833e-07
7.45848e-07
7.49667e-07
7.97078e-07
7.17888e-07
8.00832e-07
7.68584e-07
3.60409e-07
3.91568e-07
7.39164e-07
8.0949e-07
7.89993e-07
3.54863e-07
3.35053e-07
3.67361e-07
7.96259e-07
7.80122e-07
8.54472e-07
8.43331e-07
3.55973e-07
3.9185e-07
7.66893e-07
8.14555e-07
8.21417e-07
8.74446e-07
7.86447e-07
8.78001e-07
8.45698e-07
3.96889e-07
4.33923e-07
8.09184e-07
8.82277e-07
8.694e-07
3.97827e-07
3.74234e-07
4.21023e-07
8.75684e-07
8.64174e-07
9.44433e-07
9.27462e-07
3.99405e-07
4.48148e-07
8.4172e-07
8.95695e-07
9.0807e-07
9.59709e-07
8.67259e-07
9.71361e-07
9.37476e-07
4.4124e-07
4.86002e-07
8.89326e-07
9.58532e-07
9.61041e-07
4.57025e-07
4.32578e-07
5.01237e-07
9.69667e-07
9.51892e-07
1.04901e-06
1.02872e-06
4.60155e-07
5.31361e-07
9.33565e-07
9.8542e-07
1.01039e-06
1.05875e-06
9.63633e-07
1.07935e-06
1.03955e-06
4.96516e-07
5.56609e-07
9.87665e-07
1.04858e-06
1.06463e-06
5.40023e-07
5.19789e-07
6.28376e-07
1.08056e-06
1.05924e-06
1.17776e-06
1.15663e-06
5.49987e-07
6.57124e-07
1.04082e-06
1.08645e-06
1.14278e-06
1.18461e-06
1.06954e-06
1.21019e-06
1.16949e-06
5.73669e-07
6.69589e-07
1.09411e-06
1.16357e-06
1.19683e-06
6.62823e-07
6.60251e-07
8.38227e-07
1.20919e-06
1.18895e-06
1.33176e-06
1.30693e-06
6.88675e-07
8.66151e-07
1.17638e-06
1.21691e-06
1.29862e-06
1.33113e-06
1.20341e-06
1.36577e-06
1.32689e-06
6.9774e-07
8.59845e-07
1.23516e-06
1.31247e-06
1.36167e-06
8.73053e-07
8.89523e-07
1.164e-06
1.37858e-06
1.35169e-06
1.52917e-06
1.49886e-06
9.1757e-07
1.19156e-06
1.34686e-06
1.37468e-06
1.50362e-06
1.52809e-06
1.37032e-06
1.56784e-06
1.51801e-06
9.0836e-07
1.16265e-06
1.40586e-06
1.49946e-06
1.57388e-06
1.18832e-06
1.2432e-06
1.65902e-06
1.58908e-06
1.55689e-06
1.79023e-06
1.75499e-06
1.27116e-06
1.68313e-06
1.56367e-06
1.58738e-06
1.76579e-06
1.77567e-06
1.57843e-06
1.82863e-06
1.77248e-06
1.23886e-06
1.63468e-06
1.64648e-06
1.75583e-06
1.88239e-06
1.70415e-06
1.77948e-06
2.40574e-06
1.865e-06
1.82948e-06
2.14063e-06
2.09089e-06
1.80177e-06
2.4141e-06
1.84023e-06
1.85243e-06
2.10471e-06
2.12372e-06
1.84543e-06
2.15672e-06
2.10453e-06
1.75009e-06
2.35294e-06
1.96861e-06
2.08986e-06
2.27248e-06
2.44544e-06
2.58582e-06
3.49637e-06
2.24896e-06
2.19226e-06
2.5915e-06
2.5256e-06
2.58887e-06
3.47067e-06
2.20896e-06
2.21762e-06
2.54829e-06
2.53786e-06
2.20005e-06
2.58284e-06
2.5278e-06
2.52112e-06
3.38865e-06
2.38181e-06
2.52161e-06
2.70233e-06
3.4268e-06
3.73942e-06
4.94212e-06
2.71408e-06
2.64719e-06
3.14917e-06
3.06611e-06
3.71212e-06
4.88805e-06
2.67252e-06
2.67341e-06
3.10738e-06
3.1182e-06
2.65826e-06
3.10522e-06
3.10679e-06
3.63418e-06
4.86645e-06
2.81028e-06
3.08546e-06
3.17854e-06
4.84731e-06
5.26192e-06
6.78536e-06
3.31545e-06
3.22391e-06
3.83805e-06
3.73932e-06
5.19251e-06
6.67433e-06
3.26815e-06
3.26174e-06
3.76333e-06
3.72146e-06
3.27455e-06
3.74297e-06
3.83891e-06
5.18255e-06
6.62995e-06
3.319e-06
3.74654e-06
3.78494e-06
6.72563e-06
7.16753e-06
8.94151e-06
4.02069e-06
3.93098e-06
4.60725e-06
4.57723e-06
7.06157e-06
8.88005e-06
3.94509e-06
3.91121e-06
4.57869e-06
4.59796e-06
4.04583e-06
4.567e-06
4.67556e-06
6.99525e-06
8.81359e-06
3.96115e-06
4.57963e-06
4.55169e-06
8.83745e-06
9.38449e-06
1.14381e-05
4.82284e-06
4.81369e-06
5.55399e-06
5.58397e-06
9.33373e-06
1.14108e-05
4.81728e-06
4.84698e-06
5.59611e-06
5.60577e-06
4.88821e-06
5.55958e-06
5.59154e-06
9.28648e-06
1.1435e-05
4.77241e-06
5.60668e-06
5.54487e-06
1.12708e-05
1.19479e-05
1.41142e-05
5.82537e-06
5.86268e-06
6.71432e-06
6.77041e-06
1.19195e-05
1.40968e-05
5.87571e-06
5.86934e-06
6.76958e-06
6.7363e-06
5.85533e-06
6.7147e-06
6.73191e-06
1.19464e-05
1.41024e-05
5.83694e-06
6.79126e-06
6.77355e-06
1.40424e-05
1.46316e-05
1.67138e-05
7.03713e-06
7.09742e-06
8.06982e-06
8.13333e-06
1.4621e-05
1.67356e-05
7.08711e-06
7.05664e-06
8.10098e-06
8.09894e-06
7.05017e-06
8.07983e-06
8.04776e-06
1.46187e-05
1.67189e-05
7.10176e-06
8.14397e-06
8.11957e-06
1.66335e-05
1.72144e-05
1.90858e-05
8.43094e-06
8.4937e-06
9.56966e-06
9.64003e-06
1.72377e-05
1.91022e-05
8.45933e-06
8.46633e-06
9.59377e-06
9.61668e-06
8.39254e-06
9.55527e-06
9.49822e-06
1.7228e-05
1.91622e-05
8.4691e-06
9.67855e-06
9.57805e-06
1.8994e-05
1.9542e-05
2.11619e-05
9.9683e-06
1.00434e-05
1.11805e-05
1.12547e-05
1.9559e-05
2.1194e-05
9.9898e-06
1.00159e-05
1.11868e-05
1.12136e-05
9.89502e-06
1.11513e-05
1.1117e-05
1.96289e-05
2.1256e-05
9.97201e-06
1.13749e-05
1.11762e-05
2.11549e-05
2.15741e-05
2.29204e-05
1.1574e-05
1.16415e-05
1.26983e-05
1.27423e-05
2.16085e-05
2.29464e-05
1.15777e-05
1.15996e-05
1.27101e-05
1.27123e-05
1.15164e-05
1.26848e-05
1.26656e-05
2.16587e-05
2.29462e-05
1.15692e-05
1.28619e-05
1.27033e-05
2.29408e-05
2.32619e-05
2.42854e-05
1.30667e-05
1.31042e-05
1.41989e-05
1.42239e-05
2.32853e-05
2.42984e-05
1.30831e-05
1.30807e-05
1.42211e-05
1.42148e-05
1.30432e-05
1.42035e-05
1.41947e-05
2.32789e-05
2.42927e-05
1.3076e-05
1.42956e-05
1.42123e-05
2.43031e-05
2.45815e-05
2.5624e-05
1.45999e-05
1.46221e-05
1.60124e-05
1.60246e-05
2.45925e-05
2.56236e-05
1.46217e-05
1.46158e-05
1.60281e-05
1.60277e-05
1.45981e-05
1.60104e-05
1.60097e-05
2.45883e-05
2.56339e-05
1.46119e-05
1.6069e-05
1.60156e-05
2.56267e-05
2.59722e-05
2.75689e-05
1.65888e-05
1.65974e-05
1.86799e-05
1.86806e-05
2.59698e-05
2.75615e-05
1.66016e-05
1.66039e-05
1.86836e-05
1.86929e-05
1.6585e-05
1.86706e-05
1.86751e-05
2.5982e-05
2.75789e-05
1.65889e-05
1.87075e-05
1.86746e-05
2.75655e-05
2.80313e-05
3.00458e-05
1.94805e-05
1.94802e-05
2.20274e-05
2.20265e-05
2.80243e-05
3.0041e-05
1.94822e-05
1.94925e-05
2.20249e-05
2.20358e-05
1.94762e-05
2.20188e-05
2.2026e-05
2.80406e-05
3.00525e-05
1.94748e-05
2.20368e-05
2.20226e-05
3.00455e-05
3.05322e-05
3.24953e-05
2.28801e-05
2.28792e-05
2.53518e-05
2.53512e-05
3.05279e-05
3.24922e-05
2.28771e-05
2.28873e-05
2.53483e-05
2.53563e-05
2.28796e-05
2.53458e-05
2.53536e-05
3.0538e-05
3.24987e-05
2.28759e-05
2.53543e-05
2.53495e-05
3.24968e-05
3.29393e-05
3.46254e-05
2.61391e-05
2.61385e-05
2.82756e-05
2.82753e-05
3.29364e-05
3.46231e-05
2.61359e-05
2.61429e-05
2.82728e-05
2.82782e-05
2.61412e-05
2.82717e-05
2.82782e-05
3.2942e-05
3.46268e-05
2.61374e-05
2.82761e-05
2.82751e-05
3.4627e-05
3.49683e-05
3.59182e-05
2.88652e-05
2.88649e-05
3.0168e-05
3.01678e-05
3.49663e-05
3.59162e-05
2.88627e-05
2.88674e-05
3.01659e-05
3.01694e-05
2.88679e-05
3.0165e-05
3.01713e-05
3.49694e-05
3.59192e-05
2.88651e-05
3.01687e-05
3.01687e-05
3.59206e-05
3.60898e-05
3.64383e-05
3.04615e-05
3.04613e-05
3.10374e-05
3.10373e-05
3.6088e-05
3.64366e-05
3.046e-05
3.04628e-05
3.10361e-05
3.10384e-05
3.04649e-05
3.10353e-05
3.10408e-05
3.60908e-05
3.64389e-05
3.04625e-05
3.10384e-05
3.10387e-05
3.64405e-05
3.65287e-05
3.66387e-05
3.11534e-05
3.11532e-05
3.13603e-05
3.13602e-05
3.65272e-05
3.66371e-05
3.11522e-05
3.11543e-05
3.13593e-05
3.13613e-05
3.11568e-05
3.13587e-05
3.13638e-05
3.65294e-05
3.66392e-05
3.11548e-05
3.13615e-05
3.13619e-05
3.66408e-05
3.66922e-05
3.67046e-05
3.1398e-05
3.13979e-05
3.14626e-05
3.14625e-05
3.66907e-05
3.6703e-05
3.13971e-05
3.1399e-05
3.14616e-05
3.14634e-05
3.14015e-05
3.14613e-05
3.14659e-05
3.66927e-05
3.6705e-05
3.13997e-05
3.14638e-05
3.14643e-05
3.67066e-05
3.67454e-05
3.67298e-05
3.14742e-05
3.14741e-05
3.14911e-05
3.14909e-05
3.67439e-05
3.67282e-05
3.14732e-05
3.1475e-05
3.149e-05
3.14918e-05
3.14774e-05
3.14897e-05
3.14942e-05
3.67457e-05
3.673e-05
3.14758e-05
3.14922e-05
3.14926e-05
3.67316e-05
3.67675e-05
3.67211e-05
3.14923e-05
3.14921e-05
3.14916e-05
3.14914e-05
3.6766e-05
3.67196e-05
3.14912e-05
3.1493e-05
3.14905e-05
3.14923e-05
3.14954e-05
3.14901e-05
3.14947e-05
3.67677e-05
3.67216e-05
3.14938e-05
3.14926e-05
3.1493e-05
3.67232e-05
3.67547e-05
3.67165e-05
3.1491e-05
3.14908e-05
3.14911e-05
3.14909e-05
3.67533e-05
3.67144e-05
3.14898e-05
3.14916e-05
3.14899e-05
3.14917e-05
3.14941e-05
3.14895e-05
3.14942e-05
3.67553e-05
3.67162e-05
3.14924e-05
3.14921e-05
3.14924e-05
3.67178e-05
3.67549e-05
3.6731e-05
3.14921e-05
3.1492e-05
3.14945e-05
3.14943e-05
3.67529e-05
3.67305e-05
3.14909e-05
3.14928e-05
3.14933e-05
3.14951e-05
3.14952e-05
3.1493e-05
3.14975e-05
3.67545e-05
3.67327e-05
3.14935e-05
3.14954e-05
3.14958e-05
3.67344e-05
3.67679e-05
3.67118e-05
3.14941e-05
3.14939e-05
3.14917e-05
3.14913e-05
3.67672e-05
3.67098e-05
3.14929e-05
3.14946e-05
3.14903e-05
3.14921e-05
3.14969e-05
3.149e-05
3.14946e-05
3.6769e-05
3.67115e-05
3.14952e-05
3.14924e-05
3.14929e-05
3.6713e-05
3.67462e-05
3.67337e-05
3.14919e-05
3.14916e-05
3.14938e-05
3.14934e-05
3.67445e-05
3.67323e-05
3.14905e-05
3.14923e-05
3.14924e-05
3.14942e-05
3.14948e-05
3.1492e-05
3.14965e-05
3.67464e-05
3.67342e-05
3.14932e-05
3.14944e-05
3.1495e-05
3.6736e-05
3.67709e-05
3.67109e-05
3.14932e-05
3.14927e-05
3.14928e-05
3.14924e-05
3.67692e-05
3.67097e-05
3.14918e-05
3.14935e-05
3.14914e-05
3.14933e-05
3.14958e-05
3.14912e-05
3.14957e-05
3.67708e-05
3.67119e-05
3.14943e-05
3.14936e-05
3.1494e-05
3.67134e-05
3.67496e-05
3.67286e-05
3.14928e-05
3.14926e-05
3.14928e-05
3.14924e-05
3.67497e-05
3.67248e-05
3.14914e-05
3.14932e-05
3.14914e-05
3.14933e-05
3.14957e-05
3.14912e-05
3.14956e-05
3.67522e-05
3.67254e-05
3.1494e-05
3.14935e-05
3.1494e-05
3.67278e-05
3.67599e-05
3.67276e-05
3.14928e-05
3.14924e-05
3.14935e-05
3.14931e-05
3.67563e-05
3.67277e-05
3.14914e-05
3.14933e-05
3.14915e-05
3.14936e-05
3.14957e-05
3.14917e-05
3.14962e-05
3.6757e-05
3.67302e-05
3.1494e-05
3.14941e-05
3.14944e-05
3.67315e-05
3.6767e-05
3.67147e-05
3.14931e-05
3.14925e-05
3.14934e-05
3.14931e-05
3.6766e-05
3.67174e-05
3.14913e-05
3.14931e-05
3.14916e-05
3.14938e-05
3.14956e-05
3.1492e-05
3.14964e-05
3.67678e-05
3.67211e-05
3.14939e-05
3.14942e-05
3.14945e-05
3.67204e-05
3.67564e-05
3.67164e-05
3.14937e-05
3.14932e-05
3.1493e-05
3.14926e-05
3.67602e-05
3.67129e-05
3.14917e-05
3.14937e-05
3.14914e-05
3.14933e-05
3.14964e-05
3.1491e-05
3.14954e-05
3.67632e-05
3.67154e-05
3.14947e-05
3.14933e-05
3.14937e-05
3.67161e-05
3.67502e-05
3.67281e-05
3.14931e-05
3.1493e-05
3.14934e-05
3.14926e-05
3.67514e-05
3.67163e-05
3.14914e-05
3.14936e-05
3.14916e-05
3.14934e-05
3.14959e-05
3.14912e-05
3.14957e-05
3.67558e-05
3.67165e-05
3.14941e-05
3.14935e-05
3.1494e-05
3.6723e-05
3.67594e-05
3.67304e-05
3.14934e-05
3.14927e-05
3.14934e-05
3.14927e-05
3.67498e-05
3.67257e-05
3.14916e-05
3.14936e-05
3.14916e-05
3.14932e-05
3.14955e-05
3.14919e-05
3.14962e-05
3.67519e-05
3.67195e-05
3.14937e-05
3.14938e-05
3.14943e-05
3.67313e-05
3.67672e-05
3.67241e-05
3.14933e-05
3.14926e-05
3.14937e-05
3.14931e-05
3.67571e-05
3.67283e-05
3.14916e-05
3.14933e-05
3.14917e-05
3.14933e-05
3.14958e-05
3.14915e-05
3.1496e-05
3.6753e-05
3.67211e-05
3.1494e-05
3.14937e-05
3.14942e-05
3.6732e-05
3.67649e-05
3.67175e-05
3.14935e-05
3.14927e-05
3.14936e-05
3.14932e-05
3.67633e-05
3.67275e-05
3.14914e-05
3.14931e-05
3.14918e-05
3.14938e-05
3.14957e-05
3.14918e-05
3.14962e-05
3.67537e-05
3.67253e-05
3.14939e-05
3.14938e-05
3.14944e-05
3.67264e-05
3.67596e-05
3.67166e-05
3.14937e-05
3.14928e-05
3.14935e-05
3.14935e-05
3.67638e-05
3.67275e-05
3.14918e-05
3.14934e-05
3.14915e-05
3.14936e-05
3.1496e-05
3.14923e-05
3.14961e-05
3.67568e-05
3.67303e-05
3.14942e-05
3.14943e-05
3.14943e-05
3.67249e-05
3.67562e-05
3.67161e-05
3.14937e-05
3.14934e-05
3.14935e-05
3.14927e-05
3.67666e-05
3.67136e-05
3.14918e-05
3.14936e-05
3.14914e-05
3.14934e-05
3.14959e-05
3.14914e-05
3.14964e-05
3.67638e-05
3.67276e-05
3.1494e-05
3.14938e-05
3.14947e-05
3.673e-05
3.67558e-05
3.67148e-05
3.14939e-05
3.14935e-05
3.14931e-05
3.14926e-05
3.67564e-05
3.67196e-05
3.14916e-05
3.14934e-05
3.14912e-05
3.14933e-05
3.14967e-05
3.14913e-05
3.14955e-05
3.67634e-05
3.67271e-05
3.14949e-05
3.14935e-05
3.14936e-05
3.67141e-05
3.67493e-05
3.67311e-05
3.14933e-05
3.14924e-05
3.1494e-05
3.14934e-05
3.67526e-05
3.67267e-05
3.14913e-05
3.14931e-05
3.14919e-05
3.14938e-05
3.14958e-05
3.14924e-05
3.14962e-05
3.67587e-05
3.67306e-05
3.1494e-05
3.1494e-05
3.14941e-05
3.67257e-05
3.67629e-05
3.67215e-05
3.14932e-05
3.14931e-05
3.14938e-05
3.14929e-05
3.67657e-05
3.67118e-05
3.14911e-05
3.14933e-05
3.14919e-05
3.14936e-05
3.14954e-05
3.14917e-05
3.14968e-05
3.67648e-05
3.67263e-05
3.14935e-05
3.14939e-05
3.14949e-05
3.67333e-05
3.67618e-05
3.67184e-05
3.14939e-05
3.14929e-05
3.14936e-05
3.1493e-05
3.67523e-05
3.67188e-05
3.14919e-05
3.14934e-05
3.14915e-05
3.14936e-05
3.14967e-05
3.14911e-05
3.14955e-05
3.67618e-05
3.67284e-05
3.14945e-05
3.14938e-05
3.1494e-05
3.67181e-05
3.67515e-05
3.67307e-05
3.14936e-05
3.14929e-05
3.14937e-05
3.1493e-05
3.67515e-05
3.67296e-05
3.14915e-05
3.14934e-05
3.14916e-05
3.14936e-05
3.1496e-05
3.14921e-05
3.14959e-05
3.67595e-05
3.67313e-05
3.14946e-05
3.14939e-05
3.14937e-05
3.6718e-05
3.67628e-05
3.67295e-05
3.14936e-05
3.14929e-05
3.14938e-05
3.1493e-05
3.67631e-05
3.67268e-05
3.14916e-05
3.14936e-05
3.14915e-05
3.14934e-05
3.14956e-05
3.14921e-05
3.14961e-05
3.67672e-05
3.67256e-05
3.14939e-05
3.14938e-05
3.1494e-05
3.67287e-05
3.67675e-05
3.67222e-05
3.14938e-05
3.14931e-05
3.14936e-05
3.14928e-05
3.67658e-05
3.67176e-05
3.14915e-05
3.14934e-05
3.14918e-05
3.14935e-05
3.1496e-05
3.14914e-05
3.14959e-05
3.67661e-05
3.67162e-05
3.14938e-05
3.14937e-05
3.14945e-05
3.67329e-05
3.67644e-05
3.67147e-05
3.14939e-05
3.14929e-05
3.14937e-05
3.1493e-05
3.67607e-05
3.67125e-05
3.14916e-05
3.14935e-05
3.14917e-05
3.14935e-05
3.14959e-05
3.14914e-05
3.1496e-05
3.67589e-05
3.67154e-05
3.14937e-05
3.14933e-05
3.14945e-05
3.67291e-05
3.67551e-05
3.67171e-05
3.14936e-05
3.1493e-05
3.14939e-05
3.1493e-05
3.67511e-05
3.67171e-05
3.1492e-05
3.14937e-05
3.14911e-05
3.14933e-05
3.14958e-05
3.14914e-05
3.14961e-05
3.675e-05
3.6727e-05
3.14946e-05
3.14938e-05
3.14938e-05
3.6722e-05
3.67514e-05
3.67222e-05
3.14941e-05
3.1493e-05
3.14933e-05
3.14929e-05
3.675e-05
3.67304e-05
3.14915e-05
3.14933e-05
3.14914e-05
3.14937e-05
3.14961e-05
3.1492e-05
3.14958e-05
3.67584e-05
3.673e-05
3.14939e-05
3.14941e-05
3.1494e-05
3.67172e-05
3.67547e-05
3.67233e-05
3.14935e-05
3.14928e-05
3.14937e-05
3.14932e-05
3.67642e-05
3.6724e-05
3.14912e-05
3.14933e-05
3.14916e-05
3.14936e-05
3.14961e-05
3.14917e-05
3.14957e-05
3.6767e-05
3.67218e-05
3.1494e-05
3.14937e-05
3.1494e-05
3.67181e-05
3.6755e-05
3.67305e-05
3.14934e-05
3.14929e-05
3.14941e-05
3.14931e-05
3.67643e-05
3.67139e-05
3.14914e-05
3.14936e-05
3.14918e-05
3.14935e-05
3.14958e-05
3.14915e-05
3.14959e-05
3.67623e-05
3.67205e-05
3.14942e-05
3.14936e-05
3.14939e-05
3.67204e-05
3.67622e-05
3.67294e-05
3.14936e-05
3.14933e-05
3.1494e-05
3.14928e-05
3.67554e-05
3.67145e-05
3.14914e-05
3.14935e-05
3.14919e-05
3.14934e-05
3.1496e-05
3.14915e-05
3.14959e-05
3.6758e-05
3.67245e-05
3.14941e-05
3.14935e-05
3.14938e-05
3.67198e-05
3.67682e-05
3.67152e-05
3.14942e-05
3.14931e-05
3.14933e-05
3.14926e-05
3.675e-05
3.67181e-05
3.14921e-05
3.14935e-05
3.14911e-05
3.14932e-05
3.14962e-05
3.14911e-05
3.14956e-05
3.67566e-05
3.6724e-05
3.14941e-05
3.14935e-05
3.14937e-05
3.67201e-05
3.67577e-05
3.67175e-05
3.14939e-05
3.14928e-05
3.14932e-05
3.14927e-05
3.67513e-05
3.67228e-05
3.14916e-05
3.14934e-05
3.14911e-05
3.14932e-05
3.14959e-05
3.14914e-05
3.14958e-05
3.67558e-05
3.67267e-05
3.14938e-05
3.14936e-05
3.14939e-05
3.67251e-05
3.6751e-05
3.67294e-05
3.14933e-05
3.14927e-05
3.14938e-05
3.14929e-05
3.67546e-05
3.67263e-05
3.14911e-05
3.14931e-05
3.14916e-05
3.14934e-05
3.14956e-05
3.14913e-05
3.1496e-05
3.67582e-05
3.67287e-05
3.14937e-05
3.14935e-05
3.14941e-05
3.67304e-05
3.67623e-05
3.67274e-05
3.14935e-05
3.14927e-05
3.14936e-05
3.14929e-05
3.67582e-05
3.67273e-05
3.14914e-05
3.14933e-05
3.14914e-05
3.14933e-05
3.14959e-05
3.14912e-05
3.14957e-05
3.6761e-05
3.67298e-05
3.1494e-05
3.14935e-05
3.14938e-05
3.67302e-05
3.6765e-05
3.67264e-05
3.14936e-05
3.14929e-05
3.14934e-05
3.14928e-05
3.67604e-05
3.67278e-05
3.14914e-05
3.14933e-05
3.14912e-05
3.14932e-05
3.14958e-05
3.14911e-05
3.14955e-05
3.67636e-05
3.67293e-05
3.14938e-05
3.14934e-05
3.14936e-05
3.67283e-05
3.67644e-05
3.67284e-05
3.14935e-05
3.14928e-05
3.14934e-05
3.14927e-05
3.67621e-05
3.67277e-05
3.14913e-05
3.14933e-05
3.1491e-05
3.14931e-05
3.14957e-05
3.1491e-05
3.14954e-05
3.67658e-05
3.67268e-05
3.14937e-05
3.1493e-05
3.14934e-05
3.67252e-05
3.67651e-05
3.67284e-05
3.14935e-05
3.14928e-05
3.14933e-05
3.14925e-05
3.67639e-05
3.67256e-05
3.14912e-05
3.14933e-05
3.1491e-05
3.1493e-05
3.14956e-05
3.1491e-05
3.14953e-05
3.67647e-05
3.67276e-05
3.14937e-05
3.14929e-05
3.14933e-05
3.67244e-05
3.67661e-05
3.67256e-05
3.14935e-05
3.14928e-05
3.14931e-05
3.14924e-05
3.67636e-05
3.67247e-05
3.14913e-05
3.14932e-05
3.14908e-05
3.14929e-05
3.14956e-05
3.14909e-05
3.14953e-05
3.67644e-05
3.67291e-05
3.14936e-05
3.1493e-05
3.14933e-05
3.67254e-05
3.67652e-05
3.67223e-05
3.14935e-05
3.14927e-05
3.1493e-05
3.14923e-05
3.67629e-05
3.67257e-05
3.14913e-05
3.14933e-05
3.14907e-05
3.14928e-05
3.14956e-05
3.14908e-05
3.14951e-05
3.67662e-05
3.67258e-05
3.14936e-05
3.14929e-05
3.14932e-05
3.67247e-05
3.67634e-05
3.67201e-05
3.14935e-05
3.14927e-05
3.14929e-05
3.14922e-05
3.67633e-05
3.67258e-05
3.14913e-05
3.14933e-05
3.14907e-05
3.14927e-05
3.14957e-05
3.14907e-05
3.1495e-05
3.67657e-05
3.67176e-05
3.14938e-05
3.14925e-05
3.14929e-05
3.67218e-05
3.67615e-05
3.6721e-05
3.14936e-05
3.14928e-05
3.14927e-05
3.14921e-05
3.67639e-05
3.67242e-05
3.14914e-05
3.14934e-05
3.14905e-05
3.14924e-05
3.14957e-05
3.14907e-05
3.14949e-05
3.676e-05
3.67162e-05
3.14937e-05
3.14924e-05
3.14929e-05
3.67217e-05
3.67618e-05
3.67241e-05
3.14937e-05
3.1493e-05
3.14925e-05
3.14919e-05
3.67636e-05
3.67211e-05
3.14915e-05
3.14934e-05
3.14904e-05
3.14923e-05
3.14959e-05
3.14904e-05
3.14947e-05
3.67533e-05
3.67207e-05
3.14937e-05
3.14925e-05
3.14928e-05
3.67251e-05
3.67638e-05
3.67257e-05
3.14938e-05
3.14931e-05
3.14924e-05
3.14917e-05
3.67619e-05
3.67195e-05
3.14916e-05
3.14935e-05
3.14903e-05
3.14922e-05
3.14959e-05
3.14902e-05
3.14947e-05
3.67578e-05
3.6722e-05
3.14939e-05
3.14923e-05
3.14925e-05
3.67279e-05
3.67645e-05
3.67266e-05
3.14939e-05
3.14932e-05
3.14923e-05
3.14915e-05
3.67606e-05
3.67213e-05
3.14917e-05
3.14937e-05
3.14902e-05
3.14921e-05
3.1496e-05
3.14902e-05
3.14946e-05
3.67619e-05
3.67259e-05
3.14941e-05
3.14921e-05
3.14922e-05
3.67252e-05
3.67651e-05
3.67258e-05
3.14942e-05
3.14934e-05
3.14922e-05
3.14914e-05
3.67615e-05
3.67241e-05
3.14921e-05
3.1494e-05
3.14899e-05
3.14919e-05
3.14965e-05
3.149e-05
3.14942e-05
3.67641e-05
3.67281e-05
3.14942e-05
3.1492e-05
3.14922e-05
3.672e-05
3.67652e-05
3.67238e-05
3.14946e-05
3.14937e-05
3.14921e-05
3.14914e-05
3.6763e-05
3.67246e-05
3.14925e-05
3.14944e-05
3.14897e-05
3.14917e-05
3.14968e-05
3.14899e-05
3.14941e-05
3.67659e-05
3.6725e-05
3.14946e-05
3.14919e-05
3.14921e-05
3.67204e-05
3.67644e-05
3.67218e-05
3.14953e-05
3.14945e-05
3.14918e-05
3.14911e-05
3.67635e-05
3.67235e-05
3.14929e-05
3.14949e-05
3.14898e-05
3.14918e-05
3.14973e-05
3.14899e-05
3.14942e-05
3.67651e-05
3.67201e-05
3.14951e-05
3.14918e-05
3.14921e-05
3.67234e-05
3.67631e-05
3.67219e-05
3.14959e-05
3.14951e-05
3.14923e-05
3.14916e-05
3.67629e-05
3.67243e-05
3.14937e-05
3.14958e-05
3.14901e-05
3.1492e-05
3.14981e-05
3.14902e-05
3.14943e-05
3.67622e-05
3.67185e-05
3.1496e-05
3.14918e-05
3.14922e-05
3.67245e-05
3.67627e-05
3.67228e-05
3.14972e-05
3.14965e-05
3.1493e-05
3.14923e-05
3.67634e-05
3.67243e-05
3.14952e-05
3.14971e-05
3.14907e-05
3.14928e-05
3.14996e-05
3.14907e-05
3.1495e-05
3.67585e-05
3.67215e-05
3.14973e-05
3.1493e-05
3.1493e-05
3.67235e-05
3.67634e-05
3.67178e-05
3.14996e-05
3.14988e-05
3.14857e-05
3.1485e-05
3.67637e-05
3.67184e-05
3.14973e-05
3.14993e-05
3.14835e-05
3.14855e-05
3.15014e-05
3.14837e-05
3.14879e-05
3.6761e-05
3.67169e-05
3.14993e-05
3.14853e-05
3.14856e-05
3.67186e-05
3.67548e-05
3.6348e-05
3.14912e-05
3.14905e-05
3.10692e-05
3.10687e-05
3.67555e-05
3.63476e-05
3.14889e-05
3.1491e-05
3.10692e-05
3.10675e-05
3.14932e-05
3.10704e-05
3.10709e-05
3.67538e-05
3.63468e-05
3.1491e-05
3.10702e-05
3.10705e-05
3.63483e-05
3.59405e-05
3.02964e-05
3.02959e-05
3.59409e-05
3.02967e-05
3.02945e-05
1.83212e-05
1.83204e-05
1.83217e-05
3.02979e-05
3.59392e-05
3.0298e-05
5.80884e-06
9.04238e-07
3.90532e-06
3.8994e-06
9.15523e-08
3.37158e-07
2.49281e-07
2.34477e-06
1.01194e-07
3.68406e-07
2.34463e-06
4.32341e-07
3.70814e-07
2.72803e-07
4.09758e-07
2.95029e-07
4.9562e-06
2.51145e-07
6.53161e-06
1.34358e-05
2.06796e-05
2.8232e-07
4.83245e-06
2.37356e-07
6.32245e-06
2.21609e-06
2.23147e-06
2.22146e-06
2.21595e-06
2.20647e-06
2.22076e-06
2.21036e-06
9.12358e-08
5.83725e-07
1.03127e-06
3.66996e-07
9.05657e-08
5.67789e-07
1.02241e-06
1.36288e-05
2.10982e-05
9.50719e-08
1.03109e-06
6.82478e-07
4.0789e-07
9.87499e-08
1.02225e-06
6.55418e-07
1.87993e-06
1.92026e-06
3.50459e-07
1.85567e-06
1.89577e-06
5.11485e-07
9.71902e-06
3.78934e-07
1.24738e-05
3.6677e-05
4.66793e-05
5.06015e-07
9.72537e-06
3.74297e-07
1.21584e-05
2.22117e-06
2.2352e-06
2.22538e-06
2.27718e-06