/*--------------------------------*- C++ -*----------------------------------*\
| =========                 |                                                 |
| \\      /  F ield         | OpenFOAM: The Open Source CFD Toolbox           |
|  \\    /   O peration     | Version:  v2012                                 |
|   \\  /    A nd           | Website:  www.openfoam.com                      |
|    \\/     M anipulation  |                                                 |
\*---------------------------------------------------------------------------*/
FoamFile
{
    version     2.0;
    format      ascii;
    class       volScalarField;
    location    "162.5";
    object      nut;
}
// * * * * * * * * * * * * * * * * * * * * * * * * * * * * * * * * * * * * * //

dimensions      [0 2 -1 0 0 0 0];


internalField   nonuniform List<scalar> 
171728
(
2.50756e-05
2.4539e-06
2.90584e-06
2.32191e-06
2.52413e-05
2.57078e-06
3.01965e-06
2.26429e-06
2.61014e-05
2.73668e-06
3.21399e-06
2.26807e-06
2.69805e-05
2.94775e-06
3.42598e-06
2.27357e-06
2.78701e-05
3.1957e-06
3.65974e-06
2.27527e-06
2.87496e-05
3.45429e-06
3.91768e-06
2.30599e-06
2.95952e-05
3.73878e-06
4.19947e-06
2.32937e-06
3.03848e-05
4.04219e-06
4.52038e-06
2.37331e-06
3.1151e-05
4.40903e-06
4.84965e-06
2.40856e-06
3.18764e-05
4.84579e-06
5.21258e-06
2.39519e-06
3.25685e-05
5.25652e-06
5.59594e-06
2.36424e-06
3.32193e-05
5.66262e-06
6.00722e-06
2.33438e-06
3.38554e-05
6.07923e-06
6.44955e-06
2.33364e-06
3.4487e-05
6.52391e-06
6.88139e-06
2.4075e-06
3.51191e-05
6.98853e-06
7.38329e-06
2.52145e-06
3.57423e-05
7.45726e-06
7.82308e-06
2.67973e-06
3.63296e-05
7.94418e-06
8.22485e-06
2.8346e-06
3.69291e-05
8.46859e-06
8.52161e-06
3.02389e-06
3.74834e-05
8.86512e-06
8.66978e-06
3.25008e-06
3.79792e-05
9.22956e-06
8.85378e-06
3.58018e-06
3.85954e-05
9.59886e-06
9.17959e-06
4.29489e-06
3.90609e-05
1.00565e-05
9.51676e-06
5.2965e-06
3.94903e-05
1.06866e-05
1.01592e-05
7.08112e-06
3.99743e-05
1.15763e-05
1.11025e-05
9.58373e-06
4.02876e-05
1.28749e-05
1.24218e-05
1.25871e-05
4.07073e-05
1.44664e-05
1.43568e-05
1.7225e-05
4.09149e-05
1.64557e-05
1.64099e-05
2.33295e-05
4.13381e-05
1.94198e-05
1.93584e-05
2.96435e-05
4.15926e-05
2.29311e-05
2.30769e-05
3.69484e-05
4.21584e-05
2.72481e-05
2.7468e-05
4.56778e-05
4.27436e-05
3.26296e-05
3.25633e-05
5.37926e-05
4.38609e-05
3.8469e-05
3.89439e-05
6.1397e-05
4.48597e-05
4.46132e-05
4.58445e-05
6.85449e-05
4.51861e-05
4.96383e-05
5.05369e-05
7.43587e-05
4.4858e-05
5.36934e-05
5.41301e-05
7.83506e-05
4.48816e-05
5.9023e-05
5.93105e-05
8.1963e-05
4.93977e-05
6.9486e-05
6.96588e-05
8.87979e-05
5.94827e-05
8.43081e-05
8.43874e-05
9.86681e-05
7.45928e-05
0.000100568
0.000100599
0.000109224
9.42629e-05
0.000116427
0.000116437
0.000119273
0.000111414
0.000126841
0.000126848
0.000125347
0.000121432
0.000131659
0.000131663
0.000127794
0.000125724
0.000133424
0.000133425
0.000128712
0.000127187
0.000133985
0.000133984
0.000129015
0.000127587
0.000134129
0.000134128
0.000129164
0.000127648
0.000134122
0.000134121
0.000129104
0.000127669
0.000134126
0.000134125
0.000129072
0.000127674
0.000134145
0.000134143
0.000129183
0.000127668
0.000134125
0.000134124
0.000129025
0.000127671
0.000134135
0.000134134
0.000129202
0.000127671
0.000134133
0.000134132
0.000129056
0.000127672
0.000134133
0.000134131
0.000129112
0.000127672
0.000134132
0.000134131
0.000129176
0.000127673
0.000134139
0.000134137
0.000129126
0.000127673
0.000134135
0.000134133
0.000129053
0.000127674
0.000134131
0.00013413
0.00012908
0.000127673
0.000134135
0.000134133
0.00012914
0.000127673
0.000134134
0.000134132
0.000129172
0.000127674
0.000134133
0.00013413
0.000129148
0.000127673
0.00013414
0.000134134
0.000129139
0.000127673
0.000134139
0.000134135
0.000129177
0.000127674
0.000134132
0.00013413
0.000129052
0.000127673
0.000134137
0.000134131
0.000129098
0.000127675
0.000134141
0.000134132
0.000129186
0.000127675
0.000134131
0.000134132
0.000129104
0.000127674
0.000134134
0.000134133
0.000129046
0.000127674
0.000134139
0.000134134
0.000129109
0.000127674
0.000134137
0.000134135
0.00012917
0.000127675
0.000134135
0.00013413
0.000129173
0.000127675
0.000134132
0.00013413
0.000129147
0.000127675
0.000134135
0.000134134
0.000129102
0.000127675
0.000134136
0.000134134
0.000129077
0.000127675
0.000134136
0.000134133
0.000129082
0.000127675
0.000134137
0.000134133
0.000129078
0.000127675
0.000134134
0.000134132
0.000129075
0.000127674
0.000134134
0.000134132
0.000129104
0.000127674
0.000134134
0.000134132
0.000129145
0.000127674
0.000134134
0.000134132
0.000129154
0.000127674
0.000134134
0.000134133
0.000129131
0.000127674
0.000134134
0.000134132
0.000129104
0.000127674
0.000134134
0.00013413
0.000129101
0.000127674
0.000134134
0.000134131
0.000129107
0.000127674
0.000134134
0.000134133
0.000129103
0.000127674
0.000134134
0.000134132
0.000129087
0.000127674
0.000134136
0.000134131
0.000129088
0.000127674
0.000134136
0.000134132
0.000129109
0.000127674
0.000134135
0.000134133
0.00012913
0.000127674
0.000134137
0.000134133
0.00012911
0.000127674
0.000134139
0.000134135
0.000129081
0.000127675
0.000134141
0.000134138
0.000129083
0.000127675
0.000134145
0.000134143
0.000129103
0.000127676
0.000134153
0.000134147
0.000129111
0.000127679
0.000134165
0.000134162
0.000129105
0.000127611
0.000134141
0.000134137
0.000129103
0.000127974
0.000133305
0.000133298
0.000129534
2.35292e-06
2.73192e-06
2.21834e-06
2.26542e-06
2.79428e-06
2.75768e-06
2.58083e-05
2.56316e-05
2.58915e-05
2.55429e-05
2.38861e-06
2.32948e-06
2.30664e-06
2.69483e-06
2.55343e-06
2.3487e-06
2.32795e-06
2.35784e-06
2.9894e-06
2.40608e-06
3.04064e-06
2.5073e-06
2.2443e-06
2.24546e-06
3.07194e-06
3.0415e-06
3.17253e-06
3.14291e-06
2.60183e-06
2.5367e-06
2.61082e-06
2.28108e-06
2.30203e-06
2.89121e-06
2.98019e-06
2.95379e-06
2.2734e-06
2.33476e-06
2.38133e-06
3.08013e-06
2.55958e-06
3.21439e-06
2.72107e-06
2.23786e-06
2.24351e-06
3.22494e-06
3.19538e-06
3.3814e-06
3.35489e-06
2.63921e-06
2.69691e-06
2.76318e-06
2.2834e-06
2.34976e-06
2.99418e-06
3.16687e-06
3.12254e-06
2.27288e-06
2.3696e-06
2.42388e-06
3.26182e-06
2.77304e-06
3.40957e-06
2.92441e-06
2.23947e-06
2.25028e-06
3.43291e-06
3.41072e-06
3.57969e-06
3.58258e-06
2.81466e-06
2.89639e-06
2.9702e-06
2.34166e-06
2.4109e-06
3.16835e-06
3.3742e-06
3.31036e-06
2.28263e-06
2.42451e-06
2.50134e-06
3.46625e-06
2.98126e-06
3.63516e-06
3.1518e-06
2.24179e-06
2.23407e-06
3.63149e-06
3.63887e-06
3.81396e-06
3.81284e-06
3.02862e-06
3.13646e-06
3.20862e-06
2.41118e-06
2.47069e-06
3.361e-06
3.59774e-06
3.50615e-06
2.28228e-06
2.50139e-06
2.5485e-06
3.68205e-06
3.20958e-06
3.84723e-06
3.36811e-06
2.22289e-06
2.22318e-06
3.87689e-06
3.86646e-06
4.05418e-06
4.03314e-06
3.26627e-06
3.39859e-06
3.46583e-06
2.46785e-06
2.50957e-06
3.56291e-06
3.85653e-06
3.71595e-06
2.31104e-06
2.5415e-06
2.57347e-06
3.91197e-06
3.4322e-06
4.13831e-06
3.62928e-06
2.21127e-06
2.21782e-06
4.10748e-06
4.09278e-06
4.28186e-06
4.28391e-06
3.54222e-06
3.66812e-06
3.77959e-06
2.50452e-06
2.55547e-06
3.76924e-06
4.12973e-06
3.93945e-06
2.33602e-06
2.56268e-06
2.60294e-06
4.21645e-06
3.70158e-06
4.44806e-06
3.9685e-06
2.2086e-06
2.25429e-06
4.35132e-06
4.34561e-06
4.58545e-06
4.55689e-06
3.8499e-06
3.97415e-06
4.07703e-06
2.54737e-06
2.57916e-06
3.99885e-06
4.44741e-06
4.18252e-06
2.37676e-06
2.58203e-06
2.62143e-06
4.52149e-06
4.05108e-06
4.7549e-06
4.32966e-06
2.25506e-06
2.35455e-06
4.66748e-06
4.61798e-06
4.91691e-06
4.8438e-06
4.13985e-06
4.31354e-06
4.35241e-06
2.55564e-06
2.58266e-06
4.24871e-06
4.76678e-06
4.44995e-06
2.42504e-06
2.60075e-06
2.63247e-06
4.83023e-06
4.41697e-06
5.06916e-06
4.67687e-06
2.34919e-06
2.43324e-06
4.99666e-06
4.92303e-06
5.26516e-06
5.17963e-06
4.42206e-06
4.73409e-06
4.64094e-06
2.56649e-06
2.61106e-06
4.52935e-06
5.11676e-06
4.76009e-06
2.41851e-06
2.61339e-06
2.64737e-06
5.15636e-06
4.77154e-06
5.40564e-06
5.02904e-06
2.42432e-06
2.48339e-06
5.3578e-06
5.2656e-06
5.62457e-06
5.5187e-06
4.71414e-06
5.14722e-06
4.97974e-06
2.59678e-06
2.64639e-06
4.82756e-06
5.49537e-06
5.02701e-06
2.38942e-06
2.62597e-06
2.6503e-06
5.48513e-06
5.11716e-06
5.71777e-06
5.41223e-06
2.46537e-06
2.52026e-06
5.7085e-06
5.61427e-06
5.93714e-06
5.897e-06
5.07527e-06
5.56858e-06
5.37452e-06
2.62791e-06
2.7025e-06
5.10575e-06
5.91225e-06
5.37545e-06
2.36099e-06
2.62027e-06
2.62007e-06
5.79828e-06
5.50246e-06
6.05075e-06
5.76345e-06
2.49741e-06
2.53479e-06
6.0202e-06
5.99616e-06
6.22689e-06
6.30876e-06
5.4784e-06
5.9856e-06
5.76383e-06
2.67996e-06
2.79212e-06
5.45479e-06
6.33141e-06
5.69773e-06
2.36634e-06
2.5848e-06
2.59196e-06
6.14932e-06
5.87725e-06
6.42156e-06
6.17381e-06
2.50236e-06
2.57908e-06
6.28885e-06
6.41344e-06
6.48503e-06
6.74025e-06
5.85547e-06
6.41755e-06
6.15233e-06
2.76023e-06
2.92305e-06
5.76686e-06
6.77214e-06
5.9959e-06
2.44717e-06
2.54641e-06
2.59207e-06
6.514e-06
6.26276e-06
6.79384e-06
6.63529e-06
2.53718e-06
2.66349e-06
6.53927e-06
6.84062e-06
6.77113e-06
7.1648e-06
6.24163e-06
6.8669e-06
6.54841e-06
2.88149e-06
3.08328e-06
6.09009e-06
7.26063e-06
6.38758e-06
2.56971e-06
2.53309e-06
2.60926e-06
6.8814e-06
6.76952e-06
7.18788e-06
7.07699e-06
2.61265e-06
2.76407e-06
6.84082e-06
7.27812e-06
7.12062e-06
7.63685e-06
6.66893e-06
7.34249e-06
7.01087e-06
3.03151e-06
3.24521e-06
6.49101e-06
7.7048e-06
6.81131e-06
2.69145e-06
2.57992e-06
2.69618e-06
7.28679e-06
7.18348e-06
7.62707e-06
7.63827e-06
2.74215e-06
2.90109e-06
7.22168e-06
7.73788e-06
7.49504e-06
8.10164e-06
7.1185e-06
7.81374e-06
7.47453e-06
3.23069e-06
3.41206e-06
6.93323e-06
8.16288e-06
7.28607e-06
2.84923e-06
2.67079e-06
2.82299e-06
7.74444e-06
7.76043e-06
8.06733e-06
8.00675e-06
2.88279e-06
3.04843e-06
7.59768e-06
8.22548e-06
7.88035e-06
8.46985e-06
7.59794e-06
8.32448e-06
7.95131e-06
3.38135e-06
3.50474e-06
7.37419e-06
8.43399e-06
7.74009e-06
3.03558e-06
2.80402e-06
3.01271e-06
8.18203e-06
8.11111e-06
8.45893e-06
8.37118e-06
3.03116e-06
3.26196e-06
7.99715e-06
8.58824e-06
8.22514e-06
8.76796e-06
8.08271e-06
8.77684e-06
8.30244e-06
3.46023e-06
3.5578e-06
7.87484e-06
8.62612e-06
8.09488e-06
3.25115e-06
3.00748e-06
3.3578e-06
8.58274e-06
8.48513e-06
8.84415e-06
8.76756e-06
3.25073e-06
3.57632e-06
8.32836e-06
8.82696e-06
8.64894e-06
9.08746e-06
8.39916e-06
9.1867e-06
8.71651e-06
3.52431e-06
3.74146e-06
8.18243e-06
8.83375e-06
8.53062e-06
3.54571e-06
3.40102e-06
4.01731e-06
8.86201e-06
8.80332e-06
9.13866e-06
9.03512e-06
3.61264e-06
4.20625e-06
8.69507e-06
9.11655e-06
8.96203e-06
9.27318e-06
8.7671e-06
9.47078e-06
9.05899e-06
3.74138e-06
4.22822e-06
8.6459e-06
9.09197e-06
8.94268e-06
4.19865e-06
4.11899e-06
5.01472e-06
9.25151e-06
9.12729e-06
9.51091e-06
9.37568e-06
4.30443e-06
5.18872e-06
9.09533e-06
9.33736e-06
9.44997e-06
9.65551e-06
9.13837e-06
9.92471e-06
9.38926e-06
4.30635e-06
5.07017e-06
9.01672e-06
9.38669e-06
9.46445e-06
5.11624e-06
5.19776e-06
6.49821e-06
9.65043e-06
9.50532e-06
1.01064e-05
9.95655e-06
5.37289e-06
6.6632e-06
9.59221e-06
9.79279e-06
1.00633e-05
1.00888e-05
9.53902e-06
1.05308e-05
9.97623e-06
5.24111e-06
6.44742e-06
9.71505e-06
9.98851e-06
1.04545e-05
6.72425e-06
6.81097e-06
8.7633e-06
1.02725e-05
1.01303e-05
1.10858e-05
1.08339e-05
6.9632e-06
8.85356e-06
1.02299e-05
1.02947e-05
1.09331e-05
1.11308e-05
1.01473e-05
1.13038e-05
1.0827e-05
6.73557e-06
8.63552e-06
1.07401e-05
1.08426e-05
1.19225e-05
9.12566e-06
9.27312e-06
1.22008e-05
1.14452e-05
1.1138e-05
1.24452e-05
1.21078e-05
9.34173e-06
1.21404e-05
1.12523e-05
1.13454e-05
1.22367e-05
1.21384e-05
1.10749e-05
1.25303e-05
1.19398e-05
9.08317e-06
1.17196e-05
1.23414e-05
1.20382e-05
1.33212e-05
1.19939e-05
1.28984e-05
1.66591e-05
1.27787e-05
1.24521e-05
1.41628e-05
1.37142e-05
1.28379e-05
1.65281e-05
1.25958e-05
1.26082e-05
1.401e-05
1.41407e-05
1.23147e-05
1.40391e-05
1.36889e-05
1.24334e-05
1.6445e-05
1.35851e-05
1.38398e-05
1.45336e-05
1.62242e-05
1.75938e-05
2.23406e-05
1.47502e-05
1.42125e-05
1.65232e-05
1.58042e-05
1.73866e-05
2.18436e-05
1.45442e-05
1.45264e-05
1.59969e-05
1.5641e-05
1.42477e-05
1.58856e-05
1.62922e-05
1.73862e-05
2.17567e-05
1.49289e-05
1.58561e-05
1.6245e-05
2.22327e-05
2.34337e-05
2.87471e-05
1.71081e-05
1.64126e-05
1.89185e-05
1.85637e-05
2.2951e-05
2.84608e-05
1.65262e-05
1.62187e-05
1.85649e-05
1.86835e-05
1.70765e-05
1.86039e-05
1.9295e-05
2.27387e-05
2.8089e-05
1.676e-05
1.85254e-05
1.84849e-05
2.84933e-05
2.99842e-05
3.61315e-05
1.95919e-05
1.93687e-05
2.19845e-05
2.1998e-05
2.97539e-05
3.60103e-05
1.9383e-05
1.96087e-05
2.21157e-05
2.22579e-05
1.99701e-05
2.20176e-05
2.22245e-05
2.94659e-05
3.61197e-05
1.91478e-05
2.20999e-05
2.17425e-05
3.54255e-05
3.76188e-05
4.42696e-05
2.29073e-05
2.29642e-05
2.60308e-05
2.62133e-05
3.74787e-05
4.4121e-05
2.31123e-05
2.31347e-05
2.63278e-05
2.60902e-05
2.31211e-05
2.60412e-05
2.62593e-05
3.76177e-05
4.41827e-05
2.28097e-05
2.62952e-05
2.63334e-05
4.40888e-05
4.58079e-05
5.25305e-05
2.72131e-05
2.7427e-05
3.1121e-05
3.13506e-05
4.56896e-05
5.25948e-05
2.74838e-05
2.72409e-05
3.12681e-05
3.11789e-05
2.74419e-05
3.12492e-05
3.11588e-05
4.57026e-05
5.23825e-05
2.75828e-05
3.12261e-05
3.14527e-05
5.23008e-05
5.40964e-05
6.0444e-05
3.25121e-05
3.27354e-05
3.69662e-05
3.72597e-05
5.41698e-05
6.04576e-05
3.26417e-05
3.26141e-05
3.70882e-05
3.71987e-05
3.24334e-05
3.69416e-05
3.66031e-05
5.39666e-05
6.06557e-05
3.2772e-05
3.71779e-05
3.7012e-05
5.99347e-05
6.18811e-05
6.73392e-05
3.85494e-05
3.88968e-05
4.33212e-05
4.37408e-05
6.18919e-05
6.74474e-05
3.86608e-05
3.88102e-05
4.33241e-05
4.35302e-05
3.8151e-05
4.31451e-05
4.29349e-05
6.2182e-05
6.7865e-05
3.85574e-05
4.42871e-05
4.32626e-05
6.7204e-05
6.86192e-05
7.32571e-05
4.47979e-05
4.51891e-05
4.85952e-05
4.88466e-05
6.87475e-05
7.33747e-05
4.47713e-05
4.49549e-05
4.86052e-05
4.86502e-05
4.44367e-05
4.84922e-05
4.83712e-05
6.91193e-05
7.34515e-05
4.47318e-05
4.9537e-05
4.85957e-05
7.33119e-05
7.4295e-05
7.75099e-05
4.96995e-05
4.99079e-05
5.26938e-05
5.28222e-05
7.44015e-05
7.75763e-05
4.97433e-05
4.97495e-05
5.28033e-05
5.27552e-05
4.95332e-05
5.2732e-05
5.26579e-05
7.44341e-05
7.75577e-05
4.9734e-05
5.32453e-05
5.27765e-05
7.75819e-05
7.8286e-05
8.10394e-05
5.36503e-05
5.3764e-05
5.72914e-05
5.73557e-05
7.8344e-05
8.10487e-05
5.37668e-05
5.37136e-05
5.73936e-05
5.73575e-05
5.36335e-05
5.73071e-05
5.72758e-05
7.83279e-05
8.10857e-05
5.373e-05
5.76207e-05
5.73267e-05
8.10472e-05
8.19669e-05
8.7271e-05
5.90268e-05
5.90709e-05
6.6371e-05
6.63695e-05
8.19659e-05
8.72426e-05
5.91147e-05
5.90931e-05
6.64103e-05
6.64308e-05
5.90037e-05
6.63417e-05
6.63378e-05
8.20126e-05
8.73157e-05
5.90436e-05
6.65441e-05
6.6352e-05
8.72447e-05
8.88236e-05
9.6832e-05
6.95201e-05
6.95115e-05
8.04311e-05
8.04174e-05
8.87964e-05
9.68161e-05
6.95468e-05
6.95755e-05
8.04316e-05
8.04676e-05
6.94885e-05
8.04024e-05
8.04129e-05
8.8866e-05
9.68606e-05
6.9497e-05
8.04995e-05
8.04093e-05
9.68213e-05
9.86771e-05
0.000107387
8.43367e-05
8.43231e-05
9.64257e-05
9.64133e-05
9.86637e-05
0.00010738
8.43331e-05
8.43666e-05
9.64185e-05
9.64393e-05
8.43243e-05
9.64111e-05
9.64276e-05
9.87022e-05
0.000107399
8.4318e-05
9.64516e-05
9.64182e-05
0.000107387
0.000109226
0.000117711
0.00010058
0.000100567
0.000112797
0.000112785
0.000109219
0.000117707
0.000100574
0.00010059
0.000112794
0.000112798
0.000100584
0.000112797
0.000112803
0.000109235
0.000117712
0.000100576
0.00011281
0.0001128
0.00011771
0.000119274
0.000124607
0.000116426
0.000116413
0.000124852
0.000124839
0.000119271
0.000124605
0.000116424
0.000116425
0.000124854
0.000124845
0.000116433
0.000124859
0.000124863
0.000119274
0.000124607
0.000116432
0.000124866
0.000124864
0.000124612
0.000125342
0.000127496
0.000126833
0.00012682
0.000130822
0.00013081
0.00012534
0.000127495
0.000126837
0.000126824
0.000130829
0.000130811
0.000126845
0.000130835
0.000130835
0.000125342
0.000127494
0.000126846
0.00013084
0.000130839
0.0001275
0.00012779
0.000128626
0.000131645
0.000131633
0.000133132
0.00013312
0.000127789
0.000128626
0.000131652
0.000131634
0.00013314
0.000133121
0.000131658
0.000133149
0.000133145
0.000127788
0.000128623
0.000131662
0.000133151
0.000133151
0.00012863
0.000128708
0.000129013
0.000133406
0.000133394
0.000133879
0.000133867
0.000128708
0.000129013
0.000133415
0.000133395
0.000133887
0.000133866
0.000133419
0.000133897
0.00013389
0.000128705
0.00012901
0.000133425
0.000133897
0.000133897
0.000129017
0.000129011
0.000129176
0.000133966
0.000133954
0.000134099
0.000134087
0.000129011
0.000129177
0.000133974
0.000133953
0.000134107
0.000134086
0.000133977
0.000134118
0.000134109
0.000129008
0.000129172
0.000133984
0.000134117
0.000134117
0.000129179
0.000129162
0.000129142
0.000134111
0.000134099
0.000134109
0.000134097
0.000129162
0.000129142
0.000134119
0.000134098
0.000134117
0.000134096
0.000134121
0.000134127
0.000134119
0.000129158
0.00012914
0.000134128
0.000134127
0.000134126
0.000129146
0.0001291
0.000129089
0.000134105
0.000134092
0.000134101
0.000134088
0.000129101
0.000129085
0.000134112
0.000134091
0.000134108
0.000134087
0.000134114
0.000134118
0.00013411
0.000129098
0.000129081
0.000134121
0.000134117
0.000134117
0.000129086
0.000129075
0.000129189
0.000134107
0.000134095
0.000134128
0.000134117
0.000129071
0.000129198
0.000134114
0.000134094
0.000134135
0.000134115
0.000134117
0.000134146
0.000134137
0.000129066
0.000129197
0.000134124
0.000134145
0.000134145
0.000129204
0.000129172
0.00012907
0.000134127
0.000134115
0.000134107
0.000134095
0.000129179
0.000129067
0.000134135
0.000134113
0.000134114
0.000134093
0.000134135
0.000134124
0.000134116
0.000129176
0.000129061
0.000134142
0.000134123
0.000134123
0.000129066
0.000129025
0.000129212
0.000134108
0.000134095
0.000134122
0.00013411
0.000129023
0.000129216
0.000134114
0.000134093
0.000134129
0.000134108
0.000134117
0.000134139
0.00013413
0.000129019
0.000129212
0.000134124
0.000134138
0.000134138
0.00012922
0.000129199
0.000129053
0.000134118
0.000134105
0.000134115
0.000134102
0.000129199
0.000129055
0.000134125
0.000134103
0.000134121
0.000134101
0.000134125
0.000134133
0.000134124
0.000129194
0.000129052
0.000134134
0.000134131
0.000134131
0.000129058
0.000129039
0.000129187
0.000134115
0.000134104
0.000134115
0.000134102
0.00012905
0.000129172
0.000134122
0.000134101
0.000134122
0.0001341
0.000134124
0.000134132
0.000134123
0.000129051
0.00012916
0.000134131
0.000134131
0.000134131
0.000129171
0.000129128
0.000129165
0.000134114
0.000134102
0.000134119
0.000134107
0.000129113
0.000129178
0.000134122
0.0001341
0.000134122
0.000134103
0.000134124
0.000134136
0.000134128
0.000129101
0.00012918
0.000134131
0.000134135
0.000134134
0.000129185
0.000129165
0.000129076
0.000134117
0.000134103
0.000134118
0.000134106
0.000129171
0.000129105
0.000134121
0.0001341
0.000134123
0.000134104
0.000134123
0.000134138
0.000134128
0.000129169
0.000129114
0.00013413
0.000134135
0.000134134
0.000129103
0.000129087
0.000129096
0.000134121
0.000134108
0.000134115
0.000134103
0.000129125
0.000129078
0.000134124
0.000134104
0.000134121
0.0001341
0.00013413
0.000134131
0.000134122
0.000129131
0.000129076
0.000134137
0.000134129
0.000134128
0.000129079
0.000129049
0.000129182
0.000134116
0.000134106
0.000134118
0.000134103
0.000129065
0.000129108
0.000134122
0.000134103
0.000134123
0.000134101
0.000134126
0.000134133
0.000134124
0.000129078
0.00012909
0.000134132
0.000134131
0.000134131
0.000129135
0.000129122
0.00012919
0.000134117
0.000134104
0.000134118
0.000134104
0.000129059
0.000129177
0.000134123
0.000134103
0.000134123
0.000134099
0.000134122
0.000134137
0.000134127
0.000129055
0.000129113
0.000134129
0.000134133
0.000134133
0.000129191
0.000129173
0.000129141
0.000134116
0.000134103
0.00013412
0.000134107
0.000129117
0.000129188
0.000134123
0.000134101
0.000134124
0.000134101
0.000134125
0.000134134
0.000134126
0.000129066
0.000129124
0.000134131
0.000134131
0.000134133
0.000129192
0.000129152
0.000129094
0.000134118
0.000134104
0.000134119
0.000134108
0.000129157
0.000129181
0.000134122
0.000134099
0.000134124
0.000134104
0.000134124
0.000134137
0.000134127
0.000129071
0.000129153
0.00013413
0.000134133
0.000134134
0.000129145
0.000129111
0.00012909
0.000134119
0.000134105
0.000134118
0.00013411
0.000129159
0.000129177
0.000134125
0.000134101
0.000134122
0.000134103
0.000134126
0.00013414
0.000134126
0.000129094
0.000129185
0.000134133
0.000134136
0.000134133
0.000129145
0.000129086
0.000129087
0.00013412
0.00013411
0.000134117
0.000134103
0.000129175
0.00012908
0.000134125
0.000134103
0.000134121
0.000134101
0.000134125
0.000134133
0.000134129
0.000129143
0.000129164
0.000134131
0.000134132
0.000134136
0.00012917
0.000129083
0.000129085
0.000134121
0.00013411
0.000134115
0.000134104
0.000129095
0.000129138
0.000134123
0.000134101
0.00013412
0.000134101
0.000134131
0.000134133
0.000134122
0.000129136
0.000129168
0.000134138
0.00013413
0.000134128
0.000129065
0.000129043
0.0001292
0.000134116
0.000134102
0.000134123
0.000134109
0.000129089
0.000129168
0.000134121
0.000134099
0.000134127
0.000134104
0.000134124
0.000134141
0.000134128
0.000129109
0.000129188
0.000134131
0.000134134
0.000134133
0.000129156
0.000129149
0.000129115
0.000134116
0.000134107
0.00013412
0.000134105
0.000129167
0.000129064
0.00013412
0.000134101
0.000134125
0.000134103
0.000134122
0.000134135
0.000134131
0.000129152
0.000129154
0.000134128
0.000134133
0.000134138
0.000129196
0.00012912
0.000129109
0.000134121
0.000134105
0.000134118
0.000134106
0.000129062
0.000129131
0.000134126
0.000134102
0.000134122
0.000134103
0.000134132
0.000134132
0.000134122
0.000129125
0.000129177
0.000134136
0.000134133
0.000134131
0.000129082
0.000129056
0.000129202
0.000134118
0.000134106
0.000134119
0.000134107
0.000129073
0.000129206
0.000134122
0.000134101
0.000134123
0.000134103
0.000134126
0.00013414
0.000134125
0.000129116
0.000129192
0.000134136
0.000134133
0.000134129
0.000129093
0.000129145
0.000129188
0.000134118
0.000134106
0.00013412
0.000134107
0.000129163
0.000129175
0.000134123
0.000134103
0.000134123
0.000134101
0.000134123
0.000134138
0.000134126
0.000129168
0.000129146
0.00013413
0.000134133
0.000134131
0.000129175
0.000129178
0.000129128
0.00013412
0.000134107
0.000134118
0.000134105
0.000129175
0.000129105
0.000134122
0.000134101
0.000134125
0.000134102
0.000134126
0.000134134
0.000134125
0.000129154
0.00012908
0.00013413
0.000134132
0.000134136
0.000129205
0.00012915
0.000129073
0.000134121
0.000134105
0.000134119
0.000134106
0.000129129
0.000129073
0.000134123
0.000134102
0.000134124
0.000134101
0.000134125
0.000134133
0.000134126
0.0001291
0.000129083
0.00013413
0.000134129
0.000134135
0.000129177
0.000129079
0.000129094
0.000134118
0.000134106
0.00013412
0.000134106
0.000129062
0.000129114
0.000134127
0.000134103
0.00013412
0.0001341
0.000134124
0.000134134
0.000134127
0.000129043
0.000129169
0.000134136
0.000134134
0.000134129
0.000129127
0.000129054
0.000129135
0.000134122
0.000134106
0.000134116
0.000134105
0.000129062
0.000129203
0.000134122
0.0001341
0.000134122
0.000134103
0.000134127
0.000134138
0.000134125
0.000129113
0.000129174
0.00013413
0.000134136
0.000134132
0.000129095
0.000129082
0.000129143
0.000134117
0.000134105
0.000134119
0.000134108
0.000129164
0.000129148
0.000134121
0.000134101
0.000134123
0.000134103
0.000134127
0.000134136
0.000134124
0.000129162
0.000129115
0.000134132
0.000134133
0.000134131
0.000129101
0.000129085
0.000129196
0.000134117
0.000134106
0.000134122
0.000134107
0.000129153
0.00012908
0.000134122
0.000134103
0.000134126
0.000134102
0.000134125
0.000134135
0.000134125
0.000129122
0.000129111
0.000134132
0.000134132
0.000134131
0.000129116
0.000129141
0.000129175
0.000134118
0.000134108
0.000134122
0.000134105
0.000129088
0.000129092
0.000134122
0.000134102
0.000134126
0.000134102
0.000134126
0.000134135
0.000134125
0.000129095
0.000129143
0.000134132
0.000134132
0.00013413
0.000129111
0.000129174
0.000129075
0.000134123
0.000134107
0.000134116
0.000134104
0.000129055
0.000129121
0.000134127
0.000134102
0.00013412
0.0001341
0.000134127
0.000134133
0.000134123
0.000129088
0.000129143
0.000134132
0.000134132
0.000134129
0.000129116
0.00012909
0.000129105
0.00013412
0.000134105
0.000134116
0.000134105
0.000129069
0.000129154
0.000134123
0.000134101
0.000134121
0.0001341
0.000134124
0.000134135
0.000134125
0.000129085
0.000129163
0.00013413
0.000134133
0.000134131
0.000129153
0.000129058
0.000129181
0.000134116
0.000134104
0.000134121
0.000134107
0.000129094
0.000129177
0.00013412
0.0001341
0.000134124
0.000134103
0.000134123
0.000134135
0.000134127
0.000129105
0.000129173
0.000134129
0.000134133
0.000134133
0.000129188
0.000129134
0.000129165
0.000134118
0.000134105
0.000134119
0.000134107
0.00012912
0.000129182
0.000134123
0.000134101
0.000134123
0.000134102
0.000134126
0.000134134
0.000134125
0.000129123
0.000129179
0.000134132
0.000134133
0.000134131
0.000129183
0.000129149
0.000129161
0.000134119
0.000134106
0.000134118
0.000134106
0.000129135
0.000129184
0.000134123
0.000134101
0.000134122
0.000134101
0.000134125
0.000134134
0.000134124
0.000129139
0.000129174
0.000134131
0.000134133
0.00013413
0.000129171
0.000129148
0.000129177
0.000134119
0.000134106
0.000134119
0.000134106
0.000129146
0.000129182
0.000134122
0.000134102
0.000134121
0.000134101
0.000134125
0.000134134
0.000134123
0.000129152
0.000129156
0.000134131
0.00013413
0.000134129
0.000129152
0.000129157
0.000129174
0.000134119
0.000134106
0.000134118
0.000134105
0.000129157
0.000129166
0.000134122
0.000134102
0.000134121
0.000134101
0.000134124
0.000134134
0.000134124
0.000129144
0.000129164
0.00013413
0.00013413
0.000134129
0.000129148
0.000129162
0.00012915
0.000134119
0.000134106
0.000134118
0.000134105
0.000129153
0.000129161
0.000134122
0.000134101
0.000134121
0.000134101
0.000134124
0.000134133
0.000134124
0.000129145
0.000129175
0.00013413
0.000134131
0.00013413
0.000129155
0.000129151
0.000129126
0.000134119
0.000134105
0.000134118
0.000134105
0.00012915
0.000129168
0.000134123
0.000134101
0.000134121
0.000134101
0.000134125
0.000134133
0.000134123
0.000129158
0.000129145
0.00013413
0.000134131
0.000134129
0.000129149
0.000129135
0.000129113
0.000134119
0.000134105
0.000134117
0.000134105
0.000129154
0.000129168
0.000134122
0.000134102
0.000134121
0.0001341
0.000134125
0.000134133
0.000134123
0.000129149
0.000129089
0.000134131
0.000134128
0.000134128
0.00012913
0.000129122
0.000129121
0.000134119
0.000134106
0.000134116
0.000134104
0.000129157
0.000129155
0.000134123
0.000134102
0.00013412
0.000134099
0.000134125
0.000134133
0.000134123
0.000129104
0.000129085
0.00013413
0.000134128
0.000134128
0.000129132
0.000129126
0.000129144
0.000134119
0.000134106
0.000134116
0.000134103
0.000129153
0.000129133
0.000134123
0.000134102
0.00013412
0.000134099
0.000134125
0.000134132
0.000134122
0.000129062
0.000129116
0.00013413
0.000134129
0.000134129
0.000129157
0.000129143
0.000129155
0.000134119
0.000134107
0.000134116
0.000134103
0.000129139
0.000129124
0.000134123
0.000134102
0.00013412
0.000134099
0.000134125
0.000134132
0.000134123
0.000129095
0.000129123
0.000134131
0.000134129
0.000134127
0.000129174
0.000129148
0.000129162
0.00013412
0.000134107
0.000134117
0.000134103
0.00012913
0.000129138
0.000134123
0.000134102
0.000134121
0.0001341
0.000134125
0.000134133
0.000134123
0.000129124
0.000129153
0.000134132
0.000134128
0.000134127
0.000129152
0.000129154
0.000129156
0.000134121
0.000134108
0.000134117
0.000134104
0.000129138
0.000129158
0.000134125
0.000134104
0.00013412
0.000134099
0.000134128
0.000134132
0.000134122
0.000129142
0.000129169
0.000134131
0.000134129
0.000134127
0.000129116
0.000129153
0.000129142
0.000134122
0.000134109
0.000134117
0.000134105
0.00012915
0.000129162
0.000134127
0.000134106
0.00013412
0.000134099
0.000134129
0.000134133
0.000134122
0.000129157
0.000129144
0.000134133
0.00013413
0.000134128
0.000129122
0.000129148
0.000129128
0.000134126
0.000134113
0.000134118
0.000134105
0.000129154
0.000129156
0.000134128
0.000134107
0.000134123
0.000134102
0.00013413
0.000134136
0.000134125
0.000129149
0.000129109
0.000134135
0.000134131
0.00013413
0.000129145
0.000129138
0.00012913
0.000134128
0.000134115
0.000134124
0.000134111
0.000129151
0.000129163
0.000134132
0.000134112
0.000134128
0.000134106
0.000134135
0.00013414
0.000134129
0.000129125
0.000129101
0.00013414
0.000134134
0.000134134
0.000129151
0.000129137
0.000129139
0.000134135
0.000134123
0.000134132
0.00013412
0.000129157
0.000129163
0.00013414
0.000134119
0.000134135
0.000134115
0.000134142
0.000134148
0.000134137
0.000129101
0.000129123
0.000134146
0.000134146
0.000134144
0.000129144
0.000129145
0.000129131
0.00013415
0.000134137
0.000134146
0.000134134
0.000129162
0.000129147
0.000134153
0.000134133
0.000134151
0.00013413
0.000134154
0.000134163
0.000134153
0.000129122
0.000129117
0.00013416
0.000134158
0.000134159
0.00012914
0.00012913
0.000129222
0.000134124
0.000134112
0.000134685
0.000134675
0.000129146
0.000129226
0.000134128
0.000134108
0.000134693
0.00013467
0.000134129
0.000134705
0.000134691
0.000129116
0.000129212
0.000134136
0.000134699
0.000134699
0.000129221
0.000129537
0.000133285
0.000133276
0.000129543
0.000133293
0.00013327
0.000127973
0.000127969
0.000127977
0.000133291
0.000129525
0.000133299
6.50947e-05
9.93394e-06
4.38686e-05
4.38527e-05
5.52008e-07
2.37933e-06
9.00566e-07
2.67981e-05
6.47325e-07
2.68507e-06
2.69318e-05
1.64947e-06
2.38198e-06
1.9223e-06
2.26376e-06
1.10405e-06
1.34898e-05
1.04369e-06
1.515e-05
1.07278e-05
1.28824e-05
9.92016e-07
1.33162e-05
9.04044e-07
1.48894e-05
2.4846e-05
2.51509e-05
2.47531e-05
2.50442e-05
2.48169e-05
2.51257e-05
2.46927e-05
5.34283e-07
3.8779e-07
1.13201e-05
2.47303e-06
5.24476e-07
5.00423e-07
1.12327e-05
1.0798e-05
1.30183e-05
5.51305e-07
1.16411e-05
4.98895e-07
2.90779e-06
5.9952e-07
1.15525e-05
6.1768e-07
1.48776e-06
1.51546e-06
2.29754e-06
1.68686e-06
1.72115e-06
1.32665e-06
1.84467e-05
1.20071e-06
2.09372e-05
1.71427e-05
1.93437e-05
1.29766e-06
1.84527e-05
1.17095e-06
2.06246e-05
2.50171e-05
2.53258e-05
2.48982e-05
2.58849e-05