/*--------------------------------*- C++ -*----------------------------------*\
| =========                 |                                                 |
| \\      /  F ield         | OpenFOAM: The Open Source CFD Toolbox           |
|  \\    /   O peration     | Version:  v2012                                 |
|   \\  /    A nd           | Website:  www.openfoam.com                      |
|    \\/     M anipulation  |                                                 |
\*---------------------------------------------------------------------------*/
FoamFile
{
    version     2.0;
    format      ascii;
    class       volScalarField;
    location    "162.5";
    object      p;
}
// * * * * * * * * * * * * * * * * * * * * * * * * * * * * * * * * * * * * * //

dimensions      [0 2 -2 0 0 0 0];


internalField   nonuniform List<scalar> 
171728
(
0.00352209
0.00352135
0.00352136
0.00352259
0.00348595
0.00348477
0.00348476
0.0034878
0.00344886
0.00344719
0.00344717
0.00344958
0.00340424
0.00340286
0.00340287
0.00340538
0.003356
0.00335466
0.00335469
0.00335731
0.00330777
0.00330655
0.00330652
0.00330907
0.00325982
0.00325869
0.0032587
0.00326129
0.00321259
0.00321156
0.00321156
0.00321419
0.00316645
0.00316552
0.00316551
0.00316813
0.00312124
0.00312038
0.00312039
0.00312303
0.00307697
0.00307621
0.0030762
0.00307884
0.0030334
0.00303274
0.00303273
0.00303534
0.00299039
0.00298978
0.00298978
0.00299241
0.00294775
0.00294722
0.00294722
0.00294985
0.00290543
0.00290497
0.00290497
0.00290755
0.00286342
0.00286301
0.002863
0.00286558
0.00282173
0.00282136
0.00282135
0.00282393
0.00278041
0.00278006
0.00278004
0.00278254
0.00273941
0.00273908
0.00273908
0.00274151
0.00269877
0.00269844
0.00269843
0.00270081
0.00265845
0.00265813
0.00265813
0.00266043
0.00261846
0.00261815
0.00261815
0.00262044
0.00257875
0.00257848
0.00257845
0.00258062
0.00253937
0.00253908
0.0025391
0.00254138
0.00250028
0.00250002
0.00250001
0.0025024
0.00246147
0.00246123
0.00246126
0.00246366
0.00242299
0.00242275
0.00242276
0.00242522
0.00238483
0.00238463
0.00238462
0.00238714
0.00234708
0.00234692
0.00234692
0.0023494
0.00230982
0.00230966
0.00230968
0.00231208
0.00227337
0.00227325
0.00227324
0.00227554
0.00223779
0.00223773
0.0022377
0.00223988
0.00220263
0.00220274
0.00220271
0.00220477
0.00216746
0.0021676
0.00216759
0.00216958
0.00213184
0.00213193
0.00213194
0.00213396
0.00209571
0.00209576
0.00209577
0.00209781
0.0020596
0.00205957
0.00205957
0.00206159
0.00202385
0.00202367
0.00202368
0.00202566
0.0019885
0.00198817
0.00198817
0.00199012
0.00195324
0.00195284
0.00195284
0.00195479
0.0019178
0.00191749
0.00191749
0.00191948
0.00188229
0.00188213
0.00188213
0.00188416
0.00184676
0.00184668
0.00184668
0.00184874
0.00181122
0.00181117
0.00181117
0.00181324
0.00177565
0.00177562
0.00177562
0.00177769
0.00174008
0.00174005
0.00174005
0.00174212
0.00170452
0.00170449
0.00170449
0.00170656
0.00166895
0.00166892
0.00166892
0.00167099
0.00163338
0.00163335
0.00163335
0.00163542
0.00159781
0.00159778
0.00159778
0.00159985
0.00156225
0.00156221
0.00156221
0.00156429
0.00152668
0.00152665
0.00152665
0.00152872
0.00149112
0.00149108
0.00149108
0.00149316
0.00145555
0.00145552
0.00145552
0.00145759
0.00141998
0.00141995
0.00141995
0.00142203
0.00138442
0.00138438
0.00138438
0.00138646
0.00134885
0.00134881
0.00134882
0.00135089
0.00131328
0.00131325
0.00131325
0.00131532
0.00127771
0.00127768
0.00127768
0.00127975
0.00124214
0.00124211
0.00124211
0.00124418
0.00120657
0.00120654
0.00120654
0.00120861
0.001171
0.00117097
0.00117097
0.00117304
0.00113543
0.00113539
0.00113539
0.00113747
0.00109985
0.00109982
0.00109982
0.00110189
0.00106428
0.00106425
0.00106425
0.00106632
0.00102871
0.00102867
0.00102868
0.00103075
0.000993139
0.000993106
0.000993107
0.000995179
0.000957569
0.000957538
0.000957537
0.000959607
0.000921999
0.000921967
0.000921966
0.000924038
0.00088643
0.000886396
0.000886395
0.000888471
0.000850861
0.000850826
0.000850827
0.000852903
0.000815292
0.000815258
0.00081526
0.000817334
0.000779722
0.00077969
0.000779691
0.000781764
0.000744152
0.000744121
0.000744121
0.000746195
0.000708582
0.000708551
0.00070855
0.000710624
0.000673013
0.000672978
0.000672978
0.000675052
0.000637443
0.000637408
0.000637408
0.000639482
0.000601872
0.000601838
0.000601837
0.000603912
0.000566302
0.000566269
0.000566268
0.000568342
0.000530732
0.000530698
0.0005307
0.000532772
0.000495162
0.000495128
0.000495128
0.000497202
0.000459592
0.000459558
0.000459557
0.000461632
0.000424023
0.000423989
0.00042399
0.000426063
0.000388453
0.000388419
0.000388422
0.000390493
0.000352884
0.000352851
0.000352851
0.000354923
0.000317315
0.000317282
0.000317281
0.000319352
0.000281746
0.000281712
0.000281713
0.000283781
0.000246176
0.000246143
0.000246144
0.00024821
0.000210607
0.000210575
0.000210574
0.000212638
0.000175036
0.000175005
0.000175005
0.000177061
0.000139463
0.000139434
0.000139436
0.000141478
0.000103877
0.000103858
0.000103858
0.000105883
6.83054e-05
6.82763e-05
6.82743e-05
7.02696e-05
3.3592e-05
3.31472e-05
3.31457e-05
3.48651e-05
4.9107e-06
4.66581e-06
4.66658e-06
4.17213e-06
0.00352761
0.00352579
0.0035258
0.00352764
0.00352578
0.00352579
0.00353087
0.00353087
0.00353087
0.00353086
0.00352578
0.00352575
0.00352763
0.00352581
0.00352578
0.0035276
0.00352259
0.00349237
0.00352137
0.00352146
0.00349403
0.00349412
0.00352261
0.00349238
0.00352136
0.00352137
0.00349406
0.00349403
0.00352139
0.00349404
0.003494
0.00352261
0.00349239
0.00352138
0.00349406
0.00349403
0.00349237
0.00348779
0.003455
0.0034848
0.00348475
0.00345715
0.00345713
0.00348779
0.00345499
0.00348476
0.00348478
0.00345721
0.00345718
0.00348482
0.00345719
0.00345719
0.0034878
0.00345502
0.00348478
0.0034572
0.00345724
0.003455
0.00344957
0.00341158
0.0034472
0.00344716
0.00341462
0.00341459
0.00344957
0.00341157
0.00344714
0.00344721
0.0034146
0.00341462
0.00344713
0.00341462
0.00341453
0.00344959
0.00341159
0.00344709
0.00341464
0.00341452
0.00341159
0.00340537
0.00336366
0.00340286
0.00340291
0.00336677
0.00336675
0.00340536
0.00336367
0.00340289
0.00340285
0.00336674
0.00336676
0.00340291
0.00336679
0.00336675
0.00340537
0.00336368
0.00340291
0.00336675
0.00336678
0.00336371
0.00335727
0.00331543
0.00335465
0.00335465
0.00331851
0.00331852
0.00335728
0.00331543
0.00335467
0.00335469
0.00331852
0.00331852
0.0033547
0.0033185
0.00331852
0.0033573
0.00331544
0.0033547
0.00331852
0.00331851
0.00331539
0.00330911
0.00326757
0.00330653
0.00330653
0.00327061
0.00327059
0.00330911
0.00326757
0.00330653
0.00330655
0.00327062
0.00327061
0.00330653
0.00327061
0.0032706
0.00330912
0.00326757
0.00330652
0.00327061
0.00327061
0.00326755
0.00326131
0.00322031
0.0032587
0.00325868
0.00322323
0.00322324
0.00326131
0.00322032
0.0032587
0.00325871
0.00322322
0.00322323
0.00325869
0.00322324
0.00322324
0.00326132
0.00322032
0.0032587
0.00322323
0.00322324
0.0032203
0.00321419
0.00317412
0.00321157
0.00321154
0.00317693
0.00317693
0.0032142
0.00317412
0.00321156
0.00321158
0.00317693
0.00317693
0.00321156
0.00317693
0.00317692
0.0032142
0.00317412
0.00321157
0.00317693
0.00317694
0.00317411
0.00316813
0.00312889
0.00316551
0.00316551
0.00313158
0.00313158
0.00316814
0.00312888
0.00316549
0.00316551
0.00313157
0.00313158
0.00316552
0.00313158
0.00313158
0.00316814
0.00312889
0.00316551
0.00313158
0.00313157
0.00312889
0.00312304
0.00308457
0.0031204
0.0031204
0.00308718
0.00308717
0.00312303
0.00308457
0.00312039
0.0031204
0.00308717
0.00308717
0.00312037
0.00308716
0.00308717
0.00312304
0.00308457
0.00312039
0.00308717
0.00308718
0.00308457
0.00307883
0.00304099
0.00307619
0.0030762
0.00304353
0.00304354
0.00307883
0.00304101
0.0030762
0.00307621
0.00304353
0.00304354
0.0030762
0.00304354
0.00304353
0.00307884
0.003041
0.00307621
0.00304354
0.00304354
0.00304098
0.00303534
0.00299798
0.00303272
0.00303273
0.00300048
0.00300048
0.00303537
0.00299795
0.00303271
0.00303273
0.00300048
0.00300048
0.00303273
0.00300047
0.00300047
0.00303535
0.00299798
0.00303273
0.00300048
0.00300047
0.00299799
0.0029924
0.00295536
0.00298978
0.00298977
0.00295783
0.00295784
0.00299239
0.00295534
0.00298978
0.00298979
0.00295782
0.00295785
0.00298979
0.00295784
0.00295784
0.00299241
0.00295536
0.00298979
0.00295784
0.00295784
0.00295537
0.00294983
0.00291305
0.00294724
0.00294722
0.00291552
0.00291551
0.00294982
0.00291305
0.00294723
0.00294722
0.00291551
0.00291551
0.00294723
0.00291552
0.00291551
0.00294983
0.00291304
0.00294723
0.0029155
0.0029155
0.00291302
0.00290756
0.00287101
0.00290497
0.00290496
0.00287348
0.00287348
0.00290757
0.00287101
0.00290498
0.00290498
0.00287347
0.00287347
0.00290496
0.00287347
0.00287347
0.00290756
0.00287101
0.00290496
0.00287347
0.00287347
0.00287101
0.00286558
0.00282928
0.00286301
0.00286302
0.00283176
0.00283174
0.00286559
0.00282926
0.00286301
0.00286301
0.00283175
0.00283174
0.00286301
0.00283175
0.00283174
0.00286558
0.0028293
0.002863
0.00283174
0.00283174
0.0028293
0.0028239
0.00278789
0.00282136
0.00282137
0.00279037
0.00279036
0.00282389
0.00278788
0.00282136
0.00282136
0.00279036
0.00279035
0.00282136
0.00279035
0.00279035
0.00282392
0.00278787
0.00282136
0.00279035
0.00279034
0.00278786
0.00278256
0.00274678
0.00278006
0.00278007
0.00274929
0.00274928
0.00278255
0.00274678
0.00278006
0.00278005
0.00274929
0.0027493
0.00278005
0.00274928
0.00274931
0.00278255
0.00274676
0.00278005
0.0027493
0.0027493
0.00274677
0.00274152
0.00270602
0.00273907
0.00273907
0.00270858
0.00270857
0.00274152
0.00270601
0.00273907
0.00273908
0.00270858
0.00270858
0.00273908
0.00270857
0.00270858
0.00274151
0.002706
0.00273907
0.00270856
0.00270857
0.00270602
0.00270081
0.00266559
0.00269844
0.00269845
0.00266819
0.00266819
0.00270081
0.00266561
0.00269844
0.00269844
0.00266818
0.00266818
0.00269845
0.00266819
0.0026682
0.00270078
0.00266558
0.00269843
0.00266818
0.00266821
0.00266561
0.00266044
0.00262551
0.00265814
0.00265814
0.00262812
0.00262811
0.00266044
0.00262549
0.00265813
0.00265814
0.00262812
0.00262811
0.00265813
0.00262811
0.00262811
0.00266043
0.00262553
0.00265815
0.00262812
0.00262813
0.00262552
0.00262041
0.00258576
0.00261815
0.00261815
0.00258836
0.00258837
0.00262039
0.00258577
0.00261816
0.00261815
0.00258836
0.00258836
0.00261814
0.00258837
0.00258833
0.00262042
0.00258576
0.00261818
0.00258834
0.00258833
0.00258569
0.00258071
0.00254639
0.00257847
0.00257848
0.00254892
0.00254891
0.00258072
0.00254637
0.00257846
0.00257844
0.00254891
0.00254892
0.00257843
0.00254891
0.00254892
0.00258069
0.0025464
0.0025784
0.0025489
0.00254886
0.00254639
0.00254138
0.00250735
0.00253911
0.00253909
0.00250977
0.00250975
0.00254136
0.00250736
0.0025391
0.00253914
0.00250976
0.00250975
0.0025391
0.00250976
0.00250976
0.0025414
0.00250732
0.00253909
0.00250975
0.0025098
0.00250736
0.00250237
0.00246859
0.00250001
0.00250001
0.00247088
0.00247089
0.00250238
0.0024686
0.00250001
0.00249999
0.00247089
0.00247091
0.00250004
0.0024709
0.00247093
0.00250234
0.00246864
0.00250005
0.00247092
0.00247092
0.00246862
0.00246365
0.00243017
0.00246121
0.00246123
0.00243236
0.00243235
0.00246365
0.00243015
0.00246123
0.00246126
0.00243235
0.00243234
0.00246123
0.00243234
0.00243232
0.00246369
0.00243014
0.00246123
0.00243236
0.00243234
0.00243013
0.00242525
0.00239201
0.00242277
0.00242276
0.00239412
0.00239413
0.00242523
0.00239201
0.00242276
0.00242274
0.00239412
0.00239412
0.00242275
0.00239412
0.00239414
0.00242521
0.00239202
0.00242275
0.00239412
0.00239414
0.00239204
0.00238712
0.00235428
0.00238462
0.00238464
0.00235631
0.00235632
0.00238713
0.00235429
0.00238463
0.00238463
0.00235631
0.00235631
0.00238465
0.00235632
0.0023563
0.00238714
0.00235429
0.00238464
0.00235631
0.0023563
0.00235425
0.00234942
0.00231689
0.00234692
0.00234693
0.00231892
0.00231891
0.00234943
0.00231688
0.00234692
0.00234692
0.00231892
0.00231893
0.0023469
0.00231891
0.0023189
0.00234943
0.00231689
0.0023469
0.00231893
0.00231891
0.00231688
0.00231208
0.0022802
0.00230967
0.00230966
0.00228226
0.00228225
0.00231207
0.00228022
0.00230967
0.00230968
0.00228225
0.00228226
0.00230966
0.00228226
0.00228228
0.00231209
0.00228022
0.00230967
0.00228227
0.00228227
0.00228024
0.0022755
0.00224446
0.00227324
0.00227324
0.00224653
0.00224654
0.00227551
0.00224447
0.00227323
0.00227323
0.00224652
0.00224649
0.00227326
0.00224654
0.00224655
0.00227551
0.00224443
0.00227325
0.00224651
0.00224654
0.00224448
0.00223986
0.00220937
0.00223772
0.00223773
0.00221147
0.00221146
0.00223986
0.00220937
0.00223772
0.00223769
0.00221147
0.00221145
0.00223774
0.00221147
0.00221146
0.00223982
0.00220935
0.00223773
0.00221145
0.00221146
0.00220936
0.00220478
0.00217422
0.00220274
0.00220272
0.00217642
0.00217641
0.00220478
0.00217422
0.00220273
0.00220272
0.00217642
0.00217643
0.00220272
0.00217642
0.00217641
0.00220477
0.00217423
0.00220272
0.00217641
0.00217641
0.00217422
0.00216958
0.00213867
0.00216759
0.00216759
0.0021409
0.00214091
0.00216958
0.00213867
0.0021676
0.00216761
0.0021409
0.00214091
0.00216759
0.0021409
0.00214091
0.00216959
0.00213868
0.00216759
0.00214091
0.00214091
0.00213867
0.00213396
0.00210258
0.00213193
0.00213193
0.00210483
0.00210483
0.00213396
0.00210258
0.00213193
0.00213194
0.00210483
0.00210483
0.00213193
0.00210483
0.00210483
0.00213396
0.00210259
0.00213193
0.00210483
0.00210483
0.00210258
0.00209781
0.00206634
0.00209576
0.00209576
0.0020686
0.00206859
0.00209781
0.00206634
0.00209576
0.00209577
0.0020686
0.0020686
0.00209576
0.00206859
0.0020686
0.00209781
0.00206635
0.00209577
0.0020686
0.0020686
0.00206634
0.00206159
0.00203038
0.00205957
0.00205957
0.00203261
0.00203261
0.00206158
0.00203038
0.00205957
0.00205957
0.00203261
0.00203261
0.00205957
0.00203261
0.00203261
0.00206159
0.00203039
0.00205957
0.00203261
0.00203261
0.00203038
0.00202566
0.00199481
0.00202368
0.00202367
0.00199702
0.00199702
0.00202566
0.00199481
0.00202368
0.00202368
0.00199702
0.00199702
0.00202367
0.00199702
0.00199702
0.00202566
0.00199481
0.00202367
0.00199702
0.00199702
0.00199481
0.00199012
0.00195949
0.00198817
0.00198817
0.00196167
0.00196167
0.00199012
0.00195949
0.00198817
0.00198817
0.00196167
0.00196167
0.00198817
0.00196167
0.00196167
0.00199012
0.00195949
0.00198817
0.00196167
0.00196167
0.00195949
0.00195479
0.00192418
0.00195284
0.00195284
0.00192631
0.00192631
0.00195479
0.00192418
0.00195284
0.00195284
0.00192632
0.00192631
0.00195284
0.00192632
0.00192631
0.00195479
0.00192418
0.00195284
0.00192632
0.00192632
0.00192418
0.00191948
0.00188888
0.00191749
0.00191749
0.00189098
0.00189098
0.00191948
0.00188888
0.00191749
0.00191749
0.00189098
0.00189098
0.00191749
0.00189098
0.00189098
0.00191948
0.00188888
0.00191749
0.00189098
0.00189098
0.00188888
0.00188416
0.00185347
0.00188213
0.00188213
0.00185555
0.00185555
0.00188416
0.00185347
0.00188213
0.00188213
0.00185555
0.00185555
0.00188213
0.00185555
0.00185555
0.00188416
0.00185348
0.00188213
0.00185555
0.00185555
0.00185347
0.00184874
0.00181798
0.00184668
0.00184668
0.00182005
0.00182005
0.00184874
0.00181798
0.00184668
0.00184669
0.00182005
0.00182005
0.00184668
0.00182005
0.00182005
0.00184874
0.00181798
0.00184668
0.00182005
0.00182005
0.00181798
0.00181324
0.00178244
0.00181117
0.00181117
0.00178451
0.00178451
0.00181324
0.00178244
0.00181117
0.00181117
0.00178451
0.00178451
0.00181117
0.00178451
0.00178451
0.00181324
0.00178244
0.00181117
0.00178451
0.00178451
0.00178244
0.00177769
0.00174687
0.00177562
0.00177562
0.00174894
0.00174894
0.00177769
0.00174687
0.00177562
0.00177562
0.00174894
0.00174894
0.00177562
0.00174894
0.00174894
0.00177769
0.00174687
0.00177562
0.00174894
0.00174894
0.00174687
0.00174212
0.00171131
0.00174005
0.00174005
0.00171338
0.00171338
0.00174212
0.00171131
0.00174005
0.00174005
0.00171338
0.00171338
0.00174005
0.00171338
0.00171338
0.00174212
0.00171131
0.00174005
0.00171338
0.00171338
0.00171131
0.00170656
0.00167574
0.00170449
0.00170449
0.00167781
0.00167781
0.00170656
0.00167574
0.00170449
0.00170449
0.00167781
0.00167781
0.00170449
0.00167781
0.00167781
0.00170656
0.00167574
0.00170449
0.00167781
0.00167781
0.00167574
0.00167099
0.00164017
0.00166892
0.00166892
0.00164224
0.00164224
0.00167099
0.00164017
0.00166892
0.00166892
0.00164224
0.00164224
0.00166892
0.00164224
0.00164224
0.00167099
0.00164017
0.00166892
0.00164224
0.00164224
0.00164017
0.00163542
0.0016046
0.00163335
0.00163335
0.00160667
0.00160667
0.00163542
0.0016046
0.00163335
0.00163335
0.00160667
0.00160667
0.00163335
0.00160667
0.00160667
0.00163542
0.0016046
0.00163335
0.00160667
0.00160667
0.0016046
0.00159985
0.00156904
0.00159778
0.00159778
0.00157111
0.00157111
0.00159985
0.00156904
0.00159778
0.00159778
0.00157111
0.00157111
0.00159778
0.00157111
0.00157111
0.00159985
0.00156904
0.00159778
0.00157111
0.00157111
0.00156904
0.00156429
0.00153347
0.00156221
0.00156221
0.00153554
0.00153554
0.00156429
0.00153347
0.00156221
0.00156221
0.00153554
0.00153554
0.00156221
0.00153554
0.00153554
0.00156429
0.00153347
0.00156221
0.00153554
0.00153554
0.00153347
0.00152872
0.00149791
0.00152665
0.00152665
0.00149997
0.00149997
0.00152872
0.00149791
0.00152665
0.00152665
0.00149997
0.00149997
0.00152665
0.00149997
0.00149997
0.00152872
0.00149791
0.00152665
0.00149997
0.00149997
0.00149791
0.00149316
0.00146234
0.00149108
0.00149108
0.00146441
0.00146441
0.00149316
0.00146234
0.00149108
0.00149108
0.00146441
0.00146441
0.00149108
0.00146441
0.00146441
0.00149316
0.00146234
0.00149108
0.00146441
0.00146441
0.00146234
0.00145759
0.00142677
0.00145552
0.00145552
0.00142884
0.00142884
0.00145759
0.00142678
0.00145552
0.00145552
0.00142884
0.00142884
0.00145552
0.00142884
0.00142884
0.00145759
0.00142678
0.00145552
0.00142884
0.00142884
0.00142677
0.00142203
0.00139121
0.00141995
0.00141995
0.00139328
0.00139328
0.00142203
0.00139121
0.00141995
0.00141995
0.00139328
0.00139328
0.00141995
0.00139327
0.00139327
0.00142203
0.00139121
0.00141995
0.00139327
0.00139327
0.0013912
0.00138646
0.00135564
0.00138438
0.00138439
0.00135771
0.00135771
0.00138646
0.00135564
0.00138438
0.00138439
0.00135771
0.00135771
0.00138438
0.00135771
0.00135771
0.00138646
0.00135564
0.00138438
0.00135771
0.00135771
0.00135564
0.00135089
0.00132007
0.00134882
0.00134882
0.00132214
0.00132214
0.00135089
0.00132007
0.00134882
0.00134882
0.00132214
0.00132214
0.00134881
0.00132214
0.00132214
0.00135089
0.00132007
0.00134881
0.00132214
0.00132214
0.00132007
0.00131532
0.0012845
0.00131325
0.00131325
0.00128657
0.00128657
0.00131532
0.0012845
0.00131325
0.00131325
0.00128657
0.00128657
0.00131325
0.00128657
0.00128657
0.00131532
0.0012845
0.00131325
0.00128657
0.00128657
0.0012845
0.00127975
0.00124893
0.00127768
0.00127768
0.001251
0.001251
0.00127975
0.00124893
0.00127768
0.00127768
0.001251
0.001251
0.00127768
0.001251
0.001251
0.00127975
0.00124893
0.00127768
0.001251
0.001251
0.00124893
0.00124418
0.00121336
0.00124211
0.00124211
0.00121543
0.00121543
0.00124418
0.00121336
0.00124211
0.00124211
0.00121543
0.00121543
0.00124211
0.00121543
0.00121543
0.00124418
0.00121336
0.00124211
0.00121543
0.00121543
0.00121336
0.00120861
0.00117779
0.00120654
0.00120654
0.00117986
0.00117986
0.00120861
0.00117779
0.00120654
0.00120654
0.00117986
0.00117986
0.00120654
0.00117986
0.00117986
0.00120861
0.00117779
0.00120654
0.00117986
0.00117986
0.00117779
0.00117304
0.00114222
0.00117097
0.00117097
0.00114429
0.00114429
0.00117304
0.00114222
0.00117097
0.00117096
0.00114429
0.00114429
0.00117097
0.00114429
0.00114429
0.00117304
0.00114222
0.00117097
0.00114429
0.00114428
0.00114221
0.00113746
0.00110665
0.00113539
0.00113539
0.00110872
0.00110871
0.00113747
0.00110665
0.00113539
0.00113539
0.00110872
0.00110871
0.00113539
0.00110872
0.00110872
0.00113747
0.00110664
0.00113539
0.00110871
0.00110872
0.00110664
0.0011019
0.00107107
0.00109982
0.00109982
0.00107314
0.00107314
0.0011019
0.00107107
0.00109982
0.00109982
0.00107314
0.00107314
0.00109982
0.00107314
0.00107314
0.00110189
0.00107107
0.00109982
0.00107314
0.00107314
0.00107107
0.00106632
0.0010355
0.00106425
0.00106425
0.00103757
0.00103757
0.00106632
0.0010355
0.00106425
0.00106425
0.00103757
0.00103757
0.00106425
0.00103757
0.00103757
0.00106632
0.0010355
0.00106425
0.00103757
0.00103757
0.0010355
0.00103075
0.000999928
0.00102868
0.00102868
0.001002
0.001002
0.00103075
0.00099993
0.00102868
0.00102868
0.001002
0.001002
0.00102868
0.001002
0.001002
0.00103075
0.000999929
0.00102868
0.001002
0.001002
0.000999927
0.000995178
0.00096436
0.000993107
0.000993107
0.000966428
0.000966428
0.000995179
0.00096436
0.000993106
0.000993106
0.000966428
0.000966428
0.000993106
0.000966429
0.000966428
0.000995179
0.00096436
0.000993105
0.000966428
0.000966428
0.000964357
0.000959609
0.000928791
0.000957537
0.000957536
0.000930858
0.000930858
0.00095961
0.000928791
0.000957535
0.000957535
0.00093086
0.000930859
0.000957536
0.000930857
0.000930858
0.00095961
0.000928789
0.000957533
0.000930857
0.00093086
0.000928789
0.000924041
0.000893221
0.000921966
0.000921965
0.00089529
0.00089529
0.000924041
0.00089322
0.000921967
0.000921967
0.000895288
0.000895288
0.000921965
0.000895288
0.00089529
0.000924041
0.000893218
0.000921966
0.000895287
0.000895289
0.000893221
0.000888473
0.00085765
0.000886398
0.000886398
0.000859719
0.000859719
0.000888471
0.000857649
0.000886399
0.000886398
0.000859718
0.000859719
0.000886396
0.000859721
0.000859722
0.000888469
0.000857651
0.000886398
0.000859722
0.000859721
0.000857653
0.000852902
0.000822081
0.000850829
0.000850828
0.000824149
0.000824151
0.0008529
0.000822083
0.000850827
0.000850827
0.00082415
0.000824152
0.000850829
0.000824153
0.000824152
0.0008529
0.000822083
0.000850828
0.000824153
0.000824152
0.000822083
0.000817332
0.000786511
0.000815257
0.000815258
0.000788582
0.000788583
0.000817332
0.000786514
0.000815257
0.000815258
0.000788582
0.000788582
0.00081526
0.000788583
0.000788582
0.000817333
0.000786513
0.00081526
0.000788582
0.000788582
0.000786513
0.000781761
0.000750943
0.000779688
0.00077969
0.000753014
0.000753012
0.000781764
0.000750944
0.000779688
0.000779689
0.000753014
0.000753013
0.00077969
0.000753013
0.000753013
0.000781763
0.000750942
0.000779691
0.000753011
0.000753011
0.000750943
0.000746193
0.000715374
0.000744121
0.000744121
0.000717442
0.000717441
0.000746195
0.000715372
0.000744121
0.00074412
0.000717442
0.000717442
0.000744122
0.00071744
0.000717441
0.000746194
0.000715372
0.000744121
0.00071744
0.00071744
0.000715372
0.000710626
0.000679802
0.000708552
0.000708551
0.00068187
0.00068187
0.000710624
0.000679801
0.000708552
0.000708551
0.00068187
0.00068187
0.000708551
0.00068187
0.00068187
0.000710624
0.000679801
0.00070855
0.00068187
0.00068187
0.000679801
0.000675053
0.000644231
0.00067298
0.000672979
0.000646301
0.0006463
0.000675053
0.000644231
0.000672979
0.000672979
0.000646301
0.000646301
0.000672979
0.000646302
0.000646302
0.000675053
0.000644231
0.000672978
0.000646301
0.000646302
0.000644232
0.000639481
0.000608662
0.000637408
0.000637408
0.000610733
0.000610731
0.000639482
0.000608662
0.000637408
0.000637408
0.000610732
0.000610732
0.000637408
0.000610732
0.000610733
0.000639482
0.000608661
0.000637408
0.000610731
0.000610733
0.000608662
0.000603911
0.000573092
0.000601838
0.000601837
0.000575163
0.000575162
0.000603911
0.000573091
0.000601838
0.000601838
0.000575163
0.000575162
0.000601839
0.000575162
0.000575162
0.000603911
0.000573092
0.000601838
0.000575163
0.000575162
0.000573092
0.000568341
0.000537521
0.000566268
0.000566267
0.000539592
0.000539592
0.000568341
0.000537521
0.000566268
0.000566269
0.000539592
0.000539592
0.00056627
0.000539591
0.00053959
0.000568341
0.000537522
0.000566269
0.000539592
0.000539591
0.000537521
0.00053277
0.000501951
0.000530698
0.000530697
0.000504022
0.000504022
0.00053277
0.000501952
0.000530699
0.000530698
0.000504021
0.000504022
0.000530699
0.000504022
0.00050402
0.000532771
0.00050195
0.000530699
0.00050402
0.00050402
0.000501951
0.0004972
0.000466382
0.000495128
0.000495128
0.000468452
0.000468452
0.0004972
0.000466382
0.000495129
0.000495128
0.000468452
0.000468452
0.000495128
0.000468452
0.000468451
0.0004972
0.000466381
0.000495129
0.000468452
0.000468451
0.000466381
0.000461631
0.000430813
0.000459558
0.000459558
0.000432882
0.000432882
0.00046163
0.000430812
0.00045956
0.000459559
0.000432882
0.000432882
0.000459559
0.000432882
0.000432882
0.00046163
0.000430813
0.000459558
0.000432883
0.000432882
0.000430812
0.000426062
0.000395244
0.000423989
0.000423988
0.000397313
0.000397313
0.00042606
0.000395243
0.00042399
0.000423989
0.000397313
0.000397313
0.00042399
0.000397312
0.000397312
0.000426062
0.000395245
0.00042399
0.000397313
0.000397311
0.000395243
0.000390493
0.000359675
0.000388421
0.000388419
0.000361744
0.000361744
0.000390491
0.000359675
0.00038842
0.000388421
0.000361744
0.000361743
0.000388421
0.000361743
0.000361743
0.000390494
0.000359674
0.000388421
0.000361742
0.000361742
0.000359674
0.000354923
0.000324105
0.000352852
0.000352851
0.000326173
0.000326174
0.000354922
0.000324106
0.000352852
0.000352853
0.000326173
0.000326173
0.000352851
0.000326174
0.000326173
0.000354924
0.000324105
0.00035285
0.000326173
0.000326173
0.000324104
0.000319352
0.000288535
0.000317283
0.000317283
0.000290603
0.000290604
0.000319352
0.000288536
0.000317282
0.000317283
0.000290603
0.000290603
0.000317282
0.000290603
0.000290603
0.000319352
0.000288536
0.000317281
0.000290604
0.000290603
0.000288535
0.00028378
0.000252967
0.000281713
0.000281713
0.000255034
0.000255034
0.000283781
0.000252968
0.000281711
0.000281712
0.000255034
0.000255034
0.000281712
0.000255034
0.000255034
0.000283781
0.000252966
0.000281714
0.000255033
0.000255031
0.000252967
0.000248209
0.000217399
0.000246143
0.000246143
0.000219464
0.000219464
0.000248209
0.000217399
0.000246143
0.000246143
0.000219464
0.000219464
0.000246144
0.000219464
0.000219463
0.000248209
0.000217398
0.000246144
0.000219464
0.000219462
0.000217399
0.000212636
0.000181832
0.000210574
0.000210574
0.000183895
0.000183894
0.000212635
0.000181832
0.000210576
0.000210576
0.000183892
0.000183892
0.000210576
0.000183893
0.000183892
0.000212636
0.000181832
0.000210575
0.000183894
0.000183892
0.000181831
0.00017706
0.000146264
0.000175007
0.000175006
0.00014832
0.000148321
0.000177059
0.000146264
0.000175006
0.000175006
0.00014832
0.00014832
0.000175007
0.000148321
0.00014832
0.00017706
0.000146265
0.000175005
0.000148322
0.00014832
0.000146264
0.000141477
0.000110693
0.000139435
0.000139435
0.000112743
0.000112743
0.000141476
0.000110693
0.000139433
0.000139434
0.000112744
0.000112743
0.000139435
0.000112744
0.000112743
0.000141478
0.000110693
0.000139435
0.000112742
0.000112743
0.000110693
0.00010588
7.51159e-05
0.000103857
0.000103857
7.71571e-05
7.71571e-05
0.000105881
7.51163e-05
0.000103858
0.000103858
7.71563e-05
7.71559e-05
0.000103859
7.7156e-05
7.7154e-05
0.000105881
7.51153e-05
0.000103858
7.71559e-05
7.71556e-05
7.51157e-05
7.02698e-05
3.96586e-05
6.82764e-05
6.82762e-05
4.17313e-05
4.17324e-05
7.02696e-05
3.96599e-05
6.82762e-05
6.82754e-05
4.17294e-05
4.17286e-05
6.82752e-05
4.17312e-05
4.17284e-05
7.02692e-05
3.9657e-05
6.82745e-05
4.17291e-05
4.17281e-05
3.96571e-05
3.48674e-05
7.32234e-06
3.3149e-05
3.31498e-05
9.98783e-06
9.98709e-06
3.48677e-05
7.32239e-06
3.31476e-05
3.31456e-05
9.9875e-06
9.98318e-06
3.31438e-05
9.98711e-06
9.98229e-06
3.48654e-05
7.31928e-06
3.31449e-05
9.98489e-06
9.98454e-06
7.31848e-06
4.17437e-06
4.66961e-06
4.66636e-06
4.17516e-06
4.66252e-06
4.66198e-06
4.91021e-06
4.90905e-06
4.90878e-06
4.66454e-06
4.17293e-06
4.66325e-06
0.00353453
0.00353778
0.00353641
0.00353641
0.00356073
0.00353854
0.00356646
0.00353782
0.00356074
0.00353861
0.00353783
0.00356652
0.00354842
0.00356958
0.00356966
0.0035057
0.00351993
0.0035236
0.00349798
0.00349658
0.00350134
0.00350573
0.00351995
0.00352358
0.00349802
0.00352209
0.00352208
0.00352209
0.00349489
0.00349489
0.00349489
0.00349488
0.00350537
0.00351797
0.00352264
0.00351304
0.00352487
0.00350255
0.00351325
0.00349682
0.00350154
0.00350538
0.00352263
0.00351787
0.00351301
0.00352487
0.00351325
0.00350251
0.00352374
0.00352379
0.0035101
0.00350244
0.00350252
0.00347869
0.00349259
0.00349211
0.00347681
0.00348978
0.0034758
0.00347879
0.0034925
0.00349207
0.00347683
0.00348589
0.00348595
0.00348595
0.00345877
0.00345874
0.00345879
0.0034588
0.00347631
0.00349118
0.00348472
0.00347576
0.00348966
0.00347705
0.00347581
0.0034897
0.00347592
0.00347631
0.00348472
0.00349118
0.0034758
0.00348967
0.00347578
0.00347696
0.00349281
0.00349286
0.00347448
0.0034776
0.0034776
0.00343657
0.00345144
0.00345214
0.00343534
0.00345038
0.00343455
0.00343665
0.00345138
0.00345218
0.00343544
0.00344885
0.00344886
0.00344887
0.00341599
0.00341599
0.003416
0.00341599
0.00343533
0.00345104
0.00344718
0.00343691
0.0034501
0.00343589
0.00343683
0.00345023
0.00343439
0.00343532
0.00344717
0.00345099
0.00343696
0.0034501
0.00343683
0.00343582
0.00345169
0.00345171
0.00343412
0.00343571
0.00343569
0.00338994
0.00340668
0.00340813
0.00338864
0.003406
0.0033881
0.00339003
0.00340666
0.00340805
0.00338866
0.00340425
0.00340424
0.00340424
0.00336811
0.00336811
0.0033681
0.00336813
0.00338895
0.00340655
0.00340283
0.00339098
0.00340607
0.00338931
0.00339092
0.00340601
0.00338807
0.00338895
0.00340281
0.00340653
0.00339098
0.00340609
0.00339094
0.00338933
0.00340679
0.00340692
0.00338781
0.00338872
0.00338852
0.00334121
0.00335818
0.00335941
0.00334003
0.00335779
0.00333964
0.00334117
0.0033582
0.00335948
0.00334001
0.00335601
0.003356
0.00335603
0.0033198
0.0033198
0.00331979
0.00331978
0.00334054
0.00335822
0.00335465
0.00334255
0.00335794
0.00334068
0.00334258
0.00335782
0.00333963
0.00334054
0.00335465
0.00335823
0.00334258
0.00335796
0.0033426
0.00334067
0.00335835
0.00335849
0.00333949
0.00334011
0.00334015
0.00329257
0.0033097
0.00331059
0.00329171
0.00330945
0.00329146
0.00329255
0.00330971
0.00331064
0.00329171
0.00330777
0.00330776
0.00330775
0.00327177
0.00327176
0.00327176
0.00327175
0.00329231
0.00330977