/*--------------------------------*- C++ -*----------------------------------*\
| =========                 |                                                 |
| \\      /  F ield         | OpenFOAM: The Open Source CFD Toolbox           |
|  \\    /   O peration     | Version:  v2012                                 |
|   \\  /    A nd           | Website:  www.openfoam.com                      |
|    \\/     M anipulation  |                                                 |
\*---------------------------------------------------------------------------*/
FoamFile
{
    version     2.0;
    format      ascii;
    class       volScalarField;
    location    "125";
    object      epsilon;
}
// * * * * * * * * * * * * * * * * * * * * * * * * * * * * * * * * * * * * * //

dimensions      [0 2 -3 0 0 0 0];


internalField   nonuniform List<scalar> 
171728
(
4.95567e-07
4.9733e-07
4.9733e-07
4.99575e-07
4.45573e-07
4.53735e-07
4.53737e-07
4.6371e-07
4.03752e-07
4.18513e-07
4.18517e-07
4.39411e-07
3.68363e-07
3.88552e-07
3.88558e-07
4.17667e-07
3.38015e-07
3.62102e-07
3.6211e-07
3.96081e-07
3.11646e-07
3.38273e-07
3.38281e-07
3.74581e-07
2.88473e-07
3.16638e-07
3.16646e-07
3.5371e-07
2.67923e-07
2.97021e-07
2.97031e-07
3.34148e-07
2.49579e-07
2.7937e-07
2.79379e-07
3.16484e-07
2.33137e-07
2.63679e-07
2.63688e-07
3.01161e-07
2.18365e-07
2.49955e-07
2.49964e-07
2.88493e-07
2.0509e-07
2.38198e-07
2.38208e-07
2.78695e-07
1.93171e-07
2.2841e-07
2.28421e-07
2.71876e-07
1.82497e-07
2.206e-07
2.20611e-07
2.68162e-07
1.72979e-07
2.14772e-07
2.14785e-07
2.67642e-07
1.64541e-07
2.10937e-07
2.10953e-07
2.70494e-07
1.57122e-07
2.09107e-07
2.09126e-07
2.76699e-07
1.50667e-07
2.09296e-07
2.09319e-07
2.86285e-07
1.45139e-07
2.11551e-07
2.11578e-07
2.99236e-07
1.40491e-07
2.15886e-07
2.15917e-07
3.15618e-07
1.36708e-07
2.22334e-07
2.22367e-07
3.35372e-07
1.33742e-07
2.30871e-07
2.30908e-07
3.58384e-07
1.31612e-07
2.41537e-07
2.41577e-07
3.84493e-07
1.3022e-07
2.54183e-07
2.54226e-07
4.13234e-07
1.2962e-07
2.68556e-07
2.68603e-07
4.43836e-07
1.2938e-07
2.83711e-07
2.83761e-07
4.74505e-07
1.29507e-07
2.9826e-07
2.9831e-07
5.01464e-07
1.29066e-07
3.08611e-07
3.08669e-07
5.19607e-07
1.26695e-07
3.11717e-07
3.11789e-07
5.26245e-07
1.24297e-07
3.11713e-07
3.11792e-07
5.27098e-07
1.23305e-07
3.11942e-07
3.12024e-07
5.26943e-07
1.23211e-07
3.12543e-07
3.12623e-07
5.27491e-07
1.23296e-07
3.12902e-07
3.12982e-07
5.27862e-07
1.23352e-07
3.13032e-07
3.13111e-07
5.28035e-07
1.23368e-07
3.13058e-07
3.13137e-07
5.2802e-07
1.23372e-07
3.13063e-07
3.13143e-07
5.28031e-07
1.23373e-07
3.13066e-07
3.13146e-07
5.28034e-07
1.23374e-07
3.13068e-07
3.13147e-07
5.28036e-07
1.23375e-07
3.13069e-07
3.13149e-07
5.28045e-07
1.23376e-07
3.13071e-07
3.1315e-07
5.28028e-07
1.23377e-07
3.13073e-07
3.13152e-07
5.2805e-07
1.23378e-07
3.13072e-07
3.13153e-07
5.28045e-07
1.23378e-07
3.13071e-07
3.13154e-07
5.28038e-07
1.23378e-07
3.13071e-07
3.13155e-07
5.28031e-07
1.23378e-07
3.1307e-07
3.13155e-07
5.28021e-07
1.23378e-07
3.1307e-07
3.13155e-07
5.28147e-07
1.23378e-07
3.1307e-07
3.13154e-07
5.28118e-07
1.23361e-07
3.1293e-07
3.13015e-07
5.27851e-07
1.23365e-07
3.12956e-07
3.13041e-07
5.27663e-07
1.23369e-07
3.12978e-07
3.13062e-07
5.27755e-07
1.23372e-07
3.12992e-07
3.13075e-07
5.27924e-07
1.23375e-07
3.13007e-07
3.13089e-07
5.28071e-07
1.23378e-07
3.13015e-07
3.13098e-07
5.28099e-07
1.23381e-07
3.13024e-07
3.13107e-07
5.28006e-07
1.23383e-07
3.13034e-07
3.13117e-07
5.27865e-07
1.23387e-07
3.13049e-07
3.1313e-07
5.27824e-07
1.2339e-07
3.13059e-07
3.13141e-07
5.2796e-07
1.23393e-07
3.13066e-07
3.13148e-07
5.28084e-07
1.23395e-07
3.13072e-07
3.13154e-07
5.2807e-07
1.23397e-07
3.13077e-07
3.13159e-07
5.28016e-07
1.23398e-07
3.13082e-07
3.13162e-07
5.28037e-07
1.234e-07
3.13086e-07
3.13166e-07
5.2807e-07
1.23402e-07
3.13089e-07
3.13169e-07
5.28089e-07
1.23403e-07
3.13093e-07
3.13172e-07
5.28085e-07
1.23405e-07
3.13095e-07
3.13175e-07
5.28079e-07
1.23406e-07
3.13097e-07
3.13177e-07
5.28092e-07
1.23407e-07
3.13098e-07
3.13178e-07
5.28096e-07
1.23408e-07
3.13098e-07
3.13179e-07
5.28074e-07
1.23409e-07
3.13098e-07
3.13178e-07
5.2807e-07
1.23409e-07
3.13097e-07
3.13178e-07
5.28049e-07
1.23409e-07
3.13097e-07
3.13177e-07
5.28044e-07
1.23409e-07
3.13096e-07
3.13175e-07
5.28077e-07
1.23409e-07
3.13095e-07
3.13175e-07
5.28066e-07
1.23409e-07
3.13096e-07
3.13176e-07
5.28012e-07
1.2341e-07
3.13104e-07
3.13184e-07
5.27993e-07
1.2341e-07
3.13115e-07
3.13193e-07
5.28026e-07
1.23408e-07
3.13115e-07
3.13194e-07
5.28061e-07
1.23392e-07
3.13097e-07
3.13177e-07
5.28069e-07
1.23383e-07
3.1308e-07
3.13159e-07
5.28072e-07
1.23381e-07
3.13073e-07
3.13153e-07
5.28076e-07
1.2338e-07
3.13071e-07
3.1315e-07
5.28071e-07
1.2338e-07
3.1307e-07
3.13149e-07
5.28067e-07
1.23379e-07
3.13069e-07
3.13148e-07
5.28073e-07
1.23379e-07
3.13067e-07
3.13146e-07
5.28051e-07
1.23379e-07
3.13066e-07
3.13145e-07
5.28039e-07
1.23379e-07
3.13065e-07
3.13144e-07
5.28028e-07
1.23379e-07
3.13063e-07
3.13142e-07
5.28031e-07
1.23378e-07
3.13061e-07
3.13139e-07
5.2804e-07
1.23378e-07
3.13057e-07
3.13135e-07
5.28023e-07
1.23378e-07
3.1305e-07
3.13128e-07
5.28033e-07
1.23377e-07
3.13035e-07
3.13113e-07
5.2803e-07
1.23377e-07
3.13007e-07
3.13085e-07
5.27993e-07
1.23371e-07
3.12947e-07
3.13024e-07
5.2793e-07
1.23267e-07
3.12863e-07
3.12936e-07
5.27648e-07
1.18455e-07
2.88929e-07
2.88952e-07
4.94029e-07
5.06417e-07
5.05584e-07
5.05582e-07
5.06417e-07
5.05583e-07
5.05582e-07
5.09649e-07
5.09649e-07
5.09649e-07
5.09649e-07
5.05584e-07
5.05584e-07
5.06418e-07
5.05584e-07
5.05583e-07
5.06418e-07
4.99575e-07
4.67237e-07
4.97331e-07
4.97335e-07
4.63713e-07
4.63721e-07
4.99575e-07
4.67235e-07
4.97335e-07
4.97336e-07
4.63718e-07
4.63724e-07
4.97332e-07
4.63709e-07
4.63714e-07
4.99575e-07
4.67241e-07
4.97334e-07
4.63711e-07
4.63719e-07
4.6724e-07
4.63709e-07
4.41426e-07
4.5374e-07
4.53748e-07
4.26739e-07
4.26747e-07
4.63708e-07
4.4142e-07
4.53744e-07
4.53751e-07
4.26739e-07
4.26751e-07
4.53741e-07
4.26729e-07
4.26741e-07
4.63711e-07
4.41431e-07
4.53744e-07
4.26734e-07
4.26741e-07
4.41429e-07
4.39407e-07
4.19283e-07
4.18522e-07
4.1853e-07
3.95676e-07
3.95682e-07
4.39405e-07
4.19275e-07
4.18522e-07
4.18535e-07
3.95672e-07
3.95689e-07
4.18525e-07
3.95663e-07
3.95679e-07
4.39413e-07
4.19289e-07
4.18523e-07
3.95669e-07
3.95673e-07
4.19287e-07
4.17662e-07
3.97645e-07
3.88566e-07
3.88571e-07
3.68461e-07
3.68466e-07
4.17656e-07
3.97636e-07
3.8856e-07
3.88578e-07
3.68452e-07
3.68473e-07
3.88569e-07
3.68444e-07
3.68464e-07
4.17669e-07
3.97651e-07
3.88562e-07
3.68452e-07
3.68454e-07
3.97649e-07
3.96076e-07
3.76086e-07
3.6212e-07
3.62124e-07
3.44033e-07
3.44036e-07
3.96069e-07
3.76076e-07
3.62109e-07
3.62131e-07
3.4402e-07
3.44043e-07
3.62123e-07
3.44013e-07
3.44036e-07
3.96082e-07
3.76091e-07
3.62111e-07
3.44022e-07
3.44021e-07
3.7609e-07
3.74575e-07
3.55112e-07
3.38293e-07
3.38295e-07
3.21875e-07
3.21876e-07
3.74568e-07
3.55101e-07
3.38279e-07
3.38303e-07
3.21858e-07
3.21884e-07
3.38296e-07
3.21853e-07
3.21877e-07
3.74582e-07
3.55117e-07
3.3828e-07
3.21862e-07
3.2186e-07
3.55116e-07
3.53705e-07
3.35395e-07
3.16659e-07
3.16661e-07
3.01763e-07
3.01764e-07
3.53697e-07
3.35385e-07
3.16642e-07
3.16668e-07
3.01745e-07
3.01772e-07
3.16662e-07
3.0174e-07
3.01766e-07
3.5371e-07
3.35401e-07
3.16644e-07
3.0175e-07
3.01746e-07
3.35401e-07
3.34142e-07
3.17533e-07
2.97044e-07
2.97045e-07
2.83623e-07
2.83624e-07
3.34134e-07
3.17523e-07
2.97025e-07
2.97052e-07
2.83603e-07
2.83631e-07
2.97047e-07
2.836e-07
2.83625e-07
3.34148e-07
3.1754e-07
2.97027e-07
2.83609e-07
2.83604e-07
3.17539e-07
3.16478e-07
3.01975e-07
2.79394e-07
2.79394e-07
2.67443e-07
2.67443e-07
3.1647e-07
3.01965e-07
2.79374e-07
2.79402e-07
2.67421e-07
2.6745e-07
2.79396e-07
2.67417e-07
2.67444e-07
3.16485e-07
3.01982e-07
2.79375e-07
2.67427e-07
2.67422e-07
3.01981e-07
3.01155e-07
2.8904e-07
2.63704e-07
2.63704e-07
2.53227e-07
2.53227e-07
3.01147e-07
2.8903e-07
2.63682e-07
2.63711e-07
2.53205e-07
2.53234e-07
2.63705e-07
2.53201e-07
2.53228e-07
3.01162e-07
2.89048e-07
2.63683e-07
2.5321e-07
2.53205e-07
2.89046e-07
2.88486e-07
2.7895e-07
2.49981e-07
2.49981e-07
2.40981e-07
2.40981e-07
2.88477e-07
2.78938e-07
2.49958e-07
2.49989e-07
2.40957e-07
2.40988e-07
2.49982e-07
2.40952e-07
2.40981e-07
2.88493e-07
2.78957e-07
2.49959e-07
2.40962e-07
2.40957e-07
2.78956e-07
2.78688e-07
2.71829e-07
2.38226e-07
2.38227e-07
2.30703e-07
2.30703e-07
2.78678e-07
2.71817e-07
2.38203e-07
2.38235e-07
2.30677e-07
2.30711e-07
2.38227e-07
2.30671e-07
2.30702e-07
2.78696e-07
2.71838e-07
2.38203e-07
2.30682e-07
2.30677e-07
2.71836e-07
2.71868e-07
2.67862e-07
2.2844e-07
2.28443e-07
2.22399e-07
2.22401e-07
2.71858e-07
2.67848e-07
2.28416e-07
2.28451e-07
2.22372e-07
2.22409e-07
2.28441e-07
2.22364e-07
2.22398e-07
2.71877e-07
2.67872e-07
2.28417e-07
2.22376e-07
2.22372e-07
2.6787e-07
2.68154e-07
2.66979e-07
2.20632e-07
2.20637e-07
2.16077e-07
2.16081e-07
2.68142e-07
2.66964e-07
2.20607e-07
2.20645e-07
2.1605e-07
2.1609e-07
2.20633e-07
2.16039e-07
2.16076e-07
2.68164e-07
2.66991e-07
2.20608e-07
2.16051e-07
2.16049e-07
2.66989e-07
2.67633e-07
2.69154e-07
2.14809e-07
2.14815e-07
2.11745e-07
2.11753e-07
2.67619e-07
2.69137e-07
2.14783e-07
2.14824e-07
2.11718e-07
2.11762e-07
2.14809e-07
2.11702e-07
2.11743e-07
2.67644e-07
2.69167e-07
2.14782e-07
2.11717e-07
2.11715e-07
2.69165e-07
2.70484e-07
2.74664e-07
2.10981e-07
2.10989e-07
2.09414e-07
2.09423e-07
2.70467e-07
2.74642e-07
2.10954e-07
2.10999e-07
2.09387e-07
2.09435e-07
2.10978e-07
2.09363e-07
2.09409e-07
2.70495e-07
2.74678e-07
2.1095e-07
2.09382e-07
2.0938e-07
2.74676e-07
2.76688e-07
2.83549e-07
2.09158e-07
2.09167e-07
2.09129e-07
2.09137e-07
2.76666e-07
2.83524e-07
2.09131e-07
2.0918e-07
2.09101e-07
2.09154e-07
2.09153e-07
2.09071e-07
2.09122e-07
2.76701e-07
2.83567e-07
2.09124e-07
2.09093e-07
2.09092e-07
2.83563e-07
2.86275e-07
2.95817e-07
2.09355e-07
2.09364e-07
2.10852e-07
2.10859e-07
2.86247e-07
2.95787e-07
2.09327e-07
2.09382e-07
2.10823e-07
2.10882e-07
2.09347e-07
2.10786e-07
2.10842e-07
2.86288e-07
2.95836e-07
2.09318e-07
2.10811e-07
2.10812e-07
2.95832e-07
2.99223e-07
3.11507e-07
2.11618e-07
2.11628e-07
2.14674e-07
2.14684e-07
2.99192e-07
3.11473e-07
2.1159e-07
2.1165e-07
2.14643e-07
2.14709e-07
2.11609e-07
2.14598e-07
2.14662e-07
2.99239e-07
3.11529e-07
2.11579e-07
2.14628e-07
2.14631e-07
3.11524e-07
3.15602e-07
3.30568e-07
2.15961e-07
2.15975e-07
2.20599e-07
2.2062e-07
3.15568e-07
3.30531e-07
2.15932e-07
2.15999e-07
2.2057e-07
2.20645e-07
2.15951e-07
2.2052e-07
2.20591e-07
3.15622e-07
3.30595e-07
2.15919e-07
2.20553e-07
2.20559e-07
3.30588e-07
3.35352e-07
3.5291e-07
2.22411e-07
2.22436e-07
2.28613e-07
2.28647e-07
3.35315e-07
3.5287e-07
2.22384e-07
2.22461e-07
2.28586e-07
2.28673e-07
2.22405e-07
2.28534e-07
2.28611e-07
3.35377e-07
3.52944e-07
2.22372e-07
2.28569e-07
2.28577e-07
3.52936e-07
3.58361e-07
3.78374e-07
2.30951e-07
2.30987e-07
2.38779e-07
2.38822e-07
3.58322e-07
3.78332e-07
2.30925e-07
2.31013e-07
2.38752e-07
2.38849e-07
2.30949e-07
2.38695e-07
2.3878e-07
3.5839e-07
3.78412e-07
2.30914e-07
2.38734e-07
2.38744e-07
3.78404e-07
3.84466e-07
4.0655e-07
2.41622e-07
2.41667e-07
2.50905e-07
2.50956e-07
3.84424e-07
4.06504e-07
2.41595e-07
2.41694e-07
2.50877e-07
2.50986e-07
2.41623e-07
2.50815e-07
2.50909e-07
3.84498e-07
4.06592e-07
2.41586e-07
2.50857e-07
2.5087e-07
4.06585e-07
4.13202e-07
4.36827e-07
2.54273e-07
2.54326e-07
2.6496e-07
2.65017e-07
4.13158e-07
4.36778e-07
2.54245e-07
2.54356e-07
2.64928e-07
2.65048e-07
2.54277e-07
2.64862e-07
2.64965e-07
4.13239e-07
4.36875e-07
2.5424e-07
2.64909e-07
2.64929e-07
4.3687e-07
4.43797e-07
4.67445e-07
2.68655e-07
2.68713e-07
2.80004e-07
2.80068e-07
4.4375e-07
4.67394e-07
2.68622e-07
2.68744e-07
2.79969e-07
2.80099e-07
2.6866e-07
2.799e-07
2.80012e-07
4.43838e-07
4.67495e-07
2.68623e-07
2.79948e-07
2.79974e-07
4.67493e-07
4.74461e-07
4.95392e-07
2.83816e-07
2.83881e-07
2.94926e-07
2.94992e-07
4.74412e-07
4.95339e-07
2.8378e-07
2.83912e-07
2.94882e-07
2.95027e-07
2.83825e-07
2.94816e-07
2.94935e-07
4.74504e-07
4.95457e-07
2.83786e-07
2.94866e-07
2.94893e-07
4.9545e-07
5.01409e-07
5.15433e-07
2.98368e-07
2.98434e-07
3.06817e-07
3.06884e-07
5.0136e-07
5.15385e-07
2.98322e-07
2.98472e-07
3.06768e-07
3.06928e-07
2.98378e-07
3.06708e-07
3.06833e-07
5.01468e-07
5.15507e-07
2.98334e-07
3.06761e-07
3.06783e-07
5.15496e-07
5.19543e-07
5.23976e-07
3.08723e-07
3.08791e-07
3.11574e-07
3.11644e-07
5.19495e-07
5.23916e-07
3.08675e-07
3.08832e-07
3.11529e-07
3.11675e-07
3.08741e-07
3.11452e-07
3.11597e-07
5.19611e-07
5.24038e-07
3.0869e-07
3.11522e-07
3.11547e-07
5.24043e-07
5.26176e-07
5.25412e-07
3.11839e-07
3.11909e-07
3.11878e-07
3.1195e-07
5.26115e-07
5.25342e-07
3.11796e-07
3.11938e-07
3.11839e-07
3.11971e-07
3.11863e-07
3.11751e-07
3.11905e-07
5.26228e-07
5.25458e-07
3.11813e-07
3.11829e-07
3.11858e-07
5.25475e-07
5.27033e-07
5.25027e-07
3.11839e-07
3.11912e-07
3.11925e-07
3.12001e-07
5.26962e-07
5.24956e-07
3.11802e-07
3.11931e-07
3.11889e-07
3.12015e-07
3.11868e-07
3.11796e-07
3.11956e-07
5.2707e-07
5.25074e-07
3.11821e-07
3.11877e-07
3.1191e-07
5.25094e-07
5.26874e-07
5.25678e-07
3.12068e-07
3.12138e-07
3.12529e-07
3.12606e-07
5.26804e-07
5.25605e-07
3.12033e-07
3.12157e-07
3.12493e-07
3.12618e-07
3.12099e-07
3.12399e-07
3.12559e-07
5.26911e-07
5.25719e-07
3.12053e-07
3.12479e-07
3.12513e-07
5.2574e-07
5.2743e-07
5.26071e-07
3.12668e-07
3.12743e-07
3.12967e-07
3.13045e-07
5.27359e-07
5.25994e-07
3.12634e-07
3.12758e-07
3.12932e-07
3.13057e-07
3.12698e-07
3.12838e-07
3.12997e-07
5.27463e-07
5.26111e-07
3.12653e-07
3.12917e-07
3.12951e-07
5.26133e-07
5.27799e-07
5.26254e-07
3.13028e-07
3.13107e-07
3.1314e-07
3.13221e-07
5.27726e-07
5.26177e-07
3.12993e-07
3.13118e-07
3.13106e-07
3.13231e-07
3.13059e-07
3.13013e-07
3.13172e-07
5.27833e-07
5.26295e-07
3.13012e-07
3.13092e-07
3.13125e-07
5.26316e-07
5.27972e-07
5.26257e-07
3.13158e-07
3.13239e-07
3.13181e-07
3.13267e-07
5.27898e-07
5.2618e-07
3.13124e-07
3.13249e-07
3.13149e-07
3.13274e-07
3.1319e-07
3.13056e-07
3.13215e-07
5.28006e-07
5.26299e-07
3.13143e-07
3.13135e-07
3.13168e-07
5.2632e-07
5.27957e-07
5.26258e-07
3.13181e-07
3.13267e-07
3.13187e-07
3.13272e-07
5.27883e-07
5.2618e-07
3.13149e-07
3.13274e-07
3.13155e-07
3.1328e-07
3.13215e-07
3.13061e-07
3.1322e-07
5.27992e-07
5.26299e-07
3.13168e-07
3.13141e-07
3.13174e-07
5.2632e-07
5.27968e-07
5.26268e-07
3.13187e-07
3.13272e-07
3.1319e-07
3.13276e-07
5.27893e-07
5.2619e-07
3.13155e-07
3.1328e-07
3.13159e-07
3.13284e-07
3.1322e-07
3.13065e-07
3.13224e-07
5.28003e-07
5.2631e-07
3.13174e-07
3.13144e-07
3.13177e-07
5.26331e-07
5.27971e-07
5.26268e-07
3.13189e-07
3.13276e-07
3.13191e-07
3.13278e-07
5.27896e-07
5.2619e-07
3.13159e-07
3.13283e-07
3.13161e-07
3.13285e-07
3.13224e-07
3.13067e-07
3.13226e-07
5.28006e-07
5.2631e-07
3.13176e-07
3.13146e-07
3.13179e-07
5.26331e-07
5.27973e-07
5.26273e-07
3.1319e-07
3.13278e-07
3.13192e-07
3.13281e-07
5.27898e-07
5.26195e-07
3.13161e-07
3.13285e-07
3.13163e-07
3.13287e-07
3.13225e-07
3.13069e-07
3.13228e-07
5.28008e-07
5.26315e-07
3.13178e-07
3.13148e-07
3.13181e-07
5.26337e-07
5.27981e-07
5.26258e-07
3.13192e-07
3.1328e-07
3.13193e-07
3.13282e-07
5.27907e-07
5.26181e-07
3.13162e-07
3.13287e-07
3.13164e-07
3.13289e-07
3.13227e-07
3.1307e-07
3.13229e-07
5.28016e-07
5.26301e-07
3.1318e-07
3.13149e-07
3.13182e-07
5.26323e-07
5.27963e-07
5.26289e-07
3.13192e-07
3.13282e-07
3.13193e-07
3.13283e-07
5.27888e-07
5.26213e-07
3.13164e-07
3.13288e-07
3.13166e-07
3.1329e-07
3.13228e-07
3.13071e-07
3.13231e-07
5.27999e-07
5.26329e-07
3.13182e-07
3.13151e-07
3.13184e-07
5.2635e-07
5.27983e-07
5.2627e-07
3.13193e-07
3.1328e-07
3.13194e-07
3.13281e-07
5.27916e-07
5.26197e-07
3.13166e-07
3.13289e-07
3.13167e-07
3.13291e-07
3.1323e-07
3.13071e-07
3.13231e-07
5.28022e-07
5.26309e-07
3.13183e-07
3.13152e-07
3.13185e-07
5.26332e-07
5.27978e-07
5.26269e-07
3.13193e-07
3.13279e-07
3.13194e-07
3.1328e-07
5.27908e-07
5.26198e-07
3.13167e-07
3.1329e-07
3.13169e-07
3.13292e-07
3.1323e-07
3.13071e-07
3.13232e-07
5.28015e-07
5.26311e-07
3.13184e-07
3.13153e-07
3.13186e-07
5.26334e-07
5.27967e-07
5.26269e-07
3.13192e-07
3.13278e-07
3.13194e-07
3.13279e-07
5.27898e-07
5.26195e-07
3.13168e-07
3.13291e-07
3.1317e-07
3.13293e-07
3.13231e-07
3.1307e-07
3.13233e-07
5.28007e-07
5.26308e-07
3.13185e-07
3.13154e-07
3.13186e-07
5.26325e-07
5.27967e-07
5.26298e-07
3.13193e-07
3.13277e-07
3.13195e-07
3.13279e-07
5.27898e-07
5.26221e-07
3.13169e-07
3.13292e-07
3.13172e-07
3.13294e-07
3.13232e-07
3.1307e-07
3.13234e-07
5.28005e-07
5.26335e-07
3.13185e-07
3.13155e-07
3.13187e-07
5.26351e-07
5.27972e-07
5.26357e-07
3.13193e-07
3.13276e-07
3.13195e-07
3.13277e-07
5.27899e-07
5.26289e-07
3.1317e-07
3.13292e-07
3.13172e-07
3.13294e-07
3.13232e-07
3.13069e-07
3.13234e-07
5.28007e-07
5.26401e-07
3.13185e-07
3.13154e-07
3.13188e-07
5.2644e-07
5.28073e-07
5.26252e-07
3.13194e-07
3.13276e-07
3.13195e-07
3.13277e-07
5.28006e-07
5.26187e-07
3.13171e-07
3.13293e-07
3.13172e-07
3.13294e-07
3.13233e-07
3.13069e-07
3.13234e-07
5.28113e-07
5.26296e-07
3.13186e-07
3.13153e-07
3.13187e-07
5.26328e-07
5.28041e-07
5.26117e-07
3.13195e-07
3.13275e-07
3.13198e-07
3.13278e-07
5.27983e-07
5.26042e-07
3.13171e-07
3.13293e-07
3.13173e-07
3.13295e-07
3.13232e-07
3.1307e-07
3.13235e-07
5.28086e-07
5.26154e-07
3.13186e-07
3.13155e-07
3.13188e-07
5.26182e-07
5.27781e-07
5.25922e-07
3.13058e-07
3.13138e-07
3.13078e-07
3.13157e-07
5.27719e-07
5.25843e-07
3.13033e-07
3.13155e-07
3.13052e-07
3.13175e-07
3.13095e-07
3.1295e-07
3.13114e-07
5.27823e-07
5.25955e-07
3.13048e-07
3.13035e-07
3.13068e-07
5.25968e-07
5.27598e-07
5.26138e-07
3.13084e-07
3.13162e-07
3.13106e-07
3.13182e-07
5.27527e-07
5.26061e-07
3.13057e-07
3.1318e-07
3.13077e-07
3.132e-07
3.1312e-07
3.12975e-07
3.1314e-07
5.27633e-07
5.2617e-07
3.13073e-07
3.13059e-07
3.13094e-07
5.26167e-07
5.27716e-07
5.26287e-07
3.13109e-07
3.13183e-07
3.13121e-07
3.13196e-07
5.27644e-07
5.26211e-07
3.13079e-07
3.13201e-07
3.1309e-07
3.13214e-07
3.13141e-07
3.12989e-07
3.13154e-07
5.27747e-07
5.26319e-07
3.13095e-07
3.13072e-07
3.13107e-07
5.26325e-07
5.2789e-07
5.26322e-07
3.13123e-07
3.13197e-07
3.13136e-07
3.13209e-07
5.27819e-07
5.26244e-07
3.13092e-07
3.13217e-07
3.13104e-07
3.13229e-07
3.13155e-07
3.13003e-07
3.13167e-07
5.27922e-07
5.26357e-07
3.13107e-07
3.13085e-07
3.1312e-07
5.26385e-07
5.28023e-07
5.26233e-07
3.1314e-07
3.13211e-07
3.13148e-07
3.13219e-07
5.27946e-07
5.26169e-07
3.13107e-07
3.13232e-07
3.13114e-07
3.13238e-07
3.1317e-07
3.13012e-07
3.13178e-07
5.28053e-07
5.26277e-07
3.13123e-07
3.13095e-07
3.1313e-07
5.26314e-07
5.28025e-07
5.26117e-07
3.13148e-07
3.13219e-07
3.13158e-07
3.13228e-07
5.27958e-07
5.26054e-07
3.13114e-07
3.13238e-07
3.13122e-07
3.13246e-07
3.13178e-07
3.13021e-07
3.13187e-07
5.28063e-07
5.26159e-07
3.1313e-07
3.13104e-07
3.13139e-07
5.26176e-07
5.27939e-07
5.26061e-07
3.13158e-07
3.13228e-07
3.13168e-07
3.13237e-07
5.27881e-07
5.2598e-07
3.13122e-07
3.13245e-07
3.13131e-07
3.13255e-07
3.13187e-07
3.1303e-07
3.13196e-07
5.27982e-07
5.26089e-07
3.13139e-07
3.13114e-07
3.13148e-07
5.26089e-07
5.27853e-07
5.2607e-07
3.13169e-07
3.13238e-07
3.1318e-07
3.13251e-07
5.27778e-07
5.25998e-07
3.13131e-07
3.13257e-07
3.13142e-07
3.1327e-07
3.13197e-07
3.13044e-07
3.13208e-07
5.27882e-07
5.26109e-07
3.13148e-07
3.13126e-07
3.13159e-07
5.26154e-07
5.27806e-07
5.26135e-07
3.13182e-07
3.13253e-07
3.13195e-07
3.13264e-07
5.27727e-07
5.26081e-07
3.13145e-07
3.13272e-07
3.13156e-07
3.13282e-07
3.13209e-07
3.13057e-07
3.13223e-07
5.2783e-07
5.26195e-07
3.1316e-07
3.13139e-07
3.13174e-07
5.26346e-07
5.27808e-07
5.26216e-07
3.13195e-07
3.13264e-07
3.13203e-07
3.1327e-07
5.27737e-07
5.26179e-07
3.13156e-07
3.13282e-07
3.13163e-07
3.13289e-07
3.13223e-07
3.13064e-07
3.13229e-07
5.27843e-07
5.26298e-07
3.13174e-07
3.13146e-07
3.1318e-07
5.26421e-07
5.27834e-07
5.26332e-07
3.13203e-07
3.1327e-07
3.13209e-07
3.13276e-07
5.27793e-07
5.26269e-07
3.13163e-07
3.13289e-07
3.13168e-07
3.13295e-07
3.13229e-07
3.1307e-07
3.13235e-07
5.27903e-07
5.26397e-07
3.1318e-07
3.13152e-07
3.13185e-07
5.2635e-07
5.27928e-07
5.26413e-07
3.13209e-07
3.13276e-07
3.13215e-07
3.13281e-07
5.27891e-07
5.2628e-07
3.13168e-07
3.13295e-07
3.13173e-07
3.133e-07
3.13235e-07
3.13076e-07
3.1324e-07
5.28008e-07
5.26419e-07
3.13185e-07
3.13157e-07
3.13191e-07
5.26312e-07
5.2804e-07
5.26419e-07
3.13215e-07
3.13281e-07
3.1322e-07
3.13286e-07
5.27943e-07
5.2627e-07
3.13173e-07
3.133e-07
3.13178e-07
3.13304e-07
3.1324e-07
3.1308e-07
3.13244e-07
5.28082e-07
5.26369e-07
3.1319e-07
3.13161e-07
3.13195e-07
5.26353e-07
5.28109e-07
5.2637e-07
3.1322e-07
3.13286e-07
3.13224e-07
3.1329e-07
5.27964e-07
5.26267e-07
3.13177e-07
3.13304e-07
3.1318e-07
3.13308e-07
3.13244e-07
3.13084e-07
3.13247e-07
5.28076e-07
5.26333e-07
3.13195e-07
3.13165e-07
3.13198e-07
5.26381e-07
5.28121e-07
5.26298e-07
3.13224e-07
3.1329e-07
3.13229e-07
3.13294e-07
5.2799e-07
5.26258e-07
3.1318e-07
3.13308e-07
3.13183e-07
3.13312e-07
3.13247e-07
3.13088e-07
3.1325e-07
5.2805e-07
5.26334e-07
3.13197e-07
3.13168e-07
3.13201e-07
5.26385e-07
5.2809e-07
5.26228e-07
3.13229e-07
3.13294e-07
3.13233e-07
3.13298e-07
5.28013e-07
5.26218e-07
3.13183e-07
3.13312e-07
3.13187e-07
3.13316e-07
3.1325e-07
3.13092e-07
3.13253e-07
5.28055e-07
5.26334e-07
3.13201e-07
3.13172e-07
3.13204e-07
5.26376e-07
5.28027e-07
5.26193e-07
3.13233e-07
3.13297e-07
3.13236e-07
3.133e-07
5.28006e-07
5.26163e-07
3.13187e-07
3.13316e-07
3.1319e-07
3.1332e-07
3.13253e-07
3.13094e-07
3.13257e-07
5.28075e-07
5.26307e-07
3.13204e-07
3.13174e-07
3.13208e-07
5.26382e-07
5.27966e-07
5.26201e-07
3.13236e-07
3.13299e-07
3.13238e-07
3.13301e-07
5.27964e-07
5.26122e-07
3.1319e-07
3.13319e-07
3.13192e-07
3.13322e-07
3.13257e-07
3.13095e-07
3.1326e-07
5.28076e-07
5.26261e-07
3.13208e-07
3.13176e-07
3.13211e-07
5.26399e-07
5.27945e-07
5.26208e-07
3.13238e-07
3.13301e-07
3.13239e-07
3.13302e-07
5.27909e-07
5.26101e-07
3.13192e-07
3.13321e-07
3.13194e-07
3.13322e-07
3.13259e-07
3.13096e-07
3.13261e-07
5.2804e-07
5.26236e-07
3.13209e-07
3.13177e-07
3.13211e-07
5.2639e-07
5.27933e-07
5.26213e-07
3.13238e-07
3.13302e-07
3.13239e-07
3.13303e-07
5.27856e-07
5.26122e-07
3.13193e-07
3.13321e-07
3.13194e-07
3.13322e-07
3.1326e-07
3.13097e-07
3.13261e-07
5.27997e-07
5.26249e-07
3.1321e-07
3.13177e-07
3.13211e-07
5.26365e-07
5.27915e-07
5.26259e-07
3.13238e-07
3.13301e-07
3.13239e-07
3.13303e-07
5.2783e-07
5.26201e-07
3.13193e-07
3.13321e-07
3.13194e-07
3.13322e-07
3.1326e-07
3.13097e-07
3.13261e-07
5.27984e-07
5.26273e-07
3.13209e-07
3.13177e-07
3.1321e-07
5.26362e-07
5.27949e-07
5.26265e-07
3.13238e-07
3.13301e-07
3.1324e-07
3.13302e-07
5.27887e-07
5.26227e-07
3.13193e-07
3.13321e-07
3.13194e-07
3.13322e-07
3.13259e-07
3.13097e-07
3.1326e-07
5.28003e-07
5.26243e-07
3.13209e-07
3.13177e-07
3.13209e-07
5.26344e-07
5.27977e-07
5.26231e-07
3.13238e-07
3.13301e-07
3.13239e-07
3.13302e-07
5.2794e-07
5.26214e-07
3.13192e-07
3.1332e-07
3.13193e-07
3.13321e-07
3.13258e-07
3.13096e-07
3.1326e-07
5.27977e-07
5.26243e-07
3.13208e-07
3.13176e-07
3.13209e-07
5.26359e-07
5.27941e-07
5.26242e-07
3.13237e-07
3.133e-07
3.13238e-07
3.13301e-07
5.27942e-07
5.26208e-07
3.13191e-07
3.13319e-07
3.13192e-07
3.1332e-07
3.13257e-07
3.13095e-07
3.13259e-07
5.27946e-07
5.26312e-07
3.13207e-07
3.13175e-07
3.13208e-07
5.26382e-07
5.27943e-07
5.26228e-07
3.13236e-07
3.13299e-07
3.13237e-07
3.133e-07
5.27955e-07
5.2614e-07
3.1319e-07
3.13318e-07
3.13191e-07
3.13319e-07
3.13257e-07
3.13094e-07
3.13258e-07
5.28016e-07
5.26301e-07
3.13206e-07
3.13174e-07
3.13207e-07
5.26354e-07
5.27945e-07
5.26192e-07
3.13236e-07
3.13299e-07
3.13238e-07
3.133e-07
5.2793e-07
5.26048e-07
3.1319e-07
3.13318e-07
3.13192e-07
3.13319e-07
3.13257e-07
3.13094e-07
3.13259e-07
5.28054e-07
5.26201e-07
3.13205e-07
3.13174e-07
3.13208e-07
5.2631e-07
5.27894e-07
5.26251e-07
3.13238e-07
3.133e-07
3.13246e-07
3.13307e-07
5.27827e-07
5.26104e-07
3.13192e-07
3.13319e-07
3.13199e-07
3.13326e-07
3.13259e-07
3.13101e-07
3.13266e-07
5.27964e-07
5.26219e-07
3.13208e-07
3.1318e-07
3.13214e-07
5.26326e-07
5.27913e-07
5.26345e-07
3.13246e-07
3.13307e-07
3.13255e-07
3.13317e-07
5.27789e-07
5.26271e-07
3.13199e-07
3.13326e-07
3.13209e-07
3.13335e-07
3.13266e-07
3.13111e-07
3.13275e-07
5.27929e-07
5.2633e-07
3.13214e-07
3.1319e-07
3.13223e-07
5.26386e-07
5.28009e-07
5.26342e-07
3.13255e-07
3.13317e-07
3.13259e-07
3.1332e-07
5.27925e-07
5.26272e-07
3.13209e-07
3.13335e-07
3.13212e-07
3.13339e-07
3.13275e-07
3.13113e-07
3.13279e-07
5.28016e-07
5.26352e-07
3.13223e-07
3.13193e-07
3.13226e-07
5.26426e-07
5.28038e-07
5.26298e-07
3.1326e-07
3.13321e-07
3.13242e-07
3.13303e-07
5.27978e-07
5.26203e-07
3.13213e-07
3.1334e-07
3.13195e-07
3.13323e-07
3.13279e-07
3.13098e-07
3.13262e-07
5.28058e-07
5.26305e-07
3.13227e-07
3.13178e-07
3.13209e-07
5.26427e-07
5.27999e-07
5.26286e-07
3.13239e-07
3.133e-07
3.13224e-07
3.13286e-07
5.27918e-07
5.26162e-07
3.13192e-07
3.1332e-07
3.13176e-07
3.13305e-07
3.13258e-07
3.13079e-07
3.13244e-07
5.28013e-07
5.26258e-07
3.13206e-07
3.13159e-07
3.13191e-07
5.26411e-07
5.27984e-07
5.26308e-07
3.13223e-07
3.13284e-07
3.13217e-07
3.13279e-07
5.27872e-07
5.26152e-07
3.13175e-07
3.13304e-07
3.1317e-07
3.13298e-07
3.13243e-07
3.13071e-07
3.13237e-07
5.27948e-07
5.26267e-07
3.1319e-07
3.13151e-07
3.13185e-07
5.26394e-07
5.27995e-07
5.26318e-07
3.13217e-07
3.13279e-07
3.13215e-07
3.13276e-07
5.27852e-07
5.26176e-07
3.1317e-07
3.13298e-07
3.13167e-07
3.13295e-07
3.13237e-07
3.13068e-07
3.13235e-07
5.27943e-07
5.26308e-07
3.13185e-07
3.13148e-07
3.13182e-07
5.26379e-07
5.28014e-07
5.26292e-07
3.13215e-07
3.13276e-07
3.13212e-07
3.13274e-07
5.27872e-07
5.26175e-07
3.13167e-07
3.13295e-07
3.13165e-07
3.13294e-07
3.13235e-07
3.13067e-07
3.13233e-07
5.27982e-07
5.26321e-07
3.13182e-07
3.13146e-07
3.1318e-07
5.26365e-07
5.28006e-07
5.26289e-07
3.13213e-07
3.13275e-07
3.13211e-07
3.13273e-07
5.27879e-07
5.2617e-07
3.13166e-07
3.13294e-07
3.13163e-07
3.13292e-07
3.13233e-07
3.13065e-07
3.13231e-07
5.28016e-07
5.26311e-07
3.13181e-07
3.13144e-07
3.13178e-07
5.26362e-07
5.28006e-07
5.2628e-07
3.13212e-07
3.13274e-07
3.13208e-07
3.1327e-07
5.27873e-07
5.26167e-07
3.13165e-07
3.13294e-07
3.13161e-07
3.13289e-07
3.13233e-07
3.13063e-07
3.13228e-07
5.28021e-07
5.26284e-07
3.1318e-07
3.13142e-07
3.13176e-07
5.26336e-07
5.27986e-07
5.26287e-07
3.13211e-07
3.13273e-07
3.13206e-07
3.13268e-07
5.2786e-07
5.26201e-07
3.13163e-07
3.13292e-07
3.13158e-07
3.13287e-07
3.13231e-07
3.1306e-07
3.13226e-07
5.27984e-07
5.26303e-07
3.13178e-07
3.13139e-07
3.13173e-07
5.26335e-07
5.27978e-07
5.26277e-07
3.13209e-07
3.13271e-07
3.13202e-07
3.13263e-07
5.27897e-07
5.26177e-07
3.13161e-07
3.1329e-07
3.13154e-07
3.13282e-07
3.13229e-07
3.13056e-07
3.13222e-07
5.27995e-07
5.26293e-07
3.13176e-07
3.13135e-07
3.13169e-07
5.26331e-07
5.27974e-07
5.2627e-07
3.13206e-07
3.13268e-07
3.13196e-07
3.13258e-07
5.27894e-07
5.26147e-07
3.13159e-07
3.13287e-07
3.13149e-07
3.13277e-07
3.13226e-07
3.13051e-07
3.13217e-07
5.27997e-07
5.26286e-07
3.13173e-07
3.1313e-07
3.13163e-07
5.26343e-07
5.27961e-07
5.26284e-07
3.13204e-07
3.13266e-07
3.13189e-07
3.13251e-07
5.27843e-07
5.26185e-07
3.13157e-07
3.13285e-07
3.13142e-07
3.1327e-07
3.13224e-07
3.13045e-07
3.1321e-07
5.27973e-07
5.26311e-07
3.13171e-07
3.13123e-07
3.13156e-07
5.2635e-07
5.2798e-07
5.26265e-07
3.13202e-07
3.13264e-07
3.13179e-07
3.13241e-07
5.27868e-07
5.26194e-07
3.13155e-07
3.13283e-07
3.13132e-07
3.13261e-07
3.13222e-07
3.13035e-07
3.132e-07
5.28e-07
5.26292e-07
3.13168e-07
3.13113e-07
3.13146e-07
5.26336e-07
5.27968e-07
5.26252e-07
3.13197e-07
3.13259e-07
3.13165e-07
3.13227e-07
5.27895e-07
5.26192e-07
3.1315e-07
3.13279e-07
3.13118e-07
3.13246e-07
3.13217e-07
3.13021e-07
3.13185e-07
5.27997e-07
5.26269e-07
3.13164e-07
3.13099e-07
3.13132e-07
5.26352e-07
5.27937e-07
5.2627e-07
3.1319e-07
3.13252e-07
3.13142e-07
3.13203e-07
5.2789e-07
5.26201e-07
3.13143e-07
3.13271e-07
3.13095e-07
3.13222e-07
3.1321e-07
3.12998e-07
3.13162e-07
5.27957e-07
5.26272e-07
3.13156e-07
3.13076e-07
3.13108e-07
5.26343e-07
5.2794e-07
5.26291e-07
3.13175e-07
3.13237e-07
3.13104e-07
3.13165e-07
5.2789e-07
5.26197e-07
3.13128e-07
3.13256e-07
3.13057e-07
3.13184e-07
3.13195e-07
3.1296e-07
3.13124e-07
5.2794e-07
5.26295e-07
3.13141e-07
3.13038e-07
3.1307e-07
5.26319e-07
5.27965e-07
5.26249e-07
3.13147e-07
3.13209e-07
3.13038e-07
3.13096e-07
5.27886e-07
5.2615e-07
3.131e-07
3.13227e-07
3.12993e-07
3.13118e-07
3.13167e-07
3.12893e-07
3.13056e-07
5.27959e-07
5.26281e-07
3.13113e-07
3.12972e-07
3.12999e-07
5.26295e-07
5.2792e-07
5.26059e-07
3.1309e-07
3.13144e-07
3.12715e-07
3.12766e-07
5.27828e-07
5.25951e-07
3.13042e-07
3.13165e-07
3.12662e-07
3.12784e-07
3.13106e-07
3.1257e-07
3.12733e-07
5.27936e-07
5.26093e-07
3.13047e-07
3.1264e-07
3.12664e-07
5.26117e-07
5.27602e-07
5.1156e-07
3.13009e-07
3.1306e-07
3.00594e-07
3.00645e-07
5.275e-07
5.11504e-07
3.12956e-07
3.13085e-07
3.00578e-07
3.00629e-07
3.13032e-07
3.00511e-07
3.00602e-07
5.27633e-07
5.11575e-07
3.12958e-07
3.00541e-07
3.0057e-07
5.11572e-07
4.94002e-07
2.88987e-07
2.89032e-07
4.93962e-07
2.88982e-07
2.89016e-07
1.18454e-07
1.1845e-07
1.18454e-07
2.88995e-07
4.94019e-07
2.88978e-07
5.35663e-07
5.35601e-07
5.35655e-07
5.35655e-07
5.34573e-07
5.35516e-07
5.33634e-07
5.35654e-07
5.34573e-07
5.35517e-07
5.35654e-07
5.33634e-07
5.35256e-07
5.35986e-07
5.35987e-07
1.10713e-06
3.88088e-06
9.33893e-07
4.6061e-06
1.26081e-05
1.66008e-05
1.10725e-06
3.88112e-06
9.33926e-07
4.60647e-06
4.95567e-07
4.95567e-07
4.95567e-07
4.57231e-07
4.57231e-07
4.57232e-07
4.57232e-07
5.43144e-07
1.22027e-06
4.95565e-07
4.85522e-07
5.25341e-07
1.20946e-06
4.82301e-07
1.26097e-05
1.66034e-05
5.43163e-07
4.95565e-07
1.22025e-06
4.85523e-07
5.25319e-07
4.82302e-07
1.20945e-06
2.52172e-06
2.52242e-06
4.8419e-07
2.37249e-06
2.37288e-06
1.43081e-06
5.59335e-06
1.32966e-06
6.1363e-06
2.12847e-05
2.31102e-05
1.43121e-06
5.59401e-06
1.32972e-06
6.13696e-06
4.45572e-07
4.45573e-07
4.45573e-07
4.13542e-07
4.13542e-07