/*--------------------------------*- C++ -*----------------------------------*\
| =========                 |                                                 |
| \\      /  F ield         | OpenFOAM: The Open Source CFD Toolbox           |
|  \\    /   O peration     | Version:  v2012                                 |
|   \\  /    A nd           | Website:  www.openfoam.com                      |
|    \\/     M anipulation  |                                                 |
\*---------------------------------------------------------------------------*/
FoamFile
{
    version     2.0;
    format      ascii;
    class       volScalarField;
    location    "125";
    object      nut;
}
// * * * * * * * * * * * * * * * * * * * * * * * * * * * * * * * * * * * * * //

dimensions      [0 2 -1 0 0 0 0];


internalField   nonuniform List<scalar> 
171728
(
0.000233973
0.000233116
0.000233116
0.000233423
0.000232532
0.000227802
0.000227801
0.000223866
0.000230516
0.00022032
0.000220318
0.000209109
0.000227799
0.000211665
0.000211661
0.000193785
0.000224433
0.00020265
0.000202644
0.000179709
0.000220552
0.000193772
0.000193765
0.000167339
0.000216304
0.000185275
0.000185267
0.000156587
0.00021182
0.000177234
0.000177225
0.000147206
0.000207207
0.000169688
0.00016968
0.00013895
0.000202545
0.000162611
0.000162602
0.000131614
0.000197889
0.000155948
0.00015594
0.000124953
0.000193275
0.000149646
0.000149637
0.000118816
0.000188682
0.000143664
0.000143656
0.000113167
0.000184149
0.00013795
0.000137942
0.000107932
0.000179704
0.00013246
0.000132452
0.000103056
0.000175339
0.00012719
0.00012718
9.84354e-05
0.000171033
0.000122149
0.00012214
9.42508e-05
0.000166785
0.000117372
0.000117362
9.06598e-05
0.000162586
0.000112888
0.000112877
8.77314e-05
0.00015841
0.000108756
0.000108745
8.5384e-05
0.000154265
0.000105027
0.000105018
8.36681e-05
0.00015014
0.000101718
0.00010171
8.25849e-05
0.000146071
9.8908e-05
9.89002e-05
8.21038e-05
0.000142068
9.66217e-05
9.66151e-05
8.21928e-05
0.000138177
9.49328e-05
9.4927e-05
8.28278e-05
0.000134803
9.40283e-05
9.40232e-05
8.40751e-05
0.000131502
9.3797e-05
9.37939e-05
8.60253e-05
0.000129975
9.50931e-05
9.50867e-05
8.85989e-05
0.00012924
9.61794e-05
9.61749e-05
9.02444e-05
0.000126925
9.57891e-05
9.57862e-05
9.05522e-05
0.000125035
9.54208e-05
9.54189e-05
9.04092e-05
0.000124511
9.54504e-05
9.54494e-05
9.05462e-05
0.000124553
9.56964e-05
9.56955e-05
9.06956e-05
0.000124673
9.58101e-05
9.5809e-05
9.07932e-05
0.000124717
9.58447e-05
9.58432e-05
9.0808e-05
0.00012473
9.58534e-05
9.58521e-05
9.0801e-05
0.000124733
9.5853e-05
9.58517e-05
9.08112e-05
0.000124734
9.58528e-05
9.58517e-05
9.08071e-05
0.000124735
9.58534e-05
9.58521e-05
9.08001e-05
0.000124736
9.58539e-05
9.58528e-05
9.08087e-05
0.000124737
9.58547e-05
9.58536e-05
9.08131e-05
0.000124738
9.5855e-05
9.58536e-05
9.07867e-05
0.000124739
9.58562e-05
9.58544e-05
9.08176e-05
0.00012474
9.58568e-05
9.58541e-05
9.08453e-05
0.000124741
9.58579e-05
9.58549e-05
9.08597e-05
0.000124741
9.58573e-05
9.58539e-05
9.07735e-05
0.000124741
9.58556e-05
9.5852e-05
9.07421e-05
0.000124759
9.58579e-05
9.5854e-05
9.08401e-05
0.000124759
9.58607e-05
9.58567e-05
9.08985e-05
0.000124759
9.58627e-05
9.58585e-05
9.08669e-05
0.000124759
9.58632e-05
9.5859e-05
9.07857e-05
0.000124759
9.5863e-05
9.58584e-05
9.07188e-05
0.000124759
9.58648e-05
9.586e-05
9.07254e-05
0.000124759
9.58659e-05
9.58609e-05
9.07849e-05
0.00012476
9.58672e-05
9.58624e-05
9.08689e-05
0.000124759
9.58687e-05
9.58638e-05
9.08945e-05
0.000124759
9.58718e-05
9.58662e-05
9.08513e-05
0.00012476
9.58732e-05
9.58681e-05
9.07791e-05
0.00012476
9.58733e-05
9.58681e-05
9.0754e-05
0.00012476
9.58726e-05
9.58675e-05
9.0814e-05
0.00012476
9.58723e-05
9.58666e-05
9.08664e-05
0.00012476
9.58717e-05
9.58662e-05
9.08525e-05
0.000124759
9.58717e-05
9.58661e-05
9.0834e-05
0.000124759
9.5872e-05
9.58663e-05
9.08332e-05
0.000124759
9.58719e-05
9.58664e-05
9.08452e-05
0.000124759
9.5872e-05
9.58666e-05
9.08383e-05
0.000124759
9.58723e-05
9.58669e-05
9.08093e-05
0.000124759
9.58728e-05
9.58674e-05
9.07822e-05
0.000124759
9.58735e-05
9.58676e-05
9.07693e-05
0.00012476
9.58738e-05
9.58673e-05
9.07819e-05
0.00012476
9.5874e-05
9.58681e-05
9.08258e-05
0.00012476
9.58736e-05
9.58686e-05
9.08191e-05
0.000124758
9.58727e-05
9.58675e-05
9.08384e-05
0.000124757
9.58717e-05
9.58658e-05
9.08713e-05
0.000124754
9.58711e-05
9.58647e-05
9.08761e-05
0.000124752
9.58714e-05
9.58642e-05
9.08572e-05
0.000124754
9.58706e-05
9.58649e-05
9.08272e-05
0.000124754
9.58688e-05
9.58643e-05
9.07987e-05
0.000124744
9.58622e-05
9.5857e-05
9.07756e-05
0.000124741
9.58602e-05
9.58547e-05
9.07629e-05
0.000124741
9.5859e-05
9.58533e-05
9.07606e-05
0.000124742
9.58583e-05
9.58525e-05
9.07584e-05
0.000124742
9.58583e-05
9.58523e-05
9.07561e-05
0.000124742
9.58588e-05
9.58528e-05
9.0765e-05
0.000124743
9.58596e-05
9.58535e-05
9.07833e-05
0.000124743
9.58603e-05
9.58543e-05
9.07977e-05
0.000124743
9.58617e-05
9.58557e-05
9.08172e-05
0.000124744
9.58641e-05
9.5858e-05
9.08233e-05
0.000124744
9.58676e-05
9.58613e-05
9.08384e-05
0.000124745
9.58733e-05
9.5867e-05
9.08541e-05
0.000124747
9.58826e-05
9.58764e-05
9.08238e-05
0.00012475
9.58982e-05
9.58921e-05
9.08004e-05
0.000124756
9.59241e-05
9.59183e-05
9.08058e-05
0.000124792
9.59204e-05
9.59141e-05
9.08204e-05
0.000127518
9.65235e-05
9.65193e-05
9.08824e-05
0.000234266
0.000234448
0.000234449
0.000234267
0.000234448
0.000234449
0.000234274
0.000234274
0.000234274
0.000234274
0.000234448
0.000234448
0.000234266
0.000234448
0.000234448
0.000234266
0.000233423
0.000226204
0.000233116
0.000233114
0.000229361
0.000229357
0.000233423
0.000226206
0.000233114
0.000233114
0.000229359
0.000229356
0.000233116
0.000229364
0.000229361
0.000233423
0.000226202
0.000233114
0.000229363
0.000229359
0.000226203
0.000223867
0.00021223
0.000227799
0.000227794
0.000222332
0.000222326
0.000223868
0.000212234
0.000227797
0.000227792
0.000222332
0.000222323
0.000227798
0.000222339
0.000222331
0.000223866
0.000212227
0.000227797
0.000222336
0.000222331
0.000212228
0.000209111
0.000197061
0.000220313
0.000220307
0.000213879
0.000213874
0.000209112
0.000197066
0.000220314
0.000220304
0.000213883
0.000213869
0.000220311
0.00021389
0.000213877
0.000209107
0.000197057
0.000220313
0.000213886
0.000213882
0.000197058
0.000193788
0.000182876
0.000211654
0.000211648
0.00020489
0.000204884
0.000193791
0.000182883
0.000211658
0.000211643
0.000204897
0.000204879
0.000211651
0.000204905
0.000204887
0.000193784
0.000182872
0.000211657
0.000204899
0.000204896
0.000182873
0.000179712
0.000170268
0.000202634
0.000202628
0.000195942
0.000195937
0.000179717
0.000170274
0.000202643
0.000202622
0.000195954
0.000195931
0.000202631
0.000195962
0.00019594
0.000179708
0.000170263
0.000202641
0.000195955
0.000195953
0.000170264
0.000167344
0.000159242
0.000193753
0.000193747
0.000187336
0.000187331
0.000167349
0.000159249
0.000193765
0.00019374
0.000187351
0.000187324
0.000193749
0.000187358
0.000187333
0.000167339
0.000159238
0.000193763
0.000187351
0.00018735
0.000159238
0.000156591
0.000149613
0.000185253
0.000185247
0.000179173
0.000179167
0.000156597
0.00014962
0.000185268
0.00018524
0.000179191
0.00017916
0.000185249
0.000179198
0.00017917
0.000156587
0.000149608
0.000185267
0.000179189
0.000179189
0.000149608
0.000147211
0.000141107
0.000177208
0.000177203
0.000171501
0.000171496
0.000147217
0.000141113
0.000177227
0.000177195
0.000171521
0.000171488
0.000177205
0.000171529
0.000171498
0.000147206
0.000141101
0.000177225
0.00017152
0.000171521
0.000141101
0.000138956
0.000133547
0.00016966
0.000169655
0.000164309
0.000164304
0.000138961
0.000133554
0.000169681
0.000169647
0.000164332
0.000164296
0.000169657
0.00016434
0.000164307
0.00013895
0.000133541
0.00016968
0.000164331
0.000164332
0.000133541
0.000131621
0.000126686
0.00016258
0.000162575
0.000157547
0.000157542
0.000131626
0.000126693
0.000162604
0.000162567
0.000157572
0.000157534
0.000162578
0.00015758
0.000157546
0.000131615
0.000126679
0.000162603
0.000157571
0.000157572
0.000126679
0.00012496
0.000120362
0.000155916
0.000155911
0.000151158
0.000151153
0.000124966
0.000120369
0.000155942
0.000155902
0.000151185
0.000151145
0.000155914
0.000151193
0.000151157
0.000124954
0.000120355
0.000155941
0.000151184
0.000151185
0.000120355
0.000118822
0.000114426
0.000149612
0.000149606
0.000145097
0.000145091
0.000118827
0.000114434
0.000149639
0.000149598
0.000145125
0.000145084
0.00014961
0.000145133
0.000145096
0.000118816
0.00011442
0.000149638
0.000145124
0.000145125
0.000114419
0.000113174
0.000108836
0.000143629
0.000143623
0.00013932
0.000139315
0.000113179
0.000108843
0.000143657
0.000143615
0.000139349
0.000139307
0.000143628
0.000139358
0.00013932
0.000113168
0.000108829
0.000143657
0.000139349
0.000139349
0.000108828
0.000107939
0.000103702
0.000137914
0.000137907
0.000133779
0.000133772
0.000107944
0.000103709
0.000137942
0.000137899
0.000133807
0.000133764
0.000137913
0.000133817
0.000133779
0.000107932
0.000103696
0.000137942
0.000133808
0.000133808
0.000103695
0.000103063
9.91272e-05
0.000132423
0.000132416
0.000128448
0.000128441
0.000103068
9.9133e-05
0.000132451
0.000132408
0.000128476
0.000128433
0.000132423
0.000128487
0.000128449
0.000103057
9.91212e-05
0.000132452
0.000128478
0.000128478
9.912e-05
9.8442e-05
9.49885e-05
0.000127151
0.000127143
0.000123344
0.000123336
9.84476e-05
9.49944e-05
0.000127179
0.000127136
0.00012337
0.000123328
0.000127152
0.000123384
0.000123346
9.84365e-05
9.49829e-05
0.000127181
0.000123373
0.000123374
9.49821e-05
9.42567e-05
9.14352e-05
0.00012211
0.000122103
0.000118479
0.000118472
9.42623e-05
9.14406e-05
0.000122136
0.000122095
0.000118504
0.000118463
0.000122112
0.000118519
0.000118482
9.42516e-05
9.14297e-05
0.00012214
0.000118509
0.000118509
9.14294e-05
9.06647e-05
8.8377e-05
0.000117332
0.000117325
0.000113924
0.000113919
9.06703e-05
8.83824e-05
0.000117357
0.000117316
0.000113948
0.000113908
0.000117336
0.000113965
0.000113929
9.06604e-05
8.83722e-05
0.000117362
0.000113954
0.000113954
8.8372e-05
8.77359e-05
8.59085e-05
0.000112848
0.000112841
0.000109691
0.000109686
8.77412e-05
8.59137e-05
0.000112871
0.000112831
0.000109714
0.000109675
0.000112852
0.000109731
0.000109696
8.77317e-05
8.59042e-05
0.000112877
0.000109721
0.000109721
8.59042e-05
8.53879e-05
8.40691e-05
0.000108716
0.000108709
0.000105851
0.000105843
8.53929e-05
8.40742e-05
0.000108738
0.0001087
0.000105872
0.000105834
0.000108721
0.000105889
0.000105856
8.53841e-05
8.40655e-05
0.000108745
0.00010588
0.000105879
8.40657e-05
8.36713e-05
8.28628e-05
0.000104991
0.000104981
0.000102466
0.000102455
8.36761e-05
8.28673e-05
0.00010501
0.000104973
0.000102484
0.000102447
0.000104995
0.000102501
0.000102469
8.3668e-05
8.28594e-05
0.000105017
0.000102492
0.000102491
8.28597e-05
8.25876e-05
8.22636e-05
0.000101684
0.000101673
9.95185e-05
9.95062e-05
8.25918e-05
8.22675e-05
0.000101702
0.000101665
9.95354e-05
9.94994e-05
0.000101687
9.9551e-05
9.95212e-05
8.25847e-05
8.22605e-05
0.000101709
9.95428e-05
9.95419e-05
8.22609e-05
8.21061e-05
8.2246e-05
9.88762e-05
9.88637e-05
9.71281e-05
9.71152e-05
8.21097e-05
8.22494e-05
9.88929e-05
9.88573e-05
9.71434e-05
9.71092e-05
9.88788e-05
9.71582e-05
9.71306e-05
8.21036e-05
8.22436e-05
9.88996e-05
9.71511e-05
9.71504e-05
8.2244e-05
8.21945e-05
8.27534e-05
9.65925e-05
9.65794e-05
9.52402e-05
9.52272e-05
8.21976e-05
8.2756e-05
9.66077e-05
9.65736e-05
9.52547e-05
9.52225e-05
9.65949e-05
9.52686e-05
9.52428e-05
8.21925e-05
8.27516e-05
9.66141e-05
9.5262e-05
9.52605e-05
8.27518e-05
8.28289e-05
8.38936e-05
9.49056e-05
9.48924e-05
9.41841e-05
9.41697e-05
8.28314e-05
8.38955e-05
9.49197e-05
9.48879e-05
9.41963e-05
9.41663e-05
9.49082e-05
9.42092e-05
9.41859e-05
8.28276e-05
8.38924e-05
9.49254e-05
9.4204e-05
9.42017e-05
8.38926e-05
8.40761e-05
8.56748e-05
9.40035e-05
9.39895e-05
9.37185e-05
9.37055e-05
8.40778e-05
8.56763e-05
9.40162e-05
9.39863e-05
9.37311e-05
9.37014e-05
9.40057e-05
9.37416e-05
9.37215e-05
8.40751e-05
8.56715e-05
9.40211e-05
9.37376e-05
9.37355e-05
8.56733e-05
8.60272e-05
8.81651e-05
9.37754e-05
9.37624e-05
9.46344e-05
9.46201e-05
8.60282e-05
8.8166e-05
9.37878e-05
9.37573e-05
9.46446e-05
9.46173e-05
9.37782e-05
9.46563e-05
9.46356e-05
8.60239e-05
8.81639e-05
9.3792e-05
9.46507e-05
9.46494e-05
8.81648e-05
8.85993e-05
9.00762e-05
9.50707e-05
9.50561e-05
9.60451e-05
9.60306e-05
8.86004e-05
9.00784e-05
9.50802e-05
9.50549e-05
9.60539e-05
9.60302e-05
9.50719e-05
9.60676e-05
9.60484e-05
8.85995e-05
9.00778e-05
9.50848e-05
9.60627e-05
9.60586e-05
9.0078e-05
9.02425e-05
9.05614e-05
9.61574e-05
9.61429e-05
9.60202e-05
9.60048e-05
9.02445e-05
9.05625e-05
9.61662e-05
9.61422e-05
9.60284e-05
9.60042e-05
9.61609e-05
9.60413e-05
9.60234e-05
9.02441e-05
9.0561e-05
9.61709e-05
9.60374e-05
9.60328e-05
9.05625e-05
9.05512e-05
9.04428e-05
9.57685e-05
9.57531e-05
9.54549e-05
9.54387e-05
9.05522e-05
9.04422e-05
9.57771e-05
9.57517e-05
9.5464e-05
9.54371e-05
9.57721e-05
9.54739e-05
9.54592e-05
9.05505e-05
9.04409e-05
9.57815e-05
9.54721e-05
9.54687e-05
9.04448e-05
9.0407e-05
9.05278e-05
9.54029e-05
9.53884e-05
9.53524e-05
9.53364e-05
9.04065e-05
9.05265e-05
9.54118e-05
9.53852e-05
9.53617e-05
9.53338e-05
9.54073e-05
9.53707e-05
9.53573e-05
9.04055e-05
9.05249e-05
9.54166e-05
9.53696e-05
9.53667e-05
9.05296e-05
9.05437e-05
9.06918e-05
9.54319e-05
9.54159e-05
9.56299e-05
9.56131e-05
9.05423e-05
9.06905e-05
9.54413e-05
9.54131e-05
9.56391e-05
9.56108e-05
9.54367e-05
9.56474e-05
9.56344e-05
9.05407e-05
9.06881e-05
9.54463e-05
9.56463e-05
9.56437e-05
9.06924e-05
9.06942e-05
9.0801e-05
9.56785e-05
9.56614e-05
9.57742e-05
9.57571e-05
9.06929e-05
9.07997e-05
9.56879e-05
9.56594e-05
9.57835e-05
9.57551e-05
9.56829e-05
9.57916e-05
9.57787e-05
9.06906e-05
9.07973e-05
9.56922e-05
9.57903e-05
9.57881e-05
9.08018e-05
9.07922e-05
9.08237e-05
9.57919e-05
9.57747e-05
9.58209e-05
9.58023e-05
9.07909e-05
9.08224e-05
9.58015e-05
9.57729e-05
9.58301e-05
9.58016e-05
9.57964e-05
9.58388e-05
9.58251e-05
9.07887e-05
9.08203e-05
9.58058e-05
9.58374e-05
9.58343e-05
9.08246e-05
9.08068e-05
9.08156e-05
9.58264e-05
9.58077e-05
9.5835e-05
9.58171e-05
9.08055e-05
9.08146e-05
9.58358e-05
9.5807e-05
9.58449e-05
9.58162e-05
9.58304e-05
9.58531e-05
9.58396e-05
9.08036e-05
9.08123e-05
9.58398e-05
9.58518e-05
9.58487e-05
9.08165e-05
9.08e-05
9.08264e-05
9.58352e-05
9.58177e-05
9.5835e-05
9.58174e-05
9.0799e-05
9.08252e-05
9.58458e-05
9.58168e-05
9.58454e-05
9.58165e-05
9.58403e-05
9.5853e-05
9.584e-05
9.07969e-05
9.0823e-05
9.58491e-05
9.58518e-05
9.58488e-05
9.08273e-05
9.08101e-05
9.08197e-05
9.58349e-05
9.5817e-05
9.58348e-05
9.58167e-05
9.0809e-05
9.08185e-05
9.5845e-05
9.58161e-05
9.58448e-05
9.5816e-05
9.58397e-05
9.58528e-05
9.58395e-05
9.08069e-05
9.08162e-05
9.58486e-05
9.58516e-05
9.58484e-05
9.08206e-05
9.08062e-05
9.08153e-05
9.5835e-05
9.58168e-05
9.5835e-05
9.58168e-05
9.0805e-05
9.08146e-05
9.58448e-05
9.58161e-05
9.58451e-05
9.58162e-05
9.58397e-05
9.58532e-05
9.58397e-05
9.08028e-05
9.08123e-05
9.58485e-05
9.58521e-05
9.58488e-05
9.08165e-05
9.07989e-05
9.08291e-05
9.58353e-05
9.5817e-05
9.58358e-05
9.58174e-05
9.07983e-05
9.08275e-05
9.58452e-05
9.58164e-05
9.58457e-05
9.58169e-05
9.58398e-05
9.58539e-05
9.58404e-05
9.07959e-05
9.08257e-05
9.5849e-05
9.58528e-05
9.58495e-05
9.08296e-05
9.08082e-05
9.08216e-05
9.58358e-05
9.58174e-05
9.58363e-05
9.58177e-05
9.08066e-05
9.08204e-05
9.58459e-05
9.5817e-05
9.58465e-05
9.58175e-05
9.58404e-05
9.58545e-05
9.5841e-05
9.0805e-05
9.08183e-05
9.58491e-05
9.58533e-05
9.58497e-05
9.08234e-05
9.08121e-05
9.08079e-05
9.58361e-05
9.58185e-05
9.58363e-05
9.58185e-05
9.08098e-05
9.08098e-05
9.58464e-05
9.58177e-05
9.58466e-05
9.58179e-05
9.58412e-05
9.5855e-05
9.58413e-05
9.08081e-05
9.0807e-05
9.58499e-05
9.58536e-05
9.58501e-05
9.08103e-05
9.07832e-05
9.08492e-05
9.58367e-05
9.5819e-05
9.58373e-05
9.58198e-05
9.0785e-05
9.08476e-05
9.58467e-05
9.5818e-05
9.58475e-05
9.58189e-05
9.58414e-05
9.58563e-05
9.58423e-05
9.07823e-05
9.08453e-05
9.58503e-05
9.58545e-05
9.5851e-05
9.08468e-05
9.08192e-05
9.08538e-05
9.58372e-05
9.58201e-05
9.58379e-05
9.58209e-05
9.08209e-05
9.08462e-05
9.58473e-05
9.58189e-05
9.58482e-05
9.58196e-05
9.58423e-05
9.58575e-05
9.58429e-05
9.08175e-05
9.08467e-05
9.58509e-05
9.58549e-05
9.58516e-05
9.08579e-05
9.08432e-05
9.08334e-05
9.58375e-05
9.58208e-05
9.58379e-05
9.58214e-05
9.08377e-05
9.0828e-05
9.58477e-05
9.58191e-05
9.58485e-05
9.58196e-05
9.58423e-05
9.58575e-05
9.58428e-05
9.08373e-05
9.08276e-05
9.58509e-05
9.58546e-05
9.58515e-05
9.08435e-05
9.08501e-05
9.075e-05
9.58379e-05
9.58215e-05
9.58359e-05
9.58196e-05
9.08465e-05
9.07475e-05
9.58487e-05
9.58196e-05
9.58466e-05
9.58176e-05
9.58427e-05
9.58557e-05
9.58409e-05
9.08457e-05
9.07456e-05
9.58514e-05
9.58525e-05
9.58495e-05
9.07511e-05
9.07594e-05
9.0804e-05
9.58371e-05
9.58209e-05
9.58363e-05
9.58198e-05
9.07574e-05
9.07989e-05
9.58477e-05
9.58189e-05
9.58465e-05
9.58177e-05
9.58424e-05
9.5856e-05
9.58408e-05
9.07563e-05
9.07969e-05
9.58512e-05
9.58524e-05
9.58495e-05
9.0794e-05
9.07491e-05
9.09082e-05
9.58359e-05
9.58196e-05
9.58385e-05
9.58221e-05
9.07437e-05
9.09057e-05
9.58462e-05
9.58174e-05
9.58485e-05
9.58198e-05
9.58406e-05
9.58583e-05
9.5843e-05
9.07422e-05
9.09034e-05
9.58493e-05
9.58545e-05
9.58518e-05
9.09042e-05
9.08482e-05
9.08957e-05
9.5838e-05
9.58216e-05
9.58405e-05
9.58244e-05
9.08417e-05
9.08973e-05
9.58481e-05
9.58193e-05
9.58507e-05
9.58219e-05
9.58426e-05
9.58609e-05
9.58452e-05
9.08405e-05
9.08939e-05
9.58513e-05
9.58569e-05
9.58539e-05
9.09018e-05
9.08983e-05
9.0808e-05
9.58405e-05
9.58243e-05
9.58402e-05
9.5824e-05
9.0898e-05
9.08075e-05
9.58506e-05
9.58218e-05
9.58502e-05
9.58214e-05
9.5845e-05
9.58604e-05
9.58453e-05
9.08949e-05
9.08056e-05
9.58537e-05
9.58564e-05
9.5854e-05
9.08238e-05
9.08556e-05
9.07344e-05
9.58423e-05
9.58263e-05
9.58403e-05
9.58242e-05
9.08548e-05
9.07333e-05
9.58523e-05
9.58236e-05
9.585e-05
9.58213e-05
9.5847e-05
9.58604e-05
9.58449e-05
9.08527e-05
9.07308e-05
9.58557e-05
9.58562e-05
9.58536e-05
9.07417e-05
9.07692e-05
9.07366e-05
9.58429e-05
9.58268e-05
9.58415e-05
9.58256e-05
9.07674e-05
9.07368e-05
9.58526e-05
9.58237e-05
9.58511e-05
9.58229e-05
9.58476e-05
9.58618e-05
9.58458e-05
9.07658e-05
9.07338e-05
9.58563e-05
9.58573e-05
9.58544e-05
9.07328e-05
9.07139e-05
9.07876e-05
9.58421e-05
9.58262e-05
9.58447e-05
9.58287e-05
9.07141e-05
9.07834e-05
9.58516e-05
9.58237e-05
9.5854e-05
9.58257e-05
9.58468e-05
9.5865e-05
9.58487e-05
9.07116e-05
9.0781e-05
9.58552e-05
9.58602e-05
9.58572e-05
9.0778e-05
9.07308e-05
9.08602e-05
9.58448e-05
9.58287e-05
9.58465e-05
9.58305e-05
9.07282e-05
9.08515e-05
9.5854e-05
9.58257e-05
9.58558e-05
9.58275e-05
9.58488e-05
9.58668e-05
9.58504e-05
9.07257e-05
9.08506e-05
9.58573e-05
9.58619e-05
9.58589e-05
9.08572e-05
9.07883e-05
9.09004e-05
9.58458e-05
9.583e-05
9.58485e-05
9.58323e-05
9.07794e-05
9.09003e-05
9.58552e-05
9.58269e-05
9.58577e-05
9.58287e-05
9.58498e-05
9.58687e-05
9.58529e-05
9.07785e-05
9.08977e-05
9.58583e-05
9.58638e-05
9.58614e-05
9.09101e-05
9.08511e-05
9.08997e-05
9.58477e-05
9.58312e-05
9.585e-05
9.58337e-05
9.08475e-05
9.08993e-05
9.58568e-05
9.58273e-05
9.58585e-05
9.58298e-05
9.58518e-05
9.58699e-05
9.58541e-05
9.08461e-05
9.08961e-05
9.58604e-05
9.58649e-05
9.58626e-05
9.08869e-05
9.08824e-05
9.08753e-05
9.58489e-05
9.58328e-05
9.58502e-05
9.58353e-05
9.08852e-05
9.0866e-05
9.58574e-05
9.58292e-05
9.58591e-05
9.58319e-05
9.58536e-05
9.58711e-05
9.58533e-05
9.0883e-05
9.08611e-05
9.58621e-05
9.58655e-05
9.58615e-05
9.08061e-05
9.08861e-05
9.08393e-05
9.5851e-05
9.58359e-05
9.58523e-05
9.5836e-05
9.08846e-05
9.08178e-05
9.58599e-05
9.58324e-05
9.58607e-05
9.58322e-05
9.58556e-05
9.58719e-05
9.58549e-05
9.08811e-05
9.08109e-05
9.58637e-05
9.58668e-05
9.58631e-05
9.07588e-05
9.08761e-05
9.0785e-05
9.58531e-05
9.58369e-05
9.58521e-05
9.58358e-05
9.08606e-05
9.0775e-05
9.58614e-05
9.58332e-05
9.58601e-05
9.58322e-05
9.58566e-05
9.5872e-05
9.58555e-05
9.08555e-05
9.07669e-05
9.58648e-05
9.58667e-05
9.58636e-05
9.07863e-05
9.08341e-05
9.07554e-05
9.58532e-05
9.58368e-05
9.58522e-05
9.58355e-05
9.08156e-05
9.07672e-05
9.58611e-05
9.58334e-05
9.58601e-05
9.58323e-05
9.58557e-05
9.5872e-05
9.58569e-05
9.08075e-05
9.07576e-05
9.58638e-05
9.58668e-05
9.5865e-05
9.08607e-05
9.07762e-05
9.07627e-05
9.5853e-05
9.58357e-05
9.58523e-05
9.58355e-05
9.07756e-05
9.07775e-05
9.58608e-05
9.58325e-05
9.58602e-05
9.58319e-05
9.58559e-05
9.5872e-05
9.58569e-05
9.07608e-05
9.07812e-05
9.58641e-05
9.58665e-05
9.58654e-05
9.08792e-05
9.0741e-05
9.07972e-05
9.58523e-05
9.58355e-05
9.58522e-05
9.58355e-05
9.07601e-05
9.07891e-05
9.58602e-05
9.58318e-05
9.58599e-05
9.58316e-05
9.58562e-05
9.58717e-05
9.58559e-05
9.07514e-05
9.08152e-05
9.58647e-05
9.58664e-05
9.58643e-05
9.08432e-05
9.07491e-05
9.08483e-05
9.58518e-05
9.58354e-05
9.58525e-05
9.58356e-05
9.07537e-05
9.08165e-05
9.58597e-05
9.58314e-05
9.58601e-05
9.58322e-05
9.58555e-05
9.58718e-05
9.58553e-05
9.07715e-05
9.08415e-05
9.58639e-05
9.58664e-05
9.58636e-05
9.08169e-05
9.0783e-05
9.08893e-05
9.58518e-05
9.58352e-05
9.58536e-05
9.58363e-05
9.07645e-05
9.08538e-05
9.58594e-05
9.58318e-05
9.58608e-05
9.58328e-05
9.5855e-05
9.58725e-05
9.58554e-05
9.07906e-05
9.08567e-05
9.58633e-05
9.58667e-05
9.58635e-05
9.08172e-05
9.08265e-05
9.0903e-05
9.58527e-05
9.58355e-05
9.5854e-05
9.58365e-05
9.07894e-05
9.08846e-05
9.586e-05
9.58321e-05
9.58615e-05
9.58327e-05
9.58552e-05
9.58727e-05
9.58563e-05
9.08009e-05
9.08712e-05
9.58633e-05
9.58669e-05
9.58643e-05
9.08275e-05
9.08617e-05
9.08958e-05
9.5853e-05
9.58357e-05
9.58536e-05
9.58366e-05
9.08214e-05
9.08998e-05
9.58605e-05
9.58321e-05
9.58612e-05
9.58331e-05
9.58561e-05
9.58729e-05
9.58561e-05
9.08128e-05
9.0888e-05
9.58642e-05
9.58673e-05
9.58642e-05
9.08141e-05
9.08737e-05
9.08866e-05
9.58529e-05
9.58359e-05
9.58536e-05
9.58368e-05
9.08524e-05
9.09012e-05
9.58605e-05
9.58324e-05
9.58612e-05
9.58336e-05
9.5856e-05
9.58731e-05
9.58558e-05
9.08345e-05
9.08952e-05
9.58642e-05
9.58678e-05
9.58642e-05
9.07888e-05
9.08756e-05
9.08809e-05
9.58532e-05
9.58361e-05
9.58541e-05
9.58372e-05
9.08728e-05
9.08901e-05
9.58608e-05
9.58329e-05
9.58617e-05
9.58339e-05
9.58562e-05
9.58734e-05
9.58562e-05
9.0857e-05
9.08877e-05
9.58646e-05
9.5868e-05
9.58646e-05
9.0786e-05
9.08789e-05
9.08629e-05
9.58537e-05
9.58367e-05
9.58542e-05
9.58371e-05
9.08819e-05
9.08568e-05
9.58613e-05
9.58333e-05
9.58619e-05
9.58338e-05
9.58566e-05
9.58733e-05
9.58566e-05
9.08655e-05
9.08751e-05
9.5865e-05
9.58682e-05
9.58647e-05
9.07923e-05
9.08692e-05
9.0851e-05
9.58541e-05
9.58372e-05
9.58543e-05
9.58373e-05
9.08659e-05
9.08256e-05
9.58618e-05
9.58335e-05
9.5862e-05
9.5834e-05
9.5857e-05
9.58735e-05
9.5857e-05
9.08603e-05
9.08794e-05
9.58651e-05
9.58682e-05
9.5865e-05
9.08199e-05
9.08557e-05
9.0866e-05
9.58543e-05
9.58375e-05
9.58548e-05
9.58377e-05
9.08376e-05
9.0833e-05
9.5862e-05
9.58334e-05
9.58623e-05
9.58343e-05
9.58571e-05
9.5874e-05
9.58577e-05
9.08629e-05
9.08833e-05
9.5865e-05
9.58687e-05
9.58656e-05
9.08603e-05
9.08667e-05
9.0869e-05
9.58545e-05
9.58379e-05
9.5855e-05
9.5838e-05
9.08367e-05
9.08599e-05
9.5862e-05
9.5834e-05
9.58623e-05
9.58344e-05
9.58576e-05
9.58741e-05
9.58575e-05
9.08742e-05
9.08551e-05
9.58655e-05
9.58687e-05
9.58654e-05
9.08462e-05
9.08686e-05
9.08702e-05
9.58547e-05
9.58378e-05
9.58548e-05
9.58377e-05
9.08427e-05
9.08861e-05
9.5862e-05
9.58343e-05
9.58621e-05
9.5834e-05
9.58576e-05
9.58739e-05
9.5858e-05
9.08542e-05
9.08538e-05
9.58656e-05
9.58682e-05
9.58658e-05
9.08728e-05
9.08663e-05
9.0882e-05
9.5854e-05
9.58369e-05
9.58538e-05
9.58373e-05
9.08442e-05
9.0912e-05
9.58612e-05
9.58335e-05
9.58611e-05
9.58333e-05
9.5857e-05
9.58734e-05
9.58572e-05
9.08408e-05
9.0891e-05
9.58648e-05
9.58674e-05
9.5865e-05
9.08859e-05
9.08802e-05
9.08651e-05
9.58528e-05
9.58357e-05
9.58521e-05
9.58358e-05
9.0874e-05
9.08944e-05
9.58602e-05
9.58319e-05
9.58597e-05
9.58317e-05
9.5856e-05
9.58718e-05
9.58554e-05
9.08628e-05
9.0892e-05
9.58637e-05
9.58654e-05
9.58629e-05
9.08639e-05
9.08797e-05
9.08176e-05
9.58521e-05
9.58355e-05
9.58518e-05
9.58347e-05
9.08958e-05
9.08157e-05
9.58598e-05
9.58313e-05
9.58593e-05
9.58308e-05
9.58553e-05
9.58704e-05
9.58545e-05
9.08819e-05
9.08481e-05
9.58628e-05
9.58641e-05
9.58618e-05
9.08215e-05
9.08478e-05
9.07868e-05
9.58532e-05
9.58363e-05
9.5852e-05
9.5834e-05
9.085e-05
9.07687e-05
9.58607e-05
9.58312e-05
9.58595e-05
9.58307e-05
9.58554e-05
9.58701e-05
9.58548e-05
9.08591e-05
9.08221e-05
9.58628e-05
9.58645e-05
9.58622e-05
9.07886e-05
9.07999e-05
9.08042e-05
9.58522e-05
9.5834e-05
9.58518e-05
9.5834e-05
9.07612e-05
9.08351e-05
9.58597e-05
9.58309e-05
9.58594e-05
9.58315e-05
9.58553e-05
9.5871e-05
9.58543e-05
9.08358e-05
9.08431e-05
9.58628e-05
9.58661e-05
9.5862e-05
9.07764e-05
9.07922e-05
9.08083e-05
9.58506e-05
9.58324e-05
9.58445e-05
9.58275e-05
9.07897e-05
9.08839e-05
9.58582e-05
9.58296e-05
9.5852e-05
9.58243e-05
9.58539e-05
9.58646e-05
9.58468e-05
9.08483e-05
9.08645e-05
9.58615e-05
9.58591e-05
9.58545e-05
9.07691e-05
9.08186e-05
9.08144e-05
9.58436e-05
9.58257e-05
9.58412e-05
9.58246e-05
9.08462e-05
9.08772e-05
9.5851e-05
9.58224e-05
9.58485e-05
9.58208e-05
9.58468e-05
9.58611e-05
9.5843e-05
9.08638e-05
9.08566e-05
9.58545e-05
9.58552e-05
9.58507e-05
9.07697e-05
9.08356e-05
9.0799e-05
9.58411e-05
9.58233e-05
9.58395e-05
9.5823e-05
9.08624e-05
9.08602e-05
9.58484e-05
9.58199e-05
9.58467e-05
9.58191e-05
9.58433e-05
9.58592e-05
9.58419e-05
9.08622e-05
9.08353e-05
9.5851e-05
9.58532e-05
9.58497e-05
9.07773e-05
9.08222e-05
9.07848e-05
9.58402e-05
9.5823e-05
9.58388e-05
9.58223e-05
9.08581e-05
9.085e-05
9.58473e-05
9.58194e-05
9.5846e-05
9.58185e-05
9.58424e-05
9.58583e-05
9.58416e-05
9.08489e-05
9.08162e-05
9.58502e-05
9.58523e-05
9.58494e-05
9.07819e-05
9.07927e-05
9.08027e-05
9.58393e-05
9.58224e-05
9.58388e-05
9.58222e-05
9.08512e-05
9.08534e-05
9.58465e-05
9.58189e-05
9.5846e-05
9.58183e-05
9.58419e-05
9.58582e-05
9.58415e-05
9.08311e-05
9.08206e-05
9.58496e-05
9.58521e-05
9.58493e-05
9.07864e-05
9.0799e-05
9.08444e-05
9.58388e-05
9.58221e-05
9.58393e-05
9.58224e-05
9.08533e-05
9.08573e-05
9.58461e-05
9.58184e-05
9.58465e-05
9.58186e-05
9.58415e-05
9.58585e-05
9.58417e-05
9.08293e-05
9.08468e-05
9.58493e-05
9.58525e-05
9.58495e-05
9.08038e-05
9.08411e-05
9.086e-05
9.58393e-05
9.58224e-05
9.58397e-05
9.58225e-05
9.08583e-05
9.08436e-05
9.58465e-05
9.58186e-05
9.58469e-05
9.58189e-05
9.58417e-05
9.58587e-05
9.58421e-05
9.08475e-05
9.08496e-05
9.58494e-05
9.58529e-05
9.58498e-05
9.08268e-05
9.08502e-05
9.08596e-05
9.584e-05
9.5823e-05
9.58401e-05
9.58229e-05
9.08485e-05
9.08429e-05
9.58472e-05
9.58193e-05
9.58473e-05
9.58192e-05
9.58424e-05
9.58593e-05
9.58425e-05
9.08494e-05
9.08469e-05
9.58501e-05
9.58533e-05
9.58503e-05
9.0843e-05
9.08488e-05
9.08647e-05
9.58409e-05
9.58239e-05
9.5841e-05
9.5824e-05
9.08435e-05
9.08645e-05
9.58482e-05
9.58201e-05
9.58483e-05
9.58202e-05
9.58433e-05
9.58604e-05
9.58436e-05
9.08447e-05
9.08571e-05
9.58511e-05
9.58544e-05
9.58513e-05
9.08565e-05
9.08549e-05
9.08553e-05
9.58423e-05
9.58253e-05
9.58424e-05
9.58254e-05
9.08629e-05
9.08495e-05
9.58496e-05
9.58215e-05
9.58497e-05
9.58216e-05
9.58448e-05
9.58619e-05
9.5845e-05
9.08545e-05
9.08442e-05
9.58525e-05
9.58558e-05
9.58527e-05
9.08576e-05
9.08513e-05
9.0855e-05
9.58445e-05
9.58276e-05
9.58448e-05
9.58276e-05
9.08585e-05
9.08228e-05
9.58519e-05
9.58238e-05
9.58522e-05
9.5824e-05
9.58469e-05
9.58642e-05
9.58476e-05
9.0847e-05
9.08414e-05
9.58546e-05
9.58582e-05
9.58553e-05
9.08678e-05
9.08503e-05
9.08684e-05
9.58478e-05
9.5831e-05
9.58493e-05
9.5832e-05
9.08387e-05
9.08234e-05
9.58552e-05
9.58271e-05
9.58566e-05
9.58285e-05
9.58504e-05
9.58686e-05
9.58521e-05
9.08422e-05
9.08624e-05
9.58581e-05
9.58627e-05
9.58597e-05
9.08611e-05
9.08633e-05
9.08625e-05
9.58536e-05
9.58367e-05
9.58568e-05
9.58394e-05
9.0841e-05
9.08267e-05
9.5861e-05
9.58328e-05
9.58642e-05
9.5836e-05
9.58565e-05
9.5876e-05
9.58591e-05
9.08583e-05
9.08658e-05
9.58641e-05
9.58701e-05
9.58667e-05
9.08254e-05
9.08683e-05
9.08333e-05
9.58632e-05
9.5846e-05
9.58691e-05
9.58519e-05
9.08462e-05
9.08214e-05
9.58705e-05
9.58423e-05
9.58765e-05
9.58486e-05
9.58657e-05
9.58886e-05
9.58716e-05
9.08676e-05
9.08499e-05
9.58733e-05
9.58827e-05
9.58792e-05
9.08249e-05
9.08514e-05
9.08305e-05
9.58788e-05
9.58616e-05
9.58907e-05
9.58743e-05
9.08414e-05
9.08421e-05
9.58862e-05
9.58581e-05
9.5898e-05
9.58704e-05
9.5881e-05
9.59107e-05
9.58936e-05
9.08626e-05
9.08379e-05
9.58886e-05
9.59044e-05
9.59018e-05
9.08485e-05
9.08393e-05
9.08929e-05
9.59043e-05
9.58883e-05
9.59355e-05
9.59207e-05
9.08547e-05
9.08932e-05
9.59119e-05
9.58847e-05
9.59442e-05
9.59165e-05
9.59071e-05
9.59555e-05
9.59376e-05
9.08552e-05
9.08686e-05
9.59155e-05
9.59497e-05
9.59481e-05
9.08629e-05
9.08964e-05
9.0896e-05
9.58999e-05
9.58852e-05
9.65992e-05
9.65846e-05
9.09064e-05
9.08993e-05
9.59086e-05
9.58803e-05
9.6607e-05
9.65815e-05
9.5901e-05
9.66181e-05
9.66004e-05
9.0885e-05
9.08896e-05
9.59121e-05
9.66136e-05
9.66103e-05
9.08678e-05
9.09079e-05
9.65064e-05
9.64924e-05
9.09128e-05
9.65135e-05
9.64897e-05
0.000127516
0.000127518
0.000127521
9.65072e-05
9.09036e-05
9.65162e-05
0.00023473
0.000234746
0.000234729
0.000234729
0.000235118
0.000234798
0.000234701
0.000234727
0.000235118
0.000234798
0.000234727
0.000234701
0.000234867
0.000233566
0.000233566
0.000104651
3.87413e-05
0.000129118
3.98247e-05
2.16834e-05
2.28312e-05
0.000104643
3.87373e-05
0.000129113
3.98213e-05
0.000233973
0.000233973
0.000233973
0.000232935
0.000232935
0.000232935
0.000232935
0.000206196
9.36747e-05
0.000233969
0.000231994
0.000222614
8.7223e-05
0.000233611
2.16823e-05
2.28305e-05
0.00020619
0.000233969
9.36742e-05
0.000231994
0.000222622
0.000233611
8.72287e-05
4.78006e-05
4.77888e-05
0.000231345
4.40192e-05
4.40096e-05
7.2568e-05
4.24341e-05
8.14024e-05
4.37632e-05
2.4775e-05
2.54633e-05
7.25584e-05
4.24306e-05
8.13971e-05
4.37595e-05
0.000232532
0.000232532
0.000232532
0.000231084