/*--------------------------------*- C++ -*----------------------------------*\
| =========                 |                                                 |
| \\      /  F ield         | OpenFOAM: The Open Source CFD Toolbox           |
|  \\    /   O peration     | Version:  v2012                                 |
|   \\  /    A nd           | Website:  www.openfoam.com                      |
|    \\/     M anipulation  |                                                 |
\*---------------------------------------------------------------------------*/
FoamFile
{
    version     2.0;
    format      ascii;
    class       volScalarField;
    location    "0.355";
    object      p;
}
// * * * * * * * * * * * * * * * * * * * * * * * * * * * * * * * * * * * * * //

dimensions      [0 2 -2 0 0 0 0];


internalField   nonuniform List<scalar> 
247104
(
1.84872e-06
1.84862e-06
1.84877e-06
1.84874e-06
1.84865e-06
1.84876e-06
1.84875e-06
1.84855e-06
1.84862e-06
1.84868e-06
1.84874e-06
1.84859e-06
1.84849e-06
1.84861e-06
1.84875e-06
1.84865e-06
1.84877e-06
1.84874e-06
1.84843e-06
1.84807e-06
1.84793e-06
1.84811e-06
1.84848e-06
1.84876e-06
1.84877e-06
1.84874e-06
1.84859e-06
1.84807e-06
1.84758e-06
1.84741e-06
1.84763e-06
1.84814e-06
1.84863e-06
1.84874e-06
1.84872e-06
1.84865e-06
1.84849e-06
1.84793e-06
1.84741e-06
1.84723e-06
1.84746e-06
1.848e-06
1.84855e-06
1.84864e-06
1.84876e-06
1.84861e-06
1.84811e-06
1.84763e-06
1.84746e-06
1.84768e-06
1.84818e-06
1.84865e-06
1.84876e-06
1.84875e-06
1.84875e-06
1.84848e-06
1.84814e-06
1.848e-06
1.84818e-06
1.84853e-06
1.84876e-06
1.84875e-06
1.84855e-06
1.84865e-06
1.84876e-06
1.84863e-06
1.84855e-06
1.84865e-06
1.84876e-06
1.84862e-06
1.84877e-06
1.84874e-06
1.84863e-06
1.84876e-06
1.84875e-06
1.81566e-06
1.81365e-06
1.81309e-06
1.81187e-06
1.81189e-06
1.81182e-06
1.81182e-06
1.81313e-06
1.81339e-06
1.81309e-06
1.81103e-06
1.80838e-06
1.80835e-06
1.80835e-06
1.80838e-06
1.81141e-06
1.81167e-06
1.81187e-06
1.80838e-06
1.80832e-06
1.80839e-06
1.80839e-06
1.80832e-06
1.80838e-06
1.81179e-06
1.81305e-06
1.81566e-06
1.81188e-06
1.80835e-06
1.80839e-06
1.80848e-06
1.80848e-06
1.80839e-06
1.80835e-06
1.81178e-06
1.81342e-06
1.81365e-06
1.81182e-06
1.80835e-06
1.80839e-06
1.80848e-06
1.80848e-06
1.80839e-06
1.80835e-06
1.81196e-06
1.812e-06
1.81182e-06
1.80838e-06
1.80832e-06
1.80839e-06
1.80839e-06
1.80832e-06
1.80838e-06
1.81173e-06
1.81295e-06
1.81313e-06
1.81142e-06
1.80838e-06
1.80835e-06
1.80835e-06
1.80838e-06
1.81164e-06
1.81182e-06
1.81327e-06
1.81339e-06
1.81167e-06
1.81179e-06
1.81178e-06
1.81196e-06
1.81173e-06
1.81182e-06
1.81346e-06
1.81306e-06
1.81342e-06
1.812e-06
1.81295e-06
1.81327e-06
1.79554e-06
1.79536e-06
1.79519e-06
1.79308e-06
1.79298e-06
1.79294e-06
1.79306e-06
1.79515e-06
1.79541e-06
1.79519e-06
1.79236e-06
1.78942e-06
1.78936e-06
1.78936e-06
1.78942e-06
1.79287e-06
1.79352e-06
1.79307e-06
1.78942e-06
1.78916e-06
1.78919e-06
1.78919e-06
1.78916e-06
1.78942e-06
1.79367e-06
1.79563e-06
1.79553e-06
1.79297e-06
1.78936e-06
1.78919e-06
1.78923e-06
1.78923e-06
1.78919e-06
1.78936e-06
1.79372e-06
1.79538e-06
1.79536e-06
1.79293e-06
1.78936e-06
1.78919e-06
1.78923e-06
1.78923e-06
1.78919e-06
1.78936e-06
1.79367e-06
1.79365e-06
1.79305e-06
1.78942e-06
1.78916e-06
1.78919e-06
1.78919e-06
1.78916e-06
1.78943e-06
1.79372e-06
1.79572e-06
1.79515e-06
1.79286e-06
1.78943e-06
1.78936e-06
1.78936e-06
1.78941e-06
1.79334e-06
1.79363e-06
1.79563e-06
1.7954e-06
1.79352e-06
1.79367e-06
1.79372e-06
1.79367e-06
1.79371e-06
1.79363e-06
1.79551e-06
1.79563e-06
1.79538e-06
1.79365e-06
1.79572e-06
1.79563e-06
1.77656e-06
1.77638e-06
1.77624e-06
1.77408e-06
1.77398e-06
1.77389e-06
1.77408e-06
1.77619e-06
1.77646e-06
1.77624e-06
1.77334e-06
1.77039e-06
1.77036e-06
1.77036e-06
1.77039e-06
1.77382e-06
1.77459e-06
1.77408e-06
1.77039e-06
1.77027e-06
1.77028e-06
1.77028e-06
1.77027e-06
1.77039e-06
1.7747e-06
1.77665e-06
1.77655e-06
1.77398e-06
1.77036e-06
1.77028e-06
1.77029e-06
1.77029e-06
1.77028e-06
1.77036e-06
1.77476e-06
1.77639e-06
1.77638e-06
1.77389e-06
1.77036e-06
1.77028e-06
1.77029e-06
1.77029e-06
1.77028e-06
1.77036e-06
1.77473e-06
1.7747e-06
1.77408e-06
1.77039e-06
1.77027e-06
1.77028e-06
1.77028e-06
1.77027e-06
1.77039e-06
1.77474e-06
1.77672e-06
1.77618e-06
1.77382e-06
1.77039e-06
1.77036e-06
1.77036e-06
1.77039e-06
1.77448e-06
1.7747e-06
1.77668e-06
1.77646e-06
1.77459e-06
1.7747e-06
1.77476e-06
1.77473e-06
1.77474e-06
1.7747e-06
1.77669e-06
1.77665e-06
1.7764e-06
1.77471e-06
1.77672e-06
1.77668e-06
1.75756e-06
1.75739e-06
1.75722e-06
1.75505e-06
1.75495e-06
1.75485e-06
1.75505e-06
1.75717e-06
1.75744e-06
1.75722e-06
1.75433e-06
1.75135e-06
1.75134e-06
1.75134e-06
1.75135e-06
1.75476e-06
1.75558e-06
1.75505e-06
1.75135e-06
1.75131e-06
1.75131e-06
1.75131e-06
1.75131e-06
1.75135e-06
1.75569e-06
1.75765e-06
1.75756e-06
1.75494e-06
1.75134e-06
1.75131e-06
1.75132e-06
1.75132e-06
1.75132e-06
1.75134e-06
1.75578e-06
1.75742e-06
1.75739e-06
1.75485e-06
1.75134e-06
1.75131e-06
1.75132e-06
1.75132e-06
1.75132e-06
1.75134e-06
1.75576e-06
1.75573e-06
1.75505e-06
1.75135e-06
1.75131e-06
1.75131e-06
1.75131e-06
1.75131e-06
1.75135e-06
1.75575e-06
1.75774e-06
1.75717e-06
1.75476e-06
1.75135e-06
1.75134e-06
1.75134e-06
1.75135e-06
1.75552e-06
1.75572e-06
1.75767e-06
1.75744e-06
1.75558e-06
1.75569e-06
1.75578e-06
1.75576e-06
1.75575e-06
1.75571e-06
1.75766e-06
1.75765e-06
1.75742e-06
1.75573e-06
1.75774e-06
1.75767e-06
1.73854e-06
1.73837e-06
1.7382e-06
1.73603e-06
1.73592e-06
1.73583e-06
1.73602e-06
1.73815e-06
1.73842e-06
1.7382e-06
1.73531e-06
1.73232e-06
1.73232e-06
1.73232e-06
1.73232e-06
1.73572e-06
1.73655e-06
1.73603e-06
1.73232e-06
1.73231e-06
1.73232e-06
1.73232e-06
1.73231e-06
1.73232e-06
1.73667e-06
1.73863e-06
1.73854e-06
1.73592e-06
1.73232e-06
1.73232e-06
1.73232e-06
1.73232e-06
1.73232e-06
1.73232e-06
1.73677e-06
1.73842e-06
1.73837e-06
1.73583e-06
1.73232e-06
1.73232e-06
1.73232e-06
1.73232e-06
1.73232e-06
1.73232e-06
1.73675e-06
1.73672e-06
1.73602e-06
1.73232e-06
1.73231e-06
1.73232e-06
1.73232e-06
1.73231e-06
1.73232e-06
1.73673e-06
1.73873e-06
1.73815e-06
1.73572e-06
1.73232e-06
1.73232e-06
1.73232e-06
1.73232e-06
1.73651e-06
1.7367e-06
1.73865e-06
1.73842e-06
1.73655e-06
1.73667e-06
1.73676e-06
1.73675e-06
1.73673e-06
1.73671e-06
1.73863e-06
1.73863e-06
1.73842e-06
1.73672e-06
1.73873e-06
1.73865e-06
1.71953e-06
1.71936e-06
1.71918e-06
1.71701e-06
1.7169e-06
1.71681e-06
1.717e-06
1.71913e-06
1.7194e-06
1.71918e-06
1.71629e-06
1.71331e-06
1.71331e-06
1.71331e-06
1.71331e-06
1.7167e-06
1.71753e-06
1.71701e-06
1.71331e-06
1.7133e-06
1.7133e-06
1.7133e-06
1.7133e-06
1.71331e-06
1.71765e-06
1.71961e-06
1.71953e-06
1.7169e-06
1.71331e-06
1.7133e-06
1.7133e-06
1.7133e-06
1.7133e-06
1.71331e-06
1.71775e-06
1.7194e-06
1.71936e-06
1.71681e-06
1.71331e-06
1.7133e-06
1.7133e-06
1.7133e-06
1.7133e-06
1.71331e-06
1.71773e-06
1.7177e-06
1.717e-06
1.71331e-06
1.7133e-06
1.7133e-06
1.7133e-06
1.7133e-06
1.71331e-06
1.71772e-06
1.71972e-06
1.71914e-06
1.7167e-06
1.71331e-06
1.71331e-06
1.71331e-06
1.71331e-06
1.7175e-06
1.71769e-06
1.71963e-06
1.7194e-06
1.71753e-06
1.71765e-06
1.71775e-06
1.71773e-06
1.71771e-06
1.71769e-06
1.71962e-06
1.71961e-06
1.7194e-06
1.7177e-06
1.71972e-06
1.71963e-06
1.70051e-06
1.70034e-06
1.70017e-06
1.698e-06
1.69789e-06
1.6978e-06
1.69799e-06
1.70012e-06
1.70038e-06
1.70017e-06
1.69728e-06
1.69429e-06
1.69429e-06
1.69429e-06
1.69429e-06
1.69768e-06
1.69852e-06
1.698e-06
1.69429e-06
1.69429e-06
1.69429e-06
1.69429e-06
1.69429e-06
1.69429e-06
1.69863e-06
1.70059e-06
1.70051e-06
1.69789e-06
1.69429e-06
1.69429e-06
1.69429e-06
1.69429e-06
1.69429e-06
1.69429e-06
1.69873e-06
1.70039e-06
1.70034e-06
1.6978e-06
1.69429e-06
1.69429e-06
1.69429e-06
1.69429e-06
1.69429e-06
1.69429e-06
1.69872e-06
1.69869e-06
1.69799e-06
1.69429e-06
1.69429e-06
1.69429e-06
1.69429e-06
1.69429e-06
1.69429e-06
1.6987e-06
1.70071e-06
1.70012e-06
1.69768e-06
1.69429e-06
1.69429e-06
1.69429e-06
1.69429e-06
1.69849e-06
1.69868e-06
1.70062e-06
1.70038e-06
1.69852e-06
1.69863e-06
1.69873e-06
1.69872e-06
1.6987e-06
1.69868e-06
1.7006e-06
1.7006e-06
1.70039e-06
1.69869e-06
1.70071e-06
1.70062e-06
1.6815e-06
1.68133e-06
1.68115e-06
1.67898e-06
1.67887e-06
1.67878e-06
1.67897e-06
1.6811e-06
1.68137e-06
1.68115e-06
1.67826e-06
1.67528e-06
1.67528e-06
1.67528e-06
1.67528e-06
1.67867e-06
1.6795e-06
1.67898e-06
1.67528e-06
1.67528e-06
1.67528e-06
1.67528e-06
1.67528e-06
1.67528e-06
1.67962e-06
1.68158e-06
1.6815e-06
1.67887e-06
1.67528e-06
1.67528e-06
1.67528e-06
1.67528e-06
1.67528e-06
1.67528e-06
1.67972e-06
1.68137e-06
1.68133e-06
1.67878e-06
1.67528e-06
1.67528e-06
1.67528e-06
1.67528e-06
1.67528e-06
1.67528e-06
1.6797e-06
1.67967e-06
1.67897e-06
1.67528e-06
1.67528e-06
1.67528e-06
1.67528e-06
1.67528e-06
1.67528e-06
1.67969e-06
1.68169e-06
1.6811e-06
1.67867e-06
1.67528e-06
1.67528e-06
1.67528e-06
1.67528e-06
1.67947e-06
1.67966e-06
1.6816e-06
1.68137e-06
1.6795e-06
1.67962e-06
1.67972e-06
1.6797e-06
1.67969e-06
1.67966e-06
1.68159e-06
1.68158e-06
1.68137e-06
1.67967e-06
1.68169e-06
1.6816e-06
1.66248e-06
1.66231e-06
1.66214e-06
1.65997e-06
1.65986e-06
1.65977e-06
1.65996e-06
1.66209e-06
1.66235e-06
1.66213e-06
1.65925e-06
1.65626e-06
1.65626e-06
1.65626e-06
1.65626e-06
1.65965e-06
1.66049e-06
1.65997e-06
1.65626e-06
1.65626e-06
1.65626e-06
1.65626e-06
1.65626e-06
1.65626e-06
1.6606e-06
1.66256e-06
1.66248e-06
1.65986e-06
1.65626e-06
1.65626e-06
1.65626e-06
1.65626e-06
1.65626e-06
1.65626e-06
1.6607e-06
1.66236e-06
1.66231e-06
1.65977e-06
1.65626e-06
1.65626e-06
1.65626e-06
1.65626e-06
1.65626e-06
1.65626e-06
1.66069e-06
1.66066e-06
1.65996e-06
1.65626e-06
1.65626e-06
1.65626e-06
1.65626e-06
1.65626e-06
1.65626e-06
1.66067e-06
1.66268e-06
1.66209e-06
1.65965e-06
1.65626e-06
1.65626e-06
1.65626e-06
1.65626e-06
1.66046e-06
1.66065e-06
1.66259e-06
1.66235e-06
1.66049e-06
1.6606e-06
1.6607e-06
1.66069e-06
1.66067e-06
1.66065e-06
1.66257e-06
1.66257e-06
1.66236e-06
1.66066e-06
1.66268e-06
1.66259e-06
1.64347e-06
1.6433e-06
1.64312e-06
1.64095e-06
1.64084e-06
1.64075e-06
1.64094e-06
1.64308e-06
1.64334e-06
1.64312e-06
1.64023e-06
1.63725e-06
1.63725e-06
1.63725e-06
1.63725e-06
1.64064e-06
1.64147e-06
1.64095e-06
1.63725e-06
1.63725e-06
1.63725e-06
1.63725e-06
1.63725e-06
1.63725e-06
1.64159e-06
1.64355e-06
1.64347e-06
1.64084e-06
1.63725e-06
1.63725e-06
1.63725e-06
1.63725e-06
1.63725e-06
1.63725e-06
1.64169e-06
1.64334e-06
1.6433e-06
1.64075e-06
1.63725e-06
1.63725e-06
1.63725e-06
1.63725e-06
1.63725e-06
1.63725e-06
1.64167e-06
1.64164e-06
1.64094e-06
1.63725e-06
1.63725e-06
1.63725e-06
1.63725e-06
1.63725e-06
1.63725e-06
1.64166e-06
1.64366e-06
1.64308e-06
1.64064e-06
1.63725e-06
1.63725e-06
1.63725e-06
1.63725e-06
1.64144e-06
1.64163e-06
1.64357e-06
1.64334e-06
1.64147e-06
1.64159e-06
1.64169e-06
1.64167e-06
1.64166e-06
1.64163e-06
1.64356e-06
1.64355e-06
1.64334e-06
1.64164e-06
1.64366e-06
1.64357e-06
1.62445e-06
1.62428e-06
1.6241e-06
1.62194e-06
1.62183e-06
1.62174e-06
1.62193e-06
1.62406e-06
1.62432e-06
1.62411e-06
1.62122e-06
1.61823e-06
1.61823e-06
1.61823e-06
1.61823e-06
1.62162e-06
1.62246e-06
1.62194e-06
1.61823e-06
1.61823e-06
1.61823e-06
1.61823e-06
1.61823e-06
1.61823e-06
1.62257e-06
1.62453e-06
1.62445e-06
1.62183e-06
1.61823e-06
1.61823e-06
1.61823e-06
1.61823e-06
1.61823e-06
1.61823e-06
1.62268e-06
1.62433e-06
1.62428e-06
1.62174e-06
1.61823e-06
1.61823e-06
1.61823e-06
1.61823e-06
1.61823e-06
1.61823e-06
1.62266e-06
1.62263e-06
1.62193e-06
1.61823e-06
1.61823e-06
1.61823e-06
1.61823e-06
1.61823e-06
1.61823e-06
1.62264e-06
1.62465e-06
1.62406e-06
1.62162e-06
1.61823e-06
1.61823e-06
1.61823e-06
1.61823e-06
1.62243e-06
1.62262e-06
1.62456e-06
1.62432e-06
1.62246e-06
1.62257e-06
1.62267e-06
1.62266e-06
1.62264e-06
1.62262e-06
1.62454e-06
1.62454e-06
1.62433e-06
1.62263e-06
1.62465e-06
1.62456e-06
1.60544e-06
1.60527e-06
1.60509e-06
1.60292e-06
1.60281e-06
1.60272e-06
1.60291e-06
1.60505e-06
1.60531e-06
1.60509e-06
1.6022e-06
1.59922e-06
1.59922e-06
1.59922e-06
1.59922e-06
1.60261e-06
1.60344e-06
1.60292e-06
1.59922e-06
1.59922e-06
1.59922e-06
1.59922e-06
1.59922e-06
1.59922e-06
1.60356e-06
1.60552e-06
1.60544e-06
1.60281e-06
1.59922e-06
1.59922e-06
1.59922e-06
1.59922e-06
1.59922e-06
1.59922e-06
1.60366e-06
1.60531e-06
1.60527e-06
1.60272e-06
1.59922e-06
1.59922e-06
1.59922e-06
1.59922e-06
1.59922e-06
1.59922e-06
1.60364e-06
1.60361e-06
1.60291e-06
1.59922e-06
1.59922e-06
1.59922e-06
1.59922e-06
1.59922e-06
1.59922e-06
1.60363e-06
1.60563e-06
1.60505e-06
1.60261e-06
1.59922e-06
1.59922e-06
1.59922e-06
1.59922e-06
1.60341e-06
1.6036e-06
1.60554e-06
1.60531e-06
1.60344e-06
1.60356e-06
1.60366e-06
1.60364e-06
1.60363e-06
1.6036e-06
1.60553e-06
1.60552e-06
1.60531e-06
1.60361e-06
1.60563e-06
1.60554e-06
1.58642e-06
1.58625e-06
1.58607e-06
1.58391e-06
1.5838e-06
1.58371e-06
1.5839e-06
1.58603e-06
1.58629e-06
1.58608e-06
1.58319e-06
1.5802e-06
1.5802e-06
1.5802e-06
1.5802e-06
1.58359e-06
1.58443e-06
1.58391e-06
1.5802e-06
1.5802e-06
1.5802e-06
1.5802e-06
1.5802e-06
1.5802e-06
1.58454e-06
1.5865e-06
1.58642e-06
1.5838e-06
1.5802e-06
1.5802e-06
1.5802e-06
1.5802e-06
1.5802e-06
1.5802e-06
1.58464e-06
1.5863e-06
1.58625e-06
1.58371e-06
1.5802e-06
1.5802e-06
1.5802e-06
1.5802e-06
1.5802e-06
1.5802e-06
1.58463e-06
1.5846e-06
1.5839e-06
1.5802e-06
1.5802e-06
1.5802e-06
1.5802e-06
1.5802e-06
1.5802e-06
1.58461e-06
1.58662e-06
1.58603e-06
1.58359e-06
1.5802e-06
1.5802e-06
1.5802e-06
1.5802e-06
1.5844e-06
1.58459e-06
1.58653e-06
1.58629e-06
1.58443e-06
1.58454e-06
1.58464e-06
1.58463e-06
1.58461e-06
1.58459e-06
1.58651e-06
1.58651e-06
1.5863e-06
1.5846e-06
1.58662e-06
1.58653e-06
1.56741e-06
1.56724e-06
1.56706e-06
1.56489e-06
1.56478e-06
1.56469e-06
1.56488e-06
1.56701e-06
1.56727e-06
1.56706e-06
1.56417e-06
1.56118e-06
1.56118e-06
1.56118e-06
1.56118e-06
1.56458e-06
1.56541e-06
1.56489e-06
1.56118e-06
1.56118e-06
1.56118e-06
1.56118e-06
1.56118e-06
1.56118e-06
1.56553e-06
1.56749e-06
1.56741e-06
1.56478e-06
1.56118e-06
1.56118e-06
1.56118e-06
1.56118e-06
1.56118e-06
1.56118e-06
1.56563e-06
1.56728e-06
1.56724e-06
1.56469e-06
1.56118e-06
1.56118e-06
1.56118e-06
1.56118e-06
1.56118e-06
1.56118e-06
1.56561e-06
1.56558e-06
1.56488e-06
1.56118e-06
1.56118e-06
1.56118e-06
1.56118e-06
1.56118e-06
1.56118e-06
1.5656e-06
1.5676e-06
1.56701e-06
1.56458e-06
1.56118e-06
1.56118e-06
1.56118e-06
1.56118e-06
1.56538e-06
1.56557e-06
1.56751e-06
1.56728e-06
1.56541e-06
1.56553e-06
1.56563e-06
1.56561e-06
1.5656e-06
1.56557e-06
1.5675e-06
1.56749e-06
1.56728e-06
1.56558e-06
1.5676e-06
1.56751e-06
1.54839e-06
1.54822e-06
1.54804e-06
1.54588e-06
1.54577e-06
1.54568e-06
1.54587e-06
1.548e-06
1.54826e-06
1.54804e-06
1.54516e-06
1.54217e-06
1.54217e-06
1.54217e-06
1.54217e-06
1.54556e-06
1.5464e-06
1.54588e-06
1.54217e-06
1.54217e-06
1.54217e-06
1.54217e-06
1.54217e-06
1.54217e-06
1.54651e-06
1.54847e-06
1.54839e-06
1.54577e-06
1.54217e-06
1.54217e-06
1.54217e-06
1.54217e-06
1.54217e-06
1.54217e-06
1.54661e-06
1.54826e-06
1.54822e-06
1.54568e-06
1.54217e-06
1.54217e-06
1.54217e-06
1.54217e-06
1.54217e-06
1.54217e-06
1.5466e-06
1.54657e-06
1.54587e-06
1.54217e-06
1.54217e-06
1.54217e-06
1.54217e-06
1.54217e-06
1.54217e-06
1.54658e-06
1.54858e-06
1.548e-06
1.54556e-06
1.54217e-06
1.54217e-06
1.54217e-06
1.54217e-06
1.54636e-06
1.54655e-06
1.54849e-06
1.54826e-06
1.5464e-06
1.54651e-06
1.54661e-06
1.54659e-06
1.54658e-06
1.54656e-06
1.54848e-06
1.54847e-06
1.54827e-06
1.54657e-06
1.54858e-06
1.5485e-06
1.52938e-06
1.52921e-06
1.52903e-06
1.52686e-06
1.52675e-06
1.52666e-06
1.52685e-06
1.52898e-06
1.52924e-06
1.52903e-06
1.52614e-06
1.52315e-06
1.52315e-06
1.52315e-06
1.52315e-06
1.52655e-06
1.52738e-06
1.52686e-06
1.52315e-06
1.52315e-06
1.52315e-06
1.52315e-06
1.52315e-06
1.52315e-06
1.52749e-06
1.52946e-06
1.52938e-06
1.52675e-06
1.52315e-06
1.52315e-06
1.52315e-06
1.52315e-06
1.52315e-06
1.52315e-06
1.5276e-06
1.52925e-06
1.52921e-06
1.52666e-06
1.52315e-06
1.52315e-06
1.52315e-06
1.52315e-06
1.52315e-06
1.52315e-06
1.52758e-06
1.52755e-06
1.52685e-06
1.52315e-06
1.52315e-06
1.52315e-06
1.52315e-06
1.52315e-06
1.52315e-06
1.52757e-06
1.52957e-06
1.52898e-06
1.52655e-06
1.52315e-06
1.52315e-06
1.52315e-06
1.52315e-06
1.52735e-06
1.52754e-06
1.52948e-06
1.52924e-06
1.52738e-06
1.52749e-06
1.5276e-06
1.52758e-06
1.52756e-06
1.52754e-06
1.52946e-06
1.52946e-06
1.52925e-06
1.52755e-06
1.52957e-06
1.52948e-06
1.51036e-06
1.51019e-06
1.51001e-06
1.50785e-06
1.50774e-06
1.50764e-06
1.50784e-06
1.50997e-06
1.51023e-06
1.51001e-06
1.50712e-06
1.50414e-06
1.50414e-06
1.50414e-06
1.50414e-06
1.50753e-06
1.50837e-06
1.50784e-06
1.50414e-06
1.50414e-06
1.50414e-06
1.50414e-06
1.50414e-06
1.50414e-06
1.50848e-06
1.51044e-06
1.51036e-06
1.50773e-06
1.50414e-06
1.50414e-06
1.50414e-06
1.50414e-06
1.50414e-06
1.50414e-06
1.50858e-06
1.51023e-06
1.51019e-06
1.50764e-06
1.50414e-06
1.50414e-06
1.50414e-06
1.50414e-06
1.50414e-06
1.50414e-06
1.50856e-06
1.50854e-06
1.50783e-06
1.50414e-06
1.50414e-06
1.50414e-06
1.50414e-06
1.50414e-06
1.50414e-06
1.50855e-06
1.51055e-06
1.50997e-06
1.50753e-06
1.50414e-06
1.50414e-06
1.50414e-06
1.50414e-06
1.50833e-06
1.50852e-06
1.51046e-06
1.51023e-06
1.50837e-06
1.50848e-06
1.50858e-06
1.50856e-06
1.50855e-06
1.50852e-06
1.51045e-06
1.51044e-06
1.51023e-06
1.50854e-06
1.51055e-06
1.51046e-06
1.49135e-06
1.49118e-06
1.491e-06
1.48883e-06
1.48872e-06
1.48863e-06
1.48882e-06
1.49095e-06
1.49121e-06
1.491e-06
1.48811e-06
1.48512e-06
1.48512e-06
1.48512e-06
1.48512e-06
1.48852e-06
1.48935e-06
1.48883e-06
1.48512e-06
1.48512e-06
1.48512e-06
1.48512e-06
1.48512e-06
1.48512e-06
1.48947e-06
1.49143e-06
1.49135e-06
1.48872e-06
1.48512e-06
1.48512e-06
1.48512e-06
1.48512e-06
1.48512e-06
1.48512e-06
1.48957e-06
1.49122e-06
1.49118e-06
1.48863e-06
1.48512e-06
1.48512e-06
1.48512e-06
1.48512e-06
1.48512e-06
1.48512e-06
1.48955e-06
1.48952e-06
1.48882e-06
1.48512e-06
1.48512e-06
1.48512e-06
1.48512e-06
1.48512e-06
1.48512e-06
1.48954e-06
1.49154e-06
1.49095e-06
1.48852e-06
1.48512e-06
1.48512e-06
1.48512e-06
1.48512e-06
1.48932e-06
1.48951e-06
1.49145e-06
1.49121e-06
1.48935e-06
1.48946e-06
1.48957e-06
1.48955e-06
1.48954e-06
1.48951e-06
1.49144e-06
1.49143e-06
1.49122e-06
1.48952e-06
1.49154e-06
1.49145e-06
1.47233e-06
1.47216e-06
1.47198e-06
1.46982e-06
1.46971e-06
1.46962e-06
1.46981e-06
1.47194e-06
1.4722e-06
1.47198e-06
1.4691e-06
1.46611e-06
1.46611e-06
1.46611e-06
1.46611e-06
1.4695e-06
1.47034e-06
1.46982e-06
1.46611e-06
1.46611e-06
1.46611e-06
1.46611e-06
1.46611e-06
1.46611e-06
1.47045e-06
1.47241e-06
1.47233e-06
1.46971e-06
1.46611e-06
1.46611e-06
1.46611e-06
1.46611e-06
1.46611e-06
1.46611e-06
1.47055e-06
1.47221e-06
1.47216e-06
1.46962e-06
1.46611e-06
1.46611e-06
1.46611e-06
1.46611e-06
1.46611e-06
1.46611e-06
1.47054e-06
1.47051e-06
1.46981e-06
1.46611e-06
1.46611e-06
1.46611e-06
1.46611e-06
1.46611e-06
1.46611e-06
1.47052e-06
1.47253e-06
1.47194e-06
1.4695e-06
1.46611e-06
1.46611e-06
1.46611e-06
1.46611e-06
1.47031e-06
1.4705e-06
1.47244e-06
1.4722e-06
1.47034e-06
1.47045e-06
1.47055e-06
1.47054e-06
1.47052e-06
1.4705e-06
1.47242e-06
1.47241e-06
1.47221e-06
1.47051e-06
1.47252e-06
1.47244e-06
1.45332e-06
1.45315e-06
1.45297e-06
1.4508e-06
1.45069e-06
1.4506e-06
1.45079e-06
1.45292e-06
1.45319e-06
1.45297e-06
1.45008e-06
1.44709e-06
1.44709e-06
1.44709e-06
1.4471e-06
1.45049e-06
1.45132e-06
1.4508e-06
1.44709e-06
1.44709e-06
1.44709e-06
1.44709e-06
1.4471e-06
1.4471e-06
1.45144e-06
1.4534e-06
1.45332e-06
1.45069e-06
1.44709e-06
1.44709e-06
1.44709e-06
1.44709e-06
1.44709e-06
1.4471e-06
1.45154e-06
1.45319e-06
1.45315e-06
1.4506e-06
1.44709e-06
1.44709e-06
1.44709e-06
1.44709e-06
1.44709e-06
1.44709e-06
1.45152e-06
1.45149e-06
1.45079e-06
1.44709e-06
1.44709e-06
1.44709e-06
1.44709e-06
1.44709e-06
1.44709e-06
1.45151e-06
1.45351e-06
1.45292e-06
1.45049e-06
1.44709e-06
1.44709e-06
1.44709e-06
1.44709e-06
1.45129e-06
1.45148e-06
1.45342e-06
1.45319e-06
1.45132e-06
1.45144e-06
1.45154e-06
1.45152e-06
1.45151e-06
1.45148e-06
1.45341e-06
1.4534e-06
1.45319e-06
1.45149e-06
1.45351e-06
1.45342e-06
1.4343e-06
1.43413e-06
1.43395e-06
1.43179e-06
1.43168e-06
1.43159e-06
1.43178e-06
1.43391e-06
1.43417e-06
1.43395e-06
1.43107e-06
1.42808e-06
1.42808e-06
1.42808e-06
1.42808e-06
1.43147e-06
1.43231e-06
1.43179e-06
1.42808e-06
1.42808e-06
1.42808e-06
1.42808e-06
1.42808e-06
1.42808e-06
1.43242e-06
1.43438e-06
1.4343e-06
1.43168e-06
1.42808e-06
1.42808e-06
1.42808e-06
1.42808e-06
1.42808e-06
1.42808e-06
1.43252e-06
1.43418e-06
1.43413e-06
1.43159e-06
1.42808e-06
1.42808e-06
1.42808e-06
1.42808e-06
1.42808e-06
1.42808e-06
1.43251e-06
1.43248e-06
1.43178e-06
1.42808e-06
1.42808e-06
1.42808e-06
1.42808e-06
1.42808e-06
1.42808e-06
1.43249e-06
1.4345e-06
1.43391e-06
1.43147e-06
1.42808e-06
1.42808e-06
1.42808e-06
1.42808e-06
1.43228e-06
1.43247e-06
1.43441e-06
1.43417e-06
1.43231e-06
1.43242e-06
1.43252e-06
1.43251e-06
1.43249e-06
1.43247e-06
1.43439e-06
1.43439e-06
1.43418e-06
1.43248e-06
1.4345e-06
1.43441e-06
1.41529e-06
1.41512e-06
1.41494e-06
1.41277e-06
1.41266e-06
1.41257e-06
1.41276e-06
1.4149e-06
1.41516e-06
1.41494e-06
1.41205e-06
1.40906e-06
1.40906e-06
1.40906e-06
1.40906e-06
1.41246e-06
1.41329e-06
1.41277e-06
1.40906e-06
1.40906e-06
1.40906e-06
1.40906e-06
1.40906e-06
1.40906e-06
1.41341e-06
1.41537e-06
1.41529e-06
1.41266e-06
1.40906e-06
1.40906e-06
1.40906e-06
1.40906e-06
1.40906e-06
1.40906e-06
1.41351e-06
1.41516e-06
1.41512e-06
1.41257e-06
1.40906e-06
1.40906e-06
1.40906e-06
1.40906e-06
1.40906e-06
1.40906e-06
1.41349e-06
1.41346e-06
1.41276e-06
1.40906e-06
1.40906e-06
1.40906e-06
1.40906e-06
1.40906e-06
1.40906e-06
1.41348e-06
1.41548e-06
1.41489e-06
1.41246e-06
1.40906e-06
1.40906e-06
1.40906e-06
1.40906e-06
1.41326e-06
1.41345e-06
1.41539e-06
1.41516e-06
1.41329e-06
1.41341e-06
1.41351e-06
1.41349e-06
1.41348e-06
1.41345e-06
1.41538e-06
1.41537e-06
1.41516e-06
1.41346e-06
1.41548e-06
1.41539e-06
1.39627e-06
1.3961e-06
1.39592e-06
1.39376e-06
1.39365e-06
1.39356e-06
1.39375e-06
1.39588e-06
1.39614e-06
1.39592e-06
1.39304e-06
1.39005e-06
1.39005e-06
1.39005e-06
1.39005e-06
1.39344e-06
1.39428e-06
1.39376e-06
1.39005e-06
1.39005e-06
1.39005e-06
1.39005e-06
1.39005e-06
1.39005e-06
1.39439e-06
1.39635e-06
1.39627e-06
1.39365e-06
1.39005e-06
1.39005e-06
1.39005e-06
1.39005e-06
1.39005e-06
1.39005e-06
1.39449e-06
1.39615e-06
1.3961e-06
1.39356e-06
1.39005e-06
1.39005e-06
1.39005e-06
1.39005e-06
1.39005e-06
1.39005e-06
1.39448e-06
1.39445e-06
1.39375e-06
1.39005e-06
1.39005e-06
1.39005e-06
1.39005e-06
1.39005e-06
1.39005e-06
1.39446e-06
1.39647e-06
1.39588e-06
1.39344e-06
1.39005e-06
1.39005e-06
1.39005e-06
1.39005e-06
1.39425e-06
1.39444e-06
1.39638e-06
1.39614e-06
1.39428e-06
1.39439e-06
1.39449e-06
1.39448e-06
1.39446e-06
1.39444e-06
1.39636e-06
1.39635e-06
1.39615e-06
1.39445e-06
1.39646e-06
1.39638e-06
1.37726e-06
1.37709e-06
1.37691e-06
1.37474e-06
1.37463e-06
1.37454e-06
1.37473e-06
1.37686e-06
1.37712e-06
1.37691e-06
1.37402e-06
1.37103e-06
1.37103e-06
1.37103e-06
1.37103e-06
1.37443e-06
1.37526e-06
1.37474e-06
1.37103e-06
1.37103e-06
1.37103e-06
1.37103e-06
1.37103e-06
1.37103e-06
1.37538e-06
1.37734e-06
1.37726e-06
1.37463e-06
1.37103e-06
1.37103e-06
1.37103e-06
1.37103e-06
1.37103e-06
1.37103e-06
1.37548e-06
1.37713e-06
1.37709e-06
1.37454e-06
1.37103e-06
1.37103e-06
1.37103e-06
1.37103e-06
1.37103e-06
1.37103e-06
1.37546e-06
1.37543e-06
1.37473e-06
1.37103e-06
1.37103e-06
1.37103e-06
1.37103e-06
1.37103e-06
1.37103e-06
1.37545e-06
1.37745e-06
1.37686e-06
1.37443e-06
1.37103e-06
1.37103e-06
1.37103e-06
1.37103e-06
1.37523e-06
1.37542e-06
1.37736e-06
1.37712e-06
1.37526e-06
1.37538e-06
1.37548e-06
1.37546e-06
1.37545e-06
1.37542e-06
1.37735e-06
1.37734e-06
1.37713e-06
1.37543e-06
1.37745e-06
1.37736e-06
1.35824e-06
1.35807e-06
1.35789e-06
1.35572e-06
1.35562e-06
1.35552e-06
1.35572e-06
1.35785e-06
1.35811e-06
1.35789e-06
1.355e-06
1.35202e-06
1.35202e-06
1.35202e-06
1.35202e-06
1.35541e-06
1.35625e-06
1.35573e-06
1.35202e-06
1.35202e-06
1.35202e-06
1.35202e-06
1.35202e-06
1.35202e-06
1.35636e-06
1.35832e-06
1.35824e-06
1.35562e-06
1.35202e-06
1.35202e-06
1.35202e-06
1.35202e-06
1.35202e-06
1.35202e-06
1.35646e-06
1.35811e-06
1.35807e-06
1.35552e-06
1.35202e-06
1.35202e-06
1.35202e-06
1.35202e-06
1.35202e-06
1.35202e-06
1.35644e-06
1.35642e-06
1.35571e-06
1.35202e-06
1.35202e-06
1.35202e-06
1.35202e-06
1.35202e-06
1.35202e-06
1.35643e-06
1.35843e-06
1.35785e-06
1.35541e-06
1.35202e-06
1.35202e-06
1.35202e-06
1.35202e-06
1.35621e-06
1.3564e-06
1.35834e-06
1.35811e-06
1.35625e-06
1.35636e-06
1.35646e-06
1.35644e-06
1.35643e-06
1.3564e-06
1.35833e-06
1.35832e-06
1.35811e-06
1.35642e-06
1.35843e-06
1.35834e-06
1.33922e-06
1.33905e-06
1.33887e-06
1.33671e-06
1.3366e-06
1.33651e-06
1.3367e-06
1.33883e-06
1.33909e-06
1.33888e-06
1.33599e-06
1.333e-06
1.333e-06
1.333e-06
1.333e-06
1.33639e-06
1.33723e-06
1.33671e-06
1.333e-06
1.333e-06
1.333e-06
1.333e-06
1.333e-06
1.333e-06
1.33734e-06
1.3393e-06
1.33922e-06
1.3366e-06
1.333e-06
1.333e-06
1.333e-06
1.333e-06
1.333e-06
1.333e-06
1.33745e-06
1.3391e-06
1.33905e-06
1.33651e-06
1.333e-06
1.333e-06
1.333e-06
1.333e-06
1.333e-06
1.333e-06
1.33743e-06
1.3374e-06
1.3367e-06
1.333e-06
1.333e-06
1.333e-06
1.333e-06
1.333e-06
1.333e-06
1.33741e-06
1.33942e-06
1.33883e-06
1.33639e-06
1.333e-06
1.333e-06
1.333e-06
1.333e-06
1.3372e-06
1.33739e-06
1.33933e-06
1.33909e-06
1.33723e-06
1.33734e-06
1.33744e-06
1.33743e-06
1.33741e-06
1.33739e-06
1.33931e-06
1.33931e-06
1.3391e-06
1.3374e-06
1.33942e-06
1.33933e-06
1.32021e-06
1.32004e-06
1.31986e-06
1.31769e-06
1.31758e-06
1.31749e-06
1.31768e-06
1.31982e-06
1.32008e-06
1.31986e-06
1.31697e-06
1.31399e-06
1.31398e-06
1.31398e-06
1.31399e-06
1.31738e-06
1.31821e-06
1.31769e-06
1.31399e-06
1.31399e-06
1.31399e-06
1.31399e-06
1.31399e-06
1.31399e-06
1.31833e-06
1.32029e-06
1.32021e-06
1.31758e-06
1.31399e-06
1.31399e-06
1.31399e-06
1.31399e-06
1.31399e-06
1.31399e-06
1.31843e-06
1.32008e-06
1.32004e-06
1.31749e-06
1.31399e-06
1.31399e-06
1.31399e-06
1.31399e-06
1.31399e-06
1.31399e-06
1.31841e-06
1.31838e-06
1.31768e-06
1.31399e-06
1.31399e-06
1.31399e-06
1.31399e-06
1.31399e-06
1.31399e-06
1.3184e-06
1.3204e-06
1.31981e-06
1.31738e-06
1.31399e-06
1.31399e-06
1.31399e-06
1.31399e-06
1.31818e-06
1.31837e-06
1.32031e-06
1.32008e-06
1.31821e-06
1.31833e-06
1.31843e-06
1.31841e-06
1.3184e-06
1.31837e-06
1.3203e-06
1.32029e-06
1.32008e-06
1.31838e-06
1.3204e-06
1.32031e-06
1.30119e-06
1.30102e-06
1.30084e-06
1.29868e-06
1.29857e-06
1.29848e-06
1.29867e-06
1.3008e-06
1.30106e-06
1.30084e-06
1.29796e-06
1.29497e-06
1.29497e-06
1.29497e-06
1.29497e-06
1.29836e-06
1.2992e-06
1.29868e-06
1.29497e-06
1.29497e-06
1.29497e-06
1.29497e-06
1.29497e-06
1.29497e-06
1.29931e-06
1.30127e-06
1.30119e-06
1.29857e-06
1.29497e-06
1.29497e-06
1.29497e-06
1.29497e-06
1.29497e-06
1.29497e-06
1.29941e-06
1.30107e-06
1.30102e-06
1.29848e-06
1.29497e-06
1.29497e-06
1.29497e-06
1.29497e-06
1.29497e-06
1.29497e-06
1.2994e-06
1.29937e-06
1.29867e-06
1.29497e-06
1.29497e-06
1.29497e-06
1.29497e-06
1.29497e-06
1.29497e-06
1.29938e-06
1.30139e-06
1.3008e-06
1.29836e-06
1.29497e-06
1.29497e-06
1.29497e-06
1.29497e-06
1.29917e-06
1.29936e-06
1.3013e-06
1.30106e-06
1.2992e-06
1.29931e-06
1.29941e-06
1.2994e-06
1.29938e-06
1.29936e-06
1.30128e-06
1.30128e-06
1.30107e-06
1.29937e-06
1.30138e-06
1.3013e-06
1.28218e-06
1.28201e-06
1.28183e-06
1.27966e-06
1.27955e-06
1.27946e-06
1.27965e-06
1.28178e-06
1.28205e-06
1.28183e-06
1.27894e-06
1.27595e-06
1.27595e-06
1.27595e-06
1.27595e-06
1.27935e-06
1.28018e-06
1.27966e-06
1.27595e-06
1.27595e-06
1.27595e-06
1.27595e-06
1.27595e-06
1.27595e-06
1.2803e-06
1.28226e-06
1.28218e-06
1.27955e-06
1.27595e-06
1.27595e-06
1.27595e-06
1.27595e-06
1.27595e-06
1.27595e-06
1.2804e-06
1.28205e-06
1.28201e-06
1.27946e-06
1.27595e-06
1.27595e-06
1.27595e-06
1.27595e-06
1.27595e-06
1.27595e-06
1.28038e-06
1.28035e-06
1.27965e-06
1.27595e-06
1.27595e-06
1.27595e-06
1.27595e-06
1.27595e-06
1.27595e-06
1.28037e-06
1.28237e-06
1.28178e-06
1.27935e-06
1.27595e-06
1.27595e-06
1.27595e-06
1.27595e-06
1.28015e-06
1.28034e-06
1.28228e-06
1.28205e-06
1.28018e-06
1.2803e-06
1.2804e-06
1.28038e-06
1.28037e-06
1.28034e-06
1.28227e-06
1.28226e-06
1.28205e-06
1.28035e-06
1.28237e-06
1.28228e-06
1.26316e-06
1.26299e-06
1.26281e-06
1.26065e-06
1.26054e-06
1.26045e-06
1.26064e-06
1.26277e-06
1.26303e-06
1.26281e-06
1.25993e-06
1.25694e-06
1.25694e-06
1.25694e-06
1.25694e-06
1.26033e-06
1.26117e-06
1.26065e-06
1.25694e-06
1.25694e-06
1.25694e-06
1.25694e-06
1.25694e-06
1.25694e-06
1.26128e-06
1.26324e-06
1.26316e-06
1.26054e-06
1.25694e-06
1.25694e-06
1.25694e-06
1.25694e-06
1.25694e-06
1.25694e-06
1.26138e-06
1.26304e-06
1.26299e-06
1.26045e-06
1.25694e-06
1.25694e-06
1.25694e-06
1.25694e-06
1.25694e-06
1.25694e-06
1.26137e-06
1.26134e-06
1.26064e-06
1.25694e-06
1.25694e-06
1.25694e-06
1.25694e-06
1.25694e-06
1.25694e-06
1.26135e-06
1.26336e-06
1.26277e-06
1.26033e-06
1.25694e-06
1.25694e-06
1.25694e-06
1.25694e-06
1.26114e-06
1.26133e-06
1.26327e-06
1.26303e-06
1.26117e-06
1.26128e-06
1.26138e-06
1.26137e-06
1.26135e-06
1.26133e-06
1.26325e-06
1.26324e-06
1.26304e-06
1.26134e-06
1.26335e-06
1.26327e-06
1.24415e-06
1.24398e-06
1.2438e-06
1.24163e-06
1.24152e-06
1.24143e-06
1.24162e-06
1.24375e-06
1.24401e-06
1.2438e-06
1.24091e-06
1.23792e-06
1.23792e-06
1.23792e-06
1.23792e-06
1.24132e-06
1.24215e-06
1.24163e-06
1.23792e-06
1.23792e-06
1.23792e-06
1.23792e-06
1.23792e-06
1.23792e-06
1.24227e-06
1.24423e-06
1.24415e-06
1.24152e-06
1.23792e-06
1.23792e-06
1.23792e-06
1.23792e-06
1.23792e-06
1.23792e-06
1.24237e-06
1.24402e-06
1.24398e-06
1.24143e-06
1.23792e-06
1.23792e-06
1.23792e-06
1.23792e-06
1.23792e-06
1.23792e-06
1.24235e-06
1.24232e-06
1.24162e-06
1.23792e-06
1.23792e-06
1.23792e-06
1.23792e-06
1.23792e-06
1.23792e-06
1.24234e-06
1.24434e-06
1.24375e-06
1.24132e-06
1.23792e-06
1.23792e-06
1.23792e-06
1.23792e-06
1.24212e-06
1.24231e-06
1.24425e-06
1.24402e-06