/*--------------------------------*- C++ -*----------------------------------*\
| =========                 |                                                 |
| \\      /  F ield         | OpenFOAM: The Open Source CFD Toolbox           |
|  \\    /   O peration     | Version:  v2012                                 |
|   \\  /    A nd           | Website:  www.openfoam.com                      |
|    \\/     M anipulation  |                                                 |
\*---------------------------------------------------------------------------*/
FoamFile
{
    version     2.0;
    format      ascii;
    class       volScalarField;
    location    "950.5";
    object      p;
}
// * * * * * * * * * * * * * * * * * * * * * * * * * * * * * * * * * * * * * //

dimensions      [0 2 -2 0 0 0 0];


internalField   nonuniform List<scalar> 
247104
(
3.41545e-07
3.41536e-07
3.41589e-07
3.41641e-07
3.41655e-07
3.41637e-07
3.4159e-07
3.41552e-07
3.41538e-07
3.41621e-07
3.41695e-07
3.41707e-07
3.41706e-07
3.41708e-07
3.41691e-07
3.41614e-07
3.41589e-07
3.41695e-07
3.41701e-07
3.41675e-07
3.41663e-07
3.41678e-07
3.41704e-07
3.41689e-07
3.41591e-07
3.41641e-07
3.41707e-07
3.41675e-07
3.41628e-07
3.4161e-07
3.41633e-07
3.41681e-07
3.41707e-07
3.41628e-07
3.41545e-07
3.41655e-07
3.41706e-07
3.41662e-07
3.4161e-07
3.41591e-07
3.41616e-07
3.4167e-07
3.41708e-07
3.41641e-07
3.41637e-07
3.41707e-07
3.41678e-07
3.41633e-07
3.41616e-07
3.41638e-07
3.41684e-07
3.41707e-07
3.41624e-07
3.41589e-07
3.41691e-07
3.41704e-07
3.41681e-07
3.4167e-07
3.41684e-07
3.41706e-07
3.41684e-07
3.41596e-07
3.41551e-07
3.41614e-07
3.41688e-07
3.41707e-07
3.41708e-07
3.41707e-07
3.41683e-07
3.41614e-07
3.41591e-07
3.41627e-07
3.41641e-07
3.41624e-07
3.41595e-07
3.37388e-07
3.37359e-07
3.37266e-07
3.36983e-07
3.3699e-07
3.37025e-07
3.37051e-07
3.37346e-07
3.37325e-07
3.37266e-07
3.36977e-07
3.3665e-07
3.36637e-07
3.36637e-07
3.3665e-07
3.37104e-07
3.37147e-07
3.36983e-07
3.3665e-07
3.36601e-07
3.36612e-07
3.36613e-07
3.36601e-07
3.3665e-07
3.37381e-07
3.37452e-07
3.37388e-07
3.3699e-07
3.36637e-07
3.36612e-07
3.3662e-07
3.3662e-07
3.36612e-07
3.36637e-07
3.37417e-07
3.3747e-07
3.37359e-07
3.37025e-07
3.36637e-07
3.36612e-07
3.3662e-07
3.3662e-07
3.36612e-07
3.36637e-07
3.37391e-07
3.37231e-07
3.3705e-07
3.3665e-07
3.36601e-07
3.36612e-07
3.36613e-07
3.36601e-07
3.3665e-07
3.37392e-07
3.37517e-07
3.37346e-07
3.37104e-07
3.3665e-07
3.36637e-07
3.36637e-07
3.3665e-07
3.37409e-07
3.37311e-07
3.37408e-07
3.37325e-07
3.37147e-07
3.37381e-07
3.37417e-07
3.37391e-07
3.37391e-07
3.37311e-07
3.3754e-07
3.37452e-07
3.3747e-07
3.37231e-07
3.37517e-07
3.37408e-07
3.33652e-07
3.3365e-07
3.33591e-07
3.3332e-07
3.33329e-07
3.33368e-07
3.3339e-07
3.33642e-07
3.33634e-07
3.33591e-07
3.33327e-07
3.32958e-07
3.32959e-07
3.32959e-07
3.32958e-07
3.33423e-07
3.3347e-07
3.3332e-07
3.32958e-07
3.32959e-07
3.32961e-07
3.32961e-07
3.32959e-07
3.32958e-07
3.33691e-07
3.3372e-07
3.33652e-07
3.33329e-07
3.32959e-07
3.32961e-07
3.32963e-07
3.32963e-07
3.32961e-07
3.32959e-07
3.33721e-07
3.33717e-07
3.3365e-07
3.33368e-07
3.32959e-07
3.32961e-07
3.32963e-07
3.32963e-07
3.32961e-07
3.32959e-07
3.33691e-07
3.33551e-07
3.3339e-07
3.32958e-07
3.32959e-07
3.32961e-07
3.32961e-07
3.32959e-07
3.32958e-07
3.33695e-07
3.3375e-07
3.33642e-07
3.33423e-07
3.32958e-07
3.32959e-07
3.32959e-07
3.32958e-07
3.33677e-07
3.33615e-07
3.33701e-07
3.33634e-07
3.3347e-07
3.33691e-07
3.33721e-07
3.33691e-07
3.33695e-07
3.33615e-07
3.33798e-07
3.3372e-07
3.33717e-07
3.33551e-07
3.3375e-07
3.33701e-07
3.30034e-07
3.30032e-07
3.29974e-07
3.29701e-07
3.2971e-07
3.29749e-07
3.29772e-07
3.30026e-07
3.30017e-07
3.29974e-07
3.29709e-07
3.29343e-07
3.29342e-07
3.29342e-07
3.29343e-07
3.29806e-07
3.29852e-07
3.29701e-07
3.29343e-07
3.29341e-07
3.29342e-07
3.29342e-07
3.29341e-07
3.29343e-07
3.30074e-07
3.30104e-07
3.30034e-07
3.2971e-07
3.29342e-07
3.29342e-07
3.29343e-07
3.29343e-07
3.29342e-07
3.29342e-07
3.30104e-07
3.30101e-07
3.30032e-07
3.29749e-07
3.29342e-07
3.29342e-07
3.29343e-07
3.29343e-07
3.29342e-07
3.29342e-07
3.30074e-07
3.29933e-07
3.29771e-07
3.29343e-07
3.29341e-07
3.29342e-07
3.29342e-07
3.29341e-07
3.29343e-07
3.30078e-07
3.30134e-07
3.30026e-07
3.29806e-07
3.29343e-07
3.29342e-07
3.29342e-07
3.29343e-07
3.30062e-07
3.29998e-07
3.30085e-07
3.30017e-07
3.29852e-07
3.30074e-07
3.30104e-07
3.30074e-07
3.30078e-07
3.29998e-07
3.30182e-07
3.30104e-07
3.30101e-07
3.29933e-07
3.30134e-07
3.30085e-07
3.26419e-07
3.26417e-07
3.26358e-07
3.26085e-07
3.26094e-07
3.26133e-07
3.26156e-07
3.2641e-07
3.26402e-07
3.26358e-07
3.26093e-07
3.25726e-07
3.25725e-07
3.25725e-07
3.25726e-07
3.2619e-07
3.26236e-07
3.26085e-07
3.25726e-07
3.25724e-07
3.25725e-07
3.25725e-07
3.25724e-07
3.25726e-07
3.26459e-07
3.26488e-07
3.26419e-07
3.26094e-07
3.25725e-07
3.25725e-07
3.25726e-07
3.25726e-07
3.25725e-07
3.25725e-07
3.26488e-07
3.26485e-07
3.26417e-07
3.26133e-07
3.25725e-07
3.25725e-07
3.25726e-07
3.25726e-07
3.25725e-07
3.25725e-07
3.26458e-07
3.26317e-07
3.26156e-07
3.25726e-07
3.25724e-07
3.25725e-07
3.25725e-07
3.25724e-07
3.25726e-07
3.26463e-07
3.26519e-07
3.2641e-07
3.2619e-07
3.25726e-07
3.25725e-07
3.25725e-07
3.25726e-07
3.26446e-07
3.26382e-07
3.26469e-07
3.26402e-07
3.26236e-07
3.26459e-07
3.26488e-07
3.26458e-07
3.26463e-07
3.26382e-07
3.26567e-07
3.26488e-07
3.26485e-07
3.26317e-07
3.26519e-07
3.26469e-07
3.22803e-07
3.22801e-07
3.22742e-07
3.22469e-07
3.22478e-07
3.22517e-07
3.22539e-07
3.22794e-07
3.22786e-07
3.22742e-07
3.22477e-07
3.2211e-07
3.22109e-07
3.22109e-07
3.2211e-07
3.22574e-07
3.2262e-07
3.22469e-07
3.2211e-07
3.22108e-07
3.22108e-07
3.22108e-07
3.22108e-07
3.2211e-07
3.22843e-07
3.22872e-07
3.22803e-07
3.22478e-07
3.22109e-07
3.22108e-07
3.22109e-07
3.22109e-07
3.22108e-07
3.22109e-07
3.22872e-07
3.22869e-07
3.22801e-07
3.22517e-07
3.22109e-07
3.22108e-07
3.22109e-07
3.22109e-07
3.22108e-07
3.22109e-07
3.22842e-07
3.22701e-07
3.22539e-07
3.2211e-07
3.22108e-07
3.22108e-07
3.22108e-07
3.22108e-07
3.2211e-07
3.22847e-07
3.22903e-07
3.22794e-07
3.22574e-07
3.2211e-07
3.22109e-07
3.22109e-07
3.2211e-07
3.2283e-07
3.22766e-07
3.22853e-07
3.22786e-07
3.2262e-07
3.22843e-07
3.22872e-07
3.22842e-07
3.22847e-07
3.22766e-07
3.22951e-07
3.22872e-07
3.22869e-07
3.22701e-07
3.22903e-07
3.22853e-07
3.19187e-07
3.19185e-07
3.19126e-07
3.18853e-07
3.18862e-07
3.18901e-07
3.18923e-07
3.19178e-07
3.1917e-07
3.19126e-07
3.18861e-07
3.18494e-07
3.18493e-07
3.18493e-07
3.18494e-07
3.18958e-07
3.19004e-07
3.18853e-07
3.18494e-07
3.18492e-07
3.18492e-07
3.18492e-07
3.18492e-07
3.18494e-07
3.19227e-07
3.19256e-07
3.19187e-07
3.18862e-07
3.18493e-07
3.18492e-07
3.18492e-07
3.18492e-07
3.18492e-07
3.18493e-07
3.19256e-07
3.19253e-07
3.19185e-07
3.18901e-07
3.18493e-07
3.18492e-07
3.18492e-07
3.18492e-07
3.18492e-07
3.18493e-07
3.19226e-07
3.19085e-07
3.18923e-07
3.18494e-07
3.18492e-07
3.18492e-07
3.18492e-07
3.18492e-07
3.18494e-07
3.19231e-07
3.19287e-07
3.19178e-07
3.18958e-07
3.18494e-07
3.18493e-07
3.18493e-07
3.18494e-07
3.19214e-07
3.1915e-07
3.19237e-07
3.1917e-07
3.19004e-07
3.19227e-07
3.19256e-07
3.19226e-07
3.19231e-07
3.1915e-07
3.19335e-07
3.19256e-07
3.19253e-07
3.19085e-07
3.19287e-07
3.19237e-07
3.15571e-07
3.15569e-07
3.1551e-07
3.15237e-07
3.15246e-07
3.15285e-07
3.15307e-07
3.15562e-07
3.15554e-07
3.1551e-07
3.15245e-07
3.14878e-07
3.14877e-07
3.14877e-07
3.14878e-07
3.15342e-07
3.15388e-07
3.15237e-07
3.14878e-07
3.14875e-07
3.14875e-07
3.14875e-07
3.14875e-07
3.14878e-07
3.15611e-07
3.1564e-07
3.15571e-07
3.15246e-07
3.14877e-07
3.14875e-07
3.14876e-07
3.14876e-07
3.14875e-07
3.14877e-07
3.1564e-07
3.15637e-07
3.15569e-07
3.15285e-07
3.14877e-07
3.14875e-07
3.14876e-07
3.14876e-07
3.14875e-07
3.14877e-07
3.1561e-07
3.15469e-07
3.15307e-07
3.14878e-07
3.14875e-07
3.14875e-07
3.14875e-07
3.14875e-07
3.14878e-07
3.15615e-07
3.15671e-07
3.15562e-07
3.15342e-07
3.14878e-07
3.14877e-07
3.14877e-07
3.14878e-07
3.15598e-07
3.15534e-07
3.15621e-07
3.15554e-07
3.15388e-07
3.1561e-07
3.1564e-07
3.1561e-07
3.15615e-07
3.15534e-07
3.15719e-07
3.1564e-07
3.15637e-07
3.15469e-07
3.15671e-07
3.15621e-07
3.11955e-07
3.11953e-07
3.11894e-07
3.11621e-07
3.1163e-07
3.11669e-07
3.11691e-07
3.11946e-07
3.11938e-07
3.11894e-07
3.11629e-07
3.11262e-07
3.11261e-07
3.11261e-07
3.11262e-07
3.11726e-07
3.11772e-07
3.11621e-07
3.11262e-07
3.11259e-07
3.11259e-07
3.11259e-07
3.11259e-07
3.11262e-07
3.11994e-07
3.12024e-07
3.11955e-07
3.1163e-07
3.11261e-07
3.11259e-07
3.1126e-07
3.1126e-07
3.11259e-07
3.11261e-07
3.12024e-07
3.12021e-07
3.11953e-07
3.11669e-07
3.11261e-07
3.11259e-07
3.1126e-07
3.1126e-07
3.11259e-07
3.11261e-07
3.11994e-07
3.11853e-07
3.11691e-07
3.11262e-07
3.11259e-07
3.11259e-07
3.11259e-07
3.11259e-07
3.11262e-07
3.11999e-07
3.12055e-07
3.11946e-07
3.11726e-07
3.11262e-07
3.11261e-07
3.11261e-07
3.11262e-07
3.11982e-07
3.11918e-07
3.12005e-07
3.11938e-07
3.11772e-07
3.11994e-07
3.12024e-07
3.11994e-07
3.11999e-07
3.11918e-07
3.12103e-07
3.12024e-07
3.12021e-07
3.11853e-07
3.12055e-07
3.12005e-07
3.08339e-07
3.08337e-07
3.08278e-07
3.08005e-07
3.08014e-07
3.08053e-07
3.08075e-07
3.0833e-07
3.08322e-07
3.08278e-07
3.08013e-07
3.07646e-07
3.07645e-07
3.07645e-07
3.07646e-07
3.0811e-07
3.08156e-07
3.08005e-07
3.07646e-07
3.07643e-07
3.07643e-07
3.07643e-07
3.07643e-07
3.07646e-07
3.08379e-07
3.08408e-07
3.08339e-07
3.08014e-07
3.07645e-07
3.07643e-07
3.07644e-07
3.07644e-07
3.07643e-07
3.07645e-07
3.08408e-07
3.08405e-07
3.08337e-07
3.08053e-07
3.07645e-07
3.07643e-07
3.07644e-07
3.07644e-07
3.07643e-07
3.07645e-07
3.08378e-07
3.08237e-07
3.08075e-07
3.07646e-07
3.07643e-07
3.07643e-07
3.07643e-07
3.07643e-07
3.07646e-07
3.08383e-07
3.08439e-07
3.0833e-07
3.0811e-07
3.07646e-07
3.07645e-07
3.07645e-07
3.07646e-07
3.08366e-07
3.08302e-07
3.08389e-07
3.08322e-07
3.08156e-07
3.08378e-07
3.08408e-07
3.08378e-07
3.08383e-07
3.08302e-07
3.08487e-07
3.08408e-07
3.08405e-07
3.08237e-07
3.08439e-07
3.08389e-07
3.04723e-07
3.04721e-07
3.04662e-07
3.04389e-07
3.04398e-07
3.04437e-07
3.04459e-07
3.04714e-07
3.04706e-07
3.04662e-07
3.04397e-07
3.0403e-07
3.04029e-07
3.04029e-07
3.0403e-07
3.04494e-07
3.0454e-07
3.04389e-07
3.0403e-07
3.04027e-07
3.04027e-07
3.04027e-07
3.04027e-07
3.0403e-07
3.04762e-07
3.04792e-07
3.04723e-07
3.04398e-07
3.04029e-07
3.04027e-07
3.04028e-07
3.04028e-07
3.04027e-07
3.04029e-07
3.04792e-07
3.04789e-07
3.04721e-07
3.04437e-07
3.04029e-07
3.04027e-07
3.04028e-07
3.04028e-07
3.04027e-07
3.04029e-07
3.04762e-07
3.04621e-07
3.04459e-07
3.0403e-07
3.04027e-07
3.04027e-07
3.04027e-07
3.04027e-07
3.0403e-07
3.04767e-07
3.04823e-07
3.04714e-07
3.04494e-07
3.0403e-07
3.04029e-07
3.04029e-07
3.0403e-07
3.0475e-07
3.04686e-07
3.04773e-07
3.04706e-07
3.0454e-07
3.04762e-07
3.04792e-07
3.04762e-07
3.04767e-07
3.04686e-07
3.04871e-07
3.04792e-07
3.04789e-07
3.04621e-07
3.04823e-07
3.04773e-07
3.01107e-07
3.01105e-07
3.01046e-07
3.00773e-07
3.00782e-07
3.00821e-07
3.00843e-07
3.01098e-07
3.0109e-07
3.01046e-07
3.00781e-07
3.00414e-07
3.00413e-07
3.00413e-07
3.00414e-07
3.00878e-07
3.00924e-07
3.00773e-07
3.00414e-07
3.00411e-07
3.00411e-07
3.00411e-07
3.00411e-07
3.00414e-07
3.01146e-07
3.01176e-07
3.01107e-07
3.00782e-07
3.00413e-07
3.00411e-07
3.00412e-07
3.00412e-07
3.00411e-07
3.00413e-07
3.01176e-07
3.01173e-07
3.01105e-07
3.00821e-07
3.00413e-07
3.00411e-07
3.00412e-07
3.00412e-07
3.00411e-07
3.00413e-07
3.01146e-07
3.01005e-07
3.00843e-07
3.00414e-07
3.00411e-07
3.00411e-07
3.00411e-07
3.00411e-07
3.00414e-07
3.01151e-07
3.01207e-07
3.01098e-07
3.00878e-07
3.00414e-07
3.00413e-07
3.00413e-07
3.00414e-07
3.01134e-07
3.0107e-07
3.01157e-07
3.0109e-07
3.00924e-07
3.01146e-07
3.01176e-07
3.01146e-07
3.01151e-07
3.0107e-07
3.01255e-07
3.01176e-07
3.01173e-07
3.01005e-07
3.01207e-07
3.01157e-07
2.97491e-07
2.97489e-07
2.9743e-07
2.97157e-07
2.97166e-07
2.97205e-07
2.97227e-07
2.97482e-07
2.97473e-07
2.9743e-07
2.97165e-07
2.96798e-07
2.96797e-07
2.96797e-07
2.96798e-07
2.97262e-07
2.97308e-07
2.97157e-07
2.96798e-07
2.96795e-07
2.96795e-07
2.96795e-07
2.96795e-07
2.96798e-07
2.9753e-07
2.9756e-07
2.97491e-07
2.97166e-07
2.96797e-07
2.96795e-07
2.96796e-07
2.96796e-07
2.96795e-07
2.96797e-07
2.9756e-07
2.97557e-07
2.97489e-07
2.97205e-07
2.96797e-07
2.96795e-07
2.96796e-07
2.96796e-07
2.96795e-07
2.96797e-07
2.9753e-07
2.97389e-07
2.97227e-07
2.96798e-07
2.96795e-07
2.96795e-07
2.96795e-07
2.96795e-07
2.96798e-07
2.97534e-07
2.9759e-07
2.97482e-07
2.97262e-07
2.96798e-07
2.96797e-07
2.96797e-07
2.96798e-07
2.97518e-07
2.97454e-07
2.97541e-07
2.97474e-07
2.97308e-07
2.9753e-07
2.9756e-07
2.9753e-07
2.97534e-07
2.97454e-07
2.97639e-07
2.9756e-07
2.97557e-07
2.97389e-07
2.9759e-07
2.97541e-07
2.93875e-07
2.93873e-07
2.93814e-07
2.93541e-07
2.9355e-07
2.93589e-07
2.93611e-07
2.93866e-07
2.93857e-07
2.93814e-07
2.93549e-07
2.93182e-07
2.93181e-07
2.93181e-07
2.93182e-07
2.93646e-07
2.93692e-07
2.93541e-07
2.93182e-07
2.93179e-07
2.93179e-07
2.93179e-07
2.93179e-07
2.93182e-07
2.93914e-07
2.93944e-07
2.93875e-07
2.9355e-07
2.93181e-07
2.93179e-07
2.9318e-07
2.9318e-07
2.93179e-07
2.93181e-07
2.93944e-07
2.93941e-07
2.93873e-07
2.93589e-07
2.93181e-07
2.93179e-07
2.9318e-07
2.9318e-07
2.93179e-07
2.93181e-07
2.93914e-07
2.93773e-07
2.93611e-07
2.93182e-07
2.93179e-07
2.93179e-07
2.93179e-07
2.93179e-07
2.93182e-07
2.93918e-07
2.93974e-07
2.93866e-07
2.93646e-07
2.93182e-07
2.93181e-07
2.93181e-07
2.93182e-07
2.93902e-07
2.93838e-07
2.93925e-07
2.93857e-07
2.93692e-07
2.93914e-07
2.93944e-07
2.93914e-07
2.93919e-07
2.93838e-07
2.94023e-07
2.93944e-07
2.93941e-07
2.93773e-07
2.93974e-07
2.93925e-07
2.90259e-07
2.90257e-07
2.90198e-07
2.89925e-07
2.89934e-07
2.89973e-07
2.89995e-07
2.9025e-07
2.90242e-07
2.90198e-07
2.89933e-07
2.89566e-07
2.89565e-07
2.89565e-07
2.89566e-07
2.9003e-07
2.90076e-07
2.89925e-07
2.89566e-07
2.89563e-07
2.89563e-07
2.89563e-07
2.89563e-07
2.89566e-07
2.90298e-07
2.90328e-07
2.90259e-07
2.89934e-07
2.89565e-07
2.89563e-07
2.89564e-07
2.89564e-07
2.89563e-07
2.89565e-07
2.90328e-07
2.90325e-07
2.90257e-07
2.89973e-07
2.89565e-07
2.89563e-07
2.89564e-07
2.89564e-07
2.89563e-07
2.89565e-07
2.90298e-07
2.90157e-07
2.89995e-07
2.89566e-07
2.89563e-07
2.89563e-07
2.89563e-07
2.89563e-07
2.89566e-07
2.90303e-07
2.90359e-07
2.9025e-07
2.9003e-07
2.89566e-07
2.89565e-07
2.89565e-07
2.89566e-07
2.90286e-07
2.90222e-07
2.90309e-07
2.90241e-07
2.90076e-07
2.90298e-07
2.90328e-07
2.90298e-07
2.90303e-07
2.90222e-07
2.90407e-07
2.90328e-07
2.90325e-07
2.90157e-07
2.90358e-07
2.90309e-07
2.86643e-07
2.86641e-07
2.86582e-07
2.86309e-07
2.86318e-07
2.86357e-07
2.86379e-07
2.86634e-07
2.86626e-07
2.86582e-07
2.86317e-07
2.8595e-07
2.85949e-07
2.85949e-07
2.8595e-07
2.86414e-07
2.8646e-07
2.86309e-07
2.8595e-07
2.85947e-07
2.85947e-07
2.85947e-07
2.85947e-07
2.8595e-07
2.86682e-07
2.86712e-07
2.86643e-07
2.86318e-07
2.85949e-07
2.85947e-07
2.85948e-07
2.85948e-07
2.85947e-07
2.85949e-07
2.86712e-07
2.86709e-07
2.86641e-07
2.86357e-07
2.85949e-07
2.85947e-07
2.85948e-07
2.85948e-07
2.85947e-07
2.85949e-07
2.86682e-07
2.86541e-07
2.86379e-07
2.8595e-07
2.85947e-07
2.85947e-07
2.85947e-07
2.85947e-07
2.8595e-07
2.86686e-07
2.86742e-07
2.86634e-07
2.86414e-07
2.8595e-07
2.85949e-07
2.85949e-07
2.8595e-07
2.8667e-07
2.86606e-07
2.86693e-07
2.86625e-07
2.8646e-07
2.86682e-07
2.86712e-07
2.86682e-07
2.86687e-07
2.86606e-07
2.86791e-07
2.86712e-07
2.86709e-07
2.86541e-07
2.86742e-07
2.86693e-07
2.83027e-07
2.83025e-07
2.82966e-07
2.82693e-07
2.82702e-07
2.82741e-07
2.82763e-07
2.83018e-07
2.83009e-07
2.82966e-07
2.82701e-07
2.82334e-07
2.82333e-07
2.82333e-07
2.82334e-07
2.82798e-07
2.82844e-07
2.82693e-07
2.82334e-07
2.82331e-07
2.82331e-07
2.82331e-07
2.82331e-07
2.82334e-07
2.83066e-07
2.83096e-07
2.83027e-07
2.82702e-07
2.82333e-07
2.82331e-07
2.82332e-07
2.82332e-07
2.82331e-07
2.82333e-07
2.83096e-07
2.83093e-07
2.83025e-07
2.82741e-07
2.82333e-07
2.82331e-07
2.82332e-07
2.82332e-07
2.82331e-07
2.82333e-07
2.83066e-07
2.82925e-07
2.82763e-07
2.82334e-07
2.82331e-07
2.82331e-07
2.82331e-07
2.82331e-07
2.82334e-07
2.8307e-07
2.83126e-07
2.83018e-07
2.82798e-07
2.82334e-07
2.82333e-07
2.82333e-07
2.82334e-07
2.83054e-07
2.8299e-07
2.83077e-07
2.83009e-07
2.82844e-07
2.83066e-07
2.83096e-07
2.83066e-07
2.8307e-07
2.8299e-07
2.83175e-07
2.83096e-07
2.83093e-07
2.82925e-07
2.83126e-07
2.83077e-07
2.79411e-07
2.79409e-07
2.7935e-07
2.79077e-07
2.79086e-07
2.79125e-07
2.79147e-07
2.79402e-07
2.79393e-07
2.7935e-07
2.79085e-07
2.78718e-07
2.78716e-07
2.78716e-07
2.78718e-07
2.79182e-07
2.79228e-07
2.79077e-07
2.78718e-07
2.78715e-07
2.78715e-07
2.78715e-07
2.78715e-07
2.78718e-07
2.7945e-07
2.7948e-07
2.79411e-07
2.79085e-07
2.78716e-07
2.78715e-07
2.78716e-07
2.78716e-07
2.78715e-07
2.78716e-07
2.7948e-07
2.79477e-07
2.79409e-07
2.79125e-07
2.78716e-07
2.78715e-07
2.78716e-07
2.78716e-07
2.78715e-07
2.78716e-07
2.7945e-07
2.79309e-07
2.79147e-07
2.78718e-07
2.78715e-07
2.78715e-07
2.78715e-07
2.78715e-07
2.78718e-07
2.79454e-07
2.7951e-07
2.79402e-07
2.79182e-07
2.78718e-07
2.78716e-07
2.78716e-07
2.78718e-07
2.79438e-07
2.79374e-07
2.79461e-07
2.79393e-07
2.79228e-07
2.7945e-07
2.7948e-07
2.7945e-07
2.79454e-07
2.79374e-07
2.79559e-07
2.7948e-07
2.79477e-07
2.79309e-07
2.7951e-07
2.79461e-07
2.75794e-07
2.75793e-07
2.75734e-07
2.75461e-07
2.75469e-07
2.75509e-07
2.75531e-07
2.75786e-07
2.75777e-07
2.75734e-07
2.75469e-07
2.75102e-07
2.751e-07
2.751e-07
2.75102e-07
2.75566e-07
2.75612e-07
2.75461e-07
2.75102e-07
2.75099e-07
2.75099e-07
2.75099e-07
2.75099e-07
2.75102e-07
2.75834e-07
2.75864e-07
2.75794e-07
2.75469e-07
2.751e-07
2.75099e-07
2.751e-07
2.751e-07
2.75099e-07
2.751e-07
2.75864e-07
2.75861e-07
2.75793e-07
2.75509e-07
2.751e-07
2.75099e-07
2.751e-07
2.751e-07
2.75099e-07
2.751e-07
2.75834e-07
2.75693e-07
2.75531e-07
2.75101e-07
2.75099e-07
2.75099e-07
2.75099e-07
2.75099e-07
2.75102e-07
2.75838e-07
2.75894e-07
2.75786e-07
2.75566e-07
2.75101e-07
2.751e-07
2.751e-07
2.75102e-07
2.75822e-07
2.75758e-07
2.75845e-07
2.75777e-07
2.75612e-07
2.75834e-07
2.75864e-07
2.75834e-07
2.75838e-07
2.75758e-07
2.75943e-07
2.75864e-07
2.75861e-07
2.75693e-07
2.75894e-07
2.75845e-07
2.72178e-07
2.72177e-07
2.72118e-07
2.71845e-07
2.71853e-07
2.71893e-07
2.71915e-07
2.7217e-07
2.72161e-07
2.72118e-07
2.71853e-07
2.71486e-07
2.71484e-07
2.71484e-07
2.71486e-07
2.7195e-07
2.71996e-07
2.71845e-07
2.71486e-07
2.71483e-07
2.71483e-07
2.71483e-07
2.71483e-07
2.71486e-07
2.72218e-07
2.72248e-07
2.72178e-07
2.71853e-07
2.71484e-07
2.71483e-07
2.71484e-07
2.71484e-07
2.71483e-07
2.71484e-07
2.72248e-07
2.72245e-07
2.72177e-07
2.71893e-07
2.71484e-07
2.71483e-07
2.71484e-07
2.71484e-07
2.71483e-07
2.71484e-07
2.72218e-07
2.72077e-07
2.71915e-07
2.71486e-07
2.71483e-07
2.71483e-07
2.71483e-07
2.71483e-07
2.71485e-07
2.72222e-07
2.72278e-07
2.7217e-07
2.7195e-07
2.71486e-07
2.71484e-07
2.71484e-07
2.71485e-07
2.72206e-07
2.72142e-07
2.72229e-07
2.72161e-07
2.71996e-07
2.72218e-07
2.72248e-07
2.72218e-07
2.72222e-07
2.72142e-07
2.72327e-07
2.72248e-07
2.72245e-07
2.72077e-07
2.72278e-07
2.72229e-07
2.68562e-07
2.68561e-07
2.68502e-07
2.68229e-07
2.68237e-07
2.68277e-07
2.68299e-07
2.68554e-07
2.68545e-07
2.68502e-07
2.68237e-07
2.6787e-07
2.67869e-07
2.67869e-07
2.6787e-07
2.68334e-07
2.6838e-07
2.68229e-07
2.6787e-07
2.67867e-07
2.67867e-07
2.67867e-07
2.67867e-07
2.6787e-07
2.68602e-07
2.68632e-07
2.68563e-07
2.68238e-07
2.67869e-07
2.67867e-07
2.67868e-07
2.67868e-07
2.67867e-07
2.67869e-07
2.68632e-07
2.68629e-07
2.68561e-07
2.68277e-07
2.67869e-07
2.67867e-07
2.67868e-07
2.67868e-07
2.67867e-07
2.67868e-07
2.68602e-07
2.68461e-07
2.68299e-07
2.6787e-07
2.67867e-07
2.67867e-07
2.67867e-07
2.67867e-07
2.6787e-07
2.68606e-07
2.68662e-07
2.68554e-07
2.68334e-07
2.6787e-07
2.67868e-07
2.67868e-07
2.6787e-07
2.6859e-07
2.68526e-07
2.68613e-07
2.68545e-07
2.6838e-07
2.68602e-07
2.68632e-07
2.68602e-07
2.68606e-07
2.68526e-07
2.68711e-07
2.68632e-07
2.68629e-07
2.68461e-07
2.68662e-07
2.68613e-07
2.64947e-07
2.64945e-07
2.64886e-07
2.64613e-07
2.64622e-07
2.64661e-07
2.64683e-07
2.64938e-07
2.64929e-07
2.64886e-07
2.64621e-07
2.64254e-07
2.64252e-07
2.64252e-07
2.64254e-07
2.64718e-07
2.64764e-07
2.64613e-07
2.64254e-07
2.64251e-07
2.64251e-07
2.64251e-07
2.64251e-07
2.64254e-07
2.64986e-07
2.65016e-07
2.64947e-07
2.64622e-07
2.64252e-07
2.64251e-07
2.64252e-07
2.64252e-07
2.64251e-07
2.64253e-07
2.65016e-07
2.65013e-07
2.64945e-07
2.64661e-07
2.64253e-07
2.64251e-07
2.64252e-07
2.64252e-07
2.64251e-07
2.64253e-07
2.64986e-07
2.64845e-07
2.64683e-07
2.64254e-07
2.64251e-07
2.64251e-07
2.64251e-07
2.64251e-07
2.64254e-07
2.6499e-07
2.65046e-07
2.64938e-07
2.64718e-07
2.64254e-07
2.64253e-07
2.64253e-07
2.64254e-07
2.64974e-07
2.6491e-07
2.64997e-07
2.64929e-07
2.64764e-07
2.64986e-07
2.65016e-07
2.64986e-07
2.6499e-07
2.6491e-07
2.65095e-07
2.65016e-07
2.65013e-07
2.64845e-07
2.65046e-07
2.64997e-07
2.6133e-07
2.61329e-07
2.6127e-07
2.60997e-07
2.61005e-07
2.61045e-07
2.61067e-07
2.61322e-07
2.61313e-07
2.6127e-07
2.61005e-07
2.60638e-07
2.60636e-07
2.60636e-07
2.60638e-07
2.61102e-07
2.61148e-07
2.60997e-07
2.60638e-07
2.60635e-07
2.60635e-07
2.60635e-07
2.60635e-07
2.60638e-07
2.6137e-07
2.614e-07
2.6133e-07
2.61005e-07
2.60636e-07
2.60635e-07
2.60636e-07
2.60636e-07
2.60635e-07
2.60636e-07
2.614e-07
2.61397e-07
2.61329e-07
2.61045e-07
2.60636e-07
2.60635e-07
2.60636e-07
2.60636e-07
2.60635e-07
2.60636e-07
2.6137e-07
2.61229e-07
2.61067e-07
2.60638e-07
2.60635e-07
2.60635e-07
2.60635e-07
2.60635e-07
2.60638e-07
2.61374e-07
2.6143e-07
2.61322e-07
2.61102e-07
2.60638e-07
2.60636e-07
2.60636e-07
2.60638e-07
2.61358e-07
2.61294e-07
2.61381e-07
2.61313e-07
2.61148e-07
2.6137e-07
2.614e-07
2.6137e-07
2.61374e-07
2.61294e-07
2.61479e-07
2.614e-07
2.61397e-07
2.61229e-07
2.6143e-07
2.61381e-07
2.57714e-07
2.57713e-07
2.57654e-07
2.57381e-07
2.57389e-07
2.57429e-07
2.57451e-07
2.57706e-07
2.57697e-07
2.57654e-07
2.57389e-07
2.57021e-07
2.5702e-07
2.5702e-07
2.57021e-07
2.57486e-07
2.57532e-07
2.57381e-07
2.57021e-07
2.57019e-07
2.57019e-07
2.57019e-07
2.57019e-07
2.57021e-07
2.57754e-07
2.57784e-07
2.57714e-07
2.57389e-07
2.5702e-07
2.57019e-07
2.5702e-07
2.5702e-07
2.57019e-07
2.5702e-07
2.57784e-07
2.57781e-07
2.57713e-07
2.57429e-07
2.5702e-07
2.57019e-07
2.5702e-07
2.5702e-07
2.57019e-07
2.5702e-07
2.57754e-07
2.57613e-07
2.57451e-07
2.57021e-07
2.57019e-07
2.57019e-07
2.57019e-07
2.57019e-07
2.57021e-07
2.57758e-07
2.57814e-07
2.57706e-07
2.57486e-07
2.57021e-07
2.5702e-07
2.5702e-07
2.57021e-07
2.57742e-07
2.57678e-07
2.57765e-07
2.57697e-07
2.57532e-07
2.57754e-07
2.57784e-07
2.57754e-07
2.57758e-07
2.57678e-07
2.57863e-07
2.57784e-07
2.57781e-07
2.57613e-07
2.57814e-07
2.57765e-07
2.54098e-07
2.54097e-07
2.54038e-07
2.53765e-07
2.53773e-07
2.53813e-07
2.53835e-07
2.5409e-07
2.54081e-07
2.54038e-07
2.53773e-07
2.53405e-07
2.53404e-07
2.53404e-07
2.53405e-07
2.5387e-07
2.53915e-07
2.53765e-07
2.53405e-07
2.53403e-07
2.53403e-07
2.53403e-07
2.53403e-07
2.53405e-07
2.54138e-07
2.54168e-07
2.54098e-07
2.53773e-07
2.53404e-07
2.53403e-07
2.53404e-07
2.53404e-07
2.53403e-07
2.53404e-07
2.54168e-07
2.54165e-07
2.54096e-07
2.53813e-07
2.53404e-07
2.53403e-07
2.53404e-07
2.53404e-07
2.53403e-07
2.53404e-07
2.54138e-07
2.53997e-07
2.53835e-07
2.53405e-07
2.53403e-07
2.53403e-07
2.53403e-07
2.53403e-07
2.53405e-07
2.54142e-07
2.54198e-07
2.5409e-07
2.5387e-07
2.53405e-07
2.53404e-07
2.53404e-07
2.53405e-07
2.54126e-07
2.54062e-07
2.54149e-07
2.54081e-07
2.53915e-07
2.54138e-07
2.54168e-07
2.54138e-07
2.54142e-07
2.54062e-07
2.54247e-07
2.54168e-07
2.54165e-07
2.53997e-07
2.54198e-07
2.54149e-07
2.50482e-07
2.5048e-07
2.50422e-07
2.50149e-07
2.50157e-07
2.50197e-07
2.50219e-07
2.50474e-07
2.50465e-07
2.50422e-07
2.50157e-07
2.49789e-07
2.49788e-07
2.49788e-07
2.49789e-07
2.50254e-07
2.50299e-07
2.50149e-07
2.49789e-07
2.49787e-07
2.49787e-07
2.49787e-07
2.49787e-07
2.49789e-07
2.50522e-07
2.50552e-07
2.50482e-07
2.50157e-07
2.49788e-07
2.49787e-07
2.49788e-07
2.49788e-07
2.49787e-07
2.49788e-07
2.50552e-07
2.50549e-07
2.5048e-07
2.50197e-07
2.49788e-07
2.49787e-07
2.49788e-07
2.49788e-07
2.49787e-07
2.49788e-07
2.50522e-07
2.50381e-07
2.50219e-07
2.49789e-07
2.49787e-07
2.49787e-07
2.49787e-07
2.49787e-07
2.49789e-07
2.50526e-07
2.50582e-07
2.50474e-07
2.50254e-07
2.49789e-07
2.49788e-07
2.49788e-07
2.49789e-07
2.5051e-07
2.50446e-07
2.50533e-07
2.50465e-07
2.50299e-07
2.50522e-07
2.50552e-07
2.50522e-07
2.50526e-07
2.50446e-07
2.50631e-07
2.50552e-07
2.50549e-07
2.50381e-07
2.50582e-07
2.50533e-07
2.46866e-07
2.46865e-07
2.46806e-07
2.46533e-07
2.46541e-07
2.46581e-07
2.46603e-07
2.46858e-07
2.46849e-07
2.46806e-07
2.46541e-07
2.46174e-07
2.46172e-07
2.46172e-07
2.46174e-07
2.46638e-07
2.46684e-07
2.46533e-07
2.46174e-07
2.46171e-07
2.46171e-07
2.46171e-07
2.46171e-07
2.46174e-07
2.46906e-07
2.46936e-07
2.46866e-07
2.46541e-07
2.46172e-07
2.46171e-07
2.46172e-07
2.46172e-07
2.46171e-07
2.46172e-07
2.46936e-07
2.46933e-07
2.46865e-07
2.46581e-07
2.46172e-07
2.46171e-07
2.46172e-07
2.46172e-07
2.46171e-07
2.46172e-07
2.46906e-07
2.46765e-07
2.46603e-07
2.46174e-07
2.46171e-07
2.46171e-07
2.46171e-07
2.46171e-07
2.46174e-07
2.4691e-07
2.46966e-07
2.46858e-07
2.46638e-07
2.46174e-07
2.46172e-07
2.46172e-07
2.46174e-07
2.46894e-07
2.4683e-07
2.46917e-07
2.46849e-07
2.46684e-07
2.46906e-07
2.46936e-07
2.46906e-07
2.4691e-07
2.4683e-07
2.47015e-07
2.46936e-07
2.46933e-07
2.46765e-07
2.46966e-07
2.46917e-07
2.43251e-07
2.43249e-07
2.4319e-07
2.42917e-07
2.42926e-07
2.42965e-07
2.42987e-07
2.43242e-07
2.43233e-07
2.4319e-07
2.42925e-07
2.42558e-07
2.42557e-07
2.42557e-07
2.42558e-07
2.43022e-07
2.43068e-07
2.42917e-07
2.42558e-07
2.42555e-07
2.42555e-07
2.42555e-07
2.42555e-07
2.42558e-07
2.4329e-07
2.4332e-07
2.43251e-07
2.42926e-07
2.42557e-07
2.42555e-07
2.42556e-07
2.42556e-07
2.42555e-07
2.42557e-07
2.4332e-07
2.43317e-07
2.43249e-07
2.42965e-07
2.42557e-07
2.42555e-07
2.42556e-07
2.42556e-07
2.42555e-07
2.42557e-07
2.4329e-07
2.43149e-07
2.42987e-07
2.42558e-07
2.42555e-07
2.42555e-07
2.42555e-07
2.42555e-07
2.42558e-07
2.43294e-07
2.4335e-07
2.43242e-07
2.43022e-07
2.42558e-07
2.42557e-07
2.42557e-07
2.42558e-07
2.43278e-07
2.43214e-07
2.43301e-07
2.43233e-07
2.43068e-07
2.4329e-07
2.4332e-07
2.4329e-07
2.43294e-07
2.43214e-07
2.43399e-07
2.4332e-07
2.43317e-07
2.43149e-07
2.4335e-07
2.43301e-07
2.39635e-07
2.39633e-07
2.39574e-07
2.39301e-07
2.3931e-07
2.39349e-07
2.39371e-07
2.39626e-07
2.39618e-07
2.39574e-07
2.39309e-07
2.38942e-07
2.38941e-07
2.38941e-07
2.38942e-07
2.39406e-07
2.39452e-07
2.39301e-07
2.38942e-07
2.38939e-07
2.38939e-07
2.38939e-07
2.38939e-07
2.38942e-07
2.39675e-07
2.39704e-07
2.39635e-07
2.3931e-07
2.38941e-07
2.38939e-07
2.3894e-07
2.3894e-07
2.38939e-07
2.38941e-07
2.39704e-07
2.39701e-07
2.39633e-07
2.39349e-07
2.38941e-07
2.38939e-07
2.3894e-07
2.3894e-07
2.38939e-07
2.38941e-07
2.39674e-07
2.39533e-07
2.39371e-07
2.38942e-07
2.38939e-07
2.38939e-07
2.38939e-07
2.38939e-07
2.38942e-07
2.39679e-07
2.39735e-07
2.39626e-07
2.39406e-07
2.38942e-07
2.38941e-07
2.38941e-07
2.38942e-07
2.39662e-07
2.39598e-07
2.39685e-07
2.39618e-07
2.39452e-07
2.39675e-07
2.39704e-07
2.39674e-07
2.39679e-07
2.39598e-07
2.39783e-07
2.39704e-07
2.39701e-07
2.39533e-07
2.39735e-07
2.39685e-07
2.36019e-07
2.36017e-07
2.35958e-07
2.35685e-07
2.35694e-07
2.35733e-07
2.35756e-07
2.3601e-07
2.36002e-07
2.35958e-07
2.35693e-07
2.35326e-07
2.35325e-07
2.35325e-07
2.35326e-07
2.3579e-07
2.35836e-07
2.35685e-07
2.35326e-07
2.35324e-07
2.35323e-07
2.35323e-07
2.35324e-07
2.35326e-07
2.36059e-07
2.36088e-07
2.36019e-07
2.35694e-07
2.35325e-07
2.35323e-07
2.35324e-07
2.35324e-07
2.35323e-07
2.35325e-07
2.36088e-07
2.36085e-07
2.36017e-07
2.35733e-07
2.35325e-07
2.35323e-07
2.35324e-07
2.35324e-07
2.35323e-07
2.35325e-07
2.36058e-07
2.35917e-07
2.35756e-07
2.35326e-07
2.35324e-07
2.35323e-07
2.35323e-07
2.35324e-07
2.35326e-07
2.36063e-07
2.36119e-07
2.3601e-07
2.3579e-07
2.35326e-07
2.35325e-07
2.35325e-07
2.35326e-07
2.36046e-07
2.35982e-07
2.36069e-07
2.36002e-07
2.35836e-07
2.36059e-07
2.36088e-07
2.36058e-07
2.36063e-07
2.35982e-07
2.36167e-07
2.36088e-07
2.36085e-07
2.35917e-07
2.36119e-07
2.36069e-07
2.32403e-07
2.32401e-07
2.32342e-07
2.32069e-07
2.32078e-07
2.32117e-07
2.3214e-07
2.32394e-07
2.32386e-07
2.32342e-07
2.32077e-07
2.3171e-07
2.31709e-07
2.31709e-07
2.3171e-07
2.32174e-07
2.3222e-07
2.32069e-07
2.3171e-07
2.31708e-07
2.31708e-07
2.31708e-07
2.31708e-07
2.3171e-07
2.32443e-07
2.32473e-07
2.32403e-07
2.32078e-07
2.31709e-07
2.31708e-07
2.31708e-07
2.31708e-07
2.31708e-07
2.31709e-07
2.32473e-07
2.3247e-07
2.32401e-07
2.32117e-07
2.31709e-07
2.31708e-07
2.31708e-07
2.31708e-07
2.31708e-07
2.31709e-07
2.32442e-07
2.32301e-07
2.3214e-07
2.3171e-07
2.31708e-07
2.31708e-07
2.31708e-07
2.31708e-07
2.3171e-07
2.32447e-07
2.32503e-07
2.32394e-07
2.32174e-07
2.3171e-07
2.31709e-07
2.31709e-07
2.3171e-07
2.3243e-07
2.32366e-07
2.32453e-07
2.32386e-07
2.3222e-07
2.32443e-07
2.32473e-07
2.32442e-07
2.32447e-07
2.32366e-07
2.32551e-07
2.32473e-07
2.3247e-07
2.32301e-07
2.32503e-07
2.32454e-07
2.28787e-07
2.28785e-07
2.28726e-07
2.28453e-07
2.28462e-07
2.28501e-07
2.28524e-07
2.28778e-07
2.2877e-07
2.28726e-07
2.28461e-07
2.28094e-07
2.28093e-07
2.28093e-07
2.28094e-07
2.28558e-07
2.28604e-07
2.28453e-07
2.28094e-07
2.28092e-07
2.28092e-07
2.28092e-07
2.28092e-07
2.28094e-07
2.28827e-07
2.28857e-07
2.28787e-07
2.28462e-07
2.28093e-07
2.28092e-07
2.28092e-07
2.28092e-07
2.28092e-07
2.28093e-07
2.28857e-07
2.28854e-07
2.28785e-07
2.28501e-07
2.28093e-07
2.28092e-07
2.28092e-07
2.28092e-07
2.28092e-07
2.28093e-07
2.28826e-07
2.28686e-07
2.28524e-07
2.28094e-07
2.28092e-07
2.28092e-07
2.28092e-07
2.28092e-07
2.28094e-07
2.28831e-07
2.28887e-07
2.28779e-07
2.28558e-07
2.28094e-07
2.28093e-07
2.28093e-07
2.28094e-07
2.28814e-07
2.2875e-07
2.28838e-07
2.2877e-07