/*--------------------------------*- C++ -*----------------------------------*\
| =========                 |                                                 |
| \\      /  F ield         | OpenFOAM: The Open Source CFD Toolbox           |
|  \\    /   O peration     | Version:  v2012                                 |
|   \\  /    A nd           | Website:  www.openfoam.com                      |
|    \\/     M anipulation  |                                                 |
\*---------------------------------------------------------------------------*/
FoamFile
{
    version     2.0;
    format      ascii;
    class       volScalarField;
    location    "250";
    object      epsilon;
}
// * * * * * * * * * * * * * * * * * * * * * * * * * * * * * * * * * * * * * //

dimensions      [0 2 -3 0 0 0 0];


internalField   nonuniform List<scalar> 
85864
(
3.26858e-07
8.74579e-07
8.74686e-07
1.16007e-06
3.42984e-07
8.97523e-07
8.97647e-07
1.17811e-06
3.59614e-07
9.20464e-07
9.20553e-07
1.19823e-06
3.76411e-07
9.40947e-07
9.4106e-07
1.21318e-06
3.93337e-07
9.61233e-07
9.61327e-07
1.23076e-06
4.10793e-07
9.79026e-07
9.79182e-07
1.24595e-06
4.27347e-07
9.94229e-07
9.94225e-07
1.25095e-06
4.51481e-07
1.03177e-06
1.0319e-06
1.31457e-06
4.58274e-07
1.01782e-06
1.01797e-06
1.28755e-06
4.53692e-07
9.83748e-07
9.83775e-07
1.21692e-06
4.66354e-07
9.96787e-07
9.96841e-07
1.23154e-06
4.96386e-07
1.04216e-06
1.04227e-06
1.30307e-06
5.23868e-07
1.07797e-06
1.07805e-06
1.36167e-06
5.36446e-07
1.09366e-06
1.09373e-06
1.39006e-06
5.39738e-07
1.09685e-06
1.09695e-06
1.39707e-06
5.39767e-07
1.09613e-06
1.09623e-06
1.39591e-06
5.39456e-07
1.09546e-06
1.09556e-06
1.39464e-06
5.39507e-07
1.09555e-06
1.09564e-06
1.3947e-06
5.39704e-07
1.09582e-06
1.09591e-06
1.39521e-06
5.39821e-07
1.09595e-06
1.09604e-06
1.39547e-06
5.3984e-07
1.09598e-06
1.09607e-06
1.39554e-06
5.3984e-07
1.09598e-06
1.09607e-06
1.39552e-06
5.39842e-07
1.09599e-06
1.09608e-06
1.39556e-06
5.39842e-07
1.09598e-06
1.09607e-06
1.39554e-06
5.39842e-07
1.09598e-06
1.09607e-06
1.39551e-06
5.39842e-07
1.09598e-06
1.09606e-06
1.39553e-06
5.39849e-07
1.096e-06
1.09609e-06
1.39556e-06
5.3986e-07
1.09602e-06
1.09611e-06
1.39557e-06
5.39861e-07
1.09602e-06
1.09611e-06
1.39563e-06
5.39847e-07
1.09598e-06
1.09607e-06
1.39551e-06
5.3983e-07
1.09595e-06
1.09604e-06
1.39544e-06
5.39836e-07
1.09596e-06
1.09605e-06
1.39548e-06
5.39842e-07
1.09597e-06
1.09606e-06
1.39555e-06
5.39839e-07
1.09597e-06
1.09606e-06
1.39558e-06
5.39838e-07
1.09596e-06
1.09605e-06
1.39554e-06
5.39837e-07
1.09597e-06
1.09605e-06
1.3955e-06
5.39839e-07
1.09597e-06
1.09606e-06
1.39543e-06
5.39837e-07
1.09597e-06
1.09606e-06
1.39543e-06
5.39834e-07
1.09597e-06
1.09606e-06
1.39556e-06
5.39827e-07
1.09595e-06
1.09604e-06
1.39557e-06
5.39821e-07
1.09595e-06
1.09604e-06
1.39559e-06
5.39819e-07
1.09596e-06
1.09605e-06
1.39557e-06
5.39818e-07
1.09596e-06
1.09605e-06
1.39545e-06
5.3982e-07
1.09597e-06
1.09606e-06
1.39543e-06
5.39825e-07
1.09599e-06
1.09608e-06
1.39547e-06
5.3982e-07
1.09601e-06
1.0961e-06
1.39545e-06
5.39347e-07
1.0957e-06
1.09578e-06
1.39511e-06
5.18897e-07
1.03558e-06
1.03557e-06
1.3455e-06
1.16001e-06
1.17284e-06
8.74735e-07
8.74761e-07
8.92106e-07
8.92179e-07
1.15992e-06
1.17282e-06
8.74616e-07
8.74818e-07
8.92007e-07
8.92217e-07
8.74818e-07
8.92003e-07
8.9225e-07
1.16004e-06
1.17292e-06
8.74695e-07
8.92111e-07
8.92124e-07
1.17298e-06
1.17797e-06
1.19232e-06
8.97649e-07
8.9771e-07
9.14789e-07
9.14743e-07
1.17794e-06
1.19214e-06
8.9755e-07
8.97744e-07
9.14634e-07
9.14835e-07
8.97784e-07
9.14572e-07
9.14802e-07
1.17804e-06
1.19229e-06
8.97665e-07
9.14678e-07
9.14678e-07
1.19231e-06
1.19824e-06
1.20901e-06
9.20668e-07
9.20617e-07
9.36581e-07
9.36692e-07
1.19808e-06
1.20902e-06
9.20511e-07
9.20732e-07
9.36502e-07
9.36673e-07
9.20672e-07
9.365e-07
9.36765e-07
1.19823e-06
1.20909e-06
9.20533e-07
9.36615e-07
9.36652e-07
1.2092e-06
1.21297e-06
1.22442e-06
9.41008e-07
9.41138e-07
9.55452e-07
9.55433e-07
1.21299e-06
1.22431e-06
9.4094e-07
9.41087e-07
9.55319e-07
9.55532e-07
9.41215e-07
9.55312e-07
9.55485e-07
1.21304e-06
1.22442e-06
9.41118e-07
9.55394e-07
9.55376e-07
1.22439e-06
1.23085e-06
1.2439e-06
9.61412e-07
9.61347e-07
9.76836e-07
9.76917e-07
1.2307e-06
1.24383e-06
9.6127e-07
9.61505e-07
9.7676e-07
9.76919e-07
9.61395e-07
9.76686e-07
9.77017e-07
1.23085e-06
1.24402e-06
9.61276e-07
9.7687e-07
9.76911e-07
1.24417e-06
1.24564e-06
1.2434e-06
9.79149e-07
9.79257e-07
9.878e-07
9.87816e-07
1.2456e-06
1.24338e-06
9.79067e-07
9.79209e-07
9.87641e-07
9.87841e-07
9.79356e-07
9.87707e-07
9.87845e-07
1.24574e-06
1.24337e-06
9.7925e-07
9.87716e-07
9.8772e-07
1.24339e-06
1.25104e-06
1.30351e-06
9.94323e-07
9.94314e-07
1.02405e-06
1.02404e-06
1.251e-06
1.30341e-06
9.94161e-07
9.94375e-07
1.02392e-06
1.02413e-06
9.9433e-07
1.02393e-06
1.02408e-06
1.251e-06
1.30356e-06
9.94204e-07
1.02399e-06
1.02397e-06
1.30355e-06
1.31446e-06
1.29168e-06
1.03192e-06
1.03193e-06
1.02759e-06
1.02759e-06
1.31436e-06
1.29151e-06
1.03182e-06
1.032e-06
1.0275e-06
1.02768e-06
1.03201e-06
1.0274e-06
1.0277e-06
1.31452e-06
1.29174e-06
1.03191e-06
1.02759e-06
1.0276e-06
1.29181e-06
1.28743e-06
1.21772e-06
1.01797e-06
1.01797e-06
9.88692e-07
9.88749e-07
1.28727e-06
1.21776e-06
1.01788e-06
1.01807e-06
9.88604e-07
9.888e-07
1.01806e-06
9.88649e-07
9.88788e-07
1.28749e-06
1.21781e-06
1.01796e-06
9.88698e-07
9.88705e-07
1.21783e-06
1.2168e-06
1.22131e-06
9.83759e-07
9.83836e-07
9.89046e-07
9.89128e-07
1.21686e-06
1.22134e-06
9.83677e-07
9.83864e-07
9.88971e-07
9.89132e-07
9.83869e-07
9.89025e-07
9.89168e-07
1.21689e-06
1.22136e-06
9.83795e-07
9.89059e-07
9.89103e-07
1.22144e-06
1.23143e-06
1.28817e-06
9.96842e-07
9.96909e-07
1.02989e-06
1.02992e-06
1.23143e-06
1.28806e-06
9.96763e-07
9.96922e-07
1.02978e-06
1.02996e-06
9.96955e-07
1.02975e-06
1.02997e-06
1.23147e-06
1.28819e-06
9.96881e-07
1.02985e-06
1.02986e-06
1.28822e-06
1.30303e-06
1.35143e-06
1.04234e-06
1.04235e-06
1.07127e-06
1.07128e-06
1.30292e-06
1.35134e-06
1.04222e-06
1.0424e-06
1.07113e-06
1.07134e-06
1.0424e-06
1.07111e-06
1.07132e-06
1.30305e-06
1.35147e-06
1.04227e-06
1.07119e-06
1.07119e-06
1.35148e-06
1.36163e-06
1.38471e-06
1.07813e-06
1.07814e-06
1.0914e-06
1.09143e-06
1.36155e-06
1.38466e-06
1.07798e-06
1.0782e-06
1.09127e-06
1.09149e-06
1.07818e-06
1.09127e-06
1.09147e-06
1.36166e-06
1.38475e-06
1.07805e-06
1.09134e-06
1.09136e-06
1.38479e-06
1.38998e-06
1.39456e-06
1.09378e-06
1.09382e-06
1.09682e-06
1.09687e-06
1.38994e-06
1.39452e-06
1.09366e-06
1.09387e-06
1.09671e-06
1.09692e-06
1.09387e-06
1.0967e-06
1.09692e-06
1.39003e-06
1.39463e-06
1.09376e-06
1.09679e-06
1.09682e-06
1.39468e-06
1.39696e-06
1.39392e-06
1.09697e-06
1.09702e-06
1.0965e-06
1.09654e-06
1.39692e-06
1.39385e-06
1.09686e-06
1.09706e-06
1.09639e-06
1.09658e-06
1.09707e-06
1.09637e-06
1.09659e-06
1.39702e-06
1.39396e-06
1.09697e-06
1.09647e-06
1.09649e-06
1.39401e-06
1.39582e-06
1.39251e-06
1.09626e-06
1.0963e-06
1.09568e-06
1.09572e-06
1.39575e-06
1.39243e-06
1.09615e-06
1.09634e-06
1.09557e-06
1.09575e-06
1.09635e-06
1.09554e-06
1.09576e-06
1.39586e-06
1.39254e-06
1.09624e-06
1.09564e-06
1.09565e-06
1.39258e-06
1.39457e-06
1.39242e-06
1.09559e-06
1.09563e-06
1.0956e-06
1.09564e-06
1.39449e-06
1.39237e-06
1.09548e-06
1.09567e-06
1.09549e-06
1.09569e-06
1.09568e-06
1.09548e-06
1.09569e-06
1.39459e-06
1.39248e-06
1.09557e-06
1.09557e-06
1.09558e-06
1.39251e-06
1.3946e-06
1.39292e-06
1.09566e-06
1.09571e-06
1.09588e-06
1.09593e-06
1.39456e-06
1.39289e-06
1.09555e-06
1.09575e-06
1.09576e-06
1.09597e-06
1.09575e-06
1.09576e-06
1.09597e-06
1.39466e-06
1.39299e-06
1.09565e-06
1.09585e-06
1.09586e-06
1.39302e-06
1.39511e-06
1.39322e-06
1.09594e-06
1.09599e-06
1.09606e-06
1.0961e-06
1.39507e-06
1.39317e-06
1.09583e-06
1.09603e-06
1.09594e-06
1.09614e-06
1.09603e-06
1.09593e-06
1.09614e-06
1.39516e-06
1.39327e-06
1.09592e-06
1.09602e-06
1.09604e-06
1.39331e-06
1.39538e-06
1.39332e-06
1.09608e-06
1.09612e-06
1.0961e-06
1.09614e-06
1.39533e-06
1.39326e-06
1.09596e-06
1.09616e-06
1.09599e-06
1.09619e-06
1.09616e-06
1.09598e-06
1.09619e-06
1.39542e-06
1.39336e-06
1.09606e-06
1.09606e-06
1.09608e-06
1.3934e-06
1.39545e-06
1.39329e-06
1.0961e-06
1.09614e-06
1.0961e-06
1.09615e-06
1.39539e-06
1.39323e-06
1.09599e-06
1.09619e-06
1.09599e-06
1.09619e-06
1.09619e-06
1.09598e-06
1.09619e-06
1.39549e-06
1.39334e-06
1.09608e-06
1.09607e-06
1.09609e-06
1.39338e-06
1.39542e-06
1.39334e-06
1.0961e-06
1.09615e-06
1.09611e-06
1.09616e-06
1.39537e-06
1.39329e-06
1.09599e-06
1.09619e-06
1.096e-06
1.0962e-06
1.09619e-06
1.09599e-06
1.09621e-06
1.39547e-06
1.39339e-06
1.09609e-06
1.09608e-06
1.0961e-06
1.39344e-06
1.39547e-06
1.39332e-06
1.09611e-06
1.09616e-06
1.09611e-06
1.09615e-06
1.39542e-06
1.39326e-06
1.096e-06
1.0962e-06
1.096e-06
1.0962e-06
1.09621e-06
1.09598e-06
1.0962e-06
1.39551e-06
1.39336e-06
1.0961e-06
1.09607e-06
1.09609e-06
1.3934e-06
1.39546e-06
1.39329e-06
1.09611e-06
1.09615e-06
1.09611e-06
1.09615e-06
1.3954e-06
1.39323e-06
1.096e-06
1.09619e-06
1.096e-06
1.09619e-06
1.0962e-06
1.09598e-06
1.0962e-06
1.3955e-06
1.39333e-06
1.09609e-06
1.09607e-06
1.09609e-06
1.39338e-06
1.39543e-06
1.39332e-06
1.09611e-06
1.09615e-06
1.09611e-06
1.09615e-06
1.39537e-06
1.39326e-06
1.096e-06
1.09619e-06
1.09599e-06
1.09619e-06
1.09619e-06
1.09598e-06
1.09619e-06
1.39546e-06
1.39334e-06
1.09609e-06
1.09606e-06
1.09608e-06
1.39341e-06
1.39544e-06
1.3933e-06
1.0961e-06
1.09615e-06
1.09611e-06
1.09616e-06
1.39538e-06
1.39326e-06
1.09599e-06
1.09618e-06
1.096e-06
1.0962e-06
1.09619e-06
1.09599e-06
1.0962e-06
1.39546e-06
1.39336e-06
1.09608e-06
1.09608e-06
1.09609e-06
1.3934e-06
1.39545e-06
1.39335e-06
1.09611e-06
1.09616e-06
1.09613e-06
1.09618e-06
1.39542e-06
1.39329e-06
1.096e-06
1.09621e-06
1.09602e-06
1.09623e-06
1.09621e-06
1.09601e-06
1.09623e-06
1.39552e-06
1.39341e-06
1.0961e-06
1.0961e-06
1.09612e-06
1.39344e-06
1.39548e-06
1.39341e-06
1.09614e-06
1.09618e-06
1.09615e-06
1.0962e-06
1.39543e-06
1.39335e-06
1.09603e-06
1.09623e-06
1.09604e-06
1.09624e-06
1.09623e-06
1.09602e-06
1.09623e-06
1.39554e-06
1.39346e-06
1.09612e-06
1.09611e-06
1.09613e-06
1.39349e-06
1.39554e-06
1.39327e-06
1.09614e-06
1.09619e-06
1.09611e-06
1.09615e-06
1.39549e-06
1.39321e-06
1.09603e-06
1.09623e-06
1.096e-06
1.09619e-06
1.09623e-06
1.09598e-06
1.0962e-06
1.39559e-06
1.39331e-06
1.09612e-06
1.09607e-06
1.09609e-06
1.39336e-06
1.39542e-06
1.39321e-06
1.0961e-06
1.09615e-06
1.09607e-06
1.09612e-06
1.39537e-06
1.39316e-06
1.09599e-06
1.09619e-06
1.09596e-06
1.09616e-06
1.09619e-06
1.09595e-06
1.09617e-06
1.39546e-06
1.39327e-06
1.09608e-06
1.09604e-06
1.09606e-06
1.39332e-06
1.39533e-06
1.39328e-06
1.09607e-06
1.09611e-06
1.09608e-06
1.09612e-06
1.39528e-06
1.39322e-06
1.09596e-06
1.09616e-06
1.09597e-06
1.09617e-06
1.09616e-06
1.09595e-06
1.09617e-06
1.39539e-06
1.39331e-06
1.09605e-06
1.09604e-06
1.09606e-06
1.39336e-06
1.39539e-06
1.39333e-06
1.09608e-06
1.09612e-06
1.09609e-06
1.09613e-06
1.39534e-06
1.39328e-06
1.09597e-06
1.09617e-06
1.09598e-06
1.09618e-06
1.09617e-06
1.09596e-06
1.09618e-06
1.39543e-06
1.39339e-06
1.09606e-06
1.09605e-06
1.09607e-06
1.39342e-06
1.39547e-06
1.39333e-06
1.09609e-06
1.09613e-06
1.09609e-06
1.09613e-06
1.39541e-06
1.39328e-06
1.09598e-06
1.09618e-06
1.09598e-06
1.09618e-06
1.09618e-06
1.09596e-06
1.09618e-06
1.39551e-06
1.39337e-06
1.09607e-06
1.09605e-06
1.09607e-06
1.39342e-06
1.39549e-06
1.39325e-06
1.09609e-06
1.09614e-06
1.09608e-06
1.09613e-06
1.39545e-06
1.3932e-06
1.09598e-06
1.09618e-06
1.09597e-06
1.09617e-06
1.09618e-06
1.09596e-06
1.09618e-06
1.39553e-06
1.39333e-06
1.09607e-06
1.09605e-06
1.09607e-06
1.39336e-06
1.39544e-06
1.39322e-06
1.09609e-06
1.09613e-06
1.09608e-06
1.09613e-06
1.39539e-06
1.39317e-06
1.09598e-06
1.09617e-06
1.09597e-06
1.09617e-06
1.09618e-06
1.09596e-06
1.09618e-06
1.39551e-06
1.39326e-06
1.09607e-06
1.09605e-06
1.09607e-06
1.39331e-06
1.39539e-06
1.39319e-06
1.09609e-06
1.09613e-06
1.09608e-06
1.09613e-06
1.39535e-06
1.39314e-06
1.09597e-06
1.09617e-06
1.09597e-06
1.09617e-06
1.09618e-06
1.09596e-06
1.09617e-06
1.39545e-06
1.39324e-06
1.09607e-06
1.09605e-06
1.09606e-06
1.39328e-06
1.39534e-06
1.39326e-06
1.09609e-06
1.09614e-06
1.09609e-06
1.09614e-06
1.3953e-06
1.39322e-06
1.09598e-06
1.09618e-06
1.09598e-06
1.09618e-06
1.09618e-06
1.09597e-06
1.09618e-06
1.39539e-06
1.39332e-06
1.09607e-06
1.09606e-06
1.09607e-06
1.39337e-06
1.39533e-06
1.39338e-06
1.09609e-06
1.09614e-06
1.09608e-06
1.09613e-06
1.39529e-06
1.39332e-06
1.09598e-06
1.09618e-06
1.09597e-06
1.09617e-06
1.09619e-06
1.09596e-06
1.09618e-06
1.39539e-06
1.39343e-06
1.09607e-06
1.09605e-06
1.09607e-06
1.39348e-06
1.39545e-06
1.39336e-06
1.09609e-06
1.09613e-06
1.09607e-06
1.09611e-06
1.39539e-06
1.3933e-06
1.09598e-06
1.09618e-06
1.09596e-06
1.09616e-06
1.09619e-06
1.09594e-06
1.09616e-06
1.3955e-06
1.39341e-06
1.09607e-06
1.09603e-06
1.09605e-06
1.39345e-06
1.39545e-06
1.39336e-06
1.09607e-06
1.09612e-06
1.09606e-06
1.0961e-06
1.3954e-06
1.39331e-06
1.09596e-06
1.09616e-06
1.09595e-06
1.09615e-06
1.09617e-06
1.09593e-06
1.09615e-06
1.3955e-06
1.39342e-06
1.09605e-06
1.09602e-06
1.09604e-06
1.39343e-06
1.39549e-06
1.39334e-06
1.09607e-06
1.09612e-06
1.09605e-06
1.09609e-06
1.39545e-06
1.39327e-06
1.09596e-06
1.09616e-06
1.09594e-06
1.09614e-06
1.09616e-06
1.09592e-06
1.09614e-06
1.39554e-06
1.39338e-06
1.09605e-06
1.09601e-06
1.09602e-06
1.39337e-06
1.39553e-06
1.39323e-06
1.09607e-06
1.09612e-06
1.09604e-06
1.09608e-06
1.39547e-06
1.39316e-06
1.09596e-06
1.09617e-06
1.09593e-06
1.09613e-06
1.09617e-06
1.09591e-06
1.09613e-06
1.39557e-06
1.39326e-06
1.09605e-06
1.096e-06
1.09601e-06
1.39326e-06
1.39545e-06
1.39319e-06
1.09608e-06
1.09612e-06
1.09603e-06
1.09607e-06
1.39538e-06
1.39313e-06
1.09597e-06
1.09617e-06
1.09592e-06
1.09612e-06
1.09617e-06
1.0959e-06
1.09612e-06
1.39547e-06
1.39323e-06
1.09605e-06
1.09599e-06
1.096e-06
1.39329e-06
1.39538e-06
1.39318e-06
1.09609e-06
1.09614e-06
1.09602e-06
1.09606e-06
1.39532e-06
1.39314e-06
1.09598e-06
1.09618e-06
1.09591e-06
1.09611e-06
1.09618e-06
1.09589e-06
1.09611e-06
1.39541e-06
1.39324e-06
1.09606e-06
1.09598e-06
1.09599e-06
1.39334e-06
1.39534e-06
1.39319e-06
1.09611e-06
1.09616e-06
1.096e-06
1.09604e-06
1.3953e-06
1.39315e-06
1.096e-06
1.0962e-06
1.09589e-06
1.09609e-06
1.0962e-06
1.09587e-06
1.09609e-06
1.39539e-06
1.39327e-06
1.09608e-06
1.09596e-06
1.09597e-06
1.39335e-06
1.3953e-06
1.39298e-06
1.09613e-06
1.09618e-06
1.09556e-06
1.0956e-06
1.39528e-06
1.39293e-06
1.09602e-06
1.09622e-06
1.09545e-06
1.09565e-06
1.09622e-06
1.09544e-06
1.09565e-06
1.39537e-06
1.39306e-06
1.0961e-06
1.09552e-06
1.09553e-06
1.39312e-06
1.39497e-06
1.37079e-06
1.09582e-06
1.09587e-06
1.07186e-06
1.07189e-06
1.39493e-06
1.37077e-06
1.09571e-06
1.09591e-06
1.07181e-06
1.07186e-06
1.09591e-06
1.07186e-06
1.07191e-06
1.39505e-06
1.37081e-06
1.09579e-06
1.07186e-06
1.07186e-06
1.37084e-06
1.34544e-06
1.03554e-06
1.03557e-06
1.34545e-06
1.03552e-06
1.03553e-06
5.18925e-07
5.18896e-07
5.18939e-07
1.03559e-06
1.34547e-06
1.03557e-06
4.09802e-06
9.16616e-06
4.09474e-06
9.17287e-06
1.84414e-05
1.84505e-05
4.09845e-06
9.16813e-06
4.09474e-06
9.17653e-06
3.26847e-07
3.26933e-07
3.26927e-07
3.38939e-07
3.38937e-07
3.39024e-07
3.39022e-07
2.11785e-06
3.47978e-06
5.68224e-07
8.80565e-07
2.11157e-06
3.48389e-06
5.74175e-07
1.84398e-05
1.84516e-05
2.11784e-06
5.68312e-07
3.47982e-06
8.80662e-07
2.11165e-06
5.74261e-07
3.48381e-06
5.46712e-06
5.46936e-06
1.16425e-06
5.47006e-06
5.47188e-06
4.10358e-06
9.18442e-06
4.10322e-06
9.18517e-06
1.84532e-05
1.84547e-05
4.10369e-06
9.18665e-06
4.10332e-06
9.18738e-06
3.42978e-07
3.43066e-07
3.43069e-07
3.55379e-07
3.55356e-07
3.55453e-07
3.55442e-07
2.1301e-06
3.48899e-06
5.91748e-07
9.03062e-07
2.1261e-06
3.48981e-06
5.97453e-07
1.84534e-05
1.84536e-05
2.13015e-06
5.91843e-07
3.48927e-06
9.03199e-07
2.12616e-06
5.97554e-07
3.49022e-06
5.47106e-06
5.4729e-06
1.1819e-06
5.4701e-06
5.4724e-06
4.11408e-06
9.1898e-06
4.10645e-06
9.21579e-06
1.84853e-05
1.85205e-05
4.11428e-06
9.19035e-06
4.10629e-06
9.21655e-06
3.59589e-07
3.59689e-07
3.59669e-07
3.72314e-07
3.72316e-07
3.72404e-07
3.72414e-07
2.14432e-06
3.5003e-06
6.14611e-07
9.26214e-07
2.13721e-06
3.50866e-06
6.20529e-07
1.84902e-05
1.85225e-05
2.14419e-06
6.14697e-07
3.49986e-06
9.26307e-07
2.13722e-06
6.20613e-07
3.50855e-06
5.48668e-06
5.48804e-06
1.20234e-06
5.49833e-06
5.49979e-06
4.11596e-06
9.22783e-06
4.12074e-06
9.20753e-06
1.85052e-05
1.84762e-05
4.11617e-06
9.23114e-06
4.12092e-06
9.21144e-06
3.76421e-07
3.76503e-07
3.76524e-07
3.88823e-07
3.88812e-07
3.88912e-07
3.88896e-07
2.15407e-06
3.51128e-06
6.37913e-07
9.45302e-07
2.15331e-06
3.50596e-06
6.43171e-07
1.84988e-05
1.8474e-05
2.15417e-06
6.38019e-07
3.51172e-06
9.45402e-07
2.15343e-06
6.43277e-07
3.50612e-06
5.48958e-06
5.49221e-06
1.21513e-06
5.47483e-06
5.47726e-06
4.1336e-06
9.21385e-06
4.11816e-06
9.2708e-06
1.85343e-05
1.86189e-05
4.13421e-06
9.2136e-06
4.11841e-06
9.27204e-06
3.93313e-07
3.93425e-07
3.93395e-07
4.06907e-07
4.06891e-07
4.07e-07
4.0701e-07
2.16895e-06
3.51757e-06
6.59039e-07
9.67407e-07
2.15955e-06
3.53529e-06
6.65013e-07
1.85432e-05
1.86221e-05
2.16897e-06
6.59133e-07
3.51691e-06
9.67532e-07
2.15956e-06
6.65117e-07
3.53557e-06
5.50378e-06
5.5049e-06
1.2372e-06
5.53767e-06
5.53944e-06
4.1216e-06
9.28623e-06
4.14064e-06
9.19283e-06
1.8569e-05
1.84239e-05
4.12126e-06
9.29054e-06
4.14067e-06
9.19559e-06
4.10785e-07
4.10884e-07
4.10907e-07
4.22515e-07
4.22518e-07
4.22601e-07
4.22607e-07
2.17292e-06
3.5355e-06
6.81815e-07
9.80904e-07
2.17775e-06
3.50933e-06
6.86184e-07
1.8561e-05
1.84204e-05
2.17281e-06
6.81926e-07
3.53646e-06
9.8101e-07
2.17788e-06
6.86274e-07
3.50961e-06
5.51175e-06
5.51435e-06
1.24082e-06
5.44065e-06
5.44273e-06
4.1765e-06
9.14482e-06
4.12392e-06
9.31132e-06
1.84607e-05
1.87837e-05
4.17708e-06
9.14448e-06
4.1238e-06
9.31229e-06
4.27347e-07
4.27432e-07
4.27426e-07
4.45467e-07
4.45455e-07
4.45552e-07
4.45527e-07
2.20267e-06
3.51701e-06
7.00746e-07
1.00291e-06
2.17772e-06
3.57667e-06
7.07622e-07
1.84674e-05
1.87892e-05
2.20248e-06
7.0079e-07
3.51572e-06
1.00291e-06
2.17742e-06
7.07667e-07
3.57588e-06
5.45707e-06
5.45815e-06
1.26676e-06
5.59441e-06
5.59601e-06
4.28147e-06
9.65558e-06
4.27292e-06
9.72324e-06
1.92665e-05
1.93005e-05
4.28182e-06
9.65833e-06
4.27314e-06
9.72631e-06
4.5146e-07
4.51571e-07
4.51554e-07
4.58486e-07
4.58461e-07
4.58588e-07
4.58591e-07
2.25382e-06
3.68203e-06
7.3071e-07
1.03462e-06
2.25237e-06
3.6864e-06
7.34831e-07
1.92647e-05
1.92991e-05
2.25399e-06
7.30816e-07
3.68263e-06
1.0348e-06
2.25259e-06
7.34967e-07
3.68724e-06
5.79536e-06
5.79776e-06
1.3162e-06
5.80195e-06
5.80426e-06
4.08168e-06
9.4634e-06
4.17849e-06
9.19977e-06
1.87366e-05
1.83459e-05
4.08194e-06
9.46584e-06
4.17858e-06
9.20116e-06
4.58249e-07
4.58374e-07
4.58376e-07
4.54213e-07
4.54221e-07
4.54318e-07
4.54319e-07
2.14538e-06
3.57915e-06
7.31939e-07
1.00741e-06
2.19696e-06
3.4826e-06
7.27206e-07
1.87393e-05
1.83492e-05
2.14528e-06
7.32056e-07
3.57932e-06
1.00753e-06
2.19698e-06
7.27304e-07
3.48275e-06
5.58961e-06
5.59131e-06
1.24968e-06
5.42514e-06
5.42691e-06
3.96236e-06
8.92429e-06
3.97581e-06
8.88472e-06
1.80017e-05
1.79881e-05
3.96239e-06
8.92547e-06
3.97561e-06
8.88639e-06
4.53706e-07
4.53794e-07
4.53796e-07
4.61215e-07
4.61234e-07
4.61312e-07
4.61324e-07
2.08517e-06
3.38392e-06
7.16245e-07
9.82319e-07
2.09078e-06
3.37077e-06
7.16205e-07
1.80028e-05
1.7989e-05
2.08509e-06
7.16306e-07
3.3835e-06
9.82338e-07
2.09068e-06
7.16265e-07
3.37044e-06
5.26095e-06
5.26286e-06
1.20929e-06
5.24189e-06
5.24399e-06
4.06776e-06
8.97217e-06
4.01213e-06
9.08615e-06
1.81845e-05
1.83862e-05
4.06825e-06
8.97453e-06
4.01225e-06
9.08871e-06
4.66368e-07
4.6645e-07
4.66452e-07
4.87694e-07
4.87688e-07
4.87784e-07
4.87786e-07
2.15254e-06
3.41785e-06
7.30064e-07
1.0062e-06
2.11752e-06
3.46866e-06
7.3766e-07
1.8185e-05
1.83877e-05
2.1526e-06
7.30145e-07
3.41763e-06
1.00627e-06
2.11764e-06
7.37747e-07
3.46894e-06
5.31377e-06
5.31586e-06
1.25031e-06
5.38931e-06
5.39139e-06
4.21406e-06
9.28925e-06
4.16217e-06
9.41135e-06
1.87068e-05
1.89085e-05
4.21435e-06
9.29145e-06
4.16223e-06
9.41347e-06
4.96374e-07
4.96475e-07
4.96467e-07
5.18533e-07
5.18516e-07
5.18622e-07
5.18615e-07
2.2468e-06
3.56255e-06
7.65835e-07
1.05326e-06
2.21447e-06
3.61165e-06
7.74388e-07
1.87073e-05
1.89097e-05
2.24671e-06
7.65926e-07
3.56264e-06
1.05336e-06
2.21453e-06
7.74473e-07
3.61196e-06
5.52386e-06
5.52552e-06
1.32349e-06
5.5982e-06
5.59997e-06
4.31549e-06
9.58255e-06
4.28459e-06
9.66508e-06
1.91634e-05
1.9292e-05
4.31565e-06
9.58407e-06
4.28449e-06
9.66653e-06
5.23854e-07
5.23959e-07
5.23948e-07
5.34435e-07
5.34432e-07
5.34531e-07
5.34533e-07
2.3097e-06
3.68231e-06
7.92382e-07
1.08355e-06
2.29128e-06
3.7109e-06
7.96204e-07
1.91645e-05
1.92939e-05
2.30959e-06
7.92449e-07
3.68218e-06
1.08362e-06
2.29126e-06
7.96269e-07
3.71092e-06
5.70183e-06
5.70357e-06
1.37166e-06
5.74606e-06
5.74798e-06
4.35784e-06
9.75175e-06
4.34838e-06
9.7796e-06
1.94097e-05
1.9451e-05
4.35803e-06
9.75321e-06
4.34835e-06
9.7813e-06
5.36443e-07
5.36543e-07
5.36542e-07
5.39419e-07
5.39418e-07
5.39519e-07
5.39525e-07
2.33559e-06
3.7436e-06
8.02744e-07
1.09526e-06
2.33012e-06
3.75179e-06
8.03673e-07
1.94111e-05
1.94523e-05
2.33556e-06
8.02818e-07
3.74345e-06
1.09534e-06
2.33012e-06
8.03751e-07
3.75179e-06
5.79352e-06
5.79545e-06
1.39188e-06
5.80603e-06
5.80806e-06
4.36306e-06
9.793e-06
4.36367e-06
9.79174e-06
1.94647e-05
1.94627e-05
4.36326e-06
9.79501e-06
4.36376e-06
9.79389e-06
5.39735e-07
5.39835e-07
5.3984e-07
5.39858e-07
5.39854e-07
5.39955e-07
5.39961e-07
2.33887e-06
3.75755e-06
8.04387e-07
1.09682e-06
2.33935e-06
3.75662e-06
8.04269e-07
1.94656e-05
1.94635e-05
2.33889e-06
8.04477e-07
3.75754e-06
1.09691e-06
2.33938e-06
8.04363e-07
3.75671e-06
5.81277e-06
5.8148e-06
1.39482e-06
5.81063e-06
5.81268e-06
4.35835e-06
9.78142e-06
4.36038e-06
9.77724e-06
1.94465e-05
1.94417e-05
4.35855e-06
9.78367e-06
4.36051e-06
9.77949e-06
5.39759e-07
5.3986e-07
5.39863e-07
5.3951e-07
5.39504e-07
5.39603e-07
5.39606e-07
2.33638e-06
3.75415e-06
8.03673e-07
1.0959e-06
2.33769e-06
3.75192e-06
8.03514e-07
1.9447e-05
1.94424e-05
2.33638e-06
8.03767e-07
3.75421e-06
1.096e-06
2.33772e-06
8.03607e-07
3.75204e-06
5.80541e-06
5.80744e-06
1.3931e-06
5.80226e-06
5.80429e-06
4.35671e-06
9.77271e-06
4.35718e-06
9.7724e-06
1.94353e-05
1.94361e-05
4.35691e-06
9.77495e-06
4.35733e-06
9.77461e-06
5.39448e-07
5.39547e-07
5.39548e-07
5.3946e-07
5.39458e-07
5.39557e-07
5.39559e-07
2.33534e-06
3.75099e-06
8.03223e-07
1.09543e-06
2.3358e-06
3.75037e-06
8.03207e-07
1.94359e-05
1.94369e-05
2.33533e-06
8.03312e-07
3.75104e-06
1.09553e-06
2.33582e-06
8.03296e-07
3.75045e-06
5.80061e-06
5.80262e-06
1.39239e-06
5.80009e-06
5.80212e-06
4.35729e-06
9.77273e-06
4.35715e-06
9.77393e-06
1.94364e-05
1.94393e-05
4.35744e-06
9.77482e-06
4.35725e-06
9.77595e-06
5.39504e-07
5.39601e-07
5.39599e-07
5.39654e-07
5.39656e-07
5.39752e-07
5.39755e-07
2.33576e-06
3.75113e-06
8.03327e-07
1.09561e-06
2.33586e-06
3.75113e-06
8.03381e-07
1.94373e-05
1.94403e-05
2.33575e-06
8.03413e-07
3.75114e-06
1.0957e-06
2.33588e-06
8.03466e-07
3.75117e-06
5.80111e-06
5.80311e-06
1.39275e-06
5.80145e-06
5.80347e-06
4.35821e-06
9.77523e-06
4.35816e-06
9.77613e-06
1.94403e-05
1.94426e-05
4.35836e-06
9.77727e-06
4.35824e-06
9.77814e-06
5.39706e-07
5.39801e-07
5.39801e-07
5.39801e-07
5.39801e-07
5.39896e-07
5.39901e-07
2.33634e-06
3.75217e-06
8.03556e-07
1.09587e-06
2.33651e-06
3.75201e-06
8.03587e-07
1.94412e-05
1.94436e-05
2.33633e-06
8.03639e-07
3.75215e-06
1.09595e-06
2.33651e-06
8.03669e-07
3.75204e-06
5.80266e-06
5.80466e-06
1.39319e-06
5.80273e-06
5.80475e-06
4.35873e-06
9.77678e-06
4.35879e-06
9.77728e-06
1.94424e-05
1.94441e-05
4.35888e-06
9.7788e-06
4.35888e-06
9.77932e-06
5.39816e-07
5.39911e-07
5.39912e-07
5.3984e-07
5.39836e-07
5.39932e-07
5.39935e-07
2.33665e-06
3.75272e-06
8.03645e-07
1.09596e-06
2.33688e-06
3.75239e-06
8.03649e-07
1.94433e-05
1.9445e-05
2.33663e-06
8.03727e-07
3.7527e-06
1.09605e-06
2.33688e-06
8.03731e-07
3.75242e-06
5.80344e-06
5.80544e-06
1.39337e-06
5.80323e-06
5.80525e-06
4.35887e-06
9.77737e-06
4.35905e-06
9.77762e-06
1.94431e-05
1.94445e-05
4.35902e-06
9.77943e-06
4.35914e-06
9.77969e-06
5.39834e-07
5.3993e-07
5.39932e-07
5.39838e-07
5.39837e-07
5.39933e-07
5.39936e-07
2.33674e-06
3.7529e-06
8.03655e-07
1.09598e-06
2.33701e-06
3.7525e-06
8.03652e-07
1.94439e-05
1.94455e-05
2.33672e-06
8.03737e-07
3.7529e-06
1.09607e-06
2.33701e-06
8.03733e-07
3.75254e-06
5.80364e-06
5.80565e-06
1.39338e-06
5.80335e-06
5.80537e-06
4.3589e-06
9.77749e-06
4.35908e-06
9.77772e-06
1.94434e-05
1.94447e-05
4.35905e-06
9.77956e-06
4.35917e-06
9.77978e-06
5.39835e-07
5.39931e-07
5.39933e-07
5.39842e-07
5.3984e-07
5.39935e-07
5.39939e-07
2.33674e-06
3.75295e-06
8.03651e-07
1.09598e-06
2.33702e-06
3.75254e-06
8.03647e-07
1.94443e-05
1.94458e-05
2.33673e-06
8.03732e-07
3.75295e-06
1.09607e-06
2.33702e-06
8.03727e-07
3.75257e-06
5.80374e-06
5.80574e-06
1.39342e-06
5.80344e-06
5.80546e-06
4.35889e-06
9.77756e-06
4.35911e-06
9.77772e-06
1.94434e-05
1.94447e-05
4.35905e-06
9.77963e-06
4.35921e-06
9.77979e-06
5.39837e-07
5.39932e-07
5.39936e-07
5.39841e-07
5.39838e-07
5.39934e-07
5.39937e-07
2.33672e-06
3.75298e-06
8.03656e-07
1.09599e-06
2.33705e-06
3.75253e-06
8.03654e-07
1.94443e-05
1.94456e-05
2.3367e-06
8.03735e-07
3.75297e-06
1.09607e-06
2.33704e-06
8.03733e-07
3.75256e-06
5.80375e-06
5.80576e-06
1.39338e-06
5.8034e-06
5.80543e-06
4.35887e-06
9.77749e-06
4.35907e-06
9.77767e-06
1.94433e-05
1.94446e-05
4.35903e-06
9.77956e-06
4.35917e-06
9.77975e-06
5.39834e-07
5.39931e-07
5.39933e-07
5.39842e-07
5.39837e-07
5.39932e-07
5.39937e-07
2.3367e-06
3.75294e-06
8.03645e-07
1.09598e-06
2.33704e-06
3.75251e-06
8.03642e-07
1.94442e-05
1.94456e-05
2.33668e-06
8.03724e-07
3.75294e-06
1.09607e-06
2.33703e-06
8.03722e-07
3.75255e-06
5.8037e-06
5.80572e-06
1.3934e-06
5.80337e-06
5.8054e-06
4.35884e-06
9.77747e-06
4.35905e-06
9.77762e-06
1.94432e-05
1.94445e-05
4.35899e-06
9.77953e-06
4.35915e-06
9.77968e-06
5.39835e-07
5.3993e-07
5.39934e-07
5.39841e-07
5.39838e-07
5.39931e-07
5.39937e-07
2.33669e-06
3.75292e-06
8.03653e-07
1.09598e-06
2.33704e-06
3.75247e-06
8.03649e-07
1.94441e-05
1.94453e-05
2.33667e-06
8.03731e-07
3.75292e-06
1.09606e-06
2.33703e-06
8.03726e-07
3.75251e-06
5.80367e-06
5.80568e-06
1.39339e-06
5.80332e-06
5.80534e-06
4.35883e-06
9.77739e-06
4.35903e-06
9.77758e-06
1.94431e-05
1.94445e-05
4.35898e-06
9.77943e-06
4.35912e-06
9.77961e-06
5.39836e-07
5.39931e-07
5.39935e-07
5.39844e-07
5.39845e-07
5.39942e-07
5.39946e-07
2.33672e-06
3.7529e-06
8.03651e-07
1.09598e-06
2.33703e-06
3.75248e-06
8.03652e-07
1.94438e-05
1.94453e-05
2.33669e-06
8.03729e-07
3.75289e-06
1.09606e-06
2.33702e-06
8.03729e-07
3.75251e-06
5.80362e-06
5.80561e-06
1.39335e-06
5.80331e-06
5.80532e-06
4.35893e-06
9.77747e-06
4.35907e-06
9.77776e-06
1.94434e-05
1.94449e-05
4.3591e-06
9.77953e-06
4.35918e-06
9.77984e-06
5.39845e-07
5.39944e-07
5.39946e-07
5.39856e-07
5.39856e-07
5.39955e-07
5.39957e-07
2.33678e-06
3.75296e-06
8.03661e-07
1.096e-06
2.33706e-06
3.75258e-06
8.03665e-07
1.94443e-05
1.9446e-05
2.33677e-06
8.0374e-07
3.75296e-06
1.0961e-06
2.33707e-06
8.03746e-07
3.75263e-06
5.80373e-06
5.80573e-06
1.39345e-06
5.80349e-06
5.80551e-06
4.35906e-06
9.7778e-06
4.35921e-06
9.77811e-06
1.9444e-05
1.94454e-05
4.35922e-06
9.7799e-06
4.35932e-06
9.7802e-06
5.39855e-07
5.39955e-07
5.39955e-07
5.39861e-07
5.3986e-07
5.39959e-07
5.3996e-07
2.33682e-06
3.75308e-06
8.03677e-07
1.09601e-06
2.33712e-06
3.75268e-06
8.03673e-07
1.94449e-05
1.94464e-05
2.33683e-06
8.03758e-07
3.75309e-06
1.09611e-06
2.33713e-06
8.03754e-07
3.75272e-06
5.80392e-06
5.80595e-06
1.39343e-06
5.80363e-06
5.80567e-06
4.359e-06
9.77795e-06
4.35925e-06
9.77803e-06
1.94439e-05
1.9445e-05
4.35914e-06
9.78001e-06
4.35934e-06
9.78007e-06
5.39855e-07
5.39954e-07
5.39954e-07
5.39851e-07
5.39848e-07
5.39944e-07
5.39947e-07
2.33676e-06
3.75307e-06
8.03677e-07
1.096e-06
2.3371e-06
3.75258e-06
8.03664e-07
1.94448e-05
1.9446e-05
2.33677e-06
8.03758e-07
3.75308e-06
1.09609e-06
2.3371e-06
8.03745e-07
3.75264e-06
5.8039e-06
5.80592e-06
1.39341e-06
5.8035e-06
5.80553e-06
4.3588e-06
9.77754e-06
4.35907e-06
9.77754e-06
1.94433e-05
1.94443e-05
4.35896e-06
9.77959e-06
4.35917e-06
9.77962e-06
5.39841e-07
5.39938e-07
5.39939e-07
5.3983e-07
5.39829e-07
5.39925e-07
5.39929e-07
2.33669e-06
3.75291e-06
8.03646e-07
1.09597e-06
2.33699e-06
3.75243e-06
8.0364e-07
1.9444e-05
1.94452e-05
2.33669e-06
8.03725e-07
3.75293e-06
1.09606e-06
2.33698e-06
8.03719e-07
3.75249e-06
5.80368e-06
5.80568e-06
1.3934e-06
5.80327e-06
5.80529e-06
4.35877e-06
9.77722e-06
4.35895e-06
9.77743e-06
1.94429e-05
1.94443e-05
4.35894e-06
9.77931e-06
4.35906e-06
9.77952e-06
5.39825e-07
5.39921e-07
5.39924e-07
5.39833e-07
5.39831e-07
5.39927e-07
5.3993e-07
2.33667e-06
3.75283e-06
8.03627e-07
1.09595e-06
2.33693e-06
3.75241e-06
8.03625e-07
1.94437e-05
1.94452e-05
2.33665e-06
8.03705e-07
3.75283e-06
1.09603e-06
2.33691e-06
8.03702e-07
3.75245e-06
5.80355e-06
5.80555e-06
1.39333e-06
5.80323e-06
5.80525e-06
4.35882e-06
9.77737e-06
4.35901e-06
9.77761e-06
1.94431e-05
1.94444e-05
4.35899e-06
9.77942e-06
4.35911e-06
9.77965e-06
5.3983e-07
5.39926e-07
5.39929e-07
5.3984e-07
5.39837e-07
5.39934e-07
5.39937e-07
2.33666e-06
3.75287e-06
8.03638e-07
1.09596e-06
2.33698e-06
3.75245e-06
8.03633e-07
1.9444e-05
1.94455e-05
2.33662e-06
8.03714e-07
3.75287e-06
1.09605e-06
2.33695e-06
8.0371e-07
3.75249e-06
5.80359e-06
5.8056e-06
1.39333e-06
5.80328e-06
5.80531e-06
4.35879e-06
9.77744e-06
4.35901e-06
9.77759e-06
1.94432e-05
1.94446e-05
4.35896e-06
9.7795e-06
4.35912e-06
9.77968e-06
5.39836e-07
5.39932e-07
5.39935e-07
5.39838e-07
5.39839e-07
5.39933e-07
5.39939e-07
2.33666e-06
3.7529e-06
8.03636e-07
1.09596e-06
2.33701e-06
3.75247e-06
8.03632e-07
1.94441e-05
1.94456e-05
2.33662e-06
8.03713e-07
3.7529e-06
1.09605e-06
2.33698e-06
8.03708e-07
3.75251e-06
5.80364e-06
5.80565e-06
1.39334e-06
5.80333e-06
5.80535e-06
4.35878e-06
9.77736e-06
4.35897e-06