/*--------------------------------*- C++ -*----------------------------------*\
| =========                 |                                                 |
| \\      /  F ield         | OpenFOAM: The Open Source CFD Toolbox           |
|  \\    /   O peration     | Version:  v2012                                 |
|   \\  /    A nd           | Website:  www.openfoam.com                      |
|    \\/     M anipulation  |                                                 |
\*---------------------------------------------------------------------------*/
FoamFile
{
    version     2.0;
    format      ascii;
    class       volScalarField;
    location    "250";
    object      k;
}
// * * * * * * * * * * * * * * * * * * * * * * * * * * * * * * * * * * * * * //

dimensions      [0 2 -2 0 0 0 0];


internalField   nonuniform List<scalar> 
85864
(
2.12e-05
3.68933e-05
3.68988e-05
4.21196e-05
2.19891e-05
3.78713e-05
3.78686e-05
4.29078e-05
2.27299e-05
3.86129e-05
3.86174e-05
4.345e-05
2.36329e-05
3.97897e-05
3.97937e-05
4.44885e-05
2.42761e-05
4.01397e-05
4.01413e-05
4.44799e-05
2.54336e-05
4.18324e-05
4.18446e-05
4.64982e-05
2.60121e-05
4.15708e-05
4.15739e-05
4.48541e-05
2.72874e-05
4.42219e-05
4.41953e-05
4.84722e-05
3.04065e-05
4.78922e-05
4.79054e-05
5.35666e-05
2.89427e-05
4.3063e-05
4.30691e-05
4.61073e-05
2.61357e-05
3.92774e-05
3.9272e-05
4.12677e-05
2.67058e-05
4.13424e-05
4.13435e-05
4.41874e-05
3.31977e-05
4.74532e-05
4.74568e-05
5.01657e-05
3.80167e-05
5.1421e-05
5.1419e-05
5.41686e-05
4.0343e-05
5.30472e-05
5.30466e-05
5.5752e-05
4.09309e-05
5.32735e-05
5.32749e-05
5.59098e-05
4.09186e-05
5.31427e-05
5.31449e-05
5.57288e-05
4.08195e-05
5.30704e-05
5.30718e-05
5.56419e-05
4.08239e-05
5.30988e-05
5.30996e-05
5.56803e-05
4.08756e-05
5.31411e-05
5.31417e-05
5.57205e-05
4.09015e-05
5.31566e-05
5.31572e-05
5.57401e-05
4.09052e-05
5.31568e-05
5.31578e-05
5.57322e-05
4.09057e-05
5.31593e-05
5.31597e-05
5.57456e-05
4.09055e-05
5.31578e-05
5.31584e-05
5.5731e-05
4.09051e-05
5.31569e-05
5.31579e-05
5.57338e-05
4.09048e-05
5.31565e-05
5.31566e-05
5.57442e-05
4.09045e-05
5.31558e-05
5.31557e-05
5.57274e-05
4.09064e-05
5.3159e-05
5.31601e-05
5.57418e-05
4.09099e-05
5.31641e-05
5.31656e-05
5.57488e-05
4.09094e-05
5.31604e-05
5.31614e-05
5.57337e-05
4.09039e-05
5.31545e-05
5.31558e-05
5.57421e-05
4.09019e-05
5.31545e-05
5.31544e-05
5.57325e-05
4.09035e-05
5.31555e-05
5.31569e-05
5.57278e-05
4.09044e-05
5.31567e-05
5.3157e-05
5.57317e-05
4.09047e-05
5.3156e-05
5.31574e-05
5.57425e-05
4.09055e-05
5.3158e-05
5.31579e-05
5.57403e-05
4.09061e-05
5.31566e-05
5.31576e-05
5.57273e-05
4.09073e-05
5.31599e-05
5.31606e-05
5.57441e-05
4.09084e-05
5.31607e-05
5.31617e-05
5.57408e-05
4.09079e-05
5.31591e-05
5.31598e-05
5.57332e-05
4.09071e-05
5.31583e-05
5.31591e-05
5.57443e-05
4.09064e-05
5.31581e-05
5.31588e-05
5.5739e-05
4.09062e-05
5.31577e-05
5.31584e-05
5.57296e-05
4.09065e-05
5.31588e-05
5.31595e-05
5.57439e-05
4.0907e-05
5.31598e-05
5.31603e-05
5.57376e-05
4.09071e-05
5.31611e-05
5.31616e-05
5.57321e-05
4.08955e-05
5.31418e-05
5.31422e-05
5.57286e-05
4.04333e-05
5.19222e-05
5.19212e-05
5.53334e-05
4.21249e-05
4.2775e-05
3.69035e-05
3.6897e-05
3.76478e-05
3.76494e-05
4.21159e-05
4.27803e-05
3.6899e-05
3.69012e-05
3.7646e-05
3.7651e-05
3.69001e-05
3.7652e-05
3.76519e-05
4.21213e-05
4.27794e-05
3.68985e-05
3.76496e-05
3.76489e-05
4.27816e-05
4.28981e-05
4.32475e-05
3.78624e-05
3.78675e-05
3.8403e-05
3.84085e-05
4.29067e-05
4.32418e-05
3.78623e-05
3.78693e-05
3.84053e-05
3.84008e-05
3.78709e-05
3.84004e-05
3.84139e-05
4.29053e-05
4.32436e-05
3.78668e-05
3.84098e-05
3.84163e-05
4.32518e-05
4.34532e-05
4.43698e-05
3.86231e-05
3.86171e-05
3.95264e-05
3.95156e-05
4.34399e-05
4.43682e-05
3.86185e-05
3.86165e-05
3.952e-05
3.953e-05
3.86203e-05
3.95176e-05
3.95167e-05
4.3443e-05
4.43735e-05
3.86214e-05
3.95181e-05
3.95095e-05
4.43668e-05
4.44821e-05
4.44113e-05
3.97897e-05
3.97925e-05
4.0049e-05
4.00688e-05
4.44861e-05
4.44219e-05
3.97902e-05
3.97944e-05
4.00561e-05
4.00494e-05
3.9796e-05
4.00615e-05
4.00754e-05
4.44887e-05
4.44121e-05
3.97915e-05
4.00665e-05
4.0078e-05
4.44317e-05
4.44663e-05
4.62794e-05
4.01299e-05
4.01428e-05
4.14914e-05
4.14746e-05
4.4474e-05
4.62681e-05
4.01333e-05
4.01291e-05
4.14868e-05
4.14979e-05
4.01475e-05
4.14808e-05
4.14753e-05
4.44637e-05
4.62855e-05
4.01497e-05
4.14849e-05
4.14727e-05
4.62708e-05
4.64922e-05
4.505e-05
4.18389e-05
4.18376e-05
4.17194e-05
4.17313e-05
4.64856e-05
4.50566e-05
4.18411e-05
4.1844e-05
4.17225e-05
4.17171e-05
4.18437e-05
4.17196e-05
4.17395e-05
4.65008e-05
4.50505e-05
4.1843e-05
4.17295e-05
4.17398e-05
4.50755e-05
4.48369e-05
4.68816e-05
4.15693e-05
4.15778e-05
4.23244e-05
4.23185e-05
4.48429e-05
4.68822e-05
4.15687e-05
4.15653e-05
4.23146e-05
4.23215e-05
4.15827e-05
4.23293e-05
4.23121e-05
4.48345e-05
4.68732e-05
4.15818e-05
4.23127e-05
4.23076e-05
4.6841e-05
4.85038e-05
5.35168e-05
4.42154e-05
4.42006e-05
4.78477e-05
4.78457e-05
4.85055e-05
5.35079e-05
4.42011e-05
4.42145e-05
4.78484e-05
4.78471e-05
4.41882e-05
4.78401e-05
4.78542e-05
4.84983e-05
5.35175e-05
4.4182e-05
4.78515e-05
4.7854e-05
5.35302e-05
5.35536e-05
4.72458e-05
4.79013e-05
4.7899e-05
4.49999e-05
4.49943e-05
5.35439e-05
4.72389e-05
4.79024e-05
4.79008e-05
4.50012e-05
4.50024e-05
4.79082e-05
4.49905e-05
4.50013e-05
5.35541e-05
4.72497e-05
4.79079e-05
4.50035e-05
4.49998e-05
4.72453e-05
4.61054e-05
4.13845e-05
4.30641e-05
4.30623e-05
3.95864e-05
3.9593e-05
4.61028e-05
4.13969e-05
4.30651e-05
4.30675e-05
3.95886e-05
3.959e-05
4.30664e-05
3.95985e-05
3.95934e-05
4.61099e-05
4.13886e-05
4.30658e-05
3.95936e-05
3.95961e-05
4.13923e-05
4.12593e-05
4.31699e-05
3.92642e-05
3.92716e-05
3.98295e-05
3.98361e-05
4.12719e-05
4.31723e-05
3.92668e-05
3.92675e-05
3.98323e-05
3.98317e-05
3.9272e-05
3.98395e-05
3.98374e-05
4.1263e-05
4.317e-05
3.92752e-05
3.98368e-05
3.98406e-05
4.31742e-05
4.41849e-05
4.92841e-05
4.13384e-05
4.13425e-05
4.61078e-05
4.61053e-05
4.41844e-05
4.92783e-05
4.13408e-05
4.13392e-05
4.61059e-05
4.61057e-05
4.13447e-05
4.61022e-05
4.61074e-05
4.41843e-05
4.92823e-05
4.13469e-05
4.61068e-05
4.61045e-05
4.92823e-05
5.01689e-05
5.36644e-05
4.74597e-05
4.74565e-05
5.06622e-05
5.06594e-05
5.01641e-05
5.36636e-05
4.74568e-05
4.74575e-05
5.06579e-05
5.06611e-05
4.74582e-05
5.066e-05
5.06604e-05
5.01672e-05
5.36637e-05
4.74548e-05
5.06588e-05
5.0658e-05
5.3663e-05
5.41702e-05
5.55991e-05
5.14219e-05
5.14197e-05
5.28218e-05
5.28217e-05
5.41702e-05
5.56006e-05
5.1418e-05
5.14213e-05
5.28201e-05
5.28227e-05
5.1421e-05
5.28245e-05
5.28244e-05
5.41696e-05
5.56003e-05
5.14193e-05
5.28231e-05
5.28244e-05
5.56019e-05
5.57484e-05
5.58947e-05
5.3044e-05
5.30446e-05
5.32684e-05
5.327e-05
5.57502e-05
5.58962e-05
5.30432e-05
5.30453e-05
5.32693e-05
5.32698e-05
5.30477e-05
5.32718e-05
5.32735e-05
5.575e-05
5.58966e-05
5.30481e-05
5.3273e-05
5.32743e-05
5.58995e-05
5.5905e-05
5.57216e-05
5.32702e-05
5.32718e-05
5.31841e-05
5.31848e-05
5.59064e-05
5.57204e-05
5.32712e-05
5.32715e-05
5.31855e-05
5.31838e-05
5.32753e-05
5.31857e-05
5.31881e-05
5.59067e-05
5.57208e-05
5.32761e-05
5.31881e-05
5.31889e-05
5.57236e-05
5.5727e-05
5.56262e-05
5.31414e-05
5.31416e-05
5.30736e-05
5.30735e-05
5.57256e-05
5.56246e-05
5.31426e-05
5.31408e-05
5.30742e-05
5.30732e-05
5.31448e-05
5.3075e-05
5.30763e-05
5.5726e-05
5.56251e-05
5.31456e-05
5.30766e-05
5.3077e-05
5.56271e-05
5.56408e-05
5.56498e-05
5.30687e-05
5.30688e-05
5.308e-05
5.30811e-05
5.56393e-05
5.56516e-05
5.30692e-05
5.30686e-05
5.30802e-05
5.30811e-05
5.30715e-05
5.30832e-05
5.30835e-05
5.56398e-05
5.56518e-05
5.30722e-05
5.30841e-05
5.30842e-05
5.56531e-05
5.56768e-05
5.56946e-05
5.30951e-05
5.30965e-05
5.31293e-05
5.31311e-05
5.56789e-05
5.56967e-05
5.30953e-05
5.30964e-05
5.31295e-05
5.31305e-05
5.3099e-05
5.31331e-05
5.31335e-05
5.5679e-05
5.56963e-05
5.30997e-05
5.31338e-05
5.31342e-05
5.56982e-05
5.57171e-05
5.57186e-05
5.31375e-05
5.31391e-05
5.31528e-05
5.31533e-05
5.57189e-05
5.5719e-05
5.31377e-05
5.31384e-05
5.3153e-05
5.31525e-05
5.31416e-05
5.3155e-05
5.31559e-05
5.57185e-05
5.57185e-05
5.31422e-05
5.31556e-05
5.31564e-05
5.57208e-05
5.57381e-05
5.57145e-05
5.31547e-05
5.31549e-05
5.31552e-05
5.31553e-05
5.57383e-05
5.57131e-05
5.31549e-05
5.31542e-05
5.31555e-05
5.31549e-05
5.31576e-05
5.3157e-05
5.31582e-05
5.57377e-05
5.57135e-05
5.31581e-05
5.31579e-05
5.31587e-05
5.57158e-05
5.57306e-05
5.57212e-05
5.31546e-05
5.31551e-05
5.31553e-05
5.31568e-05
5.57294e-05
5.57234e-05
5.31549e-05
5.31547e-05
5.31555e-05
5.3156e-05
5.3158e-05
5.31585e-05
5.31594e-05
5.57299e-05
5.57233e-05
5.31586e-05
5.31591e-05
5.316e-05
5.57252e-05
5.57417e-05
5.57098e-05
5.3156e-05
5.31575e-05
5.31556e-05
5.31565e-05
5.57437e-05
5.57108e-05
5.31562e-05
5.31566e-05
5.31558e-05
5.31557e-05
5.31601e-05
5.31583e-05
5.3159e-05
5.57434e-05
5.571e-05
5.31607e-05
5.31586e-05
5.31595e-05
5.57124e-05
5.57299e-05
5.57145e-05
5.31554e-05
5.3156e-05
5.31544e-05
5.31552e-05
5.57296e-05
5.57158e-05
5.31556e-05
5.31554e-05
5.31548e-05
5.31551e-05
5.31586e-05
5.31569e-05
5.3158e-05
5.57292e-05
5.57175e-05
5.31592e-05
5.31581e-05
5.31586e-05
5.57197e-05
5.57292e-05
5.57231e-05
5.31544e-05
5.31551e-05
5.31549e-05
5.31553e-05
5.57303e-05
5.57236e-05
5.31547e-05
5.31549e-05
5.31551e-05
5.31546e-05
5.31578e-05
5.3157e-05
5.31578e-05
5.57318e-05
5.57233e-05
5.31584e-05
5.31576e-05
5.31583e-05
5.57247e-05
5.57426e-05
5.57054e-05
5.31547e-05
5.31548e-05
5.31528e-05
5.31534e-05
5.57424e-05
5.5706e-05
5.31549e-05
5.31535e-05
5.31529e-05
5.3152e-05
5.31575e-05
5.31554e-05
5.31562e-05
5.57417e-05
5.57045e-05
5.31579e-05
5.31551e-05
5.31564e-05
5.57076e-05
5.57245e-05
5.57218e-05
5.3153e-05
5.31538e-05
5.31555e-05
5.31567e-05
5.57267e-05
5.57227e-05
5.31531e-05
5.31524e-05
5.31558e-05
5.31565e-05
5.31565e-05
5.31588e-05
5.31599e-05
5.57251e-05
5.57239e-05
5.31568e-05
5.31596e-05
5.31603e-05
5.5726e-05
5.57371e-05
5.57256e-05
5.31556e-05
5.31569e-05
5.31605e-05
5.31617e-05
5.57378e-05
5.57266e-05
5.3156e-05
5.31569e-05
5.3161e-05
5.31619e-05
5.31601e-05
5.31634e-05
5.31638e-05
5.57401e-05
5.57264e-05
5.31606e-05
5.31649e-05
5.31648e-05
5.57271e-05
5.57469e-05
5.57168e-05
5.31616e-05
5.31625e-05
5.31594e-05
5.31598e-05
5.57479e-05
5.57163e-05
5.3162e-05
5.31626e-05
5.31596e-05
5.31592e-05
5.31646e-05
5.3161e-05
5.31613e-05
5.57481e-05
5.57167e-05
5.31655e-05
5.31621e-05
5.31622e-05
5.57179e-05
5.57326e-05
5.57222e-05
5.31588e-05
5.31592e-05
5.31542e-05
5.31551e-05
5.57323e-05
5.57233e-05
5.3159e-05
5.31584e-05
5.31546e-05
5.31548e-05
5.31607e-05
5.31569e-05
5.31579e-05
5.57324e-05
5.5723e-05
5.31614e-05
5.31583e-05
5.31583e-05
5.5725e-05
5.57369e-05
5.57108e-05
5.31518e-05
5.31526e-05
5.31509e-05
5.31514e-05
5.57389e-05
5.5709e-05
5.31523e-05
5.31523e-05
5.31513e-05
5.31504e-05
5.31557e-05
5.31536e-05
5.31544e-05
5.57403e-05
5.57057e-05
5.31561e-05
5.31537e-05
5.31547e-05
5.571e-05
5.57331e-05
5.57065e-05
5.31516e-05
5.31522e-05
5.31517e-05
5.31525e-05
5.57317e-05
5.57083e-05
5.3152e-05
5.31512e-05
5.3152e-05
5.31525e-05
5.31551e-05
5.31547e-05
5.31552e-05
5.57273e-05
5.571e-05
5.31555e-05
5.31557e-05
5.31559e-05
5.57097e-05
5.57256e-05
5.57127e-05
5.31526e-05
5.31533e-05
5.31533e-05
5.31542e-05
5.57261e-05
5.57141e-05
5.3153e-05
5.31539e-05
5.31536e-05
5.3154e-05
5.31561e-05
5.31563e-05
5.31568e-05
5.57269e-05
5.57171e-05
5.31569e-05
5.3157e-05
5.31572e-05
5.57172e-05
5.57278e-05
5.57218e-05
5.31532e-05
5.31542e-05
5.31534e-05
5.31545e-05
5.57291e-05
5.57231e-05
5.31537e-05
5.31537e-05
5.31541e-05
5.31544e-05
5.31569e-05
5.31569e-05
5.31575e-05
5.57312e-05
5.57235e-05
5.31573e-05
5.31578e-05
5.3158e-05
5.5726e-05
5.57361e-05
5.57196e-05
5.31531e-05
5.3154e-05
5.31551e-05
5.31558e-05
5.57375e-05
5.57192e-05
5.31536e-05
5.31541e-05
5.31549e-05
5.31542e-05
5.31567e-05
5.31575e-05
5.31582e-05
5.5742e-05
5.57117e-05
5.31574e-05
5.31577e-05
5.31584e-05
5.57177e-05
5.57407e-05
5.57059e-05
5.31552e-05
5.31559e-05
5.31525e-05
5.31534e-05
5.57406e-05
5.57069e-05
5.31549e-05
5.31544e-05
5.3153e-05
5.3153e-05
5.31587e-05
5.3156e-05
5.31564e-05
5.57344e-05
5.57082e-05
5.31587e-05
5.31564e-05
5.31565e-05
5.57095e-05
5.57251e-05
5.57245e-05
5.31534e-05
5.31545e-05
5.31566e-05
5.31579e-05
5.57257e-05
5.57261e-05
5.31545e-05
5.31544e-05
5.31568e-05
5.31572e-05
5.31569e-05
5.31598e-05
5.31601e-05
5.57258e-05
5.57261e-05
5.31574e-05
5.31608e-05
5.31606e-05
5.57275e-05
5.57406e-05
5.57153e-05
5.31566e-05
5.31578e-05
5.31561e-05
5.31574e-05
5.57427e-05
5.57155e-05
5.31565e-05
5.3157e-05
5.31568e-05
5.31571e-05
5.31602e-05
5.31596e-05
5.31599e-05
5.57423e-05
5.57159e-05
5.31605e-05
5.31601e-05
5.31602e-05
5.57172e-05
5.57387e-05
5.57143e-05
5.31574e-05
5.31586e-05
5.31565e-05
5.31574e-05
5.57391e-05
5.57153e-05
5.31583e-05
5.31585e-05
5.31569e-05
5.3157e-05
5.31614e-05
5.31595e-05
5.31604e-05
5.57393e-05
5.57155e-05
5.31619e-05
5.31602e-05
5.31607e-05
5.57179e-05
5.57297e-05
5.5724e-05
5.31563e-05
5.31571e-05
5.31551e-05
5.3156e-05
5.57306e-05
5.57246e-05
5.31565e-05
5.31566e-05
5.31555e-05
5.31554e-05
5.31601e-05
5.31579e-05
5.31589e-05
5.57307e-05
5.57244e-05
5.31604e-05
5.31587e-05
5.31592e-05
5.57267e-05
5.57409e-05
5.57143e-05
5.31555e-05
5.31563e-05
5.31542e-05
5.3155e-05
5.5742e-05
5.57138e-05
5.31558e-05
5.31558e-05
5.31546e-05
5.31545e-05
5.31593e-05
5.31569e-05
5.31579e-05
5.57419e-05
5.57141e-05
5.31595e-05
5.31576e-05
5.31581e-05
5.57157e-05
5.57372e-05
5.57103e-05
5.31554e-05
5.31562e-05
5.31538e-05
5.31546e-05
5.57369e-05
5.57113e-05
5.31557e-05
5.31557e-05
5.31542e-05
5.31541e-05
5.3159e-05
5.31564e-05
5.31571e-05
5.57371e-05
5.57113e-05
5.31592e-05
5.3157e-05
5.31574e-05
5.57136e-05
5.57268e-05
5.57231e-05
5.31551e-05
5.31559e-05
5.31542e-05
5.31551e-05
5.57275e-05
5.57244e-05
5.31555e-05
5.31553e-05
5.31546e-05
5.31546e-05
5.31583e-05
5.31568e-05
5.31574e-05
5.57273e-05
5.57246e-05
5.31586e-05
5.31575e-05
5.31576e-05
5.57259e-05
5.57392e-05
5.57193e-05
5.31562e-05
5.31571e-05
5.31539e-05
5.31547e-05
5.57414e-05
5.5717e-05
5.31566e-05
5.31566e-05
5.31542e-05
5.3154e-05
5.31593e-05
5.31563e-05
5.31566e-05
5.57422e-05
5.57142e-05
5.31596e-05
5.31567e-05
5.31569e-05
5.57143e-05
5.57399e-05
5.57185e-05
5.31573e-05
5.31581e-05
5.31542e-05
5.31548e-05
5.57394e-05
5.57128e-05
5.31575e-05
5.31574e-05
5.31543e-05
5.31542e-05
5.31602e-05
5.31563e-05
5.31568e-05
5.5737e-05
5.57131e-05
5.31604e-05
5.31568e-05
5.3157e-05
5.57145e-05
5.57404e-05
5.57104e-05
5.31588e-05
5.31595e-05
5.31521e-05
5.31529e-05
5.57342e-05
5.57097e-05
5.31589e-05
5.31589e-05
5.31523e-05
5.31524e-05
5.31615e-05
5.31545e-05
5.31552e-05
5.57328e-05
5.57098e-05
5.31617e-05
5.3155e-05
5.31554e-05
5.57147e-05
5.57286e-05
5.55157e-05
5.31392e-05
5.314e-05
5.29705e-05
5.29717e-05
5.57252e-05
5.55162e-05
5.31395e-05
5.31395e-05
5.29725e-05
5.297e-05
5.31422e-05
5.29751e-05
5.29731e-05
5.57256e-05
5.55157e-05
5.31424e-05
5.29743e-05
5.29749e-05
5.55177e-05
5.5333e-05
5.19173e-05
5.19182e-05
5.5333e-05
5.19195e-05
5.19165e-05
4.04348e-05
4.04339e-05
4.04359e-05
5.19194e-05
5.53325e-05
5.19216e-05
6.48677e-05
7.13796e-05
6.47423e-05
7.14143e-05
6.9565e-05
6.95881e-05
6.48744e-05
7.13847e-05
6.47411e-05
7.14284e-05
2.11975e-05
2.12022e-05
2.12024e-05
2.17892e-05
2.1789e-05
2.1792e-05
2.17912e-05
5.36112e-05
6.02611e-05
2.92466e-05
3.71494e-05
5.33715e-05
6.04523e-05
2.94946e-05
6.95576e-05
6.95874e-05
5.36127e-05
2.92515e-05
6.02654e-05
3.71534e-05
5.33727e-05
2.94993e-05
6.04553e-05
6.7004e-05
6.70249e-05
4.23945e-05
6.71253e-05
6.71423e-05
6.51432e-05
7.14746e-05
6.50629e-05
7.14787e-05
6.95951e-05
6.95987e-05
6.51481e-05
7.14813e-05
6.5072e-05
7.14853e-05
2.19903e-05
2.1993e-05
2.19915e-05
2.25463e-05
2.25481e-05
2.25509e-05
2.25564e-05
5.41579e-05
6.06587e-05
3.02805e-05
3.80543e-05
5.39681e-05
6.06576e-05
3.05361e-05
6.95923e-05
6.95927e-05
5.41577e-05
3.02816e-05
6.06499e-05
3.80562e-05
5.39655e-05
3.05388e-05
6.06672e-05
6.71856e-05
6.71882e-05
4.29998e-05
6.70864e-05
6.71063e-05
6.51295e-05
7.15012e-05
6.50764e-05
7.16357e-05
6.96745e-05
6.97637e-05
6.51258e-05
7.14993e-05
6.50744e-05
7.16346e-05
2.27293e-05
2.27323e-05
2.27363e-05
2.33778e-05
2.33717e-05
2.33788e-05
2.33714e-05
5.43358e-05
6.06314e-05
3.11902e-05
3.88748e-05
5.4244e-05
6.1011e-05
3.13884e-05
6.96832e-05
6.97656e-05
5.43311e-05
3.11968e-05
6.06445e-05
3.88742e-05
5.42507e-05
3.13924e-05
6.09825e-05
6.70924e-05
6.71059e-05
4.38345e-05
6.76128e-05
6.76047e-05
6.57009e-05
7.17004e-05
6.56916e-05
7.15962e-05
6.97272e-05
6.96534e-05
6.57072e-05
7.17125e-05
6.56982e-05
7.16117e-05
2.36298e-05
2.36359e-05
2.3632e-05
2.41759e-05
2.4183e-05
2.4181e-05
2.41922e-05
5.51748e-05
6.1419e-05
3.2284e-05
3.99527e-05
5.50198e-05
6.12527e-05
3.26073e-05
6.97078e-05
6.96442e-05
5.51809e-05
3.22856e-05
6.14301e-05
3.9959e-05
5.50158e-05
3.26136e-05
6.12928e-05
6.78559e-05
6.78627e-05
4.44903e-05
6.72605e-05
6.73011e-05
6.53901e-05
7.16235e-05
6.52218e-05
7.19187e-05
6.97953e-05
7.00095e-05
6.54045e-05
7.16177e-05
6.52229e-05
7.19199e-05
2.42811e-05
2.42796e-05
2.4286e-05
2.50727e-05
2.50675e-05
2.50767e-05
2.50681e-05
5.49691e-05
6.08443e-05
3.30739e-05
4.03415e-05
5.49396e-05
6.14326e-05
3.31994e-05
6.98143e-05
7.00145e-05
5.49662e-05
3.30786e-05
6.08272e-05
4.03352e-05
5.49417e-05
3.32008e-05
6.13765e-05
6.68782e-05
6.68863e-05
4.48659e-05
6.80864e-05
6.80758e-05
6.62213e-05
7.20056e-05
6.63947e-05
7.15256e-05
6.98913e-05
6.95256e-05
6.62213e-05
7.20227e-05
6.64105e-05
7.15353e-05
2.54289e-05
2.54385e-05
2.54333e-05
2.59837e-05
2.59839e-05
2.5988e-05
2.59953e-05
5.61938e-05
6.25001e-05
3.43975e-05
4.19162e-05
5.61259e-05
6.20131e-05
3.47774e-05
6.98678e-05
6.95131e-05
5.62094e-05
3.44071e-05
6.25409e-05
4.19306e-05
5.61394e-05
3.47888e-05
6.2085e-05
6.91057e-05
6.9126e-05
4.64611e-05
6.74861e-05
6.75256e-05
6.45298e-05
7.12636e-05
6.44061e-05
7.21129e-05
6.96043e-05
7.04089e-05
6.4523e-05
7.12573e-05
6.43836e-05
7.21131e-05
2.6013e-05
2.60161e-05
2.6024e-05
2.64332e-05
2.64356e-05
2.64345e-05
2.64357e-05
5.48234e-05
5.95595e-05
3.50467e-05
4.15587e-05
5.49305e-05
5.96749e-05
3.5078e-05
6.96179e-05
7.04193e-05
5.47991e-05
3.50537e-05
5.95276e-05
4.15594e-05
5.49134e-05
3.50825e-05
5.96177e-05
6.43034e-05
6.42994e-05
4.45617e-05
6.51609e-05
6.51445e-05
7.13994e-05
7.38896e-05
6.92009e-05
7.42462e-05
7.16219e-05
7.1715e-05
7.14045e-05
7.38987e-05
6.92107e-05
7.4257e-05
2.729e-05
2.72853e-05
2.72744e-05
3.01614e-05
3.0158e-05
3.01643e-05
3.01642e-05
6.1467e-05
6.54514e-05
3.68865e-05
4.61276e-05
5.88548e-05
6.80963e-05
3.84132e-05
7.16134e-05
7.17074e-05
6.14809e-05
3.68659e-05
6.54478e-05
4.61193e-05
5.88537e-05
3.84065e-05
6.81194e-05
7.23784e-05
7.23974e-05
5.18165e-05
7.51636e-05
7.51866e-05
6.81056e-05
7.294e-05
7.15198e-05
7.15754e-05
7.03255e-05
6.93395e-05
6.81136e-05
7.29478e-05
7.15281e-05
7.1578e-05
3.04024e-05
3.04104e-05
3.04117e-05
2.99397e-05
2.99347e-05
2.99442e-05
2.99454e-05
5.95223e-05
6.8346e-05
4.02081e-05
4.77105e-05
6.23901e-05
6.46139e-05
4.01625e-05
7.03286e-05
6.9344e-05
5.95244e-05
4.02192e-05
6.83722e-05
4.77245e-05
6.24038e-05
4.01737e-05
6.46281e-05
7.41947e-05
7.42019e-05
5.19855e-05
7.00673e-05
7.00729e-05
6.07877e-05
7.01249e-05
6.27049e-05
6.99101e-05
6.84578e-05
6.84183e-05
6.07789e-05
7.01265e-05
6.26972e-05
6.99143e-05
2.89388e-05
2.89473e-05
2.89481e-05
2.64824e-05
2.64856e-05
2.64875e-05
2.64894e-05
5.10765e-05
5.8756e-05
3.73625e-05
4.14736e-05
5.34907e-05
5.6661e-05
3.60601e-05
6.84567e-05
6.84167e-05
5.10667e-05
3.73681e-05
5.87473e-05
4.14742e-05
5.34827e-05
3.60628e-05
5.66451e-05
6.42569e-05
6.42656e-05
4.32537e-05
6.24104e-05
6.24237e-05
6.12852e-05
7.0359e-05
6.01357e-05
7.09522e-05
6.89095e-05
6.94177e-05
6.12933e-05
7.03667e-05
6.01343e-05
7.09609e-05
2.61396e-05
2.61405e-05
2.61426e-05
2.61204e-05
2.61251e-05
2.61253e-05
2.61275e-05
5.0694e-05
5.58054e-05
3.41651e-05
3.9223e-05
4.9859e-05
5.6813e-05
3.4105e-05
6.8907e-05
6.94176e-05
5.06999e-05
3.41654e-05
5.57898e-05
3.92178e-05
4.98553e-05
3.41054e-05
5.68096e-05
6.19247e-05
6.19441e-05
4.12784e-05
6.29926e-05
6.30117e-05
6.52506e-05
7.20058e-05
6.36908e-05
7.26365e-05
7.02228e-05
7.07275e-05
6.52559e-05
7.20125e-05
6.36961e-05
7.26427e-05
2.67106e-05
2.67105e-05
2.67126e-05
3.16536e-05
3.16517e-05
3.16557e-05
3.16552e-05
5.56022e-05
5.93331e-05
3.58521e-05
4.30468e-05
5.36618e-05
6.09774e-05
3.76091e-05
7.022e-05
7.07268e-05
5.56043e-05
3.58565e-05
5.93361e-05
4.30504e-05
5.3669e-05
3.76141e-05
6.09857e-05
6.52284e-05
6.52388e-05
4.63252e-05
6.66903e-05
6.66976e-05
6.86856e-05
7.35176e-05
6.7522e-05
7.39411e-05
7.1364e-05
7.16847e-05
6.86844e-05
7.35205e-05
6.75202e-05
7.39437e-05
3.31956e-05
3.32001e-05
3.31987e-05
3.70453e-05
3.70437e-05
3.70472e-05
3.7046e-05
5.9968e-05
6.34575e-05
4.20885e-05
4.86711e-05
5.85041e-05
6.4703e-05
4.33136e-05
7.13629e-05
7.16856e-05
5.99626e-05
4.20912e-05
6.34582e-05
4.8673e-05
5.85012e-05
4.3315e-05
6.47014e-05
6.89155e-05
6.89226e-05
5.17725e-05
7.00258e-05
7.00344e-05
7.05215e-05
7.43857e-05
7.0024e-05
7.45289e-05
7.19784e-05
7.20816e-05
7.05211e-05
7.43883e-05
7.00206e-05
7.45327e-05
3.80162e-05
3.80192e-05
3.80183e-05
3.99727e-05
3.99736e-05
3.99761e-05
3.99768e-05
6.23978e-05
6.61679e-05
4.60935e-05
5.20285e-05
6.17249e-05
6.66992e-05
4.67195e-05
7.19778e-05
7.2081e-05
6.23933e-05
4.60924e-05
6.61613e-05
5.20262e-05
6.17204e-05
4.67184e-05
6.66954e-05
7.13237e-05
7.13336e-05
5.49167e-05
7.1776e-05
7.17875e-05
7.08993e-05
7.45986e-05
7.08599e-05
7.45926e-05
7.21164e-05
7.21118e-05
7.09028e-05
7.46039e-05
7.08615e-05
7.45986e-05
4.03442e-05
4.03468e-05
4.03478e-05
4.08781e-05
4.08792e-05
4.08823e-05
4.0884e-05
6.29995e-05
6.70798e-05
4.78118e-05
5.31812e-05
6.29116e-05
6.7123e-05
4.79714e-05
7.21146e-05
7.211e-05
6.29988e-05
4.78123e-05
6.70772e-05
5.31813e-05
6.29101e-05
4.79728e-05
6.71224e-05
7.20866e-05
7.20987e-05
5.58549e-05
7.21071e-05
7.21194e-05
7.07472e-05
7.45403e-05
7.08105e-05
7.4519e-05
7.20717e-05
7.20598e-05
7.07522e-05
7.45469e-05
7.08154e-05
7.45255e-05
4.09318e-05
4.09349e-05
4.09367e-05
4.09431e-05
4.09435e-05
4.09468e-05
4.09486e-05
6.28811e-05
6.70321e-05
4.81126e-05
5.32664e-05
6.29537e-05
6.69602e-05
4.81116e-05
7.20693e-05
7.20576e-05
6.28815e-05
4.81153e-05
6.70344e-05
5.32681e-05
6.29541e-05
4.81145e-05
6.6964e-05
7.1984e-05
7.19962e-05
5.5822e-05
7.19102e-05
7.19228e-05
7.06416e-05
7.44956e-05
7.06587e-05
7.4494e-05
7.20438e-05
7.20456e-05
7.06468e-05
7.45022e-05
7.06637e-05
7.45004e-05
4.09183e-05
4.09217e-05
4.09234e-05
4.08309e-05
4.08308e-05
4.08341e-05
4.08353e-05
6.27377e-05
6.6861e-05
4.80269e-05
5.31096e-05
6.27688e-05
6.68405e-05
4.79935e-05
7.20415e-05
7.20439e-05
6.27372e-05
4.80303e-05
6.68631e-05
5.31116e-05
6.27688e-05
4.79967e-05
6.68431e-05
7.18276e-05
7.18395e-05
5.56568e-05
7.18104e-05
7.18226e-05
7.06403e-05
7.44956e-05
7.06322e-05
7.45017e-05
7.20465e-05
7.20536e-05
7.06442e-05
7.45014e-05
7.06367e-05
7.45071e-05
4.08196e-05
4.08228e-05
4.08239e-05
4.08165e-05
4.0817e-05
4.08202e-05
4.08211e-05
6.27231e-05
6.68339e-05
4.79483e-05
5.30702e-05
6.2718e-05
6.68464e-05
4.7947e-05
7.20447e-05
7.20522e-05
6.27224e-05
4.7951e-05
6.68356e-05
5.30715e-05
6.27175e-05
4.79497e-05
6.68473e-05
7.18111e-05
7.18232e-05
5.56228e-05
7.1826e-05
7.18381e-05
7.06715e-05
7.45083e-05
7.06599e-05
7.45129e-05
7.20561e-05
7.20618e-05
7.06748e-05
7.45138e-05
7.0663e-05
7.45182e-05
4.08248e-05
4.08278e-05
4.08285e-05
4.08645e-05
4.08663e-05
4.0869e-05
4.08703e-05
6.27651e-05
6.68696e-05
4.79709e-05
5.31121e-05
6.275e-05
6.68824e-05
4.79851e-05
7.20544e-05
7.20604e-05
6.27643e-05
4.79732e-05
6.68699e-05
5.31129e-05
6.27494e-05
4.79874e-05
6.68826e-05
7.18456e-05
7.18575e-05
5.56792e-05
7.18564e-05
7.18683e-05
7.06889e-05
7.45162e-05
7.06814e-05
7.45188e-05
7.20614e-05
7.20654e-05
7.06926e-05
7.45216e-05
7.06847e-05
7.45243e-05
4.08771e-05
4.08797e-05
4.08809e-05
4.08977e-05
4.08983e-05
4.09008e-05
4.09024e-05
6.27889e-05
6.68934e-05
4.80162e-05
5.31473e-05
6.27796e-05
6.68983e-05
4.80227e-05
7.20596e-05
7.2064e-05
6.27878e-05
4.80183e-05
6.6893e-05
5.31479e-05
6.27789e-05
4.80248e-05
6.68985e-05
7.1866e-05
7.18778e-05
5.57117e-05
7.18697e-05
7.18815e-05
7.06961e-05
7.45193e-05
7.06927e-05
7.45206e-05
7.2063e-05
7.20665e-05
7.06998e-05
7.45249e-05
7.06962e-05
7.45262e-05
4.09017e-05
4.09042e-05
4.09057e-05
4.09051e-05
4.09054e-05
4.09082e-05
4.09096e-05
6.27979e-05
6.6901e-05
4.80338e-05
5.3157e-05
6.27936e-05
6.69032e-05
4.80352e-05
7.20613e-05
7.20651e-05
6.27967e-05
4.80357e-05
6.69014e-05
5.31578e-05
6.27926e-05
4.80372e-05
6.6904e-05
7.18713e-05
7.18831e-05
5.5722e-05
7.1872e-05
7.18839e-05
7.06964e-05
7.45199e-05
7.06942e-05
7.4521e-05
7.20638e-05
7.20671e-05
7.07001e-05
7.45255e-05
7.06977e-05
7.45266e-05
4.09058e-05
4.09086e-05
4.09099e-05
4.09056e-05
4.09071e-05
4.09095e-05
4.09111e-05
6.27982e-05
6.69028e-05
4.80365e-05
5.31569e-05
6.27973e-05
6.69043e-05
4.80355e-05
7.20621e-05
7.20657e-05
6.27971e-05
4.80385e-05
6.69032e-05
5.31578e-05
6.27963e-05
4.80376e-05
6.69047e-05
7.18729e-05
7.18847e-05
5.57131e-05
7.1874e-05
7.1886e-05
7.06978e-05
7.45203e-05
7.06957e-05
7.45211e-05
7.20639e-05
7.2067e-05
7.07015e-05
7.45258e-05
7.06992e-05
7.45267e-05
4.09071e-05
4.09095e-05
4.09111e-05
4.09056e-05
4.09069e-05
4.09094e-05
4.09109e-05
6.28014e-05
6.69046e-05
4.80358e-05
5.31593e-05
6.27969e-05
6.69057e-05
4.80372e-05
7.20621e-05
7.20655e-05
6.28001e-05
4.80377e-05
6.69047e-05
5.31597e-05
6.27958e-05
4.8039e-05
6.6906e-05
7.18744e-05
7.18863e-05
5.57245e-05
7.18741e-05
7.18862e-05
7.06963e-05
7.45199e-05
7.06944e-05
7.45208e-05
7.20636e-05
7.20667e-05
7.07002e-05
7.45255e-05
7.0698e-05
7.45265e-05
4.09066e-05
4.09091e-05
4.09106e-05
4.09051e-05
4.0906e-05
4.09088e-05
4.09101e-05
6.27971e-05
6.6903e-05
4.80353e-05
5.31574e-05
6.27962e-05
6.69039e-05
4.80344e-05
7.2062e-05
7.20655e-05
6.27961e-05
4.80371e-05
6.69034e-05
5.31583e-05
6.27951e-05
4.80364e-05
6.69048e-05
7.18733e-05
7.18853e-05
5.57232e-05
7.18734e-05
7.18855e-05
7.06959e-05
7.45198e-05
7.06944e-05
7.45206e-05
7.20634e-05
7.20664e-05
7.06996e-05
7.45254e-05
7.06981e-05
7.45261e-05
4.09059e-05
4.09087e-05
4.09099e-05
4.09049e-05
4.09057e-05
4.09081e-05
4.09096e-05
6.27986e-05
6.69031e-05
4.80357e-05
5.3157e-05
6.27969e-05
6.69034e-05
4.80356e-05
7.20616e-05
7.20647e-05
6.27974e-05
4.80376e-05
6.69037e-05
5.31579e-05
6.2796e-05
4.80375e-05
6.69041e-05
7.18728e-05
7.18849e-05
5.57108e-05
7.18725e-05
7.18846e-05
7.06946e-05
7.45194e-05
7.0693e-05
7.45203e-05
7.20632e-05
7.20665e-05
7.0698e-05
7.45248e-05
7.06962e-05
7.45258e-05
4.09053e-05
4.09076e-05
4.09092e-05
4.09043e-05
4.09051e-05
4.09071e-05
4.09089e-05
6.27973e-05
6.6901e-05
4.8034e-05
5.31556e-05
6.27939e-05
6.69019e-05
4.80343e-05
7.20609e-05
7.20646e-05
6.27959e-05
4.80357e-05
6.69011e-05
5.31556e-05
6.27927e-05
4.80359e-05
6.69021e-05
7.18709e-05
7.18827e-05
5.57169e-05
7.18706e-05
7.18823e-05
7.06956e-05
7.45198e-05
7.06924e-05
7.45212e-05
7.20639e-05
7.20675e-05
7.06997e-05
7.45253e-05
7.0696e-05
7.45269e-05
4.09053e-05
4.09072e-05
4.0909e-05
4.09056e-05
4.09068e-05
4.09096e-05
4.09109e-05
6.27981e-05
6.69011e-05
4.80344e-05
5.31572e-05
6.27947e-05
6.69036e-05
4.80345e-05
7.20621e-05
7.20663e-05
6.27967e-05
4.80357e-05
6.69012e-05
5.31574e-05
6.27931e-05
4.8036e-05
6.69043e-05
7.18713e-05
7.18828e-05
5.57214e-05
7.1873e-05
7.18847e-05
7.07005e-05
7.45215e-05
7.06964e-05
7.4523e-05
7.20652e-05
7.20686e-05
7.07048e-05
7.45272e-05
7.07006e-05
7.45288e-05
4.09076e-05
4.09107e-05
4.09117e-05
4.09096e-05
4.09106e-05
4.09138e-05
4.09144e-05
6.28033e-05
6.69057e-05
4.8038e-05
5.31595e-05
6.28004e-05
6.69088e-05
4.80382e-05
7.20637e-05
7.20674e-05
6.28022e-05
4.80399e-05
6.69063e-05
5.31608e-05
6.27993e-05
4.80402e-05
6.69095e-05
7.1876e-05
7.18881e-05
5.57146e-05
7.1878e-05
7.18903e-05
7.07031e-05
7.45222e-05
7.07014e-05
7.45226e-05
7.20651e-05
7.20678e-05
7.07064e-05
7.45278e-05
7.07049e-05
7.45281e-05
4.09107e-05
4.09139e-05
4.09144e-05
4.09096e-05
4.09102e-05
4.09133e-05
4.09139e-05
6.28059e-05
6.69096e-05
4.80411e-05
5.31638e-05
6.28038e-05
6.69096e-05
4.80412e-05
7.20635e-05
7.20663e-05
6.2805e-05
4.80437e-05
6.69101e-05
5.31653e-05
6.28032e-05
4.80437e-05
6.69105e-05
7.18786e-05
7.18909e-05
5.57329e-05
7.1878e-05
7.18903e-05
7.06973e-05
7.45201e-05
7.06979e-05
7.45202e-05
7.20635e-05
7.20661e-05
7.07009e-05
7.45257e-05
7.07009e-05
7.45258e-05
4.09099e-05
4.09129e-05
4.09135e-05
4.09054e-05
4.0906e-05
4.09089e-05
4.09099e-05
6.2799e-05
6.6905e-05
4.80379e-05
5.31599e-05
6.27982e-05
6.6904e-05
4.80375e-05
7.20614e-05
7.20644e-05
6.27976e-05
4.80403e-05
6.69062e-05
5.3161e-05
6.27973e-05
4.80398e-05
6.69055e-05
7.18749e-05
7.18867e-05
5.57159e-05
7.18731e-05
7.18849e-05
7.0693e-05
7.45185e-05
7.06915e-05
7.45196e-05
7.20626e-05
7.20659e-05
7.06973e-05
7.45242e-05
7.06954e-05
7.45253e-05
4.09044e-05
4.09073e-05
4.09084e-05
4.0902e-05
4.09028e-05
4.09053e-05
4.09068e-05
6.27942e-05
6.68999e-05
4.8033e-05
5.31532e-05
6.27938e-05
6.69008e-05
4.80316e-05
7.20607e-05
7.20644e-05
6.27923e-05
4.80351e-05
6.69007e-05
5.3154e-05
6.27923e-05
4.80335e-05
6.69013e-05
7.18706e-05
7.18823e-05
5.5711e-05
7.18704e-05
7.18823e-05
7.06955e-05
7.45192e-05
7.06926e-05
7.45205e-05
7.2063e-05
7.20664e-05
7.06995e-05
7.45248e-05
7.06965e-05
7.4526e-05
4.09028e-05
4.09052e-05
4.09067e-05
4.09024e-05
4.09034e-05
4.09063e-05
4.09074e-05
6.2798e-05
6.69008e-05
4.80331e-05
5.31547e-05
6.27949e-05
6.69022e-05
4.80333e-05
7.20613e-05
7.2065e-05
6.27957e-05
4.80346e-05
6.6901e-05
5.31548e-05
6.27926e-05
4.80349e-05
6.69028e-05
7.18705e-05
7.18825e-05
5.57209e-05
7.1871e-05
7.18831e-05
7.06957e-05
7.45196e-05
7.06941e-05
7.45204e-05
7.20634e-05
7.20667e-05
7.06997e-05
7.45252e-05
7.06977e-05
7.45261e-05
4.09044e-05
4.09074e-05
4.09084e-05
4.09043e-05
4.09058e-05
4.09082e-05
4.09095e-05
6.27976e-05
6.69015e-05
4.80334e-05
5.31561e-05
6.27946e-05
6.69031e-05
4.80339e-05
7.20617e-05
7.20653e-05
6.27955e-05
4.80355e-05
6.69022e-05
5.31574e-05
6.27927e-05
4.8036e-05
6.69037e-05
7.18716e-05
7.18835e-05
5.57216e-05
7.18721e-05
7.18841e-05
7.06936e-05
7.45192e-05
7.06921e-05
7.45203e-05
7.20636e-05