/*--------------------------------*- C++ -*----------------------------------*\
| =========                 |                                                 |
| \\      /  F ield         | OpenFOAM: The Open Source CFD Toolbox           |
|  \\    /   O peration     | Version:  v2012                                 |
|   \\  /    A nd           | Website:  www.openfoam.com                      |
|    \\/     M anipulation  |                                                 |
\*---------------------------------------------------------------------------*/
FoamFile
{
    version     2.0;
    format      ascii;
    class       volScalarField;
    location    "250";
    object      nut;
}
// * * * * * * * * * * * * * * * * * * * * * * * * * * * * * * * * * * * * * //

dimensions      [0 2 -1 0 0 0 0];


internalField   nonuniform List<scalar> 
85864
(
0.000123753
0.000140068
0.000140093
0.000137635
0.000126878
0.000143819
0.000143779
0.000140647
0.000129301
0.000145781
0.000145801
0.000141802
0.000133541
0.000151432
0.000151444
0.000146829
0.000134845
0.000150856
0.000150853
0.000144676
0.000141722
0.000160869
0.000160937
0.000156176
0.000142499
0.000156435
0.000156458
0.000144746
0.000148431
0.000170583
0.000170355
0.000160858
0.000181573
0.000202817
0.000202897
0.00020057
0.000166173
0.000169655
0.000169698
0.000157225
0.000131824
0.000139291
0.000139246
0.000124456
0.000129311
0.000147604
0.000147597
0.000134857
0.000189338
0.000188004
0.000188019
0.000166336
0.000242474
0.00021759
0.000217559
0.000189978
0.000271391
0.000230898
0.000230872
0.000200236
0.000279343
0.000233025
0.000233016
0.000201539
0.000279336
0.000232023
0.000232022
0.000200419
0.000277959
0.000231375
0.000231368
0.000199786
0.000277917
0.000231564
0.000231553
0.000199989
0.000278562
0.000231906
0.000231893
0.000200241
0.000278905
0.000232035
0.000232023
0.000200372
0.000278955
0.000232037
0.000232027
0.000200317
0.000278961
0.000232056
0.000232042
0.000200408
0.000278958
0.000232045
0.000232032
0.000200306
0.000278952
0.000232038
0.000232028
0.00020033
0.000278949
0.000232035
0.000232018
0.000200402
0.00027894
0.000232025
0.000232004
0.000200277
0.000278961
0.000232049
0.000232038
0.000200379
0.000279008
0.000232092
0.000232086
0.000200422
0.000279009
0.000232069
0.000232059
0.00020033
0.000278943
0.000232024
0.000232016
0.000200401
0.000278912
0.000232022
0.000232002
0.000200325
0.000278931
0.000232029
0.000232022
0.000200281
0.000278945
0.000232038
0.000232022
0.000200306
0.000278949
0.000232034
0.000232027
0.000200389
0.000278961
0.000232051
0.000232032
0.000200379
0.000278967
0.000232038
0.000232027
0.000200295
0.000278986
0.000232066
0.000232053
0.000200415
0.000279002
0.000232073
0.000232063
0.000200374
0.000278999
0.000232063
0.00023205
0.000200318
0.00027899
0.000232056
0.000232044
0.000200395
0.000278982
0.000232053
0.000232041
0.000200359
0.000278981
0.00023205
0.000232037
0.000200308
0.000278984
0.000232057
0.000232044
0.000200415
0.000278987
0.000232061
0.000232046
0.000200364
0.000278992
0.000232068
0.000232054
0.000200326
0.000279078
0.000231966
0.000231952
0.00020035
0.000283556
0.000234296
0.000234289
0.000204802
0.000137676
0.000140406
0.000140121
0.000140067
0.00014299
0.00014299
0.000137628
0.000140443
0.000140105
0.00014009
0.000142992
0.000142996
0.000140081
0.000143038
0.000142998
0.000137649
0.000140425
0.000140089
0.000143003
0.000142996
0.000140432
0.000140599
0.000141179
0.000143732
0.00014376
0.000145095
0.000145143
0.00014066
0.000141164
0.000143746
0.000143769
0.000145137
0.000145071
0.000143775
0.00014511
0.000145175
0.000140638
0.000141158
0.000143763
0.000145164
0.000145213
0.000141209
0.000141821
0.000146551
0.000145825
0.000145788
0.000150131
0.000150032
0.000141753
0.000146539
0.000145816
0.000145765
0.000150095
0.000150144
0.000145804
0.000150078
0.000150028
0.000141757
0.000146565
0.000145834
0.000150063
0.000149992
0.000146508
0.000146812
0.000144977
0.000151423
0.000151423
0.000151083
0.000151236
0.000146836
0.00014506
0.000151437
0.000151445
0.000151158
0.000151074
0.000151437
0.0001512
0.000151277
0.000146847
0.000144982
0.000151419
0.000151225
0.000151314
0.000145114
0.000144577
0.000154966
0.000150754
0.000150861
0.000158612
0.000158471
0.000144645
0.000154897
0.000150802
0.000150734
0.00015859
0.000158648
0.000150889
0.000158555
0.00015846
0.00014456
0.000154991
0.000150924
0.000158557
0.000158457
0.000154874
0.000156175
0.000146899
0.0001609
0.000160872
0.00015858
0.000158668
0.000156135
0.000146946
0.00016093
0.000160929
0.000158629
0.000158556
0.000160902
0.000158597
0.000158726
0.00015622
0.000146906
0.000160914
0.000158671
0.000158749
0.000147067
0.000144624
0.000151751
0.000156408
0.000156474
0.000157435
0.000157394
0.000144668
0.000151766
0.00015643
0.00015637
0.000157382
0.000157402
0.000156508
0.000157491
0.000157339
0.000144614
0.000151692
0.000156522
0.000157357
0.000157323
0.000151484
0.000161082
0.000199558
0.000170507
0.000170392
0.000200514
0.000200497
0.000161106
0.000199517
0.000170415
0.000170488
0.000200537
0.000200493
0.000170282
0.000200488
0.000200547
0.000161038
0.000199552
0.000170252
0.000200546
0.000200566
0.000199637
0.000200492
0.000164977
0.000202862
0.000202842
0.000184334
0.000184278
0.000200443
0.000164923
0.00020289
0.000202839
0.000184361
0.000184334
0.000202903
0.000184264
0.000184327
0.000200485
0.000164992
0.000202921
0.000184362
0.00018433
0.000164959
0.000157227
0.000126209
0.000169662
0.000169635
0.0001426
0.000142636
0.000157202
0.000126283
0.000169684
0.000169671
0.000142626
0.000142613
0.000169661
0.00014269
0.000142632
0.000157246
0.000126229
0.000169669
0.000142649
0.000142661
0.000126244
0.000124416
0.000130206
0.000139191
0.000139234
0.000138631
0.000138674
0.000124491
0.000130232
0.00013922
0.000139203
0.000138665
0.000138638
0.00013923
0.00013872
0.000138676
0.000124435
0.000130204
0.000139263
0.000138687
0.000138713
0.000130227
0.000134845
0.000161756
0.000147551
0.000147579
0.000178604
0.000178584
0.000134854
0.000161729
0.000147585
0.000147548
0.000178614
0.000178576
0.000147587
0.000178588
0.000178593
0.000134839
0.000161741
0.00014762
0.00017861
0.000178592
0.000161739
0.000166362
0.000187179
0.000188028
0.000188001
0.000211654
0.000211625
0.000166339
0.00018718
0.00018803
0.000187997
0.000211644
0.000211628
0.000188007
0.00021166
0.000211625
0.000166346
0.000187168
0.000188002
0.000211637
0.000211627
0.000187158
0.00019
0.000199499
0.000217575
0.000217548
0.000228946
0.000228935
0.000190006
0.000199516
0.000217566
0.000217551
0.000228954
0.000228934
0.00021755
0.000228994
0.000228948
0.00018999
0.000199498
0.000217557
0.000228963
0.00022897
0.000199503
0.000200228
0.000201719
0.000230845
0.00023084
0.000232902
0.000232906
0.000200246
0.00020174
0.000230861
0.000230837
0.000232932
0.000232897
0.000230856
0.000232959
0.000232927
0.000200231
0.000201727
0.000230881
0.000232948
0.000232956
0.00020174
0.000201518
0.000200674
0.000232969
0.000232973
0.000232339
0.000232337
0.000201538
0.000200676
0.000233
0.000232963
0.000232375
0.000232321
0.000232994
0.000232382
0.000232357
0.000201526
0.000200664
0.000233024
0.000232382
0.000232387
0.000200678
0.000200417
0.0002
0.000231985
0.000231978
0.000231392
0.000231381
0.000200418
0.000199995
0.000232019
0.000231963
0.000231421
0.000231369
0.000231997
0.000231429
0.000231397
0.000200406
0.000199984
0.000232026
0.000231424
0.000231425
0.000199994
0.000199792
0.000200098
0.000231336
0.000231326
0.000231389
0.000231387
0.000199788
0.000200116
0.000231364
0.000231315
0.000231414
0.000231379
0.000231341
0.00023144
0.000231399
0.000199777
0.000200103
0.00023137
0.00023143
0.000231428
0.000200107
0.000199979
0.000200377
0.000231508
0.00023151
0.000231781
0.000231787
0.000199998
0.0002004
0.000231533
0.0002315
0.000231807
0.000231774
0.000231522
0.000231841
0.000231799
0.000199986
0.000200383
0.000231551
0.000231828
0.000231828
0.00020039
0.000200229
0.000200535
0.000231849
0.000231853
0.000231976
0.000231972
0.00020025
0.000200548
0.000231874
0.000231839
0.000232001
0.000231956
0.000231866
0.000232022
0.000231985
0.000200233
0.000200529
0.000231894
0.000232009
0.000232013
0.000200539
0.00020037
0.000200511
0.000231993
0.000231985
0.000231997
0.000231988
0.00020038
0.000200509
0.000232018
0.000231971
0.000232023
0.000231976
0.000231999
0.000232039
0.000232004
0.000200361
0.000200496
0.000232027
0.000232028
0.000232031
0.000200507
0.00020032
0.000200552
0.000231992
0.000231987
0.000231996
0.000231998
0.000200318
0.000200574
0.000232019
0.000231975
0.000232022
0.000231984
0.000232002
0.000232049
0.000232012
0.000200308
0.000200559
0.00023203
0.000232037
0.00023204
0.000200567
0.000200394
0.000200472
0.000232002
0.000232005
0.000231999
0.000231998
0.000200415
0.000200489
0.000232028
0.000231989
0.000232025
0.000231981
0.000232019
0.000232049
0.00023201
0.000200399
0.000200468
0.000232046
0.000232034
0.000232038
0.000200479
0.00020031
0.000200511
0.000231998
0.000231994
0.00023199
0.000231987
0.000200317
0.000200528
0.000232023
0.00023198
0.000232016
0.000231977
0.000232007
0.000232038
0.000232002
0.000200299
0.000200526
0.000232035
0.000232029
0.00023203
0.000200535
0.00020031
0.000200568
0.000231989
0.000231987
0.000231994
0.000231988
0.000200325
0.000200581
0.000232015
0.000231976
0.000232019
0.000231974
0.000232001
0.000232039
0.000232001
0.000200323
0.000200566
0.000232028
0.000232027
0.000232028
0.000200567
0.000200403
0.000200444
0.000231993
0.000231985
0.000231975
0.00023197
0.00020041
0.000200454
0.000232018
0.000231965
0.000232
0.000231948
0.000231998
0.000232023
0.000231984
0.000200394
0.000200428
0.000232025
0.000232002
0.00023201
0.000200444
0.000200272
0.000200555
0.000231975
0.000231972
0.000231993
0.000231994
0.000200292
0.00020057
0.000232
0.00023195
0.000232019
0.000231982
0.000231986
0.000232048
0.000232012
0.000200267
0.00020056
0.000232011
0.000232036
0.000232038
0.000200571
0.000200359
0.000200573
0.000231994
0.000231995
0.000232033
0.000232034
0.000200372
0.000200589
0.000232021
0.000231986
0.000232061
0.000232027
0.000232013
0.000232086
0.000232045
0.000200372
0.000200572
0.00023204
0.000232079
0.000232075
0.000200572
0.00020042
0.000200529
0.000232044
0.000232043
0.000232033
0.000232027
0.000200435
0.000200535
0.000232071
0.000232034
0.000232057
0.000232012
0.000232052
0.000232073
0.000232031
0.000200422
0.000200523
0.000232083
0.000232064
0.000232061
0.000200526
0.000200334
0.000200577
0.000232029
0.000232023
0.000231994
0.000231993
0.00020034
0.000200593
0.000232053
0.000232007
0.000232021
0.000231981
0.000232026
0.000232044
0.000232007
0.000200327
0.000200574
0.000232056
0.000232038
0.000232034
0.000200582
0.000200379
0.000200485
0.000231975
0.000231972
0.000231965
0.00023196
0.0002004
0.000200481
0.000232002
0.000231961
0.000231992
0.000231942
0.000231989
0.000232015
0.000231976
0.000200395
0.000200444
0.000232016
0.000231998
0.000232002
0.000200468
0.000200342
0.000200447
0.00023197
0.000231967
0.00023197
0.000231967
0.00020034
0.000200468
0.000231997
0.000231948
0.000231996
0.000231957
0.000231982
0.000232023
0.000231982
0.000200295
0.000200464
0.000232009
0.000232012
0.00023201
0.000200457
0.000200278
0.000200492
0.000231977
0.000231975
0.000231983
0.000231982
0.00020029
0.00020051
0.000232004
0.000231969
0.000232009
0.000231971
0.000231988
0.000232036
0.000231995
0.000200281
0.000200518
0.000232018
0.000232024
0.000232021
0.000200512
0.00020029
0.000200569
0.000231983
0.000231981
0.000231986
0.000231986
0.000200305
0.000200586
0.000232009
0.000231968
0.000232015
0.000231976
0.000231995
0.000232043
0.000232002
0.00020031
0.00020057
0.000232021
0.000232031
0.00023203
0.000200584
0.000200357
0.000200558
0.000231982
0.000231981
0.000232
0.000231997
0.000200374
0.000200562
0.00023201
0.000231972
0.000232022
0.000231974
0.000231995
0.000232048
0.000232007
0.00020039
0.000200495
0.000232023
0.000232031
0.000232033
0.00020053
0.000200397
0.000200463
0.000232
0.000231997
0.000231978
0.000231976
0.000200403
0.000200478
0.000232022
0.000231975
0.000232006
0.000231964
0.000232011
0.000232035
0.000231993
0.000200344
0.000200472
0.000232035
0.000232019
0.000232017
0.000200477
0.000200292
0.000200586
0.000231984
0.000231983
0.000232013
0.000232014
0.000200303
0.000200605
0.000232017
0.000231973
0.000232038
0.000231999
0.000231995
0.000232066
0.000232023
0.000200289
0.00020059
0.000232022
0.000232056
0.000232051
0.000200594
0.000200405
0.000200503
0.000232012
0.000232013
0.00023201
0.00023201
0.000200426
0.000200514
0.000232035
0.000231997
0.000232038
0.000231998
0.000232023
0.000232065
0.000232022
0.000200409
0.000200501
0.00023205
0.000232051
0.000232049
0.000200502
0.000200374
0.0002005
0.00023202
0.00023202
0.000232016
0.000232015
0.000200385
0.000200515
0.000232051
0.00023201
0.000232043
0.000232002
0.000232034
0.000232068
0.00023203
0.000200372
0.000200501
0.000232062
0.000232056
0.000232057
0.000200512
0.000200309
0.000200568
0.000232013
0.000232011
0.000232007
0.000232004
0.000200323
0.00020058
0.000232039
0.000231997
0.000232033
0.00023199
0.000232026
0.000232057
0.00023202
0.00020031
0.000200564
0.000232053
0.000232044
0.000232046
0.000200578
0.000200384
0.000200502
0.000232006
0.000232004
0.000232
0.000231998
0.000200399
0.000200508
0.000232033
0.00023199
0.000232027
0.000231984
0.00023202
0.000232049
0.000232013
0.000200384
0.000200495
0.000232046
0.000232037
0.000232039
0.000200508
0.000200352
0.00020049
0.000232005
0.000232002
0.000231999
0.000231996
0.000200358
0.000200507
0.000232031
0.000231988
0.000232026
0.000231982
0.000232017
0.000232047
0.000232009
0.000200346
0.000200492
0.000232043
0.000232035
0.000232036
0.000200509
0.000200288
0.000200588
0.000232002
0.000231999
0.000232004
0.000232003
0.000200303
0.000200605
0.000232028
0.000231984
0.000232031
0.000231989
0.000232011
0.000232053
0.000232013
0.000200289
0.000200591
0.000232037
0.00023204
0.000232039
0.000200592
0.000200388
0.000200561
0.000232009
0.000232007
0.000232004
0.000232001
0.000200413
0.00020055
0.000232036
0.000231993
0.00023203
0.000231986
0.000232017
0.000232051
0.000232009
0.000200405
0.000200515
0.000232044
0.000232037
0.000232036
0.000200502
0.000200398
0.000200554
0.000232014
0.000232011
0.000232011
0.000232006
0.000200401
0.000200518
0.000232039
0.000231996
0.000232035
0.000231991
0.00023202
0.000232056
0.000232014
0.00020037
0.000200503
0.000232047
0.000232041
0.000232041
0.000200503
0.000200408
0.000200526
0.000232023
0.00023202
0.000232085
0.000232083
0.000200366
0.000200528
0.000232047
0.000232004
0.00023211
0.000232069
0.000232027
0.000232131
0.000232093
0.000200343
0.00020051
0.000232054
0.00023212
0.000232121
0.000200537
0.00020037
0.000202351
0.000231917
0.000231915
0.0002356
0.000235602
0.000200351
0.000202357
0.000231944
0.0002319
0.000235626
0.000235594
0.000231924
0.000235641
0.00023561
0.000200338
0.000202347
0.000231953
0.000235632
0.000235637
0.000202358
0.000204808
0.000234262
0.000234263
0.000204807
0.000234285
0.000234256
0.000283562
0.000283566
0.000283571
0.000234269
0.0002048
0.000234293
9.24112e-05
5.00268e-05
9.21282e-05
5.00389e-05
2.36173e-05
2.36214e-05
9.24206e-05
5.00233e-05
9.21249e-05
5.00387e-05
0.000123728
0.00012375
0.000123755
0.000126067
0.000126066
0.000126068
0.00012606
0.00012214
9.39214e-05
0.00013548
0.000141053
0.00012141
9.44068e-05
0.000136359
2.36144e-05
2.36195e-05
0.000122148
0.000135504
9.39337e-05
0.000141069
0.000121411
0.000136381
9.44185e-05
7.3907e-05
7.39229e-05
0.000138936
7.41349e-05
7.41477e-05
9.30719e-05
5.00604e-05
9.28506e-05
5.00621e-05
2.36226e-05
2.36232e-05
9.30834e-05
5.00576e-05
9.28743e-05
5.00593e-05
0.000126893
0.000126892
0.000126874
0.000128737
0.000128766
0.000128762
0.000128829
0.000123927
9.49136e-05
0.000139454
0.000144322
0.000123292
9.48879e-05
0.000140464
2.36205e-05
2.36204e-05
0.000123924
0.000139442
9.48786e-05
0.000144315
0.000123276
0.000140466
9.49066e-05
7.42547e-05
7.42354e-05
0.000140798
7.40484e-05
7.40613e-05
9.27952e-05
5.00683e-05
9.2816e-05
5.01152e-05
2.36354e-05
2.3651e-05
9.278e-05
5.00627e-05
9.2814e-05
5.01095e-05
0.000129303
0.000129301
0.000129353
0.000132111
0.000132042
0.000132091
0.000132004
0.000123915
9.45221e-05
0.000142455
0.000146848
0.000123908
9.54811e-05
0.000142896
2.36351e-05
2.36497e-05
0.000123901
0.000142495
9.45745e-05
0.000146828
0.000123938
0.000142912
9.53947e-05
7.38379e-05
7.38493e-05
0.000143829
7.48289e-05
7.47911e-05
9.43873e-05
5.01402e-05
9.42513e-05
5.01048e-05
2.36458e-05
2.36327e-05
9.44007e-05
5.01391e-05
9.42661e-05
5.01052e-05
0.000133503
0.000133542
0.000133491
0.000135287
0.00013537
0.000135313
0.000135443
0.000127193
9.66902e-05
0.000147047
0.000151972
0.000126524
9.63131e-05
0.00014878
2.36408e-05
2.36293e-05
0.000127216
0.000147037
9.67131e-05
0.000152004
0.000126499
0.000148814
9.64352e-05
7.5488e-05
7.5467e-05
0.000146605
7.43692e-05
7.44257e-05
9.30975e-05
5.01086e-05
9.29664e-05
5.02122e-05
2.36548e-05
2.36921e-05
9.31247e-05
5.01018e-05
9.29636e-05
5.02072e-05
0.000134909
0.000134854
0.000134935
0.000139043
0.000138991
0.000139056
0.000138957
0.00012538
9.47194e-05
0.000149383
0.000151404
0.000125791
9.60759e-05
0.000149168
2.36563e-05
2.36914e-05
0.000125366
0.000149404
9.46841e-05
0.000151337
0.0001258
0.000149157
9.58929e-05
7.31393e-05
7.31422e-05
0.000146432
7.53419e-05
7.52944e-05
9.57574e-05
5.02499e-05
9.5817e-05
5.0086e-05
2.36755e-05
2.36129e-05
9.57655e-05
5.02505e-05
9.58617e-05
5.00845e-05
0.000141671
0.000141744
0.000141679
0.000143815
0.000143816
0.000143833
0.000143911
0.00013079
9.94381e-05
0.000156181
0.000161205
0.000130185
9.86245e-05
0.000158634
2.36698e-05
2.36089e-05
0.00013087
0.000156244
9.95409e-05
0.000161299
0.00013024
0.000158717
9.88457e-05
7.79795e-05
7.79885e-05
0.000156571
7.53391e-05
7.53985e-05
8.97328e-05
4.99808e-05
9.05288e-05
5.02641e-05
2.36193e-05
2.37529e-05
8.97013e-05
4.99738e-05
9.04681e-05
5.0259e-05
0.000142509
0.000142514
0.000142603
0.000141165
0.000141195
0.000141152
0.000141173
0.000122807
9.07761e-05
0.000157753
0.000154991
0.000124701
8.96082e-05
0.000156499
2.36199e-05
2.3753e-05
0.00012271
0.000157805
9.0712e-05
0.000154995
0.000124639
0.000156528
8.9456e-05
6.81946e-05
6.81728e-05
0.000141082
6.83066e-05
6.82526e-05
0.000107161
5.08898e-05
0.000100865
5.10247e-05
2.39624e-05
2.39824e-05
0.000107168
5.08879e-05
0.000100888
5.10234e-05
0.000148467
0.00014838
0.000148266
0.000178574
0.000178544
0.000178569
0.000178566
0.000150872
0.000104711
0.000167584
0.00018509
0.000138409
0.000113211
0.000180724
2.39591e-05
2.39792e-05
0.000150929
0.000167373
0.000104683
0.000184992
0.000138391
0.000180628
0.000113261
8.13541e-05
8.13633e-05
0.000183594
8.76361e-05
8.76549e-05
0.000102275
5.05972e-05
0.000110173
5.01179e-05
2.37562e-05
2.35865e-05
0.000102292
5.0595e-05
0.000110196
5.01139e-05
0.000181534
0.000181579
0.000181594
0.000177614
0.000177552
0.000177627
0.000177641
0.000148627
0.00011746
0.00019879
0.000203359
0.00015946
0.000107892
0.00019963
2.37548e-05
2.35854e-05
0.000148644
0.000198868
0.000117544
0.000203455
0.000159528
0.000199715
0.000107935
8.86353e-05
8.86255e-05
0.00019463
8.14445e-05
8.14311e-05
8.39307e-05
4.95922e-05
8.90061e-05
4.95085e-05
2.34301e-05
2.34208e-05
8.39056e-05
4.95878e-05
8.89886e-05
4.9505e-05
0.000166122
0.000166188
0.000166196
0.000136853
0.000136881
0.000136877
0.000136893
0.000112601
9.18177e-05
0.000175409
0.000157592
0.000123166
8.572e-05
0.000163403
2.3428e-05
2.34186e-05
0.000112562
0.000175447
9.18022e-05
0.000157593
0.000123135
0.000163413
8.56804e-05
7.06345e-05
7.06282e-05
0.000139238
6.68758e-05
6.68775e-05
8.30996e-05
4.96574e-05
8.11208e-05
4.98648e-05
2.35017e-05
2.35879e-05
8.31115e-05
4.96553e-05
8.11146e-05
4.98629e-05
0.00013186
0.000131846
0.000131866
0.000125909
0.000125955
0.000125932
0.000125953
0.00010745
8.20054e-05
0.000143896
0.000137607
0.000105658
8.37482e-05
0.000141913
2.34994e-05
2.3586e-05
0.000107471
0.000143882
8.19646e-05
0.000137561
0.000105636
0.0001419
8.37317e-05
6.49482e-05
6.49636e-05
0.000122651
6.62656e-05
6.62803e-05
9.09307e-05
5.02339e-05
8.77156e-05
5.04546e-05
2.37246e-05
2.38102e-05
9.09392e-05
5.02313e-05
8.77287e-05
5.04518e-05
0.000129361
0.000129333
0.000129355
0.000173905
0.00017389
0.000173899
0.000173895
0.00012384
8.89355e-05
0.000151056
0.000158339
0.000117032
9.26562e-05
0.000164388
2.37222e-05
2.38081e-05
0.000123854
0.000151075
8.89426e-05
0.00015835
0.00011706
0.000164414
9.26735e-05
6.93222e-05
6.93236e-05
0.000145935
7.15022e-05
7.14953e-05
9.83884e-05
5.07625e-05
9.57689e-05
5.09107e-05
2.39182e-05
2.39727e-05
9.83813e-05
5.07586e-05
9.57657e-05
5.09065e-05
0.000189319
0.000189333
0.00018932
0.000231107
0.000231089
0.000231089
0.000231074
0.000140128
9.8421e-05
0.000201204
0.000196759
0.000134442
0.000101534
0.000212064
2.39161e-05
2.39709e-05
0.00014011
0.000201212
9.84269e-05
0.000196762
0.000134431
0.00021206
0.000101529
7.49657e-05
7.49581e-05
0.00017587
7.68048e-05
7.6798e-05
0.00010271
5.10669e-05
0.000101487
5.11177e-05
2.4023e-05
2.40408e-05
0.000102705
5.10627e-05
0.000101477
5.11139e-05
0.000242468
0.000242462
0.00024245
0.00026659
0.000266602
0.000266586
0.000266592
0.000150032
0.000105256
0.000238201
0.000222438
0.000147158
0.00010672
0.000244433
2.40209e-05
2.40388e-05
0.000150013
0.000238168
0.000105239
0.000222403
0.000147137
0.000244397
0.000106708
7.90255e-05
7.90212e-05
0.000195006
7.98587e-05
7.98562e-05
0.00010369
5.11432e-05
0.00010356
5.11416e-05
2.40471e-05
2.40465e-05
0.000103695
5.114e-05
0.000103562
5.11386e-05
0.000271409
0.000271394
0.000271405
0.000278577
0.000278594
0.000278584
0.000278604
0.000152725
0.000107776
0.000255768
0.000232073
0.000152268
0.000107941
0.000257518
2.40449e-05
2.40442e-05
0.000152721
0.000255746
0.000107768
0.000232054
0.000152259
0.000257502
0.000107937
8.0458e-05
8.04567e-05
0.000201302
8.05332e-05
8.05324e-05
0.000103357
5.11238e-05
0.000103494
5.11164e-05
2.40398e-05
2.40378e-05
0.000103367
5.1121e-05
0.000103505
5.11136e-05
0.00027936
0.000279351
0.000279373
0.000279643
0.000279652
0.000279646
0.000279669
0.000152314
0.00010772
0.000259227
0.000233013
0.00015258
0.000107553
0.000259268
2.40375e-05
2.40355e-05
0.000152316
0.000259226
0.000107726
0.000233006
0.00015258
0.000259269
0.000107562
8.03306e-05
8.03298e-05
0.000201312
8.02095e-05
8.02096e-05
0.000103087
5.11081e-05
0.000103126
5.11074e-05
2.4035e-05
2.40353e-05
0.000103098
5.11053e-05
0.000103137
5.11046e-05
0.000279337
0.000279332
0.000279355
0.000278139
0.000278138
0.000278132
0.000278148
0.000151687
0.000107261
0.00025845
0.000231741
0.000151808
0.000107213
0.000258095
2.40327e-05
2.40331e-05
0.000151686
0.000258457
0.000107267
0.000231738
0.000151807
0.000258101
0.000107219
8.00481e-05
8.0047e-05
0.000200225
8.0017e-05
8.00162e-05
0.00010307
5.11079e-05
0.000103049
5.111e-05
2.40354e-05
2.40366e-05
0.000103078
5.11049e-05
0.00010306
5.11068e-05
0.000277961
0.000277955
0.000277971
0.000277843
0.000277849
0.000277842
0.000277853
0.00015159
0.00010717
0.00025757
0.000231359
0.000151558
0.00010721
0.00025754
2.40332e-05
2.40344e-05
0.000151587
0.000257572
0.000107175
0.000231352
0.000151555
0.000257541
0.000107212
8.00047e-05
8.00038e-05
0.000199929
8.00331e-05
8.00322e-05
0.000103139
5.11123e-05
0.000103106
5.11139e-05
2.4037e-05
2.4038e-05
0.000103145
5.11091e-05
0.000103114
5.11107e-05
0.000277929
0.000277921
0.000277931
0.000278421
0.000278445
0.000278433
0.000278448
0.000151755
0.000107255
0.00025774
0.000231671
0.000151671
0.0001073
0.000257883
2.40348e-05
2.40358e-05
0.000151751
0.000257738
0.000107256
0.000231659
0.000151668
0.000257881
0.000107301
8.006e-05
8.0059e-05
0.000200271
8.00832e-05
8.00819e-05
0.000103178
5.1115e-05
0.000103154
5.11159e-05
2.40379e-05
2.40386e-05
0.000103185
5.11118e-05
0.000103162
5.11128e-05
0.000278585
0.000278571
0.000278587
0.000278853
0.000278863
0.000278848
0.000278868
0.00015185
0.000107316
0.000258198
0.000231958
0.00015179
0.000107341
0.000258268
2.40357e-05
2.40364e-05
0.000151846
0.000258195
0.000107315
0.000231944
0.000151787
0.000258264
0.000107341
8.00948e-05
8.00934e-05
0.000200479
8.01058e-05
8.01043e-05
0.000103195
5.11161e-05
0.000103181
5.11165e-05
2.40382e-05
2.40388e-05
0.000103202
5.1113e-05
0.000103189
5.11134e-05
0.00027891
0.000278896
0.000278915
0.000278954
0.000278959
0.000278948
0.000278966
0.000151888
0.000107335
0.000258385
0.00023204
0.000151849
0.000107353
0.000258401
2.4036e-05
2.40366e-05
0.000151883
0.000258379
0.000107336
0.000232028
0.000151844
0.000258396
0.000107355
8.01037e-05
8.01024e-05
0.000200551
8.01093e-05
8.0108e-05
0.000103195
5.11163e-05
0.000103185
5.11167e-05
2.40383e-05
2.40389e-05
0.000103203
5.11132e-05
0.000103193
5.11136e-05
0.000278965
0.000278954
0.000278971
0.00027896
0.000278981
0.000278965
0.000278985
0.000151889
0.000107339
0.000258415
0.000232037
0.000151867
0.000107356
0.000258406
2.40361e-05
2.40367e-05
0.000151885
0.00025841
0.000107341
0.000232027
0.000151862
0.000258402
0.000107356
8.0106e-05
8.01047e-05
0.000200482
8.01127e-05
8.01114e-05
0.000103199
5.11164e-05
0.000103188
5.11167e-05
2.40384e-05
2.40389e-05
0.000103207
5.11133e-05
0.000103196
5.11136e-05
0.000278983
0.000278967
0.000278986
0.00027896
0.00027898
0.000278964
0.000278983
0.000151906
0.000107344
0.000258406
0.000232058
0.000151863
0.00010736
0.000258421
2.40361e-05
2.40367e-05
0.000151901
0.000258401
0.000107345
0.000232043
0.000151858
0.000258415
0.000107361
8.01091e-05
8.0108e-05
0.000200569
8.01134e-05
8.01123e-05
0.000103196
5.11163e-05
0.000103186
5.11166e-05
2.40383e-05
2.40388e-05
0.000103204
5.11132e-05
0.000103194
5.11135e-05
0.000278977
0.000278962
0.00027898
0.000278953
0.000278968
0.000278956
0.000278972
0.000151886
0.00010734
0.000258404
0.000232042
0.00015186
0.000107356
0.000258395
2.40361e-05
2.40367e-05
0.000151883
0.000258398
0.000107341
0.000232031
0.000151855
0.000258391
0.000107357
8.01073e-05
8.01064e-05
0.000200557
8.01121e-05
8.01113e-05
0.000103195
5.11163e-05
0.000103186
5.11165e-05
2.40383e-05
2.40388e-05
0.000103203
5.11132e-05
0.000103194
5.11134e-05
0.000278968
0.000278956
0.00027897
0.000278951
0.000278963
0.000278948
0.000278965
0.000151894
0.000107341
0.000258405
0.000232039
0.000151864
0.000107355
0.000258406
2.4036e-05
2.40366e-05
0.00015189
0.000258401
0.000107343
0.000232029
0.00015186
0.000258402
0.000107356
8.01067e-05
8.01059e-05
0.00020047
8.0111e-05
8.01101e-05
0.000103192
5.11161e-05
0.000103182
5.11164e-05
2.40382e-05
2.40388e-05
0.000103198
5.1113e-05
0.00010319
5.11133e-05
0.000278959
0.00027894
0.000278961
0.000278941
0.000278951
0.000278928
0.000278951
0.000151887
0.000107335
0.000258389
0.000232028
0.00015185
0.00010735
0.000258391
2.40359e-05
2.40365e-05
0.000151882
0.000258382
0.000107336
0.000232009
0.000151844
0.000258384
0.000107349
8.01033e-05
8.0102e-05
0.000200518
8.01068e-05
8.01051e-05
0.000103192
5.11162e-05
0.00010318
5.11168e-05
2.40384e-05
2.4039e-05
0.0001032
5.11131e-05
0.000103188
5.11137e-05
0.000278954
0.000278928
0.000278952
0.000278952
0.000278969
0.000278956
0.000278973
0.000151886
0.000107334
0.000258389
0.000232036
0.000151851
0.000107352
0.000258389
2.40361e-05
2.40368e-05
0.00015188
0.000258378
0.000107334
0.000232018
0.000151843
0.000258379
0.000107353
8.01025e-05
8.01006e-05
0.000200537
8.01097e-05
8.01078e-05
0.000103204
5.11168e-05
0.000103188
5.11174e-05
2.40386e-05
2.40391e-05
0.000103212
5.11138e-05
0.000103198
5.11143e-05
0.000278981
0.000278971
0.000278984
0.000279005
0.000279018
0.000279011
0.000279019
0.000151909
0.000107345
0.000258423
0.000232053
0.000151875
0.000107366
0.000258426
2.40364e-05
2.4037e-05
0.000151903
0.000258417
0.000107346
0.000232045
0.000151869
0.000258422
0.000107367
8.01103e-05
8.01093e-05
0.00020049
8.01188e-05
8.0118e-05
0.000103213
5.11171e-05
0.000103202
5.11172e-05
2.40386e-05
2.4039e-05
0.000103219
5.1114e-05
0.00010321
5.11141e-05
0.000279022
0.000279015
0.000279022
0.00027901
0.00027902
0.000279012
0.000279019
0.000151925
0.000107358
0.000258456
0.000232095
0.000151893
0.000107372
0.000258461
2.40364e-05
2.40368e-05
0.00015192
0.000258458
0.000107359
0.000232088
0.00015189
0.000258463
0.000107373
8.01164e-05
8.01159e-05
0.000200625
8.01206e-05
8.01201e-05
0.0001032
5.11164e-05
0.000103196
5.11164e-05
2.40383e-05
2.40387e-05
0.000103207
5.11133e-05
0.000103202
5.11133e-05
0.000279019
0.00027901
0.000279017
0.000278963
0.000278972
0.000278962
0.000278973
0.000151896
0.000107347
0.000258432
0.000232068
0.000151873
0.000107358
0.00025843
2.4036e-05
2.40365e-05
0.000151889
0.000258432
0.00010735
0.000232058
0.000151869
0.000258429
0.000107361
8.01113e-05
8.011e-05
0.000200504
8.01129e-05
8.01113e-05
0.000103189
5.11158e-05
0.00010318
5.11162e-05
2.40382e-05
2.40387e-05
0.000103197
5.11128e-05
0.000103189
5.11131e-05
0.000278953
0.000278942
0.000278956
0.000278915
0.000278928
0.000278911
0.000278931
0.000151874
0.000107333
0.000258384
0.000232014
0.000151855
0.000107348
0.00025837
2.40359e-05
2.40365e-05
0.000151866
0.000258383
0.000107336
0.000232002
0.00015185
0.000258367
0.000107348
8.01034e-05
8.01019e-05
0.000200479
8.01075e-05
8.01059e-05
0.000103195
5.11161e-05
0.000103182
5.11165e-05
2.40382e-05
2.40388e-05
0.000103202
5.1113e-05
0.000103191
5.11134e-05
0.000278928
0.000278911
0.00027893
0.000278917
0.000278932
0.000278922
0.000278935
0.000151894
0.000107335
0.000258383
0.000232024
0.000151858
0.000107352
0.000258387
2.4036e-05
2.40366e-05
0.000151885
0.000258374
0.000107336
0.000232006
0.000151849
0.000258379
0.000107352
8.01027e-05
8.01016e-05
0.00020055
8.0108e-05
8.0107e-05
0.000103196
5.11162e-05
0.000103186
5.11165e-05
2.40383e-05
2.40388e-05
0.000103203
5.11131e-05
0.000103194
5.11134e-05
0.000278946
0.000278938
0.000278949
0.000278944
0.000278964
0.000278948
0.000278962
0.000151891
0.000107337
0.000258387
0.000232035
0.000151854
0.000107354
0.000258393
2.40361e-05
2.40367e-05
0.000151884
0.000258385
0.000107339
0.000232027
0.000151847
0.000258391
0.000107355
8.01043e-05
8.01031e-05
0.000200555
8.01099e-05
8.01086e-05
0.00010319
5.11161e-05
0.000103181
5.11164e-05
2.40383e-05
2.40389e-05
0.0001032
5.11131e-05
0.000103191