/*--------------------------------*- C++ -*----------------------------------*\
| =========                 |                                                 |
| \\      /  F ield         | OpenFOAM: The Open Source CFD Toolbox           |
|  \\    /   O peration     | Version:  v2012                                 |
|   \\  /    A nd           | Website:  www.openfoam.com                      |
|    \\/     M anipulation  |                                                 |
\*---------------------------------------------------------------------------*/
FoamFile
{
    version     2.0;
    format      ascii;
    class       surfaceScalarField;
    location    "250";
    object      phi;
}
// * * * * * * * * * * * * * * * * * * * * * * * * * * * * * * * * * * * * * //

dimensions      [0 3 -1 0 0 0 0];
oriented        oriented;


internalField   nonuniform List<scalar> 
248808
(
-2.29211e-07
-2.29838e-07
2.02269e-07
2.02912e-07
0.00119108
-1.2529e-06
2.30054e-07
9.03882e-08
0.00114031
-2.57604e-07
1.21452e-06
2.19052e-07
8.55104e-07
-2.42217e-07
-8.97935e-07
1.96779e-07
-1.2467e-06
2.29847e-07
8.8912e-08
0.00113994
-2.57187e-07
1.20943e-06
2.19384e-07
8.54832e-07
-2.45211e-07
-8.98018e-07
1.99372e-07
1.28209e-06
1.24744e-06
-2.38682e-07
-2.44384e-07
0.000269456
-1.7154e-07
-1.73747e-07
-0.00119122
1.5839e-07
1.57715e-07
0.00119125
-0.00113989
-1.22871e-06
1.71865e-07
1.84687e-08
0.00113976
-2.2814e-07
1.23476e-06
2.44932e-07
8.52639e-07
-2.41015e-07
-8.98408e-07
1.98522e-07
-0.00113952
-1.22279e-06
1.75275e-07
1.90027e-08
0.00113939
-2.27771e-07
1.22991e-06
2.4544e-07
8.51649e-07
-2.4444e-07
-8.98823e-07
2.00052e-07
-0.000271366
1.25795e-06
1.22334e-06
-2.21417e-07
-2.26804e-07
0.000269333
-1.91681e-07
-1.86175e-07
-0.00119126
1.86642e-07
1.88112e-07
0.00119126
-0.00113931
-1.25454e-06
1.88248e-07
1.16398e-07
0.00113913
-2.65434e-07
1.20351e-06
2.07211e-07
8.69226e-07
-2.23314e-07
-8.72604e-07
2.06977e-07
-0.00113894
-1.25066e-06
1.81282e-07
1.17548e-07
0.00113877
-2.66484e-07
1.19621e-06
2.0623e-07
8.71067e-07
-2.23795e-07
-8.70691e-07
2.11758e-07
-0.00027122
1.28254e-06
1.24887e-06
-2.38764e-07
-2.43149e-07
0.00026917
-1.09008e-07
-1.13873e-07
-0.00119132
1.16163e-07
1.16247e-07
0.00119131
-0.00113874
-1.20579e-06
1.13858e-07
-4.69056e-08
0.00113865
-2.04166e-07
1.25079e-06
2.64751e-07
8.51333e-07
-2.36274e-07
-8.94182e-07
1.98982e-07
-0.00113837
-1.19759e-06
1.20986e-07
-5.04127e-08
0.00113827
-2.0242e-07
1.24764e-06
2.66136e-07
8.48959e-07
-2.4131e-07
-8.96327e-07
1.99518e-07
-0.000271091
1.23622e-06
1.20088e-06
-2.06431e-07
-2.1285e-07
0.000269073
-1.09322e-07
-1.05652e-07
-0.00119108
1.41446e-07
1.40088e-07
0.00119101
-0.0011382
-1.24246e-06
1.05679e-07
1.2386e-07
0.00113798
-2.61203e-07
1.19626e-06
1.9281e-07
8.95479e-07
-1.87016e-07
-8.38448e-07
2.3628e-07
-0.00113783
-1.23984e-06
9.69574e-08
1.2711e-07
0.00113761
-2.62635e-07
1.1883e-06
1.91822e-07
8.97837e-07
-1.86638e-07
-8.35524e-07
2.41449e-07
-0.000271002
1.26982e-06
1.23611e-06
-2.23147e-07
-2.27386e-07
0.000268946
-9.95641e-08
-1.01372e-07
-0.00119108
1.13414e-07
1.14665e-07
0.00119105
-0.00113758
-1.20666e-06
9.90558e-08
-7.45785e-08
0.00113757
-2.06191e-07
1.25614e-06
2.79104e-07
8.38583e-07
-2.50387e-07
-8.96455e-07
1.72582e-07
-0.00113721
-1.19865e-06
1.08826e-07
-7.5749e-08
0.00113719
-2.04913e-07
1.25275e-06
2.79908e-07
8.36031e-07
-2.55764e-07
-8.99043e-07
1.72796e-07
-0.000270799
1.2374e-06
1.2025e-06
-2.19926e-07
-2.25948e-07
0.000268805
3.59535e-07
3.64501e-07
-0.00119022
-1.69597e-07
-1.67116e-07
0.00118983
-0.00113727
-1.11906e-06
-3.58339e-07
-1.77371e-07
0.00113693
-1.30278e-07
1.30231e-06
3.08159e-07
9.89714e-07
-8.65479e-08
-7.42329e-07
3.45512e-07
-0.0011369
-1.11568e-06
-3.70281e-07
-1.79001e-07
0.00113658
-1.314e-07
1.29489e-06
3.07537e-07
9.91927e-07
-8.67746e-08
-7.39711e-07
3.50421e-07
-0.000270956
1.14622e-06
1.11293e-06
-1.11047e-07
-1.15057e-07
0.000268923
-3.52925e-07
-3.57646e-07
-0.00118912
3.819e-07
3.79463e-07
0.00118907
-0.00113531
-1.26481e-06
3.529e-07
2.24696e-07
0.00113482
-2.65861e-07
1.16467e-06
1.83271e-07
8.70265e-07
-1.69207e-07
-8.36028e-07
2.28751e-07
-0.00113495
-1.25741e-06
3.60718e-07
2.25578e-07
0.00113445
-2.64778e-07
1.16071e-06
1.84054e-07
8.68729e-07
-1.73203e-07
-8.37384e-07
2.30238e-07
-0.000270384
1.29515e-06
1.25947e-06
-2.21298e-07
-2.27765e-07
0.000268279
-2.22677e-07
-2.22501e-07
-0.00118942
1.33448e-07
1.32573e-07
0.0011896
-0.00113493
-1.27044e-06
2.19561e-07
5.38317e-08
0.0011355
-2.96919e-07
1.17252e-06
1.64098e-07
7.21208e-07
-3.69702e-07
-1.00922e-06
4.59238e-08
-0.00113455
-1.26637e-06
2.19822e-07
5.74969e-08
0.00113512
-2.9814e-07
1.16547e-06
1.62988e-07
7.21159e-07
-3.72137e-07
-1.00894e-06
4.88606e-08
-0.000270256
1.29899e-06
1.26533e-06
-3.15528e-07
-3.20342e-07
0.000268327
1.49924e-07
1.51921e-07
-0.00119013
-2.01328e-07
-1.99439e-07
0.00119023
-0.00113764
-1.22608e-06
-1.46865e-07
-5.40075e-08
0.00113808
-2.53757e-07
1.22224e-06
2.16033e-07
8.31192e-07
-2.81125e-07
-9.16541e-07
1.61041e-07
-0.00113727
-1.22007e-06
-1.49856e-07
-5.78355e-08
0.00113772
-2.53141e-07
1.21723e-06
2.16706e-07
8.31287e-07
-2.83622e-07
-9.16188e-07
1.63953e-07
-0.00027108
1.25475e-06
1.22059e-06
-2.61891e-07
-2.67125e-07
0.000269133
4.63302e-07
4.62843e-07
-0.00118982
-2.3761e-07
-2.38118e-07
0.00118937
-0.00113797
-1.09722e-06
-4.62735e-07
-2.539e-07
0.00113751
-1.07469e-07
1.3388e-06
3.46895e-07
1.03941e-06
-3.55425e-08
-6.88305e-07
3.83901e-07
-0.00113761
-1.09144e-06
-4.61806e-07
-2.54445e-07
0.00113715
-1.07353e-07
1.3335e-06
3.47026e-07
1.03911e-06
-3.83354e-08
-6.88295e-07
3.86503e-07
-0.0002712
1.12682e-06
1.09182e-06
-8.33745e-08
-8.88771e-08
0.000269153
1.07434e-06
1.07627e-06
-0.00118695
-5.53533e-07
-5.54524e-07
0.00118591
-0.0011357
-9.99545e-07
-1.07869e-06
-4.32825e-07
0.00113519
-2.09118e-08
1.41164e-06
4.10801e-07
1.16145e-06
9.87657e-08
-5.38449e-07
5.0099e-07
-0.00113534
-9.94302e-07
-1.07714e-06
-4.3061e-07
0.00113482
-2.12068e-08
1.40582e-06
4.10537e-07
1.161e-06
9.60344e-08
-5.3859e-07
5.03312e-07
-0.000270811
1.02861e-06
9.94368e-07
8.07677e-09
2.4881e-09
0.000268778
1.13771e-06
1.14053e-06
-0.00118291
-7.24595e-07
-7.24857e-07
0.00118208
-0.00113421
-1.02332e-06
-1.13998e-06
-4.23511e-07
0.00113405
-4.87815e-08
1.37511e-06
3.75904e-07
1.10998e-06
6.02465e-08
-5.7808e-07
4.48791e-07
-0.00113384
-1.01792e-06
-1.1406e-06
-4.24009e-07
0.00113369
-4.88752e-08
1.36944e-06
3.75851e-07
1.10981e-06
5.78051e-08
-5.77972e-07
4.51428e-07
-0.000270673
1.05231e-06
1.01793e-06
-3.4103e-08
-3.91139e-08
0.000268676
7.21419e-07
7.22361e-07
-0.00118027
-5.24024e-07
-5.24778e-07
0.00117987
-0.00113396
-1.10114e-06
-7.21713e-07
-2.79766e-07
0.00113402
-1.22448e-07
1.3e-06
3.0639e-07
9.89729e-07
-5.81693e-08
-7.04029e-07
3.3187e-07
-0.0011336
-1.09552e-06
-7.2194e-07
-2.80298e-07
0.00113366
-1.22341e-07
1.29456e-06
3.06497e-07
9.89593e-07
-6.09031e-08
-7.03877e-07
3.34546e-07
-0.000270773
1.13019e-06
1.09572e-06
-1.18537e-07
-1.23765e-07
0.000268789
3.03873e-07
3.03706e-07
-0.00117917
-2.47791e-07
-2.48755e-07
0.00117906
-0.00113431
-1.16675e-06
-3.03737e-07
-1.20509e-07
0.00113442
-1.85532e-07
1.24129e-06
2.50187e-07
8.98937e-07
-1.57117e-07
-8.04392e-07
2.43338e-07
-0.00113395
-1.16117e-06
-3.03211e-07
-1.20337e-07
0.00113405
-1.85501e-07
1.2358e-06
2.50221e-07
8.98705e-07
-1.59836e-07
-8.04344e-07
2.45948e-07
-0.000270938
1.19577e-06
1.16137e-06
-1.81639e-07
-1.86906e-07
0.00026895
6.73506e-08
6.73712e-08
-0.00117894
-6.64808e-08
-6.68065e-08
0.00117893
-0.00113467
-1.1997e-06
-6.78544e-08
-2.58927e-08
0.00113473
-2.15806e-07
1.21323e-06
2.23998e-07
8.59391e-07
-2.00562e-07
-8.50114e-07
2.05393e-07
-0.0011343
-1.19416e-06
-6.74882e-08
-2.57385e-08
0.00113436
-2.15806e-07
1.20768e-06
2.23994e-07
8.59168e-07
-2.03263e-07
-8.50035e-07
2.08028e-07
-0.000271051
1.22861e-06
1.19428e-06
-2.09152e-07
-2.14409e-07
0.000269051
-1.22118e-08
-1.1911e-08
-0.00117898
4.35678e-09
4.4629e-09
0.00117899
-0.00113482
-1.20921e-06
1.16456e-08
8.50059e-09
0.00113483
-2.2386e-07
1.20578e-06
2.17507e-07
8.52002e-07
-2.0894e-07
-8.59669e-07
1.98673e-07
-0.00113445
-1.20371e-06
1.15651e-08
8.51692e-09
0.00113446
-2.2387e-07
1.20019e-06
2.17498e-07
8.51834e-07
-2.11584e-07
-8.59536e-07
2.01364e-07
-0.000271086
1.23808e-06
1.20379e-06
-2.14599e-07
-2.19833e-07
0.000269079
-8.49804e-09
-8.26086e-09
-0.00117901
9.06416e-09
9.19382e-09
0.00117901
-0.00113482
-1.20745e-06
8.5091e-09
7.97647e-09
0.00113481
-2.22128e-07
1.20758e-06
2.19207e-07
8.55524e-07
-2.05344e-07
-8.56015e-07
2.02156e-07
-0.00113445
-1.20193e-06
8.43281e-09
7.93021e-09
0.00113444
-2.22125e-07
1.20201e-06
2.19216e-07
8.55346e-07
-2.08004e-07
-8.55898e-07
2.04831e-07
-0.000271081
1.23637e-06
1.20203e-06
-2.12094e-07
-2.17357e-07
0.000269072
6.9959e-09
7.19698e-09
-0.00117899
-3.12828e-09
-3.04469e-09
0.00117898
-0.00113478
-1.20529e-06
-6.9339e-09
1.43403e-09
0.00113477
-2.20174e-07
1.20932e-06
2.20838e-07
8.57674e-07
-2.02878e-07
-8.53396e-07
2.04188e-07
-0.00113441
-1.19976e-06
-6.95817e-09
1.40007e-09
0.00113441
-2.20167e-07
1.20377e-06
2.20854e-07
8.57491e-07
-2.05541e-07
-8.53285e-07
2.06863e-07
-0.000271072
1.23421e-06
1.19989e-06
-2.10493e-07
-2.15745e-07
0.000269064
8.87524e-09
9.07207e-09
-0.00117896
-6.50981e-09
-6.43392e-09
0.00117896
-0.00113477
-1.20521e-06
-9.31463e-09
7.77016e-11
0.00113477
-2.20113e-07
1.20927e-06
2.20821e-07
8.57183e-07
-2.03284e-07
-8.53801e-07
2.03732e-07
-0.0011344
-1.19967e-06
-9.34154e-09
4.19431e-11
0.0011344
-2.20087e-07
1.20374e-06
2.20851e-07
8.57007e-07
-2.05944e-07
-8.53684e-07
2.06413e-07
-0.000271072
1.23413e-06
1.1998e-06
-2.1071e-07
-2.15973e-07
0.000269065
4.88879e-09
5.00102e-09
-0.00117895
-4.33118e-09
-4.37612e-09
0.00117895
-0.00113477
-1.20589e-06
-5.20675e-09
1.39894e-09
0.00113478
-2.20773e-07
1.20865e-06
2.20198e-07
8.56301e-07
-2.04222e-07
-8.54741e-07
2.02837e-07
-0.00113441
-1.20037e-06
-5.15878e-09
1.48027e-09
0.00113441
-2.20785e-07
1.20308e-06
2.20189e-07
8.56126e-07
-2.06882e-07
-8.54624e-07
2.05517e-07
-0.000271074
1.23482e-06
1.20047e-06
-2.11336e-07
-2.16605e-07
0.000269067
2.15159e-09
2.32267e-09
-0.00117895
-2.26548e-09
-2.2378e-09
0.00117895
-0.00113478
-1.2064e-06
-2.18959e-09
3.03654e-09
0.00113478
-2.21233e-07
1.20821e-06
2.19795e-07
8.55928e-07
-2.047e-07
-8.55238e-07
2.02419e-07
-0.00113441
-1.20087e-06
-2.2348e-09
2.99981e-09
0.00113441
-2.2122e-07
1.20265e-06
2.19814e-07
8.55758e-07
-2.07348e-07
-8.55114e-07
2.05111e-07
-0.000271076
1.2353e-06
1.20099e-06
-2.11767e-07
-2.17011e-07
0.000269068
1.17304e-09
1.42057e-09
-0.00117895
-1.3504e-09
-1.23437e-09
0.00117895
-0.00113478
-1.20632e-06
-1.46512e-09
2.75881e-09
0.00113478
-2.21171e-07
1.2083e-06
2.19854e-07
8.55724e-07
-2.04715e-07
-8.55416e-07
2.02408e-07
-0.00113441
-1.20075e-06
-1.74538e-09
2.64128e-09
0.00113441
-2.21123e-07
1.20278e-06
2.199e-07
8.55601e-07
-2.07331e-07
-8.55243e-07
2.05133e-07
-0.000271075
1.23518e-06
1.20091e-06
-2.11681e-07
-2.16887e-07
0.000269068
1.08318e-09
1.10091e-09
-0.00117895
-1.13155e-09
-1.25019e-09
0.00117895
-0.00113478
-1.20658e-06
-1.21063e-09
3.44807e-09
0.00113478
-2.21364e-07
1.20809e-06
2.19708e-07
8.55731e-07
-2.04907e-07
-8.55408e-07
2.02259e-07
-0.00113441
-1.20112e-06
-1.12675e-09
3.72393e-09
0.00113441
-2.21449e-07
1.20246e-06
2.19627e-07
8.55582e-07
-2.07526e-07
-8.55259e-07
2.04974e-07
-0.000271076
1.2355e-06
1.20116e-06
-2.11898e-07
-2.17157e-07
0.000269068
9.57628e-10
1.15458e-09
-0.00117895
-1.03391e-09
-1.03706e-09
0.00117895
-0.00113478
-1.20645e-06
-1.34253e-09
3.23025e-09
0.00113478
-2.213e-07
1.20815e-06
2.19736e-07
8.55801e-07
-2.04775e-07
-8.55377e-07
2.02358e-07
-0.00113441
-1.20088e-06
-1.31649e-09
3.1055e-09
0.00113441
-2.21244e-07
1.20265e-06
2.19814e-07
8.55585e-07
-2.0748e-07
-8.55297e-07
2.04992e-07
-0.000271076
1.23534e-06
1.20104e-06
-2.11801e-07
-2.17044e-07
0.000269068
1.33183e-09
1.75602e-09
-0.00117895
-1.60217e-09
-1.28345e-09
0.00117895
-0.00113478
-1.2063e-06
-1.64039e-09
2.83864e-09
0.00113478
-2.21164e-07
1.20835e-06
2.19878e-07
8.55728e-07
-2.04768e-07
-8.55408e-07
2.02389e-07
-0.00113442
-1.20072e-06
-1.90271e-09
2.61817e-09
0.00113442
-2.21123e-07
1.20283e-06
2.19906e-07
8.55578e-07
-2.07398e-07
-8.55277e-07
2.05106e-07
-0.000271076
1.23518e-06
1.20091e-06
-2.11686e-07
-2.16901e-07
0.000269068
1.9459e-09
1.83404e-09
-0.00117895
-1.61296e-09
-1.85016e-09
0.00117895
-0.00113478
-1.20634e-06
-1.66731e-09
2.88601e-09
0.00113478
-2.21124e-07
1.2083e-06
2.19934e-07
8.55929e-07
-2.04654e-07
-8.55171e-07
2.02495e-07
-0.00113441
-1.20087e-06
-1.62336e-09
3.21984e-09
0.00113441
-2.21182e-07
1.20269e-06
2.19889e-07
8.55778e-07
-2.0728e-07
-8.55023e-07
2.05206e-07
-0.000271076
1.23532e-06
1.20097e-06
-2.11674e-07
-2.16947e-07
0.000269068
1.38435e-09
1.37238e-09
-0.00117895
-1.16711e-09
-1.39546e-09
0.00117895
-0.00113478
-1.20642e-06
-1.51826e-09
3.37499e-09
0.00113478
-2.21291e-07
1.20818e-06
2.19729e-07
8.55864e-07
-2.04751e-07
-8.55292e-07
2.02372e-07
-0.00113441
-1.20088e-06
-1.46064e-09
3.38121e-09
0.00113441
-2.2126e-07
1.20264e-06
2.19766e-07
8.55673e-07
-2.07418e-07
-8.55181e-07
2.0504e-07
-0.000271075
1.2353e-06
1.20098e-06
-2.11745e-07
-2.17005e-07
0.000269068
3.91295e-10
8.39359e-10
-0.00117894
-8.31689e-10
-6.03333e-10
0.00117895
-0.00113478
-1.20658e-06
-1.23124e-09
3.47116e-09
0.00113478
-2.21389e-07
1.20804e-06
2.19631e-07
8.55624e-07
-2.0487e-07
-8.55527e-07
2.02229e-07
-0.00113441
-1.20104e-06
-1.14942e-09
3.41447e-09
0.00113441
-2.21378e-07
1.20249e-06
2.19639e-07
8.55421e-07
-2.07547e-07
-8.55432e-07
2.04886e-07
-0.000271075
1.23542e-06
1.20112e-06
-2.11877e-07
-2.17127e-07
0.000269068
5.41384e-10
5.85419e-10
-0.00117895
-7.80256e-10
-8.32604e-10
0.00117895
-0.00113478
-1.20652e-06
-6.20102e-10
3.19843e-09
0.00113478
-2.21358e-07
1.20813e-06
2.1971e-07
8.55554e-07
-2.05021e-07
-8.55604e-07
2.02166e-07
-0.00113441
-1.20099e-06
-6.71184e-10
3.34484e-09
0.00113441
-2.21369e-07
1.20257e-06
2.19708e-07
8.55385e-07
-2.07684e-07
-8.55484e-07
2.04844e-07
-0.000271076
1.23547e-06
1.20117e-06
-2.11936e-07
-2.17177e-07
0.000269068
1.01668e-09
1.053e-09
-0.00117895
-1.19778e-09
-1.25191e-09
0.00117895
-0.00113478
-1.20647e-06
-7.93201e-10
3.20888e-09
0.00113478
-2.21352e-07
1.2082e-06
2.19718e-07
8.55668e-07
-2.04991e-07
-8.55492e-07
2.0218e-07
-0.00113442
-1.20093e-06
-1.05227e-09
3.14202e-09
0.00113442
-2.21313e-07
1.20266e-06
2.19757e-07
8.55498e-07
-2.07635e-07
-8.55363e-07
2.04869e-07
-0.000271076
1.2354e-06
1.20107e-06
-2.11847e-07
-2.1712e-07
0.000269068
1.42911e-09
1.62423e-09
-0.00117895
-1.33369e-09
-1.3999e-09
0.00117895
-0.00113478
-1.2064e-06
-1.87213e-09
3.02292e-09
0.00113478
-2.21165e-07
1.20825e-06
2.19871e-07
8.55908e-07
-2.04625e-07
-8.55246e-07
2.0249e-07
-0.00113442
-1.20089e-06
-1.67741e-09
3.16431e-09
0.00113441
-2.21191e-07
1.20266e-06
2.19854e-07
8.55749e-07
-2.07271e-07
-8.5512e-07
2.05189e-07
-0.000271076
1.2353e-06
1.20094e-06
-2.11673e-07
-2.16949e-07
0.000269068
1.55752e-09
1.58922e-09
-0.00117895
-1.37981e-09
-1.37154e-09
0.00117895
-0.00113478
-1.20645e-06
-1.65573e-09
3.12737e-09
0.00113478
-2.21271e-07
1.20818e-06
2.19775e-07
8.55835e-07
-2.04686e-07
-8.55316e-07
2.02465e-07
-0.00113441
-1.20093e-06
-1.7165e-09
3.2333e-09
0.00113441
-2.21275e-07
1.20259e-06
2.19771e-07
8.55653e-07
-2.07343e-07
-8.55202e-07
2.05142e-07
-0.000271076
1.23537e-06
1.20106e-06
-2.1177e-07
-2.17033e-07
0.000269068
1.5259e-09
1.57979e-09
-0.00117895
-1.3155e-09
-1.50181e-09
0.00117895
-0.00113478
-1.20637e-06
-1.60958e-09
3.0162e-09
0.00113478
-2.21212e-07
1.20821e-06
2.19824e-07
8.55783e-07
-2.04735e-07
-8.55336e-07
2.02418e-07
-0.00113441
-1.20082e-06
-1.57967e-09
3.08188e-09
0.00113441
-2.21211e-07
1.2027e-06
2.19831e-07
8.55584e-07
-2.07437e-07
-8.55252e-07
2.05067e-07
-0.000271076
1.23529e-06
1.20097e-06
-2.1174e-07
-2.16986e-07
0.000269068
1.48544e-09
1.97498e-09
-0.00117895
-1.71975e-09
-1.32316e-09
0.00117895
-0.00113478
-1.20627e-06
-1.95702e-09
2.91537e-09
0.00113478
-2.21175e-07
1.20836e-06
2.19865e-07
8.55823e-07
-2.04816e-07
-8.5532e-07
2.02344e-07
-0.00113441
-1.20073e-06
-2.0012e-09
2.78117e-09
0.00113441
-2.21138e-07
1.20283e-06
2.19898e-07
8.55636e-07
-2.0745e-07
-8.55189e-07
2.0503e-07
-0.000271076
1.23516e-06
1.20086e-06
-2.11666e-07
-2.16914e-07
0.000269068
1.85236e-09
1.73809e-09
-0.00117895
-1.55582e-09
-1.78434e-09
0.00117895
-0.00113478
-1.20636e-06
-1.82258e-09
2.7073e-09
0.00113478
-2.21186e-07
1.20828e-06
2.19836e-07
8.55779e-07
-2.04677e-07
-8.55326e-07
2.02378e-07
-0.00113441
-1.20092e-06
-1.87849e-09
3.02193e-09
0.00113441
-2.21238e-07
1.20264e-06
2.19803e-07
8.55659e-07
-2.07381e-07
-8.55179e-07
2.05017e-07
-0.000271076
1.23531e-06
1.20103e-06
-2.11775e-07
-2.17029e-07
0.000269068
1.69615e-09
1.97289e-09
-0.00117894
-1.49607e-09
-1.46596e-09
0.00117894
-0.00113478
-1.20636e-06
-1.9811e-09
2.9205e-09
0.00113478
-2.21145e-07
1.2083e-06
2.19913e-07
8.55897e-07
-2.04622e-07
-8.55187e-07
2.02492e-07
-0.00113441
-1.20074e-06
-1.92924e-09
2.60995e-09
0.00113441
-2.21067e-07
1.2028e-06
2.19978e-07
8.55723e-07
-2.07177e-07
-8.55091e-07
2.05272e-07
-0.000271076
1.23522e-06
1.20085e-06
-2.11622e-07
-2.1687e-07
0.000269068
1.62949e-09
1.60367e-09
-0.00117894
-1.32414e-09
-1.45185e-09
0.00117894
-0.00113478
-1.20644e-06
-1.74056e-09
3.10507e-09
0.00113478
-2.21293e-07
1.20817e-06
2.19709e-07
8.55741e-07
-2.04741e-07
-8.55329e-07
2.02258e-07
-0.00113441
-1.20095e-06
-1.83841e-09
3.24363e-09
0.00113441
-2.21323e-07
1.2026e-06
2.19696e-07
8.55564e-07
-2.07446e-07
-8.55206e-07
2.04904e-07
-0.000271076
1.23536e-06
1.20107e-06
-2.11842e-07
-2.17091e-07
0.000269068
1.46047e-09
1.70716e-09
-0.00117894
-1.3507e-09
-1.30123e-09
0.00117894
-0.00113478
-1.20637e-06
-1.70798e-09
2.57571e-09
0.00113478
-2.21134e-07
1.20823e-06
2.19835e-07
8.55669e-07
-2.04602e-07
-8.553e-07
2.02332e-07
-0.00113441
-1.20083e-06
-1.66973e-09
2.60658e-09
0.00113441
-2.21129e-07
1.20268e-06
2.19839e-07
8.55498e-07
-2.07251e-07
-8.55192e-07
2.05015e-07
-0.000271076
1.2353e-06
1.201e-06
-2.11721e-07
-2.1696e-07
0.000269068
1.621e-09
1.83004e-09
-0.00117894
-1.41285e-09
-1.33448e-09
0.00117894
-0.00113478
-1.20649e-06
-1.86613e-09
3.25466e-09
0.00113478
-2.21293e-07
1.20804e-06
2.19626e-07
8.55633e-07
-2.04668e-07
-8.55202e-07
2.02084e-07
-0.00113441
-1.20098e-06
-1.9634e-09
3.33293e-09
0.00113441
-2.21268e-07
1.20249e-06
2.19629e-07
8.55453e-07
-2.07327e-07
-8.55088e-07
2.04769e-07
-0.000271076
1.23537e-06
1.20109e-06
-2.11829e-07
-2.17067e-07
0.000269068
2.1335e-09
2.23278e-09
-0.00117894
-1.60597e-09
-1.67113e-09
0.00117894
-0.00113478
-1.20624e-06
-2.23514e-09
2.54063e-09
0.00113478
-2.21069e-07
1.20817e-06
2.19648e-07
8.5548e-07
-2.04322e-07
-8.55051e-07
2.01948e-07
-0.00113441
-1.20073e-06
-2.25593e-09
2.70496e-09
0.00113442
-2.21052e-07
1.2026e-06
2.19638e-07
8.55312e-07
-2.06991e-07
-8.54925e-07
2.04613e-07
-0.000271076
1.23516e-06
1.20085e-06
-2.11576e-07
-2.16841e-07
0.000269068
2.47273e-09
2.6435e-09
-0.00117894
-1.85044e-09
-1.85523e-09
0.00117894
-0.00113478
-1.20613e-06
-2.74422e-09
2.1277e-09
0.00113478
-2.20839e-07
1.20809e-06
2.19577e-07
8.55101e-07
-2.03808e-07
-8.54698e-07
2.01567e-07
-0.00113441
-1.20061e-06
-2.77758e-09
2.18568e-09
0.00113441
-2.20805e-07
1.20254e-06
2.1958e-07
8.54935e-07
-2.06457e-07
-8.54574e-07
2.04249e-07
-0.000271076
1.23503e-06
1.20072e-06
-2.11332e-07
-2.16588e-07
0.000269068
2.92485e-09
3.02248e-09
-0.00117894
-2.22159e-09
-2.2113e-09
0.00117894
-0.00113478
-1.20591e-06
-3.03034e-09
2.10487e-09
0.00113478
-2.20534e-07
1.20782e-06
2.19172e-07
8.54443e-07
-2.02924e-07
-8.53922e-07
2.00538e-07
-0.00113441
-1.20039e-06
-3.06558e-09
2.19022e-09
0.00113442
-2.20513e-07
1.20227e-06
2.19138e-07
8.54282e-07
-2.05583e-07
-8.53796e-07
2.03212e-07
-0.000271076
1.23484e-06
1.20052e-06
-2.10903e-07
-2.16164e-07
0.000269068
3.3294e-09
3.50104e-09
-0.00117894
-3.38219e-09
-3.36052e-09
0.00117894
-0.00113478
-1.20545e-06
-3.42129e-09
2.07436e-09
0.00113478
-2.19864e-07
1.20712e-06
2.18098e-07
8.52778e-07
-2.01012e-07
-8.52617e-07
1.98174e-07
-0.00113441
-1.19992e-06
-3.48046e-09
2.04782e-09
0.00113442
-2.1983e-07
1.20158e-06
2.18074e-07
8.52607e-07
-2.03647e-07
-8.52496e-07
2.00859e-07
-0.000271077
1.23437e-06
1.20005e-06
-2.09883e-07
-2.15135e-07
0.000269067
2.72111e-09
3.06053e-09
-0.00117894
-5.26916e-09
-5.0731e-09
0.00117895
-0.00113478
-1.20437e-06
-3.24221e-09
2.91259e-09
0.00113478
-2.18113e-07
1.20534e-06
2.15532e-07
8.49072e-07
-1.96732e-07
-8.49778e-07
1.93052e-07
-0.00113441
-1.19884e-06
-3.25216e-09
2.83881e-09
0.00113442
-2.18088e-07
1.1998e-06
2.15569e-07
8.48898e-07
-1.99386e-07
-8.49605e-07
1.95764e-07
-0.000271078
1.23329e-06
1.19896e-06
-2.07282e-07
-2.12529e-07
0.000269066
1.93239e-08
1.95186e-08
-0.00117895
-1.83782e-08
-2.40279e-08
0.00117895
-0.00113478
-1.20141e-06
-1.35475e-08
-4.52821e-09
0.0011348
-2.13311e-07
1.20251e-06
2.13351e-07
8.44889e-07
-1.9013e-07
-8.45947e-07
1.83312e-07
-0.00113442
-1.19312e-06
-1.93377e-08
9.70074e-10
0.00113445
-2.13251e-07
1.19424e-06
2.10598e-07
8.42014e-07
-1.90088e-07
-8.4306e-07
1.86022e-07
-0.000271088
1.23306e-06
1.19599e-06
-1.98242e-07
-2.03445e-07
0.000269061
9.06413e-07
9.13648e-07
-0.00117882
-7.94995e-07
-7.84283e-07
0.00117857
-0.00113508
-1.10853e-06
-9.07706e-07
-3.91036e-07
0.0011355
-1.31715e-07
1.36579e-06
3.01639e-07
9.94786e-07
-9.03351e-08
-7.42496e-07
2.84669e-07
-0.00113473
-1.10015e-06
-9.19107e-07
-4.02492e-07
0.00113518
-1.31565e-07
1.36039e-06
3.04534e-07
9.91751e-07
-9.57741e-08
-7.39634e-07
2.87397e-07
-0.000271172
1.14286e-06
1.10023e-06
-1.11657e-07
-1.14173e-07
0.000269155
5.45173e-06
5.44447e-06
-0.00116554
-1.1656e-05
-1.15494e-05
0.00028392
0.000285768
0.000285682
0.000285683
4.49469e-06
6.73804e-06
7.15902e-06
4.49867e-06
6.7388e-06
7.1626e-06
-0.000281434
5.40947e-06
-5.44163e-06
5.93515e-06
-3.41091e-06
0.000278942
-0.000281409
-5.444e-06
5.41483e-06
-3.41918e-06
5.9321e-06
0.000278925
-0.000272125
-5.40608e-06
-5.41777e-06
5.74501e-06
5.73302e-06
0.000271471
1.28738e-06
1.24994e-06
-2.35959e-07
-2.44044e-07
0.000269462
-1.26586e-06
-1.22889e-06
0.000271384
-0.000269361
2.32244e-07
2.39858e-07
9.00436e-08
0.00113946
-2.63092e-07
1.249e-06
2.24466e-07
8.55795e-07
-2.42302e-07
-8.97527e-07
1.96774e-07
-1.29294e-06
2.29827e-07
9.13778e-08
0.00113991
-2.66038e-07
1.25432e-06
2.26864e-07
8.60749e-07
-2.4532e-07
-9.03719e-07
1.99447e-07
0.00113905
1.92855e-07
-0.00113918
3.43423e-08
-1.26929e-06
2.48192e-07
-2.3982e-07
-9.00907e-07
1.92637e-07
-2.45035e-07
8.48641e-07
1.27102e-06
0.0011395
1.94654e-07
-0.00113963
3.7943e-08
-1.27567e-06
2.50727e-07
-2.43296e-07
-9.06251e-07
1.95087e-07
-2.4778e-07
8.54348e-07
-2.39082e-07
-2.41094e-07
0.000269484
-1.23122e-06
0.000271413
-0.000269382
2.34672e-07
2.36973e-07
8.98844e-08
0.00114058
-2.60133e-07
1.21208e-06
2.22183e-07
8.57874e-07
-2.45364e-07
-9.00921e-07
1.99378e-07
-1.28754e-06
2.27392e-07
9.02231e-08
0.00113956
-2.66009e-07
1.24881e-06
2.2699e-07
8.59088e-07
-2.44261e-07
-8.99682e-07
2.00204e-07
0.00114016
1.93997e-07
-0.00114029
3.39529e-08
-1.23197e-06
2.45819e-07
-2.36974e-07
-9.03508e-07
1.95412e-07
-2.47708e-07
8.5164e-07
1.26536e-06
0.00113915
1.9564e-07
-0.00113928
3.75934e-08
-1.26998e-06
2.50507e-07
-2.43305e-07
-9.04195e-07
1.94691e-07
-2.48429e-07
8.50721e-07
2.29711e-07
9.02446e-08
0.00113936
-2.60486e-07
1.24329e-06
2.2147e-07
8.55126e-07
-2.42314e-07
1.96723e-07
-8.97957e-07
1.96423e-07
-0.00114002
3.53726e-08
-1.23498e-06
2.42621e-07
-2.34681e-07
-9.01277e-07
1.92255e-07
8.485e-07
-2.45575e-07
1.26025e-06
0.00113894
1.9556e-07
-0.00113907
3.64403e-08
-1.26389e-06
2.45328e-07
-2.37171e-07
-9.01112e-07
1.92193e-07
-2.45274e-07
8.48478e-07
-2.35592e-07
-2.43981e-07
0.000269443
-1.22566e-06
0.000271361
-0.000269341
2.32128e-07
2.39242e-07
2.30661e-07
9.03575e-08
0.00114047
-2.57783e-07
1.20896e-06
2.18901e-07
8.55033e-07
-2.45431e-07
1.9928e-07
-8.98394e-07
1.95753e-07
-0.00113965
3.55363e-08
-1.22969e-06
2.42781e-07
-2.34707e-07
-9.00716e-07
1.95029e-07
8.48572e-07
-2.47785e-07
1.22575e-06
0.00114006
1.93844e-07
-0.00114019
3.58309e-08
-1.22967e-06
2.42901e-07
-2.3455e-07
-9.00575e-07
1.95508e-07
-2.47418e-07
8.49218e-07
-0.000269354
2.34426e-07
2.39932e-07
1.26309e-06
1.22575e-06
-2.18519e-07
-2.26649e-07
0.00026934
-1.24107e-06
-1.20309e-06
0.000271236
-0.000269231
2.15044e-07
2.24182e-07
1.91715e-08
0.00113892
-2.33668e-07
1.26934e-06
2.50181e-07
8.52415e-07
-2.40869e-07
-8.9851e-07
1.985e-07
-1.26853e-06
1.75026e-07
2.0835e-08
0.00113937
-2.36152e-07
1.27544e-06
2.53533e-07
8.5717e-07
-2.44699e-07
-9.04607e-07
1.99871e-07
0.00113846
1.70423e-07
-0.00113863
1.00114e-07
-1.28312e-06
2.11784e-07
-2.67071e-07
-8.71971e-07
2.14756e-07
-2.18927e-07
8.75469e-07
1.24678e-06
0.00113892
1.64865e-07
-0.00113908
9.26229e-08
-1.28808e-06
2.14807e-07
-2.69262e-07
-8.77041e-07
2.19395e-07
-2.20594e-07
8.82318e-07
-2.21846e-07
-2.23483e-07
0.000269361
-1.20689e-06
0.000271268
-0.000269254
2.19445e-07
2.20633e-07
1.98097e-08
0.00114004
-2.30894e-07
1.23236e-06
2.47646e-07
8.55004e-07
-2.44048e-07
-9.01372e-07
2.00766e-07
-1.26332e-06
1.7178e-07
1.94921e-08
0.00113902
-2.36394e-07
1.26934e-06
2.53235e-07
8.54772e-07
-2.43992e-07
-9.01661e-07
2.00983e-07
0.00113958
1.6525e-07
-0.00113975
9.78791e-08
-1.24668e-06
2.08933e-07
-2.64771e-07
-8.73788e-07
2.19133e-07
-2.20501e-07
8.79639e-07
1.24194e-06
0.00113856
1.69072e-07
-0.00113874
9.60338e-08
-1.28221e-06
2.15066e-07
-2.68956e-07
-8.74388e-07
2.17896e-07
-2.21207e-07
8.78522e-07
1.74227e-07
2.27698e-08
0.00113881
-2.31126e-07
1.26335e-06
2.47051e-07
8.51964e-07
-2.41582e-07
1.97564e-07
-8.98839e-07
1.65211e-07
-0.00113948
9.78198e-08
-1.2483e-06
2.06507e-07
-2.61163e-07
-8.71412e-07
2.15673e-07
8.76331e-07
-2.18251e-07
1.23638e-06
0.00113836
1.64434e-07
-0.00113853
9.35839e-08
-1.27698e-06
2.0981e-07
-2.63515e-07
-8.71408e-07
2.16204e-07
-2.18004e-07
8.76516e-07
-2.18598e-07
-2.2677e-07
0.00026932
-1.20004e-06
0.000271215
-0.000269213
2.14899e-07
2.24718e-07
1.7521e-07
2.14946e-08
0.00113993
-2.28162e-07
1.22933e-06
2.44938e-07
8.51989e-07
-2.44358e-07
2.00137e-07
-8.98849e-07
1.61535e-07
-0.00113911
9.82236e-08
-1.24345e-06
2.05605e-07
-2.61881e-07
-8.70665e-07
2.19895e-07
8.77302e-07
-2.19915e-07
1.20158e-06
0.00113947
1.63536e-07
-0.00113964
9.36635e-08
-1.24266e-06
2.06873e-07
-2.6112e-07
-8.7157e-07
2.19458e-07
-2.20666e-07
8.76998e-07
-0.000269225
2.18815e-07
2.24692e-07
1.28903e-06
1.25246e-06
-2.37158e-07
-2.43853e-07
0.000269175
-1.27446e-06
-1.23829e-06
0.00027111
-0.000269082
2.38991e-07
2.45301e-07
1.16916e-07
0.00113828
-2.70656e-07
1.23798e-06
2.12917e-07
8.68148e-07
-2.24041e-07
-8.73462e-07
2.06151e-07
-1.29501e-06
1.84674e-07
1.10434e-07
0.00113874
-2.73651e-07
1.24307e-06
2.15502e-07
8.76284e-07
-2.24347e-07
-8.76937e-07
2.11444e-07
0.0011379
1.60571e-07
-0.001138
-5.26104e-09
-1.2544e-06
2.61544e-07
-2.23254e-07
-8.99741e-07
1.88668e-07
-2.43432e-07
8.42013e-07
1.27997e-06
0.00113834
1.68524e-07
-0.00113845
5.39358e-09
-1.26021e-06
2.63878e-07
-2.26597e-07
-9.06866e-07
1.89064e-07
-2.48139e-07
8.45389e-07
-2.38598e-07
-2.42237e-07
0.000269199
-1.23963e-06
0.000271139
-0.000269102
2.3974e-07
2.43529e-07
1.12568e-07
0.00113941
-2.67983e-07
1.20048e-06
2.10559e-07
8.72702e-07
-2.25133e-07
-8.74603e-07
2.10527e-07
-1.28866e-06
1.94199e-07
1.15556e-07
0.00113839
-2.73503e-07
1.2383e-06
2.15453e-07
8.70753e-07
-2.26849e-07
-8.76174e-07
2.08618e-07
0.00113901
1.66793e-07
-0.00113912
-1.49052e-09
-1.21632e-06
2.59346e-07
-2.19997e-07
-9.04091e-07
1.89748e-07
-2.47818e-07
8.4293e-07
1.27316e-06
0.00113799
1.59435e-07
-0.0011381
-1.35417e-10
-1.25571e-06
2.63377e-07
-2.27202e-07
-9.02397e-07
1.91697e-07
-2.45951e-07
8.44962e-07
1.84636e-07
1.09143e-07
0.00113819
-2.66953e-07
1.23354e-06
2.11084e-07
8.70049e-07
-2.2217e-07
2.08059e-07
-8.71866e-07
1.65103e-07
-0.00113884
-3.28159e-09
-1.22033e-06
2.55955e-07
-2.182e-07
-9.0019e-07
1.88309e-07
8.41331e-07
-2.43722e-07
1.26727e-06
0.00113779
1.68738e-07
-0.00113789
5.87289e-09
-1.25027e-06
2.57088e-07
-2.22119e-07
-9.00878e-07
1.86906e-07
-2.44743e-07
8.40315e-07
-2.38288e-07
-2.43141e-07
0.000269157
-1.23648e-06
0.000271087
-0.000269061
2.40266e-07
2.43768e-07
1.80282e-07
1.09737e-07
0.0011393
-2.64891e-07
1.19824e-06
2.07933e-07
8.71595e-07
-2.23835e-07
2.1217e-07
-8.70923e-07
1.71655e-07
-0.00113848
-5.28156e-09
-1.21301e-06
2.57724e-07
-2.16606e-07
-9.01772e-07
1.88495e-07
8.39056e-07
-2.48573e-07
1.23369e-06
0.0011389
1.71077e-07
-0.00113901
4.70729e-09
-1.21538e-06
2.55253e-07
-2.18902e-07
-9.01351e-07
1.88943e-07
-2.4804e-07
8.39748e-07
-0.000269074
2.39708e-07
2.44046e-07
1.23996e-06
1.20224e-06
-2.02399e-07
-2.11301e-07
0.000269082
-1.25696e-06
-1.21906e-06
0.000271017
-0.000269017
2.33242e-07
2.42678e-07
-4.82477e-08
0.00113781
-2.09753e-07
1.28534e-06
2.69837e-07
8.52565e-07
-2.35616e-07
-8.93001e-07
1.99715e-07
-1.24559e-06
1.17314e-07
-3.73008e-08
0.00113824
-2.12962e-07
1.29074e-06
2.72096e-07
8.552e-07
-2.40984e-07
-9.01388e-07
1.99865e-07
0.00113736
3.6634e-08
-0.00113755
4.56463e-08
-1.25292e-06
2.27239e-07
-2.37985e-07
-8.39864e-07
2.45851e-07
-1.86349e-07
9.01811e-07
1.26244e-06
0.00113781
2.74714e-08
-0.001138
3.52246e-08
-1.25873e-06
2.30791e-07
-2.40319e-07
-8.43651e-07
2.51282e-07
-1.86962e-07
9.09913e-07
-2.06815e-07
-2.0775e-07
0.000269102
-1.22348e-06
0.000271048
-0.000269039
2.38587e-07
2.38627e-07
-4.21004e-08
0.00113891
-2.07179e-07
1.24837e-06
2.66802e-07
8.53644e-07
-2.39852e-07
-8.97652e-07
2.01264e-07
-1.24114e-06
1.03827e-07
-4.46336e-08
0.00113791
-2.13027e-07
1.28443e-06
2.72409e-07
8.56085e-07
-2.37655e-07
-8.95045e-07
2.03258e-07
0.00113847
2.95918e-08
-0.00113866
3.96952e-08
-1.21676e-06
2.24873e-07
-2.35549e-07
-8.40674e-07
2.5085e-07
-1.87015e-07
9.06887e-07
1.25875e-06
0.00113746
3.90738e-08
-0.00113766
4.0704e-08
-1.25146e-06
2.31437e-07
-2.39284e-07
-8.43047e-07
2.47924e-07
-1.89566e-07
9.03768e-07
1.18266e-07
-3.74888e-08
0.00113769
-2.08404e-07
1.27825e-06
2.65842e-07
8.5004e-07
-2.377e-07
1.97389e-07
-8.95316e-07
3.4017e-08
-0.00113839
4.30078e-08