/*--------------------------------*- C++ -*----------------------------------*\
| =========                 |                                                 |
| \\      /  F ield         | OpenFOAM: The Open Source CFD Toolbox           |
|  \\    /   O peration     | Version:  v2012                                 |
|   \\  /    A nd           | Website:  www.openfoam.com                      |
|    \\/     M anipulation  |                                                 |
\*---------------------------------------------------------------------------*/
FoamFile
{
    version     2.0;
    format      ascii;
    class       volVectorField;
    location    "250";
    object      U;
}
// * * * * * * * * * * * * * * * * * * * * * * * * * * * * * * * * * * * * * //

dimensions      [0 1 -1 0 0 0 0];


internalField   nonuniform List<vector> 
85864
(
(2.53419e-05 2.53469e-05 0.11315)
(-1.74123e-05 1.25941e-05 0.108267)
(1.24491e-05 -1.74044e-05 0.108266)
(-4.96099e-05 -4.97467e-05 0.104717)
(1.94197e-05 1.92831e-05 0.113168)
(-1.29271e-05 3.07582e-06 0.108214)
(3.0594e-06 -1.34383e-05 0.108213)
(-4.13144e-05 -4.13657e-05 0.104669)
(2.26592e-05 2.29703e-05 0.11317)
(-1.25019e-05 1.53824e-05 0.108157)
(1.56195e-05 -1.15563e-05 0.108156)
(-5.00826e-05 -4.97671e-05 0.104611)
(1.36873e-05 1.34303e-05 0.113176)
(-7.80408e-06 -5.15486e-06 0.108107)
(-5.65296e-06 -8.80334e-06 0.108105)
(-3.34951e-05 -3.39395e-05 0.104569)
(1.59082e-05 1.60267e-05 0.113149)
(-3.92667e-06 1.62524e-05 0.108049)
(1.67449e-05 -2.84867e-06 0.108049)
(-4.40514e-05 -4.3695e-05 0.10453)
(1.3497e-05 1.34554e-05 0.113154)
(-5.20182e-06 -9.43238e-06 0.108)
(-9.77546e-06 -6.34002e-06 0.107998)
(-3.67966e-05 -3.70929e-05 0.104465)
(-2.64014e-05 -2.6019e-05 0.113054)
(3.88944e-05 -2.25023e-05 0.10796)
(-2.23302e-05 4.01396e-05 0.10796)
(2.70179e-06 3.18753e-06 0.104523)
(4.55766e-05 4.52081e-05 0.112959)
(-1.80642e-05 2.7874e-05 0.107756)
(2.76687e-05 -1.88732e-05 0.107756)
(-4.88019e-05 -4.9359e-05 0.104292)
(1.36112e-05 1.35826e-05 0.113004)
(-2.90964e-05 9.1266e-06 0.10777)
(9.552e-06 -2.90249e-05 0.107768)
(-6.49248e-05 -6.47164e-05 0.104273)
(-2.4903e-05 -2.47093e-05 0.113071)
(1.63925e-06 -4.87822e-06 0.108034)
(-5.16193e-06 1.85784e-06 0.108033)
(-4.80568e-05 -4.80185e-05 0.104582)
(-3.2796e-05 -3.28803e-05 0.113017)
(5.37706e-05 -3.27696e-05 0.108021)
(-3.28563e-05 5.36787e-05 0.108021)
(1.06055e-05 1.04263e-05 0.104612)
(-8.08029e-05 -8.07668e-05 0.112712)
(0.000115313 -5.90942e-05 0.107796)
(-5.89488e-05 0.000115193 0.107795)
(5.01104e-05 5.02687e-05 0.104474)
(-9.80891e-05 -9.79546e-05 0.112335)
(0.000109774 -5.69152e-05 0.107672)
(-5.6928e-05 0.000109836 0.107671)
(3.72031e-05 3.72194e-05 0.104435)
(-6.83763e-05 -6.83842e-05 0.112105)
(6.32323e-05 -3.5852e-05 0.107659)
(-3.58879e-05 6.32549e-05 0.107659)
(5.34414e-06 5.30913e-06 0.104479)
(-3.15031e-05 -3.15748e-05 0.112016)
(2.38169e-05 -1.47324e-05 0.107696)
(-1.47348e-05 2.37733e-05 0.107695)
(-1.94584e-05 -1.94744e-05 0.104543)
(-8.48036e-06 -8.49702e-06 0.111999)
(3.70431e-06 -2.689e-06 0.107728)
(-2.68532e-06 3.67452e-06 0.107727)
(-3.10153e-05 -3.10146e-05 0.104584)
(3.55515e-07 3.74534e-07 0.112004)
(-1.95729e-06 1.4875e-06 0.10774)
(1.4911e-06 -1.94753e-06 0.107739)
(-3.39249e-05 -3.39118e-05 0.104596)
(7.07499e-07 7.24341e-07 0.112007)
(-9.4877e-07 1.2898e-06 0.107738)
(1.28744e-06 -9.43389e-07 0.107737)
(-3.30545e-05 -3.30558e-05 0.104594)
(-8.63456e-07 -8.53842e-07 0.112005)
(3.43736e-07 4.46431e-07 0.107735)
(4.4178e-07 3.44524e-07 0.107734)
(-3.23235e-05 -3.232e-05 0.104591)
(-1.25053e-06 -1.24065e-06 0.112002)
(3.24431e-07 2.96877e-07 0.107734)
(2.89746e-07 3.23843e-07 0.107733)
(-3.2361e-05 -3.23622e-05 0.104591)
(-9.30754e-07 -9.31159e-07 0.112001)
(-8.46615e-08 5.0587e-07 0.107735)
(5.12364e-07 -8.80716e-08 0.107734)
(-3.26192e-05 -3.26232e-05 0.104592)
(-6.6699e-07 -6.61576e-07 0.112001)
(-2.97488e-07 7.12781e-07 0.107735)
(7.07178e-07 -2.92354e-07 0.107734)
(-3.27941e-05 -3.27876e-05 0.104592)
(-5.44486e-07 -5.3203e-07 0.112001)
(-3.27386e-07 6.79299e-07 0.107735)
(6.68393e-07 -3.06193e-07 0.107734)
(-3.27689e-05 -3.27453e-05 0.104592)
(-5.3503e-07 -5.44308e-07 0.112001)
(-3.71222e-07 7.51862e-07 0.107735)
(7.7985e-07 -3.69057e-07 0.107734)
(-3.28613e-05 -3.28601e-05 0.104592)
(-5.20541e-07 -5.16401e-07 0.112001)
(-3.41646e-07 7.37358e-07 0.107735)
(7.20121e-07 -3.44481e-07 0.107734)
(-3.28084e-05 -3.27984e-05 0.104592)
(-5.85922e-07 -5.53868e-07 0.112001)
(-3.22191e-07 6.88424e-07 0.107735)
(6.69647e-07 -3.08982e-07 0.107734)
(-3.27653e-05 -3.27442e-05 0.104592)
(-5.8199e-07 -6.03508e-07 0.112001)
(-3.08616e-07 6.81637e-07 0.107735)
(7.11641e-07 -3.00842e-07 0.107734)
(-3.27797e-05 -3.27849e-05 0.104592)
(-5.42385e-07 -5.61314e-07 0.112001)
(-3.30963e-07 7.55687e-07 0.107735)
(7.52107e-07 -3.28964e-07 0.107734)
(-3.27831e-05 -3.27814e-05 0.104592)
(-4.99255e-07 -4.69296e-07 0.112001)
(-3.61304e-07 7.62574e-07 0.107735)
(7.55681e-07 -3.72535e-07 0.107734)
(-3.28466e-05 -3.28392e-05 0.104592)
(-4.83498e-07 -4.88543e-07 0.112001)
(-4.0542e-07 7.33215e-07 0.107735)
(7.46258e-07 -3.99744e-07 0.107734)
(-3.28645e-05 -3.28522e-05 0.104592)
(-5.39592e-07 -5.48823e-07 0.112001)
(-3.9945e-07 7.45314e-07 0.107735)
(7.36451e-07 -3.86394e-07 0.107735)
(-3.28252e-05 -3.28264e-05 0.104592)
(-5.56694e-07 -5.53149e-07 0.112001)
(-2.88104e-07 7.00955e-07 0.107735)
(7.10313e-07 -2.91337e-07 0.107734)
(-3.27763e-05 -3.27835e-05 0.104592)
(-5.55037e-07 -5.54613e-07 0.112001)
(-3.0949e-07 7.14338e-07 0.107735)
(7.21286e-07 -3.0284e-07 0.107734)
(-3.28156e-05 -3.2812e-05 0.104592)
(-5.54116e-07 -5.74749e-07 0.112001)
(-3.06591e-07 6.97079e-07 0.107735)
(7.07549e-07 -3.14437e-07 0.107734)
(-3.27847e-05 -3.27774e-05 0.104592)
(-6.10968e-07 -5.6376e-07 0.112001)
(-3.16039e-07 6.9807e-07 0.107735)
(6.80237e-07 -3.0844e-07 0.107735)
(-3.27434e-05 -3.27368e-05 0.104592)
(-5.94611e-07 -6.2145e-07 0.112001)
(-3.03198e-07 6.69431e-07 0.107735)
(7.06645e-07 -3.09399e-07 0.107735)
(-3.28179e-05 -3.28055e-05 0.104592)
(-5.67048e-07 -5.54016e-07 0.112001)
(-2.73978e-07 6.75267e-07 0.107736)
(6.30757e-07 -2.55646e-07 0.107735)
(-3.27522e-05 -3.27598e-05 0.104592)
(-5.66995e-07 -5.83357e-07 0.112001)
(-3.15227e-07 7.18642e-07 0.107736)
(7.34831e-07 -3.14583e-07 0.107735)
(-3.28365e-05 -3.28215e-05 0.104592)
(-5.51458e-07 -5.3768e-07 0.112002)
(-2.83915e-07 6.40284e-07 0.107736)
(6.39466e-07 -2.82825e-07 0.107735)
(-3.28129e-05 -3.28016e-05 0.104592)
(-5.77193e-07 -5.69523e-07 0.112003)
(-2.93521e-07 7.15613e-07 0.107736)
(7.2253e-07 -2.87526e-07 0.107736)
(-3.28435e-05 -3.28286e-05 0.104592)
(-6.04464e-07 -6.09452e-07 0.112003)
(-2.49631e-07 6.5182e-07 0.107737)
(6.67743e-07 -2.50979e-07 0.107736)
(-3.2752e-05 -3.27493e-05 0.104592)
(-6.38262e-07 -6.34972e-07 0.112005)
(-2.03968e-07 5.97868e-07 0.107738)
(6.03613e-07 -2.00405e-07 0.107737)
(-3.27056e-05 -3.27028e-05 0.104592)
(-7.03817e-07 -7.00394e-07 0.112007)
(-2.10784e-07 6.29369e-07 0.107739)
(6.38643e-07 -2.07847e-07 0.107738)
(-3.25907e-05 -3.25875e-05 0.104592)
(-8.86799e-07 -8.82052e-07 0.11201)
(-3.14378e-07 7.62264e-07 0.10774)
(7.59729e-07 -3.07634e-07 0.107739)
(-3.22997e-05 -3.22985e-05 0.104592)
(-1.21804e-06 -1.18985e-06 0.112015)
(-6.988e-07 1.17807e-06 0.107742)
(1.16343e-06 -6.93267e-07 0.107741)
(-3.15464e-05 -3.15441e-05 0.104594)
(-2.36058e-06 -2.35164e-06 0.112023)
(-2.02123e-06 2.50215e-06 0.107744)
(2.49716e-06 -2.01396e-06 0.107744)
(-2.9344e-05 -2.93321e-05 0.104602)
(-1.02511e-05 -1.02267e-05 0.112034)
(-1.80276e-06 4.16918e-06 0.107749)
(4.13356e-06 -1.78135e-06 0.107748)
(-1.90149e-05 -1.89903e-05 0.10464)
(-2.51823e-05 -2.50986e-05 0.112143)
(8.37774e-05 -4.94419e-05 0.108034)
(-4.95291e-05 8.37595e-05 0.108033)
(3.87063e-05 3.86988e-05 0.104998)
(4.96255e-05 4.95151e-05 0.104718)
(-4.6805e-05 -4.68873e-05 0.104836)
(1.26225e-05 1.73222e-05 0.108265)
(-1.27289e-05 1.74272e-05 0.108264)
(4.98083e-06 1.5032e-05 0.108224)
(-5.28229e-06 1.51796e-05 0.108223)
(-4.95607e-05 4.96167e-05 0.104718)
(4.6713e-05 -4.67495e-05 0.104836)
(1.73724e-05 1.25105e-05 0.108266)
(1.71337e-05 -1.26626e-05 0.108263)
(1.50965e-05 4.92677e-06 0.108226)
(1.5314e-05 -5.25798e-06 0.108222)
(-1.73911e-05 -1.26093e-05 0.108264)
(-1.52548e-05 5.07652e-06 0.108226)
(-1.52822e-05 -5.14945e-06 0.108223)
(4.93358e-05 -4.96811e-05 0.104718)
(-4.67518e-05 4.66544e-05 0.104835)
(-1.26035e-05 -1.74809e-05 0.108266)
(5.07278e-06 -1.5221e-05 0.108225)
(-5.09507e-06 -1.50252e-05 0.108225)
(4.6753e-05 4.68268e-05 0.104835)
(4.13411e-05 4.11942e-05 0.10467)
(-3.81067e-05 -3.76258e-05 0.10478)
(3.11044e-06 1.30351e-05 0.108213)
(-3.20112e-06 1.35053e-05 0.108211)
(1.389e-05 1.09019e-05 0.108171)
(-1.33791e-05 1.02269e-05 0.10817)
(-4.12068e-05 4.13658e-05 0.104669)
(3.79176e-05 -3.81625e-05 0.104781)
(1.3276e-05 3.17755e-06 0.108214)
(1.30328e-05 -3.07582e-06 0.108211)
(1.02135e-05 1.38238e-05 0.108172)
(1.08066e-05 -1.35521e-05 0.10817)
(-1.33268e-05 -3.44585e-06 0.108211)
(-1.04546e-05 1.37206e-05 0.108174)
(-1.02465e-05 -1.33181e-05 0.108171)
(4.11752e-05 -4.14543e-05 0.104669)
(-3.75149e-05 3.83993e-05 0.10478)
(-3.31661e-06 -1.34112e-05 0.108213)
(1.3839e-05 -9.88991e-06 0.108172)
(-1.33554e-05 -1.00723e-05 0.108172)
(3.80724e-05 3.8267e-05 0.10478)
(5.00072e-05 5.03945e-05 0.104611)
(-4.96438e-05 -5.01995e-05 0.104724)
(1.53776e-05 1.27845e-05 0.108154)
(-1.50857e-05 1.18558e-05 0.108154)
(-1.88664e-07 1.2331e-05 0.108113)
(-4.76853e-07 1.33719e-05 0.108112)
(-5.03693e-05 4.99515e-05 0.104612)
(4.9926e-05 -4.94692e-05 0.104724)
(1.20346e-05 1.51691e-05 0.108156)
(1.30457e-05 -1.53166e-05 0.108153)
(1.31285e-05 -1.20416e-07 0.108114)
(1.21721e-05 -2.23758e-07 0.108111)
(-1.20444e-05 -1.47602e-05 0.108154)
(-1.26471e-05 -5.48124e-08 0.108115)
(-1.32082e-05 -7.09659e-07 0.108112)
(5.07609e-05 -4.98326e-05 0.104611)
(-5.06195e-05 4.91309e-05 0.104723)
(-1.48868e-05 -1.14755e-05 0.108155)
(-4.09687e-07 -1.36244e-05 0.108114)
(-5.54735e-07 -1.35106e-05 0.108114)
(4.95052e-05 4.91519e-05 0.104723)
(3.33819e-05 3.29316e-05 0.104571)
(-4.38995e-05 -4.33193e-05 0.104693)
(-5.16589e-06 7.46736e-06 0.108105)
(4.58725e-06 8.55447e-06 0.108103)
(6.40712e-06 -2.11359e-06 0.108068)
(-5.75327e-06 -3.29428e-06 0.108067)
(-3.31072e-05 3.34928e-05 0.10457)
(4.35139e-05 -4.42458e-05 0.104693)
(8.09613e-06 -4.93333e-06 0.108106)
(6.94473e-06 4.89138e-06 0.108103)
(-3.07706e-06 6.1236e-06 0.10807)
(-1.7919e-06 -5.88326e-06 0.108067)
(-8.39498e-06 4.39747e-06 0.108103)
(2.33799e-06 6.11614e-06 0.10807)
(3.1102e-06 -5.14467e-06 0.108068)
(3.22674e-05 -3.38667e-05 0.10457)
(-4.28427e-05 4.46055e-05 0.104693)
(4.5632e-06 -8.91057e-06 0.108105)
(6.46513e-06 3.68816e-06 0.10807)
(-5.21415e-06 3.58968e-06 0.108069)
(4.43295e-05 4.47226e-05 0.104693)
(4.44935e-05 4.48048e-05 0.10453)
(-3.66821e-05 -3.71738e-05 0.104605)
(1.64535e-05 4.23608e-06 0.108047)
(-1.57843e-05 3.17675e-06 0.108047)
(8.81163e-06 1.70184e-05 0.107999)
(-9.18083e-06 1.82053e-05 0.107998)
(-4.47404e-05 4.41463e-05 0.10453)
(3.72593e-05 -3.63553e-05 0.104606)
(3.67744e-06 1.59327e-05 0.108049)
(4.94465e-06 -1.59789e-05 0.108046)
(1.78232e-05 8.93696e-06 0.108)
(1.6745e-05 -9.37745e-06 0.107997)
(-3.23151e-06 -1.55163e-05 0.108047)
(-1.69608e-05 8.9459e-06 0.108001)
(-1.79682e-05 -1.01552e-05 0.107998)
(4.55134e-05 -4.38332e-05 0.10453)
(-3.75698e-05 3.59474e-05 0.104605)
(-1.54827e-05 -2.76821e-06 0.108049)
(8.69233e-06 -1.8423e-05 0.108)
(-9.9002e-06 -1.83629e-05 0.108)
(3.62923e-05 3.58958e-05 0.104604)
(3.62012e-05 3.5997e-05 0.104466)
(-8.38453e-05 -8.30942e-05 0.10467)
(-9.64298e-06 5.34661e-06 0.107998)
(9.14208e-06 6.25099e-06 0.107996)
(-3.45056e-05 -3.87672e-05 0.107983)
(3.44678e-05 -3.9672e-05 0.107981)
(-3.5851e-05 3.65645e-05 0.104466)
(8.30585e-05 -8.4089e-05 0.10467)
(5.59916e-06 -9.13615e-06 0.107998)
(4.68431e-06 9.00855e-06 0.107996)
(-3.95924e-05 -3.43568e-05 0.107984)
(-3.86257e-05 3.49296e-05 0.107981)
(-6.16263e-06 8.4536e-06 0.107996)
(3.87514e-05 -3.45079e-05 0.107985)
(3.93565e-05 3.56277e-05 0.107981)
(3.53775e-05 -3.70177e-05 0.104465)
(-8.29064e-05 8.44224e-05 0.10467)
(8.47868e-06 -6.40162e-06 0.107998)
(-3.43022e-05 4.00138e-05 0.107984)
(3.51607e-05 3.99496e-05 0.107983)
(8.38913e-05 8.4484e-05 0.104669)
(-2.4593e-06 -2.01836e-06 0.104523)
(-3.37857e-05 -3.44026e-05 0.104455)
(-2.23926e-05 -3.91478e-05 0.107958)
(2.24864e-05 -3.99492e-05 0.107958)
(2.29646e-05 4.02073e-06 0.107809)
(-2.29064e-05 4.52248e-06 0.107809)
(1.81817e-06 -2.78591e-06 0.104523)
(3.43216e-05 -3.35909e-05 0.104455)
(-3.95952e-05 -2.2671e-05 0.10796)
(-3.86759e-05 2.29608e-05 0.107957)
(4.41155e-06 2.26583e-05 0.107811)
(3.93343e-06 -2.3162e-05 0.107807)
(3.97368e-05 2.36567e-05 0.107958)
(-4.11909e-06 2.28976e-05 0.107811)
(-4.2881e-06 -2.35173e-05 0.107809)
(-1.6895e-06 3.07226e-06 0.104523)
(-3.46241e-05 3.34125e-05 0.104454)
(2.33838e-05 4.02178e-05 0.107959)
(2.25267e-05 -4.68754e-06 0.107811)
(-2.30303e-05 -4.68282e-06 0.107811)
(3.39295e-05 3.33499e-05 0.104455)
(4.88252e-05 4.83779e-05 0.104291)
(-1.37422e-05 -1.36306e-05 0.104373)
(2.79922e-05 1.81879e-05 0.107754)
(-2.7899e-05 1.87901e-05 0.107754)
(1.47463e-05 3.37435e-05 0.107722)
(-1.44009e-05 3.36636e-05 0.107721)
(-4.8357e-05 4.90057e-05 0.104291)
(1.39571e-05 -1.39128e-05 0.104374)
(1.85679e-05 2.79124e-05 0.107756)
(1.79262e-05 -2.82346e-05 0.107753)
(3.37223e-05 1.47069e-05 0.107723)
(3.38526e-05 -1.45862e-05 0.107721)
(-1.85916e-05 -2.87878e-05 0.107754)
(-3.33502e-05 1.45387e-05 0.107725)
(-3.36561e-05 -1.4678e-05 0.107721)
(4.80907e-05 -4.92265e-05 0.104291)
(-1.33864e-05 1.39728e-05 0.104373)
(-2.83425e-05 -1.89785e-05 0.107756)
(1.49591e-05 -3.34409e-05 0.107723)
(-1.46965e-05 -3.34612e-05 0.107722)
(1.37197e-05 1.38996e-05 0.104372)
(6.49155e-05 6.50258e-05 0.104274)
(-2.54727e-05 -2.53744e-05 0.104704)
(9.20196e-06 2.9413e-05 0.107767)
(-9.03971e-06 2.92137e-05 0.107766)
(-1.80419e-06 4.76425e-06 0.107978)
(1.38205e-06 4.6615e-06 0.107978)
(-6.48186e-05 6.47379e-05 0.104274)
(2.51752e-05 -2.54318e-05 0.104704)
(2.9314e-05 9.19647e-06 0.107768)
(2.96455e-05 -9.09158e-06 0.107766)
(4.59088e-06 -1.68224e-06 0.10798)
(4.78935e-06 1.58537e-06 0.107976)
(-2.92533e-05 -8.9899e-06 0.107766)
(-4.9097e-06 -1.62995e-06 0.107981)
(-4.74043e-06 1.90354e-06 0.107978)
(6.53237e-05 -6.47063e-05 0.104273)
(-2.5455e-05 2.53551e-05 0.104703)
(-9.10343e-06 -2.90056e-05 0.107767)
(-1.78449e-06 -4.66054e-06 0.107979)
(1.77614e-06 -4.62445e-06 0.107979)
(2.54239e-05 2.54903e-05 0.104703)
(4.8019e-05 4.80731e-05 0.104582)
(-7.65144e-05 -7.6641e-05 0.104772)
(-5.02817e-06 -1.89307e-06 0.108032)
(4.5694e-06 -1.92284e-06 0.108031)
(-2.32812e-05 -3.68638e-05 0.108056)
(2.32892e-05 -3.67752e-05 0.108055)
(-4.82988e-05 4.80245e-05 0.104582)
(7.65881e-05 -7.66277e-05 0.104771)
(-2.02005e-06 -4.92878e-06 0.108033)
(-1.95969e-06 4.78862e-06 0.10803)
(-3.67792e-05 -2.34194e-05 0.108057)
(-3.68933e-05 2.32839e-05 0.108054)
(1.86641e-06 5.04885e-06 0.108031)
(3.6674e-05 -2.34439e-05 0.108057)
(3.67847e-05 2.32163e-05 0.108055)
(4.79186e-05 -4.81765e-05 0.104581)
(-7.67656e-05 7.64903e-05 0.104771)
(4.97839e-06 1.89879e-06 0.108033)
(-2.36258e-05 3.66422e-05 0.108057)
(2.3411e-05 3.66178e-05 0.108056)
(7.66302e-05 7.64432e-05 0.104771)
(-1.05035e-05 -1.06285e-05 0.104613)
(-0.000117231 -0.000117182 0.104612)
(-3.25761e-05 -5.3868e-05 0.10802)
(3.27479e-05 -5.37617e-05 0.108018)
(-5.56195e-05 -0.000103818 0.107848)
(5.58569e-05 -0.000103737 0.107847)
(1.06375e-05 -1.06294e-05 0.104612)
(0.000117337 -0.000117141 0.104612)
(-5.37652e-05 -3.27673e-05 0.108021)
(-5.38472e-05 3.26667e-05 0.108018)
(-0.000103847 -5.57126e-05 0.107849)
(-0.000103787 5.57647e-05 0.107846)
(5.38105e-05 3.25311e-05 0.108019)
(0.000104024 -5.56552e-05 0.10785)
(0.000103799 5.5616e-05 0.107847)
(-1.07209e-05 1.04898e-05 0.104612)
(-0.00011709 0.000117235 0.104611)
(3.27491e-05 5.36473e-05 0.10802)
(-5.55329e-05 0.000103886 0.107849)
(5.56315e-05 0.000103902 0.107848)
(0.00011708 0.000117162 0.104611)
(-5.03355e-05 -5.02124e-05 0.104475)
(-0.000106299 -0.000106244 0.104542)
(-5.90709e-05 -0.000115062 0.107794)
(5.92761e-05 -0.000115027 0.107794)
(-6.0053e-05 -0.000117797 0.107688)
(6.00446e-05 -0.000117855 0.107687)
(5.03595e-05 -5.02083e-05 0.104475)
(0.000106231 -0.000106311 0.104543)
(-0.000115153 -5.91252e-05 0.107796)
(-0.000115058 5.91874e-05 0.107793)
(-0.000117936 -6.00097e-05 0.107689)
(-0.000117769 6.00644e-05 0.107687)
(0.000115053 5.90795e-05 0.107794)
(0.000117926 -5.99988e-05 0.10769)
(0.000117851 6.01007e-05 0.107687)
(-5.01445e-05 5.0301e-05 0.104474)
(-0.000106229 0.000106283 0.104542)
(5.90483e-05 0.000115229 0.107795)
(-5.99599e-05 0.000117957 0.107689)
(6.00337e-05 0.000117944 0.107689)
(0.000106243 0.000106272 0.104541)
(-3.72429e-05 -3.71922e-05 0.104435)
(-7.48518e-05 -7.48616e-05 0.104573)
(-5.69642e-05 -0.000109697 0.107669)
(5.69159e-05 -0.000109764 0.107669)
(-4.16914e-05 -7.52325e-05 0.107653)
(4.16465e-05 -7.52626e-05 0.107653)
(3.71503e-05 -3.72716e-05 0.104435)
(7.48371e-05 -7.49e-05 0.104573)
(-0.000109822 -5.69347e-05 0.107671)
(-0.000109665 5.69589e-05 0.107668)
(-7.52841e-05 -4.17241e-05 0.107655)
(-7.52518e-05 4.16934e-05 0.107652)
(0.00010977 5.70148e-05 0.107669)
(7.5235e-05 -4.172e-05 0.107655)
(7.52744e-05 4.17172e-05 0.107653)
(-3.71994e-05 3.72131e-05 0.104435)
(-7.49264e-05 7.48645e-05 0.104572)
(5.69766e-05 0.00010981 0.10767)
(-4.17788e-05 7.52867e-05 0.107654)
(4.17451e-05 7.52686e-05 0.107654)
(7.49059e-05 7.48731e-05 0.104572)
(-5.28076e-06 -5.31784e-06 0.10448)
(-4.9246e-05 -4.92889e-05 0.104636)
(-3.58073e-05 -6.32395e-05 0.107657)
(3.57717e-05 -6.32447e-05 0.107657)
(-1.92213e-05 -3.19359e-05 0.107684)
(1.91938e-05 -3.18786e-05 0.107683)
(5.28116e-06 -5.35808e-06 0.10448)
(4.92525e-05 -4.92482e-05 0.104636)
(-6.3257e-05 -3.58441e-05 0.107659)
(-6.32602e-05 3.58003e-05 0.107656)
(-3.18967e-05 -1.92825e-05 0.107685)
(-3.19197e-05 1.91896e-05 0.107682)
(6.32549e-05 3.581e-05 0.107657)
(3.19179e-05 -1.92579e-05 0.107686)
(3.18838e-05 1.91724e-05 0.107683)
(-5.39243e-06 5.26764e-06 0.104479)
(-4.92751e-05 4.9221e-05 0.104636)
(3.58491e-05 6.32496e-05 0.107658)
(-1.92625e-05 3.18841e-05 0.107685)
(1.9233e-05 3.18959e-05 0.107684)
(4.92345e-05 4.922e-05 0.104635)
(1.9453e-05 1.93979e-05 0.104544)
(-3.66394e-05 -3.66409e-05 0.104682)
(-1.47022e-05 -2.38231e-05 0.107694)
(1.4682e-05 -2.37735e-05 0.107693)
(-4.84346e-06 -7.03222e-06 0.10772)
(4.87238e-06 -6.99654e-06 0.107719)
(-1.94448e-05 1.94311e-05 0.104543)
(3.66735e-05 -3.66321e-05 0.104682)
(-2.37951e-05 -1.4759e-05 0.107695)
(-2.38153e-05 1.46728e-05 0.107693)
(-7.01425e-06 -4.875e-06 0.107721)
(-7.03058e-06 4.86665e-06 0.107718)
(2.37767e-05 1.46519e-05 0.107693)
(7.05317e-06 -4.88049e-06 0.107722)
(7.00925e-06 4.8418e-06 0.107719)
(1.94069e-05 -1.94918e-05 0.104543)
(-3.66431e-05 3.66523e-05 0.104681)
(1.47104e-05 2.37907e-05 0.107695)
(-4.87868e-06 7.01559e-06 0.107721)
(4.87588e-06 7.01813e-06 0.10772)
(3.66307e-05 3.66324e-05 0.104681)
(3.10156e-05 3.10061e-05 0.104585)
(-3.3049e-05 -3.30305e-05 0.104697)
(-2.65281e-06 -3.6654e-06 0.107726)
(2.69132e-06 -3.64583e-06 0.107725)
(1.06812e-06 1.47287e-06 0.107737)
(-1.02401e-06 1.46571e-06 0.107736)
(-3.09851e-05 3.09972e-05 0.104585)
(3.30755e-05 -3.3054e-05 0.104698)
(-3.66615e-06 -2.67435e-06 0.107727)
(-3.67097e-06 2.68833e-06 0.107725)
(1.44025e-06 1.04982e-06 0.107738)
(1.47236e-06 -1.02166e-06 0.107735)
(3.65861e-06 2.66646e-06 0.107725)
(-1.4198e-06 1.03116e-06 0.107738)
(-1.45707e-06 -1.02379e-06 0.107736)
(3.09924e-05 -3.10174e-05 0.104584)
(-3.30363e-05 3.3083e-05 0.104697)
(2.691e-06 3.67558e-06 0.107726)
(1.03652e-06 -1.41245e-06 0.107737)
(-1.01887e-06 -1.42013e-06 0.107737)
(3.30445e-05 3.30662e-05 0.104697)
(3.39299e-05 3.39311e-05 0.104597)
(-3.37066e-05 -3.36956e-05 0.104695)
(1.51652e-06 2.01355e-06 0.107738)
(-1.48413e-06 1.99738e-06 0.107737)
(1.53447e-06 1.4369e-06 0.107737)
(-1.56463e-06 1.43353e-06 0.107736)
(-3.39086e-05 3.38988e-05 0.104597)
(3.36875e-05 -3.3694e-05 0.104696)
(1.97403e-06 1.49805e-06 0.107739)
(2.01106e-06 -1.48357e-06 0.107736)
(1.40554e-06 1.51422e-06 0.107738)
(1.4479e-06 -1.5668e-06 0.107736)
(-1.98901e-06 -1.48158e-06 0.107737)
(-1.41252e-06 1.53684e-06 0.107739)
(-1.43097e-06 -1.54322e-06 0.107736)
(3.39176e-05 -3.39177e-05 0.104596)
(-3.36789e-05 3.36907e-05 0.104695)
(-1.4737e-06 -1.95203e-06 0.107738)
(1.53615e-06 -1.40394e-06 0.107738)
(-1.52396e-06 -1.40469e-06 0.107738)
(3.36866e-05 3.36916e-05 0.104695)
(3.30395e-05 3.3033e-05 0.104594)
(-3.45023e-05 -3.44967e-05 0.104692)
(1.28077e-06 9.65178e-07 0.107736)
(-1.32914e-06 9.6561e-07 0.107736)
(5.8101e-07 -1.57851e-07 0.107734)
(-6.14112e-07 -1.43773e-07 0.107733)
(-3.30663e-05 3.30292e-05 0.104594)
(3.44862e-05 -3.44874e-05 0.104692)
(9.34646e-07 1.2587e-06 0.107737)
(9.7621e-07 -1.32718e-06 0.107735)
(-1.78391e-07 5.57651e-07 0.107735)
(-1.43825e-07 -6.16196e-07 0.107732)
(-9.61499e-07 -1.30135e-06 0.107735)
(1.62997e-07 5.78194e-07 0.107735)
(1.38444e-07 -5.97942e-07 0.107733)
(3.30441e-05 -3.30793e-05 0.104594)
(-3.44809e-05 3.44851e-05 0.104692)
(-1.28178e-06 -9.37781e-07 0.107737)
(5.73237e-07 1.65028e-07 0.107734)
(-5.77693e-07 1.63475e-07 0.107734)
(3.44786e-05 3.44865e-05 0.104691)
(3.2313e-05 3.23032e-05 0.104591)
(-3.44756e-05 -3.44685e-05 0.104692)
(4.63028e-07 -3.28899e-07 0.107733)
(-4.81482e-07 -3.17853e-07 0.107732)
(3.17446e-07 -3.68662e-07 0.107732)
(-2.91106e-07 -3.60714e-07 0.107732)
(-3.23223e-05 3.2296e-05 0.104591)
(3.44965e-05 -3.44786e-05 0.104692)
(-3.53277e-07 4.36709e-07 0.107734)
(-3.20682e-07 -4.74947e-07 0.107732)
(-3.88588e-07 2.96597e-07 0.107734)
(-3.66047e-07 -2.89155e-07 0.107731)
(3.17977e-07 -4.66946e-07 0.107732)
(4.00234e-07 2.80331e-07 0.107734)
(3.68642e-07 -2.99528e-07 0.107732)
(3.23039e-05 -3.23391e-05 0.104591)
(-3.44814e-05 3.44964e-05 0.104691)
(-4.49288e-07 3.45344e-07 0.107733)
(2.70192e-07 4.01414e-07 0.107733)
(-2.78468e-07 3.9938e-07 0.107733)
(3.44749e-05 3.44799e-05 0.104691)
(3.23701e-05 3.23602e-05 0.104591)
(-3.42429e-05 -3.42393e-05 0.104693)
(3.37275e-07 -2.84683e-07 0.107732)
(-3.08684e-07 -2.81728e-07 0.107732)
(4.77775e-07 1.79228e-08 0.107733)
(-4.63692e-07 2.91684e-08 0.107732)
(-3.23482e-05 3.23385e-05 0.104591)
(3.42491e-05 -3.42343e-05 0.104693)
(-3.07517e-07 3.12028e-07 0.107734)
(-2.87453e-07 -3.04839e-07 0.107731)
(2.76997e-09 4.51349e-07 0.107734)
(2.64316e-08 -4.72361e-07 0.107731)
(2.87341e-07 -3.16389e-07 0.107732)
(1.05302e-08 4.50021e-07 0.107735)
(-1.91928e-08 -4.71508e-07 0.107732)
(3.23391e-05 -3.23674e-05 0.104591)
(-3.42291e-05 3.42403e-05 0.104692)
(-2.95664e-07 3.17559e-07 0.107733)
(4.5355e-07 7.28997e-09 0.107734)
(-4.46732e-07 4.18143e-09 0.107733)
(3.42325e-05 3.42333e-05 0.104692)
(3.26154e-05 3.26028e-05 0.104592)
(-3.40691e-05 -3.40617e-05 0.104693)
(5.30878e-07 1.13281e-07 0.107733)
(-5.26161e-07 1.21348e-07 0.107732)
(6.77356e-07 2.84751e-07 0.107733)
(-6.96244e-07 2.97924e-07 0.107733)
(-3.26139e-05 3.25986e-05 0.104592)
(3.4062e-05 -3.40583e-05 0.104693)
(9.46697e-08 5.01387e-07 0.107734)
(1.19556e-07 -5.35367e-07 0.107732)
(2.67432e-07 6.53283e-07 0.107734)
(2.96843e-07 -6.98983e-07 0.107732)
(-1.14998e-07 -5.29879e-07 0.107732)
(-2.66097e-07 6.67272e-07 0.107735)
(-2.94898e-07 -6.85757e-07 0.107732)
(3.26081e-05 -3.26401e-05 0.104592)
(-3.40505e-05 3.40631e-05 0.104693)
(-5.0434e-07 -9.22157e-08 0.107733)
(6.65224e-07 -2.62661e-07 0.107734)
(-6.65209e-07 -2.70574e-07 0.107734)
(3.4051e-05 3.40607e-05 0.104692)
(3.27852e-05 3.27783e-05 0.104593)
(-3.4081e-05 -3.40657e-05 0.104693)
(7.23476e-07 3.2286e-07 0.107733)
(-7.39568e-07 3.30688e-07 0.107733)
(6.91304e-07 3.46928e-07 0.107733)
(-6.90876e-07 3.60822e-07 0.107733)
(-3.27911e-05 3.27685e-05 0.104593)
(3.40866e-05 -3.407e-05 0.104693)
(2.99733e-07 7.03373e-07 0.107734)
(3.30081e-07 -7.38695e-07 0.107732)
(3.21494e-07 6.78831e-07 0.107734)
(3.48641e-07 -6.6516e-07 0.107732)
(-3.31195e-07 -7.27474e-07 0.107733)
(-3.20924e-07 6.76723e-07 0.107735)
(-3.60693e-07 -6.72478e-07 0.107732)
(3.27766e-05 -3.28056e-05 0.104592)
(-3.40788e-05 3.41071e-05 0.104693)
(-7.11361e-07 -3.01889e-07 0.107734)
(6.6077e-07 -3.00975e-07 0.107734)
(-6.74471e-07 -3.21678e-07 0.107734)
(3.40603e-05 3.40895e-05 0.104692)
(3.27597e-05 3.27579e-05 0.104592)
(-3.39726e-05 -3.3973e-05 0.104693)
(6.99362e-07 3.58303e-07 0.107733)
(-6.95026e-07 3.69385e-07 0.107733)
(8.01662e-07 3.94132e-07 0.107733)
(-8.01424e-07 4.16532e-07 0.107733)
(-3.27548e-05 3.27429e-05 0.104592)
(3.39749e-05 -3.39675e-05 0.104694)
(3.29854e-07 6.84992e-07 0.107735)
(3.55856e-07 -6.71563e-07 0.107732)
(3.81696e-07 7.70262e-07 0.107734)
(4.14078e-07 -8.21171e-07 0.107732)
(-3.68485e-07 -6.73521e-07 0.107733)
(-3.78373e-07 7.8367e-07 0.107735)
(-4.11154e-07 -7.97559e-07 0.107733)
(3.27351e-05 -3.27506e-05 0.104592)
(-3.39411e-05 3.39614e-05 0.104693)
(-6.76786e-07 -3.25999e-07 0.107734)
(8.06817e-07 -3.69699e-07 0.107734)
(-7.77428e-07 -3.87238e-07 0.107734)
(3.39626e-05 3.39734e-05 0.104693)
(3.28583e-05 3.28405e-05 0.104593)
(-3.40475e-05 -3.40397e-05 0.104693)
(7.70743e-07 3.87708e-07 0.107733)
(-7.72194e-07 4.06033e-07 0.107733)
(7.5554e-07 3.6784e-07 0.107733)
(-7.41109e-07 3.81707e-07 0.107733)
(-3.28584e-05 3.28374e-05 0.104593)
(3.40615e-05 -3.4054e-05 0.104694)
(3.76097e-07 7.34242e-07 0.107735)
(4.10188e-07 -8.04043e-07 0.107732)
(3.51897e-07 7.27117e-07 0.107735)
(3.77317e-07 -7.41091e-07 0.107732)
(-4.01496e-07 -7.744e-07 0.107733)
(-3.42274e-07 7.15997e-07 0.107735)
(-3.77323e-07 -7.38436e-07 0.107733)
(3.2869e-05 -3.28946e-05 0.104592)
(-3.40528e-05 3.4061e-05 0.104693)
(-7.43672e-07 -3.81654e-07 0.107734)
(7.20533e-07 -3.46702e-07 0.107734)
(-7.19957e-07 -3.63025e-07 0.107734)
(3.4045e-05 3.40566e-05 0.104693)
(3.2814e-05 3.28108e-05 0.104593)
(-3.40694e-05 -3.40402e-05 0.104693)
(7.75484e-07 3.79447e-07 0.107733)
(-7.56691e-07 3.84555e-07 0.107733)
(7.1324e-07 3.71746e-07 0.107733)
(-7.1901e-07 3.7235e-07 0.107733)
(-3.28005e-05 3.27815e-05 0.104593)
(3.40703e-05 -3.40595e-05 0.104694)
(3.51653e-07 7.6103e-07 0.107735)
(3.74527e-07 -7.41994e-07 0.107732)
(3.34304e-07 7.17991e-07 0.107734)
(3.51976e-07 -6.89908e-07 0.107732)
(-3.82589e-07 -7.52579e-07 0.107733)
(-3.36315e-07 7.02515e-07 0.107735)
(-3.76331e-07 -6.9757e-07 0.107733)
(3.27753e-05 -3.28108e-05 0.104592)
(-3.40789e-05 3.4086e-05 0.104693)
(-7.41444e-07 -3.57677e-07 0.107734)
(6.69362e-07 -3.2326e-07 0.107734)
(-7.055e-07 -3.36866e-07 0.107734)
(3.40468e-05 3.40753e-05 0.104693)
(3.27499e-05 3.27595e-05 0.104592)
(-3.40678e-05 -3.40783e-05 0.104693)
(6.88229e-07 3.55203e-07 0.107733)
(-7.13887e-07 3.54336e-07 0.107733)
(7.35963e-07 3.17128e-07 0.107733)
(-7.68801e-07 3.36166e-07 0.107733)
(-3.27551e-05 3.2734e-05 0.104593)
(3.40417e-05 -3.40576e-05 0.104694)
(3.16485e-07 6.87426e-07 0.107735)
(3.3724e-07 -6.9787e-07 0.107732)
(3.08812e-07 6.89016e-07 0.107735)
(3.33607e-07 -7.82252e-07 0.107732)
(-3.59475e-07 -6.88302e-07 0.107733)
(-3.18697e-07 7.11456e-07 0.107735)
(-3.42502e-07 -7.53058e-07 0.107733)
(3.27243e-05 -3.27614e-05 0.104592)
(-3.40344e-05 3.40351e-05 0.104693)
(-6.90597e-07 -3.19631e-07 0.107734)
(7.3926e-07 -3.091e-07 0.107734)
(-7.27435e-07 -3.22957e-07 0.107734)
(3.40395e-05 3.40428e-05 0.104693)
(3.27649e-05 3.2737e-05 0.104593)
(-3.40546e-05 -3.40542e-05 0.104693)
(7.04215e-07 3.01068e-07 0.107733)
(-7.2532e-07 3.2057e-07 0.107733)
(7.57315e-07 3.28045e-07 0.107733)
(-7.45752e-07 3.53435e-07 0.107732)
(-3.27817e-05 3.27423e-05 0.104593)
(3.40669e-05 -3.40617e-05 0.104693)
(2.99283e-07 6.57104e-07 0.107735)
(3.23405e-07 -7.49414e-07 0.107732)
(3.26034e-07 7.17759e-07 0.107734)
(3.49339e-07 -7.46216e-07 0.107732)
(-3.30793e-07 -7.29831e-07 0.107733)
(-3.21593e-07 7.12535e-07 0.107735)
(-3.46964e-07 -7.31931e-07 0.107732)
(3.27669e-05 -3.28078e-05 0.104592)
(-3.4053e-05 3.40683e-05 0.104693)
(-6.96176e-07 -3.16421e-07 0.107734)
(7.19383e-07 -3.16215e-07 0.107734)
(-7.06611e-07 -3.39597e-07 0.107734)
(3.40567e-05 3.40617e-05 0.104692)
(3.2793e-05 3.27827e-05 0.104593)
(-3.40306e-05 -3.40022e-05 0.104693)
(7.80996e-07 3.54411e-07 0.107733)
(-7.63848e-07 3.76255e-07 0.107733)
(7.26061e-07 3.97636e-07 0.107733)
(-6.98133e-07 4.23044e-07 0.107732)
(-3.27807e-05 3.27656e-05 0.104592)
(3.40429e-05 -3.39917e-05 0.104693)
(3.38336e-07 7.54131e-07 0.107734)
(3.6935e-07 -7.59791e-07 0.107732)
(3.60054e-07 7.30324e-07 0.107734)
(4.0494e-07 -7.08496e-07 0.107732)
(-3.64269e-07 -7.58369e-07 0.107732)
(-3.43232e-07 7.36545e-07 0.107735)
(-3.94298e-07 -7.16684e-07 0.107732)
(3.27684e-05 -3.27905e-05 0.104592)
(-3.39921e-05 3.40267e-05 0.104692)
(-7.41046e-07 -3.54666e-07 0.107734)
(7.19361e-07 -3.49347e-07 0.107734)
(-6.98786e-07 -3.75595e-07 0.107734)
(3.40033e-05 3.40145e-05 0.104692)
(3.28272e-05 3.2838e-05 0.104592)
(-3.39664e-05 -3.39673e-05 0.104693)
(7.54571e-07 4.2227e-07 0.107733)
(-7.3138e-07 4.41802e-07 0.107732)
(8.2001e-07 4.42221e-07 0.107733)
(-8.2382e-07 4.47102e-07 0.107733)
(-3.28162e-05 3.28365e-05 0.104592)
(3.39683e-05 -3.39845e-05 0.104694)
(3.81406e-07 7.56198e-07 0.107734)
(4.24858e-07 -7.4196e-07 0.107732)
(4.25697e-07 7.91834e-07 0.107734)
(4.38465e-07 -8.23459e-07 0.107732)
(-4.1377e-07 -7.45429e-07 0.107732)
(-4.157e-07 7.77722e-07 0.107735)
(-4.49467e-07 -8.05418e-07 0.107733)
(3.284e-05 -3.28517e-05 0.104592)
(-3.39795e-05 3.39673e-05 0.104693)
(-7.35171e-07 -3.93858e-07 0.107734)
(7.85754e-07 -4.16375e-07 0.107734)
(-7.92378e-07 -4.2062e-07 0.107734)
(3.39641e-05 3.3982e-05 0.104693)
(3.28736e-05 3.28533e-05 0.104593)
(-3.39938e-05 -3.3994e-05 0.104693)
(7.90942e-07 4.20292e-07 0.107733)
(-8.05377e-07 4.15584e-07 0.107733)
(8.03277e-07 4.1781e-07 0.107733)
(-8.21294e-07 4.20041e-07 0.107733)
(-3.28733e-05 3.28207e-05 0.104593)
(3.39841e-05 -3.40023e-05 0.104694)
(4.08536e-07 7.53021e-07 0.107735)
(4.11226e-07 -7.97203e-07 0.107732)
(4.11944e-07 7.64411e-07 0.107735)
(4.18164e-07 -7.98316e-07 0.107732)
(-4.32095e-07 -7.77736e-07 0.107733)
(-4.23412e-07 7.491e-07 0.107735)