/*--------------------------------*- C++ -*----------------------------------*\
| =========                 |                                                 |
| \\      /  F ield         | OpenFOAM: The Open Source CFD Toolbox           |
|  \\    /   O peration     | Version:  v2012                                 |
|   \\  /    A nd           | Website:  www.openfoam.com                      |
|    \\/     M anipulation  |                                                 |
\*---------------------------------------------------------------------------*/
FoamFile
{
    version     2.0;
    format      ascii;
    class       volScalarField;
    location    "10.5";
    object      p;
}
// * * * * * * * * * * * * * * * * * * * * * * * * * * * * * * * * * * * * * //

dimensions      [0 2 -2 0 0 0 0];


internalField   nonuniform List<scalar> 
247104
(
1.53193e-06
1.53214e-06
1.53206e-06
1.53192e-06
1.53185e-06
1.53194e-06
1.53207e-06
1.53212e-06
1.53214e-06
1.53212e-06
1.53186e-06
1.53157e-06
1.53146e-06
1.5316e-06
1.5319e-06
1.53213e-06
1.53206e-06
1.53186e-06
1.53141e-06
1.53103e-06
1.5309e-06
1.53107e-06
1.53147e-06
1.53191e-06
1.53206e-06
1.53192e-06
1.53157e-06
1.53103e-06
1.53062e-06
1.53047e-06
1.53066e-06
1.5311e-06
1.53163e-06
1.53193e-06
1.53193e-06
1.53185e-06
1.53146e-06
1.5309e-06
1.53047e-06
1.53033e-06
1.53052e-06
1.53097e-06
1.53153e-06
1.53187e-06
1.53194e-06
1.5316e-06
1.53107e-06
1.53066e-06
1.53052e-06
1.53069e-06
1.53114e-06
1.53166e-06
1.53195e-06
1.53207e-06
1.5319e-06
1.53147e-06
1.5311e-06
1.53097e-06
1.53114e-06
1.53153e-06
1.53194e-06
1.53206e-06
1.53212e-06
1.53213e-06
1.53191e-06
1.53163e-06
1.53153e-06
1.53166e-06
1.53194e-06
1.53214e-06
1.53206e-06
1.53193e-06
1.53187e-06
1.53195e-06
1.53207e-06
1.50777e-06
1.50737e-06
1.50702e-06
1.50551e-06
1.50543e-06
1.50544e-06
1.50543e-06
1.50687e-06
1.50708e-06
1.50702e-06
1.50515e-06
1.50261e-06
1.50261e-06
1.50261e-06
1.50261e-06
1.50508e-06
1.50561e-06
1.50551e-06
1.50261e-06
1.5026e-06
1.50263e-06
1.50263e-06
1.5026e-06
1.50261e-06
1.50545e-06
1.50716e-06
1.50777e-06
1.50544e-06
1.50261e-06
1.50263e-06
1.50268e-06
1.50268e-06
1.50263e-06
1.50261e-06
1.50536e-06
1.50692e-06
1.50737e-06
1.50544e-06
1.50261e-06
1.50263e-06
1.50268e-06
1.50268e-06
1.50263e-06
1.50261e-06
1.50531e-06
1.50572e-06
1.50543e-06
1.50261e-06
1.5026e-06
1.50263e-06
1.50263e-06
1.5026e-06
1.50261e-06
1.5054e-06
1.50702e-06
1.50687e-06
1.50508e-06
1.50261e-06
1.50261e-06
1.50261e-06
1.50261e-06
1.5049e-06
1.50554e-06
1.50717e-06
1.50708e-06
1.50561e-06
1.50545e-06
1.50536e-06
1.50531e-06
1.5054e-06
1.50554e-06
1.50684e-06
1.50716e-06
1.50692e-06
1.50572e-06
1.50702e-06
1.50717e-06
1.49153e-06
1.49139e-06
1.49132e-06
1.48972e-06
1.48963e-06
1.48961e-06
1.48967e-06
1.49119e-06
1.4914e-06
1.49132e-06
1.48932e-06
1.48658e-06
1.48658e-06
1.48658e-06
1.48658e-06
1.48928e-06
1.48988e-06
1.48972e-06
1.48658e-06
1.48657e-06
1.48657e-06
1.48657e-06
1.48657e-06
1.48658e-06
1.48969e-06
1.4914e-06
1.49153e-06
1.48963e-06
1.48658e-06
1.48657e-06
1.48657e-06
1.48657e-06
1.48657e-06
1.48658e-06
1.4896e-06
1.49116e-06
1.49139e-06
1.48961e-06
1.48658e-06
1.48657e-06
1.48657e-06
1.48657e-06
1.48657e-06
1.48658e-06
1.48956e-06
1.48997e-06
1.48967e-06
1.48658e-06
1.48657e-06
1.48657e-06
1.48657e-06
1.48657e-06
1.48658e-06
1.48964e-06
1.49131e-06
1.49119e-06
1.48928e-06
1.48658e-06
1.48658e-06
1.48658e-06
1.48658e-06
1.48915e-06
1.4898e-06
1.49146e-06
1.4914e-06
1.48988e-06
1.48968e-06
1.4896e-06
1.48956e-06
1.48964e-06
1.4898e-06
1.49118e-06
1.4914e-06
1.49116e-06
1.48997e-06
1.49131e-06
1.49146e-06
1.47558e-06
1.47544e-06
1.47536e-06
1.47375e-06
1.47366e-06
1.47363e-06
1.4737e-06
1.47524e-06
1.47544e-06
1.47536e-06
1.47333e-06
1.47058e-06
1.47058e-06
1.47058e-06
1.47058e-06
1.4733e-06
1.47392e-06
1.47375e-06
1.47058e-06
1.47057e-06
1.47057e-06
1.47057e-06
1.47057e-06
1.47058e-06
1.47373e-06
1.47544e-06
1.47558e-06
1.47366e-06
1.47058e-06
1.47057e-06
1.47058e-06
1.47058e-06
1.47057e-06
1.47058e-06
1.47365e-06
1.47521e-06
1.47544e-06
1.47363e-06
1.47058e-06
1.47057e-06
1.47057e-06
1.47057e-06
1.47057e-06
1.47058e-06
1.47362e-06
1.47402e-06
1.4737e-06
1.47058e-06
1.47057e-06
1.47057e-06
1.47057e-06
1.47057e-06
1.47058e-06
1.47369e-06
1.47536e-06
1.47524e-06
1.4733e-06
1.47058e-06
1.47058e-06
1.47058e-06
1.47058e-06
1.47322e-06
1.47385e-06
1.47551e-06
1.47544e-06
1.47392e-06
1.47373e-06
1.47365e-06
1.47362e-06
1.47369e-06
1.47385e-06
1.47524e-06
1.47544e-06
1.47521e-06
1.47402e-06
1.47536e-06
1.47551e-06
1.4596e-06
1.45946e-06
1.45938e-06
1.45776e-06
1.45767e-06
1.45764e-06
1.45772e-06
1.45925e-06
1.45946e-06
1.45938e-06
1.45734e-06
1.45458e-06
1.45458e-06
1.45458e-06
1.45458e-06
1.45731e-06
1.45793e-06
1.45776e-06
1.45458e-06
1.45458e-06
1.45458e-06
1.45458e-06
1.45458e-06
1.45458e-06
1.45775e-06
1.45946e-06
1.4596e-06
1.45767e-06
1.45458e-06
1.45458e-06
1.45458e-06
1.45458e-06
1.45458e-06
1.45458e-06
1.45768e-06
1.45923e-06
1.45946e-06
1.45764e-06
1.45458e-06
1.45458e-06
1.45458e-06
1.45458e-06
1.45458e-06
1.45458e-06
1.45764e-06
1.45805e-06
1.45772e-06
1.45458e-06
1.45458e-06
1.45458e-06
1.45458e-06
1.45458e-06
1.45458e-06
1.45771e-06
1.45938e-06
1.45925e-06
1.45731e-06
1.45458e-06
1.45458e-06
1.45458e-06
1.45458e-06
1.45724e-06
1.45787e-06
1.45953e-06
1.45946e-06
1.45793e-06
1.45775e-06
1.45768e-06
1.45765e-06
1.45771e-06
1.45787e-06
1.45926e-06
1.45946e-06
1.45923e-06
1.45805e-06
1.45938e-06
1.45953e-06
1.44362e-06
1.44347e-06
1.44339e-06
1.44177e-06
1.44169e-06
1.44166e-06
1.44173e-06
1.44327e-06
1.44347e-06
1.44339e-06
1.44135e-06
1.4386e-06
1.4386e-06
1.4386e-06
1.4386e-06
1.44132e-06
1.44195e-06
1.44177e-06
1.4386e-06
1.43859e-06
1.4386e-06
1.43859e-06
1.43859e-06
1.43859e-06
1.44176e-06
1.44348e-06
1.44362e-06
1.44169e-06
1.4386e-06
1.4386e-06
1.4386e-06
1.4386e-06
1.4386e-06
1.4386e-06
1.44169e-06
1.44325e-06
1.44347e-06
1.44166e-06
1.4386e-06
1.4386e-06
1.4386e-06
1.4386e-06
1.4386e-06
1.4386e-06
1.44166e-06
1.44206e-06
1.44173e-06
1.4386e-06
1.43859e-06
1.4386e-06
1.4386e-06
1.43859e-06
1.4386e-06
1.44172e-06
1.44339e-06
1.44327e-06
1.44132e-06
1.43859e-06
1.4386e-06
1.4386e-06
1.4386e-06
1.44126e-06
1.44189e-06
1.44354e-06
1.44347e-06
1.44195e-06
1.44176e-06
1.44169e-06
1.44166e-06
1.44172e-06
1.44189e-06
1.44327e-06
1.44348e-06
1.44325e-06
1.44206e-06
1.44339e-06
1.44354e-06
1.42763e-06
1.42749e-06
1.4274e-06
1.42579e-06
1.4257e-06
1.42567e-06
1.42574e-06
1.42728e-06
1.42749e-06
1.4274e-06
1.42536e-06
1.42261e-06
1.42261e-06
1.42261e-06
1.42261e-06
1.42533e-06
1.42596e-06
1.42579e-06
1.42261e-06
1.42261e-06
1.42261e-06
1.42261e-06
1.42261e-06
1.42261e-06
1.42577e-06
1.42749e-06
1.42763e-06
1.4257e-06
1.42261e-06
1.42261e-06
1.42261e-06
1.42261e-06
1.42261e-06
1.42261e-06
1.4257e-06
1.42726e-06
1.42749e-06
1.42567e-06
1.42261e-06
1.42261e-06
1.42261e-06
1.42261e-06
1.42261e-06
1.42261e-06
1.42567e-06
1.42607e-06
1.42574e-06
1.42261e-06
1.42261e-06
1.42261e-06
1.42261e-06
1.42261e-06
1.42261e-06
1.42574e-06
1.42741e-06
1.42728e-06
1.42533e-06
1.42261e-06
1.42261e-06
1.42261e-06
1.42261e-06
1.42527e-06
1.4259e-06
1.42756e-06
1.42749e-06
1.42596e-06
1.42577e-06
1.4257e-06
1.42567e-06
1.42574e-06
1.4259e-06
1.42729e-06
1.42749e-06
1.42726e-06
1.42607e-06
1.42741e-06
1.42756e-06
1.41164e-06
1.4115e-06
1.41142e-06
1.4098e-06
1.40971e-06
1.40968e-06
1.40976e-06
1.41129e-06
1.4115e-06
1.41142e-06
1.40938e-06
1.40662e-06
1.40662e-06
1.40662e-06
1.40662e-06
1.40934e-06
1.40997e-06
1.4098e-06
1.40662e-06
1.40662e-06
1.40662e-06
1.40662e-06
1.40662e-06
1.40662e-06
1.40979e-06
1.4115e-06
1.41164e-06
1.40971e-06
1.40662e-06
1.40662e-06
1.40662e-06
1.40662e-06
1.40662e-06
1.40662e-06
1.40972e-06
1.41127e-06
1.4115e-06
1.40968e-06
1.40662e-06
1.40662e-06
1.40662e-06
1.40662e-06
1.40662e-06
1.40662e-06
1.40969e-06
1.41009e-06
1.40976e-06
1.40662e-06
1.40662e-06
1.40662e-06
1.40662e-06
1.40662e-06
1.40662e-06
1.40975e-06
1.41142e-06
1.41129e-06
1.40934e-06
1.40662e-06
1.40662e-06
1.40662e-06
1.40662e-06
1.40928e-06
1.40991e-06
1.41157e-06
1.4115e-06
1.40997e-06
1.40979e-06
1.40972e-06
1.40969e-06
1.40975e-06
1.40991e-06
1.4113e-06
1.4115e-06
1.41127e-06
1.41009e-06
1.41142e-06
1.41157e-06
1.39566e-06
1.39551e-06
1.39543e-06
1.39381e-06
1.39372e-06
1.39369e-06
1.39377e-06
1.39531e-06
1.39551e-06
1.39543e-06
1.39339e-06
1.39063e-06
1.39063e-06
1.39063e-06
1.39063e-06
1.39336e-06
1.39399e-06
1.39381e-06
1.39063e-06
1.39063e-06
1.39063e-06
1.39063e-06
1.39063e-06
1.39063e-06
1.3938e-06
1.39551e-06
1.39566e-06
1.39372e-06
1.39063e-06
1.39063e-06
1.39063e-06
1.39063e-06
1.39063e-06
1.39063e-06
1.39373e-06
1.39528e-06
1.39551e-06
1.39369e-06
1.39063e-06
1.39063e-06
1.39063e-06
1.39063e-06
1.39063e-06
1.39063e-06
1.3937e-06
1.3941e-06
1.39377e-06
1.39063e-06
1.39063e-06
1.39063e-06
1.39063e-06
1.39063e-06
1.39063e-06
1.39376e-06
1.39543e-06
1.39531e-06
1.39335e-06
1.39063e-06
1.39063e-06
1.39063e-06
1.39063e-06
1.39329e-06
1.39392e-06
1.39558e-06
1.39551e-06
1.39399e-06
1.3938e-06
1.39373e-06
1.3937e-06
1.39376e-06
1.39392e-06
1.39531e-06
1.39551e-06
1.39528e-06
1.3941e-06
1.39543e-06
1.39558e-06
1.37967e-06
1.37953e-06
1.37944e-06
1.37782e-06
1.37774e-06
1.37771e-06
1.37778e-06
1.37932e-06
1.37953e-06
1.37944e-06
1.3774e-06
1.37465e-06
1.37465e-06
1.37465e-06
1.37465e-06
1.37737e-06
1.378e-06
1.37782e-06
1.37465e-06
1.37465e-06
1.37465e-06
1.37465e-06
1.37465e-06
1.37465e-06
1.37781e-06
1.37953e-06
1.37967e-06
1.37774e-06
1.37465e-06
1.37465e-06
1.37465e-06
1.37465e-06
1.37465e-06
1.37465e-06
1.37774e-06
1.3793e-06
1.37953e-06
1.37771e-06
1.37465e-06
1.37465e-06
1.37465e-06
1.37465e-06
1.37465e-06
1.37465e-06
1.37771e-06
1.37811e-06
1.37778e-06
1.37465e-06
1.37465e-06
1.37465e-06
1.37465e-06
1.37465e-06
1.37465e-06
1.37778e-06
1.37944e-06
1.37932e-06
1.37737e-06
1.37465e-06
1.37465e-06
1.37465e-06
1.37465e-06
1.37731e-06
1.37794e-06
1.37959e-06
1.37953e-06
1.378e-06
1.37781e-06
1.37774e-06
1.37771e-06
1.37778e-06
1.37794e-06
1.37933e-06
1.37953e-06
1.3793e-06
1.37811e-06
1.37944e-06
1.37959e-06
1.36368e-06
1.36354e-06
1.36346e-06
1.36184e-06
1.36175e-06
1.36172e-06
1.3618e-06
1.36333e-06
1.36354e-06
1.36346e-06
1.36142e-06
1.35866e-06
1.35866e-06
1.35866e-06
1.35866e-06
1.36138e-06
1.36201e-06
1.36184e-06
1.35866e-06
1.35866e-06
1.35866e-06
1.35866e-06
1.35866e-06
1.35866e-06
1.36183e-06
1.36354e-06
1.36368e-06
1.36175e-06
1.35866e-06
1.35866e-06
1.35866e-06
1.35866e-06
1.35866e-06
1.35866e-06
1.36176e-06
1.36331e-06
1.36354e-06
1.36172e-06
1.35866e-06
1.35866e-06
1.35866e-06
1.35866e-06
1.35866e-06
1.35866e-06
1.36173e-06
1.36213e-06
1.3618e-06
1.35866e-06
1.35866e-06
1.35866e-06
1.35866e-06
1.35866e-06
1.35866e-06
1.36179e-06
1.36346e-06
1.36333e-06
1.36138e-06
1.35866e-06
1.35866e-06
1.35866e-06
1.35866e-06
1.36132e-06
1.36195e-06
1.36361e-06
1.36354e-06
1.36201e-06
1.36183e-06
1.36176e-06
1.36173e-06
1.36179e-06
1.36195e-06
1.36334e-06
1.36354e-06
1.36331e-06
1.36213e-06
1.36346e-06
1.36361e-06
1.3477e-06
1.34755e-06
1.34747e-06
1.34585e-06
1.34576e-06
1.34573e-06
1.34581e-06
1.34735e-06
1.34755e-06
1.34747e-06
1.34543e-06
1.34267e-06
1.34267e-06
1.34267e-06
1.34267e-06
1.3454e-06
1.34603e-06
1.34585e-06
1.34267e-06
1.34267e-06
1.34267e-06
1.34267e-06
1.34267e-06
1.34267e-06
1.34584e-06
1.34756e-06
1.3477e-06
1.34576e-06
1.34267e-06
1.34267e-06
1.34267e-06
1.34267e-06
1.34267e-06
1.34267e-06
1.34577e-06
1.34733e-06
1.34755e-06
1.34573e-06
1.34267e-06
1.34267e-06
1.34267e-06
1.34267e-06
1.34267e-06
1.34267e-06
1.34574e-06
1.34614e-06
1.34581e-06
1.34267e-06
1.34267e-06
1.34267e-06
1.34267e-06
1.34267e-06
1.34267e-06
1.3458e-06
1.34747e-06
1.34735e-06
1.3454e-06
1.34267e-06
1.34267e-06
1.34267e-06
1.34267e-06
1.34533e-06
1.34597e-06
1.34762e-06
1.34755e-06
1.34603e-06
1.34584e-06
1.34577e-06
1.34574e-06
1.3458e-06
1.34597e-06
1.34735e-06
1.34756e-06
1.34733e-06
1.34614e-06
1.34747e-06
1.34762e-06
1.33171e-06
1.33157e-06
1.33148e-06
1.32987e-06
1.32978e-06
1.32975e-06
1.32982e-06
1.33136e-06
1.33157e-06
1.33148e-06
1.32944e-06
1.32669e-06
1.32669e-06
1.32669e-06
1.32669e-06
1.32941e-06
1.33004e-06
1.32987e-06
1.32669e-06
1.32669e-06
1.32669e-06
1.32669e-06
1.32669e-06
1.32669e-06
1.32985e-06
1.33157e-06
1.33171e-06
1.32978e-06
1.32669e-06
1.32669e-06
1.32669e-06
1.32669e-06
1.32669e-06
1.32669e-06
1.32978e-06
1.33134e-06
1.33157e-06
1.32975e-06
1.32669e-06
1.32669e-06
1.32669e-06
1.32669e-06
1.32669e-06
1.32669e-06
1.32975e-06
1.33015e-06
1.32982e-06
1.32669e-06
1.32669e-06
1.32669e-06
1.32669e-06
1.32669e-06
1.32669e-06
1.32982e-06
1.33149e-06
1.33136e-06
1.32941e-06
1.32669e-06
1.32669e-06
1.32669e-06
1.32669e-06
1.32935e-06
1.32998e-06
1.33164e-06
1.33157e-06
1.33004e-06
1.32985e-06
1.32978e-06
1.32975e-06
1.32982e-06
1.32998e-06
1.33137e-06
1.33157e-06
1.33134e-06
1.33015e-06
1.33149e-06
1.33163e-06
1.31572e-06
1.31558e-06
1.3155e-06
1.31388e-06
1.31379e-06
1.31376e-06
1.31384e-06
1.31537e-06
1.31558e-06
1.3155e-06
1.31346e-06
1.3107e-06
1.3107e-06
1.3107e-06
1.3107e-06
1.31342e-06
1.31405e-06
1.31388e-06
1.3107e-06
1.3107e-06
1.3107e-06
1.3107e-06
1.3107e-06
1.3107e-06
1.31387e-06
1.31558e-06
1.31572e-06
1.31379e-06
1.3107e-06
1.3107e-06
1.3107e-06
1.3107e-06
1.3107e-06
1.3107e-06
1.3138e-06
1.31535e-06
1.31558e-06
1.31376e-06
1.3107e-06
1.3107e-06
1.3107e-06
1.3107e-06
1.3107e-06
1.3107e-06
1.31377e-06
1.31417e-06
1.31384e-06
1.3107e-06
1.3107e-06
1.3107e-06
1.3107e-06
1.3107e-06
1.3107e-06
1.31383e-06
1.3155e-06
1.31537e-06
1.31342e-06
1.3107e-06
1.3107e-06
1.3107e-06
1.3107e-06
1.31336e-06
1.31399e-06
1.31565e-06
1.31558e-06
1.31405e-06
1.31387e-06
1.3138e-06
1.31377e-06
1.31383e-06
1.31399e-06
1.31538e-06
1.31558e-06
1.31535e-06
1.31417e-06
1.3155e-06
1.31565e-06
1.29974e-06
1.29959e-06
1.29951e-06
1.29789e-06
1.29781e-06
1.29777e-06
1.29785e-06
1.29939e-06
1.29959e-06
1.29951e-06
1.29747e-06
1.29471e-06
1.29471e-06
1.29471e-06
1.29471e-06
1.29744e-06
1.29807e-06
1.29789e-06
1.29471e-06
1.29471e-06
1.29471e-06
1.29471e-06
1.29471e-06
1.29471e-06
1.29788e-06
1.2996e-06
1.29974e-06
1.29781e-06
1.29471e-06
1.29471e-06
1.29471e-06
1.29471e-06
1.29471e-06
1.29471e-06
1.29781e-06
1.29937e-06
1.29959e-06
1.29777e-06
1.29471e-06
1.29471e-06
1.29471e-06
1.29471e-06
1.29471e-06
1.29471e-06
1.29778e-06
1.29818e-06
1.29785e-06
1.29471e-06
1.29471e-06
1.29471e-06
1.29471e-06
1.29471e-06
1.29471e-06
1.29785e-06
1.29951e-06
1.29939e-06
1.29744e-06
1.29471e-06
1.29471e-06
1.29471e-06
1.29471e-06
1.29738e-06
1.29801e-06
1.29966e-06
1.2996e-06
1.29807e-06
1.29788e-06
1.29781e-06
1.29778e-06
1.29785e-06
1.29801e-06
1.29939e-06
1.2996e-06
1.29937e-06
1.29818e-06
1.29951e-06
1.29966e-06
1.28375e-06
1.28361e-06
1.28353e-06
1.28191e-06
1.28182e-06
1.28179e-06
1.28187e-06
1.2834e-06
1.28361e-06
1.28353e-06
1.28148e-06
1.27873e-06
1.27873e-06
1.27873e-06
1.27873e-06
1.28145e-06
1.28208e-06
1.28191e-06
1.27873e-06
1.27873e-06
1.27873e-06
1.27873e-06
1.27873e-06
1.27873e-06
1.28189e-06
1.28361e-06
1.28375e-06
1.28182e-06
1.27873e-06
1.27873e-06
1.27873e-06
1.27873e-06
1.27873e-06
1.27873e-06
1.28183e-06
1.28338e-06
1.28361e-06
1.28179e-06
1.27873e-06
1.27873e-06
1.27873e-06
1.27873e-06
1.27873e-06
1.27873e-06
1.2818e-06
1.28219e-06
1.28187e-06
1.27873e-06
1.27873e-06
1.27873e-06
1.27873e-06
1.27873e-06
1.27873e-06
1.28186e-06
1.28353e-06
1.2834e-06
1.28145e-06
1.27873e-06
1.27873e-06
1.27873e-06
1.27873e-06
1.28139e-06
1.28202e-06
1.28368e-06
1.28361e-06
1.28208e-06
1.28189e-06
1.28183e-06
1.2818e-06
1.28186e-06
1.28202e-06
1.28341e-06
1.28361e-06
1.28338e-06
1.28219e-06
1.28353e-06
1.28368e-06
1.26777e-06
1.26762e-06
1.26754e-06
1.26592e-06
1.26583e-06
1.2658e-06
1.26588e-06
1.26742e-06
1.26762e-06
1.26754e-06
1.2655e-06
1.26274e-06
1.26274e-06
1.26274e-06
1.26274e-06
1.26547e-06
1.2661e-06
1.26592e-06
1.26274e-06
1.26274e-06
1.26274e-06
1.26274e-06
1.26274e-06
1.26274e-06
1.26591e-06
1.26763e-06
1.26777e-06
1.26583e-06
1.26274e-06
1.26274e-06
1.26274e-06
1.26274e-06
1.26274e-06
1.26274e-06
1.26584e-06
1.2674e-06
1.26762e-06
1.2658e-06
1.26274e-06
1.26274e-06
1.26274e-06
1.26274e-06
1.26274e-06
1.26274e-06
1.26581e-06
1.26621e-06
1.26588e-06
1.26274e-06
1.26274e-06
1.26274e-06
1.26274e-06
1.26274e-06
1.26274e-06
1.26587e-06
1.26754e-06
1.26742e-06
1.26547e-06
1.26274e-06
1.26274e-06
1.26274e-06
1.26274e-06
1.2654e-06
1.26603e-06
1.26769e-06
1.26762e-06
1.2661e-06
1.26591e-06
1.26584e-06
1.26581e-06
1.26587e-06
1.26604e-06
1.26742e-06
1.26762e-06
1.2674e-06
1.26621e-06
1.26754e-06
1.26769e-06
1.25178e-06
1.25164e-06
1.25156e-06
1.24994e-06
1.24985e-06
1.24982e-06
1.24989e-06
1.25143e-06
1.25164e-06
1.25156e-06
1.24951e-06
1.24676e-06
1.24676e-06
1.24676e-06
1.24676e-06
1.24948e-06
1.25011e-06
1.24994e-06
1.24676e-06
1.24676e-06
1.24676e-06
1.24676e-06
1.24676e-06
1.24676e-06
1.24992e-06
1.25164e-06
1.25178e-06
1.24985e-06
1.24676e-06
1.24676e-06
1.24676e-06
1.24676e-06
1.24676e-06
1.24676e-06
1.24986e-06
1.25141e-06
1.25164e-06
1.24982e-06
1.24676e-06
1.24676e-06
1.24676e-06
1.24676e-06
1.24676e-06
1.24676e-06
1.24982e-06
1.25022e-06
1.24989e-06
1.24676e-06
1.24676e-06
1.24676e-06
1.24676e-06
1.24676e-06
1.24676e-06
1.24989e-06
1.25156e-06
1.25143e-06
1.24948e-06
1.24676e-06
1.24676e-06
1.24676e-06
1.24676e-06
1.24942e-06
1.25005e-06
1.25171e-06
1.25164e-06
1.25011e-06
1.24992e-06
1.24986e-06
1.24982e-06
1.24989e-06
1.25005e-06
1.25144e-06
1.25164e-06
1.25141e-06
1.25022e-06
1.25156e-06
1.25171e-06
1.2358e-06
1.23565e-06
1.23557e-06
1.23395e-06
1.23386e-06
1.23383e-06
1.23391e-06
1.23545e-06
1.23565e-06
1.23557e-06
1.23353e-06
1.23077e-06
1.23077e-06
1.23077e-06
1.23077e-06
1.23349e-06
1.23413e-06
1.23395e-06
1.23077e-06
1.23077e-06
1.23077e-06
1.23077e-06
1.23077e-06
1.23077e-06
1.23394e-06
1.23565e-06
1.2358e-06
1.23386e-06
1.23077e-06
1.23077e-06
1.23077e-06
1.23077e-06
1.23077e-06
1.23077e-06
1.23387e-06
1.23542e-06
1.23565e-06
1.23383e-06
1.23077e-06
1.23077e-06
1.23077e-06
1.23077e-06
1.23077e-06
1.23077e-06
1.23384e-06
1.23424e-06
1.23391e-06
1.23077e-06
1.23077e-06
1.23077e-06
1.23077e-06
1.23077e-06
1.23077e-06
1.2339e-06
1.23557e-06
1.23545e-06
1.23349e-06
1.23077e-06
1.23077e-06
1.23077e-06
1.23077e-06
1.23343e-06
1.23406e-06
1.23572e-06
1.23565e-06
1.23413e-06
1.23394e-06
1.23387e-06
1.23384e-06
1.2339e-06
1.23406e-06
1.23545e-06
1.23565e-06
1.23542e-06
1.23424e-06
1.23557e-06
1.23572e-06
1.21981e-06
1.21967e-06
1.21958e-06
1.21797e-06
1.21788e-06
1.21785e-06
1.21792e-06
1.21946e-06
1.21967e-06
1.21958e-06
1.21754e-06
1.21479e-06
1.21479e-06
1.21479e-06
1.21479e-06
1.21751e-06
1.21814e-06
1.21797e-06
1.21479e-06
1.21479e-06
1.21479e-06
1.21479e-06
1.21479e-06
1.21479e-06
1.21795e-06
1.21967e-06
1.21981e-06
1.21788e-06
1.21479e-06
1.21479e-06
1.21479e-06
1.21479e-06
1.21479e-06
1.21479e-06
1.21788e-06
1.21944e-06
1.21967e-06
1.21785e-06
1.21479e-06
1.21479e-06
1.21479e-06
1.21479e-06
1.21479e-06
1.21479e-06
1.21785e-06
1.21825e-06
1.21792e-06
1.21479e-06
1.21479e-06
1.21479e-06
1.21479e-06
1.21479e-06
1.21479e-06
1.21792e-06
1.21959e-06
1.21946e-06
1.21751e-06
1.21479e-06
1.21479e-06
1.21479e-06
1.21479e-06
1.21745e-06
1.21808e-06
1.21973e-06
1.21967e-06
1.21814e-06
1.21795e-06
1.21788e-06
1.21785e-06
1.21792e-06
1.21808e-06
1.21947e-06
1.21967e-06
1.21944e-06
1.21825e-06
1.21959e-06
1.21973e-06
1.20382e-06
1.20368e-06
1.2036e-06
1.20198e-06
1.20189e-06
1.20186e-06
1.20194e-06
1.20348e-06
1.20368e-06
1.2036e-06
1.20156e-06
1.1988e-06
1.1988e-06
1.1988e-06
1.1988e-06
1.20152e-06
1.20216e-06
1.20198e-06
1.1988e-06
1.1988e-06
1.1988e-06
1.1988e-06
1.1988e-06
1.1988e-06
1.20197e-06
1.20368e-06
1.20382e-06
1.20189e-06
1.1988e-06
1.1988e-06
1.1988e-06
1.1988e-06
1.1988e-06
1.1988e-06
1.2019e-06
1.20345e-06
1.20368e-06
1.20186e-06
1.1988e-06
1.1988e-06
1.1988e-06
1.1988e-06
1.1988e-06
1.1988e-06
1.20187e-06
1.20227e-06
1.20194e-06
1.1988e-06
1.1988e-06
1.1988e-06
1.1988e-06
1.1988e-06
1.1988e-06
1.20193e-06
1.2036e-06
1.20347e-06
1.20152e-06
1.1988e-06
1.1988e-06
1.1988e-06
1.1988e-06
1.20146e-06
1.20209e-06
1.20375e-06
1.20368e-06
1.20216e-06
1.20197e-06
1.2019e-06
1.20187e-06
1.20193e-06
1.20209e-06
1.20348e-06
1.20368e-06
1.20345e-06
1.20227e-06
1.2036e-06
1.20375e-06
1.18784e-06
1.1877e-06
1.18761e-06
1.18599e-06
1.18591e-06
1.18588e-06
1.18595e-06
1.18749e-06
1.1877e-06
1.18761e-06
1.18557e-06
1.18282e-06
1.18282e-06
1.18282e-06
1.18282e-06
1.18554e-06
1.18617e-06
1.18599e-06
1.18282e-06
1.18282e-06
1.18282e-06
1.18282e-06
1.18282e-06
1.18282e-06
1.18598e-06
1.1877e-06
1.18784e-06
1.18591e-06
1.18282e-06
1.18282e-06
1.18282e-06
1.18282e-06
1.18282e-06
1.18282e-06
1.18591e-06
1.18747e-06
1.1877e-06
1.18588e-06
1.18282e-06
1.18282e-06
1.18282e-06
1.18282e-06
1.18282e-06
1.18282e-06
1.18588e-06
1.18628e-06
1.18595e-06
1.18282e-06
1.18282e-06
1.18282e-06
1.18282e-06
1.18282e-06
1.18282e-06
1.18595e-06
1.18761e-06
1.18749e-06
1.18554e-06
1.18282e-06
1.18282e-06
1.18282e-06
1.18282e-06
1.18548e-06
1.18611e-06
1.18776e-06
1.1877e-06
1.18617e-06
1.18598e-06
1.18591e-06
1.18588e-06
1.18595e-06
1.18611e-06
1.1875e-06
1.1877e-06
1.18747e-06
1.18628e-06
1.18761e-06
1.18776e-06
1.17185e-06
1.17171e-06
1.17163e-06
1.17001e-06
1.16992e-06
1.16989e-06
1.16997e-06
1.1715e-06
1.17171e-06
1.17163e-06
1.16959e-06
1.16683e-06
1.16683e-06
1.16683e-06
1.16683e-06
1.16955e-06
1.17018e-06
1.17001e-06
1.16683e-06
1.16683e-06
1.16683e-06
1.16683e-06
1.16683e-06
1.16683e-06
1.17e-06
1.17171e-06
1.17185e-06
1.16992e-06
1.16683e-06
1.16683e-06
1.16683e-06
1.16683e-06
1.16683e-06
1.16683e-06
1.16993e-06
1.17148e-06
1.17171e-06
1.16989e-06
1.16683e-06
1.16683e-06
1.16683e-06
1.16683e-06
1.16683e-06
1.16683e-06
1.1699e-06
1.1703e-06
1.16997e-06
1.16683e-06
1.16683e-06
1.16683e-06
1.16683e-06
1.16683e-06
1.16683e-06
1.16996e-06
1.17163e-06
1.1715e-06
1.16955e-06
1.16683e-06
1.16683e-06
1.16683e-06
1.16683e-06
1.16949e-06
1.17012e-06
1.17178e-06
1.17171e-06
1.17018e-06
1.17e-06
1.16993e-06
1.1699e-06
1.16996e-06
1.17012e-06
1.17151e-06
1.17171e-06
1.17148e-06
1.1703e-06
1.17163e-06
1.17178e-06
1.15587e-06
1.15573e-06
1.15564e-06
1.15402e-06
1.15394e-06
1.15391e-06
1.15398e-06
1.15552e-06
1.15573e-06
1.15564e-06
1.1536e-06
1.15085e-06
1.15085e-06
1.15085e-06
1.15085e-06
1.15357e-06
1.1542e-06
1.15402e-06
1.15085e-06
1.15085e-06
1.15085e-06
1.15085e-06
1.15085e-06
1.15085e-06
1.15401e-06
1.15573e-06
1.15587e-06
1.15394e-06
1.15085e-06
1.15085e-06
1.15085e-06
1.15085e-06
1.15085e-06
1.15085e-06
1.15394e-06
1.1555e-06
1.15573e-06
1.15391e-06
1.15085e-06
1.15085e-06
1.15085e-06
1.15085e-06
1.15085e-06
1.15085e-06
1.15391e-06
1.15431e-06
1.15398e-06
1.15085e-06
1.15085e-06
1.15085e-06
1.15085e-06
1.15085e-06
1.15085e-06
1.15398e-06
1.15564e-06
1.15552e-06
1.15357e-06
1.15085e-06
1.15085e-06
1.15085e-06
1.15085e-06
1.15351e-06
1.15414e-06
1.15579e-06
1.15573e-06
1.1542e-06
1.15401e-06
1.15394e-06
1.15391e-06
1.15398e-06
1.15414e-06
1.15553e-06
1.15573e-06
1.1555e-06
1.15431e-06
1.15564e-06
1.15579e-06
1.13988e-06
1.13974e-06
1.13966e-06
1.13804e-06
1.13795e-06
1.13792e-06
1.138e-06
1.13953e-06
1.13974e-06
1.13966e-06
1.13762e-06
1.13486e-06
1.13486e-06
1.13486e-06
1.13486e-06
1.13758e-06
1.13821e-06
1.13804e-06
1.13486e-06
1.13486e-06
1.13486e-06
1.13486e-06
1.13486e-06
1.13486e-06
1.13803e-06
1.13974e-06
1.13988e-06
1.13795e-06
1.13486e-06
1.13486e-06
1.13486e-06
1.13486e-06
1.13486e-06
1.13486e-06
1.13796e-06
1.13951e-06
1.13974e-06
1.13792e-06
1.13486e-06
1.13486e-06
1.13486e-06
1.13486e-06
1.13486e-06
1.13486e-06
1.13793e-06
1.13833e-06
1.138e-06
1.13486e-06
1.13486e-06
1.13486e-06
1.13486e-06
1.13486e-06
1.13486e-06
1.13799e-06
1.13966e-06
1.13953e-06
1.13758e-06
1.13486e-06
1.13486e-06
1.13486e-06
1.13486e-06
1.13752e-06
1.13815e-06
1.13981e-06
1.13974e-06
1.13821e-06
1.13803e-06
1.13796e-06
1.13793e-06
1.13799e-06
1.13815e-06
1.13954e-06
1.13974e-06
1.13951e-06
1.13833e-06
1.13966e-06
1.13981e-06
1.1239e-06
1.12375e-06
1.12367e-06
1.12205e-06
1.12197e-06
1.12194e-06
1.12201e-06
1.12355e-06
1.12376e-06
1.12367e-06
1.12163e-06
1.11887e-06
1.11887e-06
1.11887e-06
1.11887e-06
1.1216e-06
1.12223e-06
1.12205e-06
1.11887e-06
1.11887e-06
1.11887e-06
1.11887e-06
1.11887e-06
1.11887e-06
1.12204e-06
1.12376e-06
1.1239e-06
1.12197e-06
1.11887e-06
1.11887e-06
1.11887e-06
1.11887e-06
1.11887e-06
1.11887e-06
1.12197e-06
1.12353e-06
1.12375e-06
1.12194e-06
1.11887e-06
1.11887e-06
1.11887e-06
1.11887e-06
1.11887e-06
1.11887e-06
1.12194e-06
1.12234e-06
1.12201e-06
1.11887e-06
1.11887e-06
1.11887e-06
1.11887e-06
1.11887e-06
1.11887e-06
1.12201e-06
1.12367e-06
1.12355e-06
1.1216e-06
1.11887e-06
1.11887e-06
1.11887e-06
1.11887e-06
1.12154e-06
1.12217e-06
1.12382e-06
1.12376e-06
1.12223e-06
1.12204e-06
1.12197e-06
1.12194e-06
1.12201e-06
1.12217e-06
1.12355e-06
1.12376e-06
1.12353e-06
1.12234e-06
1.12367e-06
1.12382e-06
1.10791e-06
1.10777e-06
1.10769e-06
1.10607e-06
1.10598e-06
1.10595e-06
1.10603e-06
1.10756e-06
1.10777e-06
1.10769e-06
1.10565e-06
1.10289e-06
1.10289e-06
1.10289e-06
1.10289e-06
1.10561e-06
1.10624e-06
1.10607e-06
1.10289e-06
1.10289e-06
1.10289e-06
1.10289e-06
1.10289e-06
1.10289e-06
1.10606e-06
1.10777e-06
1.10791e-06
1.10598e-06
1.10289e-06
1.10289e-06
1.10289e-06
1.10289e-06
1.10289e-06
1.10289e-06
1.10599e-06
1.10754e-06
1.10777e-06
1.10595e-06
1.10289e-06
1.10289e-06
1.10289e-06
1.10289e-06
1.10289e-06
1.10289e-06
1.10596e-06
1.10636e-06
1.10603e-06
1.10289e-06
1.10289e-06
1.10289e-06
1.10289e-06
1.10289e-06
1.10289e-06
1.10602e-06
1.10769e-06
1.10756e-06
1.10561e-06
1.10289e-06
1.10289e-06
1.10289e-06
1.10289e-06
1.10555e-06
1.10618e-06
1.10784e-06
1.10777e-06
1.10624e-06
1.10606e-06
1.10599e-06
1.10596e-06
1.10602e-06
1.10618e-06
1.10757e-06
1.10777e-06
1.10754e-06
1.10636e-06
1.10769e-06
1.10784e-06
1.09193e-06
1.09178e-06
1.0917e-06
1.09008e-06
1.08999e-06
1.08996e-06
1.09004e-06
1.09158e-06
1.09178e-06
1.0917e-06
1.08966e-06
1.0869e-06
1.0869e-06
1.0869e-06
1.0869e-06
1.08963e-06
1.09026e-06
1.09008e-06
1.0869e-06
1.0869e-06
1.0869e-06
1.0869e-06
1.0869e-06
1.0869e-06
1.09007e-06
1.09179e-06
1.09193e-06
1.08999e-06
1.0869e-06
1.0869e-06
1.0869e-06
1.0869e-06
1.0869e-06
1.0869e-06
1.09e-06
1.09156e-06
1.09178e-06
1.08996e-06
1.0869e-06
1.0869e-06
1.0869e-06
1.0869e-06
1.0869e-06
1.0869e-06
1.08997e-06
1.09037e-06
1.09004e-06
1.0869e-06
1.0869e-06
1.0869e-06
1.0869e-06
1.0869e-06
1.0869e-06
1.09003e-06
1.0917e-06
1.09158e-06
1.08963e-06
1.0869e-06
1.0869e-06
1.0869e-06
1.0869e-06
1.08956e-06
1.09019e-06
1.09185e-06
1.09178e-06
1.09026e-06
1.09007e-06
1.09e-06
1.08997e-06
1.09003e-06
1.0902e-06
1.09158e-06
1.09179e-06
1.09156e-06
1.09037e-06
1.0917e-06
1.09185e-06
1.07594e-06
1.0758e-06
1.07572e-06
1.0741e-06
1.07401e-06
1.07398e-06
1.07405e-06
1.07559e-06
1.0758e-06
1.07572e-06
1.07367e-06
1.07092e-06
1.07092e-06
1.07092e-06
1.07092e-06
1.07364e-06
1.07427e-06
1.0741e-06
1.07092e-06
1.07092e-06
1.07092e-06
1.07092e-06
1.07092e-06
1.07092e-06
1.07408e-06
1.0758e-06
1.07594e-06
1.07401e-06
1.07092e-06
1.07092e-06
1.07092e-06
1.07092e-06
1.07092e-06
1.07092e-06
1.07401e-06
1.07557e-06
1.0758e-06
1.07398e-06
1.07092e-06
1.07092e-06
1.07092e-06
1.07092e-06
1.07092e-06
1.07092e-06
1.07398e-06
1.07438e-06
1.07405e-06
1.07092e-06
1.07092e-06
1.07092e-06
1.07092e-06
1.07092e-06
1.07092e-06
1.07405e-06
1.07572e-06
1.07559e-06
1.07364e-06
1.07092e-06
1.07092e-06
1.07092e-06
1.07092e-06
1.07358e-06
1.07421e-06
1.07587e-06
1.0758e-06
1.07427e-06
1.07408e-06
1.07402e-06
1.07398e-06
1.07405e-06
1.07421e-06
1.0756e-06
1.0758e-06
1.07557e-06
1.07438e-06
1.07572e-06
1.07587e-06
1.05995e-06
1.05981e-06
1.05973e-06
1.05811e-06
1.05802e-06
1.05799e-06
1.05807e-06
1.05961e-06
1.05981e-06
1.05973e-06
1.05769e-06
1.05493e-06
1.05493e-06
1.05493e-06
1.05493e-06
1.05765e-06
1.05828e-06
1.05811e-06
1.05493e-06
1.05493e-06
1.05493e-06
1.05493e-06
1.05493e-06
1.05493e-06
1.0581e-06
1.05981e-06
1.05995e-06
1.05802e-06
1.05493e-06
1.05493e-06
1.05493e-06
1.05493e-06
1.05493e-06
1.05493e-06
1.05803e-06
1.05958e-06
1.05981e-06
1.05799e-06
1.05493e-06
1.05493e-06
1.05493e-06
1.05493e-06
1.05493e-06
1.05493e-06
1.058e-06
1.0584e-06
1.05807e-06
1.05493e-06
1.05493e-06
1.05493e-06
1.05493e-06
1.05493e-06
1.05493e-06
1.05806e-06
1.05973e-06
1.0596e-06
1.05765e-06
1.05493e-06
1.05493e-06
1.05493e-06
1.05493e-06
1.05759e-06
1.05822e-06
1.05988e-06
1.05981e-06
1.05828e-06
1.0581e-06
1.05803e-06
1.058e-06
1.05806e-06
1.05822e-06
1.05961e-06
1.05981e-06
1.05958e-06
1.0584e-06
1.05973e-06
1.05988e-06
1.04397e-06
1.04382e-06
1.04374e-06
1.04212e-06
1.04204e-06
1.04201e-06
1.04208e-06
1.04362e-06
1.04383e-06
1.04374e-06
1.0417e-06
1.03894e-06
1.03894e-06
1.03894e-06
1.03894e-06
1.04167e-06
1.0423e-06
1.04212e-06
1.03894e-06
1.03894e-06
1.03894e-06
1.03894e-06
1.03894e-06
1.03894e-06
1.04211e-06
1.04383e-06
1.04397e-06
1.04204e-06
1.03894e-06
1.03894e-06
1.03894e-06
1.03894e-06
1.03894e-06
1.03894e-06
1.04204e-06
1.0436e-06
1.04382e-06
1.04201e-06
1.03894e-06
1.03894e-06
1.03894e-06
1.03894e-06
1.03894e-06
1.03894e-06
1.04201e-06
1.04241e-06
1.04208e-06
1.03894e-06
1.03894e-06
1.03894e-06
1.03894e-06
1.03894e-06
1.03894e-06
1.04208e-06
1.04374e-06
1.04362e-06
1.04167e-06
1.03894e-06
1.03894e-06
1.03894e-06
1.03894e-06
1.04161e-06
1.04224e-06
1.04389e-06
1.04383e-06
1.0423e-06
1.04211e-06
1.04204e-06
1.04201e-06
1.04208e-06
1.04224e-06
1.04362e-06
1.04383e-06
1.0436e-06
1.04241e-06
1.04374e-06
1.04389e-06
1.02798e-06
1.02784e-06
1.02776e-06
1.02614e-06
1.02605e-06
1.02602e-06
1.0261e-06
1.02763e-06
1.02784e-06
1.02776e-06
1.02571e-06
1.02296e-06
1.02296e-06
1.02296e-06
1.02296e-06
1.02568e-06
1.02631e-06
1.02614e-06
1.02296e-06
1.02296e-06
1.02296e-06
1.02296e-06
1.02296e-06
1.02296e-06
1.02612e-06
1.02784e-06
1.02798e-06
1.02605e-06
1.02296e-06
1.02296e-06
1.02296e-06
1.02296e-06
1.02296e-06
1.02296e-06
1.02606e-06
1.02761e-06
1.02784e-06
1.02602e-06
1.02296e-06
1.02296e-06
1.02296e-06
1.02296e-06
1.02296e-06
1.02296e-06
1.02603e-06
1.02642e-06
1.0261e-06
1.02296e-06
1.02296e-06
1.02296e-06
1.02296e-06
1.02296e-06
1.02296e-06
1.02609e-06
1.02776e-06
1.02763e-06
1.02568e-06
1.02296e-06
1.02296e-06
1.02296e-06
1.02296e-06
1.02562e-06
1.02625e-06
1.02791e-06
1.02784e-06
1.02631e-06
1.02612e-06