/*--------------------------------*- C++ -*----------------------------------*\
| =========                 |                                                 |
| \\      /  F ield         | OpenFOAM: The Open Source CFD Toolbox           |
|  \\    /   O peration     | Version:  v2012                                 |
|   \\  /    A nd           | Website:  www.openfoam.com                      |
|    \\/     M anipulation  |                                                 |
\*---------------------------------------------------------------------------*/
FoamFile
{
    version     2.0;
    format      ascii;
    class       volScalarField;
    location    "287.5";
    object      epsilon;
}
// * * * * * * * * * * * * * * * * * * * * * * * * * * * * * * * * * * * * * //

dimensions      [0 2 -3 0 0 0 0];


internalField   nonuniform List<scalar> 
171728
(
4.37569e-09
7.06046e-09
6.08199e-09
4.99617e-09
4.36591e-09
4.63575e-09
5.58875e-09
4.52528e-09
4.35333e-09
3.75163e-09
5.1089e-09
4.10987e-09
4.34042e-09
3.41324e-09
4.67475e-09
3.74726e-09
4.33235e-09
3.23679e-09
4.2927e-09
3.42946e-09
4.32834e-09
3.10825e-09
3.91688e-09
3.16182e-09
4.3296e-09
2.99775e-09
3.52435e-09
2.93387e-09
4.33804e-09
2.90294e-09
3.19291e-09
2.74512e-09
4.35364e-09
2.83104e-09
2.94843e-09
2.59374e-09
4.37578e-09
2.78979e-09
2.75536e-09
2.47745e-09
4.4032e-09
2.79344e-09
2.58946e-09
2.39688e-09
4.43791e-09
2.83867e-09
2.47617e-09
2.35362e-09
4.47968e-09
2.94159e-09
2.46375e-09
2.35339e-09
4.52798e-09
3.12352e-09
2.54821e-09
2.40881e-09
4.57984e-09
3.40219e-09
2.75787e-09
2.54408e-09
4.63831e-09
3.81238e-09
3.07567e-09
2.7988e-09
4.69498e-09
4.42554e-09
3.57397e-09
3.25745e-09
4.74652e-09
5.47242e-09
4.32278e-09
4.02067e-09
4.80853e-09
7.23938e-09
5.49686e-09
5.32254e-09
4.89036e-09
9.97012e-09
7.33564e-09
7.74985e-09
4.99369e-09
1.36637e-08
1.00702e-08
1.22276e-08
5.11915e-09
1.7488e-08
1.39086e-08
1.91293e-08
5.27651e-09
2.52439e-08
2.0275e-08
2.99167e-08
5.46925e-09
2.77388e-08
2.80638e-08
4.78782e-08
5.70769e-09
3.58999e-08
3.56653e-08
7.68799e-08
6.03843e-09
5.19659e-08
5.01669e-08
1.07591e-07
6.36612e-09
5.5663e-08
5.95179e-08
1.69485e-07
6.93546e-09
7.94799e-08
7.77329e-08
2.25113e-07
7.62366e-09
9.63895e-08
9.97187e-08
2.96533e-07
8.4353e-09
1.21462e-07
1.21087e-07
3.78503e-07
9.7123e-09
1.45927e-07
1.44919e-07
4.52768e-07
1.10445e-08
1.71433e-07
1.77289e-07
5.22404e-07
1.31404e-08
2.14634e-07
2.07052e-07
6.06367e-07
1.5401e-08
2.39818e-07
2.46842e-07
6.52335e-07
1.83214e-08
2.84006e-07
2.80133e-07
7.28004e-07
2.29479e-08
3.23774e-07
3.24376e-07
7.80138e-07
2.64676e-08
3.67271e-07
3.68827e-07
8.10152e-07
3.30691e-08
4.16616e-07
4.13046e-07
8.58633e-07
3.90131e-08
4.60206e-07
4.56927e-07
8.91486e-07
4.96239e-08
5.05835e-07
5.17286e-07
9.39081e-07
5.73871e-08
5.68118e-07
5.58484e-07
9.55194e-07
6.74377e-08
5.98812e-07
5.99902e-07
9.92391e-07
8.33191e-08
6.56648e-07
6.64247e-07
1.03057e-06
9.58931e-08
7.0616e-07
6.98479e-07
1.05266e-06
1.11119e-07
7.45138e-07
7.50635e-07
1.08462e-06
1.32138e-07
7.89295e-07
7.88284e-07
1.10607e-06
1.50687e-07
8.38352e-07
8.3569e-07
1.14086e-06
1.76852e-07
8.68944e-07
8.74026e-07
1.16161e-06
1.96219e-07
9.11037e-07
9.08547e-07
1.18895e-06
2.27188e-07
9.46069e-07
9.43878e-07
1.2144e-06
2.51208e-07
9.73771e-07
9.78917e-07
1.23105e-06
2.83171e-07
1.00692e-06
1.00019e-06
1.25601e-06
3.08001e-07
1.03064e-06
1.03661e-06
1.27268e-06
3.42319e-07
1.05911e-06
1.0582e-06
1.29742e-06
3.72108e-07
1.07484e-06
1.07247e-06
1.30886e-06
3.94847e-07
1.09845e-06
1.10347e-06
1.32324e-06
4.27607e-07
1.11638e-06
1.11684e-06
1.33849e-06
4.57171e-07
1.13508e-06
1.13422e-06
1.35816e-06
4.82307e-07
1.14131e-06
1.14321e-06
1.36278e-06
5.02867e-07
1.15658e-06
1.15663e-06
1.37444e-06
5.3564e-07
1.17544e-06
1.17463e-06
1.40025e-06
5.42238e-07
1.1568e-06
1.15588e-06
1.37312e-06
5.3672e-07
1.1319e-06
1.13122e-06
1.33652e-06
5.50023e-07
1.14563e-06
1.14514e-06
1.3549e-06
6.05026e-07
1.20908e-06
1.20848e-06
1.4346e-06
6.48217e-07
1.25023e-06
1.24969e-06
1.48876e-06
6.61496e-07
1.26221e-06
1.26187e-06
1.50406e-06
6.47457e-07
1.23281e-06
1.23284e-06
1.46555e-06
6.00092e-07
1.15692e-06
1.15707e-06
1.36602e-06
5.61813e-07
1.09909e-06
1.0992e-06
1.2899e-06
5.54385e-07
1.08634e-06
1.08641e-06
1.27935e-06
5.85883e-07
1.11412e-06
1.11415e-06
1.32135e-06
6.26824e-07
1.14272e-06
1.14277e-06
1.36425e-06
6.47376e-07
1.16022e-06
1.16029e-06
1.39335e-06
6.54474e-07
1.16827e-06
1.16835e-06
1.40937e-06
6.56413e-07
1.17143e-06
1.1715e-06
1.41694e-06
6.5685e-07
1.17248e-06
1.17255e-06
1.42002e-06
6.56768e-07
1.17262e-06
1.1727e-06
1.42097e-06
6.5657e-07
1.17254e-06
1.17261e-06
1.42111e-06
6.56584e-07
1.17262e-06
1.17269e-06
1.42119e-06
6.56581e-07
1.17264e-06
1.17271e-06
1.42135e-06
6.56537e-07
1.17255e-06
1.17263e-06
1.42105e-06
6.56565e-07
1.17263e-06
1.17271e-06
1.42135e-06
6.56544e-07
1.17258e-06
1.17265e-06
1.42117e-06
6.56546e-07
1.1726e-06
1.17267e-06
1.4212e-06
6.56546e-07
1.1726e-06
1.17267e-06
1.4213e-06
6.56544e-07
1.17259e-06
1.17267e-06
1.42113e-06
6.56544e-07
1.17261e-06
1.17268e-06
1.42132e-06
6.56543e-07
1.1726e-06
1.17268e-06
1.42113e-06
6.56545e-07
1.17261e-06
1.17269e-06
1.42129e-06
6.56549e-07
1.17263e-06
1.1727e-06
1.42119e-06
6.56557e-07
1.17265e-06
1.17273e-06
1.42122e-06
6.56556e-07
1.17269e-06
1.17276e-06
1.42127e-06
6.56303e-07
1.1724e-06
1.17246e-06
1.42084e-06
6.37511e-07
1.11554e-06
1.11553e-06
1.37909e-06
5.20021e-09
4.14059e-09
4.06199e-09
4.92608e-09
4.13488e-09
4.11009e-09
4.37435e-09
4.57632e-09
4.46657e-09
4.34406e-09
3.8656e-09
4.29232e-09
4.95352e-09
4.28711e-09
4.28788e-09
5.02737e-09
5.1756e-09
4.71902e-09
4.63575e-09
4.86965e-09
4.39316e-09
4.53721e-09
4.88916e-09
4.4823e-09
4.67615e-09
4.5955e-09
4.37683e-09
4.37978e-09
4.71335e-09
5.05239e-09
4.40449e-09
4.90891e-09
4.53776e-09
5.21992e-09
5.71715e-09
4.85858e-09
4.56125e-09
4.68486e-09
4.273e-09
4.30593e-09
4.41608e-09
4.05706e-09
4.07191e-09
4.44456e-09
4.04552e-09
4.27539e-09
4.30372e-09
4.00008e-09
4.08914e-09
4.29776e-09
3.89383e-09
4.00333e-09
4.4679e-09
4.16457e-09
4.73482e-09
5.22496e-09
4.38674e-09
4.14108e-09
4.24332e-09
3.89221e-09
3.97838e-09
3.97222e-09
3.76231e-09
3.72064e-09
4.01559e-09
3.68524e-09
3.91611e-09
4.02219e-09
3.6783e-09
3.83548e-09
3.91376e-09
3.4752e-09
3.66439e-09
4.10465e-09
3.8464e-09
4.27731e-09
4.77883e-09
3.95849e-09
3.77423e-09
3.86645e-09
3.56619e-09
3.69735e-09
3.64833e-09
3.52143e-09
3.45579e-09
3.66041e-09
3.38475e-09
3.6017e-09
3.77736e-09
3.38108e-09
3.61344e-09
3.58609e-09
3.27491e-09
3.36904e-09
3.79416e-09
3.56922e-09
3.85208e-09
4.38343e-09
3.55212e-09
3.45202e-09
3.5443e-09
3.29146e-09
3.46766e-09
3.39677e-09
3.31782e-09
3.23056e-09
3.36442e-09
3.1429e-09
3.31089e-09
3.56227e-09
3.11365e-09
3.42152e-09
3.30254e-09
3.13806e-09
3.11714e-09
3.52439e-09
3.30536e-09
3.463e-09
4.01374e-09
3.22385e-09
3.18017e-09
3.27368e-09
3.05484e-09
3.27045e-09
3.17933e-09
3.13977e-09
3.04671e-09
3.12754e-09
2.95183e-09
3.05414e-09
3.37859e-09
2.89386e-09
3.2648e-09
3.06163e-09
3.02366e-09
2.91081e-09
3.28212e-09
3.07324e-09
3.15239e-09
3.6202e-09
2.95943e-09
2.94794e-09
3.04068e-09
2.85546e-09
3.1007e-09
3.01075e-09
2.99564e-09
2.92802e-09
2.93965e-09
2.79108e-09
2.8472e-09
3.23196e-09
2.72624e-09
3.14669e-09
2.86683e-09
2.92475e-09
2.75114e-09
3.05758e-09
2.89098e-09
2.90214e-09
3.26755e-09
2.75292e-09
2.75498e-09
2.84553e-09
2.69609e-09
2.964e-09
2.9078e-09
2.88361e-09
2.86566e-09
2.7826e-09
2.66338e-09
2.69356e-09
3.1223e-09
2.61205e-09
3.06287e-09
2.7189e-09
2.84708e-09
2.63447e-09
2.87973e-09
2.7396e-09
2.71132e-09
3.0026e-09
2.60504e-09
2.59926e-09
2.69034e-09
2.57432e-09
2.86199e-09
2.8576e-09
2.80462e-09
2.84298e-09
2.65861e-09
2.56646e-09
2.59146e-09
3.04725e-09
2.54196e-09
3.00888e-09
2.61133e-09
2.79871e-09
2.55579e-09
2.73212e-09
2.61108e-09
2.57756e-09
2.802e-09
2.51261e-09
2.47836e-09
2.57332e-09
2.49101e-09
2.78871e-09
2.84306e-09
2.75399e-09
2.85192e-09
2.56591e-09
2.5032e-09
2.52885e-09
2.99998e-09
2.50702e-09
2.99231e-09
2.54161e-09
2.78869e-09
2.51514e-09
2.60681e-09
2.49855e-09
2.49823e-09
2.62645e-09
2.47166e-09
2.39383e-09
2.49395e-09
2.44285e-09
2.74729e-09
2.85835e-09
2.74232e-09
2.89019e-09
2.5063e-09
2.47249e-09
2.506e-09
2.99351e-09
2.5147e-09
3.01142e-09
2.51094e-09
2.8239e-09
2.51678e-09
2.49852e-09
2.42296e-09
2.46963e-09
2.49823e-09
2.47842e-09
2.34416e-09
2.4522e-09
2.43461e-09
2.74562e-09
2.90506e-09
2.77576e-09
2.96588e-09
2.48306e-09
2.48231e-09
2.52319e-09
3.02484e-09
2.56798e-09
3.08817e-09
2.52457e-09
2.90893e-09
2.56508e-09
2.42968e-09
2.40497e-09
2.48755e-09
2.46073e-09
2.52947e-09
2.3342e-09
2.45386e-09
2.47514e-09
2.79226e-09
2.99431e-09
2.86691e-09
3.09852e-09
2.50328e-09
2.54511e-09
2.59065e-09
3.11696e-09
2.68444e-09
3.22088e-09
2.58496e-09
3.06974e-09
2.66937e-09
2.42297e-09
2.44338e-09
2.54969e-09
2.51087e-09
2.63581e-09
2.37519e-09
2.50791e-09
2.57965e-09
2.89806e-09
3.14032e-09
3.02777e-09
3.29375e-09
2.57908e-09
2.66748e-09
2.72229e-09
3.2642e-09
2.87419e-09
3.41627e-09
2.70594e-09
3.3224e-09
2.85056e-09
2.47454e-09
2.55499e-09
2.67382e-09
2.69708e-09
2.81876e-09
2.48646e-09
2.636e-09
2.77932e-09
3.08136e-09
3.35163e-09
3.28696e-09
3.56273e-09
2.72211e-09
2.88878e-09
2.93956e-09
3.4775e-09
3.17782e-09
3.71001e-09
2.91254e-09
3.69986e-09
3.13961e-09
2.61397e-09
2.77032e-09
2.8796e-09
2.98333e-09
3.10586e-09
2.70209e-09
2.87101e-09
3.1416e-09
3.36883e-09
3.65093e-09
3.69473e-09
3.88249e-09
2.97813e-09
3.25947e-09
3.27434e-09
3.81104e-09
3.63871e-09
4.22662e-09
3.23616e-09
4.24409e-09
3.58937e-09
2.86479e-09
3.1802e-09
3.20291e-09
3.43306e-09
3.55148e-09
3.0853e-09
3.29347e-09
3.82278e-09
3.82831e-09
3.99318e-09
4.35989e-09
4.46957e-09
3.42005e-09
3.95681e-09
3.78823e-09
4.39745e-09
4.36311e-09
5.07446e-09
3.74587e-09
5.12563e-09
4.27783e-09
3.33807e-09
3.91327e-09
3.70704e-09
4.12093e-09
4.24172e-09
3.74535e-09
4.07407e-09
5.0205e-09
4.57315e-09
4.67647e-09
5.39072e-09
5.35308e-09
4.2725e-09
5.31138e-09
4.58815e-09
5.32787e-09
5.46795e-09
6.3595e-09
4.51384e-09
6.70315e-09
5.30966e-09
4.15809e-09
5.21512e-09
4.47662e-09
5.17387e-09
5.27088e-09
4.91078e-09
5.48036e-09
6.96927e-09
5.71963e-09
5.65704e-09
6.88085e-09
7.02603e-09
5.72666e-09
7.9721e-09
5.83903e-09
6.74443e-09
7.12699e-09
8.18024e-09
5.63448e-09
9.22477e-09
6.93471e-09
5.67619e-09
7.33618e-09
5.60117e-09
6.81318e-09
6.8735e-09
7.13223e-09
7.7431e-09
1.09063e-08
7.42424e-09
7.50836e-09
9.22925e-09
9.83761e-09
8.71278e-09
1.26854e-08
7.72332e-09
8.72791e-09
9.75877e-09
1.07863e-08
7.34256e-09
1.25284e-08
9.22929e-09
8.21018e-09
1.09839e-08
7.28602e-09
9.24109e-09
9.17008e-09
1.06961e-08
1.19901e-08
1.75225e-08
9.99169e-09
1.08431e-08
1.24541e-08
1.34637e-08
1.45032e-08
1.92704e-08
1.06183e-08
1.15458e-08
1.35147e-08
1.41513e-08
9.98461e-09
1.68653e-08
1.25272e-08
1.23568e-08
1.73981e-08
9.91793e-09
1.29816e-08
1.2451e-08
1.69894e-08
1.90426e-08
2.84657e-08
1.34147e-08
1.41563e-08
1.70019e-08
1.98929e-08
2.00719e-08
3.15015e-08
1.46475e-08
1.52374e-08
1.86541e-08
1.86262e-08
1.34811e-08
2.2943e-08
1.69931e-08
1.94427e-08
2.80316e-08
1.34186e-08
1.88396e-08
1.67805e-08
2.62285e-08
3.11479e-08
4.69548e-08
1.85073e-08
2.25118e-08
2.33143e-08
2.66916e-08
3.93352e-08
5.06685e-08
2.03711e-08
2.03033e-08
2.57909e-08
2.40482e-08
1.85392e-08
2.73853e-08
2.33448e-08
3.19929e-08
4.36805e-08
1.84261e-08
2.51184e-08
2.31023e-08
4.41053e-08
5.092e-08
7.2501e-08
2.48209e-08
2.84974e-08
3.26179e-08
3.68539e-08
5.16956e-08
7.234e-08
2.72978e-08
2.58501e-08
3.5852e-08
3.30769e-08
2.51148e-08
3.27864e-08
3.16538e-08
4.7135e-08
7.4211e-08
2.47519e-08
3.39182e-08
3.18608e-08
6.92212e-08
8.12258e-08
1.03394e-07
3.46867e-08
3.91789e-08
4.26965e-08
5.09313e-08
8.02402e-08
1.26093e-07
3.81821e-08
3.4334e-08
4.56533e-08
4.31532e-08
3.43317e-08
4.94902e-08
4.20912e-08
7.77525e-08
1.01815e-07
3.44514e-08
4.65513e-08
4.12339e-08
1.014e-07
1.1463e-07
1.64033e-07
4.75185e-08
5.43359e-08
5.65809e-08
5.82038e-08
1.38275e-07
1.42547e-07
5.03192e-08
4.79555e-08
5.98301e-08
5.63807e-08
4.51987e-08
5.41935e-08
5.63061e-08
1.18894e-07
1.58134e-07
4.46666e-08
5.70451e-08
5.65674e-08
1.58067e-07
1.67962e-07
2.04474e-07
5.83743e-08
5.93419e-08
7.27016e-08
7.50928e-08
1.43663e-07
2.15939e-07
6.14338e-08
5.86685e-08
7.29277e-08
7.03469e-08
6.01411e-08
7.25319e-08
7.1848e-08
1.61644e-07
1.98443e-07
6.01836e-08
7.17388e-08
7.13654e-08
2.12604e-07
2.30062e-07
2.90826e-07
7.89918e-08
8.3832e-08
9.14203e-08
1.01104e-07
2.45078e-07
2.99395e-07
7.8554e-08
7.65773e-08
9.23167e-08
9.33488e-08
7.63052e-08
9.36859e-08
9.07728e-08
2.20425e-07
2.96535e-07
7.53988e-08
9.54493e-08
9.12298e-08
2.77715e-07
2.99689e-07
3.67575e-07
9.68946e-08
1.04033e-07
1.14384e-07
1.18091e-07
3.06733e-07
3.46623e-07
9.89498e-08
9.71631e-08
1.16822e-07
1.13726e-07
9.61242e-08
1.11563e-07
1.15409e-07
3.07497e-07
3.52513e-07
9.77113e-08
1.15082e-07
1.14287e-07
3.64933e-07
3.82799e-07
4.26167e-07
1.18434e-07
1.2597e-07
1.37507e-07
1.45436e-07
3.67784e-07
4.58459e-07
1.20371e-07
1.20145e-07
1.37056e-07
1.37257e-07
1.21363e-07
1.43217e-07
1.38457e-07
3.67332e-07
4.43915e-07
1.18995e-07
1.37492e-07
1.39356e-07
4.37106e-07
4.4613e-07
5.23314e-07
1.47384e-07
1.48879e-07
1.69721e-07
1.63341e-07
4.66398e-07
4.84545e-07
1.46133e-07
1.4493e-07
1.68299e-07
1.71666e-07
1.4574e-07
1.60855e-07
1.65781e-07
4.60684e-07
5.14297e-07
1.47189e-07
1.71107e-07
1.6491e-07
5.07099e-07
5.34628e-07
5.77313e-07
1.748e-07
1.72632e-07
1.98682e-07
2.08966e-07
5.03905e-07
6.03559e-07
1.73626e-07
1.78274e-07
1.98693e-07
1.95871e-07
1.72491e-07
2.07672e-07
2.04945e-07
5.31922e-07
5.79726e-07
1.71444e-07
1.96144e-07
2.04056e-07
5.90407e-07
5.93973e-07
6.52069e-07
2.08925e-07
2.17512e-07
2.35457e-07
2.35638e-07
6.16547e-07
6.43988e-07
2.09356e-07
2.05824e-07
2.34504e-07
2.41712e-07
2.16115e-07
2.31228e-07
2.34715e-07
5.94188e-07
6.57442e-07
2.15059e-07
2.40334e-07
2.34253e-07
6.42986e-07
6.64311e-07
7.00368e-07
2.43822e-07
2.43923e-07
2.69959e-07
2.77604e-07
6.54808e-07
7.09729e-07
2.41746e-07
2.49216e-07
2.68554e-07
2.7079e-07
2.3944e-07
2.74356e-07
2.71162e-07
6.71813e-07
6.98641e-07
2.39262e-07
2.69444e-07
2.71909e-07
7.03982e-07
7.15555e-07
7.63471e-07
2.79761e-07
2.85977e-07
3.17337e-07
3.10245e-07
7.25377e-07
7.56289e-07
2.80243e-07
2.81347e-07
3.18787e-07
3.12012e-07
2.89045e-07
3.11905e-07
3.29651e-07
7.10322e-07
7.63682e-07
2.8972e-07
3.11839e-07
3.28275e-07
7.74591e-07
7.74686e-07
8.03173e-07
3.29904e-07
3.23054e-07
3.56363e-07
3.59588e-07
7.68096e-07
8.0612e-07
3.2929e-07
3.23728e-07
3.52204e-07
3.58293e-07
3.35977e-07
3.58393e-07
3.52066e-07
7.76411e-07
8.05134e-07
3.34259e-07
3.60428e-07
3.50829e-07
7.97831e-07
8.14168e-07
8.43969e-07
3.64543e-07
3.67568e-07
4.02646e-07
4.00468e-07
8.17008e-07
8.48451e-07
3.61486e-07
3.66711e-07
4.03381e-07
3.99485e-07
3.60556e-07
4.01564e-07
4.03441e-07
8.15772e-07
8.4462e-07
3.60008e-07
3.98496e-07
4.05003e-07
8.48983e-07
8.54149e-07
8.84853e-07
4.15305e-07
4.16135e-07
4.4479e-07
4.53576e-07
8.60073e-07
8.82295e-07
4.1644e-07
4.14691e-07
4.45216e-07
4.50242e-07
4.19279e-07
4.52631e-07
4.49514e-07
8.54976e-07
8.83744e-07
4.20015e-07
4.47612e-07
4.47987e-07
8.80931e-07
8.97544e-07
9.26606e-07
4.57556e-07
4.61408e-07
5.06189e-07
4.90635e-07
8.89958e-07
9.20121e-07
4.56766e-07
4.59118e-07
5.04443e-07
4.99154e-07
4.58254e-07
4.89382e-07
5.00033e-07
8.94204e-07
9.27232e-07
4.56837e-07
5.00517e-07
5.00599e-07
9.29797e-07
9.33726e-07
9.48112e-07
5.19869e-07
5.06813e-07
5.46939e-07
5.58468e-07
9.34392e-07
9.61636e-07
5.1862e-07
5.15996e-07
5.46155e-07
5.51251e-07
5.17121e-07
5.57731e-07
5.50586e-07
9.36717e-07
9.51909e-07
5.17967e-07
5.51329e-07
5.50416e-07
9.49392e-07
9.56125e-07
9.85945e-07
5.54421e-07
5.69038e-07
5.88803e-07
5.90933e-07
9.66553e-07
9.76564e-07
5.5361e-07
5.58618e-07
5.8866e-07
5.87918e-07
5.57488e-07
5.89726e-07
5.83599e-07
9.58288e-07
9.81969e-07
5.57133e-07
5.85719e-07
5.83447e-07
9.80622e-07
9.96862e-07
1.02145e-06
6.06183e-07
5.99896e-07
6.50572e-07
6.42149e-07
9.8526e-07
1.02042e-06
6.06512e-07
6.02502e-07
6.49354e-07
6.49075e-07
5.97949e-07
6.41209e-07
6.50707e-07
9.933e-07
1.02328e-06
5.97895e-07
6.50052e-07
6.51042e-07
1.02346e-06
1.02796e-06
1.04486e-06
6.60239e-07
6.58009e-07
6.90317e-07
6.94184e-07
1.03018e-06
1.04879e-06
6.58328e-07
6.62926e-07
6.8975e-07
6.91232e-07
6.62692e-07
6.94773e-07
6.88734e-07
1.03077e-06
1.04528e-06
6.62815e-07
6.91259e-07
6.88345e-07
1.04513e-06
1.05263e-06
1.07404e-06
7.02112e-07
7.04458e-07
7.34575e-07
7.35596e-07
1.05532e-06
1.07348e-06
7.02402e-07
6.98587e-07
7.33922e-07
7.34862e-07
7.00444e-07
7.36024e-07
7.41019e-07
1.05151e-06
1.07371e-06
6.99987e-07
7.34786e-07
7.40705e-07
1.07775e-06
1.08105e-06
1.10229e-06
7.45703e-07
7.46485e-07
7.8244e-07
7.78701e-07
1.08027e-06
1.10013e-06
7.44167e-07
7.50919e-07
7.81896e-07
7.83179e-07
7.50032e-07
7.76745e-07
7.76295e-07
1.0834e-06
1.10356e-06
7.49759e-07
7.81471e-07
7.75843e-07
1.09872e-06
1.11023e-06
1.12956e-06
7.92694e-07
7.89356e-07
8.21776e-07
8.25304e-07
1.10818e-06
1.13202e-06
7.93101e-07
7.90033e-07
8.21493e-07
8.20805e-07
7.8915e-07
8.2795e-07
8.26577e-07
1.10863e-06
1.12687e-06
7.88516e-07
8.2099e-07
8.2725e-07
1.13398e-06
1.13635e-06
1.15816e-06
8.34224e-07
8.36876e-07
8.67411e-07
8.63011e-07
1.13919e-06
1.1547e-06
8.32908e-07
8.34767e-07
8.66066e-07
8.6644e-07
8.36762e-07
8.61152e-07
8.64967e-07
1.13653e-06
1.1597e-06
8.37607e-07
8.67483e-07
8.6329e-07
1.15549e-06
1.16423e-06
1.17749e-06
8.74128e-07
8.70771e-07
8.96951e-07
9.00525e-07
1.16019e-06
1.17976e-06
8.73262e-07
8.74236e-07
8.97044e-07
9.00021e-07
8.73206e-07
9.00058e-07
8.9952e-07
1.16464e-06
1.17785e-06
8.71794e-07
8.98462e-07
9.03021e-07
1.18161e-06
1.18432e-06
1.20906e-06
9.08801e-07
9.11131e-07
9.39746e-07
9.37658e-07
1.18785e-06
1.20766e-06
9.08779e-07
9.08949e-07
9.39295e-07
9.34944e-07
9.1065e-07
9.38425e-07
9.41661e-07
1.18474e-06
1.20526e-06
9.14176e-07
9.3526e-07
9.39967e-07
1.20925e-06
1.21451e-06
1.22617e-06
9.4592e-07
9.45347e-07
9.66668e-07
9.67456e-07
1.21292e-06
1.22646e-06
9.45773e-07
9.44795e-07
9.6658e-07
9.72363e-07
9.48487e-07
9.66659e-07
9.65079e-07
1.21155e-06
1.23081e-06
9.46585e-07
9.71435e-07
9.68281e-07
1.22535e-06
1.23247e-06
1.25281e-06
9.76587e-07
9.74968e-07
1.00205e-06
9.98989e-07
1.23224e-06
1.24977e-06
9.76037e-07
9.78461e-07
1.00037e-06
9.93523e-07
9.73035e-07
9.9867e-07
1.00133e-06
1.23656e-06
1.24615e-06
9.76369e-07
9.94153e-07
9.97753e-07
1.25039e-06
1.25739e-06
1.26592e-06
1.00711e-06
1.00674e-06
1.02199e-06
1.02542e-06
1.25598e-06
1.27066e-06
1.00552e-06
1.00085e-06
1.02101e-06
1.02908e-06
1.00867e-06
1.02553e-06
1.02342e-06
1.25085e-06
1.27373e-06
1.00385e-06
1.02761e-06
1.02381e-06
1.26765e-06
1.27129e-06
1.29367e-06
1.0292e-06
1.03071e-06
1.05475e-06
1.05083e-06
1.27523e-06
1.28911e-06
1.02857e-06
1.03703e-06
1.05559e-06
1.054e-06
1.02908e-06
1.05167e-06
1.05401e-06
1.28108e-06
1.29337e-06
1.03127e-06
1.05468e-06
1.05413e-06
1.29125e-06
1.29975e-06
1.30661e-06
1.06177e-06
1.05832e-06
1.07289e-06
1.07282e-06
1.29509e-06
1.3056e-06
1.06292e-06
1.05819e-06
1.07374e-06
1.06831e-06
1.06193e-06
1.07213e-06
1.07467e-06
1.29636e-06
1.30014e-06
1.06022e-06
1.06771e-06
1.07041e-06
1.30622e-06
1.30877e-06
1.316e-06
1.07516e-06
1.07597e-06
1.0893e-06
1.0926e-06
1.30863e-06
1.31971e-06
1.07556e-06
1.07253e-06
1.08756e-06
1.09424e-06
1.07698e-06
1.09061e-06
1.08977e-06
1.30398e-06
1.32357e-06
1.07314e-06
1.09565e-06
1.08878e-06
1.31733e-06
1.3225e-06
1.33852e-06
1.09678e-06
1.09985e-06
1.11174e-06
1.11304e-06
1.3266e-06
1.34015e-06
1.09503e-06
1.1025e-06
1.11326e-06
1.11588e-06
1.09623e-06
1.11339e-06
1.10901e-06
1.331e-06
1.34207e-06
1.0959e-06
1.11503e-06
1.11011e-06
1.33498e-06
1.34189e-06
1.35099e-06
1.11478e-06
1.11583e-06
1.12943e-06
1.12994e-06
1.34321e-06
1.35195e-06
1.11658e-06
1.11775e-06
1.12983e-06
1.12812e-06
1.11248e-06
1.13034e-06
1.12951e-06
1.34431e-06
1.34969e-06
1.11413e-06
1.12842e-06
1.13167e-06
1.35246e-06
1.35607e-06
1.36044e-06
1.13469e-06
1.1349e-06
1.14162e-06
1.14108e-06
1.35682e-06
1.3595e-06
1.13457e-06
1.1333e-06
1.1408e-06
1.14106e-06
1.13496e-06
1.14076e-06
1.14113e-06
1.35473e-06
1.36031e-06
1.13698e-06
1.14267e-06
1.14271e-06
1.36162e-06
1.36186e-06
1.36781e-06
1.14222e-06
1.14162e-06
1.15026e-06
1.14975e-06
1.36072e-06
1.36665e-06
1.14141e-06
1.14178e-06
1.14986e-06
1.15036e-06
1.14155e-06
1.14974e-06
1.14922e-06
1.36171e-06
1.367e-06
1.14299e-06
1.15033e-06
1.14949e-06
1.36713e-06
1.37549e-06
1.39783e-06
1.15689e-06
1.15647e-06
1.17451e-06
1.17445e-06
1.37452e-06
1.39757e-06
1.15666e-06
1.15718e-06
1.17435e-06
1.17442e-06
1.15584e-06
1.17466e-06
1.17451e-06
1.37455e-06
1.39687e-06
1.15566e-06
1.17388e-06
1.17367e-06
1.39773e-06
1.40019e-06
1.37452e-06
1.1753e-06
1.17527e-06
1.16422e-06
1.16423e-06
1.39999e-06
1.3746e-06
1.17511e-06
1.17507e-06
1.16402e-06
1.16349e-06
1.17548e-06
1.16419e-06
1.16474e-06
1.39921e-06
1.3734e-06
1.17464e-06
1.16328e-06
1.16402e-06
1.375e-06
1.37262e-06
1.33563e-06
1.15682e-06
1.15687e-06
1.13535e-06
1.13535e-06
1.37272e-06
1.33571e-06
1.15665e-06
1.15605e-06
1.13526e-06
1.13469e-06
1.15739e-06
1.13531e-06
1.13595e-06
1.3715e-06
1.33497e-06
1.15673e-06
1.13456e-06
1.13551e-06
1.33623e-06
1.33593e-06
1.34397e-06
1.13195e-06
1.1319e-06
1.13539e-06
1.13517e-06
1.336e-06
1.34371e-06
1.13189e-06
1.13137e-06
1.13541e-06
1.13509e-06
1.13251e-06
1.13532e-06
1.13582e-06
1.3353e-06
1.34372e-06
1.13214e-06
1.13479e-06
1.13556e-06
1.34422e-06
1.35475e-06
1.41908e-06
1.14572e-06
1.14542e-06
1.19349e-06
1.19328e-06
1.35442e-06
1.41879e-06
1.14578e-06
1.14555e-06
1.1935e-06
1.19337e-06
1.14607e-06
1.19343e-06
1.19373e-06
1.35453e-06
1.41884e-06
1.14584e-06
1.19283e-06
1.19343e-06
1.41904e-06
1.43465e-06
1.48044e-06
1.20914e-06
1.20901e-06
1.24301e-06
1.24309e-06
1.43441e-06
1.48045e-06
1.2091e-06
1.20899e-06
1.2429e-06
1.24284e-06
1.20936e-06
1.24306e-06
1.24324e-06
1.4344e-06
1.48019e-06
1.20905e-06
1.24249e-06
1.24299e-06
1.48054e-06
1.48864e-06
1.50182e-06
1.25015e-06
1.25028e-06
1.26162e-06
1.26183e-06
1.48869e-06
1.502e-06
1.25004e-06
1.24998e-06
1.26149e-06
1.26144e-06
1.25039e-06
1.26172e-06
1.26186e-06
1.48838e-06
1.50162e-06
1.25016e-06
1.26134e-06
1.2617e-06
1.50205e-06
1.50382e-06
1.47021e-06
1.26211e-06
1.26232e-06
1.24618e-06
1.24636e-06
1.50402e-06
1.47036e-06
1.26198e-06
1.26194e-06
1.24604e-06
1.24605e-06
1.26234e-06
1.2462e-06
1.24632e-06
1.50364e-06
1.47021e-06
1.2622e-06
1.24616e-06
1.24627e-06
1.47041e-06
1.46536e-06
1.37283e-06
1.23281e-06
1.23296e-06
1.17645e-06
1.17652e-06
1.4655e-06
1.37283e-06
1.23267e-06
1.2327e-06
1.17632e-06
1.17643e-06
1.23292e-06
1.17638e-06
1.17647e-06
1.46538e-06
1.37296e-06
1.23289e-06
1.17653e-06
1.17647e-06
1.37289e-06
1.36596e-06
1.29187e-06
1.15699e-06
1.15703e-06
1.10953e-06
1.10955e-06
1.36596e-06
1.29182e-06
1.15686e-06
1.15699e-06
1.1094e-06
1.10959e-06
1.157e-06
1.10945e-06
1.10953e-06
1.3661e-06
1.29204e-06
1.15699e-06
1.10957e-06
1.10951e-06
1.2919e-06
1.28987e-06
1.27488e-06
1.09917e-06
1.09918e-06
1.08619e-06
1.0862e-06
1.28982e-06
1.27482e-06
1.09904e-06
1.09924e-06
1.08606e-06
1.08627e-06
1.09918e-06
1.08609e-06
1.08622e-06
1.29004e-06
1.27501e-06
1.09914e-06
1.08617e-06
1.08614e-06
1.27492e-06
1.2793e-06
1.31122e-06
1.08643e-06
1.08645e-06
1.10555e-06
1.10558e-06
1.27925e-06
1.31117e-06
1.0863e-06
1.08651e-06
1.10543e-06
1.10561e-06
1.08646e-06
1.10546e-06
1.1056e-06
1.27942e-06
1.31128e-06
1.08638e-06
1.10549e-06
1.10548e-06
1.31128e-06
1.3213e-06
1.35569e-06
1.11421e-06
1.11425e-06
1.13662e-06
1.13667e-06
1.32125e-06
1.35563e-06
1.1141e-06
1.11427e-06
1.13652e-06
1.13667e-06
1.11427e-06
1.13654e-06
1.13668e-06
1.32135e-06
1.35572e-06
1.11415e-06
1.13658e-06
1.13658e-06
1.35574e-06
1.36419e-06
1.38728e-06
1.14281e-06
1.14285e-06
1.15697e-06
1.15702e-06
1.36415e-06
1.38723e-06
1.14271e-06
1.14286e-06
1.15688e-06
1.15703e-06
1.14288e-06
1.15689e-06
1.15705e-06
1.36423e-06
1.38732e-06
1.14277e-06
1.15695e-06
1.15695e-06
1.38735e-06
1.39329e-06
1.4054e-06
1.16031e-06
1.16035e-06
1.16696e-06
1.167e-06
1.39324e-06
1.40535e-06
1.16022e-06
1.16037e-06
1.16687e-06
1.16703e-06
1.16038e-06
1.16688e-06
1.16704e-06
1.39332e-06
1.40544e-06
1.16029e-06
1.16695e-06
1.16696e-06
1.40548e-06
1.4093e-06
1.41416e-06
1.16836e-06
1.1684e-06
1.17098e-06
1.17102e-06
1.40925e-06
1.41411e-06
1.16827e-06
1.16843e-06
1.17089e-06
1.17105e-06
1.16844e-06
1.1709e-06
1.17106e-06
1.40934e-06
1.4142e-06
1.16836e-06
1.17097e-06
1.17097e-06
1.41424e-06
1.41687e-06
1.41785e-06
1.17151e-06
1.17155e-06
1.17242e-06
1.17245e-06
1.41682e-06
1.41779e-06
1.17142e-06
1.17158e-06
1.17233e-06
1.17248e-06
1.1716e-06
1.17233e-06
1.1725e-06
1.41691e-06
1.41788e-06
1.17151e-06
1.17241e-06
1.17241e-06
1.41792e-06
1.41995e-06
1.41904e-06
1.17257e-06
1.1726e-06
1.17271e-06
1.17274e-06
1.4199e-06
1.41899e-06
1.17248e-06
1.17263e-06
1.17262e-06
1.17277e-06
1.17265e-06
1.17262e-06
1.17279e-06
1.41998e-06
1.41908e-06
1.17256e-06
1.17269e-06
1.1727e-06
1.41912e-06
1.4209e-06
1.41923e-06
1.17271e-06
1.17274e-06
1.17264e-06
1.17267e-06
1.42085e-06
1.41918e-06
1.17262e-06
1.17277e-06
1.17255e-06
1.1727e-06
1.17279e-06
1.17255e-06
1.17272e-06
1.42093e-06
1.41927e-06
1.1727e-06
1.17263e-06
1.17263e-06
1.41931e-06
1.42104e-06
1.41921e-06
1.17262e-06
1.17266e-06
1.17265e-06
1.17268e-06
1.42099e-06
1.41917e-06
1.17253e-06
1.17269e-06
1.17256e-06
1.17271e-06
1.17271e-06
1.17256e-06
1.17273e-06
1.42107e-06
1.41925e-06
1.17262e-06
1.17263e-06
1.17264e-06
1.41929e-06
1.42112e-06
1.41947e-06
1.17271e-06
1.17274e-06
1.17274e-06
1.17278e-06
1.42108e-06
1.41942e-06
1.17262e-06
1.17277e-06
1.17265e-06
1.17281e-06
1.17279e-06
1.17266e-06
1.17283e-06
1.42115e-06
1.41951e-06
1.1727e-06
1.17273e-06
1.17274e-06
1.41955e-06
1.42128e-06
1.41915e-06
1.17272e-06
1.17276e-06
1.17263e-06
1.17267e-06
1.42123e-06
1.41909e-06
1.17263e-06
1.17279e-06
1.17254e-06
1.1727e-06
1.17281e-06
1.17255e-06
1.17272e-06
1.42131e-06
1.41918e-06
1.17272e-06
1.17262e-06
1.17263e-06
1.41922e-06
1.42097e-06
1.4194e-06
1.17264e-06
1.17268e-06
1.1727e-06
1.17273e-06
1.42093e-06
1.41935e-06
1.17255e-06
1.17271e-06
1.17261e-06
1.17277e-06
1.17272e-06
1.17261e-06
1.17278e-06
1.42101e-06
1.41944e-06
1.17264e-06
1.17269e-06
1.17269e-06
1.41948e-06
1.42127e-06
1.41932e-06
1.17272e-06
1.17275e-06
1.17267e-06
1.1727e-06
1.42123e-06
1.41925e-06
1.17263e-06
1.17278e-06
1.17258e-06
1.17273e-06
1.1728e-06
1.17258e-06
1.17275e-06
1.42131e-06
1.41934e-06
1.17271e-06
1.17265e-06
1.17266e-06
1.41938e-06
1.42111e-06
1.41924e-06
1.17266e-06
1.1727e-06
1.17266e-06
1.1727e-06
1.42105e-06
1.4192e-06
1.17258e-06
1.17273e-06
1.17257e-06
1.17273e-06
1.17275e-06
1.17257e-06
1.17274e-06
1.42113e-06
1.41929e-06
1.17266e-06
1.17265e-06
1.17265e-06
1.41933e-06
1.42112e-06
1.41942e-06
1.17268e-06
1.17272e-06
1.17267e-06
1.17271e-06
1.42108e-06
1.41936e-06
1.17259e-06
1.17275e-06
1.17258e-06
1.17274e-06
1.17277e-06
1.17259e-06
1.17276e-06
1.42116e-06
1.41945e-06
1.17268e-06
1.17266e-06
1.17267e-06
1.41949e-06
1.42124e-06
1.41919e-06
1.17268e-06
1.17272e-06
1.17265e-06
1.17269e-06
1.42118e-06
1.41914e-06
1.1726e-06
1.17275e-06
1.17257e-06
1.17272e-06
1.17277e-06
1.17257e-06
1.17274e-06
1.42126e-06
1.41924e-06
1.17268e-06
1.17264e-06
1.17265e-06
1.41927e-06
1.42105e-06
1.41943e-06
1.17268e-06
1.17272e-06
1.17266e-06
1.1727e-06
1.42101e-06
1.41937e-06
1.17259e-06
1.17275e-06
1.17257e-06
1.17273e-06
1.17277e-06
1.17257e-06
1.17275e-06
1.42109e-06
1.41946e-06
1.17267e-06
1.17265e-06
1.17265e-06
1.4195e-06
1.42124e-06
1.4192e-06
1.17269e-06
1.17273e-06
1.17264e-06
1.17268e-06
1.42119e-06
1.41915e-06
1.1726e-06
1.17276e-06
1.17255e-06
1.17271e-06
1.17278e-06
1.17255e-06
1.17272e-06
1.42127e-06
1.41924e-06
1.17268e-06
1.17263e-06
1.17263e-06
1.41927e-06
1.42105e-06
1.41942e-06
1.17269e-06
1.17273e-06
1.17264e-06
1.17268e-06
1.42102e-06
1.41935e-06
1.1726e-06
1.17276e-06
1.17255e-06
1.17271e-06
1.17277e-06
1.17255e-06
1.17273e-06
1.42109e-06
1.41945e-06
1.17268e-06
1.17263e-06
1.17263e-06
1.41949e-06
1.42122e-06
1.41923e-06
1.1727e-06
1.17274e-06
1.17262e-06
1.17266e-06
1.42115e-06
1.4192e-06
1.17261e-06
1.17277e-06
1.17253e-06
1.17269e-06
1.17279e-06
1.17253e-06
1.1727e-06
1.42124e-06
1.41928e-06
1.17269e-06
1.17261e-06
1.17261e-06
1.41931e-06
1.4211e-06
1.41936e-06
1.17271e-06
1.17275e-06
1.17261e-06
1.17264e-06
1.42108e-06
1.41927e-06
1.17263e-06
1.17278e-06
1.17252e-06
1.17268e-06
1.1728e-06
1.17252e-06
1.17269e-06
1.42115e-06
1.41937e-06
1.17271e-06
1.1726e-06
1.1726e-06
1.41942e-06
1.42116e-06
1.41931e-06
1.17274e-06
1.17277e-06
1.17259e-06
1.17263e-06
1.42107e-06
1.41929e-06
1.17265e-06
1.17281e-06
1.17251e-06
1.17266e-06
1.17282e-06
1.17251e-06
1.17268e-06
1.42117e-06
1.41938e-06
1.17273e-06
1.17258e-06
1.17258e-06
1.4194e-06
1.42119e-06
1.41904e-06
1.17277e-06
1.17281e-06
1.1722e-06
1.17223e-06
1.42116e-06
1.41898e-06
1.17269e-06
1.17284e-06
1.17211e-06
1.17226e-06
1.17286e-06
1.17211e-06
1.17228e-06
1.42124e-06
1.41908e-06
1.17276e-06
1.17218e-06
1.17218e-06
1.41911e-06
1.42076e-06
1.4003e-06
1.17248e-06
1.17252e-06
1.15165e-06
1.15168e-06
1.42072e-06
1.40029e-06
1.17239e-06
1.17255e-06
1.15163e-06
1.15164e-06
1.17257e-06
1.15169e-06
1.15171e-06
1.4208e-06
1.40032e-06
1.17246e-06
1.15168e-06
1.15168e-06
1.40035e-06
1.37904e-06
1.11547e-06
1.1155e-06
1.37904e-06
1.11547e-06
1.11546e-06
6.37543e-07
6.37514e-07
6.3756e-07
1.11553e-06
1.37905e-06
1.11552e-06
1.14466e-08
2.8253e-09
7.15772e-09
7.14872e-09
1.70412e-09
4.9922e-09
6.17405e-08
4.09649e-09
1.5233e-09
4.62992e-09
4.03987e-09
1.46074e-08
5.20478e-09
3.61542e-09
8.0494e-09
7.56473e-09
1.59483e-07
5.90553e-09
2.54781e-07
1.52058e-06
3.02467e-06
7.9339e-09
1.70399e-07
6.30382e-09
2.68515e-07
4.58761e-09
4.47261e-09
4.34624e-09
4.36891e-09
4.57697e-09
4.46474e-09
4.33403e-09
1.55246e-09
1.32525e-07
2.88724e-09
6.26447e-09
1.63551e-09
1.10789e-07
2.7968e-09
1.52425e-06
3.04145e-06
1.49363e-09
3.36329e-09
9.69146e-08
5.97239e-09
1.51898e-09
3.31021e-09
7.33859e-08
2.15871e-07
2.178e-07
4.79423e-09
1.85507e-07
1.8678e-07
1.7336e-08
4.61092e-07
1.23362e-08
6.76412e-07
6.88774e-06
9.86635e-06
1.69954e-08
4.73902e-07
1.26378e-08
6.94633e-07
4.57072e-09
4.45915e-09
4.32843e-09