/*--------------------------------*- C++ -*----------------------------------*\
| =========                 |                                                 |
| \\      /  F ield         | OpenFOAM: The Open Source CFD Toolbox           |
|  \\    /   O peration     | Version:  v2012                                 |
|   \\  /    A nd           | Website:  www.openfoam.com                      |
|    \\/     M anipulation  |                                                 |
\*---------------------------------------------------------------------------*/
FoamFile
{
    version     2.0;
    format      ascii;
    class       volScalarField;
    location    "287.5";
    object      k;
}
// * * * * * * * * * * * * * * * * * * * * * * * * * * * * * * * * * * * * * //

dimensions      [0 2 -2 0 0 0 0];


internalField   nonuniform List<scalar> 
171728
(
6.27992e-07
6.57263e-07
4.00867e-07
3.50577e-07
6.20672e-07
4.87834e-07
3.89265e-07
3.32313e-07
6.26291e-07
3.15903e-07
3.7864e-07
3.1611e-07
6.32502e-07
2.58652e-07
3.69806e-07
3.01082e-07
6.39237e-07
2.46372e-07
3.62732e-07
2.87853e-07
6.4649e-07
2.40302e-07
3.5825e-07
2.76114e-07
6.54123e-07
2.35089e-07
3.5915e-07
2.6502e-07
6.62048e-07
2.2771e-07
3.60816e-07
2.54402e-07
6.70496e-07
2.19384e-07
3.62923e-07
2.44422e-07
6.79538e-07
2.10717e-07
3.53514e-07
2.36039e-07
6.88524e-07
2.04596e-07
3.12384e-07
2.28679e-07
6.98308e-07
2.00029e-07
2.63712e-07
2.22358e-07
7.08753e-07
1.96083e-07
2.2682e-07
2.1706e-07
7.19502e-07
1.96156e-07
2.05372e-07
2.13144e-07
7.30799e-07
1.99608e-07
1.99846e-07
2.12082e-07
7.41741e-07
2.07683e-07
2.01498e-07
2.14949e-07
7.53778e-07
2.34224e-07
2.09864e-07
2.23418e-07
7.65839e-07
2.91909e-07
2.27144e-07
2.41133e-07
7.80192e-07
4.03436e-07
2.62401e-07
2.78378e-07
7.9374e-07
6.08279e-07
3.27902e-07
3.63874e-07
8.09875e-07
8.29388e-07
4.18626e-07
4.89699e-07
8.27684e-07
1.06164e-06
5.6478e-07
7.35268e-07
8.4512e-07
1.23652e-06
8.70401e-07
1.04121e-06
8.63206e-07
1.31689e-06
1.06011e-06
1.77079e-06
8.81173e-07
1.31166e-06
1.45735e-06
2.68366e-06
8.94159e-07
2.1289e-06
1.94251e-06
3.85863e-06
9.10206e-07
2.19136e-06
2.31297e-06
6.0377e-06
9.34858e-07
2.78056e-06
2.75195e-06
7.93033e-06
9.6745e-07
3.85778e-06
3.86249e-06
9.80585e-06
1.02316e-06
4.13797e-06
4.60826e-06
1.30668e-05
1.06155e-06
5.94038e-06
5.27609e-06
1.52369e-05
1.15646e-06
6.04712e-06
6.94849e-06
1.73587e-05
1.24407e-06
8.48738e-06
7.47299e-06
2.00317e-05
1.37177e-06
9.00221e-06
9.71554e-06
2.18888e-05
1.48842e-06
1.08511e-05
1.05116e-05
2.29049e-05
1.76509e-06
1.21026e-05
1.20533e-05
2.65772e-05
1.97654e-06
1.41032e-05
1.43192e-05
2.64839e-05
2.24267e-06
1.55167e-05
1.53332e-05
2.85456e-05
2.60185e-06
1.7938e-05
1.73942e-05
2.9369e-05
3.09191e-06
1.84604e-05
1.93245e-05
3.13528e-05
3.78403e-06
2.19628e-05
2.16884e-05
3.21698e-05
3.87737e-06
2.28167e-05
2.21365e-05
3.26967e-05
5.10134e-06
2.44298e-05
2.51e-05
3.49003e-05
5.55918e-06
2.67674e-05
2.67132e-05
3.54303e-05
6.44491e-06
2.8277e-05
2.79426e-05
3.69331e-05
7.47786e-06
2.95252e-05
3.00617e-05
3.73979e-05
8.35335e-06
3.18169e-05
3.11924e-05
3.90483e-05
1.0006e-05
3.29787e-05
3.3387e-05
3.98057e-05
1.07281e-05
3.43802e-05
3.43905e-05
4.07625e-05
1.25012e-05
3.60941e-05
3.58026e-05
4.21498e-05
1.36067e-05
3.71357e-05
3.74841e-05
4.26058e-05
1.53451e-05
3.84597e-05
3.82486e-05
4.37467e-05
1.66345e-05
3.96704e-05
3.96256e-05
4.44144e-05
1.79699e-05
4.08443e-05
4.12091e-05
4.5503e-05
2.0288e-05
4.18931e-05
4.15054e-05
4.6246e-05
2.08103e-05
4.24556e-05
4.27121e-05
4.65844e-05
2.27156e-05
4.38614e-05
4.40659e-05
4.74885e-05
2.40503e-05
4.48379e-05
4.45515e-05
4.83972e-05
2.6061e-05
4.56614e-05
4.57273e-05
4.91108e-05
2.65478e-05
4.57157e-05
4.58054e-05
4.89755e-05
2.87453e-05
4.80088e-05
4.79861e-05
5.11864e-05
3.04328e-05
4.8301e-05
4.82721e-05
5.10864e-05
2.98407e-05
4.628e-05
4.62701e-05
4.88499e-05
2.86166e-05
4.55327e-05
4.55362e-05
4.8221e-05
3.083e-05
4.87532e-05
4.87449e-05
5.15381e-05
3.62063e-05
5.25009e-05
5.24781e-05
5.50263e-05
3.92996e-05
5.45347e-05
5.45086e-05
5.6778e-05
4.02513e-05
5.48885e-05
5.48708e-05
5.67705e-05
3.74607e-05
5.08978e-05
5.09042e-05
5.2751e-05
3.21056e-05
4.62768e-05
4.62863e-05
4.83796e-05
2.8927e-05
4.45052e-05
4.45117e-05
4.68513e-05
2.89948e-05
4.58393e-05
4.58402e-05
4.84701e-05
3.39592e-05
4.85987e-05
4.8599e-05
5.09032e-05
3.75735e-05
5.0544e-05
5.05445e-05
5.2686e-05
3.94957e-05
5.15572e-05
5.15578e-05
5.36445e-05
4.03405e-05
5.19895e-05
5.19901e-05
5.40787e-05
4.0695e-05
5.21624e-05
5.21629e-05
5.42533e-05
4.08165e-05
5.22094e-05
5.221e-05
5.43079e-05
4.08303e-05
5.22076e-05
5.22082e-05
5.43175e-05
4.08345e-05
5.22064e-05
5.22068e-05
5.43053e-05
4.0843e-05
5.22166e-05
5.2217e-05
5.43308e-05
4.0838e-05
5.22074e-05
5.22079e-05
5.43112e-05
4.08401e-05
5.2213e-05
5.22135e-05
5.43204e-05
4.08392e-05
5.22105e-05
5.2211e-05
5.4323e-05
4.08388e-05
5.22102e-05
5.22107e-05
5.43107e-05
4.08392e-05
5.22114e-05
5.22119e-05
5.43265e-05
4.08388e-05
5.22104e-05
5.22108e-05
5.43103e-05
4.08389e-05
5.22115e-05
5.2212e-05
5.43261e-05
4.08387e-05
5.22105e-05
5.22109e-05
5.431e-05
4.08388e-05
5.22116e-05
5.2212e-05
5.43259e-05
4.08389e-05
5.22116e-05
5.2212e-05
5.431e-05
4.08392e-05
5.22126e-05
5.22131e-05
5.43247e-05
4.08393e-05
5.22141e-05
5.22145e-05
5.43149e-05
4.08285e-05
5.21973e-05
5.21975e-05
5.43102e-05
4.03992e-05
5.10598e-05
5.10586e-05
5.39834e-05
3.66162e-07
3.23543e-07
3.29841e-07
3.55273e-07
3.11737e-07
3.17853e-07
6.42505e-07
6.39597e-07
6.54282e-07
6.42218e-07
3.67756e-07
3.40321e-07
3.54284e-07
3.64308e-07
3.3452e-07
3.53139e-07
3.64942e-07
3.45963e-07
3.10618e-07
3.30948e-07
3.04059e-07
3.183e-07
3.52944e-07
3.44003e-07
3.14292e-07
3.03051e-07
3.04806e-07
2.96724e-07
3.44815e-07
5.42747e-07
3.31476e-07
3.53021e-07
3.38748e-07
3.60274e-07
3.92226e-07
3.52914e-07
3.35307e-07
3.44521e-07
3.27373e-07
3.01846e-07
3.13902e-07
2.95184e-07
3.00892e-07
3.40396e-07
3.20492e-07
3.01713e-07
2.94768e-07
2.93417e-07
2.89304e-07
3.27117e-07
3.47453e-07
3.14727e-07
3.36227e-07
3.24924e-07
3.49668e-07
3.81127e-07
3.37968e-07
3.18787e-07
3.26078e-07
3.10981e-07
2.92957e-07
2.96608e-07
2.85855e-07
2.83955e-07
3.18696e-07
3.01578e-07
2.9112e-07
2.87564e-07
2.84536e-07
2.82594e-07
3.11096e-07
2.65859e-07
3.01619e-07
3.22566e-07
3.12465e-07
3.3432e-07
3.7172e-07
3.24752e-07
3.035e-07
3.09547e-07
2.9648e-07
2.83671e-07
2.79921e-07
2.78565e-07
2.68878e-07
3.00522e-07
2.87095e-07
2.82224e-07
2.8111e-07
2.74471e-07
2.7664e-07
2.98626e-07
2.48267e-07
2.89876e-07
3.10137e-07
3.01406e-07
3.21826e-07
3.64144e-07
3.1243e-07
2.90139e-07
2.94891e-07
2.83979e-07
2.77302e-07
2.65444e-07
2.74542e-07
2.55937e-07
2.86128e-07
2.73959e-07
2.71648e-07
2.75169e-07
2.63621e-07
2.70684e-07
2.86914e-07
2.41685e-07
2.78335e-07
2.99388e-07
2.92101e-07
3.09534e-07
3.59014e-07
3.01297e-07
2.78214e-07
2.82368e-07
2.7284e-07
2.73892e-07
2.52955e-07
2.72088e-07
2.45313e-07
2.73048e-07
2.62383e-07
2.61227e-07
2.6914e-07
2.55098e-07
2.65042e-07
2.7555e-07
2.36406e-07
2.67982e-07
2.90362e-07
2.84137e-07
2.97974e-07
3.58472e-07
2.86589e-07
2.67013e-07
2.71138e-07
2.62555e-07
2.71424e-07
2.43057e-07
2.69536e-07
2.37431e-07
2.61643e-07
2.51964e-07
2.5329e-07
2.63656e-07
2.47589e-07
2.60514e-07
2.65657e-07
2.2984e-07
2.59252e-07
2.8263e-07
2.7773e-07
2.82758e-07
3.60435e-07
2.71304e-07
2.56215e-07
2.61479e-07
2.53887e-07
2.68894e-07
2.35834e-07
2.66803e-07
2.31264e-07
2.51243e-07
2.41525e-07
2.45601e-07
2.59491e-07
2.3958e-07
2.57362e-07
2.57354e-07
2.21446e-07
2.5222e-07
2.76271e-07
2.72344e-07
2.67366e-07
3.62672e-07
2.55976e-07
2.46074e-07
2.53235e-07
2.46075e-07
2.66085e-07
2.3019e-07
2.64552e-07
2.26622e-07
2.40808e-07
2.30355e-07
2.37653e-07
2.56653e-07
2.31892e-07
2.54524e-07
2.50692e-07
2.12884e-07
2.46359e-07
2.71145e-07
2.67191e-07
2.52452e-07
3.59916e-07
2.43594e-07
2.36849e-07
2.45501e-07
2.38299e-07
2.64074e-07
2.25324e-07
2.62976e-07
2.22337e-07
2.29665e-07
2.20249e-07
2.29761e-07
2.53644e-07
2.22908e-07
2.5152e-07
2.44939e-07
2.0575e-07
2.411e-07
2.65565e-07
2.53962e-07
2.41203e-07
3.24544e-07
2.3575e-07
2.29199e-07
2.37797e-07
2.31092e-07
2.62973e-07
2.21253e-07
2.62982e-07
2.19708e-07
2.19696e-07
2.12121e-07
2.20734e-07
2.50767e-07
2.15014e-07
2.49691e-07
2.39977e-07
2.01173e-07
2.36944e-07
2.51946e-07
2.35702e-07
2.34393e-07
2.75091e-07
2.31453e-07
2.22738e-07
2.30725e-07
2.24807e-07
2.62954e-07
2.19749e-07
2.62698e-07
2.2071e-07
2.11768e-07
2.05588e-07
2.13289e-07
2.4974e-07
2.08836e-07
2.50858e-07
2.36171e-07
1.96877e-07
2.34665e-07
2.34435e-07
2.23566e-07
2.30732e-07
2.34727e-07
2.29142e-07
2.17256e-07
2.24623e-07
2.20243e-07
2.62743e-07
2.21779e-07
2.6342e-07
2.27729e-07
2.05441e-07
2.01203e-07
2.07622e-07
2.51776e-07
2.06313e-07
2.55398e-07
2.34359e-07
1.95906e-07
2.33936e-07
2.23023e-07
2.15585e-07
2.28787e-07
2.09318e-07
2.28469e-07
2.13049e-07
2.20349e-07
2.17514e-07
2.63898e-07
2.30267e-07
2.65552e-07
2.38846e-07
2.01352e-07
1.99574e-07
2.05783e-07
2.57069e-07
2.05661e-07
2.64162e-07
2.33997e-07
1.98881e-07
2.35099e-07
2.15483e-07
2.11601e-07
2.28627e-07
2.00112e-07
2.3013e-07
2.11396e-07
2.17972e-07
2.16143e-07
2.66061e-07
2.41642e-07
2.66573e-07
2.49741e-07
2.00081e-07
2.00178e-07
2.05974e-07
2.67428e-07
2.09201e-07
2.78942e-07
2.35993e-07
2.04752e-07
2.40206e-07
2.12221e-07
2.134e-07
2.31118e-07
2.00859e-07
2.35016e-07
2.13241e-07
2.17138e-07
2.19227e-07
2.66443e-07
2.51511e-07
2.67822e-07
2.53119e-07
2.0152e-07
2.05401e-07
2.10983e-07
2.83458e-07
2.18437e-07
3.03358e-07
2.42512e-07
2.24725e-07
2.50251e-07
2.15011e-07
2.22159e-07
2.37118e-07
2.07107e-07
2.44622e-07
2.19825e-07
2.21589e-07
2.3371e-07
2.68602e-07
2.51e-07
2.7664e-07
2.43792e-07
2.09017e-07
2.21813e-07
2.21659e-07
3.11779e-07
2.38742e-07
3.47124e-07
2.54462e-07
2.72092e-07
2.66397e-07
2.26175e-07
2.44435e-07
2.4874e-07
2.23656e-07
2.60638e-07
2.35525e-07
2.39753e-07
2.66226e-07
2.80092e-07
2.44697e-07
3.0067e-07
2.57937e-07
2.28682e-07
2.76904e-07
2.4583e-07
3.6008e-07
2.76688e-07
4.10631e-07
2.72926e-07
3.67154e-07
2.94065e-07
2.52188e-07
2.8492e-07
2.67331e-07
2.53657e-07
2.88093e-07
2.69004e-07
2.8007e-07
3.26318e-07
3.10176e-07
2.60129e-07
3.38275e-07
2.95379e-07
2.87568e-07
3.86075e-07
2.90935e-07
4.27545e-07
3.36419e-07
4.90449e-07
3.01161e-07
5.51494e-07
3.44026e-07
3.03839e-07
3.49607e-07
2.95904e-07
3.07037e-07
3.39215e-07
3.41318e-07
3.42807e-07
4.73873e-07
3.5475e-07
3.08293e-07
4.09757e-07
3.84444e-07
4.21396e-07
5.57536e-07
3.59286e-07
5.09942e-07
4.36084e-07
5.85091e-07
3.53685e-07
7.65455e-07
4.0791e-07
3.81699e-07
4.76899e-07
3.48894e-07
3.85608e-07
4.02856e-07
4.29331e-07
5.00501e-07
7.23412e-07
4.34624e-07
4.33595e-07
5.17644e-07
5.77594e-07
6.37374e-07
9.37281e-07
4.69716e-07
6.13406e-07
5.90165e-07
6.89278e-07
4.32781e-07
1.04251e-06
5.20188e-07
5.16845e-07
7.08521e-07
4.2905e-07
5.426e-07
5.14938e-07
6.61609e-07
7.73492e-07
1.09268e-06
5.47082e-07
5.94822e-07
6.55571e-07
7.61854e-07
9.56686e-07
9.89851e-07
6.34497e-07
7.28905e-07
7.782e-07
7.91116e-07
5.51775e-07
1.11611e-06
6.55649e-07
7.69771e-07
1.03778e-06
5.49532e-07
7.82001e-07
6.41207e-07
9.51988e-07
1.20548e-06
1.75052e-06
7.05775e-07
9.3803e-07
9.15702e-07
1.16941e-06
1.25377e-06
2.26265e-06
8.44783e-07
8.57276e-07
1.10684e-06
9.90762e-07
7.12098e-07
1.35281e-06
8.90815e-07
1.15189e-06
1.70158e-06
7.0215e-07
9.73633e-07
8.86938e-07
1.66859e-06
1.9512e-06
2.48004e-06
9.43608e-07
1.19479e-06
1.24004e-06
1.57077e-06
2.25551e-06
2.50055e-06
1.13833e-06
1.00576e-06
1.45793e-06
1.32775e-06
9.51499e-07
1.28304e-06
1.17719e-06
1.7377e-06
2.90116e-06
9.29413e-07
1.42972e-06
1.18761e-06
2.43593e-06
2.85959e-06
3.60922e-06
1.35828e-06
1.63835e-06
1.49624e-06
1.99477e-06
2.85419e-06
4.41155e-06
1.60814e-06
1.39322e-06
1.74405e-06
1.48284e-06
1.28357e-06
1.92673e-06
1.56243e-06
3.07489e-06
3.14929e-06
1.31142e-06
1.71431e-06
1.50659e-06
3.76893e-06
3.69706e-06
6.44004e-06
1.6421e-06
2.25038e-06
2.27473e-06
2.48866e-06
5.1628e-06
5.80555e-06
1.84172e-06
1.67932e-06
2.48593e-06
2.2062e-06
1.66229e-06
2.22341e-06
2.08032e-06
3.53198e-06
6.22194e-06
1.60715e-06
2.27972e-06
2.09759e-06
5.52526e-06
6.56688e-06
6.29637e-06
2.31161e-06
2.46609e-06
2.48023e-06
2.49841e-06
5.61973e-06
6.29524e-06
2.53727e-06
2.26481e-06
2.618e-06
2.46898e-06
2.24404e-06
2.40174e-06
2.66302e-06
6.27947e-06
6.2274e-06
2.24817e-06
2.54755e-06
2.67284e-06
7.47629e-06
6.95883e-06
1.0552e-05
2.85292e-06
2.77491e-06
3.41884e-06
4.08153e-06
7.67105e-06
1.11056e-05
2.85572e-06
2.69575e-06
3.36925e-06
3.60305e-06
2.82624e-06
3.71896e-06
3.36192e-06
6.84663e-06
1.06074e-05
2.80557e-06
3.68524e-06
3.2908e-06
9.27493e-06
1.06988e-05
1.25563e-05
3.52788e-06
4.23396e-06
4.42592e-06
4.37652e-06
1.12905e-05
1.14834e-05
3.5607e-06
3.73597e-06
4.6011e-06
4.19022e-06
3.52191e-06
3.98231e-06
4.34262e-06
1.10426e-05
1.20116e-05
3.56258e-06
4.31838e-06
4.38568e-06
1.2655e-05
1.33446e-05
1.40724e-05
4.58544e-06
4.52816e-06
4.88621e-06
5.86018e-06
1.16884e-05
1.6425e-05
4.75218e-06
4.52942e-06
4.96416e-06
5.06488e-06
4.64345e-06
5.75726e-06
5.13792e-06
1.2361e-05
1.48437e-05
4.51386e-06
5.1383e-06
5.13048e-06
1.47055e-05
1.43856e-05
1.79001e-05
5.29085e-06
6.05735e-06
6.6294e-06
6.1546e-06
1.68654e-05
1.5891e-05
5.24967e-06
5.25652e-06
6.53114e-06
6.57168e-06
5.43439e-06
5.98849e-06
6.37707e-06
1.55253e-05
1.70861e-05
5.5372e-06
6.57986e-06
6.36954e-06
1.7005e-05
1.83305e-05
1.89763e-05
6.78229e-06
6.20438e-06
7.31976e-06
7.88417e-06
1.59706e-05
2.03559e-05
6.68827e-06
6.97186e-06
7.28879e-06
7.38137e-06
6.49652e-06
7.95441e-06
7.4242e-06
1.7699e-05
1.92842e-05
6.45116e-06
7.30836e-06
7.40768e-06
1.93354e-05
1.9388e-05
2.16974e-05
7.79581e-06
8.50976e-06
8.96419e-06
9.14984e-06
2.1108e-05
2.15756e-05
7.81339e-06
7.50117e-06
9.03031e-06
9.2913e-06
8.16436e-06
8.92822e-06
9.41366e-06
1.95523e-05
2.17958e-05
8.12254e-06
9.34647e-06
9.3267e-06
2.17589e-05
2.21632e-05
2.29596e-05
9.2899e-06
9.23368e-06
1.02347e-05
1.06156e-05
2.1728e-05
2.32039e-05
9.2735e-06
9.79209e-06
1.00072e-05
1.02458e-05
9.47221e-06
1.03394e-05
9.609e-06
2.24958e-05
2.31834e-05
9.39186e-06
1.01172e-05
9.61502e-06
2.21858e-05
2.32938e-05
2.52806e-05
1.04896e-05
1.11238e-05
1.18539e-05
1.16402e-05
2.39402e-05
2.49676e-05
1.0359e-05
1.05369e-05
1.21039e-05
1.17101e-05
1.00142e-05
1.17172e-05
1.29615e-05
2.33808e-05
2.49944e-05
1.01394e-05
1.16192e-05
1.29458e-05
2.63951e-05
2.57483e-05
2.65539e-05
1.25296e-05
1.18856e-05
1.38313e-05
1.38757e-05
2.52382e-05
2.66865e-05
1.27107e-05
1.20996e-05
1.35554e-05
1.37973e-05
1.3427e-05
1.37558e-05
1.37764e-05
2.55565e-05
2.66991e-05
1.33635e-05
1.39154e-05
1.36568e-05
2.63244e-05
2.68211e-05
2.79219e-05
1.39529e-05
1.4212e-05
1.50707e-05
1.47817e-05
2.70712e-05
2.7889e-05
1.3656e-05
1.4139e-05
1.50897e-05
1.47608e-05
1.38046e-05
1.49189e-05
1.45963e-05
2.70103e-05
2.78531e-05
1.36914e-05
1.48418e-05
1.47642e-05
2.80582e-05
2.82834e-05
2.90477e-05
1.58013e-05
1.53974e-05
1.68141e-05
1.75881e-05
2.83204e-05
2.95339e-05
1.58541e-05
1.54135e-05
1.69701e-05
1.73668e-05
1.56667e-05
1.758e-05
1.74638e-05
2.81797e-05
2.92525e-05
1.58284e-05
1.7194e-05
1.74071e-05
2.92057e-05
2.93872e-05
3.1047e-05
1.69944e-05
1.79705e-05
1.89854e-05
1.83203e-05
2.97174e-05
3.00811e-05
1.71082e-05
1.76092e-05
1.88482e-05
1.83584e-05
1.76074e-05
1.82604e-05
1.82917e-05
2.95098e-05
3.07494e-05
1.7517e-05
1.84528e-05
1.82504e-05
3.08207e-05
3.1379e-05
3.17914e-05
1.98268e-05
1.85201e-05
2.12518e-05
2.12085e-05
3.05033e-05
3.25186e-05
1.97112e-05
1.91941e-05
2.12251e-05
2.1381e-05
1.9229e-05
2.11883e-05
2.14377e-05
3.12114e-05
3.20838e-05
1.92646e-05
2.14273e-05
2.14824e-05
3.21065e-05
3.19055e-05
3.26091e-05
2.13712e-05
2.19959e-05
2.16846e-05
2.28425e-05
3.27644e-05
3.27378e-05
2.13561e-05
2.16629e-05
2.16664e-05
2.19583e-05
2.17019e-05
2.2771e-05
2.19147e-05
3.2204e-05
3.25069e-05
2.17285e-05
2.19338e-05
2.19126e-05
3.23753e-05
3.30239e-05
3.45875e-05
2.21871e-05
2.28872e-05
2.47809e-05
2.35721e-05
3.28249e-05
3.39898e-05
2.2173e-05
2.2249e-05
2.48012e-05
2.42985e-05
2.20315e-05
2.36131e-05
2.44243e-05
3.28292e-05
3.44657e-05
2.20149e-05
2.4277e-05
2.44453e-05
3.45426e-05
3.48046e-05
3.52381e-05
2.52532e-05
2.44601e-05
2.60814e-05
2.63434e-05
3.44759e-05
3.55402e-05
2.51889e-05
2.50259e-05
2.59722e-05
2.65368e-05
2.52571e-05
2.62622e-05
2.61315e-05
3.48003e-05
3.54758e-05
2.52939e-05
2.65919e-05
2.61335e-05
3.5295e-05
3.54542e-05
3.64153e-05
2.64961e-05
2.67518e-05
2.7721e-05
2.78112e-05
3.57455e-05
3.64409e-05
2.64682e-05
2.66845e-05
2.77936e-05
2.71833e-05
2.62694e-05
2.80021e-05
2.81004e-05
3.56083e-05
3.6072e-05
2.62613e-05
2.71868e-05
2.80776e-05
3.66087e-05
3.66332e-05
3.74058e-05
2.80428e-05
2.81854e-05
2.95304e-05
2.93848e-05
3.66492e-05
3.7282e-05
2.80391e-05
2.79234e-05
2.9414e-05
2.99581e-05
2.86314e-05
2.913e-05
2.91461e-05
3.64385e-05
3.77745e-05
2.861e-05
2.98737e-05
2.91348e-05
3.72639e-05
3.77122e-05
3.85517e-05
3.00322e-05
2.97202e-05
3.08806e-05
3.10096e-05
3.75328e-05
3.86473e-05
2.99892e-05
3.01847e-05
3.09835e-05
3.06037e-05
2.94247e-05
3.12261e-05
3.11927e-05
3.79037e-05
3.817e-05
2.94245e-05
3.05533e-05
3.11951e-05
3.87388e-05
3.87357e-05
3.98104e-05
3.12817e-05
3.1589e-05
3.30661e-05
3.28732e-05
3.89498e-05
3.97018e-05
3.13166e-05
3.11784e-05
3.29597e-05
3.29389e-05
3.16425e-05
3.283e-05
3.28474e-05
3.84767e-05
3.99654e-05
3.17221e-05
3.31021e-05
3.27851e-05
3.96453e-05
4.00707e-05
4.03977e-05
3.34315e-05
3.30727e-05
3.38067e-05
3.39475e-05
3.98309e-05
4.04078e-05
3.33359e-05
3.32459e-05
3.37952e-05
3.41416e-05
3.31929e-05
3.3884e-05
3.38945e-05
4.01397e-05
4.04801e-05
3.30146e-05
3.39982e-05
3.39686e-05
4.05146e-05
4.05376e-05
4.18709e-05
3.40802e-05
3.44225e-05
3.58518e-05
3.56911e-05
4.07072e-05
4.1832e-05
3.41603e-05
3.45166e-05
3.58243e-05
3.53912e-05
3.42534e-05
3.57354e-05
3.58928e-05
4.06735e-05
4.15913e-05
3.44851e-05
3.55182e-05
3.58786e-05
4.19277e-05
4.21221e-05
4.2417e-05
3.62019e-05
3.60203e-05
3.66692e-05
3.69054e-05
4.20186e-05
4.2513e-05
3.61847e-05
3.57206e-05
3.6723e-05
3.71802e-05
3.63441e-05
3.69225e-05
3.68489e-05
4.17864e-05
4.2726e-05
3.61553e-05
3.7016e-05
3.68876e-05
4.24883e-05
4.25526e-05
4.37224e-05
3.69971e-05
3.71742e-05
3.84553e-05
3.81106e-05
4.26872e-05
4.34208e-05
3.7039e-05
3.75835e-05
3.83794e-05
3.80259e-05
3.69739e-05
3.80431e-05
3.81624e-05
4.29967e-05
4.33991e-05
3.72189e-05
3.81811e-05
3.82129e-05
4.35013e-05
4.39376e-05
4.41609e-05
3.8782e-05
3.84876e-05
3.91928e-05
3.94777e-05
4.36495e-05
4.44641e-05
3.86952e-05
3.81295e-05
3.91283e-05
3.92559e-05
3.86366e-05
3.94957e-05
3.93744e-05
4.34636e-05
4.42581e-05
3.84575e-05
3.91073e-05
3.91924e-05
4.4296e-05
4.42452e-05
4.52592e-05
3.93597e-05
3.96805e-05
4.04821e-05
4.03664e-05
4.46094e-05
4.51155e-05
3.92918e-05
3.97443e-05
4.04643e-05
4.08484e-05
3.94684e-05
4.04059e-05
4.03947e-05
4.46117e-05
4.56055e-05
3.94921e-05
4.09446e-05
4.06511e-05
4.52147e-05
4.55865e-05
4.6261e-05
4.09734e-05
4.07645e-05
4.19136e-05
4.17504e-05
4.53537e-05
4.60875e-05
4.09927e-05
4.11227e-05
4.20205e-05
4.15284e-05
4.09203e-05
4.18113e-05
4.2008e-05
4.57153e-05
4.57513e-05
4.10818e-05
4.14804e-05
4.18172e-05
4.61897e-05
4.63042e-05
4.62546e-05
4.19864e-05
4.18499e-05
4.21275e-05
4.22236e-05
4.61567e-05
4.63716e-05
4.21024e-05
4.15594e-05
4.21313e-05
4.20411e-05
4.21004e-05
4.20875e-05
4.22394e-05
4.57772e-05
4.64108e-05
4.18624e-05
4.213e-05
4.20601e-05
4.63702e-05
4.64204e-05
4.75669e-05
4.24162e-05
4.26636e-05
4.36135e-05
4.373e-05
4.66251e-05
4.7673e-05
4.22315e-05
4.26024e-05
4.35954e-05
4.39687e-05
4.25125e-05
4.37231e-05
4.35117e-05
4.67787e-05
4.78671e-05
4.24472e-05
4.39492e-05
4.34636e-05
4.74101e-05
4.76891e-05
4.80821e-05
4.37407e-05
4.38346e-05
4.43208e-05
4.43864e-05
4.77669e-05
4.81465e-05
4.38118e-05
4.4126e-05
4.44206e-05
4.43408e-05
4.36034e-05
4.44585e-05
4.42987e-05
4.7938e-05
4.80075e-05
4.35886e-05
4.42488e-05
4.43932e-05
4.80859e-05
4.83288e-05
4.89778e-05
4.47216e-05
4.47723e-05
4.56318e-05
4.56139e-05
4.83942e-05
4.89622e-05
4.47873e-05
4.46333e-05
4.56076e-05
4.55596e-05
4.4749e-05
4.56233e-05
4.56784e-05
4.81944e-05
4.8958e-05
4.48531e-05
4.56342e-05
4.57774e-05
4.90943e-05
4.90038e-05
4.88494e-05
4.57027e-05
4.56654e-05
4.571e-05
4.5657e-05
4.89768e-05
4.87785e-05
4.56648e-05
4.56335e-05
4.56677e-05
4.56493e-05
4.57325e-05
4.56432e-05
4.57136e-05
4.89892e-05
4.88332e-05
4.58289e-05
4.57399e-05
4.58013e-05
4.88667e-05
4.90037e-05
5.09281e-05
4.5787e-05
4.57293e-05
4.75534e-05
4.75244e-05
4.89328e-05
5.09137e-05
4.57526e-05
4.57456e-05
4.75532e-05
4.75708e-05
4.57643e-05
4.75361e-05
4.74898e-05
4.89793e-05
5.09077e-05
4.58399e-05
4.75234e-05
4.74591e-05
5.08896e-05
5.12109e-05
5.11849e-05
4.80117e-05
4.79964e-05
4.83549e-05
4.83551e-05
5.12031e-05
5.11926e-05
4.80062e-05
4.80177e-05
4.83426e-05
4.83463e-05
4.79816e-05
4.83612e-05
4.83523e-05
5.11912e-05
5.11633e-05
4.79517e-05
4.83327e-05
4.83239e-05
5.11859e-05
5.10833e-05
4.89918e-05
4.82947e-05
4.82981e-05
4.68009e-05
4.68194e-05
5.10927e-05
4.90073e-05
4.82815e-05
4.82821e-05
4.6788e-05
4.67722e-05
4.82954e-05
4.68021e-05
4.68174e-05
5.10604e-05
4.89721e-05
4.82671e-05
4.67857e-05
4.67986e-05
4.90142e-05
4.8826e-05
4.8102e-05
4.62789e-05
4.62951e-05
4.55324e-05
4.55368e-05
4.88407e-05
4.81017e-05
4.62693e-05
4.62539e-05
4.55313e-05
4.55193e-05
4.6297e-05
4.55318e-05
4.55511e-05
4.88087e-05
4.80966e-05
4.62835e-05
4.55345e-05
4.55475e-05
4.81204e-05
4.82069e-05
5.0798e-05
4.55335e-05
4.55359e-05
4.75609e-05
4.75363e-05
4.82007e-05
5.07781e-05
4.55337e-05
4.55222e-05
4.75754e-05
4.75723e-05
4.55519e-05
4.75582e-05
4.75703e-05
4.82038e-05
5.07926e-05
4.55491e-05
4.75558e-05
4.75695e-05
5.07923e-05
5.15457e-05
5.45573e-05
4.87568e-05
4.87365e-05
5.17491e-05
5.17407e-05
5.15278e-05
5.45506e-05
4.87676e-05
4.87642e-05
5.17532e-05
5.17471e-05
4.87633e-05
5.17494e-05
5.17527e-05
5.15389e-05
5.45451e-05
4.87578e-05
5.17294e-05
5.17437e-05
5.45532e-05
5.5029e-05
5.65426e-05
5.24982e-05
5.24939e-05
5.41497e-05
5.41561e-05
5.5025e-05
5.65515e-05
5.25014e-05
5.24943e-05
5.41508e-05
5.4141e-05
5.25028e-05
5.41602e-05
5.41586e-05
5.50163e-05
5.65297e-05
5.24943e-05
5.41334e-05
5.41528e-05
5.6549e-05
5.67701e-05
5.69758e-05
5.45229e-05
5.45318e-05
5.49491e-05
5.49612e-05
5.67807e-05
5.69888e-05
5.45234e-05
5.45129e-05
5.4948e-05
5.49372e-05
5.4533e-05
5.49618e-05
5.49599e-05
5.67574e-05
5.69679e-05
5.45283e-05
5.49411e-05
5.49582e-05
5.69871e-05
5.67589e-05
5.33697e-05
5.48762e-05
5.48886e-05
5.21854e-05
5.21944e-05
5.67717e-05
5.33752e-05
5.48745e-05
5.4864e-05
5.21823e-05
5.21777e-05
5.48865e-05
5.21911e-05
5.21888e-05
5.67534e-05
5.33728e-05
5.4886e-05
5.21956e-05
5.21947e-05
5.33739e-05
5.27471e-05
4.87524e-05
5.08932e-05
5.08997e-05
4.72347e-05
4.72362e-05
5.27516e-05
4.87525e-05
5.0891e-05
5.08883e-05
4.72328e-05
4.7236e-05
5.08947e-05
4.72351e-05
4.72329e-05
5.27509e-05
4.87599e-05
5.09004e-05
4.72446e-05
4.7238e-05
4.87524e-05
4.83791e-05
4.68458e-05
4.62766e-05
4.62772e-05
4.46465e-05
4.46455e-05
4.83791e-05
4.68447e-05
4.62746e-05
4.62793e-05
4.46439e-05
4.4651e-05
4.62748e-05
4.46451e-05
4.46455e-05
4.83867e-05
4.68521e-05
4.62792e-05
4.46525e-05
4.46474e-05
4.68464e-05
4.68505e-05
4.80046e-05
4.45066e-05
4.45055e-05
4.50468e-05
4.50463e-05
4.68495e-05
4.80038e-05
4.45039e-05
4.45111e-05
4.5044e-05
4.50497e-05
4.4506e-05
4.50455e-05
4.50485e-05
4.68567e-05
4.80068e-05
4.45072e-05
4.5047e-05
4.50459e-05
4.80059e-05
4.84691e-05
5.05009e-05
4.58405e-05
4.58405e-05
4.79702e-05
4.79711e-05
4.84686e-05
5.05008e-05
4.58381e-05
4.58425e-05
4.79687e-05
4.79708e-05
4.58422e-05
4.79705e-05
4.79718e-05
4.84709e-05
5.05016e-05
4.58398e-05
4.79708e-05
4.79702e-05
5.0502e-05
5.09023e-05
5.24252e-05
4.85985e-05
4.85995e-05
5.01497e-05
5.01507e-05
5.09023e-05
5.24253e-05
4.85973e-05
4.85988e-05
5.01491e-05
5.01495e-05
4.86002e-05
5.01508e-05
5.01517e-05
5.09029e-05
5.24254e-05
4.85988e-05
5.01512e-05
5.0151e-05
5.24266e-05
5.26847e-05
5.35074e-05
5.05428e-05
5.05438e-05
5.13733e-05
5.13741e-05
5.26848e-05
5.35074e-05
5.05426e-05
5.05427e-05
5.13734e-05
5.13732e-05
5.05451e-05
5.1375e-05
5.13759e-05
5.26848e-05
5.35074e-05
5.05446e-05
5.13756e-05
5.13759e-05
5.35091e-05
5.36428e-05
5.40083e-05
5.15555e-05
5.15561e-05
5.19121e-05
5.19126e-05
5.36429e-05
5.40084e-05
5.15557e-05
5.15553e-05
5.19122e-05
5.1912e-05
5.15582e-05
5.19141e-05
5.19148e-05
5.36428e-05
5.40084e-05
5.15583e-05
5.19148e-05
5.19151e-05
5.40101e-05
5.40769e-05
5.42163e-05
5.19875e-05
5.19879e-05
5.21319e-05
5.21324e-05
5.40771e-05
5.42165e-05
5.19876e-05
5.19874e-05
5.2132e-05
5.21317e-05
5.19902e-05
5.21341e-05
5.21347e-05
5.4077e-05
5.42164e-05
5.19905e-05
5.21346e-05
5.2135e-05
5.42182e-05
5.42514e-05
5.42865e-05
5.21602e-05
5.21607e-05
5.22027e-05
5.22032e-05
5.42517e-05
5.42868e-05
5.21603e-05
5.216e-05
5.22029e-05
5.22025e-05
5.2163e-05
5.22049e-05
5.22055e-05
5.42515e-05
5.42866e-05
5.21633e-05
5.22055e-05
5.22059e-05
5.42885e-05
5.4306e-05
5.43006e-05
5.22072e-05
5.22078e-05
5.22082e-05
5.22087e-05
5.43063e-05
5.43008e-05
5.22075e-05
5.2207e-05
5.22084e-05
5.22079e-05
5.22101e-05
5.22104e-05
5.22111e-05
5.4306e-05
5.43006e-05
5.22104e-05
5.2211e-05
5.22114e-05
5.43026e-05
5.43156e-05
5.4287e-05
5.22054e-05
5.22059e-05
5.22019e-05
5.22025e-05
5.43157e-05
5.42873e-05
5.22057e-05
5.22052e-05
5.22022e-05
5.22018e-05
5.22084e-05
5.22043e-05
5.22049e-05
5.43155e-05
5.42873e-05
5.22087e-05
5.22048e-05
5.22051e-05
5.42891e-05
5.43034e-05
5.4312e-05
5.2204e-05
5.22046e-05
5.22141e-05
5.22147e-05
5.43039e-05
5.43125e-05
5.22043e-05
5.22038e-05
5.22144e-05
5.22138e-05
5.22069e-05
5.22164e-05
5.22169e-05
5.43036e-05
5.43121e-05
5.22071e-05
5.22168e-05
5.22171e-05
5.43138e-05
5.4329e-05
5.42962e-05
5.22143e-05
5.22149e-05
5.22062e-05
5.22067e-05
5.43295e-05
5.42962e-05
5.22146e-05
5.2214e-05
5.22065e-05
5.22059e-05
5.22171e-05
5.22084e-05
5.2209e-05
5.4329e-05
5.42961e-05
5.22173e-05
5.22089e-05
5.22093e-05
5.4298e-05
5.43095e-05
5.4299e-05
5.22051e-05
5.22057e-05
5.22079e-05
5.22086e-05
5.43095e-05
5.42997e-05
5.22054e-05
5.22049e-05
5.22082e-05
5.22079e-05
5.2208e-05
5.22103e-05
5.22109e-05
5.43093e-05
5.42995e-05
5.22083e-05
5.22109e-05
5.22112e-05
5.43012e-05
5.43182e-05
5.43082e-05
5.22107e-05
5.22113e-05
5.221e-05
5.22104e-05
5.43189e-05
5.43081e-05
5.2211e-05
5.22105e-05
5.22103e-05
5.22096e-05
5.22136e-05
5.22121e-05
5.22126e-05
5.43186e-05
5.43079e-05
5.22138e-05
5.22125e-05
5.22128e-05
5.43097e-05
5.43217e-05
5.42921e-05
5.22084e-05
5.22088e-05
5.22065e-05
5.2207e-05
5.43215e-05
5.42923e-05
5.22088e-05
5.22081e-05
5.22068e-05
5.22063e-05
5.22111e-05
5.22087e-05
5.22092e-05
5.43212e-05
5.42922e-05
5.22112e-05
5.22093e-05
5.22095e-05
5.42939e-05
5.43087e-05
5.43082e-05
5.22078e-05
5.22084e-05
5.2209e-05
5.22095e-05
5.43091e-05
5.43088e-05
5.22081e-05
5.22077e-05
5.22092e-05
5.22088e-05
5.22107e-05
5.22112e-05
5.22118e-05
5.4309e-05
5.43086e-05
5.2211e-05
5.22117e-05
5.2212e-05
5.43104e-05
5.43246e-05
5.42949e-05
5.22092e-05
5.22097e-05
5.22074e-05
5.22079e-05
5.4325e-05
5.42946e-05
5.22095e-05
5.2209e-05
5.22078e-05
5.22072e-05
5.2212e-05
5.22097e-05
5.22102e-05
5.43248e-05
5.42944e-05
5.22122e-05
5.22102e-05
5.22104e-05
5.42961e-05
5.43088e-05
5.43063e-05
5.2208e-05
5.22086e-05
5.2208e-05
5.22086e-05
5.43088e-05
5.43071e-05
5.22084e-05
5.22079e-05
5.22084e-05
5.22079e-05
5.22109e-05
5.22103e-05
5.22109e-05
5.43085e-05
5.43069e-05
5.22111e-05
5.22108e-05
5.22111e-05
5.43086e-05
5.4324e-05
5.42943e-05
5.22092e-05
5.22098e-05
5.22068e-05
5.22074e-05
5.43246e-05
5.42939e-05
5.22096e-05
5.22091e-05
5.22072e-05
5.22066e-05
5.22121e-05
5.22091e-05
5.22097e-05
5.43244e-05
5.42939e-05
5.22123e-05
5.22095e-05
5.22098e-05
5.42958e-05
5.43083e-05
5.43068e-05
5.22082e-05
5.22088e-05
5.22074e-05
5.22081e-05
5.43083e-05
5.43078e-05
5.22085e-05
5.2208e-05
5.22078e-05
5.22073e-05
5.2211e-05
5.22097e-05
5.22103e-05
5.43082e-05
5.43073e-05
5.22112e-05
5.22101e-05
5.22104e-05
5.43088e-05
5.4324e-05
5.4293e-05
5.22093e-05
5.22099e-05
5.22062e-05
5.22069e-05
5.43245e-05
5.42927e-05
5.22097e-05
5.22092e-05
5.22066e-05
5.2206e-05
5.22122e-05
5.22085e-05
5.22091e-05
5.43242e-05
5.42928e-05
5.22123e-05
5.2209e-05
5.22092e-05
5.42947e-05
5.43082e-05
5.43076e-05
5.22092e-05
5.22099e-05
5.22065e-05
5.2207e-05
5.43087e-05
5.43078e-05
5.22096e-05
5.22091e-05
5.22069e-05
5.22063e-05
5.22121e-05
5.22087e-05
5.22093e-05
5.43084e-05
5.43077e-05
5.22122e-05
5.22091e-05
5.22094e-05
5.43094e-05
5.43233e-05
5.42939e-05
5.22104e-05
5.22109e-05
5.2206e-05
5.22066e-05
5.43223e-05
5.42957e-05
5.22108e-05
5.22102e-05
5.22063e-05
5.22059e-05
5.22132e-05
5.22083e-05
5.22088e-05
5.43226e-05
5.42951e-05
5.22133e-05
5.22088e-05
5.22089e-05
5.42963e-05
5.43119e-05
5.42987e-05
5.22117e-05
5.22124e-05
5.22036e-05
5.22042e-05
5.4315e-05
5.42964e-05
5.2212e-05
5.22116e-05
5.2204e-05
5.22035e-05
5.22145e-05
5.22059e-05
5.22065e-05
5.43141e-05
5.42969e-05
5.22146e-05
5.22063e-05
5.22066e-05
5.42991e-05
5.43095e-05
5.41314e-05
5.21949e-05
5.21955e-05
5.20477e-05
5.20488e-05
5.43078e-05
5.41328e-05
5.21952e-05
5.21947e-05
5.20495e-05
5.20468e-05
5.21976e-05
5.20521e-05
5.20502e-05
5.4308e-05
5.4132e-05
5.21978e-05
5.20511e-05
5.20517e-05
5.41337e-05
5.39818e-05
5.10551e-05
5.10559e-05
5.39823e-05
5.1057e-05
5.1054e-05
4.04009e-05
4.03999e-05
4.04019e-05
5.10574e-05
5.39814e-05
5.10592e-05
1.91196e-06
3.0921e-07
1.18994e-06
1.19051e-06
1.02407e-07
4.22947e-07
1.55613e-06
6.34103e-07
1.05455e-07
3.67737e-07
6.40611e-07
4.70919e-07
3.59893e-07
2.67476e-07
3.91093e-07
3.19243e-07
4.86682e-06
2.71232e-07
6.55378e-06
1.3428e-05
2.08514e-05
3.09698e-07
5.0866e-06
2.58328e-07
6.78711e-06
6.33905e-07
6.41454e-07
6.29113e-07
6.19736e-07
6.28219e-07
6.34151e-07
6.21643e-07
1.01212e-07
1.71291e-06
3.62896e-07
6.39691e-07
1.02177e-07
1.71754e-06
3.51534e-07
1.34841e-05
2.0933e-05
1.06892e-07
3.67558e-07
8.32745e-07
3.97983e-07
1.06641e-07
3.6286e-07
8.0241e-07
1.898e-06
1.91211e-06
3.44122e-07
1.87189e-06
1.88697e-06
4.96003e-07
9.72852e-06
4.23838e-07
1.2557e-05
3.6074e-05
4.58474e-05
4.87055e-07
9.90666e-06
4.14462e-07
1.27857e-05
6.26857e-07
6.35271e-07
6.22668e-07
6.24953e-07
6.25468e-07
6.39446e-07