/*--------------------------------*- C++ -*----------------------------------*\
| =========                 |                                                 |
| \\      /  F ield         | OpenFOAM: The Open Source CFD Toolbox           |
|  \\    /   O peration     | Version:  v2012                                 |
|   \\  /    A nd           | Website:  www.openfoam.com                      |
|    \\/     M anipulation  |                                                 |
\*---------------------------------------------------------------------------*/
FoamFile
{
    version     2.0;
    format      ascii;
    class       volScalarField;
    location    "287.5";
    object      nut;
}
// * * * * * * * * * * * * * * * * * * * * * * * * * * * * * * * * * * * * * //

dimensions      [0 2 -1 0 0 0 0];


internalField   nonuniform List<scalar> 
171728
(
8.11155e-06
5.50666e-06
2.37792e-06
2.21397e-06
7.9413e-06
4.62026e-06
2.44016e-06
2.1963e-06
8.10913e-06
2.39404e-06
2.52562e-06
2.18822e-06
8.29536e-06
1.76404e-06
2.63289e-06
2.1772e-06
8.48872e-06
1.68776e-06
2.75857e-06
2.1745e-06
8.69049e-06
1.67202e-06
2.94901e-06
2.17012e-06
8.89434e-06
1.65926e-06
3.29395e-06
2.15457e-06
9.09343e-06
1.60757e-06
3.66966e-06
2.12189e-06
9.29356e-06
1.53005e-06
4.02052e-06
2.07298e-06
9.49762e-06
1.43241e-06
4.08206e-06
2.02398e-06
9.68975e-06
1.34864e-06
3.39165e-06
1.96358e-06
9.88911e-06
1.26857e-06
2.52768e-06
1.89065e-06
1.00922e-05
1.17636e-06
1.87936e-06
1.80181e-06
1.02897e-05
1.10867e-06
1.48967e-06
1.6974e-06
1.04951e-05
1.054e-06
1.30335e-06
1.59119e-06
1.06755e-05
1.01824e-06
1.18807e-06
1.48573e-06
1.08917e-05
1.11568e-06
1.10909e-06
1.37912e-06
1.1121e-05
1.40139e-06
1.07419e-06
1.30154e-06
1.13929e-05
2.02344e-06
1.12735e-06
1.31037e-06
1.15947e-05
3.34001e-06
1.31915e-06
1.53763e-06
1.18211e-05
4.53095e-06
1.56624e-06
1.76506e-06
1.20441e-05
5.8004e-06
2.06403e-06
2.54352e-06
1.21824e-05
5.45114e-06
3.36295e-06
3.26144e-06
1.22615e-05
5.62673e-06
3.6041e-06
5.89437e-06
1.22435e-05
4.31312e-06
5.35954e-06
8.43108e-06
1.19165e-05
7.84934e-06
6.76942e-06
1.24547e-05
1.17124e-05
7.76435e-06
8.08971e-06
1.93577e-05
1.13412e-05
8.75484e-06
8.76835e-06
2.51434e-05
1.10493e-05
1.38959e-05
1.34648e-05
2.91837e-05
1.11693e-05
1.26875e-05
1.5784e-05
4.05987e-05
1.04425e-05
2.17639e-05
1.72879e-05
4.61487e-05
1.08983e-05
1.91976e-05
2.45098e-05
5.19122e-05
1.06005e-05
3.02059e-05
2.42746e-05
5.95586e-05
1.09965e-05
3.0413e-05
3.44157e-05
6.61023e-05
1.08827e-05
3.73135e-05
3.5499e-05
6.48583e-05
1.2219e-05
4.07152e-05
4.03095e-05
8.14876e-05
1.32844e-05
4.87403e-05
5.00334e-05
7.79182e-05
1.36883e-05
5.2012e-05
5.12286e-05
8.5411e-05
1.5617e-05
6.29272e-05
5.95941e-05
8.70776e-05
1.73383e-05
6.06339e-05
6.49724e-05
9.42092e-05
2.24563e-05
7.64151e-05
7.58032e-05
9.75095e-05
2.00639e-05
7.82455e-05
7.35154e-05
9.69545e-05
2.81104e-05
8.17994e-05
8.53612e-05
0.000106371
2.90053e-05
9.13173e-05
9.19478e-05
0.000107326
3.36425e-05
9.65768e-05
9.36151e-05
0.000113187
3.80863e-05
9.94004e-05
0.000103178
0.000113803
4.16762e-05
0.000108676
0.000104784
0.000120286
5.09506e-05
0.000112646
0.000114782
0.000122765
5.2789e-05
0.000116768
0.000117158
0.000125777
6.19097e-05
0.000123935
0.000122224
0.000131665
6.63302e-05
0.000127458
0.000129179
0.000132711
7.48398e-05
0.000132209
0.000131641
0.000137132
8.08555e-05
0.000137425
0.000136327
0.0001395
8.4899e-05
0.000141763
0.000144431
0.000143629
9.95526e-05
0.000146954
0.000144566
0.00014706
9.87122e-05
0.000147683
0.000148794
0.000147599
0.000108604
0.000155094
0.000156479
0.000151636
0.000113869
0.000159407
0.000157496
0.000155214
0.000126736
0.000164413
0.000164614
0.000159283
0.000126138
0.000162629
0.00016326
0.000157063
0.000138837
0.000176475
0.00017643
0.000168402
0.000153722
0.000181509
0.000181436
0.000171058
0.000149318
0.000170303
0.000170332
0.000160692
0.000133998
0.000162872
0.000162966
0.000154457
0.000141389
0.000176926
0.000176955
0.000166636
0.000182007
0.00019842
0.000198334
0.000183045
0.000210132
0.000212059
0.000211914
0.000192902
0.000225212
0.000219942
0.000219794
0.000197919
0.000210464
0.000201528
0.000201553
0.000183336
0.000165125
0.000175363
0.000175416
0.000163309
0.000135843
0.000164096
0.000164134
0.000154417
0.000129143
0.000169741
0.000169742
0.00016002
0.000165582
0.000186016
0.000186011
0.000170939
0.000196268
0.000198171
0.000198164
0.000179297
0.000214511
0.000204774
0.000204767
0.000183766
0.000223124
0.000207663
0.000207655
0.000185756
0.000226912
0.000208858
0.000208849
0.000186552
0.000228299
0.00020921
0.000209201
0.000186803
0.000228521
0.000209211
0.000209202
0.00018685
0.000228564
0.000209186
0.000209176
0.000186756
0.00022866
0.000209264
0.000209255
0.00018691
0.000228618
0.000209206
0.000209197
0.000186815
0.000228632
0.000209237
0.000209228
0.000186839
0.000228631
0.000209227
0.000209217
0.00018688
0.000228624
0.00020922
0.000209211
0.000186791
0.000228629
0.00020923
0.000209221
0.000186887
0.000228626
0.000209222
0.000209213
0.000186798
0.000228627
0.000209229
0.00020922
0.000186883
0.000228624
0.000209222
0.000209212
0.000186796
0.000228625
0.000209229
0.000209219
0.000186885
0.000228624
0.000209226
0.000209216
0.000186789
0.000228625
0.00020923
0.00020922
0.000186885
0.000228627
0.000209235
0.000209225
0.000186812
0.000228594
0.000209153
0.000209143
0.000186836
0.000230409
0.000210337
0.00021033
0.000190183
2.32042e-06
2.27534e-06
2.41054e-06
2.30603e-06
2.11522e-06
2.2123e-06
8.49342e-06
8.04524e-06
8.62577e-06
8.54499e-06
3.14879e-06
2.42844e-06
2.28051e-06
2.78622e-06
2.34878e-06
2.23251e-06
2.31596e-06
2.2827e-06
1.87316e-06
2.02426e-06
1.894e-06
2.00968e-06
2.29308e-06
2.37611e-06
1.90118e-06
1.79863e-06
1.91042e-06
1.80924e-06
2.27031e-06
5.24736e-06
2.24517e-06
2.28486e-06
2.2759e-06
2.23791e-06
2.42179e-06
2.30713e-06
2.21842e-06
2.28022e-06
2.25733e-06
1.90435e-06
2.00814e-06
1.93293e-06
2.00109e-06
2.34629e-06
2.28509e-06
1.91627e-06
1.81702e-06
1.93707e-06
1.84212e-06
2.24081e-06
2.79034e-06
2.22684e-06
2.27722e-06
2.28158e-06
2.32408e-06
2.50207e-06
2.34343e-06
2.20866e-06
2.25517e-06
2.23621e-06
1.94153e-06
1.99331e-06
1.9547e-06
1.9504e-06
2.27639e-06
2.22115e-06
1.94775e-06
1.85032e-06
1.98094e-06
1.87391e-06
2.22556e-06
1.83048e-06
2.23439e-06
2.28142e-06
2.28449e-06
2.35178e-06
2.60227e-06
2.39782e-06
2.1965e-06
2.23041e-06
2.21834e-06
1.95877e-06
1.93294e-06
1.98325e-06
1.88281e-06
2.22058e-06
2.19163e-06
1.99032e-06
1.88281e-06
2.00531e-06
1.90613e-06
2.23808e-06
1.69387e-06
2.24472e-06
2.28157e-06
2.29073e-06
2.41986e-06
2.72255e-06
2.4732e-06
2.19473e-06
2.20817e-06
2.20509e-06
1.99578e-06
1.86691e-06
2.0446e-06
1.82486e-06
2.19004e-06
2.14923e-06
2.00591e-06
1.913e-06
2.00879e-06
1.9273e-06
2.24336e-06
1.67526e-06
2.23678e-06
2.28889e-06
2.32322e-06
2.49004e-06
2.89013e-06
2.53429e-06
2.19054e-06
2.19198e-06
2.19316e-06
2.0644e-06
1.81132e-06
2.12209e-06
1.77767e-06
2.14545e-06
2.09905e-06
2.0109e-06
1.92958e-06
2.02386e-06
1.93649e-06
2.23198e-06
1.66352e-06
2.22044e-06
2.31189e-06
2.3643e-06
2.5349e-06
3.19464e-06
2.49778e-06
2.17664e-06
2.17596e-06
2.17274e-06
2.13836e-06
1.76596e-06
2.18266e-06
1.73278e-06
2.09588e-06
2.04714e-06
2.02797e-06
1.93576e-06
2.02367e-06
1.94111e-06
2.21556e-06
1.62557e-06
2.19874e-06
2.35126e-06
2.40128e-06
2.47945e-06
3.57829e-06
2.40636e-06
2.14453e-06
2.16248e-06
2.15174e-06
2.19546e-06
1.72143e-06
2.22171e-06
1.67971e-06
2.04164e-06
1.97121e-06
2.01546e-06
1.94093e-06
1.9777e-06
1.94626e-06
2.19236e-06
1.55017e-06
2.17323e-06
2.3854e-06
2.43664e-06
2.37287e-06
3.9425e-06
2.26375e-06
2.09664e-06
2.14527e-06
2.11697e-06
2.22647e-06
1.66884e-06
2.24591e-06
1.62581e-06
1.96305e-06
1.86082e-06
1.96148e-06
1.94548e-06
1.9039e-06
1.93774e-06
2.16601e-06
1.45737e-06
2.13724e-06
2.42185e-06
2.46074e-06
2.22532e-06
4.16079e-06
2.12545e-06
2.03714e-06
2.10793e-06
2.05168e-06
2.25055e-06
1.6072e-06
2.26002e-06
1.56002e-06
1.85008e-06
1.74412e-06
1.87876e-06
1.93007e-06
1.78376e-06
1.90275e-06
2.12447e-06
1.36623e-06
2.08006e-06
2.43487e-06
2.32322e-06
2.09593e-06
3.60927e-06
2.02376e-06
1.97503e-06
2.04065e-06
1.96751e-06
2.26548e-06
1.54137e-06
2.26975e-06
1.50317e-06
1.73322e-06
1.63785e-06
1.74984e-06
1.89061e-06
1.65459e-06
1.86327e-06
2.06418e-06
1.28983e-06
2.00765e-06
2.28652e-06
2.0636e-06
2.00217e-06
2.72624e-06
1.94533e-06
1.90478e-06
1.95377e-06
1.86823e-06
2.26652e-06
1.49603e-06
2.23756e-06
1.4782e-06
1.62547e-06
1.53244e-06
1.62266e-06
1.85573e-06
1.52849e-06
1.834e-06
1.98842e-06
1.19922e-06
1.93215e-06
2.03582e-06
1.87045e-06
1.92614e-06
2.01513e-06
1.8682e-06
1.8199e-06
1.85056e-06
1.76379e-06
2.2251e-06
1.47838e-06
2.17834e-06
1.50635e-06
1.51742e-06
1.43154e-06
1.49755e-06
1.83037e-06
1.42706e-06
1.82264e-06
1.91228e-06
1.12522e-06
1.84513e-06
1.84753e-06
1.71194e-06
1.84764e-06
1.57048e-06
1.78231e-06
1.71991e-06
1.74243e-06
1.65066e-06
2.16275e-06
1.5196e-06
2.09613e-06
1.55879e-06
1.41477e-06
1.34384e-06
1.4e-06
1.82207e-06
1.32444e-06
1.83837e-06
1.82115e-06
1.07146e-06
1.74508e-06
1.68878e-06
1.57721e-06
1.75941e-06
1.33628e-06
1.69096e-06
1.61753e-06
1.62218e-06
1.51282e-06
2.06758e-06
1.56795e-06
1.94572e-06
1.57558e-06
1.32358e-06
1.24842e-06
1.29893e-06
1.85092e-06
1.23949e-06
1.88754e-06
1.72095e-06
1.0198e-06
1.654e-06
1.55067e-06
1.47946e-06
1.66947e-06
1.21709e-06
1.6005e-06
1.51455e-06
1.47801e-06
1.37682e-06
1.89658e-06
1.55939e-06
1.74724e-06
1.48519e-06
1.22725e-06
1.16493e-06
1.22353e-06
1.89748e-06
1.18018e-06
1.95957e-06
1.6356e-06
1.07093e-06
1.57027e-06
1.45234e-06
1.39674e-06
1.57989e-06
1.12448e-06
1.51644e-06
1.40961e-06
1.34179e-06
1.28593e-06
1.69611e-06
1.41994e-06
1.57978e-06
1.19678e-06
1.14967e-06
1.11911e-06
1.16729e-06
1.98946e-06
1.17572e-06
2.13709e-06
1.55573e-06
1.29995e-06
1.49306e-06
1.37923e-06
1.37414e-06
1.50213e-06
1.09246e-06
1.44138e-06
1.33298e-06
1.26982e-06
1.27056e-06
1.54394e-06
1.15234e-06
1.5093e-06
1.11858e-06
1.1016e-06
1.29925e-06
1.18543e-06
2.19021e-06
1.26008e-06
2.3863e-06
1.4852e-06
1.80993e-06
1.46576e-06
1.37657e-06
1.40095e-06
1.43678e-06
1.11923e-06
1.41718e-06
1.3262e-06
1.28815e-06
1.37511e-06
1.51388e-06
1.07654e-06
1.49672e-06
1.11762e-06
1.29964e-06
1.68272e-06
1.30464e-06
2.43927e-06
1.42921e-06
2.64645e-06
1.44872e-06
2.96735e-06
1.53602e-06
1.46377e-06
1.49945e-06
1.40691e-06
1.2453e-06
1.50665e-06
1.47006e-06
1.36593e-06
1.85307e-06
1.52558e-06
1.13926e-06
1.63731e-06
1.35213e-06
1.83428e-06
2.20539e-06
1.50425e-06
2.68148e-06
1.75383e-06
2.85637e-06
1.5333e-06
4.20908e-06
1.62257e-06
1.5971e-06
1.86355e-06
1.50363e-06
1.44815e-06
1.59283e-06
1.55096e-06
1.88031e-06
2.68793e-06
1.7015e-06
1.56048e-06
1.93639e-06
2.23009e-06
2.52097e-06
4.10291e-06
1.87007e-06
2.93302e-06
2.31944e-06
3.02159e-06
1.68829e-06
5.79978e-06
1.94406e-06
1.94561e-06
2.59684e-06
1.67046e-06
2.04115e-06
1.91668e-06
2.31881e-06
2.82767e-06
3.77492e-06
2.00801e-06
2.2494e-06
2.27502e-06
2.62596e-06
4.10386e-06
2.79931e-06
2.47365e-06
3.13815e-06
2.92179e-06
3.02412e-06
2.03255e-06
4.88661e-06
2.27674e-06
2.7429e-06
3.45784e-06
2.02544e-06
2.92136e-06
2.20513e-06
3.1098e-06
4.1989e-06
5.8735e-06
2.42233e-06
3.51775e-06
3.23689e-06
4.61109e-06
3.59664e-06
9.09366e-06
3.15296e-06
3.25774e-06
4.27511e-06
3.67366e-06
2.46167e-06
6.01451e-06
3.05934e-06
3.73258e-06
5.96564e-06
2.40807e-06
3.39657e-06
3.0646e-06
5.68132e-06
6.7291e-06
7.63515e-06
3.22856e-06
4.50838e-06
4.24286e-06
6.02539e-06
8.8568e-06
7.77918e-06
4.27217e-06
3.52185e-06
5.33588e-06
4.7968e-06
3.24436e-06
4.51888e-06
3.94011e-06
5.76565e-06
1.02075e-05
3.14088e-06
5.42388e-06
3.98415e-06
7.71498e-06
9.06061e-06
1.13391e-05
4.78696e-06
6.16599e-06
4.71902e-06
7.03141e-06
9.13729e-06
1.3891e-05
6.09577e-06
5.08814e-06
5.99638e-06
4.58581e-06
4.31905e-06
6.75098e-06
5.2198e-06
1.09443e-05
8.76709e-06
4.49282e-06
5.68185e-06
4.95427e-06
1.26079e-05
1.07314e-05
2.27556e-05
5.10713e-06
8.38819e-06
8.23062e-06
9.57682e-06
1.73487e-05
2.128e-05
6.06677e-06
5.29262e-06
9.29607e-06
7.76966e-06
5.50211e-06
8.20984e-06
6.91747e-06
9.44323e-06
2.20329e-05
5.20445e-06
8.1995e-06
7.00031e-06
1.73823e-05
2.31074e-05
1.74495e-05
8.23854e-06
9.22356e-06
7.61521e-06
7.48124e-06
1.97847e-05
1.65172e-05
9.43125e-06
7.86868e-06
8.45843e-06
7.79889e-06
7.53587e-06
7.15756e-06
8.88335e-06
2.19548e-05
1.75882e-05
7.55825e-06
8.14202e-06
9.00951e-06
2.36616e-05
1.89439e-05
3.44569e-05
9.27342e-06
8.26667e-06
1.15069e-05
1.48294e-05
2.16097e-05
3.70751e-05
9.34341e-06
8.54086e-06
1.1067e-05
1.25162e-05
9.42119e-06
1.32865e-05
1.12063e-05
1.91397e-05
3.41492e-05
9.39552e-06
1.28056e-05
1.06834e-05
2.78782e-05
3.43751e-05
3.86031e-05
1.15603e-05
1.55083e-05
1.54129e-05
1.45976e-05
3.74034e-05
3.42395e-05
1.15318e-05
1.29285e-05
1.63096e-05
1.38949e-05
1.16136e-05
1.27936e-05
1.47064e-05
3.56901e-05
3.68356e-05
1.16903e-05
1.4584e-05
1.51467e-05
3.94959e-05
4.18682e-05
4.18213e-05
1.59782e-05
1.46493e-05
1.56266e-05
2.12517e-05
3.34317e-05
5.29607e-05
1.68852e-05
1.53681e-05
1.61822e-05
1.68208e-05
1.59896e-05
2.08294e-05
1.71594e-05
3.74364e-05
4.46712e-05
1.54103e-05
1.72825e-05
1.69994e-05
4.45259e-05
4.17483e-05
5.51048e-05
1.70939e-05
2.21807e-05
2.33053e-05
2.08712e-05
5.48879e-05
4.69042e-05
1.6973e-05
1.71585e-05
2.28107e-05
2.26418e-05
1.82375e-05
2.00651e-05
2.20776e-05
4.70892e-05
5.10873e-05
1.87477e-05
2.27723e-05
2.21418e-05
5.1322e-05
5.65641e-05
5.61377e-05
2.36839e-05
2.00686e-05
2.42704e-05
2.67719e-05
4.55553e-05
6.17878e-05
2.31876e-05
2.45388e-05
2.40642e-05
2.5035e-05
2.2021e-05
2.74208e-05
2.4205e-05
5.30017e-05
5.7733e-05
2.18472e-05
2.45079e-05
2.42024e-05
5.69899e-05
5.6956e-05
6.49779e-05
2.61803e-05
2.99637e-05
3.07152e-05
3.1976e-05
6.50387e-05
6.50564e-05
2.62443e-05
2.4604e-05
3.12966e-05
3.21438e-05
2.77589e-05
3.10264e-05
3.39797e-05
5.79049e-05
6.50326e-05
2.76101e-05
3.27131e-05
3.34206e-05
6.62696e-05
6.65482e-05
6.77402e-05
3.18561e-05
3.14586e-05
3.49214e-05
3.65347e-05
6.48887e-05
6.82766e-05
3.20163e-05
3.46272e-05
3.35614e-05
3.48902e-05
3.37247e-05
3.50687e-05
3.06457e-05
6.7795e-05
6.92376e-05
3.31796e-05
3.41895e-05
3.05999e-05
6.29262e-05
6.82467e-05
7.53395e-05
3.53978e-05
3.89421e-05
3.98515e-05
3.93059e-05
7.11109e-05
7.41837e-05
3.44622e-05
3.55162e-05
4.13611e-05
3.95544e-05
3.12256e-05
3.96156e-05
4.58669e-05
6.92638e-05
7.36234e-05
3.19365e-05
3.89639e-05
4.59474e-05
8.09501e-05
7.70216e-05
7.90116e-05
4.28282e-05
3.93558e-05
4.83141e-05
4.81888e-05
7.46354e-05
7.95111e-05
4.41574e-05
4.07012e-05
4.6954e-05
4.78179e-05
4.82941e-05
4.75179e-05
4.85169e-05
7.57101e-05
7.96832e-05
4.80838e-05
4.83524e-05
4.78462e-05
7.81717e-05
7.95207e-05
8.31392e-05
4.80642e-05
4.94555e-05
5.07674e-05
4.91045e-05
8.07294e-05
8.25051e-05
4.64301e-05
4.90633e-05
5.08027e-05
4.90862e-05
4.75683e-05
4.98837e-05
4.75278e-05
8.04884e-05
8.26661e-05
4.68623e-05
4.97498e-05
4.844e-05
8.3457e-05
8.42894e-05
8.58211e-05
5.41083e-05
5.12745e-05
5.72052e-05
6.13806e-05
8.39277e-05
8.89754e-05
5.43214e-05
5.15611e-05
5.82159e-05
6.0289e-05
5.26861e-05
6.14521e-05
6.10625e-05
8.35913e-05
8.71452e-05
5.36847e-05
5.94422e-05
6.08735e-05
8.71437e-05
8.65973e-05
9.36236e-05
5.68082e-05
6.29909e-05
6.40867e-05
6.15674e-05
8.93087e-05
8.85086e-05
5.76713e-05
6.07852e-05
6.33826e-05
6.07685e-05
6.08876e-05
6.13221e-05
6.02216e-05
8.76475e-05
9.17754e-05
6.04506e-05
6.1228e-05
5.9882e-05
9.19474e-05
9.49078e-05
9.59403e-05
6.80542e-05
6.09087e-05
7.43185e-05
7.24878e-05
8.96202e-05
9.89679e-05
6.74246e-05
6.42589e-05
7.4238e-05
7.46364e-05
6.43522e-05
7.24454e-05
7.51235e-05
9.35967e-05
9.73235e-05
6.4485e-05
7.49489e-05
7.54599e-05
9.77196e-05
9.58203e-05
9.70662e-05
7.4141e-05
7.65218e-05
7.18747e-05
7.9468e-05
9.99587e-05
9.87738e-05
7.41451e-05
7.56065e-05
7.17717e-05
7.38117e-05
7.60328e-05
7.91325e-05
7.40626e-05
9.74013e-05
9.68489e-05
7.62685e-05
7.39231e-05
7.40678e-05
9.61987e-05
9.84609e-05
0.000105405
7.30871e-05
7.85869e-05
8.49536e-05
7.78762e-05
9.84234e-05
0.000101897
7.29547e-05
7.39441e-05
8.52521e-05
8.18666e-05
7.3058e-05
7.82619e-05
8.25093e-05
9.76526e-05
0.000104478
7.29546e-05
8.15989e-05
8.26087e-05
0.000104925
0.000106057
0.000106957
8.69307e-05
8.18324e-05
8.86859e-05
8.99731e-05
0.000103839
0.000108391
8.67401e-05
8.50268e-05
8.80174e-05
9.16884e-05
8.66359e-05
8.93436e-05
8.9232e-05
0.000105742
0.000108361
8.68727e-05
9.20663e-05
8.92962e-05
0.000107275
0.000107474
0.000111119
8.9991e-05
9.14308e-05
9.4151e-05
9.46333e-05
0.000108969
0.000111334
8.97643e-05
9.17362e-05
9.47287e-05
9.04987e-05
8.86682e-05
9.58806e-05
9.59043e-05
0.000108526
0.000109068
8.86718e-05
9.05313e-05
9.57891e-05
0.000111916
0.000111724
0.000114242
9.49119e-05
9.57786e-05
0.000100307
9.97972e-05
0.000111903
0.000113709
9.50825e-05
9.34517e-05
9.95867e-05
0.000103136
9.83668e-05
9.83206e-05
9.84865e-05
0.0001103
0.000116371
9.82551e-05
0.00010278
9.84673e-05
0.000113745
0.00011529
0.000118419
0.000102403
0.00010071
0.000104438
0.000104862
0.000114407
0.000118748
0.000102057
0.000103794
0.000105172
0.000102695
9.87434e-05
0.000105992
0.000105941
0.000116632
0.000116362
9.8821e-05
0.000102334
0.000105871
0.000119105
0.000118837
0.000123159
0.00010557
0.000107313
0.000113445
0.000112697
0.000119855
0.000122855
0.000105973
0.000104806
0.00011289
0.0001127
0.000107692
0.000112643
0.000112265
0.000117235
0.000123955
0.000108125
0.000113682
0.000112057
0.000122422
0.000124124
0.000124738
0.000115075
0.000113052
0.000114678
0.000115176
0.00012307
0.000124561
0.000114531
0.000113787
0.000114588
0.000116562
0.000113557
0.000114805
0.000114945
0.000124509
0.00012521
0.000112523
0.000115786
0.000115
0.000125024
0.000124879
0.000130502
0.000115021
0.000117043
0.000123099
0.000122269
0.000125552
0.000130412
0.000115566
0.000117967
0.000122969
0.000120572
0.000115957
0.000122473
0.00012313
0.000125673
0.000129172
0.000117078
0.000121398
0.000123254
0.000130837
0.000131481
0.00013206
0.000124696
0.000123522
0.00012519
0.000126705
0.000131007
0.000132627
0.000124596
0.000121546
0.000125568
0.000127949
0.000125337
0.000126926
0.000126628
0.000129709
0.000133486
0.000124288
0.000126942
0.000126474
0.000132592
0.000132226
0.00013733
0.000126144
0.000127566
0.00013282
0.00013085
0.000133089
0.000135772
0.000126501
0.000129925
0.000132519
0.000130986
0.000126446
0.000130428
0.0001309
0.000134554
0.00013603
0.00012769
0.000131973
0.000131716
0.000136207
0.00013818
0.000138647
0.000134408
0.000132424
0.000135272
0.000136787
0.000136527
0.000140033
0.000134019
0.000130736
0.000134956
0.000134774
0.000133196
0.000136897
0.000136338
0.000135921
0.000138404
0.000132598
0.000133946
0.000135029
0.000139306
0.00013859
0.000142505
0.000135472
0.000137486
0.000139836
0.000139556
0.000140445
0.000142104
0.000135087
0.000137088
0.000139602
0.000142479
0.000136236
0.000139717
0.000139331
0.000139818
0.000144728
0.000136109
0.000143058
0.000141089
0.000142492
0.000143898
0.00014741
0.000142303
0.000141316
0.000147366
0.000146231
0.000142945
0.000146419
0.000142284
0.000143828
0.000148001
0.00014529
0.000141914
0.000146751
0.000147785
0.000145091
0.000144897
0.000143267
0.000145037
0.000147029
0.000147
0.000147442
0.000146317
0.000147566
0.000146499
0.000146631
0.000146856
0.000146519
0.000146645
0.000148328
0.000144935
0.000146892
0.000145371
0.000148118
0.000146177
0.000147348
0.000144634
0.000146465
0.000146972
0.000145798
0.000146232
0.000146902
0.000146644
0.000152134
0.000147634
0.000148945
0.000153986
0.000154629
0.000147483
0.000152627
0.000146586
0.00014816
0.000153648
0.000155924
0.00014838
0.000154531
0.000153646
0.000147966
0.000153653
0.000147968
0.000155904
0.000153153
0.000151533
0.000152532
0.000154013
0.000154463
0.000154982
0.00015653
0.000156923
0.00015288
0.000154317
0.000154716
0.000156779
0.00015718
0.000156854
0.000153813
0.000157377
0.000156363
0.000153852
0.000153683
0.00015348
0.000156162
0.000156731
0.00015387
0.000155015
0.000158694
0.000158635
0.000158965
0.000164155
0.000164105
0.000155348
0.000158703
0.000159119
0.000158203
0.000164099
0.000163717
0.000158792
0.000164217
0.000164563
0.000154307
0.000158581
0.000159248
0.000164022
0.000165047
0.000159311
0.000158697
0.000157012
0.000164581
0.000164398
0.000163481
0.000163175
0.000158655
0.000156691
0.000164423
0.000164146
0.000163236
0.000163034
0.000164891
0.000163077
0.000163655
0.00015862
0.000157001
0.000165379
0.000163685
0.000164245
0.000157202
0.000157124
0.000166995
0.000163093
0.00016274
0.00017328
0.000173077
0.000156781
0.000166931
0.00016288
0.000162757
0.000173303
0.00017342
0.000163079
0.000173133
0.000172816
0.000157075
0.000166976
0.000163645
0.000173155
0.000172718
0.000166754
0.00016857
0.000171543
0.000176517
0.000176409
0.000180755
0.000180754
0.000168542
0.000171586
0.000176506
0.000176596
0.000180693
0.000180804
0.000176269
0.000180806
0.000180655
0.000168558
0.000171539
0.000176175
0.000180733
0.000180553
0.000171491
0.0001711
0.000161735
0.000181457
0.000181476
0.000173628
0.000173766
0.000171151
0.000161827
0.000181385
0.000181484
0.000173547
0.000173517
0.000181374
0.000173644
0.00017366
0.000171086
0.000161685
0.000181265
0.000173637
0.000173587
0.00016181
0.000160606
0.000154946
0.000170288
0.000170414
0.000164338
0.000164402
0.000160694
0.000154974
0.000170226
0.000170191
0.000164327
0.000164287
0.000170336
0.000164344
0.000164411
0.000160568
0.00015494
0.000170293
0.00016444
0.000164422
0.000155035
0.000154384
0.000163655
0.000162865
0.000162925
0.000170579
0.000170431
0.000154382
0.00016356
0.000162857
0.000162808
0.000170681
0.000170677
0.000162947
0.000170568
0.000170611
0.000154389
0.000163648
0.000162959
0.000170636
0.000170649
0.000163623
0.000166679
0.000180949
0.000176945
0.000176816
0.000193897
0.000193822
0.000166592
0.000180904
0.000177029
0.00017702
0.000193945
0.00019391
0.000176959
0.000193892
0.000193889
0.000166665
0.0001809
0.000176965
0.000193831
0.000193862
0.00018091
0.000183078
0.000191592
0.000198412
0.000198359
0.000209173
0.000209188
0.000183045
0.000191628
0.000198455
0.000198411
0.000209203
0.000209136
0.000198409
0.000209237
0.000209203
0.000183025
0.00019153
0.000198381
0.000209094
0.000209183
0.000191606
0.000192879
0.00019872
0.000211985
0.000212018
0.000218065
0.000218129
0.000192926
0.000198792
0.00021201
0.000211936
0.00021808
0.000217991
0.000212024
0.000218161
0.000218125
0.000192816
0.000198666
0.000212011
0.000218003
0.00021812
0.000198772
0.000197863
0.000186731
0.000219844
0.000219916
0.000208338
0.000208397
0.000197934
0.000186769
0.000219855
0.000219765
0.000208336
0.00020828
0.000219908
0.000208395
0.000208361
0.000197824
0.000186734
0.000219908
0.000208405
0.000208409
0.000186752
0.000183316
0.000165583
0.000201481
0.000201524
0.000180978
0.000180987
0.000183348
0.00016559
0.000201485
0.000201441
0.000180984
0.000180978
0.000201491
0.000180995
0.000180964
0.000183324
0.000165612
0.000201537
0.000181047
0.000181006
0.000165579
0.00016331
0.000154923
0.000175348
0.00017535
0.000165162
0.000165154
0.000163316
0.000154923
0.000175353
0.000175357
0.000165163
0.000165184
0.000175333
0.000165167
0.000165151
0.000163339
0.000154949
0.000175372
0.000165209
0.000165176
0.000154922
0.000154418
0.000158172
0.000164092
0.000164082
0.000165193
0.000165184
0.000154418
0.000158174
0.000164092
0.000164114
0.00016519
0.000165206
0.000164084
0.000165197
0.000165198
0.000154444
0.00015818
0.000164104
0.000165204
0.000165196
0.000158174
0.000160019
0.00016931
0.000169735
0.00016973
0.000182209
0.000182209
0.000160022
0.000169316
0.000169735
0.000169743
0.000182213
0.000182205
0.00016974
0.000182224
0.000182211
0.000160025
0.00016931
0.000169739
0.00018222
0.000182216
0.00016931
0.000170939
0.000178303
0.000186
0.000186001
0.000195639
0.000195639
0.000170945
0.00017831
0.000186007
0.000185994
0.00019565
0.000195628
0.000186003
0.000195662
0.000195643
0.000170939
0.000178299
0.000186009
0.000195655
0.000195653
0.000178303
0.000179296
0.000183345
0.000198148
0.000198148
0.000203545
0.000203544
0.000179303
0.000183353
0.000198161
0.000198136
0.000203561
0.000203533
0.000198152
0.000203573
0.000203552
0.000179293
0.000183341
0.000198164
0.000203566
0.000203567
0.000183347
0.000183764
0.000185637
0.000204746
0.000204745
0.000207124
0.000207122
0.000183772
0.000185644
0.000204763
0.000204733
0.000207141
0.000207111
0.000204753
0.000207155
0.000207131
0.00018376
0.000185633
0.000204769
0.000207147
0.000207149
0.000185639
0.000185753
0.000186583
0.000207631
0.000207629
0.000208626
0.000208623
0.000185761
0.000186592
0.000207649
0.000207619
0.000208642
0.000208612
0.000207639
0.000208658
0.000208633
0.000185749
0.00018658
0.000207656
0.000208649
0.000208651
0.000186586
0.000186549
0.000186909
0.000208826
0.000208823
0.000209141
0.000209139
0.000186557
0.000186918
0.000208843
0.000208812
0.000209159
0.000209127
0.000208833
0.000209174
0.000209149
0.000186545
0.000186906
0.000208851
0.000209165
0.000209167
0.000186913
0.000186799
0.000186981
0.000209177
0.000209175
0.000209197
0.000209195
0.000186808
0.000186989
0.000209195
0.000209163
0.000209215
0.000209183
0.000209185
0.00020923
0.000209205
0.000186795
0.000186976
0.000209204
0.000209222
0.000209224
0.000186984
0.000186847
0.000186891
0.000209178
0.000209175
0.000209146
0.000209144
0.000186855
0.000186899
0.000209196
0.000209164
0.000209164
0.000209132
0.000209186
0.000209179
0.000209154
0.000186842
0.000186887
0.000209205
0.00020917
0.000209172
0.000186895
0.000186752
0.000187028
0.000209151
0.00020915
0.000209226
0.000209225
0.000186761
0.000187039
0.000209169
0.000209138
0.000209244
0.000209212
0.000209159
0.00020926
0.000209233
0.00018675
0.000187024
0.000209177
0.00020925
0.000209251
0.00018703
0.000186908
0.000186963
0.000209231
0.000209229
0.000209182
0.00020918
0.000186917
0.00018697
0.000209249
0.000209217
0.0002092
0.000209168
0.000209238
0.000209215
0.00020919
0.000186904
0.000186957
0.000209256
0.000209206
0.000209208
0.000186964
0.000186813
0.000186948
0.000209172
0.00020917
0.000209185
0.000209183
0.000186819
0.000186959
0.000209191
0.000209159
0.000209203
0.000209172
0.00020918
0.000209219
0.000209193
0.000186807
0.000186946
0.000209199
0.00020921
0.000209212
0.000186952
0.000186834
0.000187023
0.000209203
0.000209202
0.000209206
0.000209203
0.000186845
0.000187031
0.000209221
0.00020919
0.000209224
0.000209192
0.000209211
0.000209239
0.000209213
0.000186832
0.000187017
0.000209229
0.000209229
0.00020923
0.000187024
0.00018688
0.000186921
0.000209195
0.000209191
0.00020918
0.000209177
0.000186886
0.000186929
0.000209213
0.00020918
0.000209198
0.000209166
0.000209201
0.000209213
0.000209187
0.000186873
0.000186916
0.000209218
0.000209204
0.000209205
0.000186922
0.000186789
0.000187009
0.000209186
0.000209185
0.000209197
0.000209195
0.000186797
0.000187021
0.000209205
0.000209173
0.000209215
0.000209184
0.000209194
0.000209231
0.000209205
0.000186785
0.000187007
0.000209213
0.000209222
0.000209223
0.000187015
0.000186883
0.000186947
0.000209197
0.000209195
0.000209188
0.000209186
0.000186893
0.000186952
0.000209215
0.000209183
0.000209207
0.000209174
0.000209204
0.000209222
0.000209195
0.00018688
0.000186938
0.000209222
0.000209212
0.000209213
0.000186945
0.000186798
0.000186995
0.000209189
0.000209187
0.000209192
0.00020919
0.000186804
0.000187008
0.000209207
0.000209175
0.00020921
0.000209179
0.000209196
0.000209225
0.0002092
0.000186791
0.000186995
0.000209214
0.000209216
0.000209218
0.000187001
0.000186878
0.000186943
0.000209196
0.000209194
0.000209186
0.000209184
0.000186889
0.000186946
0.000209214
0.000209182
0.000209205
0.000209173
0.000209203
0.00020922
0.000209194
0.000186877
0.000186935
0.000209221
0.00020921
0.000209212
0.000186943
0.000186795
0.000186999
0.000209188
0.000209186
0.000209191
0.000209189
0.000186799
0.000187015
0.000209207
0.000209175
0.000209209
0.000209177
0.000209196
0.000209225
0.000209198
0.000186789
0.000186999
0.000209213
0.000209215
0.000209216
0.000187004
0.00018688
0.00018693
0.000209195
0.000209193
0.000209185
0.000209183
0.000186893
0.000186931
0.000209214
0.000209182
0.000209203
0.000209171
0.000209203
0.000209218
0.000209192
0.000186879
0.000186921
0.00020922
0.000209209
0.00020921
0.00018693
0.000186787
0.000187014
0.000209192
0.000209191
0.000209189
0.000209187
0.000186794
0.000187026
0.00020921
0.000209178
0.000209207
0.000209175
0.000209199
0.000209222
0.000209196
0.000186782
0.000187011
0.000209217
0.000209212
0.000209214
0.000187017
0.000186885
0.000186925
0.000209197
0.000209195
0.000209188
0.000209186
0.000186888
0.00018694
0.000209216
0.000209183
0.000209206
0.000209174
0.000209204
0.000209222
0.000209195
0.000186878
0.000186924
0.000209222
0.000209212
0.000209213
0.000186929
0.000186802
0.000186993
0.000209201
0.0002092
0.000209239
0.000209237
0.000186827
0.000186986
0.000209219
0.000209188
0.000209258
0.000209227
0.000209209
0.000209272
0.000209247
0.000186809
0.000186975
0.000209226
0.000209264
0.000209266
0.000186987
0.000186841
0.00018833
0.000209118
0.000209117
0.000211702
0.000211704
0.000186835
0.000188342
0.000209138
0.000209105
0.00021172
0.000211696
0.000209125
0.000211731
0.000211711
0.000186826
0.000188332
0.000209145
0.000211723
0.000211729
0.000188339
0.000190178
0.000210311
0.000210313
0.000190182
0.000210327
0.000210305
0.000230417
0.000230416
0.000230422
0.00021032
0.000190173
0.000210335
2.87427e-05
3.04569e-06
1.7804e-05
1.78434e-05
5.53863e-07
3.22494e-06
3.52992e-06
8.83387e-06
6.57038e-07
2.62872e-06
9.14248e-06
1.36634e-06
2.23969e-06
1.78096e-06
1.71017e-06
1.21252e-06
1.33665e-05
1.12116e-06
1.51726e-05
1.06722e-05
1.29371e-05
1.08801e-06
1.36657e-05
9.52754e-07
1.54399e-05
7.88324e-06
8.27964e-06
8.1957e-06
7.91196e-06
7.76046e-06
8.10649e-06
8.02476e-06
5.93866e-07
1.99258e-06
4.10511e-06
5.87893e-06
5.74506e-07
2.39641e-06
3.97664e-06
1.07357e-05
1.29665e-05
6.88482e-07
3.61518e-06
6.43988e-07
2.38684e-06
6.73816e-07
3.57985e-06
7.89629e-07
1.5019e-06
1.51081e-06
2.22304e-06
1.69998e-06
1.7157e-06
1.27721e-06
1.84735e-05
1.31058e-06
2.09798e-05
1.70041e-05
1.91741e-05
1.25622e-06
1.86384e-05
1.22332e-06
2.11804e-05
7.73739e-06
8.14533e-06
8.06168e-06
8.06788e-06