/*--------------------------------*- C++ -*----------------------------------*\
| =========                 |                                                 |
| \\      /  F ield         | OpenFOAM: The Open Source CFD Toolbox           |
|  \\    /   O peration     | Version:  v2012                                 |
|   \\  /    A nd           | Website:  www.openfoam.com                      |
|    \\/     M anipulation  |                                                 |
\*---------------------------------------------------------------------------*/
FoamFile
{
    version     2.0;
    format      ascii;
    class       volScalarField;
    location    "287.5";
    object      p;
}
// * * * * * * * * * * * * * * * * * * * * * * * * * * * * * * * * * * * * * //

dimensions      [0 2 -2 0 0 0 0];


internalField   nonuniform List<scalar> 
171728
(
0.00352642
0.00352542
0.00352541
0.00352602
0.0034909
0.00348956
0.00348946
0.0034924
0.00345282
0.00345083
0.00345088
0.00345313
0.00340862
0.00340707
0.00340696
0.00340918
0.00336025
0.00335882
0.0033588
0.00336113
0.0033115
0.00331012
0.00331009
0.00331246
0.0032635
0.00326225
0.00326224
0.00326458
0.0032162
0.00321506
0.00321506
0.00321744
0.00316979
0.00316879
0.00316878
0.00317119
0.00312451
0.00312363
0.0031236
0.003126
0.0030801
0.00307933
0.00307928
0.00308169
0.00303642
0.00303568
0.00303571
0.00303813
0.00299331
0.00299278
0.00299269
0.00299512
0.0029506
0.00294997
0.00295014
0.00295253
0.00290822
0.00290778
0.00290781
0.00291021
0.00286614
0.00286577
0.00286563
0.00286819
0.00282444
0.00282421
0.00282408
0.00282653
0.00278308
0.00278288
0.00278282
0.0027851
0.00274206
0.0027417
0.00274192
0.00274394
0.00270139
0.00270116
0.00270139
0.00270319
0.00266109
0.00266112
0.0026612
0.00266294
0.00262106
0.00262095
0.00262116
0.0026229
0.00258141
0.00258161
0.00258144
0.00258314
0.00254187
0.0025416
0.00254169
0.00254355
0.00250272
0.00250276
0.00250266
0.00250469
0.00246372
0.00246384
0.00246393
0.00246543
0.00242491
0.00242481
0.00242492
0.00242706
0.00238637
0.00238666
0.0023866
0.00238853
0.00234811
0.00234826
0.00234831
0.00235046
0.00230986
0.00231026
0.00231018
0.00231209
0.00227191
0.00227202
0.00227219
0.00227418
0.00223401
0.00223449
0.00223437
0.00223634
0.00219644
0.00219675
0.00219687
0.00219867
0.00215884
0.00215924
0.00215914
0.00216108
0.00212151
0.00212193
0.00212198
0.00212412
0.00208431
0.00208462
0.00208462
0.0020863
0.00204701
0.00204736
0.00204735
0.00204954
0.00201025
0.00201053
0.00201049
0.00201221
0.00197338
0.00197354
0.00197368
0.00197569
0.00193686
0.00193726
0.00193694
0.00193883
0.00190012
0.00190005
0.00190027
0.00190226
0.00186396
0.00186411
0.00186411
0.00186628
0.0018277
0.00182777
0.00182762
0.00182955
0.00179155
0.00179141
0.0017915
0.00179366
0.00175552
0.00175549
0.00175558
0.00175747
0.00171984
0.00171977
0.00171959
0.0017218
0.00168418
0.00168388
0.00168412
0.001686
0.00164853
0.00164842
0.00164829
0.00165044
0.00161317
0.00161296
0.00161296
0.00161499
0.00157784
0.00157758
0.00157767
0.00157961
0.00154269
0.0015424
0.00154228
0.00154443
0.00150748
0.00150728
0.00150729
0.00150924
0.00147254
0.00147223
0.00147236
0.00147433
0.00143788
0.00143745
0.00143724
0.00143935
0.00140267
0.00140249
0.00140264
0.00140447
0.00136821
0.00136799
0.00136796
0.00136995
0.00133372
0.00133341
0.00133335
0.00133535
0.00129949
0.00129911
0.00129919
0.00130102
0.00126495
0.00126472
0.0012647
0.00126654
0.00123117
0.00123114
0.0012311
0.00123305
0.001197
0.00119647
0.00119648
0.00119834
0.00116179
0.00116156
0.00116156
0.00116344
0.00112698
0.00112729
0.0011273
0.00112935
0.0010941
0.0010943
0.0010943
0.00109624
0.00106286
0.00106195
0.00106196
0.00106354
0.00102953
0.00102885
0.00102886
0.00103051
0.000994089
0.000993753
0.00099375
0.000995663
0.000955552
0.000955407
0.00095541
0.000957627
0.000915129
0.000915965
0.00091596
0.000918499
0.000877249
0.000877933
0.000877931
0.000880353
0.000843203
0.000843469
0.000843464
0.00084549
0.00081304
0.000812489
0.000812489
0.000813938
0.000783688
0.000783148
0.000783148
0.000784537
0.000754105
0.000753804
0.000753805
0.000755385
0.000722311
0.000722155
0.000722155
0.000723949
0.000688247
0.000688162
0.000688163
0.000690109
0.000652838
0.00065279
0.00065279
0.000654818
0.000616794
0.000616767
0.000616767
0.000618833
0.00058049
0.000580467
0.000580466
0.000582549
0.000544106
0.00054408
0.00054408
0.000546164
0.000507687
0.00050766
0.00050766
0.000509747
0.000471256
0.000471227
0.000471228
0.000473314
0.000434824
0.000434798
0.000434798
0.000436884
0.000398388
0.00039836
0.00039836
0.000400446
0.000361958
0.000361931
0.000361931
0.000364017
0.000325527
0.000325498
0.000325498
0.000327585
0.000289097
0.00028907
0.00028907
0.000291155
0.000252666
0.00025264
0.000252639
0.000254724
0.000216233
0.000216206
0.000216206
0.000218288
0.000179797
0.000179771
0.000179771
0.000181851
0.00014336
0.000143336
0.000143336
0.000145407
0.000106915
0.000106893
0.000106893
0.000108948
7.04716e-05
7.04447e-05
7.04434e-05
7.24658e-05
3.47879e-05
3.42154e-05
3.42123e-05
3.60848e-05
6.1505e-06
7.03743e-06
7.03639e-06
5.29195e-06
0.00353085
0.00352843
0.00352847
0.00353089
0.00352844
0.00352849
0.00353481
0.00353477
0.00353482
0.00353478
0.00352854
0.00352827
0.00353092
0.00352853
0.00352834
0.00353065
0.00352609
0.00349705
0.00352534
0.00352535
0.00349893
0.00349888
0.00352613
0.00349706
0.00352535
0.00352537
0.00349894
0.00349894
0.0035254
0.00349892
0.00349901
0.00352614
0.00349704
0.00352537
0.00349895
0.00349899
0.00349717
0.00349229
0.00345863
0.00348941
0.00348943
0.00346089
0.00346094
0.00349233
0.00345865
0.0034894
0.0034894
0.00346089
0.0034609
0.00348949
0.00346093
0.00346088
0.00349231
0.00345862
0.0034895
0.0034609
0.00346089
0.00345861
0.00345314
0.00341537
0.00345082
0.00345076
0.00341847
0.00341839
0.00345315
0.00341537
0.00345082
0.00345087
0.00341848
0.00341845
0.00345075
0.0034183
0.00341839
0.00345315
0.00341537
0.00345075
0.00341844
0.00341836
0.00341538
0.00340917
0.00336761
0.00340694
0.003407
0.00337094
0.00337092
0.00340916
0.00336761
0.00340692
0.00340696
0.00337095
0.00337096
0.00340694
0.00337087
0.00337094
0.00340918
0.00336762
0.00340698
0.00337097
0.00337095
0.00336762
0.00336114
0.00331891
0.00335879
0.00335885
0.00332219
0.00332222
0.00336116
0.00331896
0.0033588
0.00335881
0.00332218
0.00332219
0.00335878
0.00332222
0.00332218
0.00336115
0.00331891
0.00335881
0.0033222
0.00332217
0.00331888
0.00331249
0.0032709
0.0033101
0.00331011
0.00327414
0.00327413
0.00331251
0.0032709
0.00331009
0.0033101
0.00327414
0.00327414
0.00331009
0.00327415
0.00327413
0.00331249
0.0032709
0.0033101
0.00327414
0.00327413
0.00327088
0.0032646
0.00322365
0.00326223
0.00326225
0.0032268
0.0032268
0.0032646
0.00322365
0.00326223
0.00326226
0.00322681
0.00322681
0.00326222
0.00322682
0.00322681
0.00326461
0.00322364
0.00326222
0.0032268
0.0032268
0.00322365
0.00321745
0.00317723
0.00321507
0.00321506
0.00318024
0.00318027
0.00321746
0.00317724
0.00321506
0.00321507
0.00318025
0.00318026
0.00321506
0.00318026
0.00318024
0.00321746
0.00317724
0.00321505
0.00318024
0.00318023
0.00317723
0.00317118
0.00313193
0.00316878
0.0031688
0.0031348
0.00313485
0.0031712
0.0031319
0.00316877
0.00316878
0.0031348
0.00313484
0.00316878
0.00313481
0.00313481
0.00317119
0.0031319
0.00316878
0.00313484
0.00313481
0.00313191
0.00312603
0.00308748
0.00312363
0.00312363
0.00309031
0.00309038
0.00312601
0.00308748
0.00312362
0.0031236
0.00309029
0.00309033
0.00312361
0.0030903
0.00309033
0.00312599
0.00308745
0.00312361
0.0030903
0.00309033
0.00308749
0.00308172
0.00304382
0.00307932
0.00307928
0.00304658
0.00304659
0.0030817
0.00304381
0.00307933
0.00307928
0.0030466
0.00304657
0.00307929
0.0030466
0.00304655
0.00308167
0.00304379
0.00307928
0.0030466
0.00304655
0.0030438
0.00303811
0.0030007
0.00303571
0.00303567
0.00300342
0.00300345
0.00303812
0.00300073
0.0030357
0.00303574
0.0030034
0.00300345
0.00303573
0.00300344
0.0030034
0.0030381
0.00300065
0.00303573
0.00300345
0.00300339
0.00300071
0.0029951
0.00295803
0.0029927
0.00299271
0.00296068
0.00296071
0.00299513
0.00295801
0.00299272
0.00299269
0.00296069
0.00296083
0.00299278
0.00296074
0.0029607
0.00299504
0.00295804
0.00299278
0.00296076
0.0029607
0.00295804
0.00295251
0.00291566
0.00295018
0.00295008
0.00291834
0.00291833
0.00295246
0.00291565
0.00295017
0.0029501
0.00291836
0.00291832
0.0029502
0.00291828
0.00291836
0.00295247
0.00291571
0.0029502
0.0029184
0.00291839
0.00291567
0.00291019
0.00287353
0.00290783
0.00290777
0.00287616
0.00287629
0.00291017
0.00287358
0.0029078
0.00290788
0.00287615
0.00287623
0.00290793
0.00287634
0.00287634
0.00291023
0.0028735
0.00290792
0.00287618
0.00287631
0.0028736
0.00286815
0.00283178
0.00286583
0.00286571
0.00283444
0.0028345
0.00286814
0.00283182
0.00286581
0.00286568
0.00283443
0.00283448
0.00286593
0.00283459
0.00283454
0.00286805
0.00283174
0.00286591
0.00283438
0.00283451
0.00283185
0.00282642
0.00279041
0.00282409
0.0028241
0.00279316
0.00279317
0.00282647
0.00279051
0.00282411
0.00282399
0.00279312
0.00279314
0.0028242
0.00279315
0.00279297
0.00282637
0.00279028
0.00282424
0.00279311
0.00279301
0.00279037
0.00278507
0.00274936
0.0027828
0.00278284
0.00275213
0.00275205
0.00278518
0.00274931
0.00278281
0.00278266
0.00275211
0.00275211
0.00278289
0.0027521
0.00275197
0.00278495
0.00274921
0.00278286
0.00275219
0.00275197
0.00274921
0.00274409
0.00270858
0.00274191
0.00274189
0.00271126
0.00271136
0.00274406
0.00270855
0.00274191
0.00274184
0.00271128
0.00271135
0.00274179
0.00271152
0.00271143
0.00274399
0.00270846
0.00274175
0.0027115
0.00271145
0.00270833
0.0027033
0.00266808
0.00270117
0.00270122
0.00267096
0.00267102
0.00270334
0.0026681
0.00270123
0.00270125
0.00267095
0.00267094
0.00270122
0.00267108
0.00267109
0.00270338
0.00266791
0.00270122
0.0026711
0.00267113
0.00266793
0.0026628
0.00262795
0.00266087
0.00266108
0.00263094
0.00263099
0.00266307
0.0026277
0.00266085
0.00266095
0.00263096
0.00263097
0.00266112
0.00263092
0.00263091
0.00266291
0.0026277
0.00266116
0.00263092
0.00263096
0.00262782
0.00262272
0.00258827
0.00262088
0.00262094
0.00259124
0.00259142
0.0026227
0.00258806
0.00262082
0.00262097
0.00259125
0.00259122
0.0026211
0.00259122
0.00259116
0.00262274
0.00258805
0.00262115
0.00259108
0.00259119
0.00258804
0.00258314
0.00254879
0.0025813
0.00258167
0.00255179
0.00255162
0.00258342
0.00254862
0.00258128
0.00258145
0.00255174
0.00255157
0.00258136
0.00255158
0.00255173
0.00258318
0.0025485
0.0025814
0.00255153
0.00255179
0.00254856
0.0025437
0.0025097
0.00254186
0.00254167
0.00251267
0.00251255
0.00254341
0.0025097
0.00254184
0.00254178
0.00251262
0.00251254
0.00254186
0.00251259
0.00251248
0.00254337
0.00250969
0.00254186
0.00251262
0.00251254
0.00250951
0.00250476
0.00247032
0.00250289
0.0025028
0.00247345
0.00247362
0.00250465
0.00247128
0.00250282
0.00250264
0.00247342
0.00247357
0.00250286
0.00247364
0.00247339
0.00250451
0.00247081
0.00250285
0.00247368
0.00247343
0.00247034
0.00246576
0.00243189
0.00246391
0.002464
0.00243465
0.00243446
0.00246629
0.00243111
0.00246386
0.00246391
0.0024347
0.00243469
0.00246378
0.00243456
0.0024347
0.00246625
0.00243178
0.00246383
0.00243461
0.0024347
0.00243208
0.00242668
0.00239388
0.00242489
0.00242487
0.0023963
0.00239628
0.00242606
0.00239438
0.00242485
0.00242488
0.00239626
0.00239623
0.00242504
0.00239633
0.00239616
0.00242659
0.00239362
0.00242501
0.00239626
0.00239616
0.00239347
0.00238922
0.00235488
0.00238669
0.00238661
0.00235778
0.00235789
0.00238948
0.00235514
0.00238672
0.00238657
0.00235784
0.00235791
0.00238657
0.00235784
0.00235784
0.00238889
0.00235532
0.00238658
0.00235788
0.00235786
0.00235526
0.00234991
0.0023174
0.00234829
0.00234829
0.00231968
0.00231978
0.00235013
0.00231689
0.00234837
0.00234833
0.00231966
0.00231972
0.00234831
0.00231978
0.00231969
0.0023503
0.00231688
0.00234834
0.0023197
0.00231963
0.00231707
0.0023124
0.00227894
0.00231009
0.0023102
0.00228173
0.00228154
0.00231211
0.00227933
0.00231007
0.00231024
0.00228168
0.00228159
0.00231014
0.00228156
0.00228162
0.002312
0.0022793
0.00231009
0.00228164
0.00228166
0.00227909
0.00227414
0.00224134
0.00227225
0.00227205
0.00224377
0.00224392
0.00227423
0.00224087
0.00227221
0.00227217
0.00224381
0.00224385
0.00227213
0.00224391
0.0022438
0.00227428
0.00224131
0.00227217
0.00224383
0.00224379
0.00224127
0.00223636
0.00220353
0.0022343
0.00223445
0.0022062
0.00220622
0.00223618
0.00220382
0.00223433
0.00223436
0.00220619
0.00220617
0.00223444
0.00220621
0.00220627
0.00223649
0.00220352
0.00223442
0.00220619
0.00220622
0.00220358
0.00219867
0.00216614
0.00219685
0.00219677
0.00216859
0.0021686
0.00219889
0.0021659
0.00219683
0.00219685
0.00216858
0.00216863
0.00219681
0.00216857
0.0021684
0.00219866
0.00216613
0.00219679
0.0021686
0.00216845
0.00216602
0.00216121
0.00212867
0.00215917
0.00215926
0.00213123
0.00213121
0.00216101
0.00212881
0.00215917
0.00215918
0.00213125
0.00213121
0.0021591
0.00213126
0.00213149
0.00216123
0.00212857
0.00215912
0.00213124
0.00213146
0.00212905
0.00212381
0.00209137
0.00212193
0.00212186
0.00209394
0.00209396
0.00212396
0.00209138
0.00212197
0.00212194
0.00209394
0.00209396
0.00212216
0.00209397
0.00209374
0.00212373
0.00209153
0.00212214
0.00209398
0.00209373
0.00209118
0.00208648
0.0020543
0.0020846
0.00208465
0.00205668
0.00205665
0.00208647
0.00205419
0.00208457
0.00208461
0.00205666
0.00205665
0.00208435
0.00205663
0.00205668
0.00208656
0.00205413
0.00208435
0.00205662
0.0020567
0.00205434
0.00204945
0.00201713
0.00204743
0.00204737
0.00201965
0.00201982
0.00204934
0.00201736
0.00204745
0.00204738
0.00201968
0.00201975
0.00204756
0.00201981
0.00201969
0.00204931
0.0020173
0.00204758
0.00201973
0.00201968
0.0020171
0.00201229
0.00198067
0.00201041
0.00201054
0.00198295
0.00198266
0.00201244
0.0019803
0.00201042
0.00201048
0.00198292
0.00198279
0.00201036
0.00198267
0.00198283
0.00201239
0.00198046
0.00201035
0.0019828
0.00198283
0.0019805
0.00197584
0.00194355
0.00197383
0.00197353
0.00194602
0.00194644
0.00197552
0.0019442
0.0019738
0.00197366
0.00194605
0.00194623
0.00197376
0.00194641
0.00194622
0.00197566
0.00194376
0.00197377
0.00194622
0.00194623
0.00194376
0.00193872
0.00190723
0.00193678
0.00193727
0.00190947
0.00190925
0.0019393
0.00190683
0.00193679
0.00193696
0.00190945
0.00190934
0.00193691
0.00190926
0.00190932
0.00193885
0.00190707
0.00193691
0.00190934
0.00190929
0.00190703
0.00190243
0.0018709
0.00190041
0.00190004
0.00187314
0.00187305
0.00190202
0.00187092
0.00190041
0.00190028
0.00187317
0.00187318
0.00190027
0.00187304
0.00187323
0.00190229
0.00187103
0.00190026
0.00187317
0.00187326
0.00187112
0.00186601
0.00183444
0.00186402
0.00186413
0.00183666
0.00183693
0.00186618
0.00183461
0.00186403
0.0018641
0.00183664
0.00183675
0.00186415
0.00183693
0.00183669
0.00186618
0.00183441
0.00186418
0.00183677
0.00183666
0.00183433
0.00182969
0.0017984
0.00182764
0.00182774
0.00180059
0.00180041
0.00182973
0.00179824
0.00182763
0.00182763
0.0018006
0.00180045
0.00182756
0.00180043
0.0018006
0.00182958
0.00179836
0.00182753
0.00180044
0.00180059
0.00179847
0.00179356
0.00176236
0.00179153
0.00179141
0.00176449
0.0017645
0.00179345
0.00176235
0.00179153
0.0017915
0.00176448
0.00176465
0.00179161
0.00176446
0.0017644
0.00179361
0.00176241
0.00179161
0.00176465
0.00176442
0.00176223
0.0017576
0.00172646
0.00175554
0.00175552
0.0017286
0.00172864
0.00175757
0.00172655
0.00175555
0.00175559
0.00172862
0.00172846
0.00175539
0.00172869
0.00172869
0.00175756
0.00172641
0.00175541
0.00172845
0.00172868
0.00172657
0.00172169
0.00169082
0.00171962
0.00171972
0.00169295
0.0016929
0.00172179
0.00169074
0.00171962
0.00171959
0.00169292
0.00169303
0.00171978
0.00169286
0.0016929
0.0017217
0.0016909
0.00171977
0.00169306
0.00169289
0.00169076
0.00168606
0.00165514
0.00168406
0.00168392
0.00165719
0.00165725
0.00168596
0.0016552
0.00168404
0.0016841
0.00165722
0.00165722
0.00168397
0.00165724
0.00165722
0.0016861
0.00165513
0.00168394
0.00165716
0.00165726
0.00165518
0.0016504
0.00161976
0.00164827
0.00164839
0.00162185
0.00162181
0.00165046
0.00161974
0.0016483
0.00164833
0.00162184
0.00162174
0.00164835
0.00162184
0.00162185
0.00165039
0.00161971
0.0016484
0.0016218
0.00162183
0.00161974
0.00161503
0.00158433
0.00161306
0.00161296
0.00158636
0.00158643
0.001615
0.00158436
0.00161303
0.0016129
0.00158637
0.00158652
0.00161301
0.00158642
0.00158637
0.00161498
0.00158443
0.00161295
0.00158647
0.00158638
0.00158432
0.00157962
0.00154917
0.00157752
0.00157759
0.00155125
0.00155117
0.00157962
0.00154914
0.00157754
0.00157769
0.00155124
0.00155109
0.0015775
0.00155115
0.00155118
0.0015797
0.00154906
0.00157758
0.00155115
0.00155119
0.00154915
0.00154445
0.0015139
0.00154249
0.0015424
0.00151594
0.00151605
0.00154444
0.001514
0.00154247
0.00154226
0.00151592
0.00151603
0.00154246
0.00151609
0.00151605
0.00154433
0.001514
0.00154239
0.00151596
0.00151597
0.00151395
0.0015092
0.00147902
0.00150713
0.00150725
0.00148101
0.00148094
0.00150927
0.00147893
0.00150714
0.00150733
0.00148106
0.00148109
0.0015072
0.00148093
0.00148095
0.00150931
0.00147905
0.00150722
0.00148117
0.00148107
0.00147901
0.00147434
0.0014441
0.00147236
0.00147224
0.0014462
0.0014462
0.00147426
0.00144413
0.0014724
0.00147229
0.0014462
0.00144604
0.00147229
0.00144621
0.00144624
0.00147433
0.00144397
0.00147235
0.00144595
0.00144611
0.00144408
0.00143938
0.00140911
0.00143741
0.00143747
0.00141113
0.00141119
0.00143943
0.00140916
0.00143738
0.00143731
0.00141108
0.00141124
0.00143744
0.00141116
0.00141111
0.00143928
0.00140922
0.00143733
0.00141126
0.00141116
0.00140913
0.00140443
0.00137465
0.00140246
0.00140252
0.00137663
0.0013766
0.00140449
0.00137459
0.00140242
0.00140258
0.00137669
0.00137668
0.00140245
0.00137665
0.00137662
0.00140455
0.00137462
0.00140252
0.00137671
0.00137666
0.00137463
0.00137
0.00133996
0.001368
0.00136792
0.00134199
0.00134197
0.00136991
0.00133996
0.0013681
0.00136798
0.001342
0.00134189
0.00136796
0.00134197
0.00134201
0.00136993
0.0013399
0.00136799
0.00134188
0.00134201
0.00133999
0.00133532
0.00130568
0.00133343
0.00133342
0.00130777
0.00130778
0.00133533
0.0013057
0.00133339
0.00133333
0.00130771
0.00130775
0.00133346
0.00130775
0.00130778
0.00133527
0.00130573
0.00133345
0.0013078
0.00130778
0.00130569
0.00130102
0.00127121
0.00129913
0.00129913
0.00127322
0.00127323
0.00130103
0.0012712
0.00129909
0.00129915
0.00127323
0.00127326
0.00129911
0.00127322
0.00127318
0.00130107
0.0012712
0.00129911
0.00127322
0.00127318
0.00127116
0.0012666
0.00123756
0.00126471
0.00126472
0.00123949
0.0012395
0.00126658
0.00123759
0.00126473
0.00126474
0.0012395
0.0012395
0.00126467
0.00123952
0.00123951
0.00126659
0.00123756
0.00126467
0.00123948
0.00123949
0.00123757
0.00123302
0.00120307
0.00123111
0.00123112
0.00120522
0.00120522
0.00123305
0.00120307
0.00123111
0.0012311
0.00120522
0.00120521
0.00123114
0.00120522
0.00120523
0.00123302
0.00120307
0.00123112
0.00120523
0.00120524
0.00120308
0.00119834
0.00116814
0.00119648
0.00119648
0.00117027
0.00117027
0.00119834
0.00116814
0.00119648
0.00119647
0.00117027
0.00117026
0.00119648
0.00117027
0.00117027
0.00119834
0.00116814
0.00119649
0.00117026
0.00117027
0.00116814
0.00116344
0.00113394
0.00116156
0.00116156
0.00113576
0.00113575
0.00116343
0.00113393
0.00116157
0.00116156
0.00113576
0.00113577
0.00116156
0.00113576
0.00113576
0.00116344
0.00113395
0.00116157
0.00113576
0.00113576
0.00113394
0.00112935
0.00110061
0.00112729
0.00112729
0.00110236
0.00110235
0.00112934
0.00110061
0.0011273
0.0011273
0.00110236
0.00110237
0.0011273
0.00110236
0.00110236
0.00112935
0.00110062
0.00112729
0.00110236
0.00110235
0.00110061
0.00109625
0.00106796
0.0010943
0.0010943
0.00107012
0.00107012
0.00109624
0.00106796
0.0010943
0.00109431
0.00107011
0.00107012
0.0010943
0.00107012
0.00107012
0.00109625
0.00106797
0.0010943
0.00107013
0.00107013
0.00106797
0.00106352
0.00103506
0.00106195
0.00106195
0.00103725
0.00103725
0.00106353
0.00103506
0.00106194
0.00106195
0.00103725
0.00103725
0.00106195
0.00103725
0.00103725
0.00106353
0.00103506
0.00106196
0.00103726
0.00103726
0.00103506
0.0010305
0.00100058
0.00102885
0.00102885
0.0010028
0.0010028
0.0010305
0.00100058
0.00102885
0.00102885
0.0010028
0.00100279
0.00102885
0.0010028
0.00100279
0.00103051
0.00100058
0.00102886
0.0010028
0.00100279
0.00100058
0.000995675
0.000962984
0.00099375
0.000993751
0.000965297
0.000965295
0.000995673
0.00096298
0.000993755
0.000993721
0.000965298
0.000965298
0.000993722
0.000965295
0.000965294
0.000995664
0.000962982
0.000993748
0.000965298
0.000965294
0.000962979
0.000957631
0.000923822
0.000955409
0.000955407
0.00092577
0.000925768
0.000957627
0.000923822
0.000955411
0.000955411
0.000925771
0.000925769
0.000955406
0.00092577
0.000925769
0.00095763
0.000923818
0.000955406
0.000925767
0.000925767
0.000923821
0.000918499
0.000885358
0.000915964
0.000915964
0.000887163
0.000887163
0.000918499
0.000885359
0.000915965
0.000915962
0.000887162
0.000887162
0.000915965
0.000887164
0.000887164
0.000918493
0.000885357
0.000915963
0.00088716
0.000887162
0.000885359
0.000880351
0.000849954
0.000877932
0.000877932
0.000851692
0.000851694
0.000880352
0.000849958
0.000877931
0.000877932
0.000851692
0.000851692
0.000877933
0.000851693
0.000851691
0.000880352
0.000849952
0.000877932
0.00085169
0.000851692
0.000849957
0.000845487
0.000818089
0.000843467
0.000843468
0.000820091
0.000820091
0.000845493
0.000818089
0.000843466
0.000843465
0.000820091
0.00082009
0.000843466
0.000820091
0.00082009
0.000845482
0.000818089
0.000843466
0.000820091
0.000820091
0.000818088
0.000813939
0.000788435
0.000812489
0.000812489
0.000790349
0.000790349
0.000813938
0.000788435
0.000812489
0.000812488
0.00079035
0.00079035
0.000812488
0.000790349
0.000790349
0.000813939
0.000788436
0.000812489
0.00079035
0.000790349
0.000788434
0.000784537
0.000759456
0.000783148
0.000783147
0.000761309
0.000761311
0.000784537
0.000759456
0.000783148
0.000783148
0.000761312
0.000761313
0.000783147
0.000761309
0.000761308
0.000784538
0.000759457
0.000783148
0.000761313
0.000761312
0.000759455
0.000755385
0.000728393
0.000753804
0.000753805
0.000730317
0.000730317
0.000755385
0.000728393
0.000753805
0.000753806
0.000730317
0.000730317
0.000753804
0.000730317
0.000730317
0.000755385
0.000728391
0.000753805
0.000730317
0.000730317
0.000728392
0.000723951
0.000694823
0.000722155
0.000722155
0.000696828
0.000696828
0.00072395
0.000694824
0.000722155
0.000722155
0.000696828
0.000696828
0.000722155
0.000696828
0.000696828
0.000723948
0.000694823
0.000722155
0.000696828
0.000696828
0.000694823
0.00069011
0.000659669
0.000688163
0.000688163
0.000661716
0.000661716
0.000690109
0.000659669
0.000688163
0.000688163
0.000661716
0.000661716
0.000688163
0.000661715
0.000661716
0.00069011
0.000659668
0.000688163
0.000661716
0.000661716
0.000659668
0.000654818
0.000623745
0.00065279
0.00065279
0.000625809
0.00062581
0.000654817
0.000623745
0.00065279
0.00065279
0.000625809
0.00062581
0.00065279
0.000625809
0.00062581
0.000654818
0.000623745
0.00065279
0.000625809
0.000625809
0.000623745
0.000618833
0.000587485
0.000616767
0.000616767
0.000589555
0.000589555
0.000618833
0.000587485
0.000616767
0.000616767
0.000589555
0.000589555
0.000616767
0.000589555
0.000589555
0.000618833
0.000587485
0.000616767
0.000589555
0.000589555
0.000587485
0.000582549
0.000551106
0.000580467
0.000580467
0.000553179
0.000553179
0.000582548
0.000551106
0.000580466
0.000580467
0.000553179
0.000553179
0.000580467
0.000553179
0.000553179
0.000582549
0.000551106
0.000580467
0.000553179
0.000553178
0.000551106
0.000546164
0.000514693
0.00054408
0.00054408
0.000516768
0.000516767
0.000546164
0.000514693
0.00054408
0.00054408
0.000516767
0.000516768
0.00054408
0.000516767
0.000516768
0.000546164
0.000514693
0.00054408
0.000516768
0.000516768
0.000514693
0.000509747
0.00047826
0.00050766
0.00050766
0.000480335
0.000480335
0.000509746
0.000478261
0.00050766
0.00050766
0.000480335
0.000480335
0.00050766
0.000480335
0.000480335
0.000509747
0.00047826
0.00050766
0.000480335
0.000480335
0.00047826
0.000473314
0.000441831
0.000471227
0.000471227
0.000443906
0.000443906
0.000473314
0.000441831
0.000471227
0.000471228
0.000443906
0.000443906
0.000471228
0.000443906
0.000443906
0.000473314
0.000441831
0.000471228
0.000443906
0.000443906
0.000441831
0.000436884
0.000405393
0.000434798
0.000434797
0.000407468
0.000407468
0.000436884
0.000405394
0.000434797
0.000434798
0.000407468
0.000407468
0.000434798
0.000407468
0.000407468
0.000436884
0.000405393
0.000434798
0.000407468
0.000407468
0.000405393
0.000400446
0.000368962
0.00039836
0.00039836
0.000371037
0.000371037
0.000400446
0.000368963
0.00039836
0.00039836
0.000371037
0.000371037
0.00039836
0.000371037
0.000371038
0.000400446
0.000368962
0.00039836
0.000371037
0.000371037
0.000368962
0.000364017
0.000332532
0.000361931
0.000361931
0.000334605
0.000334605
0.000364017
0.000332532
0.000361931
0.000361931
0.000334605
0.000334605
0.000361931
0.000334605
0.000334606
0.000364017
0.000332531
0.000361931
0.000334605
0.000334605
0.000332531
0.000327585
0.000296101
0.000325499
0.000325498
0.000298176
0.000298176
0.000327584
0.000296101
0.000325498
0.000325498
0.000298176
0.000298176
0.000325499
0.000298176
0.000298176
0.000327585
0.000296101
0.000325498
0.000298176
0.000298176
0.000296101
0.000291154
0.000259672
0.000289069
0.000289069
0.000261746
0.000261746
0.000291154
0.000259672
0.000289069
0.00028907
0.000261746
0.000261746
0.00028907
0.000261745
0.000261746
0.000291155
0.000259672
0.00028907
0.000261745
0.000261745
0.000259672
0.000254724
0.000223237
0.00025264
0.00025264
0.00022531
0.00022531
0.000254724
0.000223238
0.00025264
0.00025264
0.00022531
0.00022531
0.00025264
0.00022531
0.00022531
0.000254724
0.000223237
0.00025264
0.00022531
0.00022531
0.000223238
0.000218288
0.000186806
0.000216206
0.000216206
0.000188877
0.000188877
0.000218288
0.000186806
0.000216206
0.000216206
0.000188877
0.000188877
0.000216206
0.000188877
0.000188878
0.000218288
0.000186805
0.000216206
0.000188877
0.000188878
0.000186806
0.00018185
0.00015037
0.000179771
0.000179771
0.000152439
0.000152439
0.00018185
0.000150371
0.000179771
0.000179771
0.000152439
0.000152439
0.000179772
0.000152439
0.000152439
0.00018185
0.00015037
0.000179771
0.000152439
0.000152439
0.00015037
0.000145407
0.000113932
0.000143336
0.000143336
0.000115996
0.000115996
0.000145407
0.000113932
0.000143336
0.000143336
0.000115996
0.000115996
0.000143336
0.000115996
0.000115996
0.000145407
0.000113931
0.000143336
0.000115996
0.000115996
0.000113931
0.000108949
7.74873e-05
0.000106894
0.000106893
7.95461e-05
7.95458e-05
0.000108948
7.74879e-05
0.000106893
0.000106893
7.95455e-05
7.95453e-05
0.000106893
7.95457e-05
7.95448e-05
0.000108948
7.74862e-05
0.000106893
7.95451e-05
7.9545e-05
7.74861e-05
7.24672e-05
4.10796e-05
7.04451e-05
7.04448e-05
4.31357e-05
4.31363e-05
7.24666e-05
4.1081e-05
7.04442e-05
7.04436e-05
4.3134e-05
4.31331e-05
7.04439e-05
4.3135e-05
4.31328e-05
7.24664e-05
4.1077e-05
7.04436e-05
4.31324e-05
4.31314e-05
4.10767e-05
3.60882e-05
8.5326e-06
3.42164e-05
3.42171e-05
1.1563e-05
1.15626e-05
3.60888e-05
8.53271e-06
3.42149e-05
3.42131e-05
1.15643e-05
1.15576e-05
3.42124e-05
1.15632e-05
1.15563e-05
3.60855e-05
8.52924e-06
3.42117e-05
1.15612e-05
1.15614e-05
8.52805e-06
5.29496e-06
7.03658e-06
7.03622e-06
5.2959e-06
7.03716e-06
7.0328e-06
6.15017e-06
6.14976e-06
6.14887e-06
7.03207e-06
5.29366e-06
7.03573e-06
0.00353792
0.00354049
0.00353927
0.00353929
0.00356642
0.00354043
0.00357024
0.00354057
0.00356677
0.00354052
0.00354073
0.00357004
0.00355113
0.00357161
0.00357325
0.00351055
0.00352409
0.00352786
0.00350287
0.00350087
0.00350625
0.00351064
0.00352406
0.00352791
0.00350277
0.00352641
0.00352644
0.00352645
0.00349993
0.00349989
0.00349992
0.0035
0.0035102
0.00352214
0.00352697
0.00351766
0.0035291
0.00350737
0.00351795
0.00350107
0.00350632
0.00351022
0.00352704
0.00352189
0.00351772
0.00352918
0.00351799
0.00350733
0.00352957
0.00352747
0.00351519
0.00350783
0.00350747
0.00348318
0.00349721
0.00349699
0.00348105
0.00349439
0.00348007
0.00348319
0.0034972
0.00349705
0.00348107
0.00349087
0.00349089
0.00349094
0.00346282
0.0034628
0.00346279
0.00346282
0.00348086
0.00349579
0.00348941
0.00348009
0.00349418
0.00348136
0.00348
0.00349446
0.00348004
0.00348086
0.0034894
0.00349574
0.00348012
0.00349416
0.00348002
0.00348132
0.00349759
0.0034976
0.00347854
0.00348175
0.00348168
0.0034408
0.00345536
0.00345617
0.00343936
0.00345423
0.00343844
0.00344082
0.0034554
0.00345629
0.00343935
0.00345278
0.00345278
0.0034528
0.00342022
0.00342019
0.00342018
0.00342021
0.00343947
0.00345499
0.00345083
0.00344057
0.00345389
0.00343985
0.00344044
0.00345423
0.00343843
0.00343946
0.00345082
0.00345494
0.00344043
0.0034539
0.00344043
0.00343988
0.00345573
0.00345567
0.00343769
0.00343964
0.00343967
0.00339425
0.00341071
0.00341219
0.00339283
0.00341003
0.00339221
0.00339422
0.0034107
0.00341223
0.00339282
0.00340857
0.00340858
0.0034086
0.00337247
0.00337246
0.00337246
0.0033725
0.00339337
0.0034105
0.00340688
0.00339508
0.00340997
0.00339341
0.00339502
0.00340998
0.00339226
0.00339341
0.0034069
0.00341059
0.00339513
0.00340998
0.00339509
0.00339351
0.00341079
0.0034109
0.00339178
0.00339289
0.00339276
0.0033452
0.00336232
0.00336361
0.00334397
0.00336184
0.00334374
0.00334518
0.00336233
0.00336369
0.00334397
0.00336024
0.00336023
0.00336027
0.00332363
0.00332366
0.0033236
0.00332363
0.00334477
0.00336201
0.00335877
0.00334649
0.00336192
0.00334461
0.00334653
0.00336189
0.00334366
0.00334475
0.00335879
0.00336232
0.00334656
0.00336196
0.00334653
0.00334464
0.0033624
0.00336251
0.0033432
0.00334411
0.00334413
0.0032962
0.00331342
0.00331445
0.00329531
0.00331322
0.00329513
0.00329616
0.00331342
0.00331443
0.00329531
0.00331151
0.00331148
0.0033115
0.00327543
0.00327542
0.00327542
0.00327543
0.00329612
0.0033135
0.00331016
0.00329807
0.00331322
0.00329583
0.00329808
0.00331316
0.00329509
0.00329612