/*--------------------------------*- C++ -*----------------------------------*\
| =========                 |                                                 |
| \\      /  F ield         | OpenFOAM: The Open Source CFD Toolbox           |
|  \\    /   O peration     | Version:  v2012                                 |
|   \\  /    A nd           | Website:  www.openfoam.com                      |
|    \\/     M anipulation  |                                                 |
\*---------------------------------------------------------------------------*/
FoamFile
{
    version     2.0;
    format      ascii;
    class       volScalarField;
    location    "337.5";
    object      epsilon;
}
// * * * * * * * * * * * * * * * * * * * * * * * * * * * * * * * * * * * * * //

dimensions      [0 2 -3 0 0 0 0];


internalField   nonuniform List<scalar> 
171728
(
3.28506e-09
6.27342e-09
4.37261e-09
5.04551e-09
3.23751e-09
5.86651e-09
4.10117e-09
4.56113e-09
3.14064e-09
5.4805e-09
3.83005e-09
4.12241e-09
3.00899e-09
5.12776e-09
3.5751e-09
3.75236e-09
2.87371e-09
4.80302e-09
3.32806e-09
3.43706e-09
2.79412e-09
4.49949e-09
3.1283e-09
3.17118e-09
2.75641e-09
4.28496e-09
2.97609e-09
2.94359e-09
2.74014e-09
4.19771e-09
2.86238e-09
2.75617e-09
2.73048e-09
4.20143e-09
2.78787e-09
2.60962e-09
2.72381e-09
4.15582e-09
2.74056e-09
2.49664e-09
2.72069e-09
3.97387e-09
2.73195e-09
2.41377e-09
2.72121e-09
3.7272e-09
2.75061e-09
2.36525e-09
2.72421e-09
3.50403e-09
2.82547e-09
2.35857e-09
2.7303e-09
3.26788e-09
2.96031e-09
2.40644e-09
2.7402e-09
3.07112e-09
3.17821e-09
2.52858e-09
2.75417e-09
3.08057e-09
3.51616e-09
2.77982e-09
2.77312e-09
3.43384e-09
4.02605e-09
3.20131e-09
2.79729e-09
4.10256e-09
4.82866e-09
3.94746e-09
2.82836e-09
5.28508e-09
6.05623e-09
5.29552e-09
2.86733e-09
6.91933e-09
7.90859e-09
7.56048e-09
2.91821e-09
9.3436e-09
1.05628e-08
1.14345e-08
2.985e-09
1.28016e-08
1.41866e-08
1.83156e-08
3.07523e-09
1.7683e-08
1.93415e-08
2.93345e-08
3.19897e-09
2.44513e-08
2.55314e-08
4.78728e-08
3.36806e-09
3.34751e-08
3.36502e-08
7.37636e-08
3.59992e-09
4.45021e-08
4.54896e-08
1.11178e-07
3.91366e-09
5.92859e-08
5.85691e-08
1.61929e-07
4.33939e-09
7.5282e-08
7.66184e-08
2.23328e-07
4.90754e-09
9.67095e-08
9.44421e-08
2.91395e-07
5.65272e-09
1.18537e-07
1.18688e-07
3.74102e-07
6.70935e-09
1.47273e-07
1.45132e-07
4.46824e-07
7.91231e-09
1.76809e-07
1.7282e-07
5.29198e-07
9.82839e-09
2.10822e-07
2.07881e-07
5.9036e-07
1.17901e-08
2.54157e-07
2.42217e-07
6.61628e-07
1.48202e-08
2.86218e-07
2.80013e-07
7.14487e-07
1.82887e-08
3.39204e-07
3.27693e-07
7.65e-07
2.27049e-08
3.63964e-07
3.66101e-07
8.10326e-07
2.78642e-08
4.17553e-07
4.15006e-07
8.4972e-07
3.60877e-08
4.69626e-07
4.67787e-07
8.9044e-07
4.13425e-08
5.00931e-07
5.01318e-07
9.22914e-07
4.9722e-08
5.55673e-07
5.52418e-07
9.5267e-07
6.31614e-08
6.01405e-07
6.09596e-07
9.88026e-07
7.31046e-08
6.60652e-07
6.49602e-07
1.01946e-06
8.76794e-08
6.95447e-07
7.03015e-07
1.04223e-06
1.01e-07
7.43502e-07
7.40978e-07
1.08006e-06
1.24496e-07
7.92885e-07
7.94595e-07
1.10119e-06
1.38043e-07
8.24219e-07
8.26249e-07
1.12361e-06
1.62268e-07
8.73944e-07
8.71321e-07
1.15886e-06
1.90933e-07
9.05338e-07
9.08891e-07
1.18808e-06
2.1417e-07
9.4294e-07
9.45714e-07
1.20322e-06
2.38551e-07
9.78393e-07
9.69685e-07
1.22424e-06
2.64782e-07
9.99617e-07
1.00373e-06
1.25095e-06
3.08359e-07
1.03891e-06
1.04112e-06
1.28092e-06
3.32865e-07
1.05804e-06
1.05351e-06
1.28979e-06
3.55125e-07
1.07471e-06
1.08032e-06
1.30803e-06
3.95729e-07
1.10705e-06
1.10528e-06
1.32725e-06
4.20807e-07
1.12698e-06
1.1251e-06
1.35016e-06
4.53065e-07
1.13734e-06
1.14252e-06
1.35637e-06
4.74299e-07
1.16218e-06
1.15675e-06
1.37664e-06
5.10388e-07
1.17772e-06
1.17754e-06
1.38931e-06
5.31572e-07
1.18756e-06
1.19081e-06
1.39802e-06
5.55618e-07
1.20898e-06
1.20167e-06
1.4161e-06
5.77428e-07
1.21588e-06
1.22279e-06
1.424e-06
6.03575e-07
1.23114e-06
1.2277e-06
1.43601e-06
6.18474e-07
1.23776e-06
1.23604e-06
1.43756e-06
6.34972e-07
1.24867e-06
1.25425e-06
1.45279e-06
6.605e-07
1.26009e-06
1.25906e-06
1.46604e-06
6.71251e-07
1.26211e-06
1.26282e-06
1.46576e-06
6.79813e-07
1.26291e-06
1.26607e-06
1.46362e-06
6.95301e-07
1.27414e-06
1.27315e-06
1.47622e-06
7.08869e-07
1.27471e-06
1.27454e-06
1.4814e-06
7.12603e-07
1.26626e-06
1.26646e-06
1.46939e-06
7.25401e-07
1.28136e-06
1.28116e-06
1.49232e-06
7.48029e-07
1.30182e-06
1.30101e-06
1.52271e-06
7.45416e-07
1.2807e-06
1.27983e-06
1.50226e-06
7.10639e-07
1.22342e-06
1.22293e-06
1.42738e-06
6.91655e-07
1.2009e-06
1.20068e-06
1.39569e-06
7.05534e-07
1.22123e-06
1.22107e-06
1.42678e-06
7.53618e-07
1.28216e-06
1.28191e-06
1.50374e-06
8.0036e-07
1.34658e-06
1.34637e-06
1.592e-06
8.14151e-07
1.36773e-06
1.36762e-06
1.62861e-06
7.85328e-07
1.3219e-06
1.32192e-06
1.57393e-06
7.30033e-07
1.23988e-06
1.23991e-06
1.46227e-06
6.92874e-07
1.18242e-06
1.18244e-06
1.38454e-06
6.80574e-07
1.15734e-06
1.15737e-06
1.35823e-06
6.79815e-07
1.15374e-06
1.15378e-06
1.36664e-06
6.815e-07
1.15683e-06
1.15689e-06
1.38268e-06
6.75547e-07
1.1555e-06
1.15556e-06
1.39155e-06
6.70358e-07
1.15284e-06
1.1529e-06
1.39474e-06
6.67746e-07
1.15121e-06
1.15128e-06
1.3959e-06
6.66532e-07
1.15043e-06
1.1505e-06
1.39608e-06
6.65951e-07
1.15004e-06
1.15011e-06
1.39584e-06
6.65782e-07
1.14995e-06
1.15002e-06
1.39579e-06
6.65515e-07
1.14968e-06
1.14974e-06
1.39568e-06
6.47962e-07
1.09586e-06
1.09584e-06
1.35418e-06
5.17003e-09
6.57249e-09
3.83658e-09
4.83834e-09
3.91858e-09
8.6659e-09
3.24382e-09
3.18685e-09
3.63154e-09
3.00049e-09
4.41701e-09
4.2688e-09
5.11944e-09
4.09054e-09
4.09142e-09
5.06835e-09
5.1251e-09
4.96897e-09
1.38619e-08
3.55268e-09
1.36222e-08
3.37659e-09
4.81385e-09
4.44235e-09
3.636e-09
2.00998e-08
3.44911e-09
2.01945e-08
4.73917e-09
5.97096e-09
4.42191e-09
5.05449e-09
5.14533e-09
4.15175e-09
4.1747e-09
3.95905e-09
4.59469e-09
4.92322e-09
4.86597e-09
1.34249e-08
3.3143e-09
1.28211e-08
3.14394e-09
4.37507e-09
4.08224e-09
3.3838e-09
2.01439e-08
3.20699e-09
1.96071e-08
4.31392e-09
5.57414e-09
4.01372e-09
5.10168e-09
5.32405e-09
3.88835e-09
3.89469e-09
3.68923e-09
4.15106e-09
4.81232e-09
4.5728e-09
1.25553e-08
3.09084e-09
1.0835e-08
2.94201e-09
4.02668e-09
3.78411e-09
3.15369e-09
1.94067e-08
2.99828e-09
1.75431e-08
3.92056e-09
5.21308e-09
3.66e-09
5.26106e-09
5.1505e-09
3.62636e-09
3.64e-09
3.44574e-09
3.77684e-09
4.43054e-09
3.84966e-09
9.9381e-09
2.89588e-09
6.79404e-09
2.76247e-09
3.73775e-09
3.54095e-09
2.94668e-09
1.63738e-08
2.80317e-09
1.14532e-08
3.57764e-09
4.88269e-09
3.34743e-09
5.00264e-09
4.1189e-09
3.38756e-09
3.3857e-09
3.21995e-09
3.45763e-09
3.80957e-09
3.33668e-09
5.86112e-09
2.7201e-09
3.8679e-09
2.60709e-09
3.50216e-09
3.31631e-09
2.75874e-09
9.62849e-09
2.63805e-09
5.47285e-09
3.27636e-09
4.57194e-09
3.08212e-09
4.01883e-09
3.42817e-09
3.16606e-09
3.17337e-09
3.01201e-09
3.18771e-09
3.30471e-09
2.95807e-09
3.45669e-09
2.5748e-09
2.70861e-09
2.49331e-09
3.2987e-09
3.11604e-09
2.60192e-09
4.60584e-09
2.50599e-09
3.10163e-09
3.0233e-09
4.3239e-09
2.86287e-09
3.37682e-09
2.98764e-09
2.96419e-09
3.01046e-09
2.83308e-09
2.95644e-09
2.9456e-09
2.75215e-09
2.56697e-09
2.47089e-09
2.30761e-09
2.41669e-09
3.10488e-09
2.96808e-09
2.47809e-09
2.83691e-09
2.40455e-09
2.35969e-09
2.81511e-09
4.20946e-09
2.69311e-09
2.96622e-09
2.75073e-09
2.79458e-09
2.88689e-09
2.69391e-09
2.76474e-09
2.74762e-09
2.58252e-09
2.26096e-09
2.40361e-09
2.19892e-09
2.37701e-09
2.96189e-09
2.86743e-09
2.38328e-09
2.27925e-09
2.33158e-09
2.17305e-09
2.65912e-09
4.19707e-09
2.57526e-09
2.74468e-09
2.58777e-09
2.66599e-09
2.80328e-09
2.59558e-09
2.61412e-09
2.58049e-09
2.46305e-09
2.18873e-09
2.37288e-09
2.17292e-09
2.36488e-09
2.86508e-09
2.78188e-09
2.31713e-09
2.15505e-09
2.28569e-09
2.12529e-09
2.55196e-09
4.1831e-09
2.49358e-09
2.58452e-09
2.48148e-09
2.57692e-09
2.74647e-09
2.53479e-09
2.49725e-09
2.46501e-09
2.37891e-09
2.17332e-09
2.36391e-09
2.18648e-09
2.3676e-09
2.77864e-09
2.63809e-09
2.27933e-09
2.12519e-09
2.27264e-09
2.14135e-09
2.47998e-09
4.02912e-09
2.44908e-09
2.48281e-09
2.40637e-09
2.52508e-09
2.73386e-09
2.50888e-09
2.41083e-09
2.38381e-09
2.32955e-09
2.19438e-09
2.37132e-09
2.23532e-09
2.38672e-09
2.63509e-09
2.5728e-09
2.27426e-09
2.15245e-09
2.29199e-09
2.19162e-09
2.44389e-09
3.78799e-09
2.4402e-09
2.41134e-09
2.36878e-09
2.50911e-09
2.74071e-09
2.52284e-09
2.35646e-09
2.34014e-09
2.31911e-09
2.25108e-09
2.39499e-09
2.31768e-09
2.43393e-09
2.58204e-09
2.54744e-09
2.302e-09
2.20967e-09
2.34965e-09
2.28275e-09
2.44418e-09
3.55972e-09
2.4748e-09
2.38009e-09
2.36347e-09
2.53393e-09
2.80221e-09
2.58519e-09
2.34025e-09
2.33849e-09
2.35677e-09
2.34502e-09
2.45094e-09
2.44922e-09
2.52392e-09
2.56044e-09
2.49555e-09
2.37198e-09
2.31306e-09
2.46346e-09
2.42167e-09
2.49162e-09
3.3349e-09
2.56741e-09
2.3836e-09
2.41074e-09
2.60807e-09
2.91919e-09
2.69437e-09
2.37485e-09
2.38946e-09
2.4612e-09
2.48992e-09
2.55539e-09
2.64832e-09
2.68238e-09
2.51097e-09
2.48355e-09
2.5012e-09
2.46518e-09
2.65118e-09
2.63359e-09
2.60113e-09
3.09832e-09
2.73099e-09
2.4443e-09
2.52664e-09
2.73138e-09
3.11432e-09
2.86781e-09
2.47502e-09
2.51717e-09
2.66844e-09
2.70925e-09
2.73898e-09
2.95333e-09
2.93872e-09
2.52458e-09
2.62937e-09
2.71191e-09
2.69985e-09
2.93736e-09
2.93948e-09
2.79021e-09
3.06314e-09
3.01694e-09
2.58307e-09
2.74384e-09
2.92754e-09
3.41954e-09
3.16096e-09
2.68018e-09
2.76307e-09
3.04294e-09
3.05038e-09
3.02943e-09
3.41046e-09
3.37585e-09
2.71768e-09
2.97398e-09
3.03307e-09
3.03638e-09
3.38173e-09
3.40318e-09
3.11114e-09
3.31473e-09
3.44135e-09
2.83784e-09
3.13057e-09
3.2569e-09
3.87531e-09
3.58214e-09
3.04728e-09
3.19578e-09
3.7013e-09
3.55826e-09
3.51939e-09
4.11924e-09
4.01762e-09
3.13432e-09
3.64215e-09
3.5185e-09
3.55096e-09
4.05684e-09
4.10243e-09
3.58064e-09
3.9197e-09
4.10611e-09
3.28745e-09
3.81297e-09
3.72605e-09
4.59897e-09
4.2644e-09
3.6899e-09
3.95415e-09
4.85078e-09
4.33353e-09
4.19634e-09
5.1822e-09
5.00546e-09
3.86565e-09
4.76313e-09
4.27203e-09
4.32566e-09
5.07833e-09
5.15203e-09
4.33176e-09
4.92538e-09
5.15599e-09
4.06892e-09
5.00378e-09
4.48449e-09
5.70844e-09
5.30896e-09
4.87935e-09
5.28514e-09
6.87443e-09
5.52158e-09
5.36912e-09
6.74913e-09
6.49883e-09
5.27515e-09
6.67394e-09
5.40504e-09
5.47204e-09
6.60956e-09
6.72789e-09
5.47433e-09
6.40506e-09
6.68509e-09
5.43327e-09
7.07788e-09
5.62901e-09
7.37393e-09
6.80716e-09
6.83217e-09
7.59754e-09
1.03685e-08
7.24128e-09
7.0182e-09
9.04696e-09
8.81125e-09
7.40087e-09
1.03514e-08
7.09415e-09
7.22527e-09
8.84976e-09
8.97612e-09
7.18352e-09
8.68792e-09
8.9125e-09
7.87115e-09
1.0496e-08
7.29665e-09
9.76308e-09
9.01193e-09
1.0352e-08
1.15344e-08
1.64176e-08
9.77572e-09
9.50108e-09
1.23418e-08
1.19708e-08
1.14455e-08
1.62076e-08
9.55253e-09
9.75069e-09
1.20503e-08
1.22279e-08
9.58779e-09
1.18252e-08
1.21674e-08
1.18155e-08
1.6667e-08
9.67882e-09
1.32234e-08
1.22286e-08
1.63796e-08
1.82926e-08
2.66273e-08
1.33526e-08
1.29892e-08
1.69289e-08
1.66197e-08
1.80513e-08
2.69304e-08
1.30436e-08
1.32505e-08
1.65674e-08
1.69206e-08
1.31738e-08
1.63954e-08
1.66641e-08
1.8469e-08
2.71503e-08
1.31943e-08
1.7853e-08
1.6661e-08
2.64279e-08
2.95946e-08
4.30103e-08
1.83582e-08
1.79177e-08
2.32161e-08
2.28968e-08
2.97695e-08
4.27878e-08
1.79363e-08
1.83275e-08
2.2684e-08
2.28667e-08
1.80261e-08
2.25531e-08
2.30193e-08
3.03387e-08
4.21935e-08
1.8025e-08
2.34173e-08
2.30098e-08
4.32741e-08
4.73198e-08
6.8095e-08
2.50737e-08
2.48071e-08
3.17245e-08
3.12537e-08
4.77758e-08
6.78242e-08
2.45071e-08
2.50076e-08
3.10037e-08
3.14595e-08
2.48254e-08
3.10322e-08
3.12392e-08
4.60665e-08
7.11247e-08
2.48123e-08
3.19282e-08
3.11586e-08
6.7264e-08
7.44334e-08
1.0337e-07
3.419e-08
3.38023e-08
4.2432e-08
4.17114e-08
7.43747e-08
1.0179e-07
3.34518e-08
3.35865e-08
4.15595e-08
4.2921e-08
3.37343e-08
4.12546e-08
4.18643e-08
7.59096e-08
1.03077e-07
3.36356e-08
4.24637e-08
4.18345e-08
1.03078e-07
1.11638e-07
1.51076e-07
4.55096e-08
4.48697e-08
5.61212e-08
5.67322e-08
1.09387e-07
1.54008e-07
4.4585e-08
4.58716e-08
5.51032e-08
5.50152e-08
4.49885e-08
5.55319e-08
5.5318e-08
1.14646e-07
1.45516e-07
4.49743e-08
5.43325e-08
5.51914e-08
1.51155e-07
1.62482e-07
2.08327e-07
5.98858e-08
6.00243e-08
7.19572e-08
7.10378e-08
1.65415e-07
2.06983e-07
5.88731e-08
5.94268e-08
7.09481e-08
7.35557e-08
5.89603e-08
7.06307e-08
7.18764e-08
1.54923e-07
2.16319e-07
5.88126e-08
7.24212e-08
7.18633e-08
2.09171e-07
2.20676e-07
2.81359e-07
7.64514e-08
7.68304e-08
9.1768e-08
9.23577e-08
2.19827e-07
2.81e-07
7.54813e-08
7.77386e-08
9.06e-08
9.05731e-08
7.64951e-08
9.13924e-08
9.01475e-08
2.30016e-07
2.75187e-07
7.64493e-08
8.91438e-08
8.98365e-08
2.78492e-07
2.96331e-07
3.53831e-07
9.69485e-08
9.64552e-08
1.12881e-07
1.13952e-07
2.97075e-07
3.54261e-07
9.58339e-08
9.59132e-08
1.12063e-07
1.14625e-07
9.55327e-08
1.12594e-07
1.13578e-07
2.8772e-07
3.55829e-07
9.52052e-08
1.12809e-07
1.13816e-07
3.57808e-07
3.69869e-07
4.3224e-07
1.18573e-07
1.20353e-07
1.38776e-07
1.3979e-07
3.66888e-07
4.38979e-07
1.17917e-07
1.2082e-07
1.37819e-07
1.39558e-07
1.19276e-07
1.39094e-07
1.36217e-07
3.74809e-07
4.31646e-07
1.19377e-07
1.37435e-07
1.35786e-07
4.31548e-07
4.48886e-07
5.123e-07
1.46652e-07
1.47546e-07
1.66658e-07
1.68809e-07
4.58366e-07
5.09598e-07
1.45453e-07
1.4675e-07
1.67141e-07
1.6995e-07
1.43635e-07
1.70996e-07
1.6889e-07
4.4717e-07
5.1106e-07
1.43447e-07
1.65696e-07
1.68946e-07
5.10705e-07
5.26061e-07
5.77315e-07
1.72804e-07
1.73983e-07
1.98562e-07
1.95681e-07
5.23987e-07
5.75496e-07
1.7321e-07
1.76821e-07
1.98368e-07
2.00718e-07
1.75924e-07
1.98597e-07
1.95917e-07
5.25897e-07
5.80477e-07
1.75538e-07
1.99581e-07
1.96139e-07
5.77526e-07
5.94317e-07
6.4654e-07
2.08413e-07
2.07945e-07
2.34243e-07
2.42582e-07
5.92331e-07
6.53515e-07
2.08844e-07
2.11123e-07
2.34202e-07
2.36688e-07
2.05167e-07
2.46888e-07
2.35581e-07
5.95681e-07
6.43344e-07
2.05426e-07
2.32272e-07
2.3403e-07
6.45842e-07
6.60106e-07
6.99501e-07
2.42544e-07
2.4928e-07
2.70632e-07
2.68375e-07
6.66419e-07
6.97673e-07
2.41735e-07
2.43727e-07
2.72282e-07
2.7525e-07
2.44112e-07
2.74655e-07
2.70972e-07
6.5753e-07
6.99005e-07
2.42893e-07
2.71103e-07
2.71443e-07
7.02589e-07
7.12724e-07
7.55541e-07
2.80332e-07
2.79239e-07
3.11347e-07
3.21903e-07
7.10765e-07
7.58799e-07
2.83264e-07
2.86063e-07
3.12675e-07
3.14354e-07
2.80814e-07
3.2928e-07
3.11863e-07
7.12418e-07
7.57398e-07
2.81163e-07
3.14209e-07
3.0925e-07
7.51902e-07
7.67664e-07
7.9792e-07
3.23521e-07
3.3264e-07
3.56773e-07
3.53102e-07
7.69933e-07
7.92858e-07
3.24301e-07
3.25598e-07
3.59201e-07
3.60148e-07
3.22847e-07
3.57398e-07
3.54136e-07
7.69223e-07
7.97052e-07
3.194e-07
3.58511e-07
3.56475e-07
7.9942e-07
8.08494e-07
8.40175e-07
3.64728e-07
3.61149e-07
3.95596e-07
4.06726e-07
8.03193e-07
8.44774e-07
3.67677e-07
3.68715e-07
3.98622e-07
3.95753e-07
3.64932e-07
3.99489e-07
3.99488e-07
8.07611e-07
8.40399e-07
3.68878e-07
3.98589e-07
3.95968e-07
8.39503e-07
8.5174e-07
8.84624e-07
4.11698e-07
4.26292e-07
4.55832e-07
4.67455e-07
8.57274e-07
8.83402e-07
4.12988e-07
4.1039e-07
4.58435e-07
4.54136e-07
4.09941e-07
4.61008e-07
4.46173e-07
8.521e-07
8.82826e-07
4.04935e-07
4.58057e-07
4.47647e-07
8.79629e-07
8.93871e-07
9.12338e-07
4.66751e-07
4.75538e-07
4.93662e-07
4.96137e-07
8.91444e-07
9.11351e-07
4.71536e-07
4.63992e-07
4.98427e-07
4.91706e-07
4.61088e-07
4.91299e-07
4.96696e-07
8.91484e-07
9.10638e-07
4.63665e-07
4.93047e-07
4.95812e-07
9.15223e-07
9.20434e-07
9.4492e-07
5.01941e-07
5.04287e-07
5.38699e-07
5.39288e-07
9.19554e-07
9.41822e-07
5.04876e-07
5.01983e-07
5.3497e-07
5.38937e-07
5.05669e-07
5.43304e-07
5.40209e-07
9.19389e-07
9.45387e-07
5.03469e-07
5.35884e-07
5.39072e-07
9.43615e-07
9.55021e-07
9.82299e-07
5.55697e-07
5.52493e-07
5.99571e-07
5.9504e-07
9.51044e-07
9.79784e-07
5.51898e-07
5.54464e-07
5.99883e-07
5.97388e-07
5.5278e-07
5.87418e-07
5.88525e-07
9.55178e-07
9.80902e-07
5.53375e-07
5.99213e-07
5.88642e-07
9.78709e-07
9.89801e-07
1.0083e-06
6.08868e-07
6.10163e-07
6.36831e-07
6.52385e-07
9.89998e-07
1.01318e-06
6.09518e-07
6.07142e-07
6.40084e-07
6.33788e-07
6.02533e-07
6.47841e-07
6.4743e-07
9.88696e-07
1.00827e-06
6.01359e-07
6.36582e-07
6.45447e-07
1.01245e-06
1.01676e-06
1.03959e-06
6.50142e-07
6.64437e-07
6.89728e-07
6.91529e-07
1.02026e-06
1.03816e-06
6.54116e-07
6.47222e-07
6.88206e-07
6.93773e-07
6.59195e-07
6.87421e-07
6.83465e-07
1.01652e-06
1.04118e-06
6.58096e-07
6.93295e-07
6.84552e-07
1.0347e-06
1.04609e-06
1.06477e-06
6.99679e-07
6.99222e-07
7.29385e-07
7.30918e-07
1.04497e-06
1.06389e-06
6.95951e-07
7.04889e-07
7.28679e-07
7.29899e-07
6.92127e-07
7.30211e-07
7.33259e-07
1.04829e-06
1.06465e-06
6.93148e-07
7.29402e-07
7.3282e-07
1.07144e-06
1.07329e-06
1.09851e-06
7.42414e-07
7.42322e-07
7.83467e-07
7.76797e-07
1.07233e-06
1.09611e-06
7.44147e-07
7.40137e-07
7.8427e-07
7.81471e-07
7.49436e-07
7.81396e-07
7.85096e-07
1.07236e-06
1.09819e-06
7.48688e-07
7.82038e-07
7.83649e-07
1.09599e-06
1.10487e-06
1.11677e-06
7.93686e-07
7.90785e-07
8.14736e-07
8.25682e-07
1.10347e-06
1.12321e-06
7.92484e-07
7.9472e-07
8.11375e-07
8.20379e-07
7.93343e-07
8.16647e-07
8.15277e-07
1.10579e-06
1.12211e-06
7.91517e-07
8.19834e-07
8.13627e-07
1.11662e-06
1.12252e-06
1.1493e-06
8.22913e-07
8.33048e-07
8.61154e-07
8.59894e-07
1.12915e-06
1.14732e-06
8.20183e-07
8.26984e-07
8.62773e-07
8.59439e-07
8.23742e-07
8.60569e-07
8.61508e-07
1.12769e-06
1.14622e-06
8.22851e-07
8.56882e-07
8.62699e-07
1.14991e-06
1.15904e-06
1.17947e-06
8.73863e-07
8.72276e-07
9.01607e-07
9.0062e-07
1.15535e-06
1.17479e-06
8.7697e-07
8.73834e-07
9.01815e-07
9.03411e-07
8.75934e-07
8.99476e-07
9.07582e-07
1.15487e-06
1.17913e-06
8.7664e-07
9.01776e-07
9.06073e-07
1.18218e-06
1.18454e-06
1.19924e-06
9.10709e-07
9.06793e-07
9.37421e-07
9.31256e-07
1.17971e-06
1.19649e-06
9.08325e-07
9.09258e-07
9.34201e-07
9.32443e-07
9.14016e-07
9.31201e-07
9.32755e-07
1.18446e-06
1.19822e-06
9.12252e-07
9.36422e-07
9.32489e-07
1.19825e-06
1.20493e-06
1.217e-06
9.44254e-07
9.42487e-07
9.60579e-07
9.71023e-07
1.20433e-06
1.22546e-06
9.42385e-07
9.42736e-07
9.61496e-07
9.6598e-07
9.41168e-07
9.72015e-07
9.64141e-07
1.20469e-06
1.22012e-06
9.41824e-07
9.64704e-07
9.64601e-07
1.21878e-06
1.22219e-06
1.24469e-06
9.6728e-07
9.77254e-07
9.97313e-07
9.92558e-07
1.23069e-06
1.2417e-06
9.68368e-07
9.71474e-07
9.97642e-07
9.94383e-07
9.70696e-07
9.93477e-07
9.95195e-07
1.22463e-06
1.24152e-06
9.70574e-07
9.92403e-07
9.9476e-07
1.24331e-06
1.25332e-06
1.27503e-06
1.00864e-06
9.99133e-07
1.03389e-06
1.02918e-06
1.24678e-06
1.26957e-06
1.00868e-06
1.00536e-06
1.03287e-06
1.03415e-06
1.00534e-06
1.02868e-06
1.03377e-06
1.24986e-06
1.27508e-06
1.00515e-06
1.03498e-06
1.03392e-06
1.27531e-06
1.27909e-06
1.28268e-06
1.03873e-06
1.03936e-06
1.04895e-06
1.05662e-06
1.27738e-06
1.29125e-06
1.03739e-06
1.03956e-06
1.04841e-06
1.04848e-06
1.04021e-06
1.05535e-06
1.05219e-06
1.28007e-06
1.28446e-06
1.04038e-06
1.05038e-06
1.05241e-06
1.28703e-06
1.28626e-06
1.30163e-06
1.05265e-06
1.0594e-06
1.0708e-06
1.07012e-06
1.29442e-06
1.29993e-06
1.05289e-06
1.05196e-06
1.07081e-06
1.07225e-06
1.0561e-06
1.06888e-06
1.07186e-06
1.28709e-06
1.30094e-06
1.05616e-06
1.0713e-06
1.07181e-06
1.30202e-06
1.30806e-06
1.3282e-06
1.07976e-06
1.07629e-06
1.10309e-06
1.09935e-06
1.30452e-06
1.32367e-06
1.07941e-06
1.08232e-06
1.10303e-06
1.10351e-06
1.07723e-06
1.09852e-06
1.09675e-06
1.3094e-06
1.32907e-06
1.07788e-06
1.10186e-06
1.09722e-06
1.32133e-06
1.33293e-06
1.33884e-06
1.10699e-06
1.10594e-06
1.11733e-06
1.1216e-06
1.33005e-06
1.34418e-06
1.107e-06
1.10644e-06
1.11674e-06
1.11716e-06
1.10524e-06
1.12452e-06
1.12525e-06
1.33238e-06
1.33864e-06
1.10463e-06
1.11823e-06
1.12377e-06
1.34615e-06
1.3431e-06
1.35773e-06
1.12344e-06
1.12557e-06
1.1406e-06
1.13548e-06
1.34785e-06
1.35191e-06
1.12266e-06
1.12357e-06
1.13992e-06
1.14106e-06
1.12872e-06
1.13336e-06
1.13541e-06
1.3441e-06
1.35876e-06
1.12793e-06
1.14044e-06
1.13598e-06
1.35323e-06
1.36106e-06
1.36571e-06
1.14307e-06
1.13932e-06
1.15186e-06
1.15534e-06
1.35522e-06
1.36998e-06
1.14245e-06
1.14351e-06
1.15212e-06
1.1514e-06
1.13864e-06
1.15589e-06
1.15566e-06
1.36141e-06
1.3651e-06
1.13928e-06
1.15136e-06
1.15701e-06
1.37051e-06
1.37085e-06
1.3897e-06
1.15789e-06
1.16125e-06
1.17732e-06
1.17488e-06
1.37616e-06
1.38697e-06
1.15853e-06
1.15646e-06
1.17647e-06
1.17393e-06
1.16247e-06
1.17527e-06
1.17609e-06
1.36998e-06
1.3856e-06
1.16363e-06
1.17318e-06
1.17442e-06
1.38691e-06
1.39328e-06
1.39546e-06
1.18034e-06
1.17765e-06
1.18676e-06
1.18519e-06
1.38972e-06
1.3935e-06
1.17913e-06
1.17882e-06
1.18628e-06
1.18848e-06
1.17803e-06
1.18386e-06
1.1845e-06
1.38975e-06
1.39755e-06
1.17623e-06
1.18859e-06
1.18668e-06
1.39344e-06
1.39892e-06
1.40994e-06
1.19045e-06
1.18901e-06
1.20239e-06
1.20397e-06
1.39749e-06
1.41117e-06
1.19025e-06
1.19007e-06
1.20133e-06
1.19741e-06
1.18872e-06
1.20438e-06
1.20545e-06
1.40062e-06
1.40445e-06
1.19195e-06
1.19742e-06
1.20355e-06
1.41217e-06
1.41316e-06
1.41819e-06
1.20459e-06
1.2079e-06
1.21237e-06
1.21336e-06
1.41576e-06
1.41995e-06
1.20369e-06
1.20237e-06
1.2139e-06
1.21937e-06
1.20932e-06
1.21455e-06
1.21476e-06
1.40856e-06
1.42526e-06
1.20601e-06
1.21879e-06
1.21542e-06
1.42082e-06
1.42264e-06
1.43568e-06
1.21698e-06
1.21523e-06
1.23088e-06
1.22767e-06
1.42224e-06
1.43069e-06
1.21881e-06
1.22264e-06
1.23103e-06
1.22643e-06
1.21685e-06
1.2265e-06
1.2284e-06
1.42977e-06
1.43099e-06
1.21948e-06
1.22712e-06
1.22886e-06
1.4327e-06
1.43895e-06
1.43714e-06
1.23346e-06
1.2322e-06
1.23553e-06
1.23766e-06
1.43567e-06
1.44032e-06
1.2329e-06
1.22744e-06
1.23439e-06
1.23383e-06
1.23192e-06
1.23717e-06
1.23551e-06
1.43233e-06
1.43524e-06
1.23012e-06
1.2327e-06
1.23177e-06
1.43584e-06
1.43861e-06
1.44677e-06
1.23608e-06
1.23821e-06
1.24435e-06
1.24479e-06
1.44202e-06
1.44768e-06
1.23513e-06
1.23735e-06
1.24437e-06
1.25017e-06
1.23606e-06
1.24435e-06
1.24344e-06
1.43971e-06
1.45525e-06
1.23334e-06
1.25038e-06
1.24541e-06
1.44686e-06
1.45276e-06
1.46436e-06
1.24931e-06
1.24905e-06
1.26037e-06
1.25843e-06
1.45289e-06
1.46202e-06
1.24962e-06
1.25379e-06
1.26124e-06
1.2586e-06
1.24815e-06
1.259e-06
1.26007e-06
1.45984e-06
1.46162e-06
1.251e-06
1.25875e-06
1.26066e-06
1.46382e-06
1.46644e-06
1.46349e-06
1.26125e-06
1.25933e-06
1.26154e-06
1.26148e-06
1.46389e-06
1.46218e-06
1.26216e-06
1.25888e-06
1.26196e-06
1.26086e-06
1.26136e-06
1.26153e-06
1.26243e-06
1.46283e-06
1.46097e-06
1.26143e-06
1.26142e-06
1.26157e-06
1.46408e-06
1.46511e-06
1.46369e-06
1.26193e-06
1.2627e-06
1.26286e-06
1.26454e-06
1.46458e-06
1.46504e-06
1.26182e-06
1.26211e-06
1.26183e-06
1.26495e-06
1.26256e-06
1.26268e-06
1.26203e-06
1.46367e-06
1.46739e-06
1.26159e-06
1.26587e-06
1.26129e-06
1.46228e-06
1.46519e-06
1.4725e-06
1.26313e-06
1.26476e-06
1.26948e-06
1.27057e-06
1.46671e-06
1.47417e-06
1.26223e-06
1.26528e-06
1.27012e-06
1.27067e-06
1.26202e-06
1.27045e-06
1.26826e-06
1.46934e-06
1.47377e-06
1.26135e-06
1.27003e-06
1.26819e-06
1.47066e-06
1.47767e-06
1.47983e-06
1.27296e-06
1.27392e-06
1.27592e-06
1.27656e-06
1.47936e-06
1.48092e-06
1.27367e-06
1.27373e-06
1.27607e-06
1.27594e-06
1.2721e-06
1.27674e-06
1.27599e-06
1.47825e-06
1.48005e-06
1.27218e-06
1.27605e-06
1.27633e-06
1.48067e-06
1.48049e-06
1.46666e-06
1.27418e-06
1.27467e-06
1.26662e-06
1.26681e-06
1.48154e-06
1.46678e-06
1.27403e-06
1.27405e-06
1.26645e-06
1.26648e-06
1.27453e-06
1.26681e-06
1.26702e-06
1.48071e-06
1.46655e-06
1.27499e-06
1.26701e-06
1.26751e-06
1.46804e-06
1.46806e-06
1.48367e-06
1.26613e-06
1.26625e-06
1.27479e-06
1.27448e-06
1.4681e-06
1.48289e-06
1.26598e-06
1.26598e-06
1.27482e-06
1.2746e-06
1.26651e-06
1.27457e-06
1.27481e-06
1.46789e-06
1.48297e-06
1.26698e-06
1.27449e-06
1.2749e-06
1.48376e-06
1.49249e-06
1.51875e-06
1.28168e-06
1.28127e-06
1.30014e-06
1.2998e-06
1.49162e-06
1.51814e-06
1.28172e-06
1.28143e-06
1.30012e-06
1.29968e-06
1.28155e-06
1.2999e-06
1.30002e-06
1.49171e-06
1.5178e-06
1.28149e-06
1.29919e-06
1.29963e-06
1.51833e-06
1.52308e-06
1.50509e-06
1.30199e-06
1.30173e-06
1.29198e-06
1.29204e-06
1.52259e-06
1.50519e-06
1.30193e-06
1.30149e-06
1.29181e-06
1.29145e-06
1.30195e-06
1.29206e-06
1.29225e-06
1.52214e-06
1.50439e-06
1.30152e-06
1.29111e-06
1.29182e-06
1.50519e-06
1.50211e-06
1.43082e-06
1.2806e-06
1.28069e-06
1.23666e-06
1.23681e-06
1.50227e-06
1.43107e-06
1.28043e-06
1.28012e-06
1.23646e-06
1.23629e-06
1.2809e-06
1.23678e-06
1.23701e-06
1.50144e-06
1.43052e-06
1.2805e-06
1.23617e-06
1.23673e-06
1.43118e-06
1.42703e-06
1.39423e-06
1.22334e-06
1.22345e-06
1.2023e-06
1.20228e-06
1.42727e-06
1.39419e-06
1.22316e-06
1.22303e-06
1.20217e-06
1.20214e-06
1.22365e-06
1.20226e-06
1.2025e-06
1.42676e-06
1.39415e-06
1.2234e-06
1.202e-06
1.20229e-06
1.39441e-06
1.39554e-06
1.41597e-06
1.20097e-06
1.20093e-06
1.21152e-06
1.21141e-06
1.39547e-06
1.41574e-06
1.20086e-06
1.20084e-06
1.21145e-06
1.21152e-06
1.20114e-06
1.21141e-06
1.21162e-06
1.39546e-06
1.41594e-06
1.20093e-06
1.21126e-06
1.21138e-06
1.41595e-06
1.42682e-06
1.48686e-06
1.22133e-06
1.22124e-06
1.26495e-06
1.26496e-06
1.42659e-06
1.48678e-06
1.22127e-06
1.22135e-06
1.26487e-06
1.26496e-06
1.22144e-06
1.26494e-06
1.26509e-06
1.42678e-06
1.48677e-06
1.2212e-06
1.26471e-06
1.26486e-06
1.48688e-06
1.5037e-06
1.57664e-06
1.28215e-06
1.28219e-06
1.33283e-06
1.33293e-06
1.50365e-06
1.57668e-06
1.28206e-06
1.28214e-06
1.33273e-06
1.33281e-06
1.2823e-06
1.33287e-06
1.333e-06
1.5036e-06
1.57652e-06
1.28209e-06
1.33264e-06
1.33283e-06
1.57677e-06
1.59188e-06
1.62548e-06
1.34655e-06
1.34665e-06
1.36746e-06
1.36757e-06
1.59193e-06
1.62555e-06
1.34644e-06
1.34652e-06
1.36735e-06
1.36742e-06
1.34672e-06
1.36748e-06
1.3676e-06
1.59175e-06
1.62538e-06
1.34655e-06
1.36735e-06
1.36748e-06
1.62563e-06
1.62846e-06
1.58064e-06
1.36772e-06
1.36782e-06
1.3396e-06
1.33968e-06
1.62854e-06
1.58069e-06
1.3676e-06
1.36768e-06
1.33949e-06
1.33959e-06
1.36785e-06
1.33959e-06
1.33969e-06
1.62837e-06
1.58065e-06
1.36774e-06
1.33959e-06
1.33963e-06
1.58076e-06
1.57381e-06
1.46917e-06
1.3219e-06
1.32197e-06
1.25912e-06
1.25917e-06
1.57387e-06
1.46919e-06
1.32179e-06
1.3219e-06
1.25901e-06
1.25915e-06
1.32197e-06
1.25911e-06
1.25918e-06
1.57383e-06
1.46924e-06
1.32193e-06
1.25915e-06
1.25914e-06
1.46925e-06
1.46218e-06
1.38701e-06
1.23988e-06
1.23993e-06
1.19352e-06
1.19356e-06
1.4622e-06
1.387e-06
1.23978e-06
1.23991e-06
1.19341e-06
1.19354e-06
1.23994e-06
1.19349e-06
1.19357e-06
1.46226e-06
1.38708e-06
1.23989e-06
1.19351e-06
1.1935e-06
1.38707e-06
1.38448e-06
1.35727e-06
1.18245e-06
1.18249e-06
1.16112e-06
1.16116e-06
1.38447e-06
1.35724e-06
1.18234e-06
1.18248e-06
1.16101e-06
1.16115e-06
1.1825e-06
1.16106e-06
1.16117e-06
1.38454e-06
1.35733e-06
1.18242e-06
1.16109e-06
1.16108e-06
1.35733e-06
1.35817e-06
1.36195e-06
1.1574e-06
1.15744e-06
1.15332e-06
1.15337e-06
1.35815e-06
1.36191e-06
1.15729e-06
1.15744e-06
1.15323e-06
1.15338e-06
1.15746e-06
1.15326e-06
1.15339e-06
1.35823e-06
1.362e-06
1.15736e-06
1.1533e-06
1.15329e-06
1.36202e-06
1.36658e-06
1.37845e-06
1.1538e-06
1.15385e-06
1.15669e-06
1.15674e-06
1.36654e-06
1.37841e-06
1.15371e-06
1.15386e-06
1.15661e-06
1.15675e-06
1.15387e-06
1.15663e-06
1.15677e-06
1.36663e-06
1.3785e-06
1.15378e-06
1.15668e-06
1.15668e-06
1.37853e-06
1.38261e-06
1.38871e-06
1.1569e-06
1.15694e-06
1.15607e-06
1.15612e-06
1.38257e-06
1.38866e-06
1.15682e-06
1.15696e-06
1.156e-06
1.15614e-06
1.15698e-06
1.156e-06
1.15615e-06
1.38265e-06
1.38875e-06
1.15689e-06
1.15606e-06
1.15607e-06
1.38878e-06
1.39148e-06
1.39259e-06
1.15558e-06
1.15562e-06
1.15327e-06
1.15331e-06
1.39143e-06
1.39254e-06
1.1555e-06
1.15564e-06
1.15318e-06
1.15334e-06
1.15566e-06
1.15319e-06
1.15335e-06
1.39151e-06
1.39263e-06
1.15557e-06
1.15325e-06
1.15326e-06
1.39266e-06
1.39467e-06
1.39396e-06
1.15292e-06
1.15296e-06
1.15145e-06
1.15149e-06
1.39463e-06
1.3939e-06
1.15284e-06
1.15299e-06
1.15136e-06
1.15152e-06
1.153e-06
1.15136e-06
1.15153e-06
1.39471e-06
1.39399e-06
1.15291e-06
1.15143e-06
1.15144e-06
1.39403e-06
1.39583e-06
1.39418e-06
1.1513e-06
1.15134e-06
1.15056e-06
1.15059e-06
1.39578e-06
1.39413e-06
1.15122e-06
1.15137e-06
1.15047e-06
1.15062e-06
1.15138e-06
1.15047e-06
1.15064e-06
1.39586e-06
1.39422e-06
1.15129e-06
1.15054e-06
1.15055e-06
1.39426e-06
1.39601e-06
1.39401e-06
1.15052e-06
1.15056e-06
1.15008e-06
1.15012e-06
1.39596e-06
1.39396e-06
1.15044e-06
1.15059e-06
1.15e-06
1.15015e-06
1.1506e-06
1.15e-06
1.15016e-06
1.39604e-06
1.39404e-06
1.15051e-06
1.15006e-06
1.15007e-06
1.39409e-06
1.39577e-06
1.3939e-06
1.15012e-06
1.15016e-06
1.14988e-06
1.14992e-06
1.39572e-06
1.39385e-06
1.15004e-06
1.15019e-06
1.1498e-06
1.14995e-06
1.15021e-06
1.1498e-06
1.14996e-06
1.3958e-06
1.39394e-06
1.15011e-06
1.14987e-06
1.14987e-06
1.39397e-06
1.39573e-06
1.39391e-06
1.15004e-06
1.15007e-06
1.1495e-06
1.14954e-06
1.39568e-06
1.39386e-06
1.14995e-06
1.1501e-06
1.14941e-06
1.14956e-06
1.15011e-06
1.14941e-06
1.14957e-06
1.39576e-06
1.39395e-06
1.15002e-06
1.14947e-06
1.14948e-06
1.39398e-06
1.39562e-06
1.37525e-06
1.14977e-06
1.14981e-06
1.1296e-06
1.12963e-06
1.39558e-06
1.37523e-06
1.14968e-06
1.14983e-06
1.12957e-06
1.12959e-06
1.14985e-06
1.12962e-06
1.12965e-06
1.39565e-06
1.37526e-06
1.14975e-06
1.12961e-06
1.12962e-06
1.37529e-06
1.35414e-06
1.0958e-06
1.09583e-06
1.35414e-06
1.0958e-06
1.09578e-06
6.4799e-07
6.4796e-07
6.48e-07
1.09585e-06
1.35415e-06
1.09584e-06
7.03533e-09
2.91385e-09
4.30594e-09
4.30531e-09
1.53869e-09
4.91599e-09
1.25539e-08
2.4605e-09
1.65971e-09
4.13439e-09
2.56186e-09
5.34096e-09
5.24235e-09
3.77576e-09
6.16024e-09
8.22891e-09
1.85734e-07
6.55041e-09
2.96846e-07
1.44563e-06
2.91771e-06
7.85187e-09
1.58267e-07
5.86712e-09
2.49558e-07
3.19818e-09
3.70119e-09
3.0069e-09
3.26401e-09
3.18603e-09
3.68392e-09
2.98765e-09
1.47948e-09
9.76228e-08
3.07174e-09
6.18598e-09
1.48929e-09
7.39524e-08
3.02781e-09
1.69975e-06
3.31095e-06
1.59822e-09
2.28562e-09
7.66461e-08
4.31939e-09
1.6365e-09
2.2573e-09
5.59448e-08
2.15716e-07
2.12866e-07
4.84089e-09
1.84701e-07
1.81779e-07
1.83588e-08
5.41765e-07
1.21979e-08
7.83676e-07
6.58589e-06
9.61468e-06
1.76511e-08
4.4971e-07
1.20878e-08
6.50547e-07
3.17653e-09
3.64841e-09
2.97654e-09
3.16526e-09
3.1485e-09