/*--------------------------------*- C++ -*----------------------------------*\
| =========                 |                                                 |
| \\      /  F ield         | OpenFOAM: The Open Source CFD Toolbox           |
|  \\    /   O peration     | Version:  v2012                                 |
|   \\  /    A nd           | Website:  www.openfoam.com                      |
|    \\/     M anipulation  |                                                 |
\*---------------------------------------------------------------------------*/
FoamFile
{
    version     2.0;
    format      ascii;
    class       volScalarField;
    location    "337.5";
    object      k;
}
// * * * * * * * * * * * * * * * * * * * * * * * * * * * * * * * * * * * * * //

dimensions      [0 2 -2 0 0 0 0];


internalField   nonuniform List<scalar> 
171728
(
4.58224e-07
3.79489e-07
2.91783e-07
3.53257e-07
4.54629e-07
3.67319e-07
2.82906e-07
3.34265e-07
4.54159e-07
3.59267e-07
2.74719e-07
3.16227e-07
4.53203e-07
3.50839e-07
2.67493e-07
3.00068e-07
4.53355e-07
3.3903e-07
2.59927e-07
2.85665e-07
4.47968e-07
3.23829e-07
2.51347e-07
2.7292e-07
4.40276e-07
3.03898e-07
2.46349e-07
2.61754e-07
4.40748e-07
2.9718e-07
2.42562e-07
2.51078e-07
4.46579e-07
3.00003e-07
2.38978e-07
2.41631e-07
4.50824e-07
3.18163e-07
2.36708e-07
2.3361e-07
4.55341e-07
3.4821e-07
2.35672e-07
2.26807e-07
4.60328e-07
4.03124e-07
2.34817e-07
2.2053e-07
4.65848e-07
4.36928e-07
2.35551e-07
2.15089e-07
4.7123e-07
4.22608e-07
2.38569e-07
2.11846e-07
4.77116e-07
2.96583e-07
2.44473e-07
2.10465e-07
4.83112e-07
2.26154e-07
2.54047e-07
2.12441e-07
4.89478e-07
2.10411e-07
2.68839e-07
2.20294e-07
4.96022e-07
2.20621e-07
2.93939e-07
2.37477e-07
5.03171e-07
2.51372e-07
3.34199e-07
2.76488e-07
5.10004e-07
2.96606e-07
3.95327e-07
3.4099e-07
5.17287e-07
3.74864e-07
4.81589e-07
4.74854e-07
5.24979e-07
4.82207e-07
6.07963e-07
7.04006e-07
5.33658e-07
6.52763e-07
7.85213e-07
1.08719e-06
5.4346e-07
8.87549e-07
9.39095e-07
1.73232e-06
5.55743e-07
1.22661e-06
1.28331e-06
2.61342e-06
5.6947e-07
1.60103e-06
1.70247e-06
3.96233e-06
5.87477e-07
2.17841e-06
2.09229e-06
5.7093e-06
6.09901e-07
2.71902e-06
2.8662e-06
7.64708e-06
6.41958e-07
3.58846e-06
3.45099e-06
1.00975e-05
6.78309e-07
4.40437e-06
4.45207e-06
1.27266e-05
7.27233e-07
5.36228e-06
5.37635e-06
1.50599e-05
7.98883e-07
6.88657e-06
6.44759e-06
1.74784e-05
8.79112e-07
7.4759e-06
7.91247e-06
1.96806e-05
9.95399e-07
1.0044e-05
9.05509e-06
2.17905e-05
1.15528e-06
1.05871e-05
1.06231e-05
2.36722e-05
1.28439e-06
1.33069e-05
1.22484e-05
2.51458e-05
1.62511e-06
1.42724e-05
1.41575e-05
2.67839e-05
1.73702e-06
1.49832e-05
1.52824e-05
2.81248e-05
2.28151e-06
1.84225e-05
1.80846e-05
2.94211e-05
2.7046e-06
1.90297e-05
1.92524e-05
3.0874e-05
2.80858e-06
2.11462e-05
2.03765e-05
3.17295e-05
3.83897e-06
2.23363e-05
2.33806e-05
3.29976e-05
4.18923e-06
2.50946e-05
2.42113e-05
3.45149e-05
5.15302e-06
2.65815e-05
2.68518e-05
3.51426e-05
5.56588e-06
2.77681e-05
2.77719e-05
3.65228e-05
6.97102e-06
2.99839e-05
2.99206e-05
3.78595e-05
7.99819e-06
3.12803e-05
3.15855e-05
3.81859e-05
8.34831e-06
3.2762e-05
3.23714e-05
3.96344e-05
1.06317e-05
3.4606e-05
3.45349e-05
4.11362e-05
1.1603e-05
3.52719e-05
3.58676e-05
4.1618e-05
1.31877e-05
3.75506e-05
3.71743e-05
4.24274e-05
1.37362e-05
3.81385e-05
3.76034e-05
4.31823e-05
1.63363e-05
3.94569e-05
4.00843e-05
4.49101e-05
1.81612e-05
4.11036e-05
4.09052e-05
4.53461e-05
1.86218e-05
4.12858e-05
4.10249e-05
4.58015e-05
2.06825e-05
4.25241e-05
4.3072e-05
4.65131e-05
2.22355e-05
4.41936e-05
4.34941e-05
4.79017e-05
2.38893e-05
4.44738e-05
4.49616e-05
4.81149e-05
2.48137e-05
4.535e-05
4.51588e-05
4.87894e-05
2.65283e-05
4.66801e-05
4.6351e-05
4.9778e-05
2.79208e-05
4.69519e-05
4.73768e-05
4.98749e-05
2.9159e-05
4.80391e-05
4.76433e-05
5.09332e-05
3.01965e-05
4.88078e-05
4.88555e-05
5.13493e-05
3.16052e-05
4.92444e-05
4.96404e-05
5.20356e-05
3.30829e-05
5.01643e-05
4.96423e-05
5.22667e-05
3.33466e-05
5.02686e-05
5.06975e-05
5.25259e-05
3.49945e-05
5.15677e-05
5.1642e-05
5.37286e-05
3.62752e-05
5.18037e-05
5.17077e-05
5.39006e-05
3.6729e-05
5.20009e-05
5.21295e-05
5.38946e-05
3.72387e-05
5.23943e-05
5.24046e-05
5.4072e-05
3.85796e-05
5.3383e-05
5.33375e-05
5.51524e-05
3.93828e-05
5.30699e-05
5.30835e-05
5.4612e-05
3.94035e-05
5.29738e-05
5.30025e-05
5.47288e-05
4.11273e-05
5.52785e-05
5.52776e-05
5.70367e-05
4.32125e-05
5.62625e-05
5.62338e-05
5.79264e-05
4.26644e-05
5.38907e-05
5.38548e-05
5.50209e-05
3.92362e-05
5.08044e-05
5.07939e-05
5.21238e-05
3.7842e-05
5.02754e-05
5.02737e-05
5.20709e-05
3.97574e-05
5.30524e-05
5.30455e-05
5.48351e-05
4.49619e-05
5.74499e-05
5.7435e-05
5.90454e-05
4.89463e-05
6.09153e-05
6.09018e-05
6.25166e-05
5.01546e-05
6.14423e-05
6.14334e-05
6.26136e-05
4.70355e-05
5.6811e-05
5.68119e-05
5.77683e-05
4.17461e-05
5.23552e-05
5.23562e-05
5.35237e-05
3.88589e-05
5.03658e-05
5.03663e-05
5.1771e-05
3.84329e-05
5.03431e-05
5.03429e-05
5.20978e-05
4.02595e-05
5.16227e-05
5.16225e-05
5.33031e-05
4.1351e-05
5.20711e-05
5.20712e-05
5.38442e-05
4.16342e-05
5.20876e-05
5.20877e-05
5.39637e-05
4.1688e-05
5.20388e-05
5.20391e-05
5.3985e-05
4.16922e-05
5.20045e-05
5.20048e-05
5.39819e-05
4.16768e-05
5.1976e-05
5.19762e-05
5.39649e-05
4.16624e-05
5.19638e-05
5.1964e-05
5.39486e-05
4.1651e-05
5.19479e-05
5.19478e-05
5.39545e-05
4.12723e-05
5.08806e-05
5.08794e-05
5.3637e-05
3.55964e-07
4.03364e-07
3.00397e-07
3.50911e-07
3.05151e-07
4.39597e-07
4.6212e-07
4.56858e-07
4.84891e-07
4.53276e-07
3.34832e-07
3.41489e-07
3.62106e-07
3.25588e-07
3.24518e-07
3.54392e-07
3.54713e-07
3.47062e-07
5.82103e-07
2.57017e-07
5.93985e-07
2.47049e-07
3.49006e-07
3.33554e-07
2.54833e-07
7.32753e-07
2.45855e-07
7.54384e-07
3.40912e-07
3.7006e-07
3.26659e-07
3.59576e-07
3.56214e-07
2.81178e-07
2.85074e-07
2.74918e-07
3.35629e-07
3.4537e-07
3.43488e-07
5.98176e-07
2.43714e-07
6.1122e-07
2.34109e-07
3.30817e-07
3.17353e-07
2.43087e-07
7.62212e-07
2.35587e-07
7.86983e-07
3.22047e-07
3.61221e-07
3.10801e-07
3.54349e-07
3.59314e-07
2.72818e-07
2.76664e-07
2.6662e-07
3.17415e-07
3.41923e-07
3.43358e-07
6.14876e-07
2.31015e-07
6.27062e-07
2.22933e-07
3.14804e-07
3.02931e-07
2.33268e-07
7.92803e-07
2.26008e-07
8.07277e-07
3.074e-07
3.53195e-07
2.97054e-07
3.57317e-07
3.64133e-07
2.6456e-07
2.69207e-07
2.58557e-07
3.01148e-07
3.42162e-07
3.45037e-07
6.36266e-07
2.20673e-07
6.55376e-07
2.14377e-07
3.00567e-07
2.8945e-07
2.2385e-07
8.19829e-07
2.18216e-07
8.71784e-07
2.93572e-07
3.41923e-07
2.83203e-07
3.62582e-07
3.74232e-07
2.56638e-07
2.61934e-07
2.5147e-07
2.86642e-07
3.42955e-07
3.13358e-07
6.54299e-07
2.12462e-07
5.41687e-07
2.07603e-07
2.87055e-07
2.76131e-07
2.16492e-07
8.76719e-07
2.11589e-07
7.93404e-07
2.7978e-07
3.28419e-07
2.70263e-07
3.71731e-07
3.5604e-07
2.49808e-07
2.53335e-07
2.44731e-07
2.73813e-07
3.04845e-07
2.72107e-07
4.79426e-07
2.06353e-07
3.16424e-07
2.03611e-07
2.7383e-07
2.63472e-07
2.10401e-07
6.94325e-07
2.07693e-07
4.20855e-07
2.67389e-07
3.08277e-07
2.58886e-07
3.36707e-07
2.83135e-07
2.42981e-07
2.47284e-07
2.37518e-07
2.62591e-07
2.69377e-07
2.47005e-07
2.79213e-07
2.03e-07
2.14064e-07
2.01973e-07
2.61408e-07
2.53958e-07
2.06813e-07
3.53795e-07
2.04502e-07
2.34825e-07
2.55951e-07
2.97531e-07
2.47825e-07
2.79812e-07
2.51455e-07
2.35697e-07
2.43312e-07
2.30378e-07
2.51835e-07
2.46752e-07
2.38549e-07
2.03168e-07
2.01982e-07
1.89303e-07
2.02566e-07
2.52815e-07
2.49336e-07
2.03777e-07
2.14676e-07
2.01704e-07
1.87408e-07
2.45531e-07
2.97896e-07
2.39927e-07
2.50362e-07
2.41965e-07
2.28897e-07
2.39668e-07
2.25313e-07
2.42252e-07
2.38231e-07
2.29221e-07
1.87916e-07
2.02997e-07
1.8673e-07
2.04567e-07
2.4902e-07
2.49208e-07
2.01099e-07
1.8437e-07
1.99391e-07
1.80917e-07
2.38353e-07
3.13198e-07
2.34013e-07
2.41451e-07
2.329e-07
2.24201e-07
2.37136e-07
2.21983e-07
2.34076e-07
2.29054e-07
2.21343e-07
1.86606e-07
2.05055e-07
1.86471e-07
2.06432e-07
2.49311e-07
2.53593e-07
1.98952e-07
1.80571e-07
1.97749e-07
1.8061e-07
2.32617e-07
3.38084e-07
2.28818e-07
2.32685e-07
2.26358e-07
2.21562e-07
2.36055e-07
2.20983e-07
2.27202e-07
2.21209e-07
2.14407e-07
1.86549e-07
2.06889e-07
1.87348e-07
2.07789e-07
2.54268e-07
2.64209e-07
1.97456e-07
1.8092e-07
1.96876e-07
1.82087e-07
2.27575e-07
3.89141e-07
2.23835e-07
2.26149e-07
2.19767e-07
2.20531e-07
2.3486e-07
2.19398e-07
2.20868e-07
2.14358e-07
2.08873e-07
1.87698e-07
2.08001e-07
1.89309e-07
2.08622e-07
2.66202e-07
2.729e-07
1.96686e-07
1.82452e-07
1.96566e-07
1.8389e-07
2.22668e-07
4.32738e-07
2.19672e-07
2.19692e-07
2.14873e-07
2.19428e-07
2.35171e-07
2.20491e-07
2.15199e-07
2.08945e-07
2.04923e-07
1.89908e-07
2.08724e-07
1.92624e-07
2.0863e-07
2.73405e-07
2.68537e-07
1.96462e-07
1.84536e-07
1.96792e-07
1.87128e-07
2.18909e-07
4.35517e-07
2.167e-07
2.1493e-07
2.11727e-07
2.21394e-07
2.37523e-07
2.23881e-07
2.11687e-07
2.052e-07
2.03396e-07
1.93683e-07
2.08225e-07
1.97261e-07
2.06495e-07
2.65733e-07
2.23576e-07
1.97104e-07
1.88071e-07
1.99502e-07
1.91804e-07
2.16181e-07
3.23833e-07
2.15859e-07
2.12072e-07
2.11216e-07
2.24819e-07
2.42726e-07
2.2809e-07
2.09817e-07
2.04179e-07
2.0525e-07
1.98522e-07
2.06227e-07
2.035e-07
2.06436e-07
2.21983e-07
2.06248e-07
2.00852e-07
1.93438e-07
2.06304e-07
1.99547e-07
2.16135e-07
2.37825e-07
2.18883e-07
2.12151e-07
2.14018e-07
2.29338e-07
2.51172e-07
2.33946e-07
2.10871e-07
2.06977e-07
2.12066e-07
2.05677e-07
2.06985e-07
2.14326e-07
2.11878e-07
2.06833e-07
2.06447e-07
2.08506e-07
2.02004e-07
2.16892e-07
2.11476e-07
2.20654e-07
2.10602e-07
2.27396e-07
2.15915e-07
2.21934e-07
2.36298e-07
2.64626e-07
2.44708e-07
2.17404e-07
2.15542e-07
2.27727e-07
2.17988e-07
2.14131e-07
2.33516e-07
2.27824e-07
2.08916e-07
2.21045e-07
2.1996e-07
2.15311e-07
2.32957e-07
2.30358e-07
2.30358e-07
2.16875e-07
2.41735e-07
2.25636e-07
2.39412e-07
2.48197e-07
2.86627e-07
2.61165e-07
2.31971e-07
2.34314e-07
2.59721e-07
2.39602e-07
2.3162e-07
2.64306e-07
2.46657e-07
2.27444e-07
2.4383e-07
2.38195e-07
2.36113e-07
2.60078e-07
2.60174e-07
2.46469e-07
2.38786e-07
2.68968e-07
2.4654e-07
2.73188e-07
2.66015e-07
3.22547e-07
2.87388e-07
2.65016e-07
2.71832e-07
3.21629e-07
2.74326e-07
2.58901e-07
3.12205e-07
2.88097e-07
2.59231e-07
3.07726e-07
2.68963e-07
2.69076e-07
3.03947e-07
3.06066e-07
2.77671e-07
2.81425e-07
3.09648e-07
2.86871e-07
3.33704e-07
2.95762e-07
3.76745e-07
3.24948e-07
3.20929e-07
3.42853e-07
4.34916e-07
3.27277e-07
3.03662e-07
3.83206e-07
3.60432e-07
3.23489e-07
4.32975e-07
3.18224e-07
3.22831e-07
3.707e-07
3.72671e-07
3.2428e-07
3.54133e-07
3.79283e-07
3.59797e-07
4.4377e-07
3.38623e-07
4.54909e-07
3.89183e-07
4.4171e-07
4.7061e-07
6.44449e-07
4.06858e-07
3.83132e-07
4.90883e-07
4.59573e-07
4.65859e-07
6.2717e-07
3.93066e-07
4.00438e-07
4.73291e-07
4.80663e-07
3.98815e-07
4.51842e-07
4.80382e-07
4.77691e-07
6.72557e-07
4.06687e-07
5.76448e-07
4.87479e-07
6.3666e-07
7.04403e-07
9.98114e-07
5.23987e-07
4.90708e-07
6.43835e-07
6.23383e-07
6.87011e-07
1.00145e-06
5.04523e-07
5.12467e-07
6.22642e-07
6.39856e-07
5.13374e-07
6.10418e-07
6.3134e-07
7.19124e-07
1.02044e-06
5.18164e-07
7.2175e-07
6.30851e-07
9.90993e-07
1.0956e-06
1.57966e-06
6.9293e-07
6.6478e-07
8.6702e-07
8.36119e-07
1.11241e-06
1.51446e-06
6.69646e-07
6.97169e-07
8.37588e-07
8.28557e-07
6.73845e-07
8.19746e-07
8.54672e-07
1.11927e-06
1.59251e-06
6.74278e-07
8.94155e-07
8.53833e-07
1.56789e-06
1.72452e-06
2.4428e-06
9.30033e-07
9.10466e-07
1.16855e-06
1.1294e-06
1.6821e-06
2.4354e-06
8.99559e-07
9.06724e-07
1.12991e-06
1.17129e-06
9.19735e-07
1.12762e-06
1.14258e-06
1.67513e-06
2.64001e-06
9.17783e-07
1.24444e-06
1.13988e-06
2.41523e-06
2.66557e-06
3.68132e-06
1.26256e-06
1.23138e-06
1.55882e-06
1.51523e-06
2.62304e-06
3.69789e-06
1.22075e-06
1.22079e-06
1.51643e-06
1.5829e-06
1.23767e-06
1.48804e-06
1.52689e-06
2.88837e-06
3.4608e-06
1.23295e-06
1.55475e-06
1.52271e-06
3.70117e-06
3.96532e-06
5.27189e-06
1.66638e-06
1.60044e-06
2.06774e-06
2.10171e-06
3.89206e-06
5.38246e-06
1.6202e-06
1.71829e-06
2.01411e-06
1.97722e-06
1.63716e-06
2.01879e-06
2.03671e-06
3.89748e-06
5.24559e-06
1.63742e-06
1.9554e-06
2.03124e-06
5.31444e-06
5.6583e-06
7.32234e-06
2.21053e-06
2.26813e-06
2.65882e-06
2.52361e-06
5.85229e-06
7.23783e-06
2.1554e-06
2.11838e-06
2.60285e-06
2.73527e-06
2.15982e-06
2.57823e-06
2.62998e-06
5.38266e-06
7.48827e-06
2.15309e-06
2.6794e-06
2.6314e-06
7.2088e-06
7.66544e-06
9.6884e-06
2.81462e-06
2.71806e-06
3.39135e-06
3.51561e-06
7.59561e-06
9.58744e-06
2.7651e-06
2.92029e-06
3.33006e-06
3.3489e-06
2.82547e-06
3.36358e-06
3.32471e-06
8.07176e-06
9.69066e-06
2.82928e-06
3.2901e-06
3.31237e-06
9.74382e-06
1.0231e-05
1.20483e-05
3.611e-06
3.62732e-06
4.22238e-06
4.1982e-06
1.01119e-05
1.23109e-05
3.5416e-06
3.51754e-06
4.1722e-06
4.24052e-06
3.49464e-06
4.18347e-06
4.23905e-06
1.00135e-05
1.18565e-05
3.47181e-06
4.18623e-06
4.25586e-06
1.21225e-05
1.2538e-05
1.44959e-05
4.42815e-06
4.48465e-06
5.10702e-06
5.14599e-06
1.26334e-05
1.44651e-05
4.38041e-06
4.50674e-06
5.08125e-06
5.2049e-06
4.50645e-06
5.06919e-06
5.05238e-06
1.25593e-05
1.46119e-05
4.53316e-06
5.05171e-06
5.01544e-06
1.46004e-05
1.49641e-05
1.72724e-05
5.44432e-06
5.43658e-06
6.38675e-06
6.55811e-06
1.52353e-05
1.72496e-05
5.36574e-06
5.44553e-06
6.39001e-06
6.45267e-06
5.26244e-06
6.59713e-06
6.37081e-06
1.49816e-05
1.71397e-05
5.22564e-06
6.26736e-06
6.40937e-06
1.68216e-05
1.77597e-05
1.89716e-05
6.55145e-06
6.78601e-06
7.34622e-06
7.08492e-06
1.76452e-05
1.88727e-05
6.60024e-06
6.74362e-06
7.28286e-06
7.42198e-06
6.73079e-06
7.23065e-06
7.32866e-06
1.76272e-05
1.92355e-05
6.74243e-06
7.49685e-06
7.3192e-06
1.93895e-05
1.94979e-05
2.14684e-05
7.7891e-06
7.34702e-06
8.92627e-06
9.38868e-06
1.9257e-05
2.188e-05
7.75101e-06
7.84463e-06
8.99048e-06
9.18185e-06
7.58409e-06
9.56418e-06
8.93253e-06
1.97576e-05
2.13356e-05
7.63105e-06
8.71179e-06
8.85729e-06
2.12092e-05
2.18989e-05
2.31132e-05
9.20803e-06
9.83154e-06
1.02558e-05
1.02161e-05
2.24553e-05
2.31095e-05
9.19643e-06
9.34391e-06
1.0196e-05
1.03186e-05
9.30293e-06
1.04721e-05
1.02489e-05
2.17543e-05
2.30866e-05
9.19359e-06
1.03319e-05
1.02784e-05
2.33053e-05
2.34721e-05
2.4899e-05
1.06399e-05
1.03134e-05
1.16489e-05
1.20755e-05
2.33453e-05
2.52051e-05
1.07099e-05
1.08725e-05
1.17725e-05
1.19007e-05
1.06279e-05
1.25609e-05
1.17595e-05
2.34683e-05
2.49656e-05
1.06901e-05
1.16423e-05
1.17382e-05
2.47484e-05
2.53281e-05
2.64915e-05
1.20893e-05
1.28085e-05
1.37791e-05
1.37657e-05
2.57981e-05
2.6411e-05
1.21247e-05
1.22406e-05
1.38318e-05
1.38746e-05
1.21981e-05
1.42294e-05
1.34528e-05
2.54422e-05
2.6522e-05
1.20415e-05
1.38966e-05
1.33578e-05
2.64314e-05
2.67834e-05
2.76373e-05
1.41463e-05
1.38251e-05
1.46162e-05
1.45203e-05
2.65416e-05
2.76324e-05
1.41968e-05
1.43175e-05
1.488e-05
1.48413e-05
1.3808e-05
1.4502e-05
1.51817e-05
2.67967e-05
2.76153e-05
1.39803e-05
1.47177e-05
1.52561e-05
2.78332e-05
2.79878e-05
2.95078e-05
1.50336e-05
1.55368e-05
1.73439e-05
1.82324e-05
2.82167e-05
2.97959e-05
1.53256e-05
1.51032e-05
1.72687e-05
1.73538e-05
1.5604e-05
1.79025e-05
1.66415e-05
2.79718e-05
2.95339e-05
1.53899e-05
1.75726e-05
1.65272e-05
2.90319e-05
2.98858e-05
3.05458e-05
1.78946e-05
1.87458e-05
1.90399e-05
1.93443e-05
3.00181e-05
3.04423e-05
1.79607e-05
1.78624e-05
1.94464e-05
1.87633e-05
1.72293e-05
1.89676e-05
1.90456e-05
2.98703e-05
3.03901e-05
1.73232e-05
1.90497e-05
1.92145e-05
3.06494e-05
3.07355e-05
3.13461e-05
1.92282e-05
1.93833e-05
1.98965e-05
2.00686e-05
3.06693e-05
3.14391e-05
1.96391e-05
1.90649e-05
1.98993e-05
2.006e-05
1.93401e-05
2.03843e-05
2.0361e-05
3.05955e-05
3.13853e-05
1.94107e-05
1.98592e-05
2.0046e-05
3.14391e-05
3.16646e-05
3.3145e-05
2.05106e-05
2.06821e-05
2.29305e-05
2.2186e-05
3.17692e-05
3.26549e-05
2.01872e-05
2.05901e-05
2.28373e-05
2.2743e-05
2.08806e-05
2.20254e-05
2.20717e-05
3.17307e-05
3.30413e-05
2.07428e-05
2.27597e-05
2.221e-05
3.27213e-05
3.34183e-05
3.3859e-05
2.34362e-05
2.27567e-05
2.39496e-05
2.46583e-05
3.30256e-05
3.43086e-05
2.33886e-05
2.32832e-05
2.40222e-05
2.38743e-05
2.24544e-05
2.43339e-05
2.43828e-05
3.33234e-05
3.38599e-05
2.25272e-05
2.40436e-05
2.4224e-05
3.41974e-05
3.40787e-05
3.52807e-05
2.42405e-05
2.53086e-05
2.61029e-05
2.66723e-05
3.45926e-05
3.52787e-05
2.4503e-05
2.40531e-05
2.62911e-05
2.61248e-05
2.50942e-05
2.64701e-05
2.62084e-05
3.40633e-05
3.53101e-05
2.49442e-05
2.62767e-05
2.62463e-05
3.50268e-05
3.55033e-05
3.59456e-05
2.65982e-05
2.68105e-05
2.73893e-05
2.74109e-05
3.54532e-05
3.59325e-05
2.65633e-05
2.68056e-05
2.71035e-05
2.77023e-05
2.62872e-05
2.71277e-05
2.69194e-05
3.56317e-05
3.60862e-05
2.63589e-05
2.75314e-05
2.6968e-05
3.60786e-05
3.61799e-05
3.75699e-05
2.77137e-05
2.79569e-05
2.95099e-05
2.90105e-05
3.62261e-05
3.72962e-05
2.76184e-05
2.78491e-05
2.97891e-05
2.91506e-05
2.77422e-05
2.93893e-05
3.00003e-05
3.62492e-05
3.7337e-05
2.7751e-05
2.92493e-05
2.9975e-05
3.77155e-05
3.78703e-05
3.82642e-05
3.01528e-05
2.95027e-05
3.1124e-05
3.14546e-05
3.75425e-05
3.85592e-05
3.03338e-05
2.98637e-05
3.09079e-05
3.13877e-05
3.04644e-05
3.11762e-05
3.10118e-05
3.76791e-05
3.85553e-05
3.04151e-05
3.14128e-05
3.08839e-05
3.80481e-05
3.83439e-05
3.90755e-05
3.11878e-05
3.1832e-05
3.19932e-05
3.22722e-05
3.87416e-05
3.91993e-05
3.09454e-05
3.15354e-05
3.19154e-05
3.19639e-05
3.10581e-05
3.20372e-05
3.18469e-05
3.86922e-05
3.90615e-05
3.09317e-05
3.18953e-05
3.19388e-05
3.92159e-05
3.95209e-05
4.07533e-05
3.27828e-05
3.26696e-05
3.41387e-05
3.43858e-05
3.94768e-05
4.0652e-05
3.28681e-05
3.25983e-05
3.44573e-05
3.45175e-05
3.26613e-05
3.44227e-05
3.47308e-05
3.93208e-05
4.07457e-05
3.27906e-05
3.43075e-05
3.47164e-05
4.09088e-05
4.09019e-05
4.15324e-05
3.4448e-05
3.4641e-05
3.56947e-05
3.49683e-05
4.07741e-05
4.1073e-05
3.4576e-05
3.47631e-05
3.53964e-05
3.51067e-05
3.50894e-05
3.4894e-05
3.54367e-05
4.09341e-05
4.13466e-05
3.50039e-05
3.53709e-05
3.53129e-05
4.14936e-05
4.1768e-05
4.21873e-05
3.60834e-05
3.53142e-05
3.66608e-05
3.70643e-05
4.13313e-05
4.26964e-05
3.58326e-05
3.55185e-05
3.66837e-05
3.69755e-05
3.56578e-05
3.70972e-05
3.67616e-05
4.15803e-05
4.24557e-05
3.55909e-05
3.70378e-05
3.68731e-05
4.23077e-05
4.22761e-05
4.29307e-05
3.67336e-05
3.74995e-05
3.74666e-05
3.80028e-05
4.291e-05
4.31659e-05
3.68136e-05
3.71846e-05
3.75415e-05
3.7482e-05
3.69869e-05
3.81032e-05
3.75878e-05
4.2548e-05
4.27963e-05
3.70541e-05
3.73667e-05
3.75354e-05
4.29281e-05
4.32638e-05
4.47547e-05
3.79831e-05
3.80407e-05
3.97359e-05
3.87833e-05
4.32421e-05
4.40354e-05
3.80286e-05
3.77976e-05
3.97286e-05
3.95697e-05
3.79269e-05
3.87451e-05
3.94888e-05
4.30345e-05
4.46454e-05
3.78786e-05
3.95163e-05
3.94916e-05
4.46113e-05
4.49559e-05
4.5042e-05
4.01462e-05
3.94814e-05
4.06136e-05
4.09826e-05
4.44281e-05
4.54902e-05
4.01104e-05
4.00736e-05
4.04793e-05
4.0723e-05
4.00208e-05
4.09361e-05
4.08369e-05
4.49296e-05
4.52479e-05
4.00302e-05
4.08759e-05
4.08686e-05
4.53205e-05
4.50659e-05
4.55012e-05
4.06378e-05
4.11809e-05
4.08758e-05
4.13012e-05
4.55868e-05
4.56253e-05
4.05717e-05
4.07389e-05
4.09609e-05
4.07811e-05
4.08813e-05
4.12231e-05
4.11583e-05
4.52645e-05
4.52538e-05
4.09204e-05
4.09135e-05
4.11149e-05
4.55434e-05
4.5709e-05
4.68437e-05
4.12031e-05
4.1336e-05
4.27405e-05
4.22826e-05
4.56858e-05
4.64371e-05
4.12345e-05
4.10144e-05
4.27113e-05
4.28924e-05
4.14502e-05
4.20843e-05
4.20576e-05
4.55065e-05
4.70261e-05
4.1401e-05
4.27515e-05
4.21587e-05
4.63702e-05
4.70921e-05
4.73503e-05
4.31087e-05
4.26753e-05
4.34326e-05
4.36447e-05
4.66968e-05
4.76612e-05
4.31041e-05
4.31933e-05
4.34593e-05
4.34086e-05
4.24168e-05
4.38999e-05
4.38025e-05
4.7169e-05
4.72198e-05
4.24827e-05
4.33421e-05
4.37064e-05
4.76843e-05
4.74047e-05
4.82594e-05
4.35226e-05
4.39325e-05
4.46626e-05
4.44791e-05
4.78358e-05
4.80337e-05
4.35351e-05
4.34814e-05
4.46104e-05
4.46637e-05
4.41392e-05
4.44628e-05
4.45253e-05
4.73043e-05
4.83692e-05
4.40568e-05
4.47486e-05
4.45366e-05
4.80912e-05
4.84249e-05
4.84647e-05
4.49279e-05
4.45574e-05
4.51012e-05
4.50292e-05
4.8062e-05
4.84989e-05
4.48664e-05
4.49383e-05
4.50462e-05
4.51315e-05
4.45535e-05
4.49014e-05
4.4954e-05
4.84993e-05
4.84911e-05
4.45667e-05
4.50943e-05
4.49807e-05
4.85242e-05
4.85097e-05
4.968e-05
4.514e-05
4.5346e-05
4.6312e-05
4.63808e-05
4.87794e-05
4.96706e-05
4.51246e-05
4.52017e-05
4.63765e-05
4.60559e-05
4.53144e-05
4.64498e-05
4.64962e-05
4.85444e-05
4.94215e-05
4.54284e-05
4.60951e-05
4.64737e-05
4.96914e-05
4.99004e-05
5.00202e-05
4.67157e-05
4.66093e-05
4.70765e-05
4.69199e-05
4.97718e-05
4.9879e-05
4.67001e-05
4.63665e-05
4.69916e-05
4.72245e-05
4.6729e-05
4.69131e-05
4.69109e-05
4.95971e-05
5.01761e-05
4.65909e-05
4.71518e-05
4.67624e-05
4.98056e-05
5.00461e-05
5.07118e-05
4.71167e-05
4.70075e-05
4.78231e-05
4.77121e-05
4.99433e-05
5.06238e-05
4.70589e-05
4.73892e-05
4.77987e-05
4.75234e-05
4.69386e-05
4.76378e-05
4.77055e-05
5.03064e-05
5.03952e-05
4.69847e-05
4.7605e-05
4.78672e-05
5.07337e-05
5.08628e-05
5.09992e-05
4.80471e-05
4.80489e-05
4.82797e-05
4.86384e-05
5.08512e-05
5.13323e-05
4.79742e-05
4.75755e-05
4.82963e-05
4.85463e-05
4.81147e-05
4.87618e-05
4.87132e-05
5.04292e-05
5.13008e-05
4.80508e-05
4.84427e-05
4.84842e-05
5.1281e-05
5.10738e-05
5.19773e-05
4.84026e-05
4.86772e-05
4.93187e-05
4.89865e-05
5.13691e-05
5.15723e-05
4.84952e-05
4.89212e-05
4.94123e-05
4.94902e-05
4.87519e-05
4.89496e-05
4.91236e-05
5.15703e-05
5.20012e-05
4.86935e-05
4.95843e-05
4.94692e-05
5.18565e-05
5.21758e-05
5.23563e-05
4.96451e-05
4.93566e-05
5.01082e-05
5.01271e-05
5.17931e-05
5.24237e-05
4.96956e-05
4.95349e-05
5.00512e-05
4.95929e-05
4.94683e-05
5.00941e-05
5.00736e-05
5.2015e-05
5.18838e-05
4.9668e-05
4.96386e-05
4.98552e-05
5.22584e-05
5.23584e-05
5.22993e-05
5.01164e-05
5.01907e-05
5.0102e-05
5.02224e-05
5.24574e-05
5.24663e-05
5.00522e-05
4.96588e-05
5.00334e-05
5.03541e-05
5.00992e-05
5.01941e-05
5.0095e-05
5.19384e-05
5.28204e-05
4.9849e-05
5.02686e-05
4.99251e-05
5.2324e-05
5.24707e-05
5.36141e-05
5.01747e-05
5.0306e-05
5.13437e-05
5.13267e-05
5.26119e-05
5.35487e-05
5.01177e-05
5.06982e-05
5.13685e-05
5.15148e-05
5.01552e-05
5.13345e-05
5.13129e-05
5.30804e-05
5.3656e-05
5.02256e-05
5.15364e-05
5.14602e-05
5.35995e-05
5.37484e-05
5.38402e-05
5.16018e-05
5.15238e-05
5.18342e-05
5.16738e-05
5.3642e-05
5.36656e-05
5.1649e-05
5.16332e-05
5.1931e-05
5.17047e-05
5.15922e-05
5.17639e-05
5.18878e-05
5.36838e-05
5.35534e-05
5.16807e-05
5.17028e-05
5.1885e-05
5.38611e-05
5.38583e-05
5.38845e-05
5.1858e-05
5.17136e-05
5.20365e-05
5.20715e-05
5.37023e-05
5.39183e-05
5.19451e-05
5.17075e-05
5.19637e-05
5.19761e-05
5.1964e-05
5.19941e-05
5.20639e-05
5.35749e-05
5.39607e-05
5.19259e-05
5.20284e-05
5.20002e-05
5.3897e-05
5.38932e-05
5.40013e-05
5.20474e-05
5.21062e-05
5.21026e-05
5.21914e-05
5.3938e-05
5.40797e-05
5.19572e-05
5.20584e-05
5.20602e-05
5.22311e-05
5.20543e-05
5.21025e-05
5.20402e-05
5.40338e-05
5.41608e-05
5.19916e-05
5.22486e-05
5.1988e-05
5.38685e-05
5.42258e-05
5.5103e-05
5.22944e-05
5.2394e-05
5.32292e-05
5.32847e-05
5.43057e-05
5.51738e-05
5.2375e-05
5.24899e-05
5.32603e-05
5.32715e-05
5.21704e-05
5.33087e-05
5.32106e-05
5.43224e-05
5.51154e-05
5.21383e-05
5.32479e-05
5.32189e-05
5.50996e-05
5.51427e-05
5.45987e-05
5.33173e-05
5.33647e-05
5.32111e-05
5.32402e-05
5.52094e-05
5.46237e-05
5.33341e-05
5.33402e-05
5.32066e-05
5.32077e-05
5.33214e-05
5.32462e-05
5.32487e-05
5.51555e-05
5.46086e-05
5.33372e-05
5.32434e-05
5.32797e-05
5.46734e-05
5.45333e-05
5.4476e-05
5.30471e-05
5.30662e-05
5.29017e-05
5.2907e-05
5.45536e-05
5.44632e-05
5.30387e-05
5.30376e-05
5.28939e-05
5.28902e-05
5.30919e-05
5.29105e-05
5.29436e-05
5.4542e-05
5.44735e-05
5.31301e-05
5.29373e-05
5.29857e-05
5.45229e-05
5.47009e-05
5.67106e-05
5.29721e-05
5.297e-05
5.46986e-05
5.46617e-05
5.46778e-05
5.66711e-05
5.29671e-05
5.29627e-05
5.47076e-05
5.46937e-05
5.30052e-05
5.46678e-05
5.46717e-05
5.46947e-05
5.66845e-05
5.30444e-05
5.46798e-05
5.46735e-05
5.66775e-05
5.70697e-05
5.794e-05
5.5304e-05
5.52727e-05
5.62432e-05
5.62302e-05
5.70354e-05
5.79295e-05
5.53108e-05
5.52943e-05
5.62442e-05
5.62244e-05
5.52773e-05
5.62346e-05
5.62267e-05
5.70422e-05
5.79093e-05
5.52727e-05
5.62083e-05
5.62135e-05
5.79191e-05
5.79452e-05
5.55512e-05
5.62687e-05
5.62585e-05
5.50008e-05
5.50183e-05
5.79372e-05
5.55717e-05
5.62688e-05
5.62489e-05
5.49893e-05
5.49702e-05
5.62545e-05
5.50187e-05
5.50152e-05
5.79148e-05
5.55321e-05
5.62409e-05
5.49746e-05
5.50029e-05
5.55657e-05
5.50047e-05
5.22889e-05
5.38742e-05
5.38896e-05
5.12997e-05
5.13062e-05
5.50247e-05
5.22963e-05
5.3864e-05
5.38482e-05
5.12943e-05
5.12861e-05
5.38888e-05
5.13084e-05
5.13117e-05
5.49884e-05
5.22843e-05
5.38798e-05
5.12931e-05
5.13083e-05
5.23008e-05
5.21127e-05
5.18684e-05
5.07981e-05
5.08014e-05
5.02459e-05
5.0242e-05
5.21181e-05
5.18603e-05
5.07945e-05
5.0788e-05
5.02461e-05
5.0243e-05
5.08089e-05
5.02462e-05
5.02532e-05
5.21091e-05
5.1868e-05
5.0806e-05
5.02436e-05
5.02497e-05
5.18695e-05
5.20722e-05
5.42388e-05
5.0276e-05
5.02709e-05
5.20977e-05
5.20889e-05
5.20619e-05
5.42314e-05
5.0277e-05
5.02746e-05
5.21018e-05
5.21022e-05
5.02825e-05
5.20951e-05
5.20993e-05
5.2072e-05
5.42358e-05
5.02786e-05
5.20921e-05
5.20925e-05
5.42347e-05
5.48385e-05
5.83525e-05
5.30528e-05
5.30471e-05
5.6314e-05
5.63149e-05
5.48332e-05
5.83548e-05
5.30557e-05
5.30547e-05
5.63146e-05
5.6311e-05
5.30556e-05
5.632e-05
5.63201e-05
5.48347e-05
5.83458e-05
5.30489e-05
5.6306e-05
5.63142e-05
5.83552e-05
5.90431e-05
6.21552e-05
5.74432e-05
5.74455e-05
6.02882e-05
6.0293e-05
5.90464e-05
6.21615e-05
5.74433e-05
5.74391e-05
6.02872e-05
6.02816e-05
5.74501e-05
6.02968e-05
6.02959e-05
5.90362e-05
6.21481e-05
5.74446e-05
6.02824e-05
6.02921e-05
6.21611e-05
6.25112e-05
6.29431e-05
6.0907e-05
6.09121e-05
6.15358e-05
6.15411e-05
6.25177e-05
6.29496e-05
6.09058e-05
6.08999e-05
6.15344e-05
6.15286e-05
6.09145e-05
6.15442e-05
6.15423e-05
6.25041e-05
6.29388e-05
6.09113e-05
6.15338e-05
6.1541e-05
6.29488e-05
6.26085e-05
5.8485e-05
6.14341e-05
6.14392e-05
5.81827e-05
5.81854e-05
6.26145e-05
5.84886e-05
6.14328e-05
6.14272e-05
5.81822e-05
5.81799e-05
6.144e-05
5.8189e-05
5.81849e-05
6.26057e-05
5.84868e-05
6.14396e-05
5.81896e-05
5.81891e-05
5.84879e-05
5.77647e-05
5.39228e-05
5.68045e-05
5.68065e-05
5.32511e-05
5.32519e-05
5.77681e-05
5.39244e-05
5.68042e-05
5.68026e-05
5.32507e-05
5.32507e-05
5.68064e-05
5.32555e-05
5.32524e-05
5.77666e-05
5.39253e-05
5.68104e-05
5.32567e-05
5.32552e-05
5.39243e-05
5.35217e-05
5.18305e-05
5.23508e-05
5.23515e-05
5.06301e-05
5.06307e-05
5.35233e-05
5.18314e-05
5.23503e-05
5.23506e-05
5.06291e-05
5.06303e-05
5.23521e-05
5.06328e-05
5.06314e-05
5.35241e-05
5.18325e-05
5.23542e-05
5.06334e-05
5.06319e-05
5.18318e-05
5.17697e-05
5.1899e-05
5.03633e-05
5.0364e-05
5.02014e-05
5.02023e-05
5.17706e-05
5.18996e-05
5.03622e-05
5.03635e-05
5.02003e-05
5.02016e-05
5.03647e-05
5.02033e-05
5.0203e-05
5.17715e-05
5.19e-05
5.03648e-05
5.02036e-05
5.02026e-05
5.19004e-05
5.20965e-05
5.31234e-05
5.03413e-05
5.03424e-05
5.13691e-05
5.13705e-05
5.20971e-05
5.31242e-05
5.03404e-05
5.03414e-05
5.1369e-05
5.1369e-05
5.03432e-05
5.13717e-05
5.13715e-05
5.20973e-05
5.31241e-05
5.03423e-05
5.13714e-05
5.13712e-05
5.31251e-05
5.33015e-05
5.37762e-05
5.16201e-05
5.16214e-05
5.20156e-05
5.20165e-05
5.33022e-05
5.37766e-05
5.16202e-05
5.16199e-05
5.20161e-05
5.20153e-05
5.16226e-05
5.20181e-05
5.20182e-05
5.3302e-05
5.37763e-05
5.16225e-05
5.20182e-05
5.20184e-05
5.37779e-05
5.38426e-05
5.39382e-05
5.20687e-05
5.20695e-05
5.20905e-05
5.20912e-05
5.38429e-05
5.39386e-05
5.20692e-05
5.20683e-05
5.2091e-05
5.20903e-05
5.20713e-05
5.2093e-05
5.20931e-05
5.38426e-05
5.39383e-05
5.20715e-05
5.20931e-05
5.20934e-05
5.39399e-05
5.3962e-05
5.39678e-05
5.20851e-05
5.20858e-05
5.20428e-05
5.20433e-05
5.39624e-05
5.39681e-05
5.20856e-05
5.20849e-05
5.20432e-05
5.20425e-05
5.20877e-05
5.20452e-05
5.20454e-05
5.39621e-05
5.39679e-05
5.2088e-05
5.20454e-05
5.20457e-05
5.39695e-05
5.39833e-05
5.39665e-05
5.20365e-05
5.20369e-05
5.20053e-05
5.20056e-05
5.39836e-05
5.39666e-05
5.20368e-05
5.20361e-05
5.20056e-05
5.20048e-05
5.20391e-05
5.20075e-05
5.20079e-05
5.39833e-05
5.39664e-05
5.20394e-05
5.20079e-05
5.20081e-05
5.39681e-05
5.39803e-05
5.39509e-05
5.20022e-05
5.20025e-05
5.19758e-05
5.19762e-05
5.39805e-05
5.39511e-05
5.20025e-05
5.20017e-05
5.19762e-05
5.19753e-05
5.20048e-05
5.19781e-05
5.19784e-05
5.39801e-05
5.39507e-05
5.2005e-05
5.19783e-05
5.19786e-05
5.39525e-05
5.39633e-05
5.3933e-05
5.19736e-05
5.1974e-05
5.19577e-05
5.19581e-05
5.39635e-05
5.39332e-05
5.19741e-05
5.19732e-05
5.19581e-05
5.19573e-05
5.19763e-05
5.19601e-05
5.19603e-05
5.39631e-05
5.39329e-05
5.19764e-05
5.19603e-05
5.19604e-05
5.39345e-05
5.39471e-05
5.39384e-05
5.19615e-05
5.19619e-05
5.19537e-05
5.19542e-05
5.39474e-05
5.39389e-05
5.19619e-05
5.19611e-05
5.19541e-05
5.19534e-05
5.19641e-05
5.19562e-05
5.19564e-05
5.3947e-05
5.39385e-05
5.19641e-05
5.19563e-05
5.19564e-05
5.394e-05
5.3953e-05
5.37804e-05
5.19455e-05
5.19459e-05
5.17972e-05
5.17979e-05
5.39535e-05
5.37809e-05
5.19458e-05
5.19449e-05
5.17989e-05
5.17959e-05
5.19478e-05
5.18013e-05
5.17993e-05
5.39529e-05
5.37801e-05
5.19479e-05
5.18001e-05
5.18006e-05
5.37817e-05
5.36356e-05
5.08761e-05
5.08768e-05
5.36363e-05
5.0878e-05
5.08748e-05
4.12737e-05
4.12724e-05
4.12743e-05
5.08781e-05
5.36353e-05
5.08798e-05
1.36498e-06
2.78382e-07
8.29019e-07
8.28493e-07
1.07463e-07
3.37093e-07
4.27311e-07
4.55834e-07
1.08047e-07
3.14534e-07
4.40106e-07
1.9821e-07
3.6113e-07
2.72372e-07
3.69075e-07
3.47057e-07
5.38669e-06
3.02986e-07
7.25467e-06
1.29966e-05
2.03632e-05
3.15391e-07
4.84221e-06
2.57268e-07
6.46373e-06
4.50854e-07
4.81811e-07
4.47001e-07
4.54901e-07
4.46886e-07
4.78452e-07
4.42185e-07
1.0377e-07
8.49871e-07
3.14417e-07
3.76175e-07
1.06057e-07
8.18126e-07
3.1054e-07
1.4488e-05
2.21496e-05
1.04056e-07
2.5439e-07
5.51545e-07
2.89506e-07
1.0592e-07
2.51903e-07
5.40764e-07
1.89798e-06
1.8868e-06
3.44995e-07
1.8694e-06
1.85709e-06
5.48893e-07
1.08329e-05
4.41575e-07
1.38438e-05
3.50302e-05
4.50583e-05
5.04609e-07
9.56659e-06
4.06084e-07
1.22309e-05
4.47152e-07
4.77893e-07
4.4218e-07
4.54198e-07
4.48545e-07