/*--------------------------------*- C++ -*----------------------------------*\
| =========                 |                                                 |
| \\      /  F ield         | OpenFOAM: The Open Source CFD Toolbox           |
|  \\    /   O peration     | Version:  v2012                                 |
|   \\  /    A nd           | Website:  www.openfoam.com                      |
|    \\/     M anipulation  |                                                 |
\*---------------------------------------------------------------------------*/
FoamFile
{
    version     2.0;
    format      ascii;
    class       volScalarField;
    location    "337.5";
    object      nut;
}
// * * * * * * * * * * * * * * * * * * * * * * * * * * * * * * * * * * * * * //

dimensions      [0 2 -1 0 0 0 0];


internalField   nonuniform List<scalar> 
171728
(
5.75248e-06
2.06603e-06
1.75235e-06
2.22597e-06
5.74574e-06
2.06991e-06
1.75638e-06
2.20472e-06
5.91073e-06
2.11962e-06
1.77343e-06
2.18319e-06
6.14338e-06
2.16039e-06
1.80128e-06
2.15963e-06
6.43689e-06
2.15379e-06
1.82707e-06
2.13683e-06
6.46386e-06
2.09754e-06
1.81754e-06
2.11394e-06
6.32921e-06
1.93977e-06
1.83527e-06
2.09484e-06
6.38044e-06
1.89352e-06
1.84995e-06
2.05852e-06
6.57354e-06
1.92796e-06
1.84368e-06
2.01359e-06
6.71553e-06
2.19223e-06
1.84005e-06
1.9673e-06
6.85861e-06
2.74606e-06
1.82973e-06
1.91804e-06
7.00834e-06
3.92407e-06
1.80414e-06
1.85055e-06
7.16953e-06
4.90338e-06
1.76735e-06
1.76534e-06
7.31977e-06
4.91872e-06
1.73035e-06
1.67845e-06
7.47666e-06
2.57774e-06
1.69248e-06
1.57662e-06
7.62689e-06
1.49423e-06
1.65197e-06
1.46118e-06
7.77571e-06
1.16038e-06
1.61565e-06
1.36434e-06
7.91603e-06
1.06777e-06
1.61039e-06
1.28578e-06
8.05634e-06
1.07603e-06
1.65978e-06
1.29923e-06
8.16417e-06
1.1443e-06
1.77851e-06
1.38413e-06
8.25256e-06
1.35356e-06
1.97614e-06
1.77479e-06
8.30966e-06
1.63473e-06
2.34487e-06
2.43541e-06
8.3347e-06
2.16869e-06
2.86897e-06
3.62642e-06
8.30937e-06
2.89952e-06
3.10875e-06
5.64169e-06
8.25297e-06
4.04516e-06
4.40474e-06
8.33337e-06
8.1076e-06
5.18396e-06
5.73441e-06
1.27094e-05
7.93674e-06
7.20391e-06
6.72697e-06
1.81169e-05
7.71494e-06
8.83846e-06
9.64986e-06
2.35663e-05
7.55773e-06
1.19837e-05
1.13492e-05
3.1491e-05
7.32556e-06
1.47285e-05
1.503e-05
3.89651e-05
7.09431e-06
1.75719e-05
1.79248e-05
4.56827e-05
7.25948e-06
2.41403e-05
2.16493e-05
5.19548e-05
7.07699e-06
2.3859e-05
2.71051e-05
5.90474e-05
7.56347e-06
3.57233e-05
3.04666e-05
6.45898e-05
8.10517e-06
3.5245e-05
3.62714e-05
7.05868e-05
8.11809e-06
4.69823e-05
4.12034e-05
7.43892e-05
1.04686e-05
5.03705e-05
4.92736e-05
7.96764e-05
9.74554e-06
4.83884e-05
5.06488e-05
8.37812e-05
1.29815e-05
6.5041e-05
6.29237e-05
8.74893e-05
1.5924e-05
6.50624e-05
6.65425e-05
9.29536e-05
1.42781e-05
7.24247e-05
6.76449e-05
9.511e-05
2.1e-05
7.46616e-05
8.07074e-05
9.91832e-05
2.16055e-05
8.57891e-05
8.1214e-05
0.000105169
2.72564e-05
9.14402e-05
9.23047e-05
0.000106647
2.76051e-05
9.33368e-05
9.36803e-05
0.000111153
3.51302e-05
0.000102049
0.0001014
0.000117146
4.17074e-05
0.000106842
0.00010867
0.000116798
3.86551e-05
0.000110535
0.00010824
0.000122
5.32809e-05
0.000119051
0.000118099
0.000128188
5.65746e-05
0.000118745
0.00012243
0.000129557
6.56144e-05
0.000129707
0.000128262
0.000132333
6.41338e-05
0.000130959
0.000126788
0.000134157
7.78921e-05
0.000134869
0.000138896
0.000141713
8.91796e-05
0.000143714
0.000142943
0.000143484
8.78828e-05
0.000142743
0.000140213
0.000144339
9.7286e-05
0.00014701
0.000151064
0.000146703
0.000105744
0.000155971
0.000151326
0.000152954
0.000113368
0.000156518
0.000159244
0.000153612
0.000116835
0.000159266
0.000158667
0.000155623
0.000124097
0.000166519
0.000164204
0.000160517
0.000131989
0.000167069
0.000169642
0.000160138
0.000137724
0.000171795
0.000170004
0.000164873
0.00014212
0.000176332
0.000175678
0.000166648
0.000148945
0.000177275
0.000180643
0.000169702
0.000159267
0.000182977
0.000179438
0.000171028
0.000157613
0.000182132
0.00018443
0.000170918
0.000166867
0.000189931
0.000190634
0.000177218
0.000176432
0.000191367
0.000190552
0.000178389
0.000178596
0.000192704
0.000193176
0.00017861
0.000179497
0.000193906
0.000194134
0.000178252
0.00018897
0.000201204
0.000200888
0.000184799
0.000195888
0.000200178
0.000200249
0.000182676
0.000192634
0.000197103
0.000197348
0.000180639
0.000203509
0.000211254
0.000211377
0.00019228
0.000225457
0.000222451
0.000222374
0.000201025
0.000230528
0.000213645
0.000213447
0.000190878
0.000200321
0.000193436
0.000193391
0.000175196
0.000182672
0.000186275
0.000186287
0.000171032
0.000188767
0.000197565
0.000197553
0.000179965
0.000227325
0.000220592
0.000220511
0.000197093
0.000264836
0.000244172
0.000244084
0.000215982
0.000288279
0.000257027
0.000256949
0.000224178
0.000272742
0.000234276
0.000234277
0.000205397
0.00022637
0.000208636
0.000208641
0.000186222
0.000199686
0.000197266
0.000197264
0.0001776
0.00019555
0.000197703
0.000197695
0.000178742
0.000214049
0.000207326
0.000207314
0.000184937
0.000227803
0.000211187
0.000211176
0.000187509
0.000232721
0.000211809
0.000211798
0.00018791
0.000234236
0.00021171
0.0002117
0.000187903
0.00023471
0.000211574
0.000211564
0.000187857
0.000234741
0.000211414
0.000211404
0.000187771
0.000234638
0.000211332
0.000211322
0.000187665
0.000234605
0.000211252
0.00021124
0.00018772
0.000236598
0.000212614
0.000212607
0.000191203
2.20578e-06
2.22796e-06
2.11685e-06
2.29055e-06
2.13867e-06
2.00696e-06
5.92509e-06
5.89447e-06
5.82693e-06
6.16278e-06
2.28437e-06
2.4586e-06
2.30511e-06
2.33238e-06
2.31658e-06
2.2302e-06
2.20951e-06
2.18168e-06
2.19999e-06
1.67344e-06
2.33102e-06
1.62679e-06
2.27728e-06
2.25404e-06
1.60742e-06
2.40417e-06
1.57723e-06
2.53627e-06
2.20711e-06
2.06416e-06
2.17181e-06
2.30222e-06
2.21948e-06
1.71386e-06
1.75199e-06
1.71814e-06
2.20651e-06
2.18054e-06
2.18221e-06
2.39877e-06
1.61292e-06
2.62248e-06
1.56893e-06
2.2513e-06
2.2204e-06
1.57168e-06
2.59568e-06
1.55757e-06
2.84288e-06
2.16375e-06
2.10674e-06
2.16601e-06
2.21509e-06
2.18247e-06
1.72275e-06
1.76878e-06
1.73417e-06
2.18443e-06
2.18648e-06
2.32036e-06
2.71013e-06
1.55398e-06
3.26612e-06
1.52036e-06
2.21501e-06
2.18255e-06
1.55286e-06
2.91489e-06
1.53327e-06
3.34334e-06
2.16922e-06
2.15367e-06
2.16986e-06
2.18412e-06
2.31693e-06
1.73708e-06
1.7919e-06
1.74611e-06
2.16109e-06
2.37821e-06
2.78324e-06
3.66621e-06
1.51342e-06
5.68977e-06
1.49727e-06
2.17528e-06
2.12946e-06
1.53047e-06
3.69437e-06
1.52885e-06
5.97216e-06
2.16808e-06
2.15497e-06
2.15638e-06
2.36514e-06
3.06015e-06
1.74983e-06
1.8238e-06
1.76752e-06
2.13867e-06
2.7787e-06
2.64857e-06
6.57376e-06
1.49356e-06
6.82753e-06
1.48783e-06
2.11757e-06
2.06927e-06
1.52902e-06
7.18464e-06
1.52737e-06
1.03518e-05
2.15023e-06
2.12324e-06
2.13288e-06
3.09457e-06
3.32797e-06
1.77393e-06
1.82018e-06
1.78963e-06
2.11676e-06
2.53085e-06
2.25275e-06
5.98446e-06
1.4884e-06
3.32687e-06
1.49647e-06
2.0458e-06
2.00497e-06
1.53124e-06
9.42018e-06
1.5492e-06
5.13947e-06
2.12837e-06
1.9781e-06
2.10697e-06
3.02162e-06
2.41492e-06
1.79259e-06
1.8281e-06
1.79216e-06
2.09911e-06
2.21712e-06
1.99518e-06
2.73333e-06
1.501e-06
1.78717e-06
1.51918e-06
1.98078e-06
1.95564e-06
1.55339e-06
3.971e-06
1.56532e-06
2.10317e-06
2.09441e-06
1.89269e-06
2.05248e-06
2.37558e-06
2.06878e-06
1.7891e-06
1.8456e-06
1.77313e-06
2.06453e-06
1.99438e-06
1.98313e-06
1.64308e-06
1.52757e-06
1.46672e-06
1.55362e-06
1.94213e-06
1.95129e-06
1.56811e-06
1.81977e-06
1.57044e-06
1.45462e-06
2.0404e-06
1.90294e-06
2.01178e-06
2.05536e-06
2.0362e-06
1.76875e-06
1.84415e-06
1.76028e-06
2.02047e-06
1.97942e-06
1.91991e-06
1.45203e-06
1.56295e-06
1.4442e-06
1.59259e-06
1.94793e-06
2.00923e-06
1.57077e-06
1.41959e-06
1.56544e-06
1.38606e-06
2.00359e-06
2.11049e-06
1.97651e-06
2.03011e-06
1.9673e-06
1.75556e-06
1.84273e-06
1.74961e-06
1.97468e-06
1.91558e-06
1.85352e-06
1.44201e-06
1.60085e-06
1.43127e-06
1.6199e-06
2.01323e-06
2.19395e-06
1.5629e-06
1.38083e-06
1.5486e-06
1.37101e-06
1.96371e-06
2.55318e-06
1.92407e-06
1.96262e-06
1.91633e-06
1.74968e-06
1.83439e-06
1.75177e-06
1.92709e-06
1.84746e-06
1.77603e-06
1.4273e-06
1.62453e-06
1.41319e-06
1.62813e-06
2.20816e-06
2.44193e-06
1.54292e-06
1.36862e-06
1.52201e-06
1.36155e-06
1.90726e-06
3.5979e-06
1.84787e-06
1.90886e-06
1.83503e-06
1.74447e-06
1.81133e-06
1.71719e-06
1.86315e-06
1.76718e-06
1.6931e-06
1.40854e-06
1.62581e-06
1.39165e-06
1.60936e-06
2.47003e-06
2.63114e-06
1.51246e-06
1.35585e-06
1.47998e-06
1.33322e-06
1.82568e-06
4.73453e-06
1.75489e-06
1.82506e-06
1.75815e-06
1.71014e-06
1.77627e-06
1.69251e-06
1.78099e-06
1.68024e-06
1.60363e-06
1.38414e-06
1.59975e-06
1.36344e-06
1.5521e-06
2.62748e-06
2.60066e-06
1.4645e-06
1.32501e-06
1.41485e-06
1.30139e-06
1.73095e-06
5.11882e-06
1.64613e-06
1.74423e-06
1.67358e-06
1.69144e-06
1.73937e-06
1.67425e-06
1.69823e-06
1.58597e-06
1.5128e-06
1.35594e-06
1.52704e-06
1.32237e-06
1.43068e-06
2.531e-06
1.81143e-06
1.39793e-06
1.29133e-06
1.35114e-06
1.25721e-06
1.61702e-06
3.04621e-06
1.53554e-06
1.65598e-06
1.5891e-06
1.66544e-06
1.7026e-06
1.6327e-06
1.60084e-06
1.49057e-06
1.42086e-06
1.30922e-06
1.39748e-06
1.262e-06
1.30514e-06
1.75667e-06
1.45603e-06
1.33881e-06
1.24735e-06
1.30407e-06
1.21916e-06
1.5068e-06
1.66185e-06
1.42923e-06
1.56819e-06
1.5024e-06
1.61693e-06
1.66042e-06
1.55831e-06
1.49318e-06
1.39539e-06
1.33011e-06
1.24813e-06
1.27279e-06
1.21221e-06
1.19683e-06
1.41672e-06
1.28979e-06
1.29002e-06
1.2095e-06
1.25196e-06
1.18272e-06
1.40846e-06
1.20426e-06
1.35232e-06
1.4785e-06
1.41601e-06
1.54298e-06
1.6263e-06
1.50452e-06
1.39593e-06
1.30836e-06
1.261e-06
1.20191e-06
1.17256e-06
1.1914e-06
1.16271e-06
1.25326e-06
1.20739e-06
1.23758e-06
1.17497e-06
1.20394e-06
1.16415e-06
1.3338e-06
1.07996e-06
1.28083e-06
1.3938e-06
1.35291e-06
1.48795e-06
1.60774e-06
1.4395e-06
1.31248e-06
1.24964e-06
1.25154e-06
1.19229e-06
1.15059e-06
1.21323e-06
1.09392e-06
1.20439e-06
1.12337e-06
1.19529e-06
1.15992e-06
1.19875e-06
1.18248e-06
1.26213e-06
1.04189e-06
1.2628e-06
1.34443e-06
1.34235e-06
1.42017e-06
1.64026e-06
1.40014e-06
1.29546e-06
1.25831e-06
1.3543e-06
1.22663e-06
1.12359e-06
1.29979e-06
1.14944e-06
1.14652e-06
1.27699e-06
1.20456e-06
1.19081e-06
1.25796e-06
1.25312e-06
1.26757e-06
1.11287e-06
1.29084e-06
1.36318e-06
1.416e-06
1.3986e-06
1.73236e-06
1.39606e-06
1.35676e-06
1.39247e-06
1.64186e-06
1.33124e-06
1.18249e-06
1.46085e-06
1.32694e-06
1.27256e-06
1.62992e-06
1.28472e-06
1.29819e-06
1.39751e-06
1.39253e-06
1.31749e-06
1.29915e-06
1.45268e-06
1.4802e-06
1.68864e-06
1.41433e-06
1.90768e-06
1.51263e-06
1.69626e-06
1.72811e-06
2.27672e-06
1.52398e-06
1.39049e-06
1.7572e-06
1.58791e-06
1.70655e-06
2.18421e-06
1.45565e-06
1.48005e-06
1.67302e-06
1.70048e-06
1.49303e-06
1.55384e-06
1.70694e-06
1.73815e-06
2.44255e-06
1.53795e-06
2.26163e-06
1.74895e-06
2.22717e-06
2.44124e-06
3.36726e-06
1.85061e-06
1.66843e-06
2.20375e-06
2.10441e-06
2.35322e-06
3.35163e-06
1.75634e-06
1.78379e-06
2.10603e-06
2.17767e-06
1.80052e-06
2.04538e-06
2.15272e-06
2.52003e-06
3.45178e-06
1.83143e-06
2.62606e-06
2.14979e-06
3.34443e-06
3.65032e-06
5.22152e-06
2.35391e-06
2.21981e-06
2.91415e-06
2.74793e-06
3.74109e-06
4.82436e-06
2.25009e-06
2.3868e-06
2.78345e-06
2.70199e-06
2.26705e-06
2.6816e-06
2.85594e-06
3.71635e-06
5.40956e-06
2.2701e-06
3.07278e-06
2.85151e-06
5.11265e-06
5.65636e-06
7.88684e-06
3.10471e-06
3.00742e-06
3.87386e-06
3.67313e-06
5.33017e-06
7.87046e-06
2.97174e-06
2.95884e-06
3.70608e-06
3.92484e-06
3.0667e-06
3.68772e-06
3.76109e-06
5.48221e-06
8.81928e-06
3.05531e-06
4.3653e-06
3.75302e-06
7.80504e-06
8.59121e-06
1.17993e-05
4.19609e-06
4.03718e-06
5.15397e-06
4.95385e-06
8.32585e-06
1.20906e-05
4.00935e-06
3.99353e-06
4.97984e-06
5.25388e-06
4.08675e-06
4.83059e-06
5.01201e-06
9.89126e-06
1.04576e-05
4.06755e-06
5.12326e-06
4.98821e-06
1.19606e-05
1.26761e-05
1.65569e-05
5.49149e-06
5.13766e-06
6.85657e-06
7.00745e-06
1.24634e-05
1.69301e-05
5.29896e-06
5.79285e-06
6.62572e-06
6.39542e-06
5.36195e-06
6.60513e-06
6.74892e-06
1.19247e-05
1.70185e-05
5.36533e-06
6.33368e-06
6.72812e-06
1.68165e-05
1.77341e-05
2.31631e-05
7.34364e-06
7.71346e-06
8.84193e-06
8.06857e-06
1.86345e-05
2.27785e-05
7.10203e-06
6.79623e-06
8.59407e-06
9.15434e-06
7.12061e-06
8.47016e-06
8.66083e-06
1.68315e-05
2.33297e-05
7.09408e-06
8.9218e-06
8.67178e-06
2.23598e-05
2.39641e-05
3.00252e-05
9.326e-06
8.6542e-06
1.12796e-05
1.2044e-05
2.36203e-05
2.94403e-05
9.11644e-06
9.8732e-06
1.10159e-05
1.11442e-05
9.39268e-06
1.11413e-05
1.10356e-05
2.5493e-05
3.07129e-05
9.42366e-06
1.09287e-05
1.09918e-05
3.06823e-05
3.17909e-05
3.6923e-05
1.21048e-05
1.22769e-05
1.42147e-05
1.39202e-05
3.09771e-05
3.85035e-05
1.17794e-05
1.16103e-05
1.39801e-05
1.41189e-05
1.15052e-05
1.39894e-05
1.42392e-05
3.13646e-05
3.55563e-05
1.13945e-05
1.39812e-05
1.43224e-05
3.69635e-05
3.82518e-05
4.37527e-05
1.48833e-05
1.50398e-05
1.69146e-05
1.70492e-05
3.91518e-05
4.28988e-05
1.46452e-05
1.51296e-05
1.68607e-05
1.74708e-05
1.53235e-05
1.66269e-05
1.68656e-05
3.78761e-05
4.45172e-05
1.54926e-05
1.67118e-05
1.66726e-05
4.44573e-05
4.4896e-05
5.2411e-05
1.81904e-05
1.80288e-05
2.2028e-05
2.293e-05
4.55759e-05
5.25501e-05
1.78147e-05
1.81863e-05
2.19869e-05
2.20496e-05
1.73524e-05
2.29069e-05
2.16286e-05
4.51735e-05
5.17341e-05
1.71329e-05
2.13354e-05
2.18839e-05
4.98661e-05
5.39607e-05
5.61099e-05
2.23544e-05
2.38212e-05
2.4461e-05
2.30867e-05
5.34781e-05
5.57018e-05
2.26355e-05
2.31471e-05
2.40643e-05
2.46999e-05
2.31766e-05
2.36932e-05
2.46729e-05
5.3175e-05
5.73671e-05
2.33079e-05
2.53443e-05
2.45813e-05
5.85876e-05
5.75703e-05
6.41572e-05
2.61995e-05
2.33623e-05
3.06138e-05
3.27034e-05
5.63447e-05
6.59299e-05
2.58902e-05
2.62332e-05
3.10611e-05
3.20572e-05
2.52314e-05
3.33455e-05
3.04825e-05
5.89789e-05
6.36807e-05
2.55126e-05
2.94077e-05
3.01698e-05
6.26854e-05
6.53843e-05
6.87347e-05
3.1462e-05
3.48978e-05
3.49788e-05
3.50002e-05
6.80977e-05
6.88923e-05
3.14877e-05
3.22401e-05
3.43625e-05
3.48143e-05
3.19075e-05
3.5935e-05
3.48878e-05
6.47766e-05
6.86252e-05
3.13183e-05
3.54379e-05
3.50278e-05
6.95749e-05
6.95706e-05
7.38498e-05
3.63451e-05
3.42825e-05
3.92256e-05
4.07688e-05
6.90105e-05
7.53515e-05
3.64433e-05
3.71911e-05
3.98919e-05
4.0548e-05
3.62009e-05
4.31236e-05
3.99077e-05
6.9578e-05
7.40634e-05
3.65804e-05
3.88243e-05
4.0099e-05
7.33119e-05
7.52105e-05
7.9158e-05
4.06573e-05
4.4388e-05
4.78954e-05
4.82989e-05
7.77976e-05
7.91802e-05
4.07975e-05
4.14158e-05
4.79363e-05
4.81061e-05
4.14789e-05
5.09872e-05
4.59933e-05
7.57356e-05
7.9427e-05
4.08571e-05
4.84795e-05
4.50485e-05
7.86514e-05
7.98539e-05
8.18209e-05
4.93808e-05
4.76316e-05
4.86023e-05
4.66543e-05
7.89361e-05
8.13464e-05
4.9335e-05
5.00367e-05
4.99907e-05
5.00914e-05
4.70213e-05
4.73796e-05
5.19256e-05
8.0021e-05
8.16692e-05
4.76862e-05
4.89097e-05
5.29015e-05
8.30511e-05
8.27699e-05
8.85844e-05
4.94073e-05
5.09634e-05
5.93922e-05
6.40015e-05
8.35861e-05
9.04474e-05
5.11847e-05
5.00249e-05
5.85441e-05
5.9682e-05
5.34555e-05
6.25693e-05
5.5863e-05
8.26405e-05
8.89222e-05
5.26417e-05
6.06728e-05
5.49166e-05
8.62369e-05
8.99288e-05
9.20429e-05
6.1745e-05
6.65069e-05
6.6091e-05
6.78808e-05
9.09734e-05
9.15192e-05
6.15707e-05
6.18891e-05
6.82838e-05
6.44398e-05
5.7942e-05
6.59057e-05
6.57268e-05
9.0076e-05
9.12768e-05
5.82501e-05
6.62415e-05
6.70171e-05
9.2376e-05
9.23697e-05
9.35867e-05
6.62931e-05
6.7053e-05
6.6138e-05
6.72137e-05
9.20602e-05
9.44527e-05
6.87545e-05
6.51664e-05
6.66173e-05
6.71995e-05
6.65726e-05
6.88325e-05
6.90682e-05
9.16345e-05
9.37744e-05
6.73521e-05
6.62365e-05
6.70892e-05
9.4273e-05
9.44883e-05
0.000100655
6.81334e-05
6.96794e-05
7.89274e-05
7.44486e-05
9.5511e-05
9.79512e-05
6.64565e-05
6.88156e-05
7.82465e-05
7.7926e-05
7.09863e-05
7.43265e-05
7.44985e-05
9.48677e-05
0.000100169
6.99775e-05
7.78023e-05
7.54204e-05
9.84579e-05
0.000101546
0.000102329
8.11886e-05
7.6386e-05
8.10618e-05
8.38816e-05
9.91541e-05
0.000104559
8.07723e-05
8.03597e-05
8.11395e-05
8.09391e-05
7.53122e-05
8.22615e-05
8.26449e-05
0.000101083
0.000102338
7.59491e-05
8.17313e-05
8.18225e-05
0.000103958
0.0001028
0.00010776
8.13427e-05
8.67608e-05
8.89081e-05
9.25876e-05
0.00010556
0.000107895
8.26091e-05
8.04508e-05
9.03947e-05
8.85381e-05
8.59757e-05
9.17342e-05
9.04498e-05
0.000102731
0.000107774
8.50931e-05
8.96329e-05
9.05676e-05
0.000106716
0.000108446
0.000109213
9.10015e-05
9.25205e-05
9.25654e-05
9.25166e-05
0.000108256
0.000109225
9.12487e-05
9.1743e-05
9.07316e-05
9.46264e-05
8.98553e-05
9.07026e-05
8.89441e-05
0.000109002
0.000110082
9.02132e-05
9.3526e-05
8.93191e-05
0.000109339
0.000109765
0.000115643
9.31078e-05
9.47607e-05
0.000100036
9.75089e-05
0.000110143
0.000114213
9.22534e-05
9.43087e-05
0.000101834
9.78642e-05
9.2425e-05
9.94832e-05
0.000103174
0.000110281
0.000114247
9.2576e-05
9.84567e-05
0.00010319
0.000116809
0.000116823
0.000117995
0.000103097
9.90624e-05
0.000107008
0.000107844
0.000114955
0.000119135
0.000104498
0.000100998
0.000105965
0.000108081
0.000105285
0.000107116
0.000106167
0.00011555
0.000119227
0.000105187
0.000108325
0.000105507
0.000116681
0.00011788
0.000119568
0.00010638
0.000109471
0.000106974
0.000109007
0.000119631
0.000120536
0.000105081
0.000108228
0.000106255
0.000106991
0.000105391
0.000107341
0.000105954
0.000119481
0.000119804
0.000104647
0.00010685
0.00010642
0.000120366
0.000121283
0.000126731
0.000110686
0.000110123
0.000116338
0.000118157
0.000121398
0.000126604
0.000110868
0.000109447
0.000118492
0.000118696
0.000109607
0.000118561
0.000119615
0.000120491
0.000126719
0.000110388
0.000117469
0.000119715
0.000127406
0.000127111
0.000129453
0.000117271
0.000119101
0.000122325
0.000118174
0.000126834
0.000126895
0.000118454
0.000119617
0.000120703
0.00011896
0.000121239
0.000117679
0.000121166
0.000127319
0.000128406
0.000120882
0.000120244
0.000120355
0.000129317
0.000130307
0.000131619
0.000124099
0.000119088
0.000125925
0.000127328
0.00012766
0.000133883
0.000122622
0.000120438
0.000125963
0.000127381
0.000121586
0.000127424
0.000126151
0.000129164
0.000132958
0.000121046
0.000127979
0.000126857
0.000132177
0.000131611
0.000133265
0.00012555
0.000129505
0.000126678
0.000130954
0.000134652
0.000135053
0.000125956
0.000128096
0.000127142
0.000127155
0.00012684
0.000131525
0.00012777
0.000133044
0.000132771
0.000127317
0.000126626
0.00012747
0.000133397
0.000134409
0.000141384
0.000128732
0.000130352
0.000137447
0.000131534
0.000134979
0.000137464
0.000129036
0.000127893
0.000137531
0.000136265
0.000128772
0.000131339
0.000135758
0.000133357
0.000140689
0.000128469
0.000135788
0.000135759
0.000140448
0.000142206
0.000142351
0.000139646
0.000134978
0.000141524
0.000143062
0.000139071
0.000144234
0.000139577
0.00013903
0.000140662
0.000142352
0.000138577
0.000142909
0.000142644
0.00014193
0.000143456
0.00013862
0.000143162
0.000142836
0.000143629
0.000142105
0.000143153
0.000141195
0.00014407
0.000140432
0.000143462
0.000144492
0.000144123
0.000140705
0.000141991
0.000141016
0.000139593
0.000142425
0.000143085
0.000142239
0.000143268
0.000141676
0.000142689
0.000140626
0.000141945
0.000143376
0.000143753
0.00014869
0.000141506
0.000142879
0.000149043
0.000146362
0.000143997
0.00014662
0.000141768
0.000139882
0.000148847
0.000150046
0.000143544
0.000145102
0.000145153
0.000142337
0.000149752
0.000143117
0.000149286
0.000145789
0.000146456
0.000149738
0.000150716
0.000151088
0.000148205
0.000151947
0.000152851
0.000147554
0.000152095
0.000151055
0.000151756
0.000152215
0.000151802
0.000146508
0.000154241
0.000153458
0.00015029
0.000149909
0.000147045
0.000151193
0.000152987
0.00015202
0.000150584
0.00015438
0.000151748
0.000154327
0.000157398
0.000156811
0.000152794
0.000153598
0.00015194
0.000151442
0.000157122
0.000157342
0.000155349
0.000156988
0.000157147
0.000149835
0.000154967
0.000154876
0.000158026
0.000157146
0.000153816
0.000155061
0.000154788
0.000158929
0.000156834
0.000158935
0.000157951
0.000153403
0.000154523
0.00015858
0.000158941
0.000158512
0.000159211
0.000156899
0.00015698
0.00015738
0.000155497
0.000155025
0.000156904
0.000158955
0.000157383
0.000154624
0.000154494
0.000159839
0.000158379
0.000159366
0.000163959
0.000164788
0.000155613
0.000160094
0.000158184
0.000159009
0.000164534
0.000162619
0.000158976
0.000165223
0.000165439
0.000154812
0.000158649
0.000159618
0.000163
0.000165514
0.000160235
0.000160847
0.000161367
0.000166403
0.000166024
0.000168069
0.000167174
0.000160429
0.000160683
0.000166462
0.000164136
0.000167531
0.000168882
0.000166824
0.000167313
0.000167207
0.000159301
0.000162133
0.000166093
0.000168348
0.000165845
0.000160218
0.000161135
0.000164157
0.000167834
0.000167259
0.000171187
0.000170171
0.000160639
0.000163445
0.000167451
0.000169836
0.000171164
0.000169753
0.000166811
0.000169582
0.000169914
0.000162618
0.000162748
0.000166685
0.000170334
0.000171338
0.000164039
0.000164759
0.000165057
0.00017248
0.000172021
0.000173036
0.000175473
0.000164383
0.000167013
0.000172086
0.000169423
0.000172937
0.000173947
0.000172289
0.000176193
0.00017581
0.000162492
0.000166186
0.000172303
0.000173289
0.000174066
0.000166578
0.000165023
0.00016936
0.00017326
0.000175483
0.000177848
0.00017592
0.000166984
0.000167313
0.000173661
0.000176172
0.000178503
0.000179737
0.000175788
0.000175821
0.000176801
0.000167408
0.000170071
0.000174988
0.000180319
0.000179229
0.000168925
0.00017027
0.000171665
0.000179833
0.000177931
0.000182897
0.00018272
0.000168163
0.000171728
0.000180281
0.000179914
0.00018265
0.000179402
0.000178778
0.000182552
0.000182648
0.000170004
0.000168803
0.000180488
0.000179897
0.000181607
0.000171178
0.000171504
0.000170151
0.000182875
0.000183102
0.000181556
0.000182364
0.000171745
0.000171132
0.000182547
0.000179367
0.000181055
0.000182535
0.000182753
0.000182224
0.000181638
0.000168634
0.000172547
0.000181331
0.000181884
0.000180122
0.000170301
0.000170562
0.000176666
0.000181361
0.000182349
0.000188243
0.000188408
0.000171466
0.000176517
0.000180904
0.000184503
0.000188295
0.000189766
0.000181387
0.000188381
0.000188061
0.000173702
0.000177273
0.000181483
0.000189902
0.000189054
0.000176634
0.000177301
0.000178265
0.000190009
0.000189722
0.00019168
0.000190504
0.000176907
0.00017727
0.000190219
0.000190596
0.000192332
0.000190826
0.00018992
0.000191161
0.000191941
0.00017731
0.000176675
0.000190562
0.000190726
0.00019205
0.000178332
0.000178187
0.000178534
0.000191796
0.000190614
0.000192977
0.000192978
0.000177221
0.000178593
0.000192458
0.000190656
0.000192593
0.000192211
0.000192485
0.00019269
0.000193307
0.000176491
0.000178588
0.00019235
0.000192457
0.000192947
0.000178789
0.000178409
0.000178236
0.000193016
0.000193202
0.000192458
0.000192949
0.000178521
0.000178552
0.000192484
0.00019277
0.000192048
0.000193228
0.000193237
0.000192311
0.000192182
0.000178835
0.000179136
0.000192873
0.000193454
0.000191807
0.000177583
0.000179092
0.000184663
0.000193346
0.000193938
0.000199857
0.000200173
0.000179415
0.000185001
0.000193835
0.000194677
0.000200068
0.000200171
0.000192562
0.000200325
0.000199706
0.00017966
0.00018472
0.000192312
0.000199976
0.000199715
0.000184536
0.000184847
0.000182926
0.000200792
0.000201073
0.000201188
0.000201377
0.000185164
0.000183079
0.000200943
0.000200986
0.000201181
0.000201184
0.000200768
0.000201422
0.000201408
0.000184906
0.000183008
0.000200816
0.000201369
0.000201564
0.000183256
0.000182315
0.000180017
0.000200026
0.000200152
0.000197579
0.000197667
0.000182446
0.000180028
0.000199987
0.000199978
0.000197517
0.000197524
0.000200304
0.00019768
0.00019789
0.000182394
0.000180086
0.000200519
0.000197893
0.000198191
0.000180317
0.000180435
0.000190583
0.000197041
0.000197089
0.000207111
0.000206887
0.000180387
0.000190394
0.000196998
0.000197009
0.000207183
0.000207148
0.000197308
0.000206917
0.000206927
0.000180488
0.000190527
0.000197608
0.00020712
0.000207003
0.000190413
0.000192456
0.000200741
0.000211421
0.000211225
0.000220357
0.000220245
0.000192287
0.000200655
0.000211482
0.000211428
0.000220393
0.0002203
0.000211224
0.000220276
0.000220181
0.000192389
0.000200622
0.000211258
0.000220232
0.000220152
0.000200583
0.000201175
0.000194109
0.000222516
0.000222421
0.000220156
0.00022027
0.000201099
0.000194217
0.000222547
0.000222445
0.0002201
0.000219977
0.000222353
0.000220278
0.000220209
0.000201054
0.000194016
0.000222314
0.000220034
0.000220161
0.000194161
0.000190814
0.000176492
0.000213528
0.000213632
0.000196997
0.00019705
0.00019092
0.000176548
0.00021348
0.000213376
0.000196976
0.000196919
0.00021359
0.000197071
0.000197057
0.000190736
0.000176472
0.000213562
0.000196995
0.000197066
0.000176551
0.000175141
0.000170999
0.000193377
0.000193409
0.000187549
0.000187536
0.000175185
0.000170974
0.000193368
0.000193321
0.00018756
0.000187526
0.000193431
0.000187568
0.000187588
0.000175126
0.000171
0.000193444
0.000187571
0.000187599
0.000171009
0.000171035
0.000178071
0.000186264
0.00018624
0.00019311
0.000193044
0.000170995
0.000178032
0.000186281
0.000186251
0.000193154
0.000193143
0.000186297
0.000193092
0.000193102
0.000171038
0.000178062
0.000186305
0.000193106
0.000193085
0.000178041
0.000179992
0.00019437
0.00019757
0.000197521
0.000214141
0.000214132
0.000179963
0.00019438
0.000197605
0.000197585
0.000214162
0.000214123
0.000197567
0.000214181
0.00021416
0.000179979
0.00019434
0.00019755
0.000214111
0.000214143
0.000194372
0.000197093
0.000213903
0.000220545
0.000220546
0.000239217
0.000239236
0.000197108
0.000213937
0.000220564
0.000220519
0.000239229
0.000239171
0.00022057
0.000239282
0.000239253
0.000197062
0.000213867
0.000220555
0.00023919
0.000239245
0.000213924
0.000215964
0.000225583
0.000244107
0.000244129
0.000254403
0.000254431
0.000215999
0.000225622
0.000244118
0.000244057
0.000254414
0.000254346
0.000244143
0.000254474
0.000254441
0.000215927
0.000225551
0.000244139
0.000254389
0.000254442
0.000225607
0.000224159
0.000209537
0.000256959
0.000256988
0.00024197
0.000241983
0.000224194
0.00020956
0.00025697
0.000256902
0.000241987
0.000241943
0.000256994
0.000242025
0.000241978
0.000224136
0.000209539
0.000256999
0.000242023
0.000242021
0.000209545
0.000205383
0.000188672
0.000234222
0.00023423
0.000213831
0.00021383
0.000205405
0.000188685
0.00023424
0.000234201
0.000213848
0.000213823
0.000234227
0.000213872
0.000213832
0.000205387
0.00018868
0.000234269
0.000213877
0.000213867
0.000188674
0.000186216
0.000178134
0.000208597
0.000208594
0.000198694
0.000198691
0.000186229
0.000178144
0.000208612
0.00020859
0.000198705
0.000198689
0.000208597
0.000198723
0.000198695
0.000186224
0.00017814
0.000208628
0.000198724
0.000198714
0.000178135
0.000177599
0.000177992
0.000197237
0.000197235
0.000196664
0.000196662
0.000177608
0.000178001
0.000197247
0.000197232
0.000196671
0.000196656
0.000197238
0.000196689
0.000196665
0.000177603
0.000177992
0.000197255
0.000196684
0.000196677
0.000177992
0.000178741
0.000184256
0.000197679
0.000197679
0.00020532
0.000205321
0.00017875
0.000184267
0.000197687
0.00019767
0.000205332
0.000205307
0.000197681
0.000205351
0.000205325
0.00017874
0.000184254
0.000197691
0.000205339
0.000205337
0.000184258
0.000184936
0.000187418
0.000207294
0.000207295
0.000210632
0.000210632
0.000184946
0.000187428
0.000207308
0.000207281
0.00021065
0.000210617
0.0002073
0.000210666
0.000210639
0.000184934
0.000187414
0.000207314
0.000210655
0.000210656
0.00018742
0.000187507
0.000188024
0.000211153
0.000211152
0.000211753
0.000211751
0.000187516
0.000188033
0.000211171
0.000211138
0.000211772
0.000211739
0.00021116
0.000211788
0.00021176
0.000187503
0.000188019
0.000211177
0.000211777
0.000211778
0.000188026
0.000187909
0.000188045
0.000211774
0.000211771
0.0002117
0.000211696
0.000187917
0.000188054
0.000211792
0.000211759
0.000211718
0.000211685
0.00021178
0.000211734
0.000211706
0.000187904
0.000188041
0.000211798
0.000211724
0.000211724
0.000188047
0.000187901
0.000188006
0.000211676
0.000211672
0.000211558
0.000211554
0.000187909
0.000188014
0.000211694
0.00021166
0.000211576
0.000211542
0.000211682
0.000211592
0.000211565
0.000187896
0.000188001
0.0002117
0.000211582
0.000211583
0.000188007
0.000187855
0.00018792
0.00021154
0.000211536
0.000211406
0.000211402
0.000187863
0.000187928
0.000211558
0.000211524
0.000211424
0.000211389
0.000211546
0.00021144
0.000211412
0.000187851
0.000187914
0.000211564
0.00021143
0.00021143
0.000187921
0.000187769
0.000187811
0.00021138
0.000211376
0.000211295
0.000211291
0.000187778
0.000187819
0.000211399
0.000211364
0.000211313
0.000211279
0.000211387
0.00021133
0.000211302
0.000187764
0.000187805
0.000211404
0.000211319
0.000211319
0.000187812
0.000187663
0.000187847
0.000211297
0.000211294
0.000211333
0.00021133
0.000187671
0.000187857
0.000211316
0.000211282
0.000211352
0.000211319
0.000211304
0.000211368
0.000211341
0.000187658
0.000187843
0.000211322
0.000211359
0.000211359
0.000187849
0.000187719
0.000189282
0.000211216
0.000211213
0.000213763
0.000213763
0.000187728
0.000189288
0.000211235
0.0002112
0.000213781
0.000213754
0.000211221
0.000213792
0.00021377
0.000187714
0.000189278
0.000211241
0.000213784
0.000213787
0.000189286
0.000191199
0.000212588
0.000212588
0.000191204
0.000212604
0.00021258
0.000236603
0.000236599
0.000236607
0.000212596
0.000191195
0.000212611
2.38348e-05
2.39364e-06
1.43649e-05
1.43488e-05
6.75475e-07
2.08033e-06
1.30904e-06
7.60031e-06
6.33043e-07
2.15361e-06
6.80458e-06
6.62024e-07
2.23895e-06
1.76833e-06
1.9901e-06
1.31736e-06
1.40603e-05
1.2613e-06
1.59568e-05
1.05159e-05
1.27906e-05
1.14016e-06
1.33333e-05
1.01529e-06
1.50674e-05
5.72021e-06
5.64487e-06
5.98055e-06
5.70592e-06
5.64141e-06
5.59254e-06
5.89008e-06
6.55056e-07
6.65882e-07
2.89648e-06
2.0588e-06
6.79744e-07
8.14574e-07
2.86647e-06
1.11141e-05
1.33359e-05
6.09728e-07
2.54824e-06
3.57202e-07
1.74636e-06
6.16993e-07
2.53e-06
4.70434e-07
1.50295e-06
1.50518e-06
2.2128e-06
1.70285e-06
1.70752e-06
1.47697e-06
1.94948e-05
1.43869e-06
2.201e-05
1.67693e-05
1.90045e-05
1.29831e-06
1.83157e-05
1.2278e-06
2.06958e-05
5.66501e-06
5.63377e-06
5.91192e-06
5.86575e-06
5.75109e-06