/*--------------------------------*- C++ -*----------------------------------*\
| =========                 |                                                 |
| \\      /  F ield         | OpenFOAM: The Open Source CFD Toolbox           |
|  \\    /   O peration     | Version:  v2012                                 |
|   \\  /    A nd           | Website:  www.openfoam.com                      |
|    \\/     M anipulation  |                                                 |
\*---------------------------------------------------------------------------*/
FoamFile
{
    version     2.0;
    format      ascii;
    class       volScalarField;
    location    "337.5";
    object      p;
}
// * * * * * * * * * * * * * * * * * * * * * * * * * * * * * * * * * * * * * //

dimensions      [0 2 -2 0 0 0 0];


internalField   nonuniform List<scalar> 
171728
(
0.00351882
0.00351778
0.00351776
0.00351843
0.0034833
0.00348186
0.00348193
0.0034847
0.00344507
0.00344321
0.00344327
0.00344542
0.00340089
0.00339926
0.00339918
0.00340146
0.00335258
0.00335115
0.00335102
0.00335348
0.00330372
0.00330234
0.00330236
0.00330472
0.00325562
0.00325437
0.00325435
0.00325674
0.00320839
0.00320727
0.00320726
0.00320963
0.00316201
0.003161
0.00316096
0.00316339
0.00311671
0.00311581
0.00311581
0.0031182
0.00307231
0.00307154
0.00307157
0.00307387
0.0030286
0.00302794
0.00302789
0.00303028
0.0029855
0.0029849
0.00298493
0.00298724
0.00294277
0.00294225
0.00294239
0.00294465
0.00290039
0.00289996
0.00289993
0.00290239
0.00285834
0.00285806
0.00285799
0.00286043
0.00281661
0.00281633
0.00281632
0.00281864
0.00277524
0.00277496
0.00277498
0.00277727
0.00273426
0.00273422
0.00273409
0.00273624
0.00269362
0.00269353
0.0026936
0.00269554
0.00265331
0.00265324
0.00265333
0.0026551
0.0026133
0.00261328
0.00261327
0.00261502
0.00257357
0.00257361
0.00257364
0.00257527
0.00253411
0.00253425
0.00253411
0.00253589
0.00249489
0.00249506
0.00249494
0.00249674
0.0024559
0.00245607
0.00245619
0.0024578
0.00241715
0.00241737
0.00241743
0.00241921
0.00237862
0.00237887
0.00237893
0.00238087
0.00234026
0.00234061
0.00234058
0.00234243
0.00230216
0.00230249
0.00230247
0.00230454
0.00226417
0.00226454
0.00226458
0.00226647
0.00222633
0.00222676
0.0022268
0.00222885
0.00218872
0.00218915
0.00218914
0.00219096
0.00215119
0.00215163
0.00215164
0.00215363
0.00211386
0.00211435
0.00211429
0.00211612
0.0020766
0.00207683
0.00207704
0.00207895
0.00203943
0.00203987
0.00203977
0.00204171
0.00200261
0.0020029
0.00200295
0.00200483
0.00196569
0.00196589
0.00196587
0.00196789
0.00192881
0.00192917
0.0019291
0.00193107
0.00189237
0.00189245
0.00189256
0.00189447
0.00185598
0.00185619
0.00185601
0.00185821
0.00181963
0.00181952
0.00181974
0.00182153
0.00178341
0.00178356
0.00178335
0.00178566
0.00174743
0.00174737
0.00174749
0.00174934
0.00171161
0.00171141
0.00171138
0.00171341
0.00167559
0.00167562
0.00167558
0.00167789
0.00164027
0.00163994
0.00164004
0.00164185
0.00160464
0.00160438
0.00160436
0.00160642
0.001569
0.00156893
0.00156882
0.00157094
0.00153377
0.00153344
0.00153355
0.0015356
0.00149871
0.00149842
0.00149853
0.00150046
0.00146361
0.00146339
0.00146313
0.0014652
0.00142854
0.00142815
0.00142819
0.00143022
0.00139343
0.00139325
0.00139345
0.00139533
0.00135865
0.00135845
0.00135815
0.00136032
0.0013238
0.00132333
0.00132367
0.00132539
0.00128902
0.00128886
0.00128866
0.00129072
0.00125431
0.00125417
0.00125419
0.00125613
0.00121976
0.00121936
0.00121949
0.00122129
0.00118518
0.00118502
0.00118487
0.00118695
0.00115058
0.00115046
0.0011505
0.00115233
0.00111623
0.00111584
0.00111594
0.00111781
0.00108176
0.00108161
0.00108136
0.00108335
0.0010471
0.00104696
0.00104721
0.00104896
0.00101294
0.00101281
0.00101269
0.00101477
0.000978525
0.000978208
0.000978142
0.000980025
0.000944083
0.000944033
0.000944118
0.000945925
0.000909648
0.000909536
0.000909533
0.000911471
0.000875492
0.000875322
0.000875315
0.000877297
0.000840801
0.000840562
0.000840572
0.000842473
0.000806658
0.000806638
0.000806627
0.000808522
0.000773169
0.000773224
0.000773214
0.000775144
0.000738841
0.000738327
0.000738324
0.00074016
0.000703054
0.000702794
0.000702802
0.000704716
0.000666751
0.000667302
0.000667345
0.000669521
0.00063215
0.000632596
0.000632596
0.000634761
0.000598353
0.000598456
0.000598452
0.00060037
0.000566573
0.000565918
0.000565917
0.000567507
0.000534964
0.000534368
0.00053437
0.000535955
0.000500048
0.00049963
0.000499633
0.000501498
0.000461038
0.000460771
0.000460773
0.000462951
0.000420052
0.0004209
0.000420899
0.000423485
0.000381175
0.000381819
0.000381817
0.000384282
0.00034475
0.000344827
0.000344827
0.000346907
0.000310526
0.0003103
0.0003103
0.000312058
0.000279662
0.000279468
0.000279468
0.000281087
0.000248814
0.000248784
0.000248785
0.000250555
0.000215334
0.000215319
0.000215319
0.000217262
0.000179988
0.000179973
0.000179973
0.000182006
0.000143846
0.000143829
0.000143829
0.000145892
0.000107394
0.000107378
0.000107377
0.00010944
7.08481e-05
7.08203e-05
7.08193e-05
7.28516e-05
3.50206e-05
3.44488e-05
3.44455e-05
3.6331e-05
6.2365e-06
7.1535e-06
7.15234e-06
5.43712e-06
0.00352322
0.00352084
0.00352077
0.00352324
0.00352075
0.00352093
0.00352718
0.00352716
0.00352716
0.00352715
0.00352084
0.00352071
0.00352328
0.00352081
0.00352071
0.00352317
0.00351846
0.00348948
0.00351776
0.00351774
0.00349129
0.00349126
0.00351848
0.00348943
0.00351775
0.00351779
0.00349129
0.00349127
0.00351774
0.00349122
0.00349129
0.0035185
0.00348944
0.00351774
0.00349118
0.00349125
0.00348943
0.00348476
0.00345096
0.00348191
0.00348183
0.00345319
0.00345315
0.0034847
0.00345093
0.00348185
0.00348193
0.00345313
0.00345323
0.00348189
0.00345319
0.00345316
0.00348473
0.00345091
0.00348188
0.00345309
0.00345315
0.00345091
0.00344548
0.00340766
0.00344319
0.00344317
0.00341069
0.00341073
0.00344544
0.00340764
0.00344314
0.00344323
0.00341067
0.00341081
0.00344313
0.00341074
0.00341071
0.00344544
0.00340765
0.00344314
0.00341075
0.00341071
0.00340764
0.00340147
0.00335997
0.00339931
0.00339924
0.00336339
0.0033633
0.00340146
0.00335996
0.00339925
0.00339924
0.00336328
0.00336335
0.00339925
0.00336333
0.0033633
0.00340147
0.00335998
0.00339923
0.00336331
0.0033633
0.00335996
0.00335348
0.00331117
0.00335115
0.00335115
0.00331456
0.00331452
0.00335348
0.00331118
0.00335113
0.00335101
0.00331449
0.00331438
0.00335116
0.00331451
0.00331449
0.00335347
0.00331122
0.00335116
0.00331447
0.00331449
0.00331117
0.00330471
0.00326301
0.00330224
0.00330231
0.00326626
0.00326628
0.00330473
0.00326305
0.00330233
0.0033023
0.00326625
0.00326613
0.00330233
0.00326631
0.00326632
0.00330474
0.00326297
0.00330234
0.00326637
0.00326631
0.00326304
0.00325668
0.0032158
0.00325419
0.00325437
0.00321897
0.00321899
0.00325675
0.00321582
0.00325432
0.00325418
0.00321895
0.00321897
0.00325438
0.00321898
0.00321899
0.00325666
0.00321586
0.00325436
0.00321902
0.00321899
0.00321582
0.00320962
0.00316943
0.00320718
0.00320727
0.00317245
0.00317249
0.00320963
0.00316944
0.00320726
0.00320709
0.00317245
0.00317248
0.00320729
0.00317246
0.00317248
0.00320968
0.00316945
0.00320728
0.00317248
0.00317247
0.00316944
0.00316338
0.00312412
0.00316098
0.00316101
0.00312698
0.00312702
0.0031634
0.00312411
0.00316096
0.00316096
0.00312701
0.00312703
0.00316098
0.00312704
0.003127
0.00316342
0.00312414
0.00316099
0.00312709
0.00312701
0.00312409
0.00311822
0.0030797
0.00311582
0.0031158
0.00308253
0.00308252
0.00311821
0.00307968
0.00311584
0.0031158
0.00308254
0.00308254
0.0031158
0.00308253
0.00308251
0.00311824
0.00307969
0.00311582
0.00308254
0.00308252
0.00307966
0.00307391
0.00303599
0.00307152
0.00307155
0.00303875
0.00303874
0.00307391
0.003036
0.00307153
0.00307156
0.00303877
0.00303878
0.00307151
0.00303876
0.00303877
0.0030739
0.00303602
0.00307152
0.00303882
0.00303877
0.00303598
0.00303032
0.0029929
0.00302797
0.00302795
0.00299568
0.00299567
0.00303033
0.00299289
0.00302794
0.00302793
0.00299567
0.00299563
0.00302789
0.00299563
0.00299565
0.00303032
0.00299288
0.0030279
0.0029956
0.00299564
0.00299287
0.00298727
0.00295021
0.00298492
0.00298488
0.00295296
0.00295294
0.00298728
0.00295017
0.00298495
0.00298492
0.00295295
0.00295298
0.00298486
0.00295297
0.00295295
0.00298728
0.00295025
0.00298487
0.00295299
0.00295295
0.00295021
0.00294465
0.00290783
0.00294228
0.00294229
0.00291055
0.00291065
0.00294461
0.00290783
0.00294226
0.00294239
0.00291054
0.00291066
0.00294235
0.00291059
0.0029106
0.0029447
0.00290787
0.00294234
0.00291068
0.0029106
0.00290787
0.00290234
0.00286578
0.00290003
0.00289993
0.0028685
0.00286847
0.0029023
0.00286581
0.00290004
0.0029
0.0028685
0.0028685
0.0029001
0.00286847
0.00286842
0.00290234
0.00286577
0.00290009
0.00286845
0.00286843
0.00286581
0.00286036
0.002824
0.00285804
0.00285808
0.00282676
0.00282667
0.00286039
0.00282402
0.00285803
0.00285797
0.00282673
0.00282677
0.00285813
0.00282669
0.00282665
0.00286031
0.00282399
0.00285811
0.00282676
0.00282662
0.00282396
0.00281859
0.00278251
0.00281631
0.00281633
0.00278535
0.00278544
0.00281863
0.00278248
0.0028163
0.00281633
0.00278534
0.00278538
0.00281641
0.0027854
0.00278527
0.00281861
0.00278252
0.00281641
0.00278536
0.00278528
0.00278255
0.0027772
0.00274149
0.002775
0.00277495
0.0027443
0.00274447
0.00277716
0.00274158
0.002775
0.00277496
0.00274426
0.00274436
0.00277504
0.00274438
0.0027443
0.00277719
0.00274141
0.00277504
0.00274439
0.00274429
0.00274152
0.00273625
0.00270074
0.0027341
0.00273416
0.00270361
0.00270357
0.00273632
0.00270073
0.00273409
0.00273408
0.00270359
0.00270365
0.00273412
0.00270351
0.00270361
0.00273616
0.00270069
0.00273411
0.00270365
0.00270359
0.00270073
0.00269553
0.00266019
0.00269353
0.00269348
0.0026633
0.00266329
0.00269552
0.00266016
0.00269352
0.00269357
0.00266325
0.00266321
0.00269352
0.00266322
0.00266327
0.00269554
0.00266019
0.00269353
0.0026632
0.00266326
0.00266022
0.00265507
0.0026201
0.00265322
0.00265319
0.00262325
0.00262327
0.00265504
0.00262002
0.00265322
0.00265332
0.00262321
0.00262319
0.00265317
0.00262321
0.00262325
0.00265509
0.00262001
0.00265317
0.00262312
0.00262321
0.0026201
0.00261501
0.00258035
0.00261321
0.00261323
0.00258349
0.00258359
0.00261496
0.00258026
0.00261324
0.0026133
0.00258348
0.00258345
0.00261318
0.00258356
0.00258347
0.00261493
0.00258031
0.00261318
0.00258343
0.00258347
0.00258033
0.0025753
0.00254091
0.00257352
0.0025736
0.00254401
0.00254409
0.00257527
0.00254084
0.00257353
0.00257363
0.00254401
0.00254391
0.00257352
0.00254408
0.00254402
0.00257529
0.00254083
0.00257351
0.00254391
0.00254401
0.0025409
0.00253587
0.00250174
0.00253411
0.0025343
0.0025048
0.00250474
0.00253593
0.00250167
0.00253411
0.00253413
0.00250481
0.00250486
0.00253416
0.00250477
0.00250475
0.00253576
0.00250182
0.00253415
0.00250487
0.00250473
0.0025017
0.00249674
0.00246279
0.00249496
0.00249512
0.00246583
0.00246566
0.00249678
0.00246269
0.00249496
0.00249494
0.00246584
0.00246591
0.002495
0.00246572
0.00246577
0.00249673
0.00246304
0.00249499
0.00246593
0.00246576
0.00246278
0.0024578
0.00242419
0.00245605
0.00245608
0.00242712
0.00242702
0.00245775
0.00242431
0.00245606
0.00245619
0.00242711
0.00242701
0.00245604
0.00242703
0.00242709
0.00245812
0.00242382
0.00245604
0.00242702
0.00242708
0.00242419
0.00241928
0.00238566
0.00241744
0.00241735
0.00238853
0.00238853
0.00241931
0.00238566
0.00241744
0.00241744
0.00238851
0.00238851
0.00241735
0.00238847
0.00238857
0.00241899
0.00238598
0.00241736
0.0023885
0.00238858
0.00238575
0.00238078
0.00234754
0.00237896
0.00237892
0.00235014
0.00235018
0.00238075
0.00234754
0.00237895
0.00237894
0.00235013
0.0023501
0.00237891
0.00235018
0.00235019
0.00238101
0.00234733
0.00237892
0.00235009
0.00235017
0.00234737
0.00234259
0.00230934
0.00234059
0.00234062
0.002312
0.00231199
0.00234267
0.00230923
0.00234058
0.00234061
0.002312
0.002312
0.00234062
0.00231198
0.002312
0.00234242
0.00230956
0.00234061
0.00231202
0.00231202
0.00230946
0.00230444
0.00227137
0.00230247
0.00230254
0.00227407
0.00227399
0.0023043
0.00227161
0.00230249
0.00230249
0.00227404
0.00227401
0.00230251
0.00227401
0.00227402
0.00230466
0.00227129
0.00230252
0.00227406
0.00227402
0.00227141
0.00226647
0.00223363
0.00226458
0.0022645
0.0022362
0.0022362
0.00226668
0.00223354
0.00226457
0.00226455
0.0022362
0.00223622
0.00226459
0.00223621
0.00223625
0.00226641
0.00223363
0.00226459
0.00223622
0.00223625
0.00223372
0.00222869
0.00219594
0.00222676
0.00222672
0.00219854
0.00219856
0.00222867
0.0021959
0.00222675
0.00222675
0.00219855
0.00219854
0.00222679
0.0021985
0.0021985
0.0022287
0.00219594
0.00222679
0.0021985
0.00219851
0.00219585
0.00219105
0.0021585
0.00218917
0.00218921
0.00216105
0.00216104
0.00219102
0.00215854
0.00218917
0.00218917
0.00216101
0.00216101
0.00218916
0.00216106
0.0021611
0.00219105
0.00215849
0.00218916
0.00216103
0.00216107
0.00215852
0.0021536
0.002121
0.00215166
0.00215161
0.00212358
0.00212359
0.00215367
0.00212104
0.00215163
0.00215164
0.00212361
0.00212362
0.00215169
0.00212361
0.00212357
0.0021536
0.00212098
0.00215168
0.00212362
0.0021236
0.00212101
0.00211613
0.00208385
0.00211428
0.00211431
0.00208636
0.00208628
0.00211617
0.00208367
0.00211431
0.0021143
0.00208632
0.00208633
0.00211426
0.00208623
0.00208636
0.00211611
0.00208385
0.00211427
0.00208634
0.00208631
0.00208383
0.00207894
0.00204654
0.00207703
0.0020769
0.00204906
0.00204904
0.00207881
0.00204664
0.00207699
0.002077
0.00204908
0.00204908
0.00207703
0.00204905
0.0020491
0.00207892
0.00204658
0.00207703
0.00204907
0.00204917
0.00204659
0.00204172
0.00200975
0.00203979
0.00203987
0.00201218
0.00201225
0.00204178
0.00200973
0.00203981
0.0020398
0.00201216
0.00201216
0.00203982
0.00201221
0.00201206
0.00204175
0.00200976
0.00203984
0.00201217
0.00201204
0.00200966
0.00200485
0.00197272
0.00200298
0.00200292
0.00197519
0.00197499
0.00200479
0.00197262
0.00200295
0.00200294
0.00197519
0.00197515
0.00200286
0.00197505
0.00197528
0.00200484
0.00197267
0.00200288
0.00197512
0.00197528
0.00197279
0.00196785
0.00193594
0.00196589
0.00196583
0.00193824
0.00193839
0.00196779
0.00193616
0.0019659
0.0019659
0.00193821
0.00193831
0.00196602
0.0019384
0.00193823
0.00196785
0.001936
0.00196599
0.00193827
0.00193821
0.0019359
0.00193111
0.00189941
0.00192911
0.00192916
0.00190172
0.00190161
0.00193129
0.00189921
0.00192907
0.00192914
0.00190173
0.00190166
0.00192903
0.00190158
0.00190164
0.00193114
0.00189934
0.00192906
0.00190169
0.00190165
0.00189931
0.00189453
0.0018628
0.00189254
0.00189251
0.00186508
0.00186531
0.0018944
0.00186307
0.00189259
0.00189252
0.00186508
0.00186512
0.00189252
0.00186534
0.00186529
0.00189449
0.00186281
0.0018925
0.00186512
0.00186527
0.00186303
0.00185803
0.00182664
0.00185602
0.00185612
0.00182886
0.00182861
0.0018582
0.00182632
0.001856
0.00185602
0.00182886
0.00182886
0.0018562
0.00182861
0.00182864
0.00185802
0.00182668
0.0018562
0.00182884
0.00182868
0.00182636
0.00182177
0.00179023
0.00181976
0.00181955
0.00179241
0.00179258
0.00182152
0.00179044
0.00181974
0.00181977
0.0017924
0.00179241
0.0018195
0.00179257
0.00179256
0.00182181
0.00179014
0.00181953
0.00179239
0.00179254
0.00179042
0.00178546
0.0017543
0.00178336
0.00178354
0.00175645
0.00175635
0.00178565
0.0017542
0.00178339
0.00178333
0.0017565
0.0017564
0.00178363
0.00175641
0.00175646
0.00178538
0.00175434
0.00178361
0.00175645
0.00175645
0.00175421
0.00174948
0.00171815
0.00174746
0.00174734
0.00172032
0.00172052
0.0017494
0.00171826
0.00174747
0.00174748
0.00172026
0.00172045
0.0017473
0.0017204
0.00172021
0.00174955
0.0017182
0.00174729
0.00172042
0.00172022
0.00171811
0.00171339
0.00168254
0.00171133
0.00171154
0.00168458
0.00168444
0.00171347
0.00168244
0.0017113
0.0017114
0.00168462
0.00168447
0.00171138
0.00168453
0.00168477
0.0017134
0.00168246
0.00171139
0.00168447
0.00168481
0.00168271
0.00167778
0.00164672
0.00167567
0.00167549
0.00164891
0.0016489
0.00167769
0.00164676
0.00167572
0.00167558
0.00164892
0.00164892
0.00167576
0.0016489
0.00164878
0.00167772
0.00164679
0.00167579
0.00164894
0.00164872
0.0016466
0.00164195
0.00161122
0.00163997
0.00164
0.00161328
0.00161325
0.00164198
0.00161118
0.00163993
0.00164002
0.00161322
0.00161322
0.00163985
0.00161321
0.00161321
0.001642
0.00161117
0.00163979
0.00161323
0.0016132
0.00161116
0.00160646
0.00157563
0.00160439
0.00160441
0.00157765
0.00157782
0.00160645
0.00157575
0.00160437
0.00160435
0.00157774
0.00157778
0.00160435
0.00157783
0.00157769
0.00160643
0.00157568
0.0016044
0.00157772
0.00157773
0.00157569
0.00157089
0.00154033
0.00156878
0.0015689
0.00154239
0.0015422
0.00157096
0.00154019
0.00156885
0.00156889
0.00154234
0.00154228
0.00156888
0.00154224
0.0015424
0.00157092
0.00154027
0.00156887
0.0015423
0.00154232
0.00154032
0.0015356
0.00150521
0.00153363
0.00153342
0.00150729
0.00150723
0.00153549
0.00150519
0.00153357
0.0015335
0.00150729
0.00150728
0.0015336
0.00150716
0.00150719
0.00153556
0.00150525
0.00153357
0.0015073
0.00150726
0.00150517
0.0015005
0.00146988
0.00149844
0.00149848
0.00147192
0.00147216
0.00150048
0.00147005
0.00149848
0.00149853
0.0014719
0.00147196
0.0014984
0.00147223
0.00147202
0.00150053
0.0014699
0.00149846
0.00147199
0.00147199
0.00146994
0.00146514
0.00143498
0.00146315
0.00146334
0.001437
0.00143685
0.00146533
0.00143487
0.00146314
0.00146313
0.00143703
0.00143696
0.00146322
0.00143691
0.00143699
0.00146516
0.0014349
0.00146316
0.00143688
0.00143693
0.00143491
0.00143029
0.00140003
0.00142828
0.00142812
0.00140205
0.00140201
0.00143016
0.0014
0.0014283
0.00142827
0.00140207
0.00140215
0.00142828
0.00140197
0.00140201
0.00143021
0.00140018
0.00142823
0.00140218
0.00140211
0.00140005
0.00139532
0.00136488
0.00139331
0.00139331
0.00136698
0.00136704
0.0013953
0.00136502
0.00139332
0.0013934
0.00136694
0.00136684
0.00139323
0.00136716
0.00136712
0.00139546
0.00136481
0.00139333
0.0013669
0.00136704
0.00136502
0.00136014
0.00133023
0.0013582
0.00135832
0.00133226
0.00133221
0.00136032
0.0013301
0.00135815
0.00135809
0.00133226
0.00133231
0.00135844
0.0013321
0.00133216
0.00136009
0.00133029
0.00135834
0.0013323
0.00133222
0.0013301
0.00132558
0.00129537
0.00132364
0.0013235
0.00129742
0.00129742
0.0013254
0.00129539
0.00132367
0.00132375
0.00129746
0.00129743
0.0013234
0.00129744
0.00129739
0.00132565
0.00129533
0.00132349
0.00129736
0.00129741
0.00129538
0.00129065
0.00126079
0.00128867
0.00128878
0.00126281
0.00126286
0.00129073
0.00126084
0.00128869
0.00128867
0.00126278
0.00126274
0.00128879
0.00126291
0.00126293
0.00129062
0.00126079
0.00128876
0.00126282
0.00126287
0.00126084
0.00125616
0.00122601
0.00125426
0.00125417
0.00122808
0.00122808
0.00125615
0.00122598
0.00125421
0.00125415
0.00122809
0.00122819
0.00125422
0.00122802
0.00122799
0.00125614
0.00122607
0.00125417
0.00122814
0.00122803
0.00122596
0.0012213
0.00119154
0.00121933
0.0012194
0.00119358
0.00119357
0.00122128
0.00119155
0.00121938
0.0012195
0.00119358
0.00119349
0.00121931
0.00119357
0.00119362
0.00122138
0.00119148
0.00121941
0.00119354
0.00119365
0.00119159
0.00118689
0.001157
0.00118501
0.001185
0.00115904
0.00115913
0.00118692
0.00115707
0.00118498
0.00118485
0.00115903
0.0011591
0.0011851
0.00115919
0.00115913
0.0011868
0.00115706
0.00118503
0.00115906
0.00115903
0.00115702
0.00115233
0.00112255
0.00115036
0.00115043
0.00112458
0.00112446
0.00115235
0.00112243
0.0011504
0.00115053
0.00112462
0.00112461
0.00115039
0.00112439
0.00112445
0.00115241
0.00112254
0.00115039
0.00112464
0.00112458
0.00112248
0.0011179
0.00108804
0.00111603
0.00111591
0.00109015
0.00109023
0.00111779
0.00108818
0.00111603
0.00111591
0.00109007
0.00108999
0.0011159
0.00109026
0.00109021
0.00111784
0.00108793
0.00111596
0.00108995
0.00109003
0.00108804
0.00108334
0.00105353
0.00108146
0.00108157
0.00105551
0.00105553
0.00108348
0.00105351
0.0010814
0.0010814
0.00105557
0.00105571
0.00108152
0.00105555
0.00105553
0.00108327
0.00105374
0.00108139
0.00105574
0.00105563
0.00105359
0.0010489
0.00101947
0.00104696
0.00104695
0.00102144
0.00102138
0.00104885
0.00101942
0.00104703
0.00104716
0.00102146
0.00102136
0.00104697
0.00102138
0.00102145
0.00104911
0.00101933
0.0010471
0.00102138
0.00102147
0.00101947
0.0010148
0.000984703
0.00101288
0.00101281
0.000986794
0.000986796
0.00101477
0.00098473
0.00101286
0.00101271
0.000986773
0.000986746
0.00101288
0.000986805
0.000986817
0.00101463
0.000984668
0.00101281
0.000986713
0.000986753
0.0009847
0.000980022
0.000950589
0.000978171
0.000978208
0.000952578
0.000952643
0.000980055
0.00095063
0.00097815
0.000978155
0.000952544
0.000952624
0.000978195
0.000952609
0.000952539
0.000979996
0.000950648
0.00097816
0.000952644
0.000952565
0.000950573
0.00094595
0.000916179
0.000944021
0.000944074
0.000918153
0.000918125
0.000945978
0.000916137
0.000944006
0.000944095
0.000918204
0.000918189
0.000943958
0.00091814
0.000918124
0.000946025
0.000916185
0.000944005
0.00091817
0.000918152
0.000916146
0.000911491
0.000881907
0.000909545
0.000909508
0.000883912
0.000883886
0.000911454
0.000881917
0.000909592
0.000909549
0.000883901
0.000883852
0.000909549
0.000883913
0.000883966
0.000911492
0.000881878
0.000909558
0.000883869
0.000883948
0.00088198
0.00087722
0.000847199
0.000875336
0.000875317
0.000849255
0.000849262
0.000877233
0.000847203
0.000875302
0.000875283
0.000849241
0.000849255
0.000875384
0.00084925
0.000849265
0.000877206
0.000847204
0.00087537
0.000849261
0.000849268
0.000847201
0.000842469
0.000813088
0.000840565
0.000840576
0.000814985
0.000814994
0.000842469
0.000813085
0.000840557
0.000840572
0.000814992
0.000815
0.00084057
0.000814989
0.000814971
0.000842473
0.000813081
0.000840575
0.00081498
0.000814966
0.000813062
0.000808552
0.000779778
0.000806637
0.000806641
0.000781663
0.000781652
0.000808545
0.000779774
0.000806646
0.00080665
0.000781666
0.00078166
0.000806616
0.000781658
0.000781637
0.000808543
0.000779768
0.000806608
0.000781648
0.000781624
0.000779752
0.000775165
0.000744939
0.000773227
0.000773219
0.000747131
0.000747146
0.000775165
0.000744957
0.000773226
0.000773217
0.000747127
0.000747128
0.000773207
0.000747155
0.000747154
0.000775156
0.000744951
0.000773198
0.000747147
0.000747161
0.000744965
0.000740134
0.000709594
0.000738307
0.000738322
0.000711765
0.000711774
0.000740149
0.000709599
0.000738307
0.000738309
0.000711768
0.000711775
0.000738332
0.000711771
0.000711781
0.000740146
0.000709605
0.000738341
0.000711777
0.000711789
0.000709608
0.000704702
0.000674256
0.00070279
0.000702797
0.000675994
0.000676
0.000704706
0.000674258
0.000702793
0.000702801
0.000676004
0.000676008
0.000702804
0.000675994
0.000676006
0.000704713
0.00067427
0.00070281
0.000676013
0.000675998
0.000674261
0.000669506
0.000639491
0.00066727
0.000667328
0.000641258
0.000641256
0.000669518
0.00063949
0.000667312
0.000667309
0.000641258
0.00064126
0.000667339
0.000641255
0.000641257
0.000669529
0.00063949
0.000667295
0.000641257
0.000641254
0.000639488
0.000634763
0.000604972
0.000632598
0.000632597
0.000606863
0.000606863
0.000634762
0.000604975
0.000632598
0.000632599
0.000606861
0.000606859
0.000632597
0.000606863
0.000606861
0.000634763
0.00060497
0.000632594
0.000606859
0.000606859
0.000604971
0.000600369
0.000571809
0.000598455
0.000598456
0.000573848
0.000573853
0.000600372
0.000571812
0.000598452
0.000598451
0.000573849
0.000573846
0.000598453
0.000573853
0.000573849
0.000600367
0.000571809
0.000598453
0.000573848
0.000573852
0.000571811
0.000567506
0.000540339
0.000565915
0.000565918
0.000542422
0.000542422
0.000567507
0.00054034
0.000565917
0.000565915
0.000542421
0.000542424
0.000565916
0.000542421
0.000542421
0.000567506
0.00054034
0.000565919
0.000542421
0.000542423
0.000540341
0.000535955
0.000506471
0.00053437
0.000534369
0.000508732
0.00050873
0.000535953
0.000506469
0.00053437
0.000534371
0.000508732
0.000508732
0.000534369
0.000508729
0.00050873
0.000535955
0.00050647
0.00053437
0.000508732
0.000508731
0.00050647
0.0005015
0.000468392
0.000499633
0.00049963
0.000470776
0.000470774
0.000501497
0.00046839
0.000499633
0.000499632
0.000470778
0.000470777
0.000499631
0.000470775
0.000470775
0.000501499
0.000468391
0.000499632
0.000470778
0.000470776
0.000468389
0.000462952
0.00042891
0.000460772
0.000460771
0.000430841
0.000430841
0.00046295
0.000428911
0.000460773
0.000460773
0.00043084
0.00043084
0.000460772
0.000430841
0.000430841
0.000462952
0.000428909
0.000460772
0.000430839
0.00043084
0.00042891
0.000423484
0.000389512
0.000420898
0.000420901
0.000391409
0.00039141
0.000423485
0.000389513
0.000420897
0.000420898
0.000391409
0.000391409
0.000420898
0.00039141
0.00039141
0.000423484
0.000389512
0.000420899
0.000391408
0.000391409
0.000389512
0.000384282
0.000351853
0.000381818
0.000381819
0.000353883
0.000353883
0.000384282
0.000351854
0.000381818
0.000381818
0.000353883
0.000353883
0.000381819
0.000353884
0.000353882
0.000384281
0.000351854
0.000381818
0.000353883
0.000353883
0.000351853
0.000346907
0.000316583
0.000344826
0.000344827
0.00031862
0.00031862
0.000346907
0.000316584
0.000344827
0.000344826
0.000318621
0.000318621
0.000344825
0.000318622
0.00031862
0.000346908
0.000316585
0.000344826
0.000318622
0.000318621
0.000316584
0.000312056
0.000285118
0.000310299
0.000310299
0.000286921
0.000286921
0.000312057
0.000285118
0.000310299
0.0003103
0.000286921
0.000286922
0.000310299
0.000286921
0.000286921
0.000312058
0.000285119
0.0003103
0.000286922
0.000286921
0.000285118
0.000281087
0.000254873
0.000279468
0.000279467
0.000256701
0.0002567
0.000281086
0.000254872
0.000279468
0.000279468
0.000256701
0.000256701
0.000279468
0.0002567
0.000256701
0.000281088
0.000254873
0.000279467
0.000256701
0.0002567
0.000254872
0.000250556
0.00022195
0.000248784
0.000248785
0.000223917
0.000223916
0.000250555
0.000221951
0.000248784
0.000248784
0.000223916
0.000223917
0.000248784
0.000223916
0.000223916
0.000250556
0.00022195
0.000248784
0.000223916
0.000223915
0.000221949
0.000217263
0.000186874
0.00021532
0.00021532
0.000188911
0.000188911
0.000217263
0.000186874
0.000215319
0.000215319
0.000188911
0.000188911
0.000215319
0.000188911
0.000188911
0.000217263
0.000186873
0.000215319
0.000188911
0.000188911
0.000186874
0.000182006
0.000150838
0.000179973
0.000179973
0.000152901
0.000152901
0.000182006
0.000150838
0.000179973
0.000179973
0.000152901
0.000152901
0.000179973
0.000152901
0.000152901
0.000182006
0.000150837
0.000179973
0.000152901
0.000152901
0.000150837
0.000145892
0.000114429
0.000143829
0.000143829
0.000116498
0.000116498
0.000145892
0.000114429
0.000143829
0.000143829
0.000116498
0.000116498
0.000143829
0.000116498
0.000116498
0.000145892
0.000114429
0.000143829
0.000116498
0.000116498
0.000114429
0.00010944
7.78849e-05
0.000107378
0.000107378
7.99536e-05
7.99534e-05
0.00010944
7.78857e-05
0.000107378
0.000107378
7.99532e-05
7.99527e-05
0.000107378
7.99534e-05
7.99529e-05
0.00010944
7.78839e-05
0.000107378
7.99528e-05
7.99529e-05
7.78841e-05
7.28525e-05
4.13424e-05
7.08206e-05
7.08205e-05
4.34099e-05
4.34108e-05
7.28522e-05
4.13439e-05
7.08199e-05
7.08193e-05
4.34082e-05
4.34074e-05
7.08199e-05
4.34094e-05
4.34072e-05
7.28519e-05
4.13398e-05
7.08197e-05
4.34067e-05
4.34058e-05
4.13397e-05
3.63345e-05
8.67166e-06
3.44499e-05
3.44505e-05
1.1672e-05
1.16717e-05
3.6335e-05
8.67185e-06
3.44484e-05
3.44465e-05
1.16731e-05
1.16667e-05
3.44459e-05
1.1672e-05
1.16652e-05
3.63316e-05
8.66828e-06
3.44449e-05
1.167e-05
1.16702e-05
8.66714e-06
5.44004e-06
7.15259e-06
7.15242e-06
5.44111e-06
7.15304e-06
7.14901e-06
6.23612e-06
6.23578e-06
6.23484e-06
7.14813e-06
5.43876e-06
7.15166e-06
0.00353027
0.00353285
0.00353166
0.0035316
0.0035592
0.00353273
0.00356221
0.00353299
0.00355914
0.00353281
0.00353297
0.0035623
0.00354369
0.00356541
0.00356545
0.00350276
0.0035165
0.00352034
0.00349514
0.00349336
0.00349863
0.00350292
0.00351653
0.00352032
0.0034952
0.0035188
0.0035188
0.00351881
0.00349232
0.00349232
0.00349229
0.00349235
0.00350258
0.00351429
0.00351941
0.00350997
0.00352142
0.0034996
0.00351028
0.00349327
0.00349867
0.00350258
0.0035194
0.00351416
0.00351005
0.0035215
0.00351035
0.00349968
0.00352028
0.00352027
0.00350736
0.00349964
0.00349962
0.00347535
0.00348968
0.00348935
0.00347324
0.00348693
0.00347238
0.00347556
0.00348969
0.0034894
0.00347344
0.00348329
0.00348327
0.00348333
0.0034551
0.00345511
0.00345508
0.00345514
0.00347319
0.00348812
0.00348178
0.00347241
0.00348653
0.00347374
0.00347235
0.00348696
0.00347236
0.0034732
0.00348178
0.00348814
0.00347235
0.00348653
0.00347236
0.00347375
0.00348986
0.00348989
0.00347085
0.0034741
0.0034741
0.00343313
0.00344776
0.0034485
0.00343161
0.00344649
0.00343073
0.00343312
0.00344766
0.0034485
0.00343172
0.00344507
0.00344503
0.00344511
0.00341248
0.00341248
0.00341247
0.0034125
0.00343176
0.00344727
0.00344311
0.0034327
0.00344622
0.00343223
0.00343272
0.00344659
0.0034306
0.00343176
0.00344311
0.00344732
0.00343259
0.0034462
0.00343269
0.00343225
0.00344799
0.00344799
0.00342999
0.00343197
0.00343201
0.00338664
0.00340297
0.00340443
0.0033851
0.0034023
0.00338469
0.00338663
0.00340301
0.00340441
0.0033852
0.00340091
0.00340087
0.00340093
0.0033648
0.00336481
0.0033648
0.00336485
0.00338576
0.00340291
0.0033992
0.00338741
0.00340229
0.00338584
0.00338743
0.00340215
0.00338466
0.00338575
0.00339917
0.00340292
0.00338742
0.00340228
0.00338741
0.00338581
0.00340312
0.00340312
0.00338413
0.0033853
0.00338531
0.00333757
0.00335466
0.00335596
0.00333627
0.00335427
0.00333602
0.00333749
0.00335469
0.00335599
0.00333627
0.00335259
0.00335256
0.00335263
0.00331589
0.00331589
0.00331588
0.0033159
0.00333709
0.00335467
0.00335115
0.00333891
0.0033543
0.003337
0.0033389
0.00335432
0.00333586
0.00333708
0.00335114
0.00335467
0.00333895
0.0033543
0.00333889
0.00333695
0.00335471
0.0033547
0.00333554
0.0033364
0.0033364
0.00328836
0.00330554
0.00330671
0.00328763
0.0033054
0.00328728
0.00328841
0.00330568
0.00330674
0.00328751
0.00330371
0.0033037
0.00330374
0.00326757
0.00326756
0.00326753
0.00326758
0.00328835
0.00330568
0.00330238
0.00329027
0.00330545
0.00328814
0.00329028
0.00330556
0.00328733