/*--------------------------------*- C++ -*----------------------------------*\
| =========                 |                                                 |
| \\      /  F ield         | OpenFOAM: The Open Source CFD Toolbox           |
|  \\    /   O peration     | Version:  v2012                                 |
|   \\  /    A nd           | Website:  www.openfoam.com                      |
|    \\/     M anipulation  |                                                 |
\*---------------------------------------------------------------------------*/
FoamFile
{
    version     2.0;
    format      ascii;
    class       volScalarField;
    location    "75000";
    object      p;
}
// * * * * * * * * * * * * * * * * * * * * * * * * * * * * * * * * * * * * * //

dimensions      [0 2 -2 0 0 0 0];


internalField   nonuniform List<scalar> 
171728
(
1.26989e-07
1.26923e-07
1.26923e-07
1.2707e-07
1.24078e-07
1.24001e-07
1.24001e-07
1.24132e-07
1.21919e-07
1.21893e-07
1.21893e-07
1.22002e-07
1.2009e-07
1.20083e-07
1.20083e-07
1.20178e-07
1.18434e-07
1.18434e-07
1.18434e-07
1.18524e-07
1.16882e-07
1.16884e-07
1.16884e-07
1.16969e-07
1.15398e-07
1.154e-07
1.154e-07
1.15482e-07
1.1396e-07
1.13962e-07
1.13962e-07
1.14042e-07
1.12556e-07
1.12558e-07
1.12558e-07
1.12636e-07
1.11178e-07
1.11179e-07
1.11179e-07
1.11256e-07
1.09818e-07
1.09818e-07
1.09818e-07
1.09894e-07
1.08472e-07
1.08472e-07
1.08472e-07
1.08548e-07
1.07137e-07
1.07137e-07
1.07137e-07
1.07213e-07
1.05811e-07
1.05811e-07
1.05811e-07
1.05886e-07
1.04491e-07
1.04491e-07
1.04491e-07
1.04566e-07
1.03177e-07
1.03177e-07
1.03177e-07
1.03251e-07
1.01866e-07
1.01866e-07
1.01866e-07
1.0194e-07
1.00559e-07
1.00559e-07
1.00559e-07
1.00633e-07
9.92537e-08
9.92536e-08
9.92536e-08
9.93273e-08
9.79504e-08
9.79504e-08
9.79504e-08
9.8024e-08
9.66487e-08
9.66486e-08
9.66486e-08
9.67221e-08
9.5348e-08
9.53479e-08
9.53479e-08
9.54214e-08
9.40482e-08
9.40481e-08
9.40481e-08
9.41215e-08
9.27491e-08
9.2749e-08
9.2749e-08
9.28224e-08
9.14506e-08
9.14504e-08
9.14504e-08
9.15238e-08
9.01524e-08
9.01523e-08
9.01523e-08
9.02256e-08
8.88547e-08
8.88545e-08
8.88545e-08
8.89278e-08
8.75572e-08
8.7557e-08
8.7557e-08
8.76304e-08
8.626e-08
8.62598e-08
8.62598e-08
8.63331e-08
8.49628e-08
8.49626e-08
8.49626e-08
8.50359e-08
8.36657e-08
8.36655e-08
8.36655e-08
8.37388e-08
8.23687e-08
8.23684e-08
8.23684e-08
8.24417e-08
8.10716e-08
8.10714e-08
8.10714e-08
8.11447e-08
7.97745e-08
7.97743e-08
7.97743e-08
7.98476e-08
7.84774e-08
7.84772e-08
7.84772e-08
7.85505e-08
7.71804e-08
7.71801e-08
7.71801e-08
7.72534e-08
7.58833e-08
7.58831e-08
7.58831e-08
7.59564e-08
7.45862e-08
7.4586e-08
7.4586e-08
7.46593e-08
7.32891e-08
7.32889e-08
7.32889e-08
7.33622e-08
7.19921e-08
7.19918e-08
7.19918e-08
7.20651e-08
7.0695e-08
7.06948e-08
7.06948e-08
7.07681e-08
6.93979e-08
6.93977e-08
6.93977e-08
6.9471e-08
6.81008e-08
6.81006e-08
6.81006e-08
6.81739e-08
6.68038e-08
6.68036e-08
6.68036e-08
6.68768e-08
6.55067e-08
6.55065e-08
6.55065e-08
6.55798e-08
6.42096e-08
6.42094e-08
6.42094e-08
6.42827e-08
6.29125e-08
6.29123e-08
6.29123e-08
6.29856e-08
6.16154e-08
6.16152e-08
6.16152e-08
6.16885e-08
6.03184e-08
6.03181e-08
6.03181e-08
6.03914e-08
5.90213e-08
5.9021e-08
5.9021e-08
5.90943e-08
5.77242e-08
5.7724e-08
5.7724e-08
5.77973e-08
5.64271e-08
5.64269e-08
5.64269e-08
5.65002e-08
5.513e-08
5.51298e-08
5.51298e-08
5.52031e-08
5.38329e-08
5.38327e-08
5.38327e-08
5.3906e-08
5.25358e-08
5.25356e-08
5.25356e-08
5.26089e-08
5.12388e-08
5.12385e-08
5.12385e-08
5.13118e-08
4.99417e-08
4.99415e-08
4.99415e-08
5.00148e-08
4.86446e-08
4.86444e-08
4.86444e-08
4.87177e-08
4.73475e-08
4.73473e-08
4.73473e-08
4.74206e-08
4.60504e-08
4.60502e-08
4.60502e-08
4.61235e-08
4.47534e-08
4.47532e-08
4.47532e-08
4.48264e-08
4.34563e-08
4.34561e-08
4.34561e-08
4.35294e-08
4.21592e-08
4.2159e-08
4.2159e-08
4.22323e-08
4.08621e-08
4.08619e-08
4.08619e-08
4.09352e-08
3.95651e-08
3.95648e-08
3.95648e-08
3.96381e-08
3.8268e-08
3.82678e-08
3.82678e-08
3.8341e-08
3.69709e-08
3.69707e-08
3.69707e-08
3.7044e-08
3.56738e-08
3.56736e-08
3.56736e-08
3.57469e-08
3.43767e-08
3.43765e-08
3.43765e-08
3.44498e-08
3.30796e-08
3.30794e-08
3.30794e-08
3.31527e-08
3.17826e-08
3.17823e-08
3.17823e-08
3.18556e-08
3.04855e-08
3.04853e-08
3.04853e-08
3.05585e-08
2.91884e-08
2.91882e-08
2.91882e-08
2.92615e-08
2.78913e-08
2.78911e-08
2.78911e-08
2.79644e-08
2.65942e-08
2.6594e-08
2.6594e-08
2.66673e-08
2.52971e-08
2.52969e-08
2.52969e-08
2.53702e-08
2.4e-08
2.39998e-08
2.39998e-08
2.40731e-08
2.27029e-08
2.27027e-08
2.27027e-08
2.2776e-08
2.14058e-08
2.14056e-08
2.14056e-08
2.14789e-08
2.01087e-08
2.01085e-08
2.01085e-08
2.01818e-08
1.88116e-08
1.88114e-08
1.88114e-08
1.88847e-08
1.75145e-08
1.75143e-08
1.75143e-08
1.75876e-08
1.62174e-08
1.62172e-08
1.62172e-08
1.62905e-08
1.49203e-08
1.49201e-08
1.49201e-08
1.49934e-08
1.36232e-08
1.3623e-08
1.3623e-08
1.36963e-08
1.23261e-08
1.23259e-08
1.23259e-08
1.23992e-08
1.1029e-08
1.10288e-08
1.10288e-08
1.11021e-08
9.73192e-09
9.7317e-09
9.7317e-09
9.80499e-09
8.43484e-09
8.43461e-09
8.43461e-09
8.5079e-09
7.13776e-09
7.13754e-09
7.13754e-09
7.21082e-09
5.84067e-09
5.84048e-09
5.84048e-09
5.91373e-09
4.54361e-09
4.54344e-09
4.54344e-09
4.61666e-09
3.24665e-09
3.24639e-09
3.24638e-09
3.31966e-09
1.95342e-09
1.94924e-09
1.9492e-09
2.02387e-09
6.6513e-10
7.31315e-10
7.31252e-10
6.62393e-10
1.2758e-07
1.27655e-07
1.27655e-07
1.2758e-07
1.27655e-07
1.27655e-07
1.27822e-07
1.27822e-07
1.27822e-07
1.27822e-07
1.27655e-07
1.27655e-07
1.2758e-07
1.27655e-07
1.27655e-07
1.2758e-07
1.2707e-07
1.24473e-07
1.26923e-07
1.26923e-07
1.24615e-07
1.24615e-07
1.2707e-07
1.24473e-07
1.26923e-07
1.26923e-07
1.24615e-07
1.24615e-07
1.26923e-07
1.24615e-07
1.24615e-07
1.2707e-07
1.24473e-07
1.26923e-07
1.24615e-07
1.24615e-07
1.24473e-07
1.24132e-07
1.22272e-07
1.24001e-07
1.24001e-07
1.22384e-07
1.22384e-07
1.24132e-07
1.22272e-07
1.24001e-07
1.24001e-07
1.22384e-07
1.22384e-07
1.24001e-07
1.22384e-07
1.22384e-07
1.24132e-07
1.22272e-07
1.24001e-07
1.22384e-07
1.22384e-07
1.22272e-07
1.22002e-07
1.20414e-07
1.21893e-07
1.21893e-07
1.20517e-07
1.20517e-07
1.22002e-07
1.20414e-07
1.21893e-07
1.21893e-07
1.20517e-07
1.20517e-07
1.21893e-07
1.20517e-07
1.20517e-07
1.22002e-07
1.20414e-07
1.21893e-07
1.20517e-07
1.20517e-07
1.20414e-07
1.20178e-07
1.18742e-07
1.20083e-07
1.20083e-07
1.18835e-07
1.18835e-07
1.20178e-07
1.18742e-07
1.20083e-07
1.20083e-07
1.18835e-07
1.18835e-07
1.20083e-07
1.18835e-07
1.18835e-07
1.20178e-07
1.18742e-07
1.20083e-07
1.18835e-07
1.18835e-07
1.18742e-07
1.18524e-07
1.17176e-07
1.18434e-07
1.18434e-07
1.17265e-07
1.17265e-07
1.18524e-07
1.17176e-07
1.18434e-07
1.18434e-07
1.17265e-07
1.17265e-07
1.18434e-07
1.17265e-07
1.17265e-07
1.18524e-07
1.17176e-07
1.18434e-07
1.17265e-07
1.17265e-07
1.17176e-07
1.16969e-07
1.15681e-07
1.16884e-07
1.16884e-07
1.15767e-07
1.15767e-07
1.16969e-07
1.15681e-07
1.16884e-07
1.16884e-07
1.15767e-07
1.15767e-07
1.16884e-07
1.15767e-07
1.15767e-07
1.16969e-07
1.15681e-07
1.16884e-07
1.15767e-07
1.15767e-07
1.15681e-07
1.15482e-07
1.14236e-07
1.154e-07
1.154e-07
1.14318e-07
1.14318e-07
1.15482e-07
1.14236e-07
1.154e-07
1.154e-07
1.14318e-07
1.14318e-07
1.154e-07
1.14318e-07
1.14318e-07
1.15482e-07
1.14236e-07
1.154e-07
1.14318e-07
1.14318e-07
1.14236e-07
1.14042e-07
1.12826e-07
1.13962e-07
1.13962e-07
1.12906e-07
1.12906e-07
1.14042e-07
1.12826e-07
1.13962e-07
1.13962e-07
1.12906e-07
1.12906e-07
1.13962e-07
1.12906e-07
1.12906e-07
1.14042e-07
1.12826e-07
1.13962e-07
1.12906e-07
1.12906e-07
1.12826e-07
1.12636e-07
1.11443e-07
1.12558e-07
1.12558e-07
1.11521e-07
1.11521e-07
1.12636e-07
1.11443e-07
1.12558e-07
1.12558e-07
1.11521e-07
1.11521e-07
1.12558e-07
1.11521e-07
1.11521e-07
1.12636e-07
1.11443e-07
1.12558e-07
1.11521e-07
1.11521e-07
1.11443e-07
1.11256e-07
1.1008e-07
1.11179e-07
1.11179e-07
1.10157e-07
1.10157e-07
1.11256e-07
1.1008e-07
1.11179e-07
1.11179e-07
1.10157e-07
1.10157e-07
1.11179e-07
1.10157e-07
1.10157e-07
1.11256e-07
1.1008e-07
1.11179e-07
1.10157e-07
1.10157e-07
1.1008e-07
1.09894e-07
1.08731e-07
1.09818e-07
1.09818e-07
1.08808e-07
1.08808e-07
1.09894e-07
1.08731e-07
1.09818e-07
1.09818e-07
1.08808e-07
1.08808e-07
1.09818e-07
1.08808e-07
1.08808e-07
1.09894e-07
1.08731e-07
1.09818e-07
1.08808e-07
1.08808e-07
1.08731e-07
1.08548e-07
1.07395e-07
1.08472e-07
1.08472e-07
1.0747e-07
1.0747e-07
1.08548e-07
1.07395e-07
1.08472e-07
1.08472e-07
1.0747e-07
1.0747e-07
1.08472e-07
1.0747e-07
1.0747e-07
1.08548e-07
1.07395e-07
1.08472e-07
1.0747e-07
1.0747e-07
1.07395e-07
1.07213e-07
1.06067e-07
1.07137e-07
1.07137e-07
1.06142e-07
1.06142e-07
1.07212e-07
1.06067e-07
1.07137e-07
1.07137e-07
1.06142e-07
1.06142e-07
1.07137e-07
1.06142e-07
1.06142e-07
1.07213e-07
1.06067e-07
1.07137e-07
1.06142e-07
1.06142e-07
1.06067e-07
1.05886e-07
1.04746e-07
1.05811e-07
1.05811e-07
1.04821e-07
1.04821e-07
1.05886e-07
1.04746e-07
1.05811e-07
1.05811e-07
1.04821e-07
1.04821e-07
1.05811e-07
1.04821e-07
1.04821e-07
1.05886e-07
1.04746e-07
1.05811e-07
1.04821e-07
1.04821e-07
1.04746e-07
1.04566e-07
1.03431e-07
1.04491e-07
1.04491e-07
1.03505e-07
1.03505e-07
1.04566e-07
1.03431e-07
1.04491e-07
1.04491e-07
1.03505e-07
1.03505e-07
1.04491e-07
1.03505e-07
1.03505e-07
1.04566e-07
1.03431e-07
1.04491e-07
1.03505e-07
1.03505e-07
1.03431e-07
1.03251e-07
1.0212e-07
1.03177e-07
1.03177e-07
1.02194e-07
1.02194e-07
1.03251e-07
1.0212e-07
1.03177e-07
1.03177e-07
1.02194e-07
1.02194e-07
1.03177e-07
1.02194e-07
1.02194e-07
1.03251e-07
1.0212e-07
1.03177e-07
1.02194e-07
1.02194e-07
1.0212e-07
1.0194e-07
1.00812e-07
1.01866e-07
1.01866e-07
1.00885e-07
1.00885e-07
1.0194e-07
1.00812e-07
1.01866e-07
1.01866e-07
1.00885e-07
1.00885e-07
1.01866e-07
1.00885e-07
1.00885e-07
1.0194e-07
1.00812e-07
1.01866e-07
1.00885e-07
1.00885e-07
1.00812e-07
1.00633e-07
9.9506e-08
1.00559e-07
1.00559e-07
9.95797e-08
9.95797e-08
1.00633e-07
9.9506e-08
1.00559e-07
1.00559e-07
9.95797e-08
9.95797e-08
1.00559e-07
9.95797e-08
9.95797e-08
1.00633e-07
9.9506e-08
1.00559e-07
9.95797e-08
9.95797e-08
9.9506e-08
9.93273e-08
9.82025e-08
9.92536e-08
9.92536e-08
9.8276e-08
9.8276e-08
9.93273e-08
9.82025e-08
9.92536e-08
9.92536e-08
9.8276e-08
9.82761e-08
9.92536e-08
9.82761e-08
9.82761e-08
9.93273e-08
9.82025e-08
9.92536e-08
9.82761e-08
9.82761e-08
9.82025e-08
9.80239e-08
9.69004e-08
9.79504e-08
9.79504e-08
9.69739e-08
9.69739e-08
9.80239e-08
9.69004e-08
9.79504e-08
9.79504e-08
9.69739e-08
9.69739e-08
9.79504e-08
9.69739e-08
9.69739e-08
9.8024e-08
9.69004e-08
9.79504e-08
9.69739e-08
9.69739e-08
9.69004e-08
9.67221e-08
9.55996e-08
9.66486e-08
9.66486e-08
9.5673e-08
9.5673e-08
9.67221e-08
9.55996e-08
9.66486e-08
9.66486e-08
9.5673e-08
9.5673e-08
9.66486e-08
9.5673e-08
9.5673e-08
9.67221e-08
9.55996e-08
9.66486e-08
9.5673e-08
9.5673e-08
9.55996e-08
9.54214e-08
9.42996e-08
9.53479e-08
9.53479e-08
9.4373e-08
9.4373e-08
9.54213e-08
9.42996e-08
9.53479e-08
9.53479e-08
9.4373e-08
9.4373e-08
9.53479e-08
9.4373e-08
9.4373e-08
9.54214e-08
9.42996e-08
9.53479e-08
9.4373e-08
9.4373e-08
9.42996e-08
9.41215e-08
9.30004e-08
9.40481e-08
9.40481e-08
9.30737e-08
9.30737e-08
9.41215e-08
9.30004e-08
9.40481e-08
9.40481e-08
9.30737e-08
9.30737e-08
9.40481e-08
9.30737e-08
9.30737e-08
9.41215e-08
9.30004e-08
9.40481e-08
9.30737e-08
9.30737e-08
9.30004e-08
9.28224e-08
9.17017e-08
9.2749e-08
9.2749e-08
9.1775e-08
9.1775e-08
9.28224e-08
9.17017e-08
9.2749e-08
9.2749e-08
9.1775e-08
9.1775e-08
9.2749e-08
9.1775e-08
9.1775e-08
9.28224e-08
9.17017e-08
9.2749e-08
9.1775e-08
9.1775e-08
9.17017e-08
9.15238e-08
9.04035e-08
9.14504e-08
9.14504e-08
9.04768e-08
9.04768e-08
9.15238e-08
9.04035e-08
9.14504e-08
9.14504e-08
9.04768e-08
9.04768e-08
9.14504e-08
9.04768e-08
9.04768e-08
9.15238e-08
9.04035e-08
9.14504e-08
9.04768e-08
9.04768e-08
9.04035e-08
9.02256e-08
8.91057e-08
9.01523e-08
9.01523e-08
8.91789e-08
8.91789e-08
9.02256e-08
8.91057e-08
9.01523e-08
9.01523e-08
8.91789e-08
8.91789e-08
9.01523e-08
8.91789e-08
8.91789e-08
9.02256e-08
8.91057e-08
9.01523e-08
8.91789e-08
8.91789e-08
8.91057e-08
8.89278e-08
8.78082e-08
8.88545e-08
8.88545e-08
8.78814e-08
8.78814e-08
8.89278e-08
8.78082e-08
8.88545e-08
8.88545e-08
8.78814e-08
8.78814e-08
8.88545e-08
8.78814e-08
8.78814e-08
8.89278e-08
8.78082e-08
8.88545e-08
8.78814e-08
8.78814e-08
8.78082e-08
8.76303e-08
8.65109e-08
8.7557e-08
8.7557e-08
8.65841e-08
8.65841e-08
8.76303e-08
8.65109e-08
8.7557e-08
8.7557e-08
8.65841e-08
8.65841e-08
8.7557e-08
8.65841e-08
8.65841e-08
8.76304e-08
8.65109e-08
8.7557e-08
8.65841e-08
8.65841e-08
8.65109e-08
8.63331e-08
8.52137e-08
8.62598e-08
8.62598e-08
8.52869e-08
8.52869e-08
8.63331e-08
8.52137e-08
8.62598e-08
8.62598e-08
8.52869e-08
8.52869e-08
8.62598e-08
8.52869e-08
8.52869e-08
8.63331e-08
8.52137e-08
8.62598e-08
8.52869e-08
8.52869e-08
8.52137e-08
8.50359e-08
8.39166e-08
8.49626e-08
8.49626e-08
8.39898e-08
8.39898e-08
8.50359e-08
8.39166e-08
8.49626e-08
8.49626e-08
8.39898e-08
8.39898e-08
8.49626e-08
8.39898e-08
8.39898e-08
8.50359e-08
8.39166e-08
8.49626e-08
8.39898e-08
8.39898e-08
8.39166e-08
8.37388e-08
8.26195e-08
8.36655e-08
8.36655e-08
8.26927e-08
8.26927e-08
8.37388e-08
8.26195e-08
8.36655e-08
8.36655e-08
8.26927e-08
8.26927e-08
8.36655e-08
8.26927e-08
8.26927e-08
8.37388e-08
8.26195e-08
8.36655e-08
8.26927e-08
8.26927e-08
8.26195e-08
8.24417e-08
8.13224e-08
8.23684e-08
8.23684e-08
8.13956e-08
8.13956e-08
8.24417e-08
8.13224e-08
8.23684e-08
8.23684e-08
8.13956e-08
8.13956e-08
8.23684e-08
8.13956e-08
8.13956e-08
8.24417e-08
8.13224e-08
8.23684e-08
8.13956e-08
8.13956e-08
8.13224e-08
8.11446e-08
8.00254e-08
8.10714e-08
8.10714e-08
8.00986e-08
8.00986e-08
8.11446e-08
8.00254e-08
8.10714e-08
8.10714e-08
8.00986e-08
8.00986e-08
8.10714e-08
8.00986e-08
8.00986e-08
8.11446e-08
8.00253e-08
8.10714e-08
8.00986e-08
8.00986e-08
8.00253e-08
7.98476e-08
7.87283e-08
7.97743e-08
7.97743e-08
7.88015e-08
7.88015e-08
7.98476e-08
7.87283e-08
7.97743e-08
7.97743e-08
7.88015e-08
7.88015e-08
7.97743e-08
7.88015e-08
7.88015e-08
7.98476e-08
7.87283e-08
7.97743e-08
7.88015e-08
7.88015e-08
7.87283e-08
7.85505e-08
7.74312e-08
7.84772e-08
7.84772e-08
7.75044e-08
7.75044e-08
7.85505e-08
7.74312e-08
7.84772e-08
7.84772e-08
7.75044e-08
7.75044e-08
7.84772e-08
7.75044e-08
7.75044e-08
7.85505e-08
7.74312e-08
7.84772e-08
7.75044e-08
7.75044e-08
7.74312e-08
7.72534e-08
7.61341e-08
7.71801e-08
7.71801e-08
7.62073e-08
7.62073e-08
7.72534e-08
7.61341e-08
7.71801e-08
7.71801e-08
7.62073e-08
7.62073e-08
7.71801e-08
7.62073e-08
7.62073e-08
7.72534e-08
7.61341e-08
7.71801e-08
7.62073e-08
7.62073e-08
7.61341e-08
7.59564e-08
7.48371e-08
7.58831e-08
7.58831e-08
7.49103e-08
7.49103e-08
7.59563e-08
7.48371e-08
7.58831e-08
7.58831e-08
7.49103e-08
7.49103e-08
7.58831e-08
7.49103e-08
7.49103e-08
7.59564e-08
7.48371e-08
7.58831e-08
7.49103e-08
7.49103e-08
7.48371e-08
7.46593e-08
7.354e-08
7.4586e-08
7.4586e-08
7.36132e-08
7.36132e-08
7.46593e-08
7.354e-08
7.4586e-08
7.4586e-08
7.36132e-08
7.36132e-08
7.4586e-08
7.36132e-08
7.36132e-08
7.46593e-08
7.354e-08
7.4586e-08
7.36132e-08
7.36132e-08
7.354e-08
7.33622e-08
7.22429e-08
7.32889e-08
7.32889e-08
7.23161e-08
7.23161e-08
7.33622e-08
7.22429e-08
7.32889e-08
7.32889e-08
7.23161e-08
7.23161e-08
7.32889e-08
7.23161e-08
7.23161e-08
7.33622e-08
7.22429e-08
7.32889e-08
7.23161e-08
7.23161e-08
7.22429e-08
7.20651e-08
7.09458e-08
7.19918e-08
7.19918e-08
7.1019e-08
7.1019e-08
7.20651e-08
7.09459e-08
7.19918e-08
7.19918e-08
7.1019e-08
7.1019e-08
7.19918e-08
7.1019e-08
7.1019e-08
7.20651e-08
7.09458e-08
7.19918e-08
7.1019e-08
7.1019e-08
7.09458e-08
7.07681e-08
6.96488e-08
7.06948e-08
7.06948e-08
6.9722e-08
6.9722e-08
7.07681e-08
6.96488e-08
7.06948e-08
7.06948e-08
6.9722e-08
6.9722e-08
7.06948e-08
6.9722e-08
6.9722e-08
7.07681e-08
6.96488e-08
7.06948e-08
6.9722e-08
6.9722e-08
6.96488e-08
6.9471e-08
6.83517e-08
6.93977e-08
6.93977e-08
6.84249e-08
6.84249e-08
6.9471e-08
6.83517e-08
6.93977e-08
6.93977e-08
6.84249e-08
6.84249e-08
6.93977e-08
6.84249e-08
6.84249e-08
6.9471e-08
6.83517e-08
6.93977e-08
6.84249e-08
6.84249e-08
6.83517e-08
6.81739e-08
6.70546e-08
6.81006e-08
6.81006e-08
6.71278e-08
6.71278e-08
6.81739e-08
6.70546e-08
6.81006e-08
6.81006e-08
6.71278e-08
6.71278e-08
6.81006e-08
6.71278e-08
6.71278e-08
6.81739e-08
6.70546e-08
6.81006e-08
6.71278e-08
6.71278e-08
6.70546e-08
6.68768e-08
6.57575e-08
6.68036e-08
6.68036e-08
6.58307e-08
6.58307e-08
6.68768e-08
6.57575e-08
6.68036e-08
6.68036e-08
6.58307e-08
6.58307e-08
6.68036e-08
6.58307e-08
6.58307e-08
6.68768e-08
6.57575e-08
6.68036e-08
6.58307e-08
6.58307e-08
6.57575e-08
6.55798e-08
6.44605e-08
6.55065e-08
6.55065e-08
6.45337e-08
6.45337e-08
6.55798e-08
6.44605e-08
6.55065e-08
6.55065e-08
6.45337e-08
6.45337e-08
6.55065e-08
6.45337e-08
6.45337e-08
6.55798e-08
6.44605e-08
6.55065e-08
6.45337e-08
6.45337e-08
6.44604e-08
6.42827e-08
6.31634e-08
6.42094e-08
6.42094e-08
6.32366e-08
6.32366e-08
6.42827e-08
6.31634e-08
6.42094e-08
6.42094e-08
6.32366e-08
6.32366e-08
6.42094e-08
6.32366e-08
6.32366e-08
6.42827e-08
6.31634e-08
6.42094e-08
6.32366e-08
6.32366e-08
6.31634e-08
6.29856e-08
6.18663e-08
6.29123e-08
6.29123e-08
6.19395e-08
6.19395e-08
6.29856e-08
6.18663e-08
6.29123e-08
6.29123e-08
6.19395e-08
6.19395e-08
6.29123e-08
6.19395e-08
6.19395e-08
6.29856e-08
6.18663e-08
6.29123e-08
6.19395e-08
6.19395e-08
6.18663e-08
6.16885e-08
6.05692e-08
6.16152e-08
6.16152e-08
6.06424e-08
6.06424e-08
6.16885e-08
6.05692e-08
6.16152e-08
6.16152e-08
6.06424e-08
6.06424e-08
6.16152e-08
6.06424e-08
6.06424e-08
6.16885e-08
6.05692e-08
6.16152e-08
6.06424e-08
6.06424e-08
6.05692e-08
6.03914e-08
5.92721e-08
6.03181e-08
6.03181e-08
5.93453e-08
5.93453e-08
6.03914e-08
5.92721e-08
6.03181e-08
6.03181e-08
5.93453e-08
5.93453e-08
6.03181e-08
5.93453e-08
5.93453e-08
6.03914e-08
5.92721e-08
6.03181e-08
5.93453e-08
5.93453e-08
5.92721e-08
5.90943e-08
5.7975e-08
5.9021e-08
5.9021e-08
5.80482e-08
5.80482e-08
5.90943e-08
5.7975e-08
5.9021e-08
5.9021e-08
5.80482e-08
5.80482e-08
5.9021e-08
5.80482e-08
5.80482e-08
5.90943e-08
5.7975e-08
5.9021e-08
5.80482e-08
5.80482e-08
5.7975e-08
5.77972e-08
5.66779e-08
5.7724e-08
5.7724e-08
5.67511e-08
5.67511e-08
5.77972e-08
5.66779e-08
5.7724e-08
5.7724e-08
5.67511e-08
5.67511e-08
5.7724e-08
5.67511e-08
5.67511e-08
5.77972e-08
5.66779e-08
5.7724e-08
5.67511e-08
5.67511e-08
5.66779e-08
5.65002e-08
5.53808e-08
5.64269e-08
5.64269e-08
5.54541e-08
5.54541e-08
5.65002e-08
5.53809e-08
5.64269e-08
5.64269e-08
5.54541e-08
5.54541e-08
5.64269e-08
5.54541e-08
5.54541e-08
5.65002e-08
5.53808e-08
5.64269e-08
5.54541e-08
5.54541e-08
5.53808e-08
5.52031e-08
5.40838e-08
5.51298e-08
5.51298e-08
5.4157e-08
5.4157e-08
5.52031e-08
5.40838e-08
5.51298e-08
5.51298e-08
5.4157e-08
5.4157e-08
5.51298e-08
5.4157e-08
5.4157e-08
5.52031e-08
5.40838e-08
5.51298e-08
5.4157e-08
5.4157e-08
5.40838e-08
5.3906e-08
5.27867e-08
5.38327e-08
5.38327e-08
5.28599e-08
5.28599e-08
5.3906e-08
5.27867e-08
5.38327e-08
5.38327e-08
5.28599e-08
5.28599e-08
5.38327e-08
5.28599e-08
5.28599e-08
5.3906e-08
5.27867e-08
5.38327e-08
5.28599e-08
5.28599e-08
5.27867e-08
5.26089e-08
5.14896e-08
5.25356e-08
5.25356e-08
5.15628e-08
5.15628e-08
5.26089e-08
5.14896e-08
5.25356e-08
5.25356e-08
5.15628e-08
5.15628e-08
5.25356e-08
5.15628e-08
5.15628e-08
5.26089e-08
5.14896e-08
5.25356e-08
5.15628e-08
5.15628e-08
5.14896e-08
5.13118e-08
5.01925e-08
5.12385e-08
5.12385e-08
5.02657e-08
5.02657e-08
5.13118e-08
5.01925e-08
5.12385e-08
5.12385e-08
5.02657e-08
5.02657e-08
5.12385e-08
5.02657e-08
5.02657e-08
5.13118e-08
5.01925e-08
5.12385e-08
5.02657e-08
5.02657e-08
5.01925e-08
5.00147e-08
4.88954e-08
4.99415e-08
4.99415e-08
4.89687e-08
4.89686e-08
5.00147e-08
4.88955e-08
4.99415e-08
4.99415e-08
4.89686e-08
4.89686e-08
4.99415e-08
4.89687e-08
4.89687e-08
5.00147e-08
4.88954e-08
4.99415e-08
4.89687e-08
4.89686e-08
4.88954e-08
4.87177e-08
4.75984e-08
4.86444e-08
4.86444e-08
4.76716e-08
4.76716e-08
4.87177e-08
4.75984e-08
4.86444e-08
4.86444e-08
4.76716e-08
4.76716e-08
4.86444e-08
4.76716e-08
4.76716e-08
4.87177e-08
4.75984e-08
4.86444e-08
4.76716e-08
4.76716e-08
4.75984e-08
4.74206e-08
4.63013e-08
4.73473e-08
4.73473e-08
4.63745e-08
4.63745e-08
4.74206e-08
4.63013e-08
4.73473e-08
4.73473e-08
4.63745e-08
4.63745e-08
4.73473e-08
4.63745e-08
4.63745e-08
4.74206e-08
4.63013e-08
4.73473e-08
4.63745e-08
4.63745e-08
4.63013e-08
4.61235e-08
4.50042e-08
4.60502e-08
4.60502e-08
4.50774e-08
4.50774e-08
4.61235e-08
4.50042e-08
4.60502e-08
4.60502e-08
4.50774e-08
4.50774e-08
4.60502e-08
4.50774e-08
4.50774e-08
4.61235e-08
4.50042e-08
4.60502e-08
4.50774e-08
4.50774e-08
4.50042e-08
4.48264e-08
4.37071e-08
4.47532e-08
4.47531e-08
4.37803e-08
4.37803e-08
4.48264e-08
4.37071e-08
4.47531e-08
4.47532e-08
4.37803e-08
4.37803e-08
4.47532e-08
4.37803e-08
4.37803e-08
4.48264e-08
4.37071e-08
4.47531e-08
4.37803e-08
4.37803e-08
4.37071e-08
4.35294e-08
4.24101e-08
4.34561e-08
4.34561e-08
4.24833e-08
4.24833e-08
4.35294e-08
4.24101e-08
4.34561e-08
4.34561e-08
4.24833e-08
4.24833e-08
4.34561e-08
4.24833e-08
4.24833e-08
4.35294e-08
4.24101e-08
4.34561e-08
4.24833e-08
4.24833e-08
4.24101e-08
4.22323e-08
4.1113e-08
4.2159e-08
4.2159e-08
4.11862e-08
4.11862e-08
4.22323e-08
4.1113e-08
4.2159e-08
4.2159e-08
4.11862e-08
4.11862e-08
4.2159e-08
4.11862e-08
4.11862e-08
4.22323e-08
4.1113e-08
4.2159e-08
4.11862e-08
4.11862e-08
4.1113e-08
4.09352e-08
3.98159e-08
4.08619e-08
4.08619e-08
3.98891e-08
3.98891e-08
4.09352e-08
3.98159e-08
4.08619e-08
4.08619e-08
3.98891e-08
3.98891e-08
4.08619e-08
3.98891e-08
3.98891e-08
4.09352e-08
3.98159e-08
4.08619e-08
3.98891e-08
3.98891e-08
3.98159e-08
3.96381e-08
3.85188e-08
3.95648e-08
3.95648e-08
3.8592e-08
3.8592e-08
3.96381e-08
3.85188e-08
3.95648e-08
3.95648e-08
3.8592e-08
3.8592e-08
3.95648e-08
3.8592e-08
3.8592e-08
3.96381e-08
3.85188e-08
3.95648e-08
3.8592e-08
3.8592e-08
3.85188e-08
3.8341e-08
3.72217e-08
3.82678e-08
3.82678e-08
3.72949e-08
3.72949e-08
3.8341e-08
3.72217e-08
3.82678e-08
3.82678e-08
3.72949e-08
3.72949e-08
3.82678e-08
3.72949e-08
3.72949e-08
3.8341e-08
3.72217e-08
3.82678e-08
3.72949e-08
3.72949e-08
3.72217e-08
3.7044e-08
3.59247e-08
3.69707e-08
3.69707e-08
3.59979e-08
3.59979e-08
3.7044e-08
3.59247e-08
3.69707e-08
3.69707e-08
3.59979e-08
3.59979e-08
3.69707e-08
3.59979e-08
3.59979e-08
3.7044e-08
3.59247e-08
3.69707e-08
3.59979e-08
3.59979e-08
3.59247e-08
3.57469e-08
3.46276e-08
3.56736e-08
3.56736e-08
3.47008e-08
3.47008e-08
3.57469e-08
3.46276e-08
3.56736e-08
3.56736e-08
3.47008e-08
3.47008e-08
3.56736e-08
3.47008e-08
3.47008e-08
3.57469e-08
3.46276e-08
3.56736e-08
3.47008e-08
3.47008e-08
3.46276e-08
3.44498e-08
3.33305e-08
3.43765e-08
3.43765e-08
3.34037e-08
3.34037e-08
3.44498e-08
3.33305e-08
3.43765e-08
3.43765e-08
3.34037e-08
3.34037e-08
3.43765e-08
3.34037e-08
3.34037e-08
3.44498e-08
3.33305e-08
3.43765e-08
3.34037e-08
3.34037e-08
3.33305e-08
3.31527e-08
3.20334e-08
3.30794e-08
3.30794e-08
3.21066e-08
3.21066e-08
3.31527e-08
3.20334e-08
3.30794e-08
3.30794e-08
3.21066e-08
3.21066e-08
3.30794e-08
3.21066e-08
3.21066e-08
3.31527e-08
3.20334e-08
3.30794e-08
3.21066e-08
3.21066e-08
3.20334e-08
3.18556e-08
3.07363e-08
3.17823e-08
3.17823e-08
3.08095e-08
3.08095e-08
3.18556e-08
3.07363e-08
3.17823e-08
3.17823e-08
3.08095e-08
3.08095e-08
3.17823e-08
3.08095e-08
3.08095e-08
3.18556e-08
3.07363e-08
3.17823e-08
3.08095e-08
3.08095e-08
3.07363e-08
3.05585e-08
2.94392e-08
3.04853e-08
3.04853e-08
2.95124e-08
2.95124e-08
3.05585e-08
2.94392e-08
3.04853e-08
3.04853e-08
2.95124e-08
2.95124e-08
3.04853e-08
2.95124e-08
2.95124e-08
3.05585e-08
2.94392e-08
3.04853e-08
2.95124e-08
2.95124e-08
2.94392e-08
2.92615e-08
2.81421e-08
2.91882e-08
2.91882e-08
2.82153e-08
2.82153e-08
2.92614e-08
2.81421e-08
2.91882e-08
2.91882e-08
2.82153e-08
2.82153e-08
2.91882e-08
2.82153e-08
2.82153e-08
2.92615e-08
2.81421e-08
2.91882e-08
2.82153e-08
2.82153e-08
2.81421e-08
2.79644e-08
2.6845e-08
2.78911e-08
2.78911e-08
2.69183e-08
2.69183e-08
2.79644e-08
2.68451e-08
2.78911e-08
2.78911e-08
2.69183e-08
2.69183e-08
2.78911e-08
2.69183e-08
2.69183e-08
2.79644e-08
2.6845e-08
2.78911e-08
2.69183e-08
2.69183e-08
2.6845e-08
2.66673e-08
2.5548e-08
2.6594e-08
2.6594e-08
2.56212e-08
2.56212e-08
2.66673e-08
2.5548e-08
2.6594e-08
2.6594e-08
2.56212e-08
2.56212e-08
2.6594e-08
2.56212e-08
2.56212e-08
2.66673e-08
2.5548e-08
2.6594e-08
2.56212e-08
2.56212e-08
2.5548e-08
2.53702e-08
2.42509e-08
2.52969e-08
2.52969e-08
2.43241e-08
2.43241e-08
2.53702e-08
2.42509e-08
2.52969e-08
2.52969e-08
2.43241e-08
2.43241e-08
2.52969e-08
2.43241e-08
2.43241e-08
2.53702e-08
2.42509e-08
2.52969e-08
2.43241e-08
2.43241e-08
2.42509e-08
2.40731e-08
2.29538e-08
2.39998e-08
2.39998e-08
2.3027e-08
2.3027e-08
2.40731e-08
2.29538e-08
2.39998e-08
2.39998e-08
2.3027e-08
2.3027e-08
2.39998e-08
2.3027e-08
2.3027e-08
2.40731e-08
2.29538e-08
2.39998e-08
2.3027e-08
2.3027e-08
2.29538e-08
2.2776e-08
2.16567e-08
2.27027e-08
2.27027e-08
2.17299e-08
2.17299e-08
2.2776e-08
2.16567e-08
2.27027e-08
2.27027e-08
2.17299e-08
2.17299e-08
2.27027e-08
2.17299e-08
2.17299e-08
2.2776e-08
2.16567e-08
2.27027e-08
2.17299e-08
2.17299e-08
2.16567e-08
2.14789e-08
2.03596e-08
2.14056e-08
2.14056e-08
2.04328e-08
2.04328e-08
2.14789e-08
2.03596e-08
2.14056e-08
2.14056e-08
2.04328e-08
2.04328e-08
2.14056e-08
2.04328e-08
2.04328e-08
2.14789e-08
2.03596e-08
2.14056e-08
2.04328e-08
2.04328e-08
2.03596e-08
2.01818e-08
1.90625e-08
2.01085e-08
2.01085e-08
1.91357e-08
1.91357e-08
2.01818e-08
1.90625e-08
2.01085e-08
2.01085e-08
1.91357e-08
1.91357e-08
2.01085e-08
1.91357e-08
1.91357e-08
2.01818e-08
1.90625e-08
2.01085e-08
1.91357e-08
1.91357e-08
1.90625e-08
1.88847e-08
1.77654e-08
1.88114e-08
1.88114e-08
1.78386e-08
1.78386e-08
1.88847e-08
1.77654e-08
1.88114e-08
1.88114e-08
1.78386e-08
1.78386e-08
1.88114e-08
1.78386e-08
1.78386e-08
1.88847e-08
1.77654e-08
1.88114e-08
1.78386e-08
1.78386e-08
1.77654e-08
1.75876e-08
1.64683e-08
1.75143e-08
1.75143e-08
1.65415e-08
1.65415e-08
1.75876e-08
1.64683e-08
1.75143e-08
1.75143e-08
1.65415e-08
1.65415e-08
1.75143e-08
1.65415e-08
1.65415e-08
1.75876e-08
1.64683e-08
1.75143e-08
1.65415e-08
1.65415e-08
1.64683e-08
1.62905e-08
1.51712e-08
1.62172e-08
1.62172e-08
1.52444e-08
1.52444e-08
1.62905e-08
1.51712e-08
1.62172e-08
1.62172e-08
1.52444e-08
1.52444e-08
1.62172e-08
1.52444e-08
1.52444e-08
1.62905e-08
1.51712e-08
1.62172e-08
1.52444e-08
1.52444e-08
1.51712e-08
1.49934e-08
1.38741e-08
1.49201e-08
1.49201e-08
1.39473e-08
1.39473e-08
1.49934e-08
1.38741e-08
1.49201e-08
1.49201e-08
1.39473e-08
1.39473e-08
1.49201e-08
1.39473e-08
1.39473e-08
1.49934e-08
1.38741e-08
1.49201e-08
1.39473e-08
1.39473e-08
1.38741e-08
1.36963e-08
1.2577e-08
1.3623e-08
1.3623e-08
1.26502e-08
1.26502e-08
1.36963e-08
1.2577e-08
1.3623e-08
1.3623e-08
1.26502e-08
1.26502e-08
1.3623e-08
1.26502e-08
1.26502e-08
1.36963e-08
1.2577e-08
1.3623e-08
1.26502e-08
1.26502e-08
1.2577e-08
1.23992e-08
1.12799e-08
1.23259e-08
1.23259e-08
1.13531e-08
1.13531e-08
1.23992e-08
1.12799e-08
1.23259e-08
1.23259e-08
1.13531e-08
1.13531e-08
1.23259e-08
1.13531e-08
1.13531e-08
1.23992e-08
1.12799e-08
1.23259e-08
1.13531e-08
1.13531e-08
1.12799e-08
1.11021e-08
9.98276e-09
1.10288e-08
1.10288e-08
1.0056e-08
1.0056e-08
1.11021e-08
9.98277e-09
1.10288e-08
1.10288e-08
1.0056e-08
1.0056e-08
1.10288e-08
1.0056e-08
1.0056e-08
1.11021e-08
9.98276e-09
1.10288e-08
1.0056e-08
1.0056e-08
9.98276e-09
9.80499e-09
8.68567e-09
9.7317e-09
9.7317e-09
8.75888e-09
8.75888e-09
9.80498e-09
8.68568e-09
9.7317e-09
9.7317e-09
8.75888e-09
8.75888e-09
9.7317e-09
8.75888e-09
8.75888e-09
9.80499e-09
8.68567e-09
9.7317e-09
8.75888e-09
8.75888e-09
8.68567e-09
8.5079e-09
7.38858e-09
8.43461e-09
8.43461e-09
7.46179e-09
7.46179e-09
8.50789e-09
7.38859e-09
8.43461e-09
8.43461e-09
7.46179e-09
7.46179e-09
8.43462e-09
7.46179e-09
7.46179e-09
8.5079e-09
7.38858e-09
8.43461e-09
7.46179e-09
7.46179e-09
7.38858e-09
7.21081e-09
6.0915e-09
7.13754e-09
7.13754e-09
6.1647e-09
6.1647e-09
7.2108e-09
6.0915e-09
7.13754e-09
7.13754e-09
6.1647e-09
6.1647e-09
7.13754e-09
6.1647e-09
6.16471e-09
7.21082e-09
6.09149e-09
7.13754e-09
6.1647e-09
6.1647e-09
6.09149e-09
5.91373e-09
4.7944e-09
5.84048e-09
5.84048e-09
4.86761e-09
4.86761e-09
5.91372e-09
4.79441e-09
5.84048e-09
5.84047e-09
4.86761e-09
4.86761e-09
5.84048e-09
4.86761e-09
4.86761e-09
5.91373e-09
4.7944e-09
5.84048e-09
4.86761e-09
4.86761e-09
4.7944e-09
4.61666e-09
3.49733e-09
4.54344e-09
4.54344e-09
3.5705e-09
3.5705e-09
4.61665e-09
3.49734e-09
4.54344e-09
4.54344e-09
3.5705e-09
3.5705e-09
4.54344e-09
3.5705e-09
3.5705e-09
4.61666e-09
3.49731e-09
4.54344e-09
3.5705e-09
3.5705e-09
3.49732e-09
3.31967e-09
2.20128e-09
3.24639e-09
3.24639e-09
2.27318e-09
2.27318e-09
3.31965e-09
2.20128e-09
3.24638e-09
3.24638e-09
2.27318e-09
2.27316e-09
3.24638e-09
2.27318e-09
2.27316e-09
3.31967e-09
2.20126e-09
3.24638e-09
2.27316e-09
2.27317e-09
2.20126e-09
2.02389e-09
8.66766e-10
1.94924e-09
1.94923e-09
1.02368e-09
1.02362e-09
2.02386e-09
8.66707e-10
1.94925e-09
1.94919e-09
1.02385e-09
1.02357e-09
1.94921e-09
1.02377e-09
1.02357e-09
2.02387e-09
8.66684e-10
1.94923e-09
1.02367e-09
1.02381e-09
8.66721e-10
6.62442e-10
7.31223e-10
7.31176e-10
6.62397e-10
7.31343e-10
7.3114e-10
6.65112e-10
6.65099e-10
6.65114e-10
7.31157e-10
6.62406e-10
7.31292e-10
1.28321e-07
1.28932e-07
1.28605e-07
1.28605e-07
1.30333e-07
1.2919e-07
1.31718e-07
1.28825e-07
1.30333e-07
1.2919e-07
1.28825e-07
1.31718e-07
1.29486e-07
1.32153e-07
1.32153e-07
1.25686e-07
1.26938e-07
1.26953e-07
1.25649e-07
1.26876e-07
1.25633e-07
1.25686e-07
1.26938e-07
1.26953e-07
1.25649e-07
1.26989e-07
1.26989e-07
1.26989e-07
1.2471e-07
1.2471e-07
1.2471e-07
1.2471e-07
1.25747e-07
1.26993e-07
1.26965e-07
1.26063e-07
1.27028e-07
1.25697e-07
1.26114e-07
1.26877e-07
1.25633e-07
1.25747e-07
1.26965e-07
1.26993e-07
1.26063e-07
1.27028e-07
1.26114e-07
1.25697e-07
1.2701e-07
1.2701e-07
1.25867e-07
1.25682e-07
1.25682e-07
1.23251e-07
1.24058e-07
1.24078e-07
1.23237e-07
1.24052e-07
1.23232e-07
1.23251e-07
1.24058e-07
1.24078e-07
1.23237e-07
1.24078e-07
1.24078e-07
1.24078e-07
1.22418e-07
1.22418e-07
1.22418e-07
1.22418e-07