/*--------------------------------*- C++ -*----------------------------------*\
| =========                 |                                                 |
| \\      /  F ield         | OpenFOAM: The Open Source CFD Toolbox           |
|  \\    /   O peration     | Version:  v2012                                 |
|   \\  /    A nd           | Website:  www.openfoam.com                      |
|    \\/     M anipulation  |                                                 |
\*---------------------------------------------------------------------------*/
FoamFile
{
    version     2.0;
    format      ascii;
    class       volScalarField;
    location    "0.29";
    object      p;
}
// * * * * * * * * * * * * * * * * * * * * * * * * * * * * * * * * * * * * * //

dimensions      [0 2 -2 0 0 0 0];


internalField   nonuniform List<scalar> 
247104
(
1.86411e-06
1.86408e-06
1.86421e-06
1.86416e-06
1.86405e-06
1.86418e-06
1.86419e-06
1.864e-06
1.86407e-06
1.86413e-06
1.86419e-06
1.86402e-06
1.86392e-06
1.86405e-06
1.8642e-06
1.8641e-06
1.86421e-06
1.86419e-06
1.86388e-06
1.86351e-06
1.86336e-06
1.86355e-06
1.86393e-06
1.86421e-06
1.86421e-06
1.86416e-06
1.86402e-06
1.86351e-06
1.86302e-06
1.86284e-06
1.86307e-06
1.86358e-06
1.86407e-06
1.86415e-06
1.8641e-06
1.86405e-06
1.86392e-06
1.86336e-06
1.86284e-06
1.86266e-06
1.86289e-06
1.86344e-06
1.86397e-06
1.86403e-06
1.86418e-06
1.86405e-06
1.86355e-06
1.86307e-06
1.86289e-06
1.86311e-06
1.86362e-06
1.86409e-06
1.86418e-06
1.8642e-06
1.8642e-06
1.86393e-06
1.86358e-06
1.86344e-06
1.86362e-06
1.86397e-06
1.86421e-06
1.8642e-06
1.86401e-06
1.8641e-06
1.86421e-06
1.86407e-06
1.86397e-06
1.86409e-06
1.86421e-06
1.86407e-06
1.86421e-06
1.86415e-06
1.86402e-06
1.86418e-06
1.86419e-06
1.8307e-06
1.82868e-06
1.82823e-06
1.82704e-06
1.82704e-06
1.82696e-06
1.82697e-06
1.82825e-06
1.82857e-06
1.82822e-06
1.82617e-06
1.82343e-06
1.82339e-06
1.82339e-06
1.82343e-06
1.82656e-06
1.82679e-06
1.82703e-06
1.82343e-06
1.82337e-06
1.82343e-06
1.82343e-06
1.82337e-06
1.82343e-06
1.82695e-06
1.82807e-06
1.8307e-06
1.82704e-06
1.82339e-06
1.82343e-06
1.82353e-06
1.82353e-06
1.82343e-06
1.82339e-06
1.82691e-06
1.82854e-06
1.82869e-06
1.82696e-06
1.82339e-06
1.82343e-06
1.82353e-06
1.82353e-06
1.82343e-06
1.82339e-06
1.82709e-06
1.82705e-06
1.82697e-06
1.82343e-06
1.82337e-06
1.82343e-06
1.82343e-06
1.82337e-06
1.82343e-06
1.82686e-06
1.82794e-06
1.82825e-06
1.82657e-06
1.82343e-06
1.82339e-06
1.82339e-06
1.82343e-06
1.82675e-06
1.82696e-06
1.82839e-06
1.82857e-06
1.82679e-06
1.82695e-06
1.82691e-06
1.82709e-06
1.82686e-06
1.82696e-06
1.82882e-06
1.82808e-06
1.82854e-06
1.82705e-06
1.82794e-06
1.82838e-06
1.81059e-06
1.8104e-06
1.81024e-06
1.80809e-06
1.80801e-06
1.80798e-06
1.80808e-06
1.81023e-06
1.81047e-06
1.81024e-06
1.80737e-06
1.80439e-06
1.8043e-06
1.8043e-06
1.80439e-06
1.80794e-06
1.80854e-06
1.8081e-06
1.80438e-06
1.80408e-06
1.80411e-06
1.80411e-06
1.80408e-06
1.80439e-06
1.80875e-06
1.81073e-06
1.81059e-06
1.80801e-06
1.8043e-06
1.8041e-06
1.80413e-06
1.80413e-06
1.80411e-06
1.8043e-06
1.8088e-06
1.81047e-06
1.81041e-06
1.80798e-06
1.8043e-06
1.8041e-06
1.80413e-06
1.80413e-06
1.80411e-06
1.80431e-06
1.80874e-06
1.80865e-06
1.80808e-06
1.80439e-06
1.80408e-06
1.80411e-06
1.80411e-06
1.80408e-06
1.80439e-06
1.80881e-06
1.81081e-06
1.81023e-06
1.80794e-06
1.80439e-06
1.8043e-06
1.8043e-06
1.80439e-06
1.80841e-06
1.80869e-06
1.81071e-06
1.81047e-06
1.80854e-06
1.80875e-06
1.8088e-06
1.80874e-06
1.80881e-06
1.80869e-06
1.81062e-06
1.81073e-06
1.81047e-06
1.80865e-06
1.81081e-06
1.81071e-06
1.79148e-06
1.79131e-06
1.79118e-06
1.78897e-06
1.78888e-06
1.78879e-06
1.78898e-06
1.79115e-06
1.79141e-06
1.79118e-06
1.78819e-06
1.78524e-06
1.7852e-06
1.7852e-06
1.78524e-06
1.78876e-06
1.78952e-06
1.78897e-06
1.78525e-06
1.7851e-06
1.78511e-06
1.78511e-06
1.7851e-06
1.78525e-06
1.78968e-06
1.79164e-06
1.79149e-06
1.78889e-06
1.7852e-06
1.78511e-06
1.78511e-06
1.78511e-06
1.78511e-06
1.7852e-06
1.78974e-06
1.79136e-06
1.79131e-06
1.78879e-06
1.7852e-06
1.78511e-06
1.78511e-06
1.78511e-06
1.78511e-06
1.7852e-06
1.78971e-06
1.78961e-06
1.78899e-06
1.78524e-06
1.78511e-06
1.78511e-06
1.78511e-06
1.7851e-06
1.78525e-06
1.78973e-06
1.79169e-06
1.79115e-06
1.78876e-06
1.78525e-06
1.7852e-06
1.7852e-06
1.78525e-06
1.78948e-06
1.78965e-06
1.79165e-06
1.79141e-06
1.78952e-06
1.78968e-06
1.78975e-06
1.78972e-06
1.78973e-06
1.78965e-06
1.79166e-06
1.79164e-06
1.79136e-06
1.78961e-06
1.79169e-06
1.79165e-06
1.77233e-06
1.77216e-06
1.772e-06
1.76978e-06
1.76969e-06
1.76957e-06
1.76979e-06
1.77197e-06
1.77222e-06
1.77199e-06
1.769e-06
1.76605e-06
1.76603e-06
1.76603e-06
1.76605e-06
1.76953e-06
1.77035e-06
1.76978e-06
1.76605e-06
1.76601e-06
1.766e-06
1.766e-06
1.76601e-06
1.76605e-06
1.77052e-06
1.77248e-06
1.77233e-06
1.76969e-06
1.76603e-06
1.76601e-06
1.76601e-06
1.76601e-06
1.76601e-06
1.76603e-06
1.77063e-06
1.77223e-06
1.77216e-06
1.76957e-06
1.76603e-06
1.76601e-06
1.76601e-06
1.76601e-06
1.76601e-06
1.76603e-06
1.77061e-06
1.77049e-06
1.76979e-06
1.76605e-06
1.76601e-06
1.76601e-06
1.76601e-06
1.76601e-06
1.76605e-06
1.77059e-06
1.77256e-06
1.77197e-06
1.76953e-06
1.76605e-06
1.76603e-06
1.76603e-06
1.76605e-06
1.77039e-06
1.77051e-06
1.77248e-06
1.77222e-06
1.77035e-06
1.77052e-06
1.77063e-06
1.77061e-06
1.77059e-06
1.77051e-06
1.77246e-06
1.77248e-06
1.77223e-06
1.77049e-06
1.77256e-06
1.77248e-06
1.75316e-06
1.75299e-06
1.75282e-06
1.7506e-06
1.75051e-06
1.75039e-06
1.7506e-06
1.75279e-06
1.75304e-06
1.75281e-06
1.74983e-06
1.74686e-06
1.74686e-06
1.74686e-06
1.74686e-06
1.75033e-06
1.75117e-06
1.7506e-06
1.74686e-06
1.74685e-06
1.74685e-06
1.74685e-06
1.74685e-06
1.74686e-06
1.75134e-06
1.7533e-06
1.75317e-06
1.75051e-06
1.74686e-06
1.74685e-06
1.74685e-06
1.74685e-06
1.74685e-06
1.74686e-06
1.75147e-06
1.75308e-06
1.75299e-06
1.75039e-06
1.74686e-06
1.74685e-06
1.74685e-06
1.74685e-06
1.74685e-06
1.74686e-06
1.75145e-06
1.75133e-06
1.75061e-06
1.74686e-06
1.74685e-06
1.74685e-06
1.74685e-06
1.74685e-06
1.74686e-06
1.75142e-06
1.7534e-06
1.75279e-06
1.75033e-06
1.74686e-06
1.74686e-06
1.74686e-06
1.74686e-06
1.75124e-06
1.75135e-06
1.7533e-06
1.75304e-06
1.75117e-06
1.75134e-06
1.75146e-06
1.75145e-06
1.75142e-06
1.75135e-06
1.75327e-06
1.7533e-06
1.75308e-06
1.75133e-06
1.7534e-06
1.75331e-06
1.73399e-06
1.73382e-06
1.73364e-06
1.73143e-06
1.73133e-06
1.73122e-06
1.73143e-06
1.73362e-06
1.73387e-06
1.73364e-06
1.73065e-06
1.72769e-06
1.72769e-06
1.72769e-06
1.72769e-06
1.73115e-06
1.732e-06
1.73143e-06
1.72769e-06
1.72769e-06
1.72769e-06
1.72769e-06
1.72769e-06
1.72769e-06
1.73217e-06
1.73413e-06
1.73399e-06
1.73133e-06
1.72769e-06
1.72769e-06
1.72769e-06
1.72769e-06
1.72769e-06
1.72769e-06
1.73229e-06
1.73391e-06
1.73382e-06
1.73122e-06
1.72769e-06
1.72769e-06
1.72769e-06
1.72769e-06
1.72769e-06
1.72769e-06
1.73228e-06
1.73216e-06
1.73143e-06
1.72769e-06
1.72769e-06
1.72769e-06
1.72769e-06
1.72769e-06
1.72769e-06
1.73225e-06
1.73423e-06
1.73362e-06
1.73115e-06
1.72769e-06
1.72769e-06
1.72769e-06
1.72769e-06
1.73207e-06
1.73218e-06
1.73413e-06
1.73387e-06
1.732e-06
1.73217e-06
1.73229e-06
1.73228e-06
1.73225e-06
1.73218e-06
1.7341e-06
1.73413e-06
1.73391e-06
1.73216e-06
1.73423e-06
1.73413e-06
1.71482e-06
1.71465e-06
1.71447e-06
1.71226e-06
1.71216e-06
1.71205e-06
1.71226e-06
1.71445e-06
1.7147e-06
1.71447e-06
1.71148e-06
1.70852e-06
1.70852e-06
1.70852e-06
1.70852e-06
1.71198e-06
1.71283e-06
1.71226e-06
1.70852e-06
1.70852e-06
1.70852e-06
1.70852e-06
1.70852e-06
1.70852e-06
1.713e-06
1.71496e-06
1.71482e-06
1.71216e-06
1.70852e-06
1.70852e-06
1.70852e-06
1.70852e-06
1.70852e-06
1.70852e-06
1.71312e-06
1.71474e-06
1.71465e-06
1.71205e-06
1.70852e-06
1.70852e-06
1.70852e-06
1.70852e-06
1.70852e-06
1.70852e-06
1.71311e-06
1.71299e-06
1.71226e-06
1.70852e-06
1.70852e-06
1.70852e-06
1.70852e-06
1.70852e-06
1.70852e-06
1.71308e-06
1.71506e-06
1.71445e-06
1.71198e-06
1.70852e-06
1.70852e-06
1.70852e-06
1.70852e-06
1.7129e-06
1.71301e-06
1.71496e-06
1.7147e-06
1.71283e-06
1.713e-06
1.71312e-06
1.71311e-06
1.71308e-06
1.71301e-06
1.71493e-06
1.71496e-06
1.71474e-06
1.71299e-06
1.71506e-06
1.71496e-06
1.69565e-06
1.69548e-06
1.6953e-06
1.69309e-06
1.69299e-06
1.69288e-06
1.69309e-06
1.69528e-06
1.69553e-06
1.6953e-06
1.69231e-06
1.68935e-06
1.68935e-06
1.68935e-06
1.68935e-06
1.69281e-06
1.69366e-06
1.69309e-06
1.68935e-06
1.68935e-06
1.68935e-06
1.68935e-06
1.68935e-06
1.68935e-06
1.69383e-06
1.69579e-06
1.69565e-06
1.69299e-06
1.68935e-06
1.68935e-06
1.68935e-06
1.68935e-06
1.68935e-06
1.68935e-06
1.69395e-06
1.69557e-06
1.69548e-06
1.69288e-06
1.68935e-06
1.68935e-06
1.68935e-06
1.68935e-06
1.68935e-06
1.68935e-06
1.69394e-06
1.69382e-06
1.69309e-06
1.68935e-06
1.68935e-06
1.68935e-06
1.68935e-06
1.68935e-06
1.68935e-06
1.69391e-06
1.69589e-06
1.69528e-06
1.69281e-06
1.68935e-06
1.68935e-06
1.68935e-06
1.68935e-06
1.69373e-06
1.69384e-06
1.69579e-06
1.69553e-06
1.69366e-06
1.69383e-06
1.69395e-06
1.69394e-06
1.69391e-06
1.69384e-06
1.69576e-06
1.69579e-06
1.69557e-06
1.69382e-06
1.69589e-06
1.69579e-06
1.67648e-06
1.67631e-06
1.67613e-06
1.67392e-06
1.67382e-06
1.67371e-06
1.67392e-06
1.67611e-06
1.67635e-06
1.67613e-06
1.67314e-06
1.67018e-06
1.67018e-06
1.67018e-06
1.67018e-06
1.67364e-06
1.67448e-06
1.67392e-06
1.67018e-06
1.67018e-06
1.67018e-06
1.67018e-06
1.67018e-06
1.67018e-06
1.67466e-06
1.67661e-06
1.67648e-06
1.67382e-06
1.67018e-06
1.67018e-06
1.67018e-06
1.67018e-06
1.67018e-06
1.67018e-06
1.67478e-06
1.6764e-06
1.67631e-06
1.67371e-06
1.67018e-06
1.67018e-06
1.67018e-06
1.67018e-06
1.67018e-06
1.67018e-06
1.67477e-06
1.67465e-06
1.67392e-06
1.67018e-06
1.67018e-06
1.67018e-06
1.67018e-06
1.67018e-06
1.67018e-06
1.67474e-06
1.67672e-06
1.67611e-06
1.67364e-06
1.67018e-06
1.67018e-06
1.67018e-06
1.67018e-06
1.67456e-06
1.67467e-06
1.67662e-06
1.67636e-06
1.67449e-06
1.67465e-06
1.67478e-06
1.67477e-06
1.67473e-06
1.67467e-06
1.67659e-06
1.67662e-06
1.6764e-06
1.67465e-06
1.67672e-06
1.67662e-06
1.65731e-06
1.65714e-06
1.65696e-06
1.65474e-06
1.65465e-06
1.65454e-06
1.65475e-06
1.65694e-06
1.65718e-06
1.65696e-06
1.65397e-06
1.651e-06
1.651e-06
1.651e-06
1.65101e-06
1.65447e-06
1.65531e-06
1.65474e-06
1.651e-06
1.651e-06
1.651e-06
1.651e-06
1.651e-06
1.651e-06
1.65548e-06
1.65744e-06
1.65731e-06
1.65465e-06
1.651e-06
1.651e-06
1.651e-06
1.651e-06
1.651e-06
1.651e-06
1.65561e-06
1.65723e-06
1.65714e-06
1.65454e-06
1.651e-06
1.651e-06
1.651e-06
1.651e-06
1.651e-06
1.651e-06
1.6556e-06
1.65548e-06
1.65475e-06
1.651e-06
1.651e-06
1.651e-06
1.651e-06
1.651e-06
1.651e-06
1.65557e-06
1.65755e-06
1.65694e-06
1.65447e-06
1.651e-06
1.651e-06
1.651e-06
1.651e-06
1.65539e-06
1.6555e-06
1.65745e-06
1.65718e-06
1.65532e-06
1.65548e-06
1.65561e-06
1.6556e-06
1.65556e-06
1.6555e-06
1.65742e-06
1.65745e-06
1.65723e-06
1.65548e-06
1.65755e-06
1.65745e-06
1.63814e-06
1.63797e-06
1.63778e-06
1.63557e-06
1.63548e-06
1.63536e-06
1.63557e-06
1.63777e-06
1.63801e-06
1.63778e-06
1.6348e-06
1.63183e-06
1.63183e-06
1.63183e-06
1.63183e-06
1.6353e-06
1.63614e-06
1.63557e-06
1.63183e-06
1.63183e-06
1.63183e-06
1.63183e-06
1.63183e-06
1.63183e-06
1.63631e-06
1.63827e-06
1.63814e-06
1.63548e-06
1.63183e-06
1.63183e-06
1.63183e-06
1.63183e-06
1.63183e-06
1.63183e-06
1.63644e-06
1.63805e-06
1.63797e-06
1.63536e-06
1.63183e-06
1.63183e-06
1.63183e-06
1.63183e-06
1.63183e-06
1.63183e-06
1.63643e-06
1.6363e-06
1.63557e-06
1.63183e-06
1.63183e-06
1.63183e-06
1.63183e-06
1.63183e-06
1.63183e-06
1.63639e-06
1.63838e-06
1.63777e-06
1.6353e-06
1.63183e-06
1.63183e-06
1.63183e-06
1.63183e-06
1.63622e-06
1.63633e-06
1.63828e-06
1.63801e-06
1.63614e-06
1.63631e-06
1.63644e-06
1.63643e-06
1.63639e-06
1.63633e-06
1.63825e-06
1.63827e-06
1.63805e-06
1.6363e-06
1.63838e-06
1.63828e-06
1.61897e-06
1.6188e-06
1.61861e-06
1.6164e-06
1.61631e-06
1.61619e-06
1.6164e-06
1.61859e-06
1.61884e-06
1.61861e-06
1.61563e-06
1.61266e-06
1.61266e-06
1.61266e-06
1.61266e-06
1.61613e-06
1.61697e-06
1.6164e-06
1.61266e-06
1.61266e-06
1.61266e-06
1.61266e-06
1.61266e-06
1.61266e-06
1.61714e-06
1.6191e-06
1.61897e-06
1.61631e-06
1.61266e-06
1.61266e-06
1.61266e-06
1.61266e-06
1.61266e-06
1.61266e-06
1.61727e-06
1.61888e-06
1.6188e-06
1.61619e-06
1.61266e-06
1.61266e-06
1.61266e-06
1.61266e-06
1.61266e-06
1.61266e-06
1.61726e-06
1.61713e-06
1.6164e-06
1.61266e-06
1.61266e-06
1.61266e-06
1.61266e-06
1.61266e-06
1.61266e-06
1.61722e-06
1.61921e-06
1.61859e-06
1.61613e-06
1.61266e-06
1.61266e-06
1.61266e-06
1.61266e-06
1.61705e-06
1.61716e-06
1.61911e-06
1.61884e-06
1.61697e-06
1.61714e-06
1.61727e-06
1.61726e-06
1.61722e-06
1.61716e-06
1.61908e-06
1.6191e-06
1.61888e-06
1.61713e-06
1.61921e-06
1.61911e-06
1.5998e-06
1.59963e-06
1.59944e-06
1.59723e-06
1.59713e-06
1.59702e-06
1.59723e-06
1.59942e-06
1.59967e-06
1.59944e-06
1.59646e-06
1.59349e-06
1.59349e-06
1.59349e-06
1.59349e-06
1.59696e-06
1.5978e-06
1.59723e-06
1.59349e-06
1.59349e-06
1.59349e-06
1.59349e-06
1.59349e-06
1.59349e-06
1.59797e-06
1.59993e-06
1.5998e-06
1.59713e-06
1.59349e-06
1.59349e-06
1.59349e-06
1.59349e-06
1.59349e-06
1.59349e-06
1.5981e-06
1.59971e-06
1.59963e-06
1.59702e-06
1.59349e-06
1.59349e-06
1.59349e-06
1.59349e-06
1.59349e-06
1.59349e-06
1.59809e-06
1.59796e-06
1.59723e-06
1.59349e-06
1.59349e-06
1.59349e-06
1.59349e-06
1.59349e-06
1.59349e-06
1.59805e-06
1.60004e-06
1.59942e-06
1.59696e-06
1.59349e-06
1.59349e-06
1.59349e-06
1.59349e-06
1.59788e-06
1.59799e-06
1.59994e-06
1.59967e-06
1.5978e-06
1.59797e-06
1.5981e-06
1.59809e-06
1.59805e-06
1.59799e-06
1.59991e-06
1.59993e-06
1.59971e-06
1.59796e-06
1.60004e-06
1.59994e-06
1.58063e-06
1.58046e-06
1.58027e-06
1.57806e-06
1.57796e-06
1.57785e-06
1.57806e-06
1.58025e-06
1.5805e-06
1.58027e-06
1.57729e-06
1.57432e-06
1.57432e-06
1.57432e-06
1.57432e-06
1.57779e-06
1.57863e-06
1.57806e-06
1.57432e-06
1.57432e-06
1.57432e-06
1.57432e-06
1.57432e-06
1.57432e-06
1.5788e-06
1.58076e-06
1.58063e-06
1.57796e-06
1.57432e-06
1.57432e-06
1.57432e-06
1.57432e-06
1.57432e-06
1.57432e-06
1.57893e-06
1.58054e-06
1.58046e-06
1.57785e-06
1.57432e-06
1.57432e-06
1.57432e-06
1.57432e-06
1.57432e-06
1.57432e-06
1.57892e-06
1.57879e-06
1.57806e-06
1.57432e-06
1.57432e-06
1.57432e-06
1.57432e-06
1.57432e-06
1.57432e-06
1.57888e-06
1.58087e-06
1.58025e-06
1.57778e-06
1.57432e-06
1.57432e-06
1.57432e-06
1.57432e-06
1.5787e-06
1.57881e-06
1.58076e-06
1.5805e-06
1.57863e-06
1.5788e-06
1.57893e-06
1.57892e-06
1.57888e-06
1.57882e-06
1.58073e-06
1.58076e-06
1.58054e-06
1.57879e-06
1.58087e-06
1.58077e-06
1.56145e-06
1.56128e-06
1.5611e-06
1.55889e-06
1.55879e-06
1.55868e-06
1.55889e-06
1.56108e-06
1.56133e-06
1.5611e-06
1.55811e-06
1.55515e-06
1.55515e-06
1.55515e-06
1.55515e-06
1.55861e-06
1.55946e-06
1.55889e-06
1.55515e-06
1.55515e-06
1.55515e-06
1.55515e-06
1.55515e-06
1.55515e-06
1.55963e-06
1.56159e-06
1.56145e-06
1.55879e-06
1.55515e-06
1.55515e-06
1.55515e-06
1.55515e-06
1.55515e-06
1.55515e-06
1.55975e-06
1.56137e-06
1.56128e-06
1.55868e-06
1.55515e-06
1.55515e-06
1.55515e-06
1.55515e-06
1.55515e-06
1.55515e-06
1.55974e-06
1.55962e-06
1.55889e-06
1.55515e-06
1.55515e-06
1.55515e-06
1.55515e-06
1.55515e-06
1.55515e-06
1.55971e-06
1.56169e-06
1.56108e-06
1.55861e-06
1.55515e-06
1.55515e-06
1.55515e-06
1.55515e-06
1.55953e-06
1.55964e-06
1.56159e-06
1.56133e-06
1.55946e-06
1.55963e-06
1.55975e-06
1.55974e-06
1.55971e-06
1.55964e-06
1.56156e-06
1.56159e-06
1.56137e-06
1.55962e-06
1.56169e-06
1.56159e-06
1.54228e-06
1.54211e-06
1.54192e-06
1.53971e-06
1.53962e-06
1.5395e-06
1.53971e-06
1.5419e-06
1.54215e-06
1.54192e-06
1.53894e-06
1.53597e-06
1.53597e-06
1.53597e-06
1.53597e-06
1.53944e-06
1.54028e-06
1.53971e-06
1.53597e-06
1.53597e-06
1.53597e-06
1.53597e-06
1.53597e-06
1.53597e-06
1.54045e-06
1.54241e-06
1.54228e-06
1.53962e-06
1.53597e-06
1.53597e-06
1.53597e-06
1.53597e-06
1.53597e-06
1.53597e-06
1.54058e-06
1.54219e-06
1.54211e-06
1.5395e-06
1.53597e-06
1.53597e-06
1.53597e-06
1.53597e-06
1.53597e-06
1.53597e-06
1.54057e-06
1.54044e-06
1.53971e-06
1.53597e-06
1.53597e-06
1.53597e-06
1.53597e-06
1.53597e-06
1.53597e-06
1.54053e-06
1.54252e-06
1.54191e-06
1.53944e-06
1.53597e-06
1.53597e-06
1.53597e-06
1.53597e-06
1.54036e-06
1.54047e-06
1.54242e-06
1.54215e-06
1.54028e-06
1.54045e-06
1.54058e-06
1.54057e-06
1.54053e-06
1.54047e-06
1.54239e-06
1.54241e-06
1.54219e-06
1.54044e-06
1.54252e-06
1.54242e-06
1.5231e-06
1.52294e-06
1.52275e-06
1.52054e-06
1.52044e-06
1.52033e-06
1.52054e-06
1.52273e-06
1.52298e-06
1.52275e-06
1.51977e-06
1.5168e-06
1.5168e-06
1.5168e-06
1.5168e-06
1.52026e-06
1.52111e-06
1.52054e-06
1.5168e-06
1.5168e-06
1.5168e-06
1.5168e-06
1.5168e-06
1.5168e-06
1.52128e-06
1.52324e-06
1.52311e-06
1.52044e-06
1.5168e-06
1.5168e-06
1.5168e-06
1.5168e-06
1.5168e-06
1.5168e-06
1.52141e-06
1.52302e-06
1.52294e-06
1.52033e-06
1.5168e-06
1.5168e-06
1.5168e-06
1.5168e-06
1.5168e-06
1.5168e-06
1.5214e-06
1.52127e-06
1.52054e-06
1.5168e-06
1.5168e-06
1.5168e-06
1.5168e-06
1.5168e-06
1.5168e-06
1.52136e-06
1.52335e-06
1.52273e-06
1.52026e-06
1.5168e-06
1.5168e-06
1.5168e-06
1.5168e-06
1.52118e-06
1.52129e-06
1.52324e-06
1.52298e-06
1.52111e-06
1.52128e-06
1.52141e-06
1.5214e-06
1.52136e-06
1.5213e-06
1.52321e-06
1.52324e-06
1.52302e-06
1.52127e-06
1.52334e-06
1.52324e-06
1.50393e-06
1.50376e-06
1.50358e-06
1.50137e-06
1.50127e-06
1.50116e-06
1.50137e-06
1.50356e-06
1.5038e-06
1.50358e-06
1.50059e-06
1.49763e-06
1.49763e-06
1.49763e-06
1.49763e-06
1.50109e-06
1.50194e-06
1.50137e-06
1.49763e-06
1.49763e-06
1.49763e-06
1.49763e-06
1.49763e-06
1.49763e-06
1.50211e-06
1.50407e-06
1.50393e-06
1.50127e-06
1.49763e-06
1.49763e-06
1.49763e-06
1.49763e-06
1.49763e-06
1.49763e-06
1.50223e-06
1.50385e-06
1.50376e-06
1.50116e-06
1.49763e-06
1.49763e-06
1.49763e-06
1.49763e-06
1.49763e-06
1.49763e-06
1.50222e-06
1.5021e-06
1.50137e-06
1.49763e-06
1.49763e-06
1.49763e-06
1.49763e-06
1.49763e-06
1.49763e-06
1.50219e-06
1.50417e-06
1.50356e-06
1.50109e-06
1.49763e-06
1.49763e-06
1.49763e-06
1.49763e-06
1.50201e-06
1.50212e-06
1.50407e-06
1.50381e-06
1.50194e-06
1.50211e-06
1.50223e-06
1.50222e-06
1.50219e-06
1.50212e-06
1.50404e-06
1.50407e-06
1.50385e-06
1.5021e-06
1.50417e-06
1.50407e-06
1.48476e-06
1.48459e-06
1.4844e-06
1.48219e-06
1.4821e-06
1.48199e-06
1.4822e-06
1.48439e-06
1.48463e-06
1.4844e-06
1.48142e-06
1.47845e-06
1.47845e-06
1.47845e-06
1.47845e-06
1.48192e-06
1.48276e-06
1.48219e-06
1.47845e-06
1.47845e-06
1.47845e-06
1.47845e-06
1.47845e-06
1.47845e-06
1.48293e-06
1.48489e-06
1.48476e-06
1.4821e-06
1.47845e-06
1.47845e-06
1.47845e-06
1.47845e-06
1.47845e-06
1.47845e-06
1.48306e-06
1.48467e-06
1.48459e-06
1.48198e-06
1.47845e-06
1.47845e-06
1.47845e-06
1.47845e-06
1.47845e-06
1.47845e-06
1.48305e-06
1.48292e-06
1.48219e-06
1.47845e-06
1.47845e-06
1.47845e-06
1.47845e-06
1.47845e-06
1.47845e-06
1.48301e-06
1.485e-06
1.48439e-06
1.48192e-06
1.47845e-06
1.47845e-06
1.47845e-06
1.47845e-06
1.48284e-06
1.48295e-06
1.4849e-06
1.48463e-06
1.48277e-06
1.48293e-06
1.48306e-06
1.48305e-06
1.48301e-06
1.48295e-06
1.48487e-06
1.4849e-06
1.48468e-06
1.48292e-06
1.485e-06
1.4849e-06
1.46559e-06
1.46542e-06
1.46523e-06
1.46302e-06
1.46293e-06
1.46281e-06
1.46302e-06
1.46521e-06
1.46546e-06
1.46523e-06
1.46225e-06
1.45928e-06
1.45928e-06
1.45928e-06
1.45928e-06
1.46275e-06
1.46359e-06
1.46302e-06
1.45928e-06
1.45928e-06
1.45928e-06
1.45928e-06
1.45928e-06
1.45928e-06
1.46376e-06
1.46572e-06
1.46559e-06
1.46292e-06
1.45928e-06
1.45928e-06
1.45928e-06
1.45928e-06
1.45928e-06
1.45928e-06
1.46389e-06
1.4655e-06
1.46542e-06
1.46281e-06
1.45928e-06
1.45928e-06
1.45928e-06
1.45928e-06
1.45928e-06
1.45928e-06
1.46388e-06
1.46375e-06
1.46302e-06
1.45928e-06
1.45928e-06
1.45928e-06
1.45928e-06
1.45928e-06
1.45928e-06
1.46384e-06
1.46583e-06
1.46521e-06
1.46275e-06
1.45928e-06
1.45928e-06
1.45928e-06
1.45928e-06
1.46367e-06
1.46377e-06
1.46573e-06
1.46546e-06
1.46359e-06
1.46376e-06
1.46389e-06
1.46388e-06
1.46384e-06
1.46378e-06
1.4657e-06
1.46572e-06
1.4655e-06
1.46375e-06
1.46583e-06
1.46573e-06
1.44641e-06
1.44624e-06
1.44606e-06
1.44385e-06
1.44375e-06
1.44364e-06
1.44385e-06
1.44604e-06
1.44629e-06
1.44606e-06
1.44307e-06
1.44011e-06
1.44011e-06
1.44011e-06
1.44011e-06
1.44357e-06
1.44442e-06
1.44385e-06
1.44011e-06
1.44011e-06
1.44011e-06
1.44011e-06
1.44011e-06
1.44011e-06
1.44459e-06
1.44655e-06
1.44642e-06
1.44375e-06
1.44011e-06
1.44011e-06
1.44011e-06
1.44011e-06
1.44011e-06
1.44011e-06
1.44472e-06
1.44633e-06
1.44624e-06
1.44364e-06
1.44011e-06
1.44011e-06
1.44011e-06
1.44011e-06
1.44011e-06
1.44011e-06
1.44471e-06
1.44458e-06
1.44385e-06
1.44011e-06
1.44011e-06
1.44011e-06
1.44011e-06
1.44011e-06
1.44011e-06
1.44467e-06
1.44665e-06
1.44604e-06
1.44357e-06
1.44011e-06
1.44011e-06
1.44011e-06
1.44011e-06
1.44449e-06
1.4446e-06
1.44655e-06
1.44629e-06
1.44442e-06
1.44459e-06
1.44471e-06
1.4447e-06
1.44467e-06
1.4446e-06
1.44652e-06
1.44655e-06
1.44633e-06
1.44458e-06
1.44665e-06
1.44655e-06
1.42724e-06
1.42707e-06
1.42688e-06
1.42467e-06
1.42458e-06
1.42447e-06
1.42468e-06
1.42687e-06
1.42711e-06
1.42689e-06
1.4239e-06
1.42093e-06
1.42093e-06
1.42093e-06
1.42093e-06
1.4244e-06
1.42524e-06
1.42467e-06
1.42093e-06
1.42093e-06
1.42093e-06
1.42093e-06
1.42093e-06
1.42093e-06
1.42541e-06
1.42737e-06
1.42724e-06
1.42458e-06
1.42093e-06
1.42093e-06
1.42093e-06
1.42093e-06
1.42093e-06
1.42093e-06
1.42554e-06
1.42715e-06
1.42707e-06
1.42446e-06
1.42093e-06
1.42093e-06
1.42093e-06
1.42093e-06
1.42093e-06
1.42093e-06
1.42553e-06
1.4254e-06
1.42468e-06
1.42093e-06
1.42093e-06
1.42093e-06
1.42093e-06
1.42093e-06
1.42093e-06
1.42549e-06
1.42748e-06
1.42687e-06
1.4244e-06
1.42093e-06
1.42093e-06
1.42093e-06
1.42093e-06
1.42532e-06
1.42543e-06
1.42738e-06
1.42711e-06
1.42525e-06
1.42541e-06
1.42554e-06
1.42553e-06
1.42549e-06
1.42543e-06
1.42735e-06
1.42738e-06
1.42716e-06
1.42541e-06
1.42748e-06
1.42738e-06
1.40807e-06
1.4079e-06
1.40771e-06
1.4055e-06
1.4054e-06
1.40529e-06
1.4055e-06
1.40769e-06
1.40794e-06
1.40771e-06
1.40473e-06
1.40176e-06
1.40176e-06
1.40176e-06
1.40176e-06
1.40522e-06
1.40607e-06
1.4055e-06
1.40176e-06
1.40176e-06
1.40176e-06
1.40176e-06
1.40176e-06
1.40176e-06
1.40624e-06
1.4082e-06
1.40807e-06
1.4054e-06
1.40176e-06
1.40176e-06
1.40176e-06
1.40176e-06
1.40176e-06
1.40176e-06
1.40637e-06
1.40798e-06
1.4079e-06
1.40529e-06
1.40176e-06
1.40176e-06
1.40176e-06
1.40176e-06
1.40176e-06
1.40176e-06
1.40636e-06
1.40623e-06
1.4055e-06
1.40176e-06
1.40176e-06
1.40176e-06
1.40176e-06
1.40176e-06
1.40176e-06
1.40632e-06
1.40831e-06
1.40769e-06
1.40522e-06
1.40176e-06
1.40176e-06
1.40176e-06
1.40176e-06
1.40614e-06
1.40625e-06
1.4082e-06
1.40794e-06
1.40607e-06
1.40624e-06
1.40637e-06
1.40636e-06
1.40632e-06
1.40626e-06
1.40817e-06
1.4082e-06
1.40798e-06
1.40623e-06
1.4083e-06
1.40821e-06
1.38889e-06
1.38872e-06
1.38854e-06
1.38633e-06
1.38623e-06
1.38612e-06
1.38633e-06
1.38852e-06
1.38877e-06
1.38854e-06
1.38555e-06
1.38259e-06
1.38259e-06
1.38259e-06
1.38259e-06
1.38605e-06
1.3869e-06
1.38633e-06
1.38259e-06
1.38259e-06
1.38259e-06
1.38259e-06
1.38259e-06
1.38259e-06
1.38707e-06
1.38903e-06
1.38889e-06
1.38623e-06
1.38259e-06
1.38259e-06
1.38259e-06
1.38259e-06
1.38259e-06
1.38259e-06
1.38719e-06
1.38881e-06
1.38872e-06
1.38612e-06
1.38259e-06
1.38259e-06
1.38259e-06
1.38259e-06
1.38259e-06
1.38259e-06
1.38718e-06
1.38706e-06
1.38633e-06
1.38259e-06
1.38259e-06
1.38259e-06
1.38259e-06
1.38259e-06
1.38259e-06
1.38715e-06
1.38913e-06
1.38852e-06
1.38605e-06
1.38259e-06
1.38259e-06
1.38259e-06
1.38259e-06
1.38697e-06
1.38708e-06
1.38903e-06
1.38877e-06
1.3869e-06
1.38707e-06
1.38719e-06
1.38718e-06
1.38715e-06
1.38708e-06
1.389e-06
1.38903e-06
1.38881e-06
1.38706e-06
1.38913e-06
1.38903e-06
1.36972e-06
1.36955e-06
1.36936e-06
1.36715e-06
1.36706e-06
1.36694e-06
1.36715e-06
1.36935e-06
1.36959e-06
1.36936e-06
1.36638e-06
1.36341e-06
1.36341e-06
1.36341e-06
1.36341e-06
1.36688e-06
1.36772e-06
1.36715e-06
1.36341e-06
1.36341e-06
1.36341e-06
1.36341e-06
1.36341e-06
1.36341e-06
1.36789e-06
1.36985e-06
1.36972e-06
1.36706e-06
1.36341e-06
1.36341e-06
1.36341e-06
1.36341e-06
1.36341e-06
1.36341e-06
1.36802e-06
1.36963e-06
1.36955e-06
1.36694e-06
1.36341e-06
1.36341e-06
1.36341e-06
1.36341e-06
1.36341e-06
1.36341e-06
1.36801e-06
1.36788e-06
1.36715e-06
1.36341e-06
1.36341e-06
1.36341e-06
1.36341e-06
1.36341e-06
1.36341e-06
1.36797e-06
1.36996e-06
1.36934e-06
1.36688e-06
1.36341e-06
1.36341e-06
1.36341e-06
1.36341e-06
1.3678e-06
1.36791e-06
1.36986e-06
1.36959e-06
1.36772e-06
1.36789e-06
1.36802e-06
1.36801e-06
1.36797e-06
1.36791e-06
1.36983e-06
1.36985e-06
1.36963e-06
1.36788e-06
1.36996e-06
1.36986e-06
1.35054e-06
1.35037e-06
1.35019e-06
1.34798e-06
1.34788e-06
1.34777e-06
1.34798e-06
1.35017e-06
1.35042e-06
1.35019e-06
1.3472e-06
1.34424e-06
1.34424e-06
1.34424e-06
1.34424e-06
1.3477e-06
1.34855e-06
1.34798e-06
1.34424e-06
1.34424e-06
1.34424e-06
1.34424e-06
1.34424e-06
1.34424e-06
1.34872e-06
1.35068e-06
1.35055e-06
1.34788e-06
1.34424e-06
1.34424e-06
1.34424e-06
1.34424e-06
1.34424e-06
1.34424e-06
1.34885e-06
1.35046e-06
1.35037e-06
1.34777e-06
1.34424e-06
1.34424e-06
1.34424e-06
1.34424e-06
1.34424e-06
1.34424e-06
1.34883e-06
1.34871e-06
1.34798e-06
1.34424e-06
1.34424e-06
1.34424e-06
1.34424e-06
1.34424e-06
1.34424e-06
1.3488e-06
1.35078e-06
1.35017e-06
1.3477e-06
1.34424e-06
1.34424e-06
1.34424e-06
1.34424e-06
1.34862e-06
1.34873e-06
1.35068e-06
1.35042e-06
1.34855e-06
1.34872e-06
1.34884e-06
1.34883e-06
1.3488e-06
1.34873e-06
1.35065e-06
1.35068e-06
1.35046e-06
1.34871e-06
1.35078e-06
1.35068e-06
1.33137e-06
1.3312e-06
1.33101e-06
1.3288e-06
1.32871e-06
1.32859e-06
1.32881e-06
1.331e-06
1.33124e-06
1.33101e-06
1.32803e-06
1.32506e-06
1.32506e-06
1.32506e-06
1.32506e-06
1.32853e-06
1.32937e-06
1.3288e-06
1.32506e-06
1.32506e-06
1.32506e-06
1.32506e-06
1.32506e-06
1.32506e-06
1.32954e-06
1.3315e-06
1.33137e-06
1.32871e-06
1.32506e-06
1.32506e-06
1.32506e-06
1.32506e-06
1.32506e-06
1.32506e-06
1.32967e-06
1.33128e-06
1.3312e-06
1.32859e-06
1.32506e-06
1.32506e-06
1.32506e-06
1.32506e-06
1.32506e-06
1.32506e-06
1.32966e-06
1.32953e-06
1.3288e-06
1.32506e-06
1.32506e-06
1.32506e-06
1.32506e-06
1.32506e-06
1.32506e-06
1.32962e-06
1.33161e-06
1.331e-06
1.32853e-06
1.32506e-06
1.32506e-06
1.32506e-06
1.32506e-06
1.32945e-06
1.32956e-06
1.33151e-06
1.33124e-06
1.32937e-06
1.32954e-06
1.32967e-06
1.32966e-06
1.32962e-06
1.32956e-06
1.33148e-06
1.3315e-06
1.33128e-06
1.32953e-06
1.33161e-06
1.33151e-06
1.31219e-06
1.31203e-06
1.31184e-06
1.30963e-06
1.30953e-06
1.30942e-06
1.30963e-06
1.31182e-06
1.31207e-06
1.31184e-06
1.30886e-06
1.30589e-06
1.30589e-06
1.30589e-06
1.30589e-06
1.30935e-06
1.3102e-06
1.30963e-06
1.30589e-06
1.30589e-06
1.30589e-06
1.30589e-06
1.30589e-06
1.30589e-06
1.31037e-06
1.31233e-06
1.3122e-06
1.30953e-06
1.30589e-06
1.30589e-06
1.30589e-06
1.30589e-06
1.30589e-06
1.30589e-06
1.3105e-06
1.31211e-06
1.31203e-06
1.30942e-06
1.30589e-06
1.30589e-06
1.30589e-06
1.30589e-06
1.30589e-06
1.30589e-06
1.31049e-06
1.31036e-06
1.30963e-06
1.30589e-06
1.30589e-06
1.30589e-06
1.30589e-06
1.30589e-06
1.30589e-06
1.31045e-06
1.31244e-06
1.31182e-06
1.30935e-06
1.30589e-06
1.30589e-06
1.30589e-06
1.30589e-06
1.31027e-06
1.31038e-06
1.31233e-06
1.31207e-06
1.3102e-06
1.31037e-06
1.3105e-06
1.31049e-06
1.31045e-06
1.31039e-06
1.3123e-06
1.31233e-06
1.31211e-06
1.31036e-06
1.31243e-06
1.31233e-06
1.29302e-06
1.29285e-06
1.29267e-06
1.29046e-06
1.29036e-06
1.29025e-06
1.29046e-06
1.29265e-06
1.2929e-06
1.29267e-06
1.28968e-06
1.28672e-06
1.28672e-06
1.28672e-06
1.28672e-06
1.29018e-06
1.29103e-06
1.29046e-06
1.28672e-06
1.28672e-06
1.28672e-06
1.28672e-06
1.28672e-06
1.28672e-06
1.2912e-06
1.29316e-06
1.29302e-06
1.29036e-06
1.28672e-06
1.28672e-06
1.28672e-06
1.28672e-06
1.28672e-06
1.28672e-06
1.29132e-06
1.29294e-06
1.29285e-06
1.29025e-06
1.28672e-06
1.28672e-06
1.28672e-06
1.28672e-06
1.28672e-06
1.28672e-06
1.29131e-06
1.29119e-06
1.29046e-06
1.28672e-06
1.28672e-06
1.28672e-06
1.28672e-06
1.28672e-06
1.28672e-06
1.29128e-06
1.29326e-06
1.29265e-06
1.29018e-06
1.28672e-06
1.28672e-06
1.28672e-06
1.28672e-06
1.2911e-06
1.29121e-06
1.29316e-06
1.2929e-06
1.29103e-06
1.2912e-06
1.29132e-06
1.29131e-06
1.29128e-06
1.29121e-06
1.29313e-06
1.29316e-06
1.29294e-06
1.29119e-06
1.29326e-06
1.29316e-06
1.27385e-06
1.27368e-06
1.27349e-06
1.27128e-06
1.27119e-06
1.27108e-06
1.27129e-06
1.27348e-06
1.27372e-06
1.2735e-06
1.27051e-06
1.26754e-06
1.26754e-06
1.26754e-06
1.26754e-06
1.27101e-06
1.27185e-06
1.27128e-06
1.26754e-06
1.26754e-06
1.26754e-06
1.26754e-06
1.26754e-06
1.26754e-06
1.27202e-06
1.27398e-06
1.27385e-06
1.27119e-06
1.26754e-06
1.26754e-06
1.26754e-06
1.26754e-06
1.26754e-06
1.26754e-06
1.27215e-06
1.27376e-06
1.27368e-06
1.27107e-06
1.26754e-06
1.26754e-06
1.26754e-06
1.26754e-06
1.26754e-06
1.26754e-06
1.27214e-06
1.27201e-06
1.27128e-06
1.26754e-06
1.26754e-06
1.26754e-06
1.26754e-06
1.26754e-06
1.26754e-06
1.2721e-06
1.27409e-06
1.27348e-06
1.27101e-06
1.26754e-06
1.26754e-06
1.26754e-06
1.26754e-06
1.27193e-06
1.27204e-06
1.27399e-06
1.27372e-06
1.27186e-06
1.27202e-06
1.27215e-06
1.27214e-06
1.2721e-06
1.27204e-06
1.27396e-06
1.27399e-06
1.27377e-06
1.27202e-06
1.27409e-06
1.27399e-06
1.25468e-06
1.25451e-06
1.25432e-06
1.25211e-06
1.25201e-06
1.2519e-06
1.25211e-06
1.25431e-06
1.25455e-06
1.25432e-06
1.25134e-06
1.24837e-06
1.24837e-06
1.24837e-06
1.24837e-06
1.25184e-06
1.25268e-06
1.25211e-06
1.24837e-06
1.24837e-06
1.24837e-06
1.24837e-06
1.24837e-06
1.24837e-06
1.25285e-06
1.25481e-06
1.25468e-06
1.25201e-06
1.24837e-06
1.24837e-06
1.24837e-06
1.24837e-06
1.24837e-06
1.24837e-06
1.25298e-06
1.25459e-06
1.25451e-06
1.2519e-06
1.24837e-06
1.24837e-06
1.24837e-06
1.24837e-06
1.24837e-06
1.24837e-06
1.25297e-06
1.25284e-06
1.25211e-06
1.24837e-06
1.24837e-06
1.24837e-06
1.24837e-06
1.24837e-06
1.24837e-06
1.25293e-06
1.25492e-06
1.2543e-06
1.25184e-06
1.24837e-06
1.24837e-06
1.24837e-06
1.24837e-06
1.25276e-06
1.25287e-06
1.25482e-06
1.25455e-06
1.25268e-06