/*--------------------------------*- C++ -*----------------------------------*\
| =========                 |                                                 |
| \\      /  F ield         | OpenFOAM: The Open Source CFD Toolbox           |
|  \\    /   O peration     | Version:  v2012                                 |
|   \\  /    A nd           | Website:  www.openfoam.com                      |
|    \\/     M anipulation  |                                                 |
\*---------------------------------------------------------------------------*/
FoamFile
{
    version     2.0;
    format      ascii;
    class       volScalarField;
    location    "1000";
    object      epsilon;
}
// * * * * * * * * * * * * * * * * * * * * * * * * * * * * * * * * * * * * * //

dimensions      [0 2 -3 0 0 0 0];


internalField   nonuniform List<scalar> 
85864
(
4.95567e-07
4.9733e-07
4.9733e-07
4.99575e-07
4.45573e-07
4.53735e-07
4.53737e-07
4.6371e-07
4.03752e-07
4.18513e-07
4.18517e-07
4.39411e-07
3.68363e-07
3.88552e-07
3.88558e-07
4.17667e-07
3.38015e-07
3.62102e-07
3.6211e-07
3.96081e-07
3.11646e-07
3.38273e-07
3.38281e-07
3.74581e-07
2.88473e-07
3.16638e-07
3.16646e-07
3.5371e-07
2.67923e-07
2.97021e-07
2.9703e-07
3.34147e-07
2.49579e-07
2.7937e-07
2.79379e-07
3.16483e-07
2.33137e-07
2.63679e-07
2.63688e-07
3.0116e-07
2.18365e-07
2.49955e-07
2.49964e-07
2.88492e-07
2.0509e-07
2.38198e-07
2.38208e-07
2.78696e-07
1.93171e-07
2.28411e-07
2.28421e-07
2.71875e-07
1.82497e-07
2.206e-07
2.20611e-07
2.68162e-07
1.72979e-07
2.14774e-07
2.14787e-07
2.67648e-07
1.64542e-07
2.1094e-07
2.10956e-07
2.70505e-07
1.57122e-07
2.09109e-07
2.09128e-07
2.7671e-07
1.50669e-07
2.09298e-07
2.0932e-07
2.86289e-07
1.45137e-07
2.11551e-07
2.11577e-07
2.99237e-07
1.40492e-07
2.15886e-07
2.15917e-07
3.15606e-07
1.36703e-07
2.22322e-07
2.22358e-07
3.3535e-07
1.33747e-07
2.30875e-07
2.30913e-07
3.58362e-07
1.31605e-07
2.41543e-07
2.41582e-07
3.84488e-07
1.30254e-07
2.54293e-07
2.54334e-07
4.13506e-07
1.29702e-07
2.69085e-07
2.69145e-07
4.4498e-07
1.29922e-07
2.85882e-07
2.85924e-07
4.7867e-07
1.30882e-07
3.04498e-07
3.04531e-07
5.13975e-07
1.32706e-07
3.25062e-07
3.25172e-07
5.50759e-07
1.3526e-07
3.4734e-07
3.47434e-07
5.88482e-07
1.3842e-07
3.70628e-07
3.70646e-07
6.25826e-07
1.42542e-07
3.95583e-07
3.95688e-07
6.63315e-07
1.47401e-07
4.22277e-07
4.2237e-07
7.00782e-07
1.52861e-07
4.48621e-07
4.48784e-07
7.36923e-07
1.5949e-07
4.77748e-07
4.77878e-07
7.73153e-07
1.66533e-07
5.07095e-07
5.06579e-07
8.09519e-07
1.74346e-07
5.33625e-07
5.34262e-07
8.4089e-07
1.83071e-07
5.62831e-07
5.63588e-07
8.75126e-07
1.93002e-07
5.99298e-07
6.00197e-07
9.03124e-07
2.00765e-07
6.22156e-07
6.21893e-07
9.2075e-07
2.19977e-07
6.4423e-07
6.35582e-07
9.74509e-07
2.40841e-07
7.12836e-07
7.19588e-07
1.08376e-06
2.48604e-07
8.16744e-07
8.24772e-07
1.12127e-06
2.51796e-07
7.56385e-07
7.32608e-07
1.01983e-06
2.32695e-07
5.85944e-07
5.94999e-07
8.61047e-07
2.14123e-07
6.04446e-07
6.53254e-07
8.64816e-07
2.23994e-07
8.43272e-07
8.25608e-07
1.13459e-06
3.45605e-07
9.68135e-07
9.33108e-07
1.18541e-06
5.06417e-07
5.05584e-07
5.05582e-07
5.06417e-07
5.05583e-07
5.05582e-07
5.09649e-07
5.09649e-07
5.09649e-07
5.09649e-07
5.05584e-07
5.05584e-07
5.06418e-07
5.05584e-07
5.05583e-07
5.06418e-07
4.99575e-07
4.67237e-07
4.97331e-07
4.97335e-07
4.63713e-07
4.63721e-07
4.99575e-07
4.67235e-07
4.97335e-07
4.97336e-07
4.63718e-07
4.63724e-07
4.97332e-07
4.63709e-07
4.63714e-07
4.99575e-07
4.67241e-07
4.97334e-07
4.6371e-07
4.63719e-07
4.6724e-07
4.63709e-07
4.41426e-07
4.5374e-07
4.53748e-07
4.26739e-07
4.26747e-07
4.63708e-07
4.4142e-07
4.53744e-07
4.53751e-07
4.26739e-07
4.26751e-07
4.53741e-07
4.26729e-07
4.26741e-07
4.63711e-07
4.41431e-07
4.53744e-07
4.26734e-07
4.26741e-07
4.41429e-07
4.39407e-07
4.19283e-07
4.18522e-07
4.1853e-07
3.95676e-07
3.95682e-07
4.39405e-07
4.19275e-07
4.18522e-07
4.18535e-07
3.95672e-07
3.95689e-07
4.18525e-07
3.95663e-07
3.95679e-07
4.39413e-07
4.19289e-07
4.18523e-07
3.95669e-07
3.95673e-07
4.19287e-07
4.17662e-07
3.97645e-07
3.88566e-07
3.88571e-07
3.68461e-07
3.68466e-07
4.17656e-07
3.97636e-07
3.8856e-07
3.88578e-07
3.68452e-07
3.68473e-07
3.88569e-07
3.68444e-07
3.68464e-07
4.17669e-07
3.97651e-07
3.88562e-07
3.68452e-07
3.68454e-07
3.97649e-07
3.96076e-07
3.76085e-07
3.6212e-07
3.62124e-07
3.44033e-07
3.44036e-07
3.96069e-07
3.76076e-07
3.62109e-07
3.62131e-07
3.4402e-07
3.44043e-07
3.62123e-07
3.44013e-07
3.44036e-07
3.96082e-07
3.76091e-07
3.62111e-07
3.44022e-07
3.44021e-07
3.7609e-07
3.74575e-07
3.55111e-07
3.38292e-07
3.38295e-07
3.21875e-07
3.21876e-07
3.74568e-07
3.55101e-07
3.38279e-07
3.38303e-07
3.21858e-07
3.21884e-07
3.38296e-07
3.21853e-07
3.21877e-07
3.74581e-07
3.55117e-07
3.3828e-07
3.21862e-07
3.2186e-07
3.55116e-07
3.53705e-07
3.35395e-07
3.16659e-07
3.16661e-07
3.01763e-07
3.01764e-07
3.53697e-07
3.35385e-07
3.16642e-07
3.16668e-07
3.01745e-07
3.01771e-07
3.16662e-07
3.0174e-07
3.01765e-07
3.5371e-07
3.35402e-07
3.16644e-07
3.01749e-07
3.01746e-07
3.354e-07
3.34142e-07
3.17532e-07
2.97044e-07
2.97045e-07
2.83623e-07
2.83624e-07
3.34134e-07
3.17523e-07
2.97025e-07
2.97052e-07
2.83603e-07
2.83631e-07
2.97047e-07
2.83599e-07
2.83625e-07
3.34148e-07
3.1754e-07
2.97027e-07
2.83609e-07
2.83604e-07
3.17537e-07
3.16477e-07
3.01974e-07
2.79394e-07
2.79394e-07
2.67442e-07
2.67442e-07
3.16471e-07
3.01964e-07
2.79374e-07
2.79402e-07
2.67421e-07
2.67449e-07
2.79396e-07
2.67417e-07
2.67443e-07
3.16485e-07
3.01981e-07
2.79375e-07
2.67426e-07
2.67421e-07
3.0198e-07
3.01153e-07
2.8904e-07
2.63704e-07
2.63703e-07
2.53227e-07
2.53227e-07
3.01146e-07
2.89028e-07
2.63682e-07
2.63711e-07
2.53204e-07
2.53234e-07
2.63705e-07
2.532e-07
2.53227e-07
3.01162e-07
2.89046e-07
2.63683e-07
2.5321e-07
2.53205e-07
2.89047e-07
2.88485e-07
2.78951e-07
2.49981e-07
2.49981e-07
2.40981e-07
2.4098e-07
2.88476e-07
2.78938e-07
2.49958e-07
2.49989e-07
2.40957e-07
2.40988e-07
2.49982e-07
2.40952e-07
2.40981e-07
2.88493e-07
2.78956e-07
2.49959e-07
2.40961e-07
2.40957e-07
2.78956e-07
2.78688e-07
2.71829e-07
2.38226e-07
2.38227e-07
2.30702e-07
2.30702e-07
2.78678e-07
2.71817e-07
2.38203e-07
2.38235e-07
2.30677e-07
2.3071e-07
2.38227e-07
2.3067e-07
2.30701e-07
2.78695e-07
2.71837e-07
2.38203e-07
2.30681e-07
2.30676e-07
2.71835e-07
2.71868e-07
2.67862e-07
2.2844e-07
2.28443e-07
2.22399e-07
2.224e-07
2.71858e-07
2.67848e-07
2.28416e-07
2.28451e-07
2.22373e-07
2.22409e-07
2.28442e-07
2.22364e-07
2.22397e-07
2.71877e-07
2.67873e-07
2.28417e-07
2.22376e-07
2.22372e-07
2.6787e-07
2.68154e-07
2.66984e-07
2.20632e-07
2.20637e-07
2.16077e-07
2.16081e-07
2.68143e-07
2.66968e-07
2.20608e-07
2.20645e-07
2.16049e-07
2.16089e-07
2.20634e-07
2.16039e-07
2.16075e-07
2.68165e-07
2.66995e-07
2.20608e-07
2.16051e-07
2.16048e-07
2.66993e-07
2.67639e-07
2.69164e-07
2.14812e-07
2.14817e-07
2.11747e-07
2.11755e-07
2.67623e-07
2.69147e-07
2.14785e-07
2.14826e-07
2.1172e-07
2.11764e-07
2.14811e-07
2.11704e-07
2.11744e-07
2.67648e-07
2.69177e-07
2.14784e-07
2.11719e-07
2.11717e-07
2.69176e-07
2.70494e-07
2.74675e-07
2.10985e-07
2.10992e-07
2.09417e-07
2.09425e-07
2.70479e-07
2.74654e-07
2.10957e-07
2.11002e-07
2.09389e-07
2.09438e-07
2.10981e-07
2.09366e-07
2.09412e-07
2.70506e-07
2.74689e-07
2.10954e-07
2.09385e-07
2.09383e-07
2.74688e-07
2.76698e-07
2.83554e-07
2.0916e-07
2.09169e-07
2.0913e-07
2.09139e-07
2.76676e-07
2.8353e-07
2.09133e-07
2.09182e-07
2.09102e-07
2.09156e-07
2.09155e-07
2.09073e-07
2.09124e-07
2.76711e-07
2.83573e-07
2.09127e-07
2.09095e-07
2.09095e-07
2.83569e-07
2.8628e-07
2.95821e-07
2.09356e-07
2.09366e-07
2.10852e-07
2.10859e-07
2.86254e-07
2.9579e-07
2.09329e-07
2.09384e-07
2.10822e-07
2.10881e-07
2.0935e-07
2.10786e-07
2.10842e-07
2.86296e-07
2.95836e-07
2.09321e-07
2.10811e-07
2.10812e-07
2.95831e-07
2.99228e-07
3.11501e-07
2.11618e-07
2.11627e-07
2.14675e-07
2.14685e-07
2.9919e-07
3.11461e-07
2.1159e-07
2.11649e-07
2.14644e-07
2.14709e-07
2.11609e-07
2.146e-07
2.14661e-07
2.99233e-07
3.11515e-07
2.11579e-07
2.14628e-07
2.14631e-07
3.11515e-07
3.15588e-07
3.30541e-07
2.15961e-07
2.15975e-07
2.20591e-07
2.20613e-07
3.15552e-07
3.30509e-07
2.15933e-07
2.15999e-07
2.20561e-07
2.20638e-07
2.1595e-07
2.20512e-07
2.20584e-07
3.15608e-07
3.30578e-07
2.15919e-07
2.20547e-07
2.20552e-07
3.30572e-07
3.35317e-07
3.52894e-07
2.22401e-07
2.22426e-07
2.28621e-07
2.28654e-07
3.35292e-07
3.52857e-07
2.22373e-07
2.22451e-07
2.28594e-07
2.28681e-07
2.22396e-07
2.28541e-07
2.28618e-07
3.3536e-07
3.52933e-07
2.22363e-07
2.28577e-07
2.28583e-07
3.5291e-07
3.58354e-07
3.78374e-07
2.30958e-07
2.30991e-07
2.38764e-07
2.38807e-07
3.58316e-07
3.78322e-07
2.30931e-07
2.3102e-07
2.38737e-07
2.38835e-07
2.30955e-07
2.38681e-07
2.38759e-07
3.58383e-07
3.78408e-07
2.3092e-07
2.38719e-07
2.38722e-07
3.78384e-07
3.84477e-07
4.06752e-07
2.41627e-07
2.41673e-07
2.51004e-07
2.51055e-07
3.84429e-07
4.06704e-07
2.41602e-07
2.41699e-07
2.50973e-07
2.51075e-07
2.41625e-07
2.50914e-07
2.51007e-07
3.84506e-07
4.06776e-07
2.41588e-07
2.50951e-07
2.5097e-07
4.06801e-07
4.13456e-07
4.37723e-07
2.54391e-07
2.54439e-07
2.65305e-07
2.65353e-07
4.13411e-07
4.37645e-07
2.54359e-07
2.5446e-07
2.65265e-07
2.65394e-07
2.5439e-07
2.65194e-07
2.65299e-07
4.13474e-07
4.37765e-07
2.54354e-07
2.6525e-07
2.6526e-07
4.37746e-07
4.44977e-07
4.70965e-07
2.69205e-07
2.69246e-07
2.81629e-07
2.81673e-07
4.44896e-07
4.70864e-07
2.69169e-07
2.69292e-07
2.81597e-07
2.8171e-07
2.69186e-07
2.81507e-07
2.81625e-07
4.45014e-07
4.70978e-07
2.69145e-07
2.81557e-07
2.81582e-07
4.70935e-07
4.78677e-07
5.05623e-07
2.85983e-07
2.86053e-07
2.99722e-07
2.99846e-07
4.78601e-07
5.05737e-07
2.85949e-07
2.86079e-07
2.99672e-07
2.99859e-07
2.86004e-07
2.99672e-07
2.998e-07
4.78691e-07
5.0579e-07
2.85961e-07
2.99693e-07
2.99759e-07
5.05885e-07
5.1368e-07
5.4218e-07
3.04543e-07
3.04669e-07
3.19847e-07
3.19926e-07
5.13837e-07
5.4214e-07
3.04496e-07
3.04698e-07
3.19816e-07
3.19988e-07
3.04634e-07
3.19733e-07
3.19864e-07
5.13883e-07
5.42281e-07
3.04595e-07
3.19811e-07
3.19828e-07
5.42242e-07
5.50767e-07
5.80066e-07
3.25212e-07
3.25266e-07
3.4188e-07
3.41866e-07
5.50654e-07
5.7978e-07
3.25189e-07
3.25344e-07
3.41849e-07
3.41923e-07
3.252e-07
3.4164e-07
3.41769e-07
5.50823e-07
5.7998e-07
3.25172e-07
3.41745e-07
3.41709e-07
5.79848e-07
5.88713e-07
6.16783e-07
3.47528e-07
3.47563e-07
3.64786e-07
3.64918e-07
5.88444e-07
6.16912e-07
3.47488e-07
3.47614e-07
3.64658e-07
3.64932e-07
3.47434e-07
3.64716e-07
3.64941e-07
5.88624e-07
6.17053e-07
3.47354e-07
3.64749e-07
3.64842e-07
6.17096e-07
6.25379e-07
6.54199e-07
3.7073e-07
3.70812e-07
3.89321e-07
3.89385e-07
6.25534e-07
6.54114e-07
3.70582e-07
3.70817e-07
3.89216e-07
3.89383e-07
3.70924e-07
3.89136e-07
3.89373e-07
6.25627e-07
6.54135e-07
3.70823e-07
3.89201e-07
3.89349e-07
6.5447e-07
6.63248e-07
6.92565e-07
3.95841e-07
3.95849e-07
4.15723e-07
4.15834e-07
6.63113e-07
6.92407e-07
3.95785e-07
3.95902e-07
4.15755e-07
4.15953e-07
3.95749e-07
4.15583e-07
4.15412e-07
6.63152e-07
6.92648e-07
3.95756e-07
4.15661e-07
4.15384e-07
6.91901e-07
7.01374e-07
7.28068e-07
4.2227e-07
4.22496e-07
4.421e-07
4.42154e-07
7.01341e-07
7.28152e-07
4.22295e-07
4.22642e-07
4.41977e-07
4.42271e-07
4.22143e-07
4.42009e-07
4.42307e-07
7.01577e-07
7.28449e-07
4.22081e-07
4.42101e-07
4.42134e-07
7.28311e-07
7.36798e-07
7.65159e-07
4.49024e-07
4.4881e-07
4.7071e-07
4.70429e-07
7.36646e-07
7.64297e-07
4.48865e-07
4.48918e-07
4.70622e-07
4.70569e-07
4.49016e-07
4.70066e-07
4.70068e-07
7.3692e-07
7.64703e-07
4.48837e-07
4.70439e-07
4.70018e-07
7.64171e-07
7.74041e-07
7.99799e-07
4.7793e-07
4.78108e-07
4.9946e-07
5.00247e-07
7.73581e-07
8.0101e-07
4.77865e-07
4.78022e-07
4.9898e-07
4.99645e-07
4.77414e-07
5.00044e-07
5.00179e-07
7.73847e-07
8.00359e-07
4.7741e-07
4.99405e-07
4.99962e-07
8.00846e-07
8.08143e-07
8.32073e-07
5.06604e-07
5.07233e-07
5.27905e-07
5.27498e-07
8.09245e-07
8.31701e-07
5.05999e-07
5.06889e-07
5.27951e-07
5.28103e-07
5.07601e-07
5.27155e-07
5.27851e-07
8.0866e-07
8.32096e-07
5.07261e-07
5.27539e-07
5.27785e-07
8.33183e-07
8.4032e-07
8.65991e-07
5.34957e-07
5.34169e-07
5.56527e-07
5.55271e-07
8.39318e-07
8.61779e-07
5.35403e-07
5.34832e-07
5.57324e-07
5.55538e-07
5.34608e-07
5.54729e-07
5.58052e-07
8.39864e-07
8.63166e-07
5.34797e-07
5.55308e-07
5.58322e-07
8.66153e-07
8.74332e-07
8.96849e-07
5.6451e-07
5.63026e-07
5.8929e-07
5.90583e-07
8.70363e-07
9.00103e-07
5.64938e-07
5.63691e-07
5.87774e-07
5.92067e-07
5.66852e-07
5.9107e-07
5.89913e-07
8.71961e-07
9.02291e-07
5.66745e-07
5.92237e-07
5.88758e-07
8.9753e-07
9.04022e-07
9.21359e-07
5.96047e-07
5.98973e-07
6.12139e-07
6.17376e-07
9.08857e-07
9.27165e-07
5.94296e-07
6.00114e-07
6.1166e-07
6.17699e-07
5.94297e-07
6.16202e-07
6.07124e-07
9.11095e-07
9.26348e-07
5.93111e-07
6.1734e-07
6.07288e-07
9.13675e-07
9.29359e-07
9.75015e-07
6.19064e-07
6.23268e-07
6.5391e-07
6.38046e-07
9.33032e-07
9.50181e-07
6.19296e-07
6.22106e-07
6.55259e-07
6.30736e-07
6.13197e-07
6.38854e-07
6.4212e-07
9.30712e-07
9.39421e-07
6.13799e-07
6.31227e-07
6.4261e-07
9.5861e-07
9.91158e-07
1.04404e-06
6.69227e-07
6.43995e-07
7.11375e-07
6.89139e-07
9.58122e-07
1.01457e-06
6.70387e-07
6.3545e-07
7.10676e-07
6.91645e-07
6.57988e-07
6.87856e-07
7.21819e-07
9.45913e-07
1.01698e-06
6.58142e-07
6.89771e-07
7.21124e-07
1.0626e-06
1.05192e-06
1.05752e-06
7.19721e-07
7.13994e-07
7.35769e-07
7.96249e-07
1.03747e-06
1.15439e-06
7.18632e-07
7.2113e-07
7.35605e-07
8.07794e-07
7.43486e-07
7.97313e-07
7.78761e-07
1.04504e-06
1.1716e-06
7.42814e-07
8.09049e-07
7.79551e-07
1.12119e-06
1.0616e-06
1.06244e-06
7.41682e-07
8.14401e-07
7.54983e-07
8.04473e-07
1.1727e-06
1.09432e-06
7.41889e-07
8.22243e-07
7.54557e-07
7.84347e-07
7.79536e-07
8.06557e-07
7.40635e-07
1.18373e-06
1.06541e-06
7.80562e-07
7.86089e-07
7.40236e-07
1.03008e-06
1.06286e-06
9.92529e-07
7.54701e-07
7.55724e-07
7.1683e-07
6.17067e-07
1.0712e-06
8.18881e-07
7.53854e-07
7.32134e-07
7.1429e-07
6.14221e-07
7.18999e-07
6.16515e-07
6.40769e-07
1.04098e-06
8.18622e-07
7.17555e-07
6.13645e-07
6.38641e-07
8.70361e-07
9.86658e-07
9.16357e-07
6.99258e-07
5.87157e-07
6.59128e-07
5.77368e-07
8.00859e-07
7.97271e-07
6.97366e-07
5.96155e-07
6.60861e-07
6.25814e-07
6.17484e-07
5.71845e-07
5.95514e-07
8.09807e-07
8.7108e-07
6.16102e-07
6.17453e-07
5.96624e-07
8.38182e-07
9.16206e-07
9.39144e-07
6.53549e-07
6.14134e-07
6.64697e-07
7.7918e-07
8.35842e-07
1.09851e-06
6.56147e-07
6.62636e-07
6.66664e-07
7.8089e-07
6.09317e-07
7.77836e-07
7.7624e-07
9.09746e-07
1.08841e-06
6.12296e-07
7.78588e-07
7.78996e-07
1.08671e-06
9.64634e-07
1.15234e-06
6.99921e-07
8.39827e-07
8.57433e-07
9.50348e-07
1.14627e-06
1.27692e-06
6.99498e-07
8.21294e-07
8.54558e-07
9.1124e-07
8.31124e-07
9.62628e-07
9.03683e-07
1.11886e-06
1.22709e-06
8.32649e-07
9.23035e-07
9.01195e-07
1.19105e-06
1.19774e-06
1.28946e-06
9.10923e-07
9.58404e-07
9.85241e-07
9.19566e-07
1.28295e-06
1.19943e-06
9.08067e-07
9.24482e-07
9.84835e-07
9.04166e-07
8.96979e-07
9.12037e-07
8.7202e-07
1.23719e-06
1.1704e-06
8.94321e-07
8.96093e-07
8.71354e-07
1.12594e-06
5.35663e-07
5.35601e-07
5.35655e-07
5.35655e-07
5.34573e-07
5.35516e-07
5.33634e-07
5.35654e-07
5.34573e-07
5.35517e-07
5.35654e-07
5.33634e-07
5.35256e-07
5.35986e-07
5.35987e-07
1.10713e-06
3.88084e-06
9.33891e-07
4.60616e-06
1.26081e-05
1.66011e-05
1.10725e-06
3.88107e-06
9.33925e-07
4.60652e-06
4.95567e-07
4.95567e-07
4.95567e-07
4.57231e-07
4.57231e-07
4.57232e-07
4.57232e-07
5.43143e-07
1.22026e-06
4.95565e-07
4.85522e-07
5.25341e-07
1.20946e-06
4.82301e-07
1.26097e-05
1.66037e-05
5.43162e-07
4.95565e-07
1.22025e-06
4.85523e-07
5.2532e-07
4.82302e-07
1.20945e-06
2.52172e-06
2.52242e-06
4.8419e-07
2.37248e-06
2.37288e-06
1.4308e-06
5.59329e-06
1.32967e-06
6.13634e-06
2.12844e-05
2.31104e-05
1.4312e-06
5.59397e-06
1.32973e-06
6.137e-06
4.45572e-07
4.45573e-07
4.45573e-07
4.13542e-07
4.13542e-07
4.13543e-07
4.13543e-07
5.87084e-07
1.19483e-06
4.46434e-07
4.44291e-07
5.73801e-07
1.20431e-06
4.3569e-07
2.12866e-05
2.31141e-05
5.87102e-07
4.46435e-07
1.19484e-06
4.44294e-07
5.73811e-07
4.35692e-07
1.2044e-06
2.31171e-06
2.31222e-06
4.53488e-07
2.35332e-06
2.35378e-06
1.66327e-06
6.91802e-06
1.59584e-06
7.32016e-06
2.46404e-05
2.4937e-05
1.66337e-06
6.91885e-06
1.59576e-06
7.32109e-06
4.03752e-07
4.03753e-07
4.03753e-07
3.76689e-07
3.76689e-07
3.76691e-07
3.7669e-07
6.15569e-07
1.24281e-06
4.06546e-07
4.10617e-07
6.0838e-07
1.26558e-06
3.97729e-07
2.46436e-05
2.49405e-05
6.15585e-07
4.06547e-07
1.24291e-06
4.10622e-07
6.08396e-07
3.97732e-07
1.26574e-06
2.47396e-06
2.47444e-06
4.30179e-07
2.53268e-06
2.53316e-06
1.81233e-06
7.84634e-06
1.77234e-06
8.09935e-06
2.47365e-05
2.44303e-05
1.81247e-06
7.84734e-06
1.77234e-06
8.1007e-06
3.68362e-07
3.68365e-07
3.68364e-07
3.45192e-07
3.45192e-07
3.45195e-07
3.45194e-07
6.26293e-07
1.31312e-06
3.73478e-07
3.81656e-07
6.24882e-07
1.33369e-06
3.66029e-07
2.47388e-05
2.4434e-05
6.26306e-07
3.7348e-07
1.31321e-06
3.81662e-07
6.24894e-07
3.66032e-07
1.33385e-06
2.63523e-06
2.63572e-06
4.08471e-07
2.67932e-06
2.67982e-06
1.89283e-06
8.39541e-06
1.87319e-06
8.52949e-06
2.36923e-05
2.3265e-05
1.89299e-06
8.39658e-06
1.87321e-06
8.53109e-06
3.38014e-07
3.38017e-07
3.38016e-07
3.17912e-07
3.17911e-07
3.17915e-07
3.17914e-07
6.22109e-07
1.37211e-06
3.45239e-07
3.55922e-07
6.25445e-07
1.38709e-06
3.38764e-07
2.3694e-05
2.32683e-05
6.22123e-07
3.45241e-07
1.37219e-06
3.5593e-07
6.25457e-07
3.38768e-07
1.38726e-06
2.76344e-06
2.76398e-06
3.86837e-07
2.80537e-06
2.80591e-06
1.92987e-06
8.66291e-06
1.9218e-06
8.71877e-06
2.25015e-05
2.21201e-05
1.93005e-06
8.66426e-06
1.92183e-06
8.72033e-06
3.11645e-07
3.11649e-07
3.11648e-07
2.94001e-07
2.94e-07
2.94004e-07
2.94002e-07
6.08887e-07
1.41603e-06
3.20492e-07
3.32668e-07
6.15378e-07
1.4275e-06
3.14745e-07
2.25027e-05
2.21229e-05
6.08901e-07
3.20493e-07
1.4161e-06
3.32677e-07
6.15391e-07
3.14749e-07
1.42767e-06
2.89494e-06
2.89554e-06
3.65488e-07
2.94366e-06
2.9443e-06
1.94789e-06
8.75937e-06
1.94363e-06
8.77086e-06
2.14771e-05
2.11783e-05
1.94807e-06
8.7609e-06
1.94367e-06
8.77234e-06
2.88472e-07
2.88476e-07
2.88474e-07
2.72839e-07
2.72838e-07
2.72842e-07
2.72841e-07
5.91864e-07
1.45274e-06
2.98409e-07
3.11548e-07
5.99369e-07
1.46399e-06
2.93242e-07
2.14782e-05
2.11809e-05
5.91879e-07
2.98411e-07
1.45281e-06
3.11557e-07
5.99383e-07
2.93246e-07
1.46415e-06
3.04864e-06
3.04933e-06
3.4506e-07
3.10629e-06
3.10708e-06
1.9656e-06
8.76847e-06
1.95959e-06
8.76347e-06
2.0674e-05
2.04527e-05
1.96577e-06
8.76998e-06
1.95963e-06
8.76492e-06
2.67922e-07
2.67926e-07
2.67925e-07
2.53977e-07
2.53976e-07
2.5398e-07
2.53978e-07
5.75448e-07
1.49166e-06
2.785e-07
2.92425e-07
5.82273e-07
1.50545e-06
2.73825e-07
2.06753e-05
2.04549e-05
5.75463e-07
2.78501e-07
1.49174e-06
2.92434e-07
5.82287e-07
2.73829e-07
1.50561e-06
3.22565e-06
3.22646e-06
3.26205e-07
3.29186e-06
3.29281e-06
1.99556e-06
8.74905e-06
1.98436e-06
8.74321e-06
2.00718e-05
1.99104e-05
1.99573e-06
8.7506e-06
1.98437e-06
8.74472e-06
2.49579e-07
2.49583e-07
2.49581e-07
2.37082e-07
2.37082e-07
2.37086e-07
2.37084e-07
5.629e-07
1.53977e-06
2.60474e-07
2.75263e-07
5.67828e-07
1.5577e-06
2.56239e-07
2.00736e-05
1.99121e-05
5.62915e-07
2.60475e-07
1.53987e-06
2.75272e-07
5.67844e-07
2.56243e-07
1.55783e-06
3.42125e-06
3.42218e-06
3.09448e-07
3.49283e-06
3.494e-06
2.04525e-06
8.7333e-06
2.02677e-06
8.73152e-06
1.96318e-05
1.95161e-05
2.04543e-06
8.73499e-06
2.02679e-06
8.73309e-06
2.33136e-07
2.3314e-07
2.33138e-07
2.21912e-07
2.2191e-07
2.21915e-07
2.21913e-07
5.565e-07
1.60096e-06
2.44157e-07
2.60063e-07
5.58641e-07
1.62363e-06
2.40331e-07
1.96337e-05
1.9518e-05
5.56518e-07
2.44158e-07
1.60102e-06
2.60072e-07
5.58659e-07
2.40334e-07
1.62378e-06
3.62738e-06
3.62849e-06
2.95169e-07
3.70129e-06
3.70265e-06
2.11901e-06
8.7309e-06
2.092e-06
8.73375e-06
1.9317e-05
1.9236e-05
2.11911e-06
8.73254e-06
2.09214e-06
8.73553e-06
2.18365e-07
2.18369e-07
2.18367e-07
2.08276e-07
2.08275e-07
2.08279e-07
2.08278e-07
5.57609e-07
1.67643e-06
2.29438e-07
2.4683e-07
5.56737e-07
1.70375e-06
2.25997e-07
1.93189e-05
1.92378e-05
5.57623e-07
2.29439e-07
1.67647e-06
2.4684e-07
5.56753e-07
2.26001e-07
1.70394e-06
3.8358e-06
3.83706e-06
2.83638e-07
3.90915e-06
3.91071e-06
2.21867e-06
8.74028e-06
2.18281e-06
8.74728e-06
1.9096e-05
1.90401e-05
2.21865e-06
8.74215e-06
2.18317e-06
8.74894e-06
2.05089e-07
2.05093e-07
2.05091e-07
1.9603e-07
1.96029e-07
1.96033e-07
1.96031e-07
5.6694e-07
1.76539e-06
2.16237e-07
2.35565e-07
5.63109e-07
1.79674e-06
2.13166e-07
1.90978e-05
1.90419e-05
5.66975e-07
2.16238e-07
1.76545e-06
2.35575e-07
5.63119e-07
2.1317e-07
1.79695e-06
4.0387e-06
4.04011e-06
2.75008e-07
4.10923e-06
4.11097e-06
2.34377e-06
8.75824e-06
2.2993e-06
8.76722e-06
1.89423e-05
1.89036e-05
2.34404e-06
8.76005e-06
2.29948e-06
8.76898e-06
1.9317e-07
1.93175e-07
1.93173e-07
1.85054e-07
1.85053e-07
1.85057e-07
1.85055e-07
5.85849e-07
1.86568e-06
2.04494e-07
2.2627e-07
5.78766e-07
1.9003e-06
2.01779e-07
1.8944e-05
1.89055e-05
5.85898e-07
2.04495e-07
1.8658e-06
2.26281e-07
5.78784e-07
2.01783e-07
1.90049e-06
4.22975e-06
4.23129e-06
2.69468e-07
4.29511e-06
4.297e-06
2.49195e-06
8.77945e-06
2.43869e-06
8.78833e-06
1.88345e-05
1.88074e-05
2.49263e-06
8.78139e-06
2.43814e-06
8.79011e-06
1.82497e-07
1.82501e-07
1.82499e-07
1.75253e-07
1.75252e-07
1.75256e-07
1.75254e-07
6.14928e-07
1.97457e-06
1.94157e-07
2.18953e-07
6.0434e-07
2.01136e-06
1.91786e-07
1.88363e-05
1.88092e-05
6.14931e-07
1.94157e-07
1.97469e-06
2.18965e-07
6.04415e-07
1.9179e-07
2.01156e-06
4.40371e-06
4.40538e-06
2.67056e-07
4.46271e-06
4.46469e-06
2.65702e-06
8.80008e-06
2.59675e-06
8.80844e-06
1.87566e-05
1.87369e-05
2.65764e-06
8.80211e-06
2.5966e-06
8.81034e-06
1.72978e-07
1.72983e-07
1.72981e-07
1.66551e-07
1.6655e-07
1.66555e-07
1.66553e-07
6.54299e-07
2.08873e-06
1.85183e-07
2.13623e-07
6.40361e-07
2.1265e-06
1.83145e-07
1.87584e-05
1.87386e-05
6.5437e-07
1.85183e-07
2.08886e-06
2.13636e-07
6.40361e-07
1.8315e-07
2.12672e-06
4.55795e-06
4.55971e-06
2.67673e-07
4.60944e-06
4.61153e-06
2.83106e-06
8.81918e-06
2.76799e-06
8.82689e-06
1.86972e-05
1.86816e-05
2.83164e-06
8.82097e-06
2.7677e-06
8.82872e-06
1.64541e-07
1.64545e-07
1.64543e-07
1.58883e-07
1.58881e-07
1.58886e-07
1.58883e-07
7.04086e-07
2.20466e-06
1.77535e-07
2.10284e-07
6.86678e-07
2.24236e-06
1.75823e-07
1.86987e-05
1.86834e-05
7.04111e-07
1.77535e-07
2.2048e-06
2.10301e-07
6.86747e-07
1.75828e-07
2.24255e-06
4.69116e-06
4.69299e-06
2.71514e-07
4.73467e-06
4.73671e-06
3.00756e-06
8.83641e-06
2.94292e-06
8.84349e-06
1.86484e-05
1.86352e-05
3.00796e-06
8.83837e-06
2.94283e-06
8.84537e-06
1.5712e-07
1.57126e-07
1.57123e-07
1.52193e-07
1.52191e-07
1.52197e-07
1.52194e-07
7.63688e-07
2.31923e-06
1.71187e-07
2.08953e-07
7.43125e-07
2.35575e-06
1.69795e-07
1.86499e-05
1.86367e-05
7.63721e-07
1.71186e-07
2.31933e-06
2.08974e-07
7.43169e-07
1.69799e-07
2.35599e-06
4.80341e-06
4.80525e-06
2.78701e-07
4.83995e-06
4.84204e-06
3.17665e-06
8.85253e-06
3.11543e-06
8.85894e-06
1.86058e-05
1.85937e-05
3.17726e-06
8.85437e-06
3.11513e-06
8.86096e-06
1.50667e-07
1.50673e-07
1.5067e-07
1.46434e-07
1.46432e-07
1.46438e-07
1.46435e-07
8.32125e-07
2.42954e-06
1.6612e-07
2.0966e-07
8.08812e-07
2.46426e-06
1.65046e-07
1.86073e-05
1.85955e-05
8.32183e-07
1.6612e-07
2.42968e-06
2.09683e-07
8.08829e-07
1.6505e-07
2.4645e-06
4.89707e-06
4.89895e-06
2.89275e-07
4.92707e-06
4.92915e-06
3.3327e-06
8.86744e-06
3.27615e-06
8.87368e-06
1.85669e-05
1.85564e-05
3.33297e-06
8.86943e-06
3.27625e-06
8.87573e-06
1.45135e-07
1.45141e-07
1.45137e-07
1.41572e-07
1.41569e-07
1.41576e-07
1.41572e-07
9.0795e-07
2.53366e-06
1.62329e-07
2.12431e-07
8.82361e-07
2.56584e-06
1.61567e-07
1.85685e-05
1.85579e-05
9.07976e-07
1.62328e-07
2.5338e-06
2.12458e-07
8.82422e-07
1.61572e-07
2.56605e-06
4.97427e-06
4.97614e-06
3.03247e-07
4.9984e-06
5.00046e-06
3.46997e-06
8.88189e-06
3.42101e-06
8.8878e-06
1.85312e-05
1.85213e-05
3.47066e-06
8.88381e-06
3.42058e-06
8.88968e-06
1.40488e-07
1.40496e-07
1.40492e-07
1.37573e-07
1.3757e-07
1.37579e-07
1.37573e-07
9.89088e-07
2.6299e-06
1.59809e-07
2.17291e-07
9.62031e-07
2.6593e-06
1.59362e-07
1.85327e-05
1.8523e-05
9.89151e-07
1.59811e-07
2.62999e-06
2.17324e-07
9.62067e-07
1.59367e-07
2.65955e-06
5.0375e-06
5.03939e-06
3.20624e-07
5.05677e-06
5.05883e-06
3.58662e-06
8.8955e-06
3.54543e-06
8.9009e-06
1.84976e-05
1.84883e-05
3.58701e-06
8.8973e-06
3.54548e-06
8.90274e-06
1.36699e-07
1.36708e-07
1.36703e-07
1.34411e-07
1.34408e-07
1.34418e-07
1.34412e-07
1.07347e-06
2.71747e-06
1.58572e-07
2.24266e-07
1.04552e-06
2.74403e-06
1.58439e-07
1.84994e-05
1.84903e-05
1.07349e-06
1.58575e-07
2.71758e-06
2.243e-07
1.04561e-06
1.58442e-07
2.74423e-06
5.08911e-06
5.09098e-06
3.41346e-07
5.10461e-06
5.10667e-06
3.68222e-06
8.90821e-06
3.64903e-06
8.91286e-06
1.84663e-05
1.84581e-05
3.68269e-06
8.90979e-06
3.64889e-06
8.91472e-06
1.33743e-07
1.33753e-07
1.33747e-07
1.32067e-07
1.32065e-07
1.32075e-07
1.32067e-07
1.15862e-06
2.7962e-06
1.58614e-07
2.33343e-07
1.13069e-06
2.8199e-06
1.58828e-07
1.84683e-05
1.84599e-05
1.15861e-06
1.58611e-07
2.79635e-06
2.33383e-07
1.13074e-06
1.58838e-07
2.82004e-06
5.13134e-06
5.13321e-06
3.6527e-07
5.14381e-06
5.14582e-06
3.75854e-06
8.91924e-06
3.73246e-06
8.92376e-06
1.84376e-05
1.84299e-05
3.75899e-06
8.92106e-06
3.7322e-06
8.9255e-06
1.31602e-07
1.31612e-07
1.31605e-07
1.3053e-07
1.30526e-07
1.30535e-07
1.30531e-07
1.24246e-06
2.86623e-06
1.59985e-07
2.44536e-07
1.21521e-06
2.88714e-06
1.60532e-07
1.84395e-05
1.84317e-05
1.24246e-06
1.59982e-07
2.86634e-06
2.44573e-07
1.21527e-06
1.60542e-07
2.88732e-06
5.16606e-06
5.16799e-06
3.92245e-07
5.17616e-06
5.17811e-06
3.81808e-06
8.92906e-06
3.79788e-06
8.93311e-06
1.84112e-05
1.84043e-05
3.81842e-06
8.93107e-06
3.79775e-06
8.93488e-06
1.30251e-07
1.30262e-07
1.30256e-07
1.29778e-07
1.29773e-07
1.29789e-07
1.29775e-07
1.32314e-06
2.92828e-06
1.62689e-07
2.57798e-07
1.29709e-06
2.94663e-06
1.63572e-07
1.8413e-05
1.8406e-05
1.32315e-06
1.62687e-07
2.92843e-06
2.57846e-07
1.29721e-06
1.63587e-07
2.9467e-06
5.19464e-06
5.19661e-06
4.21982e-07
5.20297e-06
5.20489e-06
3.86344e-06
8.93782e-06
3.84834e-06
8.94124e-06
1.83869e-05
1.83809e-05
3.86378e-06
8.93966e-06
3.84829e-06
8.94304e-06
1.29694e-07
1.2971e-07
1.29698e-07
1.29802e-07
1.29797e-07
1.2981e-07
1.29804e-07
1.39915e-06
2.98281e-06
1.66745e-07
2.73104e-07
1.37478e-06
2.99898e-06
1.67976e-07
1.83887e-05
1.83825e-05
1.3992e-06
1.66745e-07
2.98311e-06
2.73163e-07
1.37492e-06
1.67992e-07
2.99915e-06
5.21861e-06
5.22059e-06
4.54061e-07
5.22541e-06
5.22738e-06
3.89784e-06
8.94554e-06
3.88681e-06
8.94829e-06
1.83646e-05
1.83598e-05
3.89831e-06
8.94751e-06
3.88698e-06
8.95048e-06
1.29923e-07
1.29936e-07
1.29933e-07
1.30565e-07
1.30582e-07
1.30591e-07
1.3059e-07
1.46967e-06
3.0309e-06
1.72192e-07
2.90372e-07
1.44727e-06
3.0452e-06
1.73764e-07
1.83666e-05
1.83612e-05
1.46972e-06
1.72181e-07
3.03115e-06
2.90394e-07
1.4473e-06
1.73767e-07
3.04534e-06
5.23881e-06
5.24078e-06
4.88247e-07
5.24448e-06
5.2465e-06
3.92437e-06
8.95233e-06
3.91641e-06
8.95517e-06
1.83449e-05
1.83406e-05
3.92477e-06
8.95392e-06
3.91628e-06
8.95683e-06
1.30896e-07
1.3091e-07
1.30907e-07
1.32171e-07
1.32163e-07
1.32189e-07
1.32173e-07
1.53407e-06
3.07326e-06
1.78994e-07
3.0945e-07
1.51392e-06
3.08573e-06
1.80911e-07
1.83469e-05
1.83419e-05
1.53411e-06
1.78987e-07
3.07336e-06
3.09487e-07
1.51385e-06
1.80924e-07
3.0857e-06
5.25582e-06
5.25775e-06
5.23839e-07
5.26044e-06
5.26242e-06
3.94434e-06
8.95832e-06
3.93813e-06
8.96067e-06
1.83275e-05
1.83245e-05
3.94532e-06
8.96055e-06
3.93844e-06
8.96329e-06
1.32694e-07
1.32726e-07
1.327e-07
1.34579e-07
1.34542e-07
1.34569e-07
1.34544e-07
1.59241e-06
3.11058e-06
1.87189e-07
3.30499e-07
1.5741e-06
3.12197e-06
1.89463e-07
1.83298e-05
1.8326e-05
1.59243e-06
1.87211e-07
3.11076e-06
3.30619e-07
1.57413e-06
1.89514e-07
3.12219e-06
5.2703e-06
5.27215e-06
5.6104e-07
5.27496e-06
5.27692e-06
3.9602e-06
8.9647e-06
3.95583e-06
8.96718e-06
1.8313e-05
1.831e-05
3.96136e-06
8.96629e-06
3.95569e-06
8.96954e-06
1.35252e-07
1.35277e-07
1.35236e-07
1.3755e-07
1.37572e-07
1.37583e-07
1.37617e-07
1.64517e-06
3.14458e-06
1.96818e-07
3.53095e-07
1.6287e-06
3.15456e-06
1.99431e-07
1.8315e-05
1.83121e-05
1.64488e-06
1.96816e-07
3.14473e-06
3.53172e-07
1.62879e-06
1.99425e-07
3.15482e-06
5.2838e-06
5.2857e-06
5.98488e-07
5.2878e-06
5.28979e-06
3.97211e-06
8.96983e-06
3.96934e-06
8.9718e-06
1.82999e-05
1.8297e-05
3.97272e-06
8.97107e-06
3.96869e-06
8.97354e-06
1.38425e-07
1.38434e-07
1.38498e-07
1.41395e-07
1.41388e-07
1.41408e-07
1.41406e-07
1.69188e-06
3.17456e-06
2.07675e-07
3.76662e-07
1.67728e-06
3.18322e-06
2.10575e-07
1.83015e-05
1.82991e-05
1.69142e-06
2.07647e-07
3.17441e-06
3.76669e-07
1.67728e-06
2.10581e-07
3.18309e-06
5.29499e-06
5.29674e-06
6.35777e-07
5.2984e-06
5.29998e-06
3.98303e-06
8.97602e-06
3.98022e-06
8.97815e-06
1.82876e-05
1.82865e-05
3.98333e-06
8.97709e-06
3.97922e-06
8.9807e-06
1.42506e-07
1.42539e-07
1.4251e-07
1.46173e-07
1.46165e-07
1.46199e-07
1.46089e-07
1.73355e-06
3.20046e-06
2.19798e-07
4.02174e-07
1.71987e-06
3.2091e-06
2.23096e-07
1.82889e-05
1.82884e-05
1.73378e-06
2.19881e-07
3.20062e-06
4.0228e-07
1.72078e-06
2.23183e-07
3.20912e-06
5.30564e-06
5.3079e-06
6.73216e-07
5.3084e-06
5.31018e-06
3.99157e-06
8.98155e-06
3.98879e-06
8.98501e-06
1.82826e-05
1.82814e-05
3.99181e-06
8.98421e-06
3.9892e-06
8.98705e-06
1.4744e-07
1.47476e-07
1.47386e-07
1.51365e-07
1.51371e-07
1.51404e-07
1.51425e-07
1.77187e-06
3.22675e-06
2.33537e-07
4.28909e-07
1.75971e-06
3.23408e-06
2.37114e-07
1.82851e-05
1.82836e-05
1.77214e-06
2.33513e-07
3.22734e-06
4.28996e-07
1.75964e-06
2.37107e-07
3.23402e-06
5.31542e-06
5.31775e-06
7.1038e-07
5.31968e-06
5.32139e-06
3.99823e-06
8.98715e-06
3.9963e-06
8.99e-06
1.82743e-05
1.82721e-05
3.99782e-06
8.98872e-06
3.99639e-06
8.99157e-06
1.52744e-07
1.52796e-07
1.52839e-07
1.57805e-07
1.57683e-07
1.57781e-07
1.57613e-07
1.8052e-06
3.24822e-06
2.48145e-07
4.55437e-07
1.79466e-06
3.25362e-06
2.51937e-07
1.82744e-05
1.82736e-05
1.80571e-06
2.48124e-07
3.24798e-06