/*--------------------------------*- C++ -*----------------------------------*\
| =========                 |                                                 |
| \\      /  F ield         | OpenFOAM: The Open Source CFD Toolbox           |
|  \\    /   O peration     | Version:  v2012                                 |
|   \\  /    A nd           | Website:  www.openfoam.com                      |
|    \\/     M anipulation  |                                                 |
\*---------------------------------------------------------------------------*/
FoamFile
{
    version     2.0;
    format      ascii;
    class       volScalarField;
    location    "1000";
    object      k;
}
// * * * * * * * * * * * * * * * * * * * * * * * * * * * * * * * * * * * * * //

dimensions      [0 2 -2 0 0 0 0];


internalField   nonuniform List<scalar> 
85864
(
3.58932e-05
3.58912e-05
3.58912e-05
3.59957e-05
3.39296e-05
3.3889e-05
3.3889e-05
3.39622e-05
3.21578e-05
3.20081e-05
3.20081e-05
3.19522e-05
3.05346e-05
3.02293e-05
3.02292e-05
2.99884e-05
2.90329e-05
2.8554e-05
2.85539e-05
2.81226e-05
2.76353e-05
2.69872e-05
2.69871e-05
2.63907e-05
2.63308e-05
2.5531e-05
2.55309e-05
2.48073e-05
2.51112e-05
2.4185e-05
2.41848e-05
2.33782e-05
2.39709e-05
2.29506e-05
2.29504e-05
2.21047e-05
2.29057e-05
2.18269e-05
2.18267e-05
2.0986e-05
2.1912e-05
2.08114e-05
2.08112e-05
2.00133e-05
2.09864e-05
1.99013e-05
1.99011e-05
1.91814e-05
2.01241e-05
1.90947e-05
1.90945e-05
1.84896e-05
1.93238e-05
1.83884e-05
1.83883e-05
1.79328e-05
1.85848e-05
1.77793e-05
1.77792e-05
1.75062e-05
1.79042e-05
1.72656e-05
1.72656e-05
1.72001e-05
1.72798e-05
1.68467e-05
1.68467e-05
1.70229e-05
1.67097e-05
1.65211e-05
1.65214e-05
1.69822e-05
1.61924e-05
1.62897e-05
1.629e-05
1.70793e-05
1.57254e-05
1.61518e-05
1.6152e-05
1.73039e-05
1.53073e-05
1.61073e-05
1.61078e-05
1.76571e-05
1.49373e-05
1.61528e-05
1.61537e-05
1.81342e-05
1.46144e-05
1.62915e-05
1.62922e-05
1.87277e-05
1.43379e-05
1.65192e-05
1.65208e-05
1.94258e-05
1.41076e-05
1.68347e-05
1.68353e-05
2.02217e-05
1.3923e-05
1.72332e-05
1.72358e-05
2.10894e-05
1.37861e-05
1.77178e-05
1.77177e-05
2.20391e-05
1.36861e-05
1.82655e-05
1.82644e-05
2.30148e-05
1.36436e-05
1.89102e-05
1.89154e-05
2.40756e-05
1.36489e-05
1.96175e-05
1.96188e-05
2.51495e-05
1.36731e-05
2.0342e-05
2.03414e-05
2.62021e-05
1.37692e-05
2.11572e-05
2.11681e-05
2.72637e-05
1.39167e-05
2.20712e-05
2.20617e-05
2.83806e-05
1.40525e-05
2.28558e-05
2.28622e-05
2.93585e-05
1.43633e-05
2.39457e-05
2.39852e-05
3.04747e-05
1.45516e-05
2.48952e-05
2.47972e-05
3.16106e-05
1.49121e-05
2.5714e-05
2.5789e-05
3.23294e-05
1.52154e-05
2.66731e-05
2.67042e-05
3.38423e-05
1.58071e-05
2.83437e-05
2.84162e-05
3.44687e-05
1.58399e-05
2.86492e-05
2.87553e-05
3.39366e-05
1.70518e-05
2.90248e-05
2.8373e-05
3.59233e-05
1.84111e-05
3.21102e-05
3.27201e-05
4.19062e-05
1.89921e-05
3.94179e-05
4.00431e-05
4.456e-05
1.88724e-05
3.66385e-05
3.41669e-05
3.73488e-05
1.64608e-05
2.33149e-05
2.39318e-05
3.00324e-05
1.49772e-05
2.34985e-05
2.72757e-05
2.88182e-05
1.44165e-05
4.04336e-05
3.82642e-05
4.80002e-05
3.63068e-05
3.6291e-05
3.6291e-05
3.63068e-05
3.6291e-05
3.6291e-05
3.6423e-05
3.6423e-05
3.6423e-05
3.6423e-05
3.6291e-05
3.6291e-05
3.63068e-05
3.6291e-05
3.6291e-05
3.63068e-05
3.59957e-05
3.42687e-05
3.58912e-05
3.58912e-05
3.43767e-05
3.43766e-05
3.59957e-05
3.42687e-05
3.58911e-05
3.58912e-05
3.43767e-05
3.43766e-05
3.58912e-05
3.43767e-05
3.43767e-05
3.59957e-05
3.42687e-05
3.58912e-05
3.43767e-05
3.43767e-05
3.42687e-05
3.39623e-05
3.22635e-05
3.38889e-05
3.38889e-05
3.24684e-05
3.24683e-05
3.39623e-05
3.22635e-05
3.38889e-05
3.38889e-05
3.24684e-05
3.24683e-05
3.38889e-05
3.24685e-05
3.24684e-05
3.39623e-05
3.22634e-05
3.38889e-05
3.24685e-05
3.24684e-05
3.22634e-05
3.19522e-05
3.02993e-05
3.20079e-05
3.20078e-05
3.06643e-05
3.06642e-05
3.19522e-05
3.02994e-05
3.2008e-05
3.20078e-05
3.06644e-05
3.06641e-05
3.20079e-05
3.06646e-05
3.06643e-05
3.19522e-05
3.02992e-05
3.2008e-05
3.06645e-05
3.06644e-05
3.02992e-05
2.99885e-05
2.84253e-05
3.0229e-05
3.02288e-05
2.89624e-05
2.89622e-05
2.99886e-05
2.84255e-05
3.02291e-05
3.02287e-05
2.89626e-05
2.89621e-05
3.02289e-05
2.89628e-05
2.89623e-05
2.99884e-05
2.84252e-05
3.02291e-05
2.89627e-05
2.89626e-05
2.84252e-05
2.81227e-05
2.6674e-05
2.85536e-05
2.85534e-05
2.7368e-05
2.73678e-05
2.81228e-05
2.66742e-05
2.85538e-05
2.85533e-05
2.73683e-05
2.73676e-05
2.85535e-05
2.73685e-05
2.73679e-05
2.81226e-05
2.66739e-05
2.85538e-05
2.73684e-05
2.73683e-05
2.66738e-05
2.63908e-05
2.50663e-05
2.69866e-05
2.69864e-05
2.58841e-05
2.58838e-05
2.6391e-05
2.50665e-05
2.69869e-05
2.69862e-05
2.58845e-05
2.58836e-05
2.69865e-05
2.58848e-05
2.5884e-05
2.63907e-05
2.50661e-05
2.69869e-05
2.58846e-05
2.58845e-05
2.50661e-05
2.48075e-05
2.36125e-05
2.55303e-05
2.553e-05
2.45103e-05
2.45099e-05
2.48077e-05
2.36127e-05
2.55308e-05
2.55299e-05
2.45107e-05
2.45097e-05
2.55302e-05
2.45111e-05
2.45102e-05
2.48073e-05
2.36123e-05
2.55307e-05
2.45109e-05
2.45107e-05
2.36123e-05
2.33784e-05
2.23124e-05
2.41842e-05
2.41838e-05
2.32478e-05
2.32475e-05
2.33786e-05
2.23126e-05
2.41847e-05
2.41836e-05
2.32484e-05
2.32473e-05
2.41841e-05
2.32488e-05
2.32478e-05
2.33782e-05
2.23122e-05
2.41846e-05
2.32485e-05
2.32484e-05
2.23122e-05
2.2105e-05
2.11681e-05
2.29497e-05
2.29494e-05
2.20966e-05
2.20962e-05
2.21051e-05
2.11683e-05
2.29503e-05
2.29491e-05
2.20972e-05
2.2096e-05
2.29496e-05
2.20976e-05
2.20965e-05
2.21047e-05
2.11679e-05
2.29503e-05
2.20974e-05
2.20972e-05
2.11678e-05
2.09863e-05
2.01707e-05
2.18258e-05
2.18255e-05
2.10541e-05
2.10538e-05
2.09865e-05
2.01709e-05
2.18265e-05
2.18253e-05
2.10549e-05
2.10536e-05
2.18258e-05
2.10552e-05
2.10541e-05
2.09861e-05
2.01705e-05
2.18265e-05
2.1055e-05
2.10549e-05
2.01704e-05
2.00137e-05
1.93146e-05
2.08103e-05
2.081e-05
2.0118e-05
2.01177e-05
2.00138e-05
1.93148e-05
2.08111e-05
2.08097e-05
2.01188e-05
2.01174e-05
2.08102e-05
2.01191e-05
2.01179e-05
2.00134e-05
1.93144e-05
2.0811e-05
2.01189e-05
2.01188e-05
1.93143e-05
1.91817e-05
1.85904e-05
1.99002e-05
1.98998e-05
1.92856e-05
1.92853e-05
1.91818e-05
1.85906e-05
1.9901e-05
1.98996e-05
1.92864e-05
1.9285e-05
1.99001e-05
1.92867e-05
1.92855e-05
1.91815e-05
1.85901e-05
1.9901e-05
1.92865e-05
1.92864e-05
1.859e-05
1.84898e-05
1.79976e-05
1.90935e-05
1.90933e-05
1.85545e-05
1.85542e-05
1.84899e-05
1.79979e-05
1.90944e-05
1.90931e-05
1.85553e-05
1.8554e-05
1.90935e-05
1.85556e-05
1.85544e-05
1.84896e-05
1.79976e-05
1.90944e-05
1.85554e-05
1.85553e-05
1.79973e-05
1.79332e-05
1.75392e-05
1.83874e-05
1.83871e-05
1.79213e-05
1.79211e-05
1.79334e-05
1.75392e-05
1.83882e-05
1.83869e-05
1.79221e-05
1.79209e-05
1.83874e-05
1.79223e-05
1.79213e-05
1.79331e-05
1.75391e-05
1.83883e-05
1.79222e-05
1.79222e-05
1.7539e-05
1.75064e-05
1.72177e-05
1.77784e-05
1.77781e-05
1.73839e-05
1.73837e-05
1.75065e-05
1.72177e-05
1.77792e-05
1.77779e-05
1.73847e-05
1.73835e-05
1.77783e-05
1.73847e-05
1.73838e-05
1.75064e-05
1.72176e-05
1.77791e-05
1.73846e-05
1.73846e-05
1.72173e-05
1.72005e-05
1.70264e-05
1.72648e-05
1.72646e-05
1.69412e-05
1.6941e-05
1.72004e-05
1.70263e-05
1.72655e-05
1.72644e-05
1.69419e-05
1.6941e-05
1.72647e-05
1.69419e-05
1.69411e-05
1.72003e-05
1.70265e-05
1.72656e-05
1.6942e-05
1.69419e-05
1.70262e-05
1.70232e-05
1.69731e-05
1.68459e-05
1.68458e-05
1.65923e-05
1.65922e-05
1.7023e-05
1.69729e-05
1.68466e-05
1.68458e-05
1.65929e-05
1.65921e-05
1.68459e-05
1.65928e-05
1.65922e-05
1.70232e-05
1.6973e-05
1.68467e-05
1.65929e-05
1.6593e-05
1.69729e-05
1.69824e-05
1.70436e-05
1.65208e-05
1.65205e-05
1.63369e-05
1.63368e-05
1.6982e-05
1.70434e-05
1.65215e-05
1.65206e-05
1.63375e-05
1.6337e-05
1.65208e-05
1.63372e-05
1.63369e-05
1.69823e-05
1.70439e-05
1.65215e-05
1.63375e-05
1.63376e-05
1.70437e-05
1.70791e-05
1.72436e-05
1.62894e-05
1.62893e-05
1.61754e-05
1.61754e-05
1.7079e-05
1.7243e-05
1.62899e-05
1.62895e-05
1.6176e-05
1.61756e-05
1.62893e-05
1.61756e-05
1.61754e-05
1.70795e-05
1.72436e-05
1.629e-05
1.61759e-05
1.6176e-05
1.72438e-05
1.73038e-05
1.75719e-05
1.61516e-05
1.61516e-05
1.61072e-05
1.61074e-05
1.73035e-05
1.75715e-05
1.61521e-05
1.61517e-05
1.61078e-05
1.61076e-05
1.61515e-05
1.61072e-05
1.61072e-05
1.7304e-05
1.75725e-05
1.61522e-05
1.61077e-05
1.61078e-05
1.75721e-05
1.7657e-05
1.80237e-05
1.61073e-05
1.61075e-05
1.61325e-05
1.61329e-05
1.76565e-05
1.8024e-05
1.61079e-05
1.61077e-05
1.6133e-05
1.61331e-05
1.61073e-05
1.61325e-05
1.61331e-05
1.76573e-05
1.80251e-05
1.61079e-05
1.61331e-05
1.61335e-05
1.80253e-05
1.81321e-05
1.85976e-05
1.6153e-05
1.61534e-05
1.6249e-05
1.62493e-05
1.81322e-05
1.85969e-05
1.61535e-05
1.61538e-05
1.62493e-05
1.62495e-05
1.61537e-05
1.62488e-05
1.62489e-05
1.81335e-05
1.85977e-05
1.61541e-05
1.62492e-05
1.62493e-05
1.85966e-05
1.8729e-05
1.92733e-05
1.6292e-05
1.62921e-05
1.64538e-05
1.64542e-05
1.87278e-05
1.92724e-05
1.62926e-05
1.62929e-05
1.64541e-05
1.6455e-05
1.6292e-05
1.64533e-05
1.64541e-05
1.87286e-05
1.92747e-05
1.62924e-05
1.64546e-05
1.64547e-05
1.92738e-05
1.94254e-05
2.00483e-05
1.65197e-05
1.65203e-05
1.67484e-05
1.67495e-05
1.94245e-05
2.00488e-05
1.65202e-05
1.65212e-05
1.67487e-05
1.67485e-05
1.65197e-05
1.67483e-05
1.67492e-05
1.94266e-05
2.00474e-05
1.65202e-05
1.67479e-05
1.67497e-05
2.00504e-05
2.02187e-05
2.09046e-05
1.68354e-05
1.6836e-05
1.71276e-05
1.71274e-05
2.0218e-05
2.09014e-05
1.68356e-05
1.68357e-05
1.71266e-05
1.71285e-05
1.68364e-05
1.71251e-05
1.71273e-05
2.0217e-05
2.09053e-05
1.68373e-05
1.7127e-05
1.71275e-05
2.0903e-05
2.10928e-05
2.18449e-05
1.72351e-05
1.72357e-05
1.75954e-05
1.75914e-05
2.1088e-05
2.18392e-05
1.72342e-05
1.72376e-05
1.75967e-05
1.75927e-05
1.72338e-05
1.75903e-05
1.75922e-05
2.10922e-05
2.184e-05
1.72341e-05
1.75912e-05
1.75917e-05
2.18352e-05
2.20474e-05
2.27863e-05
1.77224e-05
1.77189e-05
1.81145e-05
1.81252e-05
2.20388e-05
2.28073e-05
1.77236e-05
1.77187e-05
1.81121e-05
1.81234e-05
1.77211e-05
1.81232e-05
1.81248e-05
2.2038e-05
2.28031e-05
1.77209e-05
1.8121e-05
1.81249e-05
2.28085e-05
2.2995e-05
2.38502e-05
1.82594e-05
1.82668e-05
1.87409e-05
1.8741e-05
2.30171e-05
2.38439e-05
1.82576e-05
1.82669e-05
1.87418e-05
1.87437e-05
1.82683e-05
1.87401e-05
1.87386e-05
2.30112e-05
2.38509e-05
1.82686e-05
1.87419e-05
1.87376e-05
2.38467e-05
2.40847e-05
2.49442e-05
1.891e-05
1.89122e-05
1.94498e-05
1.94384e-05
2.40749e-05
2.49298e-05
1.89123e-05
1.89171e-05
1.945e-05
1.94387e-05
1.89097e-05
1.9433e-05
1.94384e-05
2.40806e-05
2.49385e-05
1.89103e-05
1.94375e-05
1.9439e-05
2.4929e-05
2.51681e-05
2.5935e-05
1.96279e-05
1.96219e-05
2.01484e-05
2.01625e-05
2.51579e-05
2.59561e-05
1.9628e-05
1.96204e-05
2.01434e-05
2.01673e-05
1.96091e-05
2.0163e-05
2.01718e-05
2.51642e-05
2.59597e-05
1.96053e-05
2.01644e-05
2.01689e-05
2.5966e-05
2.61493e-05
2.70406e-05
2.0331e-05
2.0339e-05
2.09541e-05
2.09405e-05
2.61753e-05
2.70122e-05
2.03217e-05
2.03424e-05
2.09485e-05
2.09267e-05
2.03646e-05
2.09331e-05
2.09515e-05
2.61767e-05
2.70039e-05
2.03626e-05
2.09302e-05
2.09501e-05
2.70351e-05
2.72993e-05
2.81703e-05
2.11779e-05
2.11677e-05
2.18496e-05
2.18566e-05
2.72654e-05
2.81861e-05
2.11801e-05
2.11689e-05
2.18577e-05
2.1865e-05
2.11571e-05
2.18526e-05
2.18148e-05
2.72605e-05
2.82031e-05
2.11638e-05
2.18496e-05
2.18169e-05
2.81397e-05
2.83869e-05
2.90991e-05
2.20608e-05
2.20725e-05
2.26314e-05
2.26543e-05
2.84124e-05
2.91032e-05
2.20648e-05
2.2071e-05
2.26264e-05
2.26642e-05
2.20534e-05
2.26652e-05
2.26933e-05
2.8423e-05
2.91092e-05
2.20461e-05
2.26678e-05
2.26881e-05
2.91469e-05
2.93373e-05
3.03445e-05
2.28546e-05
2.28502e-05
2.3747e-05
2.36401e-05
2.93104e-05
3.0258e-05
2.28484e-05
2.28606e-05
2.37476e-05
2.36693e-05
2.28747e-05
2.36175e-05
2.36225e-05
2.93294e-05
3.02829e-05
2.28689e-05
2.36727e-05
2.36237e-05
3.02039e-05
3.05958e-05
3.12147e-05
2.3992e-05
2.39647e-05
2.45377e-05
2.47013e-05
3.05495e-05
3.14079e-05
2.40054e-05
2.39808e-05
2.45069e-05
2.45798e-05
2.39066e-05
2.47137e-05
2.46949e-05
3.05584e-05
3.13116e-05
2.39201e-05
2.45837e-05
2.46816e-05
3.13977e-05
3.1414e-05
3.22808e-05
2.48181e-05
2.48719e-05
2.56485e-05
2.55715e-05
3.1583e-05
3.21626e-05
2.47455e-05
2.47971e-05
2.56581e-05
2.56998e-05
2.49651e-05
2.55565e-05
2.54882e-05
3.14952e-05
3.22638e-05
2.49226e-05
2.56583e-05
2.54933e-05
3.2167e-05
3.24953e-05
3.3237e-05
2.58044e-05
2.57617e-05
2.6418e-05
2.63502e-05
3.23625e-05
3.29926e-05
2.5895e-05
2.58354e-05
2.64785e-05
2.62784e-05
2.56439e-05
2.63304e-05
2.66702e-05
3.24579e-05
3.29234e-05
2.57003e-05
2.6292e-05
2.66883e-05
3.34662e-05
3.35351e-05
3.44222e-05
2.67775e-05
2.66491e-05
2.79862e-05
2.79585e-05
3.32707e-05
3.46458e-05
2.67823e-05
2.66798e-05
2.79041e-05
2.80893e-05
2.7092e-05
2.80153e-05
2.79746e-05
3.32433e-05
3.48522e-05
2.7075e-05
2.81157e-05
2.79171e-05
3.44381e-05
3.45099e-05
3.41119e-05
2.81615e-05
2.83188e-05
2.81282e-05
2.86507e-05
3.48767e-05
3.49791e-05
2.80596e-05
2.84115e-05
2.80366e-05
2.87404e-05
2.80196e-05
2.86028e-05
2.79168e-05
3.50449e-05
3.50293e-05
2.79599e-05
2.87063e-05
2.78843e-05
3.38813e-05
3.4168e-05
3.70979e-05
2.81293e-05
2.87013e-05
2.98531e-05
2.89615e-05
3.50064e-05
3.53941e-05
2.80554e-05
2.87512e-05
3.00664e-05
2.84578e-05
2.7898e-05
2.90371e-05
2.85114e-05
3.50432e-05
3.44492e-05
2.78836e-05
2.85299e-05
2.86708e-05
3.53892e-05
3.79092e-05
3.96437e-05
3.09049e-05
2.89513e-05
3.26353e-05
3.02554e-05
3.54689e-05
3.68873e-05
3.10269e-05
2.83404e-05
3.25718e-05
3.03776e-05
2.95799e-05
3.00475e-05
3.33912e-05
3.43885e-05
3.79663e-05
2.96089e-05
3.0099e-05
3.33331e-05
4.09149e-05
3.97868e-05
4.00526e-05
3.28956e-05
3.22821e-05
3.37435e-05
3.78331e-05
3.85537e-05
4.69365e-05
3.28432e-05
3.28709e-05
3.37701e-05
3.88752e-05
3.4515e-05
3.8034e-05
3.66974e-05
3.97281e-05
4.82799e-05
3.4496e-05
3.91002e-05
3.67971e-05
4.46056e-05
4.02178e-05
4.00827e-05
3.40806e-05
3.92185e-05
3.44362e-05
3.91755e-05
4.8044e-05
4.4381e-05
3.41119e-05
3.98297e-05
3.44102e-05
3.8322e-05
3.6826e-05
3.92964e-05
3.47014e-05
4.89754e-05
4.14567e-05
3.69264e-05
3.8409e-05
3.46377e-05
3.82983e-05
3.98489e-05
3.60553e-05
3.41844e-05
3.65866e-05
3.0929e-05
2.5107e-05
4.17405e-05
2.49565e-05
3.40848e-05
3.41609e-05
3.08115e-05
2.4681e-05
3.22776e-05
2.51923e-05
2.69e-05
3.8639e-05
2.5306e-05
3.21409e-05
2.47473e-05
2.68426e-05
3.07787e-05
3.58296e-05
3.38731e-05
3.00136e-05
2.32994e-05
2.86074e-05
2.2556e-05
2.40897e-05
2.92669e-05
2.9974e-05
2.39608e-05
2.87488e-05
2.56784e-05
2.52564e-05
2.22671e-05
2.33563e-05
2.52791e-05
3.40285e-05
2.52223e-05
2.48329e-05
2.34289e-05
2.69418e-05
3.36268e-05
3.14888e-05
2.78342e-05
2.40927e-05
2.71338e-05
3.66729e-05
3.15759e-05
4.43529e-05
2.79891e-05
2.82215e-05
2.7201e-05
3.51974e-05
2.40953e-05
3.71443e-05
3.7767e-05
3.54675e-05
4.19254e-05
2.42454e-05
3.57352e-05
3.78014e-05
4.66498e-05
3.26284e-05
4.70371e-05
2.81126e-05
3.96615e-05
4.02243e-05
4.4597e-05
4.60352e-05
5.13736e-05
2.80695e-05
3.74767e-05
4.00562e-05
4.25325e-05
4.05337e-05
4.51836e-05
4.18308e-05
4.332e-05
4.94259e-05
4.04229e-05
4.30594e-05
4.16439e-05
4.60661e-05
3.73773e-05
3.73765e-05
3.7377e-05
3.7377e-05
3.73701e-05
3.73777e-05
3.73043e-05
3.73768e-05
3.73702e-05
3.73777e-05
3.73768e-05
3.73043e-05
3.73741e-05
3.72959e-05
3.72959e-05
3.58798e-05
4.08721e-05
3.66033e-05
4.51466e-05
5.51147e-05
6.48951e-05
3.58803e-05
4.08713e-05
3.66034e-05
4.51464e-05
3.58932e-05
3.58933e-05
3.58932e-05
3.44005e-05
3.44005e-05
3.44005e-05
3.44005e-05
3.52758e-05
3.56384e-05
3.58929e-05
3.53771e-05
3.60475e-05
3.42365e-05
3.53822e-05
5.51168e-05
6.48993e-05
3.52758e-05
3.58929e-05
3.5638e-05
3.53771e-05
3.60474e-05
3.53822e-05
3.42375e-05
3.65971e-05
3.65977e-05
3.5279e-05
3.40642e-05
3.40633e-05
3.39657e-05
5.13534e-05
3.46792e-05
5.46246e-05
7.65448e-05
8.08614e-05
3.39682e-05
5.13545e-05
3.46789e-05
5.46252e-05
3.39296e-05
3.39297e-05
3.39297e-05
3.25855e-05
3.25854e-05
3.25855e-05
3.25855e-05
3.30541e-05
3.2475e-05
3.39295e-05
3.34087e-05
3.38961e-05
3.15754e-05
3.34678e-05
7.65459e-05
8.08655e-05
3.30541e-05
3.39295e-05
3.24739e-05
3.34087e-05
3.38958e-05
3.34678e-05
3.15773e-05
3.17169e-05
3.17162e-05
3.32638e-05
3.09255e-05
3.0924e-05
3.22498e-05
5.91695e-05
3.29238e-05
6.14408e-05
8.43919e-05
8.50677e-05
3.2252e-05
5.91713e-05
3.29217e-05
6.14428e-05
3.21578e-05
3.21578e-05
3.21578e-05
3.09282e-05
3.09282e-05
3.09281e-05
3.09282e-05
3.07893e-05
3.05137e-05
3.21376e-05
3.15541e-05
3.16368e-05
2.98864e-05
3.17101e-05
8.43937e-05
8.50702e-05
3.07892e-05
3.21376e-05
3.05135e-05
3.1554e-05
3.16363e-05
3.17101e-05
2.98874e-05
3.02179e-05
3.02169e-05
3.12731e-05
3.00048e-05
3.00034e-05
3.0753e-05
6.43509e-05
3.13503e-05
6.5727e-05
8.46111e-05
8.39116e-05
3.07539e-05
6.43528e-05
3.13504e-05
6.57306e-05
3.05346e-05
3.05346e-05
3.05346e-05
2.9398e-05
2.9398e-05
2.93979e-05
2.9398e-05
2.86006e-05
2.91415e-05
3.04694e-05
2.98005e-05
2.94131e-05
2.86746e-05
3.00687e-05
8.4611e-05
8.39146e-05
2.86005e-05
3.04694e-05
2.91421e-05
2.98004e-05
2.94126e-05
3.00687e-05
2.86756e-05
2.99417e-05
2.99406e-05
2.93483e-05
3.00363e-05
3.00353e-05
2.95178e-05
6.73193e-05
3.00007e-05
6.80341e-05
8.2213e-05
8.12214e-05
2.95188e-05
6.73216e-05
3.0001e-05
6.80386e-05
2.90329e-05
2.90328e-05
2.90328e-05
2.79756e-05
2.79756e-05
2.79756e-05
2.79756e-05
2.65676e-05
2.8123e-05
2.89027e-05
2.8152e-05
2.73172e-05
2.7781e-05
2.85257e-05
8.22117e-05
8.12239e-05
2.65677e-05
2.89027e-05
2.81234e-05
2.81519e-05
2.73167e-05
2.85256e-05
2.7782e-05
3.04398e-05
3.04405e-05
2.7533e-05
3.07865e-05
3.07856e-05
2.86039e-05
6.87417e-05
2.89474e-05
6.90369e-05
7.94345e-05
7.85339e-05
2.86048e-05
6.87449e-05
2.89476e-05
6.90412e-05
2.76353e-05
2.76353e-05
2.76353e-05
2.66487e-05
2.66487e-05
2.66486e-05
2.66486e-05
2.47435e-05
2.7406e-05
2.74287e-05
2.66128e-05
2.54141e-05
2.71909e-05
2.70743e-05
7.94325e-05
7.85362e-05
2.47437e-05
2.74286e-05
2.74064e-05
2.66126e-05
2.54135e-05
2.70741e-05
2.71918e-05
3.15561e-05
3.15565e-05
2.58511e-05
3.21314e-05
3.21319e-05
2.80582e-05
6.92511e-05
2.82445e-05
6.93117e-05
7.70046e-05
7.62887e-05
2.80591e-05
6.92551e-05
2.82447e-05
6.93153e-05
2.63308e-05
2.63307e-05
2.63307e-05
2.54084e-05
2.54084e-05
2.54083e-05
2.54084e-05
2.31636e-05
2.70012e-05
2.60445e-05
2.51841e-05
2.37463e-05
2.69208e-05
2.57123e-05
7.70028e-05
7.62907e-05
2.31639e-05
2.60444e-05
2.70016e-05
2.51839e-05
2.37458e-05
2.57121e-05
2.69216e-05
3.31864e-05
3.31875e-05
2.432e-05
3.39311e-05
3.39333e-05
2.79138e-05
6.92991e-05
2.79275e-05
6.92727e-05
7.50726e-05
7.45361e-05
2.79142e-05
6.93029e-05
2.79276e-05
6.92763e-05
2.51112e-05
2.51111e-05
2.51111e-05
2.42488e-05
2.42488e-05
2.42486e-05
2.42487e-05
2.18464e-05
2.69345e-05
2.47489e-05
2.38659e-05
2.23369e-05
2.69819e-05
2.44388e-05
7.50716e-05
7.45371e-05
2.18466e-05
2.47488e-05
2.69346e-05
2.38657e-05
2.23364e-05
2.44386e-05
2.69825e-05
3.51897e-05
3.51925e-05
2.29423e-05
3.60424e-05
3.60454e-05
2.81586e-05
6.91967e-05
2.80315e-05
6.91659e-05
7.36076e-05
7.32125e-05
2.81588e-05
6.92008e-05
2.80314e-05
6.91698e-05
2.3971e-05
2.39708e-05
2.39709e-05
2.31652e-05
2.31652e-05
2.3165e-05
2.31651e-05
2.08004e-05
2.71998e-05
2.3541e-05
2.26594e-05
2.1195e-05
2.73552e-05
2.32523e-05
7.36078e-05
7.32127e-05
2.08006e-05
2.35409e-05
2.72002e-05
2.26592e-05
2.11945e-05
2.3252e-05
2.73559e-05
3.74397e-05
3.74425e-05
2.1721e-05
3.83525e-05
3.83578e-05
2.88219e-05
6.91139e-05
2.85544e-05
6.91044e-05
7.25281e-05
7.22429e-05
2.88257e-05
6.91188e-05
2.85546e-05
6.91086e-05
2.29058e-05
2.29056e-05
2.29057e-05
2.21538e-05
2.21538e-05
2.21536e-05
2.21538e-05
2.00274e-05
2.77798e-05
2.24171e-05
2.15629e-05
2.03182e-05
2.80348e-05
2.21492e-05
7.25285e-05
7.22433e-05
2.00274e-05
2.2417e-05
2.77801e-05
2.15627e-05
2.0318e-05
2.2149e-05
2.80358e-05
3.98261e-05
3.98306e-05
2.06511e-05
4.07604e-05
4.07671e-05
2.99328e-05
6.91014e-05
2.94767e-05
6.91164e-05
7.17507e-05
7.15498e-05
2.99353e-05
6.91058e-05
2.94777e-05
6.91215e-05
2.1912e-05
2.19118e-05
2.19119e-05
2.12115e-05
2.12115e-05
2.12113e-05
2.12114e-05
1.95212e-05
2.86494e-05
2.13769e-05
2.05741e-05
1.97026e-05
2.89935e-05
2.113e-05
7.17512e-05
7.15503e-05
1.95214e-05
2.13768e-05
2.86497e-05
2.05739e-05
1.97025e-05
2.11298e-05
2.89949e-05
4.22482e-05
4.22539e-05
1.97251e-05
4.31747e-05
4.31831e-05
3.14424e-05
6.91509e-05
3.08027e-05
6.91878e-05
7.12023e-05
7.10632e-05
3.14379e-05
6.91564e-05
3.08156e-05
6.91922e-05
2.09865e-05
2.09862e-05
2.09864e-05
2.0334e-05
2.0334e-05
2.03338e-05
2.03339e-05
1.92793e-05
2.97742e-05
2.042e-05
1.96899e-05
1.93513e-05
3.01943e-05
2.01934e-05
7.12027e-05
7.10636e-05
1.92799e-05
2.04198e-05
2.97748e-05
1.96898e-05
1.93513e-05
2.01932e-05
3.01958e-05
4.46193e-05
4.46259e-05
1.89358e-05
4.55209e-05
4.55313e-05
3.33283e-05
6.92456e-05
3.25275e-05
6.92929e-05
7.08196e-05
7.07233e-05
3.33203e-05
6.92508e-05
3.25254e-05
6.92979e-05
2.01241e-05
2.01239e-05
2.0124e-05
1.9518e-05
1.9518e-05
1.95178e-05
1.95179e-05
1.92974e-05
3.11127e-05
1.95433e-05
1.89087e-05
1.92659e-05
3.15947e-05
1.93364e-05
7.08199e-05
7.07239e-05
1.92974e-05
1.95432e-05
3.11139e-05
1.89086e-05
1.92663e-05
1.93362e-05
3.15961e-05
4.68768e-05
4.68851e-05
1.82773e-05
4.77282e-05
4.77401e-05
3.55275e-05
6.93573e-05
3.46085e-05
6.94041e-05
7.05509e-05
7.04831e-05
3.55395e-05
6.93633e-05
3.46005e-05
6.94092e-05
1.93239e-05
1.93237e-05
1.93238e-05
1.87638e-05
1.87638e-05
1.87636e-05
1.87637e-05
1.95664e-05
3.26191e-05
1.8744e-05
1.82269e-05
1.94489e-05
3.31454e-05
1.8556e-05
7.05512e-05
7.04835e-05
1.9567e-05
1.8744e-05
3.262e-05
1.82268e-05
1.9449e-05
1.85558e-05
3.31471e-05
4.89656e-05
4.89755e-05
1.77511e-05
4.97571e-05
4.97695e-05
3.79729e-05
6.9466e-05
3.69603e-05
6.95099e-05
7.03561e-05
7.03068e-05
3.79665e-05
6.94723e-05
3.69735e-05
6.95156e-05
1.85848e-05
1.85845e-05
1.85847e-05
1.80688e-05
1.80688e-05
1.80685e-05
1.80687e-05
2.00909e-05
3.42412e-05
1.80196e-05
1.76416e-05
1.98897e-05
3.47947e-05
1.785e-05
7.03566e-05
7.0307e-05
2.00909e-05
1.80196e-05
3.42423e-05
1.76415e-05
1.98903e-05
1.78498e-05
3.47965e-05
5.08637e-05
5.08749e-05
1.73617e-05
5.15724e-05
5.15848e-05
4.05352e-05
6.95664e-05
3.95017e-05
6.9607e-05
7.02072e-05
7.01682e-05
4.05381e-05
6.95715e-05
3.94963e-05
6.96122e-05
1.79042e-05
1.7904e-05
1.79041e-05
1.74305e-05
1.74306e-05
1.74304e-05
1.74305e-05
2.08646e-05
3.5927e-05
1.73678e-05
1.71515e-05
2.0581e-05
3.64917e-05
1.7216e-05
7.02072e-05
7.01689e-05
2.08653e-05
1.73678e-05
3.59284e-05
1.71516e-05
2.05811e-05
1.72159e-05
3.6493e-05
5.25485e-05
5.25591e-05
1.71055e-05
5.31718e-05
5.31843e-05
4.31654e-05
6.9657e-05
4.20901e-05
6.96942e-05
7.00849e-05
7.00519e-05
4.31604e-05
6.9663e-05
4.2095e-05
6.96997e-05
1.72799e-05
1.72797e-05
1.72798e-05
1.6847e-05
1.6847e-05
1.68468e-05
1.68469e-05
2.18733e-05
3.76292e-05
1.67877e-05
1.67557e-05
2.15141e-05
3.81889e-05
1.66536e-05
7.00852e-05
7.00521e-05
2.18736e-05
1.67877e-05
3.76302e-05
1.67558e-05
2.15149e-05
1.66535e-05
3.81904e-05
5.40193e-05
5.40316e-05
1.69825e-05
5.45803e-05
5.45926e-05
4.56627e-05
6.97417e-05
4.46738e-05
6.97753e-05
6.99781e-05
6.99484e-05
4.56693e-05
6.9747e-05
4.46718e-05
6.97816e-05
1.67097e-05
1.67096e-05
1.67097e-05
1.63166e-05
1.63165e-05
1.63164e-05
1.63165e-05
2.30962e-05
3.93043e-05
1.62771e-05
1.64532e-05
2.26685e-05
3.98478e-05
1.61598e-05
6.99783e-05
6.99488e-05
2.30968e-05
1.62771e-05
3.93051e-05
1.64535e-05
2.26686e-05
1.61599e-05
3.98499e-05
5.53124e-05
5.5324e-05
1.69917e-05
5.57979e-05
5.58102e-05
4.80366e-05
6.98203e-05
4.70692e-05
6.98529e-05
6.9881e-05
6.98539e-05
4.80204e-05
6.98261e-05
4.70858e-05
6.98592e-05
1.61924e-05
1.61923e-05
1.61924e-05
1.58373e-05
1.58373e-05
1.58372e-05
1.58372e-05
2.45014e-05
4.09216e-05
1.58344e-05
1.62447e-05
2.40179e-05
4.14386e-05
1.57341e-05
6.9881e-05
6.98544e-05
2.45019e-05
1.58345e-05
4.0922e-05
1.62449e-05
2.40177e-05
1.5734e-05
4.14403e-05
5.64303e-05
5.64428e-05
1.71277e-05
5.68587e-05
5.68707e-05
5.01331e-05
6.98958e-05
4.92935e-05
6.99265e-05
6.97909e-05
6.97664e-05
5.01355e-05
6.99015e-05
4.92925e-05
6.99324e-05
1.57254e-05
1.57253e-05
1.57254e-05
1.54073e-05
1.54073e-05
1.54072e-05
1.54072e-05
2.60493e-05
4.24546e-05
1.54594e-05
1.61295e-05
2.55243e-05
4.29388e-05
1.53758e-05
6.9791e-05
6.97667e-05
2.60498e-05
1.54594e-05
4.24541e-05
1.61299e-05
2.55233e-05
1.53759e-05
4.29425e-05
5.74111e-05
5.74235e-05
1.7392e-05
5.77764e-05
5.77885e-05
5.19761e-05
6.99669e-05
5.12371e-05
6.9995e-05
6.97071e-05
6.96842e-05
5.19774e-05
6.99725e-05
5.12417e-05
7.00011e-05
1.53073e-05
1.53072e-05
1.53074e-05
1.50253e-05
1.50253e-05
1.50252e-05
1.50254e-05
2.76941e-05
4.3887e-05
1.51517e-05
1.61104e-05
2.7142e-05
4.434e-05
1.50849e-05
6.97074e-05
6.96846e-05
2.76954e-05
1.51517e-05
4.38815e-05
1.61109e-05
2.71424e-05
1.5085e-05
4.43476e-05
5.82647e-05
5.8277e-05
1.77837e-05
5.85815e-05
5.85931e-05
5.35422e-05
7.00333e-05
5.29214e-05
7.00577e-05
6.96289e-05
6.96082e-05
5.35343e-05
7.0038e-05
5.29313e-05
7.00638e-05
1.49372e-05
1.49372e-05
1.49374e-05
1.46907e-05
1.46908e-05
1.46907e-05
1.46907e-05
2.93905e-05
4.52081e-05
1.49119e-05
1.61791e-05
2.88256e-05
4.56383e-05
1.48613e-05
6.96295e-05
6.96082e-05
2.93912e-05
1.49119e-05
4.52066e-05
1.61798e-05
2.88283e-05
1.48617e-05
4.56431e-05
5.90108e-05
5.90237e-05
1.82972e-05
5.9293e-05
5.9304e-05
5.48642e-05
7.00911e-05
5.43349e-05
7.01148e-05
6.95567e-05
6.95373e-05
5.48538e-05
7.0097e-05
5.43445e-05
7.01203e-05
1.46143e-05
1.46144e-05
1.46144e-05
1.44023e-05
1.44024e-05
1.44026e-05
1.44026e-05
3.10952e-05
4.64273e-05
1.47397e-05
1.63396e-05
3.053e-05
4.6827e-05
1.47066e-05
6.95569e-05
6.95373e-05
3.10951e-05
1.474e-05
4.6424e-05
1.63403e-05
3.05321e-05
1.47066e-05
4.6833e-05
5.96696e-05
5.96829e-05
1.89229e-05
5.99224e-05
5.99337e-05
5.59618e-05
7.01426e-05
5.55131e-05
7.01637e-05
6.94902e-05
6.94729e-05
5.59551e-05
7.01495e-05
5.55254e-05
7.01694e-05
1.4338e-05
1.43381e-05
1.43379e-05
1.4161e-05
1.41611e-05
1.41608e-05
1.41611e-05
3.27698e-05
4.7543e-05
1.46372e-05
1.65908e-05
3.22107e-05
4.79217e-05
1.4621e-05
6.94904e-05
6.94727e-05
3.27727e-05
1.46377e-05
4.75424e-05
1.65915e-05
3.22136e-05
1.46213e-05
4.79261e-05
6.0254e-05
6.02666e-05
1.96509e-05
6.04814e-05
6.04934e-05
5.68747e-05
7.01884e-05
5.65025e-05
7.02063e-05
6.94291e-05
6.94141e-05
5.68708e-05
7.01944e-05
5.65099e-05
7.02121e-05
1.41077e-05
1.41078e-05
1.4108e-05
1.39649e-05
1.39649e-05
1.39652e-05
1.39654e-05
3.43811e-05
4.85625e-05
1.46047e-05
1.69265e-05
3.38426e-05
4.89185e-05
1.4607e-05
6.94291e-05
6.94137e-05
3.43882e-05
1.4605e-05
4.85617e-05
1.69279e-05
3.38421e-05
1.46075e-05
4.89262e-05
6.07821e-05
6.07939e-05
2.04701e-05
6.09834e-05
6.09965e-05
5.76301e-05
7.02289e-05
5.73336e-05
7.02432e-05
6.9373e-05
6.93609e-05
5.7649e-05
7.02355e-05
5.73357e-05
7.02511e-05
1.3923e-05
1.39233e-05
1.39224e-05
1.38166e-05
1.38152e-05
1.38157e-05
1.38156e-05
3.59112e-05
4.94938e-05
1.46393e-05
1.73475e-05
3.53943e-05
4.98318e-05
1.46591e-05
6.93735e-05
6.936e-05
3.59156e-05
1.46401e-05
4.94944e-05
1.73504e-05
3.53904e-05
1.466e-05
4.98381e-05
6.12507e-05
6.12623e-05
2.13597e-05
6.14361e-05
6.14498e-05
5.83005e-05
7.02644e-05
5.80362e-05
7.02792e-05
6.93232e-05
6.93125e-05
5.83129e-05
7.02691e-05
5.80224e-05
7.02843e-05
1.37852e-05
1.37845e-05
1.37858e-05
1.37051e-05
1.37087e-05
1.37086e-05
1.37096e-05
3.73592e-05
5.0358e-05
1.47463e-05
1.7849e-05
3.68603e-05
5.06706e-05
1.47836e-05
6.9324e-05
6.93113e-05
3.73531e-05
1.47459e-05
5.03583e-05
1.78483e-05
3.68548e-05
1.47829e-05
5.06714e-05
6.16853e-05
6.16963e-05
2.23268e-05
6.18521e-05
6.18633e-05
5.88352e-05
7.02957e-05
5.86336e-05
7.0308e-05
6.92795e-05
6.9272e-05
5.88779e-05
7.03037e-05
5.86132e-05
7.03181e-05
1.36886e-05
1.36887e-05
1.36897e-05
1.3651e-05
1.36515e-05
1.36521e-05
1.36483e-05
3.86882e-05
5.11353e-05
1.49183e-05
1.84146e-05
3.821e-05
5.14335e-05
1.49712e-05
6.92808e-05
6.92713e-05
3.86767e-05
1.4918e-05
5.11309e-05
1.84142e-05
3.82157e-05
1.49717e-05
5.14382e-05
6.20568e-05
6.20663e-05
2.33112e-05
6.22263e-05
6.22373e-05
5.9348e-05
7.0329e-05
5.91668e-05
7.03421e-05
6.92429e-05
6.92355e-05
5.93784e-05
7.03337e-05
5.91365e-05
7.03508e-05
1.36457e-05
1.36484e-05
1.36443e-05
1.36462e-05
1.36415e-05
1.36428e-05
1.36428e-05
3.99308e-05
5.18729e-05
1.51631e-05
1.90804e-05
3.94696e-05
5.21572e-05
1.52333e-05
6.92435e-05
6.92363e-05
3.99264e-05
1.51641e-05
5.18733e-05
1.90889e-05
3.94907e-05
1.52373e-05
5.21649e-05
6.24309e-05
6.24463e-05
2.43941e-05
6.25916e-05
6.26018e-05
5.97876e-05
7.03559e-05
5.96385e-05
7.03662e-05
6.92099e-05
6.92025e-05
5.97885e-05
7.03588e-05
5.96179e-05
7.03717e-05
1.36462e-05
1.36464e-05
1.36442e-05
1.36637e-05
1.36684e-05
1.3669e-05
1.36691e-05
4.10923e-05
5.25596e-05
1.54756e-05
1.98026e-05
4.06425e-05
5.28281e-05
1.55655e-05
6.92096e-05
6.92034e-05
4.10704e-05
1.54775e-05
5.25568e-05
1.98028e-05
4.06668e-05
1.55632e-05
5.28157e-05
6.27665e-05
6.27798e-05
2.54354e-05
6.2895e-05
6.28961e-05
6.02118e-05
7.03882e-05
6.00313e-05
7.03995e-05
6.91789e-05
6.9176e-05
6.0176e-05
7.03902e-05
6.00138e-05
7.0409e-05
1.36776e-05
1.3679e-05
1.36843e-05
1.37366e-05
1.37329e-05
1.37297e-05
1.37393e-05
4.20904e-05
5.31613e-05
1.58433e-05
2.05273e-05
4.1713e-05
5.33916e-05
1.59422e-05
6.91778e-05
6.91762e-05
4.21486e-05
1.58404e-05
5.31682e-05
2.05212e-05
4.17157e-05
1.59409e-05
5.33812e-05
6.30901e-05
6.31112e-05
2.65122e-05
6.32046e-05
6.32165e-05
6.05668e-05
7.04171e-05
6.03964e-05
7.04353e-05
6.91663e-05
6.91633e-05
6.05657e-05
7.04275e-05
6.04315e-05
7.04423e-05
1.37646e-05
1.37652e-05
1.37666e-05
1.38818e-05
1.38789e-05
1.38826e-05
1.38648e-05
4.30919e-05
5.37773e-05
1.62648e-05
2.13911e-05
4.27195e-05
5.40229e-05
1.63881e-05
6.91683e-05
6.91644e-05
4.31322e-05
1.62775e-05
5.37986e-05
2.14086e-05
4.26992e-05
1.64039e-05
5.40413e-05
6.33468e-05
6.33658e-05
2.7573e-05
6.35194e-05
6.35283e-05
6.08841e-05
7.04465e-05
6.07695e-05
7.04613e-05
6.91455e-05
6.91397e-05
6.08721e-05
7.04511e-05
6.07874e-05
7.04658e-05
1.39192e-05
1.39183e-05
1.39068e-05
1.40125e-05
1.40212e-05
1.40253e-05
1.40347e-05
4.40427e-05
5.43643e-05
1.6794e-05
2.22798e-05
4.36966e-05
5.45259e-05
1.69261e-05
6.91413e-05
6.91391e-05
4.40158e-05
1.67814e-05