/*--------------------------------*- C++ -*----------------------------------*\
| =========                 |                                                 |
| \\      /  F ield         | OpenFOAM: The Open Source CFD Toolbox           |
|  \\    /   O peration     | Version:  v2012                                 |
|   \\  /    A nd           | Website:  www.openfoam.com                      |
|    \\/     M anipulation  |                                                 |
\*---------------------------------------------------------------------------*/
FoamFile
{
    version     2.0;
    format      ascii;
    class       volScalarField;
    location    "1000";
    object      nut;
}
// * * * * * * * * * * * * * * * * * * * * * * * * * * * * * * * * * * * * * //

dimensions      [0 2 -1 0 0 0 0];


internalField   nonuniform List<scalar> 
85864
(
0.000233973
0.000233116
0.000233116
0.000233423
0.000232532
0.000227802
0.000227801
0.000223866
0.000230516
0.00022032
0.000220318
0.000209109
0.000227799
0.000211665
0.000211661
0.000193785
0.000224433
0.00020265
0.000202644
0.000179709
0.000220552
0.000193772
0.000193765
0.000167339
0.000216304
0.000185275
0.000185267
0.000156587
0.00021182
0.000177234
0.000177226
0.000147206
0.000207207
0.000169688
0.00016968
0.00013895
0.000202545
0.000162611
0.000162603
0.000131615
0.000197889
0.000155949
0.000155941
0.000124953
0.000193275
0.000149646
0.000149637
0.000118816
0.000188682
0.000143665
0.000143656
0.000113169
0.00018415
0.000137951
0.000137943
0.00010793
0.000179706
0.000132461
0.000132453
0.000103053
0.000175337
0.000127188
0.000127179
9.843e-05
0.000171035
0.000122151
0.000122141
9.42509e-05
0.000166786
0.00011737
0.000117361
9.06624e-05
0.000162587
0.00011289
0.00011288
8.77339e-05
0.000158414
0.000108757
0.000108745
8.53861e-05
0.000154264
0.000105028
0.000105017
8.36725e-05
0.000150141
0.00010171
0.000101704
8.25881e-05
0.00014606
9.8894e-05
9.88873e-05
8.20977e-05
0.000142043
9.65797e-05
9.65827e-05
8.21329e-05
0.000138102
9.47899e-05
9.47763e-05
8.27058e-05
0.000134285
9.34953e-05
9.35094e-05
8.36248e-05
0.000130692
9.27846e-05
9.27738e-05
8.50528e-05
0.000127032
9.23713e-05
9.23291e-05
8.65557e-05
0.00012386
9.26569e-05
9.26832e-05
8.86469e-05
0.000121127
9.34523e-05
9.34608e-05
9.09597e-05
0.000118042
9.41436e-05
9.41138e-05
9.31525e-05
0.00011576
9.54026e-05
9.54803e-05
9.54617e-05
0.00011403
9.7727e-05
9.76077e-05
9.837e-05
0.000111433
9.84093e-05
9.84375e-05
0.000100333
0.000111494
0.000101767
0.000102208
0.000103251
0.000109308
0.000104529
0.000103585
0.000106947
0.00010932
0.000105731
0.000106206
0.00010749
0.000107956
0.000106843
0.000106932
0.000114134
0.00011201
0.000116213
0.000116858
0.000116132
0.000102652
0.000114663
0.000117087
0.000106364
0.000108656
0.000106363
0.000100686
0.000107168
0.000122714
0.000113617
0.000116826
0.000140958
0.000128926
0.000184879
0.000196982
0.000175229
0.000137756
0.000206187
0.000176578
0.000145804
0.000113889
8.09378e-05
7.89063e-05
9.3864e-05
9.01295e-05
5.89326e-05
8.11e-05
6.58773e-05
5.41233e-05
0.000151982
0.00014122
0.000174928
0.000234266
0.000234448
0.000234449
0.000234267
0.000234448
0.000234449
0.000234274
0.000234274
0.000234274
0.000234274
0.000234448
0.000234448
0.000234266
0.000234448
0.000234448
0.000234266
0.000233423
0.000226204
0.000233116
0.000233114
0.000229361
0.000229357
0.000233423
0.000226205
0.000233114
0.000233114
0.000229359
0.000229356
0.000233116
0.000229364
0.000229361
0.000233423
0.000226202
0.000233114
0.000229363
0.000229359
0.000226203
0.000223867
0.00021223
0.000227799
0.000227794
0.000222332
0.000222326
0.000223868
0.000212234
0.000227797
0.000227792
0.000222332
0.000222323
0.000227798
0.000222339
0.000222331
0.000223866
0.000212227
0.000227797
0.000222336
0.000222331
0.000212228
0.000209111
0.000197061
0.000220313
0.000220307
0.000213879
0.000213874
0.000209112
0.000197066
0.000220314
0.000220304
0.000213883
0.000213869
0.000220311
0.00021389
0.000213877
0.000209107
0.000197057
0.000220313
0.000213886
0.000213882
0.000197058
0.000193788
0.000182876
0.000211654
0.000211648
0.00020489
0.000204884
0.000193792
0.000182883
0.000211658
0.000211643
0.000204898
0.000204879
0.000211651
0.000204905
0.000204887
0.000193784
0.000182872
0.000211657
0.000204899
0.000204896
0.000182873
0.000179713
0.000170268
0.000202634
0.000202628
0.000195943
0.000195937
0.000179717
0.000170274
0.000202643
0.000202622
0.000195954
0.000195931
0.000202631
0.000195962
0.00019594
0.000179708
0.000170263
0.000202641
0.000195955
0.000195953
0.000170264
0.000167344
0.000159242
0.000193753
0.000193747
0.000187336
0.000187331
0.000167349
0.000159249
0.000193765
0.00019374
0.000187351
0.000187324
0.000193749
0.000187359
0.000187334
0.000167339
0.000159238
0.000193763
0.000187351
0.00018735
0.000159238
0.000156592
0.000149614
0.000185253
0.000185247
0.000179173
0.000179168
0.000156597
0.00014962
0.000185268
0.00018524
0.000179191
0.00017916
0.000185249
0.000179198
0.00017917
0.000156587
0.000149608
0.000185267
0.00017919
0.00017919
0.000149608
0.000147212
0.000141107
0.000177208
0.000177203
0.000171501
0.000171496
0.000147217
0.000141114
0.000177227
0.000177195
0.000171521
0.000171488
0.000177205
0.000171529
0.000171499
0.000147206
0.000141101
0.000177226
0.00017152
0.000171521
0.000141101
0.000138957
0.000133548
0.00016966
0.000169655
0.000164309
0.000164304
0.000138961
0.000133554
0.000169682
0.000169647
0.000164333
0.000164296
0.000169657
0.00016434
0.000164307
0.00013895
0.000133541
0.00016968
0.000164331
0.000164332
0.000133541
0.000131622
0.000126686
0.00016258
0.000162576
0.000157546
0.000157541
0.000131627
0.000126693
0.000162604
0.000162567
0.000157571
0.000157533
0.000162579
0.000157579
0.000157545
0.000131615
0.00012668
0.000162604
0.00015757
0.000157572
0.000126679
0.00012496
0.000120362
0.000155916
0.000155912
0.000151158
0.000151153
0.000124966
0.000120369
0.000155942
0.000155903
0.000151185
0.000151145
0.000155915
0.000151192
0.000151157
0.000124954
0.000120356
0.000155942
0.000151183
0.000151184
0.000120355
0.000118822
0.000114426
0.000149612
0.000149606
0.000145097
0.000145091
0.000118828
0.000114433
0.000149639
0.000149598
0.000145125
0.000145083
0.000149611
0.000145133
0.000145096
0.000118817
0.000114419
0.000149639
0.000145124
0.000145125
0.000114418
0.000113175
0.000108833
0.000143629
0.000143624
0.000139318
0.000139313
0.00011318
0.000108842
0.000143657
0.000143616
0.000139347
0.000139305
0.000143628
0.000139356
0.000139318
0.000113168
0.000108829
0.000143657
0.000139347
0.000139347
0.000108826
0.000107938
0.000103699
0.000137916
0.000137908
0.000133774
0.000133768
0.000107944
0.000103706
0.000137943
0.000137901
0.000133804
0.000133761
0.000137915
0.000133813
0.000133776
0.000107932
0.000103694
0.000137944
0.000133804
0.000133806
0.000103693
0.000103059
9.91239e-05
0.000132424
0.000132417
0.000128446
0.000128437
0.000103066
9.91294e-05
0.000132453
0.000132409
0.000128473
0.000128429
0.000132424
0.000128483
0.000128446
0.000103055
9.91171e-05
0.000132453
0.000128474
0.000128474
9.91144e-05
9.84391e-05
9.49885e-05
0.00012715
0.000127142
0.000123345
0.000123337
9.84431e-05
9.49943e-05
0.000127177
0.000127134
0.00012337
0.000123329
0.000127151
0.000123385
0.000123346
9.84321e-05
9.49846e-05
0.000127179
0.000123374
0.000123374
9.49818e-05
9.4258e-05
9.14388e-05
0.000122111
0.000122104
0.000118478
0.000118472
9.42638e-05
9.14437e-05
0.000122137
0.000122096
0.000118503
0.000118461
0.000122112
0.000118518
0.000118481
9.42538e-05
9.14315e-05
0.000122141
0.000118507
0.000118508
9.14309e-05
9.06668e-05
8.83761e-05
0.000117332
0.000117324
0.000113921
0.000113916
9.06716e-05
8.83834e-05
0.000117357
0.000117315
0.000113945
0.000113907
0.000117336
0.000113962
0.000113927
9.06604e-05
8.83753e-05
0.000117362
0.000113952
0.000113952
8.83745e-05
8.77345e-05
8.59086e-05
0.000112849
0.000112843
0.000109691
0.000109686
8.77446e-05
8.59142e-05
0.000112872
0.000112834
0.000109715
0.000109677
0.000112853
0.000109732
0.000109698
8.77376e-05
8.59051e-05
0.000112878
0.000109722
0.000109722
8.59073e-05
8.53894e-05
8.40729e-05
0.000108717
0.00010871
0.000105852
0.000105843
8.53966e-05
8.40775e-05
0.000108739
0.000108699
0.000105873
0.000105834
0.000108721
0.000105889
0.000105854
8.53863e-05
8.40691e-05
0.000108746
0.000105878
0.000105877
8.40664e-05
8.36804e-05
8.2849e-05
0.000104992
0.000104982
0.000102454
0.000102445
8.3681e-05
8.28606e-05
0.000105012
0.000104973
0.000102472
0.000102435
0.000104994
0.00010249
0.000102463
8.36718e-05
8.28527e-05
0.000105017
0.000102482
0.000102484
8.28599e-05
8.2571e-05
8.22688e-05
0.000101676
0.000101666
9.95242e-05
9.95099e-05
8.25809e-05
8.22738e-05
0.000101694
0.000101659
9.95386e-05
9.95006e-05
0.000101685
9.95566e-05
9.95247e-05
8.25765e-05
8.22622e-05
0.000101707
9.9545e-05
9.95449e-05
8.22582e-05
8.21106e-05
8.21914e-05
9.8866e-05
9.88481e-05
9.70723e-05
9.70577e-05
8.21109e-05
8.21935e-05
9.88836e-05
9.88472e-05
9.70869e-05
9.70592e-05
9.88667e-05
9.71015e-05
9.70744e-05
8.21016e-05
8.21984e-05
9.88862e-05
9.71024e-05
9.70952e-05
8.21854e-05
8.21401e-05
8.26419e-05
9.65486e-05
9.65371e-05
9.51578e-05
9.51525e-05
8.21412e-05
8.26603e-05
9.65662e-05
9.65393e-05
9.51747e-05
9.51272e-05
9.65485e-05
9.51968e-05
9.51683e-05
8.21464e-05
8.26265e-05
9.65683e-05
9.51711e-05
9.51889e-05
8.26543e-05
8.26824e-05
8.351e-05
9.47564e-05
9.47479e-05
9.37468e-05
9.37305e-05
8.26913e-05
8.35023e-05
9.47711e-05
9.47282e-05
9.3747e-05
9.37296e-05
9.47744e-05
9.37609e-05
9.37451e-05
8.26614e-05
8.3513e-05
9.47985e-05
9.37649e-05
9.37614e-05
8.35027e-05
8.365e-05
8.49406e-05
9.34828e-05
9.34665e-05
9.29659e-05
9.28849e-05
8.36257e-05
8.48769e-05
9.3484e-05
9.34777e-05
9.29953e-05
9.2894e-05
9.34619e-05
9.29274e-05
9.2908e-05
8.36437e-05
8.48746e-05
9.3479e-05
9.29303e-05
9.29151e-05
8.48214e-05
8.51661e-05
8.61879e-05
9.28195e-05
9.27449e-05
9.23318e-05
9.24186e-05
8.50732e-05
8.63531e-05
9.28462e-05
9.27334e-05
9.23169e-05
9.23827e-05
9.27777e-05
9.24534e-05
9.24326e-05
8.50597e-05
8.62988e-05
9.27878e-05
9.24092e-05
9.24432e-05
8.63457e-05
8.64058e-05
8.82566e-05
9.22675e-05
9.2327e-05
9.24596e-05
9.2464e-05
8.65897e-05
8.82543e-05
9.22561e-05
9.23061e-05
9.24762e-05
9.24751e-05
9.23611e-05
9.25159e-05
9.24661e-05
8.65184e-05
8.82754e-05
9.23716e-05
9.25059e-05
9.24734e-05
8.82646e-05
8.86791e-05
9.0792e-05
9.26054e-05
9.26176e-05
9.3333e-05
9.31898e-05
8.86473e-05
9.06684e-05
9.26385e-05
9.26524e-05
9.33679e-05
9.31889e-05
9.26269e-05
9.31892e-05
9.31834e-05
8.86625e-05
9.07113e-05
9.26551e-05
9.32242e-05
9.32148e-05
9.06356e-05
9.1159e-05
9.2535e-05
9.35257e-05
9.34482e-05
9.38458e-05
9.39623e-05
9.10629e-05
9.26972e-05
9.35641e-05
9.34328e-05
9.38245e-05
9.40069e-05
9.3298e-05
9.40266e-05
9.40513e-05
9.10949e-05
9.272e-05
9.32875e-05
9.40246e-05
9.403e-05
9.27176e-05
9.27869e-05
9.50197e-05
9.39806e-05
9.4053e-05
9.50556e-05
9.49066e-05
9.29902e-05
9.4842e-05
9.39085e-05
9.40716e-05
9.49976e-05
9.47544e-05
9.43133e-05
9.4897e-05
9.51025e-05
9.29948e-05
9.47508e-05
9.42936e-05
9.48529e-05
9.50962e-05
9.50723e-05
9.56301e-05
9.80967e-05
9.55912e-05
9.54482e-05
9.71869e-05
9.7238e-05
9.53977e-05
9.81952e-05
9.56051e-05
9.54264e-05
9.72863e-05
9.72863e-05
9.54318e-05
9.72338e-05
9.68329e-05
9.53314e-05
9.8274e-05
9.55072e-05
9.71869e-05
9.68894e-05
9.78507e-05
9.84307e-05
9.95979e-05
9.75478e-05
9.76978e-05
9.79292e-05
9.8186e-05
9.86275e-05
9.97381e-05
9.76168e-05
9.76606e-05
9.79046e-05
9.82427e-05
9.7484e-05
9.83562e-05
9.86004e-05
9.86646e-05
9.97263e-05
9.74577e-05
9.83008e-05
9.85651e-05
0.000100055
0.000100073
0.000103615
9.8362e-05
9.82868e-05
0.000101615
0.000100544
9.99496e-05
0.000102869
9.83214e-05
9.83944e-05
0.000101718
0.000100914
9.86414e-05
0.000100393
0.000100408
0.000100045
0.000103123
9.85922e-05
0.000100991
0.000100462
0.000102523
0.000104251
0.00010539
0.00010226
0.000101901
0.000102649
0.000104103
0.000103793
0.000106746
0.000102497
0.000102108
0.000102383
0.000102963
0.000101334
0.000104275
0.000103979
0.000103929
0.000106042
0.000101517
0.000103106
0.00010388
0.000106487
0.000105692
0.000108297
0.000103624
0.000104227
0.000106385
0.000105986
0.000106961
0.000108031
0.000102932
0.000103473
0.000106312
0.000107002
0.000104924
0.000105965
0.000104772
0.000106297
0.000108538
0.00010453
0.0001067
0.000104764
0.000107515
0.000108694
0.000110858
0.00010616
0.000106087
0.000106589
0.000105811
0.0001083
0.000108839
0.000106825
0.000106569
0.000107354
0.000104971
0.00010441
0.000105565
0.000108519
0.000108739
0.000108119
0.000104889
0.000105049
0.00010888
0.000112307
0.00011196
0.000115742
0.000108268
0.000106709
0.000115154
0.000113952
0.000109615
0.000116516
0.000108626
0.000106751
0.000114569
0.00011496
0.000111153
0.000114633
0.00011601
0.000109166
0.000118013
0.000111235
0.000115243
0.000115502
0.000116823
0.000115331
0.00010741
0.000115297
0.000115803
0.000108895
0.000115787
0.000117332
0.000115892
0.000114421
0.00011678
0.000107964
0.000117864
0.00011523
0.000115254
0.000109234
0.000118762
0.000117556
0.000114627
0.000117492
0.000108897
0.000107775
0.000106008
0.000118638
0.000106411
0.000115123
0.000112751
0.000109541
0.000115111
0.000111128
0.00010567
0.000117077
0.000114481
0.000105381
0.000106456
0.000110319
0.000101356
0.000116842
0.000105024
0.000106322
0.000106203
0.000102592
0.000106075
0.000122955
0.000133753
0.000119435
0.000105654
0.000130279
0.000103466
0.000109135
0.000106082
0.000120563
0.00010024
0.000129802
0.000102813
0.000105916
0.000101913
0.000128855
0.000101844
0.000110729
0.00010622
0.000100779
0.000128277
0.000134378
0.000134202
0.000135894
0.000131311
0.000115167
0.000135733
0.000160131
0.000114074
0.000181185
0.000130856
0.000118267
0.000136024
0.000173412
0.000137538
0.000161418
0.000163647
0.000120001
0.000196905
0.000137206
0.000175037
0.000164626
0.00017384
0.000136963
0.000145685
0.00013851
0.000183173
0.000148887
0.000223841
0.000193932
0.000216479
0.000138921
0.000195014
0.000149191
0.000215186
0.000169755
0.000225426
0.000169136
0.000207374
0.00018895
0.000171026
0.000216367
0.000169077
0.000151671
0.000144847
0.000127678
0.000150404
0.000205179
0.000130619
9.82603e-05
0.000195795
7.03077e-05
0.000149935
0.000176174
0.000129288
8.7604e-05
0.000151852
9.98851e-05
0.000109359
0.000165926
6.61657e-05
0.000150906
8.92678e-05
0.000108691
0.000101719
0.000126105
0.000109956
0.000124051
7.95555e-05
0.000110809
5.87664e-05
6.24858e-05
7.01769e-05
0.000123234
7.79777e-05
0.000111577
7.59958e-05
9.42196e-05
5.73696e-05
6.32492e-05
6.32187e-05
9.57492e-05
9.35085e-05
7.12836e-05
6.3418e-05
6.01148e-05
0.0001055
7.74417e-05
9.96212e-05
6.22047e-05
7.72794e-05
0.000127365
7.82827e-05
0.000138651
0.000100794
8.72775e-05
7.79241e-05
0.000122357
6.28697e-05
0.000128994
0.000142053
0.000101187
0.000128921
6.35388e-05
0.000124513
0.000142705
0.000164442
7.99964e-05
0.000154425
7.80843e-05
0.000147717
0.0001478
0.000194658
0.000148666
0.000198038
7.80896e-05
0.000136731
0.000146629
0.000180068
0.000164852
0.000201461
0.000180596
0.000136516
0.000187852
0.000164439
0.00018622
0.000179123
0.000169625
0.00023473
0.000234746
0.000234729
0.000234729
0.000235118
0.000234798
0.000234701
0.000234727
0.000235118
0.000234798
0.000234727
0.000234701
0.000234867
0.000233566
0.000233566
0.000104651
3.87411e-05
0.000129118
3.98249e-05
2.16834e-05
2.28313e-05
0.000104643
3.87372e-05
0.000129114
3.98214e-05
0.000233973
0.000233973
0.000233973
0.000232935
0.000232935
0.000232935
0.000232935
0.000206196
9.36752e-05
0.000233969
0.000231994
0.000222614
8.72226e-05
0.000233611
2.16823e-05
2.28307e-05
0.00020619
0.000233969
9.36747e-05
0.000231994
0.000222622
0.000233611
8.72283e-05
4.78012e-05
4.77894e-05
0.000231345
4.40186e-05
4.4009e-05
7.25677e-05
4.2434e-05
8.14026e-05
4.37633e-05
2.47749e-05
2.54634e-05
7.25581e-05
4.24305e-05
8.13973e-05
4.37596e-05
0.000232532
0.000232532
0.000232532
0.000231084
0.000231084
0.000231083
0.000231084
0.000167491
7.9439e-05
0.000232081
0.000226097
0.000180211
7.45079e-05
0.000231376
2.47731e-05
2.54619e-05
0.000167487
0.000232081
7.94329e-05
0.000226096
0.000180204
0.000231375
7.4511e-05
3.91643e-05
3.91541e-05
0.000219593
3.65759e-05
3.65651e-05
5.62774e-05
4.55467e-05
6.11326e-05
4.64127e-05
2.60134e-05
2.61173e-05
5.62815e-05
4.5544e-05
6.11277e-05
4.64097e-05
0.000230516
0.000230515
0.000230515
0.000228543
0.000228543
0.000228541
0.000228542
0.000138601
6.74261e-05
0.000228643
0.000218231
0.000148065
6.35185e-05
0.000227537
2.60111e-05
2.61152e-05
0.000138596
0.000228643
6.742e-05
0.000218228
0.000148057
0.000227534
6.35147e-05
3.32183e-05
3.32097e-05
0.000204613
3.19922e-05
3.19831e-05
4.69657e-05
4.74991e-05
4.9909e-05
4.80042e-05
2.60471e-05
2.59392e-05
4.69648e-05
4.74958e-05
4.99095e-05
4.80015e-05
0.000227799
0.000227797
0.000227798
0.000225328
0.000225329
0.000225326
0.000225327
0.000117548
5.82051e-05
0.000223721
0.00020942
0.000124602
5.54861e-05
0.00022231
2.60446e-05
2.59372e-05
0.000117545
0.000223719
5.82035e-05
0.000209415
0.000124596
0.000222306
5.54828e-05
3.0618e-05
3.061e-05
0.000189779
3.03048e-05
3.0297e-05
4.14286e-05
4.85824e-05
4.32437e-05
4.88397e-05
2.56753e-05
2.55199e-05
4.14277e-05
4.8579e-05
4.32442e-05
4.8837e-05
0.000224433
0.000224431
0.000224432
0.000221562
0.000221563
0.000221559
0.000221561
0.000102113
5.18773e-05
0.000217771
0.000200404
0.00010738
5.00766e-05
0.000216181
2.56727e-05
2.5518e-05
0.000102111
0.000217769
5.18758e-05
0.000200398
0.000107374
0.000216177
5.00742e-05
3.01771e-05
3.01724e-05
0.000176369
3.0407e-05
3.03992e-05
3.8156e-05
4.9093e-05
3.92422e-05
4.91983e-05
2.52376e-05
2.5094e-05
3.8155e-05
4.90898e-05
3.92423e-05
4.91955e-05
0.000220552
0.000220549
0.00022055
0.000217392
0.000217393
0.000217389
0.000217391
9.0496e-05
4.77374e-05
0.000211269
0.000191607
9.44603e-05
4.66136e-05
0.000209603
2.5235e-05
2.50922e-05
9.0495e-05
0.000211267
4.77367e-05
0.0001916
9.44543e-05
0.000209598
4.66112e-05
3.09578e-05
3.09522e-05
0.000164561
3.15655e-05
3.15597e-05
3.63746e-05
4.92746e-05
3.69398e-05
4.92961e-05
2.48485e-05
2.47327e-05
3.63734e-05
4.92717e-05
3.69396e-05
4.92931e-05
0.000216304
0.0002163
0.000216302
0.000212957
0.000212957
0.000212952
0.000212955
8.15892e-05
4.51673e-05
0.000204579
0.000183219
8.4672e-05
4.45534e-05
0.000202907
2.48461e-05
2.47309e-05
8.15892e-05
0.000204576
4.51661e-05
0.000183211
8.46663e-05
0.000202902
4.45509e-05
3.2513e-05
3.25078e-05
0.000154267
3.33578e-05
3.33535e-05
3.56768e-05
4.92916e-05
3.58214e-05
4.92823e-05
2.45348e-05
2.44469e-05
3.56746e-05
4.92887e-05
3.58209e-05
4.92792e-05
0.000211821
0.000211816
0.000211818
0.000208367
0.000208368
0.000208362
0.000208365
7.46443e-05
4.37715e-05
0.000197938
0.000175301
7.71194e-05
4.35233e-05
0.000196304
2.45325e-05
2.4445e-05
7.46438e-05
0.000197935
4.37694e-05
0.000175292
7.71136e-05
0.000196298
4.35208e-05
3.45506e-05
3.45474e-05
0.00014522
3.55163e-05
3.55121e-05
3.57601e-05
4.92552e-05
3.56382e-05
4.92443e-05
2.42942e-05
2.42289e-05
3.57578e-05
4.92524e-05
3.56375e-05
4.92413e-05
0.000207208
0.000207202
0.000207204
0.000203711
0.000203712
0.000203705
0.000203708
6.91758e-05
4.32432e-05
0.000191483
0.000167878
7.1202e-05
4.32353e-05
0.000189901
2.42922e-05
2.42269e-05
6.9175e-05
0.00019148
4.32416e-05
0.000167869
7.11967e-05
0.000189895
4.32339e-05
3.68742e-05
3.68697e-05
0.000137218
3.79011e-05
3.7899e-05
3.65545e-05
4.9226e-05
3.62062e-05
4.92226e-05
2.41154e-05
2.40679e-05
3.6561e-05
4.92235e-05
3.62063e-05
4.92197e-05
0.000202546
0.000202539
0.000202542
0.000199049
0.00019905
0.000199043
0.000199047
6.48673e-05
4.33831e-05
0.00018524
0.000160909
6.65088e-05
4.35665e-05
0.000183717
2.41134e-05
2.4066e-05
6.48655e-05
0.000185237
4.33824e-05
0.0001609
6.65056e-05
0.000183711
4.35654e-05
3.93536e-05
3.93504e-05
0.000130035
4.03987e-05
4.0397e-05
3.80544e-05
4.92218e-05
3.73799e-05
4.92271e-05
2.39858e-05
2.39522e-05
3.8059e-05
4.92188e-05
3.738e-05
4.92243e-05
0.000197891
0.000197883
0.000197886
0.000194422
0.000194423
0.000194415
0.000194419
6.15072e-05
4.40645e-05
0.000179254
0.000154342
6.2754e-05
4.44057e-05
0.000177803
2.39839e-05
2.39502e-05
6.15066e-05
0.000179251
4.40644e-05
0.000154333
6.27513e-05
0.000177796
4.44049e-05
4.18797e-05
4.18772e-05
0.000123457
4.2916e-05
4.29154e-05
4.01034e-05
4.92393e-05
3.91205e-05
4.92525e-05
2.3894e-05
2.38706e-05
4.00923e-05
4.92367e-05
3.91467e-05
4.92495e-05
0.000193276
0.000193268
0.000193272
0.00018983
0.000189832
0.000189823
0.000189828
5.90051e-05
4.51939e-05
0.000173549
0.000148122
5.98509e-05
4.56676e-05
0.000172164
2.3892e-05
2.38687e-05
5.9005e-05
0.000173547
4.51943e-05
0.000148113
5.98499e-05
0.000172158
4.56666e-05
4.43657e-05
4.43633e-05
0.000117345
4.53841e-05
4.53857e-05
4.26535e-05
4.92731e-05
4.1414e-05
4.92899e-05
2.38297e-05
2.38134e-05
4.2628e-05
4.92704e-05
4.14056e-05
4.92872e-05
0.000188684
0.000188676
0.000188679
0.000185274
0.000185276
0.000185267
0.000185271
5.72078e-05
4.66962e-05
0.000168096
0.000142213
5.77191e-05
4.72768e-05
0.000166769
2.38277e-05
2.38115e-05
5.7203e-05
0.000168094
4.66967e-05
0.000142204
5.77194e-05
0.000166763
4.72762e-05
4.67568e-05
4.67561e-05
0.000111573
4.77329e-05
4.77357e-05
4.5586e-05
4.93128e-05
4.42029e-05
4.93295e-05
2.37844e-05
2.3773e-05
4.56044e-05
4.93103e-05
4.41925e-05
4.93267e-05
0.000184152
0.000184143
0.000184148
0.000180807
0.00018081
0.0001808
0.000180806
5.60327e-05
4.84968e-05
0.00016286
0.000136559
5.63315e-05
4.91586e-05
0.000161583
2.37824e-05
2.3771e-05
5.60358e-05
0.000162859
4.84967e-05
0.000136549
5.6325e-05
0.000161576
4.91587e-05
4.9001e-05
4.90023e-05
0.000106192
4.99292e-05
4.99318e-05
4.88422e-05
4.93515e-05
4.73459e-05
4.9367e-05
2.37515e-05
2.37432e-05
4.88143e-05
4.93491e-05
4.73825e-05
4.93644e-05
0.000179707
0.000179698
0.000179703
0.000176422
0.000176423
0.000176413
0.000176419
5.55222e-05
5.05195e-05
0.00015781
0.000131121
5.56001e-05
5.12395e-05
0.000156575
2.37496e-05
2.37413e-05
5.55159e-05
0.000157808
5.05196e-05
0.000131112
5.56031e-05
0.000156568
5.12394e-05
5.10845e-05
5.10873e-05
0.000101349
5.19313e-05
5.19328e-05
5.22346e-05
4.93871e-05
5.07351e-05
4.94015e-05
2.37262e-05
2.37196e-05
5.22314e-05
4.93843e-05
5.07266e-05
4.93987e-05
0.000175339
0.00017533
0.000175335
0.000172103
0.000172105
0.000172095
0.000172101
5.56465e-05
5.26919e-05
0.000152914
0.000125904
5.55164e-05
5.34474e-05
0.000151715
2.37244e-05
2.37179e-05
5.56483e-05
0.000152913
5.26926e-05
0.000125895
5.55114e-05
0.000151709
5.34466e-05
5.29766e-05
5.29772e-05
9.69889e-05
5.37422e-05
5.37442e-05
5.5757e-05
4.94192e-05
5.41782e-05
4.94325e-05
2.37055e-05
2.37e-05
5.57367e-05
4.94168e-05
5.41925e-05
4.94298e-05
0.000171038
0.000171028
0.000171033
0.000167839
0.000167842
0.000167831
0.000167837
5.63838e-05
5.49477e-05
0.000148168
0.000120926
5.60568e-05
5.5717e-05
0.000147005
2.37038e-05
2.36982e-05
5.6383e-05
0.000148169
5.49482e-05
0.000120915
5.60577e-05
0.000146999
5.57157e-05
5.46753e-05
5.46791e-05
9.31341e-05
5.53953e-05
5.53963e-05
5.9074e-05
4.94493e-05
5.76539e-05
4.94612e-05
2.36875e-05
2.36827e-05
5.90798e-05
4.94466e-05
5.76546e-05
4.94588e-05
0.000166786
0.000166777
0.000166784
0.000163628
0.00016363
0.00016362
0.000163626
5.76944e-05
5.72265e-05
0.00014354
0.000116206
5.71797e-05
5.79917e-05
0.0001424
2.36857e-05
2.36807e-05
5.76934e-05
0.00014354
5.72259e-05
0.000116197
5.71787e-05
0.000142398
5.79921e-05
5.62278e-05
5.62298e-05
8.98261e-05
5.68708e-05
5.68719e-05
6.23148e-05
4.94775e-05
6.08628e-05
4.94889e-05
2.36712e-05
2.36664e-05
6.22678e-05
4.94746e-05
6.09038e-05
4.94863e-05
0.00016259
0.00016258
0.000162586
0.000159451
0.000159453
0.000159444
0.00015945
5.95062e-05
5.94839e-05
0.000139012
0.000111802
5.8839e-05
6.02315e-05
0.000137902
2.36692e-05
2.36647e-05
5.95072e-05
0.000139014
5.94816e-05
0.00011179
5.88341e-05
0.000137896
6.02313e-05
5.76154e-05
5.76192e-05
8.70647e-05
5.8211e-05
5.82116e-05
6.51877e-05
4.95039e-05
6.39244e-05
4.95145e-05
2.36558e-05
2.36517e-05
6.5181e-05
4.95013e-05
6.39301e-05
4.95122e-05
0.000158418
0.000158407
0.000158414
0.000155296
0.0001553
0.000155288
0.000155295
6.17449e-05
6.16812e-05
0.000134594
0.000107756
6.09482e-05
6.23988e-05
0.000133515
2.3654e-05
2.36498e-05
6.17432e-05
0.000134592
6.16775e-05
0.000107746
6.09414e-05
0.000133512
6.24034e-05
5.8887e-05
5.88903e-05
8.49077e-05
5.94115e-05
5.94121e-05
6.77898e-05
4.95288e-05
6.66412e-05
4.95384e-05
2.36418e-05
2.36381e-05
6.77859e-05
4.95267e-05
6.66523e-05
4.95368e-05
0.000154268
0.000154256
0.000154264
0.000151166
0.000151169
0.000151157
0.000151167
6.43024e-05
6.37894e-05
0.000130299
0.000104157
6.34158e-05
6.44829e-05
0.00012926
2.36398e-05
2.36359e-05
6.43071e-05
0.000130296
6.37709e-05
0.000104148
6.34114e-05
0.00012926
6.45004e-05
6.00359e-05
6.00394e-05
8.33855e-05
6.05063e-05
6.0506e-05
7.00688e-05
4.95521e-05
6.9076e-05
4.95606e-05
2.36288e-05
2.36252e-05
7.00393e-05
4.95498e-05
6.91045e-05
4.9559e-05
0.000150145
0.000150134
0.000150144
0.000147072
0.000147077
0.000147063
0.000147073
6.70991e-05
6.57819e-05
0.000126173
0.000100962
6.61389e-05
6.64765e-05
0.00012515
2.36266e-05
2.3623e-05
6.71028e-05
0.000126176
6.57741e-05
0.000100953
6.61482e-05
0.000125148
6.64873e-05
6.10765e-05
6.1081e-05
8.2489e-05
6.15126e-05
6.15113e-05
7.20776e-05
4.95725e-05
7.11876e-05
4.95808e-05
2.36165e-05
2.36132e-05
7.20419e-05
4.95707e-05
7.12177e-05
4.9579e-05
0.000146062
0.000146053
0.000146061
0.000143021
0.000143026
0.000143019
0.000143024
7.00404e-05
6.76828e-05
0.00012222
9.82612e-05
6.90308e-05
6.83545e-05
0.000121257
2.36143e-05
2.36109e-05
7.00396e-05
0.000122227
6.76704e-05
9.8255e-05
6.90369e-05
0.00012125
6.83677e-05
6.20283e-05
6.20327e-05
8.21602e-05
6.24328e-05
6.24329e-05
7.38213e-05
4.95907e-05
7.30285e-05
4.95981e-05
2.36052e-05
2.36023e-05
7.37969e-05
4.95893e-05
7.30632e-05
4.95963e-05
0.000142048
0.00014204
0.000142042
0.000139069
0.000139076
0.000139053
0.000139074
7.30436e-05
6.94709e-05
0.000118523
9.60946e-05
7.19897e-05
7.01424e-05
0.000117622
2.3603e-05
2.36e-05
7.30566e-05
0.000118531
6.94654e-05
9.6084e-05
7.19966e-05
0.000117615
7.01537e-05
6.29012e-05
6.29037e-05
8.23595e-05
6.32754e-05
6.32771e-05
7.53539e-05
4.96069e-05
7.46628e-05
4.96131e-05
2.35948e-05
2.35923e-05
7.53369e-05
4.96052e-05
7.46833e-05
4.96114e-05
0.000138114
0.000138098
0.000138116
0.000135218
0.000135224
0.000135217
0.000135227
7.60362e-05
7.11573e-05
0.000115127
9.44165e-05
7.49782e-05
7.18152e-05
0.000114319
2.35926e-05
2.35899e-05
7.60642e-05
0.000115131
7.11476e-05
9.44119e-05
7.49687e-05
0.000114315
7.18336e-05
6.37147e-05
6.37151e-05
8.30552e-05
6.40539e-05
6.40573e-05
7.66862e-05
4.96212e-05
7.61145e-05
4.96262e-05
2.35853e-05
2.35832e-05
7.67274e-05
4.96197e-05
7.61167e-05
4.96252e-05
0.000134284
0.000134277
0.000134262
0.000131588
0.000131545
0.000131546
0.000131544
7.8974e-05
7.27401e-05
0.000112013
9.32745e-05
7.79037e-05
7.33905e-05
0.0001113
2.35831e-05
2.35808e-05
7.89899e-05
0.000112032
7.27357e-05
9.32978e-05
7.78852e-05
0.000111313
7.34058e-05
6.44514e-05
6.44514e-05
8.40994e-05
6.4772e-05
6.47758e-05
7.79503e-05
4.96337e-05
7.74019e-05
4.96389e-05
2.35768e-05
2.3575e-05
7.79754e-05
4.96315e-05
7.73677e-05
4.96369e-05
0.000130661
0.000130633
0.00013066
0.000127901
0.000127976
0.000127948
0.000127983
8.18828e-05
7.42642e-05
0.000109338
9.26575e-05
8.07712e-05
7.48853e-05
0.000108727
2.35747e-05
2.35725e-05
8.18535e-05
0.000109336
7.42627e-05
9.26391e-05
8.07512e-05
0.000108708
7.48885e-05
6.51577e-05
6.5157e-05
8.5644e-05
6.5453e-05
6.54521e-05
7.89847e-05
4.96448e-05
7.8568e-05
4.96491e-05
2.35694e-05
2.35681e-05
7.90795e-05
4.96437e-05
7.8507e-05
4.96489e-05
0.000127088
0.00012706
0.000127105
0.000124622
0.000124665
0.000124651
0.000124605
8.45946e-05
7.56559e-05
0.000107004
9.2341e-05
8.34763e-05
7.62618e-05
0.00010647
2.35673e-05
2.35657e-05
8.45434e-05
0.000106987
7.56385e-05
9.23041e-05
8.34998e-05
0.00010645
7.62702e-05
6.57637e-05
6.57607e-05
8.71719e-05
6.60649e-05
6.60638e-05
8.00456e-05
4.96565e-05
7.96454e-05
4.96611e-05
2.35632e-05
2.35619e-05
8.0104e-05
4.96542e-05
7.95669e-05
4.96604e-05
0.000123906
0.000123932
0.000123895
0.000121845
0.00012174
0.000121754
0.000121725
8.72264e-05
7.70125e-05
0.000105136
9.27955e-05
8.60848e-05
7.76128e-05
0.000104722
2.3561e-05
2.35598e-05
8.72226e-05
0.000105152
7.70099e-05
9.28574e-05
8.61725e-05
0.000104781
7.76292e-05
6.63889e-05
6.63976e-05
8.9486e-05
6.66806e-05
6.66772e-05
8.09922e-05
4.96661e-05
8.06449e-05
4.96696e-05
2.35576e-05
2.35563e-05
8.09824e-05
4.96633e-05
8.06026e-05
4.96677e-05
0.000121074
0.000121069
0.000120975
0.000118834
0.000118924
0.000118917
0.00011892
8.98242e-05
7.83183e-05
0.000103789
9.36991e-05
8.86337e-05
7.89053e-05
0.000103553
2.35552e-05
2.35542e-05
8.97533e-05
0.000103829
7.83136e-05
9.36988e-05
8.87396e-05
0.000103519
7.88713e-05
6.69628e-05
6.69689e-05
9.15829e-05
6.7194e-05
6.71761e-05
8.19205e-05
4.96774e-05
8.14875e-05
4.96814e-05
2.35523e-05
2.35518e-05
8.18169e-05
4.96742e-05
8.14604e-05
4.96808e-05
0.000118149
0.000118146
0.000118261
0.000116181
0.000116124
0.000116043
0.000116293
9.19756e-05
7.94731e-05
0.00010278
9.42962e-05
9.10519e-05
7.99475e-05
0.000102529
2.35498e-05
2.35495e-05
9.22176e-05
0.000102703
7.94898e-05
9.42148e-05
9.10156e-05
0.000102472
7.99159e-05
6.75192e-05
6.75355e-05
9.39683e-05
6.77291e-05
6.7732e-05
8.27121e-05
4.96875e-05
8.23045e-05
4.9694e-05
2.35501e-05
2.35497e-05
8.27039e-05
4.96874e-05
8.23916e-05
4.96927e-05
0.000115652
0.000115634
0.000115729
0.000114579
0.000114527
0.000114563
0.000114253
9.43195e-05
8.06632e-05
0.00010195
9.60163e-05
9.33368e-05
8.12172e-05
0.000101939
2.35482e-05
2.35476e-05
9.44819e-05
0.000102119
8.07123e-05
9.61538e-05
9.32518e-05
0.000102139
8.12739e-05
6.79445e-05
6.79555e-05
9.6321e-05
6.82604e-05
6.82577e-05
8.34417e-05
4.9698e-05
8.31677e-05
4.97031e-05
2.35466e-05
2.35456e-05
8.34174e-05
4.96959e-05
8.32149e-05
4.97008e-05
0.000114158
0.000114104
0.000113883
0.000111983
0.00011221
0.000112204
0.000112475
9.67088e-05
8.18888e-05
0.000102292
9.80931e-05
9.57534e-05
8.22398e-05
0.000102344
2.35436e-05
2.35432e-05
9.65632e-05
0.000102148