/*--------------------------------*- C++ -*----------------------------------*\
| =========                 |                                                 |
| \\      /  F ield         | OpenFOAM: The Open Source CFD Toolbox           |
|  \\    /   O peration     | Version:  v2012                                 |
|   \\  /    A nd           | Website:  www.openfoam.com                      |
|    \\/     M anipulation  |                                                 |
\*---------------------------------------------------------------------------*/
FoamFile
{
    version     2.0;
    format      ascii;
    class       volScalarField;
    location    "1000";
    object      p;
}
// * * * * * * * * * * * * * * * * * * * * * * * * * * * * * * * * * * * * * //

dimensions      [0 2 -2 0 0 0 0];


internalField   nonuniform List<scalar> 
85864
(
0.00360503
0.00360536
0.00360536
0.00360841
0.00354967
0.00355009
0.00355009
0.00355308
0.00349892
0.00349889
0.00349889
0.00350165
0.00344653
0.00344655
0.00344655
0.00344932
0.00339518
0.00339519
0.00339519
0.00339794
0.00334521
0.00334522
0.00334522
0.00334794
0.00329668
0.0032967
0.0032967
0.00329938
0.00324945
0.00324948
0.00324948
0.00325212
0.00320332
0.00320335
0.00320335
0.00320596
0.00315809
0.00315811
0.00315812
0.0031607
0.00311358
0.0031136
0.0031136
0.00311617
0.00306967
0.00306969
0.00306969
0.00307224
0.00302628
0.0030263
0.00302629
0.00302881
0.00298335
0.00298336
0.00298337
0.00298587
0.00294085
0.00294086
0.00294086
0.00294336
0.00289876
0.00289877
0.00289877
0.00290125
0.00285705
0.00285705
0.00285704
0.00285953
0.0028157
0.0028157
0.0028157
0.00281817
0.00277469
0.00277468
0.00277468
0.00277714
0.00273399
0.00273396
0.00273396
0.00273643
0.00269358
0.00269354
0.00269355
0.00269599
0.00265344
0.0026534
0.0026534
0.00265584
0.00261355
0.0026135
0.0026135
0.00261594
0.0025739
0.00257384
0.00257384
0.00257627
0.00253447
0.00253441
0.00253442
0.00253683
0.00249526
0.0024952
0.00249521
0.00249761
0.00245625
0.0024562
0.00245621
0.00245859
0.00241746
0.00241741
0.00241741
0.00241978
0.00237885
0.00237881
0.00237881
0.00238116
0.00234041
0.00234038
0.00234038
0.0023427
0.00230218
0.00230214
0.00230215
0.00230446
0.00226414
0.00226411
0.00226411
0.00226638
0.00222621
0.00222619
0.00222618
0.00222845
0.00218851
0.0021885
0.0021885
0.00219073
0.00215095
0.00215092
0.00215091
0.00215317
0.00211351
0.00211349
0.00211351
0.00211566
0.00207618
0.00207618
0.00207616
0.00207842
0.00203929
0.00203928
0.00203929
0.00204126
0.002002
0.00200195
0.00200198
0.0020042
0.0019656
0.00196565
0.00196549
0.00196806
0.0019299
0.0019297
0.00192995
0.001932
0.0018934
0.00189419
0.00189408
0.00189523
0.00185444
0.001853
0.0018524
0.00185511
0.00181368
0.00181223
0.0018131
0.00181635
0.00177923
0.00178123
0.00178166
0.00178221
0.00174781
0.00175033
0.0017487
0.00175294
0.00171828
0.00171465
0.00171551
0.00171587
0.00361844
0.00361866
0.00361866
0.00361844
0.00361866
0.00361866
0.00361943
0.00361942
0.00361943
0.00361943
0.00361866
0.00361866
0.00361844
0.00361866
0.00361866
0.00361844
0.00360841
0.00355965
0.00360536
0.00360536
0.00356193
0.00356193
0.00360841
0.00355965
0.00360536
0.00360536
0.00356193
0.00356193
0.00360536
0.00356193
0.00356193
0.00360841
0.00355965
0.00360536
0.00356193
0.00356193
0.00355965
0.00355308
0.00350857
0.00355009
0.00355009
0.00351202
0.00351202
0.00355308
0.00350857
0.00355009
0.00355009
0.00351202
0.00351202
0.00355009
0.00351202
0.00351202
0.00355308
0.00350857
0.00355009
0.00351202
0.00351202
0.00350857
0.00350165
0.0034562
0.00349889
0.00349889
0.00345956
0.00345956
0.00350165
0.0034562
0.00349889
0.00349889
0.00345956
0.00345956
0.00349889
0.00345956
0.00345956
0.00350165
0.0034562
0.00349889
0.00345956
0.00345956
0.0034562
0.00344932
0.00340465
0.00344655
0.00344655
0.00340791
0.00340792
0.00344932
0.00340465
0.00344655
0.00344655
0.00340791
0.00340792
0.00344655
0.00340792
0.00340792
0.00344932
0.00340465
0.00344655
0.00340791
0.00340791
0.00340465
0.00339794
0.00335444
0.00339519
0.00339519
0.00335757
0.00335757
0.00339794
0.00335444
0.00339519
0.00339519
0.00335757
0.00335757
0.00339519
0.00335757
0.00335757
0.00339794
0.00335444
0.00339519
0.00335757
0.00335757
0.00335444
0.00334794
0.00330568
0.00334522
0.00334522
0.0033087
0.0033087
0.00334794
0.00330568
0.00334522
0.00334522
0.0033087
0.0033087
0.00334522
0.0033087
0.0033087
0.00334794
0.00330568
0.00334522
0.0033087
0.0033087
0.00330568
0.00329938
0.00325825
0.0032967
0.0032967
0.00326117
0.00326117
0.00329938
0.00325826
0.0032967
0.0032967
0.00326117
0.00326117
0.0032967
0.00326117
0.00326118
0.00329938
0.00325826
0.0032967
0.00326117
0.00326117
0.00325825
0.00325213
0.00321195
0.00324947
0.00324947
0.00321478
0.00321478
0.00325213
0.00321196
0.00324947
0.00324947
0.00321479
0.00321478
0.00324948
0.00321478
0.00321479
0.00325212
0.00321196
0.00324947
0.00321478
0.00321479
0.00321195
0.00320597
0.00316658
0.00320334
0.00320335
0.00316935
0.00316935
0.00320597
0.00316658
0.00320334
0.00320335
0.00316936
0.00316934
0.00320334
0.00316935
0.00316935
0.00320597
0.00316658
0.00320334
0.00316934
0.00316935
0.00316658
0.0031607
0.00312195
0.00315811
0.00315811
0.00312468
0.00312468
0.00316071
0.00312195
0.00315811
0.00315812
0.00312468
0.00312467
0.00315811
0.00312468
0.00312467
0.00316071
0.00312195
0.00315811
0.00312467
0.00312467
0.00312195
0.00311616
0.00307794
0.0031136
0.0031136
0.00308062
0.00308062
0.00311617
0.00307794
0.0031136
0.0031136
0.00308062
0.00308062
0.00311361
0.00308063
0.00308061
0.00311617
0.00307793
0.00311361
0.00308063
0.00308061
0.00307794
0.00307223
0.00303445
0.0030697
0.00306969
0.00303709
0.0030371
0.00307223
0.00303444
0.0030697
0.00306969
0.00303709
0.0030371
0.0030697
0.0030371
0.0030371
0.00307223
0.00303444
0.0030697
0.0030371
0.0030371
0.00303444
0.00302881
0.00299143
0.0030263
0.0030263
0.00299406
0.00299405
0.00302881
0.00299144
0.0030263
0.00302629
0.00299406
0.00299405
0.0030263
0.00299405
0.00299406
0.00302881
0.00299143
0.00302629
0.00299405
0.00299406
0.00299143
0.00298586
0.00294888
0.00298336
0.00298336
0.00295145
0.00295145
0.00298587
0.00294887
0.00298336
0.00298337
0.00295145
0.00295145
0.00298336
0.00295145
0.00295144
0.00298587
0.00294887
0.00298336
0.00295145
0.00295144
0.00294888
0.00294336
0.00290671
0.00294086
0.00294086
0.00290925
0.00290924
0.00294336
0.00290672
0.00294086
0.00294086
0.00290925
0.00290925
0.00294086
0.00290925
0.00290925
0.00294336
0.00290672
0.00294087
0.00290925
0.00290925
0.00290672
0.00290125
0.00286494
0.00289876
0.00289877
0.00286744
0.00286745
0.00290125
0.00286495
0.00289876
0.00289877
0.00286744
0.00286744
0.00289876
0.00286745
0.00286744
0.00290125
0.00286494
0.00289876
0.00286744
0.00286744
0.00286495
0.00285953
0.00282354
0.00285705
0.00285705
0.002826
0.002826
0.00285953
0.00282354
0.00285705
0.00285704
0.002826
0.002826
0.00285705
0.002826
0.00282601
0.00285953
0.00282354
0.00285705
0.002826
0.00282601
0.00282354
0.00281817
0.00278248
0.0028157
0.0028157
0.0027849
0.00278491
0.00281817
0.00278247
0.0028157
0.0028157
0.0027849
0.00278491
0.0028157
0.00278491
0.0027849
0.00281817
0.00278247
0.0028157
0.00278491
0.0027849
0.00278247
0.00277715
0.00274172
0.00277468
0.00277468
0.00274412
0.00274412
0.00277714
0.00274171
0.00277468
0.00277468
0.00274412
0.00274412
0.00277468
0.00274412
0.00274412
0.00277714
0.00274171
0.00277468
0.00274412
0.00274412
0.00274172
0.00273642
0.00270126
0.00273397
0.00273396
0.00270363
0.00270362
0.00273642
0.00270126
0.00273397
0.00273396
0.00270363
0.00270362
0.00273397
0.00270362
0.00270363
0.00273642
0.00270126
0.00273397
0.00270362
0.00270363
0.00270126
0.00269599
0.00266107
0.00269354
0.00269355
0.00266341
0.00266341
0.002696
0.00266107
0.00269354
0.00269355
0.00266341
0.00266341
0.00269354
0.00266341
0.00266341
0.002696
0.00266107
0.00269354
0.00266341
0.00266341
0.00266107
0.00265584
0.00262114
0.0026534
0.0026534
0.00262345
0.00262345
0.00265584
0.00262114
0.0026534
0.0026534
0.00262345
0.00262345
0.00265339
0.00262345
0.00262345
0.00265584
0.00262114
0.00265339
0.00262345
0.00262345
0.00262114
0.00261594
0.00258144
0.0026135
0.0026135
0.00258374
0.00258373
0.00261594
0.00258144
0.0026135
0.0026135
0.00258374
0.00258373
0.0026135
0.00258373
0.00258373
0.00261594
0.00258144
0.0026135
0.00258373
0.00258373
0.00258144
0.00257627
0.00254198
0.00257384
0.00257384
0.00254425
0.00254424
0.00257627
0.00254198
0.00257384
0.00257384
0.00254425
0.00254425
0.00257384
0.00254424
0.00254425
0.00257627
0.00254198
0.00257384
0.00254425
0.00254425
0.00254198
0.00253683
0.00250273
0.00253441
0.00253441
0.00250499
0.00250498
0.00253683
0.00250273
0.00253441
0.00253442
0.00250499
0.00250498
0.00253441
0.00250498
0.00250499
0.00253683
0.00250273
0.00253441
0.00250498
0.00250499
0.00250273
0.0024976
0.00246369
0.0024952
0.0024952
0.00246594
0.00246593
0.00249761
0.00246369
0.0024952
0.00249521
0.00246594
0.00246593
0.00249521
0.00246593
0.00246594
0.00249761
0.00246369
0.00249521
0.00246593
0.00246594
0.0024637
0.00245859
0.00242486
0.0024562
0.0024562
0.00242709
0.00242709
0.00245858
0.00242485
0.0024562
0.00245621
0.00242709
0.00242708
0.00245621
0.00242709
0.00242709
0.00245859
0.00242486
0.00245621
0.00242709
0.00242709
0.00242486
0.00241978
0.00238622
0.00241741
0.00241741
0.00238845
0.00238845
0.00241977
0.00238622
0.00241741
0.00241741
0.00238845
0.00238844
0.00241741
0.00238845
0.00238844
0.00241978
0.00238622
0.00241741
0.00238844
0.00238844
0.00238622
0.00238116
0.00234775
0.00237881
0.00237881
0.00234997
0.00234997
0.00238116
0.00234775
0.00237881
0.00237881
0.00234997
0.00234997
0.00237881
0.00234997
0.00234997
0.00238116
0.00234775
0.00237881
0.00234997
0.00234997
0.00234775
0.00234271
0.00230947
0.00234038
0.00234038
0.00231168
0.00231169
0.0023427
0.00230947
0.00234038
0.00234038
0.00231168
0.00231169
0.00234038
0.00231168
0.00231169
0.0023427
0.00230947
0.00234038
0.00231169
0.00231169
0.00230948
0.00230445
0.00227139
0.00230214
0.00230214
0.00227361
0.00227361
0.00230445
0.0022714
0.00230214
0.00230214
0.00227361
0.00227361
0.00230214
0.00227361
0.00227359
0.00230445
0.0022714
0.00230215
0.0022736
0.00227359
0.00227139
0.00226638
0.00223343
0.0022641
0.00226411
0.00223564
0.00223564
0.00226639
0.00223344
0.0022641
0.00226411
0.00223564
0.00223564
0.0022641
0.00223565
0.00223566
0.00226639
0.00223344
0.0022641
0.00223564
0.00223565
0.00223344
0.00222845
0.00219573
0.00222618
0.00222618
0.00219791
0.00219789
0.00222844
0.00219571
0.00222618
0.00222618
0.00219792
0.0021979
0.00222619
0.00219788
0.00219789
0.00222844
0.00219572
0.00222618
0.0021979
0.00219789
0.0021957
0.00219073
0.00215809
0.0021885
0.0021885
0.00216031
0.00216033
0.00219075
0.00215811
0.0021885
0.00218851
0.0021603
0.0021603
0.00218848
0.00216033
0.00216033
0.00219075
0.0021581
0.00218848
0.0021603
0.00216033
0.00215812
0.00215315
0.00212065
0.00215094
0.00215092
0.00212283
0.00212282
0.00215314
0.00212063
0.00215092
0.00215091
0.00212283
0.00212286
0.00215096
0.00212283
0.00212282
0.00215314
0.00212067
0.00215095
0.00212286
0.00212282
0.00212062
0.00211569
0.00208331
0.00211347
0.00211349
0.00208547
0.00208548
0.00211568
0.00208331
0.00211349
0.00211352
0.00208549
0.00208545
0.00211344
0.00208547
0.00208549
0.0021157
0.0020833
0.00211345
0.00208545
0.0020855
0.00208333
0.00207838
0.00204631
0.00207619
0.00207618
0.00204853
0.00204854
0.00207841
0.00204636
0.00207619
0.00207616
0.0020485
0.00204857
0.00207626
0.00204855
0.00204847
0.00207841
0.00204636
0.00207626
0.00204857
0.00204845
0.00204623
0.00204138
0.00200908
0.00203924
0.00203928
0.00201122
0.00201124
0.00204139
0.00200899
0.00203922
0.0020393
0.00201123
0.00201122
0.00203911
0.0020112
0.00201116
0.00204139
0.002009
0.0020391
0.0020112
0.00201117
0.00200907
0.00200419
0.00197274
0.00200198
0.00200197
0.00197472
0.00197463
0.00200411
0.00197256
0.002002
0.00200198
0.00197475
0.00197457
0.002002
0.00197468
0.00197481
0.00200413
0.00197252
0.00200201
0.0019746
0.00197482
0.00197283
0.001968
0.00193644
0.00196582
0.00196561
0.00193881
0.00193864
0.00196772
0.00193663
0.00196584
0.00196545
0.00193876
0.00193869
0.00196579
0.00193862
0.00193886
0.00196769
0.00193665
0.00196579
0.00193864
0.00193883
0.00193669
0.00193152
0.0019001
0.00192958
0.0019297
0.0019022
0.00190336
0.0019319
0.00190091
0.00192955
0.00192995
0.00190225
0.00190355
0.00193013
0.00190344
0.00190267
0.001932
0.00190084
0.00193013
0.00190369
0.00190276
0.00190029
0.00189539
0.00186219
0.00189316
0.00189409
0.00186472
0.00186411
0.00189581
0.00186107
0.00189319
0.00189396
0.00186463
0.00186349
0.00189308
0.00186394
0.00186338
0.00189566
0.00186047
0.00189314
0.0018633
0.00186335
0.00186073
0.00185663
0.00182094
0.00185453
0.00185321
0.00182331
0.00182109
0.00185529
0.00181953
0.00185446
0.00185261
0.0018233
0.00182139
0.0018533
0.00182109
0.00182348
0.00185483
0.00182041
0.00185324
0.00182147
0.00182348
0.00182154
0.00181577
0.00178616
0.00181355
0.0018121
0.00178757
0.00178876
0.00181502
0.00178716
0.00181363
0.00181296
0.00178777
0.00178978
0.00181375
0.00178877
0.00178743
0.00181602
0.00178805
0.00181383
0.00178975
0.00178756
0.00178619
0.00178188
0.00175443
0.00177942
0.00178119
0.00175593
0.00175775
0.00178314
0.00175599
0.0017795
0.00178164
0.0017557
0.00175618
0.00177983
0.00175818
0.00175912
0.00178373
0.00175415
0.00177986
0.00175672
0.00175894
0.00175739
0.00175041
0.00172451
0.00174862
0.00174975
0.00172676
0.0017241
0.00175163
0.00172145
0.00174835
0.00174806
0.00172662
0.00172476
0.00175145
0.00172379
0.00172288
0.00174997
0.0017221
0.00175118
0.00172425
0.00172283
0.00172037
0.00172
0.00168481
0.00171837
0.00171529
0.00168768
0.0016867
0.00171671
0.00168396
0.0017185
0.00171629
0.00168788
0.00168737
0.00171316
0.00168616
0.00168588
0.00171742
0.00168461
0.0017135
0.00168681
0.00168612
0.00168396
0.00362681
0.00363658
0.00363137
0.00363138
0.00365376
0.00364054
0.00366915
0.00363458
0.00365376
0.00364054
0.00363459
0.00366915
0.00364511
0.00367289
0.00367289
0.00358217
0.00360132
0.00361051
0.00357425
0.00357499
0.00357776
0.00358215
0.00360129
0.0036105
0.00357423
0.00360503
0.00360503
0.00360503
0.00356163
0.00356163
0.00356162
0.00356162
0.00357967
0.00360549
0.00360543
0.0035885
0.00360852
0.00357857
0.00358938
0.00357509
0.00357776
0.00357968
0.00360543
0.00360551
0.0035885
0.00360852
0.00358938
0.00357857
0.00361137
0.00361136
0.0035829
0.00357821
0.00357821
0.00353554
0.00355482
0.00355618
0.00353408
0.00355373
0.00353363
0.00353554
0.00355481
0.00355618
0.00353407
0.00354967
0.00354967
0.00354967
0.00351208
0.00351208
0.00351208
0.00351208
0.00353412
0.00355489
0.00354967
0.0035378
0.00355368
0.00353467
0.00353753
0.00355372
0.00353363
0.00353413
0.00354967
0.00355489
0.0035378
0.00355368
0.00353753
0.00353466
0.00355591
0.00355591
0.00353435
0.003535
0.003535
0.00348328
0.00350208
0.00350315
0.00348225
0.00350172
0.00348197
0.00348328
0.00350208
0.00350315
0.00348225
0.00349892
0.00349892
0.00349892
0.00345954
0.00345954
0.00345954
0.00345954
0.00348238
0.00350248
0.0034988
0.00348575
0.00350192
0.00348274
0.00348566
0.00350172
0.00348197
0.00348238
0.0034988
0.00350248
0.00348575
0.00350192
0.00348566
0.00348274
0.00350272
0.00350272
0.00348237
0.0034828
0.0034828
0.00343075
0.0034494
0.00345026
0.00342998
0.0034492
0.0034298
0.00343075
0.0034494
0.00345026
0.00342998
0.00344653
0.00344653
0.00344653
0.00340791
0.00340791
0.00340791
0.00340791
0.00343024
0.00344981
0.0034465
0.0034336
0.00344953
0.00343043
0.00343356
0.0034492
0.0034298
0.00343024
0.0034465
0.00344981
0.0034336
0.00344953
0.00343356
0.00343043
0.00344985
0.00344985
0.00343028
0.00343036
0.00343036
0.00337955
0.00339791
0.00339854
0.003379
0.00339777
0.00337886
0.00337955
0.00339791
0.00339854
0.003379
0.00339518
0.00339518
0.00339518
0.00335756
0.00335756
0.00335756
0.00335756
0.00337928
0.00339826
0.00339516
0.00338256
0.00339809
0.00337939
0.00338253
0.00339776
0.00337886
0.00337928
0.00339516
0.00339826
0.00338256
0.00339809
0.00338253
0.00337939
0.00339824
0.00339824
0.00337936
0.0033793
0.0033793
0.00332991
0.00334786
0.00334831
0.00332951
0.00334775
0.00332939
0.00332991
0.00334786
0.00334831
0.00332951
0.00334521
0.00334521
0.00334521
0.00330869
0.00330869
0.00330869
0.00330869
0.00332979
0.00334816
0.00334519
0.00333296
0.00334804
0.00332986
0.00333293
0.00334774
0.0033294
0.00332979
0.00334519
0.00334816
0.00333296
0.00334804
0.00333293
0.00332986
0.00334814
0.00334814
0.00332988
0.00332977
0.00332977
0.00328173
0.00329929
0.0032996
0.00328146
0.00329918
0.00328136
0.00328173
0.00329929
0.00329961
0.00328146
0.00329668
0.00329668
0.00329668
0.00326115
0.00326115
0.00326115
0.00326115
0.00328171
0.00329955
0.00329667
0.00328478
0.00329945
0.00328177
0.00328475
0.00329918
0.00328136
0.00328171
0.00329667
0.00329955
0.00328478
0.00329945
0.00328475
0.00328177
0.00329954
0.00329954
0.00328181
0.00328169
0.00328169
0.00323484
0.00325203
0.00325226
0.00323464
0.00325193
0.00323455
0.00323484
0.00325203
0.00325226
0.00323464
0.00324945
0.00324945
0.00324946
0.00321477
0.00321476
0.00321476
0.00321477
0.00323488
0.00325226
0.00324944
0.00323784
0.00325218
0.00323493
0.00323781
0.00325193
0.00323455
0.00323488
0.00324944
0.00325226
0.00323785
0.00325218
0.00323781
0.00323493
0.00325225
0.00325225
0.00323497
0.00323485
0.00323485
0.00318901
0.00320587
0.00320605
0.00318885
0.00320579
0.00318876
0.003189
0.00320587
0.00320605
0.00318885
0.00320332
0.00320333
0.00320332
0.00316933
0.00316933
0.00316933
0.00316933
0.00318908
0.00320609
0.00320331
0.00319196
0.00320602
0.00318913
0.00319193
0.00320579
0.00318876
0.00318908
0.00320331
0.00320609
0.00319196
0.00320602
0.00319193
0.00318913
0.00320609
0.00320609
0.00318916
0.00318904
0.00318904
0.00314402
0.00316062
0.00316077
0.00314388
0.00316054
0.0031438
0.00314402
0.00316062
0.00316076
0.00314388
0.00315809
0.00315809
0.00315809
0.00312465
0.00312465
0.00312465
0.00312465
0.00314412
0.00316082
0.00315808
0.00314693
0.00316076
0.00314416
0.0031469
0.00316054
0.0031438
0.00314412
0.00315808
0.00316082
0.00314692
0.00316076
0.0031469
0.00314416
0.00316082
0.00316082
0.00314418
0.00314406
0.00314406
0.00309971
0.00311609
0.00311622
0.00309958
0.00311601
0.0030995
0.00309972
0.00311609
0.00311622
0.00309958
0.00311358
0.00311358
0.00311358
0.0030806
0.0030806
0.0030806
0.0030806
0.00309983
0.00311628
0.00311358
0.00310258
0.00311623
0.00309986
0.00310255
0.00311601
0.0030995
0.00309983
0.00311358
0.00311628
0.00310258
0.00311623
0.00310255
0.00309986
0.00311627
0.00311627
0.00309988
0.00309975
0.00309975
0.00305597
0.00307215
0.00307228
0.00305585
0.00307207
0.00305577
0.00305597
0.00307215
0.00307228
0.00305585
0.00306967
0.00306967
0.00306967
0.00303708
0.00303708
0.00303708
0.00303708
0.00305612
0.00307234
0.00306967
0.0030588
0.00307231
0.00305612
0.00305878
0.00307207
0.00305577
0.00305611
0.00306967
0.00307234
0.0030588
0.00307231
0.00305878
0.00305612
0.00307231
0.00307231
0.00305613
0.00305599
0.00305599
0.00301272
0.00302873
0.00302885
0.0030126
0.00302865
0.00301253
0.00301272
0.00302873
0.00302885
0.0030126
0.00302628
0.00302628
0.00302628
0.00299404
0.00299404
0.00299404
0.00299404
0.00301289
0.00302891
0.00302628
0.00301551
0.00302891
0.00301287
0.00301551
0.00302866
0.00301253
0.00301289
0.00302628
0.00302891
0.00301552
0.0030289
0.00301551
0.00301287
0.00302887
0.00302887
0.00301287
0.00301274
0.00301274
0.00296993
0.00298576
0.00298589
0.00296981
0.0029857
0.00296974
0.00296993
0.00298576
0.00298589
0.0029698
0.00298335
0.00298335
0.00298335
0.00295144
0.00295144
0.00295144
0.00295143
0.00297012
0.00298594
0.00298335
0.0029727
0.00298596
0.00297008
0.0029727
0.0029857
0.00296974
0.00297012
0.00298336
0.00298594
0.0029727
0.00298596
0.00297269
0.00297008
0.0029859
0.0029859
0.00297011
0.00296992
0.00296992
0.00292756
0.00294324
0.00294336
0.00292743
0.00294318
0.00292739
0.00292756
0.00294324
0.00294336
0.00292743
0.00294085
0.00294085
0.00294085
0.00290924
0.00290924
0.00290924
0.00290924
0.00292778
0.00294341
0.00294086
0.0029303
0.00294345
0.0029277
0.0029303
0.00294318
0.00292738
0.00292778
0.00294086
0.00294341
0.0029303
0.00294345
0.0029303
0.0029277
0.00294336
0.00294336
0.00292774
0.00292756
0.00292755
0.00288559
0.00290112
0.00290125
0.00288547
0.00290107
0.00288542
0.00288559
0.00290112
0.00290125
0.00288547
0.00289876
0.00289876
0.00289876
0.00286745
0.00286745
0.00286745
0.00286745
0.00288582
0.00290128
0.00289877
0.0028883
0.00290136
0.00288572
0.00288831
0.00290107
0.00288542
0.00288582
0.00289877
0.00290128
0.0028883
0.00290136
0.00288831
0.00288572
0.00290124
0.00290124
0.00288578
0.00288557
0.00288557
0.00284399
0.00285939
0.00285951
0.00284387
0.00285935
0.00284383
0.00284399
0.00285939
0.00285951
0.00284387
0.00285705
0.00285705
0.00285705
0.00282601
0.00282601
0.00282601
0.00282601
0.00284425
0.00285954
0.00285707
0.00284668
0.00285963
0.00284412
0.0028467
0.00285935
0.00284383
0.00284425
0.00285707
0.00285954
0.00284668
0.00285963
0.0028467
0.00284412
0.00285949
0.00285949
0.0028442
0.00284397
0.00284397
0.00280275
0.00281802
0.00281813
0.00280264
0.00281799
0.0028026
0.00280275
0.00281802
0.00281813
0.00280264
0.0028157
0.00281571
0.0028157
0.00278491
0.00278491
0.00278491
0.00278491
0.00280301
0.00281815
0.00281572
0.00280541
0.00281827
0.00280287
0.00280544
0.00281799
0.0028026
0.00280301
0.00281572
0.00281816
0.00280541
0.00281827
0.00280544
0.00280287
0.00281812
0.00281812
0.00280297
0.00280271
0.00280272
0.00276182
0.002777
0.0027771
0.00276172
0.00277696
0.00276169
0.00276183
0.002777
0.0027771
0.00276172
0.00277469
0.00277469
0.00277469
0.00274414
0.00274414
0.00274414
0.00274414
0.0027621
0.00277711
0.0027747
0.00276446
0.00277723
0.00276194
0.0027645
0.00277696
0.00276169
0.0027621
0.00277471
0.00277711
0.00276447
0.00277723
0.0027645
0.00276194
0.00277708
0.00277708
0.00276205
0.00276179
0.00276179
0.00272121
0.00273628
0.00273637
0.00272111
0.00273624
0.00272109
0.00272121
0.00273628
0.00273637
0.00272111
0.00273399
0.00273399
0.00273399
0.00270366
0.00270366
0.00270366
0.00270366
0.00272149
0.00273638
0.002734
0.00272383
0.0027365
0.00272132
0.00272387
0.00273625
0.00272109
0.00272148
0.002734
0.00273638
0.00272384
0.0027365
0.00272387
0.00272132
0.00273635
0.00273635
0.00272145
0.00272118
0.00272118
0.00268088
0.00269585
0.00269593
0.00268079
0.00269581
0.00268077
0.00268088
0.00269585
0.00269593
0.00268079
0.00269358
0.00269358
0.00269358
0.00266345
0.00266345
0.00266345
0.00266345
0.00268115
0.00269593
0.00269357
0.00268349
0.00269606
0.00268098
0.00268351
0.00269582
0.00268076
0.00268115
0.00269358
0.00269593
0.00268348
0.00269606
0.00268351
0.00268098
0.00269591
0.00269591
0.00268113
0.00268084
0.00268084
0.00264081
0.00265569
0.00265577
0.00264073
0.00265566
0.0026407
0.00264081
0.00265569
0.00265576
0.00264073
0.00265344
0.00265344
0.00265344
0.0026235
0.0026235
0.0026235
0.0026235
0.00264108
0.00265576
0.00265342
0.0026434
0.00265588
0.0026409
0.00264343
0.00265566
0.0026407
0.00264108
0.00265342
0.00265576
0.0026434
0.00265588
0.00264343
0.0026409
0.00265575
0.00265575
0.00264108
0.00264077
0.00264077
0.00260098
0.00261578
0.00261585
0.00260091
0.00261576
0.00260089
0.00260099
0.00261578
0.00261585
0.00260091
0.00261355
0.00261355
0.00261355
0.00258379
0.00258379
0.00258379
0.00258379
0.00260124
0.00261584
0.00261352
0.00260356
0.00261596
0.00260107
0.00260359
0.00261576
0.00260089
0.00260123
0.00261353
0.00261584
0.00260356
0.00261595
0.00260359
0.00260107
0.00261583
0.00261583
0.00260126
0.00260095
0.00260095
0.0025614
0.00257611
0.00257618
0.00256133
0.00257609
0.00256131
0.0025614
0.00257611
0.00257618
0.00256133
0.0025739
0.0025739
0.0025739
0.00254431
0.00254431
0.00254431
0.00254431
0.00256164
0.00257616
0.00257386
0.00256396
0.00257626
0.00256148
0.00256398
0.00257609
0.00256131
0.00256163
0.00257386
0.00257616
0.00256396
0.00257627
0.00256398
0.00256147
0.00257615
0.00257615
0.00256168
0.00256137
0.00256137
0.00252204
0.00253667
0.00253673
0.00252197
0.00253665
0.00252195
0.00252204
0.00253667
0.00253673
0.00252197
0.00253447
0.00253447
0.00253447
0.00250504
0.00250504
0.00250504
0.00250504
0.00252226
0.00253671
0.00253442
0.00252459
0.0025368
0.00252211
0.0025246
0.00253665
0.00252195
0.00252226
0.00253443
0.00253671
0.00252459
0.00253681
0.0025246
0.0025221
0.00253671
0.00253671
0.00252232
0.00252201
0.00252201
0.00248289
0.00249744
0.0024975
0.00248282
0.00249743
0.0024828
0.00248289
0.00249744
0.0024975
0.00248282
0.00249526
0.00249526
0.00249526
0.00246599
0.00246599
0.00246599
0.00246599
0.00248309
0.00249748
0.00249521
0.00248544
0.00249756
0.00248295
0.00248544
0.00249742
0.0024828
0.0024831
0.00249521
0.00249748
0.00248544
0.00249757
0.00248544
0.00248295
0.00249748
0.00249748
0.00248318
0.00248285
0.00248285
0.00244395
0.00245843
0.00245849
0.00244388
0.00245842
0.00244387
0.00244395
0.00245843
0.00245849
0.00244389
0.00245626
0.00245626
0.00245626
0.00242714
0.00242714
0.00242714
0.00242714
0.00244414
0.00245845
0.00245621
0.00244649
0.00245853
0.002444
0.00244649
0.00245841
0.00244387
0.00244414
0.00245621
0.00245846
0.00244649
0.00245853
0.00244649
0.00244401
0.00245846
0.00245846
0.00244424
0.00244392
0.00244392
0.00240521
0.00241962
0.00241968
0.00240515
0.00241962
0.00240513
0.0024052
0.00241962
0.00241968
0.00240514
0.00241746
0.00241746
0.00241746
0.00238849
0.00238849
0.00238849
0.00238849
0.00240539
0.00241964
0.00241742
0.00240774
0.00241971
0.00240526
0.00240775
0.00241961
0.00240513
0.00240539
0.00241742
0.00241964
0.00240775
0.00241971
0.00240775
0.00240526
0.00241965
0.00241965
0.00240552
0.00240517
0.00240517
0.00236665
0.00238099
0.00238105
0.00236658
0.00238098
0.00236658
0.00236664
0.00238099
0.00238105
0.00236658
0.00237885
0.00237885
0.00237885
0.00235001
0.00235001
0.00235001
0.00235001
0.00236683
0.00238101
0.00237882
0.00236919
0.00238108
0.0023667
0.00236919
0.00238097
0.00236657
0.00236682
0.00237882
0.00238101
0.00236919
0.00238108
0.00236919
0.0023667
0.00238102
0.00238102
0.00236696
0.00236661
0.00236661
0.00232829
0.00234256
0.0023426
0.00232823
0.00234255
0.00232821
0.00232828
0.00234256
0.00234261
0.00232823
0.00234042
0.00234042
0.00234042
0.00231172
0.00231172
0.00231172
0.00231172
0.00232844
0.00234257
0.00234039
0.0023308
0.00234263
0.00232832
0.00233081
0.00234255
0.00232821
0.00232844
0.00234039
0.00234257
0.0023308
0.00234263
0.00233081
0.00232833
0.0023426
0.0023426
0.00232859
0.00232824
0.00232825
0.00229009
0.00230431
0.00230435
0.00229004
0.00230432
0.00229004
0.00229009
0.00230432
0.00230437
0.00229003
0.00230218
0.00230218
0.00230218
0.00227364
0.00227364
0.00227364
0.00227363
0.00229027
0.00230433
0.00230215
0.00229261
0.00230437
0.00229015
0.00229262
0.00230433
0.00229004
0.00229025
0.00230216
0.00230433
0.00229261
0.00230439
0.00229263
0.00229015
0.00230433
0.00230433
0.0022904
0.00229008
0.00229007
0.00225207
0.00226623
0.00226628
0.00225201
0.00226621
0.00225201
0.00225207
0.00226622
0.00226627
0.00225201
0.00226414
0.00226414
0.00226414
0.00223567
0.00223568
0.00223568
0.00223569
0.00225224
0.00226624
0.00226411
0.00225461
0.0022663
0.00225212
0.00225462
0.00226619
0.00225201
0.00225224
0.00226411
0.00226623
0.00225462
0.0022663
0.00225462
0.00225212
0.00226626
0.00226626
0.00225241
0.00225204
0.00225204
0.00221425
0.00222834
0.00222837
0.00221422
0.00222833
0.00221421
0.00221426
0.00222834
0.00222837
0.00221422
0.00222622
0.00222621
0.00222622
0.00219792
0.00219789
0.0021979
0.0021979
0.00221438
0.00222833
0.00222621
0.00221673
0.00222837
0.00221429
0.00221675
0.00222834
0.00221421
0.00221439
0.0022262
0.00222834
0.00221673
0.00222838
0.00221676
0.00221429
0.00222835
0.00222835
0.00221454
0.00221422
0.00221422
0.00217655
0.00219058
0.00219063
0.00217648
0.00219061
0.00217651
0.00217654
0.00219059
0.00219063
0.00217648
0.0021885
0.00218851
0.00218849
0.00216034
0.00216036
0.00216034
0.00216035
0.00217674
0.00219063
0.0021885
0.00217913
0.00219067
0.00217663
0.00217911
0.0021906
0.00217649
0.00217673
0.0021885
0.00219063
0.00217911
0.00219065
0.00217911
0.00217661
0.00219066
0.00219066
0.0021769
0.00217654
0.00217654
0.00213905
0.00215304
0.00215307
0.00213902
0.00215295
0.00213896
0.00213907
0.00215304
0.00215307
0.00213906
0.00215097
0.00215094
0.00215097
0.00212284
0.00212283
0.00212286
0.00212285
0.00213917
0.00215298
0.00215096
0.00214153
0.00215306
0.00213903
0.00214158
0.00215298
0.00213903
0.00213918
0.00215095
0.00215298
0.00214154
0.00215304
0.00214157
0.00213909
0.00215302
0.00215302
0.00213938
0.00213903
0.00213903
0.00210161
0.00211553
0.00211557
0.00210156
0.00211563
0.00210162
0.00210159
0.00211556
0.00211561
0.00210151
0.0021135
0.00211355
0.00211348
0.00208548
0.00208546
0.00208544
0.00208548
0.00210179
0.00211563
0.00211351
0.00210414
0.00211561
0.00210174
0.00210415
0.00211559
0.00210154
0.00210179
0.00211352
0.00211564
0.00210415
0.00211566
0.00210418
0.00210168
0.00211558
0.0021156
0.00210192
0.00210163
0.00210163
0.00206455
0.0020784
0.00207841
0.00206451
0.00207835
0.00206455
0.00206455
0.00207832
0.00207833
0.0020645
0.00207616
0.00207612
0.00207626
0.00204852
0.00204854
0.00204857
0.00204851
0.00206467
0.00207834
0.00207622
0.00206696
0.00207839
0.00206459
0.00206699
0.00207841
0.00206461
0.00206464
0.00207622
0.00207834
0.00206694
0.00207833
0.00206698
0.00206461
0.00207846
0.00207843
0.00206486
0.00206435
0.00206433
0.00202724
0.00204111
0.00204122
0.00202718
0.00204112
0.00202708
0.00202725
0.00204118
0.00204126
0.00202723
0.00203929
0.00203933
0.00203921
0.00201131
0.00201134
0.00201133
0.00201122
0.00202733
0.00204115
0.00203928
0.00202992
0.00204122
0.00202717
0.00202996
0.00204102
0.002027
0.00202737
0.00203926
0.00204111
0.0020299
0.00204124
0.00202995
0.00202714
0.00204089
0.00204093
0.00202752
0.0020272
0.00202724
0.00199053
0.00200425
0.00200411
0.00199072
0.00200409
0.00199064
0.00199057
0.00200429
0.00200415
0.00199075
0.00200205
0.00200208
0.00200201
0.00197458
0.00197469
0.00197465
0.00197465
0.00199069
0.00200406
0.00200204
0.00199278
0.0020041
0.00199063
0.00199286
0.00200414
0.00199066
0.0019907