/*--------------------------------*- C++ -*----------------------------------*\
| =========                 |                                                 |
| \\      /  F ield         | OpenFOAM: The Open Source CFD Toolbox           |
|  \\    /   O peration     | Version:  v2012                                 |
|   \\  /    A nd           | Website:  www.openfoam.com                      |
|    \\/     M anipulation  |                                                 |
\*---------------------------------------------------------------------------*/
FoamFile
{
    version     2.0;
    format      ascii;
    class       surfaceScalarField;
    location    "1000";
    object      phi;
}
// * * * * * * * * * * * * * * * * * * * * * * * * * * * * * * * * * * * * * //

dimensions      [0 3 -1 0 0 0 0];
oriented        oriented;


internalField   nonuniform List<scalar> 
248808
(
-0.00104221
-1.45815e-05
-1.44777e-05
9.34771e-06
9.17762e-06
0.00105274
-0.00026146
-5.64183e-06
1.44583e-05
6.83957e-06
0.00105941
-4.53274e-06
-1.62486e-06
-2.21805e-06
-2.57554e-06
-6.59143e-06
-7.04427e-06
-3.16375e-06
-0.000263303
-0.000259727
-0.000262829
-0.000261437
-5.64682e-06
1.44873e-05
6.92911e-06
0.0010592
-4.53786e-06
-1.63504e-06
-2.22565e-06
-2.57985e-06
-6.58553e-06
-7.04033e-06
-3.16594e-06
-0.000259699
-0.000263274
-0.000262793
-0.000260564
5.61732e-06
5.65742e-06
-4.87815e-06
-4.87221e-06
0.00025904
-1.63187e-06
-1.63376e-06
-0.00106073
8.98537e-07
8.99307e-07
0.0010622
-0.00106267
-1.60665e-06
1.62783e-06
8.28417e-07
0.00106395
-6.53887e-07
7.84506e-07
-1.4815e-07
3.78012e-07
-8.00668e-07
-1.39484e-06
-2.90553e-07
-0.00106235
-1.60156e-06
1.63834e-06
8.23605e-07
0.00106363
-6.53863e-07
7.79017e-07
-1.48198e-07
3.75396e-07
-8.03197e-07
-1.39453e-06
-2.88004e-07
-0.000261533
1.63928e-06
1.60171e-06
-7.13271e-07
-7.1642e-07
0.000259722
-1.36113e-06
-1.36255e-06
-0.0010664
6.82252e-07
6.83062e-07
0.00106775
-0.0010679
-1.55714e-06
1.3673e-06
6.90355e-07
0.00106925
-6.2182e-07
8.38623e-07
-1.06575e-07
4.24394e-07
-7.80405e-07
-1.35997e-06
-2.45167e-07
-0.00106758
-1.55189e-06
1.36211e-06
6.95678e-07
0.00106892
-6.21823e-07
8.33212e-07
-1.06546e-07
4.2434e-07
-7.80325e-07
-1.35442e-06
-2.42615e-07
-0.000262766
1.58732e-06
1.55204e-06
-6.74944e-07
-6.83121e-07
0.000260984
-1.34099e-06
-1.34229e-06
-0.00107186
6.64411e-07
6.65263e-07
0.00107322
-0.00107326
-1.55555e-06
1.34196e-06
6.67271e-07
0.00107457
-6.19914e-07
8.63795e-07
-8.15832e-08
4.38216e-07
-7.79447e-07
-1.36934e-06
-2.20269e-07
-0.00107292
-1.55022e-06
1.34185e-06
6.67349e-07
0.00107424
-6.17207e-07
8.58369e-07
-8.40299e-08
4.38157e-07
-7.81911e-07
-1.36911e-06
-2.17717e-07
-0.000264044
1.58325e-06
1.55043e-06
-6.64603e-07
-6.70258e-07
0.000262245
-1.29596e-06
-1.29714e-06
-0.00107721
6.42273e-07
6.43163e-07
0.00107852
-0.00107844
-1.54743e-06
1.29689e-06
6.34132e-07
0.00107969
-6.07405e-07
8.91649e-07
-5.62313e-08
4.60079e-07
-7.68258e-07
-1.37174e-06
-1.8905e-07
-0.0010781
-1.54205e-06
1.29671e-06
6.34134e-07
0.00107936
-6.04644e-07
8.8623e-07
-5.86409e-08
4.60035e-07
-7.7073e-07
-1.37151e-06
-1.86458e-07
-0.000265263
1.57523e-06
1.54223e-06
-6.47613e-07
-6.53282e-07
0.000263446
-1.24845e-06
-1.24952e-06
-0.00108237
6.20385e-07
6.213e-07
0.00108362
-0.00108337
-1.53909e-06
1.24928e-06
6.04479e-07
0.00108457
-5.95255e-07
9.17349e-07
-3.38038e-08
4.84253e-07
-7.54062e-07
-1.36917e-06
-1.5846e-07
-0.00108303
-1.53364e-06
1.24903e-06
6.0442e-07
0.00108423
-5.92359e-07
9.11932e-07
-3.6147e-08
4.84149e-07
-7.56503e-07
-1.36892e-06
-1.55936e-07
-0.000266408
1.56702e-06
1.53386e-06
-6.30778e-07
-6.36452e-07
0.000264575
-1.20442e-06
-1.20529e-06
-0.00108732
6.0087e-07
6.01757e-07
0.00108852
-0.00108806
-1.53251e-06
1.20499e-06
5.80563e-07
0.00108919
-5.85719e-07
9.40316e-07
-1.50688e-08
5.08809e-07
-7.4023e-07
-1.36497e-06
-1.30522e-07
-0.00108772
-1.52702e-06
1.20474e-06
5.80577e-07
0.00108885
-5.82699e-07
9.34836e-07
-1.73353e-08
5.08572e-07
-7.42779e-07
-1.36475e-06
-1.2804e-07
-0.00026748
1.56059e-06
1.52728e-06
-6.16217e-07
-6.21907e-07
0.00026563
-1.16577e-06
-1.16696e-06
-0.00109208
5.84447e-07
5.85397e-07
0.00109324
-0.00109251
-1.52816e-06
1.16667e-06
5.62521e-07
0.00109359
-5.79443e-07
9.60358e-07
-7.53687e-10
5.32892e-07
-7.28038e-07
-1.36084e-06
-1.05675e-07
-0.00109217
-1.52259e-06
1.16639e-06
5.62585e-07
0.00109325
-5.76234e-07
9.54964e-07
-2.58332e-09
5.32615e-07
-7.30565e-07
-1.3606e-06
-1.03217e-07
-0.000268483
1.5563e-06
1.5228e-06
-6.04184e-07
-6.09941e-07
0.000266618
-1.13213e-06
-1.13336e-06
-0.00109667
5.70384e-07
5.71066e-07
0.00109779
-0.00109675
-1.52703e-06
1.13316e-06
5.48937e-07
0.00109779
-5.76461e-07
9.76795e-07
1.65684e-08
5.55526e-07
-7.17577e-07
-1.35772e-06
-8.40095e-08
-0.00109641
-1.52143e-06
1.13293e-06
5.48814e-07
0.00109744
-5.73483e-07
9.71633e-07
1.44074e-08
5.55494e-07
-7.20004e-07
-1.35738e-06
-8.14805e-08
-0.000269423
1.55469e-06
1.52106e-06
-5.95292e-07
-6.0096e-07
0.000267543
-1.1034e-06
-1.10443e-06
-0.00110111
5.58632e-07
5.59305e-07
0.0011022
-0.00110081
-1.52721e-06
1.10447e-06
5.38307e-07
0.0011018
-5.74228e-07
9.91727e-07
3.04011e-08
5.76904e-07
-7.08239e-07
-1.35507e-06
-6.51465e-08
-0.00110046
-1.5218e-06
1.1043e-06
5.38268e-07
0.00110145
-5.71937e-07
9.86532e-07
2.80261e-08
5.7708e-07
-7.10582e-07
-1.35484e-06
-6.25107e-08
-0.000270305
1.55515e-06
1.5214e-06
-5.88939e-07
-5.94661e-07
0.000268412
-1.07828e-06
-1.07919e-06
-0.00110542
5.48643e-07
5.49344e-07
0.00110648
-0.0011047
-1.52814e-06
1.07937e-06
5.29089e-07
0.00110564
-5.69906e-07
1.00594e-06
4.01547e-08
5.96886e-07
-6.98989e-07
-1.35234e-06
-4.89869e-08
-0.00110435
-1.5229e-06
1.07946e-06
5.29239e-07
0.0011053
-5.70903e-07
1.00048e-06
3.9647e-08
5.97149e-07
-7.01417e-07
-1.35227e-06
-4.62259e-08
-0.000271132
1.55672e-06
1.52284e-06
-5.84286e-07
-5.90039e-07
0.000269227
-1.05567e-06
-1.0566e-06
-0.00110962
5.39617e-07
5.40293e-07
0.00111065
-0.00110843
-1.52969e-06
1.05638e-06
5.19763e-07
0.00110933
-5.69889e-07
1.01992e-06
5.25279e-08
6.16024e-07
-6.8881e-07
-1.34852e-06
-3.49515e-08
-0.00110808
-1.52419e-06
1.05647e-06
5.19903e-07
0.00110899
-5.69605e-07
1.01421e-06
5.17428e-08
6.15629e-07
-6.91529e-07
-1.3486e-06
-3.24243e-08
-0.000271907
1.55872e-06
1.52471e-06
-5.79997e-07
-5.85752e-07
0.000269989
-1.03433e-06
-1.03532e-06
-0.00111371
5.30964e-07
5.31618e-07
0.00111472
-0.00111201
-1.53131e-06
1.03492e-06
5.10482e-07
0.00111288
-5.69732e-07
1.03351e-06
6.25631e-08
6.33344e-07
-6.77593e-07
-1.34427e-06
-2.24968e-08
-0.00111166
-1.52556e-06
1.03456e-06
5.10454e-07
0.00111253
-5.68745e-07
1.02781e-06
6.2866e-08
6.33063e-07
-6.80186e-07
-1.34381e-06
-2.02216e-08
-0.00027263
1.56016e-06
1.52605e-06
-5.75043e-07
-5.80895e-07
0.0002707
-1.01329e-06
-1.01424e-06
-0.0011177
5.22288e-07
5.23009e-07
0.00111868
-0.00111543
-1.5331e-06
1.01432e-06
5.00811e-07
0.00111627
-5.6696e-07
1.04571e-06
7.03359e-08
6.4888e-07
-6.6527e-07
-1.33806e-06
-1.17393e-08
-0.00111508
-1.52738e-06
1.01401e-06
5.0068e-07
0.00111592
-5.67588e-07
1.04057e-06
7.09403e-08
6.48998e-07
-6.67483e-07
-1.33771e-06
-9.24983e-09
-0.0002733
1.56135e-06
1.52711e-06
-5.69214e-07
-5.74931e-07
0.000271356
-9.92405e-07
-9.92968e-07
-0.00112159
5.13282e-07
5.14093e-07
0.00112255
-0.00111871
-1.53312e-06
9.92987e-07
4.90202e-07
0.00111951
-5.61911e-07
1.0589e-06
8.06151e-08
6.62285e-07
-6.51146e-07
-1.33034e-06
-3.37387e-09
-0.00111836
-1.52756e-06
9.92891e-07
4.90284e-07
0.00111916
-5.61638e-07
1.05314e-06
8.00344e-08
6.62486e-07
-6.53808e-07
-1.33017e-06
-1.12235e-09
-0.000273914
1.56238e-06
1.52815e-06
-5.62993e-07
-5.68672e-07
0.000271955
-9.71167e-07
-9.71976e-07
-0.00112539
5.04084e-07
5.04791e-07
0.00112633
-0.00112184
-1.5334e-06
9.72196e-07
4.78204e-07
0.00112259
-5.58075e-07
1.07097e-06
8.69895e-08
6.74991e-07
-6.35735e-07
-1.32123e-06
7.8816e-09
-0.00112148
-1.52772e-06
9.71797e-07
4.7737e-07
0.00112224
-5.57618e-07
1.06556e-06
8.80875e-08
6.74739e-07
-6.38288e-07
-1.32085e-06
1.07928e-08
-0.000274471
1.56203e-06
1.52767e-06
-5.54811e-07
-5.60542e-07
0.000272497
-9.49879e-07
-9.50623e-07
-0.00112909
4.94581e-07
4.95222e-07
0.00113
-0.0011248
-1.53191e-06
9.50402e-07
4.65923e-07
0.00112552
-5.4895e-07
1.08267e-06
9.55198e-08
6.84916e-07
-6.20127e-07
-1.31089e-06
1.69938e-08
-0.00112445
-1.52635e-06
9.50571e-07
4.65963e-07
0.00112516
-5.48688e-07
1.07669e-06
9.46468e-08
6.84748e-07
-6.23002e-07
-1.31104e-06
2.03744e-08
-0.000274965
1.56133e-06
1.52691e-06
-5.46991e-07
-5.52719e-07
0.000272976
-9.28229e-07
-9.2907e-07
-0.0011327
4.84469e-07
4.8509e-07
0.00113359
-0.0011276
-1.5303e-06
9.28938e-07
4.55488e-07
0.00112828
-5.41225e-07
1.09284e-06
1.00804e-07
6.94577e-07
-6.0323e-07
-1.29944e-06
2.63305e-08
-0.00112725
-1.52504e-06
9.28968e-07
4.55152e-07
0.00112792
-5.41807e-07
1.08715e-06
1.01006e-07
6.94623e-07
-6.05447e-07
-1.29888e-06
2.95345e-08
-0.000275395
1.55887e-06
1.52435e-06
-5.368e-07
-5.42548e-07
0.000273391
-9.06608e-07
-9.0734e-07
-0.00113622
4.74442e-07
4.75107e-07
0.00113708
-0.00113024
-1.52724e-06
9.06916e-07
4.4424e-07
0.00113087
-5.30016e-07
1.10301e-06
1.09215e-07
7.02797e-07
-5.85976e-07
-1.28531e-06
3.31853e-08
-0.00112988
-1.52136e-06
9.06742e-07
4.43645e-07
0.00113051
-5.29175e-07
1.09756e-06
1.0963e-07
7.02225e-07
-5.88829e-07
-1.2855e-06
3.60375e-08
-0.000275755
1.5563e-06
1.52174e-06
-5.27362e-07
-5.33048e-07
0.000273738
-8.85413e-07
-8.86141e-07
-0.00113964
4.64904e-07
4.65491e-07
0.00114048
-0.00113269
-1.52262e-06
8.86116e-07
4.34175e-07
0.00113328
-5.17408e-07
1.11155e-06
1.14408e-07
7.09759e-07
-5.69592e-07
-1.27146e-06
3.99902e-08
-0.00113233
-1.51707e-06
8.86164e-07
4.34081e-07
0.00113292
-5.17743e-07
1.10557e-06
1.13654e-07
7.09677e-07
-5.7215e-07
-1.27157e-06
4.33223e-08
-0.000276047
1.5523e-06
1.51763e-06
-5.16738e-07
-5.22489e-07
0.000274016
-8.64666e-07
-8.65189e-07
-0.00114296
4.55619e-07
4.56181e-07
0.00114378
-0.00113497
-1.5174e-06
8.65298e-07
4.24528e-07
0.00113551
-5.09215e-07
1.11877e-06
1.21327e-07
7.17325e-07
-5.52213e-07
-1.25559e-06
4.70654e-08
-0.00113461
-1.51201e-06
8.65216e-07
4.24355e-07
0.00113515
-5.06558e-07
1.11299e-06
1.18645e-07
7.17295e-07
-5.54676e-07
-1.25534e-06
5.00812e-08
-0.000276268
1.54639e-06
1.51166e-06
-5.04022e-07
-5.09777e-07
0.000274224
-8.45536e-07
-8.45811e-07
-0.00114621
4.47516e-07
4.48291e-07
0.001147
-0.00113705
-1.51126e-06
8.4575e-07
4.16801e-07
0.00113754
-4.97799e-07
1.12508e-06
1.25586e-07
7.23948e-07
-5.35289e-07
-1.23877e-06
5.31079e-08
-0.00113669
-1.50551e-06
8.44704e-07
4.16082e-07
0.00113718
-4.94474e-07
1.1197e-06
1.23339e-07
7.24063e-07
-5.37756e-07
-1.23839e-06
5.62671e-08
-0.000276417
1.53946e-06
1.50469e-06
-4.91176e-07
-4.9692e-07
0.000274361
-8.24014e-07
-8.23814e-07
-0.00114935
4.37609e-07
4.38701e-07
0.00115013
-0.00113895
-1.5026e-06
8.24548e-07
4.07674e-07
0.00113939
-4.84174e-07
1.13163e-06
1.31327e-07
7.30012e-07
-5.19028e-07
-1.22167e-06
5.90935e-08
-0.00113859
-1.49702e-06
8.24701e-07
4.07318e-07
0.00113903
-4.81352e-07
1.12608e-06
1.28716e-07
7.30046e-07
-5.21435e-07
-1.22143e-06
6.21121e-08
-0.000276497
1.53173e-06
1.49683e-06
-4.78359e-07
-4.84187e-07
0.000274431
-8.01905e-07
-8.0157e-07
-0.00115241
4.27729e-07
4.29074e-07
0.00115315
-0.00114065
-1.49425e-06
8.03389e-07
4.00588e-07
0.00114104
-4.71909e-07
1.13645e-06
1.36017e-07
7.36722e-07
-5.02532e-07
-1.20349e-06
6.5527e-08
-0.00114029
-1.48804e-06
8.02641e-07
3.98698e-07
0.00114068
-4.68192e-07
1.13166e-06
1.34514e-07
7.3676e-07
-5.05073e-07
-1.20324e-06
6.83955e-08
-0.000276512
1.52333e-06
1.48844e-06
-4.65431e-07
-4.71258e-07
0.000274437
-7.79031e-07
-7.78449e-07
-0.00115536
4.17075e-07
4.1816e-07
0.00115608
-0.00114215
-1.48433e-06
7.7991e-07
3.93536e-07
0.00114249
-4.59874e-07
1.14094e-06
1.39532e-07
7.43548e-07
-4.86003e-07
-1.18521e-06
7.25696e-08
-0.00114179
-1.47895e-06
7.80747e-07
3.93495e-07
0.00114213
-4.56977e-07
1.13561e-06
1.37729e-07
7.43381e-07
-4.88723e-07
-1.18498e-06
7.50891e-08
-0.000276465
1.51267e-06
1.47769e-06
-4.50984e-07
-4.56825e-07
0.000274382
-7.58672e-07
-7.60537e-07
-0.00115821
4.10233e-07
4.10564e-07
0.00115891
-0.00114345
-1.47369e-06
7.59992e-07
3.87863e-07
0.00114374
-4.47848e-07
1.1449e-06
1.42785e-07
7.49426e-07
-4.70703e-07
-1.16768e-06
7.88287e-08
-0.00114308
-1.46829e-06
7.59077e-07
3.86314e-07
0.00114338
-4.44868e-07
1.13974e-06
1.41231e-07
7.49622e-07
-4.73108e-07
-1.16701e-06
8.15765e-08
-0.000276367
1.50244e-06
1.46774e-06
-4.37979e-07
-4.43549e-07
0.000274278
-7.29191e-07
-7.28535e-07
-0.00116096
3.93407e-07
3.94916e-07
0.00116163
-0.00114455
-1.46002e-06
7.34179e-07
3.75487e-07
0.0011448
-4.33022e-07
1.15125e-06
1.49063e-07
7.55609e-07
-4.55512e-07
-1.15002e-06
8.56134e-08
-0.00114419
-1.45503e-06
7.3295e-07
3.74134e-07
0.00114444
-4.30739e-07
1.14559e-06
1.468e-07
7.56294e-07
-4.57535e-07
-1.14902e-06
8.88287e-08
-0.000276217
1.48981e-06
1.45514e-06
-4.23316e-07
-4.28799e-07
0.000274125
-7.13492e-07
-7.18597e-07
-0.0011636
3.94871e-07
3.92402e-07
0.00116425
-0.00114547
-1.44801e-06
7.12912e-07
3.68131e-07
0.00114567
-4.21226e-07
1.1554e-06
1.53e-07
7.61893e-07
-4.40749e-07
-1.13199e-06
9.19849e-08
-0.00114511
-1.44414e-06
7.12707e-07
3.71675e-07
0.00114531
-4.20364e-07
1.14821e-06
1.48877e-07
7.62616e-07
-4.42741e-07
-1.13117e-06
9.52877e-08
-0.000276035
1.47909e-06
1.44428e-06
-4.10895e-07
-4.16406e-07
0.000273939
-6.96722e-07
-6.9679e-07
-0.00116614
3.87157e-07
3.88758e-07
0.00116676
-0.00114619
-1.4352e-06
6.901e-07
3.57481e-07
0.00114634
-4.08347e-07
1.16092e-06
1.59543e-07
7.67719e-07
-4.26874e-07
-1.1147e-06
9.7789e-08
-0.00114582
-1.42997e-06
6.88869e-07
3.5695e-07
0.00114598
-4.06402e-07
1.15445e-06
1.55597e-07
7.68105e-07
-4.29156e-07
-1.11446e-06
1.01143e-07
-0.000275812
1.46533e-06
1.43093e-06
-3.96307e-07
-4.01623e-07
0.000273714
-6.55096e-07
-6.53227e-07
-0.00116856
3.60947e-07
3.62758e-07
0.00116915
-0.00114674
-1.42088e-06
6.68079e-07
3.38154e-07
0.00114685
-3.95977e-07
1.16704e-06
1.65255e-07
7.72568e-07
-4.14021e-07
-1.09955e-06
1.03583e-07
-0.00114636
-1.41622e-06
6.69291e-07
3.43529e-07
0.00114648
-3.94516e-07
1.1597e-06
1.60467e-07
7.72955e-07
-4.16627e-07
-1.099e-06
1.06165e-07
-0.000275577
1.45042e-06
1.41597e-06
-3.81947e-07
-3.87332e-07
0.00027348
-6.45532e-07
-6.49193e-07
-0.00117086
3.69139e-07
3.65964e-07
0.00117142
-0.00114714
-1.40972e-06
6.34605e-07
3.347e-07
0.00114722
-3.87337e-07
1.16864e-06
1.65893e-07
7.8154e-07
-3.97654e-07
-1.08007e-06
1.1286e-07
-0.00114679
-1.40133e-06
6.41537e-07
3.30707e-07
0.00114686
-3.82001e-07
1.1652e-06
1.64782e-07
7.8047e-07
-4.00437e-07
-1.08158e-06
1.15681e-07
-0.000275322
1.43848e-06
1.4013e-06
-3.67806e-07
-3.75126e-07
0.000273225
-6.30954e-07
-6.33428e-07
-0.00117305
3.68863e-07
3.67333e-07
0.00117358
-0.00114737
-1.39761e-06
6.30451e-07
3.27621e-07
0.00114739
-3.74778e-07
1.1742e-06
1.74198e-07
7.84387e-07
-3.88581e-07
-1.06698e-06
1.1492e-07
-0.00114701
-1.3934e-06
6.21604e-07
3.27086e-07
0.00114703
-3.72771e-07
1.16809e-06
1.71775e-07
7.87285e-07
-3.8889e-07
-1.06456e-06
1.20502e-07
-0.000275064
1.42717e-06
1.39262e-06
-3.59171e-07
-3.64545e-07
0.000272968
-5.6371e-07
-5.62225e-07
-0.00117512
3.16743e-07
3.17807e-07
0.00117561
-0.00114744
-1.37961e-06
5.88191e-07
2.84299e-07
0.00114745
-3.61658e-07
1.18272e-06
1.80444e-07
7.93996e-07
-3.72144e-07
-1.0498e-06
1.26546e-07
-0.00114707
-1.37374e-06
5.92565e-07
2.858e-07
0.00114708
-3.59317e-07
1.17669e-06
1.76389e-07
7.89652e-07
-3.77518e-07
-1.0537e-06
1.27002e-07
-0.000274788
1.40984e-06
1.37557e-06
-3.43666e-07
-3.49164e-07
0.000272695
-6.14538e-07
-6.15431e-07
-0.00117704
3.79663e-07
3.79337e-07
0.00117751
-0.00114746
-1.3755e-06
5.45963e-07
2.94699e-07
0.00114745
-3.59016e-07
1.17784e-06
1.76483e-07
8.01917e-07
-3.57893e-07
-1.03349e-06
1.35124e-07
-0.00114708
-1.37042e-06
5.67342e-07
3.10183e-07
0.00114705
-3.56569e-07
1.17158e-06
1.73107e-07
7.99474e-07
-3.63012e-07
-1.03372e-06
1.33724e-07
-0.000274532
1.40309e-06
1.36767e-06
-3.36388e-07
-3.41227e-07
0.000272439
-5.24106e-07
-4.97595e-07
-0.00117885
2.85122e-07
3.13686e-07
0.00117927
-0.00114718
-1.35701e-06
5.94136e-07
2.75668e-07
0.00114709
-3.4047e-07
1.19026e-06
1.91882e-07
7.93738e-07
-3.60618e-07
-1.03078e-06
1.26199e-07
-0.00114684
-1.34489e-06
5.39679e-07
2.29697e-07
0.00114679
-3.3117e-07
1.19193e-06
1.9574e-07
8.04442e-07
-3.53064e-07
-1.02218e-06
1.41174e-07
-0.000274248
1.38242e-06
1.35233e-06
-3.21415e-07
-3.23943e-07
0.000272158
-5.26885e-07
-5.72983e-07
-0.00118057
3.63597e-07
3.1807e-07
0.00118099
-0.00114702
-1.34894e-06
4.92968e-07
2.57391e-07
0.00114696
-3.39786e-07
1.18572e-06
1.82506e-07
8.14237e-07
-3.32383e-07
-1.00392e-06
1.47545e-07
-0.00114666
-1.35435e-06
5.42073e-07
3.116e-07
0.00114659
-3.45865e-07
1.17117e-06
1.73739e-07
8.0195e-07
-3.4709e-07
-1.01436e-06
1.3752e-07
-0.00027397
1.3828e-06
1.34029e-06
-3.15785e-07
-3.27854e-07
0.000271891
-4.58467e-07
-4.60693e-07
-0.00118208
2.98469e-07
2.98816e-07
0.0011824
-0.00114673
-1.31833e-06
4.36677e-07
1.26676e-07
0.00114669
-3.03076e-07
1.21835e-06
2.21625e-07
8.18676e-07
-3.25005e-07
-9.94957e-07
1.56859e-07
-0.00114632
-1.30177e-06
4.2065e-07
8.17634e-08
0.00114629
-2.94419e-07
1.2197e-06
2.19541e-07
8.26231e-07
-3.18851e-07
-9.87582e-07
1.68434e-07
-0.000273768
1.36682e-06
1.33361e-06
-3.04997e-07
-3.06719e-07
0.00027168
-5.74487e-07
-5.16989e-07
-0.00118345
3.35425e-07
3.64069e-07
0.00118384
-0.00114636
-1.36068e-06
6.24834e-07
4.00989e-07
0.00114613
-3.5739e-07
1.15763e-06
1.56908e-07
8.05106e-07
-3.31135e-07
-9.95751e-07
1.36951e-07
-0.00114595
-1.3716e-06
6.38823e-07
4.84097e-07
0.00114567
-3.65398e-07
1.1382e-06
1.47351e-07
8.04325e-07
-3.37989e-07
-9.94795e-07
1.34474e-07
-0.000273413
1.33787e-06
1.31561e-06
-2.96627e-07
-2.93685e-07
0.00027135
-2.79796e-07
-2.71575e-07
-0.0011849
1.28101e-07
1.68272e-07
0.00118516
-0.00114546
-1.29746e-06
2.63245e-07
2.3472e-07
0.00114529
-2.82634e-07
1.22124e-06
2.29094e-07
8.46655e-07
-2.83646e-07
-9.52157e-07
1.87783e-07
-0.00114501
-1.27061e-06
2.55966e-07
1.41687e-07
0.00114489
-2.62417e-07
1.23445e-06
2.40947e-07
8.37727e-07
-2.90601e-07
-9.60531e-07
1.85969e-07
-0.000273416
1.31173e-06
1.26039e-06
-2.50279e-07
-2.71542e-07
0.000271366
-4.71483e-07
-5.67148e-07
-0.00118578
4.69966e-07
4.16841e-07
0.00118593
-0.00114528
-1.2868e-06
4.49956e-07
2.50351e-08
0.00114523
-2.80569e-07
1.22543e-06
2.33532e-07
8.18736e-07
-3.12312e-07
-9.73529e-07
1.50697e-07
-0.001145
-1.27341e-06
3.80328e-07
-1.31715e-07
0.00114513
-2.63459e-07
1.23516e-06
2.48843e-07
8.17708e-07
-3.18421e-07
-9.77483e-07
1.54872e-07
-0.000273083
1.37083e-06
1.35302e-06
-3.05589e-07
-2.94749e-07
0.00027096
-6.88846e-07
-6.0886e-07
-0.00118564
6.8696e-07
7.38936e-07
0.00118551
-0.00114481
-1.22481e-06
3.91531e-08
-1.53214e-07
0.00114463
-2.29352e-07
1.27324e-06
2.60666e-07
9.51304e-07
-1.81736e-07
-8.49999e-07
2.93763e-07
-0.00114515
-1.27344e-06
9.2544e-08
2.40735e-07
0.00114468
-3.05342e-07
1.19224e-06
1.60907e-07
9.92083e-07
-1.45565e-07
-8.05983e-07
3.20672e-07
-0.000272398
1.39232e-06
1.34806e-06
-2.89437e-07
-3.04273e-07
0.000270251
1.80762e-07
5.76601e-09
-0.0011866
-4.44939e-07
-7.12314e-07
0.00118757
-0.00114294
-1.44765e-06
1.36538e-06
1.12226e-06
0.00114183
-4.51664e-07
1.00883e-06
2.64123e-09
7.6486e-07
-3.51835e-07
-9.87616e-07
7.83266e-08
-0.00114166
-1.44114e-06
1.6586e-06
1.25958e-06
0.00114031
-4.33402e-07
1.00675e-06
2.82784e-08
7.03296e-07
-4.0881e-07
-1.04636e-06
2.13029e-08
-0.000271674
1.32465e-06
1.2479e-06
-2.81061e-07
-3.13252e-07
0.000269695
-9.87056e-07
-7.02685e-07
-0.00119133
2.47827e-07
6.13767e-07
0.00119216
-0.00113863
-1.32185e-06
7.58882e-07
3.47024e-07
0.00113878
-2.47724e-07
1.18511e-06
2.73114e-07
5.72325e-07
-4.90581e-07
-1.17702e-06
-5.05219e-08
-0.00113783
-1.19305e-06
2.23167e-07
-4.76746e-07
0.00113872
-1.43341e-07
1.30694e-06
3.7489e-07
6.12078e-07
-4.45986e-07
-1.15043e-06
1.03729e-08
-0.000272836
1.13462e-06
1.19935e-06
-2.60287e-07
-1.91782e-07
0.000270955
-5.74031e-07
-6.42258e-07
-0.00119096
1.14688e-06
1.2177e-06
0.00118981
-0.00114548
-9.50436e-07
-1.92212e-06
-2.38294e-06
0.00114875
-8.99774e-08
1.47764e-06
3.28329e-07
9.41045e-07
-1.33174e-07
-8.64002e-07
3.32337e-07
-0.00114722
-1.0938e-06
-1.83463e-06
-1.77723e-06
0.00115029
-2.54992e-07
1.31301e-06
1.69791e-07
9.87292e-07
-1.11531e-07
-8.26179e-07
3.59828e-07
-0.000273085
1.50141e-06
1.40292e-06
-3.78795e-07
-4.44183e-07
0.000271004
1.82243e-07
-3.89326e-07
-0.00118805
3.97296e-07
-5.32185e-07
0.00118839
-0.00115264
-1.61078e-06
1.63085e-07
2.184e-06
0.00115093
-5.19728e-07
9.74367e-07
4.70987e-08
1.054e-06
-1.58031e-07
-7.21724e-07
2.94655e-07
-0.00115
-1.64651e-06
1.23856e-06
3.15454e-06
0.00114697
-5.531e-07
9.15288e-07
2.41985e-09
9.02402e-07
-2.90254e-07
-8.32787e-07
1.41416e-07
-0.000273367
1.17249e-06
1.00141e-06
-2.95657e-08
-1.19981e-07
0.000271343
1.30547e-06
1.95772e-06
-0.00119138
-2.75638e-06
-2.03442e-06
0.0011929
-0.00114177
-9.86394e-07
2.26395e-06
-3.89165e-07
0.00113906
-2.36294e-08
1.46432e-06
4.24507e-07
8.81886e-07
-2.44345e-07
-8.58331e-07
1.83762e-07
-0.00113952
-7.5024e-07
1.29883e-06
-2.16381e-06
0.00113849
1.91335e-07
1.68334e-06
6.31664e-07
9.18004e-07
-1.93248e-07
-8.52076e-07
2.67668e-07
-0.000271669
1.42352e-06
1.62109e-06
-3.9653e-07
-2.32644e-07
0.000269254
-9.11241e-07
-6.47642e-07
-0.0011962
6.58715e-07
1.45551e-06
0.00119565
-0.00113453
-1.43354e-06
1.95512e-07
1.02273e-06
0.00113402
-4.35777e-07
9.74227e-07
-2.92186e-09
9.0915e-07
-1.5964e-07
-8.28439e-07
2.69407e-07
-0.00113725
-1.48936e-06
-1.59276e-07
1.30641e-06
0.00113676
-5.11107e-07
9.053e-07
-6.7736e-08
9.91243e-07
-8.63632e-08
-7.37791e-07
3.31103e-07
-0.000270374
9.16693e-07
8.693e-07
4.30108e-09
-2.56251e-08
0.000268609
5.22146e-06
5.2323e-06
0.000260567
-0.000259171
-5.93189e-06
-5.91777e-06
5.08158e-06
0.000261409
-0.000258686
-5.96204e-06
3.37916e-06
-5.22153e-06
5.07656e-06
0.000261442
-0.000258702
-5.97005e-06
3.37432e-06
5.22214e-06
0.000260579
-0.000259173
-5.90328e-06
-5.94651e-06
5.07467e-06
0.000261473
-0.000258717
-5.96755e-06
3.369e-06
5.0814e-06
-5.22378e-06
0.000261417
-0.000258686
3.38421e-06
-5.97225e-06
1.07111e-05
1.06174e-05
-0.000252649
-0.000256079
-0.000255118
-0.000255118
-6.41734e-06
-4.12515e-06
-6.6623e-06
-6.41771e-06
-4.12609e-06
-6.66784e-06
-5.06963e-06
0.00104223
1.06707e-05
1.06227e-05
-0.000252651
-0.000256076
-0.000255121
-0.000255121
-6.41996e-06
-4.12544e-06
-6.66504e-06
-6.41517e-06
-4.12087e-06
-6.66025e-06
-5.06927e-06
0.00104211
1.0731e-05
1.06833e-05
-0.000252643
-0.000256071
-0.000255118
-0.000255113
-6.41981e-06
-4.13282e-06
-6.66497e-06
-6.42001e-06
-4.12309e-06
-6.66258e-06
-5.08397e-06
-5.07209e-06
0.00104217
1.07263e-05
1.06276e-05
-0.000252646
-0.000256074
-0.000255118
-0.000255118
-6.4147e-06
-4.12777e-06
-6.65997e-06
-6.42014e-06
-4.12593e-06
-6.6653e-06
-0.000258712
-5.95991e-06
3.36395e-06
-5.22138e-06
0.000261404
-0.000258684
3.37919e-06
-5.96198e-06
5.22453e-06
0.000260559
-0.000259158
-5.9056e-06
-5.94373e-06
-0.000258697
3.37148e-06
-5.95704e-06
-5.23228e-06
0.000261471
-0.000258712
3.36649e-06
-5.96502e-06
-0.000259168
-5.93177e-06
-5.9178e-06
5.61757e-06
5.6548e-06
-4.87838e-06
-4.87223e-06
0.000259045
-7.8048e-07
-7.44602e-07
0.000261544
-0.000259462
-2.82247e-07
-2.74853e-07
7.09202e-06
0.00105882
-4.53008e-06
-1.57833e-06
-2.21273e-06
-2.57666e-06
-6.60588e-06
-7.05009e-06
-3.17074e-06
-0.000263264
-0.000259684
-0.000262793
-5.62803e-06
1.4555e-05
7.03143e-06
0.00105919
-4.54921e-06
-1.57072e-06
-2.21587e-06
-2.58757e-06
-6.6374e-06
-7.067e-06
-3.18641e-06
-0.000263338
-0.000259715
-0.000262834
0.00106192
2.02401e-06
-0.00106086
9.73752e-07
-1.71809e-06
-1.6911e-07
-6.92239e-07
-1.46543e-06
-3.07555e-07
-8.28052e-07
3.43225e-07
7.88562e-07
0.00106234
2.02437e-06
-0.00106128
9.68688e-07
-1.7285e-06
-1.61614e-07
-6.97738e-07
-1.47114e-06
-3.07704e-07
-8.28418e-07
3.48639e-07
-4.87646e-06
-4.86912e-06
0.000259055
-7.47277e-07
0.000261569
-0.000259482
-2.79599e-07
-2.71985e-07
6.81326e-06
0.00105966
-4.55437e-06
-1.63766e-06
-2.22893e-06
-2.58587e-06
-6.61991e-06
-7.06238e-06
-3.18164e-06
-0.000263359
-0.000259742
-0.000262847
-5.62773e-06
1.45894e-05
7.12547e-06
0.00105896
-4.54903e-06
-1.58079e-06
-2.2209e-06
-2.58953e-06
-6.6367e-06
-7.06587e-06
-3.18603e-06
-0.000259684
-0.000263315
-0.000262806
0.00106294
2.03159e-06
-0.00106187
9.62249e-07
-1.68817e-06
-1.71617e-07
-6.92517e-07
-1.46847e-06
-3.07669e-07
-8.25819e-07
3.45597e-07
7.77942e-07
0.00106203
2.0346e-06
-0.00106099
9.84064e-07
-1.71815e-06
-1.66659e-07
-6.92436e-07
-1.46825e-06
-3.0509e-07
-8.30806e-07
3.43166e-07
1.45864e-05
7.11279e-06
0.00105877
-4.53002e-06
-1.57822e-06
-2.2101e-06
-2.57669e-06
-6.60589e-06
-3.17079e-06
-7.04777e-06
-0.000259679
-0.000263259
-0.000262788
2.03091e-06
-0.00106161
9.67483e-07
-1.68807e-06
-1.68944e-07
-6.89598e-07
-1.46576e-06
-3.1004e-07
3.40406e-07
-8.25542e-07
7.77918e-07
0.00106182
2.03422e-06
-0.00106078
9.84099e-07
-1.71806e-06
-1.66541e-07
-6.92195e-07
-1.46811e-06
-3.07529e-07
-8.28008e-07
3.45757e-07
-4.88129e-06
-4.8689e-06
0.000259035
-7.39133e-07
0.000261521
-0.000259444
-2.82648e-07
-2.77212e-07
1.44875e-05
6.83175e-06
0.00105961
-4.55451e-06
-1.63767e-06
-2.22898e-06
-2.5857e-06
-6.61978e-06
-3.18154e-06
-7.05965e-06
-0.000259732
-0.000263356
-0.000262842
2.03595e-06
-0.00106131
9.83006e-07
-1.68559e-06
-1.71494e-07
-6.92268e-07
-1.46262e-06
-3.0502e-07
3.40449e-07
-8.28067e-07
7.39229e-07
0.00106284
2.03659e-06
-0.00106179
9.72565e-07
-1.68313e-06
-1.71644e-07
-6.89939e-07
-1.4657e-06
-3.07508e-07
-8.28236e-07
3.40606e-07
-0.000259459
-2.79776e-07
-2.77425e-07
1.63935e-06
1.60415e-06
-7.1056e-07
-7.19031e-07
0.00025973
-8.66332e-07
-8.27638e-07
0.000262778
-0.000260667
-2.12626e-07
-2.05053e-07
8.29639e-07
0.00106319
-6.56441e-07
8.17759e-07
-1.43301e-07
3.78167e-07
-8.00558e-07
-1.39714e-06
-2.90471e-07
-1.64463e-06
1.63226e-06
8.24416e-07
0.00106362
-6.59296e-07
8.25832e-07
-1.43308e-07
3.83591e-07
-8.03532e-07
-1.40283e-06
-2.88165e-07
0.00106713
1.38301e-06
-0.0010658
7.02155e-07
-1.59182e-06
-1.03501e-07
-6.28658e-07
-1.35465e-06
-2.49028e-07
-7.76787e-07
4.22395e-07
8.71697e-07
0.00106757
1.38328e-06
-0.00106623
6.97078e-07
-1.59715e-06
-1.03616e-07
-6.28889e-07
-1.35764e-06
-2.49142e-07
-7.77137e-07
4.25205e-07
-7.11053e-07
-7.18361e-07
0.000259748
-8.32894e-07
0.000262804
-0.000260679
-2.12668e-07
-2.07552e-07
8.23144e-07
0.00106421
-6.54079e-07
7.81858e-07
-1.45757e-07
3.80614e-07
-8.03599e-07
-1.40027e-06
-2.88114e-07
-1.63935e-06
1.63748e-06
8.29699e-07
0.0010633
-6.5928e-07
8.17861e-07
-1.43345e-07
3.78184e-07
-8.03266e-07
-1.39733e-06
-2.87986e-07
0.00106816
1.38438e-06
-0.00106684
7.01114e-07
-1.55391e-06
-1.08435e-07
-6.23657e-07
-1.35235e-06
-2.46603e-07
-7.77125e-07
4.25053e-07
8.61113e-07
0.00106725
1.38304e-06
-0.00106591
7.02235e-07
-1.58922e-06
-1.06082e-07
-6.28799e-07
-1.35478e-06
-2.48995e-07
-7.7684e-07
4.25172e-07
1.63205e-06
8.29733e-07
0.0010631
-6.59068e-07
8.15185e-07
-1.45742e-07
3.78103e-07
-8.03181e-07
-2.88028e-07
-1.39723e-06
1.38399e-06
-0.00106657
7.06472e-07
-1.56169e-06
-1.10853e-07
-6.23502e-07
-1.35226e-06
-2.46622e-07
4.24922e-07
-7.76932e-07
8.63708e-07
0.00106704
1.37773e-06
-0.0010657
7.02254e-07
-1.58914e-06
-1.05963e-07
-6.28632e-07
-1.35472e-06
-2.49055e-07
-7.76777e-07
4.22417e-07
-7.13821e-07
-7.15804e-07
0.000259709
-8.24828e-07
0.000262753
-0.000260646
-2.12855e-07
-2.07509e-07
1.63355e-06
8.18033e-07
0.00106413
-6.54139e-07
7.76439e-07
-1.50871e-07
3.75477e-07
-8.00811e-07
-2.92948e-07
-1.39476e-06
1.38398e-06
-0.00106625
7.01388e-07
-1.55117e-06
-1.10853e-07
-6.23454e-07
-1.34669e-06
-2.49034e-07
4.16863e-07
-7.76857e-07
8.27501e-07
0.00106807
1.38438e-06
-0.00106674
7.01192e-07
-1.55136e-06
-1.1101e-07
-6.2373e-07
-1.35492e-06
-2.4905e-07
-7.79706e-07
4.22393e-07
-0.000260654
-2.12733e-07
-2.07647e-07
1.58996e-06
1.55721e-06
-6.72236e-07
-6.8057e-07
0.000260984
-8.90482e-07
-8.54276e-07
0.00026406
-0.000261937
-1.91613e-07
-1.8656e-07
6.91217e-07
0.00106848
-6.2969e-07
8.72071e-07
-9.925e-08
4.24536e-07
-7.77647e-07
-1.35444e-06
-2.47569e-07
-1.59532e-06
1.36146e-06
7.01847e-07
0.00106891
-6.29905e-07
8.77478e-07
-9.93172e-08
4.30071e-07
-7.80615e-07
-1.36007e-06
-2.42705e-07
0.00107249
1.34952e-06
-0.00107117
6.75822e-07
-1.5899e-06
-8.55413e-08
-6.24923e-07
-1.367e-06
-2.29926e-07
-7.7811e-07
4.33855e-07
8.95931e-07
0.00107292
1.34982e-06
-0.00107159
6.76041e-07
-1.59526e-06
-8.31149e-08
-6.27782e-07
-1.3753e-06
-2.2503e-07
-7.83682e-07
4.4209e-07
-6.75281e-07
-6.77493e-07
0.000261005
-8.56947e-07
0.000264088
-0.000261963
-1.8901e-07
-1.83818e-07
6.90229e-07
0.00106952
-6.27347e-07
8.35991e-07
-1.04175e-07
4.27153e-07
-7.80584e-07
-1.36003e-06
-2.42663e-07
-1.58735e-06
1.36128e-06
6.96572e-07
0.00106859
-6.29856e-07
8.69498e-07
-9.92885e-08
4.27293e-07
-7.80295e-07
-1.35721e-06
-2.42542e-07
0.00107352
1.35085e-06
-0.0010722
6.74834e-07
-1.55438e-06
-8.79718e-08
-6.22528e-07
-1.36993e-06
-2.24995e-07
-7.8368e-07
4.36502e-07
8.90565e-07
0.0010726
1.34962e-06
-0.00107127
6.75985e-07
-1.58993e-06
-8.30817e-08
-6.27715e-07
-1.36968e-06
-2.24864e-07
-7.83375e-07
4.36612e-07
1.36625e-06
6.9133e-07
0.00106839
-6.27002e-07
8.66807e-07
-1.04154e-07
4.27182e-07
-7.80255e-07
-2.45101e-07
-1.35717e-06
1.35051e-06
-0.00107193
6.74955e-07
-1.55696e-06
-8.78607e-08
-6.22359e-07
-1.36723e-06
-2.27516e-07
4.33717e-07
-7.80923e-07
8.85171e-07
0.0010724
1.34943e-06
-0.00107107
6.75939e-07
-1.58463e-06
-8.79557e-08
-6.22206e-07
-1.36705e-06
-2.27471e-07
-7.80699e-07
4.33833e-07
-6.75375e-07
-6.80013e-07
0.000260969
-8.51518e-07
0.000264039
-0.000261921
-1.91709e-07
-1.83826e-07
1.36252e-06
6.95526e-07
0.00106942
-6.22094e-07
8.27954e-07
-1.09164e-07
4.24572e-07
-7.7792e-07
-2.45111e-07
-1.35476e-06
1.35041e-06
-0.0010716
6.75033e-07
-1.55164e-06
-9.03268e-08
-6.19654e-07
-1.36694e-06
-2.24967e-07
4.33718e-07
-7.83412e-07
8.51511e-07
0.00107344
1.35086e-06
-0.00107211
6.74884e-07
-1.55186e-06
-9.04651e-08
-6.19949e-07
-1.36467e-06
-2.27482e-07
-7.80992e-07
4.31205e-07
-0.000261934
-1.89137e-07
-1.83942e-07
1.58854e-06
1.55298e-06