/*--------------------------------*- C++ -*----------------------------------*\
| =========                 |                                                 |
| \\      /  F ield         | OpenFOAM: The Open Source CFD Toolbox           |
|  \\    /   O peration     | Version:  v2012                                 |
|   \\  /    A nd           | Website:  www.openfoam.com                      |
|    \\/     M anipulation  |                                                 |
\*---------------------------------------------------------------------------*/
FoamFile
{
    version     2.0;
    format      ascii;
    class       volVectorField;
    location    "1000";
    object      U;
}
// * * * * * * * * * * * * * * * * * * * * * * * * * * * * * * * * * * * * * //

dimensions      [0 1 -1 0 0 0 0];


internalField   nonuniform List<vector> 
85864
(
(0.000107958 0.000107892 0.100299)
(-0.000190195 0.00011927 0.100385)
(0.000119341 -0.000190187 0.100385)
(-0.000239594 -0.000239612 0.100397)
(9.42791e-05 9.42318e-05 0.10086)
(-0.000158938 9.68064e-05 0.100942)
(9.68112e-05 -0.000158935 0.100942)
(-0.000201047 -0.000201099 0.100968)
(9.54246e-05 9.54125e-05 0.10137)
(-0.000155796 9.34672e-05 0.101449)
(9.34564e-05 -0.000155803 0.101449)
(-0.000201987 -0.000202039 0.101471)
(9.38833e-05 9.38741e-05 0.101892)
(-0.000152046 9.00873e-05 0.101957)
(9.00997e-05 -0.000152051 0.101957)
(-0.000198932 -0.000198977 0.101964)
(9.1129e-05 9.11275e-05 0.102398)
(-0.00014629 8.55702e-05 0.102446)
(8.55838e-05 -0.000146294 0.102446)
(-0.000193545 -0.000193593 0.102432)
(8.81525e-05 8.8158e-05 0.102885)
(-0.000140622 8.15933e-05 0.102912)
(8.16122e-05 -0.000140629 0.102912)
(-0.00018818 -0.00018823 0.10287)
(8.53234e-05 8.53392e-05 0.103353)
(-0.000135488 7.83784e-05 0.103354)
(7.84169e-05 -0.000135502 0.103354)
(-0.000183675 -0.000183726 0.103281)
(8.28518e-05 8.28672e-05 0.103803)
(-0.000131049 7.59151e-05 0.103774)
(7.59623e-05 -0.000131058 0.103774)
(-0.000180129 -0.000180209 0.103664)
(8.06468e-05 8.06121e-05 0.104237)
(-0.000127317 7.42245e-05 0.104174)
(7.4217e-05 -0.000127306 0.104174)
(-0.000177902 -0.00017794 0.104023)
(7.87255e-05 7.87051e-05 0.104658)
(-0.000124092 7.2896e-05 0.104557)
(7.28833e-05 -0.000124075 0.104557)
(-0.00017674 -0.000176791 0.104359)
(7.70668e-05 7.70528e-05 0.105066)
(-0.000121272 7.17647e-05 0.104924)
(7.17521e-05 -0.000121253 0.104924)
(-0.000176224 -0.000176282 0.104673)
(7.5575e-05 7.55636e-05 0.105464)
(-0.000118717 7.06399e-05 0.105277)
(7.06427e-05 -0.000118706 0.105277)
(-0.000175986 -0.000176053 0.104966)
(7.41565e-05 7.41424e-05 0.105851)
(-0.000116266 6.94418e-05 0.105615)
(6.94852e-05 -0.000116271 0.105615)
(-0.000175592 -0.000175683 0.105239)
(7.2742e-05 7.2735e-05 0.106229)
(-0.000113883 6.82234e-05 0.105938)
(6.82082e-05 -0.000113856 0.105938)
(-0.000175038 -0.000175095 0.105491)
(7.13259e-05 7.13307e-05 0.106597)
(-0.000111594 6.71949e-05 0.106248)
(6.71685e-05 -0.000111568 0.106248)
(-0.000174549 -0.000174564 0.10572)
(6.98813e-05 6.98802e-05 0.106957)
(-0.000109428 6.61519e-05 0.106543)
(6.61367e-05 -0.000109478 0.106543)
(-0.000173366 -0.000173405 0.105926)
(6.83417e-05 6.83446e-05 0.107308)
(-0.000107397 6.50792e-05 0.106822)
(6.50959e-05 -0.000107458 0.106822)
(-0.000172181 -0.000172213 0.106108)
(6.68468e-05 6.68492e-05 0.107649)
(-0.000105386 6.39937e-05 0.107086)
(6.39709e-05 -0.000105398 0.107086)
(-0.000170159 -0.000170202 0.106264)
(6.53489e-05 6.53556e-05 0.107982)
(-0.000103511 6.28959e-05 0.107334)
(6.28424e-05 -0.000103517 0.107334)
(-0.000168247 -0.000168274 0.106394)
(6.37751e-05 6.37778e-05 0.108306)
(-0.000101579 6.18796e-05 0.107565)
(6.18665e-05 -0.000101574 0.107565)
(-0.000165626 -0.000165674 0.106497)
(6.22418e-05 6.22502e-05 0.108622)
(-9.95197e-05 6.08211e-05 0.107779)
(6.07846e-05 -9.95072e-05 0.107779)
(-0.000162076 -0.000162144 0.106573)
(6.08666e-05 6.09025e-05 0.108929)
(-9.74193e-05 5.99558e-05 0.107975)
(5.98789e-05 -9.73278e-05 0.107974)
(-0.000158142 -0.000158225 0.106621)
(5.93287e-05 5.93997e-05 0.109226)
(-9.5034e-05 5.88776e-05 0.108152)
(5.88315e-05 -9.50624e-05 0.108152)
(-0.000153948 -0.000154071 0.106644)
(5.78295e-05 5.79169e-05 0.109515)
(-9.25529e-05 5.787e-05 0.108311)
(5.76363e-05 -9.25022e-05 0.108311)
(-0.000149472 -0.000149585 0.106643)
(5.61994e-05 5.62865e-05 0.109794)
(-8.97902e-05 5.67972e-05 0.108451)
(5.67497e-05 -8.98462e-05 0.108451)
(-0.000144066 -0.000144186 0.106619)
(5.50727e-05 5.50168e-05 0.110064)
(-8.72287e-05 5.59293e-05 0.108572)
(5.57115e-05 -8.71313e-05 0.108572)
(-0.000138986 -0.00013898 0.106576)
(5.28303e-05 5.29405e-05 0.110324)
(-8.40093e-05 5.40561e-05 0.108675)
(5.38495e-05 -8.38275e-05 0.108675)
(-0.00013313 -0.000133113 0.106514)
(5.27954e-05 5.24409e-05 0.110574)
(-8.10299e-05 5.28675e-05 0.10876)
(5.314e-05 -8.08901e-05 0.10876)
(-0.000127817 -0.000127842 0.106441)
(5.16947e-05 5.17414e-05 0.110813)
(-7.7675e-05 5.08691e-05 0.108826)
(5.08508e-05 -7.75958e-05 0.108825)
(-0.00012151 -0.000121513 0.106352)
(4.85781e-05 4.87587e-05 0.111042)
(-7.4549e-05 4.81026e-05 0.108876)
(4.89411e-05 -7.48098e-05 0.108875)
(-0.000114925 -0.00011494 0.106261)
(4.89741e-05 4.86975e-05 0.111259)
(-7.02809e-05 4.72611e-05 0.108913)
(4.65756e-05 -7.09477e-05 0.108913)
(-0.000109027 -0.000109896 0.106161)
(4.89033e-05 4.86683e-05 0.111466)
(-6.81727e-05 4.50855e-05 0.108932)
(4.49875e-05 -6.66828e-05 0.108932)
(-0.000104871 -0.000104834 0.106062)
(4.2793e-05 4.29321e-05 0.111661)
(-6.24214e-05 3.99097e-05 0.108938)
(3.98768e-05 -6.34454e-05 0.108937)
(-9.79685e-05 -9.77514e-05 0.105956)
(4.92155e-05 4.91708e-05 0.111842)
(-5.79082e-05 4.10267e-05 0.108939)
(4.22515e-05 -5.97247e-05 0.108937)
(-9.44142e-05 -9.44303e-05 0.105858)
(3.97214e-05 4.2339e-05 0.112012)
(-5.99639e-05 3.68186e-05 0.108907)
(3.24465e-05 -5.46566e-05 0.108911)
(-8.80469e-05 -8.68351e-05 0.10575)
(4.66041e-05 4.26161e-05 0.112175)
(-5.14985e-05 3.65882e-05 0.108895)
(4.09241e-05 -5.62613e-05 0.108895)
(-8.4998e-05 -8.74814e-05 0.105645)
(4.00909e-05 3.86489e-05 0.112314)
(-4.35704e-05 2.08729e-05 0.108868)
(1.75839e-05 -4.21117e-05 0.108863)
(-7.94011e-05 -7.899e-05 0.105568)
(4.43819e-05 4.97564e-05 0.112447)
(-5.80601e-05 4.8984e-05 0.108824)
(5.62918e-05 -5.80051e-05 0.108817)
(-7.65347e-05 -7.1823e-05 0.105436)
(2.00482e-05 2.29605e-05 0.11258)
(-2.48847e-05 2.19974e-05 0.10874)
(1.27814e-05 -2.63813e-05 0.108734)
(-5.67593e-05 -6.34163e-05 0.105441)
(5.83534e-05 4.93418e-05 0.112659)
(-4.63149e-05 1.69482e-05 0.108733)
(2.94882e-06 -4.3072e-05 0.108745)
(-8.5018e-05 -7.96386e-05 0.1053)
(6.99706e-05 7.72379e-05 0.112627)
(1.40865e-06 -7.00878e-08 0.108681)
(4.30358e-05 8.49542e-07 0.10874)
(-7.40733e-05 -7.55832e-05 0.105041)
(-1.90206e-05 -3.86322e-05 0.112767)
(-9.17037e-05 0.000114691 0.108462)
(0.000115204 -0.000111496 0.10836)
(-6.06888e-05 -7.55861e-05 0.104798)
(5.50697e-05 8.50564e-05 0.113228)
(-7.6443e-05 1.11185e-06 0.108082)
(-6.40671e-05 -4.17321e-05 0.108072)
(-4.43649e-05 -1.20097e-05 0.105265)
(6.73454e-05 6.91084e-05 0.113088)
(7.35261e-05 -0.0001783 0.108913)
(-0.000112304 6.49321e-05 0.109118)
(-0.00011271 -0.000133238 0.105301)
(2.96051e-05 -4.40029e-05 0.112871)
(-6.35027e-06 0.000196388 0.109382)
(0.000255756 -6.41521e-05 0.109084)
(3.62497e-05 -8.74057e-06 0.105426)
(-0.000205731 -0.000141928 0.11325)
(-8.03431e-05 -3.37299e-05 0.108255)
(-0.000172021 -3.3335e-05 0.108156)
(-0.000130007 -5.57989e-05 0.104711)
(0.000106448 0.000159941 0.113638)
(2.40839e-05 9.13652e-05 0.107676)
(0.00012872 4.34234e-05 0.107981)
(5.88993e-05 5.67076e-05 0.104348)
(0.000134959 0.000134949 0.100282)
(0.000124248 0.000152867 0.100229)
(-0.00012424 0.000152848 0.100229)
(-0.000134955 0.000134917 0.100282)
(0.000152896 0.0001242 0.100229)
(0.000152868 -0.000124217 0.100229)
(9.08046e-05 9.07529e-05 0.100151)
(-9.07948e-05 9.07504e-05 0.100151)
(9.07789e-05 -9.07988e-05 0.100151)
(-9.07765e-05 -9.07968e-05 0.100151)
(-0.000152892 0.000124197 0.100229)
(-0.000152878 -0.000124213 0.100229)
(0.000134949 -0.000134968 0.100282)
(0.000124201 -0.000152897 0.100229)
(-0.000124198 -0.00015288 0.100229)
(-0.000134957 -0.000134941 0.100282)
(0.000239636 0.000239616 0.100397)
(0.000111304 0.000111178 0.100892)
(0.000119392 0.000190088 0.100385)
(-0.000119343 0.000190129 0.100385)
(8.91024e-05 0.000147213 0.100823)
(-8.90639e-05 0.00014721 0.100823)
(-0.000239646 0.000239564 0.100397)
(-0.000111265 0.000111146 0.100892)
(0.000190231 0.000119289 0.100385)
(0.00019017 -0.000119349 0.100385)
(0.000147189 8.90738e-05 0.100823)
(0.000147222 -8.90949e-05 0.100823)
(-0.000190151 -0.000119353 0.100385)
(-0.000147158 8.9075e-05 0.100823)
(-0.000147179 -8.90889e-05 0.100823)
(0.000239567 -0.000239657 0.100397)
(0.000111257 -0.00011127 0.100892)
(-0.000119321 -0.000190216 0.100385)
(8.90759e-05 -0.000147148 0.100823)
(-8.90554e-05 -0.000147173 0.100823)
(-0.000111253 -0.000111272 0.100892)
(0.000201135 0.000200969 0.100968)
(0.000105724 0.000105644 0.101395)
(9.68197e-05 0.000158993 0.100941)
(-9.67927e-05 0.000158989 0.100941)
(9.41997e-05 0.000156671 0.10132)
(-9.41999e-05 0.000156672 0.10132)
(-0.000201098 0.000200936 0.100967)
(-0.000105714 0.000105638 0.101395)
(0.000158972 9.68003e-05 0.100942)
(0.00015899 -9.68128e-05 0.100942)
(0.000156627 9.4204e-05 0.10132)
(0.000156667 -9.42071e-05 0.10132)
(-0.000158967 -9.68077e-05 0.100942)
(-0.000156623 9.42127e-05 0.10132)
(-0.000156645 -9.41975e-05 0.10132)
(0.000201044 -0.000201108 0.100968)
(0.000105688 -0.000105701 0.101395)
(-9.6793e-05 -0.000158961 0.100942)
(9.42007e-05 -0.000156624 0.10132)
(-9.4207e-05 -0.000156644 0.10132)
(-0.000105705 -0.000105711 0.101395)
(0.000202055 0.000201927 0.101471)
(9.66154e-05 9.65526e-05 0.101893)
(9.34492e-05 0.000155854 0.101449)
(-9.34543e-05 0.000155851 0.101449)
(9.11465e-05 0.000153335 0.101832)
(-9.11347e-05 0.000153325 0.101832)
(-0.000202044 0.000201911 0.101471)
(-9.65988e-05 9.65486e-05 0.101893)
(0.000155804 9.34629e-05 0.101449)
(0.000155845 -9.34583e-05 0.101449)
(0.000153277 9.11491e-05 0.101832)
(0.00015331 -9.11341e-05 0.101832)
(-0.000155827 -9.34519e-05 0.101449)
(-0.000153272 9.11411e-05 0.101832)
(-0.00015331 -9.11379e-05 0.101832)
(0.000201969 -0.000202045 0.101471)
(9.65705e-05 -9.6605e-05 0.101893)
(-9.34644e-05 -0.000155826 0.101449)
(9.11489e-05 -0.000153275 0.101832)
(-9.11382e-05 -0.000153284 0.101832)
(-9.66275e-05 -9.66298e-05 0.101893)
(0.00019897 0.000198866 0.101964)
(8.60651e-05 8.6022e-05 0.102366)
(9.00954e-05 0.00015211 0.101957)
(-9.00832e-05 0.000152099 0.101957)
(8.66925e-05 0.000147833 0.102326)
(-8.66804e-05 0.000147826 0.102326)
(-0.000198954 0.000198848 0.101964)
(-8.60393e-05 8.60221e-05 0.102366)
(0.000152053 9.00971e-05 0.101957)
(0.000152084 -9.00806e-05 0.101957)
(0.000147775 8.66925e-05 0.102326)
(0.000147807 -8.66733e-05 0.102326)
(-0.000152086 -9.00858e-05 0.101957)
(-0.00014777 8.66854e-05 0.102326)
(-0.000147814 -8.66807e-05 0.102326)
(0.000198874 -0.000198973 0.101964)
(8.60193e-05 -8.60645e-05 0.102366)
(-9.00853e-05 -0.000152056 0.101957)
(8.66974e-05 -0.000147773 0.102326)
(-8.66768e-05 -0.000147773 0.102326)
(-8.60764e-05 -8.60797e-05 0.102366)
(0.000193567 0.000193493 0.102432)
(7.60227e-05 7.60013e-05 0.102812)
(8.5577e-05 0.00014635 0.102446)
(-8.55689e-05 0.000146347 0.102446)
(8.25244e-05 0.000142061 0.102797)
(-8.25158e-05 0.000142065 0.102797)
(-0.000193573 0.000193485 0.102432)
(-7.60505e-05 7.60495e-05 0.102812)
(0.000146296 8.55774e-05 0.102446)
(0.000146325 -8.55552e-05 0.102446)
(0.000142003 8.25248e-05 0.102798)
(0.000142035 -8.25015e-05 0.102798)
(-0.000146334 -8.55679e-05 0.102446)
(-0.000142 8.25269e-05 0.102798)
(-0.000142046 -8.25117e-05 0.102798)
(0.0001935 -0.000193587 0.102432)
(7.60455e-05 -7.60797e-05 0.102812)
(-8.55652e-05 -0.000146291 0.102446)
(8.25353e-05 -0.000142002 0.102798)
(-8.25074e-05 -0.000141996 0.102798)
(-7.60393e-05 -7.60433e-05 0.102812)
(0.000188204 0.000188138 0.10287)
(6.70531e-05 6.70184e-05 0.103229)
(8.1602e-05 0.000140685 0.102912)
(-8.15918e-05 0.00014069 0.102912)
(7.91299e-05 0.000136774 0.103245)
(-7.91076e-05 0.000136773 0.103245)
(-0.000188225 0.000188131 0.10287)
(-6.71004e-05 6.71045e-05 0.103229)
(0.00014063 8.16025e-05 0.102912)
(0.000140659 -8.15736e-05 0.102912)
(0.00013672 7.91327e-05 0.103245)
(0.000136749 -7.9098e-05 0.103245)
(-0.000140673 -8.15945e-05 0.102912)
(-0.000136713 7.91275e-05 0.103245)
(-0.000136761 -7.91157e-05 0.103245)
(0.000188113 -0.000188195 0.102871)
(6.71222e-05 -6.71581e-05 0.103229)
(-8.15929e-05 -0.000140622 0.102912)
(7.9148e-05 -0.000136719 0.103245)
(-7.91109e-05 -0.000136708 0.103245)
(-6.7042e-05 -6.70508e-05 0.103229)
(0.000183734 0.000183667 0.103281)
(5.90501e-05 5.89898e-05 0.10362)
(7.83936e-05 0.000135547 0.103354)
(-7.83714e-05 0.000135546 0.103354)
(7.6476e-05 0.00013216 0.103671)
(-7.64622e-05 0.000132158 0.103671)
(-0.000183715 0.000183623 0.103281)
(-5.91683e-05 5.91758e-05 0.10362)
(0.000135499 7.83985e-05 0.103354)
(0.000135525 -7.83635e-05 0.103354)
(0.000132111 7.6508e-05 0.103671)
(0.000132137 -7.64541e-05 0.103671)
(-0.000135548 -7.83982e-05 0.103354)
(-0.000132106 7.64989e-05 0.103671)
(-0.00013214 -7.64737e-05 0.103671)
(0.000183585 -0.000183673 0.103281)
(5.92437e-05 -5.93007e-05 0.10362)
(-7.83989e-05 -0.000135495 0.103354)
(7.65294e-05 -0.000132109 0.103671)
(-7.64744e-05 -0.000132086 0.103671)
(-5.90409e-05 -5.90607e-05 0.103621)
(0.000180267 0.000180146 0.103664)
(5.24458e-05 5.24445e-05 0.103988)
(7.59474e-05 0.000131115 0.103774)
(-7.59271e-05 0.000131112 0.103774)
(7.47014e-05 0.000128268 0.104076)
(-7.47025e-05 0.000128284 0.104076)
(-0.000180303 0.000180171 0.103664)
(-5.25409e-05 5.26456e-05 0.103987)
(0.000131066 7.59509e-05 0.103774)
(0.000131091 -7.59171e-05 0.103774)
(0.000128212 7.46329e-05 0.104076)
(0.000128263 -7.47055e-05 0.104076)
(-0.000131109 -7.59399e-05 0.103774)
(-0.000128215 7.463e-05 0.104076)
(-0.000128233 -7.46198e-05 0.104076)
(0.000180103 -0.000180253 0.103664)
(5.27417e-05 -5.26931e-05 0.103987)
(-7.59505e-05 -0.000131054 0.103774)
(7.46282e-05 -0.00012821 0.104076)
(-7.45731e-05 -0.000128167 0.104076)
(-5.24514e-05 -5.24201e-05 0.103988)
(0.00017813 0.000178083 0.104022)
(4.6754e-05 4.67256e-05 0.104333)
(7.43298e-05 0.000127394 0.104174)
(-7.43035e-05 0.000127389 0.104174)
(7.32906e-05 0.000124917 0.104463)
(-7.32806e-05 0.000124934 0.104463)
(-0.000178306 0.000178267 0.104022)
(-4.66948e-05 4.67558e-05 0.104332)
(0.000127342 7.4268e-05 0.104174)
(0.000127358 -7.42855e-05 0.104174)
(0.000124858 7.32267e-05 0.104463)
(0.000124926 -7.33025e-05 0.104463)
(-0.000127386 -7.42867e-05 0.104174)
(-0.000124861 7.32131e-05 0.104463)
(-0.0001249 -7.32243e-05 0.104463)
(0.000178219 -0.000178267 0.104023)
(4.68549e-05 -4.68347e-05 0.104332)
(-7.42367e-05 -0.00012732 0.104174)
(7.32234e-05 -0.000124866 0.104463)
(-7.3175e-05 -0.00012483 0.104463)
(-4.68699e-05 -4.68616e-05 0.104333)
(0.000176857 0.000176789 0.104358)
(4.14892e-05 4.14814e-05 0.104657)
(7.29908e-05 0.000124171 0.104557)
(-7.29716e-05 0.000124168 0.104557)
(7.2102e-05 0.000122001 0.104834)
(-7.20771e-05 0.000122004 0.104834)
(-0.000177009 0.000176985 0.104358)
(-4.13463e-05 4.13784e-05 0.104657)
(0.000124115 7.29409e-05 0.104557)
(0.000124134 -7.2942e-05 0.104557)
(0.00012193 7.20383e-05 0.104834)
(0.000122002 -7.20934e-05 0.104834)
(-0.000124161 -7.29456e-05 0.104557)
(-0.000121926 7.20004e-05 0.104834)
(-0.000121994 -7.20563e-05 0.104834)
(0.000177065 -0.000177167 0.104358)
(4.13749e-05 -4.12965e-05 0.104657)
(-7.2895e-05 -0.00012409 0.104557)
(7.20289e-05 -0.000121938 0.104834)
(-7.20083e-05 -0.000121921 0.104834)
(-4.16615e-05 -4.16536e-05 0.104657)
(0.000176139 0.000176061 0.104673)
(3.65183e-05 3.64866e-05 0.104961)
(7.18607e-05 0.000121359 0.104924)
(-7.18379e-05 0.000121347 0.104924)
(7.1002e-05 0.000119393 0.10519)
(-7.09699e-05 0.000119385 0.10519)
(-0.000176172 0.00017612 0.104673)
(-3.64193e-05 3.643e-05 0.104962)
(0.000121293 7.18152e-05 0.104924)
(0.000121322 -7.18271e-05 0.104924)
(0.000119333 7.09417e-05 0.10519)
(0.000119379 -7.0955e-05 0.10519)
(-0.00012132 -7.17745e-05 0.104924)
(-0.000119311 7.08913e-05 0.10519)
(-0.000119408 -7.09674e-05 0.10519)
(0.000176302 -0.000176395 0.104673)
(3.62763e-05 -3.62572e-05 0.104962)
(-7.17194e-05 -0.000121244 0.104924)
(7.09074e-05 -0.000119311 0.10519)
(-7.09244e-05 -0.000119332 0.10519)
(-3.64747e-05 -3.64703e-05 0.104961)
(0.0001759 0.00017578 0.104967)
(3.14491e-05 3.1435e-05 0.105246)
(7.07132e-05 0.000118772 0.105276)
(-7.07082e-05 0.000118786 0.105276)
(6.98661e-05 0.000116951 0.105531)
(-6.98254e-05 0.000116935 0.105531)
(-0.000175772 0.000175687 0.104967)
(-3.15055e-05 3.15442e-05 0.105246)
(0.000118715 7.06718e-05 0.105277)
(0.000118774 -7.07141e-05 0.105276)
(0.000116893 6.98242e-05 0.105531)
(0.000116921 -6.98152e-05 0.105531)
(-0.000118752 -7.06519e-05 0.105277)
(-0.00011687 6.97595e-05 0.105531)
(-0.000116947 -6.98012e-05 0.105531)
(0.000175719 -0.000175775 0.104966)
(3.13823e-05 -3.14226e-05 0.105246)
(-7.05917e-05 -0.000118674 0.105277)
(6.97551e-05 -0.000116847 0.105531)
(-6.9759e-05 -0.000116869 0.105531)
(-3.13241e-05 -3.13618e-05 0.105246)
(0.00017571 0.000175591 0.105239)
(2.6353e-05 2.63577e-05 0.105512)
(6.9521e-05 0.000116315 0.105614)
(-6.95089e-05 0.000116335 0.105614)
(6.85847e-05 0.00011456 0.105859)
(-6.86067e-05 0.00011456 0.105858)
(-0.000175613 0.0001755 0.10524)
(-2.64076e-05 2.64992e-05 0.105511)
(0.000116257 6.94756e-05 0.105615)
(0.000116343 -6.95197e-05 0.105614)
(0.000114486 6.85468e-05 0.105859)
(0.000114555 -6.86186e-05 0.105858)
(-0.000116323 -6.94705e-05 0.105614)
(-0.000114494 6.85305e-05 0.105859)
(-0.000114542 -6.85641e-05 0.105859)
(0.000175355 -0.000175505 0.10524)
(2.66111e-05 -2.65415e-05 0.105511)
(-6.94322e-05 -0.00011624 0.105615)
(6.855e-05 -0.000114476 0.105859)
(-6.84839e-05 -0.000114452 0.105859)
(-2.64957e-05 -2.644e-05 0.105511)
(0.000175157 0.000175105 0.105491)
(2.14758e-05 2.15376e-05 0.105755)
(6.83386e-05 0.000113977 0.105938)
(-6.83154e-05 0.000113946 0.105938)
(6.75466e-05 0.000112221 0.106172)
(-6.7527e-05 0.000112225 0.106172)
(-0.00017531 0.000175346 0.105491)
(-2.12181e-05 2.13917e-05 0.105756)
(0.000113915 6.82758e-05 0.105938)
(0.000113944 -6.83122e-05 0.105938)
(0.000112142 6.74592e-05 0.106172)
(0.00011221 -6.75148e-05 0.106172)
(-0.000113987 -6.83152e-05 0.105938)
(-0.000112141 6.74186e-05 0.106172)
(-0.00011225 -6.75166e-05 0.106172)
(0.000175336 -0.000175398 0.105491)
(2.12709e-05 -2.11606e-05 0.105755)
(-6.82327e-05 -0.000113897 0.105938)
(6.73884e-05 -0.000112119 0.106172)
(-6.74241e-05 -0.000112148 0.106172)
(-2.14504e-05 -2.13974e-05 0.105755)
(0.000174473 0.000174426 0.10572)
(1.63276e-05 1.64195e-05 0.105978)
(6.72549e-05 0.000111646 0.106248)
(-6.7298e-05 0.000111684 0.106247)
(6.64814e-05 0.000110052 0.10647)
(-6.65522e-05 0.000110091 0.10647)
(-0.000174214 0.000174233 0.10572)
(-1.6437e-05 1.65237e-05 0.105977)
(0.000111562 6.71922e-05 0.106248)
(0.000111652 -6.72789e-05 0.106247)
(0.000109996 6.6436e-05 0.10647)
(0.000110074 -6.65171e-05 0.10647)
(-0.00011165 -6.72376e-05 0.106248)
(-0.000109954 6.64352e-05 0.10647)
(-0.000110025 -6.65174e-05 0.10647)
(0.000174279 -0.000174306 0.10572)
(1.66169e-05 -1.64958e-05 0.105977)
(-6.71501e-05 -0.00011154 0.106248)
(6.64097e-05 -0.000109976 0.10647)
(-6.64222e-05 -0.000109928 0.10647)
(-1.6453e-05 -1.64056e-05 0.105977)
(0.000173281 0.000173288 0.105926)
(1.17958e-05 1.18686e-05 0.106176)
(6.62476e-05 0.000109548 0.106542)
(-6.62688e-05 0.000109564 0.106542)
(6.54861e-05 0.000108022 0.106753)
(-6.54692e-05 0.000108024 0.106753)
(-0.000173518 0.000173494 0.105926)
(-1.17409e-05 1.18155e-05 0.106176)
(0.000109504 6.61765e-05 0.106543)
(0.000109583 -6.62694e-05 0.106542)
(0.000107994 6.54104e-05 0.106754)
(0.00010804 -6.54623e-05 0.106753)
(-0.000109497 -6.62228e-05 0.106542)
(-0.000107908 6.53505e-05 0.106754)
(-0.00010802 -6.54581e-05 0.106753)
(0.000173463 -0.000173469 0.105926)
(1.16638e-05 -1.15959e-05 0.106176)
(-6.61269e-05 -0.000109402 0.106543)
(6.53139e-05 -0.000107951 0.106754)
(-6.53605e-05 -0.000107912 0.106754)
(-1.19572e-05 -1.18887e-05 0.106176)
(0.000172075 0.000172034 0.106108)
(7.42098e-06 7.46302e-06 0.10635)
(6.51769e-05 0.000107504 0.106822)
(-6.51903e-05 0.000107523 0.106822)
(6.43541e-05 0.000105963 0.107021)
(-6.43848e-05 0.000105986 0.107021)
(-0.000171937 0.000171895 0.106108)
(-7.43818e-06 7.49086e-06 0.10635)
(0.000107467 6.51051e-05 0.106822)
(0.000107545 -6.52082e-05 0.106822)
(0.000105948 6.4287e-05 0.107022)
(0.00010602 -6.43965e-05 0.107021)
(-0.000107493 -6.51562e-05 0.106822)
(-0.000105889 6.42716e-05 0.107022)
(-0.000105949 -6.43038e-05 0.107021)
(0.000171919 -0.000172008 0.106108)
(7.69238e-06 -7.59733e-06 0.10635)
(-6.50544e-05 -0.000107377 0.106822)
(6.42907e-05 -0.000105919 0.107022)
(-6.42135e-05 -0.000105828 0.107022)
(-7.50432e-06 -7.4611e-06 0.10635)
(0.000170393 0.000170362 0.106264)
(3.86399e-06 3.91772e-06 0.106498)
(6.40873e-05 0.000105469 0.107086)
(-6.41097e-05 0.000105478 0.107086)
(6.33789e-05 0.00010411 0.107273)
(-6.33021e-05 0.000104078 0.107273)
(-0.000170464 0.00017041 0.106264)
(-3.81399e-06 3.87275e-06 0.106498)
(0.000105426 6.40225e-05 0.107086)
(0.000105501 -6.41091e-05 0.107086)
(0.000104054 6.33023e-05 0.107274)
(0.000104061 -6.32584e-05 0.107273)
(-0.000105474 -6.40604e-05 0.107086)
(-0.000103987 6.32016e-05 0.107274)
(-0.000104069 -6.32662e-05 0.107273)
(0.000170626 -0.00017066 0.106264)
(3.85569e-06 -3.77046e-06 0.106498)
(-6.39556e-05 -0.000105377 0.107086)
(6.31317e-05 -0.000103967 0.107274)
(-6.31722e-05 -0.000103955 0.107274)
(-3.57106e-06 -3.5019e-06 0.106498)
(0.000168588 0.000168518 0.106394)
(4.61754e-07 5.03084e-07 0.106619)
(6.29559e-05 0.000103563 0.107334)
(-6.2969e-05 0.0001036 0.107334)
(6.22456e-05 0.000102158 0.107509)
(-6.22041e-05 0.000102147 0.107508)
(-0.000168256 0.000168228 0.106394)
(-7.06804e-08 1.47772e-07 0.10662)
(0.000103513 6.2914e-05 0.107334)
(0.000103608 -6.29907e-05 0.107333)
(0.000102073 6.21841e-05 0.107509)
(0.000102155 -6.22285e-05 0.107508)
(-0.000103588 -6.30055e-05 0.107334)
(-0.000102043 6.21114e-05 0.107509)
(-0.000102127 -6.22198e-05 0.107509)
(0.000168121 -0.000168198 0.106394)
(3.6333e-08 5.05485e-08 0.106619)
(-6.28918e-05 -0.000103483 0.107334)
(6.21011e-05 -0.000102052 0.107509)
(-6.2111e-05 -0.000102022 0.107509)
(-3.0232e-07 -2.41574e-07 0.106619)
(0.000165665 0.000165611 0.106497)
(-2.97503e-06 -2.92321e-06 0.106713)
(6.19081e-05 0.000101629 0.107565)
(-6.19461e-05 0.000101641 0.107565)
(6.11352e-05 0.000100127 0.107727)
(-6.12238e-05 0.000100199 0.107726)
(-0.000165312 0.0001653 0.106497)
(3.15551e-06 -3.12726e-06 0.106713)
(0.000101607 6.18696e-05 0.107565)
(0.000101693 -6.20059e-05 0.107564)
(0.000100033 6.10553e-05 0.107727)
(0.000100157 -6.12265e-05 0.107726)
(-0.000101655 -6.19466e-05 0.107565)
(-0.000100062 6.1141e-05 0.107727)
(-0.000100119 -6.11459e-05 0.107727)
(0.000165364 -0.000165451 0.106497)
(-3.02946e-06 3.06289e-06 0.106712)
(-6.18124e-05 -0.000101538 0.107565)
(6.10995e-05 -0.00010007 0.107727)
(-6.10303e-05 -0.000100023 0.107727)
(3.02275e-06 3.06208e-06 0.106713)
(0.000162126 0.000162059 0.106572)
(-5.75652e-06 -5.7669e-06 0.106779)
(6.08043e-05 9.95804e-05 0.107778)
(-6.08815e-05 9.95733e-05 0.107778)
(6.02366e-05 9.80635e-05 0.107927)
(-6.03883e-05 9.81834e-05 0.107927)
(-0.000162253 0.000162206 0.106572)
(5.83691e-06 -5.74892e-06 0.106779)
(9.95232e-05 6.07474e-05 0.107779)
(9.95914e-05 -6.08768e-05 0.107778)
(9.79675e-05 6.0205e-05 0.107927)
(9.80818e-05 -6.03172e-05 0.107926)
(-9.96738e-05 -6.09346e-05 0.107778)
(-9.80201e-05 6.03266e-05 0.107927)
(-9.7951e-05 -6.0113e-05 0.107927)
(0.000162374 -0.000162451 0.106572)
(-5.67937e-06 5.74331e-06 0.106778)
(-6.08251e-05 -9.95393e-05 0.107779)
(6.02507e-05 -9.79885e-05 0.107927)
(-5.99979e-05 -9.78609e-05 0.107927)
(6.05899e-06 6.04809e-06 0.106779)
(0.00015859 0.000158462 0.106621)
(-8.48202e-06 -8.39259e-06 0.106817)
(5.99926e-05 9.74846e-05 0.107974)
(-6.00615e-05 9.74693e-05 0.107974)
(5.89936e-05 9.55594e-05 0.108109)
(-5.9099e-05 9.57588e-05 0.108109)
(-0.000158641 0.000158646 0.106621)
(8.61852e-06 -8.51441e-06 0.106817)
(9.74106e-05 5.99732e-05 0.107975)
(9.7418e-05 -5.99222e-05 0.107974)
(9.54691e-05 5.89085e-05 0.108109)
(9.56997e-05 -5.91879e-05 0.108108)
(-9.74573e-05 -5.98528e-05 0.107974)
(-9.55284e-05 5.90398e-05 0.10811)
(-9.55869e-05 -5.90954e-05 0.108109)
(0.000158626 -0.000158661 0.106621)
(-8.41127e-06 8.54505e-06 0.106817)
(-5.97796e-05 -9.73071e-05 0.107974)
(5.90327e-05 -9.56004e-05 0.108109)
(-5.89517e-05 -9.55026e-05 0.108109)
(8.51375e-06 8.47779e-06 0.106817)
(0.000153994 0.000154026 0.106644)
(-1.04579e-05 -1.03897e-05 0.10683)
(5.88016e-05 9.50613e-05 0.108152)
(-5.89841e-05 9.51657e-05 0.108151)
(5.80952e-05 9.31034e-05 0.108272)
(-5.82624e-05 9.3341e-05 0.108272)
(-0.00015398 0.000154 0.106644)
(1.04724e-05 -1.04218e-05 0.10683)
(9.49201e-05 5.87559e-05 0.108152)
(9.504e-05 -5.8981e-05 0.108151)
(9.30801e-05 5.79953e-05 0.108273)
(9.32317e-05 -5.81671e-05 0.108272)
(-9.49886e-05 -5.87886e-05 0.108151)
(-9.31551e-05 5.81707e-05 0.108273)
(-9.32366e-05 -5.82607e-05 0.108272)
(0.000154052 -0.00015408 0.106644)
(-1.04611e-05 1.05465e-05 0.106829)
(-5.86835e-05 -9.49292e-05 0.108152)
(5.79688e-05 -9.30719e-05 0.108273)
(-5.81339e-05 -9.31616e-05 0.108273)
(1.0482e-05 1.04744e-05 0.106829)
(0.000149419 0.000149436 0.106643)
(-1.27761e-05 -1.27065e-05 0.106817)
(5.77287e-05 9.25185e-05 0.108311)
(-5.79657e-05 9.27015e-05 0.10831)
(5.71197e-05 9.06259e-05 0.108417)
(-5.70663e-05 9.07528e-05 0.108417)
(-0.000149572 0.000149625 0.106643)
(1.28018e-05 -1.27061e-05 0.106818)
(9.23796e-05 5.7673e-05 0.108311)
(9.24941e-05 -5.77849e-05 0.10831)
(9.05997e-05 5.70085e-05 0.108417)
(9.07614e-05 -5.72455e-05 0.108417)
(-9.25537e-05 -5.79138e-05 0.10831)
(-9.0488e-05 5.7019e-05 0.108418)
(-9.06005e-05 -5.71168e-05 0.108417)
(0.00014943 -0.000149499 0.106643)
(-1.23051e-05 1.24213e-05 0.106817)
(-5.78301e-05 -9.25742e-05 0.108311)
(5.71233e-05 -9.05396e-05 0.108418)
(-5.6949e-05 -9.04894e-05 0.108418)
(1.27531e-05 1.27558e-05 0.106817)
(0.000144198 0.000144164 0.106619)
(-1.47544e-05 -1.47894e-05 0.106784)
(5.6636e-05 8.99006e-05 0.10845)
(-5.67799e-05 9.01448e-05 0.10845)
(5.63103e-05 8.79221e-05 0.108543)
(-5.62612e-05 8.78891e-05 0.108543)
(-0.000144409 0.000144567 0.106619)
(1.47417e-05 -1.48492e-05 0.106784)
(8.97126e-05 5.65318e-05 0.108451)
(8.99911e-05 -5.68319e-05 0.10845)
(8.81653e-05 5.60805e-05 0.108543)
(8.80786e-05 -5.61683e-05 0.108542)
(-8.97947e-05 -5.66457e-05 0.10845)
(-8.79236e-05 5.60727e-05 0.108544)
(-8.79719e-05 -5.58974e-05 0.108543)
(0.00014473 -0.000144729 0.106619)
(-1.43909e-05 1.45765e-05 0.106783)
(-5.65063e-05 -8.98018e-05 0.108451)
(5.61303e-05 -8.77843e-05 0.108543)
(-5.58544e-05 -8.77191e-05 0.108544)
(1.45263e-05 1.46601e-05 0.106784)
(0.000138892 0.000138684 0.106575)
(-1.77692e-05 -1.75096e-05 0.106731)
(5.62334e-05 8.73013e-05 0.108571)
(-5.60828e-05 8.72992e-05 0.108571)
(5.35907e-05 8.46272e-05 0.10865)
(-5.44568e-05 8.4985e-05 0.10865)
(-0.000139232 0.000139137 0.106575)
(1.74434e-05 -1.758e-05 0.106731)
(8.74237e-05 5.6032e-05 0.108572)
(8.72056e-05 -5.58228e-05 0.108571)
(8.44528e-05 5.36029e-05 0.108651)
(8.48942e-05 -5.44519e-05 0.108649)
(-8.72668e-05 -5.5783e-05 0.108571)
(-8.48975e-05 5.41772e-05 0.108651)
(-8.49742e-05 -5.45386e-05 0.10865)
(0.000139378 -0.000139329 0.106575)
(-1.70843e-05 1.70432e-05 0.10673)
(-5.57158e-05 -8.71673e-05 0.108572)
(5.41786e-05 -8.47363e-05 0.108651)
(-5.45229e-05 -8.47501e-05 0.108651)
(1.64955e-05 1.65944e-05 0.10673)
(0.000131746 0.00013175 0.106514)
(-1.77731e-05 -1.78895e-05 0.106666)
(5.29133e-05 8.37734e-05 0.108674)
(-5.42009e-05 8.42774e-05 0.108674)
(5.39247e-05 8.18304e-05 0.10874)
(-5.30008e-05 8.13733e-05 0.108739)
(-0.000132815 0.000132655 0.106515)
(1.92296e-05 -1.94631e-05 0.106664)
(8.3599e-05 5.2858e-05 0.108675)
(8.4137e-05 -5.39722e-05 0.108674)
(8.20958e-05 5.35371e-05 0.108741)
(8.17346e-05 -5.31476e-05 0.108739)
(-8.39588e-05 -5.37762e-05 0.108674)
(-8.16543e-05 5.27033e-05 0.10874)
(-8.17562e-05 -5.30467e-05 0.108739)
(0.000133122 -0.000133155 0.106514)
(-1.88378e-05 1.88029e-05 0.106663)
(-5.37303e-05 -8.38214e-05 0.108675)
(5.30322e-05 -8.16697e-05 0.10874)
(-5.29393e-05 -8.16294e-05 0.10874)
(1.85809e-05 1.85672e-05 0.106663)
(0.000128432 0.000127953 0.106442)
(-2.0798e-05 -2.03171e-05 0.106579)
(5.39239e-05 8.10497e-05 0.108759)
(-5.3049e-05 8.09701e-05 0.108758)
(5.17788e-05 7.88217e-05 0.10881)
(-5.15863e-05 7.89536e-05 0.10881)
(-0.000127193 0.000126849 0.106441)
(2.1076e-05 -2.07685e-05 0.106581)
(8.14754e-05 5.33848e-05 0.10876)
(8.11677e-05 -5.30476e-05 0.108758)
(7.86329e-05 5.18309e-05 0.10881)
(7.8973e-05 -5.19317e-05 0.108809)
(-8.11601e-05 -5.30189e-05 0.108759)
(-7.84544e-05 5.16786e-05 0.108811)
(-7.86055e-05 -5.205e-05 0.10881)
(0.000127696 -0.00012774 0.106441)
(-2.0908e-05 2.08059e-05 0.106578)
(-5.29008e-05 -8.08731e-05 0.108759)
(5.17787e-05 -7.89641e-05 0.10881)
(-5.19017e-05 -7.90632e-05 0.108811)
(2.07187e-05 2.05383e-05 0.106579)
(0.0001213 0.000121479 0.106351)
(-2.36366e-05 -2.30346e-05 0.106488)
(5.14469e-05 7.83925e-05 0.108824)
(-5.08828e-05 7.79294e-05 0.108824)
(4.81929e-05 7.47613e-05 0.108863)
(-4.98928e-05 7.56061e-05 0.108863)
(-0.000121048 0.000121048 0.106353)
(2.29399e-05 -2.30806e-05 0.106489)
(7.8288e-05 5.13569e-05 0.108825)
(7.7823e-05 -5.06971e-05 0.108824)
(7.44735e-05 4.84268e-05 0.108864)
(7.57469e-05 -5.01505e-05 0.108862)
(-7.79471e-05 -5.10763e-05 0.108825)
(-7.58076e-05 4.93987e-05 0.108865)
(-7.52561e-05 -4.84418e-05 0.108864)
(0.000121291 -0.000121378 0.106352)
(-2.33152e-05 2.2925e-05 0.106488)
(-5.13634e-05 -7.78968e-05 0.108825)
(4.96548e-05 -7.58394e-05 0.108864)
(-4.84206e-05 -7.46534e-05 0.108865)
(2.36336e-05 2.36997e-05 0.106489)
(0.000114493 0.000114908 0.106259)
(-2.42101e-05 -2.3908e-05 0.106398)
(4.67908e-05 7.33739e-05 0.108875)
(-4.89414e-05 7.44153e-05 0.108874)