/*--------------------------------*- C++ -*----------------------------------*\
| =========                 |                                                 |
| \\      /  F ield         | OpenFOAM: The Open Source CFD Toolbox           |
|  \\    /   O peration     | Version:  v2012                                 |
|   \\  /    A nd           | Website:  www.openfoam.com                      |
|    \\/     M anipulation  |                                                 |
\*---------------------------------------------------------------------------*/
FoamFile
{
    version     2.0;
    format      ascii;
    class       volScalarField;
    location    "50";
    object      epsilon;
}
// * * * * * * * * * * * * * * * * * * * * * * * * * * * * * * * * * * * * * //

dimensions      [0 2 -3 0 0 0 0];


internalField   nonuniform List<scalar> 
85864
(
4.95564e-07
4.97404e-07
4.9749e-07
4.99611e-07
4.4558e-07
4.5399e-07
4.53954e-07
4.64014e-07
4.03765e-07
4.18818e-07
4.18811e-07
4.39657e-07
3.68377e-07
3.88749e-07
3.88748e-07
4.17703e-07
3.38028e-07
3.62204e-07
3.62209e-07
3.95956e-07
3.11657e-07
3.38349e-07
3.38358e-07
3.74503e-07
2.88471e-07
3.16682e-07
3.16692e-07
3.53685e-07
2.67892e-07
2.96997e-07
2.97008e-07
3.33989e-07
2.49489e-07
2.79433e-07
2.79431e-07
3.17189e-07
2.33096e-07
2.64449e-07
2.64416e-07
3.04086e-07
2.19351e-07
2.52434e-07
2.52345e-07
2.94156e-07
2.09482e-07
2.44022e-07
2.43957e-07
2.87173e-07
2.03829e-07
2.39307e-07
2.39321e-07
2.82459e-07
2.01434e-07
2.37332e-07
2.37343e-07
2.79966e-07
2.00699e-07
2.36744e-07
2.36705e-07
2.797e-07
2.005e-07
2.36564e-07
2.36548e-07
2.79207e-07
2.00467e-07
2.36512e-07
2.36518e-07
2.79e-07
2.00457e-07
2.36472e-07
2.36492e-07
2.78925e-07
2.00449e-07
2.36467e-07
2.36481e-07
2.79255e-07
2.00448e-07
2.36453e-07
2.36488e-07
2.79096e-07
2.00447e-07
2.36451e-07
2.36515e-07
2.79489e-07
2.00446e-07
2.36483e-07
2.36543e-07
2.79679e-07
2.00442e-07
2.36507e-07
2.36584e-07
2.79338e-07
2.00439e-07
2.365e-07
2.36572e-07
2.7905e-07
2.00441e-07
2.36479e-07
2.36568e-07
2.79331e-07
2.00431e-07
2.36477e-07
2.36564e-07
2.79239e-07
2.00444e-07
2.36472e-07
2.36545e-07
2.79168e-07
2.00443e-07
2.36472e-07
2.36524e-07
2.78978e-07
2.0044e-07
2.36474e-07
2.36543e-07
2.79286e-07
2.00441e-07
2.36495e-07
2.36566e-07
2.78985e-07
2.00442e-07
2.36527e-07
2.36527e-07
2.78813e-07
2.00438e-07
2.36538e-07
2.36507e-07
2.78812e-07
2.00439e-07
2.36509e-07
2.36488e-07
2.7891e-07
2.00426e-07
2.36506e-07
2.36455e-07
2.78907e-07
2.0043e-07
2.36498e-07
2.36473e-07
2.7889e-07
2.00432e-07
2.36509e-07
2.36464e-07
2.79025e-07
2.00434e-07
2.36521e-07
2.36458e-07
2.79421e-07
2.00436e-07
2.36525e-07
2.36454e-07
2.79094e-07
2.00455e-07
2.36532e-07
2.36455e-07
2.79346e-07
2.00453e-07
2.36482e-07
2.3647e-07
2.79126e-07
2.00451e-07
2.3648e-07
2.36494e-07
2.78932e-07
2.00446e-07
2.36453e-07
2.36475e-07
2.79347e-07
2.00449e-07
2.36459e-07
2.36461e-07
2.78949e-07
2.0045e-07
2.36474e-07
2.36463e-07
2.79273e-07
2.0045e-07
2.36472e-07
2.36468e-07
2.79035e-07
2.00449e-07
2.36472e-07
2.36506e-07
2.79382e-07
2.00455e-07
2.36498e-07
2.36516e-07
2.79166e-07
5.06374e-07
5.05559e-07
5.05456e-07
5.0637e-07
5.05542e-07
5.05508e-07
5.09648e-07
5.09644e-07
5.09646e-07
5.09648e-07
5.05551e-07
5.05551e-07
5.0637e-07
5.05543e-07
5.05557e-07
5.06387e-07
4.99641e-07
4.67437e-07
4.97433e-07
4.97701e-07
4.63928e-07
4.64026e-07
4.9964e-07
4.67475e-07
4.97445e-07
4.97545e-07
4.63879e-07
4.63889e-07
4.97409e-07
4.63952e-07
4.64233e-07
4.99642e-07
4.6744e-07
4.97418e-07
4.63905e-07
4.63872e-07
4.675e-07
4.63951e-07
4.41606e-07
4.5397e-07
4.54038e-07
4.26955e-07
4.27027e-07
4.63987e-07
4.41679e-07
4.53898e-07
4.53918e-07
4.26902e-07
4.26999e-07
4.54302e-07
4.27042e-07
4.27164e-07
4.63956e-07
4.41662e-07
4.53913e-07
4.27033e-07
4.26945e-07
4.41674e-07
4.39597e-07
4.19314e-07
4.18711e-07
4.18805e-07
3.95833e-07
3.95948e-07
4.39676e-07
4.19334e-07
4.18675e-07
4.18784e-07
3.95832e-07
3.95906e-07
4.18889e-07
3.95913e-07
3.95969e-07
4.39654e-07
4.19329e-07
4.18716e-07
3.95911e-07
3.95842e-07
4.19355e-07
4.17658e-07
3.97608e-07
3.88692e-07
3.888e-07
3.68582e-07
3.68646e-07
4.17718e-07
3.97609e-07
3.88692e-07
3.88755e-07
3.68579e-07
3.68615e-07
3.88814e-07
3.68583e-07
3.6865e-07
4.17684e-07
3.97605e-07
3.887e-07
3.68587e-07
3.68583e-07
3.97614e-07
3.95952e-07
3.76063e-07
3.62212e-07
3.62265e-07
3.44144e-07
3.44163e-07
3.9594e-07
3.75989e-07
3.62209e-07
3.62241e-07
3.44145e-07
3.44155e-07
3.62267e-07
3.44127e-07
3.44164e-07
3.95917e-07
3.75931e-07
3.62212e-07
3.44135e-07
3.44134e-07
3.75927e-07
3.74352e-07
3.55143e-07
3.38366e-07
3.38382e-07
3.2197e-07
3.21971e-07
3.74532e-07
3.55093e-07
3.38369e-07
3.38379e-07
3.21967e-07
3.21975e-07
3.38383e-07
3.21953e-07
3.21973e-07
3.74516e-07
3.54995e-07
3.38357e-07
3.21961e-07
3.21952e-07
3.54997e-07
3.53544e-07
3.35385e-07
3.167e-07
3.16705e-07
3.01814e-07
3.0181e-07
3.53577e-07
3.35353e-07
3.16697e-07
3.16709e-07
3.01803e-07
3.01817e-07
3.16705e-07
3.01795e-07
3.01812e-07
3.53693e-07
3.35411e-07
3.16685e-07
3.01805e-07
3.01791e-07
3.35366e-07
3.33988e-07
3.18073e-07
2.97019e-07
2.97022e-07
2.83694e-07
2.8369e-07
3.34032e-07
3.18079e-07
2.97007e-07
2.97031e-07
2.83678e-07
2.83702e-07
2.97023e-07
2.83679e-07
2.83692e-07
3.33921e-07
3.17987e-07
2.97004e-07
2.8368e-07
2.83672e-07
3.17999e-07
3.17122e-07
3.04857e-07
2.79452e-07
2.7946e-07
2.68039e-07
2.68043e-07
3.17096e-07
3.04816e-07
2.79433e-07
2.79462e-07
2.68004e-07
2.6803e-07
2.79448e-07
2.68041e-07
2.68006e-07
3.17105e-07
3.04801e-07
2.7943e-07
2.68016e-07
2.67987e-07
3.04663e-07
3.04055e-07
2.94882e-07
2.64461e-07
2.64474e-07
2.55274e-07
2.55274e-07
3.04134e-07
2.95205e-07
2.64423e-07
2.64452e-07
2.55196e-07
2.55213e-07
2.64429e-07
2.55261e-07
2.55218e-07
3.04302e-07
2.94653e-07
2.64406e-07
2.55187e-07
2.55173e-07
2.947e-07
2.94709e-07
2.87901e-07
2.52481e-07
2.52488e-07
2.45953e-07
2.45966e-07
2.9464e-07
2.88027e-07
2.52389e-07
2.52402e-07
2.45848e-07
2.45858e-07
2.52426e-07
2.45908e-07
2.45893e-07
2.94523e-07
2.87518e-07
2.52374e-07
2.45819e-07
2.45833e-07
2.87301e-07
2.87971e-07
2.82752e-07
2.44149e-07
2.44159e-07
2.40461e-07
2.40433e-07
2.87793e-07
2.8257e-07
2.44045e-07
2.44056e-07
2.40369e-07
2.4035e-07
2.44094e-07
2.40333e-07
2.40418e-07
2.8735e-07
2.82472e-07
2.44027e-07
2.40337e-07
2.40336e-07
2.82386e-07
2.82731e-07
2.79847e-07
2.39539e-07
2.39505e-07
2.37839e-07
2.37803e-07
2.82664e-07
2.79734e-07
2.39448e-07
2.39432e-07
2.3777e-07
2.37738e-07
2.39512e-07
2.3772e-07
2.3782e-07
2.82514e-07
2.79659e-07
2.39424e-07
2.37751e-07
2.37747e-07
2.79716e-07
2.80075e-07
2.7883e-07
2.37542e-07
2.37513e-07
2.36853e-07
2.36902e-07
2.79975e-07
2.7889e-07
2.37481e-07
2.37453e-07
2.3683e-07
2.36832e-07
2.37532e-07
2.36883e-07
2.36926e-07
2.79887e-07
2.78755e-07
2.37463e-07
2.3686e-07
2.36866e-07
2.79406e-07
2.79131e-07
2.7852e-07
2.36821e-07
2.36881e-07
2.36605e-07
2.36703e-07
2.79194e-07
2.78655e-07
2.36794e-07
2.36816e-07
2.36559e-07
2.36606e-07
2.36909e-07
2.36639e-07
2.36698e-07
2.79057e-07
2.78576e-07
2.36846e-07
2.36594e-07
2.36653e-07
2.7888e-07
2.78867e-07
2.78539e-07
2.36604e-07
2.36698e-07
2.36547e-07
2.3661e-07
2.79009e-07
2.78588e-07
2.36566e-07
2.36612e-07
2.36487e-07
2.36526e-07
2.36697e-07
2.36531e-07
2.3658e-07
2.78934e-07
2.78575e-07
2.3665e-07
2.3653e-07
2.3656e-07
2.7868e-07
2.78875e-07
2.78515e-07
2.36554e-07
2.3661e-07
2.36513e-07
2.36548e-07
2.78909e-07
2.78464e-07
2.36497e-07
2.36548e-07
2.36479e-07
2.36541e-07
2.36592e-07
2.365e-07
2.36552e-07
2.78958e-07
2.78578e-07
2.36571e-07
2.36509e-07
2.36556e-07
2.78614e-07
2.7888e-07
2.78585e-07
2.36528e-07
2.36567e-07
2.36501e-07
2.36562e-07
2.78798e-07
2.78519e-07
2.3649e-07
2.36539e-07
2.36476e-07
2.3655e-07
2.36557e-07
2.36478e-07
2.36553e-07
2.78915e-07
2.78512e-07
2.36555e-07
2.36487e-07
2.36551e-07
2.7894e-07
2.78926e-07
2.78596e-07
2.36499e-07
2.36562e-07
2.36495e-07
2.36564e-07
2.78873e-07
2.78432e-07
2.36481e-07
2.36563e-07
2.36452e-07
2.36593e-07
2.36557e-07
2.36467e-07
2.36564e-07
2.78835e-07
2.78505e-07
2.36555e-07
2.36485e-07
2.36528e-07
2.78726e-07
2.7894e-07
2.78557e-07
2.36499e-07
2.36565e-07
2.36494e-07
2.36577e-07
2.78771e-07
2.7854e-07
2.36487e-07
2.36596e-07
2.36467e-07
2.3663e-07
2.36568e-07
2.36449e-07
2.36609e-07
2.7885e-07
2.78647e-07
2.36549e-07
2.365e-07
2.36558e-07
2.792e-07
2.78889e-07
2.78508e-07
2.36504e-07
2.36581e-07
2.36481e-07
2.36564e-07
2.78886e-07
2.78581e-07
2.36462e-07
2.36689e-07
2.36464e-07
2.36667e-07
2.36615e-07
2.36467e-07
2.36628e-07
2.78976e-07
2.78613e-07
2.36562e-07
2.36541e-07
2.36573e-07
2.79372e-07
2.7884e-07
2.78497e-07
2.36496e-07
2.36576e-07
2.36486e-07
2.36524e-07
2.78944e-07
2.78573e-07
2.36466e-07
2.36661e-07
2.36471e-07
2.36646e-07
2.36653e-07
2.36502e-07
2.3664e-07
2.78977e-07
2.78684e-07
2.36574e-07
2.36592e-07
2.36559e-07
2.79022e-07
2.78866e-07
2.78586e-07
2.36486e-07
2.36544e-07
2.36501e-07
2.36496e-07
2.78928e-07
2.78537e-07
2.36475e-07
2.36651e-07
2.36504e-07
2.36647e-07
2.36622e-07
2.3651e-07
2.36576e-07
2.79032e-07
2.78642e-07
2.3656e-07
2.36576e-07
2.36534e-07
2.78757e-07
2.78927e-07
2.78538e-07
2.36507e-07
2.36499e-07
2.36493e-07
2.36482e-07
2.78887e-07
2.78408e-07
2.36518e-07
2.36655e-07
2.36491e-07
2.36639e-07
2.36607e-07
2.36478e-07
2.36554e-07
2.7901e-07
2.78617e-07
2.36541e-07
2.3657e-07
2.36523e-07
2.79014e-07
2.78863e-07
2.78562e-07
2.36493e-07
2.36483e-07
2.3651e-07
2.365e-07
2.78785e-07
2.7851e-07
2.36495e-07
2.36654e-07
2.3646e-07
2.36646e-07
2.36555e-07
2.36483e-07
2.36556e-07
2.78964e-07
2.7862e-07
2.36544e-07
2.36569e-07
2.36526e-07
2.78892e-07
2.78909e-07
2.78513e-07
2.36527e-07
2.365e-07
2.36515e-07
2.36507e-07
2.78836e-07
2.78502e-07
2.3647e-07
2.36647e-07
2.36442e-07
2.36645e-07
2.36559e-07
2.36472e-07
2.36559e-07
2.78995e-07
2.78688e-07
2.36573e-07
2.36554e-07
2.36553e-07
2.7885e-07
2.7885e-07
2.78451e-07
2.36519e-07
2.36538e-07
2.36505e-07
2.36528e-07
2.78867e-07
2.78492e-07
2.36439e-07
2.36646e-07
2.36419e-07
2.36628e-07
2.36561e-07
2.36474e-07
2.36546e-07
2.79025e-07
2.78695e-07
2.36575e-07
2.36536e-07
2.36527e-07
2.78677e-07
2.78791e-07
2.78509e-07
2.36515e-07
2.3653e-07
2.36498e-07
2.36539e-07
2.78842e-07
2.78446e-07
2.36429e-07
2.36639e-07
2.36434e-07
2.36637e-07
2.36562e-07
2.36474e-07
2.36574e-07
2.79059e-07
2.78664e-07
2.36565e-07
2.3654e-07
2.3652e-07
2.78979e-07
2.78857e-07
2.78461e-07
2.36516e-07
2.36545e-07
2.36496e-07
2.3654e-07
2.78822e-07
2.78516e-07
2.36434e-07
2.36651e-07
2.36445e-07
2.36664e-07
2.36581e-07
2.36486e-07
2.36564e-07
2.78985e-07
2.78645e-07
2.36526e-07
2.36568e-07
2.36495e-07
2.78658e-07
2.78789e-07
2.784e-07
2.36496e-07
2.3658e-07
2.3651e-07
2.36571e-07
2.78876e-07
2.78584e-07
2.36455e-07
2.36662e-07
2.36476e-07
2.3663e-07
2.36558e-07
2.36511e-07
2.36526e-07
2.7898e-07
2.78544e-07
2.365e-07
2.36553e-07
2.36487e-07
2.78489e-07
2.78765e-07
2.78413e-07
2.36514e-07
2.3659e-07
2.36491e-07
2.36576e-07
2.78946e-07
2.78692e-07
2.36482e-07
2.36643e-07
2.36459e-07
2.36622e-07
2.36532e-07
2.36553e-07
2.36525e-07
2.78875e-07
2.78532e-07
2.36486e-07
2.36511e-07
2.36473e-07
2.78446e-07
2.78751e-07
2.78414e-07
2.36492e-07
2.3659e-07
2.36474e-07
2.36574e-07
2.79062e-07
2.787e-07
2.36463e-07
2.36633e-07
2.36422e-07
2.36594e-07
2.36527e-07
2.36517e-07
2.36527e-07
2.78888e-07
2.78536e-07
2.36519e-07
2.36502e-07
2.36509e-07
2.78532e-07
2.7876e-07
2.78374e-07
2.36477e-07
2.36582e-07
2.36467e-07
2.36548e-07
2.7904e-07
2.7862e-07
2.36433e-07
2.36631e-07
2.36403e-07
2.36585e-07
2.36537e-07
2.36516e-07
2.36537e-07
2.78862e-07
2.7844e-07
2.36527e-07
2.36459e-07
2.36494e-07
2.7858e-07
2.78758e-07
2.78385e-07
2.36472e-07
2.3655e-07
2.36468e-07
2.36529e-07
2.78945e-07
2.78442e-07
2.36408e-07
2.36616e-07
2.36406e-07
2.36572e-07
2.36548e-07
2.36497e-07
2.3654e-07
2.78762e-07
2.78413e-07
2.36489e-07
2.36471e-07
2.3649e-07
2.78548e-07
2.78719e-07
2.7835e-07
2.3647e-07
2.36538e-07
2.36453e-07
2.36521e-07
2.78792e-07
2.78485e-07
2.36448e-07
2.36586e-07
2.36434e-07
2.36555e-07
2.36559e-07
2.36503e-07
2.36566e-07
2.78788e-07
2.78499e-07
2.3649e-07
2.36465e-07
2.36493e-07
2.78653e-07
2.78712e-07
2.7834e-07
2.36449e-07
2.3654e-07
2.36438e-07
2.3653e-07
2.78866e-07
2.78553e-07
2.36452e-07
2.36575e-07
2.36458e-07
2.36573e-07
2.36576e-07
2.3652e-07
2.36602e-07
2.78823e-07
2.78498e-07
2.36532e-07
2.36462e-07
2.3656e-07
2.79099e-07
2.78721e-07
2.78501e-07
2.3645e-07
2.36538e-07
2.36491e-07
2.36529e-07
2.78954e-07
2.78627e-07
2.36455e-07
2.3658e-07
2.36482e-07
2.3661e-07
2.36612e-07
2.36525e-07
2.36593e-07
2.78869e-07
2.7845e-07
2.36569e-07
2.36456e-07
2.36535e-07
2.788e-07
2.78883e-07
2.78501e-07
2.36534e-07
2.36535e-07
2.36498e-07
2.36509e-07
2.78976e-07
2.78559e-07
2.36515e-07
2.36617e-07
2.36518e-07
2.36639e-07
2.36606e-07
2.36538e-07
2.3658e-07
2.78813e-07
2.78543e-07
2.36542e-07
2.36454e-07
2.36512e-07
2.79017e-07
2.78893e-07
2.78574e-07
2.36498e-07
2.36524e-07
2.36477e-07
2.36515e-07
2.78892e-07
2.78408e-07
2.36561e-07
2.36687e-07
2.36536e-07
2.36652e-07
2.36594e-07
2.36505e-07
2.36578e-07
2.78885e-07
2.78671e-07
2.36521e-07
2.36467e-07
2.36503e-07
2.78806e-07
2.78954e-07
2.7849e-07
2.3648e-07
2.36516e-07
2.36465e-07
2.36489e-07
2.78782e-07
2.78415e-07
2.36539e-07
2.36654e-07
2.36512e-07
2.36633e-07
2.36575e-07
2.36483e-07
2.36566e-07
2.79019e-07
2.78705e-07
2.36518e-07
2.36497e-07
2.36494e-07
2.78609e-07
2.78817e-07
2.78395e-07
2.36494e-07
2.36491e-07
2.36483e-07
2.36478e-07
2.78744e-07
2.78337e-07
2.36523e-07
2.36637e-07
2.36503e-07
2.36619e-07
2.36567e-07
2.36464e-07
2.36559e-07
2.79066e-07
2.78658e-07
2.36492e-07
2.3649e-07
2.36493e-07
2.79035e-07
2.78754e-07
2.78409e-07
2.36491e-07
2.36494e-07
2.36495e-07
2.36485e-07
2.78723e-07
2.78346e-07
2.36518e-07
2.36618e-07
2.36482e-07
2.36609e-07
2.36559e-07
2.36443e-07
2.3653e-07
2.78978e-07
2.7855e-07
2.36494e-07
2.36464e-07
2.36426e-07
2.78661e-07
2.78778e-07
2.78412e-07
2.36496e-07
2.36517e-07
2.36488e-07
2.36505e-07
2.7871e-07
2.78389e-07
2.36491e-07
2.3663e-07
2.36475e-07
2.36621e-07
2.36534e-07
2.36477e-07
2.36545e-07
2.78934e-07
2.786e-07
2.36437e-07
2.36464e-07
2.36422e-07
2.78947e-07
2.78767e-07
2.78462e-07
2.36495e-07
2.36503e-07
2.36484e-07
2.36492e-07
2.7879e-07
2.78429e-07
2.36477e-07
2.36647e-07
2.36504e-07
2.36601e-07
2.36547e-07
2.36474e-07
2.3657e-07
2.78961e-07
2.78606e-07
2.3644e-07
2.36452e-07
2.36441e-07
2.78719e-07
2.78843e-07
2.78571e-07
2.36496e-07
2.365e-07
2.36499e-07
2.36511e-07
2.78808e-07
2.78458e-07
2.36503e-07
2.36614e-07
2.36509e-07
2.36606e-07
2.36586e-07
2.36471e-07
2.36576e-07
2.78978e-07
2.78657e-07
2.36455e-07
2.36508e-07
2.36488e-07
2.79063e-07
2.78911e-07
2.78603e-07
2.36514e-07
2.36521e-07
2.36536e-07
2.36538e-07
2.78834e-07
2.78559e-07
2.36563e-07
2.36601e-07
2.36539e-07
2.366e-07
2.36577e-07
2.36488e-07
2.36582e-07
2.79002e-07
2.78651e-07
2.36493e-07
2.36517e-07
2.36512e-07
2.78826e-07
2.78952e-07
2.78509e-07
2.36549e-07
2.36544e-07
2.366e-07
2.36591e-07
2.78919e-07
2.78612e-07
2.36539e-07
2.36649e-07
2.36523e-07
2.36639e-07
2.36592e-07
2.36515e-07
2.36565e-07
2.79007e-07
2.78692e-07
2.36517e-07
2.36527e-07
2.36532e-07
2.78639e-07
5.35662e-07
5.35601e-07
5.35654e-07
5.35654e-07
5.34631e-07
5.3551e-07
5.33957e-07
5.35655e-07
5.34631e-07
5.3551e-07
5.35655e-07
5.3327e-07
5.3526e-07
5.35829e-07
5.35161e-07
1.10568e-06
3.86302e-06
9.39556e-07
4.59609e-06
1.26361e-05
1.66994e-05
1.10581e-06
3.87158e-06
9.39577e-07
4.60336e-06
4.95568e-07
4.95568e-07
4.95562e-07
4.57248e-07
4.57255e-07
4.57247e-07
4.57261e-07
5.43479e-07
1.24053e-06
4.9557e-07
4.85634e-07
5.26007e-07
1.23059e-06
4.82317e-07
1.26615e-05
1.67139e-05
5.43419e-07
4.95574e-07
1.27724e-06
4.85651e-07
5.25989e-07
4.82317e-07
1.23315e-06
2.55279e-06
2.54859e-06
4.84299e-07
2.3877e-06
2.38572e-06
1.42751e-06
5.59772e-06
1.32975e-06
6.14461e-06
2.13538e-05
2.31516e-05
1.42787e-06
5.59406e-06
1.32988e-06
6.13909e-06
4.45588e-07
4.4558e-07
4.45601e-07
4.13574e-07
4.13588e-07
4.13586e-07
4.13594e-07
5.87461e-07
1.20895e-06
4.46486e-07
4.44569e-07
5.74528e-07
1.21491e-06
4.35761e-07
2.13612e-05
2.31591e-05
5.87297e-07
4.46468e-07
1.20692e-06
4.44547e-07
5.74264e-07
4.35747e-07
1.21331e-06
2.30898e-06
2.30892e-06
4.53788e-07
2.34511e-06
2.34643e-06
1.65853e-06
6.93007e-06
1.59214e-06
7.32903e-06
2.46627e-05
2.49431e-05
1.65841e-06
6.92501e-06
1.59178e-06
7.32626e-06
4.03787e-07
4.03785e-07
4.03787e-07
3.76729e-07
3.76753e-07
3.76749e-07
3.76747e-07
6.15426e-07
1.24952e-06
4.06621e-07
4.10925e-07
6.0821e-07
1.27228e-06
3.97823e-07
2.46671e-05
2.49467e-05
6.15386e-07
4.06615e-07
1.25041e-06
4.10919e-07
6.08317e-07
3.97819e-07
1.2714e-06
2.46075e-06
2.46129e-06
4.30339e-07
2.51982e-06
2.51923e-06
1.80698e-06
7.85366e-06
1.76789e-06
8.1046e-06
2.47364e-05
2.44187e-05
1.80771e-06
7.85481e-06
1.76777e-06
8.10798e-06
3.68402e-07
3.68396e-07
3.68397e-07
3.4524e-07
3.45251e-07
3.45247e-07
3.45251e-07
6.25711e-07
1.31795e-06
3.73547e-07
3.81838e-07
6.2432e-07
1.33701e-06
3.66115e-07
2.47394e-05
2.4423e-05
6.25718e-07
3.73543e-07
1.31818e-06
3.81839e-07
6.24328e-07
3.66114e-07
1.33719e-06
2.6238e-06
2.62463e-06
4.08483e-07
2.66935e-06
2.67013e-06
1.88927e-06
8.4007e-06
1.86866e-06
8.53188e-06
2.36937e-05
2.32566e-05
1.88939e-06
8.40453e-06
1.868e-06
8.53566e-06
3.3804e-07
3.38036e-07
3.38041e-07
3.1797e-07
3.17968e-07
3.17968e-07
3.1797e-07
6.21434e-07
1.37737e-06
3.45285e-07
3.56043e-07
6.24636e-07
1.39112e-06
3.38838e-07
2.36961e-05
2.32599e-05
6.21424e-07
3.45284e-07
1.37698e-06
3.56048e-07
6.24655e-07
3.38839e-07
1.39258e-06
2.75906e-06
2.7585e-06
3.86739e-07
2.80147e-06
2.80164e-06
1.9265e-06
8.66376e-06
1.91755e-06
8.71706e-06
2.25063e-05
2.21122e-05
1.92679e-06
8.6668e-06
1.91801e-06
8.7198e-06
3.1166e-07
3.1166e-07
3.11661e-07
2.94063e-07
2.94055e-07
2.94058e-07
2.94055e-07
6.08276e-07
1.42092e-06
3.2052e-07
3.32778e-07
6.14381e-07
1.43184e-06
3.14812e-07
2.25077e-05
2.21148e-05
6.08277e-07
3.2052e-07
1.42046e-06
3.32785e-07
6.14403e-07
3.14815e-07
1.4308e-06
2.89412e-06
2.89564e-06
3.65402e-07
2.94349e-06
2.94334e-06
1.94574e-06
8.75605e-06
1.94127e-06
8.76647e-06
2.14805e-05
2.1168e-05
1.94582e-06
8.75826e-06
1.94134e-06
8.76866e-06
2.88472e-07
2.88474e-07
2.88474e-07
2.72895e-07
2.72885e-07
2.72889e-07
2.72885e-07
5.91465e-07
1.45504e-06
2.98418e-07
3.11629e-07
5.98464e-07
1.46475e-06
2.933e-07
2.14819e-05
2.11705e-05
5.9144e-07
2.98419e-07
1.45638e-06
3.1164e-07
5.98565e-07
2.93305e-07
1.46489e-06
3.0486e-06
3.05056e-06
3.44964e-07
3.104e-06
3.1052e-06
1.96254e-06
8.76615e-06
1.95748e-06
8.76279e-06
2.0685e-05
2.04709e-05
1.96304e-06
8.76785e-06
1.95752e-06
8.76473e-06
2.67895e-07
2.67898e-07
2.67897e-07
2.54e-07
2.53989e-07
2.53994e-07
2.5399e-07
5.75503e-07
1.4914e-06
2.78472e-07
2.9246e-07
5.81558e-07
1.50539e-06
2.73865e-07
2.06862e-05
2.04729e-05
5.75509e-07
2.78474e-07
1.49237e-06
2.92469e-07
5.81534e-07
2.73868e-07
1.50371e-06
3.23018e-06
3.23088e-06
3.26302e-07
3.29694e-06
3.29819e-06
1.9877e-06
8.75017e-06
1.97906e-06
8.7404e-06
2.01737e-05
2.00657e-05
1.98847e-06
8.75161e-06
1.97917e-06
8.74207e-06
2.49496e-07
2.49499e-07
2.49498e-07
2.37111e-07
2.37115e-07
2.37117e-07
2.37111e-07
5.65949e-07
1.53796e-06
2.60477e-07
2.75525e-07
5.68994e-07
1.55676e-06
2.56399e-07
2.01748e-05
2.00668e-05
5.66001e-07
2.6048e-07
1.53862e-06
2.75517e-07
5.69026e-07
2.56402e-07
1.5572e-06
3.43587e-06
3.43689e-06
3.10836e-07
3.49473e-06
3.49545e-06
2.01356e-06
8.71759e-06
2.00634e-06
8.70581e-06
1.99067e-05
1.9851e-05
2.01445e-06
8.71849e-06
2.00715e-06
8.70835e-06
2.33134e-07
2.33132e-07
2.3313e-07
2.22622e-07
2.22676e-07
2.22669e-07
2.22668e-07
5.61592e-07
1.588e-06
2.44635e-07
2.61269e-07
5.63604e-07
1.59441e-06
2.41192e-07
1.99091e-05
1.98536e-05
5.61569e-07
2.44631e-07
1.58947e-06
2.61225e-07
5.63684e-07
2.41193e-07
1.59725e-06
3.57149e-06
3.57217e-06
2.99332e-07
3.59864e-06
3.60032e-06
2.01909e-06
8.68994e-06
2.02046e-06
8.68617e-06
1.97774e-05
1.9763e-05
2.02001e-06
8.69467e-06
2.0207e-06
8.69376e-06
2.19451e-07
2.1944e-07
2.19442e-07
2.11713e-07
2.11811e-07
2.11794e-07
2.11801e-07
5.55769e-07
1.61186e-06
2.31505e-07
2.50135e-07
5.58638e-07
1.61797e-06
2.28941e-07
1.97765e-05
1.97612e-05
5.55617e-07
2.31498e-07
1.6116e-06
2.50039e-07
5.58513e-07
2.2893e-07
1.61764e-06
3.6316e-06
3.62969e-06
2.90425e-07
3.64459e-06
3.6394e-06
2.01834e-06
8.6884e-06
2.01971e-06
8.68977e-06
1.97418e-05
1.97375e-05
2.01895e-06
8.69504e-06
2.02051e-06
8.69422e-06
2.09665e-07
2.0965e-07
2.09656e-07
2.05075e-07
2.05189e-07
2.05172e-07
2.05189e-07
5.50808e-07
1.62588e-06
2.2205e-07
2.42708e-07
5.52783e-07
1.62679e-06
2.20523e-07
1.97425e-05
1.97372e-05
5.50331e-07
2.22038e-07
1.62586e-06
2.4266e-07
5.5294e-07
2.20515e-07
1.62716e-06
3.66984e-06
3.675e-06
2.85012e-07
3.67778e-06
3.67862e-06
2.01844e-06
8.68662e-06
2.01932e-06
8.68302e-06
1.97276e-05
1.97244e-05
2.0191e-06
8.6875e-06
2.0199e-06
8.68139e-06
2.04068e-07
2.04067e-07
2.04071e-07
2.01901e-07
2.01989e-07
2.01984e-07
2.01997e-07
5.48567e-07
1.63128e-06
2.16542e-07
2.38824e-07
5.4958e-07
1.6315e-06
2.15943e-07
1.97268e-05
1.9725e-05
5.48419e-07
2.16529e-07
1.6317e-06
2.38857e-07
5.49415e-07
2.1593e-07
1.63165e-06
3.69699e-06
3.69904e-06
2.80712e-07
3.70002e-06
3.69921e-06
2.02101e-06
8.68052e-06
2.02101e-06
8.67742e-06
1.97209e-05
1.97216e-05
2.02088e-06
8.67821e-06
2.02098e-06
8.67559e-06
2.01632e-07
2.01633e-07
2.01638e-07
2.00846e-07
2.00872e-07
2.00868e-07
2.0088e-07
5.48005e-07
1.63345e-06
2.14132e-07
2.37228e-07
5.48427e-07
1.63188e-06
2.13962e-07
1.97207e-05
1.97209e-05
5.47485e-07
2.14106e-07
1.63323e-06
2.37217e-07
5.4797e-07
2.1394e-07
1.63174e-06
3.70132e-06
3.69616e-06
2.7966e-07
3.69144e-06
3.69447e-06
2.02174e-06
8.67677e-06
2.02276e-06
8.6767e-06
1.97185e-05
1.97191e-05
2.02023e-06
8.67429e-06
2.02179e-06
8.67321e-06
2.00834e-07
2.00842e-07
2.00847e-07
2.00543e-07
2.00607e-07
2.0058e-07
2.00613e-07
5.47299e-07
1.63248e-06
2.13348e-07
2.36731e-07
5.4779e-07
1.63084e-06
2.13377e-07
1.97217e-05
1.97239e-05
5.47179e-07
2.13324e-07
1.63217e-06
2.36697e-07
5.47587e-07
2.13307e-07
1.63047e-06
3.70409e-06
3.69661e-06
2.79102e-07
3.70004e-06
3.69348e-06
2.0211e-06
8.67696e-06
2.02238e-06
8.67566e-06
1.97178e-05
1.97167e-05
2.01914e-06
8.67506e-06
2.02038e-06
8.67498e-06
2.00594e-07
2.0059e-07
2.00606e-07
2.00468e-07
2.00499e-07
2.0048e-07
2.005e-07
5.46637e-07
1.63136e-06
2.13104e-07
2.36561e-07
5.4712e-07
1.62975e-06
2.13151e-07
1.97252e-05
1.97269e-05
5.46512e-07
2.13101e-07
1.63111e-06
2.36545e-07
5.47011e-07
2.13152e-07
1.62968e-06
3.69837e-06
3.69272e-06
2.78776e-07
3.69609e-06
3.69153e-06
2.0197e-06
8.67481e-06
2.02162e-06
8.67201e-06
1.97115e-05
1.97117e-05
2.0183e-06
8.67475e-06
2.01967e-06
8.67463e-06
2.00516e-07
2.00508e-07
2.00518e-07
2.00466e-07
2.00462e-07
2.0046e-07
2.00471e-07
5.46209e-07
1.63081e-06
2.13032e-07
2.3652e-07
5.46652e-07
1.62963e-06
2.13043e-07
1.97281e-05
1.97306e-05
5.46096e-07
2.13005e-07
1.63079e-06
2.36518e-07
5.46426e-07
2.13096e-07
1.62974e-06
3.69581e-06
3.6963e-06
2.78627e-07
3.69279e-06
3.69502e-06
2.0155e-06
8.67476e-06
2.01714e-06
8.67494e-06
1.97146e-05
1.97176e-05
2.01506e-06
8.67538e-06
2.01668e-06
8.67566e-06
2.00469e-07
2.00463e-07
2.00471e-07
2.00452e-07
2.00447e-07
2.00449e-07
2.00464e-07
5.45981e-07
1.63122e-06
2.13012e-07
2.36489e-07
5.46285e-07
1.63007e-06
2.13023e-07
1.97318e-05
1.97334e-05
5.46169e-07
2.13012e-07
1.63144e-06
2.36491e-07
5.46445e-07
2.13036e-07
1.6304e-06
3.69129e-06
3.6948e-06
2.79139e-07
3.69079e-06
3.69458e-06
2.01684e-06
8.67545e-06
2.01707e-06
8.67282e-06
1.97168e-05
1.97154e-05
2.01379e-06
8.67309e-06
2.01525e-06
8.67378e-06
2.00465e-07
2.00467e-07
2.00467e-07
2.00449e-07
2.00447e-07
2.00454e-07
2.00466e-07
5.45488e-07
1.63157e-06
2.12993e-07
2.36471e-07
5.45935e-07
1.63053e-06
2.13e-07
1.97355e-05
1.97386e-05
5.46134e-07
2.13021e-07
1.6316e-06
2.36483e-07
5.46387e-07
2.13022e-07
1.63032e-06
3.69074e-06
3.69077e-06
2.78805e-07
3.68655e-06
3.69075e-06
2.01968e-06
8.67473e-06
2.01993e-06
8.67559e-06
1.97134e-05
1.97132e-05
2.01264e-06
8.67644e-06
2.01422e-06
8.67703e-06
2.00447e-07
2.00453e-07
2.00468e-07
2.00449e-07
2.00449e-07
2.00456e-07
2.00466e-07
5.45276e-07
1.63193e-06
2.12976e-07
2.36451e-07
5.45559e-07
1.63072e-06
2.13005e-07
1.974e-05
1.97415e-05
5.46084e-07
2.13017e-07
1.63172e-06
2.36501e-07
5.46392e-07
2.13021e-07
1.63037e-06
3.69578e-06
3.69567e-06
2.79377e-07
3.69439e-06
3.6905e-06
2.02012e-06
8.67636e-06
2.02108e-06
8.67616e-06
1.97118e-05
1.97132e-05
2.01314e-06
8.67915e-06
2.01409e-06
8.67934e-06
2.00459e-07
2.00463e-07
2.0047e-07
2.00448e-07
2.00448e-07
2.00468e-07
2.00471e-07
5.45414e-07
1.63182e-06
2.12983e-07
2.36467e-07
5.45605e-07
1.63059e-06
2.13006e-07
1.97428e-05
1.97444e-05
5.4628e-07
2.13018e-07
1.63153e-06
2.3655e-07
5.46393e-07
2.13026e-07
1.63045e-06
3.68805e-06
3.69607e-06
2.79625e-07
3.68485e-06
3.69173e-06
2.02002e-06
8.67605e-06
2.02103e-06
8.67496e-06
1.97099e-05
1.97093e-05
2.01503e-06
8.67947e-06
2.01476e-06
8.67956e-06
2.00461e-07
2.00474e-07
2.00476e-07
2.00445e-07
2.00445e-07
2.00467e-07
2.00469e-07
5.45639e-07
1.63181e-06
2.13024e-07
2.36511e-07
5.45797e-07
1.63046e-06
2.13026e-07
1.97443e-05
1.97455e-05
5.46295e-07
2.13028e-07
1.63195e-06
2.36584e-07
5.46642e-07
2.13042e-07
1.63086e-06
3.6913e-06
3.69224e-06
2.79175e-07
3.69195e-06
3.6936e-06
2.01995e-06
8.67415e-06
2.02105e-06
8.67443e-06
1.97086e-05
1.97114e-05
2.01844e-06
8.68047e-06
2.01841e-06
8.6799e-06
2.00466e-07
2.00476e-07
2.00483e-07
2.00436e-07
2.00444e-07
2.00465e-07
2.00462e-07
5.45396e-07
1.63162e-06
2.13011e-07
2.36512e-07
5.45766e-07
1.63038e-06
2.13002e-07
1.97451e-05
1.97461e-05
5.46188e-07
2.13035e-07
1.63221e-06
2.36589e-07
5.46352e-07
2.13038e-07
1.63112e-06
3.69326e-06
3.69535e-06
2.7888e-07
3.6886e-06
3.69642e-06
2.01916e-06
8.67257e-06
2.02055e-06
8.67242e-06
1.97137e-05
1.97148e-05
2.01909e-06
8.67853e-06
2.02002e-06
8.67831e-06
2.00446e-07
2.0047e-07
2.00474e-07
2.00444e-07
2.00434e-07
2.0046e-07
2.00454e-07
5.45387e-07
1.63175e-06
2.12994e-07
2.36502e-07
5.45567e-07
1.63081e-06
2.12993e-07
1.97455e-05
1.97465e-05
5.46473e-07
2.13019e-07
1.6327e-06
2.36574e-07
5.46609e-07
2.13034e-07
1.63156e-06
3.69665e-06
3.69826e-06
2.79224e-07
3.69286e-06
3.69581e-06
2.01824e-06
8.67315e-06
2.01953e-06
8.67375e-06
1.97134e-05
1.97144e-05
2.0187e-06
8.67686e-06
2.01985e-06
8.67926e-06
2.00451e-07
2.0048e-07
2.00474e-07
2.0043e-07
2.00439e-07
2.00464e-07
2.00452e-07
5.45732e-07
1.6325e-06
2.12977e-07
2.36489e-07
5.45767e-07
1.6314e-06
2.12982e-07
1.97457e-05
1.97465e-05
5.46521e-07
2.13033e-07
1.63274e-06
2.36568e-07
5.46713e-07
2.13046e-07
1.63133e-06
3.70306e-06
3.69603e-06
2.78908e-07
3.70201e-06
3.69181e-06
2.01779e-06
8.67526e-06
2.01897e-06
8.67493e-06
1.97115e-05
1.97102e-05
2.01801e-06
8.67918e-06
2.01921e-06
8.67893e-06
2.00462e-07
2.00489e-07
2.00457e-07
2.00442e-07
2.00446e-07
2.00467e-07
2.00451e-07
5.46158e-07
1.63255e-06
2.12974e-07
2.36478e-07
5.46289e-07
1.63126e-06
2.13003e-07
1.97458e-05
1.97467e-05
5.4669e-07
2.13053e-07
1.6322e-06
2.3658e-07
5.46992e-07
2.1306e-07
1.63087e-06
3.69871e-06
3.6966e-06
2.78905e-07
3.69227e-06
3.6961e-06
2.01749e-06
8.67487e-06
2.01855e-06
8.67355e-06
1.9706e-05
1.97069e-05
2.01374e-06
8.67942e-06
2.01717e-06
8.67856e-06
2.00446e-07
2.00484e-07
2.00473e-07
2.00444e-07
2.00447e-07
2.00468e-07
2.00443e-07
5.46668e-07
1.6324e-06
2.13009e-07
2.36473e-07
5.46803e-07
1.63101e-06
2.13022e-07
1.97458e-05
1.97466e-05
5.46551e-07
2.1305e-07
1.63181e-06
2.36563e-07
5.46836e-07
2.13057e-07
1.63025e-06
3.69014e-06
3.69695e-06
2.78741e-07
3.68655e-06
3.69133e-06
2.01701e-06
8.6735e-06
2.01847e-06
8.67287e-06
1.97065e-05
1.97068e-05
2.01244e-06
8.6791e-06
2.0132e-06
8.67951e-06
2.0045e-07
2.00468e-07
2.00479e-07
2.0044e-07
2.0045e-07
2.00466e-07
2.00447e-07
5.4651e-07
1.63215e-06
2.13017e-07
2.36477e-07
5.4691e-07
1.63105e-06
2.13026e-07
1.97457e-05
1.97466e-05
5.46294e-07
2.13025e-07
1.63091e-06
2.36536e-07
5.46599e-07
2.13036e-07
1.62957e-06
3.68592e-06
3.69349e-06
2.79193e-07
3.69003e-06
3.68891e-06
2.01472e-06
8.67258e-06
2.01693e-06
8.67279e-06
1.97082e-05
1.97092e-05
2.01449e-06
8.68224e-06
2.0146e-06
8.68117e-06
2.00454e-07
2.00466e-07
2.00474e-07
2.00442e-07
2.00446e-07
2.00471e-07
2.00454e-07
5.46153e-07
1.63247e-06
2.13015e-07
2.36484e-07
5.46505e-07
1.63121e-06
2.13017e-07
1.97458e-05
1.97467e-05
5.46294e-07
2.13035e-07
1.63084e-06
2.36566e-07
5.46571e-07
2.13041e-07
1.62979e-06
3.69758e-06
3.70199e-06
2.78788e-07
3.69683e-06
3.69594e-06
2.01382e-06
8.67448e-06
2.01436e-06
8.67418e-06
1.97058e-05
1.97063e-05
2.01797e-06
8.67906e-06
2.01742e-06
8.6776e-06
2.0046e-07
2.00474e-07
2.00448e-07
2.00442e-07
2.0045e-07
2.00466e-07
2.0045e-07
5.46087e-07
1.63229e-06
2.13011e-07
2.3652e-07
5.46271e-07
1.6308e-06
2.1303e-07
1.97461e-05
1.9747e-05
5.4627e-07
2.13037e-07
1.63122e-06
2.36574e-07
5.4652e-07
2.13052e-07
1.6301e-06
3.69318e-06
3.69587e-06
2.78589e-07
3.6893e-06
3.69373e-06
2.01711e-06
8.67457e-06
2.01677e-06
8.6745e-06
1.97069e-05
1.9709e-05
2.01985e-06
8.67978e-06
2.02045e-06
8.68066e-06
2.00477e-07
2.0047e-07
2.00454e-07
2.00436e-07
2.00464e-07
2.00457e-07
2.00457e-07
5.4658e-07
1.63136e-06
2.13032e-07
2.36554e-07
5.4666e-07
1.62994e-06
2.13055e-07
1.9746e-05
1.97468e-05
5.4628e-07
2.1301e-07
1.63134e-06
2.36524e-07
5.46493e-07
2.13015e-07
1.63017e-06
3.68906e-06
3.69189e-06
2.78502e-07
3.68689e-06
3.69284e-06
2.01762e-06
8.67262e-06
2.01867e-06
8.67316e-06
1.97104e-05
1.97108e-05
2.01992e-06
8.68006e-06
2.02097e-06
8.67886e-06
2.00483e-07
2.00467e-07
2.0046e-07
2.00441e-07
2.00455e-07
2.0045e-07
2.00451e-07
5.46577e-07
1.63127e-06
2.13046e-07
2.36544e-07
5.46975e-07
1.63019e-06
2.13046e-07
1.9746e-05
1.97469e-05
5.46398e-07
2.13007e-07
1.63114e-06
2.36506e-07
5.46558e-07
2.13008e-07
1.62987e-06
3.6811e-06
3.69646e-06
2.78534e-07
3.67918e-06
3.69625e-06
2.01409e-06
8.67724e-06
2.01627e-06
8.6767e-06
1.97084e-05
1.97076e-05
2.01921e-06
8.67749e-06
2.0206e-06
8.67669e-06
2.00475e-07
2.00473e-07
2.00459e-07
2.00427e-07
2.00459e-07
2.00455e-07
2.00449e-07
5.4652e-07
1.63162e-06
2.13015e-07
2.36516e-07
5.4674e-07
1.63043e-06
2.13022e-07
1.97458e-05
1.97466e-05
5.46371e-07
2.13004e-07
1.63107e-06
2.36504e-07
5.46682e-07
2.13007e-07