/*--------------------------------*- C++ -*----------------------------------*\
| =========                 |                                                 |
| \\      /  F ield         | OpenFOAM: The Open Source CFD Toolbox           |
|  \\    /   O peration     | Version:  v2012                                 |
|   \\  /    A nd           | Website:  www.openfoam.com                      |
|    \\/     M anipulation  |                                                 |
\*---------------------------------------------------------------------------*/
FoamFile
{
    version     2.0;
    format      ascii;
    class       volScalarField;
    location    "50";
    object      k;
}
// * * * * * * * * * * * * * * * * * * * * * * * * * * * * * * * * * * * * * //

dimensions      [0 2 -2 0 0 0 0];


internalField   nonuniform List<scalar> 
85864
(
3.58934e-05
3.58916e-05
3.58913e-05
3.59957e-05
3.39295e-05
3.38867e-05
3.38871e-05
3.3959e-05
3.21572e-05
3.20011e-05
3.20017e-05
3.19433e-05
3.05332e-05
3.02202e-05
3.02207e-05
2.99765e-05
2.903e-05
2.8544e-05
2.85443e-05
2.81126e-05
2.76319e-05
2.69793e-05
2.69793e-05
2.63864e-05
2.63281e-05
2.55264e-05
2.55262e-05
2.48068e-05
2.51098e-05
2.41845e-05
2.41843e-05
2.33909e-05
2.39729e-05
2.29834e-05
2.29825e-05
2.22607e-05
2.29405e-05
2.19873e-05
2.19837e-05
2.14874e-05
2.20901e-05
2.12315e-05
2.12212e-05
2.09413e-05
2.15086e-05
2.07322e-05
2.0724e-05
2.05176e-05
2.12007e-05
2.04834e-05
2.04819e-05
2.02329e-05
2.10766e-05
2.04008e-05
2.03963e-05
2.01321e-05
2.10365e-05
2.03813e-05
2.03741e-05
2.01776e-05
2.10257e-05
2.03752e-05
2.03702e-05
2.01923e-05
2.10233e-05
2.03738e-05
2.03709e-05
2.0142e-05
2.10227e-05
2.03722e-05
2.03702e-05
2.01445e-05
2.10227e-05
2.03723e-05
2.03699e-05
2.0108e-05
2.10228e-05
2.03689e-05
2.037e-05
2.01829e-05
2.10226e-05
2.03701e-05
2.03743e-05
2.01811e-05
2.10224e-05
2.03741e-05
2.03776e-05
2.01323e-05
2.10222e-05
2.03772e-05
2.0378e-05
2.02121e-05
2.10225e-05
2.03749e-05
2.03747e-05
2.01537e-05
2.10227e-05
2.03714e-05
2.03744e-05
2.01781e-05
2.10227e-05
2.03722e-05
2.03752e-05
2.01988e-05
2.10226e-05
2.03713e-05
2.03769e-05
2.02318e-05
2.10219e-05
2.03718e-05
2.03775e-05
2.0187e-05
2.10216e-05
2.0373e-05
2.03783e-05
2.01485e-05
2.10213e-05
2.03755e-05
2.038e-05
2.01524e-05
2.10213e-05
2.03795e-05
2.0376e-05
2.01357e-05
2.10216e-05
2.03809e-05
2.03738e-05
2.01493e-05
2.10212e-05
2.03782e-05
2.0374e-05
2.01624e-05
2.10211e-05
2.0376e-05
2.03715e-05
2.01597e-05
2.1021e-05
2.03723e-05
2.03726e-05
2.01456e-05
2.10209e-05
2.03741e-05
2.03735e-05
2.01954e-05
2.1021e-05
2.03752e-05
2.03715e-05
2.01686e-05
2.10219e-05
2.03761e-05
2.037e-05
2.01822e-05
2.10235e-05
2.0376e-05
2.037e-05
2.0163e-05
2.1023e-05
2.03728e-05
2.03729e-05
2.01658e-05
2.10227e-05
2.03706e-05
2.03753e-05
2.01789e-05
2.10226e-05
2.03679e-05
2.0373e-05
2.01597e-05
2.10224e-05
2.03674e-05
2.03707e-05
2.01639e-05
2.10222e-05
2.03702e-05
2.03713e-05
2.01581e-05
2.10222e-05
2.03711e-05
2.03734e-05
2.01688e-05
2.10225e-05
2.03712e-05
2.03746e-05
2.013e-05
2.10234e-05
2.03746e-05
2.03759e-05
2.0158e-05
3.63063e-05
3.62907e-05
3.6291e-05
3.63064e-05
3.62907e-05
3.62909e-05
3.64228e-05
3.64229e-05
3.64229e-05
3.64229e-05
3.62907e-05
3.62906e-05
3.63064e-05
3.62907e-05
3.62907e-05
3.63063e-05
3.59957e-05
3.42673e-05
3.58915e-05
3.58906e-05
3.43749e-05
3.43742e-05
3.59956e-05
3.42666e-05
3.58914e-05
3.5891e-05
3.43755e-05
3.43756e-05
3.58917e-05
3.43748e-05
3.43723e-05
3.59957e-05
3.42673e-05
3.58914e-05
3.43751e-05
3.43755e-05
3.42664e-05
3.39601e-05
3.22579e-05
3.3887e-05
3.38862e-05
3.24651e-05
3.24627e-05
3.39591e-05
3.2255e-05
3.38879e-05
3.38876e-05
3.24656e-05
3.2464e-05
3.38837e-05
3.24623e-05
3.24617e-05
3.396e-05
3.22565e-05
3.38875e-05
3.24627e-05
3.24648e-05
3.22558e-05
3.19455e-05
3.02906e-05
3.20046e-05
3.20013e-05
3.06587e-05
3.06545e-05
3.19423e-05
3.02875e-05
3.20047e-05
3.20028e-05
3.06584e-05
3.06569e-05
3.20006e-05
3.06554e-05
3.06546e-05
3.19439e-05
3.02891e-05
3.20039e-05
3.06559e-05
3.06577e-05
3.02881e-05
2.99785e-05
2.84156e-05
3.02228e-05
3.02187e-05
2.89536e-05
2.89512e-05
2.99757e-05
2.84146e-05
3.02224e-05
3.0221e-05
2.89529e-05
2.89529e-05
3.02189e-05
2.89522e-05
2.89516e-05
2.99772e-05
2.84155e-05
3.02217e-05
2.89525e-05
2.89532e-05
2.84152e-05
2.81126e-05
2.66684e-05
2.85449e-05
2.85429e-05
2.73597e-05
2.7359e-05
2.81119e-05
2.66677e-05
2.8544e-05
2.85442e-05
2.73587e-05
2.73595e-05
2.85432e-05
2.73591e-05
2.73594e-05
2.81127e-05
2.66676e-05
2.85446e-05
2.73592e-05
2.73601e-05
2.66681e-05
2.63854e-05
2.50647e-05
2.69793e-05
2.69787e-05
2.58785e-05
2.58785e-05
2.63862e-05
2.50637e-05
2.69783e-05
2.6979e-05
2.58779e-05
2.58783e-05
2.6979e-05
2.58784e-05
2.58788e-05
2.63864e-05
2.50636e-05
2.69796e-05
2.58783e-05
2.58793e-05
2.50641e-05
2.48055e-05
2.36208e-05
2.55258e-05
2.55255e-05
2.45075e-05
2.45075e-05
2.48072e-05
2.36213e-05
2.55253e-05
2.55253e-05
2.45075e-05
2.45072e-05
2.55257e-05
2.45077e-05
2.45077e-05
2.48067e-05
2.36193e-05
2.55262e-05
2.45075e-05
2.45083e-05
2.36204e-05
2.33916e-05
2.24352e-05
2.41834e-05
2.4183e-05
2.32649e-05
2.3265e-05
2.33918e-05
2.24372e-05
2.41835e-05
2.41828e-05
2.32654e-05
2.32646e-05
2.41833e-05
2.32654e-05
2.32649e-05
2.33928e-05
2.2434e-05
2.41839e-05
2.32647e-05
2.32654e-05
2.24309e-05
2.22689e-05
2.16138e-05
2.29813e-05
2.29811e-05
2.2211e-05
2.22109e-05
2.22687e-05
2.16203e-05
2.29816e-05
2.29806e-05
2.22107e-05
2.22093e-05
2.29803e-05
2.22131e-05
2.22085e-05
2.2267e-05
2.16132e-05
2.29811e-05
2.22103e-05
2.22094e-05
2.15978e-05
2.15003e-05
2.10223e-05
2.19828e-05
2.19826e-05
2.13895e-05
2.13899e-05
2.15083e-05
2.10515e-05
2.19822e-05
2.19801e-05
2.13866e-05
2.13831e-05
2.19791e-05
2.13953e-05
2.13848e-05
2.14985e-05
2.10164e-05
2.19802e-05
2.13871e-05
2.1385e-05
2.10138e-05
2.09423e-05
2.05752e-05
2.12226e-05
2.12229e-05
2.08247e-05
2.08243e-05
2.09662e-05
2.0581e-05
2.12187e-05
2.1214e-05
2.08186e-05
2.08145e-05
2.12176e-05
2.08316e-05
2.08189e-05
2.09345e-05
2.05565e-05
2.12174e-05
2.0822e-05
2.0818e-05
2.05596e-05
2.05117e-05
2.02595e-05
2.07248e-05
2.07237e-05
2.05214e-05
2.05184e-05
2.05304e-05
2.02232e-05
2.07186e-05
2.07142e-05
2.0517e-05
2.05104e-05
2.07194e-05
2.05253e-05
2.05176e-05
2.05089e-05
2.02266e-05
2.07178e-05
2.05216e-05
2.0514e-05
2.02297e-05
2.02307e-05
2.01549e-05
2.0478e-05
2.04755e-05
2.04076e-05
2.04055e-05
2.02046e-05
2.01463e-05
2.0475e-05
2.04677e-05
2.04067e-05
2.03965e-05
2.04758e-05
2.04118e-05
2.04047e-05
2.02225e-05
2.01348e-05
2.0472e-05
2.04097e-05
2.04011e-05
2.01574e-05
2.01695e-05
2.01477e-05
2.03958e-05
2.0395e-05
2.03773e-05
2.03799e-05
2.01824e-05
2.01751e-05
2.03959e-05
2.0385e-05
2.03786e-05
2.03713e-05
2.03937e-05
2.03841e-05
2.03801e-05
2.0155e-05
2.01739e-05
2.03896e-05
2.03771e-05
2.0376e-05
2.01441e-05
2.01856e-05
2.01393e-05
2.03751e-05
2.03786e-05
2.03718e-05
2.03769e-05
2.01943e-05
2.01288e-05
2.03768e-05
2.03702e-05
2.0372e-05
2.03683e-05
2.03791e-05
2.03765e-05
2.03774e-05
2.01454e-05
2.01448e-05
2.03757e-05
2.03709e-05
2.03741e-05
2.01959e-05
2.01449e-05
2.01622e-05
2.03716e-05
2.03771e-05
2.03728e-05
2.03772e-05
2.01647e-05
2.01624e-05
2.03722e-05
2.03684e-05
2.03716e-05
2.03676e-05
2.03777e-05
2.0374e-05
2.03752e-05
2.01725e-05
2.0177e-05
2.03744e-05
2.03709e-05
2.03742e-05
2.01568e-05
2.0176e-05
2.01401e-05
2.03742e-05
2.03762e-05
2.03745e-05
2.03726e-05
2.01493e-05
2.01255e-05
2.03716e-05
2.03681e-05
2.03721e-05
2.03695e-05
2.03744e-05
2.03729e-05
2.03743e-05
2.01655e-05
2.0171e-05
2.03741e-05
2.03708e-05
2.03745e-05
2.01583e-05
2.01285e-05
2.0148e-05
2.03736e-05
2.03726e-05
2.03729e-05
2.03742e-05
2.01267e-05
2.01532e-05
2.03721e-05
2.03698e-05
2.03749e-05
2.03717e-05
2.03745e-05
2.03725e-05
2.03729e-05
2.01506e-05
2.01248e-05
2.03749e-05
2.03702e-05
2.03747e-05
2.01107e-05
2.01554e-05
2.01715e-05
2.03726e-05
2.0375e-05
2.03734e-05
2.03743e-05
2.016e-05
2.01712e-05
2.03758e-05
2.03725e-05
2.03743e-05
2.03737e-05
2.03728e-05
2.03701e-05
2.03724e-05
2.01396e-05
2.01149e-05
2.0374e-05
2.03696e-05
2.03723e-05
2.01723e-05
2.01665e-05
2.01777e-05
2.03737e-05
2.03736e-05
2.03741e-05
2.03753e-05
2.01252e-05
2.0183e-05
2.03742e-05
2.0374e-05
2.03744e-05
2.03754e-05
2.03729e-05
2.03691e-05
2.03742e-05
2.01031e-05
2.017e-05
2.03727e-05
2.03734e-05
2.03745e-05
2.02283e-05
2.0164e-05
2.01532e-05
2.03735e-05
2.03758e-05
2.03729e-05
2.03755e-05
2.01781e-05
2.0163e-05
2.03739e-05
2.03771e-05
2.03728e-05
2.03787e-05
2.03736e-05
2.03735e-05
2.03737e-05
2.01931e-05
2.01689e-05
2.03744e-05
2.03773e-05
2.03743e-05
2.01456e-05
2.01711e-05
2.01628e-05
2.03725e-05
2.03754e-05
2.03717e-05
2.0374e-05
2.01531e-05
2.01738e-05
2.0373e-05
2.03776e-05
2.03742e-05
2.03756e-05
2.03737e-05
2.03765e-05
2.03759e-05
2.01652e-05
2.0163e-05
2.03735e-05
2.03784e-05
2.03724e-05
2.01889e-05
2.01522e-05
2.01535e-05
2.03717e-05
2.0374e-05
2.03724e-05
2.03729e-05
2.01649e-05
2.02005e-05
2.03747e-05
2.03753e-05
2.03764e-05
2.03756e-05
2.03759e-05
2.0376e-05
2.03738e-05
2.01415e-05
2.01421e-05
2.03723e-05
2.03753e-05
2.0371e-05
2.01349e-05
2.01531e-05
2.01461e-05
2.03732e-05
2.03723e-05
2.03737e-05
2.03704e-05
2.01646e-05
2.01546e-05
2.03772e-05
2.03754e-05
2.03766e-05
2.03756e-05
2.03728e-05
2.03709e-05
2.03709e-05
2.01288e-05
2.01609e-05
2.03705e-05
2.03747e-05
2.03688e-05
2.01493e-05
2.01837e-05
2.01589e-05
2.03733e-05
2.03708e-05
2.03747e-05
2.03727e-05
2.0188e-05
2.01549e-05
2.03762e-05
2.03757e-05
2.03747e-05
2.03758e-05
2.03708e-05
2.03731e-05
2.03718e-05
2.01406e-05
2.01508e-05
2.03689e-05
2.0375e-05
2.03711e-05
2.01725e-05
2.01489e-05
2.01966e-05
2.03755e-05
2.03716e-05
2.03746e-05
2.03714e-05
2.01438e-05
2.0151e-05
2.03745e-05
2.0376e-05
2.03735e-05
2.03785e-05
2.03724e-05
2.03713e-05
2.03752e-05
2.01781e-05
2.01527e-05
2.0372e-05
2.0377e-05
2.0376e-05
2.02349e-05
2.01515e-05
2.01723e-05
2.03746e-05
2.03712e-05
2.03733e-05
2.0371e-05
2.01806e-05
2.01857e-05
2.03722e-05
2.03782e-05
2.03705e-05
2.03797e-05
2.03751e-05
2.03716e-05
2.03736e-05
2.0143e-05
2.02175e-05
2.03762e-05
2.0378e-05
2.03752e-05
2.01831e-05
2.01515e-05
2.02041e-05
2.03726e-05
2.03713e-05
2.03722e-05
2.03712e-05
2.0183e-05
2.01924e-05
2.03699e-05
2.03796e-05
2.03706e-05
2.03795e-05
2.03737e-05
2.03729e-05
2.03742e-05
2.02272e-05
2.01615e-05
2.03747e-05
2.03782e-05
2.03727e-05
2.01759e-05
2.01591e-05
2.01674e-05
2.03719e-05
2.03712e-05
2.03699e-05
2.03725e-05
2.01459e-05
2.0183e-05
2.037e-05
2.03798e-05
2.03696e-05
2.038e-05
2.03735e-05
2.03746e-05
2.03735e-05
2.01432e-05
2.01294e-05
2.03719e-05
2.03802e-05
2.03708e-05
2.01512e-05
2.01635e-05
2.01287e-05
2.03696e-05
2.03737e-05
2.03698e-05
2.03766e-05
2.01513e-05
2.01522e-05
2.03693e-05
2.03795e-05
2.03696e-05
2.03762e-05
2.03729e-05
2.03789e-05
2.03703e-05
2.0161e-05
2.01363e-05
2.03709e-05
2.03775e-05
2.03706e-05
2.01277e-05
2.0119e-05
2.01473e-05
2.03697e-05
2.03768e-05
2.03696e-05
2.03776e-05
2.01778e-05
2.01828e-05
2.03703e-05
2.03761e-05
2.03712e-05
2.03748e-05
2.03703e-05
2.03814e-05
2.03704e-05
2.01615e-05
2.01578e-05
2.03703e-05
2.03736e-05
2.03708e-05
2.01762e-05
2.01375e-05
2.01299e-05
2.03692e-05
2.03779e-05
2.0369e-05
2.0379e-05
2.02015e-05
2.01787e-05
2.03703e-05
2.03751e-05
2.037e-05
2.03748e-05
2.03704e-05
2.03793e-05
2.03713e-05
2.0143e-05
2.013e-05
2.03713e-05
2.03739e-05
2.03731e-05
2.01692e-05
2.01382e-05
2.01409e-05
2.0369e-05
2.03785e-05
2.03687e-05
2.03768e-05
2.01664e-05
2.01667e-05
2.03691e-05
2.03748e-05
2.03674e-05
2.03739e-05
2.03718e-05
2.03767e-05
2.0373e-05
2.01262e-05
2.0161e-05
2.03744e-05
2.03728e-05
2.0374e-05
2.01952e-05
2.01488e-05
2.01149e-05
2.03691e-05
2.03759e-05
2.03684e-05
2.03721e-05
2.01827e-05
2.01298e-05
2.03674e-05
2.03732e-05
2.03688e-05
2.03717e-05
2.03732e-05
2.03724e-05
2.03729e-05
2.01485e-05
2.01169e-05
2.03728e-05
2.03716e-05
2.0372e-05
2.0155e-05
2.01046e-05
2.01246e-05
2.03683e-05
2.03723e-05
2.03675e-05
2.03716e-05
2.01265e-05
2.01388e-05
2.03688e-05
2.03715e-05
2.03679e-05
2.03703e-05
2.0373e-05
2.0373e-05
2.03747e-05
2.01151e-05
2.01629e-05
2.03721e-05
2.03737e-05
2.03741e-05
2.01677e-05
2.01109e-05
2.01784e-05
2.0367e-05
2.03716e-05
2.03669e-05
2.03717e-05
2.0153e-05
2.01593e-05
2.03677e-05
2.03706e-05
2.0369e-05
2.03714e-05
2.03765e-05
2.03753e-05
2.03772e-05
2.01829e-05
2.01163e-05
2.03758e-05
2.03711e-05
2.03783e-05
2.01689e-05
2.01492e-05
2.01432e-05
2.03673e-05
2.03721e-05
2.03715e-05
2.03733e-05
2.01531e-05
2.01999e-05
2.03696e-05
2.03716e-05
2.03736e-05
2.03736e-05
2.03773e-05
2.0376e-05
2.03762e-05
2.01368e-05
2.01376e-05
2.03783e-05
2.03706e-05
2.03755e-05
2.01519e-05
2.01677e-05
2.01721e-05
2.03733e-05
2.03724e-05
2.0373e-05
2.03706e-05
2.01638e-05
2.01388e-05
2.03747e-05
2.03746e-05
2.03777e-05
2.03772e-05
2.03761e-05
2.03762e-05
2.03742e-05
2.01364e-05
2.01898e-05
2.03756e-05
2.03698e-05
2.03731e-05
2.01524e-05
2.01694e-05
2.01577e-05
2.0373e-05
2.03708e-05
2.03729e-05
2.03707e-05
2.01425e-05
2.0146e-05
2.03789e-05
2.03789e-05
2.038e-05
2.03792e-05
2.03743e-05
2.03742e-05
2.03754e-05
2.01632e-05
2.01788e-05
2.0373e-05
2.03724e-05
2.03731e-05
2.01896e-05
2.01617e-05
2.01294e-05
2.0373e-05
2.03707e-05
2.03722e-05
2.03694e-05
2.01447e-05
2.01591e-05
2.03789e-05
2.03788e-05
2.03759e-05
2.03773e-05
2.03748e-05
2.03712e-05
2.03736e-05
2.01687e-05
2.01879e-05
2.03731e-05
2.03752e-05
2.03721e-05
2.0145e-05
2.01212e-05
2.01349e-05
2.0372e-05
2.03691e-05
2.03713e-05
2.03688e-05
2.01328e-05
2.01252e-05
2.03758e-05
2.03772e-05
2.03743e-05
2.03756e-05
2.03735e-05
2.0368e-05
2.03737e-05
2.02114e-05
2.01951e-05
2.03723e-05
2.03741e-05
2.03724e-05
2.01902e-05
2.01246e-05
2.01409e-05
2.0371e-05
2.03689e-05
2.03721e-05
2.03689e-05
2.01293e-05
2.01147e-05
2.03732e-05
2.03755e-05
2.03711e-05
2.03743e-05
2.03729e-05
2.03673e-05
2.03695e-05
2.01656e-05
2.01734e-05
2.03713e-05
2.03708e-05
2.03657e-05
2.01391e-05
2.01294e-05
2.01584e-05
2.0372e-05
2.03696e-05
2.03712e-05
2.03704e-05
2.01294e-05
2.01873e-05
2.03708e-05
2.03743e-05
2.03707e-05
2.03758e-05
2.03695e-05
2.03691e-05
2.03692e-05
2.01562e-05
2.01513e-05
2.03654e-05
2.0371e-05
2.03642e-05
2.01556e-05
2.01381e-05
2.01763e-05
2.03711e-05
2.03715e-05
2.0371e-05
2.03708e-05
2.02027e-05
2.01454e-05
2.03708e-05
2.03761e-05
2.03725e-05
2.03757e-05
2.03697e-05
2.0371e-05
2.03711e-05
2.01407e-05
2.01537e-05
2.0364e-05
2.03725e-05
2.03651e-05
2.0184e-05
2.01372e-05
2.01513e-05
2.03712e-05
2.0371e-05
2.03734e-05
2.03719e-05
2.01513e-05
2.01333e-05
2.03737e-05
2.03758e-05
2.03758e-05
2.0376e-05
2.03714e-05
2.03711e-05
2.03706e-05
2.0158e-05
2.01563e-05
2.03671e-05
2.03749e-05
2.03685e-05
2.01383e-05
2.01485e-05
2.01904e-05
2.03741e-05
2.03725e-05
2.03768e-05
2.03734e-05
2.01306e-05
2.01533e-05
2.03759e-05
2.03755e-05
2.03772e-05
2.03757e-05
2.03705e-05
2.0374e-05
2.03714e-05
2.01488e-05
2.01766e-05
2.03682e-05
2.03756e-05
2.03692e-05
2.01609e-05
2.01805e-05
2.01844e-05
2.03772e-05
2.03745e-05
2.03742e-05
2.0378e-05
2.01864e-05
2.01881e-05
2.03777e-05
2.03766e-05
2.03766e-05
2.03757e-05
2.03728e-05
2.0375e-05
2.03729e-05
2.01987e-05
2.01733e-05
2.03708e-05
2.03761e-05
2.03722e-05
2.01555e-05
3.73774e-05
3.73766e-05
3.73771e-05
3.73771e-05
3.73703e-05
3.73778e-05
3.73044e-05
3.73769e-05
3.73703e-05
3.73778e-05
3.73769e-05
3.73069e-05
3.73742e-05
3.72973e-05
3.72966e-05
3.58686e-05
4.08415e-05
3.66068e-05
4.50795e-05
5.50535e-05
6.50814e-05
3.58709e-05
4.09327e-05
3.6607e-05
4.51386e-05
3.58934e-05
3.58934e-05
3.58934e-05
3.43999e-05
3.43999e-05
3.44e-05
3.43999e-05
3.52709e-05
3.56024e-05
3.58933e-05
3.53762e-05
3.60486e-05
3.41337e-05
3.5382e-05
5.52143e-05
6.51148e-05
3.52725e-05
3.58933e-05
3.55592e-05
3.53763e-05
3.60485e-05
3.5382e-05
3.41447e-05
3.66006e-05
3.65832e-05
3.52787e-05
3.40097e-05
3.40278e-05
3.39477e-05
5.13758e-05
3.46735e-05
5.46709e-05
7.67242e-05
8.09572e-05
3.39509e-05
5.1359e-05
3.46732e-05
5.46386e-05
3.39293e-05
3.39294e-05
3.39291e-05
3.25845e-05
3.25842e-05
3.25843e-05
3.25843e-05
3.30427e-05
3.23655e-05
3.3929e-05
3.34051e-05
3.3886e-05
3.14372e-05
3.34668e-05
7.67406e-05
8.09717e-05
3.30456e-05
3.39292e-05
3.2374e-05
3.34055e-05
3.389e-05
3.3467e-05
3.14426e-05
3.15903e-05
3.16435e-05
3.32587e-05
3.08081e-05
3.08332e-05
3.22359e-05
5.92399e-05
3.29173e-05
6.14955e-05
8.44431e-05
8.50845e-05
3.22354e-05
5.9207e-05
3.29151e-05
6.14735e-05
3.21565e-05
3.21566e-05
3.21566e-05
3.09264e-05
3.09256e-05
3.0926e-05
3.0926e-05
3.07791e-05
3.03951e-05
3.2136e-05
3.15459e-05
3.1626e-05
2.97903e-05
3.17079e-05
8.4449e-05
8.50877e-05
3.07806e-05
3.21362e-05
3.03976e-05
3.15464e-05
3.16271e-05
3.1708e-05
2.97966e-05
3.01506e-05
3.01443e-05
3.12632e-05
2.99401e-05
2.99292e-05
3.07425e-05
6.43921e-05
3.13386e-05
6.57552e-05
8.46124e-05
8.38862e-05
3.07417e-05
6.43907e-05
3.13378e-05
6.57667e-05
3.05321e-05
3.05325e-05
3.05323e-05
2.93949e-05
2.93944e-05
2.93948e-05
2.93946e-05
2.85926e-05
2.90674e-05
3.04667e-05
2.97905e-05
2.94019e-05
2.86055e-05
3.00652e-05
8.46122e-05
8.38904e-05
2.85931e-05
3.04669e-05
2.90676e-05
2.97909e-05
2.9403e-05
3.00654e-05
2.86113e-05
2.99151e-05
2.99029e-05
2.93371e-05
3.00294e-05
3.00225e-05
2.95082e-05
6.73474e-05
2.99886e-05
6.80478e-05
8.2215e-05
8.12021e-05
2.95115e-05
6.73634e-05
2.99948e-05
6.80642e-05
2.90294e-05
2.90297e-05
2.90295e-05
2.79715e-05
2.79717e-05
2.79718e-05
2.79719e-05
2.65652e-05
2.8071e-05
2.8899e-05
2.81415e-05
2.7308e-05
2.7761e-05
2.85213e-05
8.22155e-05
8.12051e-05
2.6566e-05
2.88992e-05
2.80783e-05
2.81417e-05
2.73078e-05
2.85213e-05
2.77605e-05
3.04801e-05
3.04788e-05
2.75251e-05
3.0814e-05
3.08124e-05
2.86003e-05
6.87484e-05
2.89457e-05
6.90303e-05
7.94461e-05
7.85168e-05
2.86045e-05
6.87604e-05
2.89443e-05
6.90413e-05
2.76317e-05
2.76318e-05
2.76318e-05
2.66449e-05
2.66455e-05
2.66454e-05
2.66457e-05
2.47491e-05
2.73948e-05
2.74252e-05
2.66048e-05
2.54099e-05
2.71888e-05
2.70704e-05
7.94443e-05
7.85186e-05
2.47498e-05
2.74252e-05
2.73975e-05
2.66048e-05
2.54091e-05
2.70703e-05
2.7194e-05
3.16352e-05
3.16369e-05
2.58469e-05
3.21335e-05
3.21345e-05
2.80526e-05
6.92352e-05
2.82411e-05
6.92915e-05
7.70136e-05
7.62651e-05
2.8059e-05
6.92446e-05
2.82386e-05
6.92977e-05
2.63279e-05
2.63279e-05
2.6328e-05
2.54058e-05
2.54065e-05
2.54063e-05
2.54066e-05
2.31752e-05
2.70025e-05
2.60422e-05
2.51791e-05
2.37425e-05
2.69132e-05
2.57096e-05
7.70122e-05
7.62669e-05
2.31766e-05
2.60421e-05
2.69943e-05
2.5179e-05
2.37416e-05
2.57095e-05
2.69157e-05
3.32485e-05
3.32452e-05
2.43189e-05
3.38743e-05
3.38764e-05
2.79353e-05
6.92862e-05
2.79284e-05
6.92685e-05
7.50909e-05
7.45603e-05
2.79373e-05
6.92919e-05
2.7928e-05
6.92722e-05
2.51094e-05
2.51093e-05
2.51094e-05
2.42481e-05
2.42489e-05
2.42486e-05
2.42489e-05
2.19527e-05
2.6939e-05
2.47487e-05
2.38673e-05
2.23598e-05
2.70074e-05
2.44395e-05
7.50895e-05
7.45608e-05
2.19528e-05
2.47485e-05
2.69386e-05
2.3867e-05
2.23584e-05
2.44393e-05
2.701e-05
3.52834e-05
3.52882e-05
2.29805e-05
3.61441e-05
3.61494e-05
2.83605e-05
6.92068e-05
2.81554e-05
6.91595e-05
7.38045e-05
7.3524e-05
2.83777e-05
6.92112e-05
2.81642e-05
6.91603e-05
2.39723e-05
2.39721e-05
2.39721e-05
2.31844e-05
2.31855e-05
2.3185e-05
2.31849e-05
2.13736e-05
2.73748e-05
2.35605e-05
2.27115e-05
2.15223e-05
2.76497e-05
2.32843e-05
7.3803e-05
7.35227e-05
2.13774e-05
2.35604e-05
2.73791e-05
2.271e-05
2.1524e-05
2.32841e-05
2.76639e-05
3.77901e-05
3.77949e-05
2.19712e-05
3.85186e-05
3.85245e-05
2.90903e-05
6.90334e-05
2.88744e-05
6.89681e-05
7.31097e-05
7.29579e-05
2.91081e-05
6.90357e-05
2.8896e-05
6.8975e-05
2.29399e-05
2.29393e-05
2.29389e-05
2.22792e-05
2.22806e-05
2.22791e-05
2.22787e-05
2.11865e-05
2.81341e-05
2.25271e-05
2.17734e-05
2.12502e-05
2.8294e-05
2.22986e-05
7.31077e-05
7.2959e-05
2.11808e-05
2.25262e-05
2.81442e-05
2.17684e-05
2.12481e-05
2.22977e-05
2.83118e-05
3.94086e-05
3.94323e-05
2.12786e-05
3.96982e-05
3.97285e-05
2.95321e-05
6.88697e-05
2.94179e-05
6.88349e-05
7.27485e-05
7.26936e-05
2.95519e-05
6.88903e-05
2.94213e-05
6.88676e-05
2.20896e-05
2.20877e-05
2.20872e-05
2.16259e-05
2.16269e-05
2.16245e-05
2.1624e-05
2.09649e-05
2.85436e-05
2.17056e-05
2.10802e-05
2.10617e-05
2.86325e-05
2.15383e-05
7.27434e-05
7.26861e-05
2.0939e-05
2.17042e-05
2.85191e-05
2.10694e-05
2.10425e-05
2.15367e-05
2.85863e-05
4.01358e-05
4.01125e-05
2.07764e-05
4.03682e-05
4.03635e-05
2.97946e-05
6.88386e-05
2.97277e-05
6.88477e-05
7.2637e-05
7.26238e-05
2.9796e-05
6.88718e-05
2.97651e-05
6.88771e-05
2.15075e-05
2.15052e-05
2.15045e-05
2.12557e-05
2.12546e-05
2.12529e-05
2.12522e-05
2.06944e-05
2.87435e-05
2.11416e-05
2.06475e-05
2.07799e-05
2.88002e-05
2.10427e-05
7.26333e-05
7.26181e-05
2.07278e-05
2.1141e-05
2.87426e-05
2.06406e-05
2.08083e-05
2.10422e-05
2.88066e-05
4.0791e-05
4.08336e-05
2.04026e-05
4.10125e-05
4.10246e-05
2.98889e-05
6.88336e-05
2.99108e-05
6.88211e-05
7.26005e-05
7.25872e-05
2.99445e-05
6.88392e-05
2.99212e-05
6.88137e-05
2.11982e-05
2.11966e-05
2.11958e-05
2.10964e-05
2.10945e-05
2.10926e-05
2.10922e-05
2.05736e-05
2.89203e-05
2.0839e-05
2.04514e-05
2.06178e-05
2.89835e-05
2.07955e-05
7.25911e-05
7.25866e-05
2.05966e-05
2.08375e-05
2.89274e-05
2.04503e-05
2.06192e-05
2.07945e-05
2.89874e-05
4.13026e-05
4.12508e-05
2.0196e-05
4.13149e-05
4.12812e-05
2.99984e-05
6.88095e-05
2.99892e-05
6.87915e-05
7.25755e-05
7.25776e-05
3.00044e-05
6.87854e-05
2.99936e-05
6.87746e-05
2.10739e-05
2.1072e-05
2.10718e-05
2.10428e-05
2.10408e-05
2.10385e-05
2.10392e-05
2.0612e-05
2.90593e-05
2.07199e-05
2.03928e-05
2.06196e-05
2.90555e-05
2.07068e-05
7.25737e-05
7.25709e-05
2.0591e-05
2.07174e-05
2.9058e-05
2.03868e-05
2.05817e-05
2.07034e-05
2.9056e-05
4.13486e-05
4.12253e-05
2.01371e-05
4.14079e-05
4.11487e-05
3.01062e-05
6.87785e-05
3.01043e-05
6.87763e-05
7.25696e-05
7.25712e-05
3.00783e-05
6.87607e-05
3.00885e-05
6.87542e-05
2.10352e-05
2.10327e-05
2.10343e-05
2.10275e-05
2.10267e-05
2.1024e-05
2.10262e-05
2.05893e-05
2.90624e-05
2.06864e-05
2.03797e-05
2.05839e-05
2.90508e-05
2.06838e-05
7.25724e-05
7.25786e-05
2.05867e-05
2.06808e-05
2.90614e-05
2.03729e-05
2.05867e-05
2.06782e-05
2.90451e-05
4.13363e-05
4.12538e-05
2.01341e-05
4.13021e-05
4.12029e-05
3.01078e-05
6.87838e-05
3.01138e-05
6.87781e-05
7.25663e-05
7.25655e-05
3.00735e-05
6.87602e-05
3.00786e-05
6.87607e-05
2.1026e-05
2.10232e-05
2.10257e-05
2.10238e-05
2.10236e-05
2.10211e-05
2.10235e-05
2.05954e-05
2.90503e-05
2.06769e-05
2.0375e-05
2.05764e-05
2.90344e-05
2.06763e-05
7.25819e-05
7.25865e-05
2.05838e-05
2.06739e-05
2.90432e-05
2.03702e-05
2.05727e-05
2.06738e-05
2.90322e-05
4.12467e-05
4.11987e-05
2.01736e-05
4.11826e-05
4.12426e-05
3.00559e-05
6.87666e-05
3.01106e-05
6.8754e-05
7.25521e-05
7.25518e-05
3.00708e-05
6.87621e-05
3.00792e-05
6.87576e-05
2.10237e-05
2.10216e-05
2.10232e-05
2.10229e-05
2.10225e-05
2.1021e-05
2.10227e-05
2.05812e-05
2.90401e-05
2.06734e-05
2.0374e-05
2.05936e-05
2.90323e-05
2.06734e-05
7.25885e-05
7.2594e-05
2.05557e-05
2.06733e-05
2.90437e-05
2.03708e-05
2.05805e-05
2.06737e-05
2.90387e-05
4.12477e-05
4.11773e-05
2.01701e-05
4.11811e-05
4.11763e-05
2.99432e-05
6.87565e-05
2.99376e-05
6.8762e-05
7.25552e-05
7.25628e-05
2.99494e-05
6.87621e-05
2.99467e-05
6.87618e-05
2.10226e-05
2.10209e-05
2.10228e-05
2.10227e-05
2.10223e-05
2.10211e-05
2.10225e-05
2.05901e-05
2.90461e-05
2.06747e-05
2.03724e-05
2.0585e-05
2.90392e-05
2.06755e-05
7.2597e-05
7.26015e-05
2.05747e-05
2.06741e-05
2.90531e-05
2.03701e-05
2.05892e-05
2.06742e-05
2.90454e-05
4.11296e-05
4.11814e-05
2.01258e-05
4.10825e-05
4.11211e-05
2.99948e-05
6.87673e-05
2.99352e-05
6.87567e-05
7.25648e-05
7.25622e-05
2.99861e-05
6.875e-05
2.99955e-05
6.8752e-05
2.10222e-05
2.10212e-05
2.10225e-05
2.10228e-05
2.10218e-05
2.10215e-05
2.10222e-05
2.05684e-05
2.90524e-05
2.06758e-05
2.03722e-05
2.05891e-05
2.90475e-05
2.06757e-05
7.26066e-05
7.26134e-05
2.05433e-05
2.06748e-05
2.90542e-05
2.03696e-05
2.05814e-05
2.06745e-05
2.90427e-05
4.1178e-05
4.1091e-05
2.01275e-05
4.12343e-05
4.1131e-05
3.00899e-05
6.87683e-05
3.00195e-05
6.87694e-05
7.25557e-05
7.25567e-05
2.99024e-05
6.87662e-05
2.99653e-05
6.87719e-05
2.10219e-05
2.10216e-05
2.10222e-05
2.10226e-05
2.10221e-05
2.10222e-05
2.10223e-05
2.05752e-05
2.90574e-05
2.06722e-05
2.03684e-05
2.05519e-05
2.90485e-05
2.06723e-05
7.26196e-05
7.26245e-05
2.05532e-05
2.06733e-05
2.90523e-05
2.03707e-05
2.05567e-05
2.06733e-05
2.90396e-05
4.12165e-05
4.12711e-05
2.02003e-05
4.12123e-05
4.12553e-05
3.01106e-05
6.8776e-05
3.01143e-05
6.87741e-05
7.25523e-05
7.25553e-05
2.9938e-05
6.87836e-05
2.99527e-05
6.87863e-05
2.10222e-05
2.10227e-05
2.10223e-05
2.10225e-05
2.10228e-05
2.10232e-05
2.10223e-05
2.05686e-05
2.90535e-05
2.06736e-05
2.03713e-05
2.05552e-05
2.90455e-05
2.06747e-05
7.2626e-05
7.26317e-05
2.05868e-05
2.0673e-05
2.90467e-05
2.03759e-05
2.05521e-05
2.06736e-05
2.90416e-05
4.11295e-05
4.12481e-05
2.01411e-05
4.11036e-05
4.11889e-05
3.01132e-05
6.87739e-05
3.01171e-05
6.87675e-05
7.25482e-05
7.25474e-05
2.99307e-05
6.87862e-05
2.99067e-05
6.87853e-05
2.1023e-05
2.10239e-05
2.10224e-05
2.10222e-05
2.10228e-05
2.10237e-05
2.10226e-05
2.05609e-05
2.90542e-05
2.06759e-05
2.03751e-05
2.05768e-05
2.90427e-05
2.06758e-05
7.26328e-05
7.26362e-05
2.05619e-05
2.06753e-05
2.90546e-05
2.03777e-05
2.05747e-05
2.06754e-05
2.90473e-05
4.1185e-05
4.11412e-05
2.01606e-05
4.11665e-05
4.11784e-05
3.01112e-05
6.87613e-05
3.01186e-05
6.87612e-05
7.25438e-05
7.25511e-05
3.00464e-05
6.87932e-05
2.99908e-05
6.87902e-05
2.10227e-05
2.10232e-05
2.10225e-05
2.10225e-05
2.10222e-05
2.10228e-05
2.1022e-05
2.05441e-05
2.90516e-05
2.06749e-05
2.03772e-05
2.05528e-05
2.90445e-05
2.06747e-05
7.26353e-05
7.2638e-05
2.05723e-05
2.06744e-05
2.90572e-05
2.03776e-05
2.05451e-05
2.06738e-05
2.90492e-05
4.13e-05
4.11865e-05
2.01448e-05
4.12814e-05
4.11875e-05
3.00946e-05
6.8752e-05
3.01074e-05
6.87504e-05
7.25573e-05
7.25605e-05
3.00876e-05
6.87848e-05
3.00915e-05
6.87801e-05
2.10222e-05
2.10235e-05
2.10218e-05
2.10227e-05
2.10215e-05
2.1023e-05
2.10212e-05
2.05782e-05
2.90578e-05
2.06737e-05
2.03739e-05
2.05368e-05
2.90527e-05
2.06732e-05
7.26364e-05
7.2639e-05
2.05784e-05
2.06728e-05
2.90629e-05
2.03748e-05
2.0564e-05
2.06727e-05
2.90548e-05
4.12689e-05
4.12975e-05
2.01674e-05
4.13001e-05
4.12855e-05
3.00781e-05
6.87602e-05
3.00886e-05
6.87579e-05
7.25568e-05
7.25595e-05
3.00829e-05
6.87746e-05
3.00904e-05
6.87793e-05
2.10215e-05
2.10229e-05
2.10213e-05
2.10227e-05
2.10216e-05
2.10228e-05
2.10211e-05
2.05703e-05
2.90663e-05
2.06716e-05
2.03726e-05
2.05478e-05
2.90597e-05
2.06713e-05
7.2637e-05
7.26394e-05
2.05616e-05
2.06741e-05
2.90615e-05
2.03743e-05
2.05724e-05
2.06742e-05
2.9052e-05
4.13505e-05
4.1225e-05
2.01876e-05
4.13069e-05
4.12037e-05
3.00677e-05
6.8768e-05
3.00764e-05
6.87665e-05
7.25535e-05
7.25523e-05
3.0073e-05
6.87833e-05
3.00826e-05
6.87827e-05
2.10214e-05
2.10232e-05
2.10211e-05
2.10228e-05
2.10213e-05
2.10235e-05
2.10215e-05
2.05802e-05
2.90662e-05
2.06714e-05
2.0372e-05
2.05565e-05
2.90548e-05
2.06721e-05
7.26375e-05
7.264e-05
2.05945e-05
2.06775e-05
2.90583e-05
2.03766e-05
2.06043e-05
2.0679e-05
2.90484e-05
4.12705e-05
4.11817e-05
2.02298e-05
4.12e-05
4.12154e-05
3.00641e-05
6.87662e-05
3.00703e-05
6.87581e-05
7.2539e-05
7.25392e-05
2.99135e-05
6.87861e-05
3.00182e-05
6.87878e-05
2.10213e-05
2.10234e-05
2.10222e-05
2.10222e-05
2.10212e-05
2.10234e-05
2.1022e-05
2.05883e-05
2.90612e-05
2.06742e-05
2.03711e-05
2.05904e-05
2.90497e-05
2.06749e-05
7.26378e-05
7.264e-05
2.06067e-05
2.06806e-05
2.9053e-05
2.03778e-05
2.05984e-05
2.06806e-05
2.90386e-05
4.11586e-05
4.12263e-05
2.01802e-05
4.10229e-05
4.12785e-05
3.00476e-05
6.87584e-05
3.0068e-05
6.87548e-05
7.25387e-05
7.25399e-05
2.99212e-05
6.87864e-05
2.99055e-05
6.87855e-05
2.10213e-05
2.10234e-05
2.1022e-05
2.10218e-05
2.10215e-05
2.10233e-05
2.10218e-05
2.05776e-05
2.90571e-05
2.06744e-05
2.0372e-05
2.05872e-05
2.90504e-05
2.06741e-05
7.26376e-05
7.264e-05
2.05745e-05
2.06794e-05
2.9039e-05
2.03773e-05
2.05862e-05
2.06789e-05
2.90292e-05
4.11919e-05
4.1176e-05
2.01561e-05
4.11939e-05
4.12943e-05
2.99829e-05
6.87539e-05
3.00269e-05
6.87528e-05
7.25414e-05
7.25463e-05
2.99132e-05
6.88004e-05
2.99455e-05
6.87977e-05
2.10215e-05
2.10237e-05
2.1022e-05
2.10214e-05
2.10221e-05
2.10242e-05
2.10217e-05
2.05778e-05
2.90615e-05
2.06735e-05
2.0373e-05
2.05706e-05
2.90533e-05
2.06731e-05
7.26379e-05
7.26403e-05
2.06038e-05
2.06792e-05
2.90415e-05
2.03789e-05
2.06083e-05
2.068e-05
2.90369e-05
4.12851e-05
4.12921e-05
2.01397e-05
4.12739e-05
4.13341e-05
2.98944e-05
6.87627e-05
2.99397e-05
6.8763e-05
7.25381e-05
7.25386e-05
2.99995e-05
6.87931e-05
2.9953e-05
6.87778e-05
2.10224e-05
2.10242e-05
2.10216e-05
2.10213e-05
2.10234e-05
2.10236e-05
2.10214e-05
2.05779e-05
2.90615e-05
2.06735e-05
2.0377e-05
2.06024e-05
2.90495e-05
2.06744e-05
7.26384e-05
7.26409e-05
2.05909e-05
2.06797e-05
2.90457e-05
2.03794e-05
2.05813e-05
2.06795e-05
2.90397e-05
4.12195e-05
4.12221e-05
2.01459e-05
4.11121e-05
4.11773e-05
2.998e-05
6.87618e-05
2.99862e-05
6.87631e-05
7.254e-05
7.25458e-05
3.0101e-05
6.87867e-05
3.00906e-05
6.87906e-05
2.10246e-05
2.10235e-05
2.10214e-05
2.10216e-05
2.10244e-05
2.10232e-05
2.10213e-05
2.06024e-05
2.90459e-05
2.06758e-05
2.03802e-05
2.06141e-05
2.90347e-05
2.06775e-05
7.26384e-05
7.26406e-05
2.05619e-05
2.06764e-05
2.9051e-05
2.03755e-05
2.0583e-05
2.06765e-05
2.90411e-05
4.11054e-05
4.11597e-05
2.01504e-05
4.10801e-05
4.12404e-05
3.00662e-05
6.87554e-05
3.00678e-05
6.87545e-05
7.25486e-05
7.255e-05
3.01073e-05
6.87935e-05
3.01119e-05
6.87829e-05
2.10243e-05
2.1023e-05
2.10213e-05
2.10215e-05
2.10243e-05
2.10226e-05
2.10216e-05
2.05803e-05
2.90442e-05
2.06777e-05
2.03808e-05
2.06017e-05
2.90391e-05
2.06773e-05
7.26384e-05
7.26406e-05
2.05918e-05
2.06761e-05
2.90423e-05
2.03739e-05
2.05562e-05
2.06759e-05
2.90316e-05
4.11115e-05
4.11217e-05
2.01583e-05
4.11472e-05
4.11732e-05
2.99368e-05
6.87779e-05
2.99583e-05
6.8777e-05
7.25454e-05
7.25439e-05
3.00868e-05
6.87829e-05
3.01102e-05
6.8775e-05
2.10243e-05
2.10226e-05
2.1022e-05
2.10211e-05
2.10239e-05
2.10224e-05
2.10222e-05
2.05841e-05
2.90479e-05
2.06759e-05
2.0378e-05
2.05686e-05
2.90375e-05
2.06762e-05
7.2638e-05
7.26401e-05
2.05861e-05
2.06763e-05
2.90443e-05
2.0374e-05