/*--------------------------------*- C++ -*----------------------------------*\
| =========                 |                                                 |
| \\      /  F ield         | OpenFOAM: The Open Source CFD Toolbox           |
|  \\    /   O peration     | Version:  v2012                                 |
|   \\  /    A nd           | Website:  www.openfoam.com                      |
|    \\/     M anipulation  |                                                 |
\*---------------------------------------------------------------------------*/
FoamFile
{
    version     2.0;
    format      ascii;
    class       volScalarField;
    location    "50";
    object      p;
}
// * * * * * * * * * * * * * * * * * * * * * * * * * * * * * * * * * * * * * //

dimensions      [0 2 -2 0 0 0 0];


internalField   nonuniform List<scalar> 
85864
(
0.00369421
0.00369403
0.00369405
0.00369684
0.00364064
0.00364078
0.00364078
0.00364298
0.00358939
0.00358942
0.00358942
0.00359172
0.00353748
0.00353744
0.00353744
0.00353972
0.00348641
0.00348636
0.00348636
0.00348859
0.00343672
0.00343667
0.00343667
0.00343886
0.00338845
0.00338841
0.00338841
0.00339056
0.00334156
0.00334152
0.00334152
0.00334362
0.00329608
0.00329603
0.00329603
0.00329806
0.00325224
0.00325217
0.00325217
0.00325411
0.0032104
0.00321031
0.0032103
0.00321219
0.0031703
0.00317023
0.00317024
0.00317208
0.00313122
0.00313118
0.00313118
0.003133
0.00309269
0.00309265
0.00309265
0.00309445
0.00305438
0.00305435
0.00305435
0.00305615
0.00301614
0.00301611
0.00301612
0.00301792
0.00297792
0.0029779
0.00297789
0.00297969
0.00293971
0.00293968
0.00293968
0.00294148
0.0029015
0.00290147
0.00290147
0.00290326
0.00286328
0.00286326
0.00286326
0.00286506
0.00282507
0.00282504
0.00282505
0.00282684
0.00278686
0.00278682
0.00278683
0.00278863
0.00274864
0.00274861
0.00274861
0.00275041
0.00271042
0.0027104
0.0027104
0.0027122
0.00267221
0.00267218
0.00267218
0.00267398
0.002634
0.00263397
0.00263397
0.00263576
0.00259578
0.00259576
0.00259575
0.00259755
0.00255756
0.00255754
0.00255754
0.00255934
0.00251935
0.00251931
0.00251932
0.00252112
0.00248114
0.00248111
0.00248111
0.00248291
0.00244293
0.0024429
0.0024429
0.0024447
0.00240472
0.00240469
0.00240469
0.00240649
0.00236651
0.00236648
0.00236648
0.00236828
0.0023283
0.00232828
0.00232827
0.00233007
0.00229008
0.00229005
0.00229006
0.00229186
0.00225187
0.00225184
0.00225184
0.00225364
0.00221365
0.00221362
0.00221362
0.00221543
0.00217543
0.0021754
0.00217541
0.0021772
0.00213722
0.00213719
0.0021372
0.00213899
0.00209901
0.00209899
0.00209898
0.00210078
0.0020608
0.00206077
0.00206077
0.00206257
0.00202259
0.00202256
0.00202256
0.00202436
0.00198437
0.00198434
0.00198434
0.00198614
0.00194615
0.00194612
0.00194612
0.00194792
0.00190794
0.00190791
0.00190791
0.00190971
0.00186973
0.0018697
0.0018697
0.00187149
0.00183151
0.00183149
0.00183149
0.00183328
0.00370762
0.0037078
0.0037078
0.00370762
0.00370779
0.0037078
0.0037085
0.0037085
0.00370851
0.0037085
0.00370779
0.00370779
0.00370763
0.0037078
0.0037078
0.00370762
0.00369684
0.00365067
0.00369404
0.00369404
0.00365316
0.00365317
0.00369685
0.00365067
0.00369404
0.00369404
0.00365316
0.00365317
0.00369403
0.00365316
0.00365317
0.00369685
0.00365068
0.00369404
0.00365317
0.00365317
0.00365068
0.00364298
0.00359976
0.00364078
0.00364079
0.00360242
0.00360242
0.00364298
0.00359976
0.00364078
0.00364078
0.00360242
0.00360242
0.00364079
0.00360242
0.00360242
0.00364299
0.00359976
0.00364078
0.00360242
0.00360242
0.00359976
0.00359172
0.00354772
0.00358942
0.00358942
0.00355039
0.00355039
0.00359172
0.00354772
0.00358942
0.00358942
0.00355039
0.00355039
0.00358942
0.00355039
0.00355039
0.00359172
0.00354772
0.00358942
0.00355039
0.00355039
0.00354772
0.00353972
0.0034964
0.00353744
0.00353744
0.00349901
0.00349901
0.00353972
0.0034964
0.00353744
0.00353744
0.00349901
0.00349901
0.00353744
0.00349901
0.00349901
0.00353972
0.0034964
0.00353744
0.00349901
0.00349901
0.0034964
0.00348859
0.00344645
0.00348636
0.00348636
0.00344896
0.00344896
0.00348859
0.00344645
0.00348636
0.00348636
0.00344896
0.00344896
0.00348636
0.00344896
0.00344896
0.00348859
0.00344645
0.00348636
0.00344896
0.00344896
0.00344645
0.00343886
0.00339794
0.00343667
0.00343667
0.00340035
0.00340035
0.00343886
0.00339794
0.00343667
0.00343667
0.00340035
0.00340035
0.00343667
0.00340035
0.00340035
0.00343886
0.00339794
0.00343667
0.00340035
0.00340035
0.00339794
0.00339056
0.0033508
0.00338841
0.00338841
0.00335312
0.00335312
0.00339056
0.0033508
0.00338841
0.00338841
0.00335312
0.00335312
0.00338841
0.00335312
0.00335312
0.00339056
0.0033508
0.00338841
0.00335312
0.00335312
0.0033508
0.00334362
0.00330503
0.00334152
0.00334152
0.00330726
0.00330726
0.00334362
0.00330503
0.00334152
0.00334152
0.00330727
0.00330726
0.00334152
0.00330727
0.00330727
0.00334362
0.00330503
0.00334152
0.00330727
0.00330727
0.00330503
0.00329806
0.00326077
0.00329602
0.00329603
0.00326296
0.00326296
0.00329806
0.00326077
0.00329603
0.00329603
0.00326296
0.00326296
0.00329603
0.00326296
0.00326296
0.00329806
0.00326077
0.00329603
0.00326296
0.00326296
0.00326077
0.00325412
0.00321857
0.00325217
0.00325217
0.00322058
0.00322058
0.00325412
0.00321857
0.00325217
0.00325217
0.00322058
0.00322057
0.00325217
0.00322058
0.00322058
0.00325412
0.00321856
0.00325217
0.00322057
0.00322057
0.00321856
0.00321219
0.00317823
0.00321031
0.00321031
0.00318013
0.00318013
0.00321219
0.00317823
0.00321031
0.0032103
0.00318013
0.00318013
0.00321031
0.00318013
0.00318013
0.00321219
0.00317823
0.0032103
0.00318013
0.00318013
0.00317823
0.00317208
0.00313902
0.00317023
0.00317023
0.00314087
0.00314088
0.00317208
0.00313904
0.00317023
0.00317023
0.00314087
0.00314088
0.00317024
0.00314088
0.00314088
0.00317208
0.00313904
0.00317024
0.00314088
0.00314089
0.00313904
0.00313299
0.00310044
0.00313117
0.00313118
0.00310226
0.00310225
0.003133
0.00310044
0.00313117
0.00313118
0.00310226
0.00310226
0.00313118
0.00310225
0.00310225
0.003133
0.00310044
0.00313119
0.00310225
0.00310225
0.00310043
0.00309446
0.00306211
0.00309266
0.00309266
0.00306392
0.00306392
0.00309446
0.00306211
0.00309266
0.00309265
0.00306392
0.00306392
0.00309265
0.00306392
0.00306392
0.00309446
0.00306211
0.00309265
0.00306392
0.00306391
0.00306211
0.00305615
0.00302387
0.00305435
0.00305435
0.00302567
0.00302567
0.00305615
0.00302387
0.00305435
0.00305435
0.00302567
0.00302568
0.00305435
0.00302567
0.00302568
0.00305615
0.00302387
0.00305435
0.00302567
0.00302568
0.00302387
0.00301792
0.00298565
0.00301612
0.00301612
0.00298745
0.00298745
0.00301791
0.00298565
0.00301612
0.00301612
0.00298745
0.00298745
0.00301612
0.00298745
0.00298745
0.00301792
0.00298565
0.00301612
0.00298745
0.00298745
0.00298565
0.0029797
0.00294743
0.00297789
0.00297789
0.00294923
0.00294924
0.0029797
0.00294744
0.0029779
0.0029779
0.00294923
0.00294923
0.00297789
0.00294923
0.00294923
0.0029797
0.00294743
0.00297789
0.00294923
0.00294923
0.00294743
0.00294148
0.00290922
0.00293968
0.00293969
0.00291102
0.00291102
0.00294148
0.00290922
0.00293968
0.00293968
0.00291102
0.00291102
0.00293968
0.00291102
0.00291102
0.00294148
0.00290922
0.00293968
0.00291102
0.00291102
0.00290922
0.00290327
0.00287101
0.00290147
0.00290147
0.00287281
0.00287281
0.00290327
0.00287101
0.00290147
0.00290147
0.00287281
0.00287281
0.00290147
0.00287281
0.00287281
0.00290327
0.00287102
0.00290147
0.00287281
0.00287282
0.00287101
0.00286506
0.0028328
0.00286326
0.00286326
0.0028346
0.0028346
0.00286506
0.0028328
0.00286326
0.00286326
0.0028346
0.0028346
0.00286326
0.0028346
0.0028346
0.00286506
0.0028328
0.00286326
0.0028346
0.0028346
0.0028328
0.00282685
0.00279458
0.00282505
0.00282504
0.00279638
0.00279638
0.00282684
0.00279458
0.00282505
0.00282505
0.00279638
0.00279639
0.00282505
0.00279638
0.00279638
0.00282685
0.00279459
0.00282505
0.00279639
0.00279638
0.00279458
0.00278863
0.00275637
0.00278683
0.00278682
0.00275817
0.00275817
0.00278862
0.00275637
0.00278683
0.00278683
0.00275817
0.00275817
0.00278683
0.00275816
0.00275816
0.00278863
0.00275637
0.00278683
0.00275817
0.00275816
0.00275636
0.00275042
0.00271815
0.00274862
0.00274861
0.00271995
0.00271995
0.00275042
0.00271815
0.00274862
0.00274862
0.00271995
0.00271995
0.00274861
0.00271995
0.00271995
0.00275042
0.00271815
0.00274861
0.00271995
0.00271995
0.00271815
0.00271219
0.00267993
0.00271039
0.0027104
0.00268173
0.00268173
0.0027122
0.00267993
0.00271039
0.0027104
0.00268173
0.00268174
0.0027104
0.00268173
0.00268174
0.0027122
0.00267994
0.0027104
0.00268174
0.00268173
0.00267993
0.00267398
0.00264173
0.00267218
0.00267218
0.00264353
0.00264352
0.00267398
0.00264172
0.00267218
0.00267218
0.00264353
0.00264352
0.00267218
0.00264352
0.00264352
0.00267398
0.00264172
0.00267218
0.00264352
0.00264352
0.00264172
0.00263578
0.00260351
0.00263397
0.00263397
0.00260531
0.00260531
0.00263577
0.00260351
0.00263397
0.00263397
0.0026053
0.0026053
0.00263397
0.00260531
0.0026053
0.00263577
0.0026035
0.00263396
0.0026053
0.0026053
0.0026035
0.00259755
0.00256529
0.00259575
0.00259576
0.00256709
0.00256709
0.00259756
0.00256529
0.00259575
0.00259575
0.00256709
0.00256708
0.00259575
0.00256709
0.00256709
0.00259755
0.00256529
0.00259575
0.00256709
0.00256709
0.00256529
0.00255934
0.00252708
0.00255753
0.00255753
0.00252888
0.00252887
0.00255934
0.00252707
0.00255754
0.00255753
0.00252888
0.00252888
0.00255754
0.00252887
0.00252887
0.00255933
0.00252708
0.00255754
0.00252888
0.00252888
0.00252708
0.00252113
0.00248886
0.00251932
0.00251932
0.00249066
0.00249066
0.00252112
0.00248887
0.00251933
0.00251933
0.00249066
0.00249067
0.00251932
0.00249066
0.00249066
0.00252113
0.00248887
0.00251932
0.00249067
0.00249066
0.00248886
0.00248291
0.00245065
0.00248111
0.00248111
0.00245245
0.00245245
0.00248291
0.00245065
0.00248111
0.00248111
0.00245245
0.00245245
0.00248111
0.00245245
0.00245245
0.00248291
0.00245065
0.00248111
0.00245245
0.00245245
0.00245065
0.0024447
0.00241244
0.0024429
0.0024429
0.00241424
0.00241424
0.0024447
0.00241244
0.0024429
0.0024429
0.00241424
0.00241424
0.0024429
0.00241424
0.00241424
0.0024447
0.00241244
0.0024429
0.00241424
0.00241424
0.00241244
0.00240649
0.00237424
0.00240469
0.00240469
0.00237604
0.00237603
0.00240649
0.00237423
0.00240469
0.00240469
0.00237603
0.00237603
0.00240469
0.00237603
0.00237603
0.00240649
0.00237424
0.00240469
0.00237604
0.00237603
0.00237423
0.00236829
0.00233603
0.00236649
0.00236648
0.00233783
0.00233783
0.00236828
0.00233603
0.00236648
0.00236648
0.00233782
0.00233782
0.00236648
0.00233783
0.00233783
0.00236828
0.00233602
0.00236648
0.00233782
0.00233782
0.00233602
0.00233007
0.00229781
0.00232827
0.00232828
0.00229961
0.00229961
0.00233008
0.00229781
0.00232827
0.00232827
0.00229961
0.00229961
0.00232827
0.00229961
0.00229961
0.00233007
0.00229781
0.00232827
0.00229961
0.00229961
0.00229781
0.00229185
0.00225959
0.00229005
0.00229005
0.00226139
0.00226139
0.00229186
0.0022596
0.00229005
0.00229005
0.00226139
0.0022614
0.00229006
0.0022614
0.00226139
0.00229186
0.0022596
0.00229006
0.00226139
0.00226139
0.00225959
0.00225364
0.00222138
0.00225184
0.00225184
0.00222318
0.00222317
0.00225364
0.00222138
0.00225184
0.00225184
0.00222317
0.00222317
0.00225184
0.00222318
0.00222318
0.00225364
0.00222138
0.00225184
0.00222318
0.00222318
0.00222138
0.00221542
0.00218316
0.00221362
0.00221362
0.00218496
0.00218495
0.00221542
0.00218315
0.00221362
0.00221362
0.00218496
0.00218496
0.00221362
0.00218495
0.00218495
0.00221542
0.00218316
0.00221363
0.00218496
0.00218496
0.00218315
0.00217721
0.00214495
0.00217541
0.0021754
0.00214675
0.00214674
0.0021772
0.00214494
0.00217541
0.00217541
0.00214675
0.00214675
0.0021754
0.00214674
0.00214674
0.00217721
0.00214495
0.0021754
0.00214675
0.00214674
0.00214494
0.002139
0.00210674
0.0021372
0.00213719
0.00210854
0.00210854
0.00213899
0.00210675
0.0021372
0.0021372
0.00210854
0.00210854
0.00213719
0.00210854
0.00210854
0.002139
0.00210674
0.00213719
0.00210854
0.00210854
0.00210674
0.00210079
0.00206852
0.00209899
0.00209899
0.00207032
0.00207033
0.00210079
0.00206853
0.00209898
0.00209898
0.00207032
0.00207032
0.00209899
0.00207033
0.00207033
0.00210078
0.00206852
0.00209899
0.00207032
0.00207033
0.00206853
0.00206257
0.00203032
0.00206077
0.00206077
0.00203212
0.00203211
0.00206257
0.00203032
0.00206077
0.00206077
0.00203212
0.00203212
0.00206078
0.00203211
0.00203211
0.00206257
0.00203032
0.00206077
0.00203212
0.00203211
0.00203031
0.00202437
0.0019921
0.00202257
0.00202256
0.0019939
0.0019939
0.00202436
0.0019921
0.00202257
0.00202256
0.0019939
0.0019939
0.00202256
0.0019939
0.0019939
0.00202436
0.0019921
0.00202256
0.0019939
0.0019939
0.0019921
0.00198615
0.00195388
0.00198434
0.00198434
0.00195568
0.00195568
0.00198615
0.00195388
0.00198435
0.00198434
0.00195568
0.00195568
0.00198434
0.00195568
0.00195567
0.00198614
0.00195387
0.00198434
0.00195567
0.00195567
0.00195387
0.00194792
0.00191567
0.00194613
0.00194612
0.00191746
0.00191746
0.00194792
0.00191566
0.00194613
0.00194612
0.00191746
0.00191746
0.00194612
0.00191746
0.00191747
0.00194792
0.00191567
0.00194612
0.00191746
0.00191747
0.00191567
0.00190971
0.00187746
0.00190791
0.00190791
0.00187925
0.00187925
0.00190971
0.00187745
0.00190791
0.00190791
0.00187925
0.00187925
0.00190792
0.00187925
0.00187925
0.00190972
0.00187745
0.00190791
0.00187925
0.00187925
0.00187745
0.0018715
0.00183924
0.0018697
0.0018697
0.00184104
0.00184104
0.0018715
0.00183924
0.0018697
0.0018697
0.00184104
0.00184104
0.0018697
0.00184104
0.00184104
0.0018715
0.00183924
0.0018697
0.00184104
0.00184104
0.00183924
0.00183328
0.00180102
0.00183148
0.00183149
0.00180282
0.00180282
0.00183329
0.00180103
0.00183148
0.00183149
0.00180282
0.00180282
0.00183148
0.00180282
0.00180282
0.00183329
0.00180103
0.00183149
0.00180283
0.00180282
0.00180102
0.00371673
0.0037267
0.00372131
0.00372132
0.00374379
0.00373068
0.00375923
0.0037246
0.0037437
0.00373067
0.00372458
0.00375909
0.00373513
0.0037632
0.00376309
0.00367559
0.00367586
0.00369414
0.00367381
0.00365415
0.00367259
0.00367559
0.00367611
0.00369412
0.00367378
0.00369421
0.00369422
0.00369421
0.00365304
0.00365304
0.00365304
0.00365304
0.00367432
0.00369114
0.00369428
0.00367856
0.00369644
0.00367523
0.00367919
0.00365436
0.00367263
0.00367436
0.00369431
0.00369124
0.00367858
0.0036965
0.00367921
0.00367526
0.0036876
0.00368763
0.00367537
0.00367551
0.00367554
0.00362601
0.00364387
0.00364488
0.0036251
0.00364325
0.00362464
0.003626
0.00364387
0.00364488
0.00362511
0.00364064
0.00364064
0.00364064
0.00360236
0.00360236
0.00360236
0.00360237
0.00362511
0.00364437
0.00364071
0.00362817
0.00364365
0.00362559
0.00362811
0.00364326
0.00362464
0.00362512
0.00364071
0.00364437
0.00362817
0.00364366
0.00362811
0.00362559
0.00364462
0.00364464
0.00362554
0.0036257
0.00362571
0.00357375
0.00359235
0.00359319
0.00357298
0.00359205
0.00357274
0.00357375
0.00359235
0.00359319
0.00357298
0.00358939
0.00358939
0.00358939
0.00355041
0.00355041
0.00355041
0.00355041
0.00357324
0.00359273
0.00358939
0.0035764
0.00359243
0.00357341
0.00357638
0.00359205
0.00357274
0.00357324
0.00358939
0.00359273
0.0035764
0.00359243
0.00357638
0.00357341
0.0035928
0.0035928
0.00357373
0.00357335
0.00357335
0.00352164
0.00354014
0.00354082
0.00352104
0.00353997
0.00352088
0.00352164
0.00354013
0.00354082
0.00352104
0.00353748
0.00353748
0.00353748
0.00349906
0.00349906
0.00349906
0.00349906
0.00352137
0.00354044
0.00353745
0.00352456
0.00354034
0.00352142
0.00352457
0.00353997
0.00352088
0.00352137
0.00353745
0.00354044
0.00352456
0.00354034
0.00352457
0.00352142
0.00354043
0.00354044
0.00352191
0.0035213
0.0035213
0.00347078
0.00348892
0.00348942
0.00347034
0.00348881
0.00347021
0.00347078
0.00348892
0.00348942
0.00347034
0.00348641
0.00348641
0.00348641
0.003449
0.003449
0.003449
0.003449
0.00347067
0.00348916
0.00348637
0.0034738
0.00348913
0.00347068
0.00347381
0.0034888
0.00347022
0.00347067
0.00348637
0.00348916
0.0034738
0.00348913
0.00347381
0.00347068
0.00348915
0.00348915
0.00347124
0.00347055
0.00347055
0.00342144
0.00343916
0.00343951
0.00342113
0.00343908
0.00342101
0.00342144
0.00343916
0.00343951
0.00342113
0.00343672
0.00343672
0.00343672
0.00340039
0.00340039
0.00340039
0.00340039
0.00342143
0.00343934
0.00343667
0.00342447
0.00343932
0.00342142
0.00342447
0.00343907
0.00342102
0.00342143
0.00343667
0.00343934
0.00342447
0.00343932
0.00342447
0.00342142
0.00343935
0.00343935
0.00342202
0.00342131
0.00342131
0.00337354
0.00339084
0.00339109
0.00337331
0.00339076
0.00337321
0.00337354
0.00339084
0.00339109
0.00337331
0.00338845
0.00338845
0.00338845
0.00335316
0.00335315
0.00335316
0.00335316
0.00337361
0.00339098
0.00338841
0.00337656
0.00339097
0.00337359
0.00337655
0.00339076
0.00337321
0.00337361
0.00338841
0.00339098
0.00337656
0.00339097
0.00337656
0.00337359
0.00339101
0.00339101
0.0033742
0.00337348
0.00337348
0.00332699
0.00334386
0.00334404
0.00332682
0.00334378
0.00332671
0.003327
0.00334386
0.00334404
0.00332682
0.00334156
0.00334156
0.00334156
0.00330731
0.00330731
0.00330731
0.00330731
0.00332714
0.00334399
0.00334152
0.00333001
0.00334399
0.0033271
0.00333001
0.00334378
0.00332672
0.00332714
0.00334152
0.00334399
0.00333002
0.00334399
0.00333001
0.0033271
0.00334402
0.00334402
0.00332774
0.00332698
0.00332698
0.00328188
0.00329826
0.00329838
0.00328177
0.00329819
0.0032817
0.00328188
0.00329826
0.00329838
0.00328177
0.00329608
0.00329608
0.00329608
0.00326303
0.00326303
0.00326303
0.00326302
0.0032821
0.00329836
0.00329603
0.00328489
0.0032984
0.00328202
0.00328491
0.00329819
0.0032817
0.0032821
0.00329604
0.00329836
0.00328489
0.0032984
0.00328491
0.00328202
0.00329839
0.00329839
0.00328269
0.0032819
0.0032819
0.0032386
0.0032543
0.00325435
0.00323857
0.00325426
0.0032385
0.0032386
0.00325429
0.00325435
0.00323857
0.00325224
0.00325224
0.00325224
0.00322067
0.00322067
0.00322067
0.00322067
0.00323883
0.00325434
0.00325219
0.00324151
0.00325441
0.00323873
0.00324154
0.00325426
0.00323851
0.00323883
0.00325219
0.00325434
0.00324151
0.00325442
0.00324153
0.00323872
0.00325437
0.00325438
0.00323942
0.00323862
0.00323862
0.0031975
0.00321245
0.00321246
0.00319749
0.00321242
0.00319746
0.0031975
0.00321246
0.00321246
0.00319749
0.0032104
0.00321039
0.00321039
0.0031802
0.0031802
0.0031802
0.0031802
0.00319769
0.00321245
0.00321034
0.00320015
0.0032125
0.00319765
0.00320018
0.00321241
0.00319744
0.00319768
0.00321033
0.00321244
0.00320015
0.00321249
0.00320018
0.00319764
0.00321248
0.00321247
0.0031982
0.00319752
0.00319751
0.00315796
0.00317244
0.00317245
0.00315795
0.00317243
0.00315792
0.00315795
0.00317244
0.00317245
0.00315795
0.0031703
0.0031703
0.0031703
0.00314093
0.00314093
0.00314093
0.00314093
0.00315809
0.0031724
0.00317026
0.0031604
0.00317242
0.00315805
0.00316042
0.00317244
0.00315793
0.00315809
0.00317026
0.0031724
0.00316041
0.00317243
0.00316043
0.00315805
0.00317245
0.00317246
0.00315854
0.00315797
0.00315797
0.00311916
0.00313342
0.00313343
0.00311916
0.00313344
0.00311915
0.00311916
0.00313342
0.00313344
0.00311915
0.00313123
0.00313123
0.00313123
0.00310229
0.00310229
0.00310229
0.00310229
0.00311927
0.00313337
0.0031312
0.00312152
0.00313338
0.00311925
0.00312153
0.00313344
0.00311916
0.00311927
0.0031312
0.00313337
0.00312152
0.00313339
0.00312153
0.00311925
0.00313344
0.00313344
0.00311968
0.00311917
0.00311918
0.00308077
0.00309493
0.00309493
0.00308078
0.00309494
0.00308077
0.00308077
0.00309493
0.00309494
0.00308078
0.00309269
0.00309268
0.00309268
0.00306394
0.00306394
0.00306394
0.00306394
0.00308086
0.00309485
0.00309266
0.00308307
0.00309485
0.00308084
0.00308308
0.00309493
0.00308074
0.00308086
0.00309266
0.00309485
0.00308306
0.00309485
0.00308307
0.00308084
0.00309491
0.00309491
0.00308125
0.00308076
0.00308076
0.00304251
0.00305664
0.00305665
0.00304251
0.00305664
0.00304252
0.00304251
0.00305664
0.00305664
0.00304252
0.00305438
0.00305437
0.00305438
0.0030257
0.00302569
0.0030257
0.0030257
0.0030426
0.00305656
0.00305436
0.00304479
0.00305656
0.00304259
0.0030448
0.00305664
0.00304251
0.0030426
0.00305436
0.00305656
0.00304479
0.00305656
0.0030448
0.00304259
0.00305664
0.00305663
0.00304299
0.00304252
0.00304252
0.00300429
0.00301841
0.00301841
0.00300429
0.00301841
0.00300428
0.00300429
0.00301841
0.00301841
0.00300429
0.00301614
0.00301614
0.00301614
0.00298748
0.00298747
0.00298748
0.00298747
0.00300437
0.00301833
0.00301612
0.00300656
0.00301832
0.00300436
0.00300657
0.00301843
0.00300428
0.00300438
0.00301612
0.00301833
0.00300656
0.00301833
0.00300657
0.00300437
0.00301841
0.00301841
0.00300476
0.00300431
0.00300431
0.00296607
0.0029802
0.00298019
0.00296608
0.00298021
0.00296606
0.00296607
0.0029802
0.00298019
0.00296608
0.00297792
0.00297792
0.00297792
0.00294926
0.00294926
0.00294926
0.00294926
0.00296616
0.00298012
0.0029779
0.00296835
0.00298011
0.00296615
0.00296835
0.00298019
0.00296607
0.00296615
0.0029779
0.00298012
0.00296834
0.0029801
0.00296835
0.00296615
0.00298019
0.00298019
0.00296654
0.00296607
0.00296607
0.00292786
0.00294197
0.00294198
0.00292786
0.00294198
0.00292786
0.00292785
0.00294197
0.00294197
0.00292786
0.00293971
0.00293971
0.00293971
0.00291105
0.00291105
0.00291105
0.00291105
0.00292794
0.0029419
0.00293969
0.00293013
0.00294189
0.00292793
0.00293013
0.00294199
0.00292785
0.00292794
0.00293969
0.0029419
0.00293013
0.00294189
0.00293013
0.00292794
0.00294197
0.00294197
0.00292833
0.00292787
0.00292787
0.00288964
0.00290377
0.00290376
0.00288965
0.00290379
0.00288964
0.00288965
0.00290377
0.00290375
0.00288966
0.0029015
0.00290149
0.0029015
0.00287284
0.00287284
0.00287284
0.00287284
0.00288973
0.00290369
0.00290147
0.00289192
0.00290368
0.00288973
0.00289192
0.00290376
0.00288964
0.00288973
0.00290147
0.00290368
0.00289192
0.00290367
0.00289192
0.00288972
0.00290376
0.00290375
0.00289012
0.00288966
0.00288966
0.00285144
0.00286555
0.00286555
0.00285144
0.00286556
0.00285145
0.00285143
0.00286556
0.00286555
0.00285144
0.00286329
0.00286329
0.00286329
0.00283462
0.00283462
0.00283462
0.00283462
0.00285152
0.00286548
0.00286327
0.00285371
0.00286547
0.00285152
0.00285371
0.00286557
0.00285143
0.00285152
0.00286327
0.00286549
0.00285371
0.00286547
0.00285371
0.00285151
0.00286555
0.00286556
0.0028519
0.00285145
0.00285144
0.00281322
0.00282736
0.00282734
0.00281323
0.00282734
0.00281324
0.00281322
0.00282735
0.00282734
0.00281323
0.00282507
0.00282507
0.00282507
0.00279641
0.0027964
0.00279641
0.00279641
0.00281331
0.00282727
0.00282505
0.00281549
0.00282726
0.00281329
0.0028155
0.00282735
0.00281323
0.00281331
0.00282505
0.00282726
0.0028155
0.00282726
0.0028155
0.0028133
0.00282734
0.00282734
0.00281369
0.00281323
0.00281323
0.00277501
0.00278912
0.00278912
0.00277502
0.00278912
0.002775
0.00277501
0.00278912
0.00278912
0.00277502
0.00278685
0.00278686
0.00278686
0.0027582
0.00275819
0.00275819
0.00275819
0.00277508
0.00278904
0.00278683
0.00277727
0.00278903
0.00277507
0.00277728
0.00278914
0.00277501
0.00277509
0.00278684
0.00278905
0.00277728
0.00278904
0.00277728
0.00277509
0.00278912
0.00278913
0.00277547
0.00277501
0.00277501
0.00273679
0.00275092
0.00275091
0.0027368
0.00275092
0.00273679
0.00273679
0.00275092
0.00275091
0.0027368
0.00274864
0.00274864
0.00274864
0.00271997
0.00271998
0.00271998
0.00271998
0.00273687
0.00275083
0.00274862
0.00273906
0.00275082
0.00273687
0.00273907
0.00275092
0.00273679
0.00273688
0.00274862
0.00275083
0.00273906
0.00275083
0.00273907
0.00273687
0.0027509
0.0027509
0.00273726
0.0027368
0.0027368
0.00269857
0.00271269
0.00271269
0.00269857
0.0027127
0.00269859
0.00269857
0.00271269
0.00271269
0.00269857
0.00271043
0.00271043
0.00271043
0.00268176
0.00268176
0.00268176
0.00268176
0.00269866
0.00271262
0.0027104
0.00270084
0.00271262
0.00269866
0.00270085
0.0027127
0.00269858
0.00269866
0.00271041
0.00271262
0.00270085
0.00271262
0.00270086
0.00269866
0.0027127
0.0027127
0.00269904
0.00269859
0.00269859
0.00266036
0.00267447
0.00267447
0.00266037
0.00267448
0.00266037
0.00266036
0.00267447
0.00267447
0.00266037
0.00267221
0.00267221
0.00267221
0.00264355
0.00264355
0.00264355
0.00264354
0.00266044
0.0026744
0.00267219
0.00266263
0.00267439
0.00266043
0.00266263
0.00267449
0.00266036
0.00266043
0.00267219
0.0026744
0.00266263
0.00267439
0.00266263
0.00266043
0.00267448
0.00267448
0.00266083
0.00266036
0.00266036
0.00262215
0.00263628
0.00263627
0.00262216
0.00263628
0.00262216
0.00262215
0.00263628
0.00263627
0.00262215
0.002634
0.00263399
0.00263399
0.00260533
0.00260533
0.00260533
0.00260533
0.00262223
0.00263619
0.00263398
0.00262442
0.00263618
0.00262223
0.00262442
0.00263627
0.00262215
0.00262222
0.00263397
0.00263618
0.00262441
0.00263617
0.00262442
0.00262222
0.00263627
0.00263626
0.00262261
0.00262215
0.00262214
0.00258393
0.00259805
0.00259805
0.00258393
0.00259806
0.00258393
0.00258392
0.00259804
0.00259804
0.00258393
0.00259578
0.00259578
0.00259578
0.00256711
0.00256712
0.00256711
0.00256712
0.00258402
0.00259798
0.00259576
0.00258621
0.00259797
0.00258401
0.00258621
0.00259806
0.00258392
0.002584
0.00259575
0.00259797
0.0025862
0.00259796
0.0025862
0.002584
0.00259804
0.00259804
0.0025844
0.00258393
0.00258394
0.0025457
0.00255982
0.00255982
0.00254571
0.00255983
0.0025457
0.00254571
0.00255983
0.00255983
0.00254573
0.00255756
0.00255756
0.00255757
0.0025289
0.0025289
0.0025289
0.0025289
0.0025458
0.00255976
0.00255754
0.00254798
0.00255975
0.00254579
0.00254799
0.00255983
0.00254571
0.0025458
0.00255754
0.00255975
0.00254798
0.00255975
0.00254799
0.00254579
0.00255984
0.00255984
0.00254618
0.00254573
0.00254573
0.0025075
0.00252162
0.00252161
0.00250751
0.00252163
0.0025075
0.0025075
0.00252163
0.00252162
0.00250751
0.00251935
0.00251935
0.00251935
0.00249069
0.00249069
0.00249069
0.00249069
0.00250757
0.00252153
0.00251932
0.00250977
0.00252153
0.00250757
0.00250977
0.00252163
0.00250751
0.00250759
0.00251933
0.00252155
0.00250977
0.00252153
0.00250978
0.00250758
0.00252162
0.00252162
0.00250797
0.0025075
0.00250751
0.00246929
0.00248341
0.00248341
0.00246929
0.00248341
0.00246929
0.00246929
0.0024834
0.0024834
0.00246928
0.00248114
0.00248114
0.00248114
0.00245248
0.00245248
0.00245248
0.00245248
0.00246937
0.00248333
0.00248112
0.00247156
0.00248332
0.00246936
0.00247156
0.00248341
0.00246929
0.00246937
0.00248112
0.00248333
0.00247156
0.00248332
0.00247157
0.00246937
0.00248341
0.00248341
0.00246976
0.00246929
0.00246929
0.00243108
0.00244519
0.00244519
0.00243108
0.0024452
0.00243107
0.00243108
0.0024452
0.0024452
0.00243109
0.00244293
0.00244293
0.00244293
0.00241427
0.00241427
0.00241427
0.00241427
0.00243117
0.00244512
0.00244291
0.00243335
0.00244511
0.00243116
0.00243336
0.0024452
0.00243108
0.00243117
0.00244291
0.00244512
0.00243335
0.00244511
0.00243336
0.00243116
0.0024452
0.0024452
0.00243155
0.00243109
0.0024311
0.00239287
0.00240699
0.00240698
0.00239288
0.002407
0.00239286
0.00239286
0.00240699
0.00240699
0.00239287
0.00240472
0.00240472
0.00240472
0.00237606
0.00237606
0.00237606
0.00237606
0.00239295
0.00240691
0.0024047
0.00239514
0.0024069
0.00239295
0.00239514
0.00240699
0.00239287
0.00239295
0.00240469
0.00240691
0.00239514
0.0024069
0.00239514
0.00239295
0.00240698
0.00240698
0.00239334
0.00239287
0.00239287
0.00235467
0.00236878
0.00236878
0.00235468
0.00236879
0.00235466
0.00235466
0.00236878
0.00236878
0.00235467
0.00236651
0.00236651
0.00236651
0.00233785
0.00233785
0.00233785
0.00233785
0.00235475
0.0023687
0.00236649
0.00235694
0.0023687
0.00235474
0.00235694
0.00236879
0.00235466
0.00235474
0.00236649
0.00236871
0.00235693
0.00236869
0.00235693
0.00235473
0.00236878
0.00236877
0.00235513
0.00235468
0.00235467
0.00231645
0.00233057
0.00233057
0.00231646
0.00233059
0.00231645
0.00231645
0.00233057
0.00233056
0.00231645
0.0023283
0.0023283
0.0023283
0.00229963
0.00229963
0.00229963
0.00229963
0.00231654
0.00233051
0.00232828
0.00231872
0.00233049
0.00231653
0.00231873
0.00233057
0.00231645
0.00231653
0.00232827
0.00233049
0.00231872
0.00233048
0.00231872
0.00231652
0.00233056
0.00233057
0.00231692
0.00231646
0.00231646
0.00227823
0.00229235
0.00229235
0.00227823
0.00229236
0.00227823
0.00227823
0.00229235
0.00229235
0.00227823
0.00229008
0.00229008
0.00229008
0.00226142
0.00226142
0.00226142
0.00226142
0.00227831
0.00229227
0.00229006
0.0022805
0.00229226
0.0022783
0.00228051
0.00229236
0.00227823
0.00227831
0.00229006
0.00229228
0.0022805
0.00229226
0.00228051
0.00227831
0.00229235
0.00229235
0.0022787
0.00227824
0.00227824
0.00224001
0.00225414
0.00225413
0.00224002
0.00225416
0.00224002
0.00224001
0.00225414
0.00225414
0.00224002
0.00225187
0.00225187
0.00225187
0.0022232
0.0022232
0.0022232
0.0022232
0.0022401
0.00225407
0.00225185
0.00224229
0.00225405
0.00224009
0.00224229
0.00225415
0.00224001
0.0022401
0.00225184
0.00225407
0.00224229
0.00225405
0.00224229
0.0022401
0.00225414
0.00225413
0.00224048
0.00224002
0.00224002
0.0022018
0.00221592
0.00221592
0.00220181
0.00221592
0.00220179
0.0022018
0.00221591
0.00221591
0.0022018
0.00221365
0.00221365
0.00221365
0.00218499
0.00218498
0.00218499
0.00218498
0.00220188
0.00221585
0.00221363
0.00220407
0.00221584
0.00220188
0.00220407
0.00221592
0.00220179
0.00220188
0.00221363
0.00221584
0.00220407
0.00221584
0.00220408
0.00220187
0.00221592
0.00221592
0.00220227
0.00220181
0.00220182
0.00216358
0.0021777
0.00217769
0.0021636
0.0021777
0.00216358
0.00216359
0.00217771
0.0021777
0.0021636
0.00217543
0.00217544
0.00217543
0.00214678
0.00214677
0.00214677
0.00214677
0.00216366
0.00217762
0.0021754
0.00216585
0.00217761
0.00216365
0.00216585
0.00217771
0.00216359
0.00216367
0.00217541
0.00217763
0.00216586
0.00217762
0.00216586
0.00216367
0.00217769
0.0021777
0.00216405
0.00216358
0.00216359
0.00212538
0.0021395
0.00213949
0.00212538
0.0021395
0.00212539
0.00212537
0.0021395
0.00213949
0.00212538
0.00213722
0.00213722
0.00213722
0.00210856
0.00210857
0.00210856
0.00210856
0.00212546
0.00213941
0.0021372
0.00212765
0.0021394
0.00212545
0.00212765
0.0021395