/*--------------------------------*- C++ -*----------------------------------*\
| =========                 |                                                 |
| \\      /  F ield         | OpenFOAM: The Open Source CFD Toolbox           |
|  \\    /   O peration     | Version:  v2012                                 |
|   \\  /    A nd           | Website:  www.openfoam.com                      |
|    \\/     M anipulation  |                                                 |
\*---------------------------------------------------------------------------*/
FoamFile
{
    version     2.0;
    format      ascii;
    class       surfaceScalarField;
    location    "50";
    object      phi;
}
// * * * * * * * * * * * * * * * * * * * * * * * * * * * * * * * * * * * * * //

dimensions      [0 3 -1 0 0 0 0];
oriented        oriented;


internalField   nonuniform List<scalar> 
248808
(
-0.00104218
-1.46315e-05
-1.4529e-05
9.38405e-06
9.21354e-06
0.00105274
-0.000261492
-5.68288e-06
1.45083e-05
6.88666e-06
0.00105925
-4.59045e-06
-1.59516e-06
-2.11961e-06
-2.4898e-06
-6.618e-06
-7.11417e-06
-2.98533e-06
-0.000263335
-0.000259763
-0.000262859
-0.000261469
-5.68842e-06
1.45386e-05
6.97757e-06
0.00105904
-4.59676e-06
-1.60557e-06
-2.12777e-06
-2.49492e-06
-6.61096e-06
-7.11142e-06
-2.98783e-06
-0.000259734
-0.000263306
-0.000262822
-0.000260563
5.65926e-06
5.69866e-06
-4.95297e-06
-4.94728e-06
0.000259106
-1.65254e-06
-1.65494e-06
-0.00106079
9.33914e-07
9.34131e-07
0.00106223
-0.00106274
-1.6181e-06
1.64707e-06
8.3127e-07
0.00106394
-6.79442e-07
8.34178e-07
-9.92968e-08
4.23852e-07
-8.50943e-07
-1.42967e-06
-2.55914e-07
-0.00106242
-1.61327e-06
1.65901e-06
8.27127e-07
0.00106362
-6.79452e-07
8.28472e-07
-9.94083e-08
4.2071e-07
-8.53557e-07
-1.42995e-06
-2.53462e-07
-0.000261566
1.65014e-06
1.61301e-06
-6.97502e-07
-7.01803e-07
0.000259702
-1.37579e-06
-1.37645e-06
-0.00106636
6.96258e-07
6.97818e-07
0.00106772
-0.00106788
-1.57157e-06
1.3814e-06
6.89938e-07
0.00106923
-6.55993e-07
8.78081e-07
-7.30103e-08
4.6042e-07
-8.37488e-07
-1.39819e-06
-2.23067e-07
-0.00106756
-1.56672e-06
1.37591e-06
6.96191e-07
0.0010689
-6.56373e-07
8.72378e-07
-7.33281e-08
4.60717e-07
-8.36995e-07
-1.39236e-06
-2.20244e-07
-0.000262802
1.60138e-06
1.56704e-06
-6.63324e-07
-6.71756e-07
0.000260968
-1.34895e-06
-1.35032e-06
-0.00107181
6.74905e-07
6.7617e-07
0.00107316
-0.00107323
-1.57121e-06
1.35095e-06
6.6623e-07
0.00107454
-6.52261e-07
8.99895e-07
-5.33881e-08
4.73928e-07
-8.26843e-07
-1.403e-06
-1.96442e-07
-0.00107289
-1.56603e-06
1.35044e-06
6.66478e-07
0.00107421
-6.49684e-07
8.94387e-07
-5.55305e-08
4.73983e-07
-8.29156e-07
-1.40267e-06
-1.93843e-07
-0.000264079
1.5988e-06
1.56668e-06
-6.55549e-07
-6.61157e-07
0.000262231
-1.30236e-06
-1.30399e-06
-0.00107714
6.51048e-07
6.51859e-07
0.00107844
-0.0010784
-1.5628e-06
1.30464e-06
6.35816e-07
0.00107965
-6.37191e-07
9.23346e-07
-3.56503e-08
4.92219e-07
-8.06809e-07
-1.4006e-06
-1.67484e-07
-0.00107806
-1.55753e-06
1.30429e-06
6.36091e-07
0.00107931
-6.34482e-07
9.17894e-07
-3.75775e-08
4.9212e-07
-8.09309e-07
-1.40043e-06
-1.65033e-07
-0.000265297
1.59045e-06
1.558e-06
-6.39563e-07
-6.45249e-07
0.000263434
-1.25484e-06
-1.25611e-06
-0.00108228
6.28036e-07
6.29005e-07
0.00108353
-0.00108332
-1.5538e-06
1.25668e-06
6.07577e-07
0.00108451
-6.22637e-07
9.43515e-07
-1.69695e-08
5.10814e-07
-7.84298e-07
-1.39298e-06
-1.41625e-07
-0.00108298
-1.54833e-06
1.25662e-06
6.07646e-07
0.00108417
-6.19745e-07
9.38238e-07
-1.94617e-08
5.10732e-07
-7.86825e-07
-1.39284e-06
-1.39222e-07
-0.000266441
1.58144e-06
1.54874e-06
-6.23383e-07
-6.2898e-07
0.000264564
-1.20932e-06
-1.21083e-06
-0.00108722
6.07043e-07
6.07802e-07
0.00108843
-0.00108801
-1.54566e-06
1.21062e-06
5.84115e-07
0.00108914
-6.09501e-07
9.60223e-07
-2.24198e-09
5.29527e-07
-7.60772e-07
-1.38142e-06
-1.193e-07
-0.00108767
-1.54021e-06
1.21066e-06
5.84239e-07
0.0010888
-6.06698e-07
9.54862e-07
-4.84466e-09
5.29497e-07
-7.63337e-07
-1.38127e-06
-1.1688e-07
-0.000267514
1.5735e-06
1.54056e-06
-6.08526e-07
-6.14161e-07
0.000265622
-1.15e-06
-1.15176e-06
-0.00109196
5.78847e-07
5.79331e-07
0.0010931
-0.00109244
-1.53403e-06
1.15097e-06
5.56802e-07
0.00109351
-5.92923e-07
9.77213e-07
1.28411e-08
5.53303e-07
-7.30224e-07
-1.36036e-06
-9.55815e-08
-0.0010921
-1.5287e-06
1.15102e-06
5.57213e-07
0.00109316
-5.90239e-07
9.71748e-07
1.01254e-08
5.53334e-07
-7.32824e-07
-1.36022e-06
-9.31225e-08
-0.000268512
1.56208e-06
1.52892e-06
-5.89826e-07
-5.95541e-07
0.000266607
-1.04022e-06
-1.04203e-06
-0.00109639
5.24646e-07
5.24971e-07
0.00109742
-0.00109653
-1.50885e-06
1.04175e-06
5.06218e-07
0.00109747
-5.61757e-07
1.00427e-06
4.58401e-08
5.94633e-07
-6.80752e-07
-1.31815e-06
-6.04674e-08
-0.00109619
-1.50336e-06
1.04203e-06
5.06508e-07
0.00109712
-5.58963e-07
9.99041e-07
4.22891e-08
5.94816e-07
-6.83413e-07
-1.31803e-06
-5.81461e-08
-0.000269409
1.53692e-06
1.50351e-06
-5.55182e-07
-5.60915e-07
0.000267484
-8.38921e-07
-8.39842e-07
-0.00110024
4.28253e-07
4.28743e-07
0.00110106
-0.00109997
-1.45938e-06
8.39585e-07
4.1249e-07
0.00110068
-5.04429e-07
1.0522e-06
1.06788e-07
6.70861e-07
-5.9725e-07
-1.23816e-06
7.08194e-09
-0.00109963
-1.45401e-06
8.3985e-07
4.12246e-07
0.00110034
-5.01821e-07
1.04698e-06
1.03759e-07
6.70671e-07
-6.00305e-07
-1.23858e-06
9.94933e-09
-0.000270123
1.48729e-06
1.45377e-06
-4.9097e-07
-4.96595e-07
0.00026817
-5.77589e-07
-5.78355e-07
-0.00110311
3.0486e-07
3.05238e-07
0.00110366
-0.00110237
-1.39068e-06
5.76795e-07
2.89901e-07
0.00110279
-4.32542e-07
1.11534e-06
1.70169e-07
7.62975e-07
-4.94788e-07
-1.13846e-06
1.19796e-07
-0.00110203
-1.3856e-06
5.75981e-07
2.8981e-07
0.00110245
-4.32785e-07
1.1097e-06
1.69961e-07
7.63592e-07
-4.97059e-07
-1.13772e-06
1.2344e-07
-0.000270568
1.41865e-06
1.38537e-06
-4.05219e-07
-4.10725e-07
0.00026858
-3.4014e-07
-3.4032e-07
-0.00110492
1.87416e-07
1.87573e-07
0.00110522
-0.00110369
-1.3287e-06
3.39682e-07
1.78725e-07
0.00110389
-3.72528e-07
1.1719e-06
2.25287e-07
8.43219e-07
-4.07588e-07
-1.05037e-06
2.02918e-07
-0.00110334
-1.32304e-06
3.40118e-07
1.79225e-07
0.00110354
-3.72262e-07
1.16705e-06
2.25646e-07
8.42482e-07
-4.10711e-07
-1.05076e-06
2.05418e-07
-0.00027076
1.35692e-06
1.32329e-06
-3.31889e-07
-3.3726e-07
0.000268749
-1.63284e-07
-1.63301e-07
-0.00110586
9.41611e-08
9.4148e-08
0.001106
-0.00110425
-1.28335e-06
1.65149e-07
8.96314e-08
0.00110432
-3.29875e-07
1.21277e-06
2.63424e-07
8.97922e-07
-3.49527e-07
-9.90273e-07
2.56106e-07
-0.00110391
-1.27795e-06
1.65182e-07
8.99676e-08
0.00110397
-3.30145e-07
1.20733e-06
2.63181e-07
8.9814e-07
-3.52457e-07
-9.89757e-07
2.59037e-07
-0.000270805
1.31191e-06
1.27814e-06
-2.81766e-07
-2.87297e-07
0.000268784
-6.22578e-08
-6.25172e-08
-0.00110626
3.77307e-08
3.76606e-08
0.00110631
-0.00110443
-1.25839e-06
6.30055e-08
3.68343e-08
0.00110444
-3.07649e-07
1.23418e-06
2.82427e-07
9.2621e-07
-3.18488e-07
-9.57861e-07
2.83955e-07
-0.00110408
-1.25335e-06
6.29009e-08
3.66061e-08
0.00110409
-3.07882e-07
1.2286e-06
2.82257e-07
9.26726e-07
-3.21399e-07
-9.57384e-07
2.86777e-07
-0.000270797
1.28678e-06
1.25299e-06
-2.56013e-07
-2.61123e-07
0.000268774
-1.98313e-08
-1.91128e-08
-0.00110639
1.20258e-08
1.25242e-08
0.00110641
-0.00110446
-1.24841e-06
1.86142e-08
1.42296e-08
0.00110446
-2.99202e-07
1.24284e-06
2.89957e-07
9.37207e-07
-3.06774e-07
-9.45145e-07
2.94026e-07
-0.00110411
-1.243e-06
1.8408e-08
1.4023e-08
0.00110411
-2.98992e-07
1.23727e-06
2.89881e-07
9.36938e-07
-3.09323e-07
-9.45117e-07
2.97283e-07
-0.000270784
1.2764e-06
1.24267e-06
-2.46041e-07
-2.51578e-07
0.000268763
-4.71911e-09
-4.54704e-09
-0.00110643
2.92046e-09
2.8126e-09
0.00110643
-0.00110446
-1.24495e-06
3.31711e-09
5.39037e-09
0.00110446
-2.95809e-07
1.24575e-06
2.9269e-07
9.40269e-07
-3.0306e-07
-9.41622e-07
2.97442e-07
-0.00110411
-1.23965e-06
3.98915e-09
6.19411e-09
0.00110411
-2.96043e-07
1.24023e-06
2.92323e-07
9.40134e-07
-3.0602e-07
-9.41791e-07
3.00211e-07
-0.00027078
1.2733e-06
1.23952e-06
-2.43204e-07
-2.48795e-07
0.000268759
5.74811e-10
-4.32541e-10
-0.00110644
1.28845e-11
-6.01815e-10
0.00110644
-0.00110446
-1.24381e-06
-2.31198e-10
3.48919e-09
0.00110446
-2.95321e-07
1.24681e-06
2.93015e-07
9.40715e-07
-3.02222e-07
-9.40872e-07
2.98151e-07
-0.00110411
-1.23897e-06
3.13862e-10
4.25633e-09
0.00110411
-2.95507e-07
1.24083e-06
2.92983e-07
9.40821e-07
-3.0542e-07
-9.40721e-07
3.00689e-07
-0.000270779
1.27258e-06
1.23856e-06
-2.42399e-07
-2.48229e-07
0.000268758
3.86703e-10
9.62268e-10
-0.00110644
-9.61727e-10
-7.81301e-10
0.00110644
-0.00110446
-1.24425e-06
-5.63097e-10
4.45719e-09
0.00110446
-2.95304e-07
1.24628e-06
2.93087e-07
9.40905e-07
-3.02582e-07
-9.40941e-07
2.97839e-07
-0.00110411
-1.23829e-06
-7.49506e-10
3.6178e-09
0.00110411
-2.94905e-07
1.24142e-06
2.93501e-07
9.40319e-07
-3.05264e-07
-9.41264e-07
3.00616e-07
-0.000270778
1.2723e-06
1.23838e-06
-2.42196e-07
-2.47849e-07
0.000268757
5.81289e-10
2.04594e-09
-0.00110644
-1.60277e-09
-1.09172e-09
0.00110644
-0.00110446
-1.2442e-06
-7.3262e-10
4.85382e-09
0.00110446
-2.95426e-07
1.24643e-06
2.93e-07
9.40665e-07
-3.02514e-07
-9.41161e-07
2.97841e-07
-0.00110411
-1.23845e-06
-1.8804e-09
3.55776e-09
0.00110411
-2.94804e-07
1.24128e-06
2.93368e-07
9.40791e-07
-3.04754e-07
-9.40706e-07
3.00985e-07
-0.000270779
1.27229e-06
1.23877e-06
-2.42684e-07
-2.4775e-07
0.000268758
7.08179e-10
1.07362e-09
-0.00110644
-1.13165e-09
-1.04713e-09
0.00110644
-0.00110446
-1.24419e-06
-1.08517e-09
3.9278e-09
0.00110446
-2.95395e-07
1.24642e-06
2.93151e-07
9.40855e-07
-3.02347e-07
-9.40994e-07
2.98174e-07
-0.00110411
-1.23858e-06
-4.41021e-10
4.24071e-09
0.00110411
-2.95041e-07
1.24106e-06
2.93454e-07
9.40169e-07
-3.05172e-07
-9.41339e-07
3.00661e-07
-0.000270778
1.27239e-06
1.23863e-06
-2.42495e-07
-2.47816e-07
0.000268757
4.16827e-10
4.01533e-10
-0.00110643
-9.26739e-10
-1.22663e-09
0.00110643
-0.00110446
-1.2437e-06
-5.86977e-10
3.50947e-09
0.00110446
-2.97653e-07
1.24677e-06
2.96248e-07
9.40381e-07
-3.02504e-07
-9.41276e-07
2.98019e-07
-0.00110411
-1.23843e-06
-6.681e-10
3.59343e-09
0.00110411
-2.95022e-07
1.24127e-06
2.93266e-07
9.40444e-07
-3.05189e-07
-9.4074e-07
3.00812e-07
-0.000270778
1.27233e-06
1.2385e-06
-2.42338e-07
-2.47937e-07
0.000268757
1.82713e-09
4.365e-10
-0.00110643
-6.67793e-10
-1.67611e-09
0.00110643
-0.00110446
-1.24331e-06
-1.18031e-09
2.58747e-09
0.00110446
-2.97039e-07
1.24721e-06
2.96767e-07
9.40578e-07
-3.02493e-07
-9.41518e-07
2.97978e-07
-0.00110411
-1.23888e-06
-1.81663e-10
4.44528e-09
0.00110411
-2.95377e-07
1.24095e-06
2.92856e-07
9.4052e-07
-3.05294e-07
-9.40688e-07
3.00784e-07
-0.000270778
1.27281e-06
1.23881e-06
-2.42766e-07
-2.48242e-07
0.000268758
9.22085e-10
-8.53929e-10
-0.00110643
4.60088e-10
-9.70532e-10
0.00110643
-0.00110446
-1.24403e-06
-2.33545e-09
4.07032e-09
0.00110446
-2.98134e-07
1.24632e-06
2.95817e-07
9.41881e-07
-3.02172e-07
-9.40198e-07
2.98247e-07
-0.00110411
-1.2388e-06
-8.51189e-10
4.58224e-09
0.00110411
-2.95118e-07
1.24104e-06
2.93196e-07
9.40585e-07
-3.05364e-07
-9.40866e-07
3.00533e-07
-0.000270778
1.27247e-06
1.23807e-06
-2.41979e-07
-2.4802e-07
0.000268758
1.04446e-09
5.64828e-10
-0.00110643
-6.03917e-10
-1.34698e-09
0.00110643
-0.00110446
-1.24406e-06
-1.97749e-09
3.61284e-09
0.00110446
-2.97907e-07
1.24646e-06
2.96002e-07
9.41624e-07
-3.02474e-07
-9.4047e-07
2.97978e-07
-0.00110411
-1.23841e-06
-3.13459e-10
3.75704e-09
0.00110411
-2.94881e-07
1.24135e-06
2.93296e-07
9.40513e-07
-3.05407e-07
-9.4139e-07
3.0045e-07
-0.000270778
1.27244e-06
1.23826e-06
-2.42073e-07
-2.48041e-07
0.000268758
2.21554e-09
2.36238e-09
-0.00110643
-1.89793e-09
-2.28813e-09
0.00110643
-0.00110446
-1.24381e-06
-1.12053e-09
3.28459e-09
0.00110446
-2.97424e-07
1.24661e-06
2.96333e-07
9.40922e-07
-3.02567e-07
-9.40938e-07
2.98031e-07
-0.00110411
-1.23869e-06
-4.33081e-10
3.47668e-09
0.00110411
-2.95209e-07
1.24102e-06
2.9305e-07
9.4114e-07
-3.05358e-07
-9.40557e-07
3.00302e-07
-0.000270779
1.27242e-06
1.23858e-06
-2.42334e-07
-2.48087e-07
0.000268759
1.48322e-10
8.4562e-10
-0.00110643
-8.79099e-10
-6.84282e-10
0.00110643
-0.00110446
-1.24382e-06
-2.07784e-09
3.00579e-09
0.00110446
-2.97918e-07
1.24653e-06
2.96063e-07
9.41079e-07
-3.01888e-07
-9.40773e-07
2.98705e-07
-0.00110411
-1.23869e-06
-1.85635e-09
3.74499e-09
0.00110411
-2.95244e-07
1.24075e-06
2.92809e-07
9.41101e-07
-3.0464e-07
-9.40329e-07
3.0126e-07
-0.000270778
1.27192e-06
1.23853e-06
-2.42216e-07
-2.47589e-07
0.000268758
-3.37279e-10
1.58021e-09
-0.00110643
-1.33596e-09
-1.91614e-10
0.00110643
-0.00110446
-1.24402e-06
-3.62838e-10
4.48264e-09
0.00110446
-2.98238e-07
1.24633e-06
2.95751e-07
9.40775e-07
-3.02542e-07
-9.4097e-07
2.98037e-07
-0.00110411
-1.23857e-06
-2.90177e-09
3.88565e-09
0.00110411
-2.95247e-07
1.2408e-06
2.92966e-07
9.41486e-07
-3.04599e-07
-9.4022e-07
3.01318e-07
-0.000270778
1.27159e-06
1.23849e-06
-2.42338e-07
-2.47335e-07
0.000268757
4.29028e-10
2.5712e-09
-0.00110643
-2.10991e-09
-8.52782e-10
0.00110643
-0.00110446
-1.24406e-06
7.43829e-10
4.57835e-09
0.00110446
-2.98214e-07
1.24659e-06
2.95818e-07
9.40182e-07
-3.02774e-07
-9.4147e-07
2.97501e-07
-0.00110411
-1.23817e-06
-2.9462e-09
2.73084e-09
0.00110411
-2.94579e-07
1.24136e-06
2.93662e-07
9.40816e-07
-3.04454e-07
-9.40509e-07
3.01334e-07
-0.000270778
1.27212e-06
1.23892e-06
-2.42905e-07
-2.47692e-07
0.000268758
1.74198e-09
4.57472e-10
-0.00110643
-9.78703e-10
-1.2689e-09
0.00110643
-0.00110446
-1.24377e-06
-1.05312e-09
3.37056e-09
0.00110446
-2.97405e-07
1.2467e-06
2.96429e-07
9.40758e-07
-3.02633e-07
-9.40784e-07
2.9806e-07
-0.00110411
-1.23833e-06
-1.19629e-09
3.53035e-09
0.00110411
-2.94707e-07
1.24129e-06
2.93383e-07
9.40777e-07
-3.0502e-07
-9.40678e-07
3.00703e-07
-0.000270779
1.27234e-06
1.23858e-06
-2.42537e-07
-2.47917e-07
0.000268759
8.95925e-10
1.27109e-11
-0.00110643
-1.78295e-10
-1.07351e-09
0.00110643
-0.00110446
-1.24372e-06
-2.34602e-09
3.41394e-09
0.00110446
-2.97688e-07
1.2465e-06
2.95913e-07
9.41449e-07
-3.0198e-07
-9.40379e-07
2.98445e-07
-0.00110411
-1.23862e-06
-3.40711e-10
4.16373e-09
0.00110411
-2.95116e-07
1.24113e-06
2.93244e-07
9.40402e-07
-3.05498e-07
-9.41012e-07
3.0035e-07
-0.000270779
1.27232e-06
1.23828e-06
-2.42206e-07
-2.47814e-07
0.000268759
1.41779e-09
9.66956e-10
-0.00110643
-1.03277e-09
-1.27336e-09
0.00110643
-0.00110446
-1.2439e-06
-2.25732e-09
3.20141e-09
0.00110446
-2.97763e-07
1.24636e-06
2.95821e-07
9.41298e-07
-3.01751e-07
-9.40628e-07
2.98766e-07
-0.00110411
-1.23844e-06
-1.59391e-09
3.13549e-09
0.00110411
-2.94843e-07
1.24132e-06
2.93379e-07
9.40696e-07
-3.05069e-07
-9.40466e-07
3.00868e-07
-0.000270779
1.27234e-06
1.23844e-06
-2.42199e-07
-2.47917e-07
0.000268759
1.24465e-09
1.39822e-09
-0.00110643
-1.35275e-09
-1.33272e-09
0.00110643
-0.00110446
-1.2437e-06
-1.25012e-09
3.28563e-09
0.00110446
-2.97562e-07
1.24646e-06
2.96288e-07
9.40869e-07
-3.02473e-07
-9.40814e-07
2.97872e-07
-0.00110411
-1.23853e-06
-1.93727e-09
3.43385e-09
0.00110411
-2.95129e-07
1.24117e-06
2.93212e-07
9.41002e-07
-3.04839e-07
-9.40476e-07
3.01228e-07
-0.000270779
1.27236e-06
1.23875e-06
-2.42515e-07
-2.4793e-07
0.000268759
4.89534e-10
1.4749e-09
-0.00110643
-1.18916e-09
-8.50426e-10
0.00110643
-0.00110446
-1.24363e-06
-1.13431e-09
3.14461e-09
0.00110446
-2.97613e-07
1.24675e-06
2.96183e-07
9.40785e-07
-3.02292e-07
-9.41011e-07
2.98265e-07
-0.00110411
-1.23871e-06
-1.57562e-09
3.63529e-09
0.00110411
-2.95137e-07
1.24104e-06
2.93251e-07
9.413e-07
-3.05112e-07
-9.4041e-07
3.00619e-07
-0.000270778
1.27177e-06
1.23834e-06
-2.42369e-07
-2.47174e-07
0.000268757
1.9369e-12
1.45119e-09
-0.00110643
-1.54182e-09
-4.2034e-10
0.00110643
-0.00110446
-1.24397e-06
3.28451e-10
4.06057e-09
0.00110446
-2.98266e-07
1.24667e-06
2.95836e-07
9.40218e-07
-3.02744e-07
-9.41796e-07
2.97713e-07
-0.00110411
-1.23865e-06
-1.63042e-09
3.27678e-09
0.00110411
-2.95275e-07
1.24118e-06
2.93194e-07
9.40944e-07
-3.04812e-07
-9.40176e-07
3.01046e-07
-0.000270777
1.2719e-06
1.23875e-06
-2.42666e-07
-2.4743e-07
0.000268757
8.84089e-10
1.49792e-09
-0.00110643
-1.66022e-09
-9.91241e-10
0.00110643
-0.00110446
-1.24406e-06
-7.5058e-10
3.60918e-09
0.00110446
-2.97779e-07
1.24645e-06
2.96044e-07
9.41294e-07
-3.02589e-07
-9.40735e-07
2.97971e-07
-0.00110411
-1.23846e-06
-1.15699e-09
2.68582e-09
0.00110411
-2.95018e-07
1.2413e-06
2.93491e-07
9.40664e-07
-3.04937e-07
-9.40747e-07
3.01155e-07
-0.000270778
1.27232e-06
1.23881e-06
-2.42687e-07
-2.4793e-07
0.000268757
1.63409e-09
9.22559e-10
-0.00110643
-1.2977e-09
-1.53106e-09
0.00110643
-0.00110446
-1.24427e-06
-1.02684e-09
4.46453e-09
0.00110446
-2.98266e-07
1.24617e-06
2.95586e-07
9.41411e-07
-3.0219e-07
-9.40668e-07
2.98241e-07
-0.00110411
-1.23881e-06
-1.10027e-09
4.47885e-09
0.00110411
-2.95517e-07
1.24093e-06
2.9309e-07
9.40798e-07
-3.05268e-07
-9.40697e-07
3.00709e-07
-0.000270777
1.27203e-06
1.2385e-06
-2.42227e-07
-2.4774e-07
0.000268757
1.02705e-10
1.35183e-09
-0.00110643
-1.13316e-09
-6.45933e-10
0.00110643
-0.00110446
-1.24397e-06
-6.66495e-10
3.84164e-09
0.00110446
-2.97786e-07
1.24655e-06
2.9606e-07
9.40314e-07
-3.02457e-07
-9.4143e-07
2.98096e-07
-0.00110411
-1.23841e-06
-1.55894e-09
3.42001e-09
0.00110412
-2.94975e-07
1.24138e-06
2.93554e-07
9.40548e-07
-3.05029e-07
-9.41187e-07
3.01156e-07
-0.000270777
1.27246e-06
1.2387e-06
-2.4259e-07
-2.48138e-07
0.000268757
1.25072e-09
1.07431e-09
-0.00110643
-7.68974e-10
-1.2085e-09
0.00110643
-0.00110446
-1.24368e-06
-1.7124e-09
3.63401e-09
0.00110446
-2.97543e-07
1.24696e-06
2.96511e-07
9.40734e-07
-3.02512e-07
-9.40956e-07
2.97958e-07
-0.00110411
-1.23855e-06
-1.0126e-09
3.3708e-09
0.00110411
-2.95198e-07
1.241e-06
2.9295e-07
9.41099e-07
-3.05032e-07
-9.40462e-07
3.01009e-07
-0.000270779
1.27271e-06
1.23833e-06
-2.4224e-07
-2.48301e-07
0.000268758
5.48527e-10
-1.82308e-11
-0.00110643
1.016e-10
-9.23109e-10
0.00110643
-0.00110446
-1.24368e-06
-3.64132e-09
3.17548e-09
0.00110446
-2.97619e-07
1.24691e-06
2.96442e-07
9.4149e-07
-3.01861e-07
-9.40401e-07
2.98738e-07
-0.00110411
-1.23863e-06
-4.64165e-10
4.8714e-09
0.00110412
-2.95219e-07
1.24062e-06
2.9269e-07
9.4066e-07
-3.05203e-07
-9.40754e-07
3.00621e-07
-0.000270779
1.27227e-06
1.23791e-06
-2.41815e-07
-2.47714e-07
0.000268758
5.13056e-10
9.61033e-10
-0.00110643
-1.11036e-09
-8.99265e-10
0.00110643
-0.00110446
-1.24418e-06
-1.01012e-09
4.37261e-09
0.00110446
-2.98357e-07
1.24652e-06
2.95897e-07
9.40804e-07
-3.02423e-07
-9.40954e-07
2.97778e-07
-0.00110411
-1.23851e-06
-1.28631e-09
3.88983e-09
0.00110411
-2.95139e-07
1.24089e-06
2.93323e-07
9.40872e-07
-3.0507e-07
-9.40492e-07
3.00838e-07
-0.000270779
1.27233e-06
1.23825e-06
-2.4217e-07
-2.47926e-07
0.000268758
4.61702e-10
-7.05228e-09
-0.00110643
-2.18617e-09
-1.08167e-09
0.00110644
-0.00110446
-1.24423e-06
3.26382e-10
4.20023e-09
0.00110446
-2.98332e-07
1.24655e-06
2.96063e-07
9.40812e-07
-3.03019e-07
-9.4156e-07
2.97684e-07
-0.00110411
-1.23807e-06
-1.15081e-09
2.64576e-09
0.00110411
-2.94768e-07
1.24144e-06
2.93373e-07
9.40491e-07
-3.04893e-07
-9.40978e-07
3.01095e-07
-0.000270779
1.27221e-06
1.23868e-06
-2.42473e-07
-2.47815e-07
0.000268758
8.54004e-10
9.59144e-10
-0.00110644
-1.19359e-09
-1.04205e-09
0.00110644
-0.00110446
-1.244e-06
-1.1836e-09
3.42551e-09
0.00110446
-2.95074e-07
1.24677e-06
2.93421e-07
9.41044e-07
-3.02338e-07
-9.41073e-07
2.9807e-07
-0.00110411
-1.23854e-06
-5.65384e-10
3.69976e-09
0.00110411
-2.95115e-07
1.24116e-06
2.93296e-07
9.40403e-07
-3.05454e-07
-9.41266e-07
3.00725e-07
-0.000270779
1.27248e-06
1.23884e-06
-2.4259e-07
-2.48208e-07
0.000268758
3.84752e-11
-2.42862e-10
-0.00110644
-2.08649e-10
-4.02355e-10
0.00110644
-0.00110446
-1.24424e-06
-1.21035e-09
4.20016e-09
0.00110446
-2.95388e-07
1.24637e-06
2.92899e-07
9.41054e-07
-3.02322e-07
-9.40827e-07
2.9816e-07
-0.00110412
-1.23861e-06
-1.28258e-09
4.06929e-09
0.00110412
-2.95119e-07
1.24099e-06
2.93295e-07
9.40809e-07
-3.05353e-07
-9.40729e-07
3.00747e-07
-0.00027078
1.27228e-06
1.23865e-06
-2.42627e-07
-2.47757e-07
0.000268759
6.78014e-10
8.35288e-10
-0.00110644
-7.21485e-10
-8.21447e-10
0.00110644
-0.00110446
-1.24391e-06
-1.45859e-09
3.06558e-09
0.00110446
-2.95201e-07
1.24658e-06
2.93284e-07
9.41494e-07
-3.02167e-07
-9.40278e-07
2.98324e-07
-0.00110412
-1.2383e-06
-1.87074e-09
3.2743e-09
0.00110412
-2.94693e-07
1.24111e-06
2.93458e-07
9.41384e-07
-3.05032e-07
-9.40426e-07
3.00949e-07
-0.00027078
1.27206e-06
1.23879e-06
-2.42699e-07
-2.47404e-07
0.000268759
9.25253e-10
8.82622e-10
-0.00110644
-6.69438e-10
-1.03682e-09
0.00110644
-0.00110446
-1.24365e-06
-1.8433e-09
2.56231e-09
0.00110446
-2.94635e-07
1.24684e-06
2.93629e-07
9.41001e-07
-3.02117e-07
-9.40697e-07
2.98238e-07
-0.00110411
-1.23847e-06
-1.51473e-09
3.69222e-09
0.00110411
-2.95274e-07
1.24096e-06
2.92967e-07
9.40896e-07
-3.0469e-07
-9.40571e-07
3.01081e-07
-0.000270779
1.27245e-06
1.239e-06
-2.42797e-07
-2.47932e-07
0.000268758
7.82189e-10
5.31106e-10
-0.00110644
-5.14006e-10
-9.85662e-10
0.00110644
-0.00110446
-1.24366e-06
-2.55126e-09
2.89248e-09
0.00110446
-2.9472e-07
1.24674e-06
2.93398e-07
9.4141e-07
-3.01804e-07
-9.403e-07
2.98576e-07
-0.00110411
-1.23866e-06
-1.21252e-09
3.95796e-09
0.00110411
-2.9514e-07
1.24086e-06
2.93133e-07
9.41064e-07
-3.05038e-07
-9.40415e-07
3.00875e-07
-0.000270779
1.27242e-06
1.23866e-06
-2.42521e-07
-2.4798e-07
0.000268758
4.02189e-10
7.80196e-10
-0.00110644
-1.02116e-09
-1.06578e-09
0.00110644
-0.00110446
-1.24395e-06
-1.23926e-10
4.21291e-09
0.00110446
-2.95112e-07
1.24635e-06
2.92947e-07
9.40655e-07
-3.02519e-07
-9.41606e-07
2.97934e-07
-0.00110411
-1.23857e-06
-9.91079e-10
4.18423e-09
0.00110411
-2.95137e-07
1.24093e-06
2.92989e-07
9.40661e-07
-3.04932e-07
-9.40899e-07
3.00994e-07
-0.000270779
1.27205e-06
1.23824e-06
-2.42111e-07
-2.47699e-07
0.000268758
5.22813e-06
5.23894e-06
0.000260567
-0.000259154
-5.94726e-06
-5.93301e-06
5.05419e-06
0.000261441
-0.000258685
-5.96316e-06
3.38096e-06
-5.22842e-06
5.04838e-06
0.000261474
-0.0002587
-5.96913e-06
3.37566e-06
5.22804e-06
0.000260579
-0.000259155
-5.91772e-06
-5.96199e-06
5.04744e-06
0.000261505
-0.000258715
-5.96869e-06
3.37057e-06
5.05448e-06
-5.23022e-06
0.000261449
-0.000258684
3.38582e-06
-5.97418e-06
1.06921e-05
1.05978e-05
-0.000252646
-0.000256097
-0.000255126
-0.000255126
-6.41735e-06
-4.11077e-06
-6.65291e-06
-6.41818e-06
-4.11191e-06
-6.65878e-06
-5.04241e-06
0.0010422
1.0651e-05
1.06022e-05
-0.000252648
-0.000256094
-0.000255129
-0.000255129
-6.42014e-06
-4.11088e-06
-6.65487e-06
-6.41517e-06
-4.10644e-06
-6.65097e-06
-5.0416e-06
0.00104207
1.0711e-05
1.06643e-05
-0.000252641
-0.000256089
-0.000255126
-0.000255121
-6.42017e-06
-4.11869e-06
-6.65585e-06
-6.42009e-06
-4.10873e-06
-6.65294e-06
-5.05698e-06
-5.04495e-06
0.00104214
1.07063e-05
1.06083e-05
-0.000252643
-0.000256091
-0.000255126
-0.000255126
-6.41489e-06
-4.11351e-06
-6.65072e-06
-6.41981e-06
-4.11158e-06
-6.65576e-06
-0.00025871
-5.96175e-06
3.36518e-06
-5.22787e-06
0.000261435
-0.000258681
3.38067e-06
-5.964e-06
5.23138e-06
0.000260559
-0.00025914
-5.92131e-06
-5.95887e-06
-0.000258695
3.37314e-06
-5.95748e-06
-5.23865e-06
0.000261502
-0.000258709
3.36806e-06
-5.96715e-06
-0.00025915
-5.9473e-06
-5.93304e-06
5.65938e-06
5.6963e-06
-4.95319e-06
-4.9473e-06
0.000259112
-8.1138e-07
-7.75727e-07
0.000261577
-0.000259444
-2.76179e-07
-2.68955e-07
7.14099e-06
0.00105865
-4.58889e-06
-1.54863e-06
-2.11501e-06
-2.491e-06
-6.63189e-06
-7.11997e-06
-2.99215e-06
-0.000263296
-0.000259719
-0.000262822
-5.66951e-06
1.46041e-05
7.07937e-06
0.00105902
-4.60861e-06
-1.54028e-06
-2.11796e-06
-2.50353e-06
-6.65825e-06
-7.1383e-06
-3.00579e-06
-0.00026337
-0.000259749
-0.000262863
0.00106199
2.11753e-06
-0.00106094
1.04184e-06
-1.75787e-06
-1.32232e-07
-7.45737e-07
-1.54017e-06
-2.93307e-07
-9.12515e-07
3.63875e-07
8.20892e-07
0.00106241
2.11961e-06
-0.00106135
1.03698e-06
-1.76676e-06
-1.23817e-07
-7.49657e-07
-1.54719e-06
-2.96414e-07
-9.17085e-07
3.68386e-07
-4.9507e-06
-4.94396e-06
0.000259121
-7.78842e-07
0.000261602
-0.000259464
-2.72551e-07
-2.65031e-07
6.86156e-06
0.00105949
-4.61295e-06
-1.60827e-06
-2.13106e-06
-2.5006e-06
-6.64499e-06
-7.13232e-06
-3.00337e-06
-0.000263391
-0.000259778
-0.000262877
-5.66939e-06
1.464e-05
7.17316e-06
0.0010588
-4.60768e-06
-1.55093e-06
-2.12291e-06
-2.50393e-06
-6.66225e-06
-7.13578e-06
-3.00803e-06
-0.000259719
-0.000263347
-0.000262836
0.00106301
2.12601e-06
-0.00106195
1.02983e-06
-1.72825e-06
-1.34511e-07
-7.46038e-07
-1.54344e-06
-2.93717e-07
-9.10792e-07
3.66144e-07
8.09015e-07
0.0010621
2.12903e-06
-0.00106107
1.05256e-06
-1.75771e-06
-1.29705e-07
-7.45664e-07
-1.543e-06
-2.91429e-07
-9.16461e-07
3.63881e-07
1.46369e-05
7.15964e-06
0.0010586
-4.58874e-06
-1.54889e-06
-2.11265e-06
-2.49131e-06
-6.63202e-06
-2.99134e-06
-7.11783e-06
-0.000259714
-0.000263291
-0.000262817
2.12287e-06
-0.00106169
1.0356e-06
-1.72766e-06
-1.31879e-07
-7.42938e-07
-1.54014e-06
-2.9564e-07
3.61766e-07
-9.10548e-07
8.09281e-07
0.00106188
2.12602e-06
-0.00106086
1.05291e-06
-1.75754e-06
-1.29679e-07
-7.45579e-07
-1.54266e-06
-2.92665e-07
-9.12429e-07
3.67113e-07
-4.95649e-06
-4.94372e-06
0.000259101
-7.70521e-07
0.000261554
-0.000259427
-2.76438e-07
-2.71076e-07
1.45386e-05
6.87865e-06
0.00105944
-4.61254e-06
-1.60822e-06
-2.1308e-06
-2.5004e-06
-6.64654e-06
-3.00379e-06
-7.12987e-06
-0.000259767
-0.000263387
-0.000262871
2.13039e-06
-0.00106139
1.05182e-06
-1.7255e-06
-1.34363e-07
-7.45726e-07
-1.53781e-06
-2.91243e-07
3.61052e-07
-9.13778e-07
7.70941e-07
0.00106291
2.12995e-06
-0.00106187
1.03939e-06
-1.72285e-06
-1.34283e-07
-7.43234e-07
-1.54046e-06
-2.92934e-07
-9.12623e-07
3.61232e-07
-0.000259442
-2.72558e-07
-2.71548e-07
1.65083e-06
1.61604e-06
-6.96019e-07
-7.04467e-07
0.00025971
-9.05927e-07
-8.67294e-07
0.000262815
-0.000260651
-1.99243e-07
-1.92051e-07
8.32442e-07
0.00106318
-6.81964e-07
8.6681e-07
-9.49938e-08
4.23351e-07
-8.50379e-07
-1.4323e-06
-2.55913e-07
-1.65479e-06
1.6545e-06
8.26952e-07
0.00106361
-6.8356e-07
8.75972e-07
-9.39658e-08
4.28166e-07
-8.56325e-07
-1.43907e-06
-2.5551e-07
0.00106712
1.39127e-06
-0.00106578
7.00977e-07
-1.60509e-06
-7.04288e-08
-6.62747e-07
-1.39242e-06
-2.27795e-07
-8.34807e-07
4.58443e-07
9.11736e-07
0.00106755
1.39124e-06
-0.00106621
6.95245e-07
-1.60984e-06
-7.01437e-08
-6.62545e-07
-1.3955e-06
-2.2802e-07
-8.35806e-07
4.61563e-07
-6.95842e-07
-7.02795e-07
0.000259727
-8.73477e-07
0.00026284
-0.000260663
-1.98511e-07
-1.93865e-07
8.26022e-07
0.00106421
-6.79784e-07
8.31085e-07
-9.72814e-08
4.25841e-07
-8.53301e-07
-1.4354e-06
-2.53493e-07
-1.65078e-06
1.65833e-06
8.3242e-07
0.00106329
-6.84739e-07
8.66932e-07
-9.4966e-08
4.23483e-07
-8.53289e-07
-1.43246e-06
-2.53276e-07
0.00106815
1.39194e-06
-0.00106682
7.00268e-07
-1.56776e-06
-7.50642e-08
-6.58286e-07
-1.38994e-06
-2.24896e-07
-8.34567e-07
4.61404e-07
9.0091e-07
0.00106723
1.39015e-06
-0.00106589
7.0047e-07
-1.6024e-06
-7.26886e-08
-6.62987e-07
-1.39237e-06
-2.27124e-07
-8.34245e-07
4.61456e-07
1.65113e-06
8.3278e-07
0.00106308
-6.84249e-07
8.65037e-07
-9.68183e-08
4.23784e-07
-8.53752e-07
-2.53734e-07
-1.43238e-06
1.39132e-06
-0.00106655
7.03855e-07
-1.57463e-06
-7.64158e-08
-6.5723e-07
-1.3903e-06
-2.25612e-07
4.6088e-07
-8.35433e-07
9.04226e-07
0.00106702
1.38656e-06
-0.00106568
7.00312e-07
-1.60152e-06
-7.19284e-08
-6.61977e-07
-1.39326e-06
-2.29119e-07
-8.36808e-07
4.58067e-07
-6.9919e-07
-7.01077e-07
0.00025969
-8.65072e-07
0.00026279
-0.00026063
-1.99206e-07
-1.94051e-07
1.65327e-06
8.19725e-07
0.00106413
-6.79546e-07
8.26459e-07
-1.0162e-07
4.20693e-07
-8.50103e-07
-2.57792e-07
-1.42994e-06
1.39121e-06
-0.00106622
6.99831e-07
-1.56459e-06
-7.6796e-08
-6.57591e-07
-1.38457e-06
-2.27584e-07
4.53108e-07
-8.34992e-07
8.67716e-07
0.00106805
1.391e-06
-0.00106671
6.99206e-07
-1.56463e-06
-7.71406e-08
-6.58183e-07
-1.39252e-06
-2.27338e-07
-8.37239e-07
4.58721e-07
-0.000260637
-1.98478e-07
-1.94081e-07
1.60474e-06
1.57256e-06
-6.61296e-07
-6.69662e-07
0.000260969
-9.26756e-07
-8.90697e-07
0.000264095
-0.000261922
-1.8044e-07
-1.75443e-07
6.92252e-07
0.00106847
-6.64268e-07
9.10521e-07
-6.71172e-08
4.60872e-07
-8.34183e-07
-1.39228e-06
-2.25057e-07
-1.60965e-06
1.37574e-06
7.02442e-07
0.00106889
-6.64177e-07
9.16276e-07
-6.6893e-08
4.66748e-07
-8.37604e-07
-1.39782e-06
-2.20515e-07
0.00107247
1.35864e-06
-0.00107114
6.74592e-07
-1.60556e-06
-5.64019e-08
-6.58065e-07
-1.40115e-06
-2.05206e-07
-8.26917e-07
4.70649e-07
9.32475e-07
0.00107289
1.3591e-06
-0.00107156
6.75288e-07
-1.61053e-06
-5.42089e-08
-6.60736e-07
-1.40946e-06
-2.01133e-07
-8.33219e-07
4.7887e-07
-6.63633e-07
-6.66017e-07
0.000260989
-8.94095e-07
0.000264123
-0.000261947
-1.77144e-07
-1.72406e-07
6.91597e-07
0.0010695
-6.6247e-07
8.74447e-07
-7.17305e-08
4.63838e-07
-8.36523e-07
-1.39757e-06
-2.19824e-07
-1.60194e-06
1.37485e-06
6.9723e-07
0.00106857
-6.64411e-07
9.08227e-07
-6.70999e-08
4.63798e-07
-8.36346e-07
-1.3949e-06
-2.1981e-07
0.0010735
1.35981e-06
-0.00107217
6.74023e-07
-1.57054e-06
-5.86491e-08
-6.56037e-07
-1.40395e-06
-2.00426e-07
-8.32356e-07
4.73448e-07
9.27113e-07
0.00107257
1.35857e-06
-0.00107125
6.75025e-07
-1.60526e-06
-5.42572e-08
-6.60747e-07
-1.4039e-06
-2.00546e-07
-8.32256e-07
4.73287e-07
1.38202e-06
6.91647e-07
0.00106837
-6.60967e-07
9.06039e-07
-7.08352e-08
4.63027e-07
-8.3862e-07
-2.23899e-07
-1.39584e-06
1.36033e-06
-0.00107191
6.73326e-07
-1.57238e-06
-5.80321e-08
-6.55149e-07
-1.402e-06
-2.03642e-07
4.69925e-07
-8.3056e-07
9.21877e-07
0.00107237
1.36003e-06
-0.00107104
6.74656e-07
-1.59993e-06
-5.81511e-08
-6.55023e-07
-1.40184e-06
-2.03823e-07
-8.30797e-07
4.7015e-07
-6.64025e-07
-6.68678e-07
0.000260954
-8.88563e-07
0.000264074
-0.000261906
-1.7994e-07
-1.72447e-07
1.37566e-06
6.9609e-07
0.0010694
-6.57203e-07
8.66859e-07
-7.60087e-08
4.61204e-07
-8.34099e-07
-2.22359e-07
-1.3924e-06
1.35978e-06
-0.00107157
6.73639e-07
-1.56723e-06
-6.02497e-08
-6.52639e-07
-1.40153e-06
-2.01008e-07
4.70101e-07
-8.32831e-07
8.88046e-07
0.00107341
1.35952e-06
-0.00107208
6.7409e-07
-1.56794e-06
-6.07839e-08
-6.53541e-07
-1.39879e-06
-2.02947e-07
-8.29916e-07
4.68108e-07
-0.000261919
-1.77761e-07