/*--------------------------------*- C++ -*----------------------------------*\
| =========                 |                                                 |
| \\      /  F ield         | OpenFOAM: The Open Source CFD Toolbox           |
|  \\    /   O peration     | Version:  v2012                                 |
|   \\  /    A nd           | Website:  www.openfoam.com                      |
|    \\/     M anipulation  |                                                 |
\*---------------------------------------------------------------------------*/
FoamFile
{
    version     2.0;
    format      ascii;
    class       volVectorField;
    location    "50";
    object      U;
}
// * * * * * * * * * * * * * * * * * * * * * * * * * * * * * * * * * * * * * //

dimensions      [0 1 -1 0 0 0 0];


internalField   nonuniform List<vector> 
85864
(
(0.000106255 0.0001061 0.100295)
(-0.000184561 0.000115302 0.10039)
(0.000115421 -0.000184373 0.10039)
(-0.000247407 -0.00024767 0.100398)
(9.71336e-05 9.70887e-05 0.100854)
(-0.000151321 9.3456e-05 0.100938)
(9.34722e-05 -0.00015146 0.100939)
(-0.000194288 -0.000194385 0.100972)
(9.70206e-05 9.71372e-05 0.101368)
(-0.000152359 9.07634e-05 0.101447)
(9.08636e-05 -0.00015233 0.101448)
(-0.000194795 -0.000194664 0.101475)
(9.47485e-05 9.47753e-05 0.101886)
(-0.000149313 8.71031e-05 0.101954)
(8.71601e-05 -0.000149274 0.101954)
(-0.000192085 -0.00019199 0.101968)
(9.14178e-05 9.13916e-05 0.102391)
(-0.000143731 8.25288e-05 0.102442)
(8.25894e-05 -0.000143707 0.102442)
(-0.000186624 -0.000186587 0.102436)
(8.82091e-05 8.81946e-05 0.102877)
(-0.000138163 7.86811e-05 0.102907)
(7.86672e-05 -0.00013814 0.102907)
(-0.000181079 -0.000181052 0.102875)
(8.52122e-05 8.51731e-05 0.103344)
(-0.000132887 7.56276e-05 0.103349)
(7.56277e-05 -0.000132865 0.103349)
(-0.000176027 -0.00017603 0.103286)
(8.12542e-05 8.11965e-05 0.103791)
(-0.000125971 7.22176e-05 0.103767)
(7.22457e-05 -0.000125944 0.103767)
(-0.000169539 -0.000169572 0.103668)
(7.38935e-05 7.37909e-05 0.104208)
(-0.000113744 6.62063e-05 0.104149)
(6.61407e-05 -0.000113677 0.104149)
(-0.00015724 -0.000157285 0.10401)
(6.05204e-05 6.04981e-05 0.104564)
(-9.18598e-05 5.47154e-05 0.104466)
(5.46613e-05 -9.19181e-05 0.104466)
(-0.000134969 -0.000134968 0.104278)
(4.24211e-05 4.23721e-05 0.104824)
(-6.44899e-05 3.93827e-05 0.10468)
(3.93897e-05 -6.44798e-05 0.10468)
(-0.0001049 -0.000104833 0.104442)
(2.52919e-05 2.52839e-05 0.104983)
(-3.86024e-05 2.47306e-05 0.104794)
(2.47186e-05 -3.8677e-05 0.104794)
(-7.8468e-05 -7.84504e-05 0.10451)
(1.21648e-05 1.21639e-05 0.105065)
(-1.91626e-05 1.27263e-05 0.104841)
(1.28054e-05 -1.92252e-05 0.104841)
(-5.99173e-05 -5.99615e-05 0.104525)
(4.53321e-06 4.52164e-06 0.105098)
(-7.85492e-06 5.618e-06 0.104854)
(5.62264e-06 -7.87488e-06 0.104854)
(-5.00098e-05 -5.00324e-05 0.104521)
(1.06505e-06 1.12427e-06 0.105109)
(-2.95134e-06 2.51386e-06 0.104857)
(2.48972e-06 -2.91465e-06 0.104857)
(-4.60677e-05 -4.61112e-05 0.104516)
(-1.47966e-07 -1.48487e-07 0.105111)
(-1.19097e-06 1.31929e-06 0.104857)
(1.36466e-06 -1.24886e-06 0.104857)
(-4.49102e-05 -4.49423e-05 0.104515)
(-5.40544e-07 -6.03451e-07 0.105112)
(-8.16711e-07 9.65451e-07 0.104857)
(1.10286e-06 -9.08496e-07 0.104857)
(-4.45643e-05 -4.47147e-05 0.104515)
(-6.64054e-07 -6.40164e-07 0.105112)
(-8.05475e-07 1.06471e-06 0.104857)
(9.44371e-07 -7.69805e-07 0.104857)
(-4.45385e-05 -4.46206e-05 0.104514)
(-7.62916e-07 -6.67618e-07 0.105112)
(-7.60313e-07 1.12071e-06 0.104857)
(9.36921e-07 -6.54341e-07 0.104857)
(-4.46876e-05 -4.45944e-05 0.104514)
(-6.83473e-07 -6.63334e-07 0.105112)
(-7.43778e-07 1.0414e-06 0.104857)
(1.01253e-06 -7.9453e-07 0.104856)
(-4.46193e-05 -4.46088e-05 0.104514)
(-6.28301e-07 -6.61202e-07 0.105112)
(-7.94129e-07 9.26247e-07 0.104857)
(9.57634e-07 -7.61158e-07 0.104856)
(-4.46044e-05 -4.46197e-05 0.104514)
(-6.23929e-07 -7.47783e-07 0.105112)
(-7.10708e-07 7.71316e-07 0.104857)
(1.08332e-06 -8.24149e-07 0.104856)
(-4.47259e-05 -4.4796e-05 0.104514)
(-5.11357e-07 -6.82988e-07 0.105112)
(-7.10468e-07 1.04281e-06 0.104857)
(1.08297e-06 -7.62793e-07 0.104856)
(-4.43955e-05 -4.46764e-05 0.104514)
(-6.22003e-07 -7.09043e-07 0.105112)
(-7.26488e-07 1.0485e-06 0.104857)
(9.68929e-07 -8.06002e-07 0.104857)
(-4.44778e-05 -4.46902e-05 0.104514)
(-7.80662e-07 -7.91129e-07 0.105112)
(-7.11949e-07 9.26192e-07 0.104857)
(9.59538e-07 -8.22349e-07 0.104857)
(-4.45735e-05 -4.46426e-05 0.104515)
(-6.5455e-07 -6.2817e-07 0.105112)
(-6.41293e-07 9.14211e-07 0.104857)
(1.00595e-06 -6.84102e-07 0.104857)
(-4.45618e-05 -4.44477e-05 0.104514)
(-7.04532e-07 -5.62028e-07 0.105112)
(-8.05922e-07 1.05686e-06 0.104857)
(1.00937e-06 -6.23094e-07 0.104857)
(-4.45503e-05 -4.4313e-05 0.104514)
(-7.8493e-07 -6.4918e-07 0.105112)
(-9.17588e-07 1.05229e-06 0.104857)
(8.46797e-07 -5.77461e-07 0.104857)
(-4.47098e-05 -4.45445e-05 0.104514)
(-6.57985e-07 -7.17985e-07 0.105112)
(-7.94875e-07 9.23691e-07 0.104857)
(9.3965e-07 -7.487e-07 0.104856)
(-4.46217e-05 -4.46244e-05 0.104515)
(-5.92628e-07 -6.73177e-07 0.105112)
(-6.78856e-07 9.43437e-07 0.104857)
(1.01051e-06 -8.23438e-07 0.104856)
(-4.45118e-05 -4.46166e-05 0.104515)
(-6.62765e-07 -7.36613e-07 0.105112)
(-5.97545e-07 9.02541e-07 0.104856)
(9.35186e-07 -6.89541e-07 0.104856)
(-4.45169e-05 -4.46208e-05 0.104515)
(-7.02973e-07 -7.29265e-07 0.105112)
(-7.1954e-07 9.58671e-07 0.104856)
(9.56283e-07 -6.68304e-07 0.104857)
(-4.46373e-05 -4.46459e-05 0.104515)
(-7.0008e-07 -6.15076e-07 0.105112)
(-7.40257e-07 9.26244e-07 0.104856)
(9.84279e-07 -7.14831e-07 0.104857)
(-4.4477e-05 -4.43562e-05 0.104514)
(-7.36352e-07 -5.8951e-07 0.105112)
(-8.83251e-07 9.96791e-07 0.104857)
(9.75924e-07 -7.22158e-07 0.104857)
(-4.46801e-05 -4.44001e-05 0.104514)
(-7.45781e-07 -6.69876e-07 0.105112)
(-7.88859e-07 1.00886e-06 0.104857)
(9.01702e-07 -7.40471e-07 0.104857)
(-4.46667e-05 -4.45852e-05 0.104514)
(-6.79822e-07 -7.63183e-07 0.105112)
(-7.3698e-07 1.10943e-06 0.104857)
(1.12462e-06 -7.78961e-07 0.104857)
(-4.45725e-05 -4.45055e-05 0.104514)
(-6.83766e-07 -5.86447e-07 0.105112)
(-7.6155e-07 9.88137e-07 0.104857)
(9.24499e-07 -6.95853e-07 0.104857)
(-4.46301e-05 -4.46615e-05 0.104514)
(-6.63609e-07 -7.04021e-07 0.105112)
(-6.99131e-07 9.31755e-07 0.104857)
(9.66239e-07 -7.45783e-07 0.104857)
(-4.45248e-05 -4.48027e-05 0.104515)
(-5.71105e-07 -6.50341e-07 0.105112)
(-5.81606e-07 8.63651e-07 0.104856)
(1.09604e-06 -7.85204e-07 0.104857)
(-4.43621e-05 -4.46037e-05 0.104515)
(-6.83728e-07 -6.31172e-07 0.105112)
(-7.39144e-07 1.06294e-06 0.104856)
(1.00901e-06 -7.16993e-07 0.104857)
(-4.44684e-05 -4.46268e-05 0.104514)
(-8.09265e-07 -6.59345e-07 0.105112)
(-8.76638e-07 1.02647e-06 0.104857)
(8.69681e-07 -7.09862e-07 0.104856)
(-4.46161e-05 -4.45842e-05 0.104515)
(-6.68655e-07 -6.60718e-07 0.105112)
(-7.37525e-07 9.63082e-07 0.104857)
(9.77339e-07 -8.01171e-07 0.104857)
(-4.47239e-05 -4.47085e-05 0.104515)
(-5.62642e-07 -6.10437e-07 0.105112)
(-7.30851e-07 1.04417e-06 0.104857)
(1.01375e-06 -7.48953e-07 0.104857)
(-4.46658e-05 -4.4612e-05 0.104515)
(-6.31547e-07 -6.46042e-07 0.105112)
(-7.17506e-07 9.10722e-07 0.104857)
(9.36567e-07 -7.14608e-07 0.104857)
(-4.47099e-05 -4.44825e-05 0.104515)
(-6.47229e-07 -6.71339e-07 0.105112)
(-7.00919e-07 8.69646e-07 0.104857)
(1.00455e-06 -6.91227e-07 0.104857)
(-4.47679e-05 -4.46636e-05 0.104515)
(-6.23282e-07 -6.53969e-07 0.105112)
(-6.35991e-07 9.58413e-07 0.104857)
(1.03781e-06 -7.3432e-07 0.104857)
(-4.46222e-05 -4.46237e-05 0.104515)
(-6.73998e-07 -6.70209e-07 0.105112)
(-8.41084e-07 1.02657e-06 0.104857)
(1.03668e-06 -7.49581e-07 0.104857)
(-4.4476e-05 -4.45179e-05 0.104515)
(0.000138723 0.000138702 0.100281)
(0.000126686 0.000159723 0.10023)
(-0.000126694 0.000159112 0.10023)
(-0.000138768 0.000138259 0.100281)
(0.000159769 0.000126598 0.10023)
(0.000159936 -0.000126579 0.10023)
(9.38392e-05 9.37515e-05 0.100152)
(-9.37766e-05 9.35023e-05 0.100152)
(9.38122e-05 -9.37272e-05 0.100152)
(-9.37922e-05 -9.37825e-05 0.100152)
(-0.000159895 0.000126393 0.10023)
(-0.000159929 -0.000126559 0.100229)
(0.000138769 -0.000138611 0.100281)
(0.000126669 -0.000159543 0.10023)
(-0.000126496 -0.000159964 0.100229)
(-0.000138668 -0.000138667 0.100281)
(0.000247656 0.000247597 0.100398)
(0.00011321 0.000113113 0.100896)
(0.000115626 0.000184361 0.10039)
(-0.000115212 0.000183636 0.10039)
(9.29619e-05 0.00014901 0.100817)
(-9.25288e-05 0.000148911 0.100817)
(-0.000247764 0.000247222 0.100398)
(-0.00011264 0.000112851 0.100896)
(0.000184524 0.00011537 0.10039)
(0.000184466 -0.000115545 0.10039)
(0.000149158 9.29264e-05 0.100817)
(0.000149053 -9.28873e-05 0.100817)
(-0.000184604 -0.000115555 0.10039)
(-0.000148747 9.2947e-05 0.100817)
(-0.000148477 -9.27973e-05 0.100817)
(0.000247656 -0.000247625 0.100398)
(0.000113108 -0.000113145 0.100897)
(-0.000115419 -0.000184781 0.10039)
(9.29317e-05 -0.000148932 0.100817)
(-9.28489e-05 -0.000149034 0.100817)
(-0.000112957 -0.000113082 0.100896)
(0.000194577 0.000194449 0.100972)
(0.000105915 0.000105888 0.101399)
(9.34196e-05 0.000151565 0.100938)
(-9.31067e-05 0.000151556 0.100938)
(9.14618e-05 0.000152467 0.101319)
(-9.13316e-05 0.00015242 0.101319)
(-0.000194066 0.000194256 0.100971)
(-0.000105734 0.00010552 0.101399)
(0.000151696 9.34719e-05 0.100939)
(0.000151594 -9.33887e-05 0.100939)
(0.000152453 9.16287e-05 0.101319)
(0.00015236 -9.14443e-05 0.101319)
(-0.000151012 -9.31977e-05 0.100938)
(-0.00015229 9.13376e-05 0.101319)
(-0.000152312 -9.1168e-05 0.101319)
(0.000194453 -0.00019453 0.100972)
(0.000105749 -0.000105843 0.101399)
(-9.33664e-05 -0.000151555 0.100939)
(9.14546e-05 -0.000152293 0.101319)
(-9.14988e-05 -0.000152373 0.101319)
(-0.000105736 -0.000105611 0.101399)
(0.00019494 0.000194902 0.101475)
(9.82158e-05 9.82126e-05 0.101896)
(9.09048e-05 0.000152499 0.101448)
(-9.08085e-05 0.000152431 0.101447)
(8.83137e-05 0.000150485 0.101829)
(-8.82252e-05 0.000150424 0.101829)
(-0.000194786 0.000194556 0.101475)
(-9.80961e-05 9.79127e-05 0.101896)
(0.000152449 9.10698e-05 0.101448)
(0.000152367 -9.08613e-05 0.101448)
(0.000150416 8.8397e-05 0.101829)
(0.000150398 -8.8219e-05 0.101829)
(-0.000152467 -9.06866e-05 0.101447)
(-0.000150445 8.81675e-05 0.101829)
(-0.000150558 -8.82109e-05 0.101829)
(0.000194745 -0.000194852 0.101475)
(9.79863e-05 -9.81323e-05 0.101896)
(-9.10079e-05 -0.000152405 0.101447)
(8.82304e-05 -0.000150399 0.101829)
(-8.84204e-05 -0.000150427 0.101829)
(-9.824e-05 -9.81073e-05 0.101896)
(0.000192093 0.000192056 0.101968)
(8.9056e-05 8.90201e-05 0.102369)
(8.72136e-05 0.000149315 0.101954)
(-8.71411e-05 0.000149269 0.101954)
(8.36808e-05 0.000145155 0.102322)
(-8.36562e-05 0.000145136 0.102322)
(-0.000191984 0.000191818 0.101968)
(-8.90856e-05 8.89255e-05 0.102369)
(0.00014926 8.72793e-05 0.101954)
(0.000149256 -8.71403e-05 0.101954)
(0.000145107 8.37206e-05 0.102322)
(0.000145129 -8.36726e-05 0.102322)
(-0.000149389 -8.71492e-05 0.101954)
(-0.000145196 8.36793e-05 0.102322)
(-0.000145228 -8.36932e-05 0.102322)
(0.000191872 -0.000192014 0.101968)
(8.89617e-05 -8.91414e-05 0.102369)
(-8.73275e-05 -0.000149276 0.101954)
(8.37328e-05 -0.000145166 0.102322)
(-8.38163e-05 -0.000145148 0.102322)
(-8.91425e-05 -8.90692e-05 0.102369)
(0.000186584 0.000186509 0.102436)
(8.07961e-05 8.08535e-05 0.102815)
(8.24964e-05 0.000143681 0.102442)
(-8.2513e-05 0.000143676 0.102442)
(7.94964e-05 0.000139512 0.102793)
(-7.95698e-05 0.000139515 0.102793)
(-0.000186616 0.000186436 0.102436)
(-8.09284e-05 8.08902e-05 0.102815)
(0.000143625 8.25324e-05 0.102442)
(0.000143651 -8.25293e-05 0.102442)
(0.000139402 7.95184e-05 0.102793)
(0.000139438 -7.95666e-05 0.102793)
(-0.000143753 -8.25343e-05 0.102442)
(-0.00013951 7.95616e-05 0.102793)
(-0.000139561 -7.95468e-05 0.102793)
(0.000186458 -0.000186676 0.102436)
(8.08534e-05 -8.09225e-05 0.102815)
(-8.26559e-05 -0.000143673 0.102442)
(7.95628e-05 -0.000139484 0.102793)
(-7.96174e-05 -0.000139477 0.102793)
(-8.09549e-05 -8.08666e-05 0.102815)
(0.000180965 0.000180973 0.102875)
(7.43023e-05 7.43428e-05 0.103233)
(7.86148e-05 0.000138168 0.102907)
(-7.86963e-05 0.000138179 0.102907)
(7.63675e-05 0.000134316 0.10324)
(-7.64048e-05 0.000134289 0.10324)
(-0.000181071 0.000180991 0.102875)
(-7.43785e-05 7.43742e-05 0.103233)
(0.000138049 7.86319e-05 0.102907)
(0.000138084 -7.86824e-05 0.102907)
(0.000134212 7.63682e-05 0.10324)
(0.000134217 -7.63953e-05 0.10324)
(-0.000138207 -7.86774e-05 0.102907)
(-0.000134254 7.63845e-05 0.10324)
(-0.00013432 -7.63992e-05 0.10324)
(0.000180955 -0.000181096 0.102875)
(7.4348e-05 -7.43529e-05 0.103233)
(-7.87383e-05 -0.000138125 0.102907)
(7.63804e-05 -0.000134232 0.10324)
(-7.64324e-05 -0.000134248 0.10324)
(-7.44127e-05 -7.43545e-05 0.103233)
(0.000175983 0.000175955 0.103286)
(6.82315e-05 6.82143e-05 0.103623)
(7.56343e-05 0.000132939 0.103349)
(-7.56503e-05 0.000132905 0.103349)
(7.32936e-05 0.000128119 0.103665)
(-7.32584e-05 0.000128061 0.103665)
(-0.000175996 0.000175947 0.103286)
(-6.82291e-05 6.82379e-05 0.103623)
(0.000132851 7.56219e-05 0.103349)
(0.000132844 -7.56381e-05 0.103349)
(0.000128073 7.32535e-05 0.103665)
(0.000128054 -7.32464e-05 0.103665)
(-0.000132931 -7.56634e-05 0.103349)
(-0.000128037 7.32419e-05 0.103665)
(-0.000128095 -7.32684e-05 0.103665)
(0.000175932 -0.000176019 0.103286)
(6.82455e-05 -6.8192e-05 0.103623)
(-7.56857e-05 -0.000132867 0.103349)
(7.3261e-05 -0.000128015 0.103665)
(-7.32653e-05 -0.000128049 0.103665)
(-6.82485e-05 -6.8219e-05 0.103623)
(0.000169563 0.000169467 0.103668)
(5.89597e-05 5.90208e-05 0.103975)
(7.2279e-05 0.000126026 0.103767)
(-7.22421e-05 0.000125983 0.103767)
(6.82096e-05 0.000117631 0.104058)
(-6.81778e-05 0.000117571 0.104058)
(-0.000169495 0.00016944 0.103668)
(-5.89612e-05 5.90583e-05 0.103975)
(0.000125996 7.22364e-05 0.103767)
(0.000125977 -7.22352e-05 0.103767)
(0.000117562 6.80598e-05 0.104058)
(0.000117571 -6.81417e-05 0.104058)
(-0.000126012 -7.22712e-05 0.103767)
(-0.000117578 6.80559e-05 0.104058)
(-0.000117578 -6.80579e-05 0.104058)
(0.000169483 -0.000169533 0.103668)
(5.903e-05 -5.8805e-05 0.103975)
(-7.22646e-05 -0.000125975 0.103767)
(6.80071e-05 -0.000117521 0.104058)
(-6.79916e-05 -0.000117548 0.104058)
(-5.88972e-05 -5.88493e-05 0.103975)
(0.000157312 0.000157247 0.10401)
(4.12244e-05 4.13666e-05 0.104261)
(6.63638e-05 0.000113776 0.104149)
(-6.63329e-05 0.000113711 0.104149)
(5.80949e-05 9.82042e-05 0.104395)
(-5.81098e-05 9.82214e-05 0.104395)
(-0.000157235 0.00015722 0.10401)
(-4.13162e-05 4.14201e-05 0.104261)
(0.000113692 6.62082e-05 0.104149)
(0.000113703 -6.63023e-05 0.104149)
(9.81445e-05 5.7969e-05 0.104395)
(9.81927e-05 -5.81366e-05 0.104395)
(-0.000113705 -6.62148e-05 0.104149)
(-9.81381e-05 5.80016e-05 0.104395)
(-9.81868e-05 -5.7999e-05 0.104395)
(0.00015724 -0.000157229 0.10401)
(4.13654e-05 -4.12553e-05 0.104261)
(-6.61415e-05 -0.000113692 0.104149)
(5.79639e-05 -9.81883e-05 0.104395)
(-5.78725e-05 -9.81692e-05 0.104396)
(-4.12387e-05 -4.11789e-05 0.104261)
(0.000134997 0.000135077 0.104278)
(1.40332e-05 1.41614e-05 0.104442)
(5.47784e-05 9.19499e-05 0.104466)
(-5.48001e-05 9.19423e-05 0.104466)
(4.34706e-05 7.16939e-05 0.104637)
(-4.32849e-05 7.1662e-05 0.104637)
(-0.000134994 0.000135016 0.104278)
(-1.38824e-05 1.39714e-05 0.104441)
(9.18991e-05 5.46644e-05 0.104466)
(9.19602e-05 -5.48262e-05 0.104466)
(7.16653e-05 4.33601e-05 0.104637)
(7.16398e-05 -4.32169e-05 0.104637)
(-9.192e-05 -5.4666e-05 0.104466)
(-7.15288e-05 4.31988e-05 0.104637)
(-7.16059e-05 -4.31547e-05 0.104637)
(0.000135093 -0.000135121 0.104278)
(1.40157e-05 -1.38897e-05 0.104442)
(-5.45257e-05 -9.18702e-05 0.104466)
(4.32273e-05 -7.15302e-05 0.104637)
(-4.31465e-05 -7.14692e-05 0.104638)
(-1.39067e-05 -1.37901e-05 0.104442)
(0.00010514 0.000105176 0.104441)
(-1.18944e-05 -1.18468e-05 0.104523)
(3.96531e-05 6.4677e-05 0.10468)
(-3.94268e-05 6.46495e-05 0.10468)
(2.8238e-05 4.47544e-05 0.104773)
(-2.81078e-05 4.48198e-05 0.104773)
(-0.000104827 0.000104854 0.104441)
(1.18851e-05 -1.17134e-05 0.104523)
(6.47042e-05 3.95385e-05 0.104681)
(6.46506e-05 -3.93548e-05 0.104681)
(4.47412e-05 2.81556e-05 0.104774)
(4.47503e-05 -2.81297e-05 0.104774)
(-6.45978e-05 -3.92824e-05 0.10468)
(-4.46027e-05 2.81247e-05 0.104773)
(-4.46826e-05 -2.81843e-05 0.104773)
(0.000105045 -0.000104975 0.104441)
(-1.19358e-05 1.20186e-05 0.104523)
(-3.93304e-05 -6.44166e-05 0.104681)
(2.80826e-05 -4.46386e-05 0.104773)
(-2.81727e-05 -4.46373e-05 0.104774)
(1.17468e-05 1.18758e-05 0.104523)
(7.8388e-05 7.83773e-05 0.10451)
(-3.06194e-05 -3.06921e-05 0.104544)
(2.4798e-05 3.87192e-05 0.104794)
(-2.47695e-05 3.87556e-05 0.104794)
(1.51292e-05 2.31392e-05 0.104833)
(-1.54417e-05 2.3125e-05 0.104833)
(-7.83685e-05 7.8468e-05 0.10451)
(3.03894e-05 -3.04914e-05 0.104544)
(3.87044e-05 2.47392e-05 0.104795)
(3.87032e-05 -2.47769e-05 0.104794)
(2.3105e-05 1.51212e-05 0.104834)
(2.31639e-05 -1.53795e-05 0.104834)
(-3.86659e-05 -2.47633e-05 0.104794)
(-2.32515e-05 1.51695e-05 0.104833)
(-2.32847e-05 -1.5325e-05 0.104833)
(7.83494e-05 -7.84501e-05 0.10451)
(-3.06643e-05 3.03943e-05 0.104544)
(-2.47307e-05 -3.86527e-05 0.104794)
(1.52149e-05 -2.33214e-05 0.104833)
(-1.52901e-05 -2.32413e-05 0.104834)
(3.05074e-05 3.05173e-05 0.104544)
(5.98569e-05 5.96991e-05 0.104525)
(-4.09309e-05 -4.10637e-05 0.104542)
(1.2694e-05 1.89859e-05 0.104841)
(-1.30455e-05 1.90029e-05 0.104841)
(6.74303e-06 9.75156e-06 0.104852)
(-6.89706e-06 9.87218e-06 0.104852)
(-6.00317e-05 5.98329e-05 0.104525)
(4.08267e-05 -4.09599e-05 0.104541)
(1.89992e-05 1.26906e-05 0.104841)
(1.90043e-05 -1.29714e-05 0.104841)
(9.84387e-06 6.7387e-06 0.104853)
(9.9315e-06 -6.9136e-06 0.104853)
(-1.9181e-05 -1.28319e-05 0.104841)
(-9.99643e-06 6.76868e-06 0.104852)
(-9.90512e-06 -6.88175e-06 0.104852)
(5.98197e-05 -6.01357e-05 0.104525)
(-4.08477e-05 4.0962e-05 0.104542)
(-1.28225e-05 -1.91452e-05 0.104841)
(6.80776e-06 -1.0034e-05 0.104852)
(-6.83134e-06 -9.94351e-06 0.104853)
(4.09117e-05 4.09094e-05 0.104542)
(5.00153e-05 4.98274e-05 0.104521)
(-4.51427e-05 -4.50812e-05 0.104537)
(5.57526e-06 7.75255e-06 0.104854)
(-5.68172e-06 7.86533e-06 0.104854)
(2.77346e-06 3.83213e-06 0.104856)
(-2.81649e-06 3.96253e-06 0.104856)
(-5.00122e-05 4.99064e-05 0.104521)
(4.5265e-05 -4.50833e-05 0.104537)
(7.80645e-06 5.57768e-06 0.104854)
(7.90828e-06 -5.66616e-06 0.104854)
(3.8293e-06 2.80188e-06 0.104856)
(3.93456e-06 -2.8709e-06 0.104856)
(-7.81588e-06 -5.60261e-06 0.104854)
(-3.76061e-06 2.89233e-06 0.104856)
(-3.79807e-06 -2.84421e-06 0.104856)
(5.01183e-05 -5.00199e-05 0.104522)
(-4.50665e-05 4.52934e-05 0.104537)
(-5.53664e-06 -7.80929e-06 0.104855)
(2.87168e-06 -3.71806e-06 0.104856)
(-2.82762e-06 -3.76699e-06 0.104856)
(4.52896e-05 4.52799e-05 0.104537)
(4.60998e-05 4.61338e-05 0.104517)
(-4.65605e-05 -4.64354e-05 0.104535)
(2.42123e-06 3.09818e-06 0.104857)
(-2.43329e-06 3.15723e-06 0.104856)
(1.43321e-06 1.64815e-06 0.104857)
(-1.27084e-06 1.65101e-06 0.104856)
(-4.60038e-05 4.6138e-05 0.104516)
(4.66779e-05 -4.65364e-05 0.104535)
(3.01439e-06 2.45938e-06 0.104857)
(3.12265e-06 -2.48393e-06 0.104857)
(1.54375e-06 1.4079e-06 0.104857)
(1.6254e-06 -1.4153e-06 0.104857)
(-3.03603e-06 -2.4104e-06 0.104856)
(-1.47753e-06 1.3371e-06 0.104857)
(-1.68809e-06 -1.40807e-06 0.104856)
(4.61875e-05 -4.60414e-05 0.104517)
(-4.64844e-05 4.67082e-05 0.104535)
(-2.41317e-06 -2.98003e-06 0.104857)
(1.36493e-06 -1.44044e-06 0.104857)
(-1.36938e-06 -1.59752e-06 0.104857)
(4.64611e-05 4.64903e-05 0.104535)
(4.49023e-05 4.49663e-05 0.104515)
(-4.68838e-05 -4.69089e-05 0.104535)
(1.43338e-06 1.36869e-06 0.104857)
(-1.26191e-06 1.35565e-06 0.104856)
(1.01077e-06 8.11771e-07 0.104856)
(-9.04835e-07 8.49968e-07 0.104856)
(-4.47558e-05 4.48541e-05 0.104515)
(4.69185e-05 -4.70237e-05 0.104534)
(1.3226e-06 1.37133e-06 0.104857)
(1.35304e-06 -1.40405e-06 0.104857)
(9.08875e-07 9.10679e-07 0.104857)
(9.922e-07 -1.04018e-06 0.104856)
(-1.42466e-06 -1.35317e-06 0.104856)
(-8.20698e-07 8.30589e-07 0.104857)
(-9.66617e-07 -1.08827e-06 0.104856)
(4.4955e-05 -4.48476e-05 0.104515)
(-4.67696e-05 4.68099e-05 0.104534)
(-1.31237e-06 -1.39523e-06 0.104857)
(9.77109e-07 -9.5242e-07 0.104857)
(-1.01753e-06 -9.92828e-07 0.104857)
(4.69262e-05 4.68005e-05 0.104534)
(4.47085e-05 4.46206e-05 0.104514)
(-4.69091e-05 -4.69012e-05 0.104534)
(1.16968e-06 7.9468e-07 0.104856)
(-1.04427e-06 8.05677e-07 0.104856)
(9.25449e-07 8.23359e-07 0.104856)
(-9.34862e-07 8.23863e-07 0.104856)
(-4.46236e-05 4.44572e-05 0.104514)
(4.69691e-05 -4.69371e-05 0.104534)
(8.91719e-07 1.06363e-06 0.104857)
(9.38e-07 -1.13794e-06 0.104856)
(7.6826e-07 8.74841e-07 0.104857)
(7.45306e-07 -8.56891e-07 0.104856)
(-8.6685e-07 -1.09505e-06 0.104856)
(-8.23625e-07 8.81563e-07 0.104857)
(-7.42108e-07 -8.46198e-07 0.104856)
(4.46821e-05 -4.47054e-05 0.104514)
(-4.70728e-05 4.70572e-05 0.104534)
(-1.03299e-06 -8.86164e-07 0.104857)
(8.17198e-07 -7.60161e-07 0.104856)
(-8.32989e-07 -7.31906e-07 0.104856)
(4.71117e-05 4.70952e-05 0.104534)
(4.46081e-05 4.45929e-05 0.104514)
(-4.6954e-05 -4.68096e-05 0.104534)
(1.01946e-06 8.20504e-07 0.104856)
(-1.07771e-06 8.21246e-07 0.104856)
(7.57288e-07 7.93429e-07 0.104856)
(-9.24847e-07 8.36821e-07 0.104856)
(-4.45623e-05 4.4628e-05 0.104514)
(4.68991e-05 -4.68523e-05 0.104535)
(7.3992e-07 1.03041e-06 0.104857)
(7.64931e-07 -1.03067e-06 0.104856)
(6.41179e-07 8.83625e-07 0.104856)
(7.58129e-07 -8.69531e-07 0.104856)
(-7.65284e-07 -9.62735e-07 0.104856)
(-7.69753e-07 9.53531e-07 0.104857)
(-7.4192e-07 -8.80419e-07 0.104856)
(4.44124e-05 -4.45289e-05 0.104514)
(-4.70078e-05 4.71089e-05 0.104534)
(-9.28388e-07 -7.40568e-07 0.104856)
(7.81482e-07 -7.27343e-07 0.104857)
(-8.66396e-07 -7.43172e-07 0.104856)
(4.6932e-05 4.70366e-05 0.104534)
(4.44643e-05 4.45322e-05 0.104514)
(-4.69727e-05 -4.69555e-05 0.104534)
(9.34246e-07 8.33432e-07 0.104856)
(-1.09386e-06 8.64136e-07 0.104856)
(8.10779e-07 7.84589e-07 0.104856)
(-9.45734e-07 8.53969e-07 0.104856)
(-4.46269e-05 4.45995e-05 0.104514)
(4.68869e-05 -4.68996e-05 0.104535)
(6.93354e-07 1.02568e-06 0.104856)
(7.66661e-07 -9.67262e-07 0.104856)
(7.29821e-07 8.02878e-07 0.104857)
(8.04153e-07 -8.88989e-07 0.104856)
(-8.0059e-07 -9.89469e-07 0.104856)
(-7.78736e-07 9.44942e-07 0.104857)
(-8.25738e-07 -9.5423e-07 0.104856)
(4.45313e-05 -4.44761e-05 0.104514)
(-4.69725e-05 4.70236e-05 0.104534)
(-1.00247e-06 -7.30125e-07 0.104856)
(8.59213e-07 -7.6621e-07 0.104856)
(-9.03531e-07 -7.21508e-07 0.104856)
(4.68571e-05 4.69155e-05 0.104534)
(4.44366e-05 4.43744e-05 0.104514)
(-4.69817e-05 -4.69299e-05 0.104534)
(9.46639e-07 7.88158e-07 0.104856)
(-1.0637e-06 8.24146e-07 0.104856)
(8.54207e-07 8.16383e-07 0.104856)
(-8.61623e-07 7.53021e-07 0.104856)
(-4.46851e-05 4.46179e-05 0.104515)
(4.68905e-05 -4.69597e-05 0.104534)
(7.21211e-07 9.24882e-07 0.104857)
(8.46613e-07 -1.07901e-06 0.104856)
(7.79225e-07 7.91476e-07 0.104857)
(7.80423e-07 -8.68868e-07 0.104856)
(-8.54694e-07 -1.05633e-06 0.104856)
(-8.00387e-07 7.79848e-07 0.104857)
(-7.74758e-07 -8.57577e-07 0.104856)
(4.45683e-05 -4.46123e-05 0.104514)
(-4.69973e-05 4.70452e-05 0.104534)
(-9.67759e-07 -7.39257e-07 0.104857)
(7.95496e-07 -7.62288e-07 0.104856)
(-8.11895e-07 -7.6071e-07 0.104857)
(4.70935e-05 4.71235e-05 0.104534)
(4.45134e-05 4.44569e-05 0.104514)
(-4.69528e-05 -4.69794e-05 0.104535)
(1.04438e-06 8.32258e-07 0.104857)
(-1.03643e-06 7.59354e-07 0.104856)
(8.88533e-07 7.13441e-07 0.104857)
(-8.36261e-07 6.66101e-07 0.104856)
(-4.45294e-05 4.44146e-05 0.104514)
(4.69968e-05 -4.717e-05 0.104535)
(8.20612e-07 9.74755e-07 0.104857)
(7.92778e-07 -1.03545e-06 0.104856)
(7.51578e-07 7.36626e-07 0.104857)
(8.5164e-07 -9.26389e-07 0.104856)
(-7.96534e-07 -9.86748e-07 0.104856)
(-7.84216e-07 6.32464e-07 0.104857)
(-8.4504e-07 -9.81777e-07 0.104857)
(4.44827e-05 -4.45379e-05 0.104514)
(-4.69523e-05 4.69763e-05 0.104534)
(-9.17273e-07 -7.55608e-07 0.104857)
(8.73981e-07 -8.46766e-07 0.104856)
(-8.54818e-07 -8.43051e-07 0.104857)
(4.69631e-05 4.69663e-05 0.104534)
(4.45731e-05 4.44466e-05 0.104515)
(-4.67146e-05 -4.68604e-05 0.104535)
(1.0549e-06 6.9615e-07 0.104857)
(-9.33194e-07 6.41752e-07 0.104856)
(1.06461e-06 7.53992e-07 0.104857)
(-7.72091e-07 7.52004e-07 0.104856)
(-4.44561e-05 4.42777e-05 0.104514)
(4.69405e-05 -4.69162e-05 0.104534)
(8.11974e-07 8.88803e-07 0.104857)
(8.55351e-07 -1.10394e-06 0.104856)
(9.07663e-07 8.18594e-07 0.104857)
(8.65283e-07 -8.93732e-07 0.104856)
(-7.9905e-07 -1.08836e-06 0.104857)
(-7.04304e-07 8.17111e-07 0.104857)
(-6.43179e-07 -9.74357e-07 0.104856)
(4.46589e-05 -4.47249e-05 0.104514)
(-4.69093e-05 4.69876e-05 0.104534)
(-9.23031e-07 -8.31538e-07 0.104857)
(9.43894e-07 -7.79944e-07 0.104856)
(-7.21093e-07 -8.15199e-07 0.104857)
(4.71742e-05 4.69472e-05 0.104534)
(4.475e-05 4.44989e-05 0.104515)
(-4.68958e-05 -4.68698e-05 0.104534)
(1.23217e-06 7.92485e-07 0.104857)
(-9.46187e-07 7.80616e-07 0.104856)
(9.78882e-07 7.75377e-07 0.104857)
(-8.52842e-07 8.20024e-07 0.104857)
(-4.45285e-05 4.45437e-05 0.104514)
(4.69912e-05 -4.69321e-05 0.104534)
(9.36277e-07 1.01527e-06 0.104857)
(8.59933e-07 -1.01859e-06 0.104856)
(8.07756e-07 8.42358e-07 0.104857)
(7.93305e-07 -8.35177e-07 0.104856)
(-6.29531e-07 -1.05622e-06 0.104856)
(-6.74737e-07 8.83828e-07 0.104857)
(-6.30334e-07 -8.92338e-07 0.104856)
(4.46333e-05 -4.46305e-05 0.104514)
(-4.7087e-05 4.70361e-05 0.104534)
(-7.94323e-07 -8.50609e-07 0.104857)
(8.01804e-07 -7.69115e-07 0.104856)
(-6.84661e-07 -8.56457e-07 0.104857)
(4.72523e-05 4.70036e-05 0.104534)
(4.45384e-05 4.45034e-05 0.104514)
(-4.71092e-05 -4.70941e-05 0.104535)
(1.06022e-06 7.88696e-07 0.104857)
(-1.02368e-06 8.19512e-07 0.104857)
(7.15495e-07 6.42108e-07 0.104857)
(-8.82781e-07 7.61836e-07 0.104857)
(-4.45306e-05 4.45373e-05 0.104514)
(4.69325e-05 -4.69622e-05 0.104535)
(7.79607e-07 9.14796e-07 0.104857)
(7.80962e-07 -1.03374e-06 0.104856)
(6.8278e-07 6.24604e-07 0.104857)
(7.91926e-07 -9.43605e-07 0.104856)
(-6.53135e-07 -9.7108e-07 0.104856)
(-7.46911e-07 7.88222e-07 0.104857)
(-7.69396e-07 -9.54008e-07 0.104857)
(4.44594e-05 -4.46261e-05 0.104514)
(-4.69108e-05 4.68905e-05 0.104534)
(-8.09147e-07 -8.91733e-07 0.104857)
(7.9435e-07 -8.32015e-07 0.104857)
(-7.95392e-07 -8.3883e-07 0.104857)
(4.69259e-05 4.68589e-05 0.104535)
(4.43598e-05 4.42919e-05 0.104514)
(-4.70119e-05 -4.68941e-05 0.104534)
(8.41315e-07 6.65056e-07 0.104857)
(-1.01034e-06 7.41765e-07 0.104857)
(8.8019e-07 7.7472e-07 0.104856)
(-7.66002e-07 7.92236e-07 0.104857)
(-4.44893e-05 4.44528e-05 0.104515)
(4.70765e-05 -4.69576e-05 0.104535)
(6.74627e-07 7.92794e-07 0.104857)
(8.0066e-07 -1.08859e-06 0.104856)
(7.11656e-07 8.63809e-07 0.104857)
(8.11905e-07 -8.65364e-07 0.104856)
(-7.87752e-07 -1.0099e-06 0.104857)
(-6.7239e-07 7.26768e-07 0.104857)
(-7.65535e-07 -8.48416e-07 0.104857)
(4.46008e-05 -4.46864e-05 0.104514)
(-4.68529e-05 4.70208e-05 0.104534)
(-9.24727e-07 -8.45683e-07 0.104857)
(8.17353e-07 -7.30761e-07 0.104856)
(-8.83917e-07 -7.44687e-07 0.104857)
(4.68938e-05 4.70094e-05 0.104534)
(4.45411e-05 4.4578e-05 0.104514)
(-4.70515e-05 -4.68525e-05 0.104535)
(1.0691e-06 8.73547e-07 0.104857)
(-9.18987e-07 8.26975e-07 0.104857)
(8.49465e-07 8.50651e-07 0.104857)
(-8.97704e-07 8.72503e-07 0.104857)
(-4.43864e-05 4.44803e-05 0.104515)
(4.68427e-05 -4.68423e-05 0.104535)
(7.56296e-07 1.05835e-06 0.104857)
(8.32516e-07 -9.87393e-07 0.104856)
(7.33408e-07 9.33756e-07 0.104857)
(8.50116e-07 -7.79746e-07 0.104856)
(-8.11758e-07 -9.02049e-07 0.104857)
(-7.62349e-07 8.75311e-07 0.104857)
(-8.7627e-07 -6.77466e-07 0.104857)
(4.45801e-05 -4.44686e-05 0.104514)
(-4.67978e-05 4.70102e-05 0.104534)
(-9.81626e-07 -7.25404e-07 0.104857)
(8.59196e-07 -6.54488e-07 0.104857)
(-8.70358e-07 -5.80934e-07 0.104857)
(4.69104e-05 4.72121e-05 0.104534)
(4.45056e-05 4.46464e-05 0.104515)
(-4.71961e-05 -4.69428e-05 0.104535)
(9.50849e-07 8.79986e-07 0.104857)
(-1.06226e-06 8.37179e-07 0.104857)
(6.79715e-07 8.11473e-07 0.104857)
(-9.87572e-07 8.48645e-07 0.104857)
(-4.46024e-05 4.45555e-05 0.104514)
(4.68001e-05 -4.69487e-05 0.104535)
(7.15377e-07 1.07687e-06 0.104857)
(8.43665e-07 -9.18765e-07 0.104856)
(5.97461e-07 8.3215e-07 0.104857)
(7.35353e-07 -7.35834e-07 0.104856)
(-8.19288e-07 -7.51267e-07 0.104857)
(-9.09488e-07 8.85654e-07 0.104857)
(-8.95038e-07 -7.32842e-07 0.104857)
(4.45107e-05 -4.43939e-05 0.104514)
(-4.6987e-05 4.71718e-05 0.104534)
(-9.79275e-07 -5.86038e-07 0.104857)
(7.2876e-07 -5.79961e-07 0.104857)
(-9.72739e-07 -6.10677e-07 0.104857)
(4.69131e-05 4.71126e-05 0.104534)
(4.43518e-05 4.44633e-05 0.104515)
(-4.68575e-05 -4.70332e-05 0.104535)
(8.67313e-07 8.41756e-07 0.104857)
(-1.17224e-06 8.48274e-07 0.104857)
(8.74076e-07 6.81724e-07 0.104857)
(-8.97919e-07 7.12322e-07 0.104857)
(-4.47265e-05 4.45341e-05 0.104515)
(4.69151e-05 -4.70259e-05 0.104535)
(6.21681e-07 9.79556e-07 0.104857)
(7.1977e-07 -8.86502e-07 0.104856)
(7.90876e-07 8.57969e-07 0.104857)
(7.46323e-07 -7.8865e-07 0.104856)
(-9.43446e-07 -8.82234e-07 0.104857)
(-8.24925e-07 7.67169e-07 0.104857)
(-8.51311e-07 -9.13919e-07 0.104857)
(4.44157e-05 -4.43424e-05 0.104514)
(-4.70592e-05 4.7151e-05 0.104534)
(-1.09984e-06 -6.96199e-07 0.104857)
(7.28174e-07 -6.7126e-07 0.104856)
(-9.16727e-07 -7.15196e-07 0.104857)
(4.69929e-05 4.70465e-05 0.104534)
(4.47754e-05 4.44911e-05 0.104514)
(-4.69353e-05 -4.69599e-05 0.104535)
(1.06878e-06 6.98076e-07 0.104857)
(-9.93806e-07 6.72923e-07 0.104857)
(9.97502e-07 7.22376e-07 0.104857)
(-7.84585e-07 6.93603e-07 0.104856)
(-4.45041e-05 4.44201e-05 0.104515)
(4.69871e-05 -4.70173e-05 0.104535)
(8.46875e-07 9.77988e-07 0.104857)
(7.84169e-07 -9.94072e-07 0.104856)
(8.63676e-07 8.20874e-07 0.104857)
(8.30934e-07 -9.17524e-07 0.104856)
(-8.02515e-07 -1.02242e-06 0.104857)
(-6.75726e-07 7.51705e-07 0.104857)
(-7.50457e-07 -9.44563e-07 0.104856)
(4.44515e-05 -4.44774e-05 0.104514)
(-4.69836e-05 4.69228e-05 0.104534)
(-9.50948e-07 -7.62156e-07 0.104857)
(8.73328e-07 -8.63007e-07 0.104856)
(-7.10863e-07 -7.27038e-07 0.104857)
(4.70508e-05 4.69877e-05 0.104535)