/*--------------------------------*- C++ -*----------------------------------*\
| =========                 |                                                 |
| \\      /  F ield         | OpenFOAM: The Open Source CFD Toolbox           |
|  \\    /   O peration     | Version:  v2012                                 |
|   \\  /    A nd           | Website:  www.openfoam.com                      |
|    \\/     M anipulation  |                                                 |
\*---------------------------------------------------------------------------*/
FoamFile
{
    version     2.0;
    format      ascii;
    class       volScalarField;
    location    "50000";
    object      p;
}
// * * * * * * * * * * * * * * * * * * * * * * * * * * * * * * * * * * * * * //

dimensions      [0 2 -2 0 0 0 0];


internalField   nonuniform List<scalar> 
171728
(
1.27267e-07
1.27202e-07
1.27202e-07
1.27349e-07
1.24356e-07
1.2428e-07
1.2428e-07
1.24411e-07
1.22197e-07
1.22172e-07
1.22172e-07
1.2228e-07
1.20369e-07
1.20362e-07
1.20362e-07
1.20456e-07
1.18713e-07
1.18713e-07
1.18713e-07
1.18802e-07
1.17161e-07
1.17163e-07
1.17163e-07
1.17247e-07
1.15676e-07
1.15679e-07
1.15679e-07
1.15761e-07
1.14239e-07
1.14241e-07
1.14241e-07
1.14321e-07
1.12835e-07
1.12836e-07
1.12836e-07
1.12915e-07
1.11456e-07
1.11457e-07
1.11457e-07
1.11534e-07
1.10096e-07
1.10097e-07
1.10097e-07
1.10173e-07
1.0875e-07
1.08751e-07
1.08751e-07
1.08826e-07
1.07416e-07
1.07416e-07
1.07416e-07
1.07491e-07
1.06089e-07
1.06089e-07
1.06089e-07
1.06164e-07
1.0477e-07
1.0477e-07
1.0477e-07
1.04844e-07
1.03455e-07
1.03455e-07
1.03455e-07
1.03529e-07
1.02146e-07
1.02146e-07
1.02146e-07
1.02219e-07
1.0084e-07
1.0084e-07
1.0084e-07
1.00913e-07
9.95365e-08
9.95364e-08
9.95364e-08
9.961e-08
9.82348e-08
9.82346e-08
9.82346e-08
9.83082e-08
9.69336e-08
9.69334e-08
9.69334e-08
9.70069e-08
9.56326e-08
9.56323e-08
9.56323e-08
9.57059e-08
9.43316e-08
9.43313e-08
9.43313e-08
9.44049e-08
9.30306e-08
9.30303e-08
9.30303e-08
9.31039e-08
9.17296e-08
9.17293e-08
9.17293e-08
9.18029e-08
9.04285e-08
9.04283e-08
9.04283e-08
9.05018e-08
8.91275e-08
8.91273e-08
8.91273e-08
8.92008e-08
8.78265e-08
8.78263e-08
8.78263e-08
8.78998e-08
8.65255e-08
8.65252e-08
8.65252e-08
8.65988e-08
8.52244e-08
8.52242e-08
8.52242e-08
8.52977e-08
8.39234e-08
8.39232e-08
8.39232e-08
8.39967e-08
8.26224e-08
8.26222e-08
8.26222e-08
8.26957e-08
8.13214e-08
8.13212e-08
8.13212e-08
8.13947e-08
8.00204e-08
8.00202e-08
8.00202e-08
8.00937e-08
7.87194e-08
7.87192e-08
7.87192e-08
7.87927e-08
7.74183e-08
7.74181e-08
7.74181e-08
7.74916e-08
7.61173e-08
7.61171e-08
7.61171e-08
7.61906e-08
7.48162e-08
7.4816e-08
7.4816e-08
7.48896e-08
7.35152e-08
7.3515e-08
7.3515e-08
7.35885e-08
7.22141e-08
7.22139e-08
7.22139e-08
7.22875e-08
7.09131e-08
7.09129e-08
7.09129e-08
7.09864e-08
6.96121e-08
6.96119e-08
6.96119e-08
6.96854e-08
6.8311e-08
6.83108e-08
6.83108e-08
6.83843e-08
6.701e-08
6.70098e-08
6.70098e-08
6.70833e-08
6.5709e-08
6.57087e-08
6.57087e-08
6.57823e-08
6.44079e-08
6.44077e-08
6.44077e-08
6.44812e-08
6.31068e-08
6.31066e-08
6.31066e-08
6.31801e-08
6.18058e-08
6.18055e-08
6.18055e-08
6.18791e-08
6.05047e-08
6.05045e-08
6.05045e-08
6.0578e-08
5.92036e-08
5.92034e-08
5.92034e-08
5.92769e-08
5.79026e-08
5.79023e-08
5.79023e-08
5.79759e-08
5.66015e-08
5.66013e-08
5.66013e-08
5.66748e-08
5.53004e-08
5.53002e-08
5.53002e-08
5.53738e-08
5.39994e-08
5.39992e-08
5.39992e-08
5.40727e-08
5.26983e-08
5.26981e-08
5.26981e-08
5.27716e-08
5.13972e-08
5.1397e-08
5.1397e-08
5.14705e-08
5.00961e-08
5.00959e-08
5.00959e-08
5.01695e-08
4.87951e-08
4.87948e-08
4.87948e-08
4.88684e-08
4.7494e-08
4.74938e-08
4.74938e-08
4.75673e-08
4.61929e-08
4.61927e-08
4.61927e-08
4.62662e-08
4.48918e-08
4.48916e-08
4.48916e-08
4.49651e-08
4.35907e-08
4.35905e-08
4.35905e-08
4.3664e-08
4.22896e-08
4.22894e-08
4.22894e-08
4.2363e-08
4.09886e-08
4.09883e-08
4.09883e-08
4.10619e-08
3.96875e-08
3.96872e-08
3.96872e-08
3.97608e-08
3.83864e-08
3.83861e-08
3.83861e-08
3.84597e-08
3.70853e-08
3.7085e-08
3.7085e-08
3.71586e-08
3.57842e-08
3.57839e-08
3.57839e-08
3.58575e-08
3.44831e-08
3.44828e-08
3.44828e-08
3.45564e-08
3.3182e-08
3.31817e-08
3.31817e-08
3.32553e-08
3.18809e-08
3.18806e-08
3.18806e-08
3.19542e-08
3.05797e-08
3.05795e-08
3.05795e-08
3.06531e-08
2.92786e-08
2.92784e-08
2.92784e-08
2.9352e-08
2.79776e-08
2.79773e-08
2.79773e-08
2.80509e-08
2.66765e-08
2.66763e-08
2.66763e-08
2.67498e-08
2.53754e-08
2.53752e-08
2.53752e-08
2.54487e-08
2.40743e-08
2.40741e-08
2.40741e-08
2.41476e-08
2.27732e-08
2.2773e-08
2.2773e-08
2.28465e-08
2.14721e-08
2.14719e-08
2.14719e-08
2.15454e-08
2.0171e-08
2.01708e-08
2.01708e-08
2.02443e-08
1.88699e-08
1.88697e-08
1.88697e-08
1.89432e-08
1.75688e-08
1.75686e-08
1.75686e-08
1.76421e-08
1.62677e-08
1.62675e-08
1.62675e-08
1.6341e-08
1.49667e-08
1.49664e-08
1.49664e-08
1.504e-08
1.36656e-08
1.36654e-08
1.36654e-08
1.37389e-08
1.23645e-08
1.23643e-08
1.23643e-08
1.24378e-08
1.10634e-08
1.10632e-08
1.10632e-08
1.11368e-08
9.76237e-09
9.76215e-09
9.76215e-09
9.83567e-09
8.46129e-09
8.46107e-09
8.46107e-09
8.53459e-09
7.16021e-09
7.15999e-09
7.15999e-09
7.23351e-09
5.85914e-09
5.85894e-09
5.85894e-09
5.93244e-09
4.55807e-09
4.5579e-09
4.5579e-09
4.63136e-09
3.2571e-09
3.25683e-09
3.25683e-09
3.33035e-09
1.95986e-09
1.95567e-09
1.95561e-09
2.03056e-09
6.67215e-10
7.3411e-10
7.34002e-10
6.65656e-10
1.27859e-07
1.27934e-07
1.27934e-07
1.27859e-07
1.27934e-07
1.27934e-07
1.28101e-07
1.28101e-07
1.28101e-07
1.28101e-07
1.27934e-07
1.27934e-07
1.27859e-07
1.27934e-07
1.27934e-07
1.27859e-07
1.27349e-07
1.24751e-07
1.27202e-07
1.27202e-07
1.24894e-07
1.24894e-07
1.27349e-07
1.24751e-07
1.27202e-07
1.27202e-07
1.24894e-07
1.24894e-07
1.27202e-07
1.24894e-07
1.24894e-07
1.27349e-07
1.24751e-07
1.27202e-07
1.24894e-07
1.24894e-07
1.24751e-07
1.24411e-07
1.22551e-07
1.2428e-07
1.2428e-07
1.22663e-07
1.22663e-07
1.24411e-07
1.22551e-07
1.2428e-07
1.2428e-07
1.22663e-07
1.22663e-07
1.2428e-07
1.22663e-07
1.22663e-07
1.24411e-07
1.22551e-07
1.2428e-07
1.22663e-07
1.22663e-07
1.22551e-07
1.2228e-07
1.20692e-07
1.22172e-07
1.22172e-07
1.20795e-07
1.20795e-07
1.2228e-07
1.20692e-07
1.22172e-07
1.22172e-07
1.20795e-07
1.20795e-07
1.22172e-07
1.20795e-07
1.20795e-07
1.2228e-07
1.20692e-07
1.22172e-07
1.20795e-07
1.20795e-07
1.20692e-07
1.20456e-07
1.1902e-07
1.20362e-07
1.20362e-07
1.19114e-07
1.19114e-07
1.20456e-07
1.19021e-07
1.20362e-07
1.20362e-07
1.19114e-07
1.19114e-07
1.20362e-07
1.19114e-07
1.19114e-07
1.20456e-07
1.1902e-07
1.20362e-07
1.19114e-07
1.19114e-07
1.1902e-07
1.18802e-07
1.17454e-07
1.18713e-07
1.18713e-07
1.17543e-07
1.17543e-07
1.18802e-07
1.17454e-07
1.18713e-07
1.18713e-07
1.17543e-07
1.17543e-07
1.18713e-07
1.17543e-07
1.17543e-07
1.18802e-07
1.17454e-07
1.18713e-07
1.17543e-07
1.17543e-07
1.17454e-07
1.17247e-07
1.1596e-07
1.17163e-07
1.17163e-07
1.16045e-07
1.16045e-07
1.17247e-07
1.1596e-07
1.17163e-07
1.17163e-07
1.16045e-07
1.16045e-07
1.17163e-07
1.16045e-07
1.16045e-07
1.17247e-07
1.1596e-07
1.17163e-07
1.16045e-07
1.16045e-07
1.1596e-07
1.15761e-07
1.14515e-07
1.15679e-07
1.15679e-07
1.14597e-07
1.14597e-07
1.15761e-07
1.14515e-07
1.15679e-07
1.15679e-07
1.14597e-07
1.14597e-07
1.15679e-07
1.14597e-07
1.14597e-07
1.15761e-07
1.14515e-07
1.15679e-07
1.14597e-07
1.14597e-07
1.14515e-07
1.14321e-07
1.13105e-07
1.14241e-07
1.14241e-07
1.13185e-07
1.13185e-07
1.14321e-07
1.13105e-07
1.14241e-07
1.14241e-07
1.13185e-07
1.13185e-07
1.14241e-07
1.13185e-07
1.13185e-07
1.14321e-07
1.13105e-07
1.14241e-07
1.13185e-07
1.13185e-07
1.13105e-07
1.12915e-07
1.11722e-07
1.12836e-07
1.12836e-07
1.118e-07
1.118e-07
1.12915e-07
1.11722e-07
1.12836e-07
1.12836e-07
1.118e-07
1.118e-07
1.12836e-07
1.118e-07
1.118e-07
1.12915e-07
1.11722e-07
1.12836e-07
1.118e-07
1.118e-07
1.11722e-07
1.11534e-07
1.10358e-07
1.11457e-07
1.11457e-07
1.10435e-07
1.10435e-07
1.11534e-07
1.10358e-07
1.11457e-07
1.11457e-07
1.10435e-07
1.10435e-07
1.11457e-07
1.10435e-07
1.10435e-07
1.11534e-07
1.10358e-07
1.11457e-07
1.10435e-07
1.10435e-07
1.10358e-07
1.10173e-07
1.0901e-07
1.10097e-07
1.10097e-07
1.09086e-07
1.09086e-07
1.10173e-07
1.0901e-07
1.10097e-07
1.10097e-07
1.09086e-07
1.09086e-07
1.10097e-07
1.09086e-07
1.09086e-07
1.10173e-07
1.0901e-07
1.10097e-07
1.09086e-07
1.09086e-07
1.0901e-07
1.08826e-07
1.07673e-07
1.08751e-07
1.08751e-07
1.07749e-07
1.07749e-07
1.08826e-07
1.07673e-07
1.08751e-07
1.08751e-07
1.07749e-07
1.07749e-07
1.08751e-07
1.07749e-07
1.07749e-07
1.08826e-07
1.07673e-07
1.08751e-07
1.07749e-07
1.07749e-07
1.07673e-07
1.07491e-07
1.06345e-07
1.07416e-07
1.07416e-07
1.0642e-07
1.0642e-07
1.07491e-07
1.06345e-07
1.07416e-07
1.07416e-07
1.0642e-07
1.0642e-07
1.07416e-07
1.0642e-07
1.0642e-07
1.07491e-07
1.06345e-07
1.07416e-07
1.0642e-07
1.0642e-07
1.06345e-07
1.06164e-07
1.05025e-07
1.06089e-07
1.06089e-07
1.05099e-07
1.05099e-07
1.06164e-07
1.05025e-07
1.06089e-07
1.06089e-07
1.05099e-07
1.05099e-07
1.06089e-07
1.05099e-07
1.05099e-07
1.06164e-07
1.05025e-07
1.06089e-07
1.05099e-07
1.05099e-07
1.05025e-07
1.04844e-07
1.03709e-07
1.0477e-07
1.0477e-07
1.03783e-07
1.03783e-07
1.04844e-07
1.03709e-07
1.0477e-07
1.0477e-07
1.03783e-07
1.03783e-07
1.0477e-07
1.03783e-07
1.03783e-07
1.04844e-07
1.03709e-07
1.0477e-07
1.03783e-07
1.03783e-07
1.03709e-07
1.03529e-07
1.02399e-07
1.03455e-07
1.03455e-07
1.02473e-07
1.02473e-07
1.03529e-07
1.02399e-07
1.03455e-07
1.03455e-07
1.02473e-07
1.02473e-07
1.03455e-07
1.02473e-07
1.02473e-07
1.03529e-07
1.02399e-07
1.03455e-07
1.02473e-07
1.02473e-07
1.02399e-07
1.02219e-07
1.01092e-07
1.02146e-07
1.02146e-07
1.01166e-07
1.01166e-07
1.02219e-07
1.01092e-07
1.02146e-07
1.02146e-07
1.01166e-07
1.01166e-07
1.02146e-07
1.01166e-07
1.01166e-07
1.02219e-07
1.01092e-07
1.02146e-07
1.01166e-07
1.01166e-07
1.01092e-07
1.00913e-07
9.97885e-08
1.0084e-07
1.0084e-07
9.9862e-08
9.9862e-08
1.00913e-07
9.97885e-08
1.0084e-07
1.0084e-07
9.9862e-08
9.9862e-08
1.0084e-07
9.9862e-08
9.9862e-08
1.00913e-07
9.97885e-08
1.0084e-07
9.9862e-08
9.9862e-08
9.97885e-08
9.961e-08
9.84865e-08
9.95364e-08
9.95364e-08
9.856e-08
9.856e-08
9.961e-08
9.84865e-08
9.95364e-08
9.95364e-08
9.856e-08
9.856e-08
9.95364e-08
9.856e-08
9.856e-08
9.961e-08
9.84865e-08
9.95364e-08
9.856e-08
9.856e-08
9.84865e-08
9.83082e-08
9.71852e-08
9.82346e-08
9.82346e-08
9.72587e-08
9.72587e-08
9.83082e-08
9.71852e-08
9.82346e-08
9.82346e-08
9.72587e-08
9.72587e-08
9.82346e-08
9.72587e-08
9.72587e-08
9.83082e-08
9.71852e-08
9.82346e-08
9.72587e-08
9.72587e-08
9.71852e-08
9.70069e-08
9.58842e-08
9.69334e-08
9.69334e-08
9.59576e-08
9.59576e-08
9.70069e-08
9.58842e-08
9.69334e-08
9.69334e-08
9.59576e-08
9.59576e-08
9.69334e-08
9.59576e-08
9.59576e-08
9.70069e-08
9.58842e-08
9.69334e-08
9.59576e-08
9.59576e-08
9.58842e-08
9.57059e-08
9.45832e-08
9.56323e-08
9.56323e-08
9.46566e-08
9.46566e-08
9.57059e-08
9.45832e-08
9.56323e-08
9.56323e-08
9.46566e-08
9.46566e-08
9.56323e-08
9.46566e-08
9.46566e-08
9.57059e-08
9.45831e-08
9.56323e-08
9.46566e-08
9.46566e-08
9.45831e-08
9.44049e-08
9.32822e-08
9.43313e-08
9.43313e-08
9.33556e-08
9.33556e-08
9.44048e-08
9.32822e-08
9.43313e-08
9.43313e-08
9.33556e-08
9.33556e-08
9.43313e-08
9.33556e-08
9.33556e-08
9.44049e-08
9.32821e-08
9.43313e-08
9.33556e-08
9.33556e-08
9.32821e-08
9.31039e-08
9.19812e-08
9.30303e-08
9.30303e-08
9.20546e-08
9.20546e-08
9.31038e-08
9.19812e-08
9.30303e-08
9.30303e-08
9.20546e-08
9.20546e-08
9.30303e-08
9.20546e-08
9.20546e-08
9.31039e-08
9.19811e-08
9.30303e-08
9.20546e-08
9.20546e-08
9.19811e-08
9.18029e-08
9.06801e-08
9.17293e-08
9.17293e-08
9.07536e-08
9.07536e-08
9.18028e-08
9.06801e-08
9.17293e-08
9.17293e-08
9.07536e-08
9.07536e-08
9.17293e-08
9.07536e-08
9.07536e-08
9.18029e-08
9.06801e-08
9.17293e-08
9.07536e-08
9.07536e-08
9.06801e-08
9.05018e-08
8.93791e-08
9.04283e-08
9.04283e-08
8.94526e-08
8.94526e-08
9.05018e-08
8.93791e-08
9.04283e-08
9.04283e-08
8.94526e-08
8.94526e-08
9.04283e-08
8.94526e-08
8.94526e-08
9.05018e-08
8.93791e-08
9.04283e-08
8.94526e-08
8.94526e-08
8.93791e-08
8.92008e-08
8.80781e-08
8.91273e-08
8.91273e-08
8.81515e-08
8.81515e-08
8.92008e-08
8.80781e-08
8.91273e-08
8.91273e-08
8.81515e-08
8.81515e-08
8.91273e-08
8.81515e-08
8.81515e-08
8.92008e-08
8.80781e-08
8.91273e-08
8.81515e-08
8.81515e-08
8.80781e-08
8.78998e-08
8.67771e-08
8.78263e-08
8.78263e-08
8.68505e-08
8.68505e-08
8.78998e-08
8.67771e-08
8.78263e-08
8.78263e-08
8.68505e-08
8.68505e-08
8.78263e-08
8.68505e-08
8.68505e-08
8.78998e-08
8.6777e-08
8.78263e-08
8.68505e-08
8.68505e-08
8.6777e-08
8.65987e-08
8.5476e-08
8.65252e-08
8.65252e-08
8.55495e-08
8.55495e-08
8.65987e-08
8.5476e-08
8.65252e-08
8.65252e-08
8.55495e-08
8.55495e-08
8.65252e-08
8.55495e-08
8.55495e-08
8.65988e-08
8.5476e-08
8.65252e-08
8.55495e-08
8.55495e-08
8.5476e-08
8.52977e-08
8.4175e-08
8.52242e-08
8.52242e-08
8.42484e-08
8.42484e-08
8.52977e-08
8.4175e-08
8.52242e-08
8.52242e-08
8.42484e-08
8.42484e-08
8.52242e-08
8.42484e-08
8.42484e-08
8.52977e-08
8.4175e-08
8.52242e-08
8.42484e-08
8.42484e-08
8.4175e-08
8.39967e-08
8.2874e-08
8.39232e-08
8.39232e-08
8.29474e-08
8.29474e-08
8.39967e-08
8.2874e-08
8.39232e-08
8.39232e-08
8.29474e-08
8.29474e-08
8.39232e-08
8.29474e-08
8.29474e-08
8.39967e-08
8.2874e-08
8.39232e-08
8.29474e-08
8.29474e-08
8.2874e-08
8.26957e-08
8.1573e-08
8.26222e-08
8.26222e-08
8.16464e-08
8.16464e-08
8.26957e-08
8.1573e-08
8.26222e-08
8.26222e-08
8.16464e-08
8.16464e-08
8.26222e-08
8.16464e-08
8.16464e-08
8.26957e-08
8.1573e-08
8.26222e-08
8.16464e-08
8.16464e-08
8.1573e-08
8.13947e-08
8.0272e-08
8.13212e-08
8.13212e-08
8.03454e-08
8.03454e-08
8.13947e-08
8.0272e-08
8.13212e-08
8.13212e-08
8.03454e-08
8.03454e-08
8.13212e-08
8.03454e-08
8.03454e-08
8.13947e-08
8.0272e-08
8.13212e-08
8.03454e-08
8.03454e-08
8.0272e-08
8.00937e-08
7.8971e-08
8.00202e-08
8.00202e-08
7.90444e-08
7.90444e-08
8.00937e-08
7.8971e-08
8.00202e-08
8.00202e-08
7.90444e-08
7.90444e-08
8.00202e-08
7.90444e-08
7.90444e-08
8.00937e-08
7.8971e-08
8.00202e-08
7.90444e-08
7.90444e-08
7.8971e-08
7.87927e-08
7.76699e-08
7.87192e-08
7.87192e-08
7.77434e-08
7.77434e-08
7.87927e-08
7.767e-08
7.87192e-08
7.87192e-08
7.77434e-08
7.77434e-08
7.87192e-08
7.77434e-08
7.77434e-08
7.87927e-08
7.76699e-08
7.87192e-08
7.77434e-08
7.77434e-08
7.76699e-08
7.74916e-08
7.63689e-08
7.74181e-08
7.74181e-08
7.64423e-08
7.64423e-08
7.74916e-08
7.63689e-08
7.74181e-08
7.74181e-08
7.64423e-08
7.64423e-08
7.74181e-08
7.64423e-08
7.64423e-08
7.74916e-08
7.63689e-08
7.74181e-08
7.64423e-08
7.64423e-08
7.63689e-08
7.61906e-08
7.50679e-08
7.61171e-08
7.61171e-08
7.51413e-08
7.51413e-08
7.61906e-08
7.50679e-08
7.61171e-08
7.61171e-08
7.51413e-08
7.51413e-08
7.61171e-08
7.51413e-08
7.51413e-08
7.61906e-08
7.50678e-08
7.61171e-08
7.51413e-08
7.51413e-08
7.50678e-08
7.48895e-08
7.37668e-08
7.4816e-08
7.4816e-08
7.38402e-08
7.38402e-08
7.48895e-08
7.37668e-08
7.4816e-08
7.4816e-08
7.38402e-08
7.38402e-08
7.4816e-08
7.38402e-08
7.38402e-08
7.48895e-08
7.37668e-08
7.4816e-08
7.38402e-08
7.38402e-08
7.37668e-08
7.35885e-08
7.24658e-08
7.3515e-08
7.3515e-08
7.25392e-08
7.25392e-08
7.35885e-08
7.24658e-08
7.3515e-08
7.3515e-08
7.25392e-08
7.25392e-08
7.3515e-08
7.25392e-08
7.25392e-08
7.35885e-08
7.24657e-08
7.3515e-08
7.25392e-08
7.25392e-08
7.24657e-08
7.22874e-08
7.11647e-08
7.22139e-08
7.22139e-08
7.12381e-08
7.12381e-08
7.22874e-08
7.11647e-08
7.22139e-08
7.22139e-08
7.12382e-08
7.12381e-08
7.22139e-08
7.12381e-08
7.12381e-08
7.22875e-08
7.11647e-08
7.22139e-08
7.12381e-08
7.12381e-08
7.11647e-08
7.09864e-08
6.98637e-08
7.09129e-08
7.09129e-08
6.99371e-08
6.99371e-08
7.09864e-08
6.98637e-08
7.09129e-08
7.09129e-08
6.99371e-08
6.99371e-08
7.09129e-08
6.99371e-08
6.99371e-08
7.09864e-08
6.98637e-08
7.09129e-08
6.99371e-08
6.99371e-08
6.98637e-08
6.96854e-08
6.85626e-08
6.96119e-08
6.96119e-08
6.86361e-08
6.86361e-08
6.96854e-08
6.85626e-08
6.96119e-08
6.96119e-08
6.86361e-08
6.86361e-08
6.96119e-08
6.86361e-08
6.86361e-08
6.96854e-08
6.85626e-08
6.96119e-08
6.86361e-08
6.86361e-08
6.85626e-08
6.83843e-08
6.72616e-08
6.83108e-08
6.83108e-08
6.7335e-08
6.7335e-08
6.83843e-08
6.72616e-08
6.83108e-08
6.83108e-08
6.7335e-08
6.7335e-08
6.83108e-08
6.7335e-08
6.7335e-08
6.83843e-08
6.72616e-08
6.83108e-08
6.7335e-08
6.7335e-08
6.72616e-08
6.70833e-08
6.59606e-08
6.70098e-08
6.70098e-08
6.6034e-08
6.6034e-08
6.70833e-08
6.59606e-08
6.70098e-08
6.70098e-08
6.6034e-08
6.6034e-08
6.70098e-08
6.6034e-08
6.6034e-08
6.70833e-08
6.59606e-08
6.70098e-08
6.6034e-08
6.6034e-08
6.59605e-08
6.57823e-08
6.46595e-08
6.57087e-08
6.57087e-08
6.47329e-08
6.47329e-08
6.57822e-08
6.46595e-08
6.57087e-08
6.57087e-08
6.47329e-08
6.47329e-08
6.57087e-08
6.47329e-08
6.47329e-08
6.57823e-08
6.46595e-08
6.57087e-08
6.47329e-08
6.47329e-08
6.46595e-08
6.44812e-08
6.33584e-08
6.44077e-08
6.44077e-08
6.34319e-08
6.34319e-08
6.44812e-08
6.33584e-08
6.44077e-08
6.44077e-08
6.34319e-08
6.34319e-08
6.44077e-08
6.34319e-08
6.34319e-08
6.44812e-08
6.33584e-08
6.44077e-08
6.34319e-08
6.34319e-08
6.33584e-08
6.31801e-08
6.20574e-08
6.31066e-08
6.31066e-08
6.21308e-08
6.21308e-08
6.31801e-08
6.20574e-08
6.31066e-08
6.31066e-08
6.21308e-08
6.21308e-08
6.31066e-08
6.21308e-08
6.21308e-08
6.31801e-08
6.20574e-08
6.31066e-08
6.21308e-08
6.21308e-08
6.20574e-08
6.18791e-08
6.07563e-08
6.18055e-08
6.18055e-08
6.08297e-08
6.08297e-08
6.18791e-08
6.07563e-08
6.18055e-08
6.18055e-08
6.08297e-08
6.08297e-08
6.18055e-08
6.08297e-08
6.08297e-08
6.18791e-08
6.07563e-08
6.18055e-08
6.08297e-08
6.08297e-08
6.07563e-08
6.0578e-08
5.94552e-08
6.05045e-08
6.05045e-08
5.95287e-08
5.95287e-08
6.0578e-08
5.94552e-08
6.05045e-08
6.05045e-08
5.95287e-08
5.95287e-08
6.05045e-08
5.95287e-08
5.95287e-08
6.0578e-08
5.94552e-08
6.05045e-08
5.95287e-08
5.95287e-08
5.94552e-08
5.92769e-08
5.81542e-08
5.92034e-08
5.92034e-08
5.82276e-08
5.82276e-08
5.92769e-08
5.81542e-08
5.92034e-08
5.92034e-08
5.82276e-08
5.82276e-08
5.92034e-08
5.82276e-08
5.82276e-08
5.92769e-08
5.81542e-08
5.92034e-08
5.82276e-08
5.82276e-08
5.81542e-08
5.79759e-08
5.68531e-08
5.79023e-08
5.79023e-08
5.69266e-08
5.69266e-08
5.79759e-08
5.68531e-08
5.79023e-08
5.79023e-08
5.69266e-08
5.69266e-08
5.79024e-08
5.69266e-08
5.69266e-08
5.79759e-08
5.68531e-08
5.79024e-08
5.69266e-08
5.69266e-08
5.68531e-08
5.66748e-08
5.5552e-08
5.66013e-08
5.66013e-08
5.56255e-08
5.56255e-08
5.66748e-08
5.55521e-08
5.66013e-08
5.66013e-08
5.56255e-08
5.56255e-08
5.66013e-08
5.56255e-08
5.56255e-08
5.66748e-08
5.5552e-08
5.66013e-08
5.56255e-08
5.56255e-08
5.5552e-08
5.53737e-08
5.4251e-08
5.53002e-08
5.53002e-08
5.43244e-08
5.43244e-08
5.53737e-08
5.4251e-08
5.53002e-08
5.53002e-08
5.43244e-08
5.43244e-08
5.53002e-08
5.43244e-08
5.43244e-08
5.53738e-08
5.4251e-08
5.53002e-08
5.43244e-08
5.43244e-08
5.4251e-08
5.40727e-08
5.29499e-08
5.39992e-08
5.39991e-08
5.30233e-08
5.30233e-08
5.40727e-08
5.29499e-08
5.39992e-08
5.39992e-08
5.30233e-08
5.30233e-08
5.39992e-08
5.30233e-08
5.30233e-08
5.40727e-08
5.29499e-08
5.39992e-08
5.30233e-08
5.30233e-08
5.29499e-08
5.27716e-08
5.16488e-08
5.26981e-08
5.26981e-08
5.17223e-08
5.17223e-08
5.27716e-08
5.16488e-08
5.26981e-08
5.26981e-08
5.17223e-08
5.17223e-08
5.26981e-08
5.17223e-08
5.17223e-08
5.27716e-08
5.16488e-08
5.26981e-08
5.17223e-08
5.17223e-08
5.16488e-08
5.14705e-08
5.03477e-08
5.1397e-08
5.1397e-08
5.04212e-08
5.04212e-08
5.14705e-08
5.03478e-08
5.1397e-08
5.1397e-08
5.04212e-08
5.04212e-08
5.1397e-08
5.04212e-08
5.04212e-08
5.14705e-08
5.03477e-08
5.1397e-08
5.04212e-08
5.04212e-08
5.03477e-08
5.01694e-08
4.90467e-08
5.00959e-08
5.00959e-08
4.91201e-08
4.91201e-08
5.01694e-08
4.90467e-08
5.00959e-08
5.00959e-08
4.91201e-08
4.91201e-08
5.00959e-08
4.91201e-08
4.91201e-08
5.01694e-08
4.90467e-08
5.00959e-08
4.91201e-08
4.91201e-08
4.90467e-08
4.88684e-08
4.77456e-08
4.87948e-08
4.87948e-08
4.7819e-08
4.7819e-08
4.88684e-08
4.77456e-08
4.87948e-08
4.87948e-08
4.7819e-08
4.7819e-08
4.87948e-08
4.7819e-08
4.7819e-08
4.88684e-08
4.77456e-08
4.87948e-08
4.7819e-08
4.7819e-08
4.77456e-08
4.75673e-08
4.64445e-08
4.74938e-08
4.74938e-08
4.65179e-08
4.65179e-08
4.75673e-08
4.64445e-08
4.74938e-08
4.74938e-08
4.65179e-08
4.65179e-08
4.74938e-08
4.65179e-08
4.65179e-08
4.75673e-08
4.64445e-08
4.74938e-08
4.65179e-08
4.65179e-08
4.64445e-08
4.62662e-08
4.51434e-08
4.61927e-08
4.61927e-08
4.52169e-08
4.52169e-08
4.62662e-08
4.51434e-08
4.61927e-08
4.61927e-08
4.52169e-08
4.52169e-08
4.61927e-08
4.52169e-08
4.52169e-08
4.62662e-08
4.51434e-08
4.61927e-08
4.52169e-08
4.52169e-08
4.51434e-08
4.49651e-08
4.38423e-08
4.48916e-08
4.48916e-08
4.39158e-08
4.39158e-08
4.49651e-08
4.38423e-08
4.48916e-08
4.48916e-08
4.39158e-08
4.39158e-08
4.48916e-08
4.39158e-08
4.39158e-08
4.49651e-08
4.38423e-08
4.48916e-08
4.39158e-08
4.39158e-08
4.38423e-08
4.3664e-08
4.25412e-08
4.35905e-08
4.35905e-08
4.26147e-08
4.26147e-08
4.3664e-08
4.25413e-08
4.35905e-08
4.35905e-08
4.26147e-08
4.26147e-08
4.35905e-08
4.26147e-08
4.26147e-08
4.3664e-08
4.25412e-08
4.35905e-08
4.26147e-08
4.26147e-08
4.25412e-08
4.23629e-08
4.12402e-08
4.22894e-08
4.22894e-08
4.13136e-08
4.13136e-08
4.23629e-08
4.12402e-08
4.22894e-08
4.22894e-08
4.13136e-08
4.13136e-08
4.22894e-08
4.13136e-08
4.13136e-08
4.23629e-08
4.12402e-08
4.22894e-08
4.13136e-08
4.13136e-08
4.12402e-08
4.10619e-08
3.99391e-08
4.09883e-08
4.09883e-08
4.00125e-08
4.00125e-08
4.10619e-08
3.99391e-08
4.09883e-08
4.09883e-08
4.00125e-08
4.00125e-08
4.09883e-08
4.00125e-08
4.00125e-08
4.10619e-08
3.99391e-08
4.09883e-08
4.00125e-08
4.00125e-08
3.99391e-08
3.97608e-08
3.8638e-08
3.96872e-08
3.96872e-08
3.87114e-08
3.87114e-08
3.97608e-08
3.8638e-08
3.96872e-08
3.96872e-08
3.87114e-08
3.87114e-08
3.96872e-08
3.87114e-08
3.87114e-08
3.97608e-08
3.8638e-08
3.96872e-08
3.87114e-08
3.87114e-08
3.8638e-08
3.84597e-08
3.73369e-08
3.83861e-08
3.83861e-08
3.74103e-08
3.74103e-08
3.84597e-08
3.73369e-08
3.83861e-08
3.83861e-08
3.74103e-08
3.74103e-08
3.83861e-08
3.74103e-08
3.74103e-08
3.84597e-08
3.73369e-08
3.83861e-08
3.74103e-08
3.74103e-08
3.73369e-08
3.71586e-08
3.60358e-08
3.7085e-08
3.7085e-08
3.61092e-08
3.61092e-08
3.71586e-08
3.60358e-08
3.7085e-08
3.7085e-08
3.61092e-08
3.61092e-08
3.7085e-08
3.61092e-08
3.61092e-08
3.71586e-08
3.60358e-08
3.7085e-08
3.61092e-08
3.61092e-08
3.60358e-08
3.58575e-08
3.47347e-08
3.57839e-08
3.57839e-08
3.48081e-08
3.48081e-08
3.58575e-08
3.47347e-08
3.57839e-08
3.57839e-08
3.48081e-08
3.48081e-08
3.57839e-08
3.48081e-08
3.48081e-08
3.58575e-08
3.47347e-08
3.57839e-08
3.48081e-08
3.48081e-08
3.47347e-08
3.45564e-08
3.34336e-08
3.44828e-08
3.44828e-08
3.3507e-08
3.3507e-08
3.45564e-08
3.34336e-08
3.44828e-08
3.44828e-08
3.3507e-08
3.3507e-08
3.44828e-08
3.3507e-08
3.3507e-08
3.45564e-08
3.34336e-08
3.44828e-08
3.3507e-08
3.3507e-08
3.34336e-08
3.32553e-08
3.21325e-08
3.31817e-08
3.31817e-08
3.22059e-08
3.22059e-08
3.32553e-08
3.21325e-08
3.31817e-08
3.31817e-08
3.22059e-08
3.22059e-08
3.31817e-08
3.22059e-08
3.22059e-08
3.32553e-08
3.21325e-08
3.31817e-08
3.22059e-08
3.22059e-08
3.21325e-08
3.19542e-08
3.08314e-08
3.18806e-08
3.18806e-08
3.09048e-08
3.09048e-08
3.19541e-08
3.08314e-08
3.18806e-08
3.18806e-08
3.09048e-08
3.09048e-08
3.18806e-08
3.09048e-08
3.09048e-08
3.19542e-08
3.08314e-08
3.18806e-08
3.09048e-08
3.09048e-08
3.08314e-08
3.0653e-08
2.95303e-08
3.05795e-08
3.05795e-08
2.96037e-08
2.96037e-08
3.0653e-08
2.95303e-08
3.05795e-08
3.05795e-08
2.96037e-08
2.96037e-08
3.05795e-08
2.96037e-08
2.96037e-08
3.06531e-08
2.95303e-08
3.05795e-08
2.96037e-08
2.96037e-08
2.95303e-08
2.9352e-08
2.82292e-08
2.92784e-08
2.92784e-08
2.83026e-08
2.83026e-08
2.93519e-08
2.82292e-08
2.92784e-08
2.92784e-08
2.83026e-08
2.83026e-08
2.92784e-08
2.83026e-08
2.83026e-08
2.9352e-08
2.82292e-08
2.92784e-08
2.83026e-08
2.83026e-08
2.82292e-08
2.80509e-08
2.69281e-08
2.79773e-08
2.79773e-08
2.70015e-08
2.70015e-08
2.80509e-08
2.69281e-08
2.79773e-08
2.79773e-08
2.70015e-08
2.70015e-08
2.79773e-08
2.70015e-08
2.70015e-08
2.80509e-08
2.69281e-08
2.79773e-08
2.70015e-08
2.70015e-08
2.69281e-08
2.67498e-08
2.5627e-08
2.66763e-08
2.66763e-08
2.57004e-08
2.57004e-08
2.67498e-08
2.5627e-08
2.66763e-08
2.66763e-08
2.57004e-08
2.57004e-08
2.66763e-08
2.57004e-08
2.57004e-08
2.67498e-08
2.5627e-08
2.66763e-08
2.57004e-08
2.57004e-08
2.5627e-08
2.54487e-08
2.43259e-08
2.53752e-08
2.53752e-08
2.43994e-08
2.43993e-08
2.54487e-08
2.43259e-08
2.53752e-08
2.53752e-08
2.43993e-08
2.43993e-08
2.53752e-08
2.43994e-08
2.43994e-08
2.54487e-08
2.43259e-08
2.53752e-08
2.43994e-08
2.43993e-08
2.43259e-08
2.41476e-08
2.30248e-08
2.40741e-08
2.40741e-08
2.30983e-08
2.30983e-08
2.41476e-08
2.30248e-08
2.40741e-08
2.40741e-08
2.30983e-08
2.30983e-08
2.40741e-08
2.30983e-08
2.30983e-08
2.41476e-08
2.30248e-08
2.40741e-08
2.30983e-08
2.30983e-08
2.30248e-08
2.28465e-08
2.17237e-08
2.2773e-08
2.2773e-08
2.17972e-08
2.17972e-08
2.28465e-08
2.17237e-08
2.2773e-08
2.2773e-08
2.17972e-08
2.17972e-08
2.2773e-08
2.17972e-08
2.17972e-08
2.28465e-08
2.17237e-08
2.2773e-08
2.17972e-08
2.17972e-08
2.17237e-08
2.15454e-08
2.04226e-08
2.14719e-08
2.14719e-08
2.04961e-08
2.04961e-08
2.15454e-08
2.04226e-08
2.14719e-08
2.14719e-08
2.04961e-08
2.04961e-08
2.14719e-08
2.04961e-08
2.04961e-08
2.15454e-08
2.04226e-08
2.14719e-08
2.04961e-08
2.04961e-08
2.04226e-08
2.02443e-08
1.91215e-08
2.01708e-08
2.01708e-08
1.9195e-08
1.9195e-08
2.02443e-08
1.91215e-08
2.01708e-08
2.01708e-08
1.9195e-08
1.9195e-08
2.01708e-08
1.9195e-08
1.9195e-08
2.02443e-08
1.91215e-08
2.01708e-08
1.9195e-08
1.9195e-08
1.91215e-08
1.89432e-08
1.78204e-08
1.88697e-08
1.88697e-08
1.78939e-08
1.78939e-08
1.89432e-08
1.78204e-08
1.88697e-08
1.88697e-08
1.78939e-08
1.78939e-08
1.88697e-08
1.78939e-08
1.78939e-08
1.89432e-08
1.78204e-08
1.88697e-08
1.78939e-08
1.78939e-08
1.78204e-08
1.76421e-08
1.65193e-08
1.75686e-08
1.75686e-08
1.65928e-08
1.65928e-08
1.76421e-08
1.65193e-08
1.75686e-08
1.75686e-08
1.65928e-08
1.65928e-08
1.75686e-08
1.65928e-08
1.65928e-08
1.76421e-08
1.65193e-08
1.75686e-08
1.65928e-08
1.65928e-08
1.65193e-08
1.6341e-08
1.52183e-08
1.62675e-08
1.62675e-08
1.52917e-08
1.52917e-08
1.6341e-08
1.52183e-08
1.62675e-08
1.62675e-08
1.52917e-08
1.52917e-08
1.62675e-08
1.52917e-08
1.52917e-08
1.6341e-08
1.52183e-08
1.62675e-08
1.52917e-08
1.52917e-08
1.52183e-08
1.504e-08
1.39172e-08
1.49664e-08
1.49664e-08
1.39906e-08
1.39906e-08
1.50399e-08
1.39172e-08
1.49664e-08
1.49664e-08
1.39906e-08
1.39906e-08
1.49664e-08
1.39906e-08
1.39906e-08
1.504e-08
1.39172e-08
1.49664e-08
1.39906e-08
1.39906e-08
1.39172e-08
1.37389e-08
1.26161e-08
1.36654e-08
1.36654e-08
1.26896e-08
1.26896e-08
1.37389e-08
1.26161e-08
1.36654e-08
1.36654e-08
1.26896e-08
1.26896e-08
1.36654e-08
1.26896e-08
1.26896e-08
1.37389e-08
1.26161e-08
1.36654e-08
1.26896e-08
1.26896e-08
1.26161e-08
1.24378e-08
1.1315e-08
1.23643e-08
1.23643e-08
1.13885e-08
1.13885e-08
1.24378e-08
1.13151e-08
1.23643e-08
1.23643e-08
1.13885e-08
1.13885e-08
1.23643e-08
1.13885e-08
1.13885e-08
1.24378e-08
1.1315e-08
1.23643e-08
1.13885e-08
1.13885e-08
1.1315e-08
1.11367e-08
1.0014e-08
1.10632e-08
1.10632e-08
1.00874e-08
1.00874e-08
1.11367e-08
1.0014e-08
1.10632e-08
1.10632e-08
1.00874e-08
1.00874e-08
1.10632e-08
1.00874e-08
1.00874e-08
1.11368e-08
1.0014e-08
1.10632e-08
1.00874e-08
1.00874e-08
1.0014e-08
9.83567e-09
8.71289e-09
9.76215e-09
9.76215e-09
8.78633e-09
8.78633e-09
9.83566e-09
8.71289e-09
9.76215e-09
9.76215e-09
8.78633e-09
8.78633e-09
9.76215e-09
8.78633e-09
8.78633e-09
9.83568e-09
8.71288e-09
9.76215e-09
8.78633e-09
8.78633e-09
8.71288e-09
8.53459e-09
7.4118e-09
8.46107e-09
8.46106e-09
7.48525e-09
7.48525e-09
8.53458e-09
7.41181e-09
8.46107e-09
8.46107e-09
7.48524e-09
7.48524e-09
8.46107e-09
7.48525e-09
7.48525e-09
8.53459e-09
7.4118e-09
8.46107e-09
7.48525e-09
7.48525e-09
7.4118e-09
7.2335e-09
6.11072e-09
7.15999e-09
7.15999e-09
6.18417e-09
6.18417e-09
7.2335e-09
6.11073e-09
7.15999e-09
7.15999e-09
6.18417e-09
6.18417e-09
7.16e-09
6.18417e-09
6.18417e-09
7.23351e-09
6.11072e-09
7.15999e-09
6.18417e-09
6.18417e-09
6.11072e-09
5.93243e-09
4.80963e-09
5.85894e-09
5.85894e-09
4.88308e-09
4.88308e-09
5.93242e-09
4.80964e-09
5.85894e-09
5.85894e-09
4.88308e-09
4.88308e-09
5.85894e-09
4.88308e-09
4.88307e-09
5.93243e-09
4.80963e-09
5.85894e-09
4.88308e-09
4.88307e-09
4.80962e-09
4.63136e-09
3.50855e-09
4.5579e-09
4.5579e-09
3.58196e-09
3.58196e-09
4.63135e-09
3.50855e-09
4.5579e-09
4.5579e-09
3.58196e-09
3.58195e-09
4.5579e-09
3.58196e-09
3.58196e-09
4.63136e-09
3.50853e-09
4.5579e-09
3.58196e-09
3.58196e-09
3.50853e-09
3.33036e-09
2.20851e-09
3.25683e-09
3.25683e-09
2.28064e-09
2.28063e-09
3.33034e-09
2.2085e-09
3.25683e-09
3.25683e-09
2.28064e-09
2.28061e-09
3.25683e-09
2.28063e-09
2.28062e-09
3.33036e-09
2.20846e-09
3.25683e-09
2.2806e-09
2.28062e-09
2.20848e-09
2.03059e-09
8.70472e-10
1.95568e-09
1.95566e-09
1.02721e-09
1.02714e-09
2.03054e-09
8.70391e-10
1.95569e-09
1.95561e-09
1.0274e-09
1.02709e-09
1.95564e-09
1.0273e-09
1.02709e-09
2.03054e-09
8.70334e-10
1.95565e-09
1.02716e-09
1.02734e-09
8.70408e-10
6.65723e-10
7.34014e-10
7.33954e-10
6.65656e-10
7.34158e-10
7.33917e-10
6.67188e-10
6.67164e-10
6.6719e-10
7.33941e-10
6.65631e-10
7.34088e-10
1.286e-07
1.2921e-07
1.28883e-07
1.28884e-07
1.30611e-07
1.29468e-07
1.31997e-07
1.29104e-07
1.30611e-07
1.29469e-07
1.29104e-07
1.31997e-07
1.29765e-07
1.32431e-07
1.32431e-07
1.25965e-07
1.27217e-07
1.27232e-07
1.25927e-07
1.27155e-07
1.25911e-07
1.25965e-07
1.27217e-07
1.27232e-07
1.25927e-07
1.27267e-07
1.27267e-07
1.27267e-07
1.24989e-07
1.24989e-07
1.24988e-07
1.24988e-07
1.26026e-07
1.27272e-07
1.27244e-07
1.26341e-07
1.27307e-07
1.25976e-07
1.26392e-07
1.27155e-07
1.25911e-07
1.26026e-07
1.27244e-07
1.27272e-07
1.26341e-07
1.27307e-07
1.26392e-07
1.25976e-07
1.27288e-07
1.27288e-07
1.26146e-07
1.2596e-07
1.2596e-07
1.2353e-07
1.24336e-07
1.24356e-07
1.23515e-07
1.2433e-07
1.23511e-07
1.2353e-07
1.24336e-07
1.24356e-07
1.23515e-07
1.24356e-07
1.24356e-07
1.24356e-07
1.22697e-07
1.22697e-07
1.22697e-07
1.22697e-07