/*--------------------------------*- C++ -*----------------------------------*\
| =========                 |                                                 |
| \\      /  F ield         | OpenFOAM: The Open Source CFD Toolbox           |
|  \\    /   O peration     | Version:  v2012                                 |
|   \\  /    A nd           | Website:  www.openfoam.com                      |
|    \\/     M anipulation  |                                                 |
\*---------------------------------------------------------------------------*/
FoamFile
{
    version     2.0;
    format      ascii;
    class       volScalarField;
    location    "750";
    object      k;
}
// * * * * * * * * * * * * * * * * * * * * * * * * * * * * * * * * * * * * * //

dimensions      [0 2 -2 0 0 0 0];


internalField   nonuniform List<scalar> 
171728
(
3.58932e-05
3.58912e-05
3.58912e-05
3.59957e-05
3.39296e-05
3.3889e-05
3.3889e-05
3.39622e-05
3.21578e-05
3.20081e-05
3.20081e-05
3.19522e-05
3.05346e-05
3.02293e-05
3.02292e-05
2.99884e-05
2.90329e-05
2.8554e-05
2.85539e-05
2.81226e-05
2.76353e-05
2.69872e-05
2.69871e-05
2.63907e-05
2.63308e-05
2.5531e-05
2.55309e-05
2.48073e-05
2.51112e-05
2.4185e-05
2.41848e-05
2.33782e-05
2.39709e-05
2.29506e-05
2.29504e-05
2.21046e-05
2.29058e-05
2.18269e-05
2.18267e-05
2.0986e-05
2.1912e-05
2.08114e-05
2.08112e-05
2.00134e-05
2.09865e-05
1.99013e-05
1.99011e-05
1.91814e-05
2.01241e-05
1.90947e-05
1.90946e-05
1.84895e-05
1.93239e-05
1.83885e-05
1.83884e-05
1.7933e-05
1.85847e-05
1.77793e-05
1.77792e-05
1.75062e-05
1.79042e-05
1.72656e-05
1.72656e-05
1.72001e-05
1.72798e-05
1.68465e-05
1.68466e-05
1.70225e-05
1.67097e-05
1.65211e-05
1.65212e-05
1.69817e-05
1.61923e-05
1.62895e-05
1.62897e-05
1.70789e-05
1.57254e-05
1.61516e-05
1.6152e-05
1.73039e-05
1.53073e-05
1.61072e-05
1.61077e-05
1.76569e-05
1.49374e-05
1.61533e-05
1.61539e-05
1.81341e-05
1.46145e-05
1.62919e-05
1.62926e-05
1.87289e-05
1.43382e-05
1.652e-05
1.65209e-05
1.94282e-05
1.4108e-05
1.68354e-05
1.68364e-05
2.02206e-05
1.39235e-05
1.72352e-05
1.72363e-05
2.10948e-05
1.37844e-05
1.77154e-05
1.77167e-05
2.20357e-05
1.36906e-05
1.82724e-05
1.82738e-05
2.30303e-05
1.36422e-05
1.89015e-05
1.89031e-05
2.40647e-05
1.36391e-05
1.95974e-05
1.95991e-05
2.51256e-05
1.36815e-05
2.03554e-05
2.03573e-05
2.62015e-05
1.37699e-05
2.11688e-05
2.11707e-05
2.72827e-05
1.39047e-05
2.20324e-05
2.20344e-05
2.8361e-05
1.40855e-05
2.29386e-05
2.29408e-05
2.9429e-05
1.43137e-05
2.38829e-05
2.3885e-05
3.04852e-05
1.45873e-05
2.48556e-05
2.48579e-05
3.15196e-05
1.4909e-05
2.58553e-05
2.58576e-05
3.25381e-05
1.52762e-05
2.68715e-05
2.68739e-05
3.35328e-05
1.56888e-05
2.78986e-05
2.79012e-05
3.45037e-05
1.61461e-05
2.8933e-05
2.89354e-05
3.54512e-05
1.66471e-05
2.99678e-05
2.99707e-05
3.63732e-05
1.71898e-05
3.09993e-05
3.10023e-05
3.72698e-05
1.77729e-05
3.20238e-05
3.20268e-05
3.81419e-05
1.83937e-05
3.30358e-05
3.30388e-05
3.89881e-05
1.90501e-05
3.40332e-05
3.40355e-05
3.98116e-05
1.97401e-05
3.50123e-05
3.50151e-05
4.06096e-05
2.04556e-05
3.59666e-05
3.59689e-05
4.13792e-05
2.11979e-05
3.68989e-05
3.69013e-05
4.21271e-05
2.19637e-05
3.78091e-05
3.78108e-05
4.2851e-05
2.27447e-05
3.86882e-05
3.86908e-05
4.35481e-05
2.35434e-05
3.95441e-05
3.9547e-05
4.42236e-05
2.43454e-05
4.0367e-05
4.03695e-05
4.48704e-05
2.51652e-05
4.11713e-05
4.11729e-05
4.55023e-05
2.59755e-05
4.19305e-05
4.19319e-05
4.6096e-05
2.67831e-05
4.26696e-05
4.26751e-05
4.66765e-05
2.7606e-05
4.33916e-05
4.33897e-05
4.72407e-05
2.84042e-05
4.40648e-05
4.40674e-05
4.77652e-05
2.91881e-05
4.47138e-05
4.47188e-05
4.82757e-05
2.99725e-05
4.53462e-05
4.53428e-05
4.87683e-05
3.0744e-05
4.59477e-05
4.59527e-05
4.92437e-05
3.14879e-05
4.64971e-05
4.64972e-05
4.96659e-05
3.2188e-05
4.70528e-05
4.70539e-05
5.0107e-05
3.29427e-05
4.75746e-05
4.75841e-05
5.05302e-05
3.36103e-05
4.80644e-05
4.8056e-05
5.08875e-05
3.42445e-05
4.84836e-05
4.84746e-05
5.12288e-05
3.4836e-05
4.88916e-05
4.89097e-05
5.15277e-05
3.5422e-05
4.93263e-05
4.93342e-05
5.19316e-05
3.6326e-05
4.99725e-05
4.99685e-05
5.24371e-05
3.66924e-05
5.00665e-05
5.00702e-05
5.24009e-05
3.69033e-05
5.02569e-05
5.00709e-05
5.24816e-05
3.76256e-05
5.06846e-05
5.10857e-05
5.34599e-05
3.87081e-05
5.16828e-05
5.16455e-05
5.3842e-05
3.87816e-05
5.15869e-05
5.06328e-05
5.25684e-05
3.71093e-05
4.88858e-05
4.90672e-05
5.10423e-05
3.73485e-05
4.986e-05
5.22667e-05
5.47077e-05
4.44941e-05
5.81778e-05
5.751e-05
5.98019e-05
4.55934e-05
5.79063e-05
5.54465e-05
5.64455e-05
3.76079e-05
4.73407e-05
4.77125e-05
4.92257e-05
3.46711e-05
4.63731e-05
4.79236e-05
5.07553e-05
3.96695e-05
5.26542e-05
5.2146e-05
5.41924e-05
4.28609e-05
5.35567e-05
5.30551e-05
5.48455e-05
4.30138e-05
5.36285e-05
5.51468e-05
5.66224e-05
4.30928e-05
5.44026e-05
5.53165e-05
5.62141e-05
4.19574e-05
5.35275e-05
5.08621e-05
5.38011e-05
4.15305e-05
5.35901e-05
5.04665e-05
5.57592e-05
4.35256e-05
5.45911e-05
5.58115e-05
5.75215e-05
4.34791e-05
5.20622e-05
5.65635e-05
5.36008e-05
3.92153e-05
4.90234e-05
5.08386e-05
5.0401e-05
3.84501e-05
5.08831e-05
4.89039e-05
5.3209e-05
4.31532e-05
5.54715e-05
5.22268e-05
5.71944e-05
4.55051e-05
5.57324e-05
5.48454e-05
5.6917e-05
4.38534e-05
5.17407e-05
5.43015e-05
5.3835e-05
4.02845e-05
5.02612e-05
5.16013e-05
5.24123e-05
3.96754e-05
5.14976e-05
5.12101e-05
5.32295e-05
4.13996e-05
5.22984e-05
5.13335e-05
5.46444e-05
3.63068e-05
3.6291e-05
3.6291e-05
3.63068e-05
3.6291e-05
3.6291e-05
3.6423e-05
3.6423e-05
3.6423e-05
3.6423e-05
3.6291e-05
3.6291e-05
3.63068e-05
3.6291e-05
3.6291e-05
3.63068e-05
3.59957e-05
3.42687e-05
3.58912e-05
3.58912e-05
3.43767e-05
3.43766e-05
3.59957e-05
3.42687e-05
3.58911e-05
3.58912e-05
3.43767e-05
3.43766e-05
3.58912e-05
3.43767e-05
3.43767e-05
3.59957e-05
3.42687e-05
3.58912e-05
3.43767e-05
3.43767e-05
3.42687e-05
3.39623e-05
3.22635e-05
3.38889e-05
3.38889e-05
3.24684e-05
3.24683e-05
3.39623e-05
3.22635e-05
3.38889e-05
3.38889e-05
3.24684e-05
3.24683e-05
3.38889e-05
3.24685e-05
3.24684e-05
3.39623e-05
3.22634e-05
3.38889e-05
3.24685e-05
3.24684e-05
3.22634e-05
3.19522e-05
3.02993e-05
3.20079e-05
3.20078e-05
3.06643e-05
3.06642e-05
3.19522e-05
3.02994e-05
3.2008e-05
3.20078e-05
3.06644e-05
3.06641e-05
3.20079e-05
3.06646e-05
3.06643e-05
3.19522e-05
3.02992e-05
3.2008e-05
3.06645e-05
3.06644e-05
3.02992e-05
2.99885e-05
2.84253e-05
3.0229e-05
3.02288e-05
2.89624e-05
2.89622e-05
2.99886e-05
2.84255e-05
3.02291e-05
3.02287e-05
2.89626e-05
2.89621e-05
3.02289e-05
2.89628e-05
2.89623e-05
2.99884e-05
2.84252e-05
3.02291e-05
2.89627e-05
2.89626e-05
2.84252e-05
2.81227e-05
2.6674e-05
2.85536e-05
2.85534e-05
2.7368e-05
2.73678e-05
2.81228e-05
2.66742e-05
2.85538e-05
2.85533e-05
2.73683e-05
2.73676e-05
2.85535e-05
2.73685e-05
2.73679e-05
2.81226e-05
2.66739e-05
2.85538e-05
2.73684e-05
2.73683e-05
2.66738e-05
2.63908e-05
2.50663e-05
2.69866e-05
2.69864e-05
2.58841e-05
2.58838e-05
2.6391e-05
2.50665e-05
2.6987e-05
2.69862e-05
2.58845e-05
2.58836e-05
2.69865e-05
2.58848e-05
2.5884e-05
2.63907e-05
2.50661e-05
2.69869e-05
2.58846e-05
2.58844e-05
2.50661e-05
2.48075e-05
2.36125e-05
2.55304e-05
2.55301e-05
2.45102e-05
2.45099e-05
2.48076e-05
2.36127e-05
2.55308e-05
2.55299e-05
2.45107e-05
2.45097e-05
2.55302e-05
2.4511e-05
2.45102e-05
2.48073e-05
2.36123e-05
2.55307e-05
2.45108e-05
2.45107e-05
2.36123e-05
2.33784e-05
2.23124e-05
2.41842e-05
2.41838e-05
2.32478e-05
2.32475e-05
2.33785e-05
2.23126e-05
2.41847e-05
2.41836e-05
2.32484e-05
2.32473e-05
2.41841e-05
2.32488e-05
2.32478e-05
2.33782e-05
2.23122e-05
2.41846e-05
2.32485e-05
2.32484e-05
2.23122e-05
2.21049e-05
2.11681e-05
2.29497e-05
2.29494e-05
2.20965e-05
2.20962e-05
2.21051e-05
2.11683e-05
2.29503e-05
2.29491e-05
2.20972e-05
2.2096e-05
2.29496e-05
2.20976e-05
2.20965e-05
2.21047e-05
2.11678e-05
2.29503e-05
2.20973e-05
2.20972e-05
2.11678e-05
2.09863e-05
2.01708e-05
2.18259e-05
2.18255e-05
2.10542e-05
2.10538e-05
2.09865e-05
2.01709e-05
2.18266e-05
2.18253e-05
2.10549e-05
2.10536e-05
2.18258e-05
2.10552e-05
2.10541e-05
2.09861e-05
2.01705e-05
2.18265e-05
2.1055e-05
2.10549e-05
2.01704e-05
2.00137e-05
1.93146e-05
2.08103e-05
2.081e-05
2.0118e-05
2.01176e-05
2.00138e-05
1.93148e-05
2.08111e-05
2.08097e-05
2.01188e-05
2.01174e-05
2.08102e-05
2.01191e-05
2.01179e-05
2.00134e-05
1.93144e-05
2.08111e-05
2.01189e-05
2.01188e-05
1.93143e-05
1.91817e-05
1.85904e-05
1.99002e-05
1.98999e-05
1.92855e-05
1.92852e-05
1.91818e-05
1.85906e-05
1.9901e-05
1.98997e-05
1.92863e-05
1.9285e-05
1.99001e-05
1.92866e-05
1.92855e-05
1.91815e-05
1.85902e-05
1.9901e-05
1.92865e-05
1.92864e-05
1.859e-05
1.84898e-05
1.79978e-05
1.90936e-05
1.90933e-05
1.85545e-05
1.85542e-05
1.84899e-05
1.79979e-05
1.90945e-05
1.90931e-05
1.85553e-05
1.8554e-05
1.90936e-05
1.85555e-05
1.85544e-05
1.84896e-05
1.79976e-05
1.90945e-05
1.85554e-05
1.85553e-05
1.79974e-05
1.79333e-05
1.75392e-05
1.83874e-05
1.83871e-05
1.79213e-05
1.79211e-05
1.79333e-05
1.75393e-05
1.83883e-05
1.8387e-05
1.79221e-05
1.79209e-05
1.83874e-05
1.79223e-05
1.79213e-05
1.79331e-05
1.75391e-05
1.83883e-05
1.79222e-05
1.79222e-05
1.75389e-05
1.75065e-05
1.72177e-05
1.77783e-05
1.77781e-05
1.73838e-05
1.73836e-05
1.75065e-05
1.72176e-05
1.77792e-05
1.77779e-05
1.73846e-05
1.73835e-05
1.77783e-05
1.73846e-05
1.73838e-05
1.75063e-05
1.72176e-05
1.77792e-05
1.73846e-05
1.73846e-05
1.72174e-05
1.72004e-05
1.7026e-05
1.72648e-05
1.72646e-05
1.69411e-05
1.69409e-05
1.72003e-05
1.70258e-05
1.72655e-05
1.72645e-05
1.69418e-05
1.69409e-05
1.72647e-05
1.69418e-05
1.6941e-05
1.72003e-05
1.7026e-05
1.72655e-05
1.69418e-05
1.69418e-05
1.70258e-05
1.70227e-05
1.69725e-05
1.68458e-05
1.68457e-05
1.65921e-05
1.65919e-05
1.70225e-05
1.69722e-05
1.68465e-05
1.68456e-05
1.65927e-05
1.6592e-05
1.68458e-05
1.65926e-05
1.6592e-05
1.70226e-05
1.69725e-05
1.68465e-05
1.65927e-05
1.65927e-05
1.69723e-05
1.69818e-05
1.70434e-05
1.65206e-05
1.65204e-05
1.63368e-05
1.63367e-05
1.69815e-05
1.70431e-05
1.65213e-05
1.65205e-05
1.63374e-05
1.63369e-05
1.65205e-05
1.63372e-05
1.63368e-05
1.69818e-05
1.70435e-05
1.65213e-05
1.63374e-05
1.63375e-05
1.70433e-05
1.70789e-05
1.72435e-05
1.62892e-05
1.62891e-05
1.61753e-05
1.61753e-05
1.70786e-05
1.7243e-05
1.62897e-05
1.62892e-05
1.61759e-05
1.61755e-05
1.62891e-05
1.61755e-05
1.61753e-05
1.7079e-05
1.72437e-05
1.62898e-05
1.61758e-05
1.61759e-05
1.72435e-05
1.73038e-05
1.7572e-05
1.61515e-05
1.61515e-05
1.61071e-05
1.61073e-05
1.73034e-05
1.75715e-05
1.61521e-05
1.61517e-05
1.61076e-05
1.61075e-05
1.61515e-05
1.61071e-05
1.61071e-05
1.7304e-05
1.75724e-05
1.61521e-05
1.61076e-05
1.61077e-05
1.75722e-05
1.76567e-05
1.80252e-05
1.61072e-05
1.61074e-05
1.61328e-05
1.61331e-05
1.76563e-05
1.80246e-05
1.61077e-05
1.61076e-05
1.61332e-05
1.61334e-05
1.61072e-05
1.61327e-05
1.61329e-05
1.76571e-05
1.80256e-05
1.61078e-05
1.61332e-05
1.61335e-05
1.80255e-05
1.81337e-05
1.85974e-05
1.61534e-05
1.61538e-05
1.62489e-05
1.62494e-05
1.81332e-05
1.85968e-05
1.6154e-05
1.61541e-05
1.62493e-05
1.62498e-05
1.61536e-05
1.62487e-05
1.62491e-05
1.81342e-05
1.85979e-05
1.61541e-05
1.62493e-05
1.62496e-05
1.85979e-05
1.87285e-05
1.92758e-05
1.62921e-05
1.62927e-05
1.6455e-05
1.64555e-05
1.8728e-05
1.9275e-05
1.62926e-05
1.6293e-05
1.64553e-05
1.6456e-05
1.62924e-05
1.64546e-05
1.64553e-05
1.87291e-05
1.92764e-05
1.62928e-05
1.64553e-05
1.64558e-05
1.92764e-05
1.94276e-05
2.00493e-05
1.65205e-05
1.65211e-05
1.6749e-05
1.67497e-05
1.94268e-05
2.00487e-05
1.65209e-05
1.65215e-05
1.67491e-05
1.67502e-05
1.65208e-05
1.67484e-05
1.67494e-05
1.94281e-05
2.00504e-05
1.65212e-05
1.67493e-05
1.67497e-05
2.00502e-05
2.02199e-05
2.09069e-05
1.6836e-05
1.68367e-05
1.71285e-05
1.71291e-05
2.02193e-05
2.09058e-05
1.68363e-05
1.68373e-05
1.71285e-05
1.71298e-05
1.68364e-05
1.71275e-05
1.71289e-05
2.02208e-05
2.09077e-05
1.68368e-05
1.71285e-05
1.71292e-05
2.09077e-05
2.1094e-05
2.18334e-05
1.72362e-05
1.72368e-05
1.75891e-05
1.75898e-05
2.1093e-05
2.18324e-05
1.72362e-05
1.72374e-05
1.75889e-05
1.75906e-05
1.72366e-05
1.7588e-05
1.75897e-05
2.10948e-05
2.18346e-05
1.72368e-05
1.75891e-05
1.75898e-05
2.18347e-05
2.20345e-05
2.28164e-05
1.77166e-05
1.77173e-05
1.81276e-05
1.81284e-05
2.20336e-05
2.28154e-05
1.77164e-05
1.77182e-05
1.81272e-05
1.81292e-05
1.77172e-05
1.81263e-05
1.81282e-05
2.20357e-05
2.28178e-05
1.77173e-05
1.81275e-05
1.81281e-05
2.28178e-05
2.30292e-05
2.38416e-05
1.8274e-05
1.82746e-05
1.87393e-05
1.874e-05
2.30281e-05
2.38403e-05
1.82736e-05
1.82755e-05
1.87386e-05
1.8741e-05
1.82746e-05
1.87376e-05
1.87402e-05
2.30303e-05
2.3843e-05
1.82744e-05
1.8739e-05
1.87398e-05
2.38434e-05
2.40631e-05
2.48961e-05
1.89033e-05
1.89039e-05
1.94196e-05
1.94202e-05
2.40619e-05
2.48949e-05
1.89026e-05
1.8905e-05
1.94186e-05
1.94212e-05
1.8904e-05
1.94175e-05
1.94205e-05
2.40644e-05
2.48976e-05
1.89036e-05
1.9419e-05
1.94198e-05
2.48978e-05
2.5124e-05
2.59675e-05
1.95995e-05
1.96e-05
2.01627e-05
2.01634e-05
2.51227e-05
2.59663e-05
1.95986e-05
1.96012e-05
2.01613e-05
2.01644e-05
1.96005e-05
2.01605e-05
2.01636e-05
2.51253e-05
2.59691e-05
1.95998e-05
2.01621e-05
2.01627e-05
2.59694e-05
2.61998e-05
2.70465e-05
2.03578e-05
2.03582e-05
2.09631e-05
2.09635e-05
2.61988e-05
2.70449e-05
2.03565e-05
2.03596e-05
2.09615e-05
2.09649e-05
2.03587e-05
2.09605e-05
2.09642e-05
2.62013e-05
2.7048e-05
2.03578e-05
2.09624e-05
2.0963e-05
2.70485e-05
2.72808e-05
2.81241e-05
2.11714e-05
2.11718e-05
2.18152e-05
2.18155e-05
2.72794e-05
2.81225e-05
2.11698e-05
2.11731e-05
2.18132e-05
2.18167e-05
2.11725e-05
2.18124e-05
2.18164e-05
2.72822e-05
2.81255e-05
2.11712e-05
2.1814e-05
2.18148e-05
2.81261e-05
2.83591e-05
2.91931e-05
2.20352e-05
2.20356e-05
2.27109e-05
2.27112e-05
2.83577e-05
2.91916e-05
2.20333e-05
2.20369e-05
2.27086e-05
2.27128e-05
2.20367e-05
2.2708e-05
2.27123e-05
2.83604e-05
2.9195e-05
2.20351e-05
2.27101e-05
2.27105e-05
2.91954e-05
2.94271e-05
3.0251e-05
2.29415e-05
2.29418e-05
2.36473e-05
2.36474e-05
2.94257e-05
3.02492e-05
2.29393e-05
2.29433e-05
2.36448e-05
2.36488e-05
2.29427e-05
2.36441e-05
2.36488e-05
2.94288e-05
3.02523e-05
2.29409e-05
2.36461e-05
2.36467e-05
3.02531e-05
3.04831e-05
3.12886e-05
2.38862e-05
2.38861e-05
2.46127e-05
2.46127e-05
3.04814e-05
3.12869e-05
2.38838e-05
2.38876e-05
2.46099e-05
2.46144e-05
2.38878e-05
2.46096e-05
2.46145e-05
3.04842e-05
3.12902e-05
2.38857e-05
2.46117e-05
2.46122e-05
3.1291e-05
3.15175e-05
3.23102e-05
2.48585e-05
2.48588e-05
2.56067e-05
2.56065e-05
3.1516e-05
3.23087e-05
2.48559e-05
2.48605e-05
2.56038e-05
2.56083e-05
2.48604e-05
2.56034e-05
2.56084e-05
3.1519e-05
3.23118e-05
2.4858e-05
2.56057e-05
2.56059e-05
3.23123e-05
3.25363e-05
3.33095e-05
2.58586e-05
2.58584e-05
2.66193e-05
2.66193e-05
3.25347e-05
3.33079e-05
2.58559e-05
2.586e-05
2.66164e-05
2.66209e-05
2.58606e-05
2.66162e-05
2.66216e-05
3.25374e-05
3.33109e-05
2.5858e-05
2.66185e-05
2.66188e-05
3.3312e-05
3.35306e-05
3.4285e-05
2.68745e-05
2.68745e-05
2.76443e-05
2.76438e-05
3.35293e-05
3.42829e-05
2.68717e-05
2.68762e-05
2.76414e-05
2.76457e-05
2.68767e-05
2.76409e-05
2.76465e-05
3.3532e-05
3.42862e-05
2.6874e-05
2.76435e-05
2.76437e-05
3.4287e-05
3.45017e-05
3.5237e-05
2.7902e-05
2.79015e-05
2.86766e-05
2.86766e-05
3.44998e-05
3.52356e-05
2.78992e-05
2.79033e-05
2.86738e-05
2.86782e-05
2.79043e-05
2.86739e-05
2.86796e-05
3.45026e-05
3.52383e-05
2.79016e-05
2.86762e-05
2.86767e-05
3.52397e-05
3.54488e-05
3.61651e-05
2.89357e-05
2.89357e-05
2.97122e-05
2.97122e-05
3.54475e-05
3.61636e-05
2.8933e-05
2.89373e-05
2.97093e-05
2.97139e-05
2.89386e-05
2.97095e-05
2.97149e-05
3.545e-05
3.61663e-05
2.89358e-05
2.97122e-05
2.97121e-05
3.61671e-05
3.63713e-05
3.70668e-05
2.99706e-05
2.99704e-05
3.07446e-05
3.07442e-05
3.63699e-05
3.70649e-05
2.99682e-05
2.99724e-05
3.07421e-05
3.07461e-05
2.99734e-05
3.07418e-05
3.07478e-05
3.63724e-05
3.70674e-05
2.99706e-05
3.07446e-05
3.07451e-05
3.7069e-05
3.72676e-05
3.79445e-05
3.10022e-05
3.10018e-05
3.17712e-05
3.17711e-05
3.72659e-05
3.79429e-05
3.09999e-05
3.10037e-05
3.17687e-05
3.17729e-05
3.10052e-05
3.17688e-05
3.17747e-05
3.72682e-05
3.79455e-05
3.10025e-05
3.17716e-05
3.17719e-05
3.79467e-05
3.81397e-05
3.87966e-05
3.20264e-05
3.20261e-05
3.27864e-05
3.27864e-05
3.81382e-05
3.8795e-05
3.20242e-05
3.20281e-05
3.27841e-05
3.2788e-05
3.20297e-05
3.27843e-05
3.27897e-05
3.81406e-05
3.87973e-05
3.2027e-05
3.27871e-05
3.2787e-05
3.87986e-05
3.89862e-05
3.96249e-05
3.30381e-05
3.3038e-05
3.37872e-05
3.37872e-05
3.89848e-05
3.96233e-05
3.3036e-05
3.30397e-05
3.37848e-05
3.37881e-05
3.30412e-05
3.37852e-05
3.37908e-05
3.89869e-05
3.96251e-05
3.30386e-05
3.37874e-05
3.37881e-05
3.96272e-05
3.98094e-05
4.04295e-05
3.40357e-05
3.40352e-05
3.4772e-05
3.47718e-05
3.98077e-05
4.04276e-05
3.40334e-05
3.40363e-05
3.47699e-05
3.47734e-05
3.40391e-05
3.47699e-05
3.47754e-05
3.98094e-05
4.04301e-05
3.40364e-05
3.47728e-05
3.4773e-05
4.04316e-05
4.06076e-05
4.12044e-05
3.50142e-05
3.50142e-05
3.57311e-05
3.57316e-05
4.0606e-05
4.12034e-05
3.50121e-05
3.50156e-05
3.57292e-05
3.5733e-05
3.50175e-05
3.57299e-05
3.57348e-05
4.06084e-05
4.12054e-05
3.50151e-05
3.57328e-05
3.57326e-05
4.12067e-05
4.13769e-05
4.19581e-05
3.5968e-05
3.59683e-05
3.66699e-05
3.66693e-05
4.13759e-05
4.1956e-05
3.5966e-05
3.5969e-05
3.6668e-05
3.66704e-05
3.59715e-05
3.66677e-05
3.66731e-05
4.13776e-05
4.19577e-05
3.59692e-05
3.667e-05
3.66708e-05
4.19599e-05
4.21254e-05
4.2687e-05
3.69012e-05
3.69006e-05
3.75852e-05
3.75854e-05
4.21234e-05
4.2686e-05
3.68993e-05
3.69016e-05
3.75832e-05
3.75864e-05
3.69042e-05
3.7584e-05
3.75886e-05
4.21251e-05
4.26877e-05
3.69019e-05
3.75865e-05
3.75867e-05
4.26893e-05
4.28486e-05
4.339e-05
3.78099e-05
3.78105e-05
3.84717e-05
3.84718e-05
4.28479e-05
4.33887e-05
3.78078e-05
3.78105e-05
3.84702e-05
3.84728e-05
3.78134e-05
3.84705e-05
3.84751e-05
4.28492e-05
4.33902e-05
3.78113e-05
3.8473e-05
3.84734e-05
4.33922e-05
4.3546e-05
4.40706e-05
3.86898e-05
3.86894e-05
3.93346e-05
3.93341e-05
4.35446e-05
4.40688e-05
3.86884e-05
3.86908e-05
3.93332e-05
3.93357e-05
3.86931e-05
3.93329e-05
3.93379e-05
4.35462e-05
4.40711e-05
3.86912e-05
3.93362e-05
3.93365e-05
4.40729e-05
4.42213e-05
4.4723e-05
3.95457e-05
3.95454e-05
4.01635e-05
4.01644e-05
4.42199e-05
4.47226e-05
3.95442e-05
3.95464e-05
4.01616e-05
4.01644e-05
3.95491e-05
4.01634e-05
4.01669e-05
4.42217e-05
4.47234e-05
3.95476e-05
4.01654e-05
4.01655e-05
4.47254e-05
4.48684e-05
4.53602e-05
4.03677e-05
4.03679e-05
4.0975e-05
4.09742e-05
4.48678e-05
4.53583e-05
4.03663e-05
4.03689e-05
4.09735e-05
4.09749e-05
4.03707e-05
4.09732e-05
4.0977e-05
4.48687e-05
4.53598e-05
4.03694e-05
4.0975e-05
4.09755e-05
4.53615e-05
4.55008e-05
4.59606e-05
4.11718e-05
4.11722e-05
4.1745e-05
4.17455e-05
4.54994e-05
4.59605e-05
4.11706e-05
4.11725e-05
4.17435e-05
4.17449e-05
4.11748e-05
4.17448e-05
4.17486e-05
4.55004e-05
4.5961e-05
4.11733e-05
4.17463e-05
4.17471e-05
4.59635e-05
4.60935e-05
4.65414e-05
4.19313e-05
4.19315e-05
4.24854e-05
4.24856e-05
4.60931e-05
4.65404e-05
4.19299e-05
4.19305e-05
4.24843e-05
4.24881e-05
4.19341e-05
4.24852e-05
4.249e-05
4.60937e-05
4.65434e-05
4.19326e-05
4.24902e-05
4.24898e-05
4.65447e-05
4.66729e-05
4.71146e-05
4.26691e-05
4.26697e-05
4.32168e-05
4.32168e-05
4.66722e-05
4.71136e-05
4.26689e-05
4.26733e-05
4.32149e-05
4.32143e-05
4.26743e-05
4.32159e-05
4.32184e-05
4.66754e-05
4.71123e-05
4.26745e-05
4.32142e-05
4.32163e-05
4.71155e-05
4.72406e-05
4.76467e-05
4.33938e-05
4.33924e-05
4.39007e-05
4.38996e-05
4.72391e-05
4.7644e-05
4.33915e-05
4.3389e-05
4.38987e-05
4.38998e-05
4.33951e-05
4.38984e-05
4.39012e-05
4.72366e-05
4.76458e-05
4.33931e-05
4.39011e-05
4.39002e-05
4.76471e-05
4.77644e-05
4.81548e-05
4.4066e-05
4.40662e-05
4.45509e-05
4.45528e-05
4.77626e-05
4.81566e-05
4.4064e-05
4.40664e-05
4.45516e-05
4.45564e-05
4.40668e-05
4.45536e-05
4.45577e-05
4.77653e-05
4.81595e-05
4.40651e-05
4.4558e-05
4.45569e-05
4.81597e-05
4.82702e-05
4.86545e-05
4.47109e-05
4.47131e-05
4.51895e-05
4.51919e-05
4.82719e-05
4.86559e-05
4.47125e-05
4.47172e-05
4.51877e-05
4.51872e-05
4.47185e-05
4.51916e-05
4.51921e-05
4.82745e-05
4.86529e-05
4.47185e-05
4.51898e-05
4.51921e-05
4.86574e-05
4.87664e-05
4.91367e-05
4.5344e-05
4.5346e-05
4.58015e-05
4.57974e-05
4.87679e-05
4.91308e-05
4.53415e-05
4.53397e-05
4.58003e-05
4.57985e-05
4.53463e-05
4.57975e-05
4.58035e-05
4.87635e-05
4.91325e-05
4.53456e-05
4.57999e-05
4.58024e-05
4.91362e-05
4.92452e-05
4.9574e-05
4.59554e-05
4.5949e-05
4.63722e-05
4.63723e-05
4.92374e-05
4.9573e-05
4.59545e-05
4.59525e-05
4.63706e-05
4.63732e-05
4.59545e-05
4.63703e-05
4.63687e-05
4.92414e-05
4.95765e-05
4.59536e-05
4.63721e-05
4.63662e-05
4.95718e-05
4.9665e-05
4.99835e-05
4.6492e-05
4.64969e-05
4.68888e-05
4.68943e-05
4.96681e-05
4.99916e-05
4.64919e-05
4.64971e-05
4.68923e-05
4.69014e-05
4.64952e-05
4.68994e-05
4.6908e-05
4.96699e-05
4.99923e-05
4.64934e-05
4.69072e-05
4.69107e-05
4.99996e-05
5.00939e-05
5.04522e-05
4.70448e-05
4.70502e-05
4.74767e-05
4.74762e-05
5.01003e-05
5.04472e-05
4.70451e-05
4.70487e-05
4.74664e-05
4.74515e-05
4.7056e-05
4.74694e-05
4.74639e-05
5.00989e-05
5.04364e-05
4.70569e-05
4.74551e-05
4.74607e-05
5.04412e-05
5.05388e-05
5.07954e-05
4.75895e-05
4.75792e-05
4.79299e-05
4.79234e-05
5.05286e-05
5.07838e-05
4.75856e-05
4.75789e-05
4.79378e-05
4.79556e-05
4.75854e-05
4.79263e-05
4.79371e-05
5.05271e-05
5.08125e-05
4.75879e-05
4.79553e-05
4.7941e-05
5.08027e-05
5.08851e-05
5.11576e-05
4.80552e-05
4.80621e-05
4.83898e-05
4.8386e-05
5.08821e-05
5.11611e-05
4.80557e-05
4.80601e-05
4.83879e-05
4.83574e-05
4.80543e-05
4.83909e-05
4.83876e-05
5.08941e-05
5.11208e-05
4.80481e-05
4.83521e-05
4.83763e-05
5.11468e-05
5.12328e-05
5.14335e-05
4.84926e-05
4.84777e-05
4.87758e-05
4.88012e-05
5.12295e-05
5.14524e-05
4.84977e-05
4.84796e-05
4.8775e-05
4.88194e-05
4.84974e-05
4.88029e-05
4.87969e-05
5.12047e-05
5.14894e-05
4.84921e-05
4.88274e-05
4.8801e-05
5.14612e-05
5.14981e-05
5.18084e-05
4.88502e-05
4.88924e-05
4.91829e-05
4.91761e-05
5.15333e-05
5.18001e-05
4.88447e-05
4.8893e-05
4.91769e-05
4.91692e-05
4.88743e-05
4.91685e-05
4.91804e-05
5.15575e-05
5.17922e-05
4.88831e-05
4.91856e-05
4.91936e-05
5.18086e-05
5.19446e-05
5.23943e-05
4.9366e-05
4.93342e-05
4.98979e-05
4.98598e-05
5.19084e-05
5.23502e-05
4.93605e-05
4.9328e-05
4.9897e-05
4.98563e-05
4.93476e-05
4.98589e-05
4.98784e-05
5.19056e-05
5.23525e-05
4.93529e-05
4.98454e-05
4.98677e-05
5.23736e-05
5.24504e-05
5.2389e-05
4.9994e-05
4.99704e-05
5.00489e-05
5.00597e-05
5.24163e-05
5.24211e-05
4.99974e-05
4.99778e-05
5.00579e-05
5.00792e-05
4.9988e-05
5.00668e-05
5.00626e-05
5.24241e-05
5.24242e-05
4.99795e-05
5.00759e-05
5.00595e-05
5.23957e-05
5.23964e-05
5.24163e-05
5.00368e-05
5.00594e-05
5.00554e-05
5.01979e-05
5.24329e-05
5.25654e-05
5.00454e-05
5.00727e-05
5.00397e-05
5.00421e-05
5.00517e-05
5.01764e-05
5.004e-05
5.24298e-05
5.23602e-05
5.00491e-05
5.00413e-05
5.0029e-05
5.23733e-05
5.25098e-05
5.30756e-05
5.01553e-05
5.02794e-05
5.06577e-05
5.04462e-05
5.26399e-05
5.28078e-05
5.00955e-05
5.00679e-05
5.06802e-05
5.07415e-05
5.01039e-05
5.04856e-05
5.08308e-05
5.24357e-05
5.31958e-05
5.00825e-05
5.07937e-05
5.08748e-05
5.32893e-05
5.32519e-05
5.39013e-05
5.0898e-05
5.06307e-05
5.15762e-05
5.15085e-05
5.29276e-05
5.37971e-05
5.09493e-05
5.10409e-05
5.16072e-05
5.16315e-05
5.10705e-05
5.15126e-05
5.15139e-05
5.33937e-05
5.3935e-05
5.11282e-05
5.16104e-05
5.15274e-05
5.3813e-05
5.39815e-05
5.33502e-05
5.16698e-05
5.16961e-05
5.15895e-05
5.17861e-05
5.39541e-05
5.40566e-05
5.16842e-05
5.16797e-05
5.15542e-05
5.14166e-05
5.15446e-05
5.17548e-05
5.13266e-05
5.39906e-05
5.29573e-05
5.15448e-05
5.13214e-05
5.11985e-05
5.28546e-05
5.29905e-05
5.06393e-05
5.11993e-05
5.16265e-05
4.91104e-05
4.92826e-05
5.38504e-05
5.07766e-05
5.1064e-05
5.07507e-05
4.91043e-05
4.91165e-05
5.07976e-05
4.93069e-05
4.93485e-05
5.25835e-05
5.07186e-05
5.05937e-05
4.91716e-05
4.93616e-05
5.10619e-05
5.05429e-05
5.2772e-05
4.88648e-05
4.88372e-05
4.9308e-05
4.88326e-05
5.0544e-05
5.12196e-05
4.89003e-05
4.89897e-05
4.94826e-05
4.99601e-05
4.92145e-05
4.88985e-05
4.98527e-05
5.06853e-05
5.37207e-05
4.92712e-05
5.01399e-05
5.01716e-05
5.35466e-05
5.4122e-05
6.02611e-05
5.09707e-05
4.97913e-05
5.72925e-05
5.70807e-05
5.25214e-05
6.0201e-05
5.13322e-05
5.20933e-05
5.72243e-05
5.70692e-05
5.1606e-05
5.69954e-05
5.676e-05
5.49756e-05
5.98956e-05
5.21021e-05
5.69686e-05
5.67057e-05
5.95031e-05
6.06916e-05
5.90483e-05
5.81609e-05
5.82955e-05
5.82699e-05
5.88625e-05
6.08663e-05
6.05554e-05
5.80065e-05
5.76531e-05
5.80269e-05
5.73524e-05
5.74202e-05
5.87217e-05
5.73207e-05
6.01792e-05
5.76014e-05
5.72632e-05
5.71558e-05
5.70234e-05
5.76804e-05
5.76729e-05
4.86312e-05
5.70879e-05
5.80434e-05
4.84393e-05
4.90362e-05
5.92309e-05
4.9125e-05
5.67623e-05
5.56942e-05
4.84041e-05
4.85878e-05
5.60272e-05
4.91266e-05
4.89778e-05
5.62484e-05
4.91826e-05
5.55421e-05
4.86728e-05
4.89e-05
4.95717e-05
4.79982e-05
4.81634e-05
4.68894e-05
4.71844e-05
4.59358e-05
4.58585e-05
4.8307e-05
4.77647e-05
4.69589e-05
4.7549e-05
4.61072e-05
4.71232e-05
4.78612e-05
4.60589e-05
4.72682e-05
4.88524e-05
5.00216e-05
4.79112e-05
4.73488e-05
4.74537e-05
5.00367e-05
4.92543e-05
5.52583e-05
4.64226e-05
4.62024e-05
5.23106e-05
5.17797e-05
4.87522e-05
5.46499e-05
4.66037e-05
4.7706e-05
5.22236e-05
5.16516e-05
4.76587e-05
5.15719e-05
5.13627e-05
5.08589e-05
5.41259e-05
4.78932e-05
5.14938e-05
5.13544e-05
5.38987e-05
5.57893e-05
5.62839e-05
5.34254e-05
5.29018e-05
5.42763e-05
5.37465e-05
5.51685e-05
5.55359e-05
5.33168e-05
5.23628e-05
5.42562e-05
5.30965e-05
5.20872e-05
5.35629e-05
5.28867e-05
5.43891e-05
5.46633e-05
5.19993e-05
5.28181e-05
5.28723e-05
5.46761e-05
5.61655e-05
5.56533e-05
5.42196e-05
5.37031e-05
5.38524e-05
5.35214e-05
5.54405e-05
5.51449e-05
5.42348e-05
5.32249e-05
5.39948e-05
5.46017e-05
5.31021e-05
5.3525e-05
5.41901e-05
5.47241e-05
5.69055e-05
5.32013e-05
5.47129e-05
5.43956e-05
5.64016e-05
5.56899e-05
5.58738e-05
5.38682e-05
5.35974e-05
5.40562e-05
5.43775e-05
5.53004e-05
5.63027e-05
5.40059e-05
5.50462e-05
5.40882e-05
5.54351e-05
5.44834e-05
5.43667e-05
5.46858e-05
5.72764e-05
5.78464e-05
5.46487e-05
5.54918e-05
5.47664e-05
5.65612e-05
5.58496e-05
5.41088e-05
5.40388e-05
5.44229e-05
5.2947e-05
5.38683e-05
5.63451e-05
5.53879e-05
5.40401e-05
5.5293e-05
5.25442e-05
5.17374e-05
5.45438e-05
5.38533e-05
5.28357e-05
5.7553e-05
5.25509e-05
5.45258e-05
5.17354e-05
5.24301e-05
5.38775e-05
5.39832e-05
5.44894e-05
5.26264e-05
5.3487e-05
5.25935e-05
5.32966e-05
5.52646e-05
5.53156e-05
5.21858e-05
5.08042e-05
5.21205e-05
5.01216e-05
5.26127e-05
5.33911e-05
5.28686e-05
5.20645e-05
5.1278e-05
5.21721e-05
5.0236e-05
5.23918e-05
5.51679e-05
5.50634e-05
5.74897e-05
5.30282e-05
5.34796e-05
5.50726e-05
5.45852e-05
5.56065e-05
5.66854e-05
5.25479e-05
5.03436e-05
5.51465e-05
5.48094e-05
5.36263e-05
5.45474e-05
5.50811e-05
5.17827e-05
5.73283e-05
5.32077e-05
5.47894e-05
5.51781e-05
5.75005e-05
5.76046e-05
5.54441e-05
5.52443e-05
5.46472e-05
5.45699e-05
5.36723e-05
5.67188e-05
5.41643e-05
5.54378e-05
5.58816e-05
5.5114e-05
5.67855e-05
5.51339e-05
5.35087e-05
5.36863e-05
5.79589e-05
5.91028e-05
5.53021e-05
5.66837e-05
5.4451e-05
5.44001e-05
5.45883e-05
5.03443e-05
5.30246e-05
5.21885e-05
4.92176e-05
4.92442e-05
5.34296e-05
5.03954e-05
5.3944e-05
5.66588e-05
4.96797e-05
5.22938e-05
5.21107e-05
4.92754e-05
4.92389e-05
5.89444e-05
5.33805e-05
5.29587e-05
5.23118e-05
4.96723e-05
5.04588e-05
5.01559e-05
5.11144e-05
4.87555e-05
4.89653e-05
4.87812e-05
4.93638e-05
5.03226e-05
5.23102e-05
4.90588e-05
5.07907e-05
4.88126e-05
4.88512e-05
4.89984e-05
4.94983e-05
4.95285e-05
5.26393e-05
5.03369e-05
4.9302e-05
4.89497e-05
4.94484e-05
5.23431e-05
5.19186e-05
5.66642e-05
4.96181e-05
5.06818e-05
5.43051e-05
5.48049e-05
5.32574e-05
5.73664e-05
4.92657e-05
4.87998e-05
5.37498e-05
5.07432e-05
5.09237e-05
5.48179e-05
5.45983e-05
5.03339e-05
5.31787e-05
5.03601e-05
5.08179e-05
5.40843e-05
5.68904e-05
5.72093e-05
5.82564e-05
5.52767e-05
5.55105e-05
5.62811e-05
5.60094e-05
5.77247e-05
5.78031e-05
5.48178e-05
5.223e-05
5.6057e-05
5.47416e-05
5.51976e-05
5.59007e-05
5.55865e-05
5.39576e-05
5.66156e-05
5.47545e-05
5.45881e-05
5.52829e-05
5.71595e-05
5.82187e-05
5.52181e-05
5.62635e-05
5.58694e-05
5.40211e-05
5.28214e-05
5.74378e-05
5.36967e-05
5.60687e-05
5.50197e-05
5.4397e-05
5.49743e-05
5.5443e-05
5.26677e-05
5.29131e-05
5.68048e-05
5.64265e-05
5.52171e-05
5.47973e-05
5.32193e-05
5.41707e-05
5.46777e-05
5.20279e-05
5.28532e-05
5.18365e-05
5.04255e-05
5.02797e-05
5.32529e-05
5.18359e-05
5.32439e-05
5.44486e-05
5.07305e-05
5.19847e-05
5.21058e-05
5.03296e-05
5.06765e-05
5.60892e-05
5.36452e-05
5.24437e-05
5.20016e-05
5.09447e-05
5.24335e-05
5.18952e-05
5.18842e-05
5.0101e-05
5.01878e-05
4.99455e-05
5.06125e-05
5.18434e-05
5.31339e-05
5.036e-05
5.15469e-05
5.0099e-05
5.10749e-05
5.05548e-05
5.07938e-05
5.06959e-05
5.34796e-05
5.30052e-05
5.07882e-05
5.11925e-05
5.08003e-05
5.29086e-05
5.21521e-05
5.40846e-05
5.01534e-05
5.13146e-05
5.20913e-05
5.2914e-05
5.35574e-05
5.50534e-05
5.02024e-05
5.10864e-05
5.18717e-05
5.1806e-05
5.11751e-05
5.30013e-05
5.26859e-05
5.30487e-05
5.39213e-05
5.10844e-05
5.19743e-05
5.2525e-05
5.46452e-05
5.42346e-05
5.1621e-05
5.22445e-05
5.50454e-05
5.14464e-05
5.12357e-05
4.23069e-05
4.09951e-05
4.18924e-05
5.19916e-05
5.39401e-05
5.18554e-05
3.73773e-05
3.73765e-05
3.7377e-05
3.7377e-05
3.73701e-05
3.73777e-05
3.73043e-05
3.73768e-05
3.73702e-05
3.73777e-05
3.73768e-05
3.73043e-05
3.73741e-05
3.72959e-05
3.72959e-05
3.58798e-05
4.0872e-05
3.66033e-05
4.51467e-05
5.51147e-05
6.48951e-05
3.58803e-05
4.08712e-05
3.66034e-05
4.51465e-05
3.58932e-05
3.58933e-05
3.58932e-05
3.44005e-05
3.44005e-05
3.44005e-05
3.44005e-05
3.52758e-05
3.56384e-05
3.58929e-05
3.53771e-05
3.60475e-05
3.42365e-05
3.53822e-05
5.51168e-05
6.48994e-05
3.52758e-05
3.58929e-05
3.5638e-05
3.53771e-05
3.60475e-05
3.53822e-05
3.42375e-05
3.65971e-05
3.65977e-05
3.5279e-05
3.40642e-05
3.40633e-05
3.39657e-05
5.13534e-05
3.46793e-05
5.46249e-05
7.65447e-05
8.08614e-05
3.39682e-05
5.13544e-05
3.46789e-05
5.46254e-05
3.39296e-05
3.39297e-05
3.39297e-05