/*--------------------------------*- C++ -*----------------------------------*\
| =========                 |                                                 |
| \\      /  F ield         | OpenFOAM: The Open Source CFD Toolbox           |
|  \\    /   O peration     | Version:  v2012                                 |
|   \\  /    A nd           | Website:  www.openfoam.com                      |
|    \\/     M anipulation  |                                                 |
\*---------------------------------------------------------------------------*/
FoamFile
{
    version     2.0;
    format      ascii;
    class       volScalarField;
    location    "750";
    object      nut;
}
// * * * * * * * * * * * * * * * * * * * * * * * * * * * * * * * * * * * * * //

dimensions      [0 2 -1 0 0 0 0];


internalField   nonuniform List<scalar> 
171728
(
0.000233973
0.000233116
0.000233116
0.000233423
0.000232532
0.000227802
0.000227801
0.000223866
0.000230516
0.00022032
0.000220318
0.000209109
0.000227799
0.000211665
0.000211661
0.000193785
0.000224433
0.00020265
0.000202644
0.000179709
0.000220552
0.000193772
0.000193765
0.000167339
0.000216304
0.000185275
0.000185267
0.000156587
0.00021182
0.000177234
0.000177226
0.000147206
0.000207207
0.000169688
0.00016968
0.00013895
0.000202545
0.000162611
0.000162603
0.000131614
0.000197889
0.000155949
0.000155941
0.000124953
0.000193275
0.000149647
0.000149638
0.000118816
0.000188683
0.000143665
0.000143657
0.000113168
0.000184151
0.000137952
0.000137943
0.000107932
0.000179706
0.000132462
0.000132454
0.000103056
0.000175338
0.00012719
0.000127181
9.84357e-05
0.000171035
0.000122151
0.000122141
9.42518e-05
0.000166785
0.000117371
0.00011736
9.06595e-05
0.000162587
0.000112887
0.000112876
8.77313e-05
0.000158414
0.000108755
0.000108745
8.53836e-05
0.000154263
0.000105025
0.000105015
8.36674e-05
0.000150142
0.000101711
0.000101702
8.25786e-05
0.000146063
9.88949e-05
9.88871e-05
8.20984e-05
0.000142046
9.65845e-05
9.65777e-05
8.21489e-05
0.000138117
9.47924e-05
9.4787e-05
8.26868e-05
0.000134294
9.352e-05
9.35145e-05
8.36654e-05
0.000130631
9.27503e-05
9.27465e-05
8.50195e-05
0.000127155
9.24666e-05
9.24628e-05
8.66953e-05
0.000123901
9.26394e-05
9.26365e-05
8.86376e-05
0.000120901
9.32365e-05
9.32344e-05
9.07914e-05
0.000118186
9.42272e-05
9.42261e-05
9.31114e-05
0.00011579
9.5569e-05
9.55676e-05
9.55601e-05
0.000113733
9.72332e-05
9.72317e-05
9.81049e-05
0.000112018
9.91702e-05
9.91706e-05
0.000100715
0.000110682
0.000101366
0.000101366
0.000103387
0.000109693
0.000103758
0.000103759
0.000106075
0.00010909
0.000106351
0.000106352
0.000108801
0.000108848
0.000109092
0.000109092
0.00011153
0.000108961
0.000111951
0.000111952
0.000114251
0.000109419
0.000114916
0.000114917
0.000116968
0.000110219
0.000117962
0.000117966
0.000119666
0.000111334
0.000121071
0.000121074
0.000122341
0.000112755
0.00012423
0.000124234
0.000124995
0.000114462
0.000127413
0.000127417
0.000127613
0.000116431
0.000130611
0.00013061
0.000130209
0.000118671
0.000133816
0.000133818
0.000132769
0.000121096
0.000136985
0.000136985
0.000135268
0.000123731
0.000140136
0.000140136
0.000137737
0.000126565
0.000143277
0.000143275
0.000140165
0.00012953
0.000146352
0.000146353
0.000142532
0.000132669
0.000149409
0.000149415
0.000144863
0.000135857
0.000152383
0.000152385
0.000147115
0.000139251
0.000155367
0.000155364
0.000149362
0.000142629
0.000158204
0.000158198
0.000151486
0.000146012
0.000161
0.000161024
0.000153582
0.00014962
0.000163834
0.000163807
0.000155674
0.000153143
0.000166478
0.000166479
0.000157622
0.000156614
0.000169066
0.000169088
0.000159541
0.000160185
0.000171663
0.00017163
0.000161422
0.000163748
0.000174173
0.000174186
0.000163281
0.000167367
0.000176506
0.000176492
0.000164925
0.000170425
0.000178831
0.000178854
0.000166645
0.000174361
0.000181247
0.000181223
0.000168409
0.00017761
0.000183389
0.000183428
0.00016987
0.000180785
0.00018533
0.000185187
0.000171295
0.00018373
0.00018723
0.000187322
0.000172495
0.000186072
0.000188901
0.000188971
0.000173966
0.000192165
0.000192703
0.00019263
0.000176571
0.0001945
0.00019325
0.00019343
0.000176695
0.000194053
0.00019395
0.000192264
0.000175975
0.000197518
0.000195192
0.0001975
0.000180574
0.000206424
0.000201218
0.000201788
0.000183507
0.000210248
0.000205496
0.000199477
0.000180009
0.000194874
0.00018846
0.000187642
0.000170061
0.00018171
0.000180282
0.000195672
0.00017893
0.000242297
0.000233782
0.000231892
0.000207932
0.000277212
0.000256614
0.000238062
0.000206112
0.000209198
0.000185624
0.000185109
0.000166357
0.000168952
0.000167818
0.000178247
0.000167024
0.000201839
0.000206857
0.000204892
0.000185141
0.000235829
0.00021494
0.000209046
0.000186855
0.000236595
0.00021221
0.000221154
0.000195114
0.000237621
0.000218281
0.000229204
0.000197327
0.000230517
0.000214707
0.000201714
0.000183684
0.000221319
0.000211981
0.000191425
0.000189211
0.000238826
0.000220625
0.000224821
0.000203064
0.000252091
0.000214254
0.000240594
0.00019076
0.000213326
0.000193115
0.000206809
0.000171203
0.000196041
0.000195991
0.000189759
0.000177995
0.00023211
0.000226162
0.000205307
0.000199547
0.00026118
0.00023434
0.000224965
0.000202821
0.000257703
0.00021131
0.00022715
0.000189117
0.000222572
0.000200552
0.000208544
0.000180931
0.000211659
0.000204911
0.000203995
0.000182497
0.000228634
0.000218877
0.00021273
0.000194831
0.000234266
0.000234448
0.000234449
0.000234267
0.000234448
0.000234449
0.000234274
0.000234274
0.000234274
0.000234274
0.000234448
0.000234448
0.000234266
0.000234448
0.000234448
0.000234266
0.000233423
0.000226204
0.000233116
0.000233114
0.000229361
0.000229357
0.000233423
0.000226205
0.000233114
0.000233114
0.000229359
0.000229356
0.000233116
0.000229364
0.000229361
0.000233423
0.000226202
0.000233114
0.000229363
0.000229359
0.000226202
0.000223867
0.00021223
0.000227799
0.000227794
0.000222332
0.000222326
0.000223868
0.000212234
0.000227797
0.000227792
0.000222332
0.000222323
0.000227798
0.000222339
0.000222331
0.000223866
0.000212227
0.000227797
0.000222336
0.000222331
0.000212228
0.000209111
0.000197061
0.000220313
0.000220307
0.000213879
0.000213874
0.000209112
0.000197066
0.000220314
0.000220304
0.000213883
0.000213869
0.000220311
0.00021389
0.000213877
0.000209107
0.000197057
0.000220313
0.000213886
0.000213882
0.000197058
0.000193788
0.000182876
0.000211654
0.000211648
0.00020489
0.000204884
0.000193792
0.000182882
0.000211658
0.000211643
0.000204897
0.000204879
0.000211651
0.000204905
0.000204887
0.000193784
0.000182872
0.000211657
0.000204899
0.000204896
0.000182873
0.000179713
0.000170268
0.000202634
0.000202628
0.000195943
0.000195937
0.000179717
0.000170274
0.000202643
0.000202622
0.000195954
0.000195931
0.000202631
0.000195962
0.00019594
0.000179708
0.000170263
0.000202641
0.000195955
0.000195953
0.000170264
0.000167344
0.000159242
0.000193753
0.000193747
0.000187336
0.000187331
0.000167349
0.000159249
0.000193765
0.00019374
0.000187351
0.000187324
0.00019375
0.000187359
0.000187333
0.000167339
0.000159238
0.000193764
0.000187351
0.00018735
0.000159238
0.000156591
0.000149613
0.000185253
0.000185247
0.000179173
0.000179168
0.000156597
0.00014962
0.000185268
0.00018524
0.000179191
0.00017916
0.000185249
0.000179198
0.00017917
0.000156587
0.000149608
0.000185267
0.000179189
0.00017919
0.000149608
0.000147211
0.000141107
0.000177208
0.000177203
0.000171501
0.000171496
0.000147217
0.000141114
0.000177227
0.000177195
0.000171521
0.000171488
0.000177205
0.000171529
0.000171498
0.000147206
0.000141101
0.000177225
0.00017152
0.000171521
0.000141101
0.000138956
0.000133547
0.00016966
0.000169655
0.000164309
0.000164304
0.000138961
0.000133554
0.000169682
0.000169647
0.000164332
0.000164296
0.000169658
0.000164339
0.000164307
0.00013895
0.000133541
0.00016968
0.000164331
0.000164332
0.000133541
0.000131621
0.000126686
0.000162581
0.000162576
0.000157546
0.000157541
0.000131627
0.000126693
0.000162605
0.000162567
0.000157572
0.000157533
0.000162578
0.000157579
0.000157545
0.000131615
0.00012668
0.000162604
0.00015757
0.000157571
0.000126679
0.00012496
0.000120362
0.000155916
0.000155912
0.000151157
0.000151152
0.000124966
0.000120369
0.000155942
0.000155903
0.000151184
0.000151144
0.000155915
0.000151192
0.000151156
0.000124954
0.000120355
0.000155942
0.000151183
0.000151184
0.000120355
0.000118823
0.000114426
0.000149612
0.000149607
0.000145096
0.000145091
0.000118827
0.000114433
0.000149639
0.000149599
0.000145124
0.000145083
0.000149611
0.000145132
0.000145095
0.000118816
0.00011442
0.000149639
0.000145123
0.000145124
0.000114418
0.000113175
0.000108835
0.00014363
0.000143624
0.000139318
0.000139313
0.00011318
0.000108843
0.000143658
0.000143616
0.000139347
0.000139305
0.000143629
0.000139356
0.000139319
0.000113168
0.000108829
0.000143658
0.000139347
0.000139348
0.000108828
0.000107939
0.000103702
0.000137916
0.000137909
0.000133776
0.00013377
0.000107945
0.000103708
0.000137944
0.000137901
0.000133805
0.000133762
0.000137915
0.000133814
0.000133776
0.000107933
0.000103696
0.000137944
0.000133805
0.000133806
0.000103695
0.000103063
9.91274e-05
0.000132425
0.000132418
0.000128446
0.000128438
0.000103069
9.91331e-05
0.000132454
0.000132411
0.000128473
0.000128431
0.000132425
0.000128485
0.000128447
0.000103057
9.91212e-05
0.000132454
0.000128475
0.000128476
9.91202e-05
9.84422e-05
9.49891e-05
0.000127151
0.000127144
0.000123345
0.000123337
9.84476e-05
9.49944e-05
0.000127179
0.000127136
0.000123371
0.000123329
0.000127152
0.000123385
0.000123347
9.84366e-05
9.4983e-05
0.000127181
0.000123374
0.000123375
9.4983e-05
9.42573e-05
9.14348e-05
0.000122111
0.000122104
0.000118477
0.00011847
9.42626e-05
9.14405e-05
0.000122137
0.000122096
0.000118502
0.000118461
0.000122113
0.000118517
0.00011848
9.42521e-05
9.14295e-05
0.000122141
0.000118506
0.000118507
9.14291e-05
9.06644e-05
8.83766e-05
0.000117331
0.000117324
0.000113921
0.000113916
9.067e-05
8.83824e-05
0.000117356
0.000117314
0.000113945
0.000113905
0.000117334
0.000113962
0.000113926
9.06601e-05
8.83723e-05
0.000117361
0.000113951
0.000113951
8.83721e-05
8.77351e-05
8.59082e-05
0.000112847
0.000112841
0.00010969
0.000109685
8.77415e-05
8.59129e-05
0.00011287
0.00011283
0.000109713
0.000109675
0.000112851
0.000109731
0.000109696
8.7732e-05
8.59037e-05
0.000112877
0.00010972
0.00010972
8.59036e-05
8.53879e-05
8.40678e-05
0.000108716
0.000108709
0.000105848
0.00010584
8.53928e-05
8.40729e-05
0.000108737
0.000108699
0.000105869
0.000105831
0.000108721
0.000105886
0.000105852
8.53842e-05
8.40647e-05
0.000108745
0.000105876
0.000105875
8.40653e-05
8.36701e-05
8.28574e-05
0.000104988
0.000104979
0.000102454
0.000102444
8.36754e-05
8.28621e-05
0.000105008
0.00010497
0.000102472
0.000102436
0.000104992
0.00010249
0.000102458
8.3668e-05
8.28541e-05
0.000105015
0.00010248
0.000102479
8.28544e-05
8.25809e-05
8.22609e-05
0.000101676
0.000101665
9.95181e-05
9.95059e-05
8.25855e-05
8.2264e-05
0.000101695
0.000101658
9.95348e-05
9.94994e-05
0.00010168
9.95507e-05
9.9521e-05
8.25786e-05
8.22571e-05
0.000101701
9.95424e-05
9.95418e-05
8.22584e-05
8.21005e-05
8.22051e-05
9.88623e-05
9.88506e-05
9.70824e-05
9.70685e-05
8.2104e-05
8.22079e-05
9.88792e-05
9.88439e-05
9.70976e-05
9.7063e-05
9.8865e-05
9.71119e-05
9.70846e-05
8.20981e-05
8.22021e-05
9.88859e-05
9.71045e-05
9.71045e-05
8.22026e-05
8.21511e-05
8.26451e-05
9.65553e-05
9.65418e-05
9.51624e-05
9.51497e-05
8.21528e-05
8.26493e-05
9.65709e-05
9.65362e-05
9.51761e-05
9.51445e-05
9.65577e-05
9.51911e-05
9.5165e-05
8.21479e-05
8.26446e-05
9.65769e-05
9.5184e-05
9.51825e-05
8.26444e-05
8.26875e-05
8.35359e-05
9.47649e-05
9.47517e-05
9.3765e-05
9.37508e-05
8.26917e-05
8.35367e-05
9.47792e-05
9.47473e-05
9.37777e-05
9.37473e-05
9.47673e-05
9.37902e-05
9.37669e-05
8.26875e-05
8.3534e-05
9.47847e-05
9.37847e-05
9.37827e-05
8.35342e-05
8.36669e-05
8.48133e-05
9.34953e-05
9.34816e-05
9.2873e-05
9.28591e-05
8.36678e-05
8.48147e-05
9.35079e-05
9.34771e-05
9.2884e-05
9.28558e-05
9.34972e-05
9.28962e-05
9.28758e-05
8.36651e-05
8.48122e-05
9.35124e-05
9.28911e-05
9.28898e-05
8.48135e-05
8.50192e-05
8.64241e-05
9.27271e-05
9.27141e-05
9.24718e-05
9.24589e-05
8.50208e-05
8.64257e-05
9.27388e-05
9.27114e-05
9.24818e-05
9.24563e-05
9.27304e-05
9.24938e-05
9.24739e-05
8.50188e-05
8.64244e-05
9.27441e-05
9.24893e-05
9.24862e-05
8.64245e-05
8.66957e-05
8.83111e-05
9.24461e-05
9.24328e-05
9.25347e-05
9.25209e-05
8.66969e-05
8.83109e-05
9.24561e-05
9.24299e-05
9.25432e-05
9.25195e-05
9.24479e-05
9.25537e-05
9.25381e-05
8.66955e-05
8.83105e-05
9.246e-05
9.25505e-05
9.25491e-05
8.8313e-05
8.86355e-05
9.04222e-05
9.26202e-05
9.26077e-05
9.30331e-05
9.30195e-05
8.86355e-05
9.04233e-05
9.26292e-05
9.26057e-05
9.30405e-05
9.30187e-05
9.26233e-05
9.30503e-05
9.30362e-05
8.86355e-05
9.0423e-05
9.26338e-05
9.30474e-05
9.30454e-05
9.04234e-05
9.07899e-05
9.27065e-05
9.32199e-05
9.3207e-05
9.39284e-05
9.39161e-05
9.07903e-05
9.2707e-05
9.32274e-05
9.32056e-05
9.39344e-05
9.3915e-05
9.32234e-05
9.39448e-05
9.39318e-05
9.07905e-05
9.27066e-05
9.32325e-05
9.39421e-05
9.39398e-05
9.27085e-05
9.31094e-05
9.51293e-05
9.42117e-05
9.41994e-05
9.51884e-05
9.5175e-05
9.31106e-05
9.51285e-05
9.42184e-05
9.41992e-05
9.51937e-05
9.51767e-05
9.42149e-05
9.5202e-05
9.51926e-05
9.31105e-05
9.51296e-05
9.42229e-05
9.52019e-05
9.51997e-05
9.51314e-05
9.55579e-05
9.76537e-05
9.55551e-05
9.55426e-05
9.67778e-05
9.67649e-05
9.55572e-05
9.76533e-05
9.55601e-05
9.55425e-05
9.67814e-05
9.67639e-05
9.55591e-05
9.67902e-05
9.67813e-05
9.55582e-05
9.76531e-05
9.55654e-05
9.67875e-05
9.67867e-05
9.76558e-05
9.81031e-05
0.00010025
9.72205e-05
9.72078e-05
9.86477e-05
9.8635e-05
9.81026e-05
0.000100251
9.72246e-05
9.72079e-05
9.86505e-05
9.86375e-05
9.72261e-05
9.86597e-05
9.8653e-05
9.81024e-05
0.000100253
9.72313e-05
9.866e-05
9.86575e-05
0.000100254
0.000100712
0.000102911
9.91579e-05
9.91458e-05
0.000100788
0.000100775
0.000100712
0.000102911
9.91613e-05
9.91482e-05
0.00010079
0.000100776
9.91622e-05
0.000100799
0.000100793
0.000100714
0.00010291
9.91667e-05
0.000100798
0.000100796
0.000102914
0.000103384
0.000105593
0.000101357
0.000101343
0.00010313
0.000103117
0.000103383
0.000105592
0.00010136
0.000101345
0.000103132
0.00010312
0.000101362
0.00010314
0.000103137
0.000103383
0.000105593
0.000101366
0.000103141
0.00010314
0.000105597
0.000106072
0.000108311
0.000103747
0.000103735
0.000105678
0.000105665
0.000106072
0.000108311
0.000103749
0.000103738
0.000105679
0.000105668
0.000103754
0.000105687
0.000105683
0.000106072
0.000108312
0.000103756
0.000105688
0.000105685
0.000108313
0.0001088
0.000111038
0.000106343
0.000106329
0.000108385
0.000108373
0.0001088
0.000111039
0.000106344
0.000106332
0.000108386
0.000108375
0.000106349
0.000108395
0.000108393
0.000108799
0.000111038
0.000106351
0.000108395
0.000108395
0.000111043
0.000111526
0.000113761
0.000109081
0.00010907
0.000111217
0.000111203
0.000111527
0.000113758
0.000109083
0.000109073
0.000111218
0.000111208
0.000109089
0.000111225
0.000111223
0.000111526
0.00011376
0.00010909
0.000111227
0.000111225
0.000113762
0.000114249
0.000116477
0.000111943
0.000111929
0.000114154
0.000114144
0.000114246
0.000116478
0.000111944
0.000111933
0.000114156
0.000114146
0.00011195
0.000114165
0.000114166
0.000114247
0.000116477
0.000111951
0.000114165
0.000114167
0.000116483
0.000116963
0.000119183
0.000114905
0.000114895
0.000117185
0.000117176
0.000116964
0.000119184
0.000114907
0.000114897
0.000117187
0.000117179
0.000114916
0.000117197
0.000117194
0.000116963
0.000119184
0.000114918
0.000117198
0.000117196
0.000119186
0.000119664
0.000121863
0.000117953
0.000117942
0.000120278
0.000120267
0.000119665
0.000121861
0.000117955
0.000117947
0.000120281
0.00012027
0.000117961
0.000120288
0.000120289
0.000119664
0.00012186
0.000117963
0.00012029
0.000120291
0.000121867
0.000122337
0.000124523
0.000121062
0.000121051
0.000123427
0.000123418
0.000122336
0.000124523
0.000121066
0.000121055
0.000123429
0.000123421
0.000121072
0.000123438
0.00012344
0.000122335
0.000124523
0.000121074
0.000123441
0.000123441
0.000124528
0.000124991
0.000127152
0.000124221
0.00012421
0.000126605
0.000126597
0.000124991
0.000127152
0.000124224
0.000124215
0.000126608
0.000126599
0.000124232
0.000126617
0.000126615
0.00012499
0.000127151
0.000124234
0.000126619
0.000126618
0.000127156
0.00012761
0.000129753
0.000127402
0.000127395
0.000129796
0.00012979
0.000127611
0.000129753
0.000127406
0.000127397
0.000129798
0.000129787
0.000127411
0.000129809
0.000129808
0.00012761
0.000129749
0.000127414
0.000129808
0.00012981
0.000129757
0.000130204
0.000132327
0.000130602
0.000130593
0.000133008
0.000132999
0.000130204
0.000132325
0.000130604
0.00013059
0.000133012
0.000133001
0.000130612
0.000133018
0.000133019
0.0001302
0.000132325
0.000130614
0.00013302
0.000133021
0.000132331
0.000132765
0.000134836
0.000133805
0.000133798
0.000136177
0.000136174
0.000132765
0.000134839
0.000133808
0.000133798
0.000136182
0.000136176
0.000133815
0.000136193
0.000136189
0.000132764
0.000134838
0.000133817
0.000136197
0.000136194
0.000134841
0.000135262
0.000137317
0.00013697
0.000136967
0.000139339
0.00013933
0.000135266
0.000137315
0.000136973
0.000136964
0.000139344
0.000139329
0.000136981
0.000139348
0.000139348
0.000135263
0.000137312
0.000136985
0.000139348
0.000139351
0.00013732
0.000137735
0.000139754
0.000140128
0.000140118
0.000142481
0.000142476
0.000137732
0.000139757
0.000140132
0.000140117
0.000142486
0.000142477
0.000140136
0.000142494
0.000142491
0.000137729
0.000139755
0.000140139
0.000142497
0.000142496
0.00013976
0.000140159
0.000142136
0.000143261
0.00014326
0.00014557
0.000145568
0.000140163
0.000142138
0.000143265
0.000143254
0.000145578
0.000145566
0.000143272
0.000145586
0.000145582
0.000140159
0.000142133
0.000143276
0.000145586
0.000145588
0.000142141
0.000142527
0.000144478
0.000146339
0.000146334
0.000148639
0.000148632
0.000142528
0.000144476
0.000146347
0.000146334
0.000148648
0.000148636
0.00014635
0.00014865
0.00014865
0.000142525
0.000144477
0.000146355
0.000148657
0.000148657
0.000144483
0.000144858
0.000146745
0.000149399
0.000149393
0.000151624
0.000151627
0.000144857
0.000146751
0.000149407
0.000149394
0.000151627
0.000151617
0.00014941
0.000151644
0.000151636
0.000144856
0.000146744
0.000149418
0.000151642
0.000151643
0.000146752
0.000147109
0.000149004
0.000152365
0.000152365
0.000154618
0.000154608
0.000147115
0.000149001
0.000152372
0.000152363
0.000154625
0.000154606
0.000152375
0.000154624
0.000154619
0.000147108
0.000148998
0.000152383
0.000154623
0.000154626
0.000149003
0.000149362
0.000151152
0.000155353
0.00015535
0.000157494
0.000157494
0.000149361
0.000151159
0.000155361
0.000155346
0.000157501
0.000157485
0.000155359
0.000157513
0.000157508
0.000149356
0.000151149
0.000155366
0.000157509
0.000157514
0.000151159
0.00015148
0.000153239
0.000158189
0.000158187
0.000160276
0.000160274
0.000151485
0.000153241
0.000158196
0.000158173
0.000160284
0.000160279
0.000158196
0.000160293
0.000160294
0.000151476
0.000153245
0.000158202
0.000160308
0.000160306
0.000153248
0.000153569
0.000155357
0.000160978
0.000160978
0.000163122
0.000163123
0.000153573
0.000155362
0.000160992
0.000160996
0.000163129
0.000163106
0.000161002
0.00016314
0.000163125
0.00015358
0.000155347
0.000161019
0.000163119
0.000163129
0.000155358
0.000155677
0.000157341
0.000163825
0.000163817
0.000165818
0.000165805
0.00015568
0.000157332
0.000163828
0.000163789
0.000165822
0.000165798
0.000163826
0.00016582
0.000165811
0.000155657
0.000157327
0.000163828
0.000165822
0.000165822
0.000157335
0.000157627
0.000159239
0.000166471
0.000166466
0.000168394
0.000168399
0.000157622
0.000159253
0.000166473
0.000166459
0.000168411
0.000168414
0.000166461
0.000168424
0.000168422
0.000157623
0.000159259
0.000166467
0.000168438
0.00016843
0.000159254
0.000159521
0.00016114
0.000169032
0.00016904
0.00017099
0.000171005
0.000159535
0.000161157
0.000169057
0.000169065
0.000170998
0.000170977
0.000169069
0.000171023
0.000171
0.000159541
0.000161134
0.000169083
0.000171006
0.000171017
0.000161152
0.000161415
0.000163016
0.000171627
0.000171642
0.000173528
0.000173507
0.000161434
0.000163
0.000171629
0.000171597
0.000173536
0.000173499
0.000171633
0.000173533
0.00017354
0.000161402
0.00016299
0.000171646
0.000173527
0.000173549
0.000163011
0.000163291
0.000164755
0.000174196
0.000174157
0.000176007
0.000175987
0.000163261
0.000164744
0.000174206
0.000174166
0.000176008
0.000175987
0.00017419
0.000175989
0.000175955
0.000163265
0.000164754
0.000174201
0.000175991
0.000175953
0.000164725
0.000164943
0.000166285
0.000176478
0.000176492
0.000178053
0.000178082
0.000164952
0.000166336
0.000176487
0.000176485
0.0001781
0.000178148
0.000176462
0.00017814
0.000178179
0.000164954
0.000166339
0.00017646
0.000178195
0.000178215
0.000166369
0.000166569
0.000168268
0.000178751
0.000178782
0.000180805
0.00018083
0.000166615
0.000168271
0.000178784
0.000178808
0.000180743
0.000180612
0.000178843
0.000180806
0.000180706
0.000166609
0.000168175
0.000178871
0.000180644
0.000180686
0.000168204
0.000168466
0.00016964
0.000181306
0.000181264
0.000182754
0.000182683
0.00016844
0.000169572
0.000181274
0.000181178
0.000182832
0.000182953
0.000181251
0.000182717
0.000182805
0.000168386
0.000169753
0.000181265
0.00018298
0.000182872
0.000169683
0.000169849
0.000171195
0.000183335
0.00018336
0.000184908
0.000184896
0.000169824
0.000171221
0.000183369
0.000183427
0.000184896
0.000184647
0.000183332
0.000184942
0.000184862
0.000169933
0.000170968
0.000183336
0.000184628
0.000184794
0.000171111
0.000171353
0.000172299
0.000185386
0.000185273
0.000186681
0.000186794
0.000171337
0.000172373
0.000185424
0.000185212
0.000186706
0.00018693
0.000185377
0.000186834
0.000186786
0.000171144
0.000172557
0.000185344
0.000186959
0.000186803
0.000172416
0.000172355
0.000173583
0.000186939
0.000187205
0.000188153
0.000188208
0.000172532
0.000173636
0.000186929
0.000187231
0.000188137
0.000188162
0.000187082
0.000188188
0.000188187
0.000172662
0.000173579
0.00018713
0.000188308
0.000188307
0.00017362
0.000173999
0.000176515
0.000189051
0.000188927
0.000192222
0.000191951
0.000173902
0.000176298
0.000189037
0.000188882
0.000192204
0.000191858
0.000188971
0.000191943
0.000192036
0.000173867
0.000176271
0.000189051
0.00019181
0.000191986
0.00017639
0.000176657
0.000176806
0.000192896
0.000192697
0.000193313
0.000193271
0.000176486
0.000176882
0.000192901
0.000192677
0.000193377
0.000193478
0.000192792
0.000193336
0.000193382
0.000176492
0.000177001
0.000192749
0.000193468
0.000193384
0.000176856
0.000176649
0.000176265
0.000193174
0.000193154
0.000192512
0.000193642
0.000176725
0.000177247
0.000193263
0.000193434
0.000192528
0.000192641
0.000193284
0.00019353
0.000192323
0.000176852
0.000175986
0.000193296
0.000192611
0.000192293
0.000175864
0.000176391
0.000178799
0.000192879
0.000194118
0.000195161
0.000194228
0.000177405
0.000177755
0.000192521
0.000192308
0.000195213
0.000195401
0.000192247
0.000194423
0.000196171
0.000175915
0.000179265
0.000192092
0.000195742
0.000196389
0.00017988
0.000179381
0.000183164
0.000196404
0.000194848
0.000200785
0.000199815
0.000177897
0.000182101
0.000196674
0.000197149
0.00020103
0.000201274
0.000197652
0.00019994
0.000200807
0.000180022
0.000183648
0.000198006
0.000201249
0.000200953
0.000183389
0.000183579
0.000184941
0.000201575
0.000201213
0.000204609
0.000204509
0.000182828
0.000187583
0.000201723
0.000201865
0.000204599
0.000204071
0.0002012
0.000204382
0.000202791
0.000183949
0.000182952
0.000201343
0.000203424
0.000202105
0.000181756
0.000182945
0.000170371
0.000203621
0.00020579
0.000189844
0.000191772
0.000186835
0.000172289
0.000202705
0.000200455
0.000189571
0.000189051
0.000200101
0.000191768
0.000190348
0.000180707
0.000169826
0.000198642
0.000189208
0.000190157
0.000171317
0.000168842
0.000169854
0.000187626
0.000188283
0.000179586
0.000178529
0.000170489
0.000163279
0.000187587
0.000187369
0.000180438
0.000182881
0.000188898
0.00017898
0.000183194
0.000168301
0.000174694
0.000188866
0.000184068
0.000184899
0.000174456
0.000174813
0.000207937
0.000186564
0.000179718
0.000227449
0.000224781
0.000167266
0.000206054
0.00018907
0.00019432
0.000227409
0.000227445
0.000191698
0.000224363
0.000225402
0.000179663
0.0002074
0.000195117
0.000227033
0.000225528
0.000205642
0.000210927
0.000220949
0.00023471
0.00023446
0.000252989
0.000255263
0.000210205
0.000228058
0.00023401
0.000232628
0.000251318
0.000246737
0.000231066
0.000254138
0.000245928
0.000209687
0.000212643
0.000230448
0.000245329
0.000244165
0.000212585
0.00021427
0.000167081
0.000251912
0.000257923
0.000194184
0.000198903
0.000222095
0.000170355
0.000249283
0.00024014
0.000193527
0.000192283
0.000242331
0.000199117
0.000194968
0.000205521
0.000167277
0.00023869
0.000192467
0.000194039
0.000169001
0.000162738
0.000154105
0.000182431
0.000184907
0.000167889
0.000168309
0.000164873
0.000152887
0.000182577
0.000184348
0.000169066
0.000175207
0.000186425
0.000169707
0.000176422
0.000164702
0.000164086
0.000186448
0.000176755
0.000177612
0.000164335
0.000157692
0.000188391
0.000166879
0.000166379
0.000202665
0.000199875
0.0001559
0.00018611
0.000168316
0.000176467
0.000202212
0.000200971
0.000176374
0.000198799
0.000198799
0.000167433
0.000185216
0.000178096
0.000200327
0.000198963
0.00018372
0.000191378
0.000196159
0.000211089
0.000208335
0.000219436
0.000216439
0.000189078
0.000193002
0.000210325
0.000206034
0.000218819
0.000210903
0.000203918
0.000214957
0.000209362
0.000186527
0.000186921
0.000203392
0.00020868
0.000208562
0.000186819
0.000195199
0.000191407
0.000219159
0.000216174
0.000214852
0.000212359
0.000192163
0.000188247
0.000218786
0.000210723
0.000215885
0.000217208
0.000210074
0.000212462
0.000215881
0.00018604
0.000194835
0.000210134
0.000218045
0.000217382
0.000194054
0.000191221
0.00019442
0.000214376
0.000211763
0.000216231
0.000217154
0.000188279
0.000194602
0.00021561
0.00022028
0.000217101
0.000226008
0.000217974
0.000217346
0.000221474
0.00019659
0.000206159
0.000219321
0.000226913
0.000223098
0.00019927
0.000194551
0.000186797
0.000217695
0.000218259
0.000212695
0.000217622
0.000194881
0.000191924
0.000218668
0.000228772
0.000210637
0.000208588
0.000222188
0.000217162
0.000210918
0.000205372
0.000183053
0.000223123
0.000208109
0.000208788
0.000184836
0.000185623
0.000183524
0.000210176
0.000214777
0.000205617
0.000210966
0.000190894
0.000188962
0.000207823
0.000201776
0.000202744
0.000192866
0.000209001
0.000211507
0.000206391
0.000179764
0.000169674
0.000206585
0.000193407
0.000203277
0.000186592
0.000185572
0.000200671
0.000206906
0.000211095
0.000221364
0.000219082
0.000189945
0.000197985
0.000203666
0.00019061
0.000221687
0.000216974
0.000210939
0.000219091
0.000222255
0.000170024
0.000196536
0.000207936
0.000217103
0.000222673
0.000202261
0.00020184
0.000201194
0.000223741
0.000220676
0.000230711
0.000224041
0.000198661
0.000193984
0.000224671
0.000225083
0.000233349
0.000237798
0.000224564
0.000222816
0.000224823
0.00019988
0.000213443
0.000224999
0.000236969
0.000229281
0.000195605
0.000196233
0.000173076
0.000222025
0.000215298
0.000195999
0.000195276
0.000189603
0.000172601
0.000227914
0.00024147
0.000198903
0.000217186
0.000215126
0.000195341
0.000195093
0.000213561
0.000189869
0.000220425
0.000217173
0.000197732
0.000172625
0.000171343
0.000169274
0.00019224
0.000192855
0.000185224
0.00018801
0.000171202
0.000174386
0.000193991
0.000206579
0.000186233
0.000191291
0.00019284
0.000188806
0.000188673
0.000185126
0.000170964
0.00019463
0.000191911
0.000188912
0.000174626
0.00017188
0.000195349
0.000187821
0.000194575
0.000216613
0.000220898
0.000178035
0.000199565
0.000186178
0.000189098
0.000213105
0.000195573
0.000196112
0.000221204
0.000219915
0.00016964
0.00017965
0.000192794
0.000196279
0.000216732
0.000197843
0.000198162
0.000207827
0.000223673
0.000226226
0.000233751
0.000233332
0.000201493
0.000207465
0.000220781
0.000205081
0.000232204
0.00022341
0.000224557
0.000232829
0.000231127
0.00018304
0.000198042
0.000221875
0.000222598
0.000229
0.000204063
0.000208063
0.000197437
0.000236255
0.000235093
0.000226991
0.000218473
0.000205645
0.000189667
0.000234617
0.000225939
0.000229393
0.000230656
0.000232384
0.000217361
0.000218836
0.000199072
0.000201213
0.000230525
0.000229429
0.000220725
0.000191327
0.000194113
0.000180469
0.000219575
0.000212037
0.000203041
0.000201071
0.000186782
0.000178604
0.000222022
0.00022823
0.000204769
0.000211562
0.000213667
0.000201337
0.000203711
0.000199192
0.000187091
0.00021575
0.000211615
0.000205222
0.0001815
0.000179403
0.000177176
0.000200493
0.000200152
0.000197209
0.000199871
0.000177943
0.000182172
0.00020188
0.000208233
0.000198289
0.000204059
0.00020263
0.00020095
0.000200822
0.000185855
0.000182736
0.000203889
0.000204708
0.000201562
0.000181402
0.000177767
0.000189102
0.000197112
0.000203778
0.000211965
0.00021793
0.000183846
0.000194156
0.00019762
0.000203416
0.000210574
0.000210791
0.000202991
0.00021847
0.000216294
0.000182465
0.000188999
0.000202346
0.000211895
0.000215253
0.000192151
0.000192358
0.000213904
0.000218554
0.000196885
0.000212799
0.000212091
0.000238185
0.000225821
0.000234249
0.000216739
0.000191672
0.000215883
0.00023473
0.000234746
0.000234729
0.000234729
0.000235117
0.000234798
0.000234701
0.000234727
0.000235118
0.000234798
0.000234727
0.000234701
0.000234867
0.000233566
0.000233566
0.000104651
3.87411e-05
0.000129118
3.98249e-05
2.16834e-05
2.28313e-05
0.000104643
3.87371e-05
0.000129114
3.98214e-05
0.000233973
0.000233973
0.000233973
0.000232935
0.000232935
0.000232935
0.000232935
0.000206196
9.36752e-05
0.000233969
0.000231994
0.000222614
8.72226e-05
0.000233611
2.16823e-05
2.28307e-05
0.00020619
0.000233969
9.36747e-05
0.000231994
0.000222622
0.000233611
8.72283e-05
4.78013e-05
4.77894e-05
0.000231345
4.40185e-05
4.40089e-05
7.25677e-05
4.2434e-05
8.14027e-05
4.37634e-05
2.47749e-05
2.54634e-05
7.25581e-05
4.24305e-05
8.13974e-05
4.37596e-05
0.000232532
0.000232532
0.000232532