/*--------------------------------*- C++ -*----------------------------------*\
| =========                 |                                                 |
| \\      /  F ield         | OpenFOAM: The Open Source CFD Toolbox           |
|  \\    /   O peration     | Version:  v2012                                 |
|   \\  /    A nd           | Website:  www.openfoam.com                      |
|    \\/     M anipulation  |                                                 |
\*---------------------------------------------------------------------------*/
FoamFile
{
    version     2.0;
    format      ascii;
    class       volScalarField;
    location    "0.26";
    object      p;
}
// * * * * * * * * * * * * * * * * * * * * * * * * * * * * * * * * * * * * * //

dimensions      [0 2 -2 0 0 0 0];


internalField   nonuniform List<scalar> 
247104
(
1.87368e-06
1.87372e-06
1.87384e-06
1.87377e-06
1.87364e-06
1.87379e-06
1.87382e-06
1.87364e-06
1.87371e-06
1.87377e-06
1.87382e-06
1.87365e-06
1.87354e-06
1.87367e-06
1.87383e-06
1.87374e-06
1.87384e-06
1.87382e-06
1.87351e-06
1.87314e-06
1.87299e-06
1.87318e-06
1.87356e-06
1.87384e-06
1.87383e-06
1.87377e-06
1.87365e-06
1.87314e-06
1.87265e-06
1.87247e-06
1.8727e-06
1.87321e-06
1.8737e-06
1.87376e-06
1.87368e-06
1.87364e-06
1.87355e-06
1.87299e-06
1.87247e-06
1.87229e-06
1.87252e-06
1.87307e-06
1.87359e-06
1.87362e-06
1.8738e-06
1.87368e-06
1.87318e-06
1.8727e-06
1.87252e-06
1.87274e-06
1.87325e-06
1.87372e-06
1.87379e-06
1.87383e-06
1.87383e-06
1.87356e-06
1.87321e-06
1.87307e-06
1.87325e-06
1.87361e-06
1.87385e-06
1.87383e-06
1.87364e-06
1.87374e-06
1.87384e-06
1.8737e-06
1.87359e-06
1.87372e-06
1.87385e-06
1.87371e-06
1.87383e-06
1.87376e-06
1.87361e-06
1.87379e-06
1.87382e-06
1.84013e-06
1.8381e-06
1.83774e-06
1.83655e-06
1.83653e-06
1.83645e-06
1.83645e-06
1.83776e-06
1.8381e-06
1.83772e-06
1.83567e-06
1.83287e-06
1.83281e-06
1.83281e-06
1.83287e-06
1.83607e-06
1.83628e-06
1.83655e-06
1.83287e-06
1.83281e-06
1.83286e-06
1.83286e-06
1.83281e-06
1.83287e-06
1.83646e-06
1.83751e-06
1.84013e-06
1.83653e-06
1.83282e-06
1.83286e-06
1.83296e-06
1.83296e-06
1.83286e-06
1.83281e-06
1.8364e-06
1.83804e-06
1.83811e-06
1.83645e-06
1.83282e-06
1.83286e-06
1.83297e-06
1.83296e-06
1.83286e-06
1.83282e-06
1.83658e-06
1.83649e-06
1.83646e-06
1.83287e-06
1.83281e-06
1.83286e-06
1.83286e-06
1.83281e-06
1.83287e-06
1.83636e-06
1.83737e-06
1.83776e-06
1.83607e-06
1.83287e-06
1.83282e-06
1.83281e-06
1.83287e-06
1.83624e-06
1.83647e-06
1.83788e-06
1.8381e-06
1.83628e-06
1.83647e-06
1.8364e-06
1.83658e-06
1.83636e-06
1.83647e-06
1.83847e-06
1.83752e-06
1.83804e-06
1.83649e-06
1.83737e-06
1.83788e-06
1.82002e-06
1.81983e-06
1.81968e-06
1.81752e-06
1.81744e-06
1.81741e-06
1.8175e-06
1.81968e-06
1.8199e-06
1.81967e-06
1.8168e-06
1.81379e-06
1.81369e-06
1.81369e-06
1.81378e-06
1.8174e-06
1.81796e-06
1.81751e-06
1.81385e-06
1.81347e-06
1.81348e-06
1.81348e-06
1.81346e-06
1.81382e-06
1.81822e-06
1.8202e-06
1.82002e-06
1.81743e-06
1.81371e-06
1.81349e-06
1.81351e-06
1.8135e-06
1.81348e-06
1.8137e-06
1.81826e-06
1.81992e-06
1.81983e-06
1.81741e-06
1.8137e-06
1.81348e-06
1.81351e-06
1.8135e-06
1.81348e-06
1.8137e-06
1.8182e-06
1.81805e-06
1.81749e-06
1.81382e-06
1.81347e-06
1.81348e-06
1.81348e-06
1.81346e-06
1.81382e-06
1.81828e-06
1.82026e-06
1.81968e-06
1.81741e-06
1.81382e-06
1.8137e-06
1.81369e-06
1.81378e-06
1.81788e-06
1.81813e-06
1.82017e-06
1.8199e-06
1.81797e-06
1.81822e-06
1.81826e-06
1.8182e-06
1.81827e-06
1.81813e-06
1.8201e-06
1.8202e-06
1.81992e-06
1.81805e-06
1.82026e-06
1.82016e-06
1.80082e-06
1.80064e-06
1.80051e-06
1.79828e-06
1.79821e-06
1.79811e-06
1.79831e-06
1.8005e-06
1.80074e-06
1.80049e-06
1.79747e-06
1.79454e-06
1.79449e-06
1.79449e-06
1.79454e-06
1.79811e-06
1.79885e-06
1.79826e-06
1.79453e-06
1.79438e-06
1.79439e-06
1.79439e-06
1.79439e-06
1.79454e-06
1.79903e-06
1.80099e-06
1.8008e-06
1.79819e-06
1.79449e-06
1.79438e-06
1.79439e-06
1.79439e-06
1.79439e-06
1.79449e-06
1.79912e-06
1.80069e-06
1.80062e-06
1.7981e-06
1.79449e-06
1.79438e-06
1.79439e-06
1.79439e-06
1.79439e-06
1.79449e-06
1.79908e-06
1.79891e-06
1.79829e-06
1.79453e-06
1.79439e-06
1.79439e-06
1.79439e-06
1.79439e-06
1.79454e-06
1.7991e-06
1.80103e-06
1.80049e-06
1.7981e-06
1.79454e-06
1.79449e-06
1.79449e-06
1.79454e-06
1.79886e-06
1.79899e-06
1.80099e-06
1.80073e-06
1.79884e-06
1.79903e-06
1.79912e-06
1.79909e-06
1.7991e-06
1.799e-06
1.80099e-06
1.801e-06
1.80069e-06
1.79892e-06
1.80104e-06
1.80101e-06
1.78156e-06
1.7814e-06
1.78123e-06
1.77899e-06
1.77891e-06
1.77878e-06
1.77901e-06
1.78122e-06
1.78146e-06
1.78122e-06
1.77818e-06
1.77523e-06
1.77522e-06
1.77522e-06
1.77523e-06
1.77877e-06
1.77959e-06
1.77899e-06
1.77523e-06
1.77519e-06
1.77519e-06
1.77519e-06
1.77519e-06
1.77523e-06
1.77979e-06
1.78175e-06
1.78157e-06
1.7789e-06
1.77522e-06
1.77519e-06
1.77519e-06
1.77519e-06
1.77519e-06
1.77522e-06
1.77992e-06
1.78149e-06
1.78139e-06
1.77878e-06
1.77522e-06
1.77519e-06
1.77519e-06
1.77519e-06
1.77519e-06
1.77522e-06
1.7799e-06
1.77971e-06
1.779e-06
1.77523e-06
1.77519e-06
1.77519e-06
1.77519e-06
1.77519e-06
1.77523e-06
1.77987e-06
1.78182e-06
1.78122e-06
1.77877e-06
1.77523e-06
1.77522e-06
1.77522e-06
1.77523e-06
1.77968e-06
1.77977e-06
1.78174e-06
1.78146e-06
1.77959e-06
1.77979e-06
1.77991e-06
1.7799e-06
1.77987e-06
1.77977e-06
1.78171e-06
1.78174e-06
1.78149e-06
1.77971e-06
1.78182e-06
1.78174e-06
1.7623e-06
1.76213e-06
1.76195e-06
1.75971e-06
1.75962e-06
1.7595e-06
1.75972e-06
1.76195e-06
1.76218e-06
1.76195e-06
1.7589e-06
1.75595e-06
1.75594e-06
1.75594e-06
1.75595e-06
1.75947e-06
1.76031e-06
1.75971e-06
1.75595e-06
1.75594e-06
1.75594e-06
1.75594e-06
1.75594e-06
1.75595e-06
1.76052e-06
1.76247e-06
1.7623e-06
1.75962e-06
1.75594e-06
1.75594e-06
1.75594e-06
1.75594e-06
1.75594e-06
1.75594e-06
1.76066e-06
1.76223e-06
1.76213e-06
1.7595e-06
1.75594e-06
1.75594e-06
1.75594e-06
1.75594e-06
1.75594e-06
1.75595e-06
1.76065e-06
1.76045e-06
1.75972e-06
1.75595e-06
1.75594e-06
1.75594e-06
1.75594e-06
1.75594e-06
1.75595e-06
1.7606e-06
1.76256e-06
1.76195e-06
1.75947e-06
1.75595e-06
1.75594e-06
1.75594e-06
1.75595e-06
1.76044e-06
1.7605e-06
1.76246e-06
1.76218e-06
1.76031e-06
1.76052e-06
1.76065e-06
1.76064e-06
1.7606e-06
1.76051e-06
1.76242e-06
1.76247e-06
1.76223e-06
1.76045e-06
1.76256e-06
1.76247e-06
1.74303e-06
1.74286e-06
1.74267e-06
1.74044e-06
1.74035e-06
1.74022e-06
1.74045e-06
1.74267e-06
1.7429e-06
1.74267e-06
1.73962e-06
1.73667e-06
1.73667e-06
1.73667e-06
1.73667e-06
1.74019e-06
1.74104e-06
1.74044e-06
1.73667e-06
1.73667e-06
1.73667e-06
1.73667e-06
1.73667e-06
1.73667e-06
1.74124e-06
1.7432e-06
1.74303e-06
1.74035e-06
1.73667e-06
1.73667e-06
1.73667e-06
1.73667e-06
1.73667e-06
1.73667e-06
1.74138e-06
1.74296e-06
1.74286e-06
1.74022e-06
1.73667e-06
1.73667e-06
1.73667e-06
1.73667e-06
1.73667e-06
1.73667e-06
1.74138e-06
1.74119e-06
1.74044e-06
1.73667e-06
1.73667e-06
1.73667e-06
1.73667e-06
1.73667e-06
1.73667e-06
1.74133e-06
1.7433e-06
1.74267e-06
1.74019e-06
1.73667e-06
1.73667e-06
1.73667e-06
1.73667e-06
1.74117e-06
1.74123e-06
1.74319e-06
1.74291e-06
1.74104e-06
1.74124e-06
1.74138e-06
1.74138e-06
1.74133e-06
1.74124e-06
1.74314e-06
1.7432e-06
1.74297e-06
1.74119e-06
1.74329e-06
1.74319e-06
1.72376e-06
1.72359e-06
1.7234e-06
1.72116e-06
1.72108e-06
1.72095e-06
1.72117e-06
1.7234e-06
1.72363e-06
1.7234e-06
1.72035e-06
1.7174e-06
1.7174e-06
1.7174e-06
1.7174e-06
1.72092e-06
1.72176e-06
1.72116e-06
1.7174e-06
1.7174e-06
1.7174e-06
1.7174e-06
1.7174e-06
1.7174e-06
1.72197e-06
1.72393e-06
1.72376e-06
1.72108e-06
1.7174e-06
1.7174e-06
1.7174e-06
1.7174e-06
1.7174e-06
1.7174e-06
1.72211e-06
1.72369e-06
1.72359e-06
1.72095e-06
1.7174e-06
1.7174e-06
1.7174e-06
1.7174e-06
1.7174e-06
1.7174e-06
1.72211e-06
1.72191e-06
1.72117e-06
1.7174e-06
1.7174e-06
1.7174e-06
1.7174e-06
1.7174e-06
1.7174e-06
1.72206e-06
1.72402e-06
1.7234e-06
1.72092e-06
1.7174e-06
1.7174e-06
1.7174e-06
1.7174e-06
1.7219e-06
1.72196e-06
1.72392e-06
1.72364e-06
1.72177e-06
1.72197e-06
1.72211e-06
1.72211e-06
1.72206e-06
1.72197e-06
1.72387e-06
1.72393e-06
1.7237e-06
1.72192e-06
1.72402e-06
1.72392e-06
1.70449e-06
1.70432e-06
1.70413e-06
1.70189e-06
1.7018e-06
1.70168e-06
1.7019e-06
1.70413e-06
1.70436e-06
1.70413e-06
1.70108e-06
1.69813e-06
1.69813e-06
1.69813e-06
1.69813e-06
1.70164e-06
1.70249e-06
1.70189e-06
1.69813e-06
1.69813e-06
1.69813e-06
1.69813e-06
1.69813e-06
1.69813e-06
1.7027e-06
1.70465e-06
1.70449e-06
1.7018e-06
1.69813e-06
1.69813e-06
1.69813e-06
1.69813e-06
1.69813e-06
1.69813e-06
1.70284e-06
1.70442e-06
1.70432e-06
1.70168e-06
1.69813e-06
1.69813e-06
1.69813e-06
1.69813e-06
1.69813e-06
1.69813e-06
1.70283e-06
1.70264e-06
1.7019e-06
1.69813e-06
1.69813e-06
1.69813e-06
1.69813e-06
1.69813e-06
1.69813e-06
1.70279e-06
1.70475e-06
1.70413e-06
1.70164e-06
1.69813e-06
1.69813e-06
1.69813e-06
1.69813e-06
1.70263e-06
1.70269e-06
1.70465e-06
1.70436e-06
1.70249e-06
1.7027e-06
1.70284e-06
1.70283e-06
1.70279e-06
1.7027e-06
1.7046e-06
1.70466e-06
1.70442e-06
1.70264e-06
1.70475e-06
1.70465e-06
1.68521e-06
1.68505e-06
1.68486e-06
1.68262e-06
1.68253e-06
1.68241e-06
1.68263e-06
1.68486e-06
1.68509e-06
1.68486e-06
1.68181e-06
1.67886e-06
1.67886e-06
1.67886e-06
1.67886e-06
1.68237e-06
1.68322e-06
1.68262e-06
1.67886e-06
1.67886e-06
1.67886e-06
1.67886e-06
1.67886e-06
1.67886e-06
1.68343e-06
1.68538e-06
1.68522e-06
1.68253e-06
1.67886e-06
1.67886e-06
1.67886e-06
1.67886e-06
1.67886e-06
1.67886e-06
1.68357e-06
1.68515e-06
1.68505e-06
1.6824e-06
1.67886e-06
1.67886e-06
1.67886e-06
1.67886e-06
1.67886e-06
1.67886e-06
1.68356e-06
1.68337e-06
1.68263e-06
1.67886e-06
1.67886e-06
1.67886e-06
1.67886e-06
1.67886e-06
1.67886e-06
1.68352e-06
1.68548e-06
1.68486e-06
1.68237e-06
1.67886e-06
1.67886e-06
1.67886e-06
1.67886e-06
1.68336e-06
1.68342e-06
1.68538e-06
1.68509e-06
1.68322e-06
1.68343e-06
1.68357e-06
1.68356e-06
1.68351e-06
1.68343e-06
1.68533e-06
1.68538e-06
1.68515e-06
1.68337e-06
1.68548e-06
1.68538e-06
1.66594e-06
1.66577e-06
1.66559e-06
1.66335e-06
1.66326e-06
1.66313e-06
1.66336e-06
1.66559e-06
1.66582e-06
1.66558e-06
1.66254e-06
1.65959e-06
1.65959e-06
1.65959e-06
1.65959e-06
1.6631e-06
1.66395e-06
1.66335e-06
1.65959e-06
1.65959e-06
1.65959e-06
1.65959e-06
1.65959e-06
1.65959e-06
1.66416e-06
1.66611e-06
1.66595e-06
1.66326e-06
1.65959e-06
1.65959e-06
1.65959e-06
1.65959e-06
1.65959e-06
1.65959e-06
1.6643e-06
1.66588e-06
1.66577e-06
1.66313e-06
1.65959e-06
1.65959e-06
1.65959e-06
1.65959e-06
1.65959e-06
1.65959e-06
1.66429e-06
1.6641e-06
1.66336e-06
1.65959e-06
1.65959e-06
1.65959e-06
1.65959e-06
1.65959e-06
1.65959e-06
1.66424e-06
1.66621e-06
1.66559e-06
1.6631e-06
1.65959e-06
1.65959e-06
1.65959e-06
1.65959e-06
1.66409e-06
1.66415e-06
1.66611e-06
1.66582e-06
1.66395e-06
1.66415e-06
1.6643e-06
1.66429e-06
1.66424e-06
1.66416e-06
1.66606e-06
1.66611e-06
1.66588e-06
1.6641e-06
1.66621e-06
1.66611e-06
1.64667e-06
1.6465e-06
1.64631e-06
1.64408e-06
1.64399e-06
1.64386e-06
1.64409e-06
1.64632e-06
1.64655e-06
1.64631e-06
1.64327e-06
1.64031e-06
1.64032e-06
1.64032e-06
1.64032e-06
1.64383e-06
1.64468e-06
1.64408e-06
1.64032e-06
1.64032e-06
1.64032e-06
1.64032e-06
1.64032e-06
1.64032e-06
1.64489e-06
1.64684e-06
1.64668e-06
1.64399e-06
1.64032e-06
1.64032e-06
1.64032e-06
1.64032e-06
1.64032e-06
1.64032e-06
1.64503e-06
1.64661e-06
1.6465e-06
1.64386e-06
1.64032e-06
1.64032e-06
1.64032e-06
1.64032e-06
1.64032e-06
1.64032e-06
1.64502e-06
1.64483e-06
1.64409e-06
1.64032e-06
1.64032e-06
1.64032e-06
1.64032e-06
1.64032e-06
1.64032e-06
1.64497e-06
1.64694e-06
1.64631e-06
1.64383e-06
1.64032e-06
1.64032e-06
1.64032e-06
1.64032e-06
1.64482e-06
1.64488e-06
1.64683e-06
1.64655e-06
1.64468e-06
1.64488e-06
1.64503e-06
1.64502e-06
1.64497e-06
1.64488e-06
1.64679e-06
1.64684e-06
1.64661e-06
1.64483e-06
1.64694e-06
1.64684e-06
1.6274e-06
1.62723e-06
1.62704e-06
1.62481e-06
1.62472e-06
1.62459e-06
1.62482e-06
1.62704e-06
1.62727e-06
1.62704e-06
1.624e-06
1.62104e-06
1.62104e-06
1.62104e-06
1.62104e-06
1.62456e-06
1.62541e-06
1.62481e-06
1.62104e-06
1.62104e-06
1.62104e-06
1.62104e-06
1.62104e-06
1.62104e-06
1.62561e-06
1.62757e-06
1.6274e-06
1.62472e-06
1.62104e-06
1.62104e-06
1.62104e-06
1.62104e-06
1.62104e-06
1.62104e-06
1.62576e-06
1.62734e-06
1.62723e-06
1.62459e-06
1.62104e-06
1.62104e-06
1.62104e-06
1.62104e-06
1.62104e-06
1.62104e-06
1.62575e-06
1.62556e-06
1.62481e-06
1.62104e-06
1.62104e-06
1.62104e-06
1.62104e-06
1.62104e-06
1.62104e-06
1.6257e-06
1.62767e-06
1.62704e-06
1.62456e-06
1.62104e-06
1.62104e-06
1.62104e-06
1.62104e-06
1.62555e-06
1.62561e-06
1.62756e-06
1.62728e-06
1.62541e-06
1.62561e-06
1.62576e-06
1.62575e-06
1.6257e-06
1.62561e-06
1.62752e-06
1.62757e-06
1.62734e-06
1.62556e-06
1.62767e-06
1.62756e-06
1.60813e-06
1.60796e-06
1.60777e-06
1.60553e-06
1.60545e-06
1.60532e-06
1.60554e-06
1.60777e-06
1.608e-06
1.60777e-06
1.60472e-06
1.60177e-06
1.60177e-06
1.60177e-06
1.60177e-06
1.60529e-06
1.60614e-06
1.60553e-06
1.60177e-06
1.60177e-06
1.60177e-06
1.60177e-06
1.60177e-06
1.60177e-06
1.60634e-06
1.6083e-06
1.60813e-06
1.60545e-06
1.60177e-06
1.60177e-06
1.60177e-06
1.60177e-06
1.60177e-06
1.60177e-06
1.60649e-06
1.60807e-06
1.60796e-06
1.60532e-06
1.60177e-06
1.60177e-06
1.60177e-06
1.60177e-06
1.60177e-06
1.60177e-06
1.60648e-06
1.60629e-06
1.60554e-06
1.60177e-06
1.60177e-06
1.60177e-06
1.60177e-06
1.60177e-06
1.60177e-06
1.60643e-06
1.6084e-06
1.60777e-06
1.60529e-06
1.60177e-06
1.60177e-06
1.60177e-06
1.60177e-06
1.60628e-06
1.60634e-06
1.60829e-06
1.60801e-06
1.60614e-06
1.60634e-06
1.60649e-06
1.60648e-06
1.60643e-06
1.60634e-06
1.60824e-06
1.6083e-06
1.60807e-06
1.60629e-06
1.6084e-06
1.60829e-06
1.58886e-06
1.58869e-06
1.5885e-06
1.58626e-06
1.58618e-06
1.58605e-06
1.58627e-06
1.5885e-06
1.58873e-06
1.5885e-06
1.58545e-06
1.5825e-06
1.5825e-06
1.5825e-06
1.5825e-06
1.58602e-06
1.58686e-06
1.58626e-06
1.5825e-06
1.5825e-06
1.5825e-06
1.5825e-06
1.5825e-06
1.5825e-06
1.58707e-06
1.58903e-06
1.58886e-06
1.58617e-06
1.5825e-06
1.5825e-06
1.5825e-06
1.5825e-06
1.5825e-06
1.5825e-06
1.58721e-06
1.58879e-06
1.58869e-06
1.58605e-06
1.5825e-06
1.5825e-06
1.5825e-06
1.5825e-06
1.5825e-06
1.5825e-06
1.58721e-06
1.58702e-06
1.58627e-06
1.5825e-06
1.5825e-06
1.5825e-06
1.5825e-06
1.5825e-06
1.5825e-06
1.58716e-06
1.58912e-06
1.5885e-06
1.58601e-06
1.5825e-06
1.5825e-06
1.5825e-06
1.5825e-06
1.587e-06
1.58706e-06
1.58902e-06
1.58873e-06
1.58686e-06
1.58707e-06
1.58721e-06
1.58721e-06
1.58716e-06
1.58707e-06
1.58897e-06
1.58903e-06
1.5888e-06
1.58702e-06
1.58912e-06
1.58902e-06
1.56959e-06
1.56942e-06
1.56922e-06
1.56699e-06
1.5669e-06
1.56678e-06
1.567e-06
1.56923e-06
1.56946e-06
1.56923e-06
1.56618e-06
1.56323e-06
1.56323e-06
1.56323e-06
1.56323e-06
1.56674e-06
1.56759e-06
1.56699e-06
1.56323e-06
1.56323e-06
1.56323e-06
1.56323e-06
1.56323e-06
1.56323e-06
1.5678e-06
1.56975e-06
1.56959e-06
1.5669e-06
1.56323e-06
1.56323e-06
1.56323e-06
1.56323e-06
1.56323e-06
1.56323e-06
1.56794e-06
1.56952e-06
1.56942e-06
1.56678e-06
1.56323e-06
1.56323e-06
1.56323e-06
1.56323e-06
1.56323e-06
1.56323e-06
1.56793e-06
1.56774e-06
1.567e-06
1.56323e-06
1.56323e-06
1.56323e-06
1.56323e-06
1.56323e-06
1.56323e-06
1.56789e-06
1.56985e-06
1.56923e-06
1.56674e-06
1.56323e-06
1.56323e-06
1.56323e-06
1.56323e-06
1.56773e-06
1.56779e-06
1.56975e-06
1.56946e-06
1.56759e-06
1.5678e-06
1.56794e-06
1.56793e-06
1.56789e-06
1.5678e-06
1.5697e-06
1.56976e-06
1.56952e-06
1.56774e-06
1.56985e-06
1.56975e-06
1.55031e-06
1.55014e-06
1.54995e-06
1.54772e-06
1.54763e-06
1.5475e-06
1.54773e-06
1.54996e-06
1.55019e-06
1.54995e-06
1.54691e-06
1.54396e-06
1.54396e-06
1.54396e-06
1.54396e-06
1.54747e-06
1.54832e-06
1.54772e-06
1.54396e-06
1.54396e-06
1.54396e-06
1.54396e-06
1.54396e-06
1.54396e-06
1.54853e-06
1.55048e-06
1.55032e-06
1.54763e-06
1.54396e-06
1.54396e-06
1.54396e-06
1.54396e-06
1.54396e-06
1.54396e-06
1.54867e-06
1.55025e-06
1.55014e-06
1.5475e-06
1.54396e-06
1.54396e-06
1.54396e-06
1.54396e-06
1.54396e-06
1.54396e-06
1.54866e-06
1.54847e-06
1.54773e-06
1.54396e-06
1.54396e-06
1.54396e-06
1.54396e-06
1.54396e-06
1.54396e-06
1.54861e-06
1.55058e-06
1.54996e-06
1.54747e-06
1.54396e-06
1.54396e-06
1.54396e-06
1.54396e-06
1.54846e-06
1.54852e-06
1.55048e-06
1.55019e-06
1.54832e-06
1.54852e-06
1.54867e-06
1.54866e-06
1.54861e-06
1.54853e-06
1.55043e-06
1.55048e-06
1.55025e-06
1.54847e-06
1.55058e-06
1.55048e-06
1.53104e-06
1.53087e-06
1.53068e-06
1.52845e-06
1.52836e-06
1.52823e-06
1.52846e-06
1.53068e-06
1.53091e-06
1.53068e-06
1.52764e-06
1.52468e-06
1.52468e-06
1.52468e-06
1.52468e-06
1.5282e-06
1.52905e-06
1.52845e-06
1.52468e-06
1.52468e-06
1.52468e-06
1.52468e-06
1.52468e-06
1.52468e-06
1.52925e-06
1.53121e-06
1.53104e-06
1.52836e-06
1.52468e-06
1.52468e-06
1.52468e-06
1.52468e-06
1.52468e-06
1.52468e-06
1.5294e-06
1.53098e-06
1.53087e-06
1.52823e-06
1.52468e-06
1.52468e-06
1.52468e-06
1.52468e-06
1.52468e-06
1.52468e-06
1.52939e-06
1.5292e-06
1.52846e-06
1.52468e-06
1.52468e-06
1.52468e-06
1.52468e-06
1.52468e-06
1.52468e-06
1.52934e-06
1.53131e-06
1.53068e-06
1.5282e-06
1.52468e-06
1.52468e-06
1.52468e-06
1.52468e-06
1.52919e-06
1.52925e-06
1.5312e-06
1.53092e-06
1.52905e-06
1.52925e-06
1.5294e-06
1.52939e-06
1.52934e-06
1.52925e-06
1.53116e-06
1.53121e-06
1.53098e-06
1.5292e-06
1.53131e-06
1.5312e-06
1.51177e-06
1.5116e-06
1.51141e-06
1.50917e-06
1.50909e-06
1.50896e-06
1.50918e-06
1.51141e-06
1.51164e-06
1.51141e-06
1.50836e-06
1.50541e-06
1.50541e-06
1.50541e-06
1.50541e-06
1.50893e-06
1.50978e-06
1.50917e-06
1.50541e-06
1.50541e-06
1.50541e-06
1.50541e-06
1.50541e-06
1.50541e-06
1.50998e-06
1.51194e-06
1.51177e-06
1.50909e-06
1.50541e-06
1.50541e-06
1.50541e-06
1.50541e-06
1.50541e-06
1.50541e-06
1.51013e-06
1.51171e-06
1.5116e-06
1.50896e-06
1.50541e-06
1.50541e-06
1.50541e-06
1.50541e-06
1.50541e-06
1.50541e-06
1.51012e-06
1.50993e-06
1.50918e-06
1.50541e-06
1.50541e-06
1.50541e-06
1.50541e-06
1.50541e-06
1.50541e-06
1.51007e-06
1.51204e-06
1.51141e-06
1.50893e-06
1.50541e-06
1.50541e-06
1.50541e-06
1.50541e-06
1.50992e-06
1.50998e-06
1.51193e-06
1.51165e-06
1.50978e-06
1.50998e-06
1.51012e-06
1.51012e-06
1.51007e-06
1.50998e-06
1.51188e-06
1.51194e-06
1.51171e-06
1.50993e-06
1.51204e-06
1.51193e-06
1.4925e-06
1.49233e-06
1.49214e-06
1.4899e-06
1.48981e-06
1.48969e-06
1.48991e-06
1.49214e-06
1.49237e-06
1.49214e-06
1.48909e-06
1.48614e-06
1.48614e-06
1.48614e-06
1.48614e-06
1.48965e-06
1.4905e-06
1.4899e-06
1.48614e-06
1.48614e-06
1.48614e-06
1.48614e-06
1.48614e-06
1.48614e-06
1.49071e-06
1.49267e-06
1.4925e-06
1.48981e-06
1.48614e-06
1.48614e-06
1.48614e-06
1.48614e-06
1.48614e-06
1.48614e-06
1.49085e-06
1.49243e-06
1.49233e-06
1.48969e-06
1.48614e-06
1.48614e-06
1.48614e-06
1.48614e-06
1.48614e-06
1.48614e-06
1.49085e-06
1.49065e-06
1.48991e-06
1.48614e-06
1.48614e-06
1.48614e-06
1.48614e-06
1.48614e-06
1.48614e-06
1.4908e-06
1.49276e-06
1.49214e-06
1.48965e-06
1.48614e-06
1.48614e-06
1.48614e-06
1.48614e-06
1.49064e-06
1.4907e-06
1.49266e-06
1.49237e-06
1.4905e-06
1.49071e-06
1.49085e-06
1.49085e-06
1.4908e-06
1.49071e-06
1.49261e-06
1.49267e-06
1.49243e-06
1.49066e-06
1.49276e-06
1.49266e-06
1.47323e-06
1.47306e-06
1.47286e-06
1.47063e-06
1.47054e-06
1.47042e-06
1.47064e-06
1.47287e-06
1.4731e-06
1.47287e-06
1.46982e-06
1.46687e-06
1.46687e-06
1.46687e-06
1.46687e-06
1.47038e-06
1.47123e-06
1.47063e-06
1.46687e-06
1.46687e-06
1.46687e-06
1.46687e-06
1.46687e-06
1.46687e-06
1.47144e-06
1.47339e-06
1.47323e-06
1.47054e-06
1.46687e-06
1.46687e-06
1.46687e-06
1.46687e-06
1.46687e-06
1.46687e-06
1.47158e-06
1.47316e-06
1.47306e-06
1.47042e-06
1.46687e-06
1.46687e-06
1.46687e-06
1.46687e-06
1.46687e-06
1.46687e-06
1.47157e-06
1.47138e-06
1.47064e-06
1.46687e-06
1.46687e-06
1.46687e-06
1.46687e-06
1.46687e-06
1.46687e-06
1.47153e-06
1.47349e-06
1.47287e-06
1.47038e-06
1.46687e-06
1.46687e-06
1.46687e-06
1.46687e-06
1.47137e-06
1.47143e-06
1.47339e-06
1.4731e-06
1.47123e-06
1.47144e-06
1.47158e-06
1.47157e-06
1.47153e-06
1.47144e-06
1.47334e-06
1.4734e-06
1.47316e-06
1.47138e-06
1.47349e-06
1.47339e-06
1.45396e-06
1.45379e-06
1.45359e-06
1.45136e-06
1.45127e-06
1.45115e-06
1.45137e-06
1.4536e-06
1.45383e-06
1.4536e-06
1.45055e-06
1.4476e-06
1.4476e-06
1.4476e-06
1.4476e-06
1.45111e-06
1.45196e-06
1.45136e-06
1.4476e-06
1.4476e-06
1.4476e-06
1.4476e-06
1.4476e-06
1.4476e-06
1.45217e-06
1.45412e-06
1.45396e-06
1.45127e-06
1.4476e-06
1.4476e-06
1.4476e-06
1.4476e-06
1.4476e-06
1.4476e-06
1.45231e-06
1.45389e-06
1.45379e-06
1.45115e-06
1.4476e-06
1.4476e-06
1.4476e-06
1.4476e-06
1.4476e-06
1.4476e-06
1.4523e-06
1.45211e-06
1.45137e-06
1.4476e-06
1.4476e-06
1.4476e-06
1.4476e-06
1.4476e-06
1.4476e-06
1.45226e-06
1.45422e-06
1.4536e-06
1.45111e-06
1.4476e-06
1.4476e-06
1.4476e-06
1.4476e-06
1.4521e-06
1.45216e-06
1.45412e-06
1.45383e-06
1.45196e-06
1.45217e-06
1.45231e-06
1.4523e-06
1.45226e-06
1.45217e-06
1.45407e-06
1.45413e-06
1.45389e-06
1.45211e-06
1.45422e-06
1.45412e-06
1.43468e-06
1.43452e-06
1.43432e-06
1.43209e-06
1.432e-06
1.43188e-06
1.4321e-06
1.43433e-06
1.43456e-06
1.43432e-06
1.43128e-06
1.42833e-06
1.42833e-06
1.42833e-06
1.42833e-06
1.43184e-06
1.43269e-06
1.43209e-06
1.42833e-06
1.42833e-06
1.42833e-06
1.42833e-06
1.42833e-06
1.42833e-06
1.4329e-06
1.43485e-06
1.43469e-06
1.432e-06
1.42833e-06
1.42833e-06
1.42833e-06
1.42833e-06
1.42833e-06
1.42833e-06
1.43304e-06
1.43462e-06
1.43452e-06
1.43187e-06
1.42833e-06
1.42833e-06
1.42833e-06
1.42833e-06
1.42833e-06
1.42833e-06
1.43303e-06
1.43284e-06
1.4321e-06
1.42833e-06
1.42833e-06
1.42833e-06
1.42833e-06
1.42833e-06
1.42833e-06
1.43298e-06
1.43495e-06
1.43433e-06
1.43184e-06
1.42833e-06
1.42833e-06
1.42833e-06
1.42833e-06
1.43283e-06
1.43289e-06
1.43485e-06
1.43456e-06
1.43269e-06
1.43289e-06
1.43304e-06
1.43303e-06
1.43298e-06
1.4329e-06
1.4348e-06
1.43485e-06
1.43462e-06
1.43284e-06
1.43495e-06
1.43485e-06
1.41541e-06
1.41524e-06
1.41505e-06
1.41282e-06
1.41273e-06
1.4126e-06
1.41283e-06
1.41505e-06
1.41528e-06
1.41505e-06
1.41201e-06
1.40905e-06
1.40905e-06
1.40905e-06
1.40905e-06
1.41257e-06
1.41342e-06
1.41282e-06
1.40905e-06
1.40905e-06
1.40905e-06
1.40905e-06
1.40905e-06
1.40905e-06
1.41362e-06
1.41558e-06
1.41541e-06
1.41273e-06
1.40905e-06
1.40905e-06
1.40905e-06
1.40905e-06
1.40905e-06
1.40905e-06
1.41377e-06
1.41535e-06
1.41524e-06
1.4126e-06
1.40905e-06
1.40905e-06
1.40905e-06
1.40905e-06
1.40905e-06
1.40905e-06
1.41376e-06
1.41357e-06
1.41282e-06
1.40905e-06
1.40905e-06
1.40905e-06
1.40905e-06
1.40905e-06
1.40905e-06
1.41371e-06
1.41568e-06
1.41505e-06
1.41257e-06
1.40905e-06
1.40905e-06
1.40905e-06
1.40905e-06
1.41356e-06
1.41362e-06
1.41557e-06
1.41529e-06
1.41342e-06
1.41362e-06
1.41377e-06
1.41376e-06
1.41371e-06
1.41362e-06
1.41553e-06
1.41558e-06
1.41535e-06
1.41357e-06
1.41568e-06
1.41557e-06
1.39614e-06
1.39597e-06
1.39578e-06
1.39354e-06
1.39346e-06
1.39333e-06
1.39355e-06
1.39578e-06
1.39601e-06
1.39578e-06
1.39273e-06
1.38978e-06
1.38978e-06
1.38978e-06
1.38978e-06
1.3933e-06
1.39415e-06
1.39354e-06
1.38978e-06
1.38978e-06
1.38978e-06
1.38978e-06
1.38978e-06
1.38978e-06
1.39435e-06
1.39631e-06
1.39614e-06
1.39346e-06
1.38978e-06
1.38978e-06
1.38978e-06
1.38978e-06
1.38978e-06
1.38978e-06
1.3945e-06
1.39607e-06
1.39597e-06
1.39333e-06
1.38978e-06
1.38978e-06
1.38978e-06
1.38978e-06
1.38978e-06
1.38978e-06
1.39449e-06
1.3943e-06
1.39355e-06
1.38978e-06
1.38978e-06
1.38978e-06
1.38978e-06
1.38978e-06
1.38978e-06
1.39444e-06
1.39641e-06
1.39578e-06
1.3933e-06
1.38978e-06
1.38978e-06
1.38978e-06
1.38978e-06
1.39429e-06
1.39435e-06
1.3963e-06
1.39602e-06
1.39415e-06
1.39435e-06
1.39449e-06
1.39449e-06
1.39444e-06
1.39435e-06
1.39625e-06
1.39631e-06
1.39608e-06
1.3943e-06
1.3964e-06
1.3963e-06
1.37687e-06
1.3767e-06
1.37651e-06
1.37427e-06
1.37418e-06
1.37406e-06
1.37428e-06
1.37651e-06
1.37674e-06
1.37651e-06
1.37346e-06
1.37051e-06
1.37051e-06
1.37051e-06
1.37051e-06
1.37402e-06
1.37487e-06
1.37427e-06
1.37051e-06
1.37051e-06
1.37051e-06
1.37051e-06
1.37051e-06
1.37051e-06
1.37508e-06
1.37703e-06
1.37687e-06
1.37418e-06
1.37051e-06
1.37051e-06
1.37051e-06
1.37051e-06
1.37051e-06
1.37051e-06
1.37522e-06
1.3768e-06
1.3767e-06
1.37406e-06
1.37051e-06
1.37051e-06
1.37051e-06
1.37051e-06
1.37051e-06
1.37051e-06
1.37522e-06
1.37502e-06
1.37428e-06
1.37051e-06
1.37051e-06
1.37051e-06
1.37051e-06
1.37051e-06
1.37051e-06
1.37517e-06
1.37713e-06
1.37651e-06
1.37402e-06
1.37051e-06
1.37051e-06
1.37051e-06
1.37051e-06
1.37501e-06
1.37507e-06
1.37703e-06
1.37674e-06
1.37487e-06
1.37508e-06
1.37522e-06
1.37522e-06
1.37517e-06
1.37508e-06
1.37698e-06
1.37704e-06
1.3768e-06
1.37503e-06
1.37713e-06
1.37703e-06
1.3576e-06
1.35743e-06
1.35723e-06
1.355e-06
1.35491e-06
1.35479e-06
1.35501e-06
1.35724e-06
1.35747e-06
1.35724e-06
1.35419e-06
1.35124e-06
1.35124e-06
1.35124e-06
1.35124e-06
1.35475e-06
1.3556e-06
1.355e-06
1.35124e-06
1.35124e-06
1.35124e-06
1.35124e-06
1.35124e-06
1.35124e-06
1.35581e-06
1.35776e-06
1.3576e-06
1.35491e-06
1.35124e-06
1.35124e-06
1.35124e-06
1.35124e-06
1.35124e-06
1.35124e-06
1.35595e-06
1.35753e-06
1.35743e-06
1.35479e-06
1.35124e-06
1.35124e-06
1.35124e-06
1.35124e-06
1.35124e-06
1.35124e-06
1.35594e-06
1.35575e-06
1.35501e-06
1.35124e-06
1.35124e-06
1.35124e-06
1.35124e-06
1.35124e-06
1.35124e-06
1.3559e-06
1.35786e-06
1.35724e-06
1.35475e-06
1.35124e-06
1.35124e-06
1.35124e-06
1.35124e-06
1.35574e-06
1.3558e-06
1.35776e-06
1.35747e-06
1.3556e-06
1.35581e-06
1.35595e-06
1.35594e-06
1.3559e-06
1.35581e-06
1.35771e-06
1.35777e-06
1.35753e-06
1.35575e-06
1.35786e-06
1.35776e-06
1.33832e-06
1.33815e-06
1.33796e-06
1.33573e-06
1.33564e-06
1.33551e-06
1.33574e-06
1.33797e-06
1.3382e-06
1.33796e-06
1.33492e-06
1.33197e-06
1.33197e-06
1.33197e-06
1.33197e-06
1.33548e-06
1.33633e-06
1.33573e-06
1.33197e-06
1.33197e-06
1.33197e-06
1.33197e-06
1.33197e-06
1.33197e-06
1.33654e-06
1.33849e-06
1.33833e-06
1.33564e-06
1.33197e-06
1.33197e-06
1.33197e-06
1.33197e-06
1.33197e-06
1.33197e-06
1.33668e-06
1.33826e-06
1.33815e-06
1.33551e-06
1.33197e-06
1.33197e-06
1.33197e-06
1.33197e-06
1.33197e-06
1.33197e-06
1.33667e-06
1.33648e-06
1.33574e-06
1.33197e-06
1.33197e-06
1.33197e-06
1.33197e-06
1.33197e-06
1.33197e-06
1.33662e-06
1.33859e-06
1.33797e-06
1.33548e-06
1.33197e-06
1.33197e-06
1.33197e-06
1.33197e-06
1.33647e-06
1.33653e-06
1.33849e-06
1.3382e-06
1.33633e-06
1.33653e-06
1.33668e-06
1.33667e-06
1.33662e-06
1.33654e-06
1.33844e-06
1.33849e-06
1.33826e-06
1.33648e-06
1.33859e-06
1.33849e-06
1.31905e-06
1.31888e-06
1.31869e-06
1.31646e-06
1.31637e-06
1.31624e-06
1.31647e-06
1.3187e-06
1.31892e-06
1.31869e-06
1.31565e-06
1.31269e-06
1.31269e-06
1.31269e-06
1.31269e-06
1.31621e-06
1.31706e-06
1.31646e-06
1.31269e-06
1.31269e-06
1.31269e-06
1.31269e-06
1.31269e-06
1.31269e-06
1.31726e-06
1.31922e-06
1.31905e-06
1.31637e-06
1.31269e-06
1.31269e-06
1.31269e-06
1.31269e-06
1.31269e-06
1.31269e-06
1.31741e-06
1.31899e-06
1.31888e-06
1.31624e-06
1.31269e-06
1.31269e-06
1.31269e-06
1.31269e-06
1.31269e-06
1.31269e-06
1.3174e-06
1.31721e-06
1.31647e-06
1.31269e-06
1.31269e-06
1.31269e-06
1.31269e-06
1.31269e-06
1.31269e-06
1.31735e-06
1.31932e-06
1.31869e-06
1.31621e-06
1.31269e-06
1.31269e-06
1.31269e-06
1.31269e-06
1.3172e-06
1.31726e-06
1.31921e-06
1.31893e-06
1.31706e-06
1.31726e-06
1.31741e-06
1.3174e-06
1.31735e-06
1.31726e-06
1.31917e-06
1.31922e-06
1.31899e-06
1.31721e-06
1.31932e-06
1.31921e-06
1.29978e-06
1.29961e-06
1.29942e-06
1.29719e-06
1.2971e-06
1.29697e-06
1.2972e-06
1.29942e-06
1.29965e-06
1.29942e-06
1.29638e-06
1.29342e-06
1.29342e-06
1.29342e-06
1.29342e-06
1.29694e-06
1.29779e-06
1.29718e-06
1.29342e-06
1.29342e-06
1.29342e-06
1.29342e-06
1.29342e-06
1.29342e-06
1.29799e-06
1.29995e-06
1.29978e-06
1.2971e-06
1.29342e-06
1.29342e-06
1.29342e-06
1.29342e-06
1.29342e-06
1.29342e-06
1.29814e-06
1.29972e-06
1.29961e-06
1.29697e-06
1.29342e-06
1.29342e-06
1.29342e-06
1.29342e-06
1.29342e-06
1.29342e-06
1.29813e-06
1.29794e-06
1.29719e-06
1.29342e-06
1.29342e-06
1.29342e-06
1.29342e-06
1.29342e-06
1.29342e-06
1.29808e-06
1.30005e-06
1.29942e-06
1.29694e-06
1.29342e-06
1.29342e-06
1.29342e-06
1.29342e-06
1.29793e-06
1.29799e-06
1.29994e-06
1.29966e-06
1.29779e-06
1.29799e-06
1.29814e-06
1.29813e-06
1.29808e-06
1.29799e-06
1.29989e-06
1.29995e-06
1.29972e-06
1.29794e-06
1.30005e-06
1.29994e-06
1.28051e-06
1.28034e-06
1.28015e-06
1.27791e-06
1.27783e-06
1.2777e-06
1.27792e-06
1.28015e-06
1.28038e-06
1.28015e-06
1.2771e-06
1.27415e-06
1.27415e-06
1.27415e-06
1.27415e-06
1.27767e-06
1.27852e-06
1.27791e-06
1.27415e-06
1.27415e-06
1.27415e-06
1.27415e-06
1.27415e-06
1.27415e-06
1.27872e-06
1.28068e-06
1.28051e-06
1.27783e-06
1.27415e-06
1.27415e-06
1.27415e-06
1.27415e-06
1.27415e-06
1.27415e-06
1.27887e-06
1.28044e-06
1.28034e-06
1.2777e-06
1.27415e-06
1.27415e-06
1.27415e-06
1.27415e-06
1.27415e-06
1.27415e-06
1.27886e-06
1.27867e-06
1.27792e-06
1.27415e-06
1.27415e-06
1.27415e-06
1.27415e-06
1.27415e-06
1.27415e-06
1.27881e-06
1.28077e-06
1.28015e-06
1.27766e-06
1.27415e-06
1.27415e-06
1.27415e-06
1.27415e-06
1.27866e-06
1.27872e-06
1.28067e-06
1.28039e-06
1.27852e-06
1.27872e-06
1.27886e-06
1.27886e-06
1.27881e-06
1.27872e-06
1.28062e-06
1.28068e-06
1.28045e-06
1.27867e-06
1.28077e-06
1.28067e-06
1.26124e-06
1.26107e-06
1.26088e-06
1.25864e-06
1.25855e-06
1.25843e-06
1.25865e-06
1.26088e-06
1.26111e-06
1.26088e-06
1.25783e-06
1.25488e-06
1.25488e-06
1.25488e-06
1.25488e-06
1.25839e-06
1.25924e-06
1.25864e-06
1.25488e-06
1.25488e-06
1.25488e-06
1.25488e-06
1.25488e-06
1.25488e-06
1.25945e-06
1.2614e-06
1.26124e-06
1.25855e-06
1.25488e-06
1.25488e-06
1.25488e-06
1.25488e-06
1.25488e-06
1.25488e-06
1.25959e-06
1.26117e-06
1.26107e-06
1.25843e-06
1.25488e-06
1.25488e-06
1.25488e-06
1.25488e-06
1.25488e-06
1.25488e-06
1.25959e-06
1.25939e-06
1.25865e-06
1.25488e-06
1.25488e-06
1.25488e-06
1.25488e-06
1.25488e-06
1.25488e-06
1.25954e-06
1.2615e-06
1.26088e-06
1.25839e-06
1.25488e-06
1.25488e-06
1.25488e-06
1.25488e-06
1.25938e-06
1.25944e-06
1.2614e-06
1.26111e-06
1.25924e-06