/*--------------------------------*- C++ -*----------------------------------*\
| =========                 |                                                 |
| \\      /  F ield         | OpenFOAM: The Open Source CFD Toolbox           |
|  \\    /   O peration     | Version:  v2012                                 |
|   \\  /    A nd           | Website:  www.openfoam.com                      |
|    \\/     M anipulation  |                                                 |
\*---------------------------------------------------------------------------*/
FoamFile
{
    version     2.0;
    format      ascii;
    class       volScalarField;
    location    "175";
    object      epsilon;
}
// * * * * * * * * * * * * * * * * * * * * * * * * * * * * * * * * * * * * * //

dimensions      [0 2 -3 0 0 0 0];


internalField   nonuniform List<scalar> 
171728
(
1.50143e-08
4.51422e-09
4.9855e-09
5.03609e-09
1.49248e-08
4.31872e-09
4.6855e-09
4.54321e-09
1.52108e-08
4.15439e-09
4.43865e-09
4.12624e-09
1.55136e-08
4.0277e-09
4.2418e-09
3.78789e-09
1.58361e-08
3.93908e-09
4.09417e-09
3.5159e-09
1.6182e-08
3.88672e-09
4.0001e-09
3.30058e-09
1.65406e-08
3.87897e-09
3.96465e-09
3.1348e-09
1.69195e-08
3.91934e-09
3.98118e-09
2.98884e-09
1.73169e-08
4.01516e-09
4.05044e-09
2.87896e-09
1.77275e-08
4.169e-09
4.18034e-09
2.80593e-09
1.81485e-08
4.38151e-09
4.36685e-09
2.76885e-09
1.8572e-08
4.65356e-09
4.61558e-09
2.76934e-09
1.89977e-08
4.98484e-09
4.93553e-09
2.82352e-09
1.94235e-08
5.39469e-09
5.3406e-09
2.94865e-09
1.98521e-08
5.91418e-09
5.8577e-09
3.19984e-09
2.02828e-08
6.58063e-09
6.52109e-09
3.63483e-09
2.0719e-08
7.47747e-09
7.3978e-09
4.34801e-09
2.11649e-08
8.67769e-09
8.56981e-09
5.47418e-09
2.16184e-08
1.03568e-08
1.01878e-08
7.34374e-09
2.20993e-08
1.27121e-08
1.24544e-08
1.04299e-08
2.26098e-08
1.60175e-08
1.56364e-08
1.56194e-08
2.31816e-08
2.05872e-08
2.01222e-08
2.44236e-08
2.38467e-08
2.68913e-08
2.62576e-08
3.82554e-08
2.46185e-08
3.53525e-08
3.45032e-08
6.01486e-08
2.55364e-08
4.63705e-08
4.5312e-08
9.1345e-08
2.66494e-08
6.04021e-08
5.90874e-08
1.34449e-07
2.80405e-08
7.75332e-08
7.63331e-08
1.87611e-07
2.97727e-08
9.7643e-08
9.70737e-08
2.51814e-07
3.19345e-08
1.21062e-07
1.21056e-07
3.27667e-07
3.46417e-08
1.4842e-07
1.48638e-07
4.04197e-07
3.80742e-08
1.80139e-07
1.81365e-07
4.81672e-07
4.23804e-08
2.15522e-07
2.17388e-07
5.5648e-07
4.76594e-08
2.53916e-07
2.56278e-07
6.22474e-07
5.40148e-08
2.93572e-07
2.97117e-07
6.78464e-07
6.20104e-08
3.34534e-07
3.38472e-07
7.25824e-07
7.19625e-08
3.74796e-07
3.77424e-07
7.6463e-07
8.44557e-08
4.11079e-07
4.12483e-07
7.87069e-07
1.00593e-07
4.5045e-07
4.51349e-07
8.03641e-07
1.22809e-07
5.02672e-07
5.03316e-07
8.30344e-07
1.53198e-07
5.67926e-07
5.68318e-07
8.73982e-07
1.89366e-07
6.32327e-07
6.32563e-07
9.2311e-07
2.26045e-07
6.85339e-07
6.85497e-07
9.67648e-07
2.55892e-07
7.20715e-07
7.20849e-07
1.00063e-06
2.73528e-07
7.37587e-07
7.37711e-07
1.01731e-06
2.81438e-07
7.44094e-07
7.44209e-07
1.02399e-06
2.84339e-07
7.46302e-07
7.46412e-07
1.02658e-06
2.85251e-07
7.46994e-07
7.47104e-07
1.02748e-06
2.85467e-07
7.47132e-07
7.47242e-07
1.02775e-06
2.85487e-07
7.47089e-07
7.47199e-07
1.02752e-06
2.85503e-07
7.4712e-07
7.47228e-07
1.0276e-06
2.85506e-07
7.47134e-07
7.47242e-07
1.02774e-06
2.855e-07
7.47102e-07
7.4721e-07
1.02752e-06
2.85503e-07
7.47127e-07
7.47235e-07
1.02775e-06
2.85503e-07
7.47113e-07
7.4722e-07
1.02754e-06
2.85505e-07
7.47116e-07
7.47224e-07
1.02767e-06
2.85506e-07
7.4712e-07
7.47228e-07
1.02767e-06
2.85506e-07
7.47119e-07
7.47225e-07
1.02757e-06
2.85506e-07
7.47114e-07
7.47221e-07
1.02762e-06
2.85507e-07
7.47121e-07
7.47228e-07
1.0277e-06
2.85507e-07
7.47124e-07
7.47229e-07
1.02768e-06
2.85508e-07
7.47116e-07
7.47225e-07
1.02761e-06
2.85508e-07
7.47123e-07
7.4723e-07
1.02759e-06
2.85508e-07
7.47121e-07
7.47229e-07
1.02761e-06
2.85508e-07
7.47119e-07
7.47225e-07
1.0277e-06
2.85509e-07
7.4712e-07
7.47224e-07
1.02759e-06
2.85508e-07
7.47126e-07
7.4723e-07
1.02769e-06
2.85509e-07
7.47118e-07
7.47225e-07
1.02769e-06
2.85509e-07
7.47117e-07
7.47223e-07
1.02758e-06
2.85508e-07
7.47126e-07
7.47227e-07
1.02766e-06
2.85508e-07
7.47118e-07
7.47226e-07
1.02774e-06
2.85507e-07
7.47115e-07
7.47225e-07
1.02765e-06
2.85506e-07
7.4712e-07
7.47224e-07
1.02756e-06
2.85505e-07
7.47119e-07
7.47225e-07
1.02753e-06
2.85504e-07
7.47118e-07
7.47223e-07
1.02756e-06
2.85504e-07
7.47113e-07
7.47219e-07
1.02761e-06
2.85503e-07
7.47113e-07
7.47219e-07
1.02765e-06
2.85503e-07
7.47113e-07
7.4722e-07
1.02764e-06
2.85502e-07
7.47113e-07
7.47219e-07
1.02761e-06
2.85502e-07
7.47114e-07
7.47218e-07
1.02762e-06
2.85501e-07
7.47111e-07
7.47216e-07
1.02762e-06
2.855e-07
7.47109e-07
7.47215e-07
1.02759e-06
2.855e-07
7.47109e-07
7.47217e-07
1.02758e-06
2.855e-07
7.47111e-07
7.47216e-07
1.0276e-06
2.855e-07
7.47115e-07
7.4722e-07
1.02762e-06
2.85499e-07
7.47117e-07
7.47224e-07
1.02761e-06
2.85499e-07
7.47121e-07
7.47225e-07
1.02759e-06
2.855e-07
7.47127e-07
7.47229e-07
1.02758e-06
2.855e-07
7.47134e-07
7.47239e-07
1.02758e-06
2.855e-07
7.47141e-07
7.47249e-07
1.02758e-06
2.85501e-07
7.47155e-07
7.47257e-07
1.02758e-06
2.85502e-07
7.47173e-07
7.47274e-07
1.02756e-06
2.85504e-07
7.47199e-07
7.47304e-07
1.02756e-06
2.85501e-07
7.47233e-07
7.47335e-07
1.02757e-06
2.85044e-07
7.46973e-07
7.47065e-07
1.02724e-06
2.70784e-07
6.97086e-07
6.97097e-07
9.82237e-07
5.36843e-09
4.48093e-09
3.81441e-09
4.86983e-09
4.22254e-09
4.15429e-09
1.54103e-08
1.53427e-08
1.54207e-08
1.54732e-08
4.14269e-09
3.90841e-09
5.21205e-09
4.35776e-09
4.5354e-09
5.0663e-09
5.34831e-09
4.91348e-09
5.12711e-09
5.21367e-09
4.8927e-09
4.46691e-09
4.84279e-09
4.46092e-09
4.11826e-09
4.02148e-09
3.95152e-09
3.87005e-09
4.66927e-09
4.36719e-09
4.39946e-09
5.19111e-09
4.7768e-09
5.19003e-09
4.75653e-09
4.94498e-09
4.60765e-09
4.88079e-09
4.4762e-09
4.81543e-09
4.30172e-09
4.60749e-09
3.98778e-09
4.43002e-09
4.09151e-09
3.89936e-09
3.82155e-09
3.76325e-09
3.693e-09
4.31337e-09
4.19293e-09
4.08526e-09
4.74631e-09
4.37306e-09
4.86967e-09
4.49563e-09
4.67601e-09
4.18995e-09
4.44618e-09
4.10296e-09
4.54694e-09
3.91901e-09
4.38288e-09
3.74948e-09
4.04514e-09
3.77494e-09
3.72354e-09
3.6561e-09
3.61972e-09
3.55962e-09
4.01958e-09
4.05686e-09
3.85542e-09
4.34594e-09
4.03166e-09
4.61692e-09
4.28628e-09
4.44752e-09
3.8416e-09
4.06245e-09
3.79102e-09
4.33255e-09
3.70198e-09
4.19371e-09
3.59843e-09
3.72734e-09
3.50385e-09
3.58965e-09
3.5332e-09
3.522e-09
3.46854e-09
3.8098e-09
3.95802e-09
3.7053e-09
3.9968e-09
3.74104e-09
4.39418e-09
4.12646e-09
4.24724e-09
3.55965e-09
3.74582e-09
3.52652e-09
4.15453e-09
3.57179e-09
4.05173e-09
3.51597e-09
3.46126e-09
3.28532e-09
3.50412e-09
3.45312e-09
3.47141e-09
3.42124e-09
3.67946e-09
3.89523e-09
3.62485e-09
3.70086e-09
3.49924e-09
4.20645e-09
4.0199e-09
4.11353e-09
3.33531e-09
3.50261e-09
3.3202e-09
4.02507e-09
3.50294e-09
3.97292e-09
3.4959e-09
3.25253e-09
3.09166e-09
3.46589e-09
3.41805e-09
3.46924e-09
3.42415e-09
3.61445e-09
3.8766e-09
3.60232e-09
3.47992e-09
3.30181e-09
4.09199e-09
3.96747e-09
4.05255e-09
3.15016e-09
3.30519e-09
3.15191e-09
3.96265e-09
3.49916e-09
3.9638e-09
3.53184e-09
3.07611e-09
2.93752e-09
3.47542e-09
3.43222e-09
3.51317e-09
3.47394e-09
3.60435e-09
3.90803e-09
3.62899e-09
3.28722e-09
3.14031e-09
4.04711e-09
3.97396e-09
4.05215e-09
3.00076e-09
3.13935e-09
3.01223e-09
3.96955e-09
3.54984e-09
4.01407e-09
3.62383e-09
2.92588e-09
2.83047e-09
3.53033e-09
3.49341e-09
3.60016e-09
3.57361e-09
3.64385e-09
3.99007e-09
3.70977e-09
3.1288e-09
3.01611e-09
4.05912e-09
4.03183e-09
4.10102e-09
2.88755e-09
3.00244e-09
2.90381e-09
4.03416e-09
3.6562e-09
4.1163e-09
3.7706e-09
2.82314e-09
2.76966e-09
3.62959e-09
3.60753e-09
3.73443e-09
3.72671e-09
3.73749e-09
4.1288e-09
3.83631e-09
3.0079e-09
2.92738e-09
4.12206e-09
4.14595e-09
4.2094e-09
2.81078e-09
2.8976e-09
2.83542e-09
4.14968e-09
3.81491e-09
4.27342e-09
3.96683e-09
2.76796e-09
2.75187e-09
3.77566e-09
3.77416e-09
3.91877e-09
3.93661e-09
3.87518e-09
4.32749e-09
4.01151e-09
2.92288e-09
2.87837e-09
4.24587e-09
4.31889e-09
4.37686e-09
2.7671e-09
2.83599e-09
2.81246e-09
4.32033e-09
4.02358e-09
4.48635e-09
4.213e-09
2.75731e-09
2.77065e-09
3.97267e-09
3.99868e-09
4.155e-09
4.20714e-09
4.06517e-09
4.58531e-09
4.24851e-09
2.88134e-09
2.87848e-09
4.42915e-09
4.55216e-09
4.61537e-09
2.75943e-09
2.82083e-09
2.83576e-09
4.54903e-09
4.28475e-09
4.768e-09
4.52335e-09
2.78286e-09
2.82706e-09
4.22409e-09
4.28452e-09
4.45171e-09
4.54103e-09
4.31919e-09
4.90182e-09
4.562e-09
2.89015e-09
2.93258e-09
4.68649e-09
4.85325e-09
4.93147e-09
2.80292e-09
2.85448e-09
2.92037e-09
4.84829e-09
4.61074e-09
5.13072e-09
4.91009e-09
2.84866e-09
2.93814e-09
4.53413e-09
4.63499e-09
4.81204e-09
4.951e-09
4.6528e-09
5.28899e-09
4.9621e-09
2.95533e-09
3.05513e-09
5.02416e-09
5.23595e-09
5.33776e-09
2.91049e-09
2.955e-09
3.08738e-09
5.23652e-09
5.02109e-09
5.59622e-09
5.39531e-09
2.97627e-09
3.14151e-09
4.91636e-09
5.07027e-09
5.2669e-09
5.4626e-09
5.07869e-09
5.77969e-09
5.46515e-09
3.09812e-09
3.28577e-09
5.45625e-09
5.72132e-09
5.85545e-09
3.12747e-09
3.14888e-09
3.39745e-09
5.73198e-09
5.53944e-09
6.20402e-09
6.022e-09
3.20932e-09
3.49062e-09
5.39897e-09
5.60924e-09
5.85904e-09
6.11013e-09
5.61113e-09
6.4042e-09
6.10877e-09
3.35989e-09
3.67661e-09
6.00474e-09
6.34301e-09
6.51414e-09
3.51215e-09
3.50794e-09
3.94537e-09
6.38563e-09
6.20603e-09
7.02104e-09
6.84643e-09
3.60758e-09
4.08306e-09
6.03514e-09
6.3e-09
6.65255e-09
6.95508e-09
6.29668e-09
7.23251e-09
6.94993e-09
3.80349e-09
4.31542e-09
6.70911e-09
7.16101e-09
7.38759e-09
4.14506e-09
4.1346e-09
4.87448e-09
7.26524e-09
7.09379e-09
8.12531e-09
7.95666e-09
4.28232e-09
5.0582e-09
6.89068e-09
7.20682e-09
7.73673e-09
8.07866e-09
7.2027e-09
8.34668e-09
8.07028e-09
4.52131e-09
5.3389e-09
7.64676e-09
8.24855e-09
8.5455e-09
5.14491e-09
5.19136e-09
6.4413e-09
8.4609e-09
8.29097e-09
9.65484e-09
9.4672e-09
5.3807e-09
6.67243e-09
8.06882e-09
8.418e-09
9.23513e-09
9.61612e-09
8.41225e-09
9.89099e-09
9.6147e-09
5.67445e-09
7.00803e-09
8.89511e-09
9.74116e-09
1.0144e-08
6.80323e-09
6.96823e-09
9.10426e-09
1.01183e-08
9.93144e-09
1.17914e-08
1.15856e-08
7.20883e-09
9.40011e-09
9.6946e-09
1.00855e-08
1.13435e-08
1.17452e-08
1.0083e-08
1.2055e-08
1.17574e-08
7.56173e-09
9.77409e-09
1.06291e-08
1.18168e-08
1.23316e-08
9.53988e-09
9.97466e-09
1.36613e-08
1.24532e-08
1.22377e-08
1.47971e-08
1.45574e-08
1.02789e-08
1.40004e-08
1.19912e-08
1.24076e-08
1.43069e-08
1.47441e-08
1.24233e-08
1.50918e-08
1.47592e-08
1.06703e-08
1.4451e-08
1.3006e-08
1.47528e-08
1.54157e-08
1.41977e-08
1.50892e-08
2.13857e-08
1.57167e-08
1.54729e-08
1.90125e-08
1.87182e-08
1.54515e-08
2.18423e-08
1.5222e-08
1.56545e-08
1.84691e-08
1.89166e-08
1.56811e-08
1.9325e-08
1.89938e-08
1.58623e-08
2.21753e-08
1.63567e-08
1.8868e-08
1.97355e-08
2.21167e-08
2.3642e-08
3.40282e-08
2.0288e-08
1.99878e-08
2.4793e-08
2.44742e-08
2.4103e-08
3.45726e-08
1.97354e-08
2.02018e-08
2.42261e-08
2.47223e-08
2.02725e-08
2.51423e-08
2.47858e-08
2.44867e-08
3.48075e-08
2.10494e-08
2.45508e-08
2.56836e-08
3.47265e-08
3.75503e-08
5.37398e-08
2.65461e-08
2.62014e-08
3.26341e-08
3.22148e-08
3.80977e-08
5.43244e-08
2.59688e-08
2.64537e-08
3.20075e-08
3.24806e-08
2.65496e-08
3.30171e-08
3.26914e-08
3.82488e-08
5.42381e-08
2.75022e-08
3.22357e-08
3.38135e-08
5.49615e-08
5.88861e-08
8.2907e-08
3.49727e-08
3.45339e-08
4.30729e-08
4.24988e-08
5.95053e-08
8.36426e-08
3.43337e-08
3.47923e-08
4.23604e-08
4.28241e-08
3.50202e-08
4.33676e-08
4.30498e-08
5.93091e-08
8.27989e-08
3.62282e-08
4.23661e-08
4.47722e-08
8.39639e-08
9.01117e-08
1.23243e-07
4.61242e-08
4.54905e-08
5.62989e-08
5.55949e-08
9.0815e-08
1.23759e-07
4.53921e-08
4.58276e-08
5.55351e-08
5.58897e-08
4.60815e-08
5.65972e-08
5.60967e-08
8.98631e-08
1.22144e-07
4.8047e-08
5.53318e-08
5.88456e-08
1.25216e-07
1.32667e-07
1.76513e-07
6.01323e-08
5.93827e-08
7.3093e-08
7.19817e-08
1.33245e-07
1.76636e-07
5.93258e-08
5.96813e-08
7.21102e-08
7.21397e-08
5.97959e-08
7.29981e-08
7.21683e-08
1.31464e-07
1.7401e-07
6.27999e-08
7.16969e-08
7.56667e-08
1.76106e-07
1.88521e-07
2.40598e-07
7.77648e-08
7.65435e-08
9.28148e-08
9.14625e-08
1.88318e-07
2.39842e-07
7.6785e-08
7.67026e-08
9.1843e-08
9.20832e-08
7.67832e-08
9.23372e-08
9.22794e-08
1.85684e-07
2.38484e-07
8.01766e-08
9.15723e-08
9.43727e-08
2.38232e-07
2.54255e-07
3.13894e-07
9.83413e-08
9.68877e-08
1.16402e-07
1.14577e-07
2.53551e-07
3.11735e-07
9.73044e-08
9.76524e-08
1.15073e-07
1.15018e-07
9.79866e-08
1.14865e-07
1.16609e-07
2.52423e-07
3.11323e-07
9.94908e-08
1.14814e-07
1.16051e-07
3.12261e-07
3.2928e-07
3.91314e-07
1.2276e-07
1.20936e-07
1.42614e-07
1.415e-07
3.2675e-07
3.89259e-07
1.2139e-07
1.21144e-07
1.41645e-07
1.41461e-07
1.23228e-07
1.412e-07
1.43833e-07
3.26167e-07
3.86794e-07
1.21936e-07
1.41263e-07
1.41302e-07
3.88702e-07
4.06948e-07
4.68052e-07
1.49577e-07
1.48855e-07
1.72114e-07
1.7257e-07
4.05243e-07
4.67614e-07
1.4895e-07
1.4895e-07
1.72609e-07
1.7296e-07
1.50898e-07
1.71825e-07
1.73211e-07
4.02713e-07
4.67525e-07
1.48421e-07
1.72796e-07
1.71747e-07
4.65648e-07
4.84042e-07
5.43405e-07
1.80277e-07
1.81011e-07
2.06424e-07
2.07756e-07
4.83741e-07
5.43726e-07
1.81056e-07
1.81331e-07
2.07552e-07
2.07398e-07
1.81202e-07
2.06399e-07
2.06702e-07
4.84104e-07
5.44249e-07
1.80212e-07
2.08149e-07
2.07126e-07
5.41129e-07
5.58806e-07
6.10755e-07
2.15585e-07
2.17028e-07
2.4421e-07
2.45813e-07
5.59266e-07
6.11507e-07
2.16679e-07
2.16467e-07
2.44936e-07
2.45014e-07
2.15617e-07
2.44115e-07
2.4362e-07
5.59561e-07
6.11581e-07
2.16403e-07
2.46293e-07
2.44951e-07
6.0849e-07
6.24667e-07
6.67413e-07
2.54042e-07
2.55666e-07
2.83919e-07
2.85529e-07
6.25421e-07
6.67954e-07
2.54674e-07
2.54924e-07
2.84458e-07
2.85077e-07
2.53294e-07
2.83606e-07
2.82789e-07
6.25657e-07
6.69609e-07
2.5468e-07
2.86832e-07
2.84164e-07
6.66153e-07
6.79501e-07
7.14314e-07
2.93987e-07
2.95572e-07
3.2466e-07
3.26066e-07
6.8002e-07
7.14852e-07
2.94522e-07
2.95155e-07
3.25037e-07
3.25533e-07
2.92798e-07
3.24146e-07
3.23622e-07
6.81784e-07
7.15665e-07
2.94126e-07
3.28177e-07
3.2472e-07
7.14629e-07
7.25255e-07
7.54772e-07
3.35029e-07
3.36304e-07
3.65469e-07
3.66282e-07
7.25808e-07
7.55209e-07
3.35327e-07
3.3573e-07
3.65695e-07
3.65768e-07
3.34106e-07
3.65174e-07
3.64901e-07
7.26206e-07
7.5439e-07
3.35109e-07
3.68179e-07
3.65604e-07
7.55683e-07
7.63766e-07
7.80661e-07
3.75029e-07
3.75734e-07
4.02166e-07
4.02699e-07
7.64156e-07
7.80864e-07
3.75316e-07
3.75289e-07
4.02581e-07
4.02459e-07
3.7458e-07
4.02123e-07
4.02059e-07
7.63205e-07
7.80135e-07
3.7519e-07
4.03759e-07
4.02372e-07
7.81233e-07
7.86542e-07
7.97286e-07
4.11105e-07
4.11615e-07
4.39793e-07
4.4023e-07
7.86738e-07
7.97401e-07
4.11521e-07
4.11419e-07
4.40054e-07
4.40103e-07
4.11086e-07
4.39743e-07
4.39895e-07
7.86089e-07
7.97184e-07
4.11305e-07
4.40716e-07
4.39897e-07
7.97652e-07
8.03317e-07
8.21667e-07
4.50556e-07
4.50945e-07
4.88354e-07
4.88545e-07
8.0341e-07
8.21592e-07
4.5075e-07
4.50853e-07
4.88342e-07
4.88619e-07
4.5065e-07
4.88119e-07
4.88375e-07
8.03256e-07
8.21776e-07
4.50612e-07
4.88825e-07
4.88261e-07
8.21796e-07
8.3026e-07
8.63099e-07
5.02945e-07
5.03075e-07
5.51316e-07
5.51354e-07
8.30153e-07
8.62923e-07
5.02893e-07
5.03201e-07
5.51185e-07
5.51542e-07
5.02947e-07
5.51032e-07
5.51326e-07
8.30382e-07
8.63271e-07
5.02823e-07
5.51477e-07
5.51171e-07
8.63138e-07
8.73952e-07
9.12378e-07
5.68213e-07
5.68242e-07
6.17337e-07
6.1737e-07
8.73785e-07
9.12241e-07
5.68078e-07
5.68423e-07
6.1719e-07
6.17508e-07
5.68233e-07
6.1709e-07
6.17403e-07
8.7411e-07
9.12514e-07
5.6808e-07
6.17354e-07
6.17243e-07
9.1244e-07
9.23049e-07
9.58084e-07
6.32562e-07
6.32593e-07
6.7365e-07
6.73686e-07
9.22929e-07
9.57973e-07
6.32428e-07
6.32722e-07
6.73523e-07
6.73782e-07
6.32638e-07
6.73449e-07
6.73735e-07
9.23175e-07
9.5817e-07
6.32479e-07
6.73619e-07
6.73592e-07
9.58154e-07
9.67581e-07
9.93698e-07
6.8553e-07
6.85567e-07
7.13991e-07
7.14035e-07
9.67478e-07
9.93602e-07
6.85413e-07
6.85655e-07
7.13881e-07
7.14102e-07
6.85616e-07
7.13815e-07
7.14083e-07
9.67658e-07
9.93756e-07
6.85479e-07
7.1395e-07
7.13956e-07
9.93777e-07
1.00055e-06
1.01318e-06
7.20885e-07
7.20929e-07
7.34832e-07
7.3488e-07
1.00046e-06
1.01309e-06
7.20782e-07
7.20992e-07
7.34734e-07
7.34932e-07
7.20977e-07
7.34668e-07
7.34927e-07
1.0006e-06
1.01323e-06
7.20852e-07
7.34794e-07
7.34806e-07
1.01326e-06
1.01723e-06
1.02111e-06
7.37743e-07
7.3779e-07
7.43186e-07
7.43233e-07
1.01714e-06
1.02103e-06
7.3765e-07
7.37841e-07
7.43092e-07
7.43283e-07
7.37837e-07
7.43033e-07
7.43279e-07
1.01727e-06
1.02116e-06
7.37718e-07
7.4315e-07
7.43163e-07
1.0212e-06
1.0239e-06
1.02421e-06
7.4424e-07
7.44286e-07
7.46103e-07
7.46149e-07
1.02382e-06
1.02413e-06
7.44149e-07
7.44336e-07
7.4601e-07
7.46199e-07
7.44332e-07
7.45957e-07
7.46194e-07
1.02395e-06
1.02426e-06
7.44217e-07
7.46068e-07
7.46082e-07
1.0243e-06
1.02649e-06
1.02524e-06
7.46444e-07
7.4649e-07
7.47036e-07
7.47081e-07
1.02642e-06
1.02516e-06
7.46353e-07
7.46539e-07
7.46942e-07
7.47128e-07
7.46535e-07
7.46889e-07
7.47125e-07
1.02654e-06
1.02529e-06
7.46423e-07
7.46999e-07
7.47015e-07
1.02532e-06
1.0274e-06
1.02556e-06
7.47138e-07
7.47183e-07
7.47276e-07
7.4732e-07
1.02732e-06
1.02548e-06
7.47045e-07
7.47229e-07
7.4718e-07
7.47366e-07
7.47226e-07
7.47127e-07
7.47362e-07
1.02744e-06
1.0256e-06
7.47117e-07
7.47237e-07
7.47253e-07
1.02564e-06
1.02767e-06
1.0254e-06
7.47279e-07
7.47322e-07
7.47247e-07
7.47289e-07
1.02759e-06
1.02531e-06
7.47183e-07
7.47368e-07
7.47148e-07
7.47335e-07
7.47365e-07
7.47097e-07
7.47333e-07
1.02771e-06
1.02544e-06
7.47256e-07
7.47207e-07
7.47223e-07
1.02548e-06
1.02743e-06
1.02542e-06
7.47237e-07
7.47279e-07
7.4725e-07
7.47291e-07
1.02735e-06
1.02534e-06
7.47139e-07
7.47326e-07
7.47149e-07
7.47337e-07
7.47324e-07
7.47099e-07
7.47335e-07
1.02747e-06
1.02546e-06
7.47213e-07
7.47208e-07
7.47225e-07
1.0255e-06
1.02752e-06
1.02561e-06
7.47268e-07
7.47308e-07
7.47296e-07
7.47336e-07
1.02744e-06
1.02553e-06
7.47166e-07
7.47353e-07
7.47194e-07
7.47381e-07
7.47352e-07
7.47144e-07
7.47378e-07
1.02756e-06
1.02565e-06
7.47241e-07
7.47251e-07
7.47268e-07
1.02569e-06
1.02766e-06
1.02537e-06
7.47285e-07
7.47324e-07
7.47255e-07
7.47292e-07
1.02758e-06
1.02527e-06
7.47183e-07
7.47368e-07
7.4715e-07
7.47337e-07
7.47365e-07
7.471e-07
7.47336e-07
1.0277e-06
1.0254e-06
7.47256e-07
7.47208e-07
7.47225e-07
1.02544e-06
1.02743e-06
1.0256e-06
7.47254e-07
7.4729e-07
7.47284e-07
7.47321e-07
1.02735e-06
1.02552e-06
7.47149e-07
7.47336e-07
7.4718e-07
7.47367e-07
7.47335e-07
7.47129e-07
7.47364e-07
1.02747e-06
1.02565e-06
7.47224e-07
7.47238e-07
7.47256e-07
1.02569e-06
1.02767e-06
1.02538e-06
7.4728e-07
7.47316e-07
7.47263e-07
7.47299e-07
1.02759e-06
1.0253e-06
7.47176e-07
7.47362e-07
7.47157e-07
7.47345e-07
7.47359e-07
7.47109e-07
7.47344e-07
1.0277e-06
1.02543e-06
7.47249e-07
7.47217e-07
7.47233e-07
1.02547e-06
1.02744e-06
1.02558e-06
7.47263e-07
7.47299e-07
7.4727e-07
7.47307e-07
1.02738e-06
1.02548e-06
7.47157e-07
7.47345e-07
7.47163e-07
7.47352e-07
7.47344e-07
7.47115e-07
7.4735e-07
1.0275e-06
1.0256e-06
7.47233e-07
7.47223e-07
7.47238e-07
1.02564e-06
1.0276e-06
1.02547e-06
7.47268e-07
7.47305e-07
7.47276e-07
7.47311e-07
1.0275e-06
1.0254e-06
7.47162e-07
7.4735e-07
7.47163e-07
7.47356e-07
7.47349e-07
7.47121e-07
7.47355e-07
1.02762e-06
1.02553e-06
7.47237e-07
7.47229e-07
7.47243e-07
1.02557e-06
1.02757e-06
1.02544e-06
7.47274e-07
7.47309e-07
7.47272e-07
7.47304e-07
1.0275e-06
1.02536e-06
7.47162e-07
7.47353e-07
7.47164e-07
7.47352e-07
7.47353e-07
7.47116e-07
7.4735e-07
1.02762e-06
1.02547e-06
7.47239e-07
7.47221e-07
7.47236e-07
1.02551e-06
1.02748e-06
1.02554e-06
7.47272e-07
7.47304e-07
7.47277e-07
7.47309e-07
1.02742e-06
1.02543e-06
7.47164e-07
7.47352e-07
7.47165e-07
7.47353e-07
7.4735e-07
7.47116e-07
7.47351e-07
1.02753e-06
1.02555e-06
7.47236e-07
7.47224e-07
7.47239e-07
1.02559e-06
1.02757e-06
1.02555e-06
7.47272e-07
7.47304e-07
7.47279e-07
7.47312e-07
1.02746e-06
1.02547e-06
7.47162e-07
7.47349e-07
7.47166e-07
7.47357e-07
7.47346e-07
7.47123e-07
7.47358e-07
1.02757e-06
1.02559e-06
7.47234e-07
7.47229e-07
7.47244e-07
1.02564e-06
1.02763e-06
1.02546e-06
7.47277e-07
7.47309e-07
7.47275e-07
7.4731e-07
1.02752e-06
1.02544e-06
7.47165e-07
7.47354e-07
7.47164e-07
7.47356e-07
7.47353e-07
7.47117e-07
7.47351e-07
1.02763e-06
1.02556e-06
7.4724e-07
7.47223e-07
7.47237e-07
1.02558e-06
1.02755e-06
1.02544e-06
7.47275e-07
7.4731e-07
7.47277e-07
7.47309e-07
1.02753e-06
1.02537e-06
7.47164e-07
7.47354e-07
7.47165e-07
7.47356e-07
7.47354e-07
7.47115e-07
7.47349e-07
1.02764e-06
1.02552e-06
7.47239e-07
7.47224e-07
7.47236e-07
1.02552e-06
1.02749e-06
1.0255e-06
7.47277e-07
7.47309e-07
7.47277e-07
7.47308e-07
1.02746e-06
1.02537e-06
7.47165e-07
7.47355e-07
7.47164e-07
7.47353e-07
7.47348e-07
7.47122e-07
7.47354e-07
1.0276e-06
1.02552e-06
7.47235e-07
7.47229e-07
7.4724e-07
1.02553e-06
1.02752e-06
1.02555e-06
7.47277e-07
7.47308e-07
7.4728e-07
7.47311e-07
1.02742e-06
1.02543e-06
7.47164e-07
7.47353e-07
7.47164e-07
7.47353e-07
7.47352e-07
7.47118e-07
7.47352e-07
1.02759e-06
1.02552e-06
7.47239e-07
7.47226e-07
7.47239e-07
1.02558e-06
1.02758e-06
1.02554e-06
7.47278e-07
7.47309e-07
7.47281e-07
7.4731e-07
1.02747e-06
1.02539e-06
7.47162e-07
7.47352e-07
7.47167e-07
7.47355e-07
7.47351e-07
7.47118e-07
7.47354e-07
1.0276e-06
1.02548e-06
7.47236e-07
7.47224e-07
7.47239e-07
1.02562e-06
1.02761e-06
1.02549e-06
7.47279e-07
7.47307e-07
7.47281e-07
7.47314e-07
1.02744e-06
1.02544e-06
7.47164e-07
7.47353e-07
7.47165e-07
7.47356e-07
7.47354e-07
7.47124e-07
7.47354e-07
1.02756e-06
1.02552e-06
7.47239e-07
7.47227e-07
7.47238e-07
1.02553e-06
1.02757e-06
1.02554e-06
7.4728e-07
7.47307e-07
7.47283e-07
7.47309e-07
1.02746e-06
1.02542e-06
7.47165e-07
7.47354e-07
7.47166e-07
7.47355e-07
7.47351e-07
7.4712e-07
7.47358e-07
1.02755e-06
1.02558e-06
7.47235e-07
7.47227e-07
7.47243e-07
1.02565e-06
1.02761e-06
1.02545e-06
7.47281e-07
7.47313e-07
7.47274e-07
7.47305e-07
1.02752e-06
1.02537e-06
7.47167e-07
7.47355e-07
7.4716e-07
7.47352e-07
7.47355e-07
7.47115e-07
7.47351e-07
1.02763e-06
1.02551e-06
7.4724e-07
7.47222e-07
7.47237e-07
1.02559e-06
1.02754e-06
1.02554e-06
7.47277e-07
7.47304e-07
7.47282e-07
7.4731e-07
1.02741e-06
1.02548e-06
7.47163e-07
7.47352e-07
7.47167e-07
7.47353e-07
7.47354e-07
7.47122e-07
7.47349e-07
1.02757e-06
1.02555e-06
7.4724e-07
7.47222e-07
7.47234e-07
1.02551e-06
1.02756e-06
1.02556e-06
7.47276e-07
7.47309e-07
7.4728e-07
7.47309e-07
1.02753e-06
1.02541e-06
7.47162e-07
7.47351e-07
7.47166e-07
7.47354e-07
7.47347e-07
7.47121e-07
7.47359e-07
1.02758e-06
1.02557e-06
7.47233e-07
7.47225e-07
7.47243e-07
1.02563e-06
1.02766e-06
1.02541e-06
7.4728e-07
7.47309e-07
7.4728e-07
7.47309e-07
1.02752e-06
1.02532e-06
7.47166e-07
7.47354e-07
7.47165e-07
7.47353e-07
7.47354e-07
7.47113e-07
7.4735e-07
1.02763e-06
1.02551e-06
7.47236e-07
7.47223e-07
7.4724e-07
1.02563e-06
1.02752e-06
1.02542e-06
7.4728e-07
7.47309e-07
7.47279e-07
7.47308e-07
1.02741e-06
1.02537e-06
7.47165e-07
7.47353e-07
7.47165e-07
7.47355e-07
7.47352e-07
7.47115e-07
7.47351e-07
1.02756e-06
1.02552e-06
7.47241e-07
7.47222e-07
7.47236e-07
1.02552e-06
1.02746e-06
1.02551e-06
7.47279e-07
7.47308e-07
7.47282e-07
7.47311e-07
1.0274e-06
1.02546e-06
7.47165e-07
7.47355e-07
7.47162e-07
7.47354e-07
7.47351e-07
7.47118e-07
7.47352e-07
1.02755e-06
1.02558e-06
7.47239e-07
7.4722e-07
7.47234e-07
1.02546e-06
1.02751e-06
1.02559e-06
7.47282e-07
7.47312e-07
7.47279e-07
7.47309e-07
1.02747e-06
1.02548e-06
7.47162e-07
7.47354e-07
7.47163e-07
7.47353e-07
7.47352e-07
7.47114e-07
7.4735e-07
1.0276e-06
1.0256e-06
7.47237e-07
7.4722e-07
7.47234e-07
1.02549e-06
1.02761e-06
1.02557e-06
7.47282e-07
7.47309e-07
7.47279e-07
7.47308e-07
1.02753e-06
1.02546e-06
7.47161e-07
7.47353e-07
7.47165e-07
7.47353e-07
7.47352e-07
7.47111e-07
7.47349e-07
1.02765e-06
1.02553e-06
7.4723e-07
7.47216e-07
7.47238e-07
1.02555e-06
1.02765e-06
1.02548e-06
7.47279e-07
7.47308e-07
7.47279e-07
7.47306e-07
1.02756e-06
1.02536e-06
7.47167e-07
7.47355e-07
7.47158e-07
7.4735e-07
7.47348e-07
7.47108e-07
7.4735e-07
1.02761e-06
1.02551e-06
7.4724e-07
7.47215e-07
7.47232e-07
1.02561e-06
1.02758e-06
1.02548e-06
7.47282e-07
7.47308e-07
7.47275e-07
7.47303e-07
1.02746e-06
1.02539e-06
7.47164e-07
7.47353e-07
7.47158e-07
7.47349e-07
7.4735e-07
7.47109e-07
7.47348e-07
1.02756e-06
1.02558e-06
7.47234e-07
7.47216e-07
7.47232e-07
1.02563e-06
1.02756e-06
1.02546e-06
7.47279e-07
7.47305e-07
7.47273e-07
7.47302e-07
1.02744e-06
1.02545e-06
7.4716e-07
7.47349e-07
7.47157e-07
7.47347e-07
7.47351e-07
7.47106e-07
7.47344e-07
1.0276e-06
1.02562e-06
7.47234e-07
7.47213e-07
7.47231e-07
1.02559e-06
1.02755e-06
1.02545e-06
7.47275e-07
7.47304e-07
7.47273e-07
7.47301e-07
1.02751e-06
1.02543e-06
7.4716e-07
7.4735e-07
7.47155e-07
7.47342e-07
7.47348e-07
7.47105e-07
7.47344e-07
1.02769e-06
1.02551e-06
7.47234e-07
7.47208e-07
7.47229e-07
1.02558e-06
1.0275e-06
1.02554e-06
7.47274e-07
7.47305e-07
7.47272e-07
7.47298e-07
1.02752e-06
1.02539e-06
7.47157e-07
7.47346e-07
7.47155e-07
7.47342e-07
7.47347e-07
7.47103e-07
7.47343e-07
1.02762e-06
1.02549e-06
7.47233e-07
7.47206e-07
7.47226e-07
1.02559e-06
1.02757e-06
1.02555e-06
7.47276e-07
7.47304e-07
7.47267e-07
7.47293e-07
1.02749e-06
1.02536e-06
7.4716e-07
7.47346e-07
7.47149e-07
7.47339e-07
7.47349e-07
7.47096e-07
7.47337e-07
1.02757e-06
1.0255e-06
7.47232e-07
7.47202e-07
7.47221e-07
1.02558e-06
1.02764e-06
1.02545e-06
7.47276e-07
7.47302e-07
7.47259e-07
7.47289e-07
1.02746e-06
1.02536e-06
7.47158e-07
7.47347e-07
7.47142e-07
7.47333e-07
7.47347e-07
7.47093e-07
7.47332e-07
1.02757e-06
1.02551e-06
7.4723e-07
7.472e-07
7.47216e-07
1.02556e-06
1.02755e-06
1.02545e-06
7.47271e-07
7.473e-07
7.47257e-07
7.47286e-07
1.02744e-06
1.02537e-06
7.47153e-07
7.47344e-07
7.4714e-07
7.47332e-07
7.47342e-07
7.47091e-07
7.4733e-07
1.02757e-06
1.02552e-06
7.47226e-07
7.47198e-07
7.47213e-07
1.02558e-06
1.02752e-06
1.0255e-06
7.47269e-07
7.47299e-07
7.47255e-07
7.47283e-07
1.02744e-06
1.02539e-06
7.47152e-07
7.47344e-07
7.47137e-07
7.47329e-07
7.47341e-07
7.4709e-07
7.47327e-07
1.02759e-06
1.02551e-06
7.47225e-07
7.47193e-07
7.4721e-07
1.02562e-06
1.02755e-06
1.0255e-06
7.47271e-07
7.473e-07
7.47251e-07
7.47279e-07
1.02746e-06
1.02538e-06
7.47154e-07
7.47346e-07
7.47134e-07
7.47325e-07
7.47343e-07
7.47086e-07
7.47324e-07
1.02757e-06
1.02553e-06
7.47226e-07
7.47193e-07
7.47207e-07
1.02563e-06
1.02756e-06
1.0255e-06
7.47274e-07
7.47301e-07
7.47246e-07
7.47275e-07
1.02745e-06
1.02539e-06
7.47158e-07
7.47348e-07
7.47129e-07
7.47321e-07
7.47347e-07
7.47081e-07
7.47317e-07
1.02758e-06
1.02556e-06
7.47229e-07
7.47186e-07
7.47201e-07
1.02561e-06
1.02755e-06
1.02552e-06
7.47276e-07
7.47304e-07
7.47242e-07
7.47271e-07
1.02745e-06
1.02541e-06
7.4716e-07
7.47351e-07
7.47125e-07
7.47316e-07
7.47348e-07
7.47077e-07
7.47313e-07
1.02762e-06
1.02553e-06
7.47232e-07
7.4718e-07
7.47194e-07
1.02558e-06
1.02756e-06
1.02553e-06
7.4728e-07
7.47309e-07
7.47236e-07
7.47264e-07
1.02747e-06
1.02541e-06
7.47164e-07
7.47354e-07
7.47119e-07
7.4731e-07
7.47351e-07
7.47072e-07
7.47308e-07
1.0276e-06
1.02553e-06
7.47234e-07
7.47176e-07
7.47189e-07
1.02557e-06
1.02758e-06
1.02551e-06
7.47285e-07
7.47313e-07
7.47229e-07
7.47257e-07
1.02748e-06
1.02541e-06
7.4717e-07
7.47359e-07
7.47112e-07
7.47303e-07
7.47356e-07
7.47066e-07
7.47301e-07
1.02758e-06
1.02556e-06
7.47237e-07
7.47172e-07
7.47184e-07
1.02558e-06
1.02759e-06
1.02549e-06
7.47291e-07
7.47319e-07
7.47222e-07
7.4725e-07
1.02748e-06
1.0254e-06
7.47174e-07
7.47365e-07
7.47106e-07
7.47297e-07
7.47364e-07
7.47057e-07
7.47292e-07
1.0276e-06
1.02558e-06
7.47246e-07
7.47161e-07
7.47173e-07
1.02557e-06
1.02759e-06
1.02547e-06
7.47301e-07
7.47328e-07
7.47212e-07
7.47241e-07
1.02747e-06
1.02541e-06
7.47184e-07
7.47375e-07
7.47097e-07
7.47285e-07
7.47371e-07
7.4705e-07
7.47285e-07
1.02767e-06
1.02547e-06
7.47253e-07
7.47149e-07
7.47164e-07
1.02555e-06
1.02757e-06
1.02548e-06
7.47313e-07
7.4734e-07
7.47201e-07
7.4723e-07
1.02748e-06
1.02541e-06
7.47198e-07
7.47388e-07
7.47084e-07
7.47274e-07
7.47386e-07
7.47037e-07
7.47271e-07
1.02758e-06
1.02549e-06
7.47264e-07
7.47141e-07
7.47154e-07
1.02554e-06
1.02757e-06
1.02547e-06
7.47331e-07
7.47358e-07
7.47189e-07
7.47218e-07
1.02749e-06
1.02539e-06
7.47215e-07
7.47404e-07
7.47074e-07
7.47265e-07
7.47402e-07
7.47027e-07
7.47262e-07
1.02756e-06
1.0255e-06
7.47281e-07
7.47131e-07
7.47143e-07
1.02556e-06
1.02756e-06
1.02546e-06
7.47357e-07
7.47386e-07
7.47181e-07
7.47207e-07
1.02748e-06
1.02537e-06
7.47239e-07
7.47431e-07
7.47068e-07
7.47259e-07
7.47427e-07
7.47018e-07
7.47252e-07
1.02759e-06
1.02549e-06
7.4731e-07
7.47121e-07
7.47129e-07
1.02559e-06
1.02752e-06
1.02526e-06
7.47391e-07
7.47416e-07
7.46794e-07
7.46818e-07
1.02746e-06
1.02516e-06
7.47274e-07
7.47465e-07
7.46675e-07
7.46863e-07
7.47459e-07
7.46634e-07
7.46863e-07
1.02755e-06
1.0253e-06
7.47337e-07
7.46724e-07
7.46732e-07
1.02535e-06
1.02719e-06
1.00534e-06
7.47133e-07
7.47156e-07
7.25536e-07
7.25557e-07
1.02711e-06
1.00529e-06
7.47013e-07
7.47209e-07
7.25487e-07
7.25524e-07
7.47206e-07
7.25497e-07
7.25575e-07
1.02722e-06
1.00536e-06
7.47069e-07
7.25517e-07
7.25522e-07
1.00537e-06
9.82194e-07
6.97088e-07
6.97107e-07
9.82169e-07
6.97062e-07
6.97074e-07
2.70789e-07
2.70773e-07
2.70798e-07
6.97126e-07
9.82209e-07
6.97097e-07
3.99198e-08
6.29427e-09
2.65461e-08
2.64667e-08
1.43257e-09
4.20833e-09
4.8077e-09
1.54458e-08
1.58417e-09
4.39925e-09
1.5369e-08
1.02736e-08
5.23696e-09
3.57265e-09
7.82732e-09
7.20201e-09
1.64345e-07
5.77944e-09
2.58582e-07
2.6039e-06
3.57871e-06
7.3976e-09
2.3446e-07
5.73396e-09
3.46639e-07
1.49595e-08
1.50209e-08
1.50887e-08
1.48644e-08
1.48202e-08
1.48692e-08
1.49532e-08
1.36491e-09
7.56302e-08
7.03842e-09
4.46855e-09
1.39758e-09
5.47941e-08
6.97491e-09
1.55169e-06
3.04587e-06
1.44458e-09
6.91286e-09
1.19167e-07
4.91061e-09
1.52081e-09
6.84156e-09
7.43614e-08
2.15788e-07
2.19844e-07
4.84157e-09
1.84539e-07
1.88489e-07
1.57047e-08
4.76205e-07
1.19696e-08
6.66015e-07
6.76466e-06
9.80436e-06
1.58802e-08
5.29291e-07
1.15628e-08
6.80006e-07
1.48877e-08
1.49331e-08
1.50204e-08
1.51404e-08
1.51155e-08
1.51504e-08
1.5243e-08