/*--------------------------------*- C++ -*----------------------------------*\
| =========                 |                                                 |
| \\      /  F ield         | OpenFOAM: The Open Source CFD Toolbox           |
|  \\    /   O peration     | Version:  v2012                                 |
|   \\  /    A nd           | Website:  www.openfoam.com                      |
|    \\/     M anipulation  |                                                 |
\*---------------------------------------------------------------------------*/
FoamFile
{
    version     2.0;
    format      ascii;
    class       volScalarField;
    location    "175";
    object      k;
}
// * * * * * * * * * * * * * * * * * * * * * * * * * * * * * * * * * * * * * //

dimensions      [0 2 -2 0 0 0 0];


internalField   nonuniform List<scalar> 
171728
(
1.91518e-06
3.34654e-07
3.89518e-07
3.65239e-07
1.91135e-06
3.33091e-07
3.81967e-07
3.50175e-07
1.95622e-06
3.3532e-07
3.7905e-07
3.32614e-07
2.00231e-06
3.39173e-07
3.78842e-07
3.13925e-07
2.05092e-06
3.44638e-07
3.80945e-07
2.99785e-07
2.10313e-06
3.5205e-07
3.86807e-07
2.9065e-07
2.1574e-06
3.63296e-07
3.95069e-07
2.83639e-07
2.21292e-06
3.783e-07
4.06918e-07
2.77506e-07
2.26845e-06
3.95076e-07
4.21795e-07
2.73678e-07
2.32386e-06
4.1597e-07
4.40671e-07
2.70613e-07
2.37781e-06
4.39372e-07
4.63419e-07
2.68898e-07
2.43145e-06
4.68622e-07
4.89296e-07
2.68476e-07
2.48375e-06
5.03619e-07
5.19622e-07
2.67521e-07
2.53463e-06
5.42032e-07
5.55384e-07
2.68549e-07
2.58467e-06
5.83841e-07
5.95532e-07
2.75266e-07
2.63461e-06
6.31218e-07
6.44505e-07
2.88718e-07
2.68501e-06
6.88206e-07
7.01315e-07
3.15442e-07
2.7343e-06
7.58326e-07
7.7175e-07
3.59241e-07
2.78497e-06
8.43323e-07
8.56424e-07
4.29707e-07
2.83498e-06
9.50588e-07
9.55627e-07
5.40326e-07
2.88705e-06
1.0973e-06
1.08782e-06
7.38891e-07
2.94399e-06
1.28483e-06
1.2588e-06
1.05775e-06
2.99655e-06
1.52689e-06
1.48709e-06
1.53739e-06
3.06065e-06
1.85485e-06
1.80267e-06
2.30981e-06
3.13015e-06
2.27619e-06
2.20731e-06
3.35966e-06
3.20531e-06
2.79052e-06
2.71309e-06
4.93039e-06
3.30209e-06
3.43916e-06
3.34237e-06
6.76023e-06
3.40455e-06
4.2043e-06
4.11949e-06
8.87067e-06
3.53777e-06
5.07487e-06
5.05792e-06
1.13596e-05
3.68306e-06
6.07789e-06
6.05418e-06
1.39448e-05
3.86873e-06
7.29201e-06
7.29227e-06
1.6338e-05
4.09199e-06
8.6654e-06
8.72075e-06
1.87697e-05
4.37981e-06
1.02076e-05
1.02704e-05
2.11083e-05
4.72341e-06
1.19136e-05
1.19683e-05
2.31976e-05
5.155e-06
1.3665e-05
1.38261e-05
2.50117e-05
5.67276e-06
1.55133e-05
1.57282e-05
2.6766e-05
6.20144e-06
1.69816e-05
1.7127e-05
2.79367e-05
6.72646e-06
1.80369e-05
1.81134e-05
2.84267e-05
7.33949e-06
1.93133e-05
1.93665e-05
2.89241e-05
8.51794e-06
2.16668e-05
2.17009e-05
3.03072e-05
1.05068e-05
2.48905e-05
2.49085e-05
3.25344e-05
1.31106e-05
2.82239e-05
2.82328e-05
3.49416e-05
1.6122e-05
3.13114e-05
3.13161e-05
3.72655e-05
1.8596e-05
3.33218e-05
3.33256e-05
3.87561e-05
2.00265e-05
3.42788e-05
3.42819e-05
3.94027e-05
2.06609e-05
3.46519e-05
3.46545e-05
3.96636e-05
2.08905e-05
3.47783e-05
3.47808e-05
3.97553e-05
2.09602e-05
3.4817e-05
3.48194e-05
3.97897e-05
2.09725e-05
3.48176e-05
3.482e-05
3.97934e-05
2.09748e-05
3.4816e-05
3.48185e-05
3.9774e-05
2.09768e-05
3.48217e-05
3.4824e-05
3.97984e-05
2.09757e-05
3.48172e-05
3.48194e-05
3.97805e-05
2.09762e-05
3.48202e-05
3.48226e-05
3.97932e-05
2.0976e-05
3.48184e-05
3.48207e-05
3.97803e-05
2.0976e-05
3.48189e-05
3.48211e-05
3.97966e-05
2.09762e-05
3.48193e-05
3.48218e-05
3.97773e-05
2.09762e-05
3.48188e-05
3.48208e-05
3.97878e-05
2.09761e-05
3.48188e-05
3.48211e-05
3.9796e-05
2.09764e-05
3.48198e-05
3.4822e-05
3.97908e-05
2.09763e-05
3.48193e-05
3.48214e-05
3.97791e-05
2.09764e-05
3.48186e-05
3.48211e-05
3.9782e-05
2.09764e-05
3.48195e-05
3.48216e-05
3.97894e-05
2.09764e-05
3.48191e-05
3.48212e-05
3.97963e-05
2.09763e-05
3.48188e-05
3.4821e-05
3.97894e-05
2.09764e-05
3.482e-05
3.48215e-05
3.97867e-05
2.09765e-05
3.48198e-05
3.48219e-05
3.97946e-05
2.09764e-05
3.48186e-05
3.4821e-05
3.97782e-05
2.09764e-05
3.48197e-05
3.4821e-05
3.9785e-05
2.09765e-05
3.48199e-05
3.48213e-05
3.97971e-05
2.09765e-05
3.48187e-05
3.48213e-05
3.97871e-05
2.09764e-05
3.48189e-05
3.48214e-05
3.97789e-05
2.09764e-05
3.48197e-05
3.48214e-05
3.97859e-05
2.09764e-05
3.48196e-05
3.48217e-05
3.97944e-05
2.09764e-05
3.48193e-05
3.48211e-05
3.97949e-05
2.09764e-05
3.48188e-05
3.48209e-05
3.97906e-05
2.09763e-05
3.48193e-05
3.48216e-05
3.97829e-05
2.09763e-05
3.48191e-05
3.48215e-05
3.97796e-05
2.09763e-05
3.48192e-05
3.48211e-05
3.97822e-05
2.09763e-05
3.48193e-05
3.48211e-05
3.97824e-05
2.09762e-05
3.48188e-05
3.48209e-05
3.97805e-05
2.09761e-05
3.48187e-05
3.48209e-05
3.97835e-05
2.09761e-05
3.48187e-05
3.48209e-05
3.97905e-05
2.09761e-05
3.48189e-05
3.48208e-05
3.97937e-05
2.09761e-05
3.4819e-05
3.48212e-05
3.97924e-05
2.09761e-05
3.4819e-05
3.48212e-05
3.97906e-05
2.09761e-05
3.48191e-05
3.4821e-05
3.97874e-05
2.09761e-05
3.48194e-05
3.48213e-05
3.97877e-05
2.09761e-05
3.48196e-05
3.48218e-05
3.97893e-05
2.09761e-05
3.48198e-05
3.4822e-05
3.97866e-05
2.09761e-05
3.48206e-05
3.48222e-05
3.97832e-05
2.09762e-05
3.48213e-05
3.48232e-05
3.97852e-05
2.09763e-05
3.48225e-05
3.48246e-05
3.97904e-05
2.09763e-05
3.48247e-05
3.48265e-05
3.97921e-05
2.09597e-05
3.48158e-05
3.48174e-05
3.97812e-05
2.04416e-05
3.35581e-05
3.35579e-05
3.90109e-05
3.69165e-07
3.55755e-07
3.01936e-07
3.47167e-07
3.44661e-07
3.40394e-07
1.96838e-06
1.95375e-06
1.97095e-06
1.96195e-06
3.22581e-07
3.33303e-07
3.65624e-07
3.50403e-07
3.50411e-07
3.6753e-07
3.66744e-07
3.52764e-07
3.97297e-07
4.55167e-07
3.91262e-07
4.07341e-07
3.45032e-07
3.33286e-07
3.56511e-07
3.51463e-07
3.53752e-07
3.48902e-07
3.83279e-07
3.32906e-07
3.72404e-07
3.63029e-07
3.48702e-07
3.9567e-07
3.82918e-07
3.89884e-07
3.52914e-07
3.50131e-07
3.39633e-07
3.90605e-07
3.92383e-07
3.89071e-07
3.5279e-07
3.3067e-07
3.18135e-07
3.53798e-07
3.49034e-07
3.54869e-07
3.50335e-07
3.69105e-07
3.34837e-07
3.58722e-07
3.45749e-07
3.33942e-07
3.89145e-07
3.79602e-07
3.86343e-07
3.36246e-07
3.37344e-07
3.2904e-07
3.8879e-07
3.43463e-07
3.87581e-07
3.29528e-07
3.15391e-07
3.04429e-07
3.55441e-07
3.50762e-07
3.58155e-07
3.53048e-07
3.55402e-07
3.38399e-07
3.46328e-07
3.31471e-07
3.22085e-07
3.85723e-07
3.78752e-07
3.84495e-07
3.17376e-07
3.26875e-07
3.19731e-07
3.87418e-07
3.28394e-07
3.8769e-07
3.2906e-07
3.02245e-07
2.95384e-07
3.5916e-07
3.54137e-07
3.62783e-07
3.5817e-07
3.44232e-07
3.43554e-07
3.42099e-07
3.19931e-07
3.13249e-07
3.84458e-07
3.80146e-07
3.8485e-07
3.02353e-07
3.1768e-07
3.12043e-07
3.88075e-07
3.31318e-07
3.90453e-07
3.37487e-07
2.93502e-07
2.86358e-07
3.64243e-07
3.59604e-07
3.69373e-07
3.65304e-07
3.42115e-07
3.50128e-07
3.44588e-07
3.11529e-07
3.07716e-07
3.8527e-07
3.85171e-07
3.87105e-07
2.92561e-07
3.10249e-07
3.06464e-07
3.91364e-07
3.39458e-07
3.96551e-07
3.46149e-07
2.84585e-07
2.79642e-07
3.71074e-07
3.67518e-07
3.77128e-07
3.75257e-07
3.46568e-07
3.60605e-07
3.54518e-07
3.06353e-07
3.03284e-07
3.88284e-07
3.93069e-07
3.93209e-07
2.8547e-07
3.04978e-07
3.01424e-07
3.98588e-07
3.49198e-07
4.05164e-07
3.58935e-07
2.77782e-07
2.7186e-07
3.79718e-07
3.78101e-07
3.9007e-07
3.87709e-07
3.5748e-07
3.74728e-07
3.66824e-07
3.01755e-07
2.97938e-07
3.95191e-07
4.03952e-07
4.02573e-07
2.79129e-07
2.99746e-07
2.95256e-07
4.07472e-07
3.62174e-07
4.17026e-07
3.73933e-07
2.70061e-07
2.66027e-07
3.93885e-07
3.90825e-07
4.04875e-07
4.02274e-07
3.69981e-07
3.9117e-07
3.83062e-07
2.963e-07
2.92762e-07
4.05283e-07
4.18344e-07
4.14237e-07
2.74896e-07
2.93502e-07
2.89415e-07
4.20994e-07
3.77693e-07
4.35431e-07
3.9223e-07
2.64546e-07
2.6176e-07
4.08595e-07
4.0612e-07
4.21357e-07
4.19894e-07
3.87811e-07
4.10956e-07
4.03653e-07
2.91424e-07
2.89261e-07
4.17788e-07
4.35613e-07
4.29001e-07
2.71792e-07
2.87833e-07
2.84911e-07
4.40428e-07
3.97945e-07
4.56388e-07
4.16206e-07
2.60637e-07
2.60447e-07
4.26091e-07
4.24943e-07
4.42955e-07
4.40925e-07
4.08986e-07
4.33274e-07
4.25047e-07
2.87988e-07
2.85389e-07
4.33501e-07
4.57621e-07
4.47619e-07
2.69774e-07
2.83635e-07
2.82527e-07
4.62129e-07
4.23205e-07
4.79776e-07
4.43998e-07
2.59926e-07
2.64488e-07
4.48836e-07
4.46736e-07
4.67696e-07
4.65818e-07
4.30321e-07
4.60535e-07
4.48111e-07
2.84028e-07
2.82854e-07
4.52643e-07
4.82703e-07
4.70335e-07
2.69356e-07
2.81538e-07
2.82049e-07
4.85978e-07
4.51202e-07
5.06492e-07
4.74604e-07
2.6407e-07
2.69429e-07
4.74494e-07
4.73167e-07
4.96522e-07
4.95951e-07
4.54312e-07
4.95505e-07
4.74386e-07
2.81909e-07
2.83777e-07
4.77093e-07
5.12257e-07
4.98505e-07
2.68446e-07
2.81279e-07
2.84321e-07
5.13886e-07
4.82656e-07
5.37035e-07
5.06985e-07
2.69033e-07
2.75406e-07
5.0455e-07
5.03972e-07
5.28689e-07
5.30188e-07
4.81986e-07
5.3295e-07
5.07018e-07
2.83273e-07
2.89443e-07
5.05133e-07
5.46056e-07
5.28712e-07
2.6906e-07
2.83855e-07
2.89846e-07
5.4529e-07
5.1644e-07
5.71538e-07
5.45726e-07
2.75131e-07
2.83597e-07
5.36804e-07
5.3929e-07
5.6388e-07
5.70046e-07
5.16251e-07
5.73126e-07
5.47476e-07
2.89192e-07
2.99093e-07
5.37589e-07
5.85361e-07
5.6669e-07
2.74896e-07
2.89871e-07
2.98013e-07
5.80796e-07
5.55485e-07
6.13069e-07
5.90069e-07
2.84419e-07
2.95685e-07
5.72951e-07
5.80943e-07
6.0262e-07
6.16666e-07
5.58289e-07
6.18725e-07
5.92626e-07
3.00231e-07
3.14901e-07
5.77268e-07
6.32069e-07
6.09494e-07
2.8635e-07
2.99551e-07
3.1421e-07
6.24545e-07
6.02869e-07
6.64112e-07
6.41727e-07
2.97659e-07
3.16456e-07
6.13207e-07
6.29736e-07
6.47945e-07
6.72712e-07
6.05504e-07
6.73169e-07
6.45839e-07
3.17935e-07
3.42481e-07
6.20947e-07
6.86153e-07
6.59497e-07
3.0988e-07
3.18184e-07
3.43875e-07
6.78423e-07
6.56292e-07
7.25232e-07
7.09953e-07
3.21243e-07
3.53438e-07
6.61366e-07
6.87914e-07
7.04044e-07
7.38685e-07
6.60509e-07
7.39787e-07
7.10963e-07
3.48491e-07
3.85013e-07
6.74533e-07
7.53954e-07
7.24518e-07
3.49947e-07
3.52046e-07
3.97516e-07
7.42856e-07
7.28928e-07
8.0154e-07
7.86564e-07
3.62924e-07
4.13227e-07
7.21261e-07
7.58597e-07
7.78531e-07
8.18179e-07
7.29824e-07
8.20116e-07
7.90744e-07
3.95399e-07
4.51188e-07
7.42076e-07
8.32253e-07
8.05149e-07
4.12908e-07
4.12617e-07
4.92034e-07
8.24577e-07
8.11155e-07
9.00666e-07
8.92616e-07
4.28887e-07
5.14476e-07
8.00959e-07
8.43074e-07
8.74533e-07
9.21703e-07
8.15008e-07
9.22135e-07
8.90767e-07
4.68216e-07
5.57103e-07
8.3046e-07
9.29847e-07
9.05959e-07
5.13528e-07
5.18762e-07
6.62369e-07
9.29806e-07
9.21328e-07
1.03161e-06
1.0191e-06
5.42248e-07
6.85444e-07
9.02179e-07
9.49161e-07
1.00223e-06
1.0534e-06
9.20231e-07
1.05886e-06
1.02652e-06
5.83753e-07
7.37751e-07
9.3493e-07
1.05465e-06
1.04097e-06
6.93584e-07
7.08246e-07
9.46567e-07
1.06724e-06
1.05513e-06
1.20285e-06
1.18716e-06
7.31594e-07
9.78684e-07
1.03815e-06
1.08912e-06
1.1682e-06
1.21467e-06
1.06164e-06
1.23241e-06
1.19441e-06
7.83659e-07
1.0072e-06
1.07791e-06
1.20962e-06
1.21074e-06
9.80395e-07
1.01936e-06
1.38842e-06
1.25646e-06
1.23927e-06
1.42692e-06
1.41343e-06
1.05084e-06
1.42455e-06
1.21999e-06
1.26552e-06
1.39289e-06
1.44063e-06
1.24729e-06
1.461e-06
1.41923e-06
1.08142e-06
1.45629e-06
1.26263e-06
1.42273e-06
1.44176e-06
1.42705e-06
1.50274e-06
2.08127e-06
1.49358e-06
1.48e-06
1.72883e-06
1.70852e-06
1.53937e-06
2.11393e-06
1.45999e-06
1.50753e-06
1.69467e-06
1.73279e-06
1.48725e-06
1.76386e-06
1.72623e-06
1.56631e-06
2.12812e-06
1.51273e-06
1.71845e-06
1.75567e-06
2.13121e-06
2.24851e-06
3.09709e-06
1.81674e-06
1.79563e-06
2.1177e-06
2.09547e-06
2.28173e-06
3.13907e-06
1.78487e-06
1.81871e-06
2.08771e-06
2.12548e-06
1.81494e-06
2.16198e-06
2.11244e-06
2.29495e-06
3.12277e-06
1.84487e-06
2.09619e-06
2.15402e-06
3.13404e-06
3.33261e-06
4.49698e-06
2.23576e-06
2.20943e-06
2.61043e-06
2.57986e-06
3.37794e-06
4.52798e-06
2.20393e-06
2.23747e-06
2.58288e-06
2.59846e-06
2.22882e-06
2.65145e-06
2.60981e-06
3.35622e-06
4.4773e-06
2.27836e-06
2.575e-06
2.69921e-06
4.60448e-06
4.80273e-06
6.28918e-06
2.74502e-06
2.71713e-06
3.23654e-06
3.19149e-06
4.8317e-06
6.34211e-06
2.71861e-06
2.74611e-06
3.19109e-06
3.22225e-06
2.74766e-06
3.26592e-06
3.19923e-06
4.7794e-06
6.24471e-06
2.85779e-06
3.17212e-06
3.4041e-06
6.38414e-06
6.68853e-06
8.51326e-06
3.42417e-06
3.36737e-06
3.98336e-06
3.92527e-06
6.73412e-06
8.49326e-06
3.3725e-06
3.37735e-06
3.93919e-06
3.92909e-06
3.36392e-06
4.00189e-06
3.90934e-06
6.61479e-06
8.38404e-06
3.60331e-06
3.9109e-06
4.16981e-06
8.46048e-06
8.95096e-06
1.09281e-05
4.18078e-06
4.12611e-06
4.88098e-06
4.78931e-06
8.93776e-06
1.09084e-05
4.14198e-06
4.1589e-06
4.83508e-06
4.86517e-06
4.11276e-06
4.84865e-06
4.80822e-06
8.84457e-06
1.09041e-05
4.35604e-06
4.81571e-06
4.97287e-06
1.08374e-05
1.14295e-05
1.35022e-05
5.14145e-06
5.02743e-06
5.94315e-06
5.7951e-06
1.13793e-05
1.33624e-05
5.08142e-06
5.08484e-06
5.82993e-06
5.76977e-06
5.07071e-06
5.80977e-06
5.93832e-06
1.13932e-05
1.3302e-05
5.18898e-06
5.79147e-06
5.87762e-06
1.34624e-05
1.39943e-05
1.59216e-05
6.21208e-06
6.07301e-06
7.03862e-06
6.97339e-06
1.38646e-05
1.58773e-05
6.09526e-06
6.04075e-06
6.97376e-06
6.99593e-06
6.23971e-06
6.96941e-06
7.11673e-06
1.37666e-05
1.57881e-05
6.13047e-06
6.95717e-06
6.94436e-06
1.58542e-05
1.64102e-05
1.83572e-05
7.33562e-06
7.29548e-06
8.31556e-06
8.33232e-06
1.63772e-05
1.83423e-05
7.29825e-06
7.34033e-06
8.35224e-06
8.37703e-06
7.4125e-06
8.31361e-06
8.3728e-06
1.6322e-05
1.83957e-05
7.24501e-06
8.35582e-06
8.28241e-06
1.82654e-05
1.88596e-05
2.06985e-05
8.66651e-06
8.69705e-06
9.798e-06
9.8559e-06
1.88473e-05
2.07089e-05
8.72008e-06
8.72404e-06
9.85579e-06
9.82242e-06
8.71537e-06
9.79772e-06
9.82547e-06
1.88975e-05
2.07023e-05
8.6609e-06
9.86667e-06
9.84981e-06
2.06342e-05
2.117e-05
2.28286e-05
1.02043e-05
1.0267e-05
1.14743e-05
1.15401e-05
2.11862e-05
2.28521e-05
1.02523e-05
1.02212e-05
1.15022e-05
1.15044e-05
1.0226e-05
1.14868e-05
1.14606e-05
2.11685e-05
2.28528e-05
1.0264e-05
1.15344e-05
1.15233e-05
2.27686e-05
2.32615e-05
2.46724e-05
1.1906e-05
1.1971e-05
1.32299e-05
1.33054e-05
2.32821e-05
2.46816e-05
1.19338e-05
1.19464e-05
1.32616e-05
1.32939e-05
1.18738e-05
1.32139e-05
1.31601e-05
2.32986e-05
2.47612e-05
1.1942e-05
1.33424e-05
1.32354e-05
2.46152e-05
2.50592e-05
2.63764e-05
1.36878e-05
1.37681e-05
1.50985e-05
1.517e-05
2.50703e-05
2.64009e-05
1.37153e-05
1.3752e-05
1.50991e-05
1.51349e-05
1.36159e-05
1.50677e-05
1.50339e-05
2.51507e-05
2.64341e-05
1.36895e-05
1.52833e-05
1.50931e-05
2.63869e-05
2.67498e-05
2.7695e-05
1.55439e-05
1.56076e-05
1.66795e-05
1.67206e-05
2.67747e-05
2.77093e-05
1.55411e-05
1.557e-05
1.66874e-05
1.66912e-05
1.54841e-05
1.66629e-05
1.66429e-05
2.67948e-05
2.77002e-05
1.55384e-05
1.6831e-05
1.66839e-05
2.77129e-05
2.79194e-05
2.82751e-05
1.6992e-05
1.7028e-05
1.77857e-05
1.78147e-05
2.79324e-05
2.8285e-05
1.7006e-05
1.70042e-05
1.78082e-05
1.78004e-05
1.69652e-05
1.77906e-05
1.77832e-05
2.79212e-05
2.82772e-05
1.70008e-05
1.78786e-05
1.7801e-05
2.82903e-05
2.84123e-05
2.8724e-05
1.80315e-05
1.80592e-05
1.89192e-05
1.89373e-05
2.84216e-05
2.87272e-05
1.80537e-05
1.8046e-05
1.89329e-05
1.89324e-05
1.80331e-05
1.89183e-05
1.89205e-05
2.84148e-05
2.8731e-05
1.80463e-05
1.89757e-05
1.89246e-05
2.87306e-05
2.892e-05
2.99322e-05
1.93183e-05
1.93315e-05
2.09741e-05
2.0976e-05
2.89214e-05
2.99252e-05
1.93286e-05
1.93314e-05
2.09758e-05
2.09867e-05
1.93174e-05
2.09639e-05
2.09699e-05
2.89275e-05
2.99424e-05
1.93199e-05
2.10029e-05
2.09683e-05
2.99292e-05
3.03106e-05
3.20762e-05
2.16781e-05
2.16781e-05
2.40701e-05
2.40688e-05
3.03036e-05
3.20709e-05
2.16781e-05
2.16901e-05
2.40667e-05
2.40794e-05
2.16739e-05
2.406e-05
2.40686e-05
3.03203e-05
3.20838e-05
2.16717e-05
2.40813e-05
2.40646e-05
3.20752e-05
3.2535e-05
3.44782e-05
2.49003e-05
2.4899e-05
2.73954e-05
2.73944e-05
3.25304e-05
3.44747e-05
2.48967e-05
2.49085e-05
2.73915e-05
2.74008e-05
2.48999e-05
2.73884e-05
2.73974e-05
3.2542e-05
3.44823e-05
2.48955e-05
2.73991e-05
2.73928e-05
3.44792e-05
3.49408e-05
3.68614e-05
2.82302e-05
2.82293e-05
3.06181e-05
3.06177e-05
3.49376e-05
3.6859e-05
2.82267e-05
2.8235e-05
3.06152e-05
3.06213e-05
2.82325e-05
3.06141e-05
3.06209e-05
3.49443e-05
3.6863e-05
2.82282e-05
3.06193e-05
3.06178e-05
3.68628e-05
3.72641e-05
3.85272e-05
3.13152e-05
3.13148e-05
3.29386e-05
3.29383e-05
3.7262e-05
3.85251e-05
3.13126e-05
3.1318e-05
3.29366e-05
3.29403e-05
3.13182e-05
3.29357e-05
3.29421e-05
3.72654e-05
3.8528e-05
3.13153e-05
3.29396e-05
3.29396e-05
3.85294e-05
3.8754e-05
3.92836e-05
3.33243e-05
3.33241e-05
3.4113e-05
3.41128e-05
3.8752e-05
3.92819e-05
3.33227e-05
3.33258e-05
3.41116e-05
3.4114e-05
3.33279e-05
3.41111e-05
3.41166e-05
3.87547e-05
3.92843e-05
3.33255e-05
3.41144e-05
3.41145e-05
3.92859e-05
3.94004e-05
3.95972e-05
3.42804e-05
3.42802e-05
3.45929e-05
3.45927e-05
3.93988e-05
3.95957e-05
3.42792e-05
3.42813e-05
3.45918e-05
3.45938e-05
3.4284e-05
3.45917e-05
3.45966e-05
3.9401e-05
3.95978e-05
3.4282e-05
3.45944e-05
3.45948e-05
3.95995e-05
3.96612e-05
3.97096e-05
3.46528e-05
3.46526e-05
3.47589e-05
3.47587e-05
3.96598e-05
3.97082e-05
3.46518e-05
3.46537e-05
3.47579e-05
3.47597e-05
3.46564e-05
3.47581e-05
3.47625e-05
3.96617e-05
3.97101e-05
3.46548e-05
3.47606e-05
3.4761e-05
3.97119e-05
3.97529e-05
3.97502e-05
3.47791e-05
3.47788e-05
3.48134e-05
3.48132e-05
3.97516e-05
3.97489e-05
3.47781e-05
3.47797e-05
3.48123e-05
3.48139e-05
3.47825e-05
3.48125e-05
3.48167e-05
3.97533e-05
3.97505e-05
3.47811e-05
3.48149e-05
3.48153e-05
3.97523e-05
3.97876e-05
3.97599e-05
3.48179e-05
3.48176e-05
3.482e-05
3.48197e-05
3.97863e-05
3.97585e-05
3.48168e-05
3.48184e-05
3.48188e-05
3.48205e-05
3.48212e-05
3.4819e-05
3.48233e-05
3.97878e-05
3.97602e-05
3.48198e-05
3.48214e-05
3.48218e-05
3.9762e-05
3.97911e-05
3.97369e-05
3.48186e-05
3.48182e-05
3.48169e-05
3.48165e-05
3.97899e-05
3.97354e-05
3.48173e-05
3.4819e-05
3.48156e-05
3.48173e-05
3.48218e-05
3.48158e-05
3.48201e-05
3.97915e-05
3.97373e-05
3.48203e-05
3.48182e-05
3.48186e-05
3.97391e-05
3.97718e-05
3.97596e-05
3.48171e-05
3.48167e-05
3.48223e-05
3.4822e-05
3.97703e-05
3.97583e-05
3.48158e-05
3.48174e-05
3.48209e-05
3.48227e-05
3.48203e-05
3.48213e-05
3.48254e-05
3.97721e-05
3.97599e-05
3.48188e-05
3.48236e-05
3.4824e-05
3.97619e-05
3.97958e-05
3.97494e-05
3.48227e-05
3.48224e-05
3.48194e-05
3.48188e-05
3.97948e-05
3.97468e-05
3.48214e-05
3.48231e-05
3.48179e-05
3.48195e-05
3.48258e-05
3.48181e-05
3.48222e-05
3.97963e-05
3.9748e-05
3.48244e-05
3.48203e-05
3.48206e-05
3.97495e-05
3.97802e-05
3.97498e-05
3.48184e-05
3.48178e-05
3.48205e-05
3.48201e-05
3.97777e-05
3.975e-05
3.48169e-05
3.48185e-05
3.4819e-05
3.48208e-05
3.48213e-05
3.48193e-05
3.48236e-05
3.97788e-05
3.97522e-05
3.48197e-05
3.48219e-05
3.48224e-05
3.97544e-05
3.97895e-05
3.97489e-05
3.48214e-05
3.48209e-05
3.48196e-05
3.4819e-05
3.97891e-05
3.97464e-05
3.48199e-05
3.48216e-05
3.48181e-05
3.48198e-05
3.48243e-05
3.48184e-05
3.48226e-05
3.97909e-05
3.97478e-05
3.4823e-05
3.48207e-05
3.48211e-05
3.97495e-05
3.97793e-05
3.97561e-05
3.48195e-05
3.48189e-05
3.48202e-05
3.48199e-05
3.97771e-05
3.97559e-05
3.48179e-05
3.48196e-05
3.48186e-05
3.48204e-05
3.48225e-05
3.4819e-05
3.48233e-05
3.97785e-05
3.97578e-05
3.4821e-05
3.48212e-05
3.48214e-05
3.97595e-05
3.97936e-05
3.97412e-05
3.482e-05
3.48196e-05
3.48202e-05
3.48198e-05
3.97932e-05
3.97394e-05
3.48185e-05
3.48202e-05
3.48185e-05
3.48204e-05
3.4823e-05
3.48191e-05
3.48232e-05
3.97948e-05
3.9741e-05
3.48214e-05
3.48215e-05
3.48218e-05
3.97429e-05
3.97743e-05
3.97593e-05
3.48205e-05
3.48201e-05
3.482e-05
3.48193e-05
3.97736e-05
3.97555e-05
3.48185e-05
3.48205e-05
3.48185e-05
3.482e-05
3.48235e-05
3.48187e-05
3.48228e-05
3.97755e-05
3.97557e-05
3.48219e-05
3.48208e-05
3.48211e-05
3.97583e-05
3.97892e-05
3.97554e-05
3.48199e-05
3.48192e-05
3.48209e-05
3.48203e-05
3.97849e-05
3.97561e-05
3.48185e-05
3.482e-05
3.48187e-05
3.48206e-05
3.48229e-05
3.48195e-05
3.48236e-05
3.9785e-05
3.97584e-05
3.48211e-05
3.48219e-05
3.48223e-05
3.976e-05
3.9793e-05
3.97431e-05
3.48204e-05
3.48196e-05
3.48204e-05
3.48201e-05
3.97923e-05
3.97472e-05
3.48184e-05
3.482e-05
3.48186e-05
3.48206e-05
3.48228e-05
3.48196e-05
3.48237e-05
3.97938e-05
3.97503e-05
3.48214e-05
3.48217e-05
3.4822e-05
3.97498e-05
3.97833e-05
3.97447e-05
3.48208e-05
3.48202e-05
3.48202e-05
3.48196e-05
3.97878e-05
3.97412e-05
3.48188e-05
3.48206e-05
3.48185e-05
3.48202e-05
3.48239e-05
3.48186e-05
3.48226e-05
3.97902e-05
3.97434e-05
3.48223e-05
3.48208e-05
3.4821e-05
3.97443e-05
3.97764e-05
3.97565e-05
3.48202e-05
3.482e-05
3.48203e-05
3.48196e-05
3.97786e-05
3.97443e-05
3.48185e-05
3.48204e-05
3.48187e-05
3.48202e-05
3.48231e-05
3.48189e-05
3.4823e-05
3.9782e-05
3.97449e-05
3.48214e-05
3.48212e-05
3.48215e-05
3.97515e-05
3.97858e-05
3.97585e-05
3.48203e-05
3.48197e-05
3.48204e-05
3.48197e-05
3.97759e-05
3.97546e-05
3.48186e-05
3.48205e-05
3.48185e-05
3.482e-05
3.48226e-05
3.48195e-05
3.48234e-05
3.97778e-05
3.97484e-05
3.48211e-05
3.48215e-05
3.48217e-05
3.97593e-05
3.97932e-05
3.97525e-05
3.48202e-05
3.48196e-05
3.48207e-05
3.48201e-05
3.97841e-05
3.97565e-05
3.48185e-05
3.48201e-05
3.48187e-05
3.48202e-05
3.48232e-05
3.48191e-05
3.48233e-05
3.97796e-05
3.97501e-05
3.48215e-05
3.48211e-05
3.48218e-05
3.97616e-05
3.97912e-05
3.97451e-05
3.48204e-05
3.48197e-05
3.48206e-05
3.48201e-05
3.97902e-05
3.97557e-05
3.48184e-05
3.482e-05
3.48189e-05
3.48206e-05
3.4823e-05
3.48194e-05
3.48233e-05
3.97804e-05
3.97541e-05
3.48215e-05
3.48214e-05
3.48216e-05
3.97493e-05
3.97852e-05
3.97448e-05
3.48206e-05
3.48196e-05
3.48205e-05
3.48208e-05
3.97896e-05
3.97567e-05
3.48189e-05
3.48202e-05
3.48184e-05
3.48206e-05
3.48234e-05
3.48201e-05
3.48235e-05
3.97833e-05
3.976e-05
3.48217e-05
3.48219e-05
3.48221e-05
3.97519e-05
3.97808e-05
3.97447e-05
3.48206e-05
3.48207e-05
3.48206e-05
3.48193e-05
3.97942e-05
3.97384e-05
3.48188e-05
3.48205e-05
3.48186e-05
3.48202e-05
3.48232e-05
3.48188e-05
3.48236e-05
3.97928e-05
3.97524e-05
3.48215e-05
3.48214e-05
3.4822e-05
3.97541e-05
3.97833e-05
3.97431e-05
3.48212e-05
3.48202e-05
3.48197e-05
3.48198e-05
3.97757e-05
3.97542e-05
3.4819e-05
3.48205e-05
3.48179e-05
3.48201e-05
3.4824e-05
3.48188e-05
3.48227e-05
3.97902e-05
3.97516e-05
3.48224e-05
3.48209e-05
3.48211e-05
3.9743e-05
3.97745e-05
3.97619e-05
3.48198e-05
3.48194e-05
3.48213e-05
3.48203e-05
3.97836e-05
3.97553e-05
3.48179e-05
3.482e-05
3.48194e-05
3.48207e-05
3.4823e-05
3.48201e-05
3.48236e-05
3.97869e-05
3.97588e-05
3.48215e-05
3.48215e-05
3.48216e-05
3.97556e-05
3.97957e-05
3.97438e-05
3.48206e-05
3.48201e-05
3.48205e-05
3.48198e-05
3.97926e-05
3.97404e-05
3.48186e-05
3.48201e-05
3.48185e-05
3.48204e-05
3.48227e-05
3.4819e-05
3.48239e-05
3.97936e-05
3.97504e-05
3.4821e-05
3.48213e-05
3.48223e-05
3.9761e-05
3.97844e-05
3.97462e-05
3.48207e-05
3.48198e-05
3.48205e-05
3.48199e-05
3.97783e-05
3.97465e-05
3.48188e-05
3.48203e-05
3.48186e-05
3.48204e-05
3.4824e-05
3.48186e-05
3.48227e-05
3.97882e-05
3.97546e-05
3.4822e-05
3.48212e-05
3.48214e-05
3.97463e-05
3.97775e-05
3.97582e-05
3.48205e-05
3.48198e-05
3.48206e-05
3.48199e-05
3.97774e-05
3.97576e-05
3.48186e-05
3.48202e-05
3.48186e-05
3.48205e-05
3.48231e-05
3.48196e-05
3.48232e-05
3.97887e-05
3.97591e-05
3.4822e-05
3.48213e-05
3.48213e-05
3.97467e-05
3.97883e-05
3.9758e-05
3.48205e-05
3.48198e-05
3.4821e-05
3.48201e-05
3.97884e-05
3.97555e-05
3.48186e-05
3.48206e-05
3.48185e-05
3.48202e-05
3.48229e-05
3.48196e-05
3.48232e-05
3.97933e-05
3.97544e-05
3.48215e-05
3.48212e-05
3.48212e-05
3.97564e-05
3.97936e-05
3.97508e-05
3.4821e-05
3.48203e-05
3.48203e-05
3.48197e-05
3.97922e-05
3.97473e-05
3.48185e-05
3.48203e-05
3.48189e-05
3.48204e-05
3.48232e-05
3.48191e-05
3.4823e-05
3.97925e-05
3.97448e-05
3.48211e-05
3.48212e-05
3.48222e-05
3.97612e-05
3.97906e-05
3.97431e-05
3.48206e-05
3.48198e-05
3.48209e-05
3.48198e-05
3.9788e-05
3.97404e-05
3.48187e-05
3.48205e-05
3.48188e-05
3.48202e-05
3.4823e-05
3.48188e-05
3.48232e-05
3.97858e-05
3.97435e-05
3.48213e-05
3.48208e-05
3.48215e-05
3.97573e-05
3.97817e-05
3.97451e-05
3.48208e-05
3.48198e-05
3.48205e-05
3.48197e-05
3.97776e-05
3.97462e-05
3.48192e-05
3.48206e-05
3.4818e-05
3.48201e-05
3.48231e-05
3.4819e-05
3.48233e-05
3.97759e-05
3.97559e-05
3.4822e-05
3.48213e-05
3.48212e-05
3.97495e-05
3.97774e-05
3.97509e-05
3.48209e-05
3.48198e-05
3.48203e-05
3.48197e-05
3.97769e-05
3.97589e-05
3.48184e-05
3.48201e-05
3.48186e-05
3.48206e-05
3.48234e-05
3.48194e-05
3.4823e-05
3.97852e-05
3.97587e-05
3.48213e-05
3.48217e-05
3.48213e-05
3.97448e-05
3.97813e-05
3.97507e-05
3.48205e-05
3.48197e-05
3.48205e-05
3.48199e-05
3.97911e-05
3.97523e-05
3.48184e-05
3.48204e-05
3.48185e-05
3.48201e-05
3.48233e-05
3.48189e-05
3.48228e-05
3.97942e-05
3.97473e-05
3.48213e-05
3.4821e-05
3.48212e-05
3.97467e-05
3.97805e-05
3.97588e-05
3.48204e-05
3.482e-05
3.48209e-05
3.48199e-05
3.97907e-05
3.97425e-05
3.48185e-05
3.48202e-05
3.48189e-05
3.48198e-05
3.4823e-05
3.48189e-05
3.48229e-05
3.97878e-05
3.97436e-05
3.48214e-05
3.48207e-05
3.48212e-05
3.9751e-05
3.97884e-05
3.97574e-05
3.48207e-05
3.48201e-05
3.48208e-05
3.48196e-05
3.97823e-05
3.97426e-05
3.48187e-05
3.482e-05
3.48188e-05
3.482e-05
3.48231e-05
3.48187e-05
3.4823e-05
3.97771e-05
3.97516e-05
3.48214e-05
3.48207e-05
3.48212e-05
3.97512e-05
3.97945e-05
3.97419e-05
3.48212e-05
3.482e-05
3.48202e-05
3.48194e-05
3.97763e-05
3.97463e-05
3.48192e-05
3.48201e-05
3.48181e-05
3.48198e-05
3.48234e-05
3.48183e-05
3.48227e-05
3.97818e-05
3.97545e-05
3.48215e-05
3.48205e-05
3.4821e-05
3.97491e-05
3.97816e-05
3.97468e-05
3.48209e-05
3.48197e-05
3.482e-05
3.48193e-05
3.97775e-05
3.97514e-05
3.48187e-05
3.48202e-05
3.4818e-05
3.48197e-05
3.48231e-05
3.48183e-05
3.48227e-05
3.97841e-05
3.9756e-05
3.48213e-05
3.48205e-05
3.48209e-05
3.97536e-05
3.97778e-05
3.97591e-05
3.48202e-05
3.48195e-05
3.482e-05
3.48193e-05
3.97812e-05
3.97553e-05
3.48181e-05
3.48199e-05
3.4818e-05
3.48197e-05
3.48228e-05
3.48183e-05
3.48226e-05
3.97858e-05
3.97572e-05
3.4821e-05
3.48204e-05
3.48208e-05
3.97595e-05
3.97905e-05
3.97554e-05
3.48202e-05
3.48195e-05
3.48199e-05
3.48192e-05
3.97856e-05
3.97559e-05
3.48181e-05
3.48199e-05
3.48178e-05
3.48196e-05
3.48228e-05
3.48183e-05
3.48225e-05
3.97883e-05
3.9758e-05
3.4821e-05
3.48203e-05
3.48206e-05
3.97588e-05
3.9792e-05
3.97508e-05
3.48204e-05
3.48196e-05
3.48196e-05
3.4819e-05
3.97882e-05
3.97559e-05
3.48183e-05
3.48201e-05
3.48176e-05
3.48195e-05
3.4823e-05
3.4818e-05
3.48222e-05
3.97905e-05
3.97572e-05
3.48211e-05
3.48204e-05
3.48205e-05
3.97556e-05
3.97892e-05
3.97523e-05
3.48204e-05
3.48196e-05
3.48195e-05
3.48189e-05
3.97893e-05
3.97555e-05
3.48185e-05
3.48202e-05
3.48174e-05
3.48192e-05
3.48231e-05
3.48178e-05
3.48219e-05
3.97927e-05
3.97521e-05
3.48212e-05
3.48198e-05
3.48202e-05
3.97552e-05
3.97898e-05
3.97548e-05
3.48205e-05
3.48198e-05
3.48194e-05
3.48187e-05
3.97908e-05
3.97522e-05
3.48185e-05
3.48203e-05
3.48174e-05
3.48191e-05
3.48229e-05
3.48177e-05
3.48219e-05
3.97902e-05
3.97505e-05
3.48213e-05
3.48197e-05
3.48199e-05
3.97566e-05
3.97916e-05
3.97526e-05
3.48206e-05
3.482e-05
3.48191e-05
3.48184e-05
3.97898e-05
3.97494e-05
3.48186e-05
3.48204e-05
3.48171e-05
3.48189e-05
3.4823e-05
3.48176e-05
3.48218e-05
3.97886e-05
3.97553e-05
3.48211e-05
3.48197e-05
3.48199e-05
3.97573e-05
3.97909e-05
3.97485e-05
3.48208e-05
3.48201e-05
3.4819e-05
3.48183e-05
3.97881e-05
3.97499e-05
3.48188e-05
3.48205e-05
3.48169e-05
3.48187e-05
3.48233e-05
3.48174e-05
3.48215e-05
3.97916e-05
3.97539e-05
3.48214e-05
3.48195e-05
3.48197e-05
3.97577e-05
3.97887e-05
3.97452e-05
3.4821e-05
3.48202e-05
3.48188e-05
3.48181e-05
3.97882e-05
3.97518e-05
3.4819e-05
3.48208e-05
3.48168e-05
3.48185e-05
3.48236e-05
3.48172e-05
3.48213e-05
3.97923e-05
3.9744e-05
3.48218e-05
3.48189e-05
3.48193e-05
3.97556e-05
3.97852e-05
3.97447e-05
3.48214e-05
3.48206e-05
3.48185e-05
3.48179e-05
3.97895e-05
3.97513e-05
3.48195e-05
3.48212e-05
3.48165e-05
3.48182e-05
3.48238e-05
3.48172e-05
3.48212e-05
3.97848e-05
3.97438e-05
3.48219e-05
3.48188e-05
3.48192e-05
3.97525e-05
3.97827e-05
3.9746e-05
3.48219e-05
3.48212e-05
3.48183e-05
3.48177e-05
3.97898e-05
3.97473e-05
3.482e-05
3.48216e-05
3.48163e-05
3.48181e-05
3.48245e-05
3.48168e-05
3.48208e-05
3.97766e-05
3.97549e-05
3.48223e-05
3.4819e-05
3.48192e-05
3.97546e-05
3.97842e-05
3.9748e-05
3.48227e-05
3.4822e-05
3.48184e-05
3.48177e-05
3.97877e-05
3.97445e-05
3.48206e-05
3.48223e-05
3.48166e-05
3.48183e-05
3.4825e-05
3.48169e-05
3.48212e-05
3.97859e-05
3.97525e-05
3.48232e-05
3.4819e-05
3.48191e-05
3.97587e-05
3.97868e-05
3.97509e-05
3.48239e-05
3.48233e-05
3.48191e-05
3.48183e-05
3.97841e-05
3.9745e-05
3.48219e-05
3.48236e-05
3.48173e-05
3.48191e-05
3.48264e-05
3.48176e-05
3.48218e-05
3.97863e-05
3.97504e-05
3.48246e-05
3.48194e-05
3.48196e-05
3.97576e-05
3.97892e-05
3.97471e-05
3.48259e-05
3.48253e-05
3.48117e-05
3.4811e-05
3.97821e-05
3.97433e-05
3.48241e-05
3.48258e-05
3.48096e-05
3.48114e-05
3.48286e-05
3.48102e-05
3.48141e-05
3.97846e-05
3.97478e-05
3.48265e-05
3.48118e-05
3.48121e-05
3.97507e-05
3.97825e-05
3.93939e-05
3.48172e-05
3.48165e-05
3.44252e-05
3.44248e-05
3.97772e-05
3.93933e-05
3.48152e-05
3.48171e-05
3.44252e-05
3.44233e-05
3.48196e-05
3.44268e-05
3.44268e-05
3.9782e-05
3.93944e-05
3.48175e-05
3.4427e-05
3.44271e-05
3.93934e-05
3.9012e-05
3.35559e-05
3.35555e-05
3.90113e-05
3.35563e-05
3.35539e-05
2.04418e-05
2.04408e-05
2.04425e-05
3.35572e-05
3.90121e-05
3.35579e-05
5.09869e-06
7.47859e-07
3.39493e-06
3.38949e-06
1.00326e-07
3.22115e-07
2.0131e-07
2.00022e-06
1.05897e-07
3.48925e-07
2.00089e-06
4.71414e-07
3.72592e-07
2.76093e-07
4.31667e-07
2.87972e-07
4.96586e-06
2.47246e-07
6.61829e-06
1.92525e-05
2.34296e-05
2.97976e-07
6.29641e-06
2.53475e-07
8.05212e-06
1.90105e-06
1.9176e-06
1.90794e-06
1.90111e-06
1.88665e-06
1.90346e-06
1.89221e-06
9.97729e-08
5.37747e-07
8.6822e-07
3.32874e-07
9.97306e-08
5.25844e-07
8.6061e-07
1.36434e-05
2.09531e-05
1.03402e-07
8.73633e-07
9.2321e-07
3.85621e-07
1.05242e-07
8.65338e-07
1.02265e-06
1.90183e-06
1.92997e-06
3.6007e-07
1.87402e-06
1.90604e-06
4.83607e-07
9.93727e-06
3.89553e-07
1.24211e-05
3.56454e-05
4.56619e-05
4.94644e-07
1.0682e-05
3.91243e-07
1.26092e-05
1.89719e-06
1.91396e-06
1.9026e-06
1.9451e-06
1.93076e-06
1.94796e-06