/*--------------------------------*- C++ -*----------------------------------*\
| =========                 |                                                 |
| \\      /  F ield         | OpenFOAM: The Open Source CFD Toolbox           |
|  \\    /   O peration     | Version:  v2012                                 |
|   \\  /    A nd           | Website:  www.openfoam.com                      |
|    \\/     M anipulation  |                                                 |
\*---------------------------------------------------------------------------*/
FoamFile
{
    version     2.0;
    format      ascii;
    class       volScalarField;
    location    "175";
    object      nut;
}
// * * * * * * * * * * * * * * * * * * * * * * * * * * * * * * * * * * * * * //

dimensions      [0 2 -1 0 0 0 0];


internalField   nonuniform List<scalar> 
171728
(
2.19865e-05
2.23281e-06
2.73898e-06
2.38398e-06
2.20301e-05
2.31214e-06
2.80245e-06
2.42913e-06
2.26427e-05
2.43587e-06
2.91329e-06
2.41306e-06
2.32591e-05
2.57057e-06
3.04516e-06
2.34151e-06
2.39051e-05
2.71378e-06
3.19007e-06
2.30051e-06
2.46005e-05
2.86991e-06
3.36635e-06
2.30353e-06
2.53252e-05
3.0623e-06
3.5431e-06
2.30975e-06
2.60487e-05
3.28625e-06
3.74321e-06
2.31892e-06
2.67443e-05
3.49866e-06
3.95315e-06
2.34145e-06
2.74167e-05
3.73537e-06
4.18081e-06
2.34889e-06
2.80385e-05
3.96537e-06
4.4261e-06
2.35027e-06
2.86494e-05
4.2472e-06
4.6683e-06
2.34248e-06
2.92253e-05
4.57926e-06
4.92362e-06
2.28122e-06
2.97676e-05
4.90145e-06
5.19802e-06
2.20122e-06
3.02862e-05
5.18725e-06
5.44912e-06
2.13118e-06
3.07998e-05
5.44922e-06
5.73292e-06
2.06399e-06
3.13161e-05
5.70065e-06
5.98364e-06
2.05964e-06
3.17919e-05
5.96418e-06
6.25497e-06
2.12176e-06
3.22894e-05
6.18023e-06
6.47948e-06
2.26292e-06
3.27312e-05
6.39748e-06
6.59926e-06
2.51926e-06
3.31783e-05
6.76542e-06
6.81112e-06
3.14585e-06
3.36488e-05
7.2167e-06
7.08733e-06
4.12283e-06
3.3889e-05
7.8027e-06
7.57988e-06
5.56057e-06
3.42458e-05
8.75868e-06
8.47645e-06
7.98306e-06
3.45314e-05
1.00558e-05
9.67734e-06
1.11211e-05
3.46972e-05
1.16027e-05
1.12118e-05
1.62723e-05
3.49974e-05
1.37297e-05
1.31716e-05
2.19233e-05
3.50383e-05
1.62926e-05
1.57336e-05
2.81239e-05
3.52729e-05
1.91462e-05
1.90196e-05
3.54434e-05
3.52419e-05
2.24003e-05
2.21934e-05
4.32989e-05
3.53792e-05
2.65662e-05
2.63885e-05
4.98757e-05
3.55588e-05
3.13565e-05
3.14857e-05
5.69781e-05
3.62247e-05
3.69314e-05
3.7043e-05
6.44208e-05
3.71741e-05
4.35124e-05
4.33889e-05
7.13844e-05
3.85688e-05
5.0237e-05
5.08295e-05
7.7571e-05
4.02463e-05
5.77906e-05
5.89886e-05
8.43257e-05
4.09824e-05
6.31354e-05
6.40028e-05
8.92443e-05
4.04807e-05
6.5001e-05
6.54229e-05
9.04968e-05
3.94772e-05
6.6784e-05
6.70666e-05
9.06786e-05
4.26246e-05
7.43945e-05
7.45775e-05
9.45873e-05
5.24666e-05
8.81792e-05
8.82743e-05
0.000103199
6.84375e-05
0.00010461
0.000104651
0.000113556
9.14158e-05
0.000122429
0.000122443
0.000124906
0.000113783
0.000135483
0.000135491
0.000132883
0.000128253
0.000142123
0.000142127
0.000136458
0.000135115
0.000144804
0.000144805
0.000137922
0.000137693
0.000145728
0.000145727
0.000138439
0.000138509
0.000146025
0.000146024
0.000138643
0.000138661
0.000146039
0.000146037
0.0001387
0.000138684
0.000146019
0.000146019
0.000138553
0.000138709
0.000146064
0.000146063
0.000138704
0.000138698
0.000146032
0.00014603
0.00013861
0.000138703
0.000146053
0.000146052
0.000138667
0.0001387
0.00014604
0.000146039
0.000138605
0.0001387
0.000146044
0.000146042
0.000138702
0.000138702
0.000146047
0.000146047
0.000138567
0.000138701
0.000146043
0.000146039
0.000138653
0.0001387
0.000146044
0.000146042
0.000138705
0.000138703
0.000146051
0.000146048
0.000138658
0.000138703
0.000146046
0.000146043
0.000138578
0.000138703
0.000146042
0.000146041
0.000138608
0.000138703
0.000146048
0.000146045
0.000138662
0.000138702
0.000146045
0.000146042
0.000138707
0.000138702
0.000146043
0.000146041
0.000138647
0.000138703
0.000146053
0.000146045
0.000138643
0.000138704
0.00014605
0.000146047
0.000138685
0.000138702
0.000146042
0.000146041
0.000138571
0.000138703
0.00014605
0.000146041
0.000138633
0.000138704
0.000146051
0.000146043
0.000138706
0.000138704
0.000146042
0.000146043
0.000138626
0.000138704
0.000146044
0.000146044
0.000138581
0.000138704
0.00014605
0.000146044
0.000138642
0.000138705
0.000146049
0.000146046
0.000138705
0.000138705
0.000146047
0.000146042
0.000138705
0.000138705
0.000146044
0.000146041
0.000138668
0.000138704
0.000146048
0.000146047
0.000138608
0.000138704
0.000146047
0.000146045
0.000138587
0.000138704
0.000146047
0.000146043
0.000138609
0.000138704
0.000146048
0.000146043
0.000138609
0.000138704
0.000146044
0.000146042
0.000138596
0.000138703
0.000146044
0.000146041
0.000138622
0.000138703
0.000146044
0.000146042
0.000138671
0.000138703
0.000146045
0.000146041
0.00013869
0.000138703
0.000146045
0.000146044
0.000138679
0.000138703
0.000146045
0.000146042
0.000138668
0.000138703
0.000146045
0.000146041
0.000138648
0.000138703
0.000146046
0.000146042
0.000138652
0.000138703
0.000146047
0.000146045
0.000138662
0.000138703
0.000146047
0.000146044
0.000138643
0.000138703
0.000146051
0.000146044
0.00013862
0.000138704
0.000146053
0.000146049
0.000138636
0.000138704
0.000146058
0.000146056
0.000138673
0.000138705
0.00014607
0.000146065
0.000138683
0.000138708
0.000146046
0.000146041
0.000138651
0.000138883
0.000145396
0.000145392
0.000139443
2.28474e-06
2.54201e-06
2.15102e-06
2.22744e-06
2.53194e-06
2.51021e-06
2.26281e-05
2.23913e-05
2.26721e-05
2.23891e-05
2.26068e-06
2.55811e-06
2.30836e-06
2.53579e-06
2.43659e-06
2.3996e-06
2.26335e-06
2.27941e-06
2.77077e-06
3.57635e-06
2.81598e-06
3.34311e-06
2.21241e-06
2.24106e-06
2.77762e-06
2.7645e-06
2.85021e-06
2.83096e-06
2.83154e-06
2.28394e-06
2.83709e-06
2.28488e-06
2.29095e-06
2.7148e-06
2.77436e-06
2.76661e-06
2.43277e-06
2.26054e-06
2.31927e-06
2.85157e-06
3.22122e-06
2.95689e-06
2.80894e-06
2.2214e-06
2.22629e-06
2.88909e-06
2.86905e-06
3.01173e-06
2.99109e-06
2.84266e-06
2.40653e-06
2.83491e-06
2.26677e-06
2.29509e-06
2.79876e-06
2.88475e-06
2.87285e-06
2.42855e-06
2.30357e-06
2.37489e-06
2.99195e-06
2.7091e-06
3.08466e-06
2.6065e-06
2.21314e-06
2.20955e-06
3.05366e-06
3.02865e-06
3.18941e-06
3.15142e-06
2.82815e-06
2.54044e-06
2.79993e-06
2.27536e-06
2.31579e-06
2.90029e-06
3.01212e-06
2.99161e-06
2.35982e-06
2.36711e-06
2.42693e-06
3.11787e-06
2.62179e-06
3.22563e-06
2.70819e-06
2.20578e-06
2.24116e-06
3.23419e-06
3.19461e-06
3.36315e-06
3.3287e-06
2.79926e-06
2.68383e-06
2.84264e-06
2.30486e-06
2.36063e-06
3.02735e-06
3.15185e-06
3.13847e-06
2.31135e-06
2.4248e-06
2.48499e-06
3.26251e-06
2.76596e-06
3.38642e-06
2.91549e-06
2.23991e-06
2.24638e-06
3.40757e-06
3.37038e-06
3.53727e-06
3.51049e-06
2.86288e-06
2.83246e-06
2.94817e-06
2.36013e-06
2.4354e-06
3.17583e-06
3.32151e-06
3.27857e-06
2.30962e-06
2.47327e-06
2.54588e-06
3.42477e-06
2.9606e-06
3.56231e-06
3.08467e-06
2.24101e-06
2.27643e-06
3.5756e-06
3.55649e-06
3.68966e-06
3.70125e-06
2.99074e-06
3.01894e-06
3.14005e-06
2.42727e-06
2.5072e-06
3.31594e-06
3.50483e-06
3.43369e-06
2.32826e-06
2.5327e-06
2.59434e-06
3.60833e-06
3.13634e-06
3.72728e-06
3.283e-06
2.25762e-06
2.26439e-06
3.73385e-06
3.74872e-06
3.89788e-06
3.89433e-06
3.19093e-06
3.23383e-06
3.33712e-06
2.49301e-06
2.54402e-06
3.47306e-06
3.69554e-06
3.59953e-06
2.3368e-06
2.5758e-06
2.60466e-06
3.76442e-06
3.32558e-06
3.89928e-06
3.47265e-06
2.24341e-06
2.25028e-06
3.95518e-06
3.93511e-06
4.0979e-06
4.07549e-06
3.38096e-06
3.45137e-06
3.55986e-06
2.52539e-06
2.55755e-06
3.6419e-06
3.90667e-06
3.76572e-06
2.35533e-06
2.5822e-06
2.59607e-06
3.95403e-06
3.51148e-06
4.14548e-06
3.67209e-06
2.23107e-06
2.22651e-06
4.13972e-06
4.11472e-06
4.27877e-06
4.25791e-06
3.62162e-06
3.68137e-06
3.82247e-06
2.54115e-06
2.57242e-06
3.811e-06
4.11927e-06
3.93494e-06
2.36531e-06
2.57326e-06
2.57658e-06
4.20706e-06
3.73599e-06
4.38668e-06
3.93021e-06
2.2088e-06
2.21846e-06
4.32768e-06
4.30609e-06
4.50621e-06
4.44477e-06
3.88479e-06
3.90419e-06
4.05329e-06
2.55376e-06
2.54665e-06
3.98342e-06
4.36397e-06
4.12e-06
2.3671e-06
2.55304e-06
2.55432e-06
4.44889e-06
4.00618e-06
4.61771e-06
4.21127e-06
2.20524e-06
2.27234e-06
4.5639e-06
4.49188e-06
4.73804e-06
4.64182e-06
4.09968e-06
4.16293e-06
4.2538e-06
2.51983e-06
2.50152e-06
4.16325e-06
4.60665e-06
4.31371e-06
2.36633e-06
2.52895e-06
2.52477e-06
4.67258e-06
4.27621e-06
4.8423e-06
4.48173e-06
2.25521e-06
2.31098e-06
4.79701e-06
4.70295e-06
4.98417e-06
4.8749e-06
4.30079e-06
4.50798e-06
4.43966e-06
2.4748e-06
2.47143e-06
4.37121e-06
4.86615e-06
4.53528e-06
2.3139e-06
2.49453e-06
2.49129e-06
4.90217e-06
4.54724e-06
5.05906e-06
4.71132e-06
2.28673e-06
2.32337e-06
5.0531e-06
4.93182e-06
5.22774e-06
5.10987e-06
4.49362e-06
4.83329e-06
4.66255e-06
2.4437e-06
2.46797e-06
4.57078e-06
5.12532e-06
4.71326e-06
2.23859e-06
2.45402e-06
2.44899e-06
5.11039e-06
4.78062e-06
5.25338e-06
4.96793e-06
2.28902e-06
2.30413e-06
5.27509e-06
5.16246e-06
5.43327e-06
5.3538e-06
4.72294e-06
5.11491e-06
4.93594e-06
2.42949e-06
2.45029e-06
4.76704e-06
5.39007e-06
4.93598e-06
2.17464e-06
2.40158e-06
2.35267e-06
5.29646e-06
5.01328e-06
5.4524e-06
5.20364e-06
2.26855e-06
2.25423e-06
5.47226e-06
5.41509e-06
5.57831e-06
5.60135e-06
4.99932e-06
5.37988e-06
5.17428e-06
2.41451e-06
2.42741e-06
4.99462e-06
5.66861e-06
5.13245e-06
2.10118e-06
2.30213e-06
2.25213e-06
5.49752e-06
5.27076e-06
5.65359e-06
5.41351e-06
2.21036e-06
2.20742e-06
5.6075e-06
5.66524e-06
5.67977e-06
5.85598e-06
5.24041e-06
5.639e-06
5.40145e-06
2.39187e-06
2.4462e-06
5.17233e-06
5.91712e-06
5.29866e-06
2.08497e-06
2.20377e-06
2.18331e-06
5.70155e-06
5.4646e-06
5.82581e-06
5.70127e-06
2.16885e-06
2.22266e-06
5.713e-06
5.90973e-06
5.76613e-06
6.07885e-06
5.45135e-06
5.90122e-06
5.637e-06
2.41748e-06
2.49886e-06
5.35515e-06
6.20233e-06
5.52845e-06
2.14224e-06
2.14862e-06
2.20789e-06
5.86996e-06
5.76775e-06
5.98891e-06
5.88151e-06
2.2031e-06
2.30323e-06
5.80252e-06
6.15255e-06
5.90679e-06
6.26526e-06
5.69858e-06
6.12003e-06
5.85301e-06
2.47965e-06
2.61433e-06
5.5717e-06
6.39945e-06
5.75158e-06
2.25545e-06
2.19894e-06
2.39325e-06
6.0478e-06
5.96263e-06
6.19162e-06
6.18948e-06
2.29648e-06
2.5342e-06
5.9557e-06
6.34274e-06
6.06801e-06
6.50973e-06
5.92891e-06
6.34843e-06
6.07379e-06
2.60924e-06
2.85783e-06
5.83961e-06
6.58515e-06
5.99019e-06
2.48788e-06
2.42818e-06
2.89035e-06
6.24808e-06
6.24268e-06
6.4729e-06
6.42079e-06
2.57449e-06
3.02026e-06
6.10893e-06
6.53483e-06
6.31871e-06
6.77342e-06
6.13479e-06
6.68612e-06
6.42565e-06
2.87425e-06
3.38973e-06
6.04864e-06
6.78558e-06
6.32636e-06
3.04946e-06
2.99188e-06
3.77069e-06
6.52241e-06
6.4757e-06
6.84893e-06
6.77636e-06
3.11754e-06
3.94666e-06
6.37223e-06
6.81956e-06
6.6502e-06
7.0196e-06
6.46875e-06
7.07342e-06
6.75979e-06
3.48442e-06
4.11726e-06
6.3931e-06
6.97939e-06
6.68493e-06
3.91133e-06
3.95558e-06
5.09856e-06
7.00324e-06
6.91529e-06
7.39116e-06
7.34652e-06
4.12331e-06
5.28284e-06
6.78754e-06
7.13491e-06
7.20762e-06
7.55536e-06
6.90674e-06
7.64079e-06
7.31389e-06
4.29832e-06
5.48362e-06
6.81643e-06
7.4203e-06
7.28407e-06
5.27789e-06
5.41248e-06
7.25446e-06
7.5631e-06
7.5239e-06
8.24285e-06
8.15508e-06
5.598e-06
7.40332e-06
7.38739e-06
7.7319e-06
8.07533e-06
8.31971e-06
7.49808e-06
8.48076e-06
8.20361e-06
5.77275e-06
7.51502e-06
7.4886e-06
8.24483e-06
8.20428e-06
7.43765e-06
7.72716e-06
1.04126e-05
8.49376e-06
8.40295e-06
9.37064e-06
9.29883e-06
7.87434e-06
1.06027e-05
8.35099e-06
8.5563e-06
9.26029e-06
9.4944e-06
8.46538e-06
9.70018e-06
9.3291e-06
7.99221e-06
1.05998e-05
8.45527e-06
9.33443e-06
9.32685e-06
1.05283e-05
1.10925e-05
1.4768e-05
9.75355e-06
9.65793e-06
1.08935e-05
1.07746e-05
1.13081e-05
1.49099e-05
9.63072e-06
9.83173e-06
1.08114e-05
1.08729e-05
9.70213e-06
1.11793e-05
1.09275e-05
1.12814e-05
1.47708e-05
9.72349e-06
1.07851e-05
1.1143e-05
1.52386e-05
1.56479e-05
2.01676e-05
1.12779e-05
1.11893e-05
1.28982e-05
1.27352e-05
1.57685e-05
2.04942e-05
1.12122e-05
1.13721e-05
1.27094e-05
1.29535e-05
1.13631e-05
1.31505e-05
1.2764e-05
1.5638e-05
2.01694e-05
1.17043e-05
1.26311e-05
1.3783e-05
2.08292e-05
2.13571e-05
2.71108e-05
1.35697e-05
1.33326e-05
1.53859e-05
1.51614e-05
2.16727e-05
2.70686e-05
1.33312e-05
1.33839e-05
1.52058e-05
1.50885e-05
1.32638e-05
1.56097e-05
1.49055e-05
2.12081e-05
2.6527e-05
1.45747e-05
1.50325e-05
1.65817e-05
2.70416e-05
2.83604e-05
3.42411e-05
1.59964e-05
1.58145e-05
1.84203e-05
1.80173e-05
2.83553e-05
3.43543e-05
1.58681e-05
1.5941e-05
1.82843e-05
1.85214e-05
1.55362e-05
1.84203e-05
1.78435e-05
2.78912e-05
3.43725e-05
1.7165e-05
1.81789e-05
1.91782e-05
3.38515e-05
3.57052e-05
4.19304e-05
1.93801e-05
1.88096e-05
2.22901e-05
2.13603e-05
3.56661e-05
4.12833e-05
1.9144e-05
1.92087e-05
2.15957e-05
2.11799e-05
1.8779e-05
2.15143e-05
2.20654e-05
3.58177e-05
4.11715e-05
1.98735e-05
2.13694e-05
2.20038e-05
4.1963e-05
4.33117e-05
4.87443e-05
2.32194e-05
2.22991e-05
2.5906e-05
2.5361e-05
4.26914e-05
4.85183e-05
2.24484e-05
2.20488e-05
2.53579e-05
2.54675e-05
2.32214e-05
2.54417e-05
2.63165e-05
4.23547e-05
4.7984e-05
2.27895e-05
2.521e-05
2.52707e-05
4.85819e-05
5.00714e-05
5.58126e-05
2.68643e-05
2.64634e-05
3.01485e-05
3.00761e-05
4.99011e-05
5.56889e-05
2.6477e-05
2.67424e-05
3.02497e-05
3.04522e-05
2.72903e-05
3.0138e-05
3.05238e-05
4.95279e-05
5.59602e-05
2.62142e-05
3.01889e-05
2.98073e-05
5.54884e-05
5.72855e-05
6.31325e-05
3.13554e-05
3.13669e-05
3.53797e-05
3.55656e-05
5.71639e-05
6.31181e-05
3.15839e-05
3.16436e-05
3.56922e-05
3.54396e-05
3.17052e-05
3.53914e-05
3.56646e-05
5.74386e-05
6.30706e-05
3.11965e-05
3.55739e-05
3.56466e-05
6.29747e-05
6.45706e-05
7.02759e-05
3.68892e-05
3.7107e-05
4.17349e-05
4.19767e-05
6.45916e-05
7.03634e-05
3.71452e-05
3.68834e-05
4.18585e-05
4.17841e-05
3.71562e-05
4.18725e-05
4.18017e-05
6.44592e-05
7.01938e-05
3.72288e-05
4.17447e-05
4.20558e-05
7.00394e-05
7.16685e-05
7.66968e-05
4.33955e-05
4.36354e-05
4.85209e-05
4.88645e-05
7.17403e-05
7.66962e-05
4.35195e-05
4.35176e-05
4.86971e-05
4.88601e-05
4.33369e-05
4.84801e-05
4.81643e-05
7.16563e-05
7.71039e-05
4.36381e-05
4.88206e-05
4.85518e-05
7.63077e-05
7.79265e-05
8.2958e-05
5.03303e-05
5.07293e-05
5.61386e-05
5.65452e-05
7.79362e-05
8.3064e-05
5.04873e-05
5.06974e-05
5.61081e-05
5.63635e-05
4.99402e-05
5.59547e-05
5.57454e-05
7.83937e-05
8.33632e-05
5.03309e-05
5.70976e-05
5.60773e-05
8.29241e-05
8.43183e-05
8.84268e-05
5.79829e-05
5.83493e-05
6.22588e-05
6.24837e-05
8.44326e-05
8.84948e-05
5.79173e-05
5.81369e-05
6.22538e-05
6.23012e-05
5.76066e-05
6.21422e-05
6.2003e-05
8.46646e-05
8.85196e-05
5.79169e-05
6.31454e-05
6.226e-05
8.84764e-05
8.91934e-05
9.02476e-05
6.32089e-05
6.33982e-05
6.47343e-05
6.48812e-05
8.92546e-05
9.02978e-05
6.32491e-05
6.32517e-05
6.48603e-05
6.47958e-05
6.3013e-05
6.47772e-05
6.47017e-05
8.92563e-05
9.0273e-05
6.32435e-05
6.52759e-05
6.48305e-05
9.03035e-05
9.04413e-05
9.03727e-05
6.49467e-05
6.50906e-05
6.59652e-05
6.60657e-05
9.04905e-05
9.0401e-05
6.5079e-05
6.50083e-05
6.60624e-05
6.60213e-05
6.4945e-05
6.59901e-05
6.59711e-05
9.04644e-05
9.04049e-05
6.50452e-05
6.62956e-05
6.60154e-05
9.03999e-05
9.06621e-05
9.34244e-05
6.67822e-05
6.68558e-05
7.1814e-05
7.18217e-05
9.06823e-05
9.33997e-05
6.68603e-05
6.68385e-05
7.18426e-05
7.18711e-05
6.67758e-05
7.17811e-05
7.1784e-05
9.06957e-05
9.34695e-05
6.6809e-05
7.19903e-05
7.17933e-05
9.34013e-05
9.46115e-05
0.000101493
7.44343e-05
7.44308e-05
8.44646e-05
8.44515e-05
9.45857e-05
0.000101474
7.44524e-05
7.44895e-05
8.4461e-05
8.45065e-05
7.44031e-05
8.4428e-05
8.44454e-05
9.46552e-05
0.000101525
7.44081e-05
8.4541e-05
8.44393e-05
0.000101479
0.00010321
0.000111668
8.8216e-05
8.82025e-05
0.000100268
0.000100256
0.000103194
0.000111658
8.82094e-05
8.82521e-05
0.000100259
0.000100289
8.82032e-05
0.000100247
0.00010027
0.00010324
0.000111685
8.8194e-05
0.0001003
0.000100258
0.000111666
0.000113559
0.000123064
0.000104627
0.000104615
0.00011817
0.000118159
0.00011355
0.00012306
0.000104619
0.000104643
0.000118165
0.000118176
0.000104631
0.000118168
0.000118176
0.000113573
0.000123068
0.00010462
0.000118186
0.000118173
0.000123064
0.000124907
0.000131854
0.00012243
0.000122419
0.000132881
0.000132871
0.000124904
0.000131851
0.000122427
0.000122433
0.000132883
0.000132877
0.000122438
0.000132888
0.000132893
0.000124909
0.000131853
0.000122436
0.000132897
0.000132894
0.000131858
0.00013288
0.000136017
0.000135475
0.000135465
0.000140924
0.000140913
0.000132878
0.000136016
0.000135479
0.000135469
0.000140931
0.000140914
0.000135487
0.000140937
0.000140936
0.000132879
0.000136015
0.00013549
0.000140942
0.000140941
0.000136021
0.000136454
0.000137779
0.000142109
0.000142098
0.00014435
0.00014434
0.000136454
0.000137779
0.000142116
0.000142098
0.000144359
0.000144339
0.000142121
0.000144368
0.000144363
0.000136452
0.000137777
0.000142127
0.00014437
0.00014437
0.000137783
0.000137917
0.000138422
0.000144784
0.000144774
0.000145557
0.000145547
0.000137918
0.000138424
0.000144794
0.000144773
0.000145567
0.000145546
0.000144797
0.000145579
0.00014557
0.000137915
0.00013842
0.000144805
0.000145578
0.000145578
0.000138427
0.000138433
0.000138663
0.000145706
0.000145695
0.000145967
0.000145957
0.000138435
0.000138664
0.000145716
0.000145694
0.000145977
0.000145954
0.000145718
0.000145988
0.000145978
0.000138431
0.000138659
0.000145727
0.000145987
0.000145988
0.000138667
0.000138639
0.000138752
0.000146004
0.000145993
0.000146028
0.000146017
0.00013864
0.000138754
0.000146014
0.000145991
0.000146037
0.000146015
0.000146015
0.000146049
0.000146039
0.000138635
0.000138749
0.000146024
0.000146047
0.000146048
0.000138756
0.000138696
0.000138589
0.000146018
0.000146007
0.000146001
0.00014599
0.000138698
0.00013859
0.000146026
0.000146004
0.00014601
0.000145988
0.000146028
0.000146021
0.000146012
0.000138693
0.000138586
0.000146037
0.00014602
0.000146021
0.000138593
0.000138549
0.000138722
0.000145999
0.000145988
0.000146037
0.000146027
0.000138549
0.000138723
0.000146008
0.000145986
0.000146046
0.000146024
0.00014601
0.000146059
0.000146048
0.000138546
0.000138718
0.000146019
0.000146057
0.000146057
0.000138726
0.000138698
0.000138683
0.000146043
0.000146033
0.000146021
0.000146009
0.0001387
0.000138678
0.000146052
0.00014603
0.000146029
0.000146006
0.000146053
0.000146041
0.000146029
0.000138696
0.00013867
0.000146063
0.000146038
0.000146037
0.000138675
0.000138619
0.000138654
0.000146013
0.000146001
0.000146025
0.000146015
0.000138613
0.000138666
0.000146021
0.000145998
0.000146032
0.000146011
0.000146022
0.000146045
0.000146035
0.000138604
0.000138665
0.00014603
0.000146045
0.000146047
0.000138675
0.000138652
0.000138678
0.000146033
0.000146022
0.000146022
0.00014601
0.00013866
0.000138671
0.000146041
0.000146019
0.00014603
0.000146007
0.000146042
0.000146041
0.000146031
0.000138657
0.000138664
0.000146053
0.00014604
0.00014604
0.000138671
0.000138612
0.000138702
0.00014602
0.000146009
0.000146025
0.000146015
0.000138605
0.000138714
0.000146028
0.000146006
0.000146032
0.000146011
0.00014603
0.000146045
0.000146035
0.000138598
0.00013871
0.000146039
0.000146043
0.000146042
0.000138716
0.00013869
0.000138613
0.000146024
0.000146013
0.000146024
0.000146013
0.0001387
0.000138609
0.000146032
0.00014601
0.000146031
0.00014601
0.000146033
0.000146045
0.000146034
0.000138696
0.000138603
0.000146042
0.000146044
0.000146044
0.000138611
0.00013856
0.000138743
0.000146027
0.000146017
0.000146023
0.000146011
0.000138564
0.000138727
0.000146032
0.000146011
0.000146031
0.000146007
0.000146036
0.000146043
0.000146032
0.000138561
0.000138713
0.000146045
0.00014604
0.000146039
0.000138726
0.000138675
0.000138702
0.000146022
0.00014601
0.000146029
0.000146018
0.000138654
0.000138722
0.000146031
0.000146007
0.000146033
0.000146012
0.000146032
0.000146049
0.000146038
0.000138639
0.000138722
0.00014604
0.000146048
0.000146049
0.000138727
0.00013869
0.000138615
0.000146026
0.000146013
0.000146025
0.000146016
0.0001387
0.000138654
0.000146031
0.000146008
0.000146032
0.000146012
0.000146032
0.000146049
0.000146038
0.000138695
0.000138659
0.000146043
0.000146046
0.000146045
0.000138649
0.000138614
0.000138638
0.000146028
0.000146017
0.000146024
0.000146012
0.000138661
0.000138616
0.000146034
0.000146012
0.000146032
0.000146009
0.00014604
0.000146041
0.000146029
0.000138662
0.000138615
0.000146048
0.000146039
0.000146038
0.000138618
0.000138577
0.000138723
0.000146024
0.000146015
0.000146025
0.000146012
0.000138595
0.000138647
0.000146032
0.000146011
0.000146033
0.000146009
0.000146033
0.000146044
0.000146033
0.000138604
0.000138632
0.000146041
0.000146043
0.000146043
0.000138677
0.00013865
0.000138729
0.000146025
0.000146013
0.000146025
0.000146013
0.000138585
0.000138719
0.000146032
0.000146011
0.000146032
0.000146007
0.00014603
0.000146048
0.000146036
0.000138581
0.000138656
0.00014604
0.000146044
0.000146044
0.00013873
0.000138698
0.00013868
0.000146024
0.000146012
0.000146027
0.000146016
0.000138647
0.000138725
0.000146032
0.000146008
0.000146033
0.000146009
0.000146034
0.000146045
0.000146035
0.000138593
0.000138667
0.000146042
0.000146041
0.000146045
0.000138739
0.000138676
0.00013863
0.000146026
0.000146013
0.000146026
0.000146017
0.000138683
0.000138725
0.000146031
0.000146007
0.000146034
0.000146012
0.000146033
0.000146048
0.000146035
0.000138597
0.000138701
0.000146042
0.000146044
0.000146042
0.000138648
0.00013863
0.000138635
0.000146027
0.000146013
0.000146025
0.000146021
0.000138683
0.000138725
0.000146034
0.000146008
0.000146031
0.000146012
0.000146035
0.000146053
0.000146037
0.000138624
0.000138736
0.000146044
0.000146048
0.000146047
0.000138679
0.000138605
0.000138627
0.000146027
0.000146022
0.000146026
0.00014601
0.000138713
0.000138599
0.000146033
0.000146011
0.000146032
0.000146008
0.000146035
0.000146043
0.000146036
0.000138691
0.000138676
0.000146043
0.000146043
0.000146045
0.000138677
0.000138617
0.000138628
0.000146032
0.000146016
0.00014602
0.000146015
0.000138577
0.000138717
0.000146036
0.000146011
0.000146027
0.000146008
0.000146041
0.000146044
0.00014603
0.000138662
0.000138679
0.000146049
0.000146041
0.000146039
0.000138608
0.000138565
0.000138748
0.00014602
0.000146012
0.000146032
0.000146018
0.000138645
0.000138709
0.000146027
0.000146008
0.000146038
0.000146013
0.000146032
0.000146053
0.000146038
0.000138648
0.000138724
0.000146042
0.000146045
0.000146044
0.000138707
0.00013871
0.000138619
0.000146027
0.000146017
0.000146026
0.000146014
0.000138693
0.000138615
0.000146033
0.000146009
0.000146031
0.00014601
0.000146031
0.000146044
0.000146039
0.000138693
0.000138663
0.000146039
0.000146043
0.000146048
0.000138729
0.000138618
0.000138655
0.000146027
0.000146014
0.000146025
0.000146015
0.000138593
0.00013867
0.000146034
0.00014601
0.000146032
0.000146011
0.000146041
0.000146042
0.00014603
0.000138648
0.0001387
0.000146047
0.000146043
0.000146041
0.000138626
0.000138589
0.000138738
0.000146025
0.000146014
0.000146026
0.000146015
0.000138603
0.00013874
0.000146032
0.000146009
0.000146032
0.000146011
0.000146033
0.00014605
0.000146035
0.000138661
0.00013873
0.000146046
0.000146043
0.000146041
0.000138644
0.000138672
0.000138724
0.000146026
0.000146014
0.000146029
0.000146016
0.000138681
0.000138714
0.000146032
0.000146012
0.000146032
0.000146009
0.000146032
0.00014605
0.000146034
0.000138694
0.00013869
0.000146042
0.000146043
0.00014604
0.000138719
0.000138702
0.000138662
0.00014603
0.000146018
0.000146024
0.000146013
0.000138697
0.000138653
0.000146032
0.000146009
0.000146035
0.000146011
0.000146034
0.000146046
0.000146033
0.000138683
0.00013862
0.000146039
0.000146043
0.000146049
0.000138749
0.000138667
0.000138613
0.000146026
0.000146014
0.000146029
0.000146014
0.000138661
0.000138608
0.000146034
0.000146011
0.000146034
0.000146009
0.000146033
0.000146044
0.000146035
0.000138629
0.00013862
0.000146042
0.000146041
0.000146043
0.000138713
0.000138601
0.000138638
0.000146028
0.000146014
0.000146026
0.000146014
0.000138584
0.000138662
0.000146037
0.000146012
0.000146028
0.000146008
0.000146034
0.000146046
0.000146035
0.000138565
0.000138709
0.000146046
0.000146045
0.000146041
0.000138651
0.00013858
0.000138678
0.000146029
0.000146014
0.000146025
0.000146015
0.000138592
0.000138746
0.000146031
0.000146008
0.000146034
0.000146013
0.000146036
0.00014605
0.000146033
0.000138636
0.000138719
0.000146041
0.000146048
0.000146041
0.000138616
0.00013861
0.00013868
0.000146026
0.000146014
0.000146027
0.000146017
0.000138694
0.000138692
0.000146032
0.000146011
0.000146033
0.000146009
0.000146036
0.000146046
0.000146033
0.000138694
0.000138635
0.000146042
0.000146043
0.000146041
0.000138634
0.000138605
0.000138737
0.000146025
0.000146016
0.00014603
0.000146016
0.000138682
0.000138627
0.000146032
0.00014601
0.000146036
0.000146008
0.000146033
0.000146046
0.000146034
0.000138637
0.000138624
0.000146042
0.000146041
0.000146041
0.000138666
0.000138667
0.000138715
0.000146028
0.000146017
0.00014603
0.000146014
0.000138622
0.000138633
0.000146035
0.000146008
0.000146036
0.000146009
0.000146034
0.000146045
0.000146035
0.000138572
0.000138682
0.000146042
0.000146042
0.000146042
0.000138665
0.0001387
0.000138606
0.000146032
0.000146016
0.000146025
0.000146014
0.000138584
0.000138662
0.000146039
0.00014601
0.000146031
0.000146009
0.000146037
0.000146044
0.000146033
0.000138612
0.0001387
0.000146044
0.000146041
0.000146041
0.000138653
0.000138601
0.000138655
0.000146029
0.000146015
0.000146025
0.000146014
0.000138596
0.000138699
0.000146034
0.00014601
0.000146031
0.000146008
0.000146035
0.000146044
0.000146034
0.000138628
0.00013871
0.000146042
0.000146042
0.000146042
0.000138686
0.000138586
0.000138739
0.000146025
0.000146014
0.000146026
0.000146014
0.000138625
0.000138724
0.000146031
0.000146008
0.000146032
0.000146009
0.000146033
0.000146044
0.000146034
0.000138639
0.000138717
0.000146041
0.000146041
0.000146041
0.000138725
0.00013868
0.000138707
0.000146025
0.000146013
0.000146025
0.000146014
0.000138656
0.000138725
0.000146031
0.000146008
0.000146031
0.000146009
0.000146033
0.000146044
0.000146033
0.000138654
0.000138724
0.000146041
0.000146041
0.00014604
0.000138715
0.000138685
0.000138675
0.000146026
0.000146014
0.000146024
0.000146013
0.000138672
0.000138726
0.000146032
0.000146009
0.00014603
0.000146008
0.000146034
0.000146043
0.000146031
0.000138673
0.000138715
0.000146041
0.000146042
0.00014604
0.000138691
0.000138665
0.000138686
0.000146026
0.000146014
0.000146024
0.000146013
0.00013868
0.000138722
0.000146033
0.00014601
0.000146029
0.000146007
0.000146034
0.000146042
0.00014603
0.000138686
0.000138677
0.000146042
0.000146038
0.000146038
0.000138691
0.000138671
0.000138701
0.000146026
0.000146015
0.000146023
0.000146012
0.000138691
0.000138697
0.000146032
0.00014601
0.000146029
0.000146007
0.000146033
0.000146042
0.000146031
0.000138664
0.000138669
0.000146041
0.000146038
0.000146037
0.000138705
0.000138682
0.000138684
0.000146027
0.000146016
0.000146023
0.000146011
0.000138681
0.000138677
0.000146033
0.00014601
0.000146028
0.000146006
0.000146033
0.000146042
0.000146031
0.000138655
0.000138703
0.00014604
0.00014604
0.000146038
0.000138711
0.000138673
0.000138657
0.000146027
0.000146015
0.000146023
0.000146011
0.000138667
0.000138682
0.000146033
0.00014601
0.000146029
0.000146006
0.000146034
0.000146041
0.00014603
0.00013868
0.000138689
0.000146041
0.000146039
0.000146038
0.000138713
0.000138656
0.000138637
0.000146028
0.000146016
0.000146022
0.000146012
0.000138669
0.000138696
0.000146033
0.000146011
0.000146029
0.000146006
0.000146035
0.000146042
0.00014603
0.00013868
0.000138617
0.000146043
0.000146036
0.000146036
0.0001387
0.000138633
0.000138636
0.000146029
0.000146017
0.000146022
0.000146012
0.000138679
0.000138691
0.000146036
0.000146013
0.000146028
0.000146005
0.000146036
0.000146043
0.00014603
0.000138619
0.000138631
0.000146042
0.000146037
0.000146037
0.000138679
0.000138618
0.000138644
0.000146031
0.00014602
0.000146023
0.000146012
0.00013868
0.000138663
0.000146038
0.000146013
0.000146029
0.000146007
0.000146039
0.000146042
0.00014603
0.000138574
0.000138706
0.000146044
0.00014604
0.000146039
0.000138696
0.000138628
0.00013866
0.000146034
0.000146023
0.000146026
0.000146015
0.000138663
0.000138646
0.00014604
0.000146016
0.000146033
0.00014601
0.00014604
0.000146045
0.000146035
0.000138642
0.000138686
0.000146048
0.000146042
0.000146041
0.000138721
0.000138648
0.000138682
0.000146039
0.000146029
0.000146033
0.000146021
0.000138639
0.000138652
0.000146045
0.000146023
0.00014604
0.000146018
0.000146046
0.000146053
0.000146042
0.000138641
0.000138674
0.000146054
0.000146048
0.000146048
0.000138711
0.000138671
0.000138681
0.00014605
0.000146039
0.000146047
0.000146036
0.000138629
0.000138669
0.000146057
0.000146034
0.000146053
0.000146031
0.000146058
0.000146065
0.000146053
0.000138634
0.000138681
0.000146065
0.000146062
0.000146062
0.000138694
0.000138668
0.000138927
0.000146027
0.000146016
0.000147007
0.000146999
0.000138642
0.00013893
0.000146034
0.000146011
0.000147016
0.000146993
0.000146033
0.000147028
0.000147013
0.00013866
0.000138929
0.000146041
0.000147026
0.000147026
0.00013892
0.000139457
0.000145376
0.000145369
0.000139456
0.000145385
0.000145362
0.000138883
0.000138878
0.000138888
0.00014538
0.000139456
0.000145392
5.861e-05
7.99716e-06
3.90755e-05
3.90671e-05
6.32339e-07
2.21898e-06
7.58641e-07
2.33125e-05
6.37104e-07
2.49073e-06
2.34446e-05
1.94681e-06
2.38578e-06
1.92027e-06
2.14254e-06
1.03631e-06
1.35044e-05
9.51952e-07
1.52453e-05
1.28113e-05
1.38053e-05
1.08022e-06
1.52181e-05
1.00846e-06
1.68339e-05
2.17427e-05
2.20323e-05
2.1713e-05
2.18832e-05
2.16158e-05
2.19301e-05
2.15499e-05
6.5639e-07
3.44114e-07
9.63888e-06
2.23169e-06
6.40507e-07
4.54174e-07
9.5569e-06
1.07965e-05
1.29727e-05
6.66124e-07
9.93671e-06
6.43708e-07
2.72538e-06
6.5546e-07
9.85053e-06
1.26575e-06
1.50855e-06
1.52485e-06
2.41008e-06
1.7128e-06
1.73468e-06
1.34029e-06
1.86631e-05
1.14102e-06
2.08486e-05
1.69045e-05
1.91395e-05
1.38667e-06
1.94023e-05
1.19145e-06
2.10427e-05
2.17589e-05
2.20778e-05
2.16898e-05
2.24901e-05
2.21961e-05