/*--------------------------------*- C++ -*----------------------------------*\
| =========                 |                                                 |
| \\      /  F ield         | OpenFOAM: The Open Source CFD Toolbox           |
|  \\    /   O peration     | Version:  v2012                                 |
|   \\  /    A nd           | Website:  www.openfoam.com                      |
|    \\/     M anipulation  |                                                 |
\*---------------------------------------------------------------------------*/
FoamFile
{
    version     2.0;
    format      ascii;
    class       volScalarField;
    location    "175";
    object      p;
}
// * * * * * * * * * * * * * * * * * * * * * * * * * * * * * * * * * * * * * //

dimensions      [0 2 -2 0 0 0 0];


internalField   nonuniform List<scalar> 
171728
(
0.00352506
0.0035243
0.0035241
0.00352537
0.00348889
0.00348778
0.00348784
0.00349074
0.00345171
0.00345002
0.00345011
0.00345235
0.00340714
0.0034057
0.00340574
0.00340815
0.00335882
0.00335739
0.0033574
0.00336
0.00331054
0.00330922
0.00330923
0.00331176
0.00326259
0.00326142
0.00326142
0.00326402
0.00321533
0.00321424
0.00321425
0.00321681
0.00316917
0.00316816
0.00316816
0.00317075
0.00312393
0.00312301
0.00312303
0.00312563
0.00307962
0.0030788
0.00307881
0.0030814
0.00303606
0.00303534
0.00303533
0.00303793
0.00299303
0.00299237
0.00299237
0.00299494
0.0029504
0.0029498
0.0029498
0.00295239
0.00290804
0.00290759
0.00290756
0.0029101
0.00286602
0.00286556
0.00286559
0.0028681
0.00282432
0.00282391
0.00282393
0.00282646
0.00278297
0.00278258
0.00278262
0.00278505
0.00274196
0.00274161
0.00274163
0.00274401
0.00270131
0.00270097
0.00270097
0.0027033
0.00266097
0.00266065
0.00266064
0.0026629
0.00262095
0.00262064
0.00262066
0.00262284
0.00258122
0.00258095
0.00258093
0.00258312
0.00254177
0.0025415
0.00254152
0.00254372
0.00250261
0.00250236
0.00250235
0.00250461
0.0024637
0.00246347
0.00246345
0.0024658
0.00242506
0.00242484
0.00242486
0.00242729
0.00238669
0.00238652
0.00238652
0.00238898
0.00234859
0.00234845
0.00234848
0.00235092
0.00231075
0.00231063
0.00231064
0.00231307
0.00227326
0.00227318
0.00227318
0.00227553
0.00223611
0.00223606
0.00223607
0.00223831
0.00219952
0.0021995
0.0021995
0.00220164
0.00216363
0.00216366
0.00216366
0.0021657
0.00212842
0.00212853
0.00212851
0.00213049
0.00209341
0.00209361
0.00209358
0.00209553
0.00205811
0.00205824
0.00205823
0.00206019
0.00202233
0.00202239
0.0020224
0.00202444
0.0019863
0.00198634
0.00198635
0.00198841
0.00195073
0.00195065
0.00195065
0.00195266
0.00191574
0.00191549
0.00191549
0.00191743
0.00188128
0.00188079
0.0018808
0.00188268
0.00184676
0.0018462
0.0018462
0.00184807
0.0018118
0.00181137
0.00181137
0.0018133
0.00177655
0.00177632
0.00177632
0.0017783
0.00174114
0.00174103
0.00174103
0.00174306
0.00170563
0.00170557
0.00170557
0.00170762
0.00167006
0.00167002
0.00167002
0.00167208
0.00163446
0.00163443
0.00163443
0.0016365
0.00159887
0.00159884
0.00159884
0.00160091
0.00156328
0.00156325
0.00156325
0.00156532
0.00152769
0.00152766
0.00152766
0.00152972
0.0014921
0.00149207
0.00149207
0.00149414
0.00145651
0.00145648
0.00145648
0.00145854
0.00142091
0.00142088
0.00142088
0.00142295
0.00138532
0.00138529
0.00138529
0.00138736
0.00134973
0.00134969
0.00134969
0.00135176
0.00131413
0.0013141
0.0013141
0.00131617
0.00127854
0.00127851
0.00127851
0.00128058
0.00124294
0.00124291
0.00124291
0.00124498
0.00120735
0.00120732
0.00120732
0.00120938
0.00117175
0.00117172
0.00117172
0.00117379
0.00113616
0.00113613
0.00113613
0.00113819
0.00110056
0.00110053
0.00110053
0.0011026
0.00106497
0.00106494
0.00106493
0.001067
0.00102937
0.00102934
0.00102934
0.00103141
0.000993774
0.000993742
0.000993744
0.000995813
0.000958178
0.000958146
0.000958145
0.000960213
0.000922583
0.000922554
0.00092255
0.000924619
0.000886988
0.000886957
0.000886957
0.000889027
0.000851394
0.000851361
0.000851364
0.000853432
0.000815801
0.00081577
0.000815771
0.000817837
0.000780209
0.00078018
0.000780179
0.000782243
0.000744617
0.000744587
0.000744587
0.000746653
0.000709026
0.000708994
0.000708993
0.000711064
0.000673436
0.000673403
0.000673403
0.000675474
0.000637845
0.000637813
0.000637815
0.000639883
0.000602254
0.000602223
0.000602224
0.000604291
0.000566662
0.000566633
0.000566632
0.0005687
0.000531069
0.000531039
0.000531038
0.000533107
0.000495476
0.000495444
0.000495444
0.000497512
0.000459883
0.00045985
0.00045985
0.000461917
0.000424289
0.000424257
0.000424256
0.000426324
0.000388696
0.000388665
0.000388664
0.000390731
0.000353103
0.000353072
0.000353074
0.000355138
0.000317511
0.00031748
0.000317479
0.000319544
0.000281919
0.000281889
0.000281887
0.000283951
0.000246329
0.000246299
0.000246299
0.000248359
0.000210738
0.000210707
0.00021071
0.000212765
0.000175146
0.000175118
0.000175117
0.000177169
0.000139552
0.000139527
0.000139524
0.000141565
0.000103947
0.000103928
0.000103929
0.000105948
6.8353e-05
6.83271e-05
6.83261e-05
7.03153e-05
3.36049e-05
3.31231e-05
3.31191e-05
3.48711e-05
5.20456e-06
5.2511e-06
5.25094e-06
4.44647e-06
0.00353033
0.00352844
0.00352833
0.00353023
0.00352839
0.00352841
0.00353378
0.00353378
0.00353378
0.00353374
0.0035284
0.00352836
0.00353037
0.00352839
0.00352839
0.00353032
0.00352531
0.00349529
0.00352427
0.00352419
0.00349698
0.00349726
0.00352549
0.00349529
0.00352426
0.00352424
0.00349715
0.00349697
0.00352423
0.00349701
0.00349711
0.00352535
0.00349531
0.00352424
0.00349701
0.00349706
0.00349535
0.0034907
0.00345774
0.00348781
0.00348784
0.00345983
0.00345985
0.00349072
0.00345774
0.00348786
0.00348777
0.00345984
0.00345982
0.00348773
0.00345989
0.00345988
0.00349073
0.00345775
0.00348776
0.00345979
0.00345988
0.00345775
0.00345235
0.00341437
0.00345007
0.00345017
0.00341738
0.00341748
0.00345235
0.00341437
0.00345003
0.00345006
0.00341742
0.00341736
0.00345002
0.00341737
0.00341739
0.00345237
0.00341438
0.00345005
0.00341737
0.00341735
0.00341438
0.00340814
0.00336642
0.00340574
0.00340581
0.00336955
0.00336958
0.00340814
0.0033664
0.00340567
0.00340573
0.00336957
0.00336955
0.00340572
0.00336954
0.00336962
0.00340816
0.00336644
0.00340576
0.00336958
0.00336965
0.00336642
0.00336
0.00331812
0.00335741
0.00335741
0.00332122
0.0033211
0.00335997
0.00331813
0.00335741
0.00335743
0.00332122
0.00332126
0.00335739
0.00332125
0.00332124
0.00336002
0.00331813
0.0033574
0.00332125
0.00332125
0.00331812
0.00331178
0.00327026
0.00330923
0.00330916
0.00327334
0.00327333
0.00331178
0.00327025
0.00330922
0.00330922
0.00327335
0.00327337
0.00330918
0.00327334
0.00327337
0.00331178
0.00327026
0.00330916
0.00327335
0.00327339
0.00327028
0.00326398
0.00322298
0.00326141
0.0032614
0.00322593
0.00322593
0.00326397
0.00322298
0.0032614
0.00326139
0.00322592
0.00322594
0.00326143
0.00322593
0.00322594
0.00326398
0.00322298
0.00326144
0.00322594
0.00322595
0.00322297
0.00321684
0.00317676
0.00321425
0.00321424
0.00317961
0.0031796
0.00321683
0.00317675
0.00321425
0.00321424
0.00317961
0.00317962
0.00321425
0.0031796
0.0031796
0.00321683
0.00317676
0.00321425
0.0031796
0.0031796
0.00317676
0.00317075
0.0031315
0.00316816
0.00316816
0.00313422
0.0031342
0.00317074
0.00313149
0.00316817
0.00316816
0.00313423
0.00313423
0.00316816
0.00313421
0.00313422
0.00317076
0.00313151
0.00316817
0.00313422
0.00313423
0.00313151
0.00312562
0.00308715
0.00312301
0.00312302
0.00308977
0.00308976
0.00312561
0.00308715
0.00312301
0.00312302
0.00308977
0.00308979
0.00312302
0.00308976
0.00308977
0.00312564
0.00308716
0.00312302
0.00308979
0.00308978
0.00308717
0.0030814
0.00304359
0.0030788
0.0030788
0.00304614
0.00304614
0.00308139
0.00304359
0.0030788
0.00307881
0.00304615
0.00304615
0.0030788
0.00304615
0.00304614
0.00308141
0.00304357
0.00307881
0.00304615
0.00304615
0.00304359
0.00303792
0.00300055
0.00303532
0.00303532
0.00300307
0.00300308
0.00303792
0.00300055
0.00303533
0.00303532
0.00300308
0.00300308
0.00303534
0.00300309
0.00300305
0.00303791
0.00300055
0.00303535
0.00300307
0.00300306
0.00300054
0.00299496
0.00295793
0.00299238
0.00299237
0.00296041
0.00296043
0.00299494
0.0029579
0.00299239
0.00299238
0.0029604
0.00296041
0.00299236
0.00296044
0.00296042
0.00299497
0.00295789
0.00299236
0.00296041
0.00296042
0.00295792
0.00295241
0.00291556
0.00294984
0.0029498
0.0029181
0.0029181
0.00295234
0.00291565
0.00294983
0.00294981
0.00291809
0.00291811
0.0029498
0.00291811
0.0029181
0.00295236
0.00291561
0.00294981
0.00291811
0.0029181
0.00291559
0.00291007
0.00287355
0.00290755
0.00290758
0.00287609
0.002876
0.00291015
0.00287355
0.00290754
0.00290756
0.00287608
0.00287603
0.00290754
0.002876
0.00287603
0.0029101
0.00287355
0.00290755
0.00287603
0.00287602
0.00287354
0.0028681
0.0028318
0.00286556
0.00286556
0.00283434
0.00283431
0.00286812
0.0028318
0.00286555
0.00286559
0.00283433
0.00283433
0.00286557
0.0028343
0.00283432
0.00286813
0.00283182
0.00286557
0.00283433
0.00283432
0.00283185
0.00282641
0.00279036
0.0028239
0.00282392
0.0027929
0.0027929
0.00282643
0.00279036
0.00282389
0.00282394
0.0027929
0.00279291
0.00282395
0.0027929
0.00279288
0.00282644
0.00279038
0.00282395
0.00279291
0.00279288
0.00279037
0.00278504
0.00274927
0.00278257
0.00278259
0.00275181
0.00275183
0.00278504
0.0027493
0.00278257
0.00278261
0.00275182
0.00275183
0.00278259
0.00275183
0.00275184
0.00278506
0.00274928
0.0027826
0.00275182
0.00275183
0.00274927
0.002744
0.00270849
0.00274159
0.0027416
0.0027111
0.00271111
0.00274402
0.00270849
0.00274159
0.00274163
0.0027111
0.00271108
0.00274162
0.0027111
0.00271109
0.00274402
0.00270849
0.00274162
0.00271108
0.00271109
0.00270851
0.00270329
0.00266804
0.00270097
0.00270098
0.0026707
0.00267069
0.00270329
0.00266804
0.00270096
0.00270097
0.0026707
0.0026707
0.00270097
0.00267069
0.00267069
0.00270329
0.00266805
0.00270097
0.00267069
0.00267069
0.00266805
0.00266289
0.00262794
0.00266064
0.00266065
0.00263062
0.00263061
0.0026629
0.00262794
0.00266065
0.00266064
0.00263062
0.00263062
0.00266064
0.00263061
0.00263063
0.00266288
0.00262797
0.00266065
0.00263063
0.00263063
0.00262794
0.00262284
0.00258816
0.00262065
0.00262064
0.00259084
0.00259085
0.00262283
0.00258817
0.00262064
0.00262066
0.00259084
0.00259083
0.00262065
0.00259085
0.00259084
0.00262288
0.00258816
0.00262065
0.00259083
0.00259083
0.00258816
0.00258311
0.00254872
0.00258094
0.00258094
0.00255134
0.00255134
0.00258311
0.00254872
0.00258094
0.00258093
0.00255134
0.00255134
0.00258094
0.00255133
0.00255135
0.0025831
0.00254872
0.00258094
0.00255134
0.00255136
0.00254873
0.00254372
0.00250963
0.00254151
0.00254151
0.00251213
0.00251212
0.00254371
0.00250962
0.00254151
0.0025415
0.00251213
0.00251214
0.00254151
0.00251212
0.00251211
0.0025437
0.00250962
0.00254152
0.00251212
0.00251214
0.00250961
0.00250465
0.00247079
0.00250236
0.00250236
0.00247316
0.00247317
0.00250465
0.0024708
0.00250236
0.00250237
0.00247315
0.00247313
0.00250234
0.00247317
0.00247313
0.00250464
0.00247076
0.00250236
0.00247314
0.00247309
0.00247074
0.00246583
0.00243225
0.00246346
0.00246347
0.0024345
0.00243448
0.00246584
0.00243222
0.00246346
0.00246345
0.00243449
0.00243451
0.00246344
0.00243447
0.00243447
0.00246582
0.00243223
0.0024634
0.00243448
0.0024345
0.00243223
0.00242732
0.00239388
0.00242487
0.00242485
0.00239606
0.00239607
0.00242728
0.00239391
0.00242487
0.00242487
0.00239607
0.00239606
0.00242485
0.00239608
0.0023961
0.00242728
0.0023939
0.00242489
0.00239607
0.00239609
0.00239391
0.00238896
0.00235583
0.0023865
0.00238652
0.00235795
0.00235795
0.00238899
0.00235582
0.0023865
0.00238651
0.00235795
0.00235796
0.00238655
0.00235795
0.00235795
0.00238899
0.00235586
0.00238654
0.00235798
0.00235794
0.00235582
0.00235093
0.00231796
0.00234846
0.00234845
0.00232007
0.00232006
0.00235091
0.00231794
0.00234846
0.00234847
0.00232007
0.00232006
0.00234845
0.00232005
0.00232007
0.00235095
0.00231792
0.00234843
0.00232007
0.00232005
0.00231795
0.00231307
0.00228038
0.00231064
0.00231064
0.0022825
0.00228252
0.00231306
0.0022804
0.00231064
0.00231063
0.00228251
0.0022825
0.00231065
0.00228251
0.00228252
0.00231303
0.0022804
0.00231064
0.00228251
0.00228251
0.0022804
0.00227553
0.00224316
0.00227317
0.00227319
0.00224531
0.00224532
0.00227554
0.00224316
0.00227318
0.00227317
0.00224532
0.00224531
0.00227318
0.00224531
0.00224528
0.00227555
0.00224317
0.00227318
0.00224531
0.00224531
0.00224313
0.00223833
0.00220638
0.00223607
0.00223607
0.00220857
0.00220856
0.00223833
0.00220638
0.00223607
0.00223607
0.00220856
0.00220858
0.00223603
0.00220857
0.00220856
0.00223834
0.00220639
0.00223606
0.00220858
0.00220857
0.00220639
0.00220163
0.00217034
0.0021995
0.00219949
0.00217254
0.00217255
0.00220162
0.00217035
0.00219949
0.0021995
0.00217254
0.00217254
0.0021995
0.00217255
0.00217256
0.00220164
0.00217034
0.0021995
0.00217255
0.00217255
0.00217037
0.00216567
0.00213507
0.00216366
0.00216366
0.00213726
0.00213726
0.00216568
0.00213507
0.00216365
0.00216364
0.00213725
0.00213723
0.00216368
0.00213726
0.00213727
0.00216566
0.00213503
0.00216367
0.00213725
0.00213727
0.00213508
0.00213048
0.00210016
0.00212853
0.00212853
0.00210236
0.00210235
0.00213048
0.00210016
0.00212853
0.0021285
0.00210236
0.00210235
0.00212854
0.00210237
0.00210236
0.00213045
0.00210015
0.00212853
0.00210234
0.00210236
0.00210015
0.00209554
0.00206489
0.0020936
0.00209359
0.00206713
0.00206713
0.00209554
0.00206489
0.0020936
0.0020936
0.00206713
0.00206714
0.0020936
0.00206713
0.00206713
0.00209553
0.0020649
0.00209359
0.00206712
0.00206712
0.00206488
0.00206019
0.00202918
0.00205824
0.00205824
0.00203139
0.00203139
0.0020602
0.00202918
0.00205824
0.00205825
0.00203139
0.0020314
0.00205824
0.00203139
0.00203139
0.0020602
0.00202919
0.00205823
0.0020314
0.00203139
0.00202918
0.00202444
0.00199316
0.00202239
0.00202239
0.00199534
0.00199534
0.00202444
0.00199316
0.00202239
0.0020224
0.00199534
0.00199534
0.00202239
0.00199534
0.00199534
0.00202445
0.00199316
0.00202239
0.00199534
0.00199534
0.00199316
0.0019884
0.00195735
0.00198634
0.00198634
0.00195952
0.00195952
0.0019884
0.00195735
0.00198634
0.00198635
0.00195952
0.00195952
0.00198634
0.00195952
0.00195952
0.00198841
0.00195735
0.00198634
0.00195952
0.00195952
0.00195735
0.00195266
0.00192207
0.00195065
0.00195065
0.00192423
0.00192423
0.00195266
0.00192207
0.00195065
0.00195065
0.00192423
0.00192423
0.00195065
0.00192423
0.00192423
0.00195266
0.00192207
0.00195065
0.00192423
0.00192423
0.00192207
0.00191743
0.00188728
0.00191549
0.00191549
0.00188944
0.00188944
0.00191743
0.00188728
0.00191549
0.00191549
0.00188944
0.00188944
0.00191549
0.00188944
0.00188944
0.00191743
0.00188728
0.00191549
0.00188944
0.00188944
0.00188728
0.00188268
0.0018527
0.00188079
0.0018808
0.00185486
0.00185486
0.00188268
0.00185269
0.00188079
0.0018808
0.00185486
0.00185486
0.00188079
0.00185486
0.00185486
0.00188268
0.00185269
0.00188079
0.00185486
0.00185486
0.00185269
0.00184807
0.00181796
0.0018462
0.0018462
0.0018201
0.0018201
0.00184807
0.00181796
0.0018462
0.0018462
0.0018201
0.0018201
0.0018462
0.0018201
0.0018201
0.00184807
0.00181796
0.0018462
0.0018201
0.0018201
0.00181796
0.0018133
0.001783
0.00181137
0.00181137
0.00178511
0.0017851
0.0018133
0.00178301
0.00181137
0.00181137
0.00178511
0.00178511
0.00181137
0.00178511
0.00178511
0.0018133
0.001783
0.00181137
0.00178511
0.00178511
0.001783
0.0017783
0.00174779
0.00177632
0.00177632
0.00174987
0.00174987
0.0017783
0.00174779
0.00177632
0.00177632
0.00174987
0.00174987
0.00177632
0.00174987
0.00174987
0.0017783
0.00174779
0.00177632
0.00174987
0.00174987
0.00174779
0.00174306
0.00171238
0.00174103
0.00174103
0.00171444
0.00171444
0.00174306
0.00171238
0.00174103
0.00174103
0.00171444
0.00171444
0.00174103
0.00171444
0.00171444
0.00174306
0.00171238
0.00174103
0.00171444
0.00171444
0.00171238
0.00170762
0.00167685
0.00170557
0.00170557
0.00167891
0.00167891
0.00170762
0.00167685
0.00170557
0.00170557
0.00167891
0.00167891
0.00170557
0.00167891
0.00167891
0.00170762
0.00167685
0.00170557
0.00167891
0.00167891
0.00167685
0.00167208
0.00164127
0.00167002
0.00167002
0.00164333
0.00164333
0.00167208
0.00164127
0.00167002
0.00167002
0.00164333
0.00164333
0.00167002
0.00164333
0.00164333
0.00167208
0.00164126
0.00167002
0.00164333
0.00164333
0.00164126
0.0016365
0.00160568
0.00163443
0.00163443
0.00160774
0.00160774
0.0016365
0.00160568
0.00163443
0.00163443
0.00160774
0.00160774
0.00163443
0.00160774
0.00160774
0.0016365
0.00160568
0.00163443
0.00160774
0.00160774
0.00160568
0.00160091
0.00157009
0.00159884
0.00159884
0.00157215
0.00157215
0.00160091
0.00157009
0.00159884
0.00159884
0.00157215
0.00157215
0.00159884
0.00157215
0.00157215
0.00160091
0.00157009
0.00159884
0.00157215
0.00157215
0.00157009
0.00156532
0.00153449
0.00156325
0.00156325
0.00153655
0.00153655
0.00156532
0.00153449
0.00156325
0.00156325
0.00153655
0.00153655
0.00156325
0.00153655
0.00153656
0.00156532
0.00153449
0.00156325
0.00153655
0.00153655
0.00153449
0.00152972
0.00149891
0.00152766
0.00152766
0.00150097
0.00150097
0.00152972
0.00149891
0.00152766
0.00152766
0.00150097
0.00150097
0.00152766
0.00150097
0.00150097
0.00152972
0.00149891
0.00152766
0.00150097
0.00150097
0.00149891
0.00149414
0.00146331
0.00149207
0.00149207
0.00146537
0.00146537
0.00149414
0.00146331
0.00149207
0.00149207
0.00146537
0.00146537
0.00149207
0.00146537
0.00146537
0.00149414
0.00146331
0.00149207
0.00146537
0.00146537
0.00146331
0.00145854
0.00142772
0.00145648
0.00145648
0.00142978
0.00142978
0.00145854
0.00142772
0.00145648
0.00145648
0.00142978
0.00142978
0.00145648
0.00142978
0.00142978
0.00145854
0.00142772
0.00145648
0.00142978
0.00142978
0.00142772
0.00142295
0.00139213
0.00142088
0.00142088
0.00139419
0.00139419
0.00142295
0.00139213
0.00142088
0.00142088
0.00139419
0.00139419
0.00142088
0.00139419
0.00139419
0.00142295
0.00139213
0.00142088
0.00139419
0.00139419
0.00139213
0.00138736
0.00135653
0.00138529
0.00138529
0.00135859
0.00135859
0.00138736
0.00135653
0.00138529
0.00138529
0.00135859
0.00135859
0.00138529
0.00135859
0.00135859
0.00138736
0.00135653
0.00138529
0.00135859
0.00135859
0.00135653
0.00135176
0.00132094
0.00134969
0.00134969
0.001323
0.001323
0.00135176
0.00132094
0.00134969
0.0013497
0.001323
0.001323
0.0013497
0.001323
0.001323
0.00135176
0.00132094
0.00134969
0.001323
0.001323
0.00132094
0.00131617
0.00128534
0.0013141
0.0013141
0.00128741
0.00128741
0.00131617
0.00128534
0.0013141
0.0013141
0.00128741
0.00128741
0.0013141
0.00128741
0.00128741
0.00131617
0.00128534
0.0013141
0.00128741
0.00128741
0.00128534
0.00128058
0.00124975
0.00127851
0.00127851
0.00125181
0.00125181
0.00128057
0.00124975
0.00127851
0.00127851
0.00125181
0.00125181
0.00127851
0.00125181
0.00125181
0.00128057
0.00124975
0.00127851
0.00125181
0.00125181
0.00124975
0.00124498
0.00121415
0.00124291
0.00124291
0.00121622
0.00121622
0.00124498
0.00121415
0.00124291
0.00124291
0.00121622
0.00121622
0.00124291
0.00121621
0.00121621
0.00124498
0.00121415
0.00124291
0.00121621
0.00121621
0.00121415
0.00120938
0.00117856
0.00120732
0.00120732
0.00118062
0.00118062
0.00120939
0.00117856
0.00120732
0.00120732
0.00118062
0.00118062
0.00120732
0.00118062
0.00118062
0.00120939
0.00117856
0.00120732
0.00118062
0.00118062
0.00117856
0.00117379
0.00114296
0.00117172
0.00117172
0.00114503
0.00114503
0.00117379
0.00114296
0.00117172
0.00117172
0.00114503
0.00114502
0.00117172
0.00114503
0.00114503
0.00117379
0.00114296
0.00117172
0.00114502
0.00114503
0.00114296
0.00113819
0.00110737
0.00113613
0.00113613
0.00110943
0.00110943
0.00113819
0.00110737
0.00113613
0.00113613
0.00110943
0.00110943
0.00113613
0.00110943
0.00110943
0.0011382
0.00110737
0.00113613
0.00110943
0.00110943
0.00110737
0.0011026
0.00107177
0.00110053
0.00110053
0.00107384
0.00107384
0.0011026
0.00107177
0.00110053
0.00110053
0.00107384
0.00107384
0.00110053
0.00107384
0.00107384
0.0011026
0.00107177
0.00110053
0.00107384
0.00107384
0.00107177
0.00106701
0.00103618
0.00106494
0.00106494
0.00103824
0.00103824
0.001067
0.00103618
0.00106494
0.00106494
0.00103824
0.00103824
0.00106494
0.00103824
0.00103824
0.001067
0.00103618
0.00106494
0.00103824
0.00103824
0.00103618
0.00103141
0.00100058
0.00102934
0.00102934
0.00100264
0.00100264
0.00103141
0.00100058
0.00102934
0.00102934
0.00100264
0.00100264
0.00102934
0.00100264
0.00100264
0.00103141
0.00100058
0.00102934
0.00100264
0.00100264
0.00100058
0.000995812
0.000964983
0.000993744
0.000993743
0.000967045
0.000967046
0.00099581
0.000964985
0.000993743
0.000993743
0.000967045
0.000967046
0.000993744
0.000967047
0.000967045
0.00099581
0.000964983
0.000993745
0.000967045
0.000967044
0.000964982
0.000960213
0.00092939
0.000958145
0.000958146
0.000931452
0.000931451
0.000960214
0.00092939
0.000958145
0.000958145
0.000931452
0.000931451
0.000958145
0.000931452
0.000931453
0.000960213
0.000929389
0.000958145
0.000931451
0.000931452
0.000929389
0.000924621
0.000893793
0.000922552
0.000922551
0.000895856
0.000895856
0.000924622
0.000893793
0.000922551
0.00092255
0.000895856
0.000895857
0.000922553
0.000895853
0.000895855
0.000924619
0.000893793
0.00092255
0.000895857
0.000895857
0.000893795
0.000889025
0.000858198
0.000886957
0.000886957
0.000860262
0.000860262
0.000889025
0.000858198
0.000886957
0.000886956
0.000860262
0.000860263
0.000886958
0.000860261
0.000860261
0.000889024
0.000858199
0.000886959
0.000860263
0.000860261
0.000858199
0.00085343
0.000822606
0.000851363
0.000851363
0.000824669
0.000824669
0.000853429
0.000822607
0.000851364
0.000851364
0.000824668
0.000824668
0.000851362
0.00082467
0.000824669
0.00085343
0.000822606
0.000851365
0.000824669
0.000824666
0.000822604
0.000817837
0.000787015
0.000815771
0.000815771
0.000789075
0.000789075
0.000817837
0.000787015
0.00081577
0.00081577
0.000789076
0.000789076
0.00081577
0.000789077
0.000789076
0.000817838
0.000787015
0.000815769
0.000789076
0.000789075
0.000787012
0.000782246
0.000751424
0.000780179
0.000780178
0.000753484
0.000753484
0.000782246
0.000751423
0.000780177
0.000780177
0.000753486
0.000753485
0.000780178
0.000753483
0.000753484
0.000782247
0.000751422
0.000780175
0.000753482
0.000753486
0.000751422
0.000746656
0.000715831
0.000744586
0.000744586
0.000717894
0.000717893
0.000746655
0.00071583
0.000744588
0.000744587
0.000717892
0.000717892
0.000744586
0.000717891
0.000717894
0.000746656
0.000715829
0.000744587
0.000717891
0.000717893
0.000715832
0.000711065
0.000680239
0.000708997
0.000708996
0.0006823
0.000682301
0.000711063
0.000680239
0.000708997
0.000708996
0.000682299
0.000682301
0.000708995
0.000682303
0.000682304
0.000711062
0.00068024
0.000708996
0.000682303
0.000682302
0.000680242
0.000675472
0.000644648
0.000673405
0.000673404
0.000646709
0.000646711
0.00067547
0.000644651
0.000673403
0.000673403
0.00064671
0.000646712
0.000673406
0.000646713
0.000646712
0.000675471
0.000644651
0.000673404
0.000646714
0.000646712
0.00064465
0.000639881
0.000609057
0.000637812
0.000637813
0.000611121
0.000611122
0.000639881
0.000609061
0.000637812
0.000637813
0.000611121
0.00061112
0.000637815
0.000611122
0.000611121
0.000639883
0.000609059
0.000637815
0.000611121
0.00061112
0.000609058
0.000604288
0.000573468
0.000602221
0.000602223
0.000575531
0.000575529
0.000604291
0.000573468
0.000602221
0.000602222
0.000575531
0.000575529
0.000602223
0.000575529
0.000575529
0.000604292
0.000573466
0.000602224
0.000575528
0.000575528
0.000573467
0.000568698
0.000537876
0.000566632
0.000566633
0.000539936
0.000539935
0.0005687
0.000537874
0.000566632
0.000566631
0.000539936
0.000539936
0.000566633
0.000539934
0.000539935
0.000568699
0.000537873
0.000566633
0.000539934
0.000539934
0.000537874
0.000533108
0.00050228
0.000531041
0.00053104
0.000504341
0.000504341
0.000533106
0.00050228
0.000531041
0.000531039
0.00050434
0.000504341
0.00053104
0.000504341
0.000504341
0.000533106
0.000502279
0.000531039
0.000504341
0.000504341
0.00050228
0.000497512
0.000466686
0.000495445
0.000495445
0.000468748
0.000468748
0.000497512
0.000466687
0.000495444
0.000495444
0.000468748
0.000468749
0.000495444
0.000468749
0.00046875
0.000497511
0.000466686
0.000495444
0.000468749
0.00046875
0.000466687
0.000461916
0.000431095
0.00045985
0.00045985
0.000433157
0.000433156
0.000461917
0.000431094
0.000459849
0.00045985
0.000433157
0.000433157
0.00045985
0.000433157
0.000433158
0.000461917
0.000431093
0.00045985
0.000433155
0.000433157
0.000431094
0.000426324
0.000395502
0.000424257
0.000424256
0.000397564
0.000397563
0.000426323
0.0003955
0.000424257
0.000424257
0.000397564
0.000397564
0.000424258
0.000397563
0.000397564
0.000426323
0.000395501
0.000424257
0.000397564
0.000397564
0.000395502
0.000390731
0.000359908
0.000388665
0.000388663
0.00036197
0.00036197
0.00039073
0.000359907
0.000388665
0.000388665
0.00036197
0.00036197
0.000388666
0.000361969
0.000361968
0.00039073
0.000359908
0.000388665
0.00036197
0.00036197
0.000359908
0.000355137
0.000324316
0.000353072
0.000353071
0.000326378
0.000326378
0.000355136
0.000324316
0.000353073
0.000353073
0.000326377
0.000326377
0.000353072
0.000326376
0.000326375
0.000355138
0.000324316
0.000353073
0.000326375
0.000326375
0.000324314
0.000319544
0.000288725
0.00031748
0.00031748
0.000290785
0.000290785
0.000319544
0.000288725
0.000317481
0.00031748
0.000290784
0.000290785
0.000317479
0.000290785
0.000290785
0.000319544
0.000288724
0.00031748
0.000290785
0.000290784
0.000288724
0.000283952
0.000253135
0.000281889
0.000281889
0.000255194
0.000255194
0.000283952
0.000253135
0.00028189
0.000281889
0.000255192
0.000255193
0.000281888
0.000255194
0.000255194
0.000283951
0.000253135
0.000281888
0.000255195
0.000255194
0.000253134
0.000248359
0.000217546
0.000246298
0.000246297
0.000219603
0.000219603
0.000248358
0.000217545
0.000246298
0.000246298
0.000219603
0.000219603
0.000246299
0.000219602
0.000219602
0.000248359
0.000217546
0.000246299
0.000219601
0.0002196
0.000217544
0.000212766
0.000181957
0.000210709
0.000210707
0.000184011
0.000184012
0.000212763
0.000181957
0.000210708
0.000210709
0.000184011
0.00018401
0.000210708
0.000184012
0.000184011
0.000212767
0.000181955
0.000210708
0.000184008
0.000184009
0.000181956
0.000177169
0.000146368
0.000175119
0.000175118
0.000148417
0.000148418
0.000177167
0.000146369
0.000175119
0.000175119
0.000148416
0.000148416
0.000175118
0.000148418
0.000148416
0.000177169
0.000146366
0.000175117
0.000148417
0.000148417
0.000146366
0.000141566
0.000110776
0.000139527
0.000139527
0.000112819
0.00011282
0.000141565
0.000110777
0.000139527
0.000139526
0.000112819
0.000112818
0.000139526
0.000112819
0.000112818
0.000141564
0.000110776
0.000139525
0.000112819
0.000112819
0.000110774
0.000105949
7.51782e-05
0.00010393
0.00010393
7.72129e-05
7.72128e-05
0.000105949
7.51796e-05
0.000103928
0.000103928
7.72139e-05
7.7213e-05
0.000103927
7.72136e-05
7.72131e-05
0.000105949
7.51775e-05
0.000103929
7.72117e-05
7.72112e-05
7.51771e-05
7.03161e-05
3.96838e-05
6.83269e-05
6.83274e-05
4.17424e-05
4.17429e-05
7.03167e-05
3.96851e-05
6.83259e-05
6.83253e-05
4.17416e-05
4.174e-05
6.83257e-05
4.17422e-05
4.17395e-05
7.03162e-05
3.96813e-05
6.83258e-05
4.17387e-05
4.17376e-05
3.96815e-05
3.48735e-05
7.54132e-06
3.31224e-05
3.31235e-05
1.02384e-05
1.02374e-05
3.48741e-05
7.54125e-06
3.31232e-05
3.31207e-05
1.02372e-05
1.02323e-05
3.31197e-05
1.02364e-05
1.02308e-05
3.4871e-05
7.53775e-06
3.31188e-05
1.02349e-05
1.02341e-05
7.53684e-06
4.44923e-06
5.25414e-06
5.25155e-06
4.45e-06
5.24899e-06
5.24713e-06
5.20411e-06
5.20259e-06
5.2024e-06
5.24882e-06
4.44714e-06
5.24854e-06
0.00353733
0.00354042
0.00353914
0.00353913
0.00356391
0.00354111
0.00356927
0.00354052
0.00356407
0.00354116
0.00354056
0.00357017
0.00355115
0.00357237
0.00357243
0.00350876
0.00352294
0.00352679
0.00350118
0.00349819
0.00350488
0.0035088
0.00352247
0.0035268
0.00350123
0.00352508
0.00352504
0.00352504
0.0034978
0.00349785
0.00349782
0.00349791
0.00350845
0.00352076
0.00352561
0.00351596
0.00352787
0.0035056
0.00351621
0.0034997
0.00350462
0.00350834
0.00352557
0.0035214
0.00351637
0.00352798
0.00351618
0.00350592
0.00352664
0.00352668
0.00351316
0.0035055
0.00350544
0.00348146
0.00349553
0.00349541
0.00347973
0.00349286
0.00347863
0.00348147
0.00349552
0.00349531
0.00347965
0.00348895
0.00348894
0.00348898
0.00346161
0.00346161
0.00346162
0.00346163
0.00347925
0.00349413
0.00348778
0.00347857
0.00349265
0.00347996
0.00347857
0.00349271
0.00347874
0.00347923
0.00348775
0.00349394
0.0034785
0.00349258
0.00347854
0.00348
0.00349584
0.00349581
0.00347727
0.00348039
0.00348039
0.00343932
0.00345425
0.00345511
0.0034383
0.00345279
0.00343742
0.00343936
0.00345424
0.00345503
0.00343824
0.00345172
0.00345172
0.00345173
0.00341889
0.00341889
0.00341889
0.00341889
0.00343816
0.00345386
0.00345001
0.0034396
0.00345293
0.00343879
0.00343956
0.00345298
0.00343735
0.00343814
0.00345004
0.00345391
0.00343953
0.00345294
0.00343953
0.00343873
0.00345448
0.00345444
0.00343693
0.00343858
0.0034386
0.00339289
0.00340952
0.00341089
0.00339154
0.00340887
0.00339112
0.00339291
0.0034095
0.00341089
0.0033915
0.00340714
0.00340714
0.00340713
0.00337096
0.00337097
0.00337096
0.00337096
0.00339183
0.00340944
0.00340567
0.00339379
0.00340887
0.00339213
0.00339373
0.0034088
0.00339101
0.00339183
0.00340568
0.00340941
0.00339376
0.00340887
0.00339372
0.00339212
0.00340957
0.00340958
0.00339066
0.00339163
0.00339159
0.00334387
0.003361
0.00336223
0.00334271
0.00336041
0.0033426
0.00334384
0.00336099
0.00336236
0.00334275
0.00335883
0.00335882
0.00335883
0.00332257
0.00332258
0.00332257
0.00332257
0.00334334
0.00336101
0.0033574
0.00334529
0.0033607
0.00334343
0.00334532
0.00336062
0.00334244
0.00334333
0.00335742
0.003361
0.00334532
0.00336071
0.00334534
0.00334341
0.00336105
0.00336103
0.00334222
0.00334285
0.00334287
0.00329535
0.00331245
0.00331336
0.00329448
0.00331228
0.00329422
0.00329526
0.00331245
0.00331339
0.00329445
0.00331055
0.00331054
0.00331054
0.00327454
0.00327455
0.00327454
0.00327455
0.0032951
0.00331246
0.00330926
0.00329728
0.00331233
0.00329508