/*--------------------------------*- C++ -*----------------------------------*\
| =========                 |                                                 |
| \\      /  F ield         | OpenFOAM: The Open Source CFD Toolbox           |
|  \\    /   O peration     | Version:  v2012                                 |
|   \\  /    A nd           | Website:  www.openfoam.com                      |
|    \\/     M anipulation  |                                                 |
\*---------------------------------------------------------------------------*/
FoamFile
{
    version     2.0;
    format      ascii;
    class       volScalarField;
    location    "250";
    object      epsilon;
}
// * * * * * * * * * * * * * * * * * * * * * * * * * * * * * * * * * * * * * //

dimensions      [0 2 -3 0 0 0 0];


internalField   nonuniform List<scalar> 
85864
(
4.95569e-07
4.97411e-07
4.97406e-07
4.99627e-07
4.45583e-07
4.53901e-07
4.53904e-07
4.6398e-07
4.03776e-07
4.18695e-07
4.18701e-07
4.39648e-07
3.68393e-07
3.88701e-07
3.88703e-07
4.177e-07
3.38042e-07
3.62193e-07
3.62189e-07
3.95879e-07
3.11664e-07
3.383e-07
3.38298e-07
3.74193e-07
2.88477e-07
3.16604e-07
3.16608e-07
3.53376e-07
2.67912e-07
2.96934e-07
2.96941e-07
3.33796e-07
2.49552e-07
2.79236e-07
2.79241e-07
3.16066e-07
2.33093e-07
2.63506e-07
2.63509e-07
3.00479e-07
2.18306e-07
2.49748e-07
2.4975e-07
2.87903e-07
2.05016e-07
2.37956e-07
2.3796e-07
2.77955e-07
1.93083e-07
2.28136e-07
2.28141e-07
2.71367e-07
1.82394e-07
2.20292e-07
2.20299e-07
2.67499e-07
1.7286e-07
2.14425e-07
2.14435e-07
2.66933e-07
1.64406e-07
2.10549e-07
2.10562e-07
2.69738e-07
1.56969e-07
2.0867e-07
2.08687e-07
2.75873e-07
1.50497e-07
2.08796e-07
2.08822e-07
2.85254e-07
1.44945e-07
2.10989e-07
2.11018e-07
2.98062e-07
1.40279e-07
2.15258e-07
2.15285e-07
3.1433e-07
1.36465e-07
2.2162e-07
2.21649e-07
3.34037e-07
1.33482e-07
2.30092e-07
2.30121e-07
3.56886e-07
1.31307e-07
2.40658e-07
2.40693e-07
3.82985e-07
1.29924e-07
2.53298e-07
2.5334e-07
4.11917e-07
1.29321e-07
2.67965e-07
2.6802e-07
4.43469e-07
1.29503e-07
2.84597e-07
2.84667e-07
4.76954e-07
1.30442e-07
3.03108e-07
3.03188e-07
5.11748e-07
1.32142e-07
3.23399e-07
3.23481e-07
5.48519e-07
1.34603e-07
3.4534e-07
3.45427e-07
5.86579e-07
1.37826e-07
3.68801e-07
3.68893e-07
6.24297e-07
1.41811e-07
3.93624e-07
3.93723e-07
6.62196e-07
1.46561e-07
4.19664e-07
4.19771e-07
6.99764e-07
1.52084e-07
4.46751e-07
4.46859e-07
7.3643e-07
1.58384e-07
4.74719e-07
4.74829e-07
7.72039e-07
1.65465e-07
5.03401e-07
5.03506e-07
8.07019e-07
1.73331e-07
5.32613e-07
5.32712e-07
8.39444e-07
1.8198e-07
5.62179e-07
5.6228e-07
8.71726e-07
1.91408e-07
5.91926e-07
5.92024e-07
9.03113e-07
2.01603e-07
6.21678e-07
6.21774e-07
9.33294e-07
2.12546e-07
6.51275e-07
6.51369e-07
9.62214e-07
2.2421e-07
6.8056e-07
6.80665e-07
9.89969e-07
2.3657e-07
7.0942e-07
7.09544e-07
1.0166e-06
2.49591e-07
7.3778e-07
7.37929e-07
1.04216e-06
2.63233e-07
7.65579e-07
7.65739e-07
1.06676e-06
2.77448e-07
7.92781e-07
7.92941e-07
1.0902e-06
2.9218e-07
8.19342e-07
8.19512e-07
1.11345e-06
3.07361e-07
8.45195e-07
8.45391e-07
1.13553e-06
5.06416e-07
5.05554e-07
5.05555e-07
5.06405e-07
5.05553e-07
5.05554e-07
5.09644e-07
5.09644e-07
5.09644e-07
5.09644e-07
5.05549e-07
5.05549e-07
5.06415e-07
5.0555e-07
5.05548e-07
5.06407e-07
4.9962e-07
4.67482e-07
4.97401e-07
4.97405e-07
4.63855e-07
4.63849e-07
4.9963e-07
4.67444e-07
4.97406e-07
4.97409e-07
4.63862e-07
4.63864e-07
4.97407e-07
4.63858e-07
4.63867e-07
4.99631e-07
4.67469e-07
4.97407e-07
4.63859e-07
4.6386e-07
4.67469e-07
4.63998e-07
4.41646e-07
4.53901e-07
4.53896e-07
4.26917e-07
4.26913e-07
4.63957e-07
4.41612e-07
4.53912e-07
4.53912e-07
4.26929e-07
4.26929e-07
4.5392e-07
4.26914e-07
4.26943e-07
4.63983e-07
4.41642e-07
4.53909e-07
4.26921e-07
4.26925e-07
4.41653e-07
4.3964e-07
4.19354e-07
4.18699e-07
4.18697e-07
3.95831e-07
3.9583e-07
4.39614e-07
4.19332e-07
4.18711e-07
4.18712e-07
3.95837e-07
3.95844e-07
4.18727e-07
3.95825e-07
3.95856e-07
4.39641e-07
4.1934e-07
4.18708e-07
3.9583e-07
3.95837e-07
4.19392e-07
4.17731e-07
3.97526e-07
3.88709e-07
3.88708e-07
3.68563e-07
3.68563e-07
4.17716e-07
3.97516e-07
3.88713e-07
3.88721e-07
3.6856e-07
3.68569e-07
3.88731e-07
3.68552e-07
3.68578e-07
4.17726e-07
3.97494e-07
3.88712e-07
3.68549e-07
3.68557e-07
3.97605e-07
3.96e-07
3.75817e-07
3.62207e-07
3.62207e-07
3.44072e-07
3.44075e-07
3.95986e-07
3.75808e-07
3.62202e-07
3.6221e-07
3.44064e-07
3.44075e-07
3.62219e-07
3.44058e-07
3.44079e-07
3.9597e-07
3.75809e-07
3.62195e-07
3.44055e-07
3.44045e-07
3.75889e-07
3.74371e-07
3.54841e-07
3.38316e-07
3.38318e-07
3.21852e-07
3.21854e-07
3.74367e-07
3.54819e-07
3.38308e-07
3.3832e-07
3.21842e-07
3.2186e-07
3.38322e-07
3.21836e-07
3.21856e-07
3.74347e-07
3.54838e-07
3.38284e-07
3.21839e-07
3.2181e-07
3.54756e-07
3.53257e-07
3.34991e-07
3.16622e-07
3.16623e-07
3.01685e-07
3.01685e-07
3.53305e-07
3.35001e-07
3.16612e-07
3.1663e-07
3.01672e-07
3.01691e-07
3.16627e-07
3.01666e-07
3.01692e-07
3.53247e-07
3.35001e-07
3.16579e-07
3.01673e-07
3.01643e-07
3.34892e-07
3.33648e-07
3.17045e-07
2.96953e-07
2.96953e-07
2.83495e-07
2.83497e-07
3.3364e-07
3.17048e-07
2.96941e-07
2.96958e-07
2.83481e-07
2.83496e-07
2.96961e-07
2.83476e-07
2.83505e-07
3.33629e-07
3.16985e-07
2.96913e-07
2.83483e-07
2.83461e-07
3.16949e-07
3.15889e-07
3.01426e-07
2.79254e-07
2.79256e-07
2.6727e-07
2.67278e-07
3.1588e-07
3.01324e-07
2.79239e-07
2.79253e-07
2.67254e-07
2.67266e-07
2.79263e-07
2.67254e-07
2.67281e-07
3.15975e-07
3.01298e-07
2.79221e-07
2.67258e-07
2.67243e-07
3.01459e-07
3.00411e-07
2.88268e-07
2.63521e-07
2.6353e-07
2.53019e-07
2.53031e-07
3.00639e-07
2.88449e-07
2.63505e-07
2.63516e-07
2.53003e-07
2.53013e-07
2.63533e-07
2.53003e-07
2.5303e-07
3.00581e-07
2.88251e-07
2.63496e-07
2.53006e-07
2.52997e-07
2.88277e-07
2.87878e-07
2.78001e-07
2.49764e-07
2.49775e-07
2.40737e-07
2.40753e-07
2.87629e-07
2.78166e-07
2.49748e-07
2.49757e-07
2.40722e-07
2.40733e-07
2.49775e-07
2.40719e-07
2.40749e-07
2.87866e-07
2.78031e-07
2.49743e-07
2.40724e-07
2.40717e-07
2.7801e-07
2.7792e-07
2.71098e-07
2.37973e-07
2.37989e-07
2.30423e-07
2.30441e-07
2.77853e-07
2.71208e-07
2.37959e-07
2.37971e-07
2.30408e-07
2.30425e-07
2.37985e-07
2.30405e-07
2.30435e-07
2.78039e-07
2.71091e-07
2.37953e-07
2.30409e-07
2.30401e-07
2.70997e-07
2.71025e-07
2.67223e-07
2.28153e-07
2.28174e-07
2.22084e-07
2.22105e-07
2.71131e-07
2.67239e-07
2.28139e-07
2.28159e-07
2.22069e-07
2.22094e-07
2.28167e-07
2.22065e-07
2.22096e-07
2.71271e-07
2.67225e-07
2.28133e-07
2.22072e-07
2.22061e-07
2.67146e-07
2.67484e-07
2.66288e-07
2.20311e-07
2.20333e-07
2.15721e-07
2.15744e-07
2.67534e-07
2.66294e-07
2.20295e-07
2.20325e-07
2.15701e-07
2.15737e-07
2.20323e-07
2.157e-07
2.15732e-07
2.67506e-07
2.66323e-07
2.20287e-07
2.15708e-07
2.15694e-07
2.66291e-07
2.66924e-07
2.68407e-07
2.14448e-07
2.14472e-07
2.11347e-07
2.11372e-07
2.66948e-07
2.68432e-07
2.1443e-07
2.14468e-07
2.11325e-07
2.11371e-07
2.1446e-07
2.11319e-07
2.11356e-07
2.66958e-07
2.68436e-07
2.1442e-07
2.1133e-07
2.11316e-07
2.68422e-07
2.69722e-07
2.73823e-07
2.10581e-07
2.10604e-07
2.08969e-07
2.08989e-07
2.69728e-07
2.73841e-07
2.10556e-07
2.10604e-07
2.08941e-07
2.08995e-07
2.10588e-07
2.08929e-07
2.08976e-07
2.69755e-07
2.73875e-07
2.10546e-07
2.08945e-07
2.08931e-07
2.73867e-07
2.75876e-07
2.82422e-07
2.08712e-07
2.08731e-07
2.08643e-07
2.0866e-07
2.75845e-07
2.82625e-07
2.08683e-07
2.08736e-07
2.08611e-07
2.0867e-07
2.08717e-07
2.08592e-07
2.08651e-07
2.75892e-07
2.82475e-07
2.08673e-07
2.0861e-07
2.086e-07
2.82873e-07
2.85537e-07
2.94694e-07
2.08849e-07
2.08865e-07
2.103e-07
2.10312e-07
2.85344e-07
2.94926e-07
2.08817e-07
2.08877e-07
2.10266e-07
2.10333e-07
2.08849e-07
2.10236e-07
2.103e-07
2.85571e-07
2.94641e-07
2.08809e-07
2.10263e-07
2.10257e-07
2.95053e-07
2.98245e-07
3.10355e-07
2.11052e-07
2.11067e-07
2.14054e-07
2.14069e-07
2.98144e-07
3.10543e-07
2.11019e-07
2.11084e-07
2.14021e-07
2.14091e-07
2.1105e-07
2.13981e-07
2.14048e-07
2.98384e-07
3.10337e-07
2.11009e-07
2.14009e-07
2.14009e-07
3.10492e-07
3.14586e-07
3.29675e-07
2.15327e-07
2.15345e-07
2.19895e-07
2.1992e-07
3.14472e-07
3.29592e-07
2.15298e-07
2.15362e-07
2.19868e-07
2.19941e-07
2.15319e-07
2.19817e-07
2.19889e-07
3.1465e-07
3.28956e-07
2.15278e-07
2.19844e-07
2.19849e-07
3.29472e-07
3.34193e-07
3.52181e-07
2.2169e-07
2.21718e-07
2.2784e-07
2.27877e-07
3.34039e-07
3.52083e-07
2.21666e-07
2.21738e-07
2.27817e-07
2.27893e-07
2.21681e-07
2.27757e-07
2.27834e-07
3.346e-07
3.52007e-07
2.21642e-07
2.27785e-07
2.27796e-07
3.52063e-07
3.57109e-07
3.77635e-07
2.30165e-07
2.30202e-07
2.37885e-07
2.3793e-07
3.56993e-07
3.77582e-07
2.30143e-07
2.30219e-07
2.37861e-07
2.37947e-07
2.30155e-07
2.37794e-07
2.37878e-07
3.57062e-07
3.77482e-07
2.30118e-07
2.37826e-07
2.37844e-07
3.77563e-07
3.83108e-07
4.06133e-07
2.40735e-07
2.40779e-07
2.5001e-07
2.50066e-07
3.83062e-07
4.057e-07
2.40714e-07
2.40799e-07
2.49989e-07
2.50093e-07
2.40726e-07
2.49914e-07
2.5001e-07
3.83223e-07
4.0588e-07
2.4069e-07
2.49957e-07
2.49974e-07
4.05855e-07
4.11999e-07
4.36769e-07
2.5338e-07
2.53433e-07
2.64183e-07
2.64245e-07
4.1205e-07
4.36669e-07
2.53359e-07
2.53458e-07
2.64163e-07
2.64276e-07
2.53375e-07
2.64073e-07
2.64188e-07
4.12147e-07
4.36787e-07
2.53341e-07
2.64123e-07
2.64153e-07
4.3666e-07
4.43183e-07
4.69762e-07
2.68057e-07
2.68114e-07
2.80333e-07
2.80406e-07
4.43088e-07
4.69916e-07
2.68037e-07
2.68149e-07
2.80315e-07
2.80448e-07
2.68058e-07
2.80213e-07
2.80346e-07
4.43717e-07
4.6883e-07
2.68023e-07
2.80277e-07
2.80309e-07
4.69642e-07
4.77e-07
5.04604e-07
2.84693e-07
2.84761e-07
2.98388e-07
2.98469e-07
4.76845e-07
5.04593e-07
2.84677e-07
2.84806e-07
2.98372e-07
2.98517e-07
2.84703e-07
2.98258e-07
2.98403e-07
4.78093e-07
5.03616e-07
2.84666e-07
2.98333e-07
2.98367e-07
5.04464e-07
5.12008e-07
5.40919e-07
3.03208e-07
3.03282e-07
3.18243e-07
3.18328e-07
5.11965e-07
5.40703e-07
3.03196e-07
3.03337e-07
3.18227e-07
3.18382e-07
3.03224e-07
3.18105e-07
3.18267e-07
5.13289e-07
5.39967e-07
3.03186e-07
3.18185e-07
3.18225e-07
5.40596e-07
5.4875e-07
5.77819e-07
3.23501e-07
3.23579e-07
3.39785e-07
3.3987e-07
5.48404e-07
5.77552e-07
3.23486e-07
3.23633e-07
3.39765e-07
3.39925e-07
3.2352e-07
3.39639e-07
3.39813e-07
5.4921e-07
5.77986e-07
3.23478e-07
3.39721e-07
3.39764e-07
5.77238e-07
5.85893e-07
6.15338e-07
3.45447e-07
3.45523e-07
3.62883e-07
3.62973e-07
5.85866e-07
6.14833e-07
3.45428e-07
3.45583e-07
3.62856e-07
3.63028e-07
3.45468e-07
3.62726e-07
3.62913e-07
5.86149e-07
6.15187e-07
3.45423e-07
3.62815e-07
3.6286e-07
6.14272e-07
6.23534e-07
6.5272e-07
3.68909e-07
3.68993e-07
3.8739e-07
3.87488e-07
6.24042e-07
6.52244e-07
3.68885e-07
3.69049e-07
3.87349e-07
3.87537e-07
3.68934e-07
3.8722e-07
3.87425e-07
6.23403e-07
6.52898e-07
3.6888e-07
3.87315e-07
3.87362e-07
6.51578e-07
6.61087e-07
6.899e-07
3.93743e-07
3.93827e-07
4.13148e-07
4.13248e-07
6.61443e-07
6.89888e-07
3.93704e-07
3.93886e-07
4.13091e-07
4.13297e-07
3.93773e-07
4.12962e-07
4.13186e-07
6.61133e-07
6.90108e-07
3.93711e-07
4.13064e-07
4.13119e-07
6.8875e-07
6.98502e-07
7.26562e-07
4.19791e-07
4.19884e-07
4.39999e-07
4.40099e-07
6.98644e-07
7.26888e-07
4.19731e-07
4.19933e-07
4.39918e-07
4.40145e-07
4.19827e-07
4.39798e-07
4.40039e-07
6.98478e-07
7.2701e-07
4.19757e-07
4.39902e-07
4.39958e-07
7.25342e-07
7.35181e-07
7.62363e-07
4.4689e-07
4.46983e-07
4.67768e-07
4.67875e-07
7.34798e-07
7.62997e-07
4.46811e-07
4.47027e-07
4.67673e-07
4.67918e-07
4.46928e-07
4.67556e-07
4.6781e-07
7.34955e-07
7.63251e-07
4.46845e-07
4.67661e-07
4.67725e-07
7.61221e-07
7.71097e-07
7.97975e-07
4.74868e-07
4.74959e-07
4.96294e-07
4.96398e-07
7.70524e-07
7.98026e-07
4.74774e-07
4.75002e-07
4.96183e-07
4.96441e-07
4.74898e-07
4.96071e-07
4.96334e-07
7.70728e-07
7.98408e-07
4.7481e-07
4.96171e-07
4.96236e-07
7.96223e-07
8.05454e-07
8.32151e-07
5.03552e-07
5.03642e-07
5.25392e-07
5.25497e-07
8.05399e-07
8.32088e-07
5.03443e-07
5.03688e-07
5.25274e-07
5.25538e-07
5.03591e-07
5.25163e-07
5.25449e-07
8.05688e-07
8.32249e-07
5.0349e-07
5.25261e-07
5.25335e-07
8.32002e-07
8.39254e-07
8.64948e-07
5.32768e-07
5.32853e-07
5.54889e-07
5.54989e-07
8.39208e-07
8.6491e-07
5.32653e-07
5.32901e-07
5.54766e-07
5.5503e-07
5.32811e-07
5.54653e-07
5.54945e-07
8.39416e-07
8.65024e-07
5.327e-07
5.54753e-07
5.54826e-07
8.64808e-07
8.71912e-07
8.96545e-07
5.62336e-07
5.62422e-07
5.84608e-07
5.84701e-07
8.71843e-07
8.96442e-07
5.62218e-07
5.62462e-07
5.84481e-07
5.8475e-07
5.62388e-07
5.84371e-07
5.84671e-07
8.71976e-07
8.96595e-07
5.62266e-07
5.84468e-07
5.84539e-07
8.96371e-07
9.03316e-07
9.26865e-07
5.92083e-07
5.92159e-07
6.14374e-07
6.14456e-07
9.03185e-07
9.26793e-07
5.91964e-07
5.9221e-07
6.14249e-07
6.14513e-07
5.92141e-07
6.14139e-07
6.14441e-07
9.03353e-07
9.26923e-07
5.9201e-07
6.14231e-07
6.14301e-07
9.26733e-07
9.33439e-07
9.55972e-07
6.21833e-07
6.21901e-07
6.4402e-07
6.44098e-07
9.3337e-07
9.55897e-07
6.21716e-07
6.21961e-07
6.439e-07
6.44158e-07
6.21897e-07
6.43793e-07
6.44095e-07
9.33481e-07
9.56045e-07
6.2176e-07
6.43882e-07
6.43951e-07
9.55826e-07
9.62339e-07
9.83896e-07
6.51422e-07
6.51486e-07
6.73399e-07
6.73472e-07
9.62278e-07
9.83796e-07
6.5131e-07
6.51546e-07
6.73284e-07
6.73538e-07
6.51493e-07
6.73178e-07
6.73481e-07
9.62415e-07
9.83986e-07
6.51357e-07
6.73273e-07
6.73342e-07
9.83764e-07
9.9009e-07
1.01066e-06
6.80701e-07
6.8076e-07
7.02395e-07
7.02448e-07
9.89976e-07
1.00971e-06
6.80599e-07
6.80831e-07
7.02288e-07
7.02534e-07
6.80784e-07
7.02165e-07
7.02481e-07
9.90175e-07
1.01078e-06
6.80646e-07
7.02278e-07
7.02345e-07
1.01058e-06
1.01664e-06
1.03632e-06
7.09565e-07
7.0961e-07
7.30899e-07
7.30948e-07
1.01654e-06
1.03534e-06
7.09466e-07
7.09699e-07
7.30797e-07
7.31048e-07
7.09657e-07
7.30666e-07
7.30995e-07
1.01677e-06
1.03647e-06
7.09524e-07
7.30808e-07
7.30869e-07
1.03631e-06
1.04208e-06
1.0603e-06
7.37919e-07
7.37959e-07
7.58839e-07
7.58898e-07
1.04225e-06
1.06017e-06
7.37825e-07
7.38062e-07
7.58736e-07
7.59007e-07
7.38022e-07
7.5862e-07
7.58959e-07
1.04229e-06
1.06049e-06
7.379e-07
7.58777e-07
7.58848e-07
1.06107e-06
1.06678e-06
1.08402e-06
7.6569e-07
7.65743e-07
7.86173e-07
7.86254e-07
1.06676e-06
1.08401e-06
7.65594e-07
7.65858e-07
7.8607e-07
7.86365e-07
7.6582e-07
7.8599e-07
7.86324e-07
1.06683e-06
1.08444e-06
7.6571e-07
7.86148e-07
7.86221e-07
1.08496e-06
1.0905e-06
1.1071e-06
7.92843e-07
7.92922e-07
8.12863e-07
8.1297e-07
1.09058e-06
1.10713e-06
7.92749e-07
7.93038e-07
8.12756e-07
8.13087e-07
7.93004e-07
8.12734e-07
8.13046e-07
1.09065e-06
1.10745e-06
7.92902e-07
8.12896e-07
8.12947e-07
1.10746e-06
1.11335e-06
1.1294e-06
8.19347e-07
8.19456e-07
8.38864e-07
8.38999e-07
1.11346e-06
1.12937e-06
8.1925e-07
8.19575e-07
8.38761e-07
8.39119e-07
8.19539e-07
8.38794e-07
8.39064e-07
1.11355e-06
1.12967e-06
8.19445e-07
8.38979e-07
8.38983e-07
1.12961e-06
1.13538e-06
1.15086e-06
8.4515e-07
8.45291e-07
8.64102e-07
8.64268e-07
1.13551e-06
1.15068e-06
8.45056e-07
8.45413e-07
8.64003e-07
8.64383e-07
8.45352e-07
8.64097e-07
8.64287e-07
1.13574e-06
1.15109e-06
8.45278e-07
8.64309e-07
8.64234e-07
1.15099e-06
5.35663e-07
5.35602e-07
5.35656e-07
5.35656e-07
5.34554e-07
5.35515e-07
5.3342e-07
5.35656e-07
5.34554e-07
5.35515e-07
5.35656e-07
5.33039e-07
5.3525e-07
5.36169e-07
5.3604e-07
1.10529e-06
3.85276e-06
9.38175e-07
4.5928e-06
1.28137e-05
1.6685e-05
1.10533e-06
3.8542e-06
9.38624e-07
4.59297e-06
4.95569e-07
4.95569e-07
4.95569e-07
4.57237e-07
4.57236e-07
4.57237e-07
4.57237e-07
5.43282e-07
1.22437e-06
4.95576e-07
4.85597e-07
5.25975e-07
1.21915e-06
4.82308e-07
1.2835e-05
1.67023e-05
5.43534e-07
4.95577e-07
1.22822e-06
4.85594e-07
5.26025e-07
4.82314e-07
1.21722e-06
2.55516e-06
2.54463e-06
4.84308e-07
2.39274e-06
2.38709e-06
1.42729e-06
5.58455e-06
1.32939e-06
6.13465e-06
2.13458e-05
2.31601e-05
1.42771e-06
5.58497e-06
1.32962e-06
6.13505e-06
4.45582e-07
4.45584e-07
4.45584e-07
4.13564e-07
4.13562e-07
4.13564e-07
4.13565e-07
5.87376e-07
1.20093e-06
4.46468e-07
4.44467e-07
5.74272e-07
1.21034e-06
4.35735e-07
2.1356e-05
2.31681e-05
5.87433e-07
4.46477e-07
1.20104e-06
4.44472e-07
5.74422e-07
4.35744e-07
1.20922e-06
2.31074e-06
2.30909e-06
4.53745e-07
2.34676e-06
2.3462e-06
1.65822e-06
6.9174e-06
1.59181e-06
7.32442e-06
2.46577e-05
2.49463e-05
1.6589e-06
6.91764e-06
1.59157e-06
7.3247e-06
4.03774e-07
4.03777e-07
4.03778e-07
3.76718e-07
3.76716e-07
3.76719e-07
3.76721e-07
6.15387e-07
1.24728e-06
4.06613e-07
4.10797e-07
6.08221e-07
1.27146e-06
3.978e-07
2.46618e-05
2.49497e-05
6.15324e-07
4.06616e-07
1.24837e-06
4.10803e-07
6.08349e-07
3.97804e-07
1.27024e-06
2.46184e-06
2.4629e-06
4.30344e-07
2.52022e-06
2.52182e-06
1.80748e-06
7.84771e-06
1.76696e-06
8.10406e-06
2.47326e-05
2.44324e-05
1.8081e-06
7.84781e-06
1.76775e-06
8.10461e-06
3.68391e-07
3.68394e-07
3.68396e-07
3.45221e-07
3.45219e-07
3.45221e-07
3.45224e-07
6.25743e-07
1.31844e-06
3.73551e-07
3.81793e-07
6.24349e-07
1.33795e-06
3.66099e-07
2.47398e-05
2.44346e-05
6.25757e-07
3.73552e-07
1.31836e-06
3.81793e-07
6.24534e-07
3.66101e-07
1.33787e-06
2.62472e-06
2.62652e-06
4.08503e-07
2.66931e-06
2.67044e-06
1.88762e-06
8.39534e-06
1.86905e-06
8.53169e-06
2.36825e-05
2.32657e-05
1.88999e-06
8.39607e-06
1.86857e-06
8.53298e-06
3.3804e-07
3.38042e-07
3.38044e-07
3.17933e-07
3.17931e-07
3.17933e-07
3.17934e-07
6.21439e-07
1.37739e-06
3.45298e-07
3.55998e-07
6.24684e-07
1.39065e-06
3.38818e-07
2.36838e-05
2.32684e-05
6.21461e-07
3.45298e-07
1.37719e-06
3.55994e-07
6.24684e-07
3.3882e-07
1.39064e-06
2.75697e-06
2.75784e-06
3.86704e-07
2.80154e-06
2.79898e-06
1.9251e-06
8.66181e-06
1.91825e-06
8.71799e-06
2.24937e-05
2.21223e-05
1.92655e-06
8.66315e-06
1.91771e-06
8.71937e-06
3.11662e-07
3.11664e-07
3.11664e-07
2.94009e-07
2.94008e-07
2.9401e-07
2.94008e-07
6.08032e-07
1.42121e-06
3.20527e-07
3.32682e-07
6.14227e-07
1.42987e-06
3.14774e-07
2.24949e-05
2.2125e-05
6.08016e-07
3.20527e-07
1.42125e-06
3.32681e-07
6.14199e-07
3.14776e-07
1.42979e-06
2.89383e-06
2.89153e-06
3.65248e-07
2.94159e-06
2.94004e-06
1.94382e-06
8.75732e-06
1.94007e-06
8.76888e-06
2.14724e-05
2.11816e-05
1.94437e-06
8.75868e-06
1.94031e-06
8.77023e-06
2.88476e-07
2.88478e-07
2.88476e-07
2.72832e-07
2.72831e-07
2.72834e-07
2.7283e-07
5.90872e-07
1.45602e-06
2.98417e-07
3.11502e-07
5.9805e-07
1.46574e-06
2.93243e-07
2.14739e-05
2.11835e-05
5.90835e-07
2.98416e-07
1.45695e-06
3.11507e-07
5.98036e-07
2.93244e-07
1.46572e-06
3.04895e-06
3.04862e-06
3.44601e-07
3.10849e-06
3.10555e-06
1.9621e-06
8.7652e-06
1.95637e-06
8.76051e-06
2.06733e-05
2.04551e-05
1.96259e-06
8.76654e-06
1.95646e-06
8.76193e-06
2.6791e-07
2.67913e-07
2.6791e-07
2.53953e-07
2.53952e-07
2.53955e-07
2.53953e-07
5.7442e-07
1.49445e-06
2.78479e-07
2.92325e-07
5.80881e-07
1.50682e-06
2.73797e-07
2.06747e-05
2.04552e-05
5.74371e-07
2.78477e-07
1.49472e-06
2.92333e-07
5.8083e-07
2.73797e-07
1.50655e-06
3.22761e-06
3.22911e-06
3.25664e-07
3.29387e-06
3.29246e-06
1.99398e-06
8.7449e-06
1.98157e-06
8.73966e-06
2.00735e-05
1.99128e-05
1.99428e-06
8.7465e-06
1.9813e-06
8.74139e-06
2.49551e-07
2.49553e-07
2.49552e-07
2.37043e-07
2.37043e-07
2.37044e-07
2.37044e-07
5.61888e-07
1.54341e-06
2.60426e-07
2.75119e-07
5.66446e-07
1.56109e-06
2.56186e-07
2.00749e-05
1.99146e-05
5.61851e-07
2.60424e-07
1.54351e-06
2.75124e-07
5.66399e-07
2.56185e-07
1.55945e-06
3.42655e-06
3.42671e-06
3.08954e-07
3.49256e-06
3.49415e-06
2.04529e-06
8.72976e-06
2.02449e-06
8.72813e-06
1.96352e-05
1.95204e-05
2.04522e-06
8.73143e-06
2.0246e-06
8.73004e-06
2.33093e-07
2.33094e-07
2.33094e-07
2.21856e-07
2.21857e-07
2.21856e-07
2.21858e-07
5.55601e-07
1.60283e-06
2.44084e-07
2.59882e-07
5.57609e-07
1.62753e-06
2.40252e-07
1.96358e-05
1.95213e-05
5.55585e-07
2.44081e-07
1.60467e-06
2.59885e-07
5.57594e-07
2.40251e-07
1.62558e-06
3.63211e-06
3.63431e-06
2.94634e-07
3.70313e-06
3.70279e-06
2.11995e-06
8.72787e-06
2.09063e-06
8.73122e-06
1.93202e-05
1.92412e-05
2.12006e-06
8.72989e-06
2.09068e-06
8.73325e-06
2.18308e-07
2.18307e-07
2.18308e-07
2.08206e-07
2.08207e-07
2.08206e-07
2.08208e-07
5.56863e-07
1.67833e-06
2.29339e-07
2.46616e-07
5.56014e-07
1.70789e-06
2.25894e-07
1.93214e-05
1.92425e-05
5.56841e-07
2.29337e-07
1.68019e-06
2.46619e-07
5.56006e-07
2.25894e-07
1.70572e-06
3.84271e-06
3.8435e-06
2.82827e-07
3.90912e-06
3.9111e-06
2.22005e-06
8.73754e-06
2.1818e-06
8.74588e-06
1.90993e-05
1.90459e-05
2.21981e-06
8.7396e-06
2.18183e-06
8.74783e-06
2.05018e-07
2.05017e-07
2.05019e-07
1.95944e-07
1.95947e-07
1.95945e-07
1.95947e-07
5.66678e-07
1.76713e-06
2.16117e-07
2.35315e-07
5.62369e-07
1.80061e-06
2.13042e-07
1.91005e-05
1.90473e-05
5.66652e-07
2.16114e-07
1.76907e-06
2.3532e-07
5.62364e-07
2.13042e-07
1.79872e-06
4.04645e-06
4.0476e-06
2.74166e-07
4.10935e-06
4.11132e-06
2.3447e-06
8.75649e-06
2.29838e-06
8.76644e-06
1.89455e-05
1.89099e-05
2.34351e-06
8.75838e-06
2.29885e-06
8.76823e-06
1.93085e-07
1.93084e-07
1.93086e-07
1.84953e-07
1.84956e-07
1.84955e-07
1.84956e-07
5.85672e-07
1.86758e-06
2.04355e-07
2.25988e-07
5.78087e-07
1.90177e-06
2.01635e-07
1.89467e-05
1.89115e-05
5.85802e-07
2.04352e-07
1.86936e-06
2.25995e-07
5.78026e-07
2.01635e-07
1.90202e-06
4.23652e-06
4.23942e-06
2.68694e-07
4.29728e-06
4.29745e-06
2.49093e-06
8.77839e-06
2.4385e-06
8.78832e-06
1.88375e-05
1.88142e-05
2.48939e-06
8.78006e-06
2.43996e-06
8.79001e-06
1.82397e-07
1.82397e-07
1.82397e-07
1.75137e-07
1.7514e-07
1.75141e-07
1.7514e-07
6.14665e-07
1.97813e-06
1.93999e-07
2.18636e-07
6.0381e-07
2.01314e-06
1.91623e-07
1.88388e-05
1.88156e-05
6.14393e-07
1.93995e-07
1.97822e-06
2.18644e-07
6.04119e-07
1.91623e-07
2.01491e-06
4.41168e-06
4.41236e-06
2.66347e-07
4.46381e-06
4.46706e-06
2.65452e-06
8.79977e-06
2.59772e-06
8.80897e-06
1.87596e-05
1.87433e-05
2.65373e-06
8.80143e-06
2.5989e-06
8.81062e-06
1.72864e-07
1.72864e-07
1.72863e-07
1.66419e-07
1.66422e-07
1.66424e-07
1.66422e-07
6.5401e-07
2.09201e-06
1.85006e-07
2.13261e-07
6.39711e-07
2.12816e-06
1.82963e-07
1.87625e-05
1.87426e-05
6.53635e-07
1.85001e-07
2.09053e-06
2.13274e-07
6.4007e-07
1.82962e-07
2.13034e-06
4.56578e-06
4.56628e-06
2.66951e-07
4.61082e-06
4.61404e-06
2.82828e-06
8.81952e-06
2.76998e-06
8.82718e-06
1.87009e-05
1.86871e-05
2.82747e-06
8.82153e-06
2.77048e-06
8.8289e-06
1.6441e-07
1.64412e-07
1.64409e-07
1.58733e-07
1.58736e-07
1.58739e-07
1.58736e-07
7.03042e-07
2.20799e-06
1.77337e-07
2.09876e-07
6.8629e-07
2.24397e-06
1.75618e-07
1.87034e-05
1.86874e-05
7.03103e-07
1.77331e-07
2.20789e-06
2.09891e-07
6.86483e-07
1.75617e-07
2.24426e-06
4.69873e-06
4.70061e-06
2.70731e-07
4.73645e-06
4.73827e-06
3.00338e-06
8.83745e-06
2.94652e-06
8.84411e-06
1.86526e-05
1.86402e-05
3.00324e-06
8.83936e-06
2.94627e-06
8.84609e-06
1.56973e-07
1.56976e-07
1.56972e-07
1.52025e-07
1.52027e-07
1.52031e-07
1.52028e-07
7.62977e-07
2.32149e-06
1.70963e-07
2.0849e-07
7.42247e-07
2.35909e-06
1.69564e-07
1.8654e-05
1.8641e-05
7.62533e-07
1.70957e-07
2.32239e-06
2.08506e-07
7.42615e-07
1.69563e-07
2.35761e-06
4.811e-06
4.81169e-06
2.78019e-07
4.84338e-06
4.8455e-06
3.17322e-06
8.85362e-06
3.11807e-06
8.85984e-06
1.861e-05
1.85985e-05
3.174e-06
8.85572e-06
3.11814e-06
8.86199e-06
1.505e-07
1.50505e-07
1.505e-07
1.46246e-07
1.46247e-07
1.46253e-07
1.4625e-07
8.31414e-07
2.43123e-06
1.65868e-07
2.09145e-07
8.07946e-07
2.4677e-06
1.64783e-07
1.86111e-05
1.85998e-05
8.31132e-07
1.6586e-07
2.43277e-06
2.09167e-07
8.08188e-07
1.64782e-07
2.46603e-06
4.90419e-06
4.90606e-06
2.88537e-07
4.92937e-06
4.93133e-06
3.32996e-06
8.86871e-06
3.2794e-06
8.87462e-06
1.8571e-05
1.8561e-05
3.32952e-06
8.87109e-06
3.28017e-06
8.877e-06
1.44948e-07
1.44953e-07
1.44949e-07
1.41362e-07
1.41361e-07
1.41368e-07
1.41365e-07
9.06997e-07
2.53674e-06
1.62044e-07
2.11851e-07
8.8136e-07
2.56767e-06
1.61274e-07
1.85722e-05
1.85619e-05
9.06498e-07
1.62036e-07
2.53694e-06
2.11877e-07
8.81661e-07
1.61271e-07
2.56761e-06
4.98092e-06
4.9817e-06
3.02415e-07
5.00109e-06
5.00461e-06
3.46776e-06
8.88314e-06
3.42405e-06
8.88873e-06
1.85351e-05
1.85255e-05
3.46781e-06
8.88505e-06
3.4248e-06
8.8914e-06
1.4028e-07
1.40287e-07
1.40281e-07
1.37339e-07
1.37337e-07
1.37345e-07
1.37341e-07
9.88297e-07
2.63303e-06
1.59494e-07
2.16638e-07
9.60974e-07
2.66111e-06
1.59035e-07
1.85362e-05
1.85267e-05
9.87788e-07
1.59487e-07
2.63311e-06
2.16663e-07
9.61241e-07
1.59032e-07
2.66114e-06
5.04374e-06
5.04428e-06
3.1952e-07
5.06085e-06
5.06316e-06
3.58479e-06
8.89666e-06
3.54903e-06
8.90185e-06
1.85012e-05
1.84922e-05
3.58582e-06
8.89853e-06
3.54877e-06
8.90444e-06
1.36466e-07
1.36474e-07
1.36468e-07
1.34152e-07
1.34149e-07
1.34158e-07
1.34153e-07
1.07196e-06
2.72058e-06
1.58227e-07
2.23527e-07
1.04475e-06
2.7458e-06
1.58077e-07
1.85025e-05
1.84938e-05
1.07202e-06
1.58222e-07
2.72061e-06
2.23553e-07
1.04482e-06
1.58075e-07
2.74581e-06
5.09373e-06
5.09557e-06
3.40338e-07
5.10908e-06
5.11094e-06
3.68187e-06
8.90915e-06
3.65172e-06
8.91403e-06
1.84696e-05
1.84615e-05
3.68237e-06
8.91093e-06
3.65183e-06
8.91637e-06
1.33482e-07
1.33491e-07
1.33484e-07
1.31778e-07
1.31775e-07
1.31786e-07
1.3178e-07
1.15765e-06
2.79911e-06
1.58232e-07
2.32518e-07
1.1295e-06
2.8213e-06
1.58429e-07
1.84711e-05
1.84632e-05
1.15725e-06
1.58228e-07
2.79923e-06
2.32545e-07
1.12998e-06
1.58433e-07
2.8216e-06
5.13575e-06
5.13754e-06
3.64364e-07
5.1483e-06
5.15008e-06
3.75771e-06
8.91998e-06
3.73489e-06
8.9249e-06
1.84405e-05
1.84333e-05
3.75892e-06
8.9221e-06
3.73487e-06
8.92702e-06
1.31306e-07
1.31317e-07
1.31309e-07
1.30203e-07
1.302e-07
1.30212e-07
1.30205e-07
1.24125e-06
2.8692e-06
1.5956e-07
2.43599e-07
1.2144e-06
2.88855e-06
1.60081e-07
1.84421e-05
1.84349e-05
1.24108e-06
1.59552e-07
2.8692e-06
2.43633e-07
1.21453e-06
1.60085e-07
2.88874e-06
5.17028e-06
5.17203e-06
3.91245e-07
5.18009e-06
5.18187e-06
3.81761e-06
8.92994e-06
3.80023e-06
8.93433e-06
1.84138e-05
1.84073e-05
3.81801e-06
8.932e-06
3.80079e-06
8.9364e-06
1.29923e-07
1.29935e-07
1.29926e-07
1.29413e-07
1.2941e-07
1.29425e-07
1.29415e-07
1.32186e-06
2.931e-06
1.62212e-07
2.56744e-07
1.29641e-06
2.94786e-06
1.63062e-07
1.84154e-05
1.8409e-05
1.32186e-06
1.62205e-07
2.93101e-06
2.56792e-07
1.2964e-06
1.63069e-07
2.9481e-06
5.19875e-06
5.20049e-06
4.20893e-07
5.20675e-06
5.20853e-06
3.86446e-06
8.93862e-06
3.85037e-06
8.94249e-06
1.83893e-05
1.83836e-05
3.86465e-06
8.94066e-06
3.85045e-06
8.94447e-06
1.29319e-07
1.29334e-07
1.29324e-07
1.29388e-07
1.29382e-07
1.29405e-07
1.29389e-07
1.3981e-06
2.9854e-06
1.66209e-07
2.71902e-07
1.37407e-06
3.00006e-06
1.67389e-07
1.8391e-05
1.83853e-05
1.39805e-06
1.66204e-07
2.98548e-06
2.71959e-07
1.37415e-06
1.67401e-07
3.00128e-06
5.22262e-06
5.22446e-06
4.52901e-07
5.22902e-06
5.23079e-06
3.89853e-06
8.9462e-06
3.88909e-06
8.94951e-06
1.83672e-05
1.83623e-05
3.89876e-06
8.94821e-06
3.88914e-06
8.95146e-06
1.29505e-07
1.29521e-07
1.29508e-07
1.30128e-07
1.30122e-07
1.30143e-07
1.30134e-07
1.46884e-06
3.0333e-06
1.71567e-07
2.89006e-07
1.44638e-06
3.04599e-06
1.73079e-07
1.83687e-05
1.83637e-05
1.46901e-06
1.71565e-07
3.03236e-06
2.89076e-07
1.44618e-06
1.73095e-07
3.04601e-06
5.24255e-06
5.24442e-06
4.86802e-07
5.24796e-06
5.24954e-06
3.92496e-06
8.95298e-06
3.91804e-06
8.95559e-06
1.83473e-05
1.83431e-05
3.92517e-06
8.95486e-06
3.91812e-06
8.95746e-06
1.30443e-07
1.30464e-07
1.30447e-07
1.31636e-07
1.3163e-07
1.31653e-07
1.31644e-07
1.53291e-06
3.07559e-06
1.78291e-07
3.07966e-07
1.51295e-06
3.08661e-06
1.8014e-07
1.83486e-05
1.83444e-05
1.53346e-06
1.78293e-07
3.07569e-06
3.08042e-07
1.51261e-06
1.80161e-07
3.08687e-06
5.25954e-06
5.26171e-06
5.22774e-07
5.26404e-06
5.26573e-06
3.94517e-06
8.95893e-06
3.94012e-06
8.96129e-06
1.83296e-05
1.83261e-05
3.94592e-06
8.96074e-06
3.93984e-06
8.96313e-06
1.32144e-07
1.32167e-07
1.32148e-07
1.33903e-07
1.33897e-07
1.33922e-07
1.33914e-07
1.59119e-06
3.11299e-06
1.86387e-07
3.28671e-07
1.57325e-06
3.1226e-06
1.88572e-07
1.83306e-05
1.83273e-05
1.59118e-06
1.86391e-07
3.11314e-06
3.28751e-07
1.57332e-06
1.88597e-07
3.12288e-06
5.27419e-06
5.2762e-06
5.58325e-07
5.27798e-06
5.2798e-06
3.96089e-06
8.96445e-06
3.95697e-06
8.96672e-06
1.8314e-05
1.83113e-05
3.96144e-06
8.96617e-06
3.95667e-06
8.96865e-06
1.34605e-07
1.34631e-07
1.3461e-07
1.36929e-07
1.36924e-07
1.36951e-07
1.36944e-07
1.644e-06
3.14625e-06
1.95845e-07
3.50997e-07
1.62718e-06
3.15464e-06
1.98363e-07
1.8315e-05
1.83124e-05
1.64364e-06
1.9585e-07
3.14641e-06
3.51084e-07
1.62762e-06
1.9839e-07
3.15583e-06
5.28692e-06
5.28885e-06
5.95797e-07
5.29016e-06
5.29205e-06
3.97347e-06
8.96977e-06
3.97039e-06
8.97215e-06
1.83007e-05
1.82988e-05
3.97379e-06
8.97142e-06
3.9701e-06
8.97405e-06
1.37829e-07
1.37857e-07
1.37833e-07
1.40718e-07
1.40713e-07
1.40743e-07
1.40736e-07
1.69033e-06
3.17604e-06
2.06641e-07
3.74808e-07
1.67604e-06
3.18343e-06
2.09482e-07
1.83016e-05
1.82999e-05
1.69077e-06
2.06655e-07
3.17523e-06
3.74901e-07
1.67587e-06
2.09521e-07
3.18438e-06
5.29832e-06
5.3002e-06
6.32962e-07
5.30112e-06
5.30301e-06
3.98349e-06
8.97516e-06
3.98107e-06
8.97772e-06
1.82897e-05
1.82887e-05
3.98382e-06
8.97682e-06
3.9809e-06
8.97962e-06
1.41815e-07
1.41845e-07
1.41819e-07
1.45273e-07
1.45269e-07
1.45301e-07
1.45296e-07
1.73244e-06
3.20287e-06
2.18751e-07
3.99947e-07
1.71921e-06
3.21039e-06
2.21908e-07
1.82905e-05
1.82896e-05
1.73247e-06
2.18771e-07
3.2029e-06
4.00046e-07
1.7192e-06
2.21956e-07
3.20968e-06
5.30872e-06
5.31056e-06
6.70193e-07
5.31123e-06
5.31313e-06
3.992e-06
8.98073e-06
3.98999e-06
8.98362e-06
1.8281e-05
1.82808e-05
3.99216e-06
8.98259e-06
3.98992e-06
8.98554e-06
1.46567e-07
1.46598e-07
1.46573e-07
1.50598e-07
1.50597e-07
1.50629e-07
1.50627e-07
1.77011e-06
3.22651e-06
2.32142e-07
4.26258e-07
1.75804e-06
3.23428e-06
2.35608e-07
1.82818e-05
1.82818e-05
1.77007e-06
2.32167e-07
3.22744e-06
4.26359e-07
1.75821e-06
2.35656e-07
3.23365e-06
5.31839e-06
5.32021e-06
7.07219e-07
5.32074e-06
5.32264e-06
3.99928e-06
8.9868e-06
3.99756e-06
8.99001e-06
1.82747e-05
1.82754e-05
3.99941e-06
8.98899e-06
3.99747e-06
8.99169e-06
1.52091e-07
1.52123e-07
1.52098e-07
1.56699e-07
1.56701e-07
1.56733e-07
1.56734e-07
1.8036e-06
3.24935e-06
2.46776e-07
4.53574e-07
1.79333e-06
3.25516e-06
2.50538e-07
1.82755e-05
1.82763e-05
1.80359e-06
2.46796e-07