/*--------------------------------*- C++ -*----------------------------------*\
| =========                 |                                                 |
| \\      /  F ield         | OpenFOAM: The Open Source CFD Toolbox           |
|  \\    /   O peration     | Version:  v2012                                 |
|   \\  /    A nd           | Website:  www.openfoam.com                      |
|    \\/     M anipulation  |                                                 |
\*---------------------------------------------------------------------------*/
FoamFile
{
    version     2.0;
    format      ascii;
    class       volScalarField;
    location    "250";
    object      nut;
}
// * * * * * * * * * * * * * * * * * * * * * * * * * * * * * * * * * * * * * //

dimensions      [0 2 -1 0 0 0 0];


internalField   nonuniform List<scalar> 
85864
(
0.000233972
0.000233081
0.000233084
0.000233399
0.000232521
0.000227697
0.000227695
0.000223705
0.000230489
0.000220168
0.000220163
0.0002089
0.000227754
0.000211493
0.00021149
0.00019363
0.000224373
0.00020248
0.000202476
0.000179633
0.000220481
0.000193616
0.00019361
0.000167319
0.000216226
0.000185137
0.000185129
0.000156546
0.000211739
0.000177113
0.000177105
0.000147171
0.000207126
0.000169583
0.000169574
0.000138952
0.000202466
0.000162519
0.000162509
0.000131724
0.000197813
0.000155865
0.000155854
0.000125001
0.000193201
0.000149567
0.000149556
0.000118907
0.000188613
0.000143584
0.000143573
0.000113132
0.000184082
0.000137861
0.00013785
0.000107912
0.000179638
0.000132359
0.000132348
0.000102997
0.00017527
0.000127069
0.000127058
9.83197e-05
0.000170966
0.000122011
0.000121999
9.40843e-05
0.000166712
0.000117216
0.0001172
9.05265e-05
0.000162509
0.000112707
0.000112691
8.75936e-05
0.000158331
0.000108546
0.000108534
8.52544e-05
0.000154173
0.000104786
0.000104774
8.35561e-05
0.000150044
0.000101456
0.000101448
8.25123e-05
0.000145954
9.8613e-05
9.86062e-05
8.19308e-05
0.000141925
9.6277e-05
9.62727e-05
8.19409e-05
0.000137982
9.44601e-05
9.44574e-05
8.25552e-05
0.000134142
9.31603e-05
9.3159e-05
8.35809e-05
0.000130459
9.23689e-05
9.23673e-05
8.48737e-05
0.000126962
9.20625e-05
9.20618e-05
8.65157e-05
0.000123684
9.2214e-05
9.22142e-05
8.83488e-05
0.000120676
9.27929e-05
9.27945e-05
9.05107e-05
0.000117964
9.37659e-05
9.37684e-05
9.27764e-05
0.000115549
9.50946e-05
9.50953e-05
9.52118e-05
0.000113472
9.67392e-05
9.67411e-05
9.77356e-05
0.000111747
9.8665e-05
9.86683e-05
0.000100488
0.000110384
0.000100835
0.000100837
0.000103023
0.000109391
0.000103221
0.000103221
0.00010575
0.000108765
0.000105791
0.00010579
0.000108443
0.000108504
0.000108511
0.000108511
0.000111103
0.000108599
0.000111355
0.000111355
0.000113952
0.000109038
0.000114295
0.000114292
0.000116556
0.000109807
0.000117308
0.000117304
0.000119193
0.000110889
0.000120381
0.000120379
0.00012183
0.000112266
0.000123496
0.000123489
0.00012448
0.000113918
0.000126628
0.000126619
0.000127037
0.000115821
0.000129761
0.000129754
0.000129614
0.00011795
0.000132878
0.000132873
0.000132002
0.000120276
0.00013596
0.000135962
0.000134378
0.000234259
0.000234459
0.000234458
0.000234264
0.000234459
0.000234458
0.000234275
0.000234275
0.000234275
0.000234275
0.000234461
0.000234461
0.000234259
0.00023446
0.000234461
0.000234263
0.000233403
0.000226056
0.000233087
0.000233085
0.000229275
0.000229279
0.000233398
0.000226079
0.000233084
0.000233083
0.000229271
0.00022927
0.000233084
0.000229274
0.000229268
0.000233397
0.000226064
0.000233084
0.000229273
0.000229273
0.000226066
0.000223692
0.000212037
0.000227696
0.000227701
0.000222194
0.000222198
0.000223718
0.000212061
0.000227691
0.000227691
0.000222186
0.000222186
0.000227685
0.000222196
0.000222174
0.000223702
0.000212038
0.000227694
0.00022219
0.00022219
0.000212033
0.000208905
0.000196894
0.000220166
0.00022017
0.000213716
0.000213718
0.000208926
0.000196911
0.000220157
0.000220157
0.000213709
0.000213705
0.000220144
0.00021372
0.000213692
0.000208904
0.000196896
0.000220161
0.000213715
0.00021371
0.000196872
0.000193619
0.000182769
0.000211487
0.000211489
0.000204719
0.000204722
0.000193632
0.00018278
0.000211482
0.000211476
0.000204721
0.000204712
0.000211464
0.000204732
0.000204703
0.000193615
0.000182771
0.000211483
0.000204728
0.000204722
0.000182727
0.000179583
0.000170215
0.000202464
0.000202468
0.00019578
0.000195783
0.000179596
0.000170228
0.000202468
0.000202458
0.00019579
0.000195776
0.00020245
0.0001958
0.000195771
0.000179585
0.000170209
0.000202469
0.000195795
0.00019579
0.000170165
0.000167254
0.000159169
0.000193593
0.000193596
0.000187188
0.00018719
0.000167266
0.000159192
0.000193604
0.00019359
0.000187204
0.000187187
0.000193585
0.000187215
0.000187183
0.000167269
0.000159165
0.000193605
0.000187207
0.000187202
0.000159182
0.000156604
0.000149587
0.000185109
0.00018511
0.000179042
0.000179043
0.000156596
0.000149581
0.000185125
0.000185108
0.000179061
0.000179041
0.000185104
0.000179072
0.000179038
0.00015663
0.000149587
0.000185122
0.000179064
0.000179055
0.000149617
0.000147241
0.00014111
0.000177082
0.000177082
0.000171387
0.000171386
0.000147273
0.000141121
0.000177101
0.000177081
0.000171407
0.000171386
0.000177078
0.00017142
0.000171382
0.000147259
0.000141132
0.000177095
0.00017141
0.000171399
0.000141137
0.000139024
0.000133571
0.00016955
0.00016955
0.00016421
0.000164208
0.000139045
0.000133639
0.000169572
0.000169549
0.000164232
0.000164207
0.000169546
0.000164244
0.000164205
0.000138991
0.00013363
0.000169564
0.000164234
0.000164225
0.000133549
0.00013175
0.000126802
0.000162484
0.000162483
0.000157455
0.000157453
0.000131661
0.000126735
0.000162508
0.000162481
0.00015748
0.000157451
0.00016248
0.000157492
0.000157453
0.000131668
0.000126809
0.000162501
0.000157481
0.000157476
0.0001268
0.000125008
0.000120542
0.000155827
0.000155827
0.000151071
0.00015107
0.000125139
0.000120485
0.000155852
0.000155823
0.000151098
0.000151066
0.000155825
0.000151111
0.00015107
0.000125012
0.000120528
0.000155849
0.000151099
0.000151097
0.00012054
0.00011892
0.000114478
0.000149528
0.000149526
0.000145011
0.000145009
0.000118966
0.000114446
0.000149553
0.000149521
0.000145038
0.000145003
0.000149526
0.000145051
0.00014501
0.000118871
0.000114482
0.000149554
0.00014504
0.000145039
0.00011452
0.000113274
0.000108799
0.000143544
0.000143541
0.000139228
0.000139226
0.000113244
0.000108805
0.00014357
0.000143534
0.000139255
0.000139218
0.000143543
0.000139269
0.000139229
0.000113174
0.0001088
0.000143571
0.000139258
0.000139258
0.00010883
0.000107918
0.000103635
0.000137821
0.000137818
0.000133678
0.000133674
0.000107908
0.000103642
0.000137848
0.000137809
0.000133705
0.000133665
0.000137822
0.000133717
0.00013368
0.00010791
0.000103623
0.000137851
0.000133706
0.000133709
0.000103633
0.000103
9.90334e-05
0.00013232
0.000132316
0.000128335
0.000128329
0.000102996
9.90239e-05
0.000132346
0.000132306
0.000128362
0.000128319
0.000132322
0.000128375
0.000128338
0.000102986
9.90302e-05
0.000132352
0.000128364
0.000128367
9.90347e-05
9.83299e-05
9.48678e-05
0.000127028
0.000127024
0.000123217
0.000123214
9.834e-05
9.4845e-05
0.000127057
0.000127014
0.000123246
0.000123202
0.000127034
0.00012326
0.000123223
9.83138e-05
9.48496e-05
0.000127063
0.000123248
0.000123253
9.48554e-05
9.40846e-05
9.13424e-05
0.000121968
0.000121967
0.000118323
0.000118321
9.41049e-05
9.12782e-05
0.000121998
0.000121956
0.000118352
0.00011831
0.000121976
0.000118368
0.000118327
9.40764e-05
9.13243e-05
0.000122005
0.000118356
0.00011836
9.11993e-05
9.04352e-05
8.82346e-05
0.000117172
0.000117171
0.000113749
0.000113749
9.04972e-05
8.81654e-05
0.000117201
0.00011716
0.000113778
0.000113735
0.000117182
0.000113797
0.000113757
9.04227e-05
8.82498e-05
0.000117207
0.00011378
0.000113784
8.81048e-05
8.75272e-05
8.57447e-05
0.000112663
0.000112662
0.000109495
0.000109493
8.75581e-05
8.55951e-05
0.000112691
0.000112651
0.000109521
0.00010948
0.000112672
0.00010954
0.000109502
8.74871e-05
8.57539e-05
0.000112698
0.000109526
0.000109527
8.5639e-05
8.51473e-05
8.37255e-05
0.000108506
0.000108504
0.000105627
0.000105622
8.52057e-05
8.37598e-05
0.000108531
0.000108494
0.000105649
0.000105612
0.000108515
0.000105669
0.000105634
8.5114e-05
8.39244e-05
0.000108541
0.000105657
0.000105658
8.37854e-05
8.35077e-05
8.24891e-05
0.00010475
0.000104744
0.000102202
0.000102193
8.35447e-05
8.2499e-05
0.00010477
0.000104735
0.00010222
0.000102188
0.000104758
0.000102235
0.000102209
8.34058e-05
8.25413e-05
0.000104782
0.000102226
0.000102231
8.25252e-05
8.24543e-05
8.18947e-05
0.000101419
0.000101411
9.92377e-05
9.92287e-05
8.2472e-05
8.1906e-05
0.000101437
0.000101407
9.92547e-05
9.92256e-05
0.000101429
9.92678e-05
9.92459e-05
8.24696e-05
8.19377e-05
0.000101451
9.926e-05
9.92656e-05
8.20188e-05
8.1992e-05
8.181e-05
9.85784e-05
9.85713e-05
9.67761e-05
9.67648e-05
8.19736e-05
8.20535e-05
9.85949e-05
9.85683e-05
9.67912e-05
9.67616e-05
9.85888e-05
9.6801e-05
9.67816e-05
8.19729e-05
8.18686e-05
9.8609e-05
9.67931e-05
9.68021e-05
8.20441e-05
8.2059e-05
8.23121e-05
9.62455e-05
9.62367e-05
9.48311e-05
9.48189e-05
8.19034e-05
8.22876e-05
9.62609e-05
9.62353e-05
9.48447e-05
9.48184e-05
9.62541e-05
9.48518e-05
9.48357e-05
8.20334e-05
8.24936e-05
9.62741e-05
9.48486e-05
9.48541e-05
8.23256e-05
8.26622e-05
8.34054e-05
9.44315e-05
9.44215e-05
9.3405e-05
9.33916e-05
8.26456e-05
8.31559e-05
9.44458e-05
9.44209e-05
9.34178e-05
9.33912e-05
9.4439e-05
9.3421e-05
9.34084e-05
8.24116e-05
8.35905e-05
9.44573e-05
9.34188e-05
9.34254e-05
8.32396e-05
8.34243e-05
8.47147e-05
9.3136e-05
9.31239e-05
9.24876e-05
9.24754e-05
8.35953e-05
8.44882e-05
9.31493e-05
9.31238e-05
9.24995e-05
9.24739e-05
9.31424e-05
9.25015e-05
9.24929e-05
8.32427e-05
8.48927e-05
9.31589e-05
9.24993e-05
9.25077e-05
8.47373e-05
8.48308e-05
8.6331e-05
9.23464e-05
9.23347e-05
9.20618e-05
9.20519e-05
8.50053e-05
8.61227e-05
9.2358e-05
9.23329e-05
9.20725e-05
9.20494e-05
9.23519e-05
9.20742e-05
9.20673e-05
8.46309e-05
8.62162e-05
9.23669e-05
9.2072e-05
9.20813e-05
8.63808e-05
8.64776e-05
8.82831e-05
9.20416e-05
9.20304e-05
9.21037e-05
9.20913e-05
8.66773e-05
8.82865e-05
9.20525e-05
9.20295e-05
9.2113e-05
9.20915e-05
9.20483e-05
9.21116e-05
9.21083e-05
8.65778e-05
8.79948e-05
9.20614e-05
9.21107e-05
9.21218e-05
8.8355e-05
8.84723e-05
9.01345e-05
9.21966e-05
9.21829e-05
9.25794e-05
9.25659e-05
8.84372e-05
9.04553e-05
9.22063e-05
9.21845e-05
9.25882e-05
9.25669e-05
9.22015e-05
9.25827e-05
9.25832e-05
8.86037e-05
9.01679e-05
9.22141e-05
9.25842e-05
9.25947e-05
9.05548e-05
9.08115e-05
9.27e-05
9.27772e-05
9.27639e-05
9.34538e-05
9.34428e-05
9.05314e-05
9.25162e-05
9.27854e-05
9.27667e-05
9.34612e-05
9.34443e-05
9.27817e-05
9.34571e-05
9.34597e-05
9.08487e-05
9.24288e-05
9.2794e-05
9.34592e-05
9.34697e-05
9.28432e-05
9.30526e-05
9.50918e-05
9.37495e-05
9.37384e-05
9.46943e-05
9.46862e-05
9.30734e-05
9.49211e-05
9.37565e-05
9.37405e-05
9.47007e-05
9.46868e-05
9.3754e-05
9.46981e-05
9.47032e-05
9.32195e-05
9.49209e-05
9.3765e-05
9.47001e-05
9.47113e-05
9.52955e-05
9.53737e-05
9.74737e-05
9.50763e-05
9.50686e-05
9.62606e-05
9.6255e-05
9.54837e-05
9.73868e-05
9.50836e-05
9.50692e-05
9.62672e-05
9.62572e-05
9.50841e-05
9.6265e-05
9.62717e-05
9.55374e-05
9.73154e-05
9.50943e-05
9.62663e-05
9.62804e-05
9.77338e-05
9.78715e-05
0.000100064
9.67214e-05
9.67142e-05
9.8122e-05
9.81122e-05
9.80213e-05
9.97671e-05
9.67269e-05
9.67171e-05
9.81232e-05
9.81163e-05
9.67306e-05
9.81199e-05
9.81306e-05
9.80758e-05
9.97852e-05
9.674e-05
9.81228e-05
9.81374e-05
0.000100044
0.000100419
0.000102454
9.86501e-05
9.86404e-05
0.000100234
0.000100223
0.000100673
0.000102553
9.86507e-05
9.86451e-05
0.000100234
0.000100227
9.86608e-05
0.000100228
0.000100247
0.000100707
0.000102506
9.8667e-05
0.00010023
0.000100252
0.000102947
0.000103151
0.000105006
0.000100822
0.000100811
0.000102569
0.000102556
0.00010316
0.000105238
0.000100821
0.000100815
0.000102565
0.000102557
0.000100835
0.000102559
0.000102585
0.000103181
0.000105218
0.00010084
0.000102558
0.000102589
0.000105261
0.000105915
0.000107865
0.000103211
0.000103198
0.00010509
0.00010508
0.000105753
0.000107857
0.000103207
0.000103197
0.000105086
0.00010508
0.000103227
0.000105081
0.000105111
0.000105711
0.000107908
0.000103231
0.00010508
0.000105114
0.000107903
0.000108348
0.000110529
0.000105777
0.000105765
0.000107769
0.00010776
0.000108384
0.000110446
0.000105775
0.000105767
0.000107768
0.000107761
0.000105796
0.000107761
0.000107792
0.000108402
0.000110519
0.000105799
0.000107761
0.000107793
0.00011062
0.000111057
0.00011321
0.000108496
0.000108484
0.000110579
0.00011057
0.000111077
0.000113003
0.000108496
0.000108487
0.000110579
0.000110571
0.000108517
0.00011057
0.000110602
0.000111056
0.000113237
0.000108517
0.00011057
0.000110601
0.000113109
0.00011375
0.000115896
0.000111338
0.000111328
0.00011349
0.000113483
0.00011391
0.00011572
0.000111339
0.000111329
0.000113491
0.000113483
0.000111359
0.000113483
0.000113515
0.000113721
0.000115733
0.000111358
0.000113482
0.000113513
0.000115814
0.000116393
0.000118439
0.000114277
0.000114266
0.000116479
0.000116473
0.000116517
0.000118366
0.000114278
0.000114267
0.000116483
0.000116475
0.000114298
0.000116475
0.000116507
0.000116486
0.000118386
0.000114295
0.000116472
0.000116504
0.000118543
0.00011915
0.000121022
0.000117286
0.000117275
0.000119534
0.000119529
0.000119184
0.000121243
0.000117291
0.000117278
0.000119541
0.000119531
0.000117309
0.00011953
0.000119564
0.000119141
0.000121124
0.000117306
0.000119529
0.000119561
0.000121199
0.00012175
0.000123806
0.000120355
0.000120346
0.000122633
0.000122632
0.000121698
0.000123896
0.000120363
0.000120347
0.000122641
0.000122631
0.000120379
0.000122633
0.000122664
0.000121765
0.000123754
0.000120377
0.000122629
0.000122664
0.000123732
0.0001243
0.000126407
0.000123464
0.000123458
0.000125759
0.00012576
0.000124292
0.000126432
0.000123472
0.000123454
0.000125766
0.000125755
0.000123487
0.000125759
0.000125785
0.000124334
0.000126392
0.000123487
0.000125751
0.000125789
0.000126275
0.000126961
0.000129034
0.000126593
0.000126586
0.000128889
0.000128891
0.000126908
0.000129048
0.000126599
0.00012658
0.000128894
0.000128887
0.00012661
0.000128888
0.000128911
0.000126961
0.000128914
0.000126615
0.000128881
0.000128918
0.000128831
0.000129422
0.000131376
0.00012972
0.000129715
0.000132004
0.000132012
0.000129416
0.000131589
0.000129726
0.000129711
0.00013201
0.000132008
0.000129736
0.000132005
0.000132031
0.000129504
0.000131416
0.000129741
0.000132
0.000132037
0.000131424
0.000132034
0.000133798
0.000132832
0.000132829
0.000135094
0.000135101
0.000131884
0.000133977
0.000132838
0.000132824
0.0001351
0.000135097
0.000132848
0.000135089
0.000135118
0.000131949
0.000133887
0.000132854
0.000135089
0.000135124
0.000133878
0.000134431
0.000136216
0.00013591
0.000135905
0.000138129
0.000138132
0.000134265
0.000136338
0.000135917
0.000135903
0.000138139
0.000138138
0.000135923
0.000138122
0.000138149
0.00013439
0.000136262
0.000135928
0.000138133
0.000138157
0.000136211
0.00023473
0.000234746
0.000234729
0.000234729
0.000235127
0.000234799
0.000234801
0.000234726
0.000235128
0.000234799
0.000234726
0.000234965
0.000234871
0.000233496
0.000233554
0.000104749
3.88328e-05
0.000128547
3.97887e-05
2.14345e-05
2.28751e-05
0.000104748
3.8821e-05
0.000128493
3.97875e-05
0.000233972
0.000233972
0.000233972
0.000232928
0.000232928
0.000232928
0.000232928
0.000206106
9.3192e-05
0.000233967
0.000231952
0.000222362
8.62226e-05
0.000233607
2.14304e-05
2.28857e-05
0.000205991
0.000233967
9.28947e-05
0.000231954
0.000222337
0.000233604
8.63713e-05
4.70996e-05
4.73749e-05
0.000231282
4.34613e-05
4.36292e-05
7.26582e-05
4.24116e-05
8.13966e-05
4.37587e-05
2.47985e-05
2.54815e-05
7.2611e-05
4.24077e-05
8.13622e-05
4.37548e-05
0.000232522
0.000232521
0.000232521
0.000231062
0.000231063
0.000231061
0.000231061
0.000167286
7.88122e-05
0.000232058
0.000225979
0.000180006
7.3886e-05
0.000231345
2.48003e-05
2.54825e-05
0.000167261
0.000232053
7.88014e-05
0.000225975
0.000179936
0.000231339
7.39608e-05
3.89372e-05
3.90474e-05
0.000219413
3.63901e-05
3.64807e-05
5.63739e-05
4.5545e-05
6.12519e-05
4.64211e-05
2.60195e-05
2.61206e-05
5.63292e-05
4.55416e-05
6.12142e-05
4.64174e-05
0.00023049
0.000230488
0.000230487
0.000228502
0.000228504
0.000228501
0.0002285
0.000138503
6.701e-05
0.000228584
0.00021807
0.000147993
6.30663e-05
0.00022747
2.60179e-05
2.61185e-05
0.000138521
0.000228583
6.69555e-05
0.000218065
0.000147965
0.000227468
6.31331e-05
3.31984e-05
3.32511e-05
0.00020442
3.19786e-05
3.20189e-05
4.7011e-05
4.75019e-05
4.99882e-05
4.80134e-05
2.60508e-05
2.59406e-05
4.70301e-05
4.74972e-05
4.99695e-05
4.80091e-05
0.000227756
0.000227753
0.000227751
0.000225272
0.000225274
0.000225271
0.000225269
0.000117531
5.78527e-05
0.000223638
0.000209246
0.000124628
5.51975e-05
0.000222223
2.60392e-05
2.59378e-05
0.00011752
0.000223638
5.78429e-05
0.000209242
0.000124582
0.000222221
5.52128e-05
3.06559e-05
3.06763e-05
0.000189613
3.03622e-05
3.03899e-05
4.14762e-05
4.85828e-05
4.32759e-05
4.88438e-05
2.56718e-05
2.55203e-05
4.14518e-05
4.85782e-05
4.33114e-05
4.884e-05
0.000224375
0.000224372
0.00022437
0.000221493
0.000221496
0.000221492
0.00022149
0.000102101
5.15993e-05
0.000217678
0.000200236
0.000107458
4.98742e-05
0.000216086
2.56689e-05
2.55181e-05
0.000102086
0.000217675
5.1571e-05
0.000200232
0.000107444
0.000216081
4.98736e-05
3.02793e-05
3.02468e-05
0.000176249
3.04336e-05
3.04326e-05
3.81992e-05
4.9091e-05
3.92406e-05
4.91967e-05
2.52346e-05
2.50949e-05
3.8181e-05
4.9088e-05
3.93041e-05
4.91937e-05
0.000220484
0.00022048
0.000220478
0.000217316
0.000217319
0.000217315
0.000217313
9.0495e-05
4.74523e-05
0.000211172
0.000191454
9.45996e-05
4.64561e-05
0.000209506
2.52319e-05
2.50931e-05
9.04832e-05
0.000211167
4.74538e-05
0.000191447
9.4586e-05
0.000209498
4.64615e-05
3.11024e-05
3.10509e-05
0.000164463
3.15763e-05
3.15267e-05
3.63958e-05
4.92749e-05
3.69424e-05
4.92892e-05
2.48466e-05
2.4734e-05
3.63886e-05
4.92714e-05
3.69742e-05
4.92859e-05
0.00021623
0.000216225
0.000216223
0.000212876
0.00021288
0.000212876
0.000212872
8.15997e-05
4.49591e-05
0.000204483
0.000183085
8.48321e-05
4.44185e-05
0.000202812
2.48443e-05
2.47322e-05
8.15934e-05
0.000204476
4.49253e-05
0.000183077
8.4817e-05
0.000202803
4.44152e-05
3.26917e-05
3.26354e-05
0.000154263
3.32973e-05
3.32871e-05
3.56993e-05
4.92869e-05
3.58332e-05
4.92702e-05
2.45349e-05
2.44465e-05
3.56956e-05
4.92836e-05
3.58372e-05
4.92668e-05
0.000211743
0.000211739
0.000211735
0.000208286
0.000208289
0.000208285
0.00020828
7.46698e-05
4.36295e-05
0.000197847
0.000175184
7.72826e-05
4.34152e-05
0.000196214
2.45319e-05
2.44464e-05
7.46674e-05
0.00019784
4.36155e-05
0.000175175
7.72762e-05
0.000196204
4.34355e-05
3.47296e-05
3.46823e-05
0.000145237
3.54426e-05
3.54413e-05
3.5755e-05
4.92528e-05
3.56801e-05
4.92318e-05
2.42956e-05
2.42317e-05
3.57598e-05
4.925e-05
3.56866e-05
4.92289e-05
0.000207129
0.000207125
0.00020712
0.000203631
0.000203634
0.00020363
0.000203625
6.9234e-05
4.31177e-05
0.000191398
0.000167775
7.13505e-05
4.30842e-05
0.000189819
2.42912e-05
2.42262e-05
6.92299e-05
0.000191392
4.30767e-05
0.000167766
7.13468e-05
0.000189809
4.31636e-05
3.70197e-05
3.70073e-05
0.000137217
3.78472e-05
3.78341e-05
3.65491e-05
4.92199e-05
3.62596e-05
4.92161e-05
2.41154e-05
2.40675e-05
3.65412e-05
4.92178e-05
3.62584e-05
4.92139e-05
0.000202469
0.000202464
0.00020246
0.000198972
0.000198976
0.00019897
0.000198967
6.49225e-05
4.33277e-05
0.000185164
0.000160818
6.65876e-05
4.34292e-05
0.000183643
2.41151e-05
2.40656e-05
6.49204e-05
0.000185158
4.32491e-05
0.000160808
6.65869e-05
0.000183634
4.35065e-05
3.95034e-05
3.9483e-05
0.000130052
4.03228e-05
4.03326e-05
3.79618e-05
4.92163e-05
3.7471e-05
4.92211e-05
2.39902e-05
2.39509e-05
3.7965e-05
4.92139e-05
3.74725e-05
4.92189e-05
0.000197817
0.00019781
0.000197808
0.000194347
0.000194352
0.000194344
0.000194343
6.15307e-05
4.40292e-05
0.000179187
0.000154259
6.27947e-05
4.42841e-05
0.000177737
2.3988e-05
2.39485e-05
6.15254e-05
0.000179181
4.39336e-05
0.000154247
6.27974e-05
0.000177728
4.43655e-05
4.20071e-05
4.20053e-05
0.000123595
4.28692e-05
4.28512e-05
3.99295e-05
4.92402e-05
3.92789e-05
4.92449e-05
2.38991e-05
2.38691e-05
3.99378e-05
4.92378e-05
3.92729e-05
4.92428e-05
0.000193206
0.000193197
0.000193197
0.00018976
0.000189765
0.000189755
0.000189757
5.89445e-05
4.51642e-05
0.000173489
0.000148042
5.9883e-05
4.55377e-05
0.000172104
2.38972e-05
2.38666e-05
5.8958e-05
0.000173484
4.50693e-05
0.000148031
5.98584e-05
0.000172094
4.56373e-05
4.44896e-05
4.4488e-05
0.000117467
4.53295e-05
4.53139e-05
4.24294e-05
4.9275e-05
4.16096e-05
4.92842e-05
2.38352e-05
2.38118e-05
4.24412e-05
4.92725e-05
4.15931e-05
4.92814e-05
0.000188618
0.000188608
0.00018861
0.000185206
0.000185212
0.000185201
0.000185204
5.71125e-05
4.66632e-05
0.000168039
0.000142131
5.77185e-05
4.72157e-05
0.000166712
2.38334e-05
2.38094e-05
5.71285e-05
0.000168034
4.65773e-05
0.000142118
5.77139e-05
0.000166703
4.72467e-05
4.68964e-05
4.68749e-05
0.000111623
4.76487e-05
4.76584e-05
4.53606e-05
4.93151e-05
4.43853e-05
4.93257e-05
2.37902e-05
2.37713e-05
4.53875e-05
4.93133e-05
4.43518e-05
4.93223e-05
0.000184087
0.000184077
0.00018408
0.000180742
0.000180747
0.000180736
0.00018074
5.59415e-05
4.84098e-05
0.000162802
0.000136468
5.63158e-05
4.90972e-05
0.000161523
2.37882e-05
2.37691e-05
5.59887e-05
0.000162798
4.83944e-05
0.000136456
5.62495e-05
0.000161515
4.90816e-05
4.91246e-05
4.91311e-05
0.000106163
4.98446e-05
4.98243e-05
4.8604e-05
4.93549e-05
4.75254e-05
4.93643e-05
2.37573e-05
2.37422e-05
4.86145e-05
4.9352e-05
4.74918e-05
4.93614e-05
0.000179643
0.000179632
0.000179637
0.000176355
0.00017636
0.000176349
0.000176354
5.54158e-05
5.04387e-05
0.000157745
0.000131019
5.55747e-05
5.11757e-05
0.000156508
2.37516e-05
2.3745e-05
5.54854e-05
0.000157742
5.04682e-05
0.000131006
5.54969e-05
0.000156501
5.11342e-05
5.11883e-05
5.12002e-05
0.000101273
5.18458e-05
5.183e-05
5.20351e-05
4.93888e-05
5.08899e-05
4.94048e-05
2.37303e-05
2.37205e-05
5.20734e-05
4.93809e-05
5.08604e-05
4.94024e-05
0.000175275
0.000175264
0.000175269
0.000172035
0.00017204
0.000172028
0.000172034
5.55874e-05
5.26172e-05
0.00015284
0.000125787
5.54416e-05
5.33854e-05
0.00015164
2.37246e-05
2.37207e-05
5.56001e-05
0.000152838
5.25845e-05
0.000125774
5.53921e-05
0.000151633
5.33885e-05
5.30632e-05
5.30652e-05
9.68964e-05
5.36673e-05
5.36677e-05
5.55574e-05
4.94174e-05
5.43259e-05
4.94372e-05
2.37081e-05
2.37018e-05
5.55962e-05
4.94149e-05
5.42896e-05
4.94342e-05
0.00017097
0.000170959
0.000170966
0.000167768
0.000167772
0.000167761
0.000167767
5.62637e-05
5.48802e-05
0.000148084
0.000120791
5.60003e-05
5.56312e-05
0.000146917
2.37049e-05
2.37003e-05
5.63134e-05
0.000148084
5.4854e-05
0.000120779
5.59364e-05
0.000146911
5.56471e-05
5.47617e-05
5.47779e-05
9.29274e-05
5.52947e-05
5.52927e-05
5.8968e-05
4.94477e-05
5.77364e-05
4.94662e-05
2.36894e-05
2.36847e-05
5.89898e-05
4.94454e-05
5.77051e-05
4.94639e-05
0.000166716
0.000166705
0.000166712
0.000163551
0.000163555
0.000163544
0.00016355
5.75594e-05
5.71714e-05
0.000143441
0.000116051
5.70948e-05
5.788e-05
0.000142302
2.36871e-05
2.36826e-05
5.75991e-05
0.000143444
5.71415e-05
0.000116037
5.70431e-05
0.000142297
5.79266e-05
5.62958e-05
5.6299e-05
8.95811e-05
5.67932e-05
5.67929e-05
6.21632e-05
4.94767e-05
6.09824e-05
4.94936e-05
2.3673e-05
2.36683e-05
6.22054e-05
4.94742e-05
6.09508e-05
4.94917e-05
0.000162514
0.000162503
0.000162509
0.000159368
0.000159372
0.000159361
0.000159367
5.93782e-05
5.94051e-05
0.000138899
0.000111622
5.87426e-05
6.01684e-05
0.000137786
2.36707e-05
2.36665e-05
5.94312e-05
0.0001389
5.93891e-05
0.000111608
5.86867e-05
0.000137783
6.01812e-05
5.76773e-05
5.76948e-05
8.6776e-05
5.8132e-05
5.81136e-05
6.50911e-05
4.95031e-05
6.39881e-05
4.95191e-05
2.36575e-05
2.36536e-05
6.51221e-05
4.95065e-05
6.39639e-05
4.9513e-05
0.000158337
0.000158326
0.000158333
0.000155203
0.000155208
0.000155197
0.000155204
6.16014e-05
6.15953e-05
0.000134459
0.000107553
6.08344e-05
6.23317e-05
0.00013338
2.36554e-05
2.36515e-05
6.16458e-05
0.000134461
6.1575e-05
0.000107541
6.08006e-05
0.000133378
6.23444e-05
5.89294e-05
5.89475e-05
8.46299e-05
5.93307e-05
5.93266e-05
6.7706e-05
4.95278e-05
6.66932e-05
4.95431e-05
2.36433e-05
2.36399e-05
6.77159e-05
4.95317e-05
6.66928e-05
4.95376e-05
0.000154179
0.000154168
0.000154175
0.000151063
0.000151068
0.000151057
0.000151065
6.41985e-05
6.37069e-05
0.000130137
0.000103922
6.32804e-05
6.44177e-05
0.000129099
2.36411e-05
2.36375e-05
6.41959e-05
0.000130138
6.37032e-05
0.000103912
6.32646e-05
0.000129097
6.44109e-05
6.0083e-05
6.00828e-05
8.30908e-05
6.04333e-05
6.04308e-05
6.99885e-05
4.95511e-05
6.91121e-05
4.95628e-05
2.36301e-05
2.36268e-05
7.00037e-05
4.95548e-05
6.91071e-05
4.95594e-05
0.000150051
0.00015004
0.000150048
0.000146958
0.000146963
0.000146952
0.000146961
6.69562e-05
6.57066e-05
0.000125979
0.000100689
6.60434e-05
6.64068e-05
0.000124964
2.36277e-05
2.36245e-05
6.69873e-05
0.000125981
6.57139e-05
0.000100681
6.60145e-05
0.000124958
6.63872e-05
6.11187e-05
6.11167e-05
8.21748e-05
6.14395e-05
6.14365e-05
7.2012e-05
4.95768e-05
7.12197e-05
4.95803e-05
2.36177e-05
2.36147e-05
7.20106e-05
4.95755e-05
7.12195e-05
4.95791e-05
0.000145961
0.000145951
0.000145959
0.000142907
0.000142911
0.0001429
0.000142911
6.99083e-05
6.76028e-05
0.000121999
9.79692e-05
6.89193e-05
6.82708e-05
0.00012104
2.36153e-05
2.36123e-05
6.99266e-05
0.000122007
6.76224e-05
9.79622e-05
6.89086e-05
0.000121037
6.82585e-05
6.20653e-05
6.20625e-05
8.2009e-05
6.23637e-05
6.23621e-05
7.37598e-05
4.95951e-05
7.30589e-05
4.95979e-05
2.36063e-05
2.36035e-05
7.37743e-05
4.95938e-05
7.30484e-05
4.95966e-05
0.000141932
0.000141921
0.00014193
0.000138935
0.000138939
0.000138927
0.000138939
7.29039e-05
6.9407e-05
0.000118263
9.57607e-05
7.18903e-05
7.003e-05
0.000117374
2.3604e-05
2.36013e-05
7.29249e-05
0.000118274
6.94189e-05
9.57543e-05
7.18793e-05
0.000117374
7.00179e-05
6.29356e-05
6.29324e-05
8.22415e-05
6.32112e-05
6.32088e-05
7.52757e-05
4.96108e-05
7.46705e-05
4.96133e-05
2.35959e-05
2.35934e-05
7.52952e-05
4.96096e-05
7.46712e-05
4.96124e-05
0.00013799
0.000137979
0.000137988
0.00013508
0.000135087
0.00013507
0.000135086
7.5879e-05
7.11016e-05
0.000114825
9.4071e-05
7.48834e-05
7.16896e-05
0.000114041
2.35935e-05
2.35911e-05
7.58909e-05
0.000114837
7.11123e-05
9.40686e-05
7.48689e-05
0.000114042
7.16697e-05
6.37335e-05
6.37303e-05
8.27319e-05
6.39941e-05
6.39925e-05
7.66521e-05
4.96243e-05
7.60804e-05
4.96268e-05
2.35864e-05
2.35843e-05
7.66702e-05
4.96228e-05
7.60839e-05
4.9626e-05
0.000134143
0.000134135
0.000134146
0.000131368
0.000131373
0.000131363
0.00013137
7.87833e-05
7.26958e-05
0.000111726
9.28974e-05
7.78128e-05
7.32604e-05
0.00011098
2.3584e-05
2.35819e-05
7.87659e-05
0.000111742
7.27299e-05
9.28956e-05
7.784e-05
0.000110983
7.32682e-05
6.44738e-05
6.44738e-05
8.40353e-05
6.47133e-05
6.47164e-05
7.78744e-05
4.96342e-05
7.73483e-05
4.96407e-05
2.35779e-05
2.35761e-05
7.78901e-05
4.96329e-05
7.73527e-05
4.96392e-05
0.000130461
0.00013045
0.000130464
0.000127825
0.00012783
0.00012782
0.000127826
8.16307e-05
7.42043e-05
0.000108991
9.22268e-05
8.06712e-05
7.47326e-05
0.000108337
2.35754e-05
2.35736e-05
8.15995e-05
0.000109004
7.42136e-05
9.22248e-05
8.0704e-05
0.00010834
7.47414e-05
6.51583e-05
6.51558e-05
8.5461e-05
6.53823e-05
6.53842e-05
7.89827e-05
4.96443e-05
7.84939e-05
4.96515e-05
2.35703e-05
2.35688e-05
7.89837e-05
4.96426e-05
7.85064e-05
4.96495e-05
0.000126961
0.000126952
0.000126966
0.000124496
0.000124501
0.000124492
0.000124496
8.4337e-05
7.5625e-05
0.000106658
9.20359e-05
8.34237e-05
7.61208e-05
0.000106105
2.35677e-05
2.35663e-05
8.43456e-05
0.000106672
7.56306e-05
9.20351e-05
8.34321e-05
0.000106109
7.6129e-05
6.57948e-05
6.57939e-05
8.74334e-05
6.60032e-05
6.60047e-05
7.9996e-05
4.96546e-05
7.9544e-05
4.96612e-05
2.35636e-05
2.35625e-05
7.99959e-05
4.96543e-05
7.95605e-05
4.96583e-05
0.000123682
0.000123674
0.00012369
0.000121424
0.000121428
0.00012142
0.000121424
8.69111e-05
7.69649e-05
0.000104753
9.22946e-05
8.60826e-05
7.74381e-05
0.000104303
2.3561e-05
2.35599e-05
8.69428e-05
0.000104772
7.69732e-05
9.22942e-05
8.60648e-05
0.000104313
7.7418e-05
6.63901e-05
6.63899e-05
8.94278e-05
6.65862e-05
6.6587e-05
8.09299e-05
4.96656e-05
8.05128e-05
4.96704e-05
2.35579e-05
2.35571e-05
8.09312e-05
4.96653e-05
8.05275e-05
4.96675e-05
0.000120673
0.000120665
0.000120682
0.000118584
0.000118588
0.000118581
0.000118586
8.94265e-05
7.823e-05
0.000103294
9.29714e-05
8.85864e-05
7.86852e-05
0.000102951
2.35552e-05
2.35545e-05
8.94107e-05
0.000103311
7.82673e-05
9.29729e-05
8.8608e-05
0.000102961
7.86732e-05
6.69487e-05
6.6948e-05
9.17092e-05
6.71354e-05
6.71361e-05
8.18064e-05
4.96764e-05
8.1418e-05
4.968e-05
2.35532e-05
2.35527e-05
8.18066e-05
4.96754e-05
8.14285e-05
4.96774e-05
0.00011796
0.000117954
0.00011796
0.000116077
0.000116081
0.000116075
0.000116086
9.18127e-05
7.94357e-05
0.000102284
9.40331e-05
9.09934e-05
7.98466e-05
0.000102048
2.35505e-05
2.35501e-05
9.1819e-05
0.000102303
7.9448e-05
9.4037e-05
9.10047e-05
0.000102057
7.98717e-05
6.74759e-05
6.7476e-05
9.40535e-05
6.76548e-05
6.76542e-05
8.26235e-05
4.96878e-05
8.22623e-05
4.96899e-05
2.35494e-05
2.35494e-05
8.2626e-05
4.96861e-05
8.22711e-05
4.96884e-05
0.000115545
0.000115539
0.000115546
0.000113905
0.000113911
0.000113906
0.000113918
9.41046e-05
8.06073e-05
0.000101721
9.54423e-05
9.32932e-05
8.09733e-05
0.000101586
2.35468e-05
2.35468e-05
9.41122e-05
0.000101738
8.05928e-05
9.54448e-05
9.32912e-05
0.000101597
8.0993e-05
6.79756e-05
6.79766e-05
9.64832e-05
6.8146e-05
6.81454e-05
8.33955e-05
4.96994e-05
8.30538e-05
4.97013e-05
2.35467e-05
2.35471e-05
8.33973e-05
4.96949e-05
8.30631e-05
4.97029e-05
0.000113466
0.000113461
0.000113468
0.00011208
0.000112087
0.000112083
0.000112096
9.63258e-05
8.16914e-05
0.000101583
9.71574e-05
9.54821e-05
8.20746e-05
0.000101547
2.35441e-05
2.35444e-05
9.63306e-05
0.000101602
8.1703e-05
9.71607e-05