/*--------------------------------*- C++ -*----------------------------------*\
| =========                 |                                                 |
| \\      /  F ield         | OpenFOAM: The Open Source CFD Toolbox           |
|  \\    /   O peration     | Version:  v2012                                 |
|   \\  /    A nd           | Website:  www.openfoam.com                      |
|    \\/     M anipulation  |                                                 |
\*---------------------------------------------------------------------------*/
FoamFile
{
    version     2.0;
    format      ascii;
    class       surfaceScalarField;
    location    "250";
    object      phi;
}
// * * * * * * * * * * * * * * * * * * * * * * * * * * * * * * * * * * * * * //

dimensions      [0 3 -1 0 0 0 0];
oriented        oriented;


internalField   nonuniform List<scalar> 
248808
(
-0.00104218
-1.46319e-05
-1.4529e-05
9.38437e-06
9.21447e-06
0.00105274
-0.00026149
-5.68426e-06
1.45096e-05
6.88965e-06
0.00105925
-4.59354e-06
-1.59786e-06
-2.12118e-06
-2.49106e-06
-6.62515e-06
-7.11563e-06
-2.98641e-06
-0.000263332
-0.000259761
-0.000262856
-0.000261467
-5.68922e-06
1.45385e-05
6.97944e-06
0.00105905
-4.59898e-06
-1.60801e-06
-2.12891e-06
-2.49544e-06
-6.61931e-06
-7.1117e-06
-2.98838e-06
-0.000259733
-0.000263304
-0.00026282
-0.000260564
5.65966e-06
5.6998e-06
-4.95406e-06
-4.94811e-06
0.000259106
-1.65274e-06
-1.65464e-06
-0.0010608
9.3401e-07
9.35049e-07
0.00106224
-0.00106275
-1.61858e-06
1.64857e-06
8.31179e-07
0.00106394
-6.80095e-07
8.34965e-07
-9.91441e-08
4.23351e-07
-8.50388e-07
-1.43174e-06
-2.54757e-07
-0.00106243
-1.61349e-06
1.65946e-06
8.26506e-07
0.00106362
-6.80016e-07
8.29556e-07
-9.9171e-08
4.2054e-07
-8.52909e-07
-1.43145e-06
-2.52359e-07
-0.000261567
1.65088e-06
1.61389e-06
-6.98471e-07
-7.01274e-07
0.000259702
-1.37541e-06
-1.37611e-06
-0.00106636
6.96205e-07
6.97187e-07
0.00106772
-0.00106788
-1.57245e-06
1.38077e-06
6.90401e-07
0.00106923
-6.57104e-07
8.78606e-07
-7.31005e-08
4.61783e-07
-8.37381e-07
-1.39896e-06
-2.21414e-07
-0.00106756
-1.56722e-06
1.3763e-06
6.95895e-07
0.0010689
-6.57055e-07
8.73271e-07
-7.3059e-08
4.6137e-07
-8.37482e-07
-1.39387e-06
-2.19099e-07
-0.000262803
1.60225e-06
1.56747e-06
-6.635e-07
-6.71515e-07
0.000260968
-1.34975e-06
-1.35101e-06
-0.00107181
6.75642e-07
6.76424e-07
0.00107316
-0.00107323
-1.57217e-06
1.35097e-06
6.6624e-07
0.00107454
-6.5328e-07
9.00973e-07
-5.2922e-08
4.75523e-07
-8.28427e-07
-1.4047e-06
-1.94878e-07
-0.0010729
-1.56697e-06
1.35089e-06
6.66589e-07
0.00107421
-6.50696e-07
8.95485e-07
-5.50672e-08
4.75481e-07
-8.3088e-07
-1.40451e-06
-1.92398e-07
-0.00026408
1.59958e-06
1.56742e-06
-6.55843e-07
-6.61167e-07
0.00026223
-1.30282e-06
-1.30488e-06
-0.00107714
6.51435e-07
6.51993e-07
0.00107845
-0.0010784
-1.56386e-06
1.30477e-06
6.35476e-07
0.00107966
-6.38398e-07
9.2519e-07
-3.46048e-08
4.94713e-07
-8.1004e-07
-1.40357e-06
-1.65091e-07
-0.00107806
-1.55865e-06
1.30405e-06
6.3579e-07
0.00107932
-6.35833e-07
9.19676e-07
-3.66741e-08
4.94862e-07
-8.12293e-07
-1.40317e-06
-1.62433e-07
-0.000265299
1.59152e-06
1.55912e-06
-6.40295e-07
-6.45677e-07
0.000263434
-1.2529e-06
-1.25455e-06
-0.00108229
6.26637e-07
6.27477e-07
0.00108354
-0.00108333
-1.55498e-06
1.25419e-06
6.06387e-07
0.00108452
-6.24128e-07
9.4706e-07
-1.38465e-08
5.16018e-07
-7.89266e-07
-1.39708e-06
-1.3704e-07
-0.00108299
-1.5496e-06
1.25383e-06
6.06381e-07
0.00108418
-6.21393e-07
9.41665e-07
-1.65201e-08
5.16127e-07
-7.9154e-07
-1.39673e-06
-1.34443e-07
-0.000266443
1.58258e-06
1.54977e-06
-6.24098e-07
-6.29625e-07
0.000264565
-1.20659e-06
-1.20801e-06
-0.00108722
6.04699e-07
6.05601e-07
0.00108843
-0.00108801
-1.54738e-06
1.20733e-06
5.82564e-07
0.00108914
-6.12014e-07
9.66543e-07
3.60319e-09
5.37543e-07
-7.69734e-07
-1.38891e-06
-1.12272e-07
-0.00108766
-1.5421e-06
1.20717e-06
5.82847e-07
0.0010888
-6.09392e-07
9.61008e-07
7.85301e-10
5.37676e-07
-7.72117e-07
-1.38857e-06
-1.09764e-07
-0.000267514
1.57519e-06
1.54216e-06
-6.09939e-07
-6.15589e-07
0.000265623
-1.16612e-06
-1.16723e-06
-0.00109197
5.86208e-07
5.87165e-07
0.00109313
-0.00109245
-1.5417e-06
1.16666e-06
5.63648e-07
0.00109353
-6.02609e-07
9.83751e-07
1.80521e-08
5.58477e-07
-7.52674e-07
-1.38079e-06
-9.09654e-08
-0.00109211
-1.53646e-06
1.16636e-06
5.64187e-07
0.00109319
-6.00043e-07
9.7814e-07
1.5167e-08
5.58669e-07
-7.55007e-07
-1.38038e-06
-8.8503e-08
-0.000268517
1.56988e-06
1.53671e-06
-5.9829e-07
-6.04056e-07
0.000266613
-1.13112e-06
-1.13262e-06
-0.00109655
5.70653e-07
5.7184e-07
0.00109767
-0.00109669
-1.53789e-06
1.13237e-06
5.49059e-07
0.00109772
-5.95868e-07
9.98763e-07
2.98763e-08
5.78533e-07
-7.38095e-07
-1.37338e-06
-7.28076e-08
-0.00109635
-1.53251e-06
1.13202e-06
5.49425e-07
0.00109738
-5.93162e-07
9.93272e-07
2.70991e-08
5.78669e-07
-7.40463e-07
-1.37301e-06
-7.04153e-08
-0.000269456
1.56632e-06
1.533e-06
-5.88727e-07
-5.9458e-07
0.00026754
-1.10098e-06
-1.10222e-06
-0.00110099
5.57183e-07
5.58636e-07
0.00110207
-0.00110074
-1.53629e-06
1.1022e-06
5.37214e-07
0.00110173
-5.9185e-07
1.01168e-06
4.37313e-08
5.97514e-07
-7.25513e-07
-1.36678e-06
-5.75452e-08
-0.0011004
-1.53065e-06
1.10224e-06
5.37418e-07
0.00110138
-5.8887e-07
1.00643e-06
4.0012e-08
5.97664e-07
-7.27919e-07
-1.36643e-06
-5.52514e-08
-0.000270338
1.5644e-06
1.53097e-06
-5.8112e-07
-5.86848e-07
0.00026841
-1.07464e-06
-1.07555e-06
-0.00110529
5.45631e-07
5.46999e-07
0.00110635
-0.00110462
-1.53558e-06
1.07576e-06
5.28296e-07
0.00110557
-5.86154e-07
1.02389e-06
5.16701e-08
6.15499e-07
-7.13823e-07
-1.3605e-06
-4.45714e-08
-0.00110428
-1.52996e-06
1.0756e-06
5.28107e-07
0.00110522
-5.86004e-07
1.01855e-06
5.17625e-08
6.15603e-07
-7.16316e-07
-1.36019e-06
-4.23752e-08
-0.000271165
1.56375e-06
1.5302e-06
-5.7489e-07
-5.80645e-07
0.000269227
-1.05018e-06
-1.05138e-06
-0.00110948
5.35037e-07
5.36e-07
0.00111051
-0.00110835
-1.53516e-06
1.0515e-06
5.19532e-07
0.00110926
-5.83643e-07
1.03566e-06
6.15583e-08
6.32434e-07
-7.02156e-07
-1.35391e-06
-3.34119e-08
-0.001108
-1.52963e-06
1.05143e-06
5.19625e-07
0.00110891
-5.83562e-07
1.03022e-06
6.15493e-08
6.3253e-07
-7.0467e-07
-1.35361e-06
-3.12725e-08
-0.00027194
1.56344e-06
1.52976e-06
-5.69209e-07
-5.75018e-07
0.000269991
-1.02642e-06
-1.02771e-06
-0.00111356
5.24407e-07
5.25007e-07
0.00111457
-0.00111192
-1.53481e-06
1.02783e-06
5.10114e-07
0.00111279
-5.80802e-07
1.04728e-06
7.04116e-08
6.47893e-07
-6.90309e-07
-1.34694e-06
-2.09971e-08
-0.00111157
-1.52938e-06
1.02769e-06
5.10283e-07
0.00111244
-5.80808e-07
1.04162e-06
7.03116e-08
6.47924e-07
-6.92911e-07
-1.34674e-06
-1.81477e-08
-0.000272663
1.56331e-06
1.52943e-06
-5.64029e-07
-5.6988e-07
0.000270704
-1.00385e-06
-1.00514e-06
-0.00111754
5.14239e-07
5.14697e-07
0.00111852
-0.00111535
-1.53473e-06
1.00526e-06
4.9984e-07
0.00111618
-5.76871e-07
1.05795e-06
7.89926e-08
6.62109e-07
-6.77575e-07
-1.33916e-06
-8.89514e-09
-0.001115
-1.52927e-06
1.00508e-06
5.00201e-07
0.00111583
-5.76907e-07
1.05233e-06
7.88584e-08
6.62119e-07
-6.80208e-07
-1.33898e-06
-6.06127e-09
-0.000273333
1.56328e-06
1.52936e-06
-5.58609e-07
-5.64381e-07
0.000271364
-9.81819e-07
-9.82886e-07
-0.00112143
5.04076e-07
5.04633e-07
0.00112238
-0.00111862
-1.53428e-06
9.83201e-07
4.89108e-07
0.00111942
-5.7174e-07
1.06786e-06
8.74731e-08
6.75074e-07
-6.63799e-07
-1.33033e-06
2.30825e-09
-0.00111827
-1.52881e-06
9.82872e-07
4.89422e-07
0.00111907
-5.71752e-07
1.06227e-06
8.73536e-08
6.75148e-07
-6.66417e-07
-1.33009e-06
5.17606e-09
-0.000273948
1.56285e-06
1.5289e-06
-5.52095e-07
-5.57808e-07
0.000271967
-9.6001e-07
-9.60764e-07
-0.00112522
4.93883e-07
4.94599e-07
0.00112615
-0.00112175
-1.533e-06
9.61262e-07
4.7822e-07
0.0011225
-5.65492e-07
1.07767e-06
9.55296e-08
6.86939e-07
-6.49217e-07
-1.3205e-06
1.26245e-08
-0.00112139
-1.52753e-06
9.60867e-07
4.78351e-07
0.00112215
-5.65477e-07
1.07203e-06
9.54499e-08
6.87032e-07
-6.51795e-07
-1.32025e-06
1.55311e-08
-0.000274505
1.56164e-06
1.5276e-06
-5.44774e-07
-5.50515e-07
0.000272511
-9.38684e-07
-9.39157e-07
-0.00112891
4.83989e-07
4.84869e-07
0.00112982
-0.00112471
-1.5311e-06
9.39749e-07
4.6716e-07
0.00112543
-5.57947e-07
1.08697e-06
1.0329e-07
6.97735e-07
-6.34038e-07
-1.30971e-06
2.2184e-08
-0.00112436
-1.52565e-06
9.39253e-07
4.67297e-07
0.00112507
-5.5796e-07
1.08133e-06
1.03251e-07
6.97826e-07
-6.36612e-07
-1.3094e-06
2.51799e-08
-0.000275
1.5599e-06
1.52576e-06
-5.3702e-07
-5.42804e-07
0.000272994
-9.17652e-07
-9.17708e-07
-0.00113251
4.74137e-07
4.75227e-07
0.0011334
-0.00112751
-1.52866e-06
9.18479e-07
4.55961e-07
0.00112819
-5.4936e-07
1.09554e-06
1.10772e-07
7.0775e-07
-6.18609e-07
-1.29797e-06
3.21839e-08
-0.00112716
-1.52324e-06
9.17638e-07
4.55716e-07
0.00112783
-5.49447e-07
1.08979e-06
1.10693e-07
7.07619e-07
-6.21373e-07
-1.29783e-06
3.66256e-08
-0.00027543
1.5575e-06
1.5233e-06
-5.28694e-07
-5.34482e-07
0.000273412
-8.97061e-07
-8.97209e-07
-0.00113602
4.65018e-07
4.66108e-07
0.00113688
-0.00113014
-1.52563e-06
8.97323e-07
4.44798e-07
0.00113078
-5.39988e-07
1.10331e-06
1.17811e-07
7.16475e-07
-6.03307e-07
-1.28605e-06
4.43353e-08
-0.00112979
-1.52013e-06
8.96789e-07
4.4449e-07
0.00113042
-5.39992e-07
1.09762e-06
1.17831e-07
7.16375e-07
-6.06011e-07
-1.28589e-06
4.82741e-08
-0.000275792
1.55448e-06
1.52018e-06
-5.19803e-07
-5.25605e-07
0.000273763
-8.77119e-07
-8.77271e-07
-0.00113944
4.56658e-07
4.57462e-07
0.00114028
-0.0011326
-1.52158e-06
8.77058e-07
4.3449e-07
0.00113319
-5.29617e-07
1.11061e-06
1.2485e-07
7.24523e-07
-5.87858e-07
-1.27322e-06
5.48234e-08
-0.00113224
-1.51612e-06
8.7665e-07
4.34327e-07
0.00113283
-5.29652e-07
1.10486e-06
1.24757e-07
7.2444e-07
-5.90605e-07
-1.27309e-06
5.85621e-08
-0.000276084
1.55055e-06
1.51615e-06
-5.10116e-07
-5.15957e-07
0.000274043
-8.57564e-07
-8.57971e-07
-0.00114275
4.48681e-07
4.49475e-07
0.00114357
-0.00113488
-1.51655e-06
8.57429e-07
4.24106e-07
0.00113542
-5.21457e-07
1.1173e-06
1.34396e-07
7.32306e-07
-5.72515e-07
-1.25931e-06
6.43276e-08
-0.00113452
-1.51106e-06
8.57244e-07
4.24229e-07
0.00113506
-5.18644e-07
1.11155e-06
1.31443e-07
7.32141e-07
-5.75207e-07
-1.25923e-06
6.78192e-08
-0.000276305
1.54557e-06
1.51111e-06
-4.99644e-07
-5.05488e-07
0.000274254
-8.38104e-07
-8.38975e-07
-0.001146
4.41161e-07
4.41722e-07
0.00114679
-0.00113697
-1.51032e-06
8.38193e-07
4.14319e-07
0.00113746
-5.1007e-07
1.12361e-06
1.40943e-07
7.39783e-07
-5.57231e-07
-1.24467e-06
7.30794e-08
-0.00113661
-1.50479e-06
8.38178e-07
4.14329e-07
0.0011371
-5.07319e-07
1.11795e-06
1.3787e-07
7.3958e-07
-5.59923e-07
-1.24457e-06
7.64134e-08
-0.000276455
1.53934e-06
1.50483e-06
-4.88291e-07
-4.94167e-07
0.000274393
-8.1882e-07
-8.19768e-07
-0.00114914
4.33817e-07
4.34184e-07
0.00114991
-0.00113886
-1.50273e-06
8.19098e-07
4.04534e-07
0.00113931
-4.98815e-07
1.12968e-06
1.47333e-07
7.47203e-07
-5.42109e-07
-1.22937e-06
8.14535e-08
-0.0011385
-1.49729e-06
8.19093e-07
4.04873e-07
0.00113895
-4.96024e-07
1.12393e-06
1.44207e-07
7.46961e-07
-5.44798e-07
-1.22932e-06
8.47288e-08
-0.000276535
1.53186e-06
1.49731e-06
-4.76142e-07
-4.81968e-07
0.000274464
-7.98975e-07
-8.00081e-07
-0.00115218
4.2619e-07
4.26301e-07
0.00115293
-0.00114057
-1.49416e-06
7.99255e-07
3.95137e-07
0.00114096
-4.87194e-07
1.13539e-06
1.53827e-07
7.54501e-07
-5.27372e-07
-1.21363e-06
8.96692e-08
-0.0011402
-1.48876e-06
7.99468e-07
3.95514e-07
0.0011406
-4.8444e-07
1.12959e-06
1.50637e-07
7.54286e-07
-5.30024e-07
-1.21356e-06
9.29462e-08
-0.000276551
1.52335e-06
1.48873e-06
-4.63447e-07
-4.69291e-07
0.000274471
-7.78765e-07
-7.80201e-07
-0.00115513
4.18554e-07
4.1856e-07
0.00115585
-0.00114207
-1.48468e-06
7.7943e-07
3.85324e-07
0.00114242
-4.75683e-07
1.14079e-06
1.60244e-07
7.61765e-07
-5.12752e-07
-1.1976e-06
9.78855e-08
-0.00114171
-1.47924e-06
7.79547e-07
3.85932e-07
0.00114205
-4.73011e-07
1.135e-06
1.5704e-07
7.61545e-07
-5.15351e-07
-1.19748e-06
1.01066e-07
-0.000276505
1.51389e-06
1.47924e-06
-4.50373e-07
-4.5624e-07
0.000274419
-7.57759e-07
-7.5936e-07
-0.00115798
4.10319e-07
4.10271e-07
0.00115868
-0.00114338
-1.47447e-06
7.58521e-07
3.76153e-07
0.00114367
-4.64046e-07
1.14599e-06
1.66445e-07
7.69069e-07
-4.98426e-07
-1.18135e-06
1.06074e-07
-0.00114301
-1.46903e-06
7.5874e-07
3.7678e-07
0.00114331
-4.61398e-07
1.14021e-06
1.63249e-07
7.68896e-07
-5.01062e-07
-1.18125e-06
1.09079e-07
-0.000276406
1.50368e-06
1.46903e-06
-4.3724e-07
-4.43096e-07
0.000274314
-7.3628e-07
-7.37942e-07
-0.00116073
4.01901e-07
4.01897e-07
0.0011614
-0.00114449
-1.46355e-06
7.37258e-07
3.66698e-07
0.00114474
-4.5269e-07
1.15114e-06
1.72296e-07
7.76275e-07
-4.84182e-07
-1.16508e-06
1.14115e-07
-0.00114412
-1.45812e-06
7.37363e-07
3.67215e-07
0.00114437
-4.49976e-07
1.14544e-06
1.69203e-07
7.7611e-07
-4.86886e-07
-1.16499e-06
1.17113e-07
-0.00027626
1.49273e-06
1.45807e-06
-4.24108e-07
-4.29937e-07
0.000274163
-7.14212e-07
-7.15646e-07
-0.00116337
3.93098e-07
3.93182e-07
0.00116402
-0.00114541
-1.45206e-06
7.15128e-07
3.57246e-07
0.00114561
-4.41533e-07
1.15639e-06
1.78142e-07
7.83379e-07
-4.70324e-07
-1.14899e-06
1.21977e-07
-0.00114504
-1.44662e-06
7.15218e-07
3.57366e-07
0.00114524
-4.38799e-07
1.15075e-06
1.75122e-07
7.83245e-07
-4.7298e-07
-1.14886e-06
1.25041e-07
-0.000276074
1.48125e-06
1.44663e-06
-4.1113e-07
-4.16845e-07
0.000273974
-6.91563e-07
-6.92792e-07
-0.00116591
3.84105e-07
3.84342e-07
0.00116652
-0.00114614
-1.44015e-06
6.92455e-07
3.46811e-07
0.0011463
-4.30583e-07
1.16168e-06
1.83958e-07
7.90391e-07
-4.56762e-07
-1.13314e-06
1.29732e-07
-0.00114577
-1.43454e-06
6.92446e-07
3.46776e-07
0.00114593
-4.27804e-07
1.15611e-06
1.80975e-07
7.90241e-07
-4.5939e-07
-1.13301e-06
1.32733e-07
-0.000275858
1.46919e-06
1.43459e-06
-3.98238e-07
-4.03944e-07
0.000273757
-6.68339e-07
-6.69231e-07
-0.00116833
3.7486e-07
3.75295e-07
0.00116891
-0.0011467
-1.42791e-06
6.69134e-07
3.35495e-07
0.00114681
-4.19802e-07
1.16699e-06
1.89662e-07
7.97207e-07
-4.43515e-07
-1.11757e-06
1.37364e-07
-0.00114633
-1.4223e-06
6.69034e-07
3.35353e-07
0.00114644
-4.16967e-07
1.16142e-06
1.86732e-07
7.97225e-07
-4.46166e-07
-1.11737e-06
1.40343e-07
-0.00027562
1.4569e-06
1.42234e-06
-3.85711e-07
-3.9133e-07
0.000273517
-6.44539e-07
-6.45179e-07
-0.00117063
3.65521e-07
3.66139e-07
0.00117119
-0.00114709
-1.41558e-06
6.45147e-07
3.23535e-07
0.00114716
-4.0927e-07
1.1724e-06
1.95276e-07
8.03906e-07
-4.3065e-07
-1.10251e-06
1.44862e-07
-0.00114672
-1.41e-06
6.45237e-07
3.23322e-07
0.00114679
-4.06411e-07
1.16684e-06
1.9239e-07
8.03826e-07
-4.33323e-07
-1.10241e-06
1.47848e-07
-0.000275364
1.44464e-06
1.41011e-06
-3.7363e-07
-3.79215e-07
0.000273262
-6.20081e-07
-6.20462e-07
-0.00117282
3.55847e-07
3.56628e-07
0.00117335
-0.00114732
-1.40332e-06
6.20657e-07
3.10874e-07
0.00114736
-3.99004e-07
1.17749e-06
2.00779e-07
8.10337e-07
-4.18186e-07
-1.08784e-06
1.52171e-07
-0.00114695
-1.39768e-06
6.20608e-07
3.10541e-07
0.00114699
-3.96127e-07
1.17192e-06
1.97911e-07
8.10202e-07
-4.2086e-07
-1.0878e-06
1.55111e-07
-0.000275099
1.43221e-06
1.39773e-06
-3.61884e-07
-3.67419e-07
0.000272998
-5.95254e-07
-5.95454e-07
-0.00117489
3.46299e-07
3.47133e-07
0.00117538
-0.00114742
-1.39128e-06
5.95676e-07
2.97326e-07
0.00114742
-3.89106e-07
1.18261e-06
2.06084e-07
8.16696e-07
-4.06217e-07
-1.07375e-06
1.5925e-07
-0.00114705
-1.3856e-06
5.95643e-07
2.96977e-07
0.00114705
-3.86214e-07
1.17715e-06
2.03267e-07
8.16557e-07
-4.08834e-07
-1.07375e-06
1.62192e-07
-0.000274829
1.42008e-06
1.38569e-06
-3.50771e-07
-3.56226e-07
0.00027273
-5.70039e-07
-5.70399e-07
-0.00117683
3.36848e-07
3.3773e-07
0.00117729
-0.00114738
-1.3794e-06
5.70508e-07
2.83013e-07
0.00114735
-3.7947e-07
1.18754e-06
2.11312e-07
8.2267e-07
-3.94636e-07
-1.06029e-06
1.66086e-07
-0.00114701
-1.37377e-06
5.70358e-07
2.82494e-07
0.00114698
-3.76618e-07
1.18201e-06
2.08465e-07
8.22561e-07
-3.97271e-07
-1.06016e-06
1.6907e-07
-0.000274558
1.40819e-06
1.37385e-06
-3.40129e-07
-3.45515e-07
0.000272462
-5.4474e-07
-5.45081e-07
-0.00117864
3.27498e-07
3.28393e-07
0.00117908
-0.00114723
-1.36785e-06
5.45145e-07
2.67942e-07
0.00114718
-3.70159e-07
1.19213e-06
2.16416e-07
8.28393e-07
-3.8353e-07
-1.04732e-06
1.72703e-07
-0.00114686
-1.36226e-06
5.44814e-07
2.675e-07
0.00114681
-3.67288e-07
1.18673e-06
2.13569e-07
8.28167e-07
-3.86093e-07
-1.04726e-06
1.75604e-07
-0.000274289
1.39658e-06
1.36229e-06
-3.29935e-07
-3.35288e-07
0.000272196
-5.19135e-07
-5.19758e-07
-0.00118033
3.18221e-07
3.19019e-07
0.00118073
-0.00114698
-1.35673e-06
5.19608e-07
2.52252e-07
0.0011469
-3.61228e-07
1.19668e-06
2.21275e-07
8.33854e-07
-3.73007e-07
-1.03507e-06
1.78971e-07
-0.00114661
-1.35122e-06
5.19215e-07
2.51829e-07
0.00114653
-3.58324e-07
1.19115e-06
2.18453e-07
8.33777e-07
-3.75518e-07
-1.03493e-06
1.81928e-07
-0.000274026
1.38552e-06
1.35124e-06
-3.20363e-07
-3.25728e-07
0.000271935
-4.93567e-07
-4.94315e-07
-0.00118189
3.08969e-07
3.09572e-07
0.00118226
-0.00114664
-1.3461e-06
4.94088e-07
2.36042e-07
0.00114655
-3.52636e-07
1.20089e-06
2.25945e-07
8.39036e-07
-3.62906e-07
-1.02337e-06
1.84909e-07
-0.00114627
-1.3405e-06
4.93608e-07
2.35704e-07
0.00114618
-3.49832e-07
1.19536e-06
2.23092e-07
8.3902e-07
-3.65464e-07
-1.02319e-06
1.87884e-07
-0.000273769
1.37486e-06
1.34059e-06
-3.11293e-07
-3.1667e-07
0.000271681
-4.67936e-07
-4.68755e-07
-0.00118332
2.99625e-07
3.00012e-07
0.00118366
-0.00114623
-1.33594e-06
4.68521e-07
2.19693e-07
0.00114612
-3.44476e-07
1.20475e-06
2.30343e-07
8.43999e-07
-3.5341e-07
-1.01236e-06
1.90478e-07
-0.00114587
-1.33042e-06
4.6813e-07
2.19481e-07
0.00114575
-3.41655e-07
1.19928e-06
2.27522e-07
8.4396e-07
-3.55959e-07
-1.01217e-06
1.9346e-07
-0.00027352
1.36475e-06
1.33045e-06
-3.02785e-07
-3.08211e-07
0.000271436
-4.42383e-07
-4.4323e-07
-0.00118462
2.901e-07
2.90361e-07
0.00118493
-0.00114577
-1.32631e-06
4.4301e-07
2.03461e-07
0.00114564
-3.36802e-07
1.20842e-06
2.34444e-07
8.48608e-07
-3.44414e-07
-1.00197e-06
1.95762e-07
-0.0011454
-1.32076e-06
4.42702e-07
2.03252e-07
0.00114528
-3.33986e-07
1.20292e-06
2.31641e-07
8.48541e-07
-3.4704e-07
-1.00181e-06
1.98606e-07
-0.00027328
1.35516e-06
1.32082e-06
-2.94824e-07
-3.00305e-07
0.000271199
-4.17008e-07
-4.17931e-07
-0.00118579
2.80434e-07
2.80549e-07
0.00118607
-0.00114525
-1.31728e-06
4.17684e-07
1.87451e-07
0.00114512
-3.29636e-07
1.21166e-06
2.3824e-07
8.52848e-07
-3.35973e-07
-9.9224e-07
2.00729e-07
-0.00114489
-1.31172e-06
4.17585e-07
1.87318e-07
0.00114475
-3.26776e-07
1.20613e-06
2.3545e-07
8.52692e-07
-3.38607e-07
-9.92137e-07
2.03502e-07
-0.00027305
1.34617e-06
1.31177e-06
-2.87448e-07
-2.93013e-07
0.000270972
-3.92118e-07
-4.04526e-07
-0.00118684
2.70692e-07
2.70658e-07
0.00118709
-0.00114471
-1.30878e-06
3.92805e-07
1.71815e-07
0.00114457
-3.22857e-07
1.2146e-06
2.41665e-07
8.56701e-07
-3.28086e-07
-9.8323e-07
2.05225e-07
-0.00114434
-1.30331e-06
3.92906e-07
1.7192e-07
0.0011442
-3.20102e-07
1.20913e-06
2.38873e-07
8.56524e-07
-3.30751e-07
-9.83115e-07
2.07963e-07
-0.00027283
1.33774e-06
1.30331e-06
-2.80671e-07
-2.86249e-07
0.000270756
-3.67867e-07
-3.68796e-07
-0.00118778
2.60778e-07
2.60644e-07
0.001188
-0.00114414
-1.30101e-06
3.68652e-07
1.57123e-07
0.001144
-3.13947e-07
1.21714e-06
2.41942e-07
8.60227e-07
-3.20795e-07
-9.74897e-07
2.09313e-07
-0.00114377
-1.29545e-06
3.68792e-07
1.57143e-07
0.00114363
-3.13943e-07
1.21169e-06
2.41939e-07
8.60032e-07
-3.23533e-07
-9.74815e-07
2.12058e-07
-0.00027262
1.32997e-06
1.29552e-06
-2.74536e-07
-2.80118e-07
0.000270549
-3.44599e-07
-3.45482e-07
-0.0011886
2.50915e-07
2.50751e-07
0.00118879
-0.00114356
-1.29383e-06
3.45449e-07
1.43094e-07
0.00114342
-3.08317e-07
1.21939e-06
2.4464e-07
8.63264e-07
-3.14201e-07
-9.67335e-07
2.12918e-07
-0.0011432
-1.28829e-06
3.4568e-07
1.43304e-07
0.00114305
-3.08363e-07
1.21384e-06
2.44677e-07
8.6304e-07
-3.16983e-07
-9.67373e-07
2.15634e-07
-0.000272421
1.32285e-06
1.2884e-06
-2.69042e-07
-2.74624e-07
0.000270353
-3.22528e-07
-3.23301e-07
-0.00118932
2.41075e-07
2.4093e-07
0.00118948
-0.00114298
-1.28739e-06
3.23546e-07
1.30326e-07
0.00114284
-3.03367e-07
1.2211e-06
2.46907e-07
8.65814e-07
-3.08337e-07
-9.60575e-07
2.15991e-07
-0.00114262
-1.28192e-06
3.23936e-07
1.30526e-07
0.00114247
-3.03333e-07
1.21553e-06
2.46976e-07
8.65554e-07
-3.11121e-07
-9.60579e-07
2.18709e-07
-0.000272233
1.31649e-06
1.28208e-06
-2.64282e-07
-2.69842e-07
0.000270168
-3.01971e-07
-3.02664e-07
-0.00118994
2.31368e-07
2.31289e-07
0.00119008
-0.00114241
-1.28172e-06
3.03281e-07
1.19104e-07
0.00114227
-2.99076e-07
1.22241e-06
2.48727e-07
8.67832e-07
-3.03273e-07
-9.54785e-07
2.1846e-07
-0.00114204
-1.2762e-06
3.03681e-07
1.19043e-07
0.0011419
-2.98973e-07
1.21692e-06
2.48809e-07
8.67547e-07
-3.06057e-07
-9.54762e-07
2.21183e-07
-0.000272055
1.31087e-06
1.27648e-06
-2.60212e-07
-2.65787e-07
0.000269994
-2.83243e-07
-2.83714e-07
-0.00119048
2.21931e-07
2.22057e-07
0.0011906
-0.00114186
-1.27694e-06
2.84907e-07
1.09447e-07
0.00114172
-2.95529e-07
1.22313e-06
2.49853e-07
8.69133e-07
-2.99103e-07
-9.49782e-07
2.2024e-07
-0.00114148
-1.27127e-06
2.8518e-07
1.09224e-07
0.00114135
-2.95368e-07
1.21771e-06
2.50081e-07
8.68878e-07
-3.01888e-07
-9.49756e-07
2.2289e-07
-0.00027189
1.30601e-06
1.27169e-06
-2.56919e-07
-2.62478e-07
0.000269832
-2.66307e-07
-2.6637e-07
-0.00119095
2.12642e-07
2.13125e-07
0.00119105
-0.00114133
-1.27301e-06
2.68125e-07
1.01661e-07
0.0011412
-2.92813e-07
1.22332e-06
2.50466e-07
8.69977e-07
-2.95715e-07
-9.45667e-07
2.21472e-07
-0.00114095
-1.26725e-06
2.68359e-07
1.0103e-07
0.00114082
-2.92454e-07
1.21805e-06
2.50793e-07
8.69707e-07
-2.98466e-07
-9.45624e-07
2.24158e-07
-0.000271737
1.30199e-06
1.26774e-06
-2.54456e-07
-2.59924e-07
0.000269682
5.22573e-06
5.23661e-06
0.000260566
-0.000259153
-5.94503e-06
-5.93097e-06
5.05349e-06
0.000261439
-0.000258684
-5.96352e-06
3.38095e-06
-5.22555e-06
5.0485e-06
0.000261472
-0.000258699
-5.97161e-06
3.37587e-06
5.22642e-06
0.000260579
-0.000259155
-5.91668e-06
-5.95909e-06
5.04665e-06
0.000261503
-0.000258714
-5.96913e-06
3.37076e-06
5.05324e-06
-5.22793e-06
0.000261446
-0.000258684
3.38582e-06
-5.97362e-06
1.0692e-05
1.0598e-05
-0.000252646
-0.000256096
-0.000255126
-0.000255126
-6.41902e-06
-4.11044e-06
-6.65456e-06
-6.41944e-06
-4.11143e-06
-6.66011e-06
-5.04129e-06
0.0010422
1.06508e-05
1.06034e-05
-0.000252649
-0.000256094
-0.000255129
-0.000255129
-6.42166e-06
-4.1108e-06
-6.65729e-06
-6.41661e-06
-4.10597e-06
-6.65219e-06
-5.04113e-06
0.00104208
1.07113e-05
1.0664e-05
-0.000252641
-0.000256089
-0.000255126
-0.000255121
-6.42141e-06
-4.11811e-06
-6.65718e-06
-6.42162e-06
-4.10831e-06
-6.65472e-06
-5.05569e-06
-5.04395e-06
0.00104214
1.07069e-05
1.06077e-05
-0.000252644
-0.000256091
-0.000255126
-0.000255126
-6.41619e-06
-4.11292e-06
-6.65191e-06
-6.42175e-06
-4.11122e-06
-6.65746e-06
-0.000258709
-5.96107e-06
3.36573e-06
-5.22553e-06
0.000261433
-0.000258681
3.38091e-06
-5.96314e-06
5.22865e-06
0.000260559
-0.00025914
-5.91859e-06
-5.95675e-06
-0.000258694
3.37318e-06
-5.95854e-06
-5.23641e-06
0.0002615
-0.000258709
3.36808e-06
-5.96647e-06
-0.00025915
-5.94464e-06
-5.93088e-06
5.66026e-06
5.69741e-06
-4.95444e-06
-4.94853e-06
0.000259112
-8.1226e-07
-7.76518e-07
0.000261577
-0.000259444
-2.75922e-07
-2.68629e-07
7.1415e-06
0.00105866
-4.59133e-06
-1.55103e-06
-2.11611e-06
-2.4918e-06
-6.63894e-06
-7.12091e-06
-2.99247e-06
-0.000263293
-0.000259718
-0.00026282
-5.67027e-06
1.46052e-05
7.08041e-06
0.00105903
-4.6097e-06
-1.54318e-06
-2.11885e-06
-2.50306e-06
-6.67032e-06
-7.13838e-06
-3.00852e-06
-0.000263368
-0.000259749
-0.000262861
0.00106199
2.12371e-06
-0.00106095
1.04445e-06
-1.75888e-06
-1.32034e-07
-7.47022e-07
-1.54246e-06
-2.9175e-07
-9.12449e-07
3.63728e-07
8.20379e-07
0.00106241
2.12408e-06
-0.00106137
1.03934e-06
-1.76914e-06
-1.24858e-07
-7.5227e-07
-1.548e-06
-2.92087e-07
-9.13074e-07
3.69313e-07
-4.95262e-06
-4.9446e-06
0.000259121
-7.79455e-07
0.000261603
-0.000259464
-2.73022e-07
-2.65616e-07
6.86367e-06
0.0010595
-4.61556e-06
-1.61085e-06
-2.13234e-06
-2.50129e-06
-6.65317e-06
-7.13366e-06
-3.00373e-06
-0.000263388
-0.000259777
-0.000262874
-5.67029e-06
1.46395e-05
7.1741e-06
0.0010588
-4.60999e-06
-1.55347e-06
-2.12404e-06
-2.50445e-06
-6.66971e-06
-7.13672e-06
-3.00786e-06
-0.000259718
-0.000263344
-0.000262833
0.00106301
2.13149e-06
-0.00106196
1.03287e-06
-1.72931e-06
-1.3449e-07
-7.47533e-07
-1.54531e-06
-2.91897e-07
-9.10489e-07
3.66445e-07
8.09721e-07
0.0010621
2.13372e-06
-0.00106108
1.05472e-06
-1.75893e-06
-1.2974e-07
-7.47249e-07
-1.54461e-06
-2.89083e-07
-9.14943e-07
3.64258e-07
1.46371e-05
7.16204e-06
0.00105861
-4.59086e-06
-1.55065e-06
-2.1131e-06
-2.49267e-06
-6.63957e-06
-2.99306e-06
-7.11963e-06
-0.000259713
-0.000263288
-0.000262815
2.13067e-06
-0.0010617
1.0379e-06
-1.72896e-06
-1.31667e-07
-7.44231e-07
-1.54296e-06
-2.94323e-07
3.60834e-07
-9.10303e-07
8.09882e-07
0.00106189
2.13419e-06
-0.00106087
1.05447e-06
-1.75865e-06
-1.29547e-07
-7.4685e-07
-1.54496e-06
-2.91952e-07
-9.12737e-07
3.66439e-07
-4.95727e-06
-4.94498e-06
0.000259101
-7.7136e-07
0.000261554
-0.000259426
-2.76076e-07
-2.70942e-07
1.45378e-05
6.88153e-06
0.00105945
-4.61538e-06
-1.61086e-06
-2.13225e-06
-2.50078e-06
-6.65276e-06
-3.00339e-06
-7.13072e-06
-0.000259766
-0.000263386
-0.000262869
2.13641e-06
-0.0010614
1.05379e-06
-1.72652e-06
-1.34176e-07
-7.46984e-07
-1.53976e-06
-2.89611e-07
3.6091e-07
-9.12937e-07
7.71219e-07
0.00106291
2.13573e-06
-0.00106188
1.04303e-06
-1.72427e-06
-1.34558e-07
-7.44959e-07
-1.54233e-06
-2.91513e-07
-9.12679e-07
3.61542e-07
-0.000259441
-2.73476e-07
-2.70999e-07
1.65112e-06
1.61635e-06
-6.9579e-07
-7.04067e-07
0.000259709
-9.07241e-07
-8.68743e-07
0.000262816
-0.00026065
-1.98743e-07
-1.91234e-07
8.3254e-07
0.00106318
-6.82692e-07
8.67842e-07
-9.48608e-08
4.23479e-07
-8.50024e-07
-1.43391e-06
-2.54508e-07
-1.65621e-06
1.65317e-06
8.27033e-07
0.00106361
-6.85365e-07
8.75908e-07
-9.47567e-08
4.28981e-07
-8.53066e-07
-1.43945e-06
-2.52384e-07
0.00106712
1.39005e-06
-0.00106578
7.00016e-07
-1.60522e-06
-7.009e-08
-6.63297e-07
-1.39354e-06
-2.26152e-07
-8.34781e-07
4.59465e-07
9.12724e-07
0.00106755
1.39019e-06
-0.00106621
6.94533e-07
-1.61028e-06
-6.99809e-08
-6.63285e-07
-1.39656e-06
-2.26365e-07
-8.35202e-07
4.62202e-07
-6.96037e-07
-7.03273e-07
0.000259727
-8.74148e-07
0.000262842
-0.000260663
-1.98488e-07
-1.93606e-07
8.26192e-07
0.00106421
-6.8057e-07
8.32092e-07
-9.71836e-08
4.26258e-07
-8.53028e-07
-1.43672e-06
-2.52145e-07
-1.65111e-06
1.65766e-06
8.32404e-07
0.00106329
-6.85561e-07
8.67936e-07
-9.48802e-08
4.23754e-07
-8.52497e-07
-1.43366e-06
-2.52028e-07
0.00106815
1.39076e-06
-0.00106682
6.98945e-07
-1.56776e-06
-7.44655e-08
-6.58535e-07
-1.39104e-06
-2.23677e-07
-8.35001e-07
4.62408e-07
9.02038e-07
0.00106723
1.3895e-06
-0.00106589
6.99949e-07
-1.60262e-06
-7.22775e-08
-6.63443e-07
-1.39359e-06
-2.26091e-07
-8.34769e-07
4.62331e-07
1.65292e-06
8.32323e-07
0.00106309
-6.85251e-07
8.65487e-07
-9.69447e-08
4.2363e-07
-8.52927e-07
-2.52139e-07
-1.43391e-06
1.39016e-06
-0.00106655
7.03961e-07
-1.57529e-06
-7.64073e-08
-6.58121e-07
-1.39101e-06
-2.23855e-07
4.62187e-07
-8.3496e-07
9.0481e-07
0.00106703
1.38453e-06
-0.00106568
6.99959e-07
-1.60237e-06
-7.20633e-08
-6.63135e-07
-1.39377e-06
-2.26242e-07
-8.34971e-07
4.59307e-07
-6.98772e-07
-7.0082e-07
0.000259689
-8.66203e-07
0.00026279
-0.00026063
-1.98796e-07
-1.93683e-07
1.65365e-06
8.20716e-07
0.00106413
-6.80668e-07
8.26817e-07
-1.01817e-07
4.21114e-07
-8.50104e-07
-2.56691e-07
-1.43122e-06
1.39091e-06
-0.00106622
6.98979e-07
-1.5648e-06
-7.63858e-08
-6.58028e-07
-1.38598e-06
-2.26364e-07
4.53668e-07
-8.35126e-07
8.68763e-07
0.00106806
1.39065e-06
-0.00106672
6.98501e-07
-1.56506e-06
-7.66011e-08
-6.58489e-07
-1.39382e-06
-2.2606e-07
-8.37634e-07
4.59528e-07
-0.000260637
-1.98639e-07
-1.93667e-07
1.60502e-06
1.5727e-06
-6.60986e-07
-6.69071e-07
0.000260969
-9.28023e-07
-8.92041e-07
0.000264096
-0.000261921
-1.79831e-07
-1.74808e-07
6.91605e-07
0.00106847
-6.64981e-07
9.11718e-07
-6.68557e-08
4.61792e-07
-8.34569e-07
-1.39361e-06
-2.23661e-07
-1.61013e-06
1.3757e-06
7.01991e-07
0.00106889
-6.64947e-07
9.17223e-07
-6.67079e-08
4.6723e-07
-8.37586e-07
-1.39927e-06
-2.19114e-07
0.00107247
1.35945e-06
-0.00107115
6.74752e-07
-1.60618e-06
-5.59755e-08
-6.58985e-07
-1.40308e-06
-2.04251e-07
-8.28783e-07
4.71738e-07
9.3356e-07
0.00107289
1.35986e-06
-0.00107157
6.75117e-07
-1.61131e-06
-5.37709e-08
-6.61592e-07
-1.41146e-06
-1.99699e-07
-8.34408e-07
4.79832e-07
-6.63754e-07
-6.65866e-07
0.000260989
-8.94947e-07
0.000264124
-0.000261947
-1.76895e-07
-1.72048e-07
6.90659e-07
0.0010695
-6.62863e-07
8.75782e-07
-7.12042e-08
4.64704e-07
-8.37311e-07
-1.3989e-06
-2.18786e-07
-1.60245e-06
1.37499e-06
6.97104e-07
0.00106857
-6.6512e-07
9.0911e-07
-6.68416e-08
4.64748e-07
-8.37051e-07
-1.39618e-06
-2.1875e-07
0.0010735
1.36048e-06
-0.00107217
6.7392e-07
-1.57107e-06
-5.80841e-08
-6.56769e-07
-1.40589e-06
-1.99455e-07
-8.34188e-07
4.74481e-07
9.28085e-07
0.00107257
1.35928e-06
-0.00107125
6.75186e-07
-1.6062e-06
-5.38765e-08
-6.61728e-07
-1.40553e-06
-1.9935e-07
-8.33801e-07
4.74596e-07
1.3805e-06
6.91616e-07
0.00106837
-6.62181e-07
9.06652e-07
-7.09498e-08
4.64102e-07
-8.37429e-07
-2.2145e-07
-1.39664e-06
1.36041e-06
-0.00107191
6.73625e-07
-1.5734e-06
-5.77555e-08
-6.56258e-07
-1.40346e-06
-2.02168e-07
4.71403e-07
-8.31782e-07
9.22952e-07
0.00107237
1.35981e-06
-0.00107105
6.74826e-07
-1.60075e-06
-5.78279e-08
-6.56075e-07
-1.40365e-06
-2.02174e-07
-8.31768e-07
4.71255e-07
-6.6386e-07
-6.68559e-07
0.000260953
-8.89495e-07
0.000264075
-0.000261906
-1.79603e-07
-1.72252e-07
1.376e-06
6.95442e-07
0.00106941
-6.57572e-07
8.67915e-07
-7.54875e-08
4.61924e-07
-8.348e-07
-2.21211e-07
-1.39393e-06
1.36052e-06
-0.00107157
6.7389e-07
-1.56818e-06
-5.99015e-08
-6.53648e-07
-1.40328e-06
-1.99746e-07
4.71341e-07
-8.34314e-07
8.89231e-07
0.00107341
1.3603e-06
-0.00107208
6.73754e-07
-1.56861e-06
-6.0222e-08
-6.54234e-07
-1.40066e-06
-2.01774e-07
-8.31582e-07
4.69315e-07
-0.000261919
-1.77425e-07
-1.72098e-07
1.60502e-06
1.56983e-06
-6.53101e-07
-6.58731e-07
0.000262233
-9.52362e-07