/*--------------------------------*- C++ -*----------------------------------*\
| =========                 |                                                 |
| \\      /  F ield         | OpenFOAM: The Open Source CFD Toolbox           |
|  \\    /   O peration     | Version:  v2012                                 |
|   \\  /    A nd           | Website:  www.openfoam.com                      |
|    \\/     M anipulation  |                                                 |
\*---------------------------------------------------------------------------*/
FoamFile
{
    version     2.0;
    format      ascii;
    class       volVectorField;
    location    "250";
    object      U;
}
// * * * * * * * * * * * * * * * * * * * * * * * * * * * * * * * * * * * * * //

dimensions      [0 1 -1 0 0 0 0];


internalField   nonuniform List<vector> 
85864
(
(0.000106321 0.000106239 0.100295)
(-0.000185219 0.000115623 0.10039)
(0.000115766 -0.000185264 0.10039)
(-0.000247939 -0.000247949 0.100399)
(9.71914e-05 9.71885e-05 0.100854)
(-0.000151517 9.36371e-05 0.100939)
(9.3623e-05 -0.000151498 0.100939)
(-0.000194445 -0.000194328 0.100971)
(9.70443e-05 9.70661e-05 0.101369)
(-0.000152255 9.09568e-05 0.101448)
(9.09189e-05 -0.000152295 0.101448)
(-0.00019481 -0.000194761 0.101475)
(9.48242e-05 9.48102e-05 0.101887)
(-0.000149316 8.71565e-05 0.101954)
(8.72109e-05 -0.000149321 0.101954)
(-0.000192264 -0.000192139 0.101968)
(9.14541e-05 9.14014e-05 0.102391)
(-0.00014371 8.24361e-05 0.102442)
(8.25111e-05 -0.000143647 0.102442)
(-0.00018701 -0.000186926 0.102436)
(8.79946e-05 8.79663e-05 0.102877)
(-0.000137793 7.84015e-05 0.102907)
(7.84106e-05 -0.000137735 0.102907)
(-0.000181538 -0.00018153 0.102875)
(8.48434e-05 8.48297e-05 0.103344)
(-0.000132358 7.5114e-05 0.103349)
(7.51598e-05 -0.000132303 0.103349)
(-0.000176889 -0.000176902 0.103285)
(8.21252e-05 8.21168e-05 0.103793)
(-0.000127615 7.25166e-05 0.103768)
(7.25834e-05 -0.00012754 0.103768)
(-0.000173188 -0.000173214 0.103669)
(7.98302e-05 7.98389e-05 0.104226)
(-0.000123528 7.05243e-05 0.104168)
(7.05605e-05 -0.000123445 0.104168)
(-0.000170275 -0.000170332 0.104027)
(7.78704e-05 7.78723e-05 0.104646)
(-0.000120019 6.92118e-05 0.104551)
(6.91313e-05 -0.000119929 0.104551)
(-0.000168117 -0.000168133 0.104363)
(7.61261e-05 7.6123e-05 0.105053)
(-0.000116861 6.81419e-05 0.104917)
(6.8093e-05 -0.000116777 0.104917)
(-0.000166551 -0.000166569 0.104678)
(7.45606e-05 7.45211e-05 0.10545)
(-0.000113898 6.71331e-05 0.105269)
(6.71172e-05 -0.000113812 0.105269)
(-0.000165204 -0.000165239 0.104972)
(7.30955e-05 7.30331e-05 0.105837)
(-0.000111219 6.61244e-05 0.105607)
(6.61493e-05 -0.00011118 0.105607)
(-0.000164049 -0.000164143 0.105246)
(7.16379e-05 7.15795e-05 0.106214)
(-0.000108735 6.50452e-05 0.10593)
(6.50786e-05 -0.000108711 0.10593)
(-0.00016301 -0.000163057 0.105498)
(7.01989e-05 7.01597e-05 0.106581)
(-0.000106304 6.40029e-05 0.106239)
(6.40173e-05 -0.000106273 0.106239)
(-0.000161763 -0.000161762 0.105728)
(6.87697e-05 6.87535e-05 0.10694)
(-0.000103923 6.30023e-05 0.106534)
(6.30088e-05 -0.00010389 0.106534)
(-0.00016026 -0.000160275 0.105935)
(6.73718e-05 6.7377e-05 0.10729)
(-0.000101588 6.19956e-05 0.106813)
(6.1994e-05 -0.000101549 0.106813)
(-0.000158638 -0.000158669 0.106117)
(6.60394e-05 6.60652e-05 0.107631)
(-9.9304e-05 6.09911e-05 0.107077)
(6.10174e-05 -9.93746e-05 0.107077)
(-0.000156813 -0.000156849 0.106274)
(6.47639e-05 6.47975e-05 0.107963)
(-9.73128e-05 6.00609e-05 0.107325)
(6.00745e-05 -9.74015e-05 0.107325)
(-0.000154741 -0.000154795 0.106405)
(6.35223e-05 6.35321e-05 0.108287)
(-9.5452e-05 5.90733e-05 0.107556)
(5.91096e-05 -9.55278e-05 0.107556)
(-0.000152311 -0.000152382 0.106509)
(6.22963e-05 6.22958e-05 0.108602)
(-9.36156e-05 5.80586e-05 0.10777)
(5.80745e-05 -9.36931e-05 0.10777)
(-0.000149468 -0.00014954 0.106585)
(6.10799e-05 6.10606e-05 0.108908)
(-9.1681e-05 5.68997e-05 0.107966)
(5.69414e-05 -9.17779e-05 0.107966)
(-0.000146117 -0.000146188 0.106635)
(5.98339e-05 5.9816e-05 0.109205)
(-8.95861e-05 5.5713e-05 0.108144)
(5.57451e-05 -8.97038e-05 0.108144)
(-0.000142224 -0.000142304 0.106658)
(5.85884e-05 5.85499e-05 0.109494)
(-8.73418e-05 5.44866e-05 0.108303)
(5.45152e-05 -8.74246e-05 0.108303)
(-0.000137937 -0.000138033 0.106657)
(5.73384e-05 5.72819e-05 0.109773)
(-8.49632e-05 5.32161e-05 0.108444)
(5.32361e-05 -8.50427e-05 0.108443)
(-0.000133296 -0.000133392 0.106633)
(5.60295e-05 5.5956e-05 0.110042)
(-8.24261e-05 5.19003e-05 0.108566)
(5.19219e-05 -8.24928e-05 0.108565)
(-0.000128442 -0.000128534 0.10659)
(5.46591e-05 5.45902e-05 0.110302)
(-7.97613e-05 5.04974e-05 0.108669)
(5.05003e-05 -7.98174e-05 0.108668)
(-0.000123348 -0.000123444 0.106529)
(5.3243e-05 5.31842e-05 0.110552)
(-7.6933e-05 4.89603e-05 0.108754)
(4.89476e-05 -7.69741e-05 0.108753)
(-0.000118186 -0.000118254 0.106455)
(5.17923e-05 5.17542e-05 0.110791)
(-7.39724e-05 4.72804e-05 0.108821)
(4.72476e-05 -7.39994e-05 0.108821)
(-0.000112861 -0.000112919 0.106369)
(5.03187e-05 5.02981e-05 0.11102)
(-7.08711e-05 4.54815e-05 0.108872)
(4.54489e-05 -7.09127e-05 0.108871)
(-0.000107577 -0.00010763 0.106275)
(4.88398e-05 4.8849e-05 0.111237)
(-6.76886e-05 4.35854e-05 0.108907)
(4.3528e-05 -6.77221e-05 0.108907)
(-0.000102408 -0.000102453 0.106176)
(4.73384e-05 4.73577e-05 0.111444)
(-6.44394e-05 4.15804e-05 0.108928)
(4.15238e-05 -6.4471e-05 0.108927)
(-9.72739e-05 -9.73016e-05 0.106074)
(4.58435e-05 4.5879e-05 0.111638)
(-6.11591e-05 3.95037e-05 0.108935)
(3.94469e-05 -6.11793e-05 0.108934)
(-9.2381e-05 -9.23824e-05 0.10597)
(4.43711e-05 4.44017e-05 0.111821)
(-5.78546e-05 3.73616e-05 0.10893)
(3.73049e-05 -5.78667e-05 0.108929)
(-8.76813e-05 -8.76661e-05 0.105866)
(4.29074e-05 4.29399e-05 0.111992)
(-5.45701e-05 3.51476e-05 0.108915)
(3.50963e-05 -5.45653e-05 0.108914)
(-8.31438e-05 -8.3118e-05 0.105764)
(4.14689e-05 4.14948e-05 0.112151)
(-5.13147e-05 3.29061e-05 0.10889)
(3.28521e-05 -5.13019e-05 0.108889)
(-7.89096e-05 -7.8885e-05 0.105664)
(4.00251e-05 4.00281e-05 0.112298)
(-4.8109e-05 3.06514e-05 0.108857)
(3.06074e-05 -4.80787e-05 0.108856)
(-7.48826e-05 -7.48682e-05 0.105566)
(3.85876e-05 3.857e-05 0.112432)
(-4.49613e-05 2.84227e-05 0.108817)
(2.83902e-05 -4.49298e-05 0.108817)
(-7.1121e-05 -7.11235e-05 0.105472)
(3.71259e-05 3.70981e-05 0.112554)
(-4.18836e-05 2.62418e-05 0.108772)
(2.62183e-05 -4.18735e-05 0.108772)
(-6.75998e-05 -6.7628e-05 0.105381)
(3.56633e-05 3.56246e-05 0.112664)
(-3.88966e-05 2.41296e-05 0.108723)
(2.40983e-05 -3.89059e-05 0.108723)
(-6.43412e-05 -6.43976e-05 0.105295)
(3.41997e-05 3.41448e-05 0.112762)
(-3.60241e-05 2.21032e-05 0.108671)
(2.2091e-05 -3.60485e-05 0.108671)
(-6.13265e-05 -6.14053e-05 0.105212)
(3.27357e-05 3.26749e-05 0.112849)
(-3.33041e-05 2.01982e-05 0.108617)
(2.01976e-05 -3.33435e-05 0.108617)
(-5.85989e-05 -5.86855e-05 0.105133)
(3.12986e-05 3.12406e-05 0.112926)
(-3.07555e-05 1.84284e-05 0.108562)
(1.84331e-05 -3.08016e-05 0.108561)
(-5.6157e-05 -5.6247e-05 0.105058)
(2.98936e-05 2.98452e-05 0.112993)
(-2.84116e-05 1.68204e-05 0.108507)
(1.6822e-05 -2.84562e-05 0.108506)
(-5.40183e-05 -5.41064e-05 0.104988)
(2.8542e-05 2.85006e-05 0.113051)
(-2.63174e-05 1.54043e-05 0.108453)
(1.53825e-05 -2.63611e-05 0.108452)
(-5.21784e-05 -5.22634e-05 0.104922)
(2.72629e-05 2.72431e-05 0.113101)
(-2.4501e-05 1.42298e-05 0.108401)
(1.41712e-05 -2.4543e-05 0.108399)
(-5.06237e-05 -5.06934e-05 0.10486)
(2.60502e-05 2.60587e-05 0.113145)
(-2.29228e-05 1.32565e-05 0.108351)
(1.31619e-05 -2.29535e-05 0.108349)
(-4.94038e-05 -4.94512e-05 0.104802)
(0.000138129 0.000138148 0.100281)
(0.000126513 0.000159994 0.100229)
(-0.000126404 0.000159973 0.100229)
(-0.000137986 0.000138108 0.100281)
(0.000160056 0.000126438 0.100229)
(0.000159956 -0.000126419 0.100229)
(9.38551e-05 9.37849e-05 0.100152)
(-9.37621e-05 9.37954e-05 0.100152)
(9.38075e-05 -9.38004e-05 0.100152)
(-9.37436e-05 -9.38207e-05 0.100152)
(-0.000159893 0.000126439 0.100229)
(-0.000159884 -0.000126444 0.100229)
(0.000138029 -0.000138092 0.100281)
(0.000126402 -0.000160004 0.100229)
(-0.000126391 -0.000159987 0.100229)
(-0.000138022 -0.000138049 0.100281)
(0.000248077 0.000248048 0.100399)
(0.000112806 0.000112742 0.100897)
(0.000115799 0.000185129 0.10039)
(-0.000115703 0.00018517 0.10039)
(9.32082e-05 0.000149142 0.100817)
(-9.31415e-05 0.000149145 0.100817)
(-0.000247855 0.000247938 0.100398)
(-0.000112717 0.00011258 0.100897)
(0.000185287 0.000115684 0.10039)
(0.000185175 -0.00011572 0.10039)
(0.000149137 9.32275e-05 0.100817)
(0.000149025 -9.32066e-05 0.100817)
(-0.000185196 -0.000115712 0.10039)
(-0.000149064 9.31396e-05 0.100817)
(-0.000149085 -9.31553e-05 0.100817)
(0.000247886 -0.000248072 0.100399)
(0.000112724 -0.000112793 0.100897)
(-0.000115713 -0.000185191 0.10039)
(9.31652e-05 -0.000149062 0.100817)
(-9.31756e-05 -0.00014895 0.100817)
(-0.000112832 -0.000112717 0.100897)
(0.00019444 0.000194358 0.100971)
(0.000105449 0.000105416 0.101399)
(9.36446e-05 0.000151613 0.100939)
(-9.36033e-05 0.000151607 0.100939)
(9.14472e-05 0.000152267 0.101319)
(-9.13905e-05 0.00015224 0.101319)
(-0.000194343 0.000194214 0.100971)
(-0.00010539 0.000105311 0.101399)
(0.000151568 9.36704e-05 0.100939)
(0.000151495 -9.36433e-05 0.100939)
(0.000152131 9.14981e-05 0.101319)
(0.000152164 -9.14548e-05 0.101319)
(-0.000151504 -9.36215e-05 0.100939)
(-0.000152114 9.14761e-05 0.101319)
(-0.000152173 -9.14093e-05 0.101319)
(0.000194323 -0.000194412 0.100971)
(0.000105374 -0.000105456 0.101399)
(-9.36437e-05 -0.000151432 0.100939)
(9.14328e-05 -0.000152154 0.101319)
(-9.144e-05 -0.000152116 0.101319)
(-0.00010543 -0.000105374 0.101399)
(0.00019485 0.000194796 0.101475)
(9.77755e-05 9.77451e-05 0.101897)
(9.09161e-05 0.000152398 0.101448)
(-9.08718e-05 0.000152364 0.101448)
(8.83366e-05 0.000150538 0.101829)
(-8.82702e-05 0.000150504 0.101829)
(-0.000194765 0.000194694 0.101475)
(-9.77165e-05 9.76171e-05 0.101896)
(0.000152245 9.09809e-05 0.101448)
(0.000152283 -9.09402e-05 0.101448)
(0.000150411 8.83778e-05 0.101829)
(0.000150432 -8.83164e-05 0.101829)
(-0.000152341 -9.09079e-05 0.101448)
(-0.000150465 8.8297e-05 0.101829)
(-0.000150551 -8.83165e-05 0.101829)
(0.000194752 -0.000194849 0.101475)
(9.76644e-05 -9.77994e-05 0.101897)
(-9.09634e-05 -0.000152261 0.101448)
(8.83305e-05 -0.000150484 0.101829)
(-8.84002e-05 -0.000150426 0.101829)
(-9.78511e-05 -9.77067e-05 0.101897)
(0.000192233 0.000192165 0.101968)
(8.85059e-05 8.84224e-05 0.102371)
(8.7217e-05 0.000149357 0.101954)
(-8.71541e-05 0.000149327 0.101954)
(8.3692e-05 0.000145169 0.102322)
(-8.36109e-05 0.000145144 0.102322)
(-0.000192158 0.000192056 0.101968)
(-8.84652e-05 8.83154e-05 0.102371)
(0.000149264 8.72378e-05 0.101954)
(0.000149275 -8.71755e-05 0.101954)
(0.000145156 8.36714e-05 0.102322)
(0.000145135 -8.35528e-05 0.102322)
(-0.000149388 -8.7191e-05 0.101954)
(-0.000145197 8.3607e-05 0.102322)
(-0.000145233 -8.3656e-05 0.102322)
(0.000192106 -0.000192227 0.101968)
(8.83735e-05 -8.84517e-05 0.102371)
(-8.72865e-05 -0.000149256 0.101954)
(8.36765e-05 -0.000145146 0.102322)
(-8.37571e-05 -0.000145089 0.102322)
(-8.85579e-05 -8.84286e-05 0.102371)
(0.000187024 0.000186893 0.102436)
(7.97156e-05 7.97012e-05 0.102816)
(8.2522e-05 0.000143678 0.102442)
(-8.24579e-05 0.000143657 0.102442)
(7.93943e-05 0.000139257 0.102793)
(-7.93447e-05 0.000139224 0.102793)
(-0.000186965 0.000186786 0.102436)
(-7.96923e-05 7.96572e-05 0.102816)
(0.000143673 8.24865e-05 0.102442)
(0.000143644 -8.23921e-05 0.102442)
(0.000139214 7.93673e-05 0.102793)
(0.000139184 -7.92896e-05 0.102793)
(-0.000143734 -8.24669e-05 0.102442)
(-0.00013924 7.93313e-05 0.102793)
(-0.000139244 -7.93262e-05 0.102793)
(0.000186836 -0.000186951 0.102436)
(7.96664e-05 -7.96402e-05 0.102817)
(-8.25677e-05 -0.000143599 0.102442)
(7.93491e-05 -0.000139175 0.102793)
(-7.93385e-05 -0.000139158 0.102793)
(-7.9698e-05 -7.96236e-05 0.102816)
(0.000181619 0.000181555 0.102875)
(7.19513e-05 7.19527e-05 0.103234)
(7.84511e-05 0.000137829 0.102907)
(-7.84048e-05 0.000137802 0.102907)
(7.59232e-05 0.000133735 0.10324)
(-7.58555e-05 0.000133667 0.10324)
(-0.000181564 0.000181488 0.102875)
(-7.19073e-05 7.18972e-05 0.103234)
(0.000137775 7.84336e-05 0.102907)
(0.000137746 -7.83606e-05 0.102907)
(0.000133654 7.59213e-05 0.10324)
(0.000133634 -7.58605e-05 0.10324)
(-0.000137795 -7.83897e-05 0.102907)
(-0.000133654 7.58708e-05 0.10324)
(-0.000133668 -7.58842e-05 0.10324)
(0.000181493 -0.000181548 0.102875)
(7.19366e-05 -7.19001e-05 0.103234)
(-7.83765e-05 -0.000137725 0.102907)
(7.59053e-05 -0.000133603 0.10324)
(-7.58312e-05 -0.000133618 0.10324)
(-7.19197e-05 -7.18759e-05 0.103234)
(0.000176983 0.000176925 0.103285)
(6.51398e-05 6.51345e-05 0.103626)
(7.51816e-05 0.000132444 0.103349)
(-7.51052e-05 0.000132366 0.103349)
(7.32077e-05 0.000128826 0.103665)
(-7.31282e-05 0.000128712 0.103665)
(-0.000176891 0.000176833 0.103285)
(-6.50877e-05 6.50489e-05 0.103626)
(0.000132366 7.51768e-05 0.103349)
(0.000132342 -7.51172e-05 0.103349)
(0.000128736 7.31965e-05 0.103665)
(0.000128706 -7.31322e-05 0.103665)
(-0.000132379 -7.51446e-05 0.103349)
(-0.000128736 7.31094e-05 0.103665)
(-0.000128781 -7.31924e-05 0.103665)
(0.000176882 -0.000176922 0.103285)
(6.5125e-05 -6.50723e-05 0.103626)
(-7.50897e-05 -0.000132331 0.103349)
(7.31747e-05 -0.000128662 0.103665)
(-7.31604e-05 -0.000128732 0.103665)
(-6.51532e-05 -6.51193e-05 0.103626)
(0.000173232 0.000173155 0.103669)
(5.91672e-05 5.9236e-05 0.103993)
(7.2623e-05 0.000127695 0.103768)
(-7.25513e-05 0.000127582 0.103768)
(7.10707e-05 0.000124556 0.10407)
(-7.10203e-05 0.000124441 0.10407)
(-0.000173137 0.000173043 0.103668)
(-5.91402e-05 5.91517e-05 0.103993)
(0.000127611 7.26112e-05 0.103768)
(0.000127578 -7.25495e-05 0.103768)
(0.000124453 7.10712e-05 0.10407)
(0.000124413 -7.09961e-05 0.10407)
(-0.000127669 -7.26164e-05 0.103768)
(-0.00012449 7.09644e-05 0.10407)
(-0.000124542 -7.10673e-05 0.10407)
(0.000173119 -0.00017316 0.103668)
(5.91868e-05 -5.91164e-05 0.103993)
(-7.25933e-05 -0.00012762 0.103768)
(7.10108e-05 -0.000124404 0.10407)
(-7.10739e-05 -0.000124486 0.10407)
(-5.92257e-05 -5.91997e-05 0.103993)
(0.000170298 0.000170209 0.104027)
(5.41568e-05 5.43707e-05 0.104338)
(7.06567e-05 0.000123602 0.104168)
(-7.06152e-05 0.000123489 0.104168)
(6.96788e-05 0.000120947 0.104457)
(-6.96523e-05 0.000120853 0.104456)
(-0.000170218 0.000170093 0.104027)
(-5.41539e-05 5.43125e-05 0.104338)
(0.000123485 7.06416e-05 0.104168)
(0.000123443 -7.0585e-05 0.104168)
(0.00012078 6.95967e-05 0.104457)
(0.000120746 -6.96036e-05 0.104457)
(-0.000123574 -7.0607e-05 0.104168)
(-0.000120849 6.95048e-05 0.104457)
(-0.000120873 -6.95075e-05 0.104457)
(0.000170116 -0.000170261 0.104027)
(5.42601e-05 -5.40716e-05 0.104338)
(-7.06157e-05 -0.000123517 0.104168)
(6.94297e-05 -0.000120759 0.104457)
(-6.94759e-05 -0.000120796 0.104457)
(-5.41946e-05 -5.4095e-05 0.104339)
(0.00016816 0.0001682 0.104363)
(4.97206e-05 4.99049e-05 0.104663)
(6.93876e-05 0.000120125 0.104551)
(-6.9365e-05 0.000120035 0.104551)
(6.86145e-05 0.000117761 0.104827)
(-6.85662e-05 0.000117676 0.104827)
(-0.000168102 0.000168102 0.104363)
(-4.96518e-05 4.98575e-05 0.104663)
(0.000119946 6.93076e-05 0.104551)
(0.000119914 -6.93257e-05 0.104551)
(0.000117559 6.85273e-05 0.104827)
(0.000117544 -6.85573e-05 0.104827)
(-0.000120047 -6.92174e-05 0.104551)
(-0.000117624 6.84029e-05 0.104827)
(-0.000117664 -6.84264e-05 0.104827)
(0.000168051 -0.000168114 0.104363)
(4.97881e-05 -4.96598e-05 0.104663)
(-6.91772e-05 -0.000119962 0.104551)
(6.83454e-05 -0.000117544 0.104827)
(-6.83737e-05 -0.000117571 0.104827)
(-4.97354e-05 -4.96647e-05 0.104663)
(0.000166604 0.000166632 0.104678)
(4.55306e-05 4.56083e-05 0.104968)
(6.83519e-05 0.000116984 0.104917)
(-6.83095e-05 0.000116909 0.104917)
(6.76058e-05 0.00011472 0.105182)
(-6.75603e-05 0.000114661 0.105182)
(-0.00016652 0.000166556 0.104678)
(-4.54761e-05 4.56223e-05 0.104968)
(0.00011679 6.82611e-05 0.104917)
(0.000116784 -6.83068e-05 0.104917)
(0.000114556 6.74895e-05 0.105182)
(0.000114565 -6.75664e-05 0.105182)
(-0.000116904 -6.81709e-05 0.104917)
(-0.000114615 6.73828e-05 0.105182)
(-0.00011466 -6.74182e-05 0.105182)
(0.000166504 -0.000166574 0.104678)
(4.5575e-05 -4.54878e-05 0.104968)
(-6.81128e-05 -0.000116808 0.104917)
(6.73594e-05 -0.000114536 0.105182)
(-6.73501e-05 -0.000114568 0.105183)
(-4.55128e-05 -4.54914e-05 0.104968)
(0.000165277 0.000165236 0.104972)
(4.15925e-05 4.15835e-05 0.105254)
(6.7358e-05 0.000113991 0.105269)
(-6.73112e-05 0.000113924 0.105269)
(6.66184e-05 0.000111919 0.105523)
(-6.65531e-05 0.000111887 0.105523)
(-0.000165194 0.000165207 0.104972)
(-4.15593e-05 4.16217e-05 0.105254)
(0.000113831 6.72375e-05 0.105269)
(0.000113842 -6.73208e-05 0.105269)
(0.000111826 6.64929e-05 0.105524)
(0.000111847 -6.65631e-05 0.105523)
(-0.000113941 -6.71687e-05 0.105269)
(-0.00011185 6.63828e-05 0.105524)
(-0.000111883 -6.64029e-05 0.105523)
(0.000165195 -0.000165251 0.104972)
(4.15911e-05 -4.15595e-05 0.105254)
(-6.70994e-05 -0.00011385 0.105269)
(6.64024e-05 -0.000111808 0.105524)
(-6.63518e-05 -0.000111801 0.105524)
(-4.15377e-05 -4.1556e-05 0.105254)
(0.000164153 0.000164038 0.105246)
(3.76327e-05 3.77177e-05 0.105519)
(6.63526e-05 0.000111278 0.105607)
(-6.62934e-05 0.000111254 0.105606)
(6.5572e-05 0.000109409 0.10585)
(-6.55217e-05 0.000109376 0.10585)
(-0.000164122 0.000164034 0.105246)
(-3.75516e-05 3.76939e-05 0.105519)
(0.000111201 6.62405e-05 0.105607)
(0.000111221 -6.63004e-05 0.105607)
(0.000109344 6.54262e-05 0.105851)
(0.000109374 -6.55284e-05 0.10585)
(-0.000111251 -6.61413e-05 0.105606)
(-0.000109341 6.5311e-05 0.105851)
(-0.000109379 -6.53655e-05 0.10585)
(0.000164044 -0.00016417 0.105246)
(3.77348e-05 -3.75476e-05 0.105519)
(-6.60921e-05 -0.000111168 0.105607)
(6.53468e-05 -0.000109319 0.105851)
(-6.52845e-05 -0.000109293 0.105851)
(-3.76229e-05 -3.75361e-05 0.105519)
(0.000163096 0.000163013 0.105498)
(3.34747e-05 3.36046e-05 0.105764)
(6.53052e-05 0.000108795 0.10593)
(-6.52611e-05 0.000108768 0.10593)
(6.45488e-05 0.000106971 0.106163)
(-6.45177e-05 0.000106937 0.106163)
(-0.000163041 0.000162984 0.105498)
(-3.33631e-05 3.35488e-05 0.105764)
(0.000108735 6.51609e-05 0.10593)
(0.000108765 -6.52647e-05 0.10593)
(0.000106905 6.4385e-05 0.106163)
(0.000106952 -6.45175e-05 0.106163)
(-0.00010877 -6.51053e-05 0.10593)
(-0.000106899 6.4255e-05 0.106163)
(-0.000106944 -6.43537e-05 0.106163)
(0.000163012 -0.000163074 0.105498)
(3.36527e-05 -3.33697e-05 0.105764)
(-6.50224e-05 -0.000108683 0.10593)
(6.42777e-05 -0.000106873 0.106163)
(-6.42344e-05 -0.000106841 0.106163)
(-3.34837e-05 -3.33366e-05 0.105764)
(0.000161819 0.000161791 0.105728)
(2.936e-05 2.94787e-05 0.105987)
(6.42928e-05 0.000106362 0.106239)
(-6.42725e-05 0.000106344 0.106239)
(6.35353e-05 0.000104589 0.106461)
(-6.35441e-05 0.000104556 0.106461)
(-0.000161757 0.00016174 0.105728)
(-2.92874e-05 2.94207e-05 0.105987)
(0.0001063 6.41308e-05 0.106239)
(0.000106353 -6.42671e-05 0.106239)
(0.000104502 6.3394e-05 0.106462)
(0.000104562 -6.35238e-05 0.106461)
(-0.000106345 -6.41065e-05 0.106239)
(-0.000104506 6.32639e-05 0.106462)
(-0.000104556 -6.33601e-05 0.106461)
(0.000161796 -0.000161792 0.105728)
(2.94925e-05 -2.92806e-05 0.105987)
(-6.39836e-05 -0.00010624 0.106239)
(6.32626e-05 -0.000104475 0.106462)
(-6.32393e-05 -0.00010444 0.106462)
(-2.93447e-05 -2.92369e-05 0.105987)
(0.000160318 0.000160297 0.105935)
(2.54825e-05 2.56008e-05 0.106186)
(6.32792e-05 0.000103982 0.106534)
(-6.32827e-05 0.000103963 0.106534)
(6.25134e-05 0.000102254 0.106745)
(-6.25241e-05 0.000102201 0.106745)
(-0.000160278 0.000160239 0.105935)
(-2.54484e-05 2.55074e-05 0.106186)
(0.000103902 6.31447e-05 0.106534)
(0.00010397 -6.32713e-05 0.106534)
(0.000102144 6.23993e-05 0.106745)
(0.00010221 -6.25113e-05 0.106745)
(-0.000103974 -6.31109e-05 0.106534)
(-0.000102159 6.22471e-05 0.106745)
(-0.000102219 -6.23526e-05 0.106745)
(0.000160293 -0.000160321 0.105935)
(2.55843e-05 -2.54198e-05 0.106186)
(-6.29923e-05 -0.000103854 0.106534)
(6.22519e-05 -0.000102124 0.106745)
(-6.22406e-05 -0.000102091 0.106745)
(-2.54566e-05 -2.53792e-05 0.106186)
(0.000158687 0.000158675 0.106117)
(2.19388e-05 2.20593e-05 0.106361)
(6.22574e-05 0.000101653 0.106813)
(-6.22597e-05 0.000101631 0.106813)
(6.15051e-05 0.000100001 0.107013)
(-6.14873e-05 9.99054e-05 0.107012)
(-0.000158665 0.000158591 0.106117)
(-2.18746e-05 2.19062e-05 0.106361)
(0.000101554 6.21486e-05 0.106813)
(0.000101626 -6.22512e-05 0.106813)
(9.98875e-05 6.14149e-05 0.107013)
(9.99523e-05 -6.14968e-05 0.107012)
(-0.000101646 -6.21001e-05 0.106813)
(-9.9845e-05 6.12354e-05 0.107013)
(-9.9918e-05 -6.13362e-05 0.107012)
(0.00015865 -0.000158698 0.106117)
(2.2012e-05 -2.18639e-05 0.106361)
(-6.19877e-05 -0.000101518 0.106813)
(6.12559e-05 -9.98666e-05 0.107013)
(-6.12334e-05 -9.97817e-05 0.107013)
(-2.18899e-05 -2.18267e-05 0.106361)
(0.000156881 0.000156875 0.106274)
(1.86497e-05 1.87624e-05 0.106509)
(6.1264e-05 9.94918e-05 0.107077)
(-6.12313e-05 9.93748e-05 0.107077)
(6.05563e-05 9.80255e-05 0.107264)
(-6.05081e-05 9.7873e-05 0.107264)
(-0.000156843 0.000156773 0.106274)
(-1.85651e-05 1.86011e-05 0.10651)
(9.93884e-05 6.11795e-05 0.107077)
(9.94559e-05 -6.12543e-05 0.107077)
(9.79202e-05 6.04816e-05 0.107265)
(9.79681e-05 -6.05302e-05 0.107264)
(-9.93822e-05 -6.10935e-05 0.107077)
(-9.77881e-05 6.02948e-05 0.107265)
(-9.78636e-05 -6.03761e-05 0.107264)
(0.000156838 -0.000156888 0.106274)
(1.87056e-05 -1.85598e-05 0.106509)
(-6.09926e-05 -9.92414e-05 0.107077)
(6.03168e-05 -9.78784e-05 0.107265)
(-6.02698e-05 -9.77394e-05 0.107265)
(-1.85804e-05 -1.85432e-05 0.106509)
(0.000154837 0.000154826 0.106405)
(1.55376e-05 1.56414e-05 0.106631)
(6.03151e-05 9.75666e-05 0.107325)
(-6.02625e-05 9.74073e-05 0.107325)
(5.96017e-05 9.61079e-05 0.1075)
(-5.95299e-05 9.60196e-05 0.1075)
(-0.000154783 0.000154734 0.106405)
(-1.54344e-05 1.55042e-05 0.106632)
(9.7448e-05 6.02452e-05 0.107325)
(9.7493e-05 -6.02852e-05 0.107325)
(9.60453e-05 5.95114e-05 0.1075)
(9.60783e-05 -5.95499e-05 0.107499)
(-9.73876e-05 -6.01371e-05 0.107325)
(-9.59029e-05 5.93302e-05 0.1075)
(-9.59631e-05 -5.94148e-05 0.1075)
(0.00015477 -0.000154813 0.106405)
(1.55825e-05 -1.54515e-05 0.106631)
(-6.00281e-05 -9.7262e-05 0.107325)
(5.93594e-05 -9.59858e-05 0.1075)
(-5.92994e-05 -9.58575e-05 0.1075)
(-1.54697e-05 -1.54545e-05 0.106631)
(0.000152433 0.000152407 0.106508)
(1.26091e-05 1.26933e-05 0.106725)
(5.93464e-05 9.56319e-05 0.107556)
(-5.92841e-05 9.55629e-05 0.107556)
(5.85885e-05 9.41899e-05 0.107718)
(-5.85258e-05 9.42026e-05 0.107718)
(-0.000152323 0.000152298 0.106509)
(-1.25374e-05 1.25495e-05 0.106726)
(9.55921e-05 5.92561e-05 0.107556)
(9.56203e-05 -5.93046e-05 0.107556)
(9.42027e-05 5.8485e-05 0.107718)
(9.42279e-05 -5.85328e-05 0.107718)
(-9.55068e-05 -5.9174e-05 0.107556)
(-9.40766e-05 5.83259e-05 0.107718)
(-9.4116e-05 -5.84156e-05 0.107718)
(0.000152348 -0.000152393 0.106508)
(1.26208e-05 -1.25105e-05 0.106725)
(-5.90525e-05 -9.54034e-05 0.107556)
(5.83481e-05 -9.41465e-05 0.107718)
(-5.82765e-05 -9.40338e-05 0.107718)
(-1.252e-05 -1.25136e-05 0.106725)
(0.000149579 0.000149558 0.106585)
(9.78921e-06 9.78538e-06 0.106791)
(5.83139e-05 9.37192e-05 0.10777)
(-5.82509e-05 9.37509e-05 0.107769)
(5.74309e-05 9.22452e-05 0.107918)
(-5.74103e-05 9.23274e-05 0.107918)
(-0.000149485 0.000149438 0.106585)
(-9.68097e-06 9.71374e-06 0.106792)
(9.37516e-05 5.8218e-05 0.10777)
(9.37691e-05 -5.82619e-05 0.107769)
(9.23182e-05 5.73656e-05 0.107919)
(9.23274e-05 -5.74129e-05 0.107918)
(-9.36582e-05 -5.81533e-05 0.107769)
(-9.21757e-05 5.7214e-05 0.107919)
(-9.22159e-05 -5.73053e-05 0.107918)
(0.000149488 -0.000149538 0.106585)
(9.7593e-06 -9.68787e-06 0.106791)
(-5.80078e-05 -9.35719e-05 0.10777)
(5.72454e-05 -9.22613e-05 0.107919)
(-5.7163e-05 -9.21433e-05 0.107919)
(-9.67304e-06 -9.67076e-06 0.106791)
(0.000146267 0.000146156 0.106634)
(6.96426e-06 7.07991e-06 0.10683)
(5.71142e-05 9.17467e-05 0.107966)
(-5.71038e-05 9.18418e-05 0.107965)
(5.62328e-05 9.01989e-05 0.108101)
(-5.62218e-05 9.03057e-05 0.108101)
(-0.000146147 0.000146116 0.106635)
(-6.93726e-06 6.94491e-06 0.106831)
(9.18337e-05 5.70583e-05 0.107966)
(9.18385e-05 -5.71095e-05 0.107965)
(9.02912e-05 5.61494e-05 0.108101)
(9.03048e-05 -5.62096e-05 0.1081)
(-9.17302e-05 -5.7005e-05 0.107965)
(-9.01402e-05 5.60081e-05 0.108101)
(-9.01918e-05 -5.61044e-05 0.108101)
(0.000146121 -0.000146213 0.106634)
(7.02623e-06 -6.90024e-06 0.10683)
(-5.68564e-05 -9.16481e-05 0.107966)
(5.605e-05 -9.02466e-05 0.108101)
(-5.59651e-05 -9.01094e-05 0.108101)
(-6.90049e-06 -6.91828e-06 0.10683)
(0.000142342 0.000142294 0.106658)
(4.32798e-06 4.43819e-06 0.106843)
(5.5935e-05 8.96536e-05 0.108143)
(-5.59406e-05 8.9761e-05 0.108143)
(5.50209e-05 8.79339e-05 0.108264)
(-5.50325e-05 8.80564e-05 0.108264)
(-0.00014225 0.000142195 0.106658)
(-4.30873e-06 4.28648e-06 0.106844)
(8.97591e-05 5.58401e-05 0.108144)
(8.97687e-05 -5.59189e-05 0.108143)
(8.80492e-05 5.49244e-05 0.108265)
(8.80664e-05 -5.50151e-05 0.108264)
(-8.96532e-05 -5.58181e-05 0.108143)
(-8.7914e-05 5.4809e-05 0.108265)
(-8.79575e-05 -5.49232e-05 0.108264)
(0.000142249 -0.000142319 0.106658)
(4.38989e-06 -4.26657e-06 0.106843)
(-5.5671e-05 -8.95482e-05 0.108144)
(5.48359e-05 -8.80038e-05 0.108265)
(-5.47606e-05 -8.78872e-05 0.108265)
(-4.24729e-06 -4.29531e-06 0.106843)
(0.000138067 0.000137977 0.106657)
(1.76138e-06 1.90257e-06 0.106831)
(5.47084e-05 8.73496e-05 0.108302)
(-5.47245e-05 8.74779e-05 0.108302)
(5.37815e-05 8.55645e-05 0.108409)
(-5.3779e-05 8.56966e-05 0.108409)
(-0.000137989 0.000137911 0.106657)
(-1.79269e-06 1.74401e-06 0.106832)
(8.74728e-05 5.45958e-05 0.108303)
(8.74906e-05 -5.4706e-05 0.108302)
(8.56955e-05 5.36242e-05 0.10841)
(8.57221e-05 -5.37618e-05 0.108409)
(-8.7382e-05 -5.46125e-05 0.108302)
(-8.55773e-05 5.3546e-05 0.108411)
(-8.56108e-05 -5.36677e-05 0.108409)
(0.000137986 -0.000138071 0.106657)
(1.84989e-06 -1.67158e-06 0.106831)
(-5.44471e-05 -8.7326e-05 0.108303)
(5.35579e-05 -8.56633e-05 0.10841)
(-5.34958e-05 -8.55739e-05 0.10841)
(-1.68958e-06 -1.74158e-06 0.106831)
(0.000133407 0.000133339 0.106633)
(-6.8954e-07 -6.14994e-07 0.106798)
(5.3462e-05 8.49425e-05 0.108443)
(-5.34608e-05 8.50808e-05 0.108443)
(5.2495e-05 8.30295e-05 0.108536)
(-5.24893e-05 8.31739e-05 0.108536)
(-0.000133372 0.000133277 0.106634)
(6.75599e-07 -7.35437e-07 0.106799)
(8.50851e-05 5.32874e-05 0.108443)
(8.51064e-05 -5.34486e-05 0.108442)
(8.31877e-05 5.23016e-05 0.108536)
(8.32056e-05 -5.2486e-05 0.108535)
(-8.49914e-05 -5.33524e-05 0.108443)
(-8.30741e-05 5.22513e-05 0.108537)
(-8.3087e-05 -5.23714e-05 0.108536)
(0.000133339 -0.000133386 0.106633)
(-6.47013e-07 8.05673e-07 0.106798)
(-5.31829e-05 -8.49662e-05 0.108443)
(5.22737e-05 -8.3151e-05 0.108536)
(-5.22022e-05 -8.30959e-05 0.108536)
(7.50171e-07 6.9337e-07 0.106798)
(0.000128577 0.000128473 0.106589)
(-3.17083e-06 -3.12501e-06 0.106746)
(5.21528e-05 8.23686e-05 0.108564)
(-5.21524e-05 8.25223e-05 0.108564)
(5.11014e-05 8.0383e-05 0.108644)
(-5.11037e-05 8.05371e-05 0.108643)
(-0.000128524 0.00012842 0.10659)
(3.15983e-06 -3.21149e-06 0.106746)
(8.25316e-05 5.19514e-05 0.108565)
(8.25499e-05 -5.21389e-05 0.108564)
(8.05442e-05 5.09112e-05 0.108644)
(8.05598e-05 -5.10869e-05 0.108643)
(-8.2434e-05 -5.20346e-05 0.108564)
(-8.04544e-05 5.08702e-05 0.108645)
(-8.04529e-05 -5.09891e-05 0.108643)
(0.000128488 -0.000128544 0.10659)
(-3.1218e-06 3.27146e-06 0.106745)
(-5.18647e-05 -8.24496e-05 0.108565)
(5.08747e-05 -8.05134e-05 0.108644)
(-5.08267e-05 -8.04812e-05 0.108644)
(3.26324e-06 3.19532e-06 0.106745)
(0.000123493 0.000123379 0.106529)
(-5.71385e-06 -5.63274e-06 0.106678)
(5.07285e-05 7.96939e-05 0.108668)
(-5.07433e-05 7.98492e-05 0.108667)
(4.95903e-05 7.7595e-05 0.108733)
(-4.96059e-05 7.77489e-05 0.108733)
(-0.000123438 0.000123346 0.10653)
(5.66232e-06 -5.68431e-06 0.106678)
(7.98517e-05 5.0541e-05 0.108668)
(7.98689e-05 -5.07219e-05 0.108667)
(7.77402e-05 4.94121e-05 0.108733)
(7.7758e-05 -4.95821e-05 0.108732)
(-7.97649e-05 -5.06135e-05 0.108667)
(-7.76655e-05 4.93786e-05 0.108734)
(-7.76505e-05 -4.94719e-05 0.108733)
(0.000123417 -0.000123471 0.106529)
(-5.67618e-06 5.78082e-06 0.106677)
(-5.0459e-05 -7.97942e-05 0.108668)
(4.93764e-05 -7.77082e-05 0.108734)
(-4.93254e-05 -7.76835e-05 0.108733)
(5.73166e-06 5.70653e-06 0.106677)
(0.000118269 0.000118199 0.106454)
(-8.29402e-06 -8.1991e-06 0.106596)
(4.91669e-05 7.6871e-05 0.108753)
(-4.91981e-05 7.70248e-05 0.108752)
(4.7904e-05 7.46813e-05 0.108805)
(-4.79327e-05 7.4821e-05 0.108804)
(-0.000118228 0.000118153 0.106455)
(8.24802e-06 -8.2582e-06 0.106597)
(7.70064e-05 4.89872e-05 0.108753)
(7.70319e-05 -4.9166e-05 0.108752)
(7.47973e-05 4.77511e-05 0.108805)
(7.48214e-05 -4.79061e-05 0.108804)
(-7.69186e-05 -4.90732e-05 0.108752)
(-7.47422e-05 4.77263e-05 0.108806)
(-7.47196e-05 -4.78072e-05 0.108805)
(0.000118223 -0.000118291 0.106454)
(-8.22213e-06 8.31968e-06 0.106596)
(-4.89178e-05 -7.69568e-05 0.108753)
(4.77042e-05 -7.47706e-05 0.108805)
(-4.76544e-05 -7.47583e-05 0.108805)
(8.32015e-06 8.29208e-06 0.106596)
(0.000112937 0.0001129 0.106369)
(-1.08195e-05 -1.07092e-05 0.106506)
(4.7454e-05 7.3921e-05 0.10882)
(-4.74889e-05 7.40603e-05 0.10882)
(4.61057e-05 7.16392e-05 0.10886)
(-4.61391e-05 7.17719e-05 0.108859)
(-0.000112936 0.000112883 0.106369)
(1.0792e-05 -1.07659e-05 0.106506)
(7.40279e-05 4.73122e-05 0.108821)
(7.40603e-05 -4.74609e-05 0.108819)
(7.1721e-05 4.59838e-05 0.10886)
(7.17517e-05 -4.61172e-05 0.108859)
(-7.39578e-05 -4.73669e-05 0.10882)
(-7.16792e-05 4.59686e-05 0.108861)
(-7.16579e-05 -4.60135e-05 0.108859)
(0.000112873 -0.000112949 0.106369)
(-1.0745e-05 1.08216e-05 0.106505)
(-4.72191e-05 -7.40007e-05 0.10882)
(4.59237e-05 -7.17104e-05 0.10886)
(-4.58845e-05 -7.1695e-05 0.10886)
(1.08432e-05 1.0824e-05 0.106505)
(0.000107637 0.000107624 0.106275)
(-1.3297e-05 -1.31594e-05 0.106408)
(4.56297e-05 7.0846e-05 0.108871)
(-4.56776e-05 7.09844e-05 0.108871)