/*--------------------------------*- C++ -*----------------------------------*\
| =========                 |                                                 |
| \\      /  F ield         | OpenFOAM: The Open Source CFD Toolbox           |
|  \\    /   O peration     | Version:  v2012                                 |
|   \\  /    A nd           | Website:  www.openfoam.com                      |
|    \\/     M anipulation  |                                                 |
\*---------------------------------------------------------------------------*/
FoamFile
{
    version     2.0;
    format      ascii;
    class       volScalarField;
    location    "0.5";
    object      p;
}
// * * * * * * * * * * * * * * * * * * * * * * * * * * * * * * * * * * * * * //

dimensions      [0 2 -2 0 0 0 0];


internalField   nonuniform List<scalar> 
247104
(
1.82827e-06
1.82814e-06
1.82829e-06
1.82828e-06
1.82821e-06
1.8283e-06
1.82828e-06
1.82807e-06
1.82814e-06
1.82821e-06
1.82827e-06
1.82812e-06
1.82803e-06
1.82814e-06
1.82828e-06
1.82818e-06
1.82829e-06
1.82827e-06
1.82797e-06
1.82761e-06
1.82747e-06
1.82765e-06
1.82801e-06
1.82829e-06
1.82829e-06
1.82828e-06
1.82812e-06
1.82761e-06
1.82713e-06
1.82696e-06
1.82718e-06
1.82768e-06
1.82816e-06
1.82829e-06
1.82826e-06
1.82821e-06
1.82803e-06
1.82747e-06
1.82696e-06
1.82679e-06
1.82701e-06
1.82755e-06
1.82809e-06
1.8282e-06
1.8283e-06
1.82814e-06
1.82765e-06
1.82718e-06
1.82701e-06
1.82723e-06
1.82771e-06
1.82818e-06
1.82831e-06
1.82827e-06
1.82828e-06
1.82801e-06
1.82768e-06
1.82755e-06
1.82771e-06
1.82806e-06
1.82829e-06
1.82827e-06
1.82807e-06
1.82818e-06
1.82829e-06
1.82816e-06
1.82809e-06
1.82818e-06
1.82829e-06
1.82815e-06
1.82829e-06
1.82829e-06
1.8282e-06
1.8283e-06
1.82827e-06
1.79582e-06
1.79388e-06
1.7932e-06
1.79197e-06
1.79197e-06
1.79192e-06
1.79192e-06
1.79326e-06
1.79343e-06
1.7932e-06
1.79114e-06
1.78862e-06
1.78861e-06
1.78861e-06
1.78862e-06
1.79152e-06
1.79182e-06
1.79197e-06
1.78862e-06
1.78856e-06
1.78863e-06
1.78863e-06
1.78856e-06
1.78862e-06
1.79192e-06
1.79333e-06
1.79582e-06
1.79197e-06
1.78861e-06
1.78863e-06
1.78872e-06
1.78872e-06
1.78863e-06
1.78861e-06
1.79196e-06
1.79358e-06
1.79388e-06
1.79192e-06
1.78861e-06
1.78863e-06
1.78872e-06
1.78872e-06
1.78863e-06
1.78861e-06
1.7921e-06
1.7922e-06
1.79192e-06
1.78862e-06
1.78856e-06
1.78863e-06
1.78863e-06
1.78856e-06
1.78862e-06
1.79192e-06
1.79328e-06
1.79326e-06
1.79152e-06
1.78862e-06
1.78861e-06
1.78861e-06
1.78862e-06
1.7918e-06
1.79195e-06
1.79342e-06
1.79343e-06
1.79182e-06
1.79192e-06
1.79196e-06
1.7921e-06
1.79191e-06
1.79195e-06
1.79342e-06
1.79334e-06
1.79358e-06
1.7922e-06
1.79328e-06
1.79342e-06
1.77578e-06
1.77562e-06
1.77545e-06
1.77337e-06
1.77325e-06
1.7732e-06
1.77334e-06
1.77538e-06
1.77565e-06
1.77545e-06
1.77269e-06
1.76973e-06
1.76971e-06
1.76971e-06
1.76973e-06
1.77309e-06
1.7738e-06
1.77337e-06
1.76973e-06
1.76955e-06
1.7696e-06
1.7696e-06
1.76955e-06
1.76973e-06
1.77388e-06
1.77582e-06
1.77578e-06
1.77325e-06
1.76971e-06
1.7696e-06
1.76964e-06
1.76964e-06
1.7696e-06
1.76971e-06
1.77392e-06
1.77558e-06
1.77562e-06
1.7732e-06
1.76971e-06
1.7696e-06
1.76964e-06
1.76964e-06
1.7696e-06
1.76971e-06
1.77388e-06
1.77395e-06
1.77334e-06
1.76973e-06
1.76955e-06
1.7696e-06
1.7696e-06
1.76955e-06
1.76973e-06
1.77391e-06
1.77591e-06
1.77538e-06
1.77309e-06
1.76973e-06
1.76971e-06
1.76971e-06
1.76973e-06
1.77354e-06
1.77389e-06
1.77585e-06
1.77565e-06
1.77381e-06
1.77388e-06
1.77392e-06
1.77388e-06
1.77391e-06
1.77389e-06
1.77569e-06
1.77582e-06
1.77558e-06
1.77395e-06
1.77591e-06
1.77585e-06
1.75702e-06
1.75685e-06
1.75671e-06
1.7546e-06
1.75448e-06
1.7544e-06
1.75458e-06
1.75663e-06
1.75691e-06
1.75671e-06
1.75392e-06
1.75093e-06
1.75092e-06
1.75092e-06
1.75093e-06
1.75428e-06
1.75506e-06
1.7546e-06
1.75093e-06
1.75085e-06
1.75086e-06
1.75086e-06
1.75085e-06
1.75093e-06
1.75512e-06
1.75706e-06
1.75702e-06
1.75448e-06
1.75092e-06
1.75086e-06
1.75087e-06
1.75087e-06
1.75086e-06
1.75092e-06
1.75515e-06
1.75681e-06
1.75685e-06
1.75441e-06
1.75092e-06
1.75086e-06
1.75087e-06
1.75087e-06
1.75086e-06
1.75092e-06
1.75512e-06
1.7552e-06
1.75458e-06
1.75093e-06
1.75085e-06
1.75086e-06
1.75086e-06
1.75085e-06
1.75093e-06
1.75514e-06
1.75713e-06
1.75663e-06
1.75428e-06
1.75093e-06
1.75092e-06
1.75092e-06
1.75093e-06
1.75486e-06
1.75516e-06
1.75711e-06
1.75691e-06
1.75506e-06
1.75512e-06
1.75515e-06
1.75512e-06
1.75514e-06
1.75516e-06
1.75714e-06
1.75706e-06
1.75681e-06
1.7552e-06
1.75713e-06
1.75711e-06
1.73821e-06
1.73805e-06
1.73788e-06
1.73578e-06
1.73565e-06
1.73558e-06
1.73575e-06
1.73781e-06
1.73809e-06
1.73788e-06
1.7351e-06
1.73211e-06
1.7321e-06
1.7321e-06
1.73211e-06
1.73543e-06
1.73624e-06
1.73578e-06
1.73211e-06
1.73208e-06
1.73208e-06
1.73208e-06
1.73208e-06
1.73211e-06
1.73629e-06
1.73824e-06
1.73821e-06
1.73565e-06
1.7321e-06
1.73208e-06
1.73209e-06
1.73209e-06
1.73208e-06
1.7321e-06
1.73635e-06
1.73802e-06
1.73805e-06
1.73558e-06
1.7321e-06
1.73208e-06
1.73209e-06
1.73209e-06
1.73208e-06
1.7321e-06
1.73632e-06
1.7364e-06
1.73575e-06
1.73211e-06
1.73208e-06
1.73208e-06
1.73208e-06
1.73208e-06
1.73211e-06
1.73634e-06
1.73834e-06
1.73781e-06
1.73543e-06
1.73211e-06
1.7321e-06
1.7321e-06
1.73211e-06
1.73606e-06
1.73635e-06
1.73829e-06
1.73809e-06
1.73624e-06
1.73629e-06
1.73635e-06
1.73632e-06
1.73633e-06
1.73635e-06
1.7383e-06
1.73824e-06
1.73802e-06
1.7364e-06
1.73834e-06
1.73829e-06
1.7194e-06
1.71923e-06
1.71906e-06
1.71695e-06
1.71683e-06
1.71676e-06
1.71693e-06
1.71899e-06
1.71926e-06
1.71906e-06
1.71628e-06
1.71328e-06
1.71328e-06
1.71328e-06
1.71328e-06
1.7166e-06
1.71741e-06
1.71695e-06
1.71328e-06
1.71328e-06
1.71328e-06
1.71328e-06
1.71328e-06
1.71328e-06
1.71747e-06
1.71942e-06
1.71939e-06
1.71683e-06
1.71328e-06
1.71328e-06
1.71328e-06
1.71328e-06
1.71328e-06
1.71328e-06
1.71753e-06
1.71921e-06
1.71923e-06
1.71676e-06
1.71328e-06
1.71328e-06
1.71328e-06
1.71328e-06
1.71328e-06
1.71328e-06
1.7175e-06
1.71758e-06
1.71693e-06
1.71328e-06
1.71328e-06
1.71328e-06
1.71328e-06
1.71328e-06
1.71328e-06
1.71752e-06
1.71953e-06
1.71899e-06
1.7166e-06
1.71328e-06
1.71328e-06
1.71328e-06
1.71328e-06
1.71725e-06
1.71754e-06
1.71947e-06
1.71926e-06
1.71741e-06
1.71747e-06
1.71753e-06
1.7175e-06
1.71752e-06
1.71754e-06
1.71947e-06
1.71942e-06
1.71921e-06
1.71758e-06
1.71952e-06
1.71947e-06
1.70058e-06
1.70041e-06
1.70024e-06
1.69814e-06
1.69801e-06
1.69795e-06
1.69811e-06
1.70017e-06
1.70044e-06
1.70024e-06
1.69747e-06
1.69447e-06
1.69447e-06
1.69447e-06
1.69447e-06
1.69778e-06
1.69859e-06
1.69814e-06
1.69447e-06
1.69446e-06
1.69446e-06
1.69446e-06
1.69446e-06
1.69447e-06
1.69865e-06
1.7006e-06
1.70058e-06
1.69801e-06
1.69447e-06
1.69446e-06
1.69447e-06
1.69447e-06
1.69446e-06
1.69447e-06
1.69871e-06
1.70039e-06
1.70041e-06
1.69795e-06
1.69447e-06
1.69446e-06
1.69447e-06
1.69447e-06
1.69446e-06
1.69447e-06
1.69869e-06
1.69877e-06
1.69811e-06
1.69447e-06
1.69446e-06
1.69446e-06
1.69446e-06
1.69446e-06
1.69447e-06
1.6987e-06
1.70071e-06
1.70017e-06
1.69778e-06
1.69447e-06
1.69447e-06
1.69447e-06
1.69447e-06
1.69843e-06
1.69873e-06
1.70065e-06
1.70044e-06
1.69859e-06
1.69865e-06
1.69871e-06
1.69869e-06
1.6987e-06
1.69873e-06
1.70065e-06
1.7006e-06
1.70039e-06
1.69877e-06
1.70071e-06
1.70065e-06
1.68176e-06
1.6816e-06
1.68143e-06
1.67932e-06
1.6792e-06
1.67913e-06
1.6793e-06
1.68136e-06
1.68163e-06
1.68143e-06
1.67865e-06
1.67565e-06
1.67565e-06
1.67565e-06
1.67565e-06
1.67896e-06
1.67978e-06
1.67932e-06
1.67565e-06
1.67565e-06
1.67565e-06
1.67565e-06
1.67565e-06
1.67565e-06
1.67983e-06
1.68178e-06
1.68176e-06
1.6792e-06
1.67565e-06
1.67565e-06
1.67565e-06
1.67565e-06
1.67565e-06
1.67565e-06
1.6799e-06
1.68157e-06
1.6816e-06
1.67913e-06
1.67565e-06
1.67565e-06
1.67565e-06
1.67565e-06
1.67565e-06
1.67565e-06
1.67987e-06
1.67995e-06
1.6793e-06
1.67565e-06
1.67565e-06
1.67565e-06
1.67565e-06
1.67565e-06
1.67565e-06
1.67989e-06
1.68189e-06
1.68136e-06
1.67896e-06
1.67565e-06
1.67565e-06
1.67565e-06
1.67565e-06
1.67961e-06
1.67991e-06
1.68183e-06
1.68163e-06
1.67978e-06
1.67983e-06
1.6799e-06
1.67987e-06
1.67989e-06
1.67991e-06
1.68183e-06
1.68179e-06
1.68157e-06
1.67995e-06
1.68189e-06
1.68183e-06
1.66294e-06
1.66278e-06
1.66261e-06
1.6605e-06
1.66038e-06
1.66031e-06
1.66048e-06
1.66254e-06
1.66281e-06
1.66261e-06
1.65983e-06
1.65683e-06
1.65683e-06
1.65683e-06
1.65683e-06
1.66015e-06
1.66096e-06
1.6605e-06
1.65683e-06
1.65683e-06
1.65683e-06
1.65683e-06
1.65683e-06
1.65683e-06
1.66101e-06
1.66297e-06
1.66294e-06
1.66038e-06
1.65683e-06
1.65683e-06
1.65683e-06
1.65683e-06
1.65683e-06
1.65683e-06
1.66108e-06
1.66276e-06
1.66278e-06
1.66031e-06
1.65683e-06
1.65683e-06
1.65683e-06
1.65683e-06
1.65683e-06
1.65683e-06
1.66105e-06
1.66113e-06
1.66048e-06
1.65683e-06
1.65683e-06
1.65683e-06
1.65683e-06
1.65683e-06
1.65683e-06
1.66107e-06
1.66308e-06
1.66254e-06
1.66015e-06
1.65683e-06
1.65683e-06
1.65683e-06
1.65683e-06
1.6608e-06
1.66109e-06
1.66301e-06
1.66281e-06
1.66096e-06
1.66101e-06
1.66108e-06
1.66105e-06
1.66107e-06
1.66109e-06
1.66302e-06
1.66297e-06
1.66276e-06
1.66113e-06
1.66308e-06
1.66301e-06
1.64413e-06
1.64396e-06
1.64379e-06
1.64168e-06
1.64156e-06
1.6415e-06
1.64166e-06
1.64372e-06
1.64399e-06
1.64379e-06
1.64102e-06
1.63801e-06
1.63801e-06
1.63801e-06
1.63801e-06
1.64133e-06
1.64214e-06
1.64168e-06
1.63801e-06
1.63801e-06
1.63801e-06
1.63801e-06
1.63801e-06
1.63801e-06
1.64219e-06
1.64415e-06
1.64413e-06
1.64156e-06
1.63801e-06
1.63801e-06
1.63801e-06
1.63801e-06
1.63801e-06
1.63801e-06
1.64226e-06
1.64394e-06
1.64396e-06
1.6415e-06
1.63801e-06
1.63801e-06
1.63801e-06
1.63801e-06
1.63801e-06
1.63801e-06
1.64224e-06
1.64232e-06
1.64166e-06
1.63801e-06
1.63801e-06
1.63801e-06
1.63801e-06
1.63801e-06
1.63801e-06
1.64225e-06
1.64426e-06
1.64372e-06
1.64133e-06
1.63801e-06
1.63801e-06
1.63801e-06
1.63801e-06
1.64198e-06
1.64228e-06
1.6442e-06
1.64399e-06
1.64214e-06
1.64219e-06
1.64226e-06
1.64223e-06
1.64225e-06
1.64227e-06
1.6442e-06
1.64415e-06
1.64394e-06
1.64232e-06
1.64426e-06
1.6442e-06
1.62531e-06
1.62514e-06
1.62497e-06
1.62287e-06
1.62274e-06
1.62268e-06
1.62284e-06
1.62491e-06
1.62518e-06
1.62497e-06
1.6222e-06
1.6192e-06
1.6192e-06
1.6192e-06
1.6192e-06
1.62251e-06
1.62332e-06
1.62287e-06
1.6192e-06
1.6192e-06
1.6192e-06
1.6192e-06
1.6192e-06
1.6192e-06
1.62338e-06
1.62533e-06
1.62531e-06
1.62274e-06
1.6192e-06
1.6192e-06
1.6192e-06
1.6192e-06
1.6192e-06
1.6192e-06
1.62345e-06
1.62512e-06
1.62514e-06
1.62268e-06
1.6192e-06
1.6192e-06
1.6192e-06
1.6192e-06
1.6192e-06
1.6192e-06
1.62342e-06
1.6235e-06
1.62284e-06
1.6192e-06
1.6192e-06
1.6192e-06
1.6192e-06
1.6192e-06
1.6192e-06
1.62344e-06
1.62544e-06
1.62491e-06
1.62251e-06
1.6192e-06
1.6192e-06
1.6192e-06
1.6192e-06
1.62316e-06
1.62346e-06
1.62538e-06
1.62518e-06
1.62332e-06
1.62338e-06
1.62345e-06
1.62342e-06
1.62344e-06
1.62346e-06
1.62538e-06
1.62533e-06
1.62512e-06
1.6235e-06
1.62544e-06
1.62538e-06
1.60649e-06
1.60633e-06
1.60616e-06
1.60405e-06
1.60393e-06
1.60386e-06
1.60403e-06
1.60609e-06
1.60636e-06
1.60616e-06
1.60338e-06
1.60038e-06
1.60038e-06
1.60038e-06
1.60038e-06
1.60369e-06
1.60451e-06
1.60405e-06
1.60038e-06
1.60038e-06
1.60038e-06
1.60038e-06
1.60038e-06
1.60038e-06
1.60456e-06
1.60652e-06
1.60649e-06
1.60393e-06
1.60038e-06
1.60038e-06
1.60038e-06
1.60038e-06
1.60038e-06
1.60038e-06
1.60463e-06
1.6063e-06
1.60633e-06
1.60386e-06
1.60038e-06
1.60038e-06
1.60038e-06
1.60038e-06
1.60038e-06
1.60038e-06
1.6046e-06
1.60468e-06
1.60403e-06
1.60038e-06
1.60038e-06
1.60038e-06
1.60038e-06
1.60038e-06
1.60038e-06
1.60462e-06
1.60663e-06
1.60609e-06
1.60369e-06
1.60038e-06
1.60038e-06
1.60038e-06
1.60038e-06
1.60435e-06
1.60464e-06
1.60656e-06
1.60636e-06
1.60451e-06
1.60456e-06
1.60463e-06
1.6046e-06
1.60462e-06
1.60464e-06
1.60656e-06
1.60652e-06
1.60631e-06
1.60468e-06
1.60662e-06
1.60656e-06
1.58768e-06
1.58751e-06
1.58734e-06
1.58524e-06
1.58511e-06
1.58505e-06
1.58521e-06
1.58727e-06
1.58754e-06
1.58734e-06
1.58457e-06
1.58157e-06
1.58157e-06
1.58157e-06
1.58157e-06
1.58488e-06
1.58569e-06
1.58524e-06
1.58157e-06
1.58157e-06
1.58157e-06
1.58157e-06
1.58157e-06
1.58157e-06
1.58575e-06
1.5877e-06
1.58768e-06
1.58511e-06
1.58157e-06
1.58157e-06
1.58157e-06
1.58157e-06
1.58157e-06
1.58157e-06
1.58581e-06
1.58749e-06
1.58751e-06
1.58505e-06
1.58157e-06
1.58157e-06
1.58157e-06
1.58157e-06
1.58157e-06
1.58157e-06
1.58579e-06
1.58587e-06
1.58521e-06
1.58157e-06
1.58157e-06
1.58157e-06
1.58157e-06
1.58157e-06
1.58157e-06
1.5858e-06
1.58781e-06
1.58727e-06
1.58488e-06
1.58157e-06
1.58157e-06
1.58157e-06
1.58157e-06
1.58553e-06
1.58583e-06
1.58775e-06
1.58754e-06
1.58569e-06
1.58575e-06
1.58581e-06
1.58579e-06
1.5858e-06
1.58583e-06
1.58775e-06
1.5877e-06
1.58749e-06
1.58587e-06
1.58781e-06
1.58775e-06
1.56886e-06
1.5687e-06
1.56853e-06
1.56642e-06
1.5663e-06
1.56623e-06
1.5664e-06
1.56846e-06
1.56873e-06
1.56853e-06
1.56575e-06
1.56275e-06
1.56275e-06
1.56275e-06
1.56275e-06
1.56606e-06
1.56688e-06
1.56642e-06
1.56275e-06
1.56275e-06
1.56275e-06
1.56275e-06
1.56275e-06
1.56275e-06
1.56693e-06
1.56888e-06
1.56886e-06
1.5663e-06
1.56275e-06
1.56275e-06
1.56275e-06
1.56275e-06
1.56275e-06
1.56275e-06
1.567e-06
1.56867e-06
1.5687e-06
1.56623e-06
1.56275e-06
1.56275e-06
1.56275e-06
1.56275e-06
1.56275e-06
1.56275e-06
1.56697e-06
1.56705e-06
1.5664e-06
1.56275e-06
1.56275e-06
1.56275e-06
1.56275e-06
1.56275e-06
1.56275e-06
1.56699e-06
1.56899e-06
1.56846e-06
1.56606e-06
1.56275e-06
1.56275e-06
1.56275e-06
1.56275e-06
1.56672e-06
1.56701e-06
1.56893e-06
1.56873e-06
1.56688e-06
1.56693e-06
1.567e-06
1.56697e-06
1.56699e-06
1.56701e-06
1.56893e-06
1.56889e-06
1.56867e-06
1.56705e-06
1.56899e-06
1.56893e-06
1.55005e-06
1.54988e-06
1.54971e-06
1.5476e-06
1.54748e-06
1.54741e-06
1.54758e-06
1.54964e-06
1.54991e-06
1.54971e-06
1.54694e-06
1.54393e-06
1.54393e-06
1.54393e-06
1.54393e-06
1.54725e-06
1.54806e-06
1.5476e-06
1.54393e-06
1.54393e-06
1.54393e-06
1.54393e-06
1.54393e-06
1.54393e-06
1.54811e-06
1.55007e-06
1.55005e-06
1.54748e-06
1.54393e-06
1.54393e-06
1.54393e-06
1.54393e-06
1.54393e-06
1.54393e-06
1.54818e-06
1.54986e-06
1.54988e-06
1.54741e-06
1.54393e-06
1.54393e-06
1.54393e-06
1.54393e-06
1.54393e-06
1.54393e-06
1.54815e-06
1.54824e-06
1.54758e-06
1.54393e-06
1.54393e-06
1.54393e-06
1.54393e-06
1.54393e-06
1.54393e-06
1.54817e-06
1.55018e-06
1.54964e-06
1.54725e-06
1.54393e-06
1.54393e-06
1.54393e-06
1.54393e-06
1.5479e-06
1.54819e-06
1.55012e-06
1.54991e-06
1.54806e-06
1.54811e-06
1.54818e-06
1.54815e-06
1.54817e-06
1.54819e-06
1.55012e-06
1.55007e-06
1.54986e-06
1.54824e-06
1.55018e-06
1.55011e-06
1.53123e-06
1.53106e-06
1.53089e-06
1.52879e-06
1.52866e-06
1.5286e-06
1.52877e-06
1.53083e-06
1.5311e-06
1.53089e-06
1.52812e-06
1.52512e-06
1.52512e-06
1.52512e-06
1.52512e-06
1.52843e-06
1.52924e-06
1.52879e-06
1.52512e-06
1.52512e-06
1.52512e-06
1.52512e-06
1.52512e-06
1.52512e-06
1.5293e-06
1.53125e-06
1.53123e-06
1.52866e-06
1.52512e-06
1.52512e-06
1.52512e-06
1.52512e-06
1.52512e-06
1.52512e-06
1.52937e-06
1.53104e-06
1.53106e-06
1.5286e-06
1.52512e-06
1.52512e-06
1.52512e-06
1.52512e-06
1.52512e-06
1.52512e-06
1.52934e-06
1.52942e-06
1.52877e-06
1.52512e-06
1.52512e-06
1.52512e-06
1.52512e-06
1.52512e-06
1.52512e-06
1.52936e-06
1.53136e-06
1.53083e-06
1.52843e-06
1.52512e-06
1.52512e-06
1.52512e-06
1.52512e-06
1.52908e-06
1.52938e-06
1.5313e-06
1.5311e-06
1.52924e-06
1.5293e-06
1.52937e-06
1.52934e-06
1.52936e-06
1.52938e-06
1.5313e-06
1.53125e-06
1.53104e-06
1.52942e-06
1.53136e-06
1.5313e-06
1.51241e-06
1.51225e-06
1.51208e-06
1.50997e-06
1.50985e-06
1.50978e-06
1.50995e-06
1.51201e-06
1.51228e-06
1.51208e-06
1.5093e-06
1.5063e-06
1.5063e-06
1.5063e-06
1.5063e-06
1.50962e-06
1.51043e-06
1.50997e-06
1.5063e-06
1.5063e-06
1.5063e-06
1.5063e-06
1.5063e-06
1.5063e-06
1.51048e-06
1.51244e-06
1.51241e-06
1.50985e-06
1.5063e-06
1.5063e-06
1.5063e-06
1.5063e-06
1.5063e-06
1.5063e-06
1.51055e-06
1.51223e-06
1.51225e-06
1.50978e-06
1.5063e-06
1.5063e-06
1.5063e-06
1.5063e-06
1.5063e-06
1.5063e-06
1.51052e-06
1.5106e-06
1.50995e-06
1.5063e-06
1.5063e-06
1.5063e-06
1.5063e-06
1.5063e-06
1.5063e-06
1.51054e-06
1.51255e-06
1.51201e-06
1.50962e-06
1.5063e-06
1.5063e-06
1.5063e-06
1.5063e-06
1.51027e-06
1.51056e-06
1.51248e-06
1.51228e-06
1.51043e-06
1.51048e-06
1.51055e-06
1.51052e-06
1.51054e-06
1.51056e-06
1.51249e-06
1.51244e-06
1.51223e-06
1.5106e-06
1.51255e-06
1.51248e-06
1.4936e-06
1.49343e-06
1.49326e-06
1.49116e-06
1.49103e-06
1.49097e-06
1.49113e-06
1.49319e-06
1.49346e-06
1.49326e-06
1.49049e-06
1.48749e-06
1.48749e-06
1.48749e-06
1.48749e-06
1.4908e-06
1.49161e-06
1.49116e-06
1.48749e-06
1.48749e-06
1.48749e-06
1.48749e-06
1.48749e-06
1.48749e-06
1.49167e-06
1.49362e-06
1.4936e-06
1.49103e-06
1.48749e-06
1.48749e-06
1.48749e-06
1.48749e-06
1.48749e-06
1.48749e-06
1.49174e-06
1.49341e-06
1.49343e-06
1.49097e-06
1.48749e-06
1.48749e-06
1.48749e-06
1.48749e-06
1.48749e-06
1.48749e-06
1.49171e-06
1.49179e-06
1.49113e-06
1.48749e-06
1.48749e-06
1.48749e-06
1.48749e-06
1.48749e-06
1.48749e-06
1.49173e-06
1.49373e-06
1.4932e-06
1.4908e-06
1.48749e-06
1.48749e-06
1.48749e-06
1.48749e-06
1.49145e-06
1.49175e-06
1.49367e-06
1.49346e-06
1.49161e-06
1.49167e-06
1.49173e-06
1.49171e-06
1.49172e-06
1.49175e-06
1.49367e-06
1.49362e-06
1.49341e-06
1.49179e-06
1.49373e-06
1.49367e-06
1.47478e-06
1.47462e-06
1.47445e-06
1.47234e-06
1.47222e-06
1.47215e-06
1.47232e-06
1.47438e-06
1.47465e-06
1.47445e-06
1.47167e-06
1.46867e-06
1.46867e-06
1.46867e-06
1.46867e-06
1.47198e-06
1.4728e-06
1.47234e-06
1.46867e-06
1.46867e-06
1.46867e-06
1.46867e-06
1.46867e-06
1.46867e-06
1.47285e-06
1.47481e-06
1.47478e-06
1.47222e-06
1.46867e-06
1.46867e-06
1.46867e-06
1.46867e-06
1.46867e-06
1.46867e-06
1.47292e-06
1.4746e-06
1.47462e-06
1.47215e-06
1.46867e-06
1.46867e-06
1.46867e-06
1.46867e-06
1.46867e-06
1.46867e-06
1.47289e-06
1.47297e-06
1.47232e-06
1.46867e-06
1.46867e-06
1.46867e-06
1.46867e-06
1.46867e-06
1.46867e-06
1.47291e-06
1.47492e-06
1.47438e-06
1.47198e-06
1.46867e-06
1.46867e-06
1.46867e-06
1.46867e-06
1.47264e-06
1.47293e-06
1.47485e-06
1.47465e-06
1.4728e-06
1.47285e-06
1.47292e-06
1.47289e-06
1.47291e-06
1.47293e-06
1.47485e-06
1.47481e-06
1.4746e-06
1.47297e-06
1.47491e-06
1.47485e-06
1.45597e-06
1.4558e-06
1.45563e-06
1.45353e-06
1.4534e-06
1.45334e-06
1.4535e-06
1.45556e-06
1.45583e-06
1.45563e-06
1.45286e-06
1.44986e-06
1.44986e-06
1.44986e-06
1.44986e-06
1.45317e-06
1.45398e-06
1.45353e-06
1.44986e-06
1.44986e-06
1.44986e-06
1.44986e-06
1.44986e-06
1.44986e-06
1.45404e-06
1.45599e-06
1.45597e-06
1.4534e-06
1.44986e-06
1.44986e-06
1.44986e-06
1.44986e-06
1.44986e-06
1.44986e-06
1.4541e-06
1.45578e-06
1.4558e-06
1.45334e-06
1.44986e-06
1.44986e-06
1.44986e-06
1.44986e-06
1.44986e-06
1.44986e-06
1.45408e-06
1.45416e-06
1.4535e-06
1.44986e-06
1.44986e-06
1.44986e-06
1.44986e-06
1.44986e-06
1.44986e-06
1.45409e-06
1.4561e-06
1.45556e-06
1.45317e-06
1.44986e-06
1.44986e-06
1.44986e-06
1.44986e-06
1.45382e-06
1.45412e-06
1.45604e-06
1.45583e-06
1.45398e-06
1.45404e-06
1.4541e-06
1.45408e-06
1.45409e-06
1.45412e-06
1.45604e-06
1.45599e-06
1.45578e-06
1.45416e-06
1.4561e-06
1.45604e-06
1.43715e-06
1.43699e-06
1.43682e-06
1.43471e-06
1.43459e-06
1.43452e-06
1.43469e-06
1.43675e-06
1.43702e-06
1.43682e-06
1.43404e-06
1.43104e-06
1.43104e-06
1.43104e-06
1.43104e-06
1.43435e-06
1.43517e-06
1.43471e-06
1.43104e-06
1.43104e-06
1.43104e-06
1.43104e-06
1.43104e-06
1.43104e-06
1.43522e-06
1.43718e-06
1.43715e-06
1.43459e-06
1.43104e-06
1.43104e-06
1.43104e-06
1.43104e-06
1.43104e-06
1.43104e-06
1.43529e-06
1.43696e-06
1.43699e-06
1.43452e-06
1.43104e-06
1.43104e-06
1.43104e-06
1.43104e-06
1.43104e-06
1.43104e-06
1.43526e-06
1.43534e-06
1.43469e-06
1.43104e-06
1.43104e-06
1.43104e-06
1.43104e-06
1.43104e-06
1.43104e-06
1.43528e-06
1.43728e-06
1.43675e-06
1.43435e-06
1.43104e-06
1.43104e-06
1.43104e-06
1.43104e-06
1.43501e-06
1.4353e-06
1.43722e-06
1.43702e-06
1.43517e-06
1.43522e-06
1.43529e-06
1.43526e-06
1.43528e-06
1.4353e-06
1.43722e-06
1.43718e-06
1.43696e-06
1.43534e-06
1.43728e-06
1.43722e-06
1.41834e-06
1.41817e-06
1.418e-06
1.41589e-06
1.41577e-06
1.41571e-06
1.41587e-06
1.41793e-06
1.4182e-06
1.418e-06
1.41523e-06
1.41222e-06
1.41222e-06
1.41222e-06
1.41222e-06
1.41554e-06
1.41635e-06
1.41589e-06
1.41222e-06
1.41222e-06
1.41222e-06
1.41222e-06
1.41222e-06
1.41222e-06
1.41641e-06
1.41836e-06
1.41834e-06
1.41577e-06
1.41222e-06
1.41222e-06
1.41222e-06
1.41222e-06
1.41222e-06
1.41222e-06
1.41647e-06
1.41815e-06
1.41817e-06
1.41571e-06
1.41222e-06
1.41222e-06
1.41222e-06
1.41222e-06
1.41222e-06
1.41222e-06
1.41645e-06
1.41653e-06
1.41587e-06
1.41222e-06
1.41222e-06
1.41222e-06
1.41222e-06
1.41222e-06
1.41222e-06
1.41646e-06
1.41847e-06
1.41793e-06
1.41554e-06
1.41222e-06
1.41222e-06
1.41222e-06
1.41222e-06
1.41619e-06
1.41649e-06
1.41841e-06
1.4182e-06
1.41635e-06
1.4164e-06
1.41647e-06
1.41645e-06
1.41646e-06
1.41648e-06
1.41841e-06
1.41836e-06
1.41815e-06
1.41653e-06
1.41847e-06
1.41841e-06
1.39952e-06
1.39935e-06
1.39918e-06
1.39708e-06
1.39695e-06
1.39689e-06
1.39706e-06
1.39912e-06
1.39939e-06
1.39918e-06
1.39641e-06
1.39341e-06
1.39341e-06
1.39341e-06
1.39341e-06
1.39672e-06
1.39754e-06
1.39708e-06
1.39341e-06
1.39341e-06
1.39341e-06
1.39341e-06
1.39341e-06
1.39341e-06
1.39759e-06
1.39954e-06
1.39952e-06
1.39695e-06
1.39341e-06
1.39341e-06
1.39341e-06
1.39341e-06
1.39341e-06
1.39341e-06
1.39766e-06
1.39933e-06
1.39935e-06
1.39689e-06
1.39341e-06
1.39341e-06
1.39341e-06
1.39341e-06
1.39341e-06
1.39341e-06
1.39763e-06
1.39771e-06
1.39706e-06
1.39341e-06
1.39341e-06
1.39341e-06
1.39341e-06
1.39341e-06
1.39341e-06
1.39765e-06
1.39965e-06
1.39912e-06
1.39672e-06
1.39341e-06
1.39341e-06
1.39341e-06
1.39341e-06
1.39738e-06
1.39767e-06
1.39959e-06
1.39939e-06
1.39754e-06
1.39759e-06
1.39766e-06
1.39763e-06
1.39765e-06
1.39767e-06
1.39959e-06
1.39954e-06
1.39933e-06
1.39771e-06
1.39965e-06
1.39959e-06
1.3807e-06
1.38054e-06
1.38037e-06
1.37826e-06
1.37814e-06
1.37807e-06
1.37824e-06
1.3803e-06
1.38057e-06
1.38037e-06
1.37759e-06
1.37459e-06
1.37459e-06
1.37459e-06
1.37459e-06
1.37791e-06
1.37872e-06
1.37826e-06
1.37459e-06
1.37459e-06
1.37459e-06
1.37459e-06
1.37459e-06
1.37459e-06
1.37877e-06
1.38073e-06
1.3807e-06
1.37814e-06
1.37459e-06
1.37459e-06
1.37459e-06
1.37459e-06
1.37459e-06
1.37459e-06
1.37884e-06
1.38052e-06
1.38054e-06
1.37807e-06
1.37459e-06
1.37459e-06
1.37459e-06
1.37459e-06
1.37459e-06
1.37459e-06
1.37881e-06
1.37889e-06
1.37824e-06
1.37459e-06
1.37459e-06
1.37459e-06
1.37459e-06
1.37459e-06
1.37459e-06
1.37883e-06
1.38084e-06
1.3803e-06
1.37791e-06
1.37459e-06
1.37459e-06
1.37459e-06
1.37459e-06
1.37856e-06
1.37885e-06
1.38077e-06
1.38057e-06
1.37872e-06
1.37877e-06
1.37884e-06
1.37881e-06
1.37883e-06
1.37885e-06
1.38078e-06
1.38073e-06
1.38052e-06
1.37889e-06
1.38084e-06
1.38077e-06
1.36189e-06
1.36172e-06
1.36155e-06
1.35945e-06
1.35932e-06
1.35926e-06
1.35942e-06
1.36149e-06
1.36175e-06
1.36155e-06
1.35878e-06
1.35578e-06
1.35578e-06
1.35578e-06
1.35578e-06
1.35909e-06
1.3599e-06
1.35945e-06
1.35578e-06
1.35578e-06
1.35578e-06
1.35578e-06
1.35578e-06
1.35578e-06
1.35996e-06
1.36191e-06
1.36189e-06
1.35932e-06
1.35578e-06
1.35578e-06
1.35578e-06
1.35578e-06
1.35578e-06
1.35578e-06
1.36003e-06
1.3617e-06
1.36172e-06
1.35926e-06
1.35578e-06
1.35578e-06
1.35578e-06
1.35578e-06
1.35578e-06
1.35578e-06
1.36e-06
1.36008e-06
1.35942e-06
1.35578e-06
1.35578e-06
1.35578e-06
1.35578e-06
1.35578e-06
1.35578e-06
1.36001e-06
1.36202e-06
1.36148e-06
1.35909e-06
1.35578e-06
1.35578e-06
1.35578e-06
1.35578e-06
1.35974e-06
1.36004e-06
1.36196e-06
1.36175e-06
1.3599e-06
1.35996e-06
1.36002e-06
1.36e-06
1.36001e-06
1.36004e-06
1.36196e-06
1.36191e-06
1.3617e-06
1.36008e-06
1.36202e-06
1.36196e-06
1.34307e-06
1.34291e-06
1.34274e-06
1.34063e-06
1.34051e-06
1.34044e-06
1.34061e-06
1.34267e-06
1.34294e-06
1.34274e-06
1.33996e-06
1.33696e-06
1.33696e-06
1.33696e-06
1.33696e-06
1.34027e-06
1.34109e-06
1.34063e-06
1.33696e-06
1.33696e-06
1.33696e-06
1.33696e-06
1.33696e-06
1.33696e-06
1.34114e-06
1.34309e-06
1.34307e-06
1.34051e-06
1.33696e-06
1.33696e-06
1.33696e-06
1.33696e-06
1.33696e-06
1.33696e-06
1.34121e-06
1.34288e-06
1.34291e-06
1.34044e-06
1.33696e-06
1.33696e-06
1.33696e-06
1.33696e-06
1.33696e-06
1.33696e-06
1.34118e-06
1.34126e-06
1.34061e-06
1.33696e-06
1.33696e-06
1.33696e-06
1.33696e-06
1.33696e-06
1.33696e-06
1.3412e-06
1.3432e-06
1.34267e-06
1.34027e-06
1.33696e-06
1.33696e-06
1.33696e-06
1.33696e-06
1.34093e-06
1.34122e-06
1.34314e-06
1.34294e-06
1.34109e-06
1.34114e-06
1.34121e-06
1.34118e-06
1.3412e-06
1.34122e-06
1.34314e-06
1.3431e-06
1.34288e-06
1.34126e-06
1.3432e-06
1.34314e-06
1.32426e-06
1.32409e-06
1.32392e-06
1.32181e-06
1.32169e-06
1.32162e-06
1.32179e-06
1.32385e-06
1.32412e-06
1.32392e-06
1.32115e-06
1.31814e-06
1.31814e-06
1.31814e-06
1.31814e-06
1.32146e-06
1.32227e-06
1.32181e-06
1.31814e-06
1.31814e-06
1.31814e-06
1.31814e-06
1.31814e-06
1.31814e-06
1.32232e-06
1.32428e-06
1.32426e-06
1.32169e-06
1.31814e-06
1.31814e-06
1.31814e-06
1.31814e-06
1.31814e-06
1.31814e-06
1.32239e-06
1.32407e-06
1.32409e-06
1.32162e-06
1.31814e-06
1.31814e-06
1.31814e-06
1.31814e-06
1.31814e-06
1.31814e-06
1.32236e-06
1.32245e-06
1.32179e-06
1.31814e-06
1.31814e-06
1.31814e-06
1.31814e-06
1.31814e-06
1.31814e-06
1.32238e-06
1.32439e-06
1.32385e-06
1.32146e-06
1.31814e-06
1.31814e-06
1.31814e-06
1.31814e-06
1.32211e-06
1.3224e-06
1.32432e-06
1.32412e-06
1.32227e-06
1.32232e-06
1.32239e-06
1.32236e-06
1.32238e-06
1.3224e-06
1.32433e-06
1.32428e-06
1.32407e-06
1.32245e-06
1.32439e-06
1.32432e-06
1.30544e-06
1.30527e-06
1.3051e-06
1.303e-06
1.30287e-06
1.30281e-06
1.30297e-06
1.30504e-06
1.3053e-06
1.3051e-06
1.30233e-06
1.29933e-06
1.29933e-06
1.29933e-06
1.29933e-06
1.30264e-06
1.30345e-06
1.303e-06
1.29933e-06
1.29933e-06
1.29933e-06
1.29933e-06
1.29933e-06
1.29933e-06
1.30351e-06
1.30546e-06
1.30544e-06
1.30287e-06
1.29933e-06
1.29933e-06
1.29933e-06
1.29933e-06
1.29933e-06
1.29933e-06
1.30358e-06
1.30525e-06
1.30527e-06
1.30281e-06
1.29933e-06
1.29933e-06
1.29933e-06
1.29933e-06
1.29933e-06
1.29933e-06
1.30355e-06
1.30363e-06
1.30297e-06
1.29933e-06
1.29933e-06
1.29933e-06
1.29933e-06
1.29933e-06
1.29933e-06
1.30356e-06
1.30557e-06
1.30504e-06
1.30264e-06
1.29933e-06
1.29933e-06
1.29933e-06
1.29933e-06
1.30329e-06
1.30359e-06
1.30551e-06
1.3053e-06
1.30345e-06
1.30351e-06
1.30357e-06
1.30355e-06
1.30356e-06
1.30359e-06
1.30551e-06
1.30546e-06
1.30525e-06
1.30363e-06
1.30557e-06
1.30551e-06
1.28662e-06
1.28646e-06
1.28629e-06
1.28418e-06
1.28406e-06
1.28399e-06
1.28416e-06
1.28622e-06
1.28649e-06
1.28629e-06
1.28351e-06
1.28051e-06
1.28051e-06
1.28051e-06
1.28051e-06
1.28382e-06
1.28464e-06
1.28418e-06
1.28051e-06
1.28051e-06
1.28051e-06
1.28051e-06
1.28051e-06
1.28051e-06
1.28469e-06
1.28664e-06
1.28662e-06
1.28406e-06
1.28051e-06
1.28051e-06
1.28051e-06
1.28051e-06
1.28051e-06
1.28051e-06
1.28476e-06
1.28643e-06
1.28646e-06
1.28399e-06
1.28051e-06
1.28051e-06
1.28051e-06
1.28051e-06
1.28051e-06
1.28051e-06
1.28473e-06
1.28481e-06
1.28416e-06
1.28051e-06
1.28051e-06
1.28051e-06
1.28051e-06
1.28051e-06
1.28051e-06
1.28475e-06
1.28675e-06
1.28622e-06
1.28382e-06
1.28051e-06
1.28051e-06
1.28051e-06
1.28051e-06
1.28448e-06
1.28477e-06
1.28669e-06
1.28649e-06
1.28464e-06
1.28469e-06
1.28476e-06
1.28473e-06
1.28475e-06
1.28477e-06
1.28669e-06
1.28665e-06
1.28643e-06
1.28481e-06
1.28675e-06
1.28669e-06
1.26781e-06
1.26764e-06
1.26747e-06
1.26536e-06
1.26524e-06
1.26517e-06
1.26534e-06
1.2674e-06
1.26767e-06
1.26747e-06
1.26469e-06
1.26169e-06
1.26169e-06
1.26169e-06
1.26169e-06
1.26501e-06
1.26582e-06
1.26536e-06
1.26169e-06
1.26169e-06
1.26169e-06
1.26169e-06
1.26169e-06
1.26169e-06
1.26587e-06
1.26783e-06
1.2678e-06
1.26524e-06
1.26169e-06
1.26169e-06
1.26169e-06
1.26169e-06
1.26169e-06
1.26169e-06
1.26594e-06
1.26762e-06
1.26764e-06
1.26517e-06
1.26169e-06
1.26169e-06
1.26169e-06
1.26169e-06
1.26169e-06
1.26169e-06
1.26591e-06
1.266e-06
1.26534e-06
1.26169e-06
1.26169e-06
1.26169e-06
1.26169e-06
1.26169e-06
1.26169e-06
1.26593e-06
1.26794e-06
1.2674e-06
1.26501e-06
1.26169e-06
1.26169e-06
1.26169e-06
1.26169e-06
1.26566e-06
1.26595e-06
1.26787e-06
1.26767e-06
1.26582e-06
1.26587e-06
1.26594e-06
1.26591e-06
1.26593e-06
1.26595e-06
1.26788e-06
1.26783e-06
1.26762e-06
1.266e-06
1.26794e-06
1.26787e-06
1.24899e-06
1.24882e-06
1.24865e-06
1.24654e-06
1.24642e-06
1.24636e-06
1.24652e-06
1.24858e-06
1.24885e-06
1.24865e-06
1.24588e-06
1.24288e-06
1.24288e-06
1.24288e-06
1.24288e-06
1.24619e-06
1.247e-06
1.24655e-06
1.24288e-06
1.24288e-06
1.24288e-06
1.24288e-06
1.24288e-06
1.24288e-06
1.24706e-06
1.24901e-06
1.24899e-06
1.24642e-06
1.24288e-06
1.24288e-06
1.24288e-06
1.24288e-06
1.24288e-06
1.24288e-06
1.24712e-06
1.2488e-06
1.24882e-06
1.24636e-06
1.24288e-06
1.24288e-06
1.24288e-06
1.24288e-06
1.24288e-06
1.24288e-06
1.2471e-06
1.24718e-06
1.24652e-06
1.24288e-06
1.24288e-06
1.24288e-06
1.24288e-06
1.24288e-06
1.24288e-06
1.24711e-06
1.24912e-06
1.24858e-06
1.24619e-06
1.24288e-06
1.24288e-06
1.24288e-06
1.24288e-06
1.24684e-06
1.24714e-06
1.24906e-06
1.24885e-06
1.247e-06
1.24706e-06
1.24712e-06
1.2471e-06
1.24711e-06
1.24713e-06
1.24906e-06
1.24901e-06
1.2488e-06
1.24718e-06
1.24912e-06
1.24906e-06
1.23017e-06
1.23e-06
1.22983e-06
1.22773e-06
1.2276e-06
1.22754e-06
1.22771e-06
1.22977e-06
1.23004e-06
1.22983e-06
1.22706e-06
1.22406e-06
1.22406e-06
1.22406e-06
1.22406e-06
1.22737e-06
1.22819e-06
1.22773e-06
1.22406e-06
1.22406e-06
1.22406e-06
1.22406e-06
1.22406e-06
1.22406e-06
1.22824e-06
1.23019e-06
1.23017e-06
1.2276e-06
1.22406e-06
1.22406e-06
1.22406e-06
1.22406e-06
1.22406e-06
1.22406e-06
1.22831e-06
1.22998e-06
1.23e-06
1.22754e-06
1.22406e-06
1.22406e-06
1.22406e-06
1.22406e-06
1.22406e-06
1.22406e-06
1.22828e-06
1.22836e-06
1.22771e-06
1.22406e-06
1.22406e-06
1.22406e-06
1.22406e-06
1.22406e-06
1.22406e-06
1.2283e-06
1.2303e-06
1.22977e-06
1.22737e-06
1.22406e-06
1.22406e-06
1.22406e-06
1.22406e-06
1.22802e-06
1.22832e-06
1.23024e-06