/*--------------------------------*- C++ -*----------------------------------*\
| =========                 |                                                 |
| \\      /  F ield         | OpenFOAM: The Open Source CFD Toolbox           |
|  \\    /   O peration     | Version:  v2012                                 |
|   \\  /    A nd           | Website:  www.openfoam.com                      |
|    \\/     M anipulation  |                                                 |
\*---------------------------------------------------------------------------*/
FoamFile
{
    version     2.0;
    format      ascii;
    class       volScalarField;
    location    "0.32";
    object      p;
}
// * * * * * * * * * * * * * * * * * * * * * * * * * * * * * * * * * * * * * //

dimensions      [0 2 -2 0 0 0 0];


internalField   nonuniform List<scalar> 
247104
(
1.85627e-06
1.8562e-06
1.85634e-06
1.8563e-06
1.85621e-06
1.85632e-06
1.85632e-06
1.85612e-06
1.85619e-06
1.85625e-06
1.85631e-06
1.85616e-06
1.85606e-06
1.85618e-06
1.85632e-06
1.85623e-06
1.85634e-06
1.85631e-06
1.85601e-06
1.85564e-06
1.85549e-06
1.85568e-06
1.85605e-06
1.85633e-06
1.85634e-06
1.8563e-06
1.85615e-06
1.85564e-06
1.85515e-06
1.85498e-06
1.8552e-06
1.85571e-06
1.8562e-06
1.8563e-06
1.85627e-06
1.8562e-06
1.85606e-06
1.85549e-06
1.85498e-06
1.85479e-06
1.85503e-06
1.85557e-06
1.85611e-06
1.85619e-06
1.85632e-06
1.85618e-06
1.85568e-06
1.8552e-06
1.85503e-06
1.85525e-06
1.85575e-06
1.85622e-06
1.85632e-06
1.85632e-06
1.85632e-06
1.85605e-06
1.85571e-06
1.85557e-06
1.85575e-06
1.8561e-06
1.85633e-06
1.85632e-06
1.85612e-06
1.85622e-06
1.85633e-06
1.8562e-06
1.85611e-06
1.85622e-06
1.85633e-06
1.85619e-06
1.85634e-06
1.8563e-06
1.85619e-06
1.85633e-06
1.85632e-06
1.82302e-06
1.821e-06
1.82049e-06
1.81929e-06
1.8193e-06
1.81923e-06
1.81923e-06
1.82051e-06
1.8208e-06
1.82051e-06
1.81844e-06
1.81574e-06
1.81571e-06
1.81571e-06
1.81574e-06
1.81882e-06
1.81906e-06
1.81929e-06
1.81574e-06
1.81568e-06
1.81575e-06
1.81574e-06
1.81568e-06
1.81574e-06
1.8192e-06
1.82038e-06
1.82302e-06
1.8193e-06
1.81571e-06
1.81575e-06
1.81584e-06
1.81584e-06
1.81574e-06
1.8157e-06
1.81918e-06
1.82081e-06
1.82101e-06
1.81923e-06
1.81571e-06
1.81575e-06
1.81584e-06
1.81584e-06
1.81574e-06
1.8157e-06
1.81936e-06
1.81936e-06
1.81923e-06
1.81574e-06
1.81568e-06
1.81575e-06
1.81574e-06
1.81568e-06
1.81574e-06
1.81912e-06
1.82027e-06
1.82052e-06
1.81882e-06
1.81574e-06
1.81571e-06
1.81571e-06
1.81574e-06
1.81902e-06
1.81921e-06
1.82064e-06
1.8208e-06
1.81906e-06
1.8192e-06
1.81918e-06
1.81936e-06
1.81912e-06
1.81921e-06
1.82094e-06
1.82039e-06
1.82081e-06
1.81936e-06
1.82027e-06
1.82065e-06
1.8029e-06
1.80272e-06
1.80254e-06
1.80042e-06
1.80033e-06
1.80029e-06
1.8004e-06
1.80252e-06
1.80276e-06
1.80254e-06
1.7997e-06
1.79675e-06
1.79667e-06
1.79667e-06
1.79675e-06
1.80023e-06
1.80086e-06
1.80042e-06
1.79675e-06
1.79646e-06
1.79649e-06
1.79649e-06
1.79646e-06
1.79675e-06
1.80104e-06
1.80301e-06
1.8029e-06
1.80033e-06
1.79667e-06
1.79649e-06
1.79652e-06
1.79652e-06
1.79649e-06
1.79667e-06
1.80109e-06
1.80275e-06
1.80272e-06
1.8003e-06
1.79668e-06
1.79649e-06
1.79652e-06
1.79652e-06
1.79649e-06
1.79666e-06
1.80103e-06
1.80098e-06
1.80041e-06
1.79676e-06
1.79646e-06
1.79649e-06
1.79649e-06
1.79646e-06
1.79674e-06
1.80109e-06
1.80309e-06
1.80252e-06
1.80024e-06
1.79675e-06
1.79667e-06
1.79667e-06
1.79675e-06
1.80071e-06
1.80099e-06
1.803e-06
1.80277e-06
1.80086e-06
1.80104e-06
1.80109e-06
1.80104e-06
1.8011e-06
1.80099e-06
1.8029e-06
1.80301e-06
1.80276e-06
1.80098e-06
1.8031e-06
1.803e-06
1.78386e-06
1.78368e-06
1.78355e-06
1.78136e-06
1.78126e-06
1.78117e-06
1.78136e-06
1.78349e-06
1.78376e-06
1.78355e-06
1.7806e-06
1.77765e-06
1.77761e-06
1.77761e-06
1.77765e-06
1.78111e-06
1.78188e-06
1.78136e-06
1.77765e-06
1.77752e-06
1.77752e-06
1.77752e-06
1.77752e-06
1.77765e-06
1.78201e-06
1.78397e-06
1.78386e-06
1.78127e-06
1.77761e-06
1.77752e-06
1.77753e-06
1.77753e-06
1.77752e-06
1.77761e-06
1.78207e-06
1.7837e-06
1.78368e-06
1.78117e-06
1.77761e-06
1.77752e-06
1.77753e-06
1.77753e-06
1.77752e-06
1.77761e-06
1.78204e-06
1.78198e-06
1.78136e-06
1.77765e-06
1.77752e-06
1.77752e-06
1.77752e-06
1.77752e-06
1.77764e-06
1.78206e-06
1.78403e-06
1.7835e-06
1.78112e-06
1.77765e-06
1.77761e-06
1.77761e-06
1.77765e-06
1.7818e-06
1.782e-06
1.78399e-06
1.78376e-06
1.78188e-06
1.78201e-06
1.78208e-06
1.78205e-06
1.78206e-06
1.78201e-06
1.784e-06
1.78397e-06
1.7837e-06
1.78199e-06
1.78404e-06
1.784e-06
1.76478e-06
1.76461e-06
1.76444e-06
1.76225e-06
1.76215e-06
1.76205e-06
1.76225e-06
1.7644e-06
1.76466e-06
1.76444e-06
1.7615e-06
1.75853e-06
1.75852e-06
1.75852e-06
1.75853e-06
1.76198e-06
1.7628e-06
1.76225e-06
1.75853e-06
1.75849e-06
1.75849e-06
1.75849e-06
1.75849e-06
1.75853e-06
1.76294e-06
1.76489e-06
1.76478e-06
1.76215e-06
1.75852e-06
1.75849e-06
1.7585e-06
1.75849e-06
1.75849e-06
1.75852e-06
1.76303e-06
1.76466e-06
1.76461e-06
1.76205e-06
1.75852e-06
1.75849e-06
1.7585e-06
1.75849e-06
1.75849e-06
1.75852e-06
1.76301e-06
1.76294e-06
1.76225e-06
1.75853e-06
1.75849e-06
1.75849e-06
1.75849e-06
1.75849e-06
1.75853e-06
1.763e-06
1.76498e-06
1.7644e-06
1.76198e-06
1.75853e-06
1.75852e-06
1.75852e-06
1.75853e-06
1.76278e-06
1.76294e-06
1.76491e-06
1.76466e-06
1.7628e-06
1.76294e-06
1.76303e-06
1.76302e-06
1.763e-06
1.76294e-06
1.76489e-06
1.76489e-06
1.76466e-06
1.76294e-06
1.76499e-06
1.76491e-06
1.74569e-06
1.74552e-06
1.74534e-06
1.74315e-06
1.74305e-06
1.74295e-06
1.74315e-06
1.74531e-06
1.74556e-06
1.74534e-06
1.7424e-06
1.73943e-06
1.73943e-06
1.73943e-06
1.73943e-06
1.74286e-06
1.7437e-06
1.74315e-06
1.73943e-06
1.73942e-06
1.73942e-06
1.73942e-06
1.73942e-06
1.73943e-06
1.74384e-06
1.7458e-06
1.74569e-06
1.74305e-06
1.73943e-06
1.73942e-06
1.73942e-06
1.73942e-06
1.73942e-06
1.73943e-06
1.74395e-06
1.74558e-06
1.74552e-06
1.74295e-06
1.73943e-06
1.73942e-06
1.73942e-06
1.73942e-06
1.73942e-06
1.73943e-06
1.74393e-06
1.74386e-06
1.74315e-06
1.73943e-06
1.73942e-06
1.73942e-06
1.73942e-06
1.73942e-06
1.73943e-06
1.74391e-06
1.7459e-06
1.74531e-06
1.74286e-06
1.73943e-06
1.73943e-06
1.73943e-06
1.73943e-06
1.74371e-06
1.74386e-06
1.74581e-06
1.74556e-06
1.7437e-06
1.74384e-06
1.74395e-06
1.74393e-06
1.74391e-06
1.74386e-06
1.74579e-06
1.7458e-06
1.74558e-06
1.74386e-06
1.7459e-06
1.74581e-06
1.7266e-06
1.72643e-06
1.72625e-06
1.72406e-06
1.72395e-06
1.72385e-06
1.72405e-06
1.72621e-06
1.72647e-06
1.72625e-06
1.72331e-06
1.72033e-06
1.72033e-06
1.72033e-06
1.72033e-06
1.72376e-06
1.7246e-06
1.72406e-06
1.72033e-06
1.72033e-06
1.72033e-06
1.72033e-06
1.72033e-06
1.72033e-06
1.72474e-06
1.7267e-06
1.7266e-06
1.72395e-06
1.72033e-06
1.72033e-06
1.72033e-06
1.72033e-06
1.72033e-06
1.72033e-06
1.72485e-06
1.72649e-06
1.72643e-06
1.72385e-06
1.72033e-06
1.72033e-06
1.72033e-06
1.72033e-06
1.72033e-06
1.72033e-06
1.72484e-06
1.72477e-06
1.72405e-06
1.72033e-06
1.72033e-06
1.72033e-06
1.72033e-06
1.72033e-06
1.72033e-06
1.72482e-06
1.72681e-06
1.72621e-06
1.72376e-06
1.72033e-06
1.72033e-06
1.72033e-06
1.72033e-06
1.72462e-06
1.72477e-06
1.72672e-06
1.72647e-06
1.7246e-06
1.72474e-06
1.72485e-06
1.72484e-06
1.72481e-06
1.72477e-06
1.7267e-06
1.7267e-06
1.72649e-06
1.72477e-06
1.72681e-06
1.72672e-06
1.7075e-06
1.70733e-06
1.70715e-06
1.70496e-06
1.70486e-06
1.70476e-06
1.70496e-06
1.70712e-06
1.70737e-06
1.70715e-06
1.70422e-06
1.70124e-06
1.70124e-06
1.70124e-06
1.70124e-06
1.70467e-06
1.70551e-06
1.70496e-06
1.70124e-06
1.70124e-06
1.70124e-06
1.70124e-06
1.70124e-06
1.70124e-06
1.70565e-06
1.70761e-06
1.7075e-06
1.70486e-06
1.70124e-06
1.70124e-06
1.70124e-06
1.70124e-06
1.70124e-06
1.70124e-06
1.70576e-06
1.7074e-06
1.70733e-06
1.70476e-06
1.70124e-06
1.70124e-06
1.70124e-06
1.70124e-06
1.70124e-06
1.70124e-06
1.70575e-06
1.70567e-06
1.70496e-06
1.70124e-06
1.70124e-06
1.70124e-06
1.70124e-06
1.70124e-06
1.70124e-06
1.70572e-06
1.70772e-06
1.70712e-06
1.70467e-06
1.70124e-06
1.70124e-06
1.70124e-06
1.70124e-06
1.70553e-06
1.70568e-06
1.70762e-06
1.70738e-06
1.70551e-06
1.70565e-06
1.70576e-06
1.70575e-06
1.70572e-06
1.70568e-06
1.7076e-06
1.70761e-06
1.7074e-06
1.70567e-06
1.70772e-06
1.70762e-06
1.68841e-06
1.68824e-06
1.68806e-06
1.68587e-06
1.68577e-06
1.68567e-06
1.68586e-06
1.68803e-06
1.68828e-06
1.68806e-06
1.68513e-06
1.68215e-06
1.68215e-06
1.68215e-06
1.68215e-06
1.68557e-06
1.68641e-06
1.68587e-06
1.68215e-06
1.68215e-06
1.68215e-06
1.68215e-06
1.68215e-06
1.68215e-06
1.68656e-06
1.68852e-06
1.68841e-06
1.68577e-06
1.68215e-06
1.68215e-06
1.68215e-06
1.68215e-06
1.68215e-06
1.68215e-06
1.68667e-06
1.6883e-06
1.68824e-06
1.68566e-06
1.68215e-06
1.68215e-06
1.68215e-06
1.68215e-06
1.68215e-06
1.68215e-06
1.68666e-06
1.68658e-06
1.68586e-06
1.68215e-06
1.68215e-06
1.68215e-06
1.68215e-06
1.68215e-06
1.68215e-06
1.68663e-06
1.68863e-06
1.68803e-06
1.68557e-06
1.68215e-06
1.68215e-06
1.68215e-06
1.68215e-06
1.68643e-06
1.68658e-06
1.68853e-06
1.68828e-06
1.68642e-06
1.68655e-06
1.68667e-06
1.68666e-06
1.68663e-06
1.68659e-06
1.68851e-06
1.68852e-06
1.68831e-06
1.68658e-06
1.68863e-06
1.68853e-06
1.66932e-06
1.66915e-06
1.66897e-06
1.66678e-06
1.66667e-06
1.66657e-06
1.66677e-06
1.66893e-06
1.66919e-06
1.66897e-06
1.66603e-06
1.66305e-06
1.66305e-06
1.66305e-06
1.66305e-06
1.66648e-06
1.66732e-06
1.66678e-06
1.66305e-06
1.66305e-06
1.66305e-06
1.66305e-06
1.66305e-06
1.66305e-06
1.66746e-06
1.66942e-06
1.66932e-06
1.66667e-06
1.66305e-06
1.66305e-06
1.66305e-06
1.66305e-06
1.66305e-06
1.66305e-06
1.66758e-06
1.66921e-06
1.66915e-06
1.66657e-06
1.66305e-06
1.66305e-06
1.66305e-06
1.66305e-06
1.66305e-06
1.66305e-06
1.66756e-06
1.66749e-06
1.66677e-06
1.66305e-06
1.66305e-06
1.66305e-06
1.66305e-06
1.66305e-06
1.66305e-06
1.66754e-06
1.66953e-06
1.66893e-06
1.66648e-06
1.66305e-06
1.66305e-06
1.66305e-06
1.66305e-06
1.66734e-06
1.66749e-06
1.66944e-06
1.66919e-06
1.66732e-06
1.66746e-06
1.66758e-06
1.66756e-06
1.66754e-06
1.66749e-06
1.66942e-06
1.66943e-06
1.66921e-06
1.66749e-06
1.66953e-06
1.66944e-06
1.65022e-06
1.65005e-06
1.64987e-06
1.64768e-06
1.64758e-06
1.64748e-06
1.64768e-06
1.64984e-06
1.65009e-06
1.64987e-06
1.64694e-06
1.64396e-06
1.64396e-06
1.64396e-06
1.64396e-06
1.64739e-06
1.64823e-06
1.64768e-06
1.64396e-06
1.64396e-06
1.64396e-06
1.64396e-06
1.64396e-06
1.64396e-06
1.64837e-06
1.65033e-06
1.65022e-06
1.64758e-06
1.64396e-06
1.64396e-06
1.64396e-06
1.64396e-06
1.64396e-06
1.64396e-06
1.64848e-06
1.65012e-06
1.65005e-06
1.64748e-06
1.64396e-06
1.64396e-06
1.64396e-06
1.64396e-06
1.64396e-06
1.64396e-06
1.64847e-06
1.64839e-06
1.64768e-06
1.64396e-06
1.64396e-06
1.64396e-06
1.64396e-06
1.64396e-06
1.64396e-06
1.64844e-06
1.65044e-06
1.64984e-06
1.64739e-06
1.64396e-06
1.64396e-06
1.64396e-06
1.64396e-06
1.64825e-06
1.6484e-06
1.65034e-06
1.65009e-06
1.64823e-06
1.64837e-06
1.64848e-06
1.64847e-06
1.64844e-06
1.6484e-06
1.65032e-06
1.65033e-06
1.65012e-06
1.64839e-06
1.65044e-06
1.65034e-06
1.63113e-06
1.63096e-06
1.63078e-06
1.62859e-06
1.62849e-06
1.62838e-06
1.62858e-06
1.63075e-06
1.631e-06
1.63078e-06
1.62784e-06
1.62487e-06
1.62487e-06
1.62487e-06
1.62487e-06
1.62829e-06
1.62913e-06
1.62859e-06
1.62487e-06
1.62487e-06
1.62487e-06
1.62487e-06
1.62487e-06
1.62487e-06
1.62927e-06
1.63124e-06
1.63113e-06
1.62849e-06
1.62487e-06
1.62487e-06
1.62487e-06
1.62487e-06
1.62487e-06
1.62487e-06
1.62939e-06
1.63102e-06
1.63096e-06
1.62838e-06
1.62487e-06
1.62487e-06
1.62487e-06
1.62487e-06
1.62487e-06
1.62487e-06
1.62938e-06
1.6293e-06
1.62858e-06
1.62487e-06
1.62487e-06
1.62487e-06
1.62487e-06
1.62487e-06
1.62487e-06
1.62935e-06
1.63135e-06
1.63075e-06
1.62829e-06
1.62487e-06
1.62487e-06
1.62487e-06
1.62487e-06
1.62915e-06
1.6293e-06
1.63125e-06
1.631e-06
1.62913e-06
1.62927e-06
1.62939e-06
1.62937e-06
1.62935e-06
1.62931e-06
1.63123e-06
1.63124e-06
1.63103e-06
1.6293e-06
1.63135e-06
1.63125e-06
1.61203e-06
1.61187e-06
1.61168e-06
1.6095e-06
1.60939e-06
1.60929e-06
1.60949e-06
1.61165e-06
1.61191e-06
1.61168e-06
1.60875e-06
1.60577e-06
1.60577e-06
1.60577e-06
1.60577e-06
1.6092e-06
1.61004e-06
1.60949e-06
1.60577e-06
1.60577e-06
1.60577e-06
1.60577e-06
1.60577e-06
1.60577e-06
1.61018e-06
1.61214e-06
1.61204e-06
1.60939e-06
1.60577e-06
1.60577e-06
1.60577e-06
1.60577e-06
1.60577e-06
1.60577e-06
1.61029e-06
1.61193e-06
1.61187e-06
1.60929e-06
1.60577e-06
1.60577e-06
1.60577e-06
1.60577e-06
1.60577e-06
1.60577e-06
1.61028e-06
1.61021e-06
1.60949e-06
1.60577e-06
1.60577e-06
1.60577e-06
1.60577e-06
1.60577e-06
1.60577e-06
1.61026e-06
1.61225e-06
1.61165e-06
1.6092e-06
1.60577e-06
1.60577e-06
1.60577e-06
1.60577e-06
1.61006e-06
1.61021e-06
1.61216e-06
1.61191e-06
1.61004e-06
1.61018e-06
1.61029e-06
1.61028e-06
1.61025e-06
1.61021e-06
1.61213e-06
1.61214e-06
1.61193e-06
1.61021e-06
1.61225e-06
1.61216e-06
1.59294e-06
1.59277e-06
1.59259e-06
1.5904e-06
1.5903e-06
1.5902e-06
1.5904e-06
1.59256e-06
1.59281e-06
1.59259e-06
1.58966e-06
1.58668e-06
1.58668e-06
1.58668e-06
1.58668e-06
1.5901e-06
1.59095e-06
1.5904e-06
1.58668e-06
1.58668e-06
1.58668e-06
1.58668e-06
1.58668e-06
1.58668e-06
1.59109e-06
1.59305e-06
1.59294e-06
1.5903e-06
1.58668e-06
1.58668e-06
1.58668e-06
1.58668e-06
1.58668e-06
1.58668e-06
1.5912e-06
1.59284e-06
1.59277e-06
1.5902e-06
1.58668e-06
1.58668e-06
1.58668e-06
1.58668e-06
1.58668e-06
1.58668e-06
1.59119e-06
1.59111e-06
1.5904e-06
1.58668e-06
1.58668e-06
1.58668e-06
1.58668e-06
1.58668e-06
1.58668e-06
1.59116e-06
1.59316e-06
1.59256e-06
1.5901e-06
1.58668e-06
1.58668e-06
1.58668e-06
1.58668e-06
1.59097e-06
1.59112e-06
1.59306e-06
1.59281e-06
1.59095e-06
1.59109e-06
1.5912e-06
1.59119e-06
1.59116e-06
1.59112e-06
1.59304e-06
1.59305e-06
1.59284e-06
1.59111e-06
1.59316e-06
1.59306e-06
1.57385e-06
1.57368e-06
1.57349e-06
1.57131e-06
1.5712e-06
1.5711e-06
1.5713e-06
1.57346e-06
1.57372e-06
1.57349e-06
1.57056e-06
1.56758e-06
1.56758e-06
1.56758e-06
1.56758e-06
1.57101e-06
1.57185e-06
1.57131e-06
1.56758e-06
1.56758e-06
1.56758e-06
1.56758e-06
1.56758e-06
1.56758e-06
1.57199e-06
1.57395e-06
1.57385e-06
1.5712e-06
1.56758e-06
1.56758e-06
1.56758e-06
1.56758e-06
1.56758e-06
1.56758e-06
1.57211e-06
1.57374e-06
1.57368e-06
1.5711e-06
1.56758e-06
1.56758e-06
1.56758e-06
1.56758e-06
1.56758e-06
1.56758e-06
1.57209e-06
1.57202e-06
1.5713e-06
1.56758e-06
1.56758e-06
1.56758e-06
1.56758e-06
1.56758e-06
1.56758e-06
1.57207e-06
1.57406e-06
1.57346e-06
1.57101e-06
1.56758e-06
1.56758e-06
1.56758e-06
1.56758e-06
1.57187e-06
1.57202e-06
1.57397e-06
1.57372e-06
1.57185e-06
1.57199e-06
1.57211e-06
1.57209e-06
1.57207e-06
1.57202e-06
1.57395e-06
1.57396e-06
1.57374e-06
1.57202e-06
1.57406e-06
1.57397e-06
1.55475e-06
1.55458e-06
1.5544e-06
1.55221e-06
1.55211e-06
1.55201e-06
1.55221e-06
1.55437e-06
1.55462e-06
1.5544e-06
1.55147e-06
1.54849e-06
1.54849e-06
1.54849e-06
1.54849e-06
1.55192e-06
1.55276e-06
1.55221e-06
1.54849e-06
1.54849e-06
1.54849e-06
1.54849e-06
1.54849e-06
1.54849e-06
1.5529e-06
1.55486e-06
1.55475e-06
1.55211e-06
1.54849e-06
1.54849e-06
1.54849e-06
1.54849e-06
1.54849e-06
1.54849e-06
1.55301e-06
1.55465e-06
1.55458e-06
1.55201e-06
1.54849e-06
1.54849e-06
1.54849e-06
1.54849e-06
1.54849e-06
1.54849e-06
1.553e-06
1.55292e-06
1.55221e-06
1.54849e-06
1.54849e-06
1.54849e-06
1.54849e-06
1.54849e-06
1.54849e-06
1.55297e-06
1.55497e-06
1.55437e-06
1.55192e-06
1.54849e-06
1.54849e-06
1.54849e-06
1.54849e-06
1.55278e-06
1.55293e-06
1.55487e-06
1.55462e-06
1.55276e-06
1.5529e-06
1.55301e-06
1.553e-06
1.55297e-06
1.55293e-06
1.55485e-06
1.55486e-06
1.55465e-06
1.55292e-06
1.55497e-06
1.55487e-06
1.53566e-06
1.53549e-06
1.53531e-06
1.53312e-06
1.53302e-06
1.53292e-06
1.53311e-06
1.53527e-06
1.53553e-06
1.53531e-06
1.53237e-06
1.5294e-06
1.5294e-06
1.5294e-06
1.5294e-06
1.53282e-06
1.53366e-06
1.53312e-06
1.5294e-06
1.5294e-06
1.5294e-06
1.5294e-06
1.5294e-06
1.5294e-06
1.53381e-06
1.53577e-06
1.53566e-06
1.53302e-06
1.5294e-06
1.5294e-06
1.5294e-06
1.5294e-06
1.5294e-06
1.5294e-06
1.53392e-06
1.53555e-06
1.53549e-06
1.53291e-06
1.5294e-06
1.5294e-06
1.5294e-06
1.5294e-06
1.5294e-06
1.5294e-06
1.53391e-06
1.53383e-06
1.53311e-06
1.5294e-06
1.5294e-06
1.5294e-06
1.5294e-06
1.5294e-06
1.5294e-06
1.53388e-06
1.53588e-06
1.53528e-06
1.53282e-06
1.5294e-06
1.5294e-06
1.5294e-06
1.5294e-06
1.53368e-06
1.53383e-06
1.53578e-06
1.53553e-06
1.53367e-06
1.5338e-06
1.53392e-06
1.5339e-06
1.53388e-06
1.53384e-06
1.53576e-06
1.53577e-06
1.53556e-06
1.53383e-06
1.53588e-06
1.53578e-06
1.51657e-06
1.5164e-06
1.51621e-06
1.51403e-06
1.51392e-06
1.51382e-06
1.51402e-06
1.51618e-06
1.51644e-06
1.51622e-06
1.51328e-06
1.5103e-06
1.5103e-06
1.5103e-06
1.5103e-06
1.51373e-06
1.51457e-06
1.51403e-06
1.5103e-06
1.5103e-06
1.5103e-06
1.5103e-06
1.5103e-06
1.5103e-06
1.51471e-06
1.51667e-06
1.51657e-06
1.51392e-06
1.5103e-06
1.5103e-06
1.5103e-06
1.5103e-06
1.5103e-06
1.5103e-06
1.51483e-06
1.51646e-06
1.5164e-06
1.51382e-06
1.5103e-06
1.5103e-06
1.5103e-06
1.5103e-06
1.5103e-06
1.5103e-06
1.51481e-06
1.51474e-06
1.51402e-06
1.5103e-06
1.5103e-06
1.5103e-06
1.5103e-06
1.5103e-06
1.5103e-06
1.51479e-06
1.51678e-06
1.51618e-06
1.51373e-06
1.5103e-06
1.5103e-06
1.5103e-06
1.5103e-06
1.51459e-06
1.51474e-06
1.51669e-06
1.51644e-06
1.51457e-06
1.51471e-06
1.51482e-06
1.51481e-06
1.51479e-06
1.51474e-06
1.51667e-06
1.51668e-06
1.51646e-06
1.51474e-06
1.51678e-06
1.51669e-06
1.49747e-06
1.4973e-06
1.49712e-06
1.49493e-06
1.49483e-06
1.49473e-06
1.49493e-06
1.49709e-06
1.49734e-06
1.49712e-06
1.49419e-06
1.49121e-06
1.49121e-06
1.49121e-06
1.49121e-06
1.49464e-06
1.49548e-06
1.49493e-06
1.49121e-06
1.49121e-06
1.49121e-06
1.49121e-06
1.49121e-06
1.49121e-06
1.49562e-06
1.49758e-06
1.49747e-06
1.49483e-06
1.49121e-06
1.49121e-06
1.49121e-06
1.49121e-06
1.49121e-06
1.49121e-06
1.49573e-06
1.49737e-06
1.4973e-06
1.49473e-06
1.49121e-06
1.49121e-06
1.49121e-06
1.49121e-06
1.49121e-06
1.49121e-06
1.49572e-06
1.49564e-06
1.49493e-06
1.49121e-06
1.49121e-06
1.49121e-06
1.49121e-06
1.49121e-06
1.49121e-06
1.49569e-06
1.49769e-06
1.49709e-06
1.49464e-06
1.49121e-06
1.49121e-06
1.49121e-06
1.49121e-06
1.4955e-06
1.49565e-06
1.49759e-06
1.49734e-06
1.49548e-06
1.49562e-06
1.49573e-06
1.49572e-06
1.49569e-06
1.49565e-06
1.49757e-06
1.49758e-06
1.49737e-06
1.49564e-06
1.49769e-06
1.49759e-06
1.47838e-06
1.47821e-06
1.47803e-06
1.47584e-06
1.47574e-06
1.47564e-06
1.47584e-06
1.478e-06
1.47825e-06
1.47803e-06
1.47509e-06
1.47212e-06
1.47212e-06
1.47212e-06
1.47212e-06
1.47554e-06
1.47638e-06
1.47584e-06
1.47212e-06
1.47212e-06
1.47212e-06
1.47212e-06
1.47212e-06
1.47212e-06
1.47653e-06
1.47849e-06
1.47838e-06
1.47574e-06
1.47212e-06
1.47212e-06
1.47212e-06
1.47212e-06
1.47212e-06
1.47212e-06
1.47664e-06
1.47827e-06
1.47821e-06
1.47564e-06
1.47212e-06
1.47212e-06
1.47212e-06
1.47212e-06
1.47212e-06
1.47212e-06
1.47663e-06
1.47655e-06
1.47583e-06
1.47212e-06
1.47212e-06
1.47212e-06
1.47212e-06
1.47212e-06
1.47212e-06
1.4766e-06
1.4786e-06
1.478e-06
1.47554e-06
1.47212e-06
1.47212e-06
1.47212e-06
1.47212e-06
1.4764e-06
1.47655e-06
1.4785e-06
1.47825e-06
1.47639e-06
1.47652e-06
1.47664e-06
1.47663e-06
1.4766e-06
1.47656e-06
1.47848e-06
1.47849e-06
1.47828e-06
1.47655e-06
1.4786e-06
1.4785e-06
1.45929e-06
1.45912e-06
1.45893e-06
1.45675e-06
1.45664e-06
1.45654e-06
1.45674e-06
1.4589e-06
1.45916e-06
1.45894e-06
1.456e-06
1.45302e-06
1.45302e-06
1.45302e-06
1.45302e-06
1.45645e-06
1.45729e-06
1.45675e-06
1.45302e-06
1.45302e-06
1.45302e-06
1.45302e-06
1.45302e-06
1.45302e-06
1.45743e-06
1.45939e-06
1.45929e-06
1.45664e-06
1.45302e-06
1.45302e-06
1.45302e-06
1.45302e-06
1.45302e-06
1.45302e-06
1.45755e-06
1.45918e-06
1.45912e-06
1.45654e-06
1.45302e-06
1.45302e-06
1.45302e-06
1.45302e-06
1.45302e-06
1.45302e-06
1.45753e-06
1.45746e-06
1.45674e-06
1.45302e-06
1.45302e-06
1.45302e-06
1.45302e-06
1.45302e-06
1.45302e-06
1.45751e-06
1.4595e-06
1.4589e-06
1.45645e-06
1.45302e-06
1.45302e-06
1.45302e-06
1.45302e-06
1.45731e-06
1.45746e-06
1.45941e-06
1.45916e-06
1.45729e-06
1.45743e-06
1.45755e-06
1.45753e-06
1.45751e-06
1.45746e-06
1.45939e-06
1.4594e-06
1.45918e-06
1.45746e-06
1.4595e-06
1.45941e-06
1.4402e-06
1.44003e-06
1.43984e-06
1.43766e-06
1.43755e-06
1.43745e-06
1.43765e-06
1.43981e-06
1.44007e-06
1.43985e-06
1.43691e-06
1.43393e-06
1.43393e-06
1.43393e-06
1.43393e-06
1.43736e-06
1.4382e-06
1.43766e-06
1.43393e-06
1.43393e-06
1.43393e-06
1.43393e-06
1.43393e-06
1.43393e-06
1.43834e-06
1.4403e-06
1.4402e-06
1.43755e-06
1.43393e-06
1.43393e-06
1.43393e-06
1.43393e-06
1.43393e-06
1.43393e-06
1.43846e-06
1.44009e-06
1.44003e-06
1.43745e-06
1.43393e-06
1.43393e-06
1.43393e-06
1.43393e-06
1.43393e-06
1.43393e-06
1.43844e-06
1.43837e-06
1.43765e-06
1.43393e-06
1.43393e-06
1.43393e-06
1.43393e-06
1.43393e-06
1.43393e-06
1.43842e-06
1.44041e-06
1.43981e-06
1.43736e-06
1.43393e-06
1.43393e-06
1.43393e-06
1.43393e-06
1.43822e-06
1.43837e-06
1.44032e-06
1.44007e-06
1.4382e-06
1.43834e-06
1.43846e-06
1.43844e-06
1.43842e-06
1.43837e-06
1.4403e-06
1.44031e-06
1.44009e-06
1.43837e-06
1.44041e-06
1.44032e-06
1.4211e-06
1.42093e-06
1.42075e-06
1.41856e-06
1.41846e-06
1.41836e-06
1.41856e-06
1.42072e-06
1.42098e-06
1.42075e-06
1.41782e-06
1.41484e-06
1.41484e-06
1.41484e-06
1.41484e-06
1.41827e-06
1.41911e-06
1.41856e-06
1.41484e-06
1.41484e-06
1.41484e-06
1.41484e-06
1.41484e-06
1.41484e-06
1.41925e-06
1.42121e-06
1.42111e-06
1.41846e-06
1.41484e-06
1.41484e-06
1.41484e-06
1.41484e-06
1.41484e-06
1.41484e-06
1.41936e-06
1.421e-06
1.42094e-06
1.41836e-06
1.41484e-06
1.41484e-06
1.41484e-06
1.41484e-06
1.41484e-06
1.41484e-06
1.41935e-06
1.41928e-06
1.41856e-06
1.41484e-06
1.41484e-06
1.41484e-06
1.41484e-06
1.41484e-06
1.41484e-06
1.41932e-06
1.42132e-06
1.42072e-06
1.41827e-06
1.41484e-06
1.41484e-06
1.41484e-06
1.41484e-06
1.41913e-06
1.41928e-06
1.42122e-06
1.42098e-06
1.41911e-06
1.41925e-06
1.41936e-06
1.41935e-06
1.41932e-06
1.41928e-06
1.4212e-06
1.42121e-06
1.421e-06
1.41928e-06
1.42132e-06
1.42123e-06
1.40201e-06
1.40184e-06
1.40166e-06
1.39947e-06
1.39937e-06
1.39927e-06
1.39947e-06
1.40163e-06
1.40188e-06
1.40166e-06
1.39873e-06
1.39575e-06
1.39575e-06
1.39575e-06
1.39575e-06
1.39918e-06
1.40002e-06
1.39947e-06
1.39575e-06
1.39575e-06
1.39575e-06
1.39575e-06
1.39575e-06
1.39575e-06
1.40016e-06
1.40212e-06
1.40201e-06
1.39937e-06
1.39575e-06
1.39575e-06
1.39575e-06
1.39575e-06
1.39575e-06
1.39575e-06
1.40027e-06
1.40191e-06
1.40184e-06
1.39927e-06
1.39575e-06
1.39575e-06
1.39575e-06
1.39575e-06
1.39575e-06
1.39575e-06
1.40026e-06
1.40018e-06
1.39947e-06
1.39575e-06
1.39575e-06
1.39575e-06
1.39575e-06
1.39575e-06
1.39575e-06
1.40023e-06
1.40223e-06
1.40163e-06
1.39918e-06
1.39575e-06
1.39575e-06
1.39575e-06
1.39575e-06
1.40004e-06
1.40019e-06
1.40213e-06
1.40188e-06
1.40002e-06
1.40016e-06
1.40027e-06
1.40026e-06
1.40023e-06
1.40019e-06
1.40211e-06
1.40212e-06
1.40191e-06
1.40018e-06
1.40223e-06
1.40213e-06
1.38292e-06
1.38275e-06
1.38257e-06
1.38038e-06
1.38028e-06
1.38018e-06
1.38038e-06
1.38254e-06
1.38279e-06
1.38257e-06
1.37964e-06
1.37666e-06
1.37666e-06
1.37666e-06
1.37666e-06
1.38009e-06
1.38093e-06
1.38038e-06
1.37666e-06
1.37666e-06
1.37666e-06
1.37666e-06
1.37666e-06
1.37666e-06
1.38107e-06
1.38303e-06
1.38292e-06
1.38028e-06
1.37666e-06
1.37666e-06
1.37666e-06
1.37666e-06
1.37666e-06
1.37666e-06
1.38118e-06
1.38282e-06
1.38275e-06
1.38018e-06
1.37666e-06
1.37666e-06
1.37666e-06
1.37666e-06
1.37666e-06
1.37666e-06
1.38117e-06
1.38109e-06
1.38038e-06
1.37666e-06
1.37666e-06
1.37666e-06
1.37666e-06
1.37666e-06
1.37666e-06
1.38114e-06
1.38314e-06
1.38254e-06
1.38009e-06
1.37666e-06
1.37666e-06
1.37666e-06
1.37666e-06
1.38095e-06
1.3811e-06
1.38304e-06
1.38279e-06
1.38093e-06
1.38107e-06
1.38118e-06
1.38117e-06
1.38114e-06
1.3811e-06
1.38302e-06
1.38303e-06
1.38282e-06
1.38109e-06
1.38314e-06
1.38304e-06
1.36383e-06
1.36366e-06
1.36348e-06
1.36129e-06
1.36119e-06
1.36109e-06
1.36129e-06
1.36345e-06
1.3637e-06
1.36348e-06
1.36055e-06
1.35757e-06
1.35757e-06
1.35757e-06
1.35757e-06
1.361e-06
1.36184e-06
1.36129e-06
1.35757e-06
1.35757e-06
1.35757e-06
1.35757e-06
1.35757e-06
1.35757e-06
1.36198e-06
1.36394e-06
1.36383e-06
1.36119e-06
1.35757e-06
1.35757e-06
1.35757e-06
1.35757e-06
1.35757e-06
1.35757e-06
1.36209e-06
1.36373e-06
1.36366e-06
1.36109e-06
1.35757e-06
1.35757e-06
1.35757e-06
1.35757e-06
1.35757e-06
1.35757e-06
1.36208e-06
1.362e-06
1.36129e-06
1.35757e-06
1.35757e-06
1.35757e-06
1.35757e-06
1.35757e-06
1.35757e-06
1.36205e-06
1.36405e-06
1.36345e-06
1.361e-06
1.35757e-06
1.35757e-06
1.35757e-06
1.35757e-06
1.36186e-06
1.36201e-06
1.36395e-06
1.3637e-06
1.36184e-06
1.36198e-06
1.36209e-06
1.36208e-06
1.36205e-06
1.36201e-06
1.36393e-06
1.36394e-06
1.36373e-06
1.362e-06
1.36405e-06
1.36395e-06
1.34474e-06
1.34457e-06
1.34439e-06
1.3422e-06
1.3421e-06
1.342e-06
1.3422e-06
1.34436e-06
1.34461e-06
1.34439e-06
1.34146e-06
1.33848e-06
1.33848e-06
1.33848e-06
1.33848e-06
1.34191e-06
1.34275e-06
1.3422e-06
1.33848e-06
1.33848e-06
1.33848e-06
1.33848e-06
1.33848e-06
1.33848e-06
1.34289e-06
1.34485e-06
1.34474e-06
1.3421e-06
1.33848e-06
1.33848e-06
1.33848e-06
1.33848e-06
1.33848e-06
1.33848e-06
1.343e-06
1.34464e-06
1.34457e-06
1.342e-06
1.33848e-06
1.33848e-06
1.33848e-06
1.33848e-06
1.33848e-06
1.33848e-06
1.34299e-06
1.34291e-06
1.3422e-06
1.33848e-06
1.33848e-06
1.33848e-06
1.33848e-06
1.33848e-06
1.33848e-06
1.34296e-06
1.34496e-06
1.34436e-06
1.34191e-06
1.33848e-06
1.33848e-06
1.33848e-06
1.33848e-06
1.34277e-06
1.34292e-06
1.34486e-06
1.34461e-06
1.34275e-06
1.34289e-06
1.343e-06
1.34299e-06
1.34296e-06
1.34292e-06
1.34484e-06
1.34485e-06
1.34464e-06
1.34291e-06
1.34496e-06
1.34486e-06
1.32565e-06
1.32548e-06
1.3253e-06
1.32311e-06
1.32301e-06
1.32291e-06
1.32311e-06
1.32527e-06
1.32552e-06
1.3253e-06
1.32237e-06
1.31939e-06
1.31939e-06
1.31939e-06
1.31939e-06
1.32282e-06
1.32366e-06
1.32311e-06
1.31939e-06
1.31939e-06
1.31939e-06
1.31939e-06
1.31939e-06
1.31939e-06
1.3238e-06
1.32576e-06
1.32565e-06
1.32301e-06
1.31939e-06
1.31939e-06
1.31939e-06
1.31939e-06
1.31939e-06
1.31939e-06
1.32391e-06
1.32555e-06
1.32548e-06
1.32291e-06
1.31939e-06
1.31939e-06
1.31939e-06
1.31939e-06
1.31939e-06
1.31939e-06
1.3239e-06
1.32382e-06
1.32311e-06
1.31939e-06
1.31939e-06
1.31939e-06
1.31939e-06
1.31939e-06
1.31939e-06
1.32387e-06
1.32587e-06
1.32527e-06
1.32282e-06
1.31939e-06
1.31939e-06
1.31939e-06
1.31939e-06
1.32368e-06
1.32383e-06
1.32577e-06
1.32552e-06
1.32366e-06
1.3238e-06
1.32391e-06
1.3239e-06
1.32387e-06
1.32383e-06
1.32575e-06
1.32576e-06
1.32555e-06
1.32382e-06
1.32587e-06
1.32577e-06
1.30656e-06
1.30639e-06
1.30621e-06
1.30402e-06
1.30392e-06
1.30382e-06
1.30402e-06
1.30618e-06
1.30643e-06
1.30621e-06
1.30328e-06
1.3003e-06
1.3003e-06
1.3003e-06
1.3003e-06
1.30373e-06
1.30457e-06
1.30402e-06
1.3003e-06
1.3003e-06
1.3003e-06
1.3003e-06
1.3003e-06
1.3003e-06
1.30471e-06
1.30667e-06
1.30656e-06
1.30392e-06
1.3003e-06
1.3003e-06
1.3003e-06
1.3003e-06
1.3003e-06
1.3003e-06
1.30482e-06
1.30646e-06
1.30639e-06
1.30382e-06
1.3003e-06
1.3003e-06
1.3003e-06
1.3003e-06
1.3003e-06
1.3003e-06
1.30481e-06
1.30473e-06
1.30402e-06
1.3003e-06
1.3003e-06
1.3003e-06
1.3003e-06
1.3003e-06
1.3003e-06
1.30478e-06
1.30678e-06
1.30618e-06
1.30373e-06
1.3003e-06
1.3003e-06
1.3003e-06
1.3003e-06
1.30459e-06
1.30474e-06
1.30668e-06
1.30643e-06
1.30457e-06
1.30471e-06
1.30482e-06
1.30481e-06
1.30478e-06
1.30474e-06
1.30666e-06
1.30667e-06
1.30646e-06
1.30473e-06
1.30678e-06
1.30668e-06
1.28747e-06
1.2873e-06
1.28712e-06
1.28493e-06
1.28483e-06
1.28473e-06
1.28493e-06
1.28709e-06
1.28734e-06
1.28712e-06
1.28419e-06
1.28121e-06
1.28121e-06
1.28121e-06
1.28121e-06
1.28464e-06
1.28548e-06
1.28493e-06
1.28121e-06
1.28121e-06
1.28121e-06
1.28121e-06
1.28121e-06
1.28121e-06
1.28562e-06
1.28758e-06
1.28747e-06
1.28483e-06
1.28121e-06
1.28121e-06
1.28121e-06
1.28121e-06
1.28121e-06
1.28121e-06
1.28573e-06
1.28737e-06
1.2873e-06
1.28473e-06
1.28121e-06
1.28121e-06
1.28121e-06
1.28121e-06
1.28121e-06
1.28121e-06
1.28572e-06
1.28564e-06
1.28493e-06
1.28121e-06
1.28121e-06
1.28121e-06
1.28121e-06
1.28121e-06
1.28121e-06
1.28569e-06
1.28769e-06
1.28709e-06
1.28464e-06
1.28121e-06
1.28121e-06
1.28121e-06
1.28121e-06
1.2855e-06
1.28565e-06
1.28759e-06
1.28734e-06
1.28548e-06
1.28562e-06
1.28573e-06
1.28572e-06
1.28569e-06
1.28565e-06
1.28757e-06
1.28758e-06
1.28737e-06
1.28564e-06
1.28769e-06
1.28759e-06
1.26838e-06
1.26821e-06
1.26803e-06
1.26584e-06
1.26574e-06
1.26564e-06
1.26584e-06
1.268e-06
1.26825e-06
1.26803e-06
1.2651e-06
1.26212e-06
1.26212e-06
1.26212e-06
1.26212e-06
1.26555e-06
1.26639e-06
1.26584e-06
1.26212e-06
1.26212e-06
1.26212e-06
1.26212e-06
1.26212e-06
1.26212e-06
1.26653e-06
1.26849e-06
1.26838e-06
1.26574e-06
1.26212e-06
1.26212e-06
1.26212e-06
1.26212e-06
1.26212e-06
1.26212e-06
1.26664e-06
1.26828e-06
1.26821e-06
1.26564e-06
1.26212e-06
1.26212e-06
1.26212e-06
1.26212e-06
1.26212e-06
1.26212e-06
1.26663e-06
1.26655e-06
1.26584e-06
1.26212e-06
1.26212e-06
1.26212e-06
1.26212e-06
1.26212e-06
1.26212e-06
1.2666e-06
1.2686e-06
1.268e-06
1.26555e-06
1.26212e-06
1.26212e-06
1.26212e-06
1.26212e-06
1.26641e-06
1.26656e-06
1.2685e-06
1.26825e-06
1.26639e-06
1.26653e-06
1.26664e-06
1.26663e-06
1.2666e-06
1.26656e-06
1.26848e-06
1.26849e-06
1.26828e-06
1.26655e-06
1.2686e-06
1.2685e-06
1.24929e-06
1.24912e-06
1.24894e-06
1.24675e-06
1.24665e-06
1.24655e-06
1.24675e-06
1.24891e-06
1.24916e-06
1.24894e-06
1.24601e-06
1.24303e-06
1.24303e-06
1.24303e-06
1.24303e-06
1.24646e-06
1.2473e-06
1.24675e-06
1.24303e-06
1.24303e-06
1.24303e-06
1.24303e-06
1.24303e-06
1.24303e-06
1.24744e-06
1.2494e-06
1.24929e-06
1.24665e-06
1.24303e-06
1.24303e-06
1.24303e-06
1.24303e-06
1.24303e-06
1.24303e-06
1.24755e-06
1.24919e-06
1.24912e-06
1.24655e-06
1.24303e-06
1.24303e-06
1.24303e-06
1.24303e-06
1.24303e-06
1.24303e-06
1.24754e-06
1.24746e-06
1.24675e-06
1.24303e-06
1.24303e-06
1.24303e-06
1.24303e-06
1.24303e-06
1.24303e-06
1.24751e-06
1.24951e-06
1.24891e-06
1.24646e-06
1.24303e-06
1.24303e-06
1.24303e-06
1.24303e-06
1.24732e-06
1.24747e-06
1.24941e-06
1.24916e-06
1.2473e-06
1.24744e-06
1.24755e-06