/*--------------------------------*- C++ -*----------------------------------*\
| =========                 |                                                 |
| \\      /  F ield         | OpenFOAM: The Open Source CFD Toolbox           |
|  \\    /   O peration     | Version:  v2012                                 |
|   \\  /    A nd           | Website:  www.openfoam.com                      |
|    \\/     M anipulation  |                                                 |
\*---------------------------------------------------------------------------*/
FoamFile
{
    version     2.0;
    format      ascii;
    class       volScalarField;
    location    "150";
    object      epsilon;
}
// * * * * * * * * * * * * * * * * * * * * * * * * * * * * * * * * * * * * * //

dimensions      [0 2 -3 0 0 0 0];


internalField   nonuniform List<scalar> 
85864
(
1.48358e-07
4.43154e-07
7.11926e-07
4.43396e-07
4.43393e-07
4.42812e-07
7.115e-07
8.89292e-06
8.89615e-06
3.9538e-06
1.482e-07
1.81028e-05
3.206e-06
1.81047e-05
1.81058e-05
5.28366e-06
5.28738e-06
3.20536e-06
3.20611e-06
2.44749e-07
1.73394e-06
8.88864e-06
3.95254e-06
2.44209e-07
3.20369e-06
1.73422e-06
5.28477e-06
5.28419e-06
1.81043e-05
8.89602e-06
8.89329e-06
7.08421e-06
2.18689e-05
2.18754e-05
8.8963e-06
7.08885e-06
7.08792e-06
2.18699e-05
1.19992e-05
3.95344e-06
4.64766e-06
1.06126e-05
4.64727e-06
1.06135e-05
1.19982e-05
1.81063e-05
1.8108e-05
1.81088e-05
4.28746e-06
2.467e-06
5.28297e-06
9.13657e-06
9.13715e-06
2.46643e-06
4.28835e-06
4.29386e-06
2.46937e-06
5.28672e-06
9.14173e-06
9.14239e-06
2.46912e-06
4.29455e-06
9.62714e-06
2.14656e-05
2.14636e-05
2.14711e-05
2.14689e-05
9.62866e-06
2.18644e-05
8.88899e-06
7.0825e-06
7.08128e-06
2.18582e-05
1.1996e-05
3.95205e-06
1.0612e-05
4.64471e-06
1.06128e-05
4.64389e-06
1.19948e-05
4.29365e-06
2.46782e-06
5.28406e-06
9.14046e-06
9.14114e-06
2.46728e-06
4.29465e-06
4.28745e-06
2.46675e-06
5.28341e-06
9.1365e-06
2.4663e-06
9.13705e-06
4.28843e-06
9.62779e-06
2.14668e-05
2.14661e-05
2.14722e-05
2.14713e-05
9.62965e-06
1.81074e-05
8.89636e-06
9.29871e-08
2.30247e-06
1.32894e-06
1.32927e-06
7.10201e-07
1.32786e-06
1.32823e-06
2.30406e-06
2.30409e-06
1.32948e-06
1.3295e-06
7.09675e-07
1.32834e-06
1.32835e-06
2.30475e-06
9.29021e-08
1.16285e-06
1.60318e-06
3.20533e-06
2.56885e-06
1.60207e-06
2.56804e-06
1.16461e-06
1.16311e-06
1.60289e-06
3.20475e-06
2.57021e-06
2.56959e-06
1.60185e-06
1.1647e-06
1.16031e-06
1.60354e-06
3.20522e-06
2.56967e-06
2.56877e-06
1.60244e-06
1.16438e-06
9.20729e-07
1.7311e-06
2.02371e-06
7.84144e-07
2.02348e-06
7.82897e-07
9.22838e-07
1.15809e-06
1.60201e-06
3.2029e-06
2.56707e-06
2.5664e-06
1.60089e-06
1.16238e-06
9.18165e-07
1.73362e-06
7.83145e-07
2.02095e-06
7.8194e-07
2.02082e-06
9.2007e-07
4.43756e-07
7.12374e-07
1.48469e-07
4.44159e-07
4.43326e-07
7.132e-07
1.48528e-07
4.44646e-07
4.43512e-07
7.13913e-07
1.48591e-07
4.45168e-07
4.43639e-07
7.13894e-07
1.4866e-07
4.45608e-07
4.43732e-07
7.14069e-07
1.48729e-07
4.45945e-07
4.43891e-07
7.14326e-07
1.48789e-07
4.46268e-07
4.44127e-07
7.14973e-07
1.48826e-07
4.46517e-07
4.44334e-07
7.14406e-07
1.48829e-07
4.4667e-07
4.44625e-07
7.13808e-07
1.48829e-07
4.46656e-07
4.44641e-07
7.1377e-07
1.48803e-07
4.46497e-07
4.4464e-07
7.13349e-07
1.48744e-07
4.46147e-07
4.44528e-07
7.12953e-07
1.4867e-07
4.45711e-07
4.4438e-07
7.12935e-07
1.48612e-07
4.45325e-07
4.44245e-07
7.125e-07
1.48554e-07
4.45008e-07
4.44281e-07
7.12023e-07
1.48513e-07
4.44748e-07
4.44551e-07
7.11828e-07
1.48479e-07
4.44524e-07
4.44913e-07
7.1183e-07
1.48444e-07
4.44349e-07
4.45434e-07
7.12344e-07
1.48424e-07
4.44211e-07
4.45917e-07
7.12506e-07
1.48408e-07
4.44215e-07
4.4639e-07
7.12724e-07
1.48409e-07
4.44293e-07
4.4666e-07
7.12828e-07
1.4844e-07
4.44425e-07
4.46912e-07
7.12764e-07
1.48492e-07
4.44532e-07
4.47015e-07
7.12466e-07
1.48561e-07
4.44563e-07
4.47094e-07
7.12068e-07
1.48587e-07
4.44603e-07
4.47184e-07
7.11837e-07
1.48617e-07
4.44634e-07
4.47253e-07
7.11832e-07
1.48617e-07
4.44728e-07
4.47326e-07
7.11798e-07
1.48621e-07
4.448e-07
4.47311e-07
7.12148e-07
1.48618e-07
4.44873e-07
4.47236e-07
7.12167e-07
1.48599e-07
4.44958e-07
4.47017e-07
7.1181e-07
1.4858e-07
4.44971e-07
4.46813e-07
7.1197e-07
1.48537e-07
4.45005e-07
4.46638e-07
7.12473e-07
1.48494e-07
4.44964e-07
4.46488e-07
7.12476e-07
1.48466e-07
4.44965e-07
4.46438e-07
7.1283e-07
1.48432e-07
4.45044e-07
4.46326e-07
7.13674e-07
1.48457e-07
4.45134e-07
4.4622e-07
7.14272e-07
1.48505e-07
4.45291e-07
4.46115e-07
7.14764e-07
1.48554e-07
4.45564e-07
4.46049e-07
7.1497e-07
1.48613e-07
4.45804e-07
4.46028e-07
7.14797e-07
1.48661e-07
4.4597e-07
4.46041e-07
7.14942e-07
1.48738e-07
4.46041e-07
4.4608e-07
7.15196e-07
1.4883e-07
4.4599e-07
4.46153e-07
7.1595e-07
1.48906e-07
4.45852e-07
4.46259e-07
7.16144e-07
1.48992e-07
4.45751e-07
4.46342e-07
7.1659e-07
1.49094e-07
4.45719e-07
4.46326e-07
7.16964e-07
1.4917e-07
4.45644e-07
4.46208e-07
7.15947e-07
1.49034e-07
4.45384e-07
4.45907e-07
7.08879e-07
1.4146e-07
4.0813e-07
4.08601e-07
6.61219e-07
7.10693e-07
4.4363e-07
4.43664e-07
4.43705e-07
7.10587e-07
7.08796e-07
4.43417e-07
4.42986e-07
4.44379e-07
4.43947e-07
4.44463e-07
7.09787e-07
4.44257e-07
4.43264e-07
4.44563e-07
7.11212e-07
7.12558e-07
7.10924e-07
4.43788e-07
4.43797e-07
4.44177e-07
4.44249e-07
7.11291e-07
7.09134e-07
4.43437e-07
4.43089e-07
4.43544e-07
4.43438e-07
4.44427e-07
4.444e-07
4.44848e-07
7.116e-07
7.09726e-07
4.44691e-07
4.43418e-07
4.45125e-07
7.1192e-07
7.1335e-07
7.10468e-07
4.44186e-07
4.4423e-07
4.4453e-07
4.44651e-07
7.11724e-07
7.10255e-07
4.4352e-07
4.43433e-07
4.43584e-07
4.43806e-07
4.44853e-07
4.4491e-07
4.45167e-07
7.1206e-07
7.09451e-07
4.45096e-07
4.43571e-07
4.45487e-07
7.1198e-07
7.12971e-07
7.10299e-07
4.44555e-07
4.44693e-07
4.44904e-07
4.45143e-07
7.12177e-07
7.10355e-07
4.43635e-07
4.43887e-07
4.43769e-07
4.44392e-07
4.45176e-07
4.45404e-07
4.45429e-07
7.11666e-07
7.09784e-07
4.45463e-07
4.43664e-07
4.45811e-07
7.12133e-07
7.12842e-07
7.10623e-07
4.44934e-07
4.45062e-07
4.45303e-07
4.45552e-07
7.1226e-07
7.10585e-07
4.43772e-07
4.44372e-07
4.43919e-07
4.44899e-07
4.45447e-07
4.4577e-07
4.457e-07
7.1167e-07
7.09545e-07
4.45814e-07
4.43806e-07
4.46118e-07
7.11827e-07
7.1252e-07
7.10324e-07
4.45348e-07
4.45514e-07
4.45615e-07
4.45956e-07
7.1245e-07
7.10531e-07
4.43886e-07
4.44934e-07
4.44032e-07
4.45546e-07
4.45668e-07
4.46096e-07
4.45893e-07
7.11311e-07
7.09435e-07
4.46114e-07
4.44e-07
4.46405e-07
7.12476e-07
7.1269e-07
7.10266e-07
4.45684e-07
4.45976e-07
4.45831e-07
4.4631e-07
7.13024e-07
7.1147e-07
4.44011e-07
4.45625e-07
4.44103e-07
4.46237e-07
4.45902e-07
4.46439e-07
4.45991e-07
7.11305e-07
7.09958e-07
4.46368e-07
4.44229e-07
4.46536e-07
7.12084e-07
7.12757e-07
7.10529e-07
4.45753e-07
4.46331e-07
4.45826e-07
4.46598e-07
7.13448e-07
7.12117e-07
4.4407e-07
4.46285e-07
4.44094e-07
4.46792e-07
4.4596e-07
4.46614e-07
4.45971e-07
7.12287e-07
7.10907e-07
4.46536e-07
4.44554e-07
4.46584e-07
7.11426e-07
7.13133e-07
7.1143e-07
4.45691e-07
4.46557e-07
4.45658e-07
4.46627e-07
7.14007e-07
7.11922e-07
4.44091e-07
4.46839e-07
4.44096e-07
4.47158e-07
4.45968e-07
4.46658e-07
4.45902e-07
7.13401e-07
7.10391e-07
4.4653e-07
4.44623e-07
4.46572e-07
7.11343e-07
7.13315e-07
7.10709e-07
4.45662e-07
4.46614e-07
4.45351e-07
4.46496e-07
7.13736e-07
7.11149e-07
4.44064e-07
4.47119e-07
4.44042e-07
4.47215e-07
4.45771e-07
4.46548e-07
4.45758e-07
7.12815e-07
7.09948e-07
4.4653e-07
4.44686e-07
4.46489e-07
7.11523e-07
7.12462e-07
7.10265e-07
4.45181e-07
4.46447e-07
4.44865e-07
4.46141e-07
7.12996e-07
7.0995e-07
4.44015e-07
4.47194e-07
4.4394e-07
4.47085e-07
4.4572e-07
4.4623e-07
4.45654e-07
7.12222e-07
7.09669e-07
4.46412e-07
4.44539e-07
4.46279e-07
7.11111e-07
7.12097e-07
7.10094e-07
4.44655e-07
4.45996e-07
4.4434e-07
4.45602e-07
7.1193e-07
7.08683e-07
4.43944e-07
4.469e-07
4.43889e-07
4.46699e-07
4.45591e-07
4.45797e-07
4.45479e-07
7.1147e-07
7.09584e-07
4.46187e-07
4.44378e-07
4.45929e-07
7.10588e-07
7.11931e-07
7.1e-07
4.44164e-07
4.45493e-07
4.44008e-07
4.45152e-07
7.11058e-07
7.08306e-07
4.43757e-07
4.46589e-07
4.43776e-07
4.46446e-07
4.45289e-07
4.45407e-07
4.45216e-07
7.11345e-07
7.09548e-07
4.45785e-07
4.44255e-07
4.4556e-07
7.10134e-07
7.11848e-07
7.09958e-07
4.43865e-07
4.45039e-07
4.43848e-07
4.44857e-07
7.10812e-07
7.08537e-07
4.43613e-07
4.46304e-07
4.43484e-07
4.46283e-07
4.45114e-07
4.45039e-07
4.44982e-07
7.12158e-07
7.1051e-07
4.45401e-07
4.44246e-07
4.45232e-07
7.10154e-07
7.11815e-07
7.09954e-07
4.43843e-07
4.44684e-07
4.4382e-07
4.44681e-07
7.11078e-07
7.08501e-07
4.43458e-07
4.46086e-07
4.43282e-07
4.46162e-07
4.44868e-07
4.44756e-07
4.44727e-07
7.1244e-07
7.11156e-07
4.45062e-07
4.44408e-07
4.44919e-07
7.09953e-07
7.11709e-07
7.09411e-07
4.43798e-07
4.44659e-07
4.43807e-07
4.44537e-07
7.11033e-07
7.08651e-07
4.43124e-07
4.46175e-07
4.4298e-07
4.46142e-07
4.44667e-07
4.44535e-07
4.44517e-07
7.13098e-07
7.11875e-07
4.4476e-07
4.44744e-07
4.44663e-07
7.09919e-07
7.11214e-07
7.09291e-07
4.43817e-07
4.44506e-07
4.43831e-07
4.44487e-07
7.1119e-07
7.08847e-07
4.42925e-07
4.46112e-07
4.42915e-07
4.46121e-07
4.44481e-07
4.44363e-07
4.44431e-07
7.13816e-07
7.1266e-07
4.44528e-07
4.45178e-07
4.44476e-07
7.09904e-07
7.11176e-07
7.09725e-07
4.43832e-07
4.44371e-07
4.43871e-07
4.44375e-07
7.11383e-07
7.09083e-07
4.42867e-07
4.46114e-07
4.42965e-07
4.46164e-07
4.44405e-07
4.44211e-07
4.4441e-07
7.14625e-07
7.13556e-07
4.44477e-07
4.45679e-07
4.444e-07
7.1006e-07
7.1165e-07
7.10267e-07
4.43869e-07
4.44355e-07
4.43913e-07
4.44431e-07
7.11656e-07
7.0965e-07
4.42919e-07
4.4616e-07
4.43051e-07
4.46204e-07
4.44412e-07
4.44206e-07
4.4443e-07
7.15518e-07
7.14318e-07
4.44389e-07
4.46214e-07
4.44369e-07
7.10284e-07
7.12182e-07
7.10672e-07
4.43936e-07
4.44447e-07
4.44035e-07
4.44578e-07
7.12249e-07
7.10235e-07
4.43033e-07
4.46174e-07
4.43216e-07
4.46192e-07
4.44437e-07
4.44241e-07
4.44448e-07
7.16266e-07
7.14823e-07
4.44332e-07
4.46499e-07
4.44275e-07
7.1041e-07
7.12576e-07
7.11122e-07
4.44083e-07
4.44564e-07
4.44298e-07
4.44674e-07
7.12811e-07
7.10695e-07
4.43215e-07
4.46164e-07
4.43412e-07
4.46186e-07
4.44464e-07
4.44354e-07
4.44393e-07
7.17293e-07
7.15333e-07
4.44255e-07
4.4679e-07
4.4425e-07
7.10372e-07
7.13042e-07
7.11521e-07
4.44377e-07
4.44665e-07
4.44571e-07
4.44737e-07
7.13283e-07
7.1089e-07
4.43429e-07
4.46168e-07
4.43634e-07
4.46169e-07
4.44268e-07
4.44477e-07
4.4433e-07
7.17924e-07
7.15806e-07
4.44199e-07
4.46955e-07
4.4408e-07
7.10092e-07
7.13365e-07
7.11345e-07
4.44667e-07
4.44713e-07
4.44937e-07
4.44719e-07
7.13232e-07
7.11474e-07
4.43606e-07
4.46081e-07
4.43843e-07
4.46084e-07
4.44131e-07
4.44542e-07
4.44195e-07
7.17962e-07
7.16135e-07
4.43961e-07
4.47054e-07
4.43793e-07
7.10192e-07
7.13274e-07
7.11222e-07
4.44923e-07
4.44704e-07
4.4513e-07
4.4468e-07
7.13365e-07
7.118e-07
4.43893e-07
4.45966e-07
4.44115e-07
4.46007e-07
4.44106e-07
4.44585e-07
4.44075e-07
7.17998e-07
7.16297e-07
4.43752e-07
4.47141e-07
4.43521e-07
7.09954e-07
7.13758e-07
7.11432e-07
4.45117e-07
4.44677e-07
4.45279e-07
4.44656e-07
7.13797e-07
7.11979e-07
4.44086e-07
4.45952e-07
4.44257e-07
4.4604e-07
4.44059e-07
4.44621e-07
4.44043e-07
7.18201e-07
7.16509e-07
4.43493e-07
4.47212e-07
4.43341e-07
7.09907e-07
7.13962e-07
7.11974e-07
4.45227e-07
4.44556e-07
4.45259e-07
4.44459e-07
7.14533e-07
7.12777e-07
4.44238e-07
4.46041e-07
4.44412e-07
4.46109e-07
4.44027e-07
4.4469e-07
4.44052e-07
7.18419e-07
7.16159e-07
4.43184e-07
4.47308e-07
4.43133e-07
7.09921e-07
7.13882e-07
7.12097e-07
4.4526e-07
4.44431e-07
4.45237e-07
4.44308e-07
7.14753e-07
7.12823e-07
4.44397e-07
4.46107e-07
4.44537e-07
4.46192e-07
4.44027e-07
4.44756e-07
4.44106e-07
7.18532e-07
7.15648e-07
4.43126e-07
4.47347e-07
4.43049e-07
7.09671e-07
7.13991e-07
7.12374e-07
4.45228e-07
4.44169e-07
4.4525e-07
4.44266e-07
7.15236e-07
7.13059e-07
4.44497e-07
4.46168e-07
4.44629e-07
4.46262e-07
4.44054e-07
4.44857e-07
4.44122e-07
7.18015e-07
7.14483e-07
4.43033e-07
4.47248e-07
4.43051e-07
7.09725e-07
7.14278e-07
7.12417e-07
4.45224e-07
4.44058e-07
4.45185e-07
4.44133e-07
7.15634e-07
7.13595e-07
4.4461e-07
4.46269e-07
4.44684e-07
4.46314e-07
4.44122e-07
4.44923e-07
4.44208e-07
7.16837e-07
7.13876e-07
4.43028e-07
4.47045e-07
4.43026e-07
7.09435e-07
7.14825e-07
7.1257e-07
4.4503e-07
4.44146e-07
4.45013e-07
4.44145e-07
7.15661e-07
7.13788e-07
4.44676e-07
4.46301e-07
4.44699e-07
4.46375e-07
4.44093e-07
4.44944e-07
4.44055e-07
7.15751e-07
7.13875e-07
4.42966e-07
4.46821e-07
4.42941e-07
7.09491e-07
7.15117e-07
7.12668e-07
4.45021e-07
4.44076e-07
4.44833e-07
4.44018e-07
7.15533e-07
7.12929e-07
4.44676e-07
4.46346e-07
4.44754e-07
4.46379e-07
4.44028e-07
4.44997e-07
4.43985e-07
7.15773e-07
7.14004e-07
4.42845e-07
4.46645e-07
4.4284e-07
7.10042e-07
7.15219e-07
7.13081e-07
4.44675e-07
4.43955e-07
4.44549e-07
4.43895e-07
7.14731e-07
7.12557e-07
4.44655e-07
4.46379e-07
4.44715e-07
4.46388e-07
4.43971e-07
4.44968e-07
4.43915e-07
7.15836e-07
7.13943e-07
4.42807e-07
4.46499e-07
4.42794e-07
7.10587e-07
7.15018e-07
7.1303e-07
4.44429e-07
4.4385e-07
4.44346e-07
4.43854e-07
7.14786e-07
7.12081e-07
4.44722e-07
4.46286e-07
4.44739e-07
4.46235e-07
4.43759e-07
4.4495e-07
4.43809e-07
7.15799e-07
7.13812e-07
4.42753e-07
4.4644e-07
4.42835e-07
7.10882e-07
7.14903e-07
7.13123e-07
4.44188e-07
4.43855e-07
4.44176e-07
4.43923e-07
7.14611e-07
7.11936e-07
4.44745e-07
4.46216e-07
4.44819e-07
4.46171e-07
4.43768e-07
4.44991e-07
4.43954e-07
7.16235e-07
7.14369e-07
4.4281e-07
4.46325e-07
4.42977e-07
7.11673e-07
7.15141e-07
7.12521e-07
4.44182e-07
4.43909e-07
4.44168e-07
4.4398e-07
7.14444e-07
7.11643e-07
4.44862e-07
4.46168e-07
4.44908e-07
4.46196e-07
4.43956e-07
4.45065e-07
4.44101e-07
7.16461e-07
7.14988e-07
4.42971e-07
4.46219e-07
4.43116e-07
7.12294e-07
7.14424e-07
7.12371e-07
4.44171e-07
4.43992e-07
4.44195e-07
4.44093e-07
7.14199e-07
7.11999e-07
4.44944e-07
4.46245e-07
4.44989e-07
4.46353e-07
4.44079e-07
4.45198e-07
4.44255e-07
7.16906e-07
7.15495e-07
4.43127e-07
4.46113e-07
4.43206e-07
7.12777e-07
7.14237e-07
7.12651e-07
4.44205e-07
4.44104e-07
4.44277e-07
4.44236e-07
7.14602e-07
7.12677e-07
4.45062e-07
4.46311e-07
4.45166e-07
4.46507e-07
4.44279e-07
4.45432e-07
4.44452e-07
7.17442e-07
7.16102e-07
4.4323e-07
4.46038e-07
4.43385e-07
7.12718e-07
7.14587e-07
7.13127e-07
4.44244e-07
4.44271e-07
4.443e-07
4.44522e-07
7.15006e-07
7.1365e-07
4.45233e-07
4.46555e-07
4.45344e-07
4.4679e-07
4.4449e-07
4.45701e-07
4.44631e-07
7.18057e-07
7.16742e-07
4.43453e-07
4.46006e-07
4.43529e-07
7.12456e-07
7.15017e-07
7.12576e-07
4.44343e-07
4.44539e-07
4.44344e-07
4.44681e-07
7.15458e-07
7.13207e-07
4.45422e-07
4.46834e-07
4.45534e-07
4.47101e-07
4.4466e-07
4.45898e-07
4.4481e-07
7.18704e-07
7.17354e-07
4.43572e-07
4.46003e-07
4.43622e-07
7.12458e-07
7.14934e-07
7.12656e-07
4.44382e-07
4.44822e-07
4.44399e-07
4.45046e-07
7.15626e-07
7.13575e-07
4.4553e-07
4.47089e-07
4.45745e-07
4.47361e-07
4.44875e-07
4.45996e-07
4.45007e-07
7.19309e-07
7.17882e-07
4.43665e-07
4.46029e-07
4.43705e-07
7.13218e-07
7.15226e-07
7.12644e-07
4.44449e-07
4.45133e-07
4.44521e-07
4.4533e-07
7.16181e-07
7.1398e-07
4.45732e-07
4.47384e-07
4.45926e-07
4.47613e-07
4.45074e-07
4.45966e-07
4.45145e-07
7.19829e-07
7.18337e-07
4.43775e-07
4.46081e-07
4.43936e-07
7.13404e-07
7.15158e-07
7.12887e-07
4.44604e-07
4.45405e-07
4.44768e-07
4.45525e-07
7.165e-07
7.14342e-07
4.46009e-07
4.47676e-07
4.46151e-07
4.47882e-07
4.45231e-07
4.45827e-07
4.45277e-07
7.20293e-07
7.18603e-07
4.44017e-07
4.46172e-07
4.4427e-07
7.14172e-07
7.15524e-07
7.13067e-07
4.44891e-07
4.45639e-07
4.45104e-07
4.45721e-07
7.16347e-07
7.146e-07
4.46276e-07
4.47998e-07
4.46403e-07
4.482e-07
4.45366e-07
4.45688e-07
4.45422e-07
7.21049e-07
7.18628e-07
4.44404e-07
4.46248e-07
4.44724e-07
7.1467e-07
7.1563e-07
7.1354e-07
4.45248e-07
4.45844e-07
4.45455e-07
4.45898e-07
7.16524e-07
7.145e-07
4.46544e-07
4.48342e-07
4.46627e-07
4.48461e-07
4.45534e-07
4.45631e-07
4.45599e-07
7.21249e-07
7.18718e-07
4.44892e-07
4.46245e-07
4.45202e-07
7.14555e-07
7.15444e-07
7.13154e-07
4.45625e-07
4.46027e-07
4.45779e-07
4.46014e-07
7.16324e-07
7.13829e-07
4.46767e-07
4.48615e-07
4.468e-07
4.4862e-07
4.45729e-07
4.45553e-07
4.45726e-07
7.20429e-07
7.1527e-07
4.454e-07
4.46126e-07
4.45649e-07
7.13086e-07
7.15023e-07
7.07164e-07
4.45988e-07
4.46129e-07
4.45763e-07
4.45667e-07
7.15546e-07
7.09596e-07
4.4694e-07
4.48746e-07
4.46554e-07
4.48287e-07
4.45847e-07
4.45091e-07
4.45408e-07
7.17626e-07
7.11877e-07
4.45867e-07
4.45615e-07
4.45651e-07
7.08851e-07
7.07739e-07
6.84469e-07
4.46104e-07
4.45967e-07
4.32148e-07
4.31849e-07
7.09128e-07
6.83544e-07
4.46869e-07
4.48589e-07
4.32848e-07
4.34194e-07
4.45717e-07
4.31014e-07
4.3151e-07
7.12224e-07
6.86873e-07
4.45992e-07
4.31371e-07
4.32061e-07
6.84349e-07
6.62198e-07
4.08613e-07
4.0815e-07
6.6129e-07
4.09199e-07
4.10365e-07
1.41109e-07
1.41572e-07
1.41166e-07
4.07704e-07
6.6455e-07
4.08291e-07
3.95885e-06
8.89371e-06
3.95932e-06
1.81108e-05
1.81151e-05
3.95341e-06
8.89632e-06
1.48442e-07
1.48525e-07
1.48439e-07
1.48534e-07
1.48284e-07
1.48632e-07
1.74029e-06
3.2059e-06
2.45645e-07
4.43738e-07
3.20525e-06
2.45707e-07
1.74131e-06
1.81064e-05
1.73816e-06
2.45263e-07
4.43204e-07
2.45301e-07
3.20524e-06
1.73804e-06
5.28543e-06
5.28683e-06
7.10831e-07
5.28496e-06
5.28578e-06
3.95985e-06
8.89523e-06
3.95983e-06
8.89673e-06
1.81142e-05
1.81184e-05
3.95333e-06
8.89601e-06
3.95381e-06
8.89614e-06
1.48587e-07
1.4833e-07
1.48666e-07
1.48493e-07
1.48728e-07
1.48453e-07
1.488e-07
1.74138e-06
3.20641e-06
2.46097e-07
4.44193e-07
1.74147e-06
3.20597e-06
2.46048e-07
1.81031e-05
1.81068e-05
1.73927e-06
2.45418e-07
3.20585e-06
4.43331e-07
1.73954e-06
2.45426e-07
3.20565e-06
5.28523e-06
5.28624e-06
7.11523e-07
5.28438e-06
5.28558e-06
3.96068e-06
8.89827e-06
3.96082e-06
8.89924e-06
1.8117e-05
1.8121e-05
3.9548e-06
8.89588e-06
3.95462e-06
8.89661e-06
1.487e-07
1.48454e-07
1.48782e-07
1.48552e-07
1.48838e-07
1.48561e-07
1.4889e-07
1.74262e-06
3.20742e-06
2.46435e-07
4.44681e-07
1.74276e-06
3.20719e-06
2.46371e-07
1.81051e-05
1.81091e-05
1.7408e-06
2.45505e-07
3.20708e-06
4.43512e-07
1.74114e-06
2.45512e-07
3.20656e-06
5.28538e-06
5.28635e-06
7.11788e-07
5.2852e-06
5.2858e-06
3.96134e-06
8.89969e-06
3.9615e-06
8.90035e-06
1.81197e-05
1.81239e-05
3.95552e-06
8.89737e-06
3.95564e-06
8.89847e-06
1.48822e-07
1.48583e-07
1.48903e-07
1.48627e-07
1.48955e-07
1.48715e-07
1.48972e-07
1.74408e-06
3.20883e-06
2.46731e-07
4.45179e-07
1.7441e-06
3.20822e-06
2.46689e-07
1.81074e-05
1.81116e-05
1.73873e-06
2.45559e-07
3.20703e-06
4.43638e-07
1.73869e-06
2.45539e-07
3.20603e-06
5.28669e-06
5.28699e-06
7.12083e-07
5.2862e-06
5.28651e-06
3.96189e-06
8.9016e-06
3.96207e-06
8.90313e-06
1.81226e-05
1.81264e-05
3.95605e-06
8.8995e-06
3.95626e-06
8.90043e-06
1.48942e-07
1.48706e-07
1.48982e-07
1.48696e-07
1.49063e-07
1.48801e-07
1.49042e-07
1.74594e-06
3.20948e-06
2.46966e-07
4.4561e-07
1.74607e-06
3.20924e-06
2.46986e-07
1.81106e-05
1.81154e-05
1.73662e-06
2.45545e-07
3.20717e-06
4.43765e-07
1.73795e-06
2.45467e-07
3.2067e-06
5.28765e-06
5.28746e-06
7.1201e-07
5.28702e-06
5.28682e-06
3.96313e-06
8.90421e-06
3.9633e-06
8.90543e-06
1.81246e-05
1.81282e-05
3.95652e-06
8.90105e-06
3.9567e-06
8.90166e-06
1.49066e-07
1.48848e-07
1.49045e-07
1.48763e-07
1.49168e-07
1.48976e-07
1.4911e-07
1.74702e-06
3.21085e-06
2.47143e-07
4.45976e-07
1.74728e-06
3.21048e-06
2.47183e-07
1.81151e-05
1.81198e-05
1.73434e-06
2.45447e-07
3.20802e-06
4.43879e-07
1.7362e-06
2.45333e-07
3.20736e-06
5.28831e-06
5.28762e-06
7.12088e-07
5.28755e-06
5.28689e-06
3.96321e-06
8.90419e-06
3.96363e-06
8.90318e-06
1.81272e-05
1.81317e-05
3.95738e-06
8.90148e-06
3.95779e-06
8.90176e-06
1.49163e-07
1.48975e-07
1.49098e-07
1.48816e-07
1.49245e-07
1.49092e-07
1.49143e-07
1.74743e-06
3.21148e-06
2.47321e-07
4.46264e-07
1.74754e-06
3.21074e-06
2.47326e-07
1.81191e-05
1.81232e-05
1.73441e-06
2.45297e-07
3.20787e-06
4.44115e-07
1.73546e-06
2.45198e-07
3.20726e-06
5.28857e-06
5.2878e-06
7.12444e-07
5.28801e-06
5.28697e-06
3.96329e-06
8.89972e-06
3.96362e-06
8.89916e-06
1.813e-05
1.81332e-05
3.95677e-06
8.90137e-06
3.95777e-06
8.90165e-06
1.49241e-07
1.4909e-07
1.49133e-07
1.48826e-07
1.49311e-07
1.49217e-07
1.49164e-07
1.74815e-06
3.21163e-06
2.4746e-07
4.46535e-07
1.74834e-06
3.21089e-06
2.47474e-07
1.81203e-05
1.81235e-05
1.73246e-06
2.45154e-07
3.20865e-06
4.44384e-07
1.7346e-06
2.45025e-07
3.20842e-06
5.28793e-06
5.28789e-06
7.11585e-07
5.28618e-06
5.28706e-06
3.96313e-06
8.89794e-06
3.96393e-06
8.89793e-06
1.81283e-05
1.81295e-05
3.95615e-06
8.90077e-06
3.95671e-06
8.90061e-06
1.49315e-07
1.49217e-07
1.49162e-07
1.48832e-07
1.49342e-07
1.49303e-07
1.49161e-07
1.74884e-06
3.21208e-06
2.47545e-07
4.46664e-07
1.74915e-06
3.21196e-06
2.4755e-07
1.81204e-05
1.81233e-05
1.73241e-06
2.44993e-07
3.20976e-06
4.44605e-07
1.73266e-06
2.44884e-07
3.20935e-06
5.28613e-06
5.2883e-06
7.11237e-07
5.28563e-06
5.28794e-06
3.96298e-06
8.89688e-06
3.96354e-06
8.89648e-06
1.81241e-05
1.81261e-05
3.95466e-06
8.90008e-06
3.95622e-06
8.90063e-06
1.4934e-07
1.49289e-07
1.49158e-07
1.48807e-07
1.49329e-07
1.49332e-07
1.49149e-07
1.7481e-06
3.21356e-06
2.47619e-07
4.46604e-07
1.74949e-06
3.21326e-06
2.47623e-07
1.81186e-05
1.81207e-05
1.73419e-06
2.44832e-07
3.21028e-06
4.44633e-07
1.73428e-06
2.44761e-07
3.20963e-06
5.28711e-06
5.28735e-06
7.116e-07
5.28664e-06
5.28632e-06
3.96177e-06
8.89531e-06
3.9627e-06
8.89523e-06
1.81225e-05
1.81254e-05
3.95372e-06
8.90076e-06
3.95462e-06
8.90112e-06
1.49327e-07
1.49319e-07
1.49145e-07
1.4875e-07
1.49289e-07
1.49314e-07
1.49123e-07
1.74888e-06
3.21434e-06
2.47622e-07
4.46324e-07
1.74905e-06
3.21409e-06
2.47605e-07
1.81165e-05
1.81195e-05
1.73018e-06
2.44712e-07
3.21018e-06
4.4451e-07
1.73214e-06
2.44671e-07
3.20899e-06
5.28735e-06
5.28707e-06
7.11226e-07
5.28674e-06
5.286e-06
3.96136e-06
8.89444e-06
3.96199e-06
8.89463e-06
1.81214e-05
1.81235e-05
3.95371e-06
8.901e-06
3.95389e-06
8.90039e-06
1.49226e-07
1.49311e-07
1.49111e-07
1.48683e-07
1.49176e-07
1.49285e-07
1.49078e-07
1.74885e-06
3.21556e-06
2.4761e-07
4.45871e-07
1.74925e-06
3.21511e-06
2.47587e-07
1.81158e-05
1.81186e-05
1.73136e-06
2.4468e-07
3.20895e-06
4.4437e-07
1.73146e-06
2.4459e-07
3.20805e-06
5.28795e-06
5.28646e-06
7.10645e-07
5.28651e-06
5.28561e-06
3.96086e-06
8.89464e-06
3.9614e-06
8.89521e-06
1.8119e-05
1.81216e-05
3.95513e-06
8.89783e-06
3.95507e-06
8.89726e-06
1.49141e-07
1.49281e-07
1.49013e-07
1.48617e-07
1.49031e-07
1.49232e-07
1.48974e-07
1.74592e-06
3.21658e-06
2.47564e-07
4.45477e-07
1.7485e-06
3.21653e-06
2.47494e-07
1.81153e-05
1.81184e-05
1.73377e-06
2.4462e-07
3.20898e-06
4.44266e-07
1.73359e-06
2.44548e-07
3.20781e-06
5.28682e-06
5.28708e-06
7.10225e-07
5.28646e-06
5.28688e-06
3.96194e-06
8.89537e-06
3.96207e-06
8.89597e-06
1.81179e-05
1.81204e-05
3.95472e-06
8.89559e-06
3.95506e-06
8.89517e-06
1.48979e-07
1.49188e-07
1.48966e-07
1.48562e-07
1.48906e-07
1.49145e-07
1.48896e-07
1.74793e-06
3.21825e-06
2.47497e-07
4.45088e-07
1.74804e-06
3.21757e-06
2.4745e-07
1.81151e-05
1.81182e-05
1.73443e-06
2.44542e-07
3.20756e-06
4.44225e-07
1.73516e-06
2.44532e-07
3.20639e-06
5.28793e-06
5.28823e-06
7.09875e-07
5.28756e-06
5.28793e-06
3.96201e-06
8.89635e-06
3.96253e-06
8.89673e-06
1.81172e-05
1.81201e-05
3.95524e-06
8.89374e-06
3.95557e-06
8.89339e-06
1.48857e-07
1.49134e-07
1.48863e-07
1.48521e-07
1.48804e-07
1.49114e-07
1.48802e-07
1.74882e-06
3.21906e-06
2.47411e-07
4.4478e-07
1.74941e-06
3.21872e-06
2.47345e-07
1.81155e-05
1.81185e-05
1.73582e-06
2.44617e-07
3.20716e-06
4.44275e-07
1.73563e-06
2.44612e-07
3.20702e-06
5.28832e-06
5.28937e-06
7.10035e-07
5.28751e-06
5.28897e-06
3.96243e-06
8.89563e-06
3.96261e-06
8.89539e-06
1.81166e-05
1.81194e-05
3.95546e-06
8.89244e-06
3.95564e-06
8.89264e-06
1.4875e-07
1.49078e-07
1.48733e-07
1.48491e-07
1.48707e-07
1.49089e-07
1.48683e-07
1.749e-06
3.22004e-06
2.47367e-07
4.44589e-07
1.74927e-06
3.21963e-06
2.47221e-07
1.81156e-05
1.81185e-05
1.73621e-06
2.44757e-07
3.20821e-06
4.44541e-07
1.73642e-06
2.44743e-07
3.2075e-06
5.28888e-06
5.28962e-06
7.0986e-07
5.28862e-06
5.28887e-06
3.96308e-06
8.89433e-06
3.96363e-06
8.89401e-06
1.81158e-05
1.81186e-05
3.95588e-06
8.89282e-06
3.95602e-06
8.89346e-06
1.48652e-07
1.49088e-07
1.48674e-07
1.48446e-07
1.48617e-07
1.49102e-07
1.48621e-07
1.74712e-06
3.22064e-06
2.47241e-07
4.44396e-07
1.74672e-06
3.22008e-06
2.47153e-07
1.81151e-05
1.81186e-05
1.73728e-06
2.45046e-07
3.20832e-06
4.44915e-07
1.73751e-06
2.45066e-07
3.20818e-06
5.29001e-06
5.29003e-06
7.09928e-07
5.28932e-06
5.28981e-06
3.96276e-06
8.89298e-06
3.96348e-06
8.8931e-06
1.81162e-05
1.81196e-05
3.95768e-06
8.89383e-06
3.95746e-06
8.89455e-06
1.4858e-07
1.49101e-07
1.48595e-07
1.48425e-07
1.48536e-07
1.49122e-07
1.48566e-07
1.74213e-06
3.22094e-06
2.47149e-07
4.44238e-07
1.74705e-06
3.22032e-06
2.47069e-07
1.81169e-05
1.81205e-05
1.73836e-06
2.45272e-07
3.20966e-06
4.45447e-07
1.73839e-06
2.45335e-07
3.20936e-06
5.28972e-06
5.29095e-06
7.09889e-07
5.28871e-06
5.29051e-06
3.96362e-06
8.89299e-06
3.96376e-06
8.89352e-06
1.81178e-05
1.81216e-05
3.95788e-06
8.8948e-06
3.95825e-06
8.8953e-06
1.48528e-07
1.49123e-07
1.48502e-07
1.48416e-07
1.48483e-07
1.49143e-07
1.48487e-07
1.73962e-06
3.22062e-06
2.4702e-07
4.44209e-07
1.74281e-06
3.21974e-06
2.46918e-07
1.81181e-05
1.81214e-05
1.73783e-06
2.45577e-07
3.21101e-06
4.45918e-07
1.73788e-06
2.45614e-07
3.21105e-06
5.28959e-06
5.29203e-06
7.10076e-07
5.28852e-06
5.29159e-06
3.96431e-06
8.89397e-06
3.96467e-06
8.89516e-06
1.81193e-05
1.81223e-05
3.95862e-06
8.89551e-06
3.95865e-06
8.8961e-06
1.48472e-07
1.49138e-07
1.48484e-07
1.48409e-07
1.48456e-07
1.49149e-07
1.48441e-07
1.74254e-06
3.22065e-06
2.46894e-07
4.44215e-07
1.74282e-06
3.22021e-06
2.46765e-07
1.81179e-05
1.81213e-05
1.73915e-06
2.45854e-07
3.21291e-06
4.4637e-07
1.73879e-06
2.45853e-07
3.21274e-06
5.28845e-06
5.29264e-06
7.10258e-07
5.28782e-06
5.29188e-06
3.96541e-06
8.89592e-06
3.96566e-06
8.89667e-06
1.81181e-05
1.81208e-05
3.95962e-06
8.89748e-06
3.9594e-06
8.89915e-06
1.48454e-07
1.49138e-07
1.48433e-07
1.48422e-07
1.48473e-07
1.49129e-07
1.48388e-07
1.73938e-06
3.2212e-06
2.46705e-07
4.44293e-07
1.74352e-06
3.22059e-06
2.46598e-07
1.81197e-05
1.8124e-05
1.74e-06
2.46126e-07
3.2146e-06
4.46682e-07
1.74047e-06
2.4611e-07
3.21402e-06
5.28849e-06
5.29285e-06
7.10324e-07
5.2878e-06
5.29189e-06
3.96564e-06
8.89704e-06
3.96598e-06
8.89771e-06
1.81159e-05
1.81171e-05
3.96071e-06
8.90102e-06
3.96087e-06
8.90256e-06
1.48455e-07
1.49126e-07
1.48378e-07
1.48471e-07
1.48483e-07
1.49107e-07
1.4833e-07
1.74179e-06
3.22131e-06
2.46547e-07
4.44414e-07
1.74178e-06
3.22005e-06
2.46431e-07
1.81222e-05
1.81258e-05
1.74125e-06
2.46362e-07
3.21569e-06
4.46913e-07
1.74121e-06
2.4634e-07
3.21548e-06
5.28925e-06
5.2926e-06
7.10147e-07
5.28889e-06
5.29151e-06
3.96525e-06
8.89788e-06
3.96563e-06
8.8988e-06
1.81092e-05
1.81104e-05
3.96114e-06
8.90394e-06
3.96167e-06
8.9049e-06
1.48482e-07
1.49105e-07
1.48327e-07
1.48547e-07
1.48492e-07
1.49096e-07
1.48288e-07
1.74233e-06
3.22075e-06
2.464e-07
4.44525e-07
1.7432e-06
3.21995e-06
2.46297e-07
1.81231e-05
1.81266e-05
1.74265e-06
2.46528e-07
3.21712e-06
4.47021e-07
1.74274e-06
2.46541e-07
3.21686e-06
5.29028e-06
5.29116e-06
7.09867e-07
5.28972e-06
5.28982e-06
3.96453e-06
8.90024e-06
3.96539e-06
8.90183e-06
1.81067e-05
1.81098e-05
3.96113e-06
8.90581e-06
3.96163e-06
8.90703e-06
1.48482e-07
1.49055e-07
1.48239e-07
1.4857e-07
1.4849e-07
1.49063e-07
1.48226e-07
1.74305e-06
3.22087e-06
2.46242e-07
4.4457e-07
1.74284e-06
3.22013e-06
2.4616e-07
1.81242e-05
1.81279e-05
1.74022e-06
2.46707e-07
3.21808e-06
4.47077e-07
1.74364e-06
2.46635e-07
3.21771e-06
5.29015e-06
5.29003e-06
7.10034e-07
5.28927e-06
5.28827e-06
3.96448e-06
8.90278e-06
3.96519e-06
8.90362e-06
1.81069e-05
1.81095e-05
3.96022e-06
8.90787e-06
3.96088e-06
8.90849e-06
1.4847e-07
1.49061e-07
1.48223e-07
1.48606e-07
1.48478e-07
1.49071e-07
1.48221e-07
1.74228e-06
3.22023e-06
2.46116e-07
4.44606e-07
1.74404e-06
3.21931e-06
2.46027e-07
1.81258e-05
1.81289e-05
1.73924e-06
2.4675e-07
3.21838e-06
4.47182e-07
1.74152e-06
2.46719e-07
3.21785e-06
5.28948e-06
5.2883e-06
7.09849e-07
5.28814e-06
5.2877e-06
3.96303e-06
8.9041e-06
3.96385e-06
8.90496e-06
1.81054e-05
1.8108e-05
3.95985e-06
8.90855e-06
3.96053e-06
8.90928e-06
1.48465e-07
1.49071e-07
1.48182e-07
1.48617e-07
1.48484e-07
1.49088e-07
1.48196e-07
1.73546e-06
3.22027e-06
2.46015e-07
4.44645e-07
1.73885e-06
3.21956e-06
2.45927e-07
1.81265e-05
1.81302e-05
1.7421e-06
2.46747e-07
3.21852e-06
4.47267e-07
1.7422e-06
2.46731e-07
3.21758e-06
5.28841e-06
5.28935e-06
7.0998e-07
5.28797e-06
5.28877e-06
3.96314e-06
8.90572e-06
3.96362e-06
8.90643e-06
1.81047e-05
1.81079e-05
3.95923e-06
8.91023e-06
3.95989e-06
8.91116e-06
1.48422e-07
1.49089e-07
1.48195e-07
1.48621e-07
1.48442e-07
1.49117e-07
1.48207e-07
1.73804e-06
3.22017e-06
2.45901e-07
4.44702e-07
1.73861e-06
3.21939e-06
2.45803e-07
1.81285e-05
1.81319e-05
1.74251e-06
2.46734e-07
3.21775e-06
4.473e-07
1.74291e-06
2.46704e-07
3.21672e-06
5.2893e-06
5.2901e-06
7.09812e-07
5.28848e-06
5.28981e-06
3.96367e-06
8.90707e-06
3.96381e-06
8.90782e-06
1.81045e-05
1.81074e-05
3.95929e-06
8.91152e-06
3.9596e-06
8.91207e-06
1.48438e-07
1.49113e-07
1.48207e-07
1.4862e-07
1.48442e-07
1.49145e-07
1.48229e-07
1.73972e-06
3.22004e-06
2.45756e-07
4.44753e-07
1.73971e-06
3.21927e-06
2.45651e-07
1.81294e-05
1.81327e-05
1.74282e-06
2.46699e-07
3.21766e-06
4.47226e-07
1.743e-06
2.46663e-07
3.21679e-06
5.28896e-06
5.29014e-06
7.09718e-07
5.28813e-06
5.28942e-06
3.96412e-06
8.90708e-06
3.96441e-06
8.90614e-06
1.81045e-05
1.81076e-05
3.9598e-06
8.91227e-06
3.96009e-06
8.91284e-06
1.4844e-07
1.49134e-07
1.48224e-07
1.486e-07
1.4845e-07
1.49161e-07
1.48243e-07
1.74134e-06
3.21984e-06
2.45597e-07
4.44854e-07
1.74116e-06
3.21909e-06
2.45543e-07
1.81304e-05
1.81336e-05
1.74372e-06
2.46637e-07
3.21724e-06
4.47102e-07
1.74383e-06
2.46566e-07
3.21669e-06
5.2885e-06
5.29014e-06
7.09561e-07
5.28685e-06
5.28907e-06
3.96465e-06
8.90375e-06
3.96516e-06
8.90285e-06
1.81049e-05
1.81081e-05
3.95943e-06
8.91301e-06
3.95991e-06
8.9135e-06
1.48438e-07