/*--------------------------------*- C++ -*----------------------------------*\
| =========                 |                                                 |
| \\      /  F ield         | OpenFOAM: The Open Source CFD Toolbox           |
|  \\    /   O peration     | Version:  v2012                                 |
|   \\  /    A nd           | Website:  www.openfoam.com                      |
|    \\/     M anipulation  |                                                 |
\*---------------------------------------------------------------------------*/
FoamFile
{
    version     2.0;
    format      ascii;
    class       volScalarField;
    location    "150";
    object      k;
}
// * * * * * * * * * * * * * * * * * * * * * * * * * * * * * * * * * * * * * //

dimensions      [0 2 -2 0 0 0 0];


internalField   nonuniform List<scalar> 
85864
(
1.34878e-05
2.18104e-05
2.76689e-05
2.18139e-05
2.18166e-05
2.17836e-05
2.75681e-05
6.99634e-05
6.9976e-05
5.98604e-05
1.34826e-05
6.87048e-05
5.34941e-05
6.87158e-05
6.87158e-05
6.30579e-05
6.30819e-05
5.35031e-05
5.34699e-05
1.65469e-05
4.21356e-05
6.99349e-05
5.98266e-05
1.65181e-05
5.34405e-05
4.20944e-05
6.30366e-05
6.30475e-05
6.87132e-05
6.99755e-05
6.99649e-05
7.54607e-05
6.97824e-05
6.97999e-05
6.99768e-05
7.5519e-05
7.55214e-05
6.97883e-05
6.93447e-05
5.98679e-05
6.42893e-05
6.89122e-05
6.42914e-05
6.89155e-05
6.93411e-05
6.87139e-05
6.87241e-05
6.87236e-05
6.40107e-05
5.01585e-05
6.30588e-05
6.93305e-05
6.93336e-05
5.01502e-05
6.4011e-05
6.40428e-05
5.01367e-05
6.3084e-05
6.93418e-05
6.93453e-05
5.01583e-05
6.40286e-05
8.95395e-05
7.14461e-05
7.14368e-05
7.14581e-05
7.14486e-05
8.95443e-05
6.9773e-05
6.99368e-05
7.54415e-05
7.54422e-05
6.97599e-05
6.93285e-05
5.98418e-05
6.89087e-05
6.42118e-05
6.89122e-05
6.4217e-05
6.93241e-05
6.40382e-05
5.01378e-05
6.30493e-05
6.93352e-05
6.93388e-05
5.0143e-05
6.40351e-05
6.39879e-05
5.01294e-05
6.30445e-05
6.93297e-05
5.01342e-05
6.93327e-05
6.39721e-05
8.95457e-05
7.1443e-05
7.14471e-05
7.14549e-05
7.14586e-05
8.95495e-05
6.87209e-05
6.99772e-05
1.16732e-05
4.96009e-05
3.7833e-05
3.78378e-05
2.76302e-05
3.78195e-05
3.78247e-05
4.96059e-05
4.96491e-05
3.78319e-05
3.78379e-05
2.75311e-05
3.78207e-05
3.7817e-05
4.96559e-05
1.16695e-05
3.48064e-05
4.08629e-05
5.34969e-05
5.00628e-05
4.08504e-05
5.0069e-05
3.48342e-05
3.48139e-05
4.08599e-05
5.35059e-05
5.00562e-05
5.00573e-05
4.08497e-05
3.48401e-05
3.47984e-05
4.08622e-05
5.34371e-05
5.00266e-05
5.00172e-05
4.08507e-05
3.48268e-05
3.09608e-05
4.21148e-05
4.54411e-05
2.84959e-05
4.54447e-05
2.84724e-05
3.09979e-05
3.47328e-05
4.08197e-05
5.34255e-05
4.99517e-05
4.99617e-05
4.0809e-05
3.47585e-05
3.08761e-05
4.20546e-05
2.84614e-05
4.53561e-05
2.84381e-05
4.53289e-05
3.09096e-05
2.1819e-05
2.76771e-05
1.34935e-05
2.18353e-05
2.18152e-05
2.77061e-05
1.34992e-05
2.1857e-05
2.18239e-05
2.77335e-05
1.35037e-05
2.18785e-05
2.183e-05
2.76469e-05
1.35075e-05
2.1896e-05
2.18328e-05
2.76418e-05
1.35109e-05
2.19097e-05
2.18348e-05
2.76051e-05
1.35141e-05
2.19197e-05
2.18393e-05
2.76384e-05
1.35162e-05
2.19296e-05
2.1848e-05
2.75057e-05
1.35169e-05
2.19384e-05
2.18589e-05
2.75854e-05
1.35152e-05
2.19331e-05
2.18618e-05
2.76463e-05
1.35132e-05
2.19216e-05
2.18571e-05
2.7616e-05
1.35097e-05
2.19068e-05
2.18521e-05
2.76509e-05
1.35067e-05
2.18915e-05
2.18483e-05
2.76643e-05
1.35041e-05
2.18791e-05
2.18476e-05
2.76632e-05
1.3502e-05
2.18695e-05
2.18493e-05
2.76607e-05
1.35001e-05
2.18593e-05
2.18572e-05
2.76582e-05
1.34983e-05
2.18528e-05
2.18708e-05
2.76622e-05
1.34971e-05
2.18477e-05
2.18899e-05
2.76615e-05
1.34962e-05
2.18466e-05
2.19101e-05
2.76677e-05
1.34954e-05
2.18472e-05
2.19267e-05
2.76715e-05
1.34953e-05
2.18497e-05
2.19409e-05
2.76765e-05
1.34956e-05
2.18533e-05
2.19496e-05
2.76698e-05
1.34972e-05
2.18575e-05
2.19559e-05
2.76626e-05
1.35001e-05
2.18611e-05
2.19582e-05
2.76579e-05
1.35028e-05
2.18616e-05
2.19606e-05
2.76487e-05
1.35049e-05
2.18626e-05
2.19664e-05
2.76486e-05
1.35054e-05
2.18647e-05
2.19678e-05
2.75929e-05
1.35051e-05
2.18681e-05
2.1964e-05
2.76227e-05
1.35045e-05
2.18725e-05
2.19551e-05
2.75397e-05
1.35039e-05
2.18757e-05
2.19442e-05
2.75141e-05
1.35021e-05
2.18771e-05
2.19374e-05
2.75789e-05
1.35003e-05
2.18743e-05
2.19306e-05
2.76276e-05
1.3498e-05
2.18741e-05
2.19262e-05
2.75946e-05
1.34966e-05
2.18735e-05
2.19226e-05
2.76441e-05
1.34964e-05
2.18742e-05
2.19201e-05
2.76865e-05
1.34965e-05
2.18768e-05
2.1917e-05
2.77198e-05
1.34981e-05
2.18831e-05
2.19162e-05
2.77433e-05
1.35006e-05
2.18941e-05
2.19165e-05
2.76239e-05
1.3504e-05
2.1905e-05
2.19185e-05
2.76769e-05
1.35075e-05
2.19132e-05
2.19209e-05
2.77179e-05
1.3511e-05
2.19155e-05
2.19239e-05
2.77509e-05
1.35146e-05
2.19128e-05
2.19276e-05
2.77766e-05
1.3519e-05
2.19081e-05
2.19318e-05
2.7798e-05
1.35239e-05
2.19065e-05
2.19351e-05
2.78208e-05
1.35289e-05
2.19062e-05
2.19333e-05
2.76539e-05
1.35332e-05
2.19063e-05
2.19307e-05
2.75896e-05
1.35279e-05
2.18996e-05
2.19214e-05
2.7561e-05
1.331e-05
2.08887e-05
2.09119e-05
2.65852e-05
2.76472e-05
2.18098e-05
2.18263e-05
2.18197e-05
2.74763e-05
2.75018e-05
2.18232e-05
2.17969e-05
2.18412e-05
2.18318e-05
2.18543e-05
2.7564e-05
2.18448e-05
2.18136e-05
2.18602e-05
2.76604e-05
2.76917e-05
2.76659e-05
2.18291e-05
2.18229e-05
2.18431e-05
2.18358e-05
2.74949e-05
2.75172e-05
2.18252e-05
2.18004e-05
2.18309e-05
2.18133e-05
2.18569e-05
2.18532e-05
2.18707e-05
2.76116e-05
2.75396e-05
2.18632e-05
2.18231e-05
2.18795e-05
2.7689e-05
2.77119e-05
2.75603e-05
2.18485e-05
2.18406e-05
2.18596e-05
2.18548e-05
2.75731e-05
2.75376e-05
2.18331e-05
2.18174e-05
2.18329e-05
2.18295e-05
2.18752e-05
2.18756e-05
2.1885e-05
2.75215e-05
2.75315e-05
2.18843e-05
2.18295e-05
2.18961e-05
2.7595e-05
2.76084e-05
2.75492e-05
2.18622e-05
2.1859e-05
2.1871e-05
2.18698e-05
2.75312e-05
2.74885e-05
2.18343e-05
2.18331e-05
2.18346e-05
2.18479e-05
2.1888e-05
2.18932e-05
2.18947e-05
2.75222e-05
2.75299e-05
2.19e-05
2.18322e-05
2.19091e-05
2.7588e-05
2.76022e-05
2.74852e-05
2.18747e-05
2.18733e-05
2.18833e-05
2.1885e-05
2.75497e-05
2.74772e-05
2.18356e-05
2.18529e-05
2.18372e-05
2.18686e-05
2.18981e-05
2.1908e-05
2.19019e-05
2.7582e-05
2.74177e-05
2.19118e-05
2.18348e-05
2.19186e-05
2.75457e-05
2.7543e-05
2.74493e-05
2.18867e-05
2.18876e-05
2.18957e-05
2.18977e-05
2.74737e-05
2.74713e-05
2.18392e-05
2.18726e-05
2.18407e-05
2.18896e-05
2.19035e-05
2.19183e-05
2.19089e-05
2.74114e-05
2.74035e-05
2.19203e-05
2.18382e-05
2.19271e-05
2.76455e-05
2.75011e-05
2.74182e-05
2.18986e-05
2.18996e-05
2.1903e-05
2.19098e-05
2.74688e-05
2.75307e-05
2.1841e-05
2.18947e-05
2.18413e-05
2.19137e-05
2.19107e-05
2.19281e-05
2.19117e-05
2.74595e-05
2.75243e-05
2.19298e-05
2.18459e-05
2.19324e-05
2.75136e-05
2.74732e-05
2.75286e-05
2.19024e-05
2.1913e-05
2.19e-05
2.19218e-05
2.75927e-05
2.75647e-05
2.18405e-05
2.19188e-05
2.18393e-05
2.19377e-05
2.19107e-05
2.19375e-05
2.19068e-05
2.75835e-05
2.75509e-05
2.1932e-05
2.18579e-05
2.193e-05
2.75313e-05
2.75857e-05
2.7543e-05
2.18987e-05
2.19252e-05
2.18947e-05
2.19267e-05
2.76215e-05
2.75714e-05
2.18395e-05
2.19436e-05
2.18401e-05
2.19554e-05
2.19054e-05
2.19362e-05
2.19014e-05
2.75425e-05
2.74857e-05
2.193e-05
2.18624e-05
2.19282e-05
2.75975e-05
2.75324e-05
2.74688e-05
2.18912e-05
2.19255e-05
2.18796e-05
2.19168e-05
2.76221e-05
2.75492e-05
2.1839e-05
2.19592e-05
2.18353e-05
2.19571e-05
2.19013e-05
2.19268e-05
2.18986e-05
2.75407e-05
2.75605e-05
2.19261e-05
2.18607e-05
2.19225e-05
2.75679e-05
2.75237e-05
2.75389e-05
2.18735e-05
2.19135e-05
2.18597e-05
2.19019e-05
2.75961e-05
2.75153e-05
2.18349e-05
2.19544e-05
2.18318e-05
2.19457e-05
2.18965e-05
2.19134e-05
2.1892e-05
2.75498e-05
2.75331e-05
2.19221e-05
2.18544e-05
2.19146e-05
2.76063e-05
2.75877e-05
2.75771e-05
2.18559e-05
2.18975e-05
2.18426e-05
2.18842e-05
2.75626e-05
2.74859e-05
2.18316e-05
2.19441e-05
2.18299e-05
2.19364e-05
2.18908e-05
2.18976e-05
2.1887e-05
2.75817e-05
2.75768e-05
2.1912e-05
2.18497e-05
2.19037e-05
2.76256e-05
2.76216e-05
2.75983e-05
2.18421e-05
2.18815e-05
2.18355e-05
2.18683e-05
2.75342e-05
2.75289e-05
2.18294e-05
2.19329e-05
2.18249e-05
2.19256e-05
2.18838e-05
2.18845e-05
2.18778e-05
2.76225e-05
2.76073e-05
2.1901e-05
2.18477e-05
2.18923e-05
2.76252e-05
2.76412e-05
2.76085e-05
2.18347e-05
2.1867e-05
2.18335e-05
2.18625e-05
2.75752e-05
2.75666e-05
2.18223e-05
2.19256e-05
2.18162e-05
2.19233e-05
2.18786e-05
2.18742e-05
2.18724e-05
2.76525e-05
2.76377e-05
2.18881e-05
2.18487e-05
2.18784e-05
2.76226e-05
2.76533e-05
2.75534e-05
2.18342e-05
2.18603e-05
2.18341e-05
2.18544e-05
2.75562e-05
2.75277e-05
2.18163e-05
2.19232e-05
2.18102e-05
2.19216e-05
2.18701e-05
2.18633e-05
2.18641e-05
2.76834e-05
2.7668e-05
2.1878e-05
2.1855e-05
2.187e-05
2.76198e-05
2.7533e-05
2.75223e-05
2.18334e-05
2.18546e-05
2.18314e-05
2.18514e-05
2.75745e-05
2.75602e-05
2.18067e-05
2.19219e-05
2.18003e-05
2.19215e-05
2.18625e-05
2.18559e-05
2.18588e-05
2.77132e-05
2.76945e-05
2.18673e-05
2.18679e-05
2.18619e-05
2.76154e-05
2.7512e-05
2.75076e-05
2.18313e-05
2.1851e-05
2.18301e-05
2.1849e-05
2.76044e-05
2.75796e-05
2.17998e-05
2.19216e-05
2.17981e-05
2.19216e-05
2.18588e-05
2.18497e-05
2.18564e-05
2.77394e-05
2.77215e-05
2.18617e-05
2.18867e-05
2.1857e-05
2.76235e-05
2.75584e-05
2.7562e-05
2.18308e-05
2.18489e-05
2.1831e-05
2.18492e-05
2.76229e-05
2.75933e-05
2.17984e-05
2.19219e-05
2.17988e-05
2.19225e-05
2.18576e-05
2.18467e-05
2.18559e-05
2.77672e-05
2.77505e-05
2.18575e-05
2.1907e-05
2.18549e-05
2.76288e-05
2.76102e-05
2.76015e-05
2.18321e-05
2.18494e-05
2.18339e-05
2.18516e-05
2.7637e-05
2.76155e-05
2.17991e-05
2.19222e-05
2.18014e-05
2.19203e-05
2.18558e-05
2.1847e-05
2.18554e-05
2.7796e-05
2.77731e-05
2.1854e-05
2.19243e-05
2.18503e-05
2.76325e-05
2.76471e-05
2.76273e-05
2.18341e-05
2.18535e-05
2.18381e-05
2.18565e-05
2.76601e-05
2.76365e-05
2.18021e-05
2.19213e-05
2.18059e-05
2.19208e-05
2.18555e-05
2.18493e-05
2.18527e-05
2.78228e-05
2.77978e-05
2.18502e-05
2.19388e-05
2.18484e-05
2.76295e-05
2.76714e-05
2.76493e-05
2.18406e-05
2.18573e-05
2.18455e-05
2.18611e-05
2.76805e-05
2.76562e-05
2.18081e-05
2.19205e-05
2.18127e-05
2.19199e-05
2.18527e-05
2.18526e-05
2.18503e-05
2.78391e-05
2.78199e-05
2.18472e-05
2.19484e-05
2.18428e-05
2.76321e-05
2.76935e-05
2.76707e-05
2.18487e-05
2.18613e-05
2.18589e-05
2.18638e-05
2.76479e-05
2.76127e-05
2.18148e-05
2.19199e-05
2.18209e-05
2.19194e-05
2.18488e-05
2.18568e-05
2.18456e-05
2.78593e-05
2.78323e-05
2.18426e-05
2.19556e-05
2.18373e-05
2.76177e-05
2.76614e-05
2.76193e-05
2.18613e-05
2.18649e-05
2.18697e-05
2.18647e-05
2.76589e-05
2.76423e-05
2.1822e-05
2.1918e-05
2.18275e-05
2.19155e-05
2.1845e-05
2.18606e-05
2.18417e-05
2.78721e-05
2.78326e-05
2.18345e-05
2.1958e-05
2.18286e-05
2.76118e-05
2.76648e-05
2.76472e-05
2.18729e-05
2.18637e-05
2.18802e-05
2.18623e-05
2.76871e-05
2.76654e-05
2.18309e-05
2.19165e-05
2.18367e-05
2.19161e-05
2.18418e-05
2.18615e-05
2.18397e-05
2.78817e-05
2.78464e-05
2.18268e-05
2.19596e-05
2.18189e-05
2.76061e-05
2.76916e-05
2.76711e-05
2.18817e-05
2.18624e-05
2.18871e-05
2.18594e-05
2.77099e-05
2.76855e-05
2.18385e-05
2.19161e-05
2.18452e-05
2.19169e-05
2.18392e-05
2.18623e-05
2.18384e-05
2.78867e-05
2.78543e-05
2.1817e-05
2.19658e-05
2.18107e-05
2.76082e-05
2.77114e-05
2.76821e-05
2.18886e-05
2.18584e-05
2.18884e-05
2.18565e-05
2.77296e-05
2.77032e-05
2.18477e-05
2.19174e-05
2.18505e-05
2.19189e-05
2.18384e-05
2.18641e-05
2.18381e-05
2.78954e-05
2.77958e-05
2.18103e-05
2.19678e-05
2.18064e-05
2.75476e-05
2.77216e-05
2.76925e-05
2.18875e-05
2.18552e-05
2.18858e-05
2.18525e-05
2.77522e-05
2.77177e-05
2.18517e-05
2.192e-05
2.18554e-05
2.19206e-05
2.18385e-05
2.18673e-05
2.18389e-05
2.7841e-05
2.76807e-05
2.18047e-05
2.19664e-05
2.18026e-05
2.75776e-05
2.77314e-05
2.77031e-05
2.18863e-05
2.1852e-05
2.18847e-05
2.18499e-05
2.77664e-05
2.77297e-05
2.18584e-05
2.19204e-05
2.18615e-05
2.1919e-05
2.18393e-05
2.18721e-05
2.18396e-05
2.76692e-05
2.76065e-05
2.18027e-05
2.19592e-05
2.18007e-05
2.75489e-05
2.77432e-05
2.77103e-05
2.18846e-05
2.18503e-05
2.18839e-05
2.18501e-05
2.77745e-05
2.77418e-05
2.18621e-05
2.19199e-05
2.18652e-05
2.1919e-05
2.18399e-05
2.18755e-05
2.18389e-05
2.7596e-05
2.76155e-05
2.18001e-05
2.19485e-05
2.17961e-05
2.74603e-05
2.77532e-05
2.77152e-05
2.18815e-05
2.18483e-05
2.1876e-05
2.18459e-05
2.77917e-05
2.76848e-05
2.18667e-05
2.19192e-05
2.1867e-05
2.19201e-05
2.18386e-05
2.18781e-05
2.18356e-05
2.76695e-05
2.76859e-05
2.1796e-05
2.19404e-05
2.17902e-05
2.75284e-05
2.77629e-05
2.77244e-05
2.1876e-05
2.18452e-05
2.18689e-05
2.18382e-05
2.76665e-05
2.76358e-05
2.18675e-05
2.19214e-05
2.18684e-05
2.19219e-05
2.18352e-05
2.18749e-05
2.18305e-05
2.77368e-05
2.76821e-05
2.17899e-05
2.19339e-05
2.17885e-05
2.75799e-05
2.77627e-05
2.77249e-05
2.18675e-05
2.18376e-05
2.18603e-05
2.18349e-05
2.76822e-05
2.76743e-05
2.18691e-05
2.19214e-05
2.18695e-05
2.19178e-05
2.18319e-05
2.18742e-05
2.18275e-05
2.76725e-05
2.76797e-05
2.17886e-05
2.19278e-05
2.17875e-05
2.75454e-05
2.77654e-05
2.77281e-05
2.18586e-05
2.18349e-05
2.18547e-05
2.1833e-05
2.76642e-05
2.76362e-05
2.18698e-05
2.19172e-05
2.18702e-05
2.19138e-05
2.18275e-05
2.18732e-05
2.1828e-05
2.76702e-05
2.76716e-05
2.17876e-05
2.19244e-05
2.17884e-05
2.7595e-05
2.77672e-05
2.77325e-05
2.18547e-05
2.18335e-05
2.18526e-05
2.18336e-05
2.76842e-05
2.7611e-05
2.18705e-05
2.19141e-05
2.18721e-05
2.19134e-05
2.18287e-05
2.18741e-05
2.18318e-05
2.77234e-05
2.77286e-05
2.17897e-05
2.19209e-05
2.17923e-05
2.76388e-05
2.77712e-05
2.76122e-05
2.18534e-05
2.18337e-05
2.18491e-05
2.18336e-05
2.7601e-05
2.7597e-05
2.18739e-05
2.19136e-05
2.18747e-05
2.1915e-05
2.18343e-05
2.1876e-05
2.18383e-05
2.77773e-05
2.77689e-05
2.17948e-05
2.19171e-05
2.17997e-05
2.7674e-05
2.76591e-05
2.76514e-05
2.18495e-05
2.1834e-05
2.18493e-05
2.18353e-05
2.76489e-05
2.76542e-05
2.18755e-05
2.19163e-05
2.18767e-05
2.19198e-05
2.18391e-05
2.18799e-05
2.18439e-05
2.78157e-05
2.77999e-05
2.18014e-05
2.1916e-05
2.18039e-05
2.76987e-05
2.76981e-05
2.76868e-05
2.18496e-05
2.18376e-05
2.18506e-05
2.18434e-05
2.77037e-05
2.76988e-05
2.18782e-05
2.19216e-05
2.18815e-05
2.19258e-05
2.18474e-05
2.1891e-05
2.18527e-05
2.78457e-05
2.78267e-05
2.18067e-05
2.19156e-05
2.18114e-05
2.75803e-05
2.7734e-05
2.77241e-05
2.18536e-05
2.1846e-05
2.18557e-05
2.18539e-05
2.7747e-05
2.76727e-05
2.18837e-05
2.19288e-05
2.18905e-05
2.19365e-05
2.18559e-05
2.19018e-05
2.1861e-05
2.78722e-05
2.78517e-05
2.18145e-05
2.19172e-05
2.18193e-05
2.76281e-05
2.77373e-05
2.76186e-05
2.18588e-05
2.18576e-05
2.18575e-05
2.18634e-05
2.76536e-05
2.76493e-05
2.18951e-05
2.19416e-05
2.18975e-05
2.19499e-05
2.18631e-05
2.19104e-05
2.18676e-05
2.78971e-05
2.78744e-05
2.18243e-05
2.19193e-05
2.18263e-05
2.76702e-05
2.76693e-05
2.76842e-05
2.18587e-05
2.18687e-05
2.18596e-05
2.18764e-05
2.7702e-05
2.77115e-05
2.1901e-05
2.19556e-05
2.19047e-05
2.19617e-05
2.18727e-05
2.1914e-05
2.1878e-05
2.79197e-05
2.78964e-05
2.18278e-05
2.19219e-05
2.18288e-05
2.77046e-05
2.76752e-05
2.75991e-05
2.18615e-05
2.18833e-05
2.18636e-05
2.18916e-05
2.77612e-05
2.76836e-05
2.19097e-05
2.19673e-05
2.19142e-05
2.19736e-05
2.18816e-05
2.19124e-05
2.18841e-05
2.7937e-05
2.79116e-05
2.18335e-05
2.19249e-05
2.18393e-05
2.77316e-05
2.7645e-05
2.76676e-05
2.18669e-05
2.18964e-05
2.18722e-05
2.18993e-05
2.77272e-05
2.77226e-05
2.19173e-05
2.19787e-05
2.19222e-05
2.19859e-05
2.18869e-05
2.19071e-05
2.18891e-05
2.79532e-05
2.79296e-05
2.18446e-05
2.1929e-05
2.18534e-05
2.7753e-05
2.77212e-05
2.76002e-05
2.18782e-05
2.19028e-05
2.18851e-05
2.19053e-05
2.77704e-05
2.77568e-05
2.19274e-05
2.19917e-05
2.19317e-05
2.19982e-05
2.18927e-05
2.19039e-05
2.1896e-05
2.79215e-05
2.78859e-05
2.18615e-05
2.19317e-05
2.18727e-05
2.7776e-05
2.76581e-05
2.75549e-05
2.18915e-05
2.19098e-05
2.1899e-05
2.1911e-05
2.78035e-05
2.76519e-05
2.19365e-05
2.20041e-05
2.194e-05
2.20063e-05
2.19008e-05
2.19029e-05
2.19033e-05
2.7934e-05
2.77234e-05
2.1882e-05
2.19309e-05
2.18931e-05
2.76717e-05
2.76073e-05
2.75831e-05
2.19052e-05
2.19158e-05
2.19109e-05
2.19157e-05
2.77049e-05
2.76404e-05
2.19452e-05
2.20107e-05
2.19472e-05
2.20109e-05
2.19078e-05
2.19018e-05
2.19071e-05
2.77701e-05
2.76714e-05
2.19015e-05
2.19273e-05
2.19097e-05
2.76054e-05
2.76438e-05
2.75393e-05
2.19189e-05
2.19211e-05
2.19191e-05
2.19125e-05
2.76971e-05
2.75763e-05
2.19536e-05
2.20161e-05
2.1949e-05
2.20069e-05
2.19116e-05
2.18945e-05
2.19021e-05
2.77259e-05
2.76082e-05
2.19171e-05
2.19166e-05
2.19158e-05
2.75376e-05
2.75261e-05
2.71e-05
2.19259e-05
2.19181e-05
2.15725e-05
2.15594e-05
2.7592e-05
2.70813e-05
2.19551e-05
2.20124e-05
2.16005e-05
2.16446e-05
2.19072e-05
2.15451e-05
2.15427e-05
2.76255e-05
2.71796e-05
2.19226e-05
2.15637e-05
2.15698e-05
2.70933e-05
2.66258e-05
2.09272e-05
2.09087e-05
2.65923e-05
2.09508e-05
2.09899e-05
1.32889e-05
1.33113e-05
1.32948e-05
2.08919e-05
2.669e-05
2.09192e-05
5.99807e-05
6.99663e-05
5.99755e-05
6.8728e-05
6.87384e-05
5.98651e-05
6.9976e-05
1.34946e-05
1.34996e-05
1.34924e-05
1.34999e-05
1.34878e-05
1.35051e-05
4.21921e-05
5.35176e-05
1.65852e-05
2.18227e-05
5.34983e-05
1.65884e-05
4.21901e-05
6.87148e-05
4.2135e-05
1.65739e-05
2.1811e-05
1.65751e-05
5.34909e-05
4.21638e-05
6.30668e-05
6.3077e-05
2.76455e-05
6.30643e-05
6.30632e-05
5.99849e-05
6.99726e-05
5.99888e-05
6.99805e-05
6.87364e-05
6.87473e-05
5.98503e-05
6.99745e-05
5.98637e-05
6.99754e-05
1.35013e-05
1.34894e-05
1.35065e-05
1.34984e-05
1.35065e-05
1.34944e-05
1.35118e-05
4.22461e-05
5.35302e-05
1.65982e-05
2.18422e-05
4.22748e-05
5.35188e-05
1.66036e-05
6.8706e-05
6.8715e-05
4.21937e-05
1.65791e-05
5.34917e-05
2.18182e-05
4.22167e-05
1.65828e-05
5.35047e-05
6.30656e-05
6.30696e-05
2.76752e-05
6.30597e-05
6.30732e-05
6.00199e-05
6.99893e-05
5.99974e-05
6.99954e-05
6.87439e-05
6.87535e-05
5.98926e-05
6.99734e-05
5.98675e-05
6.99767e-05
1.35082e-05
1.34958e-05
1.35133e-05
1.35031e-05
1.35138e-05
1.35017e-05
1.35185e-05
4.22909e-05
5.3557e-05
1.66148e-05
2.18649e-05
4.2302e-05
5.35633e-05
1.66203e-05
6.87108e-05
6.87208e-05
4.22734e-05
1.6586e-05
5.35201e-05
2.18266e-05
4.22526e-05
1.65883e-05
5.35278e-05
6.30739e-05
6.3079e-05
2.75659e-05
6.30745e-05
6.30784e-05
6.00311e-05
6.99983e-05
6.00209e-05
7.00014e-05
6.87505e-05
6.8761e-05
5.99143e-05
6.99802e-05
5.9904e-05
6.99859e-05
1.35155e-05
1.35032e-05
1.35199e-05
1.35069e-05
1.35202e-05
1.35084e-05
1.35236e-05
4.23958e-05
5.36016e-05
1.66304e-05
2.18848e-05
4.23485e-05
5.35986e-05
1.66355e-05
6.87162e-05
6.87268e-05
4.22337e-05
1.65887e-05
5.35293e-05
2.18306e-05
4.22582e-05
1.65885e-05
5.34858e-05
6.30951e-05
6.3098e-05
2.76327e-05
6.30998e-05
6.31039e-05
6.00247e-05
7.00062e-05
6.00077e-05
7.00143e-05
6.87579e-05
6.87677e-05
5.99318e-05
6.99916e-05
5.99234e-05
6.99967e-05
1.35215e-05
1.35102e-05
1.35247e-05
1.35104e-05
1.35261e-05
1.35152e-05
1.35273e-05
4.24309e-05
5.36146e-05
1.66437e-05
2.19021e-05
4.24125e-05
5.35933e-05
1.6648e-05
6.87238e-05
6.87355e-05
4.21434e-05
1.65865e-05
5.34986e-05
2.18349e-05
4.22484e-05
1.65864e-05
5.35149e-05
6.31134e-05
6.31032e-05
2.74934e-05
6.31156e-05
6.31067e-05
6.00646e-05
7.00201e-05
6.00408e-05
7.00269e-05
6.87634e-05
6.87724e-05
5.99403e-05
7.00006e-05
5.99365e-05
7.00042e-05
1.35272e-05
1.35163e-05
1.35282e-05
1.35136e-05
1.35311e-05
1.35217e-05
1.35299e-05
4.2479e-05
5.36312e-05
1.66542e-05
2.19139e-05
4.24719e-05
5.36571e-05
1.66585e-05
6.87346e-05
6.87464e-05
4.20778e-05
1.65828e-05
5.35413e-05
2.18353e-05
4.21743e-05
1.65828e-05
5.35205e-05
6.31236e-05
6.31012e-05
2.75958e-05
6.31201e-05
6.31066e-05
6.00717e-05
7.00241e-05
6.00554e-05
7.00192e-05
6.8769e-05
6.87802e-05
5.99662e-05
7.00038e-05
5.99504e-05
7.00057e-05
1.35323e-05
1.3523e-05
1.35306e-05
1.3516e-05
1.35354e-05
1.35282e-05
1.35323e-05
4.24665e-05
5.36578e-05
1.66633e-05
2.19233e-05
4.24396e-05
5.36582e-05
1.66652e-05
6.87449e-05
6.87557e-05
4.21404e-05
1.65769e-05
5.35298e-05
2.18411e-05
4.20915e-05
1.65774e-05
5.35403e-05
6.31218e-05
6.30993e-05
2.75425e-05
6.3132e-05
6.31e-05
6.00742e-05
7.00007e-05
6.00703e-05
6.99975e-05
6.87771e-05
6.87859e-05
5.99583e-05
7.00037e-05
5.99671e-05
7.0005e-05
1.35368e-05
1.35296e-05
1.35328e-05
1.35171e-05
1.35393e-05
1.35344e-05
1.35338e-05
4.25151e-05
5.36671e-05
1.66695e-05
2.19343e-05
4.2528e-05
5.3659e-05
1.66713e-05
6.8749e-05
6.87573e-05
4.202e-05
1.65721e-05
5.35332e-05
2.18535e-05
4.20765e-05
1.65714e-05
5.35419e-05
6.31212e-05
6.31094e-05
2.74837e-05
6.30967e-05
6.31095e-05
6.00645e-05
6.99908e-05
6.00538e-05
6.99908e-05
6.87749e-05
6.87781e-05
5.99668e-05
7.00013e-05
5.99615e-05
7.00004e-05
1.354e-05
1.35358e-05
1.3534e-05
1.3516e-05
1.35412e-05
1.35398e-05
1.35337e-05
4.25124e-05
5.36422e-05
1.66737e-05
2.19385e-05
4.2532e-05
5.36762e-05
1.66749e-05
6.87499e-05
6.87575e-05
4.20086e-05
1.65647e-05
5.3576e-05
2.18613e-05
4.20325e-05
1.65643e-05
5.35832e-05
6.30911e-05
6.31179e-05
2.75686e-05
6.30967e-05
6.31275e-05
6.00755e-05
6.99859e-05
6.00686e-05
6.99842e-05
6.87642e-05
6.87693e-05
5.99292e-05
6.99971e-05
5.99232e-05
6.99992e-05
1.35409e-05
1.3541e-05
1.35334e-05
1.35144e-05
1.35394e-05
1.35418e-05
1.35321e-05
4.25079e-05
5.36745e-05
1.66764e-05
2.1932e-05
4.25089e-05
5.36733e-05
1.66776e-05
6.8747e-05
6.87524e-05
4.20745e-05
1.65595e-05
5.35966e-05
2.1862e-05
4.20583e-05
1.65596e-05
5.35695e-05
6.3109e-05
6.30958e-05
2.76262e-05
6.31068e-05
6.30916e-05
6.0057e-05
6.99772e-05
6.00532e-05
6.99769e-05
6.87597e-05
6.87672e-05
5.99197e-05
7.00001e-05
5.99265e-05
7.00017e-05
1.35384e-05
1.35414e-05
1.35319e-05
1.35111e-05
1.35355e-05
1.354e-05
1.35299e-05
4.25558e-05
5.36844e-05
1.66775e-05
2.192e-05
4.25668e-05
5.36859e-05
1.66778e-05
6.87411e-05
6.87483e-05
4.20014e-05
1.65556e-05
5.3592e-05
2.18563e-05
4.19745e-05
1.65553e-05
5.35709e-05
6.3117e-05
6.30954e-05
2.75902e-05
6.31155e-05
6.30869e-05
6.00273e-05
6.99723e-05
6.00415e-05
6.99735e-05
6.87576e-05
6.87631e-05
5.99171e-05
7.00012e-05
5.98999e-05
6.99993e-05
1.35344e-05
1.35392e-05
1.3529e-05
1.35079e-05
1.35304e-05
1.3537e-05
1.35264e-05
4.25719e-05
5.37182e-05
1.6675e-05
2.19043e-05
4.25726e-05
5.37217e-05
1.66753e-05
6.87391e-05
6.87462e-05
4.1973e-05
1.65518e-05
5.3556e-05
2.18516e-05
4.19301e-05
1.65521e-05
5.35467e-05
6.31249e-05
6.30958e-05
2.76186e-05
6.31049e-05
6.30903e-05
6.00023e-05
6.99727e-05
6.00144e-05
6.99756e-05
6.87513e-05
6.8758e-05
5.99442e-05
6.99855e-05
5.99167e-05
6.99829e-05
1.35295e-05
1.35363e-05
1.35258e-05
1.35052e-05
1.35249e-05
1.35336e-05
1.35228e-05
4.25107e-05
5.3731e-05
1.66724e-05
2.18913e-05
4.25704e-05
5.37193e-05
1.66722e-05
6.87379e-05
6.87456e-05
4.19726e-05
1.65479e-05
5.35668e-05
2.18486e-05
4.20114e-05
1.65478e-05
5.35272e-05
6.31028e-05
6.30974e-05
2.76268e-05
6.31122e-05
6.31059e-05
6.00334e-05
6.99759e-05
6.00322e-05
6.99795e-05
6.8749e-05
6.87553e-05
5.99007e-05
6.99745e-05
5.98862e-05
6.9972e-05
1.35233e-05
1.35334e-05
1.35212e-05
1.35031e-05
1.35191e-05
1.35311e-05
1.35179e-05
4.24801e-05
5.37659e-05
1.66673e-05
2.18784e-05
4.24989e-05
5.37511e-05
1.66677e-05
6.87376e-05
6.87455e-05
4.20044e-05
1.65463e-05
5.35011e-05
2.18476e-05
4.19968e-05
1.65463e-05
5.35089e-05
6.31173e-05
6.31099e-05
2.76243e-05
6.3123e-05
6.3125e-05
6.00561e-05
6.99815e-05
6.0026e-05
6.9984e-05
6.8747e-05
6.87544e-05
5.99088e-05
6.99649e-05
5.99025e-05
6.99629e-05
1.3518e-05
1.35309e-05
1.35173e-05
1.35009e-05
1.35138e-05
1.353e-05
1.35136e-05
4.24716e-05
5.37766e-05
1.66637e-05
2.18691e-05
4.25171e-05
5.37904e-05
1.66634e-05
6.87384e-05
6.87465e-05
4.20189e-05
1.65467e-05
5.35261e-05
2.18512e-05
4.20126e-05
1.65471e-05
5.3517e-05
6.31196e-05
6.31328e-05
2.76214e-05
6.31214e-05
6.31415e-05
6.00397e-05
6.99796e-05
6.00228e-05
6.99781e-05
6.87459e-05
6.87526e-05
5.99038e-05
6.99574e-05
5.98985e-05
6.99582e-05
1.35131e-05
1.35301e-05
1.35127e-05
1.3499e-05
1.35095e-05
1.353e-05
1.35097e-05
4.25075e-05
5.38023e-05
1.66588e-05
2.18592e-05
4.251e-05
5.37889e-05
1.66583e-05
6.87391e-05
6.87467e-05
4.20886e-05
1.65508e-05
5.35633e-05
2.18605e-05
4.20517e-05
1.65534e-05
5.35575e-05
6.31327e-05
6.31343e-05
2.76152e-05
6.31412e-05
6.31331e-05
6.00666e-05
6.99728e-05
6.00635e-05
6.99714e-05
6.87436e-05
6.87507e-05
5.99019e-05
6.99585e-05
5.98928e-05
6.99617e-05
1.35082e-05
1.353e-05
1.35087e-05
1.34977e-05
1.35053e-05
1.35307e-05
1.35063e-05
4.25163e-05
5.3826e-05
1.66543e-05
2.18523e-05
4.25005e-05
5.38153e-05
1.66541e-05
6.87378e-05
6.87459e-05
4.21476e-05
1.65607e-05
5.35331e-05
2.1877e-05
4.21074e-05
1.65646e-05
5.35475e-05
6.31382e-05
6.31325e-05
2.76189e-05
6.3147e-05
6.31425e-05
6.0047e-05
6.99654e-05
6.00416e-05
6.99658e-05
6.87441e-05
6.87528e-05
5.99323e-05
6.99633e-05
5.9904e-05
6.99672e-05
1.35044e-05
1.35308e-05
1.35057e-05
1.34967e-05
1.35022e-05
1.35317e-05
1.35033e-05
4.24786e-05
5.38337e-05
1.66501e-05
2.18494e-05
4.25216e-05
5.38342e-05
1.66502e-05
6.87415e-05
6.87511e-05
4.2184e-05
1.65735e-05
5.35944e-05
2.18966e-05
4.21221e-05
1.6578e-05
5.35939e-05
6.31497e-05
6.31444e-05
2.76225e-05
6.31426e-05
6.31382e-05
6.0074e-05
6.99645e-05
6.00576e-05
6.99673e-05
6.87479e-05
6.87573e-05
5.99041e-05
6.99684e-05
5.99194e-05
6.99709e-05
1.35015e-05
1.35322e-05
1.35026e-05
1.34957e-05
1.35e-05
1.35325e-05
1.35005e-05
4.24555e-05
5.3773e-05
1.6645e-05
2.1847e-05
4.24822e-05
5.37942e-05
1.6645e-05
6.8745e-05
6.87535e-05
4.2124e-05
1.65863e-05
5.36033e-05
2.19166e-05
4.21192e-05
1.659e-05
5.36377e-05
6.31377e-05
6.316e-05
2.7631e-05
6.31189e-05
6.31526e-05
6.00895e-05
6.99681e-05
6.00911e-05
6.9974e-05
6.87522e-05
6.87602e-05
5.9898e-05
6.99717e-05
5.99005e-05
6.99744e-05
1.34999e-05
1.35327e-05
1.35001e-05
1.34953e-05
1.34994e-05
1.35323e-05
1.34977e-05
4.23598e-05
5.37864e-05
1.66377e-05
2.18481e-05
4.23038e-05
5.37854e-05
1.66373e-05
6.87454e-05
6.87534e-05
4.22077e-05
1.65973e-05
5.3664e-05
2.19322e-05
4.21458e-05
1.66014e-05
5.36627e-05
6.31117e-05
6.31737e-05
2.76339e-05
6.3114e-05
6.31689e-05
6.0119e-05
6.99788e-05
6.011e-05
6.99831e-05
6.87495e-05
6.87559e-05
5.99319e-05
6.99799e-05
5.98958e-05
6.99873e-05
1.34994e-05
1.35321e-05
1.34975e-05
1.34955e-05
1.34995e-05
1.35317e-05
1.34953e-05
4.23263e-05
5.38298e-05
1.66313e-05
2.18503e-05
4.23633e-05
5.38315e-05
1.66314e-05
6.87486e-05
6.87596e-05
4.22034e-05
1.66081e-05
5.37007e-05
2.19455e-05
4.21603e-05
1.66125e-05
5.36928e-05
6.31129e-05
6.31687e-05
2.76305e-05
6.31168e-05
6.31651e-05
6.01307e-05
6.99853e-05
6.01144e-05
6.99885e-05
6.87445e-05
6.87481e-05
5.99579e-05
6.9998e-05
5.99441e-05
7.00059e-05
1.34994e-05
1.35313e-05
1.34944e-05
1.34967e-05
1.34998e-05
1.35302e-05
1.34917e-05
4.22868e-05
5.38335e-05
1.66235e-05
2.18555e-05
4.23502e-05
5.3784e-05
1.66237e-05
6.87553e-05
6.8765e-05
4.2266e-05
1.66172e-05
5.36966e-05
2.19535e-05
4.21877e-05
1.66205e-05
5.37291e-05
6.31296e-05
6.31646e-05
2.76289e-05
6.31345e-05
6.31523e-05
6.01077e-05
6.99893e-05
6.01007e-05
6.99936e-05
6.8728e-05
6.87305e-05
5.99724e-05
7.00138e-05
5.99687e-05
7.0019e-05
1.35005e-05
1.35301e-05
1.34917e-05
1.34997e-05
1.35006e-05
1.35292e-05
1.34894e-05
4.23481e-05
5.37984e-05
1.66161e-05
2.1859e-05
4.23463e-05
5.37915e-05
1.66155e-05
6.87583e-05
6.87668e-05
4.23259e-05
1.66254e-05
5.37564e-05
2.19575e-05
4.2308e-05
1.66288e-05
5.37633e-05
6.31484e-05
6.31245e-05
2.76188e-05
6.31534e-05
6.3118e-05
6.00996e-05
6.99981e-05
6.00933e-05
7.00062e-05
6.87201e-05
6.8728e-05
5.99739e-05
7.00235e-05
5.99749e-05
7.00294e-05
1.35002e-05
1.35294e-05
1.34891e-05
1.35024e-05
1.34997e-05
1.35287e-05
1.34875e-05
4.22839e-05
5.37921e-05
1.66108e-05
2.18614e-05
4.23324e-05
5.38079e-05
1.661e-05
6.87605e-05
6.87698e-05
4.228e-05
1.66323e-05
5.37778e-05
2.19596e-05
4.23326e-05
1.66347e-05
5.37928e-05
6.31463e-05
6.3107e-05
2.76094e-05
6.31436e-05
6.30838e-05
6.01069e-05
7.00135e-05
6.01006e-05
7.00177e-05
6.8721e-05
6.87282e-05
5.9951e-05
7.0035e-05
5.99452e-05
7.00391e-05
1.34999e-05
1.35291e-05
1.34869e-05
1.35046e-05
1.34993e-05
1.3529e-05
1.34859e-05
4.23303e-05
5.37598e-05
1.66044e-05
2.18617e-05
4.23242e-05
5.37752e-05
1.66052e-05
6.87644e-05
6.87727e-05
4.23326e-05
1.66366e-05
5.37771e-05
2.19643e-05
4.23304e-05
1.66369e-05
5.37868e-05
6.31289e-05
6.30727e-05
2.76077e-05
6.31147e-05
6.30793e-05
6.00701e-05
7.00203e-05
6.00821e-05
7.00244e-05
6.87175e-05
6.87241e-05
5.99662e-05
7.00396e-05
5.99606e-05
7.00428e-05
1.34991e-05
1.35292e-05
1.34863e-05
1.35056e-05
1.34988e-05
1.35295e-05
1.34857e-05
4.2261e-05
5.38003e-05
1.66003e-05
2.18634e-05
4.23892e-05
5.38093e-05
1.65999e-05
6.87664e-05
6.87756e-05
4.23294e-05
1.66363e-05
5.37965e-05
2.19676e-05
4.23242e-05
1.66364e-05
5.37876e-05
6.31054e-05
6.31e-05
2.76149e-05
6.31134e-05
6.3096e-05
6.00938e-05
7.00281e-05
6.00921e-05
7.00326e-05
6.87153e-05
6.87229e-05
5.99548e-05
7.00472e-05
5.99467e-05
7.00527e-05
1.34988e-05
1.35295e-05
1.34857e-05
1.35052e-05
1.34986e-05
1.35305e-05
1.34858e-05
4.2214e-05
5.3816e-05
1.65961e-05
2.18665e-05
4.22219e-05
5.38147e-05
1.65951e-05
6.87713e-05
6.87803e-05
4.2314e-05
1.66344e-05
5.37821e-05
2.19682e-05
4.23145e-05
1.66343e-05
5.37728e-05
6.31275e-05
6.31123e-05
2.75636e-05
6.3118e-05
6.31106e-05
6.00983e-05
7.00356e-05
6.00759e-05
7.00402e-05
6.87153e-05
6.87221e-05
5.99668e-05
7.00551e-05
5.99416e-05
7.00582e-05
1.34987e-05
1.35307e-05
1.34858e-05
1.35049e-05
1.34986e-05
1.35314e-05
1.34862e-05
4.22478e-05
5.38164e-05
1.65882e-05
2.18702e-05
4.22128e-05
5.38168e-05
1.65882e-05
6.87738e-05
6.8782e-05
4.22951e-05
1.66317e-05
5.37849e-05
2.19637e-05
4.22516e-05
1.66316e-05
5.37629e-05
6.31202e-05
6.30991e-05
2.75239e-05
6.31162e-05
6.30974e-05
6.01116e-05
7.00384e-05
6.01029e-05
7.00338e-05
6.87146e-05
6.87221e-05
5.99752e-05
7.00593e-05
5.99784e-05
7.00625e-05
1.34986e-05
1.35318e-05
1.34865e-05
1.35044e-05
1.34987e-05
1.35324e-05
1.34872e-05
4.22687e-05
5.38016e-05
1.65823e-05
2.18729e-05
4.22624e-05
5.38079e-05
1.65826e-05
6.87761e-05
6.87846e-05
4.23415e-05
1.66286e-05
5.37631e-05
2.19551e-05
4.2314e-05
1.66284e-05
5.37763e-05
6.31014e-05
6.30979e-05
2.7506e-05
6.30855e-05
6.30898e-05
6.01275e-05
7.00211e-05
6.01246e-05
7.00174e-05
6.87157e-05
6.87238e-05
5.99806e-05
7.00636e-05
5.99701e-05
7.00663e-05