/*--------------------------------*- C++ -*----------------------------------*\
| =========                 |                                                 |
| \\      /  F ield         | OpenFOAM: The Open Source CFD Toolbox           |
|  \\    /   O peration     | Version:  v2012                                 |
|   \\  /    A nd           | Website:  www.openfoam.com                      |
|    \\/     M anipulation  |                                                 |
\*---------------------------------------------------------------------------*/
FoamFile
{
    version     2.0;
    format      ascii;
    class       volScalarField;
    location    "150";
    object      nut;
}
// * * * * * * * * * * * * * * * * * * * * * * * * * * * * * * * * * * * * * //

dimensions      [0 2 -1 0 0 0 0];


internalField   nonuniform List<scalar> 
85864
(
0.00011036
9.66086e-05
9.67814e-05
9.65864e-05
9.66115e-05
9.64458e-05
9.61352e-05
4.95382e-05
4.9538e-05
8.15656e-05
0.000110393
2.34677e-05
8.03326e-05
2.34728e-05
2.34714e-05
6.77308e-05
6.77349e-05
8.03755e-05
8.02569e-05
0.000100683
9.21523e-05
4.95217e-05
8.14994e-05
0.000100555
8.02293e-05
9.19575e-05
6.7671e-05
6.77017e-05
2.34715e-05
4.9538e-05
4.95382e-05
7.23424e-05
2.00404e-05
2.00446e-05
4.95383e-05
7.24067e-05
7.24209e-05
2.00429e-05
3.60677e-05
8.15935e-05
8.00361e-05
4.02728e-05
8.00479e-05
4.02735e-05
3.60668e-05
2.34694e-05
2.34742e-05
2.34728e-05
8.60098e-05
9.17831e-05
6.77417e-05
4.73488e-05
4.73499e-05
9.17737e-05
8.59928e-05
8.59677e-05
9.16154e-05
6.77476e-05
4.73373e-05
4.73388e-05
9.17035e-05
8.59156e-05
7.49505e-05
2.14021e-05
2.13986e-05
2.14038e-05
2.14003e-05
7.49467e-05
2.00392e-05
4.95224e-05
7.2323e-05
7.23369e-05
2.00373e-05
3.60604e-05
8.15511e-05
4.0271e-05
7.98939e-05
4.0272e-05
7.99209e-05
3.60593e-05
8.59596e-05
9.16769e-05
6.77073e-05
4.73349e-05
4.73364e-05
9.17159e-05
8.59312e-05
8.59485e-05
9.16856e-05
6.77053e-05
4.7348e-05
9.17202e-05
4.73492e-05
8.58867e-05
7.49558e-05
2.1399e-05
2.14022e-05
2.14008e-05
2.14039e-05
7.49476e-05
2.34728e-05
4.95385e-05
0.000131887
9.61676e-05
9.6935e-05
9.69348e-05
9.6745e-05
9.6944e-05
9.69439e-05
9.61205e-05
9.62866e-05
9.68898e-05
9.69189e-05
9.61236e-05
9.69153e-05
9.68955e-05
9.62854e-05
0.000131923
9.37638e-05
9.37386e-05
8.03578e-05
8.7808e-05
9.37463e-05
8.78574e-05
9.37725e-05
9.37833e-05
9.37417e-05
8.03992e-05
8.77382e-05
8.77634e-05
9.37557e-05
9.37966e-05
9.39266e-05
9.37143e-05
8.01805e-05
8.76532e-05
8.7651e-05
9.3726e-05
9.37513e-05
9.36988e-05
9.22125e-05
9.18316e-05
9.31993e-05
9.18569e-05
9.31936e-05
9.3709e-05
9.37518e-05
9.36092e-05
8.0204e-05
8.74794e-05
8.75369e-05
9.36252e-05
9.35446e-05
9.34474e-05
9.18155e-05
9.30922e-05
9.16131e-05
9.30827e-05
9.15095e-05
9.34565e-05
9.65532e-05
9.67777e-05
0.000110371
9.66097e-05
9.66139e-05
9.68687e-05
0.000110421
9.66958e-05
9.66501e-05
9.69633e-05
0.000110448
9.6773e-05
9.6676e-05
9.63609e-05
0.000110458
9.68318e-05
9.66805e-05
9.63018e-05
0.000110463
9.688e-05
9.66641e-05
9.60121e-05
0.00011047
9.68979e-05
9.66522e-05
9.61567e-05
0.000110478
9.69321e-05
9.66847e-05
9.53111e-05
0.000110486
9.69763e-05
9.67174e-05
9.59443e-05
0.000110459
9.69328e-05
9.67398e-05
9.63738e-05
0.000110446
9.68655e-05
9.66985e-05
9.62191e-05
0.000110432
9.68101e-05
9.66785e-05
9.65164e-05
0.000110438
9.67702e-05
9.66771e-05
9.66123e-05
0.000110438
9.67438e-05
9.67004e-05
9.66633e-05
0.000110447
9.67279e-05
9.67071e-05
9.67105e-05
0.000110445
9.6694e-05
9.67184e-05
9.672e-05
0.000110442
9.66855e-05
9.67599e-05
9.67475e-05
0.00011045
9.66782e-05
9.68163e-05
9.66731e-05
0.000110449
9.66987e-05
9.68893e-05
9.66945e-05
0.000110448
9.67032e-05
9.69338e-05
9.6691e-05
0.000110446
9.67088e-05
9.70008e-05
9.67117e-05
0.000110427
9.67119e-05
9.70229e-05
9.66736e-05
0.000110414
9.67252e-05
9.70561e-05
9.66639e-05
0.000110411
9.67507e-05
9.70596e-05
9.66848e-05
0.000110435
9.6746e-05
9.70609e-05
9.66518e-05
0.000110448
9.67482e-05
9.70977e-05
9.66521e-05
0.000110455
9.67464e-05
9.70936e-05
9.62678e-05
0.000110447
9.67612e-05
9.70633e-05
9.64285e-05
0.000110441
9.67836e-05
9.70014e-05
9.58474e-05
0.000110445
9.67938e-05
9.69521e-05
9.57171e-05
0.00011043
9.68035e-05
9.69366e-05
9.61467e-05
0.000110431
9.6771e-05
9.69141e-05
9.64189e-05
0.000110427
9.67784e-05
9.69078e-05
9.61879e-05
0.000110425
9.6773e-05
9.68866e-05
9.64855e-05
0.000110446
9.67615e-05
9.68897e-05
9.6667e-05
0.00011043
9.67655e-05
9.68852e-05
9.68189e-05
0.00011042
9.67871e-05
9.69006e-05
9.69163e-05
0.000110425
9.68245e-05
9.69179e-05
9.60563e-05
0.000110436
9.68689e-05
9.69399e-05
9.64482e-05
0.000110458
9.69053e-05
9.69587e-05
9.67149e-05
0.000110457
9.69101e-05
9.69766e-05
9.69104e-05
0.000110448
9.68981e-05
9.69929e-05
9.69877e-05
0.000110463
9.68864e-05
9.70075e-05
9.71109e-05
0.000110479
9.68942e-05
9.70181e-05
9.72103e-05
0.000110486
9.68979e-05
9.7006e-05
9.59968e-05
0.0001105
9.69156e-05
9.70083e-05
9.5687e-05
0.000110513
9.69123e-05
9.6992e-05
9.64405e-05
0.00011271
9.62205e-05
9.63231e-05
9.62003e-05
9.67973e-05
9.64993e-05
9.66384e-05
9.65707e-05
9.56182e-05
9.6038e-05
9.66647e-05
9.65253e-05
9.66147e-05
9.66256e-05
9.67121e-05
9.63383e-05
9.66726e-05
9.66128e-05
9.67426e-05
9.68187e-05
9.68547e-05
9.68966e-05
9.66361e-05
9.65787e-05
9.66755e-05
9.65948e-05
9.56528e-05
9.60999e-05
9.6678e-05
9.65343e-05
9.67052e-05
9.65725e-05
9.67429e-05
9.67163e-05
9.67736e-05
9.6425e-05
9.61761e-05
9.67414e-05
9.66631e-05
9.6791e-05
9.69227e-05
9.68885e-05
9.62199e-05
9.67213e-05
9.66413e-05
9.67441e-05
9.6676e-05
9.61393e-05
9.60907e-05
9.67301e-05
9.66096e-05
9.67141e-05
9.66358e-05
9.68119e-05
9.68033e-05
9.68308e-05
9.57346e-05
9.61566e-05
9.68403e-05
9.66865e-05
9.68588e-05
9.62577e-05
9.62173e-05
9.61659e-05
9.67621e-05
9.67038e-05
9.67638e-05
9.67018e-05
9.57868e-05
9.57348e-05
9.67157e-05
9.665e-05
9.66892e-05
9.66712e-05
9.68549e-05
9.68516e-05
9.68599e-05
9.57929e-05
9.61004e-05
9.6899e-05
9.669e-05
9.69038e-05
9.61879e-05
9.61916e-05
9.56752e-05
9.67901e-05
9.67498e-05
9.67864e-05
9.67465e-05
9.59042e-05
9.56248e-05
9.66967e-05
9.67197e-05
9.66787e-05
9.67441e-05
9.68854e-05
9.69032e-05
9.68644e-05
9.62091e-05
9.53511e-05
9.69267e-05
9.66828e-05
9.69214e-05
9.59344e-05
9.58224e-05
9.54659e-05
9.68065e-05
9.67784e-05
9.68277e-05
9.67719e-05
9.53503e-05
9.55911e-05
9.67044e-05
9.67717e-05
9.66852e-05
9.67889e-05
9.68857e-05
9.69232e-05
9.68839e-05
9.50703e-05
9.5267e-05
9.69373e-05
9.66701e-05
9.69339e-05
9.65431e-05
9.55082e-05
9.52573e-05
9.68385e-05
9.67842e-05
9.68458e-05
9.68017e-05
9.52399e-05
9.58786e-05
9.66926e-05
9.68171e-05
9.6675e-05
9.68523e-05
9.68985e-05
9.69352e-05
9.68877e-05
9.54051e-05
9.60379e-05
9.69656e-05
9.66889e-05
9.69523e-05
9.56768e-05
9.53061e-05
9.59909e-05
9.6857e-05
9.68254e-05
9.68199e-05
9.68456e-05
9.60438e-05
9.60278e-05
9.66751e-05
9.68862e-05
9.66597e-05
9.69439e-05
9.68859e-05
9.69803e-05
9.68487e-05
9.61362e-05
9.60949e-05
9.69488e-05
9.67245e-05
9.69205e-05
9.58882e-05
9.60373e-05
9.59696e-05
9.68375e-05
9.6884e-05
9.68096e-05
9.68826e-05
9.61687e-05
9.6101e-05
9.66623e-05
9.69852e-05
9.66667e-05
9.7021e-05
9.68371e-05
9.69597e-05
9.68162e-05
9.57011e-05
9.571e-05
9.69321e-05
9.67487e-05
9.69076e-05
9.63612e-05
9.56424e-05
9.55498e-05
9.67776e-05
9.68746e-05
9.67429e-05
9.68228e-05
9.62097e-05
9.60508e-05
9.66636e-05
9.70628e-05
9.6636e-05
9.70237e-05
9.68439e-05
9.69001e-05
9.68225e-05
9.57666e-05
9.62918e-05
9.68983e-05
9.67197e-05
9.6875e-05
9.61306e-05
9.56964e-05
9.60978e-05
9.67261e-05
9.68047e-05
9.66728e-05
9.67682e-05
9.61281e-05
9.5976e-05
9.66378e-05
9.70037e-05
9.66267e-05
9.69507e-05
9.6812e-05
9.68513e-05
9.67867e-05
9.59102e-05
9.61381e-05
9.68878e-05
9.66959e-05
9.6851e-05
9.64546e-05
9.61908e-05
9.6388e-05
9.66841e-05
9.67608e-05
9.66354e-05
9.6729e-05
9.60385e-05
9.59425e-05
9.66245e-05
9.69766e-05
9.66212e-05
9.6952e-05
9.67902e-05
9.68056e-05
9.67804e-05
9.62339e-05
9.64557e-05
9.68478e-05
9.66899e-05
9.68301e-05
9.66601e-05
9.64498e-05
9.65495e-05
9.66694e-05
9.67285e-05
9.6645e-05
9.66859e-05
9.59584e-05
9.62938e-05
9.66452e-05
9.6945e-05
9.66014e-05
9.69119e-05
9.6793e-05
9.67738e-05
9.67563e-05
9.65357e-05
9.66737e-05
9.68374e-05
9.66988e-05
9.68095e-05
9.67191e-05
9.65983e-05
9.66265e-05
9.66689e-05
9.6699e-05
9.66621e-05
9.66986e-05
9.62774e-05
9.65264e-05
9.66139e-05
9.69425e-05
9.65878e-05
9.69271e-05
9.67854e-05
9.67626e-05
9.67594e-05
9.66352e-05
9.67556e-05
9.68071e-05
9.67099e-05
9.67582e-05
9.66983e-05
9.66873e-05
9.62413e-05
9.66689e-05
9.67168e-05
9.66737e-05
9.66657e-05
9.61093e-05
9.62588e-05
9.65942e-05
9.69683e-05
9.65791e-05
9.6938e-05
9.67638e-05
9.6728e-05
9.67417e-05
9.68127e-05
9.68796e-05
9.67916e-05
9.67303e-05
9.6752e-05
9.67058e-05
9.58623e-05
9.60982e-05
9.66715e-05
9.66723e-05
9.66525e-05
9.66703e-05
9.62431e-05
9.6466e-05
9.65822e-05
9.69383e-05
9.65568e-05
9.69416e-05
9.67399e-05
9.67108e-05
9.67404e-05
9.69315e-05
9.69673e-05
9.67627e-05
9.67711e-05
9.67355e-05
9.66797e-05
9.57824e-05
9.60112e-05
9.6649e-05
9.66731e-05
9.66358e-05
9.66603e-05
9.643e-05
9.65755e-05
9.65645e-05
9.69488e-05
9.65516e-05
9.69472e-05
9.67482e-05
9.66929e-05
9.67372e-05
9.70175e-05
9.70497e-05
9.67636e-05
9.68435e-05
9.67334e-05
9.67384e-05
9.61109e-05
9.63329e-05
9.66414e-05
9.66846e-05
9.6635e-05
9.66858e-05
9.65335e-05
9.66392e-05
9.65644e-05
9.69507e-05
9.65473e-05
9.69453e-05
9.67542e-05
9.66994e-05
9.67375e-05
9.71018e-05
9.71305e-05
9.67376e-05
9.6914e-05
9.67313e-05
9.67544e-05
9.64087e-05
9.65351e-05
9.66446e-05
9.66925e-05
9.66514e-05
9.66954e-05
9.65946e-05
9.67171e-05
9.65594e-05
9.69433e-05
9.65509e-05
9.69171e-05
9.67367e-05
9.67037e-05
9.67287e-05
9.71819e-05
9.71853e-05
9.67256e-05
9.69504e-05
9.66971e-05
9.675e-05
9.65943e-05
9.66611e-05
9.66477e-05
9.67086e-05
9.66618e-05
9.67067e-05
9.66758e-05
9.67847e-05
9.65615e-05
9.69329e-05
9.65555e-05
9.69249e-05
9.6728e-05
9.67158e-05
9.67012e-05
9.72683e-05
9.72894e-05
9.67043e-05
9.70167e-05
9.67006e-05
9.67115e-05
9.67106e-05
9.67534e-05
9.66737e-05
9.67165e-05
9.66704e-05
9.67262e-05
9.67422e-05
9.68601e-05
9.65744e-05
9.6928e-05
9.65728e-05
9.69174e-05
9.66978e-05
9.67206e-05
9.66918e-05
9.72429e-05
9.73749e-05
9.66948e-05
9.70389e-05
9.66571e-05
9.6735e-05
9.6802e-05
9.6849e-05
9.66816e-05
9.67299e-05
9.67294e-05
9.67366e-05
9.64506e-05
9.65292e-05
9.65874e-05
9.69214e-05
9.65971e-05
9.69168e-05
9.67054e-05
9.67309e-05
9.66636e-05
9.72983e-05
9.73972e-05
9.66656e-05
9.70667e-05
9.66447e-05
9.66725e-05
9.65337e-05
9.65133e-05
9.67294e-05
9.67516e-05
9.67455e-05
9.67487e-05
9.65342e-05
9.66564e-05
9.66124e-05
9.69239e-05
9.66095e-05
9.69013e-05
9.67019e-05
9.6751e-05
9.66591e-05
9.73826e-05
9.73545e-05
9.66461e-05
9.70665e-05
9.66303e-05
9.66178e-05
9.65701e-05
9.6725e-05
9.6777e-05
9.67427e-05
9.67958e-05
9.67352e-05
9.67133e-05
9.6774e-05
9.66291e-05
9.69355e-05
9.66319e-05
9.69229e-05
9.66793e-05
9.67489e-05
9.6667e-05
9.74445e-05
9.74286e-05
9.66232e-05
9.70617e-05
9.66039e-05
9.66103e-05
9.66913e-05
9.68641e-05
9.68122e-05
9.67375e-05
9.68245e-05
9.67152e-05
9.68143e-05
9.68905e-05
9.6654e-05
9.69347e-05
9.66764e-05
9.69227e-05
9.66664e-05
9.67486e-05
9.66632e-05
9.74518e-05
9.74552e-05
9.6593e-05
9.71013e-05
9.65703e-05
9.6631e-05
9.68017e-05
9.68669e-05
9.68496e-05
9.67278e-05
9.68403e-05
9.67327e-05
9.68518e-05
9.69055e-05
9.67027e-05
9.69275e-05
9.66897e-05
9.69257e-05
9.66666e-05
9.67499e-05
9.66583e-05
9.7483e-05
9.70934e-05
9.66009e-05
9.70978e-05
9.65779e-05
9.62053e-05
9.68844e-05
9.69232e-05
9.68323e-05
9.67267e-05
9.68221e-05
9.67294e-05
9.69796e-05
9.70009e-05
9.67033e-05
9.69357e-05
9.67055e-05
9.69226e-05
9.66669e-05
9.67632e-05
9.66538e-05
9.70884e-05
9.63602e-05
9.65637e-05
9.70772e-05
9.65619e-05
9.64488e-05
9.69381e-05
9.69596e-05
9.68291e-05
9.67557e-05
9.68098e-05
9.67162e-05
9.70135e-05
9.70526e-05
9.67408e-05
9.69261e-05
9.67398e-05
9.68936e-05
9.66683e-05
9.67841e-05
9.66562e-05
9.5963e-05
9.60007e-05
9.65667e-05
9.7035e-05
9.65452e-05
9.6241e-05
9.69811e-05
9.70041e-05
9.68147e-05
9.67652e-05
9.68171e-05
9.6747e-05
9.70164e-05
9.70643e-05
9.67493e-05
9.69e-05
9.67601e-05
9.68822e-05
9.66592e-05
9.67995e-05
9.66309e-05
9.56123e-05
9.6145e-05
9.65451e-05
9.69846e-05
9.65098e-05
9.56625e-05
9.69774e-05
9.70176e-05
9.68292e-05
9.67278e-05
9.67843e-05
9.67069e-05
9.71328e-05
9.66397e-05
9.67758e-05
9.68866e-05
9.6773e-05
9.68785e-05
9.66532e-05
9.68186e-05
9.66349e-05
9.62685e-05
9.66357e-05
9.6522e-05
9.69609e-05
9.64761e-05
9.613e-05
9.70055e-05
9.70685e-05
9.67825e-05
9.67157e-05
9.67608e-05
9.6666e-05
9.62764e-05
9.64142e-05
9.67829e-05
9.68965e-05
9.67733e-05
9.68934e-05
9.66374e-05
9.67782e-05
9.66052e-05
9.67341e-05
9.65918e-05
9.64941e-05
9.6942e-05
9.64831e-05
9.64149e-05
9.69901e-05
9.70162e-05
9.67824e-05
9.66748e-05
9.67462e-05
9.66642e-05
9.64944e-05
9.67337e-05
9.68013e-05
9.68891e-05
9.67921e-05
9.68554e-05
9.66208e-05
9.67781e-05
9.65941e-05
9.62779e-05
9.65832e-05
9.64914e-05
9.69198e-05
9.64839e-05
9.61001e-05
9.70361e-05
9.70452e-05
9.67576e-05
9.66741e-05
9.6741e-05
9.66557e-05
9.63616e-05
9.65316e-05
9.67929e-05
9.68722e-05
9.67923e-05
9.68534e-05
9.66283e-05
9.6773e-05
9.66221e-05
9.62666e-05
9.65446e-05
9.64938e-05
9.69025e-05
9.64834e-05
9.64065e-05
9.70645e-05
9.70634e-05
9.67754e-05
9.666e-05
9.6759e-05
9.66461e-05
9.65242e-05
9.63752e-05
9.67941e-05
9.68603e-05
9.67922e-05
9.68636e-05
9.66366e-05
9.67727e-05
9.6624e-05
9.65786e-05
9.68672e-05
9.65002e-05
9.68966e-05
9.64867e-05
9.66055e-05
9.706e-05
9.63048e-05
9.67649e-05
9.66504e-05
9.67304e-05
9.66337e-05
9.59675e-05
9.63174e-05
9.67988e-05
9.68662e-05
9.67955e-05
9.68726e-05
9.66454e-05
9.67735e-05
9.66487e-05
9.69237e-05
9.70646e-05
9.65098e-05
9.68857e-05
9.6522e-05
9.67668e-05
9.63743e-05
9.65986e-05
9.6733e-05
9.66348e-05
9.67262e-05
9.66244e-05
9.63337e-05
9.66685e-05
9.6795e-05
9.68733e-05
9.67962e-05
9.68802e-05
9.66613e-05
9.67789e-05
9.66649e-05
9.71313e-05
9.72123e-05
9.65351e-05
9.68989e-05
9.65397e-05
9.68741e-05
9.66717e-05
9.68078e-05
9.67269e-05
9.66421e-05
9.67196e-05
9.66647e-05
9.66614e-05
9.68881e-05
9.67931e-05
9.69056e-05
9.67998e-05
9.69002e-05
9.66912e-05
9.68262e-05
9.67004e-05
9.72682e-05
9.73172e-05
9.65587e-05
9.69121e-05
9.65669e-05
9.60557e-05
9.68748e-05
9.70039e-05
9.67533e-05
9.66803e-05
9.67603e-05
9.66961e-05
9.69089e-05
9.65737e-05
9.68051e-05
9.69163e-05
9.68408e-05
9.69333e-05
9.67208e-05
9.68635e-05
9.67345e-05
9.73704e-05
9.74055e-05
9.65797e-05
9.69328e-05
9.66057e-05
9.64243e-05
9.68401e-05
9.63418e-05
9.67777e-05
9.67247e-05
9.67663e-05
9.67456e-05
9.6197e-05
9.6471e-05
9.68643e-05
9.6969e-05
9.68615e-05
9.69841e-05
9.67471e-05
9.68961e-05
9.67545e-05
9.74564e-05
9.74814e-05
9.66409e-05
9.69521e-05
9.66475e-05
9.6718e-05
9.63768e-05
9.6789e-05
9.67684e-05
9.67614e-05
9.67731e-05
9.67806e-05
9.65115e-05
9.68548e-05
9.68928e-05
9.70373e-05
9.68789e-05
9.70323e-05
9.67851e-05
9.6907e-05
9.68038e-05
9.75323e-05
9.75633e-05
9.66512e-05
9.69698e-05
9.66512e-05
9.68551e-05
9.6379e-05
9.61964e-05
9.67793e-05
9.68233e-05
9.67813e-05
9.68537e-05
9.68493e-05
9.66058e-05
9.69266e-05
9.70765e-05
9.6924e-05
9.70827e-05
9.68212e-05
9.68996e-05
9.6827e-05
9.75824e-05
9.76073e-05
9.66773e-05
9.69852e-05
9.66941e-05
9.70188e-05
9.61776e-05
9.6642e-05
9.67933e-05
9.68799e-05
9.68041e-05
9.68795e-05
9.65694e-05
9.68286e-05
9.69336e-05
9.71145e-05
9.69456e-05
9.71331e-05
9.68336e-05
9.68829e-05
9.68427e-05
9.76326e-05
9.76976e-05
9.67231e-05
9.70016e-05
9.67462e-05
9.70644e-05
9.66591e-05
9.61474e-05
9.68309e-05
9.68856e-05
9.68448e-05
9.68901e-05
9.68912e-05
9.70329e-05
9.69648e-05
9.71597e-05
9.69749e-05
9.71728e-05
9.68558e-05
9.68846e-05
9.68723e-05
9.73095e-05
9.73882e-05
9.67883e-05
9.70085e-05
9.68186e-05
9.71574e-05
9.62055e-05
9.57684e-05
9.68701e-05
9.6903e-05
9.68919e-05
9.6902e-05
9.70984e-05
9.63142e-05
9.69869e-05
9.71938e-05
9.69997e-05
9.71878e-05
9.68903e-05
9.68883e-05
9.68989e-05
9.73695e-05
9.6245e-05
9.6864e-05
9.70026e-05
9.68951e-05
9.64445e-05
9.58774e-05
9.60162e-05
9.691e-05
9.69161e-05
9.69265e-05
9.69185e-05
9.64376e-05
9.63243e-05
9.70156e-05
9.71938e-05
9.70262e-05
9.71939e-05
9.69104e-05
9.68958e-05
9.69044e-05
9.63402e-05
9.63463e-05
9.69258e-05
9.69961e-05
9.69443e-05
9.61809e-05
9.61873e-05
9.65225e-05
9.69517e-05
9.69413e-05
9.70025e-05
9.69654e-05
9.64877e-05
9.64503e-05
9.70525e-05
9.72125e-05
9.70953e-05
9.72306e-05
9.69185e-05
9.69315e-05
9.69297e-05
9.64088e-05
9.63638e-05
9.69626e-05
9.70126e-05
9.69981e-05
9.62805e-05
9.63515e-05
9.65666e-05
9.69889e-05
9.69493e-05
9.69196e-05
9.68686e-05
9.66239e-05
9.65636e-05
9.70805e-05
9.7214e-05
9.70139e-05
9.71086e-05
9.69078e-05
9.69274e-05
9.67945e-05
9.64378e-05
9.6795e-05
9.6984e-05
9.70152e-05
9.69144e-05
9.65357e-05
9.6352e-05
9.64613e-05
9.64001e-05
9.62418e-05
9.65401e-05
9.66255e-05
0.000112633
0.000112644
0.000112687
9.63504e-05
9.64743e-05
9.6464e-05
8.17892e-05
4.95379e-05
8.17656e-05
2.34732e-05
2.34748e-05
8.15864e-05
4.95371e-05
0.00011041
0.000110429
0.000110376
0.000110429
0.000110415
0.000110439
9.20625e-05
8.04054e-05
0.00010078
9.65902e-05
8.03639e-05
0.000100794
9.19996e-05
2.34699e-05
9.19263e-05
0.000100799
9.66028e-05
0.000100799
8.0342e-05
9.2058e-05
6.77274e-05
6.77312e-05
9.67668e-05
6.7728e-05
6.77151e-05
8.178e-05
4.95383e-05
8.17913e-05
4.95412e-05
2.34745e-05
2.34765e-05
8.15477e-05
4.95367e-05
8.15743e-05
4.95373e-05
0.000110411
0.000110407
0.000110438
0.000110433
0.000110392
0.000110398
0.000110425
9.22406e-05
8.04305e-05
0.000100753
9.66637e-05
9.23612e-05
8.04075e-05
0.000100839
2.34682e-05
2.34695e-05
9.21235e-05
0.000100799
8.03289e-05
9.66393e-05
9.22097e-05
0.000100841
8.03732e-05
6.77273e-05
6.77231e-05
9.68802e-05
6.77255e-05
6.77391e-05
8.18584e-05
4.9545e-05
8.17943e-05
4.95483e-05
2.3476e-05
2.34774e-05
8.16327e-05
4.95359e-05
8.15681e-05
4.95364e-05
0.00011044
0.00011042
0.000110462
0.000110466
0.000110428
0.000110436
0.000110467
9.23706e-05
8.04857e-05
0.000100817
9.67588e-05
9.24117e-05
8.05105e-05
0.000100909
2.34688e-05
2.34704e-05
9.23903e-05
0.000100847
8.03835e-05
9.66737e-05
9.2282e-05
0.000100873
8.04195e-05
6.77433e-05
6.77417e-05
9.60809e-05
6.77469e-05
6.77474e-05
8.18753e-05
4.95498e-05
8.18442e-05
4.95506e-05
2.3477e-05
2.34788e-05
8.16768e-05
4.95372e-05
8.16466e-05
4.95391e-05
0.000110469
0.000110445
0.00011048
0.000110473
0.000110446
0.000110432
0.000110491
9.27519e-05
8.05845e-05
0.000100885
9.68264e-05
9.25437e-05
8.05909e-05
0.000100963
2.34696e-05
2.34714e-05
9.2327e-05
0.000100858
8.04123e-05
9.66815e-05
9.24365e-05
0.000100865
8.03069e-05
6.7772e-05
6.77743e-05
9.65072e-05
6.77884e-05
6.77932e-05
8.18465e-05
4.95504e-05
8.17962e-05
4.95533e-05
2.34783e-05
2.34801e-05
8.17138e-05
4.95414e-05
8.16867e-05
4.95436e-05
0.000110478
0.000110467
0.0001105
0.000110478
0.000110463
0.000110479
0.000110498
9.28065e-05
8.06072e-05
0.00010095
9.68857e-05
9.27189e-05
8.05493e-05
0.000100994
2.34705e-05
2.34724e-05
9.20443e-05
0.000100837
8.03166e-05
9.6692e-05
9.24323e-05
0.000100869
8.03773e-05
6.77988e-05
6.77795e-05
9.55463e-05
6.78117e-05
6.77951e-05
8.19295e-05
4.95556e-05
8.18612e-05
4.95585e-05
2.34794e-05
2.34809e-05
8.17272e-05
4.95456e-05
8.17133e-05
4.95472e-05
0.000110478
0.000110463
0.000110511
0.000110482
0.000110467
0.000110455
0.00011049
9.29595e-05
8.06228e-05
0.000101005
9.69104e-05
9.29142e-05
8.07099e-05
0.00010104
2.34722e-05
2.34742e-05
9.18787e-05
0.000100833
8.04236e-05
9.66708e-05
9.22018e-05
0.000100879
8.03778e-05
6.78125e-05
6.7773e-05
9.62484e-05
6.78147e-05
6.77941e-05
8.19473e-05
4.95613e-05
8.18943e-05
4.956e-05
2.348e-05
2.34817e-05
8.178e-05
4.95478e-05
8.17286e-05
4.95488e-05
0.00011049
0.000110478
0.000110511
0.000110481
0.00011048
0.000110477
0.000110505
9.28827e-05
8.0687e-05
0.000101042
9.6931e-05
9.27596e-05
8.07067e-05
0.000101063
2.3474e-05
2.3476e-05
9.21482e-05
0.000100822
8.03927e-05
9.66707e-05
9.18793e-05
0.000100869
8.04398e-05
6.78053e-05
6.77669e-05
9.5829e-05
6.78343e-05
6.77789e-05
8.19525e-05
4.95532e-05
8.19351e-05
4.95517e-05
2.34819e-05
2.34838e-05
8.17711e-05
4.95482e-05
8.17745e-05
4.95485e-05
0.000110507
0.000110501
0.00011052
0.000110491
0.000110495
0.000110485
0.000110514
9.30572e-05
8.07111e-05
0.000101061
9.69696e-05
9.31035e-05
8.07054e-05
0.000101077
2.34752e-05
2.34768e-05
9.17255e-05
0.000100822
8.03835e-05
9.67221e-05
9.18589e-05
0.000100867
8.04155e-05
6.78123e-05
6.77872e-05
9.55355e-05
6.77819e-05
6.7798e-05
8.19295e-05
4.9549e-05
8.18839e-05
4.9549e-05
2.34826e-05
2.34832e-05
8.18071e-05
4.95481e-05
8.17813e-05
4.95478e-05
0.000110504
0.000110508
0.000110519
0.000110469
0.000110503
0.000110509
0.000110514
9.30089e-05
8.06249e-05
0.000101078
9.69781e-05
9.30778e-05
8.07302e-05
0.00010109
2.34757e-05
2.34772e-05
9.16785e-05
0.000100799
8.0484e-05
9.67432e-05
9.177e-05
0.000100839
8.05162e-05
6.77706e-05
6.78002e-05
9.61742e-05
6.77891e-05
6.78257e-05
8.19626e-05
4.95481e-05
8.19319e-05
4.95478e-05
2.34808e-05
2.34816e-05
8.17352e-05
4.9546e-05
8.16868e-05
4.95458e-05
0.0001105
0.00011054
0.000110513
0.000110462
0.000110483
0.00011052
0.000110498
9.30282e-05
8.06848e-05
0.00010108
9.69343e-05
9.29589e-05
8.0689e-05
0.000101093
2.34761e-05
2.3477e-05
9.18722e-05
0.000100802
8.05331e-05
9.67434e-05
9.17968e-05
0.000100833
8.04678e-05
6.77965e-05
6.77649e-05
9.6527e-05
6.77977e-05
6.77692e-05
8.19371e-05
4.95444e-05
8.19074e-05
4.95444e-05
2.34796e-05
2.34811e-05
8.1729e-05
4.95464e-05
8.1729e-05
4.95467e-05
0.000110469
0.000110524
0.000110498
0.00011045
0.00011045
0.000110503
0.000110481
9.31969e-05
8.06949e-05
0.000101092
9.68887e-05
9.3236e-05
8.07058e-05
0.000101102
2.34747e-05
2.34758e-05
9.17655e-05
0.000100804
8.05218e-05
9.6719e-05
9.15438e-05
0.000100817
8.04882e-05
6.78106e-05
6.77676e-05
9.63259e-05
6.78152e-05
6.77631e-05
8.18646e-05
4.95423e-05
8.18902e-05
4.95429e-05
2.34797e-05
2.34807e-05
8.1722e-05
4.95467e-05
8.16713e-05
4.95474e-05
0.000110477
0.000110493
0.000110475
0.000110448
0.000110449
0.000110477
0.000110457
9.32688e-05
8.07659e-05
0.000101067
9.68485e-05
9.32506e-05
8.07878e-05
0.000101079
2.34744e-05
2.34755e-05
9.15791e-05
0.00010077
8.04443e-05
9.67088e-05
9.13867e-05
0.000100811
8.0439e-05
6.78197e-05
6.77764e-05
9.66039e-05
6.77954e-05
6.77756e-05
8.18066e-05
4.95418e-05
8.18283e-05
4.95426e-05
2.34785e-05
2.34797e-05
8.17667e-05
4.95421e-05
8.16929e-05
4.95416e-05
0.000110461
0.000110468
0.000110496
0.000110453
0.000110467
0.00011046
0.000110475
9.31567e-05
8.0779e-05
0.000101053
9.68185e-05
9.32808e-05
8.0745e-05
0.00010108
2.34741e-05
2.34754e-05
9.14499e-05
0.000100748
8.04762e-05
9.67045e-05
9.16288e-05
0.000100776
8.03863e-05
6.77869e-05
6.77718e-05
9.67183e-05
6.78117e-05
6.77928e-05
8.18691e-05
4.95422e-05
8.18632e-05
4.9544e-05
2.34784e-05
2.34794e-05
8.16566e-05
4.9539e-05
8.16098e-05
4.95379e-05
0.00011048
0.000110489
0.000110455
0.000110459
0.000110466
0.000110484
0.000110453
9.29159e-05
8.08419e-05
0.000101018
9.67891e-05
9.29921e-05
8.08145e-05
0.000101043
2.34741e-05
2.34755e-05
9.15535e-05
0.000100761
8.03145e-05
9.6705e-05
9.14816e-05
0.000100765
8.03671e-05
6.78038e-05
6.7784e-05
9.67483e-05
6.78209e-05
6.78202e-05
8.19297e-05
4.95447e-05
8.18367e-05
4.9546e-05
2.34779e-05
2.34792e-05
8.16679e-05
4.95358e-05
8.16437e-05
4.95348e-05
0.000110484
0.00011049
0.000110468
0.000110454
0.000110454
0.000110489
0.000110453
9.28311e-05
8.08537e-05
0.000101011
9.67744e-05
9.29993e-05
8.09037e-05
0.000101034
2.34742e-05
2.34759e-05
9.15435e-05
0.000100734
8.03993e-05
9.67256e-05
9.15262e-05
0.000100742
8.03756e-05
6.78037e-05
6.78186e-05
9.67061e-05
6.78179e-05
6.78425e-05
8.18763e-05
4.95459e-05
8.18264e-05
4.95452e-05
2.34779e-05
2.34789e-05
8.16495e-05
4.95324e-05
8.16315e-05
4.95324e-05
0.000110483
0.000110517
0.000110489
0.000110444
0.000110455
0.000110507
0.000110477
9.29791e-05
8.09063e-05
0.000100969
9.67278e-05
9.29754e-05
8.08763e-05
0.000101022
2.34746e-05
2.3476e-05
9.18272e-05
0.000100727
8.04849e-05
9.67501e-05
9.16547e-05
0.000100764
8.04852e-05
6.78246e-05
6.78186e-05
9.66865e-05
6.78462e-05
6.78255e-05
8.19362e-05
4.95436e-05
8.19163e-05
4.95434e-05
2.34774e-05
2.34786e-05
8.16359e-05
4.95317e-05
8.16082e-05
4.95328e-05
0.000110476
0.000110508
0.000110468
0.000110457
0.000110455
0.000110509
0.000110467
9.31175e-05
8.09626e-05
0.000100966
9.67086e-05
9.30695e-05
8.09447e-05
0.000100999
2.34744e-05
2.34754e-05
9.20277e-05
0.000100728
8.03913e-05
9.6815e-05
9.184e-05
0.000100767
8.04381e-05
6.7822e-05
6.78093e-05
9.67033e-05
6.78497e-05
6.78339e-05
8.18895e-05
4.95408e-05
8.18597e-05
4.95405e-05
2.34772e-05
2.34787e-05
8.16813e-05
4.9533e-05
8.16088e-05
4.95345e-05
0.000110468
0.000110511
0.000110477
0.000110456
0.000110463
0.00011051
0.000110459
9.32183e-05
8.09783e-05
0.000100953
9.67179e-05
9.31443e-05
8.09952e-05
0.000100986
2.34746e-05
2.34764e-05
9.21296e-05
0.000100792
8.05419e-05
9.68723e-05
9.18579e-05
0.00010082
8.05479e-05
6.78505e-05
6.78232e-05
9.67336e-05
6.78482e-05
6.78156e-05
8.19452e-05
4.95394e-05
8.18975e-05
4.95403e-05
2.34777e-05
2.34792e-05
8.16006e-05
4.95348e-05
8.16347e-05
4.95355e-05
0.000110457
0.000110518
0.000110495
0.000110447
0.000110466
0.000110509
0.000110472
9.32513e-05
8.08039e-05
0.000100944
9.67023e-05
9.31976e-05
8.08896e-05
0.000100985
2.34754e-05
2.34769e-05
9.18956e-05
0.000100821
8.0535e-05
9.6947e-05
9.18722e-05
0.000100851
8.06374e-05
6.78262e-05
6.7843e-05
9.67679e-05
6.77996e-05
6.78327e-05
8.19733e-05
4.95389e-05
8.19702e-05
4.95407e-05
2.34786e-05
2.34802e-05
8.15687e-05
4.95355e-05
8.15749e-05
4.9536e-05
0.000110474
0.000110515
0.000110469
0.000110446
0.000110477
0.0001105
0.000110461
9.26761e-05
8.08433e-05
0.000100907
9.67114e-05
9.24165e-05
8.08514e-05
0.000100955
2.34758e-05
2.34769e-05
9.21914e-05
0.000100841
8.06696e-05
9.6987e-05
9.19394e-05
0.000100892
8.067e-05
6.77849e-05
6.78645e-05
9.6763e-05
6.7798e-05
6.78639e-05
8.20311e-05
4.95433e-05
8.20013e-05
4.95452e-05
2.34783e-05
2.34793e-05
8.16403e-05
4.95361e-05
8.15465e-05
4.95374e-05
0.000110478
0.000110506
0.000110463
0.000110439
0.000110466
0.000110506
0.000110461
9.26979e-05
8.096e-05
0.000100905
9.6714e-05
9.26396e-05
8.09803e-05
0.000100951
2.34757e-05
2.34777e-05
9.21272e-05
0.000100861
8.07376e-05
9.70362e-05
9.19144e-05
0.000100921
8.07282e-05
6.77871e-05
6.78512e-05
9.67302e-05
6.78043e-05
6.78557e-05
8.20581e-05
4.95462e-05
8.20066e-05
4.95471e-05
2.34778e-05
2.34787e-05
8.16888e-05
4.95421e-05
8.16479e-05
4.95446e-05
0.000110478
0.000110501
0.000110454
0.000110422
0.000110464
0.000110498
0.000110446
9.23969e-05
8.09682e-05
0.000100875
9.67337e-05
9.26743e-05
8.08513e-05
0.000100926
2.34771e-05
2.3479e-05
9.23341e-05
0.000100875
8.06977e-05
9.70572e-05
9.19948e-05
0.000100925
8.0801e-05
6.78133e-05
6.78456e-05
9.67433e-05
6.78283e-05
6.78331e-05
8.20035e-05
4.95472e-05
8.19764e-05
4.95481e-05
2.34753e-05
2.34754e-05
8.17194e-05
4.95483e-05
8.16985e-05
4.95502e-05
0.000110477
0.000110498
0.000110448
0.000110415
0.00011047
0.00011049
0.000110439
9.26358e-05
8.08769e-05
0.000100846
9.674e-05
9.25817e-05
8.08759e-05
0.000100882
2.34779e-05
2.34793e-05
9.25221e-05
0.000100907
8.08418e-05
9.70692e-05
9.24389e-05
0.000100943
8.0869e-05
6.78404e-05
6.77779e-05
9.67109e-05
6.78583e-05
6.77811e-05
8.19962e-05
4.95466e-05
8.19612e-05
4.95492e-05
2.34731e-05
2.34744e-05
8.17236e-05
4.95515e-05
8.17159e-05
4.95531e-05
0.000110471
0.000110522
0.00011047
0.000110441
0.000110457
0.000110505
0.000110454
9.23175e-05
8.0855e-05
0.000100846
9.67514e-05
9.25405e-05
8.0921e-05
0.000100871
2.3478e-05
2.34795e-05
9.24501e-05
0.000100917
8.08819e-05
9.70757e-05
9.24989e-05
0.000100975
8.09365e-05
6.78376e-05
6.77547e-05
9.66224e-05
6.7843e-05
6.77273e-05
8.20172e-05
4.95541e-05
8.19853e-05
4.95555e-05
2.34735e-05
2.3475e-05
8.168e-05
4.95563e-05
8.16506e-05
4.95586e-05
0.000110474
0.000110514
0.000110447
0.000110451
0.00011046
0.000110504
0.000110431
9.25609e-05
8.07739e-05
0.000100821
9.67468e-05
9.24406e-05
8.08433e-05
0.000100867
2.34787e-05
2.34802e-05
9.27325e-05
0.000100952
8.08725e-05
9.70941e-05
9.26013e-05
0.000100968
8.09149e-05
6.78088e-05
6.77031e-05
9.66358e-05
6.77954e-05
6.7725e-05
8.19468e-05
4.95565e-05
8.19626e-05
4.95575e-05
2.3473e-05
2.34741e-05
8.17292e-05
4.9559e-05
8.16999e-05
4.95595e-05
0.000110467
0.000110508
0.000110468
0.000110458
0.000110447
0.0001105
0.000110448
9.26202e-05
8.08945e-05
0.000100812
9.67528e-05
9.3002e-05
8.09395e-05
0.000100843
2.34791e-05
2.34805e-05
9.25664e-05
0.000100949
8.0927e-05
9.71049e-05
9.25382e-05
0.000100957
8.0924e-05
6.7772e-05
6.77483e-05
9.66678e-05
6.77948e-05
6.77472e-05
8.20092e-05
4.95586e-05
8.19947e-05
4.95608e-05
2.34724e-05
2.34736e-05
8.17106e-05
4.95604e-05
8.16752e-05
4.95631e-05
0.000110493
0.0001105
0.000110447
0.00011045
0.000110475
0.000110494
0.00011044
9.22774e-05
8.09442e-05
0.000100808
9.67681e-05
9.22816e-05
8.09601e-05
0.000100836
2.34799e-05
2.34816e-05
9.24771e-05
0.000100932
8.09033e-05
9.71031e-05
9.2458e-05
0.000100943
8.0901e-05
6.78082e-05
6.77653e-05
9.63318e-05
6.77982e-05
6.77653e-05
8.20105e-05
4.95615e-05
8.19466e-05
4.95639e-05
2.34727e-05
2.34736e-05
8.17422e-05
4.95644e-05
8.16672e-05
4.95657e-05
0.000110479
0.000110502
0.00011044
0.000110446
0.000110475
0.000110489
0.000110431
9.23361e-05
8.09489e-05
0.000100772
9.67898e-05
9.21839e-05
8.09694e-05
0.000100815
2.34804e-05
2.34816e-05
9.23783e-05
0.000100913
8.09139e-05
9.70791e-05
9.21791e-05
0.000100927
8.08694e-05
6.77967e-05
6.77364e-05
9.60678e-05
6.77989e-05
6.77419e-05
8.20375e-05
4.95656e-05
8.20077e-05
4.95643e-05
2.34723e-05
2.34733e-05
8.17545e-05
4.95662e-05
8.17573e-05
4.95675e-05
0.000110477
0.000110503
0.00011044
0.000110452
0.000110471
0.000110493
0.000110437
9.23415e-05
8.09091e-05
0.000100765
9.67921e-05
9.23238e-05
8.09469e-05
0.00010079
2.34806e-05
2.34823e-05
9.25332e-05
0.000100901
8.08591e-05
9.70299e-05
9.2407e-05
0.000100928
8.09124e-05
6.77623e-05
6.77337e-05
9.59639e-05
6.77493e-05
6.77301e-05
8.20701e-05
4.95596e-05
8.20513e-05
4.95594e-05
2.34724e-05
2.34739e-05
8.1777e-05
4.95682e-05
8.17383e-05
4.95693e-05
0.000110479