/*--------------------------------*- C++ -*----------------------------------*\
| =========                 |                                                 |
| \\      /  F ield         | OpenFOAM: The Open Source CFD Toolbox           |
|  \\    /   O peration     | Version:  v2012                                 |
|   \\  /    A nd           | Website:  www.openfoam.com                      |
|    \\/     M anipulation  |                                                 |
\*---------------------------------------------------------------------------*/
FoamFile
{
    version     2.0;
    format      ascii;
    class       volScalarField;
    location    "150";
    object      p;
}
// * * * * * * * * * * * * * * * * * * * * * * * * * * * * * * * * * * * * * //

dimensions      [0 2 -2 0 0 0 0];


internalField   nonuniform List<scalar> 
85864
(
0.00164781
0.00164777
0.00164934
0.00164777
0.00164777
0.00164777
0.00164934
0.00164988
0.00164989
0.00164987
0.0016478
0.00164989
0.00164981
0.00164989
0.00164989
0.00164988
0.00164988
0.00164981
0.00164981
0.00164778
0.00164974
0.00164988
0.00164987
0.00164778
0.00164981
0.00164974
0.00164988
0.00164989
0.0016499
0.00164989
0.00164566
0.00164989
0.0016499
0.00164565
0.00164566
0.00164989
0.00164564
0.0016499
0.00164565
0.00164567
0.00164987
0.0016499
0.00164566
0.00164565
0.0016499
0.00164566
0.00164565
0.00164565
0.00164568
0.00164981
0.00164566
0.00164988
0.00164566
0.00164571
0.00164984
0.00164568
0.00164981
0.00164566
0.00164988
0.00164566
0.00164571
0.00164984
0.00164564
0.0016499
0.0016499
0.00164564
0.00164564
0.0016499
0.00164565
0.00164566
0.00164989
0.00164565
0.0016499
0.00164565
0.00164566
0.0016499
0.00164987
0.00164566
0.00164566
0.0016499
0.00164569
0.00164981
0.00164566
0.00164989
0.00164566
0.00164572
0.00164985
0.00164569
0.00164981
0.00164566
0.00164989
0.00164572
0.00164567
0.00164985
0.00164564
0.00164991
0.00164991
0.00164565
0.00164565
0.00164991
0.00164566
0.00164566
0.0016478
0.00164583
0.00164956
0.00164956
0.00164619
0.00164598
0.00164598
0.0016497
0.00164583
0.00164956
0.00164956
0.00164619
0.00164598
0.00164598
0.0016497
0.0016478
0.00164593
0.00164967
0.00164572
0.00164978
0.00164584
0.00164576
0.0016496
0.00164593
0.00164967
0.00164572
0.00164977
0.00164575
0.00164584
0.00164959
0.00164593
0.00164967
0.00164571
0.00164977
0.00164575
0.00164583
0.00164959
0.00164595
0.00164578
0.00164974
0.00164956
0.00164577
0.00164595
0.00164956
0.00164593
0.00164967
0.00164572
0.00164977
0.00164575
0.00164584
0.00164959
0.00164596
0.00164578
0.00164956
0.00164974
0.00164595
0.00164577
0.00164957
0.00164777
0.00164935
0.00161271
0.00161269
0.00161269
0.00161427
0.00157762
0.00157759
0.00157759
0.00157917
0.00154252
0.00154249
0.00154249
0.00154407
0.00150742
0.00150739
0.00150739
0.00150897
0.00147231
0.00147228
0.00147228
0.00147386
0.0014372
0.00143717
0.00143717
0.00143875
0.00140207
0.00140205
0.00140204
0.00140362
0.00136693
0.0013669
0.0013669
0.00136847
0.00133177
0.00133175
0.00133175
0.00133333
0.00129661
0.00129658
0.00129659
0.00129817
0.00126145
0.00126141
0.00126142
0.001263
0.00122628
0.00122625
0.00122624
0.00122782
0.00119112
0.00119109
0.00119108
0.00119267
0.00115597
0.00115594
0.00115594
0.00115751
0.00112082
0.00112079
0.0011208
0.00112237
0.00108569
0.00108566
0.00108567
0.00108724
0.00105056
0.00105053
0.00105054
0.00105212
0.00101543
0.0010154
0.0010154
0.00101698
0.000980299
0.000980276
0.000980271
0.000981854
0.000945177
0.000945152
0.000945147
0.000946729
0.000910059
0.000910028
0.000910027
0.000911605
0.000874936
0.000874906
0.000874905
0.000876485
0.000839819
0.000839785
0.000839789
0.000841366
0.0008047
0.000804667
0.00080467
0.000806243
0.000769578
0.000769547
0.000769546
0.000771125
0.00073445
0.000734422
0.000734425
0.000735999
0.000699325
0.000699293
0.000699295
0.000700873
0.000664196
0.000664164
0.000664166
0.000665745
0.000629058
0.000629031
0.00062903
0.000630606
0.000593921
0.000593889
0.000593894
0.000595469
0.000558787
0.000558756
0.00055876
0.000560334
0.000523659
0.00052363
0.000523632
0.000525212
0.000488537
0.000488511
0.00048851
0.000490093
0.000453416
0.000453389
0.000453387
0.000454973
0.000418299
0.000418272
0.000418267
0.00041985
0.000383179
0.00038315
0.000383149
0.000384728
0.000348059
0.000348032
0.00034803
0.000349604
0.000312935
0.000312909
0.000312905
0.000314485
0.000277812
0.000277788
0.000277782
0.000279357
0.000242684
0.000242659
0.000242656
0.000244229
0.000207552
0.000207525
0.000207529
0.000209098
0.000172419
0.000172396
0.0001724
0.000173957
0.000137284
0.000137266
0.000137272
0.000138816
0.000102134
0.000102127
0.000102128
0.000103645
6.69926e-05
6.6978e-05
6.6976e-05
6.8431e-05
3.25512e-05
3.20649e-05
3.20633e-05
3.3185e-05
6.65409e-06
7.00815e-06
7.0074e-06
5.77697e-06
0.00161988
0.00164777
0.00162146
0.00162146
0.00164934
0.00161989
0.00162146
0.00162146
0.00164778
0.00162146
0.00162146
0.00161988
0.00164778
0.00162146
0.00162146
0.00161989
0.00161425
0.00158479
0.00161268
0.00161269
0.00158636
0.00158636
0.00161426
0.00158479
0.00161268
0.00161269
0.00158636
0.00158636
0.00161269
0.00158637
0.00158636
0.00161426
0.00158479
0.00161269
0.00158636
0.00158636
0.00158479
0.00157917
0.00154969
0.00157759
0.00157759
0.00155126
0.00155127
0.00157916
0.00154969
0.00157759
0.00157759
0.00155126
0.00155126
0.00157759
0.00155127
0.00155126
0.00157917
0.00154969
0.00157759
0.00155126
0.00155126
0.00154969
0.00154406
0.00151459
0.00154249
0.00154249
0.00151617
0.00151617
0.00154407
0.00151459
0.00154249
0.00154249
0.00151616
0.00151616
0.00154249
0.00151617
0.00151616
0.00154406
0.00151458
0.00154249
0.00151616
0.00151616
0.00151459
0.00150896
0.00147948
0.00150739
0.00150739
0.00148106
0.00148106
0.00150896
0.00147948
0.00150739
0.00150739
0.00148106
0.00148106
0.00150739
0.00148106
0.00148106
0.00150896
0.00147948
0.00150739
0.00148106
0.00148106
0.00147949
0.00147386
0.00144437
0.00147228
0.00147228
0.00144595
0.00144595
0.00147386
0.00144437
0.00147228
0.00147228
0.00144595
0.00144595
0.00147229
0.00144595
0.00144595
0.00147386
0.00144437
0.00147229
0.00144595
0.00144595
0.00144438
0.00143874
0.00140924
0.00143717
0.00143717
0.00141082
0.00141083
0.00143874
0.00140925
0.00143717
0.00143717
0.00141082
0.00141083
0.00143717
0.00141083
0.00141082
0.00143875
0.00140925
0.00143717
0.00141083
0.00141082
0.00140925
0.00140362
0.00137411
0.00140204
0.00140205
0.00137569
0.00137569
0.00140362
0.00137411
0.00140204
0.00140205
0.00137569
0.00137569
0.00140204
0.00137569
0.00137568
0.00140362
0.00137411
0.00140204
0.00137569
0.00137568
0.0013741
0.00136848
0.00133896
0.0013669
0.0013669
0.00134054
0.00134054
0.00136848
0.00133895
0.0013669
0.0013669
0.00134053
0.00134054
0.0013669
0.00134053
0.00134054
0.00136848
0.00133896
0.0013669
0.00134054
0.00134054
0.00133896
0.00133333
0.00130379
0.00133175
0.00133175
0.00130538
0.00130537
0.00133332
0.00130379
0.00133174
0.00133175
0.00130538
0.00130538
0.00133175
0.00130537
0.00130538
0.00133332
0.0013038
0.00133175
0.00130538
0.00130538
0.0013038
0.00129816
0.00126863
0.00129658
0.00129658
0.00127021
0.00127021
0.00129816
0.00126862
0.00129659
0.00129659
0.00127021
0.00127021
0.00129659
0.00127021
0.00127021
0.00129817
0.00126863
0.00129659
0.00127021
0.00127021
0.00126863
0.00126299
0.00123346
0.00126142
0.00126141
0.00123504
0.00123504
0.00126299
0.00123346
0.00126142
0.00126142
0.00123504
0.00123504
0.00126142
0.00123504
0.00123504
0.00126299
0.00123346
0.00126142
0.00123504
0.00123503
0.00123346
0.00122783
0.0011983
0.00122625
0.00122625
0.00119988
0.00119988
0.00122782
0.0011983
0.00122625
0.00122625
0.00119988
0.00119987
0.00122625
0.00119988
0.00119988
0.00122782
0.00119829
0.00122624
0.00119987
0.00119987
0.0011983
0.00119266
0.00116315
0.00119109
0.00119109
0.00116473
0.00116472
0.00119267
0.00116315
0.00119109
0.00119108
0.00116472
0.00116472
0.00119109
0.00116472
0.00116472
0.00119266
0.00116314
0.00119108
0.00116472
0.00116472
0.00116315
0.00115751
0.001128
0.00115594
0.00115594
0.00112958
0.00112958
0.00115752
0.001128
0.00115594
0.00115594
0.00112958
0.00112958
0.00115593
0.00112958
0.00112957
0.00115751
0.001128
0.00115593
0.00112958
0.00112958
0.001128
0.00112237
0.00109286
0.00112079
0.00112079
0.00109444
0.00109444
0.00112237
0.00109286
0.00112079
0.00112079
0.00109444
0.00109444
0.00112079
0.00109444
0.00109444
0.00112237
0.00109287
0.00112079
0.00109445
0.00109444
0.00109287
0.00108724
0.00105773
0.00108566
0.00108566
0.00105931
0.00105931
0.00108723
0.00105773
0.00108566
0.00108566
0.00105931
0.00105932
0.00108566
0.00105931
0.00105932
0.00108724
0.00105774
0.00108566
0.00105932
0.00105932
0.00105774
0.0010521
0.0010226
0.00105053
0.00105053
0.00102418
0.00102418
0.0010521
0.0010226
0.00105053
0.00105053
0.00102418
0.00102418
0.00105054
0.00102418
0.00102419
0.00105211
0.00102261
0.00105054
0.00102419
0.00102419
0.00102261
0.00101697
0.000987472
0.0010154
0.0010154
0.000989051
0.000989056
0.00101698
0.000987479
0.0010154
0.0010154
0.000989049
0.000989051
0.0010154
0.000989058
0.000989057
0.00101698
0.000987475
0.0010154
0.000989053
0.000989054
0.000987481
0.000981847
0.00095235
0.000980271
0.000980275
0.000953928
0.000953932
0.00098185
0.000952356
0.000980269
0.00098027
0.000953926
0.000953928
0.000980276
0.000953932
0.00095393
0.000981847
0.000952351
0.000980273
0.000953928
0.000953928
0.000952357
0.000946725
0.000917231
0.000945149
0.000945153
0.000918809
0.000918811
0.000946729
0.000917237
0.000945149
0.000945148
0.00091881
0.000918809
0.000945149
0.00091881
0.000918807
0.000946724
0.00091723
0.000945149
0.000918806
0.000918808
0.000917234
0.000911607
0.00088211
0.000910031
0.000910029
0.000883686
0.000883686
0.000911607
0.000882106
0.000910032
0.000910029
0.000883688
0.000883686
0.000910026
0.000883685
0.000883685
0.000911605
0.000882107
0.000910027
0.000883685
0.000883686
0.000882112
0.000876484
0.00084699
0.000874906
0.000874907
0.000848569
0.000848565
0.00087648
0.000846987
0.000874908
0.000874906
0.00084857
0.000848568
0.000874906
0.000848565
0.000848566
0.000876481
0.000846991
0.000874906
0.000848568
0.000848566
0.000846991
0.000841364
0.000811871
0.00083979
0.000839787
0.000813449
0.000813447
0.000841361
0.00081187
0.000839792
0.00083979
0.000813452
0.000813452
0.000839785
0.000813446
0.000813443
0.000841366
0.000811874
0.000839788
0.00081345
0.000813444
0.000811869
0.000806245
0.00077675
0.00080467
0.000804667
0.000778328
0.000778325
0.000806243
0.000776747
0.000804672
0.000804672
0.000778329
0.000778328
0.000804664
0.000778326
0.000778323
0.000806247
0.000776751
0.000804665
0.000778326
0.000778324
0.000776751
0.000771123
0.000741624
0.000769546
0.000769545
0.000743202
0.000743202
0.000771122
0.000741625
0.000769548
0.000769548
0.000743203
0.000743203
0.000769545
0.000743204
0.000743203
0.000771123
0.000741625
0.000769545
0.000743204
0.000743202
0.000741627
0.000735997
0.000706499
0.000734421
0.000734421
0.000708076
0.000708073
0.000735997
0.000706494
0.000734423
0.000734423
0.000708076
0.000708076
0.000734422
0.000708075
0.000708076
0.000735998
0.000706505
0.000734423
0.000708077
0.000708078
0.000706501
0.000700874
0.000671371
0.000699297
0.000699292
0.00067295
0.000672946
0.000700867
0.000671368
0.000699295
0.000699295
0.00067295
0.00067295
0.000699294
0.000672946
0.000672947
0.000700874
0.000671374
0.000699297
0.000672949
0.000672947
0.000671375
0.000665743
0.000636236
0.000664167
0.000664165
0.000637814
0.000637814
0.000665741
0.000636237
0.000664169
0.000664167
0.000637815
0.000637816
0.000664163
0.000637814
0.000637812
0.000665744
0.000636233
0.000664165
0.000637814
0.000637811
0.000636235
0.000630607
0.000601097
0.000629031
0.00062903
0.000602674
0.000602673
0.000630608
0.000601103
0.000629031
0.000629032
0.000602676
0.000602678
0.00062903
0.000602675
0.000602676
0.000630605
0.0006011
0.000629028
0.000602677
0.000602675
0.000601099
0.000595469
0.000565965
0.000593891
0.000593888
0.000567541
0.000567539
0.00059547
0.000565958
0.000593893
0.000593896
0.000567542
0.000567543
0.000593892
0.000567538
0.00056754
0.000595472
0.000565967
0.000593892
0.000567542
0.000567539
0.000565964
0.000560335
0.000530833
0.000558758
0.000558757
0.000532411
0.000532411
0.000560328
0.000530835
0.000558759
0.000558762
0.00053241
0.000532413
0.000558757
0.00053241
0.00053241
0.00056034
0.000530838
0.000558756
0.000532414
0.000532411
0.000530838
0.000525206
0.000495711
0.000523631
0.00052363
0.000497289
0.00049729
0.000525206
0.000495712
0.00052363
0.000523632
0.000497287
0.000497288
0.000523633
0.00049729
0.000497293
0.00052521
0.00049571
0.000523633
0.00049729
0.000497291
0.000495719
0.000490084
0.000460591
0.00048851
0.000488512
0.000462167
0.000462168
0.000490083
0.000460594
0.000488507
0.000488508
0.000462166
0.000462166
0.000488514
0.000462168
0.000462172
0.000490083
0.000460588
0.000488513
0.000462166
0.00046217
0.000460598
0.000454965
0.000425469
0.000453388
0.00045339
0.000427047
0.00042705
0.000454967
0.00042547
0.000453387
0.000453388
0.000427046
0.000427047
0.000453393
0.00042705
0.000427049
0.000454962
0.000425469
0.000453392
0.000427045
0.000427048
0.000425475
0.000419842
0.000390351
0.00041827
0.000418272
0.00039193
0.00039193
0.000419845
0.000390351
0.00041827
0.00041827
0.000391929
0.000391928
0.000418271
0.000391929
0.000391928
0.000419843
0.00039035
0.00041827
0.000391926
0.000391929
0.000390356
0.000384726
0.000355232
0.000383152
0.000383152
0.000356808
0.000356811
0.000384725
0.000355233
0.000383152
0.00038315
0.000356809
0.000356809
0.000383151
0.00035681
0.000356807
0.000384725
0.000355232
0.00038315
0.000356807
0.000356805
0.000355235
0.000349604
0.000320111
0.000348031
0.000348033
0.000321685
0.000321688
0.000349607
0.000320118
0.000348031
0.000348032
0.000321686
0.000321687
0.000348028
0.000321688
0.000321686
0.000349606
0.000320108
0.000348028
0.000321684
0.000321685
0.000320111
0.000314483
0.000284986
0.000312907
0.000312909
0.000286562
0.000286566
0.000314487
0.000284989
0.000312906
0.000312909
0.000286562
0.000286561
0.000312909
0.000286566
0.000286562
0.000314481
0.000284983
0.000312908
0.000286559
0.000286559
0.000284987
0.000279357
0.000249862
0.000277787
0.00027779
0.000251436
0.00025144
0.000279359
0.000249863
0.000277787
0.000277784
0.000251437
0.000251435
0.000277784
0.000251438
0.000251434
0.000279354
0.000249857
0.000277782
0.000251433
0.000251433
0.000249861
0.00024423
0.000214731
0.000242659
0.000242662
0.000216306
0.000216305
0.000244229
0.000214731
0.000242659
0.000242658
0.000216306
0.000216305
0.000242658
0.000216303
0.000216306
0.000244226
0.000214729
0.000242657
0.000216304
0.000216306
0.000214736
0.000209091
0.000179604
0.000207529
0.000207528
0.000181177
0.000181173
0.000209091
0.000179598
0.000207529
0.00020753
0.000181177
0.000181176
0.00020753
0.00018117
0.000181174
0.000209093
0.000179605
0.00020753
0.000181175
0.000181174
0.000179604
0.000173959
0.000144469
0.000172402
0.000172396
0.000146041
0.00014604
0.000173951
0.00014447
0.000172403
0.000172401
0.000146042
0.000146046
0.0001724
0.000146038
0.000146043
0.000173959
0.000144476
0.0001724
0.000146044
0.000146045
0.000144479
0.000138806
0.000109328
0.000137269
0.000137267
0.000110897
0.000110899
0.000138807
0.000109332
0.000137269
0.000137274
0.000110897
0.0001109
0.000137271
0.000110898
0.000110901
0.000138815
0.000109334
0.000137272
0.0001109
0.000110902
0.000109342
0.000103633
7.41813e-05
0.000102123
0.000102127
7.57456e-05
7.57455e-05
0.000103638
7.41825e-05
0.000102124
0.000102128
7.57465e-05
7.57471e-05
0.000102127
7.57465e-05
7.57463e-05
0.000103638
7.41843e-05
0.000102129
7.57471e-05
7.57515e-05
7.41911e-05
6.84249e-05
3.91129e-05
6.69784e-05
6.69789e-05
4.06765e-05
4.06745e-05
6.84245e-05
3.91088e-05
6.69792e-05
6.69766e-05
4.0673e-05
4.0676e-05
6.69778e-05
4.06714e-05
4.06725e-05
6.84237e-05
3.91118e-05
6.69805e-05
4.06751e-05
4.06756e-05
3.91105e-05
3.31932e-05
8.24693e-06
3.20679e-05
3.20687e-05
1.01477e-05
1.01481e-05
3.31869e-05
8.24736e-06
3.20656e-05
3.20654e-05
1.01469e-05
1.01397e-05
3.20623e-05
1.01461e-05
1.01382e-05
3.31877e-05
8.2371e-06
3.20655e-05
1.01414e-05
1.01402e-05
8.24564e-06
5.7697e-06
7.00618e-06
7.00444e-06
5.77815e-06
7.0007e-06
6.99855e-06
6.6561e-06
6.65293e-06
6.65277e-06
7.00156e-06
5.76864e-06
7.0039e-06
0.0016369
0.0016369
0.00164986
0.00164989
0.00163689
0.00163692
0.0016369
0.0016478
0.0016478
0.00162148
0.00162149
0.00162149
0.00162149
0.00163704
0.00164981
0.00164778
0.00163901
0.00163697
0.00163902
0.00164973
0.0016369
0.00163704
0.00164778
0.00163901
0.00163902
0.00163697
0.00164974
0.00164989
0.00164988
0.00163744
0.0016369
0.0016369
0.00160182
0.0016148
0.00161478
0.0016018
0.00161481
0.0016018
0.00160182
0.0016148
0.00161479
0.0016018
0.00161272
0.00161271
0.00161272
0.00158639
0.00158639
0.00158639
0.00158639
0.00160194
0.00161474
0.00161269
0.00160391
0.00161467
0.00160187
0.00160392
0.00161481
0.0016018
0.00160194
0.00161269
0.00161474
0.00160391
0.00161467
0.00160392
0.00160187
0.00161481
0.0016148
0.00160234
0.00160181
0.00160181
0.00156673
0.0015797
0.0015797
0.00156671
0.00157972
0.0015667
0.00156672
0.0015797
0.00157969
0.00156671
0.00157763
0.00157762
0.00157762
0.00155129
0.00155129
0.00155129
0.00155129
0.00156685
0.00157964
0.0015776
0.00156882
0.00157957
0.00156678
0.00156883
0.00157972
0.00156671
0.00156684
0.0015776
0.00157964
0.00156881
0.00157958
0.00156883
0.00156678
0.00157971
0.00157971
0.00156724
0.00156671
0.00156671
0.00153163
0.00154461
0.00154459
0.00153161
0.00154462
0.00153161
0.00153162
0.00154461
0.00154459
0.00153161
0.00154252
0.00154252
0.00154252
0.00151619
0.0015162
0.00151619
0.00151619
0.00153174
0.00154454
0.0015425
0.00153372
0.00154448
0.00153168
0.00153373
0.00154462
0.0015316
0.00153174
0.0015425
0.00154454
0.00153371
0.00154448
0.00153372
0.00153168
0.00154461
0.00154461
0.00153214
0.00153161
0.00153161
0.00149652
0.00150951
0.0015095
0.00149651
0.00150952
0.0014965
0.00149652
0.00150951
0.00150949
0.00149651
0.00150742
0.00150742
0.00150742
0.00148109
0.00148109
0.00148109
0.00148109
0.00149664
0.00150944
0.0015074
0.00149862
0.00150937
0.00149658
0.00149862
0.00150951
0.0014965
0.00149664
0.00150739
0.00150944
0.00149861
0.00150937
0.00149862
0.00149657
0.00150951
0.00150951
0.00149704
0.00149651
0.00149651
0.00146141
0.0014744
0.00147439
0.0014614
0.00147441
0.00146139
0.00146141
0.0014744
0.00147439
0.0014614
0.00147231
0.00147231
0.00147231
0.00144597
0.00144598
0.00144597
0.00144598
0.00146154
0.00147434
0.00147229
0.00146351
0.00147427
0.00146147
0.00146351
0.00147441
0.00146139
0.00146154
0.00147229
0.00147434
0.00146351
0.00147427
0.00146351
0.00146147
0.00147441
0.00147441
0.00146193
0.00146141
0.00146141
0.00142629
0.00143929
0.00143928
0.00142629
0.00143929
0.00142627
0.00142629
0.00143929
0.00143927
0.00142628
0.0014372
0.0014372
0.0014372
0.00141085
0.00141086
0.00141085
0.00141085
0.00142642
0.00143922
0.00143718
0.00142839
0.00143916
0.00142635
0.0014284
0.00143929
0.00142628
0.00142642
0.00143718
0.00143923
0.00142839
0.00143916
0.0014284
0.00142635
0.0014393
0.0014393
0.00142682
0.00142629
0.00142629
0.00139117
0.00140416
0.00140415
0.00139116
0.00140418
0.00139115
0.00139116
0.00140416
0.00140415
0.00139115
0.00140208
0.00140207
0.00140207
0.00137571
0.00137572
0.00137571
0.00137571
0.00139129
0.0014041
0.00140205
0.00139326
0.00140403
0.00139122
0.00139327
0.00140417
0.00139114
0.00139129
0.00140205
0.0014041
0.00139326
0.00140403
0.00139326
0.00139122
0.00140417
0.00140417
0.00139167
0.00139116
0.00139115
0.00135602
0.00136903
0.00136902
0.00135601
0.00136904
0.00135601
0.00135602
0.00136903
0.00136901
0.00135601
0.00136693
0.00136693
0.00136693
0.00134056
0.00134056
0.00134057
0.00134056
0.00135614
0.00136896
0.00136691
0.00135811
0.00136889
0.00135608
0.00135812
0.00136903
0.001356
0.00135614
0.0013669
0.00136896
0.00135811
0.00136889
0.00135812
0.00135608
0.00136902
0.00136902
0.00135653
0.001356
0.001356
0.00132087
0.00133388
0.00133386
0.00132086
0.00133388
0.00132084
0.00132087
0.00133388
0.00133386
0.00132085
0.00133178
0.00133178
0.00133178
0.0013054
0.0013054
0.00130541
0.0013054
0.00132098
0.00133381
0.00133175
0.00132296
0.00133374
0.00132092
0.00132296
0.00133388
0.00132085
0.00132099
0.00133175
0.00133381
0.00132296
0.00133373
0.00132297
0.00132092
0.00133387
0.00133387
0.00132138
0.00132085
0.00132085
0.0012857
0.00129871
0.00129869
0.00128569
0.00129871
0.00128568
0.0012857
0.00129872
0.0012987
0.00128569
0.00129661
0.00129662
0.00129662
0.00127024
0.00127023
0.00127024
0.00127024
0.00128582
0.00129864
0.00129659
0.00128779
0.00129857
0.00128575
0.0012878
0.00129872
0.00128568
0.00128582
0.00129659
0.00129865
0.00128779
0.00129858
0.0012878
0.00128576
0.00129871
0.00129872
0.00128622
0.00128568
0.00128569
0.00125053
0.00126354
0.00126353
0.00125052
0.00126355
0.00125051
0.00125053
0.00126355
0.00126353
0.00125053
0.00126144
0.00126145
0.00126145
0.00123507
0.00123507
0.00123507
0.00123506
0.00125065
0.00126347
0.00126142
0.00125262
0.0012634
0.00125058
0.00125263
0.00126355
0.00125051
0.00125065
0.00126142
0.00126347
0.00125262
0.00126341
0.00125263
0.00125058
0.00126354
0.00126355
0.00125104
0.00125051
0.00125051
0.00121536
0.00122837
0.00122835
0.00121535
0.00122838
0.00121534
0.00121537
0.00122838
0.00122837
0.00121536
0.00122628
0.00122628
0.00122628
0.0011999
0.0011999
0.0011999
0.0011999
0.00121548
0.00122831
0.00122625
0.00121746
0.00122824
0.00121542
0.00121746
0.00122838
0.00121534
0.00121548
0.00122625
0.0012283
0.00121745
0.00122823
0.00121746
0.00121541
0.00122837
0.00122837
0.00121587
0.00121535
0.00121534
0.00118021
0.00119321
0.0011932
0.0011802
0.00119322
0.00118019
0.0011802
0.00119321
0.0011932
0.00118019
0.00119112
0.00119111
0.00119112
0.00116475
0.00116475
0.00116475
0.00116475
0.00118033
0.00119315
0.00119109
0.0011823
0.00119308
0.00118026
0.00118231
0.00119322
0.00118018
0.00118032
0.00119109
0.00119314
0.0011823
0.00119307
0.0011823
0.00118025
0.00119321
0.00119321
0.00118072
0.00118019
0.00118019
0.00114507
0.00115807
0.00115806
0.00114505
0.00115807
0.00114504
0.00114506
0.00115806
0.00115805
0.00114505
0.00115597
0.00115597
0.00115596
0.00112961
0.00112961
0.00112961
0.0011296
0.00114517
0.001158
0.00115594
0.00114715
0.00115792
0.00114511
0.00114716
0.00115806
0.00114504
0.00114518
0.00115594
0.00115799
0.00114715
0.00115792
0.00114716
0.00114511
0.00115806
0.00115806
0.00114557
0.00114504
0.00114504
0.00110992
0.00112292
0.00112291
0.0011099
0.00112292
0.00110989
0.00110991
0.00112292
0.00112291
0.0011099
0.00112082
0.00112082
0.00112082
0.00109447
0.00109447
0.00109447
0.00109447
0.00111003
0.00112285
0.0011208
0.00111201
0.00112278
0.00110997
0.00111202
0.00112292
0.0011099
0.00111004
0.0011208
0.00112285
0.00111201
0.00112278
0.00111202
0.00110997
0.00112292
0.00112291
0.00111043
0.0011099
0.0011099
0.00107478
0.00108778
0.00108776
0.00107478
0.00108778
0.00107476
0.00107479
0.00108778
0.00108777
0.00107477
0.00108569
0.00108569
0.00108569
0.00105934
0.00105934
0.00105934
0.00105934
0.00107491
0.00108771
0.00108567
0.00107688
0.00108765
0.00107484
0.00107688
0.00108779
0.00107477
0.00107491
0.00108567
0.00108772
0.00107688
0.00108765
0.00107689
0.00107484
0.00108778
0.00108779
0.0010753
0.00107478
0.00107478
0.00103965
0.00105265
0.00105263
0.00103964
0.00105265
0.00103963
0.00103966
0.00105265
0.00105264
0.00103964
0.00105056
0.00105057
0.00105056
0.00102421
0.00102421
0.00102421
0.00102421
0.00103978
0.00105259
0.00105054
0.00104175
0.00105252
0.00103971
0.00104176
0.00105266
0.00103964
0.00103978
0.00105054
0.00105259
0.00104175
0.00105252
0.00104176
0.00103971
0.00105266
0.00105266
0.00104018
0.00103965
0.00103965
0.00100451
0.00101752
0.0010175
0.0010045
0.00101752
0.0010045
0.00100452
0.00101752
0.00101751
0.0010045
0.00101543
0.00101543
0.00101543
0.000989078
0.000989082
0.000989079
0.000989083
0.00100465
0.00101746
0.00101541
0.00100662
0.00101739
0.00100459
0.00100663
0.00101753
0.0010045
0.00100465
0.00101541
0.00101746
0.00100662
0.00101739
0.00100663
0.00100458
0.00101754
0.00101753
0.00100505
0.00100452
0.00100452
0.000969404
0.000982391
0.000982378
0.00096938
0.000982407
0.00096939
0.000969389
0.000982387
0.000982377
0.000969381
0.000980303
0.000980301
0.000980304
0.000953954
0.000953958
0.000953954
0.000953959
0.000969524
0.000982334
0.000980281
0.000971495
0.000982264
0.000969459
0.000971502
0.000982393
0.000969372
0.000969518
0.000980281
0.000982323
0.000971491
0.000982258
0.000971501
0.000969446
0.000982401
0.000982397
0.000969915
0.000969389
0.000969386
0.000934274
0.000947271
0.000947257
0.000934262
0.000947283
0.000934261
0.000934275
0.000947266
0.000947252
0.000934258
0.000945182
0.000945177
0.000945179
0.000918836
0.000918839
0.000918834
0.000918835
0.000934401
0.000947209
0.000945157
0.000936373
0.000947139
0.000934335
0.000936379
0.000947269
0.000934256
0.000934395
0.000945155
0.000947201
0.000936368
0.000947131
0.000936378
0.000934327
0.000947273
0.000947272
0.000934791
0.000934267
0.000934265
0.000899155
0.00091215
0.000912137
0.000899147
0.000912164
0.000899146
0.000899153
0.000912151
0.000912134
0.000899143
0.000910061
0.000910058
0.000910057
0.000883715
0.000883716
0.000883712
0.000883713
0.000899277
0.000912087
0.000910033
0.000901248
0.000912016
0.00089921
0.000901254
0.000912157
0.00089914
0.000899277
0.000910037
0.000912081
0.000901248
0.000912015
0.000901259
0.000899206
0.000912155
0.000912155
0.00089967
0.000899142
0.000899148
0.000864037
0.000877033
0.000877018
0.000864028
0.000877033
0.000864012
0.000864029
0.00087703
0.000877022
0.000864021
0.000874939
0.000874934
0.000874935
0.000848596
0.000848595
0.000848593
0.000848593
0.000864154
0.000876959
0.000874912
0.000866127
0.000876892
0.000864086
0.000866134
0.00087704
0.000864014
0.000864156
0.000874916
0.000876964
0.000866126
0.000876896
0.000866138
0.000864089
0.000877028
0.000877034
0.000864549
0.000864022
0.000864029
0.00082892
0.000841907
0.000841896
0.000828899
0.000841913
0.000828898
0.000828916
0.00084191
0.000841899
0.000828905
0.000839818
0.000839818
0.000839817
0.000813478
0.000813474
0.000813474
0.00081347
0.000829034
0.000841841
0.00083979
0.000831006
0.000841768
0.000828966
0.000831012
0.000841916
0.000828902
0.000829038
0.000839797
0.000841842
0.000831009
0.000841778
0.000831018
0.000828971
0.00084191
0.000841919
0.000829429
0.000828906
0.000828907
0.000793798
0.000806793
0.000806779
0.000793786
0.000806799
0.000793778
0.000793795
0.000806793
0.000806783
0.000793785
0.000804697
0.000804697
0.000804693
0.000778356
0.000778354
0.000778353
0.000778351
0.000793914
0.000806719
0.000804672
0.000795887
0.00080665
0.000793848
0.000795893
0.000806802
0.000793779
0.000793913
0.000804674
0.000806725
0.00079589
0.000806653
0.000795894
0.000793849
0.000806785
0.000806789
0.000794305
0.00079378
0.000793778
0.000758675
0.000771674
0.000771659
0.00075866
0.000771678
0.000758659
0.000758669
0.000771669
0.000771662
0.000758658
0.000769576
0.000769575
0.000769574
0.00074323
0.000743229
0.00074323
0.00074323
0.000758792
0.000771601
0.00076955
0.000760768
0.000771531
0.000758728
0.000760773
0.000771676
0.000758655
0.000758793
0.000769551
0.000771603
0.000760766
0.000771529
0.000760773
0.000758728
0.000771667
0.000771668
0.000759192
0.000758667
0.000758659
0.000723542
0.00073654
0.000736533
0.000723531
0.000736547
0.000723525
0.000723544
0.00073654
0.000736528
0.000723536
0.000734451
0.000734452
0.000734452
0.000708104
0.000708101
0.000708105
0.000708102
0.00072367
0.000736478
0.000734427
0.00072564
0.000736411
0.000723604
0.000725647
0.000736556
0.000723533
0.00072367
0.00073443
0.000736482
0.000725645
0.000736411
0.00072565
0.000723606
0.000736551
0.000736546
0.000724063
0.000723541
0.00072354
0.000688424
0.000701413
0.000701396
0.00068841
0.000701424
0.0006884
0.000688422
0.00070142
0.000701403
0.00068841
0.000699323
0.000699327
0.000699323
0.000672976
0.000672973
0.000672978
0.000672975
0.000688539
0.000701347
0.000699299
0.000690511
0.000701277
0.000688469
0.000690518
0.000701428
0.000688404
0.000688543
0.000699303
0.000701356
0.000690514
0.000701287
0.000690523
0.00068848
0.000701421
0.000701424
0.000688938
0.000688406
0.000688411
0.000653291
0.000666294
0.000666271
0.000653283
0.000666294
0.000653272
0.000653288
0.000666289
0.000666276
0.000653279
0.000664194
0.000664198
0.000664195
0.000637842
0.000637842
0.000637843
0.000637841
0.000653405
0.000666218
0.000664169
0.000655383
0.000666149
0.000653341
0.000655389
0.000666298
0.00065328
0.000653412
0.000664174
0.000666227
0.000655383
0.000666158
0.000655391
0.000653348
0.000666289
0.000666291
0.000653803
0.000653279
0.000653281
0.000618152
0.000631161
0.000631148
0.000618144
0.000631159
0.000618133
0.000618153
0.000631155
0.000631143
0.000618139
0.000629061
0.000629062
0.00062906
0.000602702
0.000602702
0.000602704
0.000602703
0.000618273
0.000631087
0.000629035
0.000620247
0.000631018
0.000618207
0.000620252
0.000631166
0.000618139
0.000618271
0.000629036
0.000631088
0.000620246
0.000631015
0.000620253
0.000618206
0.000631158
0.000631152
0.000618665
0.000618143
0.000618139
0.000583012
0.000596015
0.000595996
0.000582999
0.00059602
0.000582995
0.000583023
0.000596016
0.000596006
0.000583008
0.00059392
0.000593923
0.000593922
0.000567568
0.000567566
0.00056757
0.000567567
0.000583135
0.000595948
0.000593899
0.000585104
0.000595881
0.000583068
0.000585116
0.00059603
0.00058301
0.000583137
0.000593899
0.000595951
0.000585111
0.00059588
0.000585116
0.000583072
0.000596018
0.000596011
0.000583532
0.000583
0.000582998
0.000547884
0.00056088
0.000560865
0.000547872
0.000560883
0.000547861
0.000547884
0.000560884
0.000560868
0.000547872
0.000558787
0.000558792
0.000558787
0.000532438
0.000532438
0.000532442
0.00053244
0.000548
0.000560811
0.000558764
0.000549974
0.000560742
0.000547937
0.000549982
0.000560894
0.00054787
0.000548008
0.000558766
0.000560818
0.000549978
0.000560743
0.000549986
0.000547939
0.000560879
0.000560883
0.000548397
0.000547868
0.000547872
0.000512758
0.000525748
0.000525738
0.000512742
0.000525761
0.000512739
0.000512758
0.000525753
0.000525736