/*--------------------------------*- C++ -*----------------------------------*\
| =========                 |                                                 |
| \\      /  F ield         | OpenFOAM: The Open Source CFD Toolbox           |
|  \\    /   O peration     | Version:  v2012                                 |
|   \\  /    A nd           | Website:  www.openfoam.com                      |
|    \\/     M anipulation  |                                                 |
\*---------------------------------------------------------------------------*/
FoamFile
{
    version     2.0;
    format      ascii;
    class       surfaceScalarField;
    location    "150";
    object      phi;
}
// * * * * * * * * * * * * * * * * * * * * * * * * * * * * * * * * * * * * * //

dimensions      [0 3 -1 0 0 0 0];
oriented        oriented;


internalField   nonuniform List<scalar> 
248808
(
1.00742e-09
3.61148e-09
-7.05539e-10
-9.80492e-10
0.00117692
-1.27334e-06
-5.41713e-09
-2.91342e-07
1.28039e-06
2.89963e-07
9.41026e-07
-2.84705e-07
2.80103e-07
-9.38992e-07
7.91429e-09
0.00114728
1.31396e-06
1.27681e-06
-2.56786e-07
-2.64977e-07
0.000272756
-2.9755e-07
1.31938e-06
2.94605e-07
9.40852e-07
-2.8177e-07
2.77305e-07
-9.38849e-07
1.07298e-08
0.00114678
1.03217e-08
-2.94976e-07
1.2821e-06
2.92064e-07
9.43764e-07
-2.84834e-07
2.80292e-07
-9.41697e-07
0.0011479
-1.31314e-06
-1.66664e-09
7.70502e-09
-2.99932e-07
1.32098e-06
2.98137e-07
9.43795e-07
-2.8443e-07
2.80441e-07
-9.41396e-07
0.00114693
-2.56522e-07
-2.63862e-07
0.000272741
-7.6847e-09
4.73183e-08
0.000192638
-6.83674e-09
-6.51455e-09
4.83447e-08
0.000192645
-7.38923e-09
6.99788e-08
1.64602e-09
0.000230167
-2.96227e-09
-3.1877e-08
-2.96827e-09
-1.53791e-09
0.00117652
7.91193e-09
2.62543e-08
9.70985e-05
-2.3396e-08
-4.87358e-08
1.17846e-07
0.000246443
1.64827e-08
2.43727e-08
9.71209e-05
2.61819e-08
9.71136e-05
2.44874e-08
5.08181e-08
0.000277821
-1.36395e-08
2.62235e-08
5.21091e-08
0.000277762
-1.14752e-08
1.14268e-07
0.000246449
1.73002e-08
1.15028e-07
0.000246454
1.72907e-08
4.09279e-09
4.03713e-09
1.03838e-06
-8.51941e-07
8.59206e-07
-1.02957e-06
0.00116069
2.12104e-09
0.000253632
-3.38944e-09
2.01282e-07
4.92283e-08
0.000192582
-6.82673e-09
6.96115e-08
0.000230128
-3.17175e-08
-5.85992e-11
4.85829e-09
1.03834e-06
-8.54629e-07
8.59316e-07
-1.0324e-06
0.00116071
-2.69904e-08
1.13953e-07
0.000246385
1.95601e-08
0.000253606
2.03542e-07
-2.84129e-09
5.26682e-08
0.000277719
-1.40753e-08
-2.59448e-08
5.40063e-08
0.000277819
-1.07384e-08
6.56752e-09
9.7109e-05
0.000192615
-8.4879e-09
8.75558e-09
-4.54786e-08
2.60039e-09
0.000192672
-3.35524e-08
6.0221e-08
0.000262405
2.59454e-09
7.85331e-05
1.35143e-09
-2.97687e-08
-7.85749e-05
-2.39872e-09
7.86071e-05
2.73049e-09
9.83216e-09
-4.69465e-08
0.00019268
0.000262491
-3.14519e-08
3.14746e-09
6.1345e-08
-4.41e-09
-6.39272e-08
0.000262533
2.13e-09
-3.25499e-08
1.28667e-09
-0.000142395
0.000142424
1.28312e-09
3.31878e-08
1.41455e-09
-7.6131e-08
0.000230207
0.000223656
-3.06715e-08
6.84482e-08
0.000170011
-1.45109e-09
1.51363e-09
-7.49878e-08
0.000223695
1.40385e-09
0.000170044
-8.60981e-09
-2.66961e-08
9.71338e-05
-2.3907e-08
9.71536e-05
-2.23197e-08
9.71458e-05
3.56668e-08
-3.29128e-08
-0.000222564
2.76696e-08
-7.04471e-08
0.000222604
0.000252703
-3.41572e-08
1.0824e-07
4.67303e-08
1.32596e-08
-5.08421e-08
-2.53497e-08
0.00027786
0.000182344
3.44197e-08
-1.68446e-08
1.62323e-08
0.000182377
-1.10867e-07
-4.39991e-08
0.000252774
-2.83017e-08
6.68468e-08
3.44636e-08
-3.3686e-08
-0.000222495
2.69976e-08
-7.17799e-08
0.000222539
0.000252606
-3.36533e-08
1.08744e-07
5.26058e-08
1.59283e-08
-4.97951e-08
-2.87043e-08
0.000277802
0.00018229
3.55483e-08
-1.54826e-08
1.7911e-08
0.000182323
-1.10439e-07
-4.88331e-08
0.000252682
-2.52473e-08
6.98859e-08
1.48945e-08
1.31756e-08
-0.000213368
0.000213395
8.00891e-05
1.36629e-08
8.00742e-05
1.51905e-08
8.01202e-05
8.01053e-05
-3.22693e-08
-7.85195e-05
-3.19416e-09
7.85549e-05
2.99738e-09
-4.81706e-08
0.000192619
0.000262355
-3.33875e-08
1.74148e-09
6.01337e-08
-5.43548e-09
-6.24373e-08
0.000262394
1.47589e-09
-1.33848e-09
-3.40126e-08
-0.000142316
0.000142348
3.32929e-08
3.61309e-09
-7.39906e-08
0.000230167
0.000169976
1.26592e-09
0.000223551
-3.31489e-08
6.78078e-08
0.00017001
-7.27663e-08
0.000223588
3.83556e-08
-3.2829e-08
-0.000222486
2.58299e-08
-7.34741e-08
0.000222528
0.000252563
-3.42377e-08
1.0782e-07
5.19021e-08
1.21431e-08
-5.35605e-08
-2.74197e-08
0.000277761
0.000182285
3.55664e-08
-1.74384e-08
1.5807e-08
0.00018232
-1.113e-07
-4.88597e-08
0.000252637
-2.63203e-08
6.82453e-08
-3.42491e-08
3.68932e-08
-0.000222566
2.98146e-08
-6.77228e-08
0.000222601
0.000252715
-3.29574e-08
1.05713e-07
4.61873e-08
-5.23884e-08
1.52258e-08
2.25832e-08
-2.66449e-08
0.00027786
0.000182345
3.71485e-08
-1.51612e-08
-1.08405e-07
-4.473e-08
0.000252782
1.79661e-08
0.000182379
-2.63387e-08
6.5017e-08
1.5498e-08
1.32587e-08
-0.000213366
0.000213393
8.00737e-05
1.29519e-08
8.00913e-05
1.52877e-08
8.01051e-05
8.01226e-05
-9.88907e-09
9.71414e-05
-4.44559e-08
1.28331e-09
0.000192649
1.82629e-09
0.00118993
2.27831e-09
-1.27061e-07
-1.25171e-07
-0.000245105
0.000245215
0.000264324
-1.2498e-07
0.000264752
-1.22242e-07
2.63201e-07
2.71163e-07
0.000274823
0.000264643
0.00026508
-1.258e-07
-1.28134e-07
-0.000245092
0.000245204
0.0002647
-1.24509e-07
0.000264338
-1.21286e-07
2.72272e-07
2.64211e-07
0.000274806
0.000264666
0.000265023
0.0011891
2.72018e-09
2.58302e-08
2.04041e-07
-0.000268048
0.000268781
-2.24851e-08
0.000263418
2.40223e-08
-1.125e-07
-2.18238e-08
0.000246506
0.000252702
2.0156e-07
-6.13981e-08
8.20765e-09
0.000263566
6.16741e-08
0.000252837
-1.45553e-08
1.93451e-08
1.9918e-07
2.28664e-08
-0.000268036
0.000268769
-1.39272e-08
0.000263404
2.44331e-08
-2.09386e-08
-1.1079e-07
0.00024651
0.000252705
1.95474e-07
8.96358e-09
6.21001e-08
0.000252835
-1.37073e-08
0.000263549
1.22584e-08
2.01435e-07
2.2188e-08
-0.000268098
-2.64743e-08
0.000268844
0.000263433
2.51898e-08
-2.11374e-08
-1.10348e-07
0.000246509
0.000252764
1.98788e-07
1.15459e-08
-1.3686e-08
0.000252894
0.000263577
2.82196e-08
2.2802e-07
-7.22774e-09
-0.000270176
0.000270967
5.31934e-09
-2.09681e-07
-8.17321e-11
0.00025376
0.000252419
2.18029e-07
0.000270764
-3.67607e-09
6.94595e-09
0.000252564
-5.2555e-09
0.000271411
2.02346e-07
2.53252e-08
-0.000268031
-1.14906e-08
0.000268758
0.000263359
2.68106e-08
-2.33733e-08
-1.11326e-07
0.000246444
0.000252674
1.97661e-07
8.13674e-09
-1.20465e-08
0.000252803
0.000263505
1.18198e-08
-2.19916e-09
2.28246e-07
-0.000270139
0.00027094
-2.09853e-07
4.97535e-09
0.000253737
0.000270759
-2.90111e-09
0.00025234
2.20246e-07
0.000271401
0.000252488
-1.27843e-06
-4.03515e-09
8.4586e-09
0.00114759
-2.91113e-07
1.28684e-06
2.90117e-07
9.40437e-07
-2.81251e-07
2.77632e-07
-9.384e-07
1.30792e-06
1.27327e-06
-2.58797e-07
-2.64316e-07
0.000272735
1.96103e-09
4.95496e-09
-0.00117692
-2.35486e-09
-2.41461e-09
0.00117691
-0.00114756
-1.27842e-06
-3.30623e-09
7.57346e-09
0.00114755
-2.90845e-07
1.28648e-06
2.90026e-07
9.40391e-07
-2.81182e-07
-9.38435e-07
2.7734e-07
-0.00114727
-1.27329e-06
-4.58346e-09
7.66031e-09
0.00114726
-2.91264e-07
1.28018e-06
2.89872e-07
9.4039e-07
-2.85011e-07
-9.39419e-07
2.79715e-07
-0.000274783
1.3084e-06
1.27332e-06
-2.58517e-07
-2.64954e-07
0.000272725
2.53793e-09
5.2277e-09
-0.00117691
-2.6831e-09
-3.56915e-09
0.00117691
-0.00114753
-1.27872e-06
-7.4196e-10
7.45639e-09
0.00114752
-2.9094e-07
1.28606e-06
2.89935e-07
9.39988e-07
-2.81789e-07
-9.38808e-07
2.76706e-07
-0.00114725
-1.27343e-06
-2.11286e-09
8.67049e-09
0.00114725
-2.92177e-07
1.28046e-06
2.89069e-07
9.40141e-07
-2.85708e-07
-9.39724e-07
2.78942e-07
-0.000274773
1.30877e-06
1.27386e-06
-2.59274e-07
-2.65215e-07
0.000272715
4.56496e-09
3.88587e-09
-0.00117691
-2.58236e-09
-4.48216e-09
0.00117691
-0.00114749
-1.27894e-06
-1.06854e-09
7.99929e-09
0.00114748
-2.917e-07
1.28613e-06
2.89217e-07
9.40065e-07
-2.81812e-07
-9.38706e-07
2.7673e-07
-0.00114724
-1.2742e-06
-3.80747e-09
1.0881e-08
0.00114724
-2.92475e-07
1.27974e-06
2.88708e-07
9.40408e-07
-2.85696e-07
-9.39786e-07
2.79186e-07
-0.000274766
1.30878e-06
1.27403e-06
-2.59672e-07
-2.65216e-07
0.000272708
2.95505e-09
3.59145e-09
-0.00117691
-1.77361e-09
-3.36761e-09
0.00117691
-0.00114746
-1.27999e-06
-3.41518e-09
1.11185e-08
0.00114745
-2.92073e-07
1.28505e-06
2.88738e-07
9.40319e-07
-2.8148e-07
-9.38444e-07
2.77006e-07
-0.00114723
-1.27521e-06
-6.6313e-09
1.26433e-08
0.00114723
-2.92794e-07
1.27949e-06
2.88271e-07
9.40958e-07
-2.85031e-07
-9.3923e-07
2.79829e-07
-0.000274759
1.30885e-06
1.27406e-06
-2.59647e-07
-2.65268e-07
0.000272701
1.22014e-09
3.75475e-09
-0.00117691
-1.42168e-09
-2.12399e-09
0.00117691
-0.00114744
-1.28016e-06
-4.57622e-09
1.19501e-08
0.00114743
-2.92524e-07
1.28523e-06
2.88574e-07
9.40101e-07
-2.81762e-07
-9.38602e-07
2.768e-07
-0.00114722
-1.2749e-06
-7.60311e-09
1.4153e-08
0.00114721
-2.93028e-07
1.27947e-06
2.88459e-07
9.40852e-07
-2.84746e-07
-9.39375e-07
2.80112e-07
-0.000274753
1.3087e-06
1.27427e-06
-2.59703e-07
-2.65346e-07
0.000272695
1.72991e-09
3.13339e-09
-0.00117691
-1.57747e-09
-2.22598e-09
0.00117691
-0.00114742
-1.27996e-06
-3.58346e-09
1.10226e-08
0.00114741
-2.9242e-07
1.28531e-06
2.88773e-07
9.39757e-07
-2.82064e-07
-9.39098e-07
2.7655e-07
-0.0011472
-1.27497e-06
-5.89348e-09
1.46934e-08
0.0011472
-2.92731e-07
1.27898e-06
2.88658e-07
9.40487e-07
-2.85131e-07
-9.3985e-07
2.79637e-07
-0.000274746
1.30875e-06
1.27419e-06
-2.59991e-07
-2.65628e-07
0.000272688
4.34124e-09
2.485e-09
-0.00117691
-2.55438e-09
-3.9096e-09
0.00117691
-0.0011474
-1.28004e-06
-1.21221e-09
1.00579e-08
0.0011474
-2.91997e-07
1.28499e-06
2.89309e-07
9.39373e-07
-2.82918e-07
-9.39593e-07
2.75778e-07
-0.00114719
-1.27506e-06
-2.48848e-09
1.45332e-08
0.00114719
-2.92514e-07
1.279e-06
2.89067e-07
9.39864e-07
-2.86166e-07
-9.4054e-07
2.78818e-07
-0.000274746
1.30887e-06
1.27443e-06
-2.60423e-07
-2.66023e-07
0.000272689
4.96426e-09
2.29247e-09
-0.00117692
-3.00362e-09
-5.23736e-09
0.00117692
-0.00114739
-1.27943e-06
-1.66118e-10
8.08243e-09
0.00114739
-2.91961e-07
1.2856e-06
2.89401e-07
9.38374e-07
-2.84014e-07
-9.40615e-07
2.74904e-07
-0.00114717
-1.27466e-06
-8.04395e-10
1.38622e-08
0.00114717
-2.93333e-07
1.27954e-06
2.88382e-07
9.3955e-07
-2.86872e-07
-9.40974e-07
2.78176e-07
-0.000274748
1.30916e-06
1.27452e-06
-2.60631e-07
-2.66324e-07
0.000272692
5.39497e-09
1.82025e-09
-0.00117693
-3.16063e-09
-5.7104e-09
0.00117693
-0.0011474
-1.27917e-06
6.0414e-10
6.06092e-09
0.0011474
-2.92265e-07
1.28598e-06
2.89322e-07
9.37886e-07
-2.84642e-07
-9.41235e-07
2.74459e-07
-0.00114717
-1.27468e-06
-2.53872e-10
1.23682e-08
0.00114717
-2.93312e-07
1.2794e-06
2.88419e-07
9.39271e-07
-2.87208e-07
-9.41267e-07
2.77883e-07
-0.000274752
1.30932e-06
1.2746e-06
-2.60755e-07
-2.66525e-07
0.000272695
6.8902e-09
-1.10547e-10
-0.00117694
-2.75452e-09
-5.99624e-09
0.00117694
-0.00114741
-1.27912e-06
-3.20638e-10
4.04414e-09
0.00114742
-2.92253e-07
1.28626e-06
2.89473e-07
9.37583e-07
-2.8495e-07
-9.41643e-07
2.74187e-07
-0.00114717
-1.27412e-06
6.87991e-10
9.82139e-09
0.00114717
-2.93261e-07
1.27981e-06
2.88424e-07
9.38737e-07
-2.87395e-07
-9.4185e-07
2.77708e-07
-0.000274758
1.30948e-06
1.27435e-06
-2.60708e-07
-2.66815e-07
0.000272701
7.34721e-09
-2.3553e-09
-0.00117695
-1.2453e-09
-5.5974e-09
0.00117695
-0.00114744
-1.27929e-06
-1.05002e-09
3.53561e-09
0.00114745
-2.92333e-07
1.2862e-06
2.89394e-07
9.37638e-07
-2.84862e-07
-9.4171e-07
2.74287e-07
-0.00114718
-1.27437e-06
1.40506e-09
9.55009e-09
0.00114718
-2.92841e-07
1.27921e-06
2.88891e-07
9.38236e-07
-2.87449e-07
-9.42372e-07
2.77614e-07
-0.000274766
1.30951e-06
1.27435e-06
-2.60951e-07
-2.66891e-07
0.00027271
5.91133e-09
-1.97252e-09
-0.00117696
-8.36389e-10
-4.19508e-09
0.00117696
-0.00114748
-1.27925e-06
-1.79103e-09
4.54289e-09
0.00114748
-2.92347e-07
1.28598e-06
2.89528e-07
9.37763e-07
-2.84937e-07
-9.4163e-07
2.74244e-07
-0.00114719
-1.27414e-06
1.43332e-10
8.9749e-09
0.00114719
-2.92706e-07
1.27901e-06
2.88754e-07
9.38603e-07
-2.87144e-07
-9.4194e-07
2.78002e-07
-0.000274777
1.3088e-06
1.27428e-06
-2.60945e-07
-2.66327e-07
0.000272721
2.47795e-09
2.45735e-10
-0.00117697
-9.80136e-10
-1.94856e-09
0.00117697
-0.00114751
-1.27963e-06
-2.60043e-09
5.51538e-09
0.00114752
-2.92515e-07
1.28539e-06
2.89067e-07
9.37884e-07
-2.84367e-07
-9.41513e-07
2.74817e-07
-0.0011472
-1.27413e-06
-3.88105e-09
8.68113e-09
0.0011472
-2.92644e-07
1.27885e-06
2.88529e-07
9.39934e-07
-2.85683e-07
-9.40353e-07
2.79207e-07
-0.000274788
1.30825e-06
1.27487e-06
-2.61562e-07
-2.65659e-07
0.000272732
-6.57561e-10
2.42067e-09
-0.00117697
-1.55879e-09
1.10578e-11
0.00117697
-0.00114754
-1.2802e-06
-4.0697e-09
7.81902e-09
0.00114755
-2.93327e-07
1.28496e-06
2.88173e-07
9.38472e-07
-2.83801e-07
-9.40875e-07
2.75282e-07
-0.0011472
-1.27409e-06
-5.20997e-09
9.04117e-09
0.0011472
-2.92696e-07
1.27866e-06
2.88387e-07
9.40421e-07
-2.84648e-07
-9.3961e-07
2.79993e-07
-0.000274798
1.30805e-06
1.27502e-06
-2.61691e-07
-2.65389e-07
0.000272742
-1.49146e-09
3.91932e-09
-0.00117697
-1.8832e-09
5.9976e-10
0.00117697
-0.00114757
-1.28063e-06
-5.92497e-09
1.00424e-08
0.00114758
-2.93435e-07
1.28428e-06
2.88083e-07
9.39129e-07
-2.83365e-07
-9.40378e-07
2.75764e-07
-0.0011472
-1.27376e-06
-5.08067e-09
9.81413e-09
0.00114719
-2.92583e-07
1.27874e-06
2.88308e-07
9.40791e-07
-2.84374e-07
-9.39056e-07
2.8007e-07
-0.000274808
1.30794e-06
1.27443e-06
-2.60941e-07
-2.65211e-07
0.000272752
-6.06172e-10
3.03163e-09
-0.00117697
-1.44217e-09
1.69143e-10
0.00117697
-0.00114759
-1.28025e-06
-7.97792e-09
9.39671e-09
0.0011476
-2.93149e-07
1.28444e-06
2.88368e-07
9.39599e-07
-2.8267e-07
-9.3973e-07
2.7631e-07
-0.00114718
-1.27321e-06
-3.44119e-09
1.04524e-08
0.00114718
-2.92151e-07
1.27903e-06
2.88607e-07
9.40326e-07
-2.84524e-07
-9.39199e-07
2.79829e-07
-0.000274815
1.3083e-06
1.27404e-06
-2.60324e-07
-2.65409e-07
0.000272759
6.76515e-10
1.1765e-09
-0.00117697
-6.10242e-10
-5.84521e-10
0.00117697
-0.00114762
-1.27932e-06
-8.12646e-09
7.2466e-09
0.00114762
-2.9222e-07
1.28531e-06
2.89371e-07
9.39514e-07
-2.82849e-07
-9.40032e-07
2.76157e-07
-0.00114716
-1.27316e-06
-5.56111e-10
1.02146e-08
0.00114715
-2.91704e-07
1.27895e-06
2.88904e-07
9.39544e-07
-2.84967e-07
-9.39775e-07
2.79131e-07
-0.00027482
1.30897e-06
1.27376e-06
-2.59933e-07
-2.65965e-07
0.000272763
3.25289e-09
2.00526e-09
-0.00117698
-1.69869e-09
-2.26086e-09
0.00117697
-0.00114764
-1.27869e-06
-6.40273e-09
6.06256e-09
0.00114764
-2.91491e-07
1.28575e-06
2.8989e-07
9.39188e-07
-2.83061e-07
-9.40238e-07
2.75869e-07
-0.00114713
-1.27249e-06
1.89401e-09
8.89176e-09
0.00114713
-2.91367e-07
1.27943e-06
2.89019e-07
9.38666e-07
-2.85683e-07
-9.4033e-07
2.78307e-07
-0.000274824
1.30915e-06
1.27389e-06
-2.60025e-07
-2.65945e-07
0.000272767
3.719e-09
5.00721e-09
-0.00117697
-4.13399e-09
-2.991e-09
0.00117697
-0.00114765
-1.27853e-06
-3.74244e-09
6.4878e-09
0.00114765
-2.91195e-07
1.28585e-06
2.90007e-07
9.38851e-07
-2.83543e-07
-9.40542e-07
2.75366e-07
-0.00114711
-1.27204e-06
2.53696e-09
5.71239e-09
0.0011471
-2.90589e-07
1.27977e-06
2.89693e-07
9.38531e-07
-2.8574e-07
-9.40246e-07
2.78168e-07
-0.000274826
1.3091e-06
1.27426e-06
-2.6045e-07
-2.65882e-07
0.000272769
2.462e-09
8.06979e-09
-0.00117697
-6.08409e-09
-2.4693e-09
0.00117697
-0.00114765
-1.27869e-06
-1.332e-09
7.721e-09
0.00114765
-2.91622e-07
1.28564e-06
2.89528e-07
9.38835e-07
-2.83718e-07
-9.40595e-07
2.75146e-07
-0.00114709
-1.27171e-06
1.65266e-09
3.78149e-09
0.00114708
-2.89915e-07
1.27999e-06
2.90208e-07
9.38439e-07
-2.85698e-07
-9.40175e-07
2.78071e-07
-0.000274829
1.30856e-06
1.27448e-06
-2.6068e-07
-2.65397e-07
0.000272772
-1.67907e-10
9.32386e-09
-0.00117697
-6.59696e-09
-4.07291e-10
0.00117697
-0.00114764
-1.27932e-06
-1.29512e-10
1.05912e-08
0.00114764
-2.92403e-07
1.28531e-06
2.88654e-07
9.38807e-07
-2.83868e-07
-9.40757e-07
2.7512e-07
-0.00114707
-1.27124e-06
-7.58553e-10
1.92122e-09
0.00114707
-2.89633e-07
1.28032e-06
2.90464e-07
9.38736e-07
-2.8544e-07
-9.39747e-07
2.78307e-07
-0.000274832
1.30768e-06
1.27471e-06
-2.61057e-07
-2.64597e-07
0.000272776
-1.4432e-09
9.50931e-09
-0.00117696
-6.28851e-09
1.43231e-09
0.00117696
-0.00114764
-1.2796e-06
-6.01356e-10
1.17142e-08
0.00114763
-2.92496e-07
1.28467e-06
2.88529e-07
9.38882e-07
-2.83371e-07
-9.40633e-07
2.75615e-07
-0.00114706
-1.27073e-06
-3.34739e-09
1.13366e-09
0.00114706
-2.89133e-07
1.28087e-06
2.90869e-07
9.3874e-07
-2.85361e-07
-9.39626e-07
2.78234e-07
-0.000274838
1.30771e-06
1.27468e-06
-2.60699e-07
-2.6483e-07
0.000272781
-8.69117e-10
8.61324e-09
-0.00117695
-5.26964e-09
1.14234e-09
0.00117695
-0.00114763
-1.27965e-06
-2.64517e-09
1.16251e-08
0.00114763
-2.923e-07
1.2844e-06
2.88608e-07
9.39282e-07
-2.83009e-07
-9.40205e-07
2.75866e-07
-0.00114706
-1.2709e-06
-4.94201e-09
2.31034e-09
0.00114706
-2.89264e-07
1.28054e-06
2.90677e-07
9.39183e-07
-2.85151e-07
-9.3933e-07
2.78514e-07
-0.000274841
1.30812e-06
1.27437e-06
-2.60145e-07
-2.65134e-07
0.000272783
-9.16976e-11
6.78875e-09
-0.00117694
-3.54823e-09
4.34584e-10
0.00117694
-0.00114762
-1.27961e-06
-5.18779e-09
1.13012e-08
0.00114762
-2.92361e-07
1.28447e-06
2.88478e-07
9.40133e-07
-2.82425e-07
-9.39523e-07
2.76469e-07
-0.00114705
-1.2716e-06
-6.14404e-09
5.88655e-09
0.00114705
-2.90177e-07
1.28005e-06
2.89773e-07
9.39471e-07
-2.849e-07
-9.38976e-07
2.78785e-07
-0.000274842
1.3084e-06
1.27409e-06
-2.59765e-07
-2.65269e-07
0.000272785
1.09595e-09
5.79891e-09
-0.00117693
-2.79511e-09
-8.05074e-10
0.00117693
-0.00114761
-1.27955e-06
-5.5141e-09
1.16448e-08
0.00114761
-2.92411e-07
1.28427e-06
2.88371e-07
9.40343e-07
-2.82296e-07
-9.39303e-07
2.76553e-07
-0.00114704
-1.27246e-06
-7.11024e-09
8.31001e-09
0.00114704
-2.90812e-07
1.27961e-06
2.89191e-07
9.39722e-07
-2.84553e-07
-9.38647e-07
2.79159e-07
-0.00027484
1.30876e-06
1.27454e-06
-2.59992e-07
-2.65382e-07
0.000272782
4.15244e-09
3.77786e-09
-0.00117693
-2.76445e-09
-2.63356e-09
0.00117692
-0.00114761
-1.27899e-06
-3.95425e-09
1.04214e-08
0.0011476
-2.91891e-07
1.2849e-06
2.88882e-07
9.39641e-07
-2.8285e-07
-9.39937e-07
2.76015e-07
-0.00114703
-1.27293e-06
-6.36432e-09
9.85824e-09
0.00114703
-2.91311e-07
1.27955e-06
2.88788e-07
9.39477e-07
-2.84758e-07
-9.38952e-07
2.78964e-07
-0.000274836
1.30865e-06
1.27486e-06
-2.60408e-07
-2.65161e-07
0.000272778
5.40036e-09
3.41736e-09
-0.00117692
-2.67453e-09
-4.1558e-09
0.00117692
-0.0011476
-1.27867e-06
-3.42691e-09
9.50595e-09
0.00114759
-2.91577e-07
1.2851e-06
2.89118e-07
9.39434e-07
-2.83087e-07
-9.4027e-07
2.75884e-07
-0.00114703
-1.27329e-06
-4.64738e-09
1.03874e-08
0.00114702
-2.92141e-07
1.27991e-06
2.88358e-07
9.38995e-07
-2.85543e-07
-9.39619e-07
2.78324e-07
-0.000274832
1.30914e-06
1.27513e-06
-2.60789e-07
-2.65306e-07
0.000272774
5.40472e-09
2.73287e-09
-0.00117692
-2.38403e-09
-4.63713e-09
0.00117692
-0.00114759
-1.27913e-06
-4.96857e-09
9.53321e-09
0.00114759
-2.92022e-07
1.28458e-06
2.88515e-07
9.40292e-07
-2.82352e-07
-9.39345e-07
2.76617e-07
-0.00114703
-1.27382e-06
-3.70713e-09
1.05748e-08
0.00114703
-2.92391e-07
1.27938e-06
2.88184e-07
9.38614e-07
-2.85856e-07
-9.40118e-07
2.78152e-07
-0.000274827
1.31009e-06
1.27492e-06
-2.60227e-07
-2.66524e-07
0.000272768
4.82468e-09
2.67438e-09
-0.00117692
-2.35299e-09
-4.5592e-09
0.00117692
-0.00114758
-1.27974e-06
-4.9723e-09
1.013e-08
0.00114758
-2.92584e-07
1.28436e-06
2.88175e-07
9.40273e-07
-2.82156e-07
-9.39283e-07
2.76725e-07
-0.00114703
-1.27438e-06
-3.44309e-09
1.07962e-08
0.00114703
-2.92284e-07
1.27844e-06
2.88334e-07
9.38741e-07
-2.85897e-07
-9.4012e-07
2.78362e-07
-0.000274822
1.31004e-06
1.27484e-06
-2.60066e-07
-2.6665e-07
0.000272764
6.38119e-09
1.40929e-09
-0.00117693
-2.02637e-09
-5.2122e-09
0.00117693
-0.00114758
-1.27876e-06
-3.84211e-09
8.40192e-09
0.00114758
-2.92326e-07
1.28588e-06
2.88539e-07
9.39723e-07
-2.82793e-07
-9.39817e-07
2.75972e-07
-0.00114703
-1.27482e-06
-2.90184e-09
1.12635e-08
0.00114703
-2.92656e-07
1.278e-06
2.87801e-07
9.39211e-07
-2.85604e-07
-9.39684e-07
2.78595e-07
-0.000274817
1.30985e-06
1.2749e-06
-2.60192e-07
-2.6638e-07
0.000272759
8.50625e-09
3.38906e-10
-0.00117693
-1.44628e-09
-6.50133e-09
0.00117693
-0.00114758
-1.2784e-06
-3.9688e-09
6.8506e-09
0.00114758
-2.9113e-07
1.28599e-06
2.89623e-07
9.39658e-07
-2.83015e-07
-9.39928e-07
2.758e-07
-0.00114703
-1.27461e-06
-1.68312e-09
1.17091e-08
0.00114703
-2.93106e-07
1.2782e-06
2.87385e-07
9.38967e-07
-2.85617e-07
-9.39831e-07
2.78506e-07
-0.000274812
1.30959e-06
1.27432e-06
-2.59767e-07
-2.66128e-07
0.000272754
1.00975e-08
7.16116e-10
-0.00117693
-1.88122e-09
-7.40917e-09
0.00117693
-0.00114757
-1.27807e-06
-4.38279e-09
6.09768e-09
0.00114757
-2.90953e-07
1.28637e-06
2.89687e-07
9.39778e-07
-2.82704e-07
-9.39685e-07
2.76057e-07
-0.00114703
-1.27448e-06
-1.10951e-09
1.1545e-08
0.00114703
-2.92908e-07
1.2781e-06
2.87629e-07
9.38965e-07
-2.85859e-07
-9.39895e-07
2.78307e-07
-0.000274809
1.30889e-06
1.27349e-06
-2.59094e-07
-2.65608e-07
0.000272751
9.16724e-09
1.55484e-09
-0.00117693
-2.19061e-09
-6.58084e-09
0.00117693
-0.00114756
-1.27843e-06
-3.90453e-09
5.8895e-09
0.00114756
-2.90805e-07
1.28605e-06
2.89756e-07
9.39853e-07
-2.82499e-07
-9.39659e-07
2.76235e-07
-0.00114703
-1.27412e-06
-1.27615e-09
1.07813e-08
0.00114703
-2.92258e-07
1.27803e-06
2.88136e-07
9.38666e-07
-2.85932e-07
-9.40325e-07
2.78282e-07
-0.000274805
1.30887e-06
1.27383e-06
-2.59213e-07
-2.65482e-07
0.000272747
8.01436e-09
2.20057e-09
-0.00117693
-2.39256e-09
-5.23094e-09
0.00117693
-0.00114755
-1.27824e-06
-3.23093e-09
5.5954e-09
0.00114755
-2.91174e-07
1.28622e-06
2.89555e-07
9.39618e-07
-2.82621e-07
-9.39734e-07
2.7611e-07
-0.00114703
-1.27361e-06
-3.29935e-09
8.5701e-09
0.00114704
-2.91815e-07
1.27819e-06
2.88491e-07
9.38965e-07
-2.85717e-07
-9.39998e-07
2.78522e-07
-0.000274798
1.30862e-06
1.27433e-06
-2.59835e-07
-2.65026e-07
0.00027274
6.24282e-09
4.02833e-09
-0.00117693
-2.91661e-09
-3.81359e-09
0.00117693
-0.00114754
-1.27834e-06
-2.69035e-09
6.2635e-09
0.00114754
-2.90875e-07
1.2857e-06
2.89685e-07
9.39601e-07
-2.8273e-07
-9.39723e-07
2.75894e-07
-0.00114704
-1.27306e-06
-4.72718e-09
6.47476e-09
0.00114704
-2.91451e-07
1.27846e-06
2.88812e-07
9.39309e-07
-2.85525e-07
-9.39592e-07
2.78634e-07
-0.000274791
1.30823e-06
1.27424e-06
-2.59855e-07
-2.64834e-07
0.000272734
4.97253e-09
4.88449e-09
-0.00117693
-3.0985e-09
-2.68824e-09
0.00117692
-0.00114752
-1.27819e-06
-3.16457e-09
6.43948e-09
0.00114752
-2.90664e-07
1.28557e-06
2.89772e-07
9.39754e-07
-2.82424e-07
-9.39498e-07
2.76101e-07
-0.00114705
-1.27283e-06
-5.84312e-09
5.15943e-09
0.00114705
-2.91353e-07
1.27851e-06
2.88828e-07
9.39665e-07
-2.8529e-07
-9.39359e-07
2.78925e-07
-0.000274786
1.30827e-06
1.27435e-06
-2.5995e-07
-2.64897e-07
0.000272728
5.27083e-09
5.21259e-09
-0.00117692
-3.08712e-09
-2.45242e-09
0.00117692
-0.0011475
-1.27838e-06
-3.08855e-09
7.08707e-09
0.0011475
-2.91028e-07
1.28523e-06
2.8921e-07
9.39976e-07
-2.82053e-07
-9.38974e-07
2.76161e-07
-0.00114706
-1.27288e-06
-5.45997e-09
5.55504e-09
0.00114706
-2.9155e-07
1.27823e-06
2.88444e-07
9.3969e-07
-2.85147e-07
-9.39253e-07
2.78821e-07
-0.000274782
1.30816e-06
1.2739e-06
-2.59503e-07
-2.64987e-07
0.000272724
5.49111e-09
6.24919e-09
-0.00117692
-3.33202e-09
-2.47277e-09
0.00117691
-0.00114748
-1.27853e-06
-3.29174e-09
9.59903e-09
0.00114748
-2.922e-07
1.28517e-06
2.87954e-07
9.39635e-07
-2.82003e-07
-9.38847e-07
2.75761e-07
-0.00114707
-1.27291e-06
-6.16522e-09
6.82497e-09
0.00114707
-2.91716e-07
1.27774e-06
2.88015e-07
9.39769e-07
-2.84796e-07
-9.38773e-07
2.78693e-07
-0.000274779
1.30792e-06
1.27381e-06
-2.5958e-07
-2.64626e-07
0.000272721
4.69827e-09
6.99668e-09
-0.00117692
-3.50468e-09
-1.5783e-09
0.00117691
-0.00114747
-1.27968e-06
-4.24168e-09
1.33202e-08
0.00114747
-2.92585e-07
1.28304e-06
2.87101e-07
9.39184e-07
-2.81691e-07
-9.38536e-07
2.75314e-07
-0.00114707
-1.27295e-06
-8.09811e-09
8.20751e-09
0.00114708
-2.91668e-07
1.27717e-06
2.87594e-07
9.39584e-07
-2.83813e-07
-9.38075e-07
2.78781e-07
-0.000274776
1.30707e-06
1.27343e-06
-2.59182e-07
-2.63629e-07
0.000272719
3.94599e-09
6.79602e-09
-0.00117691
-3.02214e-09
-2.96959e-10
0.00117691
-0.00114746
-1.27982e-06
-6.13894e-09
1.46921e-08
0.00114746
-2.92808e-07
1.2818e-06
2.86023e-07
9.38174e-07
-2.80832e-07
-9.37705e-07
2.74394e-07
-0.00114708
-1.27246e-06
-1.01305e-08
9.22068e-09
0.00114708
-2.91375e-07
1.27668e-06
2.87022e-07
9.38577e-07
-2.82743e-07
-9.37193e-07
2.77955e-07
-0.000274773
1.30618e-06
1.27255e-06
-2.58287e-07
-2.62481e-07
0.000272715
3.90133e-09
7.60016e-09
-0.00117691
-2.58084e-09
-4.98309e-10
0.0011769
-0.00114746
-1.27844e-06
-9.87302e-09
1.31025e-08
0.00114747
-2.91697e-07
1.28114e-06
2.85313e-07
9.36191e-07
-2.79102e-07
-9.36261e-07
2.72557e-07
-0.00114708
-1.27135e-06
-1.14408e-08
9.74892e-09
0.00114709
-2.90303e-07
1.27579e-06
2.86267e-07
9.36787e-07
-2.81176e-07
-9.35613e-07
2.75975e-07
-0.00027477
1.30544e-06
1.27131e-06
-2.56715e-07
-2.61458e-07
0.000272712
4.86742e-09
8.5798e-09
-0.0011769
-2.64195e-09
-1.36997e-09
0.0011769
-0.00114747
-1.2761e-06
-1.44586e-08
1.17515e-08
0.00114748
-2.89114e-07
1.27912e-06
2.83806e-07
9.33338e-07
-2.7512e-07
-9.32872e-07
2.69392e-07
-0.00114709
-1.26941e-06
-1.33985e-08
9.91935e-09
0.00114709
-2.88635e-07
1.27386e-06
2.8386e-07
9.3368e-07
-2.77453e-07
-9.3241e-07
2.72545e-07
-0.000274767
1.30396e-06
1.26902e-06
-2.53716e-07
-2.59206e-07
0.000272707
9.72924e-09
1.14234e-08
-0.0011769
-4.62655e-09
-5.31595e-09
0.00117689
-0.00114749
-1.2715e-06
-1.82056e-08
1.19534e-08
0.0011475
-2.84168e-07
1.275e-06
2.79602e-07
9.27444e-07
-2.67404e-07
-9.26868e-07
2.62139e-07
-0.00114709
-1.266e-06
-1.62686e-08
1.29651e-08
0.0011471
-2.84495e-07
1.26877e-06
2.78811e-07
9.28011e-07
-2.70117e-07
-9.26206e-07
2.64846e-07
-0.000274762
1.30065e-06
1.26508e-06
-2.48362e-07
-2.54563e-07
0.000272699
1.76446e-08
1.58661e-08
-0.00117689
-9.68512e-09
-1.27754e-08
0.00117688
-0.0011475
-1.26244e-06
-2.2137e-08
1.5273e-08
0.00114752
-2.73761e-07
1.26591e-06
2.68369e-07
9.16225e-07
-2.51966e-07
-9.1607e-07
2.45633e-07
-0.0011471
-1.25718e-06
-2.00069e-08
1.76889e-08
0.00114711
-2.74849e-07
1.2595e-06
2.67277e-07
9.16254e-07
-2.54686e-07
-9.15906e-07
2.48456e-07
-0.000274757
1.29203e-06
1.25639e-06
-2.37572e-07
-2.4351e-07
0.00027269
4.08303e-08
3.86602e-08
-0.0011769
-2.38677e-08
-3.39962e-08
0.00117687
-0.00114752
-1.24505e-06
-3.80324e-08
1.44319e-08
0.00114755
-2.49095e-07
1.24909e-06
2.45761e-07
8.98184e-07
-2.21519e-07
-8.9736e-07
2.14117e-07
-0.00114712
-1.23727e-06
-4.16018e-08
2.3711e-08
0.00114715
-2.50027e-07
1.23982e-06
2.42057e-07
8.95576e-07
-2.22163e-07
-8.94687e-07
2.1614e-07
-0.000274762
1.27867e-06
1.23939e-06
-2.12923e-07
-2.19873e-07
0.000272677
9.7864e-07
9.84147e-07
-0.0011768
-8.33285e-07
-8.26271e-07
0.0011765
-0.00114785
-1.13271e-06
-9.82193e-07
-3.84743e-07
0.00114832
-1.23448e-07
1.39726e-06
2.93433e-07
1.01378e-06
-7.75132e-08
-7.60792e-07
2.8503e-07
-0.00114746
-1.12449e-06
-9.88492e-07
-3.93992e-07
0.00114795
-1.2416e-07
1.39136e-06
2.95803e-07
1.01033e-06
-8.45016e-08
-7.5788e-07
2.86925e-07
-0.000274845
1.16955e-06
1.12471e-06
-1.00296e-07
-1.0452e-07
0.000272756
5.44307e-06
5.43595e-06
-0.00116287
-1.15174e-05
-1.14145e-05
0.00028248
0.000285846
0.000285012
0.000285012
4.41616e-06
6.75962e-06
7.10821e-06
4.42015e-06
6.76043e-06
7.11172e-06
-0.000284267
5.41315e-06
-5.43348e-06
6.07075e-06
-3.4446e-06
0.000281662
-0.000284228
-5.43462e-06
5.41845e-06
-3.45257e-06
6.06628e-06
0.000281631
-0.000275745
-5.40834e-06
-5.42146e-06
5.82701e-06
5.81418e-06
0.000274934
-1.3196e-06
-1.2823e-06
0.000274816
-0.000272749
2.63563e-07
2.7151e-07
-1.31887e-06
-2.88016e-09
7.11068e-09
0.00114722
-2.99762e-07
1.32664e-06
2.9824e-07
9.46234e-07
-2.84466e-07
2.80321e-07
-9.44402e-07
0.00114676
-1.27424e-09
-0.00114677
1.06538e-08
-1.3136e-06
2.94378e-07
-2.97843e-07
-9.38997e-07
2.77155e-07
-2.82021e-07
9.4059e-07
1.32565e-06
0.0011472
-3.3609e-09
-0.00114721
9.7833e-09
-1.31951e-06
2.97713e-07
-3.00219e-07
-9.44449e-07
2.80173e-07
-2.84503e-07
9.46494e-07
-2.58705e-07
-2.61554e-07
0.000272769
-1.28595e-06
0.000274837
-0.000272763
2.67457e-07
2.69355e-07
0.00114789
-4.33099e-09
-0.00114789
8.89921e-09
-1.27648e-06
2.92077e-07
-2.94944e-07
-9.41932e-07
2.79776e-07
-2.85321e-07
9.43906e-07
1.32017e-06
0.00114691
-2.09298e-09
-0.00114692
1.00623e-08
-1.31368e-06
2.97476e-07
-3.00508e-07
-9.41399e-07
2.80412e-07
-2.84394e-07
9.44053e-07
-2.72663e-09
9.62289e-09
0.00114663
-2.94501e-07
1.31414e-06
2.91929e-07
9.40459e-07
-2.81549e-07
2.77526e-07
-9.38159e-07
-3.12344e-09
-0.00114757
8.59065e-09
-1.27898e-06
2.8987e-07
-2.91223e-07
-9.38388e-07
2.77225e-07
9.40297e-07
-2.81484e-07
1.3134e-06
0.00114661
-3.68672e-09
-0.00114661
1.08446e-08
-1.3084e-06
2.91173e-07
-2.95226e-07
-9.38139e-07
2.77494e-07
-2.8153e-07
9.40802e-07
-1.28003e-06
0.000274801
-0.000272736
2.64328e-07
2.71633e-07
-2.86529e-09
9.7223e-09
0.00114773
-2.91625e-07
1.27992e-06
2.89585e-07
9.40483e-07
-2.84126e-07
2.80294e-07
-9.38148e-07
-4.21756e-09
-0.00114727
8.61401e-09
-1.27359e-06
2.89504e-07
-2.91864e-07
-9.39067e-07
2.79553e-07
9.40468e-07
-2.85236e-07
1.27955e-06
0.0011477
-1.53165e-09
-0.00114771
1.05978e-08
-1.27349e-06
2.8897e-07
-2.92194e-07
-9.38475e-07
2.79717e-07
-2.84668e-07
9.40441e-07
-0.000272728
2.66493e-07
2.71008e-07
1.3133e-06
1.27614e-06
-2.56311e-07
-2.64429e-07
0.000272748
-1.31965e-06
-1.28237e-06
0.000274809
-0.000272742
2.6359e-07
2.71711e-07
9.36067e-09
0.00114675
-2.97121e-07
1.31989e-06
2.94693e-07
9.40114e-07
-2.81605e-07
-9.3905e-07
2.77135e-07
-1.31915e-06
-3.67593e-09
9.44879e-09
0.00114719
-2.99919e-07
1.326e-06
2.97744e-07
9.4599e-07
-2.84191e-07
-9.44424e-07
2.80093e-07
0.00114673
-1.43575e-09
-0.00114673
1.07926e-08
-1.31383e-06
2.93933e-07
-2.98199e-07
-9.38948e-07
2.76773e-07
-2.82246e-07
9.40567e-07
1.32495e-06
0.00114717
-3.62225e-09
-0.00114718
1.20252e-08
-1.32004e-06
2.97167e-07
-3.00817e-07
-9.44267e-07
2.7979e-07
-2.84782e-07
9.46578e-07
-2.58569e-07
-2.61567e-07
0.00027276
-1.28579e-06
0.000274826
-0.000272752
2.67348e-07