/*--------------------------------*- C++ -*----------------------------------*\
| =========                 |                                                 |
| \\      /  F ield         | OpenFOAM: The Open Source CFD Toolbox           |
|  \\    /   O peration     | Version:  v2012                                 |
|   \\  /    A nd           | Website:  www.openfoam.com                      |
|    \\/     M anipulation  |                                                 |
\*---------------------------------------------------------------------------*/
FoamFile
{
    version     2.0;
    format      ascii;
    class       volVectorField;
    location    "150";
    object      U;
}
// * * * * * * * * * * * * * * * * * * * * * * * * * * * * * * * * * * * * * //

dimensions      [0 1 -1 0 0 0 0];


internalField   nonuniform List<vector> 
85864
(
(-1.28314e-06 -1.1881e-06 0.111809)
(1.91269e-06 -8.5588e-07 0.108957)
(5.26082e-05 5.25699e-05 0.105966)
(2.10255e-06 1.20591e-06 0.108954)
(9.75475e-07 2.17608e-06 0.108955)
(1.18675e-06 -1.88935e-06 0.108957)
(5.23543e-05 -5.22322e-05 0.105967)
(6.69831e-07 1.45997e-05 0.0818027)
(1.49657e-05 3.19438e-07 0.0817969)
(1.70422e-05 8.07071e-07 0.0916858)
(-1.26785e-06 1.44371e-06 0.11181)
(8.11997e-06 -4.10325e-06 0.0708643)
(8.62285e-06 -1.96366e-05 0.0933695)
(3.95942e-06 8.25302e-06 0.0708726)
(8.66431e-06 3.34688e-06 0.0708669)
(7.83554e-06 9.23135e-06 0.0874059)
(9.8565e-06 7.40337e-06 0.0873985)
(8.91684e-06 1.90856e-05 0.0933717)
(1.94097e-05 8.80393e-06 0.0933665)
(1.31536e-06 -1.42736e-07 0.110723)
(2.49508e-05 6.13377e-07 0.0998818)
(1.4408e-05 -6.6115e-07 0.0817911)
(1.6972e-05 4.09548e-07 0.0916849)
(1.39972e-06 2.66151e-07 0.110727)
(1.89817e-05 -8.9596e-06 0.0933657)
(2.47167e-05 -3.60412e-07 0.0998838)
(9.05081e-06 -7.95224e-06 0.0873975)
(7.28122e-06 -9.76572e-06 0.087402)
(3.43171e-06 -8.64208e-06 0.0708686)
(2.00147e-07 -1.51277e-05 0.0818006)
(-1.87987e-06 -1.43946e-05 0.0818851)
(4.66619e-08 1.31753e-05 0.0855546)
(-1.0977e-06 8.30554e-06 0.0677794)
(-8.20869e-06 -3.06194e-07 0.0678759)
(-1.4086e-05 -2.08639e-06 0.0818796)
(1.3467e-05 9.80557e-08 0.0855471)
(-1.36859e-05 -1.58653e-06 0.0856391)
(8.33416e-06 -7.36564e-07 0.0677777)
(-8.83909e-06 8.42152e-07 0.0764043)
(-1.8449e-05 2.55644e-07 0.0917693)
(1.62901e-05 1.22714e-06 0.0899799)
(8.31255e-06 6.67588e-07 0.0781394)
(-1.77056e-05 -8.17244e-07 0.0900691)
(-8.43864e-06 6.91523e-07 0.0782093)
(8.32267e-06 1.92077e-07 0.0763256)
(-8.33531e-06 3.79727e-06 0.0709595)
(-3.97282e-06 -8.21898e-06 0.0709624)
(-7.91389e-06 -4.67876e-06 0.0709571)
(-1.00064e-05 -2.04437e-05 0.0920056)
(1.29658e-05 2.60869e-05 0.0970219)
(-7.62277e-06 -9.02758e-06 0.0874938)
(5.21586e-06 8.37952e-06 0.0812203)
(-5.11622e-06 -8.50471e-06 0.0813076)
(-1.2189e-05 -2.68108e-05 0.0971195)
(1.01863e-05 1.92329e-05 0.0919151)
(-1.99438e-05 -1.04479e-05 0.0919975)
(2.64282e-05 1.30104e-05 0.0970166)
(-8.44511e-06 -8.17843e-06 0.0874874)
(9.01588e-06 4.64354e-06 0.0812127)
(-7.83389e-06 -5.85316e-06 0.0813005)
(-2.6555e-05 -1.22893e-05 0.0971151)
(1.96454e-05 9.87019e-06 0.0919069)
(-7.48971e-06 -8.14657e-06 0.0835181)
(7.41492e-06 4.40725e-06 0.0679134)
(4.99238e-06 6.77682e-06 0.0679059)
(-7.07992e-06 -4.7448e-06 0.0680056)
(-4.10183e-06 -7.80593e-06 0.0679982)
(7.91393e-06 7.35846e-06 0.0834398)
(-8.16086e-06 2.06361e-07 0.0678724)
(-1.45689e-05 1.80976e-06 0.0818759)
(1.30816e-05 4.78608e-08 0.085541)
(-1.39263e-05 1.60785e-06 0.0856351)
(8.30231e-06 8.82181e-07 0.0677691)
(-8.37919e-06 1.41898e-07 0.0764018)
(-1.86305e-05 8.8416e-07 0.0917683)
(8.33181e-06 6.67391e-07 0.0781393)
(1.59827e-05 -2.34491e-07 0.0899742)
(-8.3683e-06 5.82555e-07 0.0782095)
(-1.78541e-05 1.61175e-06 0.0900649)
(8.66325e-06 8.32888e-07 0.0763198)
(-2.06965e-05 1.00312e-05 0.0919989)
(2.59156e-05 -1.29994e-05 0.097017)
(-9.18169e-06 7.50103e-06 0.08749)
(8.05223e-06 -5.51181e-06 0.0812119)
(-8.7888e-06 4.91687e-06 0.081302)
(-2.69557e-05 1.21228e-05 0.0971164)
(1.88648e-05 -1.02252e-05 0.0919073)
(-1.0639e-05 2.00853e-05 0.0920066)
(1.26236e-05 -2.62149e-05 0.0970218)
(-8.19678e-06 8.52206e-06 0.0874913)
(4.52815e-06 -8.87466e-06 0.0812186)
(-1.25571e-05 2.66812e-05 0.09712)
(-5.80497e-06 7.97497e-06 0.0813075)
(9.61259e-06 -1.95832e-05 0.091916)
(-8.51033e-06 7.5803e-06 0.0835199)
(4.24418e-06 -7.61102e-06 0.0679077)
(6.65088e-06 -5.04873e-06 0.0679136)
(-4.89122e-06 6.95011e-06 0.0680009)
(-7.88536e-06 4.10904e-06 0.0680065)
(6.95647e-06 -7.91731e-06 0.0834411)
(-4.55168e-06 7.96125e-06 0.0709587)
(-2.26914e-06 1.40123e-05 0.0818828)
(-4.81386e-07 8.66619e-07 0.112603)
(-2.50376e-05 -2.53146e-05 0.0985245)
(5.17077e-05 2.79224e-05 0.102798)
(2.79864e-05 5.16285e-05 0.102794)
(-5.67268e-05 -5.67061e-05 0.106191)
(-5.21756e-05 -2.86177e-05 0.102942)
(-2.85293e-05 -5.22026e-05 0.102939)
(2.40675e-05 2.38386e-05 0.0984057)
(-2.56318e-05 2.54016e-05 0.098525)
(2.77547e-05 -5.15254e-05 0.102794)
(5.14188e-05 -2.77635e-05 0.102798)
(-5.71732e-05 5.74257e-05 0.106193)
(-5.25251e-05 2.88337e-05 0.102942)
(-2.87599e-05 5.24207e-05 0.102939)
(2.34918e-05 -2.38429e-05 0.0984062)
(-4.16765e-07 -6.10678e-07 0.112603)
(-5.9241e-06 6.53897e-05 0.103063)
(1.07728e-05 -6.08126e-05 0.100685)
(-1.03655e-05 1.78158e-05 0.0934773)
(4.21134e-06 -2.33885e-05 0.0963531)
(-1.00056e-05 5.89241e-05 0.100809)
(-6.22999e-06 2.37849e-05 0.0964825)
(6.05857e-06 -6.38868e-05 0.102861)
(-5.78448e-06 -6.53789e-05 0.10306)
(1.08628e-05 6.05265e-05 0.100685)
(-9.9905e-06 -1.82068e-05 0.0934778)
(4.46773e-06 2.28917e-05 0.0963553)
(-5.92216e-06 -2.39746e-05 0.0964826)
(-9.84652e-06 -5.90808e-05 0.100807)
(6.18546e-06 6.36479e-05 0.10286)
(-6.52852e-05 -5.44968e-06 0.103062)
(6.07746e-05 1.1251e-05 0.100682)
(-1.79828e-05 -1.02037e-05 0.0934748)
(2.33775e-05 4.57325e-06 0.0963506)
(-2.37336e-05 -5.88292e-06 0.0964802)
(-5.89785e-05 -9.56448e-06 0.100806)
(6.37775e-05 6.46342e-06 0.102859)
(-6.67223e-05 -1.73388e-06 0.104785)
(-2.63939e-05 -6.08602e-07 0.0999981)
(2.44928e-05 2.08973e-06 0.0986557)
(6.33162e-05 -1.53002e-07 0.105402)
(-2.62896e-05 -2.44112e-06 0.0987847)
(-6.62532e-05 -3.73111e-07 0.10558)
(6.30632e-05 1.92008e-06 0.104568)
(-6.54394e-05 5.80713e-06 0.103067)
(6.04476e-05 -1.08619e-05 0.100685)
(-1.84774e-05 9.89272e-06 0.0934749)
(2.28146e-05 -4.2031e-06 0.0963519)
(-2.42692e-05 6.12369e-06 0.0964813)
(-5.923e-05 9.70726e-06 0.100809)
(6.35403e-05 -5.98493e-06 0.102866)
(-6.67943e-05 1.70579e-06 0.104794)
(-2.64387e-05 8.5956e-07 0.0999996)
(6.32539e-05 -2.81645e-07 0.105406)
(2.44017e-05 -1.73957e-06 0.0986593)
(-6.63175e-05 -1.37646e-07 0.105585)
(-2.62964e-05 2.72364e-06 0.0987874)
(6.29182e-05 -1.94999e-06 0.104579)
(-1.00795e-06 1.85511e-06 0.108952)
(-5.22778e-05 -5.23374e-05 0.10596)
(-1.42146e-06 -1.32025e-06 0.111808)
(-1.08554e-06 1.86239e-06 0.108948)
(1.9412e-06 -1.00462e-06 0.108955)
(-5.22493e-05 -5.25896e-05 0.105956)
(-1.46984e-06 -1.4528e-06 0.111807)
(-1.32389e-06 1.8794e-06 0.108945)
(2.20899e-06 -1.19417e-06 0.108953)
(-5.25312e-05 -5.27493e-05 0.105952)
(-1.46611e-06 -1.56992e-06 0.111807)
(-1.24942e-06 2.00365e-06 0.108942)
(2.41842e-06 -1.07444e-06 0.108952)
(-5.26708e-05 -5.28015e-05 0.105949)
(-1.37715e-06 -1.46594e-06 0.111807)
(-1.11204e-06 2.28295e-06 0.108939)
(2.55318e-06 -8.93257e-07 0.108951)
(-5.27238e-05 -5.28902e-05 0.105946)
(-1.36331e-06 -1.33649e-06 0.111807)
(-1.01823e-06 2.32102e-06 0.108937)
(2.70148e-06 -8.57789e-07 0.10895)
(-5.27889e-05 -5.28868e-05 0.105944)
(-1.35674e-06 -1.33341e-06 0.111807)
(-1.09932e-06 2.28038e-06 0.108935)
(2.63913e-06 -9.41213e-07 0.108949)
(-5.2752e-05 -5.29061e-05 0.105941)
(-1.41321e-06 -1.49887e-06 0.111807)
(-1.29649e-06 2.1461e-06 0.108933)
(2.58823e-06 -1.1952e-06 0.108948)
(-5.28643e-05 -5.2917e-05 0.105941)
(-1.43911e-06 -1.63321e-06 0.111808)
(-1.45435e-06 1.88985e-06 0.108933)
(2.63644e-06 -1.32877e-06 0.108946)
(-5.29659e-05 -5.30902e-05 0.105943)
(-1.44353e-06 -1.69684e-06 0.111809)
(-1.62766e-06 1.7134e-06 0.108933)
(2.43036e-06 -1.41249e-06 0.108946)
(-5.30188e-05 -5.3163e-05 0.105944)
(-1.39489e-06 -1.80694e-06 0.11181)
(-1.65626e-06 1.49962e-06 0.108935)
(2.07888e-06 -1.55085e-06 0.108946)
(-5.29204e-05 -5.3191e-05 0.105947)
(-1.17853e-06 -1.83031e-06 0.111811)
(-1.67744e-06 1.46214e-06 0.108938)
(1.93733e-06 -1.66699e-06 0.108947)
(-5.29665e-05 -5.31643e-05 0.10595)
(-1.16752e-06 -1.74479e-06 0.111812)
(-1.67826e-06 1.56008e-06 0.108941)
(1.83551e-06 -1.58076e-06 0.108948)
(-5.28928e-05 -5.28621e-05 0.105954)
(-1.24483e-06 -1.48502e-06 0.111813)
(-1.53852e-06 1.58431e-06 0.108944)
(1.87222e-06 -1.26036e-06 0.108949)
(-5.31506e-05 -5.26524e-05 0.105959)
(-1.37073e-06 -1.2606e-06 0.111813)
(-1.3752e-06 1.82988e-06 0.108947)
(1.88729e-06 -1.14137e-06 0.108949)
(-5.32308e-05 -5.25792e-05 0.105963)
(-1.42096e-06 -1.12418e-06 0.111813)
(-1.25616e-06 2.09434e-06 0.10895)
(1.96284e-06 -1.091e-06 0.108948)
(-5.29854e-05 -5.25166e-05 0.105966)
(-1.40605e-06 -1.20394e-06 0.111813)
(-1.12607e-06 2.02e-06 0.108952)
(2.02509e-06 -1.26472e-06 0.108947)
(-5.28104e-05 -5.26303e-05 0.105969)
(-1.32809e-06 -1.28827e-06 0.111813)
(-1.16168e-06 1.80563e-06 0.108954)
(1.97437e-06 -1.44496e-06 0.108944)
(-5.26626e-05 -5.28748e-05 0.105971)
(-1.40413e-06 -1.49514e-06 0.111813)
(-1.2264e-06 1.71924e-06 0.108956)
(1.87579e-06 -1.67707e-06 0.108942)
(-5.26858e-05 -5.28549e-05 0.105973)
(-1.68884e-06 -1.5634e-06 0.111813)
(-1.32099e-06 1.75677e-06 0.108957)
(1.56766e-06 -1.76359e-06 0.10894)
(-5.28099e-05 -5.28493e-05 0.105973)
(-1.88463e-06 -1.48616e-06 0.111813)
(-1.39118e-06 1.86403e-06 0.108957)
(1.41892e-06 -1.6841e-06 0.108938)
(-5.28856e-05 -5.26561e-05 0.105974)
(-1.93111e-06 -1.24734e-06 0.111813)
(-1.41103e-06 2.22314e-06 0.108957)
(1.23616e-06 -1.51242e-06 0.108936)
(-5.29998e-05 -5.23108e-05 0.105976)
(-1.89599e-06 -1.10642e-06 0.111812)
(-1.38167e-06 2.27149e-06 0.108956)
(1.08541e-06 -1.40437e-06 0.108936)
(-5.29227e-05 -5.23671e-05 0.105978)
(-1.85209e-06 -1.10447e-06 0.111811)
(-1.22529e-06 2.21076e-06 0.108955)
(1.21619e-06 -1.3092e-06 0.108935)
(-5.27491e-05 -5.24646e-05 0.105979)
(-1.6579e-06 -1.19604e-06 0.11181)
(-1.04666e-06 2.20057e-06 0.108954)
(1.59224e-06 -1.14781e-06 0.108934)
(-5.2593e-05 -5.25576e-05 0.105979)
(-1.55405e-06 -1.30684e-06 0.111809)
(-1.07211e-06 2.27442e-06 0.108954)
(1.84058e-06 -1.0299e-06 0.108934)
(-5.27577e-05 -5.26942e-05 0.105978)
(-1.52896e-06 -1.49367e-06 0.111809)
(-1.18484e-06 2.15075e-06 0.108953)
(2.00307e-06 -1.03831e-06 0.108933)
(-5.28901e-05 -5.26118e-05 0.105977)
(-1.51914e-06 -1.66908e-06 0.111808)
(-1.21602e-06 2.02716e-06 0.108952)
(2.18441e-06 -1.12349e-06 0.108932)
(-5.31043e-05 -5.27713e-05 0.105975)
(-1.44935e-06 -1.69545e-06 0.111808)
(-1.05733e-06 2.10227e-06 0.108952)
(2.17331e-06 -1.1449e-06 0.108932)
(-5.29197e-05 -5.31921e-05 0.105972)
(-1.4398e-06 -1.67413e-06 0.111809)
(-1.05537e-06 2.18287e-06 0.108951)
(2.10225e-06 -1.12219e-06 0.108933)
(-5.28919e-05 -5.32319e-05 0.105971)
(-1.37554e-06 -1.75686e-06 0.111809)
(-1.21502e-06 2.07711e-06 0.108951)
(2.1924e-06 -1.09952e-06 0.108933)
(-5.29444e-05 -5.31512e-05 0.105969)
(-1.27789e-06 -1.90015e-06 0.11181)
(-1.28396e-06 1.81168e-06 0.108951)
(2.33436e-06 -1.18209e-06 0.108934)
(-5.27391e-05 -5.30839e-05 0.105967)
(-1.32335e-06 -2.00623e-06 0.11181)
(-1.20916e-06 1.72054e-06 0.108951)
(2.29078e-06 -1.26072e-06 0.108934)
(-5.23878e-05 -5.28323e-05 0.105966)
(-1.36662e-06 -1.92914e-06 0.111811)
(-1.19963e-06 1.66246e-06 0.10895)
(2.12947e-06 -1.26173e-06 0.108934)
(-5.25003e-05 -5.2836e-05 0.105965)
(-1.3806e-06 -1.77368e-06 0.111811)
(-1.21308e-06 1.69007e-06 0.10895)
(1.90871e-06 -1.15032e-06 0.108935)
(-5.27217e-05 -5.26644e-05 0.105962)
(-1.47598e-06 -1.64584e-06 0.111812)
(-1.22666e-06 1.70376e-06 0.108949)
(1.75886e-06 -1.06788e-06 0.108937)
(-5.26762e-05 -5.2558e-05 0.10596)
(-1.51137e-06 -1.50261e-06 0.111813)
(-1.12667e-06 1.69312e-06 0.108949)
(1.63301e-06 -9.56852e-07 0.108939)
(-5.27815e-05 -5.26132e-05 0.105958)
(-1.49286e-06 -1.46601e-06 0.111814)
(-1.07132e-06 1.77202e-06 0.108949)
(1.71377e-06 -9.33027e-07 0.108941)
(-5.25716e-05 -5.25427e-05 0.105956)
(-1.47991e-06 -1.43526e-06 0.111815)
(-9.92271e-07 2.11266e-06 0.108948)
(1.83661e-06 -8.07381e-07 0.108944)
(-5.26144e-05 -5.2487e-05 0.105956)
(-1.51545e-06 -1.33076e-06 0.111817)
(-8.51179e-07 2.38507e-06 0.108949)
(1.90333e-06 -6.40925e-07 0.108946)
(-5.24834e-05 -5.21144e-05 0.105956)
(-1.45949e-06 -1.21145e-06 0.111819)
(-6.89487e-07 2.49229e-06 0.108952)
(1.94158e-06 -4.675e-07 0.10895)
(-5.20717e-05 -5.17394e-05 0.105956)
(-1.43646e-06 -1.21816e-06 0.111822)
(-4.63467e-07 2.365e-06 0.108957)
(2.04936e-06 -3.51002e-07 0.108955)
(-5.14834e-05 -5.12997e-05 0.105957)
(-1.52375e-06 -1.29908e-06 0.111825)
(-1.5227e-07 2.19614e-06 0.108964)
(2.19812e-06 -1.85717e-07 0.108961)
(-5.03314e-05 -5.04598e-05 0.105961)
(-1.8802e-06 -1.86268e-06 0.111829)
(8.8333e-08 2.25347e-06 0.108973)
(2.51808e-06 7.40205e-08 0.108969)
(-4.82114e-05 -4.85933e-05 0.105968)
(-2.57346e-06 -2.81864e-06 0.111834)
(2.83256e-07 2.84002e-06 0.108984)
(3.23708e-06 2.26271e-07 0.10898)
(-4.34722e-05 -4.37512e-05 0.105985)
(-3.73945e-06 -4.10399e-06 0.111839)
(4.07021e-07 4.47677e-06 0.108999)
(4.87897e-06 1.65287e-07 0.108994)
(-3.4095e-05 -3.47903e-05 0.10602)
(-1.05396e-05 -1.07624e-05 0.111838)
(3.77832e-06 6.47272e-06 0.109018)
(6.59973e-06 3.46369e-06 0.109013)
(-1.62724e-05 -1.69623e-05 0.106088)
(-3.05896e-05 -3.06958e-05 0.111875)
(7.14241e-05 -4.49877e-05 0.109088)
(-4.4915e-05 7.10999e-05 0.109082)
(3.36964e-05 3.32635e-05 0.106397)
(-5.69304e-05 -5.68738e-05 0.106188)
(-1.87186e-06 1.10836e-06 0.108952)
(2.33427e-06 1.31801e-06 0.108951)
(-2.29212e-06 1.19114e-06 0.108949)
(-5.23654e-05 5.21636e-05 0.105962)
(5.72028e-05 -5.7338e-05 0.106186)
(1.04101e-06 2.29089e-06 0.108953)
(1.22662e-06 -2.2325e-06 0.108954)
(-1.07301e-06 -2.03183e-06 0.108949)
(-1.19507e-06 2.06498e-06 0.108949)
(-1.05862e-06 -2.42209e-06 0.108946)
(-5.71228e-05 5.71539e-05 0.106191)
(-1.93459e-06 -1.04014e-06 0.108948)
(2.21679e-06 -1.11165e-06 0.108955)
(-2.29836e-06 -1.26184e-06 0.108945)
(5.69648e-05 5.66649e-05 0.106182)
(5.23379e-05 5.23388e-05 0.105963)
(-5.70723e-05 -5.69335e-05 0.106186)
(2.03003e-06 1.25877e-06 0.10895)
(-2.15588e-06 1.12465e-06 0.108948)
(2.39241e-06 1.41761e-06 0.108948)
(-2.54562e-06 1.18154e-06 0.108946)
(-5.2441e-05 5.21719e-05 0.105958)
(5.69652e-05 -5.73057e-05 0.106182)
(9.94892e-07 2.00596e-06 0.108953)
(1.13242e-06 -2.01829e-06 0.108953)
(1.07825e-06 2.15239e-06 0.108952)
(1.25772e-06 -2.34354e-06 0.10895)
(-9.99019e-07 -2.1622e-06 0.108945)
(-1.44847e-06 2.12954e-06 0.108945)
(-1.22569e-06 -2.434e-06 0.108944)
(5.23744e-05 -5.24703e-05 0.105965)
(-5.73879e-05 5.72976e-05 0.106188)
(-2.08405e-06 -1.20885e-06 0.108945)
(2.33435e-06 -1.3234e-06 0.108953)
(-2.33564e-06 -1.34196e-06 0.108942)
(5.70213e-05 5.67888e-05 0.106178)
(5.25316e-05 5.26048e-05 0.105959)
(-5.70409e-05 -5.71966e-05 0.106184)
(2.18073e-06 1.36685e-06 0.108947)
(-2.3963e-06 1.10222e-06 0.108946)
(2.55275e-06 1.30933e-06 0.108946)
(-2.673e-06 1.14405e-06 0.108944)
(-5.27673e-05 5.23508e-05 0.105954)
(5.72137e-05 -5.73381e-05 0.106178)
(1.02283e-06 1.82777e-06 0.108952)
(1.26004e-06 -2.22942e-06 0.10895)
(1.19874e-06 2.09156e-06 0.108952)
(1.44144e-06 -2.35948e-06 0.108946)
(-1.2019e-06 -2.25769e-06 0.108943)
(-1.40861e-06 2.13257e-06 0.108942)
(-1.28096e-06 -2.51195e-06 0.108942)
(5.2301e-05 -5.24857e-05 0.105961)
(-5.70265e-05 5.71766e-05 0.106185)
(-2.17441e-06 -1.3104e-06 0.108941)
(2.60575e-06 -1.23477e-06 0.108952)
(-2.4258e-06 -1.31555e-06 0.10894)
(5.69805e-05 5.68193e-05 0.106175)
(5.27554e-05 5.26015e-05 0.105958)
(-5.72061e-05 -5.70167e-05 0.106182)
(2.26893e-06 1.18838e-06 0.108945)
(-2.49728e-06 1.10478e-06 0.108943)
(2.55972e-06 1.26969e-06 0.108944)
(-2.5647e-06 1.23752e-06 0.108941)
(-5.2634e-05 5.24226e-05 0.10595)
(5.72247e-05 -5.71708e-05 0.106174)
(1.18749e-06 1.77128e-06 0.108952)
(1.47902e-06 -2.1257e-06 0.108946)
(1.24255e-06 2.06724e-06 0.108952)
(1.70121e-06 -2.13165e-06 0.108942)
(-1.23449e-06 -2.25485e-06 0.108942)
(-1.29999e-06 2.53197e-06 0.108939)
(-1.22543e-06 -2.39139e-06 0.108941)
(5.26422e-05 -5.25737e-05 0.105958)
(-5.69135e-05 5.75355e-05 0.106181)
(-2.18014e-06 -1.30024e-06 0.10894)
(2.82132e-06 -1.08244e-06 0.108951)
(-2.41154e-06 -1.28574e-06 0.108938)
(5.71344e-05 5.69973e-05 0.106173)
(5.27641e-05 5.29493e-05 0.105955)
(-5.74016e-05 -5.71052e-05 0.10618)
(2.26751e-06 1.27095e-06 0.108943)
(-2.29867e-06 1.26394e-06 0.108941)
(2.5334e-06 1.44929e-06 0.108942)
(-2.50139e-06 1.42006e-06 0.108939)
(-5.28611e-05 5.29413e-05 0.105946)
(5.74572e-05 -5.68826e-05 0.10617)
(1.13952e-06 1.83283e-06 0.108952)
(1.71817e-06 -1.83757e-06 0.108941)
(1.19253e-06 2.28626e-06 0.108952)
(1.84342e-06 -2.08454e-06 0.108938)
(-1.21537e-06 -2.1145e-06 0.108941)
(-1.16598e-06 2.6384e-06 0.108937)
(-1.2657e-06 -2.36094e-06 0.10894)
(5.31449e-05 -5.25241e-05 0.105954)
(-5.70614e-05 5.79084e-05 0.106178)
(-2.14222e-06 -1.21963e-06 0.108938)
(2.9392e-06 -1.00093e-06 0.10895)
(-2.49005e-06 -1.22744e-06 0.108936)
(5.70511e-05 5.69626e-05 0.106171)
(5.27629e-05 5.30384e-05 0.105953)
(-5.71523e-05 -5.713e-05 0.106178)
(2.25446e-06 1.42875e-06 0.108941)
(-2.25833e-06 1.41296e-06 0.108939)
(2.58787e-06 1.42211e-06 0.108939)
(-2.5158e-06 1.38338e-06 0.108937)
(-5.25737e-05 5.30176e-05 0.105942)
(5.72221e-05 -5.69488e-05 0.106167)
(1.13012e-06 2.05626e-06 0.108952)
(1.79714e-06 -1.8632e-06 0.108937)
(1.23052e-06 2.43334e-06 0.108951)
(1.82248e-06 -2.17007e-06 0.108933)
(-1.22508e-06 -2.09276e-06 0.10894)
(-1.20464e-06 2.57136e-06 0.108935)
(-1.2595e-06 -2.27216e-06 0.108939)
(5.29653e-05 -5.22596e-05 0.10595)
(-5.69068e-05 5.75311e-05 0.106174)
(-2.26532e-06 -1.18925e-06 0.108936)
(2.93838e-06 -1.0317e-06 0.108949)
(-2.5069e-06 -1.24424e-06 0.108935)
(5.7095e-05 5.69862e-05 0.106168)
(5.31135e-05 5.30508e-05 0.10595)
(-5.70453e-05 -5.7109e-05 0.106176)
(2.3693e-06 1.32926e-06 0.108939)
(-2.33511e-06 1.34217e-06 0.108936)
(2.63775e-06 1.31444e-06 0.108939)
(-2.72545e-06 1.36727e-06 0.108935)
(-5.2785e-05 5.29005e-05 0.105938)
(5.6748e-05 -5.68375e-05 0.106163)
(1.16952e-06 2.17654e-06 0.108952)
(1.76259e-06 -1.99786e-06 0.108932)
(1.32913e-06 2.36617e-06 0.108952)
(1.73285e-06 -2.35128e-06 0.108929)
(-1.26257e-06 -2.00413e-06 0.10894)
(-1.37252e-06 2.48053e-06 0.108933)
(-1.38191e-06 -2.39446e-06 0.108939)
(5.3011e-05 -5.25687e-05 0.105947)
(-5.67336e-05 5.69761e-05 0.106169)
(-2.24699e-06 -1.23488e-06 0.108935)
(2.85818e-06 -1.22284e-06 0.108948)
(-2.59572e-06 -1.32748e-06 0.108934)
(5.72155e-05 5.7127e-05 0.106168)
(5.31649e-05 5.30073e-05 0.105948)
(-5.6817e-05 -5.69652e-05 0.106174)
(2.35348e-06 1.16839e-06 0.108939)
(-2.47125e-06 1.31461e-06 0.108934)
(2.46103e-06 1.21702e-06 0.108939)
(-2.67202e-06 1.39454e-06 0.108933)
(-5.32152e-05 5.30142e-05 0.105935)
(5.68668e-05 -5.71751e-05 0.10616)
(1.29947e-06 2.08084e-06 0.108952)
(1.70564e-06 -2.131e-06 0.108928)
(1.45934e-06 2.12885e-06 0.108952)
(1.83692e-06 -2.5141e-06 0.108925)
(-1.3583e-06 -2.18036e-06 0.10894)
(-1.55762e-06 2.30995e-06 0.108932)
(-1.43693e-06 -2.29214e-06 0.10894)
(5.3028e-05 -5.29858e-05 0.105942)
(-5.70422e-05 5.72127e-05 0.106165)
(-2.3356e-06 -1.30084e-06 0.108935)
(2.81102e-06 -1.39349e-06 0.108946)
(-2.4944e-06 -1.46977e-06 0.108935)
(5.69472e-05 5.67596e-05 0.106169)
(5.31599e-05 5.2998e-05 0.105947)
(-5.71188e-05 -5.73642e-05 0.106174)
(2.19047e-06 1.17578e-06 0.108939)
(-2.41159e-06 1.42106e-06 0.108933)
(2.41068e-06 1.30387e-06 0.10894)
(-2.60629e-06 1.47123e-06 0.108933)
(-5.31565e-05 5.28224e-05 0.105933)
(5.68063e-05 -5.72462e-05 0.106161)
(1.35939e-06 1.84122e-06 0.108952)
(1.85813e-06 -2.42322e-06 0.108924)
(1.41371e-06 2.0326e-06 0.108953)
(1.8634e-06 -2.6545e-06 0.108922)
(-1.43269e-06 -1.99123e-06 0.108941)
(-1.71785e-06 2.07853e-06 0.108933)
(-1.49582e-06 -2.27053e-06 0.108941)
(5.28559e-05 -5.28493e-05 0.105938)
(-5.69373e-05 5.68728e-05 0.106164)
(-2.13171e-06 -1.44352e-06 0.108935)
(2.75512e-06 -1.52627e-06 0.108945)
(-2.26562e-06 -1.55706e-06 0.108935)
(5.67613e-05 5.66138e-05 0.10617)
(5.29539e-05 5.25761e-05 0.105947)
(-5.67806e-05 -5.72692e-05 0.106176)
(2.15003e-06 1.21867e-06 0.108941)
(-2.24337e-06 1.38833e-06 0.108933)
(2.44026e-06 1.20468e-06 0.108943)
(-2.2397e-06 1.46699e-06 0.108934)
(-5.32851e-05 5.27773e-05 0.105934)
(5.68206e-05 -5.72543e-05 0.106166)
(1.41721e-06 1.81546e-06 0.108953)
(1.74628e-06 -2.30358e-06 0.108922)
(1.73768e-06 2.04083e-06 0.108954)
(1.72093e-06 -2.34599e-06 0.108922)
(-1.47157e-06 -2.00517e-06 0.108941)
(-1.78019e-06 1.85694e-06 0.108934)
(-1.61163e-06 -2.37347e-06 0.108942)
(5.29611e-05 -5.32437e-05 0.105938)
(-5.68602e-05 5.67537e-05 0.106166)
(-1.97133e-06 -1.53019e-06 0.108936)
(2.38357e-06 -1.67014e-06 0.108945)
(-2.24848e-06 -1.71259e-06 0.108936)
(5.68834e-05 5.66127e-05 0.106172)
(5.32371e-05 5.27018e-05 0.10595)
(-5.63624e-05 -5.71244e-05 0.106179)
(2.1917e-06 1.12919e-06 0.108944)
(-1.87946e-06 1.44442e-06 0.108935)
(2.50095e-06 1.18083e-06 0.108946)
(-2.03897e-06 1.51923e-06 0.108937)
(-5.33166e-05 5.28039e-05 0.105939)
(5.66861e-05 -5.71331e-05 0.106172)
(1.67582e-06 1.72532e-06 0.108954)
(1.68557e-06 -2.10706e-06 0.108922)
(1.9725e-06 1.85358e-06 0.108955)
(1.70038e-06 -2.34019e-06 0.108923)
(-1.59253e-06 -2.12427e-06 0.108943)
(-1.76499e-06 1.77743e-06 0.108937)
(-1.676e-06 -2.49747e-06 0.108943)
(5.27929e-05 -5.30424e-05 0.10594)
(-5.66074e-05 5.63159e-05 0.106169)
(-1.91406e-06 -1.71631e-06 0.108937)
(2.31889e-06 -1.77363e-06 0.108946)
(-2.07447e-06 -1.74935e-06 0.108938)
(5.66236e-05 5.64213e-05 0.106175)
(5.3408e-05 5.25839e-05 0.105953)
(-5.62615e-05 -5.71091e-05 0.106183)
(2.24555e-06 1.07535e-06 0.108947)
(-1.70455e-06 1.42022e-06 0.108938)
(2.46723e-06 1.19315e-06 0.10895)
(-1.96926e-06 1.46673e-06 0.108941)
(-5.34214e-05 5.28708e-05 0.105946)
(5.6516e-05 -5.7058e-05 0.106178)
(1.96434e-06 1.55653e-06 0.108955)
(1.62629e-06 -2.03946e-06 0.108924)
(1.95145e-06 1.89759e-06 0.108955)
(1.64965e-06 -2.21381e-06 0.108926)
(-1.63331e-06 -2.17732e-06 0.108944)
(-1.80402e-06 1.83498e-06 0.10894)
(-1.70175e-06 -2.23973e-06 0.108945)
(5.29822e-05 -5.33771e-05 0.105944)
(-5.65039e-05 5.65059e-05 0.106172)
(-1.74447e-06 -1.73154e-06 0.108938)
(2.13756e-06 -1.77325e-06 0.108947)
(-1.9598e-06 -1.64597e-06 0.10894)
(5.66826e-05 5.66222e-05 0.106179)
(5.33748e-05 5.2511e-05 0.105957)
(-5.65456e-05 -5.67139e-05 0.106186)
(2.19453e-06 1.16883e-06 0.108951)
(-1.64904e-06 1.41713e-06 0.108942)
(2.40293e-06 1.3554e-06 0.108952)
(-1.95744e-06 1.53606e-06 0.108944)
(-5.33999e-05 5.27932e-05 0.105952)
(5.65983e-05 -5.67492e-05 0.106183)
(1.81922e-06 1.67548e-06 0.108956)
(1.57951e-06 -1.94099e-06 0.108927)
(1.66228e-06 2.11578e-06 0.108956)
(1.66788e-06 -2.10354e-06 0.108928)
(-1.67563e-06 -1.90856e-06 0.108946)
(-1.67239e-06 1.82878e-06 0.108943)
(-1.7818e-06 -2.05633e-06 0.108947)
(5.2903e-05 -5.29194e-05 0.105948)
(-5.63119e-05 5.66697e-05 0.106175)
(-1.7082e-06 -1.53875e-06 0.108941)
(2.12286e-06 -1.47587e-06 0.108948)
(-2.12582e-06 -1.44134e-06 0.108943)
(5.64255e-05 5.68588e-05 0.106183)
(5.29838e-05 5.28249e-05 0.10596)
(-5.68137e-05 -5.64603e-05 0.106188)
(2.10279e-06 1.36118e-06 0.108953)
(-1.71778e-06 1.50358e-06 0.108945)
(2.29769e-06 1.70168e-06 0.108954)
(-1.96979e-06 1.72726e-06 0.108946)
(-5.31234e-05 5.29494e-05 0.105957)
(5.68649e-05 -5.64412e-05 0.106187)
(1.49625e-06 1.89407e-06 0.108956)
(1.56946e-06 -1.81661e-06 0.108929)
(1.42415e-06 2.34389e-06 0.108957)
(1.59117e-06 -2.11919e-06 0.10893)
(-1.78958e-06 -1.7503e-06 0.108947)
(-1.57305e-06 1.993e-06 0.108946)
(-1.81455e-06 -1.95858e-06 0.108949)
(5.28592e-05 -5.26319e-05 0.105951)
(-5.62357e-05 5.67728e-05 0.106176)
(-1.8988e-06 -1.30194e-06 0.108944)
(2.18905e-06 -1.29725e-06 0.108949)
(-2.20024e-06 -1.23194e-06 0.108946)
(5.62447e-05 5.69187e-05 0.106187)
(5.28205e-05 5.31535e-05 0.105963)
(-5.73366e-05 -5.66973e-05 0.10619)
(2.01335e-06 1.68196e-06 0.108954)
(-1.73319e-06 1.74203e-06 0.108947)
(2.20497e-06 1.7989e-06 0.108954)
(-1.88495e-06 1.85225e-06 0.108948)
(-5.27483e-05 5.31373e-05 0.105961)
(5.68477e-05 -5.63005e-05 0.10619)
(1.32135e-06 2.16402e-06 0.108958)
(1.5137e-06 -1.85479e-06 0.108931)
(1.27294e-06 2.50237e-06 0.108958)
(1.48027e-06 -2.18104e-06 0.108932)
(-1.7497e-06 -1.63017e-06 0.108949)
(-1.40753e-06 2.37482e-06 0.108949)
(-1.68273e-06 -1.84557e-06 0.10895)
(5.28346e-05 -5.24021e-05 0.105952)
(-5.62981e-05 5.67202e-05 0.106175)
(-1.91181e-06 -1.18062e-06 0.108946)
(2.26036e-06 -1.25606e-06 0.108948)
(-2.00892e-06 -1.19407e-06 0.108948)
(5.646e-05 5.69504e-05 0.106191)
(5.25003e-05 5.31033e-05 0.105964)
(-5.69406e-05 -5.65246e-05 0.106192)
(2.033e-06 1.70879e-06 0.108954)
(-1.52575e-06 1.82872e-06 0.108949)
(2.27026e-06 1.73928e-06 0.108954)
(-1.59838e-06 1.87139e-06 0.10895)
(-5.27818e-05 5.32444e-05 0.105964)
(5.70089e-05 -5.63713e-05 0.106193)
(1.17571e-06 2.30984e-06 0.108959)
(1.40607e-06 -1.96135e-06 0.108932)
(1.2808e-06 2.49417e-06 0.10896)
(1.35001e-06 -2.19499e-06 0.108933)
(-1.57914e-06 -1.58591e-06 0.108951)
(-1.27375e-06 2.39203e-06 0.108951)
(-1.46047e-06 -2.01648e-06 0.108952)
(5.26355e-05 -5.2349e-05 0.105951)
(-5.65269e-05 5.65309e-05 0.106174)
(-1.66463e-06 -1.17041e-06 0.108949)
(2.29814e-06 -1.37885e-06 0.108947)
(-1.83333e-06 -1.24826e-06 0.108951)
(5.66259e-05 5.68174e-05 0.106194)
(5.2774e-05 5.31374e-05 0.105966)
(-5.6632e-05 -5.65142e-05 0.106193)
(2.07487e-06 1.62379e-06 0.108955)
(-1.30201e-06 1.83265e-06 0.10895)
(2.44698e-06 1.58481e-06 0.108954)
(-1.51527e-06 1.74837e-06 0.108951)
(-5.24672e-05 5.3061e-05 0.105967)
(5.70839e-05 -5.66232e-05 0.106195)
(1.23298e-06 2.25907e-06 0.10896)
(1.25794e-06 -1.95299e-06 0.108933)
(1.49834e-06 2.4534e-06 0.108961)
(1.26703e-06 -2.45483e-06 0.108934)
(-1.3845e-06 -1.79003e-06 0.108953)
(-1.24288e-06 2.19438e-06 0.108953)
(-1.38243e-06 -2.25971e-06 0.108953)
(5.23209e-05 -5.25097e-05 0.105951)
(-5.64995e-05 5.6357e-05 0.106173)
(-1.54874e-06 -1.23626e-06 0.108951)
(2.29025e-06 -1.51528e-06 0.108945)
(-1.77256e-06 -1.35153e-06 0.108953)
(5.68112e-05 5.6627e-05 0.106196)
(5.29897e-05 5.30496e-05 0.105967)
(-5.66239e-05 -5.66743e-05 0.106192)
(2.15648e-06 1.45879e-06 0.108954)
(-1.2297e-06 1.62413e-06 0.108952)
(2.38321e-06 1.44657e-06 0.108954)
(-1.72502e-06 1.46622e-06 0.108952)
(-5.23216e-05 5.26521e-05 0.10597)
(5.69154e-05 -5.69229e-05 0.106197)
(1.41003e-06 2.09646e-06 0.108961)
(1.19236e-06 -2.26833e-06 0.108935)
(1.44777e-06 2.16267e-06 0.108961)
(1.17719e-06 -2.74528e-06 0.108935)
(-1.29814e-06 -2.06063e-06 0.108954)
(-1.3169e-06 2.00171e-06 0.108955)
(-1.36086e-06 -2.47104e-06 0.108954)
(5.23272e-05 -5.26431e-05 0.105949)
(-5.67015e-05 5.60532e-05 0.106171)
(-1.56726e-06 -1.37399e-06 0.108953)
(2.19046e-06 -1.78612e-06 0.108942)
(-1.87405e-06 -1.50879e-06 0.108954)
(5.67678e-05 5.65156e-05 0.106197)
(5.2857e-05 5.27388e-05 0.105967)
(-5.68183e-05 -5.69812e-05 0.106192)
(2.07427e-06 1.2998e-06 0.108954)
(-1.5672e-06 1.31921e-06 0.108953)
(2.05173e-06 1.35219e-06 0.108954)
(-2.15841e-06 1.25996e-06 0.108953)
(-5.25321e-05 5.23367e-05 0.105972)
(5.66093e-05 -5.69715e-05 0.106197)
(1.36785e-06 1.83417e-06 0.108961)
(1.07351e-06 -2.5355e-06 0.108936)
(1.43693e-06 2.05608e-06 0.108961)
(1.0682e-06 -2.8566e-06 0.108937)
(-1.40039e-06 -2.22145e-06 0.108955)
(-1.42118e-06 2.04829e-06 0.108956)
(-1.4581e-06 -2.5286e-06 0.108955)
(5.20155e-05 -5.28559e-05 0.105948)
(-5.67271e-05 5.59234e-05 0.10617)
(-1.56654e-06 -1.43567e-06 0.108955)
(1.92562e-06 -1.88612e-06 0.10894)
(-2.02088e-06 -1.4188e-06 0.108956)
(5.66329e-05 5.65428e-05 0.106198)
(5.25153e-05 5.23832e-05 0.105967)
(-5.73018e-05 -5.67997e-05 0.106192)
(1.72421e-06 1.28994e-06 0.108954)
(-1.97103e-06 1.12599e-06 0.108953)
(1.75756e-06 1.4037e-06 0.108953)
(-2.45649e-06 1.1478e-06 0.108953)
(-5.27184e-05 5.22169e-05 0.105972)
(5.65797e-05 -5.69966e-05 0.106196)
(1.26587e-06 1.781e-06 0.108961)
(9.92581e-07 -2.61033e-06 0.108937)
(1.14021e-06 2.0709e-06 0.108961)
(8.77544e-07 -2.79128e-06 0.108938)
(-1.46691e-06 -2.24353e-06 0.108955)
(-1.48667e-06 2.06806e-06 0.108957)
(-1.47829e-06 -2.30628e-06 0.108956)
(5.19213e-05 -5.29025e-05 0.105946)
(-5.68538e-05 5.58903e-05 0.106168)
(-1.77962e-06 -1.35538e-06 0.108956)
(1.73799e-06 -1.90673e-06 0.108938)
(-2.14614e-06 -1.45199e-06 0.108957)
(5.65613e-05 5.67471e-05 0.106199)
(5.19733e-05 5.25204e-05 0.105967)
(-5.74867e-05 -5.65418e-05 0.106191)
(1.47577e-06 1.35209e-06 0.108953)
(-2.23553e-06 1.057e-06 0.108953)
(1.65523e-06 1.5497e-06 0.108952)
(-2.66799e-06 1.19903e-06 0.108953)
(-5.27845e-05 5.22722e-05 0.105971)
(5.63628e-05 -5.6798e-05 0.106195)
(9.85207e-07 1.86689e-06 0.108961)
(7.89469e-07 -2.47767e-06 0.108938)
(9.4339e-07 2.33872e-06 0.10896)
(8.2903e-07 -2.52288e-06 0.108939)
(-1.48611e-06 -1.94615e-06 0.108956)
(-1.58782e-06 2.4153e-06 0.108956)
(-1.68492e-06 -1.99827e-06 0.108956)
(5.18237e-05 -5.28663e-05 0.105945)
(-5.69923e-05 5.60645e-05 0.106167)
(-1.90673e-06 -1.34772e-06 0.108957)
(1.5915e-06 -1.67236e-06 0.108936)
(-2.19251e-06 -1.28641e-06 0.108957)
(5.64442e-05 5.7107e-05 0.1062)
(5.1807e-05 5.27343e-05 0.105966)
(-5.76115e-05 -5.65457e-05 0.10619)
(1.41679e-06 1.57197e-06 0.108952)
(-2.46284e-06 1.18716e-06 0.108953)
(1.70969e-06 1.73395e-06 0.10895)
(-2.61934e-06 1.26253e-06 0.108952)
(-5.29172e-05 5.24518e-05 0.10597)
(5.64323e-05 -5.66923e-05 0.106194)
(8.49648e-07 2.14878e-06 0.10896)
(7.93776e-07 -2.1797e-06 0.108939)
(8.82832e-07 2.52143e-06 0.108959)
(7.34029e-07 -2.24357e-06 0.10894)
(-1.64331e-06 -1.65904e-06 0.108957)
(-1.48172e-06 2.59211e-06 0.108956)
(-1.70982e-06 -1.89024e-06 0.108957)
(5.16577e-05 -5.26703e-05 0.105943)
(-5.7104e-05 5.6369e-05 0.106166)
(-1.91907e-06 -1.21019e-06 0.108958)
(1.4201e-06 -1.60137e-06 0.108935)
(-2.26205e-06 -1.20963e-06 0.108959)
(5.64861e-05 5.70833e-05 0.106202)
(5.16747e-05 5.264e-05 0.105965)
(-5.72195e-05 -5.66637e-05 0.106189)
(1.5343e-06 1.66947e-06 0.108949)
(-2.3122e-06 1.25539e-06 0.108952)