/*--------------------------------*- C++ -*----------------------------------*\
| =========                 |                                                 |
| \\      /  F ield         | OpenFOAM: The Open Source CFD Toolbox           |
|  \\    /   O peration     | Version:  v2012                                 |
|   \\  /    A nd           | Website:  www.openfoam.com                      |
|    \\/     M anipulation  |                                                 |
\*---------------------------------------------------------------------------*/
FoamFile
{
    version     2.0;
    format      ascii;
    class       volScalarField;
    location    "100";
    object      nut;
}
// * * * * * * * * * * * * * * * * * * * * * * * * * * * * * * * * * * * * * //

dimensions      [0 2 -1 0 0 0 0];


internalField   nonuniform List<scalar> 
85864
(
0.000233973
0.000233079
0.000233076
0.000233394
0.000232516
0.000227701
0.000227681
0.000223656
0.000230463
0.00022016
0.000220077
0.000208891
0.000227713
0.000211495
0.000211367
0.000193609
0.00022432
0.00020249
0.000202363
0.000179581
0.000220436
0.000193623
0.000193516
0.000167297
0.000216194
0.000185137
0.000185052
0.000156591
0.000211709
0.000177106
0.00017704
0.000147123
0.000207093
0.000169572
0.00016952
0.000138882
0.000202433
0.000162504
0.000162465
0.000131605
0.000197787
0.000155851
0.000155823
0.000125087
0.000193186
0.000149556
0.000149539
0.000118855
0.000188609
0.000143579
0.00014357
0.000113151
0.000184089
0.000137863
0.000137858
0.000107961
0.000179654
0.000132371
0.000132367
0.000103102
0.000175297
0.000127119
0.000127114
9.86544e-05
0.00017103
0.000122187
0.000122182
9.47658e-05
0.000166896
0.000117702
0.000117692
9.15671e-05
0.000162986
0.000113797
0.000113787
8.91644e-05
0.000159391
0.000110556
0.000110539
8.73598e-05
0.000156226
0.000107955
0.000107937
8.60466e-05
0.000153589
0.000105915
0.000105889
8.50241e-05
0.000151568
0.000104393
0.000104354
8.443e-05
0.000150207
0.000103388
0.000103364
8.40136e-05
0.000149416
0.000102748
0.000102731
8.36206e-05
0.000149034
0.000102383
0.000102343
8.32323e-05
0.000148858
0.000102247
0.000102164
8.32774e-05
0.000148725
0.000102202
0.000102135
8.32948e-05
0.00014862
0.000102172
0.000102115
8.32691e-05
0.000148626
0.000102145
0.000102108
8.32473e-05
0.000148653
0.000102151
0.000102096
8.3239e-05
0.000148659
0.000102168
0.000102115
8.33292e-05
0.000148648
0.000102178
0.000102126
8.34006e-05
0.000148643
0.000102186
0.000102138
8.35003e-05
0.000148635
0.000102195
0.000102135
8.3492e-05
0.000148616
0.000102195
0.000102143
8.35007e-05
0.000148607
0.000102192
0.000102144
8.35974e-05
0.0001486
0.000102194
0.000102175
8.3606e-05
0.000148607
0.000102208
0.000102179
8.31764e-05
0.000148598
0.000102221
0.000102187
8.33117e-05
0.000148604
0.000102228
0.000102202
8.3265e-05
0.000148605
0.000102231
0.000102206
8.34264e-05
0.000148602
0.000102229
0.000102213
8.32637e-05
0.000148599
0.000102225
0.00010221
8.35025e-05
0.000148605
0.000102225
0.000102204
8.34939e-05
0.000148607
0.000102223
0.000102202
8.35254e-05
0.000148603
0.000102221
0.000102213
8.35938e-05
0.000234256
0.000234456
0.000234459
0.00023427
0.000234462
0.000234457
0.000234275
0.000234275
0.000234275
0.000234276
0.000234459
0.000234471
0.000234258
0.000234459
0.000234456
0.000234263
0.000233404
0.000226044
0.000233082
0.000233075
0.000229262
0.00022927
0.000233401
0.000226078
0.000233074
0.000233075
0.000229194
0.000229264
0.000233071
0.000229277
0.000229113
0.000233402
0.000226056
0.000233077
0.000229269
0.000229261
0.000226015
0.000223679
0.000211968
0.000227668
0.000227693
0.000222074
0.000222163
0.000223713
0.000212001
0.000227599
0.000227686
0.000222059
0.000222176
0.000227567
0.000222191
0.000222151
0.000223696
0.000212009
0.000227685
0.000222124
0.000222188
0.000212025
0.000208832
0.000196812
0.000220018
0.000220128
0.000213537
0.000213688
0.000208862
0.000196886
0.000220034
0.000220146
0.000213593
0.000213692
0.000220136
0.000213717
0.000213679
0.000208872
0.000196844
0.000220163
0.000213595
0.000213719
0.000196883
0.000193549
0.000182697
0.000211315
0.000211468
0.000204586
0.000204718
0.000193645
0.000182794
0.000211359
0.000211466
0.000204571
0.000204698
0.000211443
0.00020474
0.000204671
0.00019359
0.000182715
0.000211494
0.00020461
0.000204733
0.000182762
0.000179524
0.000170172
0.000202347
0.000202467
0.000195692
0.000195782
0.000179606
0.000170247
0.000202322
0.000202442
0.000195674
0.000195744
0.000202421
0.000195808
0.000195753
0.000179552
0.000170161
0.000202481
0.000195694
0.000195799
0.000170182
0.000167207
0.000159172
0.000193515
0.000193596
0.000187121
0.000187182
0.000167253
0.000159233
0.000193505
0.000193554
0.000187134
0.000187134
0.000193571
0.000187214
0.000187163
0.000167207
0.000159177
0.000193614
0.000187124
0.000187206
0.000159153
0.000156498
0.000149575
0.000185048
0.000185103
0.00017898
0.000179025
0.000156552
0.000149647
0.000185066
0.000185054
0.000179007
0.000178978
0.000185084
0.000179062
0.000178999
0.000156542
0.000149503
0.000185129
0.000178992
0.000179055
0.000149622
0.000147152
0.000141104
0.000177026
0.000177068
0.000171328
0.00017136
0.000147163
0.000141165
0.000177055
0.000177023
0.000171355
0.000171321
0.000177039
0.000171404
0.000171328
0.000147246
0.000141104
0.000177099
0.000171348
0.000171396
0.000141142
0.000138988
0.000133608
0.0001695
0.00016953
0.000164158
0.000164176
0.000138901
0.000133596
0.000169527
0.000169492
0.000164181
0.000164142
0.000169496
0.000164223
0.000164144
0.00013902
0.000133591
0.000169566
0.000164179
0.000164215
0.000133619
0.000131625
0.000126732
0.000162445
0.000162458
0.000157415
0.000157416
0.000131607
0.0001268
0.000162467
0.000162427
0.000157436
0.000157392
0.00016243
0.000157469
0.000157395
0.000131711
0.000126697
0.000162499
0.000157438
0.000157459
0.00012668
0.000125094
0.000120535
0.000155802
0.000155802
0.000151042
0.000151033
0.000125007
0.000120553
0.000155824
0.000155779
0.000151064
0.000151018
0.000155782
0.000151087
0.00015102
0.000125097
0.000120466
0.000155844
0.000151068
0.000151077
0.000120527
0.000118873
0.000114573
0.000149516
0.000149507
0.000144992
0.000144978
0.000118947
0.000114583
0.00014954
0.000149493
0.000145018
0.000144971
0.000149495
0.000145032
0.000144971
0.000118967
0.000114518
0.00014955
0.00014502
0.000145022
0.000114561
0.000113148
0.000108881
0.000143546
0.000143532
0.000139219
0.000139204
0.000113168
0.000108876
0.000143573
0.000143526
0.000139248
0.0001392
0.000143524
0.000139254
0.000139199
0.00011316
0.000108867
0.000143575
0.000139248
0.000139247
0.000108862
0.000107952
0.000103738
0.000137837
0.000137821
0.000133677
0.000133658
0.000107969
0.000103743
0.000137865
0.000137818
0.000133705
0.000133658
0.000137815
0.000133709
0.000133658
0.00010796
0.00010374
0.000137861
0.000133706
0.000133702
0.000103728
0.000103113
9.93214e-05
0.000132348
0.000132331
0.000128357
0.000128339
0.000103112
9.93279e-05
0.000132376
0.000132331
0.000128384
0.000128339
0.000132329
0.000128393
0.000128343
0.000103101
9.93151e-05
0.000132372
0.000128389
0.000128384
9.93125e-05
9.86476e-05
9.54445e-05
0.000127093
0.000127079
0.00012333
0.000123315
9.86649e-05
9.55041e-05
0.00012712
0.000127078
0.000123357
0.000123312
0.00012708
0.000123371
0.000123321
9.86444e-05
9.54605e-05
0.000127119
0.000123364
0.000123357
9.54812e-05
9.48285e-05
9.22734e-05
0.000122158
0.000122147
0.000118701
0.000118691
9.47779e-05
9.22985e-05
0.000122184
0.000122145
0.00011873
0.000118688
0.00012215
0.000118748
0.0001187
9.47875e-05
9.22508e-05
0.000122189
0.000118737
0.000118732
9.22478e-05
9.15833e-05
8.97392e-05
0.00011767
0.000117664
0.00011466
0.000114655
9.15966e-05
8.97436e-05
0.000117697
0.000117654
0.000114686
0.000114641
0.000117667
0.000114704
0.00011466
9.15734e-05
8.9707e-05
0.0001177
0.000114691
0.000114694
8.97038e-05
8.91798e-05
8.78401e-05
0.000113766
0.000113765
0.000111274
0.000111269
8.91839e-05
8.77955e-05
0.000113796
0.000113757
0.000111297
0.000111249
0.000113769
0.000111308
0.000111279
8.91527e-05
8.78108e-05
0.000113799
0.000111296
0.000111308
8.78019e-05
8.74019e-05
8.64255e-05
0.000110542
0.00011054
0.000108544
0.000108528
8.73758e-05
8.63075e-05
0.000110564
0.000110525
0.000108563
0.000108503
0.000110541
0.000108564
0.000108544
8.73817e-05
8.63823e-05
0.000110576
0.000108554
0.000108584
8.63347e-05
8.60919e-05
8.53877e-05
0.000107954
0.000107936
0.000106358
0.000106333
8.6023e-05
8.53039e-05
0.000107971
0.000107907
0.000106383
0.00010631
0.000107946
0.000106398
0.000106355
8.59629e-05
8.52368e-05
0.000107991
0.00010637
0.000106399
8.52781e-05
8.50657e-05
8.46691e-05
0.000105892
0.000105872
0.000104703
0.000104678
8.50576e-05
8.45634e-05
0.000105906
0.000105851
0.00010472
0.00010465
0.000105891
0.000104753
0.000104701
8.49506e-05
8.45457e-05
0.000105934
0.000104712
0.000104732
8.46641e-05
8.44531e-05
8.42862e-05
0.000104368
0.000104347
0.000103576
0.000103543
8.44317e-05
8.41055e-05
0.000104388
0.000104324
0.000103592
0.000103516
0.000104378
0.000103627
0.000103571
8.43478e-05
8.40102e-05
0.000104401
0.000103577
0.000103598
8.42355e-05
8.40922e-05
8.34681e-05
0.000103393
0.000103346
0.000102839
0.000102816
8.40383e-05
8.38633e-05
0.000103401
0.00010332
0.000102837
0.000102795
0.000103381
0.000102891
0.000102848
8.39443e-05
8.36154e-05
0.000103394
0.000102877
0.000102837
8.37945e-05
8.33203e-05
8.32847e-05
0.000102729
0.000102711
0.000102393
0.000102418
8.37213e-05
8.33127e-05
0.000102733
0.00010269
0.00010242
0.000102342
0.000102726
0.000102466
0.000102426
8.3451e-05
8.32123e-05
0.000102725
0.000102435
0.000102406
8.33883e-05
8.31064e-05
8.33395e-05
0.000102326
0.000102362
0.000102204
0.00010221
8.34045e-05
8.35101e-05
0.000102347
0.000102285
0.000102223
0.000102121
0.000102378
0.00010226
0.000102226
8.31402e-05
8.3152e-05
0.000102367
0.000102186
0.000102235
8.33524e-05
8.31615e-05
8.33585e-05
0.000102199
0.000102193
0.000102167
0.000102167
8.34031e-05
8.34921e-05
0.000102214
0.000102114
0.000102151
0.000102085
0.000102215
0.000102214
0.000102161
8.30083e-05
8.32861e-05
0.000102221
0.000102147
0.000102173
8.33175e-05
8.31877e-05
8.34017e-05
0.000102157
0.000102155
0.000102115
0.000102125
8.33314e-05
8.34691e-05
0.000102156
0.000102091
0.000102149
0.000102083
0.000102155
0.000102186
0.000102118
8.3108e-05
8.3351e-05
0.000102167
0.000102132
0.000102144
8.34022e-05
8.32403e-05
8.34314e-05
0.000102131
0.000102163
0.000102121
0.000102142
8.33628e-05
8.34994e-05
0.000102174
0.000102088
0.000102163
0.000102074
0.00010213
0.000102157
0.000102116
8.31738e-05
8.33498e-05
0.000102143
0.000102124
0.000102123
8.33359e-05
8.3317e-05
8.34372e-05
0.000102142
0.000102148
0.000102123
0.000102125
8.34144e-05
8.34932e-05
0.000102188
0.000102093
0.000102178
0.00010207
0.000102126
0.000102163
0.00010211
8.31966e-05
8.3338e-05
0.00010215
0.000102116
0.000102125
8.32515e-05
8.32823e-05
8.34149e-05
0.000102146
0.000102152
0.00010212
0.000102126
8.33861e-05
8.34032e-05
0.000102191
0.000102097
0.000102161
0.000102069
0.000102147
0.00010218
0.000102126
8.32479e-05
8.3221e-05
0.000102159
0.000102126
0.000102145
8.33886e-05
8.3325e-05
8.33642e-05
0.000102137
0.000102155
0.000102127
0.000102144
8.33908e-05
8.3579e-05
0.000102182
0.000102084
0.000102166
0.000102053
0.000102141
0.000102193
0.000102135
8.32022e-05
8.33466e-05
0.000102161
0.000102134
0.00010214
8.34176e-05
8.3286e-05
8.34244e-05
0.000102147
0.000102163
0.000102129
0.000102147
8.34732e-05
8.35991e-05
0.000102175
0.000102084
0.000102161
0.000102057
0.000102156
0.000102201
0.00010214
8.32159e-05
8.33626e-05
0.000102175
0.000102142
0.000102161
8.3585e-05
8.33503e-05
8.34635e-05
0.000102151
0.000102172
0.000102138
0.00010216
8.35036e-05
8.36365e-05
0.000102188
0.000102073
0.000102172
0.00010205
0.000102158
0.00010221
0.000102152
8.32953e-05
8.34502e-05
0.000102173
0.000102149
0.000102152
8.36084e-05
8.34105e-05
8.3575e-05
0.000102153
0.000102175
0.000102149
0.000102159
8.3561e-05
8.36518e-05
0.000102202
0.000102072
0.000102185
0.000102045
0.000102155
0.000102202
0.000102148
8.33566e-05
8.34219e-05
0.00010218
0.000102158
0.000102165
8.36431e-05
8.35102e-05
8.36034e-05
0.000102168
0.000102177
0.000102141
0.000102167
8.35906e-05
8.37228e-05
0.000102207
0.000102076
0.000102196
0.000102061
0.000102164
0.000102201
0.000102156
8.33583e-05
8.35305e-05
0.000102183
0.000102156
0.000102175
8.37226e-05
8.35168e-05
8.35919e-05
0.000102161
0.000102172
0.000102156
0.000102159
8.35932e-05
8.35798e-05
0.000102201
0.000102077
0.000102185
0.00010207
0.000102169
0.0001022
0.000102166
8.33959e-05
8.35745e-05
0.000102187
0.000102179
0.000102175
8.36607e-05
8.3541e-05
8.34941e-05
0.000102164
0.000102161
0.000102156
0.000102154
8.34831e-05
8.37356e-05
0.00010218
0.000102101
0.000102168
0.000102092
0.000102173
0.000102206
0.00010217
8.35235e-05
8.36891e-05
0.000102195
0.000102194
0.000102185
8.32925e-05
8.3359e-05
8.3695e-05
0.000102167
0.000102173
0.000102163
0.000102176
8.36185e-05
8.37699e-05
0.000102164
0.00010211
0.000102161
0.000102106
0.000102163
0.000102219
0.000102162
8.35266e-05
8.37074e-05
0.000102193
0.000102197
0.000102189
8.35893e-05
8.35357e-05
8.34138e-05
0.000102172
0.000102174
0.00010216
0.000102166
8.367e-05
8.36578e-05
0.000102157
0.000102116
0.000102157
0.00010211
0.00010215
0.00010223
0.000102146
8.36641e-05
8.37914e-05
0.000102195
0.000102207
0.000102183
8.33858e-05
8.34105e-05
8.34712e-05
0.000102172
0.000102172
0.000102171
0.000102167
8.35031e-05
8.36325e-05
0.00010218
0.00010212
0.00010217
0.000102112
0.000102153
0.000102229
0.000102142
8.36451e-05
8.37241e-05
0.000102183
0.000102209
0.000102192
8.35914e-05
8.3486e-05
8.36296e-05
0.000102171
0.000102174
0.000102162
0.000102169
8.36181e-05
8.359e-05
0.000102174
0.000102121
0.000102173
0.00010211
0.000102146
0.000102229
0.000102142
8.36745e-05
8.38028e-05
0.000102193
0.000102215
0.000102188
8.3393e-05
8.35642e-05
8.36474e-05
0.000102174
0.00010217
0.00010216
0.000102172
8.3515e-05
8.3757e-05
0.000102175
0.000102113
0.000102168
0.000102106
0.000102175
0.00010223
0.000102162
8.36913e-05
8.38136e-05
0.000102213
0.000102213
0.000102204
8.35768e-05
8.36258e-05
8.36847e-05
0.000102158
0.000102173
0.000102149
0.000102169
8.36169e-05
8.37405e-05
0.000102172
0.000102116
0.000102173
0.00010211
0.000102163
0.000102226
0.000102157
8.37815e-05
8.38029e-05
0.000102209
0.000102213
0.000102206
8.36566e-05
8.35818e-05
8.36547e-05
0.000102171
0.000102174
0.000102157
0.000102175
8.36058e-05
8.38327e-05
0.00010218
0.000102109
0.000102178
0.000102107
0.000102161
0.000102226
0.000102156
8.37422e-05
8.39069e-05
0.000102207
0.00010221
0.000102196
8.36092e-05
8.36321e-05
8.36535e-05
0.000102167
0.000102178
0.000102166
0.000102176
8.36937e-05
8.37031e-05
0.000102181
0.000102112
0.000102164
0.000102106
0.000102163
0.000102223
0.000102156
8.37058e-05
8.38574e-05
0.000102202
0.000102215
0.000102197
8.36395e-05
8.35925e-05
8.37383e-05
0.000102168
0.000102175
0.000102176
0.000102181
8.3584e-05
8.3586e-05
0.000102179
0.000102113
0.000102167
0.000102135
0.000102163
0.000102231
0.000102169
8.37513e-05
8.37535e-05
0.000102201
0.000102213
0.000102206
8.3666e-05
0.00023473
0.000234747
0.000234729
0.000234729
0.000235098
0.000234802
0.000234797
0.000234727
0.000235097
0.000234802
0.000234727
0.000234731
0.000234871
0.00023337
0.000233559
0.000104647
3.85704e-05
0.000128269
3.98179e-05
2.21111e-05
2.28887e-05
0.000104725
3.84697e-05
0.000128373
3.98044e-05
0.000233972
0.000233972
0.000233973
0.000232924
0.000232927
0.000232927
0.000232919
0.00020606
9.21895e-05
0.000233967
0.000231953
0.000222351
8.65245e-05
0.000233605
2.20898e-05
2.28843e-05
0.000206068
0.000233967
9.21665e-05
0.000231955
0.000222365
0.000233605
8.65045e-05
4.74818e-05
4.73648e-05
0.000231238
4.34083e-05
4.3555e-05
7.25736e-05
4.24304e-05
8.13028e-05
4.37699e-05
2.4812e-05
2.54891e-05
7.26128e-05
4.24318e-05
8.13534e-05
4.37757e-05
0.000232522
0.00023252
0.000232513
0.00023104
0.000231059
0.000231055
0.000231057
0.000167352
7.88147e-05
0.000232059
0.000225981
0.000180039
7.39657e-05
0.000231346
2.48124e-05
2.54903e-05
0.000167302
0.000232056
7.85056e-05
0.000225947
0.000180004
0.00023134
7.34701e-05
3.89014e-05
3.89254e-05
0.000219387
3.63916e-05
3.63953e-05
5.63541e-05
4.55563e-05
6.12169e-05
4.64333e-05
2.60238e-05
2.61226e-05
5.63498e-05
4.55573e-05
6.12189e-05
4.64277e-05
0.000230485
0.00023048
0.000230486
0.000228463
0.000228498
0.000228483
0.000228498
0.00013855
6.69335e-05
0.000228588
0.000218062
0.000147996
6.3131e-05
0.000227472
2.60235e-05
2.61221e-05
0.000138535
0.000228573
6.65393e-05
0.000217963
0.000147993
0.000227451
6.26584e-05
3.31939e-05
3.32019e-05
0.000204421
3.19808e-05
3.19959e-05
4.70213e-05
4.75135e-05
4.99849e-05
4.80226e-05
2.60432e-05
2.59396e-05
4.70474e-05
4.75038e-05
4.99956e-05
4.80138e-05
0.000227752
0.000227735
0.00022775
0.000225218
0.000225272
0.000225247
0.000225263
0.000117526
5.78846e-05
0.000223638
0.00020925
0.000124575
5.51553e-05
0.00022222
2.60497e-05
2.59386e-05
0.000117478
0.000223606
5.75863e-05
0.00020912
0.000124536
0.000222182
5.48971e-05
3.06602e-05
3.06873e-05
0.000189636
3.03822e-05
3.03646e-05
4.15002e-05
4.85896e-05
4.33064e-05
4.8849e-05
2.56726e-05
2.55195e-05
4.15083e-05
4.85817e-05
4.32732e-05
4.88437e-05
0.000224377
0.00022435
0.000224366
0.000221441
0.000221495
0.000221463
0.000221486
0.000102148
5.1643e-05
0.000217673
0.000200245
0.000107395
4.97777e-05
0.000216078
2.56701e-05
2.55174e-05
0.000102094
0.000217629
5.14601e-05
0.000200122
0.000107332
0.00021603
4.96493e-05
3.02848e-05
3.02901e-05
0.000176286
3.04349e-05
3.046e-05
3.82041e-05
4.90942e-05
3.92338e-05
4.91993e-05
2.52357e-05
2.50945e-05
3.81917e-05
4.90906e-05
3.92433e-05
4.91974e-05
0.000220486
0.000220453
0.000220478
0.000217276
0.000217315
0.000217279
0.000217309
9.05446e-05
4.75136e-05
0.000211166
0.000191458
9.45202e-05
4.63623e-05
0.000209496
2.52325e-05
2.50919e-05
9.04975e-05
0.000211118
4.74404e-05
0.000191356
9.44621e-05
0.000209445
4.62776e-05
3.11026e-05
3.11203e-05
0.000164476
3.15397e-05
3.15533e-05
3.63997e-05
4.92687e-05
3.69496e-05
4.92943e-05
2.48473e-05
2.47337e-05
3.64045e-05
4.92671e-05
3.69529e-05
4.92942e-05
0.000216229
0.000216193
0.000216223
0.000212839
0.00021287
0.000212833
0.00021286
8.16467e-05
4.5015e-05
0.000204476
0.00018308
8.47639e-05
4.43694e-05
0.000202799
2.48447e-05
2.47315e-05
8.16188e-05
0.000204429
4.49436e-05
0.000182999
8.47244e-05
0.000202752
4.43641e-05
3.26357e-05
3.26823e-05
0.000154228
3.32943e-05
3.32945e-05
3.56969e-05
4.92853e-05
3.5835e-05
4.92704e-05
2.45342e-05
2.44468e-05
3.5707e-05
4.92851e-05
3.58408e-05
4.92798e-05
0.00021174
0.000211703
0.000211728
0.000208243
0.000208275
0.000208238
0.000208256
7.47107e-05
4.36071e-05
0.000197837
0.00017517
7.7214e-05
4.34349e-05
0.000196197
2.45328e-05
2.44462e-05
7.47028e-05
0.0001978
4.36075e-05
0.000175108
7.71982e-05
0.000196158
4.33071e-05
3.46728e-05
3.47138e-05
0.000145233
3.54203e-05
3.54312e-05
3.57916e-05
4.92512e-05
3.56627e-05
4.92426e-05
2.42937e-05
2.42302e-05
3.58369e-05
4.92433e-05
3.56459e-05
4.92408e-05
0.000207125
0.000207088
0.000207106
0.000203584
0.000203612
0.000203578
0.000203592
6.92725e-05
4.30729e-05
0.000191387
0.000167756
7.12725e-05
4.31744e-05
0.000189797
2.42934e-05
2.42303e-05
6.92738e-05
0.000191359
4.31382e-05
0.000167708
7.12762e-05
0.000189768
4.30532e-05
3.70167e-05
3.70237e-05
0.000137267
3.78088e-05
3.78061e-05
3.66113e-05
4.92197e-05
3.62155e-05
4.92176e-05
2.41139e-05
2.40664e-05
3.65784e-05
4.92175e-05
3.62131e-05
4.92153e-05
0.000202461
0.000202428
0.000202442
0.000198927
0.000198945
0.000198918
0.000198928
6.49159e-05
4.32245e-05
0.00018515
0.000160796
6.65597e-05
4.35152e-05
0.000183616
2.41147e-05
2.40648e-05
6.49243e-05
0.000185133
4.32683e-05
0.000160759
6.65652e-05
0.000183598
4.34794e-05
3.9482e-05
3.94968e-05
0.000130043
4.03344e-05
4.03084e-05
3.80237e-05
4.92173e-05
3.74288e-05
4.9222e-05
2.39895e-05
2.39507e-05
3.8023e-05
4.92156e-05
3.74551e-05
4.92205e-05
0.000197804
0.00019778
0.000197789
0.000194309
0.000194313
0.000194297
0.000194301
6.15345e-05
4.39856e-05
0.000179172
0.000154235
6.2794e-05
4.42759e-05
0.000177706
2.39889e-05
2.3949e-05
6.15335e-05
0.000179165
4.39643e-05
0.00015421
6.27937e-05
0.000177697
4.43814e-05
4.20218e-05
4.20097e-05
0.000123511
4.2846e-05
4.28533e-05
4.00056e-05
4.92404e-05
3.92247e-05
4.92464e-05
2.38988e-05
2.38693e-05
3.99978e-05
4.92387e-05
3.92226e-05
4.92445e-05
0.000193192
0.000193178
0.000193182
0.00018973
0.000189723
0.000189716
0.000189714
5.90449e-05
4.51083e-05
0.000173475
0.00014802
5.98455e-05
4.55982e-05
0.000172071
2.38944e-05
2.3874e-05
5.90295e-05
0.000173477
4.50752e-05
0.000148005
5.98735e-05
0.00017207
4.56358e-05
4.45109e-05
4.45009e-05
0.000117497
4.53307e-05
4.53032e-05
4.24925e-05
4.92754e-05
4.1571e-05
4.92859e-05
2.3832e-05
2.38196e-05
4.24764e-05
4.92644e-05
4.15699e-05
4.929e-05
0.000188605
0.0001886
0.000188598
0.000185185
0.000185171
0.000185168
0.000185163
5.72244e-05
4.66595e-05
0.000168029
0.000142112
5.76848e-05
4.71732e-05
0.000166681
2.38259e-05
2.38173e-05
5.71255e-05
0.000168036
4.65926e-05
0.000142104
5.77011e-05
0.000166684
4.71865e-05
4.68759e-05
4.68908e-05
0.000111643
4.76672e-05
4.76572e-05
4.54376e-05
4.93149e-05
4.43685e-05
4.9333e-05
2.37827e-05
2.37798e-05
4.53912e-05
4.93067e-05
4.43948e-05
4.93315e-05
0.000184081
0.00018408
0.000184076
0.000180727
0.000180709
0.000180709
0.000180704
5.60737e-05
4.84189e-05
0.0001628
0.000136456
5.62769e-05
4.91474e-05
0.000161498
2.37803e-05
2.37777e-05
5.59742e-05
0.000162809
4.84788e-05
0.000136452
5.63569e-05
0.000161502
4.91437e-05
4.91435e-05
4.91347e-05
0.000106214
4.98725e-05
4.98791e-05
4.87073e-05
4.93494e-05
4.75546e-05
4.93674e-05
2.37512e-05
2.37509e-05
4.86787e-05
4.93469e-05
4.75812e-05
4.9362e-05
0.000179646
0.000179645
0.000179643
0.000176347
0.00017633
0.000176328
0.000176325
5.55957e-05
5.05061e-05
0.000157763
0.00013102
5.56434e-05
5.12673e-05
0.000156503
2.37489e-05
2.37486e-05
5.564e-05
0.000157772
5.04738e-05
0.000131015
5.56514e-05
0.000156507
5.12248e-05
5.12192e-05
5.1231e-05
0.000101454
5.18528e-05
5.18448e-05
5.20203e-05
4.93782e-05
5.09338e-05
4.93912e-05
2.37259e-05
2.37259e-05
5.20788e-05
4.93754e-05
5.08987e-05
4.93894e-05
0.000175294
0.000175291
0.000175291
0.000172052
0.000172036
0.000172032
0.000172031
5.60454e-05
5.26509e-05
0.000152915
0.000125841
5.5779e-05
5.3403e-05
0.000151704
2.37241e-05
2.37239e-05
5.60499e-05
0.000152922
5.26906e-05
0.000125833
5.57784e-05
0.000151706
5.33882e-05
5.298e-05
5.29813e-05
9.73245e-05
5.34775e-05
5.34797e-05
5.49804e-05
4.9397e-05
5.39883e-05
4.9395e-05
2.36959e-05
2.36943e-05
5.50247e-05
4.93923e-05
5.40222e-05
4.93943e-05
0.000171033
0.000171028
0.00017103
0.000167874
0.000167859
0.000167853
0.000167854
5.71376e-05
5.47642e-05
0.000148291
0.000121006
5.66684e-05
5.54292e-05
0.000147129
2.36934e-05
2.36919e-05
5.70725e-05
0.000148294
5.47735e-05
0.000120994
5.6675e-05
0.00014713
5.53573e-05
5.43678e-05
5.43633e-05
9.37752e-05
5.48037e-05
5.47924e-05
5.72644e-05
4.93885e-05
5.64744e-05
4.93824e-05
2.36605e-05
2.36575e-05
5.728e-05
4.93865e-05
5.65234e-05
4.93821e-05
0.000166905
0.000166897
0.000166901
0.000163899
0.000163885
0.000163876
0.00016388
5.83364e-05
5.65802e-05
0.000143888
0.000116655
5.79261e-05
5.70557e-05
0.000142799
2.36579e-05
2.36552e-05
5.82808e-05
0.000143892
5.65658e-05
0.00011664
5.79021e-05
0.000142797
5.70513e-05
5.54822e-05
5.54834e-05
9.08743e-05
5.58098e-05
5.58187e-05
5.89295e-05
4.93676e-05
5.83584e-05
4.9353e-05
2.3623e-05
2.36192e-05
5.89898e-05
4.93666e-05
5.83638e-05
4.93576e-05
0.000163
0.00016299
0.000162996
0.000160218
0.000160201
0.00016019
0.000160197
5.95142e-05
5.80481e-05
0.000139825
0.00011293
5.90681e-05
5.849e-05
0.000138847
2.36207e-05
2.36179e-05
5.92947e-05
0.000139822
5.80364e-05
0.000112914
5.90191e-05
0.00013884
5.84783e-05
5.63537e-05
5.63566e-05
8.86992e-05
5.66845e-05
5.66859e-05
6.02981e-05
4.93327e-05
5.97557e-05
4.9325e-05
2.3593e-05
2.35841e-05
6.01396e-05
4.93378e-05
5.97071e-05
4.9328e-05
0.000159411
0.000159398
0.000159406
0.000156931
0.00015691
0.000156896
0.000156907
6.02222e-05
5.91483e-05
0.000136204
0.000109863
5.99766e-05
5.9601e-05
0.000135357
2.35884e-05
2.35796e-05
6.02302e-05
0.000136207
5.92829e-05
0.000109854
5.97993e-05
0.000135355
5.96191e-05
5.70319e-05
5.70628e-05
8.70313e-05
5.72768e-05
5.72943e-05
6.14277e-05
4.93068e-05
6.09398e-05
4.93003e-05
2.35685e-05
2.35639e-05
6.14274e-05
4.93073e-05
6.08276e-05
4.93059e-05
0.000156244
0.00015623
0.00015624
0.000154147
0.000154112
0.000154097
0.000154106
6.0975e-05
6.01688e-05
0.000133102
0.000107421
6.0586e-05
6.05586e-05
0.000132402
2.35615e-05
2.35566e-05
6.08439e-05
0.000133112
6.02597e-05
0.000107405
6.04637e-05
0.000132407
6.0708e-05
5.76069e-05
5.76565e-05
8.57933e-05
5.7777e-05
5.78623e-05
6.26649e-05
4.92935e-05
6.20443e-05
4.92935e-05
2.35548e-05
2.35537e-05
6.28472e-05
4.92992e-05
6.21435e-05
4.92985e-05
0.000153597
0.000153582
0.000153589
0.000151958
0.000151904
0.000151887
0.000151889
6.18564e-05
6.11153e-05
0.000130572
0.000105517
6.1464e-05
6.14663e-05
0.000130019
2.35481e-05
2.35468e-05
6.1742e-05
0.000130589
6.12259e-05
0.000105489
6.14211e-05
0.000130031
6.14554e-05
5.80746e-05
5.81745e-05
8.49347e-05
5.82394e-05
5.83503e-05
6.38257e-05
4.92992e-05
6.32908e-05
4.93005e-05
2.35492e-05
2.35492e-05
6.40879e-05
4.9297e-05
6.37055e-05
4.92957e-05
0.00015155
0.000151532
0.000151532
0.000150423
0.000150337
0.000150319
0.000150314
6.31102e-05
6.21478e-05
0.000128633
0.000104154
6.2305e-05
6.23832e-05
0.000128238
2.35442e-05
2.35459e-05
6.29768e-05
0.000128639
6.20673e-05
0.000104098
6.20931e-05
0.000128235
6.24465e-05
5.85959e-05
5.86467e-05
8.43291e-05
5.87828e-05
5.88497e-05
6.38443e-05
4.92947e-05
6.41836e-05
4.92926e-05
2.35459e-05
2.35465e-05
6.41672e-05
4.92945e-05
6.43341e-05
4.92912e-05
0.00015014
0.000150122
0.000150116
0.000149495
0.000149382
0.000149365
0.000149353
6.35549e-05
6.28776e-05
0.000127308
0.000103254
6.35342e-05
6.29638e-05
0.00012706
2.35428e-05
2.35428e-05
6.37995e-05
0.000127294
6.26866e-05
0.000103203
6.3288e-05
0.000127037
6.28681e-05
5.89813e-05
5.89616e-05
8.39399e-05
5.89331e-05
5.90046e-05
6.40752e-05
4.92882e-05
6.398e-05
4.92843e-05
2.35416e-05
2.35409e-05
6.37898e-05
4.92842e-05
6.41876e-05
4.92836e-05
0.000149311
0.00014929
0.000149278
0.000149022
0.000148913
0.000148888
0.000148872
6.34792e-05
6.27733e-05
0.000126516
0.000102656
6.37598e-05
6.29395e-05
0.000126377
2.35395e-05
2.35397e-05
6.33956e-05
0.000126489
6.28018e-05
0.000102626
6.35899e-05
0.000126346
6.26353e-05
5.90589e-05
5.90352e-05
8.36424e-05
5.91033e-05
5.90993e-05
6.3937e-05
4.92809e-05
6.37718e-05
4.92803e-05
2.35351e-05
2.35344e-05
6.38746e-05
4.92791e-05
6.37969e-05
4.92782e-05
0.000148898
0.000148867
0.000148863
0.000148825
0.000148726
0.000148691
0.00014869
6.41769e-05
6.30024e-05
0.00012611
0.000102347
6.38895e-05
6.29273e-05
0.000126045
2.35361e-05
2.35361e-05
6.35639e-05
0.000126086
6.29531e-05
0.000102269
6.35151e-05
0.000126019
6.29119e-05
5.90909e-05
5.90945e-05
8.34217e-05
5.91561e-05
5.90869e-05
6.41457e-05
4.92779e-05
6.40373e-05
4.92775e-05
2.35334e-05
2.35352e-05
6.39846e-05
4.92779e-05
6.38885e-05
4.92791e-05
0.00014874
0.00014869
0.000148701
0.000148707
0.000148681
0.000148636
0.000148649
6.3673e-05
6.33278e-05
0.000125929
0.000102249
6.39066e-05
6.33052e-05
0.000125882
2.35347e-05
2.35366e-05
6.4211e-05
0.000125905
6.32053e-05
0.000102153
6.40932e-05
0.000125855
6.31782e-05
5.9105e-05
5.90965e-05
8.34784e-05
5.8976e-05
5.9082e-05
6.43635e-05
4.92761e-05
6.41722e-05
4.92739e-05
2.35348e-05
2.35373e-05
6.40242e-05
4.92783e-05
6.38772e-05
4.92775e-05
0.000148633
0.000148592
0.000148601
0.000148616
0.000148608
0.000148579
0.000148573
6.34097e-05
6.32475e-05
0.000125816
0.00010221
6.33765e-05
6.325e-05
0.000125799
2.35365e-05
2.35388e-05
6.36393e-05
0.000125794
6.31304e-05
0.000102133
6.36182e-05
0.000125776
6.30824e-05
5.89757e-05
5.9099e-05
8.34226e-05
5.906e-05
5.90473e-05
6.43323e-05
4.9277e-05
6.42086e-05
4.92798e-05
2.3538e-05
2.354e-05
6.39917e-05
4.92791e-05
6.40516e-05
4.92788e-05
0.000148575
0.000148531
0.000148539
0.000148612
0.000148581
0.000148563
0.000148562
6.37379e-05
6.3108e-05
0.000125791
0.000102195
6.35632e-05
6.31333e-05
0.000125789
2.35383e-05
2.35401e-05
6.35394e-05
0.000125777
6.31327e-05
0.000102115
6.33463e-05
0.000125774
6.29967e-05
5.90593e-05
5.91247e-05
8.33999e-05
5.90811e-05
5.91327e-05
6.42345e-05
4.92793e-05
6.42721e-05
4.92794e-05
2.35392e-05
2.35405e-05
6.39974e-05
4.92758e-05
6.4034e-05
4.92857e-05
0.000148594
0.00014857
0.000148577
0.00014864
0.000148616
0.000148598
0.000148596
6.406e-05
6.31038e-05
0.000125797
0.000102185
6.40475e-05
6.31445e-05
0.000125797
2.35388e-05
2.35406e-05
6.45619e-05
0.00012579
6.32186e-05
0.000102126
6.40364e-05
0.000125789
6.30476e-05
5.91424e-05
5.91328e-05
8.33175e-05
5.91323e-05
5.90833e-05
6.44554e-05
4.9282e-05
6.43794e-05
4.92835e-05
2.35408e-05
2.35432e-05
6.42136e-05
4.92863e-05
6.42171e-05
4.92856e-05
0.000148615
0.000148601
0.000148599
0.000148643
0.000148632
0.000148603
0.000148609
6.47678e-05
6.32815e-05
0.000125812
0.000102177
6.46676e-05
6.3397e-05
0.000125811
2.35405e-05
2.35428e-05
6.4773e-05
0.000125801
6.32842e-05
0.000102124
6.47558e-05
0.000125803
6.31823e-05
5.91858e-05
5.91596e-05
8.33445e-05
5.92099e-05
5.91682e-05
6.41892e-05
4.92906e-05
6.44418e-05
4.92926e-05
2.35435e-05
2.35456e-05
6.43619e-05
4.92924e-05
6.41889e-05
4.92957e-05
0.000148619
0.000148592
0.000148595
0.000148644
0.000148617
0.000148599
0.000148594
6.48234e-05
6.34208e-05
0.000125829
0.000102188
6.4824e-05
6.3524e-05
0.00012583
2.3542e-05
2.35437e-05
6.47976e-05
0.000125808
6.34049e-05
0.00010212
6.47815e-05
0.000125806
6.33969e-05
5.92534e-05
5.91138e-05
8.34811e-05
5.9208e-05
5.90962e-05
6.45891e-05
4.92982e-05
6.43564e-05
4.92993e-05
2.35443e-05
2.3545e-05
6.43857e-05
4.92968e-05
6.44647e-05
4.92961e-05
0.000148622
0.000148577
0.000148591
0.000148626
0.000148626
0.000148576
0.000148595
6.47489e-05
6.36061e-05
0.000125838
0.000102195
6.47759e-05
6.37123e-05
0.000125839
2.35436e-05
2.3546e-05
6.481e-05
0.000125814
6.34671e-05