/*--------------------------------*- C++ -*----------------------------------*\
| =========                 |                                                 |
| \\      /  F ield         | OpenFOAM: The Open Source CFD Toolbox           |
|  \\    /   O peration     | Version:  v2012                                 |
|   \\  /    A nd           | Website:  www.openfoam.com                      |
|    \\/     M anipulation  |                                                 |
\*---------------------------------------------------------------------------*/
FoamFile
{
    version     2.0;
    format      ascii;
    class       volScalarField;
    location    "100";
    object      p;
}
// * * * * * * * * * * * * * * * * * * * * * * * * * * * * * * * * * * * * * //

dimensions      [0 2 -2 0 0 0 0];


internalField   nonuniform List<scalar> 
85864
(
0.00355128
0.00355111
0.00355112
0.00355392
0.00349769
0.00349783
0.00349783
0.00350004
0.00344643
0.00344646
0.00344647
0.00344877
0.00339452
0.00339448
0.00339448
0.00339676
0.00334344
0.00334339
0.00334339
0.00334563
0.00329374
0.00329369
0.00329369
0.00329589
0.00324546
0.00324543
0.00324543
0.00324758
0.00319847
0.00319846
0.00319846
0.00320058
0.00315258
0.00315258
0.00315258
0.00315467
0.00310759
0.00310759
0.00310759
0.00310966
0.00306331
0.00306332
0.00306332
0.00306536
0.00301964
0.00301965
0.00301965
0.00302167
0.00297647
0.00297649
0.00297649
0.00297848
0.00293378
0.00293379
0.00293379
0.00293576
0.0028915
0.00289151
0.00289151
0.00289347
0.0028496
0.0028496
0.00284961
0.00285155
0.00280806
0.00280806
0.00280806
0.00280999
0.00276694
0.00276694
0.00276694
0.00276884
0.00272639
0.00272636
0.00272636
0.00272823
0.00268661
0.00268656
0.00268656
0.00268839
0.00264775
0.0026477
0.00264769
0.00264947
0.00260981
0.00260976
0.00260976
0.0026115
0.00257259
0.00257255
0.00257255
0.00257426
0.00253584
0.0025358
0.0025358
0.00253749
0.00249947
0.00249943
0.00249942
0.00250109
0.00246341
0.00246337
0.00246337
0.00246503
0.00242754
0.00242751
0.00242751
0.00242916
0.00239179
0.00239175
0.00239175
0.0023934
0.00235608
0.00235604
0.00235603
0.00235768
0.00232038
0.00232033
0.00232034
0.00232198
0.00228468
0.00228463
0.00228464
0.00228628
0.00224897
0.00224894
0.00224893
0.00225058
0.00221327
0.00221323
0.00221322
0.00221487
0.00217755
0.00217751
0.00217751
0.00217915
0.00214182
0.00214178
0.00214178
0.00214343
0.00210608
0.00210604
0.00210603
0.00210768
0.00207033
0.00207029
0.00207029
0.00207194
0.00203459
0.00203455
0.00203456
0.0020362
0.00199886
0.00199882
0.00199882
0.00200046
0.0019631
0.00196306
0.00196307
0.00196471
0.00192734
0.0019273
0.0019273
0.00192894
0.00189158
0.00189154
0.00189154
0.00189318
0.00185582
0.00185578
0.00185578
0.00185742
0.00182007
0.00182003
0.00182003
0.00182168
0.00178431
0.00178428
0.00178428
0.00178593
0.00174857
0.00174853
0.00174854
0.00175018
0.00171283
0.00171279
0.00171279
0.00171444
0.00356468
0.00356485
0.00356485
0.00356467
0.00356486
0.00356487
0.00356557
0.00356557
0.00356558
0.00356558
0.00356485
0.00356486
0.00356469
0.00356487
0.00356486
0.00356469
0.00355392
0.00350773
0.00355111
0.0035511
0.00351021
0.00351021
0.00355391
0.00350772
0.00355111
0.00355112
0.00351021
0.00351021
0.0035511
0.00351021
0.00351022
0.00355393
0.00350773
0.00355112
0.00351021
0.00351021
0.00350772
0.00350004
0.0034568
0.00349783
0.00349783
0.00345947
0.00345947
0.00350004
0.0034568
0.00349783
0.00349783
0.00345947
0.00345947
0.00349783
0.00345947
0.00345947
0.00350004
0.0034568
0.00349783
0.00345947
0.00345947
0.0034568
0.00344877
0.00340475
0.00344647
0.00344647
0.00340743
0.00340743
0.00344877
0.00340475
0.00344647
0.00344647
0.00340743
0.00340743
0.00344647
0.00340743
0.00340743
0.00344877
0.00340475
0.00344647
0.00340743
0.00340743
0.00340476
0.00339676
0.00335343
0.00339448
0.00339448
0.00335604
0.00335604
0.00339676
0.00335343
0.00339448
0.00339448
0.00335604
0.00335604
0.00339448
0.00335604
0.00335604
0.00339676
0.00335343
0.00339448
0.00335604
0.00335604
0.00335343
0.00334563
0.00330347
0.00334339
0.00334339
0.00330598
0.00330598
0.00334563
0.00330347
0.00334339
0.00334339
0.00330598
0.00330598
0.00334339
0.00330598
0.00330598
0.00334563
0.00330347
0.00334339
0.00330598
0.00330598
0.00330347
0.00329589
0.00325495
0.00329369
0.00329369
0.00325736
0.00325736
0.00329589
0.00325495
0.00329369
0.00329369
0.00325736
0.00325736
0.00329369
0.00325736
0.00325736
0.00329589
0.00325495
0.00329369
0.00325736
0.00325736
0.00325495
0.00324758
0.00320776
0.00324543
0.00324543
0.00321009
0.00321009
0.00324758
0.00320776
0.00324543
0.00324543
0.00321009
0.00321009
0.00324543
0.00321009
0.00321009
0.00324758
0.00320776
0.00324543
0.00321009
0.00321009
0.00320776
0.00320058
0.0031617
0.00319845
0.00319845
0.00316395
0.00316395
0.00320058
0.0031617
0.00319845
0.00319846
0.00316396
0.00316396
0.00319846
0.00316395
0.00316396
0.00320058
0.0031617
0.00319846
0.00316396
0.00316396
0.0031617
0.00315467
0.00311657
0.00315257
0.00315257
0.00311876
0.00311876
0.00315467
0.00311656
0.00315258
0.00315258
0.00311876
0.00311876
0.00315258
0.00311876
0.00311876
0.00315467
0.00311657
0.00315258
0.00311876
0.00311876
0.00311656
0.00310966
0.00307218
0.00310759
0.00310758
0.00307433
0.00307433
0.00310965
0.00307217
0.00310759
0.00310759
0.00307433
0.00307433
0.00310759
0.00307433
0.00307433
0.00310966
0.00307218
0.00310759
0.00307433
0.00307433
0.00307217
0.00306536
0.0030284
0.00306332
0.00306332
0.00303051
0.00303051
0.00306536
0.0030284
0.00306332
0.00306332
0.00303051
0.00303051
0.00306332
0.00303051
0.00303051
0.00306536
0.0030284
0.00306332
0.00303052
0.00303051
0.0030284
0.00302167
0.00298514
0.00301965
0.00301965
0.00298723
0.00298723
0.00302167
0.00298513
0.00301965
0.00301965
0.00298723
0.00298723
0.00301965
0.00298723
0.00298723
0.00302167
0.00298513
0.00301965
0.00298723
0.00298723
0.00298513
0.00297848
0.00294235
0.00297648
0.00297649
0.00294442
0.00294442
0.00297848
0.00294235
0.00297649
0.00297648
0.00294442
0.00294442
0.00297649
0.00294442
0.00294442
0.00297848
0.00294235
0.00297649
0.00294442
0.00294442
0.00294235
0.00293576
0.00290001
0.00293379
0.00293379
0.00290204
0.00290204
0.00293577
0.00290001
0.00293379
0.00293379
0.00290204
0.00290204
0.00293379
0.00290204
0.00290204
0.00293576
0.00290001
0.00293379
0.00290204
0.00290204
0.00290001
0.00289347
0.00285806
0.00289151
0.00289151
0.00286005
0.00286005
0.00289347
0.00285806
0.00289151
0.00289151
0.00286005
0.00286005
0.00289151
0.00286005
0.00286005
0.00289347
0.00285806
0.00289151
0.00286005
0.00286005
0.00285806
0.00285155
0.00281646
0.00284961
0.0028496
0.00281841
0.00281841
0.00285155
0.00281646
0.00284961
0.00284961
0.00281841
0.00281841
0.00284961
0.00281841
0.00281841
0.00285155
0.00281646
0.00284961
0.00281841
0.00281841
0.00281646
0.00280999
0.00277525
0.00280806
0.00280806
0.00277717
0.00277717
0.00280999
0.00277525
0.00280806
0.00280806
0.00277717
0.00277717
0.00280806
0.00277717
0.00277717
0.00280999
0.00277525
0.00280806
0.00277717
0.00277717
0.00277525
0.00276884
0.00273456
0.00276694
0.00276694
0.00273645
0.00273644
0.00276884
0.00273456
0.00276694
0.00276694
0.00273645
0.00273645
0.00276694
0.00273644
0.00273644
0.00276884
0.00273456
0.00276694
0.00273644
0.00273644
0.00273456
0.00272824
0.0026946
0.00272637
0.00272636
0.00269643
0.00269643
0.00272823
0.00269459
0.00272637
0.00272637
0.00269644
0.00269643
0.00272636
0.00269643
0.00269643
0.00272823
0.00269459
0.00272637
0.00269643
0.00269643
0.00269458
0.00268839
0.00265554
0.00268657
0.00268656
0.00265732
0.00265732
0.00268839
0.00265554
0.00268657
0.00268656
0.00265732
0.00265731
0.00268656
0.00265732
0.00265732
0.00268839
0.00265552
0.00268656
0.00265731
0.00265732
0.00265553
0.00264948
0.00261743
0.0026477
0.0026477
0.00261916
0.00261916
0.00264947
0.00261742
0.0026477
0.00264769
0.00261916
0.00261916
0.0026477
0.00261916
0.00261916
0.00264947
0.00261742
0.0026477
0.00261916
0.00261916
0.00261742
0.00261151
0.0025801
0.00260976
0.00260976
0.00258179
0.00258179
0.0026115
0.0025801
0.00260976
0.00260976
0.00258179
0.0025818
0.00260976
0.00258179
0.00258179
0.0026115
0.00258009
0.00260976
0.00258179
0.00258179
0.00258009
0.00257427
0.00254326
0.00257255
0.00257255
0.00254494
0.00254495
0.00257426
0.00254327
0.00257255
0.00257255
0.00254494
0.00254495
0.00257255
0.00254494
0.00254494
0.00257426
0.00254328
0.00257255
0.00254495
0.00254495
0.00254327
0.00253749
0.0025068
0.0025358
0.0025358
0.00250847
0.00250848
0.0025375
0.00250681
0.0025358
0.0025358
0.00250848
0.00250848
0.0025358
0.00250847
0.00250848
0.0025375
0.00250681
0.0025358
0.00250847
0.00250848
0.00250681
0.00250109
0.00247069
0.00249942
0.00249943
0.00247235
0.00247235
0.00250109
0.0024707
0.00249943
0.00249943
0.00247235
0.00247235
0.00249943
0.00247235
0.00247236
0.00250109
0.0024707
0.00249943
0.00247235
0.00247236
0.0024707
0.00246502
0.0024348
0.00246337
0.00246337
0.00243645
0.00243645
0.00246503
0.00243481
0.00246337
0.00246337
0.00243645
0.00243646
0.00246338
0.00243645
0.00243645
0.00246503
0.00243481
0.00246338
0.00243646
0.00243646
0.00243481
0.00242916
0.00239904
0.00242751
0.00242751
0.00240067
0.00240068
0.00242916
0.00239904
0.00242751
0.00242752
0.00240067
0.00240068
0.00242752
0.00240067
0.00240068
0.00242916
0.00239903
0.00242752
0.00240067
0.00240068
0.00239903
0.0023934
0.00236332
0.00239176
0.00239176
0.00236496
0.00236496
0.00239341
0.00236332
0.00239175
0.00239175
0.00236495
0.00236495
0.00239176
0.00236495
0.00236496
0.0023934
0.00236331
0.00239175
0.00236495
0.00236495
0.00236332
0.00235769
0.00232762
0.00235604
0.00235604
0.00232925
0.00232925
0.00235768
0.00232761
0.00235604
0.00235604
0.00232925
0.00232925
0.00235604
0.00232924
0.00232925
0.00235768
0.00232762
0.00235604
0.00232925
0.00232925
0.00232761
0.00232199
0.00229192
0.00232034
0.00232033
0.00229355
0.00229355
0.00232198
0.00229191
0.00232034
0.00232034
0.00229355
0.00229356
0.00232034
0.00229354
0.00229355
0.00232199
0.00229193
0.00232034
0.00229355
0.00229355
0.00229192
0.00228628
0.00225621
0.00228464
0.00228463
0.00225784
0.00225785
0.00228628
0.00225622
0.00228464
0.00228464
0.00225784
0.00225785
0.00228464
0.00225785
0.00225785
0.00228629
0.00225621
0.00228464
0.00225784
0.00225785
0.00225622
0.00225057
0.00222051
0.00224893
0.00224894
0.00222214
0.00222214
0.00225059
0.00222051
0.00224893
0.00224893
0.00222214
0.00222214
0.00224894
0.00222214
0.00222214
0.00225057
0.0022205
0.00224894
0.00222213
0.00222214
0.00222051
0.00221488
0.0021848
0.00221323
0.00221323
0.00218643
0.00218643
0.00221488
0.0021848
0.00221323
0.00221323
0.00218643
0.00218643
0.00221323
0.00218642
0.00218643
0.00221487
0.00218479
0.00221323
0.00218642
0.00218642
0.00218479
0.00217916
0.00214907
0.00217751
0.00217751
0.0021507
0.0021507
0.00217916
0.00214907
0.00217751
0.00217751
0.0021507
0.0021507
0.00217751
0.0021507
0.0021507
0.00217916
0.00214906
0.0021775
0.0021507
0.0021507
0.00214907
0.00214343
0.00211333
0.00214178
0.00214178
0.00211496
0.00211496
0.00214343
0.00211333
0.00214178
0.00214178
0.00211496
0.00211496
0.00214178
0.00211496
0.00211497
0.00214343
0.00211332
0.00214178
0.00211495
0.00211496
0.00211333
0.00210769
0.00207758
0.00210604
0.00210604
0.00207922
0.00207922
0.00210769
0.00207758
0.00210604
0.00210604
0.00207922
0.00207922
0.00210604
0.00207921
0.00207921
0.00210768
0.00207758
0.00210604
0.00207921
0.00207922
0.00207758
0.00207194
0.00204184
0.00207029
0.0020703
0.00204347
0.00204348
0.00207194
0.00204184
0.00207029
0.0020703
0.00204348
0.00204348
0.00207029
0.00204347
0.00204348
0.00207194
0.00204185
0.00207029
0.00204348
0.00204348
0.00204184
0.00203621
0.00200611
0.00203456
0.00203455
0.00200774
0.00200774
0.0020362
0.00200611
0.00203456
0.00203456
0.00200774
0.00200775
0.00203456
0.00200774
0.00200774
0.00203621
0.00200611
0.00203456
0.00200774
0.00200774
0.0020061
0.00200047
0.00197036
0.00199882
0.00199882
0.00197199
0.001972
0.00200047
0.00197036
0.00199882
0.00199882
0.00197199
0.001972
0.00199882
0.00197199
0.00197199
0.00200047
0.00197036
0.00199882
0.00197199
0.00197199
0.00197035
0.00196472
0.00193459
0.00196307
0.00196307
0.00193623
0.00193623
0.00196471
0.00193459
0.00196307
0.00196307
0.00193623
0.00193623
0.00196307
0.00193622
0.00193623
0.00196472
0.0019346
0.00196307
0.00193623
0.00193623
0.00193459
0.00192895
0.00189883
0.0019273
0.0019273
0.00190047
0.00190047
0.00192895
0.00189883
0.0019273
0.0019273
0.00190046
0.00190047
0.0019273
0.00190046
0.00190046
0.00192895
0.00189883
0.0019273
0.00190046
0.00190046
0.00189882
0.00189319
0.00186307
0.00189154
0.00189154
0.00186471
0.00186471
0.00189318
0.00186307
0.00189154
0.00189154
0.00186471
0.00186471
0.00189154
0.0018647
0.0018647
0.00189319
0.00186307
0.00189154
0.0018647
0.0018647
0.00186306
0.00185743
0.00182732
0.00185578
0.00185578
0.00182895
0.00182895
0.00185743
0.00182732
0.00185578
0.00185578
0.00182895
0.00182896
0.00185578
0.00182895
0.00182895
0.00185743
0.00182732
0.00185578
0.00182895
0.00182896
0.00182732
0.00182168
0.00179156
0.00182003
0.00182003
0.0017932
0.00179321
0.00182167
0.00179157
0.00182003
0.00182003
0.0017932
0.00179321
0.00182003
0.0017932
0.00179321
0.00182168
0.00179157
0.00182004
0.0017932
0.00179321
0.00179158
0.00178592
0.00175582
0.00178428
0.00178428
0.00175746
0.00175746
0.00178593
0.00175582
0.00178428
0.00178428
0.00175746
0.00175746
0.00178429
0.00175746
0.00175747
0.00178593
0.00175583
0.00178429
0.00175746
0.00175746
0.00175583
0.00175018
0.00172009
0.00174854
0.00174854
0.00172172
0.00172172
0.00175018
0.00172008
0.00174854
0.00174854
0.00172172
0.00172172
0.00174854
0.00172171
0.00172171
0.00175018
0.00172008
0.00174854
0.00172171
0.00172172
0.00172008
0.00171444
0.00168433
0.0017128
0.00171279
0.00168597
0.00168596
0.00171444
0.00168433
0.0017128
0.0017128
0.00168597
0.00168597
0.00171279
0.00168596
0.00168596
0.00171444
0.00168433
0.00171279
0.00168596
0.00168596
0.00168433
0.0035738
0.00358376
0.00357837
0.00357838
0.00360084
0.00358775
0.0036162
0.00358167
0.00360084
0.00358776
0.00358168
0.00361618
0.00359225
0.00362028
0.00362025
0.00353266
0.00353312
0.00355118
0.00353088
0.00351136
0.00352976
0.00353266
0.00353303
0.00355116
0.00353087
0.00355127
0.00355128
0.00355128
0.00351009
0.00351009
0.00351009
0.00351008
0.00353138
0.00354825
0.00355135
0.00353562
0.00355354
0.00353228
0.00353625
0.00351153
0.00352981
0.00353139
0.00355137
0.00354825
0.00353563
0.00355354
0.00353626
0.00353228
0.0035449
0.00354488
0.00353242
0.00353259
0.00353261
0.00348306
0.00350093
0.00350194
0.00348216
0.00350029
0.00348169
0.00348306
0.00350092
0.00350194
0.00348215
0.00349769
0.00349769
0.00349768
0.00345941
0.00345941
0.00345941
0.00345941
0.00348215
0.00350142
0.00349776
0.00348521
0.0035007
0.00348262
0.00348515
0.0035003
0.00348168
0.00348216
0.00349776
0.00350141
0.00348521
0.00350071
0.00348515
0.00348263
0.00350168
0.00350169
0.00348259
0.00348275
0.00348275
0.00343079
0.00344939
0.00345024
0.00343002
0.0034491
0.00342978
0.00343079
0.00344939
0.00345024
0.00343002
0.00344643
0.00344643
0.00344643
0.00340745
0.00340745
0.00340745
0.00340745
0.00343028
0.00344977
0.00344643
0.00343344
0.00344948
0.00343045
0.00343342
0.0034491
0.00342978
0.00343028
0.00344644
0.00344977
0.00343344
0.00344948
0.00343342
0.00343045
0.00344985
0.00344985
0.00343076
0.00343039
0.00343039
0.00337868
0.00339717
0.00339786
0.00337807
0.003397
0.00337792
0.00337868
0.00339717
0.00339786
0.00337807
0.00339452
0.00339452
0.00339452
0.00335609
0.00335609
0.00335609
0.00335609
0.00337841
0.00339749
0.00339449
0.0033816
0.00339738
0.00337845
0.00338161
0.00339701
0.00337792
0.00337841
0.00339449
0.00339748
0.0033816
0.00339738
0.0033816
0.00337845
0.00339748
0.00339748
0.00337895
0.00337833
0.00337833
0.00332781
0.00334595
0.00334645
0.00332737
0.00334584
0.00332724
0.00332781
0.00334595
0.00334645
0.00332737
0.00334344
0.00334344
0.00334344
0.00330603
0.00330603
0.00330603
0.00330603
0.0033277
0.00334619
0.0033434
0.00333083
0.00334616
0.0033277
0.00333084
0.00334583
0.00332725
0.0033277
0.0033434
0.00334619
0.00333083
0.00334616
0.00333084
0.0033277
0.00334618
0.00334618
0.00332827
0.00332758
0.00332758
0.00327846
0.00329618
0.00329653
0.00327816
0.00329609
0.00327803
0.00327846
0.00329618
0.00329653
0.00327815
0.00329374
0.00329374
0.00329374
0.0032574
0.0032574
0.0032574
0.0032574
0.00327845
0.00329636
0.00329369
0.00328149
0.00329635
0.00327845
0.00328149
0.00329608
0.00327804
0.00327845
0.00329369
0.00329636
0.00328149
0.00329635
0.00328149
0.00327845
0.00329637
0.00329637
0.00327903
0.00327833
0.00327833
0.00323057
0.00324786
0.00324811
0.00323035
0.00324778
0.00323025
0.00323057
0.00324786
0.00324811
0.00323035
0.00324546
0.00324546
0.00324546
0.00321011
0.00321011
0.00321011
0.00321011
0.00323063
0.00324801
0.00324542
0.00323357
0.00324799
0.00323062
0.00323356
0.00324778
0.00323024
0.00323062
0.00324542
0.003248
0.00323357
0.00324799
0.00323356
0.00323062
0.00324803
0.00324803
0.0032312
0.00323051
0.00323051
0.00318394
0.00320085
0.00320103
0.00318378
0.00320078
0.00318367
0.00318394
0.00320085
0.00320103
0.00318378
0.00319847
0.00319847
0.00319847
0.00316396
0.00316396
0.00316396
0.00316397
0.00318404
0.00320097
0.00319844
0.00318689
0.00320096
0.00318404
0.00318687
0.00320077
0.00318367
0.00318404
0.00319844
0.00320097
0.00318689
0.00320096
0.00318687
0.00318403
0.003201
0.003201
0.0031846
0.00318392
0.00318392
0.00313836
0.00315494
0.00315508
0.00313822
0.00315487
0.00313812
0.00313836
0.00315494
0.00315508
0.00313822
0.00315258
0.00315258
0.00315258
0.00311876
0.00311876
0.00311876
0.00311876
0.00313849
0.00315504
0.00315255
0.00314125
0.00315503
0.00313848
0.00314123
0.00315487
0.00313813
0.00313849
0.00315256
0.00315504
0.00314125
0.00315503
0.00314123
0.00313848
0.00315508
0.00315508
0.00313902
0.00313836
0.00313836
0.00309362
0.00310993
0.00311004
0.0030935
0.00310986
0.0030934
0.00309362
0.00310993
0.00311004
0.0030935
0.00310758
0.00310759
0.00310759
0.00307432
0.00307432
0.00307432
0.00307432
0.00309377
0.00311001
0.00310756
0.00309646
0.00311
0.00309375
0.00309643
0.00310986
0.0030934
0.00309377
0.00310756
0.00311002
0.00309646
0.00311001
0.00309643
0.00309375
0.00311005
0.00311005
0.00309428
0.00309362
0.00309362
0.00304955
0.00306564
0.00306574
0.00304944
0.00306557
0.00304935
0.00304955
0.00306564
0.00306574
0.00304944
0.00306331
0.00306331
0.00306331
0.00303051
0.00303051
0.0030305
0.00303051
0.00304973
0.00306571
0.0030633
0.00305235
0.00306571
0.0030497
0.00305233
0.00306557
0.00304935
0.00304973
0.0030633
0.00306571
0.00305235
0.00306571
0.00305233
0.0030497
0.00306575
0.00306575
0.00305021
0.00304955
0.00304955
0.00300606
0.00302194
0.00302204
0.00300594
0.00302188
0.00300586
0.00300606
0.00302194
0.00302204
0.00300594
0.00301964
0.00301964
0.00301964
0.00298722
0.00298722
0.00298722
0.00298722
0.00300625
0.00302201
0.00301963
0.00300881
0.00302202
0.0030062
0.00300879
0.00302188
0.00300585
0.00300625
0.00301963
0.00302201
0.00300881
0.00302202
0.00300879
0.0030062
0.00302204
0.00302204
0.0030067
0.00300605
0.00300605
0.00296305
0.00297876
0.00297886
0.00296293
0.00297871
0.00296285
0.00296305
0.00297876
0.00297886
0.00296293
0.00297648
0.00297647
0.00297648
0.00294441
0.00294441
0.00294441
0.00294441
0.00296327
0.00297882
0.00297647
0.00296577
0.00297884
0.00296319
0.00296576
0.0029787
0.00296285
0.00296327
0.00297647
0.00297882
0.00296577
0.00297884
0.00296576
0.00296319
0.00297885
0.00297885
0.00296368
0.00296303
0.00296303
0.0029205
0.00293604
0.00293614
0.00292037
0.00293599
0.0029203
0.0029205
0.00293604
0.00293615
0.00292037
0.00293378
0.00293378
0.00293378
0.00290203
0.00290203
0.00290203
0.00290203
0.00292073
0.00293609
0.00293378
0.00292318
0.00293614
0.00292063
0.00292317
0.00293599
0.0029203
0.00292073
0.00293378
0.00293609
0.00292318
0.00293613
0.00292317
0.00292063
0.00293613
0.00293612
0.00292113
0.00292047
0.00292046
0.00287835
0.00289375
0.00289385
0.00287822
0.0028937
0.00287816
0.00287835
0.00289375
0.00289385
0.00287822
0.0028915
0.0028915
0.0028915
0.00286004
0.00286004
0.00286004
0.00286004
0.0028786
0.00289379
0.0028915
0.002881
0.00289385
0.00287847
0.00288099
0.0028937
0.00287816
0.0028786
0.0028915
0.00289379
0.002881
0.00289385
0.00288099
0.00287847
0.00289382
0.00289382
0.00287899
0.0028783
0.0028783
0.00283656
0.00285183
0.00285193
0.00283644
0.00285179
0.00283638
0.00283656
0.00285183
0.00285194
0.00283644
0.0028496
0.0028496
0.0028496
0.00281841
0.00281841
0.00281841
0.00281841
0.00283682
0.00285186
0.0028496
0.00283918
0.00285193
0.00283667
0.00283918
0.0028518
0.00283638
0.00283682
0.0028496
0.00285186
0.00283919
0.00285193
0.00283918
0.00283667
0.0028519
0.0028519
0.00283721
0.00283651
0.00283651
0.00279515
0.00281028
0.00281038
0.00279502
0.00281025
0.00279498
0.00279515
0.00281028
0.00281038
0.00279502
0.00280806
0.00280806
0.00280806
0.00277717
0.00277717
0.00277717
0.00277717
0.0027954
0.00281029
0.00280807
0.00279774
0.00281037
0.00279524
0.00279774
0.00281025
0.00279498
0.0027954
0.00280807
0.00281029
0.00279774
0.00281037
0.00279774
0.00279524
0.00281033
0.00281033
0.0027958
0.00279508
0.00279508
0.00275418
0.00276915
0.00276923
0.00275407
0.00276912
0.00275403
0.00275418
0.00276915
0.00276923
0.00275407
0.00276694
0.00276694
0.00276694
0.00273646
0.00273646
0.00273646
0.00273646
0.00275443
0.00276914
0.00276694
0.00275673
0.00276922
0.00275427
0.00275674
0.00276912
0.00275403
0.00275443
0.00276694
0.00276914
0.00275673
0.00276922
0.00275674
0.00275427
0.00276918
0.00276918
0.00275483
0.00275411
0.00275411
0.00271383
0.00272858
0.00272863
0.00271374
0.00272854
0.00271371
0.00271384
0.00272857
0.00272864
0.00271375
0.00272639
0.00272639
0.00272639
0.00269647
0.00269647
0.00269646
0.00269647
0.00271407
0.00272855
0.00272638
0.00271633
0.00272861
0.00271393
0.00271635
0.00272855
0.00271371
0.00271407
0.00272638
0.00272855
0.00271633
0.0027286
0.00271635
0.00271392
0.00272859
0.00272859
0.00271447
0.00271377
0.00271378
0.00267432
0.00268875
0.00268878
0.00267425
0.00268873
0.00267424
0.00267432
0.00268875
0.00268879
0.00267425
0.0026866
0.0026866
0.0026866
0.00265737
0.00265737
0.00265737
0.00265737
0.00267454
0.0026887
0.00268658
0.00267676
0.00268874
0.00267442
0.00267678
0.00268873
0.00267422
0.00267453
0.00268658
0.0026887
0.00267675
0.00268873
0.00267677
0.00267442
0.00268876
0.00268876
0.00267494
0.00267427
0.00267427
0.00263576
0.00264985
0.00264987
0.0026357
0.00264983
0.00263569
0.00263575
0.00264984
0.00264985
0.0026357
0.00264775
0.00264775
0.00264775
0.00261921
0.00261921
0.00261921
0.00261921
0.00263596
0.00264979
0.00264772
0.00263813
0.00264981
0.00263585
0.00263815
0.00264982
0.00263567
0.00263596
0.00264771
0.00264978
0.00263813
0.0026498
0.00263815
0.00263584
0.00264985
0.00264985
0.00263636
0.00263572
0.00263572
0.0025981
0.00261187
0.0026119
0.00259804
0.00261187
0.00259804
0.00259811
0.00261188
0.0026119
0.00259805
0.00260981
0.00260981
0.00260981
0.00258183
0.00258183
0.00258184
0.00258184
0.00259829
0.00261182
0.00260978
0.0026004
0.00261184
0.00259817
0.00260042
0.00261188
0.00259803
0.00259829
0.00260978
0.00261182
0.0026004
0.00261183
0.00260042
0.00259818
0.00261188
0.00261189
0.00259868
0.00259806
0.00259807
0.00256109
0.00257466
0.00257467
0.00256104
0.00257466
0.00256102
0.00256108
0.00257466
0.00257467
0.00256105
0.00257259
0.00257259
0.00257259
0.00254498
0.00254498
0.00254498
0.00254498
0.00256125
0.00257459
0.00257256
0.00256332
0.00257461
0.00256116
0.00256334
0.00257465
0.00256103
0.00256127
0.00257257
0.00257459
0.00256333
0.00257461
0.00256335
0.00256116
0.00257466
0.00257466
0.00256163
0.00256105
0.00256105
0.00252447
0.00253795
0.00253793
0.00252447
0.00253792
0.00252445
0.00252448
0.00253794
0.00253795
0.00252447
0.00253584
0.00253584
0.00253584
0.00250851
0.00250852
0.00250851
0.00250852
0.00252462
0.00253784
0.00253581
0.00252667
0.00253782
0.00252455
0.00252668
0.00253794
0.00252446
0.00252462
0.00253581
0.00253786
0.00252668
0.00253784
0.00252669
0.00252456
0.00253794
0.00253793
0.00252499
0.00252446
0.00252447
0.00248822
0.00250157
0.00250156
0.00248822
0.00250157
0.00248822
0.00248824
0.00250157
0.00250157
0.00248822
0.00249947
0.00249947
0.00249947
0.00247238
0.00247239
0.00247239
0.00247239
0.00248837
0.00250148
0.00249944
0.00249039
0.00250143
0.00248831
0.0024904
0.00250157
0.00248822
0.00248836
0.00249944
0.00250147
0.00249039
0.00250143
0.0024904
0.0024883
0.00250156
0.00250156
0.00248872
0.00248822
0.00248822
0.00245225
0.00246549
0.00246548
0.00245224
0.00246551
0.00245223
0.00245225
0.00246551
0.0024655
0.00245223
0.00246341
0.00246341
0.00246342
0.00243648
0.00243649
0.00243649
0.00243649
0.00245239
0.00246542
0.00246339
0.0024544
0.00246538
0.00245233
0.00245441
0.00246552
0.00245224
0.00245239
0.00246339
0.00246542
0.0024544
0.00246538
0.00245441
0.00245234
0.00246551
0.0024655
0.00245274
0.00245224
0.00245225
0.00241644
0.00242964
0.00242963
0.00241643
0.00242965
0.00241642
0.00241644
0.00242964
0.00242963
0.00241643
0.00242755
0.00242755
0.00242755
0.0024007
0.00240071
0.00240071
0.00240071
0.00241657
0.00242955
0.00242752
0.00241857
0.0024295
0.00241652
0.00241858
0.00242965
0.00241641
0.00241657
0.00242752
0.00242955
0.00241857
0.00242951
0.00241858
0.00241652
0.00242965
0.00242965
0.00241691
0.00241643
0.00241644
0.00238071
0.00239389
0.00239387
0.0023807
0.00239388
0.00238068
0.0023807
0.00239388
0.00239387
0.00238069
0.0023918
0.00239179
0.00239179
0.00236499
0.00236499
0.00236499
0.00236499
0.00238084
0.0023938
0.00239177
0.00238283
0.00239375
0.00238079
0.00238284
0.00239389
0.00238068
0.00238083
0.00239176
0.00239379
0.00238282
0.00239374
0.00238283
0.00238078
0.00239388
0.00239388
0.00238118
0.00238071
0.0023807
0.00234499
0.00235816
0.00235816
0.00234498
0.00235819
0.00234499
0.00234499
0.00235817
0.00235815
0.00234498
0.00235608
0.00235608
0.00235608
0.00232928
0.00232929
0.00232929
0.00232929
0.00234512
0.00235808
0.00235605
0.00234712
0.00235804
0.00234507
0.00234713
0.00235817
0.00234497
0.00234512
0.00235605
0.00235807
0.00234712
0.00235803
0.00234713
0.00234507
0.00235816
0.00235817
0.00234547
0.00234499
0.00234499
0.00230929
0.00232247
0.00232245
0.00230928
0.00232247
0.00230927
0.0023093
0.00232247
0.00232245
0.00230928
0.00232038
0.00232039
0.00232038
0.00229358
0.00229359
0.00229359
0.00229359
0.00230942
0.00232237
0.00232034
0.00231141
0.00232232
0.00230936
0.00231142
0.00232248
0.00230928
0.00230943
0.00232035
0.00232238
0.00231142
0.00232233
0.00231143
0.00230938
0.00232246
0.00232246
0.00230976
0.00230928
0.00230929
0.00227359
0.00228677
0.00228675
0.00227358
0.00228677
0.00227357
0.00227359
0.00228677
0.00228676
0.00227358
0.00228468
0.00228468
0.00228468
0.00225788
0.00225789
0.00225788
0.00225789
0.00227373
0.00228666
0.00228464
0.00227571
0.00228662
0.00227367
0.00227572
0.00228679
0.00227358
0.00227372
0.00228465
0.00228668
0.00227572
0.00228663
0.00227572
0.00227368
0.00228676
0.00228676
0.00227407
0.00227358
0.00227359
0.00223789
0.00225106
0.00225105
0.00223787
0.00225107
0.00223788
0.00223788
0.00225106
0.00225104
0.00223787
0.00224898
0.00224897
0.00224898
0.00222217
0.00222218
0.00222218
0.00222218
0.00223802
0.00225098
0.00224895
0.00224002
0.00225093
0.00223798
0.00224002
0.00225107
0.00223787
0.00223802
0.00224894
0.00225097
0.00224001
0.00225093
0.00224002
0.00223796
0.00225106
0.00225106
0.00223837
0.00223788
0.00223787
0.00220218
0.00221535
0.00221534
0.00220217
0.00221536
0.00220215
0.00220218
0.00221534
0.00221534
0.00220216
0.00221327
0.00221327
0.00221327
0.00218646
0.00218647
0.00218646
0.00218646
0.0022023
0.00221526
0.00221323
0.0022043
0.00221522
0.00220225
0.00220431
0.00221535
0.00220217
0.0022023
0.00221323
0.00221526
0.0022043
0.00221521
0.0022043
0.00220225
0.00221535
0.00221535
0.00220265
0.00220217
0.00220216
0.00216646
0.00217964
0.00217963
0.00216645
0.00217965
0.00216644
0.00216645
0.00217964
0.00217963
0.00216645
0.00217755
0.00217755
0.00217755
0.00215073
0.00215074
0.00215073
0.00215074
0.00216659
0.00217954
0.00217751
0.00216858
0.00217949
0.00216653
0.00216859
0.00217964
0.00216644
0.00216659
0.00217751
0.00217955
0.00216858
0.00217949
0.00216859
0.00216654
0.00217963
0.00217963
0.00216693
0.00216645
0.00216645
0.00213072
0.00214391
0.0021439
0.00213072
0.00214392
0.00213071
0.00213072
0.00214392
0.0021439
0.00213072
0.00214182
0.00214182
0.00214182
0.00211499
0.002115
0.002115
0.002115
0.00213086
0.00214383
0.00214179
0.00213285
0.00214378
0.00213081
0.00213286
0.00214392
0.00213071
0.00213086
0.00214178
0.00214382
0.00213285
0.00214377
0.00213285
0.0021308
0.00214391
0.00214391
0.0021312
0.00213072
0.00213072
0.00209498
0.00210817
0.00210816
0.00209498
0.00210818
0.00209496
0.00209498
0.00210817
0.00210815
0.00209497
0.00210608
0.00210608
0.00210608
0.00207925
0.00207925
0.00207925
0.00207925
0.00209511
0.00210809
0.00210604
0.0020971
0.00210803
0.00209506
0.00209711
0.00210817
0.00209496
0.0020951
0.00210604
0.00210808
0.0020971
0.00210803
0.00209711
0.00209506
0.00210818
0.00210817
0.00209545
0.00209497
0.00209498
0.00205923
0.00207243
0.00207241
0.00205922
0.00207243
0.00205921
0.00205923
0.00207243
0.00207241
0.00205923
0.00207033
0.00207034
0.00207034
0.00204351
0.00204351
0.00204352
0.00204352
0.00205936
0.00207233
0.0020703
0.00206136
0.00207228
0.00205931
0.00206137
0.00207243
0.00205921
0.00205937
0.0020703
0.00207233
0.00206136
0.00207229
0.00206137
0.00205932
0.00207241
0.00207242
0.00205971
0.00205923
0.00205923
0.0020235
0.00203668
0.00203666
0.00202349
0.00203669
0.00202348
0.0020235
0.00203669
0.00203667
0.00202349
0.00203459
0.0020346
0.0020346
0.00200777
0.00200778
0.00200778
0.00200778
0.00202365
0.00203659
0.00203456
0.00202562
0.00203655
0.00202357
0.00202563
0.00203669
0.00202348
0.00202364
0.00203457
0.0020366
0.00202563
0.00203655
0.00202564
0.00202359
0.00203668
0.00203669
0.00202398
0.0020235
0.00202349
0.00198777
0.00200095
0.00200094
0.00198776
0.00200096
0.00198775
0.00198777
0.00200096
0.00200094
0.00198776
0.00199886
0.00199886
0.00199886
0.00197202
0.00197203
0.00197203
0.00197203
0.00198788
0.00200086