/*--------------------------------*- C++ -*----------------------------------*\
| =========                 |                                                 |
| \\      /  F ield         | OpenFOAM: The Open Source CFD Toolbox           |
|  \\    /   O peration     | Version:  v2012                                 |
|   \\  /    A nd           | Website:  www.openfoam.com                      |
|    \\/     M anipulation  |                                                 |
\*---------------------------------------------------------------------------*/
FoamFile
{
    version     2.0;
    format      ascii;
    class       surfaceScalarField;
    location    "100";
    object      phi;
}
// * * * * * * * * * * * * * * * * * * * * * * * * * * * * * * * * * * * * * //

dimensions      [0 3 -1 0 0 0 0];
oriented        oriented;


internalField   nonuniform List<scalar> 
248808
(
-0.00104218
-1.46317e-05
-1.45292e-05
9.38342e-06
9.2137e-06
0.00105274
-0.000261491
-5.68405e-06
1.45107e-05
6.89068e-06
0.00105925
-4.59292e-06
-1.59615e-06
-2.12099e-06
-2.49065e-06
-6.62229e-06
-7.11496e-06
-2.98731e-06
-0.000263334
-0.000259762
-0.000262858
-0.000261468
-5.68927e-06
1.45401e-05
6.97965e-06
0.00105905
-4.5984e-06
-1.60657e-06
-2.12868e-06
-2.4948e-06
-6.6169e-06
-7.11106e-06
-2.98932e-06
-0.000259734
-0.000263306
-0.000262822
-0.000260564
5.66011e-06
5.69937e-06
-4.95298e-06
-4.94748e-06
0.000259105
-1.65206e-06
-1.6543e-06
-0.00106079
9.33426e-07
9.33684e-07
0.00106223
-0.00106274
-1.61871e-06
1.64859e-06
8.30254e-07
0.00106394
-6.79478e-07
8.34666e-07
-9.895e-08
4.23619e-07
-8.50356e-07
-1.43089e-06
-2.55116e-07
-0.00106243
-1.61402e-06
1.65955e-06
8.26607e-07
0.00106362
-6.80087e-07
8.28871e-07
-9.94569e-08
4.21267e-07
-8.52893e-07
-1.43068e-06
-2.52162e-07
-0.000261567
1.65046e-06
1.61378e-06
-6.97533e-07
-7.0153e-07
0.000259702
-1.37574e-06
-1.37629e-06
-0.00106636
6.96398e-07
6.97372e-07
0.00106772
-0.00106788
-1.57267e-06
1.38116e-06
6.8975e-07
0.00106923
-6.56856e-07
8.78161e-07
-7.31765e-08
4.61969e-07
-8.3716e-07
-1.39824e-06
-2.21644e-07
-0.00106756
-1.56746e-06
1.37594e-06
6.95731e-07
0.0010689
-6.57051e-07
8.72881e-07
-7.32646e-08
4.6204e-07
-8.37422e-07
-1.39309e-06
-2.18897e-07
-0.000262803
1.60247e-06
1.56785e-06
-6.6365e-07
-6.71871e-07
0.000260968
-1.35046e-06
-1.35031e-06
-0.00107181
6.752e-07
6.7699e-07
0.00107316
-0.00107323
-1.57266e-06
1.35058e-06
6.66937e-07
0.00107454
-6.53437e-07
9.00134e-07
-5.33879e-08
4.75757e-07
-8.27616e-07
-1.4038e-06
-1.94764e-07
-0.0010729
-1.56705e-06
1.35097e-06
6.66482e-07
0.00107421
-6.50596e-07
8.95142e-07
-5.52688e-08
4.7542e-07
-8.30708e-07
-1.40422e-06
-1.92428e-07
-0.00026408
1.59995e-06
1.56757e-06
-6.55906e-07
-6.61489e-07
0.00026223
-1.30369e-06
-1.30414e-06
-0.00107714
6.5104e-07
6.52642e-07
0.00107845
-0.0010784
-1.56414e-06
1.30507e-06
6.36037e-07
0.00107965
-6.38385e-07
9.24576e-07
-3.49934e-08
4.94374e-07
-8.09475e-07
-1.40307e-06
-1.65326e-07
-0.00107806
-1.55864e-06
1.30452e-06
6.35562e-07
0.00107932
-6.35599e-07
9.19382e-07
-3.68295e-08
4.94437e-07
-8.12063e-07
-1.40311e-06
-1.62646e-07
-0.000265299
1.59159e-06
1.55915e-06
-6.40202e-07
-6.4575e-07
0.000263434
-1.25324e-06
-1.25633e-06
-0.00108228
6.27754e-07
6.28158e-07
0.00108354
-0.00108332
-1.55495e-06
1.25458e-06
6.06525e-07
0.00108452
-6.23781e-07
9.46666e-07
-1.40858e-08
5.15316e-07
-7.88858e-07
-1.39689e-06
-1.37516e-07
-0.00108299
-1.54962e-06
1.25401e-06
6.06614e-07
0.00108418
-6.21194e-07
9.41288e-07
-1.68437e-08
5.15635e-07
-7.91143e-07
-1.39653e-06
-1.34739e-07
-0.000266443
1.5826e-06
1.54998e-06
-6.24169e-07
-6.29645e-07
0.000264564
-1.20664e-06
-1.20985e-06
-0.00108722
6.05873e-07
6.06118e-07
0.00108843
-0.00108801
-1.54749e-06
1.2079e-06
5.83295e-07
0.00108914
-6.11856e-07
9.65955e-07
3.08517e-09
5.36832e-07
-7.69305e-07
-1.38856e-06
-1.12879e-07
-0.00108767
-1.54203e-06
1.20723e-06
5.83222e-07
0.0010888
-6.09117e-07
9.6067e-07
4.60506e-10
5.37039e-07
-7.71571e-07
-1.38824e-06
-1.10185e-07
-0.000267514
1.57517e-06
1.54234e-06
-6.09965e-07
-6.15557e-07
0.000265622
-1.16622e-06
-1.16777e-06
-0.00109197
5.86544e-07
5.87446e-07
0.00109313
-0.00109245
-1.54193e-06
1.16769e-06
5.65116e-07
0.00109353
-6.02631e-07
9.82977e-07
1.72828e-08
5.57586e-07
-7.52287e-07
-1.38039e-06
-9.17995e-08
-0.00109211
-1.53612e-06
1.16676e-06
5.64255e-07
0.00109319
-5.99488e-07
9.77979e-07
1.49781e-08
5.57697e-07
-7.54483e-07
-1.3801e-06
-8.91535e-08
-0.000268517
1.56962e-06
1.53661e-06
-5.98063e-07
-6.03749e-07
0.000266612
-1.13118e-06
-1.13247e-06
-0.00109655
5.70701e-07
5.7186e-07
0.00109767
-0.00109669
-1.53795e-06
1.13312e-06
5.50192e-07
0.00109772
-5.95673e-07
9.98074e-07
2.91711e-08
5.77528e-07
-7.37512e-07
-1.37278e-06
-7.36612e-08
-0.00109635
-1.53201e-06
1.13282e-06
5.49354e-07
0.00109738
-5.92447e-07
9.93118e-07
2.68749e-08
5.77432e-07
-7.39943e-07
-1.37267e-06
-7.13092e-08
-0.000269456
1.56595e-06
1.53267e-06
-5.88315e-07
-5.94115e-07
0.00026754
-1.1008e-06
-1.10253e-06
-0.00110098
5.57766e-07
5.58396e-07
0.00110207
-0.00110074
-1.53598e-06
1.10218e-06
5.3738e-07
0.00110173
-5.9123e-07
1.01116e-06
4.29494e-08
5.96495e-07
-7.2451e-07
-1.36574e-06
-5.83322e-08
-0.0011004
-1.53029e-06
1.10317e-06
5.37899e-07
0.00110138
-5.88262e-07
1.00592e-06
3.91064e-08
5.96277e-07
-7.27124e-07
-1.36575e-06
-5.61908e-08
-0.000270337
1.56405e-06
1.53047e-06
-5.80533e-07
-5.8639e-07
0.00026841
-1.07437e-06
-1.07658e-06
-0.00110529
5.46855e-07
5.46756e-07
0.00110634
-0.00110462
-1.53496e-06
1.07501e-06
5.2783e-07
0.00110557
-5.8522e-07
1.02338e-06
5.08801e-08
6.14362e-07
-7.12371e-07
-1.35895e-06
-4.53398e-08
-0.00110428
-1.52968e-06
1.07616e-06
5.28897e-07
0.00110522
-5.85419e-07
1.01769e-06
5.04952e-08
6.14083e-07
-7.15075e-07
-1.35903e-06
-4.33289e-08
-0.000271165
1.56334e-06
1.52951e-06
-5.74019e-07
-5.80111e-07
0.000269226
-1.04996e-06
-1.05257e-06
-0.00110948
5.36315e-07
5.36038e-07
0.00111051
-0.00110835
-1.53431e-06
1.05065e-06
5.19074e-07
0.00110926
-5.82496e-07
1.03492e-06
6.04787e-08
6.30924e-07
-7.00293e-07
-1.35189e-06
-3.43565e-08
-0.001108
-1.52911e-06
1.05144e-06
5.20224e-07
0.00110891
-5.827e-07
1.02917e-06
6.01754e-08
6.30773e-07
-7.02945e-07
-1.35185e-06
-3.23098e-08
-0.00027194
1.56278e-06
1.52885e-06
-5.68029e-07
-5.74173e-07
0.000269991
-1.02644e-06
-1.0284e-06
-0.00111356
5.2516e-07
5.25329e-07
0.00111456
-0.00111192
-1.53369e-06
1.0275e-06
5.09973e-07
0.00111279
-5.79475e-07
1.04611e-06
6.88465e-08
6.45855e-07
-6.88064e-07
-1.34448e-06
-2.24957e-08
-0.00111157
-1.52836e-06
1.0275e-06
5.10531e-07
0.00111244
-5.79548e-07
1.0404e-06
6.87168e-08
6.45823e-07
-6.90713e-07
-1.34431e-06
-1.96772e-08
-0.000272663
1.5622e-06
1.52826e-06
-5.6246e-07
-5.68504e-07
0.000270703
-1.00411e-06
-1.00535e-06
-0.00111754
5.14463e-07
5.15085e-07
0.00111852
-0.00111534
-1.53322e-06
1.0057e-06
5.00054e-07
0.00111618
-5.75344e-07
1.05627e-06
7.68082e-08
6.59303e-07
-6.75043e-07
-1.33617e-06
-1.09174e-08
-0.00111499
-1.5277e-06
1.00515e-06
5.00361e-07
0.00111583
-5.75284e-07
1.05072e-06
7.67545e-08
6.59376e-07
-6.77632e-07
-1.33593e-06
-8.01433e-09
-0.000273332
1.56168e-06
1.52787e-06
-5.56727e-07
-5.62435e-07
0.000271361
-9.83142e-07
-9.83993e-07
-0.00112142
5.04633e-07
5.05464e-07
0.00112238
-0.00111862
-1.53234e-06
9.8506e-07
4.89509e-07
0.00111941
-5.69686e-07
1.06533e-06
8.46754e-08
6.71198e-07
-6.61433e-07
-1.32684e-06
-6.94168e-10
-0.00111827
-1.52675e-06
9.84496e-07
4.89666e-07
0.00111906
-5.69623e-07
1.05991e-06
8.47019e-08
6.7127e-07
-6.64086e-07
-1.32663e-06
2.191e-09
-0.000273945
1.56084e-06
1.52701e-06
-5.49885e-07
-5.55449e-07
0.000271963
-9.61789e-07
-9.62613e-07
-0.00112521
4.94852e-07
4.95555e-07
0.00112615
-0.00112174
-1.53002e-06
9.63619e-07
4.77234e-07
0.0011225
-5.61977e-07
1.07416e-06
9.29925e-08
6.82023e-07
-6.46771e-07
-1.31615e-06
8.90241e-09
-0.00112139
-1.52445e-06
9.63583e-07
4.77277e-07
0.00112214
-5.61852e-07
1.06868e-06
9.30578e-08
6.81974e-07
-6.49548e-07
-1.31603e-06
1.16331e-08
-0.000274501
1.55865e-06
1.5246e-06
-5.41319e-07
-5.47039e-07
0.000272506
-9.33554e-07
-9.3439e-07
-0.00112891
4.81643e-07
4.82056e-07
0.00112981
-0.0011247
-1.52455e-06
9.35088e-07
4.60705e-07
0.00112541
-5.50253e-07
1.08424e-06
1.03657e-07
6.93774e-07
-6.29182e-07
-1.30213e-06
2e-08
-0.00112434
-1.51904e-06
9.35585e-07
4.60756e-07
0.00112505
-5.50254e-07
1.07875e-06
1.03754e-07
6.93609e-07
-6.32127e-07
-1.30227e-06
2.26322e-08
-0.000274993
1.55339e-06
1.51906e-06
-5.29499e-07
-5.35533e-07
0.000272986
-8.8528e-07
-8.86142e-07
-0.00113245
4.58663e-07
4.59077e-07
0.00113331
-0.00112744
-1.51319e-06
8.86783e-07
4.34882e-07
0.00112809
-5.3256e-07
1.09797e-06
1.19023e-07
7.10769e-07
-6.06467e-07
-1.28153e-06
3.96923e-08
-0.00112709
-1.50776e-06
8.87368e-07
4.35016e-07
0.00112773
-5.32625e-07
1.09232e-06
1.18995e-07
7.10256e-07
-6.09523e-07
-1.28177e-06
4.32368e-08
-0.000275412
1.54209e-06
1.50765e-06
-5.11719e-07
-5.17677e-07
0.000273392
-8.06349e-07
-8.0789e-07
-0.00113575
4.21542e-07
4.21594e-07
0.00113653
-0.0011299
-1.49289e-06
8.07442e-07
3.95353e-07
0.00113045
-5.07222e-07
1.11814e-06
1.40708e-07
7.36415e-07
-5.74642e-07
-1.25052e-06
7.17476e-08
-0.00112954
-1.4877e-06
8.0773e-07
3.96158e-07
0.0011301
-5.07474e-07
1.11223e-06
1.4054e-07
7.36148e-07
-5.77637e-07
-1.25069e-06
7.49847e-08
-0.000275745
1.52174e-06
1.48735e-06
-4.84896e-07
-4.90996e-07
0.000273712
-6.94987e-07
-6.96949e-07
-0.00113867
3.6893e-07
3.68396e-07
0.00113933
-0.00113196
-1.46257e-06
6.93535e-07
3.40177e-07
0.0011324
-4.75377e-07
1.14573e-06
1.69253e-07
7.7325e-07
-5.32257e-07
-1.20665e-06
1.12273e-07
-0.0011316
-1.45779e-06
6.92455e-07
3.41246e-07
0.00113205
-4.75922e-07
1.13965e-06
1.68797e-07
7.73596e-07
-5.34772e-07
-1.20601e-06
1.15789e-07
-0.000275982
1.49152e-06
1.4577e-06
-4.49124e-07
-4.54711e-07
0.000273937
-5.62995e-07
-5.63237e-07
-0.00114108
3.02727e-07
3.03858e-07
0.0011416
-0.00113355
-1.42838e-06
5.5954e-07
2.78762e-07
0.00113387
-4.42511e-07
1.17595e-06
2.02437e-07
8.16092e-07
-4.83959e-07
-1.15606e-06
1.5672e-07
-0.00113319
-1.42294e-06
5.55857e-07
2.77872e-07
0.00113352
-4.40277e-07
1.1705e-06
1.99649e-07
8.16873e-07
-4.85715e-07
-1.15498e-06
1.60774e-07
-0.000276119
1.45683e-06
1.42411e-06
-4.10121e-07
-4.14486e-07
0.000274063
-4.3348e-07
-4.31475e-07
-0.00114296
2.35218e-07
2.38101e-07
0.00114335
-0.00113466
-1.3957e-06
4.29236e-07
2.17765e-07
0.00113488
-4.0952e-07
1.20468e-06
2.30615e-07
8.56716e-07
-4.37867e-07
-1.10805e-06
1.9699e-07
-0.00113431
-1.38902e-06
4.27139e-07
2.15071e-07
0.00113453
-4.06246e-07
1.20061e-06
2.28695e-07
8.56599e-07
-4.40601e-07
-1.10772e-06
2.00151e-07
-0.000276174
1.42353e-06
1.39005e-06
-3.72156e-07
-3.77823e-07
0.00027411
-3.16886e-07
-3.12499e-07
-0.00114435
1.72362e-07
1.7535e-07
0.00114463
-0.0011354
-1.36721e-06
3.13253e-07
1.62276e-07
0.00113553
-3.82592e-07
1.2306e-06
2.53933e-07
8.91709e-07
-4.00193e-07
-1.06732e-06
2.30428e-07
-0.00113504
-1.36006e-06
3.14784e-07
1.58807e-07
0.00113518
-3.77829e-07
1.2266e-06
2.52833e-07
8.90351e-07
-4.03706e-07
-1.06853e-06
2.32609e-07
-0.000276172
1.39491e-06
1.35987e-06
-3.41008e-07
-3.46473e-07
0.000274104
-2.06246e-07
-2.05119e-07
-0.00114532
1.1494e-07
1.15671e-07
0.0011455
-0.00113584
-1.34044e-06
2.06554e-07
1.1096e-07
0.00113591
-3.5715e-07
1.25488e-06
2.76358e-07
9.20934e-07
-3.70505e-07
-1.03409e-06
2.57095e-07
-0.00113549
-1.33506e-06
2.09646e-07
1.09455e-07
0.00113556
-3.54503e-07
1.24935e-06
2.7308e-07
9.20401e-07
-3.73611e-07
-1.03452e-06
2.59605e-07
-0.000276145
1.36943e-06
1.33392e-06
-3.15581e-07
-3.20351e-07
0.000274078
-1.17533e-07
-1.17929e-07
-0.00114591
6.79913e-08
6.66817e-08
0.00114601
-0.00113607
-1.31765e-06
1.17248e-07
6.37195e-08
0.00113611
-3.37335e-07
1.27531e-06
2.9362e-07
9.44837e-07
-3.46377e-07
-1.00695e-06
2.78932e-07
-0.00113572
-1.3133e-06
1.18981e-07
6.59295e-08
0.00113576
-3.35383e-07
1.2689e-06
2.89936e-07
9.4413e-07
-3.49243e-07
-1.0075e-06
2.81718e-07
-0.000276123
1.34753e-06
1.3125e-06
-2.94273e-07
-3.0061e-07
0.000274057
-5.96676e-08
-6.08267e-08
-0.00114622
3.6922e-08
3.41752e-08
0.00114627
-0.00113617
-1.30312e-06
6.08701e-08
3.40208e-08
0.00113618
-3.24845e-07
1.28805e-06
3.04438e-07
9.58951e-07
-3.29978e-07
-9.9046e-07
2.92689e-07
-0.00113582
-1.2991e-06
6.03137e-08
3.56094e-08
0.00113583
-3.23502e-07
1.2814e-06
3.00351e-07
9.59736e-07
-3.32498e-07
-9.8974e-07
2.96121e-07
-0.000276106
1.33342e-06
1.29838e-06
-2.80582e-07
-2.86982e-07
0.000274042
-2.44681e-08
-2.89142e-08
-0.00114636
1.72599e-08
1.46085e-08
0.00114638
-0.00113618
-1.29606e-06
2.89249e-08
1.79848e-08
0.00113618
-3.18379e-07
1.29362e-06
3.09879e-07
9.67412e-07
-3.21217e-07
-9.80634e-07
3.00405e-07
-0.00113585
-1.29087e-06
2.77857e-08
1.91154e-08
0.00113585
-3.16425e-07
1.28845e-06
3.06596e-07
9.67095e-07
-3.2458e-07
-9.80828e-07
3.03095e-07
-0.000276093
1.32606e-06
1.29135e-06
-2.74184e-07
-2.80124e-07
0.00027403
-9.93434e-09
-1.11489e-08
-0.00114641
5.4639e-09
6.39073e-09
0.00114642
-0.00113617
-1.29332e-06
1.14541e-08
1.04151e-08
0.00113617
-3.1664e-07
1.29591e-06
3.11127e-07
9.71432e-07
-3.16395e-07
-9.75711e-07
3.0451e-07
-0.00113584
-1.28724e-06
1.0195e-08
1.02811e-08
0.00113584
-3.13025e-07
1.29148e-06
3.09803e-07
9.70417e-07
-3.19363e-07
-9.76656e-07
3.07527e-07
-0.000276087
1.32142e-06
1.28765e-06
-2.70867e-07
-2.75876e-07
0.000274025
-4.40197e-09
-3.26174e-09
-0.00114644
1.56144e-10
2.75443e-09
0.00114644
-0.00113616
-1.292e-06
5.46732e-09
7.86187e-09
0.00113616
-3.15848e-07
1.2975e-06
3.12077e-07
9.7153e-07
-3.14945e-07
-9.75083e-07
3.05601e-07
-0.00113583
-1.28583e-06
1.65768e-09
4.5379e-09
0.00113583
-3.11737e-07
1.29262e-06
3.10608e-07
9.72269e-07
-3.16907e-07
-9.7412e-07
3.09728e-07
-0.000276083
1.32031e-06
1.28745e-06
-2.70865e-07
-2.74236e-07
0.00027402
-1.53514e-09
-5.65808e-10
-0.00114644
-9.40458e-10
-4.62912e-10
0.00114645
-0.00113615
-1.29166e-06
2.10076e-09
7.0198e-09
0.00113615
-3.15377e-07
1.2973e-06
3.12511e-07
9.72273e-07
-3.13894e-07
-9.74063e-07
3.06374e-07
-0.00113582
-1.28647e-06
1.1025e-09
6.56278e-09
0.00113582
-3.12948e-07
1.29187e-06
3.09344e-07
9.73032e-07
-3.16261e-07
-9.73129e-07
3.09989e-07
-0.000276075
1.32159e-06
1.28725e-06
-2.70228e-07
-2.75499e-07
0.000274012
-1.06022e-09
-9.19173e-10
-0.00114645
-4.44074e-10
-1.32795e-09
0.00114645
-0.00113614
-1.29239e-06
-2.14936e-09
8.35572e-09
0.00113614
-3.15359e-07
1.29658e-06
3.12019e-07
9.73616e-07
-3.12447e-07
-9.72357e-07
3.07343e-07
-0.00113581
-1.2875e-06
2.72161e-09
1.09539e-08
0.0011358
-3.14427e-07
1.29089e-06
3.0814e-07
9.72896e-07
-3.17016e-07
-9.73257e-07
3.09329e-07
-0.000276064
1.3224e-06
1.28653e-06
-2.69195e-07
-2.76593e-07
0.000274001
-7.5014e-11
5.94593e-11
-0.00114645
-1.28654e-09
-2.26139e-09
0.00114645
-0.00113613
-1.2925e-06
-3.51529e-09
8.97079e-09
0.00113613
-3.15529e-07
1.29643e-06
3.11776e-07
9.7399e-07
-3.12559e-07
-9.71764e-07
3.06946e-07
-0.00113579
-1.28758e-06
1.22731e-09
1.00273e-08
0.00113579
-3.13832e-07
1.29085e-06
3.08615e-07
9.72981e-07
-3.16769e-07
-9.72962e-07
3.09388e-07
-0.000276053
1.32213e-06
1.28652e-06
-2.69627e-07
-2.76038e-07
0.00027399
2.76783e-10
6.34697e-10
-0.00114645
-1.51171e-09
-2.32208e-09
0.00114645
-0.00113612
-1.29226e-06
-3.51919e-09
9.48648e-09
0.00113612
-3.15685e-07
1.2965e-06
3.11324e-07
9.74024e-07
-3.12652e-07
-9.71846e-07
3.06815e-07
-0.00113578
-1.28742e-06
4.95175e-10
9.87607e-09
0.00113578
-3.13692e-07
1.29054e-06
3.08273e-07
9.73082e-07
-3.1649e-07
-9.72905e-07
3.09512e-07
-0.000276043
1.3221e-06
1.28678e-06
-2.70226e-07
-2.7594e-07
0.00027398
-4.34789e-10
-1.26933e-09
-0.00114645
3.00168e-11
-1.14127e-09
0.00114645
-0.00113611
-1.29293e-06
-3.76796e-09
1.19385e-08
0.00113611
-3.16526e-07
1.29573e-06
3.10233e-07
9.74377e-07
-3.12225e-07
-9.71448e-07
3.07096e-07
-0.00113578
-1.28817e-06
-1.87702e-09
1.18913e-08
0.00113578
-3.14108e-07
1.28973e-06
3.07814e-07
9.73941e-07
-3.15846e-07
-9.72135e-07
3.10258e-07
-0.000276035
1.32127e-06
1.28587e-06
-2.68784e-07
-2.758e-07
0.000273973
-2.12698e-09
-2.36338e-09
-0.00114645
9.931e-10
3.68999e-10
0.00114646
-0.0011361
-1.29301e-06
-2.41703e-09
1.09822e-08
0.0011361
-3.1649e-07
1.29565e-06
3.10464e-07
9.73572e-07
-3.12367e-07
-9.72131e-07
3.06826e-07
-0.00113577
-1.28756e-06
-3.50797e-09
1.04679e-08
0.00113577
-3.13968e-07
1.29022e-06
3.08015e-07
9.73899e-07
-3.15582e-07
-9.72074e-07
3.10355e-07
-0.000276029
1.32087e-06
1.28653e-06
-2.6987e-07
-2.75126e-07
0.000273966
-2.92109e-09
-2.16837e-09
-0.00114646
4.07902e-10
9.5965e-10
0.00114646
-0.0011361
-1.29247e-06
-1.34462e-10
9.87914e-09
0.0011361
-3.15646e-07
1.29606e-06
3.10824e-07
9.72595e-07
-3.13491e-07
-9.73299e-07
3.0567e-07
-0.00113577
-1.28738e-06
-5.16195e-09
9.43404e-09
0.00113577
-3.12944e-07
1.29054e-06
3.08793e-07
9.74022e-07
-3.15508e-07
-9.72042e-07
3.10337e-07
-0.000276024
1.32054e-06
1.28704e-06
-2.70517e-07
-2.74829e-07
0.000273962
-2.41635e-09
2.57137e-10
-0.00114646
-6.88821e-10
-5.99177e-10
0.00114646
-0.0011361
-1.29276e-06
-6.60836e-10
1.04618e-08
0.0011361
-3.15855e-07
1.29565e-06
3.10211e-07
9.73423e-07
-3.13196e-07
-9.72431e-07
3.05917e-07
-0.00113577
-1.2872e-06
-5.18182e-09
9.43348e-09
0.00113577
-3.12871e-07
1.29048e-06
3.08566e-07
9.74523e-07
-3.15015e-07
-9.7139e-07
3.10585e-07
-0.00027602
1.3212e-06
1.28687e-06
-2.70287e-07
-2.75584e-07
0.000273958
-1.79026e-10
8.28473e-10
-0.00114646
-1.48028e-09
-2.59827e-09
0.00114647
-0.00113609
-1.29169e-06
-1.12351e-09
7.03793e-09
0.00113609
-3.15294e-07
1.29679e-06
3.10752e-07
9.73475e-07
-3.12644e-07
-9.72244e-07
3.06408e-07
-0.00113576
-1.28684e-06
-2.94748e-09
8.89658e-09
0.00113576
-3.12626e-07
1.29052e-06
3.08493e-07
9.74219e-07
-3.15263e-07
-9.71686e-07
3.10101e-07
-0.000276016
1.32145e-06
1.28659e-06
-2.69851e-07
-2.76122e-07
0.000273954
1.66105e-09
8.88482e-10
-0.00114646
-1.63991e-09
-3.98716e-09
0.00114646
-0.00113609
-1.29073e-06
-1.04546e-09
4.72602e-09
0.00113609
-3.14332e-07
1.29757e-06
3.11633e-07
9.72915e-07
-3.13093e-07
-9.7294e-07
3.05881e-07
-0.00113575
-1.28671e-06
-1.31773e-09
8.90795e-09
0.00113575
-3.1267e-07
1.29048e-06
3.08209e-07
9.73571e-07
-3.15948e-07
-9.72514e-07
3.09411e-07
-0.000276013
1.32139e-06
1.28625e-06
-2.69368e-07
-2.76408e-07
0.000273952
4.60402e-10
-2.27854e-10
-0.00114646
-9.97946e-10
-3.33537e-09
0.00114647
-0.00113609
-1.29146e-06
-2.47866e-09
6.72013e-09
0.00113609
-3.14699e-07
1.2969e-06
3.1123e-07
9.73459e-07
-3.13169e-07
-9.72575e-07
3.05972e-07
-0.00113574
-1.28684e-06
-1.59772e-10
9.93381e-09
0.00113574
-3.12766e-07
1.29049e-06
3.08263e-07
9.73165e-07
-3.16459e-07
-9.73033e-07
3.08886e-07
-0.000276014
1.32132e-06
1.28566e-06
-2.6899e-07
-2.76541e-07
0.000273952
1.14038e-09
-9.50892e-09
-0.00114646
-1.09432e-09
-3.38189e-09
0.00114647
-0.00113609
-1.29175e-06
-3.01934e-09
8.09651e-09
0.00113609
-3.14983e-07
1.29668e-06
3.10905e-07
9.7336e-07
-3.1292e-07
-9.72535e-07
3.06093e-07
-0.00113574
-1.28666e-06
-3.05994e-10
1.04283e-08
0.00113574
-3.12563e-07
1.2906e-06
3.08211e-07
9.72703e-07
-3.16838e-07
-9.73617e-07
3.08352e-07
-0.000276017
1.32112e-06
1.28513e-06
-2.68582e-07
-2.765e-07
0.000273956
5.312e-10
-9.44031e-10
-0.00114647
-6.45297e-10
-1.70827e-09
0.00114647
-0.00113609
-1.29171e-06
-3.10646e-09
8.88356e-09
0.00113608
-3.12005e-07
1.29674e-06
3.08182e-07
9.73229e-07
-3.13068e-07
-9.72619e-07
3.05898e-07
-0.00113574
-1.28665e-06
-2.76723e-09
1.09158e-08
0.00113574
-3.12529e-07
1.29046e-06
3.0796e-07
9.73747e-07
-3.16412e-07
-9.72625e-07
3.0861e-07
-0.000276022
1.32043e-06
1.28543e-06
-2.68972e-07
-2.75534e-07
0.000273961
-1.36791e-09
-5.85686e-10
-0.00114647
-7.98316e-10
-1.2029e-10
0.00114647
-0.00113608
-1.29193e-06
-2.38748e-09
9.57567e-09
0.00113608
-3.12105e-07
1.29635e-06
3.08024e-07
9.73005e-07
-3.1337e-07
-9.72805e-07
3.05599e-07
-0.00113573
-1.28659e-06
-5.08313e-09
1.01404e-08
0.00113573
-3.12532e-07
1.29042e-06
3.07814e-07
9.74791e-07
-3.15657e-07
-9.71728e-07
3.09266e-07
-0.000276025
1.31985e-06
1.28611e-06
-2.69949e-07
-2.7438e-07
0.000273964
3.01881e-10
-4.84135e-10
-0.00114647
-2.01069e-09
-1.45891e-09
0.00114648
-0.00113608
-1.29162e-06
-2.09062e-09
7.45931e-09
0.00113608
-3.12036e-07
1.29683e-06
3.08165e-07
9.73188e-07
-3.13154e-07
-9.72595e-07
3.05757e-07
-0.00113573
-1.28616e-06
-4.26548e-09
8.03838e-09
0.00113573
-3.12089e-07
1.29085e-06
3.08172e-07
9.74079e-07
-3.1531e-07
-9.72019e-07
3.09381e-07
-0.000276025
1.31994e-06
1.28653e-06
-2.70364e-07
-2.74199e-07
0.000273963
3.28497e-09
1.53528e-09
-0.00114647
-3.74582e-09
-4.10281e-09
0.00114648
-0.00113608
-1.29066e-06
2.15513e-10
3.65374e-09
0.00113608
-3.11083e-07
1.29762e-06
3.09154e-07
9.72339e-07
-3.13472e-07
-9.7331e-07
3.05434e-07
-0.00113573
-1.28552e-06
-1.03781e-09
5.59202e-09
0.00113573
-3.11476e-07
1.29146e-06
3.08687e-07
9.7328e-07
-3.16022e-07
-9.72722e-07
3.0849e-07
-0.000276024
1.32032e-06
1.28642e-06
-2.70197e-07
-2.74645e-07
0.000273962
4.19168e-09
3.83958e-09
-0.00114647
-4.72062e-09
-5.44158e-09
0.00114647
-0.00113608
-1.29052e-06
7.54803e-10
3.25252e-09
0.00113608
-3.10922e-07
1.29772e-06
3.09304e-07
9.72405e-07
-3.139e-07
-9.73383e-07
3.05168e-07
-0.00113572
-1.28519e-06
1.16964e-09
4.53799e-09
0.00113572
-3.11165e-07
1.29178e-06
3.08964e-07
9.72365e-07
-3.16282e-07
-9.73513e-07
3.08259e-07
-0.000276023
1.32068e-06
1.28628e-06
-2.69953e-07
-2.7509e-07
0.000273962
3.51715e-09
1.40686e-09
-0.00114647
-3.51856e-09
-4.10616e-09
0.00114647
-0.00113608
-1.29081e-06
-1.80444e-09
4.69391e-09
0.00113608
-3.11145e-07
1.29763e-06
3.09022e-07
9.72924e-07
-3.13275e-07
-9.72648e-07
3.05844e-07
-0.00113572
-1.28542e-06
-4.56706e-10
4.61486e-09
0.00113572
-3.11398e-07
1.29157e-06
3.08707e-07
9.72622e-07
-3.15631e-07
-9.73039e-07
3.08926e-07
-0.000276022
1.32099e-06
1.28593e-06
-2.69445e-07
-2.7558e-07
0.00027396
5.22738e-06
5.23825e-06
0.000260567
-0.000259154
-5.94627e-06
-5.9325e-06
5.05398e-06
0.00026144
-0.000258684
-5.96335e-06
3.38091e-06
-5.22722e-06
5.0489e-06
0.000261473
-0.0002587
-5.97153e-06
3.37607e-06
5.22773e-06
0.000260579
-0.000259156
-5.91767e-06
-5.96076e-06
5.04709e-06
0.000261504
-0.000258715
-5.96889e-06
3.37071e-06
5.05399e-06
-5.22958e-06
0.000261448
-0.000258684
3.38597e-06
-5.97404e-06
1.06919e-05
1.05976e-05
-0.000252646
-0.000256096
-0.000255126
-0.000255126
-6.41812e-06
-4.11026e-06
-6.6536e-06
-6.41865e-06
-4.1112e-06
-6.65904e-06
-5.04202e-06
0.0010422
1.06511e-05
1.06026e-05
-0.000252649
-0.000256094
-0.000255129
-0.000255129
-6.42054e-06
-4.11048e-06
-6.65616e-06
-6.41579e-06
-4.10609e-06
-6.65145e-06
-5.04185e-06
0.00104208
1.07118e-05
1.06637e-05
-0.000252641
-0.000256089
-0.000255126
-0.000255121
-6.42053e-06
-4.11815e-06
-6.65627e-06
-6.42075e-06
-4.10837e-06
-6.65387e-06
-5.05653e-06
-5.04456e-06
0.00104214
1.07069e-05
1.06083e-05
-0.000252643
-0.000256091
-0.000255126
-0.000255126
-6.41568e-06
-4.11298e-06
-6.65102e-06
-6.4208e-06
-4.11111e-06
-6.65654e-06
-0.00025871
-5.96138e-06
3.36552e-06
-5.22728e-06
0.000261435
-0.000258682
3.38085e-06
-5.96356e-06
5.23029e-06
0.000260559
-0.00025914
-5.92025e-06
-5.95823e-06
-0.000258694
3.37324e-06
-5.95881e-06
-5.23785e-06
0.000261502
-0.00025871
3.36811e-06
-5.9668e-06
-0.000259151
-5.94609e-06
-5.93217e-06
5.66023e-06
5.69731e-06
-4.95348e-06
-4.94779e-06
0.00025911
-8.11842e-07
-7.76637e-07
0.000261577
-0.000259443
-2.76138e-07
-2.68959e-07
7.14125e-06
0.00105866
-4.5911e-06
-1.54952e-06
-2.11619e-06
-2.49064e-06
-6.63546e-06
-7.1195e-06
-2.99268e-06
-0.000263295
-0.000259719
-0.000262822
-5.67038e-06
1.46058e-05
7.08138e-06
0.00105902
-4.60942e-06
-1.54169e-06
-2.11884e-06
-2.50212e-06
-6.66719e-06
-7.13669e-06
-3.00909e-06
-0.000263369
-0.000259749
-0.000262863
0.00106199
2.11756e-06
-0.00106094
1.04274e-06
-1.75857e-06
-1.32508e-07
-7.46687e-07
-1.54095e-06
-2.90922e-07
-9.11427e-07
3.6434e-07
8.20113e-07
0.00106241
2.11914e-06
-0.00106136
1.03771e-06
-1.76866e-06
-1.24732e-07
-7.51324e-07
-1.54772e-06
-2.92179e-07
-9.12333e-07
3.68666e-07
-4.95147e-06
-4.94399e-06
0.00025912
-7.79151e-07
0.000261603
-0.000259464
-2.73361e-07
-2.66113e-07
6.86308e-06
0.0010595
-4.61537e-06
-1.60928e-06
-2.13244e-06
-2.50133e-06
-6.64902e-06
-7.13301e-06
-3.00324e-06
-0.00026339
-0.000259778
-0.000262876
-5.67033e-06
1.4641e-05
7.17576e-06
0.0010588
-4.60973e-06
-1.55189e-06
-2.12398e-06
-2.50422e-06
-6.66723e-06
-7.13626e-06
-3.00918e-06
-0.000259719
-0.000263346
-0.000262835
0.00106301
2.12618e-06
-0.00106195
1.02984e-06
-1.72847e-06
-1.34523e-07
-7.46722e-07
-1.54457e-06
-2.91615e-07
-9.09924e-07
3.66649e-07
8.09114e-07
0.0010621
2.12934e-06
-0.00106108
1.05317e-06
-1.75876e-06
-1.30001e-07
-7.46678e-07
-1.54355e-06
-2.89675e-07
-9.14785e-07
3.64385e-07
1.46373e-05
7.16181e-06
0.00105861
-4.59115e-06
-1.54951e-06
-2.1137e-06
-2.49214e-06
-6.63434e-06
-2.99105e-06
-7.11823e-06
-0.000259714
-0.000263291
-0.000262817
2.12498e-06
-0.0010617
1.03498e-06
-1.72849e-06
-1.31561e-07
-7.43193e-07
-1.54135e-06
-2.94678e-07
3.61311e-07
-9.09743e-07
8.10235e-07
0.00106189
2.12839e-06
-0.00106086
1.05258e-06
-1.75758e-06
-1.29239e-07
-7.45703e-07
-1.5444e-06
-2.93389e-07
-9.13135e-07
3.65898e-07
-4.95666e-06
-4.94413e-06
0.0002591
-7.70718e-07
0.000261555
-0.000259426
-2.76919e-07
-2.71742e-07
1.45389e-05
6.88149e-06
0.00105945
-4.61467e-06
-1.60873e-06
-2.13148e-06
-2.50061e-06
-6.65051e-06
-3.00487e-06
-7.1303e-06
-0.000259767
-0.000263388
-0.000262871
2.13138e-06
-0.00106139
1.05156e-06
-1.7264e-06
-1.34522e-07
-7.46515e-07
-1.53851e-06
-2.89518e-07
3.61482e-07
-9.12504e-07
7.71382e-07
0.00106291
2.1315e-06
-0.00106187
1.04017e-06
-1.72329e-06
-1.34436e-07
-7.43899e-07
-1.54138e-06
-2.92354e-07
-9.12683e-07
3.61402e-07
-0.000259441
-2.72666e-07
-2.716e-07
1.65138e-06
1.61617e-06
-6.95689e-07
-7.03986e-07
0.000259709
-9.07222e-07
-8.68559e-07
0.000262816
-0.000260649
-1.99031e-07
-1.91255e-07
8.33219e-07
0.00106318
-6.82835e-07
8.67479e-07
-9.51921e-08
4.23569e-07
-8.49658e-07
-1.43364e-06
-2.53844e-07
-1.65635e-06
1.65288e-06
8.27711e-07
0.00106361
-6.84938e-07
8.75643e-07
-9.45898e-08
4.28586e-07
-8.52688e-07
-1.43951e-06
-2.52381e-07
0.00106711
1.3909e-06
-0.00106578
7.00099e-07
-1.60514e-06
-7.01796e-08
-6.63188e-07
-1.39388e-06
-2.26522e-07
-8.35514e-07
4.5921e-07
9.12484e-07
0.00106755
1.39019e-06
-0.00106621
6.94754e-07
-1.61032e-06
-6.99116e-08
-6.62961e-07
-1.39648e-06
-2.26693e-07
-8.35231e-07
4.61858e-07
-6.95951e-07
-7.03401e-07
0.000259727
-8.73719e-07
0.000262841
-0.000260662
-1.98828e-07
-1.94008e-07
8.25834e-07
0.0010642
-6.80295e-07
8.32113e-07
-9.71786e-08
4.26523e-07
-8.53233e-07
-1.43648e-06
-2.52066e-07
-1.65163e-06
1.65808e-06
8.33254e-07
0.00106329
-6.85534e-07
8.67254e-07
-9.51184e-08
4.24048e-07
-8.52509e-07
-1.433e-06
-2.52324e-07
0.00106815
1.39133e-06
-0.00106682
6.99395e-07
-1.56782e-06
-7.46675e-08
-6.58513e-07
-1.39101e-06
-2.24172e-07
-8.35742e-07
4.62423e-07
9.01507e-07
0.00106723
1.38994e-06
-0.00106589
7.00547e-07
-1.60303e-06
-7.25854e-08
-6.63531e-07
-1.39297e-06
-2.2632e-07
-8.34598e-07
4.62434e-07
1.65378e-06
8.3314e-07
0.00106309
-6.84488e-07
8.65671e-07
-9.65751e-08
4.22726e-07
-8.54751e-07
-2.54186e-07
-1.43435e-06
1.39136e-06
-0.00106655
7.03084e-07
-1.57553e-06
-7.64496e-08
-6.57839e-07
-1.39049e-06
-2.24349e-07
4.62201e-07
-8.3505e-07
9.0441e-07
0.00106703
1.38623e-06
-0.00106568
7.01044e-07
-1.60251e-06
-7.21289e-08
-6.62844e-07
-1.39395e-06
-2.27483e-07
-8.3622e-07
4.58966e-07
-6.99203e-07
-7.0124e-07
0.000259689
-8.65682e-07
0.00026279
-0.000260629
-1.99349e-07
-1.94171e-07
1.6545e-06
8.20851e-07
0.00106413
-6.80455e-07
8.26597e-07
-1.01964e-07
4.20951e-07
-8.50352e-07
-2.57321e-07
-1.43086e-06
1.3912e-06
-0.00106622
6.98989e-07
-1.56519e-06
-7.66756e-08
-6.58142e-07
-1.38526e-06
-2.26297e-07
4.54318e-07
-8.3527e-07
8.68084e-07
0.00106806
1.39199e-06
-0.00106672
6.99703e-07
-1.56551e-06
-7.70809e-08
-6.58779e-07
-1.39355e-06
-2.26681e-07
-8.37772e-07
4.59252e-07
-0.000260637
-1.9911e-07
-1.94364e-07
1.60476e-06
1.57267e-06
-6.6096e-07
-6.68784e-07
0.000260968
-9.28329e-07
-8.91977e-07
0.000264096
-0.000261921
-1.79845e-07
-1.74655e-07
6.913e-07
0.00106846
-6.64694e-07
9.11861e-07
-6.68267e-08
4.61668e-07
-8.35243e-07
-1.39372e-06
-2.24038e-07
-1.61012e-06
1.37551e-06
7.01922e-07
0.00106889
-6.64569e-07
9.16994e-07
-6.66382e-08
4.67003e-07
-8.37485e-07
-1.39903e-06
-2.1936e-07
0.00107247
1.35995e-06
-0.00107114
6.73913e-07
-1.60567e-06
-5.58397e-08
-6.58452e-07
-1.40322e-06
-2.04766e-07
-8.29229e-07
4.71207e-07
9.33109e-07
0.00107289
1.36077e-06
-0.00107156
6.75081e-07
-1.61143e-06
-5.39666e-08
-6.61428e-07
-1.41118e-06
-2.00131e-07
-8.34281e-07
4.79442e-07
-6.6387e-07
-6.65894e-07
0.000260988
-8.94168e-07
0.000264124
-0.000261946
-1.77868e-07
-1.72402e-07
6.90859e-07
0.0010695
-6.6277e-07
8.75683e-07
-7.1357e-08
4.64816e-07
-8.37872e-07
-1.39877e-06
-2.19164e-07
-1.60267e-06
1.37513e-06
6.97379e-07
0.00106857
-6.65069e-07
9.08753e-07
-6.70405e-08
4.64738e-07
-8.36788e-07
-1.39562e-06
-2.18931e-07
0.0010735
1.36016e-06
-0.00107217
6.73645e-07
-1.57091e-06
-5.82625e-08
-6.56628e-07
-1.40547e-06
-1.9953e-07
-8.3417e-07
4.74774e-07
9.27812e-07
0.00107257
1.35997e-06
-0.00107125
6.75521e-07
-1.60621e-06
-5.40559e-08
-6.61571e-07
-1.40546e-06
-1.99764e-07
-8.33733e-07
4.7407e-07
1.38109e-06
6.924e-07
0.00106838
-6.62011e-07
9.06176e-07
-7.11114e-08
4.64299e-07
-8.37927e-07
-2.2203e-07
-1.39628e-06
1.36e-06
-0.00107191
6.74106e-07
-1.57384e-06
-5.81587e-08
-6.56336e-07
-1.40255e-06
-2.02047e-07
4.71671e-07
-8.31013e-07
9.22251e-07
0.00107237
1.35963e-06
-0.00107105
6.75262e-07
-1.60115e-06
-5.82333e-08
-6.56186e-07
-1.40278e-06
-2.02047e-07
-8.31152e-07
4.71603e-07
-6.64069e-07
-6.68676e-07
0.000260953
-8.89139e-07
0.000264075
-0.000261905
-1.80171e-07
-1.72421e-07
1.37679e-06
6.96448e-07
0.0010694
-6.57743e-07
8.67332e-07
-7.58685e-08
4.61747e-07
-8.34737e-07
-2.21673e-07
-1.39352e-06
1.36036e-06
-0.00107157
6.73778e-07
-1.56829e-06
-6.0114e-08
-6.53567e-07
-1.40284e-06
-1.99689e-07
4.71466e-07
-8.34111e-07
8.88737e-07
0.00107341
1.36097e-06
-0.00107208
6.74328e-07
-1.56882e-06
-6.04636e-08
-6.54154e-07
-1.40032e-06
-2.02221e-07
-8.31327e-07
4.68928e-07
-0.000261918
-1.77924e-07
-1.72854e-07