/*--------------------------------*- C++ -*----------------------------------*\
| =========                 |                                                 |
| \\      /  F ield         | OpenFOAM: The Open Source CFD Toolbox           |
|  \\    /   O peration     | Version:  v2012                                 |
|   \\  /    A nd           | Website:  www.openfoam.com                      |
|    \\/     M anipulation  |                                                 |
\*---------------------------------------------------------------------------*/
FoamFile
{
    version     2.0;
    format      ascii;
    class       volVectorField;
    location    "100";
    object      U;
}
// * * * * * * * * * * * * * * * * * * * * * * * * * * * * * * * * * * * * * //

dimensions      [0 1 -1 0 0 0 0];


internalField   nonuniform List<vector> 
85864
(
(0.000106225 0.00010616 0.100295)
(-0.000184948 0.000115698 0.10039)
(0.000115838 -0.000184985 0.10039)
(-0.000247554 -0.000247957 0.100398)
(9.71397e-05 9.70306e-05 0.100854)
(-0.000151467 9.3396e-05 0.100938)
(9.35281e-05 -0.000151435 0.100939)
(-0.00019436 -0.000194239 0.100971)
(9.70847e-05 9.71017e-05 0.101368)
(-0.000152277 9.08691e-05 0.101447)
(9.08922e-05 -0.000152194 0.101448)
(-0.000194959 -0.000194866 0.101475)
(9.47894e-05 9.49183e-05 0.101886)
(-0.00014924 8.72796e-05 0.101954)
(8.71634e-05 -0.000149231 0.101954)
(-0.000192308 -0.000192291 0.101968)
(9.14273e-05 9.15119e-05 0.102391)
(-0.000143743 8.25309e-05 0.102442)
(8.24454e-05 -0.000143637 0.102442)
(-0.000186997 -0.000186951 0.102436)
(8.81488e-05 8.80398e-05 0.102877)
(-0.000137837 7.84194e-05 0.102907)
(7.83955e-05 -0.000137737 0.102907)
(-0.000181601 -0.000181525 0.102875)
(8.50009e-05 8.48745e-05 0.103344)
(-0.000132428 7.5197e-05 0.103349)
(7.51622e-05 -0.000132328 0.103349)
(-0.00017693 -0.000176889 0.103285)
(8.21793e-05 8.21456e-05 0.103793)
(-0.000127745 7.2681e-05 0.103768)
(7.25476e-05 -0.000127619 0.103768)
(-0.000173118 -0.000173104 0.103669)
(7.98365e-05 7.98484e-05 0.104226)
(-0.000123637 7.06556e-05 0.104168)
(7.05093e-05 -0.000123578 0.104168)
(-0.000170122 -0.000170158 0.104028)
(7.79208e-05 7.78564e-05 0.104646)
(-0.000120048 6.92371e-05 0.104551)
(6.91327e-05 -0.000120055 0.104551)
(-0.000167889 -0.00016795 0.104364)
(7.62378e-05 7.6103e-05 0.105053)
(-0.000116827 6.81075e-05 0.104917)
(6.81408e-05 -0.000116861 0.104917)
(-0.00016622 -0.00016635 0.104679)
(7.46755e-05 7.45184e-05 0.10545)
(-0.000113858 6.70874e-05 0.105269)
(6.71534e-05 -0.000113848 0.105269)
(-0.000164759 -0.000164892 0.104973)
(7.31601e-05 7.30474e-05 0.105836)
(-0.000111189 6.60956e-05 0.105606)
(6.61448e-05 -0.000111161 0.105606)
(-0.000163456 -0.000163583 0.105247)
(7.16797e-05 7.16312e-05 0.106213)
(-0.000108752 6.5043e-05 0.10593)
(6.50728e-05 -0.000108699 0.10593)
(-0.000162246 -0.000162248 0.105499)
(7.0328e-05 7.03104e-05 0.106581)
(-0.000106459 6.40298e-05 0.106239)
(6.40271e-05 -0.000106413 0.106239)
(-0.000160773 -0.000160716 0.10573)
(6.90085e-05 6.89883e-05 0.10694)
(-0.000104143 6.28889e-05 0.106533)
(6.28731e-05 -0.000104153 0.106533)
(-0.000158703 -0.000158707 0.105937)
(6.72718e-05 6.72302e-05 0.10729)
(-0.000101212 6.12176e-05 0.106812)
(6.11953e-05 -0.000101297 0.106812)
(-0.000155406 -0.000155516 0.10612)
(6.41987e-05 6.41695e-05 0.107624)
(-9.6774e-05 5.846e-05 0.10707)
(5.84944e-05 -9.69936e-05 0.10707)
(-0.000149687 -0.000149815 0.106275)
(5.88647e-05 5.87676e-05 0.107934)
(-8.95839e-05 5.38395e-05 0.107299)
(5.3973e-05 -8.97362e-05 0.107299)
(-0.000140395 -0.000140492 0.106397)
(5.10992e-05 5.09413e-05 0.108206)
(-7.80939e-05 4.69547e-05 0.107489)
(4.7077e-05 -7.80977e-05 0.107489)
(-0.000127315 -0.000127178 0.106482)
(4.14339e-05 4.14797e-05 0.108429)
(-6.40157e-05 3.90678e-05 0.107634)
(3.89502e-05 -6.37719e-05 0.107634)
(-0.00011302 -0.000112366 0.10653)
(3.16654e-05 3.19505e-05 0.108602)
(-4.97781e-05 3.09104e-05 0.107735)
(3.07354e-05 -4.97685e-05 0.107736)
(-9.87913e-05 -9.85398e-05 0.106547)
(2.28115e-05 2.31846e-05 0.108729)
(-3.6967e-05 2.35688e-05 0.1078)
(2.31511e-05 -3.71716e-05 0.107801)
(-8.6545e-05 -8.67091e-05 0.106544)
(1.47882e-05 1.48641e-05 0.108816)
(-2.51368e-05 1.66048e-05 0.10784)
(1.62933e-05 -2.5225e-05 0.10784)
(-7.61854e-05 -7.64129e-05 0.106533)
(8.20731e-06 8.04992e-06 0.108868)
(-1.49154e-05 9.86398e-06 0.10786)
(1.01984e-05 -1.51713e-05 0.107861)
(-6.77334e-05 -6.80191e-05 0.106524)
(3.90329e-06 3.62144e-06 0.108894)
(-8.58715e-06 5.62689e-06 0.107868)
(5.87764e-06 -8.45494e-06 0.107869)
(-6.22233e-05 -6.25329e-05 0.106517)
(1.3333e-06 1.06879e-06 0.108906)
(-5.01346e-06 3.47934e-06 0.107868)
(3.51198e-06 -4.79676e-06 0.107871)
(-5.95852e-05 -5.97738e-05 0.106512)
(-1.92206e-07 -1.39576e-07 0.108911)
(-2.8498e-06 2.31296e-06 0.107867)
(2.25944e-06 -2.85404e-06 0.10787)
(-5.81791e-05 -5.79953e-05 0.10651)
(-8.55877e-07 -6.68396e-07 0.108913)
(-2.18546e-06 1.87201e-06 0.107866)
(1.45349e-06 -1.63932e-06 0.107869)
(-5.82342e-05 -5.74986e-05 0.106508)
(-1.06945e-06 -1.03371e-06 0.108913)
(-1.79475e-06 1.80213e-06 0.107865)
(1.80241e-06 -1.60522e-06 0.107868)
(-5.81203e-05 -5.80753e-05 0.106505)
(-1.06023e-06 -1.09293e-06 0.108914)
(-1.34841e-06 2.06322e-06 0.107864)
(2.35741e-06 -1.77739e-06 0.107866)
(-5.78402e-05 -5.84458e-05 0.106501)
(-1.13948e-06 -1.19845e-06 0.108914)
(-1.19865e-06 2.19266e-06 0.107863)
(2.2535e-06 -1.58321e-06 0.107865)
(-5.79068e-05 -5.83149e-05 0.106496)
(-1.13796e-06 -1.20192e-06 0.108914)
(-1.2261e-06 2.23443e-06 0.107862)
(2.26712e-06 -1.46328e-06 0.107864)
(-5.80872e-05 -5.8292e-05 0.106493)
(-1.00579e-06 -1.07551e-06 0.108914)
(-1.17981e-06 2.51846e-06 0.107861)
(2.4654e-06 -1.24959e-06 0.107864)
(-5.76193e-05 -5.80705e-05 0.10649)
(-8.74671e-07 -9.20805e-07 0.108914)
(-1.19763e-06 2.30571e-06 0.107861)
(2.28794e-06 -1.15637e-06 0.107864)
(-5.7927e-05 -5.78875e-05 0.106487)
(-9.46567e-07 -8.51748e-07 0.108915)
(-1.47919e-06 2.19263e-06 0.10786)
(2.15314e-06 -1.03533e-06 0.107864)
(-5.81098e-05 -5.77587e-05 0.106485)
(-1.03637e-06 -9.86099e-07 0.108915)
(-1.40259e-06 2.2832e-06 0.10786)
(2.24417e-06 -1.00965e-06 0.107863)
(-5.80437e-05 -5.80274e-05 0.106484)
(-1.15621e-06 -1.23512e-06 0.108915)
(-1.3727e-06 1.93549e-06 0.10786)
(2.13479e-06 -1.16901e-06 0.107862)
(-5.79234e-05 -5.82029e-05 0.106482)
(-1.12828e-06 -1.43628e-06 0.108915)
(-1.41796e-06 1.58922e-06 0.107859)
(2.10062e-06 -1.26515e-06 0.107861)
(-5.77458e-05 -5.82664e-05 0.106481)
(-1.08496e-06 -1.35072e-06 0.108915)
(-1.28507e-06 1.8337e-06 0.107859)
(2.21225e-06 -1.42344e-06 0.107861)
(-5.75382e-05 -5.82362e-05 0.106481)
(-1.04157e-06 -1.37075e-06 0.108915)
(-1.22171e-06 1.97805e-06 0.107859)
(2.21964e-06 -1.40468e-06 0.10786)
(-5.73196e-05 -5.82091e-05 0.106483)
(-1.0612e-06 -1.18579e-06 0.108915)
(-1.22349e-06 2.0089e-06 0.107859)
(2.36538e-06 -1.28093e-06 0.10786)
(-5.74756e-05 -5.78719e-05 0.106485)
(-1.05585e-06 -1.00845e-06 0.108915)
(-1.27104e-06 2.05462e-06 0.107859)
(2.24637e-06 -1.14434e-06 0.10786)
(-5.78333e-05 -5.75027e-05 0.106486)
(-1.20206e-06 -1.13287e-06 0.108916)
(-1.29469e-06 1.91357e-06 0.107859)
(2.02106e-06 -1.1481e-06 0.107859)
(-5.80362e-05 -5.74723e-05 0.106486)
(-1.36694e-06 -1.39375e-06 0.108916)
(-1.5183e-06 1.47937e-06 0.107859)
(1.74544e-06 -1.37459e-06 0.107859)
(-5.79561e-05 -5.76589e-05 0.106485)
(-1.46676e-06 -1.5238e-06 0.108915)
(-1.58976e-06 1.48153e-06 0.107859)
(1.61132e-06 -1.63802e-06 0.107859)
(-5.78591e-05 -5.77975e-05 0.106485)
(-1.365e-06 -1.45245e-06 0.108915)
(-1.36591e-06 1.62533e-06 0.107859)
(1.60138e-06 -1.48173e-06 0.107858)
(-5.77035e-05 -5.79339e-05 0.106484)
(0.000138618 0.000138575 0.100281)
(0.00012664 0.00015984 0.10023)
(-0.000126596 0.000159823 0.10023)
(-0.000138515 0.000138459 0.100281)
(0.000159859 0.000126599 0.10023)
(0.000159946 -0.000126577 0.10023)
(9.37279e-05 9.36705e-05 0.100152)
(-9.37342e-05 9.36408e-05 0.100152)
(9.37421e-05 -9.37733e-05 0.100152)
(-9.36496e-05 -9.37493e-05 0.100152)
(-0.0001599 0.000126476 0.10023)
(-0.000159864 -0.000126628 0.10023)
(0.000138521 -0.000138599 0.100281)
(0.000126571 -0.000159978 0.10023)
(-0.000126463 -0.000159949 0.10023)
(-0.000138419 -0.000138502 0.100281)
(0.000247898 0.000247872 0.100398)
(0.000113033 0.000112811 0.100897)
(0.00011588 0.000184741 0.10039)
(-0.000115816 0.000184785 0.10039)
(9.30781e-05 0.000148774 0.100817)
(-9.29037e-05 0.000148966 0.100817)
(-0.000247803 0.00024769 0.100398)
(-0.000112881 0.00011276 0.100897)
(0.000184915 0.000115698 0.10039)
(0.00018489 -0.000115883 0.10039)
(0.000148788 9.28456e-05 0.100817)
(0.000148997 -9.30421e-05 0.100817)
(-0.000184657 -0.000115785 0.100391)
(-0.000148894 9.28976e-05 0.100817)
(-0.00014851 -9.26703e-05 0.100817)
(0.000247821 -0.000247914 0.100398)
(0.000113046 -0.000113104 0.100897)
(-0.000115724 -0.000184937 0.10039)
(9.29914e-05 -0.000148961 0.100817)
(-9.2903e-05 -0.00014902 0.100817)
(-0.000112807 -0.000112745 0.100897)
(0.000194537 0.000194325 0.100971)
(0.0001055 0.000105565 0.101399)
(9.35493e-05 0.000151344 0.100938)
(-9.34452e-05 0.00015143 0.100938)
(9.13273e-05 0.000152204 0.101319)
(-9.13641e-05 0.000152183 0.101319)
(-0.000194369 0.000194278 0.100971)
(-0.000105483 0.000105546 0.101399)
(0.000151251 9.33795e-05 0.100938)
(0.000151484 -9.35659e-05 0.100939)
(0.000152031 9.13752e-05 0.101319)
(0.000152218 -9.14886e-05 0.101319)
(-0.000151234 -9.32482e-05 0.100938)
(-0.000152249 9.13536e-05 0.101319)
(-0.000152241 -9.13545e-05 0.101319)
(0.000194521 -0.000194605 0.100971)
(0.00010561 -0.000105682 0.101399)
(-9.35015e-05 -0.000151543 0.100939)
(9.14398e-05 -0.000152143 0.101319)
(-9.15211e-05 -0.000152306 0.101319)
(-0.00010571 -0.000105581 0.101399)
(0.000194785 0.000194848 0.101475)
(9.77227e-05 9.78203e-05 0.101896)
(9.0739e-05 0.00015227 0.101447)
(-9.08248e-05 0.000152295 0.101447)
(8.80891e-05 0.000150441 0.101829)
(-8.82726e-05 0.000150588 0.101829)
(-0.00019475 0.000194825 0.101474)
(-9.79183e-05 9.79572e-05 0.101896)
(0.000152124 9.08366e-05 0.101448)
(0.000152295 -9.09281e-05 0.101448)
(0.000150285 8.82593e-05 0.101829)
(0.000150492 -8.83062e-05 0.101829)
(-0.000152318 -9.0885e-05 0.101448)
(-0.000150369 8.83844e-05 0.101829)
(-0.000150502 -8.83739e-05 0.101829)
(0.000194865 -0.000194945 0.101475)
(9.78583e-05 -9.79202e-05 0.101896)
(-9.10213e-05 -0.000152374 0.101448)
(8.82857e-05 -0.000150363 0.101829)
(-8.84363e-05 -0.000150501 0.101829)
(-9.80564e-05 -9.80157e-05 0.101896)
(0.000192042 0.000192116 0.101968)
(8.83786e-05 8.84809e-05 0.10237)
(8.69532e-05 0.000149306 0.101954)
(-8.71763e-05 0.000149451 0.101954)
(8.34181e-05 0.000145211 0.102322)
(-8.3632e-05 0.000145274 0.102322)
(-0.000192208 0.000192251 0.101967)
(-8.86809e-05 8.8607e-05 0.10237)
(0.00014911 8.71342e-05 0.101954)
(0.000149341 -8.71936e-05 0.101954)
(0.000144981 8.35881e-05 0.102322)
(0.000145175 -8.36177e-05 0.102322)
(-0.00014937 -8.72507e-05 0.101954)
(-0.000145212 8.37245e-05 0.102322)
(-0.000145273 -8.36668e-05 0.102322)
(0.000192167 -0.000192222 0.101968)
(8.85449e-05 -8.86202e-05 0.10237)
(-8.73176e-05 -0.000149338 0.101954)
(8.36058e-05 -0.000145124 0.102322)
(-8.37616e-05 -0.000145163 0.102322)
(-8.87118e-05 -8.86374e-05 0.10237)
(0.000186768 0.000186803 0.102436)
(7.98785e-05 7.97757e-05 0.102816)
(8.22882e-05 0.000143726 0.102442)
(-8.24741e-05 0.000143771 0.102442)
(7.93387e-05 0.00013928 0.102793)
(-7.93545e-05 0.000139297 0.102793)
(-0.000187004 0.000186882 0.102435)
(-7.98821e-05 7.98347e-05 0.102816)
(0.00014355 8.24205e-05 0.102442)
(0.000143683 -8.24541e-05 0.102442)
(0.000139333 7.93552e-05 0.102793)
(0.000139243 -7.92937e-05 0.102793)
(-0.000143787 -8.24718e-05 0.102442)
(-0.000139291 7.93556e-05 0.102793)
(-0.000139326 -7.93354e-05 0.102793)
(0.000186859 -0.00018697 0.102436)
(7.98533e-05 -7.97828e-05 0.102816)
(-8.25831e-05 -0.000143662 0.102442)
(7.93192e-05 -0.000139181 0.102793)
(-7.94141e-05 -0.000139197 0.102793)
(-7.99439e-05 -7.98093e-05 0.102816)
(0.000181642 0.000181455 0.102875)
(7.2266e-05 7.20788e-05 0.103234)
(7.84548e-05 0.000137836 0.102907)
(-7.84236e-05 0.000137863 0.102907)
(7.60066e-05 0.000133727 0.10324)
(-7.59152e-05 0.000133734 0.10324)
(-0.000181553 0.000181467 0.102875)
(-7.21302e-05 7.21304e-05 0.103234)
(0.00013795 7.84386e-05 0.102907)
(0.00013781 -7.83434e-05 0.102907)
(0.00013388 7.5945e-05 0.10324)
(0.000133709 -7.57943e-05 0.10324)
(-0.000137872 -7.84077e-05 0.102907)
(-0.000133712 7.59255e-05 0.10324)
(-0.000133721 -7.58956e-05 0.10324)
(0.00018151 -0.00018151 0.102875)
(7.21151e-05 -7.20081e-05 0.103234)
(-7.84752e-05 -0.00013775 0.102907)
(7.5911e-05 -0.000133621 0.103241)
(-7.59522e-05 -0.000133626 0.10324)
(-7.2191e-05 -7.20859e-05 0.103234)
(0.000177076 0.000176843 0.103285)
(6.53708e-05 6.53077e-05 0.103626)
(7.52644e-05 0.000132435 0.103349)
(-7.51857e-05 0.000132437 0.103349)
(7.32402e-05 0.000128839 0.103665)
(-7.32449e-05 0.000128804 0.103665)
(-0.000176904 0.000176858 0.103285)
(-6.5419e-05 6.53628e-05 0.103626)
(0.000132563 7.52014e-05 0.103349)
(0.000132407 -7.50461e-05 0.103349)
(0.000128844 7.3211e-05 0.103665)
(0.000128723 -7.30666e-05 0.103665)
(-0.000132415 -7.5148e-05 0.103349)
(-0.000128857 7.32601e-05 0.103665)
(-0.000128793 -7.31545e-05 0.103665)
(0.000176844 -0.000176825 0.103285)
(6.52326e-05 -6.52245e-05 0.103626)
(-7.52036e-05 -0.000132327 0.103349)
(7.3153e-05 -0.00012873 0.103665)
(-7.32179e-05 -0.000128718 0.103665)
(-6.53565e-05 -6.52809e-05 0.103626)
(0.000173186 0.000173067 0.103669)
(5.93285e-05 5.94066e-05 0.103993)
(7.26394e-05 0.000127713 0.103768)
(-7.26778e-05 0.000127669 0.103768)
(7.10469e-05 0.000124591 0.10407)
(-7.11163e-05 0.000124514 0.10407)
(-0.000173212 0.0001731 0.103669)
(-5.94894e-05 5.94423e-05 0.103993)
(0.000127684 7.26223e-05 0.103768)
(0.000127569 -7.2491e-05 0.103768)
(0.000124466 7.10514e-05 0.10407)
(0.000124377 -7.09605e-05 0.10407)
(-0.000127674 -7.25726e-05 0.103768)
(-0.000124614 7.11096e-05 0.10407)
(-0.000124551 -7.10218e-05 0.10407)
(0.000172956 -0.000173059 0.103669)
(5.92463e-05 -5.93206e-05 0.103993)
(-7.26291e-05 -0.000127597 0.103768)
(7.09591e-05 -0.000124532 0.10407)
(-7.10597e-05 -0.000124483 0.10407)
(-5.93953e-05 -5.93434e-05 0.103993)
(0.000170138 0.000170058 0.104028)
(5.43594e-05 5.45395e-05 0.104338)
(7.06293e-05 0.000123629 0.104168)
(-7.069e-05 0.000123543 0.104168)
(6.96755e-05 0.000120971 0.104457)
(-6.96714e-05 0.000120858 0.104457)
(-0.000170245 0.000170068 0.104028)
(-5.44426e-05 5.45578e-05 0.104338)
(0.000123489 7.0611e-05 0.104168)
(0.000123417 -7.05548e-05 0.104168)
(0.000120807 6.95247e-05 0.104457)
(0.000120819 -6.96036e-05 0.104457)
(-0.000123583 -7.05732e-05 0.104168)
(-0.000120902 6.95529e-05 0.104457)
(-0.000120883 -6.94962e-05 0.104457)
(0.000169876 -0.000170159 0.104028)
(5.44557e-05 -5.43027e-05 0.104338)
(-7.0589e-05 -0.000123517 0.104168)
(6.94155e-05 -0.000120892 0.104457)
(-6.94213e-05 -0.000120837 0.104457)
(-5.43649e-05 -5.4302e-05 0.104338)
(0.000167954 0.000167952 0.104364)
(5.00499e-05 5.01221e-05 0.104662)
(6.94002e-05 0.000120141 0.104551)
(-6.93645e-05 0.000120024 0.104551)
(6.86748e-05 0.000117771 0.104827)
(-6.85208e-05 0.000117638 0.104827)
(-0.000167973 0.00016793 0.104364)
(-4.99081e-05 5.00944e-05 0.104662)
(0.000119991 6.92282e-05 0.104551)
(0.000120023 -6.93313e-05 0.104551)
(0.000117665 6.84494e-05 0.104827)
(0.000117745 -6.85774e-05 0.104827)
(-0.000120045 -6.92171e-05 0.104551)
(-0.000117602 6.83825e-05 0.104827)
(-0.000117652 -6.84483e-05 0.104827)
(0.000167868 -0.000167955 0.104364)
(5.01581e-05 -4.99266e-05 0.104662)
(-6.91176e-05 -0.000120011 0.104551)
(6.83905e-05 -0.000117637 0.104827)
(-6.8307e-05 -0.000117651 0.104827)
(-4.99419e-05 -4.99774e-05 0.104662)
(0.000166398 0.00016631 0.104679)
(4.59805e-05 4.59481e-05 0.104967)
(6.84187e-05 0.000116995 0.104917)
(-6.82489e-05 0.000116875 0.104917)
(6.76882e-05 0.000114733 0.105182)
(-6.74934e-05 0.000114636 0.105182)
(-0.000166234 0.00016625 0.104679)
(-4.57843e-05 4.59498e-05 0.104967)
(0.00011692 6.81877e-05 0.104917)
(0.000117001 -6.83153e-05 0.104917)
(0.000114709 6.74557e-05 0.105182)
(0.000114768 -6.75603e-05 0.105182)
(-0.000116886 -6.81916e-05 0.104918)
(-0.000114569 6.73479e-05 0.105182)
(-0.000114649 -6.7437e-05 0.105183)
(0.000166344 -0.000166308 0.104679)
(4.60406e-05 -4.58136e-05 0.104967)
(-6.80401e-05 -0.000116893 0.104917)
(6.74128e-05 -0.000114575 0.105182)
(-6.72869e-05 -0.000114649 0.105182)
(-4.58103e-05 -4.58905e-05 0.104967)
(0.000164987 0.00016484 0.104973)
(4.21341e-05 4.20812e-05 0.105252)
(6.74241e-05 0.000114013 0.105269)
(-6.72366e-05 0.000113928 0.105269)
(6.66615e-05 0.000111903 0.105523)
(-6.65128e-05 0.000111872 0.105523)
(-0.000164756 0.000164789 0.104973)
(-4.20199e-05 4.21094e-05 0.105252)
(0.000113992 6.72051e-05 0.105269)
(0.00011404 -6.72976e-05 0.105269)
(0.0001119 6.64959e-05 0.105523)
(0.00011193 -6.6533e-05 0.105523)
(-0.000113937 -6.7175e-05 0.105269)
(-0.000111799 6.636e-05 0.105523)
(-0.000111872 -6.63994e-05 0.105524)
(0.000164913 -0.000164838 0.104973)
(4.21331e-05 -4.20277e-05 0.105252)
(-6.70314e-05 -0.000113929 0.105269)
(6.64242e-05 -0.000111778 0.105523)
(-6.63082e-05 -0.000111812 0.105523)
(-4.19957e-05 -4.20627e-05 0.105252)
(0.000163623 0.000163485 0.105247)
(3.83999e-05 3.8499e-05 0.105516)
(6.63684e-05 0.000111281 0.105606)
(-6.62478e-05 0.000111259 0.105606)
(6.558e-05 0.000109369 0.10585)
(-6.55426e-05 0.000109357 0.10585)
(-0.000163511 0.000163465 0.105247)
(-3.8316e-05 3.84703e-05 0.105517)
(0.000111265 6.62345e-05 0.105606)
(0.000111295 -6.62533e-05 0.105606)
(0.000109319 6.54721e-05 0.10585)
(0.000109341 -6.55206e-05 0.10585)
(-0.000111259 -6.6118e-05 0.105607)
(-0.000109313 6.53221e-05 0.10585)
(-0.000109383 -6.53577e-05 0.10585)
(0.000163522 -0.000163564 0.105247)
(3.8485e-05 -3.82957e-05 0.105516)
(-6.6055e-05 -0.000111181 0.105606)
(6.53639e-05 -0.000109259 0.10585)
(-6.52993e-05 -0.000109239 0.10585)
(-3.83964e-05 -3.82783e-05 0.105516)
(0.000162293 0.000162239 0.105499)
(3.4681e-05 3.48646e-05 0.10576)
(6.5285e-05 0.000108804 0.105929)
(-6.52755e-05 0.000108795 0.10593)
(6.45625e-05 0.000106973 0.106162)
(-6.46029e-05 0.000106967 0.106163)
(-0.000162253 0.000162212 0.105499)
(-3.46462e-05 3.48171e-05 0.10576)
(0.000108741 6.51876e-05 0.105929)
(0.000108766 -6.52494e-05 0.105929)
(0.00010689 6.44522e-05 0.106163)
(0.000106926 -6.45713e-05 0.106162)
(-0.000108822 -6.50855e-05 0.10593)
(-0.000106955 6.43148e-05 0.106163)
(-0.000107015 -6.43833e-05 0.106163)
(0.000162219 -0.000162269 0.105499)
(3.48517e-05 -3.46212e-05 0.10576)
(-6.50324e-05 -0.000108669 0.105929)
(6.43245e-05 -0.000106904 0.106163)
(-6.43101e-05 -0.000106844 0.106163)
(-3.47685e-05 -3.45548e-05 0.10576)
(0.000160741 0.00016076 0.105729)
(3.11419e-05 3.12805e-05 0.105981)
(6.42716e-05 0.000106476 0.106238)
(-6.43285e-05 0.00010648 0.106238)
(6.34897e-05 0.000104661 0.106461)
(-6.35723e-05 0.000104672 0.106461)
(-0.000160759 0.000160728 0.10573)
(-3.11218e-05 3.1247e-05 0.105981)
(0.00010639 6.41537e-05 0.106239)
(0.000106433 -6.42967e-05 0.106238)
(0.000104576 6.33617e-05 0.106461)
(0.000104624 -6.35554e-05 0.106461)
(-0.000106526 -6.412e-05 0.106239)
(-0.000104656 6.32594e-05 0.106461)
(-0.000104707 -6.3358e-05 0.106461)
(0.000160736 -0.000160784 0.105729)
(3.12696e-05 -3.11261e-05 0.105981)
(-6.40323e-05 -0.000106351 0.106238)
(6.32382e-05 -0.000104645 0.106461)
(-6.32418e-05 -0.000104567 0.106461)
(-3.11728e-05 -3.10505e-05 0.105981)
(0.000158683 0.000158687 0.105937)
(2.734e-05 2.74547e-05 0.106177)
(6.31199e-05 0.000104173 0.106533)
(-6.31974e-05 0.00010419 0.106533)
(6.1999e-05 0.000101958 0.106744)
(-6.20441e-05 0.000101962 0.106744)
(-0.000158709 0.000158683 0.105937)
(-2.73054e-05 2.73873e-05 0.106178)
(0.000104087 6.29903e-05 0.106533)
(0.000104147 -6.31985e-05 0.106533)
(0.000101865 6.18503e-05 0.106744)
(0.000101933 -6.20894e-05 0.106744)
(-0.000104209 -6.30146e-05 0.106533)
(-0.000101917 6.17654e-05 0.106744)
(-0.000101964 -6.18819e-05 0.106744)
(0.000158702 -0.000158804 0.105937)
(2.74093e-05 -2.73747e-05 0.106177)
(-6.28836e-05 -0.000104087 0.106533)
(6.1746e-05 -0.000101985 0.106744)
(-6.17206e-05 -0.000101905 0.106744)
(-2.73048e-05 -2.7299e-05 0.106178)
(0.000155449 0.000155436 0.10612)
(2.21824e-05 2.22891e-05 0.106346)
(6.14378e-05 0.000101285 0.106811)
(-6.14817e-05 0.000101296 0.106811)
(5.95682e-05 9.80413e-05 0.107007)
(-5.96104e-05 9.79696e-05 0.107007)
(-0.000155457 0.000155421 0.10612)
(-2.21311e-05 2.21878e-05 0.106346)
(0.000101206 6.12888e-05 0.106812)
(0.000101267 -6.15443e-05 0.106811)
(9.79701e-05 5.94329e-05 0.107008)
(9.80316e-05 -5.96867e-05 0.107007)
(-0.000101279 -6.13385e-05 0.106812)
(-9.78862e-05 5.93376e-05 0.107008)
(-9.79333e-05 -5.94366e-05 0.107007)
(0.000155451 -0.000155604 0.10612)
(2.22146e-05 -2.22643e-05 0.106346)
(-6.11726e-05 -0.00010123 0.106812)
(5.93566e-05 -9.81082e-05 0.107008)
(-5.92855e-05 -9.78919e-05 0.107008)
(-2.21187e-05 -2.21757e-05 0.106346)
(0.000149754 0.000149759 0.106274)
(1.44795e-05 1.45162e-05 0.106481)
(5.86773e-05 9.69685e-05 0.107069)
(-5.8714e-05 9.68938e-05 0.107069)
(5.56051e-05 9.16174e-05 0.107244)
(-5.55567e-05 9.15668e-05 0.107244)
(-0.00014976 0.000149707 0.106274)
(-1.43764e-05 1.439e-05 0.106482)
(9.69137e-05 5.8537e-05 0.10707)
(9.69683e-05 -5.87908e-05 0.107069)
(9.16049e-05 5.54241e-05 0.107244)
(9.16544e-05 -5.5601e-05 0.107244)
(-9.6834e-05 -5.85431e-05 0.107069)
(-9.15396e-05 5.53208e-05 0.107245)
(-9.15242e-05 -5.53361e-05 0.107244)
(0.000149756 -0.000149975 0.106274)
(1.4497e-05 -1.44723e-05 0.106482)
(-5.83921e-05 -9.67927e-05 0.10707)
(5.54151e-05 -9.17113e-05 0.107245)
(-5.52192e-05 -9.14904e-05 0.107245)
(-1.43301e-05 -1.43559e-05 0.106482)
(0.000140551 0.000140427 0.106395)
(3.64154e-06 3.43492e-06 0.106578)
(5.42126e-05 8.97281e-05 0.107298)
(-5.40361e-05 8.9669e-05 0.107298)
(4.94986e-05 8.12484e-05 0.107444)
(-4.90424e-05 8.11243e-05 0.107445)
(-0.000140442 0.000140389 0.106396)
(-3.16874e-06 3.253e-06 0.10658)
(8.97402e-05 5.40061e-05 0.107298)
(8.97822e-05 -5.40975e-05 0.107298)
(8.13946e-05 4.9218e-05 0.107445)
(8.13462e-05 -4.89809e-05 0.107445)
(-8.96079e-05 -5.38772e-05 0.107298)
(-8.11424e-05 4.89209e-05 0.107445)
(-8.1238e-05 -4.8881e-05 0.107445)
(0.00014054 -0.000140597 0.106396)
(3.47647e-06 -3.00804e-06 0.10658)
(-5.37847e-05 -8.95757e-05 0.107299)
(4.90825e-05 -8.12405e-05 0.107446)
(-4.89339e-05 -8.10515e-05 0.107445)
(-3.33521e-06 -3.17635e-06 0.10658)
(0.000127685 0.000127371 0.106479)
(-8.95236e-06 -9.07201e-06 0.106636)
(4.75869e-05 7.8312e-05 0.107487)
(-4.70197e-05 7.8188e-05 0.107488)
(4.1889e-05 6.77241e-05 0.1076)
(-4.11974e-05 6.75792e-05 0.107601)
(-0.000127168 0.000127108 0.106482)
(9.61034e-06 -9.54208e-06 0.106641)
(7.85097e-05 4.73475e-05 0.107488)
(7.84192e-05 -4.69476e-05 0.107488)
(6.78467e-05 4.17987e-05 0.1076)
(6.76941e-05 -4.09586e-05 0.107602)
(-7.83002e-05 -4.69841e-05 0.107488)
(-6.74503e-05 4.12745e-05 0.107602)
(-6.7678e-05 -4.11529e-05 0.107601)
(0.000127442 -0.000127089 0.106482)
(-9.45164e-06 1.02652e-05 0.106641)
(-4.71163e-05 -7.79952e-05 0.107489)
(4.11532e-05 -6.72096e-05 0.107602)
(-4.15404e-05 -6.70799e-05 0.107602)
(9.07184e-06 9.77457e-06 0.106639)
(0.000113148 0.000112911 0.106526)
(-2.20395e-05 -2.18469e-05 0.106661)
(3.96467e-05 6.43768e-05 0.107631)
(-3.8938e-05 6.41946e-05 0.107633)
(3.33363e-05 5.34483e-05 0.107711)
(-3.30393e-05 5.32859e-05 0.107713)
(-0.000112463 0.000112486 0.106532)
(2.23902e-05 -2.20319e-05 0.106667)
(6.44519e-05 3.96803e-05 0.107632)
(6.43099e-05 -3.86833e-05 0.107634)
(5.34373e-05 3.3572e-05 0.107712)
(5.30569e-05 -3.25806e-05 0.107714)
(-6.42653e-05 -3.89575e-05 0.107633)
(-5.30481e-05 3.30095e-05 0.107713)
(-5.32892e-05 -3.2687e-05 0.107712)
(0.000112601 -0.000112038 0.106532)
(-2.26736e-05 2.24642e-05 0.106669)
(-3.93397e-05 -6.36156e-05 0.107634)
(3.28947e-05 -5.29797e-05 0.107714)
(-3.31448e-05 -5.2728e-05 0.107713)
(2.21235e-05 2.24689e-05 0.106665)
(9.89083e-05 9.90611e-05 0.106542)
(-3.36462e-05 -3.31393e-05 0.106663)
(3.1111e-05 5.02931e-05 0.107732)
(-3.09489e-05 5.01331e-05 0.107734)
(2.52282e-05 4.03483e-05 0.107784)
(-2.54035e-05 4.02139e-05 0.107786)
(-9.85506e-05 9.89162e-05 0.106549)
(3.34556e-05 -3.30311e-05 0.10667)
(5.0105e-05 3.13198e-05 0.107733)
(4.98663e-05 -3.04676e-05 0.107736)
(3.98455e-05 2.55392e-05 0.107785)
(3.97512e-05 -2.51124e-05 0.107788)
(-5.00736e-05 -3.06134e-05 0.107733)
(-3.99547e-05 2.54971e-05 0.107787)
(-3.99597e-05 -2.51789e-05 0.107785)
(9.83119e-05 -9.86746e-05 0.106551)
(-3.37848e-05 3.32542e-05 0.106673)
(-3.10058e-05 -4.95816e-05 0.107735)
(2.51803e-05 -4.00812e-05 0.107787)
(-2.50863e-05 -3.99986e-05 0.107787)
(3.37923e-05 3.36838e-05 0.106667)
(8.6644e-05 8.70271e-05 0.106539)
(-4.43825e-05 -4.37881e-05 0.106655)
(2.3109e-05 3.73751e-05 0.107797)
(-2.33732e-05 3.73201e-05 0.107799)
(1.76293e-05 2.79586e-05 0.107829)
(-1.823e-05 2.8287e-05 0.107831)
(-8.67957e-05 8.71944e-05 0.106545)
(4.33456e-05 -4.33125e-05 0.10666)
(3.68797e-05 2.3395e-05 0.107799)
(3.69584e-05 -2.32273e-05 0.107802)
(2.75591e-05 1.77472e-05 0.107831)
(2.79846e-05 -1.86783e-05 0.107833)
(-3.70379e-05 -2.3426e-05 0.107798)
(-2.78764e-05 1.85322e-05 0.107832)
(-2.7743e-05 -1.84283e-05 0.10783)
(8.65954e-05 -8.71333e-05 0.106549)
(-4.33844e-05 4.34232e-05 0.106663)
(-2.31045e-05 -3.72187e-05 0.1078)
(1.80045e-05 -2.79296e-05 0.107832)
(-1.77713e-05 -2.82251e-05 0.107831)
(4.36236e-05 4.33328e-05 0.106658)
(7.56062e-05 7.60132e-05 0.106529)
(-5.29149e-05 -5.28071e-05 0.106652)
(1.56984e-05 2.53393e-05 0.107837)
(-1.63989e-05 2.56318e-05 0.107838)
(1.09516e-05 1.73615e-05 0.107855)
(-1.17546e-05 1.73562e-05 0.107854)
(-7.64031e-05 7.6352e-05 0.106533)
(5.20426e-05 -5.19811e-05 0.10665)
(2.50652e-05 1.56518e-05 0.107839)
(2.53568e-05 -1.69501e-05 0.10784)
(1.70771e-05 1.07576e-05 0.107856)
(1.73916e-05 -1.21003e-05 0.107856)
(-2.50016e-05 -1.66241e-05 0.107838)
(-1.70435e-05 1.15169e-05 0.107856)
(-1.73002e-05 -1.18796e-05 0.107854)
(7.65679e-05 -7.65875e-05 0.106537)
(-5.17761e-05 5.18795e-05 0.106652)
(-1.59391e-05 -2.55998e-05 0.107839)
(1.18038e-05 -1.72861e-05 0.107857)
(-1.14493e-05 -1.74315e-05 0.107856)
(5.19085e-05 5.17869e-05 0.10665)
(6.70112e-05 6.69409e-05 0.106526)
(-5.79477e-05 -5.76169e-05 0.106651)
(9.40957e-06 1.53148e-05 0.107858)
(-1.0226e-05 1.53172e-05 0.107858)
(6.84283e-06 9.78071e-06 0.107866)
(-7.16084e-06 9.38638e-06 0.107864)
(-6.74169e-05 6.75434e-05 0.106522)
(5.73529e-05 -5.77134e-05 0.106643)
(1.51848e-05 9.26813e-06 0.10786)
(1.54705e-05 -1.0444e-05 0.10786)
(9.72554e-06 6.28016e-06 0.107868)
(1.00218e-05 -7.05402e-06 0.107867)
(-1.52614e-05 -1.02025e-05 0.107858)
(-9.6913e-06 6.61454e-06 0.107866)
(-9.76507e-06 -6.84797e-06 0.107864)
(6.80933e-05 -6.80106e-05 0.106524)
(-5.7246e-05 5.77069e-05 0.106646)
(-9.93195e-06 -1.53565e-05 0.107859)
(6.94683e-06 -9.77882e-06 0.107868)
(-6.7703e-06 -9.99108e-06 0.107866)
(5.76329e-05 5.73656e-05 0.106644)
(6.20298e-05 6.22369e-05 0.106523)
(-6.02569e-05 -6.07937e-05 0.106647)
(5.92945e-06 8.56466e-06 0.107867)
(-6.07672e-06 8.14126e-06 0.107865)
(4.27412e-06 4.84275e-06 0.107869)
(-4.36837e-06 4.80119e-06 0.107867)
(-6.23016e-05 6.19135e-05 0.106515)
(5.99486e-05 -6.06973e-05 0.106637)
(8.58936e-06 5.3366e-06 0.107869)
(8.86956e-06 -5.96747e-06 0.107868)
(5.51224e-06 3.92103e-06 0.107871)
(5.46954e-06 -4.17922e-06 0.107869)
(-8.46407e-06 -5.82666e-06 0.107865)
(-5.70106e-06 4.09533e-06 0.107869)
(-5.3927e-06 -4.27818e-06 0.107867)
(6.2593e-05 -6.22081e-05 0.106518)
(-6.06581e-05 6.04755e-05 0.106642)
(-5.82774e-06 -8.81543e-06 0.107866)
(4.1556e-06 -5.39449e-06 0.10787)
(-4.16368e-06 -5.60519e-06 0.107868)
(6.02611e-05 6.00962e-05 0.106639)
(5.96895e-05 5.89952e-05 0.106519)
(-6.12477e-05 -6.2058e-05 0.106643)
(3.59725e-06 4.30806e-06 0.107869)
(-3.77e-06 4.36517e-06 0.107867)
(2.71346e-06 2.67378e-06 0.107869)
(-3.05242e-06 2.99089e-06 0.107867)
(-5.97173e-05 5.92059e-05 0.106509)
(6.16665e-05 -6.15851e-05 0.106633)
(4.92173e-06 3.35163e-06 0.107871)
(4.94985e-06 -3.54513e-06 0.107869)
(3.0708e-06 2.96516e-06 0.10787)
(3.09746e-06 -2.74266e-06 0.107868)
(-4.81857e-06 -3.55571e-06 0.107867)
(-3.14116e-06 2.66617e-06 0.107868)
(-3.22068e-06 -2.57766e-06 0.107867)
(5.93283e-05 -5.96378e-05 0.106514)
(-6.20275e-05 6.16454e-05 0.10664)
(-3.53211e-06 -4.85969e-06 0.107868)
(2.77106e-06 -3.24884e-06 0.10787)
(-2.71807e-06 -2.85144e-06 0.107868)
(6.18153e-05 6.20371e-05 0.106637)
(5.87634e-05 5.78866e-05 0.106515)
(-6.19651e-05 -6.19425e-05 0.106638)
(2.27561e-06 2.59437e-06 0.107869)
(-2.70448e-06 2.93206e-06 0.107866)
(2.24426e-06 1.85093e-06 0.107868)
(-2.61395e-06 2.15833e-06 0.107865)
(-5.81577e-05 5.83245e-05 0.106505)
(6.17889e-05 -6.20244e-05 0.106631)
(2.93059e-06 2.65914e-06 0.107869)
(2.80815e-06 -2.2551e-06 0.107868)
(1.86297e-06 2.63967e-06 0.107868)
(1.67549e-06 -2.2738e-06 0.107867)
(-3.0101e-06 -2.12521e-06 0.107867)
(-2.21808e-06 2.18136e-06 0.107867)
(-2.30197e-06 -2.06134e-06 0.107866)
(5.8012e-05 -5.84476e-05 0.106513)
(-6.2305e-05 6.28254e-05 0.106639)
(-2.3595e-06 -2.54955e-06 0.107868)
(1.74469e-06 -1.80341e-06 0.107869)
(-2.3166e-06 -1.62646e-06 0.107867)
(6.18483e-05 6.26246e-05 0.106635)
(5.79613e-05 5.81241e-05 0.106511)
(-6.22954e-05 -6.20329e-05 0.106635)
(2.06934e-06 1.93356e-06 0.107868)
(-2.19392e-06 2.07726e-06 0.107865)
(2.22054e-06 1.51982e-06 0.107867)
(-2.2728e-06 1.47707e-06 0.107864)
(-5.81997e-05 5.77763e-05 0.106503)
(6.21599e-05 -6.22684e-05 0.10663)
(1.82791e-06 2.31627e-06 0.107867)
(1.62806e-06 -1.97016e-06 0.107867)
(1.3375e-06 2.18308e-06 0.107866)
(1.29525e-06 -2.35336e-06 0.107866)
(-2.30982e-06 -1.87678e-06 0.107866)
(-1.90108e-06 2.00746e-06 0.107866)
(-1.82593e-06 -2.29824e-06 0.107865)
(5.76765e-05 -5.73328e-05 0.106512)
(-6.22413e-05 6.24526e-05 0.106638)
(-2.11451e-06 -1.61689e-06 0.107867)
(1.85776e-06 -1.52316e-06 0.107868)
(-2.40508e-06 -1.4111e-06 0.107866)
(6.18913e-05 6.20442e-05 0.106632)
(5.77182e-05 5.77964e-05 0.106507)
(-6.22004e-05 -6.21963e-05 0.106633)
(1.95292e-06 1.64484e-06 0.107866)
(-2.00835e-06 1.59306e-06 0.107864)