/*--------------------------------*- C++ -*----------------------------------*\
| =========                 |                                                 |
| \\      /  F ield         | OpenFOAM: The Open Source CFD Toolbox           |
|  \\    /   O peration     | Version:  v2012                                 |
|   \\  /    A nd           | Website:  www.openfoam.com                      |
|    \\/     M anipulation  |                                                 |
\*---------------------------------------------------------------------------*/
FoamFile
{
    version     2.0;
    format      ascii;
    class       volScalarField;
    location    "0.43";
    object      p;
}
// * * * * * * * * * * * * * * * * * * * * * * * * * * * * * * * * * * * * * //

dimensions      [0 2 -2 0 0 0 0];


internalField   nonuniform List<scalar> 
247104
(
1.83715e-06
1.83702e-06
1.83717e-06
1.83716e-06
1.83708e-06
1.83717e-06
1.83716e-06
1.83695e-06
1.83702e-06
1.83709e-06
1.83714e-06
1.83699e-06
1.83691e-06
1.83702e-06
1.83715e-06
1.83706e-06
1.83717e-06
1.83714e-06
1.83684e-06
1.83648e-06
1.83634e-06
1.83652e-06
1.83689e-06
1.83716e-06
1.83717e-06
1.83716e-06
1.837e-06
1.83648e-06
1.836e-06
1.83583e-06
1.83605e-06
1.83655e-06
1.83704e-06
1.83716e-06
1.83715e-06
1.83708e-06
1.83691e-06
1.83634e-06
1.83583e-06
1.83565e-06
1.83588e-06
1.83642e-06
1.83696e-06
1.83707e-06
1.83717e-06
1.83702e-06
1.83652e-06
1.83605e-06
1.83588e-06
1.8361e-06
1.83659e-06
1.83706e-06
1.83718e-06
1.83715e-06
1.83715e-06
1.83689e-06
1.83655e-06
1.83642e-06
1.83659e-06
1.83693e-06
1.83717e-06
1.83715e-06
1.83695e-06
1.83706e-06
1.83716e-06
1.83704e-06
1.83696e-06
1.83706e-06
1.83717e-06
1.83702e-06
1.83717e-06
1.83716e-06
1.83707e-06
1.83718e-06
1.83715e-06
1.80444e-06
1.80246e-06
1.80179e-06
1.80057e-06
1.80059e-06
1.80053e-06
1.80052e-06
1.80185e-06
1.80206e-06
1.80181e-06
1.79974e-06
1.79717e-06
1.79715e-06
1.79715e-06
1.79717e-06
1.80012e-06
1.8004e-06
1.80058e-06
1.79717e-06
1.79711e-06
1.79718e-06
1.79718e-06
1.79711e-06
1.79716e-06
1.8005e-06
1.80186e-06
1.80444e-06
1.80058e-06
1.79716e-06
1.79718e-06
1.79727e-06
1.79727e-06
1.79718e-06
1.79715e-06
1.80052e-06
1.80216e-06
1.80246e-06
1.80053e-06
1.79716e-06
1.79718e-06
1.79727e-06
1.79727e-06
1.79718e-06
1.79715e-06
1.80068e-06
1.80077e-06
1.80052e-06
1.79717e-06
1.79711e-06
1.79718e-06
1.79718e-06
1.79711e-06
1.79716e-06
1.80047e-06
1.8018e-06
1.80186e-06
1.80012e-06
1.79717e-06
1.79715e-06
1.79715e-06
1.79717e-06
1.80038e-06
1.80053e-06
1.802e-06
1.80206e-06
1.8004e-06
1.80051e-06
1.80053e-06
1.80068e-06
1.80047e-06
1.80053e-06
1.80207e-06
1.80187e-06
1.80217e-06
1.80078e-06
1.8018e-06
1.802e-06
1.78433e-06
1.78416e-06
1.78399e-06
1.7819e-06
1.78178e-06
1.78174e-06
1.78187e-06
1.78393e-06
1.78419e-06
1.78399e-06
1.7812e-06
1.77822e-06
1.7782e-06
1.77821e-06
1.77828e-06
1.78164e-06
1.78233e-06
1.78191e-06
1.77827e-06
1.77803e-06
1.77807e-06
1.77807e-06
1.77802e-06
1.7782e-06
1.78242e-06
1.78438e-06
1.78433e-06
1.78179e-06
1.77822e-06
1.77808e-06
1.77811e-06
1.77811e-06
1.77806e-06
1.77818e-06
1.78246e-06
1.78413e-06
1.78417e-06
1.78174e-06
1.77822e-06
1.77808e-06
1.77811e-06
1.7781e-06
1.77806e-06
1.77818e-06
1.78242e-06
1.78247e-06
1.78188e-06
1.77827e-06
1.77803e-06
1.77807e-06
1.77807e-06
1.77802e-06
1.77821e-06
1.78246e-06
1.78447e-06
1.78393e-06
1.78165e-06
1.77822e-06
1.7782e-06
1.77821e-06
1.77826e-06
1.7821e-06
1.78242e-06
1.7844e-06
1.7842e-06
1.78234e-06
1.78243e-06
1.78248e-06
1.78244e-06
1.78248e-06
1.78243e-06
1.78426e-06
1.78439e-06
1.78414e-06
1.78248e-06
1.78448e-06
1.7844e-06
1.76547e-06
1.7653e-06
1.76517e-06
1.76303e-06
1.76292e-06
1.76284e-06
1.76302e-06
1.76509e-06
1.76537e-06
1.76517e-06
1.76233e-06
1.75936e-06
1.75933e-06
1.75933e-06
1.75935e-06
1.76273e-06
1.76351e-06
1.76304e-06
1.75936e-06
1.75925e-06
1.75927e-06
1.75927e-06
1.75925e-06
1.75935e-06
1.76359e-06
1.76553e-06
1.76548e-06
1.76292e-06
1.75933e-06
1.75927e-06
1.75928e-06
1.75928e-06
1.75926e-06
1.75933e-06
1.76363e-06
1.76528e-06
1.76531e-06
1.76284e-06
1.75933e-06
1.75927e-06
1.75928e-06
1.75928e-06
1.75926e-06
1.75933e-06
1.7636e-06
1.76364e-06
1.76302e-06
1.75936e-06
1.75925e-06
1.75927e-06
1.75926e-06
1.75925e-06
1.75935e-06
1.76362e-06
1.76561e-06
1.7651e-06
1.76274e-06
1.75935e-06
1.75933e-06
1.75933e-06
1.75935e-06
1.76335e-06
1.76362e-06
1.76558e-06
1.76538e-06
1.76352e-06
1.76359e-06
1.76363e-06
1.7636e-06
1.76362e-06
1.76362e-06
1.7656e-06
1.76554e-06
1.76529e-06
1.76364e-06
1.76561e-06
1.76558e-06
1.74659e-06
1.74642e-06
1.74626e-06
1.74412e-06
1.74401e-06
1.74393e-06
1.74411e-06
1.74619e-06
1.74646e-06
1.74626e-06
1.74343e-06
1.74044e-06
1.74043e-06
1.74043e-06
1.74044e-06
1.7438e-06
1.74461e-06
1.74413e-06
1.74044e-06
1.74041e-06
1.74041e-06
1.74041e-06
1.74041e-06
1.74044e-06
1.74469e-06
1.74664e-06
1.74659e-06
1.74401e-06
1.74043e-06
1.74041e-06
1.74041e-06
1.74041e-06
1.74041e-06
1.74043e-06
1.74476e-06
1.74642e-06
1.74642e-06
1.74393e-06
1.74043e-06
1.74041e-06
1.74041e-06
1.74041e-06
1.74041e-06
1.74043e-06
1.74473e-06
1.74477e-06
1.74411e-06
1.74044e-06
1.74041e-06
1.74041e-06
1.74041e-06
1.74041e-06
1.74044e-06
1.74473e-06
1.74674e-06
1.74619e-06
1.7438e-06
1.74044e-06
1.74043e-06
1.74043e-06
1.74044e-06
1.74448e-06
1.74473e-06
1.74668e-06
1.74647e-06
1.74461e-06
1.74469e-06
1.74476e-06
1.74473e-06
1.74473e-06
1.74473e-06
1.74668e-06
1.74664e-06
1.74642e-06
1.74477e-06
1.74674e-06
1.74668e-06
1.72769e-06
1.72752e-06
1.72735e-06
1.72522e-06
1.7251e-06
1.72502e-06
1.7252e-06
1.72729e-06
1.72756e-06
1.72735e-06
1.72453e-06
1.72153e-06
1.72153e-06
1.72153e-06
1.72153e-06
1.72488e-06
1.7257e-06
1.72522e-06
1.72153e-06
1.72152e-06
1.72152e-06
1.72152e-06
1.72152e-06
1.72153e-06
1.72578e-06
1.72773e-06
1.72769e-06
1.7251e-06
1.72153e-06
1.72152e-06
1.72153e-06
1.72153e-06
1.72152e-06
1.72153e-06
1.72586e-06
1.72752e-06
1.72752e-06
1.72502e-06
1.72153e-06
1.72152e-06
1.72153e-06
1.72153e-06
1.72152e-06
1.72153e-06
1.72583e-06
1.72587e-06
1.7252e-06
1.72153e-06
1.72152e-06
1.72152e-06
1.72152e-06
1.72152e-06
1.72153e-06
1.72583e-06
1.72784e-06
1.72729e-06
1.72488e-06
1.72153e-06
1.72153e-06
1.72153e-06
1.72153e-06
1.72558e-06
1.72583e-06
1.72777e-06
1.72756e-06
1.7257e-06
1.72578e-06
1.72585e-06
1.72583e-06
1.72583e-06
1.72584e-06
1.72776e-06
1.72774e-06
1.72752e-06
1.72587e-06
1.72784e-06
1.72777e-06
1.70879e-06
1.70862e-06
1.70845e-06
1.70631e-06
1.7062e-06
1.70612e-06
1.7063e-06
1.70838e-06
1.70865e-06
1.70845e-06
1.70563e-06
1.70263e-06
1.70263e-06
1.70263e-06
1.70263e-06
1.70597e-06
1.7068e-06
1.70631e-06
1.70263e-06
1.70263e-06
1.70263e-06
1.70263e-06
1.70263e-06
1.70263e-06
1.70687e-06
1.70883e-06
1.70879e-06
1.7062e-06
1.70263e-06
1.70263e-06
1.70263e-06
1.70263e-06
1.70263e-06
1.70263e-06
1.70695e-06
1.70862e-06
1.70862e-06
1.70612e-06
1.70263e-06
1.70263e-06
1.70263e-06
1.70263e-06
1.70263e-06
1.70263e-06
1.70693e-06
1.70697e-06
1.7063e-06
1.70263e-06
1.70263e-06
1.70263e-06
1.70263e-06
1.70263e-06
1.70263e-06
1.70693e-06
1.70894e-06
1.70839e-06
1.70597e-06
1.70263e-06
1.70263e-06
1.70263e-06
1.70263e-06
1.70668e-06
1.70694e-06
1.70887e-06
1.70865e-06
1.7068e-06
1.70687e-06
1.70695e-06
1.70693e-06
1.70693e-06
1.70694e-06
1.70886e-06
1.70883e-06
1.70862e-06
1.70697e-06
1.70894e-06
1.70887e-06
1.68989e-06
1.68972e-06
1.68954e-06
1.68741e-06
1.68729e-06
1.68722e-06
1.68739e-06
1.68948e-06
1.68975e-06
1.68954e-06
1.68673e-06
1.68373e-06
1.68373e-06
1.68373e-06
1.68373e-06
1.68707e-06
1.68789e-06
1.68741e-06
1.68373e-06
1.68373e-06
1.68373e-06
1.68373e-06
1.68373e-06
1.68373e-06
1.68797e-06
1.68993e-06
1.68988e-06
1.68729e-06
1.68373e-06
1.68373e-06
1.68373e-06
1.68373e-06
1.68373e-06
1.68373e-06
1.68805e-06
1.68972e-06
1.68972e-06
1.68722e-06
1.68373e-06
1.68373e-06
1.68373e-06
1.68373e-06
1.68373e-06
1.68373e-06
1.68803e-06
1.68807e-06
1.68739e-06
1.68373e-06
1.68373e-06
1.68373e-06
1.68373e-06
1.68373e-06
1.68373e-06
1.68803e-06
1.69004e-06
1.68948e-06
1.68707e-06
1.68373e-06
1.68373e-06
1.68373e-06
1.68373e-06
1.68778e-06
1.68804e-06
1.68997e-06
1.68975e-06
1.68789e-06
1.68797e-06
1.68805e-06
1.68803e-06
1.68803e-06
1.68804e-06
1.68996e-06
1.68993e-06
1.68972e-06
1.68807e-06
1.69004e-06
1.68997e-06
1.67098e-06
1.67081e-06
1.67064e-06
1.66851e-06
1.66839e-06
1.66832e-06
1.66849e-06
1.67058e-06
1.67085e-06
1.67064e-06
1.66782e-06
1.66482e-06
1.66482e-06
1.66482e-06
1.66482e-06
1.66817e-06
1.66899e-06
1.66851e-06
1.66482e-06
1.66482e-06
1.66482e-06
1.66482e-06
1.66482e-06
1.66482e-06
1.66907e-06
1.67103e-06
1.67098e-06
1.66839e-06
1.66482e-06
1.66482e-06
1.66482e-06
1.66482e-06
1.66482e-06
1.66482e-06
1.66915e-06
1.67082e-06
1.67081e-06
1.66832e-06
1.66482e-06
1.66482e-06
1.66482e-06
1.66482e-06
1.66482e-06
1.66482e-06
1.66912e-06
1.66917e-06
1.66849e-06
1.66482e-06
1.66482e-06
1.66482e-06
1.66482e-06
1.66482e-06
1.66482e-06
1.66913e-06
1.67114e-06
1.67058e-06
1.66817e-06
1.66482e-06
1.66482e-06
1.66482e-06
1.66482e-06
1.66888e-06
1.66913e-06
1.67106e-06
1.67085e-06
1.66899e-06
1.66907e-06
1.66915e-06
1.66912e-06
1.66913e-06
1.66913e-06
1.67106e-06
1.67103e-06
1.67082e-06
1.66917e-06
1.67114e-06
1.67106e-06
1.65208e-06
1.65191e-06
1.65174e-06
1.64961e-06
1.64949e-06
1.64941e-06
1.64959e-06
1.65168e-06
1.65195e-06
1.65174e-06
1.64892e-06
1.64592e-06
1.64592e-06
1.64592e-06
1.64592e-06
1.64926e-06
1.65009e-06
1.64961e-06
1.64592e-06
1.64592e-06
1.64592e-06
1.64592e-06
1.64592e-06
1.64592e-06
1.65016e-06
1.65212e-06
1.65208e-06
1.64949e-06
1.64592e-06
1.64592e-06
1.64592e-06
1.64592e-06
1.64592e-06
1.64592e-06
1.65025e-06
1.65192e-06
1.65191e-06
1.64941e-06
1.64592e-06
1.64592e-06
1.64592e-06
1.64592e-06
1.64592e-06
1.64592e-06
1.65022e-06
1.65026e-06
1.64959e-06
1.64592e-06
1.64592e-06
1.64592e-06
1.64592e-06
1.64592e-06
1.64592e-06
1.65023e-06
1.65224e-06
1.65168e-06
1.64927e-06
1.64592e-06
1.64592e-06
1.64592e-06
1.64592e-06
1.64998e-06
1.65023e-06
1.65216e-06
1.65195e-06
1.65009e-06
1.65016e-06
1.65024e-06
1.65022e-06
1.65023e-06
1.65023e-06
1.65216e-06
1.65213e-06
1.65192e-06
1.65026e-06
1.65223e-06
1.65216e-06
1.63318e-06
1.63301e-06
1.63284e-06
1.6307e-06
1.63059e-06
1.63051e-06
1.63069e-06
1.63277e-06
1.63304e-06
1.63284e-06
1.63002e-06
1.62702e-06
1.62702e-06
1.62702e-06
1.62702e-06
1.63036e-06
1.63119e-06
1.6307e-06
1.62702e-06
1.62702e-06
1.62702e-06
1.62702e-06
1.62702e-06
1.62702e-06
1.63126e-06
1.63322e-06
1.63318e-06
1.63058e-06
1.62702e-06
1.62702e-06
1.62702e-06
1.62702e-06
1.62702e-06
1.62702e-06
1.63134e-06
1.63301e-06
1.63301e-06
1.63051e-06
1.62702e-06
1.62702e-06
1.62702e-06
1.62702e-06
1.62702e-06
1.62702e-06
1.63132e-06
1.63136e-06
1.63069e-06
1.62702e-06
1.62702e-06
1.62702e-06
1.62702e-06
1.62702e-06
1.62702e-06
1.63132e-06
1.63333e-06
1.63278e-06
1.63036e-06
1.62702e-06
1.62702e-06
1.62702e-06
1.62702e-06
1.63107e-06
1.63133e-06
1.63326e-06
1.63304e-06
1.63119e-06
1.63126e-06
1.63134e-06
1.63132e-06
1.63132e-06
1.63133e-06
1.63325e-06
1.63322e-06
1.63301e-06
1.63136e-06
1.63333e-06
1.63326e-06
1.61427e-06
1.61411e-06
1.61393e-06
1.6118e-06
1.61168e-06
1.61161e-06
1.61178e-06
1.61387e-06
1.61414e-06
1.61393e-06
1.61112e-06
1.60812e-06
1.60812e-06
1.60812e-06
1.60812e-06
1.61146e-06
1.61228e-06
1.6118e-06
1.60812e-06
1.60812e-06
1.60812e-06
1.60812e-06
1.60812e-06
1.60812e-06
1.61236e-06
1.61432e-06
1.61427e-06
1.61168e-06
1.60812e-06
1.60812e-06
1.60812e-06
1.60812e-06
1.60812e-06
1.60812e-06
1.61244e-06
1.61411e-06
1.61411e-06
1.61161e-06
1.60812e-06
1.60812e-06
1.60812e-06
1.60812e-06
1.60812e-06
1.60812e-06
1.61242e-06
1.61246e-06
1.61178e-06
1.60812e-06
1.60812e-06
1.60812e-06
1.60812e-06
1.60812e-06
1.60812e-06
1.61242e-06
1.61443e-06
1.61387e-06
1.61146e-06
1.60812e-06
1.60812e-06
1.60812e-06
1.60812e-06
1.61217e-06
1.61243e-06
1.61436e-06
1.61414e-06
1.61228e-06
1.61236e-06
1.61244e-06
1.61242e-06
1.61242e-06
1.61243e-06
1.61435e-06
1.61432e-06
1.61411e-06
1.61246e-06
1.61443e-06
1.61436e-06
1.59537e-06
1.5952e-06
1.59503e-06
1.5929e-06
1.59278e-06
1.59271e-06
1.59288e-06
1.59497e-06
1.59524e-06
1.59503e-06
1.59221e-06
1.58921e-06
1.58921e-06
1.58921e-06
1.58921e-06
1.59256e-06
1.59338e-06
1.5929e-06
1.58921e-06
1.58921e-06
1.58921e-06
1.58921e-06
1.58921e-06
1.58921e-06
1.59346e-06
1.59542e-06
1.59537e-06
1.59278e-06
1.58921e-06
1.58921e-06
1.58921e-06
1.58921e-06
1.58921e-06
1.58921e-06
1.59354e-06
1.59521e-06
1.5952e-06
1.59271e-06
1.58921e-06
1.58921e-06
1.58921e-06
1.58921e-06
1.58921e-06
1.58921e-06
1.59352e-06
1.59356e-06
1.59288e-06
1.58921e-06
1.58921e-06
1.58921e-06
1.58921e-06
1.58921e-06
1.58921e-06
1.59352e-06
1.59553e-06
1.59497e-06
1.59256e-06
1.58921e-06
1.58921e-06
1.58921e-06
1.58921e-06
1.59327e-06
1.59352e-06
1.59545e-06
1.59524e-06
1.59338e-06
1.59346e-06
1.59354e-06
1.59351e-06
1.59352e-06
1.59352e-06
1.59545e-06
1.59542e-06
1.59521e-06
1.59356e-06
1.59553e-06
1.59545e-06
1.57647e-06
1.5763e-06
1.57613e-06
1.574e-06
1.57388e-06
1.5738e-06
1.57398e-06
1.57607e-06
1.57634e-06
1.57613e-06
1.57331e-06
1.57031e-06
1.57031e-06
1.57031e-06
1.57031e-06
1.57366e-06
1.57448e-06
1.574e-06
1.57031e-06
1.57031e-06
1.57031e-06
1.57031e-06
1.57031e-06
1.57031e-06
1.57456e-06
1.57651e-06
1.57647e-06
1.57388e-06
1.57031e-06
1.57031e-06
1.57031e-06
1.57031e-06
1.57031e-06
1.57031e-06
1.57464e-06
1.57631e-06
1.5763e-06
1.5738e-06
1.57031e-06
1.57031e-06
1.57031e-06
1.57031e-06
1.57031e-06
1.57031e-06
1.57461e-06
1.57465e-06
1.57398e-06
1.57031e-06
1.57031e-06
1.57031e-06
1.57031e-06
1.57031e-06
1.57031e-06
1.57462e-06
1.57663e-06
1.57607e-06
1.57366e-06
1.57031e-06
1.57031e-06
1.57031e-06
1.57031e-06
1.57437e-06
1.57462e-06
1.57655e-06
1.57634e-06
1.57448e-06
1.57455e-06
1.57464e-06
1.57461e-06
1.57462e-06
1.57462e-06
1.57655e-06
1.57652e-06
1.57631e-06
1.57465e-06
1.57663e-06
1.57655e-06
1.55757e-06
1.5574e-06
1.55723e-06
1.5551e-06
1.55498e-06
1.5549e-06
1.55508e-06
1.55717e-06
1.55743e-06
1.55723e-06
1.55441e-06
1.55141e-06
1.55141e-06
1.55141e-06
1.55141e-06
1.55475e-06
1.55558e-06
1.5551e-06
1.55141e-06
1.55141e-06
1.55141e-06
1.55141e-06
1.55141e-06
1.55141e-06
1.55565e-06
1.55761e-06
1.55757e-06
1.55498e-06
1.55141e-06
1.55141e-06
1.55141e-06
1.55141e-06
1.55141e-06
1.55141e-06
1.55573e-06
1.55741e-06
1.5574e-06
1.5549e-06
1.55141e-06
1.55141e-06
1.55141e-06
1.55141e-06
1.55141e-06
1.55141e-06
1.55571e-06
1.55575e-06
1.55508e-06
1.55141e-06
1.55141e-06
1.55141e-06
1.55141e-06
1.55141e-06
1.55141e-06
1.55572e-06
1.55772e-06
1.55717e-06
1.55475e-06
1.55141e-06
1.55141e-06
1.55141e-06
1.55141e-06
1.55547e-06
1.55572e-06
1.55765e-06
1.55744e-06
1.55558e-06
1.55565e-06
1.55573e-06
1.55571e-06
1.55572e-06
1.55572e-06
1.55764e-06
1.55761e-06
1.55741e-06
1.55575e-06
1.55772e-06
1.55765e-06
1.53867e-06
1.5385e-06
1.53832e-06
1.53619e-06
1.53608e-06
1.536e-06
1.53618e-06
1.53826e-06
1.53853e-06
1.53833e-06
1.53551e-06
1.53251e-06
1.53251e-06
1.53251e-06
1.53251e-06
1.53585e-06
1.53668e-06
1.53619e-06
1.53251e-06
1.53251e-06
1.53251e-06
1.53251e-06
1.53251e-06
1.53251e-06
1.53675e-06
1.53871e-06
1.53867e-06
1.53607e-06
1.53251e-06
1.53251e-06
1.53251e-06
1.53251e-06
1.53251e-06
1.53251e-06
1.53683e-06
1.5385e-06
1.5385e-06
1.536e-06
1.53251e-06
1.53251e-06
1.53251e-06
1.53251e-06
1.53251e-06
1.53251e-06
1.53681e-06
1.53685e-06
1.53618e-06
1.53251e-06
1.53251e-06
1.53251e-06
1.53251e-06
1.53251e-06
1.53251e-06
1.53681e-06
1.53882e-06
1.53827e-06
1.53585e-06
1.53251e-06
1.53251e-06
1.53251e-06
1.53251e-06
1.53656e-06
1.53682e-06
1.53875e-06
1.53853e-06
1.53668e-06
1.53675e-06
1.53683e-06
1.53681e-06
1.53681e-06
1.53682e-06
1.53874e-06
1.53871e-06
1.5385e-06
1.53685e-06
1.53882e-06
1.53875e-06
1.51976e-06
1.5196e-06
1.51942e-06
1.51729e-06
1.51717e-06
1.5171e-06
1.51727e-06
1.51936e-06
1.51963e-06
1.51942e-06
1.51661e-06
1.51361e-06
1.51361e-06
1.51361e-06
1.51361e-06
1.51695e-06
1.51777e-06
1.51729e-06
1.51361e-06
1.51361e-06
1.51361e-06
1.51361e-06
1.51361e-06
1.51361e-06
1.51785e-06
1.51981e-06
1.51976e-06
1.51717e-06
1.51361e-06
1.51361e-06
1.51361e-06
1.51361e-06
1.51361e-06
1.51361e-06
1.51793e-06
1.5196e-06
1.5196e-06
1.5171e-06
1.51361e-06
1.51361e-06
1.51361e-06
1.51361e-06
1.51361e-06
1.51361e-06
1.51791e-06
1.51795e-06
1.51727e-06
1.51361e-06
1.51361e-06
1.51361e-06
1.51361e-06
1.51361e-06
1.51361e-06
1.51791e-06
1.51992e-06
1.51936e-06
1.51695e-06
1.51361e-06
1.51361e-06
1.51361e-06
1.51361e-06
1.51766e-06
1.51792e-06
1.51985e-06
1.51963e-06
1.51777e-06
1.51785e-06
1.51793e-06
1.51791e-06
1.51791e-06
1.51792e-06
1.51984e-06
1.51981e-06
1.5196e-06
1.51795e-06
1.51992e-06
1.51985e-06
1.50086e-06
1.50069e-06
1.50052e-06
1.49839e-06
1.49827e-06
1.4982e-06
1.49837e-06
1.50046e-06
1.50073e-06
1.50052e-06
1.4977e-06
1.4947e-06
1.4947e-06
1.4947e-06
1.4947e-06
1.49805e-06
1.49887e-06
1.49839e-06
1.4947e-06
1.4947e-06
1.4947e-06
1.4947e-06
1.4947e-06
1.4947e-06
1.49895e-06
1.50091e-06
1.50086e-06
1.49827e-06
1.4947e-06
1.4947e-06
1.4947e-06
1.4947e-06
1.4947e-06
1.4947e-06
1.49903e-06
1.5007e-06
1.50069e-06
1.4982e-06
1.4947e-06
1.4947e-06
1.4947e-06
1.4947e-06
1.4947e-06
1.4947e-06
1.49901e-06
1.49905e-06
1.49837e-06
1.4947e-06
1.4947e-06
1.4947e-06
1.4947e-06
1.4947e-06
1.4947e-06
1.49901e-06
1.50102e-06
1.50046e-06
1.49805e-06
1.4947e-06
1.4947e-06
1.4947e-06
1.4947e-06
1.49876e-06
1.49901e-06
1.50094e-06
1.50073e-06
1.49887e-06
1.49895e-06
1.49903e-06
1.499e-06
1.49901e-06
1.49901e-06
1.50094e-06
1.50091e-06
1.5007e-06
1.49905e-06
1.50102e-06
1.50094e-06
1.48196e-06
1.48179e-06
1.48162e-06
1.47949e-06
1.47937e-06
1.47929e-06
1.47947e-06
1.48156e-06
1.48183e-06
1.48162e-06
1.4788e-06
1.4758e-06
1.4758e-06
1.4758e-06
1.4758e-06
1.47915e-06
1.47997e-06
1.47949e-06
1.4758e-06
1.4758e-06
1.4758e-06
1.4758e-06
1.4758e-06
1.4758e-06
1.48004e-06
1.482e-06
1.48196e-06
1.47937e-06
1.4758e-06
1.4758e-06
1.4758e-06
1.4758e-06
1.4758e-06
1.4758e-06
1.48013e-06
1.4818e-06
1.48179e-06
1.47929e-06
1.4758e-06
1.4758e-06
1.4758e-06
1.4758e-06
1.4758e-06
1.4758e-06
1.4801e-06
1.48014e-06
1.47947e-06
1.4758e-06
1.4758e-06
1.4758e-06
1.4758e-06
1.4758e-06
1.4758e-06
1.48011e-06
1.48212e-06
1.48156e-06
1.47915e-06
1.4758e-06
1.4758e-06
1.4758e-06
1.4758e-06
1.47986e-06
1.48011e-06
1.48204e-06
1.48183e-06
1.47997e-06
1.48004e-06
1.48013e-06
1.4801e-06
1.48011e-06
1.48011e-06
1.48204e-06
1.48201e-06
1.4818e-06
1.48014e-06
1.48212e-06
1.48204e-06
1.46306e-06
1.46289e-06
1.46272e-06
1.46058e-06
1.46047e-06
1.46039e-06
1.46057e-06
1.46266e-06
1.46292e-06
1.46272e-06
1.4599e-06
1.4569e-06
1.4569e-06
1.4569e-06
1.4569e-06
1.46024e-06
1.46107e-06
1.46058e-06
1.4569e-06
1.4569e-06
1.4569e-06
1.4569e-06
1.4569e-06
1.4569e-06
1.46114e-06
1.4631e-06
1.46306e-06
1.46047e-06
1.4569e-06
1.4569e-06
1.4569e-06
1.4569e-06
1.4569e-06
1.4569e-06
1.46122e-06
1.4629e-06
1.46289e-06
1.46039e-06
1.4569e-06
1.4569e-06
1.4569e-06
1.4569e-06
1.4569e-06
1.4569e-06
1.4612e-06
1.46124e-06
1.46057e-06
1.4569e-06
1.4569e-06
1.4569e-06
1.4569e-06
1.4569e-06
1.4569e-06
1.46121e-06
1.46321e-06
1.46266e-06
1.46024e-06
1.4569e-06
1.4569e-06
1.4569e-06
1.4569e-06
1.46095e-06
1.46121e-06
1.46314e-06
1.46292e-06
1.46107e-06
1.46114e-06
1.46122e-06
1.4612e-06
1.4612e-06
1.46121e-06
1.46313e-06
1.4631e-06
1.4629e-06
1.46124e-06
1.46321e-06
1.46314e-06
1.44415e-06
1.44399e-06
1.44381e-06
1.44168e-06
1.44156e-06
1.44149e-06
1.44166e-06
1.44375e-06
1.44402e-06
1.44381e-06
1.441e-06
1.438e-06
1.438e-06
1.438e-06
1.438e-06
1.44134e-06
1.44216e-06
1.44168e-06
1.438e-06
1.438e-06
1.438e-06
1.438e-06
1.438e-06
1.438e-06
1.44224e-06
1.4442e-06
1.44415e-06
1.44156e-06
1.438e-06
1.438e-06
1.438e-06
1.438e-06
1.438e-06
1.438e-06
1.44232e-06
1.44399e-06
1.44399e-06
1.44149e-06
1.438e-06
1.438e-06
1.438e-06
1.438e-06
1.438e-06
1.438e-06
1.4423e-06
1.44234e-06
1.44166e-06
1.438e-06
1.438e-06
1.438e-06
1.438e-06
1.438e-06
1.438e-06
1.4423e-06
1.44431e-06
1.44375e-06
1.44134e-06
1.438e-06
1.438e-06
1.438e-06
1.438e-06
1.44205e-06
1.44231e-06
1.44424e-06
1.44402e-06
1.44216e-06
1.44224e-06
1.44232e-06
1.4423e-06
1.4423e-06
1.44231e-06
1.44423e-06
1.4442e-06
1.44399e-06
1.44234e-06
1.44431e-06
1.44424e-06
1.42525e-06
1.42508e-06
1.42491e-06
1.42278e-06
1.42266e-06
1.42258e-06
1.42276e-06
1.42485e-06
1.42512e-06
1.42491e-06
1.42209e-06
1.41909e-06
1.41909e-06
1.41909e-06
1.41909e-06
1.42244e-06
1.42326e-06
1.42278e-06
1.41909e-06
1.41909e-06
1.41909e-06
1.41909e-06
1.41909e-06
1.41909e-06
1.42334e-06
1.42529e-06
1.42525e-06
1.42266e-06
1.41909e-06
1.41909e-06
1.41909e-06
1.41909e-06
1.41909e-06
1.41909e-06
1.42342e-06
1.42509e-06
1.42508e-06
1.42258e-06
1.41909e-06
1.41909e-06
1.41909e-06
1.41909e-06
1.41909e-06
1.41909e-06
1.42339e-06
1.42343e-06
1.42276e-06
1.41909e-06
1.41909e-06
1.41909e-06
1.41909e-06
1.41909e-06
1.41909e-06
1.4234e-06
1.42541e-06
1.42485e-06
1.42244e-06
1.41909e-06
1.41909e-06
1.41909e-06
1.41909e-06
1.42315e-06
1.4234e-06
1.42533e-06
1.42512e-06
1.42326e-06
1.42334e-06
1.42342e-06
1.42339e-06
1.4234e-06
1.4234e-06
1.42533e-06
1.4253e-06
1.42509e-06
1.42343e-06
1.42541e-06
1.42533e-06
1.40635e-06
1.40618e-06
1.40601e-06
1.40387e-06
1.40376e-06
1.40368e-06
1.40386e-06
1.40595e-06
1.40621e-06
1.40601e-06
1.40319e-06
1.40019e-06
1.40019e-06
1.40019e-06
1.40019e-06
1.40353e-06
1.40436e-06
1.40387e-06
1.40019e-06
1.40019e-06
1.40019e-06
1.40019e-06
1.40019e-06
1.40019e-06
1.40443e-06
1.40639e-06
1.40635e-06
1.40376e-06
1.40019e-06
1.40019e-06
1.40019e-06
1.40019e-06
1.40019e-06
1.40019e-06
1.40451e-06
1.40618e-06
1.40618e-06
1.40368e-06
1.40019e-06
1.40019e-06
1.40019e-06
1.40019e-06
1.40019e-06
1.40019e-06
1.40449e-06
1.40453e-06
1.40386e-06
1.40019e-06
1.40019e-06
1.40019e-06
1.40019e-06
1.40019e-06
1.40019e-06
1.40449e-06
1.4065e-06
1.40595e-06
1.40353e-06
1.40019e-06
1.40019e-06
1.40019e-06
1.40019e-06
1.40424e-06
1.4045e-06
1.40643e-06
1.40621e-06
1.40436e-06
1.40443e-06
1.40451e-06
1.40449e-06
1.40449e-06
1.4045e-06
1.40642e-06
1.40639e-06
1.40618e-06
1.40453e-06
1.4065e-06
1.40643e-06
1.38744e-06
1.38727e-06
1.3871e-06
1.38497e-06
1.38485e-06
1.38478e-06
1.38495e-06
1.38704e-06
1.38731e-06
1.3871e-06
1.38428e-06
1.38128e-06
1.38128e-06
1.38128e-06
1.38128e-06
1.38463e-06
1.38545e-06
1.38497e-06
1.38128e-06
1.38128e-06
1.38128e-06
1.38128e-06
1.38128e-06
1.38128e-06
1.38553e-06
1.38749e-06
1.38744e-06
1.38485e-06
1.38128e-06
1.38128e-06
1.38128e-06
1.38128e-06
1.38128e-06
1.38128e-06
1.38561e-06
1.38728e-06
1.38728e-06
1.38478e-06
1.38128e-06
1.38128e-06
1.38128e-06
1.38128e-06
1.38128e-06
1.38128e-06
1.38559e-06
1.38563e-06
1.38495e-06
1.38128e-06
1.38128e-06
1.38128e-06
1.38128e-06
1.38128e-06
1.38128e-06
1.38559e-06
1.3876e-06
1.38704e-06
1.38463e-06
1.38128e-06
1.38128e-06
1.38128e-06
1.38128e-06
1.38534e-06
1.38559e-06
1.38752e-06
1.38731e-06
1.38545e-06
1.38553e-06
1.38561e-06
1.38558e-06
1.38559e-06
1.38559e-06
1.38752e-06
1.38749e-06
1.38728e-06
1.38563e-06
1.3876e-06
1.38752e-06
1.36854e-06
1.36837e-06
1.3682e-06
1.36607e-06
1.36595e-06
1.36587e-06
1.36605e-06
1.36814e-06
1.36841e-06
1.3682e-06
1.36538e-06
1.36238e-06
1.36238e-06
1.36238e-06
1.36238e-06
1.36573e-06
1.36655e-06
1.36607e-06
1.36238e-06
1.36238e-06
1.36238e-06
1.36238e-06
1.36238e-06
1.36238e-06
1.36662e-06
1.36858e-06
1.36854e-06
1.36595e-06
1.36238e-06
1.36238e-06
1.36238e-06
1.36238e-06
1.36238e-06
1.36238e-06
1.36671e-06
1.36838e-06
1.36837e-06
1.36587e-06
1.36238e-06
1.36238e-06
1.36238e-06
1.36238e-06
1.36238e-06
1.36238e-06
1.36668e-06
1.36672e-06
1.36605e-06
1.36238e-06
1.36238e-06
1.36238e-06
1.36238e-06
1.36238e-06
1.36238e-06
1.36669e-06
1.3687e-06
1.36814e-06
1.36572e-06
1.36238e-06
1.36238e-06
1.36238e-06
1.36238e-06
1.36644e-06
1.36669e-06
1.36862e-06
1.36841e-06
1.36655e-06
1.36662e-06
1.3667e-06
1.36668e-06
1.36669e-06
1.36669e-06
1.36862e-06
1.36859e-06
1.36838e-06
1.36672e-06
1.36869e-06
1.36862e-06
1.34964e-06
1.34947e-06
1.34929e-06
1.34716e-06
1.34704e-06
1.34697e-06
1.34715e-06
1.34924e-06
1.3495e-06
1.3493e-06
1.34648e-06
1.34348e-06
1.34348e-06
1.34348e-06
1.34348e-06
1.34682e-06
1.34764e-06
1.34716e-06
1.34348e-06
1.34348e-06
1.34348e-06
1.34348e-06
1.34348e-06
1.34348e-06
1.34772e-06
1.34968e-06
1.34964e-06
1.34704e-06
1.34348e-06
1.34348e-06
1.34348e-06
1.34348e-06
1.34348e-06
1.34348e-06
1.3478e-06
1.34947e-06
1.34947e-06
1.34697e-06
1.34348e-06
1.34348e-06
1.34348e-06
1.34348e-06
1.34348e-06
1.34348e-06
1.34778e-06
1.34782e-06
1.34715e-06
1.34348e-06
1.34348e-06
1.34348e-06
1.34348e-06
1.34348e-06
1.34348e-06
1.34778e-06
1.34979e-06
1.34923e-06
1.34682e-06
1.34348e-06
1.34348e-06
1.34348e-06
1.34348e-06
1.34753e-06
1.34779e-06
1.34972e-06
1.3495e-06
1.34765e-06
1.34772e-06
1.3478e-06
1.34778e-06
1.34778e-06
1.34779e-06
1.34971e-06
1.34968e-06
1.34947e-06
1.34782e-06
1.34979e-06
1.34972e-06
1.33073e-06
1.33057e-06
1.33039e-06
1.32826e-06
1.32814e-06
1.32807e-06
1.32824e-06
1.33033e-06
1.3306e-06
1.33039e-06
1.32757e-06
1.32457e-06
1.32457e-06
1.32457e-06
1.32457e-06
1.32792e-06
1.32874e-06
1.32826e-06
1.32457e-06
1.32457e-06
1.32457e-06
1.32457e-06
1.32457e-06
1.32457e-06
1.32882e-06
1.33078e-06
1.33073e-06
1.32814e-06
1.32457e-06
1.32457e-06
1.32457e-06
1.32457e-06
1.32457e-06
1.32457e-06
1.3289e-06
1.33057e-06
1.33057e-06
1.32807e-06
1.32457e-06
1.32457e-06
1.32457e-06
1.32457e-06
1.32457e-06
1.32457e-06
1.32888e-06
1.32892e-06
1.32824e-06
1.32457e-06
1.32457e-06
1.32457e-06
1.32457e-06
1.32457e-06
1.32457e-06
1.32888e-06
1.33089e-06
1.33033e-06
1.32792e-06
1.32457e-06
1.32457e-06
1.32457e-06
1.32457e-06
1.32863e-06
1.32888e-06
1.33082e-06
1.3306e-06
1.32874e-06
1.32882e-06
1.3289e-06
1.32888e-06
1.32888e-06
1.32888e-06
1.33081e-06
1.33078e-06
1.33057e-06
1.32892e-06
1.33089e-06
1.33081e-06
1.31183e-06
1.31166e-06
1.31149e-06
1.30936e-06
1.30924e-06
1.30917e-06
1.30934e-06
1.31143e-06
1.3117e-06
1.31149e-06
1.30867e-06
1.30567e-06
1.30567e-06
1.30567e-06
1.30567e-06
1.30902e-06
1.30984e-06
1.30936e-06
1.30567e-06
1.30567e-06
1.30567e-06
1.30567e-06
1.30567e-06
1.30567e-06
1.30992e-06
1.31187e-06
1.31183e-06
1.30924e-06
1.30567e-06
1.30567e-06
1.30567e-06
1.30567e-06
1.30567e-06
1.30567e-06
1.31e-06
1.31167e-06
1.31166e-06
1.30917e-06
1.30567e-06
1.30567e-06
1.30567e-06
1.30567e-06
1.30567e-06
1.30567e-06
1.30997e-06
1.31001e-06
1.30934e-06
1.30567e-06
1.30567e-06
1.30567e-06
1.30567e-06
1.30567e-06
1.30567e-06
1.30998e-06
1.31199e-06
1.31143e-06
1.30902e-06
1.30567e-06
1.30567e-06
1.30567e-06
1.30567e-06
1.30973e-06
1.30998e-06
1.31191e-06
1.3117e-06
1.30984e-06
1.30992e-06
1.31e-06
1.30997e-06
1.30998e-06
1.30998e-06
1.31191e-06
1.31188e-06
1.31167e-06
1.31001e-06
1.31199e-06
1.31191e-06
1.29293e-06
1.29276e-06
1.29259e-06
1.29046e-06
1.29034e-06
1.29026e-06
1.29044e-06
1.29253e-06
1.2928e-06
1.29259e-06
1.28977e-06
1.28677e-06
1.28677e-06
1.28677e-06
1.28677e-06
1.29012e-06
1.29094e-06
1.29046e-06
1.28677e-06
1.28677e-06
1.28677e-06
1.28677e-06
1.28677e-06
1.28677e-06
1.29101e-06
1.29297e-06
1.29293e-06
1.29034e-06
1.28677e-06
1.28677e-06
1.28677e-06
1.28677e-06
1.28677e-06
1.28677e-06
1.2911e-06
1.29277e-06
1.29276e-06
1.29026e-06
1.28677e-06
1.28677e-06
1.28677e-06
1.28677e-06
1.28677e-06
1.28677e-06
1.29107e-06
1.29111e-06
1.29044e-06
1.28677e-06
1.28677e-06
1.28677e-06
1.28677e-06
1.28677e-06
1.28677e-06
1.29108e-06
1.29309e-06
1.29253e-06
1.29012e-06
1.28677e-06
1.28677e-06
1.28677e-06
1.28677e-06
1.29083e-06
1.29108e-06
1.29301e-06
1.2928e-06
1.29094e-06
1.29101e-06
1.29109e-06
1.29107e-06
1.29108e-06
1.29108e-06
1.29301e-06
1.29298e-06
1.29277e-06
1.29111e-06
1.29308e-06
1.29301e-06
1.27403e-06
1.27386e-06
1.27369e-06
1.27156e-06
1.27144e-06
1.27136e-06
1.27154e-06
1.27363e-06
1.27389e-06
1.27369e-06
1.27087e-06
1.26787e-06
1.26787e-06
1.26787e-06
1.26787e-06
1.27121e-06
1.27204e-06
1.27156e-06
1.26787e-06
1.26787e-06
1.26787e-06
1.26787e-06
1.26787e-06
1.26787e-06
1.27211e-06
1.27407e-06
1.27403e-06
1.27144e-06
1.26787e-06
1.26787e-06
1.26787e-06
1.26787e-06
1.26787e-06
1.26787e-06
1.27219e-06
1.27387e-06
1.27386e-06
1.27136e-06
1.26787e-06
1.26787e-06
1.26787e-06
1.26787e-06
1.26787e-06
1.26787e-06
1.27217e-06
1.27221e-06
1.27154e-06
1.26787e-06
1.26787e-06
1.26787e-06
1.26787e-06
1.26787e-06
1.26787e-06
1.27218e-06
1.27418e-06
1.27363e-06
1.27121e-06
1.26787e-06
1.26787e-06
1.26787e-06
1.26787e-06
1.27193e-06
1.27218e-06
1.27411e-06
1.27389e-06
1.27204e-06
1.27211e-06
1.27219e-06
1.27217e-06
1.27218e-06
1.27218e-06
1.2741e-06
1.27407e-06
1.27387e-06
1.27221e-06
1.27418e-06
1.27411e-06
1.25513e-06
1.25496e-06
1.25479e-06
1.25265e-06
1.25254e-06
1.25246e-06
1.25264e-06
1.25473e-06
1.25499e-06
1.25479e-06
1.25197e-06
1.24897e-06
1.24897e-06
1.24897e-06
1.24897e-06
1.25231e-06
1.25314e-06
1.25265e-06
1.24897e-06
1.24897e-06
1.24897e-06
1.24897e-06
1.24897e-06
1.24897e-06
1.25321e-06
1.25517e-06
1.25513e-06
1.25254e-06
1.24897e-06
1.24897e-06
1.24897e-06
1.24897e-06
1.24897e-06
1.24897e-06
1.25329e-06
1.25496e-06
1.25496e-06
1.25246e-06
1.24897e-06
1.24897e-06
1.24897e-06
1.24897e-06
1.24897e-06
1.24897e-06
1.25327e-06
1.25331e-06
1.25264e-06
1.24897e-06
1.24897e-06
1.24897e-06
1.24897e-06
1.24897e-06
1.24897e-06
1.25327e-06
1.25528e-06
1.25473e-06
1.25231e-06
1.24897e-06
1.24897e-06
1.24897e-06
1.24897e-06
1.25302e-06
1.25328e-06
1.25521e-06
1.25499e-06
1.25314e-06
1.25321e-06
1.25329e-06
1.25327e-06
1.25327e-06
1.25328e-06
1.2552e-06
1.25517e-06
1.25496e-06
1.25331e-06
1.25528e-06
1.25521e-06
1.23622e-06
1.23606e-06
1.23588e-06
1.23375e-06
1.23363e-06
1.23356e-06
1.23373e-06
1.23582e-06
1.23609e-06
1.23588e-06
1.23307e-06
1.23007e-06
1.23007e-06
1.23007e-06
1.23007e-06
1.23341e-06
1.23423e-06
1.23375e-06
1.23007e-06
1.23007e-06
1.23007e-06
1.23007e-06
1.23007e-06
1.23007e-06
1.23431e-06
1.23627e-06
1.23622e-06
1.23363e-06
1.23007e-06
1.23007e-06
1.23007e-06
1.23007e-06
1.23007e-06
1.23007e-06
1.23439e-06
1.23606e-06
1.23606e-06
1.23356e-06
1.23007e-06
1.23007e-06
1.23007e-06
1.23007e-06
1.23007e-06
1.23007e-06
1.23437e-06
1.23441e-06
1.23373e-06
1.23007e-06
1.23007e-06
1.23007e-06
1.23007e-06
1.23007e-06
1.23007e-06
1.23437e-06
1.23638e-06
1.23582e-06
1.23341e-06
1.23007e-06
1.23007e-06
1.23007e-06
1.23007e-06
1.23412e-06
1.23438e-06
1.23631e-06
1.23609e-06
1.23423e-06
1.23431e-06
1.23439e-06
1.23437e-06