/*--------------------------------*- C++ -*----------------------------------*\
| =========                 |                                                 |
| \\      /  F ield         | OpenFOAM: The Open Source CFD Toolbox           |
|  \\    /   O peration     | Version:  v2012                                 |
|   \\  /    A nd           | Website:  www.openfoam.com                      |
|    \\/     M anipulation  |                                                 |
\*---------------------------------------------------------------------------*/
FoamFile
{
    version     2.0;
    format      ascii;
    class       volScalarField;
    location    "625";
    object      epsilon;
}
// * * * * * * * * * * * * * * * * * * * * * * * * * * * * * * * * * * * * * //

dimensions      [0 2 -3 0 0 0 0];


internalField   nonuniform List<scalar> 
85864
(
3.36234e-07
8.96995e-07
8.67345e-07
1.17158e-06
3.10495e-07
8.42565e-07
8.65082e-07
1.14984e-06
3.27019e-07
8.90719e-07
9.15803e-07
1.17931e-06
3.78237e-07
9.3595e-07
9.30088e-07
1.18856e-06
3.94074e-07
9.26109e-07
9.41584e-07
1.19323e-06
3.90622e-07
9.49551e-07
1.00378e-06
1.24136e-06
4.28053e-07
1.01709e-06
9.79326e-07
1.25892e-06
4.59866e-07
1.03547e-06
9.45405e-07
1.28097e-06
4.77676e-07
1.0495e-06
1.03072e-06
1.33651e-06
4.89486e-07
1.06107e-06
1.11764e-06
1.32253e-06
4.7594e-07
1.04134e-06
1.10705e-06
1.27187e-06
4.67882e-07
1.05127e-06
1.04603e-06
1.29707e-06
5.13473e-07
1.11852e-06
1.04382e-06
1.35358e-06
5.60319e-07
1.13986e-06
1.10201e-06
1.37462e-06
5.76139e-07
1.10461e-06
1.13301e-06
1.36501e-06
5.63221e-07
1.09528e-06
1.13052e-06
1.35472e-06
5.51544e-07
1.12112e-06
1.12425e-06
1.35824e-06
5.61455e-07
1.14316e-06
1.13117e-06
1.37107e-06
5.89204e-07
1.15356e-06
1.14475e-06
1.3852e-06
6.11629e-07
1.15812e-06
1.15711e-06
1.39224e-06
6.21829e-07
1.16495e-06
1.16798e-06
1.39828e-06
6.25391e-07
1.17122e-06
1.17406e-06
1.40658e-06
6.30802e-07
1.17607e-06
1.17564e-06
1.41198e-06
6.40742e-07
1.17893e-06
1.1786e-06
1.41303e-06
6.50763e-07
1.18294e-06
1.18427e-06
1.41489e-06
6.56476e-07
1.18876e-06
1.1881e-06
1.41959e-06
6.61065e-07
1.19183e-06
1.19079e-06
1.42423e-06
6.67589e-07
1.19223e-06
1.19329e-06
1.42541e-06
6.73245e-07
1.19472e-06
1.19555e-06
1.4261e-06
6.75886e-07
1.19724e-06
1.19643e-06
1.42942e-06
6.79168e-07
1.19697e-06
1.19604e-06
1.43094e-06
6.83416e-07
1.19654e-06
1.19641e-06
1.42886e-06
6.86299e-07
1.19827e-06
1.19994e-06
1.43044e-06
6.88833e-07
1.19851e-06
1.20091e-06
1.43325e-06
6.9025e-07
1.19581e-06
1.19425e-06
1.42997e-06
6.90893e-07
1.1946e-06
1.19125e-06
1.42708e-06
6.92965e-07
1.19563e-06
1.19591e-06
1.43105e-06
6.94177e-07
1.1944e-06
1.19769e-06
1.43207e-06
6.93331e-07
1.18883e-06
1.19002e-06
1.4234e-06
6.91657e-07
1.18622e-06
1.184e-06
1.42093e-06
6.92842e-07
1.18712e-06
1.18382e-06
1.42721e-06
6.92412e-07
1.18523e-06
1.18596e-06
1.42113e-06
6.91129e-07
1.17705e-06
1.18338e-06
1.40918e-06
6.90946e-07
1.1775e-06
1.17575e-06
1.41537e-06
6.82886e-07
1.17806e-06
1.17898e-06
1.43694e-06
6.85718e-07
1.16473e-06
1.1706e-06
1.40805e-06
6.86689e-07
1.15721e-06
1.13398e-06
1.36182e-06
6.6069e-07
1.10052e-06
1.11027e-06
1.36433e-06
1.16959e-06
1.11821e-06
8.76786e-07
8.9919e-07
8.46369e-07
8.47088e-07
1.19953e-06
1.12226e-06
8.7455e-07
8.67894e-07
8.46875e-07
8.57601e-07
8.83756e-07
8.48261e-07
8.70823e-07
1.15676e-06
1.13673e-06
8.77703e-07
8.59698e-07
8.68809e-07
1.14725e-06
1.11911e-06
1.15223e-06
8.42941e-07
8.40579e-07
8.73059e-07
8.6595e-07
1.12175e-06
1.14803e-06
8.4449e-07
8.61294e-07
8.78532e-07
9.02103e-07
8.70059e-07
8.70268e-07
8.91635e-07
1.14446e-06
1.18265e-06
8.69515e-07
9.06501e-07
8.981e-07
1.17206e-06
1.16689e-06
1.21562e-06
8.93591e-07
8.87315e-07
9.41983e-07
9.30729e-07
1.16246e-06
1.20314e-06
8.97912e-07
9.12205e-07
9.41406e-07
9.30111e-07
9.00403e-07
9.30132e-07
9.16679e-07
1.19156e-06
1.20202e-06
9.0623e-07
9.29833e-07
9.18896e-07
1.18708e-06
1.22417e-06
1.21612e-06
9.52315e-07
9.38139e-07
9.56564e-07
9.35804e-07
1.20873e-06
1.1893e-06
9.50001e-07
9.32161e-07
9.50536e-07
9.35977e-07
9.19379e-07
9.30121e-07
9.2437e-07
1.20345e-06
1.20124e-06
9.19565e-07
9.3154e-07
9.21241e-07
1.18489e-06
1.21622e-06
1.20382e-06
9.49776e-07
9.30545e-07
9.42052e-07
9.29892e-07
1.18942e-06
1.18899e-06
9.45293e-07
9.459e-07
9.42611e-07
9.91158e-07
9.33809e-07
9.30925e-07
9.69978e-07
1.21187e-06
1.26337e-06
9.29882e-07
9.94771e-07
9.74788e-07
1.23254e-06
1.21062e-06
1.25417e-06
9.44944e-07
9.42362e-07
9.93688e-07
1.00326e-06
1.20206e-06
1.26186e-06
9.50308e-07
9.98888e-07
9.97124e-07
9.94715e-07
9.78221e-07
1.00524e-06
9.94407e-07
1.27283e-06
1.24928e-06
9.84152e-07
9.98528e-07
9.97791e-07
1.25686e-06
1.26471e-06
1.29037e-06
1.00789e-06
1.01688e-06
1.03446e-06
1.03813e-06
1.27419e-06
1.30013e-06
1.00827e-06
9.78269e-07
1.02743e-06
9.49293e-07
9.96903e-07
1.03479e-06
1.01208e-06
1.24489e-06
1.18905e-06
9.98278e-07
9.46474e-07
1.00238e-06
1.26916e-06
1.29499e-06
1.31011e-06
1.03809e-06
1.03899e-06
1.04753e-06
1.04086e-06
1.30288e-06
1.30937e-06
1.02937e-06
9.48121e-07
1.03961e-06
9.9654e-07
1.02726e-06
1.04233e-06
1.06476e-06
1.18965e-06
1.24262e-06
1.01543e-06
1.00004e-06
1.05817e-06
1.32726e-06
1.31817e-06
1.33355e-06
1.05458e-06
1.04677e-06
1.06833e-06
1.05926e-06
1.31479e-06
1.31925e-06
1.04911e-06
1.02667e-06
1.06875e-06
1.1002e-06
1.07163e-06
1.06097e-06
1.06987e-06
1.26458e-06
1.35687e-06
1.06649e-06
1.1021e-06
1.0697e-06
1.32518e-06
1.33504e-06
1.28931e-06
1.06877e-06
1.06016e-06
1.0451e-06
1.04907e-06
1.32015e-06
1.28744e-06
1.07058e-06
1.11704e-06
1.05143e-06
1.12823e-06
1.05597e-06
1.04577e-06
1.0286e-06
1.37374e-06
1.38377e-06
1.05918e-06
1.12419e-06
1.03425e-06
1.27218e-06
1.28704e-06
1.26051e-06
1.03648e-06
1.04436e-06
1.0267e-06
1.04101e-06
1.28703e-06
1.28178e-06
1.04241e-06
1.11232e-06
1.03078e-06
1.05653e-06
1.02603e-06
1.04029e-06
1.04578e-06
1.3809e-06
1.31691e-06
1.03194e-06
1.05657e-06
1.04935e-06
1.28529e-06
1.26679e-06
1.31668e-06
1.03093e-06
1.0484e-06
1.08138e-06
1.10209e-06
1.29254e-06
1.35244e-06
1.03307e-06
1.04489e-06
1.07497e-06
1.03442e-06
1.06221e-06
1.10485e-06
1.10066e-06
1.31474e-06
1.28801e-06
1.06319e-06
1.0367e-06
1.09546e-06
1.34311e-06
1.33053e-06
1.37727e-06
1.09645e-06
1.11629e-06
1.13127e-06
1.14029e-06
1.36626e-06
1.3958e-06
1.08897e-06
1.04167e-06
1.12432e-06
1.0897e-06
1.10964e-06
1.14062e-06
1.12341e-06
1.29314e-06
1.32498e-06
1.10316e-06
1.08912e-06
1.11655e-06
1.37236e-06
1.38538e-06
1.39324e-06
1.13796e-06
1.14016e-06
1.143e-06
1.11428e-06
1.39691e-06
1.35777e-06
1.13252e-06
1.10339e-06
1.14333e-06
1.13154e-06
1.12339e-06
1.112e-06
1.11721e-06
1.33459e-06
1.3635e-06
1.1179e-06
1.12855e-06
1.11876e-06
1.36415e-06
1.3944e-06
1.36985e-06
1.14088e-06
1.10682e-06
1.12367e-06
1.09609e-06
1.35667e-06
1.32937e-06
1.14338e-06
1.13624e-06
1.12868e-06
1.13546e-06
1.11565e-06
1.09472e-06
1.11355e-06
1.36968e-06
1.37212e-06
1.11873e-06
1.13322e-06
1.11875e-06
1.35326e-06
1.36962e-06
1.34638e-06
1.11851e-06
1.09614e-06
1.109e-06
1.11246e-06
1.33085e-06
1.34194e-06
1.12274e-06
1.13178e-06
1.11081e-06
1.12416e-06
1.11391e-06
1.11428e-06
1.11976e-06
1.3734e-06
1.36404e-06
1.11899e-06
1.12492e-06
1.12083e-06
1.35513e-06
1.34741e-06
1.35154e-06
1.10874e-06
1.11921e-06
1.12082e-06
1.13708e-06
1.34842e-06
1.36963e-06
1.10958e-06
1.12314e-06
1.11848e-06
1.12625e-06
1.12236e-06
1.13846e-06
1.13287e-06
1.36533e-06
1.36499e-06
1.12227e-06
1.12765e-06
1.13091e-06
1.36656e-06
1.35674e-06
1.37348e-06
1.12678e-06
1.142e-06
1.14387e-06
1.15182e-06
1.37607e-06
1.38887e-06
1.12459e-06
1.13014e-06
1.14233e-06
1.14099e-06
1.13697e-06
1.15203e-06
1.1477e-06
1.36836e-06
1.3756e-06
1.13486e-06
1.14147e-06
1.14633e-06
1.38132e-06
1.37964e-06
1.39423e-06
1.14911e-06
1.15358e-06
1.1612e-06
1.15747e-06
1.39231e-06
1.3944e-06
1.14779e-06
1.1444e-06
1.161e-06
1.15463e-06
1.15022e-06
1.15684e-06
1.15504e-06
1.37951e-06
1.38733e-06
1.14926e-06
1.15418e-06
1.155e-06
1.38964e-06
1.39844e-06
1.40338e-06
1.16374e-06
1.15893e-06
1.16795e-06
1.16418e-06
1.39677e-06
1.39826e-06
1.16377e-06
1.15784e-06
1.16826e-06
1.1666e-06
1.15636e-06
1.16314e-06
1.16151e-06
1.39105e-06
1.39838e-06
1.15648e-06
1.16552e-06
1.16182e-06
1.39522e-06
1.40562e-06
1.40313e-06
1.16851e-06
1.16584e-06
1.16903e-06
1.16975e-06
1.40071e-06
1.40249e-06
1.16884e-06
1.16893e-06
1.16932e-06
1.17308e-06
1.16374e-06
1.16975e-06
1.17093e-06
1.40196e-06
1.40617e-06
1.16407e-06
1.17314e-06
1.17121e-06
1.40342e-06
1.40469e-06
1.40306e-06
1.16911e-06
1.17089e-06
1.17121e-06
1.1742e-06
1.40495e-06
1.40631e-06
1.16936e-06
1.17366e-06
1.17111e-06
1.17445e-06
1.1731e-06
1.17504e-06
1.17767e-06
1.40853e-06
1.40756e-06
1.17333e-06
1.17533e-06
1.1776e-06
1.40969e-06
1.40542e-06
1.40833e-06
1.17276e-06
1.17528e-06
1.17809e-06
1.17812e-06
1.40859e-06
1.40937e-06
1.17256e-06
1.17482e-06
1.17776e-06
1.1773e-06
1.17852e-06
1.17831e-06
1.1796e-06
1.40928e-06
1.4093e-06
1.17832e-06
1.17752e-06
1.17923e-06
1.41132e-06
1.41137e-06
1.41567e-06
1.17996e-06
1.17902e-06
1.1849e-06
1.18235e-06
1.41154e-06
1.41263e-06
1.17969e-06
1.17865e-06
1.1849e-06
1.18351e-06
1.17978e-06
1.18163e-06
1.1812e-06
1.41159e-06
1.41383e-06
1.17948e-06
1.18283e-06
1.18124e-06
1.41266e-06
1.41835e-06
1.41923e-06
1.18602e-06
1.18373e-06
1.18771e-06
1.1879e-06
1.41515e-06
1.41794e-06
1.1861e-06
1.18503e-06
1.18785e-06
1.18788e-06
1.18219e-06
1.18739e-06
1.18644e-06
1.41649e-06
1.41833e-06
1.18232e-06
1.18742e-06
1.18647e-06
1.4169e-06
1.42111e-06
1.41999e-06
1.18802e-06
1.18907e-06
1.18935e-06
1.1912e-06
1.42061e-06
1.42206e-06
1.18805e-06
1.18835e-06
1.18892e-06
1.18976e-06
1.18801e-06
1.19145e-06
1.19182e-06
1.42048e-06
1.42048e-06
1.18792e-06
1.19007e-06
1.19146e-06
1.42195e-06
1.42216e-06
1.42324e-06
1.19007e-06
1.19148e-06
1.19292e-06
1.19189e-06
1.42404e-06
1.42245e-06
1.1897e-06
1.19038e-06
1.19283e-06
1.19252e-06
1.19253e-06
1.19215e-06
1.19319e-06
1.42257e-06
1.42305e-06
1.1922e-06
1.19271e-06
1.19309e-06
1.42375e-06
1.42566e-06
1.42672e-06
1.19393e-06
1.19221e-06
1.19591e-06
1.19443e-06
1.42429e-06
1.42449e-06
1.19391e-06
1.19333e-06
1.19602e-06
1.19557e-06
1.19316e-06
1.19383e-06
1.19321e-06
1.42524e-06
1.42575e-06
1.19312e-06
1.19504e-06
1.19331e-06
1.42393e-06
1.42873e-06
1.42655e-06
1.19615e-06
1.19529e-06
1.19597e-06
1.197e-06
1.42668e-06
1.4274e-06
1.19624e-06
1.19605e-06
1.19589e-06
1.19652e-06
1.19373e-06
1.19686e-06
1.19685e-06
1.42778e-06
1.42722e-06
1.19388e-06
1.19638e-06
1.19674e-06
1.42713e-06
1.42815e-06
1.4261e-06
1.19578e-06
1.19718e-06
1.19577e-06
1.19683e-06
1.42946e-06
1.42754e-06
1.19565e-06
1.19644e-06
1.19555e-06
1.19576e-06
1.19761e-06
1.19727e-06
1.1985e-06
1.42896e-06
1.4263e-06
1.19746e-06
1.19614e-06
1.19826e-06
1.42939e-06
1.42815e-06
1.42806e-06
1.19623e-06
1.19663e-06
1.1975e-06
1.19661e-06
1.42914e-06
1.42739e-06
1.196e-06
1.19569e-06
1.19732e-06
1.19623e-06
1.19833e-06
1.1965e-06
1.19652e-06
1.42796e-06
1.42692e-06
1.19809e-06
1.19605e-06
1.19634e-06
1.42732e-06
1.43009e-06
1.42949e-06
1.19776e-06
1.19704e-06
1.19813e-06
1.19835e-06
1.42938e-06
1.42926e-06
1.19756e-06
1.19687e-06
1.198e-06
1.19946e-06
1.19617e-06
1.19789e-06
1.19673e-06
1.42897e-06
1.43037e-06
1.19601e-06
1.19908e-06
1.19665e-06
1.42817e-06
1.43125e-06
1.43e-06
1.19814e-06
1.1986e-06
1.19805e-06
1.19865e-06
1.43131e-06
1.43038e-06
1.19814e-06
1.20022e-06
1.19829e-06
1.20106e-06
1.19775e-06
1.19866e-06
1.19941e-06
1.43285e-06
1.43364e-06
1.19779e-06
1.2011e-06
1.19969e-06
1.4313e-06
1.43169e-06
1.42833e-06
1.19797e-06
1.19826e-06
1.19685e-06
1.19639e-06
1.43189e-06
1.42797e-06
1.19826e-06
1.20074e-06
1.1969e-06
1.1958e-06
1.19948e-06
1.19647e-06
1.19715e-06
1.43519e-06
1.4278e-06
1.19977e-06
1.1959e-06
1.19712e-06
1.42864e-06
1.42983e-06
1.42685e-06
1.19631e-06
1.19586e-06
1.19514e-06
1.19505e-06
1.42945e-06
1.42673e-06
1.19614e-06
1.19429e-06
1.19451e-06
1.19168e-06
1.19597e-06
1.19462e-06
1.19375e-06
1.42899e-06
1.42279e-06
1.19573e-06
1.19134e-06
1.19316e-06
1.42523e-06
1.4288e-06
1.4287e-06
1.19506e-06
1.19508e-06
1.19545e-06
1.19563e-06
1.42874e-06
1.42871e-06
1.19436e-06
1.19161e-06
1.19507e-06
1.19471e-06
1.19365e-06
1.19545e-06
1.19575e-06
1.42453e-06
1.42662e-06
1.19304e-06
1.19464e-06
1.19547e-06
1.42857e-06
1.43074e-06
1.42839e-06
1.19553e-06
1.19568e-06
1.1949e-06
1.1949e-06
1.43076e-06
1.42839e-06
1.19533e-06
1.19582e-06
1.19526e-06
1.19743e-06
1.19645e-06
1.19533e-06
1.19686e-06
1.4294e-06
1.43159e-06
1.19634e-06
1.19775e-06
1.19705e-06
1.43075e-06
1.42986e-06
1.42457e-06
1.19412e-06
1.19402e-06
1.19099e-06
1.19046e-06
1.42984e-06
1.4235e-06
1.19463e-06
1.19736e-06
1.19126e-06
1.19253e-06
1.19605e-06
1.19009e-06
1.18887e-06
1.43344e-06
1.42626e-06
1.19642e-06
1.19216e-06
1.18908e-06
1.42233e-06
1.42596e-06
1.42105e-06
1.18997e-06
1.18939e-06
1.18719e-06
1.18693e-06
1.42481e-06
1.42009e-06
1.19019e-06
1.19062e-06
1.18712e-06
1.18553e-06
1.18703e-06
1.18636e-06
1.18499e-06
1.42739e-06
1.41907e-06
1.18717e-06
1.18495e-06
1.185e-06
1.41817e-06
1.42255e-06
1.42104e-06
1.18674e-06
1.18663e-06
1.18666e-06
1.18652e-06
1.42194e-06
1.42182e-06
1.18652e-06
1.18445e-06
1.18582e-06
1.18315e-06
1.18582e-06
1.1869e-06
1.19037e-06
1.42043e-06
1.41817e-06
1.18571e-06
1.18324e-06
1.18963e-06
1.42486e-06
1.42299e-06
1.41987e-06
1.18673e-06
1.18661e-06
1.18486e-06
1.18595e-06
1.42386e-06
1.421e-06
1.1858e-06
1.18345e-06
1.18432e-06
1.18552e-06
1.1906e-06
1.18658e-06
1.18501e-06
1.4202e-06
1.42e-06
1.18977e-06
1.18565e-06
1.18437e-06
1.42023e-06
1.42122e-06
1.41602e-06
1.18308e-06
1.18469e-06
1.1799e-06
1.17976e-06
1.42238e-06
1.41442e-06
1.18318e-06
1.18596e-06
1.18096e-06
1.18603e-06
1.18139e-06
1.17853e-06
1.17261e-06
1.42189e-06
1.42133e-06
1.18137e-06
1.18514e-06
1.17359e-06
1.40811e-06
1.41774e-06
1.41671e-06
1.17988e-06
1.17894e-06
1.18007e-06
1.17861e-06
1.4157e-06
1.41419e-06
1.18087e-06
1.18565e-06
1.17993e-06
1.17861e-06
1.17138e-06
1.17587e-06
1.17474e-06
1.42314e-06
1.4162e-06
1.17233e-06
1.17661e-06
1.17354e-06
1.40967e-06
1.41795e-06
1.40464e-06
1.17959e-06
1.17907e-06
1.16837e-06
1.1756e-06
1.41701e-06
1.41393e-06
1.17827e-06
1.17645e-06
1.16811e-06
1.17311e-06
1.18199e-06
1.17919e-06
1.19413e-06
1.41742e-06
1.41236e-06
1.17924e-06
1.1769e-06
1.19262e-06
1.43243e-06
1.40568e-06
1.40263e-06
1.166e-06
1.17196e-06
1.16548e-06
1.16606e-06
1.41481e-06
1.40062e-06
1.16707e-06
1.17333e-06
1.1687e-06
1.17301e-06
1.1948e-06
1.1663e-06
1.1713e-06
1.41465e-06
1.41018e-06
1.19417e-06
1.17779e-06
1.1776e-06
1.41107e-06
1.40553e-06
1.40194e-06
1.16873e-06
1.16629e-06
1.1706e-06
1.16708e-06
1.40177e-06
1.39723e-06
1.17017e-06
1.17034e-06
1.16521e-06
1.14489e-06
1.15831e-06
1.15801e-06
1.13362e-06
1.40988e-06
1.37219e-06
1.16104e-06
1.13778e-06
1.12861e-06
1.36163e-06
1.40279e-06
1.37562e-06
1.16848e-06
1.16619e-06
1.1368e-06
1.13422e-06
1.39867e-06
1.37394e-06
1.16108e-06
1.14106e-06
1.13404e-06
1.12839e-06
1.13256e-06
1.13359e-06
1.1382e-06
1.37251e-06
1.37014e-06
1.1265e-06
1.12833e-06
1.13408e-06
1.37371e-06
1.35588e-06
1.10245e-06
1.09872e-06
1.35288e-06
1.10245e-06
1.10766e-06
6.57038e-07
6.60947e-07
6.66368e-07
1.11696e-06
1.35978e-06
1.11628e-06
4.11426e-06
9.29485e-06
4.15194e-06
9.20338e-06
1.87779e-05
1.85963e-05
4.10713e-06
9.27957e-06
4.14009e-06
9.19881e-06
3.61028e-07
3.29569e-07
3.33966e-07
3.14593e-07
3.21839e-07
3.19471e-07
3.2586e-07
2.11689e-06
3.56985e-06
6.0125e-07
8.76024e-07
2.1396e-06
3.52063e-06
5.87376e-07
1.84687e-05
1.83e-05
2.10572e-06
5.76054e-07
3.50099e-06
8.61889e-07
2.12163e-06
5.70445e-07
3.46085e-06
5.49261e-06
5.47614e-06
1.15591e-06
5.42961e-06
5.42484e-06
4.0377e-06
9.05857e-06
4.05107e-06
9.02884e-06
1.82364e-05
1.81714e-05
4.04677e-06
9.08073e-06
4.05841e-06
9.05489e-06
3.14142e-07
3.19273e-07
3.24942e-07
3.13359e-07
3.09049e-07
3.39315e-07
3.34742e-07
2.09034e-06
3.43811e-06
5.59983e-07
8.42112e-07
2.08842e-06
3.41836e-06
5.57162e-07
1.81985e-05
1.82494e-05
2.10366e-06
5.64273e-07
3.4337e-06
8.80119e-07
2.09587e-06
5.66691e-07
3.44155e-06
5.38446e-06
5.39051e-06
1.15448e-06
5.39874e-06
5.40832e-06
4.09242e-06
9.08262e-06
4.06246e-06
9.15596e-06
1.82929e-05
1.84296e-05
4.09528e-06
9.09113e-06
4.06664e-06
9.15022e-06
3.17769e-07
3.47989e-07
3.41628e-07
3.68171e-07
3.56256e-07
3.65623e-07
3.55514e-07
2.13656e-06
3.44625e-06
5.81277e-07
9.07602e-07
2.11742e-06
3.48203e-06
5.979e-07
1.8414e-05
1.85323e-05
2.14149e-06
6.04533e-07
3.48885e-06
9.22642e-07
2.12794e-06
6.14554e-07
3.51392e-06
5.47864e-06
5.48982e-06
1.18456e-06
5.52271e-06
5.53179e-06
4.13231e-06
9.24403e-06
4.12602e-06
9.26841e-06
1.8544e-05
1.85607e-05
4.13414e-06
9.23452e-06
4.1309e-06
9.25916e-06
3.64639e-07
3.69125e-07
3.58308e-07
3.93891e-07
3.77092e-07
3.75619e-07
3.6633e-07
2.14627e-06
3.51983e-06
6.31449e-07
9.37782e-07
2.15059e-06
3.51787e-06
6.37679e-07
1.86081e-05
1.85384e-05
2.13661e-06
6.32104e-07
3.51808e-06
9.29508e-07
2.14366e-06
6.34278e-07
3.49537e-06
5.50981e-06
5.51257e-06
1.18228e-06
5.4521e-06
5.4526e-06
4.10505e-06
9.25246e-06
4.11939e-06
9.21779e-06
1.84957e-05
1.84339e-05
4.10452e-06
9.23809e-06
4.1154e-06
9.20799e-06
3.77498e-07
3.81156e-07
3.73657e-07
3.90295e-07
3.77803e-07
4.15133e-07
4.01975e-07
2.13979e-06
3.49149e-06
6.43164e-07
9.24578e-07
2.13741e-06
3.47547e-06
6.43348e-07
1.83563e-05
1.83396e-05
2.15347e-06
6.38102e-07
3.46871e-06
9.6246e-07
2.13758e-06
6.46945e-07
3.47796e-06
5.38495e-06
5.38668e-06
1.20836e-06
5.40518e-06
5.40939e-06
4.1116e-06
9.17402e-06
4.09773e-06
9.18072e-06
1.83384e-05
1.83721e-05
4.13255e-06
9.18789e-06
4.11346e-06
9.21132e-06
3.81893e-07
4.23049e-07
4.10077e-07
4.15925e-07
4.27251e-07
4.29989e-07
4.27098e-07
2.17505e-06
3.47243e-06
6.63796e-07
9.71178e-07
2.15978e-06
3.4887e-06
6.79106e-07
1.85231e-05
1.86872e-05
2.19988e-06
6.93262e-07
3.54661e-06
1.00741e-06
2.18694e-06
7.02068e-07
3.58463e-06
5.5145e-06
5.53225e-06
1.24976e-06
5.56126e-06
5.58648e-06
4.169e-06
9.26714e-06
4.15386e-06
9.31764e-06
1.85954e-05
1.8717e-05
4.15223e-06
9.27038e-06
4.1557e-06
9.2904e-06
4.40463e-07
4.25924e-07
4.30403e-07
4.54666e-07
4.65556e-07
4.04248e-07
4.4209e-07
2.19772e-06
3.53967e-06
7.15599e-07
1.02598e-06
2.19418e-06
3.56043e-06
7.23704e-07
1.88305e-05
1.87251e-05
2.17384e-06
7.07002e-07
3.58772e-06
9.63496e-07
2.1895e-06
6.99788e-07
3.54727e-06
5.55315e-06
5.54791e-06
1.25681e-06
5.50881e-06
5.47196e-06
4.15161e-06
9.33177e-06
4.16301e-06
9.31043e-06
1.87434e-05
1.86977e-05
4.12819e-06
9.28471e-06
4.13247e-06
9.27656e-06
4.69588e-07
4.01659e-07
4.51385e-07
4.73136e-07
4.73363e-07
4.12766e-07
4.81204e-07
2.20664e-06
3.57255e-06
7.35642e-07
1.0357e-06
2.19913e-06
3.57315e-06
7.37442e-07
1.83917e-05
1.83141e-05
2.17396e-06
6.86752e-07
3.47399e-06
9.48926e-07
2.1618e-06
6.87627e-07
3.45732e-06
5.45643e-06
5.42187e-06
1.29981e-06
5.48275e-06
5.4691e-06
4.17505e-06
9.2986e-06
4.15609e-06
9.34001e-06
1.86713e-05
1.87254e-05
4.17535e-06
9.29041e-06
4.14954e-06
9.33562e-06
4.75166e-07
4.37187e-07
4.8805e-07
4.88141e-07
4.81264e-07
5.09829e-07
4.94759e-07
2.24195e-06
3.59079e-06
7.57251e-07
1.0551e-06
2.22899e-06
3.60757e-06
7.64224e-07
1.83924e-05
1.85364e-05
2.23266e-06
7.39923e-07
3.48792e-06
1.05845e-06
2.2101e-06
7.62317e-07
3.52945e-06
5.61134e-06
5.6199e-06
1.34211e-06
5.68438e-06
5.69489e-06
4.20666e-06
9.42887e-06
4.20565e-06
9.45237e-06
1.88126e-05
1.87955e-05
4.2193e-06
9.418e-06
4.2118e-06
9.44976e-06
4.82213e-07
5.2807e-07
4.91365e-07
4.81682e-07
4.80232e-07
5.56054e-07
4.712e-07
2.23178e-06
3.61484e-06
7.74927e-07
1.05827e-06
2.24429e-06
3.59273e-06
7.74868e-07
1.8773e-05
1.88875e-05
2.25397e-06
8.09154e-07
3.61033e-06
1.127e-06
2.25399e-06
8.16996e-07
3.64094e-06
5.70733e-06
5.71682e-06
1.29522e-06
5.63037e-06
5.6445e-06
4.14422e-06
9.37176e-06
4.17334e-06
9.2881e-06
1.86284e-05
1.85582e-05
4.16959e-06
9.38538e-06
4.19789e-06
9.29541e-06
4.78331e-07
5.55176e-07
4.6818e-07
4.67549e-07
4.76969e-07
5.12526e-07
4.71331e-07
2.19616e-06
3.54336e-06
7.63519e-07
1.03875e-06
2.20515e-06
3.52144e-06
7.61254e-07
1.89808e-05
1.89684e-05
2.22957e-06
8.08781e-07
3.66145e-06
1.08773e-06
2.24e-06
7.97042e-07
3.6514e-06
5.46203e-06
5.47084e-06
1.26585e-06
5.40747e-06
5.40111e-06
4.12138e-06
9.19845e-06
4.11733e-06
9.19845e-06
1.8513e-05
1.85694e-05
4.12549e-06
9.19201e-06
4.13086e-06
9.18867e-06
4.79307e-07
4.98853e-07
4.83128e-07
4.99026e-07
5.19747e-07
4.75484e-07
5.212e-07
2.21698e-06
3.51897e-06
7.65472e-07
1.07063e-06
2.20276e-06
3.53671e-06
7.79448e-07
1.87915e-05
1.87037e-05
2.2174e-06
7.73041e-07
3.61085e-06
1.03914e-06
2.21806e-06
7.6951e-07
3.58405e-06
5.42762e-06
5.40703e-06
1.31489e-06
5.48168e-06
5.46611e-06
4.19331e-06
9.30259e-06
4.16248e-06
9.38413e-06
1.87527e-05
1.88705e-05
4.17098e-06
9.28802e-06
4.14727e-06
9.36897e-06
5.336e-07
4.73917e-07
5.3095e-07
5.50802e-07
5.6115e-07
4.96011e-07
5.49957e-07
2.26677e-06
3.59753e-06
8.2591e-07
1.1295e-06
2.24903e-06
3.63222e-06
8.37352e-07
1.86235e-05
1.86219e-05
2.23821e-06
7.76454e-07
3.55632e-06
1.05929e-06
2.22829e-06
7.89321e-07
3.54952e-06
5.59385e-06
5.58703e-06
1.36389e-06
5.64807e-06
5.63791e-06
4.23346e-06
9.46877e-06
4.2279e-06
9.48693e-06
1.89832e-05
1.89927e-05
4.21698e-06
9.45644e-06
4.20418e-06
9.47994e-06
5.64691e-07
5.10601e-07
5.52627e-07
5.7526e-07
5.55004e-07
5.48869e-07
5.5347e-07
2.27774e-06
3.6653e-06
8.54808e-07
1.13259e-06
2.28023e-06
3.66279e-06
8.54279e-07
1.867e-05
1.87289e-05
2.26051e-06
8.27268e-07
3.56073e-06
1.11284e-06
2.25375e-06
8.3752e-07
3.57598e-06
5.67712e-06
5.66975e-06
1.37027e-06
5.65357e-06
5.65744e-06
4.21455e-06
9.48439e-06
4.22522e-06
9.4777e-06
1.88772e-05
1.87956e-05
4.22127e-06
9.48434e-06
4.22376e-06
9.4803e-06
5.48212e-07
5.57938e-07
5.52842e-07
5.68035e-07
5.36473e-07
5.71669e-07
5.5253e-07
2.2555e-06
3.63054e-06
8.37483e-07
1.09928e-06
2.26437e-06
3.60235e-06
8.33505e-07
1.88037e-05
1.88428e-05
2.2648e-06
8.56893e-07
3.60555e-06
1.13479e-06
2.26551e-06
8.5906e-07
3.61362e-06
5.59779e-06
5.61449e-06
1.35736e-06
5.57573e-06
5.59167e-06
4.18726e-06
9.45182e-06
4.19684e-06
9.42645e-06
1.86855e-05
1.86674e-05
4.20043e-06
9.46103e-06
4.21103e-06
9.43506e-06
5.35538e-07
5.72416e-07
5.52964e-07
5.53074e-07
5.4529e-07
5.70055e-07
5.58395e-07
2.24522e-06
3.57186e-06
8.30209e-07
1.09964e-06
2.24681e-06
3.56285e-06
8.32613e-07
1.88634e-05
1.8857e-05
2.25777e-06
8.58313e-07
3.61827e-06
1.12817e-06
2.261e-06
8.57021e-07
3.61395e-06
5.56585e-06
5.57284e-06
1.35295e-06
5.56668e-06
5.5695e-06
4.17635e-06
9.38785e-06
4.17737e-06
9.37714e-06
1.87015e-05
1.87617e-05
4.18052e-06
9.39179e-06
4.18478e-06
9.3803e-06
5.53174e-07
5.69334e-07
5.60999e-07
5.55076e-07
5.7634e-07
5.7001e-07
5.71895e-07
2.25126e-06
3.56756e-06
8.53073e-07
1.12746e-06
2.24717e-06
3.57769e-06
8.59757e-07
1.88244e-05
1.88201e-05
2.25459e-06
8.55258e-07
3.60509e-06
1.12419e-06
2.25448e-06
8.55517e-07
3.60109e-06
5.57307e-06
5.57044e-06
1.35975e-06
5.57635e-06
5.57209e-06
4.19323e-06
9.3815e-06
4.18432e-06
9.40039e-06
1.88478e-05
1.88964e-05
4.18914e-06
9.38368e-06
4.18256e-06
9.40158e-06
5.8302e-07
5.72688e-07
5.76424e-07
5.8231e-07
5.983e-07
5.83873e-07
5.90499e-07
2.26784e-06
3.60464e-06
8.76555e-07
1.14706e-06
2.26136e-06
3.61607e-06
8.80954e-07
1.88334e-05
1.88584e-05
2.26373e-06
8.64477e-07
3.60242e-06
1.13467e-06
2.25931e-06
8.68767e-07
3.60581e-06
5.58537e-06
5.58321e-06
1.37422e-06
5.59324e-06
5.59319e-06
4.21294e-06
9.43607e-06
4.20725e-06
9.45752e-06
1.89345e-05
1.89461e-05
4.20921e-06
9.43745e-06
4.20226e-06
9.45916e-06
6.01474e-07
5.87865e-07
5.94526e-07
6.07187e-07
6.07232e-07
6.00038e-07
6.0349e-07
2.27881e-06
3.63014e-06
8.88827e-07
1.15472e-06
2.27603e-06
3.63236e-06
8.90162e-07
1.88891e-05
1.89032e-05
2.27484e-06
8.81446e-07
3.61442e-06
1.14799e-06
2.27164e-06
8.85207e-07
3.61697e-06
5.60786e-06
5.61085e-06
1.3865e-06
5.61234e-06
5.61535e-06
4.22116e-06
9.47966e-06
4.219e-06
9.49379e-06
1.8949e-05
1.8952e-05
4.21986e-06
9.48053e-06
4.21623e-06
9.4939e-06
6.08713e-07
6.04115e-07
6.05763e-07
6.20154e-07
6.14212e-07
6.15757e-07
6.12712e-07
2.28232e-06
3.63302e-06
8.93748e-07
1.15962e-06
2.2814e-06
3.63196e-06
8.95435e-07
1.89142e-05
1.89293e-05
2.28031e-06
8.94577e-07
3.62093e-06
1.16e-06
2.27858e-06
8.97382e-07
3.62325e-06
5.61635e-06
5.61899e-06
1.39213e-06
5.61685e-06
5.6195e-06
4.22739e-06
9.51093e-06
4.22575e-06
9.51756e-06
1.89591e-05
1.89695e-05
4.22815e-06
9.51129e-06
4.22588e-06
9.51857e-06
6.16428e-07
6.1927e-07
6.15362e-07
6.24704e-07
6.23156e-07
6.27557e-07
6.24244e-07
2.28614e-06
3.63231e-06
9.02362e-07
1.16666e-06
2.28467e-06
3.63315e-06
9.04917e-07
1.89572e-05
1.89767e-05
2.28691e-06
9.05723e-07
3.63119e-06
1.17011e-06
2.28453e-06
9.08316e-07
3.63496e-06
5.61941e-06
5.62191e-06
1.39915e-06
5.62175e-06
5.62409e-06
4.22687e-06
9.51808e-06
4.22789e-06
9.51527e-06
1.89804e-05
1.89876e-05
4.22809e-06
9.51998e-06
4.22887e-06
9.51762e-06
6.2533e-07
6.29485e-07
6.27209e-07
6.28923e-07
6.31596e-07
6.33524e-07
6.34856e-07
2.29004e-06
3.63656e-06
9.12085e-07
1.17261e-06
2.2891e-06
3.63707e-06
9.1417e-07
1.8994e-05
1.90039e-05
2.29109e-06
9.14532e-07
3.64035e-06
1.17465e-06
2.29033e-06
9.15974e-07
3.641e-06
5.6283e-06
5.63021e-06
1.40715e-06
5.63145e-06
5.63354e-06
4.2257e-06
9.51102e-06
4.2256e-06
9.51249e-06
1.89983e-05
1.90114e-05
4.22644e-06
9.51387e-06
4.22671e-06
9.51513e-06
6.33586e-07
6.34635e-07
6.36796e-07
6.3805e-07
6.3894e-07
6.38555e-07
6.41071e-07
2.29142e-06
3.63859e-06
9.19253e-07
1.17694e-06
2.29124e-06
3.63901e-06
9.2056e-07
1.9012e-05
1.90174e-05
2.29139e-06
9.1897e-07
3.64115e-06
1.17607e-06
2.29174e-06
9.19782e-07
3.64012e-06
5.63756e-06
5.63938e-06
1.41103e-06
5.63916e-06
5.64079e-06
4.23017e-06
9.52191e-06
4.22877e-06
9.53083e-06
1.90254e-05
1.90329e-05
4.22977e-06
9.52377e-06
4.2282e-06
9.53236e-06
6.40562e-07
6.40249e-07
6.42154e-07
6.48574e-07
6.45807e-07
6.46531e-07
6.45642e-07
2.29179e-06
3.64004e-06
9.23548e-07
1.17963e-06
2.29192e-06
3.63972e-06
9.24447e-07
1.90211e-05
1.90282e-05
2.29188e-06
9.22739e-07
3.6394e-06
1.17988e-06
2.29171e-06
9.24046e-07
3.63934e-06
5.64049e-06
5.64209e-06
1.41143e-06
5.6401e-06
5.64177e-06
4.23474e-06
9.5433e-06
4.23316e-06
9.55261e-06
1.90399e-05
1.90497e-05
4.23594e-06
9.54563e-06
4.23358e-06
9.55532e-06
6.47845e-07
6.48802e-07
6.47156e-07
6.55381e-07
6.54366e-07
6.54664e-07
6.53048e-07
2.29374e-06
3.64079e-06
9.2812e-07
1.18439e-06
2.2929e-06
3.64175e-06
9.29743e-07
1.90447e-05
1.90608e-05
2.29456e-06
9.28911e-07
3.64247e-06
1.18555e-06
2.29364e-06
9.30593e-07
3.64438e-06
5.63948e-06
5.64164e-06
1.41442e-06
5.6396e-06
5.6421e-06
4.2388e-06
9.56107e-06
4.23798e-06
9.56433e-06
1.90688e-05
1.90845e-05
4.23883e-06
9.56337e-06
4.23845e-06
9.56634e-06
6.56445e-07
6.56192e-07
6.55215e-07
6.59739e-07
6.61603e-07
6.60354e-07
6.61367e-07
2.2979e-06
3.64678e-06
9.35035e-07
1.18993e-06
2.29654e-06
3.64892e-06
9.36639e-07
1.90757e-05
1.90842e-05
2.29748e-06
9.34849e-07
3.64806e-06
1.18872e-06
2.29683e-06
9.36007e-07
3.64854e-06
5.64369e-06
5.64594e-06
1.41965e-06
5.64693e-06
5.64866e-06
4.24012e-06
9.56716e-06
4.23992e-06
9.56942e-06
1.90994e-05
1.91085e-05
4.23957e-06
9.56896e-06
4.23934e-06
9.57082e-06
6.62899e-07
6.61774e-07
6.63097e-07
6.65868e-07
6.65787e-07
6.65987e-07
6.66895e-07
2.29949e-06
3.65184e-06
9.40122e-07
1.19201e-06
2.29963e-06
3.65174e-06
9.40742e-07
1.90922e-05
1.9101e-05
2.29877e-06
9.39229e-07
3.64939e-06
1.19147e-06
2.29863e-06
9.40166e-07
3.64957e-06
5.65345e-06
5.65486e-06
1.42335e-06
5.65521e-06
5.65689e-06
4.24178e-06
9.5749e-06
4.24126e-06
9.5808e-06
1.91165e-05
1.91219e-05
4.24231e-06
9.57646e-06
4.24113e-06
9.5832e-06
6.66695e-07
6.67354e-07
6.67709e-07
6.72112e-07
6.70286e-07
6.71444e-07
6.70098e-07
2.29867e-06
3.65161e-06
9.4167e-07
1.19244e-06
2.29914e-06
3.65103e-06
9.42017e-07
1.91149e-05
1.91255e-05
2.29927e-06
9.42322e-07
3.65144e-06
1.19387e-06
2.29942e-06
9.42917e-07
3.65193e-06
5.65683e-06
5.65894e-06
1.42342e-06
5.65652e-06
5.65875e-06
4.24444e-06
9.59096e-06
4.24368e-06
9.59731e-06
1.91292e-05
1.91408e-05
4.24507e-06
9.59364e-06
4.2445e-06
9.59952e-06
6.71779e-07
6.72769e-07
6.71238e-07
6.7536e-07
6.76038e-07
6.75963e-07
6.75675e-07
2.29965e-06
3.65174e-06
9.44259e-07
1.19557e-06
2.29937e-06
3.65252e-06
9.45298e-07
1.91367e-05
1.91477e-05
2.30002e-06
9.45034e-07
3.65348e-06
1.19595e-06
2.29989e-06
9.45801e-07
3.65412e-06
5.656e-06
5.65829e-06
1.42538e-06
5.65631e-06
5.65851e-06
4.24559e-06
9.60142e-06
4.24563e-06
9.6025e-06
1.91579e-05
1.91679e-05
4.24539e-06
9.60353e-06
4.24551e-06
9.6046e-06
6.77168e-07
6.7671e-07
6.77166e-07
6.78113e-07
6.79475e-07
6.78533e-07
6.80642e-07
2.30126e-06
3.65612e-06
9.48175e-07
1.19741e-06
2.30105e-06
3.65659e-06
9.48748e-07
1.9159e-05
1.91663e-05
2.30082e-06
9.47693e-07
3.65615e-06
1.1964e-06
2.30095e-06
9.48072e-07
3.65595e-06
5.66202e-06
5.66368e-06
1.42874e-06
5.66522e-06
5.66677e-06
4.24549e-06
9.60329e-06
4.2457e-06
9.60587e-06
1.91764e-05
1.91823e-05
4.24518e-06
9.60507e-06
4.24535e-06
9.60727e-06
6.80047e-07
6.79181e-07
6.81308e-07
6.82449e-07
6.81854e-07
6.81439e-07
6.82097e-07
2.29975e-06
3.65659e-06
9.49243e-07
1.19672e-06
2.3008e-06
3.65557e-06
9.49183e-07
1.91724e-05
1.91785e-05
2.29917e-06
9.48634e-07
3.65533e-06
1.19597e-06
2.30023e-06
9.48652e-07
3.65418e-06
5.6687e-06
5.67026e-06
1.42829e-06
5.66866e-06
5.67037e-06
4.24658e-06
9.61333e-06
4.24616e-06
9.61949e-06
1.91876e-05
1.9195e-05
4.24692e-06
9.61493e-06
4.24622e-06
9.62134e-06
6.82648e-07
6.82421e-07
6.82251e-07
6.85663e-07
6.85446e-07
6.86411e-07
6.8423e-07
2.29869e-06
3.6552e-06
9.48917e-07
1.19684e-06
2.299e-06
3.65507e-06
9.49004e-07
1.91871e-05
1.91947e-05
2.29831e-06
9.48785e-07
3.65373e-06
1.19717e-06
2.29846e-06
9.49101e-07
3.65369e-06
5.66728e-06
5.66933e-06
1.42686e-06
5.66551e-06
5.66755e-06
4.24916e-06
9.62631e-06
4.24837e-06
9.63054e-06
1.92095e-05
1.92232e-05
4.24951e-06
9.62795e-06
4.24844e-06
9.63268e-06
6.86412e-07
6.87847e-07
6.85487e-07
6.88192e-07
6.88631e-07
6.90711e-07
6.89236e-07
2.30003e-06
3.65775e-06
9.51e-07
1.19852e-06
2.29962e-06
3.65912e-06
9.51605e-07
1.92062e-05
1.92224e-05
2.3009e-06
9.51963e-07
3.65727e-06
1.2006e-06
2.29993e-06
9.52827e-07
3.66008e-06
5.66707e-06
5.66902e-06
1.42987e-06
5.67063e-06
5.67274e-06
4.25093e-06
9.63566e-06
4.25081e-06
9.63873e-06
1.92359e-05
1.92419e-05