/*--------------------------------*- C++ -*----------------------------------*\
| =========                 |                                                 |
| \\      /  F ield         | OpenFOAM: The Open Source CFD Toolbox           |
|  \\    /   O peration     | Version:  v2012                                 |
|   \\  /    A nd           | Website:  www.openfoam.com                      |
|    \\/     M anipulation  |                                                 |
\*---------------------------------------------------------------------------*/
FoamFile
{
    version     2.0;
    format      ascii;
    class       volScalarField;
    location    "625";
    object      k;
}
// * * * * * * * * * * * * * * * * * * * * * * * * * * * * * * * * * * * * * //

dimensions      [0 2 -2 0 0 0 0];


internalField   nonuniform List<scalar> 
85864
(
2.47742e-05
4.22175e-05
4.11573e-05
4.58534e-05
2.52454e-05
4.2936e-05
3.88626e-05
4.38147e-05
2.10605e-05
3.58359e-05
3.61373e-05
4.13198e-05
1.97718e-05
3.58863e-05
3.93634e-05
4.42492e-05
2.42269e-05
4.10278e-05
4.07619e-05
4.49207e-05
2.60354e-05
4.0191e-05
3.92459e-05
4.22467e-05
2.49818e-05
3.88972e-05
4.361e-05
4.68646e-05
2.53651e-05
4.35794e-05
4.50098e-05
4.71901e-05
2.86756e-05
4.46523e-05
3.95152e-05
4.51661e-05
2.9633e-05
4.5051e-05
3.95984e-05
5.06894e-05
3.13176e-05
4.65667e-05
4.81924e-05
5.23749e-05
3.09996e-05
4.46338e-05
5.0235e-05
4.60559e-05
2.81741e-05
4.29999e-05
4.63492e-05
4.58082e-05
2.84127e-05
4.70582e-05
4.38122e-05
5.08674e-05
3.35352e-05
5.02853e-05
4.54045e-05
5.23376e-05
3.56418e-05
4.8735e-05
4.85209e-05
5.10952e-05
3.54358e-05
4.64325e-05
4.89326e-05
5.0364e-05
3.34816e-05
4.65048e-05
4.83783e-05
5.04668e-05
3.29301e-05
4.8833e-05
4.82216e-05
5.10808e-05
3.42875e-05
4.98366e-05
4.8991e-05
5.20171e-05
3.62744e-05
5.00079e-05
4.95177e-05
5.22367e-05
3.72277e-05
5.00598e-05
5.02206e-05
5.23845e-05
3.75402e-05
5.04954e-05
5.07558e-05
5.28616e-05
3.75329e-05
5.08057e-05
5.08978e-05
5.32332e-05
3.78901e-05
5.10193e-05
5.09144e-05
5.33349e-05
3.86432e-05
5.11352e-05
5.12556e-05
5.3319e-05
3.91531e-05
5.15685e-05
5.15982e-05
5.35856e-05
3.93545e-05
5.18971e-05
5.17559e-05
5.39267e-05
3.97092e-05
5.1968e-05
5.19764e-05
5.40537e-05
4.01645e-05
5.20428e-05
5.21578e-05
5.40071e-05
4.04411e-05
5.23754e-05
5.23661e-05
5.42924e-05
4.05465e-05
5.24822e-05
5.24131e-05
5.44828e-05
4.08706e-05
5.24629e-05
5.24005e-05
5.43948e-05
4.11443e-05
5.26454e-05
5.26575e-05
5.43853e-05
4.13972e-05
5.28603e-05
5.30525e-05
5.47999e-05
4.15873e-05
5.28061e-05
5.28984e-05
5.47192e-05
4.15974e-05
5.26959e-05
5.24914e-05
5.44139e-05
4.17999e-05
5.29486e-05
5.27208e-05
5.47396e-05
4.20827e-05
5.31085e-05
5.32526e-05
5.51316e-05
4.21469e-05
5.28976e-05
5.31671e-05
5.47142e-05
4.20018e-05
5.26655e-05
5.26871e-05
5.41203e-05
4.20776e-05
5.29238e-05
5.26344e-05
5.50311e-05
4.23101e-05
5.30608e-05
5.28815e-05
5.5208e-05
4.2278e-05
5.26492e-05
5.30309e-05
5.41819e-05
4.24295e-05
5.25458e-05
5.27727e-05
5.33574e-05
4.21459e-05
5.31635e-05
5.27174e-05
5.59203e-05
4.19602e-05
5.24894e-05
5.35203e-05
5.69409e-05
4.19558e-05
5.09959e-05
5.00317e-05
5.10596e-05
4.74879e-05
4.57212e-05
4.15783e-05
4.23992e-05
4.17465e-05
4.36121e-05
4.80862e-05
4.91538e-05
4.16268e-05
4.13711e-05
4.16057e-05
4.05969e-05
4.0233e-05
4.33225e-05
4.02892e-05
4.72916e-05
4.37563e-05
4.03429e-05
4.02614e-05
4.00379e-05
4.41616e-05
4.49699e-05
3.99923e-05
4.09172e-05
4.3215e-05
3.63932e-05
3.72053e-05
4.82758e-05
4.01406e-05
4.06019e-05
3.91285e-05
3.63312e-05
3.62021e-05
3.9765e-05
3.71481e-05
3.72604e-05
4.30396e-05
4.01997e-05
3.9208e-05
3.62456e-05
3.69548e-05
4.13295e-05
3.97772e-05
4.06075e-05
3.55277e-05
3.58125e-05
3.51398e-05
3.51088e-05
3.96071e-05
4.04112e-05
3.55701e-05
3.60416e-05
3.53369e-05
3.74237e-05
3.69246e-05
3.52739e-05
3.73127e-05
4.02654e-05
4.39565e-05
3.67524e-05
3.78786e-05
3.76497e-05
4.34304e-05
4.15009e-05
4.61404e-05
3.5679e-05
3.55989e-05
4.07342e-05
4.03916e-05
4.15036e-05
4.60146e-05
3.60142e-05
3.89022e-05
4.09155e-05
4.07071e-05
3.83703e-05
4.05267e-05
3.9969e-05
4.48192e-05
4.57944e-05
3.89411e-05
4.08359e-05
4.02854e-05
4.51649e-05
4.65406e-05
4.60644e-05
4.1676e-05
4.1106e-05
4.21226e-05
4.11977e-05
4.62294e-05
4.47714e-05
4.16509e-05
4.06831e-05
4.18371e-05
3.967e-05
3.99471e-05
4.08614e-05
3.91165e-05
4.55586e-05
4.25733e-05
4.02184e-05
3.93018e-05
3.89042e-05
4.22397e-05
4.58453e-05
4.37055e-05
4.18792e-05
4.07053e-05
4.00568e-05
3.89236e-05
4.44663e-05
4.21319e-05
4.1456e-05
3.96201e-05
4.00859e-05
4.1664e-05
3.90679e-05
3.88701e-05
4.05499e-05
4.25645e-05
4.73309e-05
3.88357e-05
4.17008e-05
4.06763e-05
4.60567e-05
4.36934e-05
4.59161e-05
3.99217e-05
3.89024e-05
4.08121e-05
4.16266e-05
4.21614e-05
4.69132e-05
4.00681e-05
4.32904e-05
4.1565e-05
4.48475e-05
4.16673e-05
4.21744e-05
4.3117e-05
4.84862e-05
5.04355e-05
4.21534e-05
4.52496e-05
4.34675e-05
4.74632e-05
4.66438e-05
4.77338e-05
4.22482e-05
4.33056e-05
4.4294e-05
4.49509e-05
4.77441e-05
4.86512e-05
4.27298e-05
4.46734e-05
4.38887e-05
4.08286e-05
4.30979e-05
4.46994e-05
4.25721e-05
4.98635e-05
4.26848e-05
4.338e-05
4.06413e-05
4.22704e-05
4.51214e-05
4.77187e-05
4.81488e-05
4.43277e-05
4.4931e-05
4.4501e-05
4.48575e-05
4.85688e-05
4.85744e-05
4.38576e-05
3.97028e-05
4.39217e-05
3.89575e-05
4.25874e-05
4.47067e-05
4.50771e-05
4.21039e-05
4.22413e-05
4.22569e-05
3.89383e-05
4.44501e-05
4.97264e-05
4.86648e-05
5.1555e-05
4.49773e-05
4.50035e-05
4.70753e-05
4.63305e-05
4.89423e-05
5.05519e-05
4.43431e-05
3.94541e-05
4.69697e-05
4.63234e-05
4.64369e-05
4.65274e-05
4.79508e-05
4.3375e-05
5.07821e-05
4.59319e-05
4.66077e-05
4.77997e-05
5.26701e-05
5.17322e-05
4.8991e-05
4.73023e-05
4.64331e-05
4.64444e-05
4.56441e-05
5.05737e-05
4.78904e-05
4.73423e-05
4.80682e-05
4.68694e-05
5.04336e-05
4.78505e-05
4.54299e-05
4.46176e-05
5.16545e-05
5.42211e-05
4.77429e-05
5.02246e-05
4.49711e-05
4.66156e-05
4.82976e-05
4.48265e-05
4.51982e-05
4.4851e-05
4.25467e-05
4.30817e-05
4.75066e-05
4.56174e-05
4.57459e-05
5.04526e-05
4.29879e-05
4.79279e-05
4.35548e-05
4.30425e-05
4.254e-05
5.42662e-05
5.03466e-05
4.39611e-05
4.77775e-05
4.29944e-05
4.52291e-05
4.4802e-05
4.78824e-05
4.23465e-05
4.30034e-05
4.36077e-05
4.50609e-05
4.5648e-05
4.96988e-05
4.27316e-05
4.63625e-05
4.35227e-05
4.38486e-05
4.26545e-05
4.53812e-05
4.61988e-05
4.97152e-05
4.69065e-05
4.31025e-05
4.39944e-05
4.60397e-05
5.02213e-05
4.88394e-05
5.17935e-05
4.53273e-05
4.68058e-05
4.85932e-05
4.99753e-05
5.06655e-05
5.3773e-05
4.48767e-05
4.36682e-05
4.7988e-05
4.41619e-05
4.7352e-05
5.00474e-05
4.9095e-05
4.68434e-05
4.78455e-05
4.69611e-05
4.42808e-05
4.85157e-05
5.23137e-05
5.21001e-05
5.28576e-05
4.91267e-05
5.02563e-05
4.99499e-05
4.98292e-05
5.39071e-05
5.19595e-05
4.86099e-05
4.5352e-05
4.97662e-05
4.82157e-05
4.91993e-05
4.971e-05
4.88031e-05
4.85414e-05
5.11182e-05
4.86704e-05
4.80683e-05
4.85853e-05
5.11936e-05
5.29517e-05
5.20168e-05
4.99953e-05
4.89191e-05
4.92836e-05
4.68737e-05
5.15016e-05
4.90321e-05
4.99127e-05
4.87105e-05
4.97123e-05
4.91501e-05
4.83892e-05
4.67346e-05
4.76239e-05
5.14234e-05
5.18438e-05
4.83526e-05
4.89424e-05
4.78895e-05
5.03612e-05
5.17869e-05
5.01113e-05
4.86828e-05
4.65388e-05
4.74819e-05
4.63257e-05
4.89354e-05
4.90276e-05
4.91463e-05
4.91311e-05
4.773e-05
4.85359e-05
4.75083e-05
4.62891e-05
4.74277e-05
5.18445e-05
5.11035e-05
4.78156e-05
4.8528e-05
4.77444e-05
5.03931e-05
5.00509e-05
4.98016e-05
4.72623e-05
4.64675e-05
4.71102e-05
4.82066e-05
4.93476e-05
5.12525e-05
4.74575e-05
4.83418e-05
4.71924e-05
4.81245e-05
4.7483e-05
4.83682e-05
4.8156e-05
5.10766e-05
5.08715e-05
4.77522e-05
4.82093e-05
4.8069e-05
5.08966e-05
4.99508e-05
5.12209e-05
4.72151e-05
4.8697e-05
4.85928e-05
4.96324e-05
5.15706e-05
5.23455e-05
4.72242e-05
4.81314e-05
4.83905e-05
4.86797e-05
4.8443e-05
4.96876e-05
4.92833e-05
5.09311e-05
5.14851e-05
4.83122e-05
4.87887e-05
4.91536e-05
5.18803e-05
5.14744e-05
5.23483e-05
4.89801e-05
4.97989e-05
4.98387e-05
4.99981e-05
5.24283e-05
5.24797e-05
4.88185e-05
4.89051e-05
4.97742e-05
4.93596e-05
4.94888e-05
5.00058e-05
4.97605e-05
5.16055e-05
5.1861e-05
4.93749e-05
4.93859e-05
4.97058e-05
5.22088e-05
5.25214e-05
5.29882e-05
5.00575e-05
5.00087e-05
5.05089e-05
5.00763e-05
5.24902e-05
5.24711e-05
5.00193e-05
4.95233e-05
5.05195e-05
5.01238e-05
4.97755e-05
5.00162e-05
4.98861e-05
5.19624e-05
5.25214e-05
4.97423e-05
5.00359e-05
4.98977e-05
5.23121e-05
5.3043e-05
5.29503e-05
5.05857e-05
5.01835e-05
5.0636e-05
5.04685e-05
5.25347e-05
5.27846e-05
5.06031e-05
5.03152e-05
5.06624e-05
5.07071e-05
4.99826e-05
5.04139e-05
5.03796e-05
5.26615e-05
5.30217e-05
4.99987e-05
5.06605e-05
5.04089e-05
5.27557e-05
5.29501e-05
5.27252e-05
5.0623e-05
5.05109e-05
5.05125e-05
5.0654e-05
5.28351e-05
5.29752e-05
5.06521e-05
5.07714e-05
5.05393e-05
5.08269e-05
5.05205e-05
5.0722e-05
5.08782e-05
5.30801e-05
5.31304e-05
5.05543e-05
5.08927e-05
5.09076e-05
5.31726e-05
5.2736e-05
5.29684e-05
5.05068e-05
5.07324e-05
5.07176e-05
5.09392e-05
5.30388e-05
5.31773e-05
5.05291e-05
5.08248e-05
5.06912e-05
5.08314e-05
5.0966e-05
5.09946e-05
5.11218e-05
5.31421e-05
5.30697e-05
5.09861e-05
5.08984e-05
5.11037e-05
5.33156e-05
5.30869e-05
5.35092e-05
5.08762e-05
5.09764e-05
5.12988e-05
5.10964e-05
5.32067e-05
5.32465e-05
5.08521e-05
5.08671e-05
5.12966e-05
5.11675e-05
5.1134e-05
5.10739e-05
5.11335e-05
5.31039e-05
5.33497e-05
5.11102e-05
5.11429e-05
5.11239e-05
5.32927e-05
5.35994e-05
5.37568e-05
5.14166e-05
5.11783e-05
5.16327e-05
5.15058e-05
5.32981e-05
5.36179e-05
5.14215e-05
5.12956e-05
5.16576e-05
5.15923e-05
5.11432e-05
5.14554e-05
5.13632e-05
5.34433e-05
5.36805e-05
5.11527e-05
5.15469e-05
5.13893e-05
5.35015e-05
5.37799e-05
5.37212e-05
5.16571e-05
5.1606e-05
5.16844e-05
5.18303e-05
5.37063e-05
5.3902e-05
5.16786e-05
5.16352e-05
5.16768e-05
5.16938e-05
5.14737e-05
5.18337e-05
5.1788e-05
5.37203e-05
5.37635e-05
5.14889e-05
5.17007e-05
5.17673e-05
5.38641e-05
5.37368e-05
5.38895e-05
5.1708e-05
5.18806e-05
5.18674e-05
5.19274e-05
5.39437e-05
5.3962e-05
5.16804e-05
5.17323e-05
5.18533e-05
5.18904e-05
5.18733e-05
5.19699e-05
5.20338e-05
5.37996e-05
5.3937e-05
5.18493e-05
5.19367e-05
5.20235e-05
5.40334e-05
5.39647e-05
5.42125e-05
5.19463e-05
5.19289e-05
5.21888e-05
5.20104e-05
5.39721e-05
5.39877e-05
5.19449e-05
5.19403e-05
5.22047e-05
5.21217e-05
5.20414e-05
5.19827e-05
5.20216e-05
5.3982e-05
5.41049e-05
5.20384e-05
5.20963e-05
5.20313e-05
5.3993e-05
5.42644e-05
5.42904e-05
5.22552e-05
5.20969e-05
5.23375e-05
5.23351e-05
5.40487e-05
5.42883e-05
5.22719e-05
5.21928e-05
5.23447e-05
5.23569e-05
5.20237e-05
5.23091e-05
5.22329e-05
5.416e-05
5.42953e-05
5.2036e-05
5.23339e-05
5.22452e-05
5.42117e-05
5.42954e-05
5.41901e-05
5.23355e-05
5.23832e-05
5.23096e-05
5.2438e-05
5.43352e-05
5.4377e-05
5.23415e-05
5.23766e-05
5.23038e-05
5.23719e-05
5.23326e-05
5.24778e-05
5.25395e-05
5.43245e-05
5.42962e-05
5.23348e-05
5.24017e-05
5.25281e-05
5.44555e-05
5.42122e-05
5.43934e-05
5.23148e-05
5.24373e-05
5.24792e-05
5.24341e-05
5.43889e-05
5.43213e-05
5.23068e-05
5.23633e-05
5.24722e-05
5.23646e-05
5.25609e-05
5.24644e-05
5.25436e-05
5.43051e-05
5.42558e-05
5.25504e-05
5.24041e-05
5.25358e-05
5.43944e-05
5.44439e-05
5.45359e-05
5.25335e-05
5.24478e-05
5.2648e-05
5.26142e-05
5.43401e-05
5.44952e-05
5.25303e-05
5.23783e-05
5.26347e-05
5.25854e-05
5.2503e-05
5.25665e-05
5.24654e-05
5.4273e-05
5.44477e-05
5.24958e-05
5.25274e-05
5.24564e-05
5.43248e-05
5.45683e-05
5.464e-05
5.26776e-05
5.26814e-05
5.27766e-05
5.28302e-05
5.45626e-05
5.47046e-05
5.26672e-05
5.26939e-05
5.27983e-05
5.29958e-05
5.24934e-05
5.28366e-05
5.28393e-05
5.45535e-05
5.49184e-05
5.24869e-05
5.30037e-05
5.2863e-05
5.4748e-05
5.46678e-05
5.46288e-05
5.2807e-05
5.28444e-05
5.28174e-05
5.28203e-05
5.47275e-05
5.46099e-05
5.28359e-05
5.30358e-05
5.28495e-05
5.29893e-05
5.29074e-05
5.28475e-05
5.29273e-05
5.49675e-05
5.47613e-05
5.29366e-05
5.30159e-05
5.29557e-05
5.47319e-05
5.4632e-05
5.4523e-05
5.28013e-05
5.27759e-05
5.27337e-05
5.26999e-05
5.46078e-05
5.44841e-05
5.28324e-05
5.28707e-05
5.27174e-05
5.25449e-05
5.28917e-05
5.2697e-05
5.2666e-05
5.47204e-05
5.42651e-05
5.29124e-05
5.25383e-05
5.26446e-05
5.44093e-05
5.45467e-05
5.47421e-05
5.27355e-05
5.27039e-05
5.28907e-05
5.28969e-05
5.45141e-05
5.47583e-05
5.27105e-05
5.25047e-05
5.28171e-05
5.25725e-05
5.26407e-05
5.28633e-05
5.27319e-05
5.4267e-05
5.447e-05
5.26102e-05
5.25501e-05
5.26779e-05
5.46235e-05
5.48046e-05
5.48898e-05
5.29545e-05
5.29666e-05
5.30533e-05
5.30744e-05
5.48235e-05
5.49247e-05
5.29082e-05
5.27415e-05
5.30684e-05
5.31523e-05
5.28761e-05
5.30992e-05
5.32009e-05
5.46017e-05
5.50201e-05
5.28309e-05
5.31784e-05
5.32162e-05
5.5085e-05
5.49019e-05
5.47368e-05
5.30583e-05
5.30781e-05
5.29989e-05
5.29801e-05
5.49392e-05
5.46992e-05
5.30809e-05
5.3217e-05
5.30384e-05
5.32232e-05
5.32326e-05
5.30177e-05
5.31148e-05
5.50786e-05
5.49815e-05
5.32564e-05
5.32551e-05
5.31485e-05
5.48004e-05
5.47301e-05
5.45347e-05
5.29293e-05
5.28912e-05
5.27447e-05
5.27124e-05
5.46742e-05
5.44373e-05
5.2969e-05
5.31584e-05
5.27709e-05
5.27934e-05
5.28948e-05
5.26689e-05
5.24829e-05
5.49471e-05
5.45106e-05
5.29279e-05
5.27449e-05
5.25038e-05
5.41056e-05
5.45411e-05
5.46088e-05
5.27257e-05
5.27065e-05
5.27819e-05
5.28147e-05
5.44637e-05
5.47295e-05
5.27428e-05
5.27267e-05
5.27571e-05
5.26308e-05
5.24808e-05
5.28318e-05
5.29099e-05
5.45145e-05
5.44765e-05
5.25005e-05
5.26323e-05
5.28919e-05
5.48703e-05
5.46794e-05
5.48586e-05
5.28919e-05
5.28978e-05
5.30156e-05
5.30166e-05
5.47853e-05
5.48261e-05
5.2834e-05
5.26291e-05
5.29542e-05
5.27359e-05
5.31259e-05
5.30587e-05
5.33225e-05
5.44914e-05
5.45233e-05
5.30875e-05
5.27872e-05
5.32556e-05
5.52277e-05
5.48686e-05
5.43918e-05
5.30059e-05
5.30141e-05
5.27062e-05
5.27516e-05
5.48313e-05
5.4472e-05
5.29477e-05
5.28413e-05
5.27696e-05
5.29887e-05
5.33017e-05
5.28264e-05
5.26234e-05
5.45769e-05
5.47582e-05
5.32337e-05
5.30198e-05
5.26749e-05
5.43091e-05
5.43928e-05
5.48922e-05
5.26763e-05
5.26599e-05
5.28912e-05
5.26651e-05
5.44308e-05
5.4367e-05
5.27668e-05
5.30614e-05
5.29683e-05
5.31073e-05
5.23061e-05
5.24933e-05
5.18655e-05
5.4834e-05
5.49785e-05
5.24237e-05
5.29222e-05
5.19526e-05
5.33273e-05
5.50242e-05
5.45347e-05
5.30273e-05
5.28207e-05
5.29307e-05
5.30689e-05
5.45153e-05
5.51809e-05
5.30087e-05
5.30666e-05
5.26978e-05
5.26072e-05
5.1912e-05
5.31303e-05
5.34669e-05
5.49495e-05
5.43033e-05
5.19705e-05
5.26424e-05
5.31908e-05
5.54514e-05
5.43328e-05
5.37744e-05
5.26035e-05
5.30209e-05
5.2112e-05
5.22664e-05
5.51804e-05
5.39045e-05
5.24283e-05
5.26079e-05
5.22952e-05
5.3035e-05
5.40748e-05
5.27497e-05
5.45143e-05
5.43234e-05
5.54142e-05
5.38803e-05
5.3501e-05
5.4647e-05
5.71363e-05
5.3892e-05
5.44122e-05
5.21548e-05
5.2221e-05
5.25536e-05
5.23319e-05
5.38267e-05
5.39214e-05
5.24345e-05
5.30919e-05
5.24955e-05
5.19452e-05
5.42787e-05
5.19903e-05
5.0779e-05
5.54991e-05
5.31389e-05
5.45154e-05
5.162e-05
5.07892e-05
5.17337e-05
5.4201e-05
5.15807e-05
5.14225e-05
5.38524e-05
5.13918e-05
5.04072e-05
4.18484e-05
4.10777e-05
4.0395e-05
4.93493e-05
5.23473e-05
4.92041e-05
6.78931e-05
7.2055e-05
6.77057e-05
7.15842e-05
7.04164e-05
6.9967e-05
6.72812e-05
7.19704e-05
6.74068e-05
7.15537e-05
2.50861e-05
2.46569e-05
2.39e-05
2.53973e-05
2.68723e-05
2.47664e-05
2.42053e-05
5.69461e-05
6.47176e-05
3.2711e-05
4.30868e-05
5.63261e-05
6.52592e-05
3.36729e-05
6.96408e-05
6.92123e-05
5.61289e-05
3.26015e-05
6.38922e-05
4.11665e-05
5.62111e-05
3.28863e-05
6.24014e-05
6.98397e-05
6.91945e-05
4.56597e-05
6.83554e-05
6.77577e-05
6.39889e-05
7.08255e-05
6.55748e-05
7.06656e-05
6.90547e-05
6.88846e-05
6.40592e-05
7.09353e-05
6.52643e-05
7.07967e-05
2.68383e-05
2.43351e-05
2.40698e-05
2.20714e-05
2.36823e-05
2.14868e-05
2.21232e-05
5.3846e-05
6.21185e-05
3.4269e-05
4.15107e-05
5.56084e-05
5.96544e-05
3.39284e-05
6.89491e-05
6.90743e-05
5.30433e-05
3.24761e-05
5.96351e-05
3.76091e-05
5.41952e-05
3.15516e-05
5.85751e-05
6.58337e-05
6.57682e-05
4.2338e-05
6.49901e-05
6.50723e-05
6.33577e-05
7.09391e-05
6.28192e-05
7.13203e-05
6.91853e-05
6.95307e-05
6.35927e-05
7.09801e-05
6.31326e-05
7.12864e-05
2.2105e-05
2.09934e-05
2.16364e-05
1.97482e-05
1.98628e-05
2.0908e-05
2.13686e-05
5.18174e-05
5.76646e-05
2.99133e-05
3.52518e-05
5.18173e-05
5.83095e-05
2.90851e-05
6.9488e-05
6.97867e-05
5.26849e-05
2.93718e-05
5.86335e-05
3.6194e-05
5.21153e-05
2.92294e-05
6.00779e-05
6.5543e-05
6.58017e-05
4.15181e-05
6.71566e-05
6.7489e-05
6.59178e-05
7.17806e-05
6.5028e-05
7.19092e-05
6.98223e-05
6.98662e-05
6.63126e-05
7.17264e-05
6.53654e-05
7.18569e-05
1.98432e-05
2.14277e-05
2.15828e-05
2.2721e-05
2.19889e-05
2.40317e-05
2.33356e-05
5.56474e-05
6.11542e-05
2.88254e-05
3.76711e-05
5.43478e-05
6.23029e-05
2.93441e-05
6.99825e-05
6.98115e-05
5.62716e-05
3.03148e-05
6.27048e-05
4.03337e-05
5.52525e-05
3.17774e-05
6.30792e-05
6.97595e-05
6.9877e-05
4.53095e-05
6.9565e-05
6.9521e-05
6.64367e-05
7.18307e-05
6.66479e-05
7.16516e-05
6.97059e-05
6.955e-05
6.57379e-05
7.17514e-05
6.65304e-05
7.15948e-05
2.33541e-05
2.43719e-05
2.36244e-05
2.60328e-05
2.4809e-05
2.43687e-05
2.36894e-05
5.52189e-05
6.2424e-05
3.31696e-05
4.11246e-05
5.59993e-05
6.166e-05
3.35871e-05
6.93499e-05
6.93034e-05
5.42696e-05
3.35201e-05
6.10216e-05
4.03865e-05
5.57108e-05
3.34975e-05
5.91872e-05
6.59831e-05
6.58417e-05
4.33781e-05
6.46339e-05
6.42934e-05
6.43986e-05
7.14213e-05
6.5054e-05
7.14523e-05
6.93059e-05
6.93862e-05
6.46608e-05
7.14873e-05
6.45966e-05
7.16062e-05
2.47866e-05
2.43592e-05
2.36775e-05
2.52334e-05
2.40162e-05
2.51005e-05
2.40764e-05
5.3956e-05
6.00545e-05
3.35337e-05
3.94571e-05
5.40673e-05
5.93503e-05
3.31947e-05
6.97603e-05
7.0173e-05
5.40554e-05
3.27376e-05
5.86192e-05
3.93592e-05
5.31202e-05
3.27249e-05
6.08921e-05
6.57346e-05
6.5679e-05
4.28859e-05
6.76839e-05
6.83364e-05
6.62461e-05
7.18978e-05
6.49779e-05
7.21614e-05
6.99457e-05
7.02536e-05
6.71515e-05
7.19129e-05
6.6359e-05
7.20183e-05
2.39215e-05
2.63703e-05
2.49289e-05
2.50045e-05
2.45774e-05
2.83392e-05
2.71123e-05
5.64331e-05
6.01534e-05
3.29329e-05
3.91676e-05
5.52591e-05
6.15816e-05
3.31266e-05
7.05396e-05
7.02836e-05
5.86176e-05
3.48045e-05
6.52081e-05
4.48001e-05
5.75761e-05
3.63603e-05
6.60481e-05
6.99023e-05
7.08286e-05
4.77725e-05
6.97207e-05
6.96377e-05
6.71711e-05
7.22385e-05
6.73497e-05
7.21287e-05
7.03246e-05
7.02107e-05
6.60054e-05
7.19901e-05
6.69068e-05
7.19474e-05
2.60314e-05
2.83436e-05
2.74412e-05
2.82098e-05
2.93534e-05
2.67226e-05
2.76082e-05
5.70719e-05
6.29451e-05
3.65383e-05
4.438e-05
5.73024e-05
6.29026e-05
3.73366e-05
6.94432e-05
6.92423e-05
5.56024e-05
3.76156e-05
6.29338e-05
4.40527e-05
5.73757e-05
3.74665e-05
6.04515e-05
6.67375e-05
6.5458e-05
4.58551e-05
6.54411e-05
6.43993e-05
6.5656e-05
7.20636e-05
6.58023e-05
7.22746e-05
7.01416e-05
7.02754e-05
6.5104e-05
7.20153e-05
6.50031e-05
7.22475e-05
2.97319e-05
2.5745e-05
2.76435e-05
2.93131e-05
3.00008e-05
2.42574e-05
2.89596e-05
5.59704e-05
6.20164e-05
3.77584e-05
4.46005e-05
5.59563e-05
6.21732e-05
3.77262e-05
6.94328e-05
6.9793e-05
5.42851e-05
3.48973e-05
5.83867e-05
3.89533e-05
5.40311e-05
3.4395e-05
5.86122e-05
6.64452e-05
6.63569e-05
4.63409e-05
6.86296e-05
6.87527e-05
6.81186e-05
7.27345e-05
6.70126e-05
7.28597e-05
7.04966e-05
7.04572e-05
6.7741e-05
7.26735e-05
6.66146e-05
7.28407e-05
3.00792e-05
2.42802e-05
3.00139e-05
3.0983e-05
3.06765e-05
2.84923e-05
3.18025e-05
5.93607e-05
6.43076e-05
3.81846e-05
4.5729e-05
5.81101e-05
6.50924e-05
3.89598e-05
7.03871e-05
7.06754e-05
5.85281e-05
3.45677e-05
6.10433e-05
4.18585e-05
5.69859e-05
3.56818e-05
6.27166e-05
7.2886e-05
7.28248e-05
5.23503e-05
7.35569e-05
7.3501e-05
6.80137e-05
7.24525e-05
6.87584e-05
7.20196e-05
7.00402e-05
6.98621e-05
6.88656e-05
7.2518e-05
6.89329e-05
7.20536e-05
3.07922e-05
3.10533e-05
3.18561e-05
3.13806e-05
3.06365e-05
3.53898e-05
3.07793e-05
5.83588e-05
6.42063e-05
4.02927e-05
4.64999e-05
5.95923e-05
6.29545e-05
4.03014e-05
7.09119e-05
7.08846e-05
5.95871e-05
4.12762e-05
6.48644e-05
4.93162e-05
5.96631e-05
4.21585e-05
6.5758e-05
6.98157e-05
7.03125e-05
4.98998e-05
6.71183e-05
6.75553e-05
6.51465e-05
7.15492e-05
6.61048e-05
7.15444e-05
6.97446e-05
6.98827e-05
6.60886e-05
7.15117e-05
6.71063e-05
7.14897e-05
3.02033e-05
3.57383e-05
2.98628e-05
2.86578e-05
2.86989e-05
3.51724e-05
2.82818e-05
5.58404e-05
6.11637e-05
3.91639e-05
4.38875e-05
5.65051e-05
6.04967e-05
3.84793e-05
7.04458e-05
7.02241e-05
5.78812e-05
4.26543e-05
6.58383e-05
5.00769e-05
5.85909e-05
4.2483e-05
6.47688e-05
6.49747e-05
6.4615e-05
4.50069e-05
6.51364e-05
6.45321e-05
6.59047e-05
7.20782e-05
6.49241e-05
7.25e-05
7.03405e-05
7.06364e-05
6.57208e-05
7.19985e-05
6.54047e-05
7.24173e-05
2.84627e-05
3.37813e-05
2.82205e-05
2.79873e-05
2.88366e-05
2.98161e-05
2.9592e-05
5.67382e-05
6.07979e-05
3.73951e-05
4.3111e-05
5.57658e-05
6.21023e-05
3.74065e-05
7.00203e-05
7.00147e-05
5.69403e-05
3.98591e-05
6.31004e-05
4.5229e-05
5.70172e-05
3.91466e-05
6.23631e-05
6.71056e-05
6.67773e-05
4.7573e-05
6.86846e-05
6.83966e-05
6.83986e-05
7.29397e-05
6.76212e-05
7.30351e-05
7.09208e-05
7.09471e-05
6.74099e-05
7.28711e-05
6.67562e-05
7.29938e-05
3.00767e-05
2.91295e-05
3.09618e-05
3.25025e-05
3.43632e-05
2.86838e-05
3.36319e-05
5.99506e-05
6.44899e-05
4.01426e-05
4.84316e-05
5.88728e-05
6.5672e-05
4.16019e-05
7.01334e-05
7.02807e-05
5.80342e-05
3.84993e-05
6.17249e-05
4.37942e-05
5.74574e-05
3.85329e-05
6.18876e-05
7.0872e-05
7.04546e-05
5.18196e-05
7.12304e-05
7.08791e-05
6.86881e-05
7.30237e-05
6.88043e-05
7.29897e-05
7.06627e-05
7.04583e-05
6.829e-05
7.30182e-05
6.80636e-05
7.29978e-05
3.50684e-05
2.88347e-05
3.40542e-05
3.53764e-05
3.5451e-05
3.20112e-05
3.43709e-05
6.03172e-05
6.62025e-05
4.3874e-05
5.03034e-05
6.06009e-05
6.54416e-05
4.39988e-05
7.04683e-05
7.05669e-05
5.92064e-05
4.03039e-05
6.29032e-05
4.65293e-05
5.88897e-05
4.1224e-05
6.34917e-05
7.01723e-05
7.03518e-05
5.19705e-05
6.93578e-05
6.97793e-05
6.79069e-05
7.28583e-05
6.81961e-05
7.2728e-05
7.01804e-05
7.01334e-05
6.84547e-05
7.29006e-05
6.8482e-05
7.27678e-05
3.52503e-05
3.30893e-05
3.4331e-05
3.56953e-05
3.32052e-05
3.47628e-05
3.37208e-05
5.86685e-05
6.3796e-05
4.34305e-05
4.78805e-05
5.91514e-05
6.30559e-05
4.27278e-05
7.06196e-05
7.06043e-05
5.93391e-05
4.28634e-05
6.41307e-05
4.87923e-05
5.93452e-05
4.30783e-05
6.43127e-05
6.86814e-05
6.90905e-05
5.06141e-05
6.8645e-05
6.89236e-05
6.71501e-05
7.25281e-05
6.73813e-05
7.24719e-05
7.02164e-05
7.0366e-05
6.75299e-05
7.25438e-05
6.78596e-05
7.24835e-05
3.26721e-05
3.48907e-05
3.35634e-05
3.38486e-05
3.2002e-05
3.48347e-05
3.33238e-05
5.81478e-05
6.23632e-05
4.14256e-05
4.62863e-05
5.82033e-05
6.23331e-05
4.12744e-05
7.05224e-05
7.05113e-05
5.90643e-05
4.31927e-05
6.41556e-05
4.88726e-05
5.91863e-05
4.31648e-05
6.39125e-05
6.88057e-05
6.88517e-05
5.0306e-05
6.88703e-05
6.87994e-05
6.71597e-05
7.24924e-05
6.70043e-05
7.25888e-05
7.05818e-05
7.07037e-05
6.71254e-05
7.2499e-05
6.71469e-05
7.25903e-05
3.20061e-05
3.46715e-05
3.3313e-05
3.29428e-05
3.32241e-05
3.42939e-05
3.36362e-05
5.8748e-05
6.29196e-05
4.13068e-05
4.7132e-05
5.83908e-05
6.34299e-05
4.16331e-05
7.05435e-05
7.06058e-05
5.87684e-05
4.28615e-05
6.35785e-05
4.8273e-05
5.88154e-05
4.27852e-05
6.35441e-05
6.8871e-05
6.86886e-05
5.05699e-05
6.89456e-05
6.88006e-05
6.7869e-05
7.27724e-05
6.76032e-05
7.28831e-05
7.07999e-05
7.08291e-05
6.77083e-05
7.27747e-05
6.74264e-05
7.28867e-05
3.39617e-05
3.42598e-05
3.39553e-05
3.36195e-05
3.55719e-05
3.43828e-05
3.50261e-05
5.96257e-05
6.4128e-05
4.3301e-05
4.91996e-05
5.93066e-05
6.43919e-05
4.3701e-05
7.06827e-05
7.07182e-05
5.93379e-05
4.27701e-05
6.37904e-05
4.82966e-05
5.90125e-05
4.28806e-05
6.39767e-05
6.92601e-05
6.92284e-05
5.14155e-05
6.94316e-05
6.94413e-05
6.81013e-05
7.29972e-05
6.80626e-05
7.30697e-05
7.08367e-05
7.0844e-05
6.79946e-05
7.29969e-05
6.79368e-05
7.30655e-05
3.59166e-05
3.46561e-05
3.53648e-05
3.58845e-05
3.65194e-05
3.54872e-05
3.60701e-05
5.99383e-05
6.45166e-05
4.44942e-05
4.99344e-05
5.98898e-05
6.44931e-05
4.46431e-05
7.07457e-05
7.07829e-05
5.97284e-05
4.37847e-05
6.40601e-05
4.91442e-05
5.9653e-05
4.40089e-05
6.40475e-05
6.95507e-05
6.95839e-05
5.21298e-05
6.95559e-05
6.95899e-05
6.83099e-05
7.31582e-05
6.81839e-05
7.31926e-05
7.08615e-05
7.08873e-05
6.83129e-05
7.31552e-05
6.81476e-05
7.3193e-05
3.65996e-05
3.57276e-05
3.61935e-05
3.7068e-05
3.66858e-05
3.64692e-05
3.64572e-05
5.99063e-05
6.43688e-05
4.47976e-05
5.00066e-05
5.9915e-05
6.43485e-05
4.48038e-05
7.08523e-05
7.09012e-05
5.98355e-05
4.44496e-05
6.41032e-05
4.96725e-05
5.97571e-05
4.45788e-05
6.42526e-05
6.95147e-05
6.95483e-05
5.22341e-05
6.95136e-05
6.95463e-05
6.84292e-05
7.31958e-05
6.84211e-05
7.31815e-05
7.09146e-05
7.09326e-05
6.84513e-05
7.32007e-05
6.84368e-05
7.31888e-05
3.67447e-05
3.67244e-05
3.65678e-05
3.75093e-05
3.71271e-05
3.73995e-05
3.70392e-05
6.01516e-05
6.44508e-05
4.49263e-05
5.01835e-05
6.00135e-05
6.45232e-05
4.50787e-05
7.09445e-05
7.09692e-05
6.02063e-05
4.50606e-05
6.45039e-05
5.03905e-05
6.00534e-05
4.52377e-05
6.46227e-05
6.95769e-05
6.95987e-05
5.25059e-05
6.96388e-05
6.96619e-05
6.82961e-05
7.31594e-05
6.83484e-05
7.31665e-05
7.0959e-05
7.09917e-05
6.83585e-05
7.31692e-05
6.84023e-05
7.31753e-05
3.72474e-05
3.75658e-05
3.72255e-05
3.75351e-05
3.75707e-05
3.78578e-05
3.77673e-05
6.03148e-05
6.45517e-05
4.55007e-05
5.05679e-05
6.02613e-05
6.4581e-05
4.56152e-05
7.09896e-05
7.1003e-05
6.04017e-05
4.57016e-05
6.47044e-05
5.08257e-05
6.03449e-05
4.58172e-05
6.47149e-05
6.9766e-05
6.97886e-05
5.29964e-05
6.9846e-05
6.98573e-05
6.83717e-05
7.32144e-05
6.83054e-05
7.32601e-05
7.10265e-05
7.10454e-05
6.83369e-05
7.32192e-05
6.83246e-05
7.32631e-05
3.76854e-05
3.79038e-05
3.79192e-05
3.7697e-05
3.80191e-05
3.80099e-05
3.82458e-05
6.0454e-05
6.46582e-05
4.59339e-05
5.08845e-05
6.0403e-05
6.46748e-05
4.60324e-05
7.10122e-05
7.10297e-05
6.04291e-05
4.60357e-05
6.46653e-05
5.08969e-05
6.04286e-05
4.60748e-05
6.46165e-05
6.99144e-05
6.99083e-05
5.32737e-05
6.99213e-05
6.99127e-05
6.84514e-05
7.33239e-05
6.84127e-05
7.33717e-05
7.10625e-05
7.1087e-05
6.84607e-05
7.3331e-05
6.83765e-05
7.33808e-05
3.8106e-05
3.80627e-05
3.83106e-05
3.84628e-05
3.83302e-05
3.83508e-05
3.84248e-05
6.04548e-05
6.4637e-05
4.62383e-05
5.10307e-05
6.04607e-05
6.46071e-05
4.62703e-05
7.10705e-05
7.11106e-05
6.04249e-05
4.61609e-05
6.45722e-05
5.09628e-05
6.04138e-05
4.61998e-05
6.46233e-05
6.98778e-05
6.98799e-05
5.33095e-05
6.98334e-05
6.98515e-05
6.86101e-05
7.34154e-05
6.85456e-05
7.34322e-05
7.11342e-05
7.11733e-05
6.86461e-05
7.34224e-05
6.8596e-05
7.34377e-05
3.84293e-05
3.84929e-05
3.84673e-05
3.90675e-05
3.88386e-05
3.8944e-05
3.87446e-05
6.05242e-05
6.46272e-05
4.63755e-05
5.12261e-05
6.04565e-05
6.47328e-05
4.64521e-05
7.11479e-05
7.11689e-05
6.06136e-05
4.64289e-05
6.47719e-05
5.13691e-05
6.0519e-05
4.65408e-05
6.48507e-05
6.97974e-05
6.98331e-05
5.3352e-05
6.98306e-05
6.98564e-05
6.86569e-05
7.34467e-05
6.86499e-05
7.34582e-05
7.12106e-05
7.12333e-05
6.86432e-05
7.34512e-05
6.86514e-05
7.34606e-05
3.89887e-05
3.90591e-05
3.88788e-05
3.93038e-05
3.93927e-05
3.92981e-05
3.92998e-05
6.07956e-05
6.48963e-05
4.67999e-05
5.16699e-05
6.06929e-05
6.49621e-05
4.69213e-05
7.11889e-05
7.12106e-05
6.07488e-05
4.68522e-05
6.48729e-05
5.1631e-05
6.071e-05
4.69252e-05
6.487e-05
6.99545e-05
6.99473e-05
5.36969e-05
7.00305e-05
7.00223e-05
6.86604e-05
7.3486e-05
6.86566e-05
7.35161e-05
7.12531e-05
7.12666e-05
6.86329e-05
7.34891e-05
6.86179e-05
7.35235e-05
3.9505e-05
3.93786e-05
3.94354e-05
3.96001e-05
3.97287e-05
3.96566e-05
3.9784e-05
6.08933e-05
6.49879e-05
4.72328e-05
5.19429e-05
6.08727e-05
6.49828e-05
4.73116e-05
7.12452e-05
7.12714e-05
6.08519e-05
4.71317e-05
6.4889e-05
5.18205e-05
6.08023e-05
4.72131e-05
6.4935e-05
7.0095e-05
7.01018e-05
5.39761e-05
7.01034e-05
7.01166e-05
6.87125e-05
7.3568e-05
6.86736e-05
7.36007e-05
7.12846e-05
7.13133e-05
6.87511e-05
7.35769e-05
6.86977e-05
7.36072e-05
3.97691e-05
3.97432e-05
3.98578e-05
4.00552e-05
3.99082e-05
3.99926e-05
3.99557e-05
6.0864e-05
6.49133e-05
4.7426e-05
5.19648e-05
6.0882e-05
6.4885e-05
4.74314e-05
7.12994e-05
7.13267e-05
6.08907e-05
4.74159e-05
6.49461e-05
5.20089e-05
6.08855e-05
4.74536e-05
6.49511e-05
7.00589e-05
7.00829e-05
5.40284e-05
7.00024e-05
7.00294e-05
6.88002e-05
7.36219e-05
6.87781e-05
7.36276e-05
7.13557e-05
7.13808e-05
6.88084e-05
7.36279e-05
6.87978e-05
7.36335e-05
3.99937e-05
4.00886e-05
3.99875e-05
4.04029e-05
4.03273e-05
4.03847e-05
4.02479e-05
6.09316e-05
6.49529e-05
4.74943e-05
5.21368e-05
6.08603e-05
6.50538e-05
4.75673e-05
7.13549e-05
7.13729e-05
6.09611e-05
4.75755e-05
6.50272e-05
5.22234e-05
6.09073e-05
4.76407e-05
6.50867e-05
6.99845e-05
7.00014e-05
5.40359e-05
7.00769e-05
7.00809e-05
6.87878e-05
7.36315e-05
6.8798e-05
7.36444e-05
7.14018e-05
7.14167e-05
6.87775e-05
7.36358e-05
6.88002e-05
7.36468e-05
4.04328e-05
4.04599e-05
4.03694e-05
4.0503e-05
4.06532e-05
4.05888e-05
4.06966e-05
6.10898e-05
6.51244e-05
4.7841e-05
5.24236e-05
6.1054e-05
6.51288e-05
4.79182e-05
7.13882e-05
7.14034e-05
6.10658e-05
4.78491e-05
6.5105e-05
5.23811e-05
6.10424e-05
4.78987e-05
6.50983e-05
7.02003e-05
7.01979e-05
5.43726e-05
7.02451e-05
7.0246e-05
6.87623e-05
7.36823e-05
6.87618e-05
7.37139e-05
7.14298e-05
7.1448e-05
6.87624e-05
7.36857e-05
6.87464e-05
7.37185e-05
4.07007e-05
4.06248e-05
4.07784e-05
4.07828e-05
4.08031e-05
4.07331e-05
4.09123e-05
6.10824e-05
6.50846e-05
4.80712e-05
5.24807e-05
6.1093e-05
6.5041e-05
4.8093e-05
7.14246e-05
7.14434e-05
6.10528e-05
4.80129e-05
6.50486e-05
5.24141e-05
6.10652e-05
4.80421e-05
6.50105e-05
7.02493e-05
7.0263e-05
5.44692e-05
7.01835e-05
7.02036e-05
6.88071e-05
7.37488e-05
6.87771e-05
7.37704e-05
7.14837e-05
7.15177e-05
6.8783e-05
7.37523e-05
6.87761e-05
7.37765e-05
4.08398e-05
4.07676e-05
4.09141e-05
4.10843e-05
4.10205e-05
4.09934e-05
4.09183e-05
6.09893e-05
6.49898e-05
4.80885e-05
5.24683e-05
6.10068e-05
6.50343e-05
4.80863e-05
7.14716e-05
7.15115e-05
6.09447e-05
4.80491e-05
6.49166e-05
5.24043e-05
6.09745e-05
4.80476e-05
6.49217e-05
7.00424e-05
7.00494e-05
5.43163e-05
7.00307e-05
7.0033e-05
6.89018e-05
7.37966e-05
6.88616e-05