/*--------------------------------*- C++ -*----------------------------------*\
| =========                 |                                                 |
| \\      /  F ield         | OpenFOAM: The Open Source CFD Toolbox           |
|  \\    /   O peration     | Version:  v2012                                 |
|   \\  /    A nd           | Website:  www.openfoam.com                      |
|    \\/     M anipulation  |                                                 |
\*---------------------------------------------------------------------------*/
FoamFile
{
    version     2.0;
    format      ascii;
    class       volScalarField;
    location    "625";
    object      nut;
}
// * * * * * * * * * * * * * * * * * * * * * * * * * * * * * * * * * * * * * //

dimensions      [0 2 -1 0 0 0 0];


internalField   nonuniform List<scalar> 
85864
(
0.000164286
0.000178829
0.00017577
0.000161515
0.000184736
0.000196916
0.000157126
0.000150261
0.00012207
0.000129759
0.000128337
0.000130296
9.30184e-05
0.000123836
0.000149935
0.000148262
0.000134048
0.000163582
0.000158815
0.000152198
0.000156176
0.000153102
0.0001381
0.000129399
0.000131218
0.000133881
0.000174779
0.000157013
0.000125917
0.000165069
0.000192859
0.000156461
0.000154929
0.000170981
0.000136342
0.000137371
0.000161456
0.000172151
0.000126269
0.000174852
0.000185467
0.000187413
0.000188814
0.000194109
0.000184849
0.000170551
0.000217126
0.00014718
0.000139131
0.000148776
0.000185226
0.000139522
0.000129668
0.000174849
0.000156764
0.00016941
0.000175678
0.000206023
0.00016376
0.000180606
0.000202994
0.000195164
0.000187423
0.000173441
0.000204902
0.000173075
0.00019168
0.000168077
0.000179696
0.000170267
0.000186216
0.000167184
0.00016564
0.00018605
0.000182817
0.000169529
0.000172993
0.000193013
0.000186681
0.000174911
0.000190446
0.000193202
0.000188941
0.000175631
0.000199445
0.000192567
0.000193338
0.000175584
0.000201067
0.000195126
0.000197215
0.000178112
0.000197872
0.000197052
0.000197822
0.000180492
0.00019855
0.000198038
0.000197002
0.000180944
0.000204725
0.000197965
0.000199009
0.000180237
0.000208704
0.000200816
0.000201222
0.00018145
0.000208796
0.000203314
0.00020203
0.000183615
0.000210791
0.000203445
0.00020337
0.000184392
0.00021481
0.000203601
0.000204642
0.000183647
0.000216727
0.000206259
0.000206347
0.000185395
0.000216503
0.000207176
0.000206654
0.00018697
0.000219054
0.000206725
0.000205945
0.000186161
0.000221181
0.000208124
0.000207804
0.00018573
0.000223449
0.000210301
0.00021211
0.000189006
0.000225296
0.000210082
0.00021141
0.000188831
0.000224732
0.000209025
0.000207357
0.000186212
0.000226529
0.000211253
0.000208864
0.000188314
0.000229884
0.000213526
0.000214472
0.000192184
0.000231144
0.000212301
0.000214872
0.000189613
0.000229163
0.00021028
0.00021104
0.000184704
0.000230134
0.000212687
0.000210238
0.000191789
0.000233116
0.000215277
0.000212679
0.000194661
0.000232824
0.000211868
0.000215272
0.000186673
0.000237264
0.000210936
0.000212596
0.000178318
0.000233135
0.000218395
0.000213669
0.000199878
0.000230758
0.000214276
0.000227339
0.000214275
0.000239789
0.000212675
0.00020291
0.00017198
0.000173529
0.000168249
0.000177453
0.000179931
0.000185321
0.000202082
0.00017349
0.000193759
0.000178321
0.000177488
0.000183962
0.000172959
0.000164845
0.000199131
0.000167761
0.000174006
0.000151589
0.00016689
0.000169697
0.000166059
0.000152994
0.000162635
0.000124927
0.000178755
0.000199955
0.000136533
0.000143866
0.000186984
0.000126315
0.000175688
0.000159984
0.000135221
0.000130754
0.000163567
0.000142712
0.000140136
0.000145672
0.000122979
0.000159116
0.000130432
0.000136855
0.000131163
0.000122035
0.000122084
0.000127127
0.000130087
0.000117977
0.000119193
0.000121454
0.00012216
0.000126817
0.000128161
0.000119377
0.000135519
0.000136281
0.000120394
0.00013669
0.000122459
0.00014467
0.000134145
0.000138875
0.000138835
0.000143005
0.000126624
0.000157554
0.000120306
0.000121576
0.000156116
0.000156907
0.000128259
0.000160229
0.000122875
0.000146117
0.000158507
0.000159337
0.000144125
0.000158923
0.000155541
0.000150226
0.000157122
0.000148415
0.000161111
0.000158549
0.000154942
0.000160285
0.00015864
0.000164586
0.000163424
0.000169511
0.000164269
0.000161712
0.000151728
0.000165168
0.00015748
0.000167122
0.000142897
0.000153799
0.000161419
0.000141972
0.000154145
0.000129118
0.000156554
0.000139747
0.000139742
0.000130282
0.000156252
0.000137075
0.000167045
0.000158244
0.000145326
0.000135912
0.00014804
0.000126606
0.000162762
0.000141435
0.000145036
0.00015706
0.000140425
0.000135271
0.000148819
0.000128105
0.000161388
0.000137925
0.000156737
0.000149241
0.000151894
0.000135858
0.000147048
0.000142314
0.000133944
0.000144913
0.000150222
0.000125556
0.000152351
0.000143306
0.000172412
0.000151337
0.000190686
0.00015674
0.000154699
0.000165319
0.000169961
0.000192537
0.000160198
0.000194699
0.000169645
0.00015975
0.000151204
0.000156526
0.000154748
0.000162451
0.000168565
0.000174713
0.000157463
0.000162692
0.000159636
0.000189442
0.000166754
0.000150549
0.000162732
0.000172521
0.000153194
0.000188101
0.000131963
0.000166791
0.000148649
0.00015197
0.000138055
0.000155471
0.00015646
0.000167692
0.000173573
0.00016683
0.000170965
0.000161473
0.000160965
0.000165011
0.000138183
0.000162452
0.000124152
0.000152321
0.000169544
0.000170932
0.000126166
0.000118353
0.000150688
0.000123816
0.000166236
0.000167935
0.000159654
0.000185536
0.00017035
0.000171935
0.000190841
0.000184151
0.0001633
0.000178645
0.000165302
0.000125418
0.000188841
0.000171178
0.000183787
0.000186305
0.000201181
0.000123259
0.000167726
0.000179268
0.000173906
0.000198824
0.000196256
0.000187143
0.000171367
0.000194288
0.000185801
0.000189089
0.000180119
0.000178856
0.000161037
0.000193509
0.000186952
0.000191803
0.00021667
0.000200842
0.000178555
0.000171323
0.000173899
0.00020092
0.000198794
0.00021487
0.000173456
0.000152161
0.000165725
0.000137351
0.000178343
0.000172687
0.000150659
0.000151569
0.000157148
0.000138479
0.000182313
0.00021925
0.000154718
0.000199857
0.000160733
0.000150916
0.000147974
0.000201586
0.000177117
0.000163594
0.000198169
0.000151869
0.000137078
0.000135773
0.000149822
0.000147194
0.000149099
0.000151288
0.00016026
0.000137263
0.000159261
0.000150913
0.000185715
0.00015163
0.000158799
0.000147567
0.000162499
0.000170987
0.000172018
0.000149451
0.000151569
0.000159941
0.000170856
0.000165406
0.000154959
0.000173287
0.000162493
0.000172932
0.00018593
0.000201725
0.000165386
0.000191666
0.000160044
0.00015554
0.000181275
0.00015512
0.000179634
0.000202721
0.000194169
0.000147976
0.000151102
0.000177548
0.00015637
0.000189351
0.000180556
0.000175199
0.000183563
0.000190387
0.000205374
0.000199835
0.000203876
0.000192779
0.00018278
0.000185995
0.000162916
0.000197488
0.000184268
0.000195269
0.000203155
0.000192498
0.000154827
0.000171396
0.000190567
0.000183504
0.000189897
0.000174299
0.000184248
0.000180868
0.000201123
0.000196487
0.000197113
0.000177753
0.000179372
0.000161239
0.000199703
0.00018868
0.000200231
0.000193403
0.000189186
0.000176411
0.000182292
0.000173288
0.000177342
0.000188043
0.000191643
0.000184155
0.000168443
0.000179136
0.000167218
0.000192381
0.000174165
0.000181035
0.000169862
0.000159832
0.00015795
0.000195914
0.000193429
0.000183314
0.000188249
0.000180987
0.000169388
0.000178701
0.000177179
0.000172193
0.000183351
0.000187955
0.000181409
0.000167246
0.000166176
0.000162519
0.000178415
0.000170166
0.00017462
0.000181582
0.00015927
0.00017022
0.000180242
0.000186104
0.000175466
0.000182681
0.000178472
0.000182767
0.00018185
0.000171588
0.000169317
0.000180838
0.000183248
0.000181411
0.000168782
0.000162765
0.000169356
0.000174598
0.000185013
0.000183011
0.000191542
0.000171914
0.000176854
0.000174868
0.000182189
0.000181523
0.000184712
0.000183622
0.000192072
0.000189254
0.000169232
0.000171959
0.000182784
0.000185612
0.000188265
0.000174319
0.000170522
0.000175741
0.000185535
0.000192586
0.000191405
0.000193255
0.000177112
0.000177271
0.000184309
0.00018591
0.000190858
0.000187959
0.000190618
0.000193486
0.000191862
0.000172302
0.000173101
0.000189722
0.000188334
0.00019139
0.000175828
0.000176623
0.000180095
0.000192996
0.000193062
0.000196405
0.000192936
0.000177032
0.000176679
0.000192647
0.000188832
0.000196439
0.000192754
0.00019161
0.000192473
0.000191281
0.000173335
0.000176553
0.0001913
0.000192069
0.000191324
0.000175493
0.000180268
0.000179847
0.00019699
0.000193575
0.000197027
0.000195227
0.000176797
0.000178311
0.000197082
0.000194133
0.000197249
0.000197035
0.000191667
0.000194667
0.000193967
0.0001772
0.000179755
0.000191752
0.000196527
0.000194205
0.000177688
0.000179543
0.000177654
0.000196666
0.000195376
0.000194922
0.00019601
0.000178362
0.00017921
0.000196926
0.000197474
0.000195184
0.000197489
0.000194914
0.000196506
0.000197502
0.000179932
0.000180271
0.000195207
0.000197963
0.000197792
0.000180299
0.000177344
0.000178367
0.000194569
0.000196468
0.00019538
0.000197515
0.000179365
0.000180164
0.000194786
0.000197246
0.000195176
0.000196487
0.000198153
0.000198066
0.000199127
0.000180058
0.000179283
0.000198361
0.00019712
0.00019898
0.000181098
0.000178828
0.000181572
0.000196418
0.000197573
0.000199409
0.000197808
0.000180042
0.000179956
0.000196219
0.000196512
0.000199369
0.000198362
0.000199056
0.000197719
0.000198338
0.000179177
0.000180605
0.000198849
0.000198248
0.00019826
0.0001804
0.000181944
0.000183157
0.000200274
0.000198248
0.000201735
0.000200433
0.000179966
0.000181947
0.000200308
0.000199278
0.000202003
0.000201351
0.000198152
0.000199999
0.000199222
0.000180965
0.000182574
0.000198241
0.000200943
0.000199485
0.000181171
0.000183035
0.000182497
0.000201805
0.000201167
0.000201534
0.000202849
0.000182293
0.000183829
0.000202036
0.00020158
0.00020149
0.000201677
0.00019996
0.000202832
0.000202297
0.000182577
0.000182809
0.000200133
0.000201698
0.000202154
0.000183404
0.000182293
0.000183194
0.000201549
0.000203188
0.000202457
0.000203177
0.000183877
0.000183976
0.000201336
0.000201839
0.000202329
0.000202695
0.00020297
0.000203612
0.000204219
0.000182773
0.000183642
0.000202789
0.000203147
0.000204121
0.000184534
0.000183448
0.000185419
0.000203032
0.000203042
0.000204963
0.00020339
0.000183762
0.000183775
0.000203006
0.000203003
0.000205102
0.000204344
0.00020419
0.000203196
0.000203503
0.000183687
0.000184598
0.00020414
0.000204168
0.000203597
0.000183847
0.000185566
0.00018601
0.000205519
0.000204035
0.000206168
0.000205966
0.000183925
0.000185808
0.000205673
0.000204914
0.000206262
0.000206322
0.00020339
0.000205686
0.000204876
0.000184748
0.000186019
0.000203512
0.000206075
0.000205014
0.000185044
0.000185778
0.000185071
0.000206074
0.000206379
0.00020565
0.000206815
0.000185922
0.000186437
0.00020616
0.000206491
0.000205636
0.00020636
0.000205688
0.000207148
0.000207631
0.000186002
0.000185944
0.000205747
0.000206625
0.000207573
0.000186985
0.000184958
0.000186275
0.000205647
0.000206736
0.000206877
0.000206484
0.000186259
0.00018581
0.000205618
0.000206182
0.000206845
0.000205746
0.000207861
0.000206803
0.000207628
0.000185738
0.000185219
0.000207807
0.000206123
0.00020758
0.000186454
0.000186392
0.000187185
0.000207304
0.000206548
0.000208225
0.000207852
0.000185674
0.000186856
0.000207278
0.000205723
0.000208078
0.000207209
0.00020713
0.000207475
0.000206547
0.000185016
0.000186106
0.000207068
0.000206745
0.000206429
0.00018557
0.000187186
0.00018812
0.000208472
0.000208452
0.000209453
0.00020996
0.000187122
0.000188613
0.000208339
0.000208121
0.000209615
0.000211382
0.000206757
0.000209995
0.000209898
0.000186629
0.000190113
0.000206655
0.000211427
0.000210092
0.000188824
0.000188114
0.000188238
0.000209789
0.000210165
0.000210077
0.000210116
0.000188576
0.000188123
0.000210047
0.000211968
0.000210443
0.000212061
0.000210648
0.000210407
0.000211199
0.000190294
0.000189693
0.000210921
0.000212333
0.000211528
0.000189164
0.000188003
0.000187267
0.000209962
0.000209757
0.000209357
0.000209058
0.000187845
0.000186999
0.000210333
0.000211123
0.000209295
0.000207989
0.00021093
0.000209066
0.000208768
0.000189178
0.00018577
0.000211204
0.000207948
0.000208647
0.000186504
0.000187163
0.000188816
0.000209357
0.00020908
0.000210702
0.000210751
0.000186936
0.000188928
0.000209193
0.000207479
0.000210052
0.000207735
0.000208445
0.000210408
0.000209096
0.000185422
0.000186525
0.000208222
0.000207503
0.000208635
0.000187688
0.000189053
0.000190345
0.000211349
0.000211462
0.000212697
0.000212961
0.000189185
0.00019073
0.00021089
0.000209084
0.00021277
0.000213214
0.000210383
0.000213226
0.000214263
0.000187187
0.000191023
0.000209959
0.000213489
0.000214347
0.000192004
0.000190243
0.000189754
0.000212919
0.000213182
0.00021294
0.000212836
0.000190656
0.000189623
0.000213061
0.000214077
0.00021327
0.000215046
0.00021485
0.00021324
0.000214269
0.000191278
0.000191721
0.000215016
0.000215409
0.000214538
0.000190582
0.000189508
0.000188357
0.000212461
0.000212176
0.000210996
0.000210762
0.000189203
0.000187581
0.00021282
0.000214719
0.000211354
0.000212013
0.000212349
0.000210346
0.000208256
0.000191299
0.000188572
0.000212634
0.000211608
0.000208551
0.000184908
0.000188143
0.000189024
0.000210832
0.0002107
0.000211616
0.000211682
0.000187496
0.000189711
0.000211133
0.000211423
0.000211512
0.000210287
0.000208199
0.000211708
0.000212616
0.00018833
0.000188092
0.0002085
0.000210277
0.000212586
0.000190792
0.000189334
0.000191277
0.000212816
0.000212575
0.00021439
0.000214423
0.000189914
0.000191267
0.000212335
0.000210196
0.000213702
0.000211037
0.000215011
0.000214988
0.000218229
0.000187946
0.000188239
0.000214705
0.000211607
0.000217499
0.000194949
0.000191114
0.000187945
0.000214316
0.000214553
0.000211864
0.000212493
0.00019113
0.000188834
0.000213666
0.000211951
0.000212399
0.000214408
0.000218287
0.000213592
0.000212157
0.00018837
0.000190553
0.000217553
0.000215023
0.000212791
0.000188308
0.000187787
0.000193063
0.00021171
0.000211672
0.000215492
0.000212338
0.000188174
0.000188142
0.000212676
0.000215391
0.000216168
0.000216378
0.000208321
0.000210313
0.000202743
0.000190916
0.000192612
0.000209747
0.00021418
0.000203683
0.000178677
0.000193848
0.000190829
0.000217042
0.000214259
0.000216349
0.000217371
0.000189052
0.000195659
0.000216689
0.000216005
0.000213857
0.00021234
0.000202993
0.00021783
0.000219657
0.000192097
0.000188199
0.000203559
0.000211761
0.000216231
0.000196119
0.000189028
0.000185637
0.000213088
0.000216934
0.000208791
0.000210662
0.000195495
0.000187165
0.00021141
0.00021283
0.000211233
0.000221108
0.0002272
0.000216256
0.000235937
0.000188379
0.000201405
0.000225037
0.000226416
0.000238139
0.000215779
0.000186336
0.000193704
0.000209513
0.000210458
0.000218658
0.000217308
0.000186433
0.000190457
0.000213116
0.000222326
0.000218704
0.000215217
0.000234121
0.000214601
0.000203889
0.000201976
0.000185483
0.000237437
0.000212541
0.00020471
0.000175345
0.000195
0.000217199
0.000216602
0.000192928
0.000215611
0.000206452
0.000239888
0.000229767
0.000220385
0.000196231
0.000181369
0.000195196
0.000100833
5.02722e-05
9.93669e-05
5.01106e-05
2.37653e-05
2.3692e-05
9.91952e-05
5.02368e-05
9.87735e-05
5.00928e-05
0.000156881
0.000166026
0.000153935
0.000184531
0.000201935
0.000172797
0.00016182
0.000137871
0.000105594
0.000160168
0.000190729
0.000133453
0.000108869
0.000173735
2.36338e-05
2.35591e-05
0.000134653
0.000166056
0.000104941
0.000176962
0.000134035
0.000170632
0.000101263
7.99225e-05
7.86886e-05
0.000162325
7.74496e-05
7.61682e-05
9.1268e-05
4.98382e-05
9.55314e-05
4.97768e-05
2.35337e-05
2.35017e-05
9.12634e-05
4.98708e-05
9.44578e-05
4.9818e-05
0.00020636
0.000166935
0.000160466
0.000139914
0.00016333
0.000122456
0.000131592
0.000124834
0.00010101
0.000188743
0.000184159
0.000133262
9.36935e-05
0.000185946
2.35106e-05
2.35303e-05
0.000120373
0.000168222
9.32145e-05
0.000144639
0.000126125
0.000158103
8.97252e-05
7.24432e-05
7.22178e-05
0.000139739
7.04117e-05
7.04647e-05
8.82797e-05
4.98658e-05
8.74254e-05
4.99994e-05
2.35498e-05
2.36091e-05
8.88737e-05
4.98767e-05
8.82094e-05
4.99833e-05
0.000138392
0.000113983
0.000123328
9.53339e-05
9.96689e-05
0.000107606
0.000115594
0.000113104
8.68388e-05
0.000138544
0.000123228
0.000114126
8.78796e-05
0.000127337
2.36001e-05
2.36515e-05
0.000116653
0.000128435
8.86855e-05
0.000127786
0.000114872
0.000125119
9.24441e-05
7.05705e-05
7.09837e-05
0.000130966
7.34967e-05
7.41043e-05
9.46356e-05
5.01643e-05
9.22384e-05
5.02119e-05
2.36606e-05
2.36691e-05
9.57303e-05
5.01403e-05
9.30879e-05
5.01889e-05
9.71858e-05
0.000111949
0.000117004
0.000117957
0.000115399
0.000138377
0.000133785
0.000129852
9.56254e-05
0.000118428
0.000136194
0.000123608
9.93069e-05
0.00012153
2.36876e-05
2.36605e-05
0.000133382
0.000130847
0.000100586
0.000157516
0.000128172
0.000143284
0.000102453
7.94901e-05
7.9718e-05
0.000156279
7.98842e-05
7.97758e-05
9.677e-05
5.01886e-05
9.70469e-05
5.01265e-05
2.36434e-05
2.36167e-05
9.4757e-05
5.01558e-05
9.6799e-05
5.01003e-05
0.000130033
0.000140255
0.000134428
0.000156276
0.000146621
0.000128742
0.000125646
0.000128247
0.000100447
0.000153958
0.000164628
0.000132044
9.84546e-05
0.000157812
2.35803e-05
2.35701e-05
0.000123088
0.000158476
9.66142e-05
0.000152522
0.000130677
0.000156099
9.06514e-05
7.27655e-05
7.24309e-05
0.000140147
6.95591e-05
6.87744e-05
9.07788e-05
5.00425e-05
9.29496e-05
5.00494e-05
2.35734e-05
2.35846e-05
9.10556e-05
5.00593e-05
9.12968e-05
5.00981e-05
0.000144788
0.000126234
0.000123041
0.000137777
0.000121497
0.000131871
0.000122151
0.000120463
9.3476e-05
0.000152465
0.000144276
0.000121816
9.08711e-05
0.00014603
2.36453e-05
2.37158e-05
0.000119542
0.000139136
8.71986e-05
0.000138398
0.000116125
0.000137284
9.30938e-05
7.05219e-05
7.0177e-05
0.000132448
7.41378e-05
7.5233e-05
9.47394e-05
5.02028e-05
9.1479e-05
5.02975e-05
2.36788e-05
2.37325e-05
9.77399e-05
5.02063e-05
9.5367e-05
5.02451e-05
0.000116925
0.00014694
0.000129949
0.000123762
0.000116773
0.0001788
0.000149646
0.000130418
9.20028e-05
0.000136406
0.000134573
0.00012525
9.5861e-05
0.000136469
2.37819e-05
2.37425e-05
0.000142256
0.000154203
0.000106666
0.000187478
0.000136265
0.000170032
0.00011068
7.9193e-05
8.13824e-05
0.000163429
7.94162e-05
7.97604e-05
9.78119e-05
5.03287e-05
9.80633e-05
5.02909e-05
2.3747e-05
2.3728e-05
9.49823e-05
5.02365e-05
9.7493e-05
5.02211e-05
0.000129873
0.00018001
0.000150142
0.000151376
0.000163819
0.000155703
0.000142557
0.000132848
9.98132e-05
0.000163332
0.000171152
0.000134381
9.96618e-05
0.000170131
2.35983e-05
2.35614e-05
0.000127991
0.000185429
0.000102608
0.000184058
0.000137051
0.000183729
9.51299e-05
7.34638e-05
7.11245e-05
0.000145592
7.02984e-05
6.82479e-05
9.29242e-05
5.0264e-05
9.37647e-05
5.03347e-05
2.37148e-05
2.37365e-05
9.13618e-05
5.02409e-05
9.16452e-05
5.03205e-05
0.000167434
0.000136446
0.000140917
0.000158425
0.000168315
0.000103874
0.000152558
0.000125758
9.63975e-05
0.000169445
0.00016968
0.000126425
9.64348e-05
0.000167613
2.35903e-05
2.36505e-05
0.00011879
0.000148129
8.79636e-05
0.000129021
0.000118882
0.000139668
8.76014e-05
7.08113e-05
7.05158e-05
0.000144008
7.45731e-05
7.47027e-05
9.92742e-05
5.04968e-05
9.60997e-05
5.05447e-05
2.37756e-05
2.37706e-05
9.78826e-05
5.04703e-05
9.4823e-05
5.05324e-05
0.000168863
0.000100474
0.000165
0.000179362
0.000176362
0.000131396
0.000193178
0.000142099
0.000102962
0.00016934
0.000177839
0.000135415
0.00010614
0.000176298
2.37517e-05
2.38015e-05
0.00013678
0.000132908
9.28907e-05
0.000139921
0.000129666
0.000140255
9.72286e-05
8.37718e-05
8.34923e-05
0.000190431
8.64872e-05
8.61399e-05
0.00010046
5.04114e-05
0.000101955
5.02594e-05
2.37007e-05
2.36696e-05
0.000102366
5.04292e-05
0.000101874
5.02673e-05
0.0001784
0.000156324
0.000195081
0.000189556
0.000177104
0.000219929
0.000180898
0.00013957
0.000104709
0.000191371
0.000187343
0.000144939
0.000101292
0.000192023
2.38434e-05
2.38405e-05
0.000143327
0.000189588
0.000103419
0.000201234
0.000143023
0.000200693
0.000106581
8.03145e-05
8.13304e-05
0.000177035
7.49775e-05
7.60463e-05
9.26791e-05
5.00884e-05
9.55196e-05
5.00818e-05
2.36476e-05
2.36692e-05
9.52838e-05
5.0071e-05
9.81136e-05
5.00583e-05
0.000171292
0.00023043
0.000166127
0.000148117
0.00014262
0.000234159
0.000138118
0.000126584
9.56787e-05
0.000180337
0.000161915
0.000130452
9.31335e-05
0.000170966
2.37678e-05
2.37295e-05
0.000135979
0.00021182
0.000108041
0.000217191
0.000139293
0.000211085
0.000105342
7.00038e-05
6.94944e-05
0.000138646
6.9659e-05
6.8567e-05
9.32219e-05
5.02628e-05
9.11385e-05
5.0411e-05
2.37459e-05
2.37966e-05
9.31986e-05
5.02304e-05
9.2832e-05
5.03773e-05
0.00013664
0.000216717
0.000134995
0.000127988
0.000133368
0.000161307
0.000143306
0.000127816
9.24729e-05
0.000152384
0.000148093
0.000124446
9.55622e-05
0.000150394
2.36934e-05
2.36918e-05
0.000130371
0.000184154
0.000100764
0.000173804
0.000131305
0.000174734
9.86117e-05
7.24518e-05
7.18322e-05
0.000149343
7.51728e-05
7.46782e-05
9.94584e-05
5.05682e-05
9.73382e-05
5.06035e-05
2.38463e-05
2.38521e-05
9.69814e-05
5.05389e-05
9.53992e-05
5.05836e-05
0.000144176
0.000149563
0.000156122
0.000165277
0.000191485
0.000134911
0.000183929
0.000142012
0.000102121
0.000169662
0.000186393
0.000136802
0.000105972
0.000182335
2.37109e-05
2.37357e-05
0.000134092
0.000161251
9.62996e-05
0.000155111
0.000131834
0.000159555
9.63952e-05
7.96277e-05
7.87947e-05
0.00017637
8.07702e-05
7.99206e-05
0.000100752
5.06013e-05
0.000100838
5.05898e-05
2.3806e-05
2.37712e-05
9.9429e-05
5.05939e-05
9.87128e-05
5.05872e-05
0.000201895
0.000134118
0.000188791
0.000198287
0.000210839
0.000161325
0.000192428
0.000145172
0.000108648
0.000206862
0.00020717
0.000145967
0.000106995
0.000209033
2.37677e-05
2.37847e-05
0.000139299
0.000170612
9.87681e-05
0.000171703
0.00013777
0.000178041
0.0001004
7.91693e-05
7.93384e-05
0.000179086
7.76481e-05
7.83707e-05
9.91152e-05
5.05457e-05
9.9733e-05
5.05008e-05
2.37229e-05
2.37141e-05
0.000100405
5.05553e-05
0.000100232
5.051e-05
0.000208823
0.00017215
0.000191831
0.000207339
0.000181981
0.000190789
0.000183273
0.000137973
0.00010255
0.000204477
0.000187632
0.000140154
0.000100437
0.000197342
2.37943e-05
2.37921e-05
0.00014036
0.000192651
0.000102299
0.000189919
0.000140189
0.000194881
0.000103004
7.62763e-05
7.70909e-05
0.000170414
7.61841e-05
7.67647e-05
9.71715e-05
5.04299e-05
9.7818e-05
5.04093e-05
2.37269e-05
2.37519e-05
9.81757e-05
5.04307e-05
9.9036e-05
5.04085e-05
0.000173673
0.000192439
0.000180722
0.000185768
0.000159926
0.000191595
0.000174758
0.000135171
9.81135e-05
0.000181048
0.000171019
0.000135676
9.77411e-05
0.000178332
2.37781e-05
2.3776e-05
0.00013926
0.000196321
0.000102753
0.00019122
0.000139842
0.000196008
0.000102089
7.64535e-05
7.65917e-05
0.000167503
7.65519e-05
7.64527e-05
9.68081e-05
5.04145e-05
9.65657e-05
5.04471e-05
2.37885e-05
2.38094e-05
9.68036e-05
5.04119e-05
9.70181e-05
5.04427e-05
0.000158134
0.000188917
0.000173272
0.000167729
0.000166047
0.000181283
0.00017244
0.000136967
9.88446e-05
0.000175189
0.000174297
0.000135695
0.000100137
0.000177079
2.3781e-05
2.37913e-05
0.000137311
0.00019126
0.000100988
0.000184834
0.0001378
0.000189638
0.000100784
7.64298e-05
7.60551e-05
0.000167483
7.64878e-05
7.61672e-05
9.84012e-05
5.05109e-05
9.77641e-05
5.05497e-05
2.38261e-05
2.38313e-05
9.80225e-05
5.05066e-05
9.73688e-05
5.0546e-05
0.000172586
0.000179694
0.000174536
0.000167534
0.000187544
0.000177315
0.00018296
0.000140411
0.000101956
0.000189855
0.000188664
0.000139082
0.000102734
0.000193088
2.38045e-05
2.38106e-05
0.000139301
0.000186779
0.000101324
0.000182867
0.000137972
0.000186948
0.000101845
7.6986e-05
7.68745e-05
0.000171597
7.7306e-05
7.7286e-05
9.8883e-05
5.05897e-05
9.88212e-05
5.06148e-05
2.38326e-05
2.38338e-05
9.86038e-05
5.05846e-05
9.85208e-05
5.06084e-05
0.000190731
0.00017893
0.000185815
0.000186878
0.000195421
0.000184067
0.000191109
0.000141669
0.000103114
0.000199358
0.00019352
0.000141497
0.000103069
0.000200317
2.38152e-05
2.38213e-05
0.000140803
0.000192872
0.000101999
0.000187384
0.000140554
0.000194243
0.000101894
7.7516e-05
7.75535e-05
0.000175685
7.75207e-05
7.75598e-05
9.9343e-05
5.0646e-05
9.90153e-05
5.06584e-05
2.38367e-05
2.3841e-05
9.93339e-05
5.06399e-05
9.89068e-05
5.06535e-05
0.000195574
0.000185511
0.000191591
0.000197955
0.000194375
0.00019074
0.000191626
0.000141281
0.000102662
0.000200157
0.00019291
0.000141413
0.000102574
0.000199647
2.38329e-05
2.38412e-05
0.0001409
0.000196328
0.000101848
0.00018978
0.000140677
0.000196908
0.000102217
7.73936e-05
7.74341e-05
0.000175504
7.7359e-05
7.73995e-05
9.97025e-05
5.06601e-05
9.96549e-05
5.06553e-05
2.38456e-05
2.38486e-05
9.97383e-05
5.06567e-05
9.96777e-05
5.06528e-05
0.000194322
0.000192826
0.00019188
0.000201337
0.00019642
0.000198706
0.000194487
0.000142198
0.000102804
0.000199163
0.000193291
0.000141604
0.000103021
0.000200059
2.38486e-05
2.38529e-05
0.000142391
0.00019982
0.000102866
0.00019455
0.000141716
0.000201076
0.000103227
7.74097e-05
7.74319e-05
0.000176327
7.75041e-05
7.75267e-05
9.93426e-05
5.06472e-05
9.9497e-05
5.06492e-05
2.3853e-05
2.38585e-05
9.95069e-05
5.06456e-05
9.96279e-05
5.06473e-05
0.000197073
0.000200126
0.00019585
0.00019873
0.00019883
0.000202002
0.000200247
0.000142885
0.000103068
0.000202695
0.000195541
0.000142642
0.00010315
0.000203428
2.38564e-05
2.38586e-05
0.000143299
0.000204552
0.000103484
0.000197686
0.000143008
0.000205407
0.000103547
7.77032e-05
7.77285e-05
0.000179143
7.78593e-05
7.78621e-05
9.94576e-05
5.06654e-05
9.92975e-05
5.06812e-05
2.38644e-05
2.38676e-05
9.93657e-05
5.06621e-05
9.93667e-05
5.06772e-05
0.000199539
0.000201957
0.000201522
0.000197196
0.000201439
0.000201116
0.000203901
0.000143522
0.000103368
0.000205612
0.000197546
0.000143272
0.00010343
0.000206294
2.38601e-05
2.3863e-05
0.000143398
0.000206706
0.000103408
0.000197599
0.000143406
0.000206764
0.000103254
7.79934e-05
7.79578e-05
0.00018097
7.80144e-05
7.79721e-05
9.95818e-05
5.07032e-05
9.95064e-05
5.07198e-05
2.38704e-05
2.38744e-05
9.95806e-05
5.07006e-05
9.93913e-05
5.0718e-05
0.000201724
0.000200969
0.000204113
0.000203156
0.000202071
0.000202196
0.000203479
0.000143403
0.000103279
0.000207321
0.000197884
0.000143484
0.000103156
0.000207245
2.38697e-05
2.38765e-05
0.000143211
0.000206451
0.000103024
0.000197165
0.000143216
0.000206426
0.000103133
7.79258e-05
7.79006e-05
0.000180831
7.78252e-05
7.7831e-05
9.99484e-05
5.07353e-05
9.97798e-05
5.07412e-05
2.38823e-05
2.38889e-05
0.000100053
5.07328e-05
9.99157e-05
5.07382e-05
0.000202473
0.000203223
0.000203256
0.00020821
0.000205197
0.000206703
0.000204279
0.000143473
0.000103077
0.00020701
0.000198474
0.000143237
0.000103354
0.000207339
2.38828e-05
2.38864e-05
0.000143924
0.000207528
0.000103503
0.000199787
0.000143515
0.000208272
0.000103742
7.76888e-05
7.77372e-05
0.000180453
7.77179e-05
7.77515e-05
0.000100054
5.07463e-05
0.000100038
5.07502e-05
2.38953e-05
2.38991e-05
0.000100027
5.07429e-05
0.000100056
5.0746e-05
0.000206383
0.000207481
0.000205159
0.000208796
0.000209768
0.000208699
0.000208432
0.000144662
0.000103794
0.000209676
0.000201575
0.000144165
0.000104007
0.000210626
2.38897e-05
2.38933e-05
0.000144485
0.000210345
0.000103788
0.000201363
0.000144309
0.00021079
0.000103774
7.7904e-05
7.78687e-05
0.000182318
7.80492e-05
7.80076e-05
0.000100025
5.07595e-05
0.000100026
5.07698e-05
2.39025e-05
2.39047e-05
9.99321e-05
5.07556e-05
9.99162e-05
5.07673e-05
0.000210679
0.000209126
0.000209618
0.000209988
0.00021193
0.000210797
0.000212579
0.000145179
0.000104093
0.000213222
0.000203639
0.000145052
0.000104094
0.000213855
2.38991e-05
2.39035e-05
0.000144944
0.000212163
0.000103782
0.000202436
0.000144698
0.000212762
0.000103915
7.81705e-05
7.81566e-05
0.00018421
7.81936e-05
7.81921e-05
0.000100114
5.07877e-05
0.000100018
5.07992e-05
2.39077e-05
2.39124e-05
0.000100212
5.07858e-05
0.000100069
5.07964e-05
0.000211889
0.000211301
0.000213006
0.000213809
0.000212029
0.000212951
0.000212649
0.000144978
0.000103851
0.00021438
0.000203276
0.000145081
0.000103738
0.000214193
2.39082e-05
2.39128e-05
0.000145082
0.000214113
0.000103906
0.000203556
0.000145065
0.00021428
0.000103904
7.81016e-05
7.81235e-05
0.000184313
7.79715e-05
7.80012e-05
0.000100342
5.08068e-05
0.000100277
5.08088e-05
2.39195e-05
2.39238e-05
0.000100371
5.08038e-05
0.000100337
5.08059e-05
0.000212583
0.000213738
0.000212518
0.000216653
0.000215411
0.000216324
0.000214196
0.000145198
0.000103853
0.00021411
0.000204309
0.000144872
0.000104163
0.000214639
2.39176e-05
2.39206e-05
0.000145367
0.000214952
0.00010409
0.000205161
0.000145102
0.000215456
0.000104286
7.78528e-05
7.78676e-05
0.000183931
7.80146e-05
7.80022e-05
0.000100308
5.081e-05
0.000100333
5.08143e-05
2.39274e-05
2.39299e-05
0.000100286
5.08066e-05
0.000100348
5.08101e-05
0.000216357
0.000216924
0.00021528
0.000216345
0.000218143
0.000217585
0.000218531
0.000146049
0.000104389
0.000217003
0.000206683
0.000145812
0.000104432
0.000217718
2.39232e-05
2.39257e-05
0.000145971
0.000217216
0.000104362
0.000206477
0.000145792
0.000217662
0.000104374
7.82415e-05
7.82146e-05
0.000186289
7.83419e-05
7.83202e-05
0.000100208
5.08271e-05
0.000100217
5.0838e-05
2.3932e-05
2.3935e-05
0.000100201
5.08233e-05
0.00010017
5.08346e-05
0.000218398
0.000217657
0.00021936
0.000218316
0.000218603
0.000217547
0.000220165
0.000146081
0.000104301
0.000219172
0.000207112
0.000146112
0.000104165
0.00021935
2.39292e-05
2.39323e-05
0.000145964
0.000218671
0.000104227
0.000206529
0.000146014
0.000218864
0.000104107
7.83704e-05
7.83727e-05
0.000187139
7.8248e-05
7.82648e-05
0.000100278
5.08502e-05
0.000100209
5.08577e-05
2.39409e-05
2.39466e-05
0.000100199
5.08464e-05
0.000100205
5.08547e-05
0.000218688
0.000217461
0.00021978
0.000220742
0.000219917
0.000218964
0.00021863
0.000145552
0.000103925
0.000218849
0.000206724
0.000145661
0.000104028
0.000218689
2.39369e-05
2.39435e-05
0.000145284
0.000218269
0.000103704
0.000205864
0.000145487
0.000218058
0.000103641
7.79124e-05
7.79009e-05
0.000185697
7.78374e-05
7.78135e-05
0.000100512
5.08668e-05
0.000100398
5.08723e-05