/*--------------------------------*- C++ -*----------------------------------*\
| =========                 |                                                 |
| \\      /  F ield         | OpenFOAM: The Open Source CFD Toolbox           |
|  \\    /   O peration     | Version:  v2012                                 |
|   \\  /    A nd           | Website:  www.openfoam.com                      |
|    \\/     M anipulation  |                                                 |
\*---------------------------------------------------------------------------*/
FoamFile
{
    version     2.0;
    format      ascii;
    class       volScalarField;
    location    "625";
    object      p;
}
// * * * * * * * * * * * * * * * * * * * * * * * * * * * * * * * * * * * * * //

dimensions      [0 2 -2 0 0 0 0];


internalField   nonuniform List<scalar> 
85864
(
0.00167553
0.00167493
0.00167444
0.00167704
0.00163549
0.0016349
0.00163673
0.00163856
0.00159995
0.00160147
0.00160115
0.00160303
0.00156636
0.00156652
0.0015652
0.00156768
0.00153013
0.00152898
0.00152882
0.00153091
0.00149376
0.00149407
0.00149592
0.00149748
0.00146038
0.00146104
0.00145943
0.00146178
0.0014248
0.0014235
0.00142227
0.00142512
0.00138844
0.00138831
0.00139013
0.00139154
0.00135485
0.00135437
0.00135552
0.00135622
0.00131784
0.00131726
0.00131658
0.00131852
0.00127979
0.00128104
0.00127941
0.00128344
0.0012456
0.00124639
0.00124558
0.00124825
0.00121165
0.00121051
0.00121176
0.00121236
0.00117578
0.00117439
0.00117617
0.00117705
0.00113965
0.00113968
0.00113935
0.00114185
0.00110318
0.00110443
0.00110324
0.00110603
0.00106789
0.00106821
0.00106782
0.00107002
0.00103309
0.00103238
0.00103295
0.00103463
0.000998142
0.000997567
0.000997891
0.000999622
0.000962858
0.000962768
0.000962799
0.000964745
0.000927411
0.000927527
0.000927398
0.000929517
0.000891907
0.000891914
0.000891815
0.000893912
0.000856444
0.000856318
0.000856294
0.000858279
0.000820978
0.000820784
0.00082086
0.000822806
0.00078543
0.000785393
0.000785378
0.000787412
0.000749893
0.000749892
0.000749861
0.000751925
0.000714448
0.000714322
0.000714379
0.000716347
0.000678949
0.000678817
0.000678822
0.000680813
0.000643304
0.000643308
0.000643256
0.000645316
0.000607663
0.000607623
0.00060763
0.000609666
0.000572084
0.000571965
0.000571995
0.000573976
0.000536417
0.000536374
0.000536371
0.000538386
0.000500772
0.000500737
0.000500763
0.000502817
0.000465041
0.000464962
0.000464907
0.00046696
0.000429162
0.000429136
0.000429079
0.000431129
0.000393416
0.000393398
0.000393482
0.000395484
0.000357706
0.000357609
0.000357689
0.000359666
0.000321786
0.0003217
0.000321624
0.000323707
0.000285698
0.000285687
0.000285618
0.000287697
0.000249772
0.000249868
0.000249859
0.000251995
0.000213968
0.000213799
0.000213865
0.000215773
0.000177718
0.000177678
0.000177763
0.000179766
0.000141955
0.000141698
0.000141674
0.000143721
0.000105555
0.000106153
0.000105706
0.000108103
6.9528e-05
6.91393e-05
6.99344e-05
7.15439e-05
3.43208e-05
3.34495e-05
3.23358e-05
3.40528e-05
4.74142e-06
6.50183e-06
6.13937e-06
5.08274e-06
0.00167678
0.00164314
0.00167475
0.00167486
0.001645
0.00164426
0.00167694
0.00164224
0.00167461
0.00167434
0.0016452
0.00164556
0.00167506
0.0016445
0.00164572
0.00167658
0.00164384
0.00167491
0.00164573
0.00164584
0.00164366
0.00163819
0.00160796
0.00163567
0.00163475
0.00160957
0.00160961
0.00163725
0.0016081
0.00163596
0.00163649
0.00160968
0.00160998
0.00163613
0.00160958
0.00160932
0.00163897
0.00160806
0.00163639
0.00160995
0.00160949
0.00160762
0.00160334
0.00157316
0.00160112
0.00160141
0.00157538
0.00157569
0.00160351
0.00157346
0.0016011
0.0016012
0.00157517
0.00157462
0.00160079
0.00157558
0.00157492
0.00160337
0.00157232
0.00160085
0.00157446
0.00157464
0.00157264
0.00156832
0.00153606
0.0015665
0.00156668
0.00153849
0.00153834
0.00156857
0.00153606
0.00156623
0.00156541
0.00153823
0.00153776
0.00156574
0.00153818
0.00153795
0.00156744
0.00153556
0.00156537
0.00153763
0.00153774
0.00153564
0.00153108
0.00150044
0.00152913
0.001529
0.0015021
0.00150214
0.0015311
0.00150054
0.00152903
0.00152886
0.00150241
0.0015038
0.00152909
0.00150248
0.00150385
0.0015308
0.00150195
0.00152899
0.00150411
0.00150415
0.00150201
0.00149596
0.00146728
0.00149356
0.00149366
0.00146917
0.00146942
0.00149606
0.00146747
0.00149393
0.00149551
0.00146926
0.00146915
0.00149539
0.00146951
0.00146891
0.00149747
0.00146681
0.00149579
0.00146924
0.00146897
0.00146672
0.0014627
0.00143114
0.00146086
0.00146119
0.00143402
0.00143367
0.00146293
0.00143083
0.0014608
0.00145958
0.00143342
0.00143156
0.00145973
0.00143316
0.00143225
0.00146171
0.00142924
0.00145944
0.00143104
0.00143174
0.00142988
0.00142599
0.00139476
0.00142433
0.00142386
0.00139648
0.00139638
0.00142573
0.00139469
0.0014239
0.00142259
0.00139686
0.00139785
0.00142334
0.00139665
0.00139788
0.00142446
0.00139635
0.00142305
0.00139819
0.00139815
0.00139601
0.00139021
0.00136138
0.00138793
0.00138796
0.00136305
0.00136304
0.00139018
0.00136109
0.00138842
0.00138981
0.00136352
0.00136449
0.00138947
0.00136319
0.0013631
0.00139185
0.00136226
0.00138985
0.00136464
0.00136357
0.00136113
0.00135673
0.00132468
0.00135455
0.00135443
0.00132709
0.00132694
0.00135634
0.00132447
0.00135491
0.00135557
0.001327
0.00132654
0.00135385
0.00132665
0.00132593
0.00135735
0.00132385
0.00135426
0.00132621
0.0013258
0.00132359
0.00131947
0.00128719
0.00131752
0.00131751
0.0012893
0.00128969
0.00131935
0.00128795
0.00131729
0.00131681
0.0012889
0.00128826
0.00131666
0.00128986
0.00129036
0.00131867
0.00128644
0.00131644
0.0012884
0.00128997
0.00128823
0.00128242
0.00125287
0.00128049
0.00128078
0.00125488
0.00125491
0.00128319
0.00125314
0.00128002
0.00127912
0.00125463
0.00125363
0.00128175
0.00125501
0.00125514
0.0012816
0.00125238
0.0012813
0.00125374
0.00125484
0.00125303
0.0012483
0.00121776
0.00124631
0.00124637
0.0012199
0.00121994
0.00124852
0.00121737
0.00124612
0.00124559
0.00122011
0.00122061
0.0012462
0.0012197
0.00121897
0.0012479
0.00121839
0.00124596
0.0012204
0.00121917
0.00121708
0.00121291
0.00118182
0.00121063
0.0012107
0.00118371
0.00118325
0.0012124
0.00118111
0.00121116
0.001212
0.00118429
0.00118533
0.00121001
0.00118325
0.00118365
0.00121365
0.00118279
0.00121038
0.00118528
0.0011842
0.00118184
0.001177
0.00114626
0.00117492
0.00117437
0.00114838
0.00114813
0.00117635
0.00114639
0.00117537
0.00117613
0.0011484
0.00114833
0.00117494
0.00114823
0.00114873
0.00117784
0.00114624
0.00117542
0.00114845
0.00114876
0.00114667
0.00114138
0.00111047
0.00113942
0.00113954
0.00111252
0.0011133
0.00114172
0.00111136
0.00113932
0.0011392
0.00111215
0.00111208
0.00113992
0.00111348
0.00111311
0.00114136
0.00111018
0.00113981
0.00111223
0.00111277
0.00111091
0.00110569
0.00107509
0.00110369
0.00110438
0.00107713
0.00107729
0.00110647
0.00107522
0.00110331
0.00110313
0.00107694
0.00107665
0.00110406
0.00107726
0.00107696
0.00110532
0.00107471
0.00110371
0.00107659
0.00107674
0.00107486
0.00107029
0.00103981
0.00106828
0.0010683
0.0010418
0.00104136
0.00107034
0.00103922
0.00106817
0.00106792
0.00104191
0.00104177
0.001068
0.00104117
0.00104136
0.00106995
0.00103973
0.00106787
0.00104165
0.00104154
0.00103939
0.00103504
0.00100442
0.00103298
0.00103252
0.00100646
0.00100625
0.00103445
0.00100421
0.00103316
0.00103305
0.00100663
0.00100671
0.00103259
0.00100624
0.00100635
0.001035
0.00100459
0.00103279
0.00100668
0.00100648
0.00100435
0.000999654
0.000969352
0.00099767
0.000997551
0.000971401
0.000971466
0.000999498
0.000969455
0.000997782
0.000997893
0.000971393
0.000971544
0.00099763
0.000971496
0.000971491
0.000999819
0.000969494
0.000997725
0.000971583
0.000971498
0.000969486
0.000964597
0.000934117
0.000962623
0.000962732
0.00093617
0.000936335
0.000964713
0.000934305
0.000962592
0.000962754
0.000936123
0.000936217
0.000962755
0.000936394
0.000936395
0.000964729
0.000934172
0.000962743
0.000936285
0.000936354
0.000934324
0.000929318
0.000898714
0.000927326
0.000927467
0.000900761
0.0009008
0.000929489
0.000898757
0.000927281
0.000927336
0.000900732
0.000900694
0.000927545
0.000900816
0.000900849
0.000929358
0.000898662
0.000927501
0.000900711
0.000900819
0.000898752
0.000893904
0.000863284
0.000891907
0.000891922
0.000865325
0.000865275
0.000893937
0.000863202
0.000891882
0.000891823
0.000865312
0.000865217
0.000891925
0.000865218
0.000865159
0.000893847
0.000863168
0.000891899
0.000865167
0.00086515
0.000863105
0.000858465
0.000827682
0.000856447
0.000856376
0.000829735
0.000829678
0.000858371
0.000827629
0.000856441
0.000856346
0.000829756
0.000829743
0.000856254
0.000829651
0.00082962
0.000858351
0.000827691
0.000856253
0.000829714
0.000829639
0.000827612
0.000822852
0.000792126
0.00082083
0.000820798
0.000794172
0.000794212
0.000822812
0.000792182
0.000820853
0.000820874
0.000794177
0.000794231
0.000820766
0.000794238
0.000794244
0.000822875
0.000792183
0.000820786
0.00079426
0.000794251
0.000792218
0.000787308
0.000756661
0.000785298
0.000785354
0.000758701
0.00075875
0.000787374
0.000756711
0.000785295
0.000785336
0.000758689
0.0007587
0.000785405
0.000758784
0.000758822
0.000787359
0.000756677
0.000785404
0.000758732
0.000758807
0.000756753
0.000751849
0.000721232
0.000749842
0.000749869
0.000723265
0.000723221
0.000751886
0.000721174
0.000749833
0.00074984
0.000723274
0.000723266
0.000749933
0.000723209
0.000723226
0.000751865
0.000721221
0.000749923
0.000723255
0.00072324
0.000721178
0.000716414
0.000685706
0.000714399
0.000714343
0.000687756
0.000687714
0.00071635
0.000685668
0.000714413
0.000714398
0.000687763
0.000687741
0.000714326
0.000687688
0.000687662
0.0007164
0.00068568
0.000714344
0.000687713
0.000687668
0.000685636
0.000680871
0.000650076
0.000678858
0.000678838
0.00065213
0.000652184
0.000680845
0.000650143
0.000678857
0.000678844
0.000652116
0.000652136
0.000678784
0.000652199
0.00065218
0.000680848
0.000650095
0.000678785
0.000652154
0.000652168
0.00065014
0.000645237
0.000614476
0.000643221
0.00064328
0.00061652
0.000616532
0.000645304
0.000614487
0.000643208
0.000643228
0.000616516
0.000616521
0.000643308
0.000616549
0.000616593
0.000645258
0.000614488
0.000643295
0.000616537
0.00061659
0.000614522
0.000609644
0.000578912
0.000607627
0.000607619
0.000580945
0.000580899
0.000609643
0.000578848
0.000607628
0.000607627
0.000580954
0.00058093
0.000607654
0.000580874
0.000580854
0.000609654
0.000578881
0.000607656
0.000580906
0.000580863
0.000578817
0.00057407
0.000543223
0.000572038
0.000571993
0.000545269
0.000545279
0.000574007
0.000543237
0.000572047
0.000572023
0.000545269
0.00054528
0.000571936
0.00054527
0.000545235
0.000574038
0.000543229
0.000571944
0.000545269
0.000545236
0.000543213
0.000538377
0.000507574
0.000536347
0.000536372
0.000509616
0.000509631
0.000538396
0.000507593
0.000536345
0.000536368
0.000509621
0.000509656
0.000536356
0.000509662
0.000509713
0.000538389
0.000507608
0.000536356
0.000509685
0.000509715
0.000507667
0.00050273
0.000471856
0.000500708
0.000500711
0.000473928
0.000473919
0.000502744
0.000471859
0.000500713
0.000500739
0.00047392
0.000473887
0.0005008
0.000473914
0.000473918
0.00050276
0.000471825
0.000500803
0.000473884
0.00047391
0.000471836
0.000466991
0.000436041
0.000464981
0.000464974
0.000438095
0.000438107
0.000466993
0.000436053
0.000464967
0.000464918
0.000438075
0.000438022
0.000464943
0.000438089
0.000438033
0.00046695
0.000435989
0.000464929
0.000438004
0.000438012
0.000435985
0.000431176
0.000400302
0.000429138
0.000429152
0.000402313
0.000402316
0.000431186
0.000400292
0.000429123
0.000429095
0.000402333
0.000402379
0.000429083
0.000402326
0.000402341
0.000431139
0.000400359
0.000429069
0.000402386
0.000402359
0.00040033
0.000395453
0.000364508
0.000393386
0.000393381
0.000366562
0.000366548
0.000395437
0.000364492
0.000393413
0.000393468
0.000366593
0.000366666
0.00039343
0.000366565
0.000366621
0.000395514
0.000364585
0.000393455
0.000366684
0.000366652
0.000364548
0.000359633
0.000328627
0.000357609
0.000357601
0.000330712
0.000330709
0.000359627
0.00032863
0.000357627
0.000357678
0.000330695
0.000330657
0.000357651
0.000330699
0.000330691
0.000359694
0.000328565
0.000357673
0.000330647
0.000330673
0.000328611
0.000323741
0.000292661
0.000321726
0.000321717
0.000294715
0.000294695
0.000323734
0.000292639
0.000321705
0.000321643
0.000294692
0.000294607
0.000321674
0.000294663
0.000294581
0.000323665
0.000292552
0.000321649
0.000294577
0.000294559
0.000292557
0.000287758
0.000256673
0.000285697
0.000285705
0.000258719
0.000258781
0.000287756
0.000256787
0.000285683
0.000285635
0.000258713
0.000258761
0.000285626
0.00025883
0.000258915
0.000287687
0.000256794
0.000285613
0.000258817
0.000258913
0.000256866
0.000251811
0.00022083
0.000249762
0.000249811
0.000222875
0.000222843
0.000251915
0.000220744
0.000249757
0.000249801
0.000222902
0.000222899
0.000249976
0.000222821
0.000222797
0.000251925
0.000220802
0.000249975
0.000222872
0.00022281
0.000220684
0.000215924
0.000184643
0.00021387
0.00021384
0.000186699
0.000186742
0.000215838
0.000184642
0.000213899
0.000213906
0.00018673
0.000186804
0.00021371
0.000186734
0.000186678
0.000215891
0.000184682
0.000213734
0.000186791
0.000186701
0.000184672
0.000179726
0.000148788
0.000177664
0.000177674
0.000150838
0.000150643
0.000179697
0.00014861
0.000177696
0.000177776
0.000150844
0.00015074
0.000177671
0.000150574
0.000150642
0.000179774
0.00014872
0.000177692
0.000150695
0.000150668
0.000148637
0.000143889
0.000112617
0.000141925
0.000141758
0.000114764
0.000115043
0.000143793
0.000113081
0.000141881
0.000141713
0.000114619
0.000114499
0.000141695
0.000115152
0.000115081
0.000143799
0.00011251
0.000141673
0.000114614
0.00011494
0.000112935
0.000107618
7.63861e-05
0.000105562
0.000105948
7.82763e-05
7.8299e-05
0.000108097
7.6192e-05
0.000105474
0.00010553
7.84864e-05
7.89301e-05
0.000106226
7.83858e-05
7.86867e-05
0.000107618
7.68238e-05
0.000106092
7.90282e-05
7.89023e-05
7.66534e-05
7.15337e-05
4.06992e-05
6.94826e-05
6.92211e-05
4.28625e-05
4.25037e-05
7.11433e-05
4.02784e-05
6.96866e-05
7.00057e-05
4.27204e-05
4.21859e-05
6.93923e-05
4.20931e-05
4.13695e-05
7.18099e-05
3.98202e-05
6.96116e-05
4.18011e-05
4.13014e-05
3.91897e-05
3.5604e-05
7.33409e-06
3.39345e-05
3.38467e-05
1.05141e-05
1.08292e-05
3.53484e-05
7.83408e-06
3.36427e-05
3.27804e-05
1.01679e-05
9.83818e-06
3.21899e-05
1.08165e-05
1.09093e-05
3.45864e-05
7.25028e-06
3.18746e-05
9.81532e-06
1.05098e-05
8.05189e-06
4.12429e-06
5.7762e-06
6.01338e-06
4.57204e-06
5.91401e-06
5.68822e-06
5.0535e-06
5.07045e-06
5.7382e-06
6.48436e-06
4.47889e-06
6.579e-06
0.00166205
0.00167607
0.00167599
0.0016625
0.00167523
0.00166185
0.0016626
0.00167627
0.0016763
0.00166284
0.00167622
0.00167501
0.00167545
0.00164537
0.00164509
0.00164542
0.00164579
0.00166241
0.00167594
0.00167556
0.00166469
0.00167661
0.00166195
0.00166543
0.0016769
0.00166368
0.00166288
0.00167493
0.00167673
0.00166467
0.00167678
0.00166514
0.00166329
0.00167706
0.00167725
0.00166284
0.00166331
0.00166351
0.00162625
0.00163996
0.00163949
0.00162654
0.00164027
0.00162707
0.00162642
0.00164024
0.00163998
0.0016266
0.00163508
0.00163574
0.00163596
0.00160835
0.00160793
0.00160909
0.00160873
0.00162556
0.00163946
0.00163537
0.00162605
0.00163878
0.00162633
0.00162602
0.0016406
0.00162649
0.0016259
0.00163611
0.00164016
0.0016277
0.00163955
0.00162704
0.00162628
0.0016398
0.0016399
0.00162522
0.00162581
0.00162582
0.0015904
0.00160384
0.00160394
0.00159011
0.00160406
0.00159007
0.0015898
0.00160363
0.00160352
0.00158982
0.00159985
0.00160055
0.00160031
0.00157476
0.00157492
0.00157476
0.00157468
0.00159046
0.00160393
0.0016006
0.00159298
0.00160351
0.00159034
0.00159233
0.00160284
0.00158893
0.00158975
0.00160077
0.00160298
0.00159238
0.00160309
0.00159219
0.00158921
0.00160288
0.0016027
0.00159053
0.00158924
0.00158905
0.00155373
0.00156721
0.00156747
0.00155351
0.00156706
0.00155343
0.00155341
0.00156686
0.00156694
0.00155326
0.00156646
0.00156581
0.00156576
0.0015396
0.00153944
0.00153818
0.00153826
0.00155391
0.00156714
0.00156654
0.00155719
0.00156751
0.00155361
0.00155746
0.00156649
0.00155371
0.00155348
0.00156577
0.00156649
0.0015559
0.00156683
0.00155643
0.0015535
0.00156682
0.00156667
0.00155397
0.00155389
0.00155384
0.00151801
0.00153106
0.00153107
0.00151809
0.00153125
0.00151848
0.0015187
0.00153136
0.00153149
0.00151858
0.00152993
0.00152911
0.0015293
0.00150257
0.00150242
0.00150378
0.00150387
0.00151859
0.00153143
0.00152922
0.0015199
0.00153137
0.00151863
0.0015202
0.00153252
0.00151955
0.00151916
0.00152887
0.00153215
0.00152037
0.00153159
0.00152024
0.00151951
0.0015326
0.00153276
0.00151858
0.0015195
0.00151969
0.00148419
0.00149689
0.00149678
0.00148427
0.00149749
0.00148465
0.001484
0.00149709
0.00149711
0.00148407
0.00149367
0.00149555
0.00149543
0.00146877
0.00146902
0.00146988
0.0014693
0.00148427
0.00149715
0.00149433
0.00148587
0.00149701
0.0014844
0.00148601
0.00149694
0.00148295
0.0014845
0.00149567
0.00149755
0.00148758
0.00149776
0.00148734
0.00148364
0.00149694
0.00149701
0.0014851
0.00148326
0.00148312
0.00144906
0.00146257
0.00146261
0.00144901
0.00146228
0.00144839
0.00144804
0.00146188
0.0014615
0.00144841
0.00146062
0.00146045
0.00146012
0.00143397
0.00143427
0.00143176
0.00143234
0.00144861
0.00146223
0.0014607
0.0014522
0.0014621
0.00144852
0.00145185
0.0014599
0.00144716
0.00144722
0.00146013
0.00146008
0.00144965
0.00146079
0.00145036
0.00144693
0.00146116
0.0014609
0.00144808
0.00144833
0.0014482
0.00141232
0.00142596
0.00142588
0.00141243
0.00142547
0.00141228
0.00141323
0.00142607
0.00142601
0.00141302
0.00142478
0.0014228
0.00142338
0.00139711
0.001397
0.00139693
0.00139798
0.00141253
0.00142554
0.00142377
0.00141419
0.0014257
0.00141238
0.0014145
0.00142722
0.0014148
0.00141352
0.00142252
0.00142651
0.00141401
0.00142568
0.00141398
0.00141438
0.00142673
0.00142689
0.00141266
0.00141349
0.00141367
0.0013777
0.00139058
0.00139059
0.00137755
0.00139064
0.00137758
0.00137862
0.00139122
0.00139167
0.00137807
0.0013884
0.00138887
0.00138965
0.00136332
0.00136311
0.00136416
0.00136394
0.00137814
0.00139075
0.00138858
0.00138001
0.00139094
0.00137785
0.00138022
0.00139285
0.00137928
0.0013793
0.00138965
0.00139278
0.00138189
0.00139229
0.00138143
0.00137944
0.00139085
0.00139099
0.00137913
0.00137701
0.00137717
0.00134225
0.00135534
0.00135567
0.001342
0.00135535
0.00134216
0.00134215
0.00135564
0.00135608
0.00134194
0.00135446
0.00135572
0.00135479
0.00132754
0.00132703
0.00132829
0.00132634
0.0013421
0.00135539
0.00135441
0.00134528
0.00135556
0.00134209
0.00134531
0.00135575
0.00134132
0.00134208
0.00135554
0.00135597
0.00134594
0.00135611
0.00134626
0.00134167
0.00135436
0.00135453
0.0013425
0.00134154
0.00134154
0.00130636
0.00131979
0.0013197
0.00130666
0.00132014
0.00130686
0.0013051
0.00131918
0.00131876
0.00130589
0.00131763
0.00131843
0.00131699
0.00128903
0.00128953
0.00128893
0.0012894
0.00130649
0.0013199
0.00131724
0.00130798
0.00131948
0.00130676
0.00130795
0.00131757
0.0013039
0.00130525
0.00131694
0.00131806
0.001307
0.0013187
0.00130742
0.00130442
0.00132069
0.00132044
0.00130562
0.00130767
0.00130736
0.0012708
0.00128445
0.00128411
0.001271
0.0012845
0.00127096
0.00127006
0.00128376
0.00128301
0.00127057
0.00128033
0.00127958
0.00128056
0.00125397
0.00125438
0.00125274
0.00125457
0.00127081
0.00128432
0.00128101
0.00127232
0.00128413
0.00127089
0.00127226
0.00128236
0.00126999
0.00126988
0.00127991
0.00128231
0.00127048
0.00128283
0.00127103
0.00126977
0.0012848
0.00128457
0.00127065
0.0012708
0.00127061
0.00123474
0.00124825
0.00124837
0.00123457
0.00124808
0.00123427
0.00123532
0.00124827
0.00124843
0.00123488
0.0012459
0.00124438
0.00124589
0.00122026
0.00122058
0.00121964
0.00121987
0.00123472
0.00124817
0.00124626
0.00123771
0.00124822
0.00123444
0.00123758
0.00124904
0.00123609
0.00123508
0.00124535
0.00124851
0.0012373
0.00124802
0.00123692
0.00123566
0.00124738
0.00124734
0.00123496
0.00123362
0.00123371
0.00119852
0.00121184
0.00121191
0.00119855
0.00121132
0.00119802
0.00119977
0.0012126
0.00121314
0.00119933
0.00121175
0.00121128
0.00121095
0.00118475
0.00118414
0.00118567
0.00118428
0.00119861
0.00121149
0.00121079
0.00120133
0.00121182
0.00119824
0.00120156
0.00121391
0.00120034
0.00120002
0.00121137
0.00121364
0.00120304
0.00121307
0.00120272
0.00120034
0.0012115
0.00121179
0.00119941
0.00119872
0.00119901
0.00116376
0.00117673
0.00117669
0.00116369
0.00117664
0.00116409
0.00116385
0.00117712
0.00117729
0.00116376
0.00117495
0.00117688
0.00117545
0.00114879
0.00114812
0.00114923
0.0011488
0.00116398
0.0011766
0.00117458
0.00116557
0.00117673
0.00116406
0.0011658
0.00117736
0.00116372
0.00116433
0.00117621
0.00117757
0.00116687
0.00117761
0.00116703
0.00116408
0.00117747
0.00117759
0.00116426
0.00116457
0.00116453
0.00112886
0.00114179
0.001142
0.00112867
0.00114273
0.00112953
0.00112803
0.00114141
0.0011414
0.00112814
0.00113922
0.00113991
0.00113982
0.00111217
0.00111275
0.00111229
0.00111277
0.00112922
0.00114262
0.00113958
0.00113107
0.00114232
0.00112947
0.00113086
0.00114122
0.00112789
0.00112837
0.0011396
0.00114147
0.00113028
0.00114174
0.00113052
0.0011281
0.0011424
0.00114225
0.00112889
0.00112893
0.00112876
0.00109304
0.00110649
0.00110652
0.00109308
0.00110681
0.00109305
0.00109263
0.00110608
0.00110586
0.00109283
0.00110384
0.00110323
0.00110372
0.00107665
0.00107712
0.00107644
0.00107674
0.00109302
0.00110674
0.00110431
0.00109537
0.00110653
0.00109308
0.00109528
0.00110573
0.00109247
0.0010924
0.00110338
0.00110565
0.00109429
0.00110571
0.00109438
0.00109237
0.00110628
0.00110612
0.00109285
0.00109271
0.00109261
0.00105702
0.0010706
0.00107047
0.00105718
0.00107012
0.00105659
0.00105721
0.00107059
0.00107045
0.0010573
0.00106828
0.00106768
0.00106788
0.00104175
0.00104179
0.00104159
0.00104166
0.00105677
0.00107009
0.00106823
0.00105916
0.00107015
0.0010566
0.00105929
0.0010703
0.00105709
0.00105698
0.00106775
0.00107013
0.00105908
0.00107004
0.001059
0.00105701
0.00107019
0.00107017
0.00105704
0.0010568
0.00105684
0.00102156
0.00103487
0.00103472
0.00102164
0.00103445
0.00102142
0.00102192
0.00103512
0.00103512
0.00102188
0.00103288
0.00103293
0.00103292
0.00100696
0.00100651
0.00100689
0.00100666
0.00102149
0.00103437
0.00103249
0.00102362
0.00103448
0.00102139
0.00102368
0.00103511
0.00102199
0.00102188
0.00103292
0.00103497
0.00102422
0.00103491
0.00102421
0.0010219
0.00103464
0.00103472
0.00102183
0.00102152
0.0010216
0.000986689
0.000999717
0.000999718
0.000986624
0.000999745
0.000986764
0.000986772
0.000999828
0.000999898
0.000986672
0.000997777
0.000998113
0.000997895
0.000971681
0.00097155
0.000971738
0.000971583
0.000986799
0.000999682
0.000997584
0.000988891
0.000999659
0.000986784
0.000988902
0.00100005
0.000986902
0.000986915
0.000997887
0.000999965
0.000989116
0.000999872
0.000989117
0.000986935
0.000999775
0.000999818
0.000986921
0.00098677
0.0009868
0.00095163
0.000964691
0.000964795
0.00095154
0.000964925
0.000951761
0.000951545
0.000964669
0.00096475
0.000951491
0.000962794
0.000962947
0.00096281
0.00093628
0.00093641
0.000936434
0.000936435
0.000951885
0.000964936
0.000962784
0.000954012
0.000964894
0.000951862
0.000954034
0.00096482
0.000951581
0.000951816
0.000962825
0.000964884
0.000953989
0.000964884
0.000954033
0.000951722
0.000964961
0.00096496
0.000951963
0.000951811
0.000951795
0.000916316
0.000929523
0.000929536
0.000916327
0.000929615
0.000916342
0.000916234
0.000929469
0.000929451
0.000916275
0.000927569
0.000927553
0.000927605
0.00090078
0.000900904
0.000900834
0.000900975
0.000916431
0.000929639
0.000927588
0.000918633
0.000929639
0.000916385
0.000918708
0.000929439
0.000916189
0.000916341
0.000927501
0.000929477
0.000918504
0.000929531
0.00091861
0.000916252
0.000929668
0.000929644
0.00091657
0.000916347
0.000916322
0.000880895
0.000894213
0.000894164
0.000880937
0.00089414
0.000880831
0.000880857
0.000894172
0.000894103
0.000880911
0.000892005
0.000891927
0.000892059
0.000865311
0.000865328
0.000865226
0.000865281
0.000880825
0.000894069
0.000891968
0.000883016
0.000894041
0.000880806
0.000883054
0.000894043
0.000880795
0.000880776
0.000891889
0.000893977
0.000882928
0.000893973
0.000882979
0.000880755
0.000894046
0.000894027
0.000880918
0.000880699
0.00088069
0.000845276
0.000858656
0.000858619
0.00084529
0.000858562
0.00084526
0.000845315
0.000858666
0.000858635
0.000845317
0.000856429
0.000856341
0.000856362
0.000829855
0.000829726
0.000829756
0.000829677
0.00084524
0.000858468
0.000856326
0.00084742
0.000858433
0.000845232
0.000847424
0.000858625
0.000845333
0.000845272
0.000856289
0.000858501
0.000847429
0.000858436
0.000847415
0.000845289
0.000858454
0.000858461
0.000845336
0.000845172
0.000845182
0.000809704
0.000822979
0.000822998
0.000809665
0.000823046
0.000809762
0.000809707
0.000822996
0.000823026
0.000809668
0.000820843
0.000820914
0.000820806
0.000794318
0.000794297
0.000794352
0.000794271
0.000809799
0.000822984
0.00082078
0.000811928
0.000822939
0.000809788
0.000811926
0.000823061
0.00080973
0.000809826
0.000820841
0.000823017
0.000812002
0.00082298
0.000811992
0.000809791
0.000823031
0.000823039
0.000809912
0.000809785
0.000809786
0.000774224
0.000787474
0.000787487
0.000774223
0.000787525
0.000774231
0.000774206
0.000787461
0.000787466
0.000774209
0.00078546
0.000785477
0.000785443
0.000758771
0.000758878
0.000758808
0.00075891
0.000774371
0.000787541
0.000785415
0.000776538
0.000787532
0.000774307
0.000776573
0.000787494
0.000774228
0.000774339
0.000785423
0.000787504
0.000776493
0.000787515
0.00077655
0.000774282
0.000787623
0.000787615
0.000774502
0.000774321
0.000774315
0.000738795
0.000752084
0.000752054
0.000738827
0.000752039
0.000738768
0.000738822
0.000752087
0.000752061
0.000738847
0.000749994
0.000749925
0.000750032
0.000723305
0.000723312
0.000723324
0.000723348
0.000738821
0.000752014
0.000749952
0.000740996
0.00075202
0.00073878
0.000741055
0.000752083
0.000738829
0.000738841
0.00074991
0.000752041
0.000740994
0.000752017
0.000741032
0.000738828
0.000752068
0.000752075
0.000738971
0.000738749
0.000738759
0.000703308
0.000716624
0.000716594
0.000703315
0.00071658
0.000703311
0.000703323
0.000716649
0.000716629
0.000703323
0.000714415
0.000714456
0.000714446
0.000687843
0.000687736
0.000687792
0.000687729
0.000703288
0.000716502
0.000714356
0.00070544
0.000716466
0.000703282
0.000705461
0.000716617
0.00070331
0.000703313
0.000714399
0.000716544
0.000705496
0.000716506
0.00070551
0.000703296
0.000716522
0.00071653
0.000703395
0.000703233
0.000703237
0.000667727
0.000681034
0.000681051
0.0006677
0.000681091
0.000667764
0.000667698
0.00068102
0.00068103
0.000667682
0.000678858
0.000678899
0.000678826
0.00065222
0.000652256
0.000652229
0.0006522
0.000667805
0.000681028
0.000678812
0.000669948
0.000680976
0.000667796
0.000669941
0.000681045
0.000667709
0.000667779
0.000678826
0.000680998
0.000669934
0.000680965
0.00066994
0.000667752
0.000681053
0.000681047
0.000667884
0.00066777
0.000667761
0.000632121
0.000645439
0.000645434
0.000632134
0.000645448
0.000632116
0.000632109
0.000645422
0.000645412
0.000632125
0.000643375
0.00064333
0.000643342
0.000616565
0.000616635
0.000616601
0.000616689
0.000632223
0.000645454
0.00064333
0.000634398
0.000645452
0.000632164
0.000634438
0.000645421
0.000632112
0.000632202
0.000643291
0.000645418
0.000634352
0.00064542
0.000634398
0.00063215
0.000645523
0.000645516
0.000632366
0.000632153
0.000632152
0.000596555
0.000609901
0.000609863
0.000596582
0.000609854
0.000596542
0.000596576
0.000609912
0.000609875
0.0005966
0.000607707
0.000607685
0.000607761
0.000580983
0.000580935
0.000580953
0.000580939
0.000596532
0.000609796
0.00060767
0.000598702
0.000609772
0.00059652
0.000598737
0.000609881
0.000596582
0.000596557
0.000607664
0.000609819
0.000598724
0.000609785
0.000598746
0.000596554
0.000609814
0.000609819
0.000596656
0.000596461
0.000596465
0.000560914
0.00057427
0.000574262
0.000560902
0.000574277
0.000560939
0.000560924
0.000574283
0.000574282
0.000560908
0.00057202
0.00057204
0.000572004
0.000545343
0.000545309
0.000545304
0.000545248
0.000560924
0.000574187
0.00057197
0.000563063
0.000574133
0.000560928
0.000563058
0.00057431
0.000560966
0.000560938
0.000571992
0.000574218
0.000563083
0.000574154
0.000563074
0.00056095
0.000574201
0.000574204
0.000560999
0.0005609
0.000560902
0.000525225
0.000538573
0.000538576
0.000525223
0.000538596
0.00052522
0.000525234
0.000538578
0.000538584
0.000525229
0.000536415
0.000536413
0.00053636
0.000509681
0.00050972
0.000509769
0.000509746
0.000525334
0.000538584
0.000536369
0.000527478
0.000538548
0.000525288
0.000527483
0.000538625
0.000525229
0.000525336
0.000536369
0.000538596
0.000527477
0.00053855
0.000527486
0.000525297
0.000538661
0.000538666
0.000525452
0.000525307
0.00052531
0.000489554
0.000502914
0.000502899
0.000489565
0.000502891
0.000489552
0.000489516
0.000502908
0.000502885
0.000489539
0.000500807
0.000500865
0.000500863
0.000473999
0.000473992
0.000473996
0.00047404
0.000489608
0.000502875
0.00050079
0.000491803
0.000502886
0.00048957
0.000491857
0.000502824
0.000489443
0.000489583
0.000500817
0.000502837
0.000491821
0.000502879
0.000491883
0.000489503
0.000502919
0.00050291
0.000489771
0.000489511
0.000489496
0.000453848
0.000467233
0.000467215
0.000453859
0.000467245
0.000453884
0.000453802
0.00046719
0.000467158
0.000453829
0.000465032
0.000464995
0.000465042
0.000438129
0.000438127
0.000438037
0.000438064
0.000453841
0.000467166
0.000464984
0.000456004
0.00046712
0.000453854
0.000456016
0.000467144
0.000453848
0.000453787
0.000464945
0.000467085
0.000455931
0.000467073
0.000455957
0.000453791
0.000467159
0.000467146
0.0004539
0.000453791
0.000453784
0.000418046
0.000431469
0.000431456
0.000418046
0.000431489
0.00041806
0.000418098
0.00043148
0.00043147
0.000418086
0.000429162
0.00042908
0.000429096
0.000402339
0.000402344
0.000402342
0.00040233
0.000418076
0.000431417
0.000429122
0.000420192
0.000431347
0.000418077
0.000420176
0.000431567
0.000418179
0.000418119
0.000429059
0.00043146
0.000420174
0.000431345