/*--------------------------------*- C++ -*----------------------------------*\
| =========                 |                                                 |
| \\      /  F ield         | OpenFOAM: The Open Source CFD Toolbox           |
|  \\    /   O peration     | Version:  v2012                                 |
|   \\  /    A nd           | Website:  www.openfoam.com                      |
|    \\/     M anipulation  |                                                 |
\*---------------------------------------------------------------------------*/
FoamFile
{
    version     2.0;
    format      ascii;
    class       surfaceScalarField;
    location    "625";
    object      phi;
}
// * * * * * * * * * * * * * * * * * * * * * * * * * * * * * * * * * * * * * //

dimensions      [0 3 -1 0 0 0 0];
oriented        oriented;


internalField   nonuniform List<scalar> 
248808
(
-4.82259e-07
1.21326e-07
-4.576e-07
5.9659e-07
0.00118958
-1.27723e-06
8.14354e-07
3.92819e-07
0.00113714
-2.53105e-07
1.18504e-06
2.24616e-07
6.73588e-07
-3.89169e-07
-1.05399e-06
2.51615e-08
-1.14506e-06
-1.23827e-07
-5.72958e-07
0.00113968
-1.57808e-07
1.31327e-06
3.14541e-07
7.86974e-07
-2.90289e-07
-9.67256e-07
1.57669e-07
1.16568e-06
1.28624e-06
-2.73435e-07
-1.84496e-07
0.000269676
3.06937e-07
-1.85407e-07
-0.00119063
-1.50919e-07
-4.71656e-07
0.00119113
-0.00113892
-1.07579e-06
-1.6009e-07
-1.35563e-06
0.00114023
-1.23472e-07
1.3737e-06
3.32981e-07
7.99525e-07
-2.91189e-07
-9.73127e-07
1.67144e-07
-0.00114185
-1.26381e-06
2.9153e-07
-1.04781e-08
0.00114202
-3.04395e-07
1.18539e-06
1.66968e-07
8.27916e-07
-2.88879e-07
-9.38115e-07
1.6542e-07
-0.000271614
1.52511e-06
1.25291e-06
-2.47108e-07
-4.42567e-07
0.000269526
-8.13878e-08
-7.18626e-07
-0.00119278
7.44745e-07
-5.14618e-07
0.00119335
-0.00114293
-1.356e-06
4.26367e-08
4.19314e-07
0.00114278
-3.66233e-07
1.11341e-06
1.17232e-07
9.35675e-07
-1.87637e-07
-8.19921e-07
2.5081e-07
-0.00113995
-1.35243e-06
9.61444e-07
8.41467e-07
0.00113882
-3.44398e-07
1.10321e-06
1.37181e-07
8.23233e-07
-2.78169e-07
-9.16177e-07
1.58685e-07
-0.000271136
1.35811e-06
1.19215e-06
-2.12529e-07
-2.81089e-07
0.000269079
-7.48659e-07
-3.61103e-07
-0.00119416
6.98052e-07
7.84249e-07
0.00119379
-0.00113987
-1.30074e-06
5.41917e-07
7.85543e-07
0.00113877
-2.89399e-07
1.15883e-06
1.75342e-07
8.77953e-07
-2.06685e-07
-8.63067e-07
2.2538e-07
-0.00113662
-1.21894e-06
1.01285e-07
-1.32196e-07
0.0011366
-2.13749e-07
1.2279e-06
2.54607e-07
8.64802e-07
-2.11839e-07
-8.81479e-07
2.31147e-07
-0.000270946
1.07313e-06
1.28486e-06
-2.72639e-07
-8.41267e-08
0.000268945
-4.6186e-07
1.94325e-07
-0.00119129
1.7087e-08
1.10591e-06
0.00119043
-0.00113713
-1.25612e-06
-2.77259e-07
2.89754e-07
0.00113722
-2.51381e-07
1.20593e-06
2.30913e-07
8.58189e-07
-2.22017e-07
-8.71612e-07
1.97868e-07
-0.00113798
-1.17052e-06
-1.06042e-06
-2.21702e-07
0.00113867
-1.9732e-07
1.27847e-06
2.7843e-07
9.83853e-07
-1.27137e-07
-7.60939e-07
3.1119e-07
-0.000271261
1.1209e-06
1.20216e-06
-1.97e-07
-1.41851e-07
0.000269277
7.80095e-07
-2.34954e-09
-0.00118914
-1.2193e-07
-8.32427e-07
0.00118931
-0.00113887
-9.63528e-07
-6.51875e-08
-1.56923e-06
0.00113951
1.85783e-08
1.50338e-06
4.84339e-07
8.63689e-07
-2.36232e-07
-8.93233e-07
2.15666e-07
-0.00113892
-1.15851e-06
7.47813e-07
8.09964e-08
0.00113803
-1.7922e-07
1.27126e-06
2.79438e-07
8.316e-07
-2.58916e-07
-8.88761e-07
1.61783e-07
-0.000271015
1.53022e-06
1.17723e-06
-1.72004e-07
-4.07832e-07
0.000268888
2.61069e-07
1.8152e-08
-0.00119157
-6.02115e-08
-1.0518e-06
0.0011924
-0.00113909
-1.33201e-06
3.9211e-07
8.2371e-07
0.00113801
-3.68695e-07
1.07905e-06
6.7e-08
9.73389e-07
-1.0928e-07
-7.61849e-07
3.13089e-07
-0.00113436
-1.27854e-06
1.00823e-06
1.69659e-07
0.00113382
-2.76233e-07
1.13755e-06
1.76921e-07
7.56072e-07
-3.04173e-07
-9.75184e-07
1.26513e-07
-0.000270465
1.09527e-06
1.19419e-06
-2.22892e-07
-9.45623e-08
0.000268493
-1.27017e-06
4.2238e-07
-0.0011924
-3.69763e-07
2.17114e-06
0.00119144
-0.00113465
-1.39031e-06
5.9801e-08
1.14005e-06
0.00113411
-3.6401e-07
1.07106e-06
1.18023e-07
8.42405e-07
-2.36612e-07
-8.74313e-07
1.74224e-07
-0.00113633
-1.10819e-06
-1.77406e-06
-1.00696e-06
0.00113807
-1.51331e-07
1.32987e-06
3.11165e-07
1.03565e-06
-5.03737e-08
-7.07524e-07
3.82362e-07
-0.000270872
1.0008e-06
1.38492e-06
-3.25912e-07
-6.37486e-08
0.000268876
1.87847e-07
-1.67465e-07
-0.00118837
-3.82383e-08
5.59664e-07
0.00118783
-0.00113458
-1.01277e-06
2.39707e-08
-1.18932e-06
0.00113508
-2.63058e-08
1.42564e-06
4.26203e-07
8.26685e-07
-2.52754e-07
-9.05016e-07
1.77121e-07
-0.00114154
-1.14486e-06
-1.962e-07
-9.03711e-08
0.00114127
-1.72928e-07
1.31631e-06
3.09967e-07
9.47047e-07
-1.73044e-07
-7.98908e-07
2.7221e-07
-0.000270543
1.52086e-06
1.14951e-06
-1.33214e-07
-4.31586e-07
0.000268437
6.73526e-07
-6.48931e-07
-0.00118801
7.19801e-07
-1.20261e-06
0.00118847
-0.00113609
-1.18227e-06
4.39673e-08
-3.70532e-07
0.00113619
-2.08267e-07
1.23425e-06
2.30528e-07
8.95203e-07
-1.66611e-07
-8.38248e-07
2.6004e-07
-0.00113659
-1.31297e-06
1.08361e-06
1.20848e-06
0.00113471
-3.29721e-07
1.09191e-06
1.05205e-07
8.72044e-07
-2.01874e-07
-8.49366e-07
2.19226e-07
-0.000270076
1.36234e-06
9.86281e-07
-8.51362e-08
-2.98044e-07
0.000268111
5.2346e-07
-2.01792e-07
-0.00118987
6.63033e-07
-1.34222e-06
0.00119023
-0.00113646
-1.33242e-06
-6.04252e-07
6.80582e-07
0.00113667
-3.42336e-07
1.11146e-06
1.23749e-07
9.0316e-07
-1.69144e-07
-8.16808e-07
2.39599e-07
-0.00113096
-1.42526e-06
4.41944e-07
1.29626e-06
0.00113045
-4.08762e-07
9.90103e-07
4.68903e-08
7.45951e-07
-3.10862e-07
-9.54455e-07
9.18661e-08
-0.000270843
1.08435e-06
1.07273e-06
-1.61433e-07
-1.11759e-07
0.000268959
-5.91369e-08
6.37994e-07
-0.00119127
-5.90838e-07
-3.02942e-07
0.00119159
-0.0011372
-1.1443e-06
3.17928e-07
-3.0756e-07
0.00113717
-1.53379e-07
1.30946e-06
3.16067e-07
7.95993e-07
-2.98765e-07
-9.4243e-07
1.36255e-07
-0.00113127
-1.01146e-06
2.10581e-07
-1.53509e-06
0.00113232
-1.15629e-08
1.41681e-06
4.4228e-07
7.1767e-07
-3.49695e-07
-1.011e-06
8.43626e-08
-0.000271189
1.20674e-06
1.51531e-06
-4.22757e-07
-1.63716e-07
0.000269053
-1.18146e-06
1.28089e-07
-0.00119184
-4.32473e-07
1.77401e-06
0.00119155
-0.00113578
-1.21046e-06
7.01291e-07
4.76204e-08
0.00113489
-2.28776e-07
1.20993e-06
2.15616e-07
9.04411e-07
-1.76491e-07
-8.26031e-07
2.48592e-07
-0.00113631
-1.03775e-06
-6.419e-07
-1.49557e-06
0.00113735
-9.09229e-08
1.37433e-06
3.47165e-07
9.9408e-07
-9.02169e-08
-7.54704e-07
3.52557e-07
-0.000269971
1.19739e-06
1.44714e-06
-3.4392e-07
-1.92482e-07
0.000267863
-3.96357e-07
-1.65998e-07
-0.00118959
-1.11434e-07
1.47317e-06
0.00118879
-0.00113236
-1.30381e-06
1.612e-08
6.49744e-07
0.00113189
-3.09814e-07
1.11483e-06
1.37546e-07
8.9222e-07
-1.60808e-07
-8.12684e-07
2.4185e-07
-0.00113817
-1.29553e-06
-6.38463e-07
8.25215e-07
0.00113762
-3.28413e-07
1.13125e-06
1.30309e-07
1.04868e-06
-3.37981e-08
-6.72167e-07
3.82874e-07
-0.000269786
1.2398e-06
1.00634e-06
-6.12426e-08
-2.50353e-07
0.000267851
8.4999e-07
-3.75911e-07
-0.00118711
5.96649e-07
-7.66944e-07
0.0011868
-0.00113228
-1.14677e-06
-6.39366e-07
-4.18209e-07
0.001133
-1.57622e-07
1.27973e-06
2.95582e-07
8.71488e-07
-1.9093e-07
-8.43374e-07
2.2252e-07
-0.00113483
-1.28207e-06
-1.8086e-08
1.04643e-06
0.001134
-2.90526e-07
1.14008e-06
1.67574e-07
8.7566e-07
-1.95529e-07
-8.32164e-07
2.15316e-07
-0.000270344
1.35673e-06
9.3379e-07
-2.52978e-08
-3.03537e-07
0.000268382
4.32182e-07
-3.28481e-07
-0.00118633
8.27658e-07
-9.28192e-07
0.00118632
-0.00113578
-1.11515e-06
-4.72726e-07
-6.16997e-07
0.00113642
-1.41394e-07
1.31499e-06
3.108e-07
8.84992e-07
-1.92926e-07
-8.41446e-07
2.28476e-07
-0.00113276
-1.17856e-06
3.61959e-07
-7.59629e-08
0.00113267
-1.83247e-07
1.23886e-06
2.71418e-07
7.74647e-07
-2.94335e-07
-9.41883e-07
1.26248e-07
-0.000270463
1.28207e-06
1.21847e-06
-2.44202e-07
-2.26911e-07
0.000268433
-1.50745e-07
3.84713e-07
-0.00118706
-3.97248e-07
-2.85149e-07
0.0011875
-0.00113637
-1.21273e-06
4.74596e-07
1.84374e-07
0.00113578
-2.31827e-07
1.21624e-06
2.20314e-07
8.48628e-07
-2.28158e-07
-8.7529e-07
1.92253e-07
-0.00113275
-1.13452e-06
3.40718e-07
-5.29366e-07
0.00113284
-1.5906e-07
1.27226e-06
2.84139e-07
8.18245e-07
-2.50977e-07
-9.04287e-07
1.74743e-07
-0.000270258
1.12282e-06
1.3601e-06
-3.27376e-07
-1.21917e-07
0.000268224
-2.48488e-07
3.9165e-07
-0.00118878
-7.35449e-07
3.07268e-07
0.00118906
-0.00113351
-1.25881e-06
4.43099e-07
3.58186e-07
0.00113289
-2.6726e-07
1.16439e-06
1.83044e-07
8.58691e-07
-2.08522e-07
-8.58363e-07
2.06499e-07
-0.00113312
-1.20666e-06
-6.24199e-08
-1.28073e-07
0.00113318
-2.32571e-07
1.20217e-06
2.15088e-07
8.9824e-07
-1.72754e-07
-8.21084e-07
2.49189e-07
-0.000270089
1.16452e-06
1.24916e-06
-2.26945e-07
-1.68661e-07
0.000268071
7.18544e-08
8.89402e-08
-0.00118916
-1.95347e-07
2.98923e-07
0.0011889
-0.00113207
-1.21135e-06
-1.64513e-07
-1.02832e-08
0.00113209
-2.22218e-07
1.21012e-06
2.27244e-07
8.9498e-07
-1.69596e-07
-8.18987e-07
2.42905e-07
-0.00113319
-1.20352e-06
-3.04818e-07
6.59606e-08
0.00113314
-2.24937e-07
1.21031e-06
2.26277e-07
9.27966e-07
-1.41726e-07
-7.87654e-07
2.76391e-07
-0.000270017
1.26354e-06
1.12694e-06
-1.44489e-07
-2.36875e-07
0.000268008
2.46284e-07
-1.55189e-08
-0.00118754
2.42833e-07
4.09618e-09
0.00118706
-0.00113253
-1.16674e-06
-4.09144e-07
-1.50931e-07
0.00113271
-1.8641e-07
1.24983e-06
2.58728e-07
9.14844e-07
-1.49364e-07
-7.96791e-07
2.60517e-07
-0.001133
-1.18006e-06
-3.4756e-07
5.25196e-08
0.00113296
-2.05056e-07
1.22898e-06
2.42623e-07
9.20591e-07
-1.48712e-07
-7.91606e-07
2.66807e-07
-0.000270019
1.24361e-06
1.13069e-06
-1.59663e-07
-2.19475e-07
0.000268024
1.48949e-07
3.69679e-09
-0.00118595
1.92951e-07
-1.11439e-07
0.00118572
-0.00113309
-1.17398e-06
-2.66527e-07
-7.94906e-08
0.00113314
-1.91809e-07
1.24479e-06
2.55506e-07
8.98093e-07
-1.67573e-07
-8.13777e-07
2.42656e-07
-0.00113278
-1.17996e-06
-1.64007e-07
3.60543e-08
0.00113269
-2.00172e-07
1.22863e-06
2.47897e-07
8.89127e-07
-1.79176e-07
-8.21961e-07
2.36137e-07
-0.000270096
1.21097e-06
1.16652e-06
-1.87238e-07
-1.94157e-07
0.0002681
1.59764e-07
1.54111e-07
-0.00118539
-9.47763e-08
-2.09585e-07
0.00118538
-0.00113307
-1.16664e-06
-4.39282e-08
-1.13798e-07
0.001133
-1.84152e-07
1.25189e-06
2.61939e-07
8.73692e-07
-1.91058e-07
-8.39011e-07
2.2031e-07
-0.00113238
-1.16399e-06
8.50034e-09
-1.11726e-07
0.0011323
-1.85229e-07
1.24244e-06
2.6034e-07
8.64906e-07
-2.01317e-07
-8.46832e-07
2.1496e-07
-0.000270122
1.20847e-06
1.19362e-06
-2.01972e-07
-1.90221e-07
0.000268112
1.39073e-07
1.86561e-07
-0.00118549
-1.95925e-07
-1.70729e-07
0.00118553
-0.0011328
-1.18508e-06
-1.17285e-08
-9.21759e-08
0.00113275
-2.04782e-07
1.22992e-06
2.3891e-07
8.76652e-07
-1.86984e-07
-8.36495e-07
2.2482e-07
-0.00113218
-1.17603e-06
-1.31161e-08
-1.38203e-07
0.00113217
-2.00571e-07
1.22746e-06
2.42854e-07
8.7214e-07
-1.93223e-07
-8.40651e-07
2.24029e-07
-0.000270064
1.21769e-06
1.20373e-06
-2.10179e-07
-2.0014e-07
0.000268053
5.21193e-08
1.1662e-07
-0.00118553
-1.02983e-07
3.33739e-09
0.00118546
-0.0011326
-1.20841e-06
-1.0799e-07
3.52108e-08
0.00113256
-2.25605e-07
1.2079e-06
2.19881e-07
8.86866e-07
-1.76437e-07
-8.25166e-07
2.34174e-07
-0.00113221
-1.19671e-06
-1.53051e-07
-1.30238e-08
0.00113222
-2.20984e-07
1.20814e-06
2.24101e-07
8.92151e-07
-1.74147e-07
-8.20149e-07
2.42084e-07
-0.000270034
1.21424e-06
1.18975e-06
-2.01571e-07
-2.01161e-07
0.000268033
6.38623e-08
4.28109e-08
-0.00118502
4.06882e-08
4.5967e-08
0.00118482
-0.00113249
-1.19745e-06
-1.77799e-07
2.08183e-08
0.00113247
-2.14141e-07
1.21957e-06
2.32265e-07
8.90611e-07
-1.735e-07
-8.20654e-07
2.36318e-07
-0.00113218
-1.19548e-06
-1.76342e-07
5.49352e-08
0.00113214
-2.1754e-07
1.21022e-06
2.28737e-07
8.91898e-07
-1.74591e-07
-8.18438e-07
2.3986e-07
-0.000270061
1.21745e-06
1.16957e-06
-1.86119e-07
-2.02418e-07
0.000268062
1.21764e-07
1.02879e-07
-0.00118429
-2.69545e-08
-6.30625e-08
0.00118416
-0.00113239
-1.17844e-06
-1.25837e-07
-4.79546e-08
0.00113234
-1.95137e-07
1.23739e-06
2.50005e-07
8.83751e-07
-1.79815e-07
-8.26249e-07
2.29246e-07
-0.00113197
-1.17229e-06
-1.09439e-07
-5.16355e-08
0.00113192
-1.93987e-07
1.23268e-06
2.51245e-07
8.79478e-07
-1.8588e-07
-8.30246e-07
2.28488e-07
-0.000270088
1.21102e-06
1.17561e-06
-1.89304e-07
-1.94457e-07
0.000268085
1.47486e-07
1.85879e-07
-0.0011839
-1.69765e-07
-1.16922e-07
0.00118386
-0.00113218
-1.17374e-06
-6.30387e-08
-1.03044e-07
0.00113214
-1.92248e-07
1.23945e-06
2.50435e-07
8.77628e-07
-1.84299e-07
-8.32348e-07
2.24878e-07
-0.00113185
-1.16456e-06
-9.37161e-08
-1.35598e-07
0.00113184
-1.89373e-07
1.23775e-06
2.53397e-07
8.81418e-07
-1.83714e-07
-8.29002e-07
2.31357e-07
-0.000270074
1.21301e-06
1.18839e-06
-1.97992e-07
-1.9675e-07
0.000268067
1.52783e-07
1.3812e-07
-0.00118372
-1.11858e-07
-1.10132e-07
0.00118365
-0.00113208
-1.18633e-06
-1.2326e-07
-6.70017e-08
0.00113208
-2.05836e-07
1.22619e-06
2.36622e-07
8.85941e-07
-1.75833e-07
-8.24384e-07
2.33499e-07
-0.0011318
-1.18305e-06
-1.21686e-07
-4.15501e-08
0.00113178
-2.08237e-07
1.21841e-06
2.34248e-07
8.87481e-07
-1.77313e-07
-8.22488e-07
2.3718e-07
-0.000270059
1.22012e-06
1.17555e-06
-1.90692e-07
-2.04378e-07
0.000268058
1.11862e-07
7.70941e-08
-0.00118334
-8.08795e-10
-5.82452e-08
0.00118321
-0.00113211
-1.193e-06
-1.87765e-07
-9.78424e-09
0.00113211
-2.11376e-07
1.22079e-06
2.32741e-07
8.93148e-07
-1.69625e-07
-8.16562e-07
2.38756e-07
-0.0011317
-1.191e-06
-1.61346e-07
1.59643e-08
0.00113168
-2.1409e-07
1.21158e-06
2.29941e-07
8.89412e-07
-1.75073e-07
-8.19535e-07
2.38215e-07
-0.000270085
1.21259e-06
1.17358e-06
-1.90446e-07
-1.98037e-07
0.000268087
1.19015e-07
1.39797e-07
-0.00118285
-8.87017e-08
-7.90232e-08
0.00118275
-0.00113204
-1.18071e-06
-1.08733e-07
-4.58875e-08
0.001132
-1.97748e-07
1.23361e-06
2.4642e-07
8.79746e-07
-1.82264e-07
-8.28939e-07
2.256e-07
-0.00113161
-1.17258e-06
-1.12603e-07
-7.2053e-08
0.00113159
-1.95167e-07
1.23062e-06
2.4893e-07
8.78329e-07
-1.86136e-07
-8.30274e-07
2.2731e-07
-0.000270118
1.20721e-06
1.18254e-06
-1.9502e-07
-1.92675e-07
0.000268115
1.50505e-07
1.76348e-07
-0.00118257
-1.62097e-07
-1.167e-07
0.00118252
-0.0011319
-1.17709e-06
-8.24332e-08
-9.85811e-08
0.00113188
-1.96622e-07
1.2343e-06
2.44751e-07
8.79001e-07
-1.82347e-07
-8.30898e-07
2.26733e-07
-0.00113158
-1.1689e-06
-1.03586e-07
-1.17378e-07
0.00113158
-1.94317e-07
1.23151e-06
2.47018e-07
8.81772e-07
-1.82161e-07
-8.28026e-07
2.32343e-07
-0.000270107
1.21752e-06
1.18595e-06
-1.97404e-07
-2.01802e-07
0.000268102
1.18781e-07
1.03754e-07
-0.00118232
-5.6428e-08
-6.2488e-08
0.00118221
-0.00113187
-1.1931e-06
-1.65635e-07
-1.95193e-08
0.00113187
-2.12704e-07
1.21867e-06
2.29663e-07
8.91391e-07
-1.70525e-07
-8.1838e-07
2.37771e-07
-0.00113157
-1.18996e-06
-1.62054e-07
-1.21482e-09
0.00113156
-2.15136e-07
1.21107e-06
2.27564e-07
8.91459e-07
-1.73364e-07
-8.18082e-07
2.40278e-07
-0.000270113
1.21422e-06
1.17301e-06
-1.89756e-07
-2.00567e-07
0.000268117
1.16259e-07
1.0784e-07
-0.00118184
-4.23455e-08
-6.02677e-08
0.00118172
-0.00113185
-1.18927e-06
-1.55349e-07
-7.6776e-09
0.00113183
-2.06092e-07
1.22437e-06
2.38058e-07
8.85232e-07
-1.76906e-07
-8.22927e-07
2.30188e-07
-0.0011315
-1.18238e-06
-1.57032e-07
-3.70574e-09
0.00113147
-2.04879e-07
1.22028e-06
2.39183e-07
8.8719e-07
-1.78129e-07
-8.21192e-07
2.34763e-07
-0.000270163
1.20854e-06
1.17281e-06
-1.89215e-07
-1.94916e-07
0.000268166
1.7199e-07
1.39212e-07
-0.00118145
-1.00439e-07
-1.5079e-07
0.00118139
-0.00113178
-1.17079e-06
-1.0103e-07
-1.20279e-07
0.00113178
-1.89252e-07
1.2413e-06
2.52537e-07
8.78636e-07
-1.82481e-07
-8.31052e-07
2.26208e-07
-0.00113134
-1.17209e-06
-7.06387e-08
-7.68345e-08
0.0011313
-1.95436e-07
1.22786e-06
2.459e-07
8.75133e-07
-1.87309e-07
-8.33118e-07
2.25767e-07
-0.00027018
1.21812e-06
1.17808e-06
-1.91834e-07
-2.00422e-07
0.000268176
1.34646e-07
1.47128e-07
-0.00118122
-9.85462e-08
-1.08756e-07
0.00118114
-0.00113181
-1.18501e-06
-1.43743e-07
-6.26221e-08
0.00113182
-2.055e-07
1.22596e-06
2.35808e-07
8.86912e-07
-1.74716e-07
-8.22902e-07
2.3356e-07
-0.00113127
-1.17633e-06
-1.26571e-07
-9.68752e-08
0.00113131
-2.00873e-07
1.22418e-06
2.40834e-07
8.79306e-07
-1.83591e-07
-8.30102e-07
2.30133e-07
-0.000270178
1.2113e-06
1.18803e-06
-2.01647e-07
-1.97838e-07
0.000268178
5.36741e-08
1.50459e-07
-0.00118084
-1.12252e-07
2.14111e-08
0.00118073
-0.00113179
-1.19782e-06
-1.41163e-07
2.92545e-08
0.00113177
-2.16487e-07
1.21439e-06
2.26575e-07
8.85166e-07
-1.77797e-07
-8.2434e-07
2.30177e-07
-0.00113152
-1.18292e-06
-2.1282e-07
-5.07815e-08
0.00113158
-2.09407e-07
1.2181e-06
2.33232e-07
8.93738e-07
-1.73018e-07
-8.16303e-07
2.40667e-07
-0.000270215
1.20184e-06
1.18791e-06
-2.00884e-07
-1.9312e-07
0.000268219
1.13011e-07
8.82905e-08
-0.00118043
-7.52402e-08
-4.9191e-08
0.00118036
-0.00113166
-1.1824e-06
-8.35379e-08
-6.1627e-08
0.00113164
-1.98314e-07
1.23163e-06
2.45773e-07
8.74759e-07
-1.8692e-07
-8.34147e-07
2.21019e-07
-0.00113159
-1.17843e-06
-1.05417e-07
-2.73162e-08
0.00113153
-2.00555e-07
1.22527e-06
2.44135e-07
8.8187e-07
-1.83492e-07
-8.27365e-07
2.30307e-07
-0.000270249
1.22645e-06
1.16987e-06
-1.84547e-07
-2.08818e-07
0.000268246
2.06357e-07
1.05924e-07
-0.00118016
-5.83868e-08
-1.97925e-07
0.00118011
-0.00113162
-1.17312e-06
-1.22229e-07
-1.25572e-07
0.00113164
-1.92999e-07
1.23759e-06
2.47677e-07
8.82754e-07
-1.77827e-07
-8.27521e-07
2.30791e-07
-0.00113127
-1.17762e-06
-5.61654e-08
-3.9462e-08
0.0011312
-2.02123e-07
1.22157e-06
2.38249e-07
8.7655e-07
-1.85755e-07
-8.32748e-07
2.27651e-07
-0.000270241
1.22436e-06
1.16894e-06
-1.86079e-07
-2.04595e-07
0.000268238
1.5995e-07
1.46881e-07
-0.00117995
-8.32217e-08
-1.62109e-07
0.00117989
-0.00113175
-1.19357e-06
-1.61785e-07
-2.39594e-08
0.00113178
-2.14437e-07
1.21727e-06
2.2677e-07
8.86106e-07
-1.767e-07
-8.23991e-07
2.31521e-07
-0.00113112
-1.1909e-06
-1.15017e-07
-1.72408e-08
0.00113114
-2.15268e-07
1.20884e-06
2.26216e-07
8.77978e-07
-1.86424e-07
-8.31429e-07
2.26892e-07
-0.00027026
1.20906e-06
1.18763e-06
-2.05167e-07
-1.978e-07
0.000268266
2.45041e-08
1.03154e-07
-0.00117962
-5.81989e-08
3.12021e-08
0.00117952
-0.00113181
-1.2058e-06
-1.75776e-07
7.737e-08
0.00113179
-2.22781e-07
1.20798e-06
2.21908e-07
8.85905e-07
-1.77749e-07
-8.23519e-07
2.29295e-07
-0.00113129
-1.19238e-06
-2.12644e-07
4.45149e-09
0.00113135
-2.15309e-07
1.20996e-06
2.29305e-07
8.86103e-07
-1.79283e-07
-8.22368e-07
2.32608e-07
-0.000270355
1.19484e-06
1.18104e-06
-1.96893e-07
-1.87601e-07
0.000268364
8.38681e-08
1.46557e-07
-0.0011793
-1.43878e-07
-3.14156e-08
0.00117925
-0.0011317
-1.15912e-06
4.09996e-08
-2.04389e-07
0.00113168
-1.74853e-07
1.25673e-06
2.69276e-07
8.5472e-07
-2.06088e-07
-8.55662e-07
2.03556e-07
-0.00113149
-1.14619e-06
-1.71682e-08
-2.68931e-07
0.00113154
-1.69046e-07
1.25923e-06
2.74585e-07
8.60937e-07
-2.02767e-07
-8.51264e-07
2.13928e-07
-0.00027037
1.23925e-06
1.2108e-06
-2.11839e-07
-2.16643e-07
0.000268349
9.74953e-08
7.84884e-08
-0.00117906
-6.16542e-08
-4.09575e-08
0.00117898
-0.00113165
-1.19233e-06
-1.61099e-07
-4.49822e-08
0.00113167
-2.14723e-07
1.21471e-06
2.22792e-07
8.96135e-07
-1.63048e-07
-8.15281e-07
2.44534e-07
-0.00113157
-1.19595e-06
-1.76738e-07
2.5564e-08
0.00113154
-2.2495e-07
1.20133e-06
2.14561e-07
9.04439e-07
-1.59963e-07
-8.05917e-07
2.51562e-07
-0.000270249
1.22153e-06
1.17089e-06
-1.8928e-07
-2.06875e-07
0.000268253
2.73948e-07
1.39505e-07
-0.00117885
-9.98202e-08
-2.7083e-07
0.0011788
-0.00113162
-1.2162e-06
-1.19335e-07
1.45754e-07
0.00113159
-2.33198e-07
1.19736e-06
2.10573e-07
8.70876e-07
-1.93957e-07
-8.35097e-07
2.08736e-07
-0.00113126
-1.20777e-06
-9.10311e-08
1.90774e-07
0.00113113
-2.28432e-07
1.19238e-06
2.12241e-07
8.71878e-07
-1.91994e-07
-8.33469e-07
2.17553e-07
-0.000270399
1.20797e-06
1.14498e-06
-1.75779e-07
-2.01003e-07
0.000268423
9.17715e-08
-2.51788e-08
-0.00117853
1.53933e-07
-8.15458e-08
0.00117839
-0.00113168
-1.18855e-06
-3.19708e-07
-5.87463e-08
0.00113179
-2.03434e-07
1.22255e-06
2.37444e-07
9.04688e-07
-1.5558e-07
-8.03265e-07
2.48282e-07
-0.00113088
-1.21714e-06
-9.07868e-08
7.67534e-08
0.00113091
-2.33496e-07
1.18472e-06
2.11373e-07
8.62128e-07
-1.97172e-07
-8.42913e-07
2.0806e-07
-0.000270543
1.20895e-06
1.17455e-06
-1.89028e-07
-1.88684e-07
0.000268538
-2.56182e-07
3.0966e-07
-0.00117801
-3.53755e-07
3.15953e-07
0.00117799
-0.00113195
-1.13383e-06
2.60023e-07
-3.05497e-07
0.00113187
-1.46707e-07
1.28465e-06
2.95855e-07
7.99207e-07
-2.33404e-07
-8.91414e-07
1.49632e-07
-0.00113153
-1.0465e-06
-1.58889e-07
-7.89233e-07
0.0011318
-6.93757e-08
1.36364e-06
3.70096e-07
8.65806e-07
-1.84412e-07
-8.32533e-07
2.13259e-07
-0.000270447
1.19252e-06
1.29482e-06
-2.69182e-07
-1.73221e-07
0.000268402
7.89297e-07
1.51318e-07
-0.0011785
-3.50798e-07
-8.36482e-07
0.00117874
-0.00113165
-1.12415e-06
4.49376e-08
-4.79573e-07
0.00113173
-1.63305e-07
1.25787e-06
2.40548e-07
8.83404e-07
-1.56617e-07
-8.22814e-07
2.34651e-07
-0.00113185
-1.19626e-06
3.24253e-07
9.21998e-08
0.00113157
-2.44663e-07
1.15527e-06
1.47531e-07
8.35401e-07
-1.78553e-07
-8.46655e-07
1.98204e-07
-0.000270158
1.37662e-06
1.12265e-06
-1.45896e-07
-3.25634e-07
0.000268131
4.84443e-07
7.35476e-07
-0.00117869
-2.51514e-07
-4.39606e-07
0.00117816
-0.00113233
-1.38914e-06
-1.74177e-06
1.10806e-06
0.00113268
-4.049e-07
1.07635e-06
3.21777e-08
1.13172e-06
3.28134e-08
-5.9683e-07
3.95672e-07
-0.00113108
-1.33134e-06
-1.59861e-06
6.71299e-07
0.00113161
-3.43024e-07
1.13905e-06
1.11643e-07
1.09749e-06
-4.9577e-09
-6.39188e-07
3.73388e-07
-0.000270591
9.0833e-07
1.04889e-06
-1.03417e-07
5.40998e-08
0.000268684
5.29939e-06
5.50193e-06
-0.0011633
-1.20468e-05
-1.04038e-05
0.000283271
0.000285119
0.000285015
0.000285024
4.33909e-06
6.6165e-06
7.02417e-06
4.55378e-06
6.7872e-06
7.20388e-06
-0.000280527
5.489e-06
-5.32548e-06
5.83178e-06
-3.48539e-06
0.000278017
-0.00028091
-5.5725e-06
5.60159e-06
-3.6171e-06
6.04288e-06
0.000278455
-0.000272085
-5.48279e-06
-5.32487e-06
5.73019e-06
5.81658e-06
0.000271346
1.17396e-06
1.27135e-06
-2.622e-07
-1.90041e-07
0.000269392
-1.12464e-06
-1.24958e-06
0.000271743
-0.00026968
2.24502e-07
8.71919e-08
-7.39189e-07
0.00113866
-1.64229e-07
1.34357e-06
3.00603e-07
7.76972e-07
-2.93762e-07
-9.74618e-07
1.4343e-07
-1.3571e-06
8.86841e-07
4.69208e-07
0.00113647
-3.14558e-07
1.16902e-06
1.66562e-07
7.1235e-07
-3.55936e-07
-1.03048e-06
6.84188e-08
0.00114005
-1.7932e-07
-0.00113957
3.68181e-07
-1.38668e-06
7.31247e-08
-3.97463e-07
-8.98111e-07
1.99786e-07
-2.40746e-07
8.59328e-07
1.27783e-06
0.00113825
-3.36791e-07
-0.00113715
-4.70605e-07
-1.26318e-06
2.42542e-07
-2.43153e-07
-9.73046e-07
1.59223e-07
-2.91584e-07
8.00107e-07
-2.66705e-07
-3.13842e-07
0.000268875
-1.38658e-06
0.000271463
-0.000269284
2.91716e-07
1.93941e-07
1.76889e-07
0.00113958
-2.75953e-07
1.18372e-06
2.00426e-07
8.10643e-07
-2.64749e-07
-9.37354e-07
1.67971e-07
-1.21623e-06
-2.61194e-08
-5.74901e-07
0.00113905
-2.09731e-07
1.30564e-06
2.66199e-07
8.23603e-07
-2.54327e-07
-9.40617e-07
1.97767e-07
0.00114137
-2.76378e-08
-0.00114073
-2.09558e-07
-1.21606e-06
2.44041e-07
-2.45115e-07
-9.83983e-07
1.10448e-07
-3.32702e-07
7.74552e-07
1.13412e-06
0.00114125
-3.88516e-07
-0.00114065
3.50907e-07
-1.39351e-06
9.73857e-08
-3.92182e-07
-8.79592e-07
2.14704e-07
-2.31596e-07
8.85749e-07
3.45664e-07
-7.15588e-07
0.00113997
-1.72743e-07
1.34239e-06
2.85513e-07
8.09923e-07
-2.6737e-07
1.77073e-07
-9.49135e-07
1.31824e-07
-0.00113788
-1.2194e-06
-1.07369e-06
3.64124e-07
-9.78922e-08
-1.03325e-06
1.06535e-07
7.32973e-07
-3.43675e-07
1.03705e-06
0.00113984
2.33557e-07
-0.00114008
1.02247e-06
-1.46443e-06
-4.16804e-09
-4.67132e-07
-9.0337e-07
1.83116e-07
-2.51076e-07
8.49565e-07
-1.80789e-07
-2.3008e-07
0.000269466
-1.24231e-06
0.00027194
-0.000269886
2.0711e-07
1.15461e-07
-4.09714e-07
2.10803e-07
0.00114106
-2.94074e-07
1.16617e-06
1.78875e-07
8.67734e-07
-2.19673e-07
2.19743e-07
-8.83072e-07
7.1714e-08
-0.0011413
-3.57776e-07
-1.2061e-06
2.16532e-07
-2.53331e-07
-9.50511e-07
1.59712e-07
8.14299e-07
-2.94027e-07
1.1812e-06
0.00114153
3.4038e-07
-0.00114156
4.21002e-07
-1.28426e-06
1.89214e-07
-2.98633e-07
-9.9307e-07
8.15016e-08
-3.55676e-07
7.54723e-07
-0.000269643
2.0442e-07
4.29608e-08
1.45314e-06
1.20116e-06
-2.27777e-07
-4.03308e-07
0.00026972
-1.12112e-06
-1.2506e-06
0.00027159
-0.000269604
2.30486e-07
1.55782e-07
7.61791e-07
0.00114043
-4.48276e-07
1.07139e-06
3.44418e-08
8.73624e-07
-2.35166e-07
-8.83728e-07
2.05855e-07
-1.24713e-06
-6.71071e-07
-6.44916e-07
0.00113965
-2.4404e-07
1.29115e-06
2.42483e-07
8.52062e-07
-2.53905e-07
-9.25318e-07
2.03198e-07
0.00114076
-1.35116e-07
-0.00114081
8.83004e-07
-1.43773e-06
1.20017e-07
-3.90438e-07
-8.98857e-07
1.84753e-07
-2.58486e-07
8.56293e-07
1.22475e-06
0.00114272
-4.14948e-07
-0.00114214
-3.4916e-08
-1.32729e-06
1.8447e-07
-3.15753e-07
-8.51384e-07
2.39696e-07
-2.1149e-07
9.23711e-07
-1.7349e-07
-2.61367e-07
0.000269574
-1.16233e-06
0.000272057
-0.000270034
1.60536e-07
2.03619e-07
-3.33774e-07
0.00114188
-2.27178e-07
1.26733e-06
2.62677e-07
7.69414e-07
-3.46712e-07
-9.94795e-07
1.0287e-07
-1.43837e-06
-2.26427e-07
7.09652e-07
0.00114151
-4.24346e-07
1.09867e-06
7.20712e-08
8.81857e-07
-2.46876e-07
-8.83386e-07
1.99703e-07
0.00114216
6.65449e-07
-0.00114231
-2.99798e-07
-1.21423e-06
2.52887e-07
-2.30606e-07
-9.51955e-07
1.59581e-07
-3.01929e-07
8.22148e-07
1.12996e-06
0.00113983
5.9651e-07
-0.00114074
1.10659e-06
-1.4174e-06
1.32078e-07
-3.74638e-07
-9.28792e-07
1.43628e-07
-2.96425e-07
8.23401e-07
1.6071e-07
1.38781e-06
0.0011395
-5.07572e-07
9.90832e-07
-2.75656e-08
8.5073e-07
-2.58935e-07
1.7572e-07
-9.0062e-07
-2.22932e-07
-0.00114247
-1.20168e-07
-1.29776e-06
1.45885e-07
-3.29686e-07
-8.23554e-07
2.64405e-07
9.42328e-07
-1.80909e-07
1.10414e-06
0.00113852
5.5268e-08
-0.00113879
9.73784e-07
-1.43375e-06
1.20809e-07
-3.79177e-07
-9.07848e-07
1.7042e-07
-2.66884e-07
8.39239e-07
-2.72984e-07
-3.66009e-07
0.000269877
-1.08883e-06
0.000271201
-0.000269308
1.44717e-07
1.81787e-07
6.57645e-07
2.49177e-07
0.00114131
-2.64435e-07
1.21513e-06
2.24272e-07
7.32675e-07
-3.83203e-07
6.16055e-08
-1.02053e-06
8.71912e-07
-0.00114099
8.78596e-07
-1.36679e-06
1.09943e-07
-3.71091e-07
-9.0994e-07
1.67286e-07
8.38367e-07
-2.72725e-07
1.27263e-06
0.00113991
1.02636e-06
-0.00114045
-2.64396e-07
-1.17619e-06
2.77794e-07
-1.92673e-07
-9.82596e-07
1.29138e-07
-3.25305e-07
7.76937e-07
-0.000269166
2.54136e-07
1.53032e-07
1.3777e-06
1.23581e-06
-2.32009e-07
-2.85669e-07
0.000269494
-1.36968e-06
-1.15459e-06
0.000271016
-0.00026905
1.98439e-07
3.59799e-07
6.61705e-07
0.00114051
-3.24033e-07
1.18358e-06
1.87499e-07
8.44057e-07
-2.66458e-07
-9.11442e-07
1.76822e-07
-1.34951e-06
-4.18257e-08
3.14826e-07
0.00114268
-3.23295e-07
1.20827e-06
1.8297e-07
9.10885e-07
-2.23492e-07
-8.58235e-07
2.24044e-07
0.00113855
7.05702e-07
-0.00113935
-1.74315e-07
-1.17349e-06
3.60445e-07
-1.28891e-07
-9.1389e-07
1.78717e-07
-2.58712e-07
8.35348e-07
1.30409e-06
0.00113984
8.45178e-07
-0.00114103
3.02715e-07
-1.25369e-06
2.99993e-07
-1.99578e-07
-9.01512e-07
1.88242e-07
-2.49897e-07
8.53145e-07
-3.12789e-07
-2.64898e-07
0.00026993
-1.14655e-06
0.000271105
-0.000269177
2.16662e-07
3.06335e-07
-1.39099e-07
0.00114173
-2.47301e-07
1.22519e-06
2.33824e-07
8.56156e-07
-2.63286e-07
-9.15937e-07
1.95828e-07
-1.36175e-06
8.18686e-07
8.74544e-07
0.00113877
-3.12204e-07
1.18473e-06
1.94766e-07
7.9462e-07
-3.12537e-07
-9.50352e-07
1.24375e-07
0.00113928
5.62967e-07
-0.00114019
4.35617e-07
-1.29589e-06
1.74988e-07
-2.9621e-07
-8.31026e-07
2.65418e-07
-1.75512e-07
9.21632e-07
1.37307e-06
0.00113656
8.01301e-07
-0.00113699
-4.64514e-07
-1.16126e-06
3.72988e-07
-1.18095e-07
-9.74404e-07
1.31683e-07
-3.06256e-07
7.72659e-07
1.66924e-07
5.62858e-07
0.00113828
-2.97131e-07
1.18034e-06
2.0141e-07
8.22093e-07
-2.74949e-07
1.5874e-07
-9.22739e-07
6.47638e-07
-0.00114105
8.24552e-07
-1.3235e-06
1.71117e-07
-3.03959e-07
-8.65362e-07
2.18156e-07
8.7826e-07
-2.16462e-07
1.39807e-06
0.00113765
5.98464e-07
-0.0011378
-6.42171e-07
-1.13336e-06
3.94589e-07
-8.93445e-08
-9.69647e-07
1.27045e-07
-3.06171e-07
7.75436e-07
-2.98189e-07
-2.63085e-07
0.000269048
-1.19495e-06
0.00027067
-0.000268648
2.15091e-07
3.30771e-07
9.79224e-07
-2.50267e-07
0.00113935
-2.07568e-07
1.24694e-06
2.54409e-07
8.04735e-07
-2.88221e-07
1.61242e-07
-9.49845e-07
5.26309e-07
-0.00113701
7.66545e-08
-1.25168e-06
2.3098e-07
-2.3863e-07
-9.12964e-07
1.89296e-07
8.27334e-07
-2.49475e-07
1.14898e-06
0.00113807
4.48092e-07
-0.00113835
7.65691e-08
-1.29305e-06
1.73847e-07
-2.93915e-07
-8.73057e-07
2.27527e-07
-2.09514e-07
8.70222e-07
-0.000268932
1.69815e-07
3.63879e-07
1.1391e-06
1.31053e-06
-2.55992e-07
-1.02754e-07
0.000268925
-1.31276e-06
-1.11027e-06
0.000270662
-0.000268668
1.61739e-07
2.67167e-07
-3.29195e-07
0.00113774
-1.06441e-07
1.39154e-06
3.71007e-07
8.38995e-07
-2.48928e-07
-9.04472e-07
1.83422e-07
-1.20505e-06
8.83978e-07
8.12243e-08
0.00113871
-1.60147e-07
1.34356e-06
3.28826e-07
8.40209e-07
-2.52478e-07
-9.08745e-07
1.80987e-07
0.00113593
5.92146e-07
-0.00113641
-1.78006e-07
-1.1886e-06
2.76083e-07
-1.83791e-07
-9.03001e-07
1.75187e-07
-2.47634e-07
8.28118e-07
1.34214e-06
0.00113684
6.14224e-07
-0.00113716
-3.74544e-07
-1.1782e-06
3.00799e-07
-1.68953e-07
-9.31251e-07
1.68336e-07
-2.6411e-07
8.15611e-07
-2.35261e-07
-1.44604e-07
0.000268979
-1.15535e-06
0.00027079
-0.000268755
1.89296e-07
2.73279e-07
6.05485e-07
0.00113842
-3.13057e-07
1.13579e-06
1.53558e-07
9.28912e-07
-1.61136e-07
-8.16703e-07
2.73901e-07
-1.10423e-06
5.33003e-07
-8.83425e-07
0.0011365
-7.09313e-08
1.42787e-06
4.14564e-07
8.01396e-07
-2.76314e-07
-9.49575e-07
1.65971e-07
0.00113681
-1.53723e-07
-0.00113716
8.16201e-07
-1.33065e-06
1.31276e-07
-3.40833e-07
-8.33616e-07
2.37727e-07
-1.83069e-07
8.99001e-07
1.43254e-06
0.00113768
-1.83048e-07
-0.00113714
-1.15829e-06
-1.08078e-06
3.72905e-07
-9.53051e-08
-8.38481e-07
2.70257e-07
-1.7608e-07
9.19055e-07
4.9713e-07
-9.90664e-07
0.00113766
-4.051e-08
1.45436e-06
4.36102e-07
7.96752e-07
-2.85886e-07
1.53132e-07
-9.52461e-07
-1.44261e-07
-0.00113734
5.75119e-07