/*--------------------------------*- C++ -*----------------------------------*\
| =========                 |                                                 |
| \\      /  F ield         | OpenFOAM: The Open Source CFD Toolbox           |
|  \\    /   O peration     | Version:  v2012                                 |
|   \\  /    A nd           | Website:  www.openfoam.com                      |
|    \\/     M anipulation  |                                                 |
\*---------------------------------------------------------------------------*/
FoamFile
{
    version     2.0;
    format      ascii;
    class       volVectorField;
    location    "625";
    object      U;
}
// * * * * * * * * * * * * * * * * * * * * * * * * * * * * * * * * * * * * * //

dimensions      [0 1 -1 0 0 0 0];


internalField   nonuniform List<vector> 
85864
(
(-2.7293e-05 5.26612e-05 0.112998)
(-6.93634e-05 1.84629e-05 0.107966)
(-4.86865e-05 -1.25981e-05 0.108196)
(-6.66945e-05 -1.61946e-05 0.104797)
(-7.75903e-06 -4.63594e-05 0.113133)
(-1.31105e-05 -9.38456e-05 0.108189)
(1.41107e-05 -3.79161e-05 0.10846)
(-5.20926e-05 -0.000131782 0.10475)
(7.87311e-05 -1.52307e-05 0.113342)
(-1.45507e-05 6.21518e-05 0.108516)
(7.18336e-05 -5.31366e-05 0.108207)
(-3.02731e-05 -7.40145e-05 0.104574)
(6.68491e-05 9.30348e-05 0.113437)
(-2.1869e-05 5.43944e-05 0.108162)
(-7.75597e-06 4.26598e-06 0.107934)
(-6.69994e-05 1.86435e-05 0.104516)
(-1.22332e-05 7.50491e-05 0.113129)
(2.09953e-05 1.36937e-05 0.107956)
(-1.89318e-05 6.74363e-05 0.108108)
(-3.43655e-05 2.58465e-06 0.104639)
(-1.48037e-05 -8.68421e-05 0.112969)
(-7.54857e-06 -0.00012545 0.108159)
(-2.01859e-06 -4.95877e-05 0.108131)
(-1.98546e-05 -0.000122873 0.104519)
(1.49609e-05 -5.04623e-05 0.113244)
(4.08858e-06 7.46281e-05 0.1081)
(1.62919e-05 -5.35616e-05 0.107688)
(-3.50216e-05 7.24752e-06 0.104341)
(-3.31675e-05 0.000175156 0.11324)
(1.15874e-05 8.2901e-05 0.107689)
(-6.19604e-05 0.000110568 0.107997)
(-9.49954e-05 4.34603e-05 0.104494)
(-3.51844e-06 7.92002e-06 0.112863)
(-1.40348e-05 -9.50254e-05 0.10774)
(-8.3869e-06 -3.08306e-06 0.108418)
(-7.7847e-06 -0.000124635 0.104348)
(7.60477e-05 -9.04126e-05 0.112881)
(-9.02147e-07 -1.87676e-05 0.107866)
(7.89211e-05 -3.19817e-05 0.107846)
(2.99862e-05 -8.00919e-05 0.104201)
(4.08257e-05 -8.55116e-05 0.113056)
(3.6073e-05 5.30566e-05 0.107903)
(9.78369e-05 -2.31474e-05 0.107373)
(-3.63243e-06 9.23639e-06 0.104508)
(-6.57114e-05 -1.03294e-05 0.113188)
(-3.69296e-05 -2.97782e-05 0.107968)
(-0.000112455 -4.23649e-05 0.107478)
(-0.000130557 -1.51732e-05 0.104587)
(-2.04525e-05 0.000154669 0.113216)
(-2.33708e-05 1.21229e-05 0.107791)
(-9.15004e-05 3.64546e-05 0.10797)
(-0.000104962 -1.65906e-05 0.104126)
(8.04035e-06 8.7248e-05 0.112972)
(2.23354e-05 5.08849e-05 0.107477)
(6.29426e-05 6.05244e-05 0.108073)
(2.65539e-05 -4.41211e-05 0.104096)
(4.9915e-05 -8.87475e-05 0.112759)
(3.2993e-05 -3.69272e-05 0.107526)
(5.62388e-05 1.34574e-05 0.107729)
(5.25395e-05 -7.67358e-05 0.104306)
(5.04931e-05 -7.15945e-05 0.112699)
(1.33272e-05 -4.74291e-05 0.107867)
(-1.31674e-05 -2.93003e-05 0.107571)
(-4.15574e-05 -4.62177e-05 0.104335)
(-4.16218e-05 -2.72685e-06 0.112791)
(-2.89397e-05 1.16181e-05 0.107863)
(-3.5557e-05 -2.43279e-05 0.10758)
(-8.72014e-05 6.02178e-06 0.104255)
(-5.1306e-05 3.75385e-05 0.11295)
(-1.21311e-05 2.76523e-05 0.107581)
(-2.64749e-07 1.04683e-05 0.107615)
(-4.82895e-05 -1.03774e-05 0.104195)
(-8.32831e-06 1.19949e-05 0.112962)
(2.01585e-05 2.83735e-06 0.107476)
(5.0153e-06 2.68171e-05 0.107616)
(-6.85532e-06 -4.34775e-05 0.10417)
(1.06928e-05 -1.81668e-05 0.112793)
(2.87644e-05 -1.43898e-05 0.10753)
(-2.12831e-06 2.83815e-05 0.107598)
(-1.05529e-05 -3.68907e-05 0.104175)
(5.09827e-06 -1.72469e-05 0.112653)
(1.79752e-05 -1.06257e-05 0.107578)
(-3.62949e-06 1.40055e-05 0.107575)
(-2.33955e-05 -2.58932e-05 0.104205)
(-1.43105e-05 -1.85364e-05 0.112612)
(4.4644e-06 -1.39313e-05 0.107569)
(-1.33301e-05 1.92365e-06 0.107537)
(-3.09731e-05 -2.38616e-05 0.104213)
(-1.92091e-05 -1.46765e-05 0.112624)
(5.49311e-06 -7.84879e-06 0.107545)
(-1.06239e-05 4.65601e-06 0.107521)
(-3.40902e-05 -2.72773e-05 0.104191)
(-1.07632e-05 -2.05762e-06 0.112624)
(1.19061e-05 3.22795e-06 0.107527)
(-7.92609e-09 1.41991e-05 0.107526)
(-3.02424e-05 -2.71591e-05 0.104182)
(-1.0433e-06 -2.07859e-06 0.112568)
(1.48296e-05 -1.74487e-07 0.107517)
(2.19876e-06 1.47062e-05 0.107521)
(-2.35921e-05 -2.82962e-05 0.104193)
(-7.68532e-06 -1.06257e-05 0.112501)
(1.07125e-05 -7.73164e-06 0.107506)
(-8.3087e-06 9.51646e-06 0.107499)
(-2.4959e-05 -2.54034e-05 0.104203)
(-1.8519e-05 -1.40318e-05 0.112469)
(7.68326e-06 -1.11008e-05 0.107486)
(-1.31986e-05 9.61423e-06 0.10749)
(-2.8913e-05 -2.56844e-05 0.104197)
(-1.30552e-05 -1.37838e-05 0.112452)
(1.21754e-05 -6.35597e-06 0.107478)
(-4.70229e-06 1.21773e-05 0.107485)
(-2.51573e-05 -2.87253e-05 0.104194)
(-5.08289e-06 -9.77566e-06 0.112412)
(1.58742e-05 -2.33e-06 0.107482)
(-6.12177e-07 1.44407e-05 0.107476)
(-2.48819e-05 -2.63667e-05 0.104204)
(-1.25615e-05 -1.09919e-05 0.112366)
(9.5318e-06 -7.18655e-06 0.107473)
(-8.92538e-06 9.52424e-06 0.107467)
(-2.7266e-05 -2.40083e-05 0.104217)
(-1.77673e-05 -1.41359e-05 0.112343)
(8.91294e-06 -9.96816e-06 0.107461)
(-1.12974e-05 1.01557e-05 0.107465)
(-2.82415e-05 -2.74396e-05 0.104213)
(-8.9324e-06 -1.01238e-05 0.112316)
(1.49682e-05 -2.67738e-06 0.107459)
(-1.3766e-06 1.47299e-05 0.107464)
(-2.45559e-05 -2.69891e-05 0.104217)
(-8.81704e-06 -1.02713e-05 0.11227)
(1.28466e-05 -3.50541e-06 0.107457)
(-3.59595e-06 1.35584e-05 0.107456)
(-2.43949e-05 -2.48048e-05 0.104236)
(-1.30803e-05 -1.69125e-05 0.112236)
(9.05776e-06 -1.25629e-05 0.10745)
(-9.15471e-06 7.44208e-06 0.10744)
(-2.56617e-05 -2.73587e-05 0.104242)
(-1.33826e-05 -1.33482e-05 0.112214)
(1.31609e-05 -6.55983e-06 0.107454)
(-9.1757e-06 1.10671e-05 0.107438)
(-2.92485e-05 -2.56836e-05 0.104242)
(-1.48646e-05 -3.21603e-06 0.112176)
(1.24844e-05 1.85332e-07 0.107451)
(-4.89151e-06 1.69281e-05 0.107463)
(-2.96108e-05 -2.29079e-05 0.104257)
(-8.98611e-06 -9.21276e-06 0.112139)
(7.4791e-06 -7.51332e-06 0.107438)
(-5.66447e-06 9.39527e-06 0.107465)
(-2.2822e-05 -3.06399e-05 0.10427)
(-8.81549e-06 -2.08587e-05 0.112115)
(1.11434e-05 -1.19803e-05 0.107437)
(-6.18148e-06 7.72301e-06 0.107433)
(-2.25761e-05 -2.93393e-05 0.104267)
(-1.30108e-05 -1.74765e-05 0.112096)
(1.3501e-05 -3.12551e-06 0.10745)
(-2.52441e-06 1.06495e-05 0.107423)
(-3.01132e-05 -2.55271e-05 0.104276)
(-9.9871e-06 -1.23971e-06 0.112063)
(1.40999e-05 3.68963e-06 0.107454)
(-1.35224e-06 1.58147e-05 0.107442)
(-2.76935e-05 -2.06165e-05 0.104313)
(-1.49434e-05 -6.3458e-06 0.112036)
(-2.88003e-06 -1.94312e-05 0.107444)
(-2.35695e-05 8.22193e-08 0.107461)
(-3.49025e-05 -3.37832e-05 0.104314)
(-8.24886e-06 -8.3414e-06 0.112014)
(1.67097e-05 -3.15916e-06 0.107442)
(1.97168e-06 1.8654e-05 0.107466)
(-2.4191e-05 -2.93749e-05 0.104273)
(-1.28451e-05 -2.77801e-05 0.111999)
(8.80151e-06 8.72244e-06 0.107438)
(9.74989e-06 9.22184e-06 0.107433)
(-1.72953e-05 -2.69799e-05 0.104334)
(7.13809e-06 -1.09682e-05 0.111967)
(2.4016e-05 -5.75634e-06 0.107452)
(7.02826e-06 4.89538e-06 0.107405)
(-2.41132e-05 -2.39453e-05 0.104383)
(-3.58207e-05 2.66217e-05 0.111927)
(-2.48675e-05 -2.98047e-05 0.107472)
(-6.76877e-05 7.45101e-06 0.107483)
(-6.12978e-05 -1.45025e-05 0.104342)
(-2.54144e-05 -7.84927e-05 0.112002)
(6.15607e-06 -3.30846e-05 0.107452)
(1.09786e-05 -1.91455e-05 0.107489)
(-6.78641e-06 -8.05789e-05 0.104243)
(2.94015e-05 2.28437e-05 0.112012)
(6.89832e-05 0.000137336 0.107492)
(0.000102009 5.96578e-05 0.10741)
(-8.24709e-06 5.03531e-05 0.104439)
(-7.09442e-05 5.63052e-05 0.111887)
(4.54012e-05 -8.13063e-05 0.107688)
(-0.000124461 0.000120012 0.107842)
(2.24414e-05 7.63659e-05 0.104967)
(1.85507e-05 6.11048e-05 0.104686)
(1.31611e-05 -4.6168e-05 0.104974)
(-5.26232e-05 3.86397e-05 0.108164)
(-3.31159e-05 6.13524e-05 0.107939)
(4.59217e-05 -5.04977e-06 0.108293)
(2.81012e-05 -4.82675e-06 0.108038)
(-7.31305e-05 5.87368e-05 0.104492)
(3.30249e-05 -8.25573e-05 0.104824)
(6.21078e-06 1.25624e-05 0.108144)
(5.76578e-06 3.95126e-05 0.108172)
(2.59629e-05 -1.34696e-05 0.108306)
(-1.11236e-05 -4.67273e-05 0.108395)
(-3.21685e-05 5.02724e-05 0.108303)
(-3.29271e-05 -9.36014e-05 0.108071)
(-1.6877e-05 -9.36104e-05 0.108318)
(2.35798e-05 -3.58066e-05 0.104711)
(-4.17526e-05 -8.30558e-06 0.105063)
(-2.18506e-05 1.38972e-05 0.108294)
(-1.70541e-05 -2.98965e-05 0.108423)
(-3.18827e-05 -4.89947e-05 0.108365)
(3.29195e-05 -3.428e-05 0.104944)
(0.000112745 4.20395e-05 0.104807)
(-2.72009e-06 -5.20403e-05 0.104932)
(7.5453e-05 -1.0767e-05 0.108335)
(3.50586e-05 -2.21412e-05 0.108163)
(7.98258e-05 1.29844e-05 0.108388)
(-2.42246e-05 2.37298e-06 0.10851)
(-5.18951e-05 8.03418e-06 0.10472)
(2.71863e-05 -1.52008e-05 0.1051)
(4.10044e-05 -2.12386e-05 0.108363)
(7.13598e-07 -7.45345e-05 0.108439)
(5.55956e-05 -7.34963e-06 0.108423)
(4.87571e-05 -8.98796e-05 0.108331)
(-1.1557e-05 -0.000120234 0.108289)
(-5.1026e-07 2.39306e-05 0.108501)
(-1.35496e-05 -8.34323e-05 0.108189)
(5.95875e-05 -0.000104161 0.104884)
(-8.40646e-06 1.41124e-05 0.104801)
(-1.63856e-05 -6.68546e-05 0.108353)
(7.84369e-05 -5.21117e-05 0.108314)
(1.73347e-05 -7.14371e-05 0.108232)
(6.30201e-05 3.39223e-07 0.104755)
(7.71701e-05 4.40832e-05 0.104733)
(-9.21691e-05 -2.70148e-05 0.104701)
(5.87549e-05 2.85812e-05 0.108374)
(-4.64363e-05 2.42055e-05 0.108536)
(-2.25295e-05 4.9266e-05 0.10821)
(-1.42778e-05 4.97535e-05 0.108307)
(-6.57384e-05 8.32913e-05 0.104898)
(7.11734e-05 -3.05498e-05 0.104733)
(4.96292e-05 7.24628e-06 0.108395)
(6.01844e-05 -6.42732e-05 0.108233)
(1.50715e-05 4.28314e-05 0.108178)
(5.61589e-05 4.24672e-05 0.107981)
(-2.53677e-05 -4.9611e-05 0.108166)
(-3.18887e-05 6.26556e-05 0.108275)
(-5.69225e-05 5.29732e-05 0.108098)
(7.74292e-05 -6.46354e-05 0.104583)
(-3.67481e-05 8.6022e-05 0.104559)
(1.01942e-05 -6.15295e-05 0.108179)
(1.0998e-05 -2.50319e-05 0.107952)
(-2.32664e-05 -1.73016e-05 0.108037)
(1.6735e-05 9.65035e-05 0.104666)
(-8.78672e-06 6.23372e-05 0.104521)
(-6.22172e-05 -1.0876e-05 0.104553)
(-3.56483e-05 4.50927e-05 0.108131)
(7.59097e-06 4.73921e-05 0.108192)
(-2.11126e-05 2.17386e-05 0.107942)
(3.73024e-05 2.37148e-05 0.107974)
(-9.78138e-06 5.37158e-05 0.104537)
(6.74354e-05 -2.25758e-05 0.104586)
(3.30509e-07 5.19052e-05 0.108091)
(3.40425e-05 7.49314e-05 0.10796)
(-2.61055e-05 6.03122e-05 0.107914)
(-2.01794e-05 8.75836e-05 0.108051)
(-4.4266e-05 8.26403e-05 0.10809)
(2.2021e-05 3.71812e-05 0.10796)
(2.3069e-05 8.97963e-05 0.108163)
(4.35064e-05 8.07586e-06 0.104417)
(-5.42617e-05 9.23516e-05 0.104721)
(-1.68689e-05 9.54846e-06 0.108023)
(-1.49727e-05 6.01473e-05 0.10804)
(3.73522e-06 7.008e-05 0.108121)
(5.06633e-05 0.000101403 0.104781)
(2.77163e-05 6.43848e-05 0.104397)
(-1.85905e-05 -0.000101888 0.104606)
(-9.91781e-06 1.40477e-05 0.107902)
(3.3014e-05 1.02129e-05 0.107957)
(1.32387e-05 -3.50942e-05 0.107894)
(-1.28925e-05 -5.25942e-05 0.108027)
(-2.21392e-05 5.3315e-05 0.10444)
(1.76093e-05 -0.000118227 0.104735)
(-2.11257e-05 4.13295e-05 0.107889)
(-3.82798e-05 6.49876e-05 0.108105)
(1.2199e-05 -8.12602e-05 0.107938)
(-5.42287e-05 -0.000113401 0.108133)
(3.70254e-05 5.27863e-05 0.108198)
(-4.32982e-06 -0.000104733 0.10809)
(3.11527e-05 -0.000119151 0.108138)
(2.78594e-05 -2.02841e-06 0.104591)
(-7.6353e-05 -2.86967e-05 0.104739)
(-3.74852e-06 7.37208e-05 0.108176)
(-8.89535e-06 -8.88153e-06 0.108193)
(-1.61374e-05 -1.64056e-05 0.108189)
(6.04418e-05 -2.88074e-05 0.104716)
(6.68488e-05 -2.79352e-05 0.104479)
(-5.77118e-05 -6.89808e-05 0.104784)
(1.67582e-05 -5.63677e-05 0.107943)
(-3.16505e-05 -7.45163e-05 0.108083)
(-2.80881e-07 -3.53377e-05 0.108147)
(-5.48273e-05 -3.01831e-05 0.108173)
(-7.26067e-05 -3.88007e-05 0.104598)
(3.67751e-05 -4.81678e-05 0.104751)
(1.51469e-05 -0.000120125 0.108003)
(-3.60611e-05 -0.000158577 0.108062)
(-2.93638e-06 -5.01223e-05 0.108171)
(6.32516e-05 -6.86797e-05 0.10776)
(1.51241e-05 -0.000145771 0.108051)
(-3.54768e-07 5.54284e-06 0.108187)
(-3.08406e-05 -1.17775e-06 0.107836)
(1.05098e-05 -0.000125845 0.104549)
(-1.79851e-05 1.65955e-05 0.104368)
(1.11389e-06 -5.94941e-05 0.108118)
(2.74427e-05 -8.93345e-05 0.107769)
(3.6937e-05 -6.13617e-05 0.107855)
(5.79038e-05 5.92256e-05 0.104473)
(1.45494e-05 4.32828e-05 0.104621)
(-0.000108782 5.76057e-05 0.104524)
(-2.17567e-05 5.62596e-07 0.108174)
(-3.54203e-05 1.2161e-05 0.108124)
(-5.45359e-05 7.48974e-05 0.107985)
(3.10024e-05 7.55241e-05 0.107814)
(-3.70714e-05 6.40475e-05 0.104557)
(8.61814e-05 2.9141e-05 0.104399)
(-1.91455e-05 2.86378e-05 0.108161)
(7.36829e-05 2.66685e-05 0.107711)
(-4.71121e-05 0.000176424 0.107916)
(-6.71348e-06 0.000211975 0.107901)
(-3.53141e-05 7.88263e-05 0.107838)
(1.11821e-05 0.000124325 0.107758)
(-2.02949e-05 0.000147078 0.107961)
(6.35347e-05 -2.98981e-05 0.104224)
(-6.03657e-05 0.000172856 0.104647)
(1.8451e-05 -7.84578e-06 0.107823)
(-5.63488e-05 9.34978e-05 0.107837)
(-8.17024e-05 0.000105733 0.107893)
(-1.79013e-05 0.00014552 0.104628)
(-1.3759e-05 0.000126432 0.104345)
(3.93465e-06 -8.9651e-05 0.104382)
(-3.86273e-05 6.49706e-05 0.107879)
(3.61945e-05 5.50101e-05 0.10773)
(3.30423e-05 -2.09474e-05 0.107678)
(-5.02935e-06 -3.38794e-05 0.107662)
(-6.35088e-07 9.24546e-05 0.104241)
(1.80695e-05 -9.67462e-05 0.104411)
(-4.13283e-05 0.000153784 0.107827)
(-3.96856e-05 0.000183234 0.108046)
(1.78186e-05 -3.39134e-05 0.107729)
(-7.54944e-05 -4.9895e-05 0.108372)
(-2.24151e-06 0.00010298 0.107988)
(-5.57407e-06 -7.07645e-05 0.107693)
(2.94089e-05 -9.71509e-05 0.107887)
(1.67439e-05 7.54007e-05 0.104575)
(-7.92839e-05 -1.34493e-06 0.105004)
(-8.83729e-05 0.000103659 0.107939)
(-2.34902e-05 3.52798e-05 0.108403)
(-3.10086e-05 -9.46608e-06 0.107946)
(6.15507e-05 -3.11032e-05 0.104524)
(8.94976e-05 -2.81204e-05 0.104257)
(5.42329e-06 -0.000123818 0.104502)
(4.93955e-05 -4.01712e-05 0.107671)
(-2.28701e-05 -4.98268e-05 0.107693)
(5.82905e-05 -4.31334e-05 0.107757)
(-1.25036e-05 -2.51274e-05 0.107829)
(-6.58559e-05 -2.5112e-05 0.104299)
(3.47818e-05 -6.37373e-05 0.104542)
(3.51329e-05 -8.89001e-05 0.107749)
(-6.40066e-05 -0.000112242 0.108368)
(4.71782e-05 -0.000130483 0.107835)
(2.29642e-06 -0.000113202 0.108013)
(2.10183e-05 -0.000132235 0.107802)
(-1.45842e-05 -5.19254e-05 0.107852)
(-1.0519e-05 -8.92461e-05 0.107604)
(7.74895e-06 -0.000103822 0.104809)
(-4.61632e-05 1.94441e-05 0.104506)
(5.55203e-06 -5.41884e-05 0.107885)
(4.96527e-05 -3.98923e-05 0.108035)
(9.71688e-05 -9.9174e-05 0.10768)
(0.000105481 -2.27839e-05 0.104316)
(7.70074e-05 -3.47619e-05 0.104381)
(-4.38627e-05 -4.81314e-05 0.104534)
(5.38172e-05 -3.55781e-05 0.10779)
(1.42502e-05 -5.46191e-06 0.107865)
(9.09125e-06 -1.49433e-05 0.107861)
(6.15738e-05 2.60643e-05 0.107925)
(-3.08589e-05 2.80304e-05 0.104412)
(8.92696e-05 1.29189e-06 0.104561)
(4.10987e-05 -0.000108793 0.10785)
(3.12493e-05 -7.79045e-05 0.107846)
(1.24852e-05 -3.79419e-05 0.10785)
(7.66109e-05 -4.38545e-06 0.107475)
(-3.6524e-06 -4.17629e-05 0.107599)
(4.0562e-05 5.3078e-05 0.107886)
(5.57551e-05 7.19083e-05 0.107831)
(5.29429e-05 -5.16119e-05 0.104304)
(4.34205e-05 4.33086e-05 0.104154)
(0.000117101 -7.74394e-05 0.107657)
(0.000119764 -1.24968e-05 0.10744)
(0.000115525 2.49061e-05 0.107819)
(8.91913e-05 8.50032e-05 0.104591)
(2.49596e-05 3.72354e-05 0.10441)
(-9.48245e-05 1.56804e-05 0.104649)
(-1.42433e-05 -1.16293e-05 0.107894)
(4.5589e-05 2.24765e-05 0.107935)
(-5.93126e-05 8.61857e-06 0.108028)
(-3.98231e-05 -5.3396e-06 0.107939)
(8.90652e-07 7.77694e-05 0.104426)
(3.59731e-06 -6.07195e-05 0.104586)
(-2.44231e-06 -2.24239e-05 0.10786)
(7.75006e-05 -1.99857e-06 0.107401)
(-4.9279e-05 5.86979e-05 0.10795)
(2.16434e-05 7.40204e-06 0.107368)
(6.14404e-05 7.43338e-05 0.10796)
(-2.1978e-05 -1.07235e-05 0.107963)
(1.80502e-07 1.28574e-05 0.108203)
(0.00010853 -3.46197e-05 0.104021)
(-6.93994e-05 9.68088e-06 0.1042)
(7.83214e-05 4.88223e-05 0.107926)
(-6.21018e-05 -4.98041e-05 0.107393)
(-0.000104616 5.83024e-05 0.108124)
(-3.70962e-05 7.28895e-05 0.104777)
(-1.24118e-05 0.000104315 0.1045)
(-7.4124e-05 2.9765e-05 0.104485)
(-5.68039e-05 1.99785e-05 0.108054)
(-5.75746e-05 -1.15525e-05 0.107932)
(-2.35994e-05 5.79597e-05 0.107944)
(-5.06913e-05 1.79102e-06 0.10785)
(-8.3149e-05 1.40799e-05 0.104433)
(2.69673e-05 -5.97518e-05 0.10446)
(-5.33936e-05 9.26722e-05 0.10797)
(-6.46409e-06 2.21159e-05 0.107442)
(-1.8153e-05 0.000140317 0.107882)
(-5.37201e-05 6.66358e-05 0.107838)
(-3.14057e-05 -9.56198e-06 0.108174)
(-3.48846e-05 -1.05341e-05 0.107869)
(-8.75436e-05 -5.51835e-06 0.107799)
(-1.4724e-05 -5.72161e-05 0.104124)
(-0.000100533 6.80953e-05 0.104632)
(-0.000158442 4.06722e-05 0.108088)
(-0.000128224 1.64372e-05 0.107857)
(-0.000169446 -1.3478e-05 0.107738)
(-4.13203e-05 6.26256e-05 0.104309)
(1.23433e-05 0.000100777 0.1043)
(-2.94746e-05 -8.1489e-05 0.104258)
(-1.87833e-05 6.05868e-05 0.10785)
(-3.32816e-05 1.11994e-05 0.107788)
(2.00402e-07 1.73162e-05 0.10757)
(1.23444e-05 1.82859e-05 0.107556)
(-4.28284e-05 2.85678e-05 0.104292)
(6.8068e-05 -1.0399e-05 0.104224)
(-4.02086e-06 0.000121086 0.107811)
(-5.12296e-05 6.89637e-05 0.107967)
(2.28646e-05 -1.56529e-05 0.107615)
(-2.88206e-05 2.73501e-05 0.108134)
(-8.77561e-05 1.21596e-05 0.107653)
(1.49239e-05 5.43093e-05 0.107533)
(-1.69674e-05 3.15176e-05 0.107439)
(-1.02347e-05 -3.74637e-06 0.104529)
(-3.01666e-05 8.88169e-05 0.104707)
(-0.000127342 -2.4389e-05 0.107616)
(3.7696e-05 6.31898e-05 0.108108)
(4.73609e-05 -2.20773e-05 0.107478)
(8.41419e-05 3.58508e-05 0.104195)
(5.5946e-05 -1.95934e-05 0.104132)
(1.69477e-05 -0.000119966 0.104312)
(1.57339e-05 -1.03014e-05 0.107523)
(2.01721e-05 1.28197e-05 0.1075)
(6.92264e-05 -6.57962e-05 0.107522)
(5.12882e-05 -8.13715e-06 0.107472)
(-6.63447e-06 6.22868e-05 0.104089)
(6.25824e-05 -4.36359e-05 0.104235)
(2.40533e-05 -6.1327e-05 0.107589)
(-2.40904e-05 8.8178e-06 0.108099)
(2.16163e-05 -0.000109491 0.107605)
(-5.82556e-06 -2.59321e-05 0.107822)
(1.48211e-05 1.8939e-05 0.107448)
(2.98191e-05 -1.30711e-05 0.107469)
(8.24023e-05 -3.803e-05 0.107601)
(5.56436e-05 2.34945e-06 0.104529)
(-2.48615e-05 4.67333e-05 0.104393)
(9.49434e-05 -1.72478e-05 0.10751)
(6.97449e-05 2.67816e-05 0.107817)
(0.00013874 -3.35066e-06 0.107686)
(0.000135848 -1.16982e-06 0.10441)
(8.93148e-05 -3.86457e-05 0.104198)
(-1.72256e-05 -4.49929e-05 0.104329)
(7.85037e-05 -6.5492e-05 0.107539)
(6.08185e-05 -1.80907e-05 0.107521)
(4.43577e-05 -2.45712e-05 0.107592)
(3.0848e-05 -3.85716e-05 0.107769)
(-9.05341e-06 2.11144e-05 0.104146)
(3.96548e-05 -7.00392e-05 0.104532)
(2.1063e-05 -9.59689e-05 0.107611)
(-3.09332e-07 -2.8335e-05 0.107725)
(1.87901e-05 -3.08503e-05 0.107596)
(9.93964e-06 -2.8669e-05 0.107559)
(8.72058e-05 -5.37574e-05 0.107662)
(2.5664e-05 -5.7042e-05 0.107793)
(4.28011e-05 -4.9462e-05 0.107779)
(5.10654e-05 -3.71118e-05 0.104233)
(-4.20779e-05 1.24559e-05 0.104272)
(0.000120277 -1.2861e-06 0.107734)
(3.2574e-06 -2.15521e-05 0.107585)
(2.61929e-05 -8.08069e-07 0.107784)
(4.72242e-05 2.06812e-05 0.104473)
(4.34127e-05 3.77236e-05 0.104211)
(-9.3889e-05 -7.55381e-07 0.104406)
(1.28551e-05 -7.72442e-06 0.107615)
(4.12173e-06 -3.50075e-05 0.107839)
(-7.00467e-05 2.52642e-05 0.107711)
(-5.97871e-05 -7.53411e-06 0.107883)
(-4.39571e-05 8.53192e-06 0.10442)
(9.08528e-06 -5.15431e-05 0.104532)
(1.20252e-05 -1.23505e-05 0.107594)
(9.12005e-06 -2.98333e-05 0.10754)
(-2.35674e-05 2.94165e-05 0.107647)
(-1.85705e-06 -2.53351e-05 0.107545)
(1.73349e-05 -3.0756e-05 0.107791)
(-2.35763e-05 -1.88893e-06 0.107909)
(-3.9869e-05 3.23638e-05 0.107759)
(2.81551e-05 -6.33124e-05 0.104148)
(-6.04085e-05 1.60353e-05 0.104301)
(-4.39149e-06 -5.07825e-08 0.107772)
(-3.8639e-05 -3.06803e-05 0.107573)
(-6.39821e-05 6.34458e-06 0.107693)
(-1.10973e-05 7.93828e-05 0.104396)
(-1.99526e-05 7.44814e-05 0.104288)
(-7.13735e-05 -1.96213e-05 0.104441)
(-7.69118e-05 2.89239e-05 0.107741)
(-6.41412e-05 2.07119e-06 0.107845)
(-4.49032e-05 1.55466e-05 0.107768)
(-2.72398e-05 2.10129e-05 0.107659)
(-6.74909e-05 3.11618e-05 0.104369)
(4.14366e-05 -2.75598e-05 0.104304)
(-3.01153e-05 3.82151e-05 0.107675)
(-3.96987e-06 -1.79636e-05 0.107561)
(-2.74451e-05 3.96338e-05 0.107736)
(-2.15684e-06 1.19887e-05 0.107619)
(-4.63821e-05 4.49406e-05 0.107732)
(-2.02543e-05 2.91609e-05 0.107648)
(-2.75198e-05 4.26886e-05 0.107641)
(1.53506e-05 -5.30471e-05 0.104184)
(-3.81745e-05 5.25383e-05 0.104346)
(-6.89248e-05 9.28931e-06 0.107666)
(-8.33393e-06 3.05877e-06 0.107608)
(-4.26578e-05 1.66319e-05 0.10761)
(1.80979e-05 7.05535e-05 0.104327)
(1.15495e-05 5.01434e-05 0.104302)
(-3.25402e-05 -6.47798e-05 0.104347)
(-2.68432e-05 7.10452e-06 0.107753)
(-8.15416e-06 2.20931e-05 0.107599)
(1.61355e-05 -1.8895e-05 0.107655)
(2.96417e-05 4.15948e-06 0.107499)
(-2.79722e-05 4.86422e-05 0.104156)
(6.32083e-05 -3.27845e-05 0.104234)
(-2.27107e-05 3.15033e-05 0.107738)
(-9.50546e-07 2.03505e-05 0.107633)
(-1.09184e-05 -5.73605e-06 0.107683)
(-6.0426e-06 3.12406e-05 0.10764)
(-1.3789e-05 3.0851e-05 0.107615)
(1.41969e-05 1.0313e-05 0.107479)
(2.06519e-05 -7.9918e-06 0.107558)
(3.79607e-05 -1.76474e-05 0.104222)
(-3.81332e-05 6.82631e-05 0.104345)
(-2.64669e-05 1.68251e-05 0.107601)
(6.84934e-06 2.41276e-05 0.107619)
(1.64296e-05 1.09907e-05 0.107584)
(6.40897e-05 3.14486e-05 0.104296)
(4.46961e-05 6.88204e-06 0.104207)
(-2.89124e-05 -6.11854e-05 0.104282)
(2.34819e-05 -2.4574e-05 0.107618)
(3.25425e-05 -4.20666e-06 0.107492)
(2.30019e-05 -2.91389e-05 0.10754)
(2.63906e-05 -2.16388e-05 0.107514)
(-9.5886e-06 3.63105e-05 0.104116)
(5.59987e-05 -5.04578e-05 0.104283)
(-8.67948e-06 -1.54155e-05 0.107651)
(-1.038e-05 3.00472e-05 0.107632)
(-7.81986e-06 -2.11717e-05 0.107567)
(-2.175e-05 1.74485e-05 0.107603)
(2.64077e-05 -1.4419e-05 0.107546)
(2.91372e-05 -1.33379e-05 0.107513)
(2.98774e-05 -1.10791e-05 0.107536)
(3.38578e-05 -6.45584e-06 0.104218)
(-4.82107e-05 5.57857e-05 0.104332)
(2.47809e-05 9.45137e-06 0.107577)
(-1.27534e-06 2.98914e-05 0.107602)
(3.03869e-05 9.79787e-06 0.107561)
(6.4119e-05 3.37469e-05 0.104293)
(4.22825e-05 1.47794e-05 0.104158)
(-4.16331e-05 -4.56422e-05 0.104277)
(1.81676e-05 -2.56758e-05 0.107528)
(2.29426e-05 -2.32065e-05 0.107528)
(1.52872e-07 -1.23318e-05 0.107513)
(1.1892e-05 -1.99016e-05 0.107563)
(-1.75379e-05 2.1103e-05 0.10417)
(4.69853e-05 -4.95329e-05 0.104329)
(-7.42161e-06 -1.824e-05 0.107548)
(-2.2378e-05 1.27561e-05 0.107596)
(-5.14057e-06 -1.22303e-05 0.107518)
(-1.6125e-05 2.39015e-06 0.107574)
(2.81187e-05 -6.54375e-06 0.10754)
(2.15935e-05 -1.11892e-05 0.107571)
(1.96523e-05 5.72146e-06 0.107563)
(2.50626e-05 -2.00218e-05 0.104208)
(-4.69842e-05 4.32698e-05 0.104322)
(2.84141e-05 1.06206e-05 0.10756)
(-2.52457e-06 1.82303e-05 0.107583)
(1.89107e-05 1.21182e-05 0.107568)
(5.09308e-05 4.57256e-05 0.104322)
(2.84106e-05 2.71145e-05 0.104161)
(-5.10819e-05 -4.3884e-05 0.104307)
(-5.58629e-06 -9.59935e-06 0.107514)
(7.17007e-06 -1.8227e-05 0.107568)
(-1.67533e-05 -9.65318e-06 0.107531)
(-6.6732e-06 -1.54428e-05 0.107562)
(-2.70418e-05 2.28073e-05 0.10421)
(3.5676e-05 -5.25834e-05 0.104328)
(-5.59327e-06 -1.15064e-05 0.107515)
(-1.4118e-05 -8.76013e-07 0.107564)
(-1.15888e-05 -1.05487e-05 0.107526)
(-1.28324e-05 -8.97098e-06 0.107532)
(1.67072e-05 8.14368e-06 0.10757)
(6.87672e-06 -1.30656e-05 0.107575)
(1.08482e-05 8.79115e-06 0.107576)
(2.54613e-05 -3.09841e-05 0.104199)
(-5.07396e-05 3.37445e-05 0.104301)
(1.49951e-05 1.23393e-05 0.107572)
(-1.11557e-05 3.65424e-06 0.107546)
(3.34342e-06 1.28834e-05 0.107571)
(4.2349e-05 4.91547e-05 0.104334)
(2.05169e-05 2.79269e-05 0.104193)
(-4.88334e-05 -4.19302e-05 0.104337)
(-1.72821e-05 -1.07978e-05 0.107539)
(-8.38205e-06 -1.5385e-05 0.107556)
(-1.24232e-05 -1.1557e-05 0.107561)
(-3.02911e-06 -1.31946e-05 0.107546)
(-3.71365e-05 1.99364e-05 0.104206)
(3.98015e-05 -4.66329e-05 0.104318)
(-1.36161e-05 -9.69792e-06 0.107534)
(-1.30486e-05 -9.28582e-06 0.107524)
(-1.54077e-05 -4.08896e-06 0.107556)
(-1.13272e-05 -1.02868e-06 0.107518)
(9.86687e-06 7.2993e-06 0.107571)
(4.26085e-06 -1.10545e-05 0.10755)
(6.41225e-06 3.59183e-06 0.107544)
(2.12112e-05 -3.83967e-05 0.104181)
(-4.64507e-05 3.96804e-05 0.104301)
(2.28877e-07 1.26868e-05 0.107566)
(-1.29372e-05 2.68431e-06 0.107522)
(-4.9937e-06 1.02282e-05 0.10754)
(3.78552e-05 4.48361e-05 0.104311)
(2.38628e-05 3.05596e-05 0.10422)
(-4.49918e-05 -4.06011e-05 0.10433)
(-1.04763e-05 -1.09026e-05 0.107565)
(5.02544e-07 -1.10654e-05 0.107544)
(-4.83589e-06 -7.90254e-06 0.107555)
(1.00734e-05 -4.9258e-06 0.107536)
(-3.06171e-05 2.70328e-05 0.1042)
(4.93938e-05 -3.72255e-05 0.104316)
(-1.4988e-05 -1.89038e-06 0.10756)
(-9.97389e-06 3.44701e-06 0.10752)
(-1.19553e-05 2.4268e-06 0.107554)
(-7.00618e-06 1.38927e-05 0.10753)
(5.2129e-06 3.86921e-06 0.107534)
(1.03913e-05 1.80558e-06 0.107531)
(4.60982e-06 6.85159e-06 0.107512)
(2.64991e-05 -3.00422e-05 0.104186)
(-3.90086e-05 5.09385e-05 0.104316)
(-5.00343e-06 9.41766e-06 0.10753)
(-2.19728e-06 1.22516e-05 0.107524)
(-1.3493e-07 8.74334e-06 0.10751)
(4.00195e-05 4.42414e-05 0.104298)
(2.77728e-05 3.10292e-05 0.104208)
(-4.00021e-05 -4.42059e-05 0.104301)
(-2.85441e-06 -7.44046e-06 0.107546)
(1.19771e-05 -4.38502e-06 0.107532)
(1.32435e-06 -8.42687e-06 0.107512)
(1.26229e-05 -7.01331e-06 0.10752)
(-2.17194e-05 3.45269e-05 0.104198)
(4.89109e-05 -3.98379e-05 0.104312)
(-1.06972e-05 2.22184e-06 0.107546)
(-6.90951e-06 1.50103e-05 0.107532)
(-6.88001e-06 -2.61911e-06 0.107515)
(-7.67075e-06 1.14142e-05 0.107526)
(5.73224e-06 7.3356e-06 0.107508)
(1.46182e-05 1.53311e-06 0.107518)
(1.09131e-05 6.16721e-06 0.107506)
(3.28593e-05 -2.02835e-05 0.1042)
(-3.936e-05 4.85413e-05 0.104317)
(2.54655e-06 8.95724e-06 0.107508)
(2.80298e-06 1.56287e-05 0.107524)
(1.00557e-05 9.56831e-06 0.10751)
(4.70593e-05 4.28491e-05 0.104307)
(3.11556e-05 2.64845e-05 0.104183)
(-4.37188e-05 -4.51504e-05 0.104294)
(8.79903e-07 -9.17034e-06 0.107502)
(1.13482e-05 -8.43623e-06 0.107516)
(-5.16721e-06 -1.07946e-05 0.107484)
(3.76793e-06 -1.20616e-05 0.107503)
(-2.31487e-05 3.04466e-05 0.104196)
(4.20207e-05 -4.65314e-05 0.10431)
(-6.45274e-06 -4.87986e-06 0.107506)
(-7.9436e-06 9.03974e-06 0.10752)
(-8.96267e-06 -8.18274e-06 0.107486)
(-1.07473e-05 2.71296e-06 0.107497)
(1.24479e-05 5.76743e-06 0.107508)
(1.23764e-05 -5.87201e-06 0.10751)
(1.46721e-05 6.52686e-06 0.107512)
(3.12314e-05 -2.38726e-05 0.104199)
(-4.6239e-05 4.13282e-05 0.104304)
(1.14556e-05 9.86473e-06 0.107512)
(-5.16545e-06 1.06142e-05 0.107505)
(9.77203e-06 1.23393e-05 0.107514)
(4.68287e-05 4.51788e-05 0.104318)
(2.60295e-05 2.57294e-05 0.104182)
(-4.75268e-05 -4.38885e-05 0.104309)
(-7.70644e-06 -1.13152e-05 0.107483)
(1.01689e-06 -1.30014e-05 0.107497)
(-1.15805e-05 -1.2601e-05 0.107487)
(-1.44612e-06 -1.43914e-05 0.107483)
(-2.99144e-05 2.3723e-05 0.104194)
(3.89363e-05 -4.82888e-05 0.104303)
(-1.07366e-05 -8.01431e-06 0.107484)
(-1.21503e-05 1.31001e-06 0.107491)
(-1.50267e-05 -6.78296e-06 0.107487)
(-1.5518e-05 1.19735e-06 0.107484)
(1.42949e-05 6.94576e-06 0.107512)
(7.591e-06 -1.12498e-05 0.107491)
(1.10767e-05 6.2279e-06 0.1075)
(2.36015e-05 -3.01654e-05 0.104189)
(-4.92465e-05 4.01154e-05 0.104306)
(7.45978e-06 1.33967e-05 0.107513)
(-1.35798e-05 9.00782e-06 0.107491)
(1.26469e-06 1.39084e-05 0.1075)
(4.17216e-05 4.55035e-05 0.104313)
(2.3316e-05 2.64532e-05 0.104197)
(-4.29352e-05 -4.5853e-05 0.10432)
(-1.09903e-05 -1.28901e-05 0.107489)
(-1.95603e-08 -1.4092e-05 0.10748)
(-5.18498e-06 -1.39506e-05 0.107491)
(7.11858e-06 -1.20154e-05 0.107478)
(-3.08914e-05 2.26714e-05 0.10419)
(4.51953e-05 -4.35221e-05 0.10431)
(-1.54272e-05 -6.87489e-06 0.10749)
(-1.57223e-05 2.22588e-06 0.107484)
(-1.33938e-05 -7.74278e-06 0.107494)
(-1.298e-05 6.25339e-06 0.107486)
(1.03372e-05 5.43795e-06 0.107493)
(1.07628e-05 -7.8926e-06 0.107479)
(1.10105e-05 3.53016e-06 0.107476)
(2.177e-05 -2.98214e-05 0.104194)
(-4.35283e-05 4.50115e-05 0.104316)
(1.18531e-06 1.30925e-05 0.107494)
(-7.1132e-06 1.14097e-05 0.107487)
(6.09354e-06 1.0141e-05 0.107479)
(4.45946e-05 4.16014e-05 0.104305)
(2.81598e-05 2.45941e-05 0.104207)
(-4.11541e-05 -4.34254e-05 0.104314)
(-3.08213e-06 -1.40357e-05 0.107489)
(9.43399e-06 -1.14927e-05 0.107479)
(-1.27899e-06 -1.15077e-05 0.107477)
(1.28272e-05 -1.05534e-05 0.107482)
(-2.42107e-05 2.73347e-05 0.104198)
(4.86089e-05 -4.08446e-05 0.104322)
(-1.21106e-05 -7.46711e-06 0.107493)
(-1.16477e-05 7.78169e-06 0.107486)
(-8.88537e-06 -5.22555e-06 0.107478)
(-8.92964e-06 1.06275e-05 0.107479)
(1.17586e-05 3.57684e-06 0.107473)
(1.57573e-05 -2.81887e-06 0.107481)
(1.27145e-05 5.75835e-06 0.107471)
(2.77428e-05 -2.47801e-05 0.104203)
(-3.96833e-05 4.76364e-05 0.104317)
(7.87309e-06 9.64217e-06 0.107476)
(-5.3317e-07 1.44876e-05 0.107478)
(9.68918e-06 1.03685e-05 0.107473)
(4.54631e-05 4.31993e-05 0.104314)
(2.84483e-05 2.70062e-05 0.104202)
(-4.55498e-05 -4.25573e-05 0.104316)
(-2.63041e-06 -1.03923e-05 0.107472)
(1.18153e-05 -1.03761e-05 0.107482)
(-9.0232e-06 -9.8046e-06 0.107463)
(3.2468e-06 -1.11605e-05 0.107472)
(-2.20923e-05 2.91428e-05 0.104211)
(4.1057e-05 -4.45081e-05 0.104323)
(-8.69719e-06 -4.96289e-06 0.107473)
(-8.61061e-06 9.96335e-06 0.107475)
(-1.12097e-05 -6.03949e-06 0.107463)
(-1.08222e-05 4.23375e-06 0.107464)
(1.28177e-05 7.06693e-06 0.107473)
(1.15038e-05 -5.06178e-06 0.107477)
(1.26515e-05 9.21894e-06 0.107477)
(3.01706e-05 -2.302e-05 0.104205)
(-4.47635e-05 4.11739e-05 0.104317)
(9.49292e-06 1.12496e-05 0.107474)
(-6.08403e-06 1.07778e-05 0.107469)
(6.31813e-06 1.38859e-05 0.107477)
(4.33137e-05 4.62533e-05 0.104327)
(2.37687e-05 2.7007e-05 0.104207)
(-4.56768e-05 -4.39867e-05 0.104333)
(-1.058e-05 -1.05893e-05 0.107464)
(8.74094e-07 -1.21703e-05 0.107467)
(-1.00043e-05 -1.29668e-05 0.107469)
(1.52917e-06 -1.37457e-05 0.107458)
(-2.98535e-05 2.46578e-05 0.104211)
(4.02095e-05 -4.63596e-05 0.104322)
(-1.27499e-05 -6.5351e-06 0.107463)
(-1.2316e-05 2.63547e-06 0.107461)
(-1.4863e-05 -6.95574e-06 0.10747)
(-1.48053e-05 3.23064e-06 0.10746)
(1.18979e-05 8.35218e-06 0.107476)
(7.87306e-06 -1.07532e-05 0.107463)