/*--------------------------------*- C++ -*----------------------------------*\
| =========                 |                                                 |
| \\      /  F ield         | OpenFOAM: The Open Source CFD Toolbox           |
|  \\    /   O peration     | Version:  v2012                                 |
|   \\  /    A nd           | Website:  www.openfoam.com                      |
|    \\/     M anipulation  |                                                 |
\*---------------------------------------------------------------------------*/
FoamFile
{
    version     2.0;
    format      ascii;
    class       volScalarField;
    location    "125";
    object      epsilon;
}
// * * * * * * * * * * * * * * * * * * * * * * * * * * * * * * * * * * * * * //

dimensions      [0 2 -3 0 0 0 0];


internalField   nonuniform List<scalar> 
171728
(
3.36588e-08
7.29059e-09
6.80664e-09
5.31622e-09
3.39e-08
7.23579e-09
6.74332e-09
4.87116e-09
3.49972e-08
7.2639e-09
6.77581e-09
4.54866e-09
3.60933e-08
7.38224e-09
6.90119e-09
4.37071e-09
3.71979e-08
7.60346e-09
7.10869e-09
4.31262e-09
3.83045e-08
7.92659e-09
7.40815e-09
4.35872e-09
3.94027e-08
8.35456e-09
7.80113e-09
4.48994e-09
4.04972e-08
8.91792e-09
8.26661e-09
4.68413e-09
4.15774e-08
9.56233e-09
8.82572e-09
4.93362e-09
4.26465e-08
1.03118e-08
9.53705e-09
5.20426e-09
4.37039e-08
1.11494e-08
1.03755e-08
5.49479e-09
4.47365e-08
1.21148e-08
1.14047e-08
5.8099e-09
4.5801e-08
1.31908e-08
1.26113e-08
6.15245e-09
4.68217e-08
1.43398e-08
1.40403e-08
6.52202e-09
4.78521e-08
1.5735e-08
1.57254e-08
7.00995e-09
4.89557e-08
1.75864e-08
1.78245e-08
8.06108e-09
5.0113e-08
1.98572e-08
2.04213e-08
9.85492e-09
5.13616e-08
2.30287e-08
2.37376e-08
1.28151e-08
5.29008e-08
2.73564e-08
2.82227e-08
1.77627e-08
5.44934e-08
3.2976e-08
3.40263e-08
2.61612e-08
5.65453e-08
4.06657e-08
4.19066e-08
3.94612e-08
5.88815e-08
5.10431e-08
5.27677e-08
6.00455e-08
6.21147e-08
6.48977e-08
6.78038e-08
9.21678e-08
6.6142e-08
8.3611e-08
8.67612e-08
1.38252e-07
7.19065e-08
1.11294e-07
1.13056e-07
2.04617e-07
8.05163e-08
1.53273e-07
1.54378e-07
2.97001e-07
9.46871e-08
2.12733e-07
2.13484e-07
4.01539e-07
1.1536e-07
2.8531e-07
2.85645e-07
5.0506e-07
1.39848e-07
3.55758e-07
3.55906e-07
5.88215e-07
1.64284e-07
4.11083e-07
4.11183e-07
6.4462e-07
1.82177e-07
4.42885e-07
4.42975e-07
6.72981e-07
1.90848e-07
4.54783e-07
4.54871e-07
6.82265e-07
1.93825e-07
4.58133e-07
4.58217e-07
6.84661e-07
1.94614e-07
4.58915e-07
4.58997e-07
6.8531e-07
1.94784e-07
4.59067e-07
4.59149e-07
6.85398e-07
1.94812e-07
4.59068e-07
4.59151e-07
6.85314e-07
1.94819e-07
4.59074e-07
4.59157e-07
6.85365e-07
1.94821e-07
4.59077e-07
4.59159e-07
6.85338e-07
1.94823e-07
4.59079e-07
4.59161e-07
6.85359e-07
1.94826e-07
4.59081e-07
4.59164e-07
6.85356e-07
1.94828e-07
4.59084e-07
4.59166e-07
6.85357e-07
1.94829e-07
4.59084e-07
4.59168e-07
6.85354e-07
1.9483e-07
4.59086e-07
4.5917e-07
6.85356e-07
1.94831e-07
4.59084e-07
4.59168e-07
6.85357e-07
1.94832e-07
4.59082e-07
4.59168e-07
6.85347e-07
1.94832e-07
4.59086e-07
4.5917e-07
6.85346e-07
1.94833e-07
4.59085e-07
4.59171e-07
6.85375e-07
1.94833e-07
4.59083e-07
4.59168e-07
6.85361e-07
1.94833e-07
4.59082e-07
4.59168e-07
6.85342e-07
1.94833e-07
4.59087e-07
4.59168e-07
6.85381e-07
1.94833e-07
4.59082e-07
4.59169e-07
6.8536e-07
1.94833e-07
4.59082e-07
4.59168e-07
6.85265e-07
1.94834e-07
4.59085e-07
4.59169e-07
6.85225e-07
1.94834e-07
4.59086e-07
4.59169e-07
6.85289e-07
1.94834e-07
4.59085e-07
4.59167e-07
6.85383e-07
1.94834e-07
4.59085e-07
4.59167e-07
6.85457e-07
1.94834e-07
4.59084e-07
4.59168e-07
6.855e-07
1.94835e-07
4.59085e-07
4.59168e-07
6.85524e-07
1.94835e-07
4.59086e-07
4.59169e-07
6.85526e-07
1.94835e-07
4.59086e-07
4.59169e-07
6.85514e-07
1.94835e-07
4.59086e-07
4.59169e-07
6.85509e-07
1.94835e-07
4.59086e-07
4.59169e-07
6.85513e-07
1.94835e-07
4.59087e-07
4.59168e-07
6.85516e-07
1.94835e-07
4.59087e-07
4.59168e-07
6.85511e-07
1.94835e-07
4.59087e-07
4.59169e-07
6.85505e-07
1.94835e-07
4.59086e-07
4.59169e-07
6.855e-07
1.94835e-07
4.59087e-07
4.59168e-07
6.85501e-07
1.94835e-07
4.59087e-07
4.59169e-07
6.85506e-07
1.94835e-07
4.59087e-07
4.59169e-07
6.85498e-07
1.94835e-07
4.59087e-07
4.59169e-07
6.85479e-07
1.94835e-07
4.59088e-07
4.59168e-07
6.85477e-07
1.94835e-07
4.59087e-07
4.59168e-07
6.85499e-07
1.94835e-07
4.59087e-07
4.59168e-07
6.85517e-07
1.94835e-07
4.59087e-07
4.59167e-07
6.85517e-07
1.94835e-07
4.59086e-07
4.59168e-07
6.85505e-07
1.94835e-07
4.59086e-07
4.59167e-07
6.85496e-07
1.94836e-07
4.59086e-07
4.59166e-07
6.85499e-07
1.94836e-07
4.59085e-07
4.59165e-07
6.85497e-07
1.94836e-07
4.59084e-07
4.59165e-07
6.85488e-07
1.94836e-07
4.59083e-07
4.59165e-07
6.85486e-07
1.94836e-07
4.59084e-07
4.59163e-07
6.85496e-07
1.94836e-07
4.59085e-07
4.59164e-07
6.85506e-07
1.94836e-07
4.59085e-07
4.59165e-07
6.85508e-07
1.94836e-07
4.59087e-07
4.59166e-07
6.85501e-07
1.94837e-07
4.59088e-07
4.59167e-07
6.85497e-07
1.94837e-07
4.5909e-07
4.59169e-07
6.855e-07
1.94837e-07
4.59092e-07
4.59171e-07
6.85491e-07
1.94838e-07
4.59095e-07
4.59173e-07
6.85477e-07
1.94838e-07
4.59098e-07
4.59177e-07
6.85484e-07
1.94838e-07
4.59102e-07
4.5918e-07
6.85498e-07
1.94839e-07
4.59104e-07
4.59183e-07
6.85505e-07
1.94839e-07
4.59102e-07
4.59181e-07
6.85491e-07
1.94835e-07
4.59088e-07
4.59165e-07
6.85452e-07
1.94631e-07
4.58962e-07
4.59034e-07
6.85129e-07
1.87274e-07
4.28569e-07
4.28582e-07
6.48977e-07
5.60423e-09
5.57556e-09
5.14627e-09
5.43728e-09
4.63648e-09
4.82641e-09
3.45179e-08
3.46338e-08
3.45645e-08
3.50795e-08
5.6117e-09
5.13999e-09
5.81336e-09
5.80288e-09
5.87607e-09
5.38556e-09
5.5458e-09
5.12608e-09
6.69703e-09
6.01742e-09
6.6197e-09
6.01929e-09
5.37686e-09
5.03527e-09
5.26186e-09
5.36338e-09
5.27722e-09
5.45606e-09
6.12043e-09
7.23876e-09
6.12569e-09
5.76352e-09
5.37975e-09
7.41525e-09
6.74683e-09
7.38397e-09
4.94972e-09
5.04136e-09
4.67813e-09
6.61424e-09
6.03371e-09
6.62163e-09
6.09944e-09
4.96142e-09
4.68539e-09
5.29259e-09
5.50133e-09
5.36306e-09
5.65987e-09
6.14119e-09
7.25236e-09
6.22601e-09
5.30819e-09
5.01441e-09
7.39404e-09
6.76229e-09
7.48626e-09
4.61043e-09
4.60155e-09
4.31545e-09
6.63939e-09
6.13902e-09
6.74132e-09
6.26874e-09
4.61679e-09
4.40075e-09
5.39787e-09
5.72108e-09
5.52708e-09
5.92079e-09
6.26906e-09
7.3467e-09
6.43195e-09
4.95091e-09
4.70092e-09
7.53833e-09
6.86608e-09
7.75057e-09
4.41015e-09
4.24783e-09
4.0184e-09
6.78728e-09
6.3327e-09
6.95577e-09
6.52804e-09
4.35127e-09
4.24078e-09
5.57746e-09
5.9986e-09
5.75926e-09
6.248e-09
6.50197e-09
7.5414e-09
6.74191e-09
4.64522e-09
4.49446e-09
7.83658e-09
7.05434e-09
8.14587e-09
4.33183e-09
3.96424e-09
3.8531e-09
7.02344e-09
6.60918e-09
7.27117e-09
6.89235e-09
4.20623e-09
4.16905e-09
5.83367e-09
6.3415e-09
6.11112e-09
6.6507e-09
6.83786e-09
7.84548e-09
7.16877e-09
4.45821e-09
4.3818e-09
8.26698e-09
7.33345e-09
8.67335e-09
4.37114e-09
3.82288e-09
3.80586e-09
7.36604e-09
6.98932e-09
7.72248e-09
7.35791e-09
4.14778e-09
4.15707e-09
6.2178e-09
6.76247e-09
6.58638e-09
7.15508e-09
7.29051e-09
8.25467e-09
7.70784e-09
4.35639e-09
4.32246e-09
8.82832e-09
7.70958e-09
9.33922e-09
4.49855e-09
3.7901e-09
3.8675e-09
7.85559e-09
7.48777e-09
8.31944e-09
7.88217e-09
4.14513e-09
4.22801e-09
6.72579e-09
7.28975e-09
7.20216e-09
7.748e-09
7.85735e-09
8.77898e-09
8.35542e-09
4.30391e-09
4.29588e-09
9.52163e-09
8.14572e-09
1.0112e-08
4.68931e-09
3.85994e-09
4.0317e-09
8.48684e-09
8.03738e-09
9.03547e-09
8.54394e-09
4.21922e-09
4.36721e-09
7.36967e-09
7.90558e-09
7.93963e-09
8.4221e-09
8.52334e-09
9.38852e-09
9.10563e-09
4.27961e-09
4.29845e-09
1.03241e-08
8.68565e-09
1.09876e-08
4.93639e-09
4.0294e-09
4.28815e-09
9.23144e-09
8.70209e-09
9.85706e-09
9.23526e-09
4.36279e-09
4.56794e-09
8.14332e-09
8.60688e-09
8.80419e-09
9.18039e-09
9.30519e-09
1.01257e-08
9.93731e-09
4.28488e-09
4.35337e-09
1.12323e-08
9.35217e-09
1.20024e-08
5.20635e-09
4.29217e-09
4.64168e-09
1.00742e-08
9.45289e-09
1.07748e-08
1.01107e-08
4.56529e-09
4.82478e-09
9.03878e-09
9.39229e-09
9.78827e-09
1.00563e-08
1.017e-08
1.09372e-08
1.08882e-08
4.34381e-09
4.47585e-09
1.22617e-08
1.01531e-08
1.30661e-08
5.49654e-09
4.65196e-09
5.06513e-09
1.10159e-08
1.03335e-08
1.17828e-08
1.10712e-08
4.82802e-09
5.1758e-09
1.00598e-08
1.02901e-08
1.08944e-08
1.10683e-08
1.11444e-08
1.18739e-08
1.19568e-08
4.46985e-09
4.70715e-09
1.33524e-08
1.1152e-08
1.42217e-08
5.81067e-09
5.08128e-09
5.57565e-09
1.20633e-08
1.13286e-08
1.29803e-08
1.21816e-08
5.18472e-09
5.55817e-09
1.11894e-08
1.13353e-08
1.21641e-08
1.22244e-08
1.22256e-08
1.29241e-08
1.31112e-08
4.70988e-09
5.08405e-09
1.44996e-08
1.22972e-08
1.53321e-08
6.14979e-09
5.64191e-09
6.23196e-09
1.3287e-08
1.24887e-08
1.42812e-08
1.34612e-08
5.60131e-09
6.04796e-09
1.25e-08
1.25696e-08
1.35124e-08
1.35423e-08
1.34325e-08
1.40443e-08
1.4421e-08
5.11455e-09
5.6448e-09
1.5599e-08
1.36561e-08
1.6258e-08
6.49315e-09
6.34126e-09
7.12448e-09
1.46762e-08
1.38425e-08
1.59463e-08
1.50886e-08
6.12957e-09
6.76923e-09
1.3895e-08
1.3904e-08
1.51735e-08
1.51931e-08
1.47876e-08
1.53837e-08
1.60183e-08
5.73945e-09
6.47285e-09
1.64342e-08
1.53065e-08
1.68183e-08
6.91325e-09
7.28821e-09
8.32393e-09
1.63694e-08
1.55153e-08
1.77912e-08
1.70188e-08
6.90681e-09
7.84721e-09
1.56072e-08
1.56047e-08
1.71162e-08
1.70477e-08
1.6456e-08
1.70959e-08
1.80326e-08
6.6301e-09
7.69487e-09
1.69661e-08
1.7269e-08
1.7768e-08
7.84468e-09
8.56641e-09
1.00203e-08
1.82648e-08
1.75667e-08
1.98448e-08
1.94031e-08
8.07771e-09
9.54829e-09
1.76464e-08
1.75939e-08
1.94177e-08
1.9346e-08
1.85739e-08
1.92052e-08
2.03534e-08
7.94411e-09
9.54204e-09
1.81288e-08
1.97115e-08
1.96339e-08
9.49126e-09
1.04121e-08
1.28036e-08
2.04798e-08
2.01331e-08
2.25425e-08
2.25655e-08
9.94547e-09
1.23965e-08
2.01159e-08
1.99877e-08
2.23856e-08
2.22756e-08
2.0987e-08
2.21665e-08
2.29934e-08
9.9597e-09
1.24241e-08
2.02924e-08
2.28401e-08
2.25145e-08
1.21416e-08
1.34855e-08
1.73778e-08
2.33051e-08
2.34615e-08
2.61673e-08
2.66262e-08
1.30906e-08
1.71627e-08
2.32481e-08
2.32273e-08
2.64138e-08
2.64952e-08
2.38105e-08
2.61578e-08
2.65135e-08
1.31073e-08
1.71358e-08
2.33579e-08
2.69803e-08
2.64226e-08
1.66349e-08
1.85422e-08
2.50638e-08
2.73485e-08
2.78614e-08
3.13972e-08
3.19908e-08
1.8346e-08
2.48914e-08
2.76605e-08
2.76908e-08
3.17969e-08
3.1671e-08
2.75326e-08
3.14448e-08
3.13317e-08
1.83229e-08
2.49394e-08
2.76707e-08
3.24228e-08
3.18889e-08
2.42702e-08
2.69472e-08
3.71885e-08
3.2962e-08
3.35723e-08
3.85629e-08
3.92308e-08
2.67677e-08
3.70834e-08
3.33472e-08
3.32035e-08
3.88873e-08
3.87997e-08
3.28909e-08
3.85252e-08
3.83645e-08
2.68253e-08
3.71069e-08
3.34756e-08
3.97368e-08
3.91115e-08
3.65141e-08
4.01295e-08
5.63628e-08
4.07015e-08
4.14181e-08
4.82138e-08
4.90441e-08
4.00872e-08
5.66636e-08
4.10451e-08
4.09953e-08
4.8507e-08
4.85936e-08
4.04134e-08
4.81757e-08
4.75708e-08
4.00837e-08
5.66257e-08
4.12469e-08
4.9702e-08
4.8499e-08
5.53943e-08
6.10982e-08
8.6262e-08
5.11614e-08
5.20091e-08
6.13865e-08
6.23163e-08
6.14403e-08
8.65997e-08
5.13985e-08
5.15179e-08
6.15858e-08
6.17097e-08
5.04086e-08
6.10506e-08
6.05198e-08
6.14302e-08
8.72319e-08
5.1319e-08
6.3632e-08
6.13476e-08
8.5249e-08
9.31106e-08
1.28884e-07
6.5271e-08
6.62357e-08
7.86497e-08
7.95251e-08
9.34589e-08
1.29464e-07
6.5514e-08
6.56293e-08
7.8976e-08
7.89986e-08
6.44614e-08
7.83872e-08
7.81323e-08
9.42952e-08
1.30846e-07
6.52442e-08
8.1707e-08
7.87277e-08
1.28525e-07
1.38478e-07
1.90176e-07
8.38268e-08
8.45846e-08
1.03141e-07
1.03491e-07
1.39107e-07
1.9087e-07
8.41455e-08
8.41099e-08
1.03437e-07
1.03261e-07
8.34066e-08
1.03126e-07
1.02916e-07
1.404e-07
1.91182e-07
8.39338e-08
1.05221e-07
1.03294e-07
1.90506e-07
2.04218e-07
2.78501e-07
1.11279e-07
1.11542e-07
1.41297e-07
1.4144e-07
2.0491e-07
2.7886e-07
1.1161e-07
1.11414e-07
1.41765e-07
1.41567e-07
1.11091e-07
1.41359e-07
1.41159e-07
2.05043e-07
2.78936e-07
1.11442e-07
1.42547e-07
1.4143e-07
2.7878e-07
2.96813e-07
3.81989e-07
1.53248e-07
1.53376e-07
1.96203e-07
1.96276e-07
2.97071e-07
3.81834e-07
1.53729e-07
1.53556e-07
1.96528e-07
1.96518e-07
1.53116e-07
1.96125e-07
1.96084e-07
2.97202e-07
3.82312e-07
1.53353e-07
1.96981e-07
1.96194e-07
3.81849e-07
4.01699e-07
4.86601e-07
2.12851e-07
2.12912e-07
2.66961e-07
2.67011e-07
4.01519e-07
4.86469e-07
2.13099e-07
2.13148e-07
2.67014e-07
2.67188e-07
2.12745e-07
2.66815e-07
2.66904e-07
4.02013e-07
4.86838e-07
2.12816e-07
2.67236e-07
2.66891e-07
4.86568e-07
5.05082e-07
5.73741e-07
2.85467e-07
2.85517e-07
3.39233e-07
3.39291e-07
5.04968e-07
5.73661e-07
2.85479e-07
2.85671e-07
3.39174e-07
3.39381e-07
2.85426e-07
3.39079e-07
3.39233e-07
5.05285e-07
5.73861e-07
2.85394e-07
3.39251e-07
3.39166e-07
5.73791e-07
5.8817e-07
6.34779e-07
3.55917e-07
3.55973e-07
3.99431e-07
3.99492e-07
5.88094e-07
6.34703e-07
3.55851e-07
3.56051e-07
3.99356e-07
3.99537e-07
3.55928e-07
3.9928e-07
3.99463e-07
5.88268e-07
6.34848e-07
3.55854e-07
3.99385e-07
3.99381e-07
6.34849e-07
6.44559e-07
6.67669e-07
4.11233e-07
4.11289e-07
4.37356e-07
4.37419e-07
6.44486e-07
6.67595e-07
4.11161e-07
4.11334e-07
4.37282e-07
4.37445e-07
4.11269e-07
4.37209e-07
4.37395e-07
6.44614e-07
6.67717e-07
4.11186e-07
4.37297e-07
4.37316e-07
6.6774e-07
6.72914e-07
6.79613e-07
4.43032e-07
4.43085e-07
4.53131e-07
4.53192e-07
6.72843e-07
6.79541e-07
4.42959e-07
4.43117e-07
4.5306e-07
4.53211e-07
4.43073e-07
4.52986e-07
4.53177e-07
6.72954e-07
6.79657e-07
4.42994e-07
4.53074e-07
4.531e-07
6.79689e-07
6.8219e-07
6.82671e-07
4.54923e-07
4.54983e-07
4.57812e-07
4.57874e-07
6.82121e-07
6.82597e-07
4.54856e-07
4.55004e-07
4.57746e-07
4.57892e-07
4.5497e-07
4.57673e-07
4.57858e-07
6.82226e-07
6.82708e-07
4.54893e-07
4.57756e-07
4.57783e-07
6.82741e-07
6.84592e-07
6.8349e-07
4.58269e-07
4.58331e-07
4.5895e-07
4.59014e-07
6.84521e-07
6.83414e-07
4.58205e-07
4.58349e-07
4.58886e-07
4.59029e-07
4.58314e-07
4.58812e-07
4.58994e-07
6.84622e-07
6.83525e-07
4.5824e-07
4.58894e-07
4.58921e-07
6.83556e-07
6.85246e-07
6.83586e-07
4.59051e-07
4.59114e-07
4.59192e-07
4.59257e-07
6.85172e-07
6.83509e-07
4.58988e-07
4.5913e-07
4.59129e-07
4.59272e-07
4.59094e-07
4.59054e-07
4.59233e-07
6.85274e-07
6.8362e-07
4.59021e-07
4.59135e-07
4.5916e-07
6.8365e-07
6.85336e-07
6.83528e-07
4.59204e-07
4.59269e-07
4.59207e-07
4.59273e-07
6.85263e-07
6.8345e-07
4.59141e-07
4.59284e-07
4.59145e-07
4.59287e-07
4.59245e-07
4.59069e-07
4.59249e-07
6.85363e-07
6.83564e-07
4.59172e-07
4.59151e-07
4.59175e-07
6.83591e-07
6.85253e-07
6.83544e-07
4.59206e-07
4.59272e-07
4.59209e-07
4.59276e-07
6.85179e-07
6.83468e-07
4.59144e-07
4.59286e-07
4.59147e-07
4.5929e-07
4.59247e-07
4.59071e-07
4.5925e-07
6.85283e-07
6.83582e-07
4.59173e-07
4.59154e-07
4.59176e-07
6.83612e-07
6.853e-07
6.83548e-07
4.59209e-07
4.59276e-07
4.59214e-07
4.59282e-07
6.85228e-07
6.83471e-07
4.59148e-07
4.5929e-07
4.59153e-07
4.59295e-07
4.5925e-07
4.59077e-07
4.59255e-07
6.8533e-07
6.83582e-07
4.59176e-07
4.59159e-07
4.59181e-07
6.8361e-07
6.85275e-07
6.83555e-07
4.59212e-07
4.5928e-07
4.59214e-07
4.59282e-07
6.85201e-07
6.8348e-07
4.59152e-07
4.59294e-07
4.59153e-07
4.59295e-07
4.59254e-07
4.59077e-07
4.59256e-07
6.85304e-07
6.83591e-07
4.59179e-07
4.59159e-07
4.59181e-07
6.83618e-07
6.85298e-07
6.83556e-07
4.59214e-07
4.59282e-07
4.59217e-07
4.59286e-07
6.85226e-07
6.83481e-07
4.59153e-07
4.59295e-07
4.59157e-07
4.59299e-07
4.59256e-07
4.59081e-07
4.5926e-07
6.85326e-07
6.83596e-07
4.59181e-07
4.59163e-07
4.59185e-07
6.8362e-07
6.85293e-07
6.83558e-07
4.59216e-07
4.59286e-07
4.59216e-07
4.59287e-07
6.85222e-07
6.83484e-07
4.59156e-07
4.59298e-07
4.59158e-07
4.593e-07
4.59258e-07
4.59081e-07
4.5926e-07
6.85325e-07
6.83596e-07
4.59185e-07
4.59164e-07
4.59186e-07
6.83617e-07
6.85293e-07
6.83558e-07
4.59216e-07
4.59285e-07
4.59218e-07
4.59286e-07
6.85229e-07
6.83486e-07
4.59159e-07
4.593e-07
4.59162e-07
4.59303e-07
4.5926e-07
4.59084e-07
4.59263e-07
6.85332e-07
6.83596e-07
4.59186e-07
4.59167e-07
4.59189e-07
6.83617e-07
6.85287e-07
6.83572e-07
4.59217e-07
4.59285e-07
4.59217e-07
4.59285e-07
6.85224e-07
6.83487e-07
4.59162e-07
4.59303e-07
4.59163e-07
4.59303e-07
4.59262e-07
4.59084e-07
4.59263e-07
6.8533e-07
6.83598e-07
4.59189e-07
4.59168e-07
4.59189e-07
6.83618e-07
6.85297e-07
6.8358e-07
4.59217e-07
4.59285e-07
4.59219e-07
4.59286e-07
6.85224e-07
6.83483e-07
4.59163e-07
4.59303e-07
4.59166e-07
4.59306e-07
4.59263e-07
4.59082e-07
4.59263e-07
6.85335e-07
6.83593e-07
4.59189e-07
4.59168e-07
4.5919e-07
6.83617e-07
6.85305e-07
6.83588e-07
4.59218e-07
4.59284e-07
4.59221e-07
4.59287e-07
6.85222e-07
6.83483e-07
4.59164e-07
4.59304e-07
4.59168e-07
4.59308e-07
4.59263e-07
4.59084e-07
4.59266e-07
6.85332e-07
6.83595e-07
4.5919e-07
4.59169e-07
4.59193e-07
6.83608e-07
6.85315e-07
6.83591e-07
4.59219e-07
4.59285e-07
4.59221e-07
4.59286e-07
6.85219e-07
6.83489e-07
4.59166e-07
4.59306e-07
4.59167e-07
4.59306e-07
4.59264e-07
4.59086e-07
4.59267e-07
6.85331e-07
6.83598e-07
4.59191e-07
4.59171e-07
4.59193e-07
6.83617e-07
6.85326e-07
6.83573e-07
4.59221e-07
4.59286e-07
4.59221e-07
4.59284e-07
6.85227e-07
6.83479e-07
4.59167e-07
4.59306e-07
4.59166e-07
4.59305e-07
4.59266e-07
4.59082e-07
4.59265e-07
6.85336e-07
6.83589e-07
4.59192e-07
4.59168e-07
4.59192e-07
6.83639e-07
6.85312e-07
6.83578e-07
4.59221e-07
4.59284e-07
4.59222e-07
4.59284e-07
6.85216e-07
6.83497e-07
4.59166e-07
4.59305e-07
4.59166e-07
4.59306e-07
4.59265e-07
4.59082e-07
4.59264e-07
6.85326e-07
6.83604e-07
4.59192e-07
4.59167e-07
4.5919e-07
6.83611e-07
6.85304e-07
6.83599e-07
4.59221e-07
4.59284e-07
4.59225e-07
4.59286e-07
6.85228e-07
6.83501e-07
4.59165e-07
4.59305e-07
4.59166e-07
4.59307e-07
4.59264e-07
4.59084e-07
4.59267e-07
6.85336e-07
6.83601e-07
4.5919e-07
4.59169e-07
4.59193e-07
6.83606e-07
6.85334e-07
6.83556e-07
4.59223e-07
4.59284e-07
4.59226e-07
4.59286e-07
6.85254e-07
6.83439e-07
4.59163e-07
4.59305e-07
4.59167e-07
4.59308e-07
4.59264e-07
4.59085e-07
4.59267e-07
6.85348e-07
6.8356e-07
4.5919e-07
4.5917e-07
4.59195e-07
6.83637e-07
6.85313e-07
6.83512e-07
4.59225e-07
4.59285e-07
4.59227e-07
4.59286e-07
6.85199e-07
6.83437e-07
4.59165e-07
4.59306e-07
4.59165e-07
4.59307e-07
4.59267e-07
4.5908e-07
4.59264e-07
6.85306e-07
6.83568e-07
4.59193e-07
4.59168e-07
4.59192e-07
6.83589e-07
6.85236e-07
6.83577e-07
4.59227e-07
4.59285e-07
4.59228e-07
4.59285e-07
6.85145e-07
6.83542e-07
4.59165e-07
4.59306e-07
4.59164e-07
4.59306e-07
4.59264e-07
4.59084e-07
4.59265e-07
6.85278e-07
6.83636e-07
4.59192e-07
4.59169e-07
4.5919e-07
6.83522e-07
6.85251e-07
6.83665e-07
4.59228e-07
4.59285e-07
4.59229e-07
4.59285e-07
6.85216e-07
6.83606e-07
4.59164e-07
4.59306e-07
4.59163e-07
4.59306e-07
4.59264e-07
4.59085e-07
4.59266e-07
6.8533e-07
6.83663e-07
4.5919e-07
4.59168e-07
4.5919e-07
6.83557e-07
6.85352e-07
6.83657e-07
4.59229e-07
4.59284e-07
4.5923e-07
4.59286e-07
6.85326e-07
6.83542e-07
4.59162e-07
4.59305e-07
4.59165e-07
4.59307e-07
4.59265e-07
4.59084e-07
4.59265e-07
6.85387e-07
6.83626e-07
4.59189e-07
4.59167e-07
4.59191e-07
6.83671e-07
6.85405e-07
6.83584e-07
4.5923e-07
4.59284e-07
4.59232e-07
4.59286e-07
6.8533e-07
6.83448e-07
4.59163e-07
4.59305e-07
4.59165e-07
4.59307e-07
4.59264e-07
4.59084e-07
4.59266e-07
6.85381e-07
6.83596e-07
4.59189e-07
4.59166e-07
4.59192e-07
6.83766e-07
6.85368e-07
6.83539e-07
4.59231e-07
4.59284e-07
4.59234e-07
4.59286e-07
6.85245e-07
6.83437e-07
4.59164e-07
4.59305e-07
4.59164e-07
4.59306e-07
4.59264e-07
4.59084e-07
4.59266e-07
6.85353e-07
6.83602e-07
4.5919e-07
4.59168e-07
4.59189e-07
6.83816e-07
6.85321e-07
6.83525e-07
4.59233e-07
4.59286e-07
4.59234e-07
4.59284e-07
6.85198e-07
6.83477e-07
4.59164e-07
4.59305e-07
4.59163e-07
4.59307e-07
4.59264e-07
4.59084e-07
4.59266e-07
6.85351e-07
6.83613e-07
4.59187e-07
4.59169e-07
4.59192e-07
6.83829e-07
6.85292e-07
6.83532e-07
4.59234e-07
4.59284e-07
4.59235e-07
4.59285e-07
6.85217e-07
6.83504e-07
4.59163e-07
4.59305e-07
4.59164e-07
4.59307e-07
4.59264e-07
4.59084e-07
4.59267e-07
6.85365e-07
6.83607e-07
4.59187e-07
4.59169e-07
4.59191e-07
6.83824e-07
6.85282e-07
6.83553e-07
4.59234e-07
4.59283e-07
4.59237e-07
4.59287e-07
6.85252e-07
6.83497e-07
4.59163e-07
4.59305e-07
4.59164e-07
4.59306e-07
4.59264e-07
4.59085e-07
4.59267e-07
6.85371e-07
6.83592e-07
4.59189e-07
4.59168e-07
4.5919e-07
6.83807e-07
6.85297e-07
6.83561e-07
4.59236e-07
4.59285e-07
4.59237e-07
4.59285e-07
6.85262e-07
6.83481e-07
4.59163e-07
4.59305e-07
4.59164e-07
4.59306e-07
4.59265e-07
4.59084e-07
4.59266e-07
6.85364e-07
6.83579e-07
4.59189e-07
4.59167e-07
4.59189e-07
6.838e-07
6.85316e-07
6.83548e-07
4.59237e-07
4.59285e-07
4.59237e-07
4.59285e-07
6.85256e-07
6.83472e-07
4.59163e-07
4.59306e-07
4.59162e-07
4.59306e-07
4.59265e-07
4.59085e-07
4.59266e-07
6.85356e-07
6.83567e-07
4.59189e-07
4.59167e-07
4.59188e-07
6.83813e-07
6.85316e-07
6.83534e-07
4.59237e-07
4.59285e-07
4.59237e-07
4.59285e-07
6.85251e-07
6.83461e-07
4.59162e-07
4.59306e-07
4.59162e-07
4.59306e-07
4.59265e-07
4.59085e-07
4.59266e-07
6.85346e-07
6.83562e-07
4.59187e-07
4.59167e-07
4.59189e-07
6.83824e-07
6.85307e-07
6.83522e-07
4.59237e-07
4.59285e-07
4.59238e-07
4.59285e-07
6.85244e-07
6.8345e-07
4.59162e-07
4.59306e-07
4.59162e-07
4.59306e-07
4.59265e-07
4.59085e-07
4.59266e-07
6.85339e-07
6.83556e-07
4.59187e-07
4.59167e-07
4.59189e-07
6.83824e-07
6.85295e-07
6.83515e-07
4.59238e-07
4.59285e-07
4.59238e-07
4.59285e-07
6.85233e-07
6.83446e-07
4.59162e-07
4.59306e-07
4.59163e-07
4.59306e-07
4.59265e-07
4.59085e-07
4.59266e-07
6.85334e-07
6.8355e-07
4.59187e-07
4.59168e-07
4.59188e-07
6.83821e-07
6.85282e-07
6.83523e-07
4.59238e-07
4.59285e-07
4.59238e-07
4.59285e-07
6.85227e-07
6.83444e-07
4.59162e-07
4.59306e-07
4.59162e-07
4.59306e-07
4.59265e-07
4.59085e-07
4.59265e-07
6.85327e-07
6.83543e-07
4.59187e-07
4.59168e-07
4.59188e-07
6.83822e-07
6.85282e-07
6.83534e-07
4.59238e-07
4.59285e-07
4.59238e-07
4.59284e-07
6.85224e-07
6.83438e-07
4.59162e-07
4.59306e-07
4.59162e-07
4.59306e-07
4.59265e-07
4.59085e-07
4.59266e-07
6.85316e-07
6.83545e-07
4.59187e-07
4.59166e-07
4.59187e-07
6.83824e-07
6.85294e-07
6.83536e-07
4.59238e-07
4.59284e-07
4.59238e-07
4.59283e-07
6.85217e-07
6.83434e-07
4.59162e-07
4.59306e-07
4.59162e-07
4.59306e-07
4.59264e-07
4.59084e-07
4.59266e-07
6.85308e-07
6.83558e-07
4.59186e-07
4.59167e-07
4.59187e-07
6.83828e-07
6.85304e-07
6.83528e-07
4.59238e-07
4.59283e-07
4.59239e-07
4.59284e-07
6.85208e-07
6.83439e-07
4.59162e-07
4.59306e-07
4.5916e-07
4.59306e-07
4.59265e-07
4.59084e-07
4.59266e-07
6.85318e-07
6.83567e-07
4.59187e-07
4.59168e-07
4.59187e-07
6.83827e-07
6.85305e-07
6.83516e-07
4.59239e-07
4.59284e-07
4.59239e-07
4.59284e-07
6.85208e-07
6.83448e-07
4.5916e-07
4.59306e-07
4.59161e-07
4.59306e-07
4.59265e-07
4.59085e-07
4.59266e-07
6.85331e-07
6.83563e-07
4.59187e-07
4.59167e-07
4.59187e-07
6.8382e-07
6.85295e-07
6.83511e-07
4.59239e-07
4.59284e-07
4.59238e-07
4.59284e-07
6.85216e-07
6.8345e-07
4.59161e-07
4.59306e-07
4.5916e-07
4.59306e-07
4.59265e-07
4.59085e-07
4.59266e-07
6.85334e-07
6.83556e-07
4.59186e-07
4.59166e-07
4.59186e-07
6.83818e-07
6.85286e-07
6.83512e-07
4.59238e-07
4.59284e-07
4.59238e-07
4.59284e-07
6.85223e-07
6.83446e-07
4.59161e-07
4.59306e-07
4.59159e-07
4.59306e-07
4.59265e-07
4.59085e-07
4.59265e-07
6.8533e-07
6.83552e-07
4.59184e-07
4.59166e-07
4.59187e-07
6.83828e-07
6.85283e-07
6.83511e-07
4.59238e-07
4.59284e-07
4.59238e-07
4.59284e-07
6.85224e-07
6.83439e-07
4.5916e-07
4.59306e-07
4.5916e-07
4.59306e-07
4.59265e-07
4.59084e-07
4.59264e-07
6.85326e-07
6.83544e-07
4.59184e-07
4.59166e-07
4.59186e-07
6.83835e-07
6.85278e-07
6.83515e-07
4.59238e-07
4.59284e-07
4.59238e-07
4.59283e-07
6.85217e-07
6.83437e-07
4.5916e-07
4.59306e-07
4.5916e-07
4.59306e-07
4.59264e-07
4.59084e-07
4.59265e-07
6.85318e-07
6.83542e-07
4.59185e-07
4.59165e-07
4.59186e-07
6.83831e-07
6.85277e-07
6.83523e-07
4.59238e-07
4.59283e-07
4.59238e-07
4.59284e-07
6.85213e-07
6.83438e-07
4.5916e-07
4.59306e-07
4.5916e-07
4.59306e-07
4.59264e-07
4.59084e-07
4.59265e-07
6.85307e-07
6.83556e-07
4.59186e-07
4.59164e-07
4.59185e-07
6.8382e-07
6.85284e-07
6.83528e-07
4.59239e-07
4.59284e-07
4.59238e-07
4.59283e-07
6.85214e-07
6.83434e-07
4.5916e-07
4.59307e-07
4.5916e-07
4.59305e-07
4.59265e-07
4.59083e-07
4.59265e-07
6.85314e-07
6.83567e-07
4.59185e-07
4.59165e-07
4.59185e-07
6.83817e-07
6.85291e-07
6.83531e-07
4.5924e-07
4.59285e-07
4.59238e-07
4.59283e-07
6.85211e-07
6.83429e-07
4.59161e-07
4.59307e-07
4.59159e-07
4.59305e-07
4.59265e-07
4.59083e-07
4.59265e-07
6.8533e-07
6.83567e-07
4.59185e-07
4.59164e-07
4.59186e-07
6.83824e-07
6.85298e-07
6.83526e-07
4.5924e-07
4.59286e-07
4.59237e-07
4.59282e-07
6.85202e-07
6.83435e-07
4.59161e-07
4.59307e-07
4.59159e-07
4.59305e-07
4.59265e-07
4.59082e-07
4.59264e-07
6.85337e-07
6.83562e-07
4.59185e-07
4.59162e-07
4.59185e-07
6.83827e-07
6.853e-07
6.83517e-07
4.59239e-07
4.59285e-07
4.59236e-07
4.59281e-07
6.85201e-07
6.83444e-07
4.59161e-07
4.59307e-07
4.59158e-07
4.59304e-07
4.59265e-07
4.59081e-07
4.59262e-07
6.85339e-07
6.83549e-07
4.59185e-07
4.59161e-07
4.59184e-07
6.83822e-07
6.85292e-07
6.83514e-07
4.59238e-07
4.59284e-07
4.59236e-07
4.59281e-07
6.8521e-07
6.83439e-07
4.59161e-07
4.59307e-07
4.59156e-07
4.59302e-07
4.59264e-07
4.59079e-07
4.59262e-07
6.85331e-07
6.83536e-07
4.59184e-07
4.59161e-07
4.59183e-07
6.8382e-07
6.85284e-07
6.83519e-07
4.59239e-07
4.59284e-07
4.59234e-07
4.59279e-07
6.85212e-07
6.8343e-07
4.5916e-07
4.59306e-07
4.59154e-07
4.59301e-07
4.59263e-07
4.59078e-07
4.59262e-07
6.85313e-07
6.83535e-07
4.59185e-07
4.59158e-07
4.59181e-07
6.83826e-07
6.85284e-07
6.83526e-07
4.59238e-07
4.59283e-07
4.59232e-07
4.59277e-07
6.85204e-07
6.83429e-07
4.59158e-07
4.59304e-07
4.59154e-07
4.593e-07
4.59263e-07
4.59077e-07
4.5926e-07
6.85299e-07
6.83556e-07
4.59184e-07
4.59156e-07
4.59179e-07
6.83829e-07
6.85293e-07
6.83526e-07
4.59236e-07
4.59281e-07
4.59231e-07
4.59276e-07
6.85196e-07
6.83438e-07
4.59158e-07
4.59304e-07
4.59153e-07
4.59298e-07
4.59263e-07
4.59076e-07
4.59258e-07
6.8531e-07
6.83572e-07
4.59182e-07
4.59156e-07
4.59179e-07
6.83827e-07
6.853e-07
6.83518e-07
4.59236e-07
4.59281e-07
4.5923e-07
4.59275e-07
6.85198e-07
6.83454e-07
4.59158e-07
4.59304e-07
4.5915e-07
4.59296e-07
4.59262e-07
4.59074e-07
4.59255e-07
6.85338e-07
6.83554e-07
4.59182e-07
4.59155e-07
4.59177e-07
6.83821e-07
6.85297e-07
6.83512e-07
4.59237e-07
4.59282e-07
4.59228e-07
4.59273e-07
6.85215e-07
6.83453e-07
4.59159e-07
4.59305e-07
4.59148e-07
4.59294e-07
4.59263e-07
4.59073e-07
4.59254e-07
6.85336e-07
6.83528e-07
4.59183e-07
4.59152e-07
4.59174e-07
6.83818e-07
6.85289e-07
6.83513e-07
4.59239e-07
4.59283e-07
4.59225e-07
4.5927e-07
6.85227e-07
6.83439e-07
4.59159e-07
4.59305e-07
4.59147e-07
4.59292e-07
4.59263e-07
4.5907e-07
4.59252e-07
6.85305e-07
6.83535e-07
4.59184e-07
4.5915e-07
4.59172e-07
6.83822e-07
6.85289e-07
6.83513e-07
4.5924e-07
4.59285e-07
4.59223e-07
4.59268e-07
6.85222e-07
6.83427e-07
4.5916e-07
4.59306e-07
4.59145e-07
4.5929e-07
4.59265e-07
4.59068e-07
4.5925e-07
6.85293e-07
6.83563e-07
4.59185e-07
4.59147e-07
4.59169e-07
6.83821e-07
6.85291e-07
6.83504e-07
4.59241e-07
4.59287e-07
4.5922e-07
4.59264e-07
6.85211e-07
6.8342e-07
4.59163e-07
4.59309e-07
4.59142e-07
4.59287e-07
4.59267e-07
4.59065e-07
4.59246e-07
6.85316e-07
6.83574e-07
4.59187e-07
4.59144e-07
4.59166e-07
6.8381e-07
6.85284e-07
6.83498e-07
4.59244e-07
4.59289e-07
4.59215e-07
4.59259e-07
6.85198e-07
6.83426e-07
4.59166e-07
4.59311e-07
4.59137e-07
4.59283e-07
4.59269e-07
4.59061e-07
4.59242e-07
6.85338e-07
6.83555e-07
4.59189e-07
4.59139e-07
4.59161e-07
6.83811e-07
6.85272e-07
6.83505e-07
4.59247e-07
4.59291e-07
4.59208e-07
4.59253e-07
6.85196e-07
6.83438e-07
4.59169e-07
4.59314e-07
4.5913e-07
4.59276e-07
4.59272e-07
4.59054e-07
4.59236e-07
6.8533e-07
6.83545e-07
4.59191e-07
4.59133e-07
4.59154e-07
6.8382e-07
6.85272e-07
6.83514e-07
4.59249e-07
4.59294e-07
4.592e-07
4.59246e-07
6.85208e-07
6.83437e-07
4.59171e-07
4.59317e-07
4.59122e-07
4.59268e-07
4.59276e-07
4.59045e-07
4.59227e-07
6.85314e-07
6.83562e-07
4.59194e-07
4.59125e-07
4.59146e-07
6.8382e-07
6.85282e-07
6.8352e-07
4.59253e-07
4.59299e-07
4.59189e-07
4.59234e-07
6.85217e-07
6.8343e-07
4.59175e-07
4.59321e-07
4.59111e-07
4.59255e-07
4.59279e-07
4.59034e-07
4.59215e-07
6.85328e-07
6.83564e-07
4.59197e-07
4.59112e-07
4.59134e-07
6.83818e-07
6.85289e-07
6.83515e-07
4.59257e-07
4.59302e-07
4.59169e-07
4.59213e-07
6.8521e-07
6.83415e-07
4.59179e-07
4.59322e-07
4.59092e-07
4.59235e-07
4.59282e-07
4.59013e-07
4.59196e-07
6.85338e-07
6.83526e-07
4.592e-07
4.59092e-07
4.59114e-07
6.83809e-07
6.85274e-07
6.835e-07
4.59255e-07
4.59299e-07
4.59137e-07
4.59179e-07
6.85177e-07
6.83417e-07
4.59177e-07
4.59321e-07
4.59061e-07
4.59203e-07
4.5928e-07
4.5898e-07
4.59161e-07
6.85301e-07
6.83506e-07
4.59199e-07
4.59059e-07
4.59077e-07
6.83792e-07
6.85237e-07
6.83343e-07
4.59242e-07
4.59281e-07
4.58824e-07
4.58862e-07
6.85154e-07
6.83269e-07
4.59164e-07
4.59305e-07
4.58741e-07
4.58881e-07
4.59265e-07
4.5867e-07
4.58849e-07
6.85243e-07
6.83363e-07
4.59179e-07
4.58738e-07
4.58755e-07
6.83603e-07
6.84968e-07
6.67644e-07
4.59119e-07
4.59155e-07
4.44221e-07
4.44257e-07
6.84896e-07
6.67596e-07
4.59035e-07
4.59181e-07
4.44184e-07
4.44233e-07
4.59147e-07
4.44143e-07
4.44231e-07
6.84968e-07
6.67649e-07
4.59048e-07
4.44164e-07
4.44184e-07
6.6768e-07
6.48974e-07
4.28619e-07
4.2865e-07
6.48941e-07
4.28597e-07
4.28625e-07
1.87272e-07
1.87264e-07
1.8727e-07
4.28625e-07
6.48977e-07
4.28598e-07
8.24025e-08
1.48242e-08
5.72532e-08
5.71511e-08
1.01322e-09
5.65129e-09
1.14522e-08
3.53269e-08
1.07754e-09
5.82689e-09
3.52685e-08
1.18473e-08
5.58659e-09
3.48232e-09
4.07112e-09
6.35171e-09
1.66099e-07
4.83855e-09
2.52662e-07
1.63096e-06
3.20207e-06
6.42891e-09
1.60126e-07
4.79195e-09
2.50542e-07
3.37864e-08
3.37037e-08
3.42483e-08
3.36452e-08
3.37771e-08
3.36681e-08
3.42402e-08
1.01709e-09
9.1303e-08
1.60899e-08
7.25707e-09
1.01772e-09
6.83769e-08
1.59974e-08
1.54548e-06
3.04406e-06
1.06842e-09
1.5726e-08
8.63023e-08
6.76838e-09
1.05569e-09
1.56226e-08
6.50092e-08
2.05226e-07
2.15057e-07
5.16252e-09
1.73261e-07
1.85084e-07
1.61388e-08
4.61164e-07
1.01819e-08
6.70137e-07
7.11028e-06
1.01161e-05
1.60882e-08
4.65363e-07
1.00983e-08
6.49735e-07