/*--------------------------------*- C++ -*----------------------------------*\
| =========                 |                                                 |
| \\      /  F ield         | OpenFOAM: The Open Source CFD Toolbox           |
|  \\    /   O peration     | Version:  v2012                                 |
|   \\  /    A nd           | Website:  www.openfoam.com                      |
|    \\/     M anipulation  |                                                 |
\*---------------------------------------------------------------------------*/
FoamFile
{
    version     2.0;
    format      ascii;
    class       volScalarField;
    location    "125";
    object      k;
}
// * * * * * * * * * * * * * * * * * * * * * * * * * * * * * * * * * * * * * //

dimensions      [0 2 -2 0 0 0 0];


internalField   nonuniform List<scalar> 
171728
(
3.58932e-05
3.58912e-05
3.58912e-05
3.59957e-05
3.39296e-05
3.3889e-05
3.3889e-05
3.39622e-05
3.21578e-05
3.20081e-05
3.20081e-05
3.19522e-05
3.05346e-05
3.02293e-05
3.02292e-05
2.99884e-05
2.90329e-05
2.8554e-05
2.85539e-05
2.81226e-05
2.76353e-05
2.69872e-05
2.69871e-05
2.63907e-05
2.63308e-05
2.5531e-05
2.55309e-05
2.48073e-05
2.51112e-05
2.4185e-05
2.41848e-05
2.33782e-05
2.39709e-05
2.29506e-05
2.29504e-05
2.21047e-05
2.29057e-05
2.18269e-05
2.18267e-05
2.0986e-05
2.1912e-05
2.08113e-05
2.08111e-05
2.00134e-05
2.09864e-05
1.99013e-05
1.99011e-05
1.91814e-05
2.01241e-05
1.90946e-05
1.90945e-05
1.84895e-05
1.93238e-05
1.83883e-05
1.83882e-05
1.7933e-05
1.85846e-05
1.77791e-05
1.77791e-05
1.75062e-05
1.79042e-05
1.72656e-05
1.72656e-05
1.72002e-05
1.72798e-05
1.68465e-05
1.68466e-05
1.70226e-05
1.67097e-05
1.65212e-05
1.65214e-05
1.69819e-05
1.61925e-05
1.62896e-05
1.62898e-05
1.7079e-05
1.57251e-05
1.61517e-05
1.6152e-05
1.7304e-05
1.53077e-05
1.61077e-05
1.61081e-05
1.76572e-05
1.49369e-05
1.61534e-05
1.6154e-05
1.81344e-05
1.46153e-05
1.62924e-05
1.62931e-05
1.87286e-05
1.43372e-05
1.65192e-05
1.65201e-05
1.94265e-05
1.41069e-05
1.68308e-05
1.68318e-05
2.02105e-05
1.39208e-05
1.72166e-05
1.72176e-05
2.1054e-05
1.3756e-05
1.76308e-05
1.7632e-05
2.18934e-05
1.36526e-05
1.80577e-05
1.80588e-05
2.2617e-05
1.34884e-05
1.82517e-05
1.82534e-05
2.29714e-05
1.32399e-05
1.82146e-05
1.82166e-05
2.30293e-05
1.30884e-05
1.81862e-05
1.81884e-05
2.30077e-05
1.30559e-05
1.82065e-05
1.82088e-05
2.30371e-05
1.30627e-05
1.82404e-05
1.82427e-05
2.30642e-05
1.30719e-05
1.82551e-05
1.82573e-05
2.30803e-05
1.30751e-05
1.82591e-05
1.82613e-05
2.30819e-05
1.3076e-05
1.82601e-05
1.82623e-05
2.30812e-05
1.30762e-05
1.82601e-05
1.82623e-05
2.30826e-05
1.30763e-05
1.82602e-05
1.82624e-05
2.30822e-05
1.30764e-05
1.82603e-05
1.82625e-05
2.30815e-05
1.30765e-05
1.82604e-05
1.82626e-05
2.30822e-05
1.30766e-05
1.82605e-05
1.82627e-05
2.30832e-05
1.30767e-05
1.82605e-05
1.82627e-05
2.30797e-05
1.30768e-05
1.82606e-05
1.82628e-05
2.30835e-05
1.30768e-05
1.82606e-05
1.82628e-05
2.30869e-05
1.30769e-05
1.82607e-05
1.82629e-05
2.30885e-05
1.30769e-05
1.82607e-05
1.82628e-05
2.30803e-05
1.30769e-05
1.82605e-05
1.82626e-05
2.30757e-05
1.30769e-05
1.82606e-05
1.82627e-05
2.30859e-05
1.30769e-05
1.82607e-05
1.82628e-05
2.30898e-05
1.30769e-05
1.82608e-05
1.82628e-05
2.30869e-05
1.30769e-05
1.82607e-05
1.82627e-05
2.30798e-05
1.30769e-05
1.82606e-05
1.82627e-05
2.30751e-05
1.30769e-05
1.82606e-05
1.82626e-05
2.30768e-05
1.30769e-05
1.82606e-05
1.82626e-05
2.30822e-05
1.30769e-05
1.82606e-05
1.82626e-05
2.30888e-05
1.30769e-05
1.82608e-05
1.82627e-05
2.30893e-05
1.3077e-05
1.82608e-05
1.82627e-05
2.30849e-05
1.3077e-05
1.82608e-05
1.82627e-05
2.30774e-05
1.3077e-05
1.82608e-05
1.82627e-05
2.30761e-05
1.3077e-05
1.82608e-05
1.82627e-05
2.30825e-05
1.3077e-05
1.82608e-05
1.82626e-05
2.30876e-05
1.3077e-05
1.82607e-05
1.82626e-05
2.30848e-05
1.3077e-05
1.82607e-05
1.82626e-05
2.3083e-05
1.3077e-05
1.82607e-05
1.82626e-05
2.30849e-05
1.3077e-05
1.82607e-05
1.82626e-05
2.30862e-05
1.3077e-05
1.82607e-05
1.82626e-05
2.30841e-05
1.3077e-05
1.82608e-05
1.82627e-05
2.30786e-05
1.3077e-05
1.82608e-05
1.82627e-05
2.30771e-05
1.3077e-05
1.82608e-05
1.82627e-05
2.30806e-05
1.3077e-05
1.82609e-05
1.82626e-05
2.30834e-05
1.3077e-05
1.82609e-05
1.82626e-05
2.30834e-05
1.3077e-05
1.82608e-05
1.82626e-05
2.30831e-05
1.3077e-05
1.82608e-05
1.82626e-05
2.30835e-05
1.3077e-05
1.82608e-05
1.82626e-05
2.3084e-05
1.3077e-05
1.82609e-05
1.82626e-05
2.30857e-05
1.3077e-05
1.82609e-05
1.82626e-05
2.30875e-05
1.3077e-05
1.82608e-05
1.82626e-05
2.30875e-05
1.3077e-05
1.82608e-05
1.82626e-05
2.30842e-05
1.3077e-05
1.82608e-05
1.82626e-05
2.30796e-05
1.3077e-05
1.82608e-05
1.82626e-05
2.30794e-05
1.3077e-05
1.82608e-05
1.82625e-05
2.30797e-05
1.3077e-05
1.82607e-05
1.82625e-05
2.30778e-05
1.3077e-05
1.82607e-05
1.82625e-05
2.30773e-05
1.3077e-05
1.82607e-05
1.82625e-05
2.30789e-05
1.3077e-05
1.82607e-05
1.82625e-05
2.3082e-05
1.3077e-05
1.82608e-05
1.82625e-05
2.30856e-05
1.3077e-05
1.82609e-05
1.82626e-05
2.30878e-05
1.3077e-05
1.8261e-05
1.82627e-05
2.30877e-05
1.3077e-05
1.82612e-05
1.82629e-05
2.30847e-05
1.30771e-05
1.82616e-05
1.82633e-05
2.30801e-05
1.30771e-05
1.8262e-05
1.82637e-05
2.30795e-05
1.30773e-05
1.82627e-05
1.82644e-05
2.30815e-05
1.30773e-05
1.82635e-05
1.82651e-05
2.3083e-05
1.30737e-05
1.82606e-05
1.82622e-05
2.30792e-05
1.29551e-05
1.76032e-05
1.76035e-05
2.23356e-05
3.63068e-05
3.6291e-05
3.6291e-05
3.63068e-05
3.6291e-05
3.6291e-05
3.6423e-05
3.6423e-05
3.6423e-05
3.6423e-05
3.6291e-05
3.6291e-05
3.63068e-05
3.6291e-05
3.6291e-05
3.63068e-05
3.59957e-05
3.42687e-05
3.58912e-05
3.58912e-05
3.43767e-05
3.43766e-05
3.59957e-05
3.42687e-05
3.58911e-05
3.58912e-05
3.43767e-05
3.43766e-05
3.58912e-05
3.43767e-05
3.43767e-05
3.59957e-05
3.42687e-05
3.58912e-05
3.43767e-05
3.43767e-05
3.42687e-05
3.39622e-05
3.22635e-05
3.38889e-05
3.38889e-05
3.24684e-05
3.24683e-05
3.39623e-05
3.22635e-05
3.38889e-05
3.38889e-05
3.24684e-05
3.24683e-05
3.38889e-05
3.24685e-05
3.24684e-05
3.39622e-05
3.22634e-05
3.38889e-05
3.24685e-05
3.24684e-05
3.22635e-05
3.19522e-05
3.02993e-05
3.20079e-05
3.20078e-05
3.06643e-05
3.06642e-05
3.19522e-05
3.02994e-05
3.2008e-05
3.20078e-05
3.06644e-05
3.06641e-05
3.20079e-05
3.06646e-05
3.06643e-05
3.19521e-05
3.02992e-05
3.2008e-05
3.06645e-05
3.06644e-05
3.02992e-05
2.99885e-05
2.84253e-05
3.0229e-05
3.02288e-05
2.89624e-05
2.89622e-05
2.99885e-05
2.84255e-05
3.02291e-05
3.02287e-05
2.89626e-05
2.89621e-05
3.02289e-05
2.89628e-05
2.89623e-05
2.99884e-05
2.84252e-05
3.02291e-05
2.89627e-05
2.89626e-05
2.84252e-05
2.81227e-05
2.6674e-05
2.85536e-05
2.85534e-05
2.7368e-05
2.73678e-05
2.81228e-05
2.66742e-05
2.85538e-05
2.85533e-05
2.73683e-05
2.73676e-05
2.85535e-05
2.73685e-05
2.73679e-05
2.81226e-05
2.66739e-05
2.85538e-05
2.73684e-05
2.73683e-05
2.66738e-05
2.63908e-05
2.50663e-05
2.69866e-05
2.69864e-05
2.58841e-05
2.58838e-05
2.6391e-05
2.50665e-05
2.69869e-05
2.69862e-05
2.58845e-05
2.58836e-05
2.69865e-05
2.58848e-05
2.5884e-05
2.63907e-05
2.50661e-05
2.69869e-05
2.58846e-05
2.58844e-05
2.50661e-05
2.48075e-05
2.36125e-05
2.55303e-05
2.553e-05
2.45103e-05
2.45099e-05
2.48077e-05
2.36127e-05
2.55308e-05
2.55299e-05
2.45107e-05
2.45097e-05
2.55302e-05
2.45111e-05
2.45102e-05
2.48073e-05
2.36123e-05
2.55307e-05
2.45108e-05
2.45107e-05
2.36123e-05
2.33784e-05
2.23125e-05
2.41842e-05
2.41838e-05
2.32479e-05
2.32475e-05
2.33785e-05
2.23126e-05
2.41847e-05
2.41836e-05
2.32484e-05
2.32473e-05
2.41841e-05
2.32488e-05
2.32478e-05
2.33782e-05
2.23122e-05
2.41846e-05
2.32485e-05
2.32484e-05
2.23122e-05
2.21049e-05
2.11681e-05
2.29497e-05
2.29494e-05
2.20966e-05
2.20962e-05
2.21051e-05
2.11683e-05
2.29503e-05
2.29491e-05
2.20972e-05
2.2096e-05
2.29496e-05
2.20976e-05
2.20965e-05
2.21047e-05
2.11679e-05
2.29503e-05
2.20974e-05
2.20972e-05
2.11678e-05
2.09863e-05
2.01708e-05
2.18258e-05
2.18255e-05
2.10542e-05
2.10539e-05
2.09865e-05
2.01709e-05
2.18265e-05
2.18253e-05
2.1055e-05
2.10536e-05
2.18257e-05
2.10553e-05
2.10541e-05
2.09861e-05
2.01705e-05
2.18265e-05
2.10551e-05
2.1055e-05
2.01704e-05
2.00137e-05
1.93146e-05
2.08102e-05
2.08099e-05
2.0118e-05
2.01177e-05
2.00138e-05
1.93148e-05
2.0811e-05
2.08097e-05
2.01188e-05
2.01175e-05
2.08102e-05
2.01191e-05
2.0118e-05
2.00134e-05
1.93144e-05
2.0811e-05
2.01189e-05
2.01188e-05
1.93143e-05
1.91817e-05
1.85904e-05
1.99002e-05
1.98998e-05
1.92856e-05
1.92853e-05
1.91818e-05
1.85906e-05
1.9901e-05
1.98996e-05
1.92864e-05
1.92851e-05
1.99001e-05
1.92867e-05
1.92856e-05
1.91815e-05
1.85902e-05
1.9901e-05
1.92866e-05
1.92865e-05
1.859e-05
1.84898e-05
1.79978e-05
1.90935e-05
1.90932e-05
1.85546e-05
1.85543e-05
1.84899e-05
1.7998e-05
1.90944e-05
1.9093e-05
1.85554e-05
1.85541e-05
1.90935e-05
1.85557e-05
1.85546e-05
1.84896e-05
1.79976e-05
1.90944e-05
1.85555e-05
1.85555e-05
1.79975e-05
1.79333e-05
1.75393e-05
1.83873e-05
1.8387e-05
1.79216e-05
1.79213e-05
1.79333e-05
1.75393e-05
1.83881e-05
1.83868e-05
1.79224e-05
1.79212e-05
1.83872e-05
1.79226e-05
1.79215e-05
1.79331e-05
1.75392e-05
1.83881e-05
1.79225e-05
1.79224e-05
1.7539e-05
1.75065e-05
1.72177e-05
1.77782e-05
1.77779e-05
1.7384e-05
1.73838e-05
1.75065e-05
1.72177e-05
1.7779e-05
1.77778e-05
1.73848e-05
1.73837e-05
1.77781e-05
1.73848e-05
1.7384e-05
1.75063e-05
1.72176e-05
1.7779e-05
1.73848e-05
1.73848e-05
1.72175e-05
1.72004e-05
1.70261e-05
1.72648e-05
1.72646e-05
1.6941e-05
1.69409e-05
1.72004e-05
1.70259e-05
1.72655e-05
1.72644e-05
1.69417e-05
1.69408e-05
1.72647e-05
1.69417e-05
1.6941e-05
1.72003e-05
1.7026e-05
1.72655e-05
1.69418e-05
1.69418e-05
1.70259e-05
1.70228e-05
1.69727e-05
1.68458e-05
1.68456e-05
1.65923e-05
1.65921e-05
1.70226e-05
1.69724e-05
1.68465e-05
1.68456e-05
1.65929e-05
1.65922e-05
1.68458e-05
1.65928e-05
1.65922e-05
1.70227e-05
1.69727e-05
1.68465e-05
1.6593e-05
1.6593e-05
1.69725e-05
1.6982e-05
1.70435e-05
1.65207e-05
1.65206e-05
1.63371e-05
1.6337e-05
1.69817e-05
1.70432e-05
1.65214e-05
1.65206e-05
1.63377e-05
1.63371e-05
1.65207e-05
1.63375e-05
1.63371e-05
1.6982e-05
1.70436e-05
1.65214e-05
1.63377e-05
1.63377e-05
1.70435e-05
1.70791e-05
1.72437e-05
1.62893e-05
1.62892e-05
1.61753e-05
1.61753e-05
1.70787e-05
1.72433e-05
1.62899e-05
1.62893e-05
1.61759e-05
1.61755e-05
1.62892e-05
1.61755e-05
1.61753e-05
1.70792e-05
1.72439e-05
1.62899e-05
1.61758e-05
1.61759e-05
1.72437e-05
1.7304e-05
1.75723e-05
1.61515e-05
1.61515e-05
1.61075e-05
1.61077e-05
1.73036e-05
1.75718e-05
1.61521e-05
1.61517e-05
1.6108e-05
1.61079e-05
1.61515e-05
1.61075e-05
1.61076e-05
1.73042e-05
1.75726e-05
1.61521e-05
1.6108e-05
1.61081e-05
1.75724e-05
1.7657e-05
1.80256e-05
1.61076e-05
1.61079e-05
1.61332e-05
1.61335e-05
1.76566e-05
1.80251e-05
1.61082e-05
1.61081e-05
1.61337e-05
1.61338e-05
1.61077e-05
1.61331e-05
1.61333e-05
1.76573e-05
1.80261e-05
1.61083e-05
1.61336e-05
1.61338e-05
1.8026e-05
1.81341e-05
1.8597e-05
1.61534e-05
1.61538e-05
1.62491e-05
1.62495e-05
1.81336e-05
1.85964e-05
1.6154e-05
1.61541e-05
1.62495e-05
1.62499e-05
1.61536e-05
1.62489e-05
1.62493e-05
1.81345e-05
1.85976e-05
1.61541e-05
1.62495e-05
1.62498e-05
1.85975e-05
1.87282e-05
1.92749e-05
1.62927e-05
1.62932e-05
1.64553e-05
1.64559e-05
1.87276e-05
1.92743e-05
1.62931e-05
1.62936e-05
1.64557e-05
1.64564e-05
1.62929e-05
1.64549e-05
1.64556e-05
1.87287e-05
1.92757e-05
1.62934e-05
1.64557e-05
1.64561e-05
1.92755e-05
1.94259e-05
2.00413e-05
1.65197e-05
1.65202e-05
1.67448e-05
1.67454e-05
1.94252e-05
2.00405e-05
1.652e-05
1.65207e-05
1.6745e-05
1.6746e-05
1.652e-05
1.67442e-05
1.67452e-05
1.94266e-05
2.00422e-05
1.65204e-05
1.67451e-05
1.67456e-05
2.00421e-05
2.02098e-05
2.08742e-05
1.68315e-05
1.68321e-05
1.71179e-05
1.71185e-05
2.0209e-05
2.08733e-05
1.68317e-05
1.68327e-05
1.71179e-05
1.71192e-05
1.68319e-05
1.7117e-05
1.71183e-05
2.02106e-05
2.08751e-05
1.68322e-05
1.7118e-05
1.71186e-05
2.08751e-05
2.10531e-05
2.17161e-05
1.72175e-05
1.72182e-05
1.75246e-05
1.75254e-05
2.10522e-05
2.17151e-05
1.72175e-05
1.72188e-05
1.75245e-05
1.7526e-05
1.72179e-05
1.75235e-05
1.75252e-05
2.10539e-05
2.17171e-05
1.72182e-05
1.75246e-05
1.75252e-05
2.17172e-05
2.18925e-05
2.24707e-05
1.7632e-05
1.76327e-05
1.79616e-05
1.79622e-05
2.18915e-05
2.24698e-05
1.76318e-05
1.76333e-05
1.79612e-05
1.79632e-05
1.76325e-05
1.79605e-05
1.79622e-05
2.18933e-05
2.24722e-05
1.76325e-05
1.79615e-05
1.7962e-05
2.2472e-05
2.26156e-05
2.29005e-05
1.80588e-05
1.80594e-05
1.82348e-05
1.82355e-05
2.26147e-05
2.28994e-05
1.80583e-05
1.80605e-05
1.82343e-05
1.82363e-05
1.80595e-05
1.82334e-05
1.82358e-05
2.26171e-05
2.2902e-05
1.80592e-05
1.8235e-05
1.82353e-05
2.29022e-05
2.29697e-05
2.29936e-05
1.82532e-05
1.82539e-05
1.82413e-05
1.8242e-05
2.29686e-05
2.29922e-05
1.82528e-05
1.82547e-05
1.8241e-05
1.82426e-05
1.82543e-05
1.82397e-05
1.82425e-05
2.2971e-05
2.29945e-05
1.82538e-05
1.82416e-05
1.8242e-05
2.29951e-05
2.30277e-05
2.29701e-05
1.82163e-05
1.8217e-05
1.81889e-05
1.81896e-05
2.30263e-05
2.29684e-05
1.8216e-05
1.82174e-05
1.81888e-05
1.81899e-05
1.82175e-05
1.8187e-05
1.81903e-05
2.30284e-05
2.29709e-05
1.8217e-05
1.81892e-05
1.81898e-05
2.29718e-05
2.30059e-05
2.29951e-05
1.81881e-05
1.81888e-05
1.81968e-05
1.81975e-05
2.30043e-05
2.29933e-05
1.8188e-05
1.81891e-05
1.81966e-05
1.81976e-05
1.81895e-05
1.81947e-05
1.81981e-05
2.30065e-05
2.29956e-05
1.8189e-05
1.8197e-05
1.81977e-05
2.29967e-05
2.30354e-05
2.30245e-05
1.82084e-05
1.82091e-05
1.8236e-05
1.82367e-05
2.30337e-05
2.30227e-05
1.82083e-05
1.82092e-05
1.82358e-05
1.82368e-05
1.82097e-05
1.82339e-05
1.82373e-05
2.30358e-05
2.30249e-05
1.82093e-05
1.82361e-05
1.82368e-05
2.30259e-05
2.30626e-05
2.30424e-05
1.82424e-05
1.82431e-05
1.82548e-05
1.82555e-05
2.30608e-05
2.30405e-05
1.82423e-05
1.82432e-05
1.82547e-05
1.82556e-05
1.82437e-05
1.82527e-05
1.82561e-05
2.30629e-05
2.30428e-05
1.82432e-05
1.82549e-05
1.82557e-05
2.30438e-05
2.30789e-05
2.30453e-05
1.8257e-05
1.82577e-05
1.82605e-05
1.82612e-05
2.30771e-05
2.30435e-05
1.82569e-05
1.82579e-05
1.82604e-05
1.82613e-05
1.82584e-05
1.82585e-05
1.82618e-05
2.30792e-05
2.30458e-05
1.82579e-05
1.82607e-05
1.82613e-05
2.30468e-05
2.30804e-05
2.30443e-05
1.8261e-05
1.82617e-05
1.8262e-05
1.82627e-05
2.30786e-05
2.30425e-05
1.82609e-05
1.82618e-05
1.8262e-05
1.82629e-05
1.82623e-05
1.826e-05
1.82634e-05
2.30807e-05
2.30448e-05
1.82619e-05
1.82622e-05
1.82629e-05
2.30458e-05
2.30797e-05
2.30459e-05
1.8262e-05
1.82628e-05
1.82621e-05
1.82629e-05
2.3078e-05
2.30441e-05
1.82621e-05
1.82629e-05
1.82621e-05
1.8263e-05
1.82634e-05
1.82601e-05
1.82635e-05
2.30801e-05
2.30464e-05
1.82629e-05
1.82623e-05
1.8263e-05
2.30474e-05
2.30811e-05
2.30451e-05
1.8262e-05
1.82628e-05
1.82621e-05
1.82629e-05
2.30793e-05
2.30432e-05
1.82621e-05
1.8263e-05
1.82621e-05
1.8263e-05
1.82635e-05
1.82601e-05
1.82635e-05
2.30815e-05
2.30455e-05
1.82629e-05
1.82624e-05
1.8263e-05
2.30466e-05
2.30806e-05
2.30446e-05
1.82621e-05
1.82629e-05
1.82621e-05
1.8263e-05
2.30789e-05
2.30428e-05
1.82621e-05
1.8263e-05
1.82622e-05
1.82631e-05
1.82635e-05
1.82602e-05
1.82636e-05
2.3081e-05
2.30452e-05
1.8263e-05
1.82624e-05
1.82631e-05
2.30462e-05
2.30799e-05
2.3046e-05
1.82621e-05
1.8263e-05
1.82622e-05
1.82631e-05
2.30782e-05
2.30441e-05
1.82622e-05
1.82631e-05
1.82623e-05
1.82632e-05
1.82636e-05
1.82603e-05
1.82637e-05
2.30803e-05
2.30465e-05
1.82631e-05
1.82626e-05
1.82632e-05
2.30475e-05
2.30807e-05
2.30458e-05
1.82622e-05
1.82631e-05
1.82622e-05
1.82631e-05
2.30789e-05
2.3044e-05
1.82623e-05
1.82632e-05
1.82624e-05
1.82633e-05
1.82637e-05
1.82604e-05
1.82638e-05
2.30811e-05
2.30462e-05
1.82631e-05
1.82626e-05
1.82633e-05
2.30473e-05
2.30816e-05
2.30436e-05
1.82622e-05
1.82631e-05
1.82623e-05
1.82631e-05
2.30799e-05
2.30422e-05
1.82624e-05
1.82633e-05
1.82625e-05
1.82634e-05
1.82638e-05
1.82605e-05
1.82639e-05
2.3082e-05
2.30443e-05
1.82633e-05
1.82627e-05
1.82633e-05
2.30453e-05
2.30778e-05
2.30488e-05
1.82623e-05
1.82631e-05
1.82624e-05
1.82632e-05
2.30765e-05
2.30471e-05
1.82625e-05
1.82633e-05
1.82626e-05
1.82635e-05
1.82638e-05
1.82606e-05
1.8264e-05
2.30785e-05
2.30492e-05
1.82633e-05
1.82628e-05
1.82634e-05
2.30499e-05
2.30822e-05
2.30494e-05
1.82623e-05
1.82632e-05
1.82624e-05
1.82633e-05
2.30809e-05
2.30469e-05
1.82626e-05
1.82635e-05
1.82627e-05
1.82636e-05
1.82639e-05
1.82607e-05
1.82641e-05
2.30828e-05
2.30494e-05
1.82634e-05
1.82629e-05
1.82635e-05
2.30512e-05
2.30852e-05
2.30474e-05
1.82624e-05
1.82632e-05
1.82625e-05
1.82633e-05
2.3083e-05
2.30451e-05
1.82627e-05
1.82635e-05
1.82628e-05
1.82636e-05
1.8264e-05
1.82607e-05
1.82641e-05
2.30853e-05
2.30476e-05
1.82634e-05
1.82629e-05
1.82635e-05
2.30499e-05
2.30862e-05
2.30382e-05
1.82624e-05
1.82633e-05
1.82623e-05
1.82631e-05
2.30842e-05
2.30364e-05
1.82628e-05
1.82636e-05
1.82626e-05
1.82634e-05
1.8264e-05
1.82605e-05
1.82639e-05
2.30864e-05
2.30386e-05
1.82635e-05
1.82627e-05
1.82634e-05
2.30401e-05
2.30769e-05
2.30427e-05
1.82624e-05
1.82632e-05
1.82623e-05
1.82631e-05
2.30752e-05
2.30406e-05
1.82627e-05
1.82635e-05
1.82626e-05
1.82634e-05
1.8264e-05
1.82605e-05
1.82639e-05
2.30774e-05
2.30428e-05
1.82635e-05
1.82626e-05
1.82633e-05
2.30431e-05
2.30749e-05
2.30529e-05
1.82623e-05
1.82631e-05
1.82626e-05
1.82633e-05
2.30729e-05
2.3051e-05
1.82626e-05
1.82634e-05
1.82628e-05
1.82636e-05
1.82638e-05
1.82607e-05
1.82641e-05
2.3075e-05
2.30532e-05
1.82633e-05
1.82628e-05
1.82635e-05
2.30539e-05
2.30851e-05
2.30512e-05
1.82624e-05
1.82631e-05
1.82626e-05
1.82633e-05
2.3083e-05
2.30497e-05
1.82626e-05
1.82634e-05
1.82628e-05
1.82636e-05
1.82639e-05
1.82608e-05
1.82641e-05
2.30851e-05
2.30517e-05
1.82633e-05
1.82628e-05
1.82636e-05
2.3053e-05
2.30884e-05
2.30436e-05
1.82625e-05
1.82633e-05
1.82625e-05
1.82632e-05
2.30868e-05
2.30419e-05
1.82627e-05
1.82635e-05
1.82627e-05
1.82635e-05
1.8264e-05
1.82606e-05
1.8264e-05
2.30887e-05
2.3044e-05
1.82635e-05
1.82627e-05
1.82635e-05
2.30462e-05
2.30845e-05
2.30384e-05
1.82626e-05
1.82633e-05
1.82625e-05
1.82632e-05
2.30829e-05
2.30366e-05
1.82627e-05
1.82636e-05
1.82626e-05
1.82634e-05
1.8264e-05
1.82606e-05
1.82639e-05
2.30849e-05
2.30388e-05
1.82635e-05
1.82626e-05
1.82634e-05
2.304e-05
2.3077e-05
2.304e-05
1.82626e-05
1.82632e-05
1.82626e-05
1.82632e-05
2.30751e-05
2.30383e-05
1.82626e-05
1.82635e-05
1.82625e-05
1.82634e-05
1.8264e-05
1.82606e-05
1.82639e-05
2.30773e-05
2.30403e-05
1.82634e-05
1.82626e-05
1.82633e-05
2.30408e-05
2.30736e-05
2.30444e-05
1.82625e-05
1.82632e-05
1.82626e-05
1.82632e-05
2.3072e-05
2.30423e-05
1.82625e-05
1.82634e-05
1.82626e-05
1.82635e-05
1.82639e-05
1.82606e-05
1.82639e-05
2.3074e-05
2.30445e-05
1.82633e-05
1.82626e-05
1.82634e-05
2.30448e-05
2.3076e-05
2.30504e-05
1.82626e-05
1.82632e-05
1.82628e-05
1.82633e-05
2.30741e-05
2.30479e-05
1.82625e-05
1.82634e-05
1.82626e-05
1.82635e-05
1.82639e-05
1.82607e-05
1.8264e-05
2.30761e-05
2.30502e-05
1.82633e-05
1.82627e-05
1.82634e-05
2.30514e-05
2.30811e-05
2.30528e-05
1.82626e-05
1.82632e-05
1.82629e-05
1.82634e-05
2.30787e-05
2.30511e-05
1.82625e-05
1.82634e-05
1.82627e-05
1.82636e-05
1.82639e-05
1.82608e-05
1.82641e-05
2.30809e-05
2.30531e-05
1.82633e-05
1.82627e-05
1.82635e-05
2.30545e-05
2.30863e-05
2.30516e-05
1.82627e-05
1.82632e-05
1.82629e-05
1.82634e-05
2.30842e-05
2.30499e-05
1.82625e-05
1.82634e-05
1.82627e-05
1.82636e-05
1.82639e-05
1.82608e-05
1.82641e-05
2.30863e-05
2.30519e-05
1.82633e-05
1.82627e-05
1.82635e-05
2.30512e-05
2.30879e-05
2.30485e-05
1.82628e-05
1.82633e-05
1.82629e-05
1.82634e-05
2.30864e-05
2.30455e-05
1.82626e-05
1.82635e-05
1.82626e-05
1.82636e-05
1.8264e-05
1.82608e-05
1.8264e-05
2.30882e-05
2.3048e-05
1.82634e-05
1.82627e-05
1.82634e-05
2.30436e-05
2.30871e-05
2.30446e-05
1.82629e-05
1.82633e-05
1.82629e-05
1.82633e-05
2.30848e-05
2.30403e-05
1.82626e-05
1.82635e-05
1.82626e-05
1.82635e-05
1.8264e-05
1.82607e-05
1.8264e-05
2.30869e-05
2.30433e-05
1.82634e-05
1.82626e-05
1.82634e-05
2.304e-05
2.30852e-05
2.30405e-05
1.82629e-05
1.82633e-05
1.82629e-05
1.82633e-05
2.30814e-05
2.30375e-05
1.82626e-05
1.82635e-05
1.82625e-05
1.82635e-05
1.8264e-05
1.82607e-05
1.8264e-05
2.30842e-05
2.304e-05
1.82634e-05
1.82626e-05
1.82634e-05
2.3043e-05
2.30813e-05
2.3039e-05
1.82629e-05
1.82633e-05
1.82629e-05
1.82633e-05
2.30764e-05
2.30382e-05
1.82625e-05
1.82635e-05
1.82625e-05
1.82635e-05
1.82639e-05
1.82607e-05
1.82641e-05
2.30799e-05
2.30394e-05
1.82633e-05
1.82626e-05
1.82635e-05
2.3051e-05
2.30763e-05
2.30405e-05
1.82629e-05
1.82633e-05
1.8263e-05
1.82633e-05
2.30731e-05
2.30407e-05
1.82625e-05
1.82635e-05
1.82625e-05
1.82635e-05
1.8264e-05
1.82608e-05
1.82641e-05
2.30755e-05
2.30417e-05
1.82634e-05
1.82626e-05
1.82635e-05
2.30519e-05
2.30741e-05
2.30442e-05
1.82629e-05
1.82633e-05
1.8263e-05
1.82634e-05
2.30737e-05
2.30438e-05
1.82624e-05
1.82635e-05
1.82625e-05
1.82636e-05
1.82641e-05
1.82608e-05
1.82641e-05
2.30748e-05
2.30461e-05
1.82634e-05
1.82626e-05
1.82634e-05
2.3046e-05
2.3076e-05
2.30491e-05
1.8263e-05
1.82633e-05
1.82631e-05
1.82634e-05
2.30755e-05
2.30475e-05
1.82624e-05
1.82635e-05
1.82625e-05
1.82636e-05
1.82641e-05
1.82608e-05
1.82641e-05
2.30776e-05
2.30495e-05
1.82634e-05
1.82627e-05
1.82634e-05
2.30439e-05
2.30799e-05
2.3052e-05
1.8263e-05
1.82633e-05
1.82631e-05
1.82634e-05
2.30786e-05
2.30493e-05
1.82624e-05
1.82635e-05
1.82626e-05
1.82636e-05
1.8264e-05
1.82608e-05
1.82641e-05
2.30806e-05
2.30508e-05
1.82634e-05
1.82627e-05
1.82634e-05
2.30456e-05
2.30839e-05
2.30524e-05
1.8263e-05
1.82633e-05
1.82632e-05
1.82634e-05
2.30811e-05
2.30501e-05
1.82624e-05
1.82635e-05
1.82626e-05
1.82636e-05
1.82641e-05
1.82608e-05
1.82641e-05
2.30823e-05
2.30516e-05
1.82634e-05
1.82627e-05
1.82634e-05
2.30466e-05
2.30866e-05
2.30513e-05
1.82631e-05
1.82633e-05
1.82632e-05
1.82634e-05
2.3083e-05
2.30502e-05
1.82625e-05
1.82635e-05
1.82626e-05
1.82636e-05
1.8264e-05
1.82608e-05
1.82641e-05
2.30836e-05
2.30522e-05
1.82634e-05
1.82627e-05
1.82634e-05
2.30437e-05
2.30872e-05
2.30499e-05
1.82631e-05
1.82633e-05
1.82632e-05
1.82634e-05
2.30844e-05
2.30498e-05
1.82625e-05
1.82635e-05
1.82626e-05
1.82636e-05
1.8264e-05
1.82608e-05
1.8264e-05
2.30853e-05
2.30522e-05
1.82634e-05
1.82627e-05
1.82633e-05
2.30411e-05
2.30869e-05
2.30494e-05
1.82631e-05
1.82633e-05
1.82632e-05
1.82634e-05
2.30853e-05
2.30486e-05
1.82625e-05
1.82635e-05
1.82626e-05
1.82636e-05
1.8264e-05
1.82608e-05
1.8264e-05
2.30869e-05
2.30507e-05
1.82633e-05
1.82627e-05
1.82633e-05
2.30433e-05
2.30868e-05
2.30488e-05
1.82631e-05
1.82633e-05
1.82632e-05
1.82634e-05
2.30855e-05
2.3047e-05
1.82625e-05
1.82635e-05
1.82626e-05
1.82636e-05
1.8264e-05
1.82608e-05
1.8264e-05
2.3087e-05
2.30495e-05
1.82633e-05
1.82627e-05
1.82633e-05
2.30479e-05
2.30867e-05
2.30474e-05
1.82631e-05
1.82633e-05
1.82632e-05
1.82634e-05
2.3085e-05
2.30443e-05
1.82625e-05
1.82635e-05
1.82626e-05
1.82636e-05
1.8264e-05
1.82608e-05
1.8264e-05
2.30863e-05
2.30502e-05
1.82633e-05
1.82627e-05
1.82633e-05
2.30494e-05
2.30857e-05
2.30477e-05
1.82632e-05
1.82633e-05
1.82632e-05
1.82634e-05
2.30836e-05
2.30418e-05
1.82625e-05
1.82635e-05
1.82626e-05
1.82636e-05
1.8264e-05
1.82608e-05
1.8264e-05
2.30863e-05
2.30511e-05
1.82632e-05
1.82627e-05
1.82633e-05
2.30487e-05
2.30856e-05
2.30496e-05
1.82632e-05
1.82634e-05
1.82632e-05
1.82634e-05
2.30812e-05
2.3044e-05
1.82625e-05
1.82635e-05
1.82626e-05
1.82636e-05
1.8264e-05
1.82608e-05
1.8264e-05
2.30867e-05
2.30508e-05
1.82632e-05
1.82627e-05
1.82633e-05
2.30486e-05
2.30866e-05
2.30503e-05
1.82631e-05
1.82633e-05
1.82632e-05
1.82634e-05
2.30823e-05
2.30484e-05
1.82625e-05
1.82635e-05
1.82626e-05
1.82636e-05
1.8264e-05
1.82608e-05
1.8264e-05
2.30867e-05
2.30507e-05
1.82632e-05
1.82627e-05
1.82633e-05
2.30493e-05
2.30873e-05
2.30485e-05
1.82631e-05
1.82633e-05
1.82632e-05
1.82634e-05
2.30846e-05
2.30494e-05
1.82625e-05
1.82635e-05
1.82625e-05
1.82636e-05
1.8264e-05
1.82608e-05
1.8264e-05
2.30865e-05
2.30511e-05
1.82632e-05
1.82627e-05
1.82633e-05
2.305e-05
2.30866e-05
2.30459e-05
1.82632e-05
1.82633e-05
1.82632e-05
1.82634e-05
2.30858e-05
2.30471e-05
1.82625e-05
1.82635e-05
1.82625e-05
1.82636e-05
1.8264e-05
1.82608e-05
1.82641e-05
2.30867e-05
2.3051e-05
1.82632e-05
1.82626e-05
1.82633e-05
2.30516e-05
2.3085e-05
2.30454e-05
1.82632e-05
1.82633e-05
1.82632e-05
1.82633e-05
2.30854e-05
2.30407e-05
1.82625e-05
1.82635e-05
1.82625e-05
1.82636e-05
1.8264e-05
1.82608e-05
1.82641e-05
2.30869e-05
2.30504e-05
1.82632e-05
1.82626e-05
1.82633e-05
2.30521e-05
2.30844e-05
2.30474e-05
1.82632e-05
1.82634e-05
1.82632e-05
1.82633e-05
2.30812e-05
2.30384e-05
1.82625e-05
1.82635e-05
1.82625e-05
1.82636e-05
1.8264e-05
1.82607e-05
1.82641e-05
2.30866e-05
2.30505e-05
1.82632e-05
1.82626e-05
1.82633e-05
2.305e-05
2.30855e-05
2.30488e-05
1.82632e-05
1.82633e-05
1.82632e-05
1.82634e-05
2.30735e-05
2.30466e-05
1.82625e-05
1.82635e-05
1.82625e-05
1.82636e-05
1.82641e-05
1.82608e-05
1.8264e-05
2.30864e-05
2.30511e-05
1.82633e-05
1.82626e-05
1.82632e-05
2.3045e-05
2.30863e-05
2.3049e-05
1.82632e-05
1.82633e-05
1.82632e-05
1.82634e-05
2.30804e-05
2.30496e-05
1.82625e-05
1.82635e-05
1.82625e-05
1.82636e-05
1.8264e-05
1.82608e-05
1.8264e-05
2.30867e-05
2.30513e-05
1.82632e-05
1.82626e-05
1.82632e-05
2.30427e-05
2.30865e-05
2.30486e-05
1.82632e-05
1.82633e-05
1.82632e-05
1.82633e-05
2.30836e-05
2.305e-05
1.82625e-05
1.82635e-05
1.82625e-05
1.82636e-05
1.8264e-05
1.82607e-05
1.8264e-05
2.3087e-05
2.30506e-05
1.82632e-05
1.82625e-05
1.82632e-05
2.30446e-05
2.30863e-05
2.30482e-05
1.82632e-05
1.82633e-05
1.82631e-05
1.82633e-05
2.30845e-05
2.30494e-05
1.82625e-05
1.82635e-05
1.82625e-05
1.82635e-05
1.8264e-05
1.82607e-05
1.8264e-05
2.30871e-05
2.30496e-05
1.82632e-05
1.82625e-05
1.82632e-05
2.30454e-05
2.3086e-05
2.30483e-05
1.82632e-05
1.82633e-05
1.82631e-05
1.82633e-05
2.3085e-05
2.30486e-05
1.82625e-05
1.82635e-05
1.82624e-05
1.82635e-05
1.8264e-05
1.82607e-05
1.8264e-05
2.30867e-05
2.30489e-05
1.82632e-05
1.82624e-05
1.82632e-05
2.30445e-05
2.30859e-05
2.30488e-05
1.82631e-05
1.82633e-05
1.82631e-05
1.82632e-05
2.3085e-05
2.3048e-05
1.82625e-05
1.82635e-05
1.82624e-05
1.82634e-05
1.8264e-05
1.82606e-05
1.82639e-05
2.30863e-05
2.30492e-05
1.82632e-05
1.82623e-05
1.82631e-05
2.30447e-05
2.30861e-05
2.30493e-05
1.82631e-05
1.82633e-05
1.8263e-05
1.82632e-05
2.30849e-05
2.30472e-05
1.82624e-05
1.82635e-05
1.82623e-05
1.82634e-05
1.82639e-05
1.82605e-05
1.82638e-05
2.30862e-05
2.30502e-05
1.82631e-05
1.82623e-05
1.8263e-05
2.30472e-05
2.3086e-05
2.30501e-05
1.82631e-05
1.82633e-05
1.82629e-05
1.82631e-05
2.30846e-05
2.30466e-05
1.82624e-05
1.82634e-05
1.82622e-05
1.82633e-05
1.82639e-05
1.82605e-05
1.82638e-05
2.30864e-05
2.30509e-05
1.82631e-05
1.82622e-05
1.8263e-05
2.30506e-05
2.30858e-05
2.3051e-05
1.8263e-05
1.82632e-05
1.82629e-05
1.8263e-05
2.3084e-05
2.30475e-05
1.82624e-05
1.82634e-05
1.82622e-05
1.82632e-05
1.82639e-05
1.82604e-05
1.82637e-05
2.30866e-05
2.30509e-05
1.82631e-05
1.82622e-05
1.82629e-05
2.30526e-05
2.30857e-05
2.30515e-05
1.82631e-05
1.82633e-05
1.82628e-05
1.8263e-05
2.30841e-05
2.3049e-05
1.82624e-05
1.82635e-05
1.82621e-05
1.82632e-05
1.82639e-05
1.82604e-05
1.82636e-05
2.30868e-05
2.30503e-05
1.82631e-05
1.82621e-05
1.82628e-05
2.30524e-05
2.30859e-05
2.30516e-05
1.82631e-05
1.82633e-05
1.82627e-05
1.82629e-05
2.30846e-05
2.30493e-05
1.82625e-05
1.82635e-05
1.82621e-05
1.82631e-05
1.8264e-05
1.82604e-05
1.82636e-05
2.30866e-05
2.30498e-05
1.82632e-05
1.82621e-05
1.82628e-05
2.30501e-05
2.30865e-05
2.30512e-05
1.82633e-05
1.82634e-05
1.82627e-05
1.82629e-05
2.30852e-05
2.30484e-05
1.82626e-05
1.82637e-05
1.8262e-05
1.82631e-05
1.82641e-05
1.82603e-05
1.82635e-05
2.30862e-05
2.30507e-05
1.82633e-05
1.8262e-05
1.82627e-05
2.30453e-05
2.3087e-05
2.30505e-05
1.82635e-05
1.82637e-05
1.82627e-05
1.82628e-05
2.30853e-05
2.30476e-05
1.82628e-05
1.82639e-05
1.8262e-05
1.82631e-05
1.82644e-05
1.82603e-05
1.82635e-05
2.30862e-05
2.30519e-05
1.82635e-05
1.8262e-05
1.82626e-05
2.3043e-05
2.30871e-05
2.30501e-05
1.82638e-05
1.8264e-05
1.82627e-05
1.82629e-05
2.30852e-05
2.30476e-05
1.82631e-05
1.82642e-05
1.8262e-05
1.82631e-05
1.82647e-05
1.82604e-05
1.82635e-05
2.30868e-05
2.30524e-05
1.82638e-05
1.82621e-05
1.82627e-05
2.30455e-05
2.30871e-05
2.30509e-05
1.82643e-05
1.82644e-05
1.82628e-05
1.8263e-05
2.30854e-05
2.30479e-05
1.82636e-05
1.82646e-05
1.82621e-05
1.82632e-05
1.82651e-05
1.82605e-05
1.82636e-05
2.30877e-05
2.30519e-05
1.82642e-05
1.82622e-05
1.82628e-05
2.30488e-05
2.30875e-05
2.30526e-05
1.82649e-05
1.82651e-05
1.8263e-05
1.82631e-05
2.30859e-05
2.30468e-05
1.82643e-05
1.82653e-05
1.82623e-05
1.82633e-05
1.82658e-05
1.82606e-05
1.82637e-05
2.30883e-05
2.30514e-05
1.82649e-05
1.82623e-05
1.82629e-05
2.30511e-05
2.30885e-05
2.30508e-05
1.82657e-05
1.82658e-05
1.82578e-05
1.82578e-05
2.30856e-05
2.30427e-05
1.82651e-05
1.8266e-05
1.8257e-05
1.8258e-05
1.82665e-05
1.82554e-05
1.82585e-05
2.30883e-05
2.30488e-05
1.82656e-05
1.82569e-05
1.82575e-05
2.30497e-05
2.30848e-05
2.27284e-05
1.8263e-05
1.8263e-05
1.79622e-05
1.79623e-05
2.30795e-05
2.27263e-05
1.82622e-05
1.82633e-05
1.79624e-05
1.79616e-05
1.82638e-05
1.79614e-05
1.79626e-05
2.30838e-05
2.27278e-05
1.82627e-05
1.79619e-05
1.79626e-05
2.27279e-05
2.23353e-05
1.76034e-05
1.76035e-05
2.2334e-05
1.76039e-05
1.76028e-05
1.2955e-05
1.29548e-05
1.29553e-05
1.76038e-05
2.23347e-05
1.76041e-05
3.73773e-05
3.73765e-05
3.7377e-05
3.7377e-05
3.73701e-05
3.73777e-05
3.73043e-05
3.73768e-05
3.73702e-05
3.73777e-05
3.73768e-05
3.73043e-05
3.73741e-05
3.72959e-05
3.72959e-05
3.58799e-05
4.08724e-05
3.66033e-05
4.51463e-05
5.51147e-05
6.48944e-05
3.58804e-05
4.08716e-05
3.66033e-05
4.51461e-05
3.58932e-05
3.58933e-05
3.58932e-05
3.44005e-05
3.44005e-05
3.44005e-05
3.44005e-05
3.52758e-05
3.56383e-05
3.58929e-05
3.53771e-05
3.60475e-05
3.42366e-05
3.53822e-05
5.51168e-05
6.48987e-05
3.52759e-05
3.58929e-05
3.56379e-05
3.53771e-05
3.60474e-05
3.53822e-05
3.42376e-05
3.65969e-05
3.65974e-05
3.52791e-05
3.40645e-05
3.40636e-05
3.39658e-05
5.13538e-05
3.46791e-05
5.46244e-05
7.65455e-05
8.08609e-05
3.39683e-05
5.13547e-05
3.46787e-05
5.4625e-05
3.39296e-05
3.39297e-05
3.39297e-05
3.25855e-05
3.25854e-05
3.25855e-05
3.25855e-05