/*--------------------------------*- C++ -*----------------------------------*\
| =========                 |                                                 |
| \\      /  F ield         | OpenFOAM: The Open Source CFD Toolbox           |
|  \\    /   O peration     | Version:  v2012                                 |
|   \\  /    A nd           | Website:  www.openfoam.com                      |
|    \\/     M anipulation  |                                                 |
\*---------------------------------------------------------------------------*/
FoamFile
{
    version     2.0;
    format      ascii;
    class       volScalarField;
    location    "125";
    object      k;
}
// * * * * * * * * * * * * * * * * * * * * * * * * * * * * * * * * * * * * * //

dimensions      [0 2 -2 0 0 0 0];


internalField   nonuniform List<scalar> 
171728
(
3.76639e-06
5.61015e-07
5.61147e-07
3.49137e-07
3.80839e-06
5.85656e-07
5.85366e-07
3.29542e-07
3.93725e-06
6.24259e-07
6.25111e-07
3.17432e-07
4.06439e-06
6.70188e-07
6.72292e-07
3.13605e-07
4.18988e-06
7.24481e-07
7.27478e-07
3.23706e-07
4.3138e-06
7.88516e-07
7.87864e-07
3.4345e-07
4.43504e-06
8.63681e-07
8.5478e-07
3.71614e-07
4.55458e-06
9.48336e-07
9.21421e-07
4.06829e-07
4.67147e-06
1.04317e-06
9.93408e-07
4.46403e-07
4.78702e-06
1.14702e-06
1.07883e-06
4.88816e-07
4.89963e-06
1.25593e-06
1.17393e-06
5.33004e-07
5.00941e-06
1.37526e-06
1.29202e-06
5.81362e-07
5.12346e-06
1.50379e-06
1.42156e-06
6.36184e-07
5.22874e-06
1.62732e-06
1.56836e-06
6.92669e-07
5.34095e-06
1.76585e-06
1.73577e-06
7.4448e-07
5.45402e-06
1.93232e-06
1.93131e-06
8.34062e-07
5.5661e-06
2.12678e-06
2.15413e-06
9.78472e-07
5.69754e-06
2.37753e-06
2.42447e-06
1.1783e-06
5.85036e-06
2.70731e-06
2.75752e-06
1.49812e-06
6.00611e-06
3.09604e-06
3.1469e-06
1.97357e-06
6.19631e-06
3.57583e-06
3.63203e-06
2.61578e-06
6.40873e-06
4.16121e-06
4.23484e-06
3.52073e-06
6.69589e-06
4.92902e-06
5.03868e-06
4.83605e-06
7.04303e-06
5.90158e-06
6.04065e-06
6.67024e-06
7.50073e-06
7.22374e-06
7.32688e-06
9.18708e-06
8.09671e-06
9.04651e-06
9.10768e-06
1.2564e-05
8.97724e-06
1.1555e-05
1.15976e-05
1.63878e-05
1.02643e-05
1.47295e-05
1.47505e-05
2.0282e-05
1.17953e-05
1.79592e-05
1.79669e-05
2.36073e-05
1.34196e-05
2.07294e-05
2.07329e-05
2.61078e-05
1.47607e-05
2.25608e-05
2.25632e-05
2.76252e-05
1.54994e-05
2.3356e-05
2.33584e-05
2.81711e-05
1.57812e-05
2.36092e-05
2.36114e-05
2.83368e-05
1.58617e-05
2.36736e-05
2.36757e-05
2.83794e-05
1.58801e-05
2.36875e-05
2.36895e-05
2.83933e-05
1.58832e-05
2.36886e-05
2.36907e-05
2.83884e-05
1.58839e-05
2.36891e-05
2.36912e-05
2.83901e-05
1.58841e-05
2.36892e-05
2.36912e-05
2.83898e-05
1.58842e-05
2.36892e-05
2.36913e-05
2.83904e-05
1.58844e-05
2.36893e-05
2.36914e-05
2.83903e-05
1.58845e-05
2.36895e-05
2.36915e-05
2.83901e-05
1.58846e-05
2.36896e-05
2.36916e-05
2.83901e-05
1.58847e-05
2.36897e-05
2.36916e-05
2.839e-05
1.58848e-05
2.36897e-05
2.36916e-05
2.83899e-05
1.58848e-05
2.36897e-05
2.36917e-05
2.83897e-05
1.58849e-05
2.36898e-05
2.36918e-05
2.83902e-05
1.58849e-05
2.36898e-05
2.36917e-05
2.83908e-05
1.58849e-05
2.36898e-05
2.36917e-05
2.83895e-05
1.5885e-05
2.36898e-05
2.36917e-05
2.83899e-05
1.5885e-05
2.36899e-05
2.36917e-05
2.83913e-05
1.5885e-05
2.36897e-05
2.36917e-05
2.83893e-05
1.5885e-05
2.36899e-05
2.36917e-05
2.83876e-05
1.5885e-05
2.36899e-05
2.36917e-05
2.83899e-05
1.5885e-05
2.36899e-05
2.36916e-05
2.83937e-05
1.5885e-05
2.36899e-05
2.36916e-05
2.8395e-05
1.5885e-05
2.36899e-05
2.36916e-05
2.83945e-05
1.58851e-05
2.36899e-05
2.36917e-05
2.83938e-05
1.58851e-05
2.36899e-05
2.36917e-05
2.8393e-05
1.58851e-05
2.369e-05
2.36917e-05
2.83917e-05
1.58851e-05
2.369e-05
2.36917e-05
2.83911e-05
1.58851e-05
2.369e-05
2.36917e-05
2.83921e-05
1.58851e-05
2.369e-05
2.36917e-05
2.83931e-05
1.58851e-05
2.369e-05
2.36917e-05
2.83933e-05
1.58851e-05
2.369e-05
2.36917e-05
2.83933e-05
1.58851e-05
2.369e-05
2.36917e-05
2.83934e-05
1.58851e-05
2.36899e-05
2.36916e-05
2.83936e-05
1.58851e-05
2.36899e-05
2.36916e-05
2.83937e-05
1.58851e-05
2.36899e-05
2.36917e-05
2.83937e-05
1.58851e-05
2.36899e-05
2.36917e-05
2.83934e-05
1.58851e-05
2.369e-05
2.36916e-05
2.83937e-05
1.58851e-05
2.369e-05
2.36916e-05
2.83942e-05
1.58851e-05
2.36899e-05
2.36916e-05
2.83943e-05
1.58851e-05
2.36899e-05
2.36916e-05
2.83938e-05
1.58851e-05
2.36899e-05
2.36915e-05
2.83933e-05
1.58851e-05
2.36899e-05
2.36915e-05
2.83932e-05
1.58851e-05
2.36899e-05
2.36915e-05
2.83936e-05
1.58851e-05
2.36899e-05
2.36915e-05
2.83938e-05
1.58851e-05
2.36899e-05
2.36914e-05
2.83936e-05
1.58851e-05
2.36898e-05
2.36915e-05
2.83936e-05
1.58851e-05
2.36898e-05
2.36915e-05
2.83939e-05
1.58851e-05
2.36899e-05
2.36914e-05
2.8394e-05
1.58851e-05
2.36899e-05
2.36915e-05
2.83938e-05
1.58851e-05
2.369e-05
2.36916e-05
2.83935e-05
1.58852e-05
2.369e-05
2.36916e-05
2.83935e-05
1.58852e-05
2.36901e-05
2.36917e-05
2.83937e-05
1.58852e-05
2.36902e-05
2.36918e-05
2.83937e-05
1.58853e-05
2.36904e-05
2.36919e-05
2.83933e-05
1.58853e-05
2.36906e-05
2.36921e-05
2.83935e-05
1.58853e-05
2.36909e-05
2.36924e-05
2.83941e-05
1.58854e-05
2.36913e-05
2.36928e-05
2.83941e-05
1.58854e-05
2.3692e-05
2.36935e-05
2.83941e-05
1.58855e-05
2.3693e-05
2.36945e-05
2.83938e-05
1.58855e-05
2.36944e-05
2.36959e-05
2.83931e-05
1.5876e-05
2.36895e-05
2.36908e-05
2.83875e-05
1.56304e-05
2.28604e-05
2.28603e-05
2.76535e-05
3.78072e-07
4.28382e-07
3.85063e-07
3.60034e-07
4.1185e-07
4.30017e-07
3.84948e-06
3.85781e-06
3.86406e-06
3.87447e-06
4.31986e-07
3.76485e-07
3.8448e-07
4.4812e-07
4.28864e-07
3.52737e-07
3.74383e-07
3.57508e-07
5.45659e-07
4.88132e-07
5.57693e-07
5.0338e-07
3.57594e-07
3.47918e-07
4.97956e-07
5.05903e-07
5.11922e-07
5.24047e-07
4.89831e-07
5.77364e-07
5.06736e-07
3.81246e-07
3.67613e-07
5.62171e-07
5.76734e-07
5.76072e-07
3.33434e-07
3.534e-07
3.38672e-07
5.64849e-07
5.12411e-07
5.88303e-07
5.40836e-07
3.44756e-07
3.35106e-07
5.19593e-07
5.34059e-07
5.42023e-07
5.66617e-07
5.16576e-07
6.14262e-07
5.48445e-07
3.64486e-07
3.58709e-07
5.84965e-07
6.14635e-07
6.15231e-07
3.2039e-07
3.34141e-07
3.22089e-07
5.97122e-07
5.52165e-07
6.28416e-07
5.85682e-07
3.31688e-07
3.25955e-07
5.49811e-07
5.78724e-07
5.75764e-07
6.16476e-07
5.60346e-07
6.58161e-07
5.96467e-07
3.5681e-07
3.57597e-07
6.26924e-07
6.60066e-07
6.6456e-07
3.152e-07
3.18406e-07
3.11651e-07
6.40619e-07
5.98982e-07
6.79206e-07
6.40301e-07
3.23624e-07
3.24714e-07
5.8534e-07
6.30055e-07
6.16025e-07
6.73183e-07
6.09247e-07
7.10369e-07
6.50558e-07
3.56436e-07
3.65972e-07
6.77735e-07
7.13611e-07
7.21254e-07
3.24637e-07
3.08834e-07
3.08598e-07
6.92896e-07
6.55079e-07
7.3755e-07
7.05952e-07
3.23378e-07
3.36395e-07
6.27943e-07
6.8833e-07
6.69151e-07
7.3774e-07
6.65406e-07
7.72912e-07
7.15822e-07
3.65106e-07
3.82821e-07
7.37741e-07
7.73203e-07
7.90817e-07
3.44115e-07
3.06918e-07
3.20586e-07
7.53769e-07
7.22536e-07
8.08369e-07
7.78724e-07
3.35354e-07
3.56423e-07
6.85136e-07
7.54887e-07
7.37637e-07
8.12574e-07
7.3378e-07
8.45217e-07
7.92421e-07
3.82186e-07
4.05665e-07
8.0986e-07
8.38729e-07
8.69629e-07
3.72091e-07
3.19501e-07
3.44433e-07
8.28237e-07
7.99312e-07
8.92281e-07
8.57379e-07
3.55657e-07
3.84636e-07
7.56319e-07
8.32329e-07
8.18153e-07
8.94798e-07
8.12586e-07
9.25926e-07
8.77585e-07
4.04984e-07
4.28771e-07
8.90576e-07
9.04205e-07
9.5615e-07
4.07164e-07
3.43737e-07
3.79227e-07
9.14934e-07
8.78063e-07
9.85336e-07
9.48248e-07
3.83993e-07
4.19847e-07
8.39659e-07
9.16236e-07
9.08752e-07
9.82266e-07
8.99313e-07
1.0181e-06
9.72321e-07
4.27663e-07
4.48909e-07
9.79667e-07
9.75742e-07
1.05103e-06
4.46771e-07
3.78856e-07
4.24738e-07
1.00974e-06
9.70108e-07
1.0864e-06
1.03686e-06
4.19455e-07
4.6192e-07
9.33626e-07
1.00552e-06
1.01363e-06
1.07423e-06
9.97605e-07
1.12154e-06
1.07184e-06
4.47406e-07
4.6933e-07
1.07609e-06
1.05616e-06
1.15617e-06
4.8931e-07
4.24856e-07
4.80616e-07
1.11204e-06
1.06341e-06
1.19311e-06
1.14488e-06
4.61515e-07
5.09285e-07
1.04195e-06
1.09872e-06
1.12993e-06
1.17755e-06
1.09831e-06
1.22881e-06
1.18063e-06
4.67704e-07
4.94051e-07
1.18291e-06
1.1491e-06
1.26745e-06
5.33609e-07
4.80964e-07
5.40712e-07
1.22126e-06
1.171e-06
1.30633e-06
1.25609e-06
5.09239e-07
5.66036e-07
1.1611e-06
1.20408e-06
1.25619e-06
1.28915e-06
1.20885e-06
1.34525e-06
1.29726e-06
4.92386e-07
5.26183e-07
1.29832e-06
1.26287e-06
1.40068e-06
5.81903e-07
5.4108e-07
6.08614e-07
1.33738e-06
1.2862e-06
1.43932e-06
1.37924e-06
5.65983e-07
6.22217e-07
1.28886e-06
1.31913e-06
1.39687e-06
1.41171e-06
1.32546e-06
1.47199e-06
1.41417e-06
5.2499e-07
5.73772e-07
1.43194e-06
1.38702e-06
1.53808e-06
6.36437e-07
6.09691e-07
6.86814e-07
1.47374e-06
1.41278e-06
1.577e-06
1.51465e-06
6.21898e-07
6.81238e-07
1.43405e-06
1.4468e-06
1.5414e-06
1.55332e-06
1.44735e-06
1.59731e-06
1.54775e-06
5.73426e-07
6.38558e-07
1.58299e-06
1.52994e-06
1.70532e-06
6.93624e-07
6.88742e-07
7.8253e-07
1.61692e-06
1.55229e-06
1.75422e-06
1.67984e-06
6.81371e-07
7.53272e-07
1.57814e-06
1.58585e-06
1.70823e-06
1.71051e-06
1.58205e-06
1.73188e-06
1.70288e-06
6.39181e-07
7.22001e-07
1.73442e-06
1.69576e-06
1.80381e-06
7.4465e-07
7.86002e-07
8.93905e-07
1.79731e-06
1.72063e-06
1.93853e-06
1.85991e-06
7.54816e-07
8.4719e-07
1.75095e-06
1.75477e-06
1.8895e-06
1.88376e-06
1.74524e-06
1.88556e-06
1.89723e-06
7.24701e-07
8.32845e-07
1.82657e-06
1.87877e-06
1.92622e-06
8.29236e-07
8.98992e-07
1.02884e-06
1.98703e-06
1.91122e-06
2.11882e-06
2.06919e-06
8.51593e-07
9.84538e-07
1.94072e-06
1.93178e-06
2.09208e-06
2.08967e-06
1.95296e-06
2.07352e-06
2.1114e-06
8.38385e-07
9.83296e-07
1.96579e-06
2.09196e-06
2.09764e-06
9.69747e-07
1.03735e-06
1.22345e-06
2.16983e-06
2.13248e-06
2.33822e-06
2.33678e-06
9.93884e-07
1.19243e-06
2.15112e-06
2.1486e-06
2.34211e-06
2.32498e-06
2.1706e-06
2.31168e-06
2.34458e-06
9.93567e-07
1.19584e-06
2.15494e-06
2.35529e-06
2.33772e-06
1.16239e-06
1.23988e-06
1.50974e-06
2.40023e-06
2.40714e-06
2.62573e-06
2.64822e-06
1.2098e-06
1.49279e-06
2.40736e-06
2.38794e-06
2.63902e-06
2.63046e-06
2.4037e-06
2.61703e-06
2.62115e-06
1.21263e-06
1.48967e-06
2.40243e-06
2.6674e-06
2.63601e-06
1.44487e-06
1.56129e-06
1.94406e-06
2.71142e-06
2.7376e-06
2.99073e-06
3.02164e-06
1.54608e-06
1.93148e-06
2.72982e-06
2.72535e-06
3.01632e-06
3.01569e-06
2.70611e-06
2.99532e-06
2.98069e-06
1.54389e-06
1.93296e-06
2.72566e-06
3.04556e-06
3.01605e-06
1.8863e-06
2.02957e-06
2.53656e-06
3.09169e-06
3.12298e-06
3.44004e-06
3.47279e-06
2.01698e-06
2.53086e-06
3.11524e-06
3.11526e-06
3.45758e-06
3.45941e-06
3.07912e-06
3.44551e-06
3.42114e-06
2.0188e-06
2.53199e-06
3.11857e-06
3.49944e-06
3.46538e-06
2.49332e-06
2.6573e-06
3.38119e-06
3.57134e-06
3.6056e-06
4.0016e-06
4.04056e-06
2.65401e-06
3.39155e-06
3.58919e-06
3.59074e-06
4.01696e-06
4.0191e-06
3.55022e-06
4.00296e-06
3.96991e-06
2.65465e-06
3.39225e-06
3.59539e-06
4.07068e-06
4.01718e-06
3.34009e-06
3.56352e-06
4.61635e-06
4.16248e-06
4.20207e-06
4.72476e-06
4.76428e-06
3.57592e-06
4.63211e-06
4.17483e-06
4.17859e-06
4.73052e-06
4.73781e-06
4.12753e-06
4.718e-06
4.68483e-06
3.57735e-06
4.65331e-06
4.17403e-06
4.81723e-06
4.72594e-06
4.57363e-06
4.87736e-06
6.33289e-06
4.93836e-06
4.97806e-06
5.64777e-06
5.68756e-06
4.8933e-06
6.35298e-06
4.94484e-06
4.95205e-06
5.66177e-06
5.66537e-06
4.89885e-06
5.63749e-06
5.61562e-06
4.9213e-06
6.41031e-06
4.9378e-06
5.77387e-06
5.6474e-06
6.30644e-06
6.69248e-06
8.68278e-06
5.91158e-06
5.94965e-06
6.85049e-06
6.87603e-06
6.71378e-06
8.70715e-06
5.92711e-06
5.92918e-06
6.86319e-06
6.86264e-06
5.88358e-06
6.84787e-06
6.83477e-06
6.77249e-06
8.74287e-06
5.91224e-06
6.96485e-06
6.85451e-06
8.68409e-06
9.18158e-06
1.19133e-05
7.22472e-06
7.24531e-06
8.53847e-06
8.54731e-06
9.20631e-06
1.19287e-05
7.23655e-06
7.2354e-06
8.55352e-06
8.54976e-06
7.21212e-06
8.54142e-06
8.53004e-06
9.23459e-06
1.19411e-05
7.23001e-06
8.60938e-06
8.54469e-06
1.19227e-05
1.25574e-05
1.56987e-05
9.04483e-06
9.05106e-06
1.08501e-05
1.0851e-05
1.2569e-05
1.5692e-05
9.06169e-06
9.05724e-06
1.08658e-05
1.08639e-05
9.03659e-06
1.08481e-05
1.08419e-05
1.25816e-05
1.57145e-05
9.05009e-06
1.08953e-05
1.08503e-05
1.56906e-05
1.63973e-05
1.961e-05
1.15589e-05
1.15589e-05
1.39138e-05
1.39131e-05
1.6389e-05
1.96035e-05
1.15725e-05
1.15724e-05
1.39194e-05
1.39242e-05
1.15512e-05
1.39089e-05
1.39087e-05
1.64125e-05
1.96218e-05
1.15578e-05
1.3935e-05
1.39109e-05
1.96048e-05
2.02863e-05
2.3054e-05
1.47348e-05
1.47342e-05
1.71783e-05
1.71783e-05
2.02808e-05
2.30513e-05
1.47384e-05
1.47439e-05
1.71779e-05
1.71837e-05
1.47307e-05
1.71741e-05
1.71769e-05
2.02966e-05
2.3059e-05
1.47319e-05
1.7184e-05
1.7176e-05
2.30537e-05
2.36074e-05
2.57045e-05
1.79635e-05
1.79636e-05
2.01122e-05
2.01126e-05
2.36051e-05
2.57028e-05
1.79625e-05
1.79679e-05
2.01104e-05
2.01146e-05
1.79628e-05
2.01088e-05
2.0113e-05
2.36115e-05
2.57065e-05
1.79615e-05
2.01129e-05
2.01112e-05
2.57059e-05
2.61066e-05
2.73925e-05
2.07327e-05
2.0733e-05
2.22132e-05
2.22136e-05
2.61049e-05
2.73908e-05
2.0731e-05
2.07347e-05
2.22116e-05
2.22143e-05
2.07338e-05
2.22104e-05
2.22145e-05
2.61081e-05
2.7393e-05
2.07319e-05
2.22128e-05
2.22129e-05
2.73938e-05
2.76242e-05
2.80779e-05
2.25636e-05
2.25638e-05
2.32307e-05
2.3231e-05
2.76226e-05
2.80764e-05
2.25621e-05
2.25645e-05
2.32293e-05
2.32313e-05
2.2565e-05
2.32281e-05
2.32325e-05
2.76244e-05
2.80786e-05
2.25635e-05
2.32305e-05
2.3231e-05
2.808e-05
2.81692e-05
2.82855e-05
2.33584e-05
2.33587e-05
2.35753e-05
2.35756e-05
2.81678e-05
2.82839e-05
2.33572e-05
2.3359e-05
2.35742e-05
2.35758e-05
2.33603e-05
2.3573e-05
2.35771e-05
2.81697e-05
2.82858e-05
2.33589e-05
2.35752e-05
2.35758e-05
2.82872e-05
2.83351e-05
2.83411e-05
2.36114e-05
2.36117e-05
2.3667e-05
2.36673e-05
2.83336e-05
2.83395e-05
2.36104e-05
2.3612e-05
2.36661e-05
2.36675e-05
2.36132e-05
2.36648e-05
2.36688e-05
2.83353e-05
2.83413e-05
2.36119e-05
2.36669e-05
2.36675e-05
2.83426e-05
2.83779e-05
2.83582e-05
2.36757e-05
2.3676e-05
2.36882e-05
2.36885e-05
2.83763e-05
2.83565e-05
2.36748e-05
2.36762e-05
2.36873e-05
2.36887e-05
2.36774e-05
2.3686e-05
2.36898e-05
2.83779e-05
2.83582e-05
2.36762e-05
2.3688e-05
2.36886e-05
2.83595e-05
2.8392e-05
2.83544e-05
2.36896e-05
2.36899e-05
2.36908e-05
2.36911e-05
2.83905e-05
2.83527e-05
2.36887e-05
2.36901e-05
2.36899e-05
2.36913e-05
2.36912e-05
2.36886e-05
2.36923e-05
2.8392e-05
2.83546e-05
2.36899e-05
2.36906e-05
2.36911e-05
2.83557e-05
2.83872e-05
2.83544e-05
2.36908e-05
2.36911e-05
2.36911e-05
2.36913e-05
2.83856e-05
2.83528e-05
2.36899e-05
2.36913e-05
2.36902e-05
2.36916e-05
2.36923e-05
2.36888e-05
2.36925e-05
2.83872e-05
2.83547e-05
2.36911e-05
2.36909e-05
2.36913e-05
2.83559e-05
2.83887e-05
2.83561e-05
2.36913e-05
2.36916e-05
2.36915e-05
2.36918e-05
2.83871e-05
2.83544e-05
2.36905e-05
2.36919e-05
2.36907e-05
2.36921e-05
2.36927e-05
2.36893e-05
2.36929e-05
2.83888e-05
2.8356e-05
2.36914e-05
2.36913e-05
2.36917e-05
2.8357e-05
2.83887e-05
2.83555e-05
2.36914e-05
2.36917e-05
2.36914e-05
2.36917e-05
2.83871e-05
2.8354e-05
2.36906e-05
2.3692e-05
2.36906e-05
2.36919e-05
2.36929e-05
2.36892e-05
2.36929e-05
2.83886e-05
2.83558e-05
2.36916e-05
2.36912e-05
2.36916e-05
2.83567e-05
2.83893e-05
2.83556e-05
2.36914e-05
2.36917e-05
2.36915e-05
2.36918e-05
2.83878e-05
2.8354e-05
2.36906e-05
2.36919e-05
2.36907e-05
2.36921e-05
2.36929e-05
2.36893e-05
2.3693e-05
2.83893e-05
2.83561e-05
2.36916e-05
2.36914e-05
2.36917e-05
2.83569e-05
2.83891e-05
2.83556e-05
2.36915e-05
2.36918e-05
2.36915e-05
2.36918e-05
2.83876e-05
2.83538e-05
2.36907e-05
2.3692e-05
2.36908e-05
2.36921e-05
2.3693e-05
2.36893e-05
2.3693e-05
2.83894e-05
2.83558e-05
2.36917e-05
2.36914e-05
2.36918e-05
2.83566e-05
2.8389e-05
2.8356e-05
2.36915e-05
2.36918e-05
2.36916e-05
2.3692e-05
2.83876e-05
2.8354e-05
2.36909e-05
2.36921e-05
2.3691e-05
2.36922e-05
2.3693e-05
2.36896e-05
2.36932e-05
2.83894e-05
2.83558e-05
2.36918e-05
2.36916e-05
2.36919e-05
2.83568e-05
2.8389e-05
2.83567e-05
2.36916e-05
2.3692e-05
2.36916e-05
2.3692e-05
2.83874e-05
2.83541e-05
2.3691e-05
2.36922e-05
2.3691e-05
2.36923e-05
2.36932e-05
2.36896e-05
2.36932e-05
2.83894e-05
2.83556e-05
2.36919e-05
2.36916e-05
2.36919e-05
2.83568e-05
2.83899e-05
2.83571e-05
2.36916e-05
2.3692e-05
2.36918e-05
2.36922e-05
2.83874e-05
2.8354e-05
2.3691e-05
2.36923e-05
2.36912e-05
2.36925e-05
2.36932e-05
2.36897e-05
2.36933e-05
2.83894e-05
2.83556e-05
2.36919e-05
2.36917e-05
2.3692e-05
2.83567e-05
2.83905e-05
2.83571e-05
2.36917e-05
2.36921e-05
2.36918e-05
2.36922e-05
2.83872e-05
2.83543e-05
2.36911e-05
2.36924e-05
2.36912e-05
2.36925e-05
2.36932e-05
2.36898e-05
2.36934e-05
2.83892e-05
2.83558e-05
2.3692e-05
2.36917e-05
2.36921e-05
2.83566e-05
2.83909e-05
2.83565e-05
2.36918e-05
2.36922e-05
2.36918e-05
2.36922e-05
2.83874e-05
2.83542e-05
2.36912e-05
2.36925e-05
2.36911e-05
2.36924e-05
2.36933e-05
2.36898e-05
2.36934e-05
2.83894e-05
2.83556e-05
2.36921e-05
2.36917e-05
2.36921e-05
2.83573e-05
2.83907e-05
2.83558e-05
2.36918e-05
2.36922e-05
2.36918e-05
2.36922e-05
2.83875e-05
2.83539e-05
2.36911e-05
2.36924e-05
2.36912e-05
2.36925e-05
2.36934e-05
2.36897e-05
2.36934e-05
2.83894e-05
2.83554e-05
2.36921e-05
2.36917e-05
2.36921e-05
2.83573e-05
2.83899e-05
2.83566e-05
2.36918e-05
2.36922e-05
2.36919e-05
2.36923e-05
2.8387e-05
2.83547e-05
2.36912e-05
2.36925e-05
2.36912e-05
2.36925e-05
2.36934e-05
2.36898e-05
2.36934e-05
2.8389e-05
2.8356e-05
2.36921e-05
2.36917e-05
2.36921e-05
2.8356e-05
2.83901e-05
2.8357e-05
2.36919e-05
2.36922e-05
2.3692e-05
2.36923e-05
2.83878e-05
2.8354e-05
2.36911e-05
2.36925e-05
2.36912e-05
2.36925e-05
2.36933e-05
2.36899e-05
2.36935e-05
2.83896e-05
2.83554e-05
2.3692e-05
2.36917e-05
2.36921e-05
2.83571e-05
2.83908e-05
2.83552e-05
2.3692e-05
2.36923e-05
2.3692e-05
2.36923e-05
2.83878e-05
2.83526e-05
2.36911e-05
2.36925e-05
2.36912e-05
2.36925e-05
2.36934e-05
2.36898e-05
2.36934e-05
2.83892e-05
2.83549e-05
2.36921e-05
2.36917e-05
2.36921e-05
2.83576e-05
2.83892e-05
2.83557e-05
2.3692e-05
2.36923e-05
2.36921e-05
2.36923e-05
2.83857e-05
2.83548e-05
2.36911e-05
2.36925e-05
2.36911e-05
2.36925e-05
2.36934e-05
2.36897e-05
2.36933e-05
2.8388e-05
2.83568e-05
2.36921e-05
2.36917e-05
2.3692e-05
2.83553e-05
2.83881e-05
2.83586e-05
2.36921e-05
2.36923e-05
2.36921e-05
2.36923e-05
2.83866e-05
2.83575e-05
2.36911e-05
2.36924e-05
2.36911e-05
2.36925e-05
2.36933e-05
2.369e-05
2.36934e-05
2.83891e-05
2.83581e-05
2.36921e-05
2.36917e-05
2.3692e-05
2.83554e-05
2.83906e-05
2.83589e-05
2.36921e-05
2.36923e-05
2.36922e-05
2.36923e-05
2.83903e-05
2.83556e-05
2.36911e-05
2.36925e-05
2.36911e-05
2.36925e-05
2.36934e-05
2.36898e-05
2.36934e-05
2.83914e-05
2.83563e-05
2.3692e-05
2.36916e-05
2.3692e-05
2.83589e-05
2.83927e-05
2.83561e-05
2.36922e-05
2.36923e-05
2.36922e-05
2.36923e-05
2.83908e-05
2.83519e-05
2.3691e-05
2.36924e-05
2.36911e-05
2.36925e-05
2.36934e-05
2.36898e-05
2.36934e-05
2.83909e-05
2.83547e-05
2.36919e-05
2.36916e-05
2.36921e-05
2.83614e-05
2.83914e-05
2.83539e-05
2.36922e-05
2.36923e-05
2.36923e-05
2.36924e-05
2.83874e-05
2.83514e-05
2.3691e-05
2.36925e-05
2.36911e-05
2.36925e-05
2.36933e-05
2.36899e-05
2.36935e-05
2.8389e-05
2.83554e-05
2.3692e-05
2.36916e-05
2.36921e-05
2.83607e-05
2.83889e-05
2.8354e-05
2.36923e-05
2.36923e-05
2.36924e-05
2.36924e-05
2.83849e-05
2.83541e-05
2.36911e-05
2.36925e-05
2.3691e-05
2.36925e-05
2.36933e-05
2.36899e-05
2.36934e-05
2.83889e-05
2.83567e-05
2.3692e-05
2.36917e-05
2.3692e-05
2.83587e-05
2.8388e-05
2.83545e-05
2.36923e-05
2.36924e-05
2.36923e-05
2.36923e-05
2.83863e-05
2.83557e-05
2.3691e-05
2.36924e-05
2.36911e-05
2.36925e-05
2.36934e-05
2.36899e-05
2.36934e-05
2.83904e-05
2.83565e-05
2.3692e-05
2.36917e-05
2.36921e-05
2.83572e-05
2.83879e-05
2.83552e-05
2.36923e-05
2.36923e-05
2.36925e-05
2.36924e-05
2.83888e-05
2.83548e-05
2.3691e-05
2.36924e-05
2.36911e-05
2.36925e-05
2.36934e-05
2.36899e-05
2.36934e-05
2.83911e-05
2.8355e-05
2.36921e-05
2.36916e-05
2.3692e-05
2.83558e-05
2.83881e-05
2.83557e-05
2.36924e-05
2.36923e-05
2.36925e-05
2.36924e-05
2.83895e-05
2.83528e-05
2.3691e-05
2.36925e-05
2.3691e-05
2.36925e-05
2.36934e-05
2.36899e-05
2.36934e-05
2.83902e-05
2.83538e-05
2.3692e-05
2.36916e-05
2.3692e-05
2.83544e-05
2.83888e-05
2.83551e-05
2.36925e-05
2.36924e-05
2.36924e-05
2.36923e-05
2.83881e-05
2.83518e-05
2.3691e-05
2.36925e-05
2.3691e-05
2.36925e-05
2.36934e-05
2.36899e-05
2.36934e-05
2.83889e-05
2.83534e-05
2.3692e-05
2.36916e-05
2.3692e-05
2.83542e-05
2.83887e-05
2.83542e-05
2.36924e-05
2.36923e-05
2.36925e-05
2.36924e-05
2.83867e-05
2.83516e-05
2.3691e-05
2.36925e-05
2.3691e-05
2.36925e-05
2.36934e-05
2.36899e-05
2.36934e-05
2.8388e-05
2.83534e-05
2.3692e-05
2.36916e-05
2.3692e-05
2.83552e-05
2.83879e-05
2.83539e-05
2.36925e-05
2.36924e-05
2.36925e-05
2.36924e-05
2.8386e-05
2.83516e-05
2.3691e-05
2.36925e-05
2.3691e-05
2.36925e-05
2.36934e-05
2.36899e-05
2.36934e-05
2.83875e-05
2.83536e-05
2.36919e-05
2.36917e-05
2.3692e-05
2.83564e-05
2.83873e-05
2.83538e-05
2.36925e-05
2.36924e-05
2.36925e-05
2.36924e-05
2.83856e-05
2.83517e-05
2.3691e-05
2.36925e-05
2.3691e-05
2.36925e-05
2.36934e-05
2.36899e-05
2.36934e-05
2.83874e-05
2.83537e-05
2.36919e-05
2.36916e-05
2.3692e-05
2.83567e-05
2.83868e-05
2.83541e-05
2.36925e-05
2.36924e-05
2.36925e-05
2.36923e-05
2.83853e-05
2.8352e-05
2.3691e-05
2.36925e-05
2.3691e-05
2.36925e-05
2.36934e-05
2.36899e-05
2.36934e-05
2.83873e-05
2.83537e-05
2.36919e-05
2.36916e-05
2.36919e-05
2.83568e-05
2.83865e-05
2.83548e-05
2.36925e-05
2.36923e-05
2.36925e-05
2.36923e-05
2.83853e-05
2.83522e-05
2.3691e-05
2.36925e-05
2.3691e-05
2.36925e-05
2.36934e-05
2.36899e-05
2.36934e-05
2.83872e-05
2.83538e-05
2.36919e-05
2.36916e-05
2.36919e-05
2.8357e-05
2.83869e-05
2.83551e-05
2.36925e-05
2.36923e-05
2.36926e-05
2.36923e-05
2.83853e-05
2.83521e-05
2.36909e-05
2.36925e-05
2.36909e-05
2.36925e-05
2.36934e-05
2.36899e-05
2.36934e-05
2.83869e-05
2.83541e-05
2.36919e-05
2.36916e-05
2.36919e-05
2.83573e-05
2.83874e-05
2.83548e-05
2.36926e-05
2.36923e-05
2.36926e-05
2.36923e-05
2.83851e-05
2.83522e-05
2.36909e-05
2.36925e-05
2.36909e-05
2.36925e-05
2.36934e-05
2.36899e-05
2.36934e-05
2.8387e-05
2.83546e-05
2.36919e-05
2.36916e-05
2.36919e-05
2.83575e-05
2.83875e-05
2.83542e-05
2.36926e-05
2.36923e-05
2.36926e-05
2.36923e-05
2.8385e-05
2.83527e-05
2.36909e-05
2.36925e-05
2.36909e-05
2.36925e-05
2.36934e-05
2.36899e-05
2.36934e-05
2.83876e-05
2.83546e-05
2.36919e-05
2.36916e-05
2.36919e-05
2.83575e-05
2.83872e-05
2.83539e-05
2.36926e-05
2.36923e-05
2.36926e-05
2.36924e-05
2.83853e-05
2.83528e-05
2.36909e-05
2.36925e-05
2.36909e-05
2.36925e-05
2.36934e-05
2.36899e-05
2.36934e-05
2.83879e-05
2.83542e-05
2.36919e-05
2.36916e-05
2.36919e-05
2.83572e-05
2.83868e-05
2.8354e-05
2.36926e-05
2.36923e-05
2.36925e-05
2.36924e-05
2.83856e-05
2.83526e-05
2.36909e-05
2.36925e-05
2.36909e-05
2.36925e-05
2.36934e-05
2.36899e-05
2.36934e-05
2.83877e-05
2.83539e-05
2.36919e-05
2.36916e-05
2.36918e-05
2.83577e-05
2.83865e-05
2.83543e-05
2.36925e-05
2.36924e-05
2.36925e-05
2.36923e-05
2.83857e-05
2.83523e-05
2.36909e-05
2.36925e-05
2.36909e-05
2.36924e-05
2.36934e-05
2.36899e-05
2.36934e-05
2.83873e-05
2.83538e-05
2.36918e-05
2.36916e-05
2.36919e-05
2.83587e-05
2.83866e-05
2.83544e-05
2.36925e-05
2.36923e-05
2.36925e-05
2.36923e-05
2.83854e-05
2.83521e-05
2.36909e-05
2.36925e-05
2.36909e-05
2.36924e-05
2.36934e-05
2.36898e-05
2.36934e-05
2.83871e-05
2.83538e-05
2.36918e-05
2.36915e-05
2.36918e-05
2.83586e-05
2.83866e-05
2.83547e-05
2.36925e-05
2.36923e-05
2.36925e-05
2.36923e-05
2.83851e-05
2.83522e-05
2.36909e-05
2.36924e-05
2.36909e-05
2.36924e-05
2.36934e-05
2.36898e-05
2.36934e-05
2.83869e-05
2.8354e-05
2.36918e-05
2.36915e-05
2.36918e-05
2.83577e-05
2.83868e-05
2.83548e-05
2.36925e-05
2.36923e-05
2.36925e-05
2.36923e-05
2.8385e-05
2.83524e-05
2.36909e-05
2.36924e-05
2.36909e-05
2.36924e-05
2.36934e-05
2.36898e-05
2.36934e-05
2.83868e-05
2.83547e-05
2.36918e-05
2.36915e-05
2.36918e-05
2.83568e-05
2.83871e-05
2.83547e-05
2.36925e-05
2.36923e-05
2.36925e-05
2.36923e-05
2.8385e-05
2.83524e-05
2.36909e-05
2.36924e-05
2.36909e-05
2.36924e-05
2.36934e-05
2.36898e-05
2.36933e-05
2.83874e-05
2.83546e-05
2.36918e-05
2.36914e-05
2.36918e-05
2.83568e-05
2.83872e-05
2.83546e-05
2.36925e-05
2.36923e-05
2.36925e-05
2.36923e-05
2.8385e-05
2.83524e-05
2.36909e-05
2.36924e-05
2.36908e-05
2.36924e-05
2.36934e-05
2.36898e-05
2.36933e-05
2.83878e-05
2.83543e-05
2.36918e-05
2.36914e-05
2.36918e-05
2.83574e-05
2.83873e-05
2.83543e-05
2.36926e-05
2.36923e-05
2.36925e-05
2.36922e-05
2.83849e-05
2.83529e-05
2.36909e-05
2.36924e-05
2.36908e-05
2.36924e-05
2.36934e-05
2.36898e-05
2.36933e-05
2.83877e-05
2.8354e-05
2.36918e-05
2.36914e-05
2.36917e-05
2.83577e-05
2.83871e-05
2.8354e-05
2.36925e-05
2.36923e-05
2.36924e-05
2.36922e-05
2.83851e-05
2.8353e-05
2.36908e-05
2.36924e-05
2.36908e-05
2.36923e-05
2.36933e-05
2.36897e-05
2.36932e-05
2.83876e-05
2.83536e-05
2.36918e-05
2.36913e-05
2.36917e-05
2.83574e-05
2.83868e-05
2.83541e-05
2.36925e-05
2.36922e-05
2.36924e-05
2.36922e-05
2.83855e-05
2.83525e-05
2.36908e-05
2.36924e-05
2.36907e-05
2.36923e-05
2.36933e-05
2.36897e-05
2.36932e-05
2.83872e-05
2.83535e-05
2.36917e-05
2.36913e-05
2.36917e-05
2.83575e-05
2.83866e-05
2.83545e-05
2.36925e-05
2.36922e-05
2.36924e-05
2.36921e-05
2.83852e-05
2.83523e-05
2.36908e-05
2.36924e-05
2.36907e-05
2.36922e-05
2.36933e-05
2.36896e-05
2.36932e-05
2.83867e-05
2.8354e-05
2.36917e-05
2.36912e-05
2.36916e-05
2.8358e-05
2.83868e-05
2.83546e-05
2.36925e-05
2.36922e-05
2.36923e-05
2.36921e-05
2.83849e-05
2.83525e-05
2.36908e-05
2.36923e-05
2.36907e-05
2.36922e-05
2.36933e-05
2.36896e-05
2.36931e-05
2.83866e-05
2.83549e-05
2.36917e-05
2.36912e-05
2.36916e-05
2.83581e-05
2.83872e-05
2.83543e-05
2.36924e-05
2.36922e-05
2.36923e-05
2.3692e-05
2.83849e-05
2.8353e-05
2.36908e-05
2.36923e-05
2.36906e-05
2.36922e-05
2.36933e-05
2.36896e-05
2.36931e-05
2.83875e-05
2.83547e-05
2.36917e-05
2.36912e-05
2.36916e-05
2.83577e-05
2.83872e-05
2.83538e-05
2.36925e-05
2.36922e-05
2.36923e-05
2.3692e-05
2.83853e-05
2.83532e-05
2.36908e-05
2.36924e-05
2.36906e-05
2.36921e-05
2.36933e-05
2.36896e-05
2.3693e-05
2.83881e-05
2.83535e-05
2.36917e-05
2.36912e-05
2.36915e-05
2.83573e-05
2.83869e-05
2.83538e-05
2.36926e-05
2.36923e-05
2.36922e-05
2.3692e-05
2.83859e-05
2.83525e-05
2.36909e-05
2.36924e-05
2.36905e-05
2.36921e-05
2.36933e-05
2.36895e-05
2.3693e-05
2.83873e-05
2.83533e-05
2.36918e-05
2.36911e-05
2.36914e-05
2.83572e-05
2.83865e-05
2.8354e-05
2.36926e-05
2.36924e-05
2.36922e-05
2.36919e-05
2.83856e-05
2.83519e-05
2.36909e-05
2.36925e-05
2.36905e-05
2.3692e-05
2.36934e-05
2.36895e-05
2.3693e-05
2.83863e-05
2.83544e-05
2.36918e-05
2.36911e-05
2.36914e-05
2.83575e-05
2.83866e-05
2.8354e-05
2.36927e-05
2.36925e-05
2.36921e-05
2.36919e-05
2.83851e-05
2.83519e-05
2.3691e-05
2.36925e-05
2.36905e-05
2.3692e-05
2.36935e-05
2.36894e-05
2.36929e-05
2.83868e-05
2.83552e-05
2.36919e-05
2.3691e-05
2.36913e-05
2.83573e-05
2.83867e-05
2.83538e-05
2.36928e-05
2.36926e-05
2.36921e-05
2.36918e-05
2.83848e-05
2.83521e-05
2.36912e-05
2.36927e-05
2.36904e-05
2.3692e-05
2.36936e-05
2.36894e-05
2.36929e-05
2.8388e-05
2.83547e-05
2.3692e-05
2.36909e-05
2.36913e-05
2.83568e-05
2.83865e-05
2.8354e-05
2.3693e-05
2.36927e-05
2.3692e-05
2.36918e-05
2.83846e-05
2.83527e-05
2.36913e-05
2.36928e-05
2.36904e-05
2.36919e-05
2.36937e-05
2.36893e-05
2.36928e-05
2.83884e-05
2.83537e-05
2.36921e-05
2.36909e-05
2.36912e-05
2.83572e-05
2.83864e-05
2.83547e-05
2.36932e-05
2.36929e-05
2.36919e-05
2.36917e-05
2.83851e-05
2.8353e-05
2.36915e-05
2.36931e-05
2.36903e-05
2.36918e-05
2.3694e-05
2.36893e-05
2.36928e-05
2.83876e-05
2.83537e-05
2.36923e-05
2.36908e-05
2.36911e-05
2.8358e-05
2.83869e-05
2.8355e-05
2.36934e-05
2.36932e-05
2.3692e-05
2.36917e-05
2.83857e-05
2.83526e-05
2.36918e-05
2.36934e-05
2.36903e-05
2.36918e-05
2.36943e-05
2.36893e-05
2.36927e-05
2.83872e-05
2.83545e-05
2.36926e-05
2.36908e-05
2.36911e-05
2.83578e-05
2.83875e-05
2.83552e-05
2.36939e-05
2.36937e-05
2.36921e-05
2.36919e-05
2.83858e-05
2.83527e-05
2.36923e-05
2.36938e-05
2.36904e-05
2.36919e-05
2.36947e-05
2.36894e-05
2.36929e-05
2.8388e-05
2.83546e-05
2.3693e-05
2.36909e-05
2.36912e-05
2.83575e-05
2.83879e-05
2.83556e-05
2.36946e-05
2.36944e-05
2.36923e-05
2.36921e-05
2.83858e-05
2.83533e-05
2.3693e-05
2.36945e-05
2.36907e-05
2.36922e-05
2.36954e-05
2.36896e-05
2.36931e-05
2.83884e-05
2.83542e-05
2.36937e-05
2.36911e-05
2.36915e-05
2.83574e-05
2.83881e-05
2.8356e-05
2.36956e-05
2.36954e-05
2.36929e-05
2.36926e-05
2.83858e-05
2.83544e-05
2.3694e-05
2.36955e-05
2.36913e-05
2.36928e-05
2.36964e-05
2.36902e-05
2.36936e-05
2.83875e-05
2.83551e-05
2.36948e-05
2.36917e-05
2.3692e-05
2.83572e-05
2.83879e-05
2.83533e-05
2.36971e-05
2.36968e-05
2.36874e-05
2.36872e-05
2.83864e-05
2.83519e-05
2.36955e-05
2.36969e-05
2.36858e-05
2.36872e-05
2.36978e-05
2.36848e-05
2.36881e-05
2.83871e-05
2.83534e-05
2.36961e-05
2.3686e-05
2.36864e-05
2.83543e-05
2.8383e-05
2.80297e-05
2.36922e-05
2.36919e-05
2.33274e-05
2.33272e-05
2.83817e-05
2.80286e-05
2.36905e-05
2.3692e-05
2.3327e-05
2.3326e-05
2.36929e-05
2.33269e-05
2.33277e-05
2.83829e-05
2.80293e-05
2.36911e-05
2.3327e-05
2.33272e-05
2.80307e-05
2.76527e-05
2.28604e-05
2.28601e-05
2.7652e-05
2.28603e-05
2.28589e-05
1.56302e-05
1.56297e-05
1.56302e-05
2.28606e-05
2.76522e-05
2.28605e-05
8.92323e-06
1.76095e-06
6.20911e-06
6.20181e-06
8.30272e-08
4.4014e-07
3.96341e-07
3.93678e-06
8.32584e-08
4.56744e-07
3.93279e-06
4.80275e-07
3.62914e-07
1.1404e-07
2.78272e-07
2.69174e-07
5.0009e-06
2.23381e-07
6.5228e-06
1.41077e-05
2.16699e-05
2.67263e-07
4.88071e-06
2.17921e-07
6.47863e-06
3.77451e-06
3.78168e-06
3.79149e-06
3.77762e-06
3.78528e-06
3.79218e-06
3.80223e-06
8.19659e-08
7.45406e-07
1.84581e-06
5.62989e-07
8.23331e-08
7.19411e-07
1.83747e-06
1.36128e-05
2.09432e-05
8.11693e-08
1.85532e-06
7.26486e-07
5.62752e-07
8.05189e-08
1.84651e-06
6.98849e-07
1.72607e-06
1.88809e-06
3.42322e-07
1.70086e-06
1.87032e-06
4.74299e-07
9.72333e-06
3.59482e-07
1.24832e-05
3.6855e-05
4.66169e-05
4.71932e-07
9.79297e-06
3.52972e-07
1.22118e-05
3.81665e-06
3.82305e-06
3.83378e-06
3.90544e-06
3.91339e-06
3.91881e-06