/*--------------------------------*- C++ -*----------------------------------*\
| =========                 |                                                 |
| \\      /  F ield         | OpenFOAM: The Open Source CFD Toolbox           |
|  \\    /   O peration     | Version:  v2012                                 |
|   \\  /    A nd           | Website:  www.openfoam.com                      |
|    \\/     M anipulation  |                                                 |
\*---------------------------------------------------------------------------*/
FoamFile
{
    version     2.0;
    format      ascii;
    class       volScalarField;
    location    "125";
    object      nut;
}
// * * * * * * * * * * * * * * * * * * * * * * * * * * * * * * * * * * * * * //

dimensions      [0 2 -1 0 0 0 0];


internalField   nonuniform List<scalar> 
171728
(
3.7931e-05
3.88533e-06
4.16353e-06
2.06363e-06
3.85058e-05
4.2662e-06
4.57323e-06
2.00646e-06
3.98653e-05
4.82839e-06
5.19034e-06
1.99371e-06
4.11913e-05
5.4758e-06
5.89433e-06
2.02515e-06
4.24743e-05
6.21276e-06
6.70028e-06
2.18676e-06
4.37234e-05
7.05955e-06
7.54111e-06
2.43562e-06
4.49274e-05
8.03574e-06
8.42935e-06
2.76813e-06
4.61015e-05
9.0762e-06
9.24338e-06
3.18008e-06
4.72382e-05
1.02422e-05
1.00635e-05
3.63522e-06
4.83605e-05
1.14827e-05
1.09833e-05
4.13214e-06
4.94366e-05
1.27328e-05
1.19541e-05
4.6532e-06
5.0484e-05
1.40507e-05
1.31734e-05
5.23561e-06
5.15816e-05
1.54292e-05
1.44216e-05
5.92053e-06
5.25521e-05
1.66206e-05
1.57672e-05
6.62083e-06
5.3651e-05
1.78355e-05
1.72436e-05
7.11595e-06
5.46856e-05
1.91083e-05
1.88333e-05
7.76688e-06
5.56409e-05
2.05008e-05
2.04505e-05
8.74353e-06
5.68825e-05
2.20914e-05
2.22864e-05
9.75059e-06
5.82298e-05
2.41134e-05
2.42484e-05
1.13717e-05
5.95779e-05
2.61612e-05
2.61935e-05
1.33996e-05
6.11099e-05
2.82988e-05
2.83307e-05
1.56054e-05
6.27779e-05
3.05313e-05
3.05878e-05
1.85792e-05
6.49629e-05
3.36926e-05
3.36994e-05
2.28373e-05
6.74969e-05
3.74901e-05
3.78516e-05
2.89637e-05
7.04175e-05
4.21983e-05
4.27354e-05
3.71241e-05
7.32783e-05
4.80551e-05
4.83584e-05
4.78345e-05
7.66016e-05
5.64873e-05
5.67035e-05
6.01942e-05
8.21951e-05
6.84388e-05
6.85538e-05
7.33027e-05
8.95379e-05
8.15942e-05
8.1631e-05
8.52704e-05
9.8657e-05
9.40775e-05
9.40867e-05
9.51655e-05
0.000107638
0.000103433
0.000103434
0.000102059
0.000113288
0.000107953
0.000107954
0.000104688
0.000115641
0.0001095
0.0001095
0.000105552
0.000116351
0.00010991
0.00010991
0.00010577
0.000116518
0.000110003
0.000110002
0.00010586
0.000116548
0.000110013
0.000110013
0.000105836
0.000116554
0.000110017
0.000110016
0.000105841
0.000116555
0.000110017
0.000110016
0.000105843
0.000116555
0.000110016
0.000110015
0.000105844
0.000116556
0.000110017
0.000110016
0.000105844
0.000116557
0.000110017
0.000110016
0.000105842
0.000116558
0.000110019
0.000110017
0.000105842
0.000116558
0.000110019
0.000110017
0.000105842
0.000116559
0.000110019
0.000110017
0.000105841
0.000116559
0.00011002
0.000110018
0.000105841
0.00011656
0.00011002
0.000110018
0.000105845
0.00011656
0.00011002
0.000110017
0.000105845
0.000116561
0.00011002
0.000110018
0.000105837
0.000116561
0.000110021
0.000110018
0.000105843
0.000116561
0.000110021
0.000110018
0.000105848
0.000116561
0.00011002
0.000110018
0.000105836
0.000116561
0.000110022
0.000110017
0.000105838
0.000116561
0.000110021
0.000110017
0.000105861
0.000116561
0.000110021
0.000110017
0.00010588
0.000116561
0.000110021
0.000110017
0.000105875
0.000116561
0.000110021
0.000110017
0.000105859
0.000116561
0.000110021
0.000110018
0.000105848
0.000116561
0.000110021
0.000110018
0.000105838
0.000116561
0.000110021
0.000110017
0.000105828
0.000116561
0.000110021
0.000110017
0.000105826
0.000116561
0.000110021
0.000110018
0.000105833
0.000116562
0.000110021
0.000110018
0.000105841
0.000116561
0.000110021
0.000110018
0.000105842
0.000116561
0.000110021
0.000110018
0.000105842
0.000116561
0.000110021
0.000110017
0.000105844
0.000116561
0.000110021
0.000110017
0.000105846
0.000116562
0.000110021
0.000110017
0.000105847
0.000116562
0.000110021
0.000110017
0.000105846
0.000116562
0.000110021
0.000110017
0.000105846
0.000116562
0.000110021
0.000110017
0.00010585
0.000116562
0.000110021
0.000110017
0.000105855
0.000116562
0.000110021
0.000110017
0.000105852
0.000116562
0.000110021
0.000110017
0.000105845
0.000116562
0.000110021
0.000110017
0.000105841
0.000116562
0.000110021
0.000110016
0.000105843
0.000116562
0.00011002
0.000110016
0.000105847
0.000116562
0.00011002
0.000110016
0.000105848
0.000116562
0.000110021
0.000110016
0.000105847
0.000116561
0.000110021
0.000110016
0.000105848
0.000116561
0.000110021
0.000110016
0.000105851
0.000116561
0.000110021
0.000110017
0.00010585
0.000116562
0.000110021
0.000110017
0.000105847
0.000116562
0.000110022
0.000110017
0.000105845
0.000116562
0.000110022
0.000110017
0.000105845
0.000116562
0.000110022
0.000110018
0.000105848
0.000116562
0.000110023
0.000110018
0.000105847
0.000116563
0.000110024
0.000110019
0.000105845
0.000116563
0.000110025
0.00011002
0.000105849
0.000116563
0.000110027
0.000110022
0.000105852
0.000116564
0.00011003
0.000110025
0.00010585
0.000116564
0.000110036
0.000110031
0.000105849
0.000116566
0.000110046
0.000110041
0.000105849
0.000116568
0.000110062
0.000110058
0.00010585
0.000116551
0.000110047
0.000110042
0.000105858
0.00011741
0.000109746
0.000109742
0.000106051
2.29549e-06
2.96221e-06
2.59307e-06
2.14559e-06
3.29255e-06
3.44818e-06
3.86369e-05
3.86744e-05
3.88775e-05
3.85135e-05
2.99287e-06
2.48185e-06
2.28856e-06
3.11449e-06
2.81705e-06
2.07929e-06
2.27463e-06
2.24403e-06
4.00131e-06
3.56375e-06
4.22858e-06
3.7887e-06
2.14039e-06
2.16358e-06
4.24117e-06
4.29476e-06
4.46936e-06
4.53006e-06
3.5282e-06
4.14455e-06
3.77268e-06
2.26968e-06
2.2608e-06
3.83578e-06
4.43704e-06
4.04488e-06
2.02154e-06
2.2296e-06
2.20662e-06
4.34137e-06
3.91647e-06
4.70413e-06
4.31603e-06
2.15606e-06
2.15705e-06
4.59093e-06
4.6661e-06
4.93022e-06
5.10523e-06
3.91074e-06
4.68243e-06
4.3481e-06
2.25246e-06
2.30944e-06
4.16505e-06
5.02787e-06
4.55044e-06
2.00383e-06
2.18372e-06
2.16356e-06
4.83326e-06
4.46972e-06
5.27219e-06
4.92477e-06
2.14467e-06
2.17286e-06
5.04019e-06
5.26875e-06
5.39804e-06
5.77691e-06
4.50768e-06
5.30658e-06
4.97821e-06
2.31436e-06
2.4482e-06
4.69242e-06
5.71096e-06
5.12834e-06
2.0275e-06
2.14802e-06
2.17534e-06
5.44184e-06
5.09895e-06
5.96899e-06
5.65233e-06
2.16624e-06
2.23768e-06
5.52869e-06
5.95592e-06
5.93024e-06
6.52781e-06
5.13788e-06
6.02224e-06
5.64978e-06
2.4615e-06
2.68201e-06
5.27517e-06
6.49694e-06
5.74753e-06
2.18961e-06
2.16538e-06
2.22443e-06
6.15217e-06
5.84361e-06
6.73319e-06
6.50767e-06
2.23754e-06
2.44289e-06
6.08332e-06
6.72425e-06
6.59431e-06
7.36514e-06
5.82769e-06
6.85303e-06
6.43291e-06
2.69104e-06
3.01011e-06
5.9252e-06
7.33705e-06
6.48944e-06
2.43812e-06
2.21766e-06
2.43041e-06
6.94199e-06
6.72244e-06
7.61562e-06
7.41746e-06
2.44025e-06
2.75034e-06
6.79452e-06
7.58405e-06
7.43501e-06
8.30526e-06
6.64686e-06
7.78896e-06
7.33199e-06
3.01763e-06
3.42646e-06
6.68628e-06
8.21211e-06
7.28786e-06
2.76993e-06
2.42402e-06
2.76071e-06
7.85911e-06
7.67932e-06
8.61294e-06
8.39348e-06
2.74641e-06
3.14924e-06
7.65436e-06
8.55303e-06
8.36467e-06
9.30044e-06
7.56319e-06
8.78924e-06
8.29569e-06
3.42969e-06
3.8516e-06
7.49676e-06
9.0333e-06
8.13691e-06
3.1818e-06
2.75495e-06
3.21035e-06
8.87721e-06
8.63334e-06
9.67075e-06
9.47171e-06
3.14526e-06
3.63262e-06
8.60995e-06
9.55705e-06
9.36123e-06
1.03105e-05
8.53993e-06
9.93642e-06
9.34442e-06
3.84628e-06
4.21936e-06
8.36655e-06
9.8653e-06
9.04844e-06
3.63918e-06
3.20591e-06
3.78629e-06
9.94015e-06
9.73327e-06
1.07764e-05
1.04769e-05
3.62952e-06
4.20392e-06
9.63357e-06
1.05725e-05
1.05029e-05
1.1313e-05
9.62574e-06
1.11801e-05
1.04047e-05
4.20443e-06
4.5538e-06
9.27845e-06
1.07346e-05
1.00234e-05
4.13883e-06
3.78485e-06
4.47883e-06
1.10478e-05
1.07667e-05
1.18904e-05
1.16676e-05
4.199e-06
4.83823e-06
1.08101e-05
1.15677e-05
1.17393e-05
1.24098e-05
1.06751e-05
1.24252e-05
1.15217e-05
4.53225e-06
4.90807e-06
1.02706e-05
1.17047e-05
1.10652e-05
4.66229e-06
4.47539e-06
5.19498e-06
1.21854e-05
1.1943e-05
1.30347e-05
1.28261e-05
4.83412e-06
5.57125e-06
1.20613e-05
1.26805e-05
1.30362e-05
1.35136e-05
1.18012e-05
1.37168e-05
1.26672e-05
4.88158e-06
5.29369e-06
1.13619e-05
1.28708e-05
1.24157e-05
5.24466e-06
5.18552e-06
5.97903e-06
1.3344e-05
1.31427e-05
1.43638e-05
1.40546e-05
5.56062e-06
6.26894e-06
1.33611e-05
1.38161e-05
1.44369e-05
1.46725e-05
1.29332e-05
1.50888e-05
1.37278e-05
5.26665e-06
5.82789e-06
1.27273e-05
1.408e-05
1.38866e-05
5.9278e-06
5.92975e-06
6.81234e-06
1.47116e-05
1.43838e-05
1.56725e-05
1.53384e-05
6.21428e-06
6.90608e-06
1.48069e-05
1.49878e-05
1.58249e-05
1.6035e-05
1.40357e-05
1.63502e-05
1.49503e-05
5.78615e-06
6.50122e-06
1.44579e-05
1.54263e-05
1.60985e-05
6.6686e-06
6.73256e-06
7.73556e-06
1.60328e-05
1.56666e-05
1.73681e-05
1.68318e-05
6.81678e-06
7.54409e-06
1.61315e-05
1.62791e-05
1.7308e-05
1.73319e-05
1.5233e-05
1.75474e-05
1.62927e-05
6.4065e-06
7.24808e-06
1.64741e-05
1.69081e-05
1.74117e-05
7.21879e-06
7.62902e-06
8.63966e-06
1.77606e-05
1.71735e-05
1.90099e-05
1.82935e-05
7.42416e-06
8.23168e-06
1.76793e-05
1.77593e-05
1.87728e-05
1.87339e-05
1.66583e-05
1.87167e-05
1.79648e-05
7.1292e-06
8.11278e-06
1.76984e-05
1.83959e-05
1.87937e-05
7.88903e-06
8.49092e-06
9.50723e-06
1.94552e-05
1.87142e-05
2.03604e-05
1.98597e-05
8.08013e-06
9.13654e-06
1.92093e-05
1.90896e-05
2.02863e-05
2.03145e-05
1.8481e-05
2.01483e-05
1.97128e-05
7.96313e-06
9.11948e-06
1.91843e-05
1.99815e-05
2.01696e-05
8.91735e-06
9.30158e-06
1.05216e-05
2.06904e-05
2.03283e-05
2.18279e-05
2.17788e-05
8.93899e-06
1.03231e-05
2.0703e-05
2.07869e-05
2.20541e-05
2.184e-05
2.02047e-05
2.1697e-05
2.15164e-05
8.92054e-06
1.0359e-05
2.05959e-05
2.18592e-05
2.18457e-05
1.00155e-05
1.02596e-05
1.18046e-05
2.22484e-05
2.22275e-05
2.37129e-05
2.37051e-05
1.00627e-05
1.16857e-05
2.24355e-05
2.20948e-05
2.373e-05
2.35038e-05
2.18391e-05
2.35646e-05
2.33217e-05
1.00969e-05
1.16551e-05
2.22387e-05
2.37341e-05
2.36679e-05
1.12948e-05
1.18317e-05
1.35711e-05
2.41937e-05
2.42091e-05
2.56392e-05
2.56863e-05
1.17263e-05
1.34888e-05
2.42465e-05
2.41408e-05
2.57521e-05
2.58437e-05
2.39378e-05
2.56791e-05
2.55206e-05
1.1708e-05
1.34835e-05
2.41639e-05
2.57469e-05
2.56733e-05
1.31944e-05
1.37574e-05
1.55712e-05
2.60989e-05
2.61457e-05
2.76185e-05
2.76677e-05
1.36784e-05
1.55453e-05
2.6192e-05
2.63056e-05
2.76681e-05
2.77599e-05
2.59429e-05
2.77336e-05
2.7457e-05
1.36736e-05
1.55493e-05
2.61472e-05
2.77362e-05
2.76338e-05
1.53229e-05
1.58365e-05
1.82553e-05
2.82029e-05
2.82493e-05
2.98908e-05
2.99598e-05
1.58141e-05
1.82699e-05
2.82471e-05
2.83059e-05
2.99387e-05
2.99173e-05
2.8069e-05
2.99349e-05
2.98169e-05
1.5823e-05
1.82897e-05
2.82062e-05
3.00056e-05
2.9947e-05
1.81256e-05
1.87056e-05
2.22342e-05
3.04792e-05
3.05556e-05
3.27287e-05
3.27821e-05
1.87311e-05
2.22989e-05
3.05189e-05
3.05031e-05
3.27024e-05
3.27374e-05
3.04171e-05
3.28147e-05
3.26387e-05
1.87492e-05
2.23404e-05
3.05546e-05
3.28218e-05
3.27658e-05
2.20839e-05
2.29939e-05
2.80057e-05
3.36269e-05
3.36721e-05
3.65005e-05
3.66091e-05
2.30582e-05
2.80574e-05
3.35902e-05
3.36291e-05
3.65302e-05
3.65662e-05
3.35066e-05
3.64897e-05
3.63252e-05
2.3116e-05
2.82645e-05
3.36332e-05
3.67212e-05
3.64596e-05
2.78499e-05
2.91095e-05
3.56784e-05
3.75203e-05
3.76647e-05
4.095e-05
4.11164e-05
2.91626e-05
3.57483e-05
3.75749e-05
3.7617e-05
4.09845e-05
4.10476e-05
3.7353e-05
4.09249e-05
4.08513e-05
2.94017e-05
3.59834e-05
3.74808e-05
4.14921e-05
4.09374e-05
3.56273e-05
3.7152e-05
4.58646e-05
4.22155e-05
4.23565e-05
4.64374e-05
4.64868e-05
3.72263e-05
4.59244e-05
4.2228e-05
4.22891e-05
4.64475e-05
4.64717e-05
4.21394e-05
4.64494e-05
4.63911e-05
3.7431e-05
4.60077e-05
4.22155e-05
4.67983e-05
4.64614e-05
4.58909e-05
4.78145e-05
5.80654e-05
4.80449e-05
4.80712e-05
5.40014e-05
5.39902e-05
4.7861e-05
5.80394e-05
4.80735e-05
4.80802e-05
5.40686e-05
5.40521e-05
4.7999e-05
5.40029e-05
5.39522e-05
4.79357e-05
5.81332e-05
4.80679e-05
5.42372e-05
5.40059e-05
5.80269e-05
6.02404e-05
7.11255e-05
5.6494e-05
5.64779e-05
6.52656e-05
6.52468e-05
6.02062e-05
7.10972e-05
5.65604e-05
5.6547e-05
6.53058e-05
6.53081e-05
5.64466e-05
6.52555e-05
6.52321e-05
6.03052e-05
7.11765e-05
5.64924e-05
6.53974e-05
6.52557e-05
7.10925e-05
7.33308e-05
8.33715e-05
6.84504e-05
6.84329e-05
7.829e-05
7.82764e-05
7.33072e-05
8.33638e-05
6.84808e-05
6.84862e-05
7.82994e-05
7.83048e-05
6.84225e-05
7.82871e-05
7.82768e-05
7.33758e-05
8.33903e-05
6.84405e-05
7.83372e-05
7.82841e-05
8.33623e-05
8.52779e-05
9.36785e-05
8.15971e-05
8.15852e-05
9.11425e-05
9.11317e-05
8.52721e-05
9.36766e-05
8.1603e-05
8.16063e-05
9.11435e-05
9.11397e-05
8.15881e-05
9.11461e-05
9.11426e-05
8.52929e-05
9.36826e-05
8.15934e-05
9.11595e-05
9.11445e-05
9.36783e-05
9.51658e-05
0.000101145
9.40732e-05
9.40632e-05
0.000101538
0.000101528
9.51643e-05
0.000101144
9.40748e-05
9.40681e-05
0.000101541
0.000101528
9.4075e-05
0.000101547
0.000101541
9.51685e-05
0.000101142
9.4077e-05
0.000101548
0.000101545
0.000101144
0.000102061
0.000104403
0.000103424
0.000103414
0.000107187
0.000107176
0.00010206
0.000104402
0.000103427
0.000103413
0.000107191
0.000107174
0.000103428
0.000107198
0.000107193
0.000102057
0.000104401
0.000103432
0.000107199
0.000107197
0.000104406
0.000104686
0.000105477
0.000107942
0.000107931
0.000109262
0.00010925
0.000104685
0.000105477
0.000107947
0.000107929
0.000109268
0.000109248
0.000107948
0.000109274
0.000109268
0.000104683
0.000105474
0.000107953
0.000109274
0.000109273
0.000105479
0.00010555
0.000105766
0.000109488
0.000109476
0.000109841
0.000109828
0.00010555
0.000105765
0.000109494
0.000109474
0.000109847
0.000109827
0.000109494
0.000109854
0.000109847
0.000105547
0.000105761
0.0001095
0.000109853
0.000109853
0.000105766
0.000105768
0.000105878
0.000109898
0.000109885
0.00010998
0.000109967
0.000105768
0.000105878
0.000109904
0.000109883
0.000109986
0.000109965
0.000109903
0.000109993
0.000109985
0.000105764
0.000105873
0.000109909
0.000109992
0.000109991
0.000105878
0.00010586
0.000105859
0.00010999
0.000109977
0.00011
0.000109987
0.00010586
0.000105858
0.000109997
0.000109976
0.000110007
0.000109986
0.000109995
0.000110013
0.000110004
0.000105855
0.000105855
0.000110001
0.000110012
0.00011001
0.000105858
0.000105837
0.000105857
0.000110001
0.000109987
0.000110002
0.000109989
0.000105836
0.000105856
0.000110007
0.000109986
0.000110009
0.000109988
0.000110005
0.000110014
0.000110006
0.000105832
0.000105853
0.000110011
0.000110014
0.000110012
0.000105857
0.000105841
0.000105868
0.000110004
0.000109991
0.000110005
0.000109992
0.00010584
0.000105868
0.000110012
0.00010999
0.000110012
0.000109991
0.000110008
0.000110017
0.000110008
0.000105837
0.000105863
0.000110014
0.000110016
0.000110015
0.000105866
0.000105845
0.000105863
0.000110005
0.000109991
0.000110004
0.000109991
0.000105844
0.000105863
0.000110011
0.00010999
0.000110011
0.00010999
0.000110008
0.000110016
0.000110008
0.000105839
0.000105859
0.000110014
0.000110015
0.000110014
0.000105862
0.000105845
0.000105864
0.000110004
0.000109991
0.000110004
0.000109991
0.000105846
0.000105863
0.000110011
0.00010999
0.000110011
0.00010999
0.000110008
0.000110016
0.000110008
0.000105841
0.000105861
0.000110014
0.000110016
0.000110014
0.000105863
0.000105844
0.000105863
0.000110004
0.000109991
0.000110004
0.000109991
0.000105845
0.000105861
0.000110011
0.00010999
0.000110012
0.00010999
0.000110008
0.000110017
0.000110008
0.000105842
0.000105858
0.000110014
0.000110016
0.000110014
0.000105861
0.000105844
0.000105866
0.000110004
0.000109991
0.000110005
0.000109992
0.000105843
0.000105862
0.000110012
0.00010999
0.000110012
0.00010999
0.000110008
0.000110019
0.000110009
0.000105841
0.000105859
0.000110014
0.000110017
0.000110015
0.000105863
0.000105845
0.00010587
0.000110005
0.000109992
0.000110005
0.000109993
0.000105843
0.000105863
0.000110013
0.000109991
0.000110013
0.000109991
0.000110009
0.000110019
0.000110009
0.000105841
0.000105857
0.000110015
0.000110017
0.000110015
0.000105862
0.00010585
0.000105871
0.000110005
0.000109993
0.000110006
0.000109994
0.000105842
0.000105863
0.000110013
0.000109991
0.000110014
0.000109992
0.000110009
0.000110019
0.00011001
0.00010584
0.000105857
0.000110015
0.000110018
0.000110016
0.000105862
0.000105853
0.00010587
0.000110006
0.000109994
0.000110006
0.000109994
0.000105842
0.000105865
0.000110013
0.000109992
0.000110013
0.000109992
0.00011001
0.00011002
0.00011001
0.00010584
0.000105859
0.000110015
0.000110018
0.000110016
0.000105863
0.000105855
0.000105865
0.000110006
0.000109994
0.000110006
0.000109994
0.000105843
0.000105864
0.000110014
0.000109992
0.000110013
0.000109992
0.00011001
0.00011002
0.00011001
0.000105842
0.000105857
0.000110016
0.000110017
0.000110016
0.000105866
0.000105852
0.000105863
0.000110006
0.000109994
0.000110007
0.000109995
0.000105843
0.000105862
0.000110013
0.000109992
0.000110013
0.000109992
0.00011001
0.00011002
0.00011001
0.000105841
0.000105857
0.000110016
0.000110017
0.000110016
0.000105863
0.000105848
0.000105868
0.000110007
0.000109995
0.000110007
0.000109995
0.000105841
0.000105866
0.000110013
0.000109992
0.000110014
0.000109992
0.00011001
0.000110021
0.00011001
0.000105839
0.000105859
0.000110016
0.000110018
0.000110016
0.000105858
0.00010585
0.000105867
0.000110007
0.000109995
0.000110007
0.000109996
0.000105845
0.00010586
0.000110013
0.000109992
0.000110014
0.000109992
0.00011001
0.000110021
0.00011001
0.000105842
0.000105855
0.000110016
0.000110018
0.000110016
0.000105867
0.000105851
0.000105861
0.000110007
0.000109995
0.000110007
0.000109995
0.000105841
0.000105859
0.000110013
0.000109992
0.000110013
0.000109992
0.00011001
0.00011002
0.00011001
0.000105837
0.000105857
0.000110016
0.000110018
0.000110016
0.000105866
0.000105843
0.000105871
0.000110007
0.000109995
0.000110007
0.000109995
0.000105834
0.000105876
0.000110013
0.000109992
0.000110013
0.000109992
0.00011001
0.00011002
0.00011001
0.000105835
0.00010587
0.000110016
0.000110018
0.000110015
0.000105856
0.000105846
0.000105883
0.000110007
0.000109995
0.000110008
0.000109996
0.000105849
0.00010588
0.000110013
0.000109992
0.000110013
0.000109992
0.00011001
0.000110022
0.000110011
0.000105847
0.00010587
0.000110015
0.000110018
0.000110015
0.000105867
0.000105862
0.000105871
0.000110008
0.000109996
0.000110008
0.000109996
0.000105865
0.000105856
0.000110013
0.000109992
0.000110013
0.000109992
0.00011001
0.00011002
0.00011001
0.000105856
0.000105852
0.000110015
0.000110017
0.000110016
0.000105888
0.000105862
0.000105852
0.000110008
0.000109996
0.000110008
0.000109996
0.000105852
0.000105838
0.000110013
0.000109992
0.000110013
0.000109992
0.00011001
0.000110021
0.00011001
0.000105844
0.000105846
0.000110015
0.000110017
0.000110016
0.000105889
0.000105845
0.000105847
0.000110008
0.000109996
0.000110008
0.000109996
0.000105826
0.000105848
0.000110013
0.000109992
0.000110013
0.000109992
0.00011001
0.000110021
0.000110011
0.000105831
0.000105855
0.000110016
0.000110017
0.000110016
0.000105869
0.000105832
0.000105854
0.000110008
0.000109996
0.000110008
0.000109996
0.000105821
0.00010587
0.000110013
0.000109992
0.000110013
0.000109992
0.00011001
0.000110021
0.00011001
0.000105834
0.000105865
0.000110016
0.000110018
0.000110016
0.000105847
0.000105832
0.00010586
0.000110008
0.000109996
0.000110008
0.000109996
0.000105839
0.000105876
0.000110013
0.000109992
0.000110013
0.000109992
0.00011001
0.000110021
0.00011001
0.000105845
0.000105861
0.000110016
0.000110017
0.000110016
0.000105833
0.000105836
0.000105864
0.000110008
0.000109996
0.000110009
0.000109997
0.000105854
0.000105866
0.000110013
0.000109992
0.000110013
0.000109992
0.000110011
0.000110022
0.00011001
0.000105848
0.000105851
0.000110017
0.000110017
0.000110015
0.000105823
0.000105839
0.000105865
0.000110009
0.000109996
0.000110009
0.000109996
0.000105854
0.000105852
0.000110013
0.000109992
0.000110013
0.000109992
0.000110011
0.000110021
0.00011001
0.000105841
0.000105845
0.000110016
0.000110017
0.000110015
0.000105816
0.000105842
0.000105859
0.000110009
0.000109997
0.000110008
0.000109996
0.000105842
0.000105847
0.000110013
0.000109992
0.000110013
0.000109992
0.00011001
0.000110021
0.00011001
0.000105832
0.000105844
0.000110015
0.000110017
0.000110015
0.000105815
0.000105838
0.000105854
0.000110008
0.000109996
0.000110009
0.000109996
0.000105833
0.000105846
0.000110013
0.000109992
0.000110013
0.000109992
0.00011001
0.000110021
0.00011001
0.000105827
0.000105845
0.000110015
0.000110017
0.000110015
0.000105821
0.000105832
0.000105855
0.000110009
0.000109996
0.000110009
0.000109996
0.000105828
0.000105848
0.000110013
0.000109992
0.000110013
0.000109992
0.00011001
0.000110021
0.00011001
0.000105825
0.000105847
0.000110016
0.000110018
0.000110016
0.000105828
0.000105829
0.000105856
0.000110009
0.000109996
0.000110009
0.000109996
0.000105826
0.000105851
0.000110013
0.000109992
0.000110013
0.000109992
0.00011001
0.000110021
0.00011001
0.000105825
0.000105849
0.000110016
0.000110018
0.000110015
0.000105831
0.000105827
0.000105858
0.000110009
0.000109996
0.000110009
0.000109996
0.000105826
0.000105854
0.000110013
0.000109992
0.000110013
0.000109992
0.00011001
0.000110021
0.00011001
0.000105825
0.00010585
0.000110015
0.000110018
0.000110015
0.000105831
0.000105827
0.000105863
0.000110009
0.000109996
0.000110009
0.000109996
0.000105827
0.000105855
0.000110013
0.000109992
0.000110012
0.000109992
0.00011001
0.000110021
0.00011001
0.000105825
0.000105852
0.000110015
0.000110017
0.000110015
0.000105833
0.00010583
0.000105863
0.000110009
0.000109996
0.000110009
0.000109996
0.000105827
0.000105856
0.000110012
0.000109992
0.000110012
0.000109992
0.00011001
0.000110021
0.00011001
0.000105825
0.000105854
0.000110015
0.000110017
0.000110015
0.000105835
0.000105832
0.00010586
0.000110009
0.000109996
0.000110009
0.000109996
0.000105827
0.000105857
0.000110012
0.000109992
0.000110012
0.000109992
0.00011001
0.000110021
0.00011001
0.000105827
0.000105856
0.000110015
0.000110017
0.000110015
0.000105836
0.000105831
0.000105858
0.000110009
0.000109996
0.000110009
0.000109996
0.000105827
0.00010586
0.000110012
0.000109992
0.000110012
0.000109992
0.00011001
0.000110021
0.00011001
0.00010583
0.000105854
0.000110015
0.000110017
0.000110015
0.000105835
0.000105829
0.000105857
0.000110009
0.000109996
0.000110009
0.000109996
0.000105829
0.00010586
0.000110012
0.000109992
0.000110012
0.000109992
0.00011001
0.000110021
0.00011001
0.00010583
0.000105852
0.000110015
0.000110017
0.000110015
0.000105835
0.000105827
0.000105858
0.000110009
0.000109996
0.000110009
0.000109996
0.00010583
0.000105858
0.000110012
0.000109992
0.000110012
0.000109992
0.00011001
0.000110021
0.00011001
0.000105828
0.000105851
0.000110015
0.000110017
0.000110015
0.000105839
0.000105827
0.000105861
0.000110009
0.000109996
0.000110009
0.000109996
0.00010583
0.000105856
0.000110012
0.000109992
0.000110012
0.000109992
0.00011001
0.000110021
0.00011001
0.000105826
0.000105851
0.000110015
0.000110017
0.000110015
0.000105844
0.000105828
0.000105862
0.000110009
0.000109996
0.000110009
0.000109996
0.000105828
0.000105856
0.000110012
0.000109992
0.000110012
0.000109992
0.00011001
0.000110021
0.00011001
0.000105825
0.000105852
0.000110015
0.000110017
0.000110015
0.000105843
0.000105829
0.000105863
0.000110009
0.000109996
0.000110009
0.000109996
0.000105826
0.000105857
0.000110012
0.000109992
0.000110012
0.000109992
0.00011001
0.000110021
0.00011001
0.000105824
0.000105854
0.000110015
0.000110017
0.000110015
0.000105836
0.00010583
0.000105863
0.000110009
0.000109996
0.000110009
0.000109996
0.000105827
0.000105858
0.000110012
0.000109991
0.000110012
0.000109991
0.000110011
0.000110021
0.00011001
0.000105825
0.000105857
0.000110015
0.000110017
0.000110015
0.000105831
0.000105831
0.000105861
0.000110009
0.000109996
0.000110009
0.000109996
0.000105827
0.000105858
0.000110012
0.000109991
0.000110012
0.000109991
0.00011001
0.00011002
0.00011001
0.000105829
0.000105854
0.000110015
0.000110016
0.000110015
0.000105832
0.000105831
0.00010586
0.000110009
0.000109995
0.000110009
0.000109995
0.000105827
0.000105859
0.000110012
0.000109991
0.000110012
0.000109991
0.00011001
0.00011002
0.00011001
0.00010583
0.000105852
0.000110015
0.000110016
0.000110014
0.000105835
0.00010583
0.000105859
0.000110008
0.000109995
0.000110009
0.000109996
0.000105827
0.000105862
0.000110012
0.000109991
0.000110012
0.000109991
0.00011001
0.00011002
0.00011001
0.000105828
0.00010585
0.000110014
0.000110016
0.000110014
0.000105837
0.000105829
0.000105858
0.000110008
0.000109995
0.000110009
0.000109996
0.000105829
0.000105862
0.000110012
0.000109991
0.000110012
0.000109991
0.00011001
0.00011002
0.00011001
0.000105826
0.00010585
0.000110014
0.000110016
0.000110014
0.000105836
0.000105828
0.000105859
0.000110008
0.000109995
0.000110008
0.000109995
0.000105831
0.000105859
0.000110012
0.000109991
0.000110012
0.000109991
0.00011001
0.00011002
0.000110009
0.000105824
0.000105851
0.000110014
0.000110016
0.000110014
0.000105837
0.000105827
0.000105861
0.000110008
0.000109995
0.000110008
0.000109995
0.000105828
0.000105858
0.000110012
0.000109991
0.000110012
0.000109991
0.00011001
0.00011002
0.000110009
0.000105824
0.000105854
0.000110014
0.000110016
0.000110014
0.00010584
0.000105829
0.000105861
0.000110008
0.000109995
0.000110008
0.000109995
0.000105827
0.00010586
0.000110012
0.000109991
0.000110012
0.000109991
0.00011001
0.00011002
0.000110009
0.000105825
0.000105858
0.000110014
0.000110016
0.000110014
0.00010584
0.00010583
0.000105858
0.000110009
0.000109996
0.000110008
0.000109995
0.000105828
0.000105862
0.000110012
0.000109991
0.000110012
0.000109991
0.00011001
0.00011002
0.000110009
0.00010583
0.000105854
0.000110014
0.000110016
0.000110014
0.000105837
0.000105829
0.000105856
0.000110009
0.000109996
0.000110008
0.000109995
0.000105831
0.000105861
0.000110012
0.000109992
0.000110012
0.000109991
0.00011001
0.000110021
0.000110009
0.000105831
0.000105848
0.000110015
0.000110016
0.000110014
0.000105835
0.000105827
0.000105857
0.000110009
0.000109996
0.000110008
0.000109995
0.000105833
0.000105856
0.000110013
0.000109992
0.000110012
0.000109991
0.00011001
0.000110021
0.000110009
0.000105825
0.00010585
0.000110015
0.000110016
0.000110014
0.000105835
0.000105826
0.000105858
0.00011001
0.000109996
0.000110009
0.000109995
0.000105829
0.000105854
0.000110013
0.000109992
0.000110012
0.000109991
0.000110011
0.000110021
0.00011001
0.000105822
0.000105858
0.000110015
0.000110016
0.000110014
0.000105836
0.000105827
0.000105858
0.00011001
0.000109997
0.000110009
0.000109996
0.000105826
0.000105855
0.000110013
0.000109993
0.000110012
0.000109991
0.000110011
0.000110021
0.00011001
0.000105827
0.00010586
0.000110016
0.000110016
0.000110014
0.000105835
0.000105827
0.000105858
0.000110011
0.000109998
0.000110009
0.000109996
0.000105825
0.000105858
0.000110014
0.000109993
0.000110012
0.000109992
0.000110012
0.000110021
0.00011001
0.000105833
0.000105854
0.000110016
0.000110017
0.000110014
0.000105833
0.000105827
0.000105861
0.000110012
0.000109998
0.00011001
0.000109997
0.000105826
0.000105862
0.000110015
0.000109994
0.000110013
0.000109992
0.000110013
0.000110022
0.000110011
0.000105833
0.000105849
0.000110017
0.000110017
0.000110015
0.000105836
0.000105828
0.000105864
0.000110013
0.00011
0.000110011
0.000109998
0.00010583
0.000105863
0.000110016
0.000109995
0.000110014
0.000109993
0.000110014
0.000110023
0.000110012
0.000105828
0.000105851
0.000110018
0.000110018
0.000110016
0.00010584
0.000105832
0.000105865
0.000110015
0.000110002
0.000110013
0.00011
0.000105833
0.00010586
0.000110018
0.000109997
0.000110016
0.000109995
0.000110016
0.000110025
0.000110013
0.000105828
0.000105854
0.00011002
0.00011002
0.000110018
0.000105839
0.000105834
0.000105866
0.000110018
0.000110005
0.000110016
0.000110003
0.000105832
0.000105862
0.000110021
0.000110001
0.00011002
0.000109999
0.000110019
0.000110028
0.000110017
0.000105831
0.000105855
0.000110023
0.000110024
0.000110022
0.000105837
0.000105836
0.00010587
0.000110024
0.000110011
0.000110024
0.000110011
0.000105833
0.000105868
0.000110027
0.000110007
0.000110027
0.000110006
0.000110025
0.000110036
0.000110025
0.000105832
0.000105857
0.000110029
0.000110031
0.000110029
0.000105837
0.00010584
0.000105875
0.000110034
0.00011002
0.000110037
0.000110024
0.000105838
0.000105876
0.000110037
0.000110016
0.00011004
0.00011002
0.000110035
0.000110049
0.000110038
0.000105831
0.000105867
0.000110039
0.000110044
0.000110042
0.000105839
0.000105845
0.000105879
0.00011005
0.000110038
0.00011006
0.000110049
0.000105846
0.00010588
0.000110054
0.000110034
0.000110065
0.000110045
0.000110052
0.000110073
0.000110061
0.000105838
0.000105877
0.000110057
0.000110068
0.000110068
0.000105847
0.000105849
0.000105909
0.000110034
0.000110023
0.00011025
0.000110238
0.000105851
0.000105909
0.000110039
0.000110018
0.000110255
0.000110234
0.000110034
0.000110264
0.00011025
0.000105848
0.000105905
0.000110042
0.00011026
0.000110257
0.000105911
0.000106045
0.000109733
0.000109723
0.000106045
0.000109738
0.000109718
0.000117408
0.000117406
0.000117409
0.000109733
0.000106041
0.00010974
8.69653e-05
1.88263e-05
6.06041e-05
6.05696e-05
6.12321e-07
3.08516e-06
1.2345e-06
3.94839e-05
5.78984e-07
3.22219e-06
3.9469e-05
1.75227e-06
2.12179e-06
3.36115e-07
1.71186e-06
1.02664e-06
1.3551e-05
9.28151e-07
1.51555e-05
1.09827e-05
1.31986e-05
9.99959e-07
1.33889e-05
8.91923e-07
1.50775e-05
3.79509e-05
3.81886e-05
3.77766e-05
3.8173e-05
3.81784e-05
3.84417e-05
3.8e-05
5.94498e-07
5.47701e-07
1.90574e-05
3.9308e-06
5.99465e-07
6.8122e-07
1.89947e-05
1.07913e-05
1.2968e-05
5.54988e-07
1.96999e-05
5.50395e-07
4.21107e-06
5.52713e-07
1.96423e-05
6.76138e-07
1.30655e-06
1.49188e-06
2.04291e-06
1.50273e-06
1.70099e-06
1.25452e-06
1.84509e-05
1.14227e-06
2.09282e-05
1.71929e-05
1.93338e-05
1.24593e-06
1.85473e-05
1.11039e-06
2.0657e-05
3.85186e-05
3.87753e-05
3.83406e-05
3.95274e-05
3.95541e-05
3.97932e-05