/*--------------------------------*- C++ -*----------------------------------*\
| =========                 |                                                 |
| \\      /  F ield         | OpenFOAM: The Open Source CFD Toolbox           |
|  \\    /   O peration     | Version:  v2012                                 |
|   \\  /    A nd           | Website:  www.openfoam.com                      |
|    \\/     M anipulation  |                                                 |
\*---------------------------------------------------------------------------*/
FoamFile
{
    version     2.0;
    format      ascii;
    class       volScalarField;
    location    "125";
    object      nut;
}
// * * * * * * * * * * * * * * * * * * * * * * * * * * * * * * * * * * * * * //

dimensions      [0 2 -1 0 0 0 0];


internalField   nonuniform List<scalar> 
171728
(
0.000233973
0.000233116
0.000233116
0.000233423
0.000232532
0.000227802
0.000227801
0.000223866
0.000230516
0.00022032
0.000220318
0.000209109
0.000227799
0.000211665
0.000211661
0.000193785
0.000224433
0.00020265
0.000202644
0.000179709
0.000220552
0.000193772
0.000193765
0.000167339
0.000216304
0.000185275
0.000185267
0.000156587
0.00021182
0.000177234
0.000177225
0.000147206
0.000207207
0.000169688
0.00016968
0.00013895
0.000202545
0.000162611
0.000162602
0.000131614
0.000197889
0.000155948
0.00015594
0.000124953
0.000193275
0.000149646
0.000149637
0.000118816
0.000188682
0.000143664
0.000143656
0.000113167
0.000184149
0.00013795
0.000137942
0.000107932
0.000179704
0.00013246
0.000132452
0.000103056
0.000175339
0.00012719
0.00012718
9.84354e-05
0.000171033
0.000122149
0.00012214
9.42508e-05
0.000166785
0.000117372
0.000117362
9.06598e-05
0.000162586
0.000112888
0.000112877
8.77314e-05
0.00015841
0.000108756
0.000108745
8.5384e-05
0.000154265
0.000105027
0.000105018
8.36681e-05
0.00015014
0.000101718
0.00010171
8.25849e-05
0.000146071
9.8908e-05
9.89002e-05
8.21038e-05
0.000142068
9.66217e-05
9.6615e-05
8.21928e-05
0.000138177
9.49328e-05
9.4927e-05
8.28277e-05
0.000134803
9.40282e-05
9.40231e-05
8.40751e-05
0.000131502
9.37967e-05
9.37936e-05
8.60251e-05
0.000129974
9.50926e-05
9.50863e-05
8.85986e-05
0.00012924
9.61788e-05
9.61743e-05
9.02439e-05
0.000126925
9.57885e-05
9.57856e-05
9.05516e-05
0.000125035
9.54202e-05
9.54182e-05
9.04086e-05
0.00012451
9.54497e-05
9.54488e-05
9.05457e-05
0.000124553
9.56958e-05
9.56948e-05
9.06951e-05
0.000124672
9.58094e-05
9.58084e-05
9.07926e-05
0.000124717
9.58439e-05
9.58426e-05
9.08074e-05
0.00012473
9.58527e-05
9.58514e-05
9.08004e-05
0.000124732
9.58522e-05
9.5851e-05
9.08105e-05
0.000124733
9.58521e-05
9.5851e-05
9.08065e-05
0.000124735
9.58527e-05
9.58514e-05
9.07996e-05
0.000124736
9.58532e-05
9.58521e-05
9.08081e-05
0.000124737
9.5854e-05
9.58529e-05
9.08126e-05
0.000124738
9.58543e-05
9.58529e-05
9.0786e-05
0.000124739
9.58555e-05
9.58537e-05
9.08169e-05
0.00012474
9.5856e-05
9.58533e-05
9.08448e-05
0.00012474
9.58572e-05
9.58542e-05
9.08591e-05
0.000124741
9.58566e-05
9.58533e-05
9.07731e-05
0.000124741
9.5855e-05
9.58514e-05
9.07415e-05
0.000124741
9.58557e-05
9.58518e-05
9.08514e-05
0.000124741
9.58577e-05
9.58536e-05
9.08987e-05
0.000124741
9.58582e-05
9.58539e-05
9.0862e-05
0.000124741
9.58574e-05
9.5853e-05
9.07777e-05
0.000124741
9.58566e-05
9.58521e-05
9.07212e-05
0.000124741
9.58562e-05
9.58515e-05
9.07358e-05
0.000124741
9.58561e-05
9.58513e-05
9.07997e-05
0.000124741
9.58566e-05
9.58517e-05
9.08796e-05
0.000124741
9.58578e-05
9.58527e-05
9.089e-05
0.000124741
9.58585e-05
9.58533e-05
9.08332e-05
0.000124741
9.58587e-05
9.58533e-05
9.07598e-05
0.000124741
9.58585e-05
9.58531e-05
9.07575e-05
0.000124741
9.58582e-05
9.58526e-05
9.08149e-05
0.000124741
9.58582e-05
9.58525e-05
9.08496e-05
0.000124741
9.58578e-05
9.58525e-05
9.08233e-05
0.000124741
9.58576e-05
9.58525e-05
9.08082e-05
0.000124741
9.58574e-05
9.58523e-05
9.08244e-05
0.000124741
9.58573e-05
9.58521e-05
9.08344e-05
0.000124741
9.58573e-05
9.58521e-05
9.08151e-05
0.000124741
9.58577e-05
9.58528e-05
9.07732e-05
0.000124741
9.58581e-05
9.58531e-05
9.07651e-05
0.000124741
9.58586e-05
9.5853e-05
9.07941e-05
0.000124741
9.5859e-05
9.58526e-05
9.08146e-05
0.000124741
9.58588e-05
9.58527e-05
9.08133e-05
0.000124741
9.58582e-05
9.58527e-05
9.08111e-05
0.000124741
9.58575e-05
9.58526e-05
9.08139e-05
0.000124741
9.58579e-05
9.58524e-05
9.08176e-05
0.000124742
9.58589e-05
9.58528e-05
9.08312e-05
0.000124742
9.58587e-05
9.58527e-05
9.0846e-05
0.000124742
9.58575e-05
9.58523e-05
9.08446e-05
0.000124741
9.58577e-05
9.58521e-05
9.08174e-05
0.000124742
9.58575e-05
9.58521e-05
9.07831e-05
0.000124742
9.58576e-05
9.5852e-05
9.07836e-05
0.000124742
9.58576e-05
9.58517e-05
9.07863e-05
0.000124742
9.58575e-05
9.58515e-05
9.07703e-05
0.000124742
9.58576e-05
9.58516e-05
9.07669e-05
0.000124742
9.58581e-05
9.58519e-05
9.07804e-05
0.000124742
9.58587e-05
9.58526e-05
9.08059e-05
0.000124742
9.58595e-05
9.58536e-05
9.08339e-05
0.000124743
9.58608e-05
9.5855e-05
9.08499e-05
0.000124743
9.58631e-05
9.58571e-05
9.08473e-05
0.000124744
9.58667e-05
9.58604e-05
9.08232e-05
0.000124745
9.58724e-05
9.58661e-05
9.07888e-05
0.000124747
9.58818e-05
9.58755e-05
9.07894e-05
0.000124749
9.58975e-05
9.58912e-05
9.08091e-05
0.000124756
9.59237e-05
9.59176e-05
9.08301e-05
0.000124792
9.59195e-05
9.59133e-05
9.08465e-05
0.000127517
9.65213e-05
9.65173e-05
9.08795e-05
0.000234266
0.000234448
0.000234449
0.000234267
0.000234448
0.000234449
0.000234274
0.000234274
0.000234274
0.000234274
0.000234448
0.000234448
0.000234266
0.000234448
0.000234448
0.000234266
0.000233423
0.000226204
0.000233116
0.000233114
0.000229361
0.000229357
0.000233423
0.000226206
0.000233114
0.000233114
0.000229359
0.000229356
0.000233116
0.000229364
0.000229361
0.000233423
0.000226202
0.000233114
0.000229363
0.000229359
0.000226203
0.000223867
0.00021223
0.000227799
0.000227794
0.000222332
0.000222326
0.000223868
0.000212234
0.000227797
0.000227792
0.000222332
0.000222323
0.000227798
0.000222339
0.000222331
0.000223866
0.000212227
0.000227797
0.000222336
0.000222331
0.000212228
0.000209111
0.000197061
0.000220313
0.000220307
0.000213879
0.000213874
0.000209112
0.000197066
0.000220314
0.000220304
0.000213883
0.000213869
0.000220311
0.00021389
0.000213877
0.000209107
0.000197057
0.000220313
0.000213886
0.000213882
0.000197058
0.000193788
0.000182876
0.000211654
0.000211648
0.00020489
0.000204884
0.000193791
0.000182883
0.000211658
0.000211643
0.000204897
0.000204879
0.000211651
0.000204905
0.000204887
0.000193784
0.000182872
0.000211657
0.000204899
0.000204896
0.000182873
0.000179712
0.000170268
0.000202634
0.000202628
0.000195942
0.000195937
0.000179717
0.000170274
0.000202643
0.000202622
0.000195954
0.000195931
0.000202631
0.000195962
0.00019594
0.000179708
0.000170263
0.000202641
0.000195955
0.000195953
0.000170264
0.000167344
0.000159242
0.000193753
0.000193747
0.000187336
0.000187331
0.000167349
0.000159249
0.000193765
0.00019374
0.000187351
0.000187324
0.000193749
0.000187358
0.000187333
0.000167339
0.000159238
0.000193763
0.000187351
0.00018735
0.000159238
0.000156591
0.000149613
0.000185253
0.000185247
0.000179173
0.000179167
0.000156597
0.00014962
0.000185268
0.00018524
0.000179191
0.00017916
0.000185249
0.000179198
0.00017917
0.000156587
0.000149608
0.000185267
0.000179189
0.000179189
0.000149608
0.000147211
0.000141107
0.000177208
0.000177203
0.000171501
0.000171496
0.000147217
0.000141113
0.000177227
0.000177195
0.000171521
0.000171488
0.000177205
0.000171529
0.000171498
0.000147206
0.000141101
0.000177225
0.00017152
0.000171521
0.000141101
0.000138956
0.000133547
0.00016966
0.000169655
0.000164309
0.000164304
0.000138961
0.000133554
0.000169681
0.000169647
0.000164332
0.000164296
0.000169657
0.00016434
0.000164307
0.00013895
0.000133541
0.00016968
0.000164331
0.000164332
0.000133541
0.000131621
0.000126686
0.00016258
0.000162575
0.000157547
0.000157542
0.000131626
0.000126693
0.000162604
0.000162567
0.000157572
0.000157534
0.000162578
0.00015758
0.000157546
0.000131615
0.000126679
0.000162603
0.000157571
0.000157572
0.000126679
0.00012496
0.000120362
0.000155916
0.000155911
0.000151158
0.000151153
0.000124966
0.000120369
0.000155942
0.000155902
0.000151185
0.000151145
0.000155914
0.000151193
0.000151157
0.000124954
0.000120355
0.000155941
0.000151184
0.000151185
0.000120355
0.000118822
0.000114426
0.000149612
0.000149606
0.000145097
0.000145091
0.000118827
0.000114434
0.000149639
0.000149598
0.000145125
0.000145084
0.00014961
0.000145133
0.000145096
0.000118816
0.00011442
0.000149638
0.000145124
0.000145125
0.000114419
0.000113174
0.000108836
0.000143629
0.000143623
0.00013932
0.000139315
0.000113179
0.000108843
0.000143657
0.000143615
0.000139349
0.000139307
0.000143628
0.000139358
0.00013932
0.000113168
0.000108829
0.000143657
0.000139349
0.000139349
0.000108828
0.000107939
0.000103702
0.000137914
0.000137907
0.000133779
0.000133772
0.000107944
0.000103709
0.000137942
0.000137899
0.000133807
0.000133764
0.000137913
0.000133817
0.000133779
0.000107932
0.000103696
0.000137942
0.000133808
0.000133808
0.000103695
0.000103063
9.91272e-05
0.000132423
0.000132416
0.000128448
0.000128441
0.000103068
9.9133e-05
0.000132451
0.000132408
0.000128476
0.000128433
0.000132423
0.000128487
0.000128449
0.000103057
9.91212e-05
0.000132452
0.000128478
0.000128478
9.912e-05
9.8442e-05
9.49885e-05
0.000127151
0.000127143
0.000123344
0.000123336
9.84476e-05
9.49944e-05
0.000127179
0.000127136
0.00012337
0.000123328
0.000127152
0.000123384
0.000123346
9.84365e-05
9.49829e-05
0.000127181
0.000123373
0.000123374
9.49821e-05
9.42567e-05
9.14352e-05
0.00012211
0.000122103
0.000118479
0.000118472
9.42623e-05
9.14406e-05
0.000122136
0.000122095
0.000118504
0.000118463
0.000122112
0.000118519
0.000118482
9.42516e-05
9.14297e-05
0.00012214
0.000118509
0.000118509
9.14294e-05
9.06647e-05
8.8377e-05
0.000117332
0.000117325
0.000113924
0.000113919
9.06703e-05
8.83824e-05
0.000117357
0.000117316
0.000113948
0.000113908
0.000117336
0.000113965
0.000113929
9.06604e-05
8.83722e-05
0.000117362
0.000113954
0.000113954
8.8372e-05
8.77359e-05
8.59085e-05
0.000112848
0.000112841
0.000109691
0.000109686
8.77412e-05
8.59137e-05
0.000112871
0.000112831
0.000109714
0.000109675
0.000112852
0.000109731
0.000109696
8.77317e-05
8.59042e-05
0.000112877
0.000109721
0.000109721
8.59042e-05
8.53879e-05
8.40691e-05
0.000108716
0.000108709
0.000105851
0.000105843
8.53929e-05
8.40742e-05
0.000108738
0.0001087
0.000105872
0.000105834
0.000108721
0.000105889
0.000105856
8.53841e-05
8.40655e-05
0.000108745
0.00010588
0.000105879
8.40657e-05
8.36713e-05
8.28628e-05
0.000104991
0.000104981
0.000102466
0.000102455
8.36761e-05
8.28673e-05
0.00010501
0.000104973
0.000102484
0.000102447
0.000104995
0.000102501
0.000102469
8.3668e-05
8.28593e-05
0.000105017
0.000102492
0.000102491
8.28597e-05
8.25876e-05
8.22636e-05
0.000101684
0.000101673
9.95185e-05
9.95062e-05
8.25918e-05
8.22675e-05
0.000101702
0.000101665
9.95353e-05
9.94994e-05
0.000101687
9.9551e-05
9.95212e-05
8.25847e-05
8.22605e-05
0.000101709
9.95428e-05
9.95419e-05
8.22609e-05
8.21061e-05
8.2246e-05
9.88762e-05
9.88637e-05
9.71281e-05
9.71152e-05
8.21097e-05
8.22494e-05
9.88929e-05
9.88573e-05
9.71434e-05
9.71092e-05
9.88788e-05
9.71582e-05
9.71306e-05
8.21036e-05
8.22436e-05
9.88996e-05
9.71511e-05
9.71504e-05
8.2244e-05
8.21945e-05
8.27533e-05
9.65925e-05
9.65794e-05
9.52402e-05
9.52271e-05
8.21976e-05
8.27559e-05
9.66077e-05
9.65736e-05
9.52546e-05
9.52224e-05
9.65948e-05
9.52685e-05
9.52427e-05
8.21925e-05
8.27515e-05
9.66141e-05
9.52619e-05
9.52604e-05
8.27517e-05
8.28288e-05
8.38936e-05
9.49055e-05
9.48923e-05
9.4184e-05
9.41696e-05
8.28313e-05
8.38954e-05
9.49196e-05
9.48879e-05
9.41962e-05
9.41662e-05
9.49081e-05
9.42091e-05
9.41858e-05
8.28275e-05
8.38924e-05
9.49253e-05
9.4204e-05
9.42016e-05
8.38925e-05
8.4076e-05
8.56746e-05
9.40034e-05
9.39894e-05
9.37183e-05
9.37053e-05
8.40778e-05
8.56761e-05
9.40161e-05
9.39862e-05
9.37309e-05
9.37012e-05
9.40055e-05
9.37414e-05
9.37213e-05
8.4075e-05
8.56712e-05
9.4021e-05
9.37374e-05
9.37353e-05
8.56731e-05
8.6027e-05
8.81648e-05
9.37752e-05
9.37621e-05
9.4634e-05
9.46198e-05
8.6028e-05
8.81657e-05
9.37875e-05
9.37571e-05
9.46443e-05
9.46169e-05
9.37779e-05
9.46559e-05
9.46353e-05
8.60237e-05
8.81636e-05
9.37918e-05
9.46503e-05
9.4649e-05
8.81645e-05
8.8599e-05
9.00757e-05
9.50703e-05
9.50556e-05
9.60446e-05
9.60301e-05
8.86001e-05
9.00779e-05
9.50798e-05
9.50545e-05
9.60534e-05
9.60296e-05
9.50715e-05
9.6067e-05
9.60478e-05
8.85991e-05
9.00773e-05
9.50844e-05
9.60621e-05
9.60581e-05
9.00775e-05
9.0242e-05
9.05607e-05
9.61568e-05
9.61423e-05
9.60196e-05
9.60042e-05
9.0244e-05
9.05619e-05
9.61656e-05
9.61417e-05
9.60278e-05
9.60036e-05
9.61603e-05
9.60406e-05
9.60228e-05
9.02436e-05
9.05604e-05
9.61703e-05
9.60367e-05
9.60322e-05
9.05619e-05
9.05506e-05
9.04422e-05
9.57679e-05
9.57525e-05
9.54542e-05
9.54381e-05
9.05516e-05
9.04417e-05
9.57765e-05
9.57511e-05
9.54634e-05
9.54364e-05
9.57715e-05
9.54733e-05
9.54586e-05
9.05499e-05
9.04404e-05
9.57809e-05
9.54714e-05
9.54681e-05
9.04443e-05
9.04065e-05
9.05273e-05
9.54022e-05
9.53877e-05
9.53517e-05
9.53357e-05
9.04059e-05
9.05259e-05
9.54112e-05
9.53846e-05
9.5361e-05
9.53331e-05
9.54066e-05
9.53701e-05
9.53566e-05
9.04049e-05
9.05243e-05
9.5416e-05
9.53689e-05
9.53661e-05
9.0529e-05
9.05431e-05
9.06912e-05
9.54312e-05
9.54153e-05
9.56293e-05
9.56124e-05
9.05417e-05
9.06899e-05
9.54407e-05
9.54124e-05
9.56384e-05
9.56101e-05
9.5436e-05
9.56468e-05
9.56337e-05
9.05402e-05
9.06875e-05
9.54456e-05
9.56456e-05
9.56431e-05
9.06918e-05
9.06936e-05
9.08004e-05
9.56778e-05
9.56607e-05
9.57735e-05
9.57564e-05
9.06923e-05
9.07991e-05
9.56872e-05
9.56587e-05
9.57829e-05
9.57545e-05
9.56822e-05
9.5791e-05
9.5778e-05
9.069e-05
9.07967e-05
9.56916e-05
9.57896e-05
9.57874e-05
9.08012e-05
9.07917e-05
9.08231e-05
9.57912e-05
9.57741e-05
9.58202e-05
9.58016e-05
9.07904e-05
9.08218e-05
9.58009e-05
9.57722e-05
9.58294e-05
9.58009e-05
9.57959e-05
9.58381e-05
9.58245e-05
9.07882e-05
9.08197e-05
9.58052e-05
9.58367e-05
9.58336e-05
9.0824e-05
9.08062e-05
9.0815e-05
9.58257e-05
9.5807e-05
9.58343e-05
9.58164e-05
9.08049e-05
9.08139e-05
9.58351e-05
9.58063e-05
9.58442e-05
9.58155e-05
9.58298e-05
9.58524e-05
9.58389e-05
9.0803e-05
9.08117e-05
9.58391e-05
9.58511e-05
9.5848e-05
9.08159e-05
9.07994e-05
9.08258e-05
9.58345e-05
9.5817e-05
9.58343e-05
9.58167e-05
9.07984e-05
9.08246e-05
9.58451e-05
9.58161e-05
9.58447e-05
9.58157e-05
9.58397e-05
9.58523e-05
9.58394e-05
9.07962e-05
9.08224e-05
9.58484e-05
9.5851e-05
9.58481e-05
9.08267e-05
9.08095e-05
9.08191e-05
9.58342e-05
9.58163e-05
9.58341e-05
9.5816e-05
9.08084e-05
9.0818e-05
9.58444e-05
9.58154e-05
9.58441e-05
9.58153e-05
9.5839e-05
9.58521e-05
9.58388e-05
9.08063e-05
9.08156e-05
9.58478e-05
9.58509e-05
9.58477e-05
9.082e-05
9.08057e-05
9.08147e-05
9.58343e-05
9.58161e-05
9.58343e-05
9.58161e-05
9.08044e-05
9.0814e-05
9.58441e-05
9.58154e-05
9.58444e-05
9.58155e-05
9.5839e-05
9.58525e-05
9.5839e-05
9.08023e-05
9.08117e-05
9.58478e-05
9.58513e-05
9.58481e-05
9.08159e-05
9.07983e-05
9.08285e-05
9.58346e-05
9.58163e-05
9.58351e-05
9.58168e-05
9.07977e-05
9.08269e-05
9.58445e-05
9.58157e-05
9.5845e-05
9.58162e-05
9.58391e-05
9.58532e-05
9.58397e-05
9.07953e-05
9.08251e-05
9.58483e-05
9.58521e-05
9.58488e-05
9.0829e-05
9.08076e-05
9.0821e-05
9.58351e-05
9.58168e-05
9.58356e-05
9.58171e-05
9.08061e-05
9.08199e-05
9.58452e-05
9.58163e-05
9.58458e-05
9.58168e-05
9.58398e-05
9.58538e-05
9.58403e-05
9.08044e-05
9.08177e-05
9.58484e-05
9.58526e-05
9.5849e-05
9.08228e-05
9.08115e-05
9.08072e-05
9.58354e-05
9.58178e-05
9.58356e-05
9.58178e-05
9.08093e-05
9.08091e-05
9.58457e-05
9.5817e-05
9.58459e-05
9.58172e-05
9.58405e-05
9.58543e-05
9.58407e-05
9.08075e-05
9.08064e-05
9.58492e-05
9.58529e-05
9.58494e-05
9.08096e-05
9.07825e-05
9.08487e-05
9.5836e-05
9.58183e-05
9.58366e-05
9.58191e-05
9.07843e-05
9.08469e-05
9.5846e-05
9.58173e-05
9.58468e-05
9.58182e-05
9.58408e-05
9.58556e-05
9.58416e-05
9.07817e-05
9.08446e-05
9.58496e-05
9.58538e-05
9.58503e-05
9.08462e-05
9.08186e-05
9.08532e-05
9.58365e-05
9.58194e-05
9.58372e-05
9.58202e-05
9.08202e-05
9.08458e-05
9.58466e-05
9.58182e-05
9.58475e-05
9.58188e-05
9.58416e-05
9.58568e-05
9.58422e-05
9.08167e-05
9.08463e-05
9.58502e-05
9.58542e-05
9.58509e-05
9.08574e-05
9.08427e-05
9.08326e-05
9.58368e-05
9.58201e-05
9.58372e-05
9.58207e-05
9.08373e-05
9.08277e-05
9.5847e-05
9.58184e-05
9.58478e-05
9.58189e-05
9.58416e-05
9.58568e-05
9.58422e-05
9.08368e-05
9.08275e-05
9.58502e-05
9.58538e-05
9.58508e-05
9.0843e-05
9.08494e-05
9.07494e-05
9.58372e-05
9.58209e-05
9.58352e-05
9.58189e-05
9.08461e-05
9.0747e-05
9.5848e-05
9.58189e-05
9.58459e-05
9.58169e-05
9.5842e-05
9.5855e-05
9.58402e-05
9.08454e-05
9.07451e-05
9.58507e-05
9.58518e-05
9.58488e-05
9.07506e-05
9.07587e-05
9.08033e-05
9.58364e-05
9.58202e-05
9.58357e-05
9.58191e-05
9.07571e-05
9.07981e-05
9.58471e-05
9.58182e-05
9.58458e-05
9.5817e-05
9.58418e-05
9.58553e-05
9.58401e-05
9.07562e-05
9.0796e-05
9.58506e-05
9.58518e-05
9.58488e-05
9.07933e-05
9.07483e-05
9.09094e-05
9.58352e-05
9.5819e-05
9.58378e-05
9.58213e-05
9.07431e-05
9.09073e-05
9.58456e-05
9.58168e-05
9.58478e-05
9.58191e-05
9.584e-05
9.58577e-05
9.58423e-05
9.07414e-05
9.09048e-05
9.58486e-05
9.58539e-05
9.5851e-05
9.09057e-05
9.08584e-05
9.08901e-05
9.58359e-05
9.58195e-05
9.5838e-05
9.58216e-05
9.08528e-05
9.08917e-05
9.58459e-05
9.58172e-05
9.58478e-05
9.58192e-05
9.58405e-05
9.58581e-05
9.58424e-05
9.08514e-05
9.08884e-05
9.58491e-05
9.5854e-05
9.58511e-05
9.08966e-05
9.08974e-05
9.08002e-05
9.58375e-05
9.58212e-05
9.58369e-05
9.58205e-05
9.08974e-05
9.08001e-05
9.58475e-05
9.58188e-05
9.58466e-05
9.58181e-05
9.58419e-05
9.58569e-05
9.58415e-05
9.08944e-05
9.07981e-05
9.58506e-05
9.58527e-05
9.58501e-05
9.0816e-05
9.08499e-05
9.07366e-05
9.58378e-05
9.58216e-05
9.58362e-05
9.58198e-05
9.08495e-05
9.07356e-05
9.58477e-05
9.5819e-05
9.58457e-05
9.58172e-05
9.58422e-05
9.58562e-05
9.58406e-05
9.08473e-05
9.07333e-05
9.5851e-05
9.58518e-05
9.58492e-05
9.07419e-05
9.07616e-05
9.0749e-05
9.58371e-05
9.58208e-05
9.58362e-05
9.58198e-05
9.07597e-05
9.07489e-05
9.58467e-05
9.58181e-05
9.58455e-05
9.5817e-05
9.58416e-05
9.58561e-05
9.58403e-05
9.07582e-05
9.07458e-05
9.58502e-05
9.58516e-05
9.58489e-05
9.07441e-05
9.07188e-05
9.08029e-05
9.58365e-05
9.58203e-05
9.58367e-05
9.58203e-05
9.07191e-05
9.07981e-05
9.5846e-05
9.58175e-05
9.58459e-05
9.58174e-05
9.58409e-05
9.58565e-05
9.58406e-05
9.07161e-05
9.07967e-05
9.58494e-05
9.58519e-05
9.58491e-05
9.07929e-05
9.07422e-05
9.08734e-05
9.58365e-05
9.58202e-05
9.58378e-05
9.58212e-05
9.07388e-05
9.08648e-05
9.58457e-05
9.58173e-05
9.58467e-05
9.58182e-05
9.58405e-05
9.58574e-05
9.58415e-05
9.0737e-05
9.08649e-05
9.58491e-05
9.58527e-05
9.585e-05
9.08719e-05
9.0802e-05
9.09047e-05
9.58366e-05
9.58202e-05
9.58386e-05
9.58221e-05
9.07924e-05
9.09056e-05
9.58456e-05
9.58172e-05
9.58473e-05
9.5819e-05
9.58403e-05
9.58583e-05
9.58425e-05
9.07928e-05
9.09021e-05
9.58488e-05
9.58534e-05
9.5851e-05
9.0913e-05
9.08617e-05
9.08951e-05
9.58372e-05
9.58207e-05
9.58388e-05
9.58224e-05
9.08589e-05
9.08954e-05
9.5846e-05
9.58176e-05
9.58473e-05
9.58191e-05
9.58411e-05
9.58585e-05
9.58424e-05
9.08567e-05
9.0892e-05
9.58495e-05
9.58535e-05
9.58508e-05
9.08737e-05
9.08855e-05
9.0863e-05
9.5838e-05
9.58217e-05
9.58386e-05
9.5822e-05
9.08895e-05
9.08465e-05
9.58466e-05
9.58184e-05
9.58469e-05
9.58186e-05
9.58423e-05
9.58581e-05
9.58415e-05
9.08847e-05
9.08498e-05
9.58507e-05
9.58531e-05
9.58499e-05
9.07865e-05
9.08818e-05
9.08183e-05
9.58384e-05
9.58222e-05
9.58384e-05
9.58216e-05
9.08756e-05
9.07862e-05
9.58468e-05
9.58187e-05
9.58464e-05
9.58182e-05
9.58426e-05
9.58577e-05
9.58413e-05
9.0875e-05
9.07964e-05
9.5851e-05
9.58525e-05
9.58496e-05
9.07541e-05
9.08611e-05
9.07682e-05
9.58386e-05
9.58223e-05
9.5838e-05
9.58216e-05
9.0833e-05
9.07569e-05
9.58467e-05
9.58186e-05
9.58459e-05
9.58179e-05
9.58419e-05
9.58577e-05
9.58416e-05
9.08435e-05
9.07552e-05
9.58503e-05
9.58522e-05
9.58499e-05
9.07926e-05
9.08147e-05
9.07464e-05
9.58385e-05
9.5822e-05
9.58378e-05
9.58217e-05
9.07789e-05
9.07708e-05
9.58465e-05
9.58185e-05
9.58456e-05
9.58179e-05
9.58417e-05
9.58579e-05
9.58427e-05
9.07925e-05
9.07489e-05
9.58501e-05
9.58519e-05
9.5851e-05
9.08581e-05
9.07578e-05
9.07618e-05
9.58382e-05
9.5822e-05
9.58378e-05
9.58221e-05
9.07537e-05
9.07972e-05
9.58461e-05
9.58184e-05
9.58454e-05
9.58182e-05
9.58422e-05
9.58583e-05
9.5843e-05
9.07459e-05
9.07785e-05
9.58505e-05
9.58525e-05
9.58514e-05
9.08594e-05
9.07333e-05
9.08016e-05
9.58381e-05
9.58222e-05
9.58381e-05
9.58222e-05
9.07624e-05
9.0822e-05
9.58458e-05
9.58184e-05
9.58456e-05
9.58187e-05
9.58428e-05
9.58582e-05
9.58426e-05
9.07439e-05
9.0821e-05
9.58511e-05
9.5853e-05
9.58509e-05
9.08108e-05
9.07494e-05
9.08528e-05
9.5838e-05
9.5822e-05
9.58385e-05
9.58223e-05
9.07769e-05
9.08512e-05
9.58456e-05
9.58185e-05
9.58461e-05
9.58188e-05
9.58428e-05
9.58583e-05
9.58425e-05
9.07734e-05
9.08482e-05
9.58511e-05
9.58532e-05
9.58508e-05
9.07956e-05
9.07868e-05
9.08877e-05
9.5838e-05
9.58218e-05
9.58391e-05
9.58224e-05
9.07982e-05
9.08701e-05
9.58455e-05
9.58185e-05
9.58466e-05
9.58187e-05
9.58427e-05
9.58583e-05
9.58428e-05
9.07969e-05
9.08586e-05
9.5851e-05
9.58531e-05
9.5851e-05
9.08097e-05
9.08304e-05
9.08946e-05
9.58383e-05
9.58217e-05
9.58396e-05
9.58224e-05
9.08182e-05
9.0883e-05
9.58457e-05
9.58183e-05
9.58469e-05
9.58187e-05
9.58428e-05
9.58584e-05
9.58428e-05
9.08078e-05
9.08706e-05
9.5851e-05
9.58531e-05
9.58509e-05
9.08152e-05
9.0861e-05
9.08823e-05
9.58389e-05
9.58217e-05
9.58397e-05
9.58225e-05
9.08365e-05
9.08908e-05
9.58461e-05
9.5818e-05
9.5847e-05
9.58189e-05
9.58428e-05
9.58584e-05
9.58424e-05
9.08192e-05
9.08843e-05
9.58509e-05
9.58532e-05
9.58504e-05
9.07909e-05
9.08675e-05
9.08692e-05
9.58392e-05
9.58217e-05
9.58397e-05
9.58226e-05
9.08549e-05
9.08897e-05
9.58465e-05
9.5818e-05
9.5847e-05
9.58192e-05
9.58427e-05
9.58586e-05
9.58421e-05
9.08406e-05
9.08842e-05
9.58507e-05
9.58536e-05
9.585e-05
9.07729e-05
9.08645e-05
9.08644e-05
9.58393e-05
9.58219e-05
9.58398e-05
9.58227e-05
9.08686e-05
9.08779e-05
9.58466e-05
9.58185e-05
9.58471e-05
9.58191e-05
9.58424e-05
9.58587e-05
9.58421e-05
9.08591e-05
9.08648e-05
9.58504e-05
9.58536e-05
9.58501e-05
9.07932e-05
9.08657e-05
9.08538e-05
9.58394e-05
9.58221e-05
9.58398e-05
9.58227e-05
9.0873e-05
9.08563e-05
9.58467e-05
9.58187e-05
9.58472e-05
9.5819e-05
9.58423e-05
9.58588e-05
9.58423e-05
9.08553e-05
9.08519e-05
9.58502e-05
9.58535e-05
9.58502e-05
9.08287e-05
9.08615e-05
9.0838e-05
9.58395e-05
9.58224e-05
9.58397e-05
9.58224e-05
9.08664e-05
9.0824e-05
9.58469e-05
9.58187e-05
9.58471e-05
9.58191e-05
9.58422e-05
9.58586e-05
9.58424e-05
9.08445e-05
9.08623e-05
9.58502e-05
9.58535e-05
9.58503e-05
9.08386e-05
9.08469e-05
9.08431e-05
9.58397e-05
9.58225e-05
9.58398e-05
9.58225e-05
9.08431e-05
9.08025e-05
9.5847e-05
9.58186e-05
9.5847e-05
9.58192e-05
9.58421e-05
9.58586e-05
9.58422e-05
9.08477e-05
9.08715e-05
9.585e-05
9.58535e-05
9.58501e-05
9.08318e-05
9.08453e-05
9.08661e-05
9.58395e-05
9.58227e-05
9.58399e-05
9.58225e-05
9.08163e-05
9.08264e-05
9.58467e-05
9.58185e-05
9.5847e-05
9.58191e-05
9.58421e-05
9.58586e-05
9.58421e-05
9.08539e-05
9.08674e-05
9.585e-05
9.58534e-05
9.58501e-05
9.08317e-05
9.08614e-05
9.0871e-05
9.58393e-05
9.58223e-05
9.584e-05
9.58226e-05
9.08267e-05
9.08738e-05
9.58464e-05
9.58186e-05
9.58471e-05
9.5819e-05
9.5842e-05
9.58586e-05
9.58421e-05
9.08515e-05
9.08672e-05
9.58499e-05
9.58534e-05
9.585e-05
9.08366e-05
9.08714e-05
9.08481e-05
9.58395e-05
9.58218e-05
9.58398e-05
9.58226e-05
9.08583e-05
9.08872e-05
9.58467e-05
9.58184e-05
9.58471e-05
9.58191e-05
9.58422e-05
9.58587e-05
9.58423e-05
9.08494e-05
9.08739e-05
9.585e-05
9.58533e-05
9.585e-05
9.08424e-05
9.08596e-05
9.08226e-05
9.58397e-05
9.5822e-05
9.58398e-05
9.58226e-05
9.08796e-05
9.08545e-05
9.5847e-05
9.58184e-05
9.5847e-05
9.58191e-05
9.58423e-05
9.58588e-05
9.58426e-05
9.08546e-05
9.08715e-05
9.58501e-05
9.58534e-05
9.58503e-05
9.08552e-05
9.08386e-05
9.08196e-05
9.584e-05
9.58226e-05
9.58399e-05
9.58219e-05
9.08696e-05
9.07903e-05
9.58472e-05
9.58186e-05
9.58471e-05
9.5819e-05
9.58424e-05
9.5858e-05
9.58429e-05
9.08562e-05
9.08636e-05
9.58502e-05
9.58531e-05
9.58506e-05
9.08589e-05
9.08326e-05
9.08374e-05
9.58401e-05
9.58226e-05
9.584e-05
9.58219e-05
9.08184e-05
9.07787e-05
9.58473e-05
9.58185e-05
9.58472e-05
9.58189e-05
9.58425e-05
9.58575e-05
9.58428e-05
9.08502e-05
9.08661e-05
9.58503e-05
9.58527e-05
9.58506e-05
9.08407e-05
9.08446e-05
9.08496e-05
9.58399e-05
9.58221e-05
9.584e-05
9.58225e-05
9.07572e-05
9.08445e-05
9.58468e-05
9.58182e-05
9.5847e-05
9.58188e-05
9.58428e-05
9.5858e-05
9.58424e-05
9.08484e-05
9.08764e-05
9.58505e-05
9.58526e-05
9.58501e-05
9.08021e-05
9.08533e-05
9.08505e-05
9.58395e-05
9.58217e-05
9.58398e-05
9.58222e-05
9.081e-05
9.08766e-05
9.58465e-05
9.5818e-05
9.58468e-05
9.58187e-05
9.58425e-05
9.5858e-05
9.58423e-05
9.08548e-05
9.0879e-05
9.58502e-05
9.58525e-05
9.585e-05
9.07866e-05
9.08545e-05
9.08454e-05
9.58395e-05
9.58213e-05
9.58394e-05
9.58221e-05
9.08418e-05
9.08859e-05
9.58466e-05
9.5818e-05
9.58465e-05
9.58185e-05
9.58424e-05
9.5858e-05
9.58423e-05
9.08619e-05
9.08702e-05
9.58501e-05
9.58522e-05
9.585e-05
9.08026e-05
9.08511e-05
9.08409e-05
9.58394e-05
9.58215e-05
9.5839e-05
9.58219e-05
9.08558e-05
9.08807e-05
9.58466e-05
9.58182e-05
9.58462e-05
9.58181e-05
9.58423e-05
9.58578e-05
9.5842e-05
9.08622e-05
9.08567e-05
9.585e-05
9.58518e-05
9.58497e-05
9.08082e-05
9.08469e-05
9.0842e-05
9.58392e-05
9.58218e-05
9.58388e-05
9.58217e-05
9.08616e-05
9.08723e-05
9.58464e-05
9.58183e-05
9.58461e-05
9.58179e-05
9.58421e-05
9.58576e-05
9.58416e-05
9.08558e-05
9.08475e-05
9.58498e-05
9.58516e-05
9.58493e-05
9.08004e-05
9.08461e-05
9.08456e-05
9.5839e-05
9.58217e-05
9.58387e-05
9.58217e-05
9.08619e-05
9.08653e-05
9.58463e-05
9.58181e-05
9.58461e-05
9.58179e-05
9.58417e-05
9.58576e-05
9.58414e-05
9.08478e-05
9.08504e-05
9.58494e-05
9.58515e-05
9.58491e-05
9.08033e-05
9.08465e-05
9.08497e-05
9.58387e-05
9.58216e-05
9.58386e-05
9.58217e-05
9.08617e-05
9.08537e-05
9.58461e-05
9.58178e-05
9.5846e-05
9.5818e-05
9.58412e-05
9.58576e-05
9.58413e-05
9.08452e-05
9.08618e-05
9.58489e-05
9.58517e-05
9.58491e-05
9.08241e-05
9.08449e-05
9.08582e-05
9.58387e-05
9.58217e-05
9.58388e-05
9.58217e-05
9.08549e-05
9.08462e-05
9.5846e-05
9.58179e-05
9.58461e-05
9.58182e-05
9.58411e-05
9.5858e-05
9.58415e-05
9.08486e-05
9.08708e-05
9.58489e-05
9.58522e-05
9.58493e-05
9.08517e-05
9.08433e-05
9.08706e-05
9.58391e-05
9.58221e-05
9.58393e-05
9.58222e-05
9.08451e-05
9.08586e-05
9.58464e-05
9.58184e-05
9.58466e-05
9.58187e-05
9.58416e-05
9.58586e-05
9.5842e-05
9.08539e-05
9.08708e-05
9.58494e-05
9.58528e-05
9.58498e-05
9.08657e-05
9.08442e-05
9.08805e-05
9.584e-05
9.5823e-05
9.58403e-05
9.58232e-05
9.08466e-05
9.08788e-05
9.58473e-05
9.58194e-05
9.58476e-05
9.58195e-05
9.58427e-05
9.58597e-05
9.5843e-05
9.08574e-05
9.08613e-05
9.58505e-05
9.58537e-05
9.58507e-05
9.08622e-05
9.08505e-05
9.08833e-05
9.58414e-05
9.58243e-05
9.58418e-05
9.58247e-05
9.08581e-05
9.08839e-05
9.58487e-05
9.58208e-05
9.58491e-05
9.58208e-05
9.58443e-05
9.58613e-05
9.58444e-05
9.08531e-05
9.0856e-05
9.5852e-05
9.58551e-05
9.58521e-05
9.08423e-05
9.08594e-05
9.0878e-05
9.58435e-05
9.58265e-05
9.58443e-05
9.58272e-05
9.08685e-05
9.08731e-05
9.58509e-05
9.58228e-05
9.58517e-05
9.58234e-05
9.58466e-05
9.58638e-05
9.58466e-05
9.08455e-05
9.0867e-05
9.58543e-05
9.58576e-05
9.58543e-05
9.08057e-05
9.08645e-05
9.0868e-05
9.58471e-05
9.58301e-05
9.58485e-05
9.58315e-05
9.08682e-05
9.08642e-05
9.58545e-05
9.58262e-05
9.5856e-05
9.58279e-05
9.58501e-05
9.58681e-05
9.58508e-05
9.08465e-05
9.08842e-05
9.58578e-05
9.5862e-05
9.58584e-05
9.07905e-05
9.08635e-05
9.08632e-05
9.58529e-05
9.58358e-05
9.58559e-05
9.58388e-05
9.08657e-05
9.08658e-05
9.58603e-05
9.58319e-05
9.58633e-05
9.58353e-05
9.58556e-05
9.58755e-05
9.58583e-05
9.0858e-05
9.08902e-05
9.58632e-05
9.58695e-05
9.58659e-05
9.08126e-05
9.0862e-05
9.0872e-05
9.58622e-05
9.58451e-05
9.58685e-05
9.58515e-05
9.08709e-05
9.08664e-05
9.58696e-05
9.58413e-05
9.58759e-05
9.5848e-05
9.58647e-05
9.58882e-05
9.58711e-05
9.08719e-05
9.08828e-05
9.58723e-05
9.58821e-05
9.58786e-05
9.08399e-05
9.08685e-05
9.08912e-05
9.58777e-05
9.58608e-05
9.58904e-05
9.58738e-05
9.08783e-05
9.08562e-05
9.58851e-05
9.58572e-05
9.58977e-05
9.587e-05
9.58803e-05
9.59101e-05
9.58931e-05
9.08778e-05
9.08769e-05
9.58879e-05
9.5904e-05
9.59013e-05
9.08605e-05
9.08868e-05
9.09044e-05
9.59036e-05
9.58879e-05
9.59349e-05
9.59194e-05
9.08774e-05
9.08499e-05
9.59112e-05
9.58839e-05
9.59435e-05
9.59158e-05
9.59065e-05
9.59543e-05
9.5937e-05
9.08815e-05
9.0883e-05
9.5915e-05
9.59491e-05
9.59475e-05
9.08787e-05
9.09043e-05
9.08811e-05
9.58993e-05
9.58843e-05
9.65979e-05
9.65829e-05
9.08685e-05
9.08726e-05
9.5908e-05
9.58796e-05
9.66057e-05
9.65802e-05
9.59006e-05
9.66164e-05
9.65999e-05
9.08886e-05
9.08733e-05
9.59117e-05
9.66123e-05
9.66098e-05
9.08731e-05
9.08825e-05
9.65044e-05
9.64901e-05
9.0877e-05
9.65115e-05
9.64876e-05
0.000127515
0.000127517
0.000127521
9.65063e-05
9.0874e-05
9.65153e-05
0.00023473
0.000234746
0.000234729
0.000234729
0.000235118
0.000234798
0.000234701
0.000234727
0.000235118
0.000234798
0.000234727
0.000234701
0.000234867
0.000233566
0.000233566
0.000104651
3.87413e-05
0.000129118
3.98247e-05
2.16834e-05
2.28312e-05
0.000104643
3.87373e-05
0.000129113
3.98213e-05
0.000233973
0.000233973
0.000233973
0.000232935
0.000232935
0.000232935
0.000232935
0.000206196
9.36747e-05
0.000233969
0.000231994
0.000222614
8.7223e-05
0.000233611
2.16823e-05
2.28305e-05
0.00020619
0.000233969
9.36742e-05
0.000231994
0.000222622
0.000233611
8.72287e-05
4.78006e-05
4.77888e-05
0.000231345
4.40192e-05
4.40096e-05
7.2568e-05
4.24341e-05
8.14024e-05
4.37632e-05
2.4775e-05
2.54633e-05
7.25584e-05
4.24306e-05
8.13971e-05
4.37595e-05
0.000232532
0.000232532
0.000232532
0.000231084
0.000231084