/*--------------------------------*- C++ -*----------------------------------*\
| =========                 |                                                 |
| \\      /  F ield         | OpenFOAM: The Open Source CFD Toolbox           |
|  \\    /   O peration     | Version:  v2012                                 |
|   \\  /    A nd           | Website:  www.openfoam.com                      |
|    \\/     M anipulation  |                                                 |
\*---------------------------------------------------------------------------*/
FoamFile
{
    version     2.0;
    format      ascii;
    class       volScalarField;
    location    "125";
    object      p;
}
// * * * * * * * * * * * * * * * * * * * * * * * * * * * * * * * * * * * * * //

dimensions      [0 2 -2 0 0 0 0];


internalField   nonuniform List<scalar> 
171728
(
0.00358306
0.00358339
0.00358339
0.00358644
0.0035277
0.00352812
0.00352812
0.00353111
0.00347695
0.00347692
0.00347692
0.00347967
0.00342456
0.00342457
0.00342457
0.00342735
0.00337321
0.00337322
0.00337322
0.00337597
0.00332323
0.00332324
0.00332324
0.00332596
0.0032747
0.00327472
0.00327472
0.0032774
0.00322747
0.00322749
0.00322749
0.00323014
0.00318133
0.00318135
0.00318135
0.00318398
0.0031361
0.00313612
0.00313612
0.00313871
0.00309159
0.00309161
0.00309161
0.00309417
0.00304768
0.0030477
0.0030477
0.00305024
0.00300428
0.0030043
0.0030043
0.00300681
0.00296135
0.00296137
0.00296137
0.00296387
0.00291885
0.00291886
0.00291886
0.00292136
0.00287676
0.00287676
0.00287676
0.00287925
0.00283505
0.00283504
0.00283504
0.00283752
0.00279369
0.00279369
0.00279369
0.00279616
0.00275268
0.00275266
0.00275266
0.00275513
0.00271198
0.00271195
0.00271195
0.00271441
0.00267156
0.00267153
0.00267153
0.00267398
0.00263142
0.00263138
0.00263138
0.00263383
0.00259154
0.00259149
0.00259149
0.00259393
0.00255193
0.00255187
0.00255187
0.0025543
0.00251262
0.00251254
0.00251254
0.00251494
0.00247375
0.00247367
0.00247367
0.00247604
0.00243538
0.00243528
0.00243528
0.0024376
0.00239767
0.00239758
0.00239758
0.00239982
0.00236065
0.00236058
0.00236058
0.00236276
0.00232419
0.00232414
0.00232414
0.00232629
0.00228808
0.00228803
0.00228803
0.00229017
0.00225218
0.00225212
0.00225212
0.00225424
0.00221635
0.0022163
0.0022163
0.00221842
0.00218055
0.0021805
0.0021805
0.00218262
0.00214476
0.0021447
0.0021447
0.00214682
0.00210897
0.00210891
0.00210891
0.00211103
0.00207317
0.00207312
0.00207312
0.00207524
0.00203738
0.00203733
0.00203733
0.00203945
0.00200159
0.00200154
0.00200154
0.00200366
0.0019658
0.00196575
0.00196575
0.00196787
0.00193001
0.00192996
0.00192996
0.00193208
0.00189422
0.00189417
0.00189417
0.00189629
0.00185843
0.00185837
0.00185837
0.00186049
0.00182263
0.00182258
0.00182258
0.0018247
0.00178684
0.00178678
0.00178678
0.0017889
0.00175104
0.00175099
0.00175099
0.00175311
0.00171524
0.00171519
0.00171519
0.00171731
0.00167945
0.00167939
0.00167939
0.00168151
0.00164366
0.0016436
0.0016436
0.00164572
0.00160787
0.00160781
0.00160781
0.00160993
0.00157208
0.00157202
0.00157202
0.00157414
0.00153629
0.00153623
0.00153623
0.00153835
0.0015005
0.00150044
0.00150044
0.00150256
0.00146471
0.00146465
0.00146465
0.00146677
0.00142891
0.00142886
0.00142886
0.00143098
0.00139312
0.00139306
0.00139306
0.00139519
0.00135733
0.00135727
0.00135727
0.00135939
0.00132154
0.00132148
0.00132148
0.0013236
0.00128574
0.00128569
0.00128569
0.00128781
0.00124995
0.0012499
0.0012499
0.00125202
0.00121416
0.00121411
0.00121411
0.00121623
0.00117837
0.00117832
0.00117832
0.00118044
0.00114259
0.00114253
0.00114253
0.00114465
0.0011068
0.00110674
0.00110674
0.00110887
0.00107101
0.00107096
0.00107096
0.00107308
0.00103522
0.00103517
0.00103517
0.00103729
0.000999431
0.000999376
0.000999376
0.0010015
0.000963638
0.000963583
0.000963583
0.000965704
0.000927844
0.000927789
0.000927789
0.000929911
0.000892052
0.000891997
0.000891997
0.000894118
0.000856263
0.000856208
0.000856207
0.000858329
0.000820476
0.000820421
0.000820421
0.000822542
0.000784692
0.000784636
0.000784637
0.000786758
0.00074891
0.000748854
0.000748854
0.000750975
0.000713128
0.000713073
0.000713072
0.000715193
0.000677345
0.00067729
0.00067729
0.000679411
0.000641562
0.000641508
0.000641507
0.000643628
0.00060578
0.000605724
0.000605724
0.000607846
0.000569996
0.000569941
0.00056994
0.000572062
0.000534211
0.000534155
0.000534156
0.000536277
0.000498424
0.000498369
0.000498369
0.00050049
0.000462636
0.000462581
0.000462581
0.000464702
0.000426848
0.000426793
0.000426793
0.000428914
0.00039106
0.000391004
0.000391004
0.000393124
0.000355271
0.000355216
0.000355215
0.000357335
0.000319482
0.000319427
0.000319427
0.000321545
0.000283695
0.000283639
0.00028364
0.000285755
0.000247908
0.000247853
0.000247853
0.000249965
0.000212119
0.000212066
0.000212066
0.000214173
0.000176327
0.000176277
0.000176277
0.000178376
0.000140527
0.000140482
0.000140481
0.000142568
0.000104708
0.000104675
0.000104674
0.000106741
6.89013e-05
6.88501e-05
6.88483e-05
7.08905e-05
3.39737e-05
3.35199e-05
3.35162e-05
3.52713e-05
4.51614e-06
3.55937e-06
3.55873e-06
3.93795e-06
0.00359647
0.00359669
0.00359669
0.00359647
0.00359669
0.00359669
0.00359746
0.00359746
0.00359746
0.00359746
0.00359669
0.00359669
0.00359647
0.0035967
0.00359669
0.00359647
0.00358644
0.00353768
0.00358339
0.00358339
0.00353996
0.00353996
0.00358644
0.00353768
0.00358339
0.00358339
0.00353996
0.00353996
0.00358339
0.00353996
0.00353996
0.00358644
0.00353768
0.00358339
0.00353996
0.00353996
0.00353768
0.00353111
0.0034866
0.00352812
0.00352812
0.00349004
0.00349004
0.00353111
0.0034866
0.00352812
0.00352812
0.00349004
0.00349004
0.00352812
0.00349004
0.00349004
0.00353111
0.0034866
0.00352812
0.00349004
0.00349004
0.0034866
0.00347967
0.00343423
0.00347692
0.00347692
0.00343759
0.00343759
0.00347967
0.00343423
0.00347692
0.00347692
0.00343759
0.00343759
0.00347692
0.00343759
0.00343759
0.00347967
0.00343423
0.00347692
0.00343759
0.00343759
0.00343423
0.00342735
0.00338268
0.00342458
0.00342458
0.00338594
0.00338594
0.00342735
0.00338268
0.00342458
0.00342458
0.00338594
0.00338594
0.00342457
0.00338594
0.00338594
0.00342735
0.00338268
0.00342457
0.00338594
0.00338594
0.00338268
0.00337597
0.00333246
0.00337322
0.00337322
0.0033356
0.0033356
0.00337597
0.00333246
0.00337322
0.00337322
0.0033356
0.0033356
0.00337322
0.0033356
0.0033356
0.00337597
0.00333246
0.00337322
0.0033356
0.0033356
0.00333246
0.00332596
0.0032837
0.00332324
0.00332324
0.00328672
0.00328672
0.00332596
0.0032837
0.00332324
0.00332324
0.00328672
0.00328672
0.00332324
0.00328672
0.00328672
0.00332596
0.0032837
0.00332324
0.00328672
0.00328672
0.0032837
0.0032774
0.00323627
0.00327472
0.00327472
0.00323919
0.00323919
0.0032774
0.00323627
0.00327472
0.00327472
0.00323919
0.00323919
0.00327472
0.00323919
0.00323919
0.0032774
0.00323627
0.00327472
0.00323919
0.00323919
0.00323627
0.00323014
0.00318997
0.00322749
0.00322749
0.00319279
0.00319279
0.00323014
0.00318997
0.00322749
0.00322749
0.0031928
0.00319279
0.00322749
0.0031928
0.00319279
0.00323014
0.00318997
0.00322749
0.0031928
0.0031928
0.00318997
0.00318398
0.00314459
0.00318135
0.00318135
0.00314736
0.00314736
0.00318397
0.00314459
0.00318135
0.00318135
0.00314736
0.00314736
0.00318135
0.00314736
0.00314736
0.00318398
0.00314459
0.00318135
0.00314736
0.00314736
0.00314459
0.00313871
0.00309996
0.00313612
0.00313612
0.00310268
0.00310268
0.00313871
0.00309996
0.00313612
0.00313612
0.00310268
0.00310268
0.00313612
0.00310268
0.00310268
0.00313871
0.00309996
0.00313612
0.00310268
0.00310268
0.00309996
0.00309418
0.00305594
0.00309161
0.00309161
0.00305862
0.00305862
0.00309417
0.00305594
0.00309161
0.00309161
0.00305862
0.00305862
0.00309161
0.00305862
0.00305862
0.00309418
0.00305594
0.00309161
0.00305862
0.00305862
0.00305594
0.00305024
0.00301245
0.0030477
0.0030477
0.0030151
0.0030151
0.00305024
0.00301244
0.0030477
0.0030477
0.0030151
0.0030151
0.0030477
0.0030151
0.0030151
0.00305024
0.00301245
0.0030477
0.0030151
0.0030151
0.00301244
0.00300681
0.00296943
0.0030043
0.0030043
0.00297206
0.00297206
0.00300681
0.00296944
0.0030043
0.0030043
0.00297206
0.00297206
0.0030043
0.00297206
0.00297206
0.00300681
0.00296943
0.0030043
0.00297206
0.00297206
0.00296944
0.00296387
0.00292688
0.00296137
0.00296137
0.00292945
0.00292945
0.00296387
0.00292688
0.00296137
0.00296137
0.00292945
0.00292945
0.00296137
0.00292945
0.00292945
0.00296387
0.00292688
0.00296137
0.00292945
0.00292945
0.00292688
0.00292136
0.00288471
0.00291886
0.00291886
0.00288725
0.00288725
0.00292136
0.00288471
0.00291886
0.00291886
0.00288725
0.00288725
0.00291886
0.00288725
0.00288725
0.00292136
0.00288471
0.00291886
0.00288725
0.00288725
0.00288471
0.00287925
0.00284294
0.00287676
0.00287676
0.00284544
0.00284544
0.00287925
0.00284294
0.00287676
0.00287676
0.00284544
0.00284544
0.00287676
0.00284544
0.00284544
0.00287925
0.00284294
0.00287676
0.00284544
0.00284544
0.00284294
0.00283752
0.00280153
0.00283504
0.00283504
0.002804
0.002804
0.00283752
0.00280153
0.00283504
0.00283504
0.00280399
0.00280399
0.00283504
0.002804
0.002804
0.00283752
0.00280153
0.00283504
0.00280399
0.002804
0.00280153
0.00279616
0.00276046
0.00279369
0.00279369
0.00276289
0.00276289
0.00279616
0.00276046
0.00279369
0.00279369
0.00276289
0.00276289
0.00279369
0.00276289
0.00276289
0.00279616
0.00276046
0.00279369
0.00276289
0.00276289
0.00276046
0.00275513
0.0027197
0.00275266
0.00275266
0.0027221
0.0027221
0.00275513
0.0027197
0.00275266
0.00275266
0.0027221
0.0027221
0.00275266
0.0027221
0.0027221
0.00275513
0.0027197
0.00275266
0.0027221
0.0027221
0.0027197
0.00271441
0.00267924
0.00271195
0.00271195
0.00268161
0.00268161
0.00271441
0.00267924
0.00271195
0.00271195
0.00268161
0.00268161
0.00271195
0.00268161
0.00268161
0.00271441
0.00267924
0.00271195
0.00268161
0.00268161
0.00267924
0.00267398
0.00263905
0.00267153
0.00267153
0.00264139
0.00264139
0.00267398
0.00263905
0.00267153
0.00267153
0.00264139
0.00264139
0.00267153
0.00264139
0.00264139
0.00267398
0.00263905
0.00267153
0.00264139
0.00264139
0.00263905
0.00263383
0.00259913
0.00263138
0.00263138
0.00260144
0.00260144
0.00263383
0.00259913
0.00263138
0.00263138
0.00260144
0.00260144
0.00263138
0.00260144
0.00260144
0.00263383
0.00259913
0.00263138
0.00260144
0.00260144
0.00259913
0.00259393
0.00255946
0.00259149
0.00259149
0.00256175
0.00256175
0.00259393
0.00255946
0.00259149
0.00259149
0.00256175
0.00256175
0.00259149
0.00256175
0.00256175
0.00259393
0.00255946
0.00259149
0.00256175
0.00256175
0.00255946
0.0025543
0.00252006
0.00255187
0.00255187
0.00252233
0.00252233
0.0025543
0.00252006
0.00255187
0.00255187
0.00252233
0.00252233
0.00255187
0.00252233
0.00252233
0.0025543
0.00252006
0.00255187
0.00252233
0.00252233
0.00252006
0.00251494
0.00248111
0.00251254
0.00251254
0.00248334
0.00248334
0.00251494
0.00248111
0.00251254
0.00251254
0.00248334
0.00248334
0.00251254
0.00248334
0.00248334
0.00251494
0.00248111
0.00251254
0.00248334
0.00248334
0.00248111
0.00247604
0.00244261
0.00247367
0.00247367
0.00244482
0.00244482
0.00247604
0.00244261
0.00247367
0.00247367
0.00244482
0.00244482
0.00247367
0.00244482
0.00244482
0.00247604
0.00244261
0.00247367
0.00244482
0.00244482
0.00244261
0.0024376
0.00240474
0.00243528
0.00243528
0.00240693
0.00240693
0.0024376
0.00240474
0.00243528
0.00243528
0.00240693
0.00240693
0.00243528
0.00240693
0.00240693
0.0024376
0.00240474
0.00243528
0.00240693
0.00240693
0.00240474
0.00239982
0.00236759
0.00239758
0.00239758
0.00236976
0.00236976
0.00239982
0.00236759
0.00239758
0.00239758
0.00236976
0.00236976
0.00239758
0.00236976
0.00236976
0.00239982
0.00236759
0.00239758
0.00236976
0.00236976
0.00236759
0.00236276
0.00233106
0.00236058
0.00236058
0.00233321
0.00233321
0.00236276
0.00233106
0.00236058
0.00236058
0.00233321
0.00233321
0.00236058
0.00233321
0.00233321
0.00236276
0.00233106
0.00236058
0.00233321
0.00233321
0.00233106
0.00232629
0.0022949
0.00232414
0.00232413
0.00229703
0.00229703
0.00232629
0.0022949
0.00232413
0.00232414
0.00229703
0.00229703
0.00232414
0.00229703
0.00229703
0.00232629
0.0022949
0.00232414
0.00229703
0.00229703
0.0022949
0.00229017
0.00225896
0.00228803
0.00228803
0.00226108
0.00226108
0.00229017
0.00225896
0.00228803
0.00228803
0.00226108
0.00226108
0.00228803
0.00226108
0.00226108
0.00229017
0.00225896
0.00228803
0.00226108
0.00226108
0.00225896
0.00225424
0.00222313
0.00225212
0.00225212
0.00222525
0.00222525
0.00225424
0.00222313
0.00225212
0.00225212
0.00222525
0.00222525
0.00225212
0.00222525
0.00222525
0.00225424
0.00222313
0.00225212
0.00222525
0.00222525
0.00222312
0.00221842
0.00218733
0.0022163
0.0022163
0.00218945
0.00218945
0.00221842
0.00218733
0.0022163
0.0022163
0.00218945
0.00218945
0.0022163
0.00218945
0.00218945
0.00221842
0.00218733
0.0022163
0.00218945
0.00218945
0.00218733
0.00218262
0.00215153
0.0021805
0.0021805
0.00215365
0.00215365
0.00218262
0.00215153
0.0021805
0.0021805
0.00215365
0.00215365
0.0021805
0.00215365
0.00215365
0.00218262
0.00215153
0.0021805
0.00215365
0.00215365
0.00215153
0.00214682
0.00211574
0.0021447
0.0021447
0.00211786
0.00211786
0.00214682
0.00211574
0.0021447
0.0021447
0.00211786
0.00211786
0.0021447
0.00211786
0.00211786
0.00214682
0.00211574
0.0021447
0.00211786
0.00211786
0.00211574
0.00211103
0.00207995
0.00210891
0.00210891
0.00208207
0.00208207
0.00211103
0.00207995
0.00210891
0.00210891
0.00208207
0.00208207
0.00210891
0.00208207
0.00208207
0.00211103
0.00207995
0.00210891
0.00208207
0.00208207
0.00207995
0.00207524
0.00204415
0.00207312
0.00207312
0.00204627
0.00204627
0.00207524
0.00204415
0.00207312
0.00207312
0.00204627
0.00204627
0.00207312
0.00204627
0.00204627
0.00207524
0.00204415
0.00207312
0.00204627
0.00204627
0.00204415
0.00203945
0.00200836
0.00203733
0.00203733
0.00201048
0.00201048
0.00203945
0.00200836
0.00203733
0.00203733
0.00201048
0.00201048
0.00203733
0.00201048
0.00201048
0.00203945
0.00200836
0.00203733
0.00201048
0.00201048
0.00200836
0.00200366
0.00197258
0.00200154
0.00200154
0.0019747
0.0019747
0.00200366
0.00197258
0.00200154
0.00200154
0.0019747
0.0019747
0.00200154
0.0019747
0.0019747
0.00200366
0.00197258
0.00200154
0.0019747
0.00197469
0.00197257
0.00196787
0.00193679
0.00196575
0.00196575
0.00193891
0.00193891
0.00196787
0.00193679
0.00196575
0.00196575
0.00193891
0.00193891
0.00196575
0.00193891
0.00193891
0.00196787
0.00193679
0.00196575
0.00193891
0.00193891
0.00193679
0.00193208
0.00190099
0.00192996
0.00192996
0.00190311
0.00190312
0.00193208
0.001901
0.00192996
0.00192996
0.00190311
0.00190311
0.00192996
0.00190311
0.00190311
0.00193208
0.00190099
0.00192996
0.00190311
0.00190311
0.00190099
0.00189629
0.0018652
0.00189417
0.00189417
0.00186732
0.00186732
0.00189629
0.0018652
0.00189417
0.00189417
0.00186732
0.00186732
0.00189417
0.00186732
0.00186732
0.00189629
0.0018652
0.00189417
0.00186732
0.00186732
0.0018652
0.00186049
0.00182941
0.00185837
0.00185837
0.00183153
0.00183153
0.00186049
0.00182941
0.00185837
0.00185837
0.00183153
0.00183153
0.00185837
0.00183153
0.00183153
0.00186049
0.00182941
0.00185837
0.00183153
0.00183153
0.00182941
0.0018247
0.00179361
0.00182258
0.00182258
0.00179573
0.00179573
0.0018247
0.00179361
0.00182258
0.00182258
0.00179573
0.00179573
0.00182258
0.00179573
0.00179573
0.0018247
0.00179361
0.00182258
0.00179573
0.00179573
0.00179361
0.0017889
0.00175781
0.00178678
0.00178678
0.00175993
0.00175993
0.0017889
0.00175781
0.00178678
0.00178678
0.00175993
0.00175993
0.00178678
0.00175993
0.00175993
0.0017889
0.00175781
0.00178678
0.00175993
0.00175993
0.00175781
0.00175311
0.00172202
0.00175099
0.00175099
0.00172414
0.00172414
0.00175311
0.00172202
0.00175099
0.00175099
0.00172414
0.00172414
0.00175099
0.00172414
0.00172414
0.00175311
0.00172202
0.00175099
0.00172414
0.00172414
0.00172202
0.00171731
0.00168622
0.00171519
0.00171519
0.00168834
0.00168834
0.00171731
0.00168622
0.00171519
0.00171519
0.00168834
0.00168834
0.00171519
0.00168834
0.00168834
0.00171731
0.00168622
0.00171519
0.00168834
0.00168834
0.00168622
0.00168151
0.00165043
0.00167939
0.00167939
0.00165255
0.00165255
0.00168151
0.00165043
0.00167939
0.00167939
0.00165255
0.00165255
0.00167939
0.00165255
0.00165255
0.00168151
0.00165043
0.00167939
0.00165255
0.00165255
0.00165043
0.00164572
0.00161464
0.0016436
0.0016436
0.00161676
0.00161676
0.00164572
0.00161464
0.0016436
0.0016436
0.00161676
0.00161676
0.0016436
0.00161676
0.00161676
0.00164572
0.00161464
0.0016436
0.00161676
0.00161676
0.00161464
0.00160993
0.00157885
0.00160781
0.00160781
0.00158097
0.00158097
0.00160993
0.00157885
0.00160781
0.00160781
0.00158097
0.00158097
0.00160781
0.00158097
0.00158097
0.00160993
0.00157885
0.00160781
0.00158097
0.00158097
0.00157885
0.00157414
0.00154306
0.00157202
0.00157202
0.00154518
0.00154518
0.00157414
0.00154306
0.00157202
0.00157202
0.00154518
0.00154518
0.00157202
0.00154518
0.00154518
0.00157414
0.00154306
0.00157202
0.00154518
0.00154518
0.00154306
0.00153835
0.00150727
0.00153623
0.00153623
0.00150939
0.00150939
0.00153835
0.00150727
0.00153623
0.00153623
0.00150939
0.00150939
0.00153623
0.00150939
0.00150939
0.00153835
0.00150727
0.00153623
0.00150939
0.00150939
0.00150727
0.00150256
0.00147148
0.00150044
0.00150044
0.0014736
0.0014736
0.00150256
0.00147148
0.00150044
0.00150044
0.0014736
0.0014736
0.00150044
0.0014736
0.0014736
0.00150256
0.00147148
0.00150044
0.0014736
0.0014736
0.00147148
0.00146677
0.00143569
0.00146465
0.00146465
0.00143781
0.00143781
0.00146677
0.00143569
0.00146465
0.00146465
0.00143781
0.00143781
0.00146465
0.00143781
0.00143781
0.00146677
0.00143569
0.00146465
0.00143781
0.00143781
0.00143569
0.00143098
0.00139989
0.00142886
0.00142886
0.00140201
0.00140201
0.00143098
0.00139989
0.00142886
0.00142886
0.00140201
0.00140201
0.00142886
0.00140201
0.00140201
0.00143098
0.00139989
0.00142886
0.00140201
0.00140201
0.00139989
0.00139519
0.0013641
0.00139306
0.00139306
0.00136622
0.00136622
0.00139519
0.0013641
0.00139306
0.00139306
0.00136622
0.00136622
0.00139307
0.00136622
0.00136622
0.00139519
0.0013641
0.00139307
0.00136622
0.00136622
0.0013641
0.00135939
0.00132831
0.00135727
0.00135727
0.00133043
0.00133043
0.00135939
0.00132831
0.00135727
0.00135727
0.00133043
0.00133043
0.00135727
0.00133043
0.00133043
0.00135939
0.00132831
0.00135727
0.00133043
0.00133043
0.00132831
0.0013236
0.00129252
0.00132148
0.00132148
0.00129464
0.00129464
0.0013236
0.00129252
0.00132148
0.00132148
0.00129464
0.00129464
0.00132148
0.00129464
0.00129464
0.0013236
0.00129252
0.00132148
0.00129464
0.00129464
0.00129252
0.00128781
0.00125673
0.00128569
0.00128569
0.00125885
0.00125884
0.00128781
0.00125673
0.00128569
0.00128569
0.00125884
0.00125884
0.00128569
0.00125884
0.00125884
0.00128781
0.00125673
0.00128569
0.00125884
0.00125884
0.00125672
0.00125202
0.00122093
0.0012499
0.0012499
0.00122305
0.00122305
0.00125202
0.00122093
0.0012499
0.0012499
0.00122305
0.00122305
0.0012499
0.00122305
0.00122306
0.00125202
0.00122093
0.0012499
0.00122305
0.00122306
0.00122093
0.00121623
0.00118515
0.00121411
0.00121411
0.00118726
0.00118726
0.00121623
0.00118515
0.00121411
0.00121411
0.00118726
0.00118727
0.00121411
0.00118726
0.00118727
0.00121623
0.00118515
0.00121411
0.00118726
0.00118727
0.00118515
0.00118044
0.00114936
0.00117832
0.00117832
0.00115148
0.00115148
0.00118044
0.00114936
0.00117832
0.00117832
0.00115148
0.00115148
0.00117832
0.00115148
0.00115148
0.00118044
0.00114936
0.00117832
0.00115148
0.00115148
0.00114936
0.00114465
0.00111357
0.00114253
0.00114253
0.00111569
0.00111569
0.00114465
0.00111357
0.00114253
0.00114253
0.00111569
0.00111569
0.00114253
0.00111569
0.00111569
0.00114465
0.00111357
0.00114253
0.00111569
0.00111569
0.00111357
0.00110887
0.00107778
0.00110674
0.00110674
0.0010799
0.0010799
0.00110887
0.00107778
0.00110674
0.00110674
0.0010799
0.0010799
0.00110675
0.0010799
0.00107991
0.00110887
0.00107778
0.00110674
0.0010799
0.0010799
0.00107778
0.00107308
0.001042
0.00107096
0.00107096
0.00104412
0.00104412
0.00107308
0.001042
0.00107096
0.00107096
0.00104412
0.00104412
0.00107096
0.00104412
0.00104412
0.00107308
0.001042
0.00107096
0.00104412
0.00104412
0.001042
0.00103729
0.0010062
0.00103517
0.00103517
0.00100833
0.00100833
0.00103729
0.0010062
0.00103517
0.00103517
0.00100833
0.00100832
0.00103517
0.00100833
0.00100832
0.00103729
0.0010062
0.00103517
0.00100832
0.00100832
0.0010062
0.0010015
0.000970411
0.000999376
0.000999376
0.000972532
0.000972532
0.0010015
0.000970411
0.000999376
0.000999376
0.000972532
0.000972532
0.000999377
0.000972532
0.000972531
0.0010015
0.000970411
0.000999377
0.000972532
0.000972531
0.000970411
0.000965704
0.000934617
0.000963583
0.000963583
0.000936738
0.000936738
0.000965704
0.000934617
0.000963583
0.000963583
0.000936738
0.000936738
0.000963583
0.000936738
0.000936738
0.000965704
0.000934617
0.000963583
0.000936738
0.000936737
0.000934617
0.00092991
0.000898825
0.000927789
0.000927789
0.000900946
0.000900945
0.00092991
0.000898825
0.000927789
0.000927789
0.000900945
0.000900945
0.000927789
0.000900946
0.000900945
0.00092991
0.000898824
0.000927789
0.000900945
0.000900945
0.000898825
0.000894118
0.000863035
0.000891997
0.000891997
0.000865155
0.000865155
0.000894118
0.000863035
0.000891997
0.000891997
0.000865155
0.000865155
0.000891997
0.000865155
0.000865155
0.000894118
0.000863034
0.000891997
0.000865155
0.000865155
0.000863035
0.000858329
0.000827247
0.000856208
0.000856208
0.000829368
0.000829368
0.000858329
0.000827248
0.000856207
0.000856207
0.000829368
0.000829368
0.000856208
0.000829368
0.000829368
0.000858328
0.000827247
0.000856208
0.000829368
0.000829368
0.000827247
0.000822542
0.000791463
0.000820421
0.000820421
0.000793583
0.000793583
0.000822542
0.000791463
0.000820421
0.000820421
0.000793583
0.000793584
0.000820421
0.000793583
0.000793583
0.000822542
0.000791463
0.000820421
0.000793584
0.000793583
0.000791463
0.000786757
0.00075568
0.000784637
0.000784636
0.000757801
0.000757801
0.000786757
0.00075568
0.000784637
0.000784637
0.000757801
0.000757801
0.000784637
0.000757801
0.000757801
0.000786758
0.00075568
0.000784637
0.000757801
0.0007578
0.00075568
0.000750975
0.000719899
0.000748855
0.000748854
0.000722019
0.000722019
0.000750975
0.000719899
0.000748854
0.000748854
0.000722019
0.000722018
0.000748855
0.000722019
0.000722018
0.000750975
0.000719898
0.000748855
0.000722018
0.000722018
0.000719898
0.000715194
0.000684116
0.000713073
0.000713073
0.000686236
0.000686236
0.000715193
0.000684116
0.000713073
0.000713072
0.000686236
0.000686236
0.000713072
0.000686236
0.000686236
0.000715193
0.000684116
0.000713072
0.000686236
0.000686236
0.000684116
0.000679411
0.000648333
0.00067729
0.00067729
0.000650453
0.000650453
0.000679411
0.000648333
0.00067729
0.00067729
0.000650453
0.000650454
0.00067729
0.000650453
0.000650454
0.000679411
0.000648333
0.00067729
0.000650454
0.000650454
0.000648334
0.000643628
0.00061255
0.000641507
0.000641507
0.000614671
0.00061467
0.000643628
0.000612551
0.000641507
0.000641507
0.000614671
0.000614671
0.000641508
0.00061467
0.000614671
0.000643628
0.00061255
0.000641508
0.000614671
0.000614671
0.000612551
0.000607845
0.000576767
0.000605725
0.000605724
0.000578888
0.000578887
0.000607845
0.000576767
0.000605724
0.000605724
0.000578887
0.000578887
0.000605725
0.000578887
0.000578887
0.000607845
0.000576767
0.000605725
0.000578887
0.000578887
0.000576767
0.000572062
0.000540983
0.000569941
0.000569941
0.000543103
0.000543103
0.000572062
0.000540982
0.000569941
0.000569941
0.000543103
0.000543103
0.000569941
0.000543103
0.000543103
0.000572061
0.000540982
0.000569941
0.000543103
0.000543102
0.000540983
0.000536277
0.000505196
0.000534156
0.000534155
0.000507316
0.000507316
0.000536276
0.000505196
0.000534156
0.000534156
0.000507316
0.000507317
0.000534156
0.000507316
0.000507316
0.000536277
0.000505196
0.000534156
0.000507317
0.000507316
0.000505196
0.00050049
0.000469408
0.000498369
0.000498369
0.000471529
0.000471529
0.000500489
0.000469408
0.000498369
0.000498369
0.000471529
0.000471529
0.00049837
0.000471529
0.000471528
0.00050049
0.000469408
0.00049837
0.000471529
0.000471528
0.000469408
0.000464702
0.00043362
0.000462582
0.000462581
0.00043574
0.00043574
0.000464702
0.00043362
0.000462581
0.000462581
0.00043574
0.00043574
0.000462582
0.00043574
0.00043574
0.000464702
0.00043362
0.000462582
0.00043574
0.000435739
0.00043362
0.000428913
0.000397832
0.000426793
0.000426793
0.000399952
0.000399952
0.000428913
0.000397832
0.000426793
0.000426793
0.000399951
0.000399952
0.000426793
0.000399952
0.000399951
0.000428913
0.000397831
0.000426793
0.000399951
0.000399951
0.000397832
0.000393124
0.000362043
0.000391004
0.000391004
0.000364163
0.000364163
0.000393124
0.000362043
0.000391004
0.000391004
0.000364162
0.000364162
0.000391004
0.000364163
0.000364162
0.000393124
0.000362043
0.000391004
0.000364162
0.000364162
0.000362043
0.000357335
0.000326255
0.000355216
0.000355216
0.000328374
0.000328374
0.000357335
0.000326255
0.000355215
0.000355215
0.000328373
0.000328374
0.000355215
0.000328374
0.000328374
0.000357334
0.000326255
0.000355215
0.000328374
0.000328373
0.000326255
0.000321545
0.000290467
0.000319427
0.000319427
0.000292585
0.000292585
0.000321545
0.000290467
0.000319427
0.000319427
0.000292585
0.000292586
0.000319427
0.000292585
0.000292586
0.000321545
0.000290468
0.000319427
0.000292586
0.000292586
0.000290468
0.000285755
0.000254681
0.000283639
0.000283639
0.000256798
0.000256798
0.000285754
0.000254682
0.000283639
0.00028364
0.000256798
0.000256798
0.00028364
0.000256798
0.000256798
0.000285755
0.000254681
0.00028364
0.000256798
0.000256798
0.000254682
0.000249965
0.000218896
0.000247853
0.000247853
0.000221011
0.000221011
0.000249965
0.000218897
0.000247852
0.000247853
0.00022101
0.00022101
0.000247853
0.000221011
0.00022101
0.000249965
0.000218896
0.000247853
0.00022101
0.00022101
0.000218896
0.000214173
0.000183109
0.000212067
0.000212067
0.00018522
0.00018522
0.000214173
0.000183109
0.000212066
0.000212066
0.00018522
0.00018522
0.000212067
0.00018522
0.00018522
0.000214173
0.000183109
0.000212067
0.00018522
0.00018522
0.00018311
0.000178375
0.000147318
0.000176277
0.000176277
0.000149424
0.000149424
0.000178375
0.000147318
0.000176277
0.000176277
0.000149424
0.000149424
0.000176278
0.000149425
0.000149424
0.000178375
0.000147318
0.000176278
0.000149424
0.000149424
0.000147318
0.000142567
0.000111517
0.000140482
0.000140482
0.000113618
0.000113618
0.000142567
0.000111517
0.000140482
0.000140482
0.000113617
0.000113617
0.000140482
0.000113618
0.000113617
0.000142567
0.000111516
0.000140482
0.000113617
0.000113617
0.000111517
0.000106741
7.56975e-05
0.000104675
0.000104675
7.77911e-05
7.77913e-05
0.000106741
7.56985e-05
0.000104675
0.000104674
7.77903e-05
7.77902e-05
0.000104675
7.77911e-05
7.779e-05
0.000106741
7.56967e-05
0.000104675
7.77901e-05
7.77896e-05
7.56969e-05
7.08913e-05
4.00151e-05
6.88497e-05
6.88503e-05
4.21315e-05
4.21323e-05
7.08914e-05
4.00162e-05
6.88488e-05
6.88483e-05
4.21304e-05
4.21287e-05
6.88492e-05
4.21312e-05
4.21278e-05
7.08905e-05
4.00126e-05
6.88485e-05
4.21284e-05
4.21275e-05
4.00124e-05
3.52746e-05
7.30627e-06
3.35203e-05
3.35214e-05
9.89271e-06
9.89127e-06
3.52753e-05
7.30534e-06
3.35194e-05
3.35167e-05
9.89098e-06
9.88671e-06
3.35158e-05
9.88959e-06
9.88537e-06
3.52715e-05
7.30169e-06
3.3516e-05
9.88785e-06
9.88722e-06
7.30062e-06
3.94226e-06
3.56282e-06
3.56035e-06
3.94218e-06
3.55908e-06
3.55681e-06
4.51528e-06
4.51354e-06
4.51317e-06
3.55688e-06
3.93901e-06
3.55687e-06
0.00360485
0.00361461
0.00360941
0.00360941
0.00363179
0.00361857
0.00364718
0.00361262
0.00363179
0.00361858
0.00361262
0.00364718
0.00362314
0.00365092
0.00365092
0.0035602
0.00357935
0.00358854
0.00355228
0.00355302
0.00355579
0.00356018
0.00357933
0.00358853
0.00355226
0.00358306
0.00358306
0.00358306
0.00353966
0.00353966
0.00353965
0.00353965
0.0035577
0.00358353
0.00358346
0.00356653
0.00358655
0.0035566
0.00356741
0.00355312
0.00355579
0.00355771
0.00358346
0.00358354
0.00356653
0.00358655
0.00356741
0.0035566
0.0035894
0.00358939
0.00356093
0.00355624
0.00355624
0.00351357
0.00353285
0.00353421
0.0035121
0.00353175
0.00351166
0.00351356
0.00353284
0.00353421
0.0035121
0.0035277
0.0035277
0.0035277
0.00349011
0.00349011
0.00349011
0.00349011
0.00351215
0.00353292
0.0035277
0.00351583
0.00353171
0.00351269
0.00351556
0.00353175
0.00351165
0.00351215
0.0035277
0.00353292
0.00351583
0.00353171
0.00351556
0.00351269
0.00353394
0.00353394
0.00351238
0.00351303
0.00351303
0.0034613
0.0034801
0.00348118
0.00346028
0.00347974
0.00345999
0.0034613
0.0034801
0.00348118
0.00346028
0.00347695
0.00347695
0.00347695
0.00343757
0.00343757
0.00343757
0.00343757
0.0034604
0.00348051
0.00347682
0.00346378
0.00347994
0.00346076
0.00346368
0.00347974
0.00345999
0.0034604
0.00347682
0.00348051
0.00346378
0.00347994
0.00346368
0.00346076
0.00348075
0.00348075
0.00346039
0.00346083
0.00346083
0.00340878
0.00342743
0.00342829
0.00340801
0.00342722
0.00340783
0.00340878
0.00342743
0.00342829
0.00340801
0.00342456
0.00342456
0.00342456
0.00338593
0.00338593
0.00338593
0.00338593
0.00340827
0.00342784
0.00342453
0.00341163
0.00342755
0.00340845
0.00341159
0.00342722
0.00340783
0.00340827
0.00342453
0.00342784
0.00341162
0.00342755
0.00341159
0.00340845
0.00342787
0.00342787
0.00340831
0.00340839
0.00340839
0.00335758
0.00337593
0.00337656
0.00335702
0.00337579
0.00335689
0.00335758
0.00337593
0.00337656
0.00335702
0.00337321
0.00337321
0.00337321
0.00333559
0.00333559
0.00333559
0.00333559
0.00335731
0.00337628
0.00337319
0.00336059
0.00337611
0.00335742
0.00336056
0.00337579
0.00335689
0.00335731
0.00337319
0.00337628
0.00336058
0.00337611
0.00336056
0.00335741
0.00337627
0.00337627
0.00335738
0.00335732
0.00335732
0.00330793
0.00332588
0.00332634
0.00330753
0.00332577
0.00330741
0.00330793
0.00332588
0.00332634
0.00330753
0.00332323
0.00332323
0.00332323
0.00328671
0.00328671
0.00328671
0.00328671
0.00330781
0.00332618
0.00332322
0.00331098
0.00332607