/*--------------------------------*- C++ -*----------------------------------*\
| =========                 |                                                 |
| \\      /  F ield         | OpenFOAM: The Open Source CFD Toolbox           |
|  \\    /   O peration     | Version:  v2012                                 |
|   \\  /    A nd           | Website:  www.openfoam.com                      |
|    \\/     M anipulation  |                                                 |
\*---------------------------------------------------------------------------*/
FoamFile
{
    version     2.0;
    format      ascii;
    class       volScalarField;
    location    "125";
    object      p;
}
// * * * * * * * * * * * * * * * * * * * * * * * * * * * * * * * * * * * * * //

dimensions      [0 2 -2 0 0 0 0];


internalField   nonuniform List<scalar> 
171728
(
0.00352319
0.00352273
0.0035227
0.00352425
0.00348662
0.00348573
0.00348572
0.00348876
0.00345001
0.00344879
0.00344881
0.00345107
0.00340504
0.00340407
0.00340399
0.0034066
0.00335694
0.00335587
0.00335589
0.0033586
0.00330882
0.00330781
0.00330785
0.00331055
0.00326079
0.00325992
0.00325998
0.00326267
0.00321368
0.00321293
0.00321293
0.00321564
0.00316751
0.00316683
0.00316685
0.00316958
0.00312237
0.00312176
0.00312178
0.00312449
0.00307812
0.0030776
0.0030776
0.00308031
0.00303459
0.00303416
0.00303416
0.00303688
0.00299161
0.00299124
0.00299125
0.00299393
0.00294902
0.0029487
0.0029487
0.00295136
0.00290674
0.00290651
0.0029065
0.00290908
0.00286481
0.00286461
0.0028646
0.00286721
0.00282324
0.00282305
0.00282307
0.00282568
0.00278204
0.00278188
0.00278188
0.00278446
0.00274131
0.00274112
0.00274112
0.0027436
0.00270101
0.00270079
0.00270079
0.00270328
0.00266121
0.00266098
0.00266098
0.00266332
0.00262215
0.00262187
0.00262188
0.00262423
0.00258411
0.0025838
0.00258379
0.00258612
0.00254774
0.00254744
0.00254738
0.00254974
0.00251226
0.00251203
0.00251205
0.00251441
0.00247635
0.00247616
0.00247618
0.00247865
0.00243924
0.00243903
0.00243904
0.00244154
0.00240134
0.00240112
0.00240113
0.00240352
0.00236338
0.00236322
0.00236322
0.00236548
0.00232596
0.00232582
0.00232582
0.00232798
0.00228921
0.00228909
0.00228909
0.00229121
0.00225299
0.00225291
0.00225291
0.00225501
0.00221707
0.00221701
0.00221701
0.00221912
0.00218124
0.0021812
0.0021812
0.0021833
0.00214544
0.00214539
0.00214539
0.0021475
0.00210964
0.00210959
0.00210959
0.0021117
0.00207384
0.00207379
0.00207379
0.0020759
0.00203804
0.00203799
0.00203799
0.0020401
0.00200224
0.00200219
0.00200219
0.0020043
0.00196643
0.00196639
0.00196639
0.0019685
0.00193063
0.00193059
0.00193059
0.0019327
0.00189483
0.00189479
0.00189479
0.0018969
0.00185903
0.00185899
0.00185899
0.0018611
0.00182323
0.00182319
0.00182319
0.0018253
0.00178743
0.00178739
0.00178739
0.0017895
0.00175163
0.00175159
0.00175159
0.0017537
0.00171583
0.00171579
0.00171579
0.0017179
0.00168003
0.00167999
0.00167999
0.0016821
0.00164423
0.00164419
0.00164419
0.0016463
0.00160843
0.00160839
0.00160839
0.0016105
0.00157263
0.00157259
0.00157259
0.0015747
0.00153683
0.00153679
0.00153679
0.0015389
0.00150103
0.00150099
0.00150099
0.0015031
0.00146523
0.00146519
0.00146519
0.0014673
0.00142943
0.00142939
0.00142939
0.0014315
0.00139363
0.00139359
0.00139359
0.0013957
0.00135783
0.00135779
0.00135779
0.0013599
0.00132203
0.00132199
0.00132199
0.0013241
0.00128623
0.00128619
0.00128619
0.00128829
0.00125043
0.00125038
0.00125038
0.00125249
0.00121462
0.00121458
0.00121458
0.00121669
0.00117882
0.00117878
0.00117878
0.00118089
0.00114302
0.00114298
0.00114298
0.00114509
0.00110722
0.00110718
0.00110718
0.00110929
0.00107142
0.00107138
0.00107138
0.00107349
0.00103562
0.00103558
0.00103558
0.00103769
0.000999818
0.000999776
0.000999776
0.00100188
0.000964017
0.000963975
0.000963975
0.000966084
0.000928216
0.000928174
0.000928174
0.000930283
0.000892416
0.000892374
0.000892374
0.000894482
0.000856615
0.000856573
0.000856574
0.000858682
0.000820814
0.000820772
0.000820772
0.000822881
0.000785013
0.000784971
0.000784971
0.00078708
0.000749211
0.000749169
0.000749169
0.000751278
0.00071341
0.000713368
0.000713368
0.000715477
0.000677608
0.000677566
0.000677566
0.000679675
0.000641806
0.000641764
0.000641764
0.000643873
0.000606004
0.000605962
0.000605962
0.000608071
0.000570203
0.000570161
0.000570161
0.000572269
0.000534401
0.000534359
0.000534359
0.000536468
0.0004986
0.000498557
0.000498557
0.000500666
0.000462798
0.000462756
0.000462756
0.000464865
0.000426997
0.000426955
0.000426955
0.000429063
0.000391196
0.000391154
0.000391154
0.000393262
0.000355395
0.000355353
0.000355353
0.00035746
0.000319595
0.000319553
0.000319553
0.000321658
0.000283794
0.000283752
0.000283752
0.000285856
0.000247992
0.000247951
0.000247951
0.000250052
0.000212189
0.000212149
0.000212149
0.000214245
0.000176384
0.000176346
0.000176345
0.000178434
0.000140571
0.000140538
0.000140538
0.000142615
0.000104745
0.000104722
0.000104721
0.00010678
6.89332e-05
6.88946e-05
6.88934e-05
7.09266e-05
3.40106e-05
3.35948e-05
3.35912e-05
3.53117e-05
4.53025e-06
3.7436e-06
3.7438e-06
3.79408e-06
0.00352951
0.00352809
0.0035281
0.00352955
0.00352806
0.00352812
0.00353222
0.00353223
0.00353223
0.00353223
0.00352814
0.00352809
0.00352955
0.00352813
0.00352813
0.00352954
0.00352423
0.00349314
0.00352269
0.00352272
0.00349473
0.00349469
0.00352427
0.00349314
0.00352266
0.00352269
0.0034948
0.0034947
0.0035227
0.00349473
0.00349475
0.00352426
0.00349316
0.0035227
0.00349469
0.00349476
0.00349315
0.00348874
0.00345639
0.00348569
0.00348576
0.00345856
0.00345848
0.00348879
0.0034564
0.0034856
0.00348569
0.0034586
0.00345859
0.00348567
0.00345858
0.00345858
0.00348878
0.00345641
0.00348566
0.00345857
0.00345862
0.00345641
0.00345106
0.00341277
0.0034488
0.00344883
0.0034157
0.00341569
0.00345108
0.00341275
0.00344874
0.00344877
0.00341574
0.00341572
0.0034488
0.00341567
0.00341569
0.00345108
0.00341277
0.00344878
0.00341573
0.00341573
0.00341275
0.00340661
0.00336489
0.00340403
0.00340402
0.00336792
0.00336792
0.00340661
0.00336489
0.00340398
0.00340402
0.00336796
0.00336795
0.00340404
0.00336796
0.0033679
0.00340661
0.00336488
0.00340401
0.00336793
0.00336792
0.00336489
0.00335859
0.0033168
0.00335588
0.00335588
0.00331989
0.00331987
0.0033586
0.0033168
0.00335586
0.00335588
0.00331987
0.0033199
0.00335589
0.0033199
0.00331987
0.00335859
0.0033168
0.00335589
0.00331988
0.00331986
0.0033168
0.00331055
0.00326885
0.00330785
0.00330787
0.00327187
0.00327188
0.00331055
0.00326887
0.00330788
0.00330785
0.00327184
0.00327185
0.00330787
0.00327189
0.00327187
0.00331055
0.00326885
0.00330789
0.00327186
0.00327187
0.00326885
0.00326267
0.00322167
0.00325995
0.00325993
0.00322459
0.00322457
0.00326269
0.00322167
0.00325997
0.00325999
0.00322461
0.00322459
0.00325995
0.00322459
0.00322456
0.00326268
0.00322167
0.00325995
0.0032246
0.00322458
0.00322169
0.00321564
0.00317547
0.00321291
0.00321292
0.00317828
0.00317828
0.00321564
0.00317547
0.00321291
0.00321293
0.00317825
0.00317828
0.00321294
0.00317827
0.00317828
0.00321565
0.00317546
0.00321293
0.00317829
0.00317828
0.00317549
0.00316957
0.00313027
0.00316683
0.00316685
0.00313296
0.00313294
0.00316957
0.00313027
0.00316686
0.00316688
0.00313295
0.00313297
0.00316684
0.00313294
0.00313294
0.00316957
0.00313026
0.00316684
0.00313295
0.00313295
0.00313025
0.0031245
0.003086
0.00312177
0.00312176
0.0030886
0.00308857
0.0031245
0.00308599
0.00312176
0.00312175
0.00308858
0.00308853
0.0031218
0.00308858
0.0030886
0.0031245
0.00308597
0.00312179
0.00308855
0.00308857
0.00308596
0.00308034
0.00304243
0.00307759
0.0030776
0.00304495
0.00304496
0.00308034
0.00304242
0.00307757
0.0030776
0.00304493
0.00304493
0.00307761
0.00304496
0.00304497
0.00308031
0.00304243
0.00307761
0.00304494
0.00304495
0.00304245
0.00303686
0.00299945
0.00303414
0.00303416
0.00300191
0.00300192
0.00303686
0.00299943
0.00303415
0.0030342
0.00300193
0.00300195
0.00303415
0.00300193
0.00300194
0.00303687
0.00299944
0.00303416
0.00300194
0.00300196
0.00299941
0.00299394
0.00295683
0.00299123
0.00299124
0.00295932
0.00295931
0.00299393
0.00295683
0.00299124
0.00299127
0.00295934
0.00295934
0.00299127
0.00295931
0.00295932
0.00299396
0.00295685
0.00299126
0.00295934
0.00295937
0.00295679
0.00295137
0.00291457
0.00294871
0.00294871
0.00291705
0.00291702
0.00295138
0.00291454
0.00294871
0.00294871
0.00291705
0.00291703
0.00294875
0.00291702
0.002917
0.00295141
0.00291453
0.00294874
0.00291705
0.002917
0.00291451
0.00290915
0.00287262
0.00290651
0.0029065
0.00287505
0.00287504
0.00290914
0.00287262
0.00290651
0.00290647
0.00287505
0.00287505
0.00290648
0.00287503
0.00287506
0.00290913
0.00287255
0.00290649
0.00287503
0.00287492
0.00287254
0.00286725
0.00283099
0.00286462
0.0028646
0.00283341
0.00283341
0.00286725
0.00283098
0.00286459
0.00286455
0.00283342
0.00283349
0.00286463
0.00283339
0.00283342
0.00286721
0.002831
0.00286453
0.00283341
0.00283345
0.002831
0.00282567
0.00278968
0.00282306
0.00282305
0.00279209
0.00279213
0.00282568
0.00278968
0.00282308
0.00282314
0.00279211
0.00279211
0.00282312
0.00279216
0.00279212
0.00282567
0.00278973
0.00282312
0.00279214
0.00279214
0.00278978
0.0027844
0.00274885
0.00278182
0.00278186
0.00275128
0.00275128
0.00278442
0.00274882
0.00278185
0.00278188
0.00275126
0.00275124
0.00278187
0.00275127
0.00275119
0.00278446
0.00274881
0.00278189
0.00275128
0.00275125
0.00274879
0.00274363
0.0027084
0.00274115
0.00274113
0.00271085
0.00271083
0.00274361
0.00270839
0.00274111
0.00274107
0.00271083
0.00271084
0.00274104
0.00271083
0.00271089
0.0027436
0.00270839
0.0027411
0.00271084
0.00271085
0.00270844
0.00270325
0.00266843
0.0027008
0.00270079
0.00267085
0.00267086
0.00270323
0.00266845
0.00270079
0.00270081
0.00267087
0.00267088
0.00270085
0.00267087
0.00267086
0.00270323
0.00266843
0.00270081
0.00267086
0.00267085
0.0026684
0.00266336
0.00262921
0.00266096
0.00266098
0.0026316
0.00263159
0.00266337
0.00262919
0.00266097
0.00266098
0.00263159
0.00263158
0.00266096
0.00263158
0.00263158
0.00266337
0.00262921
0.00266094
0.00263159
0.00263157
0.0026292
0.00262422
0.00259089
0.00262188
0.00262187
0.00259315
0.00259315
0.0026242
0.0025909
0.00262188
0.00262188
0.00259317
0.00259316
0.00262188
0.00259317
0.00259319
0.00262422
0.00259091
0.00262188
0.00259317
0.00259319
0.00259093
0.00258608
0.00255433
0.00258378
0.00258378
0.00255638
0.00255638
0.00258609
0.00255435
0.00258378
0.00258378
0.00255636
0.00255635
0.00258382
0.00255639
0.00255639
0.00258609
0.00255429
0.00258382
0.00255633
0.00255638
0.00255434
0.00254975
0.00251899
0.00254744
0.00254744
0.00252087
0.00252088
0.00254976
0.00251898
0.00254743
0.0025474
0.00252087
0.00252087
0.00254743
0.00252086
0.00252085
0.0025497
0.00251899
0.00254743
0.00252087
0.00252086
0.00251896
0.00251443
0.00248335
0.00251203
0.00251204
0.00248524
0.00248525
0.00251442
0.00248335
0.00251203
0.00251204
0.00248524
0.00248526
0.00251202
0.00248524
0.00248524
0.00251444
0.00248337
0.00251202
0.00248527
0.00248525
0.00248335
0.00247865
0.00244643
0.00247616
0.00247617
0.00244842
0.00244842
0.00247865
0.00244643
0.00247617
0.00247617
0.00244843
0.00244843
0.00247616
0.00244842
0.00244843
0.00247866
0.00244643
0.00247617
0.00244843
0.00244843
0.00244643
0.00244153
0.0024085
0.00243904
0.00243903
0.00241063
0.00241063
0.00244153
0.0024085
0.00243904
0.00243904
0.00241063
0.00241063
0.00243904
0.00241063
0.00241063
0.00244154
0.0024085
0.00243904
0.00241063
0.00241063
0.0024085
0.00240352
0.00237044
0.00240113
0.00240112
0.00237267
0.00237266
0.00240352
0.00237044
0.00240113
0.00240113
0.00237267
0.00237267
0.00240113
0.00237266
0.00237267
0.00240353
0.00237044
0.00240113
0.00237267
0.00237267
0.00237044
0.00236548
0.00233287
0.00236322
0.00236322
0.0023351
0.0023351
0.00236548
0.00233287
0.00236322
0.00236322
0.0023351
0.0023351
0.00236322
0.0023351
0.0023351
0.00236548
0.00233287
0.00236322
0.0023351
0.0023351
0.00233287
0.00232798
0.00229603
0.00232582
0.00232582
0.00229822
0.00229822
0.00232798
0.00229603
0.00232582
0.00232582
0.00229822
0.00229822
0.00232582
0.00229822
0.00229822
0.00232798
0.00229603
0.00232582
0.00229822
0.00229822
0.00229603
0.00229121
0.00225977
0.00228909
0.00228909
0.00226191
0.00226191
0.00229121
0.00225977
0.00228909
0.00228909
0.00226191
0.00226191
0.00228909
0.00226191
0.00226191
0.00229121
0.00225977
0.00228909
0.00226191
0.00226191
0.00225977
0.00225501
0.00222385
0.00225291
0.00225291
0.00222597
0.00222597
0.00225501
0.00222385
0.00225291
0.00225291
0.00222597
0.00222597
0.00225291
0.00222597
0.00222597
0.00225501
0.00222385
0.00225291
0.00222597
0.00222597
0.00222385
0.00221912
0.00218804
0.00221701
0.00221701
0.00219015
0.00219015
0.00221912
0.00218804
0.00221701
0.00221701
0.00219015
0.00219015
0.00221701
0.00219015
0.00219015
0.00221912
0.00218804
0.00221701
0.00219015
0.00219015
0.00218804
0.0021833
0.00215224
0.0021812
0.0021812
0.00215434
0.00215434
0.0021833
0.00215224
0.0021812
0.0021812
0.00215434
0.00215434
0.0021812
0.00215434
0.00215434
0.0021833
0.00215224
0.0021812
0.00215434
0.00215434
0.00215224
0.0021475
0.00211644
0.00214539
0.00214539
0.00211854
0.00211854
0.0021475
0.00211644
0.00214539
0.00214539
0.00211854
0.00211854
0.00214539
0.00211854
0.00211854
0.0021475
0.00211644
0.00214539
0.00211854
0.00211854
0.00211644
0.0021117
0.00208064
0.00210959
0.00210959
0.00208275
0.00208274
0.0021117
0.00208064
0.00210959
0.00210959
0.00208274
0.00208275
0.00210959
0.00208274
0.00208275
0.0021117
0.00208064
0.00210959
0.00208274
0.00208275
0.00208064
0.0020759
0.00204484
0.0020738
0.00207379
0.00204694
0.00204694
0.0020759
0.00204484
0.00207379
0.0020738
0.00204694
0.00204694
0.0020738
0.00204694
0.00204694
0.0020759
0.00204484
0.0020738
0.00204694
0.00204694
0.00204484
0.0020401
0.00200904
0.00203799
0.00203799
0.00201114
0.00201114
0.0020401
0.00200904
0.00203799
0.00203799
0.00201114
0.00201114
0.00203799
0.00201114
0.00201114
0.0020401
0.00200904
0.00203799
0.00201114
0.00201114
0.00200904
0.0020043
0.00197324
0.00200219
0.00200219
0.00197534
0.00197534
0.0020043
0.00197324
0.00200219
0.00200219
0.00197534
0.00197534
0.00200219
0.00197534
0.00197534
0.0020043
0.00197324
0.00200219
0.00197534
0.00197534
0.00197324
0.0019685
0.00193743
0.00196639
0.00196639
0.00193954
0.00193954
0.0019685
0.00193743
0.00196639
0.00196639
0.00193954
0.00193954
0.00196639
0.00193954
0.00193954
0.0019685
0.00193743
0.00196639
0.00193954
0.00193954
0.00193743
0.0019327
0.00190163
0.00193059
0.00193059
0.00190374
0.00190374
0.0019327
0.00190163
0.00193059
0.00193059
0.00190374
0.00190374
0.00193059
0.00190374
0.00190374
0.0019327
0.00190163
0.00193059
0.00190374
0.00190374
0.00190163
0.0018969
0.00186583
0.00189479
0.00189479
0.00186794
0.00186794
0.0018969
0.00186583
0.00189479
0.00189479
0.00186794
0.00186794
0.00189479
0.00186794
0.00186794
0.0018969
0.00186583
0.00189479
0.00186794
0.00186794
0.00186583
0.0018611
0.00183003
0.00185899
0.00185899
0.00183214
0.00183214
0.0018611
0.00183003
0.00185899
0.00185899
0.00183214
0.00183214
0.00185899
0.00183214
0.00183214
0.0018611
0.00183003
0.00185899
0.00183214
0.00183214
0.00183003
0.0018253
0.00179423
0.00182319
0.00182319
0.00179634
0.00179634
0.0018253
0.00179423
0.00182319
0.00182319
0.00179634
0.00179634
0.00182319
0.00179634
0.00179634
0.0018253
0.00179423
0.00182319
0.00179634
0.00179634
0.00179423
0.0017895
0.00175843
0.00178739
0.00178739
0.00176054
0.00176054
0.0017895
0.00175843
0.00178739
0.00178739
0.00176054
0.00176054
0.00178739
0.00176054
0.00176054
0.0017895
0.00175843
0.00178739
0.00176054
0.00176054
0.00175843
0.0017537
0.00172263
0.00175159
0.00175159
0.00172474
0.00172474
0.0017537
0.00172263
0.00175159
0.00175159
0.00172474
0.00172474
0.00175159
0.00172474
0.00172474
0.0017537
0.00172263
0.00175159
0.00172474
0.00172474
0.00172263
0.0017179
0.00168683
0.00171579
0.00171579
0.00168894
0.00168894
0.0017179
0.00168683
0.00171579
0.00171579
0.00168894
0.00168894
0.00171579
0.00168894
0.00168894
0.0017179
0.00168683
0.00171579
0.00168894
0.00168894
0.00168683
0.0016821
0.00165103
0.00167999
0.00167999
0.00165314
0.00165314
0.0016821
0.00165103
0.00167999
0.00167999
0.00165314
0.00165314
0.00167999
0.00165314
0.00165314
0.0016821
0.00165103
0.00167999
0.00165314
0.00165314
0.00165103
0.00164629
0.00161523
0.00164419
0.00164419
0.00161734
0.00161734
0.0016463
0.00161523
0.00164419
0.00164419
0.00161734
0.00161734
0.00164419
0.00161734
0.00161734
0.0016463
0.00161523
0.00164419
0.00161734
0.00161734
0.00161523
0.0016105
0.00157943
0.00160839
0.00160839
0.00158154
0.00158154
0.0016105
0.00157943
0.00160839
0.00160839
0.00158154
0.00158154
0.00160839
0.00158154
0.00158154
0.0016105
0.00157943
0.00160839
0.00158154
0.00158154
0.00157943
0.0015747
0.00154363
0.00157259
0.00157259
0.00154574
0.00154574
0.0015747
0.00154363
0.00157259
0.00157259
0.00154574
0.00154574
0.00157259
0.00154574
0.00154574
0.00157469
0.00154363
0.00157259
0.00154574
0.00154574
0.00154363
0.00153889
0.00150783
0.00153679
0.00153679
0.00150994
0.00150994
0.00153889
0.00150783
0.00153679
0.00153679
0.00150994
0.00150994
0.00153679
0.00150994
0.00150994
0.00153889
0.00150783
0.00153679
0.00150994
0.00150994
0.00150783
0.00150309
0.00147203
0.00150099
0.00150099
0.00147414
0.00147414
0.00150309
0.00147203
0.00150099
0.00150099
0.00147414
0.00147414
0.00150099
0.00147414
0.00147414
0.0015031
0.00147203
0.00150099
0.00147414
0.00147414
0.00147203
0.0014673
0.00143623
0.00146519
0.00146519
0.00143834
0.00143834
0.0014673
0.00143623
0.00146519
0.00146519
0.00143834
0.00143834
0.00146519
0.00143834
0.00143834
0.0014673
0.00143623
0.00146519
0.00143834
0.00143834
0.00143623
0.0014315
0.00140043
0.00142939
0.00142939
0.00140254
0.00140254
0.0014315
0.00140043
0.00142939
0.00142939
0.00140254
0.00140254
0.00142939
0.00140254
0.00140254
0.0014315
0.00140043
0.00142939
0.00140254
0.00140254
0.00140043
0.0013957
0.00136463
0.00139359
0.00139359
0.00136674
0.00136674
0.0013957
0.00136463
0.00139359
0.00139359
0.00136674
0.00136674
0.00139359
0.00136674
0.00136674
0.0013957
0.00136463
0.00139359
0.00136674
0.00136674
0.00136463
0.0013599
0.00132883
0.00135779
0.00135779
0.00133094
0.00133094
0.0013599
0.00132883
0.00135779
0.00135779
0.00133094
0.00133094
0.00135779
0.00133094
0.00133094
0.0013599
0.00132883
0.00135779
0.00133094
0.00133094
0.00132883
0.0013241
0.00129303
0.00132199
0.00132199
0.00129514
0.00129514
0.0013241
0.00129303
0.00132199
0.00132199
0.00129514
0.00129514
0.00132199
0.00129514
0.00129514
0.0013241
0.00129303
0.00132199
0.00129514
0.00129513
0.00129303
0.00128829
0.00125723
0.00128619
0.00128619
0.00125933
0.00125933
0.00128829
0.00125723
0.00128618
0.00128618
0.00125933
0.00125933
0.00128619
0.00125933
0.00125933
0.00128829
0.00125723
0.00128619
0.00125933
0.00125933
0.00125723
0.00125249
0.00122143
0.00125038
0.00125038
0.00122353
0.00122353
0.00125249
0.00122143
0.00125038
0.00125038
0.00122353
0.00122353
0.00125038
0.00122353
0.00122353
0.00125249
0.00122143
0.00125038
0.00122353
0.00122353
0.00122143
0.00121669
0.00118563
0.00121458
0.00121458
0.00118773
0.00118773
0.00121669
0.00118563
0.00121458
0.00121458
0.00118773
0.00118773
0.00121458
0.00118773
0.00118773
0.00121669
0.00118563
0.00121458
0.00118773
0.00118773
0.00118562
0.00118089
0.00114982
0.00117878
0.00117878
0.00115193
0.00115193
0.00118089
0.00114982
0.00117878
0.00117878
0.00115193
0.00115193
0.00117878
0.00115193
0.00115193
0.00118089
0.00114982
0.00117878
0.00115193
0.00115193
0.00114982
0.00114509
0.00111402
0.00114298
0.00114298
0.00111613
0.00111613
0.00114509
0.00111402
0.00114298
0.00114298
0.00111613
0.00111613
0.00114298
0.00111613
0.00111613
0.00114509
0.00111402
0.00114298
0.00111613
0.00111613
0.00111402
0.00110929
0.00107822
0.00110718
0.00110718
0.00108033
0.00108033
0.00110929
0.00107822
0.00110718
0.00110718
0.00108033
0.00108033
0.00110718
0.00108033
0.00108033
0.00110929
0.00107822
0.00110718
0.00108033
0.00108033
0.00107822
0.00107349
0.00104242
0.00107138
0.00107138
0.00104453
0.00104453
0.00107349
0.00104242
0.00107138
0.00107138
0.00104453
0.00104453
0.00107138
0.00104453
0.00104453
0.00107349
0.00104242
0.00107138
0.00104453
0.00104453
0.00104242
0.00103769
0.00100662
0.00103558
0.00103558
0.00100873
0.00100873
0.00103769
0.00100662
0.00103558
0.00103558
0.00100873
0.00100873
0.00103558
0.00100873
0.00100873
0.00103769
0.00100662
0.00103558
0.00100873
0.00100873
0.00100662
0.00100189
0.000970819
0.000999776
0.000999776
0.000972925
0.000972924
0.00100189
0.000970819
0.000999775
0.000999776
0.000972924
0.000972925
0.000999776
0.000972924
0.000972925
0.00100189
0.000970818
0.000999776
0.000972925
0.000972925
0.000970818
0.000966085
0.000935018
0.000963975
0.000963975
0.000937124
0.000937124
0.000966085
0.000935018
0.000963975
0.000963975
0.000937124
0.000937124
0.000963975
0.000937124
0.000937124
0.000966085
0.000935017
0.000963975
0.000937124
0.000937124
0.000935017
0.000930284
0.000899217
0.000928174
0.000928174
0.000901323
0.000901323
0.000930284
0.000899217
0.000928174
0.000928174
0.000901323
0.000901323
0.000928174
0.000901323
0.000901323
0.000930284
0.000899217
0.000928174
0.000901323
0.000901323
0.000899216
0.000894484
0.000863417
0.000892374
0.000892373
0.000865523
0.000865523
0.000894483
0.000863417
0.000892373
0.000892374
0.000865523
0.000865523
0.000892374
0.000865523
0.000865523
0.000894483
0.000863417
0.000892373
0.000865523
0.000865524
0.000863416
0.000858683
0.000827616
0.000856573
0.000856573
0.000829722
0.000829722
0.000858683
0.000827616
0.000856573
0.000856573
0.000829722
0.000829722
0.000856573
0.000829722
0.000829723
0.000858683
0.000827616
0.000856573
0.000829722
0.000829723
0.000827615
0.000822882
0.000791814
0.000820772
0.000820772
0.000793921
0.00079392
0.000822882
0.000791815
0.000820772
0.000820772
0.000793921
0.000793921
0.000820772
0.000793921
0.000793921
0.000822882
0.000791815
0.000820772
0.000793921
0.000793921
0.000791814
0.000787081
0.000756013
0.000784971
0.000784971
0.000758119
0.000758119
0.000787081
0.000756013
0.00078497
0.000784971
0.000758119
0.000758119
0.000784971
0.000758119
0.00075812
0.000787081
0.000756013
0.000784971
0.000758119
0.00075812
0.000756013
0.000751279
0.000720211
0.000749169
0.000749169
0.000722318
0.000722317
0.000751279
0.000720212
0.000749169
0.000749169
0.000722318
0.000722318
0.000749169
0.000722317
0.000722318
0.000751279
0.000720211
0.000749169
0.000722318
0.000722318
0.000720211
0.000715478
0.00068441
0.000713368
0.000713368
0.000686516
0.000686516
0.000715478
0.00068441
0.000713367
0.000713368
0.000686516
0.000686516
0.000713368
0.000686516
0.000686516
0.000715478
0.00068441
0.000713368
0.000686516
0.000686516
0.000684409
0.000679676
0.000648608
0.000677566
0.000677566
0.000650714
0.000650714
0.000679676
0.000648608
0.000677566
0.000677566
0.000650714
0.000650714
0.000677566
0.000650714
0.000650714
0.000679676
0.000648608
0.000677566
0.000650714
0.000650714
0.000648607
0.000643874
0.000612806
0.000641764
0.000641764
0.000614912
0.000614912
0.000643874
0.000612806
0.000641764
0.000641764
0.000614912
0.000614912
0.000641764
0.000614912
0.000614913
0.000643874
0.000612806
0.000641764
0.000614912
0.000614912
0.000612805
0.000608072
0.000577004
0.000605962
0.000605962
0.00057911
0.00057911
0.000608072
0.000577004
0.000605962
0.000605962
0.00057911
0.00057911
0.000605963
0.00057911
0.000579111
0.000608072
0.000577004
0.000605962
0.00057911
0.000579111
0.000577004
0.00057227
0.000541203
0.000570161
0.00057016
0.000543309
0.000543308
0.00057227
0.000541203
0.000570161
0.000570161
0.000543308
0.000543309
0.000570161
0.000543309
0.000543309
0.00057227
0.000541202
0.000570161
0.000543309
0.000543309
0.000541202
0.000536469
0.000505401
0.000534359
0.000534359
0.000507507
0.000507507
0.000536469
0.000505401
0.000534359
0.000534359
0.000507507
0.000507507
0.000534359
0.000507507
0.000507508
0.000536469
0.000505401
0.000534359
0.000507507
0.000507507
0.0005054
0.000500667
0.0004696
0.000498557
0.000498557
0.000471706
0.000471706
0.000500667
0.0004696
0.000498557
0.000498557
0.000471706
0.000471706
0.000498558
0.000471705
0.000471706
0.000500667
0.0004696
0.000498557
0.000471706
0.000471706
0.000469599
0.000464866
0.000433799
0.000462756
0.000462756
0.000435905
0.000435904
0.000464865
0.000433799
0.000462756
0.000462756
0.000435904
0.000435904
0.000462756
0.000435904
0.000435905
0.000464865
0.000433799
0.000462756
0.000435904
0.000435905
0.000433798
0.000429064
0.000397998
0.000426955
0.000426955
0.000400103
0.000400103
0.000429064
0.000397998
0.000426955
0.000426955
0.000400103
0.000400103
0.000426955
0.000400103
0.000400103
0.000429064
0.000397998
0.000426955
0.000400103
0.000400103
0.000397997
0.000393263
0.000362197
0.000391154
0.000391154
0.000364302
0.000364302
0.000393263
0.000362197
0.000391154
0.000391154
0.000364302
0.000364302
0.000391154
0.000364302
0.000364302
0.000393263
0.000362197
0.000391154
0.000364302
0.000364302
0.000362196
0.000357461
0.000326397
0.000355353
0.000355353
0.000328501
0.000328501
0.000357461
0.000326397
0.000355353
0.000355353
0.000328501
0.000328501
0.000355354
0.000328501
0.000328501
0.000357461
0.000326396
0.000355353
0.000328501
0.000328501
0.000326396
0.000321659
0.000290596
0.000319553
0.000319553
0.000292699
0.000292699
0.000321659
0.000290596
0.000319552
0.000319553
0.0002927
0.0002927
0.000319553
0.000292699
0.0002927
0.000321659
0.000290596
0.000319553
0.0002927
0.0002927
0.000290595
0.000285857
0.000254796
0.000283752
0.000283752
0.000256898
0.000256897
0.000285857
0.000254796
0.000283752
0.000283752
0.000256898
0.000256898
0.000283752
0.000256897
0.000256898
0.000285857
0.000254795
0.000283752
0.000256898
0.000256898
0.000254795
0.000250053
0.000218995
0.000247951
0.000247951
0.000221095
0.000221095
0.000250053
0.000218995
0.00024795
0.000247951
0.000221095
0.000221095
0.000247951
0.000221095
0.000221095
0.000250053
0.000218995
0.000247951
0.000221095
0.000221095
0.000218994
0.000214246
0.000183194
0.000212149
0.000212149
0.00018529
0.00018529
0.000214246
0.000183194
0.000212149
0.000212149
0.00018529
0.00018529
0.000212149
0.00018529
0.000185291
0.000214246
0.000183193
0.000212149
0.00018529
0.00018529
0.000183193
0.000178435
0.00014739
0.000176345
0.000176345
0.000149482
0.000149482
0.000178435
0.00014739
0.000176345
0.000176345
0.000149482
0.000149482
0.000176346
0.000149482
0.000149482
0.000178435
0.000147389
0.000176345
0.000149482
0.000149482
0.000147389
0.000142615
0.000111579
0.000140538
0.000140538
0.000113665
0.000113665
0.000142615
0.000111579
0.000140538
0.000140538
0.000113665
0.000113665
0.000140538
0.000113665
0.000113665
0.000142615
0.000111578
0.000140538
0.000113665
0.000113665
0.000111578
0.00010678
7.57565e-05
0.000104722
0.000104722
7.78345e-05
7.78343e-05
0.000106781
7.57571e-05
0.000104721
0.000104721
7.78339e-05
7.78335e-05
0.000104722
7.78341e-05
7.78336e-05
0.00010678
7.57557e-05
0.000104722
7.78333e-05
7.78339e-05
7.57556e-05
7.09281e-05
4.00785e-05
6.88949e-05
6.88948e-05
4.21937e-05
4.21947e-05
7.0928e-05
4.00796e-05
6.88941e-05
6.88934e-05
4.21926e-05
4.21909e-05
6.88938e-05
4.21937e-05
4.21909e-05
7.09274e-05
4.0076e-05
6.88939e-05
4.21906e-05
4.21903e-05
4.00756e-05
3.53157e-05
7.12439e-06
3.35951e-05
3.35961e-05
9.80689e-06
9.80609e-06
3.53161e-05
7.12346e-06
3.35948e-05
3.3592e-05
9.8064e-06
9.80229e-06
3.35911e-05
9.80442e-06
9.80035e-06
3.53126e-05
7.12052e-06
3.35915e-05
9.80296e-06
9.80278e-06
7.11931e-06
3.79768e-06
3.74814e-06
3.74538e-06
3.79772e-06
3.74233e-06
3.74148e-06
4.52942e-06
4.52801e-06
4.52761e-06
3.7422e-06
3.79538e-06
3.74086e-06
0.00353623
0.00354004
0.00353838
0.00353838
0.00356123
0.00354123
0.00356819
0.00353986
0.00356127
0.00354128
0.00353986
0.0035682
0.00355018
0.00357135
0.00357139
0.00350672
0.00352123
0.00352489
0.00349881
0.00349813
0.00350255
0.00350664
0.0035212
0.0035249
0.00349898
0.00352322
0.0035232
0.0035232
0.00349543
0.00349542
0.00349541
0.0034954
0.00350631
0.00351934
0.00352382
0.00351374
0.00352606
0.00350338
0.00351409
0.00349821
0.00350247
0.00350642
0.00352381
0.00351933
0.00351375
0.00352604
0.00351409
0.00350332
0.00352501
0.00352494
0.00351064
0.00350326
0.0035033
0.00347966
0.00349344
0.00349302
0.00347791
0.00349066
0.00347708
0.00347961
0.0034934
0.00349304
0.00347781
0.00348663
0.00348659
0.0034866
0.00345989
0.00345988
0.00345989
0.00345987
0.00347732
0.00349216
0.0034857
0.00347692
0.00349058
0.00347823
0.00347679
0.00349071
0.00347701
0.00347732
0.00348568
0.00349212
0.0034769
0.00349057
0.00347678
0.00347807
0.00349371
0.00349372
0.00347575
0.00347873
0.00347873
0.00343766
0.00345261
0.0034533
0.0034366
0.00345135
0.00343567
0.0034377
0.00345254
0.00345334
0.00343662
0.00345
0.00344999
0.00345
0.00341684
0.00341683
0.00341684
0.00341681
0.00343631
0.00345228
0.00344862
0.00343817
0.00345143
0.00343706
0.00343807
0.00345141
0.00343567
0.00343632
0.00344864
0.00345231
0.00343817
0.00345144
0.00343808
0.00343697
0.00345283
0.00345286
0.00343545
0.00343684
0.00343688
0.00339109
0.0034077
0.003409
0.00338971
0.00340703
0.00338917
0.003391
0.00340772
0.00340906
0.0033897
0.00340503
0.00340503
0.00340502
0.00336899
0.00336898
0.00336898
0.00336898
0.00338986
0.00340775
0.00340385
0.00339199
0.0034072
0.00339022
0.00339195
0.00340702
0.00338916
0.00338983
0.00340384
0.00340771
0.00339204
0.00340722
0.00339195
0.00339023
0.00340781
0.00340785
0.00338897
0.0033898
0.00338977
0.00334242
0.00335933
0.00336052
0.00334116
0.00335892
0.00334085
0.00334227
0.00335931
0.00336059
0.00334116
0.00335694
0.00335693
0.00335692
0.00332086
0.00332086
0.00332085
0.00332085
0.00334151
0.00335935
0.00335584
0.00334384
0.00335914
0.00334179
0.00334384
0.00335891
0.00334082
0.00334153
0.00335582
0.00335938
0.00334387
0.00335912
0.00334384
0.00334175
0.00335934
0.00335933
0.00334081
0.00334125
0.00334124
0.00329359
0.00331093
0.00331192
0.00329286
0.00331065
0.00329263
0.00329373
0.00331093
0.00331183
0.00329287
0.00330882
0.00330881
0.00330881
0.00327274
0.00327275
0.00327273
0.00327273
0.00329329
0.00331099
0.00330788
0.00329585
0.00331093