/*--------------------------------*- C++ -*----------------------------------*\
| =========                 |                                                 |
| \\      /  F ield         | OpenFOAM: The Open Source CFD Toolbox           |
|  \\    /   O peration     | Version:  v2012                                 |
|   \\  /    A nd           | Website:  www.openfoam.com                      |
|    \\/     M anipulation  |                                                 |
\*---------------------------------------------------------------------------*/
FoamFile
{
    version     2.0;
    format      ascii;
    class       volScalarField;
    location    "100";
    object      epsilon;
}
// * * * * * * * * * * * * * * * * * * * * * * * * * * * * * * * * * * * * * //

dimensions      [0 2 -3 0 0 0 0];


internalField   nonuniform List<scalar> 
85864
(
1.23079e-07
2.21631e-07
3.39456e-07
2.21254e-07
2.20982e-07
2.22892e-07
3.40974e-07
8.75777e-06
8.75896e-06
3.40296e-06
1.23297e-07
1.8365e-05
2.67241e-06
1.82945e-05
1.8289e-05
4.99002e-06
4.98671e-06
2.67078e-06
2.6697e-06
1.50271e-07
1.03305e-06
8.7882e-06
3.43767e-06
1.51285e-07
2.68316e-06
1.04944e-06
5.01731e-06
4.98767e-06
1.82935e-05
8.76116e-06
8.75799e-06
7.05957e-06
2.21553e-05
2.21592e-05
8.75908e-06
7.06314e-06
7.06202e-06
2.21528e-05
1.19488e-05
3.40297e-06
4.23928e-06
1.05692e-05
4.23874e-06
1.05702e-05
1.19478e-05
1.83683e-05
1.82981e-05
1.82921e-05
3.78392e-06
1.80365e-06
4.98949e-06
8.87479e-06
8.87535e-06
1.80301e-06
3.78697e-06
3.77918e-06
1.79046e-06
4.98583e-06
8.87206e-06
8.87211e-06
1.79001e-06
3.78254e-06
9.60277e-06
2.1796e-05
2.17939e-05
2.18015e-05
2.17992e-05
9.60399e-06
2.22524e-05
8.78867e-06
7.05798e-06
7.05683e-06
2.22457e-05
1.20289e-05
3.43701e-06
1.06076e-05
4.27609e-06
1.06083e-05
4.2754e-06
1.20278e-05
3.78734e-06
1.81223e-06
5.01636e-06
8.90095e-06
8.90133e-06
1.81149e-06
3.79136e-06
3.78093e-06
1.80278e-06
4.98689e-06
8.87193e-06
1.80206e-06
8.87233e-06
3.7856e-06
9.59809e-06
2.17971e-05
2.17865e-05
2.18028e-05
2.17922e-05
9.59913e-06
1.82967e-05
8.76148e-06
1.05441e-07
1.59734e-06
7.09808e-07
7.07079e-07
3.38581e-07
7.088e-07
7.06163e-07
1.60118e-06
1.59799e-06
7.12632e-07
7.10031e-07
3.39674e-07
7.09023e-07
7.11613e-07
1.60173e-06
1.05561e-07
6.18824e-07
9.43307e-07
2.67135e-06
1.94824e-06
9.42324e-07
1.94746e-06
6.19957e-07
6.1607e-07
9.42538e-07
2.66965e-06
1.94154e-06
1.94021e-06
9.41557e-07
6.1711e-07
6.1268e-07
9.39427e-07
2.6686e-06
1.93641e-06
1.93543e-06
9.38552e-07
6.15352e-07
4.37555e-07
1.03264e-06
1.31712e-06
3.62981e-07
1.3164e-06
3.62424e-07
4.38593e-07
6.2384e-07
9.5015e-07
2.68201e-06
1.96e-06
1.95903e-06
9.49133e-07
6.26511e-07
4.48931e-07
1.04891e-06
3.67814e-07
1.35107e-06
3.67236e-07
1.35036e-06
4.5004e-07
2.21612e-07
3.38667e-07
1.23089e-07
2.21513e-07
2.21646e-07
3.38752e-07
1.23101e-07
2.21452e-07
2.21639e-07
3.38812e-07
1.2312e-07
2.21415e-07
2.21649e-07
3.38851e-07
1.23138e-07
2.21317e-07
2.21631e-07
3.38441e-07
1.2315e-07
2.21134e-07
2.21584e-07
3.37982e-07
1.23149e-07
2.20894e-07
2.21498e-07
3.36988e-07
1.23137e-07
2.20655e-07
2.21432e-07
3.3568e-07
1.23119e-07
2.20429e-07
2.21362e-07
3.34627e-07
1.23092e-07
2.20267e-07
2.21275e-07
3.33976e-07
1.23074e-07
2.20179e-07
2.21158e-07
3.33673e-07
1.23058e-07
2.20154e-07
2.21049e-07
3.33526e-07
1.23039e-07
2.20163e-07
2.20951e-07
3.33663e-07
1.23023e-07
2.20151e-07
2.20877e-07
3.33969e-07
1.23006e-07
2.20163e-07
2.20856e-07
3.34146e-07
1.22988e-07
2.2022e-07
2.20903e-07
3.34286e-07
1.22976e-07
2.20282e-07
2.20964e-07
3.34629e-07
1.22963e-07
2.20362e-07
2.21084e-07
3.3505e-07
1.22953e-07
2.20433e-07
2.21158e-07
3.35287e-07
1.22948e-07
2.20493e-07
2.21237e-07
3.35413e-07
1.22944e-07
2.20551e-07
2.21294e-07
3.35547e-07
1.22942e-07
2.20652e-07
2.21355e-07
3.35706e-07
1.22946e-07
2.20788e-07
2.21428e-07
3.36072e-07
1.22966e-07
2.20867e-07
2.21482e-07
3.36429e-07
1.22986e-07
2.20954e-07
2.21495e-07
3.36814e-07
1.23009e-07
2.21026e-07
2.21474e-07
3.37148e-07
1.23036e-07
2.21095e-07
2.2139e-07
3.37437e-07
1.23056e-07
2.21156e-07
2.21313e-07
3.37564e-07
1.23072e-07
2.2123e-07
2.21249e-07
3.37696e-07
1.23089e-07
2.21269e-07
2.21096e-07
3.3743e-07
1.23105e-07
2.21255e-07
2.2089e-07
3.37353e-07
1.23122e-07
2.21208e-07
2.20717e-07
3.37395e-07
1.23138e-07
2.21086e-07
2.20567e-07
3.37386e-07
1.23157e-07
2.21039e-07
2.20598e-07
3.37404e-07
1.2317e-07
2.21005e-07
2.20742e-07
3.37649e-07
1.23181e-07
2.20956e-07
2.20935e-07
3.3765e-07
1.23186e-07
2.20908e-07
2.21105e-07
3.37948e-07
1.23187e-07
2.20891e-07
2.21254e-07
3.37961e-07
1.2319e-07
2.20863e-07
2.21354e-07
3.38162e-07
1.23191e-07
2.2078e-07
2.21429e-07
3.38261e-07
1.23192e-07
2.2067e-07
2.21512e-07
3.38349e-07
1.23188e-07
2.20605e-07
2.21591e-07
3.38703e-07
1.23179e-07
2.20621e-07
2.21671e-07
3.38837e-07
1.23174e-07
2.20696e-07
2.21726e-07
3.38916e-07
1.23171e-07
2.20796e-07
2.21737e-07
3.39279e-07
1.23165e-07
2.2084e-07
2.21695e-07
3.39206e-07
1.23065e-07
2.20902e-07
2.21558e-07
3.37311e-07
1.20334e-07
2.07296e-07
2.07615e-07
3.14392e-07
3.38722e-07
2.2166e-07
2.21242e-07
2.21626e-07
3.39853e-07
3.38768e-07
2.21053e-07
2.22828e-07
2.20917e-07
2.21515e-07
2.20912e-07
3.39781e-07
2.21556e-07
2.21643e-07
2.21551e-07
3.37821e-07
3.3957e-07
3.388e-07
2.21209e-07
2.21609e-07
2.21209e-07
2.21606e-07
3.39934e-07
3.38706e-07
2.2109e-07
2.22831e-07
2.21229e-07
2.22832e-07
2.20918e-07
2.21457e-07
2.20995e-07
3.40685e-07
3.39515e-07
2.21534e-07
2.21631e-07
2.21552e-07
3.37881e-07
3.39714e-07
3.38558e-07
2.21188e-07
2.21557e-07
2.21237e-07
2.21577e-07
3.39652e-07
3.38467e-07
2.21225e-07
2.22828e-07
2.21318e-07
2.22804e-07
2.20983e-07
2.21436e-07
2.20984e-07
3.40646e-07
3.39466e-07
2.21552e-07
2.21648e-07
2.21582e-07
3.37737e-07
3.39715e-07
3.38152e-07
2.21236e-07
2.21579e-07
2.21276e-07
2.21562e-07
3.3931e-07
3.37958e-07
2.2132e-07
2.22761e-07
2.21371e-07
2.22679e-07
2.20982e-07
2.21344e-07
2.20967e-07
3.40432e-07
3.38874e-07
2.21566e-07
2.21637e-07
2.21563e-07
3.37393e-07
3.39421e-07
3.37734e-07
2.21294e-07
2.21562e-07
2.21334e-07
2.2151e-07
3.38783e-07
3.37147e-07
2.21363e-07
2.22618e-07
2.21339e-07
2.22505e-07
2.20935e-07
2.21178e-07
2.20889e-07
3.40091e-07
3.38462e-07
2.21542e-07
2.21605e-07
2.21471e-07
3.36867e-07
3.38909e-07
3.37013e-07
2.21303e-07
2.21447e-07
2.21319e-07
2.21357e-07
3.3799e-07
3.36222e-07
2.21325e-07
2.22461e-07
2.21234e-07
2.22263e-07
2.20877e-07
2.2094e-07
2.20815e-07
3.39544e-07
3.37861e-07
2.21393e-07
2.21515e-07
2.2125e-07
3.36098e-07
3.3814e-07
3.36152e-07
2.21329e-07
2.2132e-07
2.21317e-07
2.21136e-07
3.37127e-07
3.35323e-07
2.21195e-07
2.22204e-07
2.21073e-07
2.21985e-07
2.2079e-07
2.20695e-07
2.20645e-07
3.38782e-07
3.37294e-07
2.21193e-07
2.21436e-07
2.20963e-07
3.34812e-07
3.37269e-07
3.35365e-07
2.21263e-07
2.21057e-07
2.2124e-07
2.2089e-07
3.36177e-07
3.34602e-07
2.20995e-07
2.21917e-07
2.20875e-07
2.21707e-07
2.20603e-07
2.20456e-07
2.20455e-07
3.38252e-07
3.36663e-07
2.20879e-07
2.21369e-07
2.20691e-07
3.33727e-07
3.36581e-07
3.34998e-07
2.21238e-07
2.20804e-07
2.21158e-07
2.20671e-07
3.35404e-07
3.34005e-07
2.20834e-07
2.21651e-07
2.20697e-07
2.21507e-07
2.20408e-07
2.20284e-07
2.20261e-07
3.37829e-07
3.36157e-07
2.20615e-07
2.21282e-07
2.20464e-07
3.32918e-07
3.36195e-07
3.34744e-07
2.21102e-07
2.20635e-07
2.21051e-07
2.20514e-07
3.351e-07
3.33808e-07
2.20615e-07
2.21466e-07
2.20571e-07
2.21393e-07
2.20182e-07
2.20196e-07
2.20136e-07
3.37353e-07
3.35982e-07
2.204e-07
2.21177e-07
2.20267e-07
3.32548e-07
3.35949e-07
3.34667e-07
2.21009e-07
2.20471e-07
2.20942e-07
2.20408e-07
3.34667e-07
3.33555e-07
2.20528e-07
2.21358e-07
2.20513e-07
2.213e-07
2.20132e-07
2.20147e-07
2.20154e-07
3.37196e-07
3.35923e-07
2.20205e-07
2.21055e-07
2.20104e-07
3.32609e-07
3.35907e-07
3.34609e-07
2.20933e-07
2.2035e-07
2.20884e-07
2.20378e-07
3.34426e-07
3.33502e-07
2.20509e-07
2.2128e-07
2.20494e-07
2.21202e-07
2.20159e-07
2.2016e-07
2.20185e-07
3.36847e-07
3.35688e-07
2.20035e-07
2.20971e-07
2.19998e-07
3.3272e-07
3.35867e-07
3.34793e-07
2.20828e-07
2.20388e-07
2.20814e-07
2.20397e-07
3.34392e-07
3.33421e-07
2.20491e-07
2.21176e-07
2.20454e-07
2.2108e-07
2.20195e-07
2.20152e-07
2.20247e-07
3.36812e-07
3.35536e-07
2.19987e-07
2.20877e-07
2.19959e-07
3.33014e-07
3.35643e-07
3.34618e-07
2.20814e-07
2.20399e-07
2.20799e-07
2.20436e-07
3.34329e-07
3.33511e-07
2.2042e-07
2.21041e-07
2.20385e-07
2.20972e-07
2.20232e-07
2.20143e-07
2.20293e-07
3.36761e-07
3.35774e-07
2.19953e-07
2.20848e-07
2.19931e-07
3.33233e-07
3.35817e-07
3.34571e-07
2.20803e-07
2.20419e-07
2.20788e-07
2.2046e-07
3.34421e-07
3.3369e-07
2.20353e-07
2.20916e-07
2.20328e-07
2.20909e-07
2.20283e-07
2.202e-07
2.2034e-07
3.36685e-07
3.35865e-07
2.19922e-07
2.20879e-07
2.19862e-07
3.33349e-07
3.35638e-07
3.34336e-07
2.20744e-07
2.2046e-07
2.20731e-07
2.20471e-07
3.34604e-07
3.33748e-07
2.20319e-07
2.20894e-07
2.20269e-07
2.20939e-07
2.20336e-07
2.20253e-07
2.20414e-07
3.36777e-07
3.36041e-07
2.19807e-07
2.20931e-07
2.19822e-07
3.33534e-07
3.35447e-07
3.34169e-07
2.20706e-07
2.20473e-07
2.20688e-07
2.20464e-07
3.34897e-07
3.33928e-07
2.20241e-07
2.20943e-07
2.20148e-07
2.21009e-07
2.20412e-07
2.20339e-07
2.20458e-07
3.37242e-07
3.36492e-07
2.19827e-07
2.21039e-07
2.19877e-07
3.33846e-07
3.35076e-07
3.33974e-07
2.20675e-07
2.20459e-07
2.20633e-07
2.20436e-07
3.35175e-07
3.34362e-07
2.20116e-07
2.21009e-07
2.20029e-07
2.21114e-07
2.20462e-07
2.20401e-07
2.20484e-07
3.37571e-07
3.36771e-07
2.19848e-07
2.21128e-07
2.19895e-07
3.34085e-07
3.34838e-07
3.33937e-07
2.20638e-07
2.20435e-07
2.20618e-07
2.20331e-07
3.35303e-07
3.34535e-07
2.19973e-07
2.21119e-07
2.19941e-07
2.21186e-07
2.20449e-07
2.20468e-07
2.20429e-07
3.38042e-07
3.3719e-07
2.19896e-07
2.21203e-07
2.19911e-07
3.34225e-07
3.34822e-07
3.33932e-07
2.2056e-07
2.20271e-07
2.20553e-07
2.20164e-07
3.35428e-07
3.34526e-07
2.19939e-07
2.21194e-07
2.19965e-07
2.21271e-07
2.20412e-07
2.20524e-07
2.20416e-07
3.3825e-07
3.37601e-07
2.19903e-07
2.2126e-07
2.19904e-07
3.3434e-07
3.35121e-07
3.33968e-07
2.20522e-07
2.20091e-07
2.20459e-07
2.20033e-07
3.35707e-07
3.34726e-07
2.1998e-07
2.21262e-07
2.20031e-07
2.21306e-07
2.20439e-07
2.20606e-07
2.20513e-07
3.38525e-07
3.37844e-07
2.19904e-07
2.21318e-07
2.19953e-07
3.34751e-07
3.35223e-07
3.3421e-07
2.20448e-07
2.19976e-07
2.20374e-07
2.19979e-07
3.3568e-07
3.34879e-07
2.20055e-07
2.21307e-07
2.20213e-07
2.21315e-07
2.20475e-07
2.20742e-07
2.2063e-07
3.38768e-07
3.38118e-07
2.19968e-07
2.21401e-07
2.20077e-07
3.35105e-07
3.35447e-07
3.34635e-07
2.2031e-07
2.19972e-07
2.203e-07
2.20019e-07
3.35792e-07
3.34929e-07
2.20188e-07
2.21319e-07
2.20352e-07
2.21316e-07
2.20638e-07
2.20828e-07
2.20766e-07
3.39063e-07
3.38257e-07
2.20092e-07
2.21462e-07
2.20299e-07
3.35461e-07
3.35611e-07
3.34972e-07
2.20299e-07
2.20022e-07
2.20328e-07
2.20159e-07
3.36085e-07
3.35056e-07
2.20391e-07
2.2127e-07
2.20578e-07
2.21294e-07
2.20767e-07
2.20913e-07
2.20874e-07
3.39444e-07
3.38315e-07
2.20334e-07
2.21492e-07
2.20543e-07
3.35846e-07
3.35909e-07
3.35426e-07
2.20332e-07
2.2017e-07
2.20376e-07
2.20323e-07
3.36334e-07
3.35419e-07
2.20563e-07
2.21317e-07
2.20729e-07
2.21421e-07
2.20869e-07
2.20985e-07
2.20906e-07
3.39637e-07
3.38454e-07
2.20575e-07
2.21479e-07
2.2082e-07
3.36161e-07
3.36344e-07
3.35685e-07
2.20395e-07
2.20338e-07
2.20454e-07
2.20523e-07
3.36686e-07
3.35987e-07
2.20756e-07
2.21443e-07
2.209e-07
2.21519e-07
2.20884e-07
2.21071e-07
2.20873e-07
3.39711e-07
3.38572e-07
2.2086e-07
2.21394e-07
2.21054e-07
3.3624e-07
3.37015e-07
3.36202e-07
2.20475e-07
2.2054e-07
2.20604e-07
2.20699e-07
3.3695e-07
3.36328e-07
2.20894e-07
2.21554e-07
2.21028e-07
2.21672e-07
2.20864e-07
2.21118e-07
2.20828e-07
3.39532e-07
3.38621e-07
2.21077e-07
2.21316e-07
2.21265e-07
3.36597e-07
3.37464e-07
3.36736e-07
2.2061e-07
2.20739e-07
2.20747e-07
2.20847e-07
3.37276e-07
3.36632e-07
2.21029e-07
2.21675e-07
2.21128e-07
2.21805e-07
2.20813e-07
2.21191e-07
2.20827e-07
3.39501e-07
3.38361e-07
2.2127e-07
2.21255e-07
2.21309e-07
3.36507e-07
3.37701e-07
3.36986e-07
2.20754e-07
2.20861e-07
2.20891e-07
2.20964e-07
3.3786e-07
3.37224e-07
2.21132e-07
2.21822e-07
2.21227e-07
2.21952e-07
2.20829e-07
2.2127e-07
2.20821e-07
3.39491e-07
3.38301e-07
2.21301e-07
2.21136e-07
2.21266e-07
3.3627e-07
3.38205e-07
3.37343e-07
2.20911e-07
2.20952e-07
2.21071e-07
2.20995e-07
3.38168e-07
3.37411e-07
2.21236e-07
2.21947e-07
2.21331e-07
2.22026e-07
2.20794e-07
2.21258e-07
2.20753e-07
3.39242e-07
3.3805e-07
2.21242e-07
2.20927e-07
2.21193e-07
3.36177e-07
3.38653e-07
3.37828e-07
2.21066e-07
2.20991e-07
2.2122e-07
2.20975e-07
3.38309e-07
3.37292e-07
2.21333e-07
2.22028e-07
2.2145e-07
2.22072e-07
2.20727e-07
2.21212e-07
2.20714e-07
3.39199e-07
3.37947e-07
2.21148e-07
2.20728e-07
2.21144e-07
3.36359e-07
3.39046e-07
3.3841e-07
2.21224e-07
2.20937e-07
2.21363e-07
2.20893e-07
3.38464e-07
3.37371e-07
2.21443e-07
2.22059e-07
2.21532e-07
2.22107e-07
2.20703e-07
2.21097e-07
2.20735e-07
3.39194e-07
3.37766e-07
2.21102e-07
2.20587e-07
2.21092e-07
3.36462e-07
3.39376e-07
3.38611e-07
2.21372e-07
2.20872e-07
2.21471e-07
2.20822e-07
3.38284e-07
3.37343e-07
2.2153e-07
2.22111e-07
2.21586e-07
2.22152e-07
2.20718e-07
2.21037e-07
2.20741e-07
3.39011e-07
3.37773e-07
2.21076e-07
2.20561e-07
2.21073e-07
3.36474e-07
3.39514e-07
3.38751e-07
2.2147e-07
2.20822e-07
2.21558e-07
2.20813e-07
3.38247e-07
3.37216e-07
2.21588e-07
2.22159e-07
2.21616e-07
2.22251e-07
2.20754e-07
2.21022e-07
2.20818e-07
3.38844e-07
3.37971e-07
2.21056e-07
2.20693e-07
2.21077e-07
3.36461e-07
3.39761e-07
3.38937e-07
2.21556e-07
2.20756e-07
2.21619e-07
2.20776e-07
3.38077e-07
3.36914e-07
2.21599e-07
2.22252e-07
2.2162e-07
2.22322e-07
2.20814e-07
2.20957e-07
2.20899e-07
3.3916e-07
3.38244e-07
2.21058e-07
2.20849e-07
2.2111e-07
3.36713e-07
3.39849e-07
3.38814e-07
2.21623e-07
2.20778e-07
2.21663e-07
2.208e-07
3.38047e-07
3.36853e-07
2.21614e-07
2.22332e-07
2.21597e-07
2.22387e-07
2.20905e-07
2.20911e-07
2.20977e-07
3.39224e-07
3.38426e-07
2.21111e-07
2.21034e-07
2.21159e-07
3.36748e-07
3.39987e-07
3.39025e-07
2.21664e-07
2.20816e-07
2.21703e-07
2.20887e-07
3.3811e-07
3.36826e-07
2.21582e-07
2.2239e-07
2.21584e-07
2.22436e-07
2.20992e-07
2.2089e-07
2.21032e-07
3.39411e-07
3.38599e-07
2.2115e-07
2.2121e-07
2.21229e-07
3.37011e-07
3.39924e-07
3.38925e-07
2.21705e-07
2.20853e-07
2.21732e-07
2.20943e-07
3.37971e-07
3.36841e-07
2.21591e-07
2.22441e-07
2.21599e-07
2.22522e-07
2.21025e-07
2.20876e-07
2.21032e-07
3.3948e-07
3.38602e-07
2.21222e-07
2.21303e-07
2.21283e-07
3.37142e-07
3.40094e-07
3.38978e-07
2.21717e-07
2.20931e-07
2.21731e-07
2.2103e-07
3.37988e-07
3.36722e-07
2.216e-07
2.2251e-07
2.21603e-07
2.22577e-07
2.21032e-07
2.208e-07
2.21029e-07
3.39833e-07
3.38951e-07
2.21278e-07
2.21394e-07
2.21308e-07
3.37323e-07
3.39931e-07
3.38909e-07
2.21721e-07
2.21036e-07
2.2173e-07
2.21097e-07
3.37986e-07
3.36899e-07
2.21604e-07
2.22591e-07
2.21616e-07
2.22659e-07
2.21012e-07
2.20685e-07
2.20992e-07
3.39892e-07
3.39128e-07
2.21302e-07
2.21477e-07
2.21313e-07
3.37411e-07
3.40096e-07
3.39073e-07
2.21722e-07
2.21109e-07
2.21725e-07
2.21174e-07
3.37847e-07
3.36973e-07
2.21619e-07
2.22658e-07
2.21614e-07
2.227e-07
2.21002e-07
2.20603e-07
2.2109e-07
3.4007e-07
3.39219e-07
2.21316e-07
2.21556e-07
2.21324e-07
3.37475e-07
3.40036e-07
3.38979e-07
2.21726e-07
2.21209e-07
2.21707e-07
2.21297e-07
3.37884e-07
3.37196e-07
2.21615e-07
2.22699e-07
2.21585e-07
2.22712e-07
2.21121e-07
2.20603e-07
2.21216e-07
3.40492e-07
3.39565e-07
2.21333e-07
2.21639e-07
2.21356e-07
3.37602e-07
3.39926e-07
3.3893e-07
2.21712e-07
2.21326e-07
2.21675e-07
2.21436e-07
3.38148e-07
3.3769e-07
2.21585e-07
2.22721e-07
2.21549e-07
2.2272e-07
2.21233e-07
2.20658e-07
2.21303e-07
3.40524e-07
3.3945e-07
2.21375e-07
2.21698e-07
2.21442e-07
3.37894e-07
3.39791e-07
3.38747e-07
2.21657e-07
2.21456e-07
2.21612e-07
2.21519e-07
3.38624e-07
3.37984e-07
2.2155e-07
2.22726e-07
2.21516e-07
2.22701e-07
2.21296e-07
2.20746e-07
2.21311e-07
3.40623e-07
3.39275e-07
2.21451e-07
2.21724e-07
2.21512e-07
3.38025e-07
3.39858e-07
3.38556e-07
2.21616e-07
2.21539e-07
2.21534e-07
2.2152e-07
3.38907e-07
3.3818e-07
2.21519e-07
2.22702e-07
2.21459e-07
2.22633e-07
2.21321e-07
2.2082e-07
2.21246e-07
3.40591e-07
3.38837e-07
2.21544e-07
2.21687e-07
2.21574e-07
3.38349e-07
3.39419e-07
3.35753e-07
2.21535e-07
2.21523e-07
2.21197e-07
2.21224e-07
3.39007e-07
3.3626e-07
2.2146e-07
2.22631e-07
2.21126e-07
2.2226e-07
2.2123e-07
2.20703e-07
2.2088e-07
3.40094e-07
3.36814e-07
2.21589e-07
2.21398e-07
2.21378e-07
3.3657e-07
3.3571e-07
3.24478e-07
2.2135e-07
2.21382e-07
2.14506e-07
2.14508e-07
3.36047e-07
3.24943e-07
2.2128e-07
2.2241e-07
2.14494e-07
2.15495e-07
2.2104e-07
2.14226e-07
2.14237e-07
3.36574e-07
3.2535e-07
2.21557e-07
2.14657e-07
2.14749e-07
3.2486e-07
3.12829e-07
2.07307e-07
2.07163e-07
3.13307e-07
2.07118e-07
2.08165e-07
1.20343e-07
1.20484e-07
1.20367e-07
2.07195e-07
3.13573e-07
2.07633e-07
3.37942e-06
8.7579e-06
3.38119e-06
1.82888e-05
1.82923e-05
3.40368e-06
8.75959e-06
1.23172e-07
1.23128e-07
1.23087e-07
1.23162e-07
1.2331e-07
1.23129e-07
1.03104e-06
2.67336e-06
1.50452e-07
2.2154e-07
2.67246e-06
1.50452e-07
1.03124e-06
1.83684e-05
1.0339e-06
1.50491e-07
2.21627e-07
1.50501e-07
2.67153e-06
1.03407e-06
4.98513e-06
4.99179e-06
3.37798e-07
4.98515e-06
4.9901e-06
3.38781e-06
8.75719e-06
3.38528e-06
8.7581e-06
1.82908e-05
1.82954e-05
3.40058e-06
8.76002e-06
3.40401e-06
8.75956e-06
1.23169e-07
1.2331e-07
1.23131e-07
1.23097e-07
1.23159e-07
1.23311e-07
1.23135e-07
1.03144e-06
2.67374e-06
1.50459e-07
2.21481e-07
1.03223e-06
2.67254e-06
1.50461e-07
1.83652e-05
1.83672e-05
1.03087e-06
1.50529e-07
2.67284e-06
2.21628e-07
1.0328e-06
1.5053e-07
2.67169e-06
4.98745e-06
4.98908e-06
3.3782e-07
4.98691e-06
4.98794e-06
3.38597e-06
8.758e-06
3.38873e-06
8.75781e-06
1.82927e-05
1.82961e-05
3.40161e-06
8.75828e-06
3.40271e-06
8.7581e-06
1.23159e-07
1.23315e-07
1.23137e-07
1.23117e-07
1.23155e-07
1.23315e-07
1.23144e-07
1.03056e-06
2.67386e-06
1.50475e-07
2.21427e-07
1.03163e-06
2.67277e-06
1.50475e-07
1.83595e-05
1.83589e-05
1.02782e-06
1.50536e-07
2.67274e-06
2.21638e-07
1.02959e-06
1.50534e-07
2.67156e-06
4.98799e-06
4.98935e-06
3.37827e-07
4.98559e-06
4.9888e-06
3.38715e-06
8.758e-06
3.38788e-06
8.75798e-06
1.82938e-05
1.82969e-05
3.39962e-06
8.75763e-06
3.40126e-06
8.75778e-06
1.23156e-07
1.23317e-07
1.23144e-07
1.23135e-07
1.23149e-07
1.2331e-07
1.23138e-07
1.03028e-06
2.67384e-06
1.50479e-07
2.2136e-07
1.03091e-06
2.67259e-06
1.50476e-07
1.83461e-05
1.83424e-05
1.02638e-06
1.50535e-07
2.67297e-06
2.2164e-07
1.02708e-06
1.5053e-07
2.67188e-06
4.9863e-06
4.99296e-06
3.37538e-07
4.98543e-06
4.99158e-06
3.38569e-06
8.75845e-06
3.38305e-06
8.75967e-06
1.82939e-05
1.82981e-05
3.39446e-06
8.7593e-06
3.3969e-06
8.76044e-06
1.23153e-07
1.23312e-07
1.23139e-07
1.23148e-07
1.2314e-07
1.23297e-07
1.23128e-07
1.03025e-06
2.67383e-06
1.50474e-07
2.21188e-07
1.031e-06
2.67285e-06
1.5046e-07
1.83291e-05
1.83246e-05
1.0278e-06
1.5053e-07
2.67307e-06
2.21598e-07
1.02776e-06
1.50523e-07
2.67189e-06
4.98696e-06
4.99001e-06
3.37268e-07
4.98598e-06
4.98873e-06
3.38963e-06
8.75938e-06
3.3892e-06
8.75923e-06
1.82956e-05
1.82982e-05
3.39267e-06
8.76016e-06
3.39438e-06
8.7602e-06
1.23137e-07
1.233e-07
1.23127e-07
1.23154e-07
1.23117e-07
1.23277e-07
1.23113e-07
1.0288e-06
2.67488e-06
1.50444e-07
2.20976e-07
1.03016e-06
2.67421e-06
1.50421e-07
1.83107e-05
1.83086e-05
1.02929e-06
1.50521e-07
2.67321e-06
2.21518e-07
1.02951e-06
1.50504e-07
2.67218e-06
4.98595e-06
4.98676e-06
3.36548e-07
4.98445e-06
4.98371e-06
3.39394e-06
8.75889e-06
3.39439e-06
8.75921e-06
1.82922e-05
1.82937e-05
3.38927e-06
8.75997e-06
3.39375e-06
8.76034e-06
1.23116e-07
1.23277e-07
1.23114e-07
1.23143e-07
1.23095e-07
1.23257e-07
1.23084e-07
1.02773e-06
2.67599e-06
1.50392e-07
2.20759e-07
1.02857e-06
2.67486e-06
1.50364e-07
1.83003e-05
1.83018e-05
1.02933e-06
1.50494e-07
2.67343e-06
2.21446e-07
1.02997e-06
1.50475e-07
2.67227e-06
4.9865e-06
4.98456e-06
3.35474e-07
4.9842e-06
4.98468e-06
3.39498e-06
8.75914e-06
3.39741e-06
8.75939e-06
1.82876e-05
1.82898e-05
3.38885e-06
8.75997e-06
3.39063e-06
8.76014e-06
1.23086e-07
1.23252e-07
1.23083e-07
1.23128e-07
1.23051e-07
1.23222e-07
1.23049e-07
1.02691e-06
2.67596e-06
1.50332e-07
2.20514e-07
1.02782e-06
2.67466e-06
1.50304e-07
1.82968e-05
1.82996e-05
1.02916e-06
1.50468e-07
2.67341e-06
2.21386e-07
1.02973e-06
1.50453e-07
2.67226e-06
4.98442e-06
4.98616e-06
3.34187e-07
4.98325e-06
4.98681e-06
3.38919e-06
8.75935e-06
3.39434e-06
8.75971e-06
1.82858e-05
1.82893e-05
3.38533e-06
8.7598e-06
3.38928e-06
8.76128e-06
1.23048e-07
1.23227e-07
1.23045e-07
1.23102e-07
1.2302e-07
1.23201e-07
1.23016e-07
1.02734e-06
2.67579e-06
1.50284e-07
2.20313e-07
1.02778e-06
2.67442e-06
1.50261e-07
1.82949e-05
1.82971e-05
1.02948e-06
1.50445e-07
2.67363e-06
2.21323e-07
1.03013e-06
1.50428e-07
2.67256e-06
4.98472e-06
4.98995e-06
3.33281e-07
4.98441e-06
4.99013e-06
3.38039e-06
8.75974e-06
3.38855e-06
8.76022e-06
1.82879e-05
1.82922e-05
3.38313e-06
8.7613e-06
3.38384e-06
8.76155e-06
1.2302e-07
1.23199e-07
1.23005e-07
1.23083e-07
1.22994e-07
1.2317e-07
1.22978e-07
1.02754e-06
2.67526e-06
1.50251e-07
2.20199e-07
1.02795e-06
2.67383e-06
1.50246e-07
1.82934e-05
1.82957e-05
1.02951e-06
1.50415e-07
2.67385e-06
2.2121e-07
1.03021e-06
1.50397e-07
2.67275e-06
4.98581e-06
4.98961e-06
3.3277e-07
4.9858e-06
4.98749e-06
3.37875e-06
8.76026e-06
3.37851e-06
8.76015e-06
1.82906e-05
1.82933e-05
3.38405e-06
8.76147e-06
3.38441e-06
8.76188e-06
1.22994e-07
1.23173e-07
1.22981e-07
1.23067e-07
1.22983e-07
1.23149e-07
1.22962e-07
1.02872e-06
2.67506e-06
1.50257e-07
2.20141e-07
1.02896e-06
2.67387e-06
1.5026e-07
1.82899e-05
1.82924e-05
1.02932e-06
1.5038e-07
2.67417e-06
2.21099e-07
1.03018e-06
1.5036e-07
2.67316e-06
4.98786e-06
4.98779e-06
3.32432e-07
4.98833e-06
4.98832e-06
3.37514e-06
8.76031e-06
3.37996e-06
8.76079e-06
1.82896e-05
1.82924e-05
3.38362e-06
8.76181e-06
3.38568e-06
8.76182e-06
1.22983e-07
1.23142e-07
1.2296e-07
1.2305e-07
1.22984e-07
1.23121e-07
1.22949e-07
1.02955e-06
2.67521e-06
1.5029e-07
2.20152e-07
1.03004e-06
2.67408e-06
1.50293e-07
1.82871e-05
1.8291e-05
1.0282e-06
1.5034e-07
2.67469e-06
2.20981e-07
1.02933e-06
1.5032e-07
2.67369e-06
4.99035e-06
4.99157e-06
3.3262e-07
4.99011e-06
4.99148e-06
3.37392e-06
8.76072e-06
3.37503e-06
8.76225e-06
1.82904e-05
1.8294e-05
3.38201e-06
8.76122e-06
3.38241e-06
8.76118e-06
1.22984e-07
1.23116e-07
1.2295e-07
1.23033e-07
1.22984e-07
1.23088e-07
1.22939e-07
1.02899e-06
2.67544e-06
1.50318e-07
2.20153e-07
1.03001e-06
2.6742e-06
1.50316e-07
1.82884e-05
1.82927e-05
1.02739e-06
1.50305e-07
2.67501e-06
2.20877e-07
1.02824e-06
1.50287e-07
2.67392e-06
4.99188e-06
4.99314e-06
3.3283e-07
4.991e-06
4.99116e-06
3.37821e-06
8.76254e-06
3.37175e-06
8.76241e-06
1.82894e-05
1.82908e-05
3.38382e-06
8.76121e-06
3.38375e-06
8.76194e-06
1.22984e-07
1.23092e-07
1.2294e-07
1.23014e-07
1.22982e-07
1.23074e-07
1.22928e-07
1.02764e-06
2.67535e-06
1.50313e-07
2.20136e-07
1.0288e-06
2.67403e-06
1.50298e-07
1.82921e-05
1.82967e-05
1.02716e-06
1.50276e-07
2.67511e-06
2.20849e-07
1.02783e-06
1.50258e-07
2.67396e-06
4.99039e-06
4.98985e-06
3.33121e-07
4.98959e-06
4.98956e-06
3.3776e-06
8.76158e-06
3.38297e-06
8.76157e-06
1.82862e-05
1.82895e-05
3.38299e-06
8.76167e-06
3.38538e-06
8.76163e-06
1.22984e-07
1.23072e-07
1.22927e-07
1.22995e-07
1.22983e-07
1.23065e-07
1.22918e-07
1.02721e-06
2.67506e-06
1.50274e-07
2.20163e-07
1.02808e-06
2.67374e-06
1.50254e-07
1.8294e-05
1.82967e-05
1.02719e-06
1.50246e-07
2.67501e-06
2.20853e-07
1.02779e-06
1.50223e-07
2.67363e-06
4.9907e-06
4.99066e-06
3.33105e-07
4.98932e-06
4.99015e-06
3.38516e-06
8.76148e-06
3.38443e-06
8.76178e-06
1.8286e-05
1.82896e-05
3.38004e-06
8.75929e-06
3.38465e-06
8.75913e-06
1.22985e-07
1.23068e-07
1.2292e-07
1.22982e-07
1.2298e-07
1.23066e-07
1.22919e-07
1.02349e-06
2.67492e-06
1.50235e-07
2.20223e-07
1.0255e-06
2.67378e-06
1.50215e-07
1.82916e-05
1.82941e-05
1.02759e-06
1.50214e-07
2.67451e-06
2.20904e-07
1.02805e-06
1.50206e-07
2.67328e-06
4.99109e-06
4.99202e-06
3.33419e-07
4.99057e-06
4.9923e-06
3.38894e-06
8.76169e-06
3.38803e-06
8.76242e-06
1.82865e-05
1.82869e-05
3.38482e-06
8.75885e-06
3.38714e-06
8.75915e-06
1.22982e-07
1.23069e-07
1.2292e-07
1.22969e-07
1.22974e-07
1.23076e-07
1.22924e-07
1.02342e-06
2.67514e-06
1.50203e-07
2.20275e-07
1.02376e-06
2.67391e-06
1.50189e-07
1.82911e-05
1.82949e-05
1.02821e-06
1.50213e-07
2.6743e-06
2.20982e-07
1.02857e-06
1.50217e-07
2.67292e-06
4.99309e-06
4.99411e-06
3.33691e-07
4.99393e-06
4.99068e-06
3.39068e-06
8.76306e-06
3.39083e-06
8.76217e-06
1.82819e-05
1.82848e-05
3.38702e-06
8.75911e-06
3.39141e-06
8.75943e-06
1.22977e-07
1.2308e-07
1.22924e-07
1.2296e-07
1.22966e-07
1.23083e-07
1.22929e-07
1.02274e-06
2.67499e-06
1.50182e-07
2.20357e-07
1.02401e-06
2.67373e-06
1.50164e-07
1.8293e-05
1.82973e-05
1.02806e-06
1.50242e-07
2.67362e-06
2.21088e-07
1.02885e-06
1.50246e-07
2.67231e-06
4.99248e-06
4.98785e-06
3.33915e-07
4.98994e-06
4.98622e-06
3.38575e-06
8.76081e-06
3.3887e-06
8.76038e-06
1.8283e-05
1.82874e-05
3.38535e-06
8.75958e-06
3.38651e-06
8.75971e-06
1.22965e-07
1.23096e-07
1.2293e-07
1.2295e-07
1.22952e-07
1.23096e-07
1.22927e-07
1.01987e-06
2.67462e-06
1.50145e-07
2.20445e-07
1.02155e-06
2.67305e-06
1.50122e-07
1.82959e-05
1.82999e-05
1.02724e-06
1.50264e-07
2.67354e-06
2.21172e-07
1.02818e-06
1.50265e-07
2.67246e-06
4.99128e-06
4.98657e-06
3.34118e-07
4.99108e-06
4.98433e-06
3.39379e-06
8.75826e-06
3.39472e-06
8.75806e-06
1.82855e-05
1.82886e-05
3.38684e-06
8.76081e-06
3.38745e-06
8.76139e-06
1.22949e-07
1.231e-07
1.22927e-07
1.22944e-07
1.22929e-07
1.23099e-07
1.22924e-07
1.01995e-06
2.67374e-06
1.50107e-07
2.20494e-07
1.0201e-06
2.67238e-06
1.50098e-07
1.82973e-05
1.83011e-05
1.02674e-06
1.50269e-07
2.67377e-06
2.21234e-07
1.02754e-06
1.50268e-07
2.67261e-06
4.99258e-06
4.98644e-06
3.34214e-07
4.99118e-06
4.98658e-06
3.39312e-06
8.75728e-06
3.39537e-06
8.75705e-06
1.82818e-05
1.8284e-05
3.38074e-06
8.76164e-06
3.38366e-06
8.76243e-06
1.22937e-07
1.23104e-07
1.2293e-07
1.22943e-07
1.22928e-07
1.23101e-07
1.22933e-07
1.02061e-06
2.67348e-06
1.501e-07
2.20561e-07
1.0211e-06
2.67217e-06
1.50101e-07
1.8298e-05
1.83016e-05
1.02737e-06
1.50278e-07
2.67379e-06
2.213e-07
1.02769e-06
1.50281e-07
2.67257e-06
4.99019e-06
4.9892e-06
3.34557e-07
4.98782e-06
4.98886e-06
3.38898e-06
8.75649e-06
3.39045e-06
8.75639e-06
1.82818e-05
1.8285e-05
3.38674e-06
8.76216e-06
3.38715e-06
8.76204e-06
1.22927e-07
1.23109e-07
1.22934e-07
1.22944e-07
1.22934e-07
1.23112e-07
1.22953e-07
1.02064e-06
2.67338e-06
1.50127e-07
2.20661e-07
1.02121e-06
2.67218e-06
1.50133e-07
1.82995e-05
1.83028e-05
1.02847e-06
1.50307e-07
2.67346e-06
2.2136e-07
1.02868e-06
1.50313e-07
2.672e-06
4.98907e-06
4.99004e-06
3.34886e-07
4.98941e-06
4.98888e-06
3.38622e-06
8.75599e-06
3.38708e-06
8.75616e-06
1.8281e-05
1.82834e-05
3.38448e-06
8.7607e-06
3.38804e-06
8.75991e-06
1.22939e-07
1.23121e-07
1.22971e-07
1.2296e-07
1.22954e-07
1.23126e-07
1.22995e-07
1.02186e-06
2.6735e-06
1.5019e-07
2.20777e-07
1.02204e-06
2.67226e-06
1.50199e-07
1.82997e-05
1.83033e-05
1.03039e-06
1.50357e-07
2.67281e-06
2.2143e-07
1.03025e-06
1.50362e-07
2.6715e-06
4.99109e-06
4.98787e-06
3.35256e-07
4.99043e-06
4.98655e-06
3.38858e-06
8.75628e-06
3.38921e-06
8.7566e-06
1.82816e-05
1.82865e-05
3.38342e-06
8.75877e-06
3.38407e-06
8.75875e-06
1.22961e-07
1.23127e-07
1.23003e-07
1.22981e-07
1.22986e-07
1.23138e-07
1.23034e-07
1.02338e-06
2.67322e-06
1.50259e-07
2.20868e-07
1.02346e-06
2.67178e-06
1.50265e-07
1.83009e-05
1.83044e-05
1.03145e-06
1.50413e-07
2.67264e-06
2.21483e-07
1.03193e-06
1.50419e-07
2.67143e-06
4.99221e-06
4.98626e-06
3.35624e-07
4.99073e-06
4.98521e-06
3.38884e-06
8.75664e-06
3.39061e-06
8.75764e-06
1.82855e-05
1.82886e-05
3.38711e-06
8.75835e-06
3.38781e-06
8.75857e-06
1.22994e-07
1.2314e-07
1.23041e-07
1.23007e-07
1.23016e-07
1.23152e-07
1.23066e-07
1.02329e-06
2.67257e-06
1.50315e-07
2.20963e-07
1.02436e-06
2.67089e-06
1.5032e-07
1.83028e-05
1.83057e-05
1.0309e-06
1.50456e-07
2.67261e-06
2.21484e-07
1.03181e-06
1.5046e-07
2.67146e-06
4.99059e-06
4.9873e-06
3.35987e-07
4.98938e-06
4.98757e-06
3.38706e-06
8.75884e-06
3.38922e-06
8.75923e-06
1.82833e-05
1.82851e-05
3.3862e-06
8.7598e-06
3.38763e-06
8.76009e-06
1.23026e-07
1.23154e-07
1.2308e-07
1.23029e-07
1.23047e-07
1.23154e-07
1.23092e-07
1.02359e-06
2.6715e-06
1.50359e-07
2.21033e-07
1.02398e-06
2.67008e-06
1.50364e-07
1.83022e-05
1.83067e-05
1.03077e-06
1.50476e-07
2.67283e-06
2.21425e-07
1.03135e-06
1.50475e-07
2.67184e-06
4.98822e-06
4.98892e-06
3.36153e-07
4.9865e-06
4.98774e-06
3.38355e-06
8.75945e-06
3.38806e-06
8.75982e-06
1.82821e-05
1.82863e-05
3.38856e-06
8.75993e-06
3.38855e-06
8.76075e-06
1.23062e-07
1.2316e-07
1.23096e-07
1.23055e-07
1.23074e-07
1.23164e-07
1.2311e-07
1.02562e-06
2.67098e-06
1.50386e-07
2.21078e-07
1.02551e-06
2.66971e-06
1.50385e-07
1.83062e-05
1.83111e-05
1.03042e-06
1.50478e-07
2.67295e-06
2.21332e-07
1.03124e-06
1.50474e-07
2.67153e-06
4.98548e-06
4.98937e-06
3.36255e-07
4.98441e-06
4.9886e-06
3.38322e-06
8.75927e-06
3.38461e-06
8.75941e-06
1.82853e-05
1.82898e-05
3.39017e-06
8.76169e-06
3.39084e-06
8.76257e-06
1.23084e-07
1.23165e-07
1.23111e-07
1.23067e-07
1.23096e-07
1.23169e-07
1.2311e-07
1.02765e-06
2.67133e-06
1.50389e-07
2.21159e-07
1.02766e-06
2.67057e-06
1.5038e-07
1.83101e-05
1.83146e-05
1.03091e-06
1.50471e-07
2.6724e-06
2.21267e-07
1.03131e-06
1.50467e-07
2.67124e-06
4.98642e-06
4.99074e-06
3.36654e-07
4.98471e-06
4.99024e-06
3.38547e-06
8.76022e-06
3.38456e-06
8.76157e-06
1.82858e-05
1.82875e-05
3.39174e-06
8.76259e-06
3.39046e-06
8.7626e-06
1.23097e-07
1.23173e-07
1.23109e-07
1.23084e-07
1.23105e-07
1.23175e-07
1.231e-07
1.02773e-06
2.67241e-06
1.5037e-07
2.21222e-07
1.02846e-06
2.67135e-06
1.50353e-07
1.83132e-05
1.83175e-05
1.03193e-06
1.5047e-07
2.67226e-06
2.21177e-07
1.03225e-06
1.50467e-07
2.67088e-06
4.98379e-06
4.98777e-06
3.36368e-07
4.98316e-06
4.98559e-06
3.38699e-06
8.76286e-06
3.38679e-06
8.76387e-06
1.82815e-05
1.82839e-05
3.38984e-06
8.76265e-06
3.39412e-06
8.76343e-06