/*--------------------------------*- C++ -*----------------------------------*\
| =========                 |                                                 |
| \\      /  F ield         | OpenFOAM: The Open Source CFD Toolbox           |
|  \\    /   O peration     | Version:  v2012                                 |
|   \\  /    A nd           | Website:  www.openfoam.com                      |
|    \\/     M anipulation  |                                                 |
\*---------------------------------------------------------------------------*/
FoamFile
{
    version     2.0;
    format      ascii;
    class       volScalarField;
    location    "100";
    object      k;
}
// * * * * * * * * * * * * * * * * * * * * * * * * * * * * * * * * * * * * * //

dimensions      [0 2 -2 0 0 0 0];


internalField   nonuniform List<scalar> 
85864
(
1.42581e-05
1.58652e-05
1.77596e-05
1.58487e-05
1.58386e-05
1.59003e-05
1.78029e-05
6.92625e-05
6.92629e-05
4.95049e-05
1.42668e-05
6.93529e-05
4.36455e-05
6.91823e-05
6.9166e-05
5.73588e-05
5.72658e-05
4.35995e-05
4.35523e-05
1.44975e-05
2.7261e-05
6.94106e-05
5.01987e-05
1.45329e-05
4.38344e-05
2.76348e-05
5.77768e-05
5.7349e-05
6.91794e-05
6.92756e-05
6.92641e-05
7.23163e-05
7.03912e-05
7.04004e-05
6.92646e-05
7.23302e-05
7.23399e-05
7.03871e-05
6.9148e-05
4.94702e-05
5.60302e-05
6.87066e-05
5.60429e-05
6.87105e-05
6.91436e-05
6.93613e-05
6.91918e-05
6.91738e-05
5.4859e-05
3.72372e-05
5.73616e-05
6.80171e-05
6.80202e-05
3.7232e-05
5.48442e-05
5.46438e-05
3.6703e-05
5.72619e-05
6.79901e-05
6.79906e-05
3.67397e-05
5.46442e-05
8.613e-05
7.2173e-05
7.21631e-05
7.21851e-05
7.21749e-05
8.61287e-05
7.05878e-05
6.94115e-05
7.2447e-05
7.24486e-05
7.05736e-05
6.94509e-05
5.01981e-05
6.88741e-05
5.68346e-05
6.88773e-05
5.68242e-05
6.94465e-05
5.49556e-05
3.73934e-05
5.77744e-05
6.81369e-05
6.81388e-05
3.73871e-05
5.49581e-05
5.48981e-05
3.72322e-05
5.73512e-05
6.80045e-05
3.72265e-05
6.80068e-05
5.49001e-05
8.60823e-05
7.21699e-05
7.21526e-05
7.21822e-05
7.21649e-05
8.60882e-05
6.91878e-05
6.92775e-05
1.41881e-05
3.57774e-05
2.39498e-05
2.38564e-05
1.77467e-05
2.39341e-05
2.38436e-05
3.57894e-05
3.58206e-05
2.40184e-05
2.39642e-05
1.77838e-05
2.39485e-05
2.40025e-05
3.58287e-05
1.41927e-05
2.18213e-05
2.67584e-05
4.36415e-05
3.76604e-05
2.67447e-05
3.76665e-05
2.18365e-05
2.17474e-05
2.67299e-05
4.35924e-05
3.7523e-05
3.75075e-05
2.67156e-05
2.17673e-05
2.16815e-05
2.66197e-05
4.35471e-05
3.73748e-05
3.73659e-05
2.66096e-05
2.16961e-05
1.89098e-05
2.72566e-05
3.07046e-05
1.7618e-05
3.06797e-05
1.76097e-05
1.89243e-05
2.19942e-05
2.69045e-05
4.38279e-05
3.79818e-05
3.79705e-05
2.68903e-05
2.20103e-05
1.92438e-05
2.76282e-05
1.77531e-05
3.16509e-05
1.77442e-05
3.16426e-05
1.92603e-05
1.5862e-05
1.77334e-05
1.42597e-05
1.58618e-05
1.58662e-05
1.77366e-05
1.42605e-05
1.58614e-05
1.58678e-05
1.77414e-05
1.42615e-05
1.58589e-05
1.58685e-05
1.77368e-05
1.4262e-05
1.58536e-05
1.58671e-05
1.77195e-05
1.42621e-05
1.5845e-05
1.58646e-05
1.76854e-05
1.4262e-05
1.58364e-05
1.58616e-05
1.76805e-05
1.42614e-05
1.58269e-05
1.5859e-05
1.75831e-05
1.42602e-05
1.58184e-05
1.58558e-05
1.75762e-05
1.42584e-05
1.5813e-05
1.58508e-05
1.75727e-05
1.4257e-05
1.58108e-05
1.58466e-05
1.75616e-05
1.42561e-05
1.58113e-05
1.5842e-05
1.75651e-05
1.42555e-05
1.58113e-05
1.58388e-05
1.75738e-05
1.4255e-05
1.5811e-05
1.58372e-05
1.75885e-05
1.42539e-05
1.58118e-05
1.58376e-05
1.76014e-05
1.42531e-05
1.58141e-05
1.58391e-05
1.75994e-05
1.42523e-05
1.58166e-05
1.58418e-05
1.76154e-05
1.42514e-05
1.58193e-05
1.58447e-05
1.7621e-05
1.42506e-05
1.58215e-05
1.58471e-05
1.76277e-05
1.42495e-05
1.58227e-05
1.58484e-05
1.76323e-05
1.42478e-05
1.58236e-05
1.58496e-05
1.76391e-05
1.42462e-05
1.58267e-05
1.58516e-05
1.76479e-05
1.42466e-05
1.58312e-05
1.5854e-05
1.76603e-05
1.42478e-05
1.58354e-05
1.58564e-05
1.76678e-05
1.42496e-05
1.5839e-05
1.58574e-05
1.76857e-05
1.42516e-05
1.58431e-05
1.58556e-05
1.76889e-05
1.42529e-05
1.5846e-05
1.58527e-05
1.76756e-05
1.42543e-05
1.58485e-05
1.58508e-05
1.76888e-05
1.42553e-05
1.58512e-05
1.58476e-05
1.76607e-05
1.42562e-05
1.58528e-05
1.58408e-05
1.76519e-05
1.42569e-05
1.58511e-05
1.58333e-05
1.7672e-05
1.4258e-05
1.58471e-05
1.58265e-05
1.76829e-05
1.4259e-05
1.58436e-05
1.58223e-05
1.76786e-05
1.42598e-05
1.58426e-05
1.58229e-05
1.76892e-05
1.42606e-05
1.58419e-05
1.5828e-05
1.76918e-05
1.42611e-05
1.58393e-05
1.58341e-05
1.76967e-05
1.42616e-05
1.58377e-05
1.58418e-05
1.77078e-05
1.42619e-05
1.58368e-05
1.58479e-05
1.7685e-05
1.42621e-05
1.58338e-05
1.58518e-05
1.77085e-05
1.42622e-05
1.58299e-05
1.58552e-05
1.7717e-05
1.42623e-05
1.58267e-05
1.58585e-05
1.77198e-05
1.42622e-05
1.58265e-05
1.58618e-05
1.7728e-05
1.4262e-05
1.58279e-05
1.58655e-05
1.77332e-05
1.42616e-05
1.58317e-05
1.58689e-05
1.7741e-05
1.42611e-05
1.58365e-05
1.58706e-05
1.77391e-05
1.42611e-05
1.58412e-05
1.58718e-05
1.77067e-05
1.42609e-05
1.58479e-05
1.58706e-05
1.76915e-05
1.42453e-05
1.5556e-05
1.55686e-05
1.74113e-05
1.77387e-05
1.58625e-05
1.58489e-05
1.5863e-05
1.77372e-05
1.77443e-05
1.58439e-05
1.59015e-05
1.58353e-05
1.58619e-05
1.58373e-05
1.77753e-05
1.58616e-05
1.58658e-05
1.58632e-05
1.77239e-05
1.77638e-05
1.77506e-05
1.5849e-05
1.58631e-05
1.58497e-05
1.58637e-05
1.77396e-05
1.77386e-05
1.58458e-05
1.59021e-05
1.58509e-05
1.59032e-05
1.58383e-05
1.58617e-05
1.58415e-05
1.78056e-05
1.77635e-05
1.58635e-05
1.58678e-05
1.58653e-05
1.77261e-05
1.77678e-05
1.77417e-05
1.58503e-05
1.5864e-05
1.58511e-05
1.58643e-05
1.77606e-05
1.77319e-05
1.58529e-05
1.5903e-05
1.58564e-05
1.59013e-05
1.58425e-05
1.58601e-05
1.58429e-05
1.77546e-05
1.77642e-05
1.58659e-05
1.58685e-05
1.58668e-05
1.77225e-05
1.776e-05
1.77316e-05
1.58517e-05
1.58641e-05
1.58532e-05
1.58629e-05
1.77275e-05
1.77009e-05
1.58576e-05
1.59004e-05
1.58591e-05
1.58962e-05
1.58423e-05
1.58554e-05
1.58405e-05
1.77594e-05
1.77549e-05
1.58668e-05
1.58677e-05
1.58652e-05
1.76891e-05
1.77452e-05
1.77098e-05
1.58537e-05
1.58625e-05
1.58549e-05
1.58594e-05
1.77227e-05
1.76682e-05
1.58592e-05
1.58948e-05
1.58575e-05
1.58894e-05
1.58402e-05
1.58477e-05
1.58377e-05
1.77682e-05
1.77275e-05
1.58646e-05
1.58655e-05
1.58601e-05
1.76692e-05
1.77243e-05
1.76774e-05
1.58551e-05
1.58581e-05
1.58547e-05
1.58533e-05
1.76633e-05
1.76379e-05
1.58566e-05
1.58875e-05
1.58517e-05
1.588e-05
1.58372e-05
1.58388e-05
1.58347e-05
1.77227e-05
1.76928e-05
1.58587e-05
1.58624e-05
1.58521e-05
1.76678e-05
1.76927e-05
1.7633e-05
1.58544e-05
1.58514e-05
1.58524e-05
1.58441e-05
1.76321e-05
1.76199e-05
1.58502e-05
1.58776e-05
1.58447e-05
1.58697e-05
1.58332e-05
1.58294e-05
1.5827e-05
1.77088e-05
1.76914e-05
1.58495e-05
1.58598e-05
1.58404e-05
1.75906e-05
1.76501e-05
1.76453e-05
1.58518e-05
1.58418e-05
1.58495e-05
1.58345e-05
1.76345e-05
1.75965e-05
1.58431e-05
1.58672e-05
1.58374e-05
1.58605e-05
1.58245e-05
1.58204e-05
1.58177e-05
1.77153e-05
1.76978e-05
1.58373e-05
1.58571e-05
1.58284e-05
1.75633e-05
1.7659e-05
1.76362e-05
1.58488e-05
1.58324e-05
1.58462e-05
1.58266e-05
1.761e-05
1.75873e-05
1.58354e-05
1.58582e-05
1.58297e-05
1.58526e-05
1.58156e-05
1.5814e-05
1.58098e-05
1.76891e-05
1.76406e-05
1.58258e-05
1.58522e-05
1.58191e-05
1.75582e-05
1.76316e-05
1.76048e-05
1.58453e-05
1.5825e-05
1.58422e-05
1.58209e-05
1.76065e-05
1.75859e-05
1.58281e-05
1.58515e-05
1.58249e-05
1.58493e-05
1.58084e-05
1.58111e-05
1.58058e-05
1.76659e-05
1.76708e-05
1.58172e-05
1.58478e-05
1.58112e-05
1.75494e-05
1.76252e-05
1.76203e-05
1.58414e-05
1.58198e-05
1.5839e-05
1.58171e-05
1.76019e-05
1.75854e-05
1.58245e-05
1.58488e-05
1.58239e-05
1.58466e-05
1.58057e-05
1.58109e-05
1.58063e-05
1.76649e-05
1.76419e-05
1.58093e-05
1.58432e-05
1.58048e-05
1.754e-05
1.76359e-05
1.76204e-05
1.58385e-05
1.58169e-05
1.58365e-05
1.58164e-05
1.75995e-05
1.75771e-05
1.58239e-05
1.58459e-05
1.5823e-05
1.58436e-05
1.58065e-05
1.58114e-05
1.58079e-05
1.76728e-05
1.76624e-05
1.58039e-05
1.58395e-05
1.58022e-05
1.75549e-05
1.76483e-05
1.76347e-05
1.58361e-05
1.58165e-05
1.5835e-05
1.58168e-05
1.7594e-05
1.75744e-05
1.58228e-05
1.58427e-05
1.58212e-05
1.58404e-05
1.58086e-05
1.5811e-05
1.58107e-05
1.76771e-05
1.76676e-05
1.58019e-05
1.58374e-05
1.58015e-05
1.75687e-05
1.76489e-05
1.76234e-05
1.58349e-05
1.58168e-05
1.58345e-05
1.58175e-05
1.76002e-05
1.75876e-05
1.58208e-05
1.58399e-05
1.58192e-05
1.58383e-05
1.58116e-05
1.58114e-05
1.58134e-05
1.76843e-05
1.76702e-05
1.58015e-05
1.58374e-05
1.58005e-05
1.758e-05
1.7649e-05
1.76187e-05
1.58343e-05
1.5818e-05
1.58337e-05
1.58191e-05
1.76096e-05
1.75983e-05
1.58189e-05
1.58381e-05
1.58181e-05
1.58377e-05
1.58141e-05
1.58134e-05
1.58158e-05
1.76897e-05
1.76754e-05
1.57999e-05
1.58387e-05
1.57982e-05
1.75835e-05
1.76082e-05
1.761e-05
1.58331e-05
1.58197e-05
1.58314e-05
1.582e-05
1.76171e-05
1.7602e-05
1.58176e-05
1.58377e-05
1.58152e-05
1.58383e-05
1.58166e-05
1.5816e-05
1.58188e-05
1.76958e-05
1.76825e-05
1.57981e-05
1.5841e-05
1.57984e-05
1.75921e-05
1.76036e-05
1.75992e-05
1.58309e-05
1.582e-05
1.5829e-05
1.58203e-05
1.76242e-05
1.76199e-05
1.58139e-05
1.58387e-05
1.58099e-05
1.58404e-05
1.58197e-05
1.58187e-05
1.58211e-05
1.77055e-05
1.76972e-05
1.57987e-05
1.5844e-05
1.57995e-05
1.76059e-05
1.76146e-05
1.76047e-05
1.58286e-05
1.58202e-05
1.58274e-05
1.58189e-05
1.76338e-05
1.76217e-05
1.58086e-05
1.58412e-05
1.58051e-05
1.5843e-05
1.58215e-05
1.5821e-05
1.58211e-05
1.77127e-05
1.77045e-05
1.57999e-05
1.58466e-05
1.58005e-05
1.76132e-05
1.76215e-05
1.76127e-05
1.58271e-05
1.58181e-05
1.58259e-05
1.58135e-05
1.764e-05
1.76306e-05
1.58044e-05
1.58436e-05
1.5803e-05
1.5845e-05
1.58207e-05
1.58224e-05
1.58191e-05
1.77257e-05
1.77173e-05
1.58007e-05
1.58482e-05
1.58008e-05
1.76175e-05
1.76263e-05
1.7614e-05
1.58257e-05
1.58117e-05
1.58236e-05
1.58062e-05
1.76446e-05
1.76273e-05
1.5803e-05
1.58455e-05
1.58036e-05
1.58466e-05
1.58188e-05
1.58232e-05
1.58179e-05
1.77334e-05
1.77247e-05
1.58006e-05
1.58494e-05
1.57996e-05
1.76212e-05
1.76283e-05
1.76166e-05
1.58227e-05
1.58047e-05
1.58194e-05
1.5801e-05
1.76509e-05
1.76321e-05
1.58038e-05
1.58471e-05
1.58048e-05
1.58473e-05
1.58179e-05
1.58257e-05
1.58186e-05
1.7743e-05
1.77336e-05
1.57995e-05
1.58511e-05
1.57998e-05
1.76236e-05
1.76297e-05
1.76171e-05
1.58184e-05
1.58004e-05
1.58151e-05
1.57995e-05
1.76524e-05
1.76422e-05
1.58056e-05
1.58473e-05
1.58084e-05
1.58473e-05
1.58195e-05
1.58301e-05
1.58228e-05
1.77512e-05
1.7741e-05
1.58004e-05
1.58534e-05
1.58035e-05
1.7645e-05
1.76368e-05
1.76236e-05
1.58144e-05
1.57997e-05
1.5813e-05
1.58006e-05
1.76588e-05
1.76452e-05
1.58102e-05
1.5847e-05
1.58147e-05
1.58461e-05
1.58243e-05
1.58344e-05
1.58283e-05
1.77546e-05
1.77427e-05
1.58056e-05
1.58559e-05
1.58109e-05
1.76534e-05
1.76392e-05
1.76347e-05
1.5813e-05
1.58015e-05
1.58139e-05
1.58044e-05
1.76657e-05
1.76551e-05
1.58167e-05
1.58461e-05
1.58214e-05
1.58463e-05
1.58298e-05
1.5838e-05
1.58336e-05
1.77596e-05
1.77453e-05
1.58134e-05
1.58574e-05
1.58204e-05
1.76619e-05
1.76522e-05
1.76345e-05
1.58145e-05
1.58065e-05
1.5816e-05
1.58119e-05
1.76696e-05
1.76639e-05
1.58236e-05
1.58468e-05
1.58287e-05
1.58493e-05
1.58347e-05
1.58421e-05
1.58359e-05
1.77594e-05
1.77448e-05
1.58231e-05
1.58563e-05
1.58305e-05
1.7672e-05
1.7665e-05
1.76595e-05
1.58168e-05
1.58138e-05
1.58185e-05
1.58193e-05
1.76774e-05
1.76773e-05
1.58304e-05
1.58508e-05
1.58346e-05
1.58541e-05
1.58358e-05
1.58454e-05
1.58344e-05
1.77587e-05
1.77377e-05
1.58329e-05
1.58533e-05
1.58394e-05
1.76585e-05
1.76754e-05
1.76622e-05
1.58194e-05
1.58214e-05
1.58223e-05
1.58272e-05
1.76929e-05
1.76878e-05
1.58362e-05
1.58553e-05
1.584e-05
1.58584e-05
1.58337e-05
1.58479e-05
1.58324e-05
1.77552e-05
1.7724e-05
1.58413e-05
1.58513e-05
1.58468e-05
1.76605e-05
1.76906e-05
1.76867e-05
1.58239e-05
1.5829e-05
1.58277e-05
1.58331e-05
1.77049e-05
1.76996e-05
1.58414e-05
1.58595e-05
1.58443e-05
1.5863e-05
1.58324e-05
1.58505e-05
1.58319e-05
1.77179e-05
1.77006e-05
1.58487e-05
1.58489e-05
1.58499e-05
1.76656e-05
1.77062e-05
1.76977e-05
1.58295e-05
1.58344e-05
1.58334e-05
1.58368e-05
1.77141e-05
1.77083e-05
1.58454e-05
1.58643e-05
1.58476e-05
1.58679e-05
1.58316e-05
1.58527e-05
1.58301e-05
1.7696e-05
1.77177e-05
1.58491e-05
1.58428e-05
1.58462e-05
1.76218e-05
1.7715e-05
1.77196e-05
1.58352e-05
1.58379e-05
1.58392e-05
1.58383e-05
1.77234e-05
1.77054e-05
1.58488e-05
1.58691e-05
1.58517e-05
1.58712e-05
1.58295e-05
1.58518e-05
1.58278e-05
1.77331e-05
1.77244e-05
1.58453e-05
1.58349e-05
1.58434e-05
1.76466e-05
1.77343e-05
1.77311e-05
1.58411e-05
1.58379e-05
1.58452e-05
1.58352e-05
1.77006e-05
1.76988e-05
1.5853e-05
1.58719e-05
1.58559e-05
1.58725e-05
1.58277e-05
1.5848e-05
1.58271e-05
1.77391e-05
1.77164e-05
1.58429e-05
1.58282e-05
1.58419e-05
1.76699e-05
1.77471e-05
1.77303e-05
1.58469e-05
1.58346e-05
1.58507e-05
1.58325e-05
1.77168e-05
1.77079e-05
1.58571e-05
1.58727e-05
1.58597e-05
1.58733e-05
1.58271e-05
1.58443e-05
1.58276e-05
1.77124e-05
1.77153e-05
1.58417e-05
1.58231e-05
1.58406e-05
1.76593e-05
1.77639e-05
1.77456e-05
1.58522e-05
1.5832e-05
1.58554e-05
1.58305e-05
1.77148e-05
1.77002e-05
1.58607e-05
1.58737e-05
1.58624e-05
1.58748e-05
1.58278e-05
1.58426e-05
1.58284e-05
1.77141e-05
1.7705e-05
1.58405e-05
1.58222e-05
1.58405e-05
1.76714e-05
1.77687e-05
1.77609e-05
1.58567e-05
1.58304e-05
1.58591e-05
1.58297e-05
1.7721e-05
1.76998e-05
1.5863e-05
1.58756e-05
1.58637e-05
1.58775e-05
1.58288e-05
1.58422e-05
1.58302e-05
1.77293e-05
1.77261e-05
1.58405e-05
1.58261e-05
1.58407e-05
1.76776e-05
1.77682e-05
1.77448e-05
1.58602e-05
1.58296e-05
1.58618e-05
1.58292e-05
1.76935e-05
1.76892e-05
1.58641e-05
1.58785e-05
1.58638e-05
1.58804e-05
1.58312e-05
1.58398e-05
1.58333e-05
1.77484e-05
1.77341e-05
1.58409e-05
1.5832e-05
1.58415e-05
1.76724e-05
1.77647e-05
1.77597e-05
1.58626e-05
1.58294e-05
1.58642e-05
1.58302e-05
1.77044e-05
1.76829e-05
1.58638e-05
1.58812e-05
1.58638e-05
1.58828e-05
1.58346e-05
1.58378e-05
1.58368e-05
1.7754e-05
1.77436e-05
1.5842e-05
1.58394e-05
1.58434e-05
1.76922e-05
1.77734e-05
1.77503e-05
1.5865e-05
1.58308e-05
1.58663e-05
1.58317e-05
1.77076e-05
1.76934e-05
1.58639e-05
1.58836e-05
1.58642e-05
1.58849e-05
1.58378e-05
1.5837e-05
1.5839e-05
1.77579e-05
1.77511e-05
1.58442e-05
1.58462e-05
1.58454e-05
1.76673e-05
1.77825e-05
1.77639e-05
1.58671e-05
1.58324e-05
1.58677e-05
1.58338e-05
1.77069e-05
1.76909e-05
1.58645e-05
1.58857e-05
1.58649e-05
1.58872e-05
1.58394e-05
1.58343e-05
1.58394e-05
1.7765e-05
1.77544e-05
1.5846e-05
1.58508e-05
1.58473e-05
1.76937e-05
1.7783e-05
1.7738e-05
1.58679e-05
1.58348e-05
1.58676e-05
1.58366e-05
1.76974e-05
1.7689e-05
1.58651e-05
1.58881e-05
1.5865e-05
1.58901e-05
1.58394e-05
1.58305e-05
1.58382e-05
1.77684e-05
1.77597e-05
1.58478e-05
1.58542e-05
1.5848e-05
1.76837e-05
1.777e-05
1.77666e-05
1.58677e-05
1.58378e-05
1.58677e-05
1.58399e-05
1.77026e-05
1.76919e-05
1.58652e-05
1.58912e-05
1.58654e-05
1.58929e-05
1.58382e-05
1.58269e-05
1.58381e-05
1.77751e-05
1.77687e-05
1.58482e-05
1.58574e-05
1.58482e-05
1.77063e-05
1.77586e-05
1.77383e-05
1.58678e-05
1.5841e-05
1.58675e-05
1.58429e-05
1.77084e-05
1.76921e-05
1.58656e-05
1.58939e-05
1.58652e-05
1.58951e-05
1.58387e-05
1.58261e-05
1.58409e-05
1.77864e-05
1.77732e-05
1.58483e-05
1.58605e-05
1.58484e-05
1.77077e-05
1.77549e-05
1.77454e-05
1.58676e-05
1.58443e-05
1.5867e-05
1.58474e-05
1.77065e-05
1.77007e-05
1.58652e-05
1.58959e-05
1.58642e-05
1.58966e-05
1.58428e-05
1.5827e-05
1.58461e-05
1.77963e-05
1.77752e-05
1.58489e-05
1.58641e-05
1.58495e-05
1.77159e-05
1.77741e-05
1.77441e-05
1.58673e-05
1.58494e-05
1.58664e-05
1.58531e-05
1.77191e-05
1.77204e-05
1.58643e-05
1.58972e-05
1.58633e-05
1.58975e-05
1.58481e-05
1.58299e-05
1.58503e-05
1.77917e-05
1.77824e-05
1.58505e-05
1.58676e-05
1.58525e-05
1.7728e-05
1.77676e-05
1.77494e-05
1.58668e-05
1.58555e-05
1.58657e-05
1.58588e-05
1.77389e-05
1.76843e-05
1.58638e-05
1.58982e-05
1.58631e-05
1.58976e-05
1.58517e-05
1.58344e-05
1.58523e-05
1.77965e-05
1.77223e-05
1.58542e-05
1.58695e-05
1.58566e-05
1.77216e-05
1.7741e-05
1.77077e-05
1.58662e-05
1.58603e-05
1.58643e-05
1.58612e-05
1.76907e-05
1.76673e-05
1.58638e-05
1.58983e-05
1.58624e-05
1.5897e-05
1.58532e-05
1.58389e-05
1.58515e-05
1.77477e-05
1.77301e-05
1.58589e-05
1.58706e-05
1.58622e-05
1.76884e-05
1.77142e-05
1.76829e-05
1.58649e-05
1.58625e-05
1.58602e-05
1.58602e-05
1.76959e-05
1.76556e-05
1.58631e-05
1.58976e-05
1.58589e-05
1.58925e-05
1.58518e-05
1.58437e-05
1.58465e-05
1.77258e-05
1.76839e-05
1.58642e-05
1.58676e-05
1.58636e-05
1.76697e-05
1.76864e-05
1.75778e-05
1.58628e-05
1.58633e-05
1.57314e-05
1.57331e-05
1.76854e-05
1.7584e-05
1.58617e-05
1.58953e-05
1.5731e-05
1.57616e-05
1.5849e-05
1.57241e-05
1.57177e-05
1.77063e-05
1.76081e-05
1.5867e-05
1.57399e-05
1.57395e-05
1.75777e-05
1.74002e-05
1.55576e-05
1.55609e-05
1.74118e-05
1.55576e-05
1.55866e-05
1.42401e-05
1.4246e-05
1.42396e-05
1.55489e-05
1.74359e-05
1.5568e-05
4.90376e-05
6.92641e-05
4.91117e-05
6.91689e-05
6.91771e-05
4.95433e-05
6.92654e-05
1.42621e-05
1.42598e-05
1.42592e-05
1.42621e-05
1.42679e-05
1.42604e-05
2.72491e-05
4.36653e-05
1.45047e-05
1.58618e-05
4.36607e-05
1.45047e-05
2.72502e-05
6.93615e-05
2.72405e-05
1.45065e-05
1.58653e-05
1.4507e-05
4.36454e-05
2.72915e-05
5.72662e-05
5.74091e-05
1.7723e-05
5.72751e-05
5.73847e-05
4.92103e-05
6.92601e-05
4.91249e-05
6.92624e-05
6.91733e-05
6.91838e-05
4.94078e-05
6.92699e-05
4.94252e-05
6.92681e-05
1.42618e-05
1.42677e-05
1.42602e-05
1.42599e-05
1.4262e-05
1.4268e-05
1.42609e-05
2.72592e-05
4.36651e-05
1.45056e-05
1.58618e-05
2.72704e-05
4.36569e-05
1.45054e-05
6.93536e-05
6.93582e-05
2.70489e-05
1.45086e-05
4.36551e-05
1.58668e-05
2.70664e-05
1.45087e-05
4.36488e-05
5.72819e-05
5.73615e-05
1.77138e-05
5.73048e-05
5.73635e-05
4.91693e-05
6.9263e-05
4.92283e-05
6.9262e-05
6.91779e-05
6.91863e-05
4.94822e-05
6.92613e-05
4.94708e-05
6.92601e-05
1.4262e-05
1.4268e-05
1.42608e-05
1.42609e-05
1.42617e-05
1.42681e-05
1.42612e-05
2.72377e-05
4.36623e-05
1.45063e-05
1.58613e-05
2.72563e-05
4.3656e-05
1.4506e-05
6.93394e-05
6.93379e-05
2.69867e-05
1.45089e-05
4.36519e-05
1.5868e-05
2.69918e-05
1.45086e-05
4.36453e-05
5.72865e-05
5.73614e-05
1.77185e-05
5.72379e-05
5.73797e-05
4.91644e-05
6.92629e-05
4.91548e-05
6.92631e-05
6.91804e-05
6.9188e-05
4.93284e-05
6.9257e-05
4.94263e-05
6.92579e-05
1.42616e-05
1.42681e-05
1.42612e-05
1.42618e-05
1.42614e-05
1.4268e-05
1.42611e-05
2.72286e-05
4.36564e-05
1.45062e-05
1.58582e-05
2.72365e-05
4.36471e-05
1.45062e-05
6.93076e-05
6.92976e-05
2.69024e-05
1.45085e-05
4.36561e-05
1.58683e-05
2.68972e-05
1.45084e-05
4.36507e-05
5.72691e-05
5.74147e-05
1.77181e-05
5.72603e-05
5.73779e-05
4.92366e-05
6.92641e-05
4.91809e-05
6.92681e-05
6.91797e-05
6.91893e-05
4.92751e-05
6.92603e-05
4.92744e-05
6.92702e-05
1.42613e-05
1.42679e-05
1.42611e-05
1.42621e-05
1.42612e-05
1.42677e-05
1.42608e-05
2.72266e-05
4.36513e-05
1.45059e-05
1.58522e-05
2.72359e-05
4.36464e-05
1.45055e-05
6.92653e-05
6.92548e-05
2.69411e-05
1.45084e-05
4.36566e-05
1.58668e-05
2.69728e-05
1.45084e-05
4.36492e-05
5.72904e-05
5.73411e-05
1.76604e-05
5.72431e-05
5.73442e-05
4.93254e-05
6.92702e-05
4.92489e-05
6.92694e-05
6.91845e-05
6.91914e-05
4.9294e-05
6.92713e-05
4.93208e-05
6.92719e-05
1.42606e-05
1.42672e-05
1.42604e-05
1.42621e-05
1.426e-05
1.42664e-05
1.426e-05
2.71949e-05
4.36621e-05
1.45044e-05
1.58431e-05
2.72199e-05
4.36604e-05
1.45038e-05
6.92198e-05
6.92141e-05
2.70729e-05
1.45083e-05
4.36577e-05
1.58639e-05
2.70603e-05
1.45079e-05
4.36531e-05
5.72427e-05
5.72663e-05
1.76738e-05
5.72396e-05
5.72052e-05
4.9272e-05
6.92676e-05
4.92341e-05
6.92695e-05
6.91777e-05
6.91813e-05
4.92292e-05
6.92704e-05
4.92917e-05
6.92725e-05
1.42599e-05
1.42663e-05
1.42595e-05
1.42616e-05
1.42589e-05
1.42654e-05
1.42583e-05
2.71694e-05
4.36706e-05
1.45024e-05
1.58341e-05
2.71813e-05
4.36618e-05
1.45012e-05
6.91914e-05
6.91953e-05
2.72085e-05
1.45073e-05
4.36603e-05
1.5861e-05
2.72054e-05
1.45067e-05
4.36541e-05
5.72759e-05
5.7232e-05
1.76303e-05
5.72087e-05
5.726e-05
4.92264e-05
6.92698e-05
4.93795e-05
6.92709e-05
6.91657e-05
6.91708e-05
4.92313e-05
6.92719e-05
4.92343e-05
6.92724e-05
1.42582e-05
1.42648e-05
1.42581e-05
1.42604e-05
1.42568e-05
1.42636e-05
1.42564e-05
2.71488e-05
4.36612e-05
1.44995e-05
1.58249e-05
2.71631e-05
4.36514e-05
1.44982e-05
6.91824e-05
6.91895e-05
2.71526e-05
1.45059e-05
4.36592e-05
1.58585e-05
2.71436e-05
1.45055e-05
4.3652e-05
5.72279e-05
5.72318e-05
1.7563e-05
5.72348e-05
5.7269e-05
4.9157e-05
6.92704e-05
4.93153e-05
6.92724e-05
6.916e-05
6.91681e-05
4.90764e-05
6.92707e-05
4.92013e-05
6.92751e-05
1.42563e-05
1.42633e-05
1.42555e-05
1.42586e-05
1.42545e-05
1.42621e-05
1.42538e-05
2.71626e-05
4.36566e-05
1.44965e-05
1.58167e-05
2.71624e-05
4.36475e-05
1.44955e-05
6.91789e-05
6.91848e-05
2.71883e-05
1.45047e-05
4.3659e-05
1.58548e-05
2.71887e-05
1.45038e-05
4.36534e-05
5.72521e-05
5.7313e-05
1.75612e-05
5.72502e-05
5.73054e-05
4.8972e-05
6.92728e-05
4.92212e-05
6.92752e-05
6.91643e-05
6.91752e-05
4.90468e-05
6.9277e-05
4.90528e-05
6.92783e-05
1.42537e-05
1.42612e-05
1.42532e-05
1.4257e-05
1.42526e-05
1.42605e-05
1.42512e-05
2.71699e-05
4.36498e-05
1.44946e-05
1.58122e-05
2.71718e-05
4.36403e-05
1.44942e-05
6.91747e-05
6.91814e-05
2.71992e-05
1.45025e-05
4.36596e-05
1.58498e-05
2.72078e-05
1.45014e-05
4.36532e-05
5.7215e-05
5.72815e-05
1.75474e-05
5.72619e-05
5.72745e-05
4.90258e-05
6.92764e-05
4.8971e-05
6.92756e-05
6.91716e-05
6.9179e-05
4.9029e-05
6.92779e-05
4.90524e-05
6.92795e-05
1.4252e-05
1.42602e-05
1.42502e-05
1.42562e-05
1.42517e-05
1.42592e-05
1.42499e-05
2.72017e-05
4.36471e-05
1.4495e-05
1.58108e-05
2.72e-05
4.36404e-05
1.44951e-05
6.91674e-05
6.91737e-05
2.71923e-05
1.44999e-05
4.36618e-05
1.58454e-05
2.72049e-05
1.44987e-05
4.3657e-05
5.7279e-05
5.72326e-05
1.75508e-05
5.72998e-05
5.72716e-05
4.90457e-05
6.9276e-05
4.90045e-05
6.92786e-05
6.91692e-05
6.91761e-05
4.90238e-05
6.92802e-05
4.90735e-05
6.92803e-05
1.42516e-05
1.42584e-05
1.42493e-05
1.42555e-05
1.4252e-05
1.42577e-05
1.42492e-05
2.7215e-05
4.36492e-05
1.44962e-05
1.58113e-05
2.72201e-05
4.36443e-05
1.44962e-05
6.91595e-05
6.91686e-05
2.71705e-05
1.44975e-05
4.3668e-05
1.58413e-05
2.71886e-05
1.44965e-05
4.36646e-05
5.73253e-05
5.73083e-05
1.75538e-05
5.73313e-05
5.73121e-05
4.89436e-05
6.92794e-05
4.893e-05
6.92846e-05
6.91701e-05
6.9179e-05
4.90214e-05
6.92776e-05
4.89148e-05
6.9277e-05
1.42517e-05
1.42573e-05
1.4249e-05
1.42553e-05
1.42519e-05
1.42568e-05
1.42489e-05
2.71974e-05
4.3652e-05
1.44968e-05
1.58113e-05
2.72156e-05
4.36444e-05
1.44968e-05
6.91632e-05
6.91734e-05
2.7153e-05
1.44956e-05
4.36732e-05
1.58384e-05
2.71653e-05
1.44952e-05
4.36677e-05
5.73418e-05
5.73244e-05
1.75635e-05
5.73514e-05
5.72842e-05
4.89886e-05
6.92881e-05
4.8988e-05
6.92879e-05
6.91696e-05
6.91738e-05
4.90587e-05
6.92746e-05
4.90284e-05
6.92795e-05
1.42517e-05
1.42566e-05
1.42489e-05
1.42541e-05
1.42518e-05
1.42561e-05
1.42487e-05
2.7164e-05
4.36508e-05
1.44967e-05
1.58111e-05
2.71848e-05
4.36437e-05
1.44964e-05
6.91708e-05
6.91828e-05
2.71523e-05
1.44944e-05
4.36733e-05
1.58372e-05
2.71608e-05
1.4494e-05
4.36675e-05
5.72806e-05
5.72456e-05
1.75731e-05
5.73093e-05
5.72757e-05
4.91158e-05
6.92832e-05
4.91045e-05
6.92829e-05
6.91609e-05
6.9169e-05
4.9104e-05
6.928e-05
4.91434e-05
6.92801e-05
1.42519e-05
1.42552e-05
1.42485e-05
1.42531e-05
1.4252e-05
1.42554e-05
1.42481e-05
2.71037e-05
4.36502e-05
1.44957e-05
1.58122e-05
2.71672e-05
4.36435e-05
1.44952e-05
6.91773e-05
6.91844e-05
2.71512e-05
1.44937e-05
4.36736e-05
1.5838e-05
2.71592e-05
1.4493e-05
4.36646e-05
5.73286e-05
5.72826e-05
1.75803e-05
5.73142e-05
5.72565e-05
4.91139e-05
6.92815e-05
4.91178e-05
6.92838e-05
6.91611e-05
6.9169e-05
4.9216e-05
6.92679e-05
4.91387e-05
6.92668e-05
1.4252e-05
1.42556e-05
1.4248e-05
1.42526e-05
1.42519e-05
1.42557e-05
1.42482e-05
2.67787e-05
4.36526e-05
1.44941e-05
1.58148e-05
2.69153e-05
4.36483e-05
1.44935e-05
6.91716e-05
6.91775e-05
2.71669e-05
1.44929e-05
4.3668e-05
1.58397e-05
2.71663e-05
1.44929e-05
4.36618e-05
5.73395e-05
5.73138e-05
1.75851e-05
5.73526e-05
5.7293e-05
4.92274e-05
6.92834e-05
4.91625e-05
6.92854e-05
6.9163e-05
6.91651e-05
4.92477e-05
6.92646e-05
4.92758e-05
6.92664e-05
1.42519e-05
1.42559e-05
1.42484e-05
1.42514e-05
1.42517e-05
1.4256e-05
1.42484e-05
2.68547e-05
4.36582e-05
1.44927e-05
1.58173e-05
2.68749e-05
4.36515e-05
1.44921e-05
6.91697e-05
6.9179e-05
2.71752e-05
1.44936e-05
4.3668e-05
1.58426e-05
2.7179e-05
1.44934e-05
4.36593e-05
5.73503e-05
5.732e-05
1.75984e-05
5.73619e-05
5.72746e-05
4.92547e-05
6.92891e-05
4.92252e-05
6.92862e-05
6.91507e-05
6.9158e-05
4.92346e-05
6.92668e-05
4.91828e-05
6.92679e-05
1.42517e-05
1.42561e-05
1.42485e-05
1.42506e-05
1.42511e-05
1.42561e-05
1.42485e-05
2.68558e-05
4.36579e-05
1.44915e-05
1.582e-05
2.69376e-05
4.36521e-05
1.44911e-05
6.91745e-05
6.91849e-05
2.7163e-05
1.44941e-05
4.36583e-05
1.58455e-05
2.7177e-05
1.4494e-05
4.36505e-05
5.734e-05
5.7216e-05
1.76119e-05
5.73199e-05
5.72256e-05
4.93588e-05
6.92799e-05
4.9358e-05
6.92777e-05
6.91527e-05
6.9163e-05
4.91342e-05
6.92689e-05
4.91278e-05
6.92703e-05
1.42507e-05
1.4256e-05
1.42485e-05
1.42496e-05
1.42492e-05
1.42553e-05
1.42476e-05
2.67536e-05
4.36568e-05
1.44892e-05
1.58218e-05
2.67593e-05
4.36459e-05
1.44877e-05
6.91813e-05
6.91923e-05
2.71338e-05
1.44942e-05
4.36593e-05
1.58476e-05
2.71537e-05
1.4494e-05
4.36549e-05
5.73277e-05
5.72434e-05
1.76185e-05
5.73616e-05
5.71975e-05
4.92516e-05
6.92672e-05
4.93189e-05
6.92657e-05
6.91595e-05
6.91675e-05
4.91553e-05
6.92734e-05
4.91505e-05
6.92778e-05
1.42486e-05
1.4255e-05
1.42468e-05
1.4248e-05
1.42464e-05
1.42538e-05
1.42459e-05
2.67248e-05
4.36471e-05
1.44856e-05
1.58229e-05
2.6749e-05
4.36398e-05
1.44844e-05
6.91857e-05
6.91954e-05
2.71126e-05
1.44935e-05
4.36651e-05
1.58487e-05
2.7126e-05
1.44927e-05
4.3659e-05
5.7381e-05
5.72427e-05
1.7619e-05
5.73747e-05
5.72564e-05
4.92665e-05
6.92616e-05
4.93242e-05
6.92601e-05
6.91504e-05
6.91543e-05
4.91654e-05
6.92777e-05
4.91612e-05
6.92823e-05
1.42458e-05
1.42532e-05
1.42453e-05
1.42462e-05
1.42443e-05
1.42523e-05
1.42447e-05
2.68689e-05
4.36481e-05
1.44834e-05
1.58241e-05
2.6858e-05
4.36416e-05
1.44831e-05
6.91876e-05
6.91952e-05
2.71303e-05
1.44923e-05
4.36657e-05
1.58501e-05
2.71286e-05
1.44923e-05
4.36589e-05
5.73068e-05
5.72706e-05
1.76218e-05
5.73056e-05
5.72896e-05
4.92337e-05
6.92561e-05
4.91869e-05
6.92551e-05
6.91484e-05
6.91571e-05
4.92083e-05
6.92818e-05
4.92044e-05
6.92817e-05
1.42441e-05
1.42522e-05
1.42448e-05
1.42461e-05
1.42448e-05
1.42525e-05
1.42459e-05
2.67715e-05
4.36511e-05
1.44839e-05
1.58278e-05
2.68129e-05
4.36457e-05
1.44842e-05
6.91899e-05
6.91989e-05
2.71565e-05
1.44935e-05
4.36617e-05
1.58522e-05
2.71555e-05
1.44935e-05
4.36511e-05
5.73107e-05
5.7282e-05
1.76373e-05
5.73314e-05
5.72962e-05
4.9079e-05
6.92526e-05
4.91253e-05
6.92532e-05
6.91485e-05
6.91543e-05
4.91594e-05
6.92731e-05
4.92412e-05
6.9271e-05
1.42451e-05
1.42529e-05
1.42462e-05
1.4247e-05
1.42462e-05
1.42538e-05
1.42477e-05
2.68144e-05
4.36549e-05
1.44862e-05
1.58323e-05
2.67989e-05
4.36472e-05
1.44864e-05
6.91904e-05
6.91993e-05
2.71913e-05
1.44951e-05
4.36531e-05
1.58548e-05
2.71828e-05
1.44955e-05
4.36456e-05
5.73558e-05
5.72734e-05
1.76516e-05
5.73411e-05
5.72277e-05
4.92381e-05
6.92536e-05
4.92026e-05
6.92557e-05
6.91482e-05
6.91596e-05
4.91384e-05
6.92646e-05
4.90893e-05
6.92642e-05
1.42469e-05
1.42537e-05
1.42485e-05
1.42488e-05
1.42488e-05
1.42552e-05
1.42509e-05
2.68987e-05
4.36491e-05
1.44897e-05
1.58362e-05
2.68888e-05
4.36398e-05
1.44899e-05
6.91928e-05
6.92022e-05
2.72208e-05
1.44975e-05
4.36521e-05
1.58569e-05
2.72258e-05
1.44978e-05
4.36449e-05
5.73437e-05
5.72401e-05
1.76581e-05
5.73553e-05
5.72563e-05
4.91205e-05
6.9256e-05
4.9154e-05
6.92602e-05
6.91575e-05
6.91665e-05
4.92374e-05
6.9262e-05
4.92203e-05
6.92621e-05
1.4249e-05
1.42553e-05
1.42512e-05
1.42509e-05
1.42518e-05
1.42562e-05
1.42531e-05
2.69095e-05
4.36387e-05
1.44928e-05
1.584e-05
2.69159e-05
4.36227e-05
1.44932e-05
6.91971e-05
6.92057e-05
2.72001e-05
1.44997e-05
4.36504e-05
1.58573e-05
2.72173e-05
1.44997e-05
4.36408e-05
5.7351e-05
5.72782e-05
1.7671e-05
5.7328e-05
5.72926e-05
4.91869e-05
6.92658e-05
4.92538e-05
6.9269e-05
6.91547e-05
6.91588e-05
4.90936e-05
6.92688e-05
4.92359e-05
6.92717e-05
1.42516e-05
1.42564e-05
1.42536e-05
1.42522e-05
1.42535e-05
1.42575e-05
1.42552e-05
2.68645e-05
4.36201e-05
1.44957e-05
1.5844e-05
2.68628e-05
4.36108e-05
1.4496e-05
6.91961e-05
6.92067e-05
2.71989e-05
1.4501e-05
4.36438e-05
1.58548e-05
2.72024e-05
1.4501e-05
4.36361e-05
5.72764e-05
5.72978e-05
1.7677e-05
5.72628e-05
5.72954e-05
4.91646e-05
6.92696e-05
4.92021e-05
6.92722e-05
6.91493e-05
6.91599e-05
4.92308e-05
6.92711e-05
4.91812e-05
6.92716e-05
1.4254e-05
1.42576e-05
1.42551e-05
1.42536e-05
1.42558e-05
1.42582e-05
1.42559e-05
2.69764e-05
4.36151e-05
1.44981e-05
1.58467e-05
2.69442e-05
4.36079e-05
1.44983e-05
6.92044e-05
6.92168e-05
2.71963e-05
1.4502e-05
4.36345e-05
1.58524e-05
2.72064e-05
1.45019e-05
4.36196e-05
5.72439e-05
5.73267e-05
1.767e-05
5.72355e-05
5.73046e-05
4.91284e-05
6.92703e-05
4.91226e-05
6.92707e-05
6.91576e-05
6.91691e-05
4.92374e-05
6.92753e-05
4.9219e-05
6.92832e-05
1.42558e-05
1.42583e-05
1.42559e-05
1.42547e-05
1.42566e-05
1.42589e-05
1.42561e-05
2.70213e-05
4.36216e-05
1.44994e-05
1.58492e-05
2.7046e-05
4.36223e-05
1.44994e-05
6.92148e-05
6.92264e-05
2.7215e-05
1.45023e-05
4.36186e-05
1.58503e-05
2.72146e-05
1.45022e-05
4.36117e-05
5.72813e-05
5.73164e-05
1.76596e-05
5.72487e-05
5.73582e-05
4.91398e-05
6.92732e-05
4.91167e-05
6.92781e-05
6.91603e-05
6.91649e-05
4.92295e-05
6.92848e-05
4.92162e-05
6.92847e-05
1.42571e-05
1.42589e-05
1.4256e-05
1.42556e-05
1.42576e-05
1.4259e-05
1.42559e-05
2.71655e-05
4.36393e-05
1.44996e-05
1.58519e-05
2.71565e-05
4.36337e-05
1.44996e-05
6.92227e-05
6.92332e-05
2.72482e-05
1.45028e-05
4.36126e-05
1.58461e-05
2.72461e-05
1.45026e-05
4.35999e-05
5.72194e-05
5.72623e-05
1.76512e-05
5.72282e-05
5.72659e-05
4.9252e-05
6.92881e-05
4.92211e-05
6.92898e-05
6.91501e-05
6.91561e-05
4.92258e-05
6.9281e-05
4.93214e-05
6.92865e-05