/*--------------------------------*- C++ -*----------------------------------*\
| =========                 |                                                 |
| \\      /  F ield         | OpenFOAM: The Open Source CFD Toolbox           |
|  \\    /   O peration     | Version:  v2012                                 |
|   \\  /    A nd           | Website:  www.openfoam.com                      |
|    \\/     M anipulation  |                                                 |
\*---------------------------------------------------------------------------*/
FoamFile
{
    version     2.0;
    format      ascii;
    class       volScalarField;
    location    "100";
    object      nut;
}
// * * * * * * * * * * * * * * * * * * * * * * * * * * * * * * * * * * * * * //

dimensions      [0 2 -1 0 0 0 0];


internalField   nonuniform List<scalar> 
85864
(
0.000148656
0.000102212
8.36228e-05
0.000102173
0.00010217
0.000102084
8.36572e-05
4.92998e-05
4.92938e-05
6.48158e-05
0.000148574
2.35712e-05
6.41532e-05
2.35458e-05
2.35417e-05
5.93391e-05
5.9186e-05
6.40571e-05
6.39445e-05
0.000125878
6.4745e-05
4.93395e-05
6.59725e-05
0.000125646
6.44504e-05
6.54936e-05
5.98795e-05
5.93466e-05
2.3545e-05
4.92994e-05
4.93008e-05
6.6671e-05
2.0128e-05
2.01298e-05
4.92954e-05
6.66629e-05
6.66914e-05
2.01279e-05
3.60146e-05
6.4725e-05
6.66493e-05
4.01972e-05
6.66879e-05
4.01981e-05
3.6013e-05
2.35726e-05
2.35476e-05
2.3543e-05
7.15808e-05
6.91901e-05
5.9351e-05
4.6916e-05
4.69173e-05
6.91957e-05
7.14845e-05
7.11095e-05
6.77147e-05
5.91883e-05
4.68931e-05
4.68936e-05
6.78668e-05
7.1047e-05
6.95273e-05
2.15087e-05
2.15049e-05
2.15105e-05
2.15067e-05
6.95163e-05
2.01523e-05
4.93381e-05
6.69272e-05
6.69412e-05
2.01503e-05
3.60889e-05
6.59835e-05
4.02474e-05
6.79864e-05
4.02485e-05
6.79725e-05
3.60876e-05
7.17684e-05
6.94414e-05
5.98859e-05
4.6943e-05
4.69437e-05
6.94466e-05
7.16985e-05
7.17395e-05
6.9205e-05
5.93604e-05
4.69136e-05
6.92115e-05
4.69148e-05
7.16562e-05
6.94841e-05
2.15059e-05
2.15059e-05
2.15075e-05
2.15076e-05
6.94862e-05
2.35467e-05
4.93003e-05
0.000171824
7.21213e-05
7.27285e-05
7.24409e-05
8.37172e-05
7.27363e-05
7.24572e-05
7.19964e-05
7.22663e-05
7.28561e-05
7.27934e-05
8.37968e-05
7.28012e-05
7.2864e-05
7.21298e-05
0.000171738
6.92523e-05
6.83141e-05
6.41671e-05
6.55195e-05
6.83152e-05
6.55671e-05
6.92225e-05
6.90921e-05
6.8224e-05
6.40631e-05
6.52666e-05
6.52576e-05
6.82223e-05
6.9102e-05
6.90537e-05
6.78871e-05
6.39554e-05
6.49235e-05
6.49254e-05
6.78986e-05
6.88466e-05
7.35504e-05
6.47499e-05
6.44206e-05
7.69616e-05
6.43514e-05
7.70071e-05
7.34888e-05
6.97886e-05
6.85648e-05
6.44591e-05
6.62423e-05
6.62361e-05
6.85657e-05
6.95929e-05
7.42411e-05
6.5495e-05
7.71193e-05
6.67324e-05
7.71632e-05
6.67324e-05
7.4185e-05
0.00010218
8.35703e-05
0.000148678
0.000102224
0.000102218
8.35796e-05
0.00014868
0.000102246
0.000102243
8.36103e-05
0.000148677
0.00010223
0.000102246
8.35572e-05
0.000148666
0.000102208
0.000102237
8.34951e-05
0.000148655
0.000102182
0.000102227
8.32871e-05
0.000148653
0.000102181
0.000102227
8.34862e-05
0.000148654
0.00010217
0.000102224
8.28914e-05
0.000148651
0.000102165
0.000102215
8.30862e-05
0.000148646
0.000102169
0.000102191
8.32151e-05
0.000148639
0.000102182
0.000102191
8.31861e-05
0.000148638
0.0001022
0.000102182
8.32562e-05
0.000148649
0.000102196
0.000102185
8.33037e-05
0.000148658
0.000102198
0.0001022
8.33664e-05
0.000148657
0.000102202
0.000102215
8.34449e-05
0.000148662
0.000102205
0.000102211
8.33911e-05
0.000148661
0.000102209
0.000102218
8.34569e-05
0.000148655
0.000102207
0.0001022
8.34055e-05
0.000148652
0.000102202
0.000102197
8.34097e-05
0.000148636
0.00010219
0.000102177
8.34222e-05
0.000148604
0.000102175
0.000102167
8.34533e-05
0.000148572
0.000102168
0.000102164
8.34967e-05
0.000148578
0.000102164
0.000102161
8.35225e-05
0.000148579
0.000102181
0.000102167
8.35054e-05
0.00014859
0.000102188
0.000102175
8.35785e-05
0.000148605
0.000102207
0.000102162
8.35262e-05
0.0001486
0.000102213
0.000102162
8.33298e-05
0.000148604
0.000102216
0.000102174
8.34221e-05
0.000148606
0.000102217
0.000102162
8.31252e-05
0.000148605
0.00010222
0.000102144
8.31073e-05
0.0001486
0.000102205
0.000102143
8.33159e-05
0.000148601
0.000102174
0.000102135
8.3409e-05
0.000148604
0.000102185
0.000102151
8.33699e-05
0.000148597
0.000102195
0.000102144
8.34659e-05
0.000148598
0.000102201
0.000102143
8.34301e-05
0.000148596
0.00010219
0.000102133
8.34757e-05
0.000148599
0.000102191
0.000102153
8.35069e-05
0.000148605
0.000102188
0.000102163
8.32882e-05
0.000148605
0.000102162
0.000102167
8.34604e-05
0.000148606
0.00010215
0.000102177
8.35158e-05
0.000148606
0.00010216
0.00010218
8.3521e-05
0.00014861
0.000102188
0.000102188
8.35107e-05
0.000148617
0.000102198
0.000102198
8.35268e-05
0.000148613
0.000102212
0.000102217
8.35813e-05
0.000148608
0.000102228
0.000102233
8.34739e-05
0.000148614
0.000102268
0.000102267
8.31868e-05
0.00014873
0.000102326
0.000102315
8.35106e-05
0.000151775
0.000105062
0.00010507
8.67829e-05
8.36075e-05
0.000102165
0.000102181
0.000102186
8.33143e-05
8.36487e-05
0.000102204
0.000102129
0.000102157
0.000102223
0.000102185
8.36902e-05
0.0001022
0.000102214
0.000102223
8.36899e-05
8.36347e-05
8.37003e-05
0.000102199
0.000102195
0.000102207
0.000102204
8.33177e-05
8.36098e-05
0.000102212
0.000102136
0.000102213
0.000102149
0.000102194
0.000102247
0.0001022
8.37531e-05
8.36456e-05
0.000102235
0.000102245
0.000102249
8.36963e-05
8.36366e-05
8.36759e-05
0.000102225
0.000102231
0.000102212
0.000102225
8.35842e-05
8.36058e-05
0.000102241
0.000102148
0.000102243
0.000102137
0.000102219
0.000102237
0.000102223
8.32838e-05
8.36643e-05
0.000102258
0.000102247
0.000102255
8.36976e-05
8.35635e-05
8.36811e-05
0.000102221
0.000102222
0.000102221
0.000102215
8.33565e-05
8.34387e-05
0.000102258
0.000102145
0.000102253
0.000102129
0.000102217
0.000102218
0.000102201
8.3381e-05
8.37227e-05
0.000102264
0.000102242
0.000102244
8.34675e-05
8.34961e-05
8.35787e-05
0.00010222
0.000102209
0.000102216
0.000102193
8.34413e-05
8.33317e-05
0.000102258
0.000102139
0.000102247
0.000102121
0.000102212
0.000102196
0.0001022
8.35482e-05
8.35656e-05
0.000102246
0.000102228
0.000102221
8.34096e-05
8.34254e-05
8.34508e-05
0.000102234
0.000102206
0.000102221
0.000102185
8.30774e-05
8.32743e-05
0.000102242
0.000102117
0.000102222
0.000102111
0.000102199
0.000102192
0.000102197
8.32544e-05
8.33871e-05
0.000102238
0.00010223
0.000102219
8.35874e-05
8.33174e-05
8.32451e-05
0.000102212
0.000102178
0.000102192
0.000102169
8.29961e-05
8.33273e-05
0.00010222
0.000102108
0.000102206
0.000102107
0.000102188
0.000102182
0.000102176
8.3311e-05
8.35142e-05
0.000102212
0.000102232
0.0001022
8.31765e-05
8.31308e-05
8.35568e-05
0.00010221
0.000102176
0.00010219
0.000102159
8.32528e-05
8.32845e-05
0.000102221
0.000102107
0.000102204
0.000102116
0.000102162
0.000102178
0.000102143
8.3502e-05
8.37309e-05
0.000102201
0.000102229
0.000102172
8.31883e-05
8.33843e-05
8.35622e-05
0.000102182
0.000102172
0.000102186
0.000102158
8.32129e-05
8.33471e-05
0.000102197
0.000102113
0.000102186
0.000102108
0.000102137
0.000102174
0.000102131
8.33602e-05
8.33154e-05
0.000102174
0.000102205
0.000102157
8.3342e-05
8.32209e-05
8.33281e-05
0.0001022
0.000102154
0.000102183
0.000102157
8.32558e-05
8.33825e-05
0.000102204
0.000102111
0.000102183
0.000102117
0.00010215
0.000102178
0.000102137
8.32582e-05
8.36453e-05
0.000102163
0.000102197
0.000102146
8.33514e-05
8.32214e-05
8.3494e-05
0.000102193
0.000102163
0.000102193
0.000102157
8.33201e-05
8.34411e-05
0.000102198
0.000102127
0.000102197
0.000102125
0.000102138
0.000102198
0.000102135
8.32882e-05
8.33863e-05
0.000102151
0.000102194
0.000102139
8.32465e-05
8.33331e-05
8.35099e-05
0.000102191
0.000102182
0.000102188
0.000102163
8.33568e-05
8.33755e-05
0.000102198
0.000102125
0.000102193
0.000102132
0.000102136
0.000102198
0.000102142
8.34488e-05
8.36383e-05
0.00010216
0.000102186
0.000102155
8.33604e-05
8.34604e-05
8.35993e-05
0.000102208
0.000102158
0.0001022
0.000102158
8.33139e-05
8.33704e-05
0.000102192
0.000102132
0.000102188
0.000102148
0.000102147
0.000102198
0.000102149
8.34983e-05
8.37257e-05
0.000102157
0.000102203
0.000102163
8.34182e-05
8.35224e-05
8.35356e-05
0.000102199
0.000102157
0.000102201
0.00010215
8.3388e-05
8.34733e-05
0.000102199
0.000102158
0.000102195
0.000102169
0.000102167
0.000102207
0.000102162
8.35785e-05
8.36911e-05
0.000102167
0.000102216
0.000102164
8.34705e-05
8.34792e-05
8.35025e-05
0.000102196
0.000102164
0.000102195
0.000102159
8.34539e-05
8.35296e-05
0.000102206
0.000102193
0.000102207
0.000102191
0.000102177
0.000102206
0.000102172
8.36485e-05
8.37178e-05
0.00010216
0.000102217
0.000102166
8.34748e-05
8.31383e-05
8.34796e-05
0.000102209
0.000102166
0.000102193
0.000102165
8.34796e-05
8.355e-05
0.000102205
0.000102198
0.000102197
0.000102185
0.000102184
0.000102215
0.000102177
8.36841e-05
8.37409e-05
0.000102191
0.000102224
0.000102187
8.35095e-05
8.31425e-05
8.34186e-05
0.000102197
0.000102165
0.000102181
0.000102173
8.34736e-05
8.36749e-05
0.000102193
0.000102188
0.000102184
0.00010218
0.000102189
0.00010221
0.000102186
8.36596e-05
8.37674e-05
0.000102189
0.000102213
0.000102177
8.35632e-05
8.33381e-05
8.35199e-05
0.000102182
0.000102174
0.000102186
0.000102168
8.34953e-05
8.35836e-05
0.000102183
0.00010219
0.000102178
0.000102165
0.000102188
0.000102211
0.000102173
8.36466e-05
8.37677e-05
0.000102194
0.000102205
0.000102181
8.3572e-05
8.34627e-05
8.36042e-05
0.00010218
0.000102158
0.000102174
0.000102146
8.35221e-05
8.3625e-05
0.000102195
0.000102171
0.000102191
0.000102158
0.000102184
0.000102198
0.000102174
8.36522e-05
8.37844e-05
0.000102183
0.00010219
0.000102177
8.35779e-05
8.35124e-05
8.36178e-05
0.000102197
0.000102151
0.000102174
0.00010213
8.35348e-05
8.35957e-05
0.000102192
0.000102161
0.000102188
0.000102139
0.000102178
0.000102182
0.000102164
8.36736e-05
8.37521e-05
0.000102178
0.00010218
0.000102164
8.35846e-05
8.34566e-05
8.36338e-05
0.000102176
0.000102144
0.000102164
0.000102124
8.35252e-05
8.35909e-05
0.000102184
0.000102149
0.000102173
0.000102131
0.000102153
0.000102176
0.000102128
8.36968e-05
8.37765e-05
0.000102163
0.000102175
0.000102145
8.35045e-05
8.3445e-05
8.35779e-05
0.000102156
0.000102142
0.000102147
0.000102129
8.35459e-05
8.36494e-05
0.000102172
0.000102131
0.000102136
0.000102127
0.000102157
0.00010217
0.000102128
8.37133e-05
8.3778e-05
0.000102146
0.000102166
0.000102136
8.36187e-05
8.34565e-05
8.35334e-05
0.000102167
0.000102134
0.000102155
0.000102125
8.35786e-05
8.36651e-05
0.000102171
0.000102122
0.000102153
0.000102111
0.000102144
0.000102187
0.000102136
8.36726e-05
8.376e-05
0.000102155
0.000102171
0.000102127
8.36098e-05
8.3438e-05
8.35549e-05
0.000102156
0.000102134
0.000102152
0.000102109
8.3571e-05
8.37272e-05
0.00010216
0.000102133
0.000102134
0.000102125
0.000102155
0.000102194
0.000102154
8.36257e-05
8.37703e-05
0.000102143
0.000102176
0.000102137
8.35943e-05
8.34872e-05
8.344e-05
0.000102158
0.000102131
0.000102157
0.00010213
8.35458e-05
8.37194e-05
0.000102169
0.00010212
0.000102159
0.000102104
0.000102171
0.000102213
0.000102169
8.35768e-05
8.37303e-05
0.000102157
0.000102168
0.00010214
8.36113e-05
8.35e-05
8.36117e-05
0.000102159
0.000102147
0.000102153
0.000102132
8.35327e-05
8.37048e-05
0.000102168
0.000102114
0.000102156
0.000102122
0.000102179
0.000102216
0.000102165
8.35515e-05
8.36345e-05
0.000102151
0.000102169
0.000102146
8.34647e-05
8.34319e-05
8.35083e-05
0.000102155
0.000102152
0.000102134
0.000102153
8.36128e-05
8.37193e-05
0.000102179
0.000102121
0.000102166
0.000102106
0.000102161
0.000102226
0.00010216
8.35628e-05
8.34932e-05
0.00010216
0.000102179
0.000102145
8.33947e-05
8.34641e-05
8.36083e-05
0.000102152
0.000102158
0.000102137
0.000102161
8.36457e-05
8.37559e-05
0.000102184
0.000102118
0.000102176
0.000102104
0.000102168
0.000102226
0.000102154
8.32196e-05
8.33368e-05
0.000102167
0.000102176
0.000102163
8.34654e-05
8.35529e-05
8.36501e-05
0.000102157
0.00010217
0.000102145
0.000102154
8.35883e-05
8.36911e-05
0.000102187
0.000102112
0.000102172
0.000102099
0.000102149
0.000102217
0.000102134
8.30161e-05
8.35131e-05
0.000102158
0.000102152
0.000102136
8.31099e-05
8.35114e-05
8.37682e-05
0.000102158
0.000102173
0.000102136
0.000102159
8.35993e-05
8.36167e-05
0.000102183
0.000102117
0.000102177
0.000102108
0.000102138
0.000102212
0.000102136
8.34263e-05
8.36379e-05
0.000102136
0.000102147
0.000102133
8.33676e-05
8.35828e-05
8.37563e-05
0.000102162
0.000102155
0.000102144
0.000102128
8.33494e-05
8.35844e-05
0.000102193
0.000102116
0.000102176
0.000102103
0.000102146
0.000102184
0.000102144
8.34935e-05
8.35881e-05
0.000102148
0.000102152
0.000102136
8.35421e-05
8.36061e-05
8.36049e-05
0.000102164
0.000102139
0.000102148
0.000102131
8.3464e-05
8.36509e-05
0.000102195
0.000102111
0.000102188
0.000102097
0.00010215
0.000102189
0.000102141
8.32436e-05
8.36228e-05
0.000102154
0.000102151
0.000102144
8.34164e-05
8.3683e-05
8.36998e-05
0.000102164
0.000102135
0.00010216
0.000102139
8.34901e-05
8.35847e-05
0.000102201
0.0001021
0.000102197
0.000102096
0.000102152
0.000102195
0.000102148
8.33043e-05
8.35239e-05
0.000102151
0.000102152
0.000102151
8.3528e-05
8.36945e-05
8.38089e-05
0.000102177
0.000102137
0.000102167
0.000102132
8.35573e-05
8.36124e-05
0.000102204
0.000102103
0.0001022
0.000102085
0.000102148
0.000102197
0.000102137
8.34885e-05
8.36737e-05
0.00010216
0.000102142
0.000102153
8.359e-05
8.36289e-05
8.36115e-05
0.000102182
0.000102158
0.000102174
0.000102143
8.33401e-05
8.35871e-05
0.000102213
0.000102097
0.000102199
0.000102089
0.000102151
0.000102196
0.00010214
8.35902e-05
8.36815e-05
0.000102163
0.000102146
0.000102147
8.34786e-05
8.35745e-05
8.37826e-05
0.000102183
0.000102144
0.000102185
0.000102145
8.34501e-05
8.35432e-05
0.000102202
0.000102096
0.000102211
0.000102091
0.000102153
0.000102191
0.000102148
8.36272e-05
8.37259e-05
0.000102153
0.000102155
0.000102149
8.36567e-05
8.36223e-05
8.36412e-05
0.000102195
0.000102145
0.000102194
0.000102124
8.34647e-05
8.3649e-05
0.000102218
0.0001021
0.000102222
0.000102096
0.000102154
0.000102191
0.000102151
8.36182e-05
8.3754e-05
0.000102164
0.000102162
0.000102142
8.33568e-05
8.37233e-05
8.37947e-05
0.000102203
0.000102149
0.000102198
0.000102125
8.34925e-05
8.36213e-05
0.000102222
0.000102104
0.000102223
0.000102085
0.000102159
0.000102163
0.000102156
8.36682e-05
8.37852e-05
0.000102153
0.000102178
0.000102142
8.35734e-05
8.36859e-05
8.35377e-05
0.000102207
0.000102143
0.000102197
0.000102121
8.33986e-05
8.36331e-05
0.000102225
0.000102103
0.000102223
0.000102097
0.000102156
0.000102149
0.000102142
8.36133e-05
8.37482e-05
0.000102152
0.00010218
0.00010214
8.34342e-05
8.36038e-05
8.38243e-05
0.000102203
0.000102134
0.000102199
0.000102132
8.3448e-05
8.36162e-05
0.000102225
0.000102105
0.000102222
0.000102096
0.00010215
0.000102156
0.000102158
8.36611e-05
8.37898e-05
0.000102145
0.000102182
0.000102139
8.36258e-05
8.34558e-05
8.35168e-05
0.000102204
0.000102141
0.000102198
0.000102136
8.35374e-05
8.36001e-05
0.000102222
0.000102109
0.00010222
0.000102106
0.000102161
0.000102183
0.000102149
8.37242e-05
8.38091e-05
0.00010214
0.000102186
0.000102137
8.36233e-05
8.34365e-05
8.36062e-05
0.000102199
0.000102138
0.0001022
0.000102136
8.35109e-05
8.36257e-05
0.00010222
0.000102116
0.00010222
0.000102119
0.000102159
0.000102194
0.000102157
8.37133e-05
8.37435e-05
0.000102139
0.000102194
0.000102137
8.36684e-05
8.36434e-05
8.36069e-05
0.000102201
0.000102149
0.000102208
0.000102146
8.35639e-05
8.36897e-05
0.000102222
0.000102123
0.000102226
0.000102127
0.000102176
0.000102207
0.000102172
8.36627e-05
8.38391e-05
0.00010214
0.000102213
0.000102136
8.3711e-05
8.36154e-05
8.37022e-05
0.000102221
0.000102168
0.000102227
0.000102181
8.36331e-05
8.32767e-05
0.000102231
0.000102133
0.000102238
0.000102137
0.000102192
0.000102224
0.000102193
8.36831e-05
8.33167e-05
0.000102154
0.000102225
0.000102156
8.36184e-05
8.33487e-05
8.3356e-05
0.000102232
0.000102192
0.000102245
0.000102212
8.31102e-05
8.30683e-05
0.000102246
0.000102145
0.000102255
0.00010216
0.0001022
0.000102248
0.000102213
8.32322e-05
8.34976e-05
0.000102171
0.000102256
0.0001022
8.32254e-05
8.32053e-05
8.38164e-05
0.000102252
0.000102228
0.000102348
0.000102336
8.31341e-05
8.34321e-05
0.000102264
0.000102169
0.000102365
0.000102274
0.000102225
0.000102364
0.000102318
8.31491e-05
8.35616e-05
0.000102219
0.000102351
0.000102309
8.34881e-05
8.38603e-05
8.57012e-05
0.000102311
0.000102303
0.000103833
0.000103855
8.37672e-05
8.56388e-05
0.000102329
0.000102241
0.000103833
0.000103754
0.000102277
0.000103872
0.000103783
8.38336e-05
8.57667e-05
0.00010227
0.000103872
0.000103822
8.55993e-05
8.71047e-05
0.000105079
0.000105196
8.70887e-05
0.000105175
0.000105035
0.000151652
0.000151601
0.000151611
0.000105017
8.72552e-05
0.000105054
6.4041e-05
4.93013e-05
6.4201e-05
2.35439e-05
2.3545e-05
6.49028e-05
4.92937e-05
0.000148627
0.000148632
0.000148669
0.000148639
0.000148581
0.000148643
6.48143e-05
6.41887e-05
0.000125852
0.00010221
6.41969e-05
0.000125853
6.4807e-05
2.35726e-05
6.45939e-05
0.000125852
0.000102216
0.000125851
6.41741e-05
6.48254e-05
5.92056e-05
5.9422e-05
8.36878e-05
5.92238e-05
5.93916e-05
6.43331e-05
4.92997e-05
6.41581e-05
4.92978e-05
2.35444e-05
2.35456e-05
6.46071e-05
4.92977e-05
6.45876e-05
4.92978e-05
0.000148625
0.000148577
0.000148637
0.000148673
0.00014864
0.000148583
0.000148646
6.48372e-05
6.41789e-05
0.000125863
0.000102238
6.48407e-05
6.41838e-05
0.000125858
2.35713e-05
2.35719e-05
6.38761e-05
0.000125856
6.41711e-05
0.000102234
6.38389e-05
0.000125856
6.41804e-05
5.92105e-05
5.93559e-05
8.35954e-05
5.92643e-05
5.93735e-05
6.42609e-05
4.92992e-05
6.4363e-05
4.92989e-05
2.3545e-05
2.35464e-05
6.47823e-05
4.92952e-05
6.47313e-05
4.92946e-05
0.00014864
0.000148578
0.000148641
0.000148668
0.000148639
0.00014858
0.000148642
6.47899e-05
6.4168e-05
0.00012586
0.000102256
6.48114e-05
6.41754e-05
0.000125855
2.3569e-05
2.35688e-05
6.37712e-05
0.000125856
6.41642e-05
0.000102245
6.36856e-05
0.000125852
6.41732e-05
5.92136e-05
5.93524e-05
8.36376e-05
5.91415e-05
5.93967e-05
6.42258e-05
4.9299e-05
6.41868e-05
4.92995e-05
2.35453e-05
2.35465e-05
6.44179e-05
4.92927e-05
6.46426e-05
4.92932e-05
0.000148636
0.000148576
0.000148641
0.000148665
0.000148639
0.000148584
0.000148648
6.47643e-05
6.4151e-05
0.000125856
0.000102247
6.47626e-05
6.41537e-05
0.000125858
2.35646e-05
2.35625e-05
6.34626e-05
0.00012585
6.41711e-05
0.000102248
6.33941e-05
0.000125851
6.41814e-05
5.91977e-05
5.94198e-05
8.37052e-05
5.91898e-05
5.936e-05
6.44424e-05
4.92984e-05
6.43467e-05
4.92971e-05
2.35447e-05
2.35459e-05
6.43764e-05
4.92881e-05
6.43283e-05
4.92957e-05
0.000148634
0.000148578
0.000148647
0.000148656
0.000148646
0.000148593
0.000148654
6.47571e-05
6.41362e-05
0.000125855
0.000102249
6.47545e-05
6.41452e-05
0.00012586
2.35578e-05
2.35563e-05
6.35569e-05
0.000125852
6.41698e-05
0.000102248
6.37095e-05
0.000125858
6.41767e-05
5.92339e-05
5.93026e-05
8.32276e-05
5.91478e-05
5.93242e-05
6.45998e-05
4.93017e-05
6.44077e-05
4.93014e-05
2.35458e-05
2.35471e-05
6.446e-05
4.92989e-05
6.44974e-05
4.92996e-05
0.000148639
0.00014858
0.000148645
0.000148648
0.00014865
0.00014859
0.000148655
6.46971e-05
6.41426e-05
0.000125854
0.000102231
6.47307e-05
6.41537e-05
0.000125864
2.35504e-05
2.35492e-05
6.40881e-05
0.000125858
6.41699e-05
0.000102248
6.4014e-05
0.000125865
6.41811e-05
5.91474e-05
5.91863e-05
8.35324e-05
5.91586e-05
5.90963e-05
6.43783e-05
4.93008e-05
6.42707e-05
4.93017e-05
2.35455e-05
2.35461e-05
6.4355e-05
4.92986e-05
6.44334e-05
4.92996e-05
0.000148647
0.000148588
0.000148643
0.000148651
0.000148652
0.000148593
0.000148654
6.46434e-05
6.41412e-05
0.000125862
0.000102213
6.46472e-05
6.41423e-05
0.000125865
2.35445e-05
2.35452e-05
6.47291e-05
0.000125863
6.41722e-05
0.000102244
6.46734e-05
0.000125867
6.41819e-05
5.92094e-05
5.91417e-05
8.33881e-05
5.90977e-05
5.91982e-05
6.42394e-05
4.93025e-05
6.45934e-05
4.93026e-05
2.35432e-05
2.3544e-05
6.43683e-05
4.93008e-05
6.43425e-05
4.93005e-05
0.00014865
0.000148586
0.000148651
0.000148645
0.000148663
0.000148597
0.000148657
6.45967e-05
6.41141e-05
0.000125862
0.000102208
6.46078e-05
6.41165e-05
0.000125864
2.35428e-05
2.35441e-05
6.44738e-05
0.000125859
6.41694e-05
0.000102239
6.43953e-05
0.000125865
6.4176e-05
5.91348e-05
5.91222e-05
8.30707e-05
5.9163e-05
5.91916e-05
6.4168e-05
4.93022e-05
6.44836e-05
4.9303e-05
2.35418e-05
2.35428e-05
6.40305e-05
4.93001e-05
6.42817e-05
4.92981e-05
0.000148656
0.000148586
0.000148641
0.000148638
0.000148653
0.000148591
0.000148642
6.46359e-05
6.41049e-05
0.000125852
0.000102197
6.4607e-05
6.41109e-05
0.000125854
2.3543e-05
2.35441e-05
6.46233e-05
0.000125858
6.41639e-05
0.000102221
6.45843e-05
0.000125857
6.41727e-05
5.91814e-05
5.92451e-05
8.32804e-05
5.9181e-05
5.92272e-05
6.38515e-05
4.93034e-05
6.43477e-05
4.93041e-05
2.35419e-05
2.35438e-05
6.39948e-05
4.93006e-05
6.39971e-05
4.9301e-05
0.000148635
0.000148574
0.000148643
0.000148628
0.000148644
0.000148595
0.000148634
6.46579e-05
6.40976e-05
0.000125845
0.000102191
6.46406e-05
6.41037e-05
0.000125843
2.3542e-05
2.35436e-05
6.4673e-05
0.000125845
6.41601e-05
0.000102209
6.467e-05
0.000125841
6.41676e-05
5.90918e-05
5.91841e-05
8.32773e-05
5.91887e-05
5.91947e-05
6.40231e-05
4.93055e-05
6.38843e-05
4.93051e-05
2.35434e-05
2.35451e-05
6.39309e-05
4.9301e-05
6.39852e-05
4.93009e-05
0.000148632
0.000148585
0.00014861
0.00014863
0.000148639
0.000148594
0.000148625
6.47347e-05
6.40942e-05
0.000125847
0.000102199
6.47113e-05
6.41033e-05
0.000125847
2.35414e-05
2.35426e-05
6.46522e-05
0.000125829
6.41588e-05
0.000102202
6.46585e-05
0.000125826
6.41691e-05
5.91996e-05
5.91047e-05
8.33934e-05
5.92371e-05
5.91788e-05
6.41435e-05
4.93048e-05
6.39445e-05
4.93058e-05
2.35431e-05
2.35442e-05
6.39255e-05
4.93022e-05
6.40163e-05
4.93023e-05
0.000148635
0.000148585
0.000148615
0.000148638
0.000148644
0.000148596
0.000148627
6.47458e-05
6.4097e-05
0.00012584
0.000102201
6.47397e-05
6.41096e-05
0.000125838
2.35397e-05
2.3541e-05
6.46192e-05
0.00012582
6.41646e-05
0.000102204
6.4634e-05
0.000125821
6.41786e-05
5.92657e-05
5.92161e-05
8.33748e-05
5.92811e-05
5.92251e-05
6.38998e-05
4.93073e-05
6.38432e-05
4.9306e-05
2.35428e-05
2.35442e-05
6.39498e-05
4.93018e-05
6.36644e-05
4.93012e-05
0.000148638
0.000148594
0.000148623
0.000148652
0.000148641
0.000148617
0.000148633
6.46975e-05
6.40998e-05
0.000125828
0.0001022
6.47195e-05
6.4107e-05
0.000125829
2.35406e-05
2.3542e-05
6.45867e-05
0.000125818
6.41723e-05
0.000102215
6.45917e-05
0.000125826
6.41822e-05
5.92817e-05
5.92308e-05
8.34145e-05
5.93121e-05
5.91713e-05
6.39361e-05
4.93094e-05
6.4057e-05
4.93099e-05
2.35436e-05
2.35447e-05
6.40128e-05
4.92976e-05
6.39353e-05
4.93006e-05
0.000148636
0.000148608
0.000148632
0.000148651
0.000148641
0.00014862
0.000148642
6.46232e-05
6.40982e-05
0.000125831
0.000102205
6.46491e-05
6.4109e-05
0.000125837
2.3541e-05
2.35433e-05
6.45977e-05
0.000125821
6.417e-05
0.000102213
6.45963e-05
0.000125829
6.41808e-05
5.9173e-05
5.9107e-05
8.34328e-05
5.92418e-05
5.91727e-05
6.42803e-05
4.93079e-05
6.41485e-05
4.93075e-05
2.35418e-05
2.35432e-05
6.4147e-05
4.93027e-05
6.42047e-05
4.93032e-05
0.000148641
0.000148604
0.00014864
0.000148653
0.000148645
0.000148617
0.000148641
6.43636e-05
6.41034e-05
0.000125845
0.000102208
6.46108e-05
6.41153e-05
0.000125853
2.3543e-05
2.35443e-05
6.45905e-05
0.000125834
6.41733e-05
0.000102221
6.45907e-05
0.000125841
6.41802e-05
5.92686e-05
5.91739e-05
8.35056e-05
5.92551e-05
5.9126e-05
6.41316e-05
4.9306e-05
6.41557e-05
4.93076e-05
2.35423e-05
2.3543e-05
6.44961e-05
4.9299e-05
6.42059e-05
4.92982e-05
0.000148643
0.000148617
0.000148637
0.000148658
0.000148645
0.000148622
0.000148642
6.30579e-05
6.41138e-05
0.000125851
0.000102213
6.35776e-05
6.41285e-05
0.000125856
2.35422e-05
2.3543e-05
6.46399e-05
0.000125847
6.41692e-05
0.00010222
6.4608e-05
0.000125853
6.41804e-05
5.92864e-05
5.92221e-05
8.34721e-05
5.93197e-05
5.91759e-05
6.43565e-05
4.93075e-05
6.42041e-05
4.93062e-05
2.35429e-05
2.35438e-05
6.44881e-05
4.92968e-05
6.45174e-05
4.92976e-05
0.000148643
0.000148622
0.000148645
0.00014865
0.00014865
0.000148616
0.000148642
6.34206e-05
6.41251e-05
0.000125853
0.000102221
6.34946e-05
6.41348e-05
0.000125855
2.35416e-05
2.3543e-05
6.46407e-05
0.00012586
6.41741e-05
0.000102221
6.46361e-05
0.000125853
6.41815e-05
5.92849e-05
5.92102e-05
8.35305e-05
5.92989e-05
5.91572e-05
6.43949e-05
4.93079e-05
6.43151e-05
4.93088e-05
2.35404e-05
2.35417e-05
6.44119e-05
4.92985e-05
6.41932e-05
4.92982e-05
0.000148645
0.000148613
0.000148643
0.000148644
0.000148647
0.00014861
0.000148637
6.3468e-05
6.41279e-05
0.00012585
0.000102218
6.37758e-05
6.4141e-05
0.000125858
2.35424e-05
2.35439e-05
6.45919e-05
0.000125845
6.4162e-05
0.000102209
6.46088e-05
0.00012584
6.41702e-05
5.92708e-05
5.90697e-05
8.3602e-05
5.92596e-05
5.91086e-05
6.47616e-05
4.93075e-05
6.4703e-05
4.93068e-05
2.35404e-05
2.35417e-05
6.4181e-05
4.92987e-05
6.41423e-05
4.93e-05
0.000148638
0.000148593
0.000148636
0.000148634
0.000148623
0.000148578
0.00014862
6.3163e-05
6.41335e-05
0.000125841
0.000102201
6.30861e-05
6.41389e-05
0.000125834
2.35432e-05
2.35455e-05
6.45043e-05
0.000125828
6.41667e-05
0.000102197
6.45406e-05
0.000125824
6.41796e-05
5.92597e-05
5.91415e-05
8.36141e-05
5.93322e-05
5.90731e-05
6.43277e-05
4.93038e-05
6.44859e-05
4.93028e-05
2.35418e-05
2.35432e-05
6.42079e-05
4.92983e-05
6.41838e-05
4.93012e-05
0.000148615
0.000148565
0.000148604
0.000148608
0.000148593
0.000148542
0.000148588
6.30225e-05
6.41262e-05
0.00012581
0.000102192
6.31269e-05
6.41372e-05
0.000125798
2.35445e-05
2.35461e-05
6.44352e-05
0.00012581
6.41784e-05
0.000102182
6.44484e-05
0.000125797
6.41881e-05
5.93546e-05
5.91416e-05
8.35951e-05
5.93581e-05
5.91681e-05
6.43795e-05
4.93013e-05
6.44874e-05
4.93005e-05
2.35403e-05
2.35402e-05
6.43501e-05
4.92997e-05
6.42837e-05
4.93017e-05
0.00014857
0.000148523
0.000148569
0.000148572
0.000148549
0.000148508
0.000148552
6.3662e-05
6.41352e-05
0.000125778
0.000102177
6.35804e-05
6.41474e-05
0.000125771
2.35448e-05
2.35454e-05
6.44803e-05
0.000125783
6.41795e-05
0.00010217
6.44516e-05
0.00012578
6.41887e-05
5.92295e-05
5.91665e-05
8.35363e-05
5.9255e-05
5.92096e-05
6.43722e-05
4.92979e-05
6.42221e-05
4.92971e-05
2.35389e-05
2.35408e-05
6.43482e-05
4.93026e-05
6.43305e-05
4.93031e-05
0.000148547
0.000148497
0.000148553
0.000148569
0.000148554
0.000148499
0.000148553
6.31999e-05
6.41465e-05
0.000125764
0.000102178
6.33599e-05
6.41594e-05
0.000125764
2.35445e-05
2.35462e-05
6.45353e-05
0.000125779
6.41757e-05
0.00010217
6.45178e-05
0.000125775
6.41793e-05
5.92509e-05
5.91799e-05
8.36006e-05
5.92896e-05
5.92232e-05
6.40206e-05
4.92957e-05
6.41252e-05
4.92957e-05
2.354e-05
2.3541e-05
6.42634e-05
4.92984e-05
6.44096e-05
4.92998e-05
0.000148554
0.000148496
0.000148538
0.000148568
0.000148558
0.000148511
0.000148541
6.33266e-05
6.41546e-05
0.000125751
0.000102183
6.32426e-05
6.41618e-05
0.000125747
2.35445e-05
2.3546e-05
6.45806e-05
0.000125765
6.41661e-05
0.00010217
6.45486e-05
0.000125769
6.41752e-05
5.93202e-05
5.9188e-05
8.36434e-05
5.92974e-05
5.91093e-05
6.43914e-05
4.92956e-05
6.42866e-05
4.92967e-05
2.35391e-05
2.35405e-05
6.42286e-05
4.92972e-05
6.40882e-05
4.92967e-05
0.000148565
0.000148505
0.000148548
0.00014858
0.000148574
0.000148524
0.000148559
6.36307e-05
6.41444e-05
0.000125754
0.000102191
6.35792e-05
6.41514e-05
0.000125752
2.35447e-05
2.35465e-05
6.46544e-05
0.00012576
6.41672e-05
0.000102173
6.46476e-05
0.00012576
6.4175e-05
5.92817e-05
5.91381e-05
8.36138e-05
5.93233e-05
5.91842e-05
6.4079e-05
4.9297e-05
6.41332e-05
4.92974e-05
2.35405e-05
2.35425e-05
6.44173e-05
4.92958e-05
6.43595e-05
4.92948e-05
0.000148569
0.000148523
0.000148557
0.000148592
0.0001486
0.000148527
0.000148568
6.36875e-05
6.41292e-05
0.000125761
0.000102196
6.36516e-05
6.41226e-05
0.000125764
2.35451e-05
2.35473e-05
6.45898e-05
0.000125762
6.41629e-05
0.000102178
6.46149e-05
0.00012576
6.41623e-05
5.93161e-05
5.92046e-05
8.36457e-05
5.9283e-05
5.92312e-05
6.42863e-05
4.92985e-05
6.44202e-05
4.93009e-05
2.35413e-05
2.35418e-05
6.40589e-05
4.92973e-05
6.44035e-05
4.92999e-05
0.000148583
0.000148531
0.00014856
0.000148593
0.000148598
0.000148552
0.000148579
6.34562e-05
6.41004e-05
0.000125775
0.000102215
6.3424e-05
6.41071e-05
0.000125774
2.35452e-05
2.35466e-05
6.45928e-05
0.000125768
6.4138e-05
0.000102174
6.45727e-05
0.000125769
6.41392e-05
5.919e-05
5.92259e-05
8.36605e-05
5.91823e-05
5.9235e-05
6.42945e-05
4.93005e-05
6.43069e-05
4.93021e-05
2.35393e-05
2.35411e-05
6.43726e-05
4.92999e-05
6.42432e-05
4.9296e-05
0.000148592
0.000148547
0.000148573
0.000148592
0.000148613
0.000148556
0.000148573
6.38594e-05
6.40983e-05
0.000125793
0.000102229
6.37139e-05
6.41074e-05
0.000125797
2.35458e-05
2.35478e-05
6.46019e-05
0.000125784
6.41078e-05
0.000102185
6.45988e-05
0.000125786
6.4098e-05
5.91553e-05
5.92803e-05
8.35692e-05
5.91508e-05
5.92439e-05
6.42062e-05
4.93025e-05
6.41648e-05
4.93023e-05
2.35407e-05
2.35428e-05
6.43593e-05
4.92959e-05
6.42985e-05
4.93023e-05
0.000148601
0.000148556
0.000148571
0.000148599
0.000148604
0.000148563
0.000148575
6.3945e-05
6.41089e-05
0.000125812
0.000102225
6.40614e-05
6.41293e-05
0.000125821
2.35477e-05
2.35498e-05
6.46603e-05
0.000125795
6.40743e-05
0.000102189
6.46335e-05
0.000125797
6.4082e-05
5.92215e-05
5.92427e-05
8.33719e-05
5.91744e-05
5.93351e-05
6.41936e-05
4.93013e-05
6.41503e-05
4.93007e-05
2.3542e-05
2.3543e-05
6.43088e-05
4.93043e-05
6.42984e-05
4.93042e-05
0.000148612
0.000148559
0.000148577
0.000148599
0.000148613
0.000148558
0.000148585
6.46246e-05
6.41349e-05
0.000125833
0.000102229
6.45358e-05
6.41439e-05
0.000125846
2.35492e-05
2.35508e-05
6.47541e-05
0.000125805
6.40601e-05
0.000102176
6.47239e-05
0.000125804
6.4056e-05
5.91248e-05
5.91661e-05
8.33638e-05
5.91504e-05
5.91994e-05
6.44581e-05
4.93076e-05
6.43809e-05
4.93044e-05
2.35406e-05
2.35416e-05
6.43352e-05
4.92987e-05
6.45041e-05
4.93021e-05