/*--------------------------------*- C++ -*----------------------------------*\
| =========                 |                                                 |
| \\      /  F ield         | OpenFOAM: The Open Source CFD Toolbox           |
|  \\    /   O peration     | Version:  v2012                                 |
|   \\  /    A nd           | Website:  www.openfoam.com                      |
|    \\/     M anipulation  |                                                 |
\*---------------------------------------------------------------------------*/
FoamFile
{
    version     2.0;
    format      ascii;
    class       volScalarField;
    location    "100";
    object      p;
}
// * * * * * * * * * * * * * * * * * * * * * * * * * * * * * * * * * * * * * //

dimensions      [0 2 -2 0 0 0 0];


internalField   nonuniform List<scalar> 
85864
(
0.00167711
0.00167706
0.00167871
0.00167706
0.00167707
0.00167707
0.00167871
0.00167917
0.00167917
0.00167915
0.00167711
0.00167918
0.00167907
0.00167918
0.00167918
0.00167916
0.00167916
0.00167907
0.00167907
0.00167708
0.00167903
0.00167917
0.00167915
0.00167708
0.00167907
0.00167903
0.00167916
0.00167916
0.00167918
0.00167917
0.0016749
0.00167918
0.00167919
0.0016749
0.0016749
0.00167918
0.00167489
0.00167919
0.0016749
0.00167492
0.00167916
0.00167919
0.00167491
0.0016749
0.00167919
0.0016749
0.0016749
0.00167489
0.00167494
0.0016791
0.00167491
0.00167916
0.00167491
0.00167496
0.00167913
0.00167494
0.0016791
0.0016749
0.00167916
0.00167491
0.00167497
0.00167913
0.00167488
0.00167919
0.00167919
0.00167489
0.00167489
0.00167919
0.0016749
0.00167491
0.00167918
0.00167489
0.00167919
0.0016749
0.00167492
0.00167919
0.00167916
0.0016749
0.00167491
0.00167919
0.00167494
0.0016791
0.00167491
0.00167916
0.00167491
0.00167497
0.00167913
0.00167494
0.0016791
0.00167491
0.00167916
0.00167497
0.00167491
0.00167913
0.00167488
0.00167919
0.00167919
0.00167488
0.00167488
0.00167919
0.0016749
0.00167491
0.0016771
0.00167511
0.00167888
0.00167889
0.00167543
0.00167524
0.00167524
0.00167897
0.00167512
0.00167888
0.00167888
0.00167543
0.00167524
0.00167524
0.00167897
0.0016771
0.00167518
0.00167897
0.00167499
0.00167904
0.0016751
0.00167503
0.00167892
0.00167518
0.00167897
0.00167499
0.00167904
0.00167503
0.0016751
0.00167892
0.00167518
0.00167898
0.00167499
0.00167904
0.00167503
0.0016751
0.00167892
0.00167521
0.00167506
0.00167903
0.00167892
0.00167505
0.00167521
0.00167891
0.00167518
0.00167897
0.00167499
0.00167904
0.00167502
0.0016751
0.00167892
0.00167521
0.00167506
0.00167892
0.00167903
0.00167521
0.00167505
0.00167891
0.00167706
0.0016787
0.00164133
0.00164129
0.00164129
0.00164294
0.00160556
0.00160552
0.00160552
0.00160717
0.00156978
0.00156973
0.00156973
0.00157138
0.001534
0.00153395
0.00153395
0.00153559
0.00149822
0.00149818
0.00149817
0.00149982
0.00146244
0.0014624
0.0014624
0.00146404
0.00142667
0.00142662
0.00142663
0.00142827
0.0013909
0.00139086
0.00139087
0.00139251
0.00135515
0.00135511
0.00135511
0.00135675
0.0013194
0.00131936
0.00131935
0.00132101
0.00128365
0.00128362
0.00128361
0.00128527
0.00124791
0.00124788
0.00124787
0.00124953
0.00121218
0.00121214
0.00121214
0.00121379
0.00117647
0.00117643
0.00117643
0.00117806
0.00114076
0.00114072
0.00114073
0.00114237
0.00110505
0.00110502
0.00110502
0.00110667
0.00106933
0.0010693
0.0010693
0.00107094
0.0010336
0.00103356
0.00103356
0.00103521
0.00099787
0.000997826
0.000997832
0.000999474
0.000962145
0.000962103
0.000962108
0.000963746
0.000926425
0.000926388
0.000926385
0.000928031
0.000890698
0.000890661
0.000890663
0.000892309
0.000854973
0.00085493
0.000854933
0.00085658
0.000819249
0.000819209
0.000819205
0.000820854
0.000783515
0.000783476
0.000783478
0.000785126
0.000747779
0.000747741
0.000747739
0.000749385
0.000712048
0.000712012
0.000712012
0.000713661
0.000676319
0.000676279
0.000676279
0.00067792
0.00064058
0.000640538
0.000640534
0.000642179
0.000604825
0.000604783
0.00060478
0.000606427
0.000569072
0.000569029
0.000569029
0.000570675
0.000533327
0.000533283
0.000533284
0.000534929
0.000497575
0.000497538
0.000497536
0.000499187
0.000461822
0.000461784
0.000461788
0.000463433
0.000426073
0.000426038
0.000426039
0.000427687
0.000390329
0.000390294
0.000390292
0.000391939
0.000354582
0.000354542
0.000354541
0.000356189
0.000318823
0.000318781
0.000318786
0.000320429
0.00028307
0.00028303
0.000283032
0.000284674
0.000247318
0.000247278
0.00024728
0.000248923
0.000211565
0.000211533
0.00021153
0.00021317
0.000175802
0.000175775
0.000175775
0.000177414
0.000140025
0.000139999
0.00014
0.000141624
0.000104215
0.000104195
0.000104198
0.000105802
6.83907e-05
6.83717e-05
6.83707e-05
6.99192e-05
3.32383e-05
3.27504e-05
3.27544e-05
3.39682e-05
6.75721e-06
6.84871e-06
6.84769e-06
5.96276e-06
0.00164858
0.00167706
0.00165022
0.00165022
0.0016787
0.00164858
0.00165022
0.00165022
0.00167706
0.00165021
0.00165022
0.00164858
0.00167706
0.00165022
0.00165022
0.00164858
0.00164294
0.00161281
0.00164129
0.00164129
0.00161445
0.00161445
0.00164294
0.00161281
0.00164129
0.00164129
0.00161445
0.00161445
0.00164129
0.00161445
0.00161445
0.00164294
0.00161282
0.00164129
0.00161445
0.00161446
0.00161281
0.00160717
0.00157703
0.00160552
0.00160552
0.00157867
0.00157867
0.00160717
0.00157703
0.00160552
0.00160552
0.00157867
0.00157867
0.00160552
0.00157866
0.00157867
0.00160717
0.00157703
0.00160552
0.00157866
0.00157867
0.00157702
0.00157139
0.00154125
0.00156974
0.00156974
0.00154289
0.00154289
0.00157138
0.00154124
0.00156974
0.00156973
0.00154289
0.00154288
0.00156974
0.00154288
0.00154289
0.00157138
0.00154124
0.00156973
0.00154288
0.00154288
0.00154124
0.0015356
0.00150547
0.00153396
0.00153396
0.00150711
0.00150711
0.0015356
0.00150547
0.00153396
0.00153395
0.00150711
0.0015071
0.00153395
0.0015071
0.00150711
0.0015356
0.00150546
0.00153395
0.0015071
0.00150711
0.00150546
0.00149983
0.00146969
0.00149818
0.00149818
0.00147133
0.00147133
0.00149983
0.00146969
0.00149818
0.00149817
0.00147133
0.00147133
0.00149817
0.00147133
0.00147133
0.00149982
0.00146969
0.00149818
0.00147132
0.00147133
0.00146969
0.00146405
0.00143392
0.0014624
0.0014624
0.00143556
0.00143555
0.00146404
0.00143391
0.0014624
0.0014624
0.00143556
0.00143556
0.0014624
0.00143555
0.00143556
0.00146404
0.00143392
0.0014624
0.00143555
0.00143556
0.00143392
0.00142828
0.00139815
0.00142663
0.00142662
0.00139979
0.00139979
0.00142827
0.00139815
0.00142663
0.00142663
0.00139979
0.0013998
0.00142663
0.00139979
0.00139979
0.00142828
0.00139816
0.00142663
0.00139979
0.00139979
0.00139815
0.00139251
0.0013624
0.00139086
0.00139086
0.00136403
0.00136404
0.00139251
0.0013624
0.00139087
0.00139087
0.00136403
0.00136404
0.00139087
0.00136403
0.00136404
0.00139251
0.0013624
0.00139087
0.00136403
0.00136403
0.00136239
0.00135676
0.00132665
0.00135511
0.00135511
0.00132828
0.00132829
0.00135676
0.00132665
0.00135511
0.00135511
0.00132828
0.00132828
0.00135511
0.00132829
0.00132829
0.00135676
0.00132664
0.00135511
0.00132828
0.00132829
0.00132665
0.00132101
0.0012909
0.00131936
0.00131936
0.00129254
0.00129255
0.00132101
0.00129091
0.00131936
0.00131936
0.00129254
0.00129254
0.00131937
0.00129254
0.00129254
0.001321
0.0012909
0.00131936
0.00129253
0.00129254
0.0012909
0.00128526
0.00125516
0.00128361
0.00128362
0.0012568
0.0012568
0.00128527
0.00125516
0.00128361
0.00128361
0.0012568
0.0012568
0.00128362
0.0012568
0.0012568
0.00128526
0.00125516
0.00128362
0.00125679
0.0012568
0.00125517
0.00124952
0.00121943
0.00124788
0.00124788
0.00122107
0.00122106
0.00124952
0.00121942
0.00124788
0.00124788
0.00122107
0.00122107
0.00124788
0.00122106
0.00122107
0.00124952
0.00121943
0.00124788
0.00122106
0.00122107
0.00121943
0.00121379
0.00118371
0.00121215
0.00121214
0.00118534
0.00118534
0.00121379
0.00118371
0.00121215
0.00121215
0.00118535
0.00118535
0.00121215
0.00118534
0.00118534
0.00121379
0.00118371
0.00121215
0.00118534
0.00118534
0.0011837
0.00117807
0.001148
0.00117643
0.00117643
0.00114964
0.00114964
0.00117807
0.001148
0.00117643
0.00117643
0.00114964
0.00114964
0.00117642
0.00114963
0.00114964
0.00117808
0.00114801
0.00117643
0.00114964
0.00114964
0.001148
0.00114237
0.0011123
0.00114073
0.00114072
0.00111393
0.00111393
0.00114237
0.0011123
0.00114072
0.00114073
0.00111394
0.00111394
0.00114073
0.00111393
0.00111394
0.00114237
0.0011123
0.00114073
0.00111393
0.00111394
0.0011123
0.00110667
0.00107658
0.00110502
0.00110502
0.00107822
0.00107822
0.00110667
0.00107659
0.00110502
0.00110502
0.00107821
0.00107822
0.00110502
0.00107822
0.00107822
0.00110667
0.00107658
0.00110502
0.00107822
0.00107822
0.00107658
0.00107094
0.00104085
0.0010693
0.0010693
0.00104249
0.00104249
0.00107095
0.00104085
0.00106929
0.0010693
0.00104248
0.00104248
0.0010693
0.00104249
0.00104249
0.00107095
0.00104085
0.0010693
0.00104248
0.00104249
0.00104085
0.00103521
0.00100512
0.00103356
0.00103357
0.00100675
0.00100675
0.00103521
0.00100511
0.00103356
0.00103356
0.00100675
0.00100675
0.00103357
0.00100674
0.00100675
0.00103521
0.00100512
0.00103357
0.00100675
0.00100675
0.00100511
0.000999481
0.000969392
0.000997833
0.000997832
0.000971027
0.000971025
0.000999476
0.000969386
0.000997833
0.000997836
0.000971026
0.000971027
0.000997831
0.000971017
0.000971025
0.000999482
0.000969393
0.000997831
0.000971023
0.000971025
0.000969385
0.000963759
0.00093367
0.000962112
0.000962107
0.000935304
0.000935309
0.00096375
0.000933676
0.000962111
0.000962112
0.000935307
0.000935308
0.000962106
0.000935302
0.000935305
0.000963757
0.000933671
0.000962107
0.000935301
0.000935305
0.000933669
0.000928035
0.000897945
0.000926387
0.000926391
0.000899578
0.00089958
0.000928038
0.000897947
0.000926387
0.000926389
0.00089958
0.000899583
0.000926389
0.00089958
0.000899585
0.000928033
0.000897948
0.000926388
0.000899578
0.000899582
0.000897945
0.00089231
0.000862217
0.000890659
0.00089066
0.000863852
0.000863853
0.000892308
0.000862215
0.000890662
0.000890664
0.000863851
0.000863854
0.000890668
0.000863847
0.000863858
0.000892311
0.000862218
0.000890666
0.000863851
0.000863858
0.000862221
0.000856583
0.000826496
0.000854937
0.000854935
0.000828129
0.000828131
0.000856579
0.000826495
0.000854934
0.000854934
0.000828129
0.000828128
0.000854938
0.000828125
0.00082813
0.000856579
0.000826492
0.000854938
0.000828122
0.00082813
0.000826492
0.000820861
0.000790763
0.000819213
0.000819212
0.000792398
0.000792403
0.000820858
0.000790766
0.000819213
0.00081921
0.0007924
0.000792401
0.000819212
0.000792395
0.000792401
0.000820853
0.000790765
0.000819211
0.000792398
0.000792403
0.000790766
0.000785124
0.000755027
0.000783476
0.000783479
0.000756662
0.00075666
0.000785127
0.000755025
0.000783479
0.00078348
0.00075666
0.000756665
0.000783481
0.000756658
0.000756665
0.000785125
0.000755029
0.000783482
0.00075666
0.000756663
0.000755025
0.000749391
0.000719293
0.000747742
0.000747742
0.000720928
0.000720933
0.000749388
0.000719298
0.000747742
0.000747744
0.000720929
0.000720935
0.000747745
0.00072093
0.000720936
0.000749387
0.0007193
0.000747742
0.00072093
0.000720937
0.000719301
0.000713655
0.000683569
0.000712009
0.000712014
0.000685203
0.000685204
0.00071366
0.00068357
0.000712011
0.000712016
0.000685202
0.000685203
0.000712017
0.000685198
0.000685201
0.00071366
0.000683568
0.000712019
0.000685201
0.000685204
0.000683564
0.000677931
0.000647833
0.000676283
0.000676284
0.00064947
0.000649469
0.00067793
0.00064783
0.000676283
0.000676281
0.000649466
0.000649463
0.000676277
0.000649461
0.00064946
0.000677927
0.000647823
0.000676281
0.000649454
0.000649458
0.000647821
0.000642192
0.000612079
0.000640545
0.000640544
0.000613715
0.000613715
0.000642189
0.000612077
0.000640542
0.000640538
0.000613713
0.000613712
0.000640536
0.000613708
0.00061371
0.000642182
0.000612073
0.000640534
0.000613704
0.000613707
0.00061207
0.000606438
0.000576325
0.00060479
0.000604788
0.000577958
0.000577956
0.000606434
0.000576319
0.000604788
0.000604787
0.00057796
0.000577958
0.000604787
0.000577953
0.000577957
0.00060643
0.00057632
0.000604782
0.000577952
0.000577955
0.000576317
0.000570684
0.000540581
0.000569034
0.00056903
0.000542214
0.00054221
0.000570676
0.000540573
0.000569036
0.000569032
0.000542214
0.00054221
0.000569034
0.000542204
0.000542209
0.000570677
0.000540574
0.000569032
0.000542206
0.000542212
0.000540573
0.000534941
0.000504825
0.000533291
0.000533287
0.000506461
0.000506462
0.000534933
0.000504828
0.00053329
0.000533286
0.000506462
0.000506463
0.000533286
0.00050646
0.000506465
0.000534931
0.000504826
0.000533287
0.000506458
0.000506464
0.000504828
0.000499184
0.000469074
0.000497538
0.000497537
0.00047071
0.000470711
0.000499184
0.000469075
0.000497536
0.000497538
0.000470709
0.000470714
0.000497542
0.000470709
0.000470714
0.000499184
0.000469079
0.000497541
0.000470711
0.000470716
0.000469077
0.000463432
0.000433324
0.000461786
0.000461787
0.00043496
0.000434962
0.000463431
0.000433324
0.000461784
0.000461789
0.000434959
0.000434964
0.00046179
0.000434958
0.000434966
0.000463436
0.00043333
0.000461791
0.000434962
0.000434967
0.000433331
0.000427683
0.000397581
0.000426038
0.000426039
0.000399217
0.000399221
0.000427685
0.000397586
0.000426036
0.00042604
0.000399215
0.000399218
0.000426044
0.000399217
0.00039922
0.000427686
0.000397582
0.000426043
0.000399214
0.00039922
0.000397582
0.00039194
0.000361836
0.000390295
0.000390299
0.00036347
0.000363472
0.000391943
0.000361835
0.000390294
0.000390294
0.000363469
0.000363468
0.000390298
0.000363467
0.000363471
0.00039194
0.000361832
0.000390295
0.000363465
0.000363471
0.000361835
0.000356193
0.000326078
0.000354546
0.000354545
0.000327713
0.000327712
0.000356191
0.000326074
0.000354545
0.000354543
0.000327713
0.000327714
0.000354544
0.000327706
0.000327712
0.000356189
0.000326079
0.000354546
0.000327709
0.000327714
0.000326075
0.000320434
0.000290324
0.000318787
0.000318786
0.000291959
0.000291954
0.00032043
0.000290317
0.000318788
0.00031879
0.000291959
0.000291961
0.000318786
0.000291949
0.000291955
0.000320436
0.000290326
0.000318788
0.000291955
0.000291956
0.000290319
0.000284681
0.000254573
0.000283035
0.00028303
0.000256206
0.000256204
0.000284676
0.000254566
0.000283036
0.000283037
0.000256206
0.000256206
0.000283031
0.000256198
0.000256204
0.000284682
0.000254571
0.000283032
0.000256201
0.000256204
0.000254568
0.000248927
0.000218822
0.000247283
0.000247281
0.000220455
0.000220457
0.000248923
0.000218824
0.000247283
0.000247282
0.000220455
0.000220456
0.000247282
0.000220451
0.000220458
0.000248925
0.000218822
0.000247283
0.00022045
0.000220455
0.000218822
0.000213172
0.000183065
0.000211532
0.000211534
0.000184698
0.000184701
0.000213177
0.000183069
0.000211532
0.000211534
0.000184697
0.000184701
0.000211535
0.000184696
0.000184704
0.000213174
0.000183068
0.000211533
0.000184696
0.000184702
0.000183071
0.000177408
0.000147302
0.000175774
0.000175778
0.000148931
0.000148933
0.000177414
0.0001473
0.000175773
0.000175777
0.000148931
0.000148932
0.00017578
0.000148926
0.000148932
0.000177412
0.000147301
0.00017578
0.000148927
0.000148932
0.000147298
0.000141632
0.000111509
0.000140004
0.000140004
0.000113135
0.000113133
0.000141629
0.000111505
0.000140005
0.000140004
0.000113137
0.000113136
0.000140003
0.000113129
0.000113133
0.000141628
0.000111505
0.000140003
0.00011313
0.000113134
0.000111503
0.000105808
7.5685e-05
0.0001042
0.000104198
7.73074e-05
7.73068e-05
0.000105803
7.56849e-05
0.000104203
0.000104202
7.7307e-05
7.73096e-05
0.000104198
7.73023e-05
7.73046e-05
0.000105805
7.5688e-05
0.0001042
7.73056e-05
7.73086e-05
7.56835e-05
6.99215e-05
3.99312e-05
6.8372e-05
6.83727e-05
4.15415e-05
4.15441e-05
6.99233e-05
3.99331e-05
6.83718e-05
6.83738e-05
4.15424e-05
4.15469e-05
6.83704e-05
4.15376e-05
4.15393e-05
6.99241e-05
3.99369e-05
6.83745e-05
4.15448e-05
4.15416e-05
3.9927e-05
3.39811e-05
8.36973e-06
3.27543e-05
3.27551e-05
1.00993e-05
1.00988e-05
3.39775e-05
8.37416e-06
3.27545e-05
3.27569e-05
1.0102e-05
1.00975e-05
3.27516e-05
1.01001e-05
1.00996e-05
3.3983e-05
8.3718e-06
3.27515e-05
1.00972e-05
1.00994e-05
8.36987e-06
5.96174e-06
6.84098e-06
6.84383e-06
5.96513e-06
6.84159e-06
6.84208e-06
6.7597e-06
6.75972e-06
6.7618e-06
6.8453e-06
5.96245e-06
6.842e-06
0.00166599
0.00166599
0.00167914
0.00167917
0.00166597
0.00166601
0.00166599
0.0016771
0.00167711
0.00165025
0.00165025
0.00165025
0.00165025
0.00166613
0.00167907
0.00167707
0.00166813
0.00166608
0.00166813
0.00167902
0.00166599
0.00166613
0.00167708
0.00166813
0.00166814
0.00166608
0.00167904
0.00167916
0.00167916
0.00166647
0.001666
0.001666
0.00163023
0.00164343
0.00164341
0.00163023
0.00164344
0.00163022
0.00163023
0.00164343
0.00164342
0.00163022
0.00164133
0.00164133
0.00164133
0.00161448
0.00161449
0.00161449
0.00161449
0.00163036
0.00164334
0.0016413
0.00163235
0.00164328
0.00163032
0.00163236
0.00164345
0.00163023
0.00163037
0.0016413
0.00164335
0.00163236
0.0016433
0.00163237
0.00163032
0.00164343
0.00164343
0.0016307
0.00163023
0.00163024
0.00159445
0.00160766
0.00160765
0.00159444
0.00160767
0.00159444
0.00159446
0.00160766
0.00160765
0.00159445
0.00160556
0.00160556
0.00160556
0.0015787
0.00157871
0.00157871
0.00157871
0.00159458
0.00160757
0.00160552
0.00159658
0.00160751
0.00159454
0.00159658
0.00160769
0.00159446
0.00159458
0.00160553
0.00160758
0.00159658
0.00160752
0.00159659
0.00159454
0.00160767
0.00160767
0.00159493
0.00159445
0.00159445
0.00155867
0.00157188
0.00157186
0.00155866
0.00157189
0.00155866
0.00155867
0.00157188
0.00157186
0.00155867
0.00156978
0.00156978
0.00156978
0.00154292
0.00154293
0.00154292
0.00154292
0.0015588
0.00157179
0.00156974
0.00156079
0.00157174
0.00155875
0.0015608
0.0015719
0.00155866
0.00155879
0.00156974
0.00157179
0.00156079
0.00157173
0.0015608
0.00155875
0.00157187
0.00157189
0.00155913
0.00155867
0.00155866
0.0015229
0.0015361
0.00153608
0.00152289
0.00153611
0.00152288
0.00152289
0.0015361
0.00153608
0.00152288
0.001534
0.00153399
0.001534
0.00150714
0.00150715
0.00150714
0.00150714
0.00152302
0.00153601
0.00153396
0.00152501
0.00153596
0.00152298
0.00152502
0.00153611
0.00152287
0.00152301
0.00153396
0.00153599
0.00152501
0.00153595
0.00152502
0.00152296
0.00153609
0.00153608
0.00152335
0.0015229
0.00152289
0.00148712
0.00150032
0.00150031
0.00148711
0.00150033
0.00148711
0.00148711
0.00150031
0.0015003
0.0014871
0.00149822
0.00149821
0.00149822
0.00147136
0.00147137
0.00147136
0.00147137
0.00148723
0.00150023
0.00149818
0.00148924
0.00150017
0.00148719
0.00148924
0.00150032
0.0014871
0.00148724
0.00149818
0.00150022
0.00148923
0.00150017
0.00148924
0.00148719
0.00150031
0.00150033
0.00148758
0.00148711
0.00148711
0.00145134
0.00146454
0.00146453
0.00145133
0.00146455
0.00145132
0.00145133
0.00146453
0.00146451
0.00145132
0.00146244
0.00146244
0.00146244
0.00143559
0.00143559
0.00143559
0.00143559
0.00145146
0.00146444
0.0014624
0.00145346
0.00146439
0.00145141
0.00145346
0.00146453
0.00145131
0.00145147
0.00146241
0.00146444
0.00145346
0.0014644
0.00145347
0.00145141
0.00146454
0.00146453
0.0014518
0.00145132
0.00145133
0.00141556
0.00142877
0.00142875
0.00141556
0.00142878
0.00141555
0.00141558
0.00142877
0.00142876
0.00141557
0.00142667
0.00142667
0.00142667
0.00139982
0.00139983
0.00139983
0.00139983
0.0014157
0.00142867
0.00142663
0.00141769
0.00142862
0.00141564
0.00141769
0.00142877
0.00141555
0.0014157
0.00142664
0.00142868
0.00141769
0.00142863
0.0014177
0.00141565
0.00142876
0.00142877
0.00141603
0.00141556
0.00141557
0.00137979
0.00139299
0.00139298
0.00137978
0.001393
0.00137978
0.00137981
0.00139301
0.001393
0.00137979
0.0013909
0.00139091
0.00139091
0.00136406
0.00136407
0.00136407
0.00136407
0.00137993
0.00139291
0.00139087
0.00138193
0.00139286
0.00137988
0.00138194
0.00139301
0.00137979
0.00137994
0.00139088
0.00139292
0.00138193
0.00139286
0.00138194
0.00137989
0.00139299
0.00139301
0.00138028
0.00137981
0.0013798
0.00134405
0.00135724
0.00135723
0.00134404
0.00135725
0.00134404
0.00134405
0.00135724
0.00135724
0.00134404
0.00135515
0.00135515
0.00135515
0.00132831
0.00132832
0.00132832
0.00132832
0.00134419
0.00135715
0.00135512
0.00134618
0.0013571
0.00134413
0.00134619
0.00135725
0.00134404
0.00134418
0.00135512
0.00135716
0.00134617
0.0013571
0.00134618
0.00134413
0.00135725
0.00135725
0.00134452
0.00134405
0.00134405
0.0013083
0.00132149
0.00132148
0.00130829
0.00132152
0.00130829
0.00130829
0.00132148
0.00132147
0.00130828
0.00131941
0.0013194
0.0013194
0.00129257
0.00129258
0.00129257
0.00129258
0.00130844
0.00132141
0.00131937
0.00131043
0.00132137
0.00130839
0.00131044
0.0013215
0.00130828
0.00130842
0.00131936
0.0013214
0.00131042
0.00132135
0.00131043
0.00130838
0.00132149
0.00132149
0.00130878
0.0013083
0.00130831
0.00127257
0.00128575
0.00128574
0.00127255
0.00128576
0.00127255
0.00127256
0.00128575
0.00128573
0.00127255
0.00128366
0.00128365
0.00128366
0.00125683
0.00125684
0.00125683
0.00125684
0.00127269
0.00128567
0.00128363
0.00127469
0.00128562
0.00127265
0.0012747
0.00128574
0.00127254
0.00127269
0.00128362
0.00128566
0.00127468
0.00128561
0.00127469
0.00127264
0.00128576
0.00128575
0.00127304
0.00127256
0.00127256
0.00123683
0.00125001
0.00125
0.00123682
0.00125002
0.00123681
0.00123682
0.00125001
0.00124998
0.00123681
0.00124792
0.00124792
0.00124792
0.0012211
0.0012211
0.0012211
0.0012211
0.00123695
0.00124993
0.00124789
0.00123895
0.00124987
0.0012369
0.00123895
0.00125001
0.0012368
0.00123696
0.00124789
0.00124992
0.00123894
0.00124987
0.00123896
0.0012369
0.00125001
0.00125001
0.0012373
0.00123682
0.00123682
0.00120109
0.00121428
0.00121426
0.00120109
0.00121428
0.00120107
0.00120109
0.00121428
0.00121425
0.00120109
0.00121219
0.00121219
0.00121219
0.00118537
0.00118538
0.00118538
0.00118538
0.00120122
0.00121418
0.00121215
0.00120321
0.00121413
0.00120117
0.00120322
0.00121428
0.00120108
0.00120122
0.00121216
0.00121419
0.00120322
0.00121414
0.00120323
0.00120117
0.00121427
0.00121428
0.00120157
0.00120108
0.00120109
0.00116538
0.00117856
0.00117854
0.00116537
0.00117856
0.00116536
0.00116538
0.00117856
0.00117853
0.00116538
0.00117647
0.00117647
0.00117647
0.00114967
0.00114967
0.00114967
0.00114967
0.00116551
0.00117846
0.00117643
0.0011675
0.00117842
0.00116546
0.00116751
0.00117856
0.00116537
0.00116551
0.00117643
0.00117846
0.0011675
0.00117841
0.00116751
0.00116546
0.00117856
0.00117855
0.00116585
0.00116537
0.00116537
0.00112968
0.00114286
0.00114284
0.00112967
0.00114286
0.00112966
0.00112968
0.00114286
0.00114284
0.00112968
0.00114076
0.00114076
0.00114076
0.00111396
0.00111397
0.00111397
0.00111397
0.00112981
0.00114276
0.00114073
0.0011318
0.00114271
0.00112976
0.00113181
0.00114287
0.00112967
0.0011298
0.00114074
0.00114277
0.0011318
0.00114272
0.00113181
0.00112976
0.00114285
0.00114284
0.00113016
0.00112967
0.00112968
0.00109397
0.00110715
0.00110713
0.00109396
0.00110716
0.00109396
0.00109398
0.00110715
0.00110714
0.00109396
0.00110506
0.00110506
0.00110506
0.00107824
0.00107826
0.00107826
0.00107826
0.0010941
0.00110706
0.00110503
0.00109609
0.00110701
0.00109405
0.0010961
0.00110716
0.00109396
0.00109411
0.00110503
0.00110707
0.0010961
0.00110702
0.00109611
0.00109406
0.00110715
0.00110716
0.00109445
0.00109397
0.00109398
0.00105826
0.00107143
0.00107143
0.00105824
0.00107145
0.00105824
0.00105824
0.00107143
0.00107142
0.00105823
0.00106934
0.00106934
0.00106934
0.00104251
0.00104252
0.00104252
0.00104252
0.00105838
0.00107134
0.00106931
0.00106037
0.0010713
0.00105833
0.00106038
0.00107144
0.00105823
0.00105838
0.0010693
0.00107134
0.00106037
0.00107129
0.00106038
0.00105832
0.00107143
0.00107142
0.00105872
0.00105824
0.00105824
0.00102252
0.0010357
0.00103569
0.00102251
0.00103572
0.0010225
0.00102251
0.00103569
0.00103568
0.0010225
0.00103361
0.00103361
0.00103361
0.00100678
0.00100679
0.00100679
0.00100679
0.00102263
0.00103561
0.00103357
0.00102463
0.00103555
0.00102259
0.00102464
0.0010357
0.00102249
0.00102265
0.00103357
0.00103561
0.00102463
0.00103555
0.00102464
0.00102259
0.00103569
0.0010357
0.00102298
0.0010225
0.0010225
0.000986779
0.000999966
0.000999947
0.000986775
0.000999972
0.000986772
0.000986784
0.000999963
0.000999953
0.000986774
0.000997871
0.000997876
0.000997872
0.000971055
0.000971059
0.000971065
0.00097106
0.00098691
0.000999867
0.000997835
0.000988899
0.000999821
0.000986853
0.000988909
0.000999976
0.000986775
0.000986913
0.000997839
0.000999874
0.000988905
0.000999822
0.000988911
0.000986862
0.000999961
0.000999962
0.000987251
0.000986776
0.000986775
0.00095106
0.000964248
0.000964227
0.000951059
0.000964243
0.000951038
0.000951063
0.000964241
0.000964228
0.000951057
0.000962147
0.00096215
0.000962147
0.000935334
0.000935342
0.000935342
0.00093534
0.0009512
0.000964142
0.000962113
0.000953179
0.000964096
0.000951133
0.000953189
0.000964259
0.000951046
0.000951192
0.000962117
0.000964153
0.000953182
0.000964104
0.00095319
0.000951139
0.000964232
0.000964238
0.000951528
0.000951045
0.000951054
0.00091534
0.000928528
0.000928509
0.000915333
0.00092852
0.000915324
0.00091534
0.000928526
0.000928508
0.000915332
0.00092643
0.000926429
0.000926428
0.000899608
0.000899619
0.000899619
0.000899621
0.000915465
0.000928431
0.000926398
0.000917462
0.000928386
0.000915419
0.000917471
0.00092853
0.00091532
0.000915464
0.000926394
0.000928428
0.000917459
0.000928381
0.000917467
0.000915414
0.000928517
0.000928517
0.000915811
0.00091534
0.000915333
0.000879598
0.000892788
0.000892769
0.00087959
0.000892803
0.000879593
0.000879611
0.000892793
0.000892782
0.0008796
0.000890704
0.000890705
0.000890707
0.000863883
0.00086389
0.000863891
0.000863896
0.000879738
0.00089271
0.000890671
0.000881731
0.000892659
0.00087969
0.000881742
0.000892806
0.000879599
0.000879753
0.000890673
0.000892708
0.000881736
0.000892663
0.000881746
0.000879694
0.000892806
0.000892795
0.000880089
0.00087961
0.00087961
0.000843886
0.000857058
0.000857048
0.000843869
0.000857071
0.000843865
0.000843876
0.00085706
0.000857046
0.000843869
0.000854976
0.000854976
0.00085498
0.000828159
0.000828166
0.000828165
0.000828169
0.00084402
0.000856972
0.000854942
0.000846004
0.000856923
0.00084396
0.000846015
0.000857072
0.000843867
0.000844006
0.000854944
0.000856981
0.000846005
0.000856935
0.000846014
0.000843962
0.000857079
0.000857069
0.000844359
0.000843883
0.000843878
0.000808164
0.000821345
0.000821331
0.000808154
0.00082135
0.000808155
0.000808161
0.00082134
0.000821327
0.000808154
0.000819252
0.000819251
0.000819253
0.000792429
0.000792436
0.000792436
0.000792437
0.000808286
0.00082125
0.000819217
0.000810281
0.000821204
0.000808236
0.000810289
0.000821351
0.000808147
0.00080829
0.000819216
0.000821256
0.000810279
0.000821197
0.000810288
0.00080824
0.000821342
0.000821334
0.000808632
0.000808153
0.000808149
0.000772419
0.000785615
0.000785598
0.000772413
0.000785617
0.000772405
0.000772422
0.000785614
0.000785598
0.000772413
0.000783519
0.00078352
0.000783521
0.000756692
0.000756699
0.000756701
0.0007567
0.000772551
0.00078552
0.000783485
0.000774545
0.000785471
0.000772501
0.000774553
0.000785617
0.000772407
0.00077256
0.000783485
0.000785527
0.000774548
0.000785477
0.000774555
0.000772506
0.000785608
0.000785607
0.000772899
0.000772427
0.000772418
0.000736681
0.000749868
0.000749852
0.000736673
0.000749873
0.000736661
0.000736685
0.00074987
0.000749858
0.000736676
0.000747783
0.000747784
0.000747785
0.000720959
0.00072097
0.000720971
0.000720973
0.000736826
0.000749781
0.000747751
0.000738813
0.000749741
0.00073677
0.000738823
0.000749885
0.00073667
0.000736822
0.000747749
0.000749786
0.000738811
0.000749726
0.000738821
0.000736768
0.000749869
0.000749877
0.000737163
0.000736684
0.000736685
0.000700956
0.00071414
0.000714122
0.000700945
0.00071415
0.000700936
0.000700961
0.000714143
0.000714129
0.000700948
0.000712056
0.000712057
0.000712058
0.000685232
0.00068524
0.00068524
0.00068524
0.000701092
0.000714058
0.000712023
0.000703084
0.000714009
0.000701042
0.000703093
0.000714154
0.000700951
0.000701101
0.000712024
0.000714057
0.000703085
0.000714012
0.000703095
0.000701047
0.00071415
0.000714148
0.000701437
0.000700967
0.00070096
0.000665232
0.000678417
0.000678398
0.000665225
0.000678422
0.000665219
0.000665229
0.000678413
0.000678398
0.000665218
0.000676324
0.000676323
0.000676321
0.000649495
0.000649499
0.000649498
0.000649495
0.000665354
0.000678323
0.000676284
0.000667347
0.000678271
0.000665309
0.000667354
0.000678426
0.000665207
0.000665359
0.000676289
0.000678327
0.000667346
0.000678278
0.000667355
0.000665305
0.000678407
0.000678413
0.000665693
0.000665216
0.000665215
0.000629494
0.000642676
0.00064267
0.000629476
0.000642691
0.000629477
0.000629484
0.000642679
0.000642663
0.000629479
0.00064058
0.000640578
0.000640575
0.000613744
0.000613748
0.000613746
0.000613744
0.000629613
0.000642581
0.000640544
0.000631603
0.000642527
0.000629559
0.000631611
0.000642679
0.00062946
0.000629605
0.000640543
0.000642575
0.000631601
0.000642536
0.000631609
0.000629555
0.000642662
0.00064266
0.000629946
0.000629469
0.000629465
0.000593721
0.000606922
0.000606905
0.000593715
0.000606926
0.000593711
0.000593729
0.00060692
0.00060691
0.000593716
0.000604826
0.000604825
0.000604823
0.000577988
0.000577992
0.000577992
0.000577993
0.000593856
0.000606831
0.000604792
0.000595848
0.00060678
0.000593806
0.000595858
0.000606927
0.000593708
0.00059385
0.000604788
0.000606827
0.000595846
0.000606774
0.000595853
0.000593801
0.000606913
0.000606904
0.000594197
0.000593718
0.000593711
0.000557973
0.000571161
0.000571145
0.000557962
0.000571171
0.00055796
0.000557978
0.000571165
0.000571154
0.000557967
0.000569072
0.000569072
0.000569072
0.000542242
0.000542244
0.000542245
0.000542246
0.000558096
0.000571081
0.000569037
0.000560096
0.000571018
0.000558055
0.000560102
0.000571177
0.000557963
0.00055811
0.000569039
0.000571071
0.000560097
0.000571021
0.000560106
0.000558052
0.000571166
0.000571165
0.00055845
0.000557959
0.000557966
0.000522234
0.000535422
0.000535411
0.000522223
0.000535425
0.000522217
0.000522234
0.000535426
0.000535412
0.000522226
0.000533325