/*--------------------------------*- C++ -*----------------------------------*\
| =========                 |                                                 |
| \\      /  F ield         | OpenFOAM: The Open Source CFD Toolbox           |
|  \\    /   O peration     | Version:  v2012                                 |
|   \\  /    A nd           | Website:  www.openfoam.com                      |
|    \\/     M anipulation  |                                                 |
\*---------------------------------------------------------------------------*/
FoamFile
{
    version     2.0;
    format      ascii;
    class       surfaceScalarField;
    location    "100";
    object      phi;
}
// * * * * * * * * * * * * * * * * * * * * * * * * * * * * * * * * * * * * * //

dimensions      [0 3 -1 0 0 0 0];
oriented        oriented;


internalField   nonuniform List<scalar> 
248808
(
3.48501e-09
4.26096e-11
-3.11249e-09
-2.06477e-09
0.00114647
-1.28578e-06
-2.3389e-09
-3.11429e-07
1.29154e-06
3.09123e-07
9.73358e-07
-3.15085e-07
3.09622e-07
-9.72155e-07
4.98648e-09
0.00113572
1.32672e-06
1.2884e-06
-2.66092e-07
-2.75394e-07
0.000273956
-3.17087e-07
1.33104e-06
3.14646e-07
9.74313e-07
-3.12879e-07
3.06595e-07
-9.72316e-07
7.62451e-09
0.00113528
5.75368e-09
-3.14045e-07
1.29492e-06
3.12879e-07
9.76188e-07
-3.1658e-07
3.09089e-07
-9.75796e-07
0.00113639
-1.32558e-06
-1.36553e-09
6.07784e-09
-3.19589e-07
1.33197e-06
3.17792e-07
9.74662e-07
-3.154e-07
3.08669e-07
-9.74787e-07
0.0011353
-2.66793e-07
-2.74098e-07
0.000273917
-8.2044e-09
5.58168e-08
0.000196807
-9.22009e-09
-8.52145e-09
5.56987e-08
0.000196824
-9.30002e-09
7.84511e-08
1.69892e-10
0.000236606
-7.32716e-10
-3.61994e-08
-2.15151e-09
-2.35644e-09
0.00114606
8.40712e-09
3.01938e-08
9.88424e-05
-3.20445e-08
-5.49275e-08
1.38919e-07
0.000252741
1.96052e-08
2.74503e-08
9.87844e-05
2.7985e-08
9.87727e-05
3.20309e-08
5.76654e-08
0.000284356
-1.7311e-08
3.41052e-08
5.80798e-08
0.00028428
-1.81603e-08
1.37383e-07
0.000252738
2.02308e-08
1.37333e-07
0.00025275
1.94936e-08
3.52846e-09
3.06451e-09
1.05691e-06
-8.66786e-07
8.70601e-07
-1.05027e-06
0.00113783
2.39101e-09
0.000260135
-6.57629e-10
2.14237e-07
5.83602e-08
0.000196837
-9.69752e-09
7.80165e-08
0.000236523
-3.60709e-08
-6.37817e-10
2.48127e-09
1.05595e-06
-8.69169e-07
8.7054e-07
-1.05187e-06
0.00113775
-3.32797e-08
1.37133e-07
0.000252609
2.1582e-08
0.000259981
2.16466e-07
-6.70031e-10
6.00728e-08
0.000284234
-1.57833e-08
-2.68479e-08
5.92373e-08
0.000284372
-1.68521e-08
9.27105e-09
9.87781e-05
0.000196811
-7.82794e-09
1.08244e-08
-5.32475e-08
4.37956e-09
0.000196845
-3.71944e-08
6.87292e-08
0.000268426
2.76582e-09
7.98081e-05
1.88484e-09
-3.396e-08
-7.98478e-05
-1.87568e-09
7.98836e-05
5.25538e-09
1.03168e-08
-5.57755e-08
0.000196864
0.000268513
-3.53727e-08
1.4167e-09
6.86573e-08
-4.42104e-09
-7.2853e-08
0.000268561
8.42751e-10
-3.58088e-08
8.24603e-10
-0.000144857
0.00014489
2.28412e-09
3.73603e-08
1.38633e-11
-8.38241e-08
0.00023665
0.000229431
-3.55202e-08
7.68371e-08
0.000173063
4.08376e-10
-2.20953e-10
-8.3507e-08
0.000229477
-4.33216e-10
0.000173101
-1.01978e-08
-2.75382e-08
9.88801e-05
-2.55987e-08
9.88208e-05
-2.53343e-08
9.88084e-05
3.95957e-08
-3.30074e-08
-0.000228046
2.9695e-08
-8.11912e-08
0.000228091
0.000258925
-3.62758e-08
1.17776e-07
4.96807e-08
1.71389e-08
-5.55829e-08
-3.25823e-08
0.000284402
0.000186252
4.00775e-08
-1.94999e-08
1.86073e-08
0.00018629
-1.19561e-07
-4.40704e-08
0.000259
-3.11034e-08
7.83077e-08
3.94308e-08
-3.43748e-08
-0.000227968
2.82363e-08
-8.36923e-08
0.000228019
0.000258859
-3.51617e-08
1.18487e-07
5.38452e-08
1.64694e-08
-5.57465e-08
-3.52668e-08
0.000284329
0.000186185
4.02298e-08
-1.93252e-08
1.88421e-08
0.000186222
-1.19427e-07
-5.08139e-08
0.000258939
-2.85672e-08
8.03561e-08
1.4452e-08
1.40674e-08
-0.000218291
0.00021832
8.16592e-05
1.41623e-08
8.16444e-05
1.44426e-08
8.16922e-05
8.16773e-05
-3.56345e-08
-7.98977e-05
-2.37784e-09
7.99357e-05
4.57011e-09
-5.49177e-08
0.000196877
0.000268506
-3.77235e-08
1.22085e-09
6.89603e-08
-4.43633e-09
-6.91329e-08
0.000268549
4.70802e-10
3.55946e-10
-3.78736e-08
-0.000144992
0.000145028
3.71479e-08
1.9277e-09
-8.12653e-08
0.000236566
0.000173161
7.85278e-10
0.000229343
-3.69936e-08
7.63888e-08
0.000173199
-7.99174e-08
0.000229382
4.1309e-08
-3.41055e-08
-0.000227957
2.86556e-08
-8.29291e-08
0.000228004
0.000258714
-3.53209e-08
1.17956e-07
5.36435e-08
1.76002e-08
-5.77938e-08
-3.53147e-08
0.000284282
0.000186211
4.22342e-08
-1.86154e-08
1.96866e-08
0.00018625
-1.19168e-07
-5.06327e-08
0.000258792
-2.82056e-08
8.08073e-08
-3.35658e-08
4.21809e-08
-0.000228046
2.99334e-08
-7.90608e-08
0.000228087
0.000258937
-3.58211e-08
1.14832e-07
4.87084e-08
-5.87875e-08
1.65375e-08
2.62396e-08
-3.23977e-08
0.00028442
0.000186251
4.15177e-08
-1.9287e-08
-1.17343e-07
-4.51888e-08
0.000259007
1.89017e-08
0.000186291
-3.09383e-08
7.55551e-08
1.35847e-08
1.44343e-08
-0.000218293
0.000218324
8.1643e-05
1.50379e-08
8.1655e-05
1.43014e-08
8.16762e-05
8.16884e-05
-9.64471e-09
9.8814e-05
-5.41395e-08
5.88203e-09
0.000196849
-1.19583e-10
0.00115397
1.38529e-09
-1.4379e-07
-1.4236e-07
-0.00025076
0.000250881
0.000268378
-1.40147e-07
0.000268839
-1.37016e-07
2.73836e-07
2.811e-07
0.000276027
0.000268703
0.000269171
-1.40673e-07
-1.44058e-07
-0.00025073
0.000250853
0.00026873
-1.40265e-07
0.000268384
-1.37812e-07
2.81652e-07
2.73408e-07
0.000275985
0.000268717
0.000269058
0.00115315
6.39453e-10
2.40413e-08
2.27495e-07
-0.000272338
0.00027308
-1.98983e-08
0.000268828
2.19291e-08
-1.35833e-07
-2.42446e-08
0.000252814
0.000259252
2.23157e-07
-6.76846e-08
5.38799e-09
0.00026898
7.09254e-08
0.000259397
-1.31491e-08
1.63115e-08
2.22588e-07
2.00527e-08
-0.000272361
0.000273104
-1.15055e-08
0.000268827
2.34123e-08
-2.38356e-08
-1.32564e-07
0.000252808
0.000259274
2.18264e-07
6.41874e-09
7.00213e-08
0.000259415
-1.21292e-08
0.000268978
9.09833e-09
2.25019e-07
2.08534e-08
-0.00027244
-2.45264e-08
0.000273195
0.000268881
2.25798e-08
-2.43248e-08
-1.32798e-07
0.000252816
0.000259347
2.21038e-07
8.41462e-09
-1.25064e-08
0.000259487
0.000269027
2.50797e-08
2.44178e-07
-5.65798e-09
-0.000273103
0.000273897
3.57309e-09
-2.2063e-07
1.81955e-10
0.000260268
0.000259036
2.34847e-07
0.000272865
-3.12877e-09
8.05739e-09
0.000259187
-4.28462e-09
0.000273514
2.23285e-07
2.37602e-08
-0.000272213
-8.93443e-09
0.00027295
0.000268684
2.4872e-08
-2.66398e-08
-1.31885e-07
0.000252678
0.000259112
2.20861e-07
5.91489e-09
-9.84043e-09
0.000259249
0.000268834
8.92199e-09
-1.8924e-09
2.43013e-07
-0.000272899
0.000273705
-2.20574e-07
2.81157e-09
0.000260117
0.000272792
-8.29044e-10
0.000258721
2.36734e-07
0.000273436
0.000258877
-1.29106e-06
-3.70004e-09
5.59806e-09
0.00113608
-3.11236e-07
1.29761e-06
3.0954e-07
9.73095e-07
-3.126e-07
3.0689e-07
-9.71955e-07
1.32114e-06
1.28564e-06
-2.68852e-07
-2.75328e-07
0.000273958
1.33513e-09
-1.72155e-09
-0.00114647
-7.77283e-10
-2.12561e-09
0.00114647
-0.00113608
-1.29121e-06
-1.4586e-09
6.23156e-09
0.00113608
-3.11994e-07
1.29757e-06
3.09034e-07
9.72302e-07
-3.13796e-07
-9.732e-07
3.05845e-07
-0.00113572
-1.28597e-06
-3.10609e-10
6.85231e-09
0.00113572
-3.11783e-07
1.29142e-06
3.08629e-07
9.72404e-07
-3.16441e-07
-9.72986e-07
3.08154e-07
-0.00027602
1.32096e-06
1.28629e-06
-2.70234e-07
-2.75028e-07
0.000273958
1.20143e-09
-4.07498e-10
-0.00114647
-1.76037e-09
-2.37715e-09
0.00114647
-0.00113609
-1.29142e-06
-1.10942e-09
6.32029e-09
0.00113609
-3.11476e-07
1.29741e-06
3.09903e-07
9.72206e-07
-3.14757e-07
-9.73659e-07
3.05198e-07
-0.00113572
-1.28542e-06
1.22333e-09
7.15152e-09
0.00113572
-3.11907e-07
1.29218e-06
3.08665e-07
9.71438e-07
-3.17411e-07
-9.74185e-07
3.07311e-07
-0.000276019
1.32105e-06
1.28585e-06
-2.69631e-07
-2.75549e-07
0.000273957
2.06652e-10
-5.26929e-10
-0.00114647
-1.44142e-09
-1.82208e-09
0.00114648
-0.00113609
-1.29144e-06
-1.22531e-09
6.10223e-09
0.0011361
-3.11691e-07
1.29777e-06
3.09698e-07
9.72033e-07
-3.15096e-07
-9.74022e-07
3.05248e-07
-0.00113572
-1.2856e-06
8.79283e-10
7.7835e-09
0.00113572
-3.12014e-07
1.29196e-06
3.08739e-07
9.71756e-07
-3.17827e-07
-9.74153e-07
3.07164e-07
-0.000276021
1.32119e-06
1.2861e-06
-2.69798e-07
-2.76188e-07
0.00027396
-1.024e-09
-1.28629e-09
-0.00114648
-6.17673e-10
-4.34054e-10
0.00114648
-0.00113611
-1.29141e-06
-2.24137e-09
5.74399e-09
0.00113611
-3.12082e-07
1.29802e-06
3.09961e-07
9.72264e-07
-3.1522e-07
-9.7396e-07
3.05232e-07
-0.00113573
-1.2863e-06
-2.83231e-09
8.38235e-09
0.00113573
-3.11645e-07
1.29166e-06
3.09066e-07
9.72721e-07
-3.17075e-07
-9.73142e-07
3.07882e-07
-0.000276026
1.31998e-06
1.28672e-06
-2.70592e-07
-2.74892e-07
0.000273964
-1.40195e-09
-6.767e-10
-0.00114648
-8.12336e-10
3.05165e-11
0.00114648
-0.00113612
-1.2916e-06
-2.56553e-09
7.30242e-09
0.00113613
-3.12675e-07
1.29801e-06
3.09466e-07
9.72492e-07
-3.15454e-07
-9.73972e-07
3.05409e-07
-0.00113573
-1.28576e-06
-4.51404e-09
8.22832e-09
0.00113574
-3.1259e-07
1.29229e-06
3.08404e-07
9.73099e-07
-3.16393e-07
-9.72701e-07
3.08448e-07
-0.000276032
1.3194e-06
1.28677e-06
-2.71724e-07
-2.73499e-07
0.000273971
-3.17261e-09
4.3273e-10
-0.00114648
-7.68678e-10
8.72479e-10
0.00114648
-0.00113614
-1.29187e-06
-4.65927e-09
8.34422e-09
0.00113614
-3.1308e-07
1.2978e-06
3.0907e-07
9.72951e-07
-3.14878e-07
-9.73484e-07
3.05988e-07
-0.00113574
-1.28599e-06
-3.58555e-09
8.07692e-09
0.00113574
-3.12326e-07
1.29195e-06
3.08762e-07
9.72881e-07
-3.16433e-07
-9.72842e-07
3.08378e-07
-0.000276041
1.31926e-06
1.28534e-06
-2.70042e-07
-2.7433e-07
0.000273981
-2.85872e-09
-1.04754e-10
-0.00114648
-5.26302e-10
7.91288e-10
0.00114648
-0.00113615
-1.29144e-06
-6.12245e-09
6.33807e-09
0.00113616
-3.12843e-07
1.29798e-06
3.09415e-07
9.73376e-07
-3.14148e-07
-9.73129e-07
3.06739e-07
-0.00113574
-1.28526e-06
-1.89868e-09
6.0869e-09
0.00113574
-3.11611e-07
1.29258e-06
3.09551e-07
9.72129e-07
-3.16843e-07
-9.73549e-07
3.07879e-07
-0.000276055
1.32031e-06
1.28573e-06
-2.70544e-07
-2.75327e-07
0.000273995
-1.47672e-09
-2.24843e-10
-0.00114648
-5.98192e-10
-7.92694e-10
0.00114648
-0.00113617
-1.29145e-06
-4.61005e-09
4.6886e-09
0.00113617
-3.12411e-07
1.29813e-06
3.09876e-07
9.73356e-07
-3.14043e-07
-9.73056e-07
3.06696e-07
-0.00113575
-1.28516e-06
-1.42415e-09
5.45522e-09
0.00113575
-3.11395e-07
1.29276e-06
3.09647e-07
9.71986e-07
-3.17242e-07
-9.73799e-07
3.0762e-07
-0.000276068
1.32035e-06
1.28553e-06
-2.69812e-07
-2.75575e-07
0.000274007
7.87992e-10
4.945e-10
-0.00114648
-1.79072e-09
-2.21309e-09
0.00114648
-0.00113617
-1.29133e-06
-4.08552e-09
4.58217e-09
0.00113617
-3.11965e-07
1.29834e-06
3.10364e-07
9.73562e-07
-3.13967e-07
-9.72703e-07
3.06735e-07
-0.00113575
-1.28588e-06
-9.206e-10
6.15633e-09
0.00113575
-3.11485e-07
1.29194e-06
3.09648e-07
9.72106e-07
-3.17171e-07
-9.73618e-07
3.07684e-07
-0.000276077
1.32113e-06
1.28597e-06
-2.69958e-07
-2.7583e-07
0.000274016
5.38885e-10
1.67358e-09
-0.00114648
-3.09242e-09
-2.08322e-09
0.00114648
-0.00113617
-1.29094e-06
-1.70912e-09
4.59249e-09
0.00113617
-3.11749e-07
1.29873e-06
3.10567e-07
9.72655e-07
-3.14503e-07
-9.73519e-07
3.06025e-07
-0.00113576
-1.28584e-06
-1.15307e-09
5.09875e-09
0.00113576
-3.11207e-07
1.29204e-06
3.09901e-07
9.72271e-07
-3.16997e-07
-9.73481e-07
3.07853e-07
-0.000276082
1.32009e-06
1.28703e-06
-2.71289e-07
-2.74212e-07
0.00027402
-7.84184e-12
4.03575e-09
-0.00114648
-5.05707e-09
-1.49178e-09
0.00114648
-0.00113617
-1.2914e-06
1.57434e-09
6.48271e-09
0.00113617
-3.12419e-07
1.29804e-06
3.09666e-07
9.72208e-07
-3.14922e-07
-9.73882e-07
3.05358e-07
-0.00113576
-1.28532e-06
-2.22799e-09
3.10733e-09
0.00113576
-3.10862e-07
1.29236e-06
3.10263e-07
9.72614e-07
-3.16388e-07
-9.72963e-07
3.08308e-07
-0.000276084
1.32019e-06
1.28728e-06
-2.70708e-07
-2.74799e-07
0.000274022
-1.07561e-09
5.5616e-09
-0.00114648
-6.23529e-09
-5.90537e-10
0.00114648
-0.00113617
-1.29196e-06
2.22074e-09
7.71413e-09
0.00113617
-3.12098e-07
1.29731e-06
3.09867e-07
9.71712e-07
-3.15298e-07
-9.74393e-07
3.04989e-07
-0.00113577
-1.28432e-06
-2.11735e-09
9.07924e-10
0.00113577
-3.101e-07
1.29328e-06
3.10959e-07
9.72346e-07
-3.16476e-07
-9.73182e-07
3.08134e-07
-0.000276083
1.3203e-06
1.28746e-06
-2.7104e-07
-2.7464e-07
0.000274021
-2.05817e-09
5.99305e-09
-0.00114647
-5.41443e-09
-3.67053e-10
0.00114647
-0.00113617
-1.29186e-06
-1.70253e-09
8.56899e-09
0.00113616
-3.12469e-07
1.29707e-06
3.09348e-07
9.73284e-07
-3.13823e-07
-9.72787e-07
3.06344e-07
-0.00113577
-1.28419e-06
-1.88058e-09
1.4241e-09
0.00113577
-3.09939e-07
1.29312e-06
3.10754e-07
9.72626e-07
-3.16439e-07
-9.72851e-07
3.08125e-07
-0.000276081
1.32117e-06
1.28699e-06
-2.70497e-07
-2.75444e-07
0.000274019
-3.65933e-10
5.3937e-09
-0.00114647
-4.4998e-09
-1.82128e-09
0.00114647
-0.00113616
-1.29223e-06
-4.36213e-09
8.92067e-09
0.00113616
-3.12932e-07
1.29684e-06
3.08813e-07
9.7443e-07
-3.12635e-07
-9.71392e-07
3.07298e-07
-0.00113576
-1.28505e-06
-4.30947e-09
5.21868e-09
0.00113576
-3.11175e-07
1.29215e-06
3.09327e-07
9.73817e-07
-3.1521e-07
-9.71637e-07
3.0939e-07
-0.000276079
1.31999e-06
1.28619e-06
-2.69751e-07
-2.74314e-07
0.000274017
2.88381e-09
2.81883e-09
-0.00114646
-3.4572e-09
-3.18375e-09
0.00114646
-0.00113614
-1.29172e-06
-3.22955e-09
7.76325e-09
0.00113614
-3.12066e-07
1.29747e-06
3.09804e-07
9.7371e-07
-3.13091e-07
-9.71972e-07
3.06607e-07
-0.00113575
-1.28549e-06
-5.70604e-09
6.80953e-09
0.00113574
-3.1187e-07
1.29173e-06
3.0877e-07
9.74333e-07
-3.14242e-07
-9.70919e-07
3.10093e-07
-0.000276075
1.32001e-06
1.2865e-06
-2.69867e-07
-2.74241e-07
0.000274013
3.79703e-09
-1.12073e-10
-0.00114645
-1.86098e-09
-3.83785e-09
0.00114645
-0.00113613
-1.29076e-06
-2.37076e-09
4.79316e-09
0.00113613
-3.10846e-07
1.29808e-06
3.10578e-07
9.73077e-07
-3.13791e-07
-9.72837e-07
3.05975e-07
-0.00113573
-1.2859e-06
-2.4225e-09
7.4914e-09
0.00113573
-3.12243e-07
1.29128e-06
3.08249e-07
9.73496e-07
-3.1502e-07
-9.71807e-07
3.09381e-07
-0.000276069
1.3213e-06
1.28718e-06
-2.70453e-07
-2.75444e-07
0.000274007
1.73451e-09
3.50058e-10
-0.00114645
-2.04736e-09
-3.6676e-09
0.00114645
-0.00113613
-1.29151e-06
-2.1093e-09
6.24736e-09
0.00113613
-3.12209e-07
1.2974e-06
3.09063e-07
9.73368e-07
-3.13323e-07
-9.72518e-07
3.06196e-07
-0.00113572
-1.28655e-06
3.97633e-10
8.97296e-09
0.00113572
-3.12731e-07
1.29068e-06
3.0783e-07
9.72515e-07
-3.15913e-07
-9.72858e-07
3.08519e-07
-0.000276064
1.32147e-06
1.2866e-06
-2.69891e-07
-2.75833e-07
0.000274002
-3.85889e-10
2.26118e-09
-0.00114645
-2.76315e-09
-2.87119e-09
0.00114645
-0.00113613
-1.29248e-06
-1.23362e-09
8.85053e-09
0.00113613
-3.13155e-07
1.29671e-06
3.08011e-07
9.73066e-07
-3.13534e-07
-9.7283e-07
3.05984e-07
-0.00113572
-1.28643e-06
4.42737e-10
8.67465e-09
0.00113572
-3.12435e-07
1.2908e-06
3.08136e-07
9.72489e-07
-3.16162e-07
-9.72952e-07
3.08279e-07
-0.000276061
1.32159e-06
1.28635e-06
-2.69617e-07
-2.76222e-07
0.000273999
6.25011e-10
1.16776e-09
-0.00114645
-2.4041e-09
-2.69762e-09
0.00114645
-0.00113613
-1.29159e-06
-1.87873e-09
7.61948e-09
0.00113612
-3.12836e-07
1.29741e-06
3.08259e-07
9.73258e-07
-3.13135e-07
-9.72548e-07
3.06146e-07
-0.00113572
-1.28629e-06
-9.01496e-10
8.3034e-09
0.00113572
-3.12491e-07
1.29079e-06
3.07793e-07
9.73062e-07
-3.15721e-07
-9.72372e-07
3.0872e-07
-0.000276059
1.32125e-06
1.28616e-06
-2.69207e-07
-2.76185e-07
0.000273997
1.94639e-09
3.75897e-10
-0.00114645
-2.1271e-09
-3.00944e-09
0.00114645
-0.00113612
-1.29101e-06
-2.86474e-09
6.35539e-09
0.00113612
-3.12076e-07
1.29783e-06
3.08639e-07
9.73577e-07
-3.1279e-07
-9.72211e-07
3.064e-07
-0.00113571
-1.28619e-06
-1.75438e-09
7.93116e-09
0.00113571
-3.1225e-07
1.29091e-06
3.08079e-07
9.73161e-07
-3.15549e-07
-9.72195e-07
3.08899e-07
-0.000276057
1.32086e-06
1.2861e-06
-2.69419e-07
-2.75287e-07
0.000273995
9.41739e-10
-4.41023e-10
-0.00114645
-1.56571e-09
-2.44315e-09
0.00114645
-0.00113611
-1.29133e-06
-1.29505e-09
7.12792e-09
0.00113611
-3.12778e-07
1.29757e-06
3.07932e-07
9.73299e-07
-3.1289e-07
-9.72464e-07
3.06177e-07
-0.00113571
-1.28661e-06
-2.17766e-09
8.59444e-09
0.00113571
-3.12852e-07
1.29049e-06
3.07435e-07
9.73326e-07
-3.15063e-07
-9.7205e-07
3.09406e-07
-0.000276052
1.32071e-06
1.28621e-06
-2.69209e-07
-2.75302e-07
0.00027399
2.2142e-09
-2.18488e-09
-0.00114645
-1.67976e-09
-2.24207e-09
0.00114646
-0.00113611
-1.29181e-06
4.34814e-10
7.50196e-09
0.00113611
-3.12584e-07
1.29716e-06
3.08343e-07
9.72535e-07
-3.13531e-07
-9.7321e-07
3.05495e-07
-0.00113571
-1.2864e-06
-8.46394e-10
7.33673e-09
0.00113571
-3.12747e-07
1.29081e-06
3.07752e-07
9.72758e-07
-3.15573e-07
-9.72563e-07
3.08858e-07
-0.000276047
1.32065e-06
1.28564e-06
-2.68335e-07
-2.75701e-07
0.000273985
7.76777e-10
-7.17869e-10
-0.00114646
-1.71679e-09
-1.90486e-09
0.00114646
-0.00113611
-1.29114e-06
-1.56184e-09
5.89286e-09
0.0011361
-3.11601e-07
1.29761e-06
3.09018e-07
9.72892e-07
-3.13264e-07
-9.72991e-07
3.05882e-07
-0.00113571
-1.2856e-06
1.55816e-10
5.40097e-09
0.00113571
-3.11531e-07
1.29144e-06
3.08755e-07
9.72342e-07
-3.16376e-07
-9.73274e-07
3.08321e-07
-0.000276044
1.3212e-06
1.28571e-06
-2.68907e-07
-2.75696e-07
0.000273981
4.28466e-10
-1.17979e-09
-0.00114646
-1.27097e-09
-1.43463e-09
0.00114646
-0.0011361
-1.29189e-06
-2.74422e-09
6.93704e-09
0.0011361
-3.12187e-07
1.29667e-06
3.08177e-07
9.73762e-07
-3.12653e-07
-9.72277e-07
3.06418e-07
-0.00113571
-1.28593e-06
-1.85011e-09
5.57187e-09
0.00113571
-3.12132e-07
1.29125e-06
3.0868e-07
9.7325e-07
-3.16045e-07
-9.72466e-07
3.09163e-07
-0.000276039
1.32142e-06
1.28611e-06
-2.69285e-07
-2.76053e-07
0.000273977
1.83534e-10
-1.47132e-09
-0.00114646
-8.40709e-10
-1.42219e-09
0.00114647
-0.0011361
-1.29191e-06
-2.5208e-09
7.9315e-09
0.0011361
-3.12924e-07
1.29688e-06
3.07704e-07
9.73688e-07
-3.12774e-07
-9.7233e-07
3.0632e-07
-0.00113572
-1.286e-06
-3.49307e-09
5.04903e-09
0.00113572
-3.12345e-07
1.29128e-06
3.08468e-07
9.7359e-07
-3.16029e-07
-9.72361e-07
3.09306e-07
-0.000276035
1.32196e-06
1.28604e-06
-2.69019e-07
-2.76914e-07
0.000273973
5.43628e-10
2.52484e-10
-0.00114646
-1.92421e-09
-1.96797e-09
0.00114647
-0.0011361
-1.29171e-06
-3.40218e-09
6.44456e-09
0.0011361
-3.11717e-07
1.29687e-06
3.0875e-07
9.73743e-07
-3.12519e-07
-9.72245e-07
3.0653e-07
-0.00113573
-1.28598e-06
-2.69694e-09
5.39308e-09
0.00113573
-3.12161e-07
1.2914e-06
3.08955e-07
9.7382e-07
-3.16298e-07
-9.72246e-07
3.09365e-07
-0.000276033
1.32164e-06
1.28603e-06
-2.69113e-07
-2.76463e-07
0.000273971
9.4943e-10
2.20574e-09
-0.00114646
-2.98943e-09
-2.95634e-09
0.00114646
-0.0011361
-1.29165e-06
-1.47845e-09
6.60412e-09
0.0011361
-3.11673e-07
1.29709e-06
3.08684e-07
9.73215e-07
-3.1323e-07
-9.7289e-07
3.05705e-07
-0.00113573
-1.28606e-06
-1.53653e-09
6.39215e-09
0.00113573
-3.12309e-07
1.29135e-06
3.08831e-07
9.73498e-07
-3.16491e-07
-9.72686e-07
3.09301e-07
-0.00027603
1.32117e-06
1.28672e-06
-2.70541e-07
-2.75407e-07
0.000273968
1.70492e-10
2.51555e-09
-0.00114646
-3.02402e-09
-2.93885e-09
0.00114646
-0.00113609
-1.29264e-06
-1.15667e-09
9.48101e-09
0.00113609
-3.12902e-07
1.29607e-06
3.07289e-07
9.73819e-07
-3.13216e-07
-9.7265e-07
3.05948e-07
-0.00113573
-1.28644e-06
-9.10389e-10
6.54572e-09
0.00113574
-3.12825e-07
1.29109e-06
3.08494e-07
9.72805e-07
-3.17047e-07
-9.73584e-07
3.08981e-07
-0.00027603
1.3206e-06
1.28673e-06
-2.71101e-07
-2.74815e-07
0.000273969
-1.55352e-09
8.47073e-10
-0.00114646
-1.68981e-09
-1.02946e-09
0.00114647
-0.00113609
-1.29316e-06
-2.87624e-09
1.13515e-08
0.0011361
-3.1367e-07
1.29554e-06
3.06646e-07
9.7456e-07
-3.13088e-07
-9.72073e-07
3.06108e-07
-0.00113575
-1.28655e-06
-3.01102e-09
6.1177e-09
0.00113575
-3.12556e-07
1.29096e-06
3.08725e-07
9.73227e-07
-3.16869e-07
-9.7337e-07
3.09167e-07
-0.000276034
1.32097e-06
1.28573e-06
-2.69726e-07
-2.75662e-07
0.000273972
-2.72522e-09
-3.3584e-10
-0.00114646
-4.91576e-10
5.50701e-10
0.00114647
-0.0011361
-1.29224e-06
-3.39994e-09
9.9395e-09
0.0011361
-3.13286e-07
1.29666e-06
3.07045e-07
9.73813e-07
-3.13441e-07
-9.72805e-07
3.05801e-07
-0.00113576
-1.2865e-06
-4.5346e-09
7.31455e-09
0.00113576
-3.12398e-07
1.291e-06
3.08988e-07
9.73692e-07
-3.16952e-07
-9.72995e-07
3.09327e-07
-0.000276037
1.32065e-06
1.28583e-06
-2.69727e-07
-2.75177e-07
0.000273975
-1.6979e-09
-1.16377e-09
-0.00114647
3.76691e-10
1.77755e-10
0.00114647
-0.00113611
-1.29163e-06
-4.26535e-09
8.3211e-09
0.00113611
-3.12378e-07
1.29693e-06
3.07975e-07
9.7397e-07
-3.1338e-07
-9.72961e-07
3.05882e-07
-0.00113577
-1.28656e-06
-5.93772e-09
7.23718e-09
0.00113578
-3.12811e-07
1.29092e-06
3.0848e-07
9.74458e-07
-3.16033e-07
-9.72259e-07
3.10054e-07
-0.000276038
1.32041e-06
1.28624e-06
-2.70184e-07
-2.74638e-07
0.000273976
-6.67499e-10
-1.50626e-09
-0.00114646
5.41224e-10
-5.37522e-10
0.00114647
-0.00113611
-1.29134e-06
-4.87924e-09
7.47328e-09
0.00113611
-3.12017e-07
1.29728e-06
3.08273e-07
9.7367e-07
-3.13097e-07
-9.72875e-07
3.06273e-07
-0.00113578
-1.28617e-06
-5.07011e-09
6.9956e-09
0.00113578
-3.12302e-07
1.29122e-06
3.0896e-07
9.73848e-07
-3.15833e-07
-9.72577e-07
3.10037e-07
-0.000276038
1.32043e-06
1.28596e-06
-2.69881e-07
-2.74706e-07
0.000273976
6.87332e-10
-1.70938e-09
-0.00114646
2.17366e-10
-1.98346e-09
0.00114647
-0.00113612
-1.29157e-06
-3.02047e-09
6.41499e-09
0.00113612
-3.11815e-07
1.29731e-06
3.0899e-07
9.73147e-07
-3.13149e-07
-9.73242e-07
3.06425e-07
-0.00113578
-1.28624e-06
-2.26811e-09
7.76559e-09
0.00113578
-3.12505e-07
1.29101e-06
3.08687e-07
9.73275e-07
-3.1603e-07
-9.72845e-07
3.09735e-07
-0.000276038
1.32053e-06
1.28598e-06
-2.69973e-07
-2.74682e-07
0.000273976
2.85095e-09
-1.58941e-09
-0.00114646
-1.9102e-10
-3.97304e-09
0.00114647
-0.00113612
-1.29067e-06
-3.40789e-09
4.31373e-09
0.00113612
-3.11089e-07
1.29804e-06
3.09395e-07
9.73127e-07
-3.1331e-07
-9.73052e-07
3.06039e-07
-0.00113577
-1.28623e-06
-2.81428e-10
7.75282e-09
0.00113577
-3.12398e-07
1.2909e-06
3.08592e-07
9.72876e-07
-3.16092e-07
-9.72829e-07
3.09098e-07
-0.000276037
1.32068e-06
1.28595e-06
-2.70009e-07
-2.74626e-07
0.000273975
3.90718e-09
2.8109e-10
-0.00114646
-1.6923e-09
-5.24187e-09
0.00114647
-0.00113612
-1.29102e-06
-3.30736e-09
3.73721e-09
0.00113612
-3.11241e-07
1.29757e-06
3.0941e-07
9.73512e-07
-3.13254e-07
-9.72868e-07
3.06211e-07
-0.00113577
-1.28558e-06
1.72011e-09
6.96526e-09
0.00113576
-3.11766e-07
1.29149e-06
3.09167e-07
9.71772e-07
-3.16512e-07
-9.73507e-07
3.08382e-07
-0.000276035
1.32126e-06
1.28565e-06
-2.69424e-07
-2.75293e-07
0.000273973
2.82448e-09
2.55631e-09
-0.00114646
-3.19423e-09
-4.75331e-09
0.00114646
-0.00113612
-1.29122e-06
-2.22363e-09
5.94083e-09
0.00113612
-3.11814e-07
1.2974e-06
3.08935e-07
9.73149e-07
-3.13657e-07
-9.72693e-07
3.0564e-07
-0.00113575
-1.28517e-06
2.26106e-09
6.41212e-09
0.00113575
-3.11345e-07
1.29171e-06
3.09406e-07
9.71168e-07
-3.16595e-07
-9.7359e-07
3.07805e-07
-0.000276032
1.32107e-06
1.2856e-06
-2.69031e-07
-2.75431e-07
0.00027397
9.5959e-10
2.22059e-09
-0.00114646
-3.16561e-09
-3.17308e-09
0.00114647
-0.00113612
-1.29174e-06
-1.7591e-09
6.80955e-09
0.00113613
-3.12274e-07
1.29649e-06
3.08319e-07
9.72257e-07
-3.13243e-07
-9.72982e-07
3.05442e-07
-0.00113574
-1.28493e-06
-9.912e-12
5.72151e-09
0.00113574
-3.11071e-07
1.29164e-06
3.09349e-07
9.71283e-07
-3.16241e-07
-9.72869e-07
3.07405e-07
-0.00027603
1.32132e-06
1.2863e-06
-2.69511e-07
-2.75849e-07
0.000273968
1.29985e-09
2.79252e-09
-0.00114647
-3.21979e-09
-3.25686e-09
0.00114647
-0.00113613
-1.29178e-06
-2.69091e-09
6.50099e-09
0.00113614
-3.11978e-07
1.29608e-06
3.08445e-07
9.71752e-07
-3.12463e-07
-9.72342e-07
3.05215e-07
-0.00113574
-1.28498e-06
-1.37497e-09
6.02902e-09
0.00113574
-3.11128e-07
1.29117e-06
3.08874e-07
9.71383e-07
-3.15459e-07
-9.71757e-07
3.0707e-07
-0.000276028
1.32042e-06
1.28595e-06
-2.69659e-07
-2.7455e-07
0.000273966
2.22695e-09
2.78772e-09
-0.00114647
-2.74671e-09
-3.27277e-09
0.00114647
-0.00113614
-1.29115e-06
-5.6395e-09
5.58284e-09
0.00113614
-3.11136e-07
1.29586e-06
3.08499e-07
9.71472e-07
-3.11246e-07
-9.70857e-07
3.04591e-07
-0.00113573
-1.285e-06
-1.95142e-09
7.50413e-09
0.00113573
-3.11168e-07
1.29027e-06
3.07946e-07
9.70678e-07
-3.14289e-07
-9.70744e-07
3.06126e-07
-0.000276027
1.31993e-06
1.28495e-06
-2.68356e-07
-2.74141e-07
0.000273965
1.5087e-09
2.41281e-09
-0.00114647
-2.04326e-09
-2.52535e-09
0.00114647
-0.00113615
-1.28977e-06
-8.52635e-09
5.36569e-09
0.00113615
-3.10448e-07
1.29559e-06
3.07779e-07
9.70475e-07
-3.08751e-07
-9.68746e-07
3.03588e-07
-0.00113573
-1.28439e-06
-4.04498e-09
7.88777e-09
0.00113573
-3.10585e-07
1.28928e-06
3.07014e-07
9.69477e-07
-3.12062e-07
-9.68809e-07
3.04733e-07
-0.000276026
1.31872e-06
1.28397e-06
-2.6721e-07
-2.72665e-07
0.000273964
3.17196e-09
4.42046e-09
-0.00114647
-2.93288e-09
-3.31472e-09
0.00114647
-0.00113615
-1.28871e-06
-7.68095e-09
5.62888e-09
0.00113615
-3.09026e-07
1.2936e-06
3.06318e-07
9.67959e-07
-3.05787e-07
-9.66009e-07
3.00125e-07
-0.00113572
-1.2827e-06
-5.93514e-09
7.50865e-09
0.00113573
-3.08866e-07
1.28789e-06
3.05584e-07
9.66975e-07
-3.0866e-07
-9.66005e-07
3.01588e-07
-0.000276025
1.3172e-06
1.28324e-06
-2.66129e-07
-2.70616e-07
0.000273961
6.25906e-09
7.02758e-09
-0.00114647
-4.70156e-09
-4.74176e-09
0.00114647
-0.00113614
-1.2856e-06
-6.08926e-09
5.98163e-09
0.00113615
-3.05776e-07
1.29052e-06
3.02909e-07
9.63012e-07
-3.00176e-07
-9.61888e-07
2.93451e-07
-0.00113572
-1.27947e-06
-5.87039e-09
6.72247e-09
0.00113572
-3.05343e-07
1.28516e-06
3.02492e-07
9.61984e-07
-3.02684e-07
-9.61785e-07
2.9535e-07
-0.000276023
1.31429e-06
1.28052e-06
-2.62467e-07
-2.67393e-07
0.000273958
8.13731e-09
6.88264e-09
-0.00114647
-5.1639e-09
-5.69555e-09
0.00114647
-0.00113614
-1.28019e-06
-6.57852e-09
8.45361e-09
0.00113615
-2.991e-07
1.28386e-06
2.95441e-07
9.54935e-07
-2.8884e-07
-9.54355e-07
2.81523e-07
-0.00113572
-1.27394e-06
-6.91025e-09
7.84314e-09
0.00113572
-2.9886e-07
1.27893e-06
2.95122e-07
9.5402e-07
-2.91464e-07
-9.54448e-07
2.83684e-07
-0.000276022
1.30863e-06
1.27451e-06
-2.55487e-07
-2.6061e-07
0.000273955
1.10528e-08
7.52921e-09
-0.00114648
-5.28591e-09
-7.54226e-09
0.00114648
-0.00113614
-1.26905e-06
-1.11062e-08
1.27762e-08
0.00113615
-2.84682e-07
1.27204e-06
2.79955e-07
9.41527e-07
-2.66541e-07
-9.40879e-07
2.59319e-07
-0.00113572
-1.26335e-06
-1.14328e-08
1.23638e-08
0.00113573
-2.84941e-07
1.26634e-06
2.7937e-07
9.4084e-07
-2.69031e-07
-9.40738e-07
2.61837e-07
-0.000276022
1.29839e-06
1.26329e-06
-2.41827e-07
-2.48884e-07
0.000273951
3.34588e-08
3.18407e-08
-0.00114651
-1.50777e-08
-2.21756e-08
0.00114648
-0.00113614
-1.24836e-06
-2.95395e-08
1.15958e-08
0.00113616
-2.54605e-07
1.25183e-06
2.51432e-07
9.20787e-07
-2.27715e-07
-9.18196e-07
2.20729e-07
-0.00113574
-1.23996e-06
-3.43446e-08
1.62367e-08
0.00113576
-2.54475e-07
1.24349e-06
2.48619e-07
9.17585e-07
-2.27982e-07
-9.15228e-07
2.22871e-07
-0.00027603
1.28054e-06
1.24234e-06
-2.14696e-07
-2.2158e-07
0.000273943
9.50961e-07
9.56362e-07
-0.00114641
-7.90516e-07
-7.81684e-07
0.00114607
-0.00113644
-1.13141e-06
-9.52351e-07
-3.88836e-07
0.00113686
-1.24528e-07
1.39819e-06
3.01573e-07
1.0324e-06
-7.40758e-08
-7.73109e-07
2.91585e-07
-0.00113605
-1.12313e-06
-9.62506e-07
-4.00915e-07
0.0011365
-1.2441e-07
1.39253e-06
3.04693e-07
1.02864e-06
-8.12787e-08
-7.70245e-07
2.93506e-07
-0.000276117
1.16699e-06
1.12253e-06
-9.70858e-08
-1.0282e-07
0.000274027
5.30898e-06
5.30111e-06
-0.00113219
-1.12106e-05
-1.11111e-05
0.000274889
0.000278318
0.000277432
0.000277432
4.29922e-06
6.65195e-06
6.96305e-06
4.3023e-06
6.65188e-06
6.96572e-06
-0.00028126
5.37056e-06
-5.29779e-06
6.02752e-06
-3.41297e-06
0.000278572
-0.000281228
-5.30037e-06
5.37465e-06
-3.42021e-06
6.02444e-06
0.000278549
-0.000276806
-5.36647e-06
-5.37784e-06
5.8887e-06
5.87535e-06
0.000275787
-1.33045e-06
-1.29414e-06
0.000276027
-0.000273956
2.72718e-07
2.80118e-07
-1.33116e-06
-2.66732e-09
5.12363e-09
0.00113571
-3.19713e-07
1.33791e-06
3.17676e-07
9.78837e-07
-3.15512e-07
3.09457e-07
-9.77611e-07
0.00113528
-3.042e-09
-0.00113528
9.63624e-09
-1.32672e-06
3.13593e-07
-3.18261e-07
-9.72911e-07
3.05725e-07
-3.1383e-07
9.73637e-07
1.33713e-06
0.00113571
-3.16732e-09
-0.00113571
7.32177e-09
-1.33129e-06
3.1653e-07
-3.20954e-07
-9.7825e-07
3.08837e-07
-3.16177e-07
9.78522e-07
-2.69331e-07
-2.71406e-07
0.000273971
-1.29693e-06
0.000276054
-0.000273973
2.7553e-07
2.78126e-07
0.00113639
8.61563e-10
-0.00113639
8.40932e-09
-1.2885e-06
3.11721e-07
-3.15078e-07
-9.7658e-07
3.08157e-07
-3.17425e-07
9.75511e-07
1.3311e-06
0.00113529
-6.15524e-10
-0.00113529
9.00965e-09
-1.32575e-06
3.16821e-07
-3.20646e-07
-9.75636e-07
3.07714e-07
-3.16597e-07
9.74138e-07
-3.22673e-09
8.72152e-09
0.0011352
-3.15541e-07
1.32583e-06
3.11772e-07
9.73706e-07
-3.13068e-07
3.07728e-07
-9.71851e-07
-2.44265e-09
-0.00113608
7.31328e-09
-1.2912e-06
3.0849e-07
-3.1254e-07
-9.73172e-07
3.05619e-07
9.72137e-07
-3.13983e-07
1.32565e-06
0.0011352
-2.32206e-09
-0.0011352
9.8143e-09
-1.32073e-06
3.11189e-07
-3.16068e-07
-9.7288e-07
3.06441e-07
-3.14273e-07
9.72878e-07
-1.29086e-06
0.000275987
-0.000273918
2.72451e-07
2.80408e-07
-4.67202e-10
5.43671e-09
0.00113626
-3.11389e-07
1.2924e-06
3.09434e-07
9.72638e-07
-3.15895e-07
3.09011e-07
-9.72586e-07
-1.41145e-09
-0.00113572
8.11641e-09
-1.28586e-06
3.08168e-07
-3.12449e-07
-9.73046e-07
3.07999e-07
9.72308e-07
-3.16648e-07
1.29154e-06
0.00113626
-6.36802e-10
-0.00113626
7.30768e-09
-1.28588e-06
3.08664e-07
-3.12036e-07
-9.73306e-07
3.08361e-07
-3.16605e-07
9.72202e-07
-0.000273958
2.74992e-07
2.80633e-07
1.3268e-06
1.28863e-06
-2.66429e-07
-2.75624e-07
0.000273954
-1.33115e-06
-1.29444e-06
0.000276026
-0.000273954
2.73317e-07
2.80298e-07
8.34155e-09
0.00113528
-3.17613e-07
1.33089e-06
3.14142e-07
9.73995e-07
-3.13421e-07
-9.72697e-07
3.05888e-07
-1.33146e-06
-1.40641e-09
6.31441e-09
0.00113571
-3.20507e-07
1.33754e-06
3.16792e-07
9.78812e-07
-3.15799e-07
-9.77969e-07
3.08908e-07
0.00113528
-3.26037e-09
-0.00113528
7.75239e-09
-1.32618e-06
3.14602e-07
-3.17454e-07
-9.73286e-07
3.05555e-07
-3.1402e-07
9.73598e-07
1.3372e-06
0.00113572
-3.23215e-09
-0.00113571
7.65302e-09
-1.3314e-06
3.16917e-07
-3.20992e-07
-9.7864e-07
3.08384e-07
-3.16834e-07
9.78459e-07
-2.69472e-07
-2.71936e-07
0.000273972
-1.29702e-06