/*--------------------------------*- C++ -*----------------------------------*\
| =========                 |                                                 |
| \\      /  F ield         | OpenFOAM: The Open Source CFD Toolbox           |
|  \\    /   O peration     | Version:  v2012                                 |
|   \\  /    A nd           | Website:  www.openfoam.com                      |
|    \\/     M anipulation  |                                                 |
\*---------------------------------------------------------------------------*/
FoamFile
{
    version     2.0;
    format      ascii;
    class       volVectorField;
    location    "100";
    object      U;
}
// * * * * * * * * * * * * * * * * * * * * * * * * * * * * * * * * * * * * * //

dimensions      [0 1 -1 0 0 0 0];


internalField   nonuniform List<vector> 
85864
(
(-1.20355e-06 -1.39094e-06 0.108915)
(1.5873e-06 -1.1883e-06 0.107858)
(5.80365e-05 5.74587e-05 0.106481)
(1.92358e-06 1.09182e-06 0.10786)
(1.4497e-06 1.69876e-06 0.107862)
(1.30437e-06 -1.68596e-06 0.107851)
(5.76668e-05 -5.75389e-05 0.106473)
(3.24973e-07 1.77253e-05 0.0835691)
(1.77673e-05 4.93408e-07 0.0835665)
(2.05417e-05 -6.07379e-08 0.0942444)
(-1.30586e-06 1.30633e-06 0.108913)
(9.60602e-06 -4.41428e-06 0.0721339)
(1.17599e-05 -2.10719e-05 0.095745)
(4.4309e-06 9.54334e-06 0.0720834)
(9.81624e-06 4.56326e-06 0.0720748)
(9.8946e-06 9.46558e-06 0.0894543)
(9.41767e-06 1.01336e-05 0.0894415)
(1.19145e-05 2.13702e-05 0.0957435)
(2.1204e-05 1.15484e-05 0.0957409)
(1.36933e-06 -2.67931e-07 0.108541)
(2.73069e-05 1.21414e-07 0.102449)
(1.78769e-05 -4.0395e-07 0.0835939)
(2.03461e-05 3.91559e-08 0.0942268)
(1.30906e-06 2.31858e-07 0.108535)
(2.1416e-05 -1.13715e-05 0.095714)
(2.71731e-05 2.38811e-07 0.1024)
(9.5279e-06 -9.59709e-06 0.0894404)
(1.00118e-05 -9.22748e-06 0.089456)
(4.80593e-06 -9.41837e-06 0.0720836)
(8.56622e-07 -1.73641e-05 0.083578)
(-2.14732e-06 -1.73426e-05 0.0836636)
(-1.70238e-07 1.56595e-05 0.0875119)
(-9.61803e-07 8.80809e-06 0.0688767)
(-8.71115e-06 2.98339e-07 0.0689816)
(-1.73657e-05 -1.81298e-06 0.0836621)
(1.5484e-05 -4.28355e-07 0.0875037)
(-1.60971e-05 -1.16655e-06 0.0876111)
(9.00506e-06 -1.47174e-06 0.0688721)
(-8.58801e-06 8.53652e-07 0.0777293)
(-2.1618e-05 -1.60982e-07 0.0943452)
(1.92972e-05 3.24075e-07 0.092297)
(8.14135e-06 -1.7074e-07 0.0795404)
(-2.07328e-05 -1.08979e-06 0.0924032)
(-8.45741e-06 1.63451e-07 0.0796173)
(8.89093e-06 -6.53993e-07 0.0776434)
(-9.13457e-06 4.77267e-06 0.0722393)
(-4.97869e-06 -9.2839e-06 0.0721833)
(-9.12774e-06 -4.83054e-06 0.0721746)
(-1.01787e-05 -2.41952e-05 0.0942808)
(1.39363e-05 3.07886e-05 0.099407)
(-9.60865e-06 -8.36011e-06 0.0895618)
(5.85237e-06 8.26422e-06 0.0829562)
(-5.70455e-06 -8.00935e-06 0.0830576)
(-1.22262e-05 -3.06805e-05 0.0995154)
(1.09363e-05 2.40263e-05 0.0941719)
(-2.44442e-05 -1.06823e-05 0.09427)
(3.11884e-05 1.37005e-05 0.0994138)
(-8.39953e-06 -9.36671e-06 0.0895505)
(8.72144e-06 6.15961e-06 0.0829433)
(-7.5794e-06 -5.46229e-06 0.0830441)
(-3.06534e-05 -1.26825e-05 0.0995241)
(2.37036e-05 1.04526e-05 0.0941599)
(-8.44229e-06 -8.45023e-06 0.0854497)
(8.68996e-06 3.9616e-06 0.0692423)
(4.1883e-06 8.32441e-06 0.069235)
(-8.22935e-06 -4.32367e-06 0.0693433)
(-4.09574e-06 -8.60392e-06 0.0693359)
(8.69549e-06 8.7737e-06 0.0853615)
(-8.52333e-06 -3.9738e-07 0.0690697)
(-1.71165e-05 1.80712e-06 0.0836908)
(1.56342e-05 5.51301e-07 0.0875412)
(-1.57857e-05 1.21692e-06 0.0876499)
(8.83782e-06 1.71995e-06 0.0689552)
(-8.72812e-06 -3.84308e-07 0.0778422)
(-2.16919e-05 1.94896e-07 0.0943263)
(8.17488e-06 9.90063e-09 0.0796023)
(1.91549e-05 -2.69918e-07 0.0922995)
(-8.25946e-06 -3.96222e-07 0.0796784)
(-2.03801e-05 1.02269e-06 0.0924055)
(8.66239e-06 1.07695e-06 0.0777539)
(-2.40732e-05 1.06163e-05 0.09427)
(3.0788e-05 -1.35604e-05 0.0993754)
(-8.29449e-06 9.72503e-06 0.0895518)
(8.44922e-06 -5.56856e-06 0.0829565)
(-7.75197e-06 6.07356e-06 0.0830601)
(-3.05639e-05 1.26304e-05 0.0994865)
(2.39774e-05 -1.06192e-05 0.0941598)
(-1.03706e-05 2.45212e-05 0.0942814)
(1.37466e-05 -3.04873e-05 0.0994065)
(-9.48929e-06 8.67735e-06 0.0895647)
(5.777e-06 -8.12315e-06 0.0829539)
(-1.24663e-05 3.09378e-05 0.0995156)
(-5.76972e-06 8.07217e-06 0.0830567)
(1.08014e-05 -2.36993e-05 0.094172)
(-8.32242e-06 8.73716e-06 0.0854537)
(4.40212e-06 -8.25792e-06 0.0692359)
(8.5496e-06 -4.17096e-06 0.069237)
(-3.93574e-06 8.72715e-06 0.069338)
(-8.40705e-06 4.18979e-06 0.0693387)
(8.80106e-06 -8.4673e-06 0.0853648)
(-4.61383e-06 9.42694e-06 0.0721838)
(-1.51706e-06 1.7706e-05 0.0836724)
(-5.49322e-07 4.87727e-07 0.109199)
(-2.85018e-05 -2.87386e-05 0.100805)
(6.07893e-05 2.96747e-05 0.104387)
(2.98824e-05 6.05176e-05 0.104394)
(-6.20378e-05 -6.25214e-05 0.106608)
(-6.16427e-05 -3.04118e-05 0.104509)
(-3.02893e-05 -6.1998e-05 0.104515)
(2.69389e-05 2.67168e-05 0.100672)
(-2.82689e-05 2.8572e-05 0.100799)
(2.98235e-05 -6.07129e-05 0.104372)
(6.0857e-05 -2.96842e-05 0.104384)
(-6.2229e-05 6.24665e-05 0.1066)
(-6.14823e-05 3.04455e-05 0.104505)
(-3.02071e-05 6.16535e-05 0.104494)
(2.7026e-05 -2.68953e-05 0.100666)
(-6.14035e-07 -6.13694e-07 0.109198)
(-4.87448e-06 7.95705e-05 0.104691)
(1.11483e-05 -7.5831e-05 0.102754)
(-1.27561e-05 2.0376e-05 0.0958801)
(3.59076e-06 -2.54449e-05 0.0988457)
(-1.00867e-05 7.41124e-05 0.10288)
(-5.91326e-06 2.65125e-05 0.0989909)
(4.4809e-06 -7.7636e-05 0.104529)
(-4.49022e-06 -7.98316e-05 0.104701)
(1.17238e-05 7.62138e-05 0.102759)
(-1.27019e-05 -2.00521e-05 0.0958775)
(3.87542e-06 2.55081e-05 0.0988542)
(-5.65975e-06 -2.64835e-05 0.0989993)
(-9.4903e-06 -7.38988e-05 0.102883)
(4.94803e-06 7.77911e-05 0.10454)
(-7.95005e-05 -4.47805e-06 0.104709)
(7.64098e-05 1.11478e-05 0.102765)
(-2.02108e-05 -1.30099e-05 0.0958769)
(2.55658e-05 3.67521e-06 0.0988544)
(-2.6554e-05 -5.78689e-06 0.099001)
(-7.38645e-05 -1.0112e-05 0.102891)
(7.78913e-05 4.85636e-06 0.104547)
(-7.60822e-05 -9.74907e-07 0.105879)
(-2.80142e-05 -4.47401e-08 0.102557)
(2.69559e-05 5.84688e-07 0.101244)
(7.06493e-05 1.5886e-07 0.106259)
(-2.84023e-05 -1.59617e-06 0.101374)
(-7.25061e-05 2.00142e-07 0.10636)
(7.28948e-05 1.13902e-06 0.105741)
(-7.88288e-05 4.64119e-06 0.104654)
(7.59947e-05 -1.11118e-05 0.102721)
(-1.98478e-05 1.28463e-05 0.0958501)
(2.56936e-05 -3.58598e-06 0.0988022)
(-2.60101e-05 5.74772e-06 0.0989465)
(-7.36072e-05 1.00644e-05 0.102847)
(7.76575e-05 -4.69197e-06 0.104492)
(-7.56536e-05 1.04598e-06 0.105825)
(-2.79562e-05 4.4847e-07 0.102508)
(7.04968e-05 2.65077e-07 0.106237)
(2.68053e-05 -7.07651e-07 0.101157)
(-7.2503e-05 7.44302e-08 0.106338)
(-2.80299e-05 1.47643e-06 0.101284)
(7.24793e-05 -1.01152e-06 0.105687)
(-1.12379e-06 1.58737e-06 0.107859)
(-5.7493e-05 -5.7931e-05 0.106484)
(-1.03186e-06 -1.2339e-06 0.108915)
(-1.39534e-06 1.65512e-06 0.107859)
(1.83749e-06 -1.45756e-06 0.107858)
(-5.79514e-05 -5.78665e-05 0.106484)
(-1.18272e-06 -1.24187e-06 0.108915)
(-1.46683e-06 1.70154e-06 0.107859)
(1.82794e-06 -1.70093e-06 0.107858)
(-5.77116e-05 -5.79484e-05 0.106483)
(-1.16852e-06 -1.20643e-06 0.108916)
(-1.40467e-06 1.67863e-06 0.10786)
(1.95684e-06 -1.71472e-06 0.107859)
(-5.78209e-05 -5.80619e-05 0.106484)
(-1.1525e-06 -1.12876e-06 0.108916)
(-1.3586e-06 1.59525e-06 0.107861)
(1.95019e-06 -1.34418e-06 0.107859)
(-5.81257e-05 -5.7542e-05 0.106486)
(-1.13509e-06 -1.07005e-06 0.108916)
(-1.34272e-06 1.80918e-06 0.107863)
(1.93879e-06 -1.24021e-06 0.10786)
(-5.8304e-05 -5.71253e-05 0.106489)
(-1.17089e-06 -9.75413e-07 0.108916)
(-1.19547e-06 1.92866e-06 0.107864)
(1.93669e-06 -1.32168e-06 0.10786)
(-5.75589e-05 -5.72827e-05 0.106492)
(-1.19781e-06 -9.94267e-07 0.108916)
(-1.08731e-06 1.63864e-06 0.107866)
(1.68116e-06 -1.48925e-06 0.107861)
(-5.78011e-05 -5.76725e-05 0.106498)
(-1.11267e-06 -1.13267e-06 0.108916)
(-1.26023e-06 1.55184e-06 0.107867)
(1.57448e-06 -1.44259e-06 0.107861)
(-5.75718e-05 -5.76456e-05 0.106503)
(-1.16791e-06 -1.2586e-06 0.108916)
(-1.26417e-06 1.54441e-06 0.107868)
(1.57682e-06 -1.41878e-06 0.107861)
(-5.77379e-05 -5.80059e-05 0.106507)
(-1.34572e-06 -1.22376e-06 0.108916)
(-1.40166e-06 1.5073e-06 0.107868)
(1.55191e-06 -1.39628e-06 0.107862)
(-5.83077e-05 -5.73958e-05 0.106508)
(-1.53435e-06 -1.1632e-06 0.108916)
(-1.68554e-06 1.72372e-06 0.107867)
(1.3331e-06 -1.35142e-06 0.107862)
(-5.81959e-05 -5.75925e-05 0.106509)
(-1.65161e-06 -1.0725e-06 0.108916)
(-1.69849e-06 1.77319e-06 0.107867)
(1.08567e-06 -1.42279e-06 0.107863)
(-5.83189e-05 -5.75765e-05 0.106509)
(-1.60756e-06 -1.03482e-06 0.108916)
(-1.28399e-06 1.97406e-06 0.107867)
(1.20509e-06 -1.47179e-06 0.107863)
(-5.81262e-05 -5.79516e-05 0.106508)
(-1.55021e-06 -1.20107e-06 0.108915)
(-1.08113e-06 2.05647e-06 0.107866)
(1.64522e-06 -1.26421e-06 0.107862)
(-5.78291e-05 -5.73984e-05 0.106507)
(-1.41027e-06 -1.39682e-06 0.108914)
(-1.22157e-06 1.86655e-06 0.107865)
(1.76662e-06 -1.03056e-06 0.107861)
(-5.79158e-05 -5.74385e-05 0.106506)
(-1.12524e-06 -1.46393e-06 0.108913)
(-1.31542e-06 1.58994e-06 0.107863)
(1.90734e-06 -1.23616e-06 0.107859)
(-5.81928e-05 -5.79537e-05 0.106503)
(-1.18197e-06 -1.39342e-06 0.108913)
(-1.37173e-06 1.8118e-06 0.107863)
(2.06738e-06 -1.50909e-06 0.107859)
(-5.79555e-05 -5.80887e-05 0.106501)
(-1.32617e-06 -1.2524e-06 0.108913)
(-1.43684e-06 2.11541e-06 0.107863)
(2.07876e-06 -1.53831e-06 0.107858)
(-5.78153e-05 -5.81637e-05 0.1065)
(-1.2824e-06 -1.26587e-06 0.108914)
(-1.40405e-06 2.00083e-06 0.107863)
(2.04227e-06 -1.3766e-06 0.107858)
(-5.77102e-05 -5.80531e-05 0.106499)
(-1.22127e-06 -1.30916e-06 0.108914)
(-1.30766e-06 1.86736e-06 0.107862)
(1.98568e-06 -1.26274e-06 0.107858)
(-5.77199e-05 -5.78851e-05 0.106498)
(-1.11634e-06 -1.2429e-06 0.108913)
(-1.4355e-06 1.98689e-06 0.107862)
(2.05163e-06 -1.20262e-06 0.107857)
(-5.76844e-05 -5.78808e-05 0.106496)
(-1.11107e-06 -1.19953e-06 0.108914)
(-1.60661e-06 1.93631e-06 0.107861)
(1.92662e-06 -1.37348e-06 0.107857)
(-5.73954e-05 -5.79132e-05 0.106494)
(-1.16234e-06 -1.17553e-06 0.108914)
(-1.42669e-06 1.79111e-06 0.107861)
(1.68475e-06 -1.5558e-06 0.107857)
(-5.74775e-05 -5.80879e-05 0.106493)
(-1.1096e-06 -1.13234e-06 0.108914)
(-1.23659e-06 1.90998e-06 0.107861)
(1.75862e-06 -1.33724e-06 0.107858)
(-5.76739e-05 -5.81636e-05 0.106491)
(-1.05116e-06 -1.13082e-06 0.108915)
(-1.26684e-06 2.01017e-06 0.107861)
(1.652e-06 -1.12161e-06 0.107858)
(-5.76353e-05 -5.84516e-05 0.10649)
(-1.21504e-06 -1.16576e-06 0.108915)
(-1.14778e-06 1.82164e-06 0.10786)
(1.74997e-06 -1.17855e-06 0.107859)
(-5.76439e-05 -5.83206e-05 0.106489)
(-1.33952e-06 -1.29535e-06 0.108915)
(-1.34441e-06 1.87304e-06 0.10786)
(1.95387e-06 -1.30984e-06 0.107859)
(-5.80996e-05 -5.79765e-05 0.106488)
(-1.34884e-06 -1.27299e-06 0.108914)
(-1.40399e-06 2.22634e-06 0.10786)
(1.78928e-06 -1.31025e-06 0.10786)
(-5.83324e-05 -5.76386e-05 0.106488)
(-1.20125e-06 -1.05349e-06 0.108915)
(-1.17605e-06 2.42599e-06 0.10786)
(1.70489e-06 -1.13766e-06 0.107861)
(-5.77183e-05 -5.7979e-05 0.106489)
(-1.05909e-06 -9.15276e-07 0.108915)
(-1.2249e-06 2.22901e-06 0.107861)
(1.90578e-06 -1.10363e-06 0.107863)
(-5.77023e-05 -5.78688e-05 0.10649)
(-9.75815e-07 -9.90586e-07 0.108915)
(-1.22493e-06 1.99616e-06 0.107861)
(1.88564e-06 -9.70926e-07 0.107864)
(-5.79378e-05 -5.76758e-05 0.106491)
(-9.5946e-07 -1.05015e-06 0.108915)
(-1.15536e-06 1.92246e-06 0.107862)
(1.77427e-06 -1.01969e-06 0.107864)
(-5.78084e-05 -5.76755e-05 0.106491)
(-9.79884e-07 -1.22228e-06 0.108915)
(-1.3595e-06 1.77907e-06 0.107862)
(1.91326e-06 -1.25185e-06 0.107864)
(-5.78138e-05 -5.76543e-05 0.106491)
(-1.01576e-06 -1.43642e-06 0.108915)
(-1.29582e-06 1.4813e-06 0.107863)
(1.92529e-06 -1.42788e-06 0.107864)
(-5.78398e-05 -5.76334e-05 0.10649)
(-1.1767e-06 -1.55952e-06 0.108915)
(-1.2126e-06 1.3547e-06 0.107863)
(1.7801e-06 -1.67315e-06 0.107863)
(-5.76641e-05 -5.79273e-05 0.106489)
(-1.35878e-06 -1.49743e-06 0.108915)
(-1.26156e-06 1.71558e-06 0.107863)
(1.74298e-06 -1.78549e-06 0.107862)
(-5.75655e-05 -5.7919e-05 0.106488)
(-1.36364e-06 -1.34078e-06 0.108916)
(-1.27529e-06 1.75756e-06 0.107864)
(1.69784e-06 -1.51843e-06 0.107861)
(-5.7811e-05 -5.8043e-05 0.106487)
(-1.36296e-06 -1.33991e-06 0.108917)
(-1.18222e-06 1.72094e-06 0.107865)
(1.80711e-06 -1.3714e-06 0.107861)
(-5.77592e-05 -5.75654e-05 0.106487)
(-1.31203e-06 -1.34395e-06 0.108917)
(-9.4176e-07 1.545e-06 0.107866)
(1.97316e-06 -1.28193e-06 0.107861)
(-5.72791e-05 -5.7409e-05 0.106487)
(-1.23505e-06 -1.26039e-06 0.108918)
(-7.04366e-07 1.60782e-06 0.107867)
(2.00573e-06 -1.11382e-06 0.107861)
(-5.68133e-05 -5.67641e-05 0.106487)
(-1.32511e-06 -1.34805e-06 0.10892)
(-7.04762e-07 1.69869e-06 0.107868)
(2.00587e-06 -9.32195e-07 0.107862)
(-5.63418e-05 -5.59947e-05 0.106489)
(-1.50648e-06 -1.49445e-06 0.108922)
(-7.11968e-07 1.81959e-06 0.10787)
(1.88095e-06 -8.32915e-07 0.107863)
(-5.4772e-05 -5.44616e-05 0.106491)
(-1.48498e-06 -1.59076e-06 0.108925)
(-5.90397e-07 2.10511e-06 0.107872)
(1.9968e-06 -6.45601e-07 0.107865)
(-5.15277e-05 -5.1409e-05 0.106498)
(-1.47133e-06 -1.77761e-06 0.108929)
(-1.37057e-07 2.54954e-06 0.107875)
(2.42216e-06 -7.37253e-08 0.107869)
(-4.53146e-05 -4.5812e-05 0.10651)
(-1.99203e-06 -2.18622e-06 0.108935)
(7.23919e-07 3.74324e-06 0.10788)
(3.63602e-06 5.13241e-07 0.107875)
(-3.4059e-05 -3.44919e-05 0.106532)
(-7.86173e-06 -8.06995e-06 0.108934)
(5.17121e-06 4.56417e-06 0.107885)
(4.18864e-06 5.41157e-06 0.107881)
(-1.39092e-05 -1.495e-05 0.106571)
(-3.92525e-05 -3.95047e-05 0.108905)
(5.94816e-05 -3.88937e-05 0.107893)
(-3.85957e-05 5.9603e-05 0.10789)
(3.87594e-05 3.83989e-05 0.106705)
(-6.18343e-05 -6.22188e-05 0.106608)
(-1.60632e-06 1.26765e-06 0.107858)
(2.26139e-06 1.13244e-06 0.107861)
(-1.9602e-06 1.22179e-06 0.107858)
(-5.75047e-05 5.75485e-05 0.106479)
(6.22888e-05 -6.21661e-05 0.106607)
(1.49849e-06 2.05549e-06 0.107861)
(1.3809e-06 -2.12257e-06 0.107851)
(-1.10731e-06 -1.98526e-06 0.107862)
(-1.28548e-06 1.84263e-06 0.107859)
(-1.23438e-06 -2.27012e-06 0.107862)
(-6.20205e-05 6.21358e-05 0.106601)
(-1.65034e-06 -1.35101e-06 0.107859)
(2.05895e-06 -1.3411e-06 0.107858)
(-1.90665e-06 -1.32462e-06 0.107859)
(6.21129e-05 6.21133e-05 0.106611)
(5.80905e-05 5.75755e-05 0.10648)
(-6.20412e-05 -6.23605e-05 0.106607)
(2.05872e-06 1.33391e-06 0.10786)
(-1.81354e-06 1.43383e-06 0.107858)
(1.93841e-06 1.12873e-06 0.107861)
(-2.00501e-06 1.23791e-06 0.107858)
(-5.76889e-05 5.76485e-05 0.106478)
(6.23645e-05 -6.21856e-05 0.106607)
(1.69592e-06 1.91018e-06 0.107861)
(1.52883e-06 -1.89968e-06 0.10785)
(1.39962e-06 2.00904e-06 0.107861)
(1.24163e-06 -2.2e-06 0.107851)
(-1.43649e-06 -2.11229e-06 0.107861)
(-1.3767e-06 1.79881e-06 0.107859)
(-1.3889e-06 -2.24838e-06 0.107861)
(5.77447e-05 -5.78106e-05 0.106473)
(-6.2561e-05 6.19864e-05 0.106601)
(-1.73404e-06 -1.46141e-06 0.107858)
(1.96753e-06 -1.53457e-06 0.107858)
(-1.70787e-06 -1.36021e-06 0.107858)
(6.22956e-05 6.21144e-05 0.10661)
(5.79071e-05 5.75555e-05 0.106479)
(-6.22327e-05 -6.23572e-05 0.106607)
(1.72209e-06 1.33884e-06 0.10786)
(-1.84333e-06 1.45708e-06 0.107858)
(1.8663e-06 1.24295e-06 0.107861)
(-2.07474e-06 1.38521e-06 0.107859)
(-5.76403e-05 5.7747e-05 0.106479)
(6.23713e-05 -6.22349e-05 0.106608)
(1.61481e-06 1.77444e-06 0.10786)
(1.43119e-06 -1.98392e-06 0.10785)
(1.35756e-06 1.84432e-06 0.10786)
(1.24621e-06 -2.11654e-06 0.107851)
(-1.48017e-06 -2.05773e-06 0.107861)
(-1.33646e-06 1.82083e-06 0.10786)
(-1.2619e-06 -2.08151e-06 0.107862)
(5.74421e-05 -5.81428e-05 0.106473)
(-6.24253e-05 6.18656e-05 0.106601)
(-1.63513e-06 -1.62692e-06 0.107858)
(2.10295e-06 -1.71905e-06 0.107859)
(-1.98188e-06 -1.67792e-06 0.107859)
(6.23876e-05 6.19362e-05 0.106611)
(5.7847e-05 5.75857e-05 0.10648)
(-6.24596e-05 -6.24439e-05 0.106609)
(1.70916e-06 1.51818e-06 0.107861)
(-1.86854e-06 1.59072e-06 0.107859)
(1.86031e-06 1.42043e-06 0.107861)
(-1.7795e-06 1.44948e-06 0.107859)
(-5.76407e-05 5.77437e-05 0.10648)
(6.26435e-05 -6.24766e-05 0.10661)
(1.62633e-06 1.67781e-06 0.10786)
(1.49352e-06 -1.86252e-06 0.107851)
(1.5784e-06 1.72673e-06 0.10786)
(1.42755e-06 -1.80105e-06 0.107852)
(-1.39e-06 -1.76325e-06 0.107862)
(-1.30269e-06 1.77277e-06 0.107861)
(-1.38899e-06 -1.80212e-06 0.107863)
(5.75028e-05 -5.81323e-05 0.106474)
(-6.21291e-05 6.22531e-05 0.106603)
(-1.6966e-06 -1.71388e-06 0.107859)
(2.1029e-06 -1.36981e-06 0.107859)
(-1.93476e-06 -1.31389e-06 0.10786)
(6.21348e-05 6.26653e-05 0.106613)
(5.75237e-05 5.75998e-05 0.106481)
(-6.29266e-05 -6.23747e-05 0.106611)
(1.60387e-06 1.68601e-06 0.107861)
(-1.50862e-06 1.68972e-06 0.107859)
(1.74747e-06 1.4362e-06 0.107861)
(-1.66674e-06 1.59154e-06 0.10786)
(-5.74493e-05 5.77166e-05 0.106483)
(6.3069e-05 -6.24553e-05 0.106614)
(1.76991e-06 1.48671e-06 0.10786)
(1.63597e-06 -1.57756e-06 0.107852)
(1.48774e-06 1.60925e-06 0.107861)
(1.4594e-06 -1.65404e-06 0.107854)
(-1.54537e-06 -1.60549e-06 0.107863)
(-1.27675e-06 1.81874e-06 0.107862)
(-1.60925e-06 -1.71681e-06 0.107864)
(5.78778e-05 -5.7751e-05 0.106476)
(-6.23983e-05 6.23836e-05 0.106605)
(-1.80717e-06 -1.34021e-06 0.10786)
(2.03511e-06 -1.18166e-06 0.10786)
(-1.98077e-06 -1.07104e-06 0.107861)
(6.21209e-05 6.29996e-05 0.106616)
(5.71534e-05 5.76316e-05 0.106483)
(-6.30552e-05 -6.2313e-05 0.106614)
(1.63416e-06 1.69923e-06 0.107861)
(-1.4736e-06 1.77558e-06 0.10786)
(1.69543e-06 1.79505e-06 0.107861)
(-1.55022e-06 1.63327e-06 0.107861)
(-5.72953e-05 5.77251e-05 0.106486)
(6.26362e-05 -6.2281e-05 0.106618)
(1.64031e-06 1.58442e-06 0.107861)
(1.59877e-06 -1.44999e-06 0.107854)
(1.26263e-06 1.82429e-06 0.107862)
(1.28894e-06 -1.78979e-06 0.107855)
(-1.81354e-06 -1.51767e-06 0.107863)
(-1.19864e-06 2.19643e-06 0.107864)
(-1.55102e-06 -1.65461e-06 0.107864)
(5.75234e-05 -5.77327e-05 0.106478)
(-6.23665e-05 6.2265e-05 0.106608)
(-1.5684e-06 -1.12178e-06 0.107861)
(2.12997e-06 -1.22055e-06 0.10786)
(-1.52772e-06 -1.00551e-06 0.107862)
(6.26992e-05 6.31222e-05 0.106619)
(5.7177e-05 5.77981e-05 0.106487)
(-6.24229e-05 -6.22313e-05 0.106617)
(1.56746e-06 2.00196e-06 0.107861)
(-1.21745e-06 1.77595e-06 0.107861)
(1.82159e-06 1.72296e-06 0.107861)
(-1.30158e-06 1.46677e-06 0.107862)
(-5.75591e-05 5.78316e-05 0.106491)
(6.27986e-05 -6.24752e-05 0.106622)
(1.46138e-06 1.72556e-06 0.107862)
(1.4562e-06 -1.60847e-06 0.107855)
(1.35331e-06 2.08998e-06 0.107863)
(1.07824e-06 -1.75018e-06 0.107856)
(-1.56217e-06 -1.43727e-06 0.107864)
(-1.0327e-06 1.85267e-06 0.107865)
(-1.302e-06 -1.80966e-06 0.107865)
(5.76996e-05 -5.78429e-05 0.106481)
(-6.25579e-05 6.2164e-05 0.106611)
(-1.34668e-06 -1.16742e-06 0.107862)
(1.92378e-06 -1.41351e-06 0.10786)
(-1.51212e-06 -1.21238e-06 0.107863)
(6.26647e-05 6.27543e-05 0.106624)
(5.77177e-05 5.78268e-05 0.10649)
(-6.24975e-05 -6.19178e-05 0.10662)
(1.64757e-06 1.93094e-06 0.107861)
(-1.17662e-06 1.6737e-06 0.107862)
(2.06232e-06 1.63462e-06 0.107862)
(-1.51323e-06 1.27872e-06 0.107864)
(-5.74485e-05 5.77149e-05 0.106495)
(6.25305e-05 -6.24429e-05 0.106626)
(1.58299e-06 1.84702e-06 0.107863)
(1.24372e-06 -1.55977e-06 0.107857)
(1.29889e-06 1.92531e-06 0.107864)
(1.08135e-06 -1.83057e-06 0.107858)
(-1.40805e-06 -1.70245e-06 0.107865)
(-1.17455e-06 1.76354e-06 0.107867)
(-1.25464e-06 -1.72642e-06 0.107866)
(5.7385e-05 -5.78226e-05 0.106484)
(-6.26095e-05 6.22667e-05 0.106613)
(-1.37229e-06 -1.37134e-06 0.107864)
(1.75194e-06 -1.42487e-06 0.107861)
(-1.40777e-06 -1.33485e-06 0.107865)
(6.27523e-05 6.26879e-05 0.106629)
(5.75764e-05 5.8064e-05 0.106493)
(-6.22732e-05 -6.21604e-05 0.106622)
(1.92175e-06 1.74803e-06 0.107861)
(-1.40149e-06 1.40244e-06 0.107864)
(2.14918e-06 1.2418e-06 0.107862)
(-1.77234e-06 1.2067e-06 0.107865)
(-5.76974e-05 5.77005e-05 0.106499)
(6.23838e-05 -6.24283e-05 0.106629)
(1.45644e-06 1.63824e-06 0.107864)
(1.2856e-06 -1.70903e-06 0.107858)
(1.17157e-06 1.85314e-06 0.107865)
(1.15219e-06 -2.14905e-06 0.107859)
(-1.406e-06 -1.60549e-06 0.107866)
(-1.229e-06 1.76503e-06 0.107868)
(-1.17973e-06 -1.81591e-06 0.107867)
(5.73859e-05 -5.77196e-05 0.106486)
(-6.22262e-05 6.2266e-05 0.106616)
(-1.31892e-06 -1.46867e-06 0.107865)
(1.73045e-06 -1.36583e-06 0.107861)
(-1.8566e-06 -1.45249e-06 0.107866)
(6.25649e-05 6.21177e-05 0.106633)
(5.78874e-05 5.78128e-05 0.106495)
(-6.21238e-05 -6.21371e-05 0.106624)
(1.93373e-06 1.40923e-06 0.107862)
(-1.51369e-06 1.35993e-06 0.107865)
(2.10048e-06 1.21625e-06 0.107862)
(-1.87803e-06 1.20201e-06 0.107865)
(-5.77479e-05 5.76229e-05 0.106501)
(6.24832e-05 -6.26286e-05 0.10663)
(1.38953e-06 1.77967e-06 0.107865)
(1.38795e-06 -2.02814e-06 0.107859)
(1.17333e-06 2.12622e-06 0.107865)
(1.17762e-06 -2.3059e-06 0.10786)
(-1.32893e-06 -1.68782e-06 0.107867)
(-1.25556e-06 1.61876e-06 0.107868)
(-1.44383e-06 -1.98141e-06 0.107867)
(5.77761e-05 -5.77579e-05 0.106489)
(-6.20657e-05 6.22027e-05 0.106617)
(-1.63649e-06 -1.50119e-06 0.107866)
(1.731e-06 -1.35169e-06 0.107862)
(-1.70291e-06 -1.10483e-06 0.107867)
(6.20049e-05 6.2872e-05 0.106635)
(5.79856e-05 5.78178e-05 0.106497)
(-6.23913e-05 -6.21414e-05 0.106624)
(1.82388e-06 1.41657e-06 0.107862)
(-1.72353e-06 1.33112e-06 0.107865)
(1.81091e-06 1.24218e-06 0.107862)
(-2.23042e-06 1.15174e-06 0.107866)
(-5.77961e-05 5.73981e-05 0.106503)
(6.1985e-05 -6.25278e-05 0.106631)
(1.36077e-06 1.97063e-06 0.107865)
(1.3612e-06 -2.08548e-06 0.107859)
(1.07137e-06 2.12592e-06 0.107865)
(1.01197e-06 -2.10529e-06 0.10786)
(-1.65766e-06 -1.78486e-06 0.107867)
(-1.57976e-06 1.84948e-06 0.107867)
(-1.66797e-06 -1.86301e-06 0.107867)
(5.773e-05 -5.77157e-05 0.10649)
(-6.22321e-05 6.2269e-05 0.106618)
(-1.57927e-06 -1.19979e-06 0.107867)
(1.6002e-06 -1.31349e-06 0.107862)
(-2.03783e-06 -9.88695e-07 0.107868)
(6.18814e-05 6.26278e-05 0.106635)
(5.75882e-05 5.77717e-05 0.106497)
(-6.2422e-05 -6.19737e-05 0.106625)
(1.58915e-06 1.47804e-06 0.107862)
(-2.12416e-06 1.34099e-06 0.107865)
(1.69732e-06 1.33858e-06 0.107863)
(-2.542e-06 1.36658e-06 0.107866)
(-5.81189e-05 5.75503e-05 0.106504)
(6.19222e-05 -6.21625e-05 0.106631)
(1.25278e-06 1.92366e-06 0.107865)
(1.1823e-06 -1.85102e-06 0.10786)
(9.72841e-07 2.22229e-06 0.107865)
(8.1568e-07 -1.93854e-06 0.10786)
(-1.77773e-06 -1.60982e-06 0.107866)
(-1.72027e-06 1.98578e-06 0.107867)
(-1.69019e-06 -1.82349e-06 0.107867)
(5.7564e-05 -5.75892e-05 0.106491)
(-6.26326e-05 6.22224e-05 0.106619)
(-1.98715e-06 -1.13078e-06 0.107868)
(1.32867e-06 -1.33063e-06 0.107863)
(-2.18469e-06 -1.0351e-06 0.107868)
(6.16848e-05 6.2607e-05 0.106635)
(5.74347e-05 5.78909e-05 0.106498)
(-6.25546e-05 -6.1815e-05 0.106625)
(1.49717e-06 1.59077e-06 0.107862)
(-2.30205e-06 1.54922e-06 0.107865)
(1.67463e-06 1.51949e-06 0.107863)
(-2.14321e-06 1.26632e-06 0.107865)
(-5.79985e-05 5.78858e-05 0.106504)
(6.21388e-05 -6.21795e-05 0.106631)
(1.1608e-06 2.02551e-06 0.107865)
(9.32278e-07 -1.69903e-06 0.10786)
(8.72044e-07 2.28191e-06 0.107865)
(6.04134e-07 -1.9005e-06 0.107861)
(-1.79255e-06 -1.7423e-06 0.107866)
(-1.37048e-06 2.13657e-06 0.107867)
(-1.42859e-06 -2.14582e-06 0.107866)
(5.7097e-05 -5.7633e-05 0.106492)
(-6.26871e-05 6.20881e-05 0.10662)
(-2.04877e-06 -1.15883e-06 0.107868)
(1.31139e-06 -1.4166e-06 0.107863)
(-2.15967e-06 -1.15634e-06 0.107868)
(6.18091e-05 6.21339e-05 0.106634)
(5.74153e-05 5.80009e-05 0.106498)
(-6.24718e-05 -6.20257e-05 0.106625)
(1.49876e-06 1.75821e-06 0.107862)
(-1.88691e-06 1.46346e-06 0.107865)
(1.77148e-06 1.42299e-06 0.107863)
(-2.0979e-06 1.22452e-06 0.107864)
(-5.77095e-05 5.77283e-05 0.106504)
(6.24011e-05 -6.19494e-05 0.10663)
(1.03851e-06 2.00019e-06 0.107865)
(8.27503e-07 -1.69635e-06 0.107861)
(8.58047e-07 2.11424e-06 0.107865)
(7.2901e-07 -1.92692e-06 0.107861)
(-1.46569e-06 -2.02816e-06 0.107866)
(-1.00711e-06 2.17849e-06 0.107866)
(-1.17194e-06 -2.05067e-06 0.107866)
(5.69789e-05 -5.76756e-05 0.106493)
(-6.239e-05 6.21383e-05 0.10662)
(-1.95476e-06 -1.3167e-06 0.107868)
(1.72011e-06 -1.28635e-06 0.107862)
(-1.90094e-06 -1.09393e-06 0.107868)
(6.20511e-05 6.24821e-05 0.106633)
(5.74179e-05 5.77481e-05 0.106498)
(-6.24098e-05 -6.25588e-05 0.106625)
(1.57716e-06 1.5768e-06 0.107862)
(-1.91533e-06 1.36989e-06 0.107864)
(1.88965e-06 1.13448e-06 0.107862)
(-2.16733e-06 1.10453e-06 0.107863)
(-5.75802e-05 5.79098e-05 0.106503)
(6.2152e-05 -6.206e-05 0.106629)
(1.05433e-06 1.79829e-06 0.107865)
(9.62789e-07 -1.71816e-06 0.107861)
(1.01257e-06 1.88867e-06 0.107865)
(9.35217e-07 -1.85622e-06 0.10786)
(-1.32355e-06 -1.7952e-06 0.107865)
(-1.14639e-06 2.19885e-06 0.107865)
(-1.18847e-06 -1.97852e-06 0.107864)
(5.72939e-05 -5.75947e-05 0.106493)
(-6.21781e-05 6.22652e-05 0.106618)
(-1.6801e-06 -1.13197e-06 0.107868)
(1.94745e-06 -9.9666e-07 0.107861)
(-1.92446e-06 -7.80941e-07 0.107868)
(6.20069e-05 6.26134e-05 0.106632)
(5.76582e-05 5.73704e-05 0.106498)
(-6.26157e-05 -6.23433e-05 0.106625)
(1.7215e-06 1.28136e-06 0.107861)
(-1.92701e-06 1.24698e-06 0.107863)
(2.17399e-06 1.02835e-06 0.107861)
(-2.0404e-06 9.36739e-07 0.107863)
(-5.77134e-05 5.77209e-05 0.106501)
(6.22437e-05 -6.2548e-05 0.106627)
(1.28462e-06 1.6602e-06 0.107864)
(1.14612e-06 -1.67877e-06 0.10786)
(1.13914e-06 1.60444e-06 0.107864)
(1.01622e-06 -2.06238e-06 0.107859)
(-1.29671e-06 -1.84302e-06 0.107864)
(-1.24084e-06 1.74202e-06 0.107864)
(-1.26051e-06 -2.33387e-06 0.107863)
(5.74712e-05 -5.74905e-05 0.106491)
(-6.20838e-05 6.20257e-05 0.106616)
(-1.79954e-06 -8.97296e-07 0.107867)
(2.02461e-06 -1.11124e-06 0.10786)
(-2.18885e-06 -9.94306e-07 0.107867)
(6.17851e-05 6.21088e-05 0.10663)
(5.75234e-05 5.76218e-05 0.106498)
(-6.23589e-05 -6.22489e-05 0.106626)
(2.06064e-06 1.20424e-06 0.107861)
(-1.87573e-06 1.1824e-06 0.107862)
(2.11817e-06 1.1048e-06 0.107861)
(-1.99699e-06 1.13443e-06 0.107862)
(-5.76882e-05 5.73497e-05 0.1065)
(6.20806e-05 -6.22415e-05 0.106627)
(1.43799e-06 1.45976e-06 0.107864)
(1.23286e-06 -1.92805e-06 0.107859)
(1.30306e-06 1.61911e-06 0.107865)
(1.28703e-06 -2.35883e-06 0.107859)
(-1.40422e-06 -2.19995e-06 0.107862)
(-1.31408e-06 1.87804e-06 0.107863)
(-1.24117e-06 -2.41525e-06 0.107862)
(5.76249e-05 -5.77913e-05 0.106488)
(-6.17919e-05 6.17258e-05 0.106614)
(-2.02916e-06 -1.17033e-06 0.107866)
(2.1937e-06 -1.38652e-06 0.107859)
(-2.07305e-06 -1.24703e-06 0.107866)
(6.1925e-05 6.19535e-05 0.106628)
(5.76429e-05 5.77075e-05 0.1065)
(-6.24873e-05 -6.20791e-05 0.106628)
(1.85064e-06 1.39971e-06 0.107861)
(-1.804e-06 1.28504e-06 0.107862)
(1.77184e-06 1.40171e-06 0.107861)
(-2.12808e-06 1.27278e-06 0.107863)
(-5.77721e-05 5.76503e-05 0.106499)
(6.18954e-05 -6.18778e-05 0.106626)
(1.43053e-06 1.41107e-06 0.107865)
(1.51374e-06 -2.2141e-06 0.107858)
(1.09382e-06 1.76148e-06 0.107866)
(1.28956e-06 -2.51142e-06 0.107858)
(-1.33799e-06 -2.20358e-06 0.107862)
(-1.36849e-06 2.27372e-06 0.107863)
(-1.17921e-06 -2.28294e-06 0.107862)
(5.79047e-05 -5.8082e-05 0.106486)
(-6.18089e-05 6.16038e-05 0.106612)
(-1.89214e-06 -1.44711e-06 0.107866)
(2.24238e-06 -1.48998e-06 0.107858)
(-2.08056e-06 -1.48647e-06 0.107866)
(6.20855e-05 6.17605e-05 0.106627)
(5.74932e-05 5.77942e-05 0.106501)
(-6.22081e-05 -6.23546e-05 0.106628)
(1.58955e-06 1.64108e-06 0.107861)
(-1.91866e-06 1.44361e-06 0.107862)
(1.82883e-06 1.31353e-06 0.107862)
(-2.04532e-06 1.11854e-06 0.107863)
(-5.79787e-05 5.79747e-05 0.106499)
(6.17856e-05 -6.21848e-05 0.106626)
(1.2801e-06 1.65331e-06 0.107865)
(1.45527e-06 -2.29985e-06 0.107858)
(1.1597e-06 1.96001e-06 0.107866)
(1.21484e-06 -2.36804e-06 0.107858)
(-1.31693e-06 -2.10035e-06 0.107862)
(-1.37809e-06 2.23631e-06 0.107863)
(-1.13875e-06 -2.19185e-06 0.107863)
(5.78414e-05 -5.81371e-05 0.106484)
(-6.18497e-05 6.17697e-05 0.10661)
(-1.85919e-06 -1.62613e-06 0.107866)
(2.20508e-06 -1.36549e-06 0.107858)
(-2.03869e-06 -1.46e-06 0.107866)
(6.21628e-05 6.1883e-05 0.106626)
(5.79221e-05 5.75239e-05 0.106501)
(-6.19953e-05 -6.24279e-05 0.106627)
(1.70678e-06 1.44713e-06 0.107861)
(-1.82199e-06 1.29247e-06 0.107863)
(2.0092e-06 1.11971e-06 0.107862)
(-1.90791e-06 1.12715e-06 0.107864)
(-5.80484e-05 5.75221e-05 0.106499)
(6.18803e-05 -6.25211e-05 0.106625)
(1.41559e-06 1.84499e-06 0.107866)
(1.47366e-06 -2.16101e-06 0.107858)
(1.23514e-06 2.01862e-06 0.107866)
(1.34386e-06 -2.24768e-06 0.107858)
(-1.26402e-06 -1.96809e-06 0.107862)
(-1.27962e-06 2.05721e-06 0.107863)
(-1.12902e-06 -2.11564e-06 0.107862)
(5.78196e-05 -5.79523e-05 0.106482)
(-6.1876e-05 6.19855e-05 0.106608)
(-1.83995e-06 -1.52319e-06 0.107865)
(2.17047e-06 -1.21766e-06 0.107858)
(-2.06048e-06 -1.20803e-06 0.107866)
(6.21531e-05 6.20705e-05 0.106625)
(5.79352e-05 5.75043e-05 0.1065)
(-6.20447e-05 -6.23673e-05 0.106626)
(1.80861e-06 1.25926e-06 0.107861)
(-1.74313e-06 1.31689e-06 0.107864)
(2.08371e-06 1.15937e-06 0.107862)
(-1.98862e-06 1.11132e-06 0.107864)
(-5.79353e-05 5.73374e-05 0.106498)
(6.17668e-05 -6.24517e-05 0.106624)
(1.45081e-06 1.80642e-06 0.107865)
(1.47751e-06 -2.02018e-06 0.107857)
(1.27019e-06 1.90472e-06 0.107865)
(1.32904e-06 -2.15117e-06 0.107857)
(-1.29284e-06 -1.91281e-06 0.107862)
(-1.33495e-06 2.11799e-06 0.107862)
(-1.24854e-06 -1.9343e-06 0.107862)
(5.7785e-05 -5.77697e-05 0.106481)
(-6.16886e-05 6.21502e-05 0.106607)
(-1.84928e-06 -1.27322e-06 0.107865)
(2.22015e-06 -1.16726e-06 0.107857)
(-2.12416e-06 -1.06326e-06 0.107865)
(6.2206e-05 6.20648e-05 0.106623)
(5.80025e-05 5.75271e-05 0.106499)
(-6.16122e-05 -6.24098e-05 0.106625)
(1.84002e-06 1.37653e-06 0.107862)
(-1.80558e-06 1.27181e-06 0.107864)
(2.14023e-06 9.38298e-07 0.107863)
(-2.28385e-06 1.21016e-06 0.107865)
(-5.80918e-05 5.74573e-05 0.106497)
(6.16395e-05 -6.20984e-05 0.106623)
(1.53726e-06 1.76394e-06 0.107865)
(1.54675e-06 -1.97146e-06 0.107857)
(1.60253e-06 2.1488e-06 0.107864)
(1.3474e-06 -2.23165e-06 0.107857)
(-1.43485e-06 -1.76638e-06 0.107861)
(-1.52092e-06 2.16629e-06 0.107861)
(-1.33485e-06 -1.79134e-06 0.107861)
(5.80069e-05 -5.76339e-05 0.106479)
(-6.17064e-05 6.1991e-05 0.106606)
(-1.99319e-06 -1.18466e-06 0.107865)
(2.1868e-06 -1.27302e-06 0.107857)
(-2.05628e-06 -1.28062e-06 0.107864)
(6.24201e-05 6.20126e-05 0.106622)
(5.8427e-05 5.75732e-05 0.106498)
(-6.17809e-05 -6.22503e-05 0.106624)
(1.99349e-06 1.11778e-06 0.107862)
(-2.0511e-06 1.35702e-06 0.107865)
(2.14937e-06 1.10757e-06 0.107863)