/*--------------------------------*- C++ -*----------------------------------*\
| =========                 |                                                 |
| \\      /  F ield         | OpenFOAM: The Open Source CFD Toolbox           |
|  \\    /   O peration     | Version:  v2012                                 |
|   \\  /    A nd           | Website:  www.openfoam.com                      |
|    \\/     M anipulation  |                                                 |
\*---------------------------------------------------------------------------*/
FoamFile
{
    version     2.0;
    format      ascii;
    class       volScalarField;
    location    "0.375";
    object      p;
}
// * * * * * * * * * * * * * * * * * * * * * * * * * * * * * * * * * * * * * //

dimensions      [0 2 -2 0 0 0 0];


internalField   nonuniform List<scalar> 
247104
(
1.84504e-06
1.84493e-06
1.84508e-06
1.84506e-06
1.84497e-06
1.84508e-06
1.84507e-06
1.84486e-06
1.84493e-06
1.845e-06
1.84505e-06
1.8449e-06
1.84481e-06
1.84492e-06
1.84506e-06
1.84497e-06
1.84508e-06
1.84505e-06
1.84475e-06
1.84439e-06
1.84425e-06
1.84443e-06
1.8448e-06
1.84507e-06
1.84509e-06
1.84506e-06
1.8449e-06
1.84439e-06
1.8439e-06
1.84373e-06
1.84395e-06
1.84446e-06
1.84495e-06
1.84506e-06
1.84504e-06
1.84498e-06
1.84481e-06
1.84425e-06
1.84373e-06
1.84355e-06
1.84378e-06
1.84432e-06
1.84487e-06
1.84496e-06
1.84508e-06
1.84493e-06
1.84443e-06
1.84395e-06
1.84378e-06
1.844e-06
1.8445e-06
1.84497e-06
1.84509e-06
1.84507e-06
1.84507e-06
1.8448e-06
1.84446e-06
1.84432e-06
1.8445e-06
1.84484e-06
1.84508e-06
1.84507e-06
1.84487e-06
1.84497e-06
1.84508e-06
1.84495e-06
1.84487e-06
1.84497e-06
1.84508e-06
1.84493e-06
1.84509e-06
1.84506e-06
1.84496e-06
1.84509e-06
1.84507e-06
1.81209e-06
1.81009e-06
1.80949e-06
1.80827e-06
1.80829e-06
1.80823e-06
1.80822e-06
1.80954e-06
1.80978e-06
1.80949e-06
1.80743e-06
1.80481e-06
1.80479e-06
1.80479e-06
1.80481e-06
1.80782e-06
1.80808e-06
1.80827e-06
1.80481e-06
1.80475e-06
1.80482e-06
1.80482e-06
1.80475e-06
1.80481e-06
1.80819e-06
1.80949e-06
1.81209e-06
1.80828e-06
1.80479e-06
1.80482e-06
1.80491e-06
1.80491e-06
1.80482e-06
1.80479e-06
1.80819e-06
1.80983e-06
1.81009e-06
1.80822e-06
1.80479e-06
1.80482e-06
1.80491e-06
1.80491e-06
1.80482e-06
1.80479e-06
1.80837e-06
1.80843e-06
1.80822e-06
1.80481e-06
1.80475e-06
1.80482e-06
1.80482e-06
1.80475e-06
1.80481e-06
1.80814e-06
1.8094e-06
1.80954e-06
1.80782e-06
1.80481e-06
1.80479e-06
1.80479e-06
1.80481e-06
1.80805e-06
1.80822e-06
1.80968e-06
1.80978e-06
1.80808e-06
1.8082e-06
1.80819e-06
1.80837e-06
1.80814e-06
1.80822e-06
1.80983e-06
1.80949e-06
1.80984e-06
1.80843e-06
1.8094e-06
1.80968e-06
1.79197e-06
1.79179e-06
1.79162e-06
1.78952e-06
1.78941e-06
1.78937e-06
1.78949e-06
1.79157e-06
1.79184e-06
1.79162e-06
1.78881e-06
1.78587e-06
1.78582e-06
1.78582e-06
1.78587e-06
1.78929e-06
1.78995e-06
1.78951e-06
1.78586e-06
1.78562e-06
1.78566e-06
1.78566e-06
1.78562e-06
1.78587e-06
1.79009e-06
1.79205e-06
1.79196e-06
1.78941e-06
1.78581e-06
1.78565e-06
1.78569e-06
1.78569e-06
1.78566e-06
1.78581e-06
1.79014e-06
1.7918e-06
1.79179e-06
1.78937e-06
1.78581e-06
1.78565e-06
1.78569e-06
1.78569e-06
1.78566e-06
1.78582e-06
1.7901e-06
1.79009e-06
1.78949e-06
1.78586e-06
1.78561e-06
1.78565e-06
1.78565e-06
1.78562e-06
1.78587e-06
1.79014e-06
1.79214e-06
1.79157e-06
1.78929e-06
1.78587e-06
1.78581e-06
1.78581e-06
1.78586e-06
1.78976e-06
1.79007e-06
1.79206e-06
1.79184e-06
1.78995e-06
1.7901e-06
1.79014e-06
1.79009e-06
1.79014e-06
1.79006e-06
1.79193e-06
1.79205e-06
1.79181e-06
1.79009e-06
1.79214e-06
1.79205e-06
1.77302e-06
1.77285e-06
1.77271e-06
1.77055e-06
1.77045e-06
1.77036e-06
1.77055e-06
1.77265e-06
1.77292e-06
1.77271e-06
1.76983e-06
1.76687e-06
1.76684e-06
1.76684e-06
1.76687e-06
1.77028e-06
1.77105e-06
1.77055e-06
1.76687e-06
1.76676e-06
1.76677e-06
1.76677e-06
1.76676e-06
1.76687e-06
1.77116e-06
1.77311e-06
1.77301e-06
1.77045e-06
1.76684e-06
1.76677e-06
1.76678e-06
1.76678e-06
1.76677e-06
1.76684e-06
1.77121e-06
1.77285e-06
1.77285e-06
1.77036e-06
1.76684e-06
1.76677e-06
1.76678e-06
1.76678e-06
1.76677e-06
1.76684e-06
1.77118e-06
1.77118e-06
1.77055e-06
1.76687e-06
1.76676e-06
1.76677e-06
1.76677e-06
1.76676e-06
1.76687e-06
1.77119e-06
1.77318e-06
1.77265e-06
1.77029e-06
1.76687e-06
1.76684e-06
1.76684e-06
1.76687e-06
1.77093e-06
1.77117e-06
1.77314e-06
1.77292e-06
1.77106e-06
1.77116e-06
1.77121e-06
1.77118e-06
1.77119e-06
1.77117e-06
1.77315e-06
1.77311e-06
1.77285e-06
1.77118e-06
1.77318e-06
1.77314e-06
1.75406e-06
1.75389e-06
1.75373e-06
1.75157e-06
1.75146e-06
1.75137e-06
1.75156e-06
1.75367e-06
1.75394e-06
1.75373e-06
1.75085e-06
1.74787e-06
1.74786e-06
1.74786e-06
1.74787e-06
1.75127e-06
1.75208e-06
1.75157e-06
1.74787e-06
1.74784e-06
1.74784e-06
1.74784e-06
1.74784e-06
1.74787e-06
1.75219e-06
1.75414e-06
1.75406e-06
1.75146e-06
1.74786e-06
1.74784e-06
1.74784e-06
1.74784e-06
1.74784e-06
1.74786e-06
1.75227e-06
1.75392e-06
1.75389e-06
1.75137e-06
1.74786e-06
1.74784e-06
1.74784e-06
1.74784e-06
1.74784e-06
1.74786e-06
1.75224e-06
1.75224e-06
1.75156e-06
1.74787e-06
1.74784e-06
1.74784e-06
1.74784e-06
1.74784e-06
1.74787e-06
1.75224e-06
1.75424e-06
1.75367e-06
1.75127e-06
1.74787e-06
1.74786e-06
1.74786e-06
1.74787e-06
1.752e-06
1.75222e-06
1.75417e-06
1.75394e-06
1.75208e-06
1.75218e-06
1.75226e-06
1.75224e-06
1.75223e-06
1.75221e-06
1.75416e-06
1.75414e-06
1.75392e-06
1.75224e-06
1.75423e-06
1.75417e-06
1.73508e-06
1.73491e-06
1.73474e-06
1.73258e-06
1.73247e-06
1.73238e-06
1.73257e-06
1.73469e-06
1.73496e-06
1.73474e-06
1.73187e-06
1.72888e-06
1.72888e-06
1.72888e-06
1.72888e-06
1.73227e-06
1.73309e-06
1.73258e-06
1.72888e-06
1.72888e-06
1.72888e-06
1.72888e-06
1.72888e-06
1.72888e-06
1.7332e-06
1.73516e-06
1.73508e-06
1.73247e-06
1.72888e-06
1.72888e-06
1.72888e-06
1.72888e-06
1.72888e-06
1.72888e-06
1.73329e-06
1.73495e-06
1.73492e-06
1.73239e-06
1.72888e-06
1.72888e-06
1.72888e-06
1.72888e-06
1.72888e-06
1.72888e-06
1.73327e-06
1.73326e-06
1.73257e-06
1.72888e-06
1.72888e-06
1.72888e-06
1.72888e-06
1.72888e-06
1.72888e-06
1.73326e-06
1.73526e-06
1.73469e-06
1.73227e-06
1.72888e-06
1.72888e-06
1.72888e-06
1.72888e-06
1.73303e-06
1.73324e-06
1.73518e-06
1.73496e-06
1.73309e-06
1.7332e-06
1.73329e-06
1.73327e-06
1.73326e-06
1.73324e-06
1.73517e-06
1.73516e-06
1.73495e-06
1.73326e-06
1.73526e-06
1.73518e-06
1.71611e-06
1.71594e-06
1.71576e-06
1.7136e-06
1.71349e-06
1.7134e-06
1.71359e-06
1.71571e-06
1.71597e-06
1.71576e-06
1.71289e-06
1.7099e-06
1.7099e-06
1.7099e-06
1.7099e-06
1.71328e-06
1.71411e-06
1.7136e-06
1.7099e-06
1.7099e-06
1.7099e-06
1.7099e-06
1.7099e-06
1.7099e-06
1.71421e-06
1.71617e-06
1.7161e-06
1.71349e-06
1.7099e-06
1.7099e-06
1.7099e-06
1.7099e-06
1.7099e-06
1.7099e-06
1.71431e-06
1.71597e-06
1.71594e-06
1.7134e-06
1.7099e-06
1.7099e-06
1.7099e-06
1.7099e-06
1.7099e-06
1.7099e-06
1.71429e-06
1.71428e-06
1.71359e-06
1.7099e-06
1.7099e-06
1.7099e-06
1.7099e-06
1.7099e-06
1.7099e-06
1.71428e-06
1.71629e-06
1.71571e-06
1.71328e-06
1.7099e-06
1.7099e-06
1.7099e-06
1.7099e-06
1.71405e-06
1.71426e-06
1.7162e-06
1.71597e-06
1.71411e-06
1.71422e-06
1.71431e-06
1.71429e-06
1.71428e-06
1.71426e-06
1.71619e-06
1.71618e-06
1.71597e-06
1.71428e-06
1.71629e-06
1.7162e-06
1.69713e-06
1.69696e-06
1.69678e-06
1.69462e-06
1.69451e-06
1.69443e-06
1.69461e-06
1.69673e-06
1.69699e-06
1.69678e-06
1.69391e-06
1.69092e-06
1.69092e-06
1.69092e-06
1.69092e-06
1.6943e-06
1.69513e-06
1.69462e-06
1.69092e-06
1.69092e-06
1.69092e-06
1.69092e-06
1.69092e-06
1.69092e-06
1.69523e-06
1.69719e-06
1.69713e-06
1.69451e-06
1.69092e-06
1.69092e-06
1.69092e-06
1.69092e-06
1.69092e-06
1.69092e-06
1.69533e-06
1.69699e-06
1.69696e-06
1.69443e-06
1.69092e-06
1.69092e-06
1.69092e-06
1.69092e-06
1.69092e-06
1.69092e-06
1.69531e-06
1.6953e-06
1.69461e-06
1.69092e-06
1.69092e-06
1.69092e-06
1.69092e-06
1.69092e-06
1.69092e-06
1.6953e-06
1.69731e-06
1.69673e-06
1.6943e-06
1.69092e-06
1.69092e-06
1.69092e-06
1.69092e-06
1.69507e-06
1.69528e-06
1.69722e-06
1.69699e-06
1.69513e-06
1.69523e-06
1.69533e-06
1.69531e-06
1.6953e-06
1.69529e-06
1.69721e-06
1.6972e-06
1.69699e-06
1.6953e-06
1.69731e-06
1.69722e-06
1.67815e-06
1.67798e-06
1.6778e-06
1.67565e-06
1.67553e-06
1.67545e-06
1.67563e-06
1.67775e-06
1.67802e-06
1.6778e-06
1.67494e-06
1.67195e-06
1.67195e-06
1.67195e-06
1.67195e-06
1.67532e-06
1.67615e-06
1.67565e-06
1.67195e-06
1.67195e-06
1.67195e-06
1.67195e-06
1.67195e-06
1.67195e-06
1.67626e-06
1.67822e-06
1.67815e-06
1.67553e-06
1.67195e-06
1.67195e-06
1.67195e-06
1.67195e-06
1.67195e-06
1.67195e-06
1.67635e-06
1.67801e-06
1.67798e-06
1.67545e-06
1.67195e-06
1.67195e-06
1.67195e-06
1.67195e-06
1.67195e-06
1.67195e-06
1.67633e-06
1.67633e-06
1.67563e-06
1.67195e-06
1.67195e-06
1.67195e-06
1.67195e-06
1.67195e-06
1.67195e-06
1.67632e-06
1.67833e-06
1.67775e-06
1.67532e-06
1.67195e-06
1.67195e-06
1.67195e-06
1.67195e-06
1.6761e-06
1.67631e-06
1.67824e-06
1.67802e-06
1.67616e-06
1.67626e-06
1.67635e-06
1.67633e-06
1.67632e-06
1.67631e-06
1.67823e-06
1.67822e-06
1.67801e-06
1.67633e-06
1.67833e-06
1.67824e-06
1.65917e-06
1.659e-06
1.65883e-06
1.65667e-06
1.65656e-06
1.65647e-06
1.65666e-06
1.65877e-06
1.65904e-06
1.65883e-06
1.65596e-06
1.65297e-06
1.65297e-06
1.65297e-06
1.65297e-06
1.65634e-06
1.65718e-06
1.65667e-06
1.65297e-06
1.65297e-06
1.65297e-06
1.65297e-06
1.65297e-06
1.65297e-06
1.65728e-06
1.65924e-06
1.65917e-06
1.65656e-06
1.65297e-06
1.65297e-06
1.65297e-06
1.65297e-06
1.65297e-06
1.65297e-06
1.65737e-06
1.65903e-06
1.659e-06
1.65647e-06
1.65297e-06
1.65297e-06
1.65297e-06
1.65297e-06
1.65297e-06
1.65297e-06
1.65736e-06
1.65735e-06
1.65666e-06
1.65297e-06
1.65297e-06
1.65297e-06
1.65297e-06
1.65297e-06
1.65297e-06
1.65735e-06
1.65935e-06
1.65878e-06
1.65635e-06
1.65297e-06
1.65297e-06
1.65297e-06
1.65297e-06
1.65712e-06
1.65733e-06
1.65927e-06
1.65904e-06
1.65718e-06
1.65728e-06
1.65737e-06
1.65736e-06
1.65735e-06
1.65733e-06
1.65926e-06
1.65924e-06
1.65904e-06
1.65735e-06
1.65935e-06
1.65927e-06
1.64019e-06
1.64002e-06
1.63985e-06
1.63769e-06
1.63758e-06
1.63749e-06
1.63768e-06
1.6398e-06
1.64006e-06
1.63985e-06
1.63698e-06
1.63399e-06
1.63399e-06
1.63399e-06
1.63399e-06
1.63737e-06
1.6382e-06
1.63769e-06
1.63399e-06
1.63399e-06
1.63399e-06
1.63399e-06
1.63399e-06
1.63399e-06
1.6383e-06
1.64026e-06
1.64019e-06
1.63758e-06
1.63399e-06
1.63399e-06
1.63399e-06
1.63399e-06
1.63399e-06
1.63399e-06
1.6384e-06
1.64006e-06
1.64002e-06
1.63749e-06
1.63399e-06
1.63399e-06
1.63399e-06
1.63399e-06
1.63399e-06
1.63399e-06
1.63838e-06
1.63837e-06
1.63768e-06
1.63399e-06
1.63399e-06
1.63399e-06
1.63399e-06
1.63399e-06
1.63399e-06
1.63837e-06
1.64038e-06
1.6398e-06
1.63737e-06
1.63399e-06
1.63399e-06
1.63399e-06
1.63399e-06
1.63814e-06
1.63835e-06
1.64029e-06
1.64006e-06
1.6382e-06
1.6383e-06
1.6384e-06
1.63838e-06
1.63837e-06
1.63835e-06
1.64028e-06
1.64027e-06
1.64006e-06
1.63837e-06
1.64038e-06
1.64029e-06
1.62122e-06
1.62105e-06
1.62087e-06
1.61871e-06
1.6186e-06
1.61852e-06
1.6187e-06
1.62082e-06
1.62108e-06
1.62087e-06
1.61801e-06
1.61501e-06
1.61501e-06
1.61501e-06
1.61501e-06
1.61839e-06
1.61922e-06
1.61871e-06
1.61501e-06
1.61501e-06
1.61501e-06
1.61501e-06
1.61501e-06
1.61501e-06
1.61933e-06
1.62129e-06
1.62122e-06
1.6186e-06
1.61501e-06
1.61501e-06
1.61501e-06
1.61501e-06
1.61501e-06
1.61501e-06
1.61942e-06
1.62108e-06
1.62105e-06
1.61852e-06
1.61501e-06
1.61501e-06
1.61501e-06
1.61501e-06
1.61501e-06
1.61501e-06
1.6194e-06
1.61939e-06
1.6187e-06
1.61501e-06
1.61501e-06
1.61501e-06
1.61501e-06
1.61501e-06
1.61501e-06
1.61939e-06
1.6214e-06
1.62082e-06
1.61839e-06
1.61501e-06
1.61501e-06
1.61501e-06
1.61501e-06
1.61917e-06
1.61938e-06
1.62131e-06
1.62108e-06
1.61922e-06
1.61932e-06
1.61942e-06
1.6194e-06
1.61939e-06
1.61938e-06
1.6213e-06
1.62129e-06
1.62108e-06
1.6194e-06
1.6214e-06
1.62131e-06
1.60224e-06
1.60207e-06
1.60189e-06
1.59974e-06
1.59963e-06
1.59954e-06
1.59972e-06
1.60184e-06
1.60211e-06
1.60189e-06
1.59903e-06
1.59604e-06
1.59604e-06
1.59604e-06
1.59604e-06
1.59942e-06
1.60025e-06
1.59974e-06
1.59604e-06
1.59604e-06
1.59604e-06
1.59604e-06
1.59604e-06
1.59604e-06
1.60035e-06
1.60231e-06
1.60224e-06
1.59963e-06
1.59604e-06
1.59604e-06
1.59604e-06
1.59604e-06
1.59604e-06
1.59604e-06
1.60044e-06
1.6021e-06
1.60207e-06
1.59954e-06
1.59604e-06
1.59604e-06
1.59604e-06
1.59604e-06
1.59604e-06
1.59604e-06
1.60043e-06
1.60042e-06
1.59973e-06
1.59604e-06
1.59604e-06
1.59604e-06
1.59604e-06
1.59604e-06
1.59604e-06
1.60042e-06
1.60242e-06
1.60184e-06
1.59942e-06
1.59604e-06
1.59604e-06
1.59604e-06
1.59604e-06
1.60019e-06
1.6004e-06
1.60234e-06
1.60211e-06
1.60025e-06
1.60035e-06
1.60044e-06
1.60042e-06
1.60042e-06
1.6004e-06
1.60233e-06
1.60231e-06
1.6021e-06
1.60042e-06
1.60242e-06
1.60234e-06
1.58326e-06
1.58309e-06
1.58292e-06
1.58076e-06
1.58065e-06
1.58056e-06
1.58075e-06
1.58287e-06
1.58313e-06
1.58292e-06
1.58005e-06
1.57706e-06
1.57706e-06
1.57706e-06
1.57706e-06
1.58044e-06
1.58127e-06
1.58076e-06
1.57706e-06
1.57706e-06
1.57706e-06
1.57706e-06
1.57706e-06
1.57706e-06
1.58137e-06
1.58333e-06
1.58326e-06
1.58065e-06
1.57706e-06
1.57706e-06
1.57706e-06
1.57706e-06
1.57706e-06
1.57706e-06
1.58147e-06
1.58313e-06
1.58309e-06
1.58056e-06
1.57706e-06
1.57706e-06
1.57706e-06
1.57706e-06
1.57706e-06
1.57706e-06
1.58145e-06
1.58144e-06
1.58075e-06
1.57706e-06
1.57706e-06
1.57706e-06
1.57706e-06
1.57706e-06
1.57706e-06
1.58144e-06
1.58345e-06
1.58287e-06
1.58044e-06
1.57706e-06
1.57706e-06
1.57706e-06
1.57706e-06
1.58121e-06
1.58142e-06
1.58336e-06
1.58313e-06
1.58127e-06
1.58137e-06
1.58147e-06
1.58145e-06
1.58144e-06
1.58142e-06
1.58335e-06
1.58333e-06
1.58313e-06
1.58144e-06
1.58344e-06
1.58336e-06
1.56429e-06
1.56412e-06
1.56394e-06
1.56178e-06
1.56167e-06
1.56159e-06
1.56177e-06
1.56389e-06
1.56415e-06
1.56394e-06
1.56108e-06
1.55808e-06
1.55808e-06
1.55808e-06
1.55808e-06
1.56146e-06
1.56229e-06
1.56178e-06
1.55808e-06
1.55808e-06
1.55808e-06
1.55808e-06
1.55808e-06
1.55808e-06
1.56239e-06
1.56436e-06
1.56429e-06
1.56167e-06
1.55808e-06
1.55808e-06
1.55808e-06
1.55808e-06
1.55808e-06
1.55808e-06
1.56249e-06
1.56415e-06
1.56412e-06
1.56159e-06
1.55808e-06
1.55808e-06
1.55808e-06
1.55808e-06
1.55808e-06
1.55808e-06
1.56247e-06
1.56246e-06
1.56177e-06
1.55808e-06
1.55808e-06
1.55808e-06
1.55808e-06
1.55808e-06
1.55808e-06
1.56246e-06
1.56447e-06
1.56389e-06
1.56146e-06
1.55808e-06
1.55808e-06
1.55808e-06
1.55808e-06
1.56224e-06
1.56245e-06
1.56438e-06
1.56415e-06
1.56229e-06
1.56239e-06
1.56249e-06
1.56247e-06
1.56246e-06
1.56245e-06
1.56437e-06
1.56436e-06
1.56415e-06
1.56246e-06
1.56447e-06
1.56438e-06
1.54531e-06
1.54514e-06
1.54496e-06
1.54281e-06
1.54269e-06
1.54261e-06
1.54279e-06
1.54491e-06
1.54518e-06
1.54496e-06
1.5421e-06
1.53911e-06
1.53911e-06
1.53911e-06
1.53911e-06
1.54248e-06
1.54332e-06
1.54281e-06
1.53911e-06
1.53911e-06
1.53911e-06
1.53911e-06
1.53911e-06
1.53911e-06
1.54342e-06
1.54538e-06
1.54531e-06
1.54269e-06
1.53911e-06
1.53911e-06
1.53911e-06
1.53911e-06
1.53911e-06
1.53911e-06
1.54351e-06
1.54517e-06
1.54514e-06
1.54261e-06
1.53911e-06
1.53911e-06
1.53911e-06
1.53911e-06
1.53911e-06
1.53911e-06
1.54349e-06
1.54349e-06
1.54279e-06
1.53911e-06
1.53911e-06
1.53911e-06
1.53911e-06
1.53911e-06
1.53911e-06
1.54349e-06
1.54549e-06
1.54491e-06
1.54248e-06
1.53911e-06
1.53911e-06
1.53911e-06
1.53911e-06
1.54326e-06
1.54347e-06
1.54541e-06
1.54518e-06
1.54332e-06
1.54342e-06
1.54351e-06
1.54349e-06
1.54348e-06
1.54347e-06
1.54539e-06
1.54538e-06
1.54517e-06
1.54349e-06
1.54549e-06
1.54541e-06
1.52633e-06
1.52616e-06
1.52598e-06
1.52383e-06
1.52372e-06
1.52363e-06
1.52382e-06
1.52593e-06
1.5262e-06
1.52599e-06
1.52312e-06
1.52013e-06
1.52013e-06
1.52013e-06
1.52013e-06
1.52351e-06
1.52434e-06
1.52383e-06
1.52013e-06
1.52013e-06
1.52013e-06
1.52013e-06
1.52013e-06
1.52013e-06
1.52444e-06
1.5264e-06
1.52633e-06
1.52372e-06
1.52013e-06
1.52013e-06
1.52013e-06
1.52013e-06
1.52013e-06
1.52013e-06
1.52454e-06
1.52619e-06
1.52616e-06
1.52363e-06
1.52013e-06
1.52013e-06
1.52013e-06
1.52013e-06
1.52013e-06
1.52013e-06
1.52452e-06
1.52451e-06
1.52382e-06
1.52013e-06
1.52013e-06
1.52013e-06
1.52013e-06
1.52013e-06
1.52013e-06
1.52451e-06
1.52651e-06
1.52594e-06
1.52351e-06
1.52013e-06
1.52013e-06
1.52013e-06
1.52013e-06
1.52428e-06
1.52449e-06
1.52643e-06
1.5262e-06
1.52434e-06
1.52444e-06
1.52453e-06
1.52452e-06
1.52451e-06
1.52449e-06
1.52642e-06
1.5264e-06
1.5262e-06
1.52451e-06
1.52651e-06
1.52643e-06
1.50735e-06
1.50718e-06
1.50701e-06
1.50485e-06
1.50474e-06
1.50465e-06
1.50484e-06
1.50696e-06
1.50722e-06
1.50701e-06
1.50414e-06
1.50115e-06
1.50115e-06
1.50115e-06
1.50115e-06
1.50453e-06
1.50536e-06
1.50485e-06
1.50115e-06
1.50115e-06
1.50115e-06
1.50115e-06
1.50115e-06
1.50115e-06
1.50546e-06
1.50742e-06
1.50735e-06
1.50474e-06
1.50115e-06
1.50115e-06
1.50115e-06
1.50115e-06
1.50115e-06
1.50115e-06
1.50556e-06
1.50722e-06
1.50718e-06
1.50465e-06
1.50115e-06
1.50115e-06
1.50115e-06
1.50115e-06
1.50115e-06
1.50115e-06
1.50554e-06
1.50553e-06
1.50484e-06
1.50115e-06
1.50115e-06
1.50115e-06
1.50115e-06
1.50115e-06
1.50115e-06
1.50553e-06
1.50754e-06
1.50696e-06
1.50453e-06
1.50115e-06
1.50115e-06
1.50115e-06
1.50115e-06
1.5053e-06
1.50551e-06
1.50745e-06
1.50722e-06
1.50536e-06
1.50546e-06
1.50556e-06
1.50554e-06
1.50553e-06
1.50551e-06
1.50744e-06
1.50743e-06
1.50722e-06
1.50553e-06
1.50754e-06
1.50745e-06
1.48838e-06
1.48821e-06
1.48803e-06
1.48587e-06
1.48576e-06
1.48568e-06
1.48586e-06
1.48798e-06
1.48824e-06
1.48803e-06
1.48517e-06
1.48217e-06
1.48217e-06
1.48217e-06
1.48217e-06
1.48555e-06
1.48638e-06
1.48587e-06
1.48217e-06
1.48217e-06
1.48217e-06
1.48217e-06
1.48217e-06
1.48217e-06
1.48649e-06
1.48845e-06
1.48838e-06
1.48576e-06
1.48217e-06
1.48217e-06
1.48217e-06
1.48217e-06
1.48217e-06
1.48217e-06
1.48658e-06
1.48824e-06
1.48821e-06
1.48568e-06
1.48217e-06
1.48217e-06
1.48217e-06
1.48217e-06
1.48217e-06
1.48217e-06
1.48656e-06
1.48655e-06
1.48586e-06
1.48217e-06
1.48217e-06
1.48217e-06
1.48217e-06
1.48217e-06
1.48217e-06
1.48655e-06
1.48856e-06
1.48798e-06
1.48555e-06
1.48217e-06
1.48217e-06
1.48217e-06
1.48217e-06
1.48633e-06
1.48654e-06
1.48847e-06
1.48824e-06
1.48638e-06
1.48648e-06
1.48658e-06
1.48656e-06
1.48655e-06
1.48654e-06
1.48846e-06
1.48845e-06
1.48824e-06
1.48656e-06
1.48856e-06
1.48847e-06
1.4694e-06
1.46923e-06
1.46905e-06
1.4669e-06
1.46678e-06
1.4667e-06
1.46688e-06
1.469e-06
1.46927e-06
1.46905e-06
1.46619e-06
1.4632e-06
1.4632e-06
1.4632e-06
1.4632e-06
1.46657e-06
1.46741e-06
1.4669e-06
1.4632e-06
1.4632e-06
1.4632e-06
1.4632e-06
1.4632e-06
1.4632e-06
1.46751e-06
1.46947e-06
1.4694e-06
1.46678e-06
1.4632e-06
1.4632e-06
1.4632e-06
1.4632e-06
1.4632e-06
1.4632e-06
1.4676e-06
1.46926e-06
1.46923e-06
1.4667e-06
1.4632e-06
1.4632e-06
1.4632e-06
1.4632e-06
1.4632e-06
1.4632e-06
1.46758e-06
1.46758e-06
1.46688e-06
1.4632e-06
1.4632e-06
1.4632e-06
1.4632e-06
1.4632e-06
1.4632e-06
1.46758e-06
1.46958e-06
1.469e-06
1.46657e-06
1.4632e-06
1.4632e-06
1.4632e-06
1.4632e-06
1.46735e-06
1.46756e-06
1.4695e-06
1.46927e-06
1.46741e-06
1.46751e-06
1.4676e-06
1.46758e-06
1.46758e-06
1.46756e-06
1.46948e-06
1.46947e-06
1.46926e-06
1.46758e-06
1.46958e-06
1.4695e-06
1.45042e-06
1.45025e-06
1.45007e-06
1.44792e-06
1.44781e-06
1.44772e-06
1.44791e-06
1.45002e-06
1.45029e-06
1.45007e-06
1.44721e-06
1.44422e-06
1.44422e-06
1.44422e-06
1.44422e-06
1.4476e-06
1.44843e-06
1.44792e-06
1.44422e-06
1.44422e-06
1.44422e-06
1.44422e-06
1.44422e-06
1.44422e-06
1.44853e-06
1.45049e-06
1.45042e-06
1.44781e-06
1.44422e-06
1.44422e-06
1.44422e-06
1.44422e-06
1.44422e-06
1.44422e-06
1.44862e-06
1.45028e-06
1.45025e-06
1.44772e-06
1.44422e-06
1.44422e-06
1.44422e-06
1.44422e-06
1.44422e-06
1.44422e-06
1.44861e-06
1.4486e-06
1.44791e-06
1.44422e-06
1.44422e-06
1.44422e-06
1.44422e-06
1.44422e-06
1.44422e-06
1.4486e-06
1.4506e-06
1.45002e-06
1.4476e-06
1.44422e-06
1.44422e-06
1.44422e-06
1.44422e-06
1.44837e-06
1.44858e-06
1.45052e-06
1.45029e-06
1.44843e-06
1.44853e-06
1.44862e-06
1.44861e-06
1.4486e-06
1.44858e-06
1.45051e-06
1.45049e-06
1.45028e-06
1.4486e-06
1.4506e-06
1.45052e-06
1.43144e-06
1.43127e-06
1.4311e-06
1.42894e-06
1.42883e-06
1.42874e-06
1.42893e-06
1.43105e-06
1.43131e-06
1.4311e-06
1.42823e-06
1.42524e-06
1.42524e-06
1.42524e-06
1.42524e-06
1.42862e-06
1.42945e-06
1.42894e-06
1.42524e-06
1.42524e-06
1.42524e-06
1.42524e-06
1.42524e-06
1.42524e-06
1.42955e-06
1.43151e-06
1.43144e-06
1.42883e-06
1.42524e-06
1.42524e-06
1.42524e-06
1.42524e-06
1.42524e-06
1.42524e-06
1.42965e-06
1.43131e-06
1.43127e-06
1.42874e-06
1.42524e-06
1.42524e-06
1.42524e-06
1.42524e-06
1.42524e-06
1.42524e-06
1.42963e-06
1.42962e-06
1.42893e-06
1.42524e-06
1.42524e-06
1.42524e-06
1.42524e-06
1.42524e-06
1.42524e-06
1.42962e-06
1.43162e-06
1.43105e-06
1.42862e-06
1.42524e-06
1.42524e-06
1.42524e-06
1.42524e-06
1.42939e-06
1.4296e-06
1.43154e-06
1.43131e-06
1.42945e-06
1.42955e-06
1.42965e-06
1.42963e-06
1.42962e-06
1.4296e-06
1.43153e-06
1.43151e-06
1.43131e-06
1.42962e-06
1.43162e-06
1.43154e-06
1.41247e-06
1.4123e-06
1.41212e-06
1.40996e-06
1.40985e-06
1.40976e-06
1.40995e-06
1.41207e-06
1.41233e-06
1.41212e-06
1.40925e-06
1.40626e-06
1.40626e-06
1.40626e-06
1.40626e-06
1.40964e-06
1.41047e-06
1.40996e-06
1.40626e-06
1.40626e-06
1.40626e-06
1.40626e-06
1.40626e-06
1.40626e-06
1.41057e-06
1.41253e-06
1.41246e-06
1.40985e-06
1.40626e-06
1.40626e-06
1.40626e-06
1.40626e-06
1.40626e-06
1.40626e-06
1.41067e-06
1.41233e-06
1.4123e-06
1.40976e-06
1.40626e-06
1.40626e-06
1.40626e-06
1.40626e-06
1.40626e-06
1.40626e-06
1.41065e-06
1.41064e-06
1.40995e-06
1.40626e-06
1.40626e-06
1.40626e-06
1.40626e-06
1.40626e-06
1.40626e-06
1.41064e-06
1.41265e-06
1.41207e-06
1.40964e-06
1.40626e-06
1.40626e-06
1.40626e-06
1.40626e-06
1.41042e-06
1.41062e-06
1.41256e-06
1.41233e-06
1.41047e-06
1.41057e-06
1.41067e-06
1.41065e-06
1.41064e-06
1.41063e-06
1.41255e-06
1.41254e-06
1.41233e-06
1.41064e-06
1.41265e-06
1.41256e-06
1.39349e-06
1.39332e-06
1.39314e-06
1.39098e-06
1.39087e-06
1.39079e-06
1.39097e-06
1.39309e-06
1.39335e-06
1.39314e-06
1.39028e-06
1.38728e-06
1.38728e-06
1.38728e-06
1.38728e-06
1.39066e-06
1.39149e-06
1.39098e-06
1.38728e-06
1.38728e-06
1.38728e-06
1.38728e-06
1.38728e-06
1.38728e-06
1.3916e-06
1.39356e-06
1.39349e-06
1.39087e-06
1.38728e-06
1.38728e-06
1.38728e-06
1.38728e-06
1.38728e-06
1.38728e-06
1.39169e-06
1.39335e-06
1.39332e-06
1.39079e-06
1.38728e-06
1.38728e-06
1.38728e-06
1.38728e-06
1.38728e-06
1.38728e-06
1.39167e-06
1.39167e-06
1.39097e-06
1.38728e-06
1.38728e-06
1.38728e-06
1.38728e-06
1.38728e-06
1.38728e-06
1.39166e-06
1.39367e-06
1.39309e-06
1.39066e-06
1.38728e-06
1.38728e-06
1.38728e-06
1.38728e-06
1.39144e-06
1.39165e-06
1.39358e-06
1.39335e-06
1.39149e-06
1.3916e-06
1.39169e-06
1.39167e-06
1.39166e-06
1.39165e-06
1.39357e-06
1.39356e-06
1.39335e-06
1.39167e-06
1.39367e-06
1.39358e-06
1.37451e-06
1.37434e-06
1.37416e-06
1.37201e-06
1.37189e-06
1.37181e-06
1.37199e-06
1.37411e-06
1.37438e-06
1.37416e-06
1.3713e-06
1.36831e-06
1.36831e-06
1.36831e-06
1.36831e-06
1.37168e-06
1.37251e-06
1.37201e-06
1.36831e-06
1.36831e-06
1.36831e-06
1.36831e-06
1.36831e-06
1.36831e-06
1.37262e-06
1.37458e-06
1.37451e-06
1.37189e-06
1.36831e-06
1.36831e-06
1.36831e-06
1.36831e-06
1.36831e-06
1.36831e-06
1.37271e-06
1.37437e-06
1.37434e-06
1.37181e-06
1.36831e-06
1.36831e-06
1.36831e-06
1.36831e-06
1.36831e-06
1.36831e-06
1.37269e-06
1.37269e-06
1.37199e-06
1.36831e-06
1.36831e-06
1.36831e-06
1.36831e-06
1.36831e-06
1.36831e-06
1.37268e-06
1.37469e-06
1.37411e-06
1.37168e-06
1.36831e-06
1.36831e-06
1.36831e-06
1.36831e-06
1.37246e-06
1.37267e-06
1.37461e-06
1.37438e-06
1.37252e-06
1.37262e-06
1.37271e-06
1.37269e-06
1.37268e-06
1.37267e-06
1.37459e-06
1.37458e-06
1.37437e-06
1.37269e-06
1.37469e-06
1.37461e-06
1.35553e-06
1.35536e-06
1.35518e-06
1.35303e-06
1.35291e-06
1.35283e-06
1.35301e-06
1.35513e-06
1.3554e-06
1.35518e-06
1.35232e-06
1.34933e-06
1.34933e-06
1.34933e-06
1.34933e-06
1.3527e-06
1.35354e-06
1.35303e-06
1.34933e-06
1.34933e-06
1.34933e-06
1.34933e-06
1.34933e-06
1.34933e-06
1.35364e-06
1.3556e-06
1.35553e-06
1.35291e-06
1.34933e-06
1.34933e-06
1.34933e-06
1.34933e-06
1.34933e-06
1.34933e-06
1.35373e-06
1.35539e-06
1.35536e-06
1.35283e-06
1.34933e-06
1.34933e-06
1.34933e-06
1.34933e-06
1.34933e-06
1.34933e-06
1.35371e-06
1.35371e-06
1.35301e-06
1.34933e-06
1.34933e-06
1.34933e-06
1.34933e-06
1.34933e-06
1.34933e-06
1.35371e-06
1.35571e-06
1.35513e-06
1.3527e-06
1.34933e-06
1.34933e-06
1.34933e-06
1.34933e-06
1.35348e-06
1.35369e-06
1.35563e-06
1.3554e-06
1.35354e-06
1.35364e-06
1.35373e-06
1.35371e-06
1.35371e-06
1.35369e-06
1.35561e-06
1.3556e-06
1.35539e-06
1.35371e-06
1.35571e-06
1.35563e-06
1.33655e-06
1.33638e-06
1.3362e-06
1.33405e-06
1.33393e-06
1.33385e-06
1.33404e-06
1.33615e-06
1.33642e-06
1.3362e-06
1.33334e-06
1.33035e-06
1.33035e-06
1.33035e-06
1.33035e-06
1.33372e-06
1.33456e-06
1.33405e-06
1.33035e-06
1.33035e-06
1.33035e-06
1.33035e-06
1.33035e-06
1.33035e-06
1.33466e-06
1.33662e-06
1.33655e-06
1.33393e-06
1.33035e-06
1.33035e-06
1.33035e-06
1.33035e-06
1.33035e-06
1.33035e-06
1.33475e-06
1.33641e-06
1.33638e-06
1.33385e-06
1.33035e-06
1.33035e-06
1.33035e-06
1.33035e-06
1.33035e-06
1.33035e-06
1.33473e-06
1.33473e-06
1.33403e-06
1.33035e-06
1.33035e-06
1.33035e-06
1.33035e-06
1.33035e-06
1.33035e-06
1.33473e-06
1.33673e-06
1.33615e-06
1.33372e-06
1.33035e-06
1.33035e-06
1.33035e-06
1.33035e-06
1.3345e-06
1.33471e-06
1.33665e-06
1.33642e-06
1.33456e-06
1.33466e-06
1.33475e-06
1.33473e-06
1.33473e-06
1.33471e-06
1.33664e-06
1.33662e-06
1.33641e-06
1.33473e-06
1.33673e-06
1.33665e-06
1.31757e-06
1.3174e-06
1.31722e-06
1.31507e-06
1.31496e-06
1.31487e-06
1.31506e-06
1.31718e-06
1.31744e-06
1.31722e-06
1.31436e-06
1.31137e-06
1.31137e-06
1.31137e-06
1.31137e-06
1.31475e-06
1.31558e-06
1.31507e-06
1.31137e-06
1.31137e-06
1.31137e-06
1.31137e-06
1.31137e-06
1.31137e-06
1.31568e-06
1.31764e-06
1.31757e-06
1.31496e-06
1.31137e-06
1.31137e-06
1.31137e-06
1.31137e-06
1.31137e-06
1.31137e-06
1.31577e-06
1.31743e-06
1.3174e-06
1.31487e-06
1.31137e-06
1.31137e-06
1.31137e-06
1.31137e-06
1.31137e-06
1.31137e-06
1.31576e-06
1.31575e-06
1.31506e-06
1.31137e-06
1.31137e-06
1.31137e-06
1.31137e-06
1.31137e-06
1.31137e-06
1.31575e-06
1.31775e-06
1.31717e-06
1.31474e-06
1.31137e-06
1.31137e-06
1.31137e-06
1.31137e-06
1.31552e-06
1.31573e-06
1.31767e-06
1.31744e-06
1.31558e-06
1.31568e-06
1.31577e-06
1.31575e-06
1.31575e-06
1.31573e-06
1.31766e-06
1.31764e-06
1.31743e-06
1.31575e-06
1.31775e-06
1.31767e-06
1.29859e-06
1.29842e-06
1.29824e-06
1.29609e-06
1.29598e-06
1.29589e-06
1.29608e-06
1.2982e-06
1.29846e-06
1.29824e-06
1.29538e-06
1.29239e-06
1.29239e-06
1.29239e-06
1.29239e-06
1.29577e-06
1.2966e-06
1.29609e-06
1.29239e-06
1.29239e-06
1.29239e-06
1.29239e-06
1.29239e-06
1.29239e-06
1.2967e-06
1.29866e-06
1.29859e-06
1.29598e-06
1.29239e-06
1.29239e-06
1.29239e-06
1.29239e-06
1.29239e-06
1.29239e-06
1.29679e-06
1.29845e-06
1.29842e-06
1.29589e-06
1.29239e-06
1.29239e-06
1.29239e-06
1.29239e-06
1.29239e-06
1.29239e-06
1.29678e-06
1.29677e-06
1.29608e-06
1.29239e-06
1.29239e-06
1.29239e-06
1.29239e-06
1.29239e-06
1.29239e-06
1.29677e-06
1.29877e-06
1.29819e-06
1.29577e-06
1.29239e-06
1.29239e-06
1.29239e-06
1.29239e-06
1.29654e-06
1.29675e-06
1.29869e-06
1.29846e-06
1.2966e-06
1.2967e-06
1.29679e-06
1.29677e-06
1.29677e-06
1.29675e-06
1.29868e-06
1.29866e-06
1.29845e-06
1.29677e-06
1.29877e-06
1.29869e-06
1.27961e-06
1.27944e-06
1.27926e-06
1.27711e-06
1.277e-06
1.27691e-06
1.2771e-06
1.27922e-06
1.27948e-06
1.27926e-06
1.2764e-06
1.27341e-06
1.27341e-06
1.27341e-06
1.27341e-06
1.27679e-06
1.27762e-06
1.27711e-06
1.27341e-06
1.27341e-06
1.27341e-06
1.27341e-06
1.27341e-06
1.27341e-06
1.27772e-06
1.27968e-06
1.27961e-06
1.277e-06
1.27341e-06
1.27341e-06
1.27341e-06
1.27341e-06
1.27341e-06
1.27341e-06
1.27781e-06
1.27947e-06
1.27944e-06
1.27691e-06
1.27341e-06
1.27341e-06
1.27341e-06
1.27341e-06
1.27341e-06
1.27341e-06
1.2778e-06
1.27779e-06
1.2771e-06
1.27341e-06
1.27341e-06
1.27341e-06
1.27341e-06
1.27341e-06
1.27341e-06
1.27779e-06
1.27979e-06
1.27921e-06
1.27679e-06
1.27341e-06
1.27341e-06
1.27341e-06
1.27341e-06
1.27756e-06
1.27777e-06
1.27971e-06
1.27948e-06
1.27762e-06
1.27772e-06
1.27781e-06
1.27779e-06
1.27779e-06
1.27777e-06
1.2797e-06
1.27968e-06
1.27947e-06
1.27779e-06
1.27979e-06
1.27971e-06
1.26063e-06
1.26046e-06
1.26028e-06
1.25813e-06
1.25802e-06
1.25793e-06
1.25812e-06
1.26024e-06
1.2605e-06
1.26029e-06
1.25742e-06
1.25443e-06
1.25443e-06
1.25443e-06
1.25443e-06
1.25781e-06
1.25864e-06
1.25813e-06
1.25443e-06
1.25443e-06
1.25443e-06
1.25443e-06
1.25443e-06
1.25443e-06
1.25874e-06
1.2607e-06
1.26063e-06
1.25802e-06
1.25443e-06
1.25443e-06
1.25443e-06
1.25443e-06
1.25443e-06
1.25443e-06
1.25883e-06
1.26049e-06
1.26046e-06
1.25793e-06
1.25443e-06
1.25443e-06
1.25443e-06
1.25443e-06
1.25443e-06
1.25443e-06
1.25882e-06
1.25881e-06
1.25812e-06
1.25443e-06
1.25443e-06
1.25443e-06
1.25443e-06
1.25443e-06
1.25443e-06
1.25881e-06
1.26081e-06
1.26023e-06
1.25781e-06
1.25443e-06
1.25443e-06
1.25443e-06
1.25443e-06
1.25858e-06
1.25879e-06
1.26073e-06
1.2605e-06
1.25864e-06
1.25874e-06
1.25883e-06
1.25881e-06
1.25881e-06
1.25879e-06
1.26072e-06
1.2607e-06
1.26049e-06
1.25881e-06
1.26081e-06
1.26073e-06
1.24165e-06
1.24148e-06
1.2413e-06
1.23915e-06
1.23904e-06
1.23895e-06
1.23914e-06
1.24126e-06
1.24152e-06
1.2413e-06
1.23844e-06
1.23545e-06
1.23545e-06
1.23545e-06
1.23545e-06
1.23883e-06
1.23966e-06
1.23915e-06
1.23545e-06
1.23545e-06
1.23545e-06
1.23545e-06
1.23545e-06
1.23545e-06
1.23976e-06
1.24172e-06
1.24165e-06
1.23903e-06
1.23545e-06
1.23545e-06
1.23545e-06
1.23545e-06
1.23545e-06
1.23545e-06
1.23985e-06
1.24151e-06
1.24148e-06
1.23895e-06
1.23545e-06
1.23545e-06
1.23545e-06
1.23545e-06
1.23545e-06
1.23545e-06
1.23984e-06
1.23983e-06
1.23913e-06
1.23545e-06
1.23545e-06
1.23545e-06
1.23545e-06
1.23545e-06
1.23545e-06
1.23983e-06
1.24183e-06
1.24125e-06
1.23882e-06
1.23545e-06
1.23545e-06