/*--------------------------------*- C++ -*----------------------------------*\
| =========                 |                                                 |
| \\      /  F ield         | OpenFOAM: The Open Source CFD Toolbox           |
|  \\    /   O peration     | Version:  v2012                                 |
|   \\  /    A nd           | Website:  www.openfoam.com                      |
|    \\/     M anipulation  |                                                 |
\*---------------------------------------------------------------------------*/
FoamFile
{
    version     2.0;
    format      ascii;
    class       volScalarField;
    location    "0.115";
    object      p;
}
// * * * * * * * * * * * * * * * * * * * * * * * * * * * * * * * * * * * * * //

dimensions      [0 2 -2 0 0 0 0];


internalField   nonuniform List<scalar> 
247104
(
1.97959e-06
1.98036e-06
1.98028e-06
1.98004e-06
1.97977e-06
1.98009e-06
1.98029e-06
1.98027e-06
1.98035e-06
1.98043e-06
1.98046e-06
1.98022e-06
1.98004e-06
1.98025e-06
1.98048e-06
1.9804e-06
1.98028e-06
1.98046e-06
1.98019e-06
1.97978e-06
1.97961e-06
1.97982e-06
1.98023e-06
1.98046e-06
1.98023e-06
1.98005e-06
1.98022e-06
1.97978e-06
1.9793e-06
1.97912e-06
1.97935e-06
1.97985e-06
1.98024e-06
1.97997e-06
1.97959e-06
1.97978e-06
1.98005e-06
1.97961e-06
1.97912e-06
1.97893e-06
1.97917e-06
1.97968e-06
1.98007e-06
1.97969e-06
1.98009e-06
1.98025e-06
1.97982e-06
1.97935e-06
1.97917e-06
1.97939e-06
1.97989e-06
1.98028e-06
1.98002e-06
1.98029e-06
1.98047e-06
1.98023e-06
1.97985e-06
1.97968e-06
1.97989e-06
1.98028e-06
1.98047e-06
1.98025e-06
1.98027e-06
1.98039e-06
1.98046e-06
1.98024e-06
1.98007e-06
1.98028e-06
1.98047e-06
1.98036e-06
1.98023e-06
1.97997e-06
1.97969e-06
1.98002e-06
1.98025e-06
1.9459e-06
1.94374e-06
1.94419e-06
1.943e-06
1.94247e-06
1.94248e-06
1.94242e-06
1.94459e-06
1.94476e-06
1.94418e-06
1.94196e-06
1.93854e-06
1.93831e-06
1.93831e-06
1.93854e-06
1.94235e-06
1.9426e-06
1.943e-06
1.93854e-06
1.93843e-06
1.93842e-06
1.93842e-06
1.93843e-06
1.93854e-06
1.94292e-06
1.94409e-06
1.94589e-06
1.94246e-06
1.93831e-06
1.93843e-06
1.93855e-06
1.93855e-06
1.93842e-06
1.93831e-06
1.94254e-06
1.9447e-06
1.94378e-06
1.94248e-06
1.93831e-06
1.93843e-06
1.93855e-06
1.93855e-06
1.93843e-06
1.93831e-06
1.94265e-06
1.94223e-06
1.94243e-06
1.93854e-06
1.93843e-06
1.93843e-06
1.93843e-06
1.93843e-06
1.93854e-06
1.94263e-06
1.94361e-06
1.94457e-06
1.94235e-06
1.93854e-06
1.93831e-06
1.93831e-06
1.93854e-06
1.94232e-06
1.94288e-06
1.94464e-06
1.94478e-06
1.9426e-06
1.94293e-06
1.94255e-06
1.94265e-06
1.94263e-06
1.94288e-06
1.94589e-06
1.94407e-06
1.94473e-06
1.94224e-06
1.94362e-06
1.94462e-06
1.92572e-06
1.92551e-06
1.92531e-06
1.92307e-06
1.92305e-06
1.92305e-06
1.92307e-06
1.9256e-06
1.92564e-06
1.92532e-06
1.92251e-06
1.91929e-06
1.91906e-06
1.91906e-06
1.91929e-06
1.92352e-06
1.92354e-06
1.92307e-06
1.91928e-06
1.91876e-06
1.91873e-06
1.91873e-06
1.91876e-06
1.91929e-06
1.92426e-06
1.9262e-06
1.92572e-06
1.92305e-06
1.91906e-06
1.91873e-06
1.91873e-06
1.91873e-06
1.91873e-06
1.91906e-06
1.92416e-06
1.92564e-06
1.92552e-06
1.92306e-06
1.91906e-06
1.91873e-06
1.91873e-06
1.91873e-06
1.91873e-06
1.91906e-06
1.92403e-06
1.92339e-06
1.92307e-06
1.91929e-06
1.91876e-06
1.91873e-06
1.91873e-06
1.91876e-06
1.91929e-06
1.92428e-06
1.92609e-06
1.9256e-06
1.92352e-06
1.91929e-06
1.91906e-06
1.91905e-06
1.91928e-06
1.92402e-06
1.92395e-06
1.92604e-06
1.92565e-06
1.92354e-06
1.92426e-06
1.92416e-06
1.92403e-06
1.92427e-06
1.92395e-06
1.92617e-06
1.92619e-06
1.92564e-06
1.92339e-06
1.92609e-06
1.92604e-06
1.90536e-06
1.90519e-06
1.90516e-06
1.90275e-06
1.90276e-06
1.90265e-06
1.90285e-06
1.90542e-06
1.90545e-06
1.90516e-06
1.90182e-06
1.89884e-06
1.89876e-06
1.89876e-06
1.89884e-06
1.90314e-06
1.90349e-06
1.90275e-06
1.89884e-06
1.89864e-06
1.89863e-06
1.89863e-06
1.89864e-06
1.89884e-06
1.90414e-06
1.90593e-06
1.90536e-06
1.90277e-06
1.89876e-06
1.89863e-06
1.89862e-06
1.89863e-06
1.89863e-06
1.89876e-06
1.90424e-06
1.90528e-06
1.90519e-06
1.90265e-06
1.89876e-06
1.89863e-06
1.89862e-06
1.89863e-06
1.89863e-06
1.89876e-06
1.90415e-06
1.90323e-06
1.90285e-06
1.89884e-06
1.89864e-06
1.89863e-06
1.89863e-06
1.89864e-06
1.89884e-06
1.90426e-06
1.90573e-06
1.90543e-06
1.90314e-06
1.89883e-06
1.89876e-06
1.89876e-06
1.89884e-06
1.90415e-06
1.90387e-06
1.90586e-06
1.90547e-06
1.90347e-06
1.90414e-06
1.90424e-06
1.90414e-06
1.90426e-06
1.90387e-06
1.90577e-06
1.90593e-06
1.90528e-06
1.90323e-06
1.90573e-06
1.90587e-06
1.88511e-06
1.88496e-06
1.88481e-06
1.88236e-06
1.88236e-06
1.88217e-06
1.88247e-06
1.88508e-06
1.88516e-06
1.88481e-06
1.88117e-06
1.87832e-06
1.8783e-06
1.8783e-06
1.87832e-06
1.88259e-06
1.8832e-06
1.88235e-06
1.87832e-06
1.87827e-06
1.87827e-06
1.87827e-06
1.87827e-06
1.87832e-06
1.88387e-06
1.88567e-06
1.88512e-06
1.88236e-06
1.8783e-06
1.87827e-06
1.87827e-06
1.87827e-06
1.87827e-06
1.8783e-06
1.88412e-06
1.88509e-06
1.88496e-06
1.88217e-06
1.8783e-06
1.87827e-06
1.87827e-06
1.87827e-06
1.87827e-06
1.8783e-06
1.88405e-06
1.88308e-06
1.88246e-06
1.87832e-06
1.87827e-06
1.87827e-06
1.87827e-06
1.87827e-06
1.87832e-06
1.88406e-06
1.88553e-06
1.88508e-06
1.88259e-06
1.87832e-06
1.8783e-06
1.8783e-06
1.87832e-06
1.88398e-06
1.8836e-06
1.88558e-06
1.88515e-06
1.88319e-06
1.88387e-06
1.88412e-06
1.88405e-06
1.88406e-06
1.8836e-06
1.88551e-06
1.88566e-06
1.88508e-06
1.88308e-06
1.88553e-06
1.88558e-06
1.86475e-06
1.86461e-06
1.86441e-06
1.86194e-06
1.86196e-06
1.86171e-06
1.86206e-06
1.86469e-06
1.86476e-06
1.86441e-06
1.86069e-06
1.85787e-06
1.85786e-06
1.85786e-06
1.85787e-06
1.86212e-06
1.86281e-06
1.86194e-06
1.85787e-06
1.85785e-06
1.85785e-06
1.85785e-06
1.85786e-06
1.85787e-06
1.8635e-06
1.8653e-06
1.86476e-06
1.86196e-06
1.85786e-06
1.85785e-06
1.85785e-06
1.85785e-06
1.85786e-06
1.85786e-06
1.86379e-06
1.86476e-06
1.86461e-06
1.86171e-06
1.85786e-06
1.85785e-06
1.85785e-06
1.85785e-06
1.85786e-06
1.85786e-06
1.86373e-06
1.86276e-06
1.86206e-06
1.85787e-06
1.85785e-06
1.85785e-06
1.85785e-06
1.85786e-06
1.85787e-06
1.86371e-06
1.86519e-06
1.86469e-06
1.86211e-06
1.85787e-06
1.85786e-06
1.85786e-06
1.85787e-06
1.86365e-06
1.86323e-06
1.86519e-06
1.86475e-06
1.86281e-06
1.8635e-06
1.8638e-06
1.86373e-06
1.86371e-06
1.86323e-06
1.86511e-06
1.8653e-06
1.86476e-06
1.86276e-06
1.86519e-06
1.8652e-06
1.84435e-06
1.84421e-06
1.844e-06
1.84152e-06
1.84154e-06
1.84128e-06
1.84164e-06
1.84427e-06
1.84434e-06
1.844e-06
1.84026e-06
1.83744e-06
1.83743e-06
1.83743e-06
1.83744e-06
1.84168e-06
1.8424e-06
1.84152e-06
1.83744e-06
1.83743e-06
1.83743e-06
1.83743e-06
1.83743e-06
1.83744e-06
1.84308e-06
1.84489e-06
1.84436e-06
1.84154e-06
1.83744e-06
1.83743e-06
1.83743e-06
1.83743e-06
1.83743e-06
1.83744e-06
1.8434e-06
1.84436e-06
1.84421e-06
1.84128e-06
1.83743e-06
1.83743e-06
1.83743e-06
1.83743e-06
1.83743e-06
1.83743e-06
1.84334e-06
1.84237e-06
1.84164e-06
1.83744e-06
1.83743e-06
1.83743e-06
1.83743e-06
1.83743e-06
1.83744e-06
1.8433e-06
1.84479e-06
1.84427e-06
1.84167e-06
1.83744e-06
1.83744e-06
1.83743e-06
1.83744e-06
1.84326e-06
1.84283e-06
1.84479e-06
1.84434e-06
1.8424e-06
1.84308e-06
1.8434e-06
1.84334e-06
1.8433e-06
1.84282e-06
1.8447e-06
1.84488e-06
1.84436e-06
1.84236e-06
1.84478e-06
1.84479e-06
1.82393e-06
1.8238e-06
1.82358e-06
1.8211e-06
1.82112e-06
1.82086e-06
1.82121e-06
1.82385e-06
1.82392e-06
1.82358e-06
1.81983e-06
1.81701e-06
1.81701e-06
1.81701e-06
1.81701e-06
1.82125e-06
1.82198e-06
1.82109e-06
1.81701e-06
1.81701e-06
1.81701e-06
1.81701e-06
1.81701e-06
1.81701e-06
1.82266e-06
1.82447e-06
1.82394e-06
1.82112e-06
1.81701e-06
1.81701e-06
1.81701e-06
1.81701e-06
1.81701e-06
1.81701e-06
1.82299e-06
1.82394e-06
1.8238e-06
1.82086e-06
1.81701e-06
1.81701e-06
1.81701e-06
1.81701e-06
1.81701e-06
1.81701e-06
1.82292e-06
1.82195e-06
1.82121e-06
1.81701e-06
1.81701e-06
1.81701e-06
1.81701e-06
1.81701e-06
1.81701e-06
1.82288e-06
1.82437e-06
1.82385e-06
1.82125e-06
1.81701e-06
1.81701e-06
1.81701e-06
1.81701e-06
1.82284e-06
1.8224e-06
1.82436e-06
1.82391e-06
1.82198e-06
1.82266e-06
1.82299e-06
1.82293e-06
1.82288e-06
1.8224e-06
1.82428e-06
1.82446e-06
1.82394e-06
1.82195e-06
1.82437e-06
1.82437e-06
1.80351e-06
1.80338e-06
1.80315e-06
1.80067e-06
1.8007e-06
1.80043e-06
1.80079e-06
1.80343e-06
1.80349e-06
1.80316e-06
1.79941e-06
1.79659e-06
1.79658e-06
1.79658e-06
1.79659e-06
1.80083e-06
1.80156e-06
1.80067e-06
1.79659e-06
1.79658e-06
1.79659e-06
1.79659e-06
1.79659e-06
1.79659e-06
1.80224e-06
1.80404e-06
1.80352e-06
1.8007e-06
1.79659e-06
1.79659e-06
1.79659e-06
1.79659e-06
1.79659e-06
1.79658e-06
1.80256e-06
1.80352e-06
1.80337e-06
1.80043e-06
1.79659e-06
1.79659e-06
1.79659e-06
1.79659e-06
1.79659e-06
1.79658e-06
1.8025e-06
1.80152e-06
1.80079e-06
1.79659e-06
1.79659e-06
1.79659e-06
1.79659e-06
1.79658e-06
1.79659e-06
1.80246e-06
1.80394e-06
1.80343e-06
1.80082e-06
1.79659e-06
1.79659e-06
1.79659e-06
1.79659e-06
1.80242e-06
1.80198e-06
1.80394e-06
1.80349e-06
1.80155e-06
1.80224e-06
1.80256e-06
1.8025e-06
1.80246e-06
1.80198e-06
1.80385e-06
1.80404e-06
1.80352e-06
1.80153e-06
1.80394e-06
1.80394e-06
1.78309e-06
1.78295e-06
1.78273e-06
1.78025e-06
1.78027e-06
1.78001e-06
1.78036e-06
1.783e-06
1.78307e-06
1.78273e-06
1.77898e-06
1.77616e-06
1.77616e-06
1.77616e-06
1.77616e-06
1.7804e-06
1.78113e-06
1.78025e-06
1.77616e-06
1.77616e-06
1.77616e-06
1.77616e-06
1.77616e-06
1.77616e-06
1.78182e-06
1.78362e-06
1.78309e-06
1.78027e-06
1.77616e-06
1.77616e-06
1.77616e-06
1.77616e-06
1.77616e-06
1.77616e-06
1.78214e-06
1.78309e-06
1.78295e-06
1.78e-06
1.77616e-06
1.77616e-06
1.77616e-06
1.77616e-06
1.77616e-06
1.77616e-06
1.78208e-06
1.7811e-06
1.78036e-06
1.77616e-06
1.77616e-06
1.77616e-06
1.77616e-06
1.77616e-06
1.77616e-06
1.78203e-06
1.78352e-06
1.783e-06
1.7804e-06
1.77616e-06
1.77616e-06
1.77616e-06
1.77616e-06
1.782e-06
1.78156e-06
1.78352e-06
1.78307e-06
1.78113e-06
1.78181e-06
1.78214e-06
1.78208e-06
1.78203e-06
1.78156e-06
1.78343e-06
1.78362e-06
1.7831e-06
1.78111e-06
1.78352e-06
1.78352e-06
1.76266e-06
1.76252e-06
1.7623e-06
1.75982e-06
1.75985e-06
1.75958e-06
1.75994e-06
1.76258e-06
1.76264e-06
1.76231e-06
1.75856e-06
1.75573e-06
1.75574e-06
1.75574e-06
1.75574e-06
1.75997e-06
1.76071e-06
1.75982e-06
1.75574e-06
1.75574e-06
1.75573e-06
1.75574e-06
1.75574e-06
1.75574e-06
1.76139e-06
1.76319e-06
1.76267e-06
1.75984e-06
1.75574e-06
1.75574e-06
1.75574e-06
1.75574e-06
1.75574e-06
1.75574e-06
1.76171e-06
1.76267e-06
1.76252e-06
1.75958e-06
1.75574e-06
1.75574e-06
1.75574e-06
1.75574e-06
1.75574e-06
1.75574e-06
1.76165e-06
1.76067e-06
1.75994e-06
1.75573e-06
1.75574e-06
1.75574e-06
1.75574e-06
1.75574e-06
1.75574e-06
1.76161e-06
1.76309e-06
1.76258e-06
1.75997e-06
1.75574e-06
1.75574e-06
1.75574e-06
1.75574e-06
1.76157e-06
1.76113e-06
1.76309e-06
1.76264e-06
1.7607e-06
1.76139e-06
1.76172e-06
1.76166e-06
1.7616e-06
1.76113e-06
1.763e-06
1.76319e-06
1.76267e-06
1.76068e-06
1.7631e-06
1.76309e-06
1.74224e-06
1.7421e-06
1.74187e-06
1.7394e-06
1.73942e-06
1.73916e-06
1.73951e-06
1.74215e-06
1.74222e-06
1.74188e-06
1.73813e-06
1.73531e-06
1.73531e-06
1.73531e-06
1.73531e-06
1.73955e-06
1.74028e-06
1.7394e-06
1.73531e-06
1.73531e-06
1.73531e-06
1.73531e-06
1.73531e-06
1.73531e-06
1.74097e-06
1.74277e-06
1.74224e-06
1.73942e-06
1.73531e-06
1.73531e-06
1.73531e-06
1.73531e-06
1.73531e-06
1.73531e-06
1.74129e-06
1.74224e-06
1.7421e-06
1.73915e-06
1.73531e-06
1.73531e-06
1.73531e-06
1.73531e-06
1.73531e-06
1.73531e-06
1.74123e-06
1.74025e-06
1.73951e-06
1.73531e-06
1.73531e-06
1.73531e-06
1.73531e-06
1.73531e-06
1.73531e-06
1.74119e-06
1.74267e-06
1.74215e-06
1.73955e-06
1.73531e-06
1.73531e-06
1.73531e-06
1.73531e-06
1.74115e-06
1.74071e-06
1.74267e-06
1.74222e-06
1.74028e-06
1.74097e-06
1.74129e-06
1.74123e-06
1.74118e-06
1.74071e-06
1.74258e-06
1.74277e-06
1.74225e-06
1.74026e-06
1.74267e-06
1.74267e-06
1.72182e-06
1.72168e-06
1.72145e-06
1.71898e-06
1.719e-06
1.71873e-06
1.71909e-06
1.72173e-06
1.72179e-06
1.72146e-06
1.71771e-06
1.71489e-06
1.71489e-06
1.71489e-06
1.71489e-06
1.71913e-06
1.71986e-06
1.71897e-06
1.71489e-06
1.71489e-06
1.71489e-06
1.71489e-06
1.71489e-06
1.71489e-06
1.72054e-06
1.72235e-06
1.72182e-06
1.719e-06
1.71489e-06
1.71489e-06
1.71489e-06
1.71489e-06
1.71489e-06
1.71489e-06
1.72087e-06
1.72182e-06
1.72168e-06
1.71873e-06
1.71489e-06
1.71489e-06
1.71489e-06
1.71489e-06
1.71489e-06
1.71489e-06
1.72081e-06
1.71983e-06
1.71909e-06
1.71489e-06
1.71489e-06
1.71489e-06
1.71489e-06
1.71489e-06
1.71489e-06
1.72076e-06
1.72225e-06
1.72173e-06
1.71912e-06
1.71489e-06
1.71489e-06
1.71489e-06
1.71489e-06
1.72072e-06
1.72029e-06
1.72225e-06
1.72179e-06
1.71986e-06
1.72054e-06
1.72087e-06
1.72081e-06
1.72076e-06
1.72028e-06
1.72216e-06
1.72234e-06
1.72183e-06
1.71984e-06
1.72225e-06
1.72225e-06
1.70139e-06
1.70126e-06
1.70102e-06
1.69855e-06
1.69857e-06
1.69831e-06
1.69867e-06
1.70131e-06
1.70137e-06
1.70104e-06
1.69728e-06
1.69447e-06
1.69447e-06
1.69447e-06
1.69447e-06
1.69871e-06
1.69944e-06
1.69855e-06
1.69447e-06
1.69447e-06
1.69447e-06
1.69447e-06
1.69447e-06
1.69447e-06
1.70012e-06
1.70192e-06
1.7014e-06
1.69858e-06
1.69447e-06
1.69447e-06
1.69447e-06
1.69447e-06
1.69447e-06
1.69447e-06
1.70044e-06
1.7014e-06
1.70126e-06
1.69831e-06
1.69447e-06
1.69447e-06
1.69447e-06
1.69447e-06
1.69447e-06
1.69447e-06
1.70038e-06
1.69941e-06
1.69867e-06
1.69447e-06
1.69447e-06
1.69447e-06
1.69447e-06
1.69447e-06
1.69447e-06
1.70034e-06
1.70183e-06
1.70131e-06
1.6987e-06
1.69447e-06
1.69447e-06
1.69447e-06
1.69447e-06
1.7003e-06
1.69986e-06
1.70182e-06
1.70137e-06
1.69943e-06
1.70012e-06
1.70045e-06
1.70039e-06
1.70034e-06
1.69986e-06
1.70174e-06
1.70192e-06
1.7014e-06
1.69941e-06
1.70183e-06
1.70183e-06
1.68097e-06
1.68083e-06
1.6806e-06
1.67813e-06
1.67815e-06
1.67789e-06
1.67825e-06
1.68089e-06
1.68095e-06
1.68061e-06
1.67686e-06
1.67404e-06
1.67404e-06
1.67404e-06
1.67404e-06
1.67829e-06
1.67901e-06
1.67813e-06
1.67404e-06
1.67404e-06
1.67404e-06
1.67404e-06
1.67404e-06
1.67404e-06
1.6797e-06
1.6815e-06
1.68098e-06
1.67815e-06
1.67404e-06
1.67404e-06
1.67404e-06
1.67404e-06
1.67404e-06
1.67404e-06
1.68002e-06
1.68098e-06
1.68083e-06
1.67788e-06
1.67404e-06
1.67404e-06
1.67404e-06
1.67404e-06
1.67404e-06
1.67404e-06
1.67996e-06
1.67898e-06
1.67825e-06
1.67404e-06
1.67404e-06
1.67404e-06
1.67404e-06
1.67404e-06
1.67404e-06
1.67992e-06
1.6814e-06
1.68088e-06
1.67828e-06
1.67404e-06
1.67404e-06
1.67404e-06
1.67404e-06
1.67988e-06
1.67944e-06
1.6814e-06
1.68095e-06
1.67901e-06
1.6797e-06
1.68003e-06
1.67997e-06
1.67991e-06
1.67944e-06
1.68131e-06
1.6815e-06
1.68098e-06
1.67899e-06
1.6814e-06
1.6814e-06
1.66054e-06
1.66041e-06
1.66018e-06
1.65771e-06
1.65773e-06
1.65746e-06
1.65783e-06
1.66046e-06
1.66052e-06
1.66019e-06
1.65644e-06
1.65362e-06
1.65362e-06
1.65362e-06
1.65362e-06
1.65786e-06
1.65859e-06
1.6577e-06
1.65362e-06
1.65362e-06
1.65362e-06
1.65362e-06
1.65362e-06
1.65362e-06
1.65927e-06
1.66108e-06
1.66055e-06
1.65773e-06
1.65362e-06
1.65362e-06
1.65362e-06
1.65362e-06
1.65362e-06
1.65362e-06
1.6596e-06
1.66055e-06
1.66041e-06
1.65746e-06
1.65362e-06
1.65362e-06
1.65362e-06
1.65362e-06
1.65362e-06
1.65362e-06
1.65954e-06
1.65856e-06
1.65782e-06
1.65362e-06
1.65362e-06
1.65362e-06
1.65362e-06
1.65362e-06
1.65362e-06
1.65949e-06
1.66098e-06
1.66046e-06
1.65785e-06
1.65362e-06
1.65362e-06
1.65362e-06
1.65362e-06
1.65945e-06
1.65902e-06
1.66098e-06
1.66052e-06
1.65859e-06
1.65927e-06
1.6596e-06
1.65954e-06
1.65949e-06
1.65902e-06
1.66089e-06
1.66107e-06
1.66056e-06
1.65856e-06
1.66098e-06
1.66098e-06
1.64012e-06
1.63999e-06
1.63976e-06
1.63729e-06
1.63731e-06
1.63704e-06
1.6374e-06
1.64004e-06
1.6401e-06
1.63977e-06
1.63601e-06
1.6332e-06
1.6332e-06
1.6332e-06
1.6332e-06
1.63744e-06
1.63817e-06
1.63728e-06
1.6332e-06
1.6332e-06
1.6332e-06
1.6332e-06
1.6332e-06
1.6332e-06
1.63885e-06
1.64065e-06
1.64013e-06
1.63731e-06
1.6332e-06
1.6332e-06
1.6332e-06
1.6332e-06
1.6332e-06
1.6332e-06
1.63918e-06
1.64013e-06
1.63999e-06
1.63704e-06
1.6332e-06
1.6332e-06
1.6332e-06
1.6332e-06
1.6332e-06
1.6332e-06
1.63911e-06
1.63814e-06
1.6374e-06
1.6332e-06
1.6332e-06
1.6332e-06
1.6332e-06
1.6332e-06
1.6332e-06
1.63907e-06
1.64056e-06
1.64004e-06
1.63743e-06
1.6332e-06
1.6332e-06
1.6332e-06
1.6332e-06
1.63903e-06
1.63859e-06
1.64055e-06
1.6401e-06
1.63816e-06
1.63885e-06
1.63918e-06
1.63912e-06
1.63907e-06
1.63859e-06
1.64047e-06
1.64065e-06
1.64013e-06
1.63814e-06
1.64056e-06
1.64056e-06
1.6197e-06
1.61956e-06
1.61933e-06
1.61686e-06
1.61688e-06
1.61662e-06
1.61698e-06
1.61962e-06
1.61968e-06
1.61934e-06
1.61559e-06
1.61277e-06
1.61277e-06
1.61277e-06
1.61277e-06
1.61702e-06
1.61775e-06
1.61686e-06
1.61277e-06
1.61277e-06
1.61278e-06
1.61277e-06
1.61277e-06
1.61277e-06
1.61843e-06
1.62023e-06
1.61971e-06
1.61688e-06
1.61277e-06
1.61277e-06
1.61277e-06
1.61277e-06
1.61277e-06
1.61277e-06
1.61875e-06
1.61971e-06
1.61956e-06
1.61662e-06
1.61277e-06
1.61277e-06
1.61277e-06
1.61277e-06
1.61277e-06
1.61277e-06
1.61869e-06
1.61771e-06
1.61698e-06
1.61277e-06
1.61277e-06
1.61277e-06
1.61277e-06
1.61278e-06
1.61278e-06
1.61865e-06
1.62013e-06
1.61961e-06
1.61701e-06
1.61277e-06
1.61277e-06
1.61277e-06
1.61278e-06
1.61861e-06
1.61817e-06
1.62013e-06
1.61968e-06
1.61774e-06
1.61843e-06
1.61876e-06
1.6187e-06
1.61865e-06
1.61817e-06
1.62004e-06
1.62023e-06
1.61971e-06
1.61772e-06
1.62014e-06
1.62013e-06
1.59928e-06
1.59914e-06
1.59891e-06
1.59644e-06
1.59646e-06
1.5962e-06
1.59656e-06
1.59919e-06
1.59925e-06
1.59892e-06
1.59517e-06
1.59235e-06
1.59235e-06
1.59235e-06
1.59235e-06
1.5966e-06
1.59732e-06
1.59644e-06
1.59235e-06
1.59235e-06
1.59235e-06
1.59235e-06
1.59235e-06
1.59235e-06
1.59801e-06
1.59981e-06
1.59928e-06
1.59646e-06
1.59235e-06
1.59235e-06
1.59235e-06
1.59235e-06
1.59235e-06
1.59235e-06
1.59833e-06
1.59929e-06
1.59914e-06
1.59619e-06
1.59235e-06
1.59235e-06
1.59235e-06
1.59235e-06
1.59235e-06
1.59235e-06
1.59827e-06
1.59729e-06
1.59656e-06
1.59235e-06
1.59235e-06
1.59235e-06
1.59235e-06
1.59235e-06
1.59235e-06
1.59823e-06
1.59971e-06
1.59919e-06
1.59659e-06
1.59235e-06
1.59235e-06
1.59235e-06
1.59235e-06
1.59819e-06
1.59775e-06
1.59971e-06
1.59926e-06
1.59732e-06
1.59801e-06
1.59833e-06
1.59827e-06
1.59822e-06
1.59775e-06
1.59962e-06
1.59981e-06
1.59929e-06
1.5973e-06
1.59971e-06
1.59971e-06
1.57885e-06
1.57872e-06
1.57849e-06
1.57602e-06
1.57604e-06
1.57577e-06
1.57614e-06
1.57877e-06
1.57883e-06
1.5785e-06
1.57475e-06
1.57193e-06
1.57193e-06
1.57193e-06
1.57193e-06
1.57617e-06
1.5769e-06
1.57601e-06
1.57193e-06
1.57193e-06
1.57193e-06
1.57193e-06
1.57193e-06
1.57193e-06
1.57758e-06
1.57939e-06
1.57886e-06
1.57604e-06
1.57193e-06
1.57193e-06
1.57193e-06
1.57193e-06
1.57193e-06
1.57193e-06
1.57791e-06
1.57886e-06
1.57872e-06
1.57577e-06
1.57193e-06
1.57193e-06
1.57193e-06
1.57193e-06
1.57193e-06
1.57193e-06
1.57785e-06
1.57687e-06
1.57613e-06
1.57193e-06
1.57193e-06
1.57193e-06
1.57193e-06
1.57193e-06
1.57193e-06
1.5778e-06
1.57929e-06
1.57877e-06
1.57616e-06
1.57193e-06
1.57193e-06
1.57193e-06
1.57193e-06
1.57776e-06
1.57733e-06
1.57929e-06
1.57883e-06
1.5769e-06
1.57758e-06
1.57791e-06
1.57785e-06
1.5778e-06
1.57733e-06
1.5792e-06
1.57939e-06
1.57887e-06
1.57687e-06
1.57929e-06
1.57929e-06
1.55843e-06
1.5583e-06
1.55807e-06
1.5556e-06
1.55562e-06
1.55535e-06
1.55571e-06
1.55835e-06
1.55841e-06
1.55808e-06
1.55433e-06
1.55151e-06
1.55151e-06
1.55151e-06
1.55151e-06
1.55575e-06
1.55648e-06
1.55559e-06
1.55151e-06
1.55151e-06
1.55151e-06
1.55151e-06
1.55151e-06
1.55151e-06
1.55716e-06
1.55896e-06
1.55844e-06
1.55562e-06
1.55151e-06
1.55151e-06
1.55151e-06
1.55151e-06
1.55151e-06
1.55151e-06
1.55749e-06
1.55844e-06
1.5583e-06
1.55535e-06
1.55151e-06
1.55151e-06
1.55151e-06
1.55151e-06
1.55151e-06
1.55151e-06
1.55742e-06
1.55645e-06
1.55571e-06
1.55151e-06
1.55151e-06
1.55151e-06
1.55151e-06
1.55151e-06
1.55151e-06
1.55738e-06
1.55887e-06
1.55835e-06
1.55574e-06
1.55151e-06
1.55151e-06
1.55151e-06
1.55151e-06
1.55734e-06
1.55691e-06
1.55886e-06
1.55841e-06
1.55648e-06
1.55716e-06
1.55749e-06
1.55743e-06
1.55738e-06
1.5569e-06
1.55878e-06
1.55896e-06
1.55844e-06
1.55645e-06
1.55887e-06
1.55887e-06
1.53801e-06
1.53787e-06
1.53764e-06
1.53517e-06
1.53519e-06
1.53493e-06
1.53529e-06
1.53793e-06
1.53799e-06
1.53766e-06
1.5339e-06
1.53109e-06
1.53109e-06
1.53109e-06
1.53109e-06
1.53533e-06
1.53606e-06
1.53517e-06
1.53109e-06
1.53109e-06
1.53109e-06
1.53109e-06
1.53109e-06
1.53109e-06
1.53674e-06
1.53854e-06
1.53802e-06
1.53519e-06
1.53109e-06
1.53109e-06
1.53109e-06
1.53109e-06
1.53109e-06
1.53109e-06
1.53706e-06
1.53802e-06
1.53787e-06
1.53493e-06
1.53109e-06
1.53109e-06
1.53109e-06
1.53109e-06
1.53109e-06
1.53109e-06
1.537e-06
1.53602e-06
1.53529e-06
1.53109e-06
1.53109e-06
1.53109e-06
1.53109e-06
1.53109e-06
1.53109e-06
1.53696e-06
1.53844e-06
1.53793e-06
1.53532e-06
1.53109e-06
1.53109e-06
1.53109e-06
1.53109e-06
1.53692e-06
1.53648e-06
1.53844e-06
1.53799e-06
1.53605e-06
1.53674e-06
1.53707e-06
1.53701e-06
1.53696e-06
1.53648e-06
1.53835e-06
1.53854e-06
1.53802e-06
1.53603e-06
1.53845e-06
1.53844e-06
1.51759e-06
1.51745e-06
1.51722e-06
1.51475e-06
1.51477e-06
1.51451e-06
1.51487e-06
1.51751e-06
1.51757e-06
1.51723e-06
1.51348e-06
1.51066e-06
1.51066e-06
1.51066e-06
1.51066e-06
1.51491e-06
1.51563e-06
1.51475e-06
1.51066e-06
1.51066e-06
1.51066e-06
1.51066e-06
1.51066e-06
1.51066e-06
1.51632e-06
1.51812e-06
1.5176e-06
1.51477e-06
1.51066e-06
1.51066e-06
1.51066e-06
1.51066e-06
1.51066e-06
1.51066e-06
1.51664e-06
1.5176e-06
1.51745e-06
1.5145e-06
1.51066e-06
1.51066e-06
1.51066e-06
1.51066e-06
1.51066e-06
1.51066e-06
1.51658e-06
1.5156e-06
1.51487e-06
1.51066e-06
1.51066e-06
1.51066e-06
1.51066e-06
1.51066e-06
1.51066e-06
1.51654e-06
1.51802e-06
1.5175e-06
1.5149e-06
1.51066e-06
1.51066e-06
1.51066e-06
1.51066e-06
1.5165e-06
1.51606e-06
1.51802e-06
1.51757e-06
1.51563e-06
1.51632e-06
1.51665e-06
1.51659e-06
1.51653e-06
1.51606e-06
1.51793e-06
1.51812e-06
1.5176e-06
1.51561e-06
1.51802e-06
1.51802e-06
1.49717e-06
1.49703e-06
1.4968e-06
1.49433e-06
1.49435e-06
1.49408e-06
1.49445e-06
1.49708e-06
1.49715e-06
1.49681e-06
1.49306e-06
1.49024e-06
1.49024e-06
1.49024e-06
1.49024e-06
1.49448e-06
1.49521e-06
1.49433e-06
1.49024e-06
1.49024e-06
1.49024e-06
1.49024e-06
1.49024e-06
1.49024e-06
1.4959e-06
1.4977e-06
1.49717e-06
1.49435e-06
1.49024e-06
1.49024e-06
1.49024e-06
1.49024e-06
1.49024e-06
1.49024e-06
1.49622e-06
1.49717e-06
1.49703e-06
1.49408e-06
1.49024e-06
1.49024e-06
1.49024e-06
1.49024e-06
1.49024e-06
1.49024e-06
1.49616e-06
1.49518e-06
1.49444e-06
1.49024e-06
1.49024e-06
1.49024e-06
1.49024e-06
1.49024e-06
1.49024e-06
1.49611e-06
1.4976e-06
1.49708e-06
1.49448e-06
1.49024e-06
1.49024e-06
1.49024e-06
1.49024e-06
1.49608e-06
1.49564e-06
1.4976e-06
1.49715e-06
1.49521e-06
1.4959e-06
1.49622e-06
1.49616e-06
1.49611e-06
1.49564e-06
1.49751e-06
1.4977e-06
1.49718e-06
1.49519e-06
1.4976e-06
1.4976e-06
1.47674e-06
1.47661e-06
1.47638e-06
1.47391e-06
1.47393e-06
1.47366e-06
1.47402e-06
1.47666e-06
1.47672e-06
1.47639e-06
1.47263e-06
1.46982e-06
1.46982e-06
1.46982e-06
1.46982e-06
1.47406e-06
1.47479e-06
1.4739e-06
1.46982e-06
1.46982e-06
1.46982e-06
1.46982e-06
1.46982e-06
1.46982e-06
1.47547e-06
1.47727e-06
1.47675e-06
1.47393e-06
1.46982e-06
1.46982e-06
1.46982e-06
1.46982e-06
1.46982e-06
1.46982e-06
1.4758e-06
1.47675e-06
1.47661e-06
1.47366e-06
1.46982e-06
1.46982e-06
1.46982e-06
1.46982e-06
1.46982e-06
1.46982e-06
1.47573e-06
1.47476e-06
1.47402e-06
1.46982e-06
1.46982e-06
1.46982e-06
1.46982e-06
1.46982e-06
1.46982e-06
1.47569e-06
1.47718e-06
1.47666e-06
1.47405e-06
1.46982e-06
1.46982e-06
1.46982e-06
1.46982e-06
1.47565e-06
1.47521e-06
1.47717e-06
1.47672e-06
1.47478e-06
1.47547e-06
1.4758e-06
1.47574e-06
1.47569e-06
1.47521e-06
1.47709e-06
1.47727e-06
1.47675e-06
1.47476e-06
1.47718e-06
1.47718e-06
1.45632e-06
1.45618e-06
1.45595e-06
1.45348e-06
1.4535e-06
1.45324e-06
1.4536e-06
1.45624e-06
1.4563e-06
1.45596e-06
1.45221e-06
1.44939e-06
1.44939e-06
1.44939e-06
1.44939e-06
1.45363e-06
1.45436e-06
1.45348e-06
1.44939e-06
1.44939e-06
1.44939e-06
1.44939e-06
1.44939e-06
1.44939e-06
1.45505e-06
1.45685e-06
1.45632e-06
1.4535e-06
1.44939e-06
1.44939e-06
1.44939e-06
1.44939e-06
1.44939e-06
1.44939e-06
1.45537e-06
1.45632e-06
1.45618e-06
1.45323e-06
1.44939e-06
1.44939e-06
1.44939e-06
1.44939e-06
1.44939e-06
1.44939e-06
1.45531e-06
1.45433e-06
1.4536e-06
1.44939e-06
1.44939e-06
1.44939e-06
1.44939e-06
1.44939e-06
1.44939e-06
1.45527e-06
1.45675e-06
1.45623e-06
1.45363e-06
1.44939e-06
1.44939e-06
1.44939e-06
1.44939e-06
1.45523e-06
1.45479e-06
1.45675e-06
1.4563e-06
1.45436e-06
1.45505e-06
1.45537e-06
1.45531e-06
1.45526e-06
1.45479e-06
1.45666e-06
1.45685e-06
1.45633e-06
1.45434e-06
1.45675e-06
1.45675e-06
1.43589e-06
1.43576e-06
1.43553e-06
1.43306e-06
1.43307e-06
1.43281e-06
1.43317e-06
1.43581e-06
1.43587e-06
1.43554e-06
1.43178e-06
1.42897e-06
1.42897e-06
1.42897e-06
1.42897e-06
1.43321e-06
1.43394e-06
1.43305e-06
1.42897e-06
1.42897e-06
1.42897e-06
1.42897e-06
1.42897e-06
1.42897e-06
1.43462e-06
1.43642e-06
1.4359e-06
1.43308e-06
1.42897e-06
1.42897e-06
1.42897e-06
1.42897e-06
1.42897e-06
1.42897e-06
1.43495e-06
1.4359e-06
1.43576e-06
1.43281e-06
1.42897e-06
1.42897e-06
1.42897e-06
1.42897e-06
1.42897e-06
1.42897e-06
1.43488e-06
1.43391e-06
1.43317e-06
1.42897e-06
1.42897e-06
1.42897e-06
1.42897e-06
1.42897e-06
1.42897e-06
1.43484e-06
1.43633e-06
1.43581e-06
1.4332e-06
1.42897e-06
1.42897e-06
1.42897e-06
1.42897e-06
1.4348e-06
1.43437e-06
1.43632e-06
1.43587e-06
1.43393e-06
1.43462e-06
1.43495e-06
1.43489e-06
1.43484e-06
1.43436e-06
1.43624e-06
1.43642e-06
1.4359e-06
1.43391e-06
1.43633e-06
1.43633e-06
1.41547e-06
1.41533e-06
1.4151e-06
1.41263e-06
1.41265e-06
1.41239e-06
1.41275e-06
1.41539e-06
1.41545e-06
1.41511e-06
1.41136e-06
1.40854e-06
1.40854e-06
1.40854e-06
1.40854e-06
1.41278e-06
1.41351e-06
1.41263e-06
1.40854e-06
1.40854e-06
1.40854e-06
1.40854e-06
1.40854e-06
1.40854e-06
1.4142e-06
1.416e-06
1.41548e-06
1.41265e-06
1.40854e-06
1.40854e-06
1.40854e-06
1.40854e-06
1.40854e-06
1.40854e-06
1.41452e-06
1.41548e-06
1.41533e-06
1.41238e-06
1.40854e-06
1.40854e-06
1.40854e-06
1.40854e-06
1.40854e-06
1.40854e-06
1.41446e-06
1.41348e-06
1.41275e-06
1.40854e-06
1.40854e-06
1.40854e-06
1.40854e-06
1.40854e-06
1.40854e-06
1.41442e-06
1.4159e-06
1.41538e-06
1.41278e-06
1.40854e-06
1.40854e-06
1.40854e-06
1.40854e-06
1.41438e-06
1.41394e-06
1.4159e-06
1.41545e-06
1.41351e-06
1.4142e-06
1.41452e-06
1.41447e-06
1.41441e-06
1.41394e-06
1.41581e-06
1.416e-06
1.41548e-06
1.41349e-06
1.4159e-06
1.4159e-06
1.39504e-06
1.39491e-06
1.39468e-06
1.39221e-06
1.39223e-06
1.39196e-06
1.39233e-06
1.39496e-06
1.39502e-06
1.39469e-06
1.39094e-06
1.38812e-06
1.38812e-06
1.38812e-06
1.38812e-06
1.39236e-06
1.39309e-06
1.3922e-06
1.38812e-06
1.38812e-06
1.38812e-06
1.38812e-06
1.38812e-06
1.38812e-06
1.39377e-06
1.39558e-06
1.39505e-06
1.39223e-06
1.38812e-06
1.38812e-06
1.38812e-06
1.38812e-06
1.38812e-06
1.38812e-06
1.3941e-06
1.39505e-06
1.39491e-06
1.39196e-06
1.38812e-06
1.38812e-06
1.38812e-06
1.38812e-06
1.38812e-06
1.38812e-06
1.39404e-06
1.39306e-06
1.39232e-06
1.38812e-06
1.38812e-06
1.38812e-06
1.38812e-06
1.38812e-06
1.38812e-06
1.39399e-06
1.39548e-06
1.39496e-06
1.39235e-06
1.38812e-06
1.38812e-06
1.38812e-06
1.38812e-06
1.39395e-06
1.39352e-06
1.39548e-06
1.39502e-06
1.39309e-06
1.39377e-06
1.3941e-06
1.39404e-06
1.39399e-06
1.39351e-06
1.39539e-06
1.39557e-06
1.39506e-06
1.39306e-06
1.39548e-06
1.39548e-06
1.37462e-06
1.37448e-06
1.37426e-06
1.37178e-06
1.3718e-06
1.37154e-06
1.3719e-06
1.37454e-06
1.3746e-06
1.37427e-06
1.37051e-06
1.3677e-06
1.3677e-06
1.3677e-06
1.3677e-06
1.37194e-06
1.37267e-06
1.37178e-06
1.3677e-06
1.3677e-06
1.3677e-06
1.3677e-06
1.3677e-06
1.3677e-06
1.37335e-06
1.37515e-06
1.37463e-06
1.3718e-06
1.3677e-06
1.3677e-06
1.3677e-06
1.3677e-06
1.3677e-06
1.3677e-06
1.37368e-06
1.37463e-06
1.37448e-06
1.37154e-06
1.3677e-06
1.3677e-06
1.3677e-06
1.3677e-06
1.3677e-06
1.3677e-06
1.37361e-06
1.37263e-06
1.3719e-06
1.3677e-06
1.3677e-06
1.3677e-06
1.3677e-06
1.3677e-06
1.3677e-06
1.37357e-06
1.37506e-06
1.37454e-06
1.37193e-06
1.3677e-06
1.3677e-06
1.3677e-06
1.3677e-06
1.37353e-06
1.37309e-06
1.37505e-06
1.3746e-06
1.37266e-06
1.37335e-06
1.37368e-06
1.37362e-06
1.37357e-06
1.37309e-06
1.37497e-06
1.37515e-06
1.37463e-06
1.37264e-06
1.37506e-06
1.37505e-06
1.3542e-06
1.35406e-06
1.35383e-06
1.35136e-06
1.35138e-06
1.35112e-06
1.35148e-06
1.35412e-06
1.35418e-06
1.35384e-06
1.35009e-06
1.34727e-06
1.34727e-06
1.34727e-06
1.34727e-06
1.35151e-06
1.35224e-06
1.35136e-06
1.34727e-06
1.34727e-06
1.34727e-06
1.34727e-06
1.34727e-06
1.34727e-06
1.35293e-06
1.35473e-06
1.3542e-06
1.35138e-06
1.34727e-06
1.34727e-06
1.34727e-06
1.34727e-06
1.34727e-06
1.34727e-06
1.35325e-06
1.3542e-06
1.35406e-06
1.35111e-06
1.34727e-06
1.34727e-06
1.34727e-06
1.34727e-06
1.34727e-06
1.34727e-06
1.35319e-06
1.35221e-06
1.35147e-06
1.34727e-06
1.34727e-06
1.34727e-06
1.34727e-06
1.34727e-06
1.34727e-06
1.35315e-06
1.35463e-06
1.35411e-06
1.35151e-06
1.34727e-06
1.34727e-06
1.34727e-06
1.34727e-06
1.35311e-06
1.35267e-06
1.35463e-06
1.35418e-06
1.35224e-06
1.35293e-06
1.35325e-06
1.35319e-06
1.35314e-06
1.35267e-06
1.35454e-06
1.35473e-06
1.35421e-06
1.35221e-06
1.35463e-06
1.35463e-06
1.33377e-06
1.33364e-06
1.33341e-06
1.33094e-06
1.33095e-06
1.33069e-06
1.33105e-06
1.33369e-06
1.33375e-06
1.33342e-06
1.32966e-06
1.32685e-06
1.32685e-06
1.32685e-06
1.32685e-06
1.33109e-06
1.33182e-06
1.33093e-06
1.32685e-06
1.32685e-06
1.32685e-06
1.32685e-06
1.32685e-06
1.32685e-06
1.3325e-06
1.3343e-06
1.33378e-06
1.33096e-06
1.32685e-06
1.32685e-06
1.32685e-06
1.32685e-06
1.32685e-06
1.32685e-06
1.33283e-06
1.33378e-06
1.33364e-06
1.33069e-06
1.32685e-06
1.32685e-06
1.32685e-06
1.32685e-06
1.32685e-06
1.32685e-06
1.33276e-06
1.33179e-06
1.33105e-06
1.32685e-06
1.32685e-06
1.32685e-06
1.32685e-06
1.32685e-06
1.32685e-06
1.33272e-06
1.33421e-06
1.33369e-06
1.33108e-06
1.32685e-06
1.32685e-06
1.32685e-06
1.32685e-06
1.33268e-06
1.33225e-06