/*--------------------------------*- C++ -*----------------------------------*\
| =========                 |                                                 |
| \\      /  F ield         | OpenFOAM: The Open Source CFD Toolbox           |
|  \\    /   O peration     | Version:  v2012                                 |
|   \\  /    A nd           | Website:  www.openfoam.com                      |
|    \\/     M anipulation  |                                                 |
\*---------------------------------------------------------------------------*/
FoamFile
{
    version     2.0;
    format      ascii;
    class       volScalarField;
    location    "0.055";
    object      p;
}
// * * * * * * * * * * * * * * * * * * * * * * * * * * * * * * * * * * * * * //

dimensions      [0 2 -2 0 0 0 0];


internalField   nonuniform List<scalar> 
247104
(
2.11903e-06
2.12048e-06
2.12015e-06
2.11989e-06
2.11951e-06
2.11996e-06
2.1202e-06
2.12038e-06
2.12046e-06
2.12059e-06
2.12062e-06
2.12035e-06
2.12014e-06
2.1204e-06
2.12065e-06
2.12056e-06
2.12015e-06
2.12062e-06
2.12039e-06
2.11997e-06
2.11979e-06
2.12002e-06
2.12044e-06
2.12062e-06
2.12006e-06
2.11989e-06
2.12035e-06
2.11997e-06
2.11948e-06
2.1193e-06
2.11954e-06
2.12003e-06
2.12036e-06
2.11974e-06
2.119e-06
2.11949e-06
2.12013e-06
2.11978e-06
2.1193e-06
2.11912e-06
2.11935e-06
2.11985e-06
2.12013e-06
2.11933e-06
2.11994e-06
2.12039e-06
2.12001e-06
2.11953e-06
2.11935e-06
2.11958e-06
2.12008e-06
2.1204e-06
2.11979e-06
2.12019e-06
2.12064e-06
2.12044e-06
2.12003e-06
2.11985e-06
2.12008e-06
2.12049e-06
2.12063e-06
2.1201e-06
2.12037e-06
2.12055e-06
2.12061e-06
2.12035e-06
2.12012e-06
2.1204e-06
2.12063e-06
2.12052e-06
2.12004e-06
2.11973e-06
2.11933e-06
2.11979e-06
2.12011e-06
2.08608e-06
2.08352e-06
2.08602e-06
2.08418e-06
2.08282e-06
2.08299e-06
2.08287e-06
2.08715e-06
2.08659e-06
2.086e-06
2.08289e-06
2.07832e-06
2.07791e-06
2.07791e-06
2.07832e-06
2.08309e-06
2.08374e-06
2.08412e-06
2.07831e-06
2.07816e-06
2.0781e-06
2.0781e-06
2.07816e-06
2.07833e-06
2.08386e-06
2.08757e-06
2.08608e-06
2.08278e-06
2.07791e-06
2.0781e-06
2.07825e-06
2.07825e-06
2.0781e-06
2.07792e-06
2.08285e-06
2.08669e-06
2.08357e-06
2.08298e-06
2.07791e-06
2.0781e-06
2.07825e-06
2.07825e-06
2.0781e-06
2.07792e-06
2.08303e-06
2.08258e-06
2.0829e-06
2.07832e-06
2.07816e-06
2.0781e-06
2.0781e-06
2.07816e-06
2.07833e-06
2.08308e-06
2.08511e-06
2.08715e-06
2.08307e-06
2.07832e-06
2.07792e-06
2.07792e-06
2.07832e-06
2.08275e-06
2.08399e-06
2.08781e-06
2.08662e-06
2.08373e-06
2.08385e-06
2.08286e-06
2.08302e-06
2.08305e-06
2.08399e-06
2.0892e-06
2.08754e-06
2.08672e-06
2.08258e-06
2.08507e-06
2.08778e-06
2.06579e-06
2.06574e-06
2.06523e-06
2.06301e-06
2.06295e-06
2.06291e-06
2.06301e-06
2.06594e-06
2.06581e-06
2.06523e-06
2.06272e-06
2.05954e-06
2.05932e-06
2.05932e-06
2.05954e-06
2.06435e-06
2.06359e-06
2.063e-06
2.05953e-06
2.05898e-06
2.05892e-06
2.05892e-06
2.05898e-06
2.05955e-06
2.06492e-06
2.06661e-06
2.06581e-06
2.06296e-06
2.05931e-06
2.05892e-06
2.05885e-06
2.05885e-06
2.05893e-06
2.05933e-06
2.06446e-06
2.06566e-06
2.06574e-06
2.06291e-06
2.05931e-06
2.05892e-06
2.05885e-06
2.05885e-06
2.05893e-06
2.05933e-06
2.06416e-06
2.06311e-06
2.06301e-06
2.05953e-06
2.05897e-06
2.05892e-06
2.05892e-06
2.05898e-06
2.05954e-06
2.06476e-06
2.0662e-06
2.06593e-06
2.06434e-06
2.05953e-06
2.05932e-06
2.05932e-06
2.05954e-06
2.06487e-06
2.06435e-06
2.06628e-06
2.06581e-06
2.06358e-06
2.06491e-06
2.06445e-06
2.06414e-06
2.06476e-06
2.06435e-06
2.06656e-06
2.06661e-06
2.06566e-06
2.0631e-06
2.06619e-06
2.06627e-06
2.04343e-06
2.04338e-06
2.04337e-06
2.04103e-06
2.04096e-06
2.04081e-06
2.04111e-06
2.04417e-06
2.04402e-06
2.04338e-06
2.04048e-06
2.03722e-06
2.03713e-06
2.03713e-06
2.03722e-06
2.04275e-06
2.04194e-06
2.04103e-06
2.03723e-06
2.03708e-06
2.03706e-06
2.03706e-06
2.03708e-06
2.03722e-06
2.04355e-06
2.04463e-06
2.04344e-06
2.04097e-06
2.03713e-06
2.03706e-06
2.03705e-06
2.03705e-06
2.03706e-06
2.03713e-06
2.04331e-06
2.04344e-06
2.0434e-06
2.04082e-06
2.03713e-06
2.03706e-06
2.03705e-06
2.03705e-06
2.03706e-06
2.03713e-06
2.04303e-06
2.04104e-06
2.04112e-06
2.03723e-06
2.03708e-06
2.03706e-06
2.03706e-06
2.03708e-06
2.03723e-06
2.04355e-06
2.04401e-06
2.04419e-06
2.04274e-06
2.03722e-06
2.03714e-06
2.03713e-06
2.03723e-06
2.044e-06
2.04287e-06
2.04445e-06
2.044e-06
2.04195e-06
2.04355e-06
2.04332e-06
2.04303e-06
2.04354e-06
2.04285e-06
2.04453e-06
2.04463e-06
2.04344e-06
2.04104e-06
2.04401e-06
2.04445e-06
2.02193e-06
2.02192e-06
2.02175e-06
2.01928e-06
2.01923e-06
2.01902e-06
2.01941e-06
2.02257e-06
2.02234e-06
2.02175e-06
2.01809e-06
2.01492e-06
2.01491e-06
2.01491e-06
2.01492e-06
2.02072e-06
2.02031e-06
2.01927e-06
2.01491e-06
2.01489e-06
2.0149e-06
2.01489e-06
2.01489e-06
2.01491e-06
2.02205e-06
2.02311e-06
2.02198e-06
2.01923e-06
2.0149e-06
2.0149e-06
2.0149e-06
2.0149e-06
2.01489e-06
2.0149e-06
2.02213e-06
2.02195e-06
2.0219e-06
2.01902e-06
2.01491e-06
2.0149e-06
2.0149e-06
2.0149e-06
2.0149e-06
2.0149e-06
2.02188e-06
2.01958e-06
2.01942e-06
2.01492e-06
2.01489e-06
2.0149e-06
2.0149e-06
2.01489e-06
2.01492e-06
2.02221e-06
2.02253e-06
2.02257e-06
2.02072e-06
2.01492e-06
2.01491e-06
2.0149e-06
2.01492e-06
2.0225e-06
2.02126e-06
2.02289e-06
2.02232e-06
2.02032e-06
2.02205e-06
2.02214e-06
2.02188e-06
2.02222e-06
2.02125e-06
2.02289e-06
2.02311e-06
2.02196e-06
2.01959e-06
2.02253e-06
2.02289e-06
2.00019e-06
2.00019e-06
1.99992e-06
1.99742e-06
1.99737e-06
1.99713e-06
1.99757e-06
2.00077e-06
2.00055e-06
1.99994e-06
1.99599e-06
1.99284e-06
1.99283e-06
1.99283e-06
1.99284e-06
1.99871e-06
1.99851e-06
1.99741e-06
1.99284e-06
1.99283e-06
1.99284e-06
1.99284e-06
1.99283e-06
1.99284e-06
2.00025e-06
2.00135e-06
2.00024e-06
1.99737e-06
1.99283e-06
1.99284e-06
1.99284e-06
1.99284e-06
1.99284e-06
1.99284e-06
2.00045e-06
2.00021e-06
2.00019e-06
1.99712e-06
1.99284e-06
1.99284e-06
1.99284e-06
1.99284e-06
1.99284e-06
1.99284e-06
2.00018e-06
1.99787e-06
1.99758e-06
1.99284e-06
1.99284e-06
1.99284e-06
1.99284e-06
1.99283e-06
1.99284e-06
2.00049e-06
2.00079e-06
2.00078e-06
1.99871e-06
1.99284e-06
1.99284e-06
1.99284e-06
1.99284e-06
2.0007e-06
1.99946e-06
2.00111e-06
2.00054e-06
1.99853e-06
2.00026e-06
2.00047e-06
2.0002e-06
2.00049e-06
1.99945e-06
2.0011e-06
2.00136e-06
2.00023e-06
1.99789e-06
2.00079e-06
2.00111e-06
1.97829e-06
1.9783e-06
1.97795e-06
1.97549e-06
1.97544e-06
1.97517e-06
1.97564e-06
1.97885e-06
1.97861e-06
1.97801e-06
1.974e-06
1.97083e-06
1.97083e-06
1.97083e-06
1.97083e-06
1.97673e-06
1.9766e-06
1.97547e-06
1.97083e-06
1.97083e-06
1.97083e-06
1.97083e-06
1.97083e-06
1.97084e-06
1.97833e-06
1.97944e-06
1.97834e-06
1.97543e-06
1.97084e-06
1.97083e-06
1.97083e-06
1.97083e-06
1.97083e-06
1.97083e-06
1.97859e-06
1.97832e-06
1.97829e-06
1.97517e-06
1.97084e-06
1.97083e-06
1.97083e-06
1.97083e-06
1.97083e-06
1.97083e-06
1.97831e-06
1.97598e-06
1.97564e-06
1.97083e-06
1.97083e-06
1.97083e-06
1.97083e-06
1.97083e-06
1.97084e-06
1.97858e-06
1.97888e-06
1.97886e-06
1.97672e-06
1.97083e-06
1.97083e-06
1.97083e-06
1.97083e-06
1.97877e-06
1.97753e-06
1.9792e-06
1.97862e-06
1.97659e-06
1.97834e-06
1.97857e-06
1.9783e-06
1.97858e-06
1.97752e-06
1.97916e-06
1.97944e-06
1.97832e-06
1.97598e-06
1.97888e-06
1.97919e-06
1.95634e-06
1.95634e-06
1.956e-06
1.95352e-06
1.95347e-06
1.9532e-06
1.95367e-06
1.9569e-06
1.95666e-06
1.95606e-06
1.95201e-06
1.94885e-06
1.94885e-06
1.94885e-06
1.94885e-06
1.95475e-06
1.95464e-06
1.95351e-06
1.94885e-06
1.94885e-06
1.94885e-06
1.94885e-06
1.94885e-06
1.94885e-06
1.95637e-06
1.95748e-06
1.95638e-06
1.95347e-06
1.94885e-06
1.94885e-06
1.94885e-06
1.94885e-06
1.94885e-06
1.94885e-06
1.95663e-06
1.95636e-06
1.95634e-06
1.95321e-06
1.94885e-06
1.94885e-06
1.94885e-06
1.94885e-06
1.94885e-06
1.94885e-06
1.95635e-06
1.95403e-06
1.95367e-06
1.94885e-06
1.94885e-06
1.94885e-06
1.94885e-06
1.94885e-06
1.94885e-06
1.95662e-06
1.95692e-06
1.95691e-06
1.95476e-06
1.94885e-06
1.94885e-06
1.94885e-06
1.94885e-06
1.95682e-06
1.95556e-06
1.95724e-06
1.95663e-06
1.95463e-06
1.95637e-06
1.95664e-06
1.95636e-06
1.95663e-06
1.95556e-06
1.95721e-06
1.95749e-06
1.95637e-06
1.95404e-06
1.95693e-06
1.95724e-06
1.93437e-06
1.93437e-06
1.93402e-06
1.93154e-06
1.9315e-06
1.93123e-06
1.9317e-06
1.93492e-06
1.93469e-06
1.93409e-06
1.93002e-06
1.92687e-06
1.92687e-06
1.92687e-06
1.92687e-06
1.93277e-06
1.93267e-06
1.93154e-06
1.92687e-06
1.92687e-06
1.92687e-06
1.92687e-06
1.92687e-06
1.92687e-06
1.9344e-06
1.93551e-06
1.93441e-06
1.93151e-06
1.92687e-06
1.92687e-06
1.92687e-06
1.92687e-06
1.92687e-06
1.92687e-06
1.93466e-06
1.93439e-06
1.93437e-06
1.93124e-06
1.92687e-06
1.92687e-06
1.92687e-06
1.92687e-06
1.92687e-06
1.92687e-06
1.93439e-06
1.93206e-06
1.93171e-06
1.92687e-06
1.92687e-06
1.92687e-06
1.92687e-06
1.92687e-06
1.92687e-06
1.93465e-06
1.93495e-06
1.93494e-06
1.93277e-06
1.92687e-06
1.92687e-06
1.92687e-06
1.92687e-06
1.93486e-06
1.9336e-06
1.93527e-06
1.93466e-06
1.93266e-06
1.9344e-06
1.93466e-06
1.93438e-06
1.93466e-06
1.93359e-06
1.93524e-06
1.93551e-06
1.93439e-06
1.93206e-06
1.93496e-06
1.93527e-06
1.91239e-06
1.9124e-06
1.91204e-06
1.90957e-06
1.90952e-06
1.90926e-06
1.90972e-06
1.91295e-06
1.91271e-06
1.91211e-06
1.90806e-06
1.90489e-06
1.90489e-06
1.90489e-06
1.90489e-06
1.9108e-06
1.9107e-06
1.90956e-06
1.90489e-06
1.90489e-06
1.90489e-06
1.90489e-06
1.90489e-06
1.90489e-06
1.91243e-06
1.91354e-06
1.91244e-06
1.90953e-06
1.90489e-06
1.90489e-06
1.90489e-06
1.90489e-06
1.90489e-06
1.90489e-06
1.91269e-06
1.91241e-06
1.9124e-06
1.90926e-06
1.90489e-06
1.90489e-06
1.90489e-06
1.90489e-06
1.90489e-06
1.90489e-06
1.91241e-06
1.91008e-06
1.90973e-06
1.90489e-06
1.90489e-06
1.90489e-06
1.90489e-06
1.90489e-06
1.90489e-06
1.91267e-06
1.91298e-06
1.91296e-06
1.91079e-06
1.90489e-06
1.90489e-06
1.90489e-06
1.90489e-06
1.91288e-06
1.91163e-06
1.91329e-06
1.91269e-06
1.91068e-06
1.91243e-06
1.9127e-06
1.91242e-06
1.91269e-06
1.91162e-06
1.91326e-06
1.91354e-06
1.91242e-06
1.9101e-06
1.91298e-06
1.91329e-06
1.89042e-06
1.89042e-06
1.89007e-06
1.88759e-06
1.88754e-06
1.88728e-06
1.88775e-06
1.89097e-06
1.89074e-06
1.89014e-06
1.88607e-06
1.88291e-06
1.88292e-06
1.88292e-06
1.88291e-06
1.88882e-06
1.88872e-06
1.88758e-06
1.88291e-06
1.88291e-06
1.88291e-06
1.88291e-06
1.88292e-06
1.88292e-06
1.89045e-06
1.89156e-06
1.89046e-06
1.88755e-06
1.88292e-06
1.88292e-06
1.88292e-06
1.88292e-06
1.88292e-06
1.88292e-06
1.89071e-06
1.89044e-06
1.89042e-06
1.88728e-06
1.88292e-06
1.88292e-06
1.88292e-06
1.88292e-06
1.88292e-06
1.88292e-06
1.89044e-06
1.8881e-06
1.88775e-06
1.88292e-06
1.88291e-06
1.88292e-06
1.88292e-06
1.88292e-06
1.88292e-06
1.89069e-06
1.891e-06
1.89098e-06
1.88881e-06
1.88292e-06
1.88292e-06
1.88292e-06
1.88292e-06
1.89091e-06
1.88965e-06
1.89132e-06
1.89071e-06
1.88871e-06
1.89045e-06
1.89072e-06
1.89044e-06
1.89071e-06
1.88964e-06
1.89129e-06
1.89156e-06
1.89044e-06
1.88812e-06
1.89101e-06
1.89132e-06
1.86844e-06
1.86845e-06
1.86814e-06
1.86561e-06
1.86557e-06
1.8653e-06
1.86577e-06
1.869e-06
1.86876e-06
1.86815e-06
1.86409e-06
1.86094e-06
1.86094e-06
1.86094e-06
1.86094e-06
1.86685e-06
1.86674e-06
1.86561e-06
1.86094e-06
1.86094e-06
1.86094e-06
1.86094e-06
1.86094e-06
1.86094e-06
1.86847e-06
1.86958e-06
1.86849e-06
1.86557e-06
1.86094e-06
1.86094e-06
1.86094e-06
1.86094e-06
1.86094e-06
1.86094e-06
1.86873e-06
1.86846e-06
1.86845e-06
1.8653e-06
1.86094e-06
1.86094e-06
1.86094e-06
1.86094e-06
1.86094e-06
1.86094e-06
1.86846e-06
1.86613e-06
1.86578e-06
1.86094e-06
1.86094e-06
1.86094e-06
1.86094e-06
1.86094e-06
1.86094e-06
1.86872e-06
1.86902e-06
1.86901e-06
1.86684e-06
1.86094e-06
1.86094e-06
1.86094e-06
1.86094e-06
1.86893e-06
1.86767e-06
1.86934e-06
1.86873e-06
1.86673e-06
1.86848e-06
1.86874e-06
1.86847e-06
1.86874e-06
1.86766e-06
1.86931e-06
1.86959e-06
1.86847e-06
1.86614e-06
1.86903e-06
1.86934e-06
1.84646e-06
1.84647e-06
1.84616e-06
1.84364e-06
1.84359e-06
1.84333e-06
1.8438e-06
1.84702e-06
1.84677e-06
1.84618e-06
1.84212e-06
1.83896e-06
1.83896e-06
1.83896e-06
1.83896e-06
1.84487e-06
1.84476e-06
1.84363e-06
1.83896e-06
1.83896e-06
1.83896e-06
1.83896e-06
1.83896e-06
1.83896e-06
1.84649e-06
1.84761e-06
1.84651e-06
1.8436e-06
1.83896e-06
1.83896e-06
1.83896e-06
1.83896e-06
1.83896e-06
1.83896e-06
1.84676e-06
1.84648e-06
1.84647e-06
1.84333e-06
1.83896e-06
1.83896e-06
1.83896e-06
1.83896e-06
1.83896e-06
1.83896e-06
1.84648e-06
1.84415e-06
1.8438e-06
1.83896e-06
1.83896e-06
1.83896e-06
1.83896e-06
1.83896e-06
1.83896e-06
1.84674e-06
1.84705e-06
1.84703e-06
1.84486e-06
1.83896e-06
1.83896e-06
1.83896e-06
1.83896e-06
1.84695e-06
1.8457e-06
1.84737e-06
1.84676e-06
1.84475e-06
1.8465e-06
1.84677e-06
1.84649e-06
1.84676e-06
1.84569e-06
1.84733e-06
1.84761e-06
1.84649e-06
1.84417e-06
1.84705e-06
1.84737e-06
1.82449e-06
1.82449e-06
1.82418e-06
1.82166e-06
1.82161e-06
1.82135e-06
1.82181e-06
1.82505e-06
1.82479e-06
1.8242e-06
1.82014e-06
1.81699e-06
1.81698e-06
1.81699e-06
1.81699e-06
1.82289e-06
1.82278e-06
1.82165e-06
1.81699e-06
1.81699e-06
1.81699e-06
1.81699e-06
1.81699e-06
1.81699e-06
1.82452e-06
1.82563e-06
1.82453e-06
1.82162e-06
1.81699e-06
1.81699e-06
1.81699e-06
1.81699e-06
1.81699e-06
1.81699e-06
1.82478e-06
1.82451e-06
1.82449e-06
1.82135e-06
1.81699e-06
1.81699e-06
1.81699e-06
1.81699e-06
1.81699e-06
1.81699e-06
1.82451e-06
1.82217e-06
1.82182e-06
1.81699e-06
1.81699e-06
1.81699e-06
1.81699e-06
1.81699e-06
1.81699e-06
1.82476e-06
1.82507e-06
1.82505e-06
1.82288e-06
1.81699e-06
1.81699e-06
1.81699e-06
1.81699e-06
1.82498e-06
1.82372e-06
1.82539e-06
1.82478e-06
1.82278e-06
1.82452e-06
1.82479e-06
1.82452e-06
1.82478e-06
1.82371e-06
1.82536e-06
1.82563e-06
1.82451e-06
1.82219e-06
1.82508e-06
1.82539e-06
1.80251e-06
1.80251e-06
1.80221e-06
1.79968e-06
1.79963e-06
1.79937e-06
1.79984e-06
1.80306e-06
1.80281e-06
1.80222e-06
1.79816e-06
1.79501e-06
1.79501e-06
1.79501e-06
1.79501e-06
1.80091e-06
1.8008e-06
1.79967e-06
1.79501e-06
1.79501e-06
1.79501e-06
1.79501e-06
1.79501e-06
1.79501e-06
1.80254e-06
1.80365e-06
1.80256e-06
1.79964e-06
1.79501e-06
1.79501e-06
1.79501e-06
1.79501e-06
1.79501e-06
1.79501e-06
1.8028e-06
1.80253e-06
1.80252e-06
1.79937e-06
1.79501e-06
1.79501e-06
1.79501e-06
1.79501e-06
1.79501e-06
1.79501e-06
1.80253e-06
1.8002e-06
1.79984e-06
1.79501e-06
1.79501e-06
1.79501e-06
1.79501e-06
1.79501e-06
1.79501e-06
1.80279e-06
1.80309e-06
1.80307e-06
1.80091e-06
1.79501e-06
1.79501e-06
1.79501e-06
1.79501e-06
1.803e-06
1.80174e-06
1.80341e-06
1.8028e-06
1.8008e-06
1.80255e-06
1.80282e-06
1.80254e-06
1.80281e-06
1.80173e-06
1.80338e-06
1.80366e-06
1.80254e-06
1.80021e-06
1.8031e-06
1.80341e-06
1.78053e-06
1.78053e-06
1.78023e-06
1.7777e-06
1.77766e-06
1.77739e-06
1.77786e-06
1.78109e-06
1.78083e-06
1.78024e-06
1.77618e-06
1.77302e-06
1.77303e-06
1.77303e-06
1.77303e-06
1.77893e-06
1.77883e-06
1.7777e-06
1.77303e-06
1.77303e-06
1.77303e-06
1.77303e-06
1.77303e-06
1.77303e-06
1.78056e-06
1.78167e-06
1.78058e-06
1.77766e-06
1.77303e-06
1.77303e-06
1.77303e-06
1.77303e-06
1.77303e-06
1.77303e-06
1.78082e-06
1.78055e-06
1.78054e-06
1.77739e-06
1.77303e-06
1.77303e-06
1.77303e-06
1.77303e-06
1.77303e-06
1.77303e-06
1.78055e-06
1.77822e-06
1.77787e-06
1.77303e-06
1.77303e-06
1.77303e-06
1.77303e-06
1.77303e-06
1.77303e-06
1.78081e-06
1.78111e-06
1.7811e-06
1.77893e-06
1.77303e-06
1.77303e-06
1.77303e-06
1.77303e-06
1.78102e-06
1.77976e-06
1.78143e-06
1.78082e-06
1.77882e-06
1.78057e-06
1.78084e-06
1.78056e-06
1.78083e-06
1.77975e-06
1.7814e-06
1.78168e-06
1.78056e-06
1.77822e-06
1.78112e-06
1.78143e-06
1.75855e-06
1.75856e-06
1.75825e-06
1.75573e-06
1.75568e-06
1.75541e-06
1.75589e-06
1.75911e-06
1.75885e-06
1.75826e-06
1.7542e-06
1.75105e-06
1.75105e-06
1.75105e-06
1.75105e-06
1.75696e-06
1.75685e-06
1.75572e-06
1.75105e-06
1.75105e-06
1.75105e-06
1.75105e-06
1.75105e-06
1.75105e-06
1.75858e-06
1.7597e-06
1.7586e-06
1.75569e-06
1.75105e-06
1.75105e-06
1.75105e-06
1.75105e-06
1.75105e-06
1.75105e-06
1.75885e-06
1.75857e-06
1.75856e-06
1.75542e-06
1.75105e-06
1.75105e-06
1.75105e-06
1.75105e-06
1.75105e-06
1.75105e-06
1.75857e-06
1.75624e-06
1.75589e-06
1.75105e-06
1.75105e-06
1.75105e-06
1.75105e-06
1.75105e-06
1.75105e-06
1.75883e-06
1.75914e-06
1.75912e-06
1.75695e-06
1.75105e-06
1.75105e-06
1.75105e-06
1.75105e-06
1.75904e-06
1.75779e-06
1.75945e-06
1.75885e-06
1.75684e-06
1.75859e-06
1.75886e-06
1.75858e-06
1.75885e-06
1.75778e-06
1.75942e-06
1.7597e-06
1.75858e-06
1.75626e-06
1.75914e-06
1.75945e-06
1.73657e-06
1.73658e-06
1.73627e-06
1.73375e-06
1.7337e-06
1.73344e-06
1.73391e-06
1.73713e-06
1.73688e-06
1.73629e-06
1.73223e-06
1.72907e-06
1.72907e-06
1.72907e-06
1.72907e-06
1.73498e-06
1.73487e-06
1.73374e-06
1.72907e-06
1.72907e-06
1.72907e-06
1.72907e-06
1.72907e-06
1.72908e-06
1.73661e-06
1.73772e-06
1.73662e-06
1.73371e-06
1.72907e-06
1.72907e-06
1.72907e-06
1.72908e-06
1.72908e-06
1.72908e-06
1.73687e-06
1.73659e-06
1.73658e-06
1.73344e-06
1.72908e-06
1.72908e-06
1.72907e-06
1.72908e-06
1.72908e-06
1.72908e-06
1.7366e-06
1.73426e-06
1.73391e-06
1.72907e-06
1.72908e-06
1.72907e-06
1.72908e-06
1.72908e-06
1.72908e-06
1.73685e-06
1.73716e-06
1.73714e-06
1.73497e-06
1.72908e-06
1.72907e-06
1.72908e-06
1.72908e-06
1.73707e-06
1.73581e-06
1.73748e-06
1.73687e-06
1.73487e-06
1.73661e-06
1.73688e-06
1.7366e-06
1.73687e-06
1.7358e-06
1.73745e-06
1.73772e-06
1.7366e-06
1.73428e-06
1.73717e-06
1.73748e-06
1.7146e-06
1.71461e-06
1.7143e-06
1.71178e-06
1.71173e-06
1.71146e-06
1.71193e-06
1.71516e-06
1.7149e-06
1.71431e-06
1.71025e-06
1.7071e-06
1.7071e-06
1.7071e-06
1.7071e-06
1.71301e-06
1.7129e-06
1.71176e-06
1.7071e-06
1.7071e-06
1.7071e-06
1.7071e-06
1.7071e-06
1.7071e-06
1.71463e-06
1.71574e-06
1.71465e-06
1.71173e-06
1.7071e-06
1.7071e-06
1.7071e-06
1.7071e-06
1.7071e-06
1.7071e-06
1.71489e-06
1.71462e-06
1.71461e-06
1.71146e-06
1.7071e-06
1.7071e-06
1.7071e-06
1.7071e-06
1.7071e-06
1.7071e-06
1.71462e-06
1.71229e-06
1.71194e-06
1.7071e-06
1.7071e-06
1.7071e-06
1.7071e-06
1.7071e-06
1.7071e-06
1.71488e-06
1.71518e-06
1.71517e-06
1.713e-06
1.7071e-06
1.7071e-06
1.7071e-06
1.7071e-06
1.71509e-06
1.71383e-06
1.7155e-06
1.71489e-06
1.71289e-06
1.71464e-06
1.71491e-06
1.71463e-06
1.7149e-06
1.71382e-06
1.71547e-06
1.71575e-06
1.71463e-06
1.71231e-06
1.71519e-06
1.7155e-06
1.69262e-06
1.69263e-06
1.69232e-06
1.6898e-06
1.68975e-06
1.68949e-06
1.68996e-06
1.69318e-06
1.69293e-06
1.69234e-06
1.68828e-06
1.68512e-06
1.68512e-06
1.68512e-06
1.68512e-06
1.69103e-06
1.69092e-06
1.68979e-06
1.68512e-06
1.68512e-06
1.68512e-06
1.68512e-06
1.68512e-06
1.68512e-06
1.69266e-06
1.69377e-06
1.69267e-06
1.68976e-06
1.68512e-06
1.68512e-06
1.68512e-06
1.68512e-06
1.68512e-06
1.68512e-06
1.69292e-06
1.69264e-06
1.69263e-06
1.68949e-06
1.68512e-06
1.68512e-06
1.68512e-06
1.68512e-06
1.68512e-06
1.68512e-06
1.69264e-06
1.69031e-06
1.68996e-06
1.68512e-06
1.68512e-06
1.68512e-06
1.68512e-06
1.68512e-06
1.68512e-06
1.6929e-06
1.69321e-06
1.69319e-06
1.69102e-06
1.68513e-06
1.68513e-06
1.68513e-06
1.68513e-06
1.69311e-06
1.69186e-06
1.69353e-06
1.69292e-06
1.69092e-06
1.69266e-06
1.69293e-06
1.69265e-06
1.69292e-06
1.69185e-06
1.6935e-06
1.69377e-06
1.69265e-06
1.69033e-06
1.69322e-06
1.69353e-06
1.67065e-06
1.67066e-06
1.67035e-06
1.66782e-06
1.66778e-06
1.66751e-06
1.66799e-06
1.6712e-06
1.67095e-06
1.67036e-06
1.66631e-06
1.66315e-06
1.66315e-06
1.66315e-06
1.66315e-06
1.66906e-06
1.66895e-06
1.66782e-06
1.66315e-06
1.66315e-06
1.66315e-06
1.66315e-06
1.66315e-06
1.66315e-06
1.67068e-06
1.67179e-06
1.6707e-06
1.66779e-06
1.66315e-06
1.66315e-06
1.66315e-06
1.66315e-06
1.66315e-06
1.66315e-06
1.67094e-06
1.67067e-06
1.67066e-06
1.66752e-06
1.66315e-06
1.66315e-06
1.66315e-06
1.66315e-06
1.66315e-06
1.66315e-06
1.67067e-06
1.66834e-06
1.66799e-06
1.66315e-06
1.66315e-06
1.66315e-06
1.66315e-06
1.66315e-06
1.66315e-06
1.67093e-06
1.67124e-06
1.67122e-06
1.66905e-06
1.66315e-06
1.66315e-06
1.66315e-06
1.66315e-06
1.67114e-06
1.66988e-06
1.67155e-06
1.67094e-06
1.66894e-06
1.67069e-06
1.67095e-06
1.67068e-06
1.67095e-06
1.66987e-06
1.67152e-06
1.6718e-06
1.67068e-06
1.66835e-06
1.67124e-06
1.67155e-06
1.64867e-06
1.64868e-06
1.64837e-06
1.64585e-06
1.6458e-06
1.64554e-06
1.64601e-06
1.64922e-06
1.64898e-06
1.64839e-06
1.64433e-06
1.64117e-06
1.64117e-06
1.64117e-06
1.64117e-06
1.64708e-06
1.64697e-06
1.64584e-06
1.64117e-06
1.64117e-06
1.64117e-06
1.64117e-06
1.64117e-06
1.64117e-06
1.64871e-06
1.64982e-06
1.64872e-06
1.64581e-06
1.64117e-06
1.64117e-06
1.64117e-06
1.64117e-06
1.64117e-06
1.64117e-06
1.64897e-06
1.64869e-06
1.64868e-06
1.64554e-06
1.64117e-06
1.64117e-06
1.64117e-06
1.64117e-06
1.64117e-06
1.64117e-06
1.64869e-06
1.64636e-06
1.64601e-06
1.64117e-06
1.64117e-06
1.64117e-06
1.64117e-06
1.64117e-06
1.64117e-06
1.64895e-06
1.64926e-06
1.64924e-06
1.64707e-06
1.64117e-06
1.64117e-06
1.64117e-06
1.64117e-06
1.64916e-06
1.64791e-06
1.64958e-06
1.64897e-06
1.64697e-06
1.64871e-06
1.64898e-06
1.6487e-06
1.64897e-06
1.6479e-06
1.64955e-06
1.64982e-06
1.6487e-06
1.64638e-06
1.64927e-06
1.64958e-06
1.6267e-06
1.6267e-06
1.6264e-06
1.62387e-06
1.62382e-06
1.62356e-06
1.62403e-06
1.62725e-06
1.627e-06
1.62641e-06
1.62235e-06
1.6192e-06
1.6192e-06
1.6192e-06
1.6192e-06
1.6251e-06
1.62499e-06
1.62386e-06
1.6192e-06
1.6192e-06
1.6192e-06
1.6192e-06
1.6192e-06
1.6192e-06
1.62673e-06
1.62784e-06
1.62674e-06
1.62383e-06
1.6192e-06
1.6192e-06
1.6192e-06
1.6192e-06
1.6192e-06
1.6192e-06
1.62699e-06
1.62672e-06
1.6267e-06
1.62356e-06
1.6192e-06
1.6192e-06
1.6192e-06
1.6192e-06
1.6192e-06
1.6192e-06
1.62672e-06
1.62439e-06
1.62403e-06
1.6192e-06
1.6192e-06
1.6192e-06
1.6192e-06
1.6192e-06
1.6192e-06
1.62698e-06
1.62728e-06
1.62726e-06
1.6251e-06
1.6192e-06
1.6192e-06
1.6192e-06
1.6192e-06
1.62719e-06
1.62593e-06
1.6276e-06
1.62699e-06
1.62499e-06
1.62673e-06
1.627e-06
1.62672e-06
1.62699e-06
1.62592e-06
1.62757e-06
1.62784e-06
1.62672e-06
1.6244e-06
1.62729e-06
1.6276e-06
1.60472e-06
1.60473e-06
1.60442e-06
1.60189e-06
1.60185e-06
1.60158e-06
1.60206e-06
1.60527e-06
1.60502e-06
1.60443e-06
1.60037e-06
1.59722e-06
1.59722e-06
1.59722e-06
1.59722e-06
1.60313e-06
1.60302e-06
1.60189e-06
1.59722e-06
1.59722e-06
1.59722e-06
1.59722e-06
1.59722e-06
1.59722e-06
1.60475e-06
1.60587e-06
1.60477e-06
1.60186e-06
1.59722e-06
1.59722e-06
1.59722e-06
1.59722e-06
1.59722e-06
1.59722e-06
1.60501e-06
1.60474e-06
1.60473e-06
1.60159e-06
1.59722e-06
1.59722e-06
1.59722e-06
1.59722e-06
1.59722e-06
1.59722e-06
1.60474e-06
1.60241e-06
1.60206e-06
1.59722e-06
1.59722e-06
1.59722e-06
1.59722e-06
1.59722e-06
1.59722e-06
1.605e-06
1.60531e-06
1.60529e-06
1.60312e-06
1.59722e-06
1.59722e-06
1.59722e-06
1.59722e-06
1.60521e-06
1.60395e-06
1.60562e-06
1.60501e-06
1.60301e-06
1.60476e-06
1.60503e-06
1.60475e-06
1.60502e-06
1.60394e-06
1.60559e-06
1.60587e-06
1.60475e-06
1.60242e-06
1.60531e-06
1.60562e-06
1.58274e-06
1.58274e-06
1.58244e-06
1.57992e-06
1.57987e-06
1.5796e-06
1.58008e-06
1.58329e-06
1.58303e-06
1.58246e-06
1.5784e-06
1.57524e-06
1.57524e-06
1.57524e-06
1.57524e-06
1.58115e-06
1.58104e-06
1.57991e-06
1.57524e-06
1.57524e-06
1.57524e-06
1.57524e-06
1.57524e-06
1.57524e-06
1.58278e-06
1.58389e-06
1.58279e-06
1.57988e-06
1.57524e-06
1.57524e-06
1.57524e-06
1.57524e-06
1.57524e-06
1.57524e-06
1.58304e-06
1.58276e-06
1.58275e-06
1.57961e-06
1.57524e-06
1.57524e-06
1.57524e-06
1.57524e-06
1.57524e-06
1.57524e-06
1.58276e-06
1.58043e-06
1.58008e-06
1.57524e-06
1.57524e-06
1.57524e-06
1.57524e-06
1.57524e-06
1.57524e-06
1.58302e-06
1.58333e-06
1.58331e-06
1.58114e-06
1.57524e-06
1.57524e-06
1.57524e-06
1.57524e-06
1.58323e-06
1.58198e-06
1.58365e-06
1.58304e-06
1.58103e-06
1.58278e-06
1.58305e-06
1.58277e-06
1.58304e-06
1.58197e-06
1.58361e-06
1.58389e-06
1.58277e-06
1.58045e-06
1.58333e-06
1.58364e-06
1.56077e-06
1.56077e-06
1.56046e-06
1.55794e-06
1.55789e-06
1.55763e-06
1.5581e-06
1.56132e-06
1.56107e-06
1.56049e-06
1.55642e-06
1.55327e-06
1.55327e-06
1.55327e-06
1.55327e-06
1.55917e-06
1.55906e-06
1.55793e-06
1.55327e-06
1.55327e-06
1.55327e-06
1.55327e-06
1.55327e-06
1.55327e-06
1.5608e-06
1.56191e-06
1.5608e-06
1.5579e-06
1.55327e-06
1.55327e-06
1.55327e-06
1.55327e-06
1.55327e-06
1.55327e-06
1.56106e-06
1.56078e-06
1.56077e-06
1.55763e-06
1.55327e-06
1.55327e-06
1.55327e-06
1.55327e-06
1.55327e-06
1.55327e-06
1.56079e-06
1.55845e-06
1.5581e-06
1.55327e-06
1.55327e-06
1.55327e-06
1.55327e-06
1.55327e-06
1.55327e-06
1.56104e-06
1.56135e-06
1.56133e-06
1.55916e-06
1.55327e-06
1.55327e-06
1.55327e-06
1.55327e-06
1.56126e-06
1.56e-06
1.56167e-06
1.56106e-06
1.55906e-06
1.5608e-06
1.56107e-06
1.56079e-06
1.56106e-06
1.55999e-06
1.56164e-06
1.56191e-06
1.56079e-06
1.55847e-06
1.56136e-06
1.56167e-06
1.53879e-06
1.5388e-06
1.53849e-06
1.53597e-06
1.53592e-06
1.53565e-06
1.53612e-06
1.53934e-06
1.53909e-06
1.5385e-06
1.53444e-06
1.53129e-06
1.53129e-06
1.53129e-06
1.53129e-06
1.53719e-06
1.53709e-06
1.53595e-06
1.53129e-06
1.53129e-06
1.53129e-06
1.53129e-06
1.53129e-06
1.53129e-06
1.53882e-06
1.53993e-06
1.53884e-06
1.53592e-06
1.53129e-06
1.53129e-06
1.53129e-06
1.53129e-06
1.53129e-06
1.53129e-06
1.53908e-06
1.53881e-06
1.5388e-06
1.53565e-06
1.53129e-06
1.53129e-06
1.53129e-06
1.53129e-06
1.53129e-06
1.53129e-06
1.53881e-06
1.53648e-06
1.53613e-06
1.53129e-06
1.53129e-06
1.53129e-06
1.53129e-06
1.53129e-06
1.53129e-06
1.53907e-06
1.53937e-06
1.53936e-06
1.53719e-06
1.53129e-06
1.53129e-06
1.53129e-06
1.53129e-06
1.53928e-06
1.53802e-06
1.53969e-06
1.53908e-06
1.53708e-06
1.53883e-06
1.53909e-06
1.53882e-06
1.53909e-06
1.53801e-06
1.53966e-06
1.53994e-06
1.53882e-06
1.53649e-06
1.53938e-06
1.53969e-06
1.51681e-06
1.51682e-06
1.51651e-06
1.51399e-06
1.51394e-06
1.51367e-06
1.51415e-06
1.51737e-06
1.51712e-06
1.51653e-06
1.51247e-06
1.50931e-06
1.50931e-06
1.50931e-06
1.50931e-06
1.51522e-06
1.51511e-06
1.51398e-06
1.50931e-06
1.50931e-06
1.50931e-06
1.50931e-06
1.50931e-06
1.50931e-06
1.51684e-06
1.51796e-06
1.51686e-06
1.51395e-06
1.50931e-06
1.50931e-06
1.50931e-06
1.50931e-06
1.50931e-06
1.50931e-06
1.51711e-06
1.51683e-06
1.51682e-06
1.51368e-06
1.50931e-06
1.50931e-06
1.50931e-06
1.50931e-06
1.50931e-06
1.50931e-06
1.51683e-06
1.5145e-06
1.51415e-06
1.50931e-06
1.50931e-06
1.50931e-06
1.50931e-06
1.50931e-06
1.50931e-06
1.51709e-06
1.5174e-06
1.51738e-06
1.51521e-06
1.50931e-06
1.50931e-06
1.50931e-06
1.50931e-06
1.5173e-06
1.51605e-06
1.51772e-06
1.51711e-06
1.5151e-06
1.51685e-06
1.51712e-06
1.51684e-06
1.51711e-06
1.51604e-06
1.51768e-06
1.51796e-06
1.51684e-06
1.51452e-06
1.5174e-06
1.51771e-06
1.49484e-06
1.49484e-06
1.49453e-06
1.49201e-06
1.49196e-06
1.4917e-06
1.49217e-06
1.4954e-06
1.49514e-06
1.49455e-06
1.49049e-06
1.48733e-06
1.48734e-06
1.48733e-06
1.48734e-06
1.49324e-06
1.49313e-06
1.492e-06
1.48734e-06
1.48734e-06
1.48734e-06
1.48734e-06
1.48734e-06
1.48734e-06
1.49487e-06
1.49598e-06
1.49488e-06
1.49197e-06
1.48734e-06
1.48734e-06
1.48734e-06
1.48734e-06
1.48734e-06
1.48734e-06
1.49513e-06
1.49486e-06
1.49484e-06
1.4917e-06
1.48734e-06
1.48734e-06
1.48734e-06
1.48734e-06
1.48734e-06
1.48734e-06
1.49486e-06
1.49252e-06
1.49217e-06
1.48734e-06
1.48734e-06
1.48734e-06
1.48734e-06
1.48734e-06
1.48734e-06
1.49512e-06
1.49542e-06
1.4954e-06
1.49323e-06
1.48734e-06
1.48734e-06
1.48734e-06
1.48734e-06
1.49533e-06
1.49407e-06
1.49574e-06
1.49513e-06
1.49313e-06
1.49487e-06
1.49514e-06
1.49486e-06
1.49513e-06
1.49406e-06
1.49571e-06
1.49598e-06
1.49486e-06
1.49254e-06
1.49543e-06
1.49574e-06
1.47286e-06
1.47287e-06
1.47255e-06
1.47003e-06
1.46999e-06
1.46972e-06
1.47019e-06
1.47342e-06
1.47316e-06
1.47257e-06
1.46851e-06
1.46536e-06
1.46536e-06
1.46536e-06
1.46536e-06
1.47126e-06
1.47116e-06
1.47002e-06
1.46536e-06
1.46536e-06
1.46536e-06
1.46536e-06
1.46536e-06
1.46536e-06
1.47289e-06
1.47401e-06
1.47291e-06
1.46999e-06
1.46536e-06
1.46536e-06
1.46536e-06
1.46536e-06
1.46536e-06
1.46536e-06
1.47316e-06
1.47288e-06
1.47287e-06
1.46972e-06
1.46536e-06
1.46536e-06
1.46536e-06
1.46536e-06
1.46536e-06
1.46536e-06
1.47288e-06
1.47055e-06
1.4702e-06
1.46536e-06
1.46536e-06
1.46536e-06
1.46536e-06
1.46536e-06
1.46536e-06
1.47314e-06
1.47345e-06
1.47343e-06
1.47126e-06
1.46536e-06
1.46536e-06
1.46536e-06
1.46536e-06
1.47335e-06
1.47209e-06
1.47376e-06
1.47315e-06
1.47115e-06
1.4729e-06
1.47317e-06
1.47289e-06
1.47316e-06
1.47208e-06
1.47373e-06
1.47401e-06
1.47289e-06
1.47056e-06
1.47345e-06
1.47376e-06
1.45088e-06
1.45089e-06
1.45058e-06
1.44806e-06
1.44801e-06
1.44774e-06
1.44822e-06
1.45144e-06
1.45118e-06
1.45059e-06
1.44654e-06
1.44338e-06
1.44338e-06
1.44338e-06
1.44338e-06
1.44929e-06
1.44918e-06
1.44805e-06
1.44338e-06
1.44338e-06
1.44338e-06
1.44338e-06
1.44338e-06
1.44338e-06
1.45091e-06
1.45203e-06
1.45093e-06
1.44802e-06
1.44338e-06
1.44338e-06
1.44338e-06
1.44338e-06
1.44338e-06
1.44338e-06
1.45118e-06
1.4509e-06
1.45089e-06
1.44775e-06
1.44338e-06
1.44338e-06
1.44338e-06
1.44338e-06
1.44338e-06
1.44338e-06
1.4509e-06
1.44857e-06
1.44822e-06
1.44338e-06
1.44338e-06
1.44338e-06
1.44338e-06
1.44338e-06
1.44338e-06
1.45116e-06
1.45147e-06
1.45145e-06
1.44928e-06
1.44338e-06
1.44338e-06
1.44338e-06
1.44338e-06
1.45137e-06
1.45012e-06
1.45179e-06
1.45118e-06
1.44917e-06
1.45092e-06
1.45119e-06
1.45091e-06
1.45118e-06
1.45011e-06
1.45175e-06
1.45203e-06
1.45091e-06
1.44858e-06
1.45147e-06
1.45178e-06
1.4289e-06
1.42891e-06
1.4286e-06
1.42608e-06
1.42603e-06
1.42577e-06
1.42624e-06
1.42947e-06
1.4292e-06
1.42862e-06
1.42456e-06
1.4214e-06
1.4214e-06
1.4214e-06
1.4214e-06
1.42731e-06
1.4272e-06
1.42607e-06
1.4214e-06
1.4214e-06
1.4214e-06
1.4214e-06
1.4214e-06
1.4214e-06
1.42894e-06
1.43005e-06
1.42895e-06
1.42604e-06
1.4214e-06
1.4214e-06
1.4214e-06
1.4214e-06
1.4214e-06
1.4214e-06
1.4292e-06
1.42892e-06
1.42891e-06
1.42577e-06
1.4214e-06
1.4214e-06
1.4214e-06
1.4214e-06
1.4214e-06
1.4214e-06
1.42893e-06
1.42659e-06
1.42624e-06
1.4214e-06
1.4214e-06
1.4214e-06
1.4214e-06
1.4214e-06
1.4214e-06
1.42918e-06
1.42949e-06
1.42947e-06
1.4273e-06
1.4214e-06
1.4214e-06
1.4214e-06
1.4214e-06
1.4294e-06
1.42814e-06
1.42981e-06
1.4292e-06
1.4272e-06