/*--------------------------------*- C++ -*----------------------------------*\
| =========                 |                                                 |
| \\      /  F ield         | OpenFOAM: The Open Source CFD Toolbox           |
|  \\    /   O peration     | Version:  v2012                                 |
|   \\  /    A nd           | Website:  www.openfoam.com                      |
|    \\/     M anipulation  |                                                 |
\*---------------------------------------------------------------------------*/
FoamFile
{
    version     2.0;
    format      ascii;
    class       volScalarField;
    location    "875";
    object      epsilon;
}
// * * * * * * * * * * * * * * * * * * * * * * * * * * * * * * * * * * * * * //

dimensions      [0 2 -3 0 0 0 0];


internalField   nonuniform List<scalar> 
171728
(
4.95567e-07
4.9733e-07
4.9733e-07
4.99575e-07
4.45573e-07
4.53735e-07
4.53737e-07
4.6371e-07
4.03752e-07
4.18513e-07
4.18517e-07
4.39411e-07
3.68363e-07
3.88552e-07
3.88558e-07
4.17667e-07
3.38015e-07
3.62102e-07
3.6211e-07
3.96081e-07
3.11646e-07
3.38273e-07
3.38281e-07
3.74581e-07
2.88473e-07
3.16638e-07
3.16646e-07
3.5371e-07
2.67923e-07
2.97021e-07
2.97031e-07
3.34148e-07
2.4958e-07
2.7937e-07
2.79379e-07
3.16484e-07
2.33137e-07
2.63679e-07
2.63688e-07
3.01162e-07
2.18366e-07
2.49955e-07
2.49964e-07
2.88497e-07
2.0509e-07
2.382e-07
2.38209e-07
2.78699e-07
1.93172e-07
2.28412e-07
2.28423e-07
2.71882e-07
1.82498e-07
2.20603e-07
2.20614e-07
2.68176e-07
1.72979e-07
2.14775e-07
2.14787e-07
2.67653e-07
1.64541e-07
2.10941e-07
2.10955e-07
2.70518e-07
1.57122e-07
2.09109e-07
2.0913e-07
2.76729e-07
1.50668e-07
2.09298e-07
2.09323e-07
2.8631e-07
1.45137e-07
2.1155e-07
2.11577e-07
2.99188e-07
1.40492e-07
2.15895e-07
2.15917e-07
3.15614e-07
1.36703e-07
2.22331e-07
2.22363e-07
3.35398e-07
1.33748e-07
2.30882e-07
2.30931e-07
3.58459e-07
1.31605e-07
2.41549e-07
2.41597e-07
3.84541e-07
1.30258e-07
2.54309e-07
2.54346e-07
4.13517e-07
1.29695e-07
2.69097e-07
2.69145e-07
4.44996e-07
1.29921e-07
2.85868e-07
2.85918e-07
4.78602e-07
1.3091e-07
3.04525e-07
3.04579e-07
5.14027e-07
1.32666e-07
3.24976e-07
3.25045e-07
5.50641e-07
1.35188e-07
3.47087e-07
3.47151e-07
5.87992e-07
1.38479e-07
3.70721e-07
3.708e-07
6.25784e-07
1.42541e-07
3.95757e-07
3.95831e-07
6.63575e-07
1.47379e-07
4.22007e-07
4.22088e-07
7.01019e-07
1.52997e-07
4.49315e-07
4.49401e-07
7.37888e-07
1.59403e-07
4.7752e-07
4.7761e-07
7.7393e-07
1.666e-07
5.06438e-07
5.06531e-07
8.09002e-07
1.74591e-07
5.3589e-07
5.35987e-07
8.42952e-07
1.83376e-07
5.65705e-07
5.65805e-07
8.75764e-07
1.92951e-07
5.95707e-07
5.9581e-07
9.07386e-07
2.03307e-07
6.25726e-07
6.25833e-07
9.37809e-07
2.14427e-07
6.55604e-07
6.55712e-07
9.67016e-07
2.2629e-07
6.85189e-07
6.85301e-07
9.95023e-07
2.38869e-07
7.14347e-07
7.14461e-07
1.02184e-06
2.52129e-07
7.42957e-07
7.43073e-07
1.04751e-06
2.66025e-07
7.70906e-07
7.71024e-07
1.07205e-06
2.80509e-07
7.98103e-07
7.9822e-07
1.0955e-06
2.9552e-07
8.24461e-07
8.24578e-07
1.11789e-06
3.10994e-07
8.49921e-07
8.50036e-07
1.13926e-06
3.26857e-07
8.74429e-07
8.74543e-07
1.15963e-06
3.43035e-07
8.97949e-07
8.9806e-07
1.17903e-06
3.59445e-07
9.20458e-07
9.20567e-07
1.19749e-06
3.76011e-07
9.41942e-07
9.42049e-07
1.21504e-06
3.92645e-07
9.62403e-07
9.62508e-07
1.23171e-06
4.09272e-07
9.81856e-07
9.81959e-07
1.24752e-06
4.25818e-07
1.00032e-06
1.00042e-06
1.26253e-06
4.42181e-07
1.01775e-06
1.01785e-06
1.2767e-06
4.58321e-07
1.03424e-06
1.03433e-06
1.29012e-06
4.74164e-07
1.04975e-06
1.04985e-06
1.30278e-06
4.89644e-07
1.06434e-06
1.06443e-06
1.31472e-06
5.0471e-07
1.07802e-06
1.0781e-06
1.32596e-06
5.19324e-07
1.0908e-06
1.09089e-06
1.33652e-06
5.33432e-07
1.10271e-06
1.1028e-06
1.34639e-06
5.47015e-07
1.11381e-06
1.11389e-06
1.35565e-06
5.60013e-07
1.12407e-06
1.12415e-06
1.36426e-06
5.72415e-07
1.13355e-06
1.13363e-06
1.37228e-06
5.84241e-07
1.14232e-06
1.1424e-06
1.37974e-06
5.95413e-07
1.1503e-06
1.15038e-06
1.3866e-06
6.05959e-07
1.1576e-06
1.15768e-06
1.39292e-06
6.15845e-07
1.1642e-06
1.16427e-06
1.39869e-06
6.25106e-07
1.17014e-06
1.17021e-06
1.40391e-06
6.33699e-07
1.17542e-06
1.17549e-06
1.40865e-06
6.41637e-07
1.18007e-06
1.18014e-06
1.41285e-06
6.49056e-07
1.18427e-06
1.18433e-06
1.41673e-06
6.55721e-07
1.1877e-06
1.18777e-06
1.41998e-06
6.61733e-07
1.19061e-06
1.19069e-06
1.42273e-06
6.67256e-07
1.19303e-06
1.19309e-06
1.42514e-06
6.72235e-07
1.19502e-06
1.19508e-06
1.42712e-06
6.76374e-07
1.19623e-06
1.19635e-06
1.42862e-06
6.80222e-07
1.19736e-06
1.19734e-06
1.42976e-06
6.83578e-07
1.19784e-06
1.19798e-06
1.43069e-06
6.86165e-07
1.19778e-06
1.19779e-06
1.43083e-06
6.88348e-07
1.19741e-06
1.1974e-06
1.43092e-06
6.90072e-07
1.19652e-06
1.19679e-06
1.43045e-06
6.9186e-07
1.19596e-06
1.19599e-06
1.4303e-06
6.93165e-07
1.19527e-06
1.19527e-06
1.43032e-06
6.92627e-07
1.19193e-06
1.1918e-06
1.42735e-06
6.91964e-07
1.18876e-06
1.18888e-06
1.4241e-06
6.93436e-07
1.18798e-06
1.18908e-06
1.42521e-06
6.94449e-07
1.1881e-06
1.18842e-06
1.42527e-06
6.91591e-07
1.18428e-06
1.18153e-06
1.41968e-06
6.85232e-07
1.17042e-06
1.17161e-06
1.40973e-06
6.91035e-07
1.17621e-06
1.18064e-06
1.41724e-06
7.05611e-07
1.20096e-06
1.20047e-06
1.44169e-06
6.90503e-07
1.17465e-06
1.17192e-06
1.42134e-06
6.49242e-07
1.10925e-06
1.10996e-06
1.35298e-06
6.35808e-07
1.06299e-06
1.06451e-06
1.30686e-06
5.06417e-07
5.05584e-07
5.05582e-07
5.06417e-07
5.05583e-07
5.05582e-07
5.09649e-07
5.09649e-07
5.09649e-07
5.09649e-07
5.05584e-07
5.05584e-07
5.06418e-07
5.05584e-07
5.05583e-07
5.06418e-07
4.99575e-07
4.67237e-07
4.97331e-07
4.97335e-07
4.63713e-07
4.63721e-07
4.99575e-07
4.67235e-07
4.97335e-07
4.97336e-07
4.63718e-07
4.63724e-07
4.97332e-07
4.63709e-07
4.63714e-07
4.99575e-07
4.67241e-07
4.97334e-07
4.6371e-07
4.63719e-07
4.6724e-07
4.63709e-07
4.41426e-07
4.5374e-07
4.53748e-07
4.26738e-07
4.26747e-07
4.63708e-07
4.4142e-07
4.53744e-07
4.53751e-07
4.26739e-07
4.26751e-07
4.53741e-07
4.26729e-07
4.26741e-07
4.63711e-07
4.41431e-07
4.53744e-07
4.26734e-07
4.26741e-07
4.41429e-07
4.39407e-07
4.19283e-07
4.18522e-07
4.1853e-07
3.95676e-07
3.95682e-07
4.39405e-07
4.19275e-07
4.18522e-07
4.18535e-07
3.95672e-07
3.95689e-07
4.18525e-07
3.95663e-07
3.95679e-07
4.39413e-07
4.19289e-07
4.18523e-07
3.95669e-07
3.95673e-07
4.19287e-07
4.17662e-07
3.97645e-07
3.88566e-07
3.88571e-07
3.68461e-07
3.68466e-07
4.17656e-07
3.97636e-07
3.8856e-07
3.88578e-07
3.68452e-07
3.68473e-07
3.88569e-07
3.68444e-07
3.68464e-07
4.17669e-07
3.97651e-07
3.88562e-07
3.68452e-07
3.68454e-07
3.97649e-07
3.96076e-07
3.76085e-07
3.6212e-07
3.62124e-07
3.44033e-07
3.44036e-07
3.96069e-07
3.76075e-07
3.62109e-07
3.62131e-07
3.4402e-07
3.44043e-07
3.62123e-07
3.44013e-07
3.44036e-07
3.96082e-07
3.76091e-07
3.62111e-07
3.44022e-07
3.44021e-07
3.7609e-07
3.74575e-07
3.55111e-07
3.38293e-07
3.38295e-07
3.21875e-07
3.21876e-07
3.74568e-07
3.55101e-07
3.38279e-07
3.38303e-07
3.21858e-07
3.21884e-07
3.38296e-07
3.21853e-07
3.21877e-07
3.74581e-07
3.55117e-07
3.3828e-07
3.21862e-07
3.2186e-07
3.55116e-07
3.53704e-07
3.35395e-07
3.16659e-07
3.16661e-07
3.01763e-07
3.01764e-07
3.53696e-07
3.35385e-07
3.16642e-07
3.16668e-07
3.01745e-07
3.01771e-07
3.16662e-07
3.0174e-07
3.01765e-07
3.5371e-07
3.35401e-07
3.16644e-07
3.01749e-07
3.01746e-07
3.35401e-07
3.34141e-07
3.17534e-07
2.97044e-07
2.97045e-07
2.83623e-07
2.83624e-07
3.34134e-07
3.17524e-07
2.97026e-07
2.97053e-07
2.83603e-07
2.83631e-07
2.97047e-07
2.83599e-07
2.83625e-07
3.34148e-07
3.1754e-07
2.97027e-07
2.83609e-07
2.83604e-07
3.17539e-07
3.16479e-07
3.01975e-07
2.79394e-07
2.79394e-07
2.67442e-07
2.67442e-07
3.16471e-07
3.01966e-07
2.79374e-07
2.79402e-07
2.67421e-07
2.67449e-07
2.79396e-07
2.67417e-07
2.67443e-07
3.16485e-07
3.01984e-07
2.79375e-07
2.67426e-07
2.67421e-07
3.01982e-07
3.01155e-07
2.89044e-07
2.63704e-07
2.63704e-07
2.53228e-07
2.53227e-07
3.01148e-07
2.89033e-07
2.63683e-07
2.63711e-07
2.53205e-07
2.53235e-07
2.63705e-07
2.53201e-07
2.53228e-07
3.01163e-07
2.89049e-07
2.63683e-07
2.5321e-07
2.53205e-07
2.8905e-07
2.88489e-07
2.78955e-07
2.49981e-07
2.49981e-07
2.40981e-07
2.40981e-07
2.8848e-07
2.78938e-07
2.49958e-07
2.49989e-07
2.40957e-07
2.40988e-07
2.49982e-07
2.40952e-07
2.40981e-07
2.88497e-07
2.78958e-07
2.49959e-07
2.40961e-07
2.40957e-07
2.78958e-07
2.78693e-07
2.71835e-07
2.38228e-07
2.38228e-07
2.30702e-07
2.30703e-07
2.7868e-07
2.71824e-07
2.38204e-07
2.38236e-07
2.30677e-07
2.30711e-07
2.38228e-07
2.30671e-07
2.30702e-07
2.78697e-07
2.71847e-07
2.38205e-07
2.30682e-07
2.30677e-07
2.71843e-07
2.71874e-07
2.67878e-07
2.28442e-07
2.28444e-07
2.22401e-07
2.22402e-07
2.71865e-07
2.67859e-07
2.28418e-07
2.28453e-07
2.22374e-07
2.2241e-07
2.28443e-07
2.22365e-07
2.22399e-07
2.71888e-07
2.67886e-07
2.28418e-07
2.22377e-07
2.22374e-07
2.67884e-07
2.68167e-07
2.66987e-07
2.20635e-07
2.2064e-07
2.16077e-07
2.16082e-07
2.68154e-07
2.66974e-07
2.2061e-07
2.20648e-07
2.16049e-07
2.16091e-07
2.20635e-07
2.1604e-07
2.16076e-07
2.68179e-07
2.67003e-07
2.2061e-07
2.16053e-07
2.16049e-07
2.66998e-07
2.6764e-07
2.69169e-07
2.14811e-07
2.14817e-07
2.11747e-07
2.11756e-07
2.67629e-07
2.69156e-07
2.14785e-07
2.14827e-07
2.1172e-07
2.11764e-07
2.14811e-07
2.11705e-07
2.11745e-07
2.67654e-07
2.69177e-07
2.14784e-07
2.11718e-07
2.11717e-07
2.69185e-07
2.70495e-07
2.74673e-07
2.10983e-07
2.10992e-07
2.09416e-07
2.09425e-07
2.70483e-07
2.74653e-07
2.10956e-07
2.11001e-07
2.09389e-07
2.09439e-07
2.10984e-07
2.09366e-07
2.09414e-07
2.70507e-07
2.747e-07
2.10956e-07
2.09386e-07
2.09386e-07
2.74705e-07
2.76716e-07
2.83575e-07
2.09165e-07
2.09169e-07
2.09134e-07
2.09139e-07
2.76681e-07
2.83533e-07
2.09137e-07
2.09184e-07
2.09106e-07
2.09159e-07
2.09157e-07
2.09074e-07
2.09125e-07
2.76726e-07
2.83585e-07
2.09129e-07
2.09098e-07
2.09096e-07
2.83582e-07
2.86284e-07
2.95865e-07
2.09356e-07
2.09366e-07
2.1086e-07
2.1086e-07
2.86253e-07
2.95793e-07
2.09328e-07
2.09386e-07
2.10831e-07
2.10886e-07
2.09352e-07
2.10787e-07
2.10837e-07
2.86305e-07
2.95849e-07
2.09323e-07
2.10815e-07
2.10807e-07
2.95796e-07
2.99278e-07
3.11489e-07
2.11626e-07
2.11627e-07
2.14674e-07
2.14692e-07
2.99186e-07
3.11517e-07
2.11597e-07
2.11649e-07
2.14643e-07
2.14708e-07
2.11601e-07
2.14607e-07
2.14661e-07
2.9923e-07
3.11513e-07
2.11571e-07
2.14627e-07
2.14631e-07
3.11512e-07
3.15592e-07
3.30508e-07
2.15962e-07
2.15984e-07
2.20586e-07
2.20623e-07
3.15613e-07
3.30568e-07
2.15934e-07
2.15999e-07
2.20556e-07
2.20647e-07
2.15951e-07
2.20524e-07
2.20593e-07
3.1561e-07
3.30623e-07
2.1592e-07
2.20555e-07
2.20561e-07
3.30626e-07
3.35276e-07
3.53011e-07
2.22393e-07
2.22434e-07
2.28641e-07
2.28656e-07
3.35339e-07
3.52843e-07
2.22366e-07
2.22457e-07
2.28614e-07
2.2869e-07
2.22402e-07
2.28543e-07
2.2863e-07
3.35393e-07
3.52968e-07
2.22369e-07
2.28586e-07
2.28597e-07
3.52978e-07
3.58475e-07
3.78432e-07
2.30982e-07
2.30998e-07
2.38781e-07
2.38814e-07
3.58308e-07
3.78332e-07
2.30956e-07
2.31037e-07
2.38754e-07
2.38854e-07
2.30976e-07
2.38687e-07
2.38787e-07
3.58447e-07
3.78484e-07
2.30941e-07
2.38738e-07
2.38751e-07
3.78495e-07
3.84509e-07
4.06722e-07
2.41636e-07
2.41679e-07
2.51003e-07
2.51058e-07
3.84434e-07
4.06711e-07
2.4161e-07
2.41715e-07
2.50973e-07
2.51085e-07
2.41638e-07
2.50917e-07
2.51008e-07
3.8456e-07
4.06777e-07
2.416e-07
2.50957e-07
2.50969e-07
4.06772e-07
4.13445e-07
4.37753e-07
2.54389e-07
2.54453e-07
2.65311e-07
2.65372e-07
4.13459e-07
4.37717e-07
2.54361e-07
2.54476e-07
2.65278e-07
2.654e-07
2.54401e-07
2.65217e-07
2.65309e-07
4.13497e-07
4.37798e-07
2.54363e-07
2.65259e-07
2.65272e-07
4.37754e-07
4.44998e-07
4.70868e-07
2.69199e-07
2.69255e-07
2.81593e-07
2.81659e-07
4.4494e-07
4.70831e-07
2.69167e-07
2.69287e-07
2.81555e-07
2.81693e-07
2.69199e-07
2.8149e-07
2.81602e-07
4.45023e-07
4.70928e-07
2.69162e-07
2.8154e-07
2.81563e-07
4.70905e-07
4.78599e-07
5.05837e-07
2.85972e-07
2.8604e-07
2.99804e-07
2.99877e-07
4.78567e-07
5.05801e-07
2.85936e-07
2.86071e-07
2.99761e-07
2.99901e-07
2.85972e-07
2.99694e-07
2.99814e-07
4.78645e-07
5.05859e-07
2.85933e-07
2.99736e-07
2.99772e-07
5.05896e-07
5.13947e-07
5.42153e-07
3.04642e-07
3.0471e-07
3.1983e-07
3.19895e-07
5.13899e-07
5.42057e-07
3.046e-07
3.04743e-07
3.1978e-07
3.19941e-07
3.0466e-07
3.19699e-07
3.19845e-07
5.13972e-07
5.4222e-07
3.04617e-07
3.19766e-07
3.19798e-07
5.42216e-07
5.50588e-07
5.79288e-07
3.25108e-07
3.25173e-07
3.41546e-07
3.41624e-07
5.50502e-07
5.79242e-07
3.25059e-07
3.2522e-07
3.41487e-07
3.41659e-07
3.25122e-07
3.41415e-07
3.4156e-07
5.50644e-07
5.79356e-07
3.25074e-07
3.41474e-07
3.41506e-07
5.79353e-07
5.87917e-07
6.16879e-07
3.47217e-07
3.47295e-07
3.64817e-07
3.64891e-07
5.87887e-07
6.16802e-07
3.47159e-07
3.47336e-07
3.6475e-07
3.6494e-07
3.47237e-07
3.64671e-07
3.64845e-07
5.87989e-07
6.16971e-07
3.47182e-07
3.64746e-07
3.64783e-07
6.16987e-07
6.25701e-07
6.54637e-07
3.70871e-07
3.70937e-07
3.89533e-07
3.89611e-07
6.25619e-07
6.54569e-07
3.70805e-07
3.70993e-07
3.89455e-07
3.8965e-07
3.70894e-07
3.89379e-07
3.89552e-07
6.25777e-07
6.54695e-07
3.7083e-07
3.89448e-07
3.89482e-07
6.54702e-07
6.63515e-07
6.92071e-07
3.95912e-07
3.9598e-07
4.15501e-07
4.15574e-07
6.6345e-07
6.91994e-07
3.95837e-07
3.96031e-07
4.15413e-07
4.15623e-07
3.95934e-07
4.15337e-07
4.15524e-07
6.63563e-07
6.92147e-07
3.95862e-07
4.15414e-07
4.15445e-07
6.9214e-07
7.00958e-07
7.28951e-07
4.22171e-07
4.22243e-07
4.42566e-07
4.42641e-07
7.00888e-07
7.2888e-07
4.22086e-07
4.22295e-07
4.42469e-07
4.42691e-07
4.22195e-07
4.42398e-07
4.426e-07
7.01025e-07
7.29033e-07
4.22114e-07
4.42477e-07
4.42511e-07
7.29052e-07
7.37792e-07
7.65099e-07
4.49487e-07
4.4956e-07
4.70572e-07
4.70644e-07
7.37723e-07
7.65016e-07
4.49391e-07
4.49613e-07
4.70465e-07
4.70697e-07
4.49522e-07
4.70395e-07
4.70608e-07
7.37865e-07
7.65181e-07
4.49432e-07
4.7048e-07
4.7051e-07
7.65192e-07
7.73848e-07
8.00301e-07
4.77699e-07
4.7777e-07
4.99333e-07
4.99404e-07
7.73771e-07
8.00218e-07
4.77595e-07
4.77825e-07
4.99217e-07
4.99458e-07
4.77735e-07
4.99151e-07
4.99373e-07
7.73919e-07
8.00383e-07
4.77636e-07
4.99239e-07
4.99266e-07
8.00395e-07
8.08917e-07
8.34437e-07
5.06621e-07
5.06691e-07
5.28674e-07
5.2874e-07
8.0884e-07
8.3435e-07
5.06508e-07
5.06747e-07
5.28549e-07
5.28797e-07
5.06662e-07
5.28486e-07
5.28718e-07
8.08988e-07
8.34517e-07
5.06554e-07
5.28578e-07
5.28603e-07
8.34531e-07
8.42866e-07
8.6745e-07
5.36078e-07
5.36145e-07
5.58416e-07
5.58481e-07
8.42784e-07
8.67366e-07
5.35958e-07
5.36203e-07
5.58285e-07
5.58538e-07
5.36124e-07
5.58227e-07
5.58466e-07
8.42938e-07
8.67531e-07
5.36008e-07
5.58321e-07
5.58343e-07
8.67547e-07
8.75674e-07
8.99297e-07
5.65896e-07
5.65959e-07
5.88389e-07
5.88449e-07
8.75594e-07
8.99211e-07
5.65769e-07
5.66018e-07
5.88253e-07
5.8851e-07
5.65946e-07
5.88197e-07
5.88445e-07
8.75746e-07
8.99375e-07
5.65824e-07
5.88297e-07
5.88316e-07
8.99392e-07
9.07298e-07
9.2995e-07
5.95898e-07
5.95959e-07
6.18419e-07
6.18477e-07
9.07217e-07
9.29862e-07
5.95767e-07
5.9602e-07
6.1828e-07
6.18537e-07
5.95954e-07
6.18228e-07
6.18481e-07
9.07368e-07
9.30024e-07
5.95827e-07
6.18329e-07
6.18347e-07
9.30046e-07
9.3772e-07
9.59396e-07
6.25919e-07
6.25975e-07
6.48344e-07
6.484e-07
9.37637e-07
9.59309e-07
6.25786e-07
6.26037e-07
6.48203e-07
6.48462e-07
6.25981e-07
6.48156e-07
6.48413e-07
9.37786e-07
9.59469e-07
6.2585e-07
6.48261e-07
6.48274e-07
9.59491e-07
9.66928e-07
9.87648e-07
6.55794e-07
6.55848e-07
6.78012e-07
6.78067e-07
9.66845e-07
9.87561e-07
6.55659e-07
6.55909e-07
6.77873e-07
6.78128e-07
6.55861e-07
6.77826e-07
6.78089e-07
9.66991e-07
9.87712e-07
6.55727e-07
6.77936e-07
6.77951e-07
9.87739e-07
9.94934e-07
1.01471e-06
6.85372e-07
6.85425e-07
7.07286e-07
7.07337e-07
9.94856e-07
1.01463e-06
6.85245e-07
6.8549e-07
7.07153e-07
7.074e-07
6.85451e-07
7.07105e-07
7.07367e-07
9.94995e-07
1.01477e-06
6.85314e-07
7.07216e-07
7.07229e-07
1.0148e-06
1.02176e-06
1.04062e-06
7.14528e-07
7.14577e-07
7.36039e-07
7.36086e-07
1.02168e-06
1.04053e-06
7.14402e-07
7.14642e-07
7.3591e-07
7.36151e-07
7.14611e-07
7.35861e-07
7.36128e-07
1.02181e-06
1.04067e-06
7.14473e-07
7.35977e-07
7.3599e-07
1.0407e-06
1.04742e-06
1.06539e-06
7.43133e-07
7.43179e-07
7.64158e-07
7.64204e-07
1.04734e-06
1.0653e-06
7.43011e-07
7.43245e-07
7.64032e-07
7.64267e-07
7.43223e-07
7.63986e-07
7.64251e-07
1.04747e-06
1.06544e-06
7.43085e-07
7.64103e-07
7.64114e-07
1.06547e-06
1.07196e-06
1.08907e-06
7.71077e-07
7.71122e-07
7.91547e-07
7.91589e-07
1.07188e-06
1.08898e-06
7.70958e-07
7.71187e-07
7.91423e-07
7.91652e-07
7.71171e-07
7.91379e-07
7.91641e-07
1.07201e-06
1.08912e-06
7.71035e-07
7.91497e-07
7.91506e-07
1.08915e-06
1.09542e-06
1.11169e-06
7.9827e-07
7.98311e-07
8.18116e-07
8.18155e-07
1.09533e-06
1.1116e-06
7.98152e-07
7.98374e-07
8.17993e-07
8.18217e-07
7.98365e-07
8.17953e-07
8.18213e-07
1.09546e-06
1.11173e-06
7.9823e-07
8.1807e-07
8.1808e-07
1.11177e-06
1.11781e-06
1.13327e-06
8.24623e-07
8.24661e-07
8.43803e-07
8.43839e-07
1.11773e-06
1.13319e-06
8.24507e-07
8.24724e-07
8.43681e-07
8.43898e-07
8.24721e-07
8.43644e-07
8.43899e-07
1.11785e-06
1.13331e-06
8.24588e-07
8.4376e-07
8.43769e-07
1.13335e-06
1.13918e-06
1.15385e-06
8.5008e-07
8.50114e-07
8.68547e-07
8.68579e-07
1.13909e-06
1.15377e-06
8.49964e-07
8.50174e-07
8.68426e-07
8.68637e-07
8.50176e-07
8.68392e-07
8.68643e-07
1.13922e-06
1.15389e-06
8.50047e-07
8.68507e-07
8.68516e-07
1.15393e-06
1.15955e-06
1.17346e-06
8.74583e-07
8.74614e-07
8.92315e-07
8.92344e-07
1.15947e-06
1.17338e-06
8.74468e-07
8.74673e-07
8.92194e-07
8.92399e-07
8.74679e-07
8.92164e-07
8.92409e-07
1.15958e-06
1.1735e-06
8.74553e-07
8.92276e-07
8.92285e-07
1.17354e-06
1.17895e-06
1.19212e-06
8.98099e-07
8.98127e-07
9.15071e-07
9.15098e-07
1.17887e-06
1.19203e-06
8.97984e-07
8.98182e-07
9.1495e-07
9.15151e-07
8.98194e-07
9.14925e-07
9.15164e-07
1.17898e-06
1.19215e-06
8.98071e-07
9.15035e-07
9.15043e-07
1.1922e-06
1.19741e-06
1.20986e-06
9.20603e-07
9.20629e-07
9.3681e-07
9.36835e-07
1.19733e-06
1.20978e-06
9.20489e-07
9.20682e-07
9.36691e-07
9.36885e-07
9.20697e-07
9.36668e-07
9.36901e-07
1.19744e-06
1.20989e-06
9.20577e-07
9.36775e-07
9.36784e-07
1.20994e-06
1.21496e-06
1.22672e-06
9.42083e-07
9.42107e-07
9.57519e-07
9.57543e-07
1.21488e-06
1.22664e-06
9.4197e-07
9.42158e-07
9.57401e-07
9.5759e-07
9.42176e-07
9.57382e-07
9.57609e-07
1.21499e-06
1.22675e-06
9.4206e-07
9.57487e-07
9.57494e-07
1.22679e-06
1.23163e-06
1.24271e-06
9.62539e-07
9.62563e-07
9.77218e-07
9.77242e-07
1.23156e-06
1.24263e-06
9.62426e-07
9.62611e-07
9.77101e-07
9.77287e-07
9.62631e-07
9.77086e-07
9.77307e-07
1.23166e-06
1.24274e-06
9.62517e-07
9.7719e-07
9.77195e-07
1.24279e-06
1.24744e-06
1.25788e-06
9.81988e-07
9.82011e-07
9.95927e-07
9.95947e-07
1.24737e-06
1.2578e-06
9.81877e-07
9.82056e-07
9.9581e-07
9.95988e-07
9.8208e-07
9.95796e-07
9.96013e-07
1.24748e-06
1.25791e-06
9.81968e-07
9.95896e-07
9.95902e-07
1.25796e-06
1.26245e-06
1.27223e-06
1.00045e-06
1.00047e-06
1.01361e-06
1.01363e-06
1.26237e-06
1.27215e-06
1.00034e-06
1.00051e-06
1.0135e-06
1.01367e-06
1.00054e-06
1.01348e-06
1.0137e-06
1.26247e-06
1.27226e-06
1.00043e-06
1.01359e-06
1.01359e-06
1.2723e-06
1.27662e-06
1.2858e-06
1.01788e-06
1.0179e-06
1.03033e-06
1.03035e-06
1.27655e-06
1.28573e-06
1.01777e-06
1.01794e-06
1.03021e-06
1.03038e-06
1.01797e-06
1.0302e-06
1.03041e-06
1.27665e-06
1.28583e-06
1.01786e-06
1.0303e-06
1.0303e-06
1.28588e-06
1.29004e-06
1.29862e-06
1.03436e-06
1.03438e-06
1.04608e-06
1.0461e-06
1.28997e-06
1.29855e-06
1.03425e-06
1.03442e-06
1.04597e-06
1.04614e-06
1.03445e-06
1.04596e-06
1.04616e-06
1.29007e-06
1.29865e-06
1.03434e-06
1.04606e-06
1.04606e-06
1.2987e-06
1.3027e-06
1.31071e-06
1.04987e-06
1.04989e-06
1.0609e-06
1.06092e-06
1.30264e-06
1.31064e-06
1.04976e-06
1.04993e-06
1.06078e-06
1.06095e-06
1.04996e-06
1.06078e-06
1.06098e-06
1.30273e-06
1.31074e-06
1.04985e-06
1.06087e-06
1.06087e-06
1.31079e-06
1.31465e-06
1.32209e-06
1.06445e-06
1.06448e-06
1.07479e-06
1.07481e-06
1.31458e-06
1.32202e-06
1.06435e-06
1.06451e-06
1.07468e-06
1.07484e-06
1.06454e-06
1.07468e-06
1.07487e-06
1.31467e-06
1.32212e-06
1.06444e-06
1.07477e-06
1.07477e-06
1.32217e-06
1.32589e-06
1.33279e-06
1.07812e-06
1.07815e-06
1.0878e-06
1.08782e-06
1.32582e-06
1.33273e-06
1.07802e-06
1.07818e-06
1.08769e-06
1.08785e-06
1.07821e-06
1.08769e-06
1.08788e-06
1.32591e-06
1.33282e-06
1.07811e-06
1.08778e-06
1.08778e-06
1.33287e-06
1.33645e-06
1.3428e-06
1.09091e-06
1.09093e-06
1.09992e-06
1.09994e-06
1.33638e-06
1.34273e-06
1.0908e-06
1.09096e-06
1.09981e-06
1.09997e-06
1.09099e-06
1.09981e-06
1.1e-06
1.33647e-06
1.34283e-06
1.09089e-06
1.09989e-06
1.09989e-06
1.34287e-06
1.34632e-06
1.35219e-06
1.10282e-06
1.10284e-06
1.11121e-06
1.11124e-06
1.34626e-06
1.35212e-06
1.10271e-06
1.10287e-06
1.11111e-06
1.11127e-06
1.1029e-06
1.11111e-06
1.1113e-06
1.34634e-06
1.35221e-06
1.1028e-06
1.1112e-06
1.1112e-06
1.35226e-06
1.35558e-06
1.36092e-06
1.11391e-06
1.11393e-06
1.12167e-06
1.1217e-06
1.35552e-06
1.36086e-06
1.11381e-06
1.11396e-06
1.12157e-06
1.12173e-06
1.11399e-06
1.12158e-06
1.12175e-06
1.35561e-06
1.36095e-06
1.11389e-06
1.12166e-06
1.12166e-06
1.36099e-06
1.36418e-06
1.36905e-06
1.12416e-06
1.12419e-06
1.13134e-06
1.13137e-06
1.36413e-06
1.36899e-06
1.12406e-06
1.12422e-06
1.13124e-06
1.13139e-06
1.12425e-06
1.13124e-06
1.13142e-06
1.36421e-06
1.36908e-06
1.12415e-06
1.13132e-06
1.13132e-06
1.36913e-06
1.37221e-06
1.37663e-06
1.13365e-06
1.13367e-06
1.14029e-06
1.14032e-06
1.37215e-06
1.37657e-06
1.13355e-06
1.13369e-06
1.14019e-06
1.14034e-06
1.13373e-06
1.1402e-06
1.14037e-06
1.37223e-06
1.37666e-06
1.13363e-06
1.14028e-06
1.14027e-06
1.3767e-06
1.37967e-06
1.3836e-06
1.14241e-06
1.14244e-06
1.14846e-06
1.14849e-06
1.37961e-06
1.38355e-06
1.14231e-06
1.14246e-06
1.14836e-06
1.14851e-06
1.14249e-06
1.14837e-06
1.14854e-06
1.37969e-06
1.38363e-06
1.1424e-06
1.14845e-06
1.14845e-06
1.38368e-06
1.38652e-06
1.39004e-06
1.1504e-06
1.15042e-06
1.15594e-06
1.15596e-06
1.38647e-06
1.38997e-06
1.1503e-06
1.15045e-06
1.15584e-06
1.15599e-06
1.15048e-06
1.15584e-06
1.15602e-06
1.38655e-06
1.39006e-06
1.15038e-06
1.15592e-06
1.15592e-06
1.39011e-06
1.39285e-06
1.39591e-06
1.15769e-06
1.15772e-06
1.1627e-06
1.16273e-06
1.39279e-06
1.39586e-06
1.1576e-06
1.15775e-06
1.16259e-06
1.16274e-06
1.15778e-06
1.16261e-06
1.16277e-06
1.39288e-06
1.39594e-06
1.15768e-06
1.16268e-06
1.16268e-06
1.39598e-06
1.39862e-06
1.40123e-06
1.16429e-06
1.16432e-06
1.1688e-06
1.16883e-06
1.39857e-06
1.40118e-06
1.16419e-06
1.16434e-06
1.1687e-06
1.16885e-06
1.16437e-06
1.16871e-06
1.16888e-06
1.39865e-06
1.40126e-06
1.16427e-06
1.16879e-06
1.16878e-06
1.40131e-06
1.40383e-06
1.40607e-06
1.17022e-06
1.17025e-06
1.17424e-06
1.17427e-06
1.40378e-06
1.40601e-06
1.17013e-06
1.17027e-06
1.17414e-06
1.17429e-06
1.1703e-06
1.17416e-06
1.17432e-06
1.40386e-06
1.40609e-06
1.17021e-06
1.17423e-06
1.17423e-06
1.40614e-06
1.40857e-06
1.41036e-06
1.1755e-06
1.17553e-06
1.17902e-06
1.17906e-06
1.40852e-06
1.41031e-06
1.1754e-06
1.17555e-06
1.17892e-06
1.17908e-06
1.17558e-06
1.17895e-06
1.17911e-06
1.4086e-06
1.41039e-06
1.17549e-06
1.17902e-06
1.17901e-06
1.41044e-06
1.41277e-06
1.41432e-06
1.18015e-06
1.18018e-06
1.18337e-06
1.18339e-06
1.41273e-06
1.41425e-06
1.18006e-06
1.18021e-06
1.18327e-06
1.18341e-06
1.18023e-06
1.18327e-06
1.18343e-06
1.41281e-06
1.41434e-06
1.18014e-06
1.18334e-06
1.18334e-06
1.41438e-06
1.41667e-06
1.41771e-06
1.18436e-06
1.18439e-06
1.187e-06
1.18703e-06
1.41661e-06
1.41766e-06
1.18427e-06
1.1844e-06
1.1869e-06
1.18704e-06
1.18444e-06
1.18692e-06
1.18707e-06
1.41668e-06
1.41773e-06
1.18434e-06
1.18697e-06
1.18697e-06
1.41777e-06
1.41992e-06
1.42049e-06
1.18778e-06
1.18781e-06
1.18996e-06
1.19001e-06
1.41987e-06
1.42046e-06
1.18768e-06
1.18783e-06
1.18987e-06
1.19004e-06
1.18785e-06
1.1899e-06
1.19007e-06
1.41994e-06
1.42054e-06
1.18776e-06
1.18999e-06
1.18998e-06
1.42058e-06
1.42263e-06
1.42299e-06
1.19066e-06
1.19072e-06
1.19256e-06
1.19259e-06
1.42261e-06
1.42294e-06
1.19058e-06
1.19075e-06
1.19246e-06
1.19259e-06
1.19078e-06
1.19248e-06
1.19263e-06
1.42269e-06
1.42301e-06
1.19069e-06
1.19253e-06
1.19255e-06
1.42307e-06
1.42508e-06
1.4251e-06
1.19313e-06
1.19314e-06
1.19468e-06
1.1947e-06
1.42502e-06
1.42504e-06
1.19304e-06
1.19315e-06
1.19458e-06
1.19469e-06
1.1932e-06
1.19457e-06
1.19472e-06
1.42509e-06
1.42509e-06
1.19311e-06
1.19462e-06
1.19462e-06
1.42514e-06
1.42708e-06
1.42664e-06
1.19513e-06
1.19515e-06
1.19602e-06
1.19606e-06
1.42702e-06
1.42657e-06
1.19503e-06
1.19515e-06
1.19595e-06
1.19614e-06
1.19517e-06
1.19596e-06
1.19614e-06
1.42708e-06
1.42669e-06
1.19507e-06
1.19608e-06
1.19606e-06
1.42671e-06
1.42854e-06
1.42775e-06
1.19625e-06
1.19632e-06
1.19713e-06
1.19721e-06
1.42848e-06
1.42778e-06
1.19619e-06
1.1964e-06
1.19703e-06
1.19715e-06
1.19641e-06
1.1971e-06
1.19723e-06
1.42861e-06
1.4278e-06
1.19633e-06
1.19709e-06
1.19713e-06
1.42788e-06
1.42967e-06
1.4288e-06
1.19742e-06
1.19747e-06
1.19789e-06
1.19787e-06
1.42968e-06
1.42871e-06
1.19731e-06
1.1974e-06
1.1978e-06
1.19793e-06
1.19748e-06
1.19775e-06
1.19792e-06
1.42966e-06
1.42881e-06
1.19738e-06
1.19786e-06
1.19785e-06
1.42884e-06
1.43066e-06
1.42913e-06
1.19799e-06
1.19797e-06
1.1979e-06
1.19793e-06
1.43056e-06
1.42899e-06
1.19791e-06
1.19806e-06
1.19783e-06
1.19801e-06
1.19803e-06
1.19783e-06
1.19798e-06
1.43065e-06
1.42925e-06
1.19795e-06
1.19793e-06
1.19789e-06
1.42917e-06
1.43075e-06
1.42912e-06
1.19781e-06
1.19787e-06
1.19755e-06
1.1976e-06
1.43065e-06
1.42915e-06
1.19773e-06
1.19787e-06
1.19746e-06
1.19753e-06
1.19791e-06
1.19751e-06
1.19764e-06
1.4309e-06
1.42891e-06
1.1978e-06
1.19746e-06
1.19752e-06
1.42916e-06
1.43088e-06
1.42867e-06
1.19746e-06
1.19752e-06
1.19681e-06
1.19686e-06
1.43087e-06
1.42859e-06
1.19737e-06
1.19747e-06
1.19672e-06
1.19701e-06
1.19755e-06
1.19674e-06
1.19693e-06
1.4307e-06
1.42892e-06
1.19744e-06
1.19698e-06
1.1969e-06
1.4288e-06
1.4303e-06
1.42838e-06
1.19659e-06
1.19665e-06
1.19619e-06
1.19617e-06
1.4302e-06
1.42833e-06
1.19651e-06
1.1968e-06
1.19609e-06
1.19618e-06
1.19672e-06
1.19604e-06
1.19626e-06
1.43061e-06
1.42825e-06
1.1967e-06
1.19612e-06
1.19619e-06
1.42848e-06
1.43025e-06
1.42872e-06
1.19614e-06
1.19608e-06
1.19576e-06
1.19566e-06
1.43012e-06
1.42848e-06
1.19604e-06
1.19606e-06
1.19568e-06
1.19565e-06
1.19617e-06
1.19556e-06
1.19575e-06
1.42998e-06
1.42855e-06
1.19608e-06
1.19552e-06
1.19561e-06
1.42865e-06
1.4304e-06
1.42598e-06
1.19544e-06
1.19536e-06
1.1927e-06
1.19291e-06
1.43016e-06
1.42608e-06
1.19538e-06
1.1954e-06
1.19264e-06
1.19287e-06
1.19544e-06
1.19283e-06
1.19278e-06
1.43022e-06
1.42605e-06
1.19529e-06
1.19277e-06
1.19264e-06
1.42595e-06
1.42737e-06
1.4224e-06
1.19175e-06
1.19201e-06
1.18919e-06
1.18937e-06
1.4275e-06
1.4226e-06
1.19166e-06
1.19188e-06
1.18906e-06
1.18923e-06
1.19182e-06
1.18926e-06
1.18936e-06
1.42746e-06
1.42247e-06
1.1917e-06
1.18922e-06
1.18928e-06
1.42254e-06
1.42396e-06
1.42265e-06
1.18884e-06
1.18886e-06
1.18867e-06
1.18807e-06
1.42413e-06
1.42183e-06
1.18872e-06
1.18887e-06
1.18864e-06
1.18882e-06
1.18908e-06
1.18802e-06
1.18926e-06
1.42399e-06
1.42283e-06
1.18902e-06
1.18888e-06
1.18932e-06
1.42329e-06
1.42452e-06
1.42349e-06
1.18875e-06
1.188e-06
1.18862e-06
1.18814e-06
1.42365e-06
1.42269e-06
1.18882e-06
1.18907e-06
1.18871e-06
1.18887e-06
1.18934e-06
1.18805e-06
1.18878e-06
1.42477e-06
1.42379e-06
1.18939e-06
1.18876e-06
1.18876e-06
1.42375e-06
1.42534e-06
1.42031e-06
1.18846e-06
1.18825e-06
1.18529e-06
1.18712e-06
1.42477e-06
1.4224e-06
1.18849e-06
1.1886e-06
1.18466e-06
1.18431e-06
1.18828e-06
1.1868e-06
1.18335e-06
1.42554e-06
1.41974e-06
1.18813e-06
1.18392e-06
1.18285e-06
1.41856e-06
1.42136e-06
1.40738e-06
1.18231e-06
1.18474e-06
1.17241e-06
1.17274e-06
1.42347e-06
1.40782e-06
1.18179e-06
1.18175e-06
1.17227e-06
1.17265e-06
1.18114e-06
1.17277e-06
1.17372e-06
1.42082e-06
1.40761e-06
1.18076e-06
1.17299e-06
1.17386e-06
1.40857e-06
1.40826e-06
1.40752e-06
1.17072e-06
1.17026e-06
1.17223e-06
1.17015e-06
1.40851e-06
1.40407e-06
1.17072e-06
1.17116e-06
1.17266e-06
1.17309e-06
1.17264e-06
1.17045e-06
1.17519e-06
1.40856e-06
1.40809e-06
1.17292e-06
1.17364e-06
1.17598e-06
1.41142e-06
1.41365e-06
1.43713e-06
1.17912e-06
1.17586e-06
1.19817e-06
1.19867e-06
1.40977e-06
1.43696e-06
1.17976e-06
1.18023e-06
1.19825e-06
1.19921e-06
1.1818e-06
1.1985e-06
1.19734e-06
1.41434e-06
1.4384e-06
1.18255e-06
1.19885e-06
1.1973e-06
1.43686e-06
1.44261e-06
1.42759e-06
1.19993e-06
1.20123e-06
1.18857e-06
1.19177e-06
1.44332e-06
1.4305e-06
1.19994e-06
1.20096e-06
1.18821e-06
1.1892e-06
1.1986e-06
1.19138e-06
1.18588e-06
1.44397e-06
1.42843e-06
1.19843e-06
1.1884e-06
1.1849e-06
1.42435e-06
1.42444e-06
1.35623e-06
1.17239e-06
1.17494e-06
1.12168e-06
1.12177e-06
1.42718e-06
1.35693e-06
1.17199e-06
1.17258e-06
1.12138e-06
1.12118e-06
1.17021e-06
1.12191e-06
1.12267e-06
1.42511e-06
1.3553e-06
1.16933e-06
1.12137e-06
1.12246e-06
1.35623e-06
1.35267e-06
1.31389e-06
1.10998e-06
1.10892e-06
1.08566e-06
1.08389e-06
1.35272e-06
1.3128e-06
1.10985e-06
1.10948e-06
1.08568e-06
1.08512e-06
1.11216e-06
1.08454e-06
1.08911e-06
1.35154e-06
1.31317e-06
1.11212e-06
1.0861e-06
1.08955e-06
1.31707e-06
1.30397e-06
1.06404e-06
1.06242e-06
1.30379e-06
1.06413e-06
1.06352e-06
6.34885e-07
6.35594e-07
6.38046e-07
1.06749e-06
1.30341e-06
1.0681e-06
5.35663e-07
5.35601e-07
5.35655e-07
5.35655e-07
5.34573e-07
5.35516e-07
5.33634e-07
5.35654e-07
5.34573e-07
5.35517e-07
5.35654e-07
5.33634e-07
5.35256e-07
5.35986e-07
5.35987e-07
1.10713e-06
3.88086e-06
9.33891e-07
4.60608e-06
1.26081e-05
1.6601e-05
1.10725e-06
3.8811e-06
9.33925e-07
4.60648e-06
4.95567e-07
4.95567e-07
4.95567e-07
4.57231e-07
4.57231e-07
4.57232e-07
4.57232e-07
5.43143e-07
1.22026e-06
4.95565e-07
4.85522e-07
5.25341e-07
1.20946e-06
4.82301e-07
1.26097e-05
1.66037e-05
5.43162e-07
4.95565e-07
1.22025e-06
4.85523e-07
5.2532e-07
4.82302e-07
1.20945e-06
2.52172e-06
2.52242e-06
4.8419e-07
2.37248e-06
2.37287e-06
1.4308e-06
5.5934e-06
1.32967e-06
6.13626e-06
2.12845e-05
2.31104e-05
1.4312e-06
5.59407e-06
1.32973e-06
6.13694e-06
4.45572e-07
4.45573e-07
4.45573e-07