/*--------------------------------*- C++ -*----------------------------------*\
| =========                 |                                                 |
| \\      /  F ield         | OpenFOAM: The Open Source CFD Toolbox           |
|  \\    /   O peration     | Version:  v2012                                 |
|   \\  /    A nd           | Website:  www.openfoam.com                      |
|    \\/     M anipulation  |                                                 |
\*---------------------------------------------------------------------------*/
FoamFile
{
    version     2.0;
    format      ascii;
    class       volScalarField;
    location    "875";
    object      k;
}
// * * * * * * * * * * * * * * * * * * * * * * * * * * * * * * * * * * * * * //

dimensions      [0 2 -2 0 0 0 0];


internalField   nonuniform List<scalar> 
171728
(
3.58932e-05
3.58912e-05
3.58912e-05
3.59957e-05
3.39296e-05
3.3889e-05
3.3889e-05
3.39622e-05
3.21578e-05
3.20081e-05
3.20081e-05
3.19522e-05
3.05346e-05
3.02293e-05
3.02292e-05
2.99885e-05
2.90329e-05
2.8554e-05
2.85539e-05
2.81227e-05
2.76353e-05
2.69872e-05
2.69871e-05
2.63907e-05
2.63308e-05
2.55311e-05
2.55309e-05
2.48073e-05
2.51112e-05
2.4185e-05
2.41848e-05
2.33781e-05
2.3971e-05
2.29507e-05
2.29505e-05
2.21048e-05
2.29058e-05
2.18269e-05
2.18267e-05
2.09856e-05
2.1912e-05
2.08114e-05
2.08112e-05
2.00136e-05
2.09865e-05
1.99015e-05
1.99013e-05
1.91824e-05
2.01241e-05
1.90948e-05
1.90947e-05
1.84892e-05
1.9324e-05
1.83887e-05
1.83888e-05
1.79325e-05
1.85845e-05
1.77797e-05
1.77808e-05
1.74969e-05
1.7904e-05
1.72683e-05
1.72695e-05
1.7223e-05
1.72808e-05
1.68507e-05
1.68478e-05
1.70818e-05
1.67122e-05
1.65347e-05
1.65395e-05
1.7046e-05
1.61944e-05
1.6305e-05
1.63145e-05
1.71234e-05
1.57313e-05
1.61687e-05
1.61329e-05
1.72446e-05
1.53016e-05
1.61415e-05
1.61442e-05
1.79353e-05
1.49466e-05
1.61603e-05
1.6182e-05
1.83241e-05
1.46176e-05
1.62859e-05
1.63547e-05
1.89768e-05
1.43326e-05
1.65041e-05
1.64613e-05
1.91113e-05
1.41122e-05
1.6868e-05
1.68652e-05
2.0281e-05
1.39175e-05
1.72112e-05
1.71885e-05
2.08602e-05
1.37825e-05
1.77129e-05
1.76813e-05
2.19654e-05
1.36893e-05
1.82419e-05
1.82846e-05
2.31272e-05
1.36501e-05
1.89446e-05
1.89204e-05
2.40929e-05
1.36289e-05
1.95313e-05
1.95601e-05
2.5062e-05
1.36831e-05
2.03693e-05
2.03533e-05
2.61624e-05
1.37732e-05
2.11729e-05
2.11818e-05
2.72692e-05
1.39038e-05
2.20263e-05
2.20201e-05
2.83353e-05
1.40833e-05
2.2931e-05
2.29395e-05
2.94459e-05
1.43139e-05
2.38876e-05
2.38875e-05
3.04817e-05
1.45886e-05
2.48563e-05
2.48583e-05
3.15143e-05
1.49081e-05
2.58543e-05
2.58566e-05
3.25412e-05
1.52756e-05
2.68713e-05
2.68735e-05
3.35266e-05
1.56884e-05
2.78974e-05
2.79e-05
3.45044e-05
1.61463e-05
2.89335e-05
2.89363e-05
3.54521e-05
1.66467e-05
2.99669e-05
2.99702e-05
3.63756e-05
1.719e-05
3.10002e-05
3.1002e-05
3.7265e-05
1.77734e-05
3.20228e-05
3.20264e-05
3.81459e-05
1.83938e-05
3.30383e-05
3.30402e-05
3.89867e-05
1.90501e-05
3.40317e-05
3.40345e-05
3.98116e-05
1.97389e-05
3.50103e-05
3.50137e-05
4.06077e-05
2.04559e-05
3.5968e-05
3.59695e-05
4.13807e-05
2.11988e-05
3.68984e-05
3.69025e-05
4.21266e-05
2.19633e-05
3.78091e-05
3.78099e-05
4.28509e-05
2.27463e-05
3.86905e-05
3.86943e-05
4.35524e-05
2.35418e-05
3.95417e-05
3.95434e-05
4.42207e-05
2.43475e-05
4.03687e-05
4.03704e-05
4.48697e-05
2.51612e-05
4.11664e-05
4.11701e-05
4.54988e-05
2.59759e-05
4.19355e-05
4.19368e-05
4.61035e-05
2.67906e-05
4.26727e-05
4.26743e-05
4.66752e-05
2.75985e-05
4.33842e-05
4.33866e-05
4.72361e-05
2.84025e-05
4.40657e-05
4.40673e-05
4.77653e-05
2.9193e-05
4.47189e-05
4.47207e-05
4.82779e-05
2.99743e-05
4.5343e-05
4.53445e-05
4.8769e-05
3.07374e-05
4.5943e-05
4.59444e-05
4.92385e-05
3.14826e-05
4.65047e-05
4.65068e-05
4.96707e-05
3.22127e-05
4.70598e-05
4.70589e-05
5.01294e-05
3.29157e-05
4.75491e-05
4.75543e-05
5.047e-05
3.3589e-05
4.80429e-05
4.80409e-05
5.08873e-05
3.42675e-05
4.85375e-05
4.85378e-05
5.12932e-05
3.49017e-05
4.89453e-05
4.8949e-05
5.15867e-05
3.54967e-05
4.93478e-05
4.9348e-05
5.19104e-05
3.60845e-05
4.97502e-05
4.97495e-05
5.22272e-05
3.6642e-05
5.00981e-05
5.0099e-05
5.25079e-05
3.71694e-05
5.04445e-05
5.04465e-05
5.27925e-05
3.76679e-05
5.07475e-05
5.075e-05
5.29912e-05
3.8129e-05
5.10134e-05
5.10059e-05
5.32284e-05
3.85954e-05
5.13451e-05
5.13533e-05
5.35405e-05
3.9015e-05
5.15733e-05
5.15705e-05
5.36576e-05
3.93749e-05
5.17125e-05
5.17186e-05
5.37659e-05
3.97344e-05
5.19801e-05
5.19724e-05
5.39969e-05
4.00827e-05
5.21526e-05
5.21526e-05
5.41468e-05
4.03981e-05
5.23285e-05
5.23416e-05
5.43007e-05
4.06514e-05
5.23931e-05
5.23845e-05
5.42496e-05
4.09317e-05
5.2642e-05
5.26459e-05
5.46441e-05
4.11876e-05
5.27045e-05
5.26905e-05
5.45416e-05
4.1281e-05
5.25949e-05
5.26147e-05
5.43408e-05
4.15265e-05
5.29029e-05
5.28808e-05
5.4882e-05
4.17805e-05
5.29629e-05
5.29396e-05
5.47558e-05
4.1813e-05
5.28157e-05
5.28581e-05
5.46172e-05
4.1848e-05
5.28042e-05
5.27966e-05
5.45425e-05
4.21567e-05
5.31254e-05
5.31146e-05
5.51826e-05
4.21629e-05
5.27938e-05
5.29368e-05
5.44138e-05
4.20817e-05
5.27788e-05
5.26022e-05
5.44649e-05
4.2247e-05
5.29239e-05
5.314e-05
5.50375e-05
4.24105e-05
5.29643e-05
5.29695e-05
5.47588e-05
4.24783e-05
5.31726e-05
5.28943e-05
5.55068e-05
4.17094e-05
5.14632e-05
5.17272e-05
5.20195e-05
4.14196e-05
5.10198e-05
5.09663e-05
5.13149e-05
4.33328e-05
5.44439e-05
5.51162e-05
6.22051e-05
3.63068e-05
3.6291e-05
3.6291e-05
3.63068e-05
3.6291e-05
3.6291e-05
3.6423e-05
3.6423e-05
3.6423e-05
3.6423e-05
3.6291e-05
3.6291e-05
3.63068e-05
3.6291e-05
3.6291e-05
3.63068e-05
3.59957e-05
3.42687e-05
3.58912e-05
3.58912e-05
3.43767e-05
3.43766e-05
3.59957e-05
3.42687e-05
3.58911e-05
3.58912e-05
3.43767e-05
3.43766e-05
3.58912e-05
3.43767e-05
3.43767e-05
3.59957e-05
3.42687e-05
3.58912e-05
3.43767e-05
3.43767e-05
3.42687e-05
3.39623e-05
3.22635e-05
3.38889e-05
3.38889e-05
3.24684e-05
3.24683e-05
3.39623e-05
3.22635e-05
3.38889e-05
3.38889e-05
3.24684e-05
3.24683e-05
3.38889e-05
3.24685e-05
3.24684e-05
3.39623e-05
3.22634e-05
3.38889e-05
3.24685e-05
3.24684e-05
3.22634e-05
3.19522e-05
3.02993e-05
3.20079e-05
3.20078e-05
3.06643e-05
3.06642e-05
3.19522e-05
3.02994e-05
3.2008e-05
3.20078e-05
3.06644e-05
3.06641e-05
3.20079e-05
3.06646e-05
3.06643e-05
3.19522e-05
3.02992e-05
3.2008e-05
3.06645e-05
3.06644e-05
3.02992e-05
2.99885e-05
2.84253e-05
3.0229e-05
3.02288e-05
2.89624e-05
2.89622e-05
2.99886e-05
2.84255e-05
3.02291e-05
3.02287e-05
2.89626e-05
2.89621e-05
3.02289e-05
2.89628e-05
2.89623e-05
2.99885e-05
2.84252e-05
3.02291e-05
2.89627e-05
2.89626e-05
2.84251e-05
2.81228e-05
2.6674e-05
2.85536e-05
2.85534e-05
2.7368e-05
2.73678e-05
2.81228e-05
2.66742e-05
2.85538e-05
2.85533e-05
2.73683e-05
2.73676e-05
2.85535e-05
2.73686e-05
2.73679e-05
2.81226e-05
2.66739e-05
2.85538e-05
2.73684e-05
2.73683e-05
2.66738e-05
2.63908e-05
2.50663e-05
2.69866e-05
2.69864e-05
2.58841e-05
2.58838e-05
2.63909e-05
2.50664e-05
2.69869e-05
2.69862e-05
2.58845e-05
2.58836e-05
2.69865e-05
2.58848e-05
2.5884e-05
2.63907e-05
2.50661e-05
2.69869e-05
2.58846e-05
2.58844e-05
2.50661e-05
2.48075e-05
2.36125e-05
2.55304e-05
2.55301e-05
2.45102e-05
2.45099e-05
2.48077e-05
2.36127e-05
2.55308e-05
2.55299e-05
2.45108e-05
2.45097e-05
2.55303e-05
2.45111e-05
2.45102e-05
2.48074e-05
2.36124e-05
2.55307e-05
2.45109e-05
2.45107e-05
2.36123e-05
2.33785e-05
2.23125e-05
2.41842e-05
2.41839e-05
2.32479e-05
2.32475e-05
2.33786e-05
2.23126e-05
2.41847e-05
2.41836e-05
2.32484e-05
2.32473e-05
2.41841e-05
2.32488e-05
2.32478e-05
2.33782e-05
2.23122e-05
2.41847e-05
2.32485e-05
2.32484e-05
2.23122e-05
2.21048e-05
2.11678e-05
2.29497e-05
2.29494e-05
2.20966e-05
2.20963e-05
2.2105e-05
2.11684e-05
2.29503e-05
2.29492e-05
2.20973e-05
2.2096e-05
2.29496e-05
2.20976e-05
2.20965e-05
2.21047e-05
2.11682e-05
2.29503e-05
2.20974e-05
2.20972e-05
2.11678e-05
2.09866e-05
2.01713e-05
2.1826e-05
2.18256e-05
2.10543e-05
2.10539e-05
2.0987e-05
2.01714e-05
2.18267e-05
2.18253e-05
2.1055e-05
2.10536e-05
2.18258e-05
2.10553e-05
2.10542e-05
2.09865e-05
2.01707e-05
2.18266e-05
2.10551e-05
2.1055e-05
2.01701e-05
2.00143e-05
1.93152e-05
2.08104e-05
2.081e-05
2.01181e-05
2.01177e-05
2.00136e-05
1.93146e-05
2.08111e-05
2.08098e-05
2.01189e-05
2.01176e-05
2.08103e-05
2.01191e-05
2.01181e-05
2.00129e-05
1.93142e-05
2.08112e-05
2.0119e-05
2.0119e-05
1.93147e-05
1.91814e-05
1.85877e-05
1.99002e-05
1.99001e-05
1.92853e-05
1.92854e-05
1.91813e-05
1.85905e-05
1.99011e-05
1.98999e-05
1.92861e-05
1.92851e-05
1.99002e-05
1.92868e-05
1.92857e-05
1.91817e-05
1.85899e-05
1.99011e-05
1.92865e-05
1.92865e-05
1.85916e-05
1.84865e-05
1.7997e-05
1.90937e-05
1.90934e-05
1.8555e-05
1.85548e-05
1.84917e-05
1.80027e-05
1.90945e-05
1.90932e-05
1.85554e-05
1.85539e-05
1.90937e-05
1.85561e-05
1.85545e-05
1.84884e-05
1.79935e-05
1.90943e-05
1.85553e-05
1.85554e-05
1.79985e-05
1.79367e-05
1.75369e-05
1.83887e-05
1.83875e-05
1.79207e-05
1.7922e-05
1.79369e-05
1.75455e-05
1.83889e-05
1.83874e-05
1.79215e-05
1.79225e-05
1.83869e-05
1.7923e-05
1.79215e-05
1.79312e-05
1.7544e-05
1.83879e-05
1.79237e-05
1.79223e-05
1.75392e-05
1.74992e-05
1.72217e-05
1.77759e-05
1.77785e-05
1.73842e-05
1.73812e-05
1.75065e-05
1.72041e-05
1.77769e-05
1.77795e-05
1.73853e-05
1.73829e-05
1.77749e-05
1.73826e-05
1.73876e-05
1.75111e-05
1.7211e-05
1.77755e-05
1.73843e-05
1.73886e-05
1.72394e-05
1.72023e-05
1.70529e-05
1.72632e-05
1.72673e-05
1.69461e-05
1.69392e-05
1.71915e-05
1.7028e-05
1.72642e-05
1.72682e-05
1.69468e-05
1.69352e-05
1.72667e-05
1.69398e-05
1.69437e-05
1.72011e-05
1.7006e-05
1.72678e-05
1.69362e-05
1.69446e-05
1.70496e-05
1.7056e-05
1.70394e-05
1.68528e-05
1.68498e-05
1.66006e-05
1.66093e-05
1.70283e-05
1.7075e-05
1.68535e-05
1.68469e-05
1.66012e-05
1.66189e-05
1.68599e-05
1.661e-05
1.66066e-05
1.70139e-05
1.71055e-05
1.68607e-05
1.66195e-05
1.66074e-05
1.70495e-05
1.70733e-05
1.72091e-05
1.65394e-05
1.6534e-05
1.63656e-05
1.63552e-05
1.70739e-05
1.71246e-05
1.65399e-05
1.65388e-05
1.63663e-05
1.63611e-05
1.65241e-05
1.63558e-05
1.63553e-05
1.71089e-05
1.71293e-05
1.65248e-05
1.63618e-05
1.63559e-05
1.7098e-05
1.7231e-05
1.74752e-05
1.63057e-05
1.63045e-05
1.62244e-05
1.61782e-05
1.71517e-05
1.72728e-05
1.63063e-05
1.63138e-05
1.62249e-05
1.61621e-05
1.62975e-05
1.61783e-05
1.6156e-05
1.71799e-05
1.7184e-05
1.62982e-05
1.61623e-05
1.61566e-05
1.71484e-05
1.75136e-05
1.73741e-05
1.61984e-05
1.61689e-05
1.60661e-05
1.61554e-05
1.73653e-05
1.77946e-05
1.61989e-05
1.6133e-05
1.60665e-05
1.61345e-05
1.61424e-05
1.61553e-05
1.61592e-05
1.72153e-05
1.77133e-05
1.6143e-05
1.61346e-05
1.61597e-05
1.78375e-05
1.73888e-05
1.83142e-05
1.60591e-05
1.61412e-05
1.61731e-05
1.61413e-05
1.78547e-05
1.80288e-05
1.60596e-05
1.61438e-05
1.61737e-05
1.6164e-05
1.61584e-05
1.6141e-05
1.61652e-05
1.7843e-05
1.81548e-05
1.6159e-05
1.6164e-05
1.61658e-05
1.81644e-05
1.85874e-05
1.87828e-05
1.62425e-05
1.61612e-05
1.63036e-05
1.62421e-05
1.81302e-05
1.85403e-05
1.6243e-05
1.61825e-05
1.6304e-05
1.63145e-05
1.61924e-05
1.62416e-05
1.63361e-05
1.82589e-05
1.89052e-05
1.61928e-05
1.63142e-05
1.63366e-05
1.89527e-05
1.87985e-05
1.91603e-05
1.63117e-05
1.62863e-05
1.64428e-05
1.64108e-05
1.86388e-05
1.91275e-05
1.63122e-05
1.6355e-05
1.64434e-05
1.64181e-05
1.63511e-05
1.64096e-05
1.63885e-05
1.89929e-05
1.9077e-05
1.63518e-05
1.64174e-05
1.63891e-05
1.89371e-05
1.92691e-05
2.0031e-05
1.64745e-05
1.65056e-05
1.67467e-05
1.67902e-05
1.93174e-05
2.02693e-05
1.64749e-05
1.64622e-05
1.67467e-05
1.67654e-05
1.64531e-05
1.67894e-05
1.67555e-05
1.91642e-05
2.0171e-05
1.64536e-05
1.6765e-05
1.67558e-05
2.01122e-05
2.03548e-05
2.08225e-05
1.68816e-05
1.68692e-05
1.71047e-05
1.71124e-05
2.03949e-05
2.08314e-05
1.68816e-05
1.68658e-05
1.71048e-05
1.71031e-05
1.68519e-05
1.71109e-05
1.71017e-05
2.03529e-05
2.07944e-05
1.68523e-05
1.71018e-05
1.7102e-05
2.07491e-05
2.09028e-05
2.17736e-05
1.71857e-05
1.72127e-05
1.75709e-05
1.75865e-05
2.0996e-05
2.18407e-05
1.71859e-05
1.71895e-05
1.75706e-05
1.7551e-05
1.71791e-05
1.75846e-05
1.75431e-05
2.09163e-05
2.168e-05
1.71793e-05
1.75494e-05
1.75433e-05
2.16784e-05
2.2019e-05
2.28141e-05
1.77123e-05
1.77148e-05
1.8113e-05
1.80984e-05
2.20459e-05
2.2726e-05
1.7712e-05
1.76828e-05
1.81125e-05
1.81167e-05
1.77056e-05
1.80965e-05
1.81388e-05
2.19063e-05
2.2815e-05
1.77056e-05
1.81151e-05
1.81385e-05
2.29145e-05
2.30601e-05
2.40008e-05
1.82729e-05
1.82436e-05
1.87972e-05
1.87872e-05
2.29539e-05
2.39781e-05
1.82725e-05
1.8286e-05
1.87967e-05
1.8782e-05
1.82887e-05
1.87843e-05
1.87753e-05
2.30783e-05
2.39572e-05
1.82885e-05
1.87796e-05
1.87753e-05
2.39168e-05
2.41614e-05
2.46262e-05
1.89339e-05
1.8948e-05
1.93461e-05
1.9365e-05
2.41988e-05
2.46811e-05
1.89331e-05
1.89231e-05
1.93448e-05
1.93679e-05
1.89047e-05
1.93626e-05
1.93931e-05
2.4122e-05
2.47256e-05
1.89043e-05
1.93659e-05
1.93921e-05
2.4784e-05
2.4881e-05
2.60342e-05
1.95316e-05
1.9533e-05
2.01781e-05
2.01605e-05
2.48828e-05
2.59825e-05
1.95309e-05
1.95614e-05
2.01775e-05
2.01684e-05
1.95931e-05
2.01579e-05
2.0152e-05
2.49797e-05
2.59887e-05
1.95925e-05
2.01664e-05
2.01515e-05
2.59422e-05
2.62817e-05
2.70554e-05
2.03742e-05
2.03723e-05
2.09731e-05
2.09653e-05
2.62518e-05
2.70408e-05
2.03734e-05
2.03557e-05
2.09708e-05
2.09679e-05
2.03475e-05
2.09621e-05
2.09666e-05
2.62043e-05
2.70521e-05
2.03466e-05
2.09652e-05
2.0965e-05
2.7045e-05
2.73008e-05
2.81002e-05
2.11866e-05
2.11758e-05
2.18122e-05
2.18187e-05
2.72716e-05
2.81258e-05
2.11848e-05
2.11842e-05
2.18101e-05
2.18081e-05
2.11674e-05
2.18151e-05
2.18044e-05
2.73042e-05
2.80897e-05
2.11659e-05
2.18052e-05
2.18029e-05
2.80859e-05
2.8318e-05
2.91702e-05
2.20258e-05
2.20297e-05
2.26986e-05
2.26995e-05
2.83441e-05
2.91642e-05
2.20238e-05
2.20229e-05
2.26963e-05
2.27071e-05
2.20265e-05
2.26966e-05
2.27177e-05
2.83105e-05
2.91925e-05
2.20248e-05
2.27047e-05
2.2716e-05
2.92116e-05
2.94171e-05
3.02589e-05
2.29367e-05
2.29339e-05
2.36493e-05
2.36515e-05
2.94104e-05
3.02651e-05
2.29345e-05
2.29418e-05
2.36469e-05
2.36514e-05
2.29495e-05
2.36482e-05
2.36461e-05
2.94351e-05
3.02612e-05
2.29478e-05
2.36486e-05
2.3644e-05
3.02471e-05
3.04856e-05
3.12965e-05
2.38862e-05
2.38909e-05
2.4617e-05
2.46142e-05
3.04961e-05
3.12854e-05
2.38839e-05
2.38903e-05
2.46141e-05
2.46169e-05
2.38879e-05
2.46111e-05
2.4616e-05
3.0492e-05
3.12911e-05
2.38858e-05
2.46143e-05
2.46137e-05
3.12911e-05
3.15255e-05
3.23022e-05
2.48624e-05
2.48595e-05
2.56039e-05
2.56058e-05
3.1514e-05
3.23081e-05
2.48598e-05
2.48608e-05
2.5601e-05
2.56061e-05
2.48592e-05
2.56026e-05
2.56064e-05
3.15169e-05
3.23091e-05
2.48568e-05
2.56034e-05
2.56038e-05
3.23112e-05
3.25287e-05
3.33104e-05
2.58554e-05
2.58574e-05
2.66189e-05
2.66195e-05
3.25344e-05
3.33093e-05
2.58526e-05
2.58591e-05
2.6616e-05
2.66215e-05
2.58604e-05
2.66166e-05
2.66211e-05
3.2538e-05
3.33123e-05
2.58578e-05
2.66192e-05
2.66184e-05
3.33091e-05
3.35309e-05
3.42843e-05
2.68741e-05
2.68742e-05
2.76434e-05
2.76419e-05
3.35292e-05
3.4279e-05
2.68713e-05
2.68757e-05
2.76404e-05
2.76439e-05
2.68748e-05
2.76389e-05
2.7645e-05
3.35307e-05
3.42826e-05
2.68721e-05
2.76416e-05
2.76422e-05
3.42861e-05
3.45034e-05
3.5238e-05
2.79023e-05
2.79003e-05
2.86777e-05
2.86776e-05
3.44977e-05
3.52382e-05
2.78995e-05
2.79022e-05
2.86747e-05
2.86791e-05
2.79036e-05
2.86749e-05
2.86803e-05
3.45008e-05
3.52408e-05
2.79009e-05
2.86771e-05
2.86773e-05
3.52411e-05
3.54479e-05
3.61621e-05
2.89359e-05
2.89362e-05
2.97106e-05
2.97105e-05
3.54488e-05
3.61604e-05
2.89332e-05
2.89383e-05
2.97078e-05
2.97134e-05
2.89389e-05
2.97079e-05
2.97158e-05
3.54524e-05
3.61651e-05
2.89361e-05
2.97117e-05
2.9713e-05
3.61696e-05
3.63685e-05
3.70675e-05
2.99692e-05
2.99694e-05
3.07448e-05
3.07456e-05
3.63679e-05
3.70677e-05
2.99668e-05
2.99719e-05
3.07422e-05
3.07463e-05
2.99744e-05
3.07431e-05
3.0747e-05
3.63711e-05
3.70674e-05
2.99716e-05
3.07448e-05
3.07443e-05
3.70652e-05
3.72686e-05
3.79486e-05
3.10025e-05
3.10026e-05
3.17729e-05
3.17707e-05
3.72676e-05
3.79406e-05
3.10001e-05
3.10035e-05
3.17704e-05
3.1772e-05
3.10038e-05
3.17683e-05
3.17736e-05
3.72674e-05
3.79444e-05
3.10011e-05
3.17706e-05
3.17708e-05
3.79476e-05
3.81437e-05
3.87911e-05
3.2028e-05
3.20252e-05
3.27853e-05
3.27876e-05
3.81356e-05
3.87994e-05
3.20258e-05
3.20278e-05
3.27831e-05
3.27902e-05
3.20304e-05
3.27855e-05
3.27921e-05
3.81411e-05
3.88008e-05
3.20276e-05
3.27892e-05
3.27896e-05
3.88005e-05
3.89802e-05
3.96289e-05
3.30362e-05
3.30403e-05
3.37879e-05
3.37871e-05
3.89906e-05
3.96199e-05
3.30342e-05
3.30411e-05
3.37856e-05
3.37872e-05
3.30422e-05
3.37851e-05
3.37897e-05
3.89884e-05
3.96224e-05
3.30397e-05
3.37865e-05
3.37871e-05
3.96261e-05
3.98137e-05
4.04265e-05
3.40363e-05
3.40338e-05
3.47705e-05
3.47691e-05
3.98031e-05
4.04256e-05
3.40342e-05
3.40353e-05
3.47684e-05
3.47718e-05
3.40378e-05
3.47671e-05
3.47732e-05
3.98083e-05
4.04288e-05
3.40352e-05
3.47712e-05
3.47709e-05
4.04288e-05
4.06045e-05
4.1205e-05
3.50124e-05
3.50122e-05
3.57313e-05
3.57328e-05
4.06048e-05
4.12062e-05
3.50106e-05
3.50143e-05
3.57292e-05
3.57332e-05
3.50161e-05
3.57311e-05
3.57358e-05
4.06064e-05
4.12064e-05
3.50138e-05
3.57329e-05
3.57336e-05
4.1209e-05
4.1378e-05
4.1958e-05
3.59686e-05
3.59696e-05
3.66708e-05
3.66695e-05
4.13786e-05
4.1953e-05
3.59667e-05
3.59697e-05
3.66688e-05
3.66716e-05
3.59726e-05
3.66679e-05
3.66739e-05
4.13783e-05
4.19586e-05
3.59704e-05
3.66715e-05
3.66718e-05
4.19598e-05
4.21244e-05
4.26878e-05
3.69012e-05
3.69e-05
3.75845e-05
3.75851e-05
4.212e-05
4.2689e-05
3.68995e-05
3.69026e-05
3.75827e-05
3.75849e-05
3.69044e-05
3.75836e-05
3.75873e-05
4.21264e-05
4.26853e-05
3.69023e-05
3.75851e-05
3.75854e-05
4.26881e-05
4.2851e-05
4.33932e-05
3.78098e-05
3.78106e-05
3.84747e-05
3.84746e-05
4.28519e-05
4.33909e-05
3.78082e-05
3.78098e-05
3.84727e-05
3.84759e-05
3.78125e-05
3.84732e-05
3.84782e-05
4.28475e-05
4.33974e-05
3.78106e-05
3.84762e-05
3.84763e-05
4.33973e-05
4.35478e-05
4.40672e-05
3.86919e-05
3.86918e-05
3.93325e-05
3.93324e-05
4.35462e-05
4.40656e-05
3.86902e-05
3.8694e-05
3.93309e-05
3.93336e-05
3.86959e-05
3.93312e-05
3.93365e-05
4.35531e-05
4.40645e-05
3.8694e-05
3.93341e-05
3.9335e-05
4.40698e-05
4.42181e-05
4.47239e-05
3.95431e-05
3.95428e-05
4.01651e-05
4.01655e-05
4.4216e-05
4.4724e-05
3.95416e-05
3.95428e-05
4.01633e-05
4.01645e-05
3.95469e-05
4.01644e-05
4.0168e-05
4.42137e-05
4.47247e-05
3.95454e-05
4.01652e-05
4.01663e-05
4.47251e-05
4.48697e-05
4.53562e-05
4.03693e-05
4.03697e-05
4.09709e-05
4.09708e-05
4.48701e-05
4.53541e-05
4.03678e-05
4.03697e-05
4.09694e-05
4.0973e-05
4.03717e-05
4.09698e-05
4.09731e-05
4.4872e-05
4.53582e-05
4.03701e-05
4.09738e-05
4.09718e-05
4.53576e-05
4.54963e-05
4.59657e-05
4.11676e-05
4.11674e-05
4.17466e-05
4.17467e-05
4.54943e-05
4.5965e-05
4.11663e-05
4.11693e-05
4.17452e-05
4.17466e-05
4.11704e-05
4.1746e-05
4.17507e-05
4.54976e-05
4.59647e-05
4.11691e-05
4.17477e-05
4.17494e-05
4.59693e-05
4.61004e-05
4.65446e-05
4.19361e-05
4.19362e-05
4.24924e-05
4.24921e-05
4.60995e-05
4.65426e-05
4.19348e-05
4.19358e-05
4.24909e-05
4.24917e-05
4.19402e-05
4.24914e-05
4.2495e-05
4.60989e-05
4.65429e-05
4.19389e-05
4.24929e-05
4.24937e-05
4.65455e-05
4.66743e-05
4.71075e-05
4.26737e-05
4.26734e-05
4.32085e-05
4.32088e-05
4.66726e-05
4.71073e-05
4.26725e-05
4.26732e-05
4.32071e-05
4.32091e-05
4.26762e-05
4.32082e-05
4.32118e-05
4.66728e-05
4.71096e-05
4.2675e-05
4.32104e-05
4.32107e-05
4.71112e-05
4.72324e-05
4.76443e-05
4.33841e-05
4.33847e-05
4.38984e-05
4.38991e-05
4.72325e-05
4.76444e-05
4.3383e-05
4.33853e-05
4.38972e-05
4.38995e-05
4.33879e-05
4.38988e-05
4.39014e-05
4.7235e-05
4.76444e-05
4.33868e-05
4.39009e-05
4.39004e-05
4.76454e-05
4.77647e-05
4.81604e-05
4.40653e-05
4.40661e-05
4.45577e-05
4.45583e-05
4.77646e-05
4.81605e-05
4.40643e-05
4.40659e-05
4.45564e-05
4.45576e-05
4.40681e-05
4.45578e-05
4.45602e-05
4.77637e-05
4.8162e-05
4.40672e-05
4.4559e-05
4.45592e-05
4.81631e-05
4.82748e-05
4.86562e-05
4.47188e-05
4.47193e-05
4.51898e-05
4.51897e-05
4.8275e-05
4.86535e-05
4.47177e-05
4.47192e-05
4.51889e-05
4.51903e-05
4.47218e-05
4.51896e-05
4.51928e-05
4.82774e-05
4.86534e-05
4.47208e-05
4.5192e-05
4.51921e-05
4.86566e-05
4.87695e-05
4.9132e-05
4.53437e-05
4.5343e-05
4.57972e-05
4.5796e-05
4.87658e-05
4.91305e-05
4.53429e-05
4.53427e-05
4.5796e-05
4.57944e-05
4.53461e-05
4.57957e-05
4.57993e-05
4.87644e-05
4.91314e-05
4.53454e-05
4.57959e-05
4.57983e-05
4.91353e-05
4.92335e-05
4.9563e-05
4.59432e-05
4.59433e-05
4.63619e-05
4.63662e-05
4.92343e-05
4.95693e-05
4.59422e-05
4.59428e-05
4.63611e-05
4.63679e-05
4.59467e-05
4.63664e-05
4.63671e-05
4.92369e-05
4.9571e-05
4.59456e-05
4.63701e-05
4.63666e-05
4.95668e-05
4.96691e-05
5.00337e-05
4.65008e-05
4.65042e-05
4.69268e-05
4.69234e-05
4.96733e-05
5.00238e-05
4.65001e-05
4.65047e-05
4.69256e-05
4.69197e-05
4.65047e-05
4.69233e-05
4.69264e-05
4.96725e-05
5.00202e-05
4.65044e-05
4.69212e-05
4.69256e-05
5.00311e-05
5.0131e-05
5.03841e-05
4.70648e-05
4.70601e-05
4.74331e-05
4.74328e-05
5.01204e-05
5.03857e-05
4.70638e-05
4.70574e-05
4.74325e-05
4.74361e-05
4.70649e-05
4.74331e-05
4.74378e-05
5.0119e-05
5.03933e-05
4.70639e-05
4.74383e-05
4.74371e-05
5.03894e-05
5.04644e-05
5.07803e-05
4.75462e-05
4.75486e-05
4.7908e-05
4.79129e-05
5.04693e-05
5.07874e-05
4.75459e-05
4.75519e-05
4.79072e-05
4.79107e-05
4.75514e-05
4.79134e-05
4.79117e-05
5.04759e-05
5.07826e-05
4.75511e-05
4.79127e-05
4.79114e-05
5.07843e-05
5.08838e-05
5.12134e-05
4.80385e-05
4.80425e-05
4.84223e-05
4.84218e-05
5.08894e-05
5.12093e-05
4.80377e-05
4.80389e-05
4.84213e-05
4.84192e-05
4.8042e-05
4.84223e-05
4.84239e-05
5.08836e-05
5.12075e-05
4.80415e-05
4.84215e-05
4.84231e-05
5.12107e-05
5.1297e-05
5.15134e-05
4.85389e-05
4.85371e-05
4.88511e-05
4.88477e-05
5.12914e-05
5.15066e-05
4.85382e-05
4.85357e-05
4.88503e-05
4.88491e-05
4.85393e-05
4.88479e-05
4.88515e-05
5.12912e-05
5.15118e-05
4.85386e-05
4.88511e-05
4.88512e-05
5.15141e-05
5.15834e-05
5.18205e-05
4.89476e-05
4.8945e-05
4.92401e-05
4.92425e-05
5.15777e-05
5.18271e-05
4.89472e-05
4.89469e-05
4.92401e-05
4.92429e-05
4.89502e-05
4.92436e-05
4.92476e-05
5.15831e-05
5.18259e-05
4.895e-05
4.92454e-05
4.92476e-05
5.18304e-05
5.19018e-05
5.21608e-05
4.93424e-05
4.93465e-05
4.96508e-05
4.96546e-05
5.19104e-05
5.21637e-05
4.93423e-05
4.93453e-05
4.96495e-05
4.96513e-05
4.93494e-05
4.96555e-05
4.96514e-05
5.19075e-05
5.21616e-05
4.93492e-05
4.96539e-05
4.96506e-05
5.21557e-05
5.22343e-05
5.24377e-05
4.97477e-05
4.97495e-05
5.00151e-05
5.00118e-05
5.22339e-05
5.24306e-05
4.97468e-05
4.97471e-05
5.00153e-05
5.00115e-05
4.97467e-05
5.00123e-05
5.00147e-05
5.22331e-05
5.24298e-05
4.97459e-05
5.00135e-05
5.00148e-05
5.24377e-05
5.25047e-05
5.27186e-05
5.01009e-05
5.00976e-05
5.03578e-05
5.03579e-05
5.24982e-05
5.27191e-05
5.01012e-05
5.00968e-05
5.03565e-05
5.03571e-05
5.01026e-05
5.0359e-05
5.03651e-05
5.24966e-05
5.27225e-05
5.01029e-05
5.036e-05
5.03647e-05
5.27282e-05
5.27848e-05
5.29436e-05
5.04419e-05
5.0443e-05
5.0673e-05
5.06773e-05
5.27871e-05
5.29524e-05
5.04407e-05
5.04439e-05
5.06737e-05
5.06803e-05
5.04491e-05
5.06786e-05
5.06744e-05
5.27929e-05
5.2954e-05
5.04483e-05
5.06826e-05
5.06747e-05
5.29421e-05
5.29936e-05
5.316e-05
5.07412e-05
5.07465e-05
5.0941e-05
5.09411e-05
5.30026e-05
5.31534e-05
5.07426e-05
5.07471e-05
5.09399e-05
5.09312e-05
5.07415e-05
5.09421e-05
5.09418e-05
5.30001e-05
5.31391e-05
5.07425e-05
5.09347e-05
5.09415e-05
5.31579e-05
5.32307e-05
5.34755e-05
5.10172e-05
5.10125e-05
5.12689e-05
5.12619e-05
5.32177e-05
5.34691e-05
5.10151e-05
5.10034e-05
5.1268e-05
5.12675e-05
5.10176e-05
5.12626e-05
5.12702e-05
5.32066e-05
5.34847e-05
5.10162e-05
5.12682e-05
5.12691e-05
5.34786e-05
5.35334e-05
5.36188e-05
5.13452e-05
5.1344e-05
5.1516e-05
5.15296e-05
5.35386e-05
5.36405e-05
5.13457e-05
5.13518e-05
5.15173e-05
5.15281e-05
5.1349e-05
5.15317e-05
5.1526e-05
5.35522e-05
5.36336e-05
5.13493e-05
5.15328e-05
5.15277e-05
5.36324e-05
5.36467e-05
5.37306e-05
5.15585e-05
5.1571e-05
5.16795e-05
5.16673e-05
5.36621e-05
5.36998e-05
5.15592e-05
5.15652e-05
5.16794e-05
5.16689e-05
5.15683e-05
5.16689e-05
5.1677e-05
5.3654e-05
5.37096e-05
5.15692e-05
5.1671e-05
5.16761e-05
5.37164e-05
5.37839e-05
5.39415e-05
5.17293e-05
5.17116e-05
5.19087e-05
5.19113e-05
5.37485e-05
5.39651e-05
5.17298e-05
5.17184e-05
5.19081e-05
5.19084e-05
5.17221e-05
5.19113e-05
5.19066e-05
5.37622e-05
5.39487e-05
5.17215e-05
5.19096e-05
5.19069e-05
5.39474e-05
5.39854e-05
5.40945e-05
5.19661e-05
5.19794e-05
5.21027e-05
5.21152e-05
5.40182e-05
5.41024e-05
5.19646e-05
5.19687e-05
5.21008e-05
5.21031e-05
5.19708e-05
5.21178e-05
5.2112e-05
5.39957e-05
5.4096e-05
5.19707e-05
5.21087e-05
5.21107e-05
5.41001e-05
5.41473e-05
5.42696e-05
5.21509e-05
5.21501e-05
5.22974e-05
5.22822e-05
5.4138e-05
5.425e-05
5.2151e-05
5.21498e-05
5.23018e-05
5.23022e-05
5.21548e-05
5.22841e-05
5.23002e-05
5.4145e-05
5.42733e-05
5.21541e-05
5.23018e-05
5.23027e-05
5.42774e-05
5.42885e-05
5.42286e-05
5.23343e-05
5.23265e-05
5.23687e-05
5.23808e-05
5.42794e-05
5.4252e-05
5.23377e-05
5.23392e-05
5.23664e-05
5.23669e-05
5.23415e-05
5.23825e-05
5.23774e-05
5.42939e-05
5.42285e-05
5.23436e-05
5.23749e-05
5.23768e-05
5.42327e-05
5.42537e-05
5.45697e-05
5.23811e-05
5.23922e-05
5.25603e-05
5.25513e-05
5.4273e-05
5.45496e-05
5.23777e-05
5.23773e-05
5.25624e-05
5.25643e-05
5.23851e-05
5.25514e-05
5.25471e-05
5.42515e-05
5.45692e-05
5.23843e-05
5.25583e-05
5.25494e-05
5.45522e-05
5.46595e-05
5.45803e-05
5.26519e-05
5.26408e-05
5.2724e-05
5.27202e-05
5.46386e-05
5.4576e-05
5.26552e-05
5.26519e-05
5.27239e-05
5.27073e-05
5.26422e-05
5.2722e-05
5.27222e-05
5.46479e-05
5.45325e-05
5.26438e-05
5.27097e-05
5.27193e-05
5.45687e-05
5.45484e-05
5.42412e-05
5.27025e-05
5.2703e-05
5.25714e-05
5.25896e-05
5.45497e-05
5.42843e-05
5.27006e-05
5.26839e-05
5.25725e-05
5.26014e-05
5.27038e-05
5.25938e-05
5.26013e-05
5.45099e-05
5.43296e-05
5.26999e-05
5.26109e-05
5.26033e-05
5.43036e-05
5.42673e-05
5.48225e-05
5.25723e-05
5.25903e-05
5.2783e-05
5.27776e-05
5.43107e-05
5.47916e-05
5.25741e-05
5.26058e-05
5.27929e-05
5.27959e-05
5.26038e-05
5.27854e-05
5.27986e-05
5.43747e-05
5.47667e-05
5.26065e-05
5.27963e-05
5.28081e-05
5.48009e-05
5.49437e-05
5.48753e-05
5.29191e-05
5.29014e-05
5.3015e-05
5.29889e-05
5.49018e-05
5.48213e-05
5.29204e-05
5.28821e-05
5.30049e-05
5.29481e-05
5.28991e-05
5.29812e-05
5.29586e-05
5.4835e-05
5.47752e-05
5.29026e-05
5.29459e-05
5.29517e-05
5.4765e-05
5.48514e-05
5.45238e-05
5.2996e-05
5.2971e-05
5.28266e-05
5.28376e-05
5.48e-05
5.45678e-05
5.29861e-05
5.2942e-05
5.28326e-05
5.28832e-05
5.29433e-05
5.2841e-05
5.28546e-05
5.47761e-05
5.46603e-05
5.29343e-05
5.28817e-05
5.28535e-05
5.4611e-05
5.45172e-05
5.43709e-05
5.27757e-05
5.28082e-05
5.2724e-05
5.27814e-05
5.45731e-05
5.45038e-05
5.27856e-05
5.28552e-05
5.27341e-05
5.27784e-05
5.28331e-05
5.27939e-05
5.28033e-05
5.46634e-05
5.44636e-05
5.28355e-05
5.27953e-05
5.28094e-05
5.45172e-05
5.44116e-05
5.54085e-05
5.27372e-05
5.27914e-05
5.31669e-05
5.30934e-05
5.45402e-05
5.51825e-05
5.27456e-05
5.27795e-05
5.3148e-05
5.30113e-05
5.28089e-05
5.30834e-05
5.30559e-05
5.44762e-05
5.50862e-05
5.28148e-05
5.30093e-05
5.30525e-05
5.512e-05
5.54853e-05
5.44708e-05
5.32498e-05
5.31458e-05
5.30588e-05
5.29789e-05
5.5229e-05
5.44163e-05
5.32327e-05
5.3128e-05
5.30685e-05
5.31024e-05
5.31132e-05
5.29575e-05
5.30079e-05
5.52079e-05
5.47737e-05
5.3109e-05
5.30864e-05
5.30102e-05
5.45484e-05
5.42492e-05
5.41039e-05
5.27767e-05
5.27922e-05
5.25442e-05
5.26821e-05
5.43038e-05
5.45048e-05
5.28019e-05
5.29463e-05
5.25536e-05
5.25723e-05
5.28285e-05
5.27099e-05
5.26632e-05
5.4611e-05
5.40301e-05
5.28316e-05
5.25876e-05
5.26534e-05
5.42779e-05
5.43888e-05
5.51209e-05
5.26105e-05
5.27494e-05
5.30273e-05
5.29463e-05
5.47e-05
5.48422e-05
5.26058e-05
5.25864e-05
5.30073e-05
5.30111e-05
5.27013e-05
5.2927e-05
5.29864e-05
5.41287e-05
5.52273e-05
5.26874e-05
5.30306e-05
5.30098e-05
5.50358e-05
5.5101e-05
5.46658e-05
5.30332e-05
5.2946e-05
5.29742e-05
5.29386e-05
5.4799e-05
5.47003e-05
5.30214e-05
5.31204e-05
5.29862e-05
5.30574e-05
5.29971e-05
5.29226e-05
5.29636e-05
5.5309e-05
5.47618e-05
5.30327e-05
5.30716e-05
5.29846e-05
5.47223e-05
5.473e-05
5.59798e-05
5.29946e-05
5.29713e-05
5.32841e-05
5.31723e-05
5.48232e-05
5.56234e-05
5.30058e-05
5.29773e-05
5.32815e-05
5.29569e-05
5.2973e-05
5.31896e-05
5.31238e-05
5.47124e-05
5.51159e-05
5.29856e-05
5.28995e-05
5.30625e-05
5.55012e-05
5.59822e-05
5.23208e-05
5.32667e-05
5.31547e-05
5.20615e-05
5.22589e-05
5.56285e-05
5.28721e-05
5.32651e-05
5.29561e-05
5.2104e-05
5.24749e-05
5.31082e-05
5.22761e-05
5.21859e-05
5.51815e-05
5.34517e-05
5.30428e-05
5.24409e-05
5.2148e-05
5.27018e-05
5.15186e-05
5.05462e-05
5.11392e-05
5.14479e-05
5.05243e-05
5.08035e-05
5.2185e-05
5.1086e-05
5.11704e-05
5.16938e-05
5.04996e-05
5.07182e-05
5.13681e-05
5.07941e-05
5.06732e-05
5.27511e-05
5.08131e-05
5.13823e-05
5.08218e-05
5.0741e-05
5.0802e-05
5.14247e-05
6.12595e-05
5.08428e-05
5.10407e-05
5.53746e-05
5.46816e-05
5.17184e-05
5.95898e-05
5.07961e-05
5.0869e-05
5.53272e-05
5.49452e-05
5.08915e-05
5.46166e-05
5.53019e-05
5.10797e-05
6.10937e-05
5.09556e-05
5.49095e-05
5.53129e-05
6.18034e-05
6.13762e-05
5.52971e-05
5.44709e-05
5.96644e-05
5.53172e-05
5.51507e-05
4.29592e-05
4.32259e-05
4.33899e-05
5.54918e-05
6.15335e-05
5.55115e-05
3.73773e-05
3.73765e-05
3.7377e-05
3.7377e-05
3.73701e-05
3.73777e-05
3.73043e-05
3.73768e-05
3.73701e-05
3.73777e-05
3.73768e-05
3.73043e-05
3.73741e-05
3.72959e-05
3.72959e-05
3.58798e-05
4.08723e-05
3.66034e-05
4.51461e-05
5.51147e-05
6.4895e-05
3.58803e-05
4.08715e-05
3.66034e-05
4.51462e-05
3.58932e-05
3.58933e-05
3.58932e-05
3.44005e-05
3.44005e-05
3.44005e-05
3.44005e-05
3.52757e-05
3.56386e-05
3.58929e-05
3.53771e-05
3.60476e-05
3.42362e-05
3.53822e-05
5.51168e-05
6.48993e-05
3.52758e-05
3.58929e-05
3.56381e-05
3.53771e-05
3.60475e-05
3.53822e-05
3.42373e-05
3.65971e-05
3.65977e-05
3.5279e-05
3.40641e-05
3.40633e-05
3.39657e-05
5.13541e-05
3.46793e-05
5.46242e-05
7.65449e-05
8.08613e-05
3.39682e-05
5.1355e-05
3.46789e-05
5.46249e-05
3.39296e-05
3.39297e-05
3.39297e-05
3.25854e-05
3.25854e-05