/*--------------------------------*- C++ -*----------------------------------*\
| =========                 |                                                 |
| \\      /  F ield         | OpenFOAM: The Open Source CFD Toolbox           |
|  \\    /   O peration     | Version:  v2012                                 |
|   \\  /    A nd           | Website:  www.openfoam.com                      |
|    \\/     M anipulation  |                                                 |
\*---------------------------------------------------------------------------*/
FoamFile
{
    version     2.0;
    format      ascii;
    class       volScalarField;
    location    "875";
    object      nut;
}
// * * * * * * * * * * * * * * * * * * * * * * * * * * * * * * * * * * * * * //

dimensions      [0 2 -1 0 0 0 0];


internalField   nonuniform List<scalar> 
171728
(
0.000233973
0.000233116
0.000233116
0.000233423
0.000232532
0.000227802
0.000227801
0.000223867
0.000230516
0.00022032
0.000220318
0.000209109
0.000227799
0.000211665
0.000211661
0.000193785
0.000224433
0.00020265
0.000202644
0.00017971
0.000220552
0.000193772
0.000193765
0.00016734
0.000216304
0.000185275
0.000185268
0.000156587
0.00021182
0.000177234
0.000177226
0.000147205
0.000207207
0.000169689
0.000169681
0.000138952
0.000202545
0.000162612
0.000162603
0.000131609
0.000197889
0.000155949
0.000155941
0.000124954
0.000193276
0.000149648
0.00014964
0.000118826
0.000188683
0.000143667
0.000143658
0.000113162
0.000184152
0.000137954
0.000137948
0.000107921
0.000179701
0.000132467
0.000132476
0.000102942
0.000175334
0.000127227
0.000127236
9.86877e-05
0.000171053
0.000122209
0.000122155
9.4898e-05
0.000166834
0.000117562
0.000117617
9.13384e-05
0.000162628
0.000113102
0.000113219
8.82016e-05
0.000158532
0.00010898
0.000108488
8.47991e-05
0.000154147
0.00010547
0.00010549
8.63176e-05
0.000150327
0.000101801
0.000102052
8.43042e-05
0.000146125
9.8824e-05
9.96404e-05
8.42839e-05
0.000141934
9.6397e-05
9.58841e-05
7.94928e-05
0.000138199
9.51614e-05
9.5113e-05
8.31888e-05
0.00013418
9.32614e-05
9.29986e-05
8.18287e-05
0.000130595
9.27252e-05
9.23788e-05
8.44767e-05
0.000127129
9.21579e-05
9.25696e-05
8.74219e-05
0.000124044
9.30623e-05
9.28075e-05
8.88482e-05
0.000120721
9.26095e-05
9.28631e-05
9.03334e-05
0.000118215
9.43555e-05
9.41898e-05
9.28338e-05
0.000115845
9.56058e-05
9.56675e-05
9.54678e-05
0.000113717
9.71791e-05
9.71065e-05
9.79284e-05
0.000111985
9.91055e-05
9.91602e-05
0.00010083
0.000110684
0.000101405
0.000101386
0.000103364
0.00010971
0.000103763
0.00010376
0.000106037
0.00010908
0.000106346
0.000106346
0.000108823
0.000108841
0.000109091
0.00010909
0.000111488
0.000108956
0.00011194
0.000111942
0.000114256
0.000109423
0.000114922
0.000114926
0.000116975
0.000110213
0.000117955
0.000117962
0.000119682
0.000111335
0.000121077
0.000121072
0.00012231
0.000112761
0.000124222
0.00012423
0.00012502
0.000114463
0.000127431
0.000127427
0.000127604
0.000116436
0.000130602
0.000130605
0.000130212
0.000118659
0.000133802
0.00013381
0.000132758
0.000121095
0.000136992
0.000136985
0.000135274
0.000123739
0.00014013
0.000140144
0.000137733
0.000126561
0.00014328
0.000143268
0.000140165
0.000129549
0.000146368
0.00014638
0.000142559
0.000132654
0.000149393
0.000149389
0.000144845
0.000135879
0.000152396
0.000152393
0.00014711
0.000139217
0.000155339
0.000155351
0.000149346
0.000142613
0.000158223
0.000158217
0.00015152
0.000146085
0.000161028
0.000161024
0.000153577
0.00014957
0.000163789
0.000163792
0.000155655
0.000153118
0.000166478
0.000166475
0.000157615
0.000156646
0.0001691
0.000169099
0.000159553
0.000160213
0.000171647
0.000171645
0.000161435
0.000163734
0.000174155
0.000174151
0.000163259
0.000167227
0.000176511
0.000176514
0.000164919
0.000170725
0.00017895
0.00017893
0.000166832
0.000174121
0.000181023
0.00018105
0.00016804
0.000177389
0.000183257
0.000183229
0.000169832
0.00018089
0.000185613
0.000185603
0.000171619
0.000184127
0.000187435
0.000187452
0.00017273
0.000187144
0.000189329
0.000189318
0.000174111
0.000190289
0.000191339
0.000191322
0.000175515
0.000193307
0.00019304
0.000193036
0.000176748
0.000196214
0.00019484
0.000194844
0.000178067
0.00019902
0.000196411
0.000196418
0.000178877
0.000201591
0.00019777
0.000197701
0.000179987
0.000204453
0.000199771
0.000199824
0.000181688
0.000207025
0.000201058
0.000201024
0.000182131
0.000209116
0.000201734
0.000201773
0.000182557
0.000211376
0.000203489
0.000203419
0.000183874
0.000213781
0.000204636
0.000204615
0.000184701
0.00021593
0.000205824
0.00020593
0.000185605
0.000217573
0.00020625
0.000206157
0.000185136
0.000219752
0.000208224
0.000208253
0.00018782
0.000221803
0.000208782
0.000208674
0.000187104
0.000222253
0.00020807
0.000208181
0.00018579
0.000224324
0.000210613
0.000210432
0.000189529
0.000226648
0.000211213
0.000211027
0.000188655
0.000227177
0.00021063
0.00021099
0.000188093
0.000227777
0.000211098
0.000211016
0.000188006
0.000230658
0.000213815
0.000213531
0.000192295
0.00023039
0.000211133
0.00021222
0.000186966
0.000230452
0.000211693
0.000210768
0.000188055
0.000234421
0.00021538
0.000216921
0.000193385
0.000234255
0.000214647
0.000213884
0.000190417
0.00023015
0.00021188
0.000209753
0.000192337
0.000226748
0.000202921
0.000205486
0.000171347
0.00023782
0.000211197
0.00021062
0.000175161
0.000265798
0.000250964
0.000256834
0.000266481
0.000234266
0.000234448
0.000234449
0.000234267
0.000234448
0.000234449
0.000234274
0.000234274
0.000234274
0.000234274
0.000234448
0.000234448
0.000234266
0.000234448
0.000234448
0.000234266
0.000233423
0.000226204
0.000233116
0.000233114
0.000229361
0.000229357
0.000233423
0.000226205
0.000233114
0.000233114
0.000229359
0.000229356
0.000233116
0.000229364
0.000229361
0.000233423
0.000226202
0.000233114
0.000229363
0.000229359
0.000226202
0.000223867
0.00021223
0.000227799
0.000227794
0.000222332
0.000222326
0.000223868
0.000212234
0.000227797
0.000227792
0.000222332
0.000222323
0.000227798
0.000222339
0.000222331
0.000223866
0.000212227
0.000227797
0.000222336
0.000222331
0.000212228
0.000209111
0.00019706
0.000220313
0.000220307
0.000213879
0.000213874
0.000209112
0.000197065
0.000220314
0.000220304
0.000213883
0.000213869
0.000220311
0.00021389
0.000213877
0.000209108
0.000197056
0.000220313
0.000213886
0.000213882
0.000197058
0.000193788
0.000182877
0.000211654
0.000211648
0.00020489
0.000204884
0.000193792
0.000182883
0.000211658
0.000211643
0.000204898
0.000204879
0.000211651
0.000204905
0.000204887
0.000193785
0.000182872
0.000211657
0.000204899
0.000204896
0.000182872
0.000179713
0.000170268
0.000202634
0.000202628
0.000195943
0.000195937
0.000179716
0.000170275
0.000202643
0.000202622
0.000195954
0.000195931
0.000202631
0.000195962
0.00019594
0.000179708
0.000170264
0.000202641
0.000195955
0.000195953
0.000170263
0.000167344
0.000159242
0.000193752
0.000193747
0.000187336
0.000187331
0.000167349
0.000159249
0.000193765
0.00019374
0.000187351
0.000187324
0.00019375
0.000187359
0.000187334
0.000167339
0.000159238
0.000193764
0.000187351
0.00018735
0.000159238
0.000156591
0.000149613
0.000185253
0.000185247
0.000179173
0.000179168
0.000156597
0.000149621
0.000185268
0.00018524
0.000179191
0.00017916
0.000185249
0.000179198
0.00017917
0.000156587
0.000149609
0.000185267
0.00017919
0.00017919
0.000149607
0.000147212
0.000141108
0.000177209
0.000177203
0.000171501
0.000171496
0.000147217
0.000141112
0.000177227
0.000177196
0.000171522
0.000171488
0.000177205
0.000171529
0.000171499
0.000147206
0.0001411
0.000177226
0.00017152
0.000171521
0.000141102
0.000138954
0.000133544
0.00016966
0.000169656
0.00016431
0.000164305
0.000138959
0.000133556
0.000169682
0.000169648
0.000164333
0.000164297
0.000169658
0.00016434
0.000164307
0.00013895
0.000133544
0.00016968
0.000164331
0.000164332
0.00013354
0.000131625
0.000126691
0.000162582
0.000162576
0.000157548
0.000157542
0.000131633
0.000126698
0.000162605
0.000162567
0.000157573
0.000157534
0.000162579
0.00015758
0.000157546
0.00013162
0.000126681
0.000162604
0.00015757
0.000157572
0.000126673
0.000124967
0.000120366
0.000155917
0.000155912
0.000151159
0.000151153
0.000124962
0.000120367
0.000155943
0.000155904
0.000151186
0.000151146
0.000155916
0.000151192
0.000151159
0.000124946
0.000120352
0.000155943
0.000151184
0.000151187
0.000120359
0.000118817
0.00011439
0.000149612
0.00014961
0.000145092
0.000145093
0.000118821
0.00011443
0.00014964
0.000149601
0.00014512
0.000145083
0.000149611
0.000145134
0.000145098
0.000118818
0.000114412
0.00014964
0.000145123
0.000145126
0.000114434
0.000113132
0.000108819
0.00014363
0.000143625
0.000139325
0.000139321
0.000113199
0.000108895
0.000143658
0.000143617
0.000139348
0.000139303
0.00014363
0.000139363
0.000139318
0.000113149
0.000108774
0.000143655
0.000139344
0.000139347
0.000108834
0.000107974
0.000103671
0.000137934
0.000137913
0.000133765
0.000133781
0.000107983
0.000103778
0.000137952
0.000137906
0.000133794
0.000133783
0.000137906
0.000133822
0.000133778
0.000107904
0.000103749
0.000137938
0.000133825
0.000133806
0.000103694
0.000102974
9.91676e-05
0.000132388
0.000132423
0.00012845
0.000128401
0.000103064
9.89694e-05
0.000132419
0.000132432
0.000128483
0.000128421
0.000132373
0.000128451
0.000128502
0.000103109
9.90418e-05
0.000132398
0.00012847
0.000128533
9.93651e-05
9.84594e-05
9.52841e-05
0.000127127
0.000127181
0.000123416
0.00012331
9.83395e-05
9.50133e-05
0.000127159
0.000127189
0.000123443
0.000123244
0.000127178
0.000123355
0.000123382
9.84409e-05
9.47516e-05
0.000127211
0.000123289
0.000123412
9.52372e-05
9.46157e-05
9.21477e-05
0.000122208
0.000122161
0.000118595
0.000118716
9.43206e-05
9.25471e-05
0.000122234
0.00012211
0.00011862
0.000118842
0.000122314
0.000118764
0.000118686
9.41457e-05
9.28601e-05
0.000122344
0.000118886
0.000118713
9.22549e-05
9.16396e-05
9.00877e-05
0.000117597
0.000117515
0.000114318
0.000114172
9.16556e-05
8.92271e-05
0.000117621
0.000117572
0.000114343
0.000114241
0.000117381
0.000114219
0.000114185
9.20153e-05
8.92587e-05
0.000117408
0.000114288
0.000114211
8.89486e-05
8.92865e-05
8.82353e-05
0.000113071
0.000113054
0.000110357
0.00010972
8.84945e-05
8.61957e-05
0.000113095
0.000113172
0.000110381
0.000109494
0.00011297
0.000109765
0.000109435
8.87729e-05
8.5313e-05
0.000112997
0.000109538
0.00010946
8.49599e-05
8.74715e-05
8.21986e-05
0.000109347
0.000108938
0.000105314
0.00010647
8.59903e-05
8.62098e-05
0.000109369
0.000108447
0.000105333
0.000106183
0.000108599
0.000106517
0.000106534
8.45123e-05
8.54104e-05
0.000108622
0.000106229
0.000106557
8.66113e-05
8.11673e-05
8.55125e-05
0.000104367
0.000105417
0.000102961
0.00010255
8.55589e-05
8.29077e-05
0.000104387
0.000105441
0.000102981
0.000102824
0.000105658
0.000102597
0.000102866
8.54328e-05
8.40411e-05
0.000105681
0.00010287
0.000102889
8.41278e-05
8.67403e-05
8.39021e-05
0.000102795
0.00010176
0.000100186
9.9419e-05
8.25643e-05
8.17715e-05
0.000102812
0.000102012
0.000100203
0.00010029
0.000102163
9.94656e-05
0.000100584
8.37076e-05
8.4988e-05
0.000102184
0.000100335
0.000100606
8.54131e-05
8.27148e-05
8.12364e-05
9.91014e-05
9.87759e-05
9.69429e-05
9.65445e-05
8.13312e-05
8.09605e-05
9.91186e-05
9.95956e-05
9.69614e-05
9.66205e-05
9.95801e-05
9.65845e-05
9.63019e-05
8.4423e-05
8.05203e-05
9.96034e-05
9.66609e-05
9.63238e-05
7.93444e-05
8.08252e-05
8.24931e-05
9.60219e-05
9.63597e-05
9.51355e-05
9.56094e-05
8.12284e-05
8.44746e-05
9.60369e-05
9.58454e-05
9.51479e-05
9.53173e-05
9.57684e-05
9.56554e-05
9.52368e-05
7.9938e-05
8.36418e-05
9.57878e-05
9.53626e-05
9.52539e-05
8.31629e-05
8.3795e-05
8.28719e-05
9.52787e-05
9.51188e-05
9.35088e-05
9.35707e-05
8.41364e-05
8.29496e-05
9.52904e-05
9.50691e-05
9.35222e-05
9.3458e-05
9.49439e-05
9.36109e-05
9.3473e-05
8.37748e-05
8.26381e-05
9.49612e-05
9.34943e-05
9.3489e-05
8.22828e-05
8.21637e-05
8.43514e-05
9.29503e-05
9.32216e-05
9.26813e-05
9.28238e-05
8.29037e-05
8.48779e-05
9.29644e-05
9.29592e-05
9.2692e-05
9.24414e-05
9.28799e-05
9.286e-05
9.23849e-05
8.22616e-05
8.36238e-05
9.28939e-05
9.24754e-05
9.24004e-05
8.36054e-05
8.49021e-05
8.64024e-05
9.26833e-05
9.2689e-05
9.23221e-05
9.21547e-05
8.51181e-05
8.57522e-05
9.2693e-05
9.23442e-05
9.23312e-05
9.23271e-05
9.26082e-05
9.21912e-05
9.25806e-05
8.40313e-05
8.6399e-05
9.26213e-05
9.2362e-05
9.25914e-05
8.71545e-05
8.69234e-05
8.9495e-05
9.24337e-05
9.21189e-05
9.31064e-05
9.2986e-05
8.61381e-05
8.9333e-05
9.24431e-05
9.2534e-05
9.31177e-05
9.29251e-05
9.25897e-05
9.30144e-05
9.28857e-05
8.70523e-05
8.91597e-05
9.26016e-05
9.29521e-05
9.29e-05
8.886e-05
8.93657e-05
8.84786e-05
9.29229e-05
9.30401e-05
9.23327e-05
9.24942e-05
8.96474e-05
8.88847e-05
9.29301e-05
9.27844e-05
9.23374e-05
9.25095e-05
9.26306e-05
9.25271e-05
9.27748e-05
8.90633e-05
8.91805e-05
9.26422e-05
9.254e-05
9.27803e-05
8.95999e-05
8.90457e-05
9.31815e-05
9.25756e-05
9.2572e-05
9.40718e-05
9.38891e-05
8.90697e-05
9.28213e-05
9.25854e-05
9.2827e-05
9.40848e-05
9.39525e-05
9.31539e-05
9.39207e-05
9.38239e-05
8.97422e-05
9.28478e-05
9.31638e-05
9.39834e-05
9.38365e-05
9.25148e-05
9.36909e-05
9.51917e-05
9.43638e-05
9.43299e-05
9.52786e-05
9.51907e-05
9.34874e-05
9.50998e-05
9.43742e-05
9.41638e-05
9.52784e-05
9.52035e-05
9.41111e-05
9.52168e-05
9.52147e-05
9.31331e-05
9.51581e-05
9.412e-05
9.52269e-05
9.52184e-05
9.51091e-05
9.56976e-05
9.74907e-05
9.56924e-05
9.55781e-05
9.67527e-05
9.67938e-05
9.55024e-05
9.76781e-05
9.56955e-05
9.56427e-05
9.67557e-05
9.6689e-05
9.55134e-05
9.68157e-05
9.66764e-05
9.57121e-05
9.74068e-05
9.55184e-05
9.67103e-05
9.66822e-05
9.73781e-05
9.78211e-05
0.000100093
9.71381e-05
9.71568e-05
9.85404e-05
9.85329e-05
9.8011e-05
0.000100063
9.71407e-05
9.70852e-05
9.85432e-05
9.85879e-05
9.71369e-05
9.85603e-05
9.86991e-05
9.77598e-05
0.000100236
9.71414e-05
9.86131e-05
9.87043e-05
0.000100365
0.000100644
0.000102966
9.91173e-05
9.90781e-05
0.000100806
0.000100811
0.000100608
0.000103019
9.91202e-05
9.9135e-05
0.00010081
0.0001008
9.92208e-05
0.000100834
0.000100771
0.000100758
0.000102972
9.92265e-05
0.00010082
0.000100775
0.000102874
0.000103402
0.000105643
0.000101357
0.000101383
0.000103163
0.000103127
0.000103483
0.000105579
0.00010136
0.000101366
0.000103164
0.000103139
0.000101364
0.00010315
0.000103146
0.000103436
0.000105597
0.000101367
0.000103159
0.000103149
0.000105595
0.000106123
0.000108259
0.000103777
0.00010374
0.000105657
0.00010566
0.000106056
0.000108309
0.000103779
0.00010374
0.000105658
0.000105651
0.000103741
0.000105681
0.000105668
0.000106056
0.000108295
0.000103744
0.000105671
0.00010567
0.000108307
0.000108751
0.000111045
0.000106318
0.000106323
0.000108382
0.000108376
0.000108799
0.000111048
0.00010632
0.000106326
0.000108383
0.000108381
0.00010635
0.000108399
0.00010839
0.000108804
0.000111048
0.000106352
0.000108402
0.000108391
0.000111025
0.000111528
0.000113756
0.000109078
0.000109068
0.000111209
0.000111187
0.000111526
0.000113732
0.00010908
0.000109069
0.00011121
0.000111192
0.000109073
0.000111208
0.000111211
0.000111518
0.000113735
0.000109075
0.000111211
0.000111213
0.000113756
0.00011426
0.000116484
0.000111945
0.000111919
0.000114163
0.000114153
0.000114232
0.000116496
0.000111946
0.000111923
0.000114164
0.000114153
0.000111944
0.000114174
0.000114171
0.000114234
0.000116494
0.000111946
0.000114173
0.000114172
0.000116493
0.000116958
0.000119164
0.000114908
0.000114901
0.000117174
0.000117163
0.000116974
0.000119164
0.000114909
0.000114906
0.000117175
0.000117175
0.00011492
0.000117184
0.000117201
0.00011698
0.000119177
0.000114921
0.000117195
0.000117203
0.000119203
0.000119646
0.000121867
0.000117942
0.000117934
0.000120279
0.000120277
0.000119651
0.000121878
0.000117944
0.000117942
0.000120281
0.000120272
0.000117968
0.000120297
0.000120283
0.000119656
0.000121859
0.00011797
0.000120291
0.000120285
0.000121842
0.000122343
0.00012455
0.000121064
0.000121057
0.00012344
0.000123415
0.000122347
0.000124508
0.000121067
0.000121053
0.000123442
0.000123414
0.000121061
0.000123434
0.00012343
0.000122329
0.000124516
0.000121062
0.000123432
0.000123432
0.000124533
0.000125016
0.000127116
0.000124233
0.000124203
0.000126595
0.000126605
0.000124973
0.00012718
0.000124236
0.000124212
0.000126599
0.000126615
0.000124236
0.000126625
0.000126632
0.000124993
0.000127173
0.000124237
0.000126635
0.000126636
0.000127167
0.000127571
0.00012978
0.000127387
0.000127411
0.000129804
0.000129791
0.000127649
0.000129733
0.000127391
0.000127407
0.000129807
0.000129781
0.000127418
0.00012981
0.000129802
0.000127619
0.000129733
0.000127421
0.000129801
0.000129804
0.000129752
0.000130235
0.00013231
0.00013061
0.000130584
0.000132999
0.000132982
0.000130176
0.000132315
0.000130613
0.000130586
0.000133003
0.000132993
0.000130606
0.000133
0.000133005
0.000130195
0.00013232
0.000130608
0.000133012
0.000133008
0.000132315
0.000132746
0.000134836
0.000133792
0.000133784
0.000136176
0.000136181
0.000132759
0.000134855
0.000133797
0.00013379
0.000136179
0.000136174
0.000133804
0.0001362
0.000136195
0.000132754
0.000134841
0.000133808
0.000136195
0.000136199
0.000134853
0.000135266
0.000137316
0.000136971
0.000136974
0.000139344
0.00013933
0.00013528
0.000137294
0.000136976
0.000136965
0.000139349
0.000139336
0.000136987
0.000139347
0.000139353
0.000135264
0.000137316
0.00013699
0.000139356
0.000139357
0.000137318
0.000137727
0.00013976
0.000140128
0.000140113
0.000142476
0.000142476
0.000137709
0.000139777
0.000140133
0.000140124
0.000142481
0.000142466
0.000140136
0.000142493
0.000142482
0.000137736
0.000139739
0.000140141
0.000142487
0.000142488
0.000139752
0.000140174
0.000142157
0.000143261
0.000143262
0.000145592
0.000145587
0.00014019
0.000142152
0.000143267
0.000143247
0.000145597
0.000145589
0.000143266
0.000145604
0.000145604
0.000140148
0.00014218
0.000143271
0.000145609
0.000145609
0.000142174
0.000142538
0.000144457
0.000146356
0.000146351
0.000148626
0.000148621
0.000142538
0.000144456
0.000146361
0.000146359
0.000148633
0.000148622
0.000146371
0.000148639
0.000148641
0.000142569
0.000144436
0.000146376
0.000148644
0.000148649
0.000144464
0.000144838
0.00014675
0.000149381
0.000149375
0.000151633
0.000151632
0.000144833
0.00014676
0.000149388
0.000149367
0.000151638
0.000151617
0.000149395
0.000151649
0.00015164
0.000144805
0.000146751
0.000149402
0.000151638
0.000151646
0.000146748
0.000147119
0.000148987
0.00015238
0.000152379
0.000154597
0.000154593
0.00014713
0.000148982
0.000152386
0.000152372
0.000154605
0.000154602
0.000152383
0.00015461
0.0001546
0.00014713
0.000148996
0.000152389
0.000154623
0.000154608
0.000148986
0.000149339
0.000151172
0.000155327
0.000155322
0.000157492
0.000157489
0.000149335
0.000151176
0.000155335
0.000155329
0.000157499
0.000157482
0.000155333
0.000157508
0.000157509
0.000149344
0.000151162
0.000155342
0.000157504
0.000157517
0.000151186
0.000151509
0.000153256
0.000158207
0.000158204
0.000160322
0.000160317
0.000151512
0.000153252
0.000158215
0.000158194
0.000160329
0.000160307
0.000158223
0.000160335
0.000160328
0.000151496
0.000153241
0.000158231
0.00016033
0.000160336
0.000153252
0.00015358
0.000155328
0.000161016
0.00016101
0.000163082
0.000163081
0.000153578
0.000155335
0.000161024
0.000161002
0.00016309
0.000163078
0.00016102
0.000163099
0.000163094
0.000153567
0.000155338
0.000161029
0.0001631
0.000163103
0.000155343
0.000155639
0.00015732
0.00016377
0.000163771
0.000165796
0.000165798
0.000155648
0.000157329
0.000163779
0.000163769
0.000165805
0.000165795
0.000163784
0.000165817
0.000165805
0.000155653
0.000157317
0.000163793
0.000165819
0.000165815
0.000157318
0.00015762
0.000159263
0.000166457
0.000166459
0.000168428
0.000168429
0.000157627
0.000159273
0.000166466
0.000166451
0.000168436
0.000168419
0.000166463
0.000168448
0.000168434
0.00015761
0.000159271
0.000166473
0.000168442
0.000168443
0.000159272
0.000159542
0.00016116
0.000169081
0.000169082
0.000171002
0.000170997
0.000159551
0.00016115
0.00016909
0.000169076
0.000171012
0.000170996
0.00016909
0.000171018
0.000171011
0.000159555
0.000161138
0.000169099
0.000171022
0.000171022
0.000161153
0.000161448
0.000163008
0.000171635
0.000171627
0.000173529
0.000173517
0.000161431
0.000163006
0.000171646
0.00017162
0.000173537
0.000173499
0.00017164
0.000173535
0.000173532
0.000161411
0.000163
0.000171652
0.000173523
0.000173541
0.000163021
0.000163234
0.000164645
0.000174139
0.000174137
0.000175876
0.000175904
0.000163248
0.000164695
0.000174148
0.000174128
0.000175887
0.000175913
0.000174152
0.000175927
0.000175902
0.000163254
0.000164694
0.00017416
0.000175941
0.000175915
0.00016466
0.000164917
0.000166621
0.000176465
0.000176488
0.000178356
0.000178326
0.000164953
0.000166563
0.000176477
0.000176487
0.000178364
0.000178293
0.000176481
0.000178345
0.000178339
0.000164937
0.000166528
0.000176495
0.000178316
0.000178349
0.000166595
0.000166852
0.00016788
0.000178973
0.000178932
0.000180526
0.000180519
0.000166788
0.000167897
0.000178981
0.000178907
0.000180538
0.00018054
0.00017896
0.000180541
0.000180548
0.000166768
0.000167937
0.000178968
0.000180568
0.000180559
0.000167906
0.000168011
0.000169516
0.000180986
0.000181
0.000182585
0.000182619
0.000168051
0.000169572
0.000181
0.000181021
0.000182596
0.000182598
0.000181012
0.000182642
0.0001826
0.000168084
0.000169529
0.000181026
0.000182624
0.000182614
0.000169534
0.000169817
0.000171471
0.000183207
0.000183234
0.000185062
0.000185054
0.000169862
0.000171452
0.000183218
0.000183203
0.000185071
0.00018503
0.000183221
0.000185077
0.000185061
0.000169813
0.000171429
0.000183233
0.000185058
0.000185071
0.000171445
0.000171653
0.000172612
0.00018561
0.000185591
0.000187014
0.000186984
0.000171623
0.000172574
0.000185621
0.000185576
0.000187025
0.00018699
0.000185599
0.000187004
0.000187004
0.000171611
0.000172598
0.000185609
0.000187017
0.000187017
0.000172608
0.000172717
0.000173868
0.000187438
0.000187414
0.000188776
0.00018879
0.000172686
0.00017392
0.000187451
0.000187425
0.000188792
0.000188789
0.000187445
0.000188818
0.00018882
0.000172712
0.000173901
0.000187459
0.000188818
0.000188835
0.000173926
0.000174062
0.000175418
0.000189273
0.000189301
0.000190822
0.000190846
0.000174127
0.000175444
0.000189289
0.000189287
0.000190829
0.000190818
0.000189313
0.000190872
0.000190814
0.000174097
0.000175419
0.000189328
0.000190849
0.000190824
0.000175374
0.000175571
0.000176612
0.000191306
0.000191315
0.000192622
0.000192592
0.000175575
0.00017657
0.000191315
0.000191293
0.000192639
0.000192585
0.000191285
0.000192614
0.000192606
0.000175561
0.000176555
0.000191294
0.000192611
0.000192622
0.000176602
0.000176735
0.000177895
0.000193048
0.000193018
0.000194366
0.000194361
0.000176698
0.000177906
0.000193066
0.000193008
0.000194372
0.000194352
0.000193048
0.000194388
0.000194409
0.000176678
0.000177919
0.000193065
0.000194385
0.00019442
0.000177951
0.000178025
0.000178871
0.000194807
0.00019481
0.000196008
0.000196035
0.000178047
0.000178936
0.000194813
0.000194814
0.00019603
0.000196055
0.000194848
0.000196064
0.000196005
0.000178076
0.000178937
0.000194857
0.000196083
0.000196022
0.000178851
0.000178903
0.000179832
0.000196349
0.000196384
0.00019736
0.000197357
0.000178969
0.000179795
0.000196374
0.000196385
0.000197367
0.000197277
0.000196338
0.000197384
0.000197354
0.000178943
0.000179687
0.00019636
0.000197315
0.000197367
0.000179809
0.000180011
0.000181537
0.000197783
0.000197743
0.000199297
0.000199237
0.000179931
0.0001815
0.000197783
0.00019767
0.000199306
0.000199279
0.000197775
0.000199262
0.000199295
0.000179846
0.000181597
0.000197779
0.000199296
0.000199303
0.00018155
0.000181648
0.000182154
0.000199759
0.000199745
0.000200723
0.00020082
0.000181689
0.000182305
0.000199779
0.000199802
0.000200747
0.000200802
0.000199776
0.000200854
0.000200782
0.000181772
0.000182248
0.000199794
0.000200848
0.000200809
0.000182235
0.00018207
0.000182593
0.000200935
0.000201023
0.000201558
0.000201458
0.000182177
0.00018239
0.000200954
0.000200972
0.000201573
0.000201469
0.000200991
0.000201488
0.000201526
0.000182111
0.000182447
0.000201013
0.000201496
0.000201533
0.000182487
0.000182687
0.000183757
0.000201851
0.000201709
0.000202987
0.000203006
0.000182454
0.000183926
0.00020187
0.00020176
0.000203001
0.000202984
0.000201782
0.000203027
0.000202966
0.000182538
0.000183806
0.000201792
0.000203006
0.000202985
0.000183792
0.000183801
0.000184601
0.000203361
0.000203462
0.00020428
0.00020437
0.000184032
0.000184665
0.000203366
0.000203378
0.000204277
0.000204261
0.000203391
0.000204408
0.000204332
0.000183871
0.000184604
0.000203407
0.000204316
0.000204335
0.00018463
0.000184715
0.000185654
0.000204617
0.0002046
0.000205617
0.000205485
0.00018466
0.000185515
0.00020463
0.000204583
0.000205671
0.000205653
0.000204621
0.000205518
0.000205623
0.000184691
0.000185673
0.000204629
0.000205659
0.00020566
0.00018569
0.000185533
0.000185237
0.000205859
0.000205789
0.000206048
0.000206147
0.00018547
0.000185408
0.000205905
0.000205901
0.000206046
0.000206027
0.000205905
0.000206181
0.000206112
0.000185572
0.000185235
0.000205938
0.000206103
0.000206119
0.000185259
0.000185168
0.000187532
0.000206129
0.000206219
0.000207556
0.00020748
0.000185312
0.000187412
0.000206116
0.000206087
0.000207586
0.00020757
0.000206154
0.000207499
0.000207439
0.000185153
0.000187512
0.000206161
0.000207535
0.000207473
0.000187406
0.000187935
0.000187606
0.000208297
0.000208198
0.000208914
0.000208873
0.000187805
0.000187571
0.000208338
0.000208287
0.000208929
0.000208784
0.000208202
0.000208904
0.000208884
0.000187836
0.000187305
0.000208234
0.000208815
0.000208881
0.00018752
0.000187156
0.00018534
0.000208758
0.000208752
0.000207835
0.000207969
0.000187166
0.000185646
0.000208759
0.00020861
0.000207857
0.000208037
0.000208753
0.000208024
0.000208049
0.000186915
0.000185912
0.00020874
0.000208116
0.00020807
0.00018575
0.000185307
0.000189372
0.000207879
0.000208012
0.000209618
0.000209579
0.000185617
0.000189165
0.000207907
0.000208107
0.000209714
0.000209724
0.000208105
0.000209663
0.000209731
0.000186
0.000189004
0.000208131
0.000209736
0.000209818
0.000189211
0.000189962
0.000189692
0.00021071
0.000210579
0.000211541
0.000211351
0.000189689
0.000189351
0.000210737
0.00021043
0.000211476
0.000211028
0.000210545
0.000211308
0.000211094
0.000189246
0.000189023
0.000210589
0.000211032
0.000211063
0.00018894
0.000189304
0.000187629
0.000211447
0.000211261
0.00021058
0.000210631
0.000188981
0.00018792
0.000211379
0.000211022
0.000210637
0.000211
0.000211027
0.000210672
0.000210789
0.000188808
0.000188561
0.000210981
0.000211006
0.000210804
0.000188235
0.000187401
0.000187049
0.000210342
0.000210554
0.000210382
0.000210809
0.000187769
0.000187937
0.000210435
0.000210953
0.000210485
0.000210808
0.000210787
0.000210927
0.000210985
0.000188397
0.000187677
0.000210829
0.000210945
0.000211048
0.000188037
0.000187124
0.000194221
0.000210548
0.000210979
0.000214025
0.000213542
0.000187986
0.000192751
0.000210638
0.000210882
0.000213879
0.000212747
0.000211079
0.000213469
0.000213026
0.000187563
0.000191944
0.000211137
0.000212721
0.000212988
0.000192118
0.000194505
0.000187593
0.000214678
0.000213975
0.000213164
0.000212609
0.00019283
0.000187322
0.000214528
0.00021364
0.000213226
0.00021347
0.000213473
0.000212453
0.000212727
0.000192531
0.000189644
0.000213429
0.000213361
0.000212748
0.000188094
0.000185827
0.000185488
0.000210933
0.000211093
0.000209638
0.000210413
0.000186277
0.000187971
0.000211128
0.000212264
0.000209824
0.000210035
0.000211378
0.000210693
0.000210934
0.000188288
0.000185057
0.00021143
0.000210227
0.000210944
0.000186913
0.000187309
0.000194297
0.000210696
0.000211376
0.000215855
0.000215136
0.000189177
0.000192276
0.000210751
0.000210602
0.000215718
0.000215679
0.000211632
0.000214973
0.000215282
0.000185592
0.000195015
0.00021159
0.000215774
0.000215446
0.000193532
0.000194034
0.000191082
0.000216215
0.00021559
0.000215456
0.00021555
0.000191879
0.000191794
0.000216119
0.000216846
0.000215475
0.000215975
0.000215566
0.000215363
0.000214828
0.00019546
0.000191676
0.000215806
0.000215989
0.000214854
0.000190948
0.0001907
0.00019625
0.000214361
0.000214766
0.000213265
0.000212282
0.000191877
0.000193782
0.000214336
0.000214021
0.00021323
0.000210472
0.000213702
0.000212452
0.00021213
0.000190485
0.000190071
0.000213667
0.000210078
0.000211648
0.000192945
0.000195521
0.000172578
0.000212813
0.000211691
0.000205234
0.000206239
0.000192963
0.000175877
0.000212798
0.000210157
0.000205632
0.000208397
0.000211783
0.000206442
0.000206685
0.000189788
0.000180015
0.000211292
0.000208267
0.000206555
0.0001755
0.000167697
0.000169546
0.00020076
0.00020275
0.000204821
0.000207075
0.000171733
0.000173097
0.000201075
0.000205106
0.000204676
0.000206487
0.000202938
0.000206971
0.000205848
0.000175735
0.000171458
0.000203204
0.000207297
0.000206437
0.000171265
0.000175951
0.000257058
0.000209599
0.000211433
0.000254196
0.000248279
0.000177961
0.000243438
0.000209236
0.000209908
0.000253758
0.000250394
0.000209588
0.000247541
0.000252726
0.000173744
0.000255808
0.000210123
0.000249843
0.000252725
0.00026101
0.000260001
0.000258635
0.000251349
0.000245734
0.000258802
0.000257394
0.000261614
0.000264576
0.000265563
0.00025962
0.000261448
0.000259654
0.00023473
0.000234746
0.000234729
0.000234729
0.000235117
0.000234798
0.000234701
0.000234727
0.000235118
0.000234798
0.000234727
0.000234701
0.000234867
0.000233566
0.000233566
0.000104651
3.87412e-05
0.000129118
3.98247e-05
2.16834e-05
2.28313e-05
0.000104643
3.87373e-05
0.000129114
3.98213e-05
0.000233973
0.000233973
0.000233973
0.000232935
0.000232935
0.000232935
0.000232935
0.000206196
9.36761e-05
0.000233969
0.000231994
0.000222615
8.72213e-05
0.000233611
2.16823e-05
2.28306e-05
0.00020619
0.000233969
9.36752e-05
0.000231994
0.000222622
0.000233611
8.72272e-05
4.78013e-05
4.77894e-05
0.000231345
4.40184e-05
4.40089e-05
7.25679e-05
4.24343e-05
8.14028e-05
4.37632e-05
2.47749e-05
2.54634e-05
7.25582e-05
4.24308e-05
8.13975e-05
4.37594e-05
0.000232532
0.000232532
0.000232532
0.000231084
0.000231084
0.000231083
0.000231084