/*--------------------------------*- C++ -*----------------------------------*\
| =========                 |                                                 |
| \\      /  F ield         | OpenFOAM: The Open Source CFD Toolbox           |
|  \\    /   O peration     | Version:  v2012                                 |
|   \\  /    A nd           | Website:  www.openfoam.com                      |
|    \\/     M anipulation  |                                                 |
\*---------------------------------------------------------------------------*/
FoamFile
{
    version     2.0;
    format      ascii;
    class       volScalarField;
    location    "875";
    object      p;
}
// * * * * * * * * * * * * * * * * * * * * * * * * * * * * * * * * * * * * * //

dimensions      [0 2 -2 0 0 0 0];


internalField   nonuniform List<scalar> 
171728
(
0.00360415
0.00360448
0.00360448
0.00360754
0.0035488
0.00354922
0.00354921
0.00355221
0.00349804
0.00349802
0.00349802
0.00350077
0.00344566
0.00344567
0.00344567
0.00344844
0.0033943
0.00339432
0.00339431
0.00339706
0.00334433
0.00334434
0.00334433
0.00334706
0.00329581
0.00329582
0.00329581
0.0032985
0.00324858
0.00324858
0.0032486
0.00325126
0.00320246
0.00320248
0.00320247
0.00320508
0.00315722
0.00315721
0.00315723
0.00315985
0.00311271
0.00311272
0.00311277
0.00311529
0.00306879
0.00306887
0.00306877
0.00307132
0.00302541
0.00302537
0.00302544
0.00302795
0.00298246
0.00298243
0.00298253
0.00298497
0.00293994
0.00293995
0.00293998
0.00294233
0.00289792
0.00289804
0.00289798
0.00290029
0.00285631
0.00285644
0.00285652
0.002859
0.00281497
0.00281488
0.00281484
0.00281724
0.00277385
0.00277378
0.00277363
0.00277606
0.00273295
0.00273328
0.00273322
0.00273588
0.00269288
0.00269262
0.00269271
0.00269502
0.00265249
0.00265251
0.00265268
0.00265526
0.0026124
0.00261239
0.00261211
0.00261435
0.00257294
0.00257298
0.00257299
0.0025755
0.00253333
0.00253326
0.00253328
0.00253563
0.0024942
0.00249414
0.00249409
0.00249648
0.00245525
0.00245515
0.00245526
0.00245769
0.00241651
0.0024165
0.00241647
0.00241881
0.00237771
0.00237762
0.00237767
0.00238
0.00233946
0.00233944
0.00233942
0.00234171
0.00230118
0.00230114
0.00230115
0.00230348
0.00226311
0.0022631
0.00226307
0.00226534
0.00222523
0.00222519
0.00222522
0.00222748
0.00218751
0.0021875
0.00218749
0.00218971
0.00214993
0.00214991
0.00214992
0.00215214
0.00211251
0.0021125
0.0021125
0.0021147
0.00207524
0.00207523
0.00207523
0.00207741
0.00203811
0.00203809
0.00203809
0.00204027
0.00200112
0.0020011
0.0020011
0.00200326
0.00196425
0.00196423
0.00196423
0.00196638
0.00192752
0.00192749
0.00192748
0.00192961
0.0018909
0.00189085
0.00189085
0.00189298
0.00185438
0.00185434
0.00185434
0.00185645
0.00181799
0.00181792
0.00181792
0.00182003
0.00178168
0.00178162
0.00178162
0.00178371
0.00174547
0.0017454
0.0017454
0.00174749
0.00170935
0.00170927
0.00170927
0.00171135
0.00167331
0.00167323
0.00167322
0.0016753
0.00163735
0.00163726
0.00163726
0.00163933
0.00160145
0.00160135
0.00160135
0.00160341
0.00156563
0.00156552
0.00156552
0.00156758
0.00152987
0.00152975
0.00152976
0.0015318
0.00149416
0.00149404
0.00149404
0.00149609
0.00145849
0.00145837
0.00145837
0.00146041
0.00142288
0.00142276
0.00142277
0.0014248
0.00138732
0.00138719
0.00138719
0.00138921
0.00135179
0.00135166
0.00135166
0.00135369
0.00131629
0.00131616
0.00131615
0.00131817
0.00128082
0.0012807
0.0012807
0.00128272
0.00124536
0.00124524
0.00124524
0.00124724
0.00120997
0.00120985
0.00120984
0.00121187
0.00117451
0.00117439
0.0011744
0.00117639
0.00113913
0.00113902
0.00113901
0.00114103
0.00110381
0.0011037
0.0011037
0.00110571
0.00106837
0.00106826
0.00106826
0.00107027
0.00103298
0.00103289
0.00103288
0.00103489
0.00099764
0.000997544
0.000997543
0.000999544
0.00096224
0.000962137
0.000962138
0.000964144
0.000926859
0.000926773
0.000926773
0.000928781
0.000891442
0.000891353
0.000891357
0.00089335
0.000856003
0.00085591
0.000855899
0.000857915
0.000820679
0.000820602
0.000820618
0.000822618
0.000785167
0.000785101
0.000785088
0.000787103
0.00074959
0.000749484
0.000749495
0.000751501
0.000714182
0.000714144
0.000714133
0.00071615
0.000678654
0.00067857
0.000678571
0.000680582
0.000643144
0.000643074
0.000643096
0.000645122
0.000607403
0.000607336
0.000607307
0.000609314
0.000572003
0.000571944
0.000571973
0.000573983
0.000536308
0.000536266
0.000536227
0.000538293
0.000500191
0.000500096
0.00050015
0.000502105
0.000465053
0.000465038
0.000465019
0.000467103
0.000429292
0.000429221
0.000429171
0.000431196
0.000393106
0.000393042
0.000393139
0.000395145
0.000357283
0.000357283
0.000357224
0.00035929
0.00032211
0.000322032
0.000321943
0.000324018
0.000285631
0.00028554
0.000285804
0.00028773
0.000249247
0.000249398
0.000249011
0.000251236
0.000214503
0.000214282
0.000214596
0.000216545
0.00017791
0.000177846
0.000177914
0.000179769
0.000142415
0.000142583
0.000142081
0.000144707
0.000103791
0.000104067
0.000104607
0.000106261
6.67949e-05
6.61669e-05
6.58249e-05
6.76614e-05
4.06522e-05
4.00098e-05
4.01687e-05
4.21672e-05
1.01709e-05
1.13291e-05
1.33661e-05
1.07271e-05
0.00361756
0.00361779
0.00361778
0.00361756
0.00361779
0.00361779
0.00361855
0.00361855
0.00361855
0.00361855
0.00361779
0.00361779
0.00361756
0.00361779
0.00361779
0.00361756
0.00360754
0.00355878
0.00360448
0.00360448
0.00356106
0.00356106
0.00360754
0.00355878
0.00360448
0.00360448
0.00356105
0.00356106
0.00360448
0.00356105
0.00356106
0.00360754
0.00355878
0.00360448
0.00356105
0.00356105
0.00355878
0.00355221
0.0035077
0.00354922
0.00354922
0.00351114
0.00351114
0.00355221
0.0035077
0.00354922
0.00354922
0.00351114
0.00351114
0.00354922
0.00351114
0.00351114
0.00355221
0.0035077
0.00354921
0.00351114
0.00351114
0.0035077
0.00350077
0.00345533
0.00349802
0.00349802
0.00345868
0.00345868
0.00350077
0.00345533
0.00349802
0.00349802
0.00345868
0.00345869
0.00349802
0.00345869
0.00345868
0.00350077
0.00345533
0.00349802
0.00345868
0.00345868
0.00345533
0.00344845
0.00340377
0.00344567
0.00344567
0.00340704
0.00340704
0.00344845
0.00340377
0.00344567
0.00344567
0.00340704
0.00340704
0.00344567
0.00340703
0.00340703
0.00344844
0.00340377
0.00344567
0.00340704
0.00340703
0.00340377
0.00339707
0.00335356
0.00339431
0.00339432
0.0033567
0.00335669
0.00339707
0.00335356
0.00339431
0.00339431
0.0033567
0.0033567
0.00339432
0.0033567
0.0033567
0.00339706
0.00335356
0.00339432
0.0033567
0.0033567
0.00335356
0.00334706
0.00330481
0.00334434
0.00334434
0.00330781
0.00330783
0.00334706
0.00330482
0.00334434
0.00334434
0.0033078
0.00330783
0.00334434
0.00330783
0.00330783
0.00334706
0.00330481
0.00334434
0.00330784
0.00330783
0.0033048
0.00329852
0.00325739
0.00329584
0.00329582
0.00326029
0.0032603
0.0032985
0.00325738
0.00329584
0.00329583
0.0032603
0.00326028
0.00329581
0.00326031
0.00326031
0.00329849
0.00325737
0.00329581
0.00326029
0.00326031
0.00325739
0.00325124
0.0032111
0.00324859
0.00324858
0.0032139
0.00321393
0.00325124
0.0032111
0.00324859
0.00324861
0.0032139
0.00321392
0.0032486
0.00321393
0.00321392
0.00325126
0.0032111
0.0032486
0.00321394
0.00321393
0.00321107
0.00320511
0.00316572
0.00320249
0.00320248
0.00316852
0.0031685
0.0032051
0.00316568
0.00320249
0.00320249
0.00316852
0.00316846
0.00320245
0.0031685
0.00316846
0.00320509
0.00316569
0.00320244
0.00316848
0.00316846
0.00316574
0.00315982
0.00312106
0.00315723
0.00315722
0.00312381
0.00312379
0.00315982
0.00312107
0.00315724
0.00315723
0.00312382
0.00312376
0.00315727
0.00312379
0.00312382
0.00315983
0.00312109
0.00315727
0.00312377
0.00312383
0.0031211
0.00311527
0.00307706
0.00311271
0.00311272
0.0030797
0.00307976
0.00311531
0.0030771
0.0031127
0.00311278
0.0030797
0.00307978
0.00311273
0.00307975
0.00307976
0.00311533
0.00307705
0.00311273
0.00307979
0.00307977
0.00307703
0.00307139
0.00303359
0.00306882
0.00306886
0.00303622
0.00303629
0.00307136
0.00303354
0.00306881
0.00306878
0.00303622
0.0030362
0.00306877
0.00303629
0.00303617
0.00307133
0.00303358
0.00306877
0.0030362
0.00303617
0.00303354
0.00302794
0.0029906
0.00302547
0.00302537
0.00299323
0.00299318
0.00302789
0.00299055
0.00302547
0.00302544
0.00299322
0.00299322
0.00302543
0.00299318
0.00299317
0.00302792
0.00299063
0.00302543
0.00299321
0.00299318
0.00299054
0.00298501
0.00294792
0.00298248
0.00298244
0.00295051
0.00295047
0.00298496
0.00294794
0.00298248
0.00298253
0.00295051
0.00295057
0.00298245
0.00295047
0.00295053
0.00298502
0.00294796
0.00298245
0.00295057
0.00295053
0.00294784
0.00294241
0.0029058
0.00293992
0.00293994
0.0029084
0.00290839
0.00294244
0.00290601
0.00293991
0.00293998
0.00290839
0.00290845
0.00293987
0.00290839
0.00290845
0.00294243
0.00290591
0.00293988
0.00290845
0.00290845
0.00290575
0.00290036
0.00286418
0.0028979
0.00289804
0.00286674
0.00286666
0.00290056
0.00286434
0.0028979
0.00289797
0.00286674
0.00286678
0.00289786
0.00286668
0.00286692
0.00290043
0.00286444
0.00289785
0.0028668
0.00286692
0.00286445
0.00285878
0.00282294
0.00285628
0.00285643
0.00282531
0.00282517
0.00285895
0.0028227
0.00285629
0.00285651
0.00282531
0.00282524
0.00285641
0.00282515
0.00282512
0.00285907
0.00282268
0.00285642
0.00282523
0.00282513
0.00282262
0.00281755
0.00278165
0.00281498
0.0028149
0.00278402
0.00278399
0.00281734
0.00278152
0.00281498
0.00281486
0.00278402
0.002784
0.00281477
0.00278397
0.00278388
0.00281729
0.00278145
0.00281477
0.00278398
0.00278388
0.00278137
0.00277632
0.0027405
0.00277383
0.0027738
0.00274307
0.0027434
0.00277619
0.00274109
0.00277382
0.00277364
0.00274305
0.00274322
0.00277364
0.00274343
0.00274342
0.00277606
0.00274091
0.00277363
0.00274325
0.00274341
0.00274114
0.00273513
0.00270042
0.00273277
0.00273324
0.00270267
0.00270269
0.00273578
0.00270026
0.00273277
0.00273318
0.00270268
0.00270282
0.00273332
0.0027027
0.00270274
0.00273569
0.00270044
0.00273331
0.00270283
0.00270275
0.00270029
0.00269537
0.00266037
0.00269284
0.00269263
0.00266273
0.00266255
0.00269499
0.00266019
0.00269286
0.00269272
0.00266276
0.0026627
0.00269261
0.00266254
0.00266275
0.00269515
0.00266041
0.00269262
0.00266269
0.00266276
0.00266055
0.00265495
0.00261989
0.00265244
0.00265251
0.00262222
0.00262231
0.00265494
0.00261997
0.00265246
0.00265267
0.00262221
0.00262219
0.00265265
0.0026223
0.00262204
0.00265518
0.00261964
0.00265266
0.00262218
0.00262203
0.00261948
0.00261466
0.00258031
0.00261228
0.0026124
0.00258261
0.00258282
0.00261479
0.00258068
0.00261226
0.00261212
0.0025826
0.00258273
0.00261209
0.00258283
0.00258286
0.0026144
0.0025806
0.00261208
0.00258274
0.00258285
0.00258065
0.00257525
0.00254092
0.0025728
0.00257297
0.0025433
0.00254311
0.0025755
0.00254082
0.00257279
0.00257298
0.0025433
0.00254317
0.00257299
0.0025431
0.00254317
0.00257547
0.00254089
0.00257299
0.00254317
0.00254318
0.00254083
0.00253565
0.00250159
0.00253323
0.00253327
0.00250385
0.00250385
0.00253566
0.00250167
0.00253323
0.00253328
0.00250385
0.0025038
0.00253325
0.00250385
0.00250382
0.00253568
0.00250157
0.00253325
0.0025038
0.00250382
0.00250153
0.00249653
0.00246268
0.00249415
0.00249415
0.00246492
0.00246486
0.00249658
0.00246263
0.00249414
0.0024941
0.00246493
0.00246492
0.00249411
0.00246487
0.00246501
0.00249648
0.00246274
0.0024941
0.00246492
0.00246501
0.00246281
0.00245758
0.00242406
0.00245519
0.00245514
0.00242621
0.00242616
0.00245753
0.00242402
0.00245519
0.00245526
0.00242621
0.00242618
0.00245525
0.00242616
0.00242614
0.00245768
0.002424
0.00245526
0.00242618
0.00242614
0.00242393
0.00241893
0.00238491
0.00241649
0.0024165
0.00238723
0.00238729
0.00241894
0.002385
0.00241649
0.00241647
0.00238723
0.00238728
0.00241643
0.00238729
0.00238731
0.00241888
0.00238501
0.00241643
0.00238728
0.00238731
0.00238503
0.00237987
0.00234685
0.00237759
0.00237762
0.00234901
0.00234896
0.00237992
0.0023468
0.00237759
0.00237766
0.00234902
0.00234899
0.00237767
0.00234896
0.00234898
0.00237996
0.00234683
0.00237767
0.00234899
0.00234898
0.00234676
0.00234182
0.00230845
0.00233945
0.00233944
0.0023107
0.00231071
0.0023418
0.00230848
0.00233945
0.00233942
0.0023107
0.00231067
0.00233937
0.0023107
0.00231071
0.00234178
0.00230845
0.00233937
0.00231067
0.0023107
0.00230851
0.00230342
0.00227038
0.00230114
0.00230114
0.0022726
0.0022726
0.00230344
0.00227041
0.00230113
0.00230115
0.0022726
0.00227259
0.00230116
0.0022726
0.00227257
0.00230345
0.00227037
0.00230116
0.00227259
0.00227257
0.00227034
0.00226536
0.00223244
0.00226308
0.0022631
0.00223464
0.00223463
0.00226539
0.00223242
0.00226308
0.00226307
0.00223464
0.00223465
0.00226306
0.00223463
0.00223468
0.00226534
0.00223247
0.00226306
0.00223465
0.00223468
0.00223248
0.00222746
0.00219473
0.0022252
0.00222519
0.00219692
0.00219692
0.00222745
0.00219472
0.0022252
0.00222522
0.00219692
0.00219691
0.00222521
0.00219692
0.0021969
0.00222749
0.00219471
0.00222521
0.00219691
0.0021969
0.00219469
0.00218974
0.0021571
0.0021875
0.0021875
0.00215929
0.00215929
0.00218974
0.00215709
0.0021875
0.00218749
0.00215929
0.00215929
0.00218748
0.00215929
0.0021593
0.00218973
0.0021571
0.00218748
0.00215929
0.0021593
0.00215711
0.00215214
0.00211964
0.00214992
0.00214991
0.00212183
0.00212184
0.00215213
0.00211965
0.00214992
0.00214992
0.00212183
0.00212183
0.00214992
0.00212184
0.00212183
0.00215214
0.00211964
0.00214992
0.00212183
0.00212183
0.00211965
0.00211469
0.00208235
0.00211249
0.0021125
0.00208454
0.00208453
0.0021147
0.00208235
0.00211249
0.0021125
0.00208454
0.00208454
0.0021125
0.00208453
0.00208454
0.0021147
0.00208235
0.0021125
0.00208454
0.00208454
0.00208235
0.00207742
0.00204518
0.00207523
0.00207523
0.00204736
0.00204736
0.00207742
0.00204518
0.00207523
0.00207523
0.00204736
0.00204736
0.00207523
0.00204736
0.00204736
0.00207741
0.00204518
0.00207523
0.00204736
0.00204736
0.00204519
0.00204026
0.00200817
0.00203809
0.00203809
0.00201034
0.00201034
0.00204026
0.00200817
0.00203809
0.00203809
0.00201034
0.00201034
0.0020381
0.00201034
0.00201034
0.00204026
0.00200817
0.0020381
0.00201034
0.00201034
0.00200817
0.00200326
0.00197127
0.0020011
0.0020011
0.00197343
0.00197343
0.00200326
0.00197127
0.0020011
0.0020011
0.00197343
0.00197343
0.0020011
0.00197343
0.00197343
0.00200326
0.00197127
0.0020011
0.00197344
0.00197343
0.00197127
0.00196637
0.0019345
0.00196423
0.00196423
0.00193666
0.00193666
0.00196637
0.00193451
0.00196423
0.00196423
0.00193666
0.00193666
0.00196423
0.00193666
0.00193666
0.00196637
0.0019345
0.00196423
0.00193666
0.00193666
0.0019345
0.00192962
0.00189786
0.00192749
0.00192749
0.0019
0.0019
0.00192962
0.00189785
0.00192748
0.00192748
0.0019
0.0019
0.00192748
0.0019
0.0019
0.00192962
0.00189785
0.00192748
0.0019
0.0019
0.00189785
0.00189298
0.00186131
0.00189086
0.00189085
0.00186345
0.00186346
0.00189298
0.00186132
0.00189086
0.00189085
0.00186346
0.00186346
0.00189086
0.00186346
0.00186346
0.00189298
0.00186132
0.00189086
0.00186346
0.00186346
0.00186132
0.00185645
0.00182489
0.00185433
0.00185434
0.00182702
0.00182702
0.00185645
0.00182488
0.00185433
0.00185434
0.00182702
0.00182702
0.00185434
0.00182702
0.00182702
0.00185645
0.00182488
0.00185434
0.00182701
0.00182701
0.00182488
0.00182004
0.00178856
0.00181793
0.00181792
0.00179068
0.00179068
0.00182003
0.00178856
0.00181793
0.00181792
0.00179068
0.00179069
0.00181793
0.00179068
0.00179068
0.00182003
0.00178856
0.00181793
0.00179069
0.00179069
0.00178856
0.00178371
0.00175233
0.00178161
0.00178162
0.00175444
0.00175445
0.00178371
0.00175233
0.00178161
0.00178162
0.00175444
0.00175444
0.00178161
0.00175445
0.00175445
0.00178371
0.00175233
0.00178161
0.00175444
0.00175445
0.00175233
0.00174749
0.00171619
0.0017454
0.0017454
0.0017183
0.00171829
0.00174749
0.00171618
0.0017454
0.0017454
0.0017183
0.00171829
0.0017454
0.00171829
0.00171829
0.00174749
0.00171618
0.0017454
0.00171829
0.00171829
0.00171618
0.00171135
0.00168012
0.00170927
0.00170927
0.00168223
0.00168223
0.00171135
0.00168013
0.00170927
0.00170927
0.00168223
0.00168223
0.00170927
0.00168223
0.00168223
0.00171135
0.00168012
0.00170927
0.00168223
0.00168223
0.00168012
0.0016753
0.00164415
0.00167323
0.00167323
0.00164624
0.00164624
0.0016753
0.00164414
0.00167323
0.00167322
0.00164624
0.00164624
0.00167322
0.00164624
0.00164625
0.0016753
0.00164415
0.00167322
0.00164624
0.00164624
0.00164415
0.00163932
0.00160823
0.00163726
0.00163726
0.00161032
0.00161032
0.00163932
0.00160823
0.00163726
0.00163726
0.00161032
0.00161032
0.00163726
0.00161032
0.00161032
0.00163933
0.00160823
0.00163726
0.00161032
0.00161032
0.00160823
0.00160341
0.00157239
0.00160135
0.00160135
0.00157448
0.00157448
0.00160341
0.00157239
0.00160135
0.00160135
0.00157447
0.00157447
0.00160135
0.00157448
0.00157448
0.00160341
0.00157239
0.00160135
0.00157447
0.00157448
0.00157239
0.00156758
0.00153661
0.00156552
0.00156552
0.00153869
0.00153869
0.00156758
0.00153661
0.00156552
0.00156553
0.00153869
0.00153869
0.00156552
0.00153869
0.00153869
0.00156758
0.00153661
0.00156552
0.00153869
0.00153869
0.00153661
0.0015318
0.00150089
0.00152975
0.00152975
0.00150296
0.00150296
0.0015318
0.00150089
0.00152975
0.00152975
0.00150296
0.00150296
0.00152975
0.00150297
0.00150297
0.0015318
0.00150088
0.00152975
0.00150296
0.00150297
0.00150089
0.00149608
0.00146521
0.00149404
0.00149404
0.00146729
0.00146729
0.00149609
0.00146521
0.00149404
0.00149404
0.00146729
0.00146729
0.00149404
0.00146729
0.00146729
0.00149608
0.00146521
0.00149404
0.00146729
0.00146729
0.00146521
0.00146041
0.00142959
0.00145837
0.00145837
0.00143166
0.00143166
0.00146041
0.00142959
0.00145837
0.00145837
0.00143166
0.00143166
0.00145837
0.00143166
0.00143166
0.00146041
0.00142959
0.00145837
0.00143166
0.00143166
0.00142959
0.0014248
0.00139401
0.00142276
0.00142276
0.00139608
0.00139608
0.0014248
0.00139401
0.00142276
0.00142277
0.00139608
0.00139608
0.00142277
0.00139608
0.00139608
0.0014248
0.00139401
0.00142277
0.00139608
0.00139608
0.00139401
0.00138922
0.00135848
0.00138719
0.00138719
0.00136054
0.00136054
0.00138922
0.00135848
0.00138719
0.00138719
0.00136054
0.00136054
0.00138719
0.00136054
0.00136054
0.00138922
0.00135848
0.00138719
0.00136054
0.00136054
0.00135848
0.00135368
0.00132296
0.00135166
0.00135166
0.00132503
0.00132503
0.00135368
0.00132296
0.00135166
0.00135166
0.00132503
0.00132503
0.00135166
0.00132503
0.00132503
0.00135369
0.00132296
0.00135166
0.00132503
0.00132503
0.00132296
0.00131818
0.00128751
0.00131616
0.00131616
0.00128956
0.00128956
0.00131818
0.00128751
0.00131616
0.00131615
0.00128956
0.00128956
0.00131615
0.00128956
0.00128956
0.00131817
0.0012875
0.00131616
0.00128956
0.00128956
0.00128751
0.00128272
0.00125203
0.0012807
0.0012807
0.00125409
0.0012541
0.00128272
0.00125203
0.0012807
0.0012807
0.00125409
0.0012541
0.0012807
0.0012541
0.0012541
0.00128272
0.00125204
0.0012807
0.0012541
0.0012541
0.00125203
0.00124724
0.00121666
0.00124523
0.00124523
0.0012187
0.00121869
0.00124724
0.00121665
0.00124523
0.00124524
0.0012187
0.00121869
0.00124523
0.00121869
0.0012187
0.00124725
0.00121664
0.00124523
0.00121869
0.00121869
0.00121665
0.00121187
0.00118119
0.00120985
0.00120985
0.00118326
0.00118326
0.00121186
0.00118119
0.00120985
0.00120985
0.00118326
0.00118327
0.00120985
0.00118326
0.00118326
0.00121186
0.0011812
0.00120985
0.00118327
0.00118326
0.00118119
0.00117639
0.0011458
0.00117439
0.00117439
0.00114784
0.00114784
0.00117639
0.0011458
0.00117439
0.0011744
0.00114784
0.00114784
0.00117439
0.00114784
0.00114784
0.0011764
0.0011458
0.00117439
0.00114784
0.00114784
0.0011458
0.00114103
0.0011105
0.00113902
0.00113902
0.00111255
0.00111254
0.00114103
0.0011105
0.00113902
0.00113902
0.00111255
0.00111254
0.00113902
0.00111254
0.00111254
0.00114102
0.0011105
0.00113902
0.00111254
0.00111254
0.0011105
0.00110571
0.00107507
0.0011037
0.0011037
0.00107712
0.00107712
0.00110571
0.00107506
0.0011037
0.0011037
0.00107713
0.00107713
0.0011037
0.00107712
0.00107712
0.00110571
0.00107507
0.0011037
0.00107713
0.00107712
0.00107506
0.00107027
0.00103967
0.00106826
0.00106826
0.00104171
0.00104172
0.00107026
0.00103968
0.00106826
0.00106826
0.00104171
0.00104172
0.00106826
0.00104172
0.00104172
0.00107027
0.00103967
0.00106826
0.00104172
0.00104172
0.00103968
0.00103488
0.00100434
0.00103288
0.00103289
0.00100639
0.00100639
0.00103489
0.00100435
0.00103288
0.00103288
0.00100639
0.00100639
0.00103289
0.00100639
0.00100638
0.00103489
0.00100434
0.00103289
0.00100638
0.00100638
0.00100434
0.000999551
0.000968944
0.000997546
0.000997545
0.000970993
0.000970988
0.00099955
0.000968937
0.000997545
0.000997544
0.000970994
0.000970991
0.00099754
0.000970987
0.00097099
0.000999549
0.000968939
0.000997539
0.00097099
0.00097099
0.000968942
0.000964144
0.00093357
0.000962141
0.000962137
0.00093561
0.000935612
0.000964139
0.000933575
0.000962142
0.000962139
0.000935608
0.00093561
0.000962141
0.000935613
0.000935616
0.00096414
0.000933573
0.000962142
0.000935611
0.000935616
0.000933577
0.000928775
0.00089817
0.00092677
0.000926772
0.000900218
0.000900219
0.000928779
0.000898172
0.000926769
0.000926772
0.00090022
0.000900226
0.000926775
0.000900219
0.000900214
0.00092878
0.000898178
0.000926774
0.000900224
0.000900214
0.000898163
0.000893357
0.000862711
0.000891351
0.000891354
0.000864757
0.000864758
0.000893359
0.000862711
0.000891353
0.000891358
0.000864756
0.000864745
0.000891346
0.000864758
0.000864757
0.000893364
0.000862696
0.000891347
0.000864747
0.000864757
0.000862712
0.000857914
0.000827417
0.000855913
0.00085591
0.000829441
0.000829431
0.00085791
0.000827407
0.00085591
0.000855899
0.000829441
0.000829443
0.000855913
0.00082943
0.000829438
0.000857897
0.000827426
0.000855911
0.00082944
0.000829438
0.000827414
0.00082262
0.000791926
0.000820607
0.000820603
0.000793987
0.000794006
0.000822614
0.000791954
0.000820609
0.00082062
0.000793988
0.000794002
0.000820606
0.000794008
0.000793998
0.000822634
0.00079194
0.000820608
0.000794005
0.000794
0.00079194
0.000787089
0.000756335
0.000785081
0.000785099
0.000758381
0.000758363
0.000787114
0.000756303
0.00078508
0.000785085
0.000758381
0.000758365
0.000785092
0.000758362
0.000758372
0.000787096
0.000756313
0.000785092
0.000758364
0.00075837
0.000756319
0.00075152
0.000720952
0.00074951
0.000749487
0.000722975
0.000722978
0.000751486
0.000720969
0.000749511
0.000749498
0.000722976
0.000722982
0.000749495
0.000722976
0.00072297
0.000751502
0.000720963
0.000749495
0.000722979
0.000722972
0.000720954
0.000716139
0.000685406
0.000714123
0.000714144
0.000687465
0.00068748
0.000716168
0.000685415
0.000714121
0.000714132
0.000687461
0.000687462
0.000714131
0.000687483
0.000687477
0.000716153
0.000685404
0.000714131
0.000687467
0.000687474
0.000685414
0.000680582
0.000649953
0.000678574
0.000678569
0.000651971
0.000651943
0.000680575
0.000649916
0.000678574
0.00067857
0.000651979
0.000651978
0.000678575
0.000651941
0.000651961
0.000680576
0.000649955
0.000678574
0.000651972
0.000651966
0.000649944
0.000645123
0.00061417
0.000643089
0.000643075
0.000616261
0.000616291
0.000645099
0.000614213
0.000643094
0.0006431
0.000616254
0.000616255
0.00064309
0.000616293
0.000616276
0.00064513
0.000614167
0.000643095
0.000616262
0.000616271
0.000614183
0.00060931
0.00057877
0.000607315
0.000607335
0.000580754
0.000580736
0.000609344
0.000578739
0.000607306
0.0006073
0.000580758
0.000580762
0.000607315
0.000580731
0.000580734
0.000609302
0.000578777
0.00060731
0.000580754
0.000580738
0.000578749
0.000574001
0.000543232
0.000571967
0.000571947
0.000545308
0.000545308
0.000573968
0.000543234
0.000571975
0.000571982
0.000545306
0.000545283
0.000571953
0.000545311
0.00054531
0.000574009
0.00054319
0.000571959
0.000545284
0.000545305
0.000543226
0.0005383
0.000506893
0.000536261
0.000536265
0.000509009
0.000509031
0.000538305
0.000506926
0.000536254
0.000536223
0.000509007
0.000509047
0.000536259
0.000509032
0.000509036
0.000538257
0.000506971
0.000536251
0.000509056
0.000509039
0.000506938
0.000502051
0.00047185
0.000500069
0.000500091
0.000473777
0.000473765
0.000502081
0.000471823
0.000500075
0.000500142
0.000473789
0.000473802
0.000500113
0.00047377
0.000473794
0.000502145
0.000471847
0.000500123
0.000473799
0.000473803
0.000471858
0.000467122
0.000436239
0.000465063
0.000465037
0.00043835
0.000438333
0.000467086
0.000436224
0.000465068
0.000465026
0.000438326
0.000438238
0.000465043
0.000438313
0.000438257
0.000467075
0.000436129
0.000465044
0.000438228
0.000438239
0.000436136
0.00043128
0.000399904
0.000429249
0.000429239
0.000401975
0.000401975
0.000431269
0.000399907
0.00042923
0.000429179
0.000401996
0.000402083
0.000429175
0.000401987
0.000402037
0.000431205
0.00040004
0.000429161
0.000402086
0.00040205
0.000399993
0.000395044
0.000364086
0.00039301
0.000393022
0.000366169
0.000366233
0.000395056
0.000364183
0.000393037
0.000393132
0.000366171
0.000366214
0.000393099
0.000366249
0.000366257
0.00039518
0.000364135
0.000393117
0.000366232
0.000366257
0.000364183
0.000359203
0.000328914
0.000357202
0.000357271
0.000330813
0.000330768
0.000359301
0.000328822
0.000357196
0.000357207
0.00033079
0.000330665
0.000357273
0.000330753
0.000330706
0.000359229
0.0003287
0.000357267
0.000330653
0.000330691
0.000328747
0.000324245
0.000292848
0.000322175
0.000322062
0.000295064
0.00029496
0.000324105
0.000292721
0.000322149
0.000321972
0.000295088
0.000295165
0.000321974
0.000294929
0.000294986
0.000323992
0.000293023
0.000321961
0.000295137
0.000295012
0.000292824
0.00028766
0.000255723
0.000285566
0.000285539
0.000257749
0.000257991
0.000287592
0.00025608
0.000285605
0.000285806
0.000257755
0.000257827
0.000285644
0.000258067
0.000258014
0.000287913
0.000255712
0.000285677
0.000257873
0.000257995
0.000255959
0.000251101
0.000221676
0.000249141
0.00024932
0.000223558
0.000223381
0.000251403
0.000221334
0.000249099
0.000248978
0.000223499
0.000223289
0.000249265
0.00022333
0.000223339
0.000250938
0.000221452
0.000249211
0.000223269
0.000223319
0.00022143
0.000216738
0.000184556
0.000214602
0.000214344
0.000186811
0.000186835
0.000216357
0.000184664
0.000214595
0.000214612
0.000186892
0.000187227
0.00021442
0.000186839
0.000186918
0.000216735
0.000185023
0.00021446
0.000187244
0.000186996
0.000184736
0.0001796
0.000149713
0.000177685
0.000177826
0.000151416
0.000151362
0.000179799
0.000149581
0.000177737
0.0001779
0.000151346
0.000150822
0.000177803
0.000151363
0.000151251
0.000179931
0.000148899
0.000177839
0.000150775
0.000151155
0.000149425
0.000145072
0.000111739
0.000142806
0.000142598
0.000114227
0.000114279
0.000144816
0.000111928
0.000142739
0.000142148
0.000114291
0.000114674
0.000142527
0.000114282
0.000114297
0.000144223
0.000112565
0.000142426
0.000114636
0.000114312
0.000111935
0.00010586
7.1816e-05
0.000103707
0.00010403
7.3989e-05
7.42603e-05
0.000106227
7.20521e-05
0.000103802
0.000104574
7.39727e-05
7.409e-05
0.000104083
7.4301e-05
7.43204e-05
0.000106943
7.17051e-05
0.000104152
7.42601e-05
7.44138e-05
7.21168e-05
6.75754e-05
4.60209e-05
6.60844e-05
6.61571e-05
4.67472e-05
4.63476e-05
6.76916e-05
4.54253e-05
6.60034e-05
6.57058e-05
4.66506e-05
4.59619e-05
6.6123e-05
4.62819e-05
4.61806e-05
6.71664e-05
4.49741e-05
6.61546e-05
4.58695e-05
4.61229e-05
4.53288e-05
4.25884e-05
1.36851e-05
4.06567e-05
4.00804e-05
1.80041e-05
1.74068e-05
4.19413e-05
1.30861e-05
4.06073e-05
4.02933e-05
1.8471e-05
1.97693e-05
4.038e-05
1.76713e-05
1.96881e-05
4.1959e-05
1.57157e-05
4.03748e-05
1.99748e-05
2.00541e-05
1.58216e-05
8.93613e-06
1.1773e-05
1.12062e-05
8.49556e-06
1.19761e-05
1.32998e-05
9.90306e-06
1.10708e-05
1.10196e-05
1.33796e-05
1.05644e-05
1.35043e-05
0.00362594
0.0036357
0.0036305
0.0036305
0.00365288
0.00363966
0.00366827
0.00363371
0.00365288
0.00363967
0.00363371
0.00366827
0.00364423
0.00367201
0.00367201
0.00358129
0.00360044
0.00360963
0.00357337
0.00357411
0.00357688
0.00358127
0.00360042
0.00360962
0.00357336
0.00360415
0.00360416
0.00360416
0.00356075
0.00356075
0.00356075
0.00356075
0.0035788
0.00360462
0.00360455
0.00358762
0.00360765
0.0035777
0.0035885
0.00357422
0.00357688
0.0035788
0.00360456
0.00360463
0.00358762
0.00360764
0.0035885
0.0035777
0.00361049
0.00361048
0.00358202
0.00357734
0.00357733
0.00353466
0.00355394
0.0035553
0.0035332
0.00355285
0.00353276
0.00353466
0.00355394
0.0035553
0.00353319
0.0035488
0.00354879
0.00354879
0.00351121
0.00351121
0.00351121
0.00351121
0.00353325
0.00355402
0.0035488
0.00353693
0.00355281
0.00353379
0.00353666
0.00355285
0.00353275
0.00353325
0.00354879
0.00355402
0.00353693
0.00355281
0.00353666
0.00353379
0.00355504
0.00355503
0.00353348
0.00353412
0.00353412
0.0034824
0.0035012
0.00350227
0.00348137
0.00350084
0.00348109
0.0034824
0.0035012
0.00350227
0.00348137
0.00349804
0.00349804
0.00349804
0.00345866
0.00345866
0.00345866
0.00345866
0.0034815
0.0035016
0.00349792
0.00348487
0.00350104
0.00348186
0.00348478
0.00350084
0.00348109
0.0034815
0.00349792
0.0035016
0.00348487
0.00350104
0.00348478
0.00348186
0.00350184
0.00350184
0.00348149
0.00348193
0.00348193
0.00342987
0.00344853
0.00344939
0.0034291
0.00344832
0.00342892
0.00342987
0.00344853
0.00344939
0.0034291
0.00344566
0.00344566
0.00344566
0.00340703
0.00340703
0.00340703
0.00340703
0.00342936
0.00344893
0.00344562
0.00343272
0.00344865
0.00342955
0.00343268
0.00344832
0.00342892
0.00342936
0.00344562
0.00344893
0.00343272
0.00344865
0.00343268
0.00342955
0.00344897
0.00344897
0.0034294
0.00342949
0.00342949
0.00337868
0.00339703
0.00339766
0.00337812
0.00339689
0.00337799
0.00337868
0.00339703
0.00339766
0.00337811
0.00339431
0.0033943
0.00339431
0.00335669
0.00335668
0.00335669
0.00335668
0.00337841
0.00339738
0.00339429
0.00338168
0.00339721
0.00337851
0.00338165
0.00339688
0.00337799
0.00337841
0.00339428
0.00339738
0.00338169
0.00339721
0.00338166
0.00337851
0.00339737
0.00339737
0.00337848
0.00337842
0.00337842
0.00332903
0.00334698
0.00334743
0.00332863
0.00334687
0.00332851
0.00332903
0.00334698
0.00334743
0.00332863
0.00334433
0.00334433
0.00334433
0.00330781
0.00330781
0.00330781
0.00330781
0.00332892
0.00334728
0.00334431
0.00333209
0.00334716
0.00332898
0.00333206
0.00334686
0.00332852
0.00332891
0.00334431