/*--------------------------------*- C++ -*----------------------------------*\
| =========                 |                                                 |
| \\      /  F ield         | OpenFOAM: The Open Source CFD Toolbox           |
|  \\    /   O peration     | Version:  v2012                                 |
|   \\  /    A nd           | Website:  www.openfoam.com                      |
|    \\/     M anipulation  |                                                 |
\*---------------------------------------------------------------------------*/
FoamFile
{
    version     2.0;
    format      ascii;
    class       volScalarField;
    location    "50";
    object      epsilon;
}
// * * * * * * * * * * * * * * * * * * * * * * * * * * * * * * * * * * * * * //

dimensions      [0 2 -3 0 0 0 0];


internalField   nonuniform List<scalar> 
85864
(
2.00453e-07
2.36523e-07
2.78839e-07
2.36393e-07
2.36513e-07
2.36639e-07
2.79029e-07
8.67607e-06
8.67532e-06
2.0188e-06
2.00362e-07
1.97464e-05
1.63114e-06
1.97066e-05
1.9709e-05
3.69038e-06
3.69661e-06
1.63095e-06
1.63129e-06
2.12947e-07
5.46155e-07
8.70696e-06
2.01908e-06
2.12949e-07
1.63844e-06
5.46176e-07
3.7388e-06
3.69364e-06
1.97093e-05
8.67856e-06
8.67581e-06
5.34828e-06
2.27579e-05
2.27417e-05
8.67469e-06
5.33144e-06
5.3298e-06
2.27386e-05
1.33279e-05
2.0177e-06
2.52725e-06
1.2208e-05
2.5167e-06
1.22077e-05
1.33256e-05
1.97474e-05
1.9707e-05
1.97102e-05
2.04811e-06
8.51557e-07
3.68893e-06
8.76893e-06
8.76845e-06
8.50953e-07
2.05666e-06
2.05193e-06
8.51912e-07
3.69555e-06
8.77332e-06
8.773e-06
8.51433e-07
2.05915e-06
7.11325e-06
2.20404e-05
2.20406e-05
2.20454e-05
2.20457e-05
7.1167e-06
2.28775e-05
8.70636e-06
5.44108e-06
5.42882e-06
2.28768e-05
1.33317e-05
2.01815e-06
1.22077e-05
2.54699e-06
1.22075e-05
2.54396e-06
1.33318e-05
2.05682e-06
8.57454e-07
3.73776e-06
8.78784e-06
8.78749e-06
8.56976e-07
2.06395e-06
2.05556e-06
8.51968e-07
3.69084e-06
8.77432e-06
8.51374e-07
8.77223e-06
2.0607e-06
7.12832e-06
2.20633e-05
2.20591e-05
2.20644e-05
2.20602e-05
7.13958e-06
1.97094e-05
8.67867e-06
1.9301e-07
6.83852e-07
3.85249e-07
3.85238e-07
2.78453e-07
3.84928e-07
3.84902e-07
6.86068e-07
6.8584e-07
3.86044e-07
3.85356e-07
2.78672e-07
3.85066e-07
3.85749e-07
6.86817e-07
1.93056e-07
3.85344e-07
5.12827e-07
1.62993e-06
9.78857e-07
5.12394e-07
9.78341e-07
3.85753e-07
3.85184e-07
5.12839e-07
1.62972e-06
9.78439e-07
9.77708e-07
5.12429e-07
3.85607e-07
3.85368e-07
5.13016e-07
1.6301e-06
9.76837e-07
9.76095e-07
5.12552e-07
3.85928e-07
3.20383e-07
5.45843e-07
6.36084e-07
3.00009e-07
6.35475e-07
2.99787e-07
3.20745e-07
3.86708e-07
5.14148e-07
1.63726e-06
9.911e-07
9.90196e-07
5.13727e-07
3.87199e-07
3.2084e-07
5.45905e-07
3.0005e-07
6.39021e-07
2.99785e-07
6.38663e-07
3.21197e-07
2.36516e-07
2.78967e-07
2.00406e-07
2.36463e-07
2.36516e-07
2.78817e-07
2.0043e-07
2.36465e-07
2.36528e-07
2.78871e-07
2.00432e-07
2.36456e-07
2.36531e-07
2.78775e-07
2.00436e-07
2.36488e-07
2.36514e-07
2.78765e-07
2.00428e-07
2.3652e-07
2.36495e-07
2.78832e-07
2.00428e-07
2.36538e-07
2.36497e-07
2.78927e-07
2.00451e-07
2.36523e-07
2.36488e-07
2.78894e-07
2.00469e-07
2.36512e-07
2.36478e-07
2.78867e-07
2.00509e-07
2.36478e-07
2.36473e-07
2.7895e-07
2.00486e-07
2.36459e-07
2.36487e-07
2.79085e-07
2.00477e-07
2.36483e-07
2.36507e-07
2.79061e-07
2.00463e-07
2.36525e-07
2.36507e-07
2.79361e-07
2.00454e-07
2.36533e-07
2.36504e-07
2.79032e-07
2.0045e-07
2.36529e-07
2.3647e-07
2.78889e-07
2.00447e-07
2.36519e-07
2.36439e-07
2.79343e-07
2.00447e-07
2.36507e-07
2.36438e-07
2.79006e-07
2.00445e-07
2.36484e-07
2.36459e-07
2.78785e-07
2.00442e-07
2.36483e-07
2.36454e-07
2.79201e-07
2.00441e-07
2.36492e-07
2.3648e-07
2.79031e-07
2.00441e-07
2.36494e-07
2.36495e-07
2.78916e-07
2.00437e-07
2.36497e-07
2.36498e-07
2.7924e-07
2.00431e-07
2.36498e-07
2.36488e-07
2.78955e-07
2.00441e-07
2.36507e-07
2.36484e-07
2.7941e-07
2.00453e-07
2.36514e-07
2.36486e-07
2.79177e-07
2.00455e-07
2.36485e-07
2.36493e-07
2.79053e-07
2.00451e-07
2.36446e-07
2.36488e-07
2.78888e-07
2.00456e-07
2.36458e-07
2.36491e-07
2.79237e-07
2.00452e-07
2.36469e-07
2.36506e-07
2.79441e-07
2.0045e-07
2.36474e-07
2.36506e-07
2.79068e-07
2.00449e-07
2.3647e-07
2.36513e-07
2.79326e-07
2.00451e-07
2.36474e-07
2.36506e-07
2.79032e-07
2.00443e-07
2.36488e-07
2.36509e-07
2.78891e-07
2.00431e-07
2.36539e-07
2.36511e-07
2.7882e-07
2.00445e-07
2.36564e-07
2.36512e-07
2.79242e-07
2.00446e-07
2.36525e-07
2.36542e-07
2.7906e-07
2.00442e-07
2.36511e-07
2.36578e-07
2.78947e-07
2.00433e-07
2.36517e-07
2.36571e-07
2.789e-07
2.00428e-07
2.36503e-07
2.3658e-07
2.79233e-07
2.00435e-07
2.36485e-07
2.36577e-07
2.7907e-07
2.00437e-07
2.36468e-07
2.36566e-07
2.78925e-07
2.00439e-07
2.36444e-07
2.36523e-07
2.79332e-07
2.0044e-07
2.36403e-07
2.36508e-07
2.79157e-07
2.00439e-07
2.36398e-07
2.36486e-07
2.78979e-07
2.00442e-07
2.3639e-07
2.36465e-07
2.78874e-07
2.00439e-07
2.36375e-07
2.36454e-07
2.78809e-07
2.00374e-07
2.36381e-07
2.36413e-07
2.78775e-07
1.9921e-07
2.31694e-07
2.31474e-07
2.73105e-07
2.78982e-07
2.36582e-07
2.36478e-07
2.3658e-07
2.78945e-07
2.78543e-07
2.36448e-07
2.3661e-07
2.3657e-07
2.36474e-07
2.36543e-07
2.78692e-07
2.36527e-07
2.36512e-07
2.36484e-07
2.78493e-07
2.79313e-07
2.78828e-07
2.36474e-07
2.36596e-07
2.36514e-07
2.36595e-07
2.78908e-07
2.78619e-07
2.36451e-07
2.36626e-07
2.36454e-07
2.36616e-07
2.36544e-07
2.36473e-07
2.36543e-07
2.79059e-07
2.78639e-07
2.36499e-07
2.36528e-07
2.36483e-07
2.78489e-07
2.79186e-07
2.78722e-07
2.36524e-07
2.36589e-07
2.36531e-07
2.36555e-07
2.78959e-07
2.78531e-07
2.36457e-07
2.36614e-07
2.36475e-07
2.36568e-07
2.36545e-07
2.36455e-07
2.3652e-07
2.78985e-07
2.78604e-07
2.36503e-07
2.36536e-07
2.36475e-07
2.78411e-07
2.79046e-07
2.78472e-07
2.36534e-07
2.36572e-07
2.36489e-07
2.36536e-07
2.78856e-07
2.7856e-07
2.36477e-07
2.36585e-07
2.36458e-07
2.36529e-07
2.36521e-07
2.36482e-07
2.36483e-07
2.78976e-07
2.78598e-07
2.36472e-07
2.36529e-07
2.36461e-07
2.78441e-07
2.78791e-07
2.784e-07
2.36493e-07
2.36569e-07
2.36466e-07
2.36552e-07
2.78893e-07
2.78573e-07
2.36461e-07
2.36547e-07
2.36452e-07
2.36525e-07
2.3649e-07
2.36514e-07
2.36488e-07
2.78925e-07
2.78469e-07
2.36478e-07
2.36495e-07
2.36492e-07
2.78497e-07
2.78769e-07
2.78463e-07
2.36485e-07
2.36545e-07
2.36485e-07
2.36542e-07
2.78909e-07
2.7852e-07
2.36465e-07
2.36528e-07
2.3647e-07
2.36527e-07
2.36496e-07
2.36548e-07
2.36508e-07
2.78829e-07
2.785e-07
2.36501e-07
2.36509e-07
2.36518e-07
2.78596e-07
2.78821e-07
2.78599e-07
2.36515e-07
2.36545e-07
2.36531e-07
2.36522e-07
2.78861e-07
2.78421e-07
2.365e-07
2.36548e-07
2.3651e-07
2.36531e-07
2.36535e-07
2.36526e-07
2.36554e-07
2.78883e-07
2.78455e-07
2.36529e-07
2.36493e-07
2.36512e-07
2.7853e-07
2.78965e-07
2.78605e-07
2.36543e-07
2.36527e-07
2.36578e-07
2.3653e-07
2.78773e-07
2.7849e-07
2.36553e-07
2.36531e-07
2.36547e-07
2.36526e-07
2.36566e-07
2.36525e-07
2.36595e-07
2.7878e-07
2.7844e-07
2.3652e-07
2.36487e-07
2.36503e-07
2.78514e-07
2.78989e-07
2.78623e-07
2.36593e-07
2.36538e-07
2.36593e-07
2.36526e-07
2.78862e-07
2.78463e-07
2.36562e-07
2.36529e-07
2.36525e-07
2.3652e-07
2.36616e-07
2.36502e-07
2.36627e-07
2.78823e-07
2.78418e-07
2.36521e-07
2.36473e-07
2.36534e-07
2.78563e-07
2.78953e-07
2.78553e-07
2.36606e-07
2.36546e-07
2.3656e-07
2.36525e-07
2.78777e-07
2.78363e-07
2.3653e-07
2.36529e-07
2.36495e-07
2.36512e-07
2.36633e-07
2.36459e-07
2.36602e-07
2.78775e-07
2.7847e-07
2.36531e-07
2.36483e-07
2.36575e-07
2.78707e-07
2.78885e-07
2.78643e-07
2.3657e-07
2.36526e-07
2.36564e-07
2.36513e-07
2.78708e-07
2.78469e-07
2.36497e-07
2.36532e-07
2.36486e-07
2.36516e-07
2.3661e-07
2.36468e-07
2.36608e-07
2.78833e-07
2.78469e-07
2.36651e-07
2.36504e-07
2.36612e-07
2.78739e-07
2.79017e-07
2.78569e-07
2.36584e-07
2.36514e-07
2.36565e-07
2.36528e-07
2.78839e-07
2.78514e-07
2.36498e-07
2.36556e-07
2.36489e-07
2.36546e-07
2.36611e-07
2.36521e-07
2.36587e-07
2.78834e-07
2.78471e-07
2.36615e-07
2.36504e-07
2.36583e-07
2.79045e-07
2.78904e-07
2.78448e-07
2.36554e-07
2.3653e-07
2.36495e-07
2.36541e-07
2.78896e-07
2.78513e-07
2.36504e-07
2.36569e-07
2.365e-07
2.36564e-07
2.36589e-07
2.36543e-07
2.36531e-07
2.78855e-07
2.78461e-07
2.36605e-07
2.36509e-07
2.36538e-07
2.7871e-07
2.78818e-07
2.78419e-07
2.36529e-07
2.36546e-07
2.36483e-07
2.36548e-07
2.78883e-07
2.786e-07
2.36489e-07
2.36565e-07
2.36461e-07
2.36564e-07
2.3653e-07
2.36532e-07
2.36503e-07
2.78825e-07
2.78535e-07
2.36532e-07
2.36502e-07
2.36508e-07
2.78567e-07
2.78747e-07
2.78482e-07
2.36493e-07
2.36548e-07
2.36507e-07
2.36548e-07
2.78954e-07
2.78627e-07
2.36471e-07
2.36541e-07
2.36451e-07
2.36497e-07
2.36523e-07
2.36527e-07
2.36512e-07
2.78856e-07
2.78436e-07
2.36524e-07
2.3645e-07
2.36538e-07
2.79028e-07
2.78842e-07
2.78447e-07
2.3651e-07
2.36558e-07
2.36522e-07
2.36545e-07
2.78954e-07
2.78514e-07
2.36469e-07
2.36529e-07
2.36446e-07
2.3651e-07
2.36511e-07
2.36516e-07
2.36481e-07
2.78773e-07
2.78367e-07
2.3655e-07
2.36435e-07
2.36513e-07
2.78678e-07
2.78802e-07
2.78535e-07
2.3653e-07
2.36542e-07
2.36521e-07
2.36526e-07
2.7884e-07
2.78447e-07
2.36462e-07
2.36532e-07
2.36464e-07
2.36533e-07
2.36485e-07
2.36493e-07
2.36466e-07
2.78733e-07
2.78529e-07
2.36519e-07
2.36453e-07
2.36496e-07
2.78478e-07
2.78907e-07
2.78533e-07
2.36535e-07
2.36527e-07
2.36522e-07
2.36522e-07
2.78773e-07
2.78449e-07
2.36469e-07
2.36534e-07
2.36474e-07
2.36515e-07
2.36473e-07
2.36477e-07
2.36474e-07
2.78869e-07
2.78421e-07
2.36513e-07
2.36455e-07
2.3651e-07
2.78879e-07
2.78859e-07
2.78346e-07
2.36524e-07
2.3652e-07
2.36501e-07
2.3648e-07
2.78821e-07
2.78555e-07
2.36476e-07
2.36515e-07
2.36446e-07
2.36515e-07
2.36476e-07
2.36492e-07
2.36495e-07
2.78744e-07
2.78454e-07
2.36515e-07
2.36478e-07
2.36525e-07
2.78696e-07
2.78715e-07
2.78362e-07
2.36497e-07
2.36496e-07
2.36465e-07
2.36478e-07
2.78889e-07
2.78437e-07
2.36462e-07
2.36513e-07
2.36417e-07
2.36534e-07
2.36516e-07
2.36499e-07
2.36516e-07
2.78786e-07
2.78471e-07
2.36527e-07
2.36498e-07
2.36544e-07
2.78611e-07
2.78706e-07
2.78319e-07
2.36483e-07
2.36473e-07
2.36458e-07
2.36481e-07
2.78774e-07
2.78428e-07
2.36434e-07
2.36583e-07
2.3643e-07
2.36599e-07
2.36521e-07
2.36497e-07
2.36515e-07
2.78836e-07
2.78599e-07
2.36546e-07
2.365e-07
2.36551e-07
2.7893e-07
2.78656e-07
2.78408e-07
2.36468e-07
2.36504e-07
2.36454e-07
2.36531e-07
2.78817e-07
2.78435e-07
2.36442e-07
2.36611e-07
2.36472e-07
2.36635e-07
2.36512e-07
2.36497e-07
2.36501e-07
2.78978e-07
2.78682e-07
2.36548e-07
2.36497e-07
2.36539e-07
2.78654e-07
2.78792e-07
2.78533e-07
2.36473e-07
2.36549e-07
2.36471e-07
2.36549e-07
2.7877e-07
2.78512e-07
2.36491e-07
2.36645e-07
2.36507e-07
2.36635e-07
2.3652e-07
2.36508e-07
2.36529e-07
2.7901e-07
2.78599e-07
2.36577e-07
2.36482e-07
2.36594e-07
2.79082e-07
2.78901e-07
2.78606e-07
2.36502e-07
2.36569e-07
2.36525e-07
2.36555e-07
2.78881e-07
2.78477e-07
2.36552e-07
2.36653e-07
2.36543e-07
2.36647e-07
2.36546e-07
2.36513e-07
2.36553e-07
2.78971e-07
2.7867e-07
2.36638e-07
2.36485e-07
2.36617e-07
2.7885e-07
2.78943e-07
2.78603e-07
2.3653e-07
2.36543e-07
2.36531e-07
2.36512e-07
2.78836e-07
2.78485e-07
2.3656e-07
2.36649e-07
2.3653e-07
2.36637e-07
2.36564e-07
2.36511e-07
2.36532e-07
2.79019e-07
2.78669e-07
2.36637e-07
2.36494e-07
2.36608e-07
2.78727e-07
2.78938e-07
2.78539e-07
2.36536e-07
2.36544e-07
2.36526e-07
2.36514e-07
2.78805e-07
2.78402e-07
2.36531e-07
2.36652e-07
2.36509e-07
2.36627e-07
2.36535e-07
2.36458e-07
2.3652e-07
2.79005e-07
2.78565e-07
2.36612e-07
2.36493e-07
2.36591e-07
2.78588e-07
2.78885e-07
2.78488e-07
2.36534e-07
2.36547e-07
2.36527e-07
2.36489e-07
2.7877e-07
2.78366e-07
2.36509e-07
2.36645e-07
2.36487e-07
2.36625e-07
2.36524e-07
2.36458e-07
2.36518e-07
2.78918e-07
2.78587e-07
2.36605e-07
2.36489e-07
2.36586e-07
2.78955e-07
2.78855e-07
2.785e-07
2.36546e-07
2.36504e-07
2.36539e-07
2.36497e-07
2.78714e-07
2.78481e-07
2.36493e-07
2.36636e-07
2.36468e-07
2.36633e-07
2.3652e-07
2.36464e-07
2.36504e-07
2.78922e-07
2.786e-07
2.36588e-07
2.36511e-07
2.36592e-07
2.79134e-07
2.78832e-07
2.78476e-07
2.36551e-07
2.36498e-07
2.36537e-07
2.36507e-07
2.78828e-07
2.78469e-07
2.36493e-07
2.36634e-07
2.36491e-07
2.36612e-07
2.36507e-07
2.36485e-07
2.36487e-07
2.78931e-07
2.7857e-07
2.36599e-07
2.36504e-07
2.36592e-07
2.78777e-07
2.78829e-07
2.78489e-07
2.36547e-07
2.36506e-07
2.36496e-07
2.36494e-07
2.78795e-07
2.78403e-07
2.36504e-07
2.36647e-07
2.36531e-07
2.36639e-07
2.36486e-07
2.36473e-07
2.3647e-07
2.78952e-07
2.78571e-07
2.36592e-07
2.36514e-07
2.36585e-07
2.79007e-07
2.78848e-07
2.78506e-07
2.36497e-07
2.36499e-07
2.3648e-07
2.36483e-07
2.78756e-07
2.78413e-07
2.36551e-07
2.36636e-07
2.36536e-07
2.36618e-07
2.36512e-07
2.36474e-07
2.36482e-07
2.78946e-07
2.7861e-07
2.36583e-07
2.36507e-07
2.36553e-07
2.78708e-07
2.78835e-07
2.78447e-07
2.36489e-07
2.36488e-07
2.36475e-07
2.36487e-07
2.78754e-07
2.78432e-07
2.36537e-07
2.36602e-07
2.3649e-07
2.36591e-07
2.36492e-07
2.36486e-07
2.3648e-07
2.78989e-07
2.7857e-07
2.36559e-07
2.36509e-07
2.36544e-07
2.78562e-07
2.7876e-07
2.78384e-07
2.36494e-07
2.3649e-07
2.36467e-07
2.36483e-07
2.78787e-07
2.78539e-07
2.36498e-07
2.3659e-07
2.3647e-07
2.36621e-07
2.36496e-07
2.36525e-07
2.36503e-07
2.78929e-07
2.78637e-07
2.36543e-07
2.3651e-07
2.36545e-07
2.78499e-07
2.78737e-07
2.78354e-07
2.36462e-07
2.36487e-07
2.36455e-07
2.36505e-07
2.78892e-07
2.7859e-07
2.36478e-07
2.3668e-07
2.36461e-07
2.3666e-07
2.36521e-07
2.36564e-07
2.36544e-07
2.78965e-07
2.7861e-07
2.36548e-07
2.36511e-07
2.36562e-07
2.78923e-07
2.78729e-07
2.7844e-07
2.36499e-07
2.36515e-07
2.36502e-07
2.36511e-07
2.78948e-07
2.78576e-07
2.36479e-07
2.3666e-07
2.3645e-07
2.3663e-07
2.36552e-07
2.3655e-07
2.36552e-07
2.78966e-07
2.7874e-07
2.36575e-07
2.36519e-07
2.36568e-07
2.78734e-07
2.78785e-07
2.78415e-07
2.36518e-07
2.36514e-07
2.36528e-07
2.36491e-07
2.7889e-07
2.7854e-07
2.36456e-07
2.36628e-07
2.36416e-07
2.36581e-07
2.36553e-07
2.36516e-07
2.36524e-07
2.79087e-07
2.78703e-07
2.36565e-07
2.3657e-07
2.36544e-07
2.78625e-07
2.78769e-07
2.78343e-07
2.36543e-07
2.36495e-07
2.36507e-07
2.36514e-07
2.78915e-07
2.78601e-07
2.36433e-07
2.36594e-07
2.36401e-07
2.36553e-07
2.36531e-07
2.36503e-07
2.36526e-07
2.79049e-07
2.78606e-07
2.36544e-07
2.36572e-07
2.36509e-07
2.7856e-07
2.78693e-07
2.78422e-07
2.36517e-07
2.36542e-07
2.36481e-07
2.36548e-07
2.78965e-07
2.78677e-07
2.36418e-07
2.36559e-07
2.36414e-07
2.36539e-07
2.36535e-07
2.36523e-07
2.36542e-07
2.78935e-07
2.78602e-07
2.36513e-07
2.36576e-07
2.36501e-07
2.78913e-07
2.78757e-07
2.78377e-07
2.36492e-07
2.36575e-07
2.36461e-07
2.3656e-07
2.79006e-07
2.7857e-07
2.36421e-07
2.36548e-07
2.36421e-07
2.36532e-07
2.36572e-07
2.36496e-07
2.36565e-07
2.78983e-07
2.78596e-07
2.36503e-07
2.36583e-07
2.36487e-07
2.78744e-07
2.7874e-07
2.78408e-07
2.36458e-07
2.3656e-07
2.36463e-07
2.36548e-07
2.78943e-07
2.78545e-07
2.36467e-07
2.36554e-07
2.36473e-07
2.36542e-07
2.36581e-07
2.3647e-07
2.36595e-07
2.78925e-07
2.78633e-07
2.36508e-07
2.36576e-07
2.36497e-07
2.78604e-07
2.78778e-07
2.78589e-07
2.36471e-07
2.3655e-07
2.36488e-07
2.36539e-07
2.78866e-07
2.7853e-07
2.36492e-07
2.36586e-07
2.3648e-07
2.36618e-07
2.36605e-07
2.36468e-07
2.36622e-07
2.78991e-07
2.78656e-07
2.36502e-07
2.36546e-07
2.36513e-07
2.79009e-07
2.78975e-07
2.7861e-07
2.36517e-07
2.36541e-07
2.36498e-07
2.36503e-07
2.78869e-07
2.78387e-07
2.36515e-07
2.36627e-07
2.36497e-07
2.36651e-07
2.36639e-07
2.36421e-07
2.36651e-07
2.7901e-07
2.78632e-07
2.36517e-07
2.36519e-07
2.36544e-07
2.78821e-07
2.78952e-07
2.786e-07
2.36517e-07
2.36513e-07
2.36509e-07
2.36488e-07
2.78732e-07
2.78295e-07
2.36509e-07
2.36661e-07
2.36481e-07
2.3665e-07
2.36663e-07
2.36398e-07
2.36617e-07
2.78996e-07
2.7866e-07
2.36565e-07
2.36492e-07
2.36569e-07
2.78654e-07
2.7894e-07
2.78683e-07
2.36537e-07
2.36508e-07
2.36531e-07
2.36477e-07
2.7863e-07
2.78352e-07
2.36497e-07
2.36661e-07
2.3651e-07
2.36618e-07
2.36631e-07
2.36389e-07
2.36572e-07
2.78986e-07
2.78601e-07
2.36576e-07
2.36475e-07
2.36514e-07
2.78548e-07
2.79004e-07
2.78696e-07
2.36529e-07
2.3648e-07
2.36493e-07
2.36453e-07
2.78724e-07
2.78478e-07
2.36533e-07
2.36621e-07
2.36523e-07
2.36563e-07
2.36577e-07
2.36373e-07
2.36511e-07
2.78924e-07
2.78484e-07
2.36523e-07
2.36456e-07
2.36458e-07
2.78467e-07
2.79008e-07
2.784e-07
2.36499e-07
2.36474e-07
2.36369e-07
2.36397e-07
2.78833e-07
2.78491e-07
2.36526e-07
2.36564e-07
2.36379e-07
2.36463e-07
2.36523e-07
2.36318e-07
2.3638e-07
2.78867e-07
2.78405e-07
2.36457e-07
2.36354e-07
2.36343e-07
2.78428e-07
2.78703e-07
2.7572e-07
2.36417e-07
2.36457e-07
2.3273e-07
2.32787e-07
2.78834e-07
2.75856e-07
2.36432e-07
2.36521e-07
2.32712e-07
2.32869e-07
2.36433e-07
2.32848e-07
2.32787e-07
2.78702e-07
2.76061e-07
2.36413e-07
2.32842e-07
2.32819e-07
2.76209e-07
2.72859e-07
2.31449e-07
2.32312e-07
2.73313e-07
2.32236e-07
2.31566e-07
1.9915e-07
1.9916e-07
1.9915e-07
2.31541e-07
2.72821e-07
2.3155e-07
2.0203e-06
8.67599e-06
2.02109e-06
1.97169e-05
1.97186e-05
2.0174e-06
8.67475e-06
2.00464e-07
2.0046e-07
2.00414e-07
2.00428e-07
2.00444e-07
2.00435e-07
5.46793e-07
1.63148e-06
2.13015e-07
2.36513e-07
1.63034e-06
2.1305e-07
5.47053e-07
1.97474e-05
5.46383e-07
2.13007e-07
2.36519e-07
2.13021e-07
1.62987e-06
5.46565e-07
3.68913e-06
3.69507e-06
2.78557e-07
3.69099e-06
3.68978e-06
2.021e-06
8.67482e-06
2.02157e-06
8.67398e-06
1.97171e-05
1.97166e-05
2.01659e-06
8.67576e-06
2.01771e-06
8.67613e-06
2.00459e-07
2.00448e-07
2.00457e-07
2.0043e-07
2.00445e-07
2.00445e-07
2.00443e-07
5.4651e-07
1.63132e-06
2.13048e-07
2.36471e-07
5.46789e-07
1.62994e-06
2.13059e-07
1.9745e-05
1.97419e-05
5.46355e-07
2.13022e-07
1.6308e-06
2.36528e-07
5.46657e-07
2.13032e-07
1.62963e-06
3.69543e-06
3.69258e-06
2.78451e-07
3.6893e-06
3.69472e-06
2.02121e-06
8.6722e-06
2.0223e-06
8.67126e-06
1.9712e-05
1.97121e-05
2.01654e-06
8.67509e-06
2.01751e-06
8.67563e-06
2.00445e-07
2.00457e-07
2.00448e-07
2.00431e-07
2.00442e-07
2.00439e-07
2.00442e-07
5.46298e-07
1.63106e-06
2.13024e-07
2.36465e-07
5.46681e-07
1.62975e-06
2.13016e-07
1.97332e-05
1.97265e-05
5.4604e-07
2.13012e-07
1.6313e-06
2.36531e-07
5.46384e-07
2.13035e-07
1.63034e-06
3.69501e-06
3.69937e-06
2.78485e-07
3.69677e-06
3.69589e-06
2.01992e-06
8.67017e-06
2.02159e-06
8.66906e-06
1.97116e-05
1.97116e-05
2.01627e-06
8.67913e-06
2.01734e-06
8.67739e-06
2.00443e-07
2.00461e-07
2.00445e-07
2.00437e-07
2.00445e-07
2.00446e-07
2.00436e-07
5.46299e-07
1.63094e-06
2.13016e-07
2.36483e-07
5.46567e-07
1.62972e-06
2.13019e-07
1.9715e-05
1.97148e-05
5.46341e-07
2.12987e-07
1.63149e-06
2.36535e-07
5.46608e-07
2.13003e-07
1.63014e-06
3.69753e-06
3.69769e-06
2.78428e-07
3.69486e-06
3.69845e-06
2.01809e-06
8.66961e-06
2.01984e-06
8.66944e-06
1.9706e-05
1.97057e-05
2.01458e-06
8.67674e-06
2.01675e-06
8.67558e-06
2.00453e-07
2.00446e-07
2.00438e-07
2.00429e-07
2.0045e-07
2.00446e-07
2.00435e-07
5.46143e-07
1.63109e-06
2.13008e-07
2.36509e-07
5.46562e-07
1.62997e-06
2.13011e-07
1.97138e-05
1.97125e-05
5.46112e-07
2.1299e-07
1.63135e-06
2.3651e-07
5.4645e-07
2.12995e-07
1.63029e-06
3.69217e-06
3.70032e-06
2.78434e-07
3.69133e-06
3.69323e-06
2.01543e-06
8.66926e-06
2.01722e-06
8.66935e-06
1.97072e-05
1.97113e-05
2.01458e-06
8.6758e-06
2.01489e-06
8.67772e-06
2.00462e-07
2.00453e-07
2.00439e-07
2.00428e-07
2.00459e-07
2.00446e-07
2.00447e-07
5.4595e-07
1.63136e-06
2.13002e-07
2.36542e-07
5.46231e-07
1.63026e-06
2.13009e-07
1.97077e-05
1.97066e-05
5.46173e-07
2.12993e-07
1.63165e-06
2.36499e-07
5.46456e-07
2.12997e-07
1.63053e-06
3.68976e-06
3.69457e-06
2.78538e-07
3.68835e-06
3.6952e-06
2.01612e-06
8.67094e-06
2.01647e-06
8.66935e-06
1.97122e-05
1.97142e-05
2.01786e-06
8.67836e-06
2.01737e-06
8.67392e-06
2.00468e-07
2.00463e-07
2.00446e-07
2.00447e-07
2.00478e-07
2.00468e-07
2.0046e-07
5.46228e-07
1.63159e-06
2.13009e-07
2.36559e-07
5.46363e-07
1.63029e-06
2.13026e-07
1.97059e-05
1.97082e-05
5.46326e-07
2.12989e-07
1.63154e-06
2.36495e-07
5.46501e-07
2.12997e-07
1.63016e-06
3.68754e-06
3.69595e-06
2.7857e-07
3.69092e-06
3.69008e-06
2.01943e-06
8.67074e-06
2.01912e-06
8.67062e-06
1.97151e-05
1.97159e-05
2.01785e-06
8.67584e-06
2.01973e-06
8.67657e-06
2.00483e-07
2.00473e-07
2.00467e-07
2.00468e-07
2.0048e-07
2.0049e-07
2.00498e-07
5.46472e-07
1.63147e-06
2.13025e-07
2.36534e-07
5.46648e-07
1.63033e-06
2.13037e-07
1.9709e-05
1.97104e-05
5.46683e-07
2.12997e-07
1.63158e-06
2.36488e-07
5.46787e-07
2.13003e-07
1.63052e-06
3.68878e-06
3.69279e-06
2.78507e-07
3.69398e-06
3.69593e-06
2.02257e-06
8.67128e-06
2.02287e-06
8.6718e-06
1.97134e-05
1.97123e-05
2.01728e-06
8.6789e-06
2.01803e-06
8.6794e-06
2.00536e-07
2.0053e-07
2.00523e-07
2.00512e-07
2.00521e-07
2.00523e-07
2.00532e-07
5.467e-07
1.63176e-06
2.13031e-07
2.36516e-07
5.46892e-07
1.63062e-06
2.13038e-07
1.9712e-05
1.97127e-05
5.46962e-07
2.13005e-07
1.63157e-06
2.3649e-07
5.47183e-07
2.13032e-07
1.63012e-06
3.69371e-06
3.69531e-06
2.78557e-07
3.68819e-06
3.6931e-06
2.02346e-06
8.67262e-06
2.0243e-06
8.67066e-06
1.97107e-05
1.9712e-05
2.02079e-06
8.68087e-06
2.0202e-06
8.67875e-06
2.0053e-07
2.00539e-07
2.00548e-07
2.00496e-07
2.00491e-07
2.00489e-07
2.00518e-07
5.46987e-07
1.63177e-06
2.13048e-07
2.36472e-07
5.47099e-07
1.63042e-06
2.13053e-07
1.97127e-05
1.97138e-05
5.47158e-07
2.13052e-07
1.63107e-06
2.3648e-07
5.47312e-07
2.13069e-07
1.62978e-06
3.70008e-06
3.69325e-06
2.78623e-07
3.70215e-06
3.69099e-06
2.02331e-06
8.67123e-06
2.02448e-06
8.6717e-06
1.97152e-05
1.97178e-05
2.02235e-06
8.67812e-06
2.02317e-06
8.67605e-06
2.00505e-07
2.00513e-07
2.00541e-07
2.00487e-07
2.0048e-07
2.00486e-07
2.00503e-07
5.47344e-07
1.63175e-06
2.13053e-07
2.36472e-07
5.47432e-07
1.63052e-06
2.13057e-07
1.97155e-05
1.97181e-05
5.47073e-07
2.13065e-07
1.6307e-06
2.36499e-07
5.4736e-07
2.13073e-07
1.62951e-06
3.703e-06
3.6963e-06
2.78741e-07
3.70151e-06
3.69785e-06
2.0228e-06
8.67546e-06
2.02398e-06
8.6759e-06
1.97152e-05
1.97146e-05
2.02181e-06
8.67789e-06
2.02314e-06
8.67625e-06
2.00483e-07
2.005e-07
2.00514e-07
2.00472e-07
2.00464e-07
2.00468e-07
2.00483e-07
5.47254e-07
1.63181e-06
2.13052e-07
2.3651e-07
5.47601e-07
1.63066e-06
2.13058e-07
1.97212e-05
1.97245e-05
5.47148e-07
2.13073e-07
1.631e-06
2.36513e-07
5.47381e-07
2.13082e-07
1.62991e-06
3.70024e-06
3.69936e-06
2.79271e-07
3.69663e-06
3.69386e-06
2.02205e-06
8.67755e-06
2.02335e-06
8.67852e-06
1.97136e-05
1.97142e-05
2.02092e-06
8.67577e-06
2.02217e-06
8.6758e-06
2.00476e-07
2.00485e-07
2.00482e-07
2.00456e-07
2.00455e-07
2.00459e-07
2.00463e-07
5.46849e-07
1.63209e-06
2.13047e-07
2.36546e-07
5.47324e-07
1.63095e-06
2.13085e-07
1.9727e-05
1.97291e-05
5.46974e-07
2.13045e-07
1.63133e-06
2.36512e-07
5.47396e-07
2.13053e-07
1.63021e-06
3.69711e-06
3.70053e-06
2.78841e-07
3.69101e-06
3.69845e-06
2.02105e-06
8.67682e-06
2.02244e-06
8.67592e-06
1.9709e-05
1.97087e-05
2.01996e-06
8.67429e-06
2.02135e-06
8.67242e-06
2.00475e-07
2.00459e-07
2.00473e-07
2.00454e-07
2.00453e-07
2.00444e-07
2.00451e-07
5.46386e-07
1.63228e-06
2.13e-07
2.36535e-07
5.46832e-07
1.63085e-06
2.13079e-07
1.97296e-05
1.97314e-05
5.4652e-07
2.1303e-07
1.63155e-06
2.3651e-07
5.46898e-07
2.13029e-07
1.63023e-06
3.6904e-06
3.69611e-06
2.78622e-07
3.68577e-06
3.69327e-06
2.02021e-06
8.67284e-06
2.02156e-06
8.67305e-06
1.97079e-05
1.97087e-05
2.01888e-06
8.67521e-06
2.02021e-06
8.67574e-06
2.00459e-07
2.00453e-07
2.00473e-07
2.00448e-07
2.00454e-07
2.00434e-07
2.0045e-07
5.45958e-07
1.63165e-06
2.13019e-07
2.36531e-07
5.46352e-07
1.63038e-06
2.13034e-07
1.97326e-05
1.97348e-05
5.46376e-07
2.13009e-07
1.63137e-06
2.36463e-07
5.46672e-07
2.13002e-07
1.63009e-06
3.6946e-06
3.69529e-06
2.79192e-07
3.69439e-06
3.69397e-06
2.01965e-06
8.673e-06
2.02075e-06
8.67351e-06
1.97078e-05
1.97095e-05
2.01732e-06
8.67816e-06
2.01882e-06
8.67847e-06
2.0046e-07
2.00451e-07
2.00453e-07
2.00448e-07
2.00451e-07
2.00433e-07
2.00447e-07
5.45825e-07
1.63167e-06
2.13024e-07
2.36518e-07
5.46123e-07
1.63056e-06
2.13025e-07
1.97369e-05
1.97393e-05
5.46296e-07
2.1299e-07
1.63099e-06
2.3644e-07
5.46561e-07
2.12993e-07
1.62962e-06
3.69653e-06
3.69845e-06
2.78832e-07
3.6952e-06
3.69725e-06
2.01988e-06
8.67297e-06
2.02076e-06
8.67076e-06
1.971e-05
1.9713e-05
2.01413e-06
8.67933e-06
2.0163e-06
8.6785e-06
2.00459e-07
2.00439e-07
2.00454e-07
2.00449e-07
2.00448e-07
2.00429e-07
2.00442e-07
5.45542e-07
1.63166e-06
2.13023e-07
2.36539e-07
5.45952e-07
1.63012e-06
2.13024e-07
1.97404e-05
1.97427e-05
5.46404e-07
2.12993e-07
1.63088e-06
2.36449e-07
5.467e-07
2.13015e-07
1.62977e-06
3.69082e-06
3.69848e-06
2.78592e-07
3.69329e-06
3.69753e-06
2.01987e-06
8.67046e-06
2.02092e-06
8.67035e-06
1.97148e-05
1.97178e-05
2.01351e-06
8.67708e-06
2.01516e-06
8.67578e-06
2.00469e-07
2.00447e-07
2.00457e-07
2.00444e-07
2.00449e-07
2.00435e-07
2.00447e-07
5.45417e-07
1.63105e-06
2.13014e-07
2.36536e-07
5.45664e-07
1.62992e-06
2.13013e-07
1.97428e-05
1.97439e-05
5.46206e-07
2.13037e-07
1.63109e-06
2.36468e-07
5.46584e-07
2.13051e-07
1.6297e-06
3.69298e-06
3.69868e-06
2.79031e-07
3.69397e-06
3.69893e-06
2.01938e-06
8.67194e-06
2.02063e-06
8.67211e-06
1.9714e-05
1.97125e-05
2.01451e-06
8.67577e-06
2.01452e-06
8.67496e-06
2.00466e-07
2.00456e-07
2.00445e-07
2.00447e-07
2.00446e-07
2.00435e-07
2.00449e-07
5.45997e-07
1.63105e-06
2.13013e-07
2.36502e-07
5.4613e-07
1.62978e-06
2.13017e-07
1.97434e-05
1.97445e-05
5.46038e-07
2.13043e-07
1.63077e-06
2.3647e-07
5.46398e-07
2.13056e-07
1.62974e-06
3.69503e-06
3.69963e-06
2.78773e-07
3.69432e-06
3.6925e-06
2.01853e-06
8.6728e-06
2.01985e-06
8.67275e-06
1.97094e-05
1.97116e-05
2.01791e-06
8.67753e-06
2.0175e-06
8.67729e-06
2.00468e-07
2.0045e-07
2.00463e-07
2.00444e-07
2.0045e-07
2.00445e-07
2.00455e-07
5.46096e-07
1.63097e-06
2.13012e-07
2.36507e-07
5.46393e-07
1.62981e-06
2.13015e-07
1.97442e-05
1.97454e-05
5.45988e-07
2.13051e-07
1.63131e-06
2.36489e-07
5.46263e-07
2.13061e-07
1.63014e-06
3.69149e-06
3.69e-06
2.78629e-07
3.69763e-06
3.69527e-06
2.01779e-06
8.67366e-06
2.01905e-06
8.67275e-06
1.97125e-05
1.97151e-05
2.01838e-06
8.67568e-06
2.0195e-06
8.67284e-06
2.00452e-07
2.00444e-07
2.00451e-07
2.0044e-07
2.00444e-07
2.00453e-07
2.00454e-07
5.46066e-07
1.63121e-06
2.12989e-07
2.36496e-07
5.4636e-07
1.63001e-06
2.12995e-07
1.97451e-05
1.97463e-05
5.45471e-07
2.13042e-07
1.63103e-06
2.36498e-07
5.45974e-07
2.13042e-07
1.62972e-06
3.69837e-06
3.69587e-06
2.7914e-07
3.6989e-06
3.6905e-06
2.01678e-06
8.67485e-06
2.01834e-06
8.67635e-06
1.97145e-05
1.97148e-05
2.0178e-06
8.67342e-06
2.01894e-06
8.67419e-06
2.00442e-07
2.00456e-07
2.00455e-07
2.00434e-07
2.00446e-07
2.00458e-07
2.00453e-07
5.45972e-07
1.6315e-06
2.12987e-07
2.36498e-07
5.46203e-07
1.63055e-06
2.1299e-07
1.97458e-05
1.97469e-05
5.45526e-07
2.12997e-07
1.63104e-06
2.36498e-07
5.45707e-07
2.13018e-07
1.63012e-06
3.69907e-06
3.69481e-06
2.78748e-07
3.69662e-06
3.6945e-06
2.0137e-06
8.67775e-06
2.01558e-06
8.67391e-06
1.97132e-05
1.97144e-05
2.01746e-06
8.67304e-06
2.01859e-06
8.67043e-06
2.00449e-07
2.00463e-07
2.00458e-07
2.00425e-07
2.00451e-07
2.0046e-07
2.00464e-07
5.46098e-07
1.63194e-06
2.12993e-07
2.36509e-07
5.46304e-07
1.6305e-06
2.13006e-07
1.97462e-05
1.9747e-05
5.46011e-07
2.12998e-07
1.63156e-06
2.36495e-07
5.46146e-07
2.13002e-07
1.63008e-06
3.69986e-06
3.69615e-06
2.79184e-07
3.69914e-06
3.69583e-06
2.01388e-06
8.6734e-06
2.01483e-06
8.67426e-06
1.97159e-05
1.9718e-05
2.01719e-06
8.67232e-06
2.01814e-06
8.67349e-06
2.00461e-07
2.00465e-07
2.00467e-07
2.00458e-07
2.00457e-07
2.00461e-07
2.00464e-07
5.46071e-07
1.63144e-06
2.13019e-07
2.36515e-07
5.46422e-07
1.63023e-06
2.13028e-07
1.97464e-05
1.97474e-05
5.46183e-07
2.12988e-07
1.63072e-06
2.36489e-07
5.46459e-07
2.12999e-07
1.62927e-06
3.70132e-06
3.69681e-06
2.78944e-07
3.69945e-06
3.69543e-06
2.01424e-06
8.67261e-06
2.0146e-06
8.67193e-06
1.97151e-05
1.97149e-05
2.0162e-06
8.67616e-06
2.01799e-06
8.67624e-06
2.00461e-07
2.00466e-07
2.00471e-07
2.00456e-07
2.00449e-07
2.00465e-07
2.00457e-07
5.4572e-07
1.63154e-06
2.13024e-07
2.36515e-07
5.46135e-07
1.63006e-06
2.13052e-07
1.97465e-05
1.97472e-05
5.4619e-07
2.12991e-07
1.6301e-06
2.36491e-07
5.4637e-07
2.13014e-07
1.62881e-06
3.70655e-06
3.69755e-06
2.78816e-07
3.69609e-06
3.69781e-06
2.01825e-06
8.67155e-06
2.01759e-06
8.67128e-06
1.97122e-05
1.97124e-05
2.01425e-06
8.67744e-06
2.01561e-06
8.67679e-06
2.00454e-07
2.00466e-07
2.00468e-07
2.00452e-07
2.00441e-07
2.00462e-07
2.00456e-07
5.45744e-07
1.63105e-06
2.13036e-07
2.36489e-07
5.45939e-07
1.62987e-06
2.13074e-07
1.97462e-05
1.97469e-05
5.46013e-07
2.13012e-07
1.63034e-06
2.36499e-07
5.46404e-07
2.13043e-07
1.62945e-06
3.68792e-06
3.69604e-06
2.78641e-07
3.69027e-06
3.69534e-06
2.01962e-06
8.67395e-06
2.02042e-06
8.67358e-06
1.97099e-05
1.97107e-05
2.01627e-06
8.67526e-06
2.01616e-06
8.67519e-06
2.00453e-07
2.00464e-07
2.00478e-07
2.00455e-07
2.00434e-07
2.00458e-07
2.00454e-07
5.462e-07
1.63122e-06
2.13041e-07
2.36456e-07
5.46221e-07
1.63005e-06
2.13055e-07
1.9746e-05
1.97469e-05
5.45894e-07
2.13031e-07
1.63109e-06
2.3649e-07
5.46141e-07
2.13033e-07
1.63008e-06
3.69074e-06
3.69276e-06
2.79123e-07
3.69767e-06
3.69316e-06
2.01981e-06
8.67483e-06
2.02075e-06
8.6756e-06
1.97113e-05
1.97136e-05
2.01921e-06
8.67734e-06
2.01952e-06
8.67753e-06
2.0046e-07
2.00466e-07
2.00474e-07
2.00458e-07
2.00449e-07
2.00456e-07
2.00455e-07
5.46289e-07
1.63141e-06
2.13039e-07
2.36463e-07
5.46584e-07
1.63014e-06
2.13047e-07
1.97462e-05
1.97472e-05
5.46021e-07
2.13044e-07
1.6313e-06
2.36518e-07
5.46265e-07
2.13068e-07
1.63025e-06
3.70364e-06
3.7016e-06
2.79365e-07
3.69703e-06
3.70086e-06
2.02018e-06
8.67701e-06
2.02106e-06
8.67486e-06
1.97114e-05
1.97117e-05
2.01847e-06
8.67736e-06
2.02006e-06
8.67511e-06
2.00449e-07
2.00469e-07
2.00459e-07
2.00451e-07
2.00446e-07
2.00449e-07
2.00449e-07
5.46201e-07
1.63125e-06
2.13019e-07
2.36486e-07
5.46414e-07
1.6298e-06
2.13023e-07
1.97463e-05
1.97471e-05
5.45974e-07
2.13045e-07
1.63178e-06
2.3655e-07
5.46239e-07
2.13047e-07
1.63066e-06
3.69668e-06
3.70095e-06
2.78902e-07
3.70136e-06
3.70025e-06
2.02034e-06
8.67187e-06
2.02131e-06
8.67241e-06
1.97123e-05
1.97153e-05
2.01472e-06
8.67408e-06
2.01748e-06
8.67155e-06
2.00445e-07