/*--------------------------------*- C++ -*----------------------------------*\
| =========                 |                                                 |
| \\      /  F ield         | OpenFOAM: The Open Source CFD Toolbox           |
|  \\    /   O peration     | Version:  v2012                                 |
|   \\  /    A nd           | Website:  www.openfoam.com                      |
|    \\/     M anipulation  |                                                 |
\*---------------------------------------------------------------------------*/
FoamFile
{
    version     2.0;
    format      ascii;
    class       volScalarField;
    location    "50";
    object      k;
}
// * * * * * * * * * * * * * * * * * * * * * * * * * * * * * * * * * * * * * //

dimensions      [0 2 -2 0 0 0 0];


internalField   nonuniform List<scalar> 
85864
(
2.10236e-05
2.0376e-05
2.01405e-05
2.03738e-05
2.03763e-05
2.03758e-05
2.01896e-05
6.87721e-05
6.87612e-05
3.00786e-05
2.10227e-05
7.26391e-05
2.90496e-05
7.25419e-05
7.25425e-05
4.11611e-05
4.12627e-05
2.90414e-05
2.90474e-05
2.06772e-05
2.05895e-05
6.89358e-05
3.0087e-05
2.06776e-05
2.91459e-05
2.05979e-05
4.18778e-05
4.11822e-05
7.25467e-05
6.87854e-05
6.87708e-05
5.2761e-05
7.15571e-05
7.15205e-05
6.87581e-05
5.245e-05
5.2424e-05
7.15147e-05
7.41399e-05
3.00698e-05
3.37671e-05
7.54198e-05
3.37004e-05
7.54183e-05
7.41461e-05
7.26417e-05
7.25429e-05
7.2546e-05
3.27586e-05
2.32727e-05
4.1152e-05
6.73583e-05
6.73555e-05
2.32662e-05
3.27694e-05
3.27828e-05
2.32756e-05
4.12634e-05
6.7366e-05
6.73648e-05
2.32716e-05
3.27929e-05
6.00307e-05
7.2613e-05
7.26079e-05
7.26233e-05
7.26185e-05
5.98724e-05
7.18153e-05
6.89322e-05
5.39042e-05
5.37143e-05
7.18132e-05
7.41548e-05
3.0081e-05
7.54181e-05
3.41951e-05
7.5417e-05
3.41381e-05
7.41555e-05
3.28509e-05
2.33684e-05
4.18731e-05
6.7445e-05
6.74434e-05
2.33643e-05
3.28557e-05
3.28142e-05
2.32789e-05
4.11081e-05
6.73792e-05
2.32716e-05
6.73754e-05
3.28202e-05
6.02522e-05
7.26653e-05
7.26613e-05
7.26688e-05
7.26648e-05
6.03175e-05
7.2547e-05
6.87795e-05
2.13204e-05
2.23712e-05
2.04471e-05
2.04214e-05
2.01396e-05
2.0412e-05
2.04069e-05
2.23768e-05
2.23877e-05
2.04287e-05
2.04457e-05
2.02314e-05
2.04251e-05
2.04491e-05
2.23893e-05
2.13199e-05
2.01382e-05
2.09045e-05
2.9039e-05
2.38884e-05
2.0891e-05
2.38842e-05
2.01446e-05
2.01541e-05
2.08929e-05
2.90317e-05
2.38734e-05
2.38679e-05
2.09163e-05
2.01413e-05
2.01804e-05
2.09074e-05
2.90386e-05
2.38583e-05
2.38506e-05
2.09098e-05
2.01688e-05
1.99634e-05
2.05766e-05
2.12149e-05
2.00008e-05
2.12077e-05
1.99858e-05
1.99716e-05
2.01578e-05
2.0897e-05
2.91369e-05
2.40518e-05
2.40423e-05
2.08957e-05
2.01393e-05
1.99698e-05
2.05778e-05
2.00154e-05
2.12707e-05
1.99767e-05
2.12693e-05
1.99789e-05
2.0376e-05
2.01415e-05
2.10225e-05
2.03733e-05
2.03767e-05
2.01347e-05
2.10226e-05
2.0374e-05
2.03743e-05
2.02097e-05
2.10236e-05
2.03722e-05
2.03749e-05
2.01375e-05
2.10229e-05
2.03765e-05
2.03742e-05
2.01454e-05
2.10226e-05
2.03774e-05
2.03738e-05
2.01562e-05
2.10226e-05
2.03765e-05
2.0376e-05
2.01641e-05
2.1021e-05
2.03712e-05
2.03712e-05
2.01634e-05
2.10166e-05
2.03687e-05
2.03658e-05
2.01381e-05
2.10128e-05
2.03627e-05
2.03607e-05
2.01026e-05
2.10125e-05
2.03607e-05
2.03623e-05
2.02074e-05
2.10161e-05
2.03655e-05
2.03681e-05
2.01545e-05
2.10214e-05
2.03724e-05
2.03724e-05
2.01703e-05
2.10225e-05
2.03726e-05
2.03729e-05
2.01759e-05
2.10217e-05
2.03735e-05
2.03728e-05
2.02031e-05
2.10217e-05
2.03757e-05
2.03683e-05
2.01579e-05
2.10216e-05
2.03758e-05
2.0367e-05
2.01184e-05
2.1022e-05
2.0376e-05
2.03708e-05
2.01175e-05
2.10225e-05
2.03766e-05
2.03686e-05
2.01133e-05
2.10216e-05
2.03777e-05
2.03697e-05
2.0149e-05
2.10214e-05
2.03743e-05
2.03716e-05
2.01397e-05
2.1021e-05
2.03728e-05
2.0373e-05
2.01536e-05
2.10217e-05
2.03723e-05
2.03734e-05
2.01687e-05
2.10228e-05
2.03744e-05
2.03718e-05
2.01721e-05
2.10241e-05
2.03745e-05
2.03731e-05
2.0149e-05
2.10237e-05
2.03736e-05
2.0373e-05
2.01342e-05
2.10234e-05
2.03714e-05
2.03706e-05
2.0148e-05
2.10232e-05
2.03717e-05
2.03722e-05
2.01558e-05
2.10232e-05
2.0374e-05
2.03735e-05
2.01756e-05
2.10233e-05
2.03729e-05
2.03715e-05
2.01508e-05
2.10233e-05
2.03715e-05
2.0372e-05
2.01277e-05
2.10229e-05
2.03716e-05
2.03709e-05
2.01557e-05
2.10226e-05
2.03737e-05
2.03716e-05
2.01351e-05
2.10225e-05
2.03766e-05
2.0373e-05
2.01234e-05
2.10225e-05
2.03781e-05
2.03747e-05
2.01573e-05
2.10226e-05
2.03765e-05
2.0377e-05
2.01638e-05
2.10221e-05
2.0375e-05
2.03792e-05
2.01905e-05
2.10217e-05
2.03762e-05
2.03773e-05
2.01941e-05
2.10215e-05
2.03761e-05
2.03776e-05
2.01302e-05
2.10213e-05
2.03731e-05
2.03762e-05
2.01614e-05
2.10213e-05
2.03719e-05
2.0377e-05
2.01529e-05
2.1022e-05
2.03703e-05
2.03752e-05
2.01195e-05
2.10229e-05
2.03662e-05
2.03746e-05
2.01472e-05
2.10228e-05
2.03661e-05
2.03747e-05
2.01357e-05
2.10236e-05
2.03672e-05
2.03749e-05
2.01384e-05
2.10243e-05
2.0368e-05
2.03764e-05
2.01656e-05
2.10242e-05
2.03714e-05
2.03749e-05
2.01408e-05
2.10645e-05
2.04232e-05
2.04191e-05
2.01666e-05
2.01788e-05
2.03782e-05
2.03722e-05
2.03798e-05
2.01558e-05
2.01311e-05
2.0374e-05
2.0376e-05
2.03729e-05
2.03739e-05
2.0372e-05
2.01771e-05
2.03721e-05
2.0377e-05
2.03719e-05
2.01481e-05
2.01648e-05
2.01387e-05
2.03726e-05
2.03798e-05
2.03753e-05
2.03803e-05
2.01233e-05
2.01949e-05
2.0373e-05
2.03756e-05
2.03717e-05
2.0375e-05
2.0372e-05
2.03739e-05
2.03737e-05
2.01758e-05
2.01305e-05
2.03712e-05
2.03756e-05
2.03711e-05
2.01768e-05
2.0174e-05
2.0162e-05
2.03779e-05
2.03799e-05
2.03778e-05
2.03765e-05
2.01631e-05
2.01607e-05
2.03725e-05
2.03747e-05
2.0374e-05
2.03747e-05
2.03746e-05
2.0372e-05
2.03733e-05
2.01237e-05
2.01734e-05
2.03712e-05
2.03747e-05
2.03688e-05
2.01843e-05
2.01737e-05
2.01524e-05
2.03775e-05
2.03763e-05
2.03733e-05
2.03752e-05
2.01824e-05
2.01583e-05
2.03732e-05
2.03749e-05
2.03703e-05
2.0374e-05
2.03718e-05
2.03757e-05
2.03695e-05
2.0217e-05
2.01651e-05
2.03691e-05
2.03749e-05
2.03688e-05
2.01458e-05
2.01603e-05
2.01584e-05
2.03725e-05
2.03754e-05
2.03697e-05
2.03766e-05
2.01863e-05
2.01933e-05
2.03698e-05
2.03727e-05
2.03693e-05
2.03717e-05
2.03694e-05
2.03776e-05
2.03696e-05
2.01505e-05
2.01798e-05
2.03689e-05
2.03736e-05
2.03702e-05
2.01732e-05
2.01421e-05
2.01414e-05
2.03699e-05
2.03757e-05
2.03721e-05
2.03724e-05
2.01461e-05
2.01329e-05
2.03695e-05
2.03718e-05
2.03726e-05
2.03739e-05
2.03698e-05
2.03769e-05
2.0374e-05
2.01918e-05
2.0165e-05
2.03713e-05
2.03759e-05
2.03763e-05
2.01594e-05
2.0125e-05
2.01675e-05
2.03726e-05
2.03717e-05
2.03737e-05
2.03672e-05
2.01347e-05
2.01154e-05
2.03735e-05
2.03749e-05
2.03751e-05
2.03729e-05
2.03754e-05
2.03729e-05
2.03742e-05
2.01759e-05
2.01794e-05
2.0377e-05
2.0373e-05
2.03741e-05
2.02008e-05
2.01888e-05
2.01777e-05
2.03741e-05
2.03653e-05
2.03713e-05
2.03645e-05
2.01092e-05
2.01695e-05
2.0375e-05
2.03707e-05
2.03711e-05
2.03659e-05
2.0374e-05
2.03703e-05
2.03711e-05
2.01412e-05
2.01159e-05
2.03723e-05
2.03675e-05
2.03675e-05
2.014e-05
2.01701e-05
2.01432e-05
2.03713e-05
2.03643e-05
2.03695e-05
2.03631e-05
2.01987e-05
2.01773e-05
2.03705e-05
2.03649e-05
2.03666e-05
2.03621e-05
2.03705e-05
2.03651e-05
2.03688e-05
2.0123e-05
2.01542e-05
2.0367e-05
2.03619e-05
2.03665e-05
2.01057e-05
2.01446e-05
2.01579e-05
2.03696e-05
2.03632e-05
2.03684e-05
2.03627e-05
2.01747e-05
2.01286e-05
2.03664e-05
2.03617e-05
2.03641e-05
2.03616e-05
2.03686e-05
2.03605e-05
2.03683e-05
2.01082e-05
2.0139e-05
2.03668e-05
2.03608e-05
2.03717e-05
2.01869e-05
2.01419e-05
2.01878e-05
2.03682e-05
2.03625e-05
2.03708e-05
2.0364e-05
2.01175e-05
2.02005e-05
2.0364e-05
2.03617e-05
2.0367e-05
2.03644e-05
2.03683e-05
2.03647e-05
2.03709e-05
2.01317e-05
2.01092e-05
2.03732e-05
2.03667e-05
2.03763e-05
2.01441e-05
2.02106e-05
2.01531e-05
2.03741e-05
2.03649e-05
2.03768e-05
2.03687e-05
2.01583e-05
2.01297e-05
2.03688e-05
2.03661e-05
2.0373e-05
2.0369e-05
2.03737e-05
2.03705e-05
2.0375e-05
2.0121e-05
2.0144e-05
2.03777e-05
2.0372e-05
2.03779e-05
2.01334e-05
2.01515e-05
2.01302e-05
2.03761e-05
2.03705e-05
2.03717e-05
2.03719e-05
2.01868e-05
2.0139e-05
2.03733e-05
2.03697e-05
2.03741e-05
2.0371e-05
2.03743e-05
2.0373e-05
2.03706e-05
2.01284e-05
2.0124e-05
2.03778e-05
2.0373e-05
2.03747e-05
2.01466e-05
2.01441e-05
2.01603e-05
2.03716e-05
2.03729e-05
2.03695e-05
2.03724e-05
2.01511e-05
2.01481e-05
2.03742e-05
2.03715e-05
2.03726e-05
2.03729e-05
2.03704e-05
2.03726e-05
2.03698e-05
2.01241e-05
2.01499e-05
2.0374e-05
2.03739e-05
2.03729e-05
2.01773e-05
2.01807e-05
2.01816e-05
2.03695e-05
2.03732e-05
2.03712e-05
2.03758e-05
2.01393e-05
2.01665e-05
2.03717e-05
2.03716e-05
2.03717e-05
2.03687e-05
2.03705e-05
2.03758e-05
2.03721e-05
2.01384e-05
2.01368e-05
2.03732e-05
2.03694e-05
2.0375e-05
2.01879e-05
2.0198e-05
2.01417e-05
2.03717e-05
2.03754e-05
2.0371e-05
2.03754e-05
2.01868e-05
2.01916e-05
2.03713e-05
2.03684e-05
2.03703e-05
2.03678e-05
2.0372e-05
2.03759e-05
2.0369e-05
2.01277e-05
2.01339e-05
2.03744e-05
2.0367e-05
2.03704e-05
2.01123e-05
2.01264e-05
2.01454e-05
2.03709e-05
2.03754e-05
2.03713e-05
2.03749e-05
2.01489e-05
2.01306e-05
2.03703e-05
2.03678e-05
2.03718e-05
2.03697e-05
2.03687e-05
2.0376e-05
2.03678e-05
2.01682e-05
2.01988e-05
2.03705e-05
2.03703e-05
2.03686e-05
2.01654e-05
2.01419e-05
2.01487e-05
2.03719e-05
2.03742e-05
2.03725e-05
2.03731e-05
2.01605e-05
2.0183e-05
2.03721e-05
2.03694e-05
2.03714e-05
2.03675e-05
2.03672e-05
2.03765e-05
2.03669e-05
2.01606e-05
2.01742e-05
2.03676e-05
2.0369e-05
2.03673e-05
2.01153e-05
2.01715e-05
2.01362e-05
2.03725e-05
2.03725e-05
2.03708e-05
2.03711e-05
2.01718e-05
2.01691e-05
2.03711e-05
2.03667e-05
2.03688e-05
2.03662e-05
2.03673e-05
2.03777e-05
2.03691e-05
2.01287e-05
2.01532e-05
2.03673e-05
2.03695e-05
2.03674e-05
2.01596e-05
2.01322e-05
2.0179e-05
2.03709e-05
2.03702e-05
2.03705e-05
2.0369e-05
2.01711e-05
2.01812e-05
2.03689e-05
2.03662e-05
2.0368e-05
2.03679e-05
2.03702e-05
2.03761e-05
2.03718e-05
2.01623e-05
2.01166e-05
2.03677e-05
2.03715e-05
2.03691e-05
2.01826e-05
2.01488e-05
2.01701e-05
2.03702e-05
2.03688e-05
2.03694e-05
2.03687e-05
2.01338e-05
2.01232e-05
2.03675e-05
2.03689e-05
2.03689e-05
2.03728e-05
2.03715e-05
2.03731e-05
2.03703e-05
2.01184e-05
2.01359e-05
2.03697e-05
2.03726e-05
2.037e-05
2.01302e-05
2.01306e-05
2.01188e-05
2.03694e-05
2.037e-05
2.03696e-05
2.03726e-05
2.01284e-05
2.01319e-05
2.03696e-05
2.03736e-05
2.03736e-05
2.03752e-05
2.037e-05
2.03722e-05
2.03685e-05
2.01653e-05
2.01467e-05
2.03691e-05
2.03734e-05
2.03687e-05
2.0168e-05
2.0117e-05
2.01815e-05
2.03692e-05
2.03725e-05
2.03706e-05
2.03732e-05
2.01327e-05
2.01601e-05
2.03756e-05
2.03754e-05
2.03784e-05
2.03749e-05
2.03687e-05
2.03744e-05
2.03694e-05
2.01455e-05
2.01571e-05
2.03692e-05
2.03715e-05
2.03718e-05
2.01858e-05
2.01628e-05
2.01976e-05
2.03716e-05
2.03731e-05
2.03742e-05
2.03726e-05
2.01569e-05
2.01221e-05
2.03798e-05
2.03751e-05
2.03802e-05
2.03778e-05
2.03712e-05
2.03741e-05
2.03718e-05
2.01409e-05
2.02334e-05
2.03743e-05
2.03731e-05
2.03739e-05
2.01538e-05
2.01611e-05
2.01491e-05
2.03745e-05
2.03729e-05
2.03755e-05
2.03729e-05
2.0128e-05
2.01634e-05
2.038e-05
2.03782e-05
2.03782e-05
2.03773e-05
2.03728e-05
2.03741e-05
2.03724e-05
2.01803e-05
2.01764e-05
2.03738e-05
2.03732e-05
2.03745e-05
2.01444e-05
2.01455e-05
2.01294e-05
2.03755e-05
2.03729e-05
2.03746e-05
2.03728e-05
2.01814e-05
2.01303e-05
2.03774e-05
2.03769e-05
2.03748e-05
2.03754e-05
2.03716e-05
2.03726e-05
2.03713e-05
2.01446e-05
2.01339e-05
2.03746e-05
2.03711e-05
2.03748e-05
2.01899e-05
2.01252e-05
2.01403e-05
2.0374e-05
2.03727e-05
2.03737e-05
2.03699e-05
2.01269e-05
2.01222e-05
2.03745e-05
2.03752e-05
2.03736e-05
2.03756e-05
2.03715e-05
2.03716e-05
2.03727e-05
2.01286e-05
2.01772e-05
2.03744e-05
2.03716e-05
2.03745e-05
2.0198e-05
2.01383e-05
2.01423e-05
2.03738e-05
2.03696e-05
2.03745e-05
2.03693e-05
2.01239e-05
2.01325e-05
2.0374e-05
2.03754e-05
2.03745e-05
2.03754e-05
2.03727e-05
2.03738e-05
2.03705e-05
2.0167e-05
2.019e-05
2.03741e-05
2.03735e-05
2.03734e-05
2.01589e-05
2.01305e-05
2.0168e-05
2.03746e-05
2.03695e-05
2.03766e-05
2.03699e-05
2.01351e-05
2.01404e-05
2.03733e-05
2.03755e-05
2.03739e-05
2.03747e-05
2.03702e-05
2.03746e-05
2.03677e-05
2.01906e-05
2.01533e-05
2.03733e-05
2.03719e-05
2.03729e-05
2.01988e-05
2.01803e-05
2.01374e-05
2.0377e-05
2.03699e-05
2.03741e-05
2.0369e-05
2.01213e-05
2.01373e-05
2.03755e-05
2.03747e-05
2.03773e-05
2.03764e-05
2.03675e-05
2.03712e-05
2.03655e-05
2.0152e-05
2.01536e-05
2.03731e-05
2.03717e-05
2.03718e-05
2.01208e-05
2.01389e-05
2.01934e-05
2.03738e-05
2.03692e-05
2.03734e-05
2.03694e-05
2.01825e-05
2.01295e-05
2.03775e-05
2.03771e-05
2.0378e-05
2.0376e-05
2.03654e-05
2.03717e-05
2.03645e-05
2.01919e-05
2.01443e-05
2.03716e-05
2.03712e-05
2.03696e-05
2.01762e-05
2.01474e-05
2.01515e-05
2.03725e-05
2.0369e-05
2.03726e-05
2.03695e-05
2.01165e-05
2.01405e-05
2.03761e-05
2.03755e-05
2.03737e-05
2.03745e-05
2.03646e-05
2.03733e-05
2.03655e-05
2.01738e-05
2.01878e-05
2.03698e-05
2.03714e-05
2.03699e-05
2.01442e-05
2.01353e-05
2.01461e-05
2.03721e-05
2.03696e-05
2.03718e-05
2.03696e-05
2.01319e-05
2.02012e-05
2.03735e-05
2.03746e-05
2.0373e-05
2.03784e-05
2.03654e-05
2.03764e-05
2.03667e-05
2.01699e-05
2.02061e-05
2.03694e-05
2.0373e-05
2.03689e-05
2.01347e-05
2.01371e-05
2.01533e-05
2.03717e-05
2.037e-05
2.03718e-05
2.03715e-05
2.0157e-05
2.01588e-05
2.03732e-05
2.03806e-05
2.03735e-05
2.03808e-05
2.03672e-05
2.0378e-05
2.03688e-05
2.0214e-05
2.01623e-05
2.0369e-05
2.03741e-05
2.03706e-05
2.01221e-05
2.01859e-05
2.01326e-05
2.03722e-05
2.03715e-05
2.03729e-05
2.0373e-05
2.01532e-05
2.02186e-05
2.03739e-05
2.03805e-05
2.03722e-05
2.03803e-05
2.03697e-05
2.03781e-05
2.03711e-05
2.0195e-05
2.02179e-05
2.03718e-05
2.0377e-05
2.03733e-05
2.01798e-05
2.01359e-05
2.01252e-05
2.03729e-05
2.03726e-05
2.03731e-05
2.03722e-05
2.01655e-05
2.02219e-05
2.03708e-05
2.03789e-05
2.03676e-05
2.0374e-05
2.03705e-05
2.03752e-05
2.037e-05
2.02062e-05
2.01928e-05
2.0373e-05
2.03779e-05
2.03728e-05
2.01614e-05
2.01331e-05
2.01521e-05
2.03731e-05
2.03722e-05
2.03716e-05
2.03741e-05
2.02033e-05
2.0169e-05
2.0368e-05
2.0374e-05
2.03673e-05
2.03709e-05
2.03695e-05
2.03757e-05
2.03688e-05
2.02188e-05
2.01674e-05
2.03725e-05
2.03779e-05
2.03705e-05
2.0205e-05
2.01586e-05
2.01805e-05
2.03718e-05
2.0375e-05
2.03729e-05
2.0378e-05
2.01718e-05
2.01653e-05
2.03677e-05
2.03699e-05
2.03694e-05
2.03683e-05
2.03697e-05
2.03773e-05
2.03692e-05
2.0149e-05
2.01902e-05
2.03705e-05
2.03771e-05
2.03688e-05
2.01301e-05
2.01467e-05
2.01134e-05
2.03719e-05
2.0378e-05
2.03696e-05
2.03765e-05
2.01759e-05
2.01774e-05
2.037e-05
2.03687e-05
2.03695e-05
2.03684e-05
2.03692e-05
2.03732e-05
2.03708e-05
2.02192e-05
2.0152e-05
2.03688e-05
2.03764e-05
2.03693e-05
2.0205e-05
2.01627e-05
2.01471e-05
2.03697e-05
2.03764e-05
2.03694e-05
2.03764e-05
2.01524e-05
2.01584e-05
2.0371e-05
2.03684e-05
2.03719e-05
2.03702e-05
2.0372e-05
2.0372e-05
2.03724e-05
2.01674e-05
2.01836e-05
2.03696e-05
2.03769e-05
2.03699e-05
2.01209e-05
2.0175e-05
2.01998e-05
2.03701e-05
2.03762e-05
2.03736e-05
2.03758e-05
2.01479e-05
2.01811e-05
2.03722e-05
2.03723e-05
2.03751e-05
2.03766e-05
2.03725e-05
2.03708e-05
2.03747e-05
2.01538e-05
2.01781e-05
2.03704e-05
2.03753e-05
2.03704e-05
2.01226e-05
2.02034e-05
2.01773e-05
2.03758e-05
2.03753e-05
2.03755e-05
2.03711e-05
2.01795e-05
2.01311e-05
2.0377e-05
2.03781e-05
2.03754e-05
2.03788e-05
2.03754e-05
2.03672e-05
2.03774e-05
2.01501e-05
2.01536e-05
2.03704e-05
2.03751e-05
2.03725e-05
2.01421e-05
2.01681e-05
2.0185e-05
2.03751e-05
2.03715e-05
2.03755e-05
2.03709e-05
2.01679e-05
2.01169e-05
2.03754e-05
2.03786e-05
2.03742e-05
2.03787e-05
2.03779e-05
2.03661e-05
2.03765e-05
2.0141e-05
2.01532e-05
2.0374e-05
2.03741e-05
2.03752e-05
2.01283e-05
2.01978e-05
2.0175e-05
2.03761e-05
2.0371e-05
2.03782e-05
2.03717e-05
2.01069e-05
2.01922e-05
2.03741e-05
2.0378e-05
2.03756e-05
2.03755e-05
2.03758e-05
2.03667e-05
2.03737e-05
2.01385e-05
2.01385e-05
2.03742e-05
2.03749e-05
2.03699e-05
2.01829e-05
2.01867e-05
2.0187e-05
2.03783e-05
2.03727e-05
2.03766e-05
2.03727e-05
2.01621e-05
2.01787e-05
2.03776e-05
2.03757e-05
2.03802e-05
2.03724e-05
2.03738e-05
2.03673e-05
2.03727e-05
2.01307e-05
2.01242e-05
2.03697e-05
2.03757e-05
2.03683e-05
2.01957e-05
2.02065e-05
2.01496e-05
2.03767e-05
2.03731e-05
2.03727e-05
2.03739e-05
2.01571e-05
2.01569e-05
2.03801e-05
2.03726e-05
2.03751e-05
2.03725e-05
2.03728e-05
2.03705e-05
2.03719e-05
2.01679e-05
2.01475e-05
2.03688e-05
2.03753e-05
2.03707e-05
2.0155e-05
2.01693e-05
2.01403e-05
2.03714e-05
2.03749e-05
2.03704e-05
2.03787e-05
2.01844e-05
2.01911e-05
2.03744e-05
2.0372e-05
2.03751e-05
2.03758e-05
2.03708e-05
2.03787e-05
2.03751e-05
2.01696e-05
2.01324e-05
2.03705e-05
2.03777e-05
2.03767e-05
2.0165e-05
2.01249e-05
2.041e-05
2.04348e-05
2.01731e-05
2.04143e-05
2.0418e-05
2.10559e-05
2.10665e-05
2.10587e-05
2.04222e-05
2.01365e-05
2.04253e-05
3.01149e-05
6.87717e-05
3.01185e-05
7.25627e-05
7.25691e-05
3.0061e-05
6.87576e-05
2.1023e-05
2.10213e-05
2.10225e-05
2.10236e-05
2.10227e-05
2.10215e-05
2.06033e-05
2.90497e-05
2.06782e-05
2.03753e-05
2.90417e-05
2.06782e-05
2.05933e-05
7.26418e-05
2.05745e-05
2.06774e-05
2.03763e-05
2.0678e-05
2.90351e-05
2.05751e-05
4.11493e-05
4.11766e-05
2.01506e-05
4.12384e-05
4.12171e-05
3.012e-05
6.87688e-05
3.0123e-05
6.87624e-05
7.25653e-05
7.2564e-05
3.00417e-05
6.87628e-05
3.00502e-05
6.87695e-05
2.10236e-05
2.10229e-05
2.10214e-05
2.10225e-05
2.10237e-05
2.10232e-05
2.10215e-05
2.05915e-05
2.90449e-05
2.06778e-05
2.03731e-05
2.05714e-05
2.90319e-05
2.06775e-05
7.26354e-05
7.26297e-05
2.05695e-05
2.06774e-05
2.90382e-05
2.03767e-05
2.05759e-05
2.06769e-05
2.90315e-05
4.12946e-05
4.11532e-05
2.01495e-05
4.1197e-05
4.11995e-05
3.01157e-05
6.8755e-05
3.01236e-05
6.8746e-05
7.25538e-05
7.25538e-05
3.00352e-05
6.87612e-05
3.00439e-05
6.87609e-05
2.10239e-05
2.10232e-05
2.10218e-05
2.10236e-05
2.10237e-05
2.10231e-05
2.10219e-05
2.05609e-05
2.90392e-05
2.06752e-05
2.03731e-05
2.05994e-05
2.90289e-05
2.06739e-05
7.2608e-05
7.25931e-05
2.05699e-05
2.06739e-05
2.9049e-05
2.03741e-05
2.05593e-05
2.06732e-05
2.90437e-05
4.13017e-05
4.13085e-05
2.01645e-05
4.12412e-05
4.12976e-05
3.00793e-05
6.87485e-05
3.00946e-05
6.8733e-05
7.25507e-05
7.25513e-05
3.00193e-05
6.87793e-05
3.00293e-05
6.87759e-05
2.10238e-05
2.10231e-05
2.10216e-05
2.10233e-05
2.10237e-05
2.10229e-05
2.10209e-05
2.05906e-05
2.90383e-05
2.06749e-05
2.03731e-05
2.05819e-05
2.90332e-05
2.06756e-05
7.25577e-05
7.25561e-05
2.05879e-05
2.06712e-05
2.90469e-05
2.03751e-05
2.0607e-05
2.0671e-05
2.9037e-05
4.12056e-05
4.12288e-05
2.01418e-05
4.1192e-05
4.12774e-05
3.00451e-05
6.8737e-05
3.007e-05
6.87363e-05
7.2539e-05
7.25368e-05
2.9908e-05
6.8771e-05
3.00034e-05
6.87634e-05
2.1024e-05
2.10228e-05
2.10215e-05
2.10226e-05
2.10243e-05
2.10226e-05
2.10213e-05
2.05869e-05
2.90461e-05
2.06752e-05
2.03772e-05
2.05889e-05
2.90394e-05
2.06756e-05
7.25533e-05
7.25518e-05
2.05845e-05
2.06712e-05
2.90486e-05
2.03741e-05
2.05759e-05
2.06718e-05
2.90431e-05
4.11571e-05
4.12871e-05
2.01937e-05
4.1178e-05
4.12748e-05
2.99682e-05
6.87359e-05
2.99763e-05
6.8734e-05
7.25389e-05
7.25472e-05
2.98857e-05
6.87659e-05
2.99249e-05
6.87714e-05
2.10242e-05
2.10228e-05
2.10212e-05
2.10226e-05
2.10233e-05
2.10228e-05
2.10222e-05
2.05501e-05
2.90508e-05
2.06749e-05
2.03773e-05
2.05645e-05
2.9046e-05
2.06749e-05
7.25403e-05
7.25374e-05
2.05685e-05
2.06729e-05
2.9058e-05
2.03742e-05
2.05833e-05
2.06732e-05
2.90535e-05
4.11338e-05
4.1222e-05
2.01608e-05
4.11373e-05
4.11669e-05
2.99658e-05
6.87471e-05
2.99605e-05
6.8741e-05
7.25524e-05
7.25564e-05
2.99871e-05
6.87754e-05
2.99603e-05
6.87619e-05
2.10229e-05
2.10225e-05
2.10223e-05
2.10219e-05
2.10204e-05
2.10201e-05
2.10203e-05
2.05604e-05
2.90618e-05
2.06753e-05
2.03759e-05
2.05713e-05
2.90525e-05
2.06758e-05
7.25323e-05
7.25384e-05
2.05523e-05
2.06725e-05
2.90597e-05
2.03752e-05
2.05856e-05
2.0672e-05
2.9048e-05
4.11059e-05
4.12523e-05
2.01575e-05
4.12265e-05
4.11897e-05
2.99728e-05
6.87448e-05
2.99973e-05
6.87456e-05
7.25597e-05
7.25625e-05
2.9987e-05
6.87645e-05
3.00007e-05
6.87699e-05
2.10191e-05
2.10188e-05
2.10191e-05
2.10184e-05
2.10151e-05
2.10145e-05
2.10152e-05
2.0545e-05
2.90582e-05
2.06745e-05
2.03712e-05
2.05495e-05
2.90497e-05
2.0674e-05
7.25412e-05
7.25442e-05
2.05504e-05
2.0669e-05
2.90589e-05
2.03697e-05
2.05571e-05
2.06685e-05
2.90509e-05
4.12962e-05
4.12208e-05
2.01933e-05
4.12894e-05
4.12451e-05
3.01276e-05
6.87487e-05
3.00977e-05
6.8749e-05
7.2558e-05
7.25552e-05
2.99661e-05
6.87831e-05
2.99654e-05
6.87866e-05
2.10145e-05
2.10139e-05
2.10149e-05
2.10136e-05
2.10109e-05
2.10104e-05
2.10122e-05
2.05613e-05
2.90587e-05
2.06695e-05
2.03679e-05
2.05891e-05
2.90504e-05
2.06686e-05
7.25478e-05
7.25511e-05
2.05879e-05
2.06648e-05
2.90541e-05
2.03648e-05
2.05781e-05
2.06648e-05
2.90391e-05
4.12106e-05
4.12267e-05
2.01538e-05
4.13018e-05
4.11894e-05
3.01495e-05
6.87588e-05
3.0152e-05
6.87511e-05
7.25479e-05
7.2553e-05
3.00306e-05
6.87998e-05
2.99856e-05
6.87849e-05
2.10105e-05
2.10101e-05
2.10122e-05
2.10124e-05
2.10101e-05
2.10102e-05
2.10121e-05
2.05912e-05
2.90542e-05
2.06658e-05
2.03607e-05
2.05849e-05
2.90418e-05
2.06652e-05
7.25493e-05
7.25529e-05
2.05864e-05
2.06654e-05
2.90413e-05
2.03604e-05
2.05782e-05
2.06661e-05
2.90314e-05
4.13227e-05
4.10998e-05
2.01467e-05
4.13781e-05
4.11173e-05
3.01546e-05
6.8743e-05
3.01583e-05
6.87458e-05
7.25564e-05
7.25653e-05
3.01273e-05
6.87869e-05
3.01206e-05
6.87691e-05
2.10102e-05
2.10104e-05
2.10124e-05
2.10151e-05
2.10129e-05
2.10133e-05
2.10152e-05
2.06433e-05
2.90524e-05
2.06652e-05
2.03615e-05
2.05924e-05
2.90436e-05
2.06662e-05
7.25561e-05
7.25617e-05
2.0587e-05
2.06681e-05
2.90346e-05
2.03635e-05
2.06058e-05
2.06698e-05
2.90284e-05
4.13599e-05
4.12639e-05
2.01602e-05
4.13708e-05
4.12888e-05
3.0157e-05
6.87662e-05
3.01625e-05
6.87706e-05
7.25623e-05
7.2559e-05
3.01123e-05
6.87714e-05
3.01319e-05
6.87733e-05
2.10139e-05
2.10151e-05
2.10166e-05
2.10208e-05
2.10179e-05
2.10185e-05
2.10199e-05
2.05984e-05
2.90515e-05
2.06703e-05
2.03682e-05
2.06245e-05
2.90456e-05
2.06713e-05
7.25705e-05
7.25796e-05
2.06137e-05
2.06741e-05
2.90431e-05
2.03706e-05
2.06125e-05
2.06753e-05
2.90376e-05
4.12311e-05
4.13039e-05
2.01582e-05
4.11802e-05
4.13187e-05
3.01484e-05
6.87817e-05
3.01583e-05
6.87839e-05
7.25562e-05
7.25586e-05
3.01057e-05
6.87667e-05
3.01131e-05
6.87649e-05
2.1019e-05
2.10197e-05
2.1021e-05
2.10226e-05
2.10209e-05
2.1021e-05
2.10218e-05
2.05745e-05
2.90606e-05
2.06729e-05
2.03735e-05
2.0602e-05
2.90538e-05
2.06742e-05
7.25858e-05
7.25915e-05
2.06088e-05
2.06764e-05
2.90502e-05
2.03733e-05
2.06166e-05
2.06761e-05
2.90442e-05
4.12512e-05
4.1317e-05
2.0143e-05
4.11971e-05
4.11793e-05
3.01292e-05
6.87882e-05
3.0142e-05
6.87763e-05
7.25475e-05
7.25441e-05
3.00945e-05
6.87644e-05
3.01042e-05
6.87506e-05
2.10216e-05
2.10211e-05
2.10215e-05
2.10219e-05
2.10217e-05
2.10216e-05
2.10212e-05
2.06026e-05
2.9063e-05
2.06738e-05
2.03718e-05
2.05917e-05
2.90503e-05
2.06733e-05
7.25926e-05
7.25972e-05
2.05797e-05
2.0675e-05
2.90539e-05
2.03734e-05
2.05962e-05
2.06745e-05
2.90435e-05
4.11397e-05
4.12401e-05
2.01711e-05
4.1204e-05
4.11686e-05
3.01102e-05
6.87569e-05
3.0123e-05
6.87537e-05
7.25405e-05
7.25445e-05
3.00832e-05
6.87578e-05
3.00921e-05
6.87653e-05
2.10218e-05
2.10216e-05
2.10217e-05
2.10217e-05
2.10224e-05
2.10207e-05
2.10216e-05
2.05503e-05
2.90518e-05
2.06738e-05
2.03751e-05
2.05595e-05
2.90432e-05
2.06739e-05
7.26002e-05
7.26058e-05
2.05563e-05
2.06728e-05
2.90503e-05
2.03721e-05
2.05553e-05
2.06724e-05
2.90404e-05
4.12376e-05
4.11639e-05
2.01649e-05
4.1223e-05
4.12114e-05
3.01031e-05
6.87565e-05
3.01088e-05
6.87577e-05
7.25403e-05
7.25451e-05
3.00498e-05
6.8777e-05
3.00606e-05
6.87805e-05
2.10226e-05
2.10206e-05
2.10215e-05
2.10216e-05
2.1023e-05
2.10201e-05
2.10211e-05
2.05646e-05
2.90529e-05
2.06753e-05
2.03757e-05
2.05864e-05
2.90457e-05
2.06764e-05
7.26098e-05
7.26162e-05
2.0552e-05
2.06708e-05
2.90429e-05
2.03684e-05
2.0555e-05
2.06704e-05
2.90317e-05
4.12391e-05
4.13617e-05
2.01838e-05
4.12025e-05
4.12798e-05
3.01082e-05
6.87541e-05
3.01114e-05
6.87519e-05
7.25468e-05
7.25534e-05
2.99227e-05
6.87855e-05
2.99985e-05
6.87867e-05
2.10231e-05
2.10202e-05
2.10211e-05
2.10218e-05
2.10232e-05
2.102e-05
2.10207e-05
2.05674e-05
2.90523e-05
2.06776e-05
2.03759e-05
2.05532e-05
2.90388e-05
2.06776e-05
7.26209e-05
7.26257e-05
2.05707e-05
2.06717e-05
2.90417e-05
2.03672e-05
2.0584e-05
2.06727e-05
2.90345e-05
4.1197e-05
4.12266e-05
2.0159e-05
4.12748e-05
4.1183e-05
3.0108e-05
6.87404e-05
3.01147e-05
6.87403e-05
7.25573e-05
7.25654e-05
2.98739e-05
6.87765e-05
2.99846e-05
6.87657e-05
2.10233e-05
2.10205e-05
2.10207e-05
2.10227e-05
2.10233e-05
2.10203e-05
2.10205e-05
2.05489e-05
2.90439e-05
2.06761e-05
2.03764e-05
2.05465e-05
2.90362e-05
2.06766e-05
7.26283e-05
7.26318e-05
2.0568e-05
2.06763e-05
2.90451e-05
2.03709e-05
2.05759e-05
2.06769e-05
2.90327e-05
4.12314e-05
4.12895e-05
2.01581e-05
4.12772e-05
4.12343e-05
3.00985e-05
6.87488e-05
3.01084e-05
6.87513e-05
7.25587e-05
7.25543e-05
2.99492e-05
6.87642e-05
2.99208e-05
6.87602e-05
2.10231e-05
2.10203e-05
2.10204e-05
2.10218e-05
2.10228e-05
2.10201e-05
2.10203e-05
2.06007e-05
2.90413e-05
2.06773e-05
2.03769e-05
2.05808e-05
2.90301e-05
2.06778e-05
7.26306e-05
7.26336e-05
2.05719e-05
2.06763e-05
2.90389e-05
2.03688e-05
2.05764e-05
2.06772e-05
2.90329e-05
4.12272e-05
4.12828e-05
2.0122e-05
4.11566e-05
4.12642e-05
3.00833e-05
6.87568e-05
3.00948e-05
6.87545e-05
7.25459e-05
7.25493e-05
2.99945e-05
6.87678e-05
2.9974e-05
6.87708e-05
2.10228e-05
2.10203e-05
2.10205e-05
2.10216e-05
2.10224e-05
2.10206e-05
2.10208e-05
2.05496e-05
2.90394e-05
2.0678e-05
2.03774e-05
2.05722e-05
2.90338e-05
2.06777e-05
7.26329e-05
7.2636e-05
2.05895e-05
2.06767e-05
2.90482e-05
2.03707e-05
2.05721e-05
2.06768e-05
2.90407e-05
4.12703e-05
4.12941e-05
2.01622e-05
4.1305e-05
4.12529e-05
3.00716e-05
6.87601e-05
3.00812e-05
6.87554e-05
7.25512e-05
7.25572e-05
3.00746e-05
6.87687e-05
3.00795e-05
6.87533e-05
2.10224e-05
2.10208e-05
2.10213e-05
2.1021e-05
2.10222e-05
2.10212e-05
2.10211e-05
2.05556e-05
2.90484e-05
2.06753e-05
2.03738e-05
2.05582e-05
2.90407e-05
2.06751e-05
7.26353e-05
7.26384e-05
2.05556e-05
2.06766e-05
2.90437e-05
2.03721e-05
2.0611e-05
2.06758e-05
2.90331e-05
4.12257e-05
4.12283e-05
2.01545e-05
4.12272e-05
4.11506e-05
3.00421e-05
6.87615e-05
3.00687e-05
6.87704e-05
7.25598e-05
7.25611e-05
3.00679e-05
6.87519e-05
3.00754e-05
6.87544e-05
2.10222e-05
2.10215e-05
2.10209e-05
2.10216e-05
2.10224e-05
2.10219e-05
2.10206e-05
2.05729e-05
2.90524e-05
2.06746e-05
2.0373e-05
2.05718e-05
2.90469e-05
2.06746e-05
7.26372e-05
7.26401e-05
2.05766e-05
2.06748e-05
2.90444e-05
2.03731e-05
2.05719e-05
2.06748e-05
2.90403e-05
4.12666e-05
4.11472e-05
2.01067e-05
4.12193e-05
4.12245e-05
2.99426e-05
6.87793e-05
2.99457e-05
6.87687e-05
7.25561e-05
7.25567e-05
3.00622e-05
6.87509e-05
3.00701e-05
6.87395e-05
2.10225e-05
2.10224e-05
2.10205e-05
2.10225e-05
2.10226e-05
2.10224e-05
2.10206e-05
2.05972e-05
2.90558e-05
2.06761e-05
2.03732e-05
2.05835e-05
2.90451e-05
2.06771e-05
7.26384e-05
7.26407e-05
2.05741e-05
2.06737e-05
2.90519e-05
2.03723e-05
2.05756e-05
2.06732e-05
2.90379e-05
4.13031e-05
4.12371e-05
2.01227e-05
4.12892e-05
4.12095e-05
2.99598e-05
6.87576e-05
2.99601e-05
6.87597e-05
7.25609e-05
7.25664e-05
3.00591e-05
6.87504e-05
3.00632e-05
6.87526e-05
2.10226e-05
2.10224e-05
2.10211e-05
2.10241e-05
2.10225e-05
2.10227e-05
2.10216e-05
2.05801e-05
2.90499e-05
2.06784e-05
2.03742e-05
2.06228e-05
2.90412e-05
2.06784e-05
7.26391e-05
7.26417e-05
2.05762e-05
2.06722e-05
2.90367e-05
2.0372e-05
2.06118e-05
2.0672e-05
2.90246e-05
4.13018e-05
4.12037e-05
2.02062e-05
4.12989e-05
4.12764e-05
2.9935e-05
6.87592e-05
2.99246e-05
6.87519e-05
7.25619e-05
7.25602e-05
2.99745e-05
6.87678e-05
3.00455e-05
6.87683e-05
2.10229e-05
2.10228e-05
2.10218e-05
2.10239e-05
2.10231e-05
2.10232e-05
2.10222e-05
2.05789e-05
2.9051e-05
2.06778e-05
2.03746e-05
2.05829e-05
2.90366e-05
2.06783e-05
7.26395e-05
7.26416e-05
2.05763e-05
2.06731e-05
2.90277e-05
2.03732e-05
2.05583e-05
2.06738e-05
2.90188e-05
4.13909e-05
4.1203e-05
2.02097e-05
4.13008e-05
4.12232e-05
3.0002e-05
6.87483e-05
2.99524e-05
6.87465e-05
7.25523e-05
7.25522e-05
2.99147e-05
6.87746e-05
2.9972e-05
6.87719e-05
2.1023e-05
2.10232e-05
2.10221e-05
2.10236e-05
2.10226e-05
2.10226e-05
2.10218e-05
2.05494e-05
2.90417e-05
2.06785e-05
2.03733e-05
2.0556e-05
2.90329e-05
2.06778e-05
7.26388e-05
7.26408e-05
2.05581e-05
2.06759e-05
2.90336e-05
2.03728e-05
2.06017e-05
2.06763e-05
2.90296e-05
4.12406e-05
4.11651e-05
2.01174e-05
4.11935e-05
4.11902e-05
3.0099e-05
6.87567e-05
3.00948e-05
6.87584e-05
7.25478e-05
7.25488e-05
2.99443e-05
6.87704e-05
2.99331e-05
6.8763e-05
2.10227e-05
2.10226e-05
2.10219e-05
2.10233e-05
2.10221e-05
2.10222e-05
2.10218e-05
2.05947e-05
2.90417e-05
2.06764e-05
2.03714e-05
2.05644e-05
2.90336e-05
2.06757e-05
7.26382e-05
7.26405e-05
2.05838e-05
2.06754e-05
2.90409e-05
2.03707e-05
2.05607e-05
2.06751e-05
2.90362e-05
4.12827e-05
4.12625e-05
2.01722e-05
4.12995e-05
4.12852e-05
3.01064e-05
6.87636e-05
3.0109e-05
6.87687e-05
7.25485e-05
7.25549e-05
3.00794e-05
6.87735e-05
3.00091e-05
6.87748e-05
2.10223e-05
2.10225e-05
2.10217e-05
2.10233e-05
2.10222e-05
2.10223e-05
2.10213e-05
2.05852e-05
2.9046e-05
2.06747e-05
2.03726e-05
2.05751e-05
2.90398e-05
2.06747e-05
7.26386e-05
7.26412e-05
2.05651e-05
2.06754e-05
2.90506e-05
2.03727e-05
2.05704e-05
2.06752e-05
2.9045e-05
4.13501e-05
4.13242e-05
2.01812e-05
4.1268e-05
4.12679e-05
3.01135e-05
6.87811e-05
3.01165e-05
6.87681e-05
7.25522e-05
7.2552e-05
3.00676e-05
6.87763e-05
3.00941e-05
6.87653e-05
2.10222e-05
2.10224e-05
2.10213e-05
2.10232e-05
2.10221e-05
2.10222e-05
2.10204e-05
2.05695e-05
2.90494e-05
2.06734e-05
2.03746e-05
2.05624e-05
2.90376e-05
2.06731e-05
7.2639e-05
7.26411e-05
2.05553e-05
2.06733e-05
2.90562e-05
2.03735e-05
2.05524e-05
2.06733e-05
2.9046e-05
4.12782e-05
4.12701e-05
2.01553e-05
4.12773e-05
4.13048e-05
3.01182e-05
6.87505e-05
3.01218e-05
6.87509e-05
7.25513e-05
7.25573e-05
2.99311e-05
6.87523e-05
3.00153e-05