/*--------------------------------*- C++ -*----------------------------------*\
| =========                 |                                                 |
| \\      /  F ield         | OpenFOAM: The Open Source CFD Toolbox           |
|  \\    /   O peration     | Version:  v2012                                 |
|   \\  /    A nd           | Website:  www.openfoam.com                      |
|    \\/     M anipulation  |                                                 |
\*---------------------------------------------------------------------------*/
FoamFile
{
    version     2.0;
    format      ascii;
    class       volScalarField;
    location    "50";
    object      nut;
}
// * * * * * * * * * * * * * * * * * * * * * * * * * * * * * * * * * * * * * //

dimensions      [0 2 -1 0 0 0 0];


internalField   nonuniform List<scalar> 
85864
(
0.000198447
0.000157981
0.000130927
0.000158035
0.000157993
0.000157901
0.000131477
4.90619e-05
4.90506e-05
4.03334e-05
0.00019852
2.40489e-05
4.6562e-05
2.40331e-05
2.40305e-05
4.13187e-05
4.14529e-05
4.65412e-05
4.65508e-05
0.000180699
6.98584e-05
4.91208e-05
4.03502e-05
0.000180704
4.66623e-05
6.99124e-05
4.2216e-05
4.13245e-05
2.4033e-05
4.90668e-05
4.90614e-05
4.6844e-05
2.02495e-05
2.02432e-05
4.90497e-05
4.64396e-05
4.64079e-05
2.02427e-05
3.7118e-05
4.03318e-05
4.06053e-05
4.19341e-05
4.06147e-05
4.19336e-05
3.71307e-05
2.40494e-05
2.40332e-05
2.40313e-05
4.71565e-05
5.72429e-05
4.13165e-05
4.6567e-05
4.65657e-05
5.72518e-05
4.69914e-05
4.71382e-05
5.72333e-05
4.14662e-05
4.65543e-05
4.65544e-05
5.72461e-05
4.7002e-05
4.55955e-05
2.15303e-05
2.15272e-05
2.15316e-05
2.15285e-05
4.53333e-05
2.02893e-05
4.91191e-05
4.80621e-05
4.78319e-05
2.02888e-05
3.71223e-05
4.03526e-05
4.19333e-05
4.13185e-05
4.1933e-05
4.12297e-05
3.71228e-05
4.72216e-05
5.7318e-05
4.22183e-05
4.65864e-05
4.65861e-05
5.73296e-05
4.70723e-05
4.71449e-05
5.72458e-05
4.1207e-05
4.65673e-05
5.72501e-05
4.65731e-05
4.70447e-05
4.58355e-05
2.15391e-05
2.15408e-05
2.15401e-05
2.15418e-05
4.58624e-05
2.4033e-05
4.90577e-05
0.000211959
6.58656e-05
9.76709e-05
9.74279e-05
0.000131097
9.74174e-05
9.73746e-05
6.56856e-05
6.57715e-05
9.72942e-05
9.763e-05
0.00013219
9.75067e-05
9.75628e-05
6.56875e-05
0.000211899
9.47182e-05
7.66923e-05
4.65626e-05
5.24683e-05
7.66581e-05
5.24776e-05
9.46787e-05
9.49076e-05
7.66055e-05
4.65452e-05
5.24248e-05
5.24398e-05
7.68383e-05
9.46834e-05
9.51099e-05
7.66853e-05
4.65566e-05
5.24444e-05
5.24503e-05
7.67722e-05
9.48634e-05
0.000111954
6.98106e-05
6.36809e-05
0.000120006
6.3699e-05
0.000119914
0.00011192
9.45678e-05
7.64404e-05
4.66672e-05
5.25316e-05
5.25382e-05
7.64935e-05
9.42751e-05
0.000111867
6.98111e-05
0.000120165
6.37224e-05
0.000119807
6.37494e-05
0.000111844
0.000157987
0.00013088
0.000198472
0.00015798
0.000157997
0.000130862
0.00019845
0.000157989
0.000157951
0.000131813
0.000198468
0.000157967
0.000157959
0.000130919
0.00019845
0.000158013
0.000157961
0.000131026
0.000198452
0.000158006
0.000157966
0.000131134
0.000198454
0.000157979
0.000158
0.000131193
0.000198399
0.000157907
0.000157931
0.000131198
0.000198298
0.000157876
0.000157854
0.000130883
0.000198189
0.000157806
0.000157778
0.000130382
0.000198204
0.000157787
0.000157793
0.000131682
0.000198281
0.000157847
0.000157871
0.000131005
0.000198395
0.000157924
0.000157937
0.00013107
0.000198425
0.000157922
0.000157946
0.000131297
0.000198415
0.000157939
0.000157968
0.000131719
0.000198417
0.000157981
0.000157919
0.000130917
0.000198415
0.000157989
0.000157899
0.000130561
0.000198424
0.000158009
0.000157944
0.000130654
0.000198438
0.000158018
0.000157912
0.000130405
0.000198421
0.000158028
0.000157913
0.000130948
0.000198416
0.000157974
0.000157933
0.000130881
0.000198414
0.00015795
0.000157952
0.000130909
0.000198433
0.00015794
0.000157965
0.00013124
0.000198444
0.000157968
0.000157942
0.00013107
0.000198457
0.000157965
0.000157962
0.000130879
0.000198447
0.00015797
0.000157955
0.000130745
0.000198446
0.000157962
0.000157921
0.000131001
0.000198436
0.000157958
0.000157945
0.000130939
0.000198441
0.000157987
0.000157955
0.000131101
0.000198445
0.000157966
0.000157924
0.000130953
0.000198445
0.000157948
0.000157927
0.000130532
0.000198436
0.000157946
0.000157914
0.000131034
0.000198438
0.000157969
0.000157923
0.000130832
0.000198448
0.00015798
0.000157942
0.000130714
0.000198434
0.000157986
0.000157969
0.000130956
0.000198435
0.000157988
0.000157984
0.000131127
0.000198429
0.000157974
0.000157995
0.000131526
0.000198432
0.000157988
0.000157969
0.000131596
0.000198432
0.000157996
0.000157968
0.000130609
0.00019842
0.000157962
0.000157949
0.00013109
0.00019842
0.000157954
0.000157969
0.000131048
0.000198432
0.000157946
0.000157969
0.000130423
0.000198446
0.00015791
0.00015797
0.000130864
0.000198445
0.000157912
0.000157986
0.000130799
0.000198457
0.000157934
0.000158003
0.000130883
0.000198474
0.000157956
0.000158034
0.000131268
0.000198536
0.000158006
0.000158038
0.000130961
0.000200463
0.000162022
0.000162111
0.000134022
0.000131359
0.000157976
0.000157953
0.000158003
0.000131077
0.000130944
0.000158001
0.000157923
0.000157902
0.000157982
0.000157906
0.000131473
0.000157918
0.000158004
0.000157943
0.000131189
0.000131021
0.000130909
0.000157963
0.000157992
0.000157977
0.000158
0.000130671
0.000131739
0.000157984
0.000157907
0.000157962
0.000157904
0.000157905
0.000157983
0.000157932
0.000131282
0.000130891
0.000157923
0.000157972
0.000157933
0.000131565
0.0001312
0.000131262
0.00015801
0.000157998
0.000158005
0.000157968
0.000131164
0.000131335
0.000157972
0.000157901
0.000157983
0.000157931
0.000157946
0.000157965
0.000157941
0.000130641
0.000131466
0.000157921
0.000157954
0.000157903
0.000131699
0.000131262
0.000131255
0.000157998
0.000157954
0.000157962
0.000157961
0.000131465
0.00013129
0.000157969
0.000157923
0.000157937
0.000157947
0.000157917
0.000158004
0.000157907
0.000131859
0.000131361
0.000157909
0.00015796
0.000157912
0.000131183
0.000131208
0.000131366
0.000157948
0.000157942
0.000157922
0.000157972
0.000131497
0.00013174
0.000157928
0.000157914
0.000157926
0.000157913
0.000157901
0.000158012
0.000157905
0.000131016
0.000131613
0.000157901
0.000157963
0.000157912
0.000131514
0.00013098
0.000131116
0.000157913
0.000157962
0.000157947
0.000157914
0.000130967
0.000130978
0.00015792
0.000157913
0.000157965
0.000157946
0.000157904
0.000157978
0.000157962
0.0001316
0.000131406
0.000157923
0.00015799
0.00015799
0.000131288
0.000130734
0.000131391
0.000157934
0.0001579
0.000157941
0.000157845
0.000130842
0.000130797
0.000157958
0.000157948
0.000157976
0.000157928
0.000157964
0.000157933
0.000157933
0.000131367
0.000131615
0.000157994
0.000157955
0.000157959
0.000131859
0.000131497
0.000131521
0.000157938
0.000157814
0.000157872
0.000157799
0.000130551
0.000131469
0.000157947
0.000157894
0.00015789
0.000157823
0.000157922
0.000157892
0.000157858
0.000130964
0.000130795
0.000157926
0.000157875
0.000157863
0.000131073
0.000131242
0.000131064
0.000157862
0.000157791
0.000157834
0.00015778
0.000131674
0.000131583
0.00015787
0.000157805
0.000157835
0.000157768
0.000157834
0.000157827
0.000157801
0.000130707
0.000131304
0.000157844
0.000157796
0.000157827
0.000130604
0.000130927
0.000131287
0.000157827
0.000157768
0.000157839
0.000157774
0.000131401
0.000130996
0.000157828
0.000157755
0.000157816
0.000157765
0.000157793
0.000157784
0.000157809
0.000130537
0.000131081
0.000157834
0.000157773
0.000157881
0.000131594
0.000130924
0.000131635
0.00015783
0.00015777
0.000157874
0.000157802
0.000130689
0.000131883
0.000157814
0.000157753
0.000157866
0.000157806
0.000157805
0.000157844
0.000157846
0.000130816
0.000130694
0.000157852
0.00015785
0.000157927
0.000131021
0.000131756
0.000131218
0.000157912
0.000157815
0.000157965
0.000157866
0.000131159
0.00013094
0.000157887
0.000157806
0.000157959
0.000157858
0.000157887
0.000157898
0.000157924
0.000130675
0.000131146
0.000157946
0.000157933
0.000157971
0.000130739
0.000131039
0.000130977
0.000157963
0.000157892
0.000157934
0.000157906
0.000131503
0.000131061
0.000157953
0.000157853
0.000157967
0.000157877
0.000157912
0.000157923
0.000157893
0.000130763
0.00013089
0.000157955
0.000157945
0.000157951
0.000131067
0.000130983
0.000131383
0.000157909
0.000157918
0.000157907
0.000157909
0.000131044
0.000131138
0.000157977
0.000157884
0.00015797
0.000157906
0.00015789
0.000157924
0.000157899
0.00013072
0.000131193
0.000157945
0.000157963
0.000157944
0.000131534
0.000131494
0.00013163
0.000157901
0.000157922
0.000157918
0.000157962
0.000130858
0.000131366
0.000157949
0.000157901
0.000157963
0.000157887
0.000157896
0.000157976
0.000157929
0.000130892
0.000131068
0.000157938
0.000157928
0.000157957
0.000131455
0.000131674
0.000131127
0.000157924
0.000157949
0.000157906
0.000157958
0.000131476
0.000131746
0.000157945
0.000157861
0.000157945
0.000157863
0.000157928
0.000157985
0.000157901
0.000130791
0.000131064
0.000157939
0.000157901
0.000157902
0.000130636
0.000130761
0.000131134
0.000157898
0.000157959
0.00015791
0.000157963
0.000131036
0.000130983
0.000157934
0.000157849
0.000157956
0.000157878
0.000157894
0.000158001
0.000157893
0.000131338
0.000131833
0.000157899
0.00015794
0.000157885
0.000131421
0.000130913
0.000131177
0.00015791
0.000157952
0.000157928
0.000157937
0.000131219
0.000131664
0.000157958
0.000157871
0.000157943
0.000157855
0.000157878
0.00015802
0.000157874
0.000131175
0.000131563
0.000157858
0.000157919
0.000157855
0.000130581
0.000131321
0.000131103
0.000157926
0.000157929
0.000157915
0.000157935
0.000131343
0.000131433
0.000157938
0.000157843
0.000157922
0.000157836
0.000157879
0.000158028
0.000157893
0.000130818
0.000131273
0.000157852
0.000157912
0.000157847
0.000131242
0.000130877
0.000131654
0.00015792
0.00015791
0.000157936
0.000157904
0.000131302
0.000131647
0.000157913
0.000157837
0.000157929
0.00015785
0.000157897
0.000157999
0.000157921
0.000131236
0.000130789
0.00015785
0.000157928
0.00015786
0.000131582
0.000131098
0.000131558
0.000157919
0.000157903
0.000157924
0.000157897
0.000130871
0.000130896
0.00015791
0.000157832
0.000157935
0.00015788
0.000157913
0.000157953
0.000157899
0.000130641
0.00013098
0.000157869
0.000157945
0.00015787
0.000130751
0.000130884
0.000130847
0.000157916
0.000157901
0.000157928
0.000157924
0.000130781
0.000131005
0.000157937
0.000157886
0.000157978
0.000157894
0.000157896
0.00015794
0.00015788
0.000131185
0.000131082
0.000157858
0.00015796
0.000157858
0.000131371
0.000130644
0.000131605
0.00015791
0.000157911
0.000157933
0.000157921
0.000130858
0.000131337
0.000157998
0.000157891
0.00015803
0.00015789
0.00015787
0.000157967
0.000157876
0.000130912
0.000131256
0.00015784
0.00015794
0.00015787
0.000131402
0.000131189
0.000131781
0.000157927
0.000157906
0.000157953
0.000157908
0.00013112
0.000130858
0.000158021
0.000157881
0.000158034
0.000157927
0.000157892
0.00015796
0.000157897
0.000130871
0.000132218
0.000157878
0.000157962
0.000157887
0.000131095
0.000131146
0.00013115
0.000157954
0.00015792
0.000157969
0.000157941
0.000130766
0.000131392
0.00015802
0.000157932
0.000158011
0.000157925
0.000157905
0.000157961
0.00015792
0.00013136
0.000131474
0.000157872
0.000157958
0.000157903
0.000131031
0.000130946
0.000130924
0.000157965
0.00015792
0.000157959
0.000157938
0.000131476
0.000131
0.000157997
0.00015791
0.000157973
0.000157903
0.000157906
0.000157972
0.000157911
0.000130902
0.000130971
0.0001579
0.000157926
0.000157918
0.000131688
0.000130707
0.00013109
0.000157944
0.000157914
0.000157943
0.00015791
0.000130783
0.000130911
0.000157969
0.000157889
0.000157968
0.000157908
0.000157911
0.000157957
0.000157934
0.000130736
0.000131524
0.000157903
0.000157937
0.000157917
0.000131621
0.000130891
0.00013111
0.000157932
0.000157895
0.000157947
0.000157896
0.00013077
0.000130991
0.000157972
0.000157897
0.000157995
0.000157899
0.000157933
0.000157988
0.000157909
0.000131233
0.000131684
0.000157909
0.00015795
0.000157895
0.000131028
0.000130801
0.000131456
0.000157941
0.000157898
0.000157982
0.000157899
0.000130862
0.0001311
0.00015796
0.0001579
0.00015797
0.000157902
0.000157902
0.000157986
0.000157878
0.000131537
0.000131219
0.000157889
0.00015793
0.000157888
0.000131716
0.00013145
0.000131052
0.000157981
0.000157899
0.00015797
0.000157892
0.000130698
0.000131091
0.000157987
0.000157879
0.000157996
0.00015791
0.000157875
0.000157941
0.000157854
0.000131023
0.000131224
0.00015789
0.000157922
0.000157876
0.000130592
0.000130902
0.000131773
0.000157965
0.000157892
0.00015797
0.000157906
0.000131513
0.000130984
0.000157986
0.000157923
0.000158004
0.000157919
0.000157824
0.000157948
0.000157831
0.000131547
0.000131084
0.000157873
0.000157918
0.000157863
0.000131454
0.000131019
0.000131255
0.00015795
0.000157896
0.000157961
0.000157905
0.000130655
0.000131119
0.000157974
0.000157921
0.000157969
0.000157913
0.000157826
0.000157964
0.000157849
0.00013129
0.00013167
0.000157861
0.000157921
0.000157873
0.000131106
0.000130896
0.000131214
0.000157942
0.000157904
0.000157955
0.00015791
0.00013084
0.000131859
0.00015796
0.000157915
0.00015797
0.000157954
0.000157835
0.000157986
0.000157851
0.000131267
0.000131877
0.000157866
0.000157944
0.000157857
0.000131012
0.00013093
0.000131322
0.000157956
0.000157913
0.000157962
0.000157923
0.000131116
0.000131283
0.000157968
0.000157948
0.000157984
0.000157964
0.000157846
0.000157984
0.000157856
0.000131825
0.000131318
0.000157856
0.00015796
0.000157873
0.000130649
0.00013157
0.000131012
0.00015794
0.000157918
0.000157948
0.000157943
0.000131041
0.000132069
0.000157978
0.00015796
0.000157972
0.000157978
0.000157866
0.000157996
0.000157886
0.000131576
0.000131982
0.000157882
0.000157999
0.00015791
0.000131488
0.000130892
0.000130926
0.000157937
0.000157935
0.000157934
0.000157945
0.000131228
0.000132129
0.000157946
0.000157956
0.000157924
0.000157912
0.000157877
0.000157975
0.000157888
0.000131666
0.000131672
0.000157907
0.000157979
0.000157918
0.0001313
0.000130864
0.000131312
0.000157924
0.000157942
0.000157923
0.000157957
0.000131709
0.00013141
0.000157918
0.000157904
0.000157928
0.000157882
0.000157875
0.000157991
0.000157869
0.000131848
0.000131386
0.000157913
0.000157979
0.000157905
0.000131899
0.000131231
0.000131644
0.00015792
0.000157954
0.000157962
0.000157996
0.000131275
0.000131326
0.000157924
0.000157863
0.000157953
0.000157852
0.000157876
0.000158003
0.000157864
0.000130992
0.000131686
0.000157902
0.000157964
0.000157886
0.000130757
0.000131046
0.000130791
0.000157939
0.000157978
0.000157925
0.000157964
0.000131309
0.000131534
0.000157957
0.000157852
0.00015795
0.000157857
0.000157844
0.000157957
0.000157874
0.000131884
0.000131191
0.000157883
0.000157949
0.000157901
0.000131812
0.000131262
0.000131215
0.000157928
0.000157963
0.00015792
0.000157971
0.000131033
0.000131299
0.000157942
0.000157844
0.000157951
0.00015788
0.000157881
0.000157956
0.000157878
0.000131237
0.000131586
0.000157893
0.00015796
0.000157905
0.000130783
0.000131404
0.000131818
0.000157925
0.000157967
0.000157968
0.000157968
0.00013101
0.000131601
0.000157944
0.000157882
0.000157996
0.000157927
0.000157872
0.000157938
0.000157895
0.000131028
0.000131503
0.000157908
0.000157956
0.000157902
0.000130616
0.000131682
0.000131514
0.000157983
0.000157959
0.000157991
0.000157919
0.00013142
0.000131017
0.000158003
0.000157945
0.00015799
0.00015794
0.000157895
0.000157914
0.000157919
0.000130972
0.000131195
0.000157899
0.000157971
0.000157914
0.000130957
0.000131233
0.000131619
0.000157971
0.000157918
0.000157983
0.000157927
0.000131333
0.000130876
0.000157982
0.00015793
0.000157982
0.000157938
0.000157918
0.000157911
0.000157927
0.00013086
0.000131176
0.000157922
0.000157972
0.000157939
0.000130856
0.000131626
0.000131449
0.000157974
0.000157915
0.000158011
0.000157946
0.000130588
0.00013183
0.00015797
0.000157921
0.000157984
0.000157911
0.000157907
0.000157928
0.000157913
0.000130832
0.000131013
0.000157918
0.000157996
0.000157894
0.000131616
0.000131451
0.0001316
0.000158013
0.000157959
0.000158011
0.000157978
0.000131263
0.000131595
0.000158
0.000157911
0.000158048
0.0001579
0.000157911
0.000157947
0.000157938
0.00013076
0.000130882
0.000157885
0.000158022
0.000157906
0.000131822
0.000131706
0.000131252
0.000158009
0.000157969
0.000158034
0.000158033
0.000131146
0.000131304
0.000158044
0.000157901
0.000158065
0.000157967
0.000157932
0.000158033
0.000158014
0.000131271
0.000131222
0.000157915
0.000158084
0.00015802
0.00013131
0.000131365
0.000132405
0.000157981
0.000158008
0.000160468
0.00016056
0.0001315
0.000133009
0.000158017
0.000157921
0.000160555
0.000160458
0.000157961
0.000160519
0.000160503
0.00013137
0.000132139
0.000157969
0.000160507
0.000160506
0.000132496
0.00013359
0.000161985
0.000161775
0.000134007
0.000161504
0.000162029
0.000200359
0.000200551
0.000200412
0.000162114
0.000133763
0.000162156
4.04008e-05
4.90617e-05
4.03945e-05
2.40342e-05
2.40364e-05
4.03142e-05
4.90486e-05
0.000198425
0.000198397
0.000198465
0.000198471
0.000198439
0.000198426
6.98702e-05
4.65526e-05
0.000180658
0.000157978
4.65593e-05
0.000180628
6.97692e-05
2.40495e-05
6.97278e-05
0.00018065
0.000157989
0.000180649
4.6552e-05
6.97081e-05
4.1309e-05
4.12972e-05
0.00013119
4.14672e-05
4.14379e-05
4.04005e-05
4.90642e-05
4.03971e-05
4.90599e-05
2.40358e-05
2.40355e-05
4.02785e-05
4.90503e-05
4.02791e-05
4.90579e-05
0.00019844
0.000198439
0.000198403
0.00019845
0.000198457
0.000198447
0.000198418
6.98267e-05
4.6542e-05
0.000180624
0.000157972
6.96549e-05
4.65397e-05
0.00018061
2.40482e-05
2.40481e-05
6.96969e-05
0.000180637
4.65355e-05
0.000157989
6.9702e-05
0.000180622
4.6547e-05
4.15303e-05
4.12781e-05
0.000131227
4.14027e-05
4.1347e-05
4.03847e-05
4.90594e-05
4.03842e-05
4.90518e-05
2.40343e-05
2.40342e-05
4.02622e-05
4.90519e-05
4.0266e-05
4.90483e-05
0.00019846
0.000198434
0.000198418
0.000198469
0.000198459
0.000198452
0.000198426
6.96462e-05
4.6531e-05
0.000180599
0.000157976
6.98585e-05
4.6535e-05
0.000180583
2.40444e-05
2.40427e-05
6.974e-05
0.000180586
4.65553e-05
0.000157947
6.96241e-05
0.000180554
4.6566e-05
4.15493e-05
4.15139e-05
0.000131406
4.14079e-05
4.15311e-05
4.03128e-05
4.90616e-05
4.03207e-05
4.90457e-05
2.40328e-05
2.40331e-05
4.02251e-05
4.90549e-05
4.02303e-05
4.90599e-05
0.00019846
0.000198429
0.000198417
0.000198457
0.000198457
0.000198441
0.000198413
6.98471e-05
4.65314e-05
0.0001806
0.000157963
6.97543e-05
4.655e-05
0.000180609
2.40333e-05
2.40325e-05
6.98235e-05
0.00018056
4.65433e-05
0.00015796
6.99191e-05
0.000180543
4.65502e-05
4.13279e-05
4.13728e-05
0.000131138
4.13305e-05
4.14617e-05
4.02577e-05
4.90484e-05
4.02897e-05
4.90483e-05
2.40318e-05
2.40308e-05
3.99608e-05
4.90566e-05
4.01728e-05
4.90522e-05
0.000198453
0.000198439
0.000198421
0.000198452
0.000198464
0.000198436
0.00019842
6.98423e-05
4.65522e-05
0.000180611
0.000158009
6.9802e-05
4.65628e-05
0.000180615
2.40318e-05
2.40324e-05
6.98297e-05
0.000180557
4.65528e-05
0.000157961
6.97287e-05
0.000180564
4.65653e-05
4.12905e-05
4.14602e-05
0.000131811
4.13419e-05
4.15151e-05
4.01047e-05
4.90488e-05
4.00908e-05
4.90455e-05
2.40303e-05
2.40309e-05
3.99012e-05
4.90546e-05
3.99997e-05
4.90516e-05
0.000198449
0.000198431
0.000198416
0.000198454
0.000198435
0.000198438
0.000198427
6.96175e-05
4.65597e-05
0.000180611
0.000157989
6.96793e-05
4.65755e-05
0.000180606
2.40306e-05
2.40301e-05
6.97134e-05
0.000180585
4.65743e-05
0.00015797
6.97777e-05
0.000180587
4.65917e-05
4.12707e-05
4.1394e-05
0.000131334
4.12935e-05
4.12763e-05
4.00848e-05
4.90552e-05
4.00634e-05
4.90555e-05
2.40331e-05
2.40333e-05
4.01069e-05
4.90536e-05
4.00451e-05
4.90594e-05
0.000198419
0.000198415
0.000198429
0.00019842
0.000198362
0.000198367
0.000198378
6.9652e-05
4.65883e-05
0.000180613
0.000157957
6.97083e-05
4.65957e-05
0.000180606
2.40275e-05
2.40288e-05
6.95841e-05
0.000180581
4.65829e-05
0.000157989
6.9788e-05
0.000180565
4.65847e-05
4.12396e-05
4.14394e-05
0.000131276
4.14438e-05
4.13794e-05
4.00376e-05
4.9053e-05
4.01091e-05
4.90549e-05
2.40345e-05
2.40354e-05
4.0107e-05
4.90523e-05
4.01063e-05
4.90559e-05
0.000198333
0.000198337
0.000198348
0.000198333
0.00019826
0.000198238
0.000198244
6.95164e-05
4.65802e-05
0.000180586
0.0001579
6.95243e-05
4.65857e-05
0.000180566
2.40296e-05
2.40299e-05
6.95259e-05
0.000180512
4.65794e-05
0.000157908
6.95585e-05
0.0001805
4.6584e-05
4.16083e-05
4.14115e-05
0.000131772
4.1536e-05
4.14251e-05
4.03895e-05
4.90555e-05
4.03035e-05
4.90531e-05
2.40354e-05
2.40349e-05
4.00626e-05
4.90615e-05
4.00456e-05
4.90638e-05
0.000198194
0.000198188
0.000198213
0.0001982
0.000198139
0.000198127
0.000198154
6.95974e-05
4.65733e-05
0.000180493
0.00015786
6.97613e-05
4.65794e-05
0.000180471
2.40303e-05
2.40317e-05
6.97446e-05
0.000180432
4.65643e-05
0.00015783
6.965e-05
0.00018041
4.65574e-05
4.13807e-05
4.13951e-05
0.000131233
4.16262e-05
4.13449e-05
4.04306e-05
4.90624e-05
4.04203e-05
4.90625e-05
2.4032e-05
2.40338e-05
4.01651e-05
4.90742e-05
4.00565e-05
4.9065e-05
0.000198124
0.000198107
0.000198137
0.000198192
0.000198153
0.000198158
0.000198167
6.97634e-05
4.65589e-05
0.000180414
0.000157779
6.97067e-05
4.65574e-05
0.000180399
2.40305e-05
2.40316e-05
6.97091e-05
0.000180404
4.65374e-05
0.000157768
6.9634e-05
0.000180401
4.65424e-05
4.15344e-05
4.11636e-05
0.00013111
4.16227e-05
4.1224e-05
4.04472e-05
4.90477e-05
4.04336e-05
4.90491e-05
2.40321e-05
2.40349e-05
4.03931e-05
4.90713e-05
4.03588e-05
4.90576e-05
0.000198143
0.000198139
0.000198148
0.000198252
0.000198218
0.000198221
0.000198239
7.00713e-05
4.65536e-05
0.000180399
0.00015779
6.9715e-05
4.65606e-05
0.000180414
2.40315e-05
2.40322e-05
6.97242e-05
0.000180439
4.65266e-05
0.000157804
6.98149e-05
0.000180463
4.65406e-05
4.15765e-05
4.14586e-05
0.000131229
4.16151e-05
4.14913e-05
4.04638e-05
4.90569e-05
4.04548e-05
4.90607e-05
2.40361e-05
2.40346e-05
4.03636e-05
4.90506e-05
4.03895e-05
4.90625e-05
0.000198233
0.000198241
0.000198255
0.000198374
0.000198328
0.000198335
0.000198348
6.97785e-05
4.65489e-05
0.00018049
0.000157869
6.99108e-05
4.65631e-05
0.000180501
2.40342e-05
2.40362e-05
6.98959e-05
0.000180538
4.65452e-05
0.000157905
6.98576e-05
0.000180551
4.65586e-05
4.13489e-05
4.15048e-05
0.000130954
4.12869e-05
4.15964e-05
4.04556e-05
4.90672e-05
4.04563e-05
4.90649e-05
2.4034e-05
2.40348e-05
4.03637e-05
4.90558e-05
4.03585e-05
4.90532e-05
0.000198338
0.000198341
0.00019837
0.000198424
0.000198393
0.000198391
0.000198403
6.96684e-05
4.65703e-05
0.000180538
0.000157928
6.97939e-05
4.65807e-05
0.000180529
2.40373e-05
2.40385e-05
6.98848e-05
0.000180601
4.65585e-05
0.000157947
6.98838e-05
0.00018059
4.65711e-05
4.14242e-05
4.15179e-05
0.000130959
4.13838e-05
4.1265e-05
4.0424e-05
4.90805e-05
4.04307e-05
4.90687e-05
2.40338e-05
2.4032e-05
4.03529e-05
4.90609e-05
4.03512e-05
4.90518e-05
0.000198389
0.000198393
0.000198389
0.000198414
0.000198411
0.000198418
0.000198404
6.99177e-05
4.65726e-05
0.000180594
0.000157909
6.97867e-05
4.65727e-05
0.000180518
2.40386e-05
2.40394e-05
6.97453e-05
0.000180589
4.65641e-05
0.00015795
6.98091e-05
0.000180581
4.65685e-05
4.12754e-05
4.14131e-05
0.000131428
4.14564e-05
4.13014e-05
4.03899e-05
4.90584e-05
4.03972e-05
4.90528e-05
2.40304e-05
2.40323e-05
4.03441e-05
4.90463e-05
4.03415e-05
4.9054e-05
0.000198407
0.000198409
0.000198392
0.000198417
0.000198423
0.000198412
0.000198412
6.9618e-05
4.65546e-05
0.000180579
0.000157963
6.96299e-05
4.65634e-05
0.000180566
2.40399e-05
2.40409e-05
6.96051e-05
0.000180569
4.65576e-05
0.000157962
6.95605e-05
0.000180569
4.65626e-05
4.14249e-05
4.12693e-05
0.000131079
4.13979e-05
4.13794e-05
4.03821e-05
4.9057e-05
4.03754e-05
4.90558e-05
2.40305e-05
2.40316e-05
4.02856e-05
4.90571e-05
4.02847e-05
4.90603e-05
0.000198421
0.000198392
0.000198407
0.000198414
0.000198438
0.000198401
0.000198406
6.97317e-05
4.65573e-05
0.000180599
0.00015798
6.98416e-05
4.65662e-05
0.000180619
2.40411e-05
2.40424e-05
6.95863e-05
0.000180551
4.6545e-05
0.00015792
6.95726e-05
0.000180541
4.65482e-05
4.14064e-05
4.16313e-05
0.000131494
4.13478e-05
4.14801e-05
4.03912e-05
4.90537e-05
4.03822e-05
4.90631e-05
2.40321e-05
2.40329e-05
4.0009e-05
4.90625e-05
4.01686e-05
4.9069e-05
0.000198432
0.000198396
0.000198399
0.000198417
0.000198443
0.000198402
0.000198403
6.9787e-05
4.65558e-05
0.000180641
0.000157969
6.96379e-05
4.65565e-05
0.000180641
2.40441e-05
2.40446e-05
6.96992e-05
0.000180563
4.65442e-05
0.000157895
6.97513e-05
0.000180563
4.65528e-05
4.13858e-05
4.13594e-05
0.000131284
4.15143e-05
4.12827e-05
4.03909e-05
4.90484e-05
4.03879e-05
4.90488e-05
2.40333e-05
2.4035e-05
3.98908e-05
4.90625e-05
4.01542e-05
4.90544e-05
0.000198425
0.000198395
0.000198387
0.000198439
0.000198444
0.000198401
0.000198394
6.96774e-05
4.65464e-05
0.000180622
0.00015798
6.96294e-05
4.6554e-05
0.000180633
2.40462e-05
2.40472e-05
6.97062e-05
0.000180606
4.65488e-05
0.000157939
6.97115e-05
0.000180604
4.6549e-05
4.14307e-05
4.14833e-05
0.000131066
4.15117e-05
4.13699e-05
4.03751e-05
4.9052e-05
4.03767e-05
4.90546e-05
2.40351e-05
2.40341e-05
4.00723e-05
4.90523e-05
3.99961e-05
4.90511e-05
0.000198425
0.000198381
0.000198395
0.000198419
0.000198438
0.000198398
0.000198389
6.99545e-05
4.65379e-05
0.000180644
0.000158009
6.98024e-05
4.65385e-05
0.000180649
2.4047e-05
2.40476e-05
6.97539e-05
0.000180602
4.65382e-05
0.000157905
6.97387e-05
0.000180606
4.65485e-05
4.13992e-05
4.14594e-05
0.000130717
4.12655e-05
4.15019e-05
4.03513e-05
4.90586e-05
4.03558e-05
4.90556e-05
2.40323e-05
2.40318e-05
4.01258e-05
4.90475e-05
4.00792e-05
4.90531e-05
0.000198417
0.000198387
0.000198379
0.000198418
0.000198427
0.000198399
0.000198392
6.95951e-05
4.65339e-05
0.000180658
0.000158014
6.97108e-05
4.65496e-05
0.00018065
2.40474e-05
2.40481e-05
6.98795e-05
0.000180602
4.65525e-05
0.000157922
6.97266e-05
0.000180594
4.6562e-05
4.15256e-05
4.15903e-05
0.000131309
4.15264e-05
4.14482e-05
4.0335e-05
4.90584e-05
4.03354e-05
4.90568e-05
2.4032e-05
2.40328e-05
4.0331e-05
4.90592e-05
4.03217e-05
4.90533e-05
0.000198426
0.000198403
0.000198405
0.000198411
0.000198428
0.000198402
0.000198397
6.96398e-05
4.65561e-05
0.00018063
0.000157966
6.96203e-05
4.65657e-05
0.000180621
2.40479e-05
2.40486e-05
6.97155e-05
0.000180607
4.65463e-05
0.000157938
7.00277e-05
0.000180592
4.65497e-05
4.13587e-05
4.13919e-05
0.000130968
4.1356e-05
4.12962e-05
4.02759e-05
4.90536e-05
4.03161e-05
4.90578e-05
2.40353e-05
2.40358e-05
4.03247e-05
4.90481e-05
4.0322e-05
4.90472e-05
0.00019843
0.000198404
0.000198394
0.000198427
0.000198432
0.000198409
0.000198391
6.9769e-05
4.65609e-05
0.00018062
0.000157952
6.97324e-05
4.65702e-05
0.000180616
2.40484e-05
2.4049e-05
6.98511e-05
0.000180614
4.65481e-05
0.000157953
6.97961e-05
0.000180597
4.65615e-05
4.1433e-05
4.12412e-05
0.00013053
4.13655e-05
4.13998e-05
4.00706e-05
4.90627e-05
4.00417e-05
4.90692e-05
2.40344e-05
2.40334e-05
4.03161e-05
4.90488e-05
4.03149e-05
4.90472e-05
0.000198429
0.000198414
0.000198384
0.000198454
0.000198431
0.000198416
0.000198379
6.99181e-05
4.65589e-05
0.00018064
0.000157948
6.97983e-05
4.65659e-05
0.000180647
2.40487e-05
2.40492e-05
6.9772e-05
0.000180595
4.65571e-05
0.000157943
6.97655e-05
0.000180583
4.6555e-05
4.14975e-05
4.14067e-05
0.000130534
4.14776e-05
4.13546e-05
4.0113e-05
4.90563e-05
4.0095e-05
4.90545e-05
2.40343e-05
2.40354e-05
4.03134e-05
4.90521e-05
4.03053e-05
4.90487e-05
0.00019842
0.000198413
0.000198387
0.000198451
0.000198423
0.000198423
0.000198398
6.98052e-05
4.65543e-05
0.000180659
0.000157959
7.00504e-05
4.65609e-05
0.000180651
2.40489e-05
2.40495e-05
6.97644e-05
0.000180576
4.65328e-05
0.000157943
6.99705e-05
0.000180564
4.65352e-05
4.14787e-05
4.13322e-05
0.000131733
4.14937e-05
4.14936e-05
4.00397e-05
4.9063e-05
4.00047e-05
4.90565e-05
2.40359e-05
2.4035e-05
4.01065e-05
4.90553e-05
4.02608e-05
4.90555e-05
0.000198426
0.00019842
0.000198396
0.000198449
0.000198441
0.000198427
0.000198415
6.98423e-05
4.65551e-05
0.000180644
0.000157965
6.98164e-05
4.65513e-05
0.000180628
2.40491e-05
2.40496e-05
6.97644e-05
0.000180589
4.65213e-05
0.000157959
6.96196e-05
0.000180583
4.65298e-05
4.1599e-05
4.13224e-05
0.000131839
4.15352e-05
4.13601e-05
4.01391e-05
4.90534e-05
4.00198e-05
4.90525e-05
2.40331e-05
2.40328e-05
3.99851e-05
4.90577e-05
4.01114e-05
4.90575e-05
0.000198434
0.000198426
0.000198403
0.000198448
0.00019844
0.000198419
0.000198409
6.96388e-05
4.6539e-05
0.000180646
0.000157963
6.96584e-05
4.65448e-05
0.000180602
2.4049e-05
2.40494e-05
6.96638e-05
0.00018062
4.65336e-05
0.000157948
6.99092e-05
0.000180602
4.6546e-05
4.15061e-05
4.12632e-05
0.000130719
4.13848e-05
4.13214e-05
4.03718e-05
4.90519e-05
4.03444e-05
4.90564e-05
2.40329e-05
2.40326e-05
4.00242e-05
4.9064e-05
3.99966e-05
4.90539e-05
0.00019843
0.000198416
0.000198389
0.000198438
0.000198438
0.000198416
0.000198411
6.98878e-05
4.65344e-05
0.000180605
0.000157956
6.96798e-05
4.65418e-05
0.00018058
2.40488e-05
2.40493e-05
6.98531e-05
0.000180596
4.65356e-05
0.000157921
6.96646e-05
0.00018059
4.65491e-05
4.15591e-05
4.14956e-05
0.000131206
4.15148e-05
4.15367e-05
4.03878e-05
4.90567e-05
4.03759e-05
4.90597e-05
2.40317e-05
2.40331e-05
4.03274e-05
4.90567e-05
4.01328e-05
4.90574e-05
0.000198416
0.000198412
0.000198391
0.000198436
0.000198425
0.00019842
0.000198401
6.98121e-05
4.65425e-05
0.000180577
0.000157969
6.9706e-05
4.65589e-05
0.00018057
2.40489e-05
2.40494e-05
6.97097e-05
0.000180585
4.65608e-05
0.000157934
6.97148e-05
0.000180561
4.65727e-05
4.15496e-05
4.15204e-05
0.000131209
4.14588e-05
4.14157e-05
4.03995e-05
4.90694e-05
4.03899e-05
4.9063e-05
2.4034e-05
2.40335e-05
4.03105e-05
4.90605e-05
4.03496e-05
4.90576e-05
0.000198424
0.000198408
0.000198397
0.000198442
0.000198426
0.000198424
0.000198391
6.97167e-05
4.65584e-05
0.00018057
0.000157985
6.96413e-05
4.65615e-05
0.000180563
2.4049e-05
2.40494e-05
6.96493e-05
0.000180548
4.65648e-05
0.000157925
6.9596e-05
0.000180546
4.65641e-05
4.14832e-05
4.1419e-05
0.00013109
4.14289e-05
4.14965e-05
4.04087e-05
4.90549e-05
4.03992e-05
4.90523e-05
2.40323e-05
2.40327e-05
4.00197e-05
4.90449e-05
4.01902e-05
4.90493e-05
0.000198424
0.000198398