/*--------------------------------*- C++ -*----------------------------------*\
| =========                 |                                                 |
| \\      /  F ield         | OpenFOAM: The Open Source CFD Toolbox           |
|  \\    /   O peration     | Version:  v2012                                 |
|   \\  /    A nd           | Website:  www.openfoam.com                      |
|    \\/     M anipulation  |                                                 |
\*---------------------------------------------------------------------------*/
FoamFile
{
    version     2.0;
    format      ascii;
    class       surfaceScalarField;
    location    "50";
    object      phi;
}
// * * * * * * * * * * * * * * * * * * * * * * * * * * * * * * * * * * * * * //

dimensions      [0 3 -1 0 0 0 0];
oriented        oriented;


internalField   nonuniform List<scalar> 
248808
(
8.49201e-10
2.42235e-09
-1.61097e-09
-2.14262e-09
0.00110644
-1.23881e-06
3.89461e-10
-2.95624e-07
1.24097e-06
2.93232e-07
9.40411e-07
-3.05846e-07
3.00811e-07
-9.42137e-07
4.10165e-09
0.00110412
1.27757e-06
1.24138e-06
-2.39771e-07
-2.47671e-07
0.000268763
-3.00389e-07
1.28095e-06
2.99376e-07
9.40752e-07
-3.02898e-07
2.97787e-07
-9.41625e-07
2.03339e-09
0.00110367
2.49989e-09
-2.9797e-07
1.2443e-06
2.96717e-07
9.44248e-07
-3.05597e-07
3.01365e-07
-9.43824e-07
0.00110473
-1.27831e-06
-3.30503e-10
5.30146e-09
-3.04314e-07
1.28003e-06
3.01347e-07
9.43415e-07
-3.05986e-07
3.00897e-07
-9.44775e-07
0.00110378
-2.40339e-07
-2.48002e-07
0.000268743
-7.44753e-09
5.02665e-08
0.000208432
-8.87324e-09
-6.53975e-09
4.95627e-08
0.000208451
-9.53207e-09
6.81228e-08
-5.04391e-10
0.00024829
1.42113e-09
-3.04251e-08
-2.3065e-11
-8.08044e-10
0.00110606
7.53364e-09
2.3133e-08
0.00010382
-2.72783e-08
-5.05569e-08
1.31545e-07
0.000263084
1.17986e-08
2.19801e-08
0.000103774
2.10283e-08
0.00010378
2.65736e-08
4.98759e-08
0.00030078
-1.34927e-08
2.99183e-08
4.96643e-08
0.000300733
-1.4066e-08
1.28902e-07
0.000263087
1.09533e-08
1.28683e-07
0.000263104
1.18085e-08
1.9412e-09
2.70356e-10
1.01111e-06
-8.24112e-07
8.27181e-07
-1.00693e-06
0.00110092
1.03417e-09
0.000262233
2.38575e-09
1.88052e-07
5.22731e-08
0.000208419
-8.52746e-09
6.80644e-08
0.00024825
-2.98752e-08
-6.78116e-11
1.01369e-09
1.01077e-06
-8.27027e-07
8.2711e-07
-1.01025e-06
0.0011009
-2.99572e-08
1.28742e-07
0.000263004
1.48253e-08
0.000262201
1.9095e-07
4.35017e-10
5.2007e-08
0.000300638
-1.48624e-08
-2.20295e-08
5.1796e-08
0.000300784
-1.45225e-08
9.06149e-09
0.000103774
0.000208416
-7.83467e-09
8.27519e-09
-4.69561e-08
5.86103e-09
0.000208465
-3.17523e-08
6.33246e-08
0.000285806
-2.9925e-10
8.32602e-05
-2.17219e-10
-2.84452e-08
-8.32854e-05
-1.58756e-09
8.33154e-05
6.06412e-09
8.85014e-09
-5.03779e-08
0.000208487
0.000285944
-2.97187e-08
-6.08011e-10
6.2664e-08
-2.08515e-09
-6.54324e-08
0.000285989
-1.09275e-09
-2.90911e-08
1.50618e-09
-0.000153814
0.00015384
1.39243e-09
2.8499e-08
-1.08555e-09
-7.03434e-08
0.000248331
0.000242554
-2.99723e-08
6.83573e-08
0.000184602
1.42896e-09
1.78655e-10
-7.32431e-08
0.000242597
-2.02817e-10
0.000184632
-8.35798e-09
-2.19233e-08
0.000103851
-1.85872e-08
0.000103801
-1.9347e-08
0.000103808
3.46581e-08
-2.99121e-08
-0.000239549
2.64634e-08
-7.08742e-08
0.000239589
0.000265818
-3.05589e-08
1.0472e-07
4.39431e-08
1.71317e-08
-4.85102e-08
-2.87541e-08
0.000300822
0.000196501
3.44681e-08
-1.3698e-08
1.77483e-08
0.000196535
-1.04979e-07
-4.25146e-08
0.000265887
-2.57693e-08
6.9121e-08
3.51761e-08
-3.02626e-08
-0.000239486
2.43504e-08
-7.36371e-08
0.000239531
0.000265728
-3.05552e-08
1.04607e-07
5.00319e-08
1.69602e-08
-4.86554e-08
-3.07871e-08
0.000300776
0.000196451
3.38336e-08
-1.43106e-08
1.74064e-08
0.000196485
-1.04965e-07
-4.73145e-08
0.000265801
-2.38137e-08
7.1088e-08
1.12015e-08
1.16781e-08
-0.000233179
0.000233207
8.55099e-05
1.16797e-08
8.54956e-05
1.09946e-08
8.55388e-05
8.55247e-05
-2.81672e-08
-8.33697e-05
1.69734e-09
8.33962e-05
6.25948e-09
-4.94409e-08
0.000208454
0.000285713
-3.20906e-08
5.32826e-10
6.24879e-08
-3.71023e-10
-6.31811e-08
0.000285754
5.36846e-11
2.12392e-09
-3.03115e-08
-0.000153763
0.000153793
2.86782e-08
-8.88288e-10
-6.75916e-08
0.000248288
0.000184563
2.16125e-09
0.000242415
-3.21052e-08
6.92097e-08
0.000184594
-6.88803e-08
0.000242453
3.53354e-08
-2.91875e-08
-0.00023946
2.41433e-08
-7.28241e-08
0.000239503
0.000265655
-3.17319e-08
1.04899e-07
5.08472e-08
1.47644e-08
-5.0671e-08
-2.98507e-08
0.000300681
0.000196467
3.73128e-08
-1.63782e-08
1.44843e-08
0.000196502
-1.043e-07
-4.65299e-08
0.000265726
-2.43843e-08
7.17251e-08
-2.88371e-08
3.48356e-08
-0.000239536
2.63476e-08
-6.78694e-08
0.000239571
0.000265829
-3.19209e-08
1.02179e-07
4.48082e-08
-5.13212e-08
1.46856e-08
1.84816e-08
-2.80241e-08
0.00030083
0.000196509
3.80604e-08
-1.57029e-08
-1.02019e-07
-4.2013e-08
0.000265893
1.49951e-08
0.000196544
-2.62628e-08
6.71819e-08
1.03424e-08
9.82202e-09
-0.000233148
0.000233178
8.55103e-05
1.19404e-08
8.55264e-05
1.26096e-08
8.55351e-05
8.55513e-05
-6.56013e-09
0.000103799
-4.68569e-08
7.23702e-09
0.000208449
-4.15541e-10
0.00111146
-9.37164e-10
-1.25557e-07
-1.23205e-07
-0.000255861
0.000255965
0.000267183
-1.23759e-07
0.000267624
-1.2147e-07
2.42893e-07
2.51014e-07
0.000270794
0.000267494
0.000267944
-1.2204e-07
-1.24876e-07
-0.000255842
0.000255948
0.000267568
-1.25074e-07
0.000267198
-1.22058e-07
2.50108e-07
2.42373e-07
0.000270772
0.000267517
0.000267882
0.00111068
-5.43452e-10
1.76964e-08
2.06541e-07
-0.000270712
0.000271445
-1.58736e-08
0.000270317
1.65249e-08
-1.27614e-07
-1.35847e-08
0.00026315
0.000266946
2.0685e-07
-6.37102e-08
4.30709e-10
0.000270466
6.23898e-08
0.00026708
-3.39647e-09
1.42502e-08
2.01497e-07
1.55899e-08
-0.000270707
0.00027144
-8.85527e-09
0.000270305
1.59216e-08
-1.44733e-08
-1.24921e-07
0.00026315
0.000266949
2.01186e-07
-4.55639e-10
6.24836e-08
0.000267078
-4.41518e-09
0.000270451
5.74165e-09
2.049e-07
1.49664e-08
-0.000270767
-2.1412e-08
0.000271512
0.00027034
1.6476e-08
-1.3688e-08
-1.2549e-07
0.000263162
0.000267029
2.02955e-07
2.33741e-09
-3.24377e-09
0.000267158
0.000270484
2.17532e-08
2.16166e-07
-5.86416e-09
-0.000269235
0.000270015
1.28974e-09
-1.91485e-07
-1.29237e-09
0.000262354
0.000263229
2.10276e-07
0.000268055
-2.25452e-09
6.90555e-09
0.00026337
-5.0624e-09
0.00026869
2.04614e-07
1.6824e-08
-0.000270676
-5.18011e-09
0.000271403
0.000270251
1.98775e-08
-1.49936e-08
-1.25064e-07
0.000263065
0.000266872
2.03341e-07
1.88133e-10
-8.79093e-10
0.000267
0.000270397
6.55516e-09
-7.66301e-10
2.15433e-07
-0.00026917
0.000269961
-1.91325e-07
-1.34984e-09
0.000262325
0.000268039
-1.52958e-09
0.000263124
2.13652e-07
0.000268669
0.000263268
-1.24459e-06
-2.99274e-10
4.6305e-09
0.00110446
-2.95649e-07
1.24626e-06
2.93166e-07
9.41277e-07
-3.03317e-07
2.9792e-07
-9.41673e-07
1.27263e-06
1.2387e-06
-2.42395e-07
-2.48133e-07
0.000268759
5.27228e-10
6.52983e-10
-0.00110644
-9.39928e-10
-9.17161e-10
0.00110644
-0.00110446
-1.24412e-06
-1.63538e-09
3.80746e-09
0.00110446
-2.95393e-07
1.24642e-06
2.93037e-07
9.41031e-07
-3.01938e-07
-9.40751e-07
2.98568e-07
-0.00110411
-1.23848e-06
-1.22742e-09
3.51331e-09
0.00110411
-2.94992e-07
1.24121e-06
2.93528e-07
9.40928e-07
-3.04988e-07
-9.40826e-07
3.00917e-07
-0.00027078
1.27241e-06
1.23838e-06
-2.42265e-07
-2.47946e-07
0.000268759
1.63905e-09
6.69313e-10
-0.00110644
-8.62108e-10
-1.48293e-09
0.00110644
-0.00110446
-1.24372e-06
-1.2027e-09
3.0447e-09
0.00110447
-2.94854e-07
1.24684e-06
2.93572e-07
9.40871e-07
-3.02446e-07
-9.41272e-07
2.9778e-07
-0.00110411
-1.2386e-06
3.69249e-10
4.61533e-09
0.00110412
-2.95326e-07
1.24121e-06
2.93017e-07
9.4034e-07
-3.05781e-07
-9.41531e-07
3.00128e-07
-0.000270779
1.27247e-06
1.23854e-06
-2.42549e-07
-2.47883e-07
0.000268758
9.32357e-10
-4.89465e-11
-0.00110644
-4.12183e-10
-9.64719e-10
0.00110644
-0.00110446
-1.24347e-06
-1.69538e-09
2.82591e-09
0.00110446
-2.94434e-07
1.24714e-06
2.94095e-07
9.407e-07
-3.02132e-07
-9.40918e-07
2.97825e-07
-0.00110412
-1.23825e-06
-1.43822e-09
2.6102e-09
0.00110412
-2.94753e-07
1.24124e-06
2.937e-07
9.41265e-07
-3.05181e-07
-9.40422e-07
3.00613e-07
-0.00027078
1.27235e-06
1.23842e-06
-2.42321e-07
-2.47778e-07
0.000268759
1.71139e-09
2.38375e-09
-0.00110644
-1.83409e-09
-1.31262e-09
0.00110644
-0.00110446
-1.24367e-06
-1.60072e-09
3.78335e-09
0.00110446
-2.94853e-07
1.24682e-06
2.93531e-07
9.41033e-07
-3.01999e-07
-9.40755e-07
2.97937e-07
-0.00110411
-1.23793e-06
-2.98062e-09
2.54789e-09
0.00110411
-2.94552e-07
1.24156e-06
2.93706e-07
9.4093e-07
-3.04344e-07
-9.4043e-07
3.01488e-07
-0.000270779
1.27229e-06
1.23848e-06
-2.42141e-07
-2.47954e-07
0.000268758
1.27064e-09
2.35075e-09
-0.00110643
-1.92718e-09
-1.09789e-09
0.00110643
-0.00110445
-1.2443e-06
-1.07672e-09
4.98795e-09
0.00110445
-2.95559e-07
1.24624e-06
2.93026e-07
9.41118e-07
-3.01964e-07
-9.40528e-07
2.98109e-07
-0.00110411
-1.23794e-06
-2.23156e-09
3.24144e-09
0.00110411
-2.94625e-07
1.24168e-06
2.93744e-07
9.40764e-07
-3.04918e-07
-9.40413e-07
3.00748e-07
-0.000270777
1.27136e-06
1.23806e-06
-2.41927e-07
-2.4685e-07
0.000268757
7.47511e-10
1.34951e-09
-0.00110643
-1.37114e-09
-6.83759e-10
0.00110643
-0.00110445
-1.24431e-06
-5.07901e-10
4.18535e-09
0.00110445
-2.9547e-07
1.24647e-06
2.93171e-07
9.40778e-07
-3.02307e-07
-9.4076e-07
2.97851e-07
-0.00110411
-1.23821e-06
-1.87053e-09
2.71437e-09
0.00110411
-2.9487e-07
1.24128e-06
2.93472e-07
9.40865e-07
-3.04599e-07
-9.40449e-07
3.01229e-07
-0.000270776
1.27176e-06
1.23838e-06
-2.42151e-07
-2.475e-07
0.000268755
-2.09504e-10
5.81581e-10
-0.00110643
-5.35401e-10
-3.43014e-10
0.00110643
-0.00110445
-1.24391e-06
-1.33293e-09
2.9505e-09
0.00110445
-2.95053e-07
1.24671e-06
2.93516e-07
9.40664e-07
-3.02118e-07
-9.40941e-07
2.981e-07
-0.00110411
-1.23863e-06
-2.76087e-10
3.46473e-09
0.00110411
-2.95094e-07
1.24124e-06
2.9325e-07
9.40499e-07
-3.05393e-07
-9.4116e-07
3.0065e-07
-0.000270776
1.27231e-06
1.23874e-06
-2.42702e-07
-2.48024e-07
0.000268756
-6.16754e-10
2.39482e-10
-0.00110643
-3.17672e-10
-2.69093e-10
0.00110643
-0.00110446
-1.24392e-06
-1.42391e-09
3.44904e-09
0.00110446
-2.95219e-07
1.24652e-06
2.93322e-07
9.41047e-07
-3.02423e-07
-9.40936e-07
2.97963e-07
-0.00110411
-1.23864e-06
-6.46116e-10
3.47705e-09
0.00110411
-2.95083e-07
1.24137e-06
2.93348e-07
9.40483e-07
-3.0539e-07
-9.41209e-07
3.00606e-07
-0.000270777
1.27262e-06
1.23872e-06
-2.42673e-07
-2.48086e-07
0.000268757
6.85093e-10
7.99258e-10
-0.00110644
-9.7642e-10
-9.91103e-10
0.00110644
-0.00110446
-1.24372e-06
-1.49511e-09
3.05934e-09
0.00110446
-2.9508e-07
1.24706e-06
2.93509e-07
9.40672e-07
-3.02196e-07
-9.41347e-07
2.98315e-07
-0.00110411
-1.2387e-06
-1.2958e-09
3.03584e-09
0.00110411
-2.95099e-07
1.24129e-06
2.93464e-07
9.41006e-07
-3.05162e-07
-9.4082e-07
3.0093e-07
-0.000270776
1.27225e-06
1.23831e-06
-2.42335e-07
-2.47609e-07
0.000268756
1.50332e-09
1.25977e-09
-0.00110644
-1.59461e-09
-1.61048e-09
0.00110644
-0.00110446
-1.2441e-06
-1.35367e-10
3.57166e-09
0.00110446
-2.95361e-07
1.2464e-06
2.93174e-07
9.41137e-07
-3.02686e-07
-9.40965e-07
2.97788e-07
-0.00110411
-1.23847e-06
-1.47483e-09
2.65289e-09
0.00110411
-2.94992e-07
1.24142e-06
2.93202e-07
9.4129e-07
-3.0472e-07
-9.40486e-07
3.01181e-07
-0.000270776
1.27226e-06
1.23862e-06
-2.42474e-07
-2.4792e-07
0.000268755
1.07706e-09
2.1351e-09
-0.00110644
-1.62302e-09
-1.7468e-09
0.00110644
-0.00110446
-1.24406e-06
-7.66573e-10
4.05972e-09
0.00110446
-2.95114e-07
1.24656e-06
2.93259e-07
9.41047e-07
-3.02456e-07
-9.40916e-07
2.97834e-07
-0.00110411
-1.23873e-06
-4.50337e-10
3.72686e-09
0.00110411
-2.95098e-07
1.24096e-06
2.93084e-07
9.40629e-07
-3.05305e-07
-9.40831e-07
3.00733e-07
-0.000270776
1.27255e-06
1.2384e-06
-2.42257e-07
-2.4823e-07
0.000268756
7.84934e-10
1.14509e-09
-0.00110644
-1.17386e-09
-1.33201e-09
0.00110644
-0.00110446
-1.24394e-06
-7.78787e-10
4.07998e-09
0.00110446
-2.94976e-07
1.24655e-06
2.9334e-07
9.40476e-07
-3.02489e-07
-9.41246e-07
2.97965e-07
-0.00110411
-1.23903e-06
-4.71478e-10
5.05807e-09
0.00110411
-2.95427e-07
1.24075e-06
2.92942e-07
9.40827e-07
-3.05426e-07
-9.40887e-07
3.00505e-07
-0.000270778
1.27244e-06
1.23868e-06
-2.42639e-07
-2.48078e-07
0.000268758
2.32128e-10
5.97495e-10
-0.00110644
-7.77324e-10
-4.06353e-10
0.00110644
-0.00110446
-1.24431e-06
-1.14096e-09
4.73406e-09
0.00110446
-2.9549e-07
1.24623e-06
2.92841e-07
9.41409e-07
-3.02642e-07
-9.40759e-07
2.97976e-07
-0.00110411
-1.23867e-06
-2.12151e-09
4.80314e-09
0.00110411
-2.95064e-07
1.24115e-06
2.93413e-07
9.40653e-07
-3.04827e-07
-9.40853e-07
3.0082e-07
-0.000270779
1.27182e-06
1.2384e-06
-2.42298e-07
-2.47411e-07
0.000268759
5.93127e-10
1.50745e-09
-0.00110644
-1.10071e-09
-7.98759e-10
0.00110644
-0.00110446
-1.24381e-06
-3.14103e-09
3.81353e-09
0.00110446
-2.94925e-07
1.24659e-06
2.93293e-07
9.41381e-07
-3.01615e-07
-9.40179e-07
2.98653e-07
-0.00110411
-1.23828e-06
-2.05853e-09
3.16583e-09
0.00110411
-2.94678e-07
1.24139e-06
2.93684e-07
9.41064e-07
-3.04858e-07
-9.40659e-07
3.00948e-07
-0.000270779
1.27234e-06
1.2384e-06
-2.42292e-07
-2.47768e-07
0.000268758
1.47748e-09
4.35213e-10
-0.00110644
-4.79495e-10
-1.44096e-09
0.00110644
-0.00110446
-1.24346e-06
-9.59874e-10
2.84511e-09
0.00110446
-2.94797e-07
1.24707e-06
2.93675e-07
9.40306e-07
-3.02438e-07
-9.41389e-07
2.97843e-07
-0.00110411
-1.23874e-06
-6.3686e-10
3.99725e-09
0.00110411
-2.9529e-07
1.24096e-06
2.9313e-07
9.40452e-07
-3.05167e-07
-9.40979e-07
3.00702e-07
-0.000270778
1.27242e-06
1.23846e-06
-2.42266e-07
-2.4811e-07
0.000268758
1.24132e-09
-2.09086e-10
-0.00110644
-1.83698e-11
-1.42731e-09
0.00110644
-0.00110446
-1.24342e-06
-2.65673e-09
2.20212e-09
0.00110446
-2.94463e-07
1.24687e-06
2.93714e-07
9.41347e-07
-3.02082e-07
-9.40416e-07
2.98336e-07
-0.00110411
-1.23868e-06
-2.91103e-10
4.16295e-09
0.00110412
-2.95074e-07
1.24083e-06
2.93058e-07
9.40913e-07
-3.05382e-07
-9.40892e-07
3.00414e-07
-0.000270779
1.27237e-06
1.23836e-06
-2.42392e-07
-2.4785e-07
0.000268759
1.14183e-09
1.14481e-09
-0.00110644
-9.66876e-10
-1.23087e-09
0.00110644
-0.00110446
-1.24405e-06
-2.11782e-09
3.35055e-09
0.00110446
-2.95083e-07
1.24628e-06
2.93077e-07
9.41187e-07
-3.01826e-07
-9.40199e-07
2.98511e-07
-0.00110411
-1.23835e-06
-2.22574e-09
3.4413e-09
0.00110411
-2.94835e-07
1.2412e-06
2.93447e-07
9.41138e-07
-3.04822e-07
-9.40427e-07
3.01035e-07
-0.00027078
1.27253e-06
1.23883e-06
-2.42649e-07
-2.48065e-07
0.000268759
6.44731e-10
1.2314e-09
-0.00110644
-1.20442e-09
-1.00991e-09
0.00110644
-0.00110446
-1.24403e-06
-2.8813e-10
4.31413e-09
0.00110446
-2.9535e-07
1.24621e-06
2.92752e-07
9.40445e-07
-3.02285e-07
-9.41418e-07
2.98221e-07
-0.00110411
-1.23855e-06
-1.29937e-09
3.68623e-09
0.00110411
-2.95245e-07
1.24113e-06
2.9319e-07
9.40561e-07
-3.04628e-07
-9.40702e-07
3.01196e-07
-0.000270779
1.27232e-06
1.23861e-06
-2.42363e-07
-2.47932e-07
0.000268759
1.02183e-09
5.93478e-10
-0.00110644
-9.59145e-10
-1.4025e-09
0.00110644
-0.00110446
-1.24386e-06
-8.06519e-10
3.61016e-09
0.00110446
-2.95235e-07
1.2467e-06
2.93253e-07
9.40587e-07
-3.02332e-07
-9.40855e-07
2.98084e-07
-0.00110411
-1.23896e-06
2.59873e-11
4.59902e-09
0.00110411
-2.95706e-07
1.24084e-06
2.92836e-07
9.40583e-07
-3.05431e-07
-9.40848e-07
3.0062e-07
-0.000270779
1.27237e-06
1.23863e-06
-2.4271e-07
-2.47695e-07
0.000268758
9.67165e-10
2.17885e-09
-0.00110644
-1.65371e-09
-1.46518e-09
0.00110644
-0.00110446
-1.2446e-06
-1.07515e-09
4.7187e-09
0.00110446
-2.95545e-07
1.24606e-06
2.9292e-07
9.41218e-07
-3.02319e-07
-9.40467e-07
2.98061e-07
-0.00110411
-1.23872e-06
-1.44298e-09
3.62845e-09
0.00110411
-2.95081e-07
1.24103e-06
2.93246e-07
9.40995e-07
-3.04978e-07
-9.40331e-07
3.01127e-07
-0.000270779
1.27242e-06
1.23837e-06
-2.42238e-07
-2.47914e-07
0.000268759
1.01973e-09
6.99383e-10
-0.00110644
-8.29743e-10
-1.18339e-09
0.00110644
-0.00110446
-1.24382e-06
-1.18266e-09
3.82074e-09
0.00110446
-2.94961e-07
1.24704e-06
2.93534e-07
9.40226e-07
-3.02255e-07
-9.41205e-07
2.98151e-07
-0.00110411
-1.23881e-06
-1.4559e-09
4.2012e-09
0.00110411
-2.95195e-07
1.24094e-06
2.93159e-07
9.40891e-07
-3.05075e-07
-9.40421e-07
3.01008e-07
-0.000270779
1.27229e-06
1.23844e-06
-2.42339e-07
-2.47857e-07
0.000268759
1.35809e-09
9.05978e-10
-0.00110644
-1.07527e-09
-1.22756e-09
0.00110644
-0.00110446
-1.24348e-06
-4.96123e-10
2.65637e-09
0.00110446
-2.94643e-07
1.24694e-06
2.93685e-07
9.4078e-07
-3.0259e-07
-9.41144e-07
2.97639e-07
-0.00110411
-1.23867e-06
-1.33809e-09
3.74619e-09
0.00110411
-2.95261e-07
1.24108e-06
2.93147e-07
9.41225e-07
-3.05287e-07
-9.40602e-07
3.00725e-07
-0.000270779
1.27206e-06
1.23855e-06
-2.42353e-07
-2.47595e-07
0.000268759
7.29438e-10
2.19508e-09
-0.00110644
-1.75535e-09
-1.07104e-09
0.00110644
-0.00110446
-1.24415e-06
-1.47724e-10
3.83468e-09
0.00110446
-2.9509e-07
1.24656e-06
2.93274e-07
9.40462e-07
-3.02557e-07
-9.41174e-07
2.9783e-07
-0.00110411
-1.2382e-06
-1.18854e-09
2.63438e-09
0.00110411
-2.9477e-07
1.24132e-06
2.93676e-07
9.40727e-07
-3.05124e-07
-9.40885e-07
3.00808e-07
-0.000270779
1.27243e-06
1.23884e-06
-2.4277e-07
-2.47848e-07
0.000268758
1.0152e-09
2.65331e-10
-0.00110644
-6.76829e-10
-9.11901e-10
0.00110644
-0.00110446
-1.2442e-06
-1.5778e-09
3.7665e-09
0.00110446
-2.95272e-07
1.24649e-06
2.93112e-07
9.41402e-07
-3.02408e-07
-9.40407e-07
2.98224e-07
-0.00110411
-1.23848e-06
-2.42908e-09
3.03729e-09
0.00110411
-2.95084e-07
1.24113e-06
2.93213e-07
9.41424e-07
-3.04695e-07
-9.40021e-07
3.01231e-07
-0.000270778
1.27254e-06
1.23871e-06
-2.42589e-07
-2.47953e-07
0.000268758
1.08314e-09
3.20771e-10
-0.00110644
-3.66629e-10
-1.15331e-09
0.00110644
-0.00110446
-1.24379e-06
-2.93437e-09
3.34868e-09
0.00110446
-2.94934e-07
1.24683e-06
2.93419e-07
9.41186e-07
-3.01938e-07
-9.40188e-07
2.9854e-07
-0.00110411
-1.23863e-06
-1.07608e-09
4.52141e-09
0.00110411
-2.95133e-07
1.24116e-06
2.93267e-07
9.40172e-07
-3.05086e-07
-9.41181e-07
3.00806e-07
-0.000270778
1.27223e-06
1.23845e-06
-2.42446e-07
-2.47694e-07
0.000268758
5.2753e-10
6.88466e-10
-0.00110644
-4.86478e-10
-9.97442e-10
0.00110644
-0.00110446
-1.24387e-06
-2.16513e-09
3.54913e-09
0.00110446
-2.94998e-07
1.2467e-06
2.93017e-07
9.41063e-07
-3.01977e-07
-9.40689e-07
2.98126e-07
-0.00110411
-1.23862e-06
-9.27198e-10
4.74709e-09
0.00110411
-2.9533e-07
1.24089e-06
2.93213e-07
9.40551e-07
-3.05266e-07
-9.40897e-07
3.00682e-07
-0.000270778
1.27195e-06
1.23834e-06
-2.42279e-07
-2.47615e-07
0.000268758
1.10745e-09
9.63664e-10
-0.00110644
-1.08175e-09
-1.38842e-09
0.00110644
-0.00110446
-1.24438e-06
-1.11553e-09
4.50928e-09
0.00110446
-2.95489e-07
1.24632e-06
2.92822e-07
9.41013e-07
-3.02375e-07
-9.40283e-07
2.98105e-07
-0.00110411
-1.23832e-06
-1.69744e-10
4.14621e-09
0.00110411
-2.95023e-07
1.24121e-06
2.93407e-07
9.40279e-07
-3.05357e-07
-9.41459e-07
3.00692e-07
-0.000270779
1.27241e-06
1.23838e-06
-2.42192e-07
-2.48069e-07
0.000268758
1.32021e-09
1.8218e-09
-0.00110644
-1.70349e-09
-1.61388e-09
0.00110644
-0.00110446
-1.24415e-06
-8.12162e-10
3.81537e-09
0.00110446
-2.95258e-07
1.24663e-06
2.93074e-07
9.4096e-07
-3.02136e-07
-9.40679e-07
2.98092e-07
-0.00110411
-1.23852e-06
-3.98516e-10
3.61979e-09
0.00110411
-2.95097e-07
1.24097e-06
2.93299e-07
9.41058e-07
-3.05452e-07
-9.41097e-07
3.00747e-07
-0.000270779
1.27243e-06
1.23869e-06
-2.42584e-07
-2.47971e-07
0.000268758
1.52108e-09
1.76882e-09
-0.00110644
-1.6938e-09
-1.48489e-09
0.00110644
-0.00110446
-1.24412e-06
-9.81055e-10
3.18947e-09
0.00110446
-2.95158e-07
1.2467e-06
2.93344e-07
9.40714e-07
-3.02221e-07
-9.40893e-07
2.98096e-07
-0.00110411
-1.23807e-06
-8.88235e-10
2.98356e-09
0.00110411
-2.94531e-07
1.24159e-06
2.93947e-07
9.40327e-07
-3.05427e-07
-9.41332e-07
3.00545e-07
-0.000270779
1.2723e-06
1.23878e-06
-2.42598e-07
-2.47878e-07
0.000268759
-4.8051e-10
3.82759e-10
-0.00110644
-3.79578e-10
-1.29043e-10
0.00110644
-0.00110446
-1.2438e-06
-1.80299e-09
3.36762e-09
0.00110446
-2.94559e-07
1.24687e-06
2.939e-07
9.4066e-07
-3.02232e-07
-9.41247e-07
2.98011e-07
-0.00110411
-1.23837e-06
-1.4969e-09
3.23184e-09
0.00110411
-2.9475e-07
1.24112e-06
2.93427e-07
9.41051e-07
-3.05116e-07
-9.40872e-07
3.00987e-07
-0.000270779
1.27219e-06
1.23855e-06
-2.42339e-07
-2.47791e-07
0.000268759
7.1643e-10
4.12589e-10
-0.00110644
-6.69396e-10
-9.48231e-10
0.00110644
-0.00110446
-1.2436e-06
-1.18454e-09
3.44008e-09
0.00110446
-2.94956e-07
1.24682e-06
2.93148e-07
9.40669e-07
-3.02147e-07
-9.41111e-07
2.98159e-07
-0.00110411
-1.23832e-06
-1.26097e-09
3.801e-09
0.00110411
-2.9499e-07
1.24122e-06
2.93197e-07
9.40587e-07
-3.05192e-07
-9.40977e-07
3.00837e-07
-0.00027078
1.27226e-06
1.23859e-06
-2.42492e-07
-2.47779e-07
0.000268759
2.11695e-09
1.57302e-09
-0.00110644
-1.8751e-09
-1.94053e-09
0.00110644
-0.00110446
-1.24412e-06
3.108e-10
4.1205e-09
0.00110446
-2.95212e-07
1.24643e-06
2.92801e-07
9.40669e-07
-3.02698e-07
-9.4121e-07
2.97696e-07
-0.00110411
-1.23853e-06
-4.46058e-10
4.16458e-09
0.00110411
-2.95215e-07
1.24105e-06
2.93156e-07
9.40449e-07
-3.05344e-07
-9.41149e-07
3.00784e-07
-0.00027078
1.27202e-06
1.23864e-06
-2.42545e-07
-2.47587e-07
0.000268759
1.13955e-09
2.01008e-09
-0.00110644
-1.71005e-09
-1.52353e-09
0.00110644
-0.00110446
-1.24387e-06
-5.10801e-10
3.53296e-09
0.00110446
-2.94846e-07
1.24661e-06
2.93344e-07
9.41077e-07
-3.02606e-07
-9.4098e-07
2.97617e-07
-0.00110411
-1.23832e-06
-1.17689e-09
3.34661e-09
0.00110412
-2.94891e-07
1.24114e-06
2.93316e-07
9.40811e-07
-3.05023e-07
-9.40792e-07
3.00805e-07
-0.000270779
1.27211e-06
1.23864e-06
-2.42476e-07
-2.47686e-07
0.000268759
5.42129e-10
6.45205e-10
-0.00110644
-5.569e-10
-9.28607e-10
0.00110644
-0.00110446
-1.24393e-06
-1.51546e-09
3.90354e-09
0.00110446
-2.9503e-07
1.24637e-06
2.93175e-07
9.4129e-07
-3.02445e-07
-9.40571e-07
2.9791e-07
-0.00110411
-1.23846e-06
-7.92441e-10
4.19399e-09
0.00110411
-2.95225e-07
1.24083e-06
2.92945e-07
9.40828e-07
-3.04956e-07
-9.40706e-07
3.00898e-07
-0.000270779
1.27193e-06
1.23827e-06
-2.42207e-07
-2.47287e-07
0.000268759
1.03861e-09
-7.50095e-10
-0.00110644
5.76456e-10
-1.05979e-09
0.00110644
-0.00110446
-1.24353e-06
-3.68504e-09
2.29268e-09
0.00110446
-2.94639e-07
1.24662e-06
2.93527e-07
9.41174e-07
-3.0153e-07
-9.40248e-07
2.98765e-07
-0.00110411
-1.23857e-06
6.93176e-11
4.8173e-09
0.00110411
-2.95279e-07
1.24081e-06
2.92833e-07
9.40407e-07
-3.05444e-07
-9.41151e-07
3.0024e-07
-0.000270779
1.27249e-06
1.23849e-06
-2.42436e-07
-2.48083e-07
0.000268758
3.87351e-10
8.69754e-10
-0.00110644
-7.78175e-10
-8.28865e-10
0.00110644
-0.00110446
-1.24348e-06
-2.22485e-09
3.22984e-09
0.00110446
-2.94711e-07
1.24651e-06
2.92998e-07
9.40453e-07
-3.01529e-07
-9.40571e-07
2.97993e-07
-0.00110411
-1.23784e-06
-1.43983e-09
2.93284e-09
0.00110411
-2.9427e-07
1.24127e-06
2.93404e-07
9.402e-07
-3.04679e-07
-9.40802e-07
3.00396e-07
-0.000270779
1.27225e-06
1.23846e-06
-2.42311e-07
-2.47748e-07
0.000268758
1.1415e-09
3.59715e-09
-0.00110644
-2.61761e-09
-1.63703e-09
0.00110644
-0.00110446
-1.24392e-06
-3.18328e-10
5.13902e-09
0.00110446
-2.94951e-07
1.24567e-06
2.92293e-07
9.39856e-07
-3.01581e-07
-9.40194e-07
2.96815e-07
-0.00110411
-1.23789e-06
-1.25752e-09
3.35179e-09
0.00110411
-2.94389e-07
1.24089e-06
2.92917e-07
9.39752e-07
-3.0422e-07
-9.40102e-07
2.99437e-07
-0.000270779
1.27148e-06
1.23798e-06
-2.41648e-07
-2.4688e-07
0.000268758
1.70829e-09
1.80959e-09
-0.00110644
-1.81105e-09
-1.70396e-09
0.00110644
-0.00110446
-1.24294e-06
-8.04763e-10
3.17241e-09
0.00110446
-2.94075e-07
1.24604e-06
2.92496e-07
9.3903e-07
-3.00767e-07
-9.39907e-07
2.95928e-07
-0.00110411
-1.23767e-06
-1.08682e-09
3.18675e-09
0.00110411
-2.94132e-07
1.24032e-06
2.92403e-07
9.39193e-07
-3.03498e-07
-9.39219e-07
2.98798e-07
-0.000270779
1.2715e-06
1.23809e-06
-2.41667e-07
-2.46652e-07
0.000268758
7.87082e-10
-1.50794e-10
-0.00110644
-2.9203e-10
-1.07922e-09
0.00110644
-0.00110446
-1.24278e-06
-1.72612e-09
2.66766e-09
0.00110446
-2.9378e-07
1.24575e-06
2.92233e-07
9.39271e-07
-3.00118e-07
-9.38602e-07
2.95216e-07
-0.00110411
-1.23756e-06
-1.2611e-09
3.19755e-09
0.00110411
-2.9403e-07
1.23993e-06
2.917e-07
9.38958e-07
-3.02706e-07
-9.38505e-07
2.9839e-07
-0.00027078
1.27123e-06
1.23762e-06
-2.41038e-07
-2.4631e-07
0.000268758
1.42998e-09
1.01549e-09
-0.00110644
-1.06855e-09
-1.53343e-09
0.00110644
-0.00110446
-1.24242e-06
-2.54978e-09
2.30238e-09
0.00110447
-2.93593e-07
1.24555e-06
2.9193e-07
9.38617e-07
-2.99051e-07
-9.38069e-07
2.952e-07
-0.00110411
-1.23779e-06
-1.92758e-09
3.61592e-09
0.00110412
-2.94082e-07
1.23927e-06
2.91577e-07
9.38786e-07
-3.02086e-07
-9.37461e-07
2.97644e-07
-0.00027078
1.27118e-06
1.23754e-06
-2.40921e-07
-2.46126e-07
0.000268758
1.60041e-09
2.49782e-09
-0.00110644
-2.00193e-09
-1.5142e-09
0.00110644
-0.00110446
-1.24257e-06
-1.79238e-09
3.1656e-09
0.00110447
-2.93734e-07
1.24531e-06
2.92047e-07
9.36308e-07
-2.97798e-07
-9.37886e-07
2.93561e-07
-0.00110412
-1.23716e-06
-4.45605e-09
2.34447e-09
0.00110412
-2.93424e-07
1.23965e-06
2.92138e-07
9.37675e-07
-3.00027e-07
-9.36003e-07
2.96772e-07
-0.00027078
1.27071e-06
1.23727e-06
-2.404e-07
-2.45713e-07
0.000268758
2.70593e-09
3.28832e-09
-0.00110644
-2.46029e-09
-2.27913e-09
0.00110644
-0.00110447
-1.24194e-06
-4.68414e-09
2.91487e-09
0.00110447
-2.92786e-07
1.24415e-06
2.90818e-07
9.35365e-07
-2.94015e-07
-9.33892e-07
2.89627e-07
-0.00110411
-1.23617e-06
-5.26845e-09
2.35629e-09
0.00110412
-2.92303e-07
1.23882e-06
2.90917e-07
9.34529e-07
-2.96264e-07
-9.33914e-07
2.92935e-07
-0.000270779
1.26981e-06
1.23605e-06
-2.39297e-07
-2.44694e-07
0.000268758
5.60217e-09
5.66639e-09
-0.00110644
-4.24808e-09
-4.41569e-09
0.00110644
-0.00110446
-1.23839e-06
-7.10895e-09
1.53929e-09
0.00110447
-2.88003e-07
1.24152e-06
2.87132e-07
9.30761e-07
-2.85525e-07
-9.29921e-07
2.81415e-07
-0.00110411
-1.23331e-06
-5.62229e-09
2.81109e-09
0.00110412
-2.88763e-07
1.23581e-06
2.86379e-07
9.29794e-07
-2.8837e-07
-9.30029e-07
2.84054e-07
-0.000270781
1.26718e-06
1.23336e-06
-2.36066e-07
-2.41395e-07
0.000268758
8.95633e-09
8.43925e-09
-0.00110645
-5.96527e-09
-6.5146e-09
0.00110644
-0.00110446
-1.23243e-06
-9.30182e-09
3.13329e-09
0.00110448
-2.79457e-07
1.23381e-06
2.76731e-07
9.22352e-07
-2.68752e-07
-9.21864e-07
2.63997e-07
-0.00110411
-1.22707e-06
-9.79471e-09
2.52795e-09
0.00110413
-2.79682e-07
1.22874e-06
2.76656e-07
9.22704e-07
-2.71259e-07
-9.21197e-07
2.66928e-07
-0.000270783
1.26078e-06
1.22692e-06
-2.28427e-07
-2.33949e-07
0.000268757
3.07188e-08
3.30011e-08
-0.00110646
-1.55966e-08
-1.98386e-08
0.00110643
-0.00110447
-1.2172e-06
-2.70517e-08
-3.38707e-09
0.00110449
-2.57546e-07
1.22032e-06
2.58981e-07
9.0863e-07
-2.34942e-07
-9.04603e-07
2.30193e-07
-0.00110413
-1.20904e-06
-3.32291e-08
1.91129e-11
0.00110416
-2.57388e-07
1.2123e-06
2.56338e-07
9.06082e-07
-2.34667e-07
-9.01215e-07
2.33469e-07
-0.000270793
1.24789e-06
1.21115e-06
-2.06737e-07
-2.12597e-07
0.000268753
9.14351e-07
9.22258e-07
-0.00110635
-7.55634e-07
-7.44079e-07
0.00110602
-0.00110473
-1.10324e-06
-9.16596e-07
-3.99845e-07
0.00110512
-1.39613e-07
1.3682e-06
3.24041e-07
1.02122e-06
-8.00889e-08
-7.61473e-07
3.00628e-07
-0.0011044
-1.09459e-06
-9.28014e-07
-4.12074e-07
0.00110481
-1.39084e-07
1.36332e-06
3.27329e-07
1.01824e-06
-8.61235e-08
-7.5835e-07
3.03459e-07
-0.00027088
1.13669e-06
1.09478e-06
-9.16514e-08
-9.48024e-08
0.000268835
5.12139e-06
5.11467e-06
-0.00109227
-1.08086e-05
-1.07092e-05
0.000265119
0.000268519
0.000267618
0.000267618
4.14417e-06
6.45455e-06
6.73876e-06
4.14812e-06
6.45541e-06
6.74226e-06
-0.000273313
5.23512e-06
-5.11172e-06
5.87835e-06
-3.3142e-06
0.000270625
-0.000273289
-5.11425e-06
5.24083e-06
-3.32271e-06
5.87554e-06
0.000270609
-0.00027136
-5.23248e-06
-5.24345e-06
5.82409e-06
5.81256e-06
0.000270199
-1.2807e-06
-1.24434e-06
0.000270795
-0.000268764
2.42677e-07
2.50445e-07
-1.28366e-06
6.11569e-10
4.92563e-09
0.00110411
-3.03881e-07
1.28573e-06
3.01534e-07
9.45733e-07
-3.06201e-07
3.00342e-07
-9.4765e-07
0.00110366
-9.88236e-10
-0.00110366
3.37463e-09
-1.27771e-06
2.98645e-07
-3.00791e-07
-9.40268e-07
2.98135e-07
-3.01836e-07
9.40843e-07
1.28624e-06
0.00110411
-3.90406e-10
-0.00110411
3.61751e-09
-1.28302e-06
3.01781e-07
-3.03487e-07
-9.46048e-07
3.00665e-07
-3.05319e-07
9.46448e-07
-2.43257e-07
-2.45421e-07
0.000268784
-1.24689e-06
0.000270824
-0.000268784
2.45274e-07
2.47956e-07
0.00110473
-1.27383e-09
-0.00110473
3.23511e-09
-1.24126e-06
2.96137e-07
-2.98179e-07
-9.43652e-07
3.01389e-07
-3.04994e-07
9.43762e-07
1.28066e-06
0.00110378
-1.16468e-09
-0.00110378
3.69505e-09
-1.27763e-06
3.01872e-07
-3.03569e-07
-9.42817e-07
3.0097e-07
-3.05172e-07
9.43859e-07
-1.0097e-09
3.09277e-09
0.00110357
-2.98139e-07
1.27504e-06
2.96193e-07
9.4092e-07
-3.02685e-07
2.98218e-07
-9.41747e-07
-1.74548e-09
-0.00110446
3.70002e-09
-1.24393e-06
2.93372e-07
-2.95321e-07
-9.40565e-07
2.98469e-07
9.41408e-07
-3.02009e-07
1.27514e-06
0.00110357
-1.78631e-09
-0.00110357
3.943e-09
-1.27246e-06
2.95778e-07
-2.98055e-07
-9.40221e-07
2.98651e-07
-3.0201e-07
9.41105e-07
-1.2415e-06
0.000270772
-0.000268743
2.42674e-07
2.50478e-07
-7.42711e-10
2.56657e-09
0.00110464
-2.95437e-07
1.24149e-06
2.93559e-07
9.41449e-07
-3.05771e-07
3.00884e-07
-9.41717e-07
-9.75416e-10
-0.00110411
3.05468e-09
-1.23823e-06
2.93587e-07
-2.9503e-07
-9.40535e-07
3.01133e-07
9.4096e-07
-3.04942e-07
1.24169e-06
0.00110464
-6.33087e-10
-0.00110464
3.39308e-09
-1.2385e-06
2.93669e-07
-2.95207e-07
-9.41022e-07
3.00998e-07
-3.05197e-07
9.4071e-07
-0.000268759
2.45154e-07
2.50525e-07
1.27812e-06
1.24155e-06
-2.39761e-07
-2.48145e-07
0.000268764
-1.28062e-06
-1.24443e-06
0.000270795
-0.000268763
2.42711e-07
2.50663e-07
4.22393e-09
0.00110367
-3.01155e-07
1.28028e-06
2.98214e-07
9.40906e-07
-3.02132e-07
-9.40703e-07
2.98071e-07
-1.28324e-06
-5.68808e-10
3.76743e-09
0.00110411
-3.03605e-07
1.28573e-06
3.01438e-07
9.46819e-07
-3.05506e-07
-9.46211e-07
3.0085e-07
0.00110366
-1.65928e-09
-0.00110366
3.90379e-09
-1.27783e-06
2.98964e-07
-3.00548e-07
-9.40065e-07
2.98183e-07
-3.02252e-07
9.41067e-07
1.2862e-06
0.00110411
-1.31697e-09
-0.00110411
3.0114e-09
-1.28302e-06
3.02079e-07
-3.03198e-07
-9.45983e-07
3.00945e-07
-3.05276e-07
9.46873e-07
-2.4263e-07
-2.44754e-07