/*--------------------------------*- C++ -*----------------------------------*\
| =========                 |                                                 |
| \\      /  F ield         | OpenFOAM: The Open Source CFD Toolbox           |
|  \\    /   O peration     | Version:  v2012                                 |
|   \\  /    A nd           | Website:  www.openfoam.com                      |
|    \\/     M anipulation  |                                                 |
\*---------------------------------------------------------------------------*/
FoamFile
{
    version     2.0;
    format      ascii;
    class       volVectorField;
    location    "50";
    object      U;
}
// * * * * * * * * * * * * * * * * * * * * * * * * * * * * * * * * * * * * * //

dimensions      [0 1 -1 0 0 0 0];


internalField   nonuniform List<vector> 
85864
(
(-8.08412e-07 -7.09224e-07 0.105112)
(9.89466e-07 -8.86153e-07 0.104857)
(4.44871e-05 4.45378e-05 0.104514)
(7.88667e-07 8.14517e-07 0.104856)
(7.05245e-07 8.6856e-07 0.104857)
(8.34533e-07 -1.14696e-06 0.104856)
(4.4626e-05 -4.47143e-05 0.104514)
(5.92322e-07 1.47856e-05 0.0885246)
(1.45093e-05 2.25818e-07 0.088523)
(1.85412e-05 -6.78463e-07 0.0989227)
(-6.37039e-07 5.45979e-07 0.105112)
(7.21155e-06 -3.98379e-06 0.0757841)
(9.526e-06 -2.08535e-05 0.0996955)
(3.87338e-06 7.6572e-06 0.0757429)
(7.10747e-06 3.48342e-06 0.0757461)
(8.80791e-06 7.37276e-06 0.094641)
(7.35195e-06 9.01642e-06 0.0946386)
(9.29443e-06 2.08751e-05 0.0996957)
(2.06737e-05 9.64713e-06 0.0996954)
(6.76409e-07 -2.11886e-07 0.105019)
(2.29954e-05 -7.0844e-07 0.103312)
(1.46119e-05 -4.51529e-07 0.0885322)
(1.83873e-05 1.52407e-07 0.0989224)
(7.53074e-07 -6.40945e-08 0.105019)
(2.06304e-05 -9.47697e-06 0.0996842)
(2.30914e-05 9.11175e-08 0.103312)
(7.07786e-06 -9.33689e-06 0.0946218)
(9.03542e-06 -6.69607e-06 0.0946387)
(4.49627e-06 -7.91117e-06 0.0757483)
(9.81534e-07 -1.49584e-05 0.0885261)
(-1.2196e-06 -1.40287e-05 0.0885829)
(-8.94664e-07 1.43594e-05 0.0931926)
(-1.6276e-06 6.11891e-06 0.0718704)
(-6.3417e-06 2.91377e-07 0.0719294)
(-1.44628e-05 -1.39846e-06 0.0885818)
(1.41471e-05 -9.77904e-07 0.0932001)
(-1.37619e-05 -2.99818e-08 0.093281)
(6.51033e-06 -1.9687e-06 0.0718514)
(-5.07257e-06 7.15084e-07 0.0825126)
(-1.82233e-05 -8.13179e-08 0.098977)
(1.79178e-05 -5.58573e-07 0.097598)
(5.72023e-06 -2.70248e-07 0.0848633)
(-1.89772e-05 -5.31484e-07 0.0976645)
(-4.72103e-06 4.57071e-07 0.0849025)
(6.05855e-06 -1.37802e-06 0.0824643)
(-7.15624e-06 3.98448e-06 0.0758529)
(-4.17247e-06 -6.90169e-06 0.0758042)
(-7.34096e-06 -4.47104e-06 0.0758092)
(-8.57814e-06 -2.25106e-05 0.0990112)
(1.2168e-05 2.72726e-05 0.102087)
(-9.48898e-06 -6.37447e-06 0.0947127)
(3.61544e-06 5.38912e-06 0.0875397)
(-4.9745e-06 -5.16633e-06 0.0876067)
(-1.16532e-05 -2.69991e-05 0.102129)
(8.38528e-06 2.22326e-05 0.098945)
(-2.27703e-05 -8.84034e-06 0.0990067)
(2.71409e-05 1.23004e-05 0.102086)
(-6.39506e-06 -9.42168e-06 0.0947106)
(5.16456e-06 3.73633e-06 0.0875346)
(-5.28847e-06 -4.94963e-06 0.0876024)
(-2.70144e-05 -1.15858e-05 0.102128)
(2.19156e-05 8.31958e-06 0.0989412)
(-7.5848e-06 -7.35719e-06 0.0912653)
(6.47737e-06 2.38928e-06 0.0725187)
(2.14463e-06 6.84564e-06 0.0725119)
(-8.11679e-06 -2.82193e-06 0.0725954)
(-2.97294e-06 -7.88289e-06 0.0725889)
(7.75531e-06 8.04186e-06 0.0911948)
(-5.30947e-06 -1.67534e-06 0.0720473)
(-1.40849e-05 1.29267e-06 0.0885927)
(1.33459e-05 7.2357e-07 0.0931653)
(-1.49163e-05 7.06003e-08 0.0932504)
(5.84412e-06 1.52925e-06 0.071967)
(-5.2768e-06 -1.79802e-06 0.0825287)
(-1.82406e-05 -6.82184e-07 0.0989765)
(5.44735e-06 4.61754e-07 0.0848625)
(1.81838e-05 -7.52468e-09 0.0975813)
(-4.93581e-06 -5.55997e-07 0.084902)
(-1.80264e-05 -4.01895e-07 0.0976497)
(5.84718e-06 1.24096e-06 0.0824762)
(-2.21484e-05 8.00884e-06 0.0990021)
(2.72282e-05 -1.26241e-05 0.102076)
(-6.35202e-06 8.95337e-06 0.0946981)
(5.38135e-06 -4.41782e-06 0.0875438)
(-4.72775e-06 3.97599e-06 0.0876136)
(-2.67747e-05 1.14181e-05 0.102119)
(2.23074e-05 -9.08898e-06 0.0989344)
(-7.82374e-06 2.20069e-05 0.0990065)
(1.2563e-05 -2.73912e-05 0.102086)
(-9.27454e-06 6.97673e-06 0.0947116)
(4.26915e-06 -5.65143e-06 0.0875414)
(-1.14772e-05 2.67636e-05 0.102128)
(-3.94136e-06 4.58016e-06 0.0876097)
(9.09668e-06 -2.25592e-05 0.0989392)
(-8.15359e-06 7.99253e-06 0.0912567)
(2.54085e-06 -7.41892e-06 0.0725295)
(7.18592e-06 -2.76073e-06 0.0725336)
(-2.1523e-06 7.00042e-06 0.0726018)
(-7.26296e-06 1.95528e-06 0.0726056)
(7.43e-06 -7.65186e-06 0.0911842)
(-3.43742e-06 6.41589e-06 0.0758089)
(-6.53621e-07 1.38471e-05 0.0885837)
(-4.85665e-07 2.08184e-07 0.105176)
(-2.38482e-05 -2.38292e-05 0.102806)
(5.20684e-05 2.40015e-05 0.103968)
(2.39932e-05 5.20742e-05 0.103968)
(-4.70876e-05 -4.69965e-05 0.104535)
(-5.25719e-05 -2.41147e-05 0.103993)
(-2.41174e-05 -5.2566e-05 0.103993)
(2.30104e-05 2.30556e-05 0.102762)
(-2.35916e-05 2.36603e-05 0.102804)
(2.4158e-05 -5.24378e-05 0.103966)
(5.23323e-05 -2.41018e-05 0.103968)
(-4.67126e-05 4.67103e-05 0.104534)
(-5.22694e-05 2.40277e-05 0.103993)
(-2.38642e-05 5.22333e-05 0.103991)
(2.33298e-05 -2.34176e-05 0.102761)
(-4.2043e-07 -3.80925e-07 0.105176)
(-2.43406e-06 6.58765e-05 0.104001)
(8.97963e-06 -7.03125e-05 0.103367)
(-9.95945e-06 1.92595e-05 0.0997679)
(4.07114e-07 -2.43185e-05 0.101822)
(-8.09276e-06 6.87252e-05 0.103404)
(-1.04827e-06 2.35009e-05 0.10188)
(2.79503e-06 -6.54465e-05 0.103967)
(-2.68784e-06 -6.59665e-05 0.104001)
(8.72135e-06 7.02224e-05 0.103367)
(-1.02531e-05 -1.92234e-05 0.0997678)
(3.84661e-08 2.41669e-05 0.101823)
(-1.39524e-06 -2.36161e-05 0.101881)
(-8.24322e-06 -6.85977e-05 0.103403)
(2.56742e-06 6.51785e-05 0.103967)
(-6.62426e-05 -2.46023e-06 0.104001)
(7.01866e-05 9.02501e-06 0.103367)
(-1.94322e-05 -9.98304e-06 0.0997686)
(2.38647e-05 2.9248e-07 0.101826)
(-2.40351e-05 -9.20615e-07 0.101884)
(-6.89046e-05 -7.96207e-06 0.103403)
(6.48717e-05 2.73449e-06 0.103967)
(-5.9426e-05 -7.2933e-07 0.104323)
(-2.26804e-05 -1.20799e-08 0.103341)
(2.33996e-05 -8.87284e-07 0.102927)
(5.50395e-05 -1.63672e-07 0.104426)
(-2.37505e-05 3.03254e-07 0.102965)
(-5.60601e-05 -1.66397e-07 0.104443)
(5.7561e-05 6.36133e-07 0.104298)
(-6.60389e-05 2.20129e-06 0.103999)
(7.0383e-05 -9.27307e-06 0.103364)
(-1.92722e-05 9.66168e-06 0.0997587)
(2.4218e-05 -3.29898e-07 0.101803)
(-2.34382e-05 8.82203e-07 0.101862)
(-6.87334e-05 7.66137e-06 0.103401)
(6.5329e-05 -2.94341e-06 0.103965)
(-5.92596e-05 4.85348e-07 0.104322)
(-2.25664e-05 -6.79616e-07 0.103341)
(5.5123e-05 -1.80707e-07 0.104426)
(2.37092e-05 3.32843e-07 0.102921)
(-5.60217e-05 -2.3094e-07 0.104443)
(-2.33116e-05 -6.28788e-07 0.10296)
(5.78569e-05 -9.06842e-07 0.104298)
(-8.21543e-07 1.1008e-06 0.104857)
(-4.45309e-05 -4.46399e-05 0.104515)
(-6.54135e-07 -6.33147e-07 0.105112)
(-6.74301e-07 1.01102e-06 0.104857)
(9.50921e-07 -7.12506e-07 0.104857)
(-4.44917e-05 -4.46372e-05 0.104515)
(-6.53149e-07 -7.36402e-07 0.105112)
(-7.63021e-07 8.91819e-07 0.104857)
(1.06825e-06 -9.17867e-07 0.104857)
(-4.45802e-05 -4.46327e-05 0.104515)
(-6.09115e-07 -6.89065e-07 0.105112)
(-6.96247e-07 8.14037e-07 0.104857)
(8.30781e-07 -7.44431e-07 0.104857)
(-4.45098e-05 -4.46162e-05 0.104515)
(-7.71179e-07 -7.32515e-07 0.105112)
(-6.90065e-07 9.54853e-07 0.104857)
(8.54801e-07 -6.36463e-07 0.104857)
(-4.45476e-05 -4.46125e-05 0.104515)
(-7.66685e-07 -6.84344e-07 0.105112)
(-7.18294e-07 1.12152e-06 0.104856)
(8.78409e-07 -6.72174e-07 0.104856)
(-4.43792e-05 -4.41952e-05 0.104514)
(-7.13088e-07 -6.36154e-07 0.105112)
(-7.93639e-07 1.06135e-06 0.104856)
(8.64184e-07 -7.28301e-07 0.104856)
(-4.45077e-05 -4.4401e-05 0.104513)
(-6.21123e-07 -5.77312e-07 0.105112)
(-7.14979e-07 9.0188e-07 0.104856)
(9.6798e-07 -8.66474e-07 0.104856)
(-4.46824e-05 -4.4587e-05 0.104514)
(-6.0308e-07 -5.60958e-07 0.105112)
(-7.5587e-07 9.85159e-07 0.104856)
(9.67757e-07 -8.09163e-07 0.104856)
(-4.4691e-05 -4.47235e-05 0.104514)
(-6.68021e-07 -6.50741e-07 0.105112)
(-6.88065e-07 8.71133e-07 0.104857)
(9.04766e-07 -7.01787e-07 0.104857)
(-4.44983e-05 -4.45358e-05 0.104514)
(-7.13217e-07 -7.48307e-07 0.105112)
(-8.23908e-07 1.0091e-06 0.104857)
(8.93516e-07 -6.89073e-07 0.104857)
(-4.4586e-05 -4.45745e-05 0.104513)
(-7.57553e-07 -7.17327e-07 0.105112)
(-7.56153e-07 1.02268e-06 0.104857)
(1.01655e-06 -7.80155e-07 0.104857)
(-4.45293e-05 -4.47007e-05 0.104514)
(-6.8484e-07 -7.08725e-07 0.105112)
(-7.56992e-07 1.00708e-06 0.104857)
(1.14454e-06 -7.74355e-07 0.104857)
(-4.46577e-05 -4.46881e-05 0.104514)
(-6.62982e-07 -6.1899e-07 0.105112)
(-7.69736e-07 1.09394e-06 0.104857)
(1.06788e-06 -6.58961e-07 0.104857)
(-4.45542e-05 -4.44193e-05 0.104515)
(-6.94784e-07 -6.60756e-07 0.105112)
(-5.98358e-07 9.85552e-07 0.104857)
(9.23092e-07 -6.92944e-07 0.104857)
(-4.45249e-05 -4.46048e-05 0.104515)
(-5.96886e-07 -7.31256e-07 0.105112)
(-7.85987e-07 8.31712e-07 0.104857)
(1.00828e-06 -7.58284e-07 0.104857)
(-4.45547e-05 -4.4652e-05 0.104514)
(-5.58371e-07 -7.10044e-07 0.105112)
(-6.65573e-07 7.8764e-07 0.104857)
(1.02808e-06 -8.08147e-07 0.104857)
(-4.45346e-05 -4.46317e-05 0.104515)
(-6.82563e-07 -6.93897e-07 0.105112)
(-6.59942e-07 9.8149e-07 0.104857)
(9.45641e-07 -6.60176e-07 0.104857)
(-4.4716e-05 -4.47e-05 0.104515)
(-6.91511e-07 -6.68488e-07 0.105112)
(-8.19952e-07 1.03192e-06 0.104857)
(9.8893e-07 -7.28307e-07 0.104857)
(-4.46222e-05 -4.46406e-05 0.104515)
(-6.53395e-07 -7.14545e-07 0.105112)
(-8.00138e-07 9.74559e-07 0.104857)
(1.09318e-06 -8.53906e-07 0.104857)
(-4.46614e-05 -4.46055e-05 0.104515)
(-7.53426e-07 -7.10012e-07 0.105112)
(-7.73534e-07 1.14536e-06 0.104857)
(9.74526e-07 -7.08445e-07 0.104857)
(-4.45228e-05 -4.4681e-05 0.104515)
(-6.29168e-07 -7.07117e-07 0.105112)
(-7.50407e-07 9.6663e-07 0.104857)
(1.08302e-06 -6.99535e-07 0.104857)
(-4.45693e-05 -4.46021e-05 0.104515)
(-6.82053e-07 -7.08436e-07 0.105112)
(-8.03995e-07 8.08886e-07 0.104857)
(1.03977e-06 -7.44353e-07 0.104857)
(-4.45569e-05 -4.44894e-05 0.104515)
(-7.6123e-07 -6.71703e-07 0.105112)
(-8.46763e-07 1.00348e-06 0.104857)
(8.46471e-07 -7.16694e-07 0.104857)
(-4.47219e-05 -4.46609e-05 0.104515)
(-6.13681e-07 -6.69737e-07 0.105112)
(-7.42482e-07 1.02135e-06 0.104857)
(9.41446e-07 -6.4349e-07 0.104857)
(-4.46435e-05 -4.46794e-05 0.104514)
(-6.07353e-07 -6.94333e-07 0.105112)
(-6.31015e-07 9.56139e-07 0.104857)
(1.06524e-06 -7.45334e-07 0.104857)
(-4.45804e-05 -4.45793e-05 0.104514)
(-6.31782e-07 -6.61472e-07 0.105112)
(-6.78164e-07 9.75174e-07 0.104857)
(1.04352e-06 -7.64638e-07 0.104857)
(-4.45102e-05 -4.44598e-05 0.104514)
(-6.66666e-07 -7.12387e-07 0.105112)
(-7.70609e-07 1.09298e-06 0.104857)
(9.67588e-07 -8.26112e-07 0.104857)
(-4.45316e-05 -4.4684e-05 0.104515)
(-7.64571e-07 -7.22124e-07 0.105112)
(-7.93905e-07 1.03145e-06 0.104857)
(9.94131e-07 -8.30317e-07 0.104857)
(-4.46856e-05 -4.46785e-05 0.104515)
(-7.59791e-07 -7.35278e-07 0.105112)
(-7.54061e-07 9.61438e-07 0.104857)
(8.59392e-07 -7.21024e-07 0.104857)
(-4.46654e-05 -4.46071e-05 0.104515)
(-6.17089e-07 -5.64622e-07 0.105112)
(-6.69824e-07 8.80108e-07 0.104857)
(8.92191e-07 -7.12071e-07 0.104857)
(-4.45886e-05 -4.45784e-05 0.104515)
(-6.19677e-07 -6.71536e-07 0.105112)
(-7.41909e-07 9.09636e-07 0.104857)
(9.51834e-07 -7.15157e-07 0.104857)
(-4.45999e-05 -4.45749e-05 0.104515)
(-7.63565e-07 -7.73855e-07 0.105112)
(-8.43268e-07 1.00427e-06 0.104857)
(1.02655e-06 -8.31304e-07 0.104857)
(-4.46313e-05 -4.45029e-05 0.104515)
(-7.43136e-07 -7.28918e-07 0.105112)
(-8.21406e-07 9.73835e-07 0.104857)
(9.26148e-07 -7.18554e-07 0.104857)
(-4.46247e-05 -4.45156e-05 0.104515)
(-6.31666e-07 -6.65009e-07 0.105112)
(-7.64398e-07 1.03797e-06 0.104857)
(1.02062e-06 -7.77937e-07 0.104857)
(-4.44812e-05 -4.44388e-05 0.104515)
(-4.97974e-07 -6.79835e-07 0.105112)
(-5.79657e-07 8.24836e-07 0.104857)
(1.09271e-06 -8.59441e-07 0.104857)
(-4.45454e-05 -4.46124e-05 0.104515)
(-6.48323e-07 -6.34222e-07 0.105112)
(-6.36502e-07 9.15252e-07 0.104857)
(8.71527e-07 -7.19486e-07 0.104857)
(-4.45321e-05 -4.4563e-05 0.104515)
(-8.45569e-07 -7.29597e-07 0.105113)
(-8.05375e-07 1.14872e-06 0.104857)
(9.20137e-07 -7.04372e-07 0.104857)
(-4.4336e-05 -4.42629e-05 0.104514)
(-7.65873e-07 -7.47658e-07 0.105113)
(-7.72332e-07 9.02789e-07 0.104857)
(9.12687e-07 -7.37784e-07 0.104857)
(-4.43384e-05 -4.41907e-05 0.104514)
(-5.73592e-07 -6.7997e-07 0.105113)
(-7.34757e-07 8.81298e-07 0.104857)
(9.33163e-07 -7.49628e-07 0.104857)
(-4.41559e-05 -4.40884e-05 0.104514)
(-6.64089e-07 -7.25451e-07 0.105114)
(-6.53224e-07 8.37238e-07 0.104858)
(1.04136e-06 -7.10425e-07 0.104857)
(-4.40861e-05 -4.4047e-05 0.104514)
(-7.80531e-07 -7.29153e-07 0.105114)
(-6.66034e-07 8.77991e-07 0.104858)
(8.6243e-07 -4.74776e-07 0.104858)
(-4.39505e-05 -4.38267e-05 0.104514)
(-8.03996e-07 -7.91863e-07 0.105115)
(-4.52044e-07 9.20539e-07 0.104858)
(8.64196e-07 -3.68996e-07 0.104857)
(-4.33474e-05 -4.3363e-05 0.104513)
(-1.03299e-06 -1.0267e-06 0.105116)
(-2.0367e-07 7.88943e-07 0.104857)
(9.1757e-07 -3.42026e-07 0.104857)
(-4.18729e-05 -4.19165e-05 0.104514)
(-1.18681e-06 -1.26087e-06 0.105119)
(9.1559e-08 1.05495e-06 0.104857)
(9.83146e-07 1.35201e-07 0.104857)
(-3.83237e-05 -3.83689e-05 0.104515)
(-1.62044e-06 -1.44309e-06 0.105122)
(1.04287e-06 1.56464e-06 0.104856)
(1.44324e-06 1.04355e-06 0.104855)
(-2.9858e-05 -3.00214e-05 0.104519)
(-6.80305e-06 -6.64893e-06 0.105121)
(7.15377e-06 2.72853e-07 0.10485)
(1.33165e-07 7.26052e-06 0.10485)
(-1.08353e-05 -1.09245e-05 0.10453)
(-4.80324e-05 -4.78814e-05 0.105059)
(5.42067e-05 -3.30085e-05 0.104821)
(-3.32557e-05 5.42626e-05 0.104821)
(4.71127e-05 4.72499e-05 0.104526)
(-4.69489e-05 -4.69881e-05 0.104535)
(-1.0851e-06 9.33807e-07 0.104856)
(8.52099e-07 7.40411e-07 0.104857)
(-8.70558e-07 8.484e-07 0.104856)
(-4.46849e-05 4.47324e-05 0.104514)
(4.70005e-05 -4.68907e-05 0.104534)
(7.61093e-07 8.78813e-07 0.104857)
(7.77422e-07 -8.93554e-07 0.104856)
(-7.94386e-07 -9.30762e-07 0.104856)
(-6.66193e-07 8.75868e-07 0.104857)
(-6.95778e-07 -9.58619e-07 0.104857)
(-4.69277e-05 4.69514e-05 0.104534)
(-8.61808e-07 -8.40875e-07 0.104857)
(7.87888e-07 -7.46348e-07 0.104857)
(-8.48446e-07 -8.05405e-07 0.104857)
(4.69623e-05 4.68678e-05 0.104535)
(4.47167e-05 4.46139e-05 0.104515)
(-4.69701e-05 -4.69953e-05 0.104535)
(1.04817e-06 7.99848e-07 0.104857)
(-1.00788e-06 8.31654e-07 0.104856)
(9.30431e-07 7.21333e-07 0.104856)
(-8.58887e-07 7.60473e-07 0.104856)
(-4.45301e-05 4.45846e-05 0.104514)
(4.69487e-05 -4.70607e-05 0.104534)
(7.88815e-07 1.03785e-06 0.104857)
(7.85152e-07 -9.84915e-07 0.104856)
(7.829e-07 7.88235e-07 0.104857)
(8.11518e-07 -9.37139e-07 0.104856)
(-6.89605e-07 -1.05026e-06 0.104857)
(-7.82376e-07 7.41171e-07 0.104857)
(-8.07492e-07 -9.95707e-07 0.104857)
(4.44921e-05 -4.45593e-05 0.104514)
(-4.70025e-05 4.6931e-05 0.104534)
(-9.60554e-07 -8.75014e-07 0.104857)
(8.73569e-07 -8.16082e-07 0.104857)
(-8.36929e-07 -8.38805e-07 0.104857)
(4.69507e-05 4.69061e-05 0.104535)
(4.45812e-05 4.45472e-05 0.104514)
(-4.6947e-05 -4.70309e-05 0.104535)
(1.05198e-06 7.27453e-07 0.104857)
(-9.65485e-07 7.04573e-07 0.104856)
(9.12165e-07 7.1768e-07 0.104857)
(-7.13753e-07 6.95657e-07 0.104857)
(-4.45675e-05 4.44207e-05 0.104514)
(4.71537e-05 -4.71523e-05 0.104535)
(7.96458e-07 8.82547e-07 0.104857)
(8.1313e-07 -1.12144e-06 0.104856)
(8.68714e-07 7.99855e-07 0.104857)
(7.30454e-07 -8.17412e-07 0.104857)
(-8.13902e-07 -1.08089e-06 0.104857)
(-7.04714e-07 6.41874e-07 0.104857)
(-7.61718e-07 -9.65881e-07 0.104857)
(4.45405e-05 -4.47617e-05 0.104514)
(-4.69198e-05 4.67134e-05 0.104535)
(-9.3388e-07 -8.51891e-07 0.104857)
(7.6028e-07 -8.43592e-07 0.104857)
(-8.45219e-07 -7.5625e-07 0.104857)
(4.70391e-05 4.69377e-05 0.104535)
(4.4674e-05 4.45376e-05 0.104515)
(-4.71944e-05 -4.712e-05 0.104535)
(1.06236e-06 8.11017e-07 0.104857)
(-9.03903e-07 7.05613e-07 0.104857)
(8.20807e-07 6.74742e-07 0.104857)
(-8.15988e-07 6.39419e-07 0.104856)
(-4.44196e-05 4.43623e-05 0.104514)
(4.70455e-05 -4.71662e-05 0.104534)
(8.84131e-07 9.61113e-07 0.104857)
(7.06224e-07 -8.7608e-07 0.104857)
(6.56789e-07 7.88201e-07 0.104857)
(6.22711e-07 -6.66263e-07 0.104857)
(-7.73712e-07 -1.05135e-06 0.104857)
(-7.41932e-07 7.30218e-07 0.104857)
(-7.22195e-07 -9.48429e-07 0.104857)
(4.44151e-05 -4.46589e-05 0.104514)
(-4.71939e-05 4.71082e-05 0.104534)
(-9.74653e-07 -7.32908e-07 0.104857)
(6.42513e-07 -6.40667e-07 0.104857)
(-9.38976e-07 -7.14404e-07 0.104857)
(4.6916e-05 4.68893e-05 0.104534)
(4.4478e-05 4.45302e-05 0.104515)
(-4.71238e-05 -4.69857e-05 0.104534)
(9.39895e-07 7.00394e-07 0.104857)
(-1.02778e-06 6.79779e-07 0.104856)
(7.51152e-07 6.76554e-07 0.104856)
(-9.35089e-07 8.18554e-07 0.104856)
(-4.45434e-05 4.43908e-05 0.104514)
(4.70404e-05 -4.69777e-05 0.104534)
(6.47998e-07 9.25122e-07 0.104857)
(6.31809e-07 -8.67451e-07 0.104856)
(6.07071e-07 8.02084e-07 0.104856)
(6.43437e-07 -7.54876e-07 0.104856)
(-7.35311e-07 -9.81978e-07 0.104857)
(-6.53603e-07 9.75527e-07 0.104856)
(-6.81154e-07 -7.16684e-07 0.104856)
(4.42514e-05 -4.44405e-05 0.104514)
(-4.71683e-05 4.70666e-05 0.104534)
(-9.98607e-07 -7.47259e-07 0.104857)
(7.34397e-07 -6.91152e-07 0.104856)
(-7.7213e-07 -5.58517e-07 0.104856)
(4.70392e-05 4.72099e-05 0.104534)
(4.44435e-05 4.4502e-05 0.104514)
(-4.69743e-05 -4.70016e-05 0.104534)
(9.06737e-07 7.24979e-07 0.104856)
(-1.09491e-06 8.71027e-07 0.104856)
(8.68782e-07 7.31749e-07 0.104856)
(-9.84723e-07 8.12602e-07 0.104856)
(-4.46202e-05 4.46503e-05 0.104514)
(4.69075e-05 -4.69238e-05 0.104534)
(6.31343e-07 9.5666e-07 0.104856)
(6.5771e-07 -8.92298e-07 0.104856)
(6.99656e-07 9.52376e-07 0.104856)
(6.69477e-07 -7.429e-07 0.104856)
(-7.06756e-07 -7.55206e-07 0.104856)
(-8.35652e-07 9.40861e-07 0.104856)
(-8.15175e-07 -7.10976e-07 0.104856)
(4.42821e-05 -4.44907e-05 0.104514)
(-4.70821e-05 4.70123e-05 0.104534)
(-8.6384e-07 -5.51342e-07 0.104856)
(6.87831e-07 -7.23542e-07 0.104856)
(-8.11853e-07 -6.34618e-07 0.104856)
(4.69427e-05 4.71099e-05 0.104533)
(4.46616e-05 4.46025e-05 0.104514)
(-4.70123e-05 -4.68653e-05 0.104533)
(1.0588e-06 7.50296e-07 0.104856)
(-1.14202e-06 8.04149e-07 0.104856)
(8.78675e-07 8.15189e-07 0.104856)
(-7.8035e-07 7.45443e-07 0.104856)
(-4.47293e-05 4.46697e-05 0.104514)
(4.71025e-05 -4.70492e-05 0.104534)
(7.17888e-07 1.14031e-06 0.104856)
(7.01023e-07 -9.38432e-07 0.104856)
(7.3022e-07 9.27798e-07 0.104856)
(7.09172e-07 -9.05402e-07 0.104856)
(-8.04898e-07 -8.42426e-07 0.104856)
(-7.1687e-07 7.46902e-07 0.104856)
(-8.27052e-07 -9.03273e-07 0.104856)
(4.43952e-05 -4.45395e-05 0.104514)
(-4.70374e-05 4.69511e-05 0.104534)
(-9.47176e-07 -6.939e-07 0.104856)
(7.96109e-07 -8.32227e-07 0.104856)
(-9.0666e-07 -7.73046e-07 0.104856)
(4.68447e-05 4.69543e-05 0.104534)
(4.45357e-05 4.46531e-05 0.104513)
(-4.69215e-05 -4.67621e-05 0.104534)
(1.06656e-06 8.76029e-07 0.104856)
(-9.11815e-07 7.77195e-07 0.104856)
(9.67984e-07 9.08867e-07 0.104856)
(-7.39893e-07 8.15942e-07 0.104856)
(-4.44824e-05 4.45076e-05 0.104514)
(4.69965e-05 -4.69423e-05 0.104534)
(7.77071e-07 1.11361e-06 0.104856)
(7.41791e-07 -1.07243e-06 0.104856)
(8.04997e-07 9.43677e-07 0.104856)
(7.9538e-07 -9.02608e-07 0.104856)
(-8.74892e-07 -1.03121e-06 0.104856)
(-7.38714e-07 8.06148e-07 0.104856)
(-8.68477e-07 -1.02904e-06 0.104856)
(4.45681e-05 -4.47407e-05 0.104514)
(-4.70433e-05 4.69418e-05 0.104534)
(-9.95022e-07 -8.26718e-07 0.104856)
(8.2805e-07 -8.48107e-07 0.104856)
(-9.0092e-07 -8.219e-07 0.104856)
(4.68344e-05 4.68324e-05 0.104534)
(4.46346e-05 4.47385e-05 0.104513)
(-4.70296e-05 -4.70085e-05 0.104534)
(1.09454e-06 9.2567e-07 0.104856)
(-9.19262e-07 8.58659e-07 0.104856)
(8.24744e-07 7.92519e-07 0.104856)
(-7.34824e-07 8.05216e-07 0.104856)
(-4.44897e-05 4.45013e-05 0.104514)
(4.72085e-05 -4.70954e-05 0.104534)
(8.22694e-07 1.08084e-06 0.104856)
(8.00963e-07 -1.01644e-06 0.104856)
(7.06451e-07 8.0606e-07 0.104856)
(8.10614e-07 -8.65081e-07 0.104856)
(-8.35873e-07 -1.10171e-06 0.104856)
(-6.88187e-07 7.42575e-07 0.104856)
(-7.53287e-07 -9.50462e-07 0.104856)
(4.45932e-05 -4.47502e-05 0.104514)
(-4.70029e-05 4.71498e-05 0.104534)
(-9.58866e-07 -8.30351e-07 0.104856)
(7.8442e-07 -7.39103e-07 0.104856)
(-8.26788e-07 -7.94486e-07 0.104856)
(4.70243e-05 4.69865e-05 0.104534)
(4.46046e-05 4.45608e-05 0.104514)
(-4.69489e-05 -4.69989e-05 0.104534)
(9.72929e-07 7.90335e-07 0.104856)
(-9.01206e-07 8.05576e-07 0.104856)
(7.80378e-07 6.93999e-07 0.104856)
(-9.80996e-07 7.98892e-07 0.104856)
(-4.44311e-05 4.44808e-05 0.104514)
(4.68391e-05 -4.69419e-05 0.104535)
(7.90534e-07 9.52168e-07 0.104857)
(8.08283e-07 -9.86012e-07 0.104856)
(7.05469e-07 7.32431e-07 0.104857)
(7.49155e-07 -7.86896e-07 0.104856)
(-8.11853e-07 -1.07098e-06 0.104856)
(-8.26812e-07 8.24292e-07 0.104857)
(-8.46143e-07 -9.30476e-07 0.104856)
(4.46419e-05 -4.46109e-05 0.104514)
(-4.71097e-05 4.72016e-05 0.104534)
(-9.51663e-07 -8.23068e-07 0.104856)
(6.61795e-07 -6.13357e-07 0.104856)
(-9.54885e-07 -8.90528e-07 0.104856)
(4.68482e-05 4.68772e-05 0.104533)
(4.45135e-05 4.44097e-05 0.104514)
(-4.71122e-05 -4.70447e-05 0.104534)
(9.43952e-07 7.23573e-07 0.104856)
(-1.17184e-06 8.40439e-07 0.104856)
(7.57661e-07 7.2262e-07 0.104856)
(-1.03326e-06 8.07836e-07 0.104856)
(-4.46988e-05 4.45744e-05 0.104514)
(4.6867e-05 -4.69355e-05 0.104535)
(7.3397e-07 8.91108e-07 0.104857)
(7.91721e-07 -9.84126e-07 0.104856)
(7.04026e-07 7.4313e-07 0.104857)
(8.54731e-07 -9.44427e-07 0.104856)
(-8.58819e-07 -9.93737e-07 0.104856)
(-7.9668e-07 8.92723e-07 0.104857)
(-8.65266e-07 -8.99176e-07 0.104856)
(4.4517e-05 -4.45335e-05 0.104514)
(-4.69484e-05 4.69942e-05 0.104534)
(-1.01356e-06 -9.04469e-07 0.104856)
(8.3147e-07 -7.81975e-07 0.104856)
(-7.7616e-07 -8.81892e-07 0.104856)
(4.70649e-05 4.69335e-05 0.104533)
(4.44034e-05 4.44399e-05 0.104514)
(-4.70993e-05 -4.70984e-05 0.104534)
(8.97149e-07 7.62206e-07 0.104856)
(-1.09522e-06 7.40745e-07 0.104856)
(7.63028e-07 7.34593e-07 0.104856)
(-8.61149e-07 7.73788e-07 0.104856)
(-4.46436e-05 4.45547e-05 0.104514)
(4.6941e-05 -4.69826e-05 0.104534)
(6.89385e-07 8.8448e-07 0.104857)
(8.62417e-07 -1.13494e-06 0.104856)
(6.78659e-07 7.12431e-07 0.104857)
(8.65252e-07 -1.03675e-06 0.104856)
(-8.51108e-07 -1.01695e-06 0.104856)
(-7.72734e-07 8.0224e-07 0.104857)
(-8.16321e-07 -9.22328e-07 0.104856)
(4.45894e-05 -4.46226e-05 0.104514)
(-4.68206e-05 4.69695e-05 0.104535)
(-8.55703e-07 -8.83246e-07 0.104856)
(9.70594e-07 -8.12232e-07 0.104857)
(-8.1285e-07 -8.65227e-07 0.104856)
(4.70313e-05 4.69862e-05 0.104534)
(4.45341e-05 4.44646e-05 0.104514)
(-4.68751e-05 -4.68069e-05 0.104535)
(9.64497e-07 8.30636e-07 0.104856)
(-1.03144e-06 7.88086e-07 0.104856)
(9.25916e-07 8.38361e-07 0.104857)
(-9.38245e-07 8.96974e-07 0.104856)
(-4.45489e-05 4.45068e-05 0.104514)
(4.6846e-05 -4.68362e-05 0.104535)
(7.43978e-07 9.33277e-07 0.104857)
(8.70557e-07 -1.14632e-06 0.104857)
(8.15902e-07 9.75429e-07 0.104857)
(8.59534e-07 -8.55981e-07 0.104857)
(-8.20291e-07 -9.62497e-07 0.104856)
(-8.08182e-07 9.55756e-07 0.104857)
(-7.80723e-07 -7.09199e-07 0.104857)
(4.47265e-05 -4.4647e-05 0.104515)
(-4.69136e-05 4.70236e-05 0.104535)
(-9.11372e-07 -8.22109e-07 0.104857)
(9.35913e-07 -6.71392e-07 0.104857)
(-7.70634e-07 -6.52524e-07 0.104857)
(4.69961e-05 4.71698e-05 0.104535)
(4.4682e-05 4.47288e-05 0.104515)
(-4.70943e-05 -4.68401e-05 0.104535)
(1.09405e-06 8.51834e-07 0.104857)
(-1.06288e-06 8.92464e-07 0.104857)
(8.79589e-07 7.66625e-07 0.104857)
(-7.16098e-07 8.12053e-07 0.104856)
(-4.4643e-05 4.46398e-05 0.104514)
(4.71797e-05 -4.69434e-05 0.104534)
(8.34223e-07 1.14716e-06 0.104857)
(8.58685e-07 -1.00168e-06 0.104857)
(6.63185e-07 9.02961e-07 0.104857)
(6.88722e-07 -7.94367e-07 0.104856)
(-7.61281e-07 -8.09999e-07 0.104857)
(-5.6664e-07 8.45689e-07 0.104857)
(-7.5476e-07 -8.94076e-07 0.104857)
(4.45719e-05 -4.45643e-05 0.104515)
(-4.70889e-05 4.70854e-05 0.104535)
(-8.61623e-07 -6.50555e-07 0.104857)
(7.80607e-07 -6.77093e-07 0.104857)
(-8.20409e-07 -7.6811e-07 0.104857)
(4.70434e-05 4.7011e-05 0.104535)
(4.44375e-05 4.46265e-05 0.104515)
(-4.69253e-05 -4.70519e-05 0.104534)
(1.07514e-06 8.33704e-07 0.104857)
(-8.5846e-07 8.42513e-07 0.104856)
(9.64336e-07 7.14681e-07 0.104856)
(-8.14801e-07 7.1919e-07 0.104856)
(-4.42677e-05 4.44535e-05 0.104514)
(4.69314e-05 -4.71078e-05 0.104534)
(6.87406e-07 1.05366e-06 0.104857)
(6.88945e-07 -9.46216e-07 0.104856)
(7.36801e-07 8.25774e-07 0.104857)
(7.94543e-07 -9.03786e-07 0.104856)
(-7.29779e-07 -1.00643e-06 0.104857)
(-7.53744e-07 7.00476e-07 0.104856)
(-7.7106e-07 -9.12897e-07 0.104856)
(4.44152e-05 -4.4501e-05 0.104514)
(-4.69405e-05 4.70515e-05 0.104535)
(-9.25722e-07 -7.93141e-07 0.104857)
(8.33937e-07 -7.57257e-07 0.104856)
(-8.77487e-07 -8.05765e-07 0.104856)
(4.70963e-05 4.70237e-05 0.104534)
(4.46876e-05 4.45028e-05 0.104514)
(-4.69218e-05 -4.70042e-05 0.104534)
(1.14643e-06 7.1873e-07 0.104856)
(-9.64758e-07 6.8549e-07 0.104856)
(9.60142e-07 7.30063e-07 0.104856)
(-6.94032e-07 6.86102e-07 0.104856)
(-4.45663e-05 4.4314e-05 0.104514)
(4.71911e-05 -4.71946e-05 0.104535)
(7.69492e-07 9.72411e-07 0.104857)
(8.48015e-07 -1.07641e-06 0.104856)
(8.15915e-07 7.69445e-07 0.104857)
(8.65705e-07 -9.37373e-07 0.104856)
(-7.88476e-07 -1.01046e-06 0.104857)
(-6.93142e-07 5.95127e-07 0.104857)
(-8.14369e-07 -9.39256e-07 0.104857)
(4.46295e-05 -4.45961e-05 0.104515)
(-4.68148e-05 4.68274e-05 0.104535)
(-8.97698e-07 -8.27e-07 0.104856)
(8.75099e-07 -8.23402e-07 0.104857)
(-7.21836e-07 -8.50287e-07 0.104857)
(4.71197e-05 4.7031e-05 0.104535)
(4.46667e-05 4.45273e-05 0.104514)
(-4.69901e-05 -4.70349e-05 0.104534)
(1.11929e-06 7.57219e-07 0.104856)
(-8.60563e-07 7.2467e-07 0.104856)
(8.93261e-07 7.05808e-07 0.104856)
(-8.23427e-07 8.0432e-07 0.104856)
(-4.43225e-05 4.4339e-05 0.104515)
(4.70484e-05 -4.68967e-05 0.104535)
(8.55949e-07 9.28998e-07 0.104857)
(8.69599e-07 -1.07374e-06 0.104857)
(7.35279e-07 8.06031e-07 0.104857)
(7.38974e-07 -8.45812e-07 0.104856)
(-7.63145e-07 -9.94699e-07 0.104857)
(-6.6985e-07 7.71864e-07 0.104856)
(-8.14192e-07 -8.9057e-07 0.104857)
(4.45525e-05 -4.46575e-05 0.104515)
(-4.7039e-05 4.70599e-05 0.104535)
(-8.05306e-07 -8.60259e-07 0.104857)
(8.21485e-07 -7.40199e-07 0.104857)
(-8.45893e-07 -8.15296e-07 0.104857)
(4.70399e-05 4.70868e-05 0.104535)
(4.45935e-05 4.45226e-05 0.104514)
(-4.71246e-05 -4.69762e-05 0.104534)
(9.85765e-07 7.4283e-07 0.104856)
(-1.00765e-06 8.37601e-07 0.104856)
(8.0646e-07 7.79403e-07 0.104856)
(-9.44518e-07 8.74465e-07 0.104856)
(-4.44393e-05 4.45441e-05 0.104515)
(4.68268e-05 -4.67938e-05 0.104535)
(7.58206e-07 9.73418e-07 0.104857)
(7.75011e-07 -9.54025e-07 0.104856)
(7.22661e-07 8.27884e-07 0.104857)
(7.62617e-07 -8.0338e-07 0.104856)
(-8.12057e-07 -9.97236e-07 0.104857)
(-7.8303e-07 8.8648e-07 0.104856)
(-7.75783e-07 -8.76194e-07 0.104857)
(4.4458e-05 -4.44648e-05 0.104515)
(-4.70206e-05 4.71345e-05 0.104535)
(-9.83681e-07 -8.29123e-07 0.104857)
(7.97441e-07 -6.79082e-07 0.104856)
(-8.93739e-07 -7.82694e-07 0.104857)
(4.70596e-05 4.70508e-05 0.104535)
(4.45052e-05 4.45989e-05 0.104514)
(-4.69927e-05 -4.69895e-05 0.104535)
(9.82839e-07 8.22116e-07 0.104856)
(-1.12514e-06 8.98605e-07 0.104856)
(8.38285e-07 7.46725e-07 0.104857)
(-8.6392e-07 7.25372e-07 0.104857)
(-4.46179e-05 4.45541e-05 0.104514)
(4.68576e-05 -4.69796e-05 0.104535)
(7.16339e-07 9.62918e-07 0.104857)
(7.88038e-07 -1.00817e-06 0.104856)
(8.14986e-07 7.56707e-07 0.104857)
(8.60012e-07 -9.72157e-07 0.104856)
(-7.78238e-07 -9.24733e-07 0.104857)
(-8.12822e-07 8.18561e-07 0.104857)
(-8.11397e-07 -8.9601e-07 0.104857)
(4.45526e-05 -4.45469e-05 0.104515)
(-4.68675e-05 4.69307e-05 0.104535)
(-9.56317e-07 -7.70765e-07 0.104857)
(9.36853e-07 -8.37968e-07 0.104857)
(-8.20325e-07 -7.94892e-07 0.104857)
(4.69842e-05 4.70727e-05 0.104535)
(4.45817e-05 4.45328e-05 0.104515)
(-4.71203e-05 -4.69607e-05 0.104535)
(9.97808e-07 7.94129e-07 0.104857)
(-1.00298e-06 7.86858e-07 0.104857)
(7.36966e-07 7.92191e-07 0.104857)
(-9.32757e-07 9.05967e-07 0.104857)
(-4.46205e-05 4.44944e-05 0.104514)
(4.70299e-05 -4.68496e-05 0.104535)
(8.02824e-07 8.9882e-07 0.104857)
(8.87724e-07 -1.12581e-06 0.104857)
(6.80847e-07 7.58622e-07 0.104857)
(8.16946e-07 -8.69913e-07 0.104857)
(-8.49776e-07 -1.01872e-06 0.104857)
(-8.17323e-07 9.47002e-07 0.104857)
(-7.97654e-07 -8.92975e-07 0.104857)
(4.46935e-05 -4.47114e-05 0.104515)
(-4.69048e-05 4.70422e-05 0.104535)
(-8.88117e-07 -8.01481e-07 0.104857)
(8.11412e-07 -7.41268e-07 0.104857)
(-7.74086e-07 -8.36752e-07 0.104857)
(4.7169e-05 4.70595e-05 0.104535)
(4.44309e-05 4.4546e-05 0.104515)
(-4.70709e-05 -4.70059e-05 0.104535)
(9.06636e-07 7.86356e-07 0.104857)
(-1.12284e-06 9.28476e-07 0.104857)
(8.71963e-07 7.39841e-07 0.104857)
(-8.67277e-07 7.65868e-07 0.104857)
(-4.46441e-05 4.47849e-05 0.104515)
(4.70075e-05 -4.70326e-05 0.104535)
(6.55658e-07 9.35019e-07 0.104857)
(7.96323e-07 -1.01289e-06 0.104857)
(6.76714e-07 7.89815e-07 0.104857)
(8.09792e-07 -9.20076e-07 0.104856)
(-7.49847e-07 -9.54379e-07 0.104857)
(-7.3592e-07 8.71047e-07 0.104857)
(-7.04767e-07 -8.53292e-07 0.104857)
(4.46133e-05 -4.45368e-05 0.104515)
(-4.69021e-05 4.69836e-05 0.104534)
(-8.50677e-07 -8.44578e-07 0.104857)
(9.11789e-07 -7.04903e-07 0.104857)
(-7.74282e-07 -7.89799e-07 0.104857)
(4.71341e-05 4.71273e-05 0.104535)
(4.45346e-05 4.45286e-05 0.104515)
(-4.68766e-05 -4.69423e-05 0.104535)
(1.0919e-06 7.69757e-07 0.104857)
(-9.90537e-07 7.22783e-07 0.104857)
(9.33229e-07 7.03257e-07 0.104857)
(-8.44927e-07 6.5958e-07 0.104856)
(-4.46001e-05 4.44561e-05 0.104515)
(4.68354e-05 -4.71842e-05 0.104535)
(7.70809e-07 9.65354e-07 0.104857)
(8.12464e-07 -1.04486e-06 0.104856)
(7.8756e-07 8.4122e-07 0.104857)
(7.90052e-07 -8.75786e-07 0.104856)
(-7.6605e-07 -9.45252e-07 0.104857)
(-7.97438e-07 6.4229e-07 0.104857)
(-7.90785e-07 -7.75262e-07 0.104856)
(4.46388e-05 -4.46541e-05 0.104514)
(-4.69897e-05 4.69996e-05 0.104534)
(-8.65135e-07 -7.95492e-07 0.104857)
(8.96809e-07 -7.17474e-07 0.104857)
(-7.933e-07 -7.27207e-07 0.104857)
(4.70868e-05 4.71761e-05 0.104535)
(4.4627e-05 4.4533e-05 0.104515)
(-4.70134e-05 -4.68761e-05 0.104534)
(1.06417e-06 7.31245e-07 0.104857)