/*--------------------------------*- C++ -*----------------------------------*\
| =========                 |                                                 |
| \\      /  F ield         | OpenFOAM: The Open Source CFD Toolbox           |
|  \\    /   O peration     | Version:  v2012                                 |
|   \\  /    A nd           | Website:  www.openfoam.com                      |
|    \\/     M anipulation  |                                                 |
\*---------------------------------------------------------------------------*/
FoamFile
{
    version     2.0;
    format      ascii;
    class       volScalarField;
    location    "375";
    object      epsilon;
}
// * * * * * * * * * * * * * * * * * * * * * * * * * * * * * * * * * * * * * //

dimensions      [0 2 -3 0 0 0 0];


internalField   nonuniform List<scalar> 
85864
(
4.95567e-07
4.9733e-07
4.9733e-07
4.99575e-07
4.45573e-07
4.53735e-07
4.53737e-07
4.6371e-07
4.03752e-07
4.18513e-07
4.18517e-07
4.39411e-07
3.68363e-07
3.88552e-07
3.88558e-07
4.17667e-07
3.38015e-07
3.62102e-07
3.6211e-07
3.96081e-07
3.11646e-07
3.38273e-07
3.38281e-07
3.7458e-07
2.88473e-07
3.16638e-07
3.16646e-07
3.53709e-07
2.67923e-07
2.97021e-07
2.9703e-07
3.34147e-07
2.4958e-07
2.7937e-07
2.79379e-07
3.16483e-07
2.33137e-07
2.63679e-07
2.63688e-07
3.01162e-07
2.18366e-07
2.49955e-07
2.49964e-07
2.88492e-07
2.0509e-07
2.38199e-07
2.38208e-07
2.78696e-07
1.93172e-07
2.28411e-07
2.28422e-07
2.71879e-07
1.82498e-07
2.206e-07
2.20612e-07
2.68164e-07
1.72979e-07
2.14773e-07
2.14786e-07
2.67643e-07
1.64541e-07
2.10937e-07
2.10953e-07
2.70493e-07
1.57122e-07
2.09106e-07
2.09125e-07
2.76697e-07
1.50668e-07
2.09295e-07
2.09318e-07
2.86284e-07
1.45137e-07
2.1155e-07
2.11577e-07
2.99231e-07
1.40492e-07
2.15886e-07
2.15917e-07
3.15608e-07
1.36703e-07
2.22326e-07
2.2236e-07
3.35366e-07
1.33748e-07
2.30887e-07
2.30923e-07
3.58397e-07
1.31605e-07
2.41554e-07
2.41594e-07
3.84535e-07
1.30259e-07
2.54306e-07
2.54351e-07
4.13533e-07
1.29696e-07
2.69101e-07
2.6915e-07
4.45043e-07
1.29921e-07
2.85871e-07
2.85923e-07
4.78693e-07
1.3091e-07
3.04531e-07
3.04587e-07
5.14028e-07
1.32667e-07
3.2498e-07
3.25049e-07
5.50612e-07
1.35187e-07
3.47082e-07
3.47159e-07
5.8802e-07
1.38478e-07
3.70731e-07
3.70796e-07
6.25804e-07
1.42543e-07
3.95752e-07
3.95826e-07
6.63573e-07
1.47379e-07
4.22002e-07
4.22095e-07
7.01017e-07
1.52991e-07
4.49321e-07
4.49385e-07
7.37893e-07
1.59413e-07
4.77533e-07
4.77659e-07
7.7395e-07
1.66589e-07
5.06381e-07
5.06433e-07
8.08955e-07
1.74585e-07
5.3599e-07
5.36118e-07
8.42958e-07
1.83409e-07
5.65572e-07
5.65646e-07
8.75776e-07
1.9289e-07
5.95855e-07
5.95924e-07
9.07373e-07
2.03389e-07
6.25564e-07
6.25885e-07
9.37692e-07
2.14362e-07
6.55795e-07
6.55444e-07
9.67224e-07
2.26294e-07
6.84919e-07
6.85674e-07
9.95003e-07
2.38893e-07
7.14575e-07
7.14095e-07
1.02157e-06
2.52133e-07
7.42966e-07
7.43231e-07
1.04764e-06
2.6604e-07
7.70762e-07
7.71205e-07
1.07232e-06
2.80494e-07
7.98173e-07
7.97959e-07
1.09522e-06
2.95511e-07
8.24445e-07
8.24705e-07
1.11792e-06
3.11016e-07
8.4995e-07
8.50004e-07
1.13931e-06
5.06417e-07
5.05584e-07
5.05582e-07
5.06417e-07
5.05583e-07
5.05582e-07
5.09649e-07
5.09649e-07
5.09649e-07
5.09649e-07
5.05584e-07
5.05584e-07
5.06418e-07
5.05584e-07
5.05583e-07
5.06418e-07
4.99575e-07
4.67237e-07
4.97331e-07
4.97335e-07
4.63713e-07
4.63721e-07
4.99575e-07
4.67235e-07
4.97335e-07
4.97336e-07
4.63718e-07
4.63724e-07
4.97332e-07
4.63709e-07
4.63714e-07
4.99575e-07
4.67241e-07
4.97334e-07
4.6371e-07
4.63719e-07
4.6724e-07
4.63709e-07
4.41426e-07
4.5374e-07
4.53748e-07
4.26738e-07
4.26747e-07
4.63708e-07
4.4142e-07
4.53744e-07
4.53751e-07
4.26739e-07
4.26751e-07
4.53741e-07
4.26729e-07
4.26741e-07
4.63711e-07
4.41431e-07
4.53744e-07
4.26734e-07
4.26741e-07
4.41429e-07
4.39407e-07
4.19283e-07
4.18522e-07
4.1853e-07
3.95676e-07
3.95682e-07
4.39405e-07
4.19275e-07
4.18522e-07
4.18535e-07
3.95672e-07
3.95689e-07
4.18525e-07
3.95663e-07
3.95679e-07
4.39413e-07
4.19289e-07
4.18523e-07
3.95669e-07
3.95673e-07
4.19287e-07
4.17662e-07
3.97645e-07
3.88566e-07
3.88571e-07
3.68461e-07
3.68466e-07
4.17656e-07
3.97636e-07
3.8856e-07
3.88578e-07
3.68452e-07
3.68473e-07
3.88569e-07
3.68444e-07
3.68464e-07
4.17669e-07
3.97651e-07
3.88562e-07
3.68452e-07
3.68454e-07
3.9765e-07
3.96076e-07
3.76085e-07
3.6212e-07
3.62124e-07
3.44033e-07
3.44036e-07
3.96069e-07
3.76076e-07
3.62109e-07
3.62131e-07
3.4402e-07
3.44043e-07
3.62123e-07
3.44013e-07
3.44036e-07
3.96082e-07
3.76091e-07
3.62111e-07
3.44022e-07
3.44021e-07
3.7609e-07
3.74575e-07
3.55111e-07
3.38293e-07
3.38295e-07
3.21875e-07
3.21876e-07
3.74568e-07
3.55102e-07
3.38279e-07
3.38303e-07
3.21858e-07
3.21884e-07
3.38296e-07
3.21853e-07
3.21877e-07
3.74582e-07
3.55117e-07
3.3828e-07
3.21862e-07
3.2186e-07
3.55116e-07
3.53704e-07
3.35394e-07
3.16659e-07
3.16661e-07
3.01763e-07
3.01764e-07
3.53697e-07
3.35386e-07
3.16643e-07
3.16668e-07
3.01745e-07
3.01771e-07
3.16662e-07
3.0174e-07
3.01765e-07
3.5371e-07
3.35401e-07
3.16644e-07
3.01749e-07
3.01746e-07
3.354e-07
3.34141e-07
3.17532e-07
2.97044e-07
2.97045e-07
2.83623e-07
2.83624e-07
3.34134e-07
3.17524e-07
2.97026e-07
2.97052e-07
2.83603e-07
2.83631e-07
2.97047e-07
2.83599e-07
2.83625e-07
3.34148e-07
3.1754e-07
2.97027e-07
2.83608e-07
2.83604e-07
3.17538e-07
3.16477e-07
3.01975e-07
2.79394e-07
2.79394e-07
2.67442e-07
2.67442e-07
3.16471e-07
3.01965e-07
2.79374e-07
2.79402e-07
2.6742e-07
2.67449e-07
2.79396e-07
2.67417e-07
2.67443e-07
3.16485e-07
3.01982e-07
2.79375e-07
2.67426e-07
2.67421e-07
3.01982e-07
3.01154e-07
2.8904e-07
2.63704e-07
2.63704e-07
2.53227e-07
2.53227e-07
3.01146e-07
2.89031e-07
2.63682e-07
2.63711e-07
2.53204e-07
2.53234e-07
2.63705e-07
2.532e-07
2.53227e-07
3.01162e-07
2.89048e-07
2.63683e-07
2.5321e-07
2.53205e-07
2.89046e-07
2.88486e-07
2.78953e-07
2.49981e-07
2.49981e-07
2.40981e-07
2.40981e-07
2.88479e-07
2.78937e-07
2.49959e-07
2.49989e-07
2.40957e-07
2.40988e-07
2.49982e-07
2.40952e-07
2.4098e-07
2.88494e-07
2.78958e-07
2.49959e-07
2.40962e-07
2.40957e-07
2.78957e-07
2.7869e-07
2.7183e-07
2.38227e-07
2.38228e-07
2.30702e-07
2.30702e-07
2.78679e-07
2.71819e-07
2.38203e-07
2.38235e-07
2.30677e-07
2.3071e-07
2.38228e-07
2.3067e-07
2.30701e-07
2.78697e-07
2.7184e-07
2.38204e-07
2.30681e-07
2.30677e-07
2.71839e-07
2.71869e-07
2.67865e-07
2.28441e-07
2.28444e-07
2.22399e-07
2.224e-07
2.7186e-07
2.6785e-07
2.28417e-07
2.28452e-07
2.22372e-07
2.22409e-07
2.28442e-07
2.22364e-07
2.22397e-07
2.71879e-07
2.67873e-07
2.28418e-07
2.22375e-07
2.22372e-07
2.67871e-07
2.68156e-07
2.66981e-07
2.20633e-07
2.20637e-07
2.16077e-07
2.1608e-07
2.68144e-07
2.66965e-07
2.20608e-07
2.20646e-07
2.16049e-07
2.16089e-07
2.20634e-07
2.16038e-07
2.16075e-07
2.68166e-07
2.66992e-07
2.20608e-07
2.1605e-07
2.16048e-07
2.66991e-07
2.67635e-07
2.69155e-07
2.1481e-07
2.14816e-07
2.11745e-07
2.11752e-07
2.67619e-07
2.69136e-07
2.14784e-07
2.14825e-07
2.11718e-07
2.11762e-07
2.1481e-07
2.11701e-07
2.11742e-07
2.67644e-07
2.69166e-07
2.14783e-07
2.11716e-07
2.11714e-07
2.69165e-07
2.70483e-07
2.74662e-07
2.10982e-07
2.10989e-07
2.09414e-07
2.09423e-07
2.70466e-07
2.74639e-07
2.10955e-07
2.10999e-07
2.09387e-07
2.09435e-07
2.10979e-07
2.09363e-07
2.09409e-07
2.70495e-07
2.74676e-07
2.10951e-07
2.09382e-07
2.0938e-07
2.74675e-07
2.76686e-07
2.83544e-07
2.09158e-07
2.09166e-07
2.09128e-07
2.09136e-07
2.76663e-07
2.83519e-07
2.0913e-07
2.09179e-07
2.091e-07
2.09153e-07
2.09152e-07
2.09071e-07
2.09121e-07
2.76697e-07
2.83561e-07
2.09124e-07
2.09092e-07
2.09092e-07
2.83561e-07
2.86271e-07
2.95812e-07
2.09354e-07
2.09363e-07
2.10851e-07
2.10857e-07
2.86243e-07
2.95784e-07
2.09326e-07
2.09381e-07
2.10821e-07
2.1088e-07
2.09348e-07
2.10784e-07
2.10841e-07
2.86284e-07
2.95833e-07
2.09318e-07
2.1081e-07
2.10811e-07
2.95829e-07
2.99215e-07
3.11496e-07
2.11616e-07
2.11626e-07
2.14675e-07
2.14684e-07
2.99185e-07
3.11464e-07
2.11588e-07
2.11649e-07
2.14644e-07
2.14709e-07
2.11608e-07
2.14599e-07
2.14663e-07
2.99236e-07
3.11523e-07
2.11578e-07
2.14629e-07
2.14632e-07
3.11515e-07
3.15591e-07
3.3056e-07
2.15961e-07
2.15974e-07
2.20594e-07
2.20616e-07
3.15556e-07
3.30523e-07
2.15932e-07
2.16e-07
2.20565e-07
2.20641e-07
2.1595e-07
2.20517e-07
2.20586e-07
3.15612e-07
3.30588e-07
2.15919e-07
2.20549e-07
2.20554e-07
3.3058e-07
3.35348e-07
3.52913e-07
2.22403e-07
2.22429e-07
2.28628e-07
2.28662e-07
3.35309e-07
3.52876e-07
2.22376e-07
2.22454e-07
2.28601e-07
2.28687e-07
2.22397e-07
2.28549e-07
2.28625e-07
3.3537e-07
3.52945e-07
2.22364e-07
2.28584e-07
2.28591e-07
3.5294e-07
3.58376e-07
3.78402e-07
2.30967e-07
2.31003e-07
2.38775e-07
2.38818e-07
3.58339e-07
3.78361e-07
2.30941e-07
2.31029e-07
2.38747e-07
2.38844e-07
2.30964e-07
2.38691e-07
2.38775e-07
3.58403e-07
3.78438e-07
2.3093e-07
2.38728e-07
2.38739e-07
3.78435e-07
3.8451e-07
4.06792e-07
2.41639e-07
2.41684e-07
2.51016e-07
2.51065e-07
3.84468e-07
4.0674e-07
2.41612e-07
2.41711e-07
2.50986e-07
2.51095e-07
2.4164e-07
2.50924e-07
2.5102e-07
3.84542e-07
4.06831e-07
2.41602e-07
2.50967e-07
2.50981e-07
4.0683e-07
4.13503e-07
4.37749e-07
2.544e-07
2.5445e-07
2.6531e-07
2.65371e-07
4.13449e-07
4.37711e-07
2.54371e-07
2.54481e-07
2.65277e-07
2.65401e-07
2.54403e-07
2.65216e-07
2.65318e-07
4.13536e-07
4.37805e-07
2.54365e-07
2.65261e-07
2.6528e-07
4.37796e-07
4.44996e-07
4.70917e-07
2.69197e-07
2.69259e-07
2.81604e-07
2.81668e-07
4.44962e-07
4.70865e-07
2.69166e-07
2.69292e-07
2.81566e-07
2.81699e-07
2.69207e-07
2.81498e-07
2.81613e-07
4.45048e-07
4.7097e-07
2.6917e-07
2.81546e-07
2.81574e-07
4.7097e-07
4.78647e-07
5.05848e-07
2.8598e-07
2.86043e-07
2.99807e-07
2.99875e-07
4.78593e-07
5.05792e-07
2.85944e-07
2.86076e-07
2.99763e-07
2.99913e-07
2.8599e-07
2.99692e-07
2.99818e-07
4.78684e-07
5.05924e-07
2.85951e-07
2.99749e-07
2.99776e-07
5.05908e-07
5.13972e-07
5.42135e-07
3.04649e-07
3.04716e-07
3.19828e-07
3.19899e-07
5.13916e-07
5.42062e-07
3.04607e-07
3.04752e-07
3.19778e-07
3.19942e-07
3.0466e-07
3.19703e-07
3.19838e-07
5.14038e-07
5.42197e-07
3.04617e-07
3.19767e-07
3.19791e-07
5.4218e-07
5.50562e-07
5.79296e-07
3.25105e-07
3.25177e-07
3.41542e-07
3.41615e-07
5.50499e-07
5.79218e-07
3.25056e-07
3.25224e-07
3.41483e-07
3.41657e-07
3.25119e-07
3.41407e-07
3.41565e-07
5.50642e-07
5.79349e-07
3.25071e-07
3.41472e-07
3.41511e-07
5.79376e-07
5.87948e-07
6.16937e-07
3.47217e-07
3.47289e-07
3.64837e-07
3.64904e-07
5.87871e-07
6.16846e-07
3.47159e-07
3.47344e-07
3.64769e-07
3.64945e-07
3.4724e-07
3.64683e-07
3.6485e-07
5.87996e-07
6.17003e-07
3.47185e-07
3.6475e-07
3.64788e-07
6.16997e-07
6.25757e-07
6.54578e-07
3.70879e-07
3.70947e-07
3.89522e-07
3.89603e-07
6.25651e-07
6.54561e-07
3.70813e-07
3.70989e-07
3.89444e-07
3.89649e-07
3.70899e-07
3.89372e-07
3.89552e-07
6.25779e-07
6.54695e-07
3.70835e-07
3.89447e-07
3.89481e-07
6.54689e-07
6.63486e-07
6.92091e-07
3.95921e-07
3.95975e-07
4.15498e-07
4.15578e-07
6.63426e-07
6.92031e-07
3.95845e-07
3.96027e-07
4.1541e-07
4.15624e-07
3.95935e-07
4.15341e-07
4.15523e-07
6.63562e-07
6.92154e-07
3.95863e-07
4.15415e-07
4.15444e-07
6.92141e-07
7.00952e-07
7.28966e-07
4.22167e-07
4.22239e-07
4.42571e-07
4.42655e-07
7.00925e-07
7.28868e-07
4.22081e-07
4.22303e-07
4.42473e-07
4.4269e-07
4.22202e-07
4.42413e-07
4.42603e-07
7.01048e-07
7.29028e-07
4.22122e-07
4.42476e-07
4.42514e-07
7.2908e-07
7.37812e-07
7.65081e-07
4.4948e-07
4.49566e-07
4.70587e-07
4.70624e-07
7.37735e-07
7.64968e-07
4.49384e-07
4.49596e-07
4.7048e-07
4.70718e-07
4.49512e-07
4.70374e-07
4.70604e-07
7.3786e-07
7.65179e-07
4.4942e-07
4.70499e-07
4.70507e-07
7.65186e-07
7.73831e-07
8.00307e-07
4.77728e-07
4.77783e-07
4.99288e-07
4.99392e-07
7.73715e-07
8.00266e-07
4.77624e-07
4.77874e-07
4.99169e-07
4.99391e-07
4.77746e-07
4.9914e-07
4.99368e-07
7.73928e-07
8.0035e-07
4.77648e-07
4.99174e-07
4.9926e-07
8.00346e-07
8.08884e-07
8.34467e-07
5.06583e-07
5.06636e-07
5.28733e-07
5.28799e-07
8.0886e-07
8.3433e-07
5.06467e-07
5.0665e-07
5.28613e-07
5.28914e-07
5.06622e-07
5.28542e-07
5.28728e-07
8.0892e-07
8.34559e-07
5.06512e-07
5.2869e-07
5.28616e-07
8.34516e-07
8.42908e-07
8.67346e-07
5.36068e-07
5.36242e-07
5.58347e-07
5.58376e-07
8.42823e-07
8.6732e-07
5.35952e-07
5.3633e-07
5.5821e-07
5.58355e-07
5.36219e-07
5.58125e-07
5.58443e-07
8.43028e-07
8.67423e-07
5.36106e-07
5.58143e-07
5.58317e-07
8.67643e-07
8.75625e-07
8.99457e-07
5.65973e-07
5.6583e-07
5.88467e-07
5.88568e-07
8.75466e-07
8.99311e-07
5.65845e-07
5.65867e-07
5.88338e-07
5.88694e-07
5.65816e-07
5.88311e-07
5.88488e-07
8.7556e-07
8.99529e-07
5.65692e-07
5.88477e-07
5.88362e-07
8.99272e-07
9.07349e-07
9.29708e-07
5.95757e-07
5.96099e-07
6.18312e-07
6.18369e-07
9.07393e-07
9.2979e-07
5.95625e-07
5.96121e-07
6.18167e-07
6.18446e-07
5.96067e-07
6.18129e-07
6.18366e-07
9.07607e-07
9.29918e-07
5.95936e-07
6.18242e-07
6.18231e-07
9.30033e-07
9.37641e-07
9.59792e-07
6.26107e-07
6.25821e-07
6.48513e-07
6.48508e-07
9.37503e-07
9.59333e-07
6.25982e-07
6.26101e-07
6.48375e-07
6.48455e-07
6.25849e-07
6.4825e-07
6.48524e-07
9.3765e-07
9.59561e-07
6.25728e-07
6.48244e-07
6.48383e-07
9.59595e-07
9.67094e-07
9.87113e-07
6.55633e-07
6.5604e-07
6.77775e-07
6.77923e-07
9.66944e-07
9.87511e-07
6.55476e-07
6.55638e-07
6.77628e-07
6.78119e-07
6.5597e-07
6.77704e-07
6.78154e-07
9.66974e-07
9.87506e-07
6.55812e-07
6.77944e-07
6.78012e-07
9.87756e-07
9.94633e-07
1.01511e-06
6.85403e-07
6.8514e-07
7.07452e-07
7.07381e-07
9.94665e-07
1.01456e-06
6.85304e-07
6.85851e-07
7.07343e-07
7.07492e-07
6.85548e-07
7.07134e-07
7.07161e-07
9.95044e-07
1.01509e-06
6.85439e-07
7.07296e-07
7.07045e-07
1.01465e-06
1.022e-06
1.04044e-06
7.14548e-07
7.14825e-07
7.35996e-07
7.36268e-07
1.02182e-06
1.04086e-06
7.14405e-07
7.14294e-07
7.35825e-07
7.35862e-07
7.14276e-07
7.36042e-07
7.36145e-07
1.02178e-06
1.0401e-06
7.14121e-07
7.35683e-07
7.35966e-07
1.0406e-06
1.04734e-06
1.06549e-06
7.43158e-07
7.4318e-07
7.64187e-07
7.63982e-07
1.04749e-06
1.06496e-06
7.43029e-07
7.43396e-07
7.64108e-07
7.64743e-07
7.43461e-07
7.6378e-07
7.64507e-07
1.04727e-06
1.0662e-06
7.43315e-07
7.64596e-07
7.64417e-07
1.06591e-06
1.07201e-06
1.08901e-06
7.71074e-07
7.7097e-07
7.91524e-07
7.91661e-07
1.07159e-06
1.08907e-06
7.70983e-07
7.71359e-07
7.9137e-07
7.91297e-07
7.71264e-07
7.91439e-07
7.91452e-07
1.07254e-06
1.08858e-06
7.71157e-07
7.91129e-07
7.91287e-07
1.08886e-06
1.09536e-06
1.11166e-06
7.98248e-07
7.98393e-07
8.18089e-07
8.18154e-07
1.09545e-06
1.11161e-06
7.98103e-07
7.98126e-07
8.17972e-07
8.18336e-07
7.98197e-07
8.17952e-07
8.18198e-07
1.09498e-06
1.11191e-06
7.98034e-07
8.1819e-07
8.18072e-07
1.11175e-06
1.11779e-06
1.13331e-06
8.24606e-07
8.24643e-07
8.43836e-07
8.43849e-07
1.11771e-06
1.13319e-06
8.24501e-07
8.24849e-07
8.43717e-07
8.43892e-07
8.24738e-07
8.43657e-07
8.43957e-07
1.11806e-06
1.13328e-06
8.24618e-07
8.43755e-07
8.43829e-07
1.13342e-06
1.13923e-06
1.1539e-06
8.5012e-07
8.5014e-07
8.68585e-07
8.68614e-07
1.13912e-06
1.15381e-06
8.50002e-07
8.50139e-07
8.68458e-07
8.68613e-07
8.50237e-07
8.68426e-07
8.68647e-07
1.13915e-06
1.15386e-06
8.50106e-07
8.68482e-07
8.68515e-07
1.15394e-06
5.35663e-07
5.35601e-07
5.35655e-07
5.35655e-07
5.34573e-07
5.35516e-07
5.33634e-07
5.35654e-07
5.34573e-07
5.35517e-07
5.35654e-07
5.33634e-07
5.35256e-07
5.35986e-07
5.35987e-07
1.10713e-06
3.88082e-06
9.33891e-07
4.60617e-06
1.26081e-05
1.66011e-05
1.10725e-06
3.88106e-06
9.33924e-07
4.60653e-06
4.95567e-07
4.95567e-07
4.95567e-07
4.57231e-07
4.57231e-07
4.57232e-07
4.57232e-07
5.43144e-07
1.22026e-06
4.95565e-07
4.85522e-07
5.25341e-07
1.20946e-06
4.82301e-07
1.26097e-05
1.66037e-05
5.43162e-07
4.95565e-07
1.22025e-06
4.85523e-07
5.2532e-07
4.82302e-07
1.20945e-06
2.52172e-06
2.52242e-06
4.8419e-07
2.37248e-06
2.37287e-06
1.4308e-06
5.59329e-06
1.32967e-06
6.13637e-06
2.12844e-05
2.31105e-05
1.4312e-06
5.59395e-06
1.32973e-06
6.13703e-06
4.45572e-07
4.45573e-07
4.45573e-07
4.13542e-07
4.13542e-07
4.13543e-07
4.13543e-07
5.87084e-07
1.19483e-06
4.46434e-07
4.44291e-07
5.73801e-07
1.20431e-06
4.3569e-07
2.12866e-05
2.31142e-05
5.87102e-07
4.46435e-07
1.19484e-06
4.44294e-07
5.73811e-07
4.35692e-07
1.2044e-06
2.31171e-06
2.31222e-06
4.53488e-07
2.35332e-06
2.35378e-06
1.66327e-06
6.918e-06
1.59584e-06
7.32014e-06
2.46404e-05
2.4937e-05
1.66337e-06
6.91882e-06
1.59576e-06
7.32109e-06
4.03752e-07
4.03753e-07
4.03753e-07
3.76689e-07
3.76689e-07
3.76691e-07
3.7669e-07
6.15569e-07
1.24281e-06
4.06546e-07
4.10617e-07
6.0838e-07
1.26558e-06
3.97729e-07
2.46436e-05
2.49405e-05
6.15585e-07
4.06547e-07
1.24291e-06
4.10622e-07
6.08396e-07
3.97732e-07
1.26574e-06
2.47396e-06
2.47444e-06
4.3018e-07
2.53268e-06
2.53316e-06
1.81233e-06
7.84635e-06
1.77234e-06
8.09935e-06
2.47364e-05
2.44304e-05
1.81247e-06
7.84733e-06
1.77234e-06
8.10068e-06
3.68362e-07
3.68365e-07
3.68364e-07
3.45192e-07
3.45192e-07
3.45195e-07
3.45194e-07
6.26293e-07
1.31313e-06
3.73478e-07
3.81656e-07
6.24882e-07
1.33369e-06
3.66029e-07
2.47388e-05
2.4434e-05
6.26306e-07
3.7348e-07
1.31321e-06
3.81662e-07
6.24894e-07
3.66032e-07
1.33386e-06
2.63522e-06
2.63572e-06
4.08471e-07
2.67931e-06
2.67981e-06
1.89283e-06
8.39543e-06
1.87319e-06
8.52932e-06
2.36923e-05
2.3265e-05
1.89299e-06
8.39661e-06
1.87321e-06
8.53088e-06
3.38014e-07
3.38017e-07
3.38016e-07
3.17912e-07
3.17911e-07
3.17915e-07
3.17914e-07
6.22109e-07
1.37211e-06
3.45239e-07
3.55922e-07
6.25445e-07
1.38709e-06
3.38764e-07
2.3694e-05
2.32683e-05
6.22123e-07
3.45241e-07
1.37219e-06
3.5593e-07
6.25457e-07
3.38768e-07
1.38726e-06
2.76351e-06
2.76404e-06
3.86837e-07
2.80528e-06
2.80583e-06
1.92987e-06
8.66305e-06
1.92179e-06
8.71877e-06
2.25015e-05
2.21201e-05
1.93005e-06
8.66432e-06
1.92182e-06
8.72019e-06
3.11645e-07
3.11649e-07
3.11648e-07
2.94001e-07
2.94e-07
2.94004e-07
2.94002e-07
6.08887e-07
1.41603e-06
3.20492e-07
3.32668e-07
6.15378e-07
1.4275e-06
3.14745e-07
2.25028e-05
2.2123e-05
6.08901e-07
3.20493e-07
1.41609e-06
3.32677e-07
6.15391e-07
3.14749e-07
1.42767e-06
2.89514e-06
2.89573e-06
3.65488e-07
2.94361e-06
2.94424e-06
1.94789e-06
8.75941e-06
1.94364e-06
8.77084e-06
2.14772e-05
2.11784e-05
1.94807e-06
8.76087e-06
1.94367e-06
8.77227e-06
2.88472e-07
2.88476e-07
2.88475e-07
2.72839e-07
2.72838e-07
2.72842e-07
2.72841e-07
5.91863e-07
1.45272e-06
2.98409e-07
3.11548e-07
5.99369e-07
1.46398e-06
2.93242e-07
2.14782e-05
2.1181e-05
5.91878e-07
2.98411e-07
1.45279e-06
3.11557e-07
5.99382e-07
2.93246e-07
1.46415e-06
3.04889e-06
3.04958e-06
3.45061e-07
3.10657e-06
3.10734e-06
1.9656e-06
8.7686e-06
1.95959e-06
8.76339e-06
2.0674e-05
2.04528e-05
1.96576e-06
8.77007e-06
1.95963e-06
8.76478e-06
2.67922e-07
2.67926e-07
2.67925e-07
2.53976e-07
2.53976e-07
2.5398e-07
2.53978e-07
5.75448e-07
1.49165e-06
2.785e-07
2.92425e-07
5.82272e-07
1.50545e-06
2.73825e-07
2.06753e-05
2.04549e-05
5.75465e-07
2.78501e-07
1.49172e-06
2.92434e-07
5.82287e-07
2.73829e-07
1.50562e-06
3.22569e-06
3.22649e-06
3.26205e-07
3.29209e-06
3.29304e-06
1.99555e-06
8.7492e-06
1.98437e-06
8.74309e-06
2.00718e-05
1.99103e-05
1.9957e-06
8.75071e-06
1.98439e-06
8.74453e-06
2.49579e-07
2.49583e-07
2.49581e-07
2.37082e-07
2.37081e-07
2.37086e-07
2.37084e-07
5.629e-07
1.53979e-06
2.60474e-07
2.75263e-07
5.67829e-07
1.55768e-06
2.56239e-07
2.00736e-05
1.99121e-05
5.62916e-07
2.60475e-07
1.53989e-06
2.75272e-07
5.67845e-07
2.56243e-07
1.55782e-06
3.4212e-06
3.42216e-06
3.0945e-07
3.49285e-06
3.49401e-06
2.04523e-06
8.73347e-06
2.02679e-06
8.73133e-06
1.96319e-05
1.95161e-05
2.04537e-06
8.73501e-06
2.02681e-06
8.73286e-06
2.33136e-07
2.3314e-07
2.33138e-07
2.21911e-07
2.2191e-07
2.21914e-07
2.21913e-07
5.565e-07
1.601e-06
2.44157e-07
2.60063e-07
5.58642e-07
1.62357e-06
2.4033e-07
1.96337e-05
1.9518e-05
5.56518e-07
2.44158e-07
1.60103e-06
2.60072e-07
5.5866e-07
2.40334e-07
1.62379e-06
3.62715e-06
3.62825e-06
2.95168e-07
3.70107e-06
3.70242e-06
2.119e-06
8.73089e-06
2.09198e-06
8.73365e-06
1.93172e-05
1.92359e-05
2.11914e-06
8.73253e-06
2.09198e-06
8.73532e-06
2.18365e-07
2.18369e-07
2.18367e-07
2.08276e-07
2.08275e-07
2.08279e-07
2.08277e-07
5.57603e-07
1.6764e-06
2.29438e-07
2.4683e-07
5.56739e-07
1.70374e-06
2.25997e-07
1.9319e-05
1.92377e-05
5.57621e-07
2.29439e-07
1.67653e-06
2.4684e-07
5.56755e-07
2.26001e-07
1.70389e-06
3.83525e-06
3.8365e-06
2.83639e-07
3.90935e-06
3.91092e-06
2.21873e-06
8.74031e-06
2.18275e-06
8.74733e-06
1.90959e-05
1.90401e-05
2.21888e-06
8.74208e-06
2.18285e-06
8.74905e-06
2.05089e-07
2.05093e-07
2.05092e-07
1.9603e-07
1.96029e-07
1.96033e-07
1.96031e-07
5.66944e-07
1.76534e-06
2.16237e-07
2.35565e-07
5.63098e-07
1.79678e-06
2.13166e-07
1.90978e-05
1.90419e-05
5.6697e-07
2.16238e-07
1.76542e-06
2.35575e-07
5.63123e-07
2.1317e-07
1.79698e-06
4.03843e-06
4.03986e-06
2.75011e-07
4.10953e-06
4.11128e-06
2.34383e-06
8.75827e-06
2.29935e-06
8.7672e-06
1.89422e-05
1.89036e-05
2.34438e-06
8.76009e-06
2.29923e-06
8.769e-06
1.93171e-07
1.93175e-07
1.93173e-07
1.85053e-07
1.85052e-07
1.85057e-07
1.85055e-07
5.85872e-07
1.86571e-06
2.04494e-07
2.2627e-07
5.78748e-07
1.90029e-06
2.01779e-07
1.8944e-05
1.89054e-05
5.85902e-07
2.04495e-07
1.86583e-06
2.26281e-07
5.78779e-07
2.01783e-07
1.90046e-06
4.22989e-06
4.23145e-06
2.69471e-07
4.29522e-06
4.2971e-06
2.49198e-06
8.77938e-06
2.43875e-06
8.78839e-06
1.88345e-05
1.88074e-05
2.49257e-06
8.78126e-06
2.43844e-06
8.79024e-06
1.82497e-07
1.82501e-07
1.82499e-07
1.75253e-07
1.75252e-07
1.75256e-07
1.75254e-07
6.149e-07
1.97456e-06
1.94157e-07
2.18953e-07
6.0438e-07
2.01137e-06
1.91785e-07
1.88362e-05
1.88092e-05
6.14935e-07
1.94158e-07
1.97465e-06
2.18965e-07
6.04414e-07
1.9179e-07
2.01159e-06
4.40383e-06
4.40549e-06
2.67054e-07
4.46257e-06
4.46456e-06
2.65674e-06
8.80014e-06
2.59697e-06
8.80848e-06
1.87566e-05
1.87369e-05
2.65731e-06
8.80204e-06
2.59673e-06
8.81037e-06
1.72978e-07
1.72982e-07
1.7298e-07
1.66551e-07
1.6655e-07
1.66554e-07
1.66552e-07
6.54316e-07
2.08875e-06
1.85183e-07
2.13621e-07
6.40337e-07
2.12649e-06
1.83145e-07
1.87583e-05
1.87387e-05
6.54354e-07
1.85183e-07
2.08886e-06
2.13634e-07
6.40374e-07
1.83149e-07
2.12672e-06
4.55794e-06
4.55969e-06
2.67667e-07
4.60948e-06
4.61154e-06
2.83141e-06
8.81918e-06
2.76762e-06
8.82676e-06
1.86973e-05
1.86815e-05
2.83191e-06
8.8211e-06
2.7674e-06
8.82866e-06
1.6454e-07
1.64545e-07
1.64542e-07
1.58882e-07
1.5888e-07
1.58886e-07
1.58883e-07
7.04084e-07
2.20468e-06
1.77535e-07
2.10281e-07
6.8669e-07
2.24233e-06
1.75823e-07
1.86989e-05
1.86831e-05
7.04125e-07
1.77535e-07
2.2048e-06
2.10298e-07
6.86728e-07
1.75827e-07
2.24256e-06
4.69111e-06
4.69292e-06
2.71501e-07
4.73477e-06
4.73686e-06
3.00732e-06
8.83646e-06
2.9433e-06
8.84348e-06
1.86482e-05
1.86353e-05
3.00794e-06
8.8384e-06
2.94303e-06
8.84536e-06
1.5712e-07
1.57125e-07
1.57123e-07
1.52192e-07
1.52191e-07
1.52196e-07
1.52193e-07
7.63682e-07
2.3192e-06
1.71187e-07
2.0895e-07
7.43135e-07
2.35577e-06
1.69794e-07
1.86497e-05
1.86369e-05
7.63724e-07
1.71186e-07
2.31935e-06
2.08971e-07
7.43176e-07
1.69799e-07
2.35597e-06
4.80354e-06
4.80538e-06
2.78691e-07
4.83986e-06
4.84194e-06
3.1767e-06
8.85246e-06
3.11522e-06
8.859e-06
1.86059e-05
1.85936e-05
3.17725e-06
8.8544e-06
3.11505e-06
8.86088e-06
1.50666e-07
1.50672e-07
1.50669e-07
1.46434e-07
1.46432e-07
1.46439e-07
1.46435e-07
8.32145e-07
2.42957e-06
1.6612e-07
2.09658e-07
8.08789e-07
2.46426e-06
1.65045e-07
1.86075e-05
1.85954e-05
8.32185e-07
1.6612e-07
2.42966e-06
2.09682e-07
8.08835e-07
1.6505e-07
2.46452e-06
4.89728e-06
4.89915e-06
2.89264e-07
4.92685e-06
4.92892e-06
3.3325e-06
8.86749e-06
3.27638e-06
8.87371e-06
1.85668e-05
1.85565e-05
3.33308e-06
8.86946e-06
3.27616e-06
8.87565e-06
1.45134e-07
1.45141e-07
1.45137e-07
1.41572e-07
1.41569e-07
1.41577e-07
1.41572e-07
9.07919e-07
2.53366e-06
1.62328e-07
2.1243e-07
8.82372e-07
2.56581e-06
1.61567e-07
1.85685e-05
1.85579e-05
9.07968e-07
1.62328e-07
2.53382e-06
2.12458e-07
8.8241e-07
1.61571e-07
2.56604e-06
4.97402e-06
4.97591e-06
3.03246e-07
4.99865e-06
5.00071e-06
3.47008e-06
8.88189e-06
3.42071e-06
8.88787e-06
1.85312e-05
1.85215e-05
3.47064e-06
8.88379e-06
3.42057e-06
8.88969e-06
1.40489e-07
1.40497e-07
1.40492e-07
1.37573e-07
1.3757e-07
1.37579e-07
1.37574e-07
9.89104e-07
2.62981e-06
1.59809e-07
2.17293e-07
9.61999e-07
2.65935e-06
1.59362e-07
1.85326e-05
1.8523e-05
9.89144e-07
1.5981e-07
2.62998e-06
2.17325e-07
9.6205e-07
1.59366e-07
2.65953e-06
5.03746e-06
5.0393e-06
3.20633e-07
5.05683e-06
5.05893e-06
3.58669e-06
8.89549e-06
3.54528e-06
8.90103e-06
1.84977e-05
1.84883e-05
3.58728e-06
8.89728e-06
3.5451e-06
8.90277e-06
1.367e-07
1.36709e-07
1.36704e-07
1.34414e-07
1.3441e-07
1.3442e-07
1.34414e-07
1.07344e-06
2.71743e-06
1.58573e-07
2.2427e-07
1.04555e-06
2.74408e-06
1.5844e-07
1.84993e-05
1.84904e-05
1.07348e-06
1.58575e-07
2.71749e-06
2.24303e-07
1.04559e-06
1.58444e-07
2.74432e-06
5.08937e-06
5.09122e-06
3.41355e-07
5.10434e-06
5.10642e-06
3.68233e-06
8.90807e-06
3.64886e-06
8.91303e-06
1.84665e-05
1.84579e-05
3.68291e-06
8.9098e-06
3.64869e-06
8.91479e-06
1.33745e-07
1.33755e-07
1.33749e-07
1.32071e-07
1.32068e-07
1.32079e-07
1.32072e-07
1.15861e-06
2.79628e-06
1.58617e-07
2.33356e-07
1.13072e-06
2.81981e-06
1.58832e-07
1.84683e-05
1.846e-05
1.15865e-06
1.58615e-07
2.79632e-06
2.33393e-07
1.13076e-06
1.58841e-07
2.82012e-06
5.1316e-06
5.13348e-06
3.65297e-07
5.14352e-06
5.14556e-06
3.75854e-06
8.91931e-06
3.73233e-06
8.92374e-06
1.84378e-05
1.84299e-05
3.7591e-06
8.92107e-06
3.73215e-06
8.92555e-06
1.31602e-07
1.31613e-07
1.31606e-07
1.30531e-07
1.30527e-07
1.30539e-07
1.30532e-07
1.24246e-06
2.86634e-06
1.59987e-07
2.44549e-07
1.21525e-06
2.88712e-06
1.60534e-07
1.84395e-05
1.84319e-05
1.24249e-06
1.59985e-07
2.86639e-06
2.44588e-07
1.21529e-06
1.60545e-07
2.88742e-06
5.16621e-06
5.16814e-06
3.92279e-07
5.17589e-06
5.17787e-06
3.81789e-06
8.92924e-06
3.79793e-06
8.93312e-06
1.84112e-05
1.84042e-05
3.81845e-06
8.93105e-06
3.79775e-06
8.93497e-06
1.30255e-07
1.30268e-07
1.30261e-07
1.29779e-07
1.29776e-07
1.29789e-07
1.29781e-07
1.32313e-06
2.92823e-06
1.62691e-07
2.57818e-07
1.29716e-06
2.94662e-06
1.63577e-07
1.8413e-05
1.8406e-05
1.32316e-06
1.62689e-07
2.92837e-06
2.5786e-07
1.29719e-06
1.63588e-07
2.94682e-06
5.19487e-06
5.19681e-06
4.22009e-07
5.20279e-06
5.20476e-06
3.86336e-06
8.93793e-06
3.84849e-06
8.94131e-06
1.8387e-05
1.83807e-05
3.86391e-06
8.93977e-06
3.84832e-06
8.94317e-06
1.29693e-07
1.29707e-07
1.29699e-07
1.29793e-07
1.29791e-07
1.29805e-07
1.29797e-07
1.3992e-06
2.98286e-06
1.6675e-07
2.7311e-07
1.37488e-06
2.99893e-06
1.6798e-07
1.83887e-05
1.83825e-05
1.39922e-06
1.66748e-07
2.983e-06
2.73158e-07
1.37491e-06
1.67993e-07
2.99911e-06
5.21871e-06
5.22067e-06
4.54129e-07
5.22541e-06
5.22737e-06
3.89794e-06
8.94553e-06
3.88702e-06
8.94851e-06
1.8365e-05
1.83594e-05
3.89847e-06
8.94739e-06
3.88687e-06
8.95039e-06
1.29919e-07
1.29934e-07
1.29926e-07
1.3059e-07
1.30587e-07
1.30603e-07
1.30595e-07
1.46971e-06
3.03096e-06
1.72181e-07
2.9036e-07
1.44731e-06
3.04505e-06
1.73754e-07
1.83667e-05
1.83611e-05
1.46973e-06
1.7218e-07
3.03106e-06
2.90412e-07
1.44734e-06
1.7377e-07
3.04516e-06
5.23875e-06
5.24069e-06
4.88247e-07
5.2445e-06
5.24645e-06
3.92425e-06
8.95228e-06
3.91626e-06
8.955e-06
1.83453e-05
1.83405e-05
3.92475e-06
8.95415e-06
3.91614e-06
8.95689e-06
1.30907e-07
1.30923e-07
1.30915e-07
1.32154e-07
1.32152e-07
1.3217e-07
1.3216e-07
1.53417e-06
3.07336e-06
1.78991e-07
3.09478e-07
1.51379e-06
3.08582e-06
1.8091e-07
1.8347e-05
1.8342e-05
1.53419e-06
1.78991e-07
3.07349e-06
3.09529e-07
1.51383e-06
1.80927e-07
3.08584e-06
5.25573e-06
5.25766e-06
5.23916e-07
5.26076e-06
5.26271e-06
3.9445e-06
8.95842e-06
3.9385e-06
8.961e-06
1.83278e-05
1.83238e-05
3.94487e-06
8.96028e-06
3.93847e-06
8.96289e-06
1.32663e-07
1.32682e-07
1.32673e-07
1.34483e-07
1.34481e-07
1.34502e-07
1.34493e-07
1.59249e-06
3.11088e-06
1.87184e-07
3.30358e-07
1.57413e-06
3.12199e-06
1.89447e-07
1.83297e-05
1.83255e-05
1.59251e-06
1.87184e-07
3.11107e-06
3.3042e-07
1.57417e-06
1.89467e-07
3.12208e-06
5.27041e-06
5.27233e-06
5.6071e-07
5.27483e-06
5.27677e-06
3.96023e-06
8.9642e-06
3.95561e-06
8.96671e-06
1.83125e-05
1.83094e-05
3.96048e-06
8.96605e-06
3.95569e-06
8.96858e-06
1.35183e-07
1.35207e-07
1.35196e-07
1.37584e-07
1.37581e-07
1.37602e-07
1.37594e-07
1.64486e-06
3.14426e-06
1.96748e-07
3.52857e-07
1.62844e-06
3.15419e-06
1.99352e-07
1.83143e-05
1.83113e-05
1.64488e-06
1.96751e-07
3.14437e-06
3.52934e-07
1.62846e-06
1.99376e-07
3.15439e-06
5.28338e-06
5.2853e-06
5.98137e-07
5.28711e-06
5.28905e-06
3.9727e-06
8.96991e-06
3.96905e-06
8.97234e-06
1.82997e-05
1.82974e-05
3.97292e-06
8.97176e-06
3.9692e-06
8.9742e-06
1.38475e-07
1.38498e-07
1.38489e-07
1.41452e-07
1.41449e-07
1.41472e-07
1.41464e-07
1.69178e-06
3.17424e-06
2.07669e-07
3.76864e-07
1.67708e-06
3.18317e-06
2.10608e-07
1.83013e-05
1.82992e-05
1.69179e-06
2.07672e-07
3.17423e-06
3.76926e-07
1.6771e-06
2.10633e-07
3.18328e-06
5.29508e-06
5.297e-06
6.35865e-07
5.29832e-06
5.30025e-06
3.98279e-06
8.97567e-06
3.97984e-06
8.97824e-06
1.82891e-05
1.82877e-05
3.98304e-06
8.97754e-06
3.98e-06
8.98011e-06
1.42538e-07
1.42561e-07
1.42552e-07
1.46095e-07
1.46091e-07
1.46118e-07
1.4611e-07
1.73386e-06
3.20126e-06
2.19918e-07
4.02213e-07
1.72048e-06
3.2094e-06
2.23183e-07
1.82909e-05
1.82894e-05
1.73388e-06
2.19921e-07
3.20135e-06
4.02275e-07
1.72052e-06
2.2321e-07
3.20946e-06
5.30566e-06
5.30757e-06
6.73499e-07
5.30878e-06
5.31071e-06
3.99122e-06
8.98161e-06
3.98877e-06
8.98437e-06
1.8281e-05
1.82802e-05
3.99144e-06
8.98345e-06
3.98891e-06
8.98624e-06
1.47373e-07
1.47402e-07
1.47394e-07
1.51517e-07
1.51519e-07
1.51543e-07
1.51534e-07
1.77161e-06
3.22601e-06
2.33454e-07
4.28737e-07
1.75938e-06
3.23328e-06
2.37036e-07
1.82828e-05
1.82821e-05
1.77163e-06
2.33462e-07
3.22611e-06
4.2883e-07
1.75941e-06
2.3707e-07
3.23348e-06
5.31542e-06
5.31732e-06
7.10699e-07
5.31854e-06
5.32046e-06
3.99851e-06
8.98797e-06
3.99637e-06
8.99087e-06
1.82754e-05
1.82754e-05
3.99867e-06
8.98983e-06
3.99648e-06
8.99278e-06
1.5299e-07
1.53016e-07
1.53012e-07
1.57735e-07
1.5772e-07
1.57763e-07
1.57739e-07
1.80565e-06
3.24884e-06
2.48237e-07
4.56272e-07
1.79439e-06
3.2555e-06
2.52115e-07
1.82769e-05
1.82772e-05
1.80565e-06
2.48242e-07
3.24877e-06