/*--------------------------------*- C++ -*----------------------------------*\
| =========                 |                                                 |
| \\      /  F ield         | OpenFOAM: The Open Source CFD Toolbox           |
|  \\    /   O peration     | Version:  v2012                                 |
|   \\  /    A nd           | Website:  www.openfoam.com                      |
|    \\/     M anipulation  |                                                 |
\*---------------------------------------------------------------------------*/
FoamFile
{
    version     2.0;
    format      ascii;
    class       volScalarField;
    location    "375";
    object      k;
}
// * * * * * * * * * * * * * * * * * * * * * * * * * * * * * * * * * * * * * //

dimensions      [0 2 -2 0 0 0 0];


internalField   nonuniform List<scalar> 
85864
(
3.58932e-05
3.58912e-05
3.58912e-05
3.59957e-05
3.39296e-05
3.3889e-05
3.3889e-05
3.39622e-05
3.21578e-05
3.20081e-05
3.20081e-05
3.19522e-05
3.05346e-05
3.02293e-05
3.02292e-05
2.99884e-05
2.90329e-05
2.8554e-05
2.85539e-05
2.81226e-05
2.76353e-05
2.69872e-05
2.69871e-05
2.63907e-05
2.63308e-05
2.5531e-05
2.55309e-05
2.48073e-05
2.51112e-05
2.4185e-05
2.41848e-05
2.33782e-05
2.39709e-05
2.29506e-05
2.29504e-05
2.21047e-05
2.29058e-05
2.18269e-05
2.18267e-05
2.0986e-05
2.1912e-05
2.08114e-05
2.08112e-05
2.00134e-05
2.09865e-05
1.99013e-05
1.99011e-05
1.91814e-05
2.01241e-05
1.90947e-05
1.90946e-05
1.84895e-05
1.93239e-05
1.83885e-05
1.83884e-05
1.79331e-05
1.85847e-05
1.77793e-05
1.77793e-05
1.75061e-05
1.79042e-05
1.72656e-05
1.72656e-05
1.72002e-05
1.72798e-05
1.68465e-05
1.68466e-05
1.70226e-05
1.67097e-05
1.65211e-05
1.65213e-05
1.69817e-05
1.61923e-05
1.62895e-05
1.62898e-05
1.70789e-05
1.57254e-05
1.61516e-05
1.6152e-05
1.7304e-05
1.53073e-05
1.61072e-05
1.61077e-05
1.76568e-05
1.49374e-05
1.61534e-05
1.61539e-05
1.81338e-05
1.46145e-05
1.62919e-05
1.62926e-05
1.87284e-05
1.43383e-05
1.65198e-05
1.65209e-05
1.94281e-05
1.41079e-05
1.68355e-05
1.68365e-05
2.02205e-05
1.39235e-05
1.72353e-05
1.72362e-05
2.10944e-05
1.37846e-05
1.77156e-05
1.77171e-05
2.20352e-05
1.36907e-05
1.82724e-05
1.82745e-05
2.30292e-05
1.36418e-05
1.89012e-05
1.89027e-05
2.40657e-05
1.36393e-05
1.95979e-05
1.95992e-05
2.51251e-05
1.36814e-05
2.03545e-05
2.03572e-05
2.61999e-05
1.37694e-05
2.11684e-05
2.11705e-05
2.72817e-05
1.39049e-05
2.20351e-05
2.20349e-05
2.8363e-05
1.4087e-05
2.2936e-05
2.29423e-05
2.94284e-05
1.43098e-05
2.38815e-05
2.38785e-05
3.04827e-05
1.4594e-05
2.48622e-05
2.48715e-05
3.15159e-05
1.48993e-05
2.58467e-05
2.58388e-05
3.25504e-05
1.52889e-05
2.68784e-05
2.68917e-05
3.35222e-05
1.5673e-05
2.78933e-05
2.78897e-05
3.45041e-05
1.61637e-05
2.89375e-05
2.8942e-05
3.54557e-05
1.66303e-05
2.99638e-05
2.99593e-05
3.63735e-05
1.71992e-05
3.09927e-05
3.10239e-05
3.72697e-05
1.77705e-05
3.20437e-05
3.19902e-05
3.81233e-05
1.83967e-05
3.30212e-05
3.30819e-05
3.90205e-05
1.90497e-05
3.40352e-05
3.40101e-05
3.97945e-05
1.97366e-05
3.50116e-05
3.50188e-05
4.06055e-05
2.04572e-05
3.59671e-05
3.59715e-05
4.13837e-05
3.63068e-05
3.6291e-05
3.6291e-05
3.63068e-05
3.6291e-05
3.6291e-05
3.6423e-05
3.6423e-05
3.6423e-05
3.6423e-05
3.6291e-05
3.6291e-05
3.63068e-05
3.6291e-05
3.6291e-05
3.63068e-05
3.59957e-05
3.42687e-05
3.58912e-05
3.58912e-05
3.43767e-05
3.43766e-05
3.59957e-05
3.42687e-05
3.58911e-05
3.58912e-05
3.43767e-05
3.43766e-05
3.58912e-05
3.43767e-05
3.43767e-05
3.59957e-05
3.42687e-05
3.58912e-05
3.43767e-05
3.43767e-05
3.42687e-05
3.39623e-05
3.22635e-05
3.38889e-05
3.38889e-05
3.24684e-05
3.24683e-05
3.39623e-05
3.22635e-05
3.38889e-05
3.38889e-05
3.24684e-05
3.24683e-05
3.38889e-05
3.24685e-05
3.24684e-05
3.39623e-05
3.22634e-05
3.38889e-05
3.24685e-05
3.24684e-05
3.22634e-05
3.19522e-05
3.02993e-05
3.20079e-05
3.20078e-05
3.06643e-05
3.06642e-05
3.19522e-05
3.02994e-05
3.2008e-05
3.20078e-05
3.06644e-05
3.06641e-05
3.20079e-05
3.06646e-05
3.06643e-05
3.19522e-05
3.02992e-05
3.2008e-05
3.06645e-05
3.06644e-05
3.02992e-05
2.99885e-05
2.84253e-05
3.0229e-05
3.02288e-05
2.89624e-05
2.89622e-05
2.99886e-05
2.84255e-05
3.02291e-05
3.02287e-05
2.89626e-05
2.89621e-05
3.02289e-05
2.89628e-05
2.89623e-05
2.99884e-05
2.84252e-05
3.02291e-05
2.89627e-05
2.89626e-05
2.84252e-05
2.81227e-05
2.6674e-05
2.85536e-05
2.85534e-05
2.7368e-05
2.73678e-05
2.81228e-05
2.66742e-05
2.85538e-05
2.85533e-05
2.73683e-05
2.73676e-05
2.85535e-05
2.73685e-05
2.73679e-05
2.81226e-05
2.66739e-05
2.85538e-05
2.73684e-05
2.73683e-05
2.66738e-05
2.63908e-05
2.50663e-05
2.69866e-05
2.69864e-05
2.58841e-05
2.58838e-05
2.63909e-05
2.50665e-05
2.6987e-05
2.69862e-05
2.58845e-05
2.58836e-05
2.69865e-05
2.58848e-05
2.5884e-05
2.63907e-05
2.50661e-05
2.69869e-05
2.58846e-05
2.58844e-05
2.50661e-05
2.48075e-05
2.36125e-05
2.55303e-05
2.553e-05
2.45102e-05
2.45099e-05
2.48076e-05
2.36127e-05
2.55308e-05
2.55299e-05
2.45107e-05
2.45097e-05
2.55302e-05
2.4511e-05
2.45102e-05
2.48073e-05
2.36123e-05
2.55307e-05
2.45108e-05
2.45107e-05
2.36123e-05
2.33784e-05
2.23125e-05
2.41842e-05
2.41838e-05
2.32478e-05
2.32475e-05
2.33785e-05
2.23126e-05
2.41847e-05
2.41836e-05
2.32484e-05
2.32473e-05
2.41841e-05
2.32488e-05
2.32478e-05
2.33782e-05
2.23122e-05
2.41846e-05
2.32485e-05
2.32484e-05
2.23122e-05
2.21049e-05
2.11681e-05
2.29497e-05
2.29494e-05
2.20965e-05
2.20962e-05
2.21051e-05
2.11683e-05
2.29503e-05
2.29491e-05
2.20972e-05
2.2096e-05
2.29496e-05
2.20976e-05
2.20965e-05
2.21047e-05
2.11679e-05
2.29503e-05
2.20973e-05
2.20972e-05
2.11678e-05
2.09863e-05
2.01708e-05
2.18259e-05
2.18255e-05
2.10542e-05
2.10538e-05
2.09865e-05
2.0171e-05
2.18266e-05
2.18253e-05
2.10549e-05
2.10536e-05
2.18258e-05
2.10552e-05
2.10541e-05
2.09861e-05
2.01705e-05
2.18265e-05
2.1055e-05
2.10549e-05
2.01704e-05
2.00137e-05
1.93147e-05
2.08103e-05
2.081e-05
2.0118e-05
2.01176e-05
2.00139e-05
1.93148e-05
2.08111e-05
2.08097e-05
2.01188e-05
2.01174e-05
2.08102e-05
2.01191e-05
2.01179e-05
2.00134e-05
1.93144e-05
2.08111e-05
2.01189e-05
2.01188e-05
1.93143e-05
1.91817e-05
1.85903e-05
1.99002e-05
1.98999e-05
1.92855e-05
1.92852e-05
1.91819e-05
1.85906e-05
1.9901e-05
1.98997e-05
1.92863e-05
1.9285e-05
1.99002e-05
1.92866e-05
1.92855e-05
1.91815e-05
1.85902e-05
1.9901e-05
1.92865e-05
1.92864e-05
1.85901e-05
1.84899e-05
1.79978e-05
1.90936e-05
1.90933e-05
1.85545e-05
1.85542e-05
1.84899e-05
1.7998e-05
1.90945e-05
1.90931e-05
1.85553e-05
1.8554e-05
1.90936e-05
1.85555e-05
1.85545e-05
1.84896e-05
1.79978e-05
1.90945e-05
1.85554e-05
1.85553e-05
1.79975e-05
1.79333e-05
1.75393e-05
1.83875e-05
1.83872e-05
1.79214e-05
1.79211e-05
1.79334e-05
1.75392e-05
1.83883e-05
1.8387e-05
1.79222e-05
1.79209e-05
1.83874e-05
1.79223e-05
1.79213e-05
1.79332e-05
1.75391e-05
1.83883e-05
1.79222e-05
1.79222e-05
1.75389e-05
1.75067e-05
1.72177e-05
1.77784e-05
1.77781e-05
1.73838e-05
1.73836e-05
1.75066e-05
1.72177e-05
1.77792e-05
1.7778e-05
1.73846e-05
1.73835e-05
1.77783e-05
1.73847e-05
1.73838e-05
1.75064e-05
1.72177e-05
1.77792e-05
1.73846e-05
1.73846e-05
1.72175e-05
1.72005e-05
1.70262e-05
1.72648e-05
1.72646e-05
1.69411e-05
1.69409e-05
1.72004e-05
1.70259e-05
1.72655e-05
1.72645e-05
1.69418e-05
1.69409e-05
1.72647e-05
1.69418e-05
1.69411e-05
1.72003e-05
1.7026e-05
1.72656e-05
1.69418e-05
1.69418e-05
1.70259e-05
1.70229e-05
1.69726e-05
1.68458e-05
1.68457e-05
1.65921e-05
1.6592e-05
1.70226e-05
1.69723e-05
1.68465e-05
1.68456e-05
1.65928e-05
1.6592e-05
1.68458e-05
1.65926e-05
1.65921e-05
1.70227e-05
1.69726e-05
1.68466e-05
1.65928e-05
1.65928e-05
1.69724e-05
1.69818e-05
1.70432e-05
1.65206e-05
1.65205e-05
1.63368e-05
1.63367e-05
1.69816e-05
1.7043e-05
1.65213e-05
1.65205e-05
1.63374e-05
1.63368e-05
1.65206e-05
1.63372e-05
1.63368e-05
1.69819e-05
1.70434e-05
1.65213e-05
1.63374e-05
1.63375e-05
1.70433e-05
1.70789e-05
1.72436e-05
1.62892e-05
1.62891e-05
1.61753e-05
1.61753e-05
1.70786e-05
1.72431e-05
1.62898e-05
1.62892e-05
1.61759e-05
1.61755e-05
1.62891e-05
1.61755e-05
1.61753e-05
1.70788e-05
1.72436e-05
1.62898e-05
1.61758e-05
1.61759e-05
1.72436e-05
1.7304e-05
1.75721e-05
1.61515e-05
1.61515e-05
1.61071e-05
1.61073e-05
1.73036e-05
1.75717e-05
1.6152e-05
1.61517e-05
1.61076e-05
1.61075e-05
1.61515e-05
1.61071e-05
1.61071e-05
1.7304e-05
1.75726e-05
1.61521e-05
1.61076e-05
1.61077e-05
1.75723e-05
1.76567e-05
1.80253e-05
1.61072e-05
1.61074e-05
1.61328e-05
1.61331e-05
1.76564e-05
1.80247e-05
1.61077e-05
1.61077e-05
1.61332e-05
1.61334e-05
1.61073e-05
1.61327e-05
1.61329e-05
1.76573e-05
1.8026e-05
1.61078e-05
1.61333e-05
1.61335e-05
1.80254e-05
1.81336e-05
1.85975e-05
1.61534e-05
1.61538e-05
1.62488e-05
1.62492e-05
1.81332e-05
1.85964e-05
1.61539e-05
1.61541e-05
1.62492e-05
1.62497e-05
1.61536e-05
1.62486e-05
1.62491e-05
1.81343e-05
1.85979e-05
1.61542e-05
1.62492e-05
1.62496e-05
1.85972e-05
1.87284e-05
1.92759e-05
1.62921e-05
1.62926e-05
1.64549e-05
1.64554e-05
1.87275e-05
1.92752e-05
1.62926e-05
1.6293e-05
1.64552e-05
1.6456e-05
1.62924e-05
1.64545e-05
1.64553e-05
1.87288e-05
1.92766e-05
1.62928e-05
1.64553e-05
1.64557e-05
1.9276e-05
1.94276e-05
2.005e-05
1.65205e-05
1.65209e-05
1.67493e-05
1.675e-05
1.94268e-05
2.00491e-05
1.65209e-05
1.65216e-05
1.67495e-05
1.67504e-05
1.65209e-05
1.67487e-05
1.67495e-05
1.94281e-05
2.00506e-05
1.65214e-05
1.67494e-05
1.67499e-05
2.005e-05
2.02202e-05
2.09057e-05
1.6836e-05
1.68369e-05
1.71283e-05
1.71291e-05
2.02199e-05
2.09052e-05
1.68363e-05
1.68374e-05
1.71283e-05
1.71297e-05
1.68366e-05
1.71275e-05
1.71288e-05
2.0221e-05
2.09075e-05
1.6837e-05
1.71285e-05
1.71291e-05
2.09073e-05
2.10932e-05
2.18329e-05
1.72364e-05
1.7237e-05
1.75889e-05
1.75897e-05
2.10926e-05
2.1832e-05
1.72365e-05
1.72373e-05
1.75886e-05
1.75909e-05
1.72368e-05
1.75878e-05
1.75896e-05
2.10946e-05
2.18339e-05
1.72371e-05
1.75894e-05
1.75897e-05
2.18345e-05
2.20337e-05
2.28167e-05
1.77168e-05
1.77175e-05
1.81274e-05
1.8128e-05
2.2033e-05
2.28151e-05
1.77166e-05
1.77185e-05
1.81269e-05
1.81289e-05
1.77174e-05
1.81258e-05
1.81277e-05
2.20357e-05
2.28158e-05
1.77175e-05
1.81272e-05
1.81276e-05
2.28173e-05
2.30292e-05
2.38419e-05
1.82738e-05
1.82746e-05
1.87399e-05
1.87404e-05
2.30273e-05
2.38415e-05
1.82734e-05
1.82762e-05
1.87392e-05
1.87406e-05
1.82741e-05
1.8738e-05
1.87407e-05
2.30286e-05
2.38438e-05
1.82739e-05
1.87386e-05
1.87403e-05
2.38443e-05
2.40637e-05
2.48945e-05
1.89028e-05
1.89036e-05
1.94205e-05
1.94201e-05
2.40621e-05
2.48947e-05
1.89021e-05
1.89046e-05
1.94195e-05
1.94218e-05
1.89042e-05
1.94174e-05
1.94206e-05
2.40636e-05
2.48993e-05
1.89038e-05
1.94196e-05
1.94199e-05
2.48968e-05
2.51239e-05
2.59645e-05
1.96013e-05
1.96005e-05
2.01607e-05
2.01627e-05
2.51224e-05
2.59676e-05
1.96004e-05
1.96013e-05
2.01593e-05
2.01645e-05
1.9601e-05
2.01598e-05
2.01636e-05
2.5127e-05
2.59685e-05
1.96003e-05
2.01622e-05
2.01626e-05
2.59684e-05
2.61951e-05
2.70501e-05
2.03571e-05
2.03572e-05
2.09634e-05
2.09645e-05
2.61994e-05
2.70454e-05
2.03558e-05
2.03594e-05
2.09618e-05
2.09642e-05
2.03589e-05
2.09615e-05
2.09635e-05
2.62013e-05
2.70464e-05
2.03579e-05
2.09617e-05
2.09622e-05
2.70487e-05
2.72831e-05
2.81237e-05
2.11708e-05
2.11715e-05
2.18163e-05
2.18169e-05
2.72816e-05
2.81204e-05
2.11692e-05
2.11729e-05
2.18143e-05
2.18183e-05
2.11722e-05
2.18138e-05
2.18171e-05
2.72817e-05
2.81257e-05
2.11709e-05
2.18157e-05
2.18156e-05
2.81282e-05
2.83591e-05
2.91924e-05
2.20355e-05
2.20382e-05
2.27102e-05
2.27071e-05
2.83562e-05
2.91902e-05
2.20336e-05
2.20373e-05
2.27079e-05
2.27101e-05
2.20367e-05
2.27038e-05
2.27112e-05
2.83598e-05
2.91933e-05
2.2035e-05
2.27073e-05
2.27093e-05
2.91932e-05
2.94261e-05
3.02527e-05
2.2944e-05
2.29393e-05
2.36443e-05
2.3651e-05
2.94221e-05
3.0253e-05
2.29419e-05
2.29451e-05
2.36418e-05
2.36502e-05
2.2942e-05
2.3648e-05
2.36523e-05
2.94277e-05
3.02548e-05
2.29401e-05
2.36478e-05
2.36502e-05
3.02522e-05
3.04831e-05
3.1291e-05
2.38791e-05
2.38846e-05
2.46226e-05
2.46113e-05
3.04856e-05
3.12817e-05
2.38765e-05
2.38808e-05
2.462e-05
2.46169e-05
2.38896e-05
2.46077e-05
2.4606e-05
3.04836e-05
3.12877e-05
2.38873e-05
2.46136e-05
2.46037e-05
3.12881e-05
3.15246e-05
3.22973e-05
2.48695e-05
2.48657e-05
2.5589e-05
2.56065e-05
3.15138e-05
3.2315e-05
2.48674e-05
2.48746e-05
2.55855e-05
2.56e-05
2.48595e-05
2.56043e-05
2.56198e-05
3.15221e-05
3.23142e-05
2.48574e-05
2.55986e-05
2.56169e-05
3.23265e-05
3.25205e-05
3.33314e-05
2.58459e-05
2.58491e-05
2.66456e-05
2.66184e-05
3.25332e-05
3.33034e-05
2.58425e-05
2.58405e-05
2.66435e-05
2.66339e-05
2.58592e-05
2.6614e-05
2.66143e-05
3.25299e-05
3.33109e-05
2.58561e-05
2.66299e-05
2.66122e-05
3.32954e-05
3.35516e-05
3.42526e-05
2.68895e-05
2.68823e-05
2.76083e-05
2.76474e-05
3.35338e-05
3.42875e-05
2.68876e-05
2.68947e-05
2.76039e-05
2.76277e-05
2.68819e-05
2.76462e-05
2.7645e-05
3.35433e-05
3.4281e-05
2.68798e-05
2.76271e-05
2.76411e-05
3.42959e-05
3.44711e-05
3.52822e-05
2.7883e-05
2.78952e-05
2.8718e-05
2.86694e-05
3.44975e-05
3.52275e-05
2.78792e-05
2.78912e-05
2.87174e-05
2.87052e-05
2.78936e-05
2.86648e-05
2.86827e-05
3.44899e-05
3.52576e-05
2.78903e-05
2.87015e-05
2.86818e-05
3.52348e-05
3.54917e-05
3.61163e-05
2.89583e-05
2.89416e-05
2.96757e-05
2.97233e-05
3.54454e-05
3.61773e-05
2.89567e-05
2.89449e-05
2.96692e-05
2.96733e-05
2.8945e-05
2.97222e-05
2.97152e-05
3.54684e-05
3.61272e-05
2.8943e-05
2.96728e-05
2.97092e-05
3.61705e-05
3.63254e-05
3.70992e-05
2.9948e-05
2.99647e-05
3.07644e-05
3.07226e-05
3.63749e-05
3.70388e-05
2.99439e-05
2.99597e-05
3.07664e-05
3.07967e-05
2.99807e-05
3.07199e-05
3.07542e-05
3.63423e-05
3.71206e-05
2.99765e-05
3.07951e-05
3.07558e-05
3.70768e-05
3.7298e-05
3.79286e-05
3.10147e-05
3.09961e-05
3.17648e-05
3.17987e-05
3.72498e-05
3.79762e-05
3.10152e-05
3.1026e-05
3.17576e-05
3.17171e-05
3.09948e-05
3.17951e-05
3.17501e-05
3.731e-05
3.7882e-05
3.09948e-05
3.17144e-05
3.17427e-05
3.7917e-05
3.81264e-05
3.88061e-05
3.20241e-05
3.20466e-05
3.27909e-05
3.27728e-05
3.81672e-05
3.87756e-05
3.20179e-05
3.19922e-05
3.27918e-05
3.2835e-05
3.20218e-05
3.2772e-05
3.28176e-05
3.80852e-05
3.88545e-05
3.20152e-05
3.28356e-05
3.28181e-05
3.88342e-05
3.89936e-05
3.96213e-05
3.30401e-05
3.30219e-05
3.37862e-05
3.37857e-05
3.89628e-05
3.96236e-05
3.30417e-05
3.30814e-05
3.37832e-05
3.37695e-05
3.30641e-05
3.37833e-05
3.37837e-05
3.90452e-05
3.95969e-05
3.30652e-05
3.37683e-05
3.37805e-05
3.96139e-05
3.9806e-05
4.04263e-05
3.40343e-05
3.4038e-05
3.47683e-05
3.47733e-05
3.9812e-05
4.04296e-05
3.40306e-05
3.40117e-05
3.47655e-05
3.47708e-05
3.40272e-05
3.4771e-05
3.47671e-05
3.97737e-05
4.04319e-05
3.4023e-05
3.47699e-05
3.47641e-05
4.04244e-05
4.06044e-05
4.12058e-05
3.50103e-05
3.50136e-05
3.57324e-05
3.57309e-05
4.06059e-05
4.12028e-05
3.50085e-05
3.50194e-05
3.57309e-05
3.57373e-05
3.50125e-05
3.57292e-05
3.57372e-05
4.06168e-05
4.12091e-05
3.50103e-05
3.57371e-05
3.57355e-05
4.12109e-05
4.13797e-05
4.19609e-05
3.59703e-05
3.59687e-05
3.66728e-05
3.66733e-05
4.13765e-05
4.19596e-05
3.59688e-05
3.59717e-05
3.66704e-05
3.66681e-05
3.59757e-05
3.6672e-05
3.66782e-05
4.13785e-05
4.19552e-05
3.59738e-05
3.66683e-05
3.66757e-05
4.19638e-05
3.73773e-05
3.73765e-05
3.7377e-05
3.7377e-05
3.73701e-05
3.73777e-05
3.73043e-05
3.73768e-05
3.73702e-05
3.73777e-05
3.73768e-05
3.73043e-05
3.73741e-05
3.72959e-05
3.72959e-05
3.58798e-05
4.0872e-05
3.66033e-05
4.51467e-05
5.51147e-05
6.48951e-05
3.58803e-05
4.08712e-05
3.66034e-05
4.51465e-05
3.58932e-05
3.58933e-05
3.58932e-05
3.44005e-05
3.44005e-05
3.44005e-05
3.44005e-05
3.52758e-05
3.56384e-05
3.58929e-05
3.53771e-05
3.60475e-05
3.42365e-05
3.53822e-05
5.51168e-05
6.48994e-05
3.52758e-05
3.58929e-05
3.5638e-05
3.53771e-05
3.60475e-05
3.53822e-05
3.42375e-05
3.65972e-05
3.65977e-05
3.5279e-05
3.40641e-05
3.40633e-05
3.39657e-05
5.13534e-05
3.46793e-05
5.46248e-05
7.65447e-05
8.08614e-05
3.39682e-05
5.13543e-05
3.46789e-05
5.46254e-05
3.39296e-05
3.39297e-05
3.39297e-05
3.25854e-05
3.25854e-05
3.25855e-05
3.25855e-05
3.30541e-05
3.2475e-05
3.39295e-05
3.34087e-05
3.38961e-05
3.15755e-05
3.34678e-05
7.65458e-05
8.08655e-05
3.30541e-05
3.39295e-05
3.24739e-05
3.34087e-05
3.38958e-05
3.34678e-05
3.15773e-05
3.1717e-05
3.17163e-05
3.32637e-05
3.09255e-05
3.09239e-05
3.22498e-05
5.91694e-05
3.29238e-05
6.14407e-05
8.43919e-05
8.50677e-05
3.2252e-05
5.91712e-05
3.29217e-05
6.14428e-05
3.21578e-05
3.21578e-05
3.21578e-05
3.09282e-05
3.09282e-05
3.09281e-05
3.09282e-05
3.07893e-05
3.05137e-05
3.21376e-05
3.15541e-05
3.16368e-05
2.98864e-05
3.17101e-05
8.43937e-05
8.50702e-05
3.07892e-05
3.21376e-05
3.05135e-05
3.1554e-05
3.16363e-05
3.17101e-05
2.98874e-05
3.02179e-05
3.02169e-05
3.12731e-05
3.00047e-05
3.00033e-05
3.0753e-05
6.4351e-05
3.13503e-05
6.5727e-05
8.46111e-05
8.39116e-05
3.07539e-05
6.43528e-05
3.13504e-05
6.57305e-05
3.05346e-05
3.05346e-05
3.05346e-05
2.9398e-05
2.9398e-05
2.93979e-05
2.9398e-05
2.86006e-05
2.91415e-05
3.04694e-05
2.98005e-05
2.9413e-05
2.86746e-05
3.00687e-05
8.46109e-05
8.39146e-05
2.86005e-05
3.04694e-05
2.91421e-05
2.98004e-05
2.94126e-05
3.00687e-05
2.86756e-05
2.99416e-05
2.99406e-05
2.93483e-05
3.00363e-05
3.00353e-05
2.95178e-05
6.73193e-05
3.00007e-05
6.80332e-05
8.22129e-05
8.12213e-05
2.95188e-05
6.73217e-05
3.0001e-05
6.80375e-05
2.90329e-05
2.90328e-05
2.90328e-05
2.79756e-05
2.79756e-05
2.79756e-05
2.79756e-05
2.65676e-05
2.8123e-05
2.89027e-05
2.8152e-05
2.73171e-05
2.7781e-05
2.85257e-05
8.22117e-05
8.12239e-05
2.65676e-05
2.89027e-05
2.81234e-05
2.81519e-05
2.73166e-05
2.85256e-05
2.7782e-05
3.04427e-05
3.04425e-05
2.7533e-05
3.07839e-05
3.0783e-05
2.86038e-05
6.87424e-05
2.89474e-05
6.90369e-05
7.94345e-05
7.85339e-05
2.86048e-05
6.87451e-05
2.89476e-05
6.90404e-05
2.76353e-05
2.76353e-05
2.76353e-05
2.66486e-05
2.66487e-05
2.66486e-05
2.66486e-05
2.47435e-05
2.7406e-05
2.74287e-05
2.66128e-05
2.54141e-05
2.71907e-05
2.70743e-05
7.94325e-05
7.85363e-05
2.47437e-05
2.74286e-05
2.74063e-05
2.66126e-05
2.54135e-05
2.70741e-05
2.71917e-05
3.15624e-05
3.15626e-05
2.58511e-05
3.21329e-05
3.21332e-05
2.80582e-05
6.92513e-05
2.82445e-05
6.93115e-05
7.70047e-05
7.62888e-05
2.8059e-05
6.92549e-05
2.82447e-05
6.9315e-05
2.63308e-05
2.63307e-05
2.63307e-05
2.54084e-05
2.54084e-05
2.54083e-05
2.54084e-05
2.31636e-05
2.70012e-05
2.60445e-05
2.51841e-05
2.37463e-05
2.69207e-05
2.57123e-05
7.70029e-05
7.62907e-05
2.31638e-05
2.60444e-05
2.70015e-05
2.51839e-05
2.37457e-05
2.57121e-05
2.69214e-05
3.31915e-05
3.31926e-05
2.432e-05
3.39298e-05
3.39313e-05
2.79138e-05
6.92997e-05
2.79275e-05
6.92723e-05
7.50727e-05
7.45363e-05
2.79141e-05
6.93034e-05
2.79276e-05
6.92755e-05
2.51112e-05
2.51111e-05
2.51111e-05
2.42488e-05
2.42488e-05
2.42486e-05
2.42487e-05
2.18463e-05
2.69346e-05
2.47489e-05
2.38659e-05
2.23369e-05
2.69818e-05
2.44388e-05
7.50716e-05
7.45372e-05
2.18466e-05
2.47488e-05
2.69347e-05
2.38657e-05
2.23364e-05
2.44386e-05
2.69825e-05
3.51924e-05
3.51944e-05
2.29423e-05
3.60429e-05
3.60461e-05
2.81584e-05
6.91975e-05
2.80319e-05
6.91653e-05
7.36078e-05
7.32123e-05
2.81586e-05
6.92014e-05
2.80315e-05
6.91688e-05
2.3971e-05
2.39708e-05
2.39709e-05
2.31652e-05
2.31652e-05
2.3165e-05
2.31651e-05
2.08003e-05
2.72e-05
2.3541e-05
2.26594e-05
2.11952e-05
2.7355e-05
2.32523e-05
7.36081e-05
7.32127e-05
2.08005e-05
2.35409e-05
2.72005e-05
2.26592e-05
2.11948e-05
2.3252e-05
2.73557e-05
3.74391e-05
3.74425e-05
2.1721e-05
3.83531e-05
3.83581e-05
2.88216e-05
6.91147e-05
2.85547e-05
6.91034e-05
7.25282e-05
7.22428e-05
2.88246e-05
6.91188e-05
2.85544e-05
6.91074e-05
2.29058e-05
2.29056e-05
2.29057e-05
2.21538e-05
2.21538e-05
2.21536e-05
2.21537e-05
2.00274e-05
2.77802e-05
2.24172e-05
2.15629e-05
2.03181e-05
2.80344e-05
2.21492e-05
7.25287e-05
7.22433e-05
2.00275e-05
2.2417e-05
2.77802e-05
2.15627e-05
2.0318e-05
2.2149e-05
2.80358e-05
3.98182e-05
3.98226e-05
2.06511e-05
4.07651e-05
4.0772e-05
2.99311e-05
6.91013e-05
2.94759e-05
6.91159e-05
7.1751e-05
7.15496e-05
2.99357e-05
6.91057e-05
2.94701e-05
6.91204e-05
2.1912e-05
2.19118e-05
2.19119e-05
2.12114e-05
2.12115e-05
2.12112e-05
2.12114e-05
1.95212e-05
2.86491e-05
2.1377e-05
2.05741e-05
1.97026e-05
2.89936e-05
2.113e-05
7.17515e-05
7.15501e-05
1.95213e-05
2.13768e-05
2.86501e-05
2.05739e-05
1.97025e-05
2.11298e-05
2.89946e-05
4.22414e-05
4.22472e-05
1.97251e-05
4.31844e-05
4.31931e-05
3.14448e-05
6.9151e-05
3.08016e-05
6.91881e-05
7.12022e-05
7.10632e-05
3.14465e-05
6.91561e-05
3.08021e-05
6.91929e-05
2.09865e-05
2.09863e-05
2.09864e-05
2.03339e-05
2.0334e-05
2.03337e-05
2.03339e-05
1.92795e-05
2.97739e-05
2.042e-05
1.96899e-05
1.93512e-05
3.01945e-05
2.01934e-05
7.12027e-05
7.10636e-05
1.92797e-05
2.04199e-05
2.97745e-05
1.96897e-05
1.93513e-05
2.01931e-05
3.0196e-05
4.46196e-05
4.46269e-05
1.89358e-05
4.5528e-05
4.5538e-05
3.3329e-05
6.92457e-05
3.25288e-05
6.92928e-05
7.08196e-05
7.07233e-05
3.33283e-05
6.9251e-05
3.2531e-05
6.9298e-05
2.01241e-05
2.01239e-05
2.0124e-05
1.9518e-05
1.9518e-05
1.95178e-05
1.95179e-05
1.92975e-05
3.1113e-05
1.95433e-05
1.89087e-05
1.92659e-05
3.15946e-05
1.93363e-05
7.082e-05
7.07238e-05
1.92977e-05
1.95432e-05
3.1114e-05
1.89086e-05
1.92661e-05
1.93362e-05
3.15959e-05
4.68825e-05
4.6891e-05
1.82774e-05
4.77277e-05
4.77391e-05
3.55255e-05
6.93569e-05
3.46117e-05
6.94044e-05
7.05507e-05
7.04832e-05
3.55272e-05
6.93625e-05
3.46113e-05
6.94098e-05
1.93239e-05
1.93237e-05
1.93238e-05
1.87638e-05
1.87638e-05
1.87636e-05
1.87637e-05
1.95663e-05
3.26189e-05
1.87441e-05
1.8227e-05
1.94492e-05
3.31458e-05
1.8556e-05
7.05511e-05
7.04836e-05
1.95666e-05
1.8744e-05
3.26197e-05
1.82269e-05
1.94494e-05
1.85558e-05
3.31475e-05
4.89669e-05
4.89765e-05
1.77511e-05
4.97556e-05
4.97678e-05
3.79656e-05
6.94662e-05
3.69617e-05
6.95101e-05
7.0356e-05
7.03068e-05
3.79646e-05
6.94719e-05
3.69647e-05
6.95158e-05
1.85848e-05
1.85846e-05
1.85847e-05
1.80687e-05
1.80688e-05
1.80686e-05
1.80687e-05
2.00911e-05
3.42414e-05
1.80197e-05
1.76416e-05
1.98893e-05
3.47947e-05
1.78499e-05
7.03563e-05
7.03072e-05
2.00914e-05
1.80196e-05
3.42424e-05
1.76415e-05
1.98896e-05
1.78498e-05
3.47965e-05
5.08646e-05
5.0875e-05
1.73616e-05
5.15711e-05
5.15838e-05
4.05482e-05
6.95664e-05
3.94947e-05
6.96063e-05
7.02074e-05
7.01679e-05
4.05484e-05
6.95722e-05
3.94948e-05
6.96119e-05
1.79042e-05
1.7904e-05
1.79041e-05
1.74305e-05
1.74305e-05
1.74303e-05
1.74305e-05
2.08646e-05
3.59273e-05
1.73678e-05
1.71514e-05
2.05813e-05
3.64913e-05
1.72159e-05
7.02078e-05
7.01681e-05
2.08649e-05
1.73678e-05
3.59284e-05
1.71515e-05
2.05815e-05
1.72158e-05
3.64931e-05
5.2547e-05
5.2558e-05
1.71052e-05
5.31737e-05
5.31865e-05
4.31494e-05
6.96572e-05
4.21025e-05
6.96941e-05
7.00844e-05
7.00521e-05
4.31506e-05
6.96631e-05
4.21042e-05
6.96997e-05
1.72799e-05
1.72797e-05
1.72798e-05
1.6847e-05
1.6847e-05
1.68468e-05
1.68469e-05
2.18734e-05
3.76288e-05
1.67877e-05
1.67555e-05
2.15141e-05
3.81889e-05
1.66535e-05
7.00846e-05
7.00526e-05
2.18737e-05
1.67877e-05
3.76302e-05
1.67556e-05
2.15145e-05
1.66534e-05
3.81903e-05
5.40206e-05
5.4032e-05
1.6982e-05
5.45801e-05
5.45926e-05
4.56762e-05
6.97413e-05
4.46601e-05
6.97757e-05
6.99784e-05
6.99482e-05
4.5676e-05
6.97472e-05
4.46622e-05
6.97812e-05
1.67097e-05
1.67095e-05
1.67096e-05
1.63165e-05
1.63165e-05
1.63164e-05
1.63165e-05
2.30962e-05
3.93046e-05
1.62771e-05
1.64532e-05
2.26687e-05
3.98482e-05
1.61598e-05
6.99788e-05
6.99485e-05
2.30965e-05
1.62771e-05
3.93054e-05
1.64534e-05
2.26691e-05
1.61598e-05
3.98502e-05
5.53166e-05
5.53284e-05
1.69914e-05
5.57921e-05
5.58045e-05
4.802e-05
6.98205e-05
4.70862e-05
6.98531e-05
6.98806e-05
6.98544e-05
4.8022e-05
6.98263e-05
4.7087e-05
6.98587e-05
1.61923e-05
1.61922e-05
1.61923e-05
1.58372e-05
1.58372e-05
1.58371e-05
1.58372e-05
2.45012e-05
4.09214e-05
1.58344e-05
1.62446e-05
2.40178e-05
4.1438e-05
1.5734e-05
6.9881e-05
6.98543e-05
2.45016e-05
1.58344e-05
4.09225e-05
1.62449e-05
2.40181e-05
1.5734e-05
4.14399e-05
5.64319e-05
5.64447e-05
1.71272e-05
5.68588e-05
5.68703e-05
5.0133e-05
6.98958e-05
4.92888e-05
6.99269e-05
6.97908e-05
6.97669e-05
5.01334e-05
6.99015e-05
4.92917e-05
6.99324e-05
1.57254e-05
1.57253e-05
1.57254e-05
1.54071e-05
1.54071e-05
1.54071e-05
1.54072e-05
2.60491e-05
4.24527e-05
1.54594e-05
1.61296e-05
2.55233e-05
4.29393e-05
1.53758e-05
6.97908e-05
6.97669e-05
2.60494e-05
1.54594e-05
4.2454e-05
1.613e-05
2.55237e-05
1.53758e-05
4.29429e-05
5.74043e-05
5.74166e-05
1.73919e-05
5.77837e-05
5.77961e-05
5.19724e-05
6.99669e-05
5.12383e-05
6.99957e-05
6.97074e-05
6.96842e-05
5.19742e-05
6.99724e-05
5.12395e-05
7.00012e-05
1.53073e-05
1.53072e-05
1.53073e-05
1.50253e-05
1.50252e-05
1.50253e-05
1.50253e-05
2.76947e-05
4.38854e-05
1.51518e-05
1.61103e-05
2.71418e-05
4.43409e-05
1.50849e-05
6.97073e-05
6.96849e-05
2.76949e-05
1.51518e-05
4.388e-05
1.61108e-05
2.71421e-05
1.50849e-05
4.43489e-05
5.82617e-05
5.82726e-05
1.77836e-05
5.85864e-05
5.85992e-05
5.35406e-05
7.00326e-05
5.29174e-05
7.00586e-05
6.96294e-05
6.96078e-05
5.35422e-05
7.0038e-05
5.29189e-05
7.00642e-05
1.49374e-05
1.49374e-05
1.49374e-05
1.46907e-05
1.46907e-05
1.46907e-05
1.46908e-05
2.93912e-05
4.52107e-05
1.49118e-05
1.61794e-05
2.88267e-05
4.56363e-05
1.48616e-05
6.96293e-05
6.96086e-05
2.93914e-05
1.49119e-05
4.52051e-05
1.618e-05
2.8827e-05
1.48617e-05
4.56446e-05
5.90155e-05
5.90271e-05
1.82975e-05
5.92903e-05
5.9303e-05
5.48577e-05
7.00915e-05
5.43358e-05
7.01147e-05
6.95572e-05
6.95373e-05
5.48591e-05
7.00971e-05
5.43373e-05
7.01206e-05
1.46145e-05
1.46145e-05
1.46146e-05
1.44027e-05
1.44027e-05
1.44028e-05
1.44029e-05
3.10966e-05
4.64285e-05
1.47401e-05
1.63406e-05
3.0532e-05
4.68277e-05
1.47068e-05
6.9557e-05
6.95379e-05
3.10961e-05
1.47403e-05
4.64232e-05
1.63412e-05
3.05328e-05
1.4707e-05
4.68349e-05
5.96758e-05
5.96878e-05
1.89247e-05
5.9917e-05
5.99293e-05
5.59556e-05
7.01435e-05
5.55208e-05
7.01638e-05
6.94904e-05
6.94726e-05
5.5957e-05
7.01493e-05
5.55224e-05
7.01699e-05
1.43382e-05
1.43384e-05
1.43384e-05
1.41612e-05
1.41612e-05
1.41613e-05
1.41613e-05
3.27738e-05
4.75439e-05
1.46375e-05
1.65907e-05
3.22127e-05
4.79182e-05
1.46213e-05
6.94902e-05
6.94728e-05
3.27733e-05
1.46378e-05
4.75402e-05
1.65915e-05
3.22133e-05
1.46215e-05
4.79239e-05
6.02604e-05
6.02725e-05
1.96527e-05
6.04785e-05
6.04907e-05
5.6871e-05
7.0189e-05
5.65078e-05
7.02067e-05
6.94292e-05
6.94134e-05
5.68724e-05
7.0195e-05
5.65094e-05
7.02128e-05
1.4108e-05
1.41082e-05
1.41083e-05
1.39651e-05
1.39652e-05
1.39653e-05
1.39655e-05
3.43886e-05
4.85662e-05
1.46048e-05
1.69275e-05
3.38403e-05
4.89149e-05
1.46073e-05
6.94291e-05
6.94134e-05
3.43881e-05
1.46051e-05
4.85626e-05
1.69285e-05
3.38407e-05
1.46076e-05
4.89199e-05
6.0782e-05
6.07941e-05
2.04695e-05
6.09831e-05
6.09952e-05
5.76398e-05
7.02288e-05
5.73335e-05
7.02444e-05
6.9374e-05
6.93598e-05
5.76415e-05
7.02349e-05
5.73351e-05
7.02506e-05
1.39234e-05
1.39235e-05
1.39237e-05
1.38146e-05
1.38145e-05
1.38149e-05
1.38149e-05
3.59198e-05
4.95013e-05
1.464e-05
1.73478e-05
3.53909e-05
4.98287e-05
1.46599e-05
6.93737e-05
6.93597e-05
3.59194e-05
1.46403e-05
4.9498e-05
1.73486e-05
3.53913e-05
1.46603e-05
4.98318e-05
6.12521e-05
6.1264e-05
2.13639e-05
6.14382e-05
6.14501e-05
5.82936e-05
7.02641e-05
5.8032e-05
7.02784e-05
6.93243e-05
6.93121e-05
5.82955e-05
7.02702e-05
5.80334e-05
7.02846e-05
1.37845e-05
1.37848e-05
1.37848e-05
1.37094e-05
1.37094e-05
1.37099e-05
1.37096e-05
3.73552e-05
5.03577e-05
1.47452e-05
1.78478e-05
3.68496e-05
5.06676e-05
1.47823e-05
6.93242e-05
6.93117e-05
3.7355e-05
1.47456e-05
5.03559e-05
1.78485e-05
3.68499e-05
1.47827e-05
5.06696e-05
6.16782e-05
6.16901e-05
2.23205e-05
6.18506e-05
6.18623e-05
5.88583e-05
7.02962e-05
5.86314e-05
7.03097e-05
6.92802e-05
6.92702e-05
5.88601e-05
7.03023e-05
5.86327e-05
7.0316e-05
1.36906e-05
1.36911e-05
1.36909e-05
1.36496e-05
1.36497e-05
1.36499e-05
1.36501e-05
3.86902e-05
5.11447e-05
1.49191e-05
1.84236e-05
3.82098e-05
5.14399e-05
1.49733e-05
6.92805e-05
6.92699e-05
3.86901e-05
1.49196e-05
5.11434e-05
1.84253e-05
3.82098e-05
1.49739e-05
5.14433e-05
6.20689e-05
6.20807e-05
2.33258e-05
6.22269e-05
6.22386e-05
5.9354e-05
7.03265e-05
5.91536e-05
7.03396e-05
6.92418e-05
6.92338e-05
5.93557e-05
7.03325e-05
5.91552e-05
7.03457e-05
1.36419e-05
1.36427e-05
1.36428e-05
1.36363e-05
1.36361e-05
1.36367e-05
1.36366e-05
3.99262e-05
5.18718e-05
1.51608e-05
1.9069e-05
3.94713e-05
5.21517e-05
1.52316e-05
6.92417e-05
6.92341e-05
3.9926e-05
1.51615e-05
5.18685e-05
1.90712e-05
3.94711e-05
1.52326e-05
5.21555e-05
6.24317e-05
6.24434e-05
2.43681e-05
6.25728e-05
6.25845e-05
5.97963e-05
7.03563e-05
5.9616e-05
7.0369e-05
6.92095e-05
6.92035e-05
5.9798e-05
7.03624e-05
5.96179e-05
7.03751e-05
1.36391e-05
1.36397e-05
1.36397e-05
1.36659e-05
1.36661e-05
1.36669e-05
1.36672e-05
4.10686e-05
5.2547e-05
1.54694e-05
1.9782e-05
4.06382e-05
5.2813e-05
1.55567e-05
6.9209e-05
6.92036e-05
4.10684e-05
1.547e-05
5.25444e-05
1.97827e-05
4.06384e-05
1.55576e-05
5.28127e-05
6.27679e-05
6.27797e-05
2.54333e-05
6.28996e-05
6.29111e-05
6.01957e-05
7.03864e-05
6.00319e-05
7.03999e-05
6.91828e-05
6.91791e-05
6.01977e-05
7.03926e-05
6.00336e-05
7.0406e-05
1.36811e-05
1.36821e-05
1.36822e-05
1.37435e-05
1.37436e-05
1.3744e-05
1.37441e-05
4.21248e-05
5.31762e-05
1.58427e-05
2.05537e-05
4.17192e-05
5.34268e-05
1.59463e-05
6.91827e-05
6.9179e-05
4.2125e-05
1.58436e-05
5.31774e-05
2.0555e-05
4.17192e-05
1.59472e-05
5.34262e-05
6.30789e-05
6.30906e-05
2.65089e-05
6.32078e-05
6.32193e-05
6.0562e-05
7.04175e-05
6.04112e-05
7.04319e-05
6.91623e-05
6.91603e-05
6.05636e-05
7.04235e-05
6.04127e-05
7.0438e-05
1.37693e-05
1.37702e-05
1.37707e-05
1.38675e-05
1.38676e-05
1.38683e-05
1.38676e-05
4.31052e-05
5.37699e-05
1.6279e-05
2.13788e-05
4.27225e-05
5.40016e-05
1.63977e-05
6.91623e-05
6.91606e-05
4.31052e-05
1.62799e-05
5.37692e-05
2.13825e-05
4.27223e-05
1.63993e-05
5.40037e-05
6.33725e-05
6.3384e-05
2.75868e-05
6.34963e-05
6.3508e-05
6.09008e-05
7.04507e-05
6.07604e-05
7.04659e-05
6.91481e-05
6.9148e-05
6.09027e-05
7.04568e-05
6.07621e-05
7.04722e-05
1.3906e-05
1.39061e-05
1.39057e-05
1.40355e-05
1.40334e-05
1.40349e-05
1.40358e-05
4.40187e-05
5.43262e-05
1.67779e-05
2.22562e-05
4.36562e-05
5.45477e-05
1.69108e-05
6.91475e-05
6.91482e-05
4.40184e-05