/*--------------------------------*- C++ -*----------------------------------*\
| =========                 |                                                 |
| \\      /  F ield         | OpenFOAM: The Open Source CFD Toolbox           |
|  \\    /   O peration     | Version:  v2012                                 |
|   \\  /    A nd           | Website:  www.openfoam.com                      |
|    \\/     M anipulation  |                                                 |
\*---------------------------------------------------------------------------*/
FoamFile
{
    version     2.0;
    format      ascii;
    class       volScalarField;
    location    "375";
    object      nut;
}
// * * * * * * * * * * * * * * * * * * * * * * * * * * * * * * * * * * * * * //

dimensions      [0 2 -1 0 0 0 0];


internalField   nonuniform List<scalar> 
85864
(
0.000233973
0.000233116
0.000233116
0.000233423
0.000232532
0.000227802
0.000227801
0.000223867
0.000230516
0.00022032
0.000220318
0.000209109
0.000227799
0.000211665
0.000211661
0.000193785
0.000224433
0.00020265
0.000202644
0.000179709
0.000220552
0.000193772
0.000193765
0.000167339
0.000216304
0.000185275
0.000185267
0.000156587
0.00021182
0.000177234
0.000177226
0.000147206
0.000207207
0.000169688
0.00016968
0.00013895
0.000202545
0.000162611
0.000162603
0.000131614
0.000197889
0.000155949
0.000155941
0.000124954
0.000193275
0.000149646
0.000149638
0.000118816
0.000188683
0.000143665
0.000143657
0.000113166
0.000184151
0.000137952
0.000137943
0.000107933
0.000179706
0.000132462
0.000132454
0.000103055
0.000175338
0.00012719
0.000127181
9.84357e-05
0.000171035
0.00012215
0.000122141
9.42514e-05
0.000166785
0.000117371
0.00011736
9.06584e-05
0.000162587
0.000112887
0.000112877
8.77319e-05
0.000158414
0.000108755
0.000108744
8.53863e-05
0.000154263
0.000105025
0.000105015
8.3666e-05
0.000150142
0.000101712
0.000101702
8.2576e-05
0.000146062
9.88944e-05
9.88862e-05
8.20938e-05
0.000142046
9.65823e-05
9.65776e-05
8.21471e-05
0.000138115
9.47941e-05
9.47877e-05
8.26845e-05
0.000134294
9.35213e-05
9.35136e-05
8.366e-05
0.000130634
9.27519e-05
9.27505e-05
8.50139e-05
0.000127154
9.24649e-05
9.24664e-05
8.66872e-05
0.000123894
9.26384e-05
9.26324e-05
8.86433e-05
0.000120905
9.32396e-05
9.32361e-05
9.07861e-05
0.000118183
9.42193e-05
9.42264e-05
9.31006e-05
0.000115782
9.55667e-05
9.55637e-05
9.5556e-05
0.000113739
9.72562e-05
9.72398e-05
9.81189e-05
0.000112035
9.91459e-05
9.91745e-05
0.000100708
0.000110628
0.000101365
0.000101329
0.000103377
0.000109795
0.000103792
0.000103845
0.000106046
0.000108931
0.000106308
0.000106229
0.000108883
0.000109065
0.000109121
0.000109216
0.000111461
0.000108698
0.000111936
0.00011185
0.000114268
0.000109693
0.00011492
0.000115018
0.000116974
0.000109994
0.000117977
0.000117812
0.000119671
0.000111444
0.00012098
0.000121305
0.000122373
0.000112723
0.000124383
0.000123923
0.000124857
0.000114492
0.000127323
0.000127719
0.000127792
0.000116438
0.000130618
0.00013046
0.000130133
0.000118635
0.000133815
0.000133828
0.000132741
0.000121102
0.000136981
0.000137006
0.000135288
0.000234266
0.000234448
0.000234449
0.000234267
0.000234448
0.000234449
0.000234274
0.000234274
0.000234274
0.000234274
0.000234448
0.000234448
0.000234266
0.000234448
0.000234448
0.000234266
0.000233423
0.000226204
0.000233116
0.000233114
0.000229361
0.000229357
0.000233423
0.000226205
0.000233114
0.000233114
0.000229359
0.000229356
0.000233116
0.000229364
0.000229361
0.000233423
0.000226202
0.000233114
0.000229363
0.000229359
0.000226202
0.000223867
0.00021223
0.000227799
0.000227794
0.000222332
0.000222326
0.000223868
0.000212234
0.000227797
0.000227792
0.000222332
0.000222323
0.000227798
0.000222339
0.000222331
0.000223866
0.000212227
0.000227797
0.000222336
0.000222331
0.000212228
0.000209111
0.00019706
0.000220313
0.000220307
0.000213879
0.000213874
0.000209112
0.000197066
0.000220314
0.000220304
0.000213883
0.000213869
0.000220311
0.00021389
0.000213877
0.000209108
0.000197057
0.000220313
0.000213886
0.000213882
0.000197058
0.000193788
0.000182876
0.000211654
0.000211648
0.00020489
0.000204884
0.000193792
0.000182883
0.000211658
0.000211643
0.000204897
0.000204879
0.000211651
0.000204905
0.000204887
0.000193784
0.000182872
0.000211657
0.000204899
0.000204896
0.000182872
0.000179713
0.000170268
0.000202634
0.000202628
0.000195943
0.000195937
0.000179717
0.000170274
0.000202643
0.000202622
0.000195954
0.000195931
0.000202631
0.000195962
0.00019594
0.000179708
0.000170263
0.000202641
0.000195955
0.000195953
0.000170264
0.000167344
0.000159242
0.000193753
0.000193747
0.000187336
0.000187331
0.000167349
0.000159249
0.000193765
0.000193741
0.000187351
0.000187324
0.00019375
0.000187359
0.000187333
0.000167339
0.000159238
0.000193764
0.000187351
0.00018735
0.000159238
0.000156592
0.000149613
0.000185253
0.000185247
0.000179173
0.000179167
0.000156597
0.00014962
0.000185268
0.00018524
0.000179191
0.00017916
0.000185249
0.000179198
0.00017917
0.000156587
0.000149608
0.000185267
0.000179189
0.00017919
0.000149608
0.000147212
0.000141107
0.000177208
0.000177203
0.000171501
0.000171496
0.000147216
0.000141113
0.000177227
0.000177195
0.000171521
0.000171488
0.000177205
0.000171529
0.000171498
0.000147206
0.000141101
0.000177225
0.00017152
0.000171521
0.000141101
0.000138956
0.000133547
0.00016966
0.000169655
0.000164309
0.000164304
0.000138961
0.000133554
0.000169681
0.000169647
0.000164332
0.000164296
0.000169658
0.000164339
0.000164307
0.00013895
0.000133541
0.00016968
0.000164331
0.000164332
0.000133541
0.000131621
0.000126686
0.000162581
0.000162576
0.000157546
0.000157541
0.000131627
0.000126693
0.000162605
0.000162567
0.000157572
0.000157533
0.000162578
0.000157579
0.000157545
0.000131615
0.000126679
0.000162604
0.00015757
0.000157571
0.000126679
0.000124961
0.000120361
0.000155916
0.000155912
0.000151157
0.000151152
0.000124966
0.00012037
0.000155942
0.000155903
0.000151184
0.000151144
0.000155915
0.000151192
0.000151156
0.000124954
0.000120355
0.000155942
0.000151183
0.000151184
0.000120355
0.000118821
0.000114425
0.000149612
0.000149607
0.000145096
0.00014509
0.000118828
0.000114432
0.000149639
0.000149599
0.000145124
0.000145083
0.000149611
0.000145132
0.000145095
0.000118816
0.000114418
0.000149639
0.000145123
0.000145124
0.000114418
0.000113175
0.000108834
0.00014363
0.000143624
0.000139318
0.000139313
0.000113179
0.000108843
0.000143658
0.000143616
0.000139347
0.000139305
0.000143629
0.000139356
0.000139319
0.000113167
0.00010883
0.000143658
0.000139347
0.000139348
0.000108828
0.000107938
0.000103702
0.000137916
0.000137909
0.000133776
0.00013377
0.000107945
0.000103707
0.000137944
0.000137901
0.000133805
0.000133762
0.000137915
0.000133814
0.000133776
0.000107934
0.000103695
0.000137944
0.000133805
0.000133805
0.000103693
0.000103064
9.91272e-05
0.000132425
0.000132418
0.000128446
0.000128438
0.000103069
9.91336e-05
0.000132453
0.000132411
0.000128474
0.000128431
0.000132425
0.000128485
0.000128447
0.000103058
9.91219e-05
0.000132454
0.000128475
0.000128476
9.91201e-05
9.84423e-05
9.4991e-05
0.000127151
0.000127143
0.000123345
0.000123337
9.84478e-05
9.49951e-05
0.000127178
0.000127136
0.000123371
0.000123329
0.000127152
0.000123385
0.000123347
9.84364e-05
9.49831e-05
0.000127181
0.000123374
0.000123375
9.49827e-05
9.42594e-05
9.1436e-05
0.000122111
0.000122103
0.000118477
0.00011847
9.42635e-05
9.14411e-05
0.000122137
0.000122096
0.000118502
0.000118461
0.000122113
0.000118517
0.00011848
9.42527e-05
9.14307e-05
0.000122141
0.000118506
0.000118507
9.14289e-05
9.0664e-05
8.83752e-05
0.000117331
0.000117324
0.000113921
0.000113916
9.06698e-05
8.83812e-05
0.000117356
0.000117314
0.000113945
0.000113905
0.000117334
0.000113962
0.000113926
9.066e-05
8.83707e-05
0.000117361
0.000113951
0.000113951
8.83714e-05
8.77357e-05
8.59101e-05
0.000112847
0.000112841
0.00010969
0.000109685
8.77415e-05
8.59141e-05
0.00011287
0.000112831
0.000109714
0.000109675
0.000112851
0.000109731
0.000109696
8.77292e-05
8.5903e-05
0.000112877
0.00010972
0.00010972
8.59056e-05
8.5391e-05
8.40701e-05
0.000108716
0.000108709
0.000105847
0.00010584
8.53962e-05
8.40754e-05
0.000108737
0.000108699
0.000105869
0.000105831
0.000108721
0.000105886
0.000105853
8.53854e-05
8.40672e-05
0.000108745
0.000105876
0.000105876
8.40662e-05
8.36694e-05
8.28592e-05
0.000104988
0.000104979
0.000102454
0.000102444
8.36762e-05
8.28626e-05
0.000105008
0.00010497
0.000102472
0.000102436
0.000104992
0.00010249
0.000102458
8.36693e-05
8.28577e-05
0.000105015
0.000102481
0.00010248
8.28533e-05
8.25795e-05
8.22616e-05
0.000101676
0.000101666
9.95168e-05
9.95043e-05
8.25843e-05
8.22608e-05
0.000101694
0.000101658
9.95334e-05
9.94984e-05
0.000101681
9.95491e-05
9.95204e-05
8.2579e-05
8.22578e-05
0.000101703
9.95414e-05
9.95412e-05
8.22518e-05
8.20988e-05
8.22054e-05
9.88616e-05
9.88501e-05
9.70803e-05
9.70677e-05
8.20996e-05
8.22097e-05
9.88786e-05
9.88429e-05
9.70954e-05
9.70624e-05
9.88651e-05
9.7111e-05
9.70841e-05
8.20955e-05
8.22032e-05
9.8886e-05
9.71037e-05
9.71039e-05
8.21986e-05
8.21491e-05
8.26503e-05
9.65545e-05
9.65397e-05
9.51659e-05
9.51521e-05
8.21531e-05
8.265e-05
9.657e-05
9.65361e-05
9.51797e-05
9.51455e-05
9.65583e-05
9.51935e-05
9.51657e-05
8.21465e-05
8.26449e-05
9.65776e-05
9.5185e-05
9.51833e-05
8.2642e-05
8.26908e-05
8.35272e-05
9.47658e-05
9.47535e-05
9.37637e-05
9.37506e-05
8.26944e-05
8.35326e-05
9.478e-05
9.47482e-05
9.37761e-05
9.3747e-05
9.47689e-05
9.379e-05
9.3766e-05
8.26876e-05
8.35318e-05
9.47861e-05
9.37844e-05
9.37817e-05
8.35307e-05
8.36585e-05
8.48094e-05
9.34975e-05
9.34828e-05
9.28702e-05
9.28577e-05
8.36633e-05
8.48122e-05
9.35103e-05
9.34762e-05
9.28813e-05
9.28587e-05
9.34987e-05
9.28949e-05
9.2874e-05
8.36633e-05
8.48046e-05
9.3514e-05
9.2894e-05
9.28881e-05
8.48118e-05
8.50113e-05
8.64251e-05
9.27282e-05
9.27156e-05
9.24688e-05
9.24542e-05
8.50152e-05
8.64249e-05
9.27397e-05
9.27153e-05
9.24786e-05
9.24512e-05
9.27319e-05
9.24892e-05
9.24691e-05
8.5016e-05
8.64083e-05
9.27456e-05
9.24843e-05
9.24815e-05
8.64226e-05
8.66953e-05
8.83125e-05
9.24434e-05
9.24311e-05
9.25411e-05
9.25258e-05
8.66909e-05
8.83217e-05
9.24534e-05
9.24334e-05
9.25496e-05
9.25164e-05
9.24427e-05
9.25585e-05
9.25428e-05
8.66778e-05
8.83186e-05
9.24547e-05
9.25472e-05
9.25535e-05
8.83182e-05
8.86398e-05
9.04083e-05
9.26176e-05
9.26067e-05
9.30389e-05
9.30176e-05
8.86396e-05
9.04235e-05
9.26265e-05
9.26016e-05
9.30463e-05
9.30236e-05
9.2625e-05
9.30483e-05
9.30365e-05
8.8632e-05
9.04335e-05
9.26356e-05
9.30525e-05
9.3046e-05
9.04159e-05
9.07841e-05
9.26921e-05
9.32349e-05
9.321e-05
9.39121e-05
9.39113e-05
9.0789e-05
9.27161e-05
9.32429e-05
9.32075e-05
9.39176e-05
9.39168e-05
9.32274e-05
9.394e-05
9.39318e-05
9.08033e-05
9.27038e-05
9.32366e-05
9.39439e-05
9.39399e-05
9.27039e-05
9.30792e-05
9.51522e-05
9.42035e-05
9.41916e-05
9.51915e-05
9.51832e-05
9.3118e-05
9.51273e-05
9.42094e-05
9.41992e-05
9.51967e-05
9.51699e-05
9.4217e-05
9.52103e-05
9.51864e-05
9.31124e-05
9.51174e-05
9.42248e-05
9.5195e-05
9.5193e-05
9.5135e-05
9.55742e-05
9.76514e-05
9.55503e-05
9.55405e-05
9.67884e-05
9.67748e-05
9.55676e-05
9.76422e-05
9.55556e-05
9.55389e-05
9.67922e-05
9.67795e-05
9.55554e-05
9.68006e-05
9.67884e-05
9.55517e-05
9.76575e-05
9.55618e-05
9.68033e-05
9.67943e-05
9.76677e-05
9.81029e-05
0.000100248
9.72247e-05
9.72302e-05
9.86376e-05
9.86034e-05
9.80933e-05
0.000100248
9.72287e-05
9.72155e-05
9.86402e-05
9.86099e-05
9.72285e-05
9.86271e-05
9.86432e-05
9.81014e-05
0.000100241
9.72338e-05
9.86316e-05
9.86472e-05
0.000100239
0.000100708
0.000102923
9.91744e-05
9.91227e-05
0.000100773
0.000100809
0.000100695
0.000102931
9.91777e-05
9.91534e-05
0.000100776
0.000100802
9.91532e-05
0.000100835
0.000100825
0.000100706
0.000102932
9.91575e-05
0.000100826
0.000100829
0.000102915
0.000103389
0.000105602
0.000101304
0.00010134
0.000103198
0.000103091
0.000103409
0.000105556
0.000101305
0.000101305
0.000103201
0.000103116
0.000101386
0.000103111
0.00010306
0.000103388
0.000105568
0.000101388
0.000103131
0.000103064
0.000105576
0.000106111
0.000108239
0.000103838
0.000103772
0.000105547
0.000105686
0.000106049
0.000108361
0.000103843
0.00010383
0.000105544
0.000105636
0.000103725
0.000105715
0.000105783
0.000106079
0.000108342
0.00010373
0.000105665
0.000105783
0.000108397
0.000108702
0.000111165
0.000106226
0.000106279
0.000108585
0.000108345
0.000108807
0.000110996
0.000106222
0.000106201
0.000108592
0.000108448
0.000106365
0.000108357
0.000108327
0.000108773
0.00011102
0.000106363
0.000108456
0.000108333
0.000110948
0.000111659
0.000113575
0.00010923
0.000109108
0.000110947
0.000111251
0.000111535
0.000113797
0.000109238
0.000109204
0.000110937
0.000111078
0.000109111
0.000111285
0.000111232
0.000111572
0.000113738
0.000109118
0.00011111
0.000111225
0.000113822
0.000114056
0.000116728
0.000111756
0.000111906
0.000114454
0.000114068
0.000114247
0.000116423
0.000111749
0.000111823
0.000114474
0.000114362
0.000111887
0.000114077
0.000114171
0.000114179
0.000116594
0.000111883
0.000114371
0.000114189
0.000116439
0.000117227
0.000118927
0.000115114
0.00011491
0.000116939
0.000117289
0.000116939
0.000119281
0.000115129
0.000115007
0.000116913
0.000116861
0.000114949
0.000117318
0.000117185
0.000117087
0.000118952
0.000114961
0.000116887
0.000117162
0.000119207
0.000119399
0.000122028
0.00011777
0.000117946
0.000120404
0.000120089
0.000119721
0.000121697
0.000117754
0.000117784
0.000120439
0.00012065
0.000118002
0.00012011
0.000120374
0.000119461
0.000122171
0.000117987
0.000120672
0.000120407
0.000121935
0.000122508
0.00012444
0.000121157
0.000120964
0.000123384
0.000123602
0.000122213
0.000124703
0.000121185
0.000121288
0.000123357
0.000123037
0.000121047
0.000123612
0.000123245
0.000122612
0.000124175
0.000121073
0.000123045
0.000123218
0.000124345
0.000124913
0.000127201
0.000124198
0.000124369
0.000126634
0.000126528
0.000125162
0.000127066
0.000124172
0.000123912
0.000126654
0.000126882
0.00012413
0.000126555
0.000126787
0.000124652
0.000127435
0.000124103
0.000126911
0.000126806
0.000127336
0.000127653
0.000129739
0.000127418
0.000127295
0.000129794
0.000129769
0.000127501
0.000129746
0.000127445
0.000127689
0.000129797
0.000129703
0.000127571
0.000129787
0.000129787
0.000127928
0.00012963
0.000127597
0.000129722
0.000129789
0.000129708
0.000130191
0.000132312
0.000130599
0.000130603
0.000132987
0.000133015
0.00013022
0.00013234
0.000130594
0.000130445
0.000132984
0.000132966
0.000130553
0.00013303
0.00013296
0.000130026
0.000132319
0.000130547
0.000132983
0.000132958
0.000132288
0.000132748
0.000134837
0.000133779
0.000133798
0.000136178
0.000136165
0.000132767
0.000134831
0.000133782
0.000133809
0.000136186
0.000136207
0.000133774
0.000136183
0.000136195
0.000132797
0.000134862
0.000133777
0.000136227
0.000136203
0.000134858
0.000135271
0.000137329
0.000136978
0.000136962
0.000139354
0.000139353
0.000135264
0.000137332
0.000136986
0.000136986
0.000139356
0.000139314
0.000137
0.000139373
0.000139385
0.000135273
0.000137297
0.000137007
0.000139336
0.000139387
0.000137344
0.00023473
0.000234746
0.000234729
0.000234729
0.000235117
0.000234798
0.000234701
0.000234727
0.000235118
0.000234798
0.000234727
0.000234701
0.000234867
0.000233566
0.000233566
0.000104651
3.87411e-05
0.000129118
3.98249e-05
2.16834e-05
2.28313e-05
0.000104643
3.87371e-05
0.000129114
3.98214e-05
0.000233973
0.000233973
0.000233973
0.000232935
0.000232935
0.000232935
0.000232935
0.000206196
9.36752e-05
0.000233969
0.000231994
0.000222614
8.72226e-05
0.000233611
2.16823e-05
2.28307e-05
0.00020619
0.000233969
9.36747e-05
0.000231994
0.000222622
0.000233611
8.72282e-05
4.78013e-05
4.77895e-05
0.000231345
4.40184e-05
4.40089e-05
7.25677e-05
4.2434e-05
8.14027e-05
4.37634e-05
2.47749e-05
2.54634e-05
7.25581e-05
4.24305e-05
8.13974e-05
4.37596e-05
0.000232532
0.000232532
0.000232532
0.000231084
0.000231084
0.000231083
0.000231084
0.000167491
7.9439e-05
0.000232081
0.000226097
0.000180211
7.4508e-05
0.000231376
2.47731e-05
2.54619e-05
0.000167487
0.000232081
7.94328e-05
0.000226096
0.000180204
0.000231375
7.4511e-05
3.91645e-05
3.91542e-05
0.000219593
3.65758e-05
3.6565e-05
5.62773e-05
4.55466e-05
6.11325e-05
4.64126e-05
2.60134e-05
2.61173e-05
5.62814e-05
4.55439e-05
6.11278e-05
4.64097e-05
0.000230516
0.000230515
0.000230515
0.000228543
0.000228543
0.000228541
0.000228542
0.000138601
6.74261e-05
0.000228643
0.000218231
0.000148065
6.35185e-05
0.000227537
2.60111e-05
2.61152e-05
0.000138596
0.000228643
6.742e-05
0.000218228
0.000148057
0.000227534
6.35148e-05
3.32183e-05
3.32097e-05
0.000204613
3.1992e-05
3.1983e-05
4.69657e-05
4.74991e-05
4.99089e-05
4.80043e-05
2.60471e-05
2.59392e-05
4.69648e-05
4.74957e-05
4.99095e-05
4.80015e-05
0.000227799
0.000227797
0.000227798
0.000225328
0.000225329
0.000225326
0.000225327
0.000117548
5.82051e-05
0.000223721
0.00020942
0.000124602
5.54861e-05
0.00022231
2.60446e-05
2.59372e-05
0.000117545
0.000223719
5.82035e-05
0.000209415
0.000124595
0.000222306
5.54828e-05
3.06179e-05
3.061e-05
0.000189779
3.03048e-05
3.02971e-05
4.14286e-05
4.85824e-05
4.32437e-05
4.88394e-05
2.56753e-05
2.55199e-05
4.14276e-05
4.8579e-05
4.32442e-05
4.88366e-05
0.000224433
0.000224431
0.000224432
0.000221562
0.000221563
0.000221559
0.000221561
0.000102113
5.18772e-05
0.000217771
0.000200404
0.00010738
5.00764e-05
0.000216181
2.56727e-05
2.5518e-05
0.000102111
0.000217769
5.18758e-05
0.000200398
0.000107374
0.000216177
5.00738e-05
3.01819e-05
3.01758e-05
0.000176368
3.04028e-05
3.03951e-05
3.8156e-05
4.90932e-05
3.92423e-05
4.91983e-05
2.52376e-05
2.5094e-05
3.81549e-05
4.90899e-05
3.92424e-05
4.91952e-05
0.000220552
0.000220549
0.00022055
0.000217392
0.000217393
0.000217389
0.000217391
9.04958e-05
4.77378e-05
0.000211269
0.000191607
9.44601e-05
4.6613e-05
0.000209603
2.5235e-05
2.50922e-05
9.04948e-05
0.000211267
4.77367e-05
0.0001916
9.44542e-05
0.000209598
4.66108e-05
3.0968e-05
3.0962e-05
0.000164561
3.15691e-05
3.15629e-05
3.63746e-05
4.92746e-05
3.69398e-05
4.92961e-05
2.48485e-05
2.47327e-05
3.63734e-05
4.92716e-05
3.69396e-05
4.92929e-05
0.000216305
0.0002163
0.000216302
0.000212957
0.000212957
0.000212952
0.000212955
8.15891e-05
4.51673e-05
0.000204579
0.000183219
8.4672e-05
4.45532e-05
0.000202907
2.48461e-05
2.47309e-05
8.15888e-05
0.000204576
4.51665e-05
0.000183211
8.46662e-05
0.000202902
4.45504e-05
3.25203e-05
3.25152e-05
0.000154267
3.33523e-05
3.33469e-05
3.56768e-05
4.92919e-05
3.58213e-05
4.92821e-05
2.45348e-05
2.4447e-05
3.56745e-05
4.92888e-05
3.58208e-05
4.92789e-05
0.000211821
0.000211816
0.000211818
0.000208367
0.000208368
0.000208362
0.000208365
7.46438e-05
4.37719e-05
0.000197938
0.000175301
7.71194e-05
4.35231e-05
0.000196304
2.45325e-05
2.4445e-05
7.46437e-05
0.000197935
4.37701e-05
0.000175292
7.71139e-05
0.000196298
4.35205e-05
3.45555e-05
3.45509e-05
0.00014522
3.5515e-05
3.55109e-05
3.57597e-05
4.92555e-05
3.56388e-05
4.9244e-05
2.42942e-05
2.42289e-05
3.57576e-05
4.92525e-05
3.56375e-05
4.92409e-05
0.000207208
0.000207202
0.000207204
0.000203711
0.000203712
0.000203705
0.000203708
6.91751e-05
4.32434e-05
0.000191483
0.000167877
7.12036e-05
4.32352e-05
0.000189901
2.42922e-05
2.42269e-05
6.91745e-05
0.00019148
4.32421e-05
0.000167868
7.11986e-05
0.000189895
4.32334e-05
3.68734e-05
3.68699e-05
0.000137218
3.79021e-05
3.78994e-05
3.6554e-05
4.92263e-05
3.62066e-05
4.92223e-05
2.41154e-05
2.40679e-05
3.65592e-05
4.92234e-05
3.62056e-05
4.92193e-05
0.000202546
0.000202539
0.000202542
0.000199049
0.00019905
0.000199043
0.000199046
6.48676e-05
4.33831e-05
0.00018524
0.000160909
6.65084e-05
4.35664e-05
0.000183717
2.41134e-05
2.40659e-05
6.48657e-05
0.000185237
4.33824e-05
0.0001609
6.65053e-05
0.000183711
4.3565e-05
3.93405e-05
3.93374e-05
0.000130035
4.04105e-05
4.04092e-05
3.80504e-05
4.92217e-05
3.73784e-05
4.92269e-05
2.39858e-05
2.39522e-05
3.80593e-05
4.92187e-05
3.73636e-05
4.9224e-05
0.000197891
0.000197883
0.000197887
0.000194421
0.000194422
0.000194415
0.000194418
6.15076e-05
4.40642e-05
0.000179254
0.000154342
6.27534e-05
4.4406e-05
0.000177803
2.39839e-05
2.39502e-05
6.15062e-05
0.000179252
4.40638e-05
0.000154333
6.27512e-05
0.000177796
4.44053e-05
4.18721e-05
4.18701e-05
0.000123457
4.29331e-05
4.2933e-05
4.01085e-05
4.92394e-05
3.91187e-05
4.92526e-05
2.38939e-05
2.38706e-05
4.01099e-05
4.92366e-05
3.91183e-05
4.92497e-05
0.000193277
0.000193269
0.000193273
0.00018983
0.000189831
0.000189823
0.000189827
5.90059e-05
4.51943e-05
0.000173549
0.000148122
5.98514e-05
4.56671e-05
0.000172164
2.3892e-05
2.38687e-05
5.90043e-05
0.000173547
4.51943e-05
0.000148113
5.98493e-05
0.000172157
4.56665e-05
4.43691e-05
4.43681e-05
0.000117343
4.53948e-05
4.53957e-05
4.26542e-05
4.92732e-05
4.14165e-05
4.92899e-05
2.38297e-05
2.38135e-05
4.26422e-05
4.92704e-05
4.14241e-05
4.92871e-05
0.000188684
0.000188676
0.00018868
0.000185274
0.000185275
0.000185267
0.000185271
5.72059e-05
4.66961e-05
0.000168096
0.000142213
5.77208e-05
4.72768e-05
0.000166769
2.38277e-05
2.38115e-05
5.7204e-05
0.000168094
4.66963e-05
0.000142204
5.77189e-05
0.000166763
4.72765e-05
4.67664e-05
4.67663e-05
0.000111573
4.77308e-05
4.77326e-05
4.55803e-05
4.93127e-05
4.42101e-05
4.93296e-05
2.37844e-05
2.3773e-05
4.5574e-05
4.93101e-05
4.42147e-05
4.93269e-05
0.000184152
0.000184143
0.000184148
0.000180808
0.00018081
0.000180801
0.000180805
5.60346e-05
4.84964e-05
0.000162861
0.000136559
5.63294e-05
4.91595e-05
0.000161583
2.37824e-05
2.3771e-05
5.60328e-05
0.000162859
4.84967e-05
0.00013655
5.63276e-05
0.000161576
4.91591e-05
4.90025e-05
4.90032e-05
0.000106193
4.99277e-05
4.99299e-05
4.88286e-05
4.93515e-05
4.73457e-05
4.93671e-05
2.37515e-05
2.37432e-05
4.88153e-05
4.9349e-05
4.73578e-05
4.93645e-05
0.000179708
0.000179699
0.000179703
0.000176421
0.000176423
0.000176414
0.000176419
5.55218e-05
5.05196e-05
0.00015781
0.000131121
5.55998e-05
5.12397e-05
0.000156574
2.37496e-05
2.37413e-05
5.55201e-05
0.000157809
5.05198e-05
0.000131113
5.55983e-05
0.000156568
5.12393e-05
5.10863e-05
5.10877e-05
0.000101351
5.19282e-05
5.19306e-05
5.22617e-05
4.93871e-05
5.0724e-05
4.94013e-05
2.37263e-05
2.37196e-05
5.2253e-05
4.93846e-05
5.07285e-05
4.93987e-05
0.00017534
0.000175331
0.000175336
0.000172103
0.000172105
0.000172096
0.000172101
5.56463e-05
5.26922e-05
0.000152914
0.000125905
5.55171e-05
5.34467e-05
0.000151715
2.37245e-05
2.37178e-05
5.56451e-05
0.000152913
5.26923e-05
0.000125895
5.55154e-05
0.000151709
5.34466e-05
5.2974e-05
5.29758e-05
9.69907e-05
5.37448e-05
5.3747e-05
5.572e-05
4.94193e-05
5.42031e-05
4.94324e-05
2.37055e-05
2.37e-05
5.57118e-05
4.94168e-05
5.42125e-05
4.94298e-05
0.000171037
0.000171028
0.000171034
0.000167839
0.000167841
0.000167831
0.000167837
5.63848e-05
5.49473e-05
0.000148169
0.000120925
5.60557e-05
5.57163e-05
0.000147004
2.37037e-05
2.36982e-05
5.63832e-05
0.000148169
5.49477e-05
0.000120914
5.60547e-05
0.000146999
5.5716e-05
5.46764e-05
5.46785e-05
9.31311e-05
5.5396e-05
5.53976e-05
5.91078e-05
4.94491e-05
5.76226e-05
4.94613e-05
2.36875e-05
2.36827e-05
5.90973e-05
4.94466e-05
5.76313e-05
4.94587e-05
0.000166787
0.000166777
0.000166783
0.000163627
0.00016363
0.000163619
0.000163626
5.76932e-05
5.7227e-05
0.00014354
0.000116207
5.71822e-05
5.79927e-05
0.000142401
2.36858e-05
2.36807e-05
5.76921e-05
0.00014354
5.7227e-05
0.000116197
5.71807e-05
0.000142397
5.79925e-05
5.62339e-05
5.62364e-05
8.98272e-05
5.68616e-05
5.6863e-05
6.22755e-05
4.94775e-05
6.09027e-05
4.9489e-05
2.36712e-05
2.36664e-05
6.22699e-05
4.94746e-05
6.09086e-05
4.94861e-05
0.000162589
0.000162579
0.000162586
0.00015945
0.000159453
0.000159442
0.000159449
5.95074e-05
5.94832e-05
0.000139013
0.000111801
5.88378e-05
6.02305e-05
0.000137902
2.36692e-05
2.36647e-05
5.95061e-05
0.000139013
5.94826e-05
0.00011179
5.88367e-05
0.000137898
6.02306e-05
5.76214e-05
5.76256e-05
8.70607e-05
5.82084e-05
5.82078e-05
6.51855e-05
4.95039e-05
6.39179e-05
4.95146e-05
2.36558e-05
2.36518e-05
6.5176e-05
4.95013e-05
6.39281e-05
4.95122e-05
0.000158418
0.000158407
0.000158414
0.000155293
0.000155297
0.000155286
0.000155293
6.17427e-05
6.16777e-05
0.000134594
0.000107757
6.09457e-05
6.2399e-05
0.000133515
2.36539e-05
2.36499e-05
6.17417e-05
0.000134594
6.16774e-05
0.000107747
6.09443e-05
0.000133512
6.24051e-05
5.88735e-05
5.88771e-05
8.49037e-05
5.94257e-05
5.94266e-05
6.77787e-05
4.95287e-05
6.66472e-05
4.95387e-05
2.36419e-05
2.36382e-05
6.77724e-05
4.95266e-05
6.66537e-05
4.95368e-05
0.000154266
0.000154255
0.000154263
0.000151162
0.000151166
0.000151155
0.000151163
6.4307e-05
6.37858e-05
0.000130299
0.000104155
6.34125e-05
6.44845e-05
0.000129258
2.36398e-05
2.3636e-05
6.43057e-05
0.000130298
6.37689e-05
0.000104146
6.34114e-05
0.000129257
6.45019e-05
6.00268e-05
6.00275e-05
8.33827e-05
6.05197e-05
6.05215e-05
7.00627e-05
4.95518e-05
6.90689e-05
4.9561e-05
2.36289e-05
2.36252e-05
7.00558e-05
4.95499e-05
6.9076e-05
4.95591e-05
0.000150146
0.000150135
0.000150143
0.000147067
0.000147072
0.000147061
0.000147069
6.71027e-05
6.57876e-05
0.000126169
0.00010096
6.61421e-05
6.64725e-05
0.000125152
2.36265e-05
2.3623e-05
6.71013e-05
0.000126173
6.57704e-05
0.000100951
6.61412e-05
0.000125146
6.64896e-05
6.10834e-05
6.10848e-05
8.24859e-05
6.15105e-05
6.15125e-05
7.20607e-05
4.95726e-05
7.11927e-05
4.95808e-05
2.36166e-05
2.36132e-05
7.20535e-05
4.95707e-05
7.12001e-05
4.9579e-05
0.000146066
0.000146054
0.000146063
0.000143027
0.000143031
0.000143019
0.000143029
7.00465e-05
6.76838e-05
0.000122225
9.82681e-05
6.90378e-05
6.83568e-05
0.000121259
2.36143e-05
2.3611e-05
7.00422e-05
0.000122229
6.76669e-05
9.82594e-05
6.90391e-05
0.000121254
6.83712e-05
6.20393e-05
6.20411e-05
8.21686e-05
6.24248e-05
6.24266e-05
7.38084e-05
4.9591e-05
7.3048e-05
4.95982e-05
2.36052e-05
2.36022e-05
7.38013e-05
4.95892e-05
7.30554e-05
4.95965e-05
0.000142048
0.000142038
0.000142046
0.000139071
0.000139074
0.000139063
0.00013907
7.30624e-05
6.94747e-05
0.000118525
9.60858e-05
7.19951e-05
7.01326e-05
0.000117623
2.36029e-05
2.36e-05
7.30584e-05
0.000118531
6.94607e-05
9.60794e-05
7.19959e-05
0.000117619
7.01443e-05
6.29118e-05
6.29135e-05
8.23695e-05
6.32716e-05
6.3273e-05
7.53457e-05
4.96071e-05
7.46739e-05
4.96133e-05
2.35949e-05
2.35922e-05
7.53389e-05
4.96054e-05
7.46813e-05
4.96117e-05
0.00013812
0.000138109
0.000138119
0.000135231
0.000135236
0.000135223
0.000135235
7.60663e-05
7.11669e-05
0.000115125
9.44254e-05
7.49629e-05
7.18056e-05
0.00011432
2.35926e-05
2.35899e-05
7.60628e-05
0.00011513
7.11531e-05
9.44207e-05
7.4963e-05
0.000114316
7.1816e-05
6.37131e-05
6.37145e-05
8.30385e-05
6.40533e-05
6.40547e-05
7.67101e-05
4.96211e-05
7.61103e-05
4.96266e-05
2.35855e-05
2.35831e-05
7.67041e-05
4.96194e-05
7.61174e-05
4.9625e-05
0.000134295
0.000134283
0.000134294
0.000131526
0.000131526
0.000131518
0.000131527
7.90094e-05
7.27605e-05
0.000112031
9.32817e-05
7.78871e-05
7.3385e-05
0.000111318
2.35832e-05
2.35808e-05
7.90066e-05
0.000112037
7.27484e-05
9.32728e-05
7.78869e-05
0.000111315
7.33913e-05
6.44551e-05
6.44563e-05
8.41329e-05
6.47762e-05
6.47772e-05
7.79341e-05
4.96336e-05
7.73937e-05
4.96386e-05
2.3577e-05
2.3575e-05
7.79292e-05
4.96319e-05
7.74e-05
4.9637e-05
0.000130636
0.000130625
0.000130633
0.000127997
0.000127999
0.000127991
0.000127995
8.18597e-05
7.42611e-05
0.000109323
9.26361e-05
8.07313e-05
7.48744e-05
0.000108708
2.35747e-05
2.35726e-05
8.18578e-05
0.00010933
7.42526e-05
9.26282e-05
8.07305e-05
0.000108705
7.48796e-05
6.51438e-05
6.5145e-05
8.5583e-05
6.54457e-05
6.54464e-05
7.90434e-05
4.96449e-05
7.85546e-05
4.96497e-05
2.35695e-05
2.35678e-05
7.9041e-05
4.96433e-05
7.85589e-05
4.96481e-05
0.000127157
0.000127148
0.000127153
0.000124686
0.00012469
0.000124673
0.000124685
8.45998e-05
7.56765e-05
0.000107018
9.24709e-05
8.3474e-05
7.62802e-05
0.000106509
2.35673e-05
2.35655e-05
8.45982e-05
0.000107026
7.5668e-05
9.24706e-05
8.34722e-05
0.000106508
7.62882e-05
6.5788e-05
6.5789e-05
8.73326e-05
6.60679e-05
6.60684e-05
8.00612e-05
4.96556e-05
7.96143e-05
4.96602e-05
2.3563e-05
2.35616e-05
8.00606e-05
4.96539e-05
7.96172e-05
4.96586e-05
0.000123899
0.000123892
0.000123903
0.000121638
0.000121636
0.000121629
0.000121635
8.72226e-05
7.7017e-05
0.000105142
9.27467e-05
8.61062e-05
7.76052e-05
0.000104741
2.35607e-05
2.35594e-05
8.72206e-05
0.00010515
7.70047e-05
9.27485e-05
8.61042e-05
0.000104741
7.76116e-05
6.63959e-05
6.63967e-05
8.93476e-05
6.66493e-05
6.66498e-05
8.10037e-05
4.96662e-05
8.059e-05
4.96706e-05
2.35575e-05
2.35565e-05
8.10038e-05
4.96645e-05
8.05923e-05
4.9669e-05
0.000120904
0.000120895
0.000120902
0.000118826
0.000118831
0.000118827
0.000118838
8.97258e-05
7.82888e-05
0.000103709
9.34541e-05
8.86256e-05
7.88613e-05
0.000103419
2.35551e-05
2.35542e-05
8.97248e-05
0.000103715
7.82811e-05
9.34453e-05
8.86248e-05
0.000103419
7.88579e-05
6.69646e-05
6.69654e-05
9.15551e-05
6.72046e-05
6.72049e-05
8.18816e-05
4.96768e-05
8.1497e-05
4.96815e-05
2.35529e-05
2.35523e-05
8.18819e-05
4.96751e-05
8.14982e-05
4.96799e-05
0.000118182
0.000118181
0.00011819
0.000116359
0.000116365
0.000116349
0.000116357
9.21094e-05
7.9498e-05
0.000102716
9.45293e-05
9.10467e-05
8.00456e-05
0.000102542
2.35507e-05
2.355e-05
9.21095e-05
0.000102726
7.94994e-05
9.45269e-05
9.10447e-05
0.000102541
8.00422e-05
6.7495e-05
6.74957e-05
9.39048e-05
6.77311e-05
6.77314e-05
8.2706e-05
4.96877e-05
8.23454e-05
4.96928e-05
2.35495e-05
2.35491e-05
8.27058e-05
4.9686e-05
8.23465e-05
4.96912e-05
0.000115784
0.000115776
0.00011579
0.000114229
0.00011423
0.000114223
0.000114217
9.43916e-05
8.06596e-05
0.000102164
9.59445e-05
9.33675e-05
8.11732e-05
0.000102092
2.35472e-05
2.35469e-05
9.43905e-05
0.000102172
8.06548e-05
9.59565e-05
9.33651e-05
0.000102097
8.11745e-05
6.79997e-05
6.8e-05
9.63737e-05
6.82256e-05
6.8226e-05
8.34817e-05
4.96995e-05
8.31416e-05
4.97048e-05
2.3547e-05
2.3547e-05
8.34834e-05
4.96978e-05
8.3144e-05
4.97032e-05
0.000113758
0.000113741
0.000113738
0.000112401
0.000112378
0.000112371
0.000112402
9.65792e-05
8.17583e-05
0.000102059
9.77059e-05
9.5591e-05
8.22578e-05
0.000102088
2.35447e-05
2.35448e-05
9.65775e-05