/*--------------------------------*- C++ -*----------------------------------*\
| =========                 |                                                 |
| \\      /  F ield         | OpenFOAM: The Open Source CFD Toolbox           |
|  \\    /   O peration     | Version:  v2012                                 |
|   \\  /    A nd           | Website:  www.openfoam.com                      |
|    \\/     M anipulation  |                                                 |
\*---------------------------------------------------------------------------*/
FoamFile
{
    version     2.0;
    format      ascii;
    class       volScalarField;
    location    "375";
    object      p;
}
// * * * * * * * * * * * * * * * * * * * * * * * * * * * * * * * * * * * * * //

dimensions      [0 2 -2 0 0 0 0];


internalField   nonuniform List<scalar> 
85864
(
0.00360143
0.00360176
0.00360176
0.00360481
0.00354607
0.00354649
0.00354649
0.00354948
0.00349532
0.00349529
0.00349529
0.00349804
0.00344293
0.00344295
0.00344295
0.00344572
0.00339158
0.00339159
0.00339159
0.00339434
0.0033416
0.00334161
0.00334161
0.00334433
0.00329307
0.00329309
0.00329309
0.00329576
0.00324583
0.00324586
0.00324586
0.00324851
0.0031997
0.00319973
0.00319972
0.00320234
0.00315446
0.00315449
0.00315449
0.00315708
0.00310995
0.00310998
0.00310997
0.00311254
0.00306603
0.00306605
0.00306605
0.00306859
0.00302263
0.00302265
0.00302265
0.00302516
0.0029797
0.00297972
0.00297972
0.00298222
0.00293719
0.0029372
0.00293719
0.0029397
0.00289509
0.0028951
0.00289511
0.00289759
0.00285338
0.00285337
0.00285337
0.00285586
0.00281203
0.00281203
0.00281203
0.0028145
0.00277101
0.00277099
0.00277099
0.00277345
0.0027303
0.00273027
0.00273027
0.00273274
0.00268989
0.00268985
0.00268985
0.00269231
0.00264974
0.0026497
0.0026497
0.00265214
0.00260984
0.00260979
0.00260979
0.00261223
0.00257018
0.00257012
0.00257012
0.00257255
0.00253074
0.00253068
0.00253068
0.0025331
0.00249152
0.00249146
0.00249146
0.00249387
0.0024525
0.00245245
0.00245245
0.00245484
0.00241368
0.00241364
0.00241364
0.002416
0.00237506
0.00237502
0.00237502
0.00237737
0.00233662
0.00233659
0.00233659
0.00233891
0.00229837
0.00229833
0.00229833
0.00230064
0.00226029
0.00226025
0.00226026
0.00226254
0.00222237
0.00222235
0.00222235
0.00222461
0.00218462
0.0021846
0.0021846
0.00218684
0.00214703
0.00214701
0.00214701
0.00214924
0.00210959
0.00210958
0.00210957
0.00211177
0.0020723
0.00207228
0.00207228
0.00207447
0.00203513
0.00203513
0.00203513
0.0020373
0.00199813
0.0019981
0.0019981
0.00200026
0.00196122
0.00196121
0.00196121
0.00196336
0.00192448
0.00192444
0.00192445
0.00192657
0.00188782
0.00188779
0.00188778
0.00188991
0.0018513
0.00185124
0.00185126
0.00185336
0.00181486
0.00181481
0.0018148
0.00181691
0.00177853
0.00177847
0.00177847
0.00178057
0.0017423
0.00174222
0.00174222
0.00174432
0.00170615
0.00170607
0.00170607
0.00170815
0.00361484
0.00361506
0.00361506
0.00361484
0.00361506
0.00361506
0.00361582
0.00361582
0.00361583
0.00361583
0.00361506
0.00361506
0.00361484
0.00361506
0.00361506
0.00361484
0.00360481
0.00355605
0.00360175
0.00360176
0.00355833
0.00355833
0.00360481
0.00355605
0.00360176
0.00360176
0.00355833
0.00355833
0.00360176
0.00355833
0.00355833
0.00360481
0.00355605
0.00360176
0.00355833
0.00355833
0.00355605
0.00354948
0.00350497
0.00354649
0.00354649
0.00350842
0.00350842
0.00354948
0.00350497
0.00354649
0.00354649
0.00350842
0.00350842
0.00354649
0.00350842
0.00350842
0.00354948
0.00350497
0.00354649
0.00350842
0.00350842
0.00350497
0.00349805
0.0034526
0.00349529
0.00349529
0.00345596
0.00345596
0.00349805
0.0034526
0.00349529
0.00349529
0.00345596
0.00345596
0.00349529
0.00345596
0.00345596
0.00349804
0.0034526
0.00349529
0.00345596
0.00345596
0.0034526
0.00344572
0.00340105
0.00344295
0.00344295
0.00340431
0.00340431
0.00344572
0.00340105
0.00344295
0.00344295
0.00340431
0.00340431
0.00344295
0.00340431
0.00340431
0.00344572
0.00340105
0.00344295
0.00340431
0.00340431
0.00340105
0.00339434
0.00335083
0.00339159
0.00339159
0.00335397
0.00335396
0.00339434
0.00335083
0.00339159
0.00339159
0.00335397
0.00335396
0.00339159
0.00335396
0.00335397
0.00339434
0.00335083
0.00339159
0.00335396
0.00335397
0.00335083
0.00334433
0.00330207
0.00334161
0.00334161
0.00330509
0.00330509
0.00334433
0.00330207
0.00334161
0.00334161
0.00330509
0.00330509
0.00334161
0.00330509
0.00330509
0.00334433
0.00330207
0.00334161
0.00330508
0.00330509
0.00330207
0.00329577
0.00325464
0.00329308
0.00329309
0.00325756
0.00325755
0.00329577
0.00325464
0.00329308
0.00329309
0.00325756
0.00325755
0.00329308
0.00325755
0.00325756
0.00329577
0.00325464
0.00329308
0.00325755
0.00325756
0.00325464
0.00324851
0.00320833
0.00324586
0.00324586
0.00321117
0.00321116
0.00324851
0.00320834
0.00324584
0.00324586
0.00321117
0.00321116
0.00324585
0.00321116
0.00321117
0.00324851
0.00320834
0.00324586
0.00321117
0.00321117
0.00320833
0.00320235
0.00316295
0.00319972
0.00319973
0.00316573
0.00316572
0.00320235
0.00316295
0.00319972
0.00319972
0.00316573
0.00316572
0.00319972
0.00316572
0.00316572
0.00320234
0.00316296
0.00319972
0.00316572
0.00316572
0.00316296
0.00315707
0.00311832
0.00315448
0.00315449
0.00312104
0.00312104
0.00315708
0.00311832
0.00315448
0.00315449
0.00312104
0.00312105
0.00315449
0.00312104
0.00312105
0.00315708
0.00311832
0.00315449
0.00312105
0.00312105
0.00311832
0.00311254
0.0030743
0.00310997
0.00310998
0.00307698
0.00307698
0.00311254
0.0030743
0.00310997
0.00310997
0.00307698
0.00307698
0.00310997
0.00307698
0.00307699
0.00311254
0.0030743
0.00310997
0.00307698
0.00307699
0.0030743
0.0030686
0.0030308
0.00306606
0.00306605
0.00303346
0.00303346
0.0030686
0.0030308
0.00306606
0.00306605
0.00303346
0.00303346
0.00306605
0.00303346
0.00303346
0.0030686
0.0030308
0.00306605
0.00303346
0.00303346
0.0030308
0.00302517
0.00298778
0.00302265
0.00302265
0.00299041
0.0029904
0.00302516
0.00298778
0.00302265
0.00302265
0.00299041
0.0029904
0.00302266
0.0029904
0.0029904
0.00302516
0.00298778
0.00302265
0.0029904
0.0029904
0.00298778
0.00298221
0.00294522
0.00297971
0.00297972
0.00294779
0.0029478
0.00298222
0.00294522
0.00297971
0.00297972
0.00294779
0.00294779
0.00297971
0.0029478
0.0029478
0.00298222
0.00294521
0.00297971
0.0029478
0.0029478
0.00294522
0.0029397
0.00290305
0.0029372
0.0029372
0.00290559
0.00290558
0.0029397
0.00290305
0.0029372
0.00293719
0.00290559
0.00290558
0.0029372
0.00290558
0.00290559
0.0029397
0.00290305
0.0029372
0.00290558
0.00290559
0.00290305
0.00289758
0.00286127
0.00289509
0.0028951
0.00286377
0.00286378
0.00289759
0.00286127
0.00289509
0.00289511
0.00286377
0.00286378
0.0028951
0.00286378
0.00286377
0.00289759
0.00286127
0.0028951
0.00286378
0.00286377
0.00286128
0.00285586
0.00281987
0.00285338
0.00285338
0.00282233
0.00282233
0.00285586
0.00281987
0.00285338
0.00285337
0.00282233
0.00282232
0.00285338
0.00282233
0.00282233
0.00285586
0.00281987
0.00285338
0.00282232
0.00282233
0.00281987
0.0028145
0.00277879
0.00281203
0.00281203
0.00278123
0.00278123
0.0028145
0.00277879
0.00281203
0.00281203
0.00278123
0.00278123
0.00281203
0.00278123
0.00278123
0.0028145
0.00277879
0.00281203
0.00278123
0.00278123
0.00277879
0.00277345
0.00273803
0.00277099
0.00277099
0.00274042
0.00274042
0.00277345
0.00273803
0.00277099
0.00277099
0.00274042
0.00274043
0.00277099
0.00274042
0.00274042
0.00277346
0.00273803
0.00277099
0.00274043
0.00274042
0.00273803
0.00273274
0.00269756
0.00273028
0.00273027
0.00269993
0.00269993
0.00273273
0.00269757
0.00273028
0.00273027
0.00269993
0.00269993
0.00273028
0.00269993
0.00269993
0.00273273
0.00269756
0.00273028
0.00269993
0.00269993
0.00269757
0.00269231
0.00265737
0.00268985
0.00268986
0.00265971
0.00265971
0.00269231
0.00265737
0.00268985
0.00268985
0.00265971
0.00265971
0.00268986
0.00265971
0.00265971
0.00269231
0.00265737
0.00268986
0.00265971
0.00265971
0.00265737
0.00265214
0.00261743
0.0026497
0.00264969
0.00261974
0.00261974
0.00265214
0.00261743
0.00264969
0.0026497
0.00261974
0.00261974
0.00264969
0.00261974
0.00261975
0.00265214
0.00261743
0.0026497
0.00261974
0.00261975
0.00261743
0.00261223
0.00257773
0.00260979
0.00260979
0.00258002
0.00258002
0.00261223
0.00257773
0.00260979
0.00260979
0.00258002
0.00258002
0.00260979
0.00258002
0.00258002
0.00261223
0.00257773
0.00260979
0.00258002
0.00258002
0.00257773
0.00257255
0.00253825
0.00257012
0.00257012
0.00254052
0.00254052
0.00257255
0.00253825
0.00257012
0.00257012
0.00254052
0.00254052
0.00257012
0.00254052
0.00254052
0.00257255
0.00253825
0.00257012
0.00254052
0.00254052
0.00253825
0.0025331
0.00249899
0.00253068
0.00253068
0.00250125
0.00250125
0.0025331
0.00249899
0.00253068
0.00253068
0.00250125
0.00250125
0.00253068
0.00250125
0.00250125
0.0025331
0.00249899
0.00253068
0.00250125
0.00250125
0.00249899
0.00249386
0.00245994
0.00249146
0.00249146
0.00246218
0.00246218
0.00249386
0.00245994
0.00249146
0.00249146
0.00246218
0.00246218
0.00249146
0.00246218
0.00246218
0.00249386
0.00245994
0.00249146
0.00246218
0.00246218
0.00245994
0.00245483
0.00242109
0.00245245
0.00245245
0.00242332
0.00242332
0.00245483
0.00242109
0.00245245
0.00245245
0.00242332
0.00242332
0.00245245
0.00242332
0.00242332
0.00245483
0.00242109
0.00245245
0.00242332
0.00242332
0.00242109
0.002416
0.00238243
0.00241364
0.00241364
0.00238466
0.00238465
0.002416
0.00238243
0.00241364
0.00241364
0.00238466
0.00238465
0.00241364
0.00238465
0.00238466
0.00241601
0.00238243
0.00241364
0.00238465
0.00238465
0.00238243
0.00237736
0.00234396
0.00237502
0.00237502
0.00234618
0.00234618
0.00237737
0.00234396
0.00237502
0.00237502
0.00234618
0.00234618
0.00237502
0.00234618
0.00234618
0.00237737
0.00234396
0.00237502
0.00234618
0.00234618
0.00234396
0.00233891
0.00230567
0.00233659
0.00233659
0.00230788
0.00230788
0.00233891
0.00230567
0.00233659
0.00233659
0.00230788
0.00230788
0.00233659
0.00230788
0.00230788
0.00233891
0.00230567
0.00233659
0.00230788
0.00230788
0.00230567
0.00230064
0.00226755
0.00229834
0.00229833
0.00226976
0.00226976
0.00230064
0.00226755
0.00229834
0.00229833
0.00226976
0.00226976
0.00229834
0.00226976
0.00226976
0.00230064
0.00226755
0.00229834
0.00226976
0.00226976
0.00226755
0.00226254
0.00222961
0.00226025
0.00226025
0.00223181
0.00223181
0.00226254
0.00222961
0.00226025
0.00226026
0.00223181
0.00223181
0.00226025
0.00223181
0.00223181
0.00226254
0.00222961
0.00226025
0.00223181
0.00223181
0.0022296
0.00222461
0.00219182
0.00222235
0.00222235
0.00219402
0.00219402
0.00222461
0.00219182
0.00222235
0.00222235
0.00219402
0.00219402
0.00222235
0.00219402
0.00219403
0.00222461
0.00219182
0.00222235
0.00219402
0.00219402
0.00219182
0.00218684
0.0021542
0.0021846
0.0021846
0.0021564
0.0021564
0.00218684
0.0021542
0.0021846
0.0021846
0.0021564
0.0021564
0.0021846
0.0021564
0.00215639
0.00218684
0.0021542
0.0021846
0.0021564
0.00215639
0.0021542
0.00214923
0.00211673
0.00214701
0.00214701
0.00211892
0.00211892
0.00214923
0.00211673
0.00214701
0.00214701
0.00211892
0.00211892
0.00214701
0.00211892
0.00211892
0.00214924
0.00211673
0.00214701
0.00211892
0.00211892
0.00211673
0.00211178
0.0020794
0.00210957
0.00210958
0.00208159
0.00208159
0.00211178
0.0020794
0.00210957
0.00210957
0.00208159
0.00208159
0.00210957
0.00208159
0.00208159
0.00211178
0.0020794
0.00210957
0.00208159
0.00208159
0.00207941
0.00207447
0.00204222
0.00207228
0.00207228
0.0020444
0.0020444
0.00207446
0.00204222
0.00207228
0.00207228
0.0020444
0.0020444
0.00207228
0.0020444
0.0020444
0.00207446
0.00204222
0.00207228
0.0020444
0.0020444
0.00204222
0.0020373
0.00200517
0.00203512
0.00203512
0.00200735
0.00200734
0.0020373
0.00200517
0.00203512
0.00203513
0.00200735
0.00200734
0.00203513
0.00200734
0.00200734
0.0020373
0.00200517
0.00203513
0.00200734
0.00200734
0.00200517
0.00200026
0.00196825
0.00199811
0.0019981
0.00197042
0.00197042
0.00200026
0.00196826
0.00199811
0.0019981
0.00197042
0.00197042
0.0019981
0.00197042
0.00197043
0.00200026
0.00196826
0.0019981
0.00197042
0.00197043
0.00196826
0.00196335
0.00193147
0.0019612
0.00196121
0.00193362
0.00193362
0.00196335
0.00193146
0.0019612
0.00196121
0.00193363
0.00193363
0.00196121
0.00193362
0.00193362
0.00196336
0.00193146
0.00196121
0.00193363
0.00193362
0.00193146
0.00192658
0.00189479
0.00192445
0.00192444
0.00189694
0.00189695
0.00192657
0.0018948
0.00192445
0.00192445
0.00189694
0.00189693
0.00192444
0.00189695
0.00189694
0.00192657
0.00189479
0.00192444
0.00189693
0.00189694
0.00189479
0.00188991
0.00185823
0.00188778
0.00188779
0.00186037
0.00186036
0.00188991
0.00185822
0.00188778
0.00188778
0.00186037
0.00186038
0.00188779
0.00186036
0.00186038
0.00188991
0.00185824
0.00188778
0.00186038
0.00186038
0.00185823
0.00185336
0.00182178
0.00185125
0.00185124
0.00182391
0.00182391
0.00185335
0.00182178
0.00185125
0.00185126
0.00182391
0.0018239
0.00185125
0.00182391
0.0018239
0.00185337
0.00182177
0.00185125
0.0018239
0.0018239
0.00182177
0.00181691
0.00178542
0.00181481
0.00181481
0.00178754
0.00178754
0.00181692
0.00178542
0.00181481
0.0018148
0.00178754
0.00178754
0.0018148
0.00178754
0.00178754
0.00181691
0.00178542
0.0018148
0.00178754
0.00178754
0.00178542
0.00178056
0.00174916
0.00177847
0.00177847
0.00175128
0.00175127
0.00178056
0.00174916
0.00177847
0.00177847
0.00175128
0.00175128
0.00177847
0.00175128
0.00175128
0.00178057
0.00174916
0.00177847
0.00175128
0.00175128
0.00174916
0.00174431
0.00171299
0.00174222
0.00174222
0.0017151
0.0017151
0.00174431
0.00171299
0.00174223
0.00174222
0.0017151
0.0017151
0.00174223
0.0017151
0.0017151
0.00174431
0.00171299
0.00174223
0.0017151
0.0017151
0.00171299
0.00170815
0.0016769
0.00170607
0.00170607
0.001679
0.001679
0.00170815
0.0016769
0.00170607
0.00170607
0.001679
0.001679
0.00170607
0.001679
0.001679
0.00170815
0.0016769
0.00170607
0.001679
0.001679
0.0016769
0.00362321
0.00363297
0.00362777
0.00362778
0.00365016
0.00363694
0.00366554
0.00363098
0.00365016
0.00363694
0.00363099
0.00366554
0.00364151
0.00366928
0.00366929
0.00357857
0.00359772
0.00360691
0.00357065
0.00357139
0.00357416
0.00357855
0.00359769
0.0036069
0.00357063
0.00360143
0.00360143
0.00360143
0.00355803
0.00355803
0.00355802
0.00355802
0.00357607
0.00360189
0.00360183
0.0035849
0.00360492
0.00357497
0.00358578
0.00357149
0.00357416
0.00357608
0.00360183
0.00360191
0.0035849
0.00360492
0.00358578
0.00357497
0.00360777
0.00360776
0.0035793
0.00357461
0.00357461
0.00353194
0.00355122
0.00355258
0.00353048
0.00355012
0.00353003
0.00353194
0.00355121
0.00355258
0.00353047
0.00354607
0.00354607
0.00354607
0.00350848
0.00350848
0.00350848
0.00350848
0.00353052
0.00355129
0.00354607
0.0035342
0.00355008
0.00353107
0.00353393
0.00355012
0.00353003
0.00353052
0.00354607
0.00355129
0.0035342
0.00355008
0.00353393
0.00353106
0.00355231
0.00355231
0.00353075
0.0035314
0.0035314
0.00347967
0.00349848
0.00349955
0.00347865
0.00349811
0.00347837
0.00347967
0.00349848
0.00349955
0.00347865
0.00349532
0.00349532
0.00349532
0.00345594
0.00345594
0.00345594
0.00345594
0.00347877
0.00349888
0.0034952
0.00348215
0.00349832
0.00347914
0.00348206
0.00349811
0.00347837
0.00347877
0.0034952
0.00349888
0.00348215
0.00349832
0.00348206
0.00347914
0.00349912
0.00349912
0.00347876
0.0034792
0.0034792
0.00342715
0.0034458
0.00344666
0.00342638
0.0034456
0.0034262
0.00342715
0.0034458
0.00344666
0.00342638
0.00344293
0.00344293
0.00344293
0.0034043
0.0034043
0.0034043
0.0034043
0.00342664
0.00344621
0.0034429
0.00343
0.00344592
0.00342682
0.00342996
0.0034456
0.0034262
0.00342664
0.0034429
0.00344621
0.00342999
0.00344592
0.00342996
0.00342682
0.00344625
0.00344625
0.00342668
0.00342676
0.00342676
0.00337595
0.0033943
0.00339493
0.00337539
0.00339416
0.00337525
0.00337595
0.0033943
0.00339493
0.00337539
0.00339158
0.00339158
0.00339158
0.00335395
0.00335395
0.00335395
0.00335395
0.00337567
0.00339465
0.00339156
0.00337895
0.00339448
0.00337578
0.00337893
0.00339416
0.00337525
0.00337567
0.00339156
0.00339465
0.00337895
0.00339448
0.00337893
0.00337578
0.00339464
0.00339464
0.00337575
0.00337569
0.00337569
0.0033263
0.00334425
0.0033447
0.0033259
0.00334414
0.00332578
0.0033263
0.00334425
0.0033447
0.0033259
0.0033416
0.0033416
0.0033416
0.00330507
0.00330507
0.00330507
0.00330507
0.00332618
0.00334455
0.00334158
0.00332934
0.00334443
0.00332625
0.00332932
0.00334413
0.00332579
0.00332618
0.00334158
0.00334455
0.00332934
0.00334443
0.00332932
0.00332625
0.00334453
0.00334453
0.00332627
0.00332616
0.00332616
0.00327812
0.00329567
0.00329599
0.00327785
0.00329557
0.00327774
0.00327812
0.00329567
0.00329599
0.00327784
0.00329307
0.00329307
0.00329307
0.00325754
0.00325753
0.00325753
0.00325754
0.0032781
0.00329594
0.00329305
0.00328116
0.00329584
0.00327816
0.00328113
0.00329557
0.00327774
0.0032781
0.00329305
0.00329594
0.00328116
0.00329584
0.00328113
0.00327816
0.00329593
0.00329593
0.0032782
0.00327808
0.00327808
0.00323123
0.00324841
0.00324865
0.00323103
0.00324832
0.00323093
0.00323123
0.00324841
0.00324864
0.00323102
0.00324584
0.00324584
0.00324584
0.00321115
0.00321114
0.00321115
0.00321115
0.00323127
0.00324865
0.00324582
0.00323423
0.00324856
0.00323132
0.0032342
0.00324832
0.00323093
0.00323127
0.00324582
0.00324865
0.00323423
0.00324856
0.0032342
0.00323132
0.00324864
0.00324864
0.00323136
0.00323124
0.00323124
0.00318538
0.00320225
0.00320243
0.00318522
0.00320217
0.00318514
0.00318538
0.00320225
0.00320243
0.00318522
0.00319971
0.0031997
0.0031997
0.0031657
0.0031657
0.0031657
0.0031657
0.00318546
0.00320247
0.00319969
0.00318833
0.0032024
0.00318551
0.00318831
0.00320217
0.00318514
0.00318546
0.00319969
0.00320247
0.00318834
0.0032024
0.00318831
0.00318551
0.00320247
0.00320247
0.00318554
0.00318542
0.00318542
0.00314039
0.00315699
0.00315714
0.00314026
0.00315691
0.00314017
0.00314039
0.00315699
0.00315714
0.00314026
0.00315447
0.00315447
0.00315447
0.00312102
0.00312102
0.00312102
0.00312102
0.00314049
0.0031572
0.00315446
0.0031433
0.00315713
0.00314053
0.00314327
0.00315691
0.00314017
0.00314049
0.00315446
0.0031572
0.0031433
0.00315714
0.00314327
0.00314053
0.00315719
0.00315719
0.00314055
0.00314043
0.00314043
0.00309608
0.00311245
0.00311259
0.00309595
0.00311238
0.00309587
0.00309608
0.00311246
0.00311259
0.00309595
0.00310995
0.00310995
0.00310995
0.00307696
0.00307696
0.00307696
0.00307696
0.0030962
0.00311265
0.00310995
0.00309894
0.0031126
0.00309623
0.00309892
0.00311238
0.00309587
0.0030962
0.00310995
0.00311265
0.00309894
0.0031126
0.00309892
0.00309623
0.00311264
0.00311264
0.00309624
0.00309611
0.00309611
0.00305233
0.00306851
0.00306864
0.0030522
0.00306844
0.00305213
0.00305233
0.00306851
0.00306864
0.0030522
0.00306603
0.00306603
0.00306603
0.00303344
0.00303344
0.00303344
0.00303344
0.00305248
0.0030687
0.00306603
0.00305516
0.00306868
0.00305248
0.00305514
0.00306844
0.00305213
0.00305248
0.00306603
0.0030687
0.00305516
0.00306868
0.00305514
0.00305248
0.00306867
0.00306868
0.00305249
0.00305236
0.00305236
0.00300908
0.00302508
0.00302521
0.00300895
0.00302501
0.00300888
0.00300908
0.00302508
0.00302521
0.00300895
0.00302263
0.00302263
0.00302263
0.00299039
0.00299039
0.00299039
0.00299039
0.00300924
0.00302527
0.00302263
0.00301187
0.00302526
0.00300923
0.00301186
0.00302501
0.00300888
0.00300924
0.00302263
0.00302526
0.00301187
0.00302526
0.00301186
0.00300923
0.00302523
0.00302523
0.00300923
0.00300909
0.00300909
0.00296628
0.00298211
0.00298224
0.00296615
0.00298205
0.00296609
0.00296628
0.00298211
0.00298224
0.00296615
0.0029797
0.0029797
0.00297969
0.00294778
0.00294778
0.00294778
0.00294778
0.00296646
0.00298229
0.0029797
0.00296904
0.00298231
0.00296642
0.00296904
0.00298205
0.00296609
0.00296646
0.0029797
0.00298229
0.00296904
0.00298231
0.00296904
0.00296642
0.00298225
0.00298225
0.00296645
0.00296627
0.00296627
0.0029239
0.00293958
0.00293971
0.00292377
0.00293952
0.00292372
0.0029239
0.00293958
0.00293971
0.00292377
0.00293719
0.00293719
0.00293719
0.00290558
0.00290558
0.00290558
0.00290558
0.00292411
0.00293975
0.0029372
0.00292664
0.0029398
0.00292404
0.00292664
0.00293953
0.00292372
0.00292411
0.0029372
0.00293975
0.00292664
0.0029398
0.00292664
0.00292404
0.0029397
0.0029397
0.00292409
0.00292388
0.00292388
0.00288192
0.00289746
0.00289758
0.0028818
0.0028974
0.00288175
0.00288192
0.00289746
0.00289758
0.0028818
0.00289509
0.0028951
0.00289509
0.00286377
0.00286378
0.00286378
0.00286378
0.00288216
0.00289762
0.00289511
0.00288463
0.00289769
0.00288206
0.00288464
0.00289741
0.00288175
0.00288216
0.00289511
0.00289762
0.00288463
0.00289769
0.00288464
0.00288206
0.00289757
0.00289757
0.00288212
0.0028819
0.0028819
0.00284032
0.00285572
0.00285584
0.0028402
0.00285568
0.00284016
0.00284032
0.00285572
0.00285584
0.0028402
0.00285338
0.00285338
0.00285338
0.00282234
0.00282233
0.00282233
0.00282234
0.00284057
0.00285587
0.0028534
0.00284301
0.00285596
0.00284045
0.00284303
0.00285568
0.00284016
0.00284057
0.0028534
0.00285587
0.00284301
0.00285596
0.00284303
0.00284045
0.00285583
0.00285583
0.00284053
0.00284029
0.00284029
0.00279907
0.00281435
0.00281446
0.00279896
0.00281431
0.00279893
0.00279907
0.00281435
0.00281446
0.00279896
0.00281203
0.00281203
0.00281203
0.00278123
0.00278123
0.00278123
0.00278123
0.00279934
0.00281448
0.00281205
0.00280173
0.0028146
0.00279919
0.00280176
0.00281431
0.00279892
0.00279934
0.00281205
0.00281448
0.00280174
0.0028146
0.00280176
0.00279919
0.00281444
0.00281444
0.00279929
0.00279904
0.00279904
0.00275814
0.00277332
0.00277341
0.00275804
0.00277328
0.00275801
0.00275814
0.00277331
0.00277341
0.00275804
0.00277101
0.00277101
0.00277101
0.00274045
0.00274045
0.00274045
0.00274045
0.00275842
0.00277343
0.00277102
0.00276079
0.00277355
0.00275825
0.00276082
0.00277328
0.00275801
0.00275842
0.00277102
0.00277343
0.00276078
0.00277355
0.00276082
0.00275825
0.0027734
0.00277339
0.00275837
0.00275811
0.00275811
0.00271752
0.00273259
0.00273268
0.00271743
0.00273255
0.0027174
0.00271752
0.00273259
0.00273268
0.00271743
0.0027303
0.0027303
0.0027303
0.00269996
0.00269996
0.00269996
0.00269996
0.00271779
0.00273268
0.00273031
0.00272015
0.00273281
0.00271763
0.00272018
0.00273256
0.00271739
0.0027178
0.00273031
0.00273269
0.00272015
0.00273281
0.00272018
0.00271763
0.00273266
0.00273266
0.00271776
0.00271748
0.00271748
0.00267718
0.00269215
0.00269224
0.00267709
0.00269211
0.00267707
0.00267718
0.00269215
0.00269224
0.00267709
0.00268989
0.00268989
0.00268989
0.00265975
0.00265975
0.00265975
0.00265975
0.00267745
0.00269224
0.00268988
0.00267979
0.00269237
0.00267728
0.00267982
0.00269213
0.00267706
0.00267745
0.00268988
0.00269224
0.00267979
0.00269237
0.00267982
0.00267728
0.00269221
0.00269221
0.00267743
0.00267715
0.00267715
0.0026371
0.00265199
0.00265206
0.00263702
0.00265195
0.002637
0.0026371
0.00265199
0.00265206
0.00263702
0.00264974
0.00264974
0.00264974
0.00261979
0.00261979
0.00261979
0.00261979
0.00263737
0.00265206
0.00264972
0.00263969
0.00265218
0.0026372
0.00263972
0.00265196
0.002637
0.00263737
0.00264972
0.00265206
0.0026397
0.00265218
0.00263972
0.0026372
0.00265204
0.00265204
0.00263737
0.00263708
0.00263708
0.00259727
0.00261207
0.00261214
0.00259719
0.00261204
0.00259718
0.00259727
0.00261207
0.00261214
0.00259719
0.00260984
0.00260984
0.00260984
0.00258007
0.00258007
0.00258007
0.00258007
0.00259752
0.00261213
0.00260982
0.00259985
0.00261225
0.00259736
0.00259988
0.00261205
0.00259717
0.00259752
0.00260981
0.00261213
0.00259985
0.00261224
0.00259987
0.00259736
0.00261212
0.00261212
0.00259755
0.00259724
0.00259724
0.00255768
0.00257239
0.00257246
0.0025576
0.00257237
0.00255758
0.00255768
0.00257239
0.00257246
0.0025576
0.00257018
0.00257018
0.00257018
0.00254058
0.00254058
0.00254058
0.00254058
0.00255791
0.00257244
0.00257014
0.00256024
0.00257255
0.00255775
0.00256026
0.00257237
0.00255758
0.00255791
0.00257014
0.00257244
0.00256024
0.00257255
0.00256026
0.00255775
0.00257244
0.00257244
0.00255796
0.00255764
0.00255764
0.0025183
0.00253294
0.002533
0.00251823
0.00253292
0.00251822
0.0025183
0.00253294
0.002533
0.00251823
0.00253074
0.00253074
0.00253074
0.0025013
0.0025013
0.0025013
0.0025013
0.00251852
0.00253298
0.00253069
0.00252085
0.00253308
0.00251837
0.00252087
0.00253292
0.00251822
0.00251852
0.00253069
0.00253298
0.00252085
0.00253308
0.00252087
0.00251837
0.00253298
0.00253298
0.00251859
0.00251827
0.00251827
0.00247914
0.0024937
0.00249376
0.00247907
0.00249368
0.00247906
0.00247914
0.0024937
0.00249376
0.00247907
0.00249152
0.00249152
0.00249152
0.00246224
0.00246224
0.00246224
0.00246224
0.00247935
0.00249374
0.00249147
0.00248169
0.00249382
0.0024792
0.0024817
0.00249368
0.00247906
0.00247935
0.00249147
0.00249374
0.00248168
0.00249382
0.0024817
0.0024792
0.00249374
0.00249374
0.00247944
0.00247911
0.00247911
0.00244019
0.00245467
0.00245473
0.00244012
0.00245466
0.00244011
0.00244019
0.00245467
0.00245473
0.00244012
0.0024525
0.0024525
0.0024525
0.00242337
0.00242337
0.00242337
0.00242337
0.00244038
0.0024547
0.00245245
0.00244273
0.00245478
0.00244024
0.00244273
0.00245466
0.00244011
0.00244038
0.00245245
0.0024547
0.00244272
0.00245478
0.00244273
0.00244024
0.00245471
0.00245471
0.00244049
0.00244015
0.00244015
0.00240143
0.00241584
0.0024159
0.00240136
0.00241583
0.00240135
0.00240143
0.00241585
0.0024159
0.00240137
0.00241368
0.00241368
0.00241368
0.0023847
0.0023847
0.0023847
0.0023847
0.00240161
0.00241587
0.00241364
0.00240396
0.00241594
0.00240148
0.00240397
0.00241583
0.00240135
0.00240161
0.00241364
0.00241587
0.00240396
0.00241594
0.00240397
0.00240148
0.00241588
0.00241588
0.00240173
0.00240139
0.00240139
0.00236286
0.00237721
0.00237726
0.0023628
0.0023772
0.00236279
0.00236286
0.00237721
0.00237726
0.0023628
0.00237506
0.00237506
0.00237506
0.00234622
0.00234622
0.00234622
0.00234622
0.00236304
0.00237723
0.00237502
0.00236539
0.00237729
0.00236291
0.0023654
0.0023772
0.00236279
0.00236303
0.00237502
0.00237723
0.00236539
0.00237729
0.0023654
0.00236291
0.00237724
0.00237724
0.00236317
0.00236283
0.00236283
0.00232448
0.00233876
0.00233881
0.00232442
0.00233875
0.00232441
0.00232448
0.00233876
0.00233881
0.00232442
0.00233662
0.00233662
0.00233662
0.00230792
0.00230792
0.00230792
0.00230792
0.00232465
0.00233878
0.00233659
0.00232701
0.00233884
0.00232453
0.00232701
0.00233875
0.00232441
0.00232464
0.00233659
0.00233878
0.00232701
0.00233883
0.00232701
0.00232453
0.00233879
0.00233879
0.00232479
0.00232445
0.00232445
0.00228627
0.00230049
0.00230054
0.00228622
0.00230048
0.00228621
0.00228627
0.00230049
0.00230054
0.00228622
0.00229837
0.00229837
0.00229837
0.00226979
0.00226979
0.00226979
0.00226979
0.00228643
0.00230051
0.00229834
0.0022888
0.00230056
0.00228632
0.00228881
0.00230048
0.00228621
0.00228643
0.00229834
0.00230051
0.0022888
0.00230056
0.00228881
0.00228632
0.00230052
0.00230052
0.00228659
0.00228624
0.00228624
0.00224824
0.0022624
0.00226244
0.00224819
0.00226239
0.00224818
0.00224824
0.0022624
0.00226244
0.00224819
0.00226029
0.00226029
0.00226029
0.00223184
0.00223184
0.00223184
0.00223184
0.0022484
0.00226241
0.00226026
0.00225076
0.00226246
0.00224829
0.00225077
0.00226239
0.00224818
0.0022484
0.00226026
0.00226241
0.00225076
0.00226246
0.00225077
0.00224829
0.00226243
0.00226243
0.00224856
0.00224821
0.00224821
0.00221037
0.00222447
0.00222452
0.00221033
0.00222447
0.00221032
0.00221037
0.00222447
0.00222452
0.00221032
0.00222237
0.00222237
0.00222237
0.00219404
0.00219404
0.00219404
0.00219404
0.00221053
0.00222449
0.00222236
0.0022129
0.00222453
0.00221042
0.00221291
0.00222447
0.00221032
0.00221053
0.00222236
0.00222449
0.0022129
0.00222453
0.00221291
0.00221042
0.0022245
0.0022245
0.00221069
0.00221035
0.00221035
0.00217267
0.00218671
0.00218675
0.00217262
0.00218671
0.00217262
0.00217267
0.00218671
0.00218675
0.00217262
0.00218462
0.00218462
0.00218462
0.00215641
0.00215641
0.00215641
0.00215641
0.00217283
0.00218673
0.00218462
0.00217519
0.00218677
0.00217272
0.00217521
0.00218671
0.00217262
0.00217282
0.00218462
0.00218673
0.00217519
0.00218677
0.00217521
0.00217272
0.00218674
0.00218674
0.00217299
0.00217265
0.00217265
0.00213512
0.00214912
0.00214915
0.00213508
0.00214911
0.00213508
0.00213512
0.00214912
0.00214915
0.00213508
0.00214702
0.00214702
0.00214702
0.00211893
0.00211894
0.00211894
0.00211893
0.00213527
0.00214912
0.00214703
0.00213764
0.00214916
0.00213518
0.00213766
0.00214911
0.00213508
0.00213527
0.00214703
0.00214913
0.00213764
0.00214916
0.00213766
0.00213518
0.00214914
0.00214914
0.00213545
0.0021351
0.00213511
0.00209773
0.00211166
0.0021117
0.00209769
0.00211166
0.00209769
0.00209773
0.00211166
0.0021117
0.00209769
0.00210959
0.00210959
0.00210959
0.0020816
0.0020816
0.0020816
0.0020816
0.00209788
0.00211167
0.0021096
0.00210024
0.00211171
0.00209778
0.00210026
0.00211166
0.00209769
0.00209787
0.0021096
0.00211167
0.00210024
0.00211171
0.00210026
0.00209778
0.00211169
0.00211169
0.00209805
0.0020977
0.0020977
0.00206047
0.00207436
0.00207439
0.00206043
0.00207437
0.00206044
0.00206047
0.00207436
0.00207439
0.00206043
0.00207229
0.00207229
0.00207229
0.00204441
0.00204442
0.00204442
0.00204442
0.00206062
0.00207437
0.00207231
0.00206298
0.0020744
0.00206053
0.00206301
0.00207437
0.00206043
0.00206062
0.00207231
0.00207437
0.00206298
0.0020744
0.00206301
0.00206052
0.00207439
0.00207439
0.00206079
0.00206046
0.00206046
0.00202336
0.0020372
0.00203723
0.00202333
0.00203719
0.00202333
0.00202336
0.0020372
0.00203723
0.00202333
0.00203514
0.00203514
0.00203514
0.00200737
0.00200736
0.00200736
0.00200736
0.0020235
0.0020372
0.00203516
0.00202585
0.00203724
0.00202341
0.00202589
0.00203719
0.00202333
0.0020235
0.00203516
0.0020372
0.00202586
0.00203724
0.00202589
0.00202341
0.00203722
0.00203722
0.00202368
0.00202334
0.00202334
0.00198638
0.00200017
0.0020002
0.00198634
0.00200018
0.00198635
0.00198638
0.00200017
0.0020002
0.00198634
0.00199812
0.00199813
0.00199812
0.00197044
0.00197045
0.00197044
0.00197045
0.00198652
0.00200018
0.00199814
0.00198887
0.00200021
0.00198644
0.00198891
0.00200017
0.00198634
0.00198652