/*--------------------------------*- C++ -*----------------------------------*\
| =========                 |                                                 |
| \\      /  F ield         | OpenFOAM: The Open Source CFD Toolbox           |
|  \\    /   O peration     | Version:  v2012                                 |
|   \\  /    A nd           | Website:  www.openfoam.com                      |
|    \\/     M anipulation  |                                                 |
\*---------------------------------------------------------------------------*/
FoamFile
{
    version     2.0;
    format      ascii;
    class       surfaceScalarField;
    location    "375";
    object      phi;
}
// * * * * * * * * * * * * * * * * * * * * * * * * * * * * * * * * * * * * * //

dimensions      [0 3 -1 0 0 0 0];
oriented        oriented;


internalField   nonuniform List<scalar> 
248808
(
-0.00104221
-1.45815e-05
-1.44777e-05
9.34771e-06
9.17762e-06
0.00105274
-0.00026146
-5.64183e-06
1.44583e-05
6.83957e-06
0.00105941
-4.53274e-06
-1.62486e-06
-2.21805e-06
-2.57554e-06
-6.59143e-06
-7.04427e-06
-3.16375e-06
-0.000263303
-0.000259727
-0.000262829
-0.000261437
-5.64682e-06
1.44873e-05
6.92911e-06
0.0010592
-4.53785e-06
-1.63504e-06
-2.22565e-06
-2.57985e-06
-6.58553e-06
-7.04034e-06
-3.16594e-06
-0.000259699
-0.000263274
-0.000262793
-0.000260564
5.61732e-06
5.65742e-06
-4.87815e-06
-4.87221e-06
0.00025904
-1.63187e-06
-1.63376e-06
-0.00106073
8.98537e-07
8.99307e-07
0.0010622
-0.00106267
-1.60665e-06
1.62783e-06
8.28417e-07
0.00106395
-6.53884e-07
7.84506e-07
-1.48152e-07
3.78012e-07
-8.00667e-07
-1.39484e-06
-2.90552e-07
-0.00106235
-1.60156e-06
1.63834e-06
8.23605e-07
0.00106363
-6.53861e-07
7.79016e-07
-1.482e-07
3.75395e-07
-8.03195e-07
-1.39453e-06
-2.88006e-07
-0.000261533
1.63927e-06
1.60171e-06
-7.13267e-07
-7.16417e-07
0.000259722
-1.36113e-06
-1.36255e-06
-0.0010664
6.82252e-07
6.83062e-07
0.00106775
-0.0010679
-1.55714e-06
1.3673e-06
6.90355e-07
0.00106925
-6.21808e-07
8.38621e-07
-1.06579e-07
4.24393e-07
-7.80409e-07
-1.35997e-06
-2.45167e-07
-0.00106758
-1.55189e-06
1.36211e-06
6.95678e-07
0.00106892
-6.21808e-07
8.33208e-07
-1.06552e-07
4.24339e-07
-7.80332e-07
-1.35442e-06
-2.42614e-07
-0.000262766
1.58732e-06
1.55204e-06
-6.74949e-07
-6.83125e-07
0.000260984
-1.34097e-06
-1.34228e-06
-0.00107186
6.64407e-07
6.65259e-07
0.00107322
-0.00107326
-1.55556e-06
1.34198e-06
6.67285e-07
0.00107457
-6.19921e-07
8.63769e-07
-8.16606e-08
4.38219e-07
-7.79453e-07
-1.36935e-06
-2.20248e-07
-0.00107292
-1.55023e-06
1.34187e-06
6.67361e-07
0.00107424
-6.17217e-07
8.58344e-07
-8.41108e-08
4.38163e-07
-7.81917e-07
-1.36912e-06
-2.17687e-07
-0.000264044
1.58327e-06
1.55045e-06
-6.64646e-07
-6.70302e-07
0.000262245
-1.29596e-06
-1.29714e-06
-0.00107721
6.42272e-07
6.43163e-07
0.00107852
-0.00107844
-1.54748e-06
1.29689e-06
6.34139e-07
0.00107969
-6.0757e-07
8.917e-07
-5.61685e-08
4.60176e-07
-7.68213e-07
-1.37186e-06
-1.8897e-07
-0.0010781
-1.5421e-06
1.29672e-06
6.34148e-07
0.00107936
-6.04832e-07
8.86274e-07
-5.86019e-08
4.60106e-07
-7.7068e-07
-1.37163e-06
-1.86394e-07
-0.000265263
1.5752e-06
1.5422e-06
-6.47553e-07
-6.53221e-07
0.000263446
-1.24846e-06
-1.24955e-06
-0.00108237
6.20392e-07
6.21309e-07
0.00108362
-0.00108337
-1.53911e-06
1.24924e-06
6.04444e-07
0.00108457
-5.95349e-07
9.17471e-07
-3.35492e-08
4.84363e-07
-7.53953e-07
-1.3693e-06
-1.58488e-07
-0.00108303
-1.53372e-06
1.24903e-06
6.04415e-07
0.00108423
-5.92643e-07
9.12047e-07
-3.59409e-08
4.84299e-07
-7.56405e-07
-1.36908e-06
-1.55914e-07
-0.000266409
1.56686e-06
1.5337e-06
-6.30439e-07
-6.36111e-07
0.000264574
-1.20441e-06
-1.20531e-06
-0.00108732
6.00879e-07
6.01774e-07
0.00108852
-0.00108806
-1.53246e-06
1.20488e-06
5.80483e-07
0.00108919
-5.85672e-07
9.40449e-07
-1.47495e-08
5.09047e-07
-7.40141e-07
-1.36505e-06
-1.30602e-07
-0.00108772
-1.52712e-06
1.20468e-06
5.8054e-07
0.00108885
-5.83101e-07
9.34937e-07
-1.71332e-08
5.09019e-07
-7.42594e-07
-1.36483e-06
-1.28003e-07
-0.00026748
1.56036e-06
1.52704e-06
-6.15704e-07
-6.21399e-07
0.00026563
-1.1657e-06
-1.16687e-06
-0.00109208
5.8442e-07
5.85375e-07
0.00109324
-0.00109251
-1.528e-06
1.16654e-06
5.62412e-07
0.00109359
-5.79158e-07
9.60477e-07
-2.97956e-10
5.33115e-07
-7.27944e-07
-1.36098e-06
-1.05781e-07
-0.00109217
-1.52262e-06
1.16639e-06
5.62613e-07
0.00109325
-5.76544e-07
9.54919e-07
-2.59615e-09
5.33117e-07
-7.30417e-07
-1.36074e-06
-1.03139e-07
-0.000268483
1.55615e-06
1.52264e-06
-6.03862e-07
-6.0962e-07
0.000266618
-1.13202e-06
-1.13328e-06
-0.00109667
5.70375e-07
5.71053e-07
0.00109779
-0.00109676
-1.52687e-06
1.13285e-06
5.48653e-07
0.00109779
-5.76207e-07
9.771e-07
1.76121e-08
5.55868e-07
-7.17409e-07
-1.3577e-06
-8.40176e-08
-0.00109641
-1.52109e-06
1.13273e-06
5.48645e-07
0.00109744
-5.72624e-07
9.71653e-07
1.47165e-08
5.55654e-07
-7.20038e-07
-1.35752e-06
-8.15441e-08
-0.000269423
1.55456e-06
1.52094e-06
-5.95017e-07
-6.00684e-07
0.000267543
-1.10312e-06
-1.10422e-06
-0.00110111
5.58539e-07
5.59201e-07
0.0011022
-0.00110081
-1.52692e-06
1.10418e-06
5.37999e-07
0.0011018
-5.73596e-07
9.9205e-07
3.16647e-08
5.77086e-07
-7.08275e-07
-1.35531e-06
-6.51993e-08
-0.00110047
-1.52156e-06
1.10417e-06
5.38124e-07
0.00110145
-5.71235e-07
9.86479e-07
2.80925e-08
5.77249e-07
-7.10564e-07
-1.3549e-06
-6.2469e-08
-0.000270304
1.55547e-06
1.52171e-06
-5.89628e-07
-5.9536e-07
0.000268412
-1.07861e-06
-1.07959e-06
-0.00110542
5.48804e-07
5.49489e-07
0.00110648
-0.0011047
-1.52848e-06
1.07928e-06
5.28855e-07
0.00110564
-5.7179e-07
1.00658e-06
4.13892e-08
5.97578e-07
-6.98553e-07
-1.35216e-06
-4.87751e-08
-0.00110435
-1.52259e-06
1.07907e-06
5.28757e-07
0.0011053
-5.70234e-07
1.00085e-06
4.11216e-08
5.97194e-07
-7.01396e-07
-1.35216e-06
-4.6397e-08
-0.000271132
1.5565e-06
1.52261e-06
-5.8352e-07
-5.89294e-07
0.000269226
-1.05559e-06
-1.05657e-06
-0.00110962
5.39582e-07
5.40254e-07
0.00111065
-0.00110843
-1.52994e-06
1.05686e-06
5.20241e-07
0.00110934
-5.7022e-07
1.01958e-06
5.07552e-08
6.16032e-07
-6.89103e-07
-1.34918e-06
-3.47052e-08
-0.00110808
-1.52441e-06
1.05665e-06
5.20195e-07
0.00110899
-5.70333e-07
1.01413e-06
5.09316e-08
6.16068e-07
-6.91506e-07
-1.34876e-06
-3.21657e-08
-0.000271907
1.55834e-06
1.52433e-06
-5.79122e-07
-5.84935e-07
0.000269989
-1.03429e-06
-1.03522e-06
-0.00111371
5.30946e-07
5.31623e-07
0.00111472
-0.00111201
-1.53117e-06
1.03483e-06
5.1047e-07
0.00111288
-5.68821e-07
1.03336e-06
6.28406e-08
6.32926e-07
-6.77743e-07
-1.34417e-06
-2.27331e-08
-0.00111166
-1.52544e-06
1.0345e-06
5.10278e-07
0.00111252
-5.68207e-07
1.02791e-06
6.3481e-08
6.32766e-07
-6.80291e-07
-1.3439e-06
-2.03746e-08
-0.000272631
1.56003e-06
1.52589e-06
-5.75037e-07
-5.80919e-07
0.000270701
-1.01295e-06
-1.01385e-06
-0.0011177
5.22119e-07
5.22848e-07
0.00111868
-0.00111543
-1.53313e-06
1.01426e-06
5.00788e-07
0.00111627
-5.6748e-07
1.04593e-06
7.06721e-08
6.49046e-07
-6.65077e-07
-1.33808e-06
-1.16594e-08
-0.00111508
-1.52751e-06
1.01411e-06
5.00916e-07
0.00111592
-5.6787e-07
1.04047e-06
7.04918e-08
6.49202e-07
-6.67534e-07
-1.33775e-06
-9.16292e-09
-0.000273299
1.56177e-06
1.52761e-06
-5.69961e-07
-5.75582e-07
0.000271355
-9.9279e-07
-9.93544e-07
-0.00112159
5.13477e-07
5.14209e-07
0.00112255
-0.00111871
-1.53297e-06
9.92991e-07
4.90092e-07
0.00111951
-5.61488e-07
1.05882e-06
8.04236e-08
6.62187e-07
-6.51275e-07
-1.33045e-06
-3.40236e-09
-0.00111836
-1.52743e-06
9.92926e-07
4.90154e-07
0.00111916
-5.61358e-07
1.05307e-06
8.00408e-08
6.62187e-07
-6.53865e-07
-1.33026e-06
-1.33505e-09
-0.000273915
1.56188e-06
1.52764e-06
-5.62265e-07
-5.67969e-07
0.000271956
-9.70973e-07
-9.71737e-07
-0.00112539
5.03997e-07
5.04728e-07
0.00112633
-0.00112184
-1.53338e-06
9.71936e-07
4.77925e-07
0.00112259
-5.58018e-07
1.07126e-06
8.78134e-08
6.75075e-07
-6.35664e-07
-1.32099e-06
7.69828e-09
-0.00112148
-1.52794e-06
9.71671e-07
4.77344e-07
0.00112224
-5.58443e-07
1.0657e-06
8.78602e-08
6.75193e-07
-6.38057e-07
-1.32062e-06
1.12829e-08
-0.000274471
1.562e-06
1.52766e-06
-5.54813e-07
-5.60542e-07
0.000272497
-9.50487e-07
-9.51236e-07
-0.00112909
4.94858e-07
4.9553e-07
0.00113
-0.0011248
-1.53191e-06
9.50763e-07
4.66213e-07
0.00112552
-5.48888e-07
1.08233e-06
9.44816e-08
6.84853e-07
-6.20346e-07
-1.31123e-06
1.71415e-08
-0.00112445
-1.52613e-06
9.50431e-07
4.65674e-07
0.00112516
-5.48067e-07
1.07676e-06
9.52719e-08
6.84479e-07
-6.23048e-07
-1.31103e-06
1.9975e-08
-0.000274965
1.56114e-06
1.52671e-06
-5.46509e-07
-5.52231e-07
0.000272976
-9.27825e-07
-9.28586e-07
-0.0011327
4.84272e-07
4.84928e-07
0.00113359
-0.0011276
-1.53046e-06
9.28653e-07
4.55364e-07
0.00112828
-5.41609e-07
1.09312e-06
1.01774e-07
6.94737e-07
-6.02869e-07
-1.29893e-06
2.62502e-08
-0.00112725
-1.52518e-06
9.28958e-07
4.55371e-07
0.00112792
-5.42234e-07
1.08707e-06
1.00504e-07
6.94892e-07
-6.05469e-07
-1.29886e-06
2.97693e-08
-0.000275394
1.55942e-06
1.52489e-06
-5.37806e-07
-5.43556e-07
0.000273392
-9.06808e-07
-9.07368e-07
-0.00113622
4.74478e-07
4.75219e-07
0.00113708
-0.00113024
-1.52681e-06
9.07126e-07
4.44459e-07
0.00113087
-5.28741e-07
1.10292e-06
1.08908e-07
7.02111e-07
-5.86573e-07
-1.28596e-06
3.28991e-08
-0.00112988
-1.52153e-06
9.06716e-07
4.43907e-07
0.00113051
-5.29446e-07
1.09742e-06
1.0962e-07
7.02375e-07
-5.88653e-07
-1.28525e-06
3.61302e-08
-0.000275757
1.55593e-06
1.52136e-06
-5.26703e-07
-5.32439e-07
0.000273738
-8.86366e-07
-8.86992e-07
-0.00113964
4.65328e-07
4.66032e-07
0.00114048
-0.00113269
-1.52283e-06
8.86783e-07
4.34859e-07
0.00113328
-5.18582e-07
1.1108e-06
1.12222e-07
7.10071e-07
-5.69443e-07
-1.27188e-06
4.06964e-08
-0.00113233
-1.51712e-06
8.8636e-07
4.34348e-07
0.00113292
-5.17866e-07
1.10534e-06
1.13055e-07
7.09711e-07
-5.72145e-07
-1.27166e-06
4.34587e-08
-0.000276047
1.55227e-06
1.51762e-06
-5.16427e-07
-5.22137e-07
0.000274015
-8.65419e-07
-8.65977e-07
-0.00114296
4.56032e-07
4.56719e-07
0.00114378
-0.00113497
-1.51802e-06
8.65967e-07
4.25367e-07
0.00113551
-5.10566e-07
1.11842e-06
1.20974e-07
7.17796e-07
-5.51782e-07
-1.25528e-06
4.72243e-08
-0.00113461
-1.51233e-06
8.65796e-07
4.25208e-07
0.00113515
-5.07396e-07
1.11258e-06
1.17847e-07
7.17498e-07
-5.54456e-07
-1.25536e-06
5.03113e-08
-0.000276267
1.54723e-06
1.51254e-06
-5.05445e-07
-5.11168e-07
0.000274224
-8.44906e-07
-8.45413e-07
-0.00114621
4.47109e-07
4.47839e-07
0.001147
-0.00113705
-1.51089e-06
8.45084e-07
4.15733e-07
0.00113754
-4.97049e-07
1.12588e-06
1.2709e-07
7.2399e-07
-5.35336e-07
-1.2385e-06
5.29091e-08
-0.00113669
-1.5055e-06
8.4507e-07
4.15916e-07
0.00113718
-4.94706e-07
1.11977e-06
1.23328e-07
7.24046e-07
-5.37663e-07
-1.23845e-06
5.62695e-08
-0.000276417
1.53993e-06
1.50519e-06
-4.92116e-07
-4.97801e-07
0.000274362
-8.23891e-07
-8.24573e-07
-0.00114935
4.37979e-07
4.38663e-07
0.00115013
-0.00113895
-1.5026e-06
8.24038e-07
4.07302e-07
0.00113939
-4.83999e-07
1.13183e-06
1.31715e-07
7.30175e-07
-5.19059e-07
-1.22161e-06
5.92094e-08
-0.00113859
-1.49726e-06
8.24099e-07
4.07164e-07
0.00113903
-4.81958e-07
1.12593e-06
1.28399e-07
7.30379e-07
-5.21202e-07
-1.22124e-06
6.23839e-08
-0.000276497
1.5316e-06
1.4968e-06
-4.78174e-07
-4.83882e-07
0.000274431
-8.02127e-07
-8.02735e-07
-0.0011524
4.28343e-07
4.29014e-07
0.00115315
-0.00114065
-1.49379e-06
8.02712e-07
3.99843e-07
0.00114104
-4.71392e-07
1.13681e-06
1.36179e-07
7.36616e-07
-5.0262e-07
-1.20383e-06
6.56272e-08
-0.00114028
-1.48829e-06
8.02428e-07
3.99549e-07
0.00114068
-4.68692e-07
1.13125e-06
1.33665e-07
7.36656e-07
-5.05049e-07
-1.2034e-06
6.84917e-08
-0.000276511
1.52275e-06
1.488e-06
-4.64918e-07
-4.70589e-07
0.000274436
-7.79801e-07
-7.80312e-07
-0.00115536
4.18386e-07
4.19073e-07
0.00115608
-0.00114215
-1.48373e-06
7.80316e-07
3.92106e-07
0.00114249
-4.58191e-07
1.14193e-06
1.41242e-07
7.42869e-07
-4.86657e-07
-1.18567e-06
7.18947e-08
-0.00114178
-1.4781e-06
7.80051e-07
3.91906e-07
0.00114213
-4.55165e-07
1.1364e-06
1.38869e-07
7.42775e-07
-4.89232e-07
-1.18535e-06
7.4636e-08
-0.000276465
1.51302e-06
1.47828e-06
-4.51602e-07
-4.57214e-07
0.000274383
-7.5712e-07
-7.57584e-07
-0.00115821
4.08539e-07
4.09187e-07
0.00115891
-0.00114345
-1.47272e-06
7.57667e-07
3.84216e-07
0.00114374
-4.45396e-07
1.14683e-06
1.4602e-07
7.49161e-07
-4.71031e-07
-1.16747e-06
7.83206e-08
-0.00114308
-1.46698e-06
7.57497e-07
3.84049e-07
0.00114338
-4.42053e-07
1.14137e-06
1.43639e-07
7.48969e-07
-4.73733e-07
-1.16725e-06
8.1001e-08
-0.000276365
1.50221e-06
1.46747e-06
-4.37877e-07
-4.43441e-07
0.000274277
-7.34695e-07
-7.35066e-07
-0.00116096
3.99062e-07
3.99808e-07
0.00116163
-0.00114455
-1.46106e-06
7.35085e-07
3.76062e-07
0.0011448
-4.33323e-07
1.15129e-06
1.50162e-07
7.5558e-07
-4.55703e-07
-1.14943e-06
8.4933e-08
-0.00114419
-1.45501e-06
7.3439e-07
3.74931e-07
0.00114444
-4.29378e-07
1.14641e-06
1.48496e-07
7.55328e-07
-4.58477e-07
-1.14917e-06
8.75742e-08
-0.000276218
1.49058e-06
1.45583e-06
-4.2404e-07
-4.29577e-07
0.000274125
-7.12076e-07
-7.12465e-07
-0.00116361
3.89846e-07
3.90553e-07
0.00116425
-0.00114547
-1.44878e-06
7.12608e-07
3.67041e-07
0.00114567
-4.21475e-07
1.15567e-06
1.54231e-07
7.61942e-07
-4.40865e-07
-1.13175e-06
9.15699e-08
-0.0011451
-1.44306e-06
7.12097e-07
3.6632e-07
0.0011453
-4.18094e-07
1.15056e-06
1.52269e-07
7.6177e-07
-4.43558e-07
-1.13142e-06
9.42503e-08
-0.000276033
1.47816e-06
1.44339e-06
-4.10037e-07
-4.1558e-07
0.000273937
-6.89021e-07
-6.89417e-07
-0.00116614
3.80878e-07
3.81405e-07
0.00116676
-0.0011462
-1.43581e-06
6.8956e-07
3.5658e-07
0.00114635
-4.0955e-07
1.16034e-06
1.58591e-07
7.68152e-07
-4.26531e-07
-1.11455e-06
9.82299e-08
-0.00114583
-1.4303e-06
6.89761e-07
3.56982e-07
0.00114599
-4.06861e-07
1.15469e-06
1.55757e-07
7.67942e-07
-4.2918e-07
-1.11438e-06
1.00934e-07
-0.000275817
1.46481e-06
1.43003e-06
-3.95875e-07
-4.01389e-07
0.00027372
-6.65706e-07
-6.65927e-07
-0.00116856
3.72053e-07
3.72719e-07
0.00116915
-0.00114675
-1.42265e-06
6.66729e-07
3.45124e-07
0.00114686
-3.97852e-07
1.1651e-06
1.63219e-07
7.74219e-07
-4.12767e-07
-1.09791e-06
1.04761e-07
-0.00114638
-1.41669e-06
6.66438e-07
3.44676e-07
0.0011465
-3.94753e-07
1.15973e-06
1.60531e-07
7.73951e-07
-4.15366e-07
-1.09784e-06
1.07559e-07
-0.000275579
1.45171e-06
1.41698e-06
-3.82631e-07
-3.88089e-07
0.000273481
-6.4401e-07
-6.44237e-07
-0.00117087
3.64827e-07
3.65581e-07
0.00117142
-0.00114714
-1.40939e-06
6.43911e-07
3.32612e-07
0.00114721
-3.86516e-07
1.1698e-06
1.67708e-07
7.80125e-07
-3.99506e-07
-1.08186e-06
1.11211e-07
-0.00114677
-1.4035e-06
6.43168e-07
3.31672e-07
0.00114684
-3.8324e-07
1.16459e-06
1.6541e-07
7.8003e-07
-4.02043e-07
-1.08161e-06
1.14085e-07
-0.000275324
1.43893e-06
1.40416e-06
-3.7015e-07
-3.7564e-07
0.000273226
-6.20141e-07
-6.20399e-07
-0.00117305
3.56065e-07
3.56587e-07
0.00117358
-0.00114737
-1.39611e-06
6.19976e-07
3.18302e-07
0.0011474
-3.75e-07
1.1748e-06
1.72915e-07
7.86084e-07
-3.86644e-07
-1.06622e-06
1.17692e-07
-0.001147
-1.39078e-06
6.20201e-07
3.18574e-07
0.00114703
-3.72412e-07
1.16901e-06
1.70087e-07
7.85995e-07
-3.89245e-07
-1.06599e-06
1.20419e-07
-0.000275059
1.42598e-06
1.3912e-06
-3.57915e-07
-3.63414e-07
0.000272963
-5.95603e-07
-5.95908e-07
-0.00117512
3.47167e-07
3.47668e-07
0.00117561
-0.00114745
-1.38356e-06
5.95402e-07
3.03217e-07
0.00114746
-3.64431e-07
1.17921e-06
1.77829e-07
7.92136e-07
-3.74215e-07
-1.05109e-06
1.24165e-07
-0.00114709
-1.37811e-06
5.95608e-07
3.03832e-07
0.00114709
-3.61998e-07
1.17327e-06
1.74495e-07
7.91967e-07
-3.76715e-07
-1.05098e-06
1.26955e-07
-0.000274789
1.41291e-06
1.37818e-06
-3.45965e-07
-3.51421e-07
0.000272695
-5.72395e-07
-5.72628e-07
-0.00117706
3.39652e-07
3.40273e-07
0.00117752
-0.00114741
-1.37182e-06
5.73818e-07
2.89863e-07
0.00114739
-3.55257e-07
1.1826e-06
1.81413e-07
7.9749e-07
-3.62497e-07
-1.03711e-06
1.30113e-07
-0.00114704
-1.36577e-06
5.73248e-07
2.88518e-07
0.00114702
-3.51783e-07
1.17751e-06
1.79221e-07
7.97355e-07
-3.65093e-07
-1.03693e-06
1.32917e-07
-0.000274518
1.40039e-06
1.36565e-06
-3.348e-07
-3.40234e-07
0.000272427
-5.49267e-07
-5.49365e-07
-0.00117887
3.32571e-07
3.33383e-07
0.0011793
-0.00114726
-1.35901e-06
5.4739e-07
2.71382e-07
0.0011472
-3.44528e-07
1.18729e-06
1.86436e-07
8.03012e-07
-3.50751e-07
-1.02343e-06
1.36646e-07
-0.00114689
-1.35382e-06
5.4746e-07
2.7238e-07
0.00114684
-3.42127e-07
1.1813e-06
1.83339e-07
8.0294e-07
-3.53322e-07
-1.0232e-06
1.3934e-07
-0.000274249
1.38854e-06
1.3538e-06
-3.24606e-07
-3.30037e-07
0.000272161
-5.21751e-07
-5.21924e-07
-0.00118055
3.20692e-07
3.21225e-07
0.00118095
-0.001147
-1.34754e-06
5.25781e-07
2.53161e-07
0.00114692
-3.34507e-07
1.19143e-06
1.91915e-07
8.08053e-07
-3.40332e-07
-1.01068e-06
1.42119e-07
-0.00114663
-1.3416e-06
5.25263e-07
2.51634e-07
0.00114655
-3.3141e-07
1.18614e-06
1.8936e-07
8.07881e-07
-3.42854e-07
-1.01057e-06
1.44964e-07
-0.000273985
1.37759e-06
1.34291e-06
-3.15265e-07
-3.20684e-07
0.0002719
-5.04173e-07
-5.04748e-07
-0.00118211
3.2233e-07
3.22184e-07
0.00118247
-0.00114666
-1.33725e-06
4.98107e-07
2.39053e-07
0.00114657
-3.26805e-07
1.19389e-06
1.94576e-07
8.13056e-07
-3.29554e-07
-9.98454e-07
1.4807e-07
-0.0011463
-1.33204e-06
4.99408e-07
2.40899e-07
0.0011462
-3.24416e-07
1.18789e-06
1.91314e-07
8.12718e-07
-3.32283e-07
-9.98408e-07
1.50562e-07
-0.000273728
1.36534e-06
1.33059e-06
-3.04808e-07
-3.10246e-07
0.000271647
-4.69423e-07
-4.68826e-07
-0.00118352
2.97464e-07
3.00034e-07
0.00118386
-0.00114625
-1.3255e-06
4.78557e-07
2.17722e-07
0.00114613
-3.16581e-07
1.1987e-06
2.00239e-07
8.17274e-07
-3.20184e-07
-9.87255e-07
1.53162e-07
-0.00114588
-1.31935e-06
4.75301e-07
2.15187e-07
0.00114576
-3.13055e-07
1.19365e-06
1.98061e-07
8.17634e-07
-3.22238e-07
-9.86693e-07
1.56542e-07
-0.00027348
1.35516e-06
1.32054e-06
-2.96391e-07
-3.01769e-07
0.000271402
-4.57416e-07
-4.5949e-07
-0.00118483
3.12754e-07
3.08589e-07
0.00118512
-0.00114578
-1.31613e-06
4.45807e-07
2.0135e-07
0.00114565
-3.09042e-07
1.20117e-06
2.03479e-07
8.22538e-07
-3.10067e-07
-9.75628e-07
1.59127e-07
-0.0011454
-1.31129e-06
4.51948e-07
2.04974e-07
0.00114528
-3.06876e-07
1.19495e-06
2.00371e-07
8.21432e-07
-3.13705e-07
-9.76292e-07
1.60608e-07
-0.000273238
1.34543e-06
1.31063e-06
-2.88601e-07
-2.94034e-07
0.000271164
-4.19082e-07
-4.15461e-07
-0.00118597
2.74185e-07
2.83568e-07
0.00118625
-0.00114525
-1.30618e-06
4.3166e-07
1.84069e-07
0.00114511
-3.00586e-07
1.20464e-06
2.08012e-07
8.25555e-07
-3.02308e-07
-9.66345e-07
1.62873e-07
-0.00114489
-1.29962e-06
4.20856e-07
1.77679e-07
0.00114475
-2.97335e-07
1.19968e-06
2.05194e-07
8.26776e-07
-3.03166e-07
-9.65002e-07
1.67443e-07
-0.000273006
1.33499e-06
1.30083e-06
-2.80083e-07
-2.85194e-07
0.000270936
-4.02291e-07
-4.19549e-07
-0.00118702
2.93267e-07
2.80844e-07
0.00118727
-0.0011447
-1.29712e-06
3.92548e-07
1.64308e-07
0.00114456
-2.93621e-07
1.20716e-06
2.10749e-07
8.3111e-07
-2.92047e-07
-9.55185e-07
1.69461e-07
-0.00114433
-1.29279e-06
4.07181e-07
1.74834e-07
0.00114417
-2.91373e-07
1.20084e-06
2.08034e-07
8.29399e-07
-2.96679e-07
-9.56375e-07
1.70066e-07
-0.000272784
1.32676e-06
1.2913e-06
-2.73253e-07
-2.79079e-07
0.000270718
-3.75343e-07
-3.68344e-07
-0.00118793
2.60529e-07
2.75723e-07
0.00118813
-0.00114411
-1.28942e-06
3.8056e-07
1.57682e-07
0.00114395
-2.84072e-07
1.20925e-06
2.11477e-07
8.33515e-07
-2.85717e-07
-9.47186e-07
1.72176e-07
-0.00114373
-1.28196e-06
3.63445e-07
1.41871e-07
0.0011436
-2.82951e-07
1.20507e-06
2.12111e-07
8.34754e-07
-2.86417e-07
-9.45854e-07
1.76921e-07
-0.000272575
1.31721e-06
1.284e-06
-2.66892e-07
-2.71447e-07
0.000270512
-3.44532e-07
-3.50644e-07
-0.00118872
2.62106e-07
2.52128e-07
0.0011889
-0.0011435
-1.27945e-06
3.43424e-07
1.25266e-07
0.00114335
-2.76222e-07
1.21318e-06
2.15558e-07
8.38393e-07
-2.76626e-07
-9.37392e-07
1.78045e-07
-0.00114315
-1.27601e-06
3.57427e-07
1.41851e-07
0.00114299
-2.77678e-07
1.20588e-06
2.14529e-07
8.37379e-07
-2.80527e-07
-9.3794e-07
1.79394e-07
-0.00027237
1.31077e-06
1.2747e-06
-2.59691e-07
-2.65957e-07
0.00027031
-3.23074e-07
-3.21112e-07
-0.0011894
2.46179e-07
2.47694e-07
0.00118955
-0.00114291
-1.274e-06
3.22744e-07
1.26083e-07
0.00114275
-2.71858e-07
1.21335e-06
2.1681e-07
8.41411e-07
-2.69974e-07
-9.29464e-07
1.81448e-07
-0.00114251
-1.26681e-06
3.16238e-07
1.15401e-07
0.00114236
-2.70604e-07
1.20909e-06
2.17757e-07
8.41487e-07
-2.71998e-07
-9.29109e-07
1.84793e-07
-0.000272177
1.30148e-06
1.26784e-06
-2.54639e-07
-2.59363e-07
0.000270121
-2.96779e-07
-2.95543e-07
-0.00118996
2.31705e-07
2.36987e-07
0.00119008
-0.00114228
-1.26598e-06
2.97175e-07
1.07112e-07
0.00114212
-2.65269e-07
1.21618e-06
2.20234e-07
8.44733e-07
-2.63039e-07
-9.21686e-07
1.85473e-07
-0.00114192
-1.26114e-06
2.96696e-07
1.09839e-07
0.00114177
-2.65843e-07
1.21e-06
2.19813e-07
8.44641e-07
-2.65768e-07
-9.21535e-07
1.88114e-07
-0.000271997
1.2954e-06
1.26078e-06
-2.49063e-07
-2.54502e-07
0.000269945
-2.68435e-07
-2.7009e-07
-0.00119041
2.21399e-07
2.18079e-07
0.00119051
-0.00114167
-1.25922e-06
2.68849e-07
9.19835e-08
0.00114152
-2.59911e-07
1.21794e-06
2.22583e-07
8.48326e-07
-2.56097e-07
-9.13845e-07
1.89604e-07
-0.0011413
-1.2535e-06
2.7065e-07
9.27914e-08
0.00114114
-2.59693e-07
1.21251e-06
2.22774e-07
8.48075e-07
-2.58755e-07
-9.13758e-07
1.92235e-07
-0.000271823
1.28866e-06
1.25388e-06
-2.43824e-07
-2.4926e-07
0.000269774
-2.44805e-07
-2.43905e-07
-0.00119077
2.06276e-07
2.07809e-07
0.00119085
-0.00114107
-1.25337e-06
2.44279e-07
8.30497e-08
0.00114092
-2.55252e-07
1.21915e-06
2.24457e-07
8.51296e-07
-2.49969e-07
-9.06846e-07
1.93062e-07
-0.0011407
-1.24777e-06
2.43045e-07
8.16586e-08
0.00114055
-2.552e-07
1.21362e-06
2.24528e-07
8.51187e-07
-2.52542e-07
-9.06706e-07
1.95849e-07
-0.00027166
1.28219e-06
1.24798e-06
-2.39495e-07
-2.44611e-07
0.000269614
5.22146e-06
5.23231e-06
0.000260567
-0.000259171
-5.93189e-06
-5.91777e-06
5.08158e-06
0.000261409
-0.000258686
-5.96204e-06
3.37916e-06
-5.22153e-06
5.07656e-06
0.000261442
-0.000258702
-5.97005e-06
3.37432e-06
5.22214e-06
0.000260579
-0.000259173
-5.90328e-06
-5.94651e-06
5.07467e-06
0.000261473
-0.000258717
-5.96755e-06
3.369e-06
5.0814e-06
-5.22378e-06
0.000261417
-0.000258686
3.38421e-06
-5.97225e-06
1.07111e-05
1.06174e-05
-0.000252649
-0.000256079
-0.000255118
-0.000255118
-6.41734e-06
-4.12515e-06
-6.6623e-06
-6.41771e-06
-4.12609e-06
-6.66784e-06
-5.06963e-06
0.00104223
1.06707e-05
1.06227e-05
-0.000252651
-0.000256076
-0.000255121
-0.000255121
-6.41996e-06
-4.12544e-06
-6.66504e-06
-6.41517e-06
-4.12087e-06
-6.66025e-06
-5.06927e-06
0.00104211
1.0731e-05
1.06833e-05
-0.000252643
-0.000256071
-0.000255118
-0.000255113
-6.41981e-06
-4.13282e-06
-6.66497e-06
-6.42001e-06
-4.12309e-06
-6.66258e-06
-5.08397e-06
-5.07209e-06
0.00104217
1.07263e-05
1.06276e-05
-0.000252646
-0.000256074
-0.000255118
-0.000255118
-6.4147e-06
-4.12777e-06
-6.65997e-06
-6.42014e-06
-4.12593e-06
-6.6653e-06
-0.000258712
-5.95991e-06
3.36394e-06
-5.22138e-06
0.000261404
-0.000258684
3.37919e-06
-5.96198e-06
5.22453e-06
0.000260559
-0.000259158
-5.9056e-06
-5.94373e-06
-0.000258697
3.37148e-06
-5.95704e-06
-5.23228e-06
0.000261471
-0.000258712
3.36649e-06
-5.96502e-06
-0.000259168
-5.93177e-06
-5.9178e-06
5.61757e-06
5.65479e-06
-4.87838e-06
-4.87223e-06
0.000259045
-7.8048e-07
-7.44602e-07
0.000261544
-0.000259462
-2.82247e-07
-2.74854e-07
7.09203e-06
0.00105882
-4.53008e-06
-1.57833e-06
-2.21273e-06
-2.57666e-06
-6.60588e-06
-7.05009e-06
-3.17074e-06
-0.000263264
-0.000259684
-0.000262793
-5.62803e-06
1.4555e-05
7.03143e-06
0.00105919
-4.5492e-06
-1.57072e-06
-2.21587e-06
-2.58757e-06
-6.6374e-06
-7.067e-06
-3.18641e-06
-0.000263338
-0.000259715
-0.000262834
0.00106192
2.02401e-06
-0.00106086
9.73753e-07
-1.71809e-06
-1.6911e-07
-6.92238e-07
-1.46543e-06
-3.07557e-07
-8.28052e-07
3.43223e-07
7.88561e-07
0.00106234
2.02437e-06
-0.00106128
9.68688e-07
-1.7285e-06
-1.61616e-07
-6.97736e-07
-1.47114e-06
-3.07707e-07
-8.28418e-07
3.48639e-07
-4.87646e-06
-4.86912e-06
0.000259055
-7.47275e-07
0.000261569
-0.000259482
-2.79602e-07
-2.71987e-07
6.81326e-06
0.00105966
-4.55437e-06
-1.63766e-06
-2.22893e-06
-2.58587e-06
-6.61991e-06
-7.06238e-06
-3.18164e-06
-0.000263359
-0.000259742
-0.000262847
-5.62773e-06
1.45894e-05
7.12547e-06
0.00105896
-4.54903e-06
-1.58079e-06
-2.2209e-06
-2.58953e-06
-6.6367e-06
-7.06587e-06
-3.18603e-06
-0.000259684
-0.000263315
-0.000262806
0.00106294
2.03159e-06
-0.00106187
9.6225e-07
-1.68817e-06
-1.71619e-07
-6.92516e-07
-1.46847e-06
-3.07668e-07
-8.25819e-07
3.45597e-07
7.77941e-07
0.00106203
2.0346e-06
-0.00106099
9.84064e-07
-1.71815e-06
-1.66661e-07
-6.92434e-07
-1.46825e-06
-3.0509e-07
-8.30807e-07
3.43167e-07
1.45864e-05
7.11279e-06
0.00105877
-4.53002e-06
-1.57822e-06
-2.2101e-06
-2.57669e-06
-6.60589e-06
-3.17079e-06
-7.04777e-06
-0.000259679
-0.000263259
-0.000262788
2.03091e-06
-0.00106161
9.67484e-07
-1.68807e-06
-1.68947e-07
-6.89596e-07
-1.46576e-06
-3.10041e-07
3.40406e-07
-8.25541e-07
7.77916e-07
0.00106182
2.03422e-06
-0.00106078
9.84099e-07
-1.71806e-06
-1.66544e-07
-6.92193e-07
-1.46811e-06
-3.07529e-07
-8.28007e-07
3.45757e-07
-4.88128e-06
-4.8689e-06
0.000259035
-7.39133e-07
0.000261521
-0.000259444
-2.82648e-07
-2.77214e-07
1.44875e-05
6.83175e-06
0.00105961
-4.55451e-06
-1.63767e-06
-2.22898e-06
-2.58569e-06
-6.61978e-06
-3.18154e-06
-7.05965e-06
-0.000259732
-0.000263356
-0.000262842
2.03595e-06
-0.00106131
9.83007e-07
-1.68559e-06
-1.71495e-07
-6.92266e-07
-1.46262e-06
-3.05022e-07
3.40449e-07
-8.28068e-07
7.39228e-07
0.00106284
2.03659e-06
-0.00106179
9.72566e-07
-1.68313e-06
-1.71647e-07
-6.89937e-07
-1.4657e-06
-3.07508e-07
-8.28235e-07
3.40607e-07
-0.000259459
-2.79779e-07
-2.77428e-07
1.63935e-06
1.60415e-06
-7.10558e-07
-7.19028e-07
0.00025973
-8.66328e-07
-8.27634e-07
0.000262778
-0.000260667
-2.12632e-07
-2.0506e-07
8.29639e-07
0.00106319
-6.56438e-07
8.17756e-07
-1.43307e-07
3.78169e-07
-8.00557e-07
-1.39714e-06
-2.90469e-07
-1.64463e-06
1.63226e-06
8.24415e-07
0.00106362
-6.59293e-07
8.25831e-07
-1.4331e-07
3.83593e-07
-8.03531e-07
-1.40283e-06
-2.88163e-07
0.00106713
1.38301e-06
-0.0010658
7.02154e-07
-1.59181e-06
-1.03507e-07
-6.28646e-07
-1.35465e-06
-2.49025e-07
-7.76786e-07
4.224e-07
8.71694e-07
0.00106757
1.38328e-06
-0.00106623
6.97078e-07
-1.59715e-06
-1.03624e-07
-6.28887e-07
-1.35764e-06
-2.49137e-07
-7.77135e-07
4.25208e-07
-7.1105e-07
-7.18359e-07
0.000259748
-8.32892e-07
0.000262804
-0.000260679
-2.12671e-07
-2.07558e-07
8.23145e-07
0.00106421
-6.54075e-07
7.81855e-07
-1.45762e-07
3.80615e-07
-8.03599e-07
-1.40028e-06
-2.88113e-07
-1.63935e-06
1.63749e-06
8.29699e-07
0.0010633
-6.59278e-07
8.1786e-07
-1.43347e-07
3.78183e-07
-8.03265e-07
-1.39733e-06
-2.87988e-07
0.00106816
1.38438e-06
-0.00106684
7.01113e-07
-1.5539e-06
-1.0844e-07
-6.23644e-07
-1.35235e-06
-2.466e-07
-7.77127e-07
4.25054e-07
8.61111e-07
0.00106725
1.38304e-06
-0.00106591
7.02236e-07
-1.58922e-06
-1.06087e-07
-6.28801e-07
-1.35478e-06
-2.48991e-07
-7.7684e-07
4.25178e-07
1.63205e-06
8.29733e-07
0.0010631
-6.59064e-07
8.15184e-07
-1.45744e-07
3.78104e-07
-8.03182e-07
-2.88027e-07
-1.39723e-06
1.38399e-06
-0.00106657
7.06472e-07
-1.56169e-06
-1.10859e-07
-6.235e-07
-1.35226e-06
-2.46619e-07
4.24924e-07
-7.76931e-07
8.6371e-07
0.00106704
1.37773e-06
-0.0010657
7.02253e-07
-1.58914e-06
-1.05957e-07
-6.28628e-07
-1.35472e-06
-2.49056e-07
-7.7678e-07
4.22415e-07
-7.1382e-07
-7.15801e-07
0.000259709
-8.24827e-07
0.000262753
-0.000260646
-2.12858e-07
-2.07512e-07
1.63355e-06
8.18033e-07
0.00106413
-6.54134e-07
7.76437e-07
-1.50873e-07
3.75479e-07
-8.00812e-07
-2.92947e-07
-1.39476e-06
1.38398e-06
-0.00106625
7.01388e-07
-1.55117e-06
-1.10859e-07
-6.23457e-07
-1.34669e-06
-2.49032e-07
4.16864e-07
-7.76854e-07
8.27504e-07
0.00106807
1.38438e-06
-0.00106674
7.01192e-07
-1.55136e-06
-1.11003e-07
-6.23726e-07
-1.35492e-06
-2.49052e-07
-7.7971e-07
4.2239e-07
-0.000260654
-2.12727e-07
-2.07642e-07
1.58996e-06
1.55722e-06
-6.72243e-07
-6.80579e-07
0.000260984
-8.90463e-07
-8.54252e-07
0.00026406
-0.000261937
-1.91669e-07
-1.86609e-07
6.91218e-07
0.00106848
-6.29698e-07
8.72078e-07
-9.92428e-08
4.24537e-07
-7.77653e-07
-1.35445e-06
-2.47568e-07
-1.59532e-06
1.36146e-06
7.01847e-07
0.00106891
-6.29893e-07
8.77477e-07
-9.93198e-08
4.30068e-07
-7.8062e-07
-1.36007e-06
-2.42708e-07
0.00107249
1.34953e-06
-0.00107117
6.75832e-07
-1.58991e-06
-8.5601e-08
-6.24926e-07
-1.367e-06
-2.29923e-07
-7.78112e-07
4.3386e-07
8.95955e-07
0.00107292
1.34981e-06
-0.00107159
6.76034e-07
-1.59526e-06
-8.30568e-08
-6.27794e-07
-1.37529e-06
-2.25042e-07
-7.83674e-07
4.42089e-07
-6.75272e-07
-6.77484e-07
0.000261005
-8.56968e-07
0.000264088
-0.000261963
-1.8896e-07
-1.83761e-07
6.90229e-07
0.00106952
-6.27357e-07
8.35996e-07
-1.04169e-07
4.27151e-07
-7.80585e-07
-1.36003e-06
-2.42665e-07
-1.58734e-06
1.36128e-06
6.96572e-07
0.00106859
-6.29842e-07
8.69495e-07
-9.92944e-08
4.27292e-07
-7.80301e-07
-1.35721e-06
-2.4254e-07
0.00107352
1.35085e-06
-0.0010722
6.74842e-07
-1.55439e-06
-8.80374e-08
-6.22529e-07
-1.36993e-06
-2.24987e-07
-7.83677e-07
4.36521e-07
8.90587e-07
0.0010726
1.34961e-06
-0.00107127
6.75978e-07
-1.58993e-06
-8.30233e-08
-6.27724e-07
-1.36968e-06
-2.24883e-07
-7.83371e-07
4.36603e-07
1.36626e-06
6.91332e-07
0.00106839
-6.27005e-07
8.66803e-07
-1.04169e-07
4.27183e-07
-7.8025e-07
-2.45101e-07
-1.35716e-06
1.3505e-06
-0.00107193
6.74948e-07
-1.55696e-06
-8.78049e-08
-6.22369e-07
-1.36723e-06
-2.27528e-07
4.33717e-07
-7.80918e-07
8.85152e-07
0.0010724
1.34943e-06
-0.00107107
6.75938e-07
-1.58461e-06
-8.79937e-08
-6.2215e-07
-1.36707e-06
-2.27451e-07
-7.80715e-07
4.33839e-07
-6.75363e-07
-6.80003e-07
0.000260969
-8.5154e-07
0.000264039
-0.000261921
-1.91658e-07
-1.83774e-07
1.36252e-06
6.95527e-07
0.00106942
-6.22099e-07
8.2795e-07
-1.0918e-07
4.24573e-07
-7.77911e-07
-2.45114e-07
-1.35476e-06
1.35041e-06
-0.0010716
6.75027e-07
-1.55164e-06
-9.02698e-08
-6.19663e-07
-1.36693e-06
-2.24983e-07
4.33714e-07
-7.83406e-07
8.5149e-07
0.00107344
1.35086e-06
-0.00107211
6.74881e-07
-1.55184e-06
-9.05053e-08
-6.19893e-07
-1.36469e-06
-2.27462e-07
-7.81003e-07
4.31218e-07
-0.000261934
-1.89171e-07
-1.83976e-07
1.58852e-06
1.55296e-06
-6.61871e-07