/*--------------------------------*- C++ -*----------------------------------*\
| =========                 |                                                 |
| \\      /  F ield         | OpenFOAM: The Open Source CFD Toolbox           |
|  \\    /   O peration     | Version:  v2012                                 |
|   \\  /    A nd           | Website:  www.openfoam.com                      |
|    \\/     M anipulation  |                                                 |
\*---------------------------------------------------------------------------*/
FoamFile
{
    version     2.0;
    format      ascii;
    class       volVectorField;
    location    "375";
    object      U;
}
// * * * * * * * * * * * * * * * * * * * * * * * * * * * * * * * * * * * * * //

dimensions      [0 1 -1 0 0 0 0];


internalField   nonuniform List<vector> 
85864
(
(0.000107958 0.000107892 0.100299)
(-0.000190195 0.00011927 0.100385)
(0.000119341 -0.000190187 0.100385)
(-0.000239593 -0.000239612 0.100397)
(9.42792e-05 9.42318e-05 0.10086)
(-0.000158939 9.68065e-05 0.100942)
(9.68112e-05 -0.000158935 0.100942)
(-0.000201046 -0.000201099 0.100968)
(9.54246e-05 9.54125e-05 0.10137)
(-0.000155796 9.34673e-05 0.101449)
(9.34566e-05 -0.000155804 0.101449)
(-0.000201988 -0.00020204 0.101471)
(9.38825e-05 9.38732e-05 0.101892)
(-0.000152046 9.00879e-05 0.101957)
(9.01e-05 -0.000152051 0.101957)
(-0.000198944 -0.000198989 0.101964)
(9.11288e-05 9.11276e-05 0.102398)
(-0.000146287 8.55679e-05 0.102446)
(8.55812e-05 -0.000146291 0.102446)
(-0.000193526 -0.000193574 0.102432)
(8.81545e-05 8.81592e-05 0.102885)
(-0.000140619 8.15906e-05 0.102912)
(8.16055e-05 -0.000140624 0.102912)
(-0.00018809 -0.000188137 0.102871)
(8.53246e-05 8.53402e-05 0.103353)
(-0.000135485 7.83775e-05 0.103354)
(7.84095e-05 -0.000135494 0.103354)
(-0.000183536 -0.000183589 0.103281)
(8.28448e-05 8.28627e-05 0.103803)
(-0.000131056 7.5925e-05 0.103774)
(7.59686e-05 -0.000131063 0.103774)
(-0.00018004 -0.000180123 0.103664)
(8.06427e-05 8.06068e-05 0.104237)
(-0.000127312 7.42196e-05 0.104174)
(7.42332e-05 -0.000127318 0.104174)
(-0.000177835 -0.000177874 0.104023)
(7.87064e-05 7.86822e-05 0.104658)
(-0.000124106 7.29136e-05 0.104557)
(7.28978e-05 -0.000124087 0.104557)
(-0.000176939 -0.000176993 0.104358)
(7.70993e-05 7.70817e-05 0.105066)
(-0.000121243 7.17159e-05 0.104924)
(7.17509e-05 -0.000121262 0.104924)
(-0.000176051 -0.000176114 0.104673)
(7.55741e-05 7.55593e-05 0.105464)
(-0.000118705 7.06353e-05 0.105277)
(7.06372e-05 -0.000118692 0.105277)
(-0.000175726 -0.000175802 0.104967)
(7.41515e-05 7.4141e-05 0.105851)
(-0.000116284 6.94652e-05 0.105615)
(6.94909e-05 -0.000116286 0.105615)
(-0.00017552 -0.000175626 0.10524)
(7.27057e-05 7.27004e-05 0.106229)
(-0.000113868 6.82125e-05 0.105938)
(6.82099e-05 -0.000113849 0.105938)
(-0.000175343 -0.000175359 0.105491)
(7.13624e-05 7.13557e-05 0.106597)
(-0.0001116 6.71922e-05 0.106248)
(6.71634e-05 -0.000111568 0.106248)
(-0.000174255 -0.000174275 0.105721)
(6.98578e-05 6.98622e-05 0.106957)
(-0.000109423 6.61359e-05 0.106543)
(6.61049e-05 -0.000109452 0.106543)
(-0.000173356 -0.000173388 0.105926)
(6.83935e-05 6.83982e-05 0.107308)
(-0.000107413 6.51018e-05 0.106822)
(6.50915e-05 -0.000107462 0.106822)
(-0.000172073 -0.000172106 0.106108)
(6.68077e-05 6.68168e-05 0.107649)
(-0.000105386 6.39886e-05 0.107086)
(6.39607e-05 -0.000105378 0.107086)
(-0.000170467 -0.00017052 0.106264)
(6.53364e-05 6.5353e-05 0.107982)
(-0.000103552 6.29747e-05 0.107334)
(6.29047e-05 -0.000103529 0.107334)
(-0.000167995 -0.000168041 0.106394)
(6.38609e-05 6.38727e-05 0.108306)
(-0.000101587 6.19223e-05 0.107565)
(6.1906e-05 -0.000101591 0.107565)
(-0.000165602 -0.000165649 0.106496)
(6.23119e-05 6.23341e-05 0.108622)
(-9.95517e-05 6.08799e-05 0.107779)
(6.08743e-05 -9.9548e-05 0.107779)
(-0.000162582 -0.000162632 0.106572)
(6.0828e-05 6.08641e-05 0.108928)
(-9.73318e-05 5.97919e-05 0.107975)
(5.98071e-05 -9.73334e-05 0.107975)
(-0.000158438 -0.00015849 0.106622)
(5.93837e-05 5.94022e-05 0.109226)
(-9.49433e-05 5.88022e-05 0.108152)
(5.87548e-05 -9.49385e-05 0.108152)
(-0.000153886 -0.000153952 0.106645)
(5.78878e-05 5.79003e-05 0.109515)
(-9.2542e-05 5.78263e-05 0.108311)
(5.77655e-05 -9.2514e-05 0.108311)
(-0.000149273 -0.000149309 0.106643)
(5.63507e-05 5.63667e-05 0.109794)
(-8.99021e-05 5.67096e-05 0.108451)
(5.66809e-05 -8.98935e-05 0.108451)
(-0.000144323 -0.000144342 0.106619)
(5.48851e-05 5.48992e-05 0.110064)
(-8.70573e-05 5.54682e-05 0.108573)
(5.54654e-05 -8.70832e-05 0.108572)
(-0.000138978 -0.000138987 0.106575)
(5.35081e-05 5.3531e-05 0.110324)
(-8.40687e-05 5.41098e-05 0.108675)
(5.3969e-05 -8.40358e-05 0.108675)
(-0.000133354 -0.000133363 0.106515)
(5.21929e-05 5.22134e-05 0.110574)
(-8.09644e-05 5.25921e-05 0.10876)
(5.24768e-05 -8.09123e-05 0.108759)
(-0.00012745 -0.00012747 0.10644)
(5.09349e-05 5.09444e-05 0.110813)
(-7.76974e-05 5.08363e-05 0.108827)
(5.08834e-05 -7.77271e-05 0.108826)
(-0.000121319 -0.000121335 0.106355)
(4.9744e-05 4.9766e-05 0.111042)
(-7.43184e-05 4.89146e-05 0.108877)
(4.88813e-05 -7.43351e-05 0.108877)
(-0.000115507 -0.000115508 0.106261)
(4.87006e-05 4.87269e-05 0.11126)
(-7.08869e-05 4.68699e-05 0.108912)
(4.67265e-05 -7.08209e-05 0.108911)
(-0.000109936 -0.000109955 0.106162)
(4.74234e-05 4.74344e-05 0.111466)
(-6.72008e-05 4.44812e-05 0.108932)
(4.44888e-05 -6.72111e-05 0.108931)
(-0.000104383 -0.000104409 0.10606)
(4.62125e-05 4.62225e-05 0.111661)
(-6.344e-05 4.20292e-05 0.108939)
(4.21192e-05 -6.34947e-05 0.108938)
(-9.89247e-05 -9.89399e-05 0.105956)
(4.52118e-05 4.52336e-05 0.111843)
(-6.00925e-05 3.99457e-05 0.108934)
(3.97494e-05 -6.00297e-05 0.108933)
(-9.38178e-05 -9.38533e-05 0.105852)
(4.41945e-05 4.42267e-05 0.112014)
(-5.63956e-05 3.72185e-05 0.108917)
(3.73173e-05 -5.64126e-05 0.108917)
(-8.91939e-05 -8.92236e-05 0.10575)
(4.28353e-05 4.28539e-05 0.112172)
(-5.2971e-05 3.45894e-05 0.108892)
(3.44308e-05 -5.29272e-05 0.108891)
(-8.48052e-05 -8.4835e-05 0.10565)
(4.25316e-05 4.24994e-05 0.112318)
(-4.94941e-05 3.2484e-05 0.108859)
(3.26747e-05 -4.96469e-05 0.108858)
(-8.00949e-05 -8.01364e-05 0.105552)
(4.00158e-05 4.01622e-05 0.112452)
(-4.62826e-05 2.96322e-05 0.108818)
(2.93314e-05 -4.59837e-05 0.108817)
(-7.62444e-05 -7.6262e-05 0.105459)
(4.07061e-05 4.04308e-05 0.112573)
(-4.25767e-05 2.73916e-05 0.108773)
(2.773e-05 -4.30467e-05 0.108772)
(-7.25705e-05 -7.26351e-05 0.105368)
(3.69582e-05 3.75492e-05 0.112681)
(-3.99243e-05 2.50038e-05 0.108723)
(2.45187e-05 -3.92217e-05 0.108723)
(-6.88441e-05 -6.8722e-05 0.10528)
(3.78898e-05 3.7053e-05 0.11278)
(-3.59672e-05 2.26367e-05 0.10867)
(2.33458e-05 -3.6813e-05 0.108668)
(-6.55131e-05 -6.58012e-05 0.105197)
(3.44876e-05 3.5523e-05 0.112863)
(-3.36709e-05 2.10457e-05 0.108614)
(1.99008e-05 -3.27076e-05 0.108613)
(-6.2753e-05 -6.23535e-05 0.105118)
(3.38932e-05 3.3135e-05 0.112937)
(-2.99461e-05 1.78554e-05 0.108556)
(1.90925e-05 -3.0766e-05 0.108556)
(-5.93865e-05 -5.98587e-05 0.105042)
(3.17146e-05 3.18876e-05 0.113)
(-2.74314e-05 1.70647e-05 0.1085)
(1.61934e-05 -2.69385e-05 0.108496)
(-5.70103e-05 -5.67623e-05 0.10497)
(2.98147e-05 3.01171e-05 0.113052)
(-2.45764e-05 1.48058e-05 0.10844)
(1.50923e-05 -2.46989e-05 0.10844)
(-5.4484e-05 -5.4521e-05 0.104902)
(2.80586e-05 2.78085e-05 0.113094)
(-2.17253e-05 1.30055e-05 0.108382)
(1.29956e-05 -2.17527e-05 0.108381)
(-5.20085e-05 -5.21153e-05 0.104837)
(2.59815e-05 2.60954e-05 0.113127)
(-1.92034e-05 1.16362e-05 0.108325)
(1.15417e-05 -1.9138e-05 0.108324)
(-4.99643e-05 -4.98873e-05 0.104777)
(0.000134959 0.000134949 0.100282)
(0.000124248 0.000152867 0.100229)
(-0.00012424 0.000152848 0.100229)
(-0.000134956 0.000134917 0.100282)
(0.000152896 0.0001242 0.100229)
(0.000152868 -0.000124217 0.100229)
(9.08046e-05 9.0753e-05 0.100151)
(-9.07948e-05 9.07504e-05 0.100151)
(9.0779e-05 -9.07988e-05 0.100151)
(-9.07765e-05 -9.07968e-05 0.100151)
(-0.000152892 0.000124196 0.100229)
(-0.000152878 -0.000124213 0.100229)
(0.000134949 -0.000134968 0.100282)
(0.000124201 -0.000152897 0.100229)
(-0.000124198 -0.00015288 0.100229)
(-0.000134957 -0.000134941 0.100282)
(0.000239636 0.000239615 0.100397)
(0.000111304 0.000111178 0.100892)
(0.000119392 0.000190088 0.100385)
(-0.000119343 0.000190129 0.100385)
(8.91024e-05 0.000147213 0.100823)
(-8.90639e-05 0.00014721 0.100823)
(-0.000239645 0.000239563 0.100397)
(-0.000111266 0.000111147 0.100892)
(0.000190231 0.000119289 0.100385)
(0.00019017 -0.000119349 0.100385)
(0.000147189 8.90738e-05 0.100823)
(0.000147222 -8.90949e-05 0.100823)
(-0.000190151 -0.000119353 0.100385)
(-0.000147158 8.90751e-05 0.100823)
(-0.00014718 -8.9089e-05 0.100823)
(0.000239567 -0.000239657 0.100397)
(0.000111257 -0.00011127 0.100892)
(-0.000119321 -0.000190216 0.100385)
(8.90759e-05 -0.000147148 0.100823)
(-8.90554e-05 -0.000147174 0.100823)
(-0.000111254 -0.000111273 0.100892)
(0.000201135 0.000200968 0.100968)
(0.000105726 0.000105646 0.101395)
(9.68198e-05 0.000158993 0.100941)
(-9.67928e-05 0.000158989 0.100941)
(9.41999e-05 0.000156671 0.10132)
(-9.41999e-05 0.000156672 0.10132)
(-0.000201097 0.000200935 0.100967)
(-0.000105715 0.000105639 0.101395)
(0.000158972 9.68004e-05 0.100942)
(0.00015899 -9.68129e-05 0.100942)
(0.000156627 9.42042e-05 0.10132)
(0.000156667 -9.42071e-05 0.10132)
(-0.000158967 -9.68078e-05 0.100942)
(-0.000156624 9.42127e-05 0.10132)
(-0.000156645 -9.41975e-05 0.10132)
(0.000201043 -0.000201107 0.100968)
(0.000105689 -0.000105702 0.101395)
(-9.67931e-05 -0.000158961 0.100942)
(9.42008e-05 -0.000156624 0.10132)
(-9.4207e-05 -0.000156644 0.10132)
(-0.000105703 -0.00010571 0.101395)
(0.000202057 0.000201929 0.101471)
(9.66262e-05 9.6566e-05 0.101893)
(9.3449e-05 0.000155854 0.101449)
(-9.34544e-05 0.000155851 0.101449)
(9.11466e-05 0.000153335 0.101832)
(-9.11342e-05 0.000153325 0.101832)
(-0.000202042 0.000201909 0.101471)
(-9.65857e-05 9.65374e-05 0.101893)
(0.000155804 9.34627e-05 0.101449)
(0.000155845 -9.34584e-05 0.101449)
(0.000153277 9.11493e-05 0.101832)
(0.00015331 -9.11336e-05 0.101832)
(-0.000155827 -9.34518e-05 0.101449)
(-0.000153272 9.11406e-05 0.101832)
(-0.00015331 -9.11387e-05 0.101832)
(0.000201966 -0.000202042 0.101471)
(9.65588e-05 -9.6593e-05 0.101893)
(-9.34643e-05 -0.000155826 0.101449)
(9.11485e-05 -0.000153275 0.101832)
(-9.11391e-05 -0.000153284 0.101832)
(-9.66374e-05 -9.6639e-05 0.101893)
(0.00019896 0.000198856 0.101964)
(8.60578e-05 8.6011e-05 0.102366)
(9.00953e-05 0.00015211 0.101957)
(-9.00837e-05 0.000152099 0.101957)
(8.66906e-05 0.000147832 0.102326)
(-8.66826e-05 0.000147827 0.102326)
(-0.000198958 0.000198851 0.101964)
(-8.60552e-05 8.6029e-05 0.102366)
(0.000152053 9.00969e-05 0.101957)
(0.000152084 -9.00811e-05 0.101957)
(0.000147775 8.66902e-05 0.102326)
(0.000147809 -8.66743e-05 0.102326)
(-0.000152085 -9.00846e-05 0.101957)
(-0.000147772 8.66868e-05 0.102326)
(-0.000147814 -8.66829e-05 0.102326)
(0.000198878 -0.000198976 0.101964)
(8.60267e-05 -8.60647e-05 0.102366)
(-9.00841e-05 -0.000152055 0.101957)
(8.66989e-05 -0.000147775 0.102326)
(-8.66789e-05 -0.000147774 0.102326)
(-8.61242e-05 -8.61267e-05 0.102366)
(0.00019353 0.000193445 0.102432)
(7.59766e-05 7.59411e-05 0.102812)
(8.55802e-05 0.000146352 0.102446)
(-8.55655e-05 0.000146345 0.102446)
(8.25177e-05 0.000142058 0.102797)
(-8.25215e-05 0.000142068 0.102797)
(-0.000193609 0.000193517 0.102432)
(-7.61199e-05 7.6105e-05 0.102812)
(0.000146296 8.55806e-05 0.102446)
(0.000146322 -8.55537e-05 0.102446)
(0.000142001 8.25193e-05 0.102798)
(0.000142039 -8.25057e-05 0.102798)
(-0.000146334 -8.55659e-05 0.102446)
(-0.000142003 8.25294e-05 0.102798)
(-0.000142045 -8.25114e-05 0.102798)
(0.00019353 -0.000193625 0.102432)
(7.60889e-05 -7.61233e-05 0.102812)
(-8.55631e-05 -0.00014629 0.102446)
(8.25407e-05 -0.000142007 0.102798)
(-8.25077e-05 -0.000141995 0.102798)
(-7.61057e-05 -7.61073e-05 0.102812)
(0.000188147 0.00018807 0.10287)
(6.69405e-05 6.69122e-05 0.103229)
(8.16087e-05 0.000140688 0.102912)
(-8.15866e-05 0.000140688 0.102912)
(7.91167e-05 0.000136768 0.103245)
(-7.91136e-05 0.000136774 0.103245)
(-0.000188231 0.000188145 0.102871)
(-6.71983e-05 6.71786e-05 0.103229)
(0.000140633 8.16087e-05 0.102912)
(0.000140654 -8.15681e-05 0.102912)
(0.000136715 7.91207e-05 0.103245)
(0.000136754 -7.91042e-05 0.103245)
(-0.000140675 -8.15948e-05 0.102912)
(-0.000136716 7.91292e-05 0.103245)
(-0.000136758 -7.91123e-05 0.103245)
(0.000188164 -0.000188254 0.102871)
(6.71688e-05 -6.72074e-05 0.103229)
(-8.1593e-05 -0.000140624 0.102912)
(7.91537e-05 -0.000136724 0.103245)
(-7.91083e-05 -0.000136705 0.103245)
(-6.71245e-05 -6.71267e-05 0.10323)
(0.000183628 0.00018355 0.10328)
(5.89787e-05 5.89316e-05 0.103621)
(7.84104e-05 0.000135558 0.103354)
(-7.83657e-05 0.000135543 0.103354)
(7.64626e-05 0.000132153 0.103671)
(-7.64615e-05 0.000132158 0.103671)
(-0.000183698 0.000183596 0.103281)
(-5.92726e-05 5.92563e-05 0.10362)
(0.000135507 7.84156e-05 0.103354)
(0.000135521 -7.83544e-05 0.103354)
(0.000132104 7.64925e-05 0.103671)
(0.000132137 -7.64555e-05 0.103671)
(-0.000135549 -7.8401e-05 0.103354)
(-0.000132104 7.6495e-05 0.103671)
(-0.000132143 -7.64764e-05 0.103671)
(0.000183647 -0.000183757 0.103281)
(5.9232e-05 -5.92913e-05 0.10362)
(-7.84013e-05 -0.000135496 0.103354)
(7.65294e-05 -0.000132114 0.103671)
(-7.64771e-05 -0.00013209 0.103671)
(-5.91336e-05 -5.91387e-05 0.103621)
(0.000180112 0.000179985 0.103664)
(5.24432e-05 5.24635e-05 0.103988)
(7.5957e-05 0.000131122 0.103774)
(-7.59355e-05 0.000131118 0.103774)
(7.46999e-05 0.000128269 0.104076)
(-7.47072e-05 0.000128285 0.104076)
(-0.000180211 0.000180081 0.103664)
(-5.27826e-05 5.2837e-05 0.103987)
(0.000131073 7.59665e-05 0.103774)
(0.000131095 -7.59244e-05 0.103774)
(0.000128215 7.4632e-05 0.104076)
(0.000128251 -7.4687e-05 0.104076)
(-0.000131108 -7.59413e-05 0.103774)
(-0.000128215 7.46298e-05 0.104076)
(-0.000128233 -7.4619e-05 0.104076)
(0.000180124 -0.000180316 0.103664)
(5.2762e-05 -5.26907e-05 0.103988)
(-7.59511e-05 -0.000131054 0.103774)
(7.46121e-05 -0.000128197 0.104076)
(-7.45725e-05 -0.000128167 0.104076)
(-5.25101e-05 -5.24763e-05 0.103988)
(0.000178085 0.000178024 0.104022)
(4.67945e-05 4.68024e-05 0.104333)
(7.43353e-05 0.000127394 0.104174)
(-7.42958e-05 0.000127383 0.104174)
(7.32678e-05 0.000124903 0.104463)
(-7.32703e-05 0.000124925 0.104463)
(-0.000178229 0.000178184 0.104023)
(-4.68418e-05 4.6886e-05 0.104333)
(0.000127341 7.42716e-05 0.104174)
(0.000127372 -7.4305e-05 0.104174)
(0.000124846 7.32068e-05 0.104463)
(0.000124919 -7.3288e-05 0.104463)
(-0.000127383 -7.42832e-05 0.104174)
(-0.000124852 7.31971e-05 0.104463)
(-0.000124921 -7.32523e-05 0.104463)
(0.000178013 -0.000178078 0.104023)
(4.68966e-05 -4.68469e-05 0.104332)
(-7.42331e-05 -0.000127316 0.104174)
(7.32153e-05 -0.000124859 0.104463)
(-7.32017e-05 -0.000124852 0.104463)
(-4.68897e-05 -4.68753e-05 0.104332)
(0.000176684 0.000176609 0.104359)
(4.1406e-05 4.14199e-05 0.104657)
(7.3002e-05 0.000124175 0.104557)
(-7.2985e-05 0.000124182 0.104557)
(7.21228e-05 0.000122024 0.104834)
(-7.21105e-05 0.00012202 0.104834)
(-0.00017687 0.00017681 0.104358)
(-4.17016e-05 4.17545e-05 0.104657)
(0.000124118 7.29476e-05 0.104557)
(0.000124147 -7.29653e-05 0.104557)
(0.000121955 7.2069e-05 0.104834)
(0.000121983 -7.20781e-05 0.104834)
(-0.000124139 -7.29184e-05 0.104557)
(-0.000121941 7.20359e-05 0.104834)
(-0.000121983 -7.20352e-05 0.104834)
(0.00017691 -0.000176984 0.104358)
(4.15234e-05 -4.14899e-05 0.104657)
(-7.28681e-05 -0.000124068 0.104557)
(7.2011e-05 -0.000121918 0.104834)
(-7.19872e-05 -0.00012191 0.104834)
(-4.13013e-05 -4.12972e-05 0.104657)
(0.000176218 0.00017615 0.104673)
(3.66074e-05 3.6591e-05 0.104961)
(7.18662e-05 0.000121354 0.104924)
(-7.17908e-05 0.000121318 0.104924)
(7.10111e-05 0.000119393 0.10519)
(-7.09796e-05 0.000119404 0.10519)
(-0.000176421 0.000176363 0.104673)
(-3.62292e-05 3.62715e-05 0.104961)
(0.000121288 7.18126e-05 0.104924)
(0.000121327 -7.18162e-05 0.104924)
(0.000119332 7.09568e-05 0.10519)
(0.000119401 -7.09888e-05 0.10519)
(-0.00012134 -7.18061e-05 0.104924)
(-0.000119333 7.09083e-05 0.10519)
(-0.000119392 -7.09493e-05 0.10519)
(0.000176129 -0.000176214 0.104673)
(3.63053e-05 -3.62884e-05 0.104961)
(-7.17537e-05 -0.000121265 0.104924)
(7.09292e-05 -0.000119332 0.10519)
(-7.08997e-05 -0.000119316 0.10519)
(-3.6331e-05 -3.63391e-05 0.104961)
(0.000175938 0.000175841 0.104967)
(3.12587e-05 3.12285e-05 0.105246)
(7.06901e-05 0.000118756 0.105277)
(-7.07134e-05 0.000118775 0.105276)
(6.98505e-05 0.00011695 0.105531)
(-6.98173e-05 0.00011693 0.105531)
(-0.000175898 0.000175831 0.104966)
(-3.14379e-05 3.14609e-05 0.105247)
(0.000118698 7.06448e-05 0.105277)
(0.00011876 -7.07023e-05 0.105276)
(0.000116887 6.98057e-05 0.105531)
(0.000116912 -6.98032e-05 0.105531)
(-0.000118781 -7.06823e-05 0.105276)
(-0.000116862 6.97519e-05 0.105531)
(-0.000116929 -6.97932e-05 0.105531)
(0.000175849 -0.000175949 0.104966)
(3.13998e-05 -3.1412e-05 0.105247)
(-7.06324e-05 -0.000118702 0.105277)
(6.97506e-05 -0.000116841 0.105531)
(-6.97498e-05 -0.00011685 0.105531)
(-3.1598e-05 -3.16223e-05 0.105246)
(0.000175522 0.000175407 0.105239)
(2.666e-05 2.66368e-05 0.105511)
(6.95488e-05 0.000116339 0.105614)
(-6.9525e-05 0.000116351 0.105614)
(6.85705e-05 0.000114535 0.105859)
(-6.86053e-05 0.000114562 0.105858)
(-0.000175489 0.000175394 0.10524)
(-2.65202e-05 2.66323e-05 0.105511)
(0.00011628 6.95115e-05 0.105615)
(0.000116355 -6.95347e-05 0.105614)
(0.000114461 6.85319e-05 0.105859)
(0.000114566 -6.86232e-05 0.105858)
(-0.000116337 -6.94728e-05 0.105614)
(-0.000114488 6.85201e-05 0.105859)
(-0.000114579 -6.85809e-05 0.105859)
(0.00017528 -0.000175422 0.10524)
(2.6612e-05 -2.65424e-05 0.105511)
(-6.94323e-05 -0.000116256 0.105615)
(6.85567e-05 -0.000114482 0.105859)
(-6.85124e-05 -0.000114487 0.105859)
(-2.63783e-05 -2.63216e-05 0.105511)
(0.000175184 0.000175118 0.105491)
(2.10732e-05 2.11336e-05 0.105755)
(6.83244e-05 0.000113981 0.105938)
(-6.83166e-05 0.000113946 0.105938)
(6.75395e-05 0.000112241 0.106172)
(-6.75258e-05 0.000112213 0.106172)
(-0.000175377 0.00017538 0.105491)
(-2.11451e-05 2.12835e-05 0.105756)
(0.000113908 6.82607e-05 0.105938)
(0.000113938 -6.8311e-05 0.105938)
(0.000112172 6.74619e-05 0.106172)
(0.000112216 -6.75223e-05 0.106172)
(-0.000113951 -6.82953e-05 0.105938)
(-0.000112145 6.74199e-05 0.106172)
(-0.000112209 -6.74984e-05 0.106172)
(0.00017542 -0.000175479 0.105491)
(2.12185e-05 -2.10905e-05 0.105756)
(-6.82095e-05 -0.000113855 0.105938)
(6.74023e-05 -0.000112125 0.106172)
(-6.74046e-05 -0.000112111 0.106172)
(-2.15613e-05 -2.1493e-05 0.105755)
(0.000174428 0.000174394 0.10572)
(1.64256e-05 1.6495e-05 0.105978)
(6.72911e-05 0.000111653 0.106247)
(-6.7289e-05 0.000111673 0.106247)
(6.64827e-05 0.000110038 0.10647)
(-6.65361e-05 0.000110078 0.10647)
(-0.000174149 0.00017415 0.10572)
(-1.65085e-05 1.66208e-05 0.105977)
(0.00011159 6.72181e-05 0.106248)
(0.000111659 -6.72788e-05 0.106247)
(0.000109988 6.64177e-05 0.10647)
(0.000110065 -6.65198e-05 0.10647)
(-0.000111666 -6.72337e-05 0.106248)
(-0.000109939 6.64113e-05 0.10647)
(-0.000110009 -6.6464e-05 0.10647)
(0.000174209 -0.000174221 0.10572)
(1.67444e-05 -1.6643e-05 0.105977)
(-6.7138e-05 -0.000111563 0.106248)
(6.63973e-05 -0.000109972 0.10647)
(-6.63696e-05 -0.000109909 0.10647)
(-1.63469e-05 -1.62868e-05 0.105977)
(0.000173216 0.000173194 0.105926)
(1.15487e-05 1.16103e-05 0.106176)
(6.62738e-05 0.000109573 0.106542)
(-6.62608e-05 0.000109561 0.106542)
(6.54722e-05 0.000108051 0.106753)
(-6.54627e-05 0.000108034 0.106753)
(-0.000173496 0.00017349 0.105926)
(-1.15511e-05 1.16224e-05 0.106176)
(0.000109529 6.62098e-05 0.106543)
(0.000109544 -6.62256e-05 0.106542)
(0.000108012 6.54066e-05 0.106754)
(0.000108042 -6.54424e-05 0.106753)
(-0.000109514 -6.62221e-05 0.106542)
(-0.000107926 6.5346e-05 0.106754)
(-0.000108011 -6.54408e-05 0.106753)
(0.000173606 -0.000173639 0.105926)
(1.16191e-05 -1.15287e-05 0.106176)
(-6.61284e-05 -0.000109408 0.106543)
(6.53203e-05 -0.000107946 0.106754)
(-6.53451e-05 -0.000107905 0.106754)
(-1.17378e-05 -1.16924e-05 0.106176)
(0.000172181 0.000172156 0.106107)
(7.84858e-06 7.91674e-06 0.10635)
(6.51894e-05 0.000107495 0.106822)
(-6.521e-05 0.000107528 0.106822)
(6.43645e-05 0.000105949 0.107021)
(-6.43905e-05 0.000105984 0.107021)
(-0.000171935 0.000171883 0.106108)
(-7.66055e-06 7.7157e-06 0.10635)
(0.00010746 6.51245e-05 0.106822)
(0.000107561 -6.5215e-05 0.106822)
(0.00010592 6.42998e-05 0.107022)
(0.000106023 -6.44107e-05 0.107021)
(-0.000107488 -6.5155e-05 0.106822)
(-0.000105872 6.42791e-05 0.107022)
(-0.000105957 -6.43544e-05 0.107021)
(0.000171791 -0.000171845 0.106108)
(7.71411e-06 -7.61534e-06 0.10635)
(-6.50563e-05 -0.000107371 0.106822)
(6.42831e-05 -0.00010592 0.107022)
(-6.42502e-05 -0.000105837 0.107022)
(-7.7724e-06 -7.72617e-06 0.10635)
(0.000170588 0.000170556 0.106264)
(3.51924e-06 3.57555e-06 0.106499)
(6.40566e-05 0.000105475 0.107086)
(-6.40969e-05 0.000105483 0.107086)
(6.32679e-05 0.000104092 0.107273)
(-6.32832e-05 0.000104087 0.107273)
(-0.000170546 0.000170502 0.106264)
(-3.55196e-06 3.63923e-06 0.106499)
(0.000105428 6.39957e-05 0.107086)
(0.000105478 -6.40852e-05 0.107086)
(0.00010403 6.32166e-05 0.107274)
(0.000104082 -6.32988e-05 0.107273)
(-0.000105465 -6.40561e-05 0.107086)
(-0.000103989 6.31896e-05 0.107274)
(-0.00010407 -6.32622e-05 0.107273)
(0.000170714 -0.000170758 0.106264)
(3.94263e-06 -3.85353e-06 0.106498)
(-6.39535e-05 -0.000105361 0.107086)
(6.3177e-05 -0.000103978 0.107274)
(-6.31634e-05 -0.000103968 0.107274)
(-3.55921e-06 -3.52381e-06 0.106498)
(0.000167956 0.000167921 0.106394)
(-1.09061e-07 -4.08023e-08 0.106619)
(6.30568e-05 0.000103656 0.107334)
(-6.30601e-05 0.000103653 0.107333)
(6.22647e-05 0.000102169 0.107508)
(-6.22568e-05 0.000102185 0.107508)
(-0.000167973 0.000167946 0.106394)
(2.11221e-07 -1.25605e-07 0.10662)
(0.000103588 6.30107e-05 0.107334)
(0.000103633 -6.30241e-05 0.107333)
(0.000102118 6.22053e-05 0.107509)
(0.000102181 -6.22422e-05 0.107508)
(-0.000103619 -6.30309e-05 0.107334)
(-0.000102086 6.21558e-05 0.107509)
(-0.000102159 -6.22444e-05 0.107508)
(0.000168185 -0.000168241 0.106394)
(-4.51533e-08 1.18488e-07 0.106619)
(-6.29345e-05 -0.000103514 0.107334)
(6.21214e-05 -0.000102073 0.107509)
(-6.21383e-05 -0.000102054 0.107509)
(-1.85557e-10 3.77349e-08 0.106619)
(0.000165637 0.000165601 0.106496)
(-2.84094e-06 -2.77765e-06 0.106713)
(6.2002e-05 0.000101646 0.107565)
(-6.20256e-05 0.000101674 0.107565)
(6.12491e-05 0.000100148 0.107726)
(-6.1244e-05 0.000100186 0.107726)
(-0.000165437 0.000165409 0.106496)
(2.99516e-06 -2.94774e-06 0.106713)
(0.000101607 6.19421e-05 0.107565)
(0.000101698 -6.20253e-05 0.107564)
(0.00010011 6.11953e-05 0.107727)
(0.000100194 -6.1254e-05 0.107726)
(-0.000101648 -6.19789e-05 0.107565)
(-0.000100083 6.1155e-05 0.107727)
(-0.00010014 -6.12088e-05 0.107726)
(0.000165368 -0.000165427 0.106497)
(-3.03485e-06 3.10239e-06 0.106712)
(-6.18721e-05 -0.000101547 0.107565)
(6.1134e-05 -0.000100087 0.107727)
(-6.11076e-05 -0.000100036 0.107727)
(2.79792e-06 2.83997e-06 0.106712)
(0.000162674 0.000162632 0.106572)
(-5.72253e-06 -5.72415e-06 0.106779)
(6.09278e-05 9.95949e-05 0.107778)
(-6.09637e-05 9.965e-05 0.107778)
(6.01835e-05 9.79999e-05 0.107927)
(-6.0192e-05 9.80243e-05 0.107927)
(-0.000162592 0.000162533 0.106572)
(5.68713e-06 -5.61016e-06 0.106779)
(9.95626e-05 6.08825e-05 0.107779)
(9.96554e-05 -6.09884e-05 0.107778)
(9.79702e-05 6.01699e-05 0.107927)
(9.8041e-05 -6.02255e-05 0.107926)
(-9.96186e-05 -6.09135e-05 0.107778)
(-9.79112e-05 6.0095e-05 0.107927)
(-9.79759e-05 -6.01292e-05 0.107927)
(0.00016251 -0.000162571 0.106572)
(-5.69466e-06 5.75608e-06 0.106778)
(-6.08112e-05 -9.95119e-05 0.107779)
(6.01192e-05 -9.79326e-05 0.107927)
(-6.00284e-05 -9.78592e-05 0.107927)
(5.60366e-06 5.63707e-06 0.106778)
(0.000158652 0.000158525 0.106621)
(-8.48064e-06 -8.32596e-06 0.106817)
(5.98895e-05 9.74021e-05 0.107974)
(-5.9891e-05 9.7447e-05 0.107974)
(5.91786e-05 9.56515e-05 0.108109)
(-5.91788e-05 9.56884e-05 0.108109)
(-0.000158554 0.000158529 0.106621)
(8.41255e-06 -8.3449e-06 0.106817)
(9.73751e-05 5.98609e-05 0.107975)
(9.74454e-05 -5.99101e-05 0.107974)
(9.56149e-05 5.91022e-05 0.108109)
(9.56877e-05 -5.9195e-05 0.108108)
(-9.74265e-05 -5.98523e-05 0.107974)
(-9.5555e-05 5.90805e-05 0.10811)
(-9.56291e-05 -5.90942e-05 0.108109)
(0.000158666 -0.000158754 0.106621)
(-8.30414e-06 8.42577e-06 0.106816)
(-5.97518e-05 -9.73087e-05 0.107974)
(5.90494e-05 -9.5578e-05 0.108109)
(-5.89824e-05 -9.54898e-05 0.108109)
(8.39134e-06 8.41144e-06 0.106817)
(0.000154202 0.000154228 0.106644)
(-1.06187e-05 -1.04908e-05 0.106829)
(5.8903e-05 9.50189e-05 0.108151)
(-5.89049e-05 9.50641e-05 0.108151)
(5.81801e-05 9.32109e-05 0.108272)
(-5.81871e-05 9.32735e-05 0.108272)
(-0.000154077 0.000154034 0.106644)
(1.07115e-05 -1.06478e-05 0.10683)
(9.49798e-05 5.88229e-05 0.108152)
(9.5043e-05 -5.89055e-05 0.108151)
(9.31671e-05 5.80853e-05 0.108273)
(9.32473e-05 -5.81858e-05 0.108272)
(-9.50518e-05 -5.88723e-05 0.108151)
(-9.31715e-05 5.80746e-05 0.108273)
(-9.31915e-05 -5.80868e-05 0.108272)
(0.000154228 -0.00015425 0.106644)
(-1.05157e-05 1.06293e-05 0.106829)
(-5.87653e-05 -9.49435e-05 0.108152)
(5.8048e-05 -9.31534e-05 0.108273)
(-5.79988e-05 -9.31134e-05 0.108273)
(1.0661e-05 1.07016e-05 0.106829)
(0.000149536 0.000149536 0.106642)
(-1.26931e-05 -1.25885e-05 0.106817)
(5.78842e-05 9.25705e-05 0.10831)
(-5.79436e-05 9.26454e-05 0.10831)
(5.70656e-05 9.06101e-05 0.108417)
(-5.71087e-05 9.06771e-05 0.108417)
(-0.000149432 0.000149392 0.106643)
(1.27728e-05 -1.27149e-05 0.106818)
(9.25271e-05 5.7788e-05 0.108311)
(9.26051e-05 -5.79021e-05 0.10831)
(9.05585e-05 5.69675e-05 0.108418)
(9.06554e-05 -5.71057e-05 0.108417)
(-9.25857e-05 -5.78297e-05 0.10831)
(-9.0574e-05 5.69877e-05 0.108418)
(-9.0629e-05 -5.70606e-05 0.108417)
(0.000149504 -0.000149534 0.106643)
(-1.26302e-05 1.27295e-05 0.106817)
(-5.77504e-05 -9.25142e-05 0.108311)
(5.69721e-05 -9.05656e-05 0.108418)
(-5.69835e-05 -9.05621e-05 0.108418)
(1.26283e-05 1.26779e-05 0.106817)
(0.000144346 0.000144329 0.106619)
(-1.46166e-05 -1.45266e-05 0.106784)
(5.67718e-05 8.99488e-05 0.10845)
(-5.68288e-05 9.00059e-05 0.10845)
(5.59323e-05 8.78327e-05 0.108543)
(-5.59414e-05 8.78937e-05 0.108543)
(-0.000144303 0.000144263 0.106619)
(1.47285e-05 -1.4665e-05 0.106784)
(8.98978e-05 5.66712e-05 0.108451)
(8.99794e-05 -5.68105e-05 0.10845)
(8.77776e-05 5.58362e-05 0.108544)
(8.78541e-05 -5.58737e-05 0.108542)
(-8.99452e-05 -5.67391e-05 0.10845)
(-8.7784e-05 5.58246e-05 0.108544)
(-8.7859e-05 -5.59213e-05 0.108543)
(0.000144289 -0.000144325 0.106619)
(-1.46734e-05 1.47722e-05 0.106783)
(-5.66611e-05 -8.98779e-05 0.108451)
(5.57498e-05 -8.77632e-05 0.108544)
(-5.58477e-05 -8.77903e-05 0.108543)
(1.4574e-05 1.46288e-05 0.106783)
(0.0001389 0.000138876 0.106575)
(-1.66363e-05 -1.65521e-05 0.106731)
(5.55229e-05 8.70944e-05 0.108571)
(-5.55863e-05 8.71642e-05 0.108571)
(5.46549e-05 8.49243e-05 0.10865)
(-5.46443e-05 8.49615e-05 0.10865)
(-0.000138843 0.000138813 0.106575)
(1.67549e-05 -1.66911e-05 0.106732)
(8.70375e-05 5.54182e-05 0.108572)
(8.71682e-05 -5.55897e-05 0.108571)
(8.48702e-05 5.45616e-05 0.108651)
(8.48662e-05 -5.45065e-05 0.10865)
(-8.71122e-05 -5.55105e-05 0.108571)
(-8.485e-05 5.45268e-05 0.108651)
(-8.49304e-05 -5.46271e-05 0.10865)
(0.000138758 -0.000138788 0.106575)
(-1.66272e-05 1.67283e-05 0.106731)
(-5.54323e-05 -8.70443e-05 0.108572)
(5.43833e-05 -8.47751e-05 0.108651)
(-5.45559e-05 -8.48638e-05 0.108651)
(1.65689e-05 1.66165e-05 0.106731)
(0.00013325 0.000133221 0.106515)
(-1.88261e-05 -1.87536e-05 0.106663)
(5.42116e-05 8.41326e-05 0.108674)
(-5.42237e-05 8.41792e-05 0.108674)
(5.31239e-05 8.18442e-05 0.108739)
(-5.31774e-05 8.18919e-05 0.108739)
(-0.000133204 0.00013318 0.106515)
(1.88252e-05 -1.87708e-05 0.106663)
(8.40725e-05 5.41148e-05 0.108675)
(8.41214e-05 -5.40872e-05 0.108673)
(8.17902e-05 5.30157e-05 0.10874)
(8.18507e-05 -5.31823e-05 0.108738)
(-8.41322e-05 -5.41547e-05 0.108674)
(-8.17823e-05 5.3057e-05 0.10874)
(-8.18481e-05 -5.31262e-05 0.108739)
(0.000133016 -0.00013304 0.106515)
(-1.85011e-05 1.85991e-05 0.106662)
(-5.40841e-05 -8.40621e-05 0.108675)
(5.30554e-05 -8.17617e-05 0.10874)
(-5.30456e-05 -8.17882e-05 0.10874)
(1.86905e-05 1.87272e-05 0.106662)
(0.000127283 0.000127244 0.10644)
(-2.09579e-05 -2.0888e-05 0.106582)
(5.27179e-05 8.10489e-05 0.108759)
(-5.27169e-05 8.10707e-05 0.108758)
(5.12738e-05 7.85501e-05 0.10881)
(-5.14088e-05 7.864e-05 0.10881)
(-0.000127432 0.000127396 0.10644)
(2.09527e-05 -2.09058e-05 0.106582)
(8.09948e-05 5.26124e-05 0.108759)
(8.09922e-05 -5.26039e-05 0.108758)
(7.84898e-05 5.11626e-05 0.108811)
(7.86552e-05 -5.14686e-05 0.10881)
(-8.10487e-05 -5.27025e-05 0.108758)
(-7.85318e-05 5.12919e-05 0.108812)
(-7.8577e-05 -5.13017e-05 0.10881)
(0.0001274 -0.000127427 0.10644)
(-2.07696e-05 2.08633e-05 0.106581)
(-5.26266e-05 -8.09867e-05 0.108759)
(5.13471e-05 -7.85696e-05 0.108811)
(-5.12186e-05 -7.85156e-05 0.108811)
(2.08775e-05 2.09196e-05 0.106581)
(0.000121218 0.000121183 0.106355)
(-2.27206e-05 -2.26501e-05 0.106491)
(5.09111e-05 7.77882e-05 0.108826)
(-5.09562e-05 7.78068e-05 0.108825)
(4.94243e-05 7.51917e-05 0.108865)
(-4.95554e-05 7.53199e-05 0.108864)
(-0.000121485 0.000121446 0.106355)
(2.29552e-05 -2.29053e-05 0.106492)
(7.77296e-05 5.07978e-05 0.108826)
(7.7807e-05 -5.10063e-05 0.108825)
(7.51277e-05 4.93328e-05 0.108866)
(7.52499e-05 -4.94347e-05 0.108864)
(-7.77666e-05 -5.0873e-05 0.108825)
(-7.52114e-05 4.94463e-05 0.108866)
(-7.52252e-05 -4.94186e-05 0.108865)
(0.000121491 -0.000121519 0.106354)
(-2.30398e-05 2.31341e-05 0.10649)
(-5.07922e-05 -7.77078e-05 0.108826)
(4.93175e-05 -7.51618e-05 0.108866)
(-4.93526e-05 -7.51573e-05 0.108865)
(2.27594e-05 2.28107e-05 0.10649)
(0.000115483 0.000115453 0.106261)
(-2.44497e-05 -2.43827e-05 0.106394)
(4.87677e-05 7.43008e-05 0.108876)
(-4.90388e-05 7.44278e-05 0.108876)