/*--------------------------------*- C++ -*----------------------------------*\
| =========                 |                                                 |
| \\      /  F ield         | OpenFOAM: The Open Source CFD Toolbox           |
|  \\    /   O peration     | Version:  v2012                                 |
|   \\  /    A nd           | Website:  www.openfoam.com                      |
|    \\/     M anipulation  |                                                 |
\*---------------------------------------------------------------------------*/
FoamFile
{
    version     2.0;
    format      ascii;
    class       volScalarField;
    location    "0.38";
    object      p;
}
// * * * * * * * * * * * * * * * * * * * * * * * * * * * * * * * * * * * * * //

dimensions      [0 2 -2 0 0 0 0];


internalField   nonuniform List<scalar> 
247104
(
1.8442e-06
1.84409e-06
1.84424e-06
1.84422e-06
1.84413e-06
1.84424e-06
1.84423e-06
1.84402e-06
1.84409e-06
1.84415e-06
1.84421e-06
1.84406e-06
1.84397e-06
1.84408e-06
1.84422e-06
1.84413e-06
1.84424e-06
1.84421e-06
1.84391e-06
1.84355e-06
1.84341e-06
1.84358e-06
1.84396e-06
1.84423e-06
1.84424e-06
1.84422e-06
1.84406e-06
1.84355e-06
1.84306e-06
1.84289e-06
1.84311e-06
1.84362e-06
1.84411e-06
1.84422e-06
1.8442e-06
1.84414e-06
1.84397e-06
1.84341e-06
1.84289e-06
1.84271e-06
1.84294e-06
1.84348e-06
1.84402e-06
1.84412e-06
1.84424e-06
1.84408e-06
1.84359e-06
1.84311e-06
1.84294e-06
1.84316e-06
1.84365e-06
1.84413e-06
1.84424e-06
1.84423e-06
1.84422e-06
1.84396e-06
1.84362e-06
1.84348e-06
1.84365e-06
1.844e-06
1.84424e-06
1.84423e-06
1.84402e-06
1.84413e-06
1.84423e-06
1.84411e-06
1.84403e-06
1.84413e-06
1.84424e-06
1.84409e-06
1.84425e-06
1.84422e-06
1.84412e-06
1.84425e-06
1.84423e-06
1.81127e-06
1.80927e-06
1.80867e-06
1.80745e-06
1.80746e-06
1.8074e-06
1.80739e-06
1.80871e-06
1.80895e-06
1.80867e-06
1.80661e-06
1.80399e-06
1.80397e-06
1.80397e-06
1.80399e-06
1.80699e-06
1.80725e-06
1.80745e-06
1.80399e-06
1.80393e-06
1.804e-06
1.804e-06
1.80393e-06
1.80399e-06
1.80737e-06
1.80867e-06
1.81127e-06
1.80746e-06
1.80397e-06
1.804e-06
1.80409e-06
1.80409e-06
1.804e-06
1.80397e-06
1.80737e-06
1.80901e-06
1.80927e-06
1.8074e-06
1.80397e-06
1.804e-06
1.80409e-06
1.80409e-06
1.804e-06
1.80397e-06
1.80754e-06
1.80761e-06
1.8074e-06
1.80399e-06
1.80393e-06
1.804e-06
1.804e-06
1.80393e-06
1.80399e-06
1.80732e-06
1.80859e-06
1.80872e-06
1.80699e-06
1.80399e-06
1.80397e-06
1.80397e-06
1.80399e-06
1.80723e-06
1.8074e-06
1.80886e-06
1.80895e-06
1.80726e-06
1.80737e-06
1.80737e-06
1.80754e-06
1.80732e-06
1.8074e-06
1.809e-06
1.80868e-06
1.80901e-06
1.80761e-06
1.80858e-06
1.80886e-06
1.79114e-06
1.79097e-06
1.7908e-06
1.7887e-06
1.78859e-06
1.78855e-06
1.78867e-06
1.79075e-06
1.79102e-06
1.7908e-06
1.78799e-06
1.78506e-06
1.78501e-06
1.785e-06
1.78505e-06
1.78847e-06
1.78914e-06
1.7887e-06
1.78505e-06
1.78481e-06
1.78485e-06
1.78485e-06
1.78481e-06
1.78505e-06
1.78927e-06
1.79123e-06
1.79114e-06
1.78859e-06
1.785e-06
1.78484e-06
1.78488e-06
1.78488e-06
1.78484e-06
1.785e-06
1.78932e-06
1.79098e-06
1.79097e-06
1.78855e-06
1.785e-06
1.78484e-06
1.78488e-06
1.78488e-06
1.78484e-06
1.785e-06
1.78928e-06
1.78927e-06
1.78867e-06
1.78505e-06
1.7848e-06
1.78484e-06
1.78485e-06
1.78481e-06
1.78506e-06
1.78932e-06
1.79132e-06
1.79075e-06
1.78847e-06
1.78506e-06
1.785e-06
1.78501e-06
1.78505e-06
1.78894e-06
1.78925e-06
1.79124e-06
1.79102e-06
1.78914e-06
1.78927e-06
1.78932e-06
1.78927e-06
1.78932e-06
1.78924e-06
1.79111e-06
1.79123e-06
1.79098e-06
1.78927e-06
1.79131e-06
1.79123e-06
1.7722e-06
1.77203e-06
1.77189e-06
1.76974e-06
1.76963e-06
1.76955e-06
1.76974e-06
1.77183e-06
1.77211e-06
1.77189e-06
1.76902e-06
1.76606e-06
1.76603e-06
1.76603e-06
1.76606e-06
1.76947e-06
1.77024e-06
1.76974e-06
1.76606e-06
1.76595e-06
1.76596e-06
1.76596e-06
1.76595e-06
1.76606e-06
1.77034e-06
1.77229e-06
1.7722e-06
1.76964e-06
1.76603e-06
1.76596e-06
1.76597e-06
1.76597e-06
1.76596e-06
1.76603e-06
1.77039e-06
1.77204e-06
1.77203e-06
1.76955e-06
1.76603e-06
1.76596e-06
1.76597e-06
1.76597e-06
1.76596e-06
1.76603e-06
1.77036e-06
1.77037e-06
1.76974e-06
1.76606e-06
1.76595e-06
1.76596e-06
1.76596e-06
1.76595e-06
1.76606e-06
1.77038e-06
1.77236e-06
1.77183e-06
1.76947e-06
1.76606e-06
1.76603e-06
1.76603e-06
1.76606e-06
1.77011e-06
1.77035e-06
1.77232e-06
1.77211e-06
1.77024e-06
1.77034e-06
1.77039e-06
1.77036e-06
1.77037e-06
1.77035e-06
1.77234e-06
1.77229e-06
1.77204e-06
1.77036e-06
1.77236e-06
1.77232e-06
1.75326e-06
1.75309e-06
1.75292e-06
1.75077e-06
1.75065e-06
1.75056e-06
1.75076e-06
1.75287e-06
1.75314e-06
1.75292e-06
1.75005e-06
1.74707e-06
1.74706e-06
1.74706e-06
1.74707e-06
1.75046e-06
1.75128e-06
1.75077e-06
1.74707e-06
1.74704e-06
1.74704e-06
1.74704e-06
1.74704e-06
1.74707e-06
1.75138e-06
1.75333e-06
1.75326e-06
1.75065e-06
1.74706e-06
1.74704e-06
1.74704e-06
1.74704e-06
1.74704e-06
1.74706e-06
1.75146e-06
1.75311e-06
1.75309e-06
1.75056e-06
1.74706e-06
1.74704e-06
1.74704e-06
1.74704e-06
1.74704e-06
1.74706e-06
1.75143e-06
1.75143e-06
1.75075e-06
1.74707e-06
1.74704e-06
1.74704e-06
1.74704e-06
1.74704e-06
1.74707e-06
1.75143e-06
1.75343e-06
1.75287e-06
1.75046e-06
1.74707e-06
1.74706e-06
1.74706e-06
1.74707e-06
1.75119e-06
1.75141e-06
1.75336e-06
1.75314e-06
1.75128e-06
1.75138e-06
1.75145e-06
1.75143e-06
1.75143e-06
1.75141e-06
1.75335e-06
1.75333e-06
1.75311e-06
1.75143e-06
1.75343e-06
1.75336e-06
1.73429e-06
1.73412e-06
1.73394e-06
1.73179e-06
1.73167e-06
1.73159e-06
1.73177e-06
1.73389e-06
1.73416e-06
1.73394e-06
1.73108e-06
1.72809e-06
1.72809e-06
1.72809e-06
1.72809e-06
1.73147e-06
1.73229e-06
1.73179e-06
1.72809e-06
1.72808e-06
1.72808e-06
1.72808e-06
1.72808e-06
1.72809e-06
1.7324e-06
1.73435e-06
1.73429e-06
1.73167e-06
1.72809e-06
1.72808e-06
1.72808e-06
1.72808e-06
1.72808e-06
1.72809e-06
1.73249e-06
1.73414e-06
1.73412e-06
1.73159e-06
1.72809e-06
1.72808e-06
1.72808e-06
1.72808e-06
1.72808e-06
1.72809e-06
1.73247e-06
1.73246e-06
1.73178e-06
1.72809e-06
1.72808e-06
1.72808e-06
1.72808e-06
1.72808e-06
1.72809e-06
1.73246e-06
1.73446e-06
1.73389e-06
1.73147e-06
1.72809e-06
1.72809e-06
1.72809e-06
1.72809e-06
1.73223e-06
1.73244e-06
1.73438e-06
1.73416e-06
1.73229e-06
1.7324e-06
1.73248e-06
1.73247e-06
1.73246e-06
1.73244e-06
1.73437e-06
1.73436e-06
1.73414e-06
1.73246e-06
1.73446e-06
1.73438e-06
1.71531e-06
1.71514e-06
1.71497e-06
1.71282e-06
1.7127e-06
1.71262e-06
1.7128e-06
1.71492e-06
1.71518e-06
1.71497e-06
1.71211e-06
1.70912e-06
1.70912e-06
1.70912e-06
1.70912e-06
1.71249e-06
1.71332e-06
1.71282e-06
1.70912e-06
1.70911e-06
1.70911e-06
1.70911e-06
1.70911e-06
1.70912e-06
1.71342e-06
1.71538e-06
1.71531e-06
1.7127e-06
1.70912e-06
1.70911e-06
1.70912e-06
1.70912e-06
1.70911e-06
1.70912e-06
1.71351e-06
1.71517e-06
1.71514e-06
1.71262e-06
1.70912e-06
1.70911e-06
1.70912e-06
1.70912e-06
1.70911e-06
1.70912e-06
1.71349e-06
1.71349e-06
1.7128e-06
1.70912e-06
1.70912e-06
1.70911e-06
1.70911e-06
1.70911e-06
1.70912e-06
1.71349e-06
1.71549e-06
1.71492e-06
1.71249e-06
1.70912e-06
1.70912e-06
1.70912e-06
1.70912e-06
1.71326e-06
1.71347e-06
1.71541e-06
1.71518e-06
1.71332e-06
1.71342e-06
1.71351e-06
1.71349e-06
1.71349e-06
1.71347e-06
1.7154e-06
1.71538e-06
1.71518e-06
1.71349e-06
1.71549e-06
1.71541e-06
1.69634e-06
1.69617e-06
1.696e-06
1.69385e-06
1.69373e-06
1.69365e-06
1.69383e-06
1.69595e-06
1.69621e-06
1.696e-06
1.69314e-06
1.69015e-06
1.69015e-06
1.69015e-06
1.69015e-06
1.69352e-06
1.69435e-06
1.69385e-06
1.69015e-06
1.69015e-06
1.69015e-06
1.69015e-06
1.69015e-06
1.69015e-06
1.69445e-06
1.69641e-06
1.69634e-06
1.69373e-06
1.69015e-06
1.69015e-06
1.69015e-06
1.69015e-06
1.69015e-06
1.69015e-06
1.69454e-06
1.6962e-06
1.69617e-06
1.69365e-06
1.69015e-06
1.69015e-06
1.69015e-06
1.69015e-06
1.69015e-06
1.69015e-06
1.69453e-06
1.69452e-06
1.69383e-06
1.69015e-06
1.69015e-06
1.69015e-06
1.69015e-06
1.69015e-06
1.69015e-06
1.69452e-06
1.69652e-06
1.69595e-06
1.69352e-06
1.69015e-06
1.69015e-06
1.69015e-06
1.69015e-06
1.69429e-06
1.6945e-06
1.69644e-06
1.69621e-06
1.69435e-06
1.69445e-06
1.69454e-06
1.69452e-06
1.69452e-06
1.6945e-06
1.69643e-06
1.69641e-06
1.69621e-06
1.69452e-06
1.69652e-06
1.69644e-06
1.67738e-06
1.67721e-06
1.67703e-06
1.67488e-06
1.67476e-06
1.67468e-06
1.67486e-06
1.67698e-06
1.67724e-06
1.67703e-06
1.67417e-06
1.67118e-06
1.67118e-06
1.67118e-06
1.67118e-06
1.67455e-06
1.67538e-06
1.67488e-06
1.67118e-06
1.67118e-06
1.67118e-06
1.67118e-06
1.67118e-06
1.67118e-06
1.67548e-06
1.67744e-06
1.67738e-06
1.67476e-06
1.67118e-06
1.67118e-06
1.67118e-06
1.67118e-06
1.67118e-06
1.67118e-06
1.67558e-06
1.67724e-06
1.67721e-06
1.67468e-06
1.67118e-06
1.67118e-06
1.67118e-06
1.67118e-06
1.67118e-06
1.67118e-06
1.67556e-06
1.67555e-06
1.67486e-06
1.67118e-06
1.67118e-06
1.67118e-06
1.67118e-06
1.67118e-06
1.67118e-06
1.67555e-06
1.67755e-06
1.67698e-06
1.67455e-06
1.67118e-06
1.67118e-06
1.67118e-06
1.67118e-06
1.67532e-06
1.67553e-06
1.67747e-06
1.67724e-06
1.67538e-06
1.67548e-06
1.67557e-06
1.67556e-06
1.67555e-06
1.67553e-06
1.67746e-06
1.67744e-06
1.67724e-06
1.67555e-06
1.67755e-06
1.67747e-06
1.65841e-06
1.65824e-06
1.65806e-06
1.65591e-06
1.65579e-06
1.65571e-06
1.65589e-06
1.65801e-06
1.65827e-06
1.65806e-06
1.6552e-06
1.65221e-06
1.65221e-06
1.65221e-06
1.65221e-06
1.65558e-06
1.65641e-06
1.65591e-06
1.65221e-06
1.65221e-06
1.65221e-06
1.65221e-06
1.65221e-06
1.65221e-06
1.65651e-06
1.65847e-06
1.65841e-06
1.65579e-06
1.65221e-06
1.65221e-06
1.65221e-06
1.65221e-06
1.65221e-06
1.65221e-06
1.65661e-06
1.65827e-06
1.65824e-06
1.65571e-06
1.65221e-06
1.65221e-06
1.65221e-06
1.65221e-06
1.65221e-06
1.65221e-06
1.65659e-06
1.65658e-06
1.65589e-06
1.65221e-06
1.65221e-06
1.65221e-06
1.65221e-06
1.65221e-06
1.65221e-06
1.65658e-06
1.65859e-06
1.65801e-06
1.65558e-06
1.65221e-06
1.65221e-06
1.65221e-06
1.65221e-06
1.65635e-06
1.65656e-06
1.6585e-06
1.65827e-06
1.65641e-06
1.65651e-06
1.65661e-06
1.65659e-06
1.65658e-06
1.65657e-06
1.65849e-06
1.65847e-06
1.65827e-06
1.65659e-06
1.65858e-06
1.6585e-06
1.63944e-06
1.63927e-06
1.63909e-06
1.63694e-06
1.63682e-06
1.63674e-06
1.63692e-06
1.63904e-06
1.6393e-06
1.63909e-06
1.63623e-06
1.63324e-06
1.63324e-06
1.63324e-06
1.63324e-06
1.63661e-06
1.63744e-06
1.63694e-06
1.63324e-06
1.63324e-06
1.63324e-06
1.63324e-06
1.63324e-06
1.63324e-06
1.63754e-06
1.6395e-06
1.63944e-06
1.63682e-06
1.63324e-06
1.63324e-06
1.63324e-06
1.63324e-06
1.63324e-06
1.63324e-06
1.63764e-06
1.6393e-06
1.63927e-06
1.63674e-06
1.63324e-06
1.63324e-06
1.63324e-06
1.63324e-06
1.63324e-06
1.63324e-06
1.63762e-06
1.63762e-06
1.63692e-06
1.63324e-06
1.63324e-06
1.63324e-06
1.63324e-06
1.63324e-06
1.63324e-06
1.63761e-06
1.63962e-06
1.63904e-06
1.63661e-06
1.63324e-06
1.63324e-06
1.63324e-06
1.63324e-06
1.63738e-06
1.6376e-06
1.63953e-06
1.6393e-06
1.63744e-06
1.63754e-06
1.63764e-06
1.63762e-06
1.63761e-06
1.6376e-06
1.63952e-06
1.63951e-06
1.6393e-06
1.63762e-06
1.63962e-06
1.63953e-06
1.62047e-06
1.6203e-06
1.62012e-06
1.61797e-06
1.61785e-06
1.61777e-06
1.61795e-06
1.62007e-06
1.62033e-06
1.62012e-06
1.61726e-06
1.61427e-06
1.61427e-06
1.61427e-06
1.61427e-06
1.61764e-06
1.61847e-06
1.61797e-06
1.61427e-06
1.61427e-06
1.61427e-06
1.61427e-06
1.61427e-06
1.61427e-06
1.61857e-06
1.62053e-06
1.62047e-06
1.61785e-06
1.61427e-06
1.61427e-06
1.61427e-06
1.61427e-06
1.61427e-06
1.61427e-06
1.61867e-06
1.62033e-06
1.6203e-06
1.61777e-06
1.61427e-06
1.61427e-06
1.61427e-06
1.61427e-06
1.61427e-06
1.61427e-06
1.61865e-06
1.61865e-06
1.61795e-06
1.61427e-06
1.61427e-06
1.61427e-06
1.61427e-06
1.61427e-06
1.61427e-06
1.61864e-06
1.62065e-06
1.62007e-06
1.61764e-06
1.61427e-06
1.61427e-06
1.61427e-06
1.61427e-06
1.61841e-06
1.61863e-06
1.62056e-06
1.62034e-06
1.61847e-06
1.61857e-06
1.61867e-06
1.61865e-06
1.61864e-06
1.61863e-06
1.62055e-06
1.62054e-06
1.62033e-06
1.61865e-06
1.62065e-06
1.62056e-06
1.6015e-06
1.60133e-06
1.60115e-06
1.599e-06
1.59888e-06
1.5988e-06
1.59898e-06
1.6011e-06
1.60136e-06
1.60115e-06
1.59829e-06
1.5953e-06
1.5953e-06
1.5953e-06
1.5953e-06
1.59867e-06
1.5995e-06
1.599e-06
1.5953e-06
1.5953e-06
1.5953e-06
1.5953e-06
1.5953e-06
1.5953e-06
1.5996e-06
1.60156e-06
1.6015e-06
1.59888e-06
1.5953e-06
1.5953e-06
1.5953e-06
1.5953e-06
1.5953e-06
1.5953e-06
1.5997e-06
1.60136e-06
1.60133e-06
1.5988e-06
1.5953e-06
1.5953e-06
1.5953e-06
1.5953e-06
1.5953e-06
1.5953e-06
1.59968e-06
1.59968e-06
1.59898e-06
1.5953e-06
1.5953e-06
1.5953e-06
1.5953e-06
1.5953e-06
1.5953e-06
1.59967e-06
1.60168e-06
1.6011e-06
1.59867e-06
1.5953e-06
1.5953e-06
1.5953e-06
1.5953e-06
1.59944e-06
1.59966e-06
1.60159e-06
1.60136e-06
1.5995e-06
1.5996e-06
1.5997e-06
1.59968e-06
1.59967e-06
1.59966e-06
1.60158e-06
1.60157e-06
1.60136e-06
1.59968e-06
1.60168e-06
1.60159e-06
1.58253e-06
1.58236e-06
1.58218e-06
1.58003e-06
1.57991e-06
1.57983e-06
1.58001e-06
1.58213e-06
1.58239e-06
1.58218e-06
1.57932e-06
1.57633e-06
1.57633e-06
1.57633e-06
1.57633e-06
1.5797e-06
1.58053e-06
1.58003e-06
1.57633e-06
1.57633e-06
1.57633e-06
1.57633e-06
1.57633e-06
1.57633e-06
1.58063e-06
1.58259e-06
1.58253e-06
1.57991e-06
1.57633e-06
1.57633e-06
1.57633e-06
1.57633e-06
1.57633e-06
1.57633e-06
1.58073e-06
1.58239e-06
1.58236e-06
1.57983e-06
1.57633e-06
1.57633e-06
1.57633e-06
1.57633e-06
1.57633e-06
1.57633e-06
1.58071e-06
1.58071e-06
1.58001e-06
1.57633e-06
1.57633e-06
1.57633e-06
1.57633e-06
1.57633e-06
1.57633e-06
1.5807e-06
1.58271e-06
1.58213e-06
1.5797e-06
1.57633e-06
1.57633e-06
1.57633e-06
1.57633e-06
1.58047e-06
1.58068e-06
1.58262e-06
1.58239e-06
1.58053e-06
1.58063e-06
1.58073e-06
1.58071e-06
1.5807e-06
1.58069e-06
1.58261e-06
1.58259e-06
1.58239e-06
1.58071e-06
1.58271e-06
1.58262e-06
1.56356e-06
1.56339e-06
1.56321e-06
1.56106e-06
1.56094e-06
1.56086e-06
1.56104e-06
1.56316e-06
1.56342e-06
1.56321e-06
1.56035e-06
1.55736e-06
1.55736e-06
1.55736e-06
1.55736e-06
1.56073e-06
1.56156e-06
1.56106e-06
1.55736e-06
1.55736e-06
1.55736e-06
1.55736e-06
1.55736e-06
1.55736e-06
1.56166e-06
1.56362e-06
1.56356e-06
1.56094e-06
1.55736e-06
1.55736e-06
1.55736e-06
1.55736e-06
1.55736e-06
1.55736e-06
1.56175e-06
1.56342e-06
1.56339e-06
1.56086e-06
1.55736e-06
1.55736e-06
1.55736e-06
1.55736e-06
1.55736e-06
1.55736e-06
1.56174e-06
1.56173e-06
1.56104e-06
1.55736e-06
1.55736e-06
1.55736e-06
1.55736e-06
1.55736e-06
1.55736e-06
1.56173e-06
1.56374e-06
1.56316e-06
1.56073e-06
1.55736e-06
1.55736e-06
1.55736e-06
1.55736e-06
1.5615e-06
1.56171e-06
1.56365e-06
1.56342e-06
1.56156e-06
1.56166e-06
1.56175e-06
1.56173e-06
1.56173e-06
1.56171e-06
1.56364e-06
1.56362e-06
1.56342e-06
1.56173e-06
1.56373e-06
1.56365e-06
1.54458e-06
1.54441e-06
1.54424e-06
1.54209e-06
1.54197e-06
1.54189e-06
1.54207e-06
1.54419e-06
1.54445e-06
1.54424e-06
1.54138e-06
1.53839e-06
1.53839e-06
1.53839e-06
1.53839e-06
1.54176e-06
1.54259e-06
1.54208e-06
1.53839e-06
1.53839e-06
1.53839e-06
1.53839e-06
1.53839e-06
1.53839e-06
1.54269e-06
1.54465e-06
1.54458e-06
1.54197e-06
1.53839e-06
1.53839e-06
1.53839e-06
1.53839e-06
1.53839e-06
1.53839e-06
1.54278e-06
1.54445e-06
1.54442e-06
1.54189e-06
1.53839e-06
1.53839e-06
1.53839e-06
1.53839e-06
1.53839e-06
1.53839e-06
1.54276e-06
1.54276e-06
1.54207e-06
1.53839e-06
1.53839e-06
1.53839e-06
1.53839e-06
1.53839e-06
1.53839e-06
1.54276e-06
1.54476e-06
1.54419e-06
1.54176e-06
1.53839e-06
1.53839e-06
1.53839e-06
1.53839e-06
1.54253e-06
1.54274e-06
1.54468e-06
1.54445e-06
1.54259e-06
1.54269e-06
1.54278e-06
1.54276e-06
1.54276e-06
1.54274e-06
1.54467e-06
1.54465e-06
1.54445e-06
1.54276e-06
1.54476e-06
1.54468e-06
1.52561e-06
1.52544e-06
1.52527e-06
1.52311e-06
1.523e-06
1.52292e-06
1.5231e-06
1.52522e-06
1.52548e-06
1.52527e-06
1.52241e-06
1.51941e-06
1.51941e-06
1.51941e-06
1.51941e-06
1.52279e-06
1.52362e-06
1.52311e-06
1.51941e-06
1.51941e-06
1.51941e-06
1.51941e-06
1.51941e-06
1.51941e-06
1.52372e-06
1.52568e-06
1.52561e-06
1.523e-06
1.51941e-06
1.51941e-06
1.51941e-06
1.51941e-06
1.51941e-06
1.51941e-06
1.52381e-06
1.52547e-06
1.52544e-06
1.52292e-06
1.51941e-06
1.51941e-06
1.51941e-06
1.51941e-06
1.51941e-06
1.51941e-06
1.52379e-06
1.52379e-06
1.5231e-06
1.51941e-06
1.51941e-06
1.51941e-06
1.51941e-06
1.51941e-06
1.51941e-06
1.52379e-06
1.52579e-06
1.52522e-06
1.52279e-06
1.51941e-06
1.51941e-06
1.51941e-06
1.51941e-06
1.52356e-06
1.52377e-06
1.52571e-06
1.52548e-06
1.52362e-06
1.52372e-06
1.52381e-06
1.52379e-06
1.52379e-06
1.52377e-06
1.5257e-06
1.52568e-06
1.52547e-06
1.52379e-06
1.52579e-06
1.52571e-06
1.50664e-06
1.50647e-06
1.50629e-06
1.50414e-06
1.50403e-06
1.50394e-06
1.50413e-06
1.50624e-06
1.50651e-06
1.50629e-06
1.50343e-06
1.50044e-06
1.50044e-06
1.50044e-06
1.50044e-06
1.50382e-06
1.50465e-06
1.50414e-06
1.50044e-06
1.50044e-06
1.50044e-06
1.50044e-06
1.50044e-06
1.50044e-06
1.50475e-06
1.50671e-06
1.50664e-06
1.50403e-06
1.50044e-06
1.50044e-06
1.50044e-06
1.50044e-06
1.50044e-06
1.50044e-06
1.50484e-06
1.5065e-06
1.50647e-06
1.50394e-06
1.50044e-06
1.50044e-06
1.50044e-06
1.50044e-06
1.50044e-06
1.50044e-06
1.50482e-06
1.50482e-06
1.50413e-06
1.50044e-06
1.50044e-06
1.50044e-06
1.50044e-06
1.50044e-06
1.50044e-06
1.50481e-06
1.50682e-06
1.50624e-06
1.50382e-06
1.50044e-06
1.50044e-06
1.50044e-06
1.50044e-06
1.50458e-06
1.5048e-06
1.50673e-06
1.50651e-06
1.50465e-06
1.50475e-06
1.50484e-06
1.50482e-06
1.50481e-06
1.5048e-06
1.50672e-06
1.50671e-06
1.5065e-06
1.50482e-06
1.50682e-06
1.50674e-06
1.48767e-06
1.4875e-06
1.48732e-06
1.48517e-06
1.48506e-06
1.48497e-06
1.48516e-06
1.48727e-06
1.48754e-06
1.48732e-06
1.48446e-06
1.48147e-06
1.48147e-06
1.48147e-06
1.48147e-06
1.48484e-06
1.48568e-06
1.48517e-06
1.48147e-06
1.48147e-06
1.48147e-06
1.48147e-06
1.48147e-06
1.48147e-06
1.48577e-06
1.48773e-06
1.48767e-06
1.48506e-06
1.48147e-06
1.48147e-06
1.48147e-06
1.48147e-06
1.48147e-06
1.48147e-06
1.48587e-06
1.48753e-06
1.4875e-06
1.48497e-06
1.48147e-06
1.48147e-06
1.48147e-06
1.48147e-06
1.48147e-06
1.48147e-06
1.48585e-06
1.48585e-06
1.48516e-06
1.48147e-06
1.48147e-06
1.48147e-06
1.48147e-06
1.48147e-06
1.48147e-06
1.48584e-06
1.48785e-06
1.48727e-06
1.48484e-06
1.48147e-06
1.48147e-06
1.48147e-06
1.48147e-06
1.48561e-06
1.48583e-06
1.48776e-06
1.48754e-06
1.48568e-06
1.48577e-06
1.48587e-06
1.48585e-06
1.48584e-06
1.48583e-06
1.48775e-06
1.48774e-06
1.48753e-06
1.48585e-06
1.48785e-06
1.48776e-06
1.4687e-06
1.46853e-06
1.46835e-06
1.4662e-06
1.46609e-06
1.466e-06
1.46619e-06
1.4683e-06
1.46857e-06
1.46835e-06
1.46549e-06
1.4625e-06
1.4625e-06
1.4625e-06
1.4625e-06
1.46587e-06
1.46671e-06
1.4662e-06
1.4625e-06
1.4625e-06
1.4625e-06
1.4625e-06
1.4625e-06
1.4625e-06
1.4668e-06
1.46876e-06
1.4687e-06
1.46609e-06
1.4625e-06
1.4625e-06
1.4625e-06
1.4625e-06
1.4625e-06
1.4625e-06
1.4669e-06
1.46856e-06
1.46853e-06
1.466e-06
1.4625e-06
1.4625e-06
1.4625e-06
1.4625e-06
1.4625e-06
1.4625e-06
1.46688e-06
1.46688e-06
1.46619e-06
1.4625e-06
1.4625e-06
1.4625e-06
1.4625e-06
1.4625e-06
1.4625e-06
1.46687e-06
1.46888e-06
1.4683e-06
1.46587e-06
1.4625e-06
1.4625e-06
1.4625e-06
1.4625e-06
1.46664e-06
1.46686e-06
1.46879e-06
1.46857e-06
1.46671e-06
1.4668e-06
1.4669e-06
1.46688e-06
1.46687e-06
1.46686e-06
1.46878e-06
1.46877e-06
1.46856e-06
1.46688e-06
1.46888e-06
1.46879e-06
1.44973e-06
1.44956e-06
1.44938e-06
1.44723e-06
1.44712e-06
1.44703e-06
1.44722e-06
1.44933e-06
1.4496e-06
1.44938e-06
1.44652e-06
1.44353e-06
1.44353e-06
1.44353e-06
1.44353e-06
1.44691e-06
1.44774e-06
1.44723e-06
1.44353e-06
1.44353e-06
1.44353e-06
1.44353e-06
1.44353e-06
1.44353e-06
1.44784e-06
1.4498e-06
1.44973e-06
1.44712e-06
1.44353e-06
1.44353e-06
1.44353e-06
1.44353e-06
1.44353e-06
1.44353e-06
1.44793e-06
1.44959e-06
1.44956e-06
1.44703e-06
1.44353e-06
1.44353e-06
1.44353e-06
1.44353e-06
1.44353e-06
1.44353e-06
1.44791e-06
1.44791e-06
1.44722e-06
1.44353e-06
1.44353e-06
1.44353e-06
1.44353e-06
1.44353e-06
1.44353e-06
1.4479e-06
1.44991e-06
1.44933e-06
1.44691e-06
1.44353e-06
1.44353e-06
1.44353e-06
1.44353e-06
1.44767e-06
1.44789e-06
1.44982e-06
1.4496e-06
1.44774e-06
1.44784e-06
1.44793e-06
1.44791e-06
1.4479e-06
1.44789e-06
1.44981e-06
1.4498e-06
1.44959e-06
1.44791e-06
1.44991e-06
1.44982e-06
1.43076e-06
1.43059e-06
1.43041e-06
1.42826e-06
1.42815e-06
1.42806e-06
1.42825e-06
1.43036e-06
1.43063e-06
1.43042e-06
1.42756e-06
1.42456e-06
1.42456e-06
1.42456e-06
1.42456e-06
1.42794e-06
1.42877e-06
1.42826e-06
1.42456e-06
1.42456e-06
1.42456e-06
1.42456e-06
1.42456e-06
1.42456e-06
1.42887e-06
1.43083e-06
1.43076e-06
1.42815e-06
1.42456e-06
1.42456e-06
1.42456e-06
1.42456e-06
1.42456e-06
1.42456e-06
1.42896e-06
1.43062e-06
1.43059e-06
1.42806e-06
1.42456e-06
1.42456e-06
1.42456e-06
1.42456e-06
1.42456e-06
1.42456e-06
1.42894e-06
1.42894e-06
1.42825e-06
1.42456e-06
1.42456e-06
1.42456e-06
1.42456e-06
1.42456e-06
1.42456e-06
1.42893e-06
1.43094e-06
1.43036e-06
1.42794e-06
1.42456e-06
1.42456e-06
1.42456e-06
1.42456e-06
1.42871e-06
1.42892e-06
1.43086e-06
1.43063e-06
1.42877e-06
1.42887e-06
1.42896e-06
1.42894e-06
1.42893e-06
1.42892e-06
1.43085e-06
1.43083e-06
1.43062e-06
1.42894e-06
1.43094e-06
1.43086e-06
1.41179e-06
1.41162e-06
1.41145e-06
1.40929e-06
1.40918e-06
1.4091e-06
1.40928e-06
1.4114e-06
1.41166e-06
1.41145e-06
1.40859e-06
1.4056e-06
1.4056e-06
1.4056e-06
1.4056e-06
1.40897e-06
1.4098e-06
1.40929e-06
1.4056e-06
1.4056e-06
1.4056e-06
1.4056e-06
1.4056e-06
1.4056e-06
1.4099e-06
1.41186e-06
1.41179e-06
1.40918e-06
1.4056e-06
1.4056e-06
1.4056e-06
1.4056e-06
1.4056e-06
1.4056e-06
1.40999e-06
1.41165e-06
1.41162e-06
1.4091e-06
1.4056e-06
1.4056e-06
1.4056e-06
1.4056e-06
1.4056e-06
1.4056e-06
1.40997e-06
1.40997e-06
1.40928e-06
1.4056e-06
1.4056e-06
1.4056e-06
1.4056e-06
1.4056e-06
1.4056e-06
1.40997e-06
1.41197e-06
1.4114e-06
1.40897e-06
1.4056e-06
1.4056e-06
1.4056e-06
1.4056e-06
1.40974e-06
1.40995e-06
1.41189e-06
1.41166e-06
1.4098e-06
1.4099e-06
1.40999e-06
1.40997e-06
1.40997e-06
1.40995e-06
1.41188e-06
1.41186e-06
1.41165e-06
1.40997e-06
1.41197e-06
1.41189e-06
1.39283e-06
1.39266e-06
1.39248e-06
1.39033e-06
1.39021e-06
1.39013e-06
1.39031e-06
1.39243e-06
1.39269e-06
1.39248e-06
1.38962e-06
1.38663e-06
1.38663e-06
1.38663e-06
1.38663e-06
1.39e-06
1.39083e-06
1.39033e-06
1.38663e-06
1.38663e-06
1.38663e-06
1.38663e-06
1.38663e-06
1.38663e-06
1.39093e-06
1.39289e-06
1.39283e-06
1.39021e-06
1.38663e-06
1.38663e-06
1.38663e-06
1.38663e-06
1.38663e-06
1.38663e-06
1.39103e-06
1.39269e-06
1.39266e-06
1.39013e-06
1.38663e-06
1.38663e-06
1.38663e-06
1.38663e-06
1.38663e-06
1.38663e-06
1.39101e-06
1.391e-06
1.39031e-06
1.38663e-06
1.38663e-06
1.38663e-06
1.38663e-06
1.38663e-06
1.38663e-06
1.391e-06
1.39301e-06
1.39243e-06
1.39e-06
1.38663e-06
1.38663e-06
1.38663e-06
1.38663e-06
1.39077e-06
1.39098e-06
1.39292e-06
1.39269e-06
1.39083e-06
1.39093e-06
1.39102e-06
1.39101e-06
1.391e-06
1.39098e-06
1.39291e-06
1.39289e-06
1.39269e-06
1.391e-06
1.393e-06
1.39292e-06
1.37386e-06
1.37369e-06
1.37351e-06
1.37136e-06
1.37125e-06
1.37116e-06
1.37135e-06
1.37346e-06
1.37373e-06
1.37351e-06
1.37065e-06
1.36766e-06
1.36766e-06
1.36766e-06
1.36766e-06
1.37103e-06
1.37187e-06
1.37136e-06
1.36766e-06
1.36766e-06
1.36766e-06
1.36766e-06
1.36766e-06
1.36766e-06
1.37196e-06
1.37392e-06
1.37386e-06
1.37125e-06
1.36766e-06
1.36766e-06
1.36766e-06
1.36766e-06
1.36766e-06
1.36766e-06
1.37206e-06
1.37372e-06
1.37369e-06
1.37116e-06
1.36766e-06
1.36766e-06
1.36766e-06
1.36766e-06
1.36766e-06
1.36766e-06
1.37204e-06
1.37204e-06
1.37135e-06
1.36766e-06
1.36766e-06
1.36766e-06
1.36766e-06
1.36766e-06
1.36766e-06
1.37203e-06
1.37404e-06
1.37346e-06
1.37103e-06
1.36766e-06
1.36766e-06
1.36766e-06
1.36766e-06
1.3718e-06
1.37202e-06
1.37395e-06
1.37373e-06
1.37187e-06
1.37196e-06
1.37206e-06
1.37204e-06
1.37203e-06
1.37202e-06
1.37394e-06
1.37393e-06
1.37372e-06
1.37204e-06
1.37404e-06
1.37395e-06
1.35489e-06
1.35472e-06
1.35454e-06
1.35239e-06
1.35228e-06
1.35219e-06
1.35238e-06
1.3545e-06
1.35476e-06
1.35455e-06
1.35168e-06
1.34869e-06
1.34869e-06
1.34869e-06
1.34869e-06
1.35207e-06
1.3529e-06
1.35239e-06
1.34869e-06
1.34869e-06
1.34869e-06
1.34869e-06
1.34869e-06
1.34869e-06
1.353e-06
1.35496e-06
1.35489e-06
1.35228e-06
1.34869e-06
1.34869e-06
1.34869e-06
1.34869e-06
1.34869e-06
1.34869e-06
1.35309e-06
1.35475e-06
1.35472e-06
1.35219e-06
1.34869e-06
1.34869e-06
1.34869e-06
1.34869e-06
1.34869e-06
1.34869e-06
1.35307e-06
1.35307e-06
1.35238e-06
1.34869e-06
1.34869e-06
1.34869e-06
1.34869e-06
1.34869e-06
1.34869e-06
1.35306e-06
1.35507e-06
1.35449e-06
1.35207e-06
1.34869e-06
1.34869e-06
1.34869e-06
1.34869e-06
1.35284e-06
1.35305e-06
1.35499e-06
1.35476e-06
1.3529e-06
1.353e-06
1.35309e-06
1.35307e-06
1.35306e-06
1.35305e-06
1.35498e-06
1.35496e-06
1.35475e-06
1.35307e-06
1.35507e-06
1.35499e-06
1.33592e-06
1.33575e-06
1.33558e-06
1.33342e-06
1.33331e-06
1.33323e-06
1.33341e-06
1.33553e-06
1.33579e-06
1.33558e-06
1.33272e-06
1.32973e-06
1.32973e-06
1.32973e-06
1.32973e-06
1.3331e-06
1.33393e-06
1.33342e-06
1.32973e-06
1.32973e-06
1.32973e-06
1.32973e-06
1.32973e-06
1.32973e-06
1.33403e-06
1.33599e-06
1.33592e-06
1.33331e-06
1.32973e-06
1.32973e-06
1.32973e-06
1.32973e-06
1.32973e-06
1.32973e-06
1.33412e-06
1.33578e-06
1.33575e-06
1.33323e-06
1.32973e-06
1.32973e-06
1.32973e-06
1.32973e-06
1.32973e-06
1.32973e-06
1.33411e-06
1.3341e-06
1.33341e-06
1.32973e-06
1.32973e-06
1.32973e-06
1.32973e-06
1.32973e-06
1.32973e-06
1.3341e-06
1.3361e-06
1.33553e-06
1.3331e-06
1.32973e-06
1.32973e-06
1.32973e-06
1.32973e-06
1.33387e-06
1.33408e-06
1.33602e-06
1.33579e-06
1.33393e-06
1.33403e-06
1.33412e-06
1.3341e-06
1.3341e-06
1.33408e-06
1.33601e-06
1.33599e-06
1.33579e-06
1.3341e-06
1.3361e-06
1.33602e-06
1.31696e-06
1.31679e-06
1.31661e-06
1.31446e-06
1.31434e-06
1.31426e-06
1.31445e-06
1.31656e-06
1.31682e-06
1.31661e-06
1.31375e-06
1.31076e-06
1.31076e-06
1.31076e-06
1.31076e-06
1.31413e-06
1.31496e-06
1.31446e-06
1.31076e-06
1.31076e-06
1.31076e-06
1.31076e-06
1.31076e-06
1.31076e-06
1.31506e-06
1.31702e-06
1.31696e-06
1.31434e-06
1.31076e-06
1.31076e-06
1.31076e-06
1.31076e-06
1.31076e-06
1.31076e-06
1.31516e-06
1.31682e-06
1.31679e-06
1.31426e-06
1.31076e-06
1.31076e-06
1.31076e-06
1.31076e-06
1.31076e-06
1.31076e-06
1.31514e-06
1.31514e-06
1.31444e-06
1.31076e-06
1.31076e-06
1.31076e-06
1.31076e-06
1.31076e-06
1.31076e-06
1.31513e-06
1.31714e-06
1.31656e-06
1.31413e-06
1.31076e-06
1.31076e-06
1.31076e-06
1.31076e-06
1.3149e-06
1.31512e-06
1.31705e-06
1.31682e-06
1.31496e-06
1.31506e-06
1.31516e-06
1.31514e-06
1.31513e-06
1.31512e-06
1.31704e-06
1.31703e-06
1.31682e-06
1.31514e-06
1.31714e-06
1.31705e-06
1.29799e-06
1.29782e-06
1.29764e-06
1.29549e-06
1.29538e-06
1.29529e-06
1.29548e-06
1.29759e-06
1.29786e-06
1.29764e-06
1.29478e-06
1.29179e-06
1.29179e-06
1.29179e-06
1.29179e-06
1.29517e-06
1.296e-06
1.29549e-06
1.29179e-06
1.29179e-06
1.29179e-06
1.29179e-06
1.29179e-06
1.29179e-06
1.2961e-06
1.29806e-06
1.29799e-06
1.29538e-06
1.29179e-06
1.29179e-06
1.29179e-06
1.29179e-06
1.29179e-06
1.29179e-06
1.29619e-06
1.29785e-06
1.29782e-06
1.29529e-06
1.29179e-06
1.29179e-06
1.29179e-06
1.29179e-06
1.29179e-06
1.29179e-06
1.29617e-06
1.29617e-06
1.29548e-06
1.29179e-06
1.29179e-06
1.29179e-06
1.29179e-06
1.29179e-06
1.29179e-06
1.29616e-06
1.29817e-06
1.29759e-06
1.29517e-06
1.29179e-06
1.29179e-06
1.29179e-06
1.29179e-06
1.29594e-06
1.29615e-06
1.29809e-06
1.29786e-06
1.296e-06
1.2961e-06
1.29619e-06
1.29617e-06
1.29616e-06
1.29615e-06
1.29808e-06
1.29806e-06
1.29785e-06
1.29617e-06
1.29817e-06
1.29809e-06
1.27902e-06
1.27885e-06
1.27868e-06
1.27653e-06
1.27641e-06
1.27633e-06
1.27651e-06
1.27863e-06
1.27889e-06
1.27868e-06
1.27582e-06
1.27283e-06
1.27283e-06
1.27283e-06
1.27283e-06
1.2762e-06
1.27703e-06
1.27653e-06
1.27283e-06
1.27283e-06
1.27283e-06
1.27283e-06
1.27283e-06
1.27283e-06
1.27713e-06
1.27909e-06
1.27902e-06
1.27641e-06
1.27283e-06
1.27283e-06
1.27283e-06
1.27283e-06
1.27283e-06
1.27283e-06
1.27722e-06
1.27889e-06
1.27885e-06
1.27633e-06
1.27283e-06
1.27283e-06
1.27283e-06
1.27283e-06
1.27283e-06
1.27283e-06
1.27721e-06
1.2772e-06
1.27651e-06
1.27283e-06
1.27283e-06
1.27283e-06
1.27283e-06
1.27283e-06
1.27283e-06
1.2772e-06
1.2792e-06
1.27863e-06
1.2762e-06
1.27283e-06
1.27283e-06
1.27283e-06
1.27283e-06
1.27697e-06
1.27718e-06
1.27912e-06
1.27889e-06
1.27703e-06
1.27713e-06
1.27722e-06
1.2772e-06
1.2772e-06
1.27718e-06
1.27911e-06
1.27909e-06
1.27889e-06
1.2772e-06
1.2792e-06
1.27912e-06
1.26006e-06
1.25989e-06
1.25971e-06
1.25756e-06
1.25745e-06
1.25736e-06
1.25755e-06
1.25966e-06
1.25993e-06
1.25971e-06
1.25685e-06
1.25386e-06
1.25386e-06
1.25386e-06
1.25386e-06
1.25723e-06
1.25806e-06
1.25756e-06
1.25386e-06
1.25386e-06
1.25386e-06
1.25386e-06
1.25386e-06
1.25386e-06
1.25816e-06
1.26012e-06
1.26006e-06
1.25745e-06
1.25386e-06
1.25386e-06
1.25386e-06
1.25386e-06
1.25386e-06
1.25386e-06
1.25826e-06
1.25992e-06
1.25989e-06
1.25736e-06
1.25386e-06
1.25386e-06
1.25386e-06
1.25386e-06
1.25386e-06
1.25386e-06
1.25824e-06
1.25824e-06
1.25755e-06
1.25386e-06
1.25386e-06
1.25386e-06
1.25386e-06
1.25386e-06
1.25386e-06
1.25823e-06
1.26024e-06
1.25966e-06
1.25723e-06
1.25386e-06
1.25386e-06
1.25386e-06
1.25386e-06
1.258e-06
1.25822e-06
1.26015e-06
1.25993e-06
1.25806e-06
1.25816e-06
1.25826e-06
1.25824e-06
1.25823e-06
1.25822e-06
1.26014e-06
1.26013e-06
1.25992e-06
1.25824e-06
1.26024e-06
1.26015e-06
1.24109e-06
1.24092e-06
1.24074e-06
1.23859e-06
1.23848e-06
1.23839e-06
1.23858e-06
1.24069e-06
1.24096e-06
1.24075e-06
1.23788e-06
1.23489e-06
1.23489e-06
1.23489e-06
1.23489e-06
1.23827e-06
1.2391e-06
1.23859e-06
1.23489e-06
1.23489e-06
1.23489e-06
1.23489e-06
1.23489e-06
1.23489e-06
1.2392e-06
1.24116e-06
1.24109e-06
1.23848e-06
1.23489e-06
1.23489e-06
1.23489e-06
1.23489e-06
1.23489e-06
1.23489e-06
1.23929e-06
1.24095e-06
1.24092e-06
1.23839e-06
1.23489e-06
1.23489e-06
1.23489e-06
1.23489e-06
1.23489e-06
1.23489e-06
1.23927e-06
1.23927e-06
1.23858e-06
1.23489e-06
1.23489e-06
1.23489e-06
1.23489e-06
1.23489e-06
1.23489e-06
1.23926e-06
1.24127e-06
1.24069e-06
1.23827e-06
1.23489e-06
1.23489e-06
1.23489e-06
1.23489e-06
1.23904e-06
1.23925e-06
1.24119e-06
1.24096e-06
1.2391e-06
1.2392e-06