/*--------------------------------*- C++ -*----------------------------------*\
| =========                 |                                                 |
| \\      /  F ield         | OpenFOAM: The Open Source CFD Toolbox           |
|  \\    /   O peration     | Version:  v2012                                 |
|   \\  /    A nd           | Website:  www.openfoam.com                      |
|    \\/     M anipulation  |                                                 |
\*---------------------------------------------------------------------------*/
FoamFile
{
    version     2.0;
    format      ascii;
    class       volScalarField;
    location    "0.225";
    object      p;
}
// * * * * * * * * * * * * * * * * * * * * * * * * * * * * * * * * * * * * * //

dimensions      [0 2 -2 0 0 0 0];


internalField   nonuniform List<scalar> 
247104
(
1.88813e-06
1.88826e-06
1.88836e-06
1.88826e-06
1.88811e-06
1.88829e-06
1.88835e-06
1.88819e-06
1.88825e-06
1.88831e-06
1.88836e-06
1.88818e-06
1.88806e-06
1.88821e-06
1.88837e-06
1.88828e-06
1.88836e-06
1.88836e-06
1.88806e-06
1.88768e-06
1.88752e-06
1.88772e-06
1.88811e-06
1.88838e-06
1.88836e-06
1.88826e-06
1.88818e-06
1.88768e-06
1.88718e-06
1.88701e-06
1.88723e-06
1.88775e-06
1.88822e-06
1.88825e-06
1.88812e-06
1.88811e-06
1.88806e-06
1.88752e-06
1.88701e-06
1.88682e-06
1.88706e-06
1.8876e-06
1.88811e-06
1.88808e-06
1.88829e-06
1.88821e-06
1.88771e-06
1.88723e-06
1.88706e-06
1.88728e-06
1.88778e-06
1.88825e-06
1.88828e-06
1.88835e-06
1.88837e-06
1.8881e-06
1.88775e-06
1.8876e-06
1.88778e-06
1.88815e-06
1.88838e-06
1.88834e-06
1.88818e-06
1.88828e-06
1.88838e-06
1.88822e-06
1.88811e-06
1.88825e-06
1.88839e-06
1.88825e-06
1.88835e-06
1.88824e-06
1.88808e-06
1.88828e-06
1.88835e-06
1.8544e-06
1.85234e-06
1.85211e-06
1.85095e-06
1.85087e-06
1.85079e-06
1.8508e-06
1.85216e-06
1.85252e-06
1.8521e-06
1.85005e-06
1.84717e-06
1.84709e-06
1.84709e-06
1.84717e-06
1.85045e-06
1.85065e-06
1.85094e-06
1.84717e-06
1.8471e-06
1.84715e-06
1.84715e-06
1.8471e-06
1.84717e-06
1.85087e-06
1.85183e-06
1.8544e-06
1.85087e-06
1.84709e-06
1.84715e-06
1.84725e-06
1.84725e-06
1.84715e-06
1.84709e-06
1.85077e-06
1.85241e-06
1.85235e-06
1.85079e-06
1.84709e-06
1.84715e-06
1.84725e-06
1.84725e-06
1.84715e-06
1.84709e-06
1.85093e-06
1.85076e-06
1.8508e-06
1.84717e-06
1.8471e-06
1.84715e-06
1.84715e-06
1.8471e-06
1.84717e-06
1.85074e-06
1.85166e-06
1.85216e-06
1.85045e-06
1.84717e-06
1.84709e-06
1.84709e-06
1.84717e-06
1.85059e-06
1.85085e-06
1.85225e-06
1.85253e-06
1.85065e-06
1.85087e-06
1.85077e-06
1.85093e-06
1.85074e-06
1.85085e-06
1.853e-06
1.85184e-06
1.85241e-06
1.85076e-06
1.85166e-06
1.85225e-06
1.8343e-06
1.8341e-06
1.83395e-06
1.83177e-06
1.8317e-06
1.83169e-06
1.83175e-06
1.83399e-06
1.83418e-06
1.83395e-06
1.83106e-06
1.82809e-06
1.82792e-06
1.82792e-06
1.82808e-06
1.83174e-06
1.83223e-06
1.83177e-06
1.82807e-06
1.82769e-06
1.82769e-06
1.82769e-06
1.82769e-06
1.82808e-06
1.83254e-06
1.83452e-06
1.8343e-06
1.83171e-06
1.82792e-06
1.82769e-06
1.82771e-06
1.82771e-06
1.82769e-06
1.82792e-06
1.83258e-06
1.83421e-06
1.8341e-06
1.8317e-06
1.82792e-06
1.82769e-06
1.82771e-06
1.82771e-06
1.82769e-06
1.82792e-06
1.83251e-06
1.83227e-06
1.83176e-06
1.82807e-06
1.82769e-06
1.82769e-06
1.82769e-06
1.82769e-06
1.82808e-06
1.8326e-06
1.83457e-06
1.83399e-06
1.83174e-06
1.82808e-06
1.82792e-06
1.82792e-06
1.82808e-06
1.83223e-06
1.83242e-06
1.83447e-06
1.83419e-06
1.83223e-06
1.83254e-06
1.83258e-06
1.83251e-06
1.8326e-06
1.83242e-06
1.83443e-06
1.83452e-06
1.83421e-06
1.83227e-06
1.83457e-06
1.83447e-06
1.81491e-06
1.81474e-06
1.81462e-06
1.81236e-06
1.8123e-06
1.8122e-06
1.8124e-06
1.81463e-06
1.81485e-06
1.81462e-06
1.81152e-06
1.8086e-06
1.80855e-06
1.80855e-06
1.8086e-06
1.81225e-06
1.81296e-06
1.81237e-06
1.80861e-06
1.80844e-06
1.80844e-06
1.80844e-06
1.80844e-06
1.8086e-06
1.8132e-06
1.81515e-06
1.81493e-06
1.81231e-06
1.80855e-06
1.80844e-06
1.80844e-06
1.80844e-06
1.80844e-06
1.80855e-06
1.8133e-06
1.81482e-06
1.81475e-06
1.81221e-06
1.80855e-06
1.80844e-06
1.80844e-06
1.80844e-06
1.80844e-06
1.80855e-06
1.81326e-06
1.813e-06
1.8124e-06
1.80861e-06
1.80844e-06
1.80844e-06
1.80844e-06
1.80844e-06
1.8086e-06
1.81328e-06
1.81517e-06
1.81464e-06
1.81226e-06
1.80861e-06
1.80855e-06
1.80855e-06
1.80861e-06
1.81306e-06
1.81313e-06
1.81514e-06
1.81486e-06
1.81297e-06
1.81321e-06
1.8133e-06
1.81327e-06
1.81328e-06
1.81313e-06
1.81513e-06
1.81516e-06
1.81482e-06
1.81301e-06
1.81517e-06
1.81514e-06
1.79554e-06
1.79537e-06
1.79519e-06
1.79293e-06
1.79286e-06
1.79272e-06
1.79296e-06
1.79523e-06
1.79545e-06
1.79519e-06
1.79206e-06
1.78914e-06
1.78912e-06
1.78912e-06
1.78914e-06
1.79276e-06
1.79357e-06
1.79293e-06
1.78914e-06
1.78909e-06
1.78909e-06
1.78909e-06
1.78909e-06
1.78914e-06
1.79382e-06
1.79577e-06
1.79555e-06
1.79286e-06
1.78912e-06
1.78909e-06
1.78909e-06
1.78909e-06
1.78909e-06
1.78912e-06
1.79397e-06
1.79548e-06
1.79537e-06
1.79272e-06
1.78912e-06
1.78909e-06
1.78909e-06
1.78909e-06
1.78909e-06
1.78912e-06
1.79395e-06
1.79367e-06
1.79296e-06
1.78914e-06
1.78909e-06
1.78909e-06
1.78909e-06
1.78909e-06
1.78914e-06
1.79392e-06
1.79583e-06
1.79523e-06
1.79276e-06
1.78914e-06
1.78912e-06
1.78912e-06
1.78914e-06
1.79375e-06
1.79377e-06
1.79575e-06
1.79545e-06
1.79357e-06
1.79382e-06
1.79397e-06
1.79395e-06
1.79392e-06
1.79377e-06
1.79569e-06
1.79577e-06
1.79549e-06
1.79367e-06
1.79583e-06
1.79575e-06
1.77613e-06
1.77596e-06
1.77577e-06
1.7735e-06
1.77343e-06
1.77328e-06
1.77352e-06
1.7758e-06
1.77602e-06
1.77576e-06
1.77263e-06
1.7697e-06
1.7697e-06
1.7697e-06
1.7697e-06
1.7733e-06
1.77414e-06
1.7735e-06
1.7697e-06
1.76969e-06
1.76969e-06
1.76969e-06
1.76969e-06
1.7697e-06
1.77441e-06
1.77635e-06
1.77613e-06
1.77343e-06
1.7697e-06
1.76969e-06
1.76969e-06
1.76969e-06
1.76969e-06
1.7697e-06
1.77457e-06
1.77609e-06
1.77596e-06
1.77328e-06
1.7697e-06
1.76969e-06
1.76969e-06
1.76969e-06
1.76969e-06
1.7697e-06
1.77456e-06
1.77427e-06
1.77352e-06
1.7697e-06
1.76969e-06
1.76969e-06
1.76969e-06
1.76969e-06
1.7697e-06
1.7745e-06
1.77643e-06
1.7758e-06
1.7733e-06
1.7697e-06
1.7697e-06
1.7697e-06
1.7697e-06
1.77436e-06
1.77436e-06
1.77633e-06
1.77602e-06
1.77414e-06
1.7744e-06
1.77457e-06
1.77456e-06
1.7745e-06
1.77436e-06
1.7763e-06
1.77635e-06
1.77609e-06
1.77427e-06
1.77643e-06
1.77633e-06
1.7567e-06
1.75654e-06
1.75634e-06
1.75407e-06
1.754e-06
1.75385e-06
1.75409e-06
1.75638e-06
1.7566e-06
1.75634e-06
1.7532e-06
1.75027e-06
1.75027e-06
1.75027e-06
1.75027e-06
1.75387e-06
1.75469e-06
1.75407e-06
1.75027e-06
1.75027e-06
1.75027e-06
1.75027e-06
1.75027e-06
1.75027e-06
1.75497e-06
1.75693e-06
1.75671e-06
1.754e-06
1.75027e-06
1.75027e-06
1.75027e-06
1.75027e-06
1.75027e-06
1.75027e-06
1.75514e-06
1.75667e-06
1.75654e-06
1.75385e-06
1.75027e-06
1.75027e-06
1.75027e-06
1.75027e-06
1.75027e-06
1.75027e-06
1.75514e-06
1.75485e-06
1.75409e-06
1.75027e-06
1.75027e-06
1.75027e-06
1.75027e-06
1.75027e-06
1.75027e-06
1.75508e-06
1.75701e-06
1.75638e-06
1.75387e-06
1.75027e-06
1.75027e-06
1.75027e-06
1.75027e-06
1.75495e-06
1.75494e-06
1.75691e-06
1.75658e-06
1.75472e-06
1.75498e-06
1.75514e-06
1.75514e-06
1.75508e-06
1.75493e-06
1.75688e-06
1.75693e-06
1.75667e-06
1.75485e-06
1.75701e-06
1.7569e-06
1.73728e-06
1.73712e-06
1.73692e-06
1.73465e-06
1.73457e-06
1.73443e-06
1.73467e-06
1.73695e-06
1.73718e-06
1.73691e-06
1.73378e-06
1.73085e-06
1.73085e-06
1.73085e-06
1.73085e-06
1.73444e-06
1.73526e-06
1.73465e-06
1.73085e-06
1.73085e-06
1.73085e-06
1.73085e-06
1.73085e-06
1.73085e-06
1.73555e-06
1.7375e-06
1.73729e-06
1.73457e-06
1.73085e-06
1.73085e-06
1.73085e-06
1.73085e-06
1.73085e-06
1.73085e-06
1.73572e-06
1.73724e-06
1.73712e-06
1.73442e-06
1.73085e-06
1.73085e-06
1.73085e-06
1.73085e-06
1.73085e-06
1.73085e-06
1.73572e-06
1.73543e-06
1.73467e-06
1.73085e-06
1.73085e-06
1.73085e-06
1.73085e-06
1.73085e-06
1.73085e-06
1.73565e-06
1.73758e-06
1.73695e-06
1.73444e-06
1.73085e-06
1.73085e-06
1.73085e-06
1.73085e-06
1.73552e-06
1.73552e-06
1.73748e-06
1.73716e-06
1.73529e-06
1.73555e-06
1.73572e-06
1.73571e-06
1.73565e-06
1.73551e-06
1.73745e-06
1.7375e-06
1.73725e-06
1.73543e-06
1.73758e-06
1.73748e-06
1.71786e-06
1.71769e-06
1.71749e-06
1.71522e-06
1.71515e-06
1.715e-06
1.71524e-06
1.71753e-06
1.71775e-06
1.71749e-06
1.71436e-06
1.71142e-06
1.71142e-06
1.71142e-06
1.71142e-06
1.71501e-06
1.71584e-06
1.71522e-06
1.71142e-06
1.71142e-06
1.71142e-06
1.71142e-06
1.71142e-06
1.71142e-06
1.71613e-06
1.71808e-06
1.71786e-06
1.71515e-06
1.71142e-06
1.71142e-06
1.71142e-06
1.71142e-06
1.71142e-06
1.71142e-06
1.7163e-06
1.71782e-06
1.71769e-06
1.715e-06
1.71142e-06
1.71142e-06
1.71142e-06
1.71142e-06
1.71142e-06
1.71142e-06
1.71629e-06
1.716e-06
1.71524e-06
1.71142e-06
1.71142e-06
1.71142e-06
1.71142e-06
1.71142e-06
1.71142e-06
1.71623e-06
1.71816e-06
1.71753e-06
1.71502e-06
1.71142e-06
1.71142e-06
1.71142e-06
1.71142e-06
1.7161e-06
1.7161e-06
1.71806e-06
1.71773e-06
1.71587e-06
1.71613e-06
1.7163e-06
1.71629e-06
1.71623e-06
1.71609e-06
1.71803e-06
1.71808e-06
1.71782e-06
1.716e-06
1.71816e-06
1.71806e-06
1.69843e-06
1.69827e-06
1.69807e-06
1.6958e-06
1.69573e-06
1.69558e-06
1.69582e-06
1.6981e-06
1.69833e-06
1.69807e-06
1.69493e-06
1.692e-06
1.692e-06
1.692e-06
1.692e-06
1.69559e-06
1.69642e-06
1.6958e-06
1.692e-06
1.692e-06
1.692e-06
1.692e-06
1.692e-06
1.692e-06
1.6967e-06
1.69865e-06
1.69844e-06
1.69572e-06
1.692e-06
1.692e-06
1.692e-06
1.692e-06
1.692e-06
1.692e-06
1.69687e-06
1.6984e-06
1.69827e-06
1.69558e-06
1.692e-06
1.692e-06
1.692e-06
1.692e-06
1.692e-06
1.692e-06
1.69687e-06
1.69658e-06
1.69582e-06
1.692e-06
1.692e-06
1.692e-06
1.692e-06
1.692e-06
1.692e-06
1.69681e-06
1.69874e-06
1.6981e-06
1.6956e-06
1.692e-06
1.692e-06
1.692e-06
1.692e-06
1.69668e-06
1.69667e-06
1.69863e-06
1.69831e-06
1.69645e-06
1.6967e-06
1.69688e-06
1.69687e-06
1.69681e-06
1.69666e-06
1.69861e-06
1.69865e-06
1.6984e-06
1.69658e-06
1.69874e-06
1.69863e-06
1.67901e-06
1.67884e-06
1.67865e-06
1.67637e-06
1.6763e-06
1.67615e-06
1.6764e-06
1.67868e-06
1.67891e-06
1.67864e-06
1.67551e-06
1.67258e-06
1.67258e-06
1.67258e-06
1.67258e-06
1.67617e-06
1.67699e-06
1.67637e-06
1.67258e-06
1.67258e-06
1.67258e-06
1.67258e-06
1.67258e-06
1.67258e-06
1.67728e-06
1.67923e-06
1.67902e-06
1.6763e-06
1.67258e-06
1.67258e-06
1.67258e-06
1.67258e-06
1.67258e-06
1.67258e-06
1.67745e-06
1.67897e-06
1.67885e-06
1.67615e-06
1.67258e-06
1.67258e-06
1.67258e-06
1.67258e-06
1.67258e-06
1.67258e-06
1.67745e-06
1.67716e-06
1.6764e-06
1.67258e-06
1.67258e-06
1.67258e-06
1.67258e-06
1.67258e-06
1.67258e-06
1.67739e-06
1.67931e-06
1.67868e-06
1.67617e-06
1.67258e-06
1.67258e-06
1.67258e-06
1.67258e-06
1.67726e-06
1.67725e-06
1.67921e-06
1.67889e-06
1.67702e-06
1.67728e-06
1.67745e-06
1.67745e-06
1.67738e-06
1.67724e-06
1.67918e-06
1.67923e-06
1.67898e-06
1.67716e-06
1.67931e-06
1.67921e-06
1.65959e-06
1.65942e-06
1.65921e-06
1.65695e-06
1.65688e-06
1.65673e-06
1.65698e-06
1.65926e-06
1.65948e-06
1.65922e-06
1.65609e-06
1.65315e-06
1.65315e-06
1.65315e-06
1.65315e-06
1.65675e-06
1.65757e-06
1.65695e-06
1.65315e-06
1.65315e-06
1.65315e-06
1.65315e-06
1.65315e-06
1.65315e-06
1.65786e-06
1.65981e-06
1.65959e-06
1.65688e-06
1.65315e-06
1.65315e-06
1.65315e-06
1.65315e-06
1.65315e-06
1.65315e-06
1.65803e-06
1.65955e-06
1.65942e-06
1.65673e-06
1.65315e-06
1.65315e-06
1.65315e-06
1.65315e-06
1.65315e-06
1.65315e-06
1.65802e-06
1.65773e-06
1.65697e-06
1.65315e-06
1.65315e-06
1.65315e-06
1.65315e-06
1.65315e-06
1.65315e-06
1.65796e-06
1.65989e-06
1.65926e-06
1.65675e-06
1.65315e-06
1.65315e-06
1.65315e-06
1.65315e-06
1.65783e-06
1.65783e-06
1.65979e-06
1.65946e-06
1.6576e-06
1.65786e-06
1.65803e-06
1.65802e-06
1.65796e-06
1.65782e-06
1.65976e-06
1.65981e-06
1.65955e-06
1.65773e-06
1.65989e-06
1.65979e-06
1.64016e-06
1.64e-06
1.63979e-06
1.63753e-06
1.63746e-06
1.63731e-06
1.63755e-06
1.63984e-06
1.64006e-06
1.6398e-06
1.63666e-06
1.63373e-06
1.63373e-06
1.63373e-06
1.63373e-06
1.63732e-06
1.63815e-06
1.63753e-06
1.63373e-06
1.63373e-06
1.63373e-06
1.63373e-06
1.63373e-06
1.63373e-06
1.63843e-06
1.64038e-06
1.64017e-06
1.63746e-06
1.63373e-06
1.63373e-06
1.63373e-06
1.63373e-06
1.63373e-06
1.63373e-06
1.63861e-06
1.64013e-06
1.64e-06
1.63731e-06
1.63373e-06
1.63373e-06
1.63373e-06
1.63373e-06
1.63373e-06
1.63373e-06
1.6386e-06
1.63831e-06
1.63755e-06
1.63373e-06
1.63373e-06
1.63373e-06
1.63373e-06
1.63373e-06
1.63373e-06
1.63854e-06
1.64047e-06
1.63984e-06
1.63733e-06
1.63373e-06
1.63373e-06
1.63373e-06
1.63373e-06
1.63841e-06
1.6384e-06
1.64037e-06
1.64004e-06
1.63818e-06
1.63844e-06
1.63861e-06
1.6386e-06
1.63854e-06
1.6384e-06
1.64034e-06
1.64039e-06
1.64013e-06
1.63831e-06
1.64047e-06
1.64037e-06
1.62074e-06
1.62058e-06
1.62037e-06
1.61811e-06
1.61803e-06
1.61789e-06
1.61813e-06
1.62042e-06
1.62064e-06
1.62038e-06
1.61724e-06
1.61431e-06
1.61431e-06
1.61431e-06
1.61431e-06
1.6179e-06
1.61873e-06
1.61811e-06
1.61431e-06
1.61431e-06
1.61431e-06
1.61431e-06
1.61431e-06
1.61431e-06
1.61901e-06
1.62096e-06
1.62075e-06
1.61803e-06
1.61431e-06
1.61431e-06
1.61431e-06
1.61431e-06
1.61431e-06
1.61431e-06
1.61918e-06
1.62071e-06
1.62058e-06
1.61789e-06
1.61431e-06
1.61431e-06
1.61431e-06
1.61431e-06
1.61431e-06
1.61431e-06
1.61918e-06
1.61889e-06
1.61813e-06
1.61431e-06
1.61431e-06
1.61431e-06
1.61431e-06
1.61431e-06
1.61431e-06
1.61912e-06
1.62105e-06
1.62041e-06
1.6179e-06
1.61431e-06
1.61431e-06
1.61431e-06
1.61431e-06
1.61899e-06
1.61898e-06
1.62094e-06
1.62062e-06
1.61876e-06
1.61901e-06
1.61918e-06
1.61918e-06
1.61912e-06
1.61898e-06
1.62092e-06
1.62096e-06
1.62071e-06
1.61889e-06
1.62105e-06
1.62094e-06
1.60132e-06
1.60116e-06
1.60095e-06
1.59869e-06
1.59861e-06
1.59846e-06
1.59871e-06
1.60099e-06
1.60122e-06
1.60095e-06
1.59782e-06
1.59489e-06
1.59489e-06
1.59489e-06
1.59489e-06
1.59848e-06
1.59931e-06
1.59869e-06
1.59489e-06
1.59489e-06
1.59489e-06
1.59489e-06
1.59489e-06
1.59489e-06
1.59959e-06
1.60154e-06
1.60133e-06
1.59861e-06
1.59489e-06
1.59489e-06
1.59489e-06
1.59489e-06
1.59489e-06
1.59489e-06
1.59976e-06
1.60128e-06
1.60116e-06
1.59846e-06
1.59489e-06
1.59489e-06
1.59489e-06
1.59489e-06
1.59489e-06
1.59489e-06
1.59976e-06
1.59947e-06
1.59871e-06
1.59489e-06
1.59489e-06
1.59489e-06
1.59489e-06
1.59489e-06
1.59489e-06
1.5997e-06
1.60163e-06
1.60099e-06
1.59848e-06
1.59489e-06
1.59489e-06
1.59489e-06
1.59489e-06
1.59957e-06
1.59956e-06
1.60152e-06
1.6012e-06
1.59933e-06
1.59959e-06
1.59976e-06
1.59976e-06
1.5997e-06
1.59955e-06
1.6015e-06
1.60154e-06
1.60129e-06
1.59947e-06
1.60162e-06
1.60152e-06
1.5819e-06
1.58173e-06
1.58153e-06
1.57926e-06
1.57919e-06
1.57904e-06
1.57929e-06
1.58157e-06
1.58179e-06
1.58153e-06
1.5784e-06
1.57547e-06
1.57547e-06
1.57547e-06
1.57547e-06
1.57906e-06
1.57988e-06
1.57926e-06
1.57547e-06
1.57547e-06
1.57547e-06
1.57547e-06
1.57547e-06
1.57547e-06
1.58017e-06
1.58212e-06
1.5819e-06
1.57919e-06
1.57547e-06
1.57547e-06
1.57547e-06
1.57547e-06
1.57547e-06
1.57547e-06
1.58034e-06
1.58186e-06
1.58173e-06
1.57904e-06
1.57547e-06
1.57547e-06
1.57547e-06
1.57547e-06
1.57547e-06
1.57547e-06
1.58033e-06
1.58004e-06
1.57929e-06
1.57547e-06
1.57547e-06
1.57547e-06
1.57547e-06
1.57547e-06
1.57547e-06
1.58027e-06
1.5822e-06
1.58157e-06
1.57906e-06
1.57547e-06
1.57547e-06
1.57547e-06
1.57547e-06
1.58015e-06
1.58014e-06
1.5821e-06
1.58178e-06
1.57991e-06
1.58017e-06
1.58034e-06
1.58033e-06
1.58027e-06
1.58013e-06
1.58207e-06
1.58212e-06
1.58186e-06
1.58004e-06
1.5822e-06
1.5821e-06
1.56248e-06
1.56231e-06
1.5621e-06
1.55984e-06
1.55977e-06
1.55962e-06
1.55987e-06
1.56215e-06
1.56237e-06
1.56211e-06
1.55898e-06
1.55604e-06
1.55604e-06
1.55604e-06
1.55604e-06
1.55964e-06
1.56046e-06
1.55984e-06
1.55604e-06
1.55604e-06
1.55604e-06
1.55604e-06
1.55604e-06
1.55604e-06
1.56075e-06
1.5627e-06
1.56248e-06
1.55977e-06
1.55604e-06
1.55604e-06
1.55604e-06
1.55604e-06
1.55604e-06
1.55604e-06
1.56092e-06
1.56244e-06
1.56231e-06
1.55962e-06
1.55604e-06
1.55604e-06
1.55604e-06
1.55604e-06
1.55604e-06
1.55604e-06
1.56091e-06
1.56062e-06
1.55986e-06
1.55604e-06
1.55604e-06
1.55604e-06
1.55604e-06
1.55604e-06
1.55604e-06
1.56085e-06
1.56278e-06
1.56215e-06
1.55964e-06
1.55604e-06
1.55604e-06
1.55604e-06
1.55604e-06
1.56072e-06
1.56072e-06
1.56268e-06
1.56235e-06
1.56049e-06
1.56075e-06
1.56092e-06
1.56091e-06
1.56085e-06
1.56071e-06
1.56265e-06
1.5627e-06
1.56244e-06
1.56062e-06
1.56278e-06
1.56268e-06
1.54305e-06
1.54289e-06
1.54268e-06
1.54042e-06
1.54035e-06
1.5402e-06
1.54044e-06
1.54273e-06
1.54295e-06
1.54268e-06
1.53956e-06
1.53662e-06
1.53662e-06
1.53662e-06
1.53662e-06
1.54021e-06
1.54104e-06
1.54042e-06
1.53662e-06
1.53662e-06
1.53662e-06
1.53662e-06
1.53662e-06
1.53662e-06
1.54132e-06
1.54327e-06
1.54306e-06
1.54034e-06
1.53662e-06
1.53662e-06
1.53662e-06
1.53662e-06
1.53662e-06
1.53662e-06
1.5415e-06
1.54302e-06
1.54289e-06
1.5402e-06
1.53662e-06
1.53662e-06
1.53662e-06
1.53662e-06
1.53662e-06
1.53662e-06
1.54149e-06
1.5412e-06
1.54044e-06
1.53662e-06
1.53662e-06
1.53662e-06
1.53662e-06
1.53662e-06
1.53662e-06
1.54143e-06
1.54336e-06
1.54272e-06
1.54022e-06
1.53662e-06
1.53662e-06
1.53662e-06
1.53662e-06
1.5413e-06
1.54129e-06
1.54325e-06
1.54293e-06
1.54107e-06
1.54133e-06
1.5415e-06
1.54149e-06
1.54143e-06
1.54129e-06
1.54323e-06
1.54327e-06
1.54302e-06
1.5412e-06
1.54336e-06
1.54325e-06
1.52363e-06
1.52347e-06
1.52326e-06
1.521e-06
1.52092e-06
1.52078e-06
1.52102e-06
1.5233e-06
1.52353e-06
1.52326e-06
1.52013e-06
1.5172e-06
1.5172e-06
1.5172e-06
1.5172e-06
1.52079e-06
1.52162e-06
1.521e-06
1.5172e-06
1.5172e-06
1.5172e-06
1.5172e-06
1.5172e-06
1.5172e-06
1.5219e-06
1.52385e-06
1.52364e-06
1.52092e-06
1.5172e-06
1.5172e-06
1.5172e-06
1.5172e-06
1.5172e-06
1.5172e-06
1.52207e-06
1.52359e-06
1.52347e-06
1.52077e-06
1.5172e-06
1.5172e-06
1.5172e-06
1.5172e-06
1.5172e-06
1.5172e-06
1.52207e-06
1.52178e-06
1.52102e-06
1.5172e-06
1.5172e-06
1.5172e-06
1.5172e-06
1.5172e-06
1.5172e-06
1.52201e-06
1.52394e-06
1.5233e-06
1.52079e-06
1.5172e-06
1.5172e-06
1.5172e-06
1.5172e-06
1.52188e-06
1.52187e-06
1.52383e-06
1.52351e-06
1.52164e-06
1.5219e-06
1.52207e-06
1.52207e-06
1.522e-06
1.52186e-06
1.5238e-06
1.52385e-06
1.5236e-06
1.52178e-06
1.52393e-06
1.52383e-06
1.50421e-06
1.50404e-06
1.50384e-06
1.50157e-06
1.5015e-06
1.50135e-06
1.5016e-06
1.50388e-06
1.5041e-06
1.50384e-06
1.50071e-06
1.49778e-06
1.49778e-06
1.49778e-06
1.49778e-06
1.50137e-06
1.50219e-06
1.50157e-06
1.49778e-06
1.49778e-06
1.49778e-06
1.49778e-06
1.49778e-06
1.49778e-06
1.50248e-06
1.50443e-06
1.50421e-06
1.5015e-06
1.49778e-06
1.49778e-06
1.49778e-06
1.49778e-06
1.49778e-06
1.49778e-06
1.50265e-06
1.50417e-06
1.50404e-06
1.50135e-06
1.49778e-06
1.49778e-06
1.49778e-06
1.49778e-06
1.49778e-06
1.49778e-06
1.50264e-06
1.50235e-06
1.5016e-06
1.49778e-06
1.49778e-06
1.49778e-06
1.49778e-06
1.49778e-06
1.49778e-06
1.50258e-06
1.50451e-06
1.50388e-06
1.50137e-06
1.49778e-06
1.49778e-06
1.49778e-06
1.49778e-06
1.50245e-06
1.50245e-06
1.50441e-06
1.50409e-06
1.50222e-06
1.50248e-06
1.50265e-06
1.50264e-06
1.50258e-06
1.50244e-06
1.50438e-06
1.50443e-06
1.50417e-06
1.50235e-06
1.50451e-06
1.50441e-06
1.48479e-06
1.48462e-06
1.48441e-06
1.48215e-06
1.48208e-06
1.48193e-06
1.48218e-06
1.48446e-06
1.48468e-06
1.48442e-06
1.48129e-06
1.47835e-06
1.47835e-06
1.47835e-06
1.47835e-06
1.48194e-06
1.48277e-06
1.48215e-06
1.47835e-06
1.47835e-06
1.47835e-06
1.47835e-06
1.47835e-06
1.47835e-06
1.48306e-06
1.48501e-06
1.48479e-06
1.48208e-06
1.47835e-06
1.47835e-06
1.47835e-06
1.47835e-06
1.47835e-06
1.47835e-06
1.48323e-06
1.48475e-06
1.48462e-06
1.48193e-06
1.47835e-06
1.47835e-06
1.47835e-06
1.47835e-06
1.47835e-06
1.47835e-06
1.48322e-06
1.48293e-06
1.48217e-06
1.47835e-06
1.47835e-06
1.47835e-06
1.47835e-06
1.47835e-06
1.47835e-06
1.48316e-06
1.48509e-06
1.48446e-06
1.48195e-06
1.47835e-06
1.47835e-06
1.47835e-06
1.47835e-06
1.48303e-06
1.48302e-06
1.48499e-06
1.48466e-06
1.4828e-06
1.48306e-06
1.48323e-06
1.48322e-06
1.48316e-06
1.48302e-06
1.48496e-06
1.48501e-06
1.48475e-06
1.48293e-06
1.48509e-06
1.48499e-06
1.46536e-06
1.4652e-06
1.46499e-06
1.46273e-06
1.46265e-06
1.46251e-06
1.46275e-06
1.46504e-06
1.46526e-06
1.46499e-06
1.46186e-06
1.45893e-06
1.45893e-06
1.45893e-06
1.45893e-06
1.46252e-06
1.46335e-06
1.46273e-06
1.45893e-06
1.45893e-06
1.45893e-06
1.45893e-06
1.45893e-06
1.45893e-06
1.46363e-06
1.46558e-06
1.46537e-06
1.46265e-06
1.45893e-06
1.45893e-06
1.45893e-06
1.45893e-06
1.45893e-06
1.45893e-06
1.4638e-06
1.46533e-06
1.4652e-06
1.4625e-06
1.45893e-06
1.45893e-06
1.45893e-06
1.45893e-06
1.45893e-06
1.45893e-06
1.4638e-06
1.46351e-06
1.46275e-06
1.45893e-06
1.45893e-06
1.45893e-06
1.45893e-06
1.45893e-06
1.45893e-06
1.46374e-06
1.46567e-06
1.46503e-06
1.46252e-06
1.45893e-06
1.45893e-06
1.45893e-06
1.45893e-06
1.46361e-06
1.4636e-06
1.46556e-06
1.46524e-06
1.46337e-06
1.46363e-06
1.4638e-06
1.4638e-06
1.46374e-06
1.46359e-06
1.46554e-06
1.46558e-06
1.46533e-06
1.46351e-06
1.46566e-06
1.46556e-06
1.44594e-06
1.44577e-06
1.44557e-06
1.4433e-06
1.44323e-06
1.44308e-06
1.44333e-06
1.44561e-06
1.44583e-06
1.44557e-06
1.44244e-06
1.4395e-06
1.4395e-06
1.4395e-06
1.4395e-06
1.4431e-06
1.44392e-06
1.4433e-06
1.4395e-06
1.4395e-06
1.4395e-06
1.4395e-06
1.4395e-06
1.4395e-06
1.44421e-06
1.44616e-06
1.44594e-06
1.44323e-06
1.4395e-06
1.4395e-06
1.4395e-06
1.4395e-06
1.4395e-06
1.4395e-06
1.44438e-06
1.4459e-06
1.44577e-06
1.44308e-06
1.4395e-06
1.4395e-06
1.4395e-06
1.4395e-06
1.4395e-06
1.4395e-06
1.44437e-06
1.44408e-06
1.44333e-06
1.4395e-06
1.4395e-06
1.4395e-06
1.4395e-06
1.4395e-06
1.4395e-06
1.44431e-06
1.44624e-06
1.44561e-06
1.4431e-06
1.4395e-06
1.4395e-06
1.4395e-06
1.4395e-06
1.44418e-06
1.44418e-06
1.44614e-06
1.44582e-06
1.44395e-06
1.44421e-06
1.44438e-06
1.44437e-06
1.44431e-06
1.44417e-06
1.44611e-06
1.44616e-06
1.4459e-06
1.44408e-06
1.44624e-06
1.44614e-06
1.42651e-06
1.42635e-06
1.42614e-06
1.42388e-06
1.42381e-06
1.42366e-06
1.4239e-06
1.42619e-06
1.42641e-06
1.42614e-06
1.42301e-06
1.42008e-06
1.42008e-06
1.42008e-06
1.42008e-06
1.42367e-06
1.4245e-06
1.42388e-06
1.42008e-06
1.42008e-06
1.42008e-06
1.42008e-06
1.42008e-06
1.42008e-06
1.42478e-06
1.42673e-06
1.42652e-06
1.42381e-06
1.42008e-06
1.42008e-06
1.42008e-06
1.42008e-06
1.42008e-06
1.42008e-06
1.42496e-06
1.42648e-06
1.42635e-06
1.42366e-06
1.42008e-06
1.42008e-06
1.42008e-06
1.42008e-06
1.42008e-06
1.42008e-06
1.42495e-06
1.42466e-06
1.4239e-06
1.42008e-06
1.42008e-06
1.42008e-06
1.42008e-06
1.42008e-06
1.42008e-06
1.42489e-06
1.42682e-06
1.42618e-06
1.42368e-06
1.42008e-06
1.42008e-06
1.42008e-06
1.42008e-06
1.42476e-06
1.42475e-06
1.42671e-06
1.42639e-06
1.42453e-06
1.42479e-06
1.42496e-06
1.42495e-06
1.42489e-06
1.42475e-06
1.42669e-06
1.42674e-06
1.42648e-06
1.42466e-06
1.42682e-06
1.42671e-06
1.40709e-06
1.40692e-06
1.40672e-06
1.40445e-06
1.40438e-06
1.40423e-06
1.40448e-06
1.40676e-06
1.40698e-06
1.40672e-06
1.40359e-06
1.40065e-06
1.40066e-06
1.40066e-06
1.40066e-06
1.40425e-06
1.40507e-06
1.40445e-06
1.40065e-06
1.40065e-06
1.40065e-06
1.40065e-06
1.40065e-06
1.40066e-06
1.40536e-06
1.40731e-06
1.40709e-06
1.40438e-06
1.40065e-06
1.40065e-06
1.40065e-06
1.40065e-06
1.40065e-06
1.40065e-06
1.40553e-06
1.40705e-06
1.40692e-06
1.40423e-06
1.40065e-06
1.40065e-06
1.40065e-06
1.40065e-06
1.40065e-06
1.40065e-06
1.40552e-06
1.40523e-06
1.40448e-06
1.40065e-06
1.40065e-06
1.40065e-06
1.40065e-06
1.40065e-06
1.40065e-06
1.40546e-06
1.40739e-06
1.40676e-06
1.40425e-06
1.40065e-06
1.40065e-06
1.40065e-06
1.40065e-06
1.40534e-06
1.40533e-06
1.40729e-06
1.40697e-06
1.4051e-06
1.40536e-06
1.40553e-06
1.40552e-06
1.40546e-06
1.40532e-06
1.40726e-06
1.40731e-06
1.40705e-06
1.40524e-06
1.40739e-06
1.40729e-06
1.38766e-06
1.3875e-06
1.38729e-06
1.38503e-06
1.38495e-06
1.38481e-06
1.38505e-06
1.38734e-06
1.38756e-06
1.3873e-06
1.38416e-06
1.38123e-06
1.38123e-06
1.38123e-06
1.38123e-06
1.38482e-06
1.38565e-06
1.38503e-06
1.38123e-06
1.38123e-06
1.38123e-06
1.38123e-06
1.38123e-06
1.38123e-06
1.38593e-06
1.38788e-06
1.38767e-06
1.38496e-06
1.38123e-06
1.38123e-06
1.38123e-06
1.38123e-06
1.38123e-06
1.38123e-06
1.38611e-06
1.38763e-06
1.3875e-06
1.38481e-06
1.38123e-06
1.38123e-06
1.38123e-06
1.38123e-06
1.38123e-06
1.38123e-06
1.3861e-06
1.38581e-06
1.38505e-06
1.38123e-06
1.38123e-06
1.38123e-06
1.38123e-06
1.38123e-06
1.38123e-06
1.38604e-06
1.38797e-06
1.38733e-06
1.38483e-06
1.38123e-06
1.38123e-06
1.38123e-06
1.38123e-06
1.38591e-06
1.3859e-06
1.38786e-06
1.38754e-06
1.38568e-06
1.38593e-06
1.38611e-06
1.3861e-06
1.38604e-06
1.3859e-06
1.38784e-06
1.38789e-06
1.38763e-06
1.38581e-06
1.38797e-06
1.38786e-06
1.36824e-06
1.36807e-06
1.36787e-06
1.3656e-06
1.36553e-06
1.36538e-06
1.36563e-06
1.36791e-06
1.36813e-06
1.36787e-06
1.36474e-06
1.3618e-06
1.3618e-06
1.3618e-06
1.3618e-06
1.3654e-06
1.36622e-06
1.3656e-06
1.3618e-06
1.3618e-06
1.3618e-06
1.3618e-06
1.3618e-06
1.3618e-06
1.36651e-06
1.36846e-06
1.36824e-06
1.36553e-06
1.3618e-06
1.3618e-06
1.3618e-06
1.3618e-06
1.3618e-06
1.3618e-06
1.36668e-06
1.3682e-06
1.36807e-06
1.36538e-06
1.3618e-06
1.3618e-06
1.3618e-06
1.3618e-06
1.3618e-06
1.3618e-06
1.36667e-06
1.36638e-06
1.36562e-06
1.3618e-06
1.3618e-06
1.3618e-06
1.3618e-06
1.3618e-06
1.3618e-06
1.36661e-06
1.36854e-06
1.36791e-06
1.3654e-06
1.3618e-06
1.3618e-06
1.3618e-06
1.3618e-06
1.36648e-06
1.36648e-06
1.36844e-06
1.36812e-06
1.36625e-06
1.36651e-06
1.36668e-06
1.36667e-06
1.36661e-06
1.36647e-06
1.36841e-06
1.36846e-06
1.3682e-06
1.36638e-06
1.36854e-06
1.36844e-06
1.34881e-06
1.34865e-06
1.34844e-06
1.34618e-06
1.3461e-06
1.34596e-06
1.3462e-06
1.34849e-06
1.34871e-06
1.34844e-06
1.34531e-06
1.34238e-06
1.34238e-06
1.34238e-06
1.34238e-06
1.34597e-06
1.3468e-06
1.34618e-06
1.34238e-06
1.34238e-06
1.34238e-06
1.34238e-06
1.34238e-06
1.34238e-06
1.34708e-06
1.34903e-06
1.34882e-06
1.3461e-06
1.34238e-06
1.34238e-06
1.34238e-06
1.34238e-06
1.34238e-06
1.34238e-06
1.34725e-06
1.34878e-06
1.34865e-06
1.34595e-06
1.34238e-06
1.34238e-06
1.34238e-06
1.34238e-06
1.34238e-06
1.34238e-06
1.34725e-06
1.34696e-06
1.3462e-06
1.34238e-06
1.34238e-06
1.34238e-06
1.34238e-06
1.34238e-06
1.34238e-06
1.34719e-06
1.34912e-06
1.34848e-06
1.34597e-06
1.34238e-06
1.34238e-06
1.34238e-06
1.34238e-06
1.34706e-06
1.34705e-06
1.34901e-06
1.34869e-06
1.34682e-06
1.34708e-06
1.34725e-06
1.34725e-06
1.34719e-06
1.34704e-06
1.34899e-06
1.34903e-06
1.34878e-06
1.34696e-06
1.34912e-06
1.34901e-06
1.32939e-06
1.32922e-06
1.32902e-06
1.32675e-06
1.32668e-06
1.32653e-06
1.32678e-06
1.32906e-06
1.32928e-06
1.32902e-06
1.32589e-06
1.32295e-06
1.32295e-06
1.32295e-06
1.32295e-06
1.32655e-06
1.32737e-06
1.32675e-06
1.32295e-06
1.32295e-06
1.32295e-06
1.32295e-06
1.32295e-06
1.32295e-06
1.32766e-06
1.32961e-06
1.32939e-06
1.32668e-06
1.32295e-06
1.32295e-06
1.32295e-06
1.32295e-06
1.32295e-06
1.32295e-06
1.32783e-06
1.32935e-06
1.32922e-06
1.32653e-06
1.32295e-06
1.32295e-06
1.32295e-06
1.32295e-06
1.32295e-06
1.32295e-06
1.32782e-06
1.32753e-06
1.32677e-06
1.32295e-06
1.32295e-06
1.32295e-06
1.32295e-06
1.32295e-06
1.32295e-06
1.32776e-06
1.32969e-06
1.32906e-06
1.32655e-06
1.32295e-06
1.32295e-06
1.32295e-06
1.32295e-06
1.32763e-06
1.32763e-06
1.32959e-06
1.32926e-06
1.3274e-06
1.32766e-06
1.32783e-06
1.32782e-06
1.32776e-06
1.32762e-06
1.32956e-06
1.32961e-06
1.32935e-06
1.32753e-06
1.32969e-06
1.32959e-06
1.30996e-06
1.3098e-06
1.30959e-06
1.30733e-06
1.30725e-06
1.30711e-06
1.30735e-06
1.30964e-06
1.30986e-06
1.30959e-06
1.30646e-06
1.30353e-06
1.30353e-06
1.30353e-06
1.30353e-06
1.30712e-06
1.30795e-06
1.30733e-06
1.30353e-06
1.30353e-06
1.30353e-06
1.30353e-06
1.30353e-06
1.30353e-06
1.30823e-06
1.31018e-06
1.30997e-06
1.30725e-06
1.30353e-06
1.30353e-06
1.30353e-06
1.30353e-06
1.30353e-06
1.30353e-06
1.3084e-06
1.30993e-06
1.3098e-06
1.3071e-06
1.30353e-06
1.30353e-06
1.30353e-06
1.30353e-06
1.30353e-06
1.30353e-06
1.3084e-06
1.30811e-06
1.30735e-06
1.30353e-06
1.30353e-06
1.30353e-06
1.30353e-06
1.30353e-06
1.30353e-06
1.30834e-06
1.31027e-06
1.30963e-06
1.30712e-06
1.30353e-06
1.30353e-06
1.30353e-06
1.30353e-06
1.30821e-06
1.3082e-06
1.31016e-06
1.30984e-06
1.30797e-06
1.30823e-06
1.3084e-06
1.3084e-06
1.30834e-06
1.30819e-06
1.31014e-06
1.31018e-06
1.30993e-06
1.30811e-06
1.31027e-06
1.31016e-06
1.29054e-06
1.29037e-06
1.29017e-06
1.2879e-06
1.28783e-06
1.28768e-06
1.28793e-06
1.29021e-06
1.29043e-06
1.29017e-06
1.28704e-06
1.2841e-06
1.2841e-06
1.2841e-06
1.2841e-06
1.2877e-06
1.28852e-06
1.2879e-06
1.2841e-06
1.2841e-06
1.2841e-06
1.2841e-06
1.2841e-06
1.2841e-06
1.28881e-06
1.29076e-06
1.29054e-06
1.28783e-06
1.2841e-06
1.2841e-06
1.2841e-06
1.2841e-06
1.2841e-06
1.2841e-06
1.28898e-06
1.2905e-06
1.29037e-06
1.28768e-06
1.2841e-06
1.2841e-06
1.2841e-06
1.2841e-06
1.2841e-06
1.2841e-06
1.28897e-06
1.28868e-06
1.28792e-06
1.2841e-06
1.2841e-06
1.2841e-06
1.2841e-06
1.2841e-06
1.2841e-06
1.28891e-06
1.29084e-06
1.29021e-06
1.2877e-06
1.2841e-06
1.2841e-06
1.2841e-06
1.2841e-06
1.28878e-06
1.28878e-06
1.29074e-06
1.29041e-06
1.28855e-06
1.28881e-06
1.28898e-06
1.28897e-06
1.28891e-06
1.28877e-06
1.29071e-06
1.29076e-06
1.2905e-06
1.28868e-06
1.29084e-06
1.29074e-06
1.27111e-06
1.27095e-06
1.27074e-06
1.26848e-06
1.2684e-06
1.26826e-06
1.2685e-06
1.27079e-06
1.27101e-06
1.27074e-06
1.26761e-06
1.26468e-06
1.26468e-06
1.26468e-06
1.26468e-06
1.26827e-06
1.2691e-06
1.26848e-06
1.26468e-06
1.26468e-06
1.26468e-06
1.26468e-06
1.26468e-06
1.26468e-06
1.26938e-06
1.27133e-06
1.27112e-06
1.2684e-06
1.26468e-06
1.26468e-06
1.26468e-06
1.26468e-06
1.26468e-06
1.26468e-06
1.26955e-06
1.27108e-06
1.27095e-06
1.26825e-06
1.26468e-06
1.26468e-06
1.26468e-06
1.26468e-06
1.26468e-06
1.26468e-06
1.26955e-06
1.26926e-06
1.2685e-06
1.26468e-06
1.26468e-06
1.26468e-06
1.26468e-06
1.26468e-06
1.26468e-06
1.26949e-06
1.27142e-06
1.27078e-06
1.26827e-06
1.26468e-06
1.26468e-06
1.26468e-06
1.26468e-06
1.26936e-06
1.26935e-06
1.27131e-06
1.27099e-06
1.26912e-06
1.26938e-06
1.26955e-06
1.26955e-06
1.26949e-06
1.26934e-06
1.27129e-06
1.27133e-06
1.27108e-06
1.26926e-06
1.27141e-06