/*--------------------------------*- C++ -*----------------------------------*\
| =========                 |                                                 |
| \\      /  F ield         | OpenFOAM: The Open Source CFD Toolbox           |
|  \\    /   O peration     | Version:  v2012                                 |
|   \\  /    A nd           | Website:  www.openfoam.com                      |
|    \\/     M anipulation  |                                                 |
\*---------------------------------------------------------------------------*/
FoamFile
{
    version     2.0;
    format      ascii;
    class       volScalarField;
    location    "1000";
    object      epsilon;
}
// * * * * * * * * * * * * * * * * * * * * * * * * * * * * * * * * * * * * * //

dimensions      [0 2 -3 0 0 0 0];


internalField   nonuniform List<scalar> 
171728
(
4.95567e-07
4.9733e-07
4.9733e-07
4.99575e-07
4.45573e-07
4.53735e-07
4.53737e-07
4.6371e-07
4.03752e-07
4.18513e-07
4.18517e-07
4.39411e-07
3.68363e-07
3.88552e-07
3.88558e-07
4.17667e-07
3.38015e-07
3.62102e-07
3.6211e-07
3.96081e-07
3.11646e-07
3.38273e-07
3.38281e-07
3.74581e-07
2.88473e-07
3.16638e-07
3.16646e-07
3.53709e-07
2.67923e-07
2.97021e-07
2.9703e-07
3.34147e-07
2.49579e-07
2.7937e-07
2.79379e-07
3.16483e-07
2.33137e-07
2.63679e-07
2.63688e-07
3.01161e-07
2.18365e-07
2.49955e-07
2.49964e-07
2.88493e-07
2.0509e-07
2.38198e-07
2.38208e-07
2.78695e-07
1.93171e-07
2.28411e-07
2.28422e-07
2.71877e-07
1.82498e-07
2.20601e-07
2.20613e-07
2.68168e-07
1.72979e-07
2.14774e-07
2.14787e-07
2.67651e-07
1.64541e-07
2.10939e-07
2.10954e-07
2.70501e-07
1.57122e-07
2.09107e-07
2.09125e-07
2.767e-07
1.50668e-07
2.09292e-07
2.09315e-07
2.86265e-07
1.45137e-07
2.11549e-07
2.11575e-07
2.99229e-07
1.40492e-07
2.15886e-07
2.15918e-07
3.15609e-07
1.36702e-07
2.22321e-07
2.22356e-07
3.35345e-07
1.33745e-07
2.3087e-07
2.30908e-07
3.58342e-07
1.31603e-07
2.41541e-07
2.41583e-07
3.84494e-07
1.30262e-07
2.5431e-07
2.54353e-07
4.1355e-07
1.2969e-07
2.69038e-07
2.69082e-07
4.44878e-07
1.2995e-07
2.8601e-07
2.86072e-07
4.78928e-07
1.30915e-07
3.04518e-07
3.04562e-07
5.14139e-07
1.32651e-07
3.24966e-07
3.25057e-07
5.50439e-07
1.35239e-07
3.4726e-07
3.47271e-07
5.88538e-07
1.38489e-07
3.70738e-07
3.70869e-07
6.2593e-07
1.42473e-07
3.95609e-07
3.95605e-07
6.62956e-07
1.47273e-07
4.21614e-07
4.21868e-07
7.00719e-07
1.53084e-07
4.49355e-07
4.49461e-07
7.38078e-07
1.59284e-07
4.77604e-07
4.78011e-07
7.74926e-07
1.67097e-07
5.07508e-07
5.07151e-07
8.08783e-07
1.73758e-07
5.33616e-07
5.34379e-07
8.41844e-07
1.84628e-07
5.69637e-07
5.68247e-07
8.81185e-07
1.94501e-07
5.99558e-07
6.02133e-07
9.07948e-07
1.99739e-07
6.16148e-07
6.20119e-07
9.32744e-07
2.14526e-07
6.56932e-07
6.3645e-07
9.83705e-07
2.3183e-07
6.96652e-07
7.09223e-07
9.93894e-07
2.31208e-07
6.80975e-07
6.88331e-07
9.318e-07
2.27747e-07
7.00158e-07
6.78605e-07
1.04038e-06
2.68482e-07
8.47038e-07
8.81448e-07
1.24588e-06
3.70914e-07
8.44687e-07
9.0179e-07
1.08315e-06
3.55866e-07
8.02751e-07
7.22632e-07
9.20353e-07
2.28023e-07
8.37537e-07
7.45394e-07
1.16915e-06
2.61052e-07
8.41177e-07
9.62863e-07
1.30863e-06
4.28902e-07
8.67943e-07
9.92514e-07
1.23112e-06
3.81805e-07
8.96116e-07
8.39898e-07
1.03578e-06
3.5043e-07
9.6738e-07
8.82191e-07
1.17008e-06
3.97121e-07
9.73956e-07
9.58182e-07
1.2059e-06
4.20785e-07
9.50574e-07
9.54919e-07
1.23544e-06
4.51954e-07
1.00457e-06
1.0485e-06
1.34936e-06
4.71223e-07
1.05906e-06
1.07499e-06
1.33921e-06
4.5522e-07
1.02348e-06
1.01831e-06
1.25958e-06
4.55034e-07
1.02719e-06
1.0183e-06
1.26634e-06
4.92499e-07
1.07608e-06
1.07049e-06
1.31708e-06
5.11922e-07
1.08505e-06
1.08543e-06
1.33621e-06
5.1769e-07
1.08617e-06
1.08919e-06
1.34073e-06
5.29466e-07
1.10169e-06
1.1039e-06
1.34655e-06
5.49237e-07
1.1148e-06
1.11305e-06
1.35336e-06
5.58284e-07
1.12193e-06
1.12185e-06
1.36249e-06
5.70804e-07
1.133e-06
1.13369e-06
1.37219e-06
5.83756e-07
1.14102e-06
1.14085e-06
1.37814e-06
5.95572e-07
1.15102e-06
1.15134e-06
1.38776e-06
6.0563e-07
1.15777e-06
1.15817e-06
1.39347e-06
6.15972e-07
1.16436e-06
1.16336e-06
1.39731e-06
6.25461e-07
1.16933e-06
1.17025e-06
1.40403e-06
6.3316e-07
1.17643e-06
1.1763e-06
1.40968e-06
6.41901e-07
1.17954e-06
1.17934e-06
1.41191e-06
6.4904e-07
1.18399e-06
1.1846e-06
1.41679e-06
6.55648e-07
1.18837e-06
1.18786e-06
1.42055e-06
6.61741e-07
1.18989e-06
1.19046e-06
1.42208e-06
6.67017e-07
1.19311e-06
1.19263e-06
1.42473e-06
6.72689e-07
1.19584e-06
1.19629e-06
1.42858e-06
6.76513e-07
1.19603e-06
1.19604e-06
1.42868e-06
6.79708e-07
1.19674e-06
1.1964e-06
1.42824e-06
6.83409e-07
1.19773e-06
1.19831e-06
1.4308e-06
6.86706e-07
1.19851e-06
1.1984e-06
1.43225e-06
6.88462e-07
1.19719e-06
1.19709e-06
1.43061e-06
6.89944e-07
1.19647e-06
1.19673e-06
1.43018e-06
6.91521e-07
1.19582e-06
1.19578e-06
1.43005e-06
6.92524e-07
1.1941e-06
1.1942e-06
1.42888e-06
6.93272e-07
1.19255e-06
1.19253e-06
1.42802e-06
6.93226e-07
1.19066e-06
1.19089e-06
1.42654e-06
6.92787e-07
1.18781e-06
1.18776e-06
1.42364e-06
6.9367e-07
1.18766e-06
1.18761e-06
1.42574e-06
6.91562e-07
1.18104e-06
1.18151e-06
1.41825e-06
6.88548e-07
1.17626e-06
1.17604e-06
1.41218e-06
6.90813e-07
1.18026e-06
1.18027e-06
1.42042e-06
6.9123e-07
1.17719e-06
1.17772e-06
1.41697e-06
6.8564e-07
1.16812e-06
1.16812e-06
1.40633e-06
6.8278e-07
1.1644e-06
1.16421e-06
1.40309e-06
6.64912e-07
1.10898e-06
1.10887e-06
1.36273e-06
5.06417e-07
5.05584e-07
5.05582e-07
5.06417e-07
5.05583e-07
5.05582e-07
5.09649e-07
5.09649e-07
5.09649e-07
5.09649e-07
5.05584e-07
5.05584e-07
5.06418e-07
5.05584e-07
5.05583e-07
5.06418e-07
4.99575e-07
4.67237e-07
4.97331e-07
4.97335e-07
4.63713e-07
4.63721e-07
4.99575e-07
4.67235e-07
4.97335e-07
4.97336e-07
4.63718e-07
4.63724e-07
4.97332e-07
4.63709e-07
4.63714e-07
4.99575e-07
4.67241e-07
4.97334e-07
4.6371e-07
4.63719e-07
4.6724e-07
4.63709e-07
4.41426e-07
4.5374e-07
4.53748e-07
4.26739e-07
4.26747e-07
4.63708e-07
4.4142e-07
4.53744e-07
4.53751e-07
4.26739e-07
4.26751e-07
4.53741e-07
4.26729e-07
4.26741e-07
4.63711e-07
4.41431e-07
4.53744e-07
4.26734e-07
4.26741e-07
4.41429e-07
4.39407e-07
4.19283e-07
4.18522e-07
4.1853e-07
3.95676e-07
3.95682e-07
4.39405e-07
4.19275e-07
4.18522e-07
4.18535e-07
3.95672e-07
3.95689e-07
4.18525e-07
3.95663e-07
3.95679e-07
4.39413e-07
4.19289e-07
4.18523e-07
3.95669e-07
3.95673e-07
4.19287e-07
4.17662e-07
3.97645e-07
3.88566e-07
3.88571e-07
3.68461e-07
3.68466e-07
4.17656e-07
3.97636e-07
3.8856e-07
3.88578e-07
3.68452e-07
3.68473e-07
3.88569e-07
3.68444e-07
3.68464e-07
4.17669e-07
3.97651e-07
3.88562e-07
3.68452e-07
3.68454e-07
3.97649e-07
3.96076e-07
3.76085e-07
3.6212e-07
3.62124e-07
3.44033e-07
3.44036e-07
3.96069e-07
3.76076e-07
3.62109e-07
3.62131e-07
3.4402e-07
3.44043e-07
3.62123e-07
3.44013e-07
3.44036e-07
3.96082e-07
3.76091e-07
3.62111e-07
3.44022e-07
3.44021e-07
3.7609e-07
3.74575e-07
3.55111e-07
3.38292e-07
3.38295e-07
3.21875e-07
3.21876e-07
3.74568e-07
3.55101e-07
3.38279e-07
3.38303e-07
3.21858e-07
3.21884e-07
3.38296e-07
3.21853e-07
3.21877e-07
3.74582e-07
3.55117e-07
3.3828e-07
3.21862e-07
3.2186e-07
3.55116e-07
3.53704e-07
3.35394e-07
3.16659e-07
3.16661e-07
3.01763e-07
3.01764e-07
3.53696e-07
3.35385e-07
3.16642e-07
3.16668e-07
3.01745e-07
3.01771e-07
3.16662e-07
3.0174e-07
3.01765e-07
3.5371e-07
3.35401e-07
3.16644e-07
3.0175e-07
3.01746e-07
3.354e-07
3.34141e-07
3.17532e-07
2.97044e-07
2.97045e-07
2.83623e-07
2.83623e-07
3.34134e-07
3.17523e-07
2.97025e-07
2.97052e-07
2.83603e-07
2.83631e-07
2.97047e-07
2.83599e-07
2.83625e-07
3.34148e-07
3.1754e-07
2.97027e-07
2.83609e-07
2.83604e-07
3.17538e-07
3.16477e-07
3.01974e-07
2.79394e-07
2.79394e-07
2.67442e-07
2.67442e-07
3.1647e-07
3.01964e-07
2.79374e-07
2.79402e-07
2.67421e-07
2.67449e-07
2.79396e-07
2.67417e-07
2.67443e-07
3.16485e-07
3.01982e-07
2.79375e-07
2.67426e-07
2.67421e-07
3.01981e-07
3.01154e-07
2.89041e-07
2.63704e-07
2.63704e-07
2.53227e-07
2.53227e-07
3.01147e-07
2.89029e-07
2.63682e-07
2.63711e-07
2.53204e-07
2.53234e-07
2.63705e-07
2.532e-07
2.53228e-07
3.01162e-07
2.89047e-07
2.63683e-07
2.53209e-07
2.53205e-07
2.89047e-07
2.88486e-07
2.7895e-07
2.49981e-07
2.49981e-07
2.40981e-07
2.40981e-07
2.88476e-07
2.78938e-07
2.49958e-07
2.49989e-07
2.40957e-07
2.40988e-07
2.49982e-07
2.40952e-07
2.4098e-07
2.88493e-07
2.78957e-07
2.49959e-07
2.40962e-07
2.40957e-07
2.78955e-07
2.78688e-07
2.7183e-07
2.38227e-07
2.38227e-07
2.30702e-07
2.30703e-07
2.78678e-07
2.71817e-07
2.38203e-07
2.38235e-07
2.30677e-07
2.3071e-07
2.38227e-07
2.30671e-07
2.30701e-07
2.78696e-07
2.71839e-07
2.38204e-07
2.30681e-07
2.30677e-07
2.71837e-07
2.71869e-07
2.67868e-07
2.28441e-07
2.28444e-07
2.22399e-07
2.22401e-07
2.71859e-07
2.67853e-07
2.28417e-07
2.28451e-07
2.22373e-07
2.22409e-07
2.28442e-07
2.22365e-07
2.22398e-07
2.71879e-07
2.67877e-07
2.28418e-07
2.22376e-07
2.22372e-07
2.67875e-07
2.6816e-07
2.66987e-07
2.20634e-07
2.20638e-07
2.16078e-07
2.16082e-07
2.68147e-07
2.66972e-07
2.20609e-07
2.20646e-07
2.1605e-07
2.1609e-07
2.20635e-07
2.16039e-07
2.16076e-07
2.68169e-07
2.66999e-07
2.20609e-07
2.16052e-07
2.1605e-07
2.66997e-07
2.67642e-07
2.69161e-07
2.14811e-07
2.14817e-07
2.11747e-07
2.11755e-07
2.67626e-07
2.69144e-07
2.14785e-07
2.14826e-07
2.1172e-07
2.11764e-07
2.14811e-07
2.11703e-07
2.11744e-07
2.67651e-07
2.69175e-07
2.14784e-07
2.11719e-07
2.11716e-07
2.69173e-07
2.70491e-07
2.74667e-07
2.10983e-07
2.10991e-07
2.09416e-07
2.09424e-07
2.70474e-07
2.74643e-07
2.10956e-07
2.11e-07
2.09388e-07
2.09436e-07
2.10979e-07
2.09364e-07
2.0941e-07
2.70503e-07
2.74681e-07
2.10952e-07
2.09383e-07
2.09382e-07
2.74679e-07
2.76689e-07
2.83531e-07
2.09158e-07
2.09166e-07
2.09126e-07
2.09134e-07
2.76666e-07
2.83508e-07
2.0913e-07
2.09179e-07
2.09097e-07
2.09151e-07
2.09153e-07
2.09069e-07
2.09119e-07
2.76701e-07
2.8355e-07
2.09125e-07
2.0909e-07
2.09089e-07
2.83544e-07
2.86255e-07
2.95808e-07
2.09351e-07
2.0936e-07
2.1085e-07
2.10856e-07
2.86228e-07
2.95775e-07
2.09323e-07
2.09378e-07
2.1082e-07
2.1088e-07
2.09344e-07
2.10782e-07
2.1084e-07
2.86269e-07
2.95823e-07
2.09315e-07
2.10808e-07
2.1081e-07
2.95819e-07
2.99216e-07
3.115e-07
2.11616e-07
2.11626e-07
2.14674e-07
2.14685e-07
2.9918e-07
3.11467e-07
2.11588e-07
2.11648e-07
2.14643e-07
2.1471e-07
2.11607e-07
2.146e-07
2.14663e-07
2.99227e-07
3.11527e-07
2.11576e-07
2.14631e-07
2.14632e-07
3.11518e-07
3.15593e-07
3.30554e-07
2.15961e-07
2.15975e-07
2.20594e-07
2.20614e-07
3.15562e-07
3.30515e-07
2.15933e-07
2.15999e-07
2.20565e-07
2.20639e-07
2.1595e-07
2.20513e-07
2.20583e-07
3.15621e-07
3.30578e-07
2.1592e-07
2.20544e-07
2.20551e-07
3.30566e-07
3.35339e-07
3.52863e-07
2.22402e-07
2.22425e-07
2.28616e-07
2.28647e-07
3.35298e-07
3.52829e-07
2.22373e-07
2.22453e-07
2.28586e-07
2.28672e-07
2.22393e-07
2.28535e-07
2.28614e-07
3.35359e-07
3.52906e-07
2.2236e-07
2.2857e-07
2.2858e-07
3.52894e-07
3.58313e-07
3.78358e-07
2.3095e-07
2.30985e-07
2.3876e-07
2.38802e-07
3.5828e-07
3.78307e-07
2.30922e-07
2.3101e-07
2.38733e-07
2.38829e-07
2.30949e-07
2.38673e-07
2.38762e-07
3.58347e-07
3.78388e-07
2.30915e-07
2.38711e-07
2.38724e-07
3.7838e-07
3.84475e-07
4.0681e-07
2.41627e-07
2.41673e-07
2.5102e-07
2.51067e-07
3.84421e-07
4.06753e-07
2.41604e-07
2.41704e-07
2.50994e-07
2.51097e-07
2.41631e-07
2.50932e-07
2.51024e-07
3.84499e-07
4.06845e-07
2.41591e-07
2.50975e-07
2.50988e-07
4.06849e-07
4.13509e-07
4.37584e-07
2.54401e-07
2.54447e-07
2.65261e-07
2.65322e-07
4.13452e-07
4.37552e-07
2.54373e-07
2.54479e-07
2.65216e-07
2.65349e-07
2.54406e-07
2.65167e-07
2.65267e-07
4.13534e-07
4.3763e-07
2.54368e-07
2.65197e-07
2.65232e-07
4.37664e-07
4.44804e-07
4.71121e-07
2.69145e-07
2.69197e-07
2.81677e-07
2.8175e-07
4.44777e-07
4.71073e-07
2.69102e-07
2.69238e-07
2.8165e-07
2.81776e-07
2.69135e-07
2.81579e-07
2.81663e-07
4.44858e-07
4.71189e-07
2.691e-07
2.81642e-07
2.81606e-07
4.71083e-07
4.78953e-07
5.06036e-07
2.86109e-07
2.86189e-07
2.99892e-07
2.99958e-07
4.78897e-07
5.05957e-07
2.86088e-07
2.86201e-07
2.99849e-07
2.99968e-07
2.86112e-07
2.99758e-07
2.99944e-07
4.79e-07
5.06033e-07
2.86065e-07
2.99799e-07
2.99921e-07
5.06163e-07
5.14015e-07
5.41867e-07
3.04654e-07
3.0472e-07
3.19703e-07
3.19837e-07
5.1395e-07
5.41965e-07
3.04612e-07
3.04734e-07
3.19642e-07
3.19911e-07
3.04691e-07
3.19642e-07
3.19731e-07
5.1402e-07
5.42152e-07
3.04668e-07
3.19743e-07
3.1969e-07
5.41938e-07
5.50372e-07
5.79749e-07
3.25041e-07
3.25151e-07
3.41722e-07
3.41694e-07
5.505e-07
5.79577e-07
3.24987e-07
3.25234e-07
3.41677e-07
3.41812e-07
3.25039e-07
3.41557e-07
3.41716e-07
5.50681e-07
5.79677e-07
3.2499e-07
3.41574e-07
3.41649e-07
5.79817e-07
5.88454e-07
6.17241e-07
3.47441e-07
3.47428e-07
3.64999e-07
3.65021e-07
5.88233e-07
6.16913e-07
3.47394e-07
3.47519e-07
3.64931e-07
3.64964e-07
3.47449e-07
3.6475e-07
3.64998e-07
5.88306e-07
6.1708e-07
3.47379e-07
3.64834e-07
3.64878e-07
6.1723e-07
6.25916e-07
6.54102e-07
3.70932e-07
3.71008e-07
3.89321e-07
3.89567e-07
6.25632e-07
6.54361e-07
3.70849e-07
3.70931e-07
3.89235e-07
3.89542e-07
3.70968e-07
3.89314e-07
3.89329e-07
6.25798e-07
6.54453e-07
3.70872e-07
3.89376e-07
3.89343e-07
6.54212e-07
6.62915e-07
6.91568e-07
3.95683e-07
3.95829e-07
4.15178e-07
4.15163e-07
6.63197e-07
6.91518e-07
3.95585e-07
3.95869e-07
4.15027e-07
4.15332e-07
3.95518e-07
4.14976e-07
4.15225e-07
6.63225e-07
6.91619e-07
3.95507e-07
4.1502e-07
4.15171e-07
6.91674e-07
7.00561e-07
7.29303e-07
4.21813e-07
4.21849e-07
4.42768e-07
4.42681e-07
7.00451e-07
7.28841e-07
4.21714e-07
4.22151e-07
4.42737e-07
4.42801e-07
4.22055e-07
4.42421e-07
4.42584e-07
7.00628e-07
7.29223e-07
4.22025e-07
4.4262e-07
4.42465e-07
7.29268e-07
7.38102e-07
7.64786e-07
4.49768e-07
4.49579e-07
4.70093e-07
4.70541e-07
7.37689e-07
7.65445e-07
4.49654e-07
4.49619e-07
4.69881e-07
4.7075e-07
4.49535e-07
4.70313e-07
4.70814e-07
7.3804e-07
7.65949e-07
4.49324e-07
4.70536e-07
4.70654e-07
7.65956e-07
7.73798e-07
8.02106e-07
4.77278e-07
4.77831e-07
5.01073e-07
5.01068e-07
7.74534e-07
8.01864e-07
4.77206e-07
4.78214e-07
5.01085e-07
5.00869e-07
4.78216e-07
5.00698e-07
4.99803e-07
7.7505e-07
8.01632e-07
4.7804e-07
5.00677e-07
4.99876e-07
8.00779e-07
8.10351e-07
8.32532e-07
5.08288e-07
5.08015e-07
5.26296e-07
5.26317e-07
8.09917e-07
8.31755e-07
5.08176e-07
5.07278e-07
5.26207e-07
5.26403e-07
5.06543e-07
5.26105e-07
5.27204e-07
8.09505e-07
8.31834e-07
5.0652e-07
5.26356e-07
5.27157e-07
8.32838e-07
8.40819e-07
8.73588e-07
5.33469e-07
5.33673e-07
5.61175e-07
5.60653e-07
8.40147e-07
8.7216e-07
5.33492e-07
5.3446e-07
5.61389e-07
5.59973e-07
5.34583e-07
5.6068e-07
5.61207e-07
8.4059e-07
8.71901e-07
5.34518e-07
5.59914e-07
5.61088e-07
8.72258e-07
8.8344e-07
9.04444e-07
5.70329e-07
5.69556e-07
5.93962e-07
5.93344e-07
8.81993e-07
9.05538e-07
5.70087e-07
5.68342e-07
5.92659e-07
5.95337e-07
5.69819e-07
5.92905e-07
5.90867e-07
8.8139e-07
9.08949e-07
5.69491e-07
5.94439e-07
5.90086e-07
9.01694e-07
9.10015e-07
9.1927e-07
6.00278e-07
6.00334e-07
6.12277e-07
6.15013e-07
9.11681e-07
9.20348e-07
5.99494e-07
6.03349e-07
6.12938e-07
6.18191e-07
5.97132e-07
6.13656e-07
6.1343e-07
9.16207e-07
9.22691e-07
5.96981e-07
6.17518e-07
6.15047e-07
9.24974e-07
9.24574e-07
9.60722e-07
6.14681e-07
6.17466e-07
6.43048e-07
6.37331e-07
9.24839e-07
9.51105e-07
6.15577e-07
6.20377e-07
6.43463e-07
6.27601e-07
6.2023e-07
6.39363e-07
6.54274e-07
9.25118e-07
9.32758e-07
6.21454e-07
6.27855e-07
6.52478e-07
9.71873e-07
9.77683e-07
1.0062e-06
6.6136e-07
6.55653e-07
6.95897e-07
6.95451e-07
9.68026e-07
1.00844e-06
6.59707e-07
6.36093e-07
6.92668e-07
6.98698e-07
6.67204e-07
6.94656e-07
6.86504e-07
9.42884e-07
1.02171e-06
6.64785e-07
6.98613e-07
6.84653e-07
9.93888e-07
1.0076e-06
9.63357e-07
6.97723e-07
6.97395e-07
6.8809e-07
6.85782e-07
1.01015e-06
9.56919e-07
6.95399e-07
7.09383e-07
6.90833e-07
7.04998e-07
6.86449e-07
6.84979e-07
6.68915e-07
1.03064e-06
9.80202e-07
6.84866e-07
7.04346e-07
6.70702e-07
9.31115e-07
9.61816e-07
9.47923e-07
6.80789e-07
6.82394e-07
6.75344e-07
6.87744e-07
9.56854e-07
9.84092e-07
6.83693e-07
6.89756e-07
6.76671e-07
6.75603e-07
6.66487e-07
6.85411e-07
6.81165e-07
9.70928e-07
9.35626e-07
6.68357e-07
6.73755e-07
6.81791e-07
9.92573e-07
9.57985e-07
1.08266e-06
6.78273e-07
7.03556e-07
7.53168e-07
8.14426e-07
1.01142e-06
1.16436e-06
6.78645e-07
6.80175e-07
7.47143e-07
8.20183e-07
7.18182e-07
8.21343e-07
8.68005e-07
9.50695e-07
1.20792e-06
7.1615e-07
8.26097e-07
8.64346e-07
1.23666e-06
1.12381e-06
1.31377e-06
8.06339e-07
8.36532e-07
9.42937e-07
8.476e-07
1.18025e-06
1.14613e-06
8.02423e-07
8.71836e-07
9.48302e-07
9.05852e-07
8.83468e-07
8.58451e-07
8.61296e-07
1.24564e-06
1.23829e-06
8.8109e-07
9.17225e-07
8.64284e-07
1.11706e-06
1.32639e-06
1.20519e-06
9.56004e-07
8.3876e-07
9.3041e-07
8.17654e-07
1.13683e-06
1.07776e-06
9.62544e-07
8.93717e-07
9.35394e-07
7.59257e-07
8.10064e-07
8.0288e-07
7.1898e-07
1.21676e-06
9.50924e-07
8.15957e-07
7.47491e-07
7.17679e-07
9.16515e-07
1.15779e-06
8.149e-07
8.63831e-07
8.18548e-07
6.56843e-07
8.30317e-07
1.08525e-06
1.13981e-06
8.64615e-07
7.32583e-07
6.53718e-07
7.22856e-07
7.18078e-07
8.30852e-07
7.96139e-07
9.39758e-07
9.88474e-07
7.15828e-07
7.22056e-07
7.86162e-07
1.12309e-06
8.07897e-07
1.09709e-06
6.4269e-07
8.29626e-07
7.3569e-07
8.22317e-07
1.14331e-06
1.11582e-06
6.39746e-07
7.35396e-07
7.32717e-07
8.91093e-07
8.48327e-07
8.40516e-07
9.58531e-07
1.02939e-06
1.25388e-06
8.37099e-07
9.17755e-07
9.55118e-07
1.29735e-06
1.19498e-06
1.37523e-06
8.6092e-07
8.23986e-07
1.02647e-06
8.64065e-07
1.11654e-06
1.11817e-06
8.6204e-07
9.44625e-07
1.03828e-06
1.00006e-06
9.71191e-07
8.61296e-07
9.66604e-07
1.28902e-06
1.32196e-06
9.72046e-07
9.9961e-07
9.73414e-07
1.25511e-06
1.3632e-06
1.09938e-06
1.02341e-06
8.73048e-07
8.92733e-07
8.90041e-07
1.12269e-06
1.14394e-06
1.0355e-06
9.95424e-07
8.94345e-07
8.70172e-07
9.38738e-07
8.82113e-07
8.27352e-07
1.30941e-06
1.07545e-06
9.50649e-07
8.64477e-07
8.26032e-07
1.03692e-06
1.083e-06
1.11775e-06
8.61647e-07
9.03859e-07
8.57823e-07
9.53169e-07
1.16263e-06
1.25025e-06
8.58521e-07
8.42152e-07
8.50298e-07
8.4341e-07
8.20134e-07
9.54564e-07
8.59015e-07
1.06508e-06
1.1195e-06
8.15399e-07
8.46238e-07
8.47487e-07
1.1396e-06
1.15716e-06
1.24938e-06
8.87373e-07
9.64125e-07
9.68546e-07
9.74889e-07
1.26106e-06
1.25367e-06
8.79308e-07
8.7663e-07
9.68076e-07
9.54905e-07
8.93943e-07
9.76651e-07
9.46774e-07
1.15812e-06
1.22991e-06
8.83794e-07
9.5579e-07
9.45166e-07
1.20517e-06
1.25171e-06
1.23089e-06
9.75887e-07
9.73775e-07
9.76144e-07
9.53137e-07
1.25114e-06
1.201e-06
9.76423e-07
9.5862e-07
9.76227e-07
9.55057e-07
9.50265e-07
9.51537e-07
9.60394e-07
1.22913e-06
1.19585e-06
9.50112e-07
9.53544e-07
9.59857e-07
1.21736e-06
1.23405e-06
1.30486e-06
9.7654e-07
9.51536e-07
1.01513e-06
9.71487e-07
1.20215e-06
1.24808e-06
9.76492e-07
9.56072e-07
1.01653e-06
1.01608e-06
9.74549e-07
9.74578e-07
1.0413e-06
1.20076e-06
1.30948e-06
9.72429e-07
1.01911e-06
1.04276e-06
1.33634e-06
1.32553e-06
1.33305e-06
1.03668e-06
1.0018e-06
1.05807e-06
1.05795e-06
1.27346e-06
1.32981e-06
1.03914e-06
1.04607e-06
1.06022e-06
1.07654e-06
1.05606e-06
1.05804e-06
1.06789e-06
1.33527e-06
1.35548e-06
1.05831e-06
1.07701e-06
1.06982e-06
1.34283e-06
1.32846e-06
1.24451e-06
1.05571e-06
1.05914e-06
1.01608e-06
1.03166e-06
1.33052e-06
1.26501e-06
1.05735e-06
1.07471e-06
1.0156e-06
1.02886e-06
1.06554e-06
1.03224e-06
1.02525e-06
1.35196e-06
1.26309e-06
1.06685e-06
1.02953e-06
1.0246e-06
1.26062e-06
1.24465e-06
1.27018e-06
1.0103e-06
1.02278e-06
1.01567e-06
1.02044e-06
1.26411e-06
1.27106e-06
1.00979e-06
1.01749e-06
1.01528e-06
1.01295e-06
1.01602e-06
1.0208e-06
1.01203e-06
1.26144e-06
1.26148e-06
1.01545e-06
1.01343e-06
1.01159e-06
1.25788e-06
1.28591e-06
1.33116e-06
1.03015e-06
1.02745e-06
1.07254e-06
1.06908e-06
1.28309e-06
1.32752e-06
1.02968e-06
1.01835e-06
1.07181e-06
1.06105e-06
1.01599e-06
1.06701e-06
1.05316e-06
1.27163e-06
1.31747e-06
1.01554e-06
1.05911e-06
1.05246e-06
1.30739e-06
1.33625e-06
1.32936e-06
1.07929e-06
1.07805e-06
1.08332e-06
1.08553e-06
1.33406e-06
1.33266e-06
1.0787e-06
1.07243e-06
1.083e-06
1.08499e-06
1.06534e-06
1.08491e-06
1.08571e-06
1.32594e-06
1.33156e-06
1.06476e-06
1.08446e-06
1.08533e-06
1.33302e-06
1.3303e-06
1.32432e-06
1.08266e-06
1.08532e-06
1.08244e-06
1.08483e-06
1.33377e-06
1.32755e-06
1.08245e-06
1.08552e-06
1.08238e-06
1.08666e-06
1.08852e-06
1.08537e-06
1.09278e-06
1.33293e-06
1.3307e-06
1.08812e-06
1.08742e-06
1.09276e-06
1.3381e-06
1.32772e-06
1.34112e-06
1.08345e-06
1.08544e-06
1.09665e-06
1.09608e-06
1.33028e-06
1.34013e-06
1.08346e-06
1.08803e-06
1.09693e-06
1.0989e-06
1.09384e-06
1.09661e-06
1.09908e-06
1.33402e-06
1.34342e-06
1.09409e-06
1.0997e-06
1.09962e-06
1.34359e-06
1.34706e-06
1.35657e-06
1.10272e-06
1.1015e-06
1.11574e-06
1.11395e-06
1.34537e-06
1.35414e-06
1.10297e-06
1.10352e-06
1.11554e-06
1.11263e-06
1.1018e-06
1.11309e-06
1.11004e-06
1.34789e-06
1.35283e-06
1.10215e-06
1.11176e-06
1.10973e-06
1.35037e-06
1.35895e-06
1.35767e-06
1.11744e-06
1.11572e-06
1.11933e-06
1.11957e-06
1.35673e-06
1.35826e-06
1.11714e-06
1.11396e-06
1.11901e-06
1.11881e-06
1.11235e-06
1.1194e-06
1.12003e-06
1.35508e-06
1.3575e-06
1.11195e-06
1.11869e-06
1.11976e-06
1.35869e-06
1.36019e-06
1.36696e-06
1.12057e-06
1.12181e-06
1.1295e-06
1.13038e-06
1.36137e-06
1.36791e-06
1.12038e-06
1.12167e-06
1.12952e-06
1.13109e-06
1.1232e-06
1.13071e-06
1.13174e-06
1.36108e-06
1.36871e-06
1.12302e-06
1.13148e-06
1.13176e-06
1.36923e-06
1.37093e-06
1.37654e-06
1.13266e-06
1.13282e-06
1.14e-06
1.13893e-06
1.37125e-06
1.37506e-06
1.13269e-06
1.13342e-06
1.13992e-06
1.13887e-06
1.13369e-06
1.1387e-06
1.13883e-06
1.37193e-06
1.37503e-06
1.13371e-06
1.13868e-06
1.13876e-06
1.37503e-06
1.37958e-06
1.38401e-06
1.14224e-06
1.14131e-06
1.14892e-06
1.14909e-06
1.3782e-06
1.38405e-06
1.14212e-06
1.14111e-06
1.14876e-06
1.14914e-06
1.14111e-06
1.14884e-06
1.14903e-06
1.37807e-06
1.38427e-06
1.141e-06
1.14895e-06
1.14887e-06
1.38442e-06
1.38691e-06
1.3894e-06
1.15077e-06
1.1512e-06
1.1554e-06
1.15598e-06
1.38724e-06
1.39019e-06
1.15063e-06
1.15146e-06
1.1554e-06
1.15651e-06
1.15139e-06
1.15605e-06
1.15687e-06
1.38764e-06
1.39076e-06
1.15125e-06
1.15663e-06
1.15688e-06
1.391e-06
1.3921e-06
1.39605e-06
1.15706e-06
1.15764e-06
1.16283e-06
1.1631e-06
1.39286e-06
1.39609e-06
1.15709e-06
1.15799e-06
1.16265e-06
1.16221e-06
1.15835e-06
1.16302e-06
1.16195e-06
1.39323e-06
1.3952e-06
1.15839e-06
1.1622e-06
1.16177e-06
1.39487e-06
1.39904e-06
1.40188e-06
1.16476e-06
1.16461e-06
1.16941e-06
1.16821e-06
1.39876e-06
1.40055e-06
1.1645e-06
1.16354e-06
1.16926e-06
1.16854e-06
1.16315e-06
1.16778e-06
1.16836e-06
1.39777e-06
1.40092e-06
1.16289e-06
1.16815e-06
1.16822e-06
1.40082e-06
1.40427e-06
1.4053e-06
1.1705e-06
1.16963e-06
1.17342e-06
1.17473e-06
1.40314e-06
1.40658e-06
1.17047e-06
1.17054e-06
1.17348e-06
1.17517e-06
1.17047e-06
1.17491e-06
1.17545e-06
1.40394e-06
1.40712e-06
1.17045e-06
1.17539e-06
1.1755e-06
1.40746e-06
1.40773e-06
1.41057e-06
1.17469e-06
1.17622e-06
1.17941e-06
1.17908e-06
1.40931e-06
1.41028e-06
1.17466e-06
1.17603e-06
1.17914e-06
1.17838e-06
1.17643e-06
1.17894e-06
1.1786e-06
1.40936e-06
1.40964e-06
1.1764e-06
1.17831e-06
1.17835e-06
1.40966e-06
1.41328e-06
1.41455e-06
1.18081e-06
1.1798e-06
1.18338e-06
1.18284e-06
1.41233e-06
1.41364e-06
1.18058e-06
1.17956e-06
1.18342e-06
1.18363e-06
1.1795e-06
1.18257e-06
1.18304e-06
1.41201e-06
1.41452e-06
1.17928e-06
1.1834e-06
1.18309e-06
1.41416e-06
1.41664e-06
1.41744e-06
1.18405e-06
1.18415e-06
1.18686e-06
1.18763e-06
1.41628e-06
1.41835e-06
1.1841e-06
1.18473e-06
1.18668e-06
1.18706e-06
1.18434e-06
1.18763e-06
1.18768e-06
1.41704e-06
1.41785e-06
1.1844e-06
1.18712e-06
1.18751e-06
1.41841e-06
1.41979e-06
1.42044e-06
1.18792e-06
1.18838e-06
1.19e-06
1.18959e-06
1.42048e-06
1.41983e-06
1.1877e-06
1.18782e-06
1.18995e-06
1.19002e-06
1.1885e-06
1.18949e-06
1.1899e-06
1.41996e-06
1.42028e-06
1.18829e-06
1.18998e-06
1.18985e-06
1.42021e-06
1.42242e-06
1.42266e-06
1.19039e-06
1.19001e-06
1.1921e-06
1.19231e-06
1.42174e-06
1.42279e-06
1.1904e-06
1.19053e-06
1.19198e-06
1.19193e-06
1.19018e-06
1.19214e-06
1.1918e-06
1.42232e-06
1.42252e-06
1.19019e-06
1.1918e-06
1.19169e-06
1.42234e-06
1.42499e-06
1.42612e-06
1.19298e-06
1.19327e-06
1.1955e-06
1.19555e-06
1.42525e-06
1.4261e-06
1.19281e-06
1.19277e-06
1.19539e-06
1.19578e-06
1.19277e-06
1.19543e-06
1.19579e-06
1.42482e-06
1.42641e-06
1.1926e-06
1.19571e-06
1.19568e-06
1.42647e-06
1.42813e-06
1.42659e-06
1.19599e-06
1.19593e-06
1.19621e-06
1.19611e-06
1.42803e-06
1.42635e-06
1.19594e-06
1.19633e-06
1.1962e-06
1.19638e-06
1.19638e-06
1.19606e-06
1.19665e-06
1.42851e-06
1.42663e-06
1.19633e-06
1.19638e-06
1.19664e-06
1.42713e-06
1.42819e-06
1.42677e-06
1.1961e-06
1.19608e-06
1.19626e-06
1.19656e-06
1.42802e-06
1.42704e-06
1.19605e-06
1.19604e-06
1.19605e-06
1.19594e-06
1.19645e-06
1.19644e-06
1.19611e-06
1.42813e-06
1.42638e-06
1.1964e-06
1.19587e-06
1.19594e-06
1.42625e-06
1.42888e-06
1.42883e-06
1.19671e-06
1.19691e-06
1.19766e-06
1.19757e-06
1.42904e-06
1.42858e-06
1.19648e-06
1.19654e-06
1.19766e-06
1.19818e-06
1.1962e-06
1.1974e-06
1.19754e-06
1.42872e-06
1.42936e-06
1.19602e-06
1.19804e-06
1.19753e-06
1.42866e-06
1.43076e-06
1.42999e-06
1.19797e-06
1.19787e-06
1.19854e-06
1.19855e-06
1.43051e-06
1.42994e-06
1.19799e-06
1.1984e-06
1.19846e-06
1.19848e-06
1.1981e-06
1.1985e-06
1.19892e-06
1.43129e-06
1.42976e-06
1.19811e-06
1.19846e-06
1.19885e-06
1.4305e-06
1.43176e-06
1.42912e-06
1.19854e-06
1.19856e-06
1.19775e-06
1.19777e-06
1.43176e-06
1.42903e-06
1.19845e-06
1.19841e-06
1.19759e-06
1.19747e-06
1.19891e-06
1.19766e-06
1.19779e-06
1.43142e-06
1.42877e-06
1.19882e-06
1.19742e-06
1.19763e-06
1.42909e-06
1.43065e-06
1.42822e-06
1.19732e-06
1.19732e-06
1.19656e-06
1.19663e-06
1.43056e-06
1.42814e-06
1.19717e-06
1.19717e-06
1.1965e-06
1.19683e-06
1.19729e-06
1.19651e-06
1.19661e-06
1.43035e-06
1.42862e-06
1.19715e-06
1.19675e-06
1.19654e-06
1.42822e-06
1.43005e-06
1.42844e-06
1.19649e-06
1.19658e-06
1.19601e-06
1.19617e-06
1.43003e-06
1.42856e-06
1.19644e-06
1.1968e-06
1.19594e-06
1.19618e-06
1.19657e-06
1.19607e-06
1.19609e-06
1.43053e-06
1.42856e-06
1.19652e-06
1.19612e-06
1.19603e-06
1.42848e-06
1.43004e-06
1.42728e-06
1.19579e-06
1.19594e-06
1.19462e-06
1.19468e-06
1.43017e-06
1.42721e-06
1.19569e-06
1.19586e-06
1.19453e-06
1.19468e-06
1.19582e-06
1.19456e-06
1.19469e-06
1.43013e-06
1.42724e-06
1.19573e-06
1.19462e-06
1.19459e-06
1.42726e-06
1.42889e-06
1.42642e-06
1.19425e-06
1.1942e-06
1.19318e-06
1.19288e-06
1.42877e-06
1.42591e-06
1.19418e-06
1.19425e-06
1.19308e-06
1.19286e-06
1.19432e-06
1.19275e-06
1.19311e-06
1.42883e-06
1.426e-06
1.19424e-06
1.19277e-06
1.19301e-06
1.42634e-06
1.42812e-06
1.42474e-06
1.19298e-06
1.19269e-06
1.1912e-06
1.19153e-06
1.42761e-06
1.42506e-06
1.19287e-06
1.19264e-06
1.19112e-06
1.19166e-06
1.19291e-06
1.19143e-06
1.19149e-06
1.42766e-06
1.42529e-06
1.19281e-06
1.1916e-06
1.19141e-06
1.4251e-06
1.42616e-06
1.42173e-06
1.19029e-06
1.19073e-06
1.18799e-06
1.18818e-06
1.4265e-06
1.42209e-06
1.19024e-06
1.19091e-06
1.18791e-06
1.18818e-06
1.19068e-06
1.1881e-06
1.18817e-06
1.42674e-06
1.42219e-06
1.19062e-06
1.18814e-06
1.18808e-06
1.42206e-06
1.42339e-06
1.42427e-06
1.18787e-06
1.18791e-06
1.18821e-06
1.18786e-06
1.42367e-06
1.42363e-06
1.18777e-06
1.18782e-06
1.18807e-06
1.18774e-06
1.18791e-06
1.18771e-06
1.18794e-06
1.42374e-06
1.42343e-06
1.18781e-06
1.18761e-06
1.18782e-06
1.4238e-06
1.4262e-06
1.41695e-06
1.18818e-06
1.18783e-06
1.18363e-06
1.18379e-06
1.42554e-06
1.41705e-06
1.18805e-06
1.18774e-06
1.18365e-06
1.18434e-06
1.18793e-06
1.18366e-06
1.18399e-06
1.42539e-06
1.4177e-06
1.1878e-06
1.18428e-06
1.18397e-06
1.41743e-06
1.41772e-06
1.40957e-06
1.18074e-06
1.18111e-06
1.17586e-06
1.17631e-06
1.41791e-06
1.41024e-06
1.18075e-06
1.18153e-06
1.17577e-06
1.17613e-06
1.18124e-06
1.17628e-06
1.17618e-06
1.41853e-06
1.41008e-06
1.18123e-06
1.17612e-06
1.17609e-06
1.41007e-06
1.41195e-06
1.41821e-06
1.17589e-06
1.1763e-06
1.17976e-06
1.17947e-06
1.41252e-06
1.41775e-06
1.17578e-06
1.17606e-06
1.17958e-06
1.17919e-06
1.17614e-06
1.17928e-06
1.17928e-06
1.4121e-06
1.41744e-06
1.17604e-06
1.17905e-06
1.17912e-06
1.41752e-06
1.42116e-06
1.41578e-06
1.18093e-06
1.18048e-06
1.17955e-06
1.17905e-06
1.4205e-06
1.41512e-06
1.1808e-06
1.18043e-06
1.17954e-06
1.17945e-06
1.18047e-06
1.17884e-06
1.17949e-06
1.42036e-06
1.41576e-06
1.18035e-06
1.17931e-06
1.17944e-06
1.41598e-06
1.41664e-06
1.40425e-06
1.17747e-06
1.17731e-06
1.16836e-06
1.16897e-06
1.41607e-06
1.40501e-06
1.17751e-06
1.17779e-06
1.16832e-06
1.16905e-06
1.17793e-06
1.169e-06
1.16909e-06
1.41672e-06
1.40509e-06
1.1779e-06
1.1691e-06
1.16903e-06
1.4051e-06
1.40557e-06
1.40212e-06
1.1675e-06
1.1681e-06
1.16458e-06
1.16458e-06
1.40635e-06
1.40208e-06
1.16743e-06
1.16808e-06
1.16445e-06
1.16434e-06
1.16804e-06
1.16442e-06
1.16413e-06
1.40637e-06
1.40184e-06
1.16797e-06
1.16422e-06
1.164e-06
1.40147e-06
1.40391e-06
1.38359e-06
1.16468e-06
1.16459e-06
1.14365e-06
1.14334e-06
1.40371e-06
1.38311e-06
1.16455e-06
1.16436e-06
1.14358e-06
1.14312e-06
1.16419e-06
1.14324e-06
1.14338e-06
1.40344e-06
1.38294e-06
1.16406e-06
1.14307e-06
1.14331e-06
1.38336e-06
1.36274e-06
1.10926e-06
1.109e-06
1.36235e-06
1.10921e-06
1.10885e-06
6.64642e-07
6.64483e-07
6.64806e-07
1.1092e-06
1.36223e-06
1.10916e-06
5.35663e-07
5.35601e-07
5.35655e-07
5.35655e-07
5.34573e-07
5.35516e-07
5.33634e-07
5.35654e-07
5.34573e-07
5.35517e-07
5.35654e-07
5.33634e-07
5.35256e-07
5.35986e-07
5.35987e-07
1.10713e-06
3.88082e-06
9.33891e-07
4.60616e-06
1.26081e-05
1.66011e-05
1.10725e-06
3.88107e-06
9.33925e-07
4.60652e-06
4.95567e-07
4.95567e-07
4.95567e-07
4.57231e-07
4.57231e-07
4.57232e-07
4.57232e-07
5.43144e-07
1.22026e-06
4.95565e-07
4.85522e-07
5.25341e-07
1.20946e-06
4.82301e-07
1.26097e-05
1.66037e-05
5.43162e-07
4.95565e-07
1.22025e-06
4.85523e-07
5.2532e-07
4.82302e-07
1.20945e-06
2.52172e-06
2.52242e-06
4.8419e-07
2.37248e-06
2.37287e-06
1.4308e-06
5.59329e-06
1.32967e-06
6.13635e-06
2.12844e-05
2.31104e-05
1.4312e-06
5.59397e-06
1.32973e-06
6.13701e-06
4.45572e-07
4.45573e-07
4.45573e-07
4.13542e-07
4.13542e-07
4.13543e-07