/*--------------------------------*- C++ -*----------------------------------*\
| =========                 |                                                 |
| \\      /  F ield         | OpenFOAM: The Open Source CFD Toolbox           |
|  \\    /   O peration     | Version:  v2012                                 |
|   \\  /    A nd           | Website:  www.openfoam.com                      |
|    \\/     M anipulation  |                                                 |
\*---------------------------------------------------------------------------*/
FoamFile
{
    version     2.0;
    format      ascii;
    class       volScalarField;
    location    "1000";
    object      k;
}
// * * * * * * * * * * * * * * * * * * * * * * * * * * * * * * * * * * * * * //

dimensions      [0 2 -2 0 0 0 0];


internalField   nonuniform List<scalar> 
171728
(
3.58932e-05
3.58912e-05
3.58912e-05
3.59957e-05
3.39296e-05
3.3889e-05
3.3889e-05
3.39622e-05
3.21578e-05
3.20081e-05
3.20081e-05
3.19522e-05
3.05346e-05
3.02293e-05
3.02292e-05
2.99884e-05
2.90329e-05
2.8554e-05
2.85539e-05
2.81226e-05
2.76353e-05
2.69872e-05
2.69871e-05
2.63907e-05
2.63308e-05
2.5531e-05
2.55309e-05
2.48073e-05
2.51112e-05
2.4185e-05
2.41848e-05
2.33782e-05
2.39709e-05
2.29506e-05
2.29504e-05
2.21046e-05
2.29058e-05
2.18269e-05
2.18267e-05
2.0986e-05
2.1912e-05
2.08114e-05
2.08112e-05
2.00134e-05
2.09865e-05
1.99013e-05
1.99011e-05
1.91815e-05
2.01241e-05
1.90947e-05
1.90946e-05
1.84895e-05
1.93239e-05
1.83885e-05
1.83884e-05
1.79331e-05
1.85847e-05
1.77793e-05
1.77792e-05
1.75065e-05
1.79041e-05
1.72655e-05
1.72655e-05
1.72004e-05
1.72798e-05
1.68466e-05
1.68467e-05
1.70227e-05
1.67096e-05
1.6521e-05
1.65211e-05
1.69815e-05
1.61923e-05
1.62895e-05
1.62897e-05
1.70784e-05
1.57254e-05
1.61518e-05
1.61522e-05
1.73039e-05
1.53072e-05
1.61071e-05
1.61075e-05
1.76566e-05
1.49372e-05
1.61528e-05
1.61535e-05
1.8133e-05
1.46143e-05
1.62911e-05
1.62916e-05
1.87262e-05
1.43382e-05
1.65196e-05
1.65203e-05
1.94281e-05
1.41074e-05
1.68344e-05
1.68348e-05
2.02182e-05
1.39239e-05
1.7237e-05
1.72381e-05
2.1093e-05
1.37864e-05
1.77209e-05
1.77217e-05
2.2051e-05
1.3689e-05
1.8268e-05
1.8272e-05
2.3019e-05
1.36436e-05
1.89087e-05
1.89078e-05
2.40754e-05
1.36432e-05
1.96039e-05
1.96027e-05
2.51392e-05
1.3677e-05
2.03509e-05
2.03592e-05
2.61915e-05
1.37665e-05
2.11522e-05
2.11451e-05
2.72543e-05
1.39001e-05
2.20286e-05
2.20448e-05
2.83726e-05
1.40847e-05
2.29343e-05
2.29347e-05
2.94438e-05
1.43318e-05
2.39548e-05
2.39641e-05
3.05256e-05
1.4567e-05
2.47545e-05
2.47471e-05
3.14432e-05
1.49186e-05
2.59199e-05
2.59102e-05
3.26518e-05
1.54166e-05
2.71091e-05
2.71399e-05
3.36828e-05
1.56637e-05
2.78314e-05
2.79793e-05
3.43014e-05
1.58139e-05
2.82798e-05
2.8225e-05
3.56988e-05
1.70108e-05
3.06889e-05
3.04683e-05
3.69641e-05
1.72288e-05
3.04879e-05
3.13388e-05
3.50338e-05
1.65422e-05
3.00028e-05
2.98352e-05
3.46464e-05
1.6716e-05
3.47473e-05
3.37164e-05
4.44716e-05
2.32882e-05
3.75333e-05
3.98916e-05
4.52682e-05
2.52379e-05
3.48544e-05
3.43663e-05
3.40463e-05
1.87117e-05
3.48956e-05
3.06316e-05
3.82212e-05
1.52928e-05
3.62183e-05
3.74607e-05
4.71185e-05
2.41696e-05
3.65313e-05
4.32427e-05
4.86901e-05
2.76097e-05
3.66832e-05
3.89263e-05
3.92244e-05
2.32446e-05
4.00359e-05
3.54602e-05
3.93954e-05
2.30552e-05
4.20341e-05
3.96757e-05
4.43707e-05
2.60843e-05
4.08161e-05
4.05955e-05
4.44326e-05
2.71105e-05
4.06307e-05
4.21963e-05
4.85449e-05
2.90068e-05
4.43124e-05
4.58171e-05
5.02023e-05
2.88673e-05
4.42843e-05
4.46449e-05
4.73059e-05
2.7599e-05
4.32132e-05
4.28859e-05
4.60219e-05
2.82494e-05
4.45754e-05
4.39387e-05
4.7634e-05
3.05644e-05
4.60007e-05
4.58202e-05
4.92067e-05
3.11002e-05
4.60793e-05
4.61065e-05
4.95077e-05
3.11772e-05
4.61505e-05
4.63662e-05
4.97595e-05
3.21227e-05
4.7105e-05
4.7113e-05
5.00394e-05
3.29467e-05
4.74593e-05
4.7396e-05
5.03536e-05
3.34565e-05
4.80087e-05
4.80283e-05
5.09061e-05
3.41825e-05
4.8429e-05
4.84354e-05
5.11815e-05
3.48875e-05
4.89553e-05
4.89516e-05
5.16122e-05
3.54986e-05
4.93697e-05
4.9398e-05
5.19686e-05
3.60707e-05
4.9769e-05
4.97428e-05
5.21997e-05
3.66656e-05
5.0065e-05
5.00518e-05
5.24508e-05
3.71621e-05
5.04557e-05
5.04945e-05
5.28393e-05
3.76501e-05
5.07698e-05
5.073e-05
5.30042e-05
3.81584e-05
5.0999e-05
5.10338e-05
5.32318e-05
3.85755e-05
5.13354e-05
5.13177e-05
5.34904e-05
3.90059e-05
5.15441e-05
5.15538e-05
5.36555e-05
3.93666e-05
5.17407e-05
5.17316e-05
5.37885e-05
3.97577e-05
5.20089e-05
5.20065e-05
5.40335e-05
4.01151e-05
5.21613e-05
5.21805e-05
5.41607e-05
4.03542e-05
5.22746e-05
5.22447e-05
5.42141e-05
4.06413e-05
5.2425e-05
5.24459e-05
5.43436e-05
4.09355e-05
5.25932e-05
5.2598e-05
5.45027e-05
4.11761e-05
5.26764e-05
5.26609e-05
5.4559e-05
4.13341e-05
5.27254e-05
5.27303e-05
5.45801e-05
4.15228e-05
5.28084e-05
5.28133e-05
5.46501e-05
4.1693e-05
5.2866e-05
5.28641e-05
5.46894e-05
4.18378e-05
5.28792e-05
5.28784e-05
5.47144e-05
4.19619e-05
5.29263e-05
5.29268e-05
5.47491e-05
4.20301e-05
5.29067e-05
5.29116e-05
5.47065e-05
4.21513e-05
5.29441e-05
5.29352e-05
5.47687e-05
4.22439e-05
5.29449e-05
5.29482e-05
5.47676e-05
4.21267e-05
5.26725e-05
5.26738e-05
5.44334e-05
4.21335e-05
5.27925e-05
5.27682e-05
5.46518e-05
4.24585e-05
5.29588e-05
5.29626e-05
5.48265e-05
4.24023e-05
5.27003e-05
5.27148e-05
5.44796e-05
4.21556e-05
5.24696e-05
5.24606e-05
5.42915e-05
4.17519e-05
5.13899e-05
5.13746e-05
5.40168e-05
3.63068e-05
3.6291e-05
3.6291e-05
3.63068e-05
3.6291e-05
3.6291e-05
3.6423e-05
3.6423e-05
3.6423e-05
3.6423e-05
3.6291e-05
3.6291e-05
3.63068e-05
3.6291e-05
3.6291e-05
3.63068e-05
3.59957e-05
3.42687e-05
3.58912e-05
3.58912e-05
3.43767e-05
3.43766e-05
3.59957e-05
3.42687e-05
3.58911e-05
3.58912e-05
3.43767e-05
3.43766e-05
3.58912e-05
3.43767e-05
3.43767e-05
3.59957e-05
3.42687e-05
3.58912e-05
3.43767e-05
3.43767e-05
3.42687e-05
3.39623e-05
3.22635e-05
3.38889e-05
3.38889e-05
3.24684e-05
3.24683e-05
3.39623e-05
3.22635e-05
3.38889e-05
3.38889e-05
3.24684e-05
3.24683e-05
3.38889e-05
3.24685e-05
3.24684e-05
3.39623e-05
3.22634e-05
3.38889e-05
3.24685e-05
3.24684e-05
3.22634e-05
3.19522e-05
3.02993e-05
3.20079e-05
3.20078e-05
3.06643e-05
3.06642e-05
3.19522e-05
3.02994e-05
3.2008e-05
3.20078e-05
3.06644e-05
3.06641e-05
3.20079e-05
3.06646e-05
3.06643e-05
3.19522e-05
3.02992e-05
3.2008e-05
3.06645e-05
3.06644e-05
3.02992e-05
2.99885e-05
2.84253e-05
3.0229e-05
3.02288e-05
2.89624e-05
2.89622e-05
2.99886e-05
2.84255e-05
3.02291e-05
3.02287e-05
2.89626e-05
2.89621e-05
3.02289e-05
2.89628e-05
2.89623e-05
2.99884e-05
2.84252e-05
3.02291e-05
2.89627e-05
2.89626e-05
2.84252e-05
2.81227e-05
2.6674e-05
2.85536e-05
2.85534e-05
2.7368e-05
2.73678e-05
2.81228e-05
2.66742e-05
2.85538e-05
2.85533e-05
2.73683e-05
2.73676e-05
2.85535e-05
2.73685e-05
2.73679e-05
2.81226e-05
2.66739e-05
2.85538e-05
2.73684e-05
2.73683e-05
2.66738e-05
2.63908e-05
2.50663e-05
2.69866e-05
2.69864e-05
2.58841e-05
2.58838e-05
2.6391e-05
2.50665e-05
2.69869e-05
2.69862e-05
2.58845e-05
2.58836e-05
2.69865e-05
2.58848e-05
2.5884e-05
2.63907e-05
2.50661e-05
2.69869e-05
2.58846e-05
2.58844e-05
2.50661e-05
2.48075e-05
2.36125e-05
2.55303e-05
2.553e-05
2.45103e-05
2.45099e-05
2.48077e-05
2.36127e-05
2.55308e-05
2.55299e-05
2.45107e-05
2.45097e-05
2.55302e-05
2.4511e-05
2.45102e-05
2.48073e-05
2.36123e-05
2.55307e-05
2.45108e-05
2.45107e-05
2.36123e-05
2.33784e-05
2.23124e-05
2.41842e-05
2.41838e-05
2.32479e-05
2.32475e-05
2.33785e-05
2.23126e-05
2.41847e-05
2.41836e-05
2.32484e-05
2.32473e-05
2.41841e-05
2.32488e-05
2.32478e-05
2.33782e-05
2.23122e-05
2.41846e-05
2.32485e-05
2.32484e-05
2.23122e-05
2.21049e-05
2.11681e-05
2.29497e-05
2.29494e-05
2.20965e-05
2.20962e-05
2.21051e-05
2.11683e-05
2.29503e-05
2.29491e-05
2.20972e-05
2.2096e-05
2.29496e-05
2.20976e-05
2.20965e-05
2.21047e-05
2.11678e-05
2.29503e-05
2.20973e-05
2.20972e-05
2.11678e-05
2.09863e-05
2.01708e-05
2.18259e-05
2.18255e-05
2.10542e-05
2.10538e-05
2.09865e-05
2.01709e-05
2.18266e-05
2.18253e-05
2.10549e-05
2.10536e-05
2.18258e-05
2.10552e-05
2.10541e-05
2.09861e-05
2.01705e-05
2.18265e-05
2.1055e-05
2.10549e-05
2.01704e-05
2.00137e-05
1.93147e-05
2.08103e-05
2.081e-05
2.01179e-05
2.01176e-05
2.00138e-05
1.93148e-05
2.08111e-05
2.08097e-05
2.01188e-05
2.01174e-05
2.08102e-05
2.01191e-05
2.01179e-05
2.00134e-05
1.93144e-05
2.08111e-05
2.01189e-05
2.01188e-05
1.93143e-05
1.91817e-05
1.85904e-05
1.99002e-05
1.98999e-05
1.92856e-05
1.92852e-05
1.91818e-05
1.85906e-05
1.9901e-05
1.98997e-05
1.92864e-05
1.9285e-05
1.99001e-05
1.92867e-05
1.92855e-05
1.91815e-05
1.85902e-05
1.9901e-05
1.92865e-05
1.92864e-05
1.859e-05
1.84899e-05
1.79978e-05
1.90936e-05
1.90933e-05
1.85545e-05
1.85542e-05
1.84899e-05
1.79979e-05
1.90944e-05
1.90931e-05
1.85553e-05
1.8554e-05
1.90936e-05
1.85556e-05
1.85545e-05
1.84896e-05
1.79976e-05
1.90944e-05
1.85554e-05
1.85553e-05
1.79975e-05
1.79334e-05
1.75394e-05
1.83874e-05
1.83872e-05
1.79214e-05
1.79212e-05
1.79334e-05
1.75395e-05
1.83883e-05
1.8387e-05
1.79222e-05
1.7921e-05
1.83874e-05
1.79224e-05
1.79214e-05
1.79332e-05
1.75393e-05
1.83883e-05
1.79223e-05
1.79223e-05
1.75392e-05
1.75067e-05
1.72179e-05
1.77783e-05
1.77781e-05
1.7384e-05
1.73838e-05
1.75067e-05
1.72179e-05
1.77791e-05
1.7778e-05
1.73848e-05
1.73837e-05
1.77783e-05
1.73848e-05
1.7384e-05
1.75065e-05
1.72178e-05
1.77791e-05
1.73849e-05
1.73848e-05
1.72177e-05
1.72006e-05
1.70263e-05
1.72648e-05
1.72645e-05
1.69411e-05
1.6941e-05
1.72006e-05
1.70261e-05
1.72655e-05
1.72644e-05
1.69418e-05
1.69408e-05
1.72647e-05
1.69418e-05
1.6941e-05
1.72005e-05
1.70262e-05
1.72656e-05
1.69418e-05
1.69418e-05
1.7026e-05
1.70229e-05
1.69724e-05
1.68459e-05
1.68457e-05
1.65921e-05
1.65919e-05
1.70228e-05
1.69721e-05
1.68466e-05
1.68457e-05
1.65927e-05
1.6592e-05
1.68458e-05
1.65926e-05
1.65921e-05
1.70229e-05
1.69724e-05
1.68466e-05
1.65928e-05
1.65928e-05
1.69723e-05
1.69815e-05
1.7043e-05
1.65205e-05
1.65204e-05
1.63368e-05
1.63367e-05
1.69813e-05
1.70426e-05
1.65211e-05
1.65204e-05
1.63374e-05
1.63369e-05
1.65204e-05
1.63372e-05
1.63367e-05
1.69816e-05
1.70431e-05
1.65212e-05
1.63374e-05
1.63374e-05
1.7043e-05
1.70785e-05
1.72435e-05
1.62891e-05
1.6289e-05
1.61753e-05
1.61753e-05
1.70783e-05
1.72431e-05
1.62897e-05
1.62891e-05
1.61759e-05
1.61755e-05
1.6289e-05
1.61755e-05
1.61753e-05
1.70788e-05
1.72437e-05
1.62897e-05
1.61758e-05
1.61759e-05
1.72436e-05
1.73039e-05
1.75718e-05
1.61516e-05
1.61517e-05
1.6107e-05
1.61072e-05
1.73035e-05
1.75714e-05
1.61522e-05
1.61518e-05
1.61075e-05
1.61074e-05
1.61516e-05
1.6107e-05
1.6107e-05
1.73041e-05
1.75722e-05
1.61522e-05
1.61074e-05
1.61076e-05
1.75719e-05
1.76565e-05
1.80245e-05
1.6107e-05
1.61073e-05
1.61326e-05
1.61328e-05
1.7656e-05
1.80238e-05
1.61076e-05
1.61075e-05
1.6133e-05
1.61331e-05
1.61071e-05
1.61324e-05
1.61327e-05
1.76566e-05
1.80249e-05
1.61077e-05
1.61328e-05
1.61331e-05
1.80246e-05
1.81327e-05
1.85946e-05
1.61529e-05
1.61532e-05
1.62479e-05
1.62483e-05
1.81321e-05
1.8594e-05
1.61533e-05
1.61536e-05
1.62484e-05
1.62485e-05
1.61532e-05
1.62477e-05
1.62484e-05
1.81331e-05
1.85951e-05
1.61537e-05
1.62481e-05
1.62487e-05
1.85952e-05
1.87259e-05
1.92754e-05
1.62911e-05
1.62917e-05
1.64544e-05
1.64551e-05
1.87252e-05
1.92744e-05
1.62918e-05
1.62919e-05
1.64548e-05
1.64556e-05
1.62917e-05
1.64541e-05
1.64549e-05
1.87262e-05
1.92762e-05
1.6292e-05
1.64549e-05
1.64554e-05
1.9276e-05
1.94277e-05
2.00473e-05
1.65203e-05
1.65206e-05
1.67484e-05
1.67493e-05
1.94265e-05
2.00466e-05
1.65209e-05
1.65211e-05
1.67483e-05
1.67497e-05
1.65203e-05
1.67485e-05
1.6749e-05
1.94283e-05
2.00477e-05
1.65208e-05
1.67491e-05
1.67493e-05
2.00489e-05
2.02164e-05
2.09036e-05
1.68348e-05
1.68355e-05
1.7127e-05
1.71278e-05
2.02161e-05
2.09032e-05
1.68341e-05
1.68356e-05
1.71271e-05
1.71292e-05
1.68348e-05
1.71262e-05
1.71266e-05
2.0217e-05
2.09055e-05
1.68357e-05
1.71273e-05
1.71262e-05
2.09035e-05
2.10944e-05
2.18487e-05
1.72376e-05
1.72385e-05
1.75965e-05
1.75978e-05
2.10939e-05
2.18468e-05
1.72381e-05
1.7239e-05
1.75962e-05
1.75977e-05
1.7237e-05
1.7595e-05
1.75989e-05
2.10963e-05
2.18483e-05
1.72361e-05
1.75972e-05
1.75993e-05
2.18504e-05
2.2048e-05
2.28069e-05
1.77224e-05
1.77249e-05
1.81229e-05
1.81245e-05
2.2046e-05
2.28072e-05
1.77224e-05
1.77232e-05
1.8122e-05
1.81257e-05
1.77251e-05
1.81228e-05
1.81258e-05
2.20468e-05
2.28104e-05
1.77258e-05
1.81244e-05
1.81268e-05
2.28091e-05
2.30174e-05
2.3849e-05
1.82679e-05
1.82693e-05
1.8741e-05
1.87412e-05
2.30191e-05
2.38518e-05
1.82666e-05
1.82732e-05
1.8742e-05
1.87446e-05
1.82702e-05
1.87414e-05
1.87394e-05
2.30232e-05
2.38553e-05
1.82708e-05
1.87416e-05
1.87382e-05
2.38487e-05
2.40763e-05
2.4914e-05
1.89107e-05
1.89076e-05
1.94313e-05
1.94262e-05
2.40754e-05
2.49041e-05
1.89097e-05
1.89107e-05
1.94315e-05
1.94311e-05
1.891e-05
1.94226e-05
1.94304e-05
2.40777e-05
2.49065e-05
1.89088e-05
1.94251e-05
1.94276e-05
2.49156e-05
2.51408e-05
2.59582e-05
1.96113e-05
1.96083e-05
2.01586e-05
2.01641e-05
2.51299e-05
2.59604e-05
1.96127e-05
1.96058e-05
2.01534e-05
2.01583e-05
1.96074e-05
2.01585e-05
2.01684e-05
2.51324e-05
2.59638e-05
1.96036e-05
2.01652e-05
2.01682e-05
2.5964e-05
2.6184e-05
2.70244e-05
2.03456e-05
2.03567e-05
2.09572e-05
2.09528e-05
2.61923e-05
2.70287e-05
2.03434e-05
2.03555e-05
2.09543e-05
2.09487e-05
2.03534e-05
2.09543e-05
2.09414e-05
2.61951e-05
2.70253e-05
2.03576e-05
2.09395e-05
2.09395e-05
2.70187e-05
2.72608e-05
2.81203e-05
2.11617e-05
2.11508e-05
2.17993e-05
2.18099e-05
2.72619e-05
2.81121e-05
2.11548e-05
2.11526e-05
2.18028e-05
2.1823e-05
2.11512e-05
2.18037e-05
2.18182e-05
2.72568e-05
2.81261e-05
2.11495e-05
2.18177e-05
2.18227e-05
2.81345e-05
2.83613e-05
2.91952e-05
2.20317e-05
2.20337e-05
2.27238e-05
2.2714e-05
2.83519e-05
2.91941e-05
2.20365e-05
2.20476e-05
2.2715e-05
2.27091e-05
2.20334e-05
2.27145e-05
2.27207e-05
2.83682e-05
2.9201e-05
2.2033e-05
2.27082e-05
2.2716e-05
2.9204e-05
2.94202e-05
3.02828e-05
2.29309e-05
2.29385e-05
2.36534e-05
2.36789e-05
2.94286e-05
3.03117e-05
2.29167e-05
2.29362e-05
2.36657e-05
2.3709e-05
2.29466e-05
2.36827e-05
2.36886e-05
2.94364e-05
3.03259e-05
2.29416e-05
2.37052e-05
2.36904e-05
3.03e-05
3.05421e-05
3.12855e-05
2.39575e-05
2.39558e-05
2.46132e-05
2.46006e-05
3.05592e-05
3.12456e-05
2.39677e-05
2.39687e-05
2.46037e-05
2.4545e-05
2.39185e-05
2.45803e-05
2.45821e-05
3.05649e-05
3.12123e-05
2.39228e-05
2.45546e-05
2.4585e-05
3.12288e-05
3.14579e-05
3.23285e-05
2.47614e-05
2.47633e-05
2.55692e-05
2.55597e-05
3.14279e-05
3.23032e-05
2.47514e-05
2.47376e-05
2.55919e-05
2.55989e-05
2.47896e-05
2.55703e-05
2.56113e-05
3.14046e-05
3.23337e-05
2.47917e-05
2.56001e-05
2.56061e-05
3.23642e-05
3.26526e-05
3.36432e-05
2.5932e-05
2.59126e-05
2.69067e-05
2.68607e-05
3.26071e-05
3.36385e-05
2.59566e-05
2.59064e-05
2.68558e-05
2.68305e-05
2.59667e-05
2.68686e-05
2.67811e-05
3.26238e-05
3.36369e-05
2.59683e-05
2.68256e-05
2.67442e-05
3.35114e-05
3.38116e-05
3.41433e-05
2.71508e-05
2.71137e-05
2.76867e-05
2.77253e-05
3.38349e-05
3.4212e-05
2.70868e-05
2.7164e-05
2.76981e-05
2.79016e-05
2.70312e-05
2.76937e-05
2.754e-05
3.38933e-05
3.44124e-05
2.69789e-05
2.78525e-05
2.75929e-05
3.41452e-05
3.4249e-05
3.46287e-05
2.77973e-05
2.78695e-05
2.80258e-05
2.8093e-05
3.43175e-05
3.4542e-05
2.78234e-05
2.80152e-05
2.8073e-05
2.81754e-05
2.76412e-05
2.80608e-05
2.86004e-05
3.44909e-05
3.44323e-05
2.77264e-05
2.81771e-05
2.86072e-05
3.52761e-05
3.50025e-05
3.71346e-05
2.83197e-05
2.82613e-05
3.04372e-05
3.02727e-05
3.47572e-05
3.701e-05
2.84096e-05
2.82201e-05
3.03072e-05
2.94641e-05
2.91248e-05
3.02996e-05
3.03586e-05
3.44955e-05
3.6449e-05
2.90757e-05
2.95101e-05
3.02478e-05
3.68721e-05
3.73305e-05
3.65464e-05
3.08067e-05
3.0697e-05
3.09423e-05
3.08282e-05
3.72738e-05
3.64016e-05
3.06705e-05
3.0442e-05
3.08669e-05
3.14129e-05
3.04773e-05
3.07965e-05
3.01225e-05
3.71711e-05
3.7939e-05
3.03837e-05
3.14012e-05
3.01452e-05
3.52469e-05
3.63672e-05
3.48454e-05
3.07011e-05
3.05319e-05
2.96418e-05
3.00584e-05
3.61532e-05
3.51649e-05
3.07179e-05
3.13579e-05
2.97123e-05
2.99874e-05
2.96522e-05
2.99864e-05
2.93317e-05
3.77797e-05
3.47165e-05
2.97205e-05
2.99338e-05
2.94109e-05
3.43238e-05
3.48757e-05
3.67889e-05
2.96052e-05
3.00734e-05
2.99768e-05
3.26822e-05
3.53245e-05
4.0588e-05
2.96632e-05
2.98813e-05
2.99633e-05
3.08646e-05
2.94236e-05
3.26671e-05
3.492e-05
3.46943e-05
3.9168e-05
2.94933e-05
3.08713e-05
3.47391e-05
4.33725e-05
3.77939e-05
4.59126e-05
3.09624e-05
3.45504e-05
3.86327e-05
3.70762e-05
4.1715e-05
4.36921e-05
3.07826e-05
3.35694e-05
3.86614e-05
3.91943e-05
3.702e-05
3.74842e-05
3.88152e-05
4.12402e-05
4.67179e-05
3.68514e-05
3.9629e-05
3.87928e-05
4.57601e-05
4.69656e-05
4.82991e-05
4.03225e-05
3.7149e-05
4.14916e-05
3.58252e-05
4.36556e-05
3.96924e-05
4.04722e-05
3.94819e-05
4.17452e-05
3.7766e-05
3.87093e-05
3.55649e-05
3.2842e-05
4.68422e-05
3.96016e-05
3.8714e-05
3.75426e-05
3.29471e-05
3.4764e-05
4.81912e-05
3.50564e-05
4.13844e-05
3.53287e-05
3.34555e-05
3.51009e-05
3.95128e-05
4.07669e-05
4.16247e-05
3.48e-05
3.33805e-05
3.07048e-05
3.13707e-05
3.45532e-05
3.07858e-05
3.79152e-05
3.37205e-05
3.13432e-05
3.06789e-05
3.06278e-05
3.63842e-05
3.3095e-05
3.00608e-05
3.00639e-05
3.52815e-05
2.77296e-05
3.54074e-05
4.13148e-05
4.17524e-05
2.99822e-05
3.05924e-05
2.76888e-05
3.28315e-05
3.14786e-05
3.61116e-05
3.91474e-05
3.41759e-05
4.19529e-05
3.12215e-05
3.40988e-05
3.87254e-05
4.62097e-05
3.25395e-05
4.94499e-05
2.83492e-05
3.54088e-05
4.11313e-05
3.59047e-05
4.1697e-05
4.08093e-05
2.83063e-05
3.61013e-05
4.15458e-05
4.25371e-05
4.08444e-05
3.64225e-05
4.25846e-05
4.36719e-05
4.89786e-05
4.05977e-05
4.28845e-05
4.28072e-05
4.86964e-05
5.02171e-05
4.67109e-05
4.30764e-05
3.6326e-05
4.35307e-05
3.6725e-05
4.08243e-05
4.06235e-05
4.36099e-05
4.31089e-05
4.4072e-05
4.20567e-05
4.25872e-05
3.66606e-05
3.81865e-05
4.91879e-05
4.36554e-05
4.28385e-05
4.17309e-05
3.86742e-05
4.02684e-05
4.50469e-05
3.95174e-05
4.19563e-05
3.68325e-05
3.71947e-05
3.92606e-05
4.07502e-05
4.47634e-05
4.23882e-05
3.93786e-05
3.70133e-05
3.55737e-05
3.61185e-05
3.88221e-05
3.45357e-05
4.21796e-05
3.86186e-05
3.62946e-05
3.54767e-05
3.43293e-05
3.82171e-05
3.96797e-05
4.4836e-05
3.70396e-05
4.0218e-05
3.89898e-05
4.18651e-05
4.5528e-05
4.70025e-05
3.68158e-05
3.55351e-05
3.86913e-05
3.84502e-05
3.46919e-05
4.19353e-05
3.87162e-05
3.90747e-05
4.44958e-05
3.44386e-05
3.85735e-05
3.83705e-05
4.41063e-05
4.54203e-05
4.569e-05
4.0265e-05
4.19786e-05
4.1578e-05
4.13791e-05
4.69972e-05
4.47867e-05
4.00931e-05
3.96171e-05
4.15593e-05
4.0595e-05
3.96026e-05
4.12916e-05
4.05392e-05
4.49242e-05
4.43868e-05
3.93883e-05
4.05436e-05
4.04865e-05
4.43849e-05
4.56912e-05
4.63988e-05
4.16505e-05
4.08641e-05
4.20058e-05
4.05256e-05
4.46289e-05
4.43054e-05
4.16353e-05
4.0643e-05
4.20181e-05
4.11117e-05
4.06947e-05
4.05367e-05
4.28252e-05
4.43784e-05
4.56194e-05
4.06445e-05
4.11326e-05
4.28417e-05
4.77993e-05
4.70978e-05
4.93964e-05
4.26356e-05
4.06026e-05
4.47291e-05
4.35193e-05
4.46671e-05
4.82858e-05
4.27072e-05
4.20725e-05
4.48818e-05
4.54445e-05
4.38316e-05
4.36116e-05
4.56006e-05
4.66501e-05
5.01329e-05
4.39157e-05
4.55246e-05
4.57374e-05
5.01786e-05
4.94751e-05
4.69294e-05
4.49046e-05
4.42518e-05
4.43027e-05
4.45628e-05
4.8631e-05
4.78222e-05
4.50429e-05
4.57575e-05
4.43613e-05
4.54995e-05
4.57108e-05
4.46054e-05
4.50762e-05
5.02592e-05
4.82147e-05
4.58368e-05
4.55462e-05
4.51229e-05
4.77087e-05
4.65506e-05
4.57889e-05
4.34808e-05
4.42363e-05
4.26442e-05
4.32191e-05
4.75253e-05
4.64213e-05
4.35059e-05
4.45985e-05
4.26344e-05
4.2946e-05
4.41125e-05
4.32414e-05
4.27238e-05
4.77513e-05
4.6153e-05
4.41305e-05
4.29711e-05
4.27119e-05
4.59682e-05
4.6067e-05
4.84389e-05
4.26479e-05
4.31962e-05
4.41034e-05
4.39088e-05
4.65243e-05
4.81612e-05
4.26364e-05
4.2869e-05
4.40579e-05
4.32321e-05
4.26573e-05
4.38498e-05
4.29803e-05
4.62001e-05
4.74964e-05
4.26419e-05
4.31989e-05
4.29449e-05
4.71772e-05
4.88662e-05
4.94183e-05
4.48559e-05
4.46652e-05
4.59436e-05
4.59338e-05
4.86247e-05
4.94188e-05
4.48104e-05
4.40232e-05
4.59164e-05
4.56585e-05
4.37044e-05
4.58644e-05
4.54772e-05
4.79973e-05
4.91838e-05
4.36568e-05
4.55846e-05
4.54479e-05
4.90541e-05
4.9418e-05
4.90267e-05
4.60109e-05
4.60467e-05
4.59687e-05
4.60704e-05
4.94463e-05
4.91834e-05
4.59885e-05
4.58649e-05
4.59618e-05
4.60756e-05
4.57871e-05
4.60785e-05
4.62168e-05
4.92566e-05
4.92323e-05
4.57603e-05
4.60882e-05
4.6193e-05
4.94413e-05
4.90383e-05
4.92017e-05
4.5951e-05
4.60577e-05
4.59648e-05
4.60624e-05
4.91954e-05
4.9264e-05
4.59477e-05
4.60933e-05
4.59666e-05
4.61646e-05
4.62802e-05
4.60904e-05
4.64428e-05
4.92531e-05
4.94426e-05
4.62663e-05
4.62001e-05
4.64753e-05
4.96889e-05
4.93632e-05
5.01807e-05
4.60542e-05
4.6114e-05
4.69786e-05
4.69076e-05
4.93842e-05
5.00827e-05
4.60666e-05
4.62889e-05
4.69932e-05
4.69857e-05
4.65314e-05
4.6916e-05
4.68949e-05
4.95853e-05
5.00959e-05
4.65683e-05
4.69935e-05
4.69057e-05
4.99676e-05
5.0295e-05
5.04276e-05
4.72053e-05
4.71193e-05
4.75085e-05
4.7411e-05
5.01931e-05
5.03515e-05
4.72111e-05
4.71293e-05
4.74976e-05
4.73328e-05
4.7006e-05
4.73806e-05
4.72959e-05
5.01687e-05
5.02731e-05
4.70058e-05
4.73029e-05
4.72825e-05
5.02552e-05
5.04566e-05
5.0638e-05
4.75323e-05
4.74778e-05
4.77677e-05
4.78434e-05
5.04074e-05
5.07311e-05
4.75207e-05
4.74133e-05
4.77664e-05
4.78488e-05
4.7423e-05
4.7861e-05
4.79073e-05
5.0336e-05
5.07528e-05
4.74112e-05
4.78675e-05
4.7906e-05
5.08007e-05
5.07621e-05
5.11502e-05
4.79264e-05
4.7989e-05
4.83518e-05
4.8328e-05
5.08442e-05
5.11053e-05
4.79286e-05
4.80071e-05
4.83554e-05
4.83419e-05
4.80515e-05
4.83334e-05
4.83475e-05
5.08714e-05
5.11159e-05
4.80532e-05
4.83501e-05
4.83514e-05
5.11149e-05
5.12343e-05
5.15318e-05
4.84714e-05
4.84291e-05
4.885e-05
4.88212e-05
5.11764e-05
5.15033e-05
4.84735e-05
4.84334e-05
4.88473e-05
4.88114e-05
4.84393e-05
4.88144e-05
4.88164e-05
5.11815e-05
5.14931e-05
4.84418e-05
4.88057e-05
4.88141e-05
5.15051e-05
5.16226e-05
5.18357e-05
4.89713e-05
4.89614e-05
4.92574e-05
4.92802e-05
5.16096e-05
5.1867e-05
4.89683e-05
4.89562e-05
4.92573e-05
4.93003e-05
4.8955e-05
4.92818e-05
4.93056e-05
5.16044e-05
5.18943e-05
4.89521e-05
4.93041e-05
4.93059e-05
5.18989e-05
5.18986e-05
5.21276e-05
4.93404e-05
4.93638e-05
4.9624e-05
4.96561e-05
5.19312e-05
5.21591e-05
4.93432e-05
4.93903e-05
4.96275e-05
4.96536e-05
4.94057e-05
4.96682e-05
4.96629e-05
5.19594e-05
5.21442e-05
4.94086e-05
4.96672e-05
4.96665e-05
5.21462e-05
5.22114e-05
5.24755e-05
4.97302e-05
4.97611e-05
5.0046e-05
5.00111e-05
5.22401e-05
5.24291e-05
4.97297e-05
4.97329e-05
5.00363e-05
4.99663e-05
4.97288e-05
4.99976e-05
4.9947e-05
5.22075e-05
5.23904e-05
4.97282e-05
4.9955e-05
4.9938e-05
5.23672e-05
5.25454e-05
5.27025e-05
5.0139e-05
5.00809e-05
5.03511e-05
5.0344e-05
5.24847e-05
5.27007e-05
5.01322e-05
5.00659e-05
5.03587e-05
5.03957e-05
5.00523e-05
5.03462e-05
5.04001e-05
5.24646e-05
5.27578e-05
5.00464e-05
5.03976e-05
5.04068e-05
5.27729e-05
5.27515e-05
5.29295e-05
5.0411e-05
5.04459e-05
5.06472e-05
5.07014e-05
5.27845e-05
5.29882e-05
5.04197e-05
5.04846e-05
5.06431e-05
5.06648e-05
5.04946e-05
5.07134e-05
5.0689e-05
5.28256e-05
5.29515e-05
5.0502e-05
5.068e-05
5.06859e-05
5.29615e-05
5.30076e-05
5.32239e-05
5.07446e-05
5.07636e-05
5.0995e-05
5.0936e-05
5.30358e-05
5.31534e-05
5.07373e-05
5.07211e-05
5.09942e-05
5.09544e-05
5.07421e-05
5.09271e-05
5.09363e-05
5.29962e-05
5.31781e-05
5.07355e-05
5.09462e-05
5.0936e-05
5.31627e-05
5.32742e-05
5.33955e-05
5.10548e-05
5.10069e-05
5.12253e-05
5.12531e-05
5.32106e-05
5.34338e-05
5.10587e-05
5.1041e-05
5.12283e-05
5.12531e-05
5.1015e-05
5.12562e-05
5.12562e-05
5.32511e-05
5.3426e-05
5.10192e-05
5.12578e-05
5.12593e-05
5.34344e-05
5.34494e-05
5.36103e-05
5.1295e-05
5.13304e-05
5.14999e-05
5.15005e-05
5.34933e-05
5.36085e-05
5.1294e-05
5.13108e-05
5.14959e-05
5.14897e-05
5.13305e-05
5.15051e-05
5.15127e-05
5.34741e-05
5.36015e-05
5.13296e-05
5.14959e-05
5.15089e-05
5.36156e-05
5.36566e-05
5.37582e-05
5.15529e-05
5.15407e-05
5.16842e-05
5.16778e-05
5.36448e-05
5.37482e-05
5.15523e-05
5.15489e-05
5.16877e-05
5.16862e-05
5.15582e-05
5.16775e-05
5.1671e-05
5.36491e-05
5.37568e-05
5.15574e-05
5.16874e-05
5.16746e-05
5.37428e-05
5.38055e-05
5.39755e-05
5.17388e-05
5.17418e-05
5.19378e-05
5.19466e-05
5.38043e-05
5.39847e-05
5.17399e-05
5.17315e-05
5.19331e-05
5.19291e-05
5.17221e-05
5.19463e-05
5.19338e-05
5.38e-05
5.39716e-05
5.17233e-05
5.19292e-05
5.19292e-05
5.39757e-05
5.40265e-05
5.41143e-05
5.20032e-05
5.20086e-05
5.21385e-05
5.21332e-05
5.40311e-05
5.41092e-05
5.20003e-05
5.20052e-05
5.21427e-05
5.21576e-05
5.20071e-05
5.21365e-05
5.21588e-05
5.40315e-05
5.413e-05
5.20042e-05
5.21629e-05
5.21632e-05
5.41339e-05
5.41412e-05
5.41827e-05
5.21625e-05
5.2157e-05
5.22295e-05
5.22337e-05
5.41363e-05
5.41875e-05
5.21669e-05
5.21744e-05
5.22269e-05
5.22044e-05
5.2185e-05
5.22379e-05
5.22385e-05
5.41524e-05
5.41587e-05
5.21895e-05
5.22098e-05
5.22356e-05
5.41875e-05
5.42166e-05
5.43229e-05
5.22652e-05
5.22725e-05
5.23893e-05
5.2391e-05
5.42241e-05
5.43218e-05
5.22609e-05
5.22411e-05
5.23888e-05
5.23999e-05
5.22626e-05
5.23886e-05
5.23665e-05
5.41941e-05
5.43374e-05
5.22583e-05
5.23991e-05
5.23659e-05
5.42989e-05
5.43628e-05
5.44528e-05
5.24299e-05
5.24277e-05
5.25503e-05
5.25472e-05
5.43584e-05
5.44492e-05
5.24318e-05
5.2447e-05
5.25542e-05
5.256e-05
5.24112e-05
5.25494e-05
5.25623e-05
5.43809e-05
5.44588e-05
5.24132e-05
5.25632e-05
5.25661e-05
5.44661e-05
5.44865e-05
5.45292e-05
5.25916e-05
5.25899e-05
5.26648e-05
5.26649e-05
5.44846e-05
5.45302e-05
5.25941e-05
5.25936e-05
5.26632e-05
5.26491e-05
5.26073e-05
5.26693e-05
5.2679e-05
5.4488e-05
5.4516e-05
5.26097e-05
5.26552e-05
5.26775e-05
5.45427e-05
5.45477e-05
5.45601e-05
5.26746e-05
5.26735e-05
5.2702e-05
5.27008e-05
5.45482e-05
5.45583e-05
5.26719e-05
5.26564e-05
5.27007e-05
5.26984e-05
5.26836e-05
5.27009e-05
5.26953e-05
5.4533e-05
5.45583e-05
5.26815e-05
5.26997e-05
5.26936e-05
5.45512e-05
5.45848e-05
5.46233e-05
5.27241e-05
5.27245e-05
5.27811e-05
5.27875e-05
5.45842e-05
5.46296e-05
5.27244e-05
5.27282e-05
5.27837e-05
5.27953e-05
5.27201e-05
5.279e-05
5.2787e-05
5.45875e-05
5.4636e-05
5.27199e-05
5.2799e-05
5.27892e-05
5.46279e-05
5.46465e-05
5.4671e-05
5.28e-05
5.2806e-05
5.28473e-05
5.2854e-05
5.46533e-05
5.46759e-05
5.28021e-05
5.28099e-05
5.28465e-05
5.28488e-05
5.28041e-05
5.2855e-05
5.28473e-05
5.46574e-05
5.46726e-05
5.28059e-05
5.2851e-05
5.28466e-05
5.46704e-05
5.46898e-05
5.46986e-05
5.28593e-05
5.28647e-05
5.28804e-05
5.28721e-05
5.46937e-05
5.46877e-05
5.2859e-05
5.28613e-05
5.28808e-05
5.28715e-05
5.28611e-05
5.28737e-05
5.28785e-05
5.46905e-05
5.46885e-05
5.28607e-05
5.2875e-05
5.28789e-05
5.46959e-05
5.47182e-05
5.47331e-05
5.28939e-05
5.2878e-05
5.29209e-05
5.29175e-05
5.47036e-05
5.4725e-05
5.28938e-05
5.28757e-05
5.29207e-05
5.29146e-05
5.28894e-05
5.29187e-05
5.2923e-05
5.47035e-05
5.47224e-05
5.28895e-05
5.29165e-05
5.29228e-05
5.47319e-05
5.47491e-05
5.46799e-05
5.29224e-05
5.29242e-05
5.28971e-05
5.29135e-05
5.47427e-05
5.47017e-05
5.29226e-05
5.29237e-05
5.28986e-05
5.29177e-05
5.29279e-05
5.29172e-05
5.29137e-05
5.47409e-05
5.47087e-05
5.2928e-05
5.29228e-05
5.29147e-05
5.46982e-05
5.46883e-05
5.47395e-05
5.28871e-05
5.29029e-05
5.29132e-05
5.29114e-05
5.47106e-05
5.47324e-05
5.28882e-05
5.29063e-05
5.29119e-05
5.29054e-05
5.2902e-05
5.29139e-05
5.29103e-05
5.47172e-05
5.47207e-05
5.29027e-05
5.29089e-05
5.29097e-05
5.47288e-05
5.47846e-05
5.47831e-05
5.29553e-05
5.29434e-05
5.29766e-05
5.29607e-05
5.47685e-05
5.47596e-05
5.2954e-05
5.29338e-05
5.29762e-05
5.29581e-05
5.2945e-05
5.29605e-05
5.29666e-05
5.47565e-05
5.47681e-05
5.29438e-05
5.29588e-05
5.29661e-05
5.47748e-05
5.4771e-05
5.44058e-05
5.29577e-05
5.29449e-05
5.26863e-05
5.27028e-05
5.4752e-05
5.44328e-05
5.29584e-05
5.29471e-05
5.26889e-05
5.27098e-05
5.29525e-05
5.27075e-05
5.27055e-05
5.47644e-05
5.44372e-05
5.29526e-05
5.27156e-05
5.27074e-05
5.44297e-05
5.44095e-05
5.45641e-05
5.26486e-05
5.26674e-05
5.26709e-05
5.26859e-05
5.44373e-05
5.45781e-05
5.265e-05
5.26679e-05
5.2669e-05
5.26725e-05
5.26661e-05
5.26899e-05
5.26754e-05
5.44404e-05
5.45513e-05
5.26672e-05
5.26771e-05
5.26743e-05
5.4555e-05
5.4671e-05
5.48407e-05
5.27893e-05
5.27915e-05
5.29757e-05
5.29562e-05
5.46731e-05
5.48086e-05
5.27841e-05
5.27665e-05
5.29752e-05
5.29552e-05
5.2774e-05
5.29543e-05
5.29606e-05
5.46472e-05
5.48125e-05
5.27703e-05
5.29551e-05
5.29603e-05
5.48169e-05
5.48476e-05
5.44583e-05
5.29811e-05
5.29605e-05
5.27712e-05
5.2767e-05
5.48138e-05
5.44674e-05
5.29812e-05
5.29625e-05
5.27772e-05
5.27894e-05
5.29682e-05
5.27724e-05
5.28033e-05
5.48214e-05
5.44851e-05
5.29684e-05
5.27958e-05
5.28075e-05
5.44986e-05
5.44404e-05
5.42823e-05
5.26801e-05
5.26926e-05
5.24799e-05
5.24995e-05
5.44557e-05
5.43056e-05
5.26844e-05
5.27065e-05
5.24802e-05
5.24948e-05
5.27156e-05
5.25046e-05
5.24882e-05
5.44691e-05
5.42973e-05
5.27189e-05
5.25003e-05
5.24884e-05
5.42861e-05
5.42906e-05
5.41645e-05
5.24564e-05
5.24671e-05
5.23193e-05
5.2317e-05
5.43123e-05
5.41564e-05
5.24555e-05
5.24574e-05
5.23181e-05
5.23003e-05
5.24503e-05
5.23169e-05
5.22977e-05
5.43032e-05
5.41416e-05
5.24496e-05
5.23014e-05
5.22969e-05
5.4139e-05
5.40407e-05
5.13976e-05
5.13896e-05
5.40291e-05
5.13968e-05
5.13729e-05
4.17471e-05
4.17326e-05
4.17375e-05
5.13773e-05
5.40141e-05
5.13767e-05
3.73773e-05
3.73765e-05
3.7377e-05
3.7377e-05
3.73701e-05
3.73777e-05
3.73043e-05
3.73768e-05
3.73702e-05
3.73777e-05
3.73768e-05
3.73043e-05
3.73741e-05
3.72959e-05
3.72959e-05
3.58798e-05
4.08721e-05
3.66033e-05
4.51467e-05
5.51147e-05
6.48951e-05
3.58803e-05
4.08713e-05
3.66034e-05
4.51464e-05
3.58932e-05
3.58933e-05
3.58932e-05
3.44005e-05
3.44005e-05
3.44005e-05
3.44005e-05
3.52758e-05
3.56384e-05
3.58929e-05
3.53771e-05
3.60475e-05
3.42365e-05
3.53822e-05
5.51168e-05
6.48994e-05
3.52758e-05
3.58929e-05
3.5638e-05
3.53771e-05
3.60475e-05
3.53822e-05
3.42375e-05
3.65971e-05
3.65977e-05
3.5279e-05
3.40641e-05
3.40633e-05
3.39657e-05
5.13534e-05
3.46793e-05
5.46247e-05
7.65448e-05
8.08614e-05
3.39682e-05
5.13545e-05
3.46789e-05
5.46253e-05
3.39296e-05
3.39297e-05
3.39297e-05
3.25855e-05
3.25854e-05