/*--------------------------------*- C++ -*----------------------------------*\
| =========                 |                                                 |
| \\      /  F ield         | OpenFOAM: The Open Source CFD Toolbox           |
|  \\    /   O peration     | Version:  v2012                                 |
|   \\  /    A nd           | Website:  www.openfoam.com                      |
|    \\/     M anipulation  |                                                 |
\*---------------------------------------------------------------------------*/
FoamFile
{
    version     2.0;
    format      ascii;
    class       volScalarField;
    location    "1000";
    object      nut;
}
// * * * * * * * * * * * * * * * * * * * * * * * * * * * * * * * * * * * * * //

dimensions      [0 2 -1 0 0 0 0];


internalField   nonuniform List<scalar> 
171728
(
0.000233973
0.000233116
0.000233116
0.000233423
0.000232532
0.000227802
0.000227801
0.000223866
0.000230516
0.00022032
0.000220318
0.000209109
0.000227799
0.000211665
0.000211661
0.000193785
0.000224433
0.00020265
0.000202644
0.000179709
0.000220552
0.000193772
0.000193765
0.000167339
0.000216304
0.000185275
0.000185267
0.000156587
0.00021182
0.000177234
0.000177226
0.000147206
0.000207207
0.000169688
0.00016968
0.00013895
0.000202545
0.000162611
0.000162603
0.000131615
0.000197889
0.000155949
0.000155941
0.000124953
0.000193275
0.000149647
0.000149638
0.000118817
0.000188683
0.000143665
0.000143656
0.000113168
0.00018415
0.000137951
0.000137943
0.000107931
0.000179705
0.000132461
0.000132453
0.000103056
0.000175338
0.000127188
0.000127179
9.8435e-05
0.000171036
0.000122152
0.000122142
9.42515e-05
0.000166784
0.000117371
0.00011736
9.06625e-05
0.000162586
0.000112887
0.000112876
8.77273e-05
0.000158414
0.000108757
0.000108747
8.53848e-05
0.000154263
0.000105026
0.000105015
8.36691e-05
0.000150141
0.000101712
0.000101704
8.25822e-05
0.00014606
9.88896e-05
9.88788e-05
8.20832e-05
0.00014204
9.65777e-05
9.65702e-05
8.21435e-05
0.000138111
9.48033e-05
9.4792e-05
8.26964e-05
0.000134273
9.34939e-05
9.34859e-05
8.36084e-05
0.000130663
9.28114e-05
9.28061e-05
8.51178e-05
0.000127138
9.24241e-05
9.24386e-05
8.66376e-05
0.00012388
9.26643e-05
9.26521e-05
8.8637e-05
0.000120964
9.32958e-05
9.32516e-05
9.087e-05
0.000118166
9.42201e-05
9.42983e-05
9.31277e-05
0.000115815
9.55078e-05
9.53858e-05
9.54044e-05
0.000113593
9.71908e-05
9.73115e-05
9.81607e-05
0.000112089
9.91162e-05
9.90353e-05
0.000100686
0.00011063
0.000101762
0.000101912
0.00010369
0.000109911
0.000103353
0.000103143
0.000105698
0.000108493
0.000106147
0.000106328
0.00010889
0.000109976
0.000110317
0.000110095
0.00011246
0.000110553
0.000113143
0.000113617
0.000113528
0.000104916
0.000109566
0.000112654
0.000116597
0.000112336
0.000121671
0.000117803
0.000123727
0.000115544
0.000122848
0.000128413
0.000118548
0.000108137
0.00011571
0.000118055
0.000103841
9.36684e-05
0.000128286
0.000116072
0.000142867
0.000131596
0.0001501
0.000158818
0.00017027
0.000161088
0.0001362
0.000147093
0.000113351
0.000138195
0.000130852
0.000113291
0.000112455
8.06287e-05
0.000140349
0.000131168
0.000152689
0.000122581
0.000138383
0.000169563
0.00017331
0.00017969
0.000135149
0.000162369
0.000133687
0.000138767
0.000149123
0.000128281
0.000119376
0.000120464
0.00016327
0.000147858
0.000146935
0.000145526
0.000157732
0.000155321
0.000143822
0.00014636
0.000147901
0.000152835
0.000157181
0.0001607
0.000166868
0.000175749
0.000169372
0.000164753
0.000172449
0.000176159
0.0001599
0.000150656
0.000163616
0.000162553
0.00015053
0.000145833
0.000166184
0.000162313
0.000155047
0.000164237
0.000175518
0.000174082
0.000163085
0.000168151
0.000175937
0.000175657
0.000164531
0.000165226
0.000173995
0.000175274
0.00016549
0.000169085
0.000179134
0.000179476
0.000166515
0.000174989
0.000180684
0.000180215
0.000167482
0.000176488
0.000183084
0.000183123
0.000169968
0.000180143
0.000184996
0.000185071
0.000171071
0.000183928
0.000187396
0.000187316
0.000172756
0.000187265
0.000189471
0.000189622
0.000174432
0.000190103
0.000191459
0.00019142
0.000175503
0.000193446
0.000192919
0.000192664
0.000176348
0.000196304
0.000194759
0.000195079
0.000178252
0.00019875
0.000196672
0.000196396
0.000179083
0.000201907
0.000197705
0.000197873
0.000180003
0.000204265
0.000199583
0.000199531
0.000181275
0.000206926
0.000200952
0.000200933
0.000182199
0.000209103
0.000201943
0.000201953
0.000182763
0.00021148
0.000203575
0.00020348
0.000183935
0.000214083
0.000204737
0.000204887
0.000184789
0.000215624
0.000205507
0.00020533
0.000185211
0.000217519
0.000206519
0.000206584
0.000185763
0.000219619
0.000207712
0.000207768
0.000186663
0.000221643
0.000208599
0.000208493
0.000187263
0.000222867
0.000209113
0.000209107
0.000187465
0.000224393
0.000209885
0.000209931
0.000187963
0.00022591
0.000210647
0.000210614
0.000188388
0.000227235
0.000211026
0.000211023
0.000188673
0.000228601
0.000211738
0.000211701
0.000189109
0.00022949
0.000212089
0.000212137
0.000189199
0.000230521
0.000212414
0.000212353
0.000189351
0.000232241
0.000213613
0.000213555
0.000190343
0.000231965
0.000212279
0.00021233
0.000188835
0.000231279
0.000212524
0.000212327
0.000189249
0.000234719
0.000214424
0.000214357
0.000190925
0.000236007
0.000213984
0.000214101
0.000189942
0.000234246
0.000212792
0.000212753
0.000189069
0.000235955
0.000214327
0.00021422
0.000192703
0.000234266
0.000234448
0.000234449
0.000234267
0.000234448
0.000234449
0.000234274
0.000234274
0.000234274
0.000234274
0.000234448
0.000234448
0.000234266
0.000234448
0.000234448
0.000234266
0.000233423
0.000226204
0.000233116
0.000233114
0.000229361
0.000229357
0.000233423
0.000226205
0.000233114
0.000233114
0.000229359
0.000229356
0.000233116
0.000229364
0.000229361
0.000233423
0.000226202
0.000233114
0.000229363
0.000229359
0.000226202
0.000223867
0.00021223
0.000227799
0.000227794
0.000222332
0.000222326
0.000223868
0.000212234
0.000227797
0.000227792
0.000222332
0.000222323
0.000227798
0.000222339
0.000222331
0.000223866
0.000212227
0.000227797
0.000222336
0.000222331
0.000212228
0.000209111
0.000197061
0.000220313
0.000220307
0.000213879
0.000213874
0.000209112
0.000197066
0.000220314
0.000220304
0.000213883
0.000213869
0.000220311
0.00021389
0.000213877
0.000209107
0.000197057
0.000220313
0.000213886
0.000213882
0.000197058
0.000193788
0.000182876
0.000211654
0.000211648
0.00020489
0.000204884
0.000193792
0.000182883
0.000211658
0.000211643
0.000204898
0.000204879
0.000211651
0.000204905
0.000204887
0.000193784
0.000182872
0.000211657
0.000204899
0.000204896
0.000182872
0.000179713
0.000170268
0.000202634
0.000202628
0.000195943
0.000195937
0.000179717
0.000170274
0.000202643
0.000202622
0.000195954
0.000195931
0.000202631
0.000195962
0.00019594
0.000179708
0.000170263
0.000202641
0.000195955
0.000195953
0.000170264
0.000167344
0.000159242
0.000193753
0.000193747
0.000187336
0.000187331
0.000167349
0.000159249
0.000193765
0.00019374
0.000187351
0.000187324
0.00019375
0.000187359
0.000187333
0.000167339
0.000159238
0.000193764
0.000187351
0.00018735
0.000159238
0.000156592
0.000149614
0.000185253
0.000185247
0.000179173
0.000179168
0.000156597
0.00014962
0.000185268
0.00018524
0.000179191
0.00017916
0.000185249
0.000179198
0.00017917
0.000156587
0.000149608
0.000185267
0.00017919
0.00017919
0.000149608
0.000147212
0.000141107
0.000177208
0.000177203
0.000171501
0.000171496
0.000147217
0.000141113
0.000177227
0.000177195
0.000171521
0.000171488
0.000177205
0.000171529
0.000171498
0.000147206
0.000141101
0.000177225
0.00017152
0.000171521
0.000141101
0.000138956
0.000133547
0.00016966
0.000169655
0.000164309
0.000164304
0.000138961
0.000133554
0.000169681
0.000169647
0.000164332
0.000164296
0.000169657
0.000164339
0.000164307
0.00013895
0.000133541
0.00016968
0.000164331
0.000164332
0.000133541
0.000131621
0.000126686
0.000162581
0.000162576
0.000157547
0.000157541
0.000131627
0.000126693
0.000162605
0.000162567
0.000157572
0.000157533
0.000162578
0.000157579
0.000157545
0.000131615
0.00012668
0.000162604
0.00015757
0.000157571
0.000126679
0.00012496
0.000120362
0.000155916
0.000155912
0.000151157
0.000151152
0.000124966
0.000120369
0.000155942
0.000155903
0.000151184
0.000151144
0.000155915
0.000151192
0.000151157
0.000124954
0.000120355
0.000155942
0.000151183
0.000151184
0.000120355
0.000118823
0.000114426
0.000149612
0.000149607
0.000145096
0.000145091
0.000118827
0.000114433
0.000149639
0.000149599
0.000145125
0.000145083
0.000149611
0.000145132
0.000145096
0.000118816
0.000114419
0.000149639
0.000145123
0.000145124
0.000114417
0.000113175
0.000108834
0.00014363
0.000143623
0.000139318
0.000139313
0.00011318
0.000108841
0.000143657
0.000143615
0.000139347
0.000139305
0.000143628
0.000139356
0.000139319
0.000113168
0.000108827
0.000143657
0.000139347
0.000139348
0.000108827
0.000107938
0.000103701
0.000137916
0.000137908
0.000133776
0.00013377
0.000107944
0.000103708
0.000137944
0.000137901
0.000133805
0.000133762
0.000137914
0.000133814
0.000133777
0.000107932
0.000103695
0.000137944
0.000133805
0.000133807
0.000103694
0.000103062
9.91267e-05
0.000132424
0.000132417
0.000128447
0.00012844
0.000103068
9.91327e-05
0.000132452
0.000132409
0.000128475
0.000128432
0.000132423
0.000128486
0.000128448
0.000103056
9.91207e-05
0.000132452
0.000128477
0.000128477
9.91197e-05
9.84414e-05
9.49891e-05
0.00012715
0.000127142
0.000123344
0.000123337
9.84473e-05
9.49961e-05
0.000127177
0.000127135
0.00012337
0.000123328
0.000127152
0.000123384
0.000123346
9.84361e-05
9.49844e-05
0.000127181
0.000123373
0.000123374
9.49821e-05
9.42586e-05
9.14381e-05
0.000122112
0.000122104
0.000118478
0.000118471
9.42645e-05
9.14429e-05
0.000122138
0.000122096
0.000118503
0.000118462
0.000122113
0.000118518
0.000118482
9.42534e-05
9.14319e-05
0.000122141
0.000118508
0.000118509
9.14335e-05
9.06656e-05
8.83738e-05
0.000117331
0.000117324
0.000113921
0.000113917
9.06718e-05
8.83802e-05
0.000117356
0.000117315
0.000113945
0.000113906
0.000117334
0.000113962
0.000113925
9.0662e-05
8.83707e-05
0.000117361
0.000113952
0.000113951
8.83703e-05
8.77319e-05
8.59081e-05
0.000112847
0.00011284
0.00010969
0.000109685
8.77401e-05
8.5913e-05
0.00011287
0.00011283
0.000109714
0.000109674
0.00011285
0.00010973
0.000109695
8.77313e-05
8.59026e-05
0.000112876
0.000109719
0.000109719
8.59043e-05
8.53888e-05
8.40684e-05
0.000108718
0.000108711
0.000105846
0.00010584
8.53934e-05
8.40748e-05
0.000108739
0.000108701
0.000105868
0.000105831
0.000108723
0.000105886
0.000105852
8.53833e-05
8.40658e-05
0.000108746
0.000105876
0.000105876
8.40664e-05
8.36692e-05
8.28637e-05
0.000104987
0.000104979
0.000102458
0.000102446
8.36748e-05
8.28648e-05
0.000105008
0.000104969
0.000102476
0.000102439
0.000104992
0.000102491
0.00010246
8.36657e-05
8.28566e-05
0.000105015
0.000102481
0.00010248
8.28575e-05
8.25852e-05
8.22457e-05
0.000101678
0.000101666
9.95115e-05
9.94993e-05
8.25874e-05
8.22514e-05
0.000101695
0.000101659
9.95289e-05
9.94906e-05
0.000101681
9.95456e-05
9.95173e-05
8.25818e-05
8.22435e-05
0.000101703
9.95353e-05
9.95371e-05
8.22462e-05
8.20845e-05
8.21975e-05
9.88548e-05
9.88433e-05
9.70732e-05
9.70633e-05
8.20898e-05
8.22e-05
9.88731e-05
9.88335e-05
9.70882e-05
9.70571e-05
9.88612e-05
9.71031e-05
9.70775e-05
8.20819e-05
8.21967e-05
9.88808e-05
9.70967e-05
9.70971e-05
8.21945e-05
8.21484e-05
8.26598e-05
9.65522e-05
9.65372e-05
9.5173e-05
9.5162e-05
8.21501e-05
8.26599e-05
9.65696e-05
9.65314e-05
9.5188e-05
9.51565e-05
9.65499e-05
9.52089e-05
9.51786e-05
8.21491e-05
8.26541e-05
9.65695e-05
9.52038e-05
9.51946e-05
8.26579e-05
8.26957e-05
8.34745e-05
9.47699e-05
9.476e-05
9.37246e-05
9.37095e-05
8.26981e-05
8.34791e-05
9.47774e-05
9.47466e-05
9.37343e-05
9.37159e-05
9.4774e-05
9.37484e-05
9.37246e-05
8.26907e-05
8.34777e-05
9.4796e-05
9.37395e-05
9.37396e-05
8.34798e-05
8.36145e-05
8.49008e-05
9.34685e-05
9.3452e-05
9.29243e-05
9.29177e-05
8.36205e-05
8.48996e-05
9.34808e-05
9.34535e-05
9.29345e-05
9.29131e-05
9.34603e-05
9.29496e-05
9.29338e-05
8.36221e-05
8.48983e-05
9.34667e-05
9.29604e-05
9.29452e-05
8.48926e-05
8.51149e-05
8.63937e-05
9.27852e-05
9.27917e-05
9.24588e-05
9.24371e-05
8.511e-05
8.63802e-05
9.27988e-05
9.27694e-05
9.24683e-05
9.24283e-05
9.2803e-05
9.24762e-05
9.24807e-05
8.51049e-05
8.63746e-05
9.28167e-05
9.24634e-05
9.25027e-05
8.63993e-05
8.66362e-05
8.82966e-05
9.24015e-05
9.23848e-05
9.25028e-05
9.25128e-05
8.66287e-05
8.8343e-05
9.24048e-05
9.24004e-05
9.25245e-05
9.25142e-05
9.24255e-05
9.25519e-05
9.24887e-05
8.6631e-05
8.83539e-05
9.24455e-05
9.25486e-05
9.24947e-05
8.82838e-05
8.86565e-05
9.05055e-05
9.26353e-05
9.2608e-05
9.31012e-05
9.30461e-05
8.86831e-05
9.04818e-05
9.26378e-05
9.26142e-05
9.31204e-05
9.31077e-05
9.26267e-05
9.30809e-05
9.30927e-05
8.8689e-05
9.04745e-05
9.26337e-05
9.30833e-05
9.30962e-05
9.05184e-05
9.0883e-05
9.27145e-05
9.33165e-05
9.32691e-05
9.39408e-05
9.39329e-05
9.08462e-05
9.26935e-05
9.33515e-05
9.32651e-05
9.3913e-05
9.38849e-05
9.32708e-05
9.39417e-05
9.40301e-05
9.084e-05
9.27045e-05
9.32585e-05
9.39897e-05
9.40254e-05
9.27399e-05
9.30802e-05
9.50427e-05
9.4153e-05
9.42217e-05
9.52085e-05
9.51717e-05
9.30992e-05
9.50801e-05
9.41563e-05
9.42014e-05
9.52162e-05
9.50963e-05
9.42648e-05
9.52284e-05
9.50539e-05
9.31151e-05
9.50421e-05
9.43068e-05
9.50841e-05
9.5049e-05
9.49883e-05
9.54717e-05
9.75834e-05
9.55488e-05
9.54419e-05
9.65942e-05
9.67077e-05
9.54939e-05
9.75878e-05
9.55086e-05
9.53896e-05
9.66319e-05
9.67971e-05
9.53984e-05
9.67087e-05
9.68024e-05
9.54346e-05
9.76339e-05
9.53899e-05
9.67895e-05
9.68676e-05
9.76863e-05
9.80796e-05
0.000100306
9.71288e-05
9.71882e-05
9.88597e-05
9.86808e-05
9.80695e-05
0.000100212
9.71958e-05
9.73019e-05
9.88278e-05
9.85939e-05
9.71946e-05
9.87328e-05
9.8682e-05
9.81356e-05
0.000100193
9.72365e-05
9.86317e-05
9.86742e-05
0.000100213
0.000100672
0.000102897
9.91549e-05
9.91056e-05
0.000100491
0.00010071
0.000100633
0.000103124
9.90464e-05
9.90059e-05
0.000100593
0.000101006
9.90957e-05
0.000100816
0.000101047
0.00010062
0.000103251
9.90894e-05
0.000101012
0.000101048
0.000103185
0.000103602
0.00010581
0.000101629
0.000101669
0.000103597
0.000103487
0.000103773
0.000105639
0.000101738
0.000101926
0.000103535
0.000103003
0.000101647
0.000103358
0.000103157
0.000103865
0.000105404
0.000101688
0.000103093
0.000103192
0.000105388
0.000105925
0.000107673
0.000103439
0.000103415
0.000104853
0.000104872
0.000105808
0.000107681
0.000103351
0.000103048
0.000104998
0.000105322
0.000103459
0.000104954
0.000105192
0.000105596
0.000107916
0.000103489
0.000105342
0.000105171
0.000108075
0.000108618
0.00011263
0.000106118
0.000106103
0.0001097
0.000109438
0.000108493
0.000112463
0.000106364
0.000106279
0.000109525
0.000108827
0.000106497
0.000109584
0.000109247
0.000108679
0.00011203
0.000106572
0.000108951
0.000109091
0.000112091
0.000113064
0.000114133
0.000110524
0.000110212
0.000112678
0.00011249
0.000113013
0.000114458
0.000110147
0.000110068
0.000112649
0.000113338
0.00011013
0.000112481
0.000111277
0.000112844
0.000115509
0.000109731
0.000113063
0.000111411
0.000113441
0.000114182
0.000112336
0.000113135
0.000113211
0.00010993
0.000111449
0.000114606
0.000112904
0.000113183
0.000113861
0.000110229
0.000113841
0.000110867
0.00011084
0.000112519
0.000115732
0.000114394
0.000111332
0.000113809
0.000112882
0.000115238
0.000112782
0.000123343
0.000109139
0.000109636
0.000119814
0.000118598
0.000112317
0.000122245
0.000110108
0.000112678
0.000119346
0.000111825
0.000114422
0.000118945
0.000120827
0.000113582
0.000117027
0.000114452
0.000112188
0.000120271
0.000123112
0.000124475
0.00012478
0.000122419
0.000121606
0.000125228
0.000124725
0.000123784
0.000124626
0.000121745
0.000117573
0.000124124
0.000125971
0.000121783
0.000124614
0.000122082
0.000120655
0.00013216
0.000121316
0.000125994
0.000121941
0.000120083
0.000123757
0.000115282
0.000124606
0.000122946
0.000117092
0.000118235
0.000122939
0.00011309
0.000124213
0.000128304
0.000117419
0.000119792
0.000118731
0.00011807
0.000113675
0.000132304
0.000115935
0.000118945
0.000119692
0.000114185
0.000106825
0.000114269
0.000112508
0.000116299
0.000115693
0.000107379
0.000118036
0.000111036
0.000127336
0.000116691
0.000118146
0.000108148
0.000104533
0.000108493
0.000116933
0.000126435
0.000113951
0.000114306
0.000109317
0.000103829
0.000125659
0.000136906
0.000114391
0.000144406
0.000107003
0.00012843
0.000142453
0.000145963
0.000132695
0.000149905
0.000106279
0.000116331
0.000141857
0.000152627
0.000139613
0.000147307
0.000157432
0.000122882
0.00015863
0.000138717
0.000154097
0.000156707
0.000168709
0.000149668
0.000174207
0.000153065
0.000148081
0.000166528
0.00014127
0.000150878
0.000131564
0.000153156
0.000156978
0.000167672
0.000169066
0.000166477
0.000141786
0.000135016
0.000162298
0.00014843
0.000165315
0.000169702
0.000136128
0.000118676
0.00018053
0.000135729
0.000178438
0.000137232
0.000153362
0.000133547
0.000129476
0.000131228
0.000180353
0.00014878
0.000153404
0.000117383
0.000123344
0.000129329
0.000107141
0.000137674
0.00010353
0.000123515
0.000117314
0.000107389
0.000106085
0.000122015
7.41315e-05
0.00012657
0.000135037
9.40667e-05
0.000137212
0.000134366
0.000140608
0.000126462
0.000114538
9.41703e-05
0.000108868
0.000105126
0.000139634
0.000143894
0.000102118
0.000126331
0.000104803
0.000114023
0.000141311
0.000148133
7.97447e-05
0.000160029
8.40161e-05
0.000136945
0.000148334
0.000134276
0.000140145
0.000134046
8.36531e-05
0.000124174
0.000149617
0.000162837
0.000154598
0.000138621
0.000168849
0.000133164
0.000163319
0.000152602
0.000165582
0.000169426
0.000170041
0.00016649
0.00017862
0.000163181
0.000136031
0.000191035
0.000136382
0.000133603
0.000129835
0.000165296
0.000168023
0.000195463
0.00018294
0.000173882
0.000137126
0.000158625
0.000166297
0.000159488
0.000173737
0.000181303
0.000162963
0.000140743
0.000168634
0.000125741
0.000183868
0.000135084
0.000145147
0.000145541
0.000128547
0.000144242
0.000188357
0.000165719
0.000145007
0.00013504
0.000143158
0.000142101
0.000124962
0.000150337
0.000119898
0.000145397
0.000133855
0.000125153
0.000115346
0.000122458
0.000144812
0.000139145
0.000150991
0.000141262
0.000161805
0.000147932
0.0001586
0.00013873
0.000129641
0.000139175
0.000139341
0.000121168
0.000162055
0.000142489
0.000118653
0.000144879
0.000120777
0.000140106
0.000140194
0.000145277
0.000148334
0.000152639
0.000149519
0.00016287
0.000159388
0.000161678
0.000158884
0.000150314
0.000148164
0.000147354
0.000159232
0.000155296
0.000148541
0.000161265
0.000154008
0.000147776
0.000148277
0.000146961
0.000155148
0.000153694
0.000145645
0.000152257
0.000148488
0.000159879
0.000157943
0.000156437
0.000152147
0.000149114
0.000141551
0.000159771
0.000155497
0.000156313
0.000149708
0.000152938
0.000151748
0.000158514
0.000147614
0.000143035
0.000152893
0.000149414
0.000158413
0.000153875
0.00015061
0.000164735
0.000157813
0.000148104
0.00017018
0.000161117
0.000141004
0.000157795
0.000157968
0.000152292
0.000170997
0.000172654
0.00016373
0.000161787
0.000175249
0.000146683
0.000166877
0.000164009
0.000173186
0.000175984
0.000168755
0.000165832
0.00015927
0.000171901
0.0001664
0.000173851
0.00017324
0.000159973
0.000162707
0.000172694
0.000175337
0.000174393
0.000181092
0.000176486
0.000173475
0.000178365
0.000168155
0.000165641
0.000177243
0.000181345
0.000178847
0.0001625
0.000156692
0.000148558
0.000168418
0.000172193
0.000161141
0.000164742
0.000160808
0.000152585
0.000168697
0.000175935
0.00016113
0.000163871
0.000172371
0.000164855
0.000162326
0.000162684
0.000151971
0.000172609
0.000163984
0.000162306
0.000151188
0.000148529
0.000158636
0.000158904
0.000163446
0.00016322
0.000162306
0.000151826
0.000157252
0.000158892
0.000162417
0.000162994
0.000158533
0.000161191
0.000162184
0.000157865
0.000151066
0.000154108
0.000161145
0.000158579
0.000157711
0.000153216
0.000160831
0.000165339
0.000167782
0.000166548
0.000175362
0.00017493
0.000159507
0.000164933
0.000167533
0.000162644
0.000175206
0.000172926
0.000161363
0.000174501
0.000171442
0.00015637
0.000163503
0.0001611
0.000172451
0.00017128
0.000162464
0.000165221
0.000163348
0.000175983
0.000175826
0.000175696
0.000176086
0.000164979
0.000163994
0.000175846
0.000174408
0.000175653
0.000175829
0.000173338
0.00017606
0.000175917
0.000163819
0.000163932
0.000173197
0.000175802
0.000175739
0.000164412
0.000163007
0.000162456
0.000175398
0.000175889
0.00017339
0.000174219
0.000163738
0.000162987
0.000175371
0.000175742
0.00017336
0.000174543
0.00017623
0.000174346
0.000176624
0.000163661
0.00016377
0.000176085
0.000174684
0.000176785
0.000165384
0.000162802
0.00016706
0.000173108
0.00017375
0.000178025
0.000177771
0.000163146
0.000166707
0.000173162
0.00017475
0.000178166
0.000178576
0.000176862
0.000177974
0.000178302
0.00016417
0.000166957
0.000177085
0.000178775
0.000178433
0.000166405
0.000167529
0.000168572
0.000179473
0.000179096
0.00018148
0.000180696
0.000167124
0.000167991
0.000179566
0.000179455
0.000181448
0.000180224
0.000178775
0.000180492
0.000179746
0.000167165
0.000167562
0.000178838
0.000180015
0.000179688
0.000167295
0.000168453
0.000168827
0.00018146
0.000180844
0.000181812
0.000182248
0.00016798
0.00016933
0.000181403
0.000180376
0.0001818
0.000182175
0.000180204
0.000182329
0.000182515
0.000167539
0.000169376
0.000180143
0.000182253
0.000182502
0.000169631
0.000169164
0.00017106
0.000182513
0.000182965
0.000184571
0.000184562
0.000169672
0.000170943
0.000182525
0.000183004
0.000184611
0.000184679
0.000183301
0.000184641
0.000184728
0.000169768
0.000171019
0.000183309
0.000184771
0.000184768
0.000171012
0.000171245
0.000172684
0.000185121
0.000184949
0.000186931
0.000186683
0.00017103
0.000172489
0.000185157
0.000185014
0.000186937
0.0001866
0.00018506
0.000186671
0.000186656
0.000171079
0.000172393
0.000185096
0.000186587
0.000186665
0.000172455
0.000172932
0.000174051
0.000187559
0.000187412
0.000188996
0.000189077
0.000172803
0.000174161
0.000187558
0.000187331
0.000188995
0.000189143
0.000187334
0.000189078
0.000189125
0.000172718
0.000174273
0.000187333
0.000189153
0.000189126
0.000174273
0.000174134
0.000175177
0.000189361
0.000189446
0.000190594
0.000190797
0.000174257
0.000175383
0.000189377
0.000189592
0.000190651
0.000190922
0.000189651
0.000190903
0.000191038
0.000174401
0.000175395
0.000189668
0.00019103
0.000191094
0.00017545
0.000175365
0.000176785
0.000191094
0.000191357
0.000192758
0.000192687
0.000175593
0.00017664
0.000191133
0.000191315
0.000192709
0.000192288
0.000191348
0.000192655
0.00019217
0.000175498
0.000176332
0.000191386
0.000192266
0.000192123
0.000176189
0.000176955
0.000177883
0.000193295
0.000192991
0.00019445
0.000194177
0.000176687
0.000177709
0.000193248
0.000192726
0.000194499
0.000194503
0.000192632
0.000194166
0.000194491
0.000176452
0.000178027
0.000192591
0.000194483
0.000194535
0.000178085
0.000177908
0.00017875
0.000194701
0.000194717
0.000195744
0.000196219
0.000177929
0.000179183
0.000194774
0.000195048
0.000195757
0.000196051
0.000195059
0.000196334
0.000196202
0.0001782
0.000179016
0.000195122
0.000196181
0.00019622
0.00017908
0.000178933
0.000180235
0.000196265
0.000196579
0.000197775
0.00019741
0.000179244
0.000179873
0.000196246
0.00019629
0.000197763
0.000197419
0.000196463
0.000197384
0.000197378
0.000179018
0.000179929
0.000196448
0.000197394
0.000197367
0.00017987
0.000180309
0.000181029
0.000198128
0.00019774
0.000198982
0.000199068
0.000179925
0.000181172
0.000198149
0.000197908
0.000199034
0.000199163
0.00019777
0.000199092
0.000199084
0.000180101
0.000181183
0.000197793
0.000199189
0.000199136
0.000181169
0.000181094
0.000182102
0.000199346
0.000199543
0.000200589
0.000200664
0.000181303
0.000182168
0.000199374
0.000199485
0.000200567
0.000200507
0.000199524
0.000200716
0.000200705
0.00018124
0.000182063
0.000199552
0.000200562
0.000200684
0.000182168
0.000182164
0.000182823
0.000200937
0.000200905
0.000201672
0.000201587
0.000182171
0.000182738
0.000200931
0.000200882
0.000201719
0.000201716
0.000201013
0.000201612
0.000201619
0.000182125
0.000182832
0.000201007
0.000201749
0.000201666
0.000182759
0.000182846
0.000183856
0.000201949
0.000201924
0.000203076
0.000203138
0.000182804
0.000183922
0.000201987
0.000201928
0.000203058
0.000202961
0.000201853
0.000203155
0.000202996
0.00018283
0.000183793
0.000201892
0.000202974
0.000202979
0.000183814
0.000183944
0.000184743
0.000203506
0.000203557
0.000204528
0.000204502
0.000183989
0.000184738
0.000203491
0.000203464
0.000204562
0.000204649
0.000203469
0.000204538
0.000204611
0.00018393
0.000184845
0.000203455
0.000204689
0.000204649
0.000184806
0.000184719
0.000185187
0.000204735
0.000204695
0.000205234
0.000205215
0.000184708
0.000185185
0.000204778
0.000204839
0.000205249
0.000205092
0.000204851
0.000205269
0.000205329
0.000184804
0.000185073
0.000204895
0.000205146
0.000205336
0.000185287
0.000185145
0.000185878
0.000205438
0.000205459
0.00020625
0.000206278
0.000185175
0.000185903
0.000205443
0.000205277
0.000206246
0.000206244
0.000205504
0.00020629
0.000206091
0.000185012
0.000185908
0.0002055
0.000206262
0.000206088
0.000185736
0.0001859
0.000186616
0.000206516
0.000206517
0.000207367
0.000207341
0.000185903
0.000186598
0.000206528
0.000206576
0.000207412
0.000207455
0.000206347
0.000207367
0.000207396
0.000185955
0.000186688
0.000206361
0.000207483
0.000207439
0.000186642
0.000186617
0.000187255
0.000207694
0.000207676
0.00020841
0.000208407
0.000186604
0.000187273
0.000207729
0.000207732
0.000208425
0.000208333
0.000207754
0.000208461
0.000208516
0.000186671
0.00018721
0.000207787
0.000208391
0.00020853
0.000187351
0.000187181
0.000187585
0.000208562
0.000208553
0.000208912
0.000208891
0.000187196
0.000187582
0.000208566
0.000208443
0.000208912
0.000208835
0.000208638
0.000208912
0.00020885
0.00018712
0.00018752
0.000208645
0.000208861
0.000208848
0.000187523
0.000187515
0.00018799
0.000209099
0.000209086
0.000209636
0.000209657
0.000187514
0.000188018
0.000209109
0.000209077
0.000209669
0.000209719
0.000209052
0.000209695
0.000209667
0.00018747
0.000188062
0.000209061
0.000209758
0.000209697
0.000188017
0.00018794
0.000188472
0.000209824
0.000209846
0.000210406
0.000210449
0.00018797
0.000188515
0.000209858
0.000209891
0.000210416
0.000210407
0.000209851
0.000210477
0.000210395
0.000188003
0.000188489
0.000209882
0.000210435
0.000210406
0.00018847
0.00018839
0.000188777
0.000210567
0.000210618
0.000210924
0.000210911
0.000188433
0.000188768
0.000210578
0.000210584
0.000210944
0.00021091
0.000210569
0.000210947
0.000210922
0.000188402
0.000188762
0.00021058
0.000210954
0.000210941
0.000188768
0.000188687
0.000189237
0.000211067
0.000210992
0.000211599
0.000211512
0.000188653
0.000189138
0.000211085
0.000210982
0.000211611
0.000211466
0.000211044
0.00021154
0.000211563
0.000188646
0.00018909
0.000211062
0.000211492
0.000211576
0.000189182
0.00018916
0.00018927
0.000211772
0.000211708
0.000211979
0.000212077
0.00018907
0.000189373
0.000211782
0.000211672
0.000212005
0.000212112
0.000211746
0.00021212
0.000212081
0.000189025
0.000189408
0.000211759
0.000212159
0.000212104
0.000189352
0.000189107
0.000189344
0.000211921
0.00021204
0.000212069
0.000212118
0.000189223
0.00018938
0.000211948
0.000212083
0.000212083
0.000212091
0.000212032
0.000212164
0.000212093
0.00018926
0.000189325
0.000212056
0.000212142
0.000212111
0.000189333
0.0001894
0.000190625
0.000212411
0.00021238
0.000213399
0.000213244
0.000189377
0.000190449
0.000212424
0.000212318
0.000213393
0.000213123
0.000212375
0.000213264
0.000213254
0.000189314
0.00019042
0.000212388
0.000213141
0.000213254
0.000190504
0.000190438
0.000188993
0.000213771
0.0002136
0.000212462
0.000212513
0.000190281
0.000189091
0.000213774
0.000213541
0.000212499
0.000212602
0.000213636
0.000212558
0.000212559
0.000190284
0.000189143
0.000213641
0.000212652
0.000212591
0.000189093
0.0001887
0.000188937
0.000212154
0.000212231
0.000211636
0.00021181
0.000188817
0.000189095
0.000212184
0.000212278
0.000211653
0.000211752
0.000212249
0.000211875
0.000211759
0.000188894
0.000188951
0.000212276
0.000211814
0.000211778
0.000188966
0.000189283
0.000191185
0.000212378
0.000212477
0.000214131
0.000214065
0.000189387
0.00019105
0.000212361
0.000212284
0.00021413
0.000213982
0.000212337
0.000214087
0.00021402
0.000189225
0.000190991
0.00021233
0.000214008
0.000214026
0.000190992
0.000191116
0.000190075
0.000214552
0.000214416
0.000214515
0.000214371
0.000190958
0.000190036
0.000214547
0.000214343
0.000214572
0.000214538
0.000214366
0.000214407
0.000214643
0.000190923
0.000190148
0.000214371
0.00021458
0.000214688
0.000190241
0.000189773
0.000189136
0.000213933
0.000213926
0.000212844
0.000213003
0.000189774
0.000189303
0.000213981
0.000214041
0.000212869
0.000213007
0.000214123
0.000213073
0.000212993
0.000189864
0.000189278
0.000214163
0.000213075
0.000213017
0.00018925
0.000188952
0.000190838
0.000212634
0.000212737
0.000215414
0.000215454
0.000189131
0.000190847
0.000212651
0.0002127
0.000215418
0.000215357
0.000212674
0.000215471
0.000215286
0.000189104
0.000190766
0.000212693
0.000215375
0.000215293
0.00019069
0.000192873
0.000214337
0.00021432
0.000192845
0.000214338
0.000214209
0.000235997
0.00023589
0.000235831
0.000214177
0.000192756
0.00021418
0.00023473
0.000234746
0.000234729
0.000234729
0.000235118
0.000234798
0.000234701
0.000234727
0.000235118
0.000234798
0.000234727
0.000234701
0.000234867
0.000233566
0.000233566
0.000104651
3.87411e-05
0.000129118
3.98249e-05
2.16834e-05
2.28313e-05
0.000104643
3.87371e-05
0.000129114
3.98214e-05
0.000233973
0.000233973
0.000233973
0.000232935
0.000232935
0.000232935
0.000232935
0.000206196
9.36753e-05
0.000233969
0.000231994
0.000222614
8.72226e-05
0.000233611
2.16823e-05
2.28307e-05
0.00020619
0.000233969
9.36748e-05
0.000231994
0.000222622
0.000233611
8.72282e-05
4.78013e-05
4.77894e-05
0.000231345
4.40184e-05
4.40089e-05
7.25678e-05
4.2434e-05
8.14026e-05
4.37634e-05
2.47749e-05
2.54634e-05
7.25582e-05
4.24305e-05
8.13973e-05
4.37596e-05
0.000232532
0.000232532
0.000232532