/*--------------------------------*- C++ -*----------------------------------*\
| =========                 |                                                 |
| \\      /  F ield         | OpenFOAM: The Open Source CFD Toolbox           |
|  \\    /   O peration     | Version:  v2012                                 |
|   \\  /    A nd           | Website:  www.openfoam.com                      |
|    \\/     M anipulation  |                                                 |
\*---------------------------------------------------------------------------*/
FoamFile
{
    version     2.0;
    format      ascii;
    class       volScalarField;
    location    "1000";
    object      p;
}
// * * * * * * * * * * * * * * * * * * * * * * * * * * * * * * * * * * * * * //

dimensions      [0 2 -2 0 0 0 0];


internalField   nonuniform List<scalar> 
171728
(
0.00360467
0.003605
0.003605
0.00360805
0.00354931
0.00354973
0.00354973
0.00355272
0.00349856
0.00349853
0.00349853
0.00350129
0.00344617
0.00344619
0.00344619
0.00344896
0.00339482
0.00339483
0.00339483
0.00339758
0.00334485
0.00334486
0.00334486
0.00334758
0.00329632
0.00329634
0.00329634
0.00329902
0.00324909
0.00324912
0.00324912
0.00325176
0.00320297
0.00320299
0.00320299
0.00320561
0.00315773
0.00315776
0.00315776
0.00316035
0.00311323
0.00311324
0.00311325
0.00311581
0.00306932
0.00306934
0.00306933
0.00307188
0.00302592
0.00302594
0.00302594
0.00302845
0.00298299
0.00298301
0.00298301
0.00298552
0.0029405
0.00294051
0.00294051
0.00294301
0.00289841
0.00289841
0.00289841
0.0029009
0.0028567
0.0028567
0.0028567
0.00285918
0.00281535
0.00281535
0.00281535
0.00281782
0.00277434
0.00277432
0.00277432
0.00277679
0.00273364
0.00273362
0.00273362
0.00273607
0.00269323
0.0026932
0.0026932
0.00269565
0.00265309
0.00265305
0.00265304
0.00265549
0.0026132
0.00261315
0.00261315
0.00261559
0.00257355
0.00257349
0.00257349
0.00257592
0.00253412
0.00253407
0.00253406
0.00253648
0.00249492
0.00249486
0.00249486
0.00249726
0.00245591
0.00245585
0.00245585
0.00245824
0.00241711
0.00241706
0.00241706
0.00241943
0.0023785
0.00237846
0.00237846
0.00238081
0.00234008
0.00234003
0.00234004
0.00234236
0.00230183
0.00230179
0.0023018
0.0023041
0.00226378
0.00226375
0.00226375
0.00226603
0.00222588
0.00222586
0.00222587
0.00222813
0.00218816
0.00218814
0.00218813
0.00219038
0.00215055
0.00215051
0.00215051
0.00215274
0.00211315
0.00211318
0.00211317
0.00211537
0.00207596
0.00207592
0.00207592
0.00207808
0.00203861
0.00203858
0.00203862
0.0020408
0.00200158
0.00200159
0.00200145
0.00200385
0.00196525
0.0019653
0.00196521
0.00196713
0.00192765
0.00192738
0.00192775
0.00192965
0.00189051
0.00189068
0.00188982
0.00189292
0.00185625
0.00185692
0.00185707
0.00185969
0.0018219
0.00182074
0.00182208
0.00182203
0.00178329
0.00178156
0.0017803
0.00178248
0.00174233
0.00174532
0.00174431
0.00174804
0.00170884
0.00170928
0.00171143
0.00171311
0.00167845
0.0016748
0.00167579
0.00167593
0.00163741
0.00163911
0.00163664
0.00163917
0.00160005
0.00160226
0.00160113
0.00160471
0.00156731
0.00156615
0.00156848
0.00156991
0.00153131
0.00153038
0.00153037
0.00153229
0.00149617
0.00149636
0.00149621
0.00149827
0.00146186
0.00146221
0.0014618
0.00146327
0.00142395
0.00142374
0.0014234
0.0014258
0.00138734
0.00138709
0.00138718
0.00138947
0.00135233
0.00135245
0.00135262
0.00135459
0.00131681
0.00131667
0.00131686
0.00131886
0.00128112
0.0012809
0.00128092
0.00128294
0.00124593
0.0012458
0.00124575
0.00124769
0.00121037
0.00121033
0.00121023
0.00121224
0.00117479
0.00117463
0.00117464
0.0011767
0.00113932
0.00113928
0.00113933
0.00114133
0.0011041
0.00110394
0.00110393
0.00110593
0.00106871
0.00106861
0.0010686
0.0010706
0.00103336
0.00103326
0.00103327
0.00103527
0.000997978
0.000997877
0.000997863
0.000999865
0.000962606
0.000962485
0.000962491
0.000964497
0.000927179
0.000927114
0.00092713
0.000929135
0.000891778
0.000891693
0.000891667
0.000893677
0.00085637
0.000856253
0.00085627
0.000858268
0.000820903
0.000820856
0.000820846
0.000822862
0.000785457
0.000785361
0.000785367
0.000787374
0.000749965
0.000749888
0.000749887
0.000751894
0.00071448
0.00071442
0.000714417
0.000716435
0.000678941
0.000678857
0.000678861
0.000680877
0.00064335
0.000643292
0.00064328
0.000645296
0.00060778
0.000607717
0.000607732
0.000609743
0.000572173
0.000572116
0.000572109
0.000574145
0.00053651
0.000536445
0.000536439
0.000538459
0.000500811
0.000500759
0.000500768
0.000502787
0.000465099
0.000465051
0.000465047
0.000467081
0.000429337
0.000429285
0.000429283
0.000431317
0.000393547
0.000393497
0.000393498
0.000395533
0.00035772
0.000357679
0.00035768
0.000359717
0.000321831
0.000321786
0.000321786
0.000323824
0.000286004
0.000285964
0.000285959
0.000288004
0.00024998
0.000249939
0.000249951
0.000252001
0.000213879
0.000213823
0.000213817
0.000215851
0.000178104
0.000178083
0.000178076
0.00018012
0.00014212
0.000142062
0.000142082
0.000144119
0.000105821
0.000105763
0.000105761
0.000107777
6.96952e-05
6.96845e-05
6.96715e-05
7.16722e-05
3.43289e-05
3.37595e-05
3.37558e-05
3.56213e-05
5.99659e-06
6.91747e-06
6.92302e-06
5.17568e-06
0.00361808
0.0036183
0.0036183
0.00361807
0.0036183
0.0036183
0.00361906
0.00361906
0.00361907
0.00361907
0.0036183
0.0036183
0.00361808
0.0036183
0.0036183
0.00361808
0.00360805
0.00355929
0.00360499
0.00360499
0.00356157
0.00356157
0.00360805
0.00355929
0.003605
0.003605
0.00356157
0.00356157
0.00360499
0.00356157
0.00356157
0.00360805
0.00355929
0.003605
0.00356157
0.00356157
0.00355929
0.00355272
0.00350821
0.00354973
0.00354973
0.00351166
0.00351166
0.00355272
0.00350821
0.00354973
0.00354973
0.00351166
0.00351166
0.00354973
0.00351166
0.00351166
0.00355272
0.00350821
0.00354973
0.00351166
0.00351166
0.00350821
0.00350129
0.00345584
0.00349853
0.00349853
0.0034592
0.0034592
0.00350129
0.00345584
0.00349853
0.00349853
0.0034592
0.0034592
0.00349853
0.0034592
0.0034592
0.00350129
0.00345584
0.00349853
0.0034592
0.0034592
0.00345584
0.00344896
0.00340429
0.00344619
0.00344619
0.00340755
0.00340756
0.00344896
0.00340429
0.00344619
0.00344619
0.00340755
0.00340756
0.00344619
0.00340755
0.00340755
0.00344896
0.00340429
0.00344619
0.00340755
0.00340755
0.00340429
0.00339758
0.00335408
0.00339483
0.00339483
0.00335721
0.00335721
0.00339758
0.00335408
0.00339483
0.00339483
0.00335721
0.00335721
0.00339483
0.00335721
0.00335721
0.00339758
0.00335408
0.00339483
0.00335721
0.00335721
0.00335408
0.00334758
0.00330532
0.00334486
0.00334486
0.00330834
0.00330834
0.00334758
0.00330532
0.00334486
0.00334486
0.00330834
0.00330834
0.00334486
0.00330834
0.00330834
0.00334758
0.00330532
0.00334486
0.00330834
0.00330834
0.00330532
0.00329902
0.0032579
0.00329634
0.00329634
0.00326081
0.00326081
0.00329902
0.0032579
0.00329634
0.00329634
0.00326081
0.00326081
0.00329634
0.00326081
0.00326081
0.00329902
0.0032579
0.00329634
0.00326081
0.00326081
0.00325789
0.00325177
0.0032116
0.00324911
0.00324911
0.00321443
0.00321442
0.00325177
0.0032116
0.00324911
0.00324912
0.00321443
0.00321442
0.00324911
0.00321443
0.00321443
0.00325177
0.0032116
0.00324912
0.00321443
0.00321443
0.0032116
0.00320561
0.00316622
0.00320298
0.00320299
0.00316899
0.00316899
0.00320561
0.00316622
0.00320298
0.00320299
0.00316899
0.00316899
0.00320298
0.00316899
0.00316899
0.00320561
0.00316622
0.00320298
0.00316899
0.00316899
0.00316622
0.00316035
0.0031216
0.00315775
0.00315775
0.00312432
0.00312432
0.00316035
0.00312159
0.00315775
0.00315776
0.00312432
0.00312432
0.00315776
0.00312432
0.00312431
0.00316035
0.00312159
0.00315776
0.00312432
0.00312431
0.0031216
0.00311581
0.00307758
0.00311325
0.00311324
0.00308026
0.00308026
0.00311581
0.00307758
0.00311325
0.00311325
0.00308026
0.00308027
0.00311325
0.00308027
0.00308026
0.00311581
0.00307758
0.00311325
0.00308027
0.00308026
0.00307758
0.00307188
0.00303409
0.00306934
0.00306934
0.00303674
0.00303674
0.00307188
0.00303409
0.00306934
0.00306933
0.00303674
0.00303674
0.00306934
0.00303674
0.00303675
0.00307187
0.00303409
0.00306934
0.00303674
0.00303675
0.00303408
0.00302846
0.00299108
0.00302594
0.00302595
0.0029937
0.0029937
0.00302845
0.00299108
0.00302594
0.00302594
0.0029937
0.0029937
0.00302594
0.0029937
0.0029937
0.00302845
0.00299107
0.00302594
0.0029937
0.0029937
0.00299108
0.00298551
0.00294852
0.00298301
0.00298301
0.00295109
0.00295109
0.00298551
0.00294852
0.00298301
0.00298301
0.00295109
0.0029511
0.00298301
0.00295109
0.00295109
0.00298551
0.00294852
0.00298301
0.0029511
0.00295109
0.00294852
0.00294301
0.00290636
0.00294051
0.00294051
0.0029089
0.0029089
0.00294301
0.00290636
0.00294051
0.00294051
0.0029089
0.0029089
0.00294051
0.0029089
0.0029089
0.00294301
0.00290636
0.00294051
0.0029089
0.0029089
0.00290636
0.0029009
0.00286459
0.00289841
0.00289841
0.00286709
0.00286709
0.0029009
0.00286459
0.00289841
0.00289841
0.00286709
0.00286709
0.00289841
0.00286709
0.00286709
0.0029009
0.00286459
0.00289841
0.00286709
0.00286709
0.00286459
0.00285917
0.00282319
0.0028567
0.0028567
0.00282565
0.00282565
0.00285918
0.00282319
0.0028567
0.0028567
0.00282565
0.00282565
0.00285669
0.00282565
0.00282565
0.00285918
0.00282319
0.00285669
0.00282565
0.00282565
0.00282319
0.00281782
0.00278212
0.00281535
0.00281535
0.00278456
0.00278455
0.00281782
0.00278212
0.00281535
0.00281535
0.00278456
0.00278455
0.00281535
0.00278455
0.00278455
0.00281782
0.00278212
0.00281535
0.00278455
0.00278455
0.00278212
0.00277679
0.00274137
0.00277433
0.00277432
0.00274376
0.00274376
0.00277679
0.00274136
0.00277433
0.00277432
0.00274376
0.00274376
0.00277433
0.00274376
0.00274377
0.00277679
0.00274137
0.00277433
0.00274376
0.00274377
0.00274137
0.00273607
0.00270091
0.00273361
0.00273362
0.00270327
0.00270327
0.00273607
0.00270091
0.00273361
0.00273362
0.00270327
0.00270327
0.00273361
0.00270327
0.00270327
0.00273608
0.00270091
0.00273361
0.00270328
0.00270327
0.0027009
0.00269565
0.00266072
0.0026932
0.0026932
0.00266306
0.00266306
0.00269565
0.00266072
0.0026932
0.0026932
0.00266306
0.00266306
0.00269319
0.00266306
0.00266306
0.00269565
0.00266072
0.00269319
0.00266306
0.00266306
0.00266072
0.00265549
0.00262079
0.00265305
0.00265305
0.0026231
0.0026231
0.00265549
0.00262079
0.00265305
0.00265305
0.0026231
0.0026231
0.00265305
0.0026231
0.0026231
0.00265549
0.00262079
0.00265305
0.0026231
0.0026231
0.00262079
0.00261559
0.00258109
0.00261315
0.00261315
0.00258338
0.00258338
0.00261559
0.00258109
0.00261315
0.00261315
0.00258338
0.00258338
0.00261315
0.00258338
0.00258338
0.00261559
0.00258109
0.00261315
0.00258338
0.00258338
0.00258109
0.00257592
0.00254163
0.00257349
0.00257349
0.0025439
0.0025439
0.00257592
0.00254163
0.00257349
0.00257349
0.0025439
0.0025439
0.00257349
0.0025439
0.0025439
0.00257592
0.00254163
0.00257349
0.0025439
0.0025439
0.00254163
0.00253648
0.00250239
0.00253407
0.00253407
0.00250464
0.00250464
0.00253648
0.00250239
0.00253407
0.00253406
0.00250464
0.00250464
0.00253407
0.00250464
0.00250464
0.00253648
0.00250239
0.00253407
0.00250464
0.00250464
0.00250239
0.00249726
0.00246334
0.00249486
0.00249486
0.00246558
0.00246558
0.00249726
0.00246334
0.00249486
0.00249486
0.00246558
0.00246558
0.00249486
0.00246558
0.00246559
0.00249726
0.00246334
0.00249486
0.00246558
0.00246559
0.00246334
0.00245824
0.00242451
0.00245585
0.00245585
0.00242674
0.00242674
0.00245824
0.00242451
0.00245585
0.00245586
0.00242674
0.00242674
0.00245585
0.00242674
0.00242674
0.00245824
0.00242451
0.00245585
0.00242674
0.00242674
0.00242451
0.00241943
0.00238587
0.00241706
0.00241706
0.0023881
0.00238809
0.00241943
0.00238587
0.00241706
0.00241707
0.0023881
0.00238809
0.00241707
0.00238809
0.00238809
0.00241943
0.00238587
0.00241707
0.00238809
0.00238809
0.00238587
0.0023808
0.00234741
0.00237846
0.00237846
0.00234963
0.00234963
0.00238081
0.0023474
0.00237846
0.00237846
0.00234963
0.00234963
0.00237846
0.00234963
0.00234963
0.00238081
0.00234741
0.00237846
0.00234963
0.00234963
0.00234741
0.00234236
0.00230913
0.00234004
0.00234003
0.00231134
0.00231134
0.00234236
0.00230913
0.00234004
0.00234004
0.00231134
0.00231134
0.00234003
0.00231135
0.00231134
0.00234236
0.00230913
0.00234004
0.00231134
0.00231134
0.00230912
0.0023041
0.00227104
0.0023018
0.00230179
0.00227324
0.00227325
0.0023041
0.00227104
0.0023018
0.0023018
0.00227325
0.00227325
0.0023018
0.00227325
0.00227324
0.0023041
0.00227104
0.0023018
0.00227325
0.00227324
0.00227104
0.00226604
0.00223311
0.00226375
0.00226375
0.00223532
0.00223532
0.00226603
0.00223311
0.00226375
0.00226375
0.00223531
0.00223531
0.00226375
0.00223532
0.00223532
0.00226603
0.00223311
0.00226374
0.00223532
0.00223532
0.00223312
0.00222811
0.00219537
0.00222585
0.00222586
0.00219756
0.00219755
0.00222813
0.00219536
0.00222585
0.00222586
0.00219756
0.00219756
0.00222587
0.00219755
0.00219755
0.00222813
0.00219537
0.00222587
0.00219756
0.00219755
0.00219536
0.00219039
0.00215769
0.00218815
0.00218814
0.00215991
0.00215992
0.00219038
0.0021577
0.00218815
0.00218814
0.0021599
0.0021599
0.00218814
0.00215992
0.0021599
0.00219038
0.00215769
0.00218814
0.00215991
0.0021599
0.00215771
0.00215273
0.00212031
0.00215051
0.00215051
0.00212247
0.00212247
0.00215273
0.00212031
0.00215051
0.00215051
0.00212247
0.00212248
0.00215052
0.00212247
0.00212248
0.00215273
0.00212031
0.00215052
0.00212249
0.00212249
0.00212031
0.00211537
0.00208303
0.00211316
0.00211318
0.00208525
0.00208523
0.00211538
0.00208304
0.00211315
0.00211317
0.00208525
0.00208522
0.00211317
0.00208523
0.00208522
0.00211537
0.00208304
0.00211317
0.00208522
0.00208521
0.00208301
0.0020781
0.00204572
0.00207594
0.00207592
0.00204793
0.00204795
0.0020781
0.00204572
0.00207594
0.00207593
0.00204793
0.002048
0.00207592
0.00204793
0.0020479
0.00207813
0.00204577
0.00207591
0.002048
0.00204793
0.00204575
0.00204075
0.00200858
0.00203855
0.00203859
0.00201069
0.00201069
0.00204074
0.00200858
0.00203857
0.00203862
0.0020107
0.00201063
0.00203858
0.00201072
0.00201088
0.00204076
0.00200849
0.00203861
0.00201066
0.00201086
0.00200874
0.00200374
0.00197237
0.00200158
0.00200155
0.0019745
0.0019744
0.00200376
0.00197231
0.00200156
0.00200143
0.00197445
0.00197426
0.0020017
0.00197437
0.00197424
0.00200363
0.00197219
0.00200166
0.00197424
0.00197421
0.00197203
0.00196746
0.00193476
0.0019654
0.00196535
0.00193695
0.00193696
0.00196745
0.0019346
0.00196534
0.00196524
0.00193705
0.00193757
0.00196503
0.00193695
0.00193689
0.00196737
0.001935
0.00196503
0.00193754
0.00193696
0.00193467
0.0019298
0.00189729
0.00192744
0.00192738
0.00189943
0.00189944
0.00192957
0.00189746
0.00192755
0.00192777
0.00189939
0.00189897
0.00192734
0.00189942
0.00189947
0.00192973
0.00189679
0.00192741
0.00189895
0.00189941
0.00189754
0.0018924
0.00186261
0.00189039
0.00189067
0.00186457
0.00186504
0.00189283
0.0018633
0.0018903
0.00188979
0.0018645
0.00186497
0.00189081
0.00186521
0.0018657
0.00189201
0.00186327
0.00189071
0.00186515
0.00186564
0.00186395
0.00185824
0.00182924
0.00185628
0.00185672
0.00183113
0.00183043
0.0018589
0.00182777
0.00185626
0.0018568
0.00183129
0.001832
0.00185763
0.00183048
0.00183016
0.00185883
0.0018293
0.00185759
0.00183205
0.00183037
0.00182733
0.00182448
0.00179012
0.00182231
0.0018209
0.00179303
0.00179179
0.00182267
0.00178928
0.00182252
0.00182221
0.00179303
0.00179084
0.00182004
0.0017913
0.00179016
0.0018238
0.00178833
0.00182023
0.0017904
0.00179009
0.00178764
0.00178433
0.00174856
0.00178252
0.00178199
0.00175115
0.00175378
0.00178407
0.00175197
0.00178239
0.00178069
0.00175091
0.00175172
0.00178024
0.00175419
0.00175454
0.00178323
0.00175074
0.00178009
0.00175218
0.00175426
0.00175281
0.00174345
0.00171653
0.00174103
0.00174457
0.00171654
0.00171745
0.00174696
0.00171574
0.0017406
0.00174344
0.00171685
0.00171919
0.00174623
0.00171822
0.00171994
0.00174634
0.00171788
0.00174603
0.00171985
0.0017201
0.00171804
0.00171295
0.00168775
0.00171031
0.00170886
0.00168933
0.00168421
0.00171108
0.00168195
0.00171064
0.00171106
0.00168953
0.0016862
0.0017108
0.00168327
0.00168303
0.00171347
0.00168317
0.00171108
0.00168539
0.00168346
0.00168083
0.00168245
0.00164349
0.00168034
0.00167599
0.00164619
0.00164867
0.0016776
0.00164619
0.00168064
0.00167701
0.00164589
0.00164655
0.00167385
0.00164833
0.00164654
0.00167823
0.0016442
0.0016742
0.00164626
0.00164621
0.00164415
0.00163825
0.00160609
0.00163563
0.00163899
0.00160782
0.0016107
0.001641
0.00160875
0.00163524
0.00163646
0.00160721
0.00160819
0.00163718
0.00161129
0.00161079
0.00163896
0.00160717
0.00163669
0.00160881
0.00161026
0.00160926
0.00160205
0.00157512
0.00160002
0.00160169
0.00157669
0.00157506
0.0016039
0.00157304
0.00159963
0.00160049
0.00157709
0.00157706
0.00160284
0.0015752
0.00157671
0.00160303
0.00157538
0.0016025
0.00157718
0.001577
0.00157486
0.0015706
0.00153782
0.00156823
0.00156615
0.00154022
0.00153946
0.00156845
0.00153734
0.0015687
0.00156854
0.0015405
0.00154011
0.00156744
0.00153924
0.00153908
0.00157079
0.00153762
0.00156784
0.00153986
0.00153946
0.00153707
0.00153277
0.00150221
0.0015307
0.00153056
0.00150415
0.00150452
0.00153246
0.00150271
0.00153085
0.00153053
0.00150404
0.00150433
0.00153
0.00150461
0.00150483
0.00153263
0.00150244
0.0015303
0.00150437
0.00150474
0.00150281
0.00149773
0.00146872
0.00149588
0.00149626
0.00147081
0.00147098
0.00149823
0.00146905
0.00149579
0.00149612
0.00147079
0.00147106
0.0014965
0.00147102
0.0014704
0.00149796
0.00146883
0.00149641
0.00147104
0.00147036
0.00146814
0.00146383
0.00143103
0.00146186
0.0014623
0.00143332
0.00143353
0.00146429
0.0014311
0.00146178
0.00146189
0.00143317
0.00143292
0.00146124
0.00143345
0.00143316
0.00146381
0.00143067
0.00146116
0.00143286
0.00143302
0.00143091
0.0014259
0.00139426
0.00142376
0.00142377
0.00139613
0.00139581
0.00142595
0.00139389
0.00142365
0.00142342
0.00139614
0.00139585
0.00142375
0.00139587
0.0013961
0.00142559
0.00139402
0.00142364
0.00139586
0.00139611
0.00139422
0.00138955
0.00135952
0.0013875
0.00138709
0.00136142
0.00136121
0.00138919
0.0013593
0.00138753
0.00138719
0.00136148
0.00136142
0.00138735
0.00136119
0.00136125
0.00138936
0.00135947
0.00138738
0.00136141
0.00136131
0.0013593
0.00135478
0.00132335
0.0013526
0.00135248
0.00132553
0.00132571
0.0013546
0.00132352
0.00135266
0.00135264
0.00132557
0.00132587
0.00135244
0.00132575
0.00132584
0.00135475
0.00132369
0.00135249
0.00132591
0.00132588
0.00132373
0.00131846
0.00128754
0.00131639
0.0013166
0.0012896
0.00128966
0.00131862
0.00128761
0.00131642
0.00131678
0.00128961
0.0012897
0.00131686
0.00128973
0.00128987
0.00131878
0.00128763
0.0013169
0.00128977
0.00128988
0.00128775
0.0012828
0.00125264
0.00128084
0.00128086
0.00125468
0.00125464
0.00128285
0.00125258
0.00128085
0.00128088
0.00125467
0.00125459
0.001281
0.00125461
0.00125451
0.00128286
0.00125254
0.00128099
0.00125456
0.00125449
0.00125245
0.00124788
0.00121729
0.00124589
0.00124584
0.00121933
0.00121929
0.00124782
0.00121724
0.00124588
0.00124579
0.00121931
0.00121923
0.00124566
0.00121924
0.00121908
0.00124778
0.00121714
0.00124565
0.00121916
0.00121905
0.00121704
0.00121245
0.00118139
0.00121041
0.00121039
0.00118349
0.00118352
0.00121241
0.00118144
0.00121039
0.0012103
0.00118347
0.00118348
0.00121021
0.00118352
0.00118357
0.00121231
0.00118143
0.00121018
0.0011835
0.00118356
0.0011815
0.00117657
0.00114602
0.00117456
0.0011746
0.00114804
0.00114806
0.00117663
0.00114605
0.00117455
0.00117461
0.00114805
0.00114812
0.0011747
0.0011481
0.00114817
0.00117663
0.00114609
0.00117471
0.00114816
0.00114818
0.00114612
0.00114125
0.00111078
0.00113924
0.00113925
0.00111283
0.0011128
0.00114127
0.00111074
0.00113925
0.0011393
0.00111283
0.0011128
0.00113932
0.00111279
0.00111277
0.00114132
0.00111074
0.00113933
0.00111279
0.00111277
0.00111072
0.00110599
0.00107539
0.001104
0.00110396
0.00107744
0.00107744
0.00110595
0.0010754
0.00110399
0.00110395
0.00107744
0.00107743
0.00110392
0.00107743
0.00107742
0.00110595
0.00107538
0.00110392
0.00107742
0.00107742
0.00107538
0.0010706
0.00104004
0.0010686
0.00106861
0.00104209
0.0010421
0.00107061
0.00104005
0.0010686
0.0010686
0.00104209
0.00104211
0.0010686
0.00104211
0.00104212
0.0010706
0.00104006
0.0010686
0.00104212
0.00104212
0.00104007
0.00103525
0.00100468
0.00103325
0.00103325
0.00100672
0.00100672
0.00103526
0.00100468
0.00103325
0.00103326
0.00100672
0.00100671
0.00103327
0.00100672
0.00100671
0.00103527
0.00100466
0.00103328
0.00100671
0.00100671
0.00100466
0.000999888
0.000969312
0.000997886
0.000997881
0.000971362
0.000971346
0.00099988
0.000969295
0.000997884
0.000997867
0.000971359
0.000971339
0.000997861
0.000971337
0.000971329
0.000999868
0.000969295
0.000997859
0.00097133
0.000971326
0.000969289
0.000964511
0.00093389
0.00096251
0.000962492
0.000935931
0.000935943
0.000964495
0.00093391
0.000962509
0.000962498
0.000935939
0.000935969
0.000962492
0.000935953
0.000935977
0.000964502
0.000933929
0.000962492
0.000935978
0.000935984
0.000933936
0.000929089
0.000898504
0.000927077
0.000927101
0.000900546
0.00090056
0.000929112
0.00089851
0.000927082
0.000927118
0.00090054
0.000900533
0.000927129
0.000900561
0.00090054
0.000929126
0.000898484
0.000927134
0.000900534
0.000900533
0.000898486
0.000893704
0.000863096
0.000891704
0.000891699
0.000865143
0.000865113
0.0008937
0.000863068
0.000891697
0.000891672
0.000865144
0.000865124
0.000891674
0.000865102
0.000865108
0.000893677
0.000863082
0.000891667
0.000865114
0.00086511
0.00086307
0.000858284
0.00082764
0.000856276
0.000856258
0.000829679
0.000829703
0.000858265
0.000827667
0.000856281
0.000856277
0.00082968
0.000829705
0.000856259
0.000829711
0.000829713
0.00085828
0.000827663
0.000856264
0.000829714
0.000829715
0.000827672
0.000822832
0.000792203
0.000820823
0.000820847
0.000794248
0.000794241
0.000822857
0.000792192
0.000820821
0.000820837
0.000794245
0.000794235
0.000820855
0.00079424
0.000794243
0.000822849
0.000792191
0.000820853
0.000794234
0.000794239
0.000792194
0.000787388
0.000756716
0.00078538
0.000785364
0.000758758
0.000758755
0.000787372
0.000756715
0.00078538
0.00078537
0.000758761
0.000758761
0.000785365
0.000758752
0.000758747
0.000787378
0.000756717
0.000785365
0.000758758
0.000758749
0.000756708
0.0007519
0.000721246
0.000749888
0.00074989
0.000723286
0.000723292
0.0007519
0.000721253
0.000749889
0.000749889
0.000723283
0.000723284
0.000749882
0.000723293
0.000723292
0.000751899
0.000721247
0.000749882
0.000723285
0.000723289
0.000721253
0.000716427
0.000685706
0.000714414
0.000714418
0.000687755
0.00068775
0.000716432
0.000685702
0.000714412
0.000714415
0.000687758
0.000687763
0.000714423
0.000687752
0.000687764
0.000716429
0.00068571
0.000714421
0.000687766
0.000687767
0.000685713
0.000680872
0.000650136
0.000678858
0.000678856
0.00065218
0.000652184
0.00068087
0.000650141
0.000678861
0.00067886
0.000652176
0.00065217
0.000678863
0.000652182
0.000652172
0.000680874
0.000650128
0.000678865
0.000652168
0.000652168
0.000650126
0.000645306
0.000614578
0.000643291
0.000643295
0.000616617
0.000616615
0.000645309
0.000614573
0.000643287
0.000643283
0.000616619
0.000616625
0.00064328
0.000616613
0.00061661
0.0006453
0.000614584
0.000643276
0.000616623
0.000616613
0.000614574
0.000609745
0.000578974
0.000607722
0.000607718
0.000581019
0.000581017
0.000609739
0.000578976
0.000607726
0.000607733
0.00058102
0.000581018
0.00060772
0.00058102
0.000581033
0.000609752
0.000578973
0.000607724
0.000581021
0.000581034
0.000578988
0.000574133
0.000543314
0.000572112
0.000572113
0.000545366
0.00054537
0.000574136
0.000543317
0.000572111
0.000572105
0.000545363
0.000545359
0.000572125
0.000545369
0.000545362
0.00057413
0.000543309
0.000572124
0.000545359
0.000545359
0.000543307
0.000538466
0.000507638
0.000536444
0.000536446
0.000509681
0.00050968
0.000538467
0.000507635
0.000536443
0.000536441
0.000509683
0.000509688
0.000536437
0.000509678
0.000509677
0.000538462
0.000507643
0.000536435
0.000509686
0.000509679
0.000507634
0.00050279
0.000471937
0.000500761
0.000500759
0.000473983
0.000473984
0.000502787
0.000471938
0.000500763
0.000500769
0.000473984
0.000473985
0.000500759
0.000473985
0.000473986
0.000502795
0.000471936
0.000500762
0.000473986
0.000473987
0.00047194
0.00046708
0.00043618
0.00046505
0.00046505
0.00043823
0.00043823
0.000467081
0.00043618
0.000465049
0.000465046
0.000438228
0.000438225
0.000465051
0.000438229
0.000438229
0.000467077
0.000436176
0.000465051
0.000438224
0.000438227
0.000436178
0.000431318
0.000400396
0.000429286
0.000429285
0.000402445
0.000402442
0.000431317
0.000400393
0.000429285
0.000429284
0.000402446
0.000402445
0.000429286
0.000402443
0.000402445
0.000431316
0.000400395
0.000429285
0.000402445
0.000402446
0.000400395
0.000395533
0.000364588
0.0003935
0.000393497
0.00036664
0.000366642
0.000395531
0.000364593
0.000393501
0.000393498
0.00036664
0.000366642
0.000393499
0.000366642
0.000366641
0.000395531
0.000364592
0.0003935
0.000366641
0.000366641
0.00036459
0.000359713
0.000328697
0.000357674
0.000357679
0.000330749
0.000330755
0.000359719
0.000328701
0.000357674
0.00035768
0.00033075
0.000330758
0.000357677
0.000330757
0.000330754
0.00035972
0.000328702
0.000357677
0.000330759
0.000330755
0.000328701
0.000323822
0.000292883
0.000321782
0.000321785
0.000294932
0.000294921
0.000323823
0.000292874
0.000321783
0.000321785
0.00029493
0.000294913
0.000321784
0.000294918
0.00029492
0.000323823
0.000292866
0.000321785
0.00029491
0.000294918
0.000292872
0.000288013
0.00025691
0.000285978
0.000285967
0.000258978
0.000258979
0.000288006
0.000256914
0.000285976
0.000285962
0.00025898
0.000258989
0.000285967
0.000258979
0.000258982
0.000288001
0.000256924
0.000285966
0.00025899
0.000258984
0.000256916
0.000251993
0.000220734
0.00024993
0.000249937
0.000222807
0.000222819
0.000251997
0.000220747
0.000249933
0.000249948
0.000222808
0.000222821
0.00024994
0.000222823
0.000222821
0.000252007
0.000220746
0.000249943
0.000222825
0.000222822
0.000220747
0.000215842
0.000184998
0.00021381
0.00021382
0.000187026
0.000187019
0.000215852
0.00018499
0.000213809
0.000213814
0.000187023
0.000187006
0.00021382
0.000187016
0.000187013
0.000215847
0.000184979
0.000213819
0.000187003
0.00018701
0.000184984
0.000180135
0.000149069
0.000178097
0.000178087
0.000151143
0.000151131
0.000180126
0.000149057
0.000178095
0.00017808
0.000151146
0.000151145
0.000178081
0.000151128
0.000151135
0.000180119
0.000149075
0.000178079
0.000151142
0.000151138
0.000149067
0.000144115
0.000112714
0.000142069
0.000142062
0.000114796
0.000114808
0.000144107
0.000112729
0.000142074
0.000142082
0.000114797
0.000114811
0.000142074
0.000114814
0.000114817
0.000144126
0.000112732
0.000142078
0.000114816
0.000114818
0.000112736
0.000107754
7.66541e-05
0.000105741
0.000105757
7.86766e-05
7.86796e-05
0.00010777
7.66528e-05
0.000105741
0.000105755
7.86725e-05
7.8663e-05
0.000105764
7.86776e-05
7.86602e-05
0.00010777
7.66362e-05
0.000105763
7.86609e-05
7.86569e-05
7.66331e-05
7.16966e-05
4.05954e-05
6.96956e-05
6.96907e-05
4.26335e-05
4.26221e-05
7.16884e-05
4.0581e-05
6.96914e-05
6.96775e-05
4.2633e-05
4.26201e-05
6.96687e-05
4.26168e-05
4.26182e-05
7.16769e-05
4.05784e-05
6.96653e-05
4.26155e-05
4.26178e-05
4.0582e-05
3.56296e-05
8.33858e-06
3.37781e-05
3.37636e-05
1.13352e-05
1.13387e-05
3.56182e-05
8.35185e-06
3.37767e-05
3.37584e-05
1.13347e-05
1.13381e-05
3.37705e-05
1.1343e-05
1.13523e-05
3.56153e-05
8.35146e-06
3.37696e-05
1.13448e-05
1.13557e-05
8.35621e-06
5.16128e-06
6.89877e-06
6.91105e-06
5.17759e-06
6.90329e-06
6.91503e-06
6.00964e-06
6.0201e-06
6.01206e-06
6.91225e-06
5.17954e-06
6.9191e-06
0.00362645
0.00363621
0.00363101
0.00363102
0.0036534
0.00364018
0.00366878
0.00363422
0.0036534
0.00364018
0.00363423
0.00366878
0.00364475
0.00367252
0.00367253
0.00358181
0.00360096
0.00361015
0.00357389
0.00357463
0.0035774
0.00358179
0.00360093
0.00361014
0.00357387
0.00360467
0.00360467
0.00360467
0.00356126
0.00356126
0.00356126
0.00356126
0.00357931
0.00360513
0.00360507
0.00358814
0.00360816
0.00357821
0.00358902
0.00357473
0.00357739
0.00357931
0.00360507
0.00360515
0.00358814
0.00360816
0.00358902
0.00357821
0.00361101
0.00361099
0.00358254
0.00357785
0.00357785
0.00353518
0.00355446
0.00355582
0.00353372
0.00355336
0.00353327
0.00353517
0.00355445
0.00355582
0.00353371
0.00354931
0.00354931
0.00354931
0.00351172
0.00351172
0.00351172
0.00351172
0.00353376
0.00355453
0.00354931
0.00353744
0.00355332
0.00353431
0.00353717
0.00355336
0.00353327
0.00353376
0.00354931
0.00355453
0.00353744
0.00355332
0.00353717
0.0035343
0.00355555
0.00355555
0.00353399
0.00353464
0.00353464
0.00348292
0.00350172
0.00350279
0.00348189
0.00350135
0.00348161
0.00348292
0.00350172
0.00350279
0.00348189
0.00349856
0.00349856
0.00349856
0.00345918
0.00345918
0.00345918
0.00345918
0.00348202
0.00350212
0.00349844
0.00348539
0.00350156
0.00348238
0.0034853
0.00350136
0.00348161
0.00348202
0.00349844
0.00350212
0.00348539
0.00350156
0.0034853
0.00348238
0.00350236
0.00350236
0.00348201
0.00348244
0.00348244
0.00343039
0.00344904
0.0034499
0.00342962
0.00344884
0.00342944
0.00343039
0.00344904
0.0034499
0.00342962
0.00344617
0.00344617
0.00344617
0.00340755
0.00340755
0.00340755
0.00340755
0.00342988
0.00344945
0.00344614
0.00343324
0.00344917
0.00343007
0.0034332
0.00344884
0.00342944
0.00342988
0.00344614
0.00344945
0.00343324
0.00344917
0.0034332
0.00343007
0.00344949
0.00344949
0.00342992
0.00343
0.00343
0.00337919
0.00339755
0.00339818
0.00337864
0.00339741
0.0033785
0.00337919
0.00339755
0.00339818
0.00337864
0.00339482
0.00339482
0.00339482
0.0033572
0.0033572
0.0033572
0.0033572
0.00337892
0.0033979
0.0033948
0.0033822
0.00339773
0.00337903
0.00338217
0.0033974
0.0033785
0.00337892
0.0033948
0.0033979
0.0033822
0.00339773
0.00338217
0.00337903
0.00339789
0.00339789
0.003379
0.00337894
0.00337894
0.00332955
0.0033475
0.00334795
0.00332915
0.00334739
0.00332903
0.00332955
0.0033475
0.00334795
0.00332915
0.00334485
0.00334485
0.00334485
0.00330833
0.00330833
0.00330833
0.00330833
0.00332943
0.0033478
0.00334483
0.0033326
0.00334768
0.0033295
0.00333257
0.00334738
0.00332904
0.00332943
0.00334483