/*--------------------------------*- C++ -*----------------------------------*\
| =========                 |                                                 |
| \\      /  F ield         | OpenFOAM: The Open Source CFD Toolbox           |
|  \\    /   O peration     | Version:  v2012                                 |
|   \\  /    A nd           | Website:  www.openfoam.com                      |
|    \\/     M anipulation  |                                                 |
\*---------------------------------------------------------------------------*/
FoamFile
{
    version     2.0;
    format      ascii;
    class       volScalarField;
    location    "300";
    object      epsilon;
}
// * * * * * * * * * * * * * * * * * * * * * * * * * * * * * * * * * * * * * //

dimensions      [0 2 -3 0 0 0 0];


internalField   nonuniform List<scalar> 
171728
(
3.90246e-09
1.05423e-08
5.63776e-09
5.01308e-09
3.88548e-09
9.5158e-09
5.22496e-09
4.54551e-09
3.86763e-09
7.42114e-09
4.82135e-09
4.12732e-09
3.85284e-09
5.06904e-09
4.46853e-09
3.76692e-09
3.84073e-09
3.66958e-09
4.15636e-09
3.45895e-09
3.82911e-09
2.99022e-09
3.87954e-09
3.19126e-09
3.82244e-09
2.70536e-09
3.64699e-09
2.95603e-09
3.81982e-09
2.59647e-09
3.45329e-09
2.76232e-09
3.82269e-09
2.54993e-09
3.26239e-09
2.60841e-09
3.83079e-09
2.53151e-09
3.09124e-09
2.48635e-09
3.84521e-09
2.5303e-09
2.97528e-09
2.3983e-09
3.8663e-09
2.55245e-09
2.92278e-09
2.34822e-09
3.8908e-09
2.61105e-09
2.8931e-09
2.34262e-09
3.92179e-09
2.73352e-09
2.87469e-09
2.39285e-09
3.95807e-09
2.93182e-09
2.92491e-09
2.5203e-09
4.00254e-09
3.24884e-09
3.1021e-09
2.77188e-09
4.05132e-09
3.74362e-09
3.52738e-09
3.21806e-09
4.10758e-09
4.50304e-09
4.24571e-09
3.99486e-09
4.17157e-09
5.67889e-09
5.28552e-09
5.35115e-09
4.23647e-09
7.54029e-09
6.88709e-09
7.67879e-09
4.30897e-09
1.03728e-08
9.32108e-09
1.15132e-08
4.40418e-09
1.47708e-08
1.30219e-08
1.79173e-08
4.53444e-09
2.12465e-08
1.81334e-08
3.14722e-08
4.71286e-09
3.08989e-08
2.52083e-08
4.7898e-08
4.93757e-09
3.93953e-08
3.34705e-08
7.71482e-08
5.26061e-09
5.52137e-08
4.7597e-08
1.09339e-07
5.6618e-09
6.50784e-08
6.30069e-08
1.64422e-07
6.18359e-09
7.61056e-08
7.83165e-08
2.25993e-07
6.91586e-09
1.08908e-07
1.02535e-07
2.90803e-07
7.66941e-09
1.15855e-07
1.2057e-07
3.81349e-07
8.70705e-09
1.47363e-07
1.44568e-07
4.50851e-07
1.02768e-08
1.77024e-07
1.79125e-07
5.24056e-07
1.19671e-08
2.08515e-07
2.10798e-07
6.02413e-07
1.43681e-08
2.47923e-07
2.42114e-07
6.59958e-07
1.70736e-08
2.74428e-07
2.85485e-07
7.12908e-07
2.09202e-08
3.32135e-07
3.20672e-07
7.74224e-07
2.54993e-08
3.63107e-07
3.71231e-07
8.02789e-07
2.99178e-08
4.12176e-07
4.08614e-07
8.59254e-07
3.90054e-08
4.60762e-07
4.6034e-07
9.01534e-07
4.49854e-08
5.05453e-07
5.09811e-07
9.24914e-07
5.52144e-08
5.60811e-07
5.57175e-07
9.60945e-07
6.46204e-08
6.0662e-07
5.99043e-07
9.88623e-07
8.10034e-08
6.4874e-07
6.61637e-07
1.03151e-06
9.56467e-08
7.12184e-07
7.0525e-07
1.04865e-06
1.06812e-07
7.40636e-07
7.36488e-07
1.07429e-06
1.30446e-07
7.89492e-07
8.00325e-07
1.11336e-06
1.50229e-07
8.37671e-07
8.30939e-07
1.13398e-06
1.68175e-07
8.70686e-07
8.7438e-07
1.16384e-06
1.96339e-07
9.05079e-07
9.05842e-07
1.18088e-06
2.18574e-07
9.49458e-07
9.44838e-07
1.21393e-06
2.52525e-07
9.72245e-07
9.76985e-07
1.23195e-06
2.73876e-07
1.00509e-06
1.00391e-06
1.25457e-06
3.09021e-07
1.03545e-06
1.03132e-06
1.27897e-06
3.35459e-07
1.05475e-06
1.06166e-06
1.29186e-06
3.6977e-07
1.08275e-06
1.07495e-06
1.3127e-06
3.93932e-07
1.09934e-06
1.10506e-06
1.32488e-06
4.2746e-07
1.1246e-06
1.12559e-06
1.34926e-06
4.5928e-07
1.13667e-06
1.13326e-06
1.35864e-06
4.77008e-07
1.15219e-06
1.15689e-06
1.36679e-06
5.05088e-07
1.16697e-06
1.16932e-06
1.37856e-06
5.32169e-07
1.18455e-06
1.18267e-06
1.39817e-06
5.55163e-07
1.18819e-06
1.18955e-06
1.4017e-06
5.6882e-07
1.19444e-06
1.19478e-06
1.4062e-06
6.01189e-07
1.22146e-06
1.22059e-06
1.44131e-06
6.11049e-07
1.20911e-06
1.20797e-06
1.42492e-06
5.97104e-07
1.1681e-06
1.16729e-06
1.37057e-06
5.89229e-07
1.15612e-06
1.15562e-06
1.3547e-06
6.24893e-07
1.20924e-06
1.20881e-06
1.42518e-06
6.85242e-07
1.26906e-06
1.26855e-06
1.50109e-06
7.18662e-07
1.30624e-06
1.30585e-06
1.54848e-06
7.24329e-07
1.30869e-06
1.30853e-06
1.55045e-06
6.85247e-07
1.23772e-06
1.23781e-06
1.4603e-06
6.26676e-07
1.15381e-06
1.1539e-06
1.35096e-06
5.94809e-07
1.11188e-06
1.11194e-06
1.30089e-06
5.955e-07
1.11263e-06
1.11265e-06
1.31421e-06
6.33182e-07
1.14081e-06
1.14085e-06
1.35518e-06
6.57671e-07
1.15986e-06
1.15992e-06
1.38704e-06
6.65363e-07
1.16879e-06
1.16886e-06
1.40575e-06
6.6669e-07
1.17188e-06
1.17195e-06
1.41472e-06
6.66678e-07
1.1728e-06
1.17287e-06
1.41846e-06
6.66406e-07
1.17288e-06
1.17295e-06
1.41982e-06
6.66073e-07
1.17273e-06
1.1728e-06
1.42004e-06
6.65975e-07
1.17268e-06
1.17275e-06
1.41988e-06
6.66005e-07
1.17278e-06
1.17285e-06
1.42031e-06
6.65944e-07
1.17268e-06
1.17275e-06
1.42e-06
6.65961e-07
1.17273e-06
1.1728e-06
1.42013e-06
6.65957e-07
1.17272e-06
1.17279e-06
1.42018e-06
6.65949e-07
1.17271e-06
1.17278e-06
1.41998e-06
6.65955e-07
1.17273e-06
1.17281e-06
1.42024e-06
6.65955e-07
1.17273e-06
1.1728e-06
1.42e-06
6.6596e-07
1.17275e-06
1.17282e-06
1.42019e-06
6.65965e-07
1.17276e-06
1.17284e-06
1.42e-06
6.65965e-07
1.17281e-06
1.17288e-06
1.42018e-06
6.65715e-07
1.17251e-06
1.17257e-06
1.41967e-06
6.47305e-07
1.11649e-06
1.11648e-06
1.37817e-06
5.20384e-09
4.08237e-09
4.06069e-09
4.87694e-09
4.09755e-09
4.00632e-09
3.902e-09
4.15328e-09
4.00153e-09
3.91658e-09
5.0916e-09
4.28804e-09
4.97315e-09
4.27491e-09
4.2441e-09
5.04291e-09
5.18185e-09
4.72187e-09
4.18587e-09
4.58634e-09
4.00782e-09
4.34946e-09
4.82083e-09
4.59616e-09
4.50733e-09
4.09379e-09
4.23491e-09
3.92564e-09
4.71139e-09
9.85973e-09
4.40593e-09
4.94718e-09
4.55371e-09
5.08028e-09
5.33175e-09
4.76261e-09
4.5805e-09
4.69024e-09
4.27293e-09
3.94151e-09
4.26597e-09
3.7502e-09
4.02251e-09
4.53452e-09
4.2867e-09
4.13982e-09
3.86252e-09
3.87452e-09
3.68337e-09
4.30013e-09
8.04684e-09
3.99891e-09
4.49049e-09
4.16343e-09
4.65197e-09
4.91696e-09
4.34079e-09
4.15805e-09
4.24554e-09
3.89098e-09
3.68982e-09
3.94238e-09
3.51441e-09
3.70618e-09
4.19495e-09
3.82579e-09
3.7916e-09
3.6276e-09
3.55966e-09
3.46729e-09
3.90669e-09
5.57697e-09
3.65324e-09
4.10479e-09
3.83092e-09
4.24412e-09
4.55285e-09
3.97991e-09
3.7933e-09
3.86716e-09
3.56327e-09
3.45754e-09
3.62749e-09
3.29364e-09
3.38923e-09
3.79326e-09
3.45792e-09
3.48798e-09
3.41665e-09
3.28819e-09
3.27356e-09
3.57463e-09
3.93197e-09
3.35283e-09
3.77947e-09
3.54235e-09
3.89834e-09
4.23085e-09
3.66308e-09
3.48157e-09
3.54271e-09
3.283e-09
3.24169e-09
3.31275e-09
3.09423e-09
3.10852e-09
3.42758e-09
3.13355e-09
3.22767e-09
3.22893e-09
3.06388e-09
3.10519e-09
3.28513e-09
3.11458e-09
3.10081e-09
3.50755e-09
3.29288e-09
3.58776e-09
3.94487e-09
3.37415e-09
3.2102e-09
3.266e-09
3.04054e-09
3.0486e-09
3.04972e-09
2.93037e-09
2.89983e-09
3.11368e-09
2.90038e-09
3.01409e-09
3.06792e-09
2.875e-09
2.96839e-09
3.04609e-09
2.75331e-09
2.89665e-09
3.27407e-09
3.07098e-09
3.30716e-09
3.6995e-09
3.10849e-09
2.97111e-09
3.02733e-09
2.84248e-09
2.89772e-09
2.8589e-09
2.81441e-09
2.74934e-09
2.88763e-09
2.71795e-09
2.8315e-09
2.93966e-09
2.7116e-09
2.86392e-09
2.85251e-09
2.6132e-09
2.73525e-09
3.05601e-09
2.88998e-09
3.04808e-09
3.5004e-09
2.88926e-09
2.77223e-09
2.83347e-09
2.68394e-09
2.79125e-09
2.71784e-09
2.73467e-09
2.63561e-09
2.70949e-09
2.5849e-09
2.6752e-09
2.84158e-09
2.58245e-09
2.7896e-09
2.70014e-09
2.55946e-09
2.61222e-09
2.87881e-09
2.73689e-09
2.84313e-09
3.31012e-09
2.72136e-09
2.61457e-09
2.67867e-09
2.55807e-09
2.7202e-09
2.61325e-09
2.68584e-09
2.56937e-09
2.58192e-09
2.48499e-09
2.55677e-09
2.77578e-09
2.49764e-09
2.74791e-09
2.58718e-09
2.53311e-09
2.53105e-09
2.72952e-09
2.62115e-09
2.68607e-09
3.12979e-09
2.59674e-09
2.48787e-09
2.55692e-09
2.46878e-09
2.67815e-09
2.56154e-09
2.66547e-09
2.55948e-09
2.48509e-09
2.41276e-09
2.48209e-09
2.74291e-09
2.45537e-09
2.74102e-09
2.51635e-09
2.52873e-09
2.4904e-09
2.6192e-09
2.54233e-09
2.57231e-09
2.99796e-09
2.51688e-09
2.39571e-09
2.4718e-09
2.41688e-09
2.66616e-09
2.56332e-09
2.67972e-09
2.59401e-09
2.41627e-09
2.37213e-09
2.45034e-09
2.74427e-09
2.45529e-09
2.768e-09
2.48555e-09
2.54432e-09
2.48913e-09
2.54452e-09
2.49454e-09
2.50423e-09
2.93186e-09
2.48416e-09
2.3398e-09
2.42594e-09
2.40451e-09
2.68808e-09
2.60887e-09
2.73043e-09
2.66854e-09
2.3821e-09
2.36623e-09
2.46224e-09
2.78004e-09
2.4984e-09
2.83265e-09
2.49526e-09
2.59148e-09
2.53298e-09
2.50286e-09
2.47377e-09
2.48502e-09
2.89929e-09
2.50683e-09
2.32409e-09
2.42297e-09
2.44102e-09
2.74994e-09
2.69388e-09
2.83536e-09
2.79277e-09
2.38546e-09
2.40742e-09
2.51646e-09
2.85645e-09
2.59003e-09
2.94744e-09
2.55186e-09
2.69629e-09
2.63304e-09
2.48937e-09
2.48006e-09
2.52305e-09
2.87366e-09
2.5991e-09
2.36054e-09
2.47307e-09
2.54589e-09
2.87083e-09
2.83315e-09
3.01576e-09
2.9853e-09
2.43999e-09
2.51447e-09
2.62283e-09
2.98665e-09
2.75349e-09
3.141e-09
2.66841e-09
2.87331e-09
2.8097e-09
2.50757e-09
2.55131e-09
2.63392e-09
2.90315e-09
2.77557e-09
2.46448e-09
2.60148e-09
2.75438e-09
3.07263e-09
3.04814e-09
3.30299e-09
3.28923e-09
2.56974e-09
2.72298e-09
2.80695e-09
3.20398e-09
3.0161e-09
3.45081e-09
2.86851e-09
3.15879e-09
3.09249e-09
2.60064e-09
2.73493e-09
2.83533e-09
3.05074e-09
3.05683e-09
2.67491e-09
2.85008e-09
3.13335e-09
3.39857e-09
3.38952e-09
3.75275e-09
3.75649e-09
2.81744e-09
3.09605e-09
3.10676e-09
3.54587e-09
3.44024e-09
3.92194e-09
3.19031e-09
3.59825e-09
3.53323e-09
2.82012e-09
3.10603e-09
3.15352e-09
3.39769e-09
3.50196e-09
3.05622e-09
3.29472e-09
3.79071e-09
3.9005e-09
3.91393e-09
4.44012e-09
4.47049e-09
3.25134e-09
3.75703e-09
3.58299e-09
4.07537e-09
4.106e-09
4.64718e-09
3.68315e-09
4.28621e-09
4.22935e-09
3.25846e-09
3.74872e-09
3.64958e-09
4.02012e-09
4.18648e-09
3.72941e-09
4.06023e-09
4.89987e-09
4.67002e-09
4.67967e-09
5.44922e-09
5.61807e-09
3.99169e-09
4.95213e-09
4.32773e-09
4.89028e-09
5.09693e-09
5.72614e-09
4.45037e-09
5.34381e-09
5.26701e-09
4.03734e-09
4.89595e-09
4.40874e-09
4.98919e-09
5.22557e-09
4.88696e-09
5.35099e-09
6.91895e-09
5.79284e-09
5.89442e-09
6.9656e-09
7.02537e-09
5.37544e-09
6.94047e-09
5.44205e-09
6.06908e-09
6.60568e-09
7.36086e-09
5.60513e-09
6.98593e-09
6.80021e-09
5.2857e-09
6.83447e-09
5.55805e-09
6.40976e-09
6.75178e-09
6.85605e-09
7.60197e-09
1.06207e-08
7.44265e-09
7.51966e-09
9.26006e-09
9.10947e-09
7.74182e-09
1.01803e-08
7.10772e-09
7.90624e-09
8.92705e-09
1.00048e-08
7.33539e-09
9.41178e-09
9.0543e-09
7.52293e-09
1.08109e-08
7.29094e-09
8.72621e-09
9.01142e-09
1.03811e-08
1.17301e-08
1.6764e-08
9.90503e-09
1.00158e-08
1.25533e-08
1.21665e-08
1.15251e-08
1.75027e-08
9.59232e-09
1.06858e-08
1.22892e-08
1.37546e-08
9.81623e-09
1.35427e-08
1.21667e-08
1.18616e-08
1.72499e-08
9.74691e-09
1.20286e-08
1.21054e-08
1.63454e-08
1.90316e-08
2.60202e-08
1.35901e-08
1.30214e-08
1.67427e-08
1.68607e-08
1.8963e-08
2.86825e-08
1.33937e-08
1.48473e-08
1.68277e-08
1.86235e-08
1.32001e-08
1.96933e-08
1.71609e-08
1.95925e-08
2.69827e-08
1.31443e-08
1.65711e-08
1.71169e-08
2.87426e-08
2.88161e-08
4.4712e-08
1.81829e-08
1.79301e-08
2.33929e-08
2.36416e-08
3.16723e-08
4.52996e-08
1.83471e-08
2.01798e-08
2.36613e-08
2.54335e-08
1.82703e-08
2.72398e-08
2.30425e-08
3.06119e-08
4.38219e-08
1.8223e-08
2.27783e-08
2.28742e-08
4.20119e-08
4.87299e-08
7.09068e-08
2.52945e-08
2.68555e-08
3.17615e-08
3.29372e-08
5.31028e-08
7.70426e-08
2.5668e-08
2.72213e-08
3.28578e-08
3.43786e-08
2.51853e-08
3.82029e-08
3.18626e-08
4.82416e-08
6.96733e-08
2.50224e-08
3.12842e-08
3.17864e-08
7.06631e-08
7.65682e-08
1.04381e-07
3.38292e-08
3.39234e-08
4.21367e-08
4.43204e-08
7.90849e-08
9.85674e-08
3.51619e-08
3.64294e-08
4.37838e-08
4.49305e-08
3.41655e-08
4.97379e-08
4.19034e-08
7.55591e-08
1.04449e-07
3.3952e-08
4.45775e-08
4.17481e-08
1.0111e-07
1.13496e-07
1.56499e-07
4.59241e-08
5.03133e-08
5.55008e-08
6.08373e-08
1.16864e-07
1.75166e-07
4.79644e-08
4.89444e-08
5.83026e-08
5.69892e-08
4.52778e-08
6.40852e-08
5.60198e-08
1.14879e-07
1.54484e-07
4.53319e-08
5.79195e-08
5.52872e-08
1.55135e-07
1.67696e-07
2.11809e-07
5.90995e-08
6.38565e-08
7.31787e-08
7.64606e-08
1.79077e-07
2.01444e-07
6.16079e-08
6.04807e-08
7.69698e-08
7.45808e-08
5.93573e-08
7.04442e-08
7.19907e-08
1.61873e-07
2.20436e-07
5.85919e-08
7.49935e-08
7.28394e-08
2.10137e-07
2.27814e-07
2.80592e-07
7.69384e-08
8.12647e-08
9.1503e-08
1.03018e-07
2.17537e-07
3.10876e-07
8.11897e-08
7.74365e-08
9.47335e-08
9.11948e-08
7.69457e-08
1.03059e-07
9.05937e-08
2.32431e-07
2.69856e-07
7.75133e-08
9.57574e-08
8.92088e-08
2.80762e-07
2.96148e-07
3.77915e-07
9.93956e-08
1.09936e-07
1.16559e-07
1.19058e-07
3.33011e-07
3.59425e-07
1.02179e-07
9.8811e-08
1.20742e-07
1.15912e-07
9.58388e-08
1.14396e-07
1.14212e-07
2.91794e-07
3.74523e-07
9.46118e-08
1.17222e-07
1.1462e-07
3.61608e-07
3.87941e-07
4.21009e-07
1.19523e-07
1.20174e-07
1.37707e-07
1.36339e-07
3.62632e-07
4.1628e-07
1.24107e-07
1.19333e-07
1.38621e-07
1.34837e-07
1.20049e-07
1.35798e-07
1.39213e-07
3.82416e-07
4.13487e-07
1.21096e-07
1.3556e-07
1.37902e-07
4.35967e-07
4.41343e-07
5.26043e-07
1.46549e-07
1.48294e-07
1.68337e-07
1.80659e-07
4.50398e-07
5.26998e-07
1.45279e-07
1.44486e-07
1.67931e-07
1.70135e-07
1.45892e-07
1.72748e-07
1.65111e-07
4.33854e-07
5.25764e-07
1.43135e-07
1.7168e-07
1.66479e-07
5.0671e-07
5.37927e-07
5.84374e-07
1.76941e-07
1.86293e-07
2.01818e-07
2.04832e-07
5.36924e-07
5.79739e-07
1.7817e-07
1.76541e-07
2.05336e-07
2.00595e-07
1.7376e-07
1.96511e-07
2.01857e-07
5.40424e-07
5.7948e-07
1.76643e-07
2.03388e-07
2.00368e-07
5.8821e-07
6.00384e-07
6.41598e-07
2.07354e-07
2.15149e-07
2.30728e-07
2.45221e-07
5.97917e-07
6.55906e-07
2.10816e-07
2.08374e-07
2.3128e-07
2.31103e-07
2.09698e-07
2.42199e-07
2.35407e-07
5.92404e-07
6.50539e-07
2.06927e-07
2.31684e-07
2.35808e-07
6.4727e-07
6.56614e-07
7.10223e-07
2.43846e-07
2.51256e-07
2.75538e-07
2.67419e-07
6.67113e-07
6.93752e-07
2.43026e-07
2.41674e-07
2.73331e-07
2.78025e-07
2.45034e-07
2.64301e-07
2.67983e-07
6.66705e-07
7.0476e-07
2.4617e-07
2.77257e-07
2.67967e-07
6.98699e-07
7.21806e-07
7.53444e-07
2.82178e-07
2.7622e-07
3.11077e-07
3.19757e-07
7.06408e-07
7.62913e-07
2.80092e-07
2.87013e-07
3.1097e-07
3.08015e-07
2.76349e-07
3.20065e-07
3.18382e-07
7.18044e-07
7.54095e-07
2.75914e-07
3.07757e-07
3.1697e-07
7.62966e-07
7.66568e-07
8.04231e-07
3.23185e-07
3.33101e-07
3.58201e-07
3.5852e-07
7.76973e-07
8.03007e-07
3.24083e-07
3.19272e-07
3.57605e-07
3.63461e-07
3.33112e-07
3.54489e-07
3.59194e-07
7.66303e-07
8.08623e-07
3.31606e-07
3.62665e-07
3.57714e-07
7.95021e-07
8.13934e-07
8.40216e-07
3.68628e-07
3.68003e-07
3.95769e-07
4.06788e-07
8.12696e-07
8.44099e-07
3.65974e-07
3.73302e-07
3.93168e-07
4.0085e-07
3.64372e-07
4.01076e-07
3.93514e-07
8.19697e-07
8.40302e-07
3.6298e-07
3.98431e-07
3.93903e-07
8.41273e-07
8.51942e-07
8.86971e-07
4.06589e-07
4.16728e-07
4.52305e-07
4.44659e-07
8.55501e-07
8.82102e-07
4.06685e-07
4.10749e-07
4.54802e-07
4.4594e-07
4.11678e-07
4.4595e-07
4.66686e-07
8.50225e-07
8.85274e-07
4.1291e-07
4.44689e-07
4.66109e-07
8.95686e-07
8.97112e-07
9.18652e-07
4.67506e-07
4.59117e-07
4.97255e-07
4.98663e-07
8.92058e-07
9.18213e-07
4.67818e-07
4.60982e-07
4.92895e-07
4.98353e-07
4.76958e-07
4.97072e-07
4.96924e-07
8.96241e-07
9.2034e-07
4.75564e-07
5.01173e-07
4.9482e-07
9.15271e-07
9.2701e-07
9.49196e-07
5.05974e-07
5.06989e-07
5.45636e-07
5.42326e-07
9.26799e-07
9.53351e-07
5.01956e-07
5.06542e-07
5.45161e-07
5.41666e-07
5.04538e-07
5.4398e-07
5.4249e-07
9.28423e-07
9.49518e-07
5.03024e-07
5.42173e-07
5.44089e-07
9.52883e-07
9.57724e-07
9.81975e-07
5.57899e-07
5.59294e-07
5.86896e-07
5.99232e-07
9.63607e-07
9.82068e-07
5.58966e-07
5.57875e-07
5.88236e-07
5.93879e-07
5.59093e-07
5.99064e-07
5.94159e-07
9.58356e-07
9.81479e-07
5.60387e-07
5.89939e-07
5.92841e-07
9.79687e-07
9.92583e-07
1.02105e-06
6.00147e-07
6.07238e-07
6.49893e-07
6.34721e-07
9.88111e-07
1.01212e-06
5.99875e-07
6.0255e-07
6.48208e-07
6.43123e-07
6.03162e-07
6.33567e-07
6.44044e-07
9.9002e-07
1.02011e-06
6.01756e-07
6.44016e-07
6.4419e-07
1.02269e-06
1.02824e-06
1.04176e-06
6.64634e-07
6.49854e-07
6.94367e-07
7.01491e-07
1.02456e-06
1.05308e-06
6.63338e-07
6.6038e-07
6.93405e-07
6.97448e-07
6.61026e-07
7.00825e-07
6.97462e-07
1.02946e-06
1.04538e-06
6.61622e-07
6.98343e-07
6.97533e-07
1.04378e-06
1.04782e-06
1.06856e-06
7.00884e-07
7.12961e-07
7.27676e-07
7.34532e-07
1.05817e-06
1.06661e-06
6.99964e-07
7.0472e-07
7.278e-07
7.27216e-07
7.04712e-07
7.33321e-07
7.25717e-07
1.05045e-06
1.06635e-06
7.04619e-07
7.25497e-07
7.2565e-07
1.0657e-06
1.07794e-06
1.10577e-06
7.42655e-07
7.41752e-07
7.85339e-07
7.76568e-07
1.07317e-06
1.10071e-06
7.4332e-07
7.38904e-07
7.84315e-07
7.85581e-07
7.36775e-07
7.75388e-07
7.84766e-07
1.07507e-06
1.10631e-06
7.36676e-07
7.85584e-07
7.84941e-07
1.10551e-06
1.11218e-06
1.128e-06
7.95128e-07
7.91264e-07
8.25023e-07
8.26506e-07
1.10993e-06
1.13103e-06
7.93117e-07
7.99631e-07
8.24434e-07
8.24818e-07
7.97117e-07
8.26972e-07
8.2158e-07
1.11446e-06
1.12913e-06
7.97413e-07
8.25386e-07
8.21435e-07
1.12769e-06
1.13485e-06
1.15266e-06
8.34541e-07
8.35558e-07
8.59615e-07
8.62595e-07
1.13737e-06
1.15379e-06
8.34956e-07
8.30496e-07
8.58925e-07
8.60053e-07
8.32368e-07
8.6373e-07
8.67584e-07
1.13381e-06
1.15171e-06
8.31878e-07
8.60414e-07
8.66951e-07
1.1579e-06
1.15866e-06
1.17929e-06
8.70021e-07
8.71787e-07
9.02024e-07
8.97037e-07
1.15941e-06
1.17544e-06
8.6838e-07
8.74316e-07
9.01776e-07
9.02919e-07
8.74727e-07
8.94265e-07
8.95611e-07
1.161e-06
1.18097e-06
8.74263e-07
9.00926e-07
8.95042e-07
1.17464e-06
1.18624e-06
1.20212e-06
9.09267e-07
9.05913e-07
9.33037e-07
9.37452e-07
1.18233e-06
1.20607e-06
9.09924e-07
9.08117e-07
9.32949e-07
9.31877e-07
9.05988e-07
9.40378e-07
9.37901e-07
1.185e-06
1.199e-06
9.05423e-07
9.31674e-07
9.3902e-07
1.2074e-06
1.20854e-06
1.23066e-06
9.44652e-07
9.47374e-07
9.73153e-07
9.67983e-07
1.21308e-06
1.22644e-06
9.43921e-07
9.43749e-07
9.7153e-07
9.70995e-07
9.4749e-07
9.66557e-07
9.70309e-07
1.20798e-06
1.23094e-06
9.4842e-07
9.71935e-07
9.68436e-07
1.22718e-06
1.23546e-06
1.24442e-06
9.77898e-07
9.73933e-07
9.93942e-07
9.97078e-07
1.23068e-06
1.24648e-06
9.76316e-07
9.77472e-07
9.93839e-07
9.97279e-07
9.75762e-07
9.96276e-07
9.95612e-07
1.23532e-06
1.24607e-06
9.74399e-07
9.96324e-07
9.99376e-07
1.24754e-06
1.25044e-06
1.27353e-06
1.0035e-06
1.00553e-06
1.02947e-06
1.02812e-06
1.25389e-06
1.27246e-06
1.00385e-06
1.00359e-06
1.02921e-06
1.02393e-06
1.00524e-06
1.02908e-06
1.03212e-06
1.25193e-06
1.26832e-06
1.00894e-06
1.0239e-06
1.03025e-06
1.27439e-06
1.27815e-06
1.28717e-06
1.03381e-06
1.03429e-06
1.04974e-06
1.05039e-06
1.27734e-06
1.28758e-06
1.03371e-06
1.03263e-06
1.05026e-06
1.05656e-06
1.03741e-06
1.04992e-06
1.04872e-06
1.27408e-06
1.29309e-06
1.03501e-06
1.0559e-06
1.05175e-06
1.28709e-06
1.29296e-06
1.311e-06
1.05827e-06
1.05599e-06
1.07948e-06
1.07593e-06
1.2922e-06
1.30709e-06
1.0584e-06
1.06109e-06
1.07817e-06
1.07041e-06
1.05459e-06
1.07539e-06
1.0781e-06
1.29813e-06
1.30339e-06
1.05834e-06
1.07107e-06
1.07483e-06
1.30785e-06
1.3148e-06
1.31941e-06
1.08318e-06
1.08274e-06
1.09215e-06
1.09631e-06
1.31299e-06
1.32474e-06
1.08164e-06
1.07549e-06
1.09092e-06
1.09842e-06
1.08407e-06
1.09602e-06
1.09356e-06
1.30689e-06
1.32643e-06
1.07911e-06
1.09672e-06
1.09257e-06
1.32072e-06
1.32368e-06
1.34464e-06
1.09731e-06
1.09958e-06
1.12015e-06
1.11692e-06
1.32832e-06
1.34073e-06
1.09651e-06
1.10559e-06
1.12094e-06
1.12158e-06
1.0973e-06
1.11768e-06
1.11895e-06
1.33376e-06
1.34704e-06
1.09867e-06
1.1225e-06
1.12069e-06
1.34296e-06
1.35098e-06
1.35785e-06
1.12708e-06
1.12379e-06
1.13666e-06
1.13505e-06
1.34671e-06
1.35501e-06
1.12829e-06
1.12518e-06
1.13815e-06
1.1314e-06
1.1266e-06
1.13539e-06
1.13812e-06
1.34998e-06
1.34975e-06
1.12666e-06
1.13093e-06
1.13479e-06
1.3568e-06
1.35945e-06
1.36085e-06
1.13748e-06
1.1367e-06
1.14544e-06
1.1484e-06
1.35702e-06
1.36341e-06
1.13871e-06
1.13339e-06
1.14422e-06
1.14781e-06
1.13927e-06
1.1462e-06
1.14642e-06
1.3519e-06
1.36518e-06
1.13588e-06
1.14931e-06
1.14456e-06
1.36196e-06
1.36589e-06
1.37911e-06
1.15103e-06
1.15467e-06
1.16323e-06
1.16527e-06
1.36948e-06
1.38139e-06
1.14911e-06
1.1554e-06
1.16375e-06
1.16868e-06
1.15092e-06
1.16463e-06
1.16052e-06
1.37273e-06
1.38464e-06
1.14978e-06
1.16836e-06
1.16065e-06
1.37561e-06
1.38216e-06
1.39139e-06
1.16544e-06
1.16713e-06
1.1785e-06
1.17943e-06
1.38409e-06
1.39298e-06
1.16668e-06
1.16991e-06
1.1793e-06
1.17785e-06
1.16305e-06
1.18e-06
1.17858e-06
1.38669e-06
1.39076e-06
1.16362e-06
1.17767e-06
1.18013e-06
1.39223e-06
1.39655e-06
1.39918e-06
1.18351e-06
1.18418e-06
1.18896e-06
1.18876e-06
1.39797e-06
1.39868e-06
1.18382e-06
1.18236e-06
1.18842e-06
1.18826e-06
1.18396e-06
1.18862e-06
1.18893e-06
1.3954e-06
1.39903e-06
1.18551e-06
1.18967e-06
1.19044e-06
1.40076e-06
1.40018e-06
1.40017e-06
1.18874e-06
1.18839e-06
1.19001e-06
1.1895e-06
1.39961e-06
1.39898e-06
1.18814e-06
1.18814e-06
1.18957e-06
1.1898e-06
1.18852e-06
1.18942e-06
1.18942e-06
1.40001e-06
1.39946e-06
1.18996e-06
1.19046e-06
1.19035e-06
1.40027e-06
1.40653e-06
1.43696e-06
1.19493e-06
1.19435e-06
1.21815e-06
1.21784e-06
1.40536e-06
1.43632e-06
1.19473e-06
1.19506e-06
1.21809e-06
1.21807e-06
1.19405e-06
1.21804e-06
1.21776e-06
1.40568e-06
1.43589e-06
1.19427e-06
1.21735e-06
1.21709e-06
1.43635e-06
1.44171e-06
1.42651e-06
1.22149e-06
1.22127e-06
1.21714e-06
1.2171e-06
1.44119e-06
1.42653e-06
1.22138e-06
1.22121e-06
1.21694e-06
1.21638e-06
1.2214e-06
1.21714e-06
1.21754e-06
1.4406e-06
1.42533e-06
1.22067e-06
1.21602e-06
1.21684e-06
1.4268e-06
1.42459e-06
1.37202e-06
1.20909e-06
1.20909e-06
1.17772e-06
1.17781e-06
1.42465e-06
1.37226e-06
1.20889e-06
1.2083e-06
1.17753e-06
1.17698e-06
1.20956e-06
1.17776e-06
1.17831e-06
1.42342e-06
1.37132e-06
1.20889e-06
1.17682e-06
1.17783e-06
1.37264e-06
1.36996e-06
1.35015e-06
1.16807e-06
1.16812e-06
1.15553e-06
1.15544e-06
1.37018e-06
1.35008e-06
1.16791e-06
1.16744e-06
1.15545e-06
1.15515e-06
1.16864e-06
1.15549e-06
1.15596e-06
1.36932e-06
1.3499e-06
1.16822e-06
1.15495e-06
1.15567e-06
1.35053e-06
1.35441e-06
1.40774e-06
1.15618e-06
1.15606e-06
1.19082e-06
1.19055e-06
1.35426e-06
1.40737e-06
1.15611e-06
1.15584e-06
1.19085e-06
1.19078e-06
1.15659e-06
1.1907e-06
1.19106e-06
1.3542e-06
1.40759e-06
1.1563e-06
1.19031e-06
1.19078e-06
1.40772e-06
1.42523e-06
1.48846e-06
1.20935e-06
1.20912e-06
1.25661e-06
1.25659e-06
1.42488e-06
1.48835e-06
1.20936e-06
1.20932e-06
1.25652e-06
1.2565e-06
1.20956e-06
1.2566e-06
1.25679e-06
1.42506e-06
1.48822e-06
1.20926e-06
1.25609e-06
1.2565e-06
1.48847e-06
1.50106e-06
1.54022e-06
1.26903e-06
1.26907e-06
1.29923e-06
1.2994e-06
1.50101e-06
1.54035e-06
1.26893e-06
1.26891e-06
1.29911e-06
1.29909e-06
1.26923e-06
1.29934e-06
1.29947e-06
1.50082e-06
1.54e-06
1.26896e-06
1.2989e-06
1.29926e-06
1.5404e-06
1.54828e-06
1.55127e-06
1.30614e-06
1.30632e-06
1.31207e-06
1.31226e-06
1.54844e-06
1.55143e-06
1.30601e-06
1.30599e-06
1.31194e-06
1.31194e-06
1.30637e-06
1.31216e-06
1.31227e-06
1.54807e-06
1.55115e-06
1.30619e-06
1.3119e-06
1.31214e-06
1.55148e-06
1.55024e-06
1.46864e-06
1.30863e-06
1.30881e-06
1.26059e-06
1.2607e-06
1.5504e-06
1.4687e-06
1.3085e-06
1.30851e-06
1.26046e-06
1.26052e-06
1.30879e-06
1.26058e-06
1.26065e-06
1.55014e-06
1.4687e-06
1.3087e-06
1.26064e-06
1.26064e-06
1.46875e-06
1.46019e-06
1.3566e-06
1.23773e-06
1.23782e-06
1.17191e-06
1.17195e-06
1.46025e-06
1.35658e-06
1.23761e-06
1.23769e-06
1.17179e-06
1.17194e-06
1.23777e-06
1.17186e-06
1.17192e-06
1.46026e-06
1.35675e-06
1.23777e-06
1.17196e-06
1.17191e-06
1.35665e-06
1.35091e-06
1.30063e-06
1.15385e-06
1.15388e-06
1.11778e-06
1.1178e-06
1.35089e-06
1.30058e-06
1.15373e-06
1.15389e-06
1.11765e-06
1.11784e-06
1.15386e-06
1.11771e-06
1.1178e-06
1.35106e-06
1.30076e-06
1.15384e-06
1.11778e-06
1.11774e-06
1.30067e-06
1.30084e-06
1.30629e-06
1.11196e-06
1.11197e-06
1.10876e-06
1.10879e-06
1.3008e-06
1.30624e-06
1.11183e-06
1.11202e-06
1.10863e-06
1.10882e-06
1.11198e-06
1.10868e-06
1.1088e-06
1.30097e-06
1.30636e-06
1.11191e-06
1.10872e-06
1.1087e-06
1.30634e-06
1.31416e-06
1.34656e-06
1.11272e-06
1.11275e-06
1.13455e-06
1.1346e-06
1.31411e-06
1.34651e-06
1.1126e-06
1.11276e-06
1.13445e-06
1.1346e-06
1.11277e-06
1.13447e-06
1.13461e-06
1.31422e-06
1.3466e-06
1.11265e-06
1.13451e-06
1.1345e-06
1.34662e-06
1.35513e-06
1.3805e-06
1.14089e-06
1.14094e-06
1.15619e-06
1.15624e-06
1.35509e-06
1.38045e-06
1.14079e-06
1.14094e-06
1.1561e-06
1.15625e-06
1.14096e-06
1.15612e-06
1.15626e-06
1.35517e-06
1.38054e-06
1.14085e-06
1.15617e-06
1.15617e-06
1.38057e-06
1.38698e-06
1.4014e-06
1.15994e-06
1.15998e-06
1.16738e-06
1.16742e-06
1.38693e-06
1.40135e-06
1.15985e-06
1.16e-06
1.1673e-06
1.16745e-06
1.16001e-06
1.1673e-06
1.16746e-06
1.38701e-06
1.40143e-06
1.15992e-06
1.16737e-06
1.16737e-06
1.40147e-06
1.40568e-06
1.41177e-06
1.16887e-06
1.16891e-06
1.17147e-06
1.17151e-06
1.40563e-06
1.41171e-06
1.16879e-06
1.16894e-06
1.17138e-06
1.17154e-06
1.16896e-06
1.17139e-06
1.17155e-06
1.40572e-06
1.4118e-06
1.16887e-06
1.17146e-06
1.17147e-06
1.41184e-06
1.41465e-06
1.41621e-06
1.17197e-06
1.172e-06
1.17275e-06
1.17279e-06
1.4146e-06
1.41616e-06
1.17188e-06
1.17203e-06
1.17266e-06
1.17282e-06
1.17205e-06
1.17267e-06
1.17284e-06
1.41468e-06
1.41625e-06
1.17196e-06
1.17274e-06
1.17275e-06
1.41629e-06
1.41839e-06
1.41785e-06
1.17288e-06
1.17292e-06
1.17297e-06
1.17301e-06
1.41834e-06
1.4178e-06
1.1728e-06
1.17295e-06
1.17288e-06
1.17304e-06
1.17297e-06
1.17289e-06
1.17305e-06
1.41842e-06
1.41788e-06
1.17288e-06
1.17296e-06
1.17297e-06
1.41793e-06
1.41974e-06
1.41812e-06
1.17296e-06
1.173e-06
1.17284e-06
1.17288e-06
1.41969e-06
1.41807e-06
1.17288e-06
1.17303e-06
1.17276e-06
1.17291e-06
1.17305e-06
1.17276e-06
1.17293e-06
1.41977e-06
1.41816e-06
1.17296e-06
1.17283e-06
1.17284e-06
1.4182e-06
1.41996e-06
1.41797e-06
1.17281e-06
1.17285e-06
1.17274e-06
1.17278e-06
1.41991e-06
1.41792e-06
1.17272e-06
1.17288e-06
1.17265e-06
1.17281e-06
1.17289e-06
1.17266e-06
1.17283e-06
1.41999e-06
1.41801e-06
1.17281e-06
1.17273e-06
1.17274e-06
1.41804e-06
1.4198e-06
1.41842e-06
1.17276e-06
1.1728e-06
1.17285e-06
1.17289e-06
1.41976e-06
1.41837e-06
1.17267e-06
1.17283e-06
1.17277e-06
1.17292e-06
1.17284e-06
1.17277e-06
1.17294e-06
1.41984e-06
1.41845e-06
1.17275e-06
1.17284e-06
1.17285e-06
1.41849e-06
1.42024e-06
1.41816e-06
1.17286e-06
1.1729e-06
1.17277e-06
1.1728e-06
1.42019e-06
1.4181e-06
1.17278e-06
1.17293e-06
1.17268e-06
1.17283e-06
1.17295e-06
1.17268e-06
1.17285e-06
1.42027e-06
1.41819e-06
1.17286e-06
1.17275e-06
1.17276e-06
1.41823e-06
1.41993e-06
1.41818e-06
1.17276e-06
1.1728e-06
1.17277e-06
1.17281e-06
1.41988e-06
1.41813e-06
1.17268e-06
1.17283e-06
1.17269e-06
1.17284e-06
1.17284e-06
1.17269e-06
1.17286e-06
1.41996e-06
1.41822e-06
1.17276e-06
1.17276e-06
1.17277e-06
1.41825e-06
1.42006e-06
1.41833e-06
1.17281e-06
1.17285e-06
1.1728e-06
1.17284e-06
1.42001e-06
1.41827e-06
1.17272e-06
1.17288e-06
1.17271e-06
1.17287e-06
1.17289e-06
1.17271e-06
1.17288e-06
1.42009e-06
1.41836e-06
1.1728e-06
1.17279e-06
1.17279e-06
1.41839e-06
1.42012e-06
1.41807e-06
1.17281e-06
1.17285e-06
1.17276e-06
1.17279e-06
1.42007e-06
1.41801e-06
1.17272e-06
1.17288e-06
1.17267e-06
1.17282e-06
1.17289e-06
1.17267e-06
1.17284e-06
1.42014e-06
1.4181e-06
1.1728e-06
1.17274e-06
1.17275e-06
1.41813e-06
1.41991e-06
1.41832e-06
1.17279e-06
1.17283e-06
1.17278e-06
1.17281e-06
1.41986e-06
1.41827e-06
1.17271e-06
1.17286e-06
1.17269e-06
1.17284e-06
1.17287e-06
1.17269e-06
1.17286e-06
1.41994e-06
1.41836e-06
1.17278e-06
1.17276e-06
1.17277e-06
1.41839e-06
1.42017e-06
1.41813e-06
1.17282e-06
1.17286e-06
1.17275e-06
1.17279e-06
1.42012e-06
1.41807e-06
1.17273e-06
1.17289e-06
1.17267e-06
1.17282e-06
1.1729e-06
1.17267e-06
1.17283e-06
1.4202e-06
1.41816e-06
1.17281e-06
1.17274e-06
1.17274e-06
1.41819e-06
1.41994e-06
1.41823e-06
1.17281e-06
1.17285e-06
1.17275e-06
1.17278e-06
1.41988e-06
1.41819e-06
1.17273e-06
1.17288e-06
1.17266e-06
1.17281e-06
1.17289e-06
1.17266e-06
1.17283e-06
1.41996e-06
1.41828e-06
1.1728e-06
1.17273e-06
1.17274e-06
1.41832e-06
1.42011e-06
1.41815e-06
1.17284e-06
1.17287e-06
1.17273e-06
1.17276e-06
1.42007e-06
1.41808e-06
1.17275e-06
1.1729e-06
1.17264e-06
1.17279e-06
1.17292e-06
1.17264e-06
1.17281e-06
1.42015e-06
1.41817e-06
1.17283e-06
1.17271e-06
1.17272e-06
1.41821e-06
1.41994e-06
1.41825e-06
1.17285e-06
1.17289e-06
1.17272e-06
1.17275e-06
1.41988e-06
1.41821e-06
1.17276e-06
1.17292e-06
1.17263e-06
1.17279e-06
1.17293e-06
1.17263e-06
1.1728e-06
1.41996e-06
1.4183e-06
1.17284e-06
1.1727e-06
1.1727e-06
1.41833e-06
1.42012e-06
1.41789e-06
1.17289e-06
1.17293e-06
1.17232e-06
1.17235e-06
1.42008e-06
1.41784e-06
1.17281e-06
1.17296e-06
1.17223e-06
1.17238e-06
1.17297e-06
1.17223e-06
1.1724e-06
1.42015e-06
1.41793e-06
1.17288e-06
1.17229e-06
1.1723e-06
1.41796e-06
1.4196e-06
1.3993e-06
1.1726e-06
1.17263e-06
1.152e-06
1.15203e-06
1.41956e-06
1.39929e-06
1.17251e-06
1.17266e-06
1.15198e-06
1.15199e-06
1.17268e-06
1.15203e-06
1.15205e-06
1.41964e-06
1.39932e-06
1.17258e-06
1.15202e-06
1.15202e-06
1.39934e-06
1.37813e-06
1.11643e-06
1.11645e-06
1.37813e-06
1.11642e-06
1.11641e-06
6.47335e-07
6.47306e-07
6.47349e-07
1.11647e-06
1.37814e-06
1.11647e-06
1.00392e-08
2.66686e-09
6.24524e-09
6.23515e-09
1.82503e-09
6.96833e-09
3.66778e-08
3.55219e-09
1.4925e-09
4.56853e-09
3.57875e-09
1.17173e-08
5.21483e-09
3.71731e-09
7.5986e-09
7.44798e-09
2.00337e-07
6.11204e-09
2.3522e-07
1.48743e-06
2.98937e-06
7.77939e-09
1.66032e-07
6.33756e-09
2.62092e-07
4.1801e-09
4.00633e-09
3.92114e-09
3.89096e-09
4.16597e-09
3.99608e-09
3.90352e-09
1.83246e-09
1.16995e-07
3.67129e-09
1.04271e-08
1.85669e-09
9.21896e-08
3.56247e-09
1.65766e-06
2.96751e-06
1.5111e-09
3.07175e-09
9.15672e-08
5.54709e-09
1.51339e-09
3.027e-09
6.83818e-08
2.15141e-07
2.1687e-07
4.81261e-09
1.83605e-07
1.86228e-07
1.78134e-08
4.35147e-07
1.14027e-08
6.35133e-07
6.76567e-06
9.81296e-06
1.76666e-08
4.71879e-07
1.19514e-08
6.67327e-07
4.15291e-09
3.98983e-09
3.8947e-09
3.87184e-09
4.10974e-09