/*--------------------------------*- C++ -*----------------------------------*\
| =========                 |                                                 |
| \\      /  F ield         | OpenFOAM: The Open Source CFD Toolbox           |
|  \\    /   O peration     | Version:  v2012                                 |
|   \\  /    A nd           | Website:  www.openfoam.com                      |
|    \\/     M anipulation  |                                                 |
\*---------------------------------------------------------------------------*/
FoamFile
{
    version     2.0;
    format      ascii;
    class       volScalarField;
    location    "300";
    object      k;
}
// * * * * * * * * * * * * * * * * * * * * * * * * * * * * * * * * * * * * * //

dimensions      [0 2 -2 0 0 0 0];


internalField   nonuniform List<scalar> 
171728
(
5.6754e-07
5.79951e-07
3.69175e-07
3.52451e-07
5.61061e-07
5.86496e-07
3.57883e-07
3.3435e-07
5.65688e-07
5.92454e-07
3.46633e-07
3.1703e-07
5.707e-07
5.9197e-07
3.37586e-07
3.01448e-07
5.75887e-07
4.53719e-07
3.30413e-07
2.88387e-07
5.81431e-07
2.96499e-07
3.24571e-07
2.76179e-07
5.87814e-07
2.31888e-07
3.20255e-07
2.65322e-07
5.94518e-07
2.16923e-07
3.17635e-07
2.55832e-07
6.01941e-07
2.12267e-07
3.18019e-07
2.47353e-07
6.09811e-07
2.09597e-07
3.23218e-07
2.39182e-07
6.17778e-07
2.05263e-07
3.29896e-07
2.30527e-07
6.25769e-07
2.00359e-07
3.36954e-07
2.22495e-07
6.34068e-07
1.94847e-07
3.37116e-07
2.1599e-07
6.42731e-07
1.92437e-07
3.04997e-07
2.11739e-07
6.51758e-07
1.92765e-07
2.64705e-07
2.10124e-07
6.61183e-07
1.95754e-07
2.35667e-07
2.12053e-07
6.70683e-07
2.05002e-07
2.23881e-07
2.19827e-07
6.80948e-07
2.23023e-07
2.31238e-07
2.38515e-07
6.90978e-07
2.5631e-07
2.5684e-07
2.75789e-07
7.0223e-07
3.20298e-07
2.99018e-07
3.39539e-07
7.13322e-07
4.15765e-07
3.76469e-07
4.68694e-07
7.2743e-07
5.91227e-07
4.98158e-07
7.00506e-07
7.42216e-07
9.22224e-07
6.81875e-07
1.22243e-06
7.59627e-07
1.26173e-06
9.16875e-07
1.63588e-06
7.8128e-07
1.80456e-06
1.22388e-06
2.77646e-06
8.05175e-07
2.09972e-06
1.84813e-06
3.79293e-06
8.28632e-07
2.77146e-06
2.27507e-06
5.91362e-06
8.64028e-07
2.78191e-06
3.02875e-06
7.66474e-06
8.87405e-07
4.23257e-06
3.81438e-06
1.02404e-05
9.38423e-07
4.6734e-06
4.74921e-06
1.27861e-05
9.72679e-07
5.02558e-06
5.17342e-06
1.52474e-05
1.03529e-06
7.04909e-06
6.8017e-06
1.72155e-05
1.16696e-06
7.4515e-06
8.15346e-06
2.01013e-05
1.21237e-06
9.85894e-06
8.93838e-06
2.1943e-05
1.42622e-06
1.02278e-05
1.11107e-05
2.33104e-05
1.56558e-06
1.27302e-05
1.18143e-05
2.5682e-05
1.85858e-06
1.38371e-05
1.43367e-05
2.67592e-05
2.02402e-06
1.56889e-05
1.55519e-05
2.7655e-05
2.51285e-06
1.72244e-05
1.70947e-05
3.04807e-05
2.9649e-06
1.93298e-05
1.96428e-05
3.06613e-05
3.31428e-06
2.08647e-05
2.08436e-05
3.21307e-05
3.94437e-06
2.34498e-05
2.27175e-05
3.29931e-05
4.56423e-06
2.39595e-05
2.46108e-05
3.46844e-05
5.8631e-06
2.71396e-05
2.71748e-05
3.57462e-05
6.06442e-06
2.82734e-05
2.75537e-05
3.60957e-05
7.43832e-06
2.94139e-05
3.00597e-05
3.7984e-05
8.41376e-06
3.16941e-05
3.18416e-05
3.86734e-05
9.41922e-06
3.31881e-05
3.26285e-05
4.00893e-05
1.08189e-05
3.40297e-05
3.46712e-05
4.04645e-05
1.17847e-05
3.61223e-05
3.5404e-05
4.1942e-05
1.38298e-05
3.71672e-05
3.74355e-05
4.27512e-05
1.47825e-05
3.82259e-05
3.83667e-05
4.34418e-05
1.65663e-05
3.9789e-05
3.94059e-05
4.48115e-05
1.78454e-05
4.06658e-05
4.1017e-05
4.52076e-05
1.96555e-05
4.17714e-05
4.16626e-05
4.61863e-05
2.10697e-05
4.27787e-05
4.2618e-05
4.66984e-05
2.21731e-05
4.38226e-05
4.42412e-05
4.77207e-05
2.46225e-05
4.49148e-05
4.46446e-05
4.85108e-05
2.52393e-05
4.51105e-05
4.51161e-05
4.86239e-05
2.66404e-05
4.63355e-05
4.66372e-05
4.93622e-05
2.78982e-05
4.72825e-05
4.70129e-05
5.02035e-05
2.98342e-05
4.80904e-05
4.81143e-05
5.09629e-05
3.0363e-05
4.80262e-05
4.80997e-05
5.06611e-05
3.18854e-05
4.99382e-05
4.99343e-05
5.26923e-05
3.41132e-05
5.07402e-05
5.07083e-05
5.3246e-05
3.39948e-05
4.90107e-05
4.89805e-05
5.10986e-05
3.19199e-05
4.71448e-05
4.71402e-05
4.92852e-05
3.16706e-05
4.82442e-05
4.82464e-05
5.10352e-05
3.68862e-05
5.26879e-05
5.26721e-05
5.50185e-05
4.12459e-05
5.57608e-05
5.57361e-05
5.77772e-05
4.3567e-05
5.73349e-05
5.73155e-05
5.92141e-05
4.34788e-05
5.57511e-05
5.57539e-05
5.69113e-05
3.78769e-05
5.0122e-05
5.01283e-05
5.1702e-05
3.29511e-05
4.66762e-05
4.66818e-05
4.85905e-05
3.131e-05
4.61985e-05
4.62017e-05
4.85708e-05
3.36761e-05
4.84886e-05
4.84887e-05
5.07221e-05
3.76887e-05
5.05652e-05
5.05654e-05
5.26074e-05
3.98607e-05
5.16984e-05
5.16989e-05
5.36833e-05
4.08104e-05
5.21636e-05
5.2164e-05
5.4165e-05
4.11983e-05
5.23392e-05
5.23397e-05
5.43548e-05
4.13428e-05
5.23908e-05
5.23912e-05
5.44181e-05
4.13675e-05
5.23922e-05
5.23926e-05
5.44325e-05
4.13657e-05
5.23831e-05
5.23835e-05
5.44205e-05
4.1375e-05
5.23928e-05
5.23931e-05
5.4436e-05
4.13722e-05
5.23871e-05
5.23875e-05
5.44305e-05
4.13712e-05
5.23869e-05
5.23873e-05
5.4423e-05
4.13725e-05
5.23897e-05
5.23901e-05
5.44385e-05
4.13712e-05
5.23867e-05
5.2387e-05
5.4422e-05
4.13716e-05
5.23888e-05
5.23892e-05
5.44345e-05
4.13716e-05
5.23881e-05
5.23885e-05
5.44285e-05
4.13718e-05
5.2389e-05
5.23894e-05
5.44283e-05
4.1372e-05
5.23896e-05
5.23899e-05
5.4431e-05
4.13721e-05
5.23912e-05
5.23915e-05
5.44289e-05
4.13615e-05
5.23744e-05
5.23744e-05
5.4423e-05
4.095e-05
5.12598e-05
5.12586e-05
5.41053e-05
3.65962e-07
3.17478e-07
3.30343e-07
3.48435e-07
3.09488e-07
3.103e-07
5.79826e-07
5.9217e-07
5.92079e-07
5.83572e-07
4.21411e-07
3.42047e-07
3.56072e-07
3.51775e-07
3.35772e-07
3.53482e-07
3.64923e-07
3.45396e-07
2.8327e-07
3.12831e-07
2.77758e-07
3.06805e-07
3.45772e-07
3.38704e-07
3.00044e-07
2.7431e-07
2.91876e-07
2.70012e-07
3.44948e-07
5.84408e-07
3.31973e-07
3.54999e-07
3.38945e-07
3.39137e-07
3.60675e-07
3.30145e-07
3.36661e-07
3.44167e-07
3.26331e-07
2.76027e-07
3.0454e-07
2.71095e-07
2.97072e-07
3.37011e-07
3.36255e-07
2.89159e-07
2.68595e-07
2.81209e-07
2.63948e-07
3.27669e-07
5.90759e-07
3.15439e-07
3.36355e-07
3.22743e-07
3.27265e-07
3.49461e-07
3.18637e-07
3.1972e-07
3.25175e-07
3.09454e-07
2.69566e-07
2.9432e-07
2.65288e-07
2.8542e-07
3.34756e-07
3.34451e-07
2.78602e-07
2.62358e-07
2.71031e-07
2.57889e-07
3.11422e-07
5.95221e-07
3.00019e-07
3.20296e-07
3.08333e-07
3.15683e-07
3.39582e-07
3.08916e-07
3.03982e-07
3.08334e-07
2.94416e-07
2.63909e-07
2.82387e-07
2.59652e-07
2.73113e-07
3.32334e-07
3.19992e-07
2.68593e-07
2.56488e-07
2.61578e-07
2.52414e-07
2.96445e-07
4.98257e-07
2.86231e-07
3.06152e-07
2.96046e-07
3.07455e-07
3.31957e-07
3.02819e-07
2.90581e-07
2.93378e-07
2.81141e-07
2.58291e-07
2.69967e-07
2.54142e-07
2.60437e-07
3.11207e-07
2.80339e-07
2.59392e-07
2.51228e-07
2.54018e-07
2.47754e-07
2.8286e-07
3.28086e-07
2.73815e-07
2.94097e-07
2.85911e-07
3.00741e-07
3.25707e-07
2.93407e-07
2.78176e-07
2.80241e-07
2.69384e-07
2.52629e-07
2.57179e-07
2.48099e-07
2.4761e-07
2.77983e-07
2.61685e-07
2.52552e-07
2.46716e-07
2.4861e-07
2.4405e-07
2.7123e-07
2.40829e-07
2.64505e-07
2.84127e-07
2.77049e-07
2.91213e-07
3.21178e-07
2.85616e-07
2.67084e-07
2.68588e-07
2.58996e-07
2.4676e-07
2.4454e-07
2.43896e-07
2.36164e-07
2.60897e-07
2.50473e-07
2.47205e-07
2.43201e-07
2.42294e-07
2.41066e-07
2.62473e-07
2.18879e-07
2.56509e-07
2.75448e-07
2.69368e-07
2.83655e-07
3.18191e-07
2.78034e-07
2.57514e-07
2.58327e-07
2.49954e-07
2.43308e-07
2.33583e-07
2.42744e-07
2.26476e-07
2.49808e-07
2.40403e-07
2.40527e-07
2.40263e-07
2.35413e-07
2.38176e-07
2.54497e-07
2.13173e-07
2.48604e-07
2.68076e-07
2.63557e-07
2.76497e-07
3.17696e-07
2.71049e-07
2.48879e-07
2.49371e-07
2.4165e-07
2.42769e-07
2.24367e-07
2.43065e-07
2.18707e-07
2.39847e-07
2.31298e-07
2.34025e-07
2.37387e-07
2.30621e-07
2.35545e-07
2.46743e-07
2.1034e-07
2.41751e-07
2.62612e-07
2.58854e-07
2.68617e-07
3.21637e-07
2.60845e-07
2.40031e-07
2.41134e-07
2.34513e-07
2.43186e-07
2.17325e-07
2.43612e-07
2.13751e-07
2.30877e-07
2.22984e-07
2.296e-07
2.3496e-07
2.26465e-07
2.33876e-07
2.40304e-07
2.06492e-07
2.36265e-07
2.58046e-07
2.54568e-07
2.58144e-07
3.28006e-07
2.49633e-07
2.31194e-07
2.34097e-07
2.28428e-07
2.43739e-07
2.12648e-07
2.44112e-07
2.10758e-07
2.22565e-07
2.14924e-07
2.25318e-07
2.33654e-07
2.21919e-07
2.33812e-07
2.35082e-07
2.01642e-07
2.32445e-07
2.54173e-07
2.50762e-07
2.46696e-07
3.35589e-07
2.38097e-07
2.23011e-07
2.2813e-07
2.23204e-07
2.44365e-07
2.10132e-07
2.45431e-07
2.08734e-07
2.14573e-07
2.0711e-07
2.20915e-07
2.33933e-07
2.17785e-07
2.34214e-07
2.31785e-07
1.9612e-07
2.30214e-07
2.50474e-07
2.47296e-07
2.35421e-07
3.38057e-07
2.29154e-07
2.1623e-07
2.23062e-07
2.1872e-07
2.45829e-07
2.08479e-07
2.47886e-07
2.07689e-07
2.06859e-07
2.0045e-07
2.16494e-07
2.3431e-07
2.12879e-07
2.34739e-07
2.29795e-07
1.92717e-07
2.29006e-07
2.46817e-07
2.36934e-07
2.27588e-07
3.14912e-07
2.24688e-07
2.11652e-07
2.18802e-07
2.15989e-07
2.48917e-07
2.07786e-07
2.52625e-07
2.09522e-07
2.00508e-07
1.96826e-07
2.11652e-07
2.35006e-07
2.09788e-07
2.37188e-07
2.28963e-07
1.92614e-07
2.2968e-07
2.3601e-07
2.23318e-07
2.2432e-07
2.7432e-07
2.2479e-07
2.09543e-07
2.16515e-07
2.16338e-07
2.54023e-07
2.10605e-07
2.58948e-07
2.16081e-07
1.9732e-07
1.96787e-07
2.09215e-07
2.38276e-07
2.09697e-07
2.44433e-07
2.30349e-07
1.94612e-07
2.33635e-07
2.22954e-07
2.16924e-07
2.2547e-07
2.41647e-07
2.28662e-07
2.10494e-07
2.17818e-07
2.21771e-07
2.61291e-07
2.18955e-07
2.6947e-07
2.31243e-07
1.98173e-07
2.02436e-07
2.10544e-07
2.46693e-07
2.15886e-07
2.57349e-07
2.35484e-07
2.01726e-07
2.42268e-07
2.17695e-07
2.1881e-07
2.30404e-07
2.2387e-07
2.37209e-07
2.16295e-07
2.25158e-07
2.36045e-07
2.7347e-07
2.36443e-07
2.86353e-07
2.57367e-07
2.05459e-07
2.1896e-07
2.18751e-07
2.6234e-07
2.29102e-07
2.79036e-07
2.45544e-07
2.18469e-07
2.58168e-07
2.21954e-07
2.29729e-07
2.40624e-07
2.27039e-07
2.53426e-07
2.31463e-07
2.42343e-07
2.65164e-07
2.92647e-07
2.63153e-07
3.09939e-07
2.94325e-07
2.24509e-07
2.50241e-07
2.34968e-07
2.87869e-07
2.5368e-07
3.16368e-07
2.63787e-07
2.46512e-07
2.85202e-07
2.3627e-07
2.64671e-07
2.59058e-07
2.50253e-07
2.80486e-07
2.62247e-07
2.75797e-07
3.2672e-07
3.1851e-07
3.03968e-07
3.47238e-07
3.34897e-07
2.63535e-07
3.07784e-07
2.63532e-07
3.27041e-07
2.96158e-07
3.69871e-07
2.95594e-07
2.97232e-07
3.27728e-07
2.74327e-07
3.21753e-07
2.90465e-07
2.86668e-07
3.22468e-07
3.19106e-07
3.43942e-07
4.48045e-07
3.58279e-07
3.49181e-07
4.12635e-07
3.74028e-07
3.33196e-07
4.10691e-07
3.0978e-07
3.85944e-07
3.71326e-07
4.70413e-07
3.45333e-07
3.80564e-07
3.94261e-07
3.40121e-07
4.6214e-07
3.39938e-07
3.59782e-07
3.90213e-07
4.42498e-07
4.86018e-07
6.35602e-07
4.29253e-07
3.99991e-07
5.11597e-07
4.83246e-07
4.37142e-07
7.10974e-07
3.91596e-07
4.92887e-07
4.79428e-07
6.03498e-07
4.20571e-07
5.48686e-07
4.9203e-07
5.03289e-07
6.53678e-07
4.1552e-07
4.64514e-07
4.86005e-07
6.60124e-07
7.12926e-07
9.90386e-07
5.50793e-07
4.94896e-07
6.46471e-07
6.34538e-07
7.5576e-07
1.06845e-06
5.22163e-07
6.49417e-07
6.37565e-07
7.79918e-07
5.18562e-07
8.37019e-07
6.75095e-07
7.52937e-07
9.92671e-07
5.13518e-07
6.20085e-07
6.71883e-07
1.08517e-06
1.04454e-06
1.66851e-06
6.90731e-07
6.68427e-07
8.77192e-07
8.00419e-07
1.21355e-06
1.52757e-06
6.89663e-07
8.35946e-07
8.86996e-07
1.03927e-06
7.10957e-07
1.09528e-06
8.53696e-07
1.10452e-06
1.62459e-06
7.07963e-07
8.21721e-07
8.45799e-07
1.45594e-06
1.79969e-06
2.60356e-06
9.43821e-07
9.45427e-07
1.20224e-06
1.319e-06
1.7546e-06
3.16043e-06
9.56984e-07
1.0919e-06
1.25242e-06
1.38322e-06
9.32949e-07
1.75698e-06
1.19386e-06
1.74629e-06
2.54817e-06
9.22546e-07
1.18501e-06
1.19872e-06
2.55816e-06
2.82981e-06
3.68615e-06
1.2789e-06
1.35656e-06
1.51292e-06
1.47976e-06
3.24015e-06
3.09262e-06
1.34752e-06
1.46713e-06
1.59739e-06
1.66016e-06
1.28319e-06
1.89213e-06
1.52812e-06
2.74083e-06
3.6536e-06
1.28363e-06
1.6791e-06
1.50859e-06
3.61604e-06
4.01942e-06
5.48774e-06
1.67266e-06
1.75709e-06
2.08115e-06
2.39083e-06
3.28941e-06
6.85639e-06
1.77183e-06
1.86435e-06
2.27608e-06
2.21105e-06
1.64518e-06
2.73266e-06
2.08726e-06
3.9413e-06
5.68292e-06
1.64963e-06
2.08059e-06
2.06423e-06
5.55557e-06
5.9551e-06
7.22943e-06
2.1471e-06
2.45185e-06
2.75667e-06
2.95235e-06
6.99723e-06
6.87178e-06
2.33626e-06
2.25175e-06
2.93281e-06
2.88345e-06
2.20649e-06
2.7689e-06
2.63771e-06
5.85971e-06
7.7889e-06
2.14766e-06
2.9529e-06
2.68424e-06
7.16865e-06
7.72354e-06
9.69537e-06
2.95088e-06
3.05095e-06
3.23275e-06
3.82319e-06
7.19515e-06
1.03201e-05
3.18005e-06
3.04261e-06
3.4785e-06
3.23253e-06
2.85027e-06
3.76129e-06
3.35872e-06
8.39535e-06
8.96837e-06
2.91656e-06
3.46419e-06
3.29699e-06
9.97803e-06
9.92397e-06
1.33376e-05
3.49534e-06
4.261e-06
4.60555e-06
4.91707e-06
1.13893e-05
1.33072e-05
3.66795e-06
3.47314e-06
4.81178e-06
4.51117e-06
3.52415e-06
4.67729e-06
4.26179e-06
9.28356e-06
1.33934e-05
3.45114e-06
4.62669e-06
4.2354e-06
1.20006e-05
1.38065e-05
1.39936e-05
4.72822e-06
4.92476e-06
4.95633e-06
4.91239e-06
1.33413e-05
1.27561e-05
4.97524e-06
4.66073e-06
5.19482e-06
4.88872e-06
4.50627e-06
4.73161e-06
5.22569e-06
1.3692e-05
1.36973e-05
4.51995e-06
4.95177e-06
5.27547e-06
1.4823e-05
1.42465e-05
1.78148e-05
5.35094e-06
5.05245e-06
6.26919e-06
7.02312e-06
1.37078e-05
1.82887e-05
5.45237e-06
5.12605e-06
6.15027e-06
6.50684e-06
5.52835e-06
6.79469e-06
6.14005e-06
1.39517e-05
1.76775e-05
5.4364e-06
6.51365e-06
6.07519e-06
1.67667e-05
1.82435e-05
1.94445e-05
6.56211e-06
7.38701e-06
7.83372e-06
7.72655e-06
1.85738e-05
1.90074e-05
6.53475e-06
6.70982e-06
8.00527e-06
7.61229e-06
6.40615e-06
7.27498e-06
7.66836e-06
1.83082e-05
1.93894e-05
6.52298e-06
7.77994e-06
7.70454e-06
1.96332e-05
2.00078e-05
2.11267e-05
8.09207e-06
7.92679e-06
8.45239e-06
9.62173e-06
1.94116e-05
2.22065e-05
8.28948e-06
7.97717e-06
8.61993e-06
8.622e-06
7.99199e-06
9.45785e-06
8.86706e-06
1.97187e-05
2.12677e-05
7.86873e-06
8.68801e-06
8.82089e-06
2.1483e-05
2.14468e-05
2.36184e-05
8.83741e-06
9.98897e-06
1.06845e-05
1.03505e-05
2.2671e-05
2.28868e-05
8.89962e-06
8.91401e-06
1.05757e-05
1.05965e-05
9.31466e-06
1.01567e-05
1.03261e-05
2.18536e-05
2.33938e-05
9.36061e-06
1.0626e-05
1.03694e-05
2.30297e-05
2.40459e-05
2.47743e-05
1.08962e-05
1.0417e-05
1.16691e-05
1.1802e-05
2.31112e-05
2.50627e-05
1.07757e-05
1.11313e-05
1.15876e-05
1.1762e-05
1.04454e-05
1.1906e-05
1.16717e-05
2.37854e-05
2.48236e-05
1.04715e-05
1.16336e-05
1.16123e-05
2.51357e-05
2.51189e-05
2.66847e-05
1.21309e-05
1.26641e-05
1.36065e-05
1.38559e-05
2.57673e-05
2.66859e-05
1.21263e-05
1.18895e-05
1.37467e-05
1.38247e-05
1.25066e-05
1.37415e-05
1.42062e-05
2.51328e-05
2.67682e-05
1.24349e-05
1.39166e-05
1.41079e-05
2.66382e-05
2.70147e-05
2.76681e-05
1.40901e-05
1.39813e-05
1.50552e-05
1.5512e-05
2.69088e-05
2.78752e-05
1.41152e-05
1.43682e-05
1.47372e-05
1.5321e-05
1.43739e-05
1.51355e-05
1.45437e-05
2.72482e-05
2.78804e-05
1.4272e-05
1.52045e-05
1.44706e-05
2.71315e-05
2.79582e-05
2.94234e-05
1.52751e-05
1.60833e-05
1.68518e-05
1.67162e-05
2.83148e-05
2.91938e-05
1.50751e-05
1.56617e-05
1.71348e-05
1.66527e-05
1.47518e-05
1.66815e-05
1.77889e-05
2.81021e-05
2.9163e-05
1.47436e-05
1.65357e-05
1.78582e-05
3.02249e-05
2.98505e-05
3.06404e-05
1.76457e-05
1.70173e-05
1.91625e-05
1.91288e-05
2.94793e-05
3.06357e-05
1.78767e-05
1.72149e-05
1.89643e-05
1.91379e-05
1.85412e-05
1.90717e-05
1.93721e-05
2.95819e-05
3.07427e-05
1.85415e-05
1.92343e-05
1.92429e-05
3.05114e-05
3.08581e-05
3.16904e-05
1.93007e-05
1.94832e-05
2.05334e-05
2.00667e-05
3.08943e-05
3.16218e-05
1.90636e-05
1.94431e-05
2.03842e-05
2.00861e-05
1.94353e-05
2.01829e-05
1.99265e-05
3.09962e-05
3.16214e-05
1.9297e-05
2.02352e-05
1.99667e-05
3.17548e-05
3.20138e-05
3.26591e-05
2.12181e-05
2.07108e-05
2.2101e-05
2.30004e-05
3.20281e-05
3.31944e-05
2.11731e-05
2.0791e-05
2.2322e-05
2.27471e-05
2.07457e-05
2.30502e-05
2.28031e-05
3.19068e-05
3.28744e-05
2.0913e-05
2.25474e-05
2.27871e-05
3.28392e-05
3.29212e-05
3.44373e-05
2.2311e-05
2.34323e-05
2.42485e-05
2.3837e-05
3.33604e-05
3.3627e-05
2.24674e-05
2.29827e-05
2.41387e-05
2.37336e-05
2.30235e-05
2.38102e-05
2.37513e-05
3.30739e-05
3.41112e-05
2.29662e-05
2.37572e-05
2.36827e-05
3.42136e-05
3.47965e-05
3.54268e-05
2.50639e-05
2.39978e-05
2.6749e-05
2.63541e-05
3.39381e-05
3.5834e-05
2.49612e-05
2.45279e-05
2.67069e-05
2.6748e-05
2.45652e-05
2.63192e-05
2.67776e-05
3.45571e-05
3.56294e-05
2.45576e-05
2.68176e-05
2.68213e-05
3.5639e-05
3.55419e-05
3.59105e-05
2.69642e-05
2.71684e-05
2.71963e-05
2.82675e-05
3.61266e-05
3.63354e-05
2.69296e-05
2.71047e-05
2.71749e-05
2.74259e-05
2.71656e-05
2.82052e-05
2.75256e-05
3.57651e-05
3.59537e-05
2.71962e-05
2.74742e-05
2.75366e-05
3.59169e-05
3.61682e-05
3.77833e-05
2.74164e-05
2.83417e-05
2.96836e-05
2.87839e-05
3.64086e-05
3.71373e-05
2.74218e-05
2.7571e-05
2.97307e-05
2.92913e-05
2.75889e-05
2.88035e-05
2.92556e-05
3.61419e-05
3.75351e-05
2.7594e-05
2.91857e-05
2.92303e-05
3.7547e-05
3.8035e-05
3.85338e-05
3.01628e-05
2.94368e-05
3.12514e-05
3.12903e-05
3.75198e-05
3.87074e-05
3.01204e-05
3.00661e-05
3.11304e-05
3.16333e-05
3.01349e-05
3.11719e-05
3.11315e-05
3.79329e-05
3.88296e-05
3.01388e-05
3.16917e-05
3.11601e-05
3.8565e-05
3.87492e-05
3.95503e-05
3.16633e-05
3.17042e-05
3.24873e-05
3.269e-05
3.89322e-05
3.96734e-05
3.16281e-05
3.17926e-05
3.25589e-05
3.20973e-05
3.12853e-05
3.29239e-05
3.29552e-05
3.89339e-05
3.91972e-05
3.13001e-05
3.21342e-05
3.29107e-05
3.9796e-05
3.97124e-05
4.05361e-05
3.27687e-05
3.30511e-05
3.42386e-05
3.40048e-05
3.98531e-05
4.03512e-05
3.27613e-05
3.25867e-05
3.41375e-05
3.45298e-05
3.3399e-05
3.37453e-05
3.38346e-05
3.94966e-05
4.08809e-05
3.33618e-05
3.44703e-05
3.38219e-05
4.03609e-05
4.08238e-05
4.14375e-05
3.46209e-05
3.42535e-05
3.51914e-05
3.53873e-05
4.05432e-05
4.15819e-05
3.45966e-05
3.47684e-05
3.52677e-05
3.50764e-05
3.40847e-05
3.55551e-05
3.54536e-05
4.09971e-05
4.11384e-05
3.40643e-05
3.49708e-05
3.54948e-05
4.16461e-05
4.1603e-05
4.27947e-05
3.55841e-05
3.59161e-05
3.72528e-05
3.70439e-05
4.1896e-05
4.26557e-05
3.56254e-05
3.54726e-05
3.71806e-05
3.70261e-05
3.58978e-05
3.7054e-05
3.71083e-05
4.13764e-05
4.28208e-05
3.60036e-05
3.71909e-05
3.70211e-05
4.26201e-05
4.30113e-05
4.31858e-05
3.75846e-05
3.72161e-05
3.78703e-05
3.79293e-05
4.27503e-05
4.31765e-05
3.74816e-05
3.73186e-05
3.77897e-05
3.81587e-05
3.73623e-05
3.7858e-05
3.78156e-05
4.29873e-05
4.33264e-05
3.71753e-05
3.80342e-05
3.78987e-05
4.32221e-05
4.32801e-05
4.45406e-05
3.80137e-05
3.82885e-05
3.9534e-05
3.93981e-05
4.34343e-05
4.44788e-05
3.80186e-05
3.84439e-05
3.95366e-05
3.90674e-05
3.81146e-05
3.94219e-05
3.95901e-05
4.35023e-05
4.41938e-05
3.83397e-05
3.91823e-05
3.9599e-05
4.46034e-05
4.47582e-05
4.49826e-05
3.9843e-05
3.97219e-05
4.0208e-05
4.04697e-05
4.46704e-05
4.51329e-05
3.98309e-05
3.93618e-05
4.02772e-05
4.07153e-05
4.00038e-05
4.05258e-05
4.04689e-05
4.43494e-05
4.5339e-05
3.98426e-05
4.05799e-05
4.04557e-05
4.51109e-05
4.51047e-05
4.61996e-05
4.05031e-05
4.06732e-05
4.17991e-05
4.14394e-05
4.5261e-05
4.58426e-05
4.05735e-05
4.10906e-05
4.1767e-05
4.14966e-05
4.05451e-05
4.13654e-05
4.15151e-05
4.55997e-05
4.59042e-05
4.07516e-05
4.16277e-05
4.16124e-05
4.59682e-05
4.6389e-05
4.65349e-05
4.21038e-05
4.17997e-05
4.24371e-05
4.26999e-05
4.60678e-05
4.68184e-05
4.20496e-05
4.15438e-05
4.23616e-05
4.23386e-05
4.19437e-05
4.26856e-05
4.25841e-05
4.59345e-05
4.64958e-05
4.18253e-05
4.21522e-05
4.23192e-05
4.66131e-05
4.65831e-05
4.7422e-05
4.2515e-05
4.28166e-05
4.34188e-05
4.33767e-05
4.69164e-05
4.7353e-05
4.24376e-05
4.27504e-05
4.33876e-05
4.38468e-05
4.26353e-05
4.33999e-05
4.33244e-05
4.68217e-05
4.78874e-05
4.25122e-05
4.39298e-05
4.35891e-05
4.742e-05
4.77483e-05
4.85257e-05
4.38937e-05
4.3773e-05
4.49045e-05
4.47262e-05
4.76044e-05
4.83285e-05
4.38947e-05
4.41541e-05
4.50047e-05
4.46487e-05
4.38304e-05
4.48142e-05
4.49617e-05
4.80345e-05
4.81046e-05
4.4038e-05
4.46342e-05
4.48799e-05
4.84585e-05
4.85724e-05
4.84402e-05
4.50022e-05
4.48193e-05
4.50501e-05
4.49764e-05
4.83822e-05
4.84157e-05
4.51175e-05
4.46743e-05
4.51334e-05
4.47614e-05
4.50841e-05
4.49826e-05
4.5158e-05
4.81153e-05
4.82993e-05
4.49467e-05
4.47555e-05
4.49875e-05
4.84908e-05
4.85118e-05
4.94233e-05
4.51417e-05
4.52675e-05
4.61426e-05
4.63016e-05
4.86004e-05
4.95597e-05
4.51492e-05
4.50271e-05
4.60275e-05
4.64678e-05
4.52573e-05
4.62093e-05
4.60649e-05
4.86025e-05
4.97764e-05
4.51074e-05
4.6489e-05
4.59866e-05
4.93044e-05
4.95301e-05
4.99351e-05
4.62555e-05
4.63952e-05
4.67642e-05
4.68358e-05
4.96378e-05
5.0019e-05
4.62397e-05
4.66506e-05
4.68597e-05
4.68644e-05
4.61448e-05
4.69106e-05
4.67075e-05
4.98574e-05
4.99443e-05
4.60749e-05
4.67982e-05
4.67696e-05
4.98915e-05
5.01859e-05
5.08375e-05
4.71442e-05
4.72166e-05
4.80273e-05
4.80355e-05
5.02714e-05
5.08538e-05
4.72211e-05
4.71167e-05
4.80231e-05
4.7979e-05
4.71511e-05
4.80509e-05
4.80722e-05
5.0103e-05
5.08147e-05
4.7213e-05
4.80222e-05
4.81496e-05
5.09447e-05
5.08579e-05
5.058e-05
4.80961e-05
4.80857e-05
4.80644e-05
4.80312e-05
5.08649e-05
5.05301e-05
4.8077e-05
4.80458e-05
4.80339e-05
4.80128e-05
4.81335e-05
4.80231e-05
4.80849e-05
5.08406e-05
5.05658e-05
4.82146e-05
4.80959e-05
4.81672e-05
5.06345e-05
5.06161e-05
5.23515e-05
4.80697e-05
4.80343e-05
4.93183e-05
4.92678e-05
5.05648e-05
5.231e-05
4.80401e-05
4.80202e-05
4.93253e-05
4.93349e-05
4.80856e-05
4.92731e-05
4.92308e-05
5.05997e-05
5.23264e-05
4.81661e-05
4.92891e-05
4.92179e-05
5.22848e-05
5.27449e-05
5.32855e-05
4.99648e-05
4.99298e-05
5.07335e-05
5.0726e-05
5.27133e-05
5.3282e-05
4.99684e-05
4.99726e-05
5.07267e-05
5.07211e-05
4.99078e-05
5.07329e-05
5.0722e-05
5.27193e-05
5.32583e-05
4.9889e-05
5.07027e-05
5.06977e-05
5.32726e-05
5.32558e-05
5.13751e-05
5.07395e-05
5.07339e-05
4.97604e-05
4.97794e-05
5.32554e-05
5.13941e-05
5.07321e-05
5.07256e-05
4.97449e-05
4.97232e-05
5.07305e-05
4.97684e-05
4.97781e-05
5.3228e-05
5.13491e-05
5.0706e-05
4.97285e-05
4.97564e-05
5.13948e-05
5.10768e-05
4.93128e-05
4.90036e-05
4.90207e-05
4.73669e-05
4.73738e-05
5.10955e-05
4.93177e-05
4.89907e-05
4.89715e-05
4.73619e-05
4.73503e-05
4.90216e-05
4.73702e-05
4.73846e-05
5.10539e-05
4.93067e-05
4.9005e-05
4.73617e-05
4.7379e-05
4.93316e-05
4.92675e-05
5.0355e-05
4.71428e-05
4.71459e-05
4.73412e-05
4.73322e-05
4.92705e-05
5.03382e-05
4.71402e-05
4.71303e-05
4.7346e-05
4.73408e-05
4.71597e-05
4.734e-05
4.7355e-05
4.92625e-05
5.03536e-05
4.71556e-05
4.73402e-05
4.73525e-05
5.03558e-05
5.1038e-05
5.44412e-05
4.82487e-05
4.82251e-05
5.17537e-05
5.17411e-05
5.10188e-05
5.44304e-05
4.82628e-05
4.8263e-05
5.17591e-05
5.17561e-05
4.82581e-05
5.1751e-05
5.17572e-05
5.10359e-05
5.44323e-05
4.82556e-05
5.17394e-05
5.17484e-05
5.44357e-05
5.50235e-05
5.73491e-05
5.26886e-05
5.26799e-05
5.50693e-05
5.50715e-05
5.50153e-05
5.73541e-05
5.26926e-05
5.26883e-05
5.50705e-05
5.5063e-05
5.26921e-05
5.50773e-05
5.50764e-05
5.50137e-05
5.73369e-05
5.26831e-05
5.50532e-05
5.50689e-05
5.73528e-05
5.77731e-05
5.91226e-05
5.57512e-05
5.57561e-05
5.715e-05
5.71593e-05
5.77797e-05
5.91335e-05
5.57518e-05
5.57432e-05
5.71488e-05
5.71391e-05
5.57596e-05
5.71619e-05
5.71599e-05
5.7761e-05
5.91123e-05
5.5753e-05
5.71407e-05
5.71566e-05
5.91317e-05
5.92049e-05
5.75689e-05
5.7323e-05
5.73329e-05
5.69061e-05
5.6916e-05
5.92159e-05
5.75775e-05
5.73215e-05
5.73118e-05
5.69035e-05
5.68954e-05
5.73329e-05
5.69164e-05
5.69133e-05
5.91952e-05
5.75683e-05
5.73304e-05
5.69081e-05
5.69156e-05
5.75758e-05
5.69045e-05
5.22969e-05
5.57429e-05
5.57517e-05
5.14268e-05
5.14302e-05
5.69122e-05
5.22991e-05
5.57398e-05
5.5734e-05
5.14253e-05
5.14246e-05
5.57467e-05
5.14306e-05
5.14268e-05
5.6905e-05
5.23018e-05
5.57533e-05
5.14362e-05
5.14322e-05
5.22981e-05
5.17003e-05
4.87497e-05
5.01186e-05
5.01208e-05
4.72226e-05
4.72226e-05
5.17022e-05
4.87495e-05
5.01173e-05
5.01183e-05
4.72207e-05
4.72255e-05
5.0118e-05
4.72234e-05
4.72218e-05
5.17055e-05
4.87558e-05
5.01231e-05
4.72295e-05
4.72248e-05
4.87504e-05
4.85895e-05
4.83503e-05
4.66757e-05
4.66753e-05
4.61466e-05
4.61461e-05
4.85893e-05
4.83498e-05
4.66736e-05
4.66789e-05
4.61443e-05
4.61496e-05
4.66752e-05
4.61463e-05
4.61469e-05
4.85953e-05
4.83536e-05
4.66773e-05
4.61502e-05
4.61471e-05
4.83513e-05
4.85698e-05
5.03275e-05
4.61989e-05
4.61984e-05
4.78502e-05
4.78509e-05
4.85693e-05
5.03275e-05
4.61965e-05
4.62015e-05
4.78483e-05
4.78508e-05
4.61994e-05
4.78504e-05
4.78518e-05
4.85723e-05
5.03283e-05
4.6199e-05
4.78504e-05
4.78497e-05
5.03285e-05
5.07212e-05
5.23228e-05
4.84884e-05
4.84894e-05
5.01305e-05
5.01316e-05
5.07213e-05
5.2323e-05
4.8487e-05
4.84889e-05
5.01298e-05
5.01304e-05
4.84901e-05
5.01318e-05
5.01324e-05
5.07219e-05
5.23231e-05
4.84884e-05
5.01319e-05
5.01315e-05
5.23241e-05
5.26062e-05
5.35327e-05
5.05639e-05
5.0565e-05
5.14933e-05
5.14942e-05
5.26065e-05
5.35328e-05
5.05635e-05
5.05638e-05
5.14934e-05
5.14931e-05
5.0566e-05
5.14951e-05
5.14958e-05
5.26065e-05
5.35328e-05
5.05653e-05
5.14955e-05
5.14957e-05
5.35343e-05
5.36817e-05
5.40906e-05
5.16966e-05
5.16975e-05
5.20831e-05
5.20836e-05
5.36819e-05
5.40907e-05
5.16969e-05
5.16965e-05
5.20833e-05
5.20829e-05
5.16992e-05
5.20851e-05
5.20857e-05
5.36817e-05
5.40905e-05
5.16993e-05
5.20857e-05
5.2086e-05
5.40923e-05
5.41633e-05
5.43158e-05
5.21615e-05
5.2162e-05
5.23078e-05
5.23082e-05
5.41635e-05
5.43161e-05
5.21617e-05
5.21613e-05
5.23079e-05
5.23075e-05
5.21641e-05
5.231e-05
5.23104e-05
5.41633e-05
5.4316e-05
5.21644e-05
5.23104e-05
5.23107e-05
5.43176e-05
5.4353e-05
5.43962e-05
5.2337e-05
5.23375e-05
5.23827e-05
5.23832e-05
5.43533e-05
5.43965e-05
5.23372e-05
5.23367e-05
5.23829e-05
5.23824e-05
5.23397e-05
5.23849e-05
5.23854e-05
5.43531e-05
5.43963e-05
5.23401e-05
5.23854e-05
5.23858e-05
5.43981e-05
5.44162e-05
5.44155e-05
5.23885e-05
5.2389e-05
5.23912e-05
5.23917e-05
5.44165e-05
5.44157e-05
5.23888e-05
5.23882e-05
5.23915e-05
5.23909e-05
5.23913e-05
5.23934e-05
5.2394e-05
5.44162e-05
5.44155e-05
5.23917e-05
5.23939e-05
5.23943e-05
5.44174e-05
5.44306e-05
5.4405e-05
5.23899e-05
5.23904e-05
5.23808e-05
5.23814e-05
5.44308e-05
5.44052e-05
5.23903e-05
5.23896e-05
5.23812e-05
5.23806e-05
5.23928e-05
5.23832e-05
5.23837e-05
5.44306e-05
5.44051e-05
5.23931e-05
5.23836e-05
5.2384e-05
5.44069e-05
5.44186e-05
5.44162e-05
5.23807e-05
5.23813e-05
5.2388e-05
5.23886e-05
5.44188e-05
5.44168e-05
5.23811e-05
5.23805e-05
5.23883e-05
5.23877e-05
5.23836e-05
5.23904e-05
5.23907e-05
5.44186e-05
5.44163e-05
5.23838e-05
5.23907e-05
5.23909e-05
5.44179e-05
5.44343e-05
5.44172e-05
5.23905e-05
5.23911e-05
5.23874e-05
5.23879e-05
5.44348e-05
5.4417e-05
5.23909e-05
5.23902e-05
5.23878e-05
5.2387e-05
5.23932e-05
5.23896e-05
5.23901e-05
5.44343e-05
5.44168e-05
5.23934e-05
5.239e-05
5.23903e-05
5.44188e-05
5.44288e-05
5.44043e-05
5.23849e-05
5.23854e-05
5.23823e-05
5.23829e-05
5.44287e-05
5.44047e-05
5.23853e-05
5.23846e-05
5.23827e-05
5.23821e-05
5.23877e-05
5.23847e-05
5.23851e-05
5.44285e-05
5.44045e-05
5.23879e-05
5.23851e-05
5.23854e-05
5.44062e-05
5.44211e-05
5.44218e-05
5.23845e-05
5.23851e-05
5.23874e-05
5.23879e-05
5.44216e-05
5.44221e-05
5.23849e-05
5.23844e-05
5.23878e-05
5.23871e-05
5.23873e-05
5.23896e-05
5.23901e-05
5.44214e-05
5.44218e-05
5.23876e-05
5.239e-05
5.23903e-05
5.44236e-05
5.44368e-05
5.4407e-05
5.23875e-05
5.2388e-05
5.23835e-05
5.23839e-05
5.4437e-05
5.44068e-05
5.23879e-05
5.23872e-05
5.23839e-05
5.23832e-05
5.23902e-05
5.23857e-05
5.23861e-05
5.44366e-05
5.44066e-05
5.23904e-05
5.23861e-05
5.23863e-05
5.44082e-05
5.44207e-05
5.44148e-05
5.23844e-05
5.23849e-05
5.23848e-05
5.23854e-05
5.44206e-05
5.44157e-05
5.23848e-05
5.23841e-05
5.23852e-05
5.23846e-05
5.23871e-05
5.23871e-05
5.23876e-05
5.44204e-05
5.44154e-05
5.23873e-05
5.23875e-05
5.23878e-05
5.44171e-05
5.44322e-05
5.44146e-05
5.23865e-05
5.23871e-05
5.23842e-05
5.23847e-05
5.44331e-05
5.44141e-05
5.23869e-05
5.23863e-05
5.23846e-05
5.23839e-05
5.23892e-05
5.23864e-05
5.23869e-05
5.44327e-05
5.44139e-05
5.23894e-05
5.23868e-05
5.2387e-05
5.44155e-05
5.44277e-05
5.4408e-05
5.23859e-05
5.23863e-05
5.23837e-05
5.23843e-05
5.44272e-05
5.4409e-05
5.23863e-05
5.23856e-05
5.23842e-05
5.23835e-05
5.23885e-05
5.23861e-05
5.23865e-05
5.44269e-05
5.44087e-05
5.23887e-05
5.23864e-05
5.23867e-05
5.44105e-05
5.44258e-05
5.44174e-05
5.23867e-05
5.23873e-05
5.23837e-05
5.23842e-05
5.44268e-05
5.44168e-05
5.23872e-05
5.23865e-05
5.23842e-05
5.23835e-05
5.23895e-05
5.2386e-05
5.23864e-05
5.44265e-05
5.44166e-05
5.23896e-05
5.23863e-05
5.23866e-05
5.44185e-05
5.44298e-05
5.44087e-05
5.23873e-05
5.23878e-05
5.23831e-05
5.23837e-05
5.44292e-05
5.44098e-05
5.23877e-05
5.2387e-05
5.23836e-05
5.2383e-05
5.239e-05
5.23855e-05
5.23858e-05
5.44291e-05
5.44094e-05
5.23901e-05
5.23858e-05
5.2386e-05
5.44108e-05
5.44269e-05
5.44112e-05
5.23889e-05
5.23895e-05
5.23809e-05
5.23814e-05
5.44283e-05
5.44103e-05
5.23893e-05
5.23887e-05
5.23813e-05
5.23807e-05
5.23916e-05
5.23831e-05
5.23836e-05
5.44276e-05
5.44105e-05
5.23917e-05
5.23834e-05
5.23837e-05
5.44125e-05
5.44216e-05
5.4247e-05
5.23721e-05
5.23726e-05
5.22275e-05
5.22285e-05
5.44209e-05
5.42484e-05
5.23725e-05
5.23717e-05
5.22293e-05
5.22265e-05
5.23746e-05
5.22318e-05
5.22297e-05
5.44209e-05
5.42474e-05
5.23747e-05
5.22306e-05
5.22312e-05
5.42486e-05
5.41037e-05
5.12552e-05
5.1256e-05
5.4105e-05
5.12572e-05
5.12541e-05
4.09514e-05
4.09502e-05
4.09522e-05
5.12572e-05
5.41039e-05
5.12591e-05
1.74871e-06
2.92001e-07
1.0821e-06
1.08211e-06
9.92563e-08
4.62577e-07
9.12363e-07
5.75133e-07
9.55327e-08
3.53919e-07
5.81879e-07
3.75271e-07
3.59801e-07
2.68514e-07
3.888e-07
3.19727e-07
5.68077e-06
2.67807e-07
6.21426e-06
1.32687e-05
2.06973e-05
2.8831e-07
4.99901e-06
2.45992e-07
6.67838e-06
5.85357e-07
5.81003e-07
5.72403e-07
5.60323e-07
5.81302e-07
5.74339e-07
5.65611e-07
9.9924e-08
1.12968e-06
3.84349e-07
5.81322e-07
9.96096e-08
1.1101e-06
3.78708e-07
1.43595e-05
2.05837e-05
1.00761e-07
3.36613e-07
7.44198e-07
3.66397e-07
9.71904e-08
3.32391e-07
7.19133e-07
1.8866e-06
1.90724e-06
3.45559e-07
1.87368e-06
1.88641e-06
5.22098e-07
9.35694e-06
3.99648e-07
1.20432e-05
3.56529e-05
4.56813e-05
4.97239e-07
9.8757e-06
3.90127e-07
1.2441e-05
5.81645e-07
5.7516e-07
5.66309e-07
5.64605e-07