/*--------------------------------*- C++ -*----------------------------------*\
| =========                 |                                                 |
| \\      /  F ield         | OpenFOAM: The Open Source CFD Toolbox           |
|  \\    /   O peration     | Version:  v2012                                 |
|   \\  /    A nd           | Website:  www.openfoam.com                      |
|    \\/     M anipulation  |                                                 |
\*---------------------------------------------------------------------------*/
FoamFile
{
    version     2.0;
    format      ascii;
    class       volScalarField;
    location    "300";
    object      nut;
}
// * * * * * * * * * * * * * * * * * * * * * * * * * * * * * * * * * * * * * //

dimensions      [0 2 -1 0 0 0 0];


internalField   nonuniform List<scalar> 
171728
(
7.42844e-06
2.87138e-06
2.17571e-06
2.23015e-06
7.29151e-06
3.25332e-06
2.20618e-06
2.21341e-06
7.4465e-06
4.25678e-06
2.24292e-06
2.19166e-06
7.60812e-06
6.22181e-06
2.29534e-06
2.1711e-06
7.77147e-06
5.04893e-06
2.36398e-06
2.16395e-06
7.94586e-06
2.64598e-06
2.44389e-06
2.1511e-06
8.13545e-06
1.78885e-06
2.53105e-06
2.14329e-06
8.32777e-06
1.63106e-06
2.62945e-06
2.13245e-06
8.53062e-06
1.59029e-06
2.79005e-06
2.11107e-06
8.73662e-06
1.56183e-06
3.04159e-06
2.0708e-06
8.93277e-06
1.49862e-06
3.29206e-06
1.99426e-06
9.1154e-06
1.41548e-06
3.49612e-06
1.89733e-06
9.29984e-06
1.30862e-06
3.5354e-06
1.79229e-06
9.48018e-06
1.21927e-06
2.91235e-06
1.68628e-06
9.65899e-06
1.14067e-06
2.15602e-06
1.57668e-06
9.82994e-06
1.06154e-06
1.61132e-06
1.46002e-06
9.99265e-06
1.01034e-06
1.27887e-06
1.35149e-06
1.01598e-05
9.94115e-07
1.13347e-06
1.28166e-06
1.03008e-05
1.04114e-06
1.12326e-06
1.27923e-06
1.0476e-05
1.22451e-06
1.16843e-06
1.35123e-06
1.06277e-05
1.49983e-06
1.36847e-06
1.71722e-06
1.08133e-05
2.12984e-06
1.71515e-06
2.46486e-06
1.0934e-05
3.6027e-06
2.30767e-06
4.27334e-06
1.10194e-05
4.63694e-06
3.00136e-06
5.02837e-06
1.11261e-05
7.43945e-06
4.02771e-06
8.99291e-06
1.10914e-05
7.18649e-06
6.45842e-06
1.18418e-05
1.09147e-05
1.06224e-05
7.39339e-06
1.91421e-05
1.08657e-05
9.15192e-06
1.05419e-05
2.33961e-05
1.0248e-05
1.48044e-05
1.27708e-05
3.24545e-05
1.03342e-05
1.69665e-05
1.68362e-05
3.85832e-05
9.77937e-06
1.5425e-05
1.6662e-05
4.64087e-05
9.38659e-06
2.52625e-05
2.32445e-05
5.08985e-05
1.02415e-05
2.39659e-05
2.83831e-05
6.03663e-05
9.20694e-06
3.52847e-05
2.96989e-05
6.56627e-05
1.07224e-05
3.43065e-05
3.89174e-05
6.85972e-05
1.05445e-05
4.39133e-05
3.9174e-05
7.66715e-05
1.21921e-05
4.74569e-05
4.98304e-05
8.02761e-05
1.23238e-05
5.37459e-05
5.32719e-05
8.01064e-05
1.45697e-05
5.79498e-05
5.71333e-05
9.27494e-05
1.75869e-05
6.65295e-05
6.81148e-05
9.14788e-05
1.79048e-05
6.98637e-05
7.01774e-05
9.66905e-05
2.16685e-05
8.15835e-05
7.75365e-05
9.90964e-05
2.31459e-05
7.96392e-05
8.23901e-05
0.000104963
3.23464e-05
9.30802e-05
9.42393e-05
0.000109665
3.09885e-05
9.71391e-05
9.27759e-05
0.000109151
3.81734e-05
9.86278e-05
0.000101612
0.00011663
4.24101e-05
0.000107926
0.000109816
0.000118703
4.74801e-05
0.000113853
0.000109581
0.000124282
5.36539e-05
0.000115152
0.000119434
0.000124791
5.71851e-05
0.000123685
0.000119396
0.000130421
6.8166e-05
0.000127876
0.000129099
0.00013352
7.18097e-05
0.000130843
0.000131965
0.000135382
7.99292e-05
0.000137607
0.00013551
0.000141306
8.54392e-05
0.000141108
0.000142621
0.00014238
9.40327e-05
0.000145035
0.000145327
0.000146253
0.000101423
0.000149819
0.000147925
0.000148139
0.000103514
0.000153689
0.0001565
0.000151902
0.000118803
0.00015973
0.000158288
0.000155888
0.000120191
0.000158954
0.000158348
0.000155683
0.000126461
0.00016558
0.000167407
0.000159076
0.000131627
0.000169859
0.000168195
0.000162237
0.000144295
0.000175175
0.000175148
0.000166762
0.000145867
0.000173794
0.000174277
0.000164265
0.0001522
0.000183751
0.000183853
0.000173373
0.0001714
0.000191637
0.000191577
0.000179071
0.000174188
0.000185073
0.000184973
0.000171458
0.000155626
0.000173024
0.000173066
0.000161373
0.00014446
0.000173229
0.000173306
0.00016448
0.000178701
0.000196871
0.000196833
0.00018149
0.000213049
0.000214228
0.000214103
0.000194022
0.000235842
0.00022607
0.000225945
0.000203534
0.000248285
0.000226009
0.000226016
0.000199617
0.000206038
0.000195959
0.000195993
0.00017808
0.000164288
0.00017635
0.000176382
0.000163345
0.000148159
0.000172642
0.000172663
0.000161558
0.000161198
0.000185485
0.000185479
0.00017086
0.000194382
0.0001984
0.000198391
0.000179576
0.000214919
0.000205807
0.000205799
0.000184507
0.000224833
0.000208974
0.000208966
0.000186642
0.000229131
0.00021022
0.00021021
0.000187456
0.000230836
0.000210619
0.00021061
0.000187714
0.000231228
0.000210658
0.000210649
0.000187784
0.000231241
0.000210594
0.000210585
0.000187722
0.000231335
0.000210654
0.000210644
0.000187772
0.000231324
0.000210627
0.000210617
0.000187775
0.000231307
0.000210616
0.000210607
0.000187707
0.000231323
0.000210639
0.000210629
0.000187806
0.000231312
0.000210617
0.000210608
0.000187719
0.000231314
0.00021063
0.00021062
0.000187772
0.000231314
0.000210626
0.000210616
0.000187762
0.000231314
0.000210629
0.000210619
0.000187735
0.000231315
0.000210631
0.000210621
0.000187779
0.000231316
0.000210636
0.000210626
0.000187741
0.000231284
0.000210554
0.000210543
0.000187767
0.000233153
0.000211808
0.0002118
0.00019117
2.31628e-06
2.22207e-06
2.41865e-06
2.24047e-06
2.10381e-06
2.16302e-06
7.75444e-06
7.59879e-06
7.88451e-06
7.82573e-06
3.13907e-06
2.45559e-06
2.29449e-06
2.60523e-06
2.39082e-06
2.22996e-06
2.31292e-06
2.27386e-06
1.72527e-06
1.92042e-06
1.73248e-06
1.94774e-06
2.23203e-06
2.24641e-06
1.79759e-06
1.65424e-06
1.81048e-06
1.67146e-06
2.27301e-06
3.11752e-06
2.25118e-06
2.29266e-06
2.27058e-06
2.03754e-06
2.19586e-06
2.05971e-06
2.22698e-06
2.27293e-06
2.24302e-06
1.73973e-06
1.95665e-06
1.76373e-06
1.97455e-06
2.25423e-06
2.37387e-06
1.81775e-06
1.681e-06
1.83689e-06
1.70229e-06
2.24715e-06
3.90335e-06
2.2394e-06
2.26749e-06
2.25167e-06
2.07207e-06
2.23534e-06
2.10506e-06
2.21254e-06
2.24152e-06
2.215e-06
1.77242e-06
1.97753e-06
1.80229e-06
1.97826e-06
2.40422e-06
2.6314e-06
1.84242e-06
1.7077e-06
1.85727e-06
1.72631e-06
2.23424e-06
5.71741e-06
2.21748e-06
2.24934e-06
2.23347e-06
2.11328e-06
2.27954e-06
2.15799e-06
2.19241e-06
2.21255e-06
2.18936e-06
1.81295e-06
1.97845e-06
1.84226e-06
1.98074e-06
2.62047e-06
2.66506e-06
1.86148e-06
1.7329e-06
1.87278e-06
1.75166e-06
2.21258e-06
5.6825e-06
2.1992e-06
2.23195e-06
2.22674e-06
2.18236e-06
2.34411e-06
2.253e-06
2.18274e-06
2.18657e-06
2.16681e-06
1.85221e-06
1.98005e-06
1.87864e-06
1.96378e-06
2.54304e-06
2.25721e-06
1.87615e-06
1.75923e-06
1.89539e-06
1.77908e-06
2.19196e-06
3.11042e-06
2.17612e-06
2.21933e-06
2.23423e-06
2.26885e-06
2.42027e-06
2.29626e-06
2.16946e-06
2.16416e-06
2.148e-06
1.88412e-06
1.95189e-06
1.89047e-06
1.90287e-06
2.23359e-06
2.12493e-06
1.90452e-06
1.78563e-06
1.93482e-06
1.80584e-06
2.17358e-06
1.89585e-06
2.17378e-06
2.21911e-06
2.24946e-06
2.30785e-06
2.50952e-06
2.36188e-06
2.16083e-06
2.14464e-06
2.12388e-06
1.8912e-06
1.88254e-06
1.90223e-06
1.82576e-06
2.12149e-06
2.07741e-06
1.9424e-06
1.81083e-06
1.9485e-06
1.82622e-06
2.17363e-06
1.64998e-06
2.16496e-06
2.23443e-06
2.25965e-06
2.37573e-06
2.60316e-06
2.40797e-06
2.15285e-06
2.11966e-06
2.09502e-06
1.90879e-06
1.80677e-06
1.93925e-06
1.75148e-06
2.07285e-06
2.01224e-06
1.94633e-06
1.82835e-06
1.9314e-06
1.8302e-06
2.15884e-06
1.59794e-06
2.12936e-06
2.2467e-06
2.2842e-06
2.42007e-06
2.74425e-06
2.4297e-06
2.13216e-06
2.08937e-06
2.05449e-06
1.94997e-06
1.73372e-06
1.97974e-06
1.67549e-06
2.00525e-06
1.93759e-06
1.92786e-06
1.82713e-06
1.9165e-06
1.81715e-06
2.11791e-06
1.57193e-06
2.07816e-06
2.27398e-06
2.3007e-06
2.41765e-06
2.9748e-06
2.35819e-06
2.08425e-06
2.04663e-06
2.0049e-06
1.9874e-06
1.65944e-06
2.00385e-06
1.60659e-06
1.93046e-06
1.85471e-06
1.91148e-06
1.81142e-06
1.87987e-06
1.79598e-06
2.06534e-06
1.51756e-06
2.01731e-06
2.28806e-06
2.29413e-06
2.33154e-06
3.22983e-06
2.22836e-06
2.00798e-06
1.99535e-06
1.94306e-06
2.00543e-06
1.58768e-06
2.00139e-06
1.54113e-06
1.84506e-06
1.75256e-06
1.8647e-06
1.79045e-06
1.80521e-06
1.77751e-06
2.00106e-06
1.43824e-06
1.95359e-06
2.28504e-06
2.26869e-06
2.18723e-06
3.45712e-06
2.05386e-06
1.913e-06
1.93076e-06
1.86474e-06
1.9993e-06
1.52326e-06
1.9855e-06
1.46945e-06
1.73953e-06
1.6315e-06
1.78387e-06
1.77164e-06
1.70858e-06
1.74292e-06
1.93776e-06
1.33579e-06
1.88311e-06
2.25595e-06
2.22494e-06
2.00725e-06
3.54757e-06
1.88526e-06
1.8106e-06
1.84819e-06
1.7638e-06
1.97782e-06
1.45207e-06
1.95047e-06
1.39006e-06
1.61443e-06
1.50211e-06
1.67626e-06
1.72981e-06
1.57473e-06
1.68255e-06
1.86237e-06
1.2397e-06
1.79259e-06
2.20245e-06
2.03721e-06
1.84764e-06
3.10588e-06
1.74815e-06
1.70796e-06
1.74224e-06
1.64917e-06
1.94243e-06
1.37153e-06
1.90457e-06
1.32347e-06
1.48293e-06
1.38663e-06
1.53715e-06
1.66424e-06
1.43854e-06
1.61199e-06
1.76815e-06
1.16208e-06
1.68977e-06
1.99917e-06
1.75925e-06
1.7194e-06
2.33285e-06
1.63849e-06
1.60348e-06
1.6218e-06
1.52927e-06
1.89007e-06
1.30962e-06
1.82709e-06
1.27756e-06
1.36363e-06
1.27994e-06
1.40343e-06
1.59483e-06
1.31214e-06
1.55826e-06
1.66479e-06
1.07909e-06
1.58858e-06
1.72026e-06
1.5485e-06
1.61368e-06
1.72267e-06
1.53943e-06
1.49077e-06
1.49821e-06
1.41267e-06
1.80798e-06
1.27296e-06
1.74146e-06
1.28114e-06
1.25452e-06
1.19126e-06
1.28416e-06
1.54467e-06
1.21928e-06
1.5198e-06
1.56435e-06
1.01783e-06
1.49508e-06
1.51242e-06
1.38731e-06
1.51505e-06
1.32755e-06
1.44608e-06
1.37769e-06
1.38483e-06
1.32286e-06
1.72561e-06
1.28553e-06
1.66208e-06
1.3335e-06
1.1685e-06
1.14849e-06
1.20197e-06
1.51986e-06
1.15049e-06
1.50791e-06
1.47327e-06
1.00218e-06
1.41832e-06
1.36068e-06
1.26705e-06
1.42783e-06
1.154e-06
1.38069e-06
1.2929e-06
1.30183e-06
1.29148e-06
1.65048e-06
1.33181e-06
1.58658e-06
1.38775e-06
1.13646e-06
1.13807e-06
1.14816e-06
1.5251e-06
1.13634e-06
1.57314e-06
1.40719e-06
1.02345e-06
1.3899e-06
1.24441e-06
1.28771e-06
1.37e-06
1.12972e-06
1.35498e-06
1.26656e-06
1.27934e-06
1.38852e-06
1.57614e-06
1.41078e-06
1.55789e-06
1.4368e-06
1.1628e-06
1.22841e-06
1.14854e-06
1.58607e-06
1.19501e-06
1.67268e-06
1.40297e-06
1.13818e-06
1.4215e-06
1.28138e-06
1.36327e-06
1.36618e-06
1.15388e-06
1.38611e-06
1.33671e-06
1.40051e-06
1.70111e-06
1.55223e-06
1.4593e-06
1.65486e-06
1.38216e-06
1.29062e-06
1.49112e-06
1.21512e-06
1.69559e-06
1.3901e-06
1.99064e-06
1.46318e-06
1.38492e-06
1.54509e-06
1.38396e-06
1.77798e-06
1.42645e-06
1.33505e-06
1.52073e-06
1.69754e-06
1.81237e-06
2.16888e-06
1.67423e-06
1.43766e-06
1.87646e-06
1.72749e-06
1.49225e-06
2.59923e-06
1.43878e-06
2.04612e-06
1.68331e-06
2.38313e-06
1.62172e-06
2.00072e-06
1.79083e-06
1.92192e-06
2.22938e-06
1.59426e-06
1.61445e-06
1.75607e-06
2.39937e-06
2.40357e-06
3.39266e-06
2.00907e-06
1.69282e-06
2.24654e-06
2.14922e-06
2.71084e-06
3.5821e-06
1.83211e-06
2.55647e-06
2.17404e-06
2.93953e-06
1.83345e-06
3.2018e-06
2.39019e-06
2.60417e-06
3.28676e-06
1.80558e-06
2.08831e-06
2.37359e-06
3.68733e-06
3.40764e-06
5.6037e-06
2.36155e-06
2.24268e-06
2.96038e-06
2.43894e-06
4.18486e-06
4.63609e-06
2.33318e-06
3.1166e-06
2.99259e-06
3.82202e-06
2.48991e-06
3.96361e-06
2.84656e-06
3.58672e-06
5.42049e-06
2.47539e-06
2.6679e-06
2.81469e-06
4.54107e-06
5.98194e-06
8.60381e-06
3.16953e-06
2.99547e-06
4.09568e-06
4.75389e-06
5.21771e-06
1.16682e-05
3.21114e-06
3.94181e-06
4.2964e-06
5.00883e-06
3.11036e-06
7.27239e-06
4.02597e-06
5.68926e-06
8.38749e-06
3.06118e-06
4.03983e-06
4.06849e-06
8.33496e-06
9.41257e-06
1.17157e-05
4.35138e-06
4.88224e-06
4.88895e-06
4.44652e-06
1.19475e-05
8.73295e-06
4.64773e-06
5.31775e-06
5.24509e-06
5.52079e-06
4.33744e-06
6.47825e-06
5.01541e-06
8.94789e-06
1.15022e-05
4.36771e-06
5.69217e-06
4.90623e-06
1.1639e-05
1.28112e-05
1.73188e-05
5.48296e-06
5.52263e-06
7.02346e-06
8.45607e-06
8.33296e-06
2.41537e-05
5.89069e-06
6.39138e-06
7.99703e-06
7.72055e-06
5.38e-06
1.04871e-05
6.99929e-06
1.21697e-05
1.8815e-05
5.40272e-06
6.72654e-06
6.93637e-06
1.79056e-05
1.90325e-05
2.22078e-05
7.02045e-06
8.47279e-06
9.34604e-06
1.02598e-05
2.46068e-05
2.10973e-05
7.97351e-06
7.54513e-06
1.00575e-05
1.00332e-05
7.382e-06
9.79519e-06
8.69805e-06
1.90906e-05
2.47692e-05
7.08491e-06
1.04644e-05
8.90264e-06
2.20097e-05
2.35665e-05
3.01505e-05
1.0186e-05
1.03089e-05
1.0279e-05
1.27698e-05
2.14185e-05
3.08332e-05
1.12101e-05
1.07594e-05
1.14954e-05
1.03124e-05
9.50232e-06
1.23547e-05
1.12071e-05
2.72914e-05
2.68248e-05
9.87662e-06
1.12791e-05
1.09665e-05
3.19149e-05
2.99298e-05
4.23648e-05
1.10625e-05
1.48637e-05
1.6378e-05
1.82767e-05
3.50575e-05
4.4341e-05
1.18503e-05
1.0987e-05
1.72582e-05
1.58013e-05
1.1663e-05
1.72115e-05
1.43125e-05
2.65825e-05
4.31067e-05
1.13298e-05
1.64351e-05
1.40854e-05
3.58433e-05
4.42229e-05
4.18609e-05
1.6834e-05
1.81637e-05
1.60548e-05
1.59298e-05
4.41744e-05
3.51798e-05
1.79504e-05
1.63829e-05
1.75208e-05
1.59523e-05
1.52237e-05
1.48377e-05
1.76543e-05
4.41205e-05
4.08366e-05
1.51838e-05
1.62791e-05
1.81632e-05
4.53587e-05
4.13886e-05
5.42977e-05
1.75841e-05
1.54926e-05
2.10129e-05
2.45722e-05
3.75477e-05
5.71214e-05
1.84167e-05
1.63675e-05
2.02721e-05
2.2397e-05
1.88539e-05
2.4053e-05
2.05499e-05
4.03785e-05
5.34925e-05
1.85831e-05
2.22419e-05
1.99527e-05
4.9932e-05
5.56845e-05
5.82298e-05
2.19029e-05
2.63623e-05
2.73665e-05
2.62311e-05
5.78269e-05
5.60862e-05
2.15708e-05
2.29519e-05
2.80886e-05
2.59987e-05
2.12563e-05
2.42393e-05
2.62182e-05
5.58214e-05
5.83891e-05
2.16789e-05
2.67837e-05
2.66628e-05
5.89783e-05
6.00081e-05
6.26098e-05
2.84216e-05
2.62844e-05
2.78677e-05
3.39774e-05
5.67185e-05
6.76646e-05
2.93354e-05
2.7485e-05
2.89143e-05
2.89502e-05
2.74131e-05
3.32396e-05
3.00595e-05
5.9072e-05
6.25765e-05
2.69299e-05
2.93215e-05
2.96968e-05
6.41723e-05
6.30462e-05
7.06884e-05
2.88255e-05
3.5741e-05
3.72883e-05
3.60556e-05
6.934e-05
6.79527e-05
2.93314e-05
2.9591e-05
3.68273e-05
3.63482e-05
3.18676e-05
3.51276e-05
3.58103e-05
6.44697e-05
6.98881e-05
3.20343e-05
3.6652e-05
3.61131e-05
6.83172e-05
7.2095e-05
7.33154e-05
3.7868e-05
3.53565e-05
3.9396e-05
3.92045e-05
6.80507e-05
7.4101e-05
3.73104e-05
3.88535e-05
3.8861e-05
4.04232e-05
3.55333e-05
3.986e-05
3.85091e-05
7.09106e-05
7.35437e-05
3.57672e-05
3.95787e-05
3.8288e-05
7.4528e-05
7.40786e-05
7.9687e-05
4.09807e-05
4.33329e-05
4.65165e-05
4.8195e-05
7.69084e-05
7.98153e-05
4.08363e-05
3.98484e-05
4.75595e-05
4.73256e-05
4.22598e-05
4.79414e-05
5.05674e-05
7.41864e-05
7.97505e-05
4.19667e-05
4.80619e-05
5.00763e-05
8.03292e-05
8.06962e-05
8.19992e-05
4.84712e-05
4.78063e-05
5.15434e-05
5.32369e-05
8.01866e-05
8.28483e-05
4.89966e-05
4.97723e-05
4.97154e-05
5.27032e-05
5.10324e-05
5.14057e-05
4.83766e-05
8.15201e-05
8.32543e-05
5.05047e-05
5.22193e-05
4.78437e-05
7.87506e-05
8.25757e-05
8.78456e-05
5.16481e-05
5.58647e-05
5.65073e-05
5.65576e-05
8.4343e-05
8.6957e-05
5.02927e-05
5.37457e-05
5.80999e-05
5.59673e-05
4.75743e-05
5.616e-05
6.1026e-05
8.35959e-05
8.64627e-05
4.738e-05
5.53393e-05
6.15788e-05
9.17943e-05
8.93923e-05
9.19773e-05
5.9942e-05
5.67679e-05
6.64611e-05
6.60405e-05
8.76767e-05
9.19929e-05
6.14812e-05
5.78589e-05
6.56694e-05
6.61448e-05
6.48695e-05
6.58573e-05
6.79683e-05
8.7876e-05
9.24226e-05
6.50616e-05
6.64368e-05
6.73499e-05
9.15413e-05
9.24478e-05
9.52231e-05
6.62615e-05
6.7385e-05
6.95442e-05
6.68239e-05
9.2686e-05
9.43981e-05
6.51608e-05
6.71674e-05
6.85967e-05
6.70352e-05
6.738e-05
6.73951e-05
6.58736e-05
9.31354e-05
9.47768e-05
6.66243e-05
6.79702e-05
6.59457e-05
9.52405e-05
9.63114e-05
9.77576e-05
7.26271e-05
6.90233e-05
7.49041e-05
7.94541e-05
9.58088e-05
0.000100979
7.21813e-05
6.97357e-05
7.62352e-05
7.84147e-05
6.92807e-05
7.98213e-05
7.87636e-05
9.56055e-05
9.91006e-05
7.02403e-05
7.75582e-05
7.88286e-05
9.90693e-05
9.82712e-05
0.000104533
7.46489e-05
8.13794e-05
8.14277e-05
8.05684e-05
0.000101368
0.000100551
7.57335e-05
7.88951e-05
8.09016e-05
7.88271e-05
7.90957e-05
8.05335e-05
7.88321e-05
9.94416e-05
0.000102657
7.88863e-05
7.88741e-05
7.83595e-05
0.000103014
0.000105979
0.000108427
8.50662e-05
7.97573e-05
9.27406e-05
8.91077e-05
0.000101177
0.000109742
8.45351e-05
8.19918e-05
9.25765e-05
9.23238e-05
8.21608e-05
8.89565e-05
9.25266e-05
0.000104402
0.000109291
8.20363e-05
9.26859e-05
9.28194e-05
0.000109518
0.000108502
0.000108614
9.33621e-05
9.31763e-05
9.14795e-05
9.79056e-05
0.000111005
0.000111403
9.32456e-05
9.3824e-05
9.132e-05
9.30895e-05
9.42473e-05
9.76349e-05
9.39611e-05
0.000109594
0.000109101
9.44723e-05
9.36388e-05
9.40448e-05
0.000108945
0.000109219
0.000116192
9.10914e-05
9.7462e-05
0.000100976
9.60201e-05
0.000111169
0.000112769
9.10457e-05
9.2589e-05
0.000101429
9.8294e-05
9.29771e-05
9.62972e-05
9.8157e-05
0.000109352
0.000114615
9.30243e-05
9.75868e-05
9.79656e-05
0.00011477
0.000117067
0.000118472
0.000102979
9.85602e-05
0.00010654
0.000106615
0.000114149
0.000119222
0.00010295
0.000101743
0.000105793
0.000109187
0.000102532
0.000105749
0.000106168
0.000116201
0.000120178
0.000102521
0.000109516
0.000106382
0.000118697
0.000119078
0.000122135
0.00010812
0.000108268
0.000110501
0.000111497
0.000119938
0.000122776
0.000107826
0.000109536
0.000111077
0.000107809
0.000105829
0.00011295
0.000112662
0.000120325
0.000120063
0.000105993
0.000108012
0.000112441
0.000123098
0.000122501
0.000125402
0.000111079
0.000112773
0.000116965
0.000116014
0.000123291
0.000124668
0.000111239
0.000109309
0.000116307
0.000118846
0.000114772
0.000114605
0.000115039
0.000120929
0.000127364
0.000114578
0.000118698
0.000115026
0.000124813
0.000126444
0.000128553
0.000118639
0.000116565
0.000119459
0.000120223
0.000125124
0.000129026
0.000118387
0.000119804
0.000119988
0.000118827
0.000115409
0.000120989
0.000120617
0.000127653
0.000127033
0.000115343
0.000118138
0.000120753
0.000129283
0.000128894
0.000133932
0.000120638
0.000122546
0.000128345
0.000127587
0.000130227
0.000133521
0.000121012
0.000119998
0.000128061
0.00012707
0.000122406
0.000127845
0.000127725
0.000127552
0.000134065
0.000123008
0.000128079
0.000127371
0.000133218
0.000134766
0.000134884
0.000130007
0.00012799
0.000129861
0.000129856
0.000133652
0.000134602
0.000129506
0.00012823
0.000129322
0.000131405
0.000128755
0.000129473
0.000129269
0.00013463
0.000135584
0.000127648
0.000130674
0.000129349
0.000134772
0.000134821
0.000140199
0.000129601
0.000131215
0.000136637
0.000135879
0.000135409
0.000139928
0.000129589
0.000132539
0.000136691
0.000134154
0.000130063
0.000135916
0.000136674
0.000136046
0.000138591
0.000131122
0.000134948
0.000136984
0.0001405
0.00014106
0.00014148
0.000138199
0.000137297
0.000138607
0.00014033
0.000140597
0.000142382
0.000138129
0.000135035
0.000139015
0.000141209
0.000138834
0.000140783
0.000140548
0.000138938
0.000143073
0.000138036
0.00014036
0.000140052
0.000142298
0.000141612
0.000146527
0.000139516
0.000140994
0.000145667
0.000143644
0.00014268
0.000144703
0.000139983
0.000143211
0.00014562
0.000144783
0.000140292
0.000143203
0.000143878
0.000144161
0.000145503
0.000141224
0.00014561
0.000144994
0.000145412
0.000147304
0.000147714
0.000147293
0.000145233
0.000148406
0.00014968
0.000145471
0.000148917
0.000147124
0.000144427
0.000148045
0.000146874
0.000146056
0.000149619
0.000149243
0.000145305
0.000146684
0.0001459
0.00014581
0.000147526
0.000148064
0.000147542
0.000150521
0.000148251
0.000150051
0.000151468
0.000151612
0.000149139
0.000150521
0.00014782
0.000148774
0.000151144
0.000154272
0.000149092
0.000151671
0.000150973
0.000147931
0.000153216
0.000148048
0.00015473
0.000152585
0.000150696
0.000151883
0.000156076
0.000153848
0.000153451
0.000159658
0.000158617
0.000151448
0.000155134
0.000153691
0.000155942
0.000160162
0.000158578
0.00015347
0.000159195
0.000159861
0.000153823
0.000154298
0.000154919
0.000158541
0.000159746
0.000155764
0.000156192
0.000155184
0.000160239
0.000159047
0.000159463
0.000158532
0.000155249
0.000154735
0.000160887
0.000158482
0.000160225
0.000157101
0.000160569
0.000158881
0.000160092
0.000154122
0.000153792
0.000160069
0.000156855
0.000159142
0.00015538
0.000155068
0.000159407
0.000159335
0.000159719
0.000164733
0.000165579
0.000155227
0.000160024
0.000159655
0.000157928
0.000163839
0.000166285
0.000160167
0.000165011
0.000164563
0.000154873
0.000161048
0.000159267
0.000166482
0.000163985
0.000159045
0.000159743
0.00016129
0.000165227
0.000165986
0.000167009
0.000167389
0.000160215
0.000161647
0.000164939
0.00016742
0.000167579
0.000167818
0.000164775
0.000167842
0.000166593
0.000161332
0.000161422
0.000164194
0.00016737
0.000166817
0.00016091
0.000162312
0.000166241
0.000169015
0.00016944
0.000174604
0.000174692
0.0001627
0.000166406
0.000169523
0.000168983
0.000174652
0.000174354
0.000169001
0.000174825
0.000174934
0.000161909
0.000166109
0.000169224
0.000174461
0.000175276
0.000166754
0.000166256
0.000164444
0.000175136
0.000175111
0.000174718
0.000174551
0.000166369
0.00016426
0.000175085
0.000174859
0.000174562
0.000174375
0.000175441
0.000174505
0.000174955
0.000166162
0.000164436
0.000175819
0.000174881
0.000175416
0.000164787
0.000163934
0.000171655
0.000174038
0.000173867
0.000179704
0.000179382
0.000163739
0.000171459
0.000173852
0.00017366
0.000179764
0.000179836
0.000174281
0.00017939
0.000179124
0.000163927
0.000171619
0.000174833
0.000179609
0.00017913
0.00017129
0.000173671
0.000179137
0.000183943
0.000183717
0.000190323
0.000190274
0.000173525
0.000179111
0.000183985
0.000184041
0.000190304
0.000190349
0.000183537
0.000190318
0.000190174
0.000173635
0.000179103
0.000183508
0.000190267
0.000190101
0.000179014
0.000179179
0.000173136
0.000191635
0.000191593
0.000189221
0.000189351
0.000179168
0.000173234
0.000191611
0.000191655
0.000189133
0.000189056
0.000191493
0.000189274
0.00018926
0.000179139
0.000173049
0.000191413
0.000189123
0.000189173
0.00017319
0.000171389
0.000162099
0.000185025
0.000185146
0.000174748
0.000174813
0.000171487
0.00016214
0.000184952
0.000184882
0.000174723
0.000174683
0.000185071
0.000174778
0.000174812
0.000171315
0.000162089
0.000185012
0.000174797
0.000174816
0.000162177
0.000161292
0.000162109
0.000173001
0.000173042
0.000169384
0.000169359
0.00016133
0.000162043
0.000172991
0.000172959
0.000169415
0.000169387
0.000173064
0.000169393
0.00016945
0.000161284
0.000162117
0.000173077
0.00016945
0.000169472
0.000162116
0.000164492
0.00017921
0.000173245
0.000173109
0.000191834
0.000191743
0.000164408
0.000179152
0.000173344
0.000173353
0.000191888
0.000191869
0.000173283
0.000191814
0.000191831
0.000164498
0.000179179
0.000173307
0.000191806
0.000191811
0.000179171
0.000181527
0.000192182
0.000196881
0.000196809
0.000210075
0.000210065
0.000181479
0.000192199
0.000196927
0.000196898
0.000210105
0.00021005
0.000196876
0.000210119
0.000210092
0.000181491
0.000192128
0.000196851
0.000210006
0.000210067
0.000192184
0.000194018
0.000202797
0.000214172
0.000214179
0.000224035
0.000224077
0.000194043
0.000202851
0.000214197
0.000214135
0.000224048
0.000223974
0.000214199
0.000224115
0.00022408
0.000193964
0.000202743
0.000214178
0.000223992
0.000224075
0.000202833
0.000203497
0.000203097
0.000225987
0.000226035
0.0002312
0.00023126
0.000203552
0.000203149
0.000225997
0.00022592
0.000231203
0.000231125
0.000226037
0.000231285
0.000231247
0.000203444
0.000203084
0.000226033
0.000231206
0.000231268
0.00020313
0.000199584
0.000181444
0.000225941
0.000225996
0.000203108
0.000203128
0.00019963
0.000181461
0.000225938
0.000225876
0.000203117
0.000203087
0.000225964
0.000203146
0.000203106
0.000199578
0.000181458
0.000226018
0.000203173
0.000203151
0.000181445
0.000178075
0.00016445
0.000195925
0.000195937
0.000179551
0.000179547
0.00017809
0.000164454
0.000195935
0.000195916
0.000179557
0.000179563
0.000195919
0.000179568
0.000179541
0.000178092
0.000164475
0.000195962
0.000179603
0.000179573
0.000164449
0.000163344
0.000161065
0.000176334
0.000176328
0.000172856
0.000172849
0.000163349
0.000161068
0.000176339
0.000176349
0.000172858
0.00017287
0.000176326
0.000172867
0.000172852
0.000163367
0.000161078
0.000176353
0.000172889
0.000172869
0.000161065
0.000161557
0.000169288
0.000172631
0.000172623
0.000181629
0.000181628
0.00016156
0.000169294
0.000172632
0.000172644
0.000181632
0.000181626
0.000172628
0.000181643
0.000181632
0.000161567
0.000169288
0.000172643
0.000181638
0.000181634
0.000169288
0.00017086
0.000178479
0.00018547
0.00018547
0.000195621
0.000195622
0.000170866
0.000178487
0.000185475
0.000185465
0.000195631
0.000195611
0.000185472
0.000195644
0.000195624
0.00017086
0.000178476
0.000185477
0.000195636
0.000195633
0.000178479
0.000179576
0.000184043
0.000198376
0.000198376
0.000204424
0.000204423
0.000179584
0.000184051
0.000198387
0.000198365
0.000204439
0.000204411
0.00019838
0.000204452
0.000204429
0.000179573
0.000184039
0.00019839
0.000204444
0.000204444
0.000184044
0.000184505
0.000186519
0.000205778
0.000205778
0.000208403
0.000208401
0.000184513
0.000186526
0.000205795
0.000205766
0.00020842
0.00020839
0.000205785
0.000208434
0.00020841
0.000184501
0.000186514
0.0002058
0.000208426
0.000208427
0.000186521
0.00018664
0.000187485
0.000208943
0.00020894
0.000209975
0.000209973
0.000186647
0.000187494
0.00020896
0.000208929
0.000209992
0.000209961
0.00020895
0.000210008
0.000209982
0.000186635
0.000187481
0.000208967
0.000209999
0.00021
0.000187487
0.000187454
0.000187824
0.000210187
0.000210184
0.000210538
0.000210535
0.000187462
0.000187832
0.000210204
0.000210173
0.000210556
0.000210524
0.000210193
0.000210571
0.000210545
0.00018745
0.000187819
0.000210212
0.000210562
0.000210564
0.000187827
0.000187711
0.00018792
0.000210586
0.000210584
0.00021063
0.000210627
0.000187719
0.000187929
0.000210604
0.000210572
0.000210648
0.000210615
0.000210594
0.000210663
0.000210637
0.000187707
0.000187916
0.000210612
0.000210654
0.000210656
0.000187923
0.000187781
0.000187869
0.000210625
0.000210623
0.000210564
0.000210562
0.000187789
0.000187877
0.000210643
0.000210611
0.000210583
0.000210551
0.000210633
0.000210598
0.000210572
0.000187777
0.000187864
0.000210651
0.000210589
0.000210591
0.000187872
0.000187719
0.000187887
0.00021056
0.000210558
0.000210602
0.0002106
0.000187727
0.000187897
0.000210579
0.000210547
0.00021062
0.000210588
0.000210568
0.000210636
0.000210609
0.000187714
0.000187883
0.000210586
0.000210626
0.000210627
0.000187889
0.00018777
0.000187927
0.00021062
0.000210618
0.000210613
0.00021061
0.00018778
0.000187933
0.000210639
0.000210606
0.000210631
0.000210598
0.000210627
0.000210646
0.00021062
0.000187766
0.000187921
0.000210645
0.000210636
0.000210638
0.000187929
0.000187773
0.000187836
0.000210594
0.000210591
0.000210571
0.000210569
0.000187779
0.000187845
0.000210612
0.000210579
0.000210589
0.000210557
0.000210601
0.000210605
0.000210579
0.000187767
0.000187832
0.000210619
0.000210595
0.000210597
0.000187839
0.000187703
0.000187937
0.000210582
0.00021058
0.000210607
0.000210604
0.000187712
0.000187946
0.0002106
0.000210568
0.000210625
0.000210592
0.000210589
0.00021064
0.000210613
0.0001877
0.000187933
0.000210608
0.00021063
0.000210631
0.000187941
0.000187803
0.000187869
0.000210606
0.000210603
0.000210583
0.00021058
0.000187811
0.000187875
0.000210624
0.000210591
0.000210602
0.000210569
0.000210613
0.000210616
0.00021059
0.000187799
0.000187862
0.00021063
0.000210607
0.000210607
0.000187868
0.00018772
0.00018789
0.000210584
0.000210581
0.00021059
0.000210588
0.000187725
0.000187902
0.000210603
0.00021057
0.000210609
0.000210576
0.000210591
0.000210624
0.000210597
0.000187713
0.000187888
0.000210609
0.000210614
0.000210615
0.000187896
0.000187766
0.000187913
0.000210596
0.000210594
0.00021059
0.000210587
0.000187777
0.000187918
0.000210614
0.000210582
0.000210608
0.000210575
0.000210603
0.000210623
0.000210596
0.000187765
0.000187905
0.000210621
0.000210613
0.000210614
0.000187912
0.000187764
0.000187854
0.000210592
0.000210589
0.000210587
0.000210585
0.000187768
0.000187866
0.000210611
0.000210578
0.000210606
0.000210573
0.000210599
0.000210621
0.000210594
0.000187756
0.000187853
0.000210617
0.000210611
0.000210612
0.00018786
0.000187728
0.00018793
0.000210595
0.000210592
0.00021059
0.000210588
0.000187741
0.000187935
0.000210613
0.000210581
0.000210609
0.000210576
0.000210602
0.000210624
0.000210597
0.000187729
0.000187922
0.00021062
0.000210614
0.000210615
0.00018793
0.000187779
0.000187857
0.000210597
0.000210594
0.000210587
0.000210586
0.000187783
0.000187869
0.000210616
0.000210583
0.000210606
0.000210573
0.000210604
0.000210622
0.000210595
0.000187771
0.000187855
0.000210622
0.000210611
0.000210613
0.000187861
0.000187735
0.000187921
0.000210602
0.0002106
0.000210641
0.000210638
0.00018775
0.000187923
0.000210621
0.000210588
0.00021066
0.000210628
0.000210609
0.000210674
0.000210649
0.000187735
0.000187911
0.000210627
0.000210665
0.000210667
0.000187921
0.000187767
0.00018927
0.00021052
0.000210518
0.000213103
0.000213105
0.000187768
0.000189282
0.000210539
0.000210505
0.000213122
0.000213097
0.000210526
0.000213132
0.000213111
0.000187758
0.00018927
0.000210545
0.000213124
0.000213129
0.000189276
0.000191164
0.000211782
0.000211784
0.000191174
0.000211798
0.000211776
0.000233159
0.000233155
0.000233163
0.000211789
0.000191163
0.000211805
2.74144e-05
2.87747e-06
1.68743e-05
1.6902e-05
4.85836e-07
2.76364e-06
2.04256e-06
8.38076e-06
5.50343e-07
2.4676e-06
8.51483e-06
1.08169e-06
2.23423e-06
1.74561e-06
1.79044e-06
1.23527e-06
1.44976e-05
1.05609e-06
1.47757e-05
1.06527e-05
1.2897e-05
9.61652e-07
1.35462e-05
8.59334e-07
1.53155e-05
7.3773e-06
7.5832e-06
7.52028e-06
7.26209e-06
7.30011e-06
7.42923e-06
7.37602e-06
4.90396e-07
9.81713e-07
3.62139e-06
2.91684e-06
4.80957e-07
1.20305e-06
3.62327e-06
1.1195e-05
1.28498e-05
6.04698e-07
3.31984e-06
5.44352e-07
2.17812e-06
5.61746e-07
3.28495e-06
6.80643e-07
1.48895e-06
1.50957e-06
2.23309e-06
1.72087e-06
1.71977e-06
1.37721e-06
1.81081e-05
1.26063e-06
2.05524e-05
1.69092e-05
1.9139e-05
1.25957e-06
1.86015e-05
1.14613e-06
2.08745e-05
7.33171e-06
7.46219e-06
7.41096e-06
7.40994e-06
7.43252e-06
7.5874e-06