/*--------------------------------*- C++ -*----------------------------------*\
| =========                 |                                                 |
| \\      /  F ield         | OpenFOAM: The Open Source CFD Toolbox           |
|  \\    /   O peration     | Version:  v2012                                 |
|   \\  /    A nd           | Website:  www.openfoam.com                      |
|    \\/     M anipulation  |                                                 |
\*---------------------------------------------------------------------------*/
FoamFile
{
    version     2.0;
    format      ascii;
    class       volScalarField;
    location    "300";
    object      p;
}
// * * * * * * * * * * * * * * * * * * * * * * * * * * * * * * * * * * * * * //

dimensions      [0 2 -2 0 0 0 0];


internalField   nonuniform List<scalar> 
171728
(
0.00352435
0.00352325
0.0035226
0.00352375
0.00348868
0.00348724
0.00348704
0.00349
0.00345057
0.00344864
0.0034486
0.00345085
0.00340639
0.00340474
0.00340467
0.00340694
0.00335804
0.00335654
0.00335654
0.00335889
0.00330925
0.00330775
0.00330784
0.00331021
0.00326123
0.00325989
0.00325999
0.00326236
0.00321395
0.0032128
0.00321282
0.0032152
0.00316754
0.00316653
0.00316652
0.00316892
0.00312224
0.00312138
0.00312136
0.00312374
0.00307783
0.00307705
0.00307703
0.00307943
0.00303414
0.00303347
0.00303344
0.00303582
0.00299105
0.00299039
0.00299043
0.00299283
0.00294832
0.00294787
0.00294777
0.0029502
0.00290594
0.00290555
0.00290552
0.00290793
0.00286389
0.00286365
0.00286348
0.00286594
0.00282219
0.00282197
0.00282192
0.0028242
0.00278082
0.00278047
0.00278079
0.0027828
0.00273981
0.00273951
0.00273968
0.00274179
0.00269915
0.00269899
0.00269895
0.00270111
0.00265883
0.00265866
0.00265863
0.00266064
0.00261884
0.0026185
0.00261873
0.00262051
0.00257908
0.00257895
0.00257905
0.00258087
0.00253967
0.00253977
0.00253971
0.0025415
0.00250045
0.00250049
0.00250057
0.00250237
0.00246156
0.00246184
0.00246182
0.00246335
0.00242272
0.00242275
0.00242276
0.00242474
0.00238426
0.00238452
0.00238441
0.00238655
0.00234589
0.00234615
0.00234616
0.00234794
0.00230773
0.00230787
0.00230797
0.00231024
0.00226968
0.00227011
0.00227004
0.00227199
0.00223201
0.00223229
0.00223236
0.0022343
0.00219421
0.00219474
0.00219463
0.00219656
0.00215672
0.00215698
0.00215709
0.00215896
0.00211923
0.00211976
0.00211966
0.00212168
0.00208213
0.00208245
0.00208255
0.00208419
0.00204495
0.00204532
0.00204523
0.00204724
0.00200799
0.00200832
0.00200836
0.00201053
0.00197131
0.00197148
0.00197149
0.00197314
0.00193435
0.00193461
0.00193457
0.00193682
0.00189798
0.00189808
0.00189806
0.00189992
0.00186157
0.00186158
0.00186175
0.00186376
0.00182544
0.00182565
0.00182534
0.00182733
0.00178919
0.00178892
0.00178913
0.00179113
0.00175318
0.00175327
0.00175331
0.00175547
0.00171745
0.00171742
0.0017172
0.0017192
0.00168171
0.00168144
0.00168149
0.00168365
0.00164598
0.00164581
0.00164598
0.00164783
0.00161059
0.00161052
0.00161027
0.00161249
0.00157533
0.00157493
0.00157519
0.00157704
0.00154
0.00153978
0.00153968
0.00154179
0.00150488
0.00150465
0.0015046
0.00150667
0.00146983
0.00146951
0.00146964
0.00147152
0.00143498
0.0014346
0.0014345
0.0014366
0.00139996
0.00139976
0.00139973
0.00140167
0.00136515
0.00136488
0.00136508
0.00136696
0.00133074
0.00133033
0.0013301
0.0013322
0.00129576
0.00129555
0.00129564
0.00129744
0.00126125
0.00126117
0.00126124
0.00126314
0.00122693
0.00122665
0.00122658
0.00122858
0.00119281
0.00119248
0.00119254
0.00119438
0.0011584
0.00115813
0.00115813
0.00115995
0.0011246
0.00112465
0.00112462
0.00112654
0.0010907
0.00109016
0.00109015
0.00109202
0.00105542
0.00105512
0.00105512
0.00105696
0.00102009
0.00102036
0.00102036
0.00102246
0.000986524
0.000986736
0.000986735
0.000988761
0.000954808
0.000954385
0.000954379
0.000956032
0.000922526
0.000921789
0.00092179
0.000923361
0.000888823
0.000888362
0.000888367
0.000890139
0.000851809
0.000851574
0.00085158
0.000853638
0.000811456
0.000811911
0.00081191
0.000814415
0.000772017
0.000772863
0.00077286
0.000775398
0.000735548
0.000735946
0.000735943
0.000738165
0.000702637
0.000702568
0.000702566
0.000704338
0.000672291
0.000671735
0.000671736
0.000673216
0.000643158
0.000642877
0.000642877
0.000644398
0.000612616
0.000612461
0.000612462
0.000614188
0.000579324
0.00057924
0.00057924
0.000581149
0.000544238
0.00054419
0.00054419
0.000546202
0.000508296
0.000508268
0.000508268
0.000510329
0.000471991
0.000471969
0.000471969
0.000474051
0.00043556
0.000435534
0.000435534
0.000437621
0.000399086
0.00039906
0.00039906
0.000401149
0.000362591
0.000362564
0.000362564
0.000364654
0.0003261
0.000326074
0.000326074
0.000328163
0.000289605
0.000289577
0.000289577
0.000291667
0.000253111
0.000253084
0.000253084
0.000255171
0.000216616
0.000216589
0.000216589
0.000218676
0.000180117
0.000180091
0.000180091
0.000182174
0.000143618
0.000143593
0.000143593
0.000145669
0.000107111
0.00010709
0.00010709
0.000109149
7.061e-05
7.05833e-05
7.05821e-05
7.26082e-05
3.48682e-05
3.42948e-05
3.42917e-05
3.61684e-05
6.17995e-06
7.0808e-06
7.07992e-06
5.33511e-06
0.00352862
0.00352644
0.00352639
0.0035288
0.00352619
0.00352592
0.00353272
0.00353266
0.0035324
0.00353249
0.00352641
0.00352607
0.00352778
0.00352561
0.00352603
0.0035285
0.00352369
0.00349486
0.0035236
0.00352329
0.0034967
0.00349668
0.00352402
0.00349486
0.00352314
0.00352313
0.00349665
0.00349656
0.00352309
0.00349665
0.00349659
0.00352285
0.00349462
0.003523
0.00349655
0.00349658
0.00349473
0.00349011
0.0034564
0.00348725
0.00348722
0.00345866
0.00345863
0.00349011
0.0034564
0.00348725
0.00348703
0.00345862
0.00345857
0.00348717
0.00345873
0.00345861
0.00348995
0.00345632
0.00348713
0.00345858
0.00345862
0.00345634
0.0034509
0.00341316
0.00344858
0.00344861
0.00341626
0.00341624
0.00345092
0.00341318
0.00344859
0.00344861
0.00341623
0.0034163
0.00344857
0.00341623
0.00341619
0.00345084
0.00341304
0.00344855
0.00341624
0.00341617
0.00341313
0.00340695
0.0033654
0.00340469
0.0034047
0.00336879
0.00336881
0.00340696
0.0033654
0.0034047
0.00340464
0.00336878
0.00336876
0.00340473
0.00336889
0.0033688
0.00340686
0.00336538
0.00340472
0.00336878
0.00336883
0.00336537
0.0033589
0.00331665
0.00335653
0.00335656
0.00331997
0.00331998
0.00335892
0.00331669
0.00335652
0.00335653
0.00331996
0.00331995
0.00335651
0.00331998
0.00331996
0.0033589
0.00331665
0.0033565
0.00331995
0.00331997
0.00331664
0.00331023
0.00326863
0.00330786
0.0033078
0.00327186
0.00327184
0.00331025
0.00326865
0.00330784
0.00330785
0.00327185
0.00327187
0.0033078
0.0032718
0.00327187
0.00331024
0.00326864
0.00330778
0.00327187
0.00327187
0.00326864
0.00326234
0.0032214
0.00325998
0.00325991
0.00322456
0.00322459
0.00326234
0.00322147
0.00325999
0.00325999
0.00322456
0.00322457
0.00326001
0.00322453
0.00322456
0.00326235
0.0032214
0.00326
0.00322457
0.00322457
0.00322139
0.00321521
0.00317498
0.00321283
0.00321286
0.00317801
0.00317803
0.00321527
0.00317497
0.00321283
0.00321284
0.003178
0.003178
0.00321283
0.00317801
0.003178
0.00321521
0.00317498
0.00321282
0.003178
0.003178
0.00317498
0.00316893
0.00312964
0.00316651
0.00316655
0.00313256
0.00313252
0.00316893
0.00312965
0.00316652
0.00316654
0.00313255
0.00313255
0.00316651
0.00313255
0.00313254
0.00316894
0.00312965
0.00316651
0.00313254
0.00313256
0.00312964
0.00312374
0.00308524
0.00312132
0.00312139
0.00308803
0.00308803
0.00312376
0.00308519
0.00312133
0.00312135
0.00308804
0.00308806
0.00312135
0.00308804
0.00308805
0.00312375
0.00308522
0.00312135
0.00308809
0.00308805
0.00308521
0.00307944
0.00304153
0.00307705
0.00307705
0.00304429
0.00304431
0.00307943
0.00304153
0.00307704
0.00307705
0.00304428
0.00304431
0.00307706
0.00304427
0.00304433
0.00307943
0.00304153
0.00307706
0.00304428
0.00304432
0.00304152
0.00303587
0.00299844
0.00303348
0.00303338
0.00300122
0.00300113
0.00303585
0.00299844
0.0030335
0.00303344
0.00300122
0.00300116
0.00303343
0.0030012
0.00300121
0.00303586
0.00299845
0.00303343
0.00300117
0.00300121
0.00299844
0.00299281
0.00295574
0.00299046
0.00299042
0.00295849
0.00295841
0.00299282
0.00295575
0.00299044
0.00299044
0.00295848
0.00295845
0.00299044
0.00295843
0.00295845
0.00299283
0.00295575
0.00299044
0.00295848
0.00295845
0.00295574
0.0029502
0.00291337
0.00294782
0.0029478
0.00291607
0.002916
0.0029502
0.00291338
0.00294781
0.00294781
0.00291606
0.00291605
0.00294788
0.00291605
0.00291611
0.00295019
0.00291339
0.00294786
0.00291601
0.00291609
0.00291339
0.00290789
0.00287134
0.00290558
0.00290561
0.00287404
0.00287397
0.00290792
0.0028713
0.00290557
0.00290548
0.00287403
0.00287401
0.00290561
0.0028739
0.00287407
0.0029079
0.0028713
0.00290563
0.00287405
0.00287409
0.00287136
0.00286594
0.0028296
0.0028636
0.00286359
0.00283231
0.00283222
0.00286591
0.0028295
0.0028636
0.00286352
0.00283228
0.00283241
0.00286363
0.0028322
0.00283236
0.00286584
0.00282959
0.0028636
0.00283232
0.00283234
0.00282959
0.00282425
0.00278817
0.00282199
0.00282191
0.00279091
0.00279086
0.00282416
0.0027881
0.00282201
0.00282193
0.0027909
0.00279084
0.0028219
0.00279091
0.00279093
0.00282421
0.0027882
0.0028219
0.00279081
0.00279092
0.00278814
0.00278288
0.0027471
0.00278067
0.00278057
0.00274981
0.00274979
0.00278277
0.00274704
0.00278069
0.0027807
0.00274982
0.00274969
0.00278055
0.00274987
0.00274987
0.00278292
0.002747
0.00278061
0.00274979
0.0027499
0.00274703
0.00274184
0.0027063
0.00273963
0.00273963
0.00270902
0.00270907
0.00274177
0.00270626
0.00273964
0.00273964
0.00270907
0.00270903
0.00273973
0.00270914
0.00270915
0.00274178
0.00270633
0.00273972
0.00270916
0.00270912
0.00270629
0.00270104
0.0026657
0.00269893
0.00269902
0.00266876
0.00266869
0.00270109
0.00266584
0.00269894
0.00269902
0.00266876
0.00266883
0.00269911
0.00266863
0.00266871
0.00270112
0.00266578
0.00269911
0.00266889
0.00266867
0.00266581
0.00266054
0.00262555
0.00265872
0.00265864
0.00262871
0.0026288
0.00266056
0.00262572
0.0026587
0.00265871
0.0026287
0.00262884
0.00265872
0.00262863
0.00262867
0.00266066
0.00262562
0.00265874
0.00262885
0.00262864
0.00262569
0.00262054
0.00258576
0.00261889
0.00261864
0.00258881
0.00258907
0.00262049
0.00258595
0.00261884
0.00261884
0.00258881
0.00258899
0.00261864
0.00258906
0.00258915
0.00262059
0.00258586
0.00261864
0.00258909
0.00258917
0.00258592
0.00258072
0.0025464
0.00257904
0.00257902
0.00254945
0.00254957
0.00258081
0.00254655
0.00257906
0.00257916
0.00254939
0.00254949
0.00257908
0.00254959
0.00254961
0.00258089
0.00254638
0.00257904
0.00254965
0.00254963
0.00254641
0.00254136
0.00250727
0.00253964
0.00253979
0.00251024
0.00251038
0.00254171
0.00250727
0.00253963
0.00253971
0.00251021
0.00251028
0.00253977
0.00251041
0.00251034
0.00254147
0.00250719
0.00253975
0.00251037
0.00251037
0.00250731
0.00250221
0.00246842
0.00250043
0.00250044
0.00247132
0.00247136
0.00250223
0.00246834
0.00250041
0.0025005
0.00247131
0.00247137
0.0025006
0.00247125
0.00247129
0.00250224
0.00246842
0.00250058
0.00247135
0.0024713
0.00246822
0.00246345
0.00242991
0.00246158
0.0024618
0.00243261
0.0024325
0.00246401
0.00242981
0.00246159
0.00246176
0.0024326
0.00243253
0.00246162
0.00243244
0.00243259
0.00246362
0.00242944
0.00246163
0.00243238
0.00243258
0.00242979
0.0024249
0.00239141
0.00242282
0.0024228
0.00239412
0.00239403
0.00242464
0.00239113
0.00242284
0.00242283
0.00239408
0.00239409
0.0024229
0.00239396
0.00239405
0.00242449
0.00239164
0.00242287
0.00239413
0.00239407
0.00239138
0.00238658
0.00235285
0.00238445
0.00238446
0.00235573
0.00235577
0.00238636
0.00235366
0.00238447
0.00238445
0.00235564
0.0023557
0.00238453
0.00235578
0.0023557
0.00238652
0.00235298
0.00238449
0.00235577
0.00235569
0.00235294
0.00234807
0.00231516
0.00234623
0.00234625
0.00231749
0.00231739
0.00234877
0.00231465
0.00234617
0.0023462
0.00231755
0.00231749
0.0023462
0.00231742
0.00231749
0.00234829
0.00231507
0.0023462
0.00231747
0.00231754
0.00231518
0.00231006
0.00227671
0.0023079
0.00230788
0.00227954
0.00227947
0.00230953
0.00227732
0.0023079
0.00230793
0.00227947
0.00227948
0.00230798
0.00227959
0.0022795
0.00230997
0.00227667
0.002308
0.00227951
0.00227944
0.00227688
0.00227198
0.00223925
0.00227006
0.00227003
0.00224179
0.00224186
0.00227255
0.00223926
0.00227002
0.00227
0.0022418
0.00224178
0.00227003
0.00224171
0.00224175
0.00227191
0.00223936
0.00226998
0.00224179
0.0022418
0.00223916
0.00223424
0.00220157
0.00223238
0.00223235
0.00220402
0.00220408
0.00223432
0.00220151
0.00223241
0.00223233
0.00220406
0.0022041
0.00223235
0.00220415
0.00220407
0.00223442
0.00220135
0.00223241
0.00220407
0.00220404
0.00220151
0.00219668
0.00216383
0.00219457
0.00219464
0.00216652
0.00216639
0.0021966
0.00216393
0.00219459
0.00219468
0.00216645
0.00216644
0.00219465
0.00216641
0.00216645
0.00219645
0.00216403
0.00219461
0.00216646
0.00216644
0.00216385
0.00215894
0.00212652
0.00215718
0.00215699
0.00212898
0.00212905
0.00215903
0.00212648
0.00215711
0.00215709
0.00212901
0.00212902
0.00215706
0.00212905
0.00212899
0.00215909
0.0021264
0.00215707
0.00212901
0.00212901
0.00212651
0.00212162
0.00208923
0.00211959
0.00211974
0.00209179
0.00209181
0.00212164
0.00208922
0.00211964
0.00211966
0.00209181
0.00209178
0.00211977
0.00209182
0.00209184
0.00212156
0.00208934
0.00211976
0.00209179
0.00209181
0.00208913
0.00208435
0.00205209
0.00208253
0.00208246
0.00205456
0.0020546
0.00208434
0.00205214
0.00208252
0.00208254
0.00205453
0.00205458
0.00208243
0.00205456
0.00205442
0.00208445
0.00205204
0.00208243
0.00205456
0.00205445
0.00205206
0.00204722
0.00201517
0.00204525
0.00204534
0.00201758
0.00201752
0.00204726
0.0020151
0.00204524
0.00204525
0.0020176
0.00201751
0.00204523
0.00201755
0.00201784
0.00204719
0.00201509
0.00204525
0.00201752
0.00201782
0.00201548
0.0020103
0.00197819
0.00200839
0.00200829
0.00198067
0.00198073
0.00201028
0.0019783
0.0020084
0.00200833
0.00198066
0.00198073
0.00200857
0.00198073
0.00198042
0.00201026
0.00197833
0.00200855
0.00198076
0.00198042
0.00197794
0.00197333
0.00194155
0.00197142
0.0019715
0.00194383
0.00194376
0.0019734
0.00194144
0.00197141
0.00197148
0.00194382
0.00194376
0.00197116
0.00194375
0.00194388
0.00197342
0.00194138
0.00197118
0.00194373
0.00194389
0.00194162
0.00193672
0.00190478
0.00193467
0.00193461
0.00190712
0.00190731
0.00193663
0.00190494
0.00193467
0.0019346
0.00190715
0.00190723
0.0019348
0.0019073
0.00190717
0.00193658
0.0019049
0.00193482
0.00190721
0.00190715
0.00190479
0.00189997
0.0018687
0.001898
0.00189809
0.00187091
0.00187056
0.00190004
0.00186835
0.00189802
0.00189806
0.00187088
0.00187074
0.00189795
0.00187058
0.00187077
0.00190003
0.00186853
0.00189793
0.00187075
0.00187078
0.00186853
0.00186388
0.00183203
0.00186186
0.00186158
0.00183433
0.00183474
0.00186361
0.00183259
0.00186183
0.00186172
0.00183436
0.00183452
0.0018618
0.00183472
0.00183451
0.00186376
0.0018322
0.00186182
0.00183452
0.00183453
0.00183221
0.00182722
0.00179605
0.00182519
0.00182566
0.00179821
0.00179802
0.00182773
0.00179574
0.0018252
0.00182536
0.00179819
0.00179811
0.00182533
0.00179803
0.00179807
0.00182733
0.00179593
0.00182532
0.00179809
0.00179804
0.00179588
0.00179128
0.00176017
0.00178926
0.00178891
0.00176227
0.00176214
0.00179096
0.00176009
0.00178925
0.00178915
0.00176229
0.00176226
0.00178912
0.00176215
0.00176232
0.00179117
0.00176023
0.00178911
0.00176227
0.00176234
0.00176027
0.00175533
0.00172403
0.00175325
0.00175328
0.00172615
0.00172647
0.00175535
0.00172426
0.00175326
0.00175329
0.00172612
0.00172627
0.00175333
0.00172645
0.00172621
0.00175543
0.00172402
0.00175335
0.00172629
0.00172621
0.00172397
0.00171931
0.00168836
0.00171723
0.00171741
0.00169049
0.00169033
0.00171944
0.00168825
0.00171723
0.00171722
0.0016905
0.00169034
0.00171718
0.00169038
0.0016905
0.00171923
0.00168831
0.00171717
0.00169033
0.00169047
0.00168842
0.00168357
0.00165273
0.00168152
0.00168141
0.00165479
0.00165477
0.00168349
0.00165266
0.00168152
0.00168149
0.00165479
0.00165494
0.00168161
0.0016547
0.00165465
0.00168358
0.00165281
0.0016816
0.00165494
0.00165469
0.00165257
0.00164797
0.00161713
0.00164593
0.00164587
0.00161918
0.00161926
0.00164791
0.00161724
0.00164595
0.00164598
0.0016192
0.00161906
0.00164573
0.00161933
0.00161929
0.001648
0.00161705
0.00164577
0.00161905
0.00161928
0.00161723
0.00161238
0.00158183
0.00161028
0.00161043
0.00158392
0.00158388
0.0016125
0.00158177
0.00161029
0.00161026
0.00158389
0.00158397
0.00161047
0.00158382
0.00158388
0.00161235
0.00158192
0.00161045
0.00158402
0.00158383
0.00158177
0.0015771
0.00154646
0.00157512
0.00157501
0.00154847
0.00154854
0.00157703
0.00154651
0.0015751
0.00157517
0.00154851
0.00154854
0.00157502
0.00154853
0.00154848
0.00157718
0.00154647
0.001575
0.00154847
0.00154853
0.00154649
0.00154173
0.00151139
0.00153963
0.00153976
0.00151345
0.00151341
0.00154179
0.00151138
0.00153967
0.00153971
0.00151344
0.00151331
0.0015397
0.00151344
0.00151347
0.00154175
0.00151132
0.00153977
0.00151337
0.00151344
0.00151139
0.00150669
0.00147623
0.00150473
0.00150463
0.00147825
0.00147831
0.00150667
0.00147626
0.00150471
0.00150457
0.00147825
0.00147842
0.00150471
0.00147831
0.00147826
0.00150662
0.00147634
0.00150464
0.00147836
0.00147826
0.00147623
0.00147153
0.00144134
0.00146946
0.00146953
0.00144341
0.00144332
0.00147153
0.00144129
0.00146949
0.00146966
0.0014434
0.00144327
0.00146944
0.00144328
0.00144333
0.00147163
0.00144123
0.00146951
0.00144332
0.00144336
0.00144131
0.00143664
0.00140631
0.00143471
0.00143462
0.00140836
0.00140847
0.00143661
0.00140643
0.00143469
0.00143447
0.00140833
0.00140842
0.00143466
0.00140852
0.00140848
0.00143651
0.00140638
0.00143461
0.00140835
0.00140837
0.00140636
0.00140162
0.00137161
0.00139959
0.00139972
0.00137359
0.00137353
0.00140171
0.00137153
0.00139959
0.00139976
0.00137365
0.00137372
0.00139969
0.00137352
0.00137355
0.00140171
0.0013717
0.00139967
0.00137381
0.00137369
0.00137163
0.00136694
0.00133695
0.00136498
0.00136488
0.00133905
0.00133903
0.00136686
0.00133696
0.00136504
0.001365
0.00133905
0.00133887
0.00136494
0.00133904
0.00133907
0.001367
0.00133679
0.00136503
0.00133881
0.00133895
0.00133691
0.00133224
0.00130209
0.00133032
0.00133034
0.00130415
0.00130422
0.00133227
0.00130215
0.00133029
0.00133018
0.00130409
0.00130421
0.00133033
0.00130418
0.00130414
0.0013321
0.00130216
0.00133021
0.00130422
0.00130415
0.0013021
0.00129742
0.00126779
0.00129551
0.00129559
0.00126977
0.00126978
0.00129748
0.00126778
0.00129545
0.00129561
0.00126978
0.00126989
0.00129551
0.00126979
0.00126975
0.00129751
0.00126787
0.00129555
0.00126992
0.00126982
0.0012678
0.00126316
0.00123319
0.00126117
0.00126113
0.00123521
0.00123517
0.00126311
0.00123317
0.00126124
0.00126125
0.00123526
0.00123513
0.00126114
0.00123519
0.00123524
0.00126319
0.00123312
0.00126118
0.00123511
0.00123523
0.00123321
0.00122855
0.00119902
0.00122666
0.00122664
0.00120111
0.00120111
0.00122854
0.00119903
0.00122666
0.00122657
0.00120105
0.00120106
0.00122671
0.00120109
0.00120113
0.00122849
0.00119905
0.00122669
0.00120111
0.00120113
0.00119905
0.00119437
0.00116462
0.0011925
0.0011925
0.00116664
0.00116665
0.00119437
0.00116461
0.00119246
0.0011925
0.00116664
0.00116667
0.0011925
0.00116664
0.00116661
0.0011944
0.00116461
0.0011925
0.00116665
0.00116661
0.00116458
0.00116
0.00113107
0.00115813
0.00115814
0.00113297
0.00113298
0.00115998
0.00113107
0.00115814
0.00115816
0.00113298
0.00113299
0.0011581
0.00113299
0.00113296
0.00115999
0.00113106
0.00115809
0.00113296
0.00113294
0.00113104
0.00112656
0.00109675
0.00112463
0.00112464
0.00109893
0.00109894
0.00112657
0.00109677
0.00112464
0.00112464
0.00109892
0.0010989
0.00112463
0.00109895
0.00109898
0.00112656
0.00109675
0.00112461
0.00109893
0.00109898
0.00109679
0.00109199
0.00106172
0.00109015
0.00109015
0.00106388
0.00106388
0.001092
0.00106172
0.00109014
0.00109013
0.00106389
0.00106388
0.00109017
0.00106388
0.00106388
0.00109199
0.00106172
0.00109018
0.00106388
0.00106389
0.00106172
0.00105696
0.00102712
0.00105512
0.00105512
0.00102894
0.00102894
0.00105695
0.00102712
0.00105512
0.00105512
0.00102895
0.00102895
0.00105512
0.00102894
0.00102894
0.00105696
0.00102713
0.00105513
0.00102895
0.00102895
0.00102712
0.00102246
0.000993261
0.00102036
0.00102036
0.000995025
0.000995024
0.00102246
0.000993259
0.00102036
0.00102037
0.000995026
0.000995028
0.00102036
0.000995022
0.000995022
0.00102246
0.000993259
0.00102036
0.000995023
0.00099502
0.000993255
0.000988767
0.000960502
0.000986739
0.000986737
0.000962509
0.000962511
0.000988764
0.000960507
0.00098674
0.000986741
0.000962505
0.000962505
0.000986736
0.000962507
0.000962506
0.000988765
0.000960497
0.000986732
0.000962504
0.000962503
0.0009605
0.000956034
0.000927751
0.000954384
0.000954389
0.000929883
0.000929886
0.000956038
0.000927754
0.00095438
0.000954377
0.000929882
0.00092988
0.000954381
0.000929885
0.000929882
0.000956029
0.000927753
0.00095438
0.000929884
0.000929885
0.000927753
0.00092336
0.000894819
0.000921786
0.000921789
0.000896977
0.000896976
0.000923361
0.000894818
0.000921786
0.000921786
0.000896977
0.000896979
0.000921786
0.000896977
0.000896977
0.000923362
0.000894821
0.000921791
0.000896981
0.000896981
0.00089482
0.000890138
0.00085885
0.000888363
0.000888362
0.000861123
0.000861117
0.000890136
0.000858846
0.000888364
0.000888365
0.00086112
0.000861125
0.000888363
0.000861117
0.000861122
0.00089014
0.000858852
0.000888366
0.000861124
0.000861118
0.000858848
0.000853639
0.000819758
0.000851578
0.000851574
0.000821814
0.000821811
0.000853635
0.000819756
0.000851578
0.00085158
0.000821814
0.000821815
0.000851576
0.000821812
0.000821813
0.000853642
0.000819756
0.000851577
0.000821814
0.000821812
0.000819756
0.000814417
0.000780655
0.000811912
0.00081191
0.000782529
0.000782529
0.000814415
0.000780656
0.000811913
0.000811912
0.000782529
0.000782529
0.000811912
0.00078253
0.00078253
0.000814415
0.000780653
0.00081191
0.000782527
0.000782528
0.000780655
0.000775398
0.000743015
0.000772863
0.000772863
0.000744858
0.00074486
0.000775399
0.000743017
0.000772862
0.000772862
0.000744858
0.000744858
0.000772864
0.00074486
0.000744859
0.000775397
0.000743015
0.000772862
0.000744857
0.000744858
0.000743015
0.000738164
0.000708716
0.000735943
0.000735948
0.000710592
0.000710594
0.000738167
0.000708714
0.000735944
0.000735944
0.000710593
0.000710592
0.000735946
0.000710589
0.000710594
0.000738165
0.000708716
0.000735946
0.000710589
0.000710593
0.000708715
0.000704338
0.000677269
0.000702568
0.000702568
0.000679211
0.000679211
0.000704337
0.000677269
0.000702568
0.000702566
0.000679211
0.00067921
0.000702568
0.000679211
0.00067921
0.000704338
0.00067727
0.000702568
0.000679211
0.000679211
0.000677269
0.000673216
0.00064831
0.000671735
0.000671735
0.000650101
0.000650101
0.000673216
0.000648311
0.000671736
0.000671736
0.000650101
0.000650102
0.000671735
0.000650101
0.000650102
0.000673217
0.000648311
0.000671736
0.000650102
0.000650102
0.00064831
0.000644397
0.00061848
0.000642876
0.000642877
0.000620343
0.000620342
0.000644397
0.000618481
0.000642877
0.000642878
0.000620343
0.000620343
0.000642878
0.000620341
0.000620343
0.000644398
0.00061848
0.000642877
0.000620343
0.000620342
0.000618481
0.000614188
0.00058579
0.000612462
0.000612461
0.000587765
0.000587765
0.000614187
0.00058579
0.000612462
0.000612462
0.000587765
0.000587765
0.000612462
0.000587765
0.000587764
0.000614188
0.00058579
0.000612462
0.000587765
0.000587764
0.000585789
0.000581149
0.000551026
0.000579241
0.000579241
0.000553063
0.000553063
0.000581149
0.000551027
0.00057924
0.000579241
0.000553062
0.000553063
0.00057924
0.000553063
0.000553063
0.000581148
0.000551026
0.00057924
0.000553063
0.000553063
0.000551026
0.000546202
0.000515235
0.00054419
0.00054419
0.000517297
0.000517297
0.000546201
0.000515235
0.00054419
0.00054419
0.000517297
0.000517297
0.00054419
0.000517297
0.000517297
0.000546202
0.000515234
0.00054419
0.000517297
0.000517297
0.000515234
0.000510329
0.000478991
0.000508268
0.000508268
0.000481063
0.000481063
0.000510328
0.000478991
0.000508268
0.000508268
0.000481063
0.000481063
0.000508268
0.000481063
0.000481063
0.000510329
0.000478991
0.000508268
0.000481063
0.000481063
0.000478991
0.000474051
0.000442571
0.000471969
0.000471969
0.000444647
0.000444647
0.000474051
0.000442571
0.000471969
0.000471969
0.000444647
0.000444647
0.000471969
0.000444647
0.000444647
0.000474051
0.000442571
0.000471969
0.000444647
0.000444647
0.000442571
0.000437621
0.000406102
0.000435534
0.000435534
0.00040818
0.00040818
0.000437621
0.000406103
0.000435534
0.000435534
0.00040818
0.00040818
0.000435534
0.00040818
0.000408181
0.000437621
0.000406102
0.000435534
0.00040818
0.00040818
0.000406102
0.000401149
0.000369609
0.00039906
0.00039906
0.000371687
0.000371687
0.000401149
0.00036961
0.00039906
0.00039906
0.000371687
0.000371687
0.00039906
0.000371687
0.000371687
0.000401149
0.000369609
0.00039906
0.000371687
0.000371687
0.000369609
0.000364654
0.000333117
0.000362564
0.000362564
0.000335195
0.000335195
0.000364654
0.000333117
0.000362564
0.000362564
0.000335195
0.000335195
0.000362564
0.000335195
0.000335195
0.000364654
0.000333117
0.000362564
0.000335195
0.000335195
0.000333117
0.000328163
0.000296623
0.000326074
0.000326073
0.000298701
0.0002987
0.000328162
0.000296623
0.000326073
0.000326073
0.0002987
0.0002987
0.000326074
0.000298701
0.000298701
0.000328163
0.000296623
0.000326073
0.000298701
0.000298701
0.000296623
0.000291667
0.000260127
0.000289577
0.000289577
0.000262204
0.000262204
0.000291666
0.000260127
0.000289577
0.000289577
0.000262204
0.000262204
0.000289577
0.000262204
0.000262204
0.000291667
0.000260127
0.000289577
0.000262204
0.000262204
0.000260127
0.000255171
0.000223635
0.000253084
0.000253084
0.000225711
0.000225711
0.000255171
0.000223635
0.000253084
0.000253084
0.000225711
0.000225711
0.000253084
0.000225711
0.000225712
0.000255171
0.000223635
0.000253084
0.000225711
0.000225711
0.000223635
0.000218676
0.000187136
0.00021659
0.000216589
0.000189211
0.000189211
0.000218676
0.000187136
0.000216589
0.000216589
0.000189211
0.000189211
0.00021659
0.000189211
0.000189211
0.000218676
0.000187135
0.000216589
0.000189211
0.000189211
0.000187136
0.000182173
0.000150641
0.000180091
0.000180091
0.000152712
0.000152712
0.000182173
0.000150641
0.000180091
0.000180091
0.000152712
0.000152712
0.000180092
0.000152713
0.000152713
0.000182173
0.00015064
0.000180091
0.000152712
0.000152712
0.00015064
0.000145669
0.00011414
0.000143593
0.000143593
0.000116208
0.000116208
0.000145668
0.00011414
0.000143593
0.000143593
0.000116208
0.000116208
0.000143593
0.000116208
0.000116208
0.000145669
0.000114139
0.000143593
0.000116208
0.000116208
0.000114139
0.000109149
7.76361e-05
0.00010709
0.00010709
7.96987e-05
7.96986e-05
0.000109149
7.76369e-05
0.00010709
0.000107089
7.96982e-05
7.96979e-05
0.00010709
7.96986e-05
7.96979e-05
0.000109149
7.76351e-05
0.00010709
7.9698e-05
7.96981e-05
7.76353e-05
7.26092e-05
4.11705e-05
7.05836e-05
7.05834e-05
4.32304e-05
4.32312e-05
7.26088e-05
4.1172e-05
7.05826e-05
7.05821e-05
4.32286e-05
4.32278e-05
7.05826e-05
4.32297e-05
4.32275e-05
7.26086e-05
4.1168e-05
7.05824e-05
4.32272e-05
4.32262e-05
4.11677e-05
3.61719e-05
8.57729e-06
3.42959e-05
3.42965e-05
1.16044e-05
1.16042e-05
3.61725e-05
8.57761e-06
3.42944e-05
3.42925e-05
1.16053e-05
1.1599e-05
3.42917e-05
1.16044e-05
1.15975e-05
3.61692e-05
8.57412e-06
3.42911e-05
1.16026e-05
1.16027e-05
8.57287e-06
5.33792e-06
7.08004e-06
7.0798e-06
5.33901e-06
7.08029e-06
7.07624e-06
6.1796e-06
6.1792e-06
6.17833e-06
7.07546e-06
5.33681e-06
7.07921e-06
0.00353576
0.00353834
0.0035372
0.00353722
0.00356457
0.00353838
0.00356783
0.0035385
0.00356417
0.00353804
0.00353825
0.00356722
0.00354906
0.00357084
0.00357074
0.00350833
0.00352552
0.00352637
0.00350042
0.00349893
0.00350402
0.00350822
0.00352194
0.0035262
0.00350057
0.00352427
0.003524
0.00352412
0.00349774
0.00349771
0.0034976
0.00349764
0.00350793
0.00351972
0.00352479
0.00351543
0.00352692
0.003505
0.00351575
0.00350989
0.00350364
0.00350766
0.00352444
0.0035189
0.00351499
0.00352653
0.00351549
0.00350452
0.00352571
0.00352556
0.00351265
0.00350474
0.00350478
0.00348076
0.00349504
0.00349472
0.00347883
0.00349226
0.00347786
0.00348071
0.00349493
0.00349463
0.00347881
0.00348863
0.00348858
0.00348861
0.00346061
0.00346054
0.00346057
0.00346055
0.00347856
0.00349353
0.00348708
0.00347794
0.00349188
0.00347906
0.00347781
0.00349206
0.0034778
0.00347848
0.00348699
0.00349344
0.00347776
0.00349177
0.00347774
0.00347891
0.00349502
0.00349507
0.00347623
0.0034794
0.00347942
0.00343852
0.00345319
0.00345391
0.00343719
0.00345197
0.0034363
0.00343852
0.00345316
0.00345397
0.00343718
0.0034505
0.00345056
0.00345054
0.00341801
0.00341796
0.00341796
0.00341798
0.00343719
0.00345281
0.00344856
0.00343824
0.00345166
0.00343758
0.00343818
0.00345203
0.00343632
0.00343723
0.00344856
0.00345291
0.00343829
0.00345165
0.0034382
0.0034377
0.00345338
0.0034534
0.00343547
0.00343754
0.00343751
0.00339192
0.00340859
0.00341004
0.00339053
0.00340786
0.00339002
0.00339201
0.00340854
0.00340998
0.00339059
0.00340633
0.00340634
0.00340636
0.00337029
0.00337024
0.00337025
0.00337026
0.00339117
0.00340834
0.00340467
0.00339296
0.00340776
0.00339121
0.00339288
0.00340778
0.00339004
0.00339117
0.00340462
0.00340827
0.00339291
0.00340772
0.00339287
0.00339121
0.00340857
0.00340861
0.0033896
0.00339076
0.0033907
0.00334291
0.00336009
0.00336138
0.00334174
0.00335966
0.0033414
0.00334295
0.00336006
0.00336135
0.00334174
0.00335802
0.00335801
0.00335803
0.00332138
0.00332137
0.00332135
0.00332137
0.00334251
0.0033601
0.00335652
0.00334431
0.00335973
0.00334242
0.00334432
0.00335966
0.00334137
0.00334253
0.0033565
0.00336005
0.00334433
0.0033597
0.00334433
0.00334244
0.00336015
0.00336013
0.00334098
0.00334182
0.00334183
0.00329394
0.00331118
0.00331225
0.00329305
0.00331085
0.00329288
0.00329394
0.00331116
0.00331216
0.00329306
0.00330923
0.00330923
0.00330924
0.00327316
0.00327316
0.00327315
0.00327317
0.00329384
0.00331119
0.00330786
0.00329575
0.00331095