/*--------------------------------*- C++ -*----------------------------------*\
| =========                 |                                                 |
| \\      /  F ield         | OpenFOAM: The Open Source CFD Toolbox           |
|  \\    /   O peration     | Version:  v2012                                 |
|   \\  /    A nd           | Website:  www.openfoam.com                      |
|    \\/     M anipulation  |                                                 |
\*---------------------------------------------------------------------------*/
FoamFile
{
    version     2.0;
    format      ascii;
    class       volScalarField;
    location    "100000";
    object      p;
}
// * * * * * * * * * * * * * * * * * * * * * * * * * * * * * * * * * * * * * //

dimensions      [0 2 -2 0 0 0 0];


internalField   nonuniform List<scalar> 
171728
(
1.2697e-07
1.26904e-07
1.26904e-07
1.27051e-07
1.24059e-07
1.23982e-07
1.23982e-07
1.24113e-07
1.219e-07
1.21875e-07
1.21875e-07
1.21983e-07
1.20072e-07
1.20064e-07
1.20064e-07
1.20159e-07
1.18416e-07
1.18416e-07
1.18416e-07
1.18505e-07
1.16864e-07
1.16866e-07
1.16866e-07
1.1695e-07
1.15379e-07
1.15382e-07
1.15382e-07
1.15463e-07
1.13942e-07
1.13944e-07
1.13944e-07
1.14023e-07
1.12538e-07
1.12539e-07
1.12539e-07
1.12618e-07
1.11159e-07
1.1116e-07
1.1116e-07
1.11237e-07
1.09799e-07
1.098e-07
1.098e-07
1.09876e-07
1.08454e-07
1.08454e-07
1.08454e-07
1.0853e-07
1.07119e-07
1.07119e-07
1.07119e-07
1.07194e-07
1.05793e-07
1.05793e-07
1.05793e-07
1.05868e-07
1.04473e-07
1.04473e-07
1.04473e-07
1.04548e-07
1.03159e-07
1.03159e-07
1.03159e-07
1.03233e-07
1.01848e-07
1.01848e-07
1.01848e-07
1.01922e-07
1.00541e-07
1.00541e-07
1.00541e-07
1.00614e-07
9.92355e-08
9.92354e-08
9.92354e-08
9.93091e-08
9.79322e-08
9.79322e-08
9.79322e-08
9.80057e-08
9.66304e-08
9.66304e-08
9.66304e-08
9.67039e-08
9.53298e-08
9.53297e-08
9.53297e-08
9.54031e-08
9.40299e-08
9.40299e-08
9.40299e-08
9.41033e-08
9.27308e-08
9.27307e-08
9.27307e-08
9.28041e-08
9.14322e-08
9.14321e-08
9.14321e-08
9.15054e-08
9.0134e-08
9.01339e-08
9.01339e-08
9.02072e-08
8.88361e-08
8.8836e-08
8.8836e-08
8.89093e-08
8.75385e-08
8.75384e-08
8.75384e-08
8.76117e-08
8.62411e-08
8.6241e-08
8.6241e-08
8.63142e-08
8.49439e-08
8.49437e-08
8.49437e-08
8.5017e-08
8.36468e-08
8.36466e-08
8.36466e-08
8.37199e-08
8.23498e-08
8.23496e-08
8.23496e-08
8.24229e-08
8.10529e-08
8.10527e-08
8.10527e-08
8.11259e-08
7.9756e-08
7.97558e-08
7.97558e-08
7.98291e-08
7.84592e-08
7.84589e-08
7.84589e-08
7.85322e-08
7.71623e-08
7.71621e-08
7.71621e-08
7.72354e-08
7.58655e-08
7.58653e-08
7.58653e-08
7.59385e-08
7.45687e-08
7.45684e-08
7.45684e-08
7.46417e-08
7.32719e-08
7.32716e-08
7.32716e-08
7.33449e-08
7.1975e-08
7.19748e-08
7.19748e-08
7.20481e-08
7.06782e-08
7.0678e-08
7.0678e-08
7.07513e-08
6.93814e-08
6.93812e-08
6.93812e-08
6.94545e-08
6.80847e-08
6.80845e-08
6.80845e-08
6.81577e-08
6.67879e-08
6.67877e-08
6.67877e-08
6.6861e-08
6.54912e-08
6.5491e-08
6.5491e-08
6.55643e-08
6.41945e-08
6.41943e-08
6.41943e-08
6.42676e-08
6.28978e-08
6.28976e-08
6.28976e-08
6.29709e-08
6.16011e-08
6.16009e-08
6.16009e-08
6.16742e-08
6.03044e-08
6.03042e-08
6.03042e-08
6.03775e-08
5.90078e-08
5.90075e-08
5.90075e-08
5.90808e-08
5.77111e-08
5.77108e-08
5.77108e-08
5.77841e-08
5.64144e-08
5.64141e-08
5.64141e-08
5.64874e-08
5.51177e-08
5.51174e-08
5.51174e-08
5.51907e-08
5.38209e-08
5.38207e-08
5.38207e-08
5.3894e-08
5.25242e-08
5.2524e-08
5.2524e-08
5.25972e-08
5.12274e-08
5.12272e-08
5.12272e-08
5.13005e-08
4.99306e-08
4.99304e-08
4.99304e-08
5.00037e-08
4.86338e-08
4.86336e-08
4.86336e-08
4.87069e-08
4.7337e-08
4.73368e-08
4.73368e-08
4.74101e-08
4.60402e-08
4.604e-08
4.604e-08
4.61132e-08
4.47433e-08
4.47431e-08
4.47431e-08
4.48164e-08
4.34465e-08
4.34463e-08
4.34463e-08
4.35195e-08
4.21496e-08
4.21494e-08
4.21494e-08
4.22227e-08
4.08528e-08
4.08526e-08
4.08526e-08
4.09258e-08
3.9556e-08
3.95557e-08
3.95557e-08
3.9629e-08
3.82591e-08
3.82589e-08
3.82589e-08
3.83322e-08
3.69624e-08
3.69621e-08
3.69621e-08
3.70354e-08
3.56655e-08
3.56653e-08
3.56653e-08
3.57386e-08
3.43687e-08
3.43685e-08
3.43685e-08
3.44418e-08
3.30719e-08
3.30717e-08
3.30717e-08
3.3145e-08
3.17752e-08
3.1775e-08
3.1775e-08
3.18482e-08
3.04785e-08
3.04782e-08
3.04782e-08
3.05515e-08
2.91818e-08
2.91816e-08
2.91816e-08
2.92548e-08
2.78851e-08
2.78849e-08
2.78849e-08
2.79581e-08
2.65884e-08
2.65882e-08
2.65882e-08
2.66615e-08
2.52918e-08
2.52915e-08
2.52915e-08
2.53648e-08
2.39951e-08
2.39949e-08
2.39949e-08
2.40681e-08
2.26984e-08
2.26982e-08
2.26982e-08
2.27715e-08
2.14018e-08
2.14015e-08
2.14015e-08
2.14748e-08
2.01051e-08
2.01048e-08
2.01048e-08
2.01781e-08
1.88084e-08
1.88081e-08
1.88081e-08
1.88814e-08
1.75116e-08
1.75114e-08
1.75114e-08
1.75847e-08
1.62149e-08
1.62147e-08
1.62147e-08
1.62879e-08
1.49181e-08
1.49179e-08
1.49179e-08
1.49912e-08
1.36213e-08
1.36211e-08
1.36211e-08
1.36944e-08
1.23245e-08
1.23243e-08
1.23243e-08
1.23975e-08
1.10276e-08
1.10274e-08
1.10274e-08
1.11007e-08
9.73076e-09
9.73055e-09
9.73055e-09
9.80382e-09
8.4339e-09
8.43368e-09
8.43368e-09
8.50695e-09
7.13703e-09
7.13681e-09
7.13681e-09
7.21007e-09
5.84014e-09
5.83994e-09
5.83994e-09
5.91318e-09
4.54325e-09
4.54308e-09
4.54308e-09
4.61629e-09
3.24643e-09
3.24618e-09
3.24617e-09
3.31944e-09
1.95333e-09
1.94915e-09
1.94909e-09
2.02377e-09
6.65129e-10
7.31278e-10
7.31174e-10
6.62308e-10
1.27561e-07
1.27636e-07
1.27636e-07
1.27561e-07
1.27636e-07
1.27636e-07
1.27803e-07
1.27803e-07
1.27804e-07
1.27804e-07
1.27636e-07
1.27636e-07
1.27561e-07
1.27636e-07
1.27636e-07
1.27561e-07
1.27051e-07
1.24454e-07
1.26904e-07
1.26904e-07
1.24596e-07
1.24596e-07
1.27051e-07
1.24454e-07
1.26904e-07
1.26904e-07
1.24596e-07
1.24596e-07
1.26904e-07
1.24596e-07
1.24596e-07
1.27051e-07
1.24454e-07
1.26904e-07
1.24596e-07
1.24596e-07
1.24454e-07
1.24113e-07
1.22254e-07
1.23982e-07
1.23982e-07
1.22365e-07
1.22365e-07
1.24113e-07
1.22254e-07
1.23982e-07
1.23982e-07
1.22365e-07
1.22365e-07
1.23982e-07
1.22365e-07
1.22365e-07
1.24113e-07
1.22254e-07
1.23982e-07
1.22365e-07
1.22365e-07
1.22254e-07
1.21983e-07
1.20395e-07
1.21875e-07
1.21875e-07
1.20498e-07
1.20498e-07
1.21983e-07
1.20395e-07
1.21875e-07
1.21875e-07
1.20498e-07
1.20498e-07
1.21875e-07
1.20498e-07
1.20498e-07
1.21983e-07
1.20395e-07
1.21875e-07
1.20498e-07
1.20498e-07
1.20395e-07
1.20159e-07
1.18723e-07
1.20064e-07
1.20064e-07
1.18817e-07
1.18817e-07
1.20159e-07
1.18723e-07
1.20064e-07
1.20064e-07
1.18817e-07
1.18817e-07
1.20064e-07
1.18817e-07
1.18817e-07
1.20159e-07
1.18723e-07
1.20064e-07
1.18817e-07
1.18817e-07
1.18723e-07
1.18505e-07
1.17157e-07
1.18416e-07
1.18416e-07
1.17246e-07
1.17246e-07
1.18505e-07
1.17157e-07
1.18416e-07
1.18416e-07
1.17246e-07
1.17246e-07
1.18416e-07
1.17246e-07
1.17246e-07
1.18505e-07
1.17157e-07
1.18416e-07
1.17246e-07
1.17246e-07
1.17157e-07
1.1695e-07
1.15663e-07
1.16866e-07
1.16866e-07
1.15748e-07
1.15748e-07
1.1695e-07
1.15663e-07
1.16866e-07
1.16866e-07
1.15748e-07
1.15748e-07
1.16866e-07
1.15748e-07
1.15748e-07
1.1695e-07
1.15663e-07
1.16866e-07
1.15748e-07
1.15748e-07
1.15663e-07
1.15463e-07
1.14218e-07
1.15382e-07
1.15382e-07
1.143e-07
1.143e-07
1.15463e-07
1.14218e-07
1.15382e-07
1.15382e-07
1.143e-07
1.143e-07
1.15382e-07
1.143e-07
1.143e-07
1.15463e-07
1.14218e-07
1.15382e-07
1.143e-07
1.143e-07
1.14218e-07
1.14023e-07
1.12808e-07
1.13944e-07
1.13944e-07
1.12888e-07
1.12888e-07
1.14023e-07
1.12808e-07
1.13944e-07
1.13944e-07
1.12888e-07
1.12888e-07
1.13944e-07
1.12888e-07
1.12888e-07
1.14023e-07
1.12808e-07
1.13944e-07
1.12888e-07
1.12888e-07
1.12808e-07
1.12618e-07
1.11425e-07
1.12539e-07
1.12539e-07
1.11503e-07
1.11503e-07
1.12618e-07
1.11425e-07
1.12539e-07
1.12539e-07
1.11503e-07
1.11503e-07
1.12539e-07
1.11503e-07
1.11503e-07
1.12618e-07
1.11425e-07
1.12539e-07
1.11503e-07
1.11503e-07
1.11425e-07
1.11237e-07
1.10061e-07
1.1116e-07
1.1116e-07
1.10138e-07
1.10138e-07
1.11237e-07
1.10061e-07
1.1116e-07
1.1116e-07
1.10138e-07
1.10138e-07
1.1116e-07
1.10138e-07
1.10138e-07
1.11237e-07
1.10061e-07
1.1116e-07
1.10138e-07
1.10138e-07
1.10061e-07
1.09876e-07
1.08713e-07
1.098e-07
1.098e-07
1.08789e-07
1.08789e-07
1.09876e-07
1.08713e-07
1.098e-07
1.098e-07
1.08789e-07
1.08789e-07
1.098e-07
1.08789e-07
1.08789e-07
1.09876e-07
1.08713e-07
1.098e-07
1.08789e-07
1.08789e-07
1.08713e-07
1.0853e-07
1.07377e-07
1.08454e-07
1.08454e-07
1.07452e-07
1.07452e-07
1.0853e-07
1.07377e-07
1.08454e-07
1.08454e-07
1.07452e-07
1.07452e-07
1.08454e-07
1.07452e-07
1.07452e-07
1.0853e-07
1.07377e-07
1.08454e-07
1.07452e-07
1.07452e-07
1.07377e-07
1.07194e-07
1.06049e-07
1.07119e-07
1.07119e-07
1.06124e-07
1.06124e-07
1.07194e-07
1.06049e-07
1.07119e-07
1.07119e-07
1.06124e-07
1.06124e-07
1.07119e-07
1.06124e-07
1.06124e-07
1.07194e-07
1.06049e-07
1.07119e-07
1.06124e-07
1.06124e-07
1.06049e-07
1.05868e-07
1.04728e-07
1.05793e-07
1.05793e-07
1.04803e-07
1.04803e-07
1.05868e-07
1.04728e-07
1.05793e-07
1.05793e-07
1.04803e-07
1.04803e-07
1.05793e-07
1.04803e-07
1.04803e-07
1.05868e-07
1.04728e-07
1.05793e-07
1.04803e-07
1.04803e-07
1.04728e-07
1.04548e-07
1.03413e-07
1.04473e-07
1.04473e-07
1.03487e-07
1.03487e-07
1.04548e-07
1.03413e-07
1.04473e-07
1.04473e-07
1.03487e-07
1.03487e-07
1.04473e-07
1.03487e-07
1.03487e-07
1.04548e-07
1.03413e-07
1.04473e-07
1.03487e-07
1.03487e-07
1.03413e-07
1.03233e-07
1.02101e-07
1.03159e-07
1.03159e-07
1.02175e-07
1.02175e-07
1.03233e-07
1.02101e-07
1.03159e-07
1.03159e-07
1.02175e-07
1.02175e-07
1.03159e-07
1.02175e-07
1.02175e-07
1.03233e-07
1.02101e-07
1.03159e-07
1.02175e-07
1.02175e-07
1.02101e-07
1.01922e-07
1.00793e-07
1.01848e-07
1.01848e-07
1.00867e-07
1.00867e-07
1.01922e-07
1.00793e-07
1.01848e-07
1.01848e-07
1.00867e-07
1.00867e-07
1.01848e-07
1.00867e-07
1.00867e-07
1.01922e-07
1.00793e-07
1.01848e-07
1.00867e-07
1.00867e-07
1.00793e-07
1.00614e-07
9.94878e-08
1.00541e-07
1.00541e-07
9.95615e-08
9.95615e-08
1.00614e-07
9.94878e-08
1.00541e-07
1.00541e-07
9.95615e-08
9.95615e-08
1.00541e-07
9.95615e-08
9.95615e-08
1.00614e-07
9.94878e-08
1.00541e-07
9.95615e-08
9.95615e-08
9.94878e-08
9.93091e-08
9.81843e-08
9.92354e-08
9.92354e-08
9.82578e-08
9.82578e-08
9.93091e-08
9.81843e-08
9.92354e-08
9.92354e-08
9.82578e-08
9.82578e-08
9.92354e-08
9.82578e-08
9.82578e-08
9.93091e-08
9.81843e-08
9.92354e-08
9.82578e-08
9.82578e-08
9.81843e-08
9.80057e-08
9.68822e-08
9.79322e-08
9.79322e-08
9.69557e-08
9.69557e-08
9.80057e-08
9.68822e-08
9.79322e-08
9.79322e-08
9.69557e-08
9.69557e-08
9.79322e-08
9.69557e-08
9.69557e-08
9.80057e-08
9.68822e-08
9.79322e-08
9.69557e-08
9.69557e-08
9.68822e-08
9.67039e-08
9.55813e-08
9.66304e-08
9.66304e-08
9.56548e-08
9.56548e-08
9.67038e-08
9.55813e-08
9.66304e-08
9.66304e-08
9.56548e-08
9.56548e-08
9.66304e-08
9.56548e-08
9.56548e-08
9.67039e-08
9.55813e-08
9.66304e-08
9.56548e-08
9.56548e-08
9.55813e-08
9.54031e-08
9.42814e-08
9.53297e-08
9.53297e-08
9.43547e-08
9.43547e-08
9.54031e-08
9.42814e-08
9.53297e-08
9.53297e-08
9.43547e-08
9.43547e-08
9.53297e-08
9.43547e-08
9.43547e-08
9.54031e-08
9.42814e-08
9.53297e-08
9.43547e-08
9.43547e-08
9.42814e-08
9.41032e-08
9.29821e-08
9.40299e-08
9.40299e-08
9.30554e-08
9.30554e-08
9.41032e-08
9.29821e-08
9.40299e-08
9.40299e-08
9.30554e-08
9.30554e-08
9.40299e-08
9.30554e-08
9.30554e-08
9.41033e-08
9.29821e-08
9.40299e-08
9.30554e-08
9.30554e-08
9.29821e-08
9.28041e-08
9.16834e-08
9.27307e-08
9.27307e-08
9.17567e-08
9.17567e-08
9.28041e-08
9.16834e-08
9.27307e-08
9.27307e-08
9.17567e-08
9.17567e-08
9.27307e-08
9.17567e-08
9.17567e-08
9.28041e-08
9.16834e-08
9.27307e-08
9.17567e-08
9.17567e-08
9.16834e-08
9.15054e-08
9.03851e-08
9.14321e-08
9.14321e-08
9.04584e-08
9.04584e-08
9.15054e-08
9.03851e-08
9.14321e-08
9.14321e-08
9.04584e-08
9.04584e-08
9.14321e-08
9.04584e-08
9.04584e-08
9.15054e-08
9.03851e-08
9.14321e-08
9.04584e-08
9.04584e-08
9.03851e-08
9.02072e-08
8.90872e-08
9.01339e-08
9.01339e-08
8.91604e-08
8.91604e-08
9.02072e-08
8.90872e-08
9.01339e-08
9.01339e-08
8.91604e-08
8.91604e-08
9.01339e-08
8.91604e-08
8.91604e-08
9.02072e-08
8.90872e-08
9.01339e-08
8.91604e-08
8.91604e-08
8.90872e-08
8.89093e-08
8.77895e-08
8.8836e-08
8.8836e-08
8.78628e-08
8.78628e-08
8.89093e-08
8.77895e-08
8.8836e-08
8.8836e-08
8.78627e-08
8.78628e-08
8.8836e-08
8.78628e-08
8.78628e-08
8.89093e-08
8.77895e-08
8.8836e-08
8.78628e-08
8.78628e-08
8.77895e-08
8.76117e-08
8.64921e-08
8.75384e-08
8.75384e-08
8.65653e-08
8.65653e-08
8.76117e-08
8.64921e-08
8.75384e-08
8.75384e-08
8.65653e-08
8.65653e-08
8.75384e-08
8.65653e-08
8.65653e-08
8.76117e-08
8.64921e-08
8.75384e-08
8.65653e-08
8.65653e-08
8.64921e-08
8.63142e-08
8.51948e-08
8.6241e-08
8.6241e-08
8.5268e-08
8.5268e-08
8.63142e-08
8.51948e-08
8.6241e-08
8.6241e-08
8.5268e-08
8.5268e-08
8.6241e-08
8.5268e-08
8.5268e-08
8.63143e-08
8.51948e-08
8.6241e-08
8.5268e-08
8.5268e-08
8.51948e-08
8.5017e-08
8.38977e-08
8.49437e-08
8.49437e-08
8.39709e-08
8.39709e-08
8.5017e-08
8.38977e-08
8.49437e-08
8.49437e-08
8.39709e-08
8.39709e-08
8.49437e-08
8.39709e-08
8.39709e-08
8.5017e-08
8.38976e-08
8.49437e-08
8.39709e-08
8.39709e-08
8.38976e-08
8.37199e-08
8.26006e-08
8.36466e-08
8.36466e-08
8.26738e-08
8.26738e-08
8.37199e-08
8.26006e-08
8.36466e-08
8.36466e-08
8.26738e-08
8.26738e-08
8.36466e-08
8.26738e-08
8.26738e-08
8.37199e-08
8.26006e-08
8.36466e-08
8.26738e-08
8.26738e-08
8.26006e-08
8.24229e-08
8.13037e-08
8.23496e-08
8.23496e-08
8.13769e-08
8.13769e-08
8.24228e-08
8.13037e-08
8.23496e-08
8.23496e-08
8.13769e-08
8.13769e-08
8.23496e-08
8.13769e-08
8.13769e-08
8.24229e-08
8.13037e-08
8.23496e-08
8.13769e-08
8.13769e-08
8.13037e-08
8.11259e-08
8.00068e-08
8.10526e-08
8.10527e-08
8.008e-08
8.008e-08
8.11259e-08
8.00068e-08
8.10526e-08
8.10527e-08
8.008e-08
8.008e-08
8.10527e-08
8.008e-08
8.008e-08
8.11259e-08
8.00068e-08
8.10527e-08
8.008e-08
8.008e-08
8.00068e-08
7.9829e-08
7.87099e-08
7.97558e-08
7.97558e-08
7.87831e-08
7.87831e-08
7.9829e-08
7.871e-08
7.97558e-08
7.97558e-08
7.87831e-08
7.87831e-08
7.97558e-08
7.87831e-08
7.87831e-08
7.9829e-08
7.87099e-08
7.97558e-08
7.87831e-08
7.87831e-08
7.87099e-08
7.85322e-08
7.74131e-08
7.84589e-08
7.84589e-08
7.74863e-08
7.74863e-08
7.85322e-08
7.74131e-08
7.84589e-08
7.84589e-08
7.74863e-08
7.74863e-08
7.84589e-08
7.74863e-08
7.74863e-08
7.85322e-08
7.74131e-08
7.84589e-08
7.74863e-08
7.74863e-08
7.74131e-08
7.72354e-08
7.61163e-08
7.71621e-08
7.71621e-08
7.61895e-08
7.61895e-08
7.72354e-08
7.61163e-08
7.71621e-08
7.71621e-08
7.61895e-08
7.61895e-08
7.71621e-08
7.61895e-08
7.61895e-08
7.72354e-08
7.61163e-08
7.71621e-08
7.61895e-08
7.61895e-08
7.61163e-08
7.59385e-08
7.48195e-08
7.58653e-08
7.58653e-08
7.48927e-08
7.48927e-08
7.59385e-08
7.48195e-08
7.58653e-08
7.58653e-08
7.48927e-08
7.48927e-08
7.58653e-08
7.48927e-08
7.48927e-08
7.59385e-08
7.48195e-08
7.58653e-08
7.48927e-08
7.48927e-08
7.48195e-08
7.46417e-08
7.35227e-08
7.45685e-08
7.45684e-08
7.35958e-08
7.35958e-08
7.46417e-08
7.35227e-08
7.45685e-08
7.45684e-08
7.35958e-08
7.35958e-08
7.45684e-08
7.35958e-08
7.35958e-08
7.46417e-08
7.35226e-08
7.45684e-08
7.35958e-08
7.35958e-08
7.35226e-08
7.33449e-08
7.22258e-08
7.32716e-08
7.32716e-08
7.2299e-08
7.2299e-08
7.33449e-08
7.22258e-08
7.32716e-08
7.32716e-08
7.2299e-08
7.2299e-08
7.32716e-08
7.2299e-08
7.2299e-08
7.33449e-08
7.22258e-08
7.32716e-08
7.2299e-08
7.2299e-08
7.22258e-08
7.20481e-08
7.0929e-08
7.19748e-08
7.19748e-08
7.10022e-08
7.10022e-08
7.20481e-08
7.0929e-08
7.19748e-08
7.19748e-08
7.10022e-08
7.10022e-08
7.19748e-08
7.10022e-08
7.10022e-08
7.20481e-08
7.0929e-08
7.19748e-08
7.10022e-08
7.10022e-08
7.0929e-08
7.07513e-08
6.96322e-08
7.0678e-08
7.0678e-08
6.97054e-08
6.97054e-08
7.07513e-08
6.96322e-08
7.0678e-08
7.0678e-08
6.97054e-08
6.97054e-08
7.0678e-08
6.97054e-08
6.97054e-08
7.07513e-08
6.96322e-08
7.0678e-08
6.97054e-08
6.97054e-08
6.96322e-08
6.94545e-08
6.83355e-08
6.93812e-08
6.93812e-08
6.84087e-08
6.84087e-08
6.94545e-08
6.83355e-08
6.93812e-08
6.93812e-08
6.84087e-08
6.84086e-08
6.93812e-08
6.84087e-08
6.84086e-08
6.94545e-08
6.83355e-08
6.93812e-08
6.84086e-08
6.84086e-08
6.83355e-08
6.81577e-08
6.70387e-08
6.80845e-08
6.80845e-08
6.71119e-08
6.71119e-08
6.81577e-08
6.70387e-08
6.80845e-08
6.80845e-08
6.71119e-08
6.71119e-08
6.80845e-08
6.71119e-08
6.71119e-08
6.81577e-08
6.70387e-08
6.80845e-08
6.71119e-08
6.71119e-08
6.70387e-08
6.6861e-08
6.5742e-08
6.67877e-08
6.67877e-08
6.58152e-08
6.58152e-08
6.6861e-08
6.5742e-08
6.67877e-08
6.67877e-08
6.58152e-08
6.58152e-08
6.67877e-08
6.58152e-08
6.58152e-08
6.6861e-08
6.5742e-08
6.67877e-08
6.58152e-08
6.58152e-08
6.5742e-08
6.55643e-08
6.44453e-08
6.5491e-08
6.5491e-08
6.45185e-08
6.45185e-08
6.55643e-08
6.44453e-08
6.5491e-08
6.5491e-08
6.45185e-08
6.45185e-08
6.5491e-08
6.45185e-08
6.45185e-08
6.55643e-08
6.44453e-08
6.5491e-08
6.45185e-08
6.45185e-08
6.44453e-08
6.42676e-08
6.31486e-08
6.41943e-08
6.41943e-08
6.32218e-08
6.32218e-08
6.42675e-08
6.31486e-08
6.41943e-08
6.41943e-08
6.32218e-08
6.32218e-08
6.41943e-08
6.32218e-08
6.32218e-08
6.42676e-08
6.31486e-08
6.41943e-08
6.32218e-08
6.32218e-08
6.31486e-08
6.29709e-08
6.18519e-08
6.28976e-08
6.28976e-08
6.19251e-08
6.19251e-08
6.29708e-08
6.18519e-08
6.28976e-08
6.28976e-08
6.19251e-08
6.19251e-08
6.28976e-08
6.19251e-08
6.19251e-08
6.29709e-08
6.18519e-08
6.28976e-08
6.19251e-08
6.19251e-08
6.18519e-08
6.16742e-08
6.05552e-08
6.16009e-08
6.16009e-08
6.06284e-08
6.06284e-08
6.16742e-08
6.05552e-08
6.16009e-08
6.16009e-08
6.06284e-08
6.06284e-08
6.16009e-08
6.06284e-08
6.06284e-08
6.16742e-08
6.05552e-08
6.16009e-08
6.06284e-08
6.06284e-08
6.05552e-08
6.03775e-08
5.92585e-08
6.03042e-08
6.03042e-08
5.93317e-08
5.93317e-08
6.03775e-08
5.92585e-08
6.03042e-08
6.03042e-08
5.93317e-08
5.93317e-08
6.03042e-08
5.93317e-08
5.93317e-08
6.03775e-08
5.92585e-08
6.03042e-08
5.93317e-08
5.93317e-08
5.92585e-08
5.90808e-08
5.79618e-08
5.90075e-08
5.90075e-08
5.8035e-08
5.8035e-08
5.90808e-08
5.79618e-08
5.90075e-08
5.90075e-08
5.8035e-08
5.8035e-08
5.90075e-08
5.8035e-08
5.8035e-08
5.90808e-08
5.79618e-08
5.90075e-08
5.8035e-08
5.8035e-08
5.79618e-08
5.77841e-08
5.66651e-08
5.77108e-08
5.77108e-08
5.67383e-08
5.67383e-08
5.77841e-08
5.66651e-08
5.77108e-08
5.77108e-08
5.67383e-08
5.67383e-08
5.77108e-08
5.67383e-08
5.67383e-08
5.77841e-08
5.66651e-08
5.77108e-08
5.67383e-08
5.67383e-08
5.66651e-08
5.64874e-08
5.53684e-08
5.64141e-08
5.64141e-08
5.54416e-08
5.54416e-08
5.64874e-08
5.53684e-08
5.64141e-08
5.64141e-08
5.54416e-08
5.54416e-08
5.64142e-08
5.54416e-08
5.54416e-08
5.64874e-08
5.53684e-08
5.64142e-08
5.54416e-08
5.54416e-08
5.53684e-08
5.51907e-08
5.40717e-08
5.51174e-08
5.51174e-08
5.41449e-08
5.41449e-08
5.51907e-08
5.40717e-08
5.51174e-08
5.51174e-08
5.41449e-08
5.41449e-08
5.51174e-08
5.41449e-08
5.41449e-08
5.51907e-08
5.40717e-08
5.51174e-08
5.41449e-08
5.41449e-08
5.40717e-08
5.3894e-08
5.2775e-08
5.38207e-08
5.38207e-08
5.28482e-08
5.28482e-08
5.3894e-08
5.2775e-08
5.38207e-08
5.38207e-08
5.28482e-08
5.28482e-08
5.38207e-08
5.28482e-08
5.28482e-08
5.3894e-08
5.2775e-08
5.38207e-08
5.28482e-08
5.28482e-08
5.2775e-08
5.25972e-08
5.14782e-08
5.2524e-08
5.2524e-08
5.15514e-08
5.15514e-08
5.25972e-08
5.14782e-08
5.2524e-08
5.2524e-08
5.15514e-08
5.15514e-08
5.2524e-08
5.15514e-08
5.15514e-08
5.25972e-08
5.14782e-08
5.2524e-08
5.15514e-08
5.15514e-08
5.14782e-08
5.13005e-08
5.01814e-08
5.12272e-08
5.12272e-08
5.02546e-08
5.02546e-08
5.13005e-08
5.01814e-08
5.12272e-08
5.12272e-08
5.02546e-08
5.02546e-08
5.12272e-08
5.02546e-08
5.02546e-08
5.13005e-08
5.01814e-08
5.12272e-08
5.02546e-08
5.02546e-08
5.01814e-08
5.00037e-08
4.88846e-08
4.99304e-08
4.99304e-08
4.89578e-08
4.89578e-08
5.00037e-08
4.88846e-08
4.99304e-08
4.99304e-08
4.89578e-08
4.89578e-08
4.99304e-08
4.89578e-08
4.89578e-08
5.00037e-08
4.88846e-08
4.99304e-08
4.89578e-08
4.89578e-08
4.88846e-08
4.87069e-08
4.75878e-08
4.86336e-08
4.86336e-08
4.7661e-08
4.7661e-08
4.87069e-08
4.75878e-08
4.86336e-08
4.86336e-08
4.7661e-08
4.7661e-08
4.86336e-08
4.7661e-08
4.7661e-08
4.87069e-08
4.75878e-08
4.86336e-08
4.7661e-08
4.7661e-08
4.75878e-08
4.74101e-08
4.6291e-08
4.73368e-08
4.73368e-08
4.63642e-08
4.63642e-08
4.74101e-08
4.6291e-08
4.73368e-08
4.73368e-08
4.63642e-08
4.63642e-08
4.73368e-08
4.63642e-08
4.63642e-08
4.74101e-08
4.6291e-08
4.73368e-08
4.63642e-08
4.63642e-08
4.6291e-08
4.61132e-08
4.49941e-08
4.604e-08
4.604e-08
4.50673e-08
4.50673e-08
4.61132e-08
4.49942e-08
4.604e-08
4.604e-08
4.50673e-08
4.50673e-08
4.604e-08
4.50673e-08
4.50673e-08
4.61132e-08
4.49941e-08
4.604e-08
4.50673e-08
4.50673e-08
4.49941e-08
4.48164e-08
4.36973e-08
4.47431e-08
4.47431e-08
4.37705e-08
4.37705e-08
4.48164e-08
4.36973e-08
4.47431e-08
4.47431e-08
4.37705e-08
4.37705e-08
4.47431e-08
4.37705e-08
4.37705e-08
4.48164e-08
4.36973e-08
4.47431e-08
4.37705e-08
4.37705e-08
4.36973e-08
4.35195e-08
4.24004e-08
4.34463e-08
4.34463e-08
4.24736e-08
4.24736e-08
4.35195e-08
4.24004e-08
4.34463e-08
4.34463e-08
4.24736e-08
4.24736e-08
4.34463e-08
4.24736e-08
4.24736e-08
4.35195e-08
4.24004e-08
4.34463e-08
4.24736e-08
4.24736e-08
4.24004e-08
4.22227e-08
4.11036e-08
4.21494e-08
4.21494e-08
4.11768e-08
4.11768e-08
4.22227e-08
4.11036e-08
4.21494e-08
4.21494e-08
4.11768e-08
4.11768e-08
4.21494e-08
4.11768e-08
4.11768e-08
4.22227e-08
4.11036e-08
4.21494e-08
4.11768e-08
4.11768e-08
4.11036e-08
4.09258e-08
3.98067e-08
4.08525e-08
4.08526e-08
3.98799e-08
3.98799e-08
4.09258e-08
3.98068e-08
4.08525e-08
4.08526e-08
3.98799e-08
3.98799e-08
4.08526e-08
3.98799e-08
3.98799e-08
4.09258e-08
3.98067e-08
4.08526e-08
3.98799e-08
3.98799e-08
3.98067e-08
3.9629e-08
3.85099e-08
3.95557e-08
3.95557e-08
3.85831e-08
3.85831e-08
3.9629e-08
3.85099e-08
3.95557e-08
3.95557e-08
3.85831e-08
3.85831e-08
3.95557e-08
3.85831e-08
3.85831e-08
3.9629e-08
3.85099e-08
3.95557e-08
3.85831e-08
3.85831e-08
3.85099e-08
3.83322e-08
3.72131e-08
3.82589e-08
3.82589e-08
3.72863e-08
3.72863e-08
3.83322e-08
3.72132e-08
3.82589e-08
3.82589e-08
3.72863e-08
3.72863e-08
3.82589e-08
3.72863e-08
3.72863e-08
3.83322e-08
3.72131e-08
3.82589e-08
3.72863e-08
3.72863e-08
3.72131e-08
3.70354e-08
3.59163e-08
3.69621e-08
3.69621e-08
3.59895e-08
3.59895e-08
3.70354e-08
3.59163e-08
3.69621e-08
3.69621e-08
3.59895e-08
3.59895e-08
3.69621e-08
3.59895e-08
3.59895e-08
3.70354e-08
3.59163e-08
3.69621e-08
3.59895e-08
3.59895e-08
3.59163e-08
3.57386e-08
3.46195e-08
3.56653e-08
3.56653e-08
3.46927e-08
3.46927e-08
3.57386e-08
3.46195e-08
3.56653e-08
3.56653e-08
3.46927e-08
3.46927e-08
3.56653e-08
3.46927e-08
3.46927e-08
3.57386e-08
3.46195e-08
3.56653e-08
3.46927e-08
3.46927e-08
3.46195e-08
3.44418e-08
3.33227e-08
3.43685e-08
3.43685e-08
3.33959e-08
3.33959e-08
3.44418e-08
3.33227e-08
3.43685e-08
3.43685e-08
3.33959e-08
3.33959e-08
3.43685e-08
3.33959e-08
3.33959e-08
3.44418e-08
3.33227e-08
3.43685e-08
3.33959e-08
3.33959e-08
3.33227e-08
3.3145e-08
3.2026e-08
3.30717e-08
3.30717e-08
3.20991e-08
3.20991e-08
3.3145e-08
3.2026e-08
3.30717e-08
3.30717e-08
3.20991e-08
3.20991e-08
3.30717e-08
3.20991e-08
3.20991e-08
3.3145e-08
3.2026e-08
3.30717e-08
3.20991e-08
3.20991e-08
3.20259e-08
3.18482e-08
3.07292e-08
3.1775e-08
3.17749e-08
3.08024e-08
3.08024e-08
3.18482e-08
3.07292e-08
3.17749e-08
3.1775e-08
3.08024e-08
3.08024e-08
3.17749e-08
3.08024e-08
3.08024e-08
3.18482e-08
3.07292e-08
3.17749e-08
3.08024e-08
3.08024e-08
3.07292e-08
3.05515e-08
2.94325e-08
3.04782e-08
3.04782e-08
2.95057e-08
2.95057e-08
3.05515e-08
2.94325e-08
3.04782e-08
3.04782e-08
2.95057e-08
2.95057e-08
3.04782e-08
2.95057e-08
2.95057e-08
3.05515e-08
2.94325e-08
3.04782e-08
2.95057e-08
2.95057e-08
2.94325e-08
2.92548e-08
2.81359e-08
2.91816e-08
2.91816e-08
2.8209e-08
2.8209e-08
2.92548e-08
2.81359e-08
2.91816e-08
2.91816e-08
2.8209e-08
2.8209e-08
2.91816e-08
2.8209e-08
2.82091e-08
2.92548e-08
2.81359e-08
2.91816e-08
2.8209e-08
2.8209e-08
2.81359e-08
2.79581e-08
2.68392e-08
2.78849e-08
2.78849e-08
2.69124e-08
2.69124e-08
2.79581e-08
2.68392e-08
2.78849e-08
2.78849e-08
2.69124e-08
2.69124e-08
2.78849e-08
2.69124e-08
2.69124e-08
2.79581e-08
2.68392e-08
2.78849e-08
2.69124e-08
2.69124e-08
2.68392e-08
2.66615e-08
2.55425e-08
2.65882e-08
2.65882e-08
2.56157e-08
2.56157e-08
2.66615e-08
2.55425e-08
2.65882e-08
2.65882e-08
2.56157e-08
2.56157e-08
2.65882e-08
2.56157e-08
2.56157e-08
2.66615e-08
2.55425e-08
2.65882e-08
2.56157e-08
2.56157e-08
2.55425e-08
2.53648e-08
2.42459e-08
2.52915e-08
2.52915e-08
2.4319e-08
2.4319e-08
2.53648e-08
2.42459e-08
2.52915e-08
2.52915e-08
2.4319e-08
2.4319e-08
2.52915e-08
2.4319e-08
2.4319e-08
2.53648e-08
2.42459e-08
2.52915e-08
2.4319e-08
2.4319e-08
2.42459e-08
2.40681e-08
2.29492e-08
2.39949e-08
2.39949e-08
2.30224e-08
2.30224e-08
2.40681e-08
2.29492e-08
2.39949e-08
2.39949e-08
2.30224e-08
2.30224e-08
2.39949e-08
2.30224e-08
2.30224e-08
2.40681e-08
2.29492e-08
2.39949e-08
2.30224e-08
2.30224e-08
2.29492e-08
2.27715e-08
2.16525e-08
2.26982e-08
2.26982e-08
2.17257e-08
2.17257e-08
2.27715e-08
2.16525e-08
2.26982e-08
2.26982e-08
2.17257e-08
2.17257e-08
2.26982e-08
2.17257e-08
2.17257e-08
2.27715e-08
2.16525e-08
2.26982e-08
2.17257e-08
2.17257e-08
2.16525e-08
2.14748e-08
2.03558e-08
2.14015e-08
2.14015e-08
2.0429e-08
2.0429e-08
2.14748e-08
2.03558e-08
2.14015e-08
2.14015e-08
2.0429e-08
2.0429e-08
2.14015e-08
2.0429e-08
2.0429e-08
2.14748e-08
2.03558e-08
2.14015e-08
2.0429e-08
2.0429e-08
2.03558e-08
2.01781e-08
1.90591e-08
2.01048e-08
2.01048e-08
1.91323e-08
1.91323e-08
2.01781e-08
1.90591e-08
2.01048e-08
2.01048e-08
1.91323e-08
1.91323e-08
2.01048e-08
1.91323e-08
1.91323e-08
2.01781e-08
1.90591e-08
2.01048e-08
1.91323e-08
1.91323e-08
1.90591e-08
1.88814e-08
1.77624e-08
1.88081e-08
1.88081e-08
1.78356e-08
1.78356e-08
1.88814e-08
1.77624e-08
1.88081e-08
1.88081e-08
1.78356e-08
1.78356e-08
1.88081e-08
1.78356e-08
1.78356e-08
1.88814e-08
1.77624e-08
1.88081e-08
1.78356e-08
1.78356e-08
1.77624e-08
1.75847e-08
1.64657e-08
1.75114e-08
1.75114e-08
1.65389e-08
1.65389e-08
1.75847e-08
1.64657e-08
1.75114e-08
1.75114e-08
1.65389e-08
1.65389e-08
1.75114e-08
1.65389e-08
1.65389e-08
1.75847e-08
1.64657e-08
1.75114e-08
1.65389e-08
1.65389e-08
1.64657e-08
1.62879e-08
1.51689e-08
1.62147e-08
1.62147e-08
1.52421e-08
1.52421e-08
1.62879e-08
1.51689e-08
1.62147e-08
1.62147e-08
1.52421e-08
1.52421e-08
1.62147e-08
1.52421e-08
1.52421e-08
1.62879e-08
1.51689e-08
1.62147e-08
1.52421e-08
1.52421e-08
1.51689e-08
1.49912e-08
1.38721e-08
1.49179e-08
1.49179e-08
1.39453e-08
1.39453e-08
1.49912e-08
1.38721e-08
1.49179e-08
1.49179e-08
1.39453e-08
1.39453e-08
1.49179e-08
1.39453e-08
1.39453e-08
1.49912e-08
1.38721e-08
1.49179e-08
1.39453e-08
1.39453e-08
1.38721e-08
1.36944e-08
1.25753e-08
1.36211e-08
1.36211e-08
1.26485e-08
1.26485e-08
1.36944e-08
1.25753e-08
1.36211e-08
1.36211e-08
1.26485e-08
1.26485e-08
1.36211e-08
1.26485e-08
1.26485e-08
1.36944e-08
1.25753e-08
1.36211e-08
1.26485e-08
1.26485e-08
1.25753e-08
1.23975e-08
1.12784e-08
1.23243e-08
1.23243e-08
1.13516e-08
1.13516e-08
1.23975e-08
1.12784e-08
1.23243e-08
1.23243e-08
1.13516e-08
1.13516e-08
1.23243e-08
1.13516e-08
1.13516e-08
1.23975e-08
1.12784e-08
1.23243e-08
1.13516e-08
1.13516e-08
1.12784e-08
1.11007e-08
9.98157e-09
1.10274e-08
1.10274e-08
1.00548e-08
1.00548e-08
1.11007e-08
9.98158e-09
1.10274e-08
1.10274e-08
1.00548e-08
1.00548e-08
1.10274e-08
1.00548e-08
1.00548e-08
1.11007e-08
9.98156e-09
1.10274e-08
1.00548e-08
1.00548e-08
9.98157e-09
9.80381e-09
8.6847e-09
9.73054e-09
9.73054e-09
8.75789e-09
8.75789e-09
9.80381e-09
8.68471e-09
9.73054e-09
9.73054e-09
8.75789e-09
8.75789e-09
9.73055e-09
8.75789e-09
8.75789e-09
9.80382e-09
8.68469e-09
9.73055e-09
8.75789e-09
8.75789e-09
8.6847e-09
8.50694e-09
7.38782e-09
8.43368e-09
8.43368e-09
7.46101e-09
7.46101e-09
8.50694e-09
7.38783e-09
8.43368e-09
8.43368e-09
7.46101e-09
7.46101e-09
8.43368e-09
7.46101e-09
7.46101e-09
8.50695e-09
7.38782e-09
8.43368e-09
7.46101e-09
7.46101e-09
7.38782e-09
7.21007e-09
6.09093e-09
7.13681e-09
7.13681e-09
6.16413e-09
6.16412e-09
7.21006e-09
6.09094e-09
7.13681e-09
7.13681e-09
6.16412e-09
6.16412e-09
7.13681e-09
6.16412e-09
6.16412e-09
7.21007e-09
6.09092e-09
7.13681e-09
6.16412e-09
6.16412e-09
6.09092e-09
5.91318e-09
4.79402e-09
5.83995e-09
5.83994e-09
4.86721e-09
4.86721e-09
5.91317e-09
4.79402e-09
5.83994e-09
5.83994e-09
4.86721e-09
4.86721e-09
5.83994e-09
4.86721e-09
4.86721e-09
5.91318e-09
4.79401e-09
5.83994e-09
4.86721e-09
4.86721e-09
4.79401e-09
4.61628e-09
3.49709e-09
4.54308e-09
4.54308e-09
3.57025e-09
3.57026e-09
4.61628e-09
3.49711e-09
4.54308e-09
4.54308e-09
3.57026e-09
3.57025e-09
4.54308e-09
3.57026e-09
3.57026e-09
4.61629e-09
3.49709e-09
4.54308e-09
3.57026e-09
3.57026e-09
3.49709e-09
3.31944e-09
2.20118e-09
3.24617e-09
3.24617e-09
2.27307e-09
2.27306e-09
3.31942e-09
2.20118e-09
3.24617e-09
3.24617e-09
2.27307e-09
2.27304e-09
3.24618e-09
2.27306e-09
2.27305e-09
3.31945e-09
2.20114e-09
3.24618e-09
2.27303e-09
2.27305e-09
2.20116e-09
2.02379e-09
8.66711e-10
1.94916e-09
1.94914e-09
1.02363e-09
1.02357e-09
2.02376e-09
8.66642e-10
1.94917e-09
1.94909e-09
1.02382e-09
1.02351e-09
1.94912e-09
1.02373e-09
1.02351e-09
2.02375e-09
8.66587e-10
1.94914e-09
1.02359e-09
1.02376e-09
8.66647e-10
6.62375e-10
7.31177e-10
7.31125e-10
6.62321e-10
7.31315e-10
7.31084e-10
6.65107e-10
6.65082e-10
6.65103e-10
7.31099e-10
6.62298e-10
7.31246e-10
1.28302e-07
1.28913e-07
1.28586e-07
1.28586e-07
1.30314e-07
1.29171e-07
1.31699e-07
1.28806e-07
1.30314e-07
1.29171e-07
1.28807e-07
1.31699e-07
1.29467e-07
1.32134e-07
1.32134e-07
1.25667e-07
1.26919e-07
1.26934e-07
1.2563e-07
1.26858e-07
1.25614e-07
1.25667e-07
1.26919e-07
1.26934e-07
1.2563e-07
1.2697e-07
1.2697e-07
1.2697e-07
1.24691e-07
1.24691e-07
1.24691e-07
1.24691e-07
1.25728e-07
1.26974e-07
1.26947e-07
1.26044e-07
1.27009e-07
1.25678e-07
1.26095e-07
1.26858e-07
1.25614e-07
1.25728e-07
1.26947e-07
1.26974e-07
1.26044e-07
1.27009e-07
1.26095e-07
1.25678e-07
1.26991e-07
1.26991e-07
1.25848e-07
1.25663e-07
1.25663e-07
1.23232e-07
1.24039e-07
1.24059e-07
1.23218e-07
1.24033e-07
1.23213e-07
1.23232e-07
1.24039e-07
1.24059e-07
1.23218e-07
1.24059e-07
1.24059e-07
1.24059e-07