/*--------------------------------*- C++ -*----------------------------------*\
| =========                 |                                                 |
| \\      /  F ield         | OpenFOAM: The Open Source CFD Toolbox           |
|  \\    /   O peration     | Version:  v2012                                 |
|   \\  /    A nd           | Website:  www.openfoam.com                      |
|    \\/     M anipulation  |                                                 |
\*---------------------------------------------------------------------------*/
FoamFile
{
    version     2.0;
    format      ascii;
    class       volScalarField;
    location    "875";
    object      epsilon;
}
// * * * * * * * * * * * * * * * * * * * * * * * * * * * * * * * * * * * * * //

dimensions      [0 2 -3 0 0 0 0];


internalField   nonuniform List<scalar> 
85864
(
3.26858e-07
8.74432e-07
8.74546e-07
1.15963e-06
3.43033e-07
8.97947e-07
8.98058e-07
1.17903e-06
3.59449e-07
9.20462e-07
9.20571e-07
1.19749e-06
3.76003e-07
9.41936e-07
9.42044e-07
1.21503e-06
3.92656e-07
9.62416e-07
9.62519e-07
1.23172e-06
4.0926e-07
9.81836e-07
9.81941e-07
1.24751e-06
4.25814e-07
1.00032e-06
1.00042e-06
1.26252e-06
4.42196e-07
1.01777e-06
1.01787e-06
1.27671e-06
4.58323e-07
1.03423e-06
1.03433e-06
1.29012e-06
4.74155e-07
1.04975e-06
1.04985e-06
1.30278e-06
4.89646e-07
1.06434e-06
1.06444e-06
1.31472e-06
5.04708e-07
1.07801e-06
1.0781e-06
1.32596e-06
5.19321e-07
1.0908e-06
1.09089e-06
1.33651e-06
5.33432e-07
1.10271e-06
1.1028e-06
1.34639e-06
5.4701e-07
1.11381e-06
1.11389e-06
1.35566e-06
5.60035e-07
1.1241e-06
1.12419e-06
1.36429e-06
5.72414e-07
1.13354e-06
1.13362e-06
1.37227e-06
5.84213e-07
1.14228e-06
1.14236e-06
1.3797e-06
5.95425e-07
1.15034e-06
1.15041e-06
1.38661e-06
6.05954e-07
1.15759e-06
1.15767e-06
1.39292e-06
6.15866e-07
1.16423e-06
1.1643e-06
1.3987e-06
6.25075e-07
1.17009e-06
1.17015e-06
1.40389e-06
6.33742e-07
1.17551e-06
1.17558e-06
1.40871e-06
6.41649e-07
1.18004e-06
1.18011e-06
1.41285e-06
6.48939e-07
1.18413e-06
1.18423e-06
1.41659e-06
6.55801e-07
1.18784e-06
1.18786e-06
1.42006e-06
6.61795e-07
1.19062e-06
1.19071e-06
1.42277e-06
6.67179e-07
1.19298e-06
1.19308e-06
1.4251e-06
6.72143e-07
1.19494e-06
1.19496e-06
1.42709e-06
6.76618e-07
1.19652e-06
1.19661e-06
1.42881e-06
6.80121e-07
1.1971e-06
1.19719e-06
1.42975e-06
6.83355e-07
1.19778e-06
1.19774e-06
1.43043e-06
6.86445e-07
1.19803e-06
1.19818e-06
1.43142e-06
6.88383e-07
1.19742e-06
1.19736e-06
1.43074e-06
6.90047e-07
1.19651e-06
1.1965e-06
1.43034e-06
6.91173e-07
1.19513e-06
1.19551e-06
1.42941e-06
6.93029e-07
1.19477e-06
1.19475e-06
1.42965e-06
6.94184e-07
1.19448e-06
1.19452e-06
1.43073e-06
6.92489e-07
1.18932e-06
1.189e-06
1.42497e-06
6.9102e-07
1.18518e-06
1.18525e-06
1.4207e-06
6.93269e-07
1.1852e-06
1.18806e-06
1.42468e-06
6.96003e-07
1.19039e-06
1.18992e-06
1.4287e-06
6.87945e-07
1.17802e-06
1.17143e-06
1.41223e-06
6.77216e-07
1.15107e-06
1.15693e-06
1.38838e-06
6.97514e-07
1.18382e-06
1.19576e-06
1.42898e-06
7.21459e-07
1.23026e-06
1.22351e-06
1.48023e-06
6.75998e-07
1.1506e-06
1.14043e-06
1.39729e-06
6.05085e-07
1.00104e-06
1.01664e-06
1.25309e-06
1.15955e-06
1.17346e-06
8.74584e-07
8.74617e-07
8.92313e-07
8.92342e-07
1.15947e-06
1.17338e-06
8.74469e-07
8.74675e-07
8.92192e-07
8.92398e-07
8.74681e-07
8.92162e-07
8.92407e-07
1.15958e-06
1.1735e-06
8.74555e-07
8.92275e-07
8.92283e-07
1.17354e-06
1.17895e-06
1.19212e-06
8.98098e-07
8.98125e-07
9.15077e-07
9.15103e-07
1.17887e-06
1.19204e-06
8.97983e-07
8.9818e-07
9.14956e-07
9.15154e-07
8.98192e-07
9.1493e-07
9.1517e-07
1.17898e-06
1.19215e-06
8.98069e-07
9.15038e-07
9.15049e-07
1.1922e-06
1.19741e-06
1.20986e-06
9.20607e-07
9.20633e-07
9.36801e-07
9.36827e-07
1.19733e-06
1.20978e-06
9.20493e-07
9.20686e-07
9.36681e-07
9.3688e-07
9.20703e-07
9.36661e-07
9.36892e-07
1.19744e-06
1.20989e-06
9.20583e-07
9.36771e-07
9.36774e-07
1.20994e-06
1.21496e-06
1.22673e-06
9.42075e-07
9.42101e-07
9.57534e-07
9.57555e-07
1.21488e-06
1.22664e-06
9.41962e-07
9.42153e-07
9.57415e-07
9.576e-07
9.42166e-07
9.57394e-07
9.57622e-07
1.21499e-06
1.22675e-06
9.4205e-07
9.57497e-07
9.57507e-07
1.2268e-06
1.23164e-06
1.2427e-06
9.62556e-07
9.62576e-07
9.77205e-07
9.77228e-07
1.23156e-06
1.24262e-06
9.62443e-07
9.62622e-07
9.77087e-07
9.77276e-07
9.62649e-07
9.77073e-07
9.77296e-07
1.23167e-06
1.24273e-06
9.62534e-07
9.77179e-07
9.77183e-07
1.24278e-06
1.24743e-06
1.25787e-06
9.81965e-07
9.8199e-07
9.95918e-07
9.9594e-07
1.24735e-06
1.2578e-06
9.81853e-07
9.82038e-07
9.95801e-07
9.95981e-07
9.82057e-07
9.95788e-07
9.96003e-07
1.24746e-06
1.2579e-06
9.81945e-07
9.95888e-07
9.95892e-07
1.25795e-06
1.26245e-06
1.27224e-06
1.00045e-06
1.00047e-06
1.01363e-06
1.01365e-06
1.26237e-06
1.27217e-06
1.00034e-06
1.00051e-06
1.01352e-06
1.01369e-06
1.00054e-06
1.01351e-06
1.01372e-06
1.26247e-06
1.27227e-06
1.00043e-06
1.01361e-06
1.01361e-06
1.27232e-06
1.27664e-06
1.28581e-06
1.01789e-06
1.01792e-06
1.03033e-06
1.03034e-06
1.27656e-06
1.28573e-06
1.01778e-06
1.01796e-06
1.03021e-06
1.03039e-06
1.01798e-06
1.0302e-06
1.03041e-06
1.27667e-06
1.28583e-06
1.01788e-06
1.0303e-06
1.0303e-06
1.28588e-06
1.29004e-06
1.29861e-06
1.03435e-06
1.03437e-06
1.04607e-06
1.0461e-06
1.28997e-06
1.29854e-06
1.03425e-06
1.03441e-06
1.04596e-06
1.04613e-06
1.03444e-06
1.04596e-06
1.04616e-06
1.29007e-06
1.29864e-06
1.03434e-06
1.04605e-06
1.04606e-06
1.2987e-06
1.30269e-06
1.31071e-06
1.04986e-06
1.04989e-06
1.0609e-06
1.06092e-06
1.30263e-06
1.31064e-06
1.04976e-06
1.04993e-06
1.06079e-06
1.06096e-06
1.04996e-06
1.06078e-06
1.06098e-06
1.30272e-06
1.31074e-06
1.04985e-06
1.06088e-06
1.06087e-06
1.31078e-06
1.31465e-06
1.32209e-06
1.06446e-06
1.06448e-06
1.07479e-06
1.07481e-06
1.31458e-06
1.32202e-06
1.06435e-06
1.06451e-06
1.07468e-06
1.07484e-06
1.06454e-06
1.07467e-06
1.07487e-06
1.31468e-06
1.32212e-06
1.06444e-06
1.07476e-06
1.07477e-06
1.32217e-06
1.32588e-06
1.33278e-06
1.07812e-06
1.07814e-06
1.08779e-06
1.08781e-06
1.32582e-06
1.33271e-06
1.07801e-06
1.07817e-06
1.08768e-06
1.08784e-06
1.07821e-06
1.08768e-06
1.08787e-06
1.32591e-06
1.33281e-06
1.0781e-06
1.08777e-06
1.08777e-06
1.33286e-06
1.33644e-06
1.3428e-06
1.0909e-06
1.09093e-06
1.09992e-06
1.09994e-06
1.33637e-06
1.34273e-06
1.0908e-06
1.09096e-06
1.09981e-06
1.09997e-06
1.09099e-06
1.09981e-06
1.1e-06
1.33646e-06
1.34283e-06
1.09089e-06
1.0999e-06
1.0999e-06
1.34287e-06
1.34632e-06
1.35218e-06
1.10281e-06
1.10284e-06
1.11121e-06
1.11123e-06
1.34626e-06
1.35212e-06
1.10271e-06
1.10287e-06
1.1111e-06
1.11125e-06
1.1029e-06
1.1111e-06
1.11129e-06
1.34634e-06
1.35221e-06
1.1028e-06
1.11118e-06
1.11119e-06
1.35226e-06
1.35558e-06
1.36096e-06
1.11391e-06
1.11393e-06
1.12171e-06
1.12173e-06
1.35552e-06
1.36089e-06
1.11381e-06
1.11396e-06
1.1216e-06
1.12176e-06
1.114e-06
1.12161e-06
1.12179e-06
1.3556e-06
1.36098e-06
1.11389e-06
1.12169e-06
1.12169e-06
1.36103e-06
1.36422e-06
1.36905e-06
1.12419e-06
1.12422e-06
1.13134e-06
1.13137e-06
1.36416e-06
1.369e-06
1.12409e-06
1.12426e-06
1.13123e-06
1.1314e-06
1.12428e-06
1.13125e-06
1.13142e-06
1.36425e-06
1.36909e-06
1.12418e-06
1.13133e-06
1.13133e-06
1.36913e-06
1.37219e-06
1.3766e-06
1.13363e-06
1.13366e-06
1.14026e-06
1.14028e-06
1.37214e-06
1.37653e-06
1.13353e-06
1.13368e-06
1.14015e-06
1.1403e-06
1.13372e-06
1.14016e-06
1.14033e-06
1.37222e-06
1.37662e-06
1.13362e-06
1.14023e-06
1.14023e-06
1.37667e-06
1.37964e-06
1.3836e-06
1.14238e-06
1.1424e-06
1.14848e-06
1.14851e-06
1.37957e-06
1.38355e-06
1.14228e-06
1.14243e-06
1.14837e-06
1.14853e-06
1.14246e-06
1.14839e-06
1.14856e-06
1.37965e-06
1.38363e-06
1.14236e-06
1.14847e-06
1.14846e-06
1.38368e-06
1.38653e-06
1.39004e-06
1.15041e-06
1.15045e-06
1.15593e-06
1.15596e-06
1.38648e-06
1.38998e-06
1.15031e-06
1.15047e-06
1.15583e-06
1.15598e-06
1.1505e-06
1.15584e-06
1.15601e-06
1.38656e-06
1.39007e-06
1.15041e-06
1.15591e-06
1.15592e-06
1.39011e-06
1.39285e-06
1.39592e-06
1.15769e-06
1.15771e-06
1.16272e-06
1.16274e-06
1.39279e-06
1.39585e-06
1.15759e-06
1.15774e-06
1.16262e-06
1.16277e-06
1.15776e-06
1.16263e-06
1.1628e-06
1.39288e-06
1.39595e-06
1.15767e-06
1.16271e-06
1.16271e-06
1.39599e-06
1.39862e-06
1.40122e-06
1.16431e-06
1.16434e-06
1.16876e-06
1.1688e-06
1.39857e-06
1.40117e-06
1.16421e-06
1.16436e-06
1.16866e-06
1.1688e-06
1.1644e-06
1.16868e-06
1.16884e-06
1.39866e-06
1.40124e-06
1.1643e-06
1.16874e-06
1.16874e-06
1.40129e-06
1.40382e-06
1.40611e-06
1.17018e-06
1.17021e-06
1.17429e-06
1.17431e-06
1.40377e-06
1.40605e-06
1.17008e-06
1.17022e-06
1.1742e-06
1.17434e-06
1.17025e-06
1.1742e-06
1.17436e-06
1.40384e-06
1.40614e-06
1.17016e-06
1.17428e-06
1.17427e-06
1.40617e-06
1.40865e-06
1.4104e-06
1.17559e-06
1.17562e-06
1.17907e-06
1.17911e-06
1.40859e-06
1.41036e-06
1.1755e-06
1.17564e-06
1.17897e-06
1.17911e-06
1.17567e-06
1.179e-06
1.17916e-06
1.40867e-06
1.41043e-06
1.17558e-06
1.17905e-06
1.17906e-06
1.41049e-06
1.41277e-06
1.41415e-06
1.18012e-06
1.18015e-06
1.18319e-06
1.18321e-06
1.41273e-06
1.41409e-06
1.18002e-06
1.18016e-06
1.1831e-06
1.18327e-06
1.18021e-06
1.1831e-06
1.18327e-06
1.4128e-06
1.41421e-06
1.18012e-06
1.18321e-06
1.18319e-06
1.41423e-06
1.41651e-06
1.41776e-06
1.18422e-06
1.18424e-06
1.18709e-06
1.18711e-06
1.41646e-06
1.41771e-06
1.18413e-06
1.1843e-06
1.18698e-06
1.1871e-06
1.1843e-06
1.187e-06
1.18715e-06
1.41657e-06
1.41776e-06
1.18422e-06
1.18703e-06
1.18705e-06
1.41782e-06
1.42001e-06
1.42061e-06
1.18793e-06
1.18795e-06
1.19007e-06
1.1901e-06
1.41996e-06
1.42054e-06
1.18783e-06
1.18793e-06
1.18997e-06
1.19011e-06
1.18799e-06
1.18998e-06
1.19012e-06
1.41999e-06
1.42062e-06
1.18789e-06
1.19005e-06
1.19003e-06
1.42065e-06
1.42272e-06
1.42291e-06
1.19069e-06
1.19073e-06
1.19244e-06
1.19249e-06
1.42266e-06
1.42289e-06
1.1906e-06
1.19077e-06
1.19237e-06
1.19257e-06
1.19077e-06
1.1924e-06
1.19258e-06
1.42276e-06
1.42301e-06
1.19068e-06
1.19251e-06
1.1925e-06
1.42303e-06
1.42498e-06
1.42501e-06
1.19303e-06
1.19308e-06
1.19459e-06
1.19463e-06
1.42496e-06
1.42498e-06
1.19296e-06
1.19313e-06
1.19448e-06
1.19458e-06
1.19316e-06
1.19452e-06
1.19466e-06
1.42506e-06
1.42501e-06
1.19308e-06
1.19453e-06
1.19457e-06
1.42509e-06
1.42702e-06
1.42683e-06
1.19502e-06
1.19505e-06
1.19628e-06
1.19626e-06
1.42698e-06
1.42672e-06
1.19491e-06
1.19501e-06
1.19619e-06
1.19632e-06
1.19509e-06
1.19614e-06
1.19632e-06
1.427e-06
1.42682e-06
1.195e-06
1.19624e-06
1.19622e-06
1.42686e-06
1.4288e-06
1.42798e-06
1.19667e-06
1.19665e-06
1.19714e-06
1.1972e-06
1.42867e-06
1.42793e-06
1.19658e-06
1.1967e-06
1.19706e-06
1.19723e-06
1.19668e-06
1.19708e-06
1.1972e-06
1.42879e-06
1.42803e-06
1.19659e-06
1.19715e-06
1.19711e-06
1.428e-06
1.42971e-06
1.4282e-06
1.19714e-06
1.19721e-06
1.19741e-06
1.19754e-06
1.4297e-06
1.42826e-06
1.19706e-06
1.19725e-06
1.19731e-06
1.19749e-06
1.19724e-06
1.19748e-06
1.19765e-06
1.42978e-06
1.42829e-06
1.19716e-06
1.19748e-06
1.19757e-06
1.42845e-06
1.43025e-06
1.42964e-06
1.19778e-06
1.19787e-06
1.19825e-06
1.19823e-06
1.4303e-06
1.42955e-06
1.19766e-06
1.19777e-06
1.19815e-06
1.19827e-06
1.19793e-06
1.19809e-06
1.19825e-06
1.43027e-06
1.42955e-06
1.19782e-06
1.19819e-06
1.19817e-06
1.42963e-06
1.43144e-06
1.42896e-06
1.1982e-06
1.19816e-06
1.19758e-06
1.19758e-06
1.43132e-06
1.42879e-06
1.19812e-06
1.19826e-06
1.19754e-06
1.19776e-06
1.19821e-06
1.1975e-06
1.19769e-06
1.43137e-06
1.42919e-06
1.19814e-06
1.19767e-06
1.1976e-06
1.42906e-06
1.43066e-06
1.42876e-06
1.19742e-06
1.19748e-06
1.19686e-06
1.19691e-06
1.43057e-06
1.42886e-06
1.19735e-06
1.19746e-06
1.19675e-06
1.19675e-06
1.19752e-06
1.1968e-06
1.1969e-06
1.43078e-06
1.42834e-06
1.19739e-06
1.19666e-06
1.19674e-06
1.42866e-06
1.43043e-06
1.42732e-06
1.19657e-06
1.19662e-06
1.1954e-06
1.19554e-06
1.43044e-06
1.42743e-06
1.19648e-06
1.19656e-06
1.19533e-06
1.19583e-06
1.1967e-06
1.19543e-06
1.19568e-06
1.43002e-06
1.42817e-06
1.19657e-06
1.19587e-06
1.19571e-06
1.42785e-06
1.42891e-06
1.42775e-06
1.19511e-06
1.19524e-06
1.19492e-06
1.19486e-06
1.4291e-06
1.42749e-06
1.19502e-06
1.19546e-06
1.19479e-06
1.19481e-06
1.19534e-06
1.19472e-06
1.19491e-06
1.42976e-06
1.42722e-06
1.19537e-06
1.19475e-06
1.19484e-06
1.42758e-06
1.42983e-06
1.42919e-06
1.19515e-06
1.19493e-06
1.19515e-06
1.19488e-06
1.42948e-06
1.42865e-06
1.19501e-06
1.19483e-06
1.19509e-06
1.19493e-06
1.19498e-06
1.19478e-06
1.19509e-06
1.42926e-06
1.42883e-06
1.19488e-06
1.19475e-06
1.19493e-06
1.42907e-06
1.43075e-06
1.42371e-06
1.19473e-06
1.19455e-06
1.1903e-06
1.1907e-06
1.43031e-06
1.42412e-06
1.19471e-06
1.19469e-06
1.19029e-06
1.19069e-06
1.19479e-06
1.19067e-06
1.19051e-06
1.43056e-06
1.42392e-06
1.19463e-06
1.19061e-06
1.19038e-06
1.42375e-06
1.42495e-06
1.41883e-06
1.18887e-06
1.18938e-06
1.18564e-06
1.18597e-06
1.42542e-06
1.41939e-06
1.18879e-06
1.18907e-06
1.18542e-06
1.18552e-06
1.18897e-06
1.18585e-06
1.18589e-06
1.42513e-06
1.41879e-06
1.18883e-06
1.18553e-06
1.18576e-06
1.41908e-06
1.42036e-06
1.42044e-06
1.18522e-06
1.18529e-06
1.18577e-06
1.18452e-06
1.42085e-06
1.41874e-06
1.18502e-06
1.18518e-06
1.18592e-06
1.18652e-06
1.1857e-06
1.18455e-06
1.18701e-06
1.42033e-06
1.42129e-06
1.18561e-06
1.18672e-06
1.18727e-06
1.422e-06
1.42325e-06
1.42791e-06
1.18702e-06
1.18508e-06
1.19032e-06
1.18988e-06
1.42109e-06
1.42635e-06
1.1873e-06
1.18795e-06
1.19042e-06
1.19044e-06
1.18799e-06
1.18971e-06
1.1895e-06
1.42419e-06
1.42807e-06
1.18829e-06
1.19013e-06
1.18949e-06
1.4269e-06
1.43031e-06
1.4154e-06
1.19039e-06
1.19068e-06
1.18154e-06
1.18645e-06
1.42963e-06
1.42148e-06
1.19041e-06
1.19032e-06
1.18023e-06
1.17838e-06
1.18934e-06
1.18601e-06
1.17903e-06
1.43011e-06
1.4124e-06
1.18914e-06
1.17783e-06
1.17788e-06
1.41269e-06
1.41438e-06
1.38149e-06
1.17373e-06
1.17834e-06
1.1538e-06
1.15341e-06
1.42064e-06
1.3807e-06
1.17281e-06
1.17157e-06
1.1543e-06
1.15612e-06
1.17307e-06
1.15388e-06
1.15775e-06
1.41154e-06
1.38417e-06
1.17227e-06
1.15703e-06
1.15873e-06
1.38716e-06
1.38237e-06
1.40944e-06
1.15281e-06
1.15047e-06
1.172e-06
1.163e-06
1.38081e-06
1.39792e-06
1.15364e-06
1.15595e-06
1.17429e-06
1.17955e-06
1.1573e-06
1.16356e-06
1.17631e-06
1.38548e-06
1.41681e-06
1.15852e-06
1.18032e-06
1.17889e-06
1.41504e-06
1.42489e-06
1.48253e-06
1.1904e-06
1.18362e-06
1.2269e-06
1.22853e-06
1.41389e-06
1.4829e-06
1.19184e-06
1.19552e-06
1.22612e-06
1.22471e-06
1.19208e-06
1.22792e-06
1.22233e-06
1.43162e-06
1.48037e-06
1.19367e-06
1.22362e-06
1.22113e-06
1.47649e-06
1.4877e-06
1.41504e-06
1.22793e-06
1.23097e-06
1.17457e-06
1.18406e-06
1.49111e-06
1.42633e-06
1.22685e-06
1.22472e-06
1.17234e-06
1.16759e-06
1.22268e-06
1.18367e-06
1.17064e-06
1.48375e-06
1.406e-06
1.22113e-06
1.16669e-06
1.16781e-06
1.40821e-06
1.40227e-06
1.26329e-06
1.14428e-06
1.15036e-06
1.04455e-06
1.0422e-06
1.41301e-06
1.26207e-06
1.14298e-06
1.14063e-06
1.04631e-06
1.05346e-06
1.14417e-06
1.04451e-06
1.05628e-06
1.39423e-06
1.27319e-06
1.14229e-06
1.05564e-06
1.05801e-06
1.27802e-06
1.23635e-06
1.00308e-06
9.98881e-07
1.23306e-06
1.00513e-06
1.0143e-06
6.02733e-07
6.11506e-07
6.11781e-07
1.01607e-06
1.24889e-06
1.01843e-06
4.09712e-06
9.1637e-06
4.09449e-06
9.17047e-06
1.8432e-05
1.84424e-05
4.0975e-06
9.16579e-06
4.0944e-06
9.17254e-06
3.26848e-07
3.26935e-07
3.2693e-07
3.38964e-07
3.38953e-07
3.39044e-07
3.39038e-07
2.11725e-06
3.47869e-06
5.68253e-07
8.80406e-07
2.11152e-06
3.4821e-06
5.74153e-07
1.84326e-05
1.8443e-05
2.11727e-06
5.68342e-07
3.47873e-06
8.8052e-07
2.11157e-06
5.74243e-07
3.4822e-06
5.46413e-06
5.46604e-06
1.16386e-06
5.46714e-06
5.46907e-06
4.10482e-06
9.18066e-06
4.10221e-06
9.18809e-06
1.84569e-05
1.84684e-05
4.1052e-06
9.18275e-06
4.10212e-06
9.1902e-06
3.43022e-07
3.43113e-07
3.43108e-07
3.55328e-07
3.55317e-07
3.55408e-07
3.55406e-07
2.13112e-06
3.48976e-06
5.91746e-07
9.0367e-07
2.12569e-06
3.49302e-06
5.97569e-07
1.84575e-05
1.84692e-05
2.13114e-06
5.91838e-07
3.48979e-06
9.0378e-07
2.12573e-06
5.97661e-07
3.49312e-06
5.47346e-06
5.47537e-06
1.18299e-06
5.47645e-06
5.47838e-06
4.11244e-06
9.19813e-06
4.10987e-06
9.20504e-06
1.84808e-05
1.84909e-05
4.11282e-06
9.20022e-06
4.10978e-06
9.20713e-06
3.59438e-07
3.59531e-07
3.59529e-07
3.71854e-07
3.71844e-07
3.71941e-07
3.71936e-07
2.1443e-06
3.50044e-06
6.14905e-07
9.25926e-07
2.13915e-06
3.50356e-06
6.20626e-07
1.84815e-05
1.84913e-05
2.14431e-06
6.14998e-07
3.50046e-06
9.26037e-07
2.13919e-06
6.20721e-07
3.50365e-06
5.48274e-06
5.48465e-06
1.20119e-06
5.48566e-06
5.48759e-06
4.11993e-06
9.21336e-06
4.11739e-06
9.21985e-06
1.85025e-05
1.85133e-05
4.12031e-06
9.21543e-06
4.1173e-06
9.22192e-06
3.75994e-07
3.76091e-07
3.76085e-07
3.88491e-07
3.88479e-07
3.88575e-07
3.88574e-07
2.15677e-06
3.51064e-06
6.37605e-07
9.4715e-07
2.1519e-06
3.51364e-06
6.43203e-07
1.8503e-05
1.85142e-05
2.15678e-06
6.37701e-07
3.51067e-06
9.47256e-07
2.15193e-06
6.43299e-07
3.51372e-06
5.49181e-06
5.49372e-06
1.21847e-06
5.49473e-06
5.49666e-06
4.12731e-06
9.23077e-06
4.12484e-06
9.23895e-06
1.85285e-05
1.85408e-05
4.12768e-06
9.23287e-06
4.12475e-06
9.24105e-06
3.92644e-07
3.92741e-07
3.92741e-07
4.05116e-07
4.05106e-07
4.05207e-07
4.05206e-07
2.16859e-06
3.5205e-06
6.59797e-07
9.67368e-07
2.16401e-06
3.52334e-06
6.65246e-07
1.85294e-05
1.85414e-05
2.1686e-06
6.59893e-07
3.52052e-06
9.67472e-07
2.16403e-06
6.65342e-07
3.52343e-06
5.50085e-06
5.50276e-06
1.23491e-06
5.50366e-06
5.50559e-06
4.13451e-06
9.24855e-06
4.13207e-06
9.25505e-06
1.85544e-05
1.85657e-05
4.13488e-06
9.25063e-06
4.13198e-06
9.25712e-06
4.09252e-07
4.09354e-07
4.0935e-07
4.21683e-07
4.21674e-07
4.21775e-07
4.21773e-07
2.17974e-06
3.52988e-06
6.81328e-07
9.86542e-07
2.17541e-06
3.53263e-06
6.86606e-07
1.8555e-05
1.85665e-05
2.17974e-06
6.81426e-07
3.5299e-06
9.86646e-07
2.17544e-06
6.86704e-07
3.53271e-06
5.50962e-06
5.51154e-06
1.25045e-06
5.51249e-06
5.51442e-06
4.14158e-06
9.26458e-06
4.13925e-06
9.2717e-06
1.85793e-05
1.85902e-05
4.14196e-06
9.2666e-06
4.13915e-06
9.27371e-06
4.25804e-07
4.25905e-07
4.25903e-07
4.38124e-07
4.38115e-07
4.38217e-07
4.38219e-07
2.19034e-06
3.53899e-06
7.02203e-07
1.00478e-06
2.18625e-06
3.54157e-06
7.0731e-07
1.85799e-05
1.85907e-05
2.19034e-06
7.023e-07
3.539e-06
1.00488e-06
2.18627e-06
7.07405e-07
3.54166e-06
5.51842e-06
5.52034e-06
1.26525e-06
5.52108e-06
5.52302e-06
4.14848e-06
9.28152e-06
4.14616e-06
9.28917e-06
1.86046e-05
1.86178e-05
4.14884e-06
9.28355e-06
4.14606e-06
9.2912e-06
4.42187e-07
4.42291e-07
4.42288e-07
4.54316e-07
4.54305e-07
4.54411e-07
4.54412e-07
2.20028e-06
3.54761e-06
7.22312e-07
1.02197e-06
2.19645e-06
3.55012e-06
7.27207e-07
1.86054e-05
1.86189e-05
2.20027e-06
7.22409e-07
3.54762e-06
1.02207e-06
2.19647e-06
7.27305e-07
3.55019e-06
5.52681e-06
5.52873e-06
1.27919e-06
5.52962e-06
5.53156e-06
4.15524e-06
9.29938e-06
4.15305e-06
9.30601e-06
1.86325e-05
1.86432e-05
4.1556e-06
9.30145e-06
4.15294e-06
9.308e-06
4.58311e-07
4.58417e-07
4.58414e-07
4.70226e-07
4.70219e-07
4.70322e-07
4.7033e-07
2.20968e-06
3.55599e-06
7.41599e-07
1.0382e-06
2.20608e-06
3.55834e-06
7.46293e-07
1.86335e-05
1.8644e-05
2.20968e-06
7.41695e-07
3.556e-06
1.03829e-06
2.2061e-06
7.46388e-07
3.55841e-06
5.53544e-06
5.53736e-06
1.29239e-06
5.53798e-06
5.53992e-06
4.16174e-06
9.31542e-06
4.1596e-06
9.32296e-06
1.8658e-05
1.8671e-05
4.1621e-06
9.31734e-06
4.1595e-06
9.32494e-06
4.7415e-07
4.74254e-07
4.74252e-07
4.8581e-07
4.85804e-07
4.8591e-07
4.85911e-07
2.21849e-06
3.56387e-06
7.60065e-07
1.05349e-06
2.21513e-06
3.56612e-06
7.64545e-07
1.86584e-05
1.86721e-05
2.21849e-06
7.60158e-07
3.56388e-06
1.05358e-06
2.21515e-06
7.64638e-07
3.5662e-06
5.54335e-06
5.54528e-06
1.30482e-06
5.54597e-06
5.54792e-06
4.1682e-06
9.33258e-06
4.16611e-06
9.33941e-06
1.86853e-05
1.86972e-05
4.16856e-06
9.33469e-06
4.16601e-06
9.3414e-06
4.89637e-07
4.89744e-07
4.89738e-07
5.00984e-07
5.00974e-07
5.0108e-07
5.01087e-07
2.22683e-06
3.57154e-06
7.7765e-07
1.06784e-06
2.22367e-06
3.57369e-06
7.81901e-07
1.86868e-05
1.86981e-05
2.22682e-06
7.77744e-07
3.57154e-06
1.06793e-06
2.2237e-06
7.81994e-07
3.57375e-06
5.5516e-06
5.55352e-06
1.31657e-06
5.55413e-06
5.55608e-06
4.17441e-06
9.3504e-06
4.17243e-06
9.35794e-06
1.87139e-05
1.87258e-05
4.17477e-06
9.35229e-06
4.17232e-06
9.35995e-06
5.047e-07
5.04806e-07
5.04805e-07
5.15712e-07
5.15706e-07
5.15813e-07
5.1582e-07
2.23464e-06
3.57883e-06
7.94315e-07
1.08129e-06
2.2317e-06
3.58085e-06
7.98338e-07
1.87138e-05
1.87264e-05
2.23461e-06
7.94406e-07
3.57884e-06
1.08138e-06
2.23174e-06
7.98428e-07
3.58093e-06
5.55941e-06
5.56134e-06
1.3276e-06
5.56183e-06
5.56378e-06
4.18042e-06
9.36446e-06
4.17853e-06
9.36966e-06
1.87362e-05
1.87475e-05
4.18078e-06
9.3666e-06
4.17843e-06
9.37166e-06
5.19316e-07
5.19423e-07
5.1942e-07
5.29955e-07
5.2995e-07
5.30057e-07
5.30062e-07
2.24197e-06
3.58575e-06
8.10066e-07
1.09386e-06
2.23923e-06
3.58766e-06
8.13856e-07
1.87379e-05
1.87491e-05
2.24193e-06
8.10155e-07
3.58577e-06
1.09394e-06
2.23928e-06
8.13944e-07
3.58773e-06
5.56704e-06
5.56897e-06
1.33795e-06
5.56943e-06
5.57138e-06
4.18628e-06
9.38335e-06
4.18445e-06
9.39391e-06
1.87703e-05
1.87856e-05
4.18663e-06
9.38509e-06
4.18434e-06
9.39581e-06
5.33429e-07
5.33535e-07
5.33529e-07
5.43662e-07
5.43659e-07
5.43761e-07
5.43774e-07
2.24883e-06
3.59239e-06
8.24873e-07
1.10556e-06
2.24627e-06
3.59421e-06
8.28426e-07
1.87706e-05
1.87856e-05
2.24878e-06
8.24961e-07
3.59239e-06
1.10564e-06
2.24633e-06
8.28511e-07
3.59428e-06
5.57455e-06
5.57648e-06
1.34764e-06
5.57689e-06
5.57884e-06
4.19193e-06
9.40034e-06
4.1902e-06
9.40179e-06
1.87924e-05
1.87973e-05
4.19228e-06
9.40236e-06
4.1901e-06
9.40402e-06
5.47005e-07
5.47108e-07
5.47109e-07
5.56839e-07
5.56833e-07
5.56941e-07
5.56949e-07
2.25524e-06
3.59871e-06
8.38757e-07
1.11646e-06
2.25288e-06
3.6004e-06
8.42087e-07
1.87934e-05
1.8799e-05
2.25519e-06
8.38838e-07
3.59871e-06
1.11654e-06
2.25293e-06
8.42168e-07
3.60047e-06
5.58184e-06
5.58377e-06
1.35673e-06
5.58407e-06
5.58602e-06
4.19734e-06
9.40869e-06
4.19568e-06
9.41963e-06
1.88126e-05
1.88328e-05
4.19767e-06
9.41074e-06
4.1956e-06
9.42161e-06
5.60031e-07
5.60142e-07
5.60131e-07
5.69374e-07
5.69376e-07
5.69483e-07
5.69489e-07
2.26117e-06
3.60468e-06
8.51726e-07
1.12653e-06
2.25902e-06
3.60627e-06
8.54813e-07
1.88139e-05
1.88333e-05
2.26111e-06
8.51814e-07
3.60469e-06
1.12662e-06
2.25908e-06
8.54901e-07
3.60634e-06
5.58889e-06
5.59082e-06
1.36516e-06
5.59108e-06
5.59303e-06
4.20252e-06
9.43439e-06
4.20094e-06
9.44145e-06
1.88552e-05
1.88663e-05
4.20283e-06
9.43631e-06
4.20086e-06
9.4433e-06
5.72416e-07
5.72518e-07
5.72514e-07
5.81317e-07
5.81311e-07
5.81412e-07
5.81426e-07
2.26661e-06
3.61032e-06
8.6373e-07
1.13579e-06
2.26465e-06
3.61179e-06
8.66592e-07
1.88549e-05
1.88669e-05
2.26653e-06
8.63807e-07
3.61031e-06
1.13586e-06
2.26469e-06
8.66665e-07
3.61186e-06
5.59581e-06
5.59773e-06
1.37296e-06
5.59789e-06
5.59983e-06
4.2074e-06
9.44753e-06
4.20593e-06
9.45137e-06
1.88738e-05
1.88808e-05
4.2077e-06
9.44955e-06
4.20589e-06
9.45357e-06
5.84206e-07
5.84311e-07
5.84308e-07
5.92681e-07
5.92683e-07
5.92786e-07
5.92794e-07
2.27166e-06
3.61562e-06
8.74874e-07
1.14436e-06
2.26989e-06
3.61697e-06
8.77532e-07
1.88759e-05
1.88828e-05
2.27158e-06
8.7495e-07
3.61563e-06
1.14444e-06
2.26992e-06
8.7761e-07
3.61704e-06
5.60228e-06
5.60422e-06
1.38024e-06
5.60425e-06
5.6062e-06
4.21216e-06
9.45754e-06
4.21071e-06
9.46444e-06
1.88943e-05
1.89099e-05
4.21244e-06
9.45974e-06
4.21064e-06
9.46634e-06
5.95431e-07
5.95531e-07
5.95528e-07
6.03383e-07
6.03384e-07
6.03487e-07
6.03498e-07
2.27631e-06
3.62065e-06
8.85199e-07
1.15222e-06
2.27472e-06
3.62196e-06
8.87632e-07
1.88944e-05
1.89099e-05
2.27622e-06
8.85272e-07
3.62062e-06
1.15229e-06
2.27475e-06
8.87702e-07
3.62199e-06
5.60875e-06
5.61067e-06
1.38698e-06
5.61078e-06
5.61272e-06
4.2166e-06
9.47657e-06
4.2153e-06
9.48387e-06
1.89297e-05
1.894e-05
4.21689e-06
9.47824e-06
4.2153e-06
9.48579e-06
6.0595e-07
6.06057e-07
6.06052e-07
6.13448e-07
6.13443e-07
6.13554e-07
6.1356e-07
2.28047e-06
3.6254e-06
8.94581e-07
1.1593e-06
2.2791e-06
3.62654e-06
8.96798e-07
1.89301e-05
1.89413e-05
2.2804e-06
8.94655e-07
3.62542e-06
1.15939e-06
2.27912e-06
8.96875e-07
3.62664e-06
5.61504e-06
5.61698e-06
1.39311e-06
5.61686e-06
5.61882e-06
4.22071e-06
9.48984e-06
4.21952e-06
9.49401e-06
1.89487e-05
1.89583e-05
4.22093e-06
9.49222e-06
4.21952e-06
9.49631e-06
6.15868e-07
6.15974e-07
6.1597e-07
6.22832e-07
6.22841e-07
6.22931e-07
6.22945e-07
2.28423e-06
3.62978e-06
9.03187e-07
1.16576e-06
2.28305e-06
3.63078e-06
9.052e-07
1.895e-05
1.8959e-05
2.28414e-06
9.03261e-07
3.62977e-06
1.16583e-06
2.28308e-06
9.05267e-07
3.63081e-06
5.62088e-06
5.62281e-06
1.39872e-06
5.62256e-06
5.6245e-06
4.22455e-06
9.50264e-06
4.22338e-06
9.51026e-06
1.8975e-05
1.89887e-05
4.22481e-06
9.50421e-06
4.2234e-06
9.51185e-06
6.25079e-07
6.25172e-07
6.2517e-07
6.31625e-07
6.3162e-07
6.31728e-07
6.31731e-07
2.2875e-06
3.63367e-06
9.10903e-07
1.17148e-06
2.28648e-06
3.63466e-06
9.12717e-07
1.89755e-05
1.89903e-05
2.28742e-06
9.10962e-07
3.63367e-06
1.17155e-06
2.2865e-06
9.1278e-07
3.63474e-06
5.62638e-06
5.62832e-06
1.40376e-06
5.62821e-06
5.63017e-06
4.2283e-06
9.51863e-06
4.2273e-06
9.52201e-06
1.90018e-05
1.90091e-05
4.22847e-06
9.52101e-06
4.22733e-06
9.52452e-06
6.33742e-07
6.33846e-07
6.33841e-07
6.39755e-07
6.39767e-07
6.39852e-07
6.39874e-07
2.29059e-06
3.63766e-06
9.17979e-07
1.17674e-06
2.28974e-06
3.63847e-06
9.19624e-07
1.9004e-05
1.90103e-05
2.2905e-06
9.18044e-07
3.63766e-06
1.1768e-06
2.28974e-06
9.19682e-07
3.63849e-06
5.63218e-06
5.6341e-06
1.40845e-06
5.63359e-06
5.63553e-06
4.23135e-06
9.52529e-06
4.23043e-06
9.53143e-06
1.90179e-05
1.90313e-05
4.23158e-06
9.52726e-06
4.23048e-06
9.53273e-06
6.41658e-07
6.41749e-07
6.41756e-07
6.47138e-07
6.47136e-07
6.4726e-07
6.47256e-07
2.29285e-06
3.64079e-06
9.24131e-07
1.18106e-06
2.29228e-06
3.64152e-06
9.25517e-07
1.90162e-05
1.90296e-05
2.29281e-06
9.24191e-07
3.64078e-06
1.18114e-06
2.29226e-06
9.25589e-07
3.64159e-06
5.63683e-06
5.63876e-06
1.41236e-06
5.63857e-06
5.64052e-06
4.23461e-06
9.54839e-06
4.23375e-06
9.55646e-06
1.90571e-05
1.90711e-05
4.23477e-06
9.55002e-06
4.23386e-06
9.55874e-06
6.48939e-07
6.4906e-07
6.49043e-07
6.54154e-07
6.54154e-07
6.54231e-07
6.54256e-07
2.29523e-06
3.64409e-06
9.29608e-07
1.18514e-06
2.2946e-06
3.64476e-06
9.30932e-07
1.90592e-05
1.9075e-05
2.2952e-06
9.29689e-07
3.64414e-06
1.18521e-06
2.29463e-06
9.30996e-07
3.64482e-06
5.64231e-06
5.64426e-06
1.4161e-06
5.64344e-06
5.64539e-06
4.23723e-06
9.55908e-06
4.2365e-06
9.55866e-06
1.90763e-05
1.90781e-05
4.23743e-06
9.56171e-06
4.23653e-06
9.56107e-06
6.55797e-07
6.55871e-07
6.55886e-07
6.60377e-07
6.60381e-07
6.60465e-07
6.60466e-07
2.29702e-06
3.64676e-06
9.34603e-07
1.1886e-06
2.29667e-06
3.6473e-06
9.35683e-07
1.90785e-05
1.90778e-05
2.29695e-06
9.34634e-07
3.64671e-06
1.18863e-06
2.29659e-06
9.35717e-07
3.64734e-06
5.64611e-06
5.64804e-06
1.41932e-06
5.64766e-06
5.64964e-06
4.23997e-06
9.55948e-06
4.2393e-06
9.56358e-06
1.90796e-05
1.90887e-05
4.24014e-06
9.56125e-06
4.23939e-06
9.56574e-06
6.61808e-07
6.61903e-07
6.61888e-07
6.65844e-07
6.65856e-07
6.66e-07
6.65995e-07
2.29836e-06
3.64952e-06
9.38605e-07
1.19122e-06
2.29809e-06
3.65001e-06
9.39482e-07
1.90781e-05
1.90909e-05
2.29834e-06
9.38669e-07
3.64955e-06
1.19132e-06
2.29808e-06
9.39561e-07
3.65005e-06
5.65161e-06
5.65353e-06
1.42188e-06
5.65284e-06
5.65475e-06
4.2417e-06
9.57738e-06
4.24135e-06
9.58656e-06
1.91162e-05
1.91342e-05
4.24189e-06
9.57943e-06
4.24145e-06
9.58773e-06
6.67191e-07
6.67323e-07
6.67312e-07
6.70974e-07
6.70997e-07
6.71036e-07
6.71081e-07
2.29929e-06
3.65146e-06
9.4204e-07
1.19354e-06
2.2992e-06
3.65162e-06
9.42843e-07
1.91188e-05
1.91322e-05
2.29926e-06
9.42126e-07
3.65145e-06
1.19359e-06
2.29919e-06
9.42903e-07
3.65171e-06
5.65489e-06
5.65681e-06
1.42411e-06
5.65562e-06
5.65761e-06
4.2437e-06
9.59001e-06
4.24309e-06
9.59014e-06
1.91392e-05
1.91415e-05
4.24388e-06
9.59136e-06
4.24319e-06
9.59265e-06
6.72157e-07
6.72205e-07
6.72242e-07
6.75515e-07
6.75476e-07
6.75596e-07
6.75593e-07
2.30003e-06
3.65315e-06
9.44989e-07
1.19533e-06
2.3e-06
3.65355e-06
9.45594e-07
1.91366e-05
1.91427e-05
2.29998e-06
9.45011e-07
3.65318e-06
1.19538e-06
2.29997e-06
9.45639e-07
3.65359e-06
5.65833e-06
5.66031e-06
1.426e-06
5.65981e-06
5.66177e-06
4.24584e-06
9.60058e-06
4.24541e-06
9.60932e-06
1.91575e-05
1.91735e-05
4.24595e-06
9.60425e-06
4.24552e-06
9.61136e-06
6.7658e-07
6.76686e-07
6.76659e-07
6.79374e-07
6.79383e-07
6.7949e-07
6.79469e-07
2.30061e-06
3.65526e-06
9.47406e-07
1.19681e-06
2.30069e-06
3.65545e-06
9.47911e-07
1.91652e-05
1.91748e-05
2.30057e-06
9.47462e-07
3.65523e-06
1.19689e-06
2.30067e-06
9.47958e-07
3.65544e-06
5.66308e-06
5.66499e-06
1.4276e-06
5.66382e-06
5.66574e-06
4.24632e-06
9.60708e-06
4.24634e-06
9.60034e-06
1.91712e-05
1.91664e-05
4.24654e-06
9.6073e-06
4.24638e-06
9.6013e-06
6.8015e-07
6.80289e-07
6.8026e-07
6.82452e-07
6.82532e-07
6.82587e-07
6.82647e-07
2.29989e-06
3.65602e-06
9.48877e-07
1.19713e-06
2.30046e-06
3.65584e-06
9.49096e-07
1.91665e-05
1.91643e-05
2.29989e-06
9.48969e-07
3.65603e-06
1.19723e-06
2.30042e-06
9.49207e-07
3.65601e-06
5.6652e-06
5.66712e-06
1.42796e-06
5.66602e-06
5.66798e-06
4.24794e-06
9.61006e-06
4.24743e-06
9.63328e-06
1.91887e-05
1.92297e-05
4.24806e-06
9.61373e-06
4.24758e-06
9.63619e-06
6.83428e-07
6.83418e-07
6.83496e-07
6.85798e-07
6.85738e-07
6.85839e-07
6.8584e-07
2.30019e-06
3.65717e-06
9.50199e-07
1.198e-06
2.30024e-06
3.65742e-06
9.50558e-07
1.91963e-05
1.92329e-05
2.3001e-06
9.50167e-07
3.65717e-06
1.19796e-06
2.30018e-06
9.50528e-07
3.65733e-06
5.66873e-06
5.67066e-06
1.42919e-06
5.66934e-06
5.67128e-06
4.24835e-06
9.64783e-06
4.24842e-06
9.63926e-06
1.92423e-05
1.9223e-05
4.24859e-06
9.64853e-06
4.24853e-06
9.63857e-06
6.86354e-07
6.86562e-07
6.86491e-07
6.87923e-07
6.87912e-07
6.88074e-07
6.88029e-07
2.29932e-06
3.65774e-06
9.51102e-07
1.19785e-06
2.30008e-06
3.65749e-06
9.5112e-07
1.92357e-05
1.92132e-05
2.29939e-06
9.51257e-07
3.65786e-06
1.19812e-06
2.30021e-06
9.51285e-07
3.65776e-06
5.67023e-06
5.67223e-06
1.42957e-06
5.67149e-06
5.67349e-06
4.2498e-06
9.60237e-06
4.24966e-06
9.59842e-06
1.91744e-05
1.91836e-05