/*--------------------------------*- C++ -*----------------------------------*\
| =========                 |                                                 |
| \\      /  F ield         | OpenFOAM: The Open Source CFD Toolbox           |
|  \\    /   O peration     | Version:  v2012                                 |
|   \\  /    A nd           | Website:  www.openfoam.com                      |
|    \\/     M anipulation  |                                                 |
\*---------------------------------------------------------------------------*/
FoamFile
{
    version     2.0;
    format      ascii;
    class       volScalarField;
    location    "875";
    object      k;
}
// * * * * * * * * * * * * * * * * * * * * * * * * * * * * * * * * * * * * * //

dimensions      [0 2 -2 0 0 0 0];


internalField   nonuniform List<scalar> 
85864
(
2.12009e-05
3.69023e-05
3.69053e-05
4.21244e-05
2.19615e-05
3.78026e-05
3.78049e-05
4.2843e-05
2.27454e-05
3.86925e-05
3.86953e-05
4.35593e-05
2.35448e-05
3.95461e-05
3.95479e-05
4.42239e-05
2.4346e-05
4.03641e-05
4.03668e-05
4.48608e-05
2.51605e-05
4.11669e-05
4.11692e-05
4.55058e-05
2.5977e-05
4.19375e-05
4.19396e-05
4.61022e-05
2.67902e-05
4.26715e-05
4.26732e-05
4.66724e-05
2.75979e-05
4.3384e-05
4.33862e-05
4.72367e-05
2.84032e-05
4.40655e-05
4.40671e-05
4.77682e-05
2.91928e-05
4.4719e-05
4.47211e-05
4.82742e-05
2.99739e-05
4.53439e-05
4.53456e-05
4.87738e-05
3.07388e-05
4.5943e-05
4.59434e-05
4.92353e-05
3.14804e-05
4.65002e-05
4.65033e-05
4.96669e-05
3.22137e-05
4.70665e-05
4.70656e-05
5.01357e-05
3.29176e-05
4.75472e-05
4.75508e-05
5.04689e-05
3.35874e-05
4.80408e-05
4.80404e-05
5.08883e-05
3.42659e-05
4.85382e-05
4.85383e-05
5.12878e-05
3.49032e-05
4.89441e-05
4.89485e-05
5.15874e-05
3.54973e-05
4.9351e-05
4.93489e-05
5.19174e-05
3.60852e-05
4.9751e-05
4.97518e-05
5.22266e-05
3.66418e-05
5.00959e-05
5.00968e-05
5.25042e-05
3.71668e-05
5.04409e-05
5.04432e-05
5.27837e-05
3.76681e-05
5.07457e-05
5.07477e-05
5.29945e-05
3.81308e-05
5.10263e-05
5.10187e-05
5.32536e-05
3.85991e-05
5.13448e-05
5.13514e-05
5.35234e-05
3.90102e-05
5.15543e-05
5.15557e-05
5.36368e-05
3.9372e-05
5.17244e-05
5.1725e-05
5.37835e-05
3.97385e-05
5.19823e-05
5.19777e-05
5.40037e-05
4.00839e-05
5.21521e-05
5.21526e-05
5.41444e-05
4.03939e-05
5.23243e-05
5.23321e-05
5.42799e-05
4.06572e-05
5.23997e-05
5.23981e-05
5.42942e-05
4.0928e-05
5.26386e-05
5.26292e-05
5.45996e-05
4.11808e-05
5.26791e-05
5.26703e-05
5.4504e-05
4.1287e-05
5.26166e-05
5.26401e-05
5.44201e-05
4.15285e-05
5.28964e-05
5.28602e-05
5.48296e-05
4.17786e-05
5.29528e-05
5.29408e-05
5.47752e-05
4.18124e-05
5.282e-05
5.28514e-05
5.45958e-05
4.18632e-05
5.28131e-05
5.27951e-05
5.45994e-05
4.2113e-05
5.30809e-05
5.30892e-05
5.5075e-05
4.21834e-05
5.28497e-05
5.29266e-05
5.4482e-05
4.21037e-05
5.2764e-05
5.26414e-05
5.44445e-05
4.21637e-05
5.28592e-05
5.3023e-05
5.49235e-05
4.24441e-05
5.30445e-05
5.30626e-05
5.48845e-05
4.25487e-05
5.31892e-05
5.29588e-05
5.5207e-05
4.18073e-05
5.16841e-05
5.1812e-05
5.24823e-05
4.1407e-05
5.12429e-05
5.11626e-05
5.21088e-05
4.28463e-05
5.35253e-05
5.40172e-05
5.97699e-05
4.21232e-05
4.26769e-05
3.69034e-05
3.69038e-05
3.75794e-05
3.758e-05
4.21224e-05
4.26776e-05
3.69017e-05
3.69053e-05
3.75774e-05
3.75807e-05
3.69067e-05
3.75784e-05
3.75829e-05
4.21247e-05
4.26787e-05
3.69046e-05
3.75808e-05
3.75809e-05
4.26809e-05
4.2839e-05
4.34006e-05
3.78036e-05
3.78041e-05
3.84743e-05
3.84738e-05
4.28404e-05
4.33958e-05
3.78019e-05
3.78048e-05
3.84724e-05
3.84748e-05
3.78074e-05
3.84725e-05
3.84774e-05
4.28412e-05
4.33986e-05
3.78055e-05
3.84752e-05
3.84755e-05
4.34002e-05
4.356e-05
4.4073e-05
3.86947e-05
3.86937e-05
3.93393e-05
3.93378e-05
4.35546e-05
4.40717e-05
3.86931e-05
3.86949e-05
3.93376e-05
3.93381e-05
3.86973e-05
3.93365e-05
3.93419e-05
4.3557e-05
4.40717e-05
3.86955e-05
3.93385e-05
3.93403e-05
4.40769e-05
4.42187e-05
4.47123e-05
3.95477e-05
3.95474e-05
4.01592e-05
4.01625e-05
4.42193e-05
4.47165e-05
3.95462e-05
3.95474e-05
4.01574e-05
4.0163e-05
3.95515e-05
4.01616e-05
4.01642e-05
4.42194e-05
4.47187e-05
3.95499e-05
4.01639e-05
4.01627e-05
4.47153e-05
4.48599e-05
4.53636e-05
4.03623e-05
4.0365e-05
4.09721e-05
4.09693e-05
4.48622e-05
4.53555e-05
4.03608e-05
4.03659e-05
4.09705e-05
4.09702e-05
4.03662e-05
4.09683e-05
4.09727e-05
4.48644e-05
4.53571e-05
4.03647e-05
4.09709e-05
4.09714e-05
4.53627e-05
4.55053e-05
4.59647e-05
4.11715e-05
4.11679e-05
4.17486e-05
4.1749e-05
4.54975e-05
4.59673e-05
4.11702e-05
4.11686e-05
4.1747e-05
4.17493e-05
4.11727e-05
4.17482e-05
4.17534e-05
4.54988e-05
4.59685e-05
4.11714e-05
4.17503e-05
4.17521e-05
4.59702e-05
4.60971e-05
4.65419e-05
4.19361e-05
4.19382e-05
4.24905e-05
4.24919e-05
4.61011e-05
4.65414e-05
4.19347e-05
4.19385e-05
4.24891e-05
4.24919e-05
4.19412e-05
4.24913e-05
4.24931e-05
4.61021e-05
4.65418e-05
4.19399e-05
4.24931e-05
4.2492e-05
4.65425e-05
4.66723e-05
4.71085e-05
4.2672e-05
4.26722e-05
4.3208e-05
4.32075e-05
4.66708e-05
4.71065e-05
4.26708e-05
4.2672e-05
4.32067e-05
4.32075e-05
4.26741e-05
4.32069e-05
4.32106e-05
4.66709e-05
4.71083e-05
4.26729e-05
4.32087e-05
4.32095e-05
4.71105e-05
4.72344e-05
4.76467e-05
4.33847e-05
4.33846e-05
4.39003e-05
4.39e-05
4.72326e-05
4.76452e-05
4.33836e-05
4.33849e-05
4.38992e-05
4.39003e-05
4.33878e-05
4.38996e-05
4.39036e-05
4.72346e-05
4.76453e-05
4.33867e-05
4.39017e-05
4.39027e-05
4.76495e-05
4.77654e-05
4.81569e-05
4.40662e-05
4.40659e-05
4.45559e-05
4.45574e-05
4.77644e-05
4.81587e-05
4.40652e-05
4.40657e-05
4.45546e-05
4.45567e-05
4.40696e-05
4.4557e-05
4.45589e-05
4.77638e-05
4.81605e-05
4.40687e-05
4.45581e-05
4.45579e-05
4.8159e-05
4.82727e-05
4.86608e-05
4.47177e-05
4.47194e-05
4.5191e-05
4.5191e-05
4.82746e-05
4.86583e-05
4.47166e-05
4.47196e-05
4.519e-05
4.51921e-05
4.47206e-05
4.51908e-05
4.5193e-05
4.82773e-05
4.8659e-05
4.47196e-05
4.51938e-05
4.51924e-05
4.86609e-05
4.87734e-05
4.91281e-05
4.53447e-05
4.5344e-05
4.57981e-05
4.5797e-05
4.87699e-05
4.91261e-05
4.53439e-05
4.5344e-05
4.57969e-05
4.57944e-05
4.53467e-05
4.57967e-05
4.5802e-05
4.87691e-05
4.91249e-05
4.53462e-05
4.57961e-05
4.58009e-05
4.9134e-05
4.92289e-05
4.95618e-05
4.59434e-05
4.59431e-05
4.63578e-05
4.6361e-05
4.92286e-05
4.95663e-05
4.59424e-05
4.59416e-05
4.63569e-05
4.63632e-05
4.59484e-05
4.63614e-05
4.63613e-05
4.92289e-05
4.95703e-05
4.59473e-05
4.63653e-05
4.63608e-05
4.95616e-05
4.96689e-05
5.00366e-05
4.64968e-05
4.64998e-05
4.69303e-05
4.69285e-05
4.96724e-05
5.00305e-05
4.6496e-05
4.65015e-05
4.69293e-05
4.69258e-05
4.64984e-05
4.6928e-05
4.69301e-05
4.96749e-05
5.00267e-05
4.64981e-05
4.69272e-05
4.69295e-05
5.00367e-05
5.01339e-05
5.03844e-05
4.70701e-05
4.70669e-05
4.74336e-05
4.74336e-05
5.0127e-05
5.03847e-05
4.70693e-05
4.7064e-05
4.74327e-05
4.74343e-05
4.70716e-05
4.74343e-05
4.74394e-05
5.01237e-05
5.03894e-05
4.70708e-05
4.74369e-05
4.74386e-05
5.03898e-05
5.04647e-05
5.07821e-05
4.75447e-05
4.75465e-05
4.79075e-05
4.79097e-05
5.04671e-05
5.07853e-05
4.75441e-05
4.75483e-05
4.79069e-05
4.79094e-05
4.75498e-05
4.79099e-05
4.79095e-05
5.04723e-05
5.07829e-05
4.75492e-05
4.79113e-05
4.79094e-05
5.07847e-05
5.0885e-05
5.12067e-05
4.80387e-05
4.80406e-05
4.842e-05
4.84223e-05
5.08882e-05
5.12084e-05
4.80383e-05
4.80387e-05
4.84188e-05
4.84191e-05
4.80414e-05
4.8423e-05
4.84236e-05
5.08839e-05
5.12071e-05
4.80412e-05
4.84215e-05
4.84227e-05
5.12069e-05
5.12898e-05
5.15154e-05
4.85359e-05
4.85375e-05
4.88515e-05
4.8847e-05
5.12898e-05
5.15051e-05
4.85348e-05
4.85359e-05
4.8851e-05
4.88499e-05
4.85379e-05
4.8847e-05
4.88496e-05
5.12907e-05
5.15109e-05
4.8537e-05
4.88518e-05
4.88495e-05
5.15123e-05
5.15875e-05
5.18252e-05
4.89494e-05
4.89441e-05
4.92423e-05
4.92442e-05
5.15773e-05
5.18325e-05
4.89495e-05
4.89467e-05
4.9242e-05
4.92419e-05
4.89493e-05
4.92455e-05
4.92509e-05
5.15819e-05
5.1828e-05
4.89494e-05
4.92444e-05
4.92506e-05
5.18378e-05
5.19056e-05
5.21605e-05
4.93443e-05
4.93495e-05
4.96522e-05
4.9657e-05
5.1916e-05
5.21642e-05
4.93438e-05
4.9346e-05
4.96509e-05
4.96549e-05
4.93536e-05
4.96579e-05
4.96537e-05
5.19109e-05
5.21644e-05
4.93531e-05
4.96577e-05
4.9653e-05
5.21563e-05
5.22331e-05
5.24343e-05
4.97484e-05
4.97504e-05
5.00131e-05
5.00098e-05
5.22328e-05
5.24274e-05
4.97478e-05
4.97495e-05
5.00133e-05
5.00096e-05
4.97474e-05
5.00102e-05
5.00127e-05
5.22339e-05
5.24271e-05
4.97469e-05
5.00116e-05
5.00129e-05
5.24343e-05
5.25014e-05
5.27142e-05
5.00984e-05
5.00954e-05
5.03551e-05
5.03546e-05
5.24951e-05
5.27136e-05
5.00985e-05
5.00946e-05
5.03539e-05
5.03544e-05
5.01001e-05
5.03557e-05
5.03608e-05
5.24943e-05
5.2717e-05
5.01003e-05
5.03571e-05
5.03603e-05
5.272e-05
5.27797e-05
5.29421e-05
5.04394e-05
5.04396e-05
5.06711e-05
5.06748e-05
5.27805e-05
5.29492e-05
5.04386e-05
5.04408e-05
5.06718e-05
5.06768e-05
5.04445e-05
5.06758e-05
5.06718e-05
5.27855e-05
5.29505e-05
5.04439e-05
5.06793e-05
5.06722e-05
5.29408e-05
5.29952e-05
5.31792e-05
5.07397e-05
5.07448e-05
5.09479e-05
5.09486e-05
5.30029e-05
5.31751e-05
5.07409e-05
5.07447e-05
5.09465e-05
5.09401e-05
5.07406e-05
5.09498e-05
5.09514e-05
5.30008e-05
5.31626e-05
5.07414e-05
5.09435e-05
5.0951e-05
5.31821e-05
5.32512e-05
5.34694e-05
5.1028e-05
5.1025e-05
5.12752e-05
5.12708e-05
5.32428e-05
5.34661e-05
5.1026e-05
5.10162e-05
5.12744e-05
5.12729e-05
5.10313e-05
5.12717e-05
5.12769e-05
5.32317e-05
5.34766e-05
5.10299e-05
5.1274e-05
5.12757e-05
5.34713e-05
5.35199e-05
5.35984e-05
5.13447e-05
5.13438e-05
5.15008e-05
5.15096e-05
5.3522e-05
5.36106e-05
5.13453e-05
5.13498e-05
5.15025e-05
5.15124e-05
5.13473e-05
5.15115e-05
5.15078e-05
5.35338e-05
5.3611e-05
5.13475e-05
5.1517e-05
5.15098e-05
5.36058e-05
5.3631e-05
5.37384e-05
5.1544e-05
5.15522e-05
5.16799e-05
5.16728e-05
5.36398e-05
5.37214e-05
5.1545e-05
5.15507e-05
5.16792e-05
5.16705e-05
5.15511e-05
5.16742e-05
5.16784e-05
5.36372e-05
5.37229e-05
5.15525e-05
5.16722e-05
5.1677e-05
5.37299e-05
5.37931e-05
5.39501e-05
5.17336e-05
5.17236e-05
5.19156e-05
5.19176e-05
5.37744e-05
5.39625e-05
5.17334e-05
5.17247e-05
5.19149e-05
5.19149e-05
5.17296e-05
5.19179e-05
5.19164e-05
5.37779e-05
5.39529e-05
5.17283e-05
5.19171e-05
5.19168e-05
5.39557e-05
5.39955e-05
5.41006e-05
5.19733e-05
5.19815e-05
5.21073e-05
5.21134e-05
5.40125e-05
5.4103e-05
5.1972e-05
5.19736e-05
5.21065e-05
5.21068e-05
5.19784e-05
5.21158e-05
5.21124e-05
5.39997e-05
5.41009e-05
5.19786e-05
5.21105e-05
5.21114e-05
5.41016e-05
5.41471e-05
5.42467e-05
5.21507e-05
5.21494e-05
5.22859e-05
5.22793e-05
5.41403e-05
5.42401e-05
5.21516e-05
5.21511e-05
5.22887e-05
5.229e-05
5.21524e-05
5.22814e-05
5.22896e-05
5.41464e-05
5.42505e-05
5.21518e-05
5.22916e-05
5.22915e-05
5.42546e-05
5.42683e-05
5.42614e-05
5.23247e-05
5.23224e-05
5.2376e-05
5.2383e-05
5.4268e-05
5.42702e-05
5.23266e-05
5.2328e-05
5.23728e-05
5.23736e-05
5.23319e-05
5.23838e-05
5.23829e-05
5.42728e-05
5.42651e-05
5.23337e-05
5.2381e-05
5.2383e-05
5.42646e-05
5.42967e-05
5.45535e-05
5.23959e-05
5.23991e-05
5.25653e-05
5.25594e-05
5.43006e-05
5.45448e-05
5.23931e-05
5.23934e-05
5.2568e-05
5.25658e-05
5.23966e-05
5.25605e-05
5.25546e-05
5.43006e-05
5.45404e-05
5.23967e-05
5.25605e-05
5.25559e-05
5.45357e-05
5.46156e-05
5.45137e-05
5.26416e-05
5.26375e-05
5.26933e-05
5.26951e-05
5.46107e-05
5.45163e-05
5.26435e-05
5.2634e-05
5.26913e-05
5.26776e-05
5.2632e-05
5.26964e-05
5.26943e-05
5.45922e-05
5.44933e-05
5.26313e-05
5.26816e-05
5.26903e-05
5.45166e-05
5.44966e-05
5.43302e-05
5.26743e-05
5.26777e-05
5.25983e-05
5.26076e-05
5.45003e-05
5.43504e-05
5.26713e-05
5.26627e-05
5.26011e-05
5.26258e-05
5.26799e-05
5.26119e-05
5.26204e-05
5.4488e-05
5.44073e-05
5.26763e-05
5.26344e-05
5.26245e-05
5.43735e-05
5.43727e-05
5.47937e-05
5.26027e-05
5.26121e-05
5.28063e-05
5.2803e-05
5.43961e-05
5.47782e-05
5.2606e-05
5.26323e-05
5.28104e-05
5.27976e-05
5.26253e-05
5.28066e-05
5.28076e-05
5.4455e-05
5.47246e-05
5.263e-05
5.27976e-05
5.28127e-05
5.47689e-05
5.48802e-05
5.48299e-05
5.29092e-05
5.28972e-05
5.29863e-05
5.29688e-05
5.48541e-05
5.47955e-05
5.2906e-05
5.28614e-05
5.29771e-05
5.29434e-05
5.28886e-05
5.29631e-05
5.29516e-05
5.47754e-05
5.47906e-05
5.28879e-05
5.29418e-05
5.2944e-05
5.47757e-05
5.48201e-05
5.45501e-05
5.29741e-05
5.29578e-05
5.28367e-05
5.28454e-05
5.47871e-05
5.45822e-05
5.29665e-05
5.29423e-05
5.28451e-05
5.28875e-05
5.29444e-05
5.28491e-05
5.28538e-05
5.47975e-05
5.46526e-05
5.29372e-05
5.28885e-05
5.28551e-05
5.45949e-05
5.45446e-05
5.44509e-05
5.2789e-05
5.28142e-05
5.27486e-05
5.27915e-05
5.45861e-05
5.45489e-05
5.27997e-05
5.28469e-05
5.27555e-05
5.2776e-05
5.28218e-05
5.27993e-05
5.27962e-05
5.46441e-05
5.4483e-05
5.28256e-05
5.27887e-05
5.28012e-05
5.45419e-05
5.4508e-05
5.51957e-05
5.27653e-05
5.28048e-05
5.31059e-05
5.30543e-05
5.45982e-05
5.50519e-05
5.277e-05
5.27825e-05
5.30906e-05
5.30184e-05
5.28111e-05
5.30494e-05
5.30501e-05
5.45152e-05
5.50336e-05
5.28155e-05
5.30186e-05
5.30476e-05
5.50394e-05
5.52474e-05
5.45485e-05
5.31626e-05
5.30921e-05
5.30294e-05
5.29764e-05
5.50874e-05
5.45108e-05
5.31517e-05
5.30972e-05
5.304e-05
5.3059e-05
5.30826e-05
5.29639e-05
5.29814e-05
5.51044e-05
5.47076e-05
5.30799e-05
5.30473e-05
5.29826e-05
5.45558e-05
5.44238e-05
5.426e-05
5.28445e-05
5.28498e-05
5.26433e-05
5.2738e-05
5.44474e-05
5.45026e-05
5.28648e-05
5.29355e-05
5.2642e-05
5.26272e-05
5.28534e-05
5.27519e-05
5.26941e-05
5.46092e-05
5.4178e-05
5.28551e-05
5.26379e-05
5.26847e-05
5.43375e-05
5.44066e-05
5.48403e-05
5.26593e-05
5.27517e-05
5.28632e-05
5.28495e-05
5.46198e-05
5.47462e-05
5.26527e-05
5.26296e-05
5.284e-05
5.28764e-05
5.27035e-05
5.28388e-05
5.28731e-05
5.4239e-05
5.50093e-05
5.2694e-05
5.28998e-05
5.28922e-05
5.48809e-05
5.48661e-05
5.49316e-05
5.29131e-05
5.28722e-05
5.30304e-05
5.29759e-05
5.47538e-05
5.48521e-05
5.2904e-05
5.29984e-05
5.30446e-05
5.30859e-05
5.29302e-05
5.29668e-05
5.30074e-05
5.51119e-05
5.48839e-05
5.29639e-05
5.30978e-05
5.30335e-05
5.48536e-05
5.50401e-05
5.5531e-05
5.31219e-05
5.30498e-05
5.33075e-05
5.32205e-05
5.49451e-05
5.53205e-05
5.31381e-05
5.30708e-05
5.3304e-05
5.3053e-05
5.30391e-05
5.32239e-05
5.316e-05
5.48587e-05
5.49539e-05
5.30486e-05
5.3e-05
5.31004e-05
5.52103e-05
5.54993e-05
5.2504e-05
5.32512e-05
5.31839e-05
5.19955e-05
5.22466e-05
5.5311e-05
5.30833e-05
5.32468e-05
5.30164e-05
5.2011e-05
5.23659e-05
5.3123e-05
5.22729e-05
5.2234e-05
5.49662e-05
5.34267e-05
5.30582e-05
5.23712e-05
5.22084e-05
5.2991e-05
5.2006e-05
5.17172e-05
5.13315e-05
5.16638e-05
5.08539e-05
5.10789e-05
5.26616e-05
5.20906e-05
5.13347e-05
5.1755e-05
5.08205e-05
5.09467e-05
5.15729e-05
5.10592e-05
5.08874e-05
5.29443e-05
5.17036e-05
5.15845e-05
5.10223e-05
5.09373e-05
5.15945e-05
5.25262e-05
5.91852e-05
5.11364e-05
5.12748e-05
5.448e-05
5.38564e-05
5.26563e-05
5.77446e-05
5.10893e-05
5.10967e-05
5.44402e-05
5.40587e-05
5.10904e-05
5.37993e-05
5.43899e-05
5.20262e-05
5.8807e-05
5.1137e-05
5.40275e-05
5.4398e-05
5.95152e-05
5.93685e-05
5.42647e-05
5.35508e-05
5.79045e-05
5.4274e-05
5.40502e-05
4.24816e-05
4.26839e-05
4.28203e-05
5.42983e-05
5.92699e-05
5.43135e-05
6.48475e-05
7.13668e-05
6.4756e-05
7.14019e-05
6.95416e-05
6.95677e-05
6.48515e-05
7.13728e-05
6.47603e-05
7.14077e-05
2.12005e-05
2.12039e-05
2.12045e-05
2.17692e-05
2.17691e-05
2.17727e-05
2.17725e-05
5.36053e-05
6.02703e-05
2.92598e-05
3.71289e-05
5.34132e-05
6.03817e-05
2.95052e-05
6.95396e-05
6.95658e-05
5.36056e-05
2.92637e-05
6.02723e-05
3.71318e-05
5.3414e-05
2.95092e-05
6.03828e-05
6.6933e-05
6.69445e-05
4.23213e-05
6.7009e-05
6.70205e-05
6.50814e-05
7.14548e-05
6.49803e-05
7.14934e-05
6.96041e-05
6.96329e-05
6.50854e-05
7.14607e-05
6.4984e-05
7.14994e-05
2.19611e-05
2.19647e-05
2.19648e-05
2.25476e-05
2.25472e-05
2.25506e-05
2.25514e-05
5.40717e-05
6.05552e-05
3.02374e-05
3.80267e-05
5.38771e-05
6.06846e-05
3.04818e-05
6.96023e-05
6.96316e-05
5.40717e-05
3.02412e-05
6.05553e-05
3.8029e-05
5.38772e-05
3.04856e-05
6.06862e-05
6.71344e-05
6.71457e-05
4.30406e-05
6.72162e-05
6.72277e-05
6.53113e-05
7.15455e-05
6.52159e-05
7.15813e-05
6.96643e-05
6.96896e-05
6.53156e-05
7.15514e-05
6.52202e-05
7.15872e-05
2.2745e-05
2.27485e-05
2.27492e-05
2.3344e-05
2.3343e-05
2.33467e-05
2.33473e-05
5.45265e-05
6.08534e-05
3.12157e-05
3.89098e-05
5.43416e-05
6.0966e-05
3.1459e-05
6.96625e-05
6.96873e-05
5.45269e-05
3.12195e-05
6.0856e-05
3.89125e-05
5.43422e-05
3.1463e-05
6.09673e-05
6.73211e-05
6.73327e-05
4.37472e-05
6.73936e-05
6.74053e-05
6.55112e-05
7.16245e-05
6.54303e-05
7.1658e-05
6.97187e-05
6.97457e-05
6.55147e-05
7.16303e-05
6.54338e-05
7.16638e-05
2.35437e-05
2.35474e-05
2.35481e-05
2.41456e-05
2.41459e-05
2.41494e-05
2.41501e-05
5.4949e-05
6.11126e-05
3.21838e-05
3.97532e-05
5.47783e-05
6.12129e-05
3.24227e-05
6.97165e-05
6.97447e-05
5.49485e-05
3.21876e-05
6.11116e-05
3.9755e-05
5.47781e-05
3.24263e-05
6.12135e-05
6.74671e-05
6.74784e-05
4.43966e-05
6.75141e-05
6.75254e-05
6.57249e-05
7.17145e-05
6.56289e-05
7.17569e-05
6.9784e-05
6.9815e-05
6.57295e-05
7.17205e-05
6.56333e-05
7.17629e-05
2.43467e-05
2.43504e-05
2.43508e-05
2.49552e-05
2.4955e-05
2.4959e-05
2.49587e-05
5.53556e-05
6.13612e-05
3.31286e-05
4.05663e-05
5.51852e-05
6.14757e-05
3.33618e-05
6.97827e-05
6.98131e-05
5.53563e-05
3.31322e-05
6.13646e-05
4.05691e-05
5.51857e-05
3.33656e-05
6.14782e-05
6.76174e-05
6.76291e-05
4.50388e-05
6.77099e-05
6.77217e-05
6.59317e-05
7.18067e-05
6.58498e-05
7.18403e-05
6.98491e-05
6.98775e-05
6.59353e-05
7.18125e-05
6.58536e-05
7.18461e-05
2.51595e-05
2.51635e-05
2.51635e-05
2.57737e-05
2.57723e-05
2.5776e-05
2.57778e-05
5.57607e-05
6.16267e-05
3.40602e-05
4.1363e-05
5.55963e-05
6.17275e-05
3.42909e-05
6.98471e-05
6.98761e-05
5.57603e-05
3.40641e-05
6.16264e-05
4.13652e-05
5.55963e-05
3.42946e-05
6.17281e-05
6.78145e-05
6.78258e-05
4.56745e-05
6.7868e-05
6.78794e-05
6.61194e-05
7.18896e-05
6.60394e-05
7.19264e-05
6.99115e-05
6.99388e-05
6.61233e-05
7.18953e-05
6.60432e-05
7.19321e-05
2.59764e-05
2.59801e-05
2.59816e-05
2.65873e-05
2.6588e-05
2.65918e-05
2.65919e-05
5.6134e-05
6.18638e-05
3.49724e-05
4.21245e-05
5.59821e-05
6.19559e-05
3.51962e-05
6.99097e-05
6.99367e-05
5.61341e-05
3.49759e-05
6.18655e-05
4.21266e-05
5.59822e-05
3.51997e-05
6.1957e-05
6.79356e-05
6.79472e-05
4.6257e-05
6.79905e-05
6.80022e-05
6.63045e-05
7.19772e-05
6.62246e-05
7.20167e-05
6.99754e-05
7.00084e-05
6.63081e-05
7.1983e-05
6.62281e-05
7.20225e-05
2.67905e-05
2.67944e-05
2.67943e-05
2.73957e-05
2.73952e-05
2.73988e-05
2.73996e-05
5.64906e-05
6.20796e-05
3.58553e-05
4.28504e-05
5.63424e-05
6.21772e-05
3.60705e-05
6.99734e-05
7.00073e-05
5.649e-05
3.58588e-05
6.20791e-05
4.2852e-05
5.63422e-05
3.60739e-05
6.21778e-05
6.80797e-05
6.8091e-05
4.68281e-05
6.81527e-05
6.81641e-05
6.64947e-05
7.20696e-05
6.64178e-05
7.21038e-05
7.00454e-05
7.00721e-05
6.64993e-05
7.20755e-05
6.64223e-05
7.21094e-05
2.75975e-05
2.7601e-05
2.76018e-05
2.82038e-05
2.82033e-05
2.82074e-05
2.82083e-05
5.68477e-05
6.2318e-05
3.67109e-05
4.35591e-05
5.67023e-05
6.24051e-05
3.69229e-05
7.00441e-05
7.00703e-05
5.68483e-05
3.6714e-05
6.23209e-05
4.35615e-05
5.67025e-05
3.69262e-05
6.2408e-05
6.82447e-05
6.82564e-05
4.73849e-05
6.82927e-05
6.83045e-05
6.6662e-05
7.21523e-05
6.6588e-05
7.21913e-05
7.0109e-05
7.01416e-05
6.66643e-05
7.21575e-05
6.65909e-05
7.21968e-05
2.84027e-05
2.84068e-05
2.84076e-05
2.89954e-05
2.89955e-05
2.89988e-05
2.89999e-05
5.7173e-05
6.25158e-05
3.75434e-05
4.42299e-05
5.70388e-05
6.26056e-05
3.77444e-05
7.01064e-05
7.01406e-05
5.71716e-05
3.75469e-05
6.2514e-05
4.42309e-05
5.70384e-05
3.77475e-05
6.26033e-05
6.83597e-05
6.83709e-05
4.79063e-05
6.8423e-05
6.84342e-05
6.68322e-05
7.2241e-05
6.67646e-05
7.22762e-05
7.01774e-05
7.02072e-05
6.68379e-05
7.22471e-05
6.67692e-05
7.22817e-05
2.91931e-05
2.91965e-05
2.9197e-05
2.97811e-05
2.97811e-05
2.97856e-05
2.97855e-05
5.74946e-05
6.27287e-05
3.83406e-05
4.48789e-05
5.73642e-05
6.28058e-05
3.85369e-05
7.01774e-05
7.02057e-05
5.74963e-05
3.83432e-05
6.27333e-05
4.48819e-05
5.73644e-05
3.854e-05
6.28125e-05
6.85011e-05
6.85129e-05
4.84106e-05
6.85472e-05
6.85594e-05
6.70079e-05
7.23328e-05
6.69275e-05
7.23718e-05
7.02491e-05
7.0279e-05
6.70093e-05
7.23378e-05
6.69305e-05
7.23774e-05
2.99737e-05
2.99782e-05
2.99781e-05
3.05479e-05
3.05472e-05
3.05501e-05
3.05522e-05
5.78033e-05
6.29212e-05
3.91087e-05
4.54959e-05
5.76721e-05
6.30135e-05
3.92946e-05
7.02451e-05
7.02766e-05
5.78011e-05
3.91124e-05
6.29184e-05
4.54963e-05
5.76725e-05
3.92978e-05
6.30069e-05
6.86432e-05
6.86535e-05
4.89051e-05
6.87186e-05
6.87295e-05
6.71336e-05
7.24055e-05
6.70938e-05
7.24321e-05
7.03049e-05
7.03331e-05
6.71396e-05
7.24118e-05
6.70977e-05
7.24377e-05
3.0738e-05
3.07408e-05
3.07431e-05
3.12985e-05
3.12991e-05
3.13034e-05
3.13042e-05
5.80855e-05
6.31085e-05
3.98487e-05
4.60851e-05
5.798e-05
6.31537e-05
4.00288e-05
7.03055e-05
7.03332e-05
5.80866e-05
3.98503e-05
6.31108e-05
4.60872e-05
5.79785e-05
4.00308e-05
6.31637e-05
6.87434e-05
6.87548e-05
4.93456e-05
6.87363e-05
6.87488e-05
6.73171e-05
7.25024e-05
6.72156e-05
7.25571e-05
7.03901e-05
7.04286e-05
6.73191e-05
7.25066e-05
6.72197e-05
7.25621e-05
3.14816e-05
3.14861e-05
3.14854e-05
3.20289e-05
3.2029e-05
3.20324e-05
3.20321e-05
5.83611e-05
6.32648e-05
4.05433e-05
4.66416e-05
5.8231e-05
6.33833e-05
4.07113e-05
7.0387e-05
7.04247e-05
5.83603e-05
4.05471e-05
6.32655e-05
4.66432e-05
5.82328e-05
4.07148e-05
6.33775e-05
6.8859e-05
6.88699e-05
4.98002e-05
6.90007e-05
6.90118e-05
6.74579e-05
7.25905e-05
6.74324e-05
7.2598e-05
7.04457e-05
7.04578e-05
6.74623e-05
7.25962e-05
6.74344e-05
7.26047e-05
3.22127e-05
3.22157e-05
3.22163e-05
3.27487e-05
3.27476e-05
3.27509e-05
3.27542e-05
5.86559e-05
6.34998e-05
4.12258e-05
4.71972e-05
5.85545e-05
6.35219e-05
4.13947e-05
7.04444e-05
7.04582e-05
5.86541e-05
4.12275e-05
6.34967e-05
4.7197e-05
5.85515e-05
4.13961e-05
6.35254e-05
6.90498e-05
6.90606e-05
5.02317e-05
6.89955e-05
6.9007e-05
6.75265e-05
7.2633e-05
6.7468e-05
7.26891e-05
7.04958e-05
7.05461e-05
6.75318e-05
7.26388e-05
6.74737e-05
7.26945e-05
3.29175e-05
3.29213e-05
3.29232e-05
3.34176e-05
3.34188e-05
3.34231e-05
3.34224e-05
5.88276e-05
6.35396e-05
4.18598e-05
4.76625e-05
5.87465e-05
6.36185e-05
4.20041e-05
7.04952e-05
7.05436e-05
5.88293e-05
4.18625e-05
6.35485e-05
4.76662e-05
5.8748e-05
4.20074e-05
6.36211e-05
6.89545e-05
6.89674e-05
5.05648e-05
6.9073e-05
6.90852e-05
6.77573e-05
7.27653e-05
6.76666e-05
7.28018e-05
7.06023e-05
7.06301e-05
6.77577e-05
7.27704e-05
6.7669e-05
7.28065e-05
3.35883e-05
3.35921e-05
3.35914e-05
3.40989e-05
3.40999e-05
3.41021e-05
3.41041e-05
5.91416e-05
6.37856e-05
4.2448e-05
4.81722e-05
5.90045e-05
6.38858e-05
4.26021e-05
7.05977e-05
7.06278e-05
5.91368e-05
4.24506e-05
6.37788e-05
4.81705e-05
5.90025e-05
4.26039e-05
6.38784e-05
6.92765e-05
6.9287e-05
5.10127e-05
6.9328e-05
6.93388e-05
6.78519e-05
7.28331e-05
6.78257e-05
7.28528e-05
7.06489e-05
7.06662e-05
6.7858e-05
7.28387e-05
6.78279e-05
7.28594e-05
3.42671e-05
3.42694e-05
3.42706e-05
3.47488e-05
3.47478e-05
3.47522e-05
3.47516e-05
5.93579e-05
6.39542e-05
4.30547e-05
4.86462e-05
5.92871e-05
6.39726e-05
4.31958e-05
7.06503e-05
7.06675e-05
5.93593e-05
4.30555e-05
6.39576e-05
4.86484e-05
5.92846e-05
4.31972e-05
6.39838e-05
6.93187e-05
6.93309e-05
5.13644e-05
6.9312e-05
6.93249e-05
6.79153e-05
7.28844e-05
6.78785e-05
7.29197e-05
7.06997e-05
7.07387e-05
6.79201e-05
7.28909e-05
6.78863e-05
7.29247e-05
3.49011e-05
3.49059e-05
3.49055e-05
3.53501e-05
3.5349e-05
3.53526e-05
3.5356e-05
5.95184e-05
6.40038e-05
4.3588e-05
4.90419e-05
5.94443e-05
6.40609e-05
4.37118e-05
7.06961e-05
7.07347e-05
5.95172e-05
4.35919e-05
6.401e-05
4.90447e-05
5.94468e-05
4.37155e-05
6.40561e-05
6.93465e-05
6.93587e-05
5.16703e-05
6.94003e-05
6.94118e-05
6.80787e-05
7.2982e-05
6.80052e-05
7.30196e-05
7.0788e-05
7.0814e-05
6.80781e-05
7.29857e-05
6.80043e-05
7.30246e-05
3.54979e-05
3.55007e-05
3.55039e-05
3.59396e-05
3.59432e-05
3.59451e-05
3.59456e-05
5.97484e-05
6.41791e-05
4.40842e-05
4.94565e-05
5.96491e-05
6.42529e-05
4.42103e-05
7.07853e-05
7.08134e-05
5.97439e-05
4.40852e-05
6.41709e-05
4.94544e-05
5.9644e-05
4.42106e-05
6.42518e-05
6.94942e-05
6.9504e-05
5.20037e-05
6.95373e-05
6.95483e-05
6.81562e-05
7.30504e-05
6.81366e-05
7.30717e-05
7.08355e-05
7.08595e-05
6.81651e-05
7.30578e-05
6.81425e-05
7.30787e-05
3.6088e-05
3.60903e-05
3.60895e-05
3.65061e-05
3.6505e-05
3.65084e-05
3.65086e-05
5.99194e-05
6.43017e-05
4.45785e-05
4.98394e-05
5.98598e-05
6.43212e-05
4.46936e-05
7.08351e-05
7.08573e-05
5.99202e-05
4.45795e-05
6.43072e-05
4.98409e-05
5.98592e-05
4.46953e-05
6.43256e-05
6.9553e-05
6.95653e-05
5.22955e-05
6.95634e-05
6.95766e-05
6.82491e-05
7.31158e-05
6.81966e-05
7.31548e-05
7.09008e-05
7.0935e-05
6.82471e-05
7.31191e-05
6.8199e-05
7.31582e-05
3.66401e-05
3.66436e-05
3.66442e-05
3.70377e-05
3.70371e-05
3.70405e-05
3.70432e-05
6.00785e-05
6.43782e-05
4.50214e-05
5.01823e-05
6.0004e-05
6.44414e-05
4.51277e-05
7.08983e-05
7.09351e-05
6.00756e-05
4.50237e-05
6.43764e-05
5.01829e-05
6.00035e-05
4.51296e-05
6.44388e-05
6.96266e-05
6.96376e-05
5.25795e-05
6.96888e-05
6.96984e-05
6.83581e-05
7.3198e-05
6.83232e-05
7.32154e-05
7.09679e-05
7.0986e-05
6.83695e-05
7.32054e-05
6.83277e-05
7.32235e-05
3.71669e-05
3.71706e-05
3.71725e-05
3.75462e-05
3.75474e-05
3.75515e-05
3.75503e-05
6.02562e-05
6.45244e-05
4.54429e-05
5.05231e-05
6.0189e-05
6.45604e-05
4.55457e-05
7.09695e-05
7.09852e-05
6.02568e-05
4.54443e-05
6.4529e-05
5.05264e-05
6.01862e-05
4.55475e-05
6.45704e-05
6.97401e-05
6.97511e-05
5.28392e-05
6.97339e-05
6.97468e-05
6.83724e-05
7.32321e-05
6.8364e-05
7.32632e-05
7.10079e-05
7.1041e-05
6.83721e-05
7.32374e-05
6.83707e-05
7.32651e-05
3.76698e-05
3.76736e-05
3.76712e-05
3.80156e-05
3.80171e-05
3.80184e-05
3.80203e-05
6.03502e-05
6.4568e-05
4.5837e-05
5.08124e-05
6.03157e-05
6.45801e-05
4.59255e-05
7.09997e-05
7.10329e-05
6.03489e-05
4.584e-05
6.45713e-05
5.0812e-05
6.03193e-05
4.59283e-05
6.45707e-05
6.96969e-05
6.97129e-05
5.30479e-05
6.97218e-05
6.97318e-05
6.85536e-05
7.335e-05
6.84586e-05
7.33917e-05
7.11051e-05
7.11403e-05
6.85548e-05
7.33535e-05
6.84494e-05
7.33986e-05
3.81313e-05
3.81314e-05
3.81355e-05
3.8484e-05
3.84824e-05
3.84832e-05
3.84882e-05
6.05368e-05
6.46822e-05
4.61846e-05
5.11077e-05
6.04394e-05
6.47821e-05
4.62759e-05
7.11065e-05
7.11463e-05
6.05253e-05
4.61825e-05
6.46605e-05
5.11014e-05
6.04263e-05
4.62723e-05
6.47815e-05
6.99233e-05
6.99264e-05
5.33379e-05
7.0007e-05
7.00177e-05
6.86027e-05
7.34055e-05
6.86081e-05
7.34034e-05
7.11534e-05
7.11578e-05
6.8616e-05
7.34142e-05
6.86219e-05
7.34109e-05
3.85979e-05
3.86011e-05
3.8603e-05
3.89138e-05
3.89161e-05
3.89232e-05
3.89194e-05
6.06832e-05
6.48557e-05
4.6555e-05
5.14084e-05
6.065e-05
6.48508e-05
4.66392e-05
7.11552e-05
7.11534e-05
6.06928e-05
4.65567e-05
6.48788e-05
5.14172e-05
6.06561e-05
4.66439e-05
6.48689e-05
7.00124e-05
7.0032e-05
5.35554e-05
6.99502e-05
6.99698e-05
6.85508e-05
7.34073e-05
6.8561e-05
7.3428e-05
7.11613e-05
7.11839e-05
6.85494e-05
7.34115e-05
6.85605e-05
7.34342e-05
3.90136e-05
3.90193e-05
3.90161e-05
3.92833e-05
3.92835e-05
3.92847e-05
3.92879e-05
6.06839e-05
6.47926e-05
4.68558e-05
5.15932e-05
6.06824e-05
6.47688e-05
4.69176e-05
7.11539e-05
7.11853e-05
6.06777e-05
4.68606e-05
6.47803e-05
5.15908e-05
6.06821e-05
4.69196e-05
6.47569e-05
6.98517e-05
6.98589e-05
5.36533e-05
6.98308e-05
6.98359e-05
6.86721e-05
7.34983e-05
6.85853e-05
7.35456e-05
7.12518e-05
7.12969e-05
6.86817e-05
7.3504e-05
6.85952e-05
7.35468e-05
3.937e-05
3.93715e-05
3.93746e-05
3.96445e-05
3.96422e-05
3.96451e-05
3.96456e-05
6.07911e-05
6.48143e-05
4.70916e-05
5.17831e-05
6.07127e-05
6.49348e-05
4.71538e-05
7.12547e-05
7.12883e-05
6.07936e-05
4.70904e-05
6.48274e-05
5.17854e-05
6.07078e-05
4.71539e-05
6.49446e-05
6.99672e-05
6.99795e-05
5.38432e-05
7.00941e-05
7.01086e-05
6.87401e-05
7.35637e-05
6.87455e-05
7.35642e-05
7.13098e-05
7.13153e-05
6.87337e-05
7.35657e-05
6.87365e-05
7.35721e-05
3.97392e-05
3.97409e-05
3.97413e-05
4.00029e-05
4.00086e-05
4.00072e-05
4.00098e-05
6.09369e-05
6.50242e-05
4.7374e-05
5.2036e-05
6.09103e-05
6.50072e-05
4.74451e-05
7.12992e-05
7.13143e-05
6.09279e-05
4.73748e-05
6.50049e-05
5.20282e-05
6.09066e-05
4.7444e-05
6.49879e-05
7.01269e-05
7.01379e-05
5.40364e-05
7.00543e-05
7.00627e-05
6.87775e-05
7.36169e-05
6.87254e-05
7.36621e-05
7.13547e-05
7.13947e-05
6.88062e-05
7.36309e-05
6.8738e-05
7.36678e-05
4.00875e-05
4.00876e-05
4.00895e-05
4.03157e-05
4.03121e-05
4.03192e-05
4.0319e-05
6.09689e-05
6.49785e-05
4.76136e-05
5.21916e-05
6.09389e-05
6.50582e-05
4.76608e-05
7.137e-05
7.13942e-05
6.09764e-05
4.76121e-05
6.49862e-05
5.21972e-05
6.09337e-05
4.76609e-05
6.50879e-05
7.00813e-05
7.00952e-05
5.41859e-05
7.02284e-05
7.02445e-05
6.87782e-05
7.36516e-05
6.88205e-05
7.36166e-05
7.13895e-05
7.13772e-05
6.87609e-05
7.36479e-05
6.88186e-05
7.36166e-05
4.03904e-05
4.03985e-05
4.03983e-05
4.05976e-05
4.06007e-05
4.0602e-05
4.06051e-05
6.10325e-05
6.51082e-05
4.78218e-05
5.2355e-05
6.10399e-05
6.50258e-05
4.78735e-05
7.13741e-05
7.13681e-05
6.10325e-05
4.7829e-05
6.51167e-05
5.2359e-05
6.10451e-05
4.78795e-05
6.50132e-05
7.02196e-05
7.02316e-05
5.4268e-05
6.99869e-05
6.99957e-05
6.87661e-05
7.36644e-05
6.86898e-05
7.37834e-05
7.14314e-05
7.15334e-05
6.88004e-05
7.36783e-05
6.86862e-05
7.37935e-05
4.06606e-05
4.06606e-05
4.06626e-05
4.08506e-05
4.08487e-05
4.08524e-05
4.08495e-05
6.09982e-05
6.49284e-05
4.79776e-05
5.24305e-05
6.09755e-05
6.50565e-05
4.80059e-05
7.14462e-05
7.15378e-05
6.09995e-05
4.79766e-05
6.49287e-05
5.24352e-05
6.09712e-05
4.8006e-05
6.50828e-05
6.99096e-05
6.9924e-05
5.43482e-05
7.02724e-05
7.02909e-05
6.9038e-05
7.38592e-05
6.90186e-05
7.38171e-05
7.1566e-05
7.15191e-05
6.90229e-05
7.3858e-05
6.90188e-05
7.38087e-05
4.09253e-05
4.0928e-05
4.09256e-05
4.11325e-05
4.11333e-05
4.11282e-05
4.11331e-05
6.12631e-05
6.53769e-05
4.81585e-05
5.26881e-05
6.12074e-05
6.53854e-05
4.82222e-05
7.15459e-05
7.14906e-05
6.12357e-05
4.81588e-05
6.5343e-05
5.26728e-05
6.11966e-05
4.82186e-05
6.53328e-05
7.06051e-05
7.06038e-05
5.46201e-05
7.05382e-05
7.05235e-05
6.85553e-05
7.36274e-05
6.87427e-05
7.36062e-05
7.13969e-05
7.14187e-05