/*--------------------------------*- C++ -*----------------------------------*\
| =========                 |                                                 |
| \\      /  F ield         | OpenFOAM: The Open Source CFD Toolbox           |
|  \\    /   O peration     | Version:  v2012                                 |
|   \\  /    A nd           | Website:  www.openfoam.com                      |
|    \\/     M anipulation  |                                                 |
\*---------------------------------------------------------------------------*/
FoamFile
{
    version     2.0;
    format      ascii;
    class       volScalarField;
    location    "875";
    object      nut;
}
// * * * * * * * * * * * * * * * * * * * * * * * * * * * * * * * * * * * * * //

dimensions      [0 2 -1 0 0 0 0];


internalField   nonuniform List<scalar> 
85864
(
0.000123763
0.00014016
0.000140164
0.000137718
0.000126541
0.000143231
0.00014323
0.000140113
0.000129536
0.000146383
0.000146387
0.000142604
0.000132691
0.000149427
0.000149423
0.000144867
0.000135858
0.00015236
0.000152364
0.00014705
0.000139214
0.000155346
0.000155347
0.000149394
0.000142627
0.000158238
0.000158237
0.000151512
0.000146076
0.000161016
0.000161012
0.000153557
0.000149563
0.000163789
0.00016379
0.000155658
0.000153129
0.000166477
0.000166474
0.000157634
0.000156643
0.000169101
0.000169102
0.000159529
0.00016021
0.000171655
0.000171655
0.000161468
0.000163749
0.000174155
0.000174144
0.000163239
0.000167203
0.000176478
0.000176488
0.000164894
0.000170737
0.000179002
0.000178982
0.000166873
0.000174134
0.000181004
0.000181017
0.000168029
0.000177372
0.000183242
0.000183227
0.00016984
0.000180882
0.000185625
0.000185614
0.000171587
0.000184139
0.000187421
0.000187444
0.000172734
0.000187151
0.000189357
0.000189327
0.000174157
0.000190289
0.000191341
0.000191336
0.00017551
0.000193314
0.000193031
0.000193028
0.000176725
0.000196174
0.000194797
0.000194804
0.000178
0.000199018
0.000196401
0.000196406
0.000178899
0.000201647
0.000197892
0.000197818
0.000180175
0.000204467
0.000199747
0.000199794
0.000181562
0.000206955
0.000200909
0.000200905
0.000181984
0.00020911
0.000201837
0.000201826
0.000182682
0.000211448
0.00020352
0.000203481
0.000183924
0.000213717
0.00020458
0.00020457
0.000184661
0.000215917
0.000205835
0.000205881
0.000185465
0.000217707
0.000206311
0.000206306
0.000185474
0.000219623
0.000208154
0.000208053
0.000187437
0.000221718
0.00020858
0.00020852
0.00018687
0.000222326
0.000208243
0.000208431
0.000186347
0.000224568
0.000210708
0.000210351
0.000189285
0.000226672
0.00021122
0.000211129
0.000188878
0.000226661
0.000210213
0.000210457
0.000187501
0.000227769
0.00021107
0.000210984
0.000188284
0.000230986
0.00021396
0.000214016
0.000192154
0.000231007
0.000212099
0.000212203
0.000187513
0.000229231
0.000210489
0.000209595
0.000186728
0.000232577
0.000213466
0.000216
0.000192244
0.000239414
0.000219999
0.000219034
0.000195269
0.000233594
0.000215082
0.000211093
0.000191957
0.00021804
0.000195416
0.000197468
0.000167471
0.000228267
0.000205393
0.000206575
0.000174896
0.000273057
0.000257579
0.000258308
0.000256581
0.00013772
0.000139688
0.000140144
0.000140142
0.000142438
0.000142437
0.000137724
0.000139703
0.000140149
0.000140143
0.000142442
0.000142434
0.000140153
0.000142455
0.000142449
0.000137725
0.000139695
0.000140158
0.000142454
0.000142454
0.000139705
0.000140096
0.000142204
0.000143214
0.000143213
0.000145588
0.00014558
0.000140115
0.000142183
0.000143219
0.00014321
0.000145593
0.00014558
0.000143228
0.000145598
0.000145597
0.000140107
0.000142187
0.000143233
0.000145602
0.000145602
0.000142193
0.000142618
0.000144495
0.000146377
0.000146365
0.000148679
0.000148663
0.000142592
0.000144496
0.000146383
0.000146366
0.000148685
0.000148657
0.000146381
0.00014868
0.000148684
0.000142594
0.000144482
0.000146386
0.000148677
0.00014869
0.000144511
0.000144842
0.000146673
0.000149417
0.00014941
0.000151586
0.000151607
0.000144855
0.00014671
0.000149424
0.000149403
0.000151591
0.000151604
0.000149431
0.000151626
0.00015161
0.000144842
0.000146712
0.000149437
0.000151627
0.000151616
0.000146683
0.000147053
0.000149037
0.000152324
0.000152341
0.000154608
0.000154584
0.000147078
0.000148992
0.00015233
0.000152341
0.000154615
0.000154583
0.000152339
0.000154601
0.000154599
0.00014708
0.000148989
0.000152345
0.000154604
0.000154606
0.000149021
0.0001494
0.000151166
0.00015536
0.00015533
0.000157508
0.000157508
0.000149358
0.000151193
0.000155368
0.000155327
0.000157515
0.000157503
0.000155355
0.000157526
0.000157531
0.000149354
0.000151188
0.000155363
0.000157525
0.000157538
0.000151193
0.000151488
0.000153236
0.000158206
0.000158219
0.000160305
0.000160312
0.000151522
0.000153242
0.000158213
0.000158214
0.000160312
0.000160306
0.000158231
0.00016033
0.000160311
0.000151517
0.000153231
0.000158238
0.000160328
0.000160319
0.00015323
0.000153566
0.000155334
0.000161
0.000160998
0.000163078
0.000163072
0.000153564
0.00015533
0.000161008
0.00016099
0.000163086
0.000163065
0.000161002
0.00016309
0.000163085
0.000153553
0.000155329
0.00016101
0.000163088
0.000163093
0.000155338
0.000155652
0.000157336
0.000163775
0.000163771
0.000165812
0.000165806
0.000155649
0.000157335
0.000163784
0.000163767
0.000165821
0.000165802
0.000163784
0.000165825
0.000165823
0.00015565
0.000157323
0.000163793
0.000165826
0.000165833
0.000157344
0.000157626
0.000159241
0.000166464
0.000166458
0.000168415
0.000168422
0.000157626
0.000159261
0.000166473
0.00016645
0.000168422
0.000168412
0.000166475
0.000168441
0.000168425
0.000157611
0.000159261
0.000166485
0.000168435
0.000168433
0.000159246
0.000159528
0.000161191
0.000169073
0.000169082
0.000171011
0.000171008
0.000159549
0.000161183
0.000169081
0.000169078
0.000171021
0.000171011
0.000169081
0.000171028
0.000171013
0.000159555
0.000161176
0.00016909
0.000171036
0.000171025
0.000161182
0.000161474
0.000162984
0.000171644
0.000171636
0.000173537
0.000173525
0.000161459
0.000162979
0.000171655
0.00017163
0.000173546
0.0001735
0.000171645
0.000173544
0.000173553
0.000161443
0.000162958
0.000171657
0.000173525
0.000173562
0.000163013
0.000163205
0.000164637
0.000174141
0.000174136
0.000175845
0.000175865
0.000163211
0.000164674
0.000174151
0.000174119
0.000175855
0.000175877
0.000174166
0.000175888
0.000175858
0.000163202
0.00016469
0.000174174
0.000175904
0.00017587
0.000164626
0.000164917
0.000166642
0.000176436
0.000176455
0.000178384
0.000178366
0.000164947
0.000166608
0.000176446
0.000176463
0.000178394
0.000178342
0.000176435
0.000178383
0.000178369
0.000164953
0.000166572
0.000176448
0.000178364
0.00017838
0.000166632
0.00016687
0.000167877
0.000179012
0.000178985
0.000180524
0.000180521
0.000166832
0.000167887
0.000179023
0.000178958
0.000180534
0.000180521
0.00017901
0.000180545
0.000180556
0.0001668
0.000167907
0.00017902
0.000180551
0.000180565
0.000167903
0.000168009
0.000169529
0.00018097
0.000180979
0.000182581
0.000182593
0.000168032
0.000169557
0.000180981
0.000180987
0.000182594
0.000182587
0.000180995
0.000182614
0.000182583
0.000168056
0.00016953
0.000181006
0.000182612
0.000182598
0.000169537
0.000169827
0.000171431
0.000183212
0.000183221
0.00018505
0.000185065
0.000169855
0.00017145
0.000183225
0.000183203
0.000185058
0.000185036
0.000183218
0.000185089
0.000185066
0.000169816
0.000171431
0.000183232
0.000185066
0.000185075
0.000171424
0.000171609
0.000172626
0.000185591
0.000185601
0.000187015
0.000186975
0.000171617
0.000172563
0.000185599
0.000185584
0.000187028
0.000186994
0.000185594
0.000186995
0.000186987
0.000171613
0.000172592
0.000185603
0.000187019
0.000187002
0.000172596
0.000172744
0.000173899
0.000187449
0.000187402
0.000188793
0.000188804
0.000172681
0.000173955
0.000187466
0.00018742
0.000188808
0.000188783
0.000187434
0.000188833
0.000188847
0.000172703
0.000173914
0.00018745
0.000188813
0.00018886
0.000173974
0.000174087
0.000175415
0.00018929
0.000189326
0.000190829
0.000190862
0.000174164
0.000175447
0.000189301
0.000189294
0.000190836
0.000190841
0.000189348
0.000190888
0.000190828
0.000174119
0.000175437
0.000189359
0.000190872
0.000190837
0.000175378
0.000175563
0.000176591
0.000191308
0.000191318
0.000192612
0.000192581
0.000175567
0.00017655
0.000191319
0.000191308
0.000192631
0.000192578
0.000191286
0.000192603
0.000192596
0.000175565
0.000176539
0.000191297
0.000192604
0.000192613
0.000176581
0.000176715
0.00017786
0.000193036
0.000193008
0.000194337
0.000194329
0.000176679
0.000177863
0.000193053
0.000192999
0.000194342
0.000194322
0.000193037
0.000194356
0.000194369
0.000176665
0.000177875
0.000193054
0.000194354
0.00019438
0.000177891
0.000177982
0.000178855
0.000194772
0.000194768
0.000195985
0.000196007
0.000177994
0.000178908
0.000194781
0.000194774
0.000196008
0.000196023
0.000194798
0.000196034
0.000195976
0.000178017
0.000178909
0.000194808
0.000196052
0.000195995
0.000178836
0.000178914
0.000179982
0.000196342
0.000196375
0.000197443
0.000197444
0.00017897
0.000179963
0.000196367
0.000196373
0.000197447
0.000197369
0.000196333
0.000197472
0.000197456
0.000178948
0.000179863
0.000196355
0.000197406
0.000197467
0.000179991
0.000180169
0.000181489
0.000197892
0.000197864
0.000199331
0.000199292
0.00018012
0.000181473
0.000197891
0.000197788
0.000199342
0.000199311
0.000197904
0.000199318
0.000199334
0.000180031
0.000181539
0.000197906
0.000199331
0.000199341
0.000181495
0.000181544
0.000182001
0.00019973
0.00019972
0.000200585
0.000200649
0.000181565
0.000182091
0.000199751
0.000199769
0.000200615
0.000200668
0.000199741
0.000200683
0.00020063
0.000181641
0.000182084
0.000199759
0.000200715
0.000200662
0.000182045
0.000181952
0.000182656
0.000200817
0.000200874
0.000201581
0.000201517
0.000182018
0.000182543
0.00020084
0.000200855
0.000201587
0.000201486
0.000200858
0.000201544
0.000201546
0.000181989
0.000182539
0.000200884
0.000201509
0.000201549
0.000182583
0.000182763
0.000183826
0.0002019
0.000201813
0.000203058
0.000203066
0.000182638
0.000183916
0.00020191
0.000201813
0.00020307
0.000203053
0.000201847
0.000203087
0.000203051
0.000182649
0.000183846
0.00020185
0.000203081
0.000203071
0.000183854
0.000183877
0.000184618
0.000203436
0.000203495
0.000204271
0.000204322
0.000183998
0.000184649
0.000203444
0.000203439
0.00020428
0.000204261
0.000203464
0.000204362
0.000204305
0.000183908
0.000184621
0.00020348
0.000204304
0.000204313
0.000184621
0.000184681
0.000185467
0.000204545
0.000204538
0.000205526
0.000205464
0.000184651
0.000185428
0.000204568
0.000204542
0.000205562
0.000205544
0.000204556
0.000205502
0.000205545
0.000184678
0.000185487
0.000204568
0.000205569
0.000205575
0.000185519
0.000185391
0.000185539
0.00020583
0.000205801
0.000206189
0.000206221
0.00018539
0.000185592
0.00020586
0.000205838
0.000206181
0.000206155
0.000205871
0.000206237
0.000206202
0.000185412
0.000185553
0.000205899
0.000206216
0.000206217
0.000185528
0.000185514
0.000187353
0.000206282
0.000206291
0.000207537
0.000207494
0.000185535
0.000187306
0.000206279
0.000206263
0.000207575
0.000207536
0.000206262
0.000207526
0.000207451
0.000185538
0.000187275
0.00020628
0.000207508
0.000207476
0.000187233
0.000187543
0.000187169
0.000208147
0.000208121
0.000208664
0.000208678
0.000187526
0.000187209
0.000208177
0.000208077
0.000208655
0.000208509
0.00020807
0.000208703
0.000208653
0.000187392
0.000186999
0.000208077
0.000208557
0.000208637
0.000187175
0.000186829
0.000185937
0.000208543
0.000208558
0.000208039
0.000208104
0.000186866
0.000186062
0.00020853
0.000208444
0.00020808
0.000208275
0.000208568
0.000208155
0.000208205
0.000186755
0.00018652
0.000208563
0.000208358
0.000208267
0.000186246
0.00018601
0.000189314
0.000208123
0.000208189
0.000209942
0.000209892
0.000186169
0.000189192
0.000208165
0.000208359
0.000209987
0.000209798
0.000208279
0.000209939
0.000209904
0.000186627
0.000188724
0.00020834
0.000209791
0.000209939
0.000189072
0.000189701
0.000189507
0.000210814
0.000210694
0.000211461
0.000211331
0.000189496
0.000189304
0.000210802
0.000210369
0.00021141
0.000211139
0.000210608
0.000211312
0.000211187
0.000188865
0.000189306
0.000210598
0.000211137
0.000211138
0.000189156
0.000189163
0.000187388
0.000211323
0.000211232
0.000210229
0.000210345
0.000188982
0.00018768
0.000211287
0.000211126
0.000210306
0.000210671
0.000211116
0.000210392
0.000210375
0.000189084
0.00018814
0.000211076
0.00021071
0.000210414
0.000187712
0.000187146
0.000187427
0.000209923
0.000210155
0.000210382
0.000210654
0.00018749
0.000188048
0.000210011
0.00021039
0.000210439
0.000210532
0.000210174
0.000210721
0.000210724
0.000187856
0.00018762
0.000210232
0.000210646
0.000210787
0.000188047
0.000187657
0.000193251
0.000210769
0.000210993
0.000214079
0.000213604
0.000188216
0.000192169
0.000210819
0.00021087
0.000213996
0.000213396
0.000211116
0.000213586
0.000213585
0.000187683
0.000192123
0.000211177
0.000213396
0.000213588
0.000192126
0.000193405
0.000188532
0.000214613
0.000214032
0.00021344
0.000213238
0.00019222
0.000188497
0.000214562
0.000214093
0.000213499
0.000213543
0.000213882
0.000213132
0.000212831
0.000192409
0.000189519
0.000213875
0.000213414
0.000212795
0.000188376
0.000187301
0.000185567
0.00021173
0.000212121
0.000209538
0.000210371
0.000187747
0.000187435
0.000211843
0.000212294
0.000209512
0.00020939
0.000211629
0.000210513
0.000210087
0.000188455
0.000184985
0.00021159
0.000209531
0.000210016
0.00018623
0.000186257
0.000191233
0.000209654
0.00021034
0.000212863
0.000211872
0.00018781
0.000189762
0.000209597
0.000209431
0.000212913
0.000213541
0.000210192
0.000211866
0.000213397
0.000185138
0.000192822
0.000210151
0.000213829
0.000213759
0.000191883
0.000191551
0.00019658
0.000214684
0.000213513
0.000219362
0.000218986
0.000189927
0.000196123
0.00021478
0.000215773
0.000219384
0.000219381
0.000214943
0.000218822
0.000218424
0.000193661
0.00019586
0.000215364
0.000219306
0.000218455
0.000195221
0.000197231
0.00019691
0.000220309
0.000220158
0.000218217
0.00021919
0.000196773
0.000197029
0.000220284
0.000219287
0.000217763
0.000214756
0.00021877
0.000219112
0.000216217
0.000195494
0.000191835
0.000218618
0.000214187
0.00021526
0.000193872
0.000194552
0.000167349
0.000214392
0.000215076
0.000198319
0.000199974
0.000194737
0.00017102
0.000214097
0.000211595
0.000198563
0.000201515
0.00021306
0.000200275
0.000200891
0.000189936
0.000173536
0.000212257
0.000201735
0.000200892
0.000171166
0.000163619
0.000170116
0.000193124
0.00019515
0.000198158
0.000198313
0.000167386
0.000171215
0.000193319
0.000196839
0.000198274
0.00020007
0.000195783
0.000198226
0.000199086
0.000170027
0.00017112
0.000196118
0.000200821
0.000199959
0.00017013
0.000177077
0.000249555
0.000205669
0.000205692
0.000255732
0.000250476
0.000176603
0.000237783
0.000205524
0.000206008
0.00025493
0.000249664
0.000205321
0.000249393
0.000252057
0.000174724
0.000244461
0.000206033
0.00024886
0.000251721
0.000249438
0.000256575
0.000264207
0.000258381
0.000244728
0.000263757
0.000259222
0.000269476
0.000268145
0.00026974
0.000261151
0.000253155
0.000260691
9.23741e-05
5.00224e-05
9.21728e-05
5.00346e-05
2.36134e-05
2.36178e-05
9.23769e-05
5.00193e-05
9.21869e-05
5.00315e-05
0.000123763
0.000123769
0.000123778
0.000125827
0.00012583
0.000125837
0.000125838
0.000122148
9.39796e-05
0.000135595
0.000140924
0.000121603
9.4235e-05
0.000136462
2.36113e-05
2.36157e-05
0.000122148
0.00013561
9.39849e-05
0.000140927
0.000121603
0.000136478
9.42357e-05
7.37907e-05
7.37902e-05
0.000138504
7.39178e-05
7.39169e-05
9.28672e-05
5.00531e-05
9.26378e-05
5.00667e-05
2.3624e-05
2.36289e-05
9.28701e-05
5.005e-05
9.26504e-05
5.00636e-05
0.00012654
0.000126548
0.000126551
0.00012877
0.000128769
0.000128775
0.000128785
0.000123474
9.45692e-05
0.000139058
0.000144016
0.0001229
9.4885e-05
0.000139938
2.36219e-05
2.36269e-05
0.000123473
0.000139072
9.45687e-05
0.000144016
0.000122898
0.000139951
9.48874e-05
7.41089e-05
7.41081e-05
0.000140935
7.42491e-05
7.42485e-05
9.33511e-05
5.00849e-05
9.3137e-05
5.00975e-05
2.36342e-05
2.36385e-05
9.33548e-05
5.00818e-05
9.31513e-05
5.00944e-05
0.000129535
0.000129542
0.000129551
0.000131893
0.000131885
0.000131893
0.000131901
0.000124788
9.52117e-05
0.00014262
0.000147158
0.000124241
9.54792e-05
0.000143517
2.36322e-05
2.36364e-05
0.000124789
0.000142633
9.5219e-05
0.000147161
0.000124242
0.000143531
9.54807e-05
7.43957e-05
7.43954e-05
0.000143395
7.45162e-05
7.45158e-05
9.37527e-05
5.01126e-05
9.35789e-05
5.01243e-05
2.36435e-05
2.3648e-05
9.37541e-05
5.01095e-05
9.35911e-05
5.01211e-05
0.000132682
0.000132689
0.000132699
0.000135064
0.000135071
0.000135076
0.000135085
0.000125997
9.57454e-05
0.000146207
0.000150165
0.000125498
9.5978e-05
0.000147093
2.36414e-05
2.36461e-05
0.000125994
0.000146219
9.57414e-05
0.000150161
0.000125495
0.000147104
9.59776e-05
7.45953e-05
7.45942e-05
0.000145589
7.46595e-05
7.46584e-05
9.41966e-05
5.0144e-05
9.3978e-05
5.01588e-05
2.36545e-05
2.36598e-05
9.42012e-05
5.01409e-05
9.39925e-05
5.01557e-05
0.000135871
0.000135877
0.000135882
0.000138352
0.000138353
0.000138363
0.00013836
0.000127171
9.62556e-05
0.000149705
0.000153102
0.000126657
9.65372e-05
0.000150577
2.36525e-05
2.36577e-05
0.000127173
0.000149717
9.62654e-05
0.000153107
0.000126658
0.00015059
9.65425e-05
7.48049e-05
7.48047e-05
0.000147837
7.49713e-05
7.49711e-05
9.46253e-05
5.01763e-05
9.44458e-05
5.01881e-05
2.36656e-05
2.36704e-05
9.46272e-05
5.01732e-05
9.44589e-05
5.01849e-05
0.000139205
0.000139215
0.000139217
0.000141778
0.000141766
0.000141773
0.000141793
0.000128379
9.68324e-05
0.000153243
0.000156082
0.000127877
9.70739e-05
0.000154132
2.36635e-05
2.36684e-05
0.000128377
0.000153256
9.68309e-05
0.000156081
0.000127876
0.000154143
9.70737e-05
7.51218e-05
7.51207e-05
0.00015015
7.52013e-05
7.52001e-05
9.50023e-05
5.02052e-05
9.48258e-05
5.02181e-05
2.36761e-05
2.36807e-05
9.50048e-05
5.02023e-05
9.48391e-05
5.02151e-05
0.000142623
0.00014263
0.000142647
0.000145209
0.00014522
0.000145227
0.000145227
0.000129474
9.73275e-05
0.000156758
0.000158943
0.000129015
9.75465e-05
0.000157625
2.36741e-05
2.36787e-05
0.000129475
0.000156768
9.73327e-05
0.000158943
0.000129014
0.000157635
9.75477e-05
7.52701e-05
7.52697e-05
0.000152202
7.53556e-05
7.5355e-05
9.53761e-05
5.02358e-05
9.51996e-05
5.02496e-05
2.36871e-05
2.36927e-05
9.53781e-05
5.02329e-05
9.52119e-05
5.02466e-05
0.000146083
0.00014609
0.000146091
0.000148678
0.000148677
0.000148681
0.00014869
0.000130532
9.77699e-05
0.000160186
0.000161701
0.000130074
9.80083e-05
0.000161023
2.36848e-05
2.36906e-05
0.00013053
0.000160195
9.77677e-05
0.000161697
0.000130072
0.000161032
9.80078e-05
7.5475e-05
7.5474e-05
0.000154284
7.55985e-05
7.55974e-05
9.57681e-05
5.0268e-05
9.55972e-05
5.028e-05
2.3699e-05
2.37035e-05
9.57728e-05
5.02652e-05
9.56124e-05
5.0277e-05
0.000149562
0.000149566
0.000149575
0.000152248
0.000152245
0.000152256
0.000152263
0.000131625
9.82899e-05
0.000163555
0.000164483
0.000131166
9.85001e-05
0.000164408
2.36968e-05
2.37013e-05
0.000131628
0.000163562
9.82986e-05
0.000164486
0.000131166
0.000164417
9.8507e-05
7.5723e-05
7.57228e-05
0.000156362
7.57947e-05
7.57944e-05
9.61003e-05
5.02969e-05
9.59364e-05
5.03104e-05
2.37097e-05
2.37152e-05
9.60986e-05
5.02937e-05
9.59472e-05
5.03074e-05
0.000153124
0.000153136
0.000153145
0.000155752
0.000155755
0.000155757
0.000155768
0.000132607
9.86962e-05
0.000166901
0.000167126
0.000132185
9.89175e-05
0.000167704
2.37073e-05
2.37131e-05
0.0001326
0.000166912
9.86901e-05
0.000167119
0.000132183
0.000167712
9.89081e-05
7.587e-05
7.58685e-05
0.000158298
7.59748e-05
7.59731e-05
9.64418e-05
5.03278e-05
9.6295e-05
5.034e-05
2.37213e-05
2.37263e-05
9.645e-05
5.0325e-05
9.63107e-05
5.0337e-05
0.00015665
0.000156652
0.000156659
0.000159331
0.000159334
0.000159348
0.000159346
0.000133601
9.91563e-05
0.000170129
0.000169754
0.000133185
9.93402e-05
0.000170941
2.37194e-05
2.37241e-05
0.00013361
0.000170131
9.91706e-05
0.000169762
0.000133184
0.000170947
9.93597e-05
7.6071e-05
7.6071e-05
0.000160207
7.61386e-05
7.61392e-05
9.68053e-05
5.03597e-05
9.6619e-05
5.03734e-05
2.37334e-05
2.37385e-05
9.6801e-05
5.03565e-05
9.66303e-05
5.03704e-05
0.00016021
0.000160224
0.000160224
0.000162854
0.000162848
0.000162845
0.000162865
0.000134567
9.95623e-05
0.000173299
0.000172285
0.000134134
9.97985e-05
0.000174069
2.37308e-05
2.37361e-05
0.000134559
0.000173312
9.95535e-05
0.000172273
0.000134133
0.000174078
9.97752e-05
7.62796e-05
7.62762e-05
0.000162138
7.64139e-05
7.64115e-05
9.70294e-05
5.03852e-05
9.69581e-05
5.03943e-05
2.37429e-05
2.37475e-05
9.70382e-05
5.03825e-05
9.69718e-05
5.03913e-05
0.000163743
0.000163739
0.000163764
0.00016636
0.000166368
0.00016638
0.000166388
0.00013544
9.99626e-05
0.000176421
0.000174744
0.000135114
0.000100053
0.00017719
2.3741e-05
2.37456e-05
0.000135448
0.000176416
9.99697e-05
0.000174746
0.000135104
0.000177189
0.000100083
7.63976e-05
7.63965e-05
0.000163795
7.6349e-05
7.63502e-05
9.74238e-05
5.04184e-05
9.71726e-05
5.04377e-05
2.37571e-05
2.37637e-05
9.74212e-05
5.04149e-05
9.71871e-05
5.04345e-05
0.000167216
0.000167232
0.000167226
0.000169824
0.000169826
0.00016983
0.000169822
0.000136312
0.000100273
0.000179347
0.000177095
0.000135859
0.000100598
0.00018006
2.37547e-05
2.37611e-05
0.000136311
0.000179361
0.000100275
0.000177095
0.000135864
0.000180073
0.000100578
7.65516e-05
7.65494e-05
0.000165627
7.68347e-05
7.68327e-05
9.76997e-05
5.04497e-05
9.76664e-05
5.04523e-05
2.37667e-05
2.37687e-05
9.77044e-05
5.04467e-05
9.76745e-05
5.04497e-05
0.000170728
0.000170728
0.000170734
0.000173341
0.000173331
0.000173332
0.000173365
0.000137301
0.000100842
0.000182366
0.000179569
0.00013697
0.000100864
0.000183136
2.37646e-05
2.37668e-05
0.000137296
0.000182363
0.000100832
0.000179555
0.000136953
0.000183132
0.000100874
7.68758e-05
7.68734e-05
0.000167381
7.67243e-05
7.67232e-05
9.77725e-05
5.04639e-05
9.76416e-05
5.04832e-05
2.37749e-05
2.37834e-05
9.77803e-05
5.0461e-05
9.766e-05
5.04801e-05
0.000174134
0.00017414
0.000174164
0.00017652
0.000176533
0.000176545
0.000176536
0.000137744
0.000100801
0.000185155
0.00018149
0.000137495
0.000101007
0.000185761
2.37729e-05
2.3781e-05
0.000137755
0.00018516
0.000100829
0.000181504
0.000137498
0.000185771
0.000101013
7.6567e-05
7.65693e-05
0.00016856
7.68005e-05
7.68007e-05
9.83208e-05
5.051e-05
9.80947e-05
5.05228e-05
2.3793e-05
2.37977e-05
9.83146e-05
5.05068e-05
9.81034e-05
5.05195e-05
0.000177381
0.00017739
0.000177383
0.000180015
0.000180028
0.00018002
0.000180036
0.000138884
0.000101425
0.000187749
0.000183881
0.00013836
0.000101702
0.000188491
2.37903e-05
2.37954e-05
0.000138866
0.000187756
0.000101403
0.000183857
0.000138348
0.00018849
0.000101676
7.71884e-05
7.71851e-05
0.000170585
7.72744e-05
7.72717e-05
9.84811e-05
5.05338e-05
9.84394e-05
5.05406e-05
2.38009e-05
2.38038e-05
9.84918e-05
5.05308e-05
9.84467e-05
5.05379e-05
0.000180897
0.000180889
0.000180902
0.000183359
0.000183348
0.000183362
0.000183353
0.000139591
0.000101812
0.000190695
0.000186114
0.000139367
0.000101832
0.000191365
2.37992e-05
2.38021e-05
0.000139602
0.000190685
0.000101822
0.000186117
0.000139353
0.00019136
0.000101866
7.71932e-05
7.71935e-05
0.000172034
7.71512e-05
7.7153e-05
9.85538e-05
5.05514e-05
9.8481e-05
5.05635e-05
2.38093e-05
2.38159e-05
9.85613e-05
5.05487e-05
9.85051e-05
5.05603e-05
0.000184115
0.000184135
0.000184131
0.000186394
0.000186381
0.000186388
0.00018642
0.000140059
0.000101828
0.000193168
0.000187863
0.000139809
0.000101973
0.000193735
2.38068e-05
2.38133e-05
0.00014006
0.000193187
0.000101849
0.000187874
0.000139819
0.000193752
0.000101957
7.71659e-05
7.71668e-05
0.000173243
7.72577e-05
7.72566e-05
9.89242e-05
5.05851e-05
9.8741e-05
5.05983e-05
2.38242e-05
2.38287e-05
9.89157e-05
5.05814e-05
9.87387e-05
5.0595e-05
0.000187159
0.000187156
0.00018719
0.0001895
0.00018954
0.000189527
0.00018953
0.000140887
0.000102253
0.000195519
0.000189886
0.000140504
0.000102455
0.000196153
2.38218e-05
2.38266e-05
0.00014087
0.000195511
0.000102226
0.000189855
0.000140478
0.000196139
0.000102449
7.74083e-05
7.74033e-05
0.000174713
7.74792e-05
7.74765e-05
9.90529e-05
5.06091e-05
9.90238e-05
5.06164e-05
2.38323e-05
2.38363e-05
9.90736e-05
5.06067e-05
9.90413e-05
5.06139e-05
0.000190318
0.00019031
0.000190302
0.000192576
0.000192561
0.00019257
0.000192567
0.000141461
0.00010252
0.000198023
0.000191768
0.000141253
0.000102554
0.000198604
2.38303e-05
2.3834e-05
0.00014147
0.000198016
0.000102538
0.000191769
0.000141248
0.000198604
0.000102567
7.74587e-05
7.74595e-05
0.00017597
7.74586e-05
7.74613e-05
9.92331e-05
5.06315e-05
9.91079e-05
5.0645e-05
2.38432e-05
2.38489e-05
9.9221e-05
5.06276e-05
9.91143e-05
5.06411e-05
0.000193295
0.000193303
0.00019331
0.000195466
0.000195461
0.000195464
0.000195491
0.00014201
0.000102654
0.000200267
0.000193468
0.000141721
0.000102827
0.000200813
2.38408e-05
2.3847e-05
0.000142001
0.000200274
0.000102648
0.000193461
0.000141718
0.000200817
0.000102817
7.75468e-05
7.75446e-05
0.000177249
7.76602e-05
7.76545e-05
9.9462e-05
5.06601e-05
9.93839e-05
5.06663e-05
2.38545e-05
2.38576e-05
9.94911e-05
5.06577e-05
9.93962e-05
5.06641e-05
0.000196174
0.000196181
0.000196203
0.000198317
0.000198326
0.000198344
0.000198324
0.000142659
0.000103007
0.000202461
0.000195227
0.000142394
0.000103099
0.000203015
2.38529e-05
2.38556e-05
0.000142667
0.000202459
0.000103022
0.000195243
0.00014238
0.000203017
0.000103131
7.77198e-05
7.77176e-05
0.000178407
7.76864e-05
7.76885e-05
9.94317e-05
5.06719e-05
9.94289e-05
5.06823e-05
2.38612e-05
2.38667e-05
9.94253e-05
5.06688e-05
9.94472e-05
5.0678e-05
0.000199033
0.000199046
0.000199018
0.000200988
0.000201004
0.000200979
0.000201001
0.000142963
0.000103058
0.000204617
0.000196748
0.000142835
0.000103076
0.0002051
2.38579e-05
2.38633e-05
0.00014296
0.000204631
0.000103069
0.000196731
0.000142853
0.000205109
0.000103044
7.75593e-05
7.75683e-05
0.000179322
7.75908e-05
7.75863e-05
9.98825e-05
5.07123e-05
9.9626e-05
5.07271e-05
2.38774e-05
2.38835e-05
9.98824e-05
5.07084e-05
9.95967e-05
5.07244e-05
0.000201652
0.000201615
0.000201664
0.000203762
0.000203745
0.000203729
0.000203775
0.000143699
0.000103329
0.000206508
0.000198356
0.000143277
0.00010363
0.000207031
2.38757e-05
2.38826e-05
0.000143647
0.000206471
0.000103258
0.000198296
0.000143213
0.000206984
0.000103626
7.79882e-05
7.79683e-05
0.00018081
7.81594e-05
7.81564e-05
9.99639e-05
5.07322e-05
9.99967e-05
5.07314e-05
2.38858e-05
2.38865e-05
9.9998e-05
5.07302e-05
0.000100036
5.07291e-05
0.000204456
0.000204467
0.000204482
0.000206375
0.000206399
0.000206448
0.000206407
0.000144283
0.000103808
0.000208712
0.000200113
0.000144147
0.000103777
0.000209226
2.38842e-05
2.38839e-05
0.000144333
0.000208721
0.000103883
0.000200176
0.000144181
0.000209261
0.000103834
7.81345e-05
7.81514e-05
0.000181874
7.79745e-05
7.79908e-05
9.97482e-05
5.07325e-05
9.97938e-05
5.07394e-05
2.3887e-05
2.38907e-05
9.974e-05
5.0729e-05
9.979e-05
5.07365e-05
0.000206987
0.000207018
0.000206989
0.000208587
0.000208585
0.000208552
0.000208588
0.000144202
0.000103528
0.000210517
0.000201111
0.000144212
0.000103438
0.000210875
2.38838e-05
2.38889e-05
0.000144174
0.000210546
0.000103488
0.000201075
0.000144211
0.000210875
0.000103399
7.77007e-05
7.76902e-05
0.00018221
7.76373e-05
7.76223e-05
0.000100061
5.07634e-05
9.98162e-05
5.07801e-05
2.39019e-05
2.39097e-05
0.000100084
5.07604e-05
9.98425e-05
5.07756e-05
0.000209085
0.00020906
0.000209096
0.000210815
0.000210784
0.000210803
0.000210794
0.000144653
0.000103542
0.000211866
0.0002022
0.000144286
0.000103923
0.000212245
2.39006e-05
2.39064e-05
0.000144667
0.000211836
0.000103585
0.00020221
0.000144263
0.000212232
0.000103952
7.79125e-05
7.79135e-05
0.000183215
7.81854e-05
7.81902e-05
0.000100212
5.07868e-05
0.000100242
5.07868e-05
2.3912e-05
2.39129e-05
0.000100189
5.07824e-05
0.000100213
5.07844e-05
0.000211452
0.000211454
0.000211447
0.000213201
0.000213274
0.000213221
0.000213251
0.000145301
0.000104166
0.000213745
0.000203874
0.000145176
0.0001041
0.00021425
2.39083e-05
2.39107e-05
0.000145262
0.000213748
0.000104103
0.000203805
0.000145161
0.00021423
0.000104037
7.8221e-05
7.82181e-05
0.000184288
7.80387e-05
7.80305e-05
0.00010027
5.08042e-05
0.000100128
5.08204e-05
2.39192e-05
2.39262e-05
0.000100351
5.08042e-05
0.000100162
5.08175e-05
0.000213768
0.000213735
0.000213763
0.000215319
0.000215277
0.000215319
0.000215324
0.000145417
0.000103959
0.000215362
0.000204841
0.000145269
0.000104209
0.000215673
2.39199e-05
2.39242e-05
0.000145456
0.000215335
0.000103985
0.000204872
0.000145246
0.000215664
0.000104305
7.80538e-05
7.80585e-05
0.000185101
7.83717e-05
7.83809e-05
0.000100261
5.08177e-05
0.000100384
5.08051e-05
2.39255e-05
2.39233e-05
0.000100205
5.08115e-05
0.000100377
5.08e-05
0.000215871
0.000215913
0.000215921
0.000217356
0.000217363
0.00021736
0.000217374
0.000145766
0.000104353
0.000216912
0.000206071
0.000145765
0.000104094
0.000217332
2.3921e-05
2.39198e-05
0.000145767
0.000216957
0.00010438
0.000206086
0.000145793
0.00021736
0.000104049
7.83328e-05
7.8333e-05
0.000185615
7.78033e-05
7.7796e-05
0.000100187
5.08197e-05
9.99771e-05
5.08611e-05
2.39318e-05
2.3949e-05
0.000100284
5.08194e-05
9.99632e-05
5.08597e-05
0.000217719
0.000217722
0.000217719
0.000218999
0.000218999
0.000219006
0.000218974
0.000145584
0.000103745
0.000218024
0.000206515
0.000145472
0.000104147
0.0002182
2.39323e-05
2.3948e-05
0.000145596
0.000218023
0.000103746
0.00020656
0.000145456
0.000218207
0.000104235
7.75945e-05
7.76e-05
0.000186004
7.83935e-05
7.84079e-05
0.000100971
5.08888e-05
0.000100913
5.08761e-05
2.39551e-05
2.39478e-05
0.000100922
5.08834e-05
0.000100911
5.0868e-05
0.000219623
0.000219586
0.000219582
0.000221347
0.000221359
0.000221252
0.000221319
0.000146906
0.000105167
0.000219463
0.000208576
0.000146591
0.000105201
0.00022004
2.39499e-05
2.3941e-05
0.00014677
0.00021943
0.000105054
0.000208408
0.000146531
0.000219969
0.000105025
7.91251e-05
7.90942e-05
0.000187821
7.89576e-05
7.88969e-05
9.95304e-05
5.08093e-05
0.000100079
5.08009e-05
2.39266e-05
2.39297e-05
9.96084e-05