/*--------------------------------*- C++ -*----------------------------------*\
| =========                 |                                                 |
| \\      /  F ield         | OpenFOAM: The Open Source CFD Toolbox           |
|  \\    /   O peration     | Version:  v2012                                 |
|   \\  /    A nd           | Website:  www.openfoam.com                      |
|    \\/     M anipulation  |                                                 |
\*---------------------------------------------------------------------------*/
FoamFile
{
    version     2.0;
    format      ascii;
    class       volScalarField;
    location    "875";
    object      p;
}
// * * * * * * * * * * * * * * * * * * * * * * * * * * * * * * * * * * * * * //

dimensions      [0 2 -2 0 0 0 0];


internalField   nonuniform List<scalar> 
85864
(
0.00167473
0.00167464
0.00167464
0.00167672
0.00163876
0.00163867
0.00163867
0.00164074
0.00160285
0.00160275
0.00160275
0.00160481
0.001567
0.0015669
0.0015669
0.00156894
0.00153123
0.00153112
0.00153112
0.00153318
0.00149551
0.00149539
0.00149539
0.00149743
0.00145983
0.00145971
0.0014597
0.00146174
0.00142421
0.00142409
0.00142409
0.00142612
0.00138862
0.0013885
0.00138849
0.00139052
0.00135307
0.00135295
0.00135295
0.00135497
0.00131757
0.00131744
0.00131743
0.00131946
0.00128208
0.00128195
0.00128195
0.00128398
0.0012466
0.00124647
0.00124648
0.00124848
0.0012112
0.00121109
0.00121108
0.00121311
0.00117572
0.0011756
0.0011756
0.0011776
0.00114033
0.00114022
0.00114022
0.00114223
0.00110498
0.00110488
0.00110488
0.00110688
0.00106954
0.00106942
0.00106943
0.00107143
0.00103414
0.00103405
0.00103404
0.00103605
0.000998778
0.00099868
0.000998682
0.00100068
0.000963359
0.000963256
0.000963256
0.000965265
0.000927968
0.000927882
0.000927883
0.000929889
0.000892538
0.000892449
0.000892451
0.000894447
0.000857114
0.000857024
0.000857015
0.000859034
0.000821753
0.000821677
0.000821688
0.000823688
0.000786206
0.00078613
0.000786124
0.000788135
0.000750675
0.000750584
0.000750585
0.000752597
0.000715249
0.0007152
0.000715194
0.000717212
0.000679708
0.000679625
0.000679628
0.000681635
0.000644172
0.000644113
0.000644122
0.000646149
0.000608477
0.000608395
0.000608388
0.00061039
0.000573042
0.000573001
0.000573006
0.000575032
0.000537276
0.000537222
0.000537195
0.000539248
0.000501335
0.000501245
0.000501305
0.000503267
0.000466067
0.000466065
0.000466007
0.000468103
0.000430258
0.000430179
0.000430172
0.000432184
0.000394166
0.00039411
0.000394183
0.000396187
0.000358345
0.000358347
0.000358261
0.000360347
0.000323052
0.000322982
0.000322976
0.00032504
0.00028658
0.000286483
0.00028662
0.000288576
0.000250331
0.000250446
0.000250193
0.00025238
0.000215231
0.000215124
0.000215369
0.000217349
0.0001792
0.000179029
0.000179042
0.000180949
0.000143062
0.000143074
0.000142744
0.000145085
0.000104708
0.000105035
0.000105537
0.000107487
6.90623e-05
6.87558e-05
6.84139e-05
7.0223e-05
4.06585e-05
3.958e-05
3.98644e-05
4.19623e-05
1.01009e-05
1.08445e-05
1.24073e-05
9.22988e-06
0.00167672
0.00164556
0.00167464
0.00167464
0.00164766
0.00164766
0.00167672
0.00164556
0.00167464
0.00167464
0.00164766
0.00164766
0.00167464
0.00164766
0.00164766
0.00167672
0.00164556
0.00167464
0.00164766
0.00164766
0.00164556
0.00164074
0.00160963
0.00163867
0.00163867
0.00161173
0.00161173
0.00164074
0.00160963
0.00163867
0.00163867
0.00161173
0.00161173
0.00163867
0.00161173
0.00161173
0.00164074
0.00160963
0.00163867
0.00161173
0.00161173
0.00160963
0.00160481
0.00157376
0.00160275
0.00160275
0.00157585
0.00157585
0.00160481
0.00157376
0.00160275
0.00160275
0.00157585
0.00157585
0.00160275
0.00157585
0.00157585
0.00160481
0.00157376
0.00160275
0.00157585
0.00157585
0.00157376
0.00156894
0.00153799
0.00156689
0.00156689
0.00154007
0.00154006
0.00156895
0.00153798
0.00156689
0.0015669
0.00154007
0.00154006
0.00156689
0.00154006
0.00154006
0.00156895
0.00153798
0.00156689
0.00154006
0.00154006
0.00153798
0.00153318
0.00150224
0.00153113
0.00153112
0.00150432
0.00150432
0.00153317
0.00150224
0.00153113
0.00153112
0.00150432
0.00150432
0.00153113
0.00150432
0.00150432
0.00153317
0.00150224
0.00153113
0.00150432
0.00150432
0.00150224
0.00149743
0.00146655
0.00149539
0.00149539
0.00146862
0.00146862
0.00149744
0.00146654
0.00149539
0.00149539
0.00146862
0.00146862
0.00149539
0.00146862
0.00146862
0.00149744
0.00146654
0.00149539
0.00146862
0.00146862
0.00146654
0.00146175
0.00143092
0.00145971
0.00145971
0.00143299
0.00143299
0.00146174
0.00143092
0.00145971
0.00145971
0.00143299
0.00143299
0.00145971
0.00143299
0.00143299
0.00146174
0.00143092
0.00145971
0.00143299
0.00143299
0.00143092
0.00142612
0.00139532
0.00142409
0.00142409
0.00139739
0.00139739
0.00142612
0.00139532
0.00142409
0.00142409
0.00139739
0.00139739
0.00142409
0.00139739
0.00139739
0.00142612
0.00139532
0.00142409
0.00139739
0.00139739
0.00139532
0.00139052
0.00135976
0.0013885
0.0013885
0.00136183
0.00136183
0.00139052
0.00135977
0.0013885
0.00138849
0.00136183
0.00136183
0.0013885
0.00136183
0.00136183
0.00139052
0.00135977
0.0013885
0.00136183
0.00136183
0.00135977
0.00135497
0.00132425
0.00135295
0.00135295
0.00132631
0.00132631
0.00135497
0.00132425
0.00135295
0.00135295
0.00132631
0.00132631
0.00135295
0.00132631
0.00132631
0.00135497
0.00132425
0.00135295
0.00132631
0.00132631
0.00132425
0.00131946
0.00128877
0.00131744
0.00131744
0.00129082
0.00129082
0.00131946
0.00128877
0.00131744
0.00131743
0.00129083
0.00129082
0.00131744
0.00129082
0.00129083
0.00131946
0.00128876
0.00131744
0.00129082
0.00129083
0.00128877
0.00128397
0.00125327
0.00128195
0.00128195
0.00125533
0.00125534
0.00128397
0.00125327
0.00128195
0.00128195
0.00125533
0.00125534
0.00128196
0.00125534
0.00125533
0.00128397
0.00125328
0.00128196
0.00125534
0.00125533
0.00125327
0.00124848
0.0012179
0.00124647
0.00124647
0.00121994
0.00121994
0.00124849
0.00121789
0.00124647
0.00124648
0.00121994
0.00121993
0.00124647
0.00121994
0.00121994
0.00124849
0.00121788
0.00124647
0.00121993
0.00121994
0.00121789
0.00121311
0.0011824
0.00121109
0.00121109
0.00118447
0.00118447
0.0012131
0.0011824
0.00121109
0.00121108
0.00118447
0.00118447
0.00121109
0.00118447
0.00118447
0.0012131
0.0011824
0.00121109
0.00118447
0.00118447
0.0011824
0.00117759
0.00114701
0.00117559
0.00117559
0.00114904
0.00114904
0.0011776
0.00114701
0.00117559
0.0011756
0.00114904
0.00114904
0.00117559
0.00114904
0.00114904
0.0011776
0.001147
0.00117559
0.00114904
0.00114904
0.001147
0.00114223
0.00111168
0.00114022
0.00114022
0.00111373
0.00111373
0.00114223
0.00111168
0.00114022
0.00114022
0.00111373
0.00111373
0.00114022
0.00111373
0.00111373
0.00114223
0.00111168
0.00114022
0.00111373
0.00111373
0.00111168
0.00110688
0.00107623
0.00110488
0.00110488
0.00107829
0.00107829
0.00110689
0.00107623
0.00110488
0.00110488
0.00107829
0.00107829
0.00110488
0.00107829
0.00107829
0.00110689
0.00107623
0.00110488
0.00107829
0.00107829
0.00107623
0.00107143
0.00104083
0.00106943
0.00106942
0.00104287
0.00104288
0.00107142
0.00104084
0.00106943
0.00106943
0.00104287
0.00104288
0.00106943
0.00104288
0.00104288
0.00107143
0.00104083
0.00106943
0.00104288
0.00104288
0.00104084
0.00103604
0.00100549
0.00103404
0.00103405
0.00100753
0.00100753
0.00103605
0.00100549
0.00103404
0.00103404
0.00100753
0.00100753
0.00103405
0.00100753
0.00100752
0.00103605
0.00100549
0.00103405
0.00100753
0.00100752
0.00100548
0.00100069
0.000970064
0.000998683
0.000998682
0.000972114
0.000972109
0.00100069
0.000970059
0.000998683
0.000998683
0.000972115
0.00097211
0.000998676
0.000972109
0.000972112
0.00100069
0.000970058
0.000998676
0.000972109
0.000972112
0.000970063
0.000965262
0.000934684
0.000963259
0.000963256
0.000936723
0.000936725
0.000965259
0.000934686
0.00096326
0.000963256
0.000936722
0.000936724
0.000963261
0.000936725
0.000936728
0.000965258
0.000934687
0.000963261
0.000936725
0.000936727
0.000934687
0.000929886
0.000899265
0.00092788
0.000927881
0.000901315
0.000901316
0.000929888
0.000899267
0.000927879
0.000927883
0.000901316
0.000901321
0.000927882
0.000901316
0.00090131
0.00092989
0.000899271
0.000927882
0.00090132
0.000901311
0.000899259
0.000894452
0.000863825
0.000892446
0.000892449
0.000865865
0.000865866
0.000894454
0.000863824
0.000892448
0.000892452
0.000865863
0.000865857
0.000892443
0.000865866
0.000865868
0.000894457
0.000863812
0.000892444
0.000865858
0.000865867
0.000863829
0.00085903
0.0008285
0.000857027
0.000857024
0.000830532
0.000830526
0.000859027
0.000828494
0.000857025
0.000857014
0.000830533
0.000830534
0.000857029
0.000830526
0.000830529
0.000859015
0.000828506
0.000857028
0.000830531
0.000830529
0.000828496
0.000823691
0.000792959
0.000821679
0.000821677
0.000795019
0.000795031
0.000823688
0.000792975
0.000821681
0.000821689
0.000795021
0.000795033
0.000821677
0.000795033
0.000795027
0.000823703
0.000792971
0.000821678
0.000795035
0.000795029
0.000792968
0.000788127
0.000757421
0.000786119
0.000786128
0.000759462
0.000759451
0.000788139
0.000757403
0.000786119
0.000786121
0.00075946
0.000759448
0.000786126
0.00075945
0.000759455
0.000788131
0.000757403
0.000786126
0.000759446
0.000759453
0.000757409
0.000752609
0.000722018
0.000750599
0.000750586
0.000724049
0.000724053
0.00075259
0.000722032
0.000750598
0.000750589
0.000724049
0.000724056
0.000750589
0.000724052
0.00072405
0.000752595
0.000722029
0.000750588
0.000724055
0.000724051
0.000722025
0.000717201
0.000686467
0.000715186
0.000715199
0.000688521
0.000688526
0.00071722
0.000686467
0.000715185
0.000715193
0.000688519
0.000688518
0.000715193
0.000688527
0.000688524
0.000717212
0.000686464
0.000715194
0.00068852
0.000688522
0.000686465
0.00068164
0.000650979
0.00067963
0.000679624
0.000653006
0.000652992
0.000681632
0.000650963
0.000679631
0.000679628
0.000653011
0.000653013
0.000679627
0.000652992
0.000653002
0.000681637
0.000650983
0.000679626
0.000653009
0.000653005
0.000650977
0.000646145
0.000615238
0.000644117
0.000644113
0.000617316
0.00061733
0.000646138
0.000615256
0.000644119
0.000644123
0.000617311
0.000617311
0.00064412
0.000617331
0.000617325
0.00064615
0.000615237
0.000644123
0.000617317
0.000617323
0.000615245
0.000610389
0.000579838
0.000608389
0.000608395
0.000581829
0.000581815
0.0006104
0.000579818
0.000608386
0.000608385
0.000581833
0.000581835
0.000608388
0.000581813
0.000581812
0.000610387
0.000579838
0.000608386
0.000581827
0.000581814
0.000579818
0.00057505
0.000544164
0.000573013
0.000573003
0.000546256
0.000546264
0.000575033
0.000544177
0.000573017
0.000573015
0.000546249
0.000546226
0.000572999
0.000546265
0.000546259
0.000575047
0.000544132
0.000573001
0.000546229
0.000546251
0.000544167
0.000539243
0.000508053
0.000537215
0.000537221
0.000510128
0.00051013
0.000539253
0.000508058
0.000537207
0.000537189
0.000510135
0.000510183
0.000537221
0.000510134
0.000510151
0.000539219
0.000508132
0.000537214
0.00051019
0.000510162
0.000508085
0.000503233
0.000472911
0.000501234
0.00050124
0.000474871
0.00047487
0.00050324
0.000472906
0.000501246
0.000501301
0.000474872
0.000474853
0.000501261
0.000474871
0.000474869
0.000503313
0.000472861
0.000501275
0.000474848
0.000474867
0.000472899
0.00046813
0.000437152
0.000466077
0.000466067
0.000439257
0.000439245
0.000468118
0.000437142
0.000466071
0.000466014
0.00043924
0.000439191
0.000466052
0.000439232
0.000439204
0.000468053
0.000437102
0.000466043
0.000439186
0.000439192
0.000437098
0.000432222
0.000401004
0.000430196
0.000430188
0.000403063
0.000403059
0.000432214
0.000400998
0.000430187
0.000430175
0.000403085
0.000403162
0.000430162
0.000403069
0.000403109
0.000432202
0.000401114
0.000430156
0.000403165
0.000403124
0.000401059
0.000396135
0.000365155
0.000394092
0.000394097
0.000367222
0.000367277
0.000396135
0.000365237
0.000394115
0.000394179
0.000367214
0.000367202
0.000394141
0.000367283
0.000367263
0.00039623
0.000365123
0.000394157
0.000367211
0.000367256
0.000365203
0.000360297
0.000329903
0.00035829
0.000358341
0.000331837
0.000331792
0.000360374
0.000329824
0.000358275
0.000358248
0.000331825
0.000331769
0.000358332
0.000331787
0.000331794
0.00036026
0.000329806
0.00035832
0.000331764
0.000331788
0.000329828
0.000325159
0.000293654
0.000323081
0.000322996
0.000295843
0.000295786
0.000325051
0.000293588
0.000323069
0.000322992
0.000295866
0.000295906
0.000322971
0.000295767
0.000295778
0.000325045
0.000293744
0.00032297
0.000295886
0.000295791
0.000293614
0.000288557
0.000257013
0.000286491
0.000286485
0.00025902
0.000259164
0.000288527
0.000257221
0.00028652
0.000286625
0.000259018
0.000259037
0.000286521
0.000259209
0.000259179
0.000288692
0.00025697
0.000286536
0.000259067
0.000259165
0.000257155
0.000252295
0.000222272
0.000250286
0.000250418
0.000224208
0.000224124
0.000252482
0.00022211
0.000250257
0.000250169
0.000224172
0.000224111
0.000250364
0.000224098
0.000224128
0.000252171
0.00022223
0.000250332
0.000224108
0.000224123
0.000222193
0.000217391
0.000185881
0.000215285
0.000215152
0.00018806
0.000188047
0.000217199
0.000185901
0.000215283
0.000215368
0.000188111
0.000188278
0.000215242
0.000188045
0.000188086
0.000217478
0.000186073
0.000215276
0.000188284
0.000188137
0.000185919
0.000180942
0.0001502
0.000178998
0.000179027
0.000152152
0.00015208
0.000180991
0.000150061
0.000179027
0.000179047
0.000152105
0.000151702
0.000178979
0.000152067
0.000151944
0.000181025
0.00014964
0.00017899
0.000151647
0.000151864
0.000149922
0.000145342
0.000112389
0.000143204
0.000143085
0.000114712
0.000114831
0.000145175
0.000112647
0.000143157
0.000142801
0.000114764
0.000115164
0.000143017
0.000114884
0.000115037
0.000144833
0.000113164
0.000142942
0.000115198
0.000115067
0.000112908
0.000106863
7.48943e-05
0.000104689
0.000104986
7.68049e-05
7.69605e-05
0.000107236
7.50503e-05
0.000104774
0.000105452
7.67525e-05
7.6705e-05
0.000105204
7.69434e-05
7.67324e-05
0.000107811
7.46051e-05
0.000105282
7.67901e-05
7.67767e-05
7.46864e-05
7.051e-05
4.59801e-05
6.87953e-05
6.88048e-05
4.73312e-05
4.69566e-05
7.05829e-05
4.54477e-05
6.87084e-05
6.8397e-05
4.72968e-05
4.68279e-05
6.85373e-05
4.69087e-05
4.70866e-05
7.00529e-05
4.54037e-05
6.85324e-05
4.67552e-05
4.70507e-05
4.58398e-05
4.17767e-05
1.27789e-05
4.00664e-05
3.95771e-05
1.69671e-05
1.63889e-05
4.12444e-05
1.2176e-05
4.0078e-05
3.99054e-05
1.72986e-05
1.81679e-05
4.0228e-05
1.65781e-05
1.78596e-05
4.15405e-05
1.42078e-05
4.02208e-05
1.83061e-05
1.81351e-05
1.38953e-05
8.52609e-06
1.12875e-05
1.07617e-05
8.04314e-06
1.14505e-05
1.23812e-05
9.89117e-06
1.07641e-05
1.03597e-05
1.19228e-05
9.75731e-06
1.20208e-05
0.00166326
0.00167672
0.00167673
0.00166325
0.00167672
0.00166325
0.00166326
0.00167672
0.00167673
0.00166325
0.00167473
0.00167473
0.00167473
0.00164775
0.00164775
0.00164775
0.00164775
0.00166337
0.00167671
0.00167471
0.00166564
0.00167672
0.00166331
0.0016657
0.00167672
0.00166325
0.00166337
0.00167471
0.00167671
0.00166564
0.00167672
0.0016657
0.0016633
0.00167673
0.00167673
0.00166354
0.00166325
0.00166325
0.00162732
0.00164075
0.00164076
0.0016273
0.00164074
0.0016273
0.00162732
0.00164075
0.00164076
0.0016273
0.00163876
0.00163876
0.00163876
0.00161183
0.00161183
0.00161183
0.00161183
0.00162742
0.00164073
0.00163873
0.00162969
0.00164075
0.00162736
0.00162975
0.00164074
0.0016273
0.00162742
0.00163873
0.00164074
0.00162969
0.00164075
0.00162975
0.00162736
0.00164076
0.00164076
0.00162759
0.0016273
0.0016273
0.00159142
0.00160484
0.00160485
0.00159141
0.00160484
0.00159142
0.00159142
0.00160484
0.00160484
0.00159141
0.00160285
0.00160285
0.00160285
0.00157595
0.00157596
0.00157596
0.00157596
0.00159153
0.00160482
0.00160281
0.00159378
0.00160483
0.00159146
0.00159384
0.00160484
0.00159142
0.00159153
0.00160281
0.00160482
0.00159378
0.00160483
0.00159384
0.00159146
0.00160485
0.00160485
0.00159168
0.00159142
0.00159142
0.0015556
0.00156899
0.00156899
0.00155559
0.00156899
0.00155559
0.0015556
0.00156899
0.00156899
0.00155559
0.001567
0.001567
0.001567
0.00154017
0.00154017
0.00154017
0.00154017
0.0015557
0.00156897
0.00156695
0.00155795
0.00156897
0.00155564
0.001558
0.00156899
0.00155559
0.0015557
0.00156696
0.00156897
0.00155795
0.00156897
0.001558
0.00155564
0.001569
0.001569
0.00155586
0.00155559
0.00155559
0.00151985
0.00153321
0.00153322
0.00151983
0.00153321
0.00151984
0.00151985
0.00153321
0.00153322
0.00151983
0.00153123
0.00153123
0.00153123
0.00150443
0.00150444
0.00150444
0.00150444
0.00151995
0.00153319
0.00153118
0.00152219
0.0015332
0.00151988
0.00152224
0.00153321
0.00151984
0.00151995
0.00153118
0.00153319
0.00152219
0.0015332
0.00152224
0.00151988
0.00153322
0.00153322
0.00152011
0.00151984
0.00151984
0.00148414
0.00149749
0.00149749
0.00148413
0.00149749
0.00148413
0.00148414
0.00149749
0.00149749
0.00148413
0.00149551
0.00149551
0.00149551
0.00146874
0.00146874
0.00146874
0.00146874
0.00148423
0.00149747
0.00149545
0.00148647
0.00149747
0.00148418
0.00148652
0.00149749
0.00148413
0.00148423
0.00149545
0.00149747
0.00148647
0.00149747
0.00148652
0.00148418
0.0014975
0.0014975
0.00148438
0.00148413
0.00148413
0.00144848
0.00146181
0.00146182
0.00144847
0.00146181
0.00144847
0.00144848
0.00146181
0.00146182
0.00144847
0.00145983
0.00145983
0.00145983
0.00143311
0.00143311
0.00143311
0.00143311
0.00144857
0.00146179
0.00145976
0.00145079
0.00146179
0.00144851
0.00145085
0.00146181
0.00144848
0.00144857
0.00145976
0.00146179
0.00145079
0.00146179
0.00145085
0.00144851
0.00146182
0.00146182
0.00144872
0.00144847
0.00144847
0.00141288
0.00142619
0.00142619
0.00141287
0.0014262
0.00141287
0.00141288
0.00142619
0.00142619
0.00141287
0.00142421
0.00142421
0.00142421
0.00139752
0.00139752
0.00139752
0.00139752
0.00141297
0.00142617
0.00142414
0.00141519
0.00142617
0.00141292
0.00141524
0.00142619
0.00141287
0.00141297
0.00142414
0.00142617
0.00141519
0.00142617
0.00141524
0.00141292
0.0014262
0.0014262
0.00141312
0.00141287
0.00141287
0.00137731
0.00139061
0.00139061
0.0013773
0.00139061
0.00137731
0.00137731
0.00139061
0.00139061
0.0013773
0.00138862
0.00138862
0.00138862
0.00136196
0.00136196
0.00136196
0.00136196
0.00137739
0.00139058
0.00138855
0.0013796
0.00139058
0.00137734
0.00137966
0.00139061
0.0013773
0.00137739
0.00138855
0.00139058
0.0013796
0.00139058
0.00137966
0.00137734
0.00139062
0.00139062
0.00137754
0.0013773
0.0013773
0.00134178
0.00135507
0.00135507
0.00134177
0.00135507
0.00134177
0.00134178
0.00135507
0.00135507
0.00134177
0.00135308
0.00135308
0.00135307
0.00132644
0.00132644
0.00132644
0.00132644
0.00134186
0.00135504
0.001353
0.00134407
0.00135504
0.00134181
0.00134412
0.00135507
0.00134177
0.00134186
0.001353
0.00135504
0.00134407
0.00135504
0.00134412
0.00134181
0.00135507
0.00135507
0.001342
0.00134177
0.00134177
0.00130628
0.00131956
0.00131956
0.00130628
0.00131956
0.00130628
0.00130628
0.00131956
0.00131956
0.00130628
0.00131757
0.00131757
0.00131757
0.00129095
0.00129095
0.00129095
0.00129095
0.00130636
0.00131953
0.00131748
0.00130856
0.00131952
0.00130631
0.00130861
0.00131956
0.00130628
0.00130636
0.00131748
0.00131953
0.00130856
0.00131952
0.00130861
0.00130631
0.00131956
0.00131956
0.00130651
0.00130627
0.00130627
0.00127081
0.00128408
0.00128408
0.0012708
0.00128408
0.00127081
0.00127081
0.00128408
0.00128408
0.0012708
0.00128208
0.00128208
0.00128208
0.00125546
0.00125546
0.00125546
0.00125546
0.00127089
0.00128406
0.001282
0.00127308
0.00128405
0.00127084
0.00127312
0.00128408
0.00127081
0.00127089
0.001282
0.00128405
0.00127308
0.00128405
0.00127313
0.00127084
0.00128409
0.00128409
0.00127102
0.00127081
0.00127081
0.00123536
0.00124862
0.00124861
0.00123536
0.00124862
0.00123536
0.00123536
0.00124862
0.00124861
0.00123536
0.0012466
0.0012466
0.0012466
0.00122005
0.00122005
0.00122005
0.00122005
0.00123542
0.00124858
0.00124652
0.00123762
0.00124856
0.00123539
0.00123766
0.00124862
0.00123536
0.00123542
0.00124652
0.00124858
0.00123762
0.00124857
0.00123766
0.00123538
0.00124861
0.00124861
0.00123557
0.00123534
0.00123534
0.00119996
0.00121321
0.00121321
0.00119995
0.0012132
0.00119995
0.00119996
0.00121321
0.00121321
0.00119995
0.0012112
0.0012112
0.0012112
0.00118459
0.00118459
0.0011846
0.0011846
0.00120004
0.00121318
0.00121112
0.00120222
0.00121318
0.00119999
0.00120226
0.0012132
0.00119995
0.00120004
0.00121112
0.00121318
0.00120222
0.00121318
0.00120226
0.00119999
0.00121321
0.00121321
0.00120017
0.00119995
0.00119995
0.0011645
0.00117776
0.00117776
0.0011645
0.00117777
0.00116451
0.0011645
0.00117776
0.00117776
0.0011645
0.00117572
0.00117572
0.00117572
0.00114916
0.00114916
0.00114916
0.00114916
0.00116455
0.00117772
0.00117564
0.00116673
0.00117771
0.00116452
0.00116678
0.00117777
0.00116451
0.00116455
0.00117565
0.00117772
0.00116673
0.00117771
0.00116678
0.00116452
0.00117777
0.00117777
0.00116466
0.00116449
0.00116449
0.00112914
0.00114236
0.00114236
0.00112913
0.00114236
0.00112912
0.00112914
0.00114236
0.00114236
0.00112913
0.00114033
0.00114033
0.00114033
0.00111383
0.00111383
0.00111383
0.00111383
0.00112921
0.00114233
0.00114025
0.0011314
0.00114231
0.00112917
0.00113143
0.00114236
0.00112912
0.00112921
0.00114025
0.00114233
0.00113139
0.00114231
0.00113142
0.00112916
0.00114235
0.00114235
0.00112936
0.00112912
0.00112912
0.00109376
0.001107
0.00110701
0.00109376
0.001107
0.00109377
0.00109376
0.001107
0.00110701
0.00109376
0.00110498
0.00110498
0.00110498
0.0010784
0.0010784
0.0010784
0.0010784
0.00109383
0.00110698
0.00110491
0.00109602
0.00110698
0.00109379
0.00109606
0.001107
0.00109377
0.00109383
0.00110491
0.00110698
0.00109602
0.00110697
0.00109606
0.00109379
0.00110701
0.00110701
0.00109395
0.00109376
0.00109376
0.00105835
0.00107161
0.0010716
0.00105835
0.00107161
0.00105836
0.00105835
0.00107161
0.0010716
0.00105835
0.00106954
0.00106954
0.00106954
0.00104298
0.00104298
0.00104298
0.00104299
0.0010584
0.00107156
0.00106946
0.00106057
0.00107154
0.00105837
0.00106061
0.00107161
0.00105836
0.0010584
0.00106947
0.00107156
0.00106057
0.00107154
0.00106061
0.00105837
0.00107161
0.00107161
0.00105852
0.00105834
0.00105834
0.00102297
0.00103621
0.0010362
0.00102297
0.00103621
0.00102297
0.00102297
0.00103621
0.0010362
0.00102297
0.00103414
0.00103414
0.00103414
0.00100762
0.00100763
0.00100762
0.00100762
0.00102304
0.00103617
0.00103408
0.00102521
0.00103615
0.001023
0.00102524
0.00103621
0.00102297
0.00102304
0.00103407
0.00103617
0.00102521
0.00103615
0.00102524
0.001023
0.0010362
0.0010362
0.00102317
0.00102296
0.00102296
0.000987594
0.00100084
0.00100084
0.000987591
0.00100084
0.000987596
0.000987594
0.00100084
0.00100084
0.000987591
0.000998777
0.000998778
0.000998773
0.000972214
0.000972209
0.00097221
0.000972211
0.000987651
0.0010008
0.000998713
0.000989824
0.00100079
0.000987614
0.000989859
0.00100084
0.000987595
0.000987653
0.000998714
0.00100081
0.000989827
0.00100079
0.000989861
0.000987615
0.00100084
0.00100084
0.000987771
0.000987584
0.000987584
0.000952191
0.000965443
0.000965432
0.000952195
0.000965447
0.000952198
0.00095219
0.000965443
0.000965433
0.000952195
0.000963356
0.000963356
0.000963359
0.000936814
0.000936816
0.000936815
0.000936818
0.000952243
0.000965397
0.000963293
0.000954409
0.000965375
0.000952213
0.000954444
0.000965446
0.000952198
0.000952243
0.000963293
0.000965397
0.000954408
0.000965376
0.000954443
0.000952212
0.000965437
0.000965437
0.000952373
0.000952181
0.000952181
0.000916806
0.000930054
0.000930046
0.000916805
0.00093005
0.000916805
0.000916808
0.000930054
0.000930047
0.000916805
0.000927969
0.00092797
0.00092797
0.000901403
0.000901404
0.000901407
0.0009014
0.000916865
0.000930016
0.00092791
0.000919032
0.000929998
0.000916831
0.000919061
0.00093005
0.000916806
0.000916865
0.00092791
0.000930016
0.000919035
0.000929997
0.000919062
0.000916832
0.000930049
0.000930049
0.000916987
0.000916798
0.000916798
0.000881372
0.000894642
0.000894635
0.000881375
0.000894645
0.000881381
0.000881372
0.000894642
0.000894637
0.000881375
0.000892539
0.000892541
0.000892535
0.000865958
0.000865959
0.000865953
0.000865959
0.00088142
0.000894601
0.000892481
0.000883582
0.00089458
0.000881392
0.000883616
0.000894648
0.000881382
0.000881422
0.000892483
0.000894605
0.00088358
0.000894583
0.000883616
0.000881393
0.000894642
0.000894643
0.000881526
0.000881366
0.000881367
0.000845972
0.000859218
0.000859202
0.000845976
0.000859217
0.000845974
0.000845969
0.000859216
0.000859199
0.000845976
0.000857114
0.000857107
0.000857116
0.000830605
0.0008306
0.000830604
0.000830603
0.000846026
0.000859167
0.000857055
0.000848192
0.000859143
0.000845995
0.000848219
0.000859215
0.000845971
0.000846018
0.000857049
0.000859161
0.000848185
0.000859139
0.000848213
0.000845988
0.000859201
0.0008592
0.000846172
0.000845953
0.000845952
0.000810576
0.000823834
0.000823838
0.00081057
0.000823827
0.000810573
0.000810579
0.000823834
0.000823841
0.000810571
0.00082175
0.000821758
0.000821752
0.000795106
0.000795113
0.000795116
0.000795111
0.00081064
0.000823808
0.0008217
0.000812811
0.000823798
0.000810602
0.000812835
0.000823825
0.000810575
0.000810649
0.000821705
0.000823813
0.000812823
0.000823802
0.000812844
0.00081061
0.000823833
0.000823834
0.000810759
0.000810568
0.000810569
0.000775042
0.000788359
0.000788343
0.000775054
0.000788367
0.000775066
0.000775038
0.000788358
0.000788342
0.000775052
0.000786213
0.000786211
0.000786211
0.000759542
0.000759536
0.000759532
0.000759537
0.000775079
0.000788315
0.000786162
0.000777228
0.000788282
0.000775063
0.000777262
0.000788368
0.000775067
0.000775073
0.000786161
0.000788314
0.000777217
0.000788283
0.000777257
0.000775054
0.000788366
0.000788367
0.00077517
0.00077505
0.000775049
0.000739538
0.000752826
0.000752807
0.000739548
0.000752825
0.000739546
0.000739543
0.000752826
0.000752807
0.00073955
0.000750666
0.000750666
0.000750668
0.000724111
0.000724112
0.000724114
0.000724111
0.000739575
0.000752763
0.000750613
0.000741732
0.000752731
0.000739554
0.000741756
0.000752826
0.000739548
0.000739579
0.000750611
0.000752763
0.000741739
0.000752727
0.000741758
0.000739561
0.00075281
0.000752809
0.000739708
0.00073952
0.00073952
0.00070409
0.000717361
0.000717366
0.000704077
0.00071735
0.000704079
0.000704083
0.000717362
0.000717365
0.000704076
0.000715257
0.000715254
0.000715253
0.000688598
0.000688604
0.000688599
0.000688602
0.000704162
0.000717342
0.000715213
0.000706326
0.000717326
0.000704119
0.000706344
0.000717354
0.00070408
0.000704157
0.000715212
0.000717341
0.000706315
0.000717329
0.000706339
0.00070411
0.00071736
0.000717361
0.000704271
0.000704078
0.000704077
0.00066854
0.000681853
0.000681836
0.000668557
0.000681855
0.00066856
0.000668546
0.000681851
0.000681835
0.000668559
0.000679707
0.000679708
0.000679707
0.000653065
0.000653053
0.000653066
0.00065306
0.000668573
0.000681798
0.000679658
0.000670736
0.000681774
0.000668554
0.000670766
0.000681856
0.000668562
0.000668577
0.000679659
0.000681796
0.000670748
0.00068177
0.000670772
0.000668561
0.000681844
0.000681843
0.000668702
0.000668529
0.000668529
0.000633
0.000646323
0.000646319
0.000632989
0.000646319
0.000632994
0.000632998
0.000646325
0.000646326
0.000632992
0.000644167
0.000644175
0.000644174
0.000617399
0.00061741
0.000617399
0.000617406
0.000633062
0.000646293
0.000644126
0.00063521
0.000646258
0.00063303
0.000635226
0.000646317
0.000633001
0.000633063
0.000644133
0.000646302
0.000635207
0.000646268
0.000635228
0.000633027
0.000646322
0.000646324
0.000633158
0.000633001
0.000633001
0.000597314
0.000610664
0.000610649
0.000597342
0.000610675
0.000597347
0.000597315
0.000610662
0.000610642
0.000597341
0.000608483
0.000608476
0.000608478
0.00058188
0.000581868
0.000581878
0.000581866
0.000597333
0.000610605
0.000608436
0.000599495
0.000610579
0.000597321
0.00059953
0.000610683
0.000597348
0.000597332
0.000608431
0.000610595
0.000599498
0.00061057
0.000599529
0.000597325
0.000610668
0.000610667
0.000597444
0.000597304
0.000597304
0.000561893
0.00057516
0.000575148
0.000561855
0.000575143
0.000561833
0.000561891
0.000575161
0.000575159
0.000561859
0.000573033
0.000573039
0.00057303
0.000546296
0.000546305
0.000546277
0.000546298
0.000561979
0.000575125
0.000572989
0.00056416
0.000575093
0.000561934
0.000564141
0.000575129
0.000561837
0.000561974
0.000572991
0.000575134
0.000564147
0.0005751
0.000564135
0.000561924
0.000575114
0.000575113
0.000562146
0.000561847
0.000561847
0.000526024
0.000539505
0.000539504
0.000526044
0.000539516
0.000526083
0.000526014
0.0005395
0.000539492
0.00052604
0.000537285
0.000537263
0.000537282
0.000510242
0.000510241
0.00051028
0.000510261
0.000526035
0.000539478
0.000537258
0.000528155
0.000539454
0.000526022
0.000528212
0.000539503
0.000526092
0.000526028
0.00053724
0.000539456
0.000528153
0.000539432
0.000528209
0.000526015
0.00053955
0.000539547
0.00052604
0.000526075
0.000526075
0.000490247
0.000503605
0.000503545
0.000490268
0.000503621
0.000490267
0.000490267
0.000503609
0.000503562
0.000490275
0.000501335
0.00050138
0.000501357
0.000474889
0.000474887
0.000474871
0.000474883
0.00049028
0.000503499
0.000501282
0.000492425
0.00050342
0.000490273
0.000492439
0.000503625
0.000490285
0.00049031
0.000501324
0.000503534
0.000492468
0.000503459
0.000492472
0.000490303
0.000503585
0.000503589
0.000490447
0.000490219
0.000490224
0.000454867
0.000468098
0.00046815
0.000454815
0.000468052
0.000454805
0.000454844
0.000468103
0.000468144
0.000454812
0.000466062
0.000466024
0.000466046
0.000439296
0.000439288
0.000439246
0.000439255
0.000454976
0.000468137
0.000466036
0.000457193
0.000468159
0.000454898
0.000457171
0.000468071
0.000454794
0.000454934
0.000466001
0.000468115
0.000457118
0.000468134
0.000457123
0.000454859
0.000468083
0.000468077
0.000455133
0.00045481
0.000454807
0.000418971
0.000432461
0.000432459
0.000418999
0.000432469
0.000419026
0.00041897
0.000432452
0.000432439
0.000418996
0.000430251
0.000430241
0.000430232
0.000403151
0.000403144
0.000403212
0.000403181
0.000418972
0.000432417
0.000430211
0.000421115
0.000432381
0.000418964
0.00042116
0.000432442
0.000419017
0.000418984
0.000430202
0.00043239
0.000421158