/*--------------------------------*- C++ -*----------------------------------*\
| =========                 |                                                 |
| \\      /  F ield         | OpenFOAM: The Open Source CFD Toolbox           |
|  \\    /   O peration     | Version:  v2012                                 |
|   \\  /    A nd           | Website:  www.openfoam.com                      |
|    \\/     M anipulation  |                                                 |
\*---------------------------------------------------------------------------*/
FoamFile
{
    version     2.0;
    format      ascii;
    class       surfaceScalarField;
    location    "875";
    object      phi;
}
// * * * * * * * * * * * * * * * * * * * * * * * * * * * * * * * * * * * * * //

dimensions      [0 3 -1 0 0 0 0];
oriented        oriented;


internalField   nonuniform List<scalar> 
248808
(
-2.17806e-07
-2.17689e-07
1.9124e-07
1.91569e-07
0.00119109
-1.24731e-06
2.17746e-07
7.07746e-08
0.00114033
-2.50752e-07
1.22058e-06
2.26021e-07
8.54466e-07
-2.43745e-07
-9.00017e-07
1.96883e-07
-1.24169e-06
2.17516e-07
7.0476e-08
0.00113996
-2.50641e-07
1.21508e-06
2.26156e-07
8.54307e-07
-2.46389e-07
-8.99892e-07
1.99562e-07
1.27672e-06
1.24227e-06
-2.35328e-07
-2.40611e-07
0.000269465
-1.94988e-07
-1.94921e-07
-0.00119122
1.78167e-07
1.78406e-07
0.00119125
-0.0011399
-1.24229e-06
1.94625e-07
6.22771e-08
0.00113976
-2.46363e-07
1.22157e-06
2.28035e-07
8.57012e-07
-2.38346e-07
-8.93855e-07
1.99836e-07
-0.00113953
-1.23691e-06
1.94773e-07
6.2751e-08
0.00113939
-2.46667e-07
1.2158e-06
2.27709e-07
8.5691e-07
-2.40919e-07
-8.9367e-07
2.02562e-07
-0.000271363
1.27131e-06
1.23686e-06
-2.31158e-07
-2.36436e-07
0.000269323
-1.71283e-07
-1.71139e-07
-0.00119132
1.63672e-07
1.63967e-07
0.00119134
-0.00113934
-1.23706e-06
1.70535e-07
5.19087e-08
0.0011392
-2.42179e-07
1.22305e-06
2.30253e-07
8.59286e-07
-2.33372e-07
-8.88128e-07
2.02436e-07
-0.00113897
-1.23127e-06
1.70172e-07
5.12614e-08
0.00113883
-2.41792e-07
1.21772e-06
2.30602e-07
8.59069e-07
-2.36091e-07
-8.88075e-07
2.05075e-07
-0.000271226
1.26618e-06
1.23176e-06
-2.27615e-07
-2.32882e-07
0.000269189
-1.44663e-07
-1.44422e-07
-0.00119136
1.45873e-07
1.46156e-07
0.00119135
-0.0011388
-1.23216e-06
1.45933e-07
4.27425e-08
0.00113867
-2.386e-07
1.22394e-06
2.31152e-07
8.62118e-07
-2.28062e-07
-8.82351e-07
2.05833e-07
-0.00113843
-1.22677e-06
1.45941e-07
4.31007e-08
0.0011383
-2.38851e-07
1.21823e-06
2.30961e-07
8.62034e-07
-2.30609e-07
-8.82123e-07
2.08564e-07
-0.000271103
1.26082e-06
1.22643e-06
-2.23814e-07
-2.29055e-07
0.000269068
-1.25951e-07
-1.25855e-07
-0.00119132
1.3385e-07
1.3395e-07
0.00119131
-0.00113828
-1.22842e-06
1.24492e-07
3.65103e-08
0.00113816
-2.35683e-07
1.22432e-06
2.32231e-07
8.64441e-07
-2.23193e-07
-8.76912e-07
2.08517e-07
-0.00113791
-1.22278e-06
1.24443e-07
3.63601e-08
0.00113779
-2.3553e-07
1.21884e-06
2.32351e-07
8.64239e-07
-2.2589e-07
-8.76846e-07
2.11166e-07
-0.000270986
1.25768e-06
1.22327e-06
-2.21523e-07
-2.26798e-07
0.000268953
-1.02884e-07
-1.02617e-07
-0.00119124
1.18117e-07
1.18335e-07
0.00119121
-0.00113779
-1.2241e-06
1.03199e-07
2.83934e-08
0.00113767
-2.32455e-07
1.22523e-06
2.33288e-07
8.66662e-07
-2.18765e-07
-8.71961e-07
2.11069e-07
-0.00113742
-1.21858e-06
1.03065e-07
2.83829e-08
0.0011373
-2.32482e-07
1.21965e-06
2.33285e-07
8.66508e-07
-2.21388e-07
-8.71808e-07
2.13745e-07
-0.000270875
1.25291e-06
1.21856e-06
-2.18234e-07
-2.23458e-07
0.000268845
-8.17777e-08
-8.15022e-08
-0.0011911
1.02438e-07
1.0266e-07
0.00119105
-0.00113731
-1.21997e-06
8.17398e-08
2.07728e-08
0.0011372
-2.28844e-07
1.22627e-06
2.35045e-07
8.68458e-07
-2.14957e-07
-8.67568e-07
2.1316e-07
-0.00113695
-1.21438e-06
8.1622e-08
2.05946e-08
0.00113683
-2.2875e-07
1.22078e-06
2.35165e-07
8.68275e-07
-2.17627e-07
-8.6747e-07
2.15816e-07
-0.000270776
1.24894e-06
1.21458e-06
-2.15565e-07
-2.20811e-07
0.000268749
-6.32654e-08
-6.3022e-08
-0.00119091
8.93103e-08
8.94039e-08
0.00119086
-0.00113687
-1.21711e-06
6.26557e-08
1.56669e-08
0.00113676
-2.27294e-07
1.22614e-06
2.34857e-07
8.70822e-07
-2.10401e-07
-8.62656e-07
2.15874e-07
-0.0011365
-1.21168e-06
6.26404e-08
1.59284e-08
0.00113639
-2.27462e-07
1.22046e-06
2.34672e-07
8.70719e-07
-2.12969e-07
-8.6247e-07
2.18618e-07
-0.000270684
1.24612e-06
1.21178e-06
-2.13588e-07
-2.18815e-07
0.000268659
-4.46258e-08
-4.44414e-08
-0.00119069
7.52087e-08
7.52752e-08
0.00119063
-0.00113644
-1.21326e-06
4.43138e-08
8.47201e-09
0.00113634
-2.23746e-07
1.2273e-06
2.36675e-07
8.72265e-07
-2.07329e-07
-8.59041e-07
2.17496e-07
-0.00113607
-1.20765e-06
4.43344e-08
8.32773e-09
0.00113597
-2.2357e-07
1.22187e-06
2.36923e-07
8.7198e-07
-2.101e-07
-8.59024e-07
2.20033e-07
-0.000270598
1.24226e-06
1.20791e-06
-2.1093e-07
-2.16178e-07
0.000268575
-2.63164e-08
-2.57926e-08
-0.00119043
6.04979e-08
6.07742e-08
0.00119036
-0.00113604
-1.21077e-06
2.63033e-08
4.5108e-09
0.00113594
-2.2241e-07
1.22713e-06
2.36523e-07
8.74083e-07
-2.03525e-07
-8.5488e-07
2.19589e-07
-0.00113567
-1.20526e-06
2.59747e-08
4.50111e-09
0.00113557
-2.22534e-07
1.22148e-06
2.36307e-07
8.74088e-07
-2.0596e-07
-8.54587e-07
2.22474e-07
-0.000270521
1.23955e-06
1.2053e-06
-2.09305e-07
-2.14475e-07
0.0002685
-9.57224e-09
-9.56533e-09
-0.00119014
4.77737e-08
4.76068e-08
0.00119007
-0.00113566
-1.20764e-06
9.3225e-09
-1.15862e-09
0.00113557
-2.19883e-07
1.22772e-06
2.37196e-07
8.75993e-07
-2.00214e-07
-8.51182e-07
2.21715e-07
-0.00113529
-1.20211e-06
9.73708e-09
-9.02311e-10
0.0011352
-2.19694e-07
1.22226e-06
2.37529e-07
8.75576e-07
-2.03129e-07
-8.5128e-07
2.24089e-07
-0.000270452
1.23653e-06
1.20214e-06
-2.06999e-07
-2.1229e-07
0.000268432
3.07396e-09
3.91029e-09
-0.00118983
3.61431e-08
3.66951e-08
0.00118975
-0.0011353
-1.20559e-06
-4.26381e-09
-5.13851e-09
0.00113522
-2.18339e-07
1.22777e-06
2.3792e-07
8.76386e-07
-1.98023e-07
-8.48584e-07
2.2222e-07
-0.00113493
-1.19988e-06
-5.19657e-09
-6.07762e-09
0.00113485
-2.18238e-07
1.22233e-06
2.37924e-07
8.76466e-07
-2.00387e-07
-8.48236e-07
2.252e-07
-0.000270386
1.23485e-06
1.20069e-06
-2.06407e-07
-2.11514e-07
0.000268368
2.48886e-08
2.48385e-08
-0.0011895
1.97144e-08
1.93744e-08
0.00118941
-0.00113497
-1.2016e-06
-2.3908e-08
-1.2442e-08
0.00113489
-2.14945e-07
1.22914e-06
2.38982e-07
8.7925e-07
-1.94299e-07
-8.44503e-07
2.25333e-07
-0.0011346
-1.19642e-06
-2.28537e-08
-1.10595e-08
0.00113452
-2.15262e-07
1.22335e-06
2.38838e-07
8.78873e-07
-1.97154e-07
-8.44532e-07
2.27697e-07
-0.000270332
1.22987e-06
1.19545e-06
-2.02328e-07
-2.0764e-07
0.000268317
2.91779e-08
2.98797e-08
-0.00118915
1.36417e-08
1.40224e-08
0.00118906
-0.00113465
-1.20241e-06
-3.06899e-08
-8.37713e-09
0.00113458
-2.16753e-07
1.2268e-06
2.37002e-07
8.79098e-07
-1.92206e-07
-8.42325e-07
2.25388e-07
-0.00113428
-1.19649e-06
-3.16734e-08
-9.94956e-09
0.00113421
-2.16287e-07
1.22163e-06
2.37385e-07
8.79014e-07
-1.94758e-07
-8.42127e-07
2.28194e-07
-0.000270279
1.23156e-06
1.19738e-06
-2.04235e-07
-2.09387e-07
0.000268264
4.83088e-08
4.85461e-08
-0.00118879
-1.3051e-09
-1.29135e-09
0.0011887
-0.00113436
-1.19639e-06
-4.83248e-08
-2.42573e-08
0.0011343
-2.10154e-07
1.23107e-06
2.42101e-07
8.79584e-07
-1.91666e-07
-8.40991e-07
2.25619e-07
-0.001134
-1.1912e-06
-4.79046e-08
-2.3095e-08
0.00113393
-2.10568e-07
1.22519e-06
2.41715e-07
8.79489e-07
-1.94209e-07
-8.40764e-07
2.28358e-07
-0.000270234
1.22542e-06
1.19115e-06
-1.99989e-07
-2.05187e-07
0.000268223
6.12183e-08
6.13499e-08
-0.00118841
-1.29442e-08
-1.32224e-08
0.00118831
-0.0011341
-1.19741e-06
-6.12313e-08
-1.873e-08
0.00113404
-2.13441e-07
1.22774e-06
2.37462e-07
8.83053e-07
-1.86168e-07
-8.35692e-07
2.2966e-07
-0.00113373
-1.1917e-06
-6.11845e-08
-1.93502e-08
0.00113367
-2.13051e-07
1.22248e-06
2.3798e-07
8.82664e-07
-1.8905e-07
-8.35789e-07
2.32113e-07
-0.000270202
1.22626e-06
1.19187e-06
-2.00454e-07
-2.05774e-07
0.000268191
6.32392e-08
6.42318e-08
-0.00118802
-1.60496e-08
-1.53076e-08
0.00118793
-0.00113384
-1.19549e-06
-6.31132e-08
-2.28071e-08
0.00113377
-2.10707e-07
1.22874e-06
2.39772e-07
8.81794e-07
-1.86441e-07
-8.35751e-07
2.28304e-07
-0.00113347
-1.18983e-06
-6.40778e-08
-2.35395e-08
0.00113341
-2.10636e-07
1.22323e-06
2.39673e-07
8.81896e-07
-1.8879e-07
-8.35354e-07
2.31312e-07
-0.00027016
1.22416e-06
1.1901e-06
-1.99158e-07
-2.04211e-07
0.000268149
7.84235e-08
7.82334e-08
-0.00118763
-2.80873e-08
-2.87004e-08
0.00118753
-0.0011336
-1.19206e-06
-8.03536e-08
-3.21334e-08
0.00113355
-2.07723e-07
1.23049e-06
2.41577e-07
8.82495e-07
-1.85478e-07
-8.34e-07
2.28713e-07
-0.00113323
-1.18688e-06
-7.90196e-08
-3.05374e-08
0.00113318
-2.07964e-07
1.22467e-06
2.41423e-07
8.82079e-07
-1.88344e-07
-8.34065e-07
2.31094e-07
-0.000270133
1.22108e-06
1.18658e-06
-1.97146e-07
-2.02554e-07
0.000268125
8.807e-08
8.83218e-08
-0.00118723
-3.78925e-08
-3.79356e-08
0.00118713
-0.0011334
-1.19208e-06
-8.73029e-08
-3.17751e-08
0.00113335
-2.09078e-07
1.22889e-06
2.39137e-07
8.8422e-07
-1.82391e-07
-8.31189e-07
2.30932e-07
-0.00113303
-1.18619e-06
-8.82227e-08
-3.32184e-08
0.00113298
-2.08634e-07
1.22366e-06
2.39471e-07
8.841e-07
-1.85064e-07
-8.31065e-07
2.33675e-07
-0.000270114
1.22121e-06
1.18706e-06
-1.97531e-07
-2.02685e-07
0.000268106
8.97961e-08
9.10166e-08
-0.00118683
-4.2103e-08
-4.13088e-08
0.00118674
-0.0011332
-1.19108e-06
-8.93213e-08
-3.2099e-08
0.00113315
-2.07381e-07
1.22911e-06
2.40599e-07
8.83254e-07
-1.82604e-07
-8.31133e-07
2.2982e-07
-0.00113283
-1.18573e-06
-8.91919e-08
-3.16724e-08
0.00113279
-2.07622e-07
1.22339e-06
2.40327e-07
8.83114e-07
-1.85162e-07
-8.30947e-07
2.32552e-07
-0.000270092
1.21929e-06
1.18513e-06
-1.96232e-07
-2.01374e-07
0.000268086
1.01109e-07
1.00535e-07
-0.00118644
-4.91417e-08
-4.97568e-08
0.00118634
-0.00113301
-1.18841e-06
-1.0276e-07
-4.02413e-08
0.00113297
-2.05336e-07
1.23034e-06
2.41408e-07
8.84758e-07
-1.80756e-07
-8.28914e-07
2.31282e-07
-0.00113265
-1.18277e-06
-1.02729e-07
-4.04666e-08
0.00113261
-2.05032e-07
1.22499e-06
2.41788e-07
8.84478e-07
-1.83514e-07
-8.28906e-07
2.33842e-07
-0.00027008
1.21762e-06
1.18322e-06
-1.94872e-07
-2.00221e-07
0.000268074
1.05058e-07
1.06292e-07
-0.00118603
-5.5837e-08
-5.54544e-08
0.00118593
-0.00113285
-1.18873e-06
-1.05314e-07
-3.91383e-08
0.00113282
-2.06219e-07
1.22911e-06
2.40159e-07
8.84878e-07
-1.79581e-07
-8.27834e-07
2.31596e-07
-0.00113249
-1.18329e-06
-1.05468e-07
-3.89952e-08
0.00113245
-2.06439e-07
1.22342e-06
2.39884e-07
8.84941e-07
-1.82007e-07
-8.27496e-07
2.34494e-07
-0.000270068
1.21784e-06
1.18368e-06
-1.9546e-07
-2.00599e-07
0.000268063
1.10239e-07
1.09252e-07
-0.00118563
-6.04134e-08
-6.14489e-08
0.00118554
-0.0011327
-1.18718e-06
-1.09602e-07
-4.23686e-08
0.00113267
-2.04221e-07
1.22998e-06
2.41768e-07
8.83992e-07
-1.80257e-07
-8.28068e-07
2.30379e-07
-0.00113234
-1.18204e-06
-1.08718e-07
-4.09818e-08
0.0011323
-2.04524e-07
1.22416e-06
2.41629e-07
8.83519e-07
-1.83166e-07
-8.28163e-07
2.327e-07
-0.000270061
1.21541e-06
1.181e-06
-1.9386e-07
-1.99196e-07
0.000268058
1.20538e-07
1.22528e-07
-0.00118523
-7.01043e-08
-6.85746e-08
0.00118513
-0.00113257
-1.18558e-06
-1.2093e-07
-4.62148e-08
0.00113254
-2.03494e-07
1.23008e-06
2.4095e-07
8.86978e-07
-1.76763e-07
-8.2471e-07
2.33759e-07
-0.00113221
-1.17896e-06
-1.22691e-07
-5.00603e-08
0.00113217
-2.02157e-07
1.22558e-06
2.42103e-07
8.86845e-07
-1.79593e-07
-8.24756e-07
2.36496e-07
-0.000270064
1.21475e-06
1.18075e-06
-1.93119e-07
-1.9821e-07
0.00026806
1.12984e-07
1.13508e-07
-0.00118482
-6.53828e-08
-6.50613e-08
0.00118473
-0.00113243
-1.18699e-06
-1.162e-07
-4.28497e-08
0.0011324
-2.04844e-07
1.22842e-06
2.39953e-07
8.85273e-07
-1.77162e-07
-8.2551e-07
2.32287e-07
-0.00113207
-1.18245e-06
-1.1592e-07
-3.95708e-08
0.00113204
-2.06049e-07
1.2219e-06
2.38785e-07
8.85511e-07
-1.7917e-07
-8.24819e-07
2.35425e-07
-0.000270053
1.21614e-06
1.18202e-06
-1.94458e-07
-1.99528e-07
0.000268048
1.24455e-07
1.22447e-07
-0.00118445
-7.46834e-08
-7.72316e-08
0.00118435
-0.00113232
-1.18512e-06
-1.1977e-07
-4.78521e-08
0.0011323
-2.02876e-07
1.2299e-06
2.41731e-07
8.83289e-07
-1.80081e-07
-8.27206e-07
2.29252e-07
-0.00113195
-1.17904e-06
-1.18254e-07
-4.89386e-08
0.00113193
-2.01682e-07
1.22512e-06
2.43078e-07
8.82259e-07
-1.83702e-07
-8.27982e-07
2.31021e-07
-0.000270056
1.21355e-06
1.17863e-06
-1.92838e-07
-1.98697e-07
0.000268056
1.29107e-07
1.31369e-07
-0.00118406
-8.15416e-08
-7.97454e-08
0.00118396
-0.00113225
-1.18305e-06
-1.33176e-07
-5.46419e-08
0.00113223
-2.00955e-07
1.23087e-06
2.42429e-07
8.86064e-07
-1.77148e-07
-8.246e-07
2.32671e-07
-0.00113188
-1.17792e-06
-1.34611e-07
-5.41562e-08
0.00113186
-2.01962e-07
1.22459e-06
2.40962e-07
8.86707e-07
-1.79e-07
-8.23714e-07
2.36165e-07
-0.000270076
1.21239e-06
1.17879e-06
-1.92637e-07
-1.97295e-07
0.000268075
1.22369e-07
1.22045e-07
-0.00118367
-7.59048e-08
-7.64309e-08
0.00118358
-0.00113216
-1.18701e-06
-1.2302e-07
-4.20443e-08
0.00113213
-2.05763e-07
1.22677e-06
2.38198e-07
8.85461e-07
-1.75706e-07
-8.23948e-07
2.32495e-07
-0.0011318
-1.18119e-06
-1.22143e-07
-4.28528e-08
0.00113177
-2.04885e-07
1.22187e-06
2.39346e-07
8.84569e-07
-1.79255e-07
-8.24595e-07
2.34338e-07
-0.000270079
1.21542e-06
1.18085e-06
-1.93916e-07
-1.99487e-07
0.000268076
1.32624e-07
1.35417e-07
-0.0011833
-8.64007e-08
-8.39731e-08
0.0011832
-0.00113206
-1.182e-06
-1.29942e-07
-5.53629e-08
0.00113204
-1.99337e-07
1.23133e-06
2.43596e-07
8.85159e-07
-1.77702e-07
-8.24934e-07
2.31433e-07
-0.0011317
-1.17588e-06
-1.3233e-07
-5.76441e-08
0.00113168
-1.99183e-07
1.22607e-06
2.43365e-07
8.8594e-07
-1.79326e-07
-8.23944e-07
2.352e-07
-0.000270086
1.2104e-06
1.17665e-06
-1.90849e-07
-1.95645e-07
0.000268085
1.25192e-07
1.20737e-07
-0.00118291
-7.71056e-08
-8.17117e-08
0.00118282
-0.00113198
-1.18659e-06
-1.28134e-07
-4.57533e-08
0.00113197
-2.06388e-07
1.22605e-06
2.36821e-07
8.84435e-07
-1.76389e-07
-8.24267e-07
2.31089e-07
-0.00113162
-1.18261e-06
-1.24812e-07
-4.02832e-08
0.00113161
-2.07401e-07
1.21946e-06
2.36149e-07
8.83561e-07
-1.79792e-07
-8.24709e-07
2.3286e-07
-0.000270096
1.2169e-06
1.18181e-06
-1.95619e-07
-2.01524e-07
0.000268094
1.38666e-07
1.43623e-07
-0.00118257
-9.46026e-08
-9.15709e-08
0.00118247
-0.00113195
-1.1797e-06
-1.36204e-07
-6.35674e-08
0.00113194
-1.95663e-07
1.23355e-06
2.47255e-07
8.83579e-07
-1.80175e-07
-8.26808e-07
2.29318e-07
-0.00113158
-1.17226e-06
-1.37816e-07
-6.8921e-08
0.00113157
-1.94189e-07
1.2295e-06
2.48192e-07
8.83764e-07
-1.82565e-07
-8.26527e-07
2.32533e-07
-0.000270119
1.20757e-06
1.17388e-06
-1.89566e-07
-1.94336e-07
0.000268121
1.30069e-07
1.26548e-07
-0.00118216
-8.19693e-08
-8.4025e-08
0.00118207
-0.00113188
-1.18841e-06
-1.33898e-07
-3.66627e-08
0.00113185
-2.11035e-07
1.22233e-06
2.30531e-07
8.89769e-07
-1.69053e-07
-8.18357e-07
2.38013e-07
-0.00113151
-1.18524e-06
-1.31141e-07
-3.08963e-08
0.00113149
-2.12733e-07
1.21496e-06
2.29628e-07
8.88705e-07
-1.72661e-07
-8.18948e-07
2.3934e-07
-0.000270134
1.21751e-06
1.18267e-06
-1.95068e-07
-2.00898e-07
0.00026813
1.03573e-07
1.09439e-07
-0.00118186
-7.473e-08
-6.96877e-08
0.00118179
-0.00113181
-1.18723e-06
-1.04822e-07
-4.66894e-08
0.00113182
-2.02753e-07
1.22776e-06
2.43833e-07
8.72854e-07
-1.89429e-07
-8.35835e-07
2.17392e-07
-0.00113146
-1.17807e-06
-1.14107e-07
-5.88747e-08
0.00113146
-1.98209e-07
1.22572e-06
2.47154e-07
8.74577e-07
-1.90828e-07
-8.34405e-07
2.22104e-07
-0.000270132
1.21459e-06
1.18217e-06
-1.98189e-07
-2.0188e-07
0.000268135
1.69709e-07
1.64353e-07
-0.00118153
-1.10554e-07
-1.16731e-07
0.00118142
-0.00113185
-1.1747e-06
-1.63891e-07
-8.01692e-08
0.00113185
-1.93625e-07
1.23588e-06
2.46484e-07
8.89946e-07
-1.7448e-07
-8.20869e-07
2.3584e-07
-0.00113148
-1.17337e-06
-1.50859e-07
-6.30734e-08
0.00113147
-1.98781e-07
1.22594e-06
2.41256e-07
8.88317e-07
-1.77487e-07
-8.2162e-07
2.37376e-07
-0.000270195
1.2063e-06
1.16934e-06
-1.86044e-07
-1.93401e-07
0.000268198
1.18244e-07
1.14826e-07
-0.00118113
-7.65387e-08
-8.00493e-08
0.00118105
-0.0011318
-1.19196e-06
-1.15139e-07
-2.81782e-08
0.00113176
-2.12038e-07
1.21985e-06
2.30728e-07
8.86756e-07
-1.71117e-07
-8.21711e-07
2.35493e-07
-0.00113141
-1.18465e-06
-1.18241e-07
-3.58684e-08
0.00113139
-2.08893e-07
1.21661e-06
2.34163e-07
8.85178e-07
-1.76333e-07
-8.23191e-07
2.36065e-07
-0.000270198
1.2213e-06
1.18749e-06
-1.98339e-07
-2.03315e-07
0.000268191
9.46574e-08
1.12728e-07
-0.00118084
-7.2642e-08
-5.61862e-08
0.00118076
-0.00113168
-1.18716e-06
-1.14846e-07
-4.11704e-08
0.00113168
-2.02937e-07
1.22673e-06
2.42031e-07
8.76972e-07
-1.85554e-07
-8.32058e-07
2.21561e-07
-0.00113134
-1.17786e-06
-1.2636e-07
-5.5101e-08
0.00113134
-1.99942e-07
1.22386e-06
2.42794e-07
8.80138e-07
-1.84705e-07
-8.29166e-07
2.2856e-07
-0.000270182
1.21017e-06
1.17908e-06
-1.94759e-07
-1.97487e-07
0.000268185
1.5163e-07
1.3227e-07
-0.0011805
-9.33735e-08
-1.10696e-07
0.00118042
-0.00113171
-1.18073e-06
-1.41114e-07
-6.90765e-08
0.00113173
-2.01361e-07
1.2305e-06
2.39832e-07
8.82537e-07
-1.80747e-07
-8.2746e-07
2.28198e-07
-0.00113135
-1.18315e-06
-1.20801e-07
-3.63054e-08
0.00113135
-2.09574e-07
1.21715e-06
2.32051e-07
8.79898e-07
-1.85048e-07
-8.28997e-07
2.28001e-07
-0.000270239
1.21578e-06
1.17729e-06
-1.94118e-07
-2.02603e-07
0.000268242
1.41212e-07
1.43007e-07
-0.00118022
-1.03636e-07
-1.04254e-07
0.00118015
-0.00113177
-1.18374e-06
-1.21235e-07
-5.72234e-08
0.00113176
-1.99839e-07
1.22991e-06
2.44755e-07
8.80146e-07
-1.82483e-07
-8.30385e-07
2.26679e-07
-0.00113139
-1.1703e-06
-1.32813e-07
-8.31959e-08
0.00113139
-1.9002e-07
1.23226e-06
2.5348e-07
8.79263e-07
-1.87175e-07
-8.31865e-07
2.28773e-07
-0.000270282
1.20943e-06
1.17668e-06
-1.91772e-07
-1.95951e-07
0.000268284
8.82243e-08
1.07013e-07
-0.00117984
-6.54324e-08
-4.53715e-08
0.00117976
-0.00113165
-1.19788e-06
-1.07596e-07
-6.77389e-09
0.00113162
-2.25188e-07
1.21014e-06
2.13596e-07
8.90837e-07
-1.66119e-07
-8.17552e-07
2.39365e-07
-0.00113132
-1.19108e-06
-1.1938e-07
-1.91611e-08
0.00113129
-2.23294e-07
1.20627e-06
2.16303e-07
8.93079e-07
-1.66023e-07
-8.15154e-07
2.44967e-07
-0.000270269
1.22686e-06
1.19464e-06
-2.03851e-07
-2.07407e-07
0.000268259
7.89958e-08
6.4531e-08
-0.00117966
-4.23744e-08
-6.07437e-08
0.00117962
-0.00113166
-1.18225e-06
-1.12104e-07
-7.39722e-08
0.00113171
-1.84621e-07
1.23876e-06
2.67237e-07
8.59692e-07
-2.07764e-07
-8.50973e-07
2.00382e-07
-0.00113128
-1.18886e-06
-8.17674e-08
-2.17207e-08
0.00113131
-2.04065e-07
1.21838e-06
2.46187e-07
8.59725e-07
-2.07369e-07
-8.49146e-07
2.03613e-07
-0.000270269
1.21164e-06
1.17432e-06
-1.95627e-07
-2.03168e-07
0.000268282
2.1883e-07
2.09959e-07
-0.00117932
-1.54515e-07
-1.59227e-07
0.00117921
-0.00113177
-1.17861e-06
-1.53266e-07
-6.37384e-08
0.00113177
-2.08696e-07
1.22657e-06
2.23521e-07
8.94907e-07
-1.66181e-07
-8.16096e-07
2.43826e-07
-0.0011314
-1.15848e-06
-1.80788e-07
-1.21306e-07
0.00113142
-1.82263e-07
1.24103e-06
2.57554e-07
8.8876e-07
-1.79353e-07
-8.23437e-07
2.37998e-07
-0.000270394
1.20497e-06
1.17281e-06
-1.87782e-07
-1.91878e-07
0.000268396
3.73328e-08
7.22296e-08
-0.001179
-5.01273e-08
-2.3075e-08
0.00117896
-0.00113167
-1.20019e-06
-7.52704e-08
-1.31509e-08
0.00113165
-2.13371e-07
1.21661e-06
2.34253e-07
8.74876e-07
-1.84119e-07
-8.3319e-07
2.21041e-07
-0.00113139
-1.20071e-06
-8.25868e-08
6.26169e-09
0.00113134
-2.32081e-07
1.19794e-06
2.08171e-07
8.90489e-07
-1.65296e-07
-8.16641e-07
2.43265e-07
-0.000270354
1.234e-06
1.20211e-06
-2.08782e-07
-2.11022e-07
0.000268338
1.41628e-07
9.57615e-08
-0.0011788
-5.70425e-08
-9.79328e-08
0.00117872
-0.00113164
-1.17955e-06
-1.2607e-07
-6.73867e-08
0.00113163
-1.97568e-07
1.23051e-06
2.41552e-07
8.80228e-07
-1.79152e-07
-8.29147e-07
2.27683e-07
-0.00113117
-1.18387e-06
-5.82138e-08
-2.02372e-08
0.00113116
-1.9635e-07
1.22267e-06
2.53124e-07
8.56248e-07
-2.07835e-07
-8.50569e-07
2.00756e-07
-0.000270328
1.21155e-06
1.16218e-06
-1.80263e-07
-1.99556e-07
0.000268334
2.32949e-08
6.97739e-08
-0.0011784
-3.67613e-08
1.15148e-08
0.00117834
-0.00113158
-1.20617e-06
-9.03121e-08
3.32066e-08
0.00113157
-2.3173e-07
1.19891e-06
2.01364e-07
8.79486e-07
-1.73501e-07
-8.22723e-07
2.24046e-07
-0.00113123
-1.17736e-06
-1.93209e-07
-8.11492e-08
0.00113129
-2.07016e-07
1.21616e-06
2.22868e-07
8.94972e-07
-1.66282e-07
-8.12351e-07
2.43837e-07
-0.000270383
1.21834e-06
1.20647e-06
-2.13615e-07
-2.01123e-07
0.000268373
9.06304e-08
3.23423e-08
-0.00117851
-8.13095e-08
-1.41107e-07
0.00117861
-0.00113183
-1.18091e-06
-2.97149e-09
-1.32895e-07
0.00113204
-1.70635e-07
1.24876e-06
2.90495e-07
7.91314e-07
-2.63523e-07
-9.06486e-07
1.22241e-07
-0.00113159
-1.22329e-06
7.02529e-08
3.54302e-08
0.00113175
-2.42279e-07
1.19342e-06
2.24596e-07
7.97576e-07
-2.50425e-07
-8.92895e-07
1.29518e-07
-0.000270431
1.23791e-06
1.19494e-06
-2.27616e-07
-2.38135e-07
0.000268464
4.63548e-07
4.87717e-07
-0.00117835
-3.45982e-07
-3.19683e-07
0.00117806
-0.00113231
-1.11991e-06
-3.76846e-07
-1.67819e-07
0.00113219
-1.33947e-07
1.26831e-06
2.639e-07
9.54916e-07
-1.06634e-07
-7.54614e-07
2.92541e-07
-0.00113191
-1.07635e-06
-3.67017e-07
-2.79527e-07
0.00113182
-8.32314e-08
1.30168e-06
3.23161e-07
9.23019e-07
-1.38345e-07
-7.81049e-07
2.63355e-07
-0.000270821
1.12787e-06
1.07527e-06
-8.67841e-08
-1.0572e-07
0.000268811
7.66066e-07
8.3762e-07
-0.00117695
-6.63973e-07
-5.82887e-07
0.0011766
-0.00113159
-1.15758e-06
-9.50631e-07
-2.02042e-07
0.00113163
-1.98295e-07
1.31383e-06
2.54812e-07
1.08243e-06
4.81153e-08
-6.33005e-07
4.04296e-07
-0.00113128
-1.14616e-06
-1.06077e-06
-2.269e-07
0.00113131
-2.13282e-07
1.29166e-06
2.23795e-07
1.12799e-06
9.20545e-08
-5.79002e-07
4.59069e-07
-0.000270464
1.19927e-06
1.17248e-06
-1.16949e-07
-1.0587e-07
0.000268315
5.42783e-06
5.34109e-06
-0.00116379
-1.12974e-05
-1.16116e-05
0.000283664
0.000285246
0.000285296
0.000285294
4.48621e-06
6.70997e-06
7.15158e-06
4.40633e-06
6.62018e-06
7.05906e-06
-0.000280433
5.47312e-06
-5.41939e-06
5.87381e-06
-3.47024e-06
0.000277976
-0.000280252
-5.30741e-06
5.32719e-06
-3.32837e-06
5.7678e-06
0.000277793
-0.000270649
-5.28144e-06
-5.35982e-06
5.62268e-06
5.55254e-06
0.000270115
1.28198e-06
1.24479e-06
-2.3265e-07
-2.40385e-07
0.000269472
-1.25577e-06
-1.21859e-06
0.000271381
-0.000269365
2.25074e-07
2.32937e-07
7.11687e-08
0.00113948
-2.5633e-07
1.2551e-06
2.31738e-07
8.54236e-07
-2.43893e-07
-9.00064e-07
1.96515e-07
-1.28743e-06
2.17967e-07
7.12855e-08
0.00113993
-2.59064e-07
1.26061e-06
2.34157e-07
8.5991e-07
-2.46597e-07
-9.05696e-07
1.99496e-07
0.00113905
2.00139e-07
-0.0011392
6.47405e-08
-1.27794e-06
2.32816e-07
-2.52866e-07
-8.95288e-07
1.99127e-07
-2.39585e-07
8.56383e-07
1.26137e-06
0.0011395
2.00328e-07
-0.00113965
6.48696e-08
-1.28375e-06
2.35952e-07
-2.55755e-07
-9.00911e-07
2.01686e-07
-2.42479e-07
8.61878e-07
-2.35178e-07
-2.37509e-07
0.000269494
-1.22138e-06
0.000271411
-0.000269386
2.27955e-07
2.30212e-07
7.06314e-08
0.0011406
-2.53593e-07
1.2179e-06
2.29217e-07
8.57188e-07
-2.46545e-07
-9.02739e-07
1.99476e-07
-1.28184e-06
2.17715e-07
7.11008e-08
0.00113958
-2.58973e-07
1.25513e-06
2.34248e-07
8.57024e-07
-2.46536e-07
-9.02813e-07
1.99466e-07
0.00114017
2.00014e-07
-0.00114031
6.4224e-08
-1.24077e-06
2.30308e-07
-2.50129e-07
-8.97978e-07
2.02073e-07
-2.42243e-07
8.59303e-07
1.25571e-06
0.00113915
2.0019e-07
-0.0011393
6.50742e-08
-1.27825e-06
2.35728e-07
-2.5583e-07
-8.97994e-07
2.01775e-07
-2.42318e-07
8.59046e-07
2.17961e-07
7.17965e-08
0.00113938
-2.53931e-07
1.24929e-06
2.28469e-07
8.54367e-07
-2.43703e-07
1.96664e-07
-8.99961e-07
2.00179e-07
-0.00114004
6.43176e-08
-1.24361e-06
2.27848e-07
-2.47405e-07
-8.95297e-07
1.99059e-07
8.56377e-07
-2.39648e-07
1.25042e-06
0.00113895
2.00271e-07
-0.00113909
6.46734e-08
-1.27241e-06
2.30496e-07
-2.49777e-07
-8.95485e-07
1.98871e-07
-2.398e-07
8.56173e-07
-2.32567e-07
-2.40012e-07
0.000269452
-1.21572e-06
0.000271358
-0.000269345
2.25274e-07
2.32636e-07
2.17881e-07
7.13645e-08
0.0011405
-2.51265e-07
1.21486e-06
2.25945e-07
8.54635e-07
-2.46375e-07
1.99574e-07
-8.99968e-07
2.0008e-07
-0.00113967
6.44023e-08
-1.23807e-06
2.27668e-07
-2.47462e-07
-8.9507e-07
2.0181e-07
8.56322e-07
-2.42235e-07
1.21601e-06
0.00114006
2.00175e-07
-0.00114021
6.42456e-08
-1.23798e-06
2.27982e-07
-2.47111e-07
-8.95497e-07
2.01778e-07
-2.42471e-07
8.5643e-07
-0.000269358
2.2777e-07
2.33086e-07
1.27709e-06
1.2399e-06
-2.28889e-07
-2.36631e-07
0.00026933
-1.25674e-06
-1.2196e-06
0.000271243
-0.000269227
2.26284e-07
2.34141e-07
6.35133e-08
0.00113891
-2.52622e-07
1.2556e-06
2.32517e-07
8.57146e-07
-2.38101e-07
-8.93665e-07
1.99984e-07
-1.28241e-06
1.94824e-07
6.27177e-08
0.00113936
-2.54696e-07
1.26158e-06
2.3616e-07
8.62499e-07
-2.41186e-07
-8.99476e-07
2.0245e-07
0.00113849
1.77715e-07
-0.00113863
5.63182e-08
-1.27326e-06
2.34686e-07
-2.49243e-07
-8.89507e-07
2.01451e-07
-2.34711e-07
8.58568e-07
1.26246e-06
0.00113894
1.7744e-07
-0.00113908
5.53494e-08
-1.27866e-06
2.37447e-07
-2.51983e-07
-8.95092e-07
2.04449e-07
-2.37367e-07
8.64276e-07
-2.31349e-07
-2.33699e-07
0.000269351
-1.2224e-06
0.000271274
-0.00026925
2.29147e-07
2.31486e-07
6.29002e-08
0.00114003
-2.4987e-07
1.21845e-06
2.30024e-07
8.60068e-07
-2.40768e-07
-8.96362e-07
2.02922e-07
-1.27707e-06
1.94928e-07
6.32998e-08
0.00113901
-2.55018e-07
1.2558e-06
2.35791e-07
8.59661e-07
-2.41024e-07
-8.96547e-07
2.02503e-07
0.00113961
1.77574e-07
-0.00113975
5.58198e-08
-1.23608e-06
2.32181e-07
-2.46497e-07
-8.92207e-07
2.04395e-07
-2.37373e-07
8.61481e-07
1.25707e-06
0.00113859
1.7723e-07
-0.00113873
5.51009e-08
-1.27303e-06
2.37756e-07
-2.51713e-07
-8.92308e-07
2.04332e-07
-2.37392e-07
8.61284e-07
1.94805e-07
6.28777e-08
0.00113881
-2.49233e-07
1.25042e-06
2.30315e-07
8.56956e-07
-2.38312e-07
1.99802e-07
-8.93896e-07
1.77e-07
-0.00113947
5.52387e-08
-1.23864e-06
2.29264e-07
-2.4372e-07
-8.89406e-07
2.01892e-07
8.58851e-07
-2.34465e-07
1.25123e-06
0.00113839
1.77222e-07
-0.00113853
5.58979e-08
-1.26772e-06
2.31756e-07
-2.46518e-07
-8.89379e-07
2.01722e-07
-2.34467e-07
8.58768e-07
-2.28925e-07
-2.36411e-07
0.00026931
-1.21702e-06
0.000271222
-0.000269208
2.26705e-07
2.34144e-07
1.94732e-07
6.23565e-08
0.00113992
-2.46553e-07
1.21603e-06
2.27817e-07
8.57208e-07
-2.40986e-07
2.02704e-07
-8.93916e-07
1.76845e-07
-0.00113911
5.48737e-08
-1.23296e-06
2.29614e-07
-2.43435e-07
-8.8931e-07
2.04433e-07
8.58637e-07
-2.37247e-07
1.21685e-06
0.0011395
1.7713e-07
-0.00113964
5.54728e-08
-1.23329e-06
2.29251e-07
-2.43838e-07
-8.89405e-07
2.04619e-07
-2.37146e-07
8.59017e-07
-0.000269221
2.28827e-07
2.34132e-07
1.27154e-06
1.23438e-06
-2.25036e-07
-2.32758e-07
0.000269195
-1.25891e-06
-1.22175e-06
0.000271121
-0.000269105
2.28331e-07
2.36212e-07
5.27903e-08
0.00113835
-2.47536e-07
1.25749e-06
2.35765e-07
8.58866e-07
-2.33776e-07
-8.88399e-07
2.0189e-07
-1.27709e-06
1.70964e-07
5.212e-08
0.0011388
-2.50457e-07
1.26308e-06
2.38411e-07
8.64721e-07
-2.36274e-07
-8.93812e-07
2.04996e-07
0.00113796
1.50849e-07
-0.00113809
4.27511e-08
-1.26703e-06
2.37247e-07
-2.43929e-07
-8.84019e-07
2.0475e-07
-2.29638e-07
8.61148e-07
1.26387e-06
0.0011384
1.51848e-07
-0.00113854
4.51037e-08
-1.2732e-06
2.39284e-07
-2.47441e-07
-8.89571e-07
2.0748e-07
-2.32398e-07
8.66767e-07
-2.27725e-07
-2.3001e-07
0.000269218
-1.22399e-06
0.00027115
-0.000269126
2.30738e-07
2.32949e-07
5.23804e-08
0.00113947
-2.44804e-07
1.22033e-06
2.33247e-07
8.61792e-07
-2.36436e-07
-8.91092e-07
2.04834e-07
-1.27134e-06
1.70565e-07
5.15817e-08
0.00113846
-2.50084e-07
1.25775e-06
2.38719e-07
8.61768e-07
-2.36262e-07
-8.9102e-07
2.04955e-07
0.00113907
1.50564e-07
-0.0011392
4.24022e-08
-1.22991e-06
2.34718e-07
-2.41216e-07
-8.86681e-07
2.07713e-07
-2.32275e-07
8.641e-07
1.25816e-06
0.00113806
1.51648e-07
-0.00113819
4.53624e-08
-1.2678e-06
2.38976e-07
-2.477e-07
-8.86572e-07
2.07628e-07
-2.32151e-07
8.6401e-07
1.71013e-07
5.29109e-08
0.00113825
-2.45003e-07
1.25181e-06
2.32675e-07
8.59108e-07
-2.33487e-07
2.02163e-07
-8.88202e-07
1.51815e-07
-0.00113893
4.41534e-08
-1.23305e-06
2.31267e-07
-2.39025e-07
-8.83988e-07
2.04843e-07
8.61239e-07
-2.29574e-07
1.25307e-06
0.00113785
1.51822e-07
-0.00113798
4.42078e-08
-1.26194e-06
2.34152e-07
-2.41543e-07
-8.84156e-07
2.0452e-07
-2.2978e-07
8.60993e-07
-2.24952e-07
-2.32368e-07
0.000269176
-1.21829e-06
0.000271098
-0.000269085
2.28021e-07
2.35319e-07
1.70877e-07
5.25869e-08
0.00113936
-2.42339e-07
1.21742e-06
2.30154e-07
8.59363e-07
-2.3616e-07
2.05067e-07
-8.88221e-07
1.51683e-07
-0.00113856
4.42992e-08
-1.2276e-06
2.31004e-07
-2.39264e-07
-8.83689e-07
2.07637e-07
8.6125e-07
-2.3209e-07
1.21867e-06
0.00113896
1.5157e-07
-0.0011391
4.39197e-08
-1.22756e-06
2.31625e-07
-2.38896e-07
-8.8415e-07
2.07448e-07
-2.32425e-07
8.6127e-07
-0.000269098
2.30576e-07
2.35913e-07
1.26613e-06
1.229e-06
-2.21115e-07
-2.28815e-07
0.000269076
-1.25789e-06
-1.22081e-06
0.000271003
-0.000268988
2.28095e-07
2.3592e-07
4.11766e-08
0.00113783
-2.43564e-07
1.25876e-06
2.3687e-07
8.62193e-07
-2.2792e-07
-8.82228e-07
2.05953e-07
-1.27231e-06
1.45924e-07
4.36637e-08
0.00113827
-2.47019e-07
1.26382e-06
2.3918e-07
8.67647e-07
-2.30874e-07
-8.87923e-07
2.08476e-07
0.00113744
1.3048e-07
-0.00113757
4.03003e-08
-1.26444e-06
2.36285e-07
-2.42949e-07
-8.77873e-07
2.07987e-07
-2.24032e-07
8.64067e-07
1.26408e-06
0.00113789
1.30244e-07
-0.00113802
3.85223e-08
-1.26948e-06
2.39911e-07
-2.44928e-07
-8.83761e-07
2.10522e-07
-2.27123e-07
8.69405e-07
-2.24228e-07
-2.26632e-07
0.000269097
-1.22401e-06
0.000271033
-0.00026901
2.31273e-07
2.33654e-07
4.07356e-08
0.00113894
-2.40839e-07
1.22162e-06
2.34357e-07
8.65132e-07
-2.30563e-07
-8.849e-07
2.0891e-07
-1.26698e-06
1.45875e-07
4.41304e-08
0.00113793
-2.47288e-07
1.25809e-06
2.38944e-07
8.64836e-07
-2.30679e-07
-8.84947e-07
2.08539e-07
0.00113856
1.30359e-07
-0.00113868
3.97228e-08
-1.22729e-06
2.33808e-07
-2.40188e-07
-8.80579e-07
2.10908e-07
-2.26704e-07
8.66969e-07
1.25858e-06
0.00113754
1.3026e-07
-0.00113767
3.86341e-08
-1.26392e-06
2.40028e-07
-2.44779e-07
-8.80977e-07
2.10433e-07
-2.27133e-07
8.66432e-07
1.4544e-07
4.19381e-08
0.00113772
-2.4082e-07
1.25321e-06
2.34265e-07
8.61926e-07
-2.28203e-07
2.05606e-07
-8.82482e-07
1.29706e-07
-0.00113841
3.87066e-08
-1.22953e-06