/*--------------------------------*- C++ -*----------------------------------*\
| =========                 |                                                 |
| \\      /  F ield         | OpenFOAM: The Open Source CFD Toolbox           |
|  \\    /   O peration     | Version:  v2012                                 |
|   \\  /    A nd           | Website:  www.openfoam.com                      |
|    \\/     M anipulation  |                                                 |
\*---------------------------------------------------------------------------*/
FoamFile
{
    version     2.0;
    format      ascii;
    class       volVectorField;
    location    "875";
    object      U;
}
// * * * * * * * * * * * * * * * * * * * * * * * * * * * * * * * * * * * * * //

dimensions      [0 1 -1 0 0 0 0];


internalField   nonuniform List<vector> 
85864
(
(2.38928e-05 2.39036e-05 0.113152)
(-1.6676e-05 1.00626e-05 0.108269)
(1.00192e-05 -1.66581e-05 0.108268)
(-4.79899e-05 -4.80008e-05 0.10472)
(2.20011e-05 2.20056e-05 0.113168)
(-1.44548e-05 8.88397e-06 0.108214)
(8.9434e-06 -1.44727e-05 0.108213)
(-4.60403e-05 -4.6051e-05 0.104666)
(1.99475e-05 1.99562e-05 0.113177)
(-1.21591e-05 7.45848e-06 0.108161)
(7.36905e-06 -1.21358e-05 0.10816)
(-4.42937e-05 -4.43016e-05 0.104615)
(1.74864e-05 1.74978e-05 0.113179)
(-9.90233e-06 6.22842e-06 0.108111)
(6.27297e-06 -9.90472e-06 0.10811)
(-4.2458e-05 -4.24579e-05 0.10457)
(1.57608e-05 1.57576e-05 0.113176)
(-7.93041e-06 5.35895e-06 0.108062)
(5.32544e-06 -7.92928e-06 0.108061)
(-4.13668e-05 -4.13821e-05 0.104526)
(1.35666e-05 1.35753e-05 0.113167)
(-6.00063e-06 4.26123e-06 0.108015)
(4.25859e-06 -5.99352e-06 0.108014)
(-3.97269e-05 -3.97221e-05 0.104485)
(1.14407e-05 1.14514e-05 0.113153)
(-4.12898e-06 3.1605e-06 0.10797)
(3.12911e-06 -4.12228e-06 0.107969)
(-3.83919e-05 -3.83971e-05 0.104449)
(9.62055e-06 9.62372e-06 0.113135)
(-2.46243e-06 2.50192e-06 0.107928)
(2.53263e-06 -2.46166e-06 0.107927)
(-3.74322e-05 -3.74306e-05 0.104415)
(7.70739e-06 7.70653e-06 0.113113)
(-8.87832e-07 1.46404e-06 0.107888)
(1.42611e-06 -8.96086e-07 0.107887)
(-3.60945e-05 -3.61031e-05 0.104383)
(5.75101e-06 5.77748e-06 0.113088)
(6.24113e-07 8.89098e-07 0.10785)
(9.0137e-07 6.54148e-07 0.107849)
(-3.52383e-05 -3.52143e-05 0.104355)
(4.02106e-06 4.00197e-06 0.113061)
(2.08243e-06 9.82892e-08 0.107814)
(8.82646e-08 2.03879e-06 0.107813)
(-3.4126e-05 -3.41549e-05 0.104329)
(2.49598e-06 2.5454e-06 0.113031)
(3.13148e-06 -4.2167e-07 0.10778)
(-5.02981e-07 3.20765e-06 0.107779)
(-3.36673e-05 -3.36171e-05 0.104305)
(4.58718e-07 4.29491e-07 0.112999)
(4.70085e-06 -1.44407e-06 0.107749)
(-1.32404e-06 4.60266e-06 0.107748)
(-3.17819e-05 -3.18213e-05 0.104286)
(-2.36834e-07 -1.97226e-07 0.112965)
(5.07142e-06 -9.82182e-07 0.107719)
(-1.147e-06 5.15578e-06 0.107718)
(-3.25523e-05 -3.25222e-05 0.104266)
(-2.12357e-06 -2.12241e-06 0.112932)
(6.42288e-06 -3.03989e-06 0.107692)
(-2.91477e-06 6.3863e-06 0.107692)
(-3.03484e-05 -3.03371e-05 0.10425)
(-3.53763e-06 -3.55451e-06 0.112894)
(7.43544e-06 -2.34357e-06 0.107668)
(-2.44388e-06 7.43767e-06 0.107667)
(-3.068e-05 -3.07243e-05 0.104239)
(-3.8897e-06 -3.81545e-06 0.112858)
(7.48413e-06 -2.91977e-06 0.107643)
(-2.96253e-06 7.56042e-06 0.107642)
(-2.9999e-05 -2.99233e-05 0.104224)
(-5.43385e-06 -5.47835e-06 0.112821)
(8.7574e-06 -4.11264e-06 0.10762)
(-3.97614e-06 8.64573e-06 0.10762)
(-2.88392e-05 -2.8918e-05 0.104215)
(-6.57297e-06 -6.57243e-06 0.112783)
(9.20813e-06 -3.94513e-06 0.107602)
(-4.09501e-06 9.2906e-06 0.107601)
(-2.9028e-05 -2.89988e-05 0.104208)
(-6.97436e-06 -6.8821e-06 0.112745)
(9.30079e-06 -4.17442e-06 0.107583)
(-4.10923e-06 9.27394e-06 0.107582)
(-2.83635e-05 -2.83249e-05 0.104201)
(-7.92973e-06 -7.99203e-06 0.112707)
(1.03477e-05 -5.06896e-06 0.107566)
(-5.12483e-06 1.03541e-05 0.107565)
(-2.76736e-05 -2.77273e-05 0.104197)
(-8.65426e-06 -8.58482e-06 0.112669)
(1.0428e-05 -4.89582e-06 0.10755)
(-4.86345e-06 1.04559e-05 0.10755)
(-2.78778e-05 -2.78428e-05 0.104193)
(-9.14374e-06 -9.24015e-06 0.112631)
(1.06433e-05 -5.41676e-06 0.107536)
(-5.29044e-06 1.05646e-05 0.107535)
(-2.69717e-05 -2.70188e-05 0.104191)
(-1.03345e-05 -1.01794e-05 0.112593)
(1.16654e-05 -5.79168e-06 0.107524)
(-6.19405e-06 1.17932e-05 0.107523)
(-2.67896e-05 -2.67241e-05 0.104193)
(-9.70612e-06 -9.66078e-06 0.112554)
(1.10839e-05 -5.31424e-06 0.107511)
(-4.92589e-06 1.10919e-05 0.10751)
(-2.73007e-05 -2.72313e-05 0.104189)
(-1.07203e-05 -1.0949e-05 0.112519)
(1.11944e-05 -6.07471e-06 0.1075)
(-6.30064e-06 1.1053e-05 0.107499)
(-2.61701e-05 -2.64359e-05 0.104191)
(-1.16302e-05 -1.14375e-05 0.112482)
(1.2311e-05 -6.79602e-06 0.107494)
(-6.62555e-06 1.24368e-05 0.107493)
(-2.61918e-05 -2.59528e-05 0.1042)
(-1.08419e-05 -1.08812e-05 0.112445)
(1.13794e-05 -5.21035e-06 0.107485)
(-5.37821e-06 1.12716e-05 0.107484)
(-2.68898e-05 -2.7025e-05 0.104201)
(-1.20396e-05 -1.17997e-05 0.11241)
(1.20473e-05 -7.03005e-06 0.107476)
(-7.1969e-06 1.22611e-05 0.107475)
(-2.53539e-05 -2.51746e-05 0.104204)
(-1.09617e-05 -1.1397e-05 0.112373)
(1.15746e-05 -5.47418e-06 0.107469)
(-4.98235e-06 1.13109e-05 0.107468)
(-2.73396e-05 -2.76283e-05 0.104208)
(-1.3011e-05 -1.26464e-05 0.112341)
(1.22957e-05 -8.11547e-06 0.107466)
(-8.68558e-06 1.24209e-05 0.107465)
(-2.44017e-05 -2.42155e-05 0.104219)
(-1.14669e-05 -1.17045e-05 0.112302)
(1.23396e-05 -4.36549e-06 0.107458)
(-3.70026e-06 1.206e-05 0.107458)
(-2.7564e-05 -2.77921e-05 0.104224)
(-1.02893e-05 -9.81451e-06 0.112274)
(9.0081e-06 -6.01437e-06 0.107453)
(-7.27632e-06 9.80573e-06 0.107454)
(-2.76045e-05 -2.69631e-05 0.104224)
(-1.50751e-05 -1.56106e-05 0.112241)
(1.47283e-05 -9.72392e-06 0.107457)
(-7.99911e-06 1.35862e-05 0.107456)
(-2.27847e-05 -2.36935e-05 0.104249)
(-1.04784e-05 -1.08229e-05 0.112205)
(1.06472e-05 -3.36116e-06 0.107451)
(-4.18095e-06 1.08214e-05 0.107448)
(-2.9134e-05 -2.90542e-05 0.104249)
(-1.02616e-05 -8.62007e-06 0.112178)
(1.01581e-05 -5.67097e-06 0.107441)
(-6.79452e-06 1.10332e-05 0.107443)
(-2.62996e-05 -2.51863e-05 0.104245)
(-1.27409e-05 -1.44587e-05 0.112145)
(1.21283e-05 -8.04583e-06 0.107446)
(-4.77815e-06 1.04951e-05 0.107444)
(-2.58718e-05 -2.72747e-05 0.104267)
(-1.35863e-05 -1.36353e-05 0.11212)
(1.06284e-05 -7.27797e-06 0.10745)
(-1.02046e-05 1.15941e-05 0.107448)
(-2.53573e-05 -2.49277e-05 0.104284)
(-9.26824e-06 -7.34213e-06 0.112083)
(1.02229e-05 -2.71892e-07 0.107437)
(-1.27612e-06 1.12345e-05 0.10744)
(-3.15757e-05 -3.08521e-05 0.104277)
(-6.55645e-06 -8.01919e-06 0.11207)
(8.98374e-06 -1.01407e-05 0.107443)
(-4.31997e-06 6.54225e-06 0.107439)
(-2.5266e-05 -2.62298e-05 0.104281)
(-1.99314e-05 -2.07918e-05 0.112036)
(1.34702e-05 -7.32546e-06 0.107453)
(-1.4397e-05 1.58532e-05 0.107452)
(-2.37473e-05 -2.32454e-05 0.104328)
(-6.76917e-06 -3.72856e-06 0.112011)
(6.87135e-06 -1.35906e-06 0.107441)
(2.234e-06 8.02043e-06 0.107448)
(-3.42406e-05 -3.29784e-05 0.104309)
(-8.7633e-06 -1.26733e-05 0.111991)
(1.10054e-05 -7.9638e-06 0.10744)
(-5.12475e-06 5.12787e-06 0.107428)
(-1.97058e-05 -2.55772e-05 0.104304)
(-6.34989e-06 -1.97391e-06 0.111954)
(7.97241e-06 3.35339e-06 0.107435)
(-7.41419e-06 1.6675e-05 0.107438)
(-3.55469e-05 -2.79104e-05 0.104322)
(-9.28138e-06 -1.51406e-05 0.111984)
(-5.0598e-06 -1.42745e-05 0.10747)
(3.66665e-06 -1.06154e-05 0.10748)
(-3.50279e-05 -3.72181e-05 0.104348)
(-4.47444e-05 -4.13775e-05 0.111966)
(3.28322e-05 -1.92529e-05 0.107508)
(-3.46305e-05 3.08227e-05 0.107503)
(1.57358e-05 9.69876e-06 0.104499)
(2.22625e-06 9.30139e-06 0.111851)
(1.0915e-05 2.61412e-05 0.107394)
(2.97686e-05 2.18453e-05 0.107399)
(-4.0309e-05 -3.43482e-05 0.104337)
(6.82153e-06 -3.13305e-05 0.111982)
(7.18404e-05 -8.14114e-05 0.107652)
(-2.58512e-05 3.32866e-05 0.107591)
(1.38863e-05 -9.21031e-06 0.104444)
(4.79136e-05 4.79074e-05 0.10472)
(-4.33477e-05 -4.33252e-05 0.104837)
(1.00811e-05 1.67256e-05 0.108267)
(-1.01151e-05 1.67513e-05 0.108266)
(9.20808e-06 1.50302e-05 0.108226)
(-9.21871e-06 1.50453e-05 0.108225)
(-4.78268e-05 4.77942e-05 0.10472)
(4.33576e-05 -4.33576e-05 0.104837)
(1.66603e-05 1.0035e-05 0.108268)
(1.67281e-05 -1.00766e-05 0.108265)
(1.4969e-05 9.16424e-06 0.108227)
(1.50349e-05 -9.24076e-06 0.108224)
(-1.67303e-05 -1.01647e-05 0.108266)
(-1.49838e-05 9.15722e-06 0.108228)
(-1.5045e-05 -9.16365e-06 0.108225)
(4.77847e-05 -4.78311e-05 0.10472)
(-4.33199e-05 4.33185e-05 0.104836)
(-1.01261e-05 -1.66786e-05 0.108267)
(9.17388e-06 -1.49838e-05 0.108227)
(-9.12576e-06 -1.49922e-05 0.108226)
(4.34009e-05 4.34106e-05 0.104836)
(4.61596e-05 4.61494e-05 0.104667)
(-4.3651e-05 -4.36305e-05 0.104782)
(9.03448e-06 1.45172e-05 0.108212)
(-8.93666e-06 1.45204e-05 0.108211)
(8.01117e-06 1.28613e-05 0.108172)
(-7.92897e-06 1.28419e-05 0.108171)
(-4.60553e-05 4.60138e-05 0.104666)
(4.36791e-05 -4.3646e-05 0.104782)
(1.44587e-05 8.98296e-06 0.108214)
(1.45277e-05 -9.00127e-06 0.10821)
(1.27989e-05 7.96598e-06 0.108173)
(1.28239e-05 -7.87251e-06 0.10817)
(-1.45076e-05 -8.9262e-06 0.108211)
(-1.27499e-05 7.90635e-06 0.108174)
(-1.28082e-05 -7.97019e-06 0.108171)
(4.60862e-05 -4.61474e-05 0.104666)
(-4.37165e-05 4.3747e-05 0.104781)
(-8.88132e-06 -1.44565e-05 0.108213)
(7.84402e-06 -1.27438e-05 0.108173)
(-7.92942e-06 -1.27577e-05 0.108173)
(4.36155e-05 4.36212e-05 0.104781)
(4.42429e-05 4.42378e-05 0.104615)
(-4.43145e-05 -4.42833e-05 0.104733)
(7.53083e-06 1.22884e-05 0.108159)
(-7.48865e-06 1.22513e-05 0.108158)
(6.25763e-06 1.04202e-05 0.108121)
(-6.51991e-06 1.05135e-05 0.10812)
(-4.42444e-05 4.42305e-05 0.104616)
(4.4096e-05 -4.4119e-05 0.104733)
(1.22261e-05 7.49235e-06 0.10816)
(1.22186e-05 -7.40473e-06 0.108157)
(1.03423e-05 6.22725e-06 0.108122)
(1.049e-05 -6.55211e-06 0.108119)
(-1.22492e-05 -7.554e-06 0.108158)
(-1.04586e-05 6.42879e-06 0.108123)
(-1.05062e-05 -6.40009e-06 0.10812)
(4.41465e-05 -4.41798e-05 0.104615)
(-4.40571e-05 4.40287e-05 0.104732)
(-7.52098e-06 -1.21946e-05 0.10816)
(6.45492e-06 -1.04496e-05 0.108122)
(-6.37256e-06 -1.04378e-05 0.108121)
(4.41723e-05 4.41907e-05 0.104732)
(4.23847e-05 4.23872e-05 0.10457)
(-4.38903e-05 -4.38798e-05 0.104686)
(6.07521e-06 9.84174e-06 0.108108)
(-6.31863e-06 9.95253e-06 0.108107)
(5.86748e-06 8.51459e-06 0.108072)
(-5.65588e-06 8.50352e-06 0.108071)
(-4.25962e-05 4.25314e-05 0.10457)
(4.41177e-05 -4.40679e-05 0.104686)
(9.77055e-06 6.03688e-06 0.10811)
(9.9419e-06 -6.36852e-06 0.108107)
(8.45581e-06 5.81624e-06 0.108073)
(8.50298e-06 -5.64049e-06 0.10807)
(-9.90756e-06 -6.11618e-06 0.108108)
(-8.40337e-06 5.65432e-06 0.108074)
(-8.43154e-06 -5.67153e-06 0.108071)
(4.26036e-05 -4.26906e-05 0.10457)
(-4.4098e-05 4.41446e-05 0.104685)
(-6.08149e-06 -9.8412e-06 0.108109)
(5.63304e-06 -8.41404e-06 0.108073)
(-5.62259e-06 -8.38021e-06 0.108072)
(4.40271e-05 4.40244e-05 0.104685)
(4.147e-05 4.14553e-05 0.104526)
(-4.45438e-05 -4.4517e-05 0.104641)
(5.62948e-06 8.09707e-06 0.10806)
(-5.3466e-06 8.04521e-06 0.108059)
(4.464e-06 6.55315e-06 0.108024)
(-4.53761e-06 6.54908e-06 0.108023)
(-4.12321e-05 4.12469e-05 0.104526)
(4.44032e-05 -4.44051e-05 0.104642)
(8.04208e-06 5.58054e-06 0.108061)
(8.03353e-06 -5.31768e-06 0.108058)
(6.48349e-06 4.43351e-06 0.108025)
(6.52615e-06 -4.53288e-06 0.108022)
(-8.01418e-06 -5.51504e-06 0.108059)
(-6.4695e-06 4.48041e-06 0.108026)
(-6.60247e-06 -4.60752e-06 0.108023)
(4.1216e-05 -4.12213e-05 0.104526)
(-4.43879e-05 4.43843e-05 0.104641)
(-5.47051e-06 -7.96109e-06 0.10806)
(4.47204e-06 -6.45498e-06 0.108025)
(-4.58078e-06 -6.53226e-06 0.108025)
(4.43732e-05 4.43918e-05 0.104641)
(3.96035e-05 3.96064e-05 0.104485)
(-4.45946e-05 -4.45746e-05 0.104602)
(4.1269e-06 6.00857e-06 0.108012)
(-4.34686e-06 6.05795e-06 0.108012)
(3.43679e-06 4.61093e-06 0.107979)
(-3.50133e-06 4.6713e-06 0.107978)
(-3.98036e-05 3.97504e-05 0.104486)
(4.46343e-05 -4.46301e-05 0.104602)
(5.93919e-06 4.09598e-06 0.108014)
(6.04241e-06 -4.34814e-06 0.108011)
(4.5447e-06 3.40189e-06 0.10798)
(4.66571e-06 -3.49691e-06 0.107977)
(-6.07928e-06 -4.23901e-06 0.108012)
(-4.60654e-06 3.44387e-06 0.107981)
(-4.6111e-06 -3.37194e-06 0.107978)
(3.97707e-05 -3.98428e-05 0.104485)
(-4.46357e-05 4.46347e-05 0.104601)
(-4.21177e-06 -6.00725e-06 0.108013)
(3.43194e-06 -4.61264e-06 0.10798)
(-3.33534e-06 -4.54431e-06 0.10798)
(4.46443e-05 4.46508e-05 0.104601)
(3.8454e-05 3.845e-05 0.104449)
(-4.45941e-05 -4.45755e-05 0.104565)
(3.24612e-06 4.19079e-06 0.107968)
(-3.1907e-06 4.21154e-06 0.107967)
(2.73336e-06 2.92744e-06 0.107936)
(-2.66164e-06 2.90028e-06 0.107935)
(-3.83581e-05 3.83361e-05 0.104449)
(4.45953e-05 -4.4578e-05 0.104565)
(4.12654e-06 3.21132e-06 0.10797)
(4.1937e-06 -3.16541e-06 0.107966)
(2.86449e-06 2.7007e-06 0.107938)
(2.89392e-06 -2.66521e-06 0.107935)
(-4.15758e-06 -3.16434e-06 0.107967)
(-2.81721e-06 2.64691e-06 0.107938)
(-2.92713e-06 -2.7297e-06 0.107936)
(3.83259e-05 -3.83685e-05 0.104448)
(-4.45483e-05 4.45818e-05 0.104564)
(-3.12995e-06 -4.08949e-06 0.107969)
(2.64722e-06 -2.80456e-06 0.107937)
(-2.70104e-06 -2.85306e-06 0.107937)
(4.45431e-05 4.45579e-05 0.104564)
(3.73878e-05 3.73823e-05 0.104415)
(-4.48025e-05 -4.47993e-05 0.10453)
(2.54797e-06 2.54092e-06 0.107926)
(-2.5325e-06 2.53376e-06 0.107925)
(1.80534e-06 1.38806e-06 0.107895)
(-1.79837e-06 1.41494e-06 0.107895)
(-3.74104e-05 3.73828e-05 0.104415)
(4.48376e-05 -4.48333e-05 0.104531)
(2.47945e-06 2.50983e-06 0.107927)
(2.53818e-06 -2.56664e-06 0.107924)
(1.34157e-06 1.75607e-06 0.107897)
(1.4259e-06 -1.81248e-06 0.107894)
(-2.56388e-06 -2.57311e-06 0.107925)
(-1.35009e-06 1.74738e-06 0.107898)
(-1.40367e-06 -1.79339e-06 0.107895)
(3.74327e-05 -3.74612e-05 0.104415)
(-4.48298e-05 4.48283e-05 0.10453)
(-2.54068e-06 -2.48926e-06 0.107927)
(1.75603e-06 -1.37073e-06 0.107897)
(-1.74572e-06 -1.33998e-06 0.107896)
(4.48127e-05 4.48122e-05 0.10453)
(3.61222e-05 3.61069e-05 0.104383)
(-4.48488e-05 -4.48027e-05 0.104499)
(1.54314e-06 9.5532e-07 0.107885)
(-1.51172e-06 9.55696e-07 0.107885)
(1.00389e-06 -2.55692e-07 0.107857)
(-1.07454e-06 -2.40786e-07 0.107856)
(-3.60744e-05 3.60461e-05 0.104383)
(4.47859e-05 -4.47685e-05 0.1045)
(9.05299e-07 1.50112e-06 0.107887)
(9.53001e-07 -1.47951e-06 0.107884)
(-3.3802e-07 1.00426e-06 0.107858)
(-2.9441e-07 -1.02339e-06 0.107855)
(-9.57812e-07 -1.52257e-06 0.107885)
(3.14831e-07 1.03747e-06 0.107859)
(2.25468e-07 -1.04111e-06 0.107856)
(3.6027e-05 -3.60772e-05 0.104383)
(-4.47845e-05 4.48036e-05 0.104499)
(-1.48172e-06 -8.90976e-07 0.107886)
(9.80545e-07 3.66358e-07 0.107858)
(-1.04006e-06 3.18197e-07 0.107858)
(4.47559e-05 4.47918e-05 0.104499)
(3.51655e-05 3.51877e-05 0.104355)
(-4.49452e-05 -4.49706e-05 0.104471)
(8.2493e-07 -5.87134e-07 0.107848)
(-9.23407e-07 -5.50219e-07 0.107847)
(2.62442e-07 -1.66558e-06 0.107821)
(-2.4949e-07 -1.62358e-06 0.10782)
(-3.52431e-05 3.5227e-05 0.104355)
(4.49886e-05 -4.49691e-05 0.104472)
(-6.70155e-07 8.18137e-07 0.107849)
(-5.83463e-07 -9.41712e-07 0.107846)
(-1.69049e-06 1.92458e-07 0.107822)
(-1.57078e-06 -3.2863e-07 0.107819)
(5.67623e-07 -8.43818e-07 0.107847)
(1.69312e-06 2.2086e-07 0.107823)
(1.66071e-06 -2.02439e-07 0.10782)
(3.52413e-05 -3.52724e-05 0.104355)
(-4.49221e-05 4.49385e-05 0.104471)
(-8.39101e-07 6.59922e-07 0.107848)
(2.94451e-07 1.63041e-06 0.107822)
(-1.37436e-07 1.70927e-06 0.107821)
(4.50111e-05 4.49898e-05 0.104471)
(3.42e-05 3.4159e-05 0.10433)
(-4.46767e-05 -4.46128e-05 0.104445)
(1.70565e-07 -2.02892e-06 0.107812)
(-1.2323e-07 -2.01175e-06 0.107811)
(-6.33051e-08 -2.80896e-06 0.107786)
(1.59047e-07 -2.85056e-06 0.107786)
(-3.41473e-05 3.41348e-05 0.104329)
(4.4745e-05 -4.47286e-05 0.104445)
(-2.05589e-06 1.03906e-07 0.107813)
(-1.97809e-06 -1.16537e-07 0.10781)
(-2.89527e-06 -3.85343e-08 0.107788)
(-2.93047e-06 2.85253e-07 0.107785)
(2.03592e-06 -1.15335e-07 0.107811)
(2.93092e-06 -1.78863e-07 0.107789)
(2.83696e-06 5.4592e-08 0.107786)
(3.41386e-05 -3.41692e-05 0.104329)
(-4.48102e-05 4.48372e-05 0.104445)
(-5.15628e-08 2.0785e-06 0.107813)
(-3.13801e-07 3.00935e-06 0.107788)
(3.32701e-08 2.92451e-06 0.107787)
(4.45913e-05 4.46422e-05 0.104444)
(3.35562e-05 3.36022e-05 0.104306)
(-4.56029e-05 -4.56343e-05 0.104423)
(-3.1333e-07 -3.0056e-06 0.107778)
(3.7914e-07 -3.05687e-06 0.107777)
(-1.56057e-06 -4.3117e-06 0.107755)
(1.36581e-06 -4.24736e-06 0.107754)
(-3.3496e-05 3.34767e-05 0.104306)
(4.54297e-05 -4.54644e-05 0.104424)
(-3.10065e-06 -2.83693e-07 0.10778)
(-3.14314e-06 4.51747e-07 0.107777)
(-4.33817e-06 -1.62951e-06 0.107756)
(-4.18662e-06 1.21272e-06 0.107753)
(2.99362e-06 2.25857e-07 0.107777)
(4.27774e-06 -1.46193e-06 0.107757)
(4.2213e-06 1.53383e-06 0.107754)
(3.34236e-05 -3.34534e-05 0.104306)
(-4.53157e-05 4.52845e-05 0.104423)
(1.90976e-07 3.09516e-06 0.107779)
(-1.30491e-06 4.19962e-06 0.107756)
(1.59419e-06 4.27344e-06 0.107755)
(4.56079e-05 4.55898e-05 0.104422)
(3.18945e-05 3.18378e-05 0.104287)
(-4.4298e-05 -4.42542e-05 0.104401)
(-1.56954e-06 -4.74995e-06 0.107747)
(1.37695e-06 -4.65998e-06 0.107746)
(-8.28181e-07 -5.04229e-06 0.107725)
(9.45271e-07 -5.01882e-06 0.107724)
(-3.20625e-05 3.20146e-05 0.104286)
(4.44356e-05 -4.43506e-05 0.104402)
(-4.7681e-06 -1.65895e-06 0.107749)
(-4.58136e-06 1.26461e-06 0.107746)
(-5.10971e-06 -8.3194e-07 0.107726)
(-5.0555e-06 1.08559e-06 0.107723)
(4.73581e-06 1.67607e-06 0.107746)
(5.12779e-06 -8.76559e-07 0.107727)
(5.15344e-06 9.28607e-07 0.107724)
(3.2143e-05 -3.22115e-05 0.104286)
(-4.44714e-05 4.45839e-05 0.104401)
(1.76551e-06 4.75513e-06 0.107748)
(-1.03438e-06 5.19074e-06 0.107726)
(9.46411e-07 5.1994e-06 0.107725)
(4.4292e-05 4.43115e-05 0.104401)
(3.25032e-05 3.25377e-05 0.104266)
(-4.55522e-05 -4.55408e-05 0.104383)
(-8.41502e-07 -4.91799e-06 0.107717)
(1.03936e-06 -4.94528e-06 0.107716)
(-2.48847e-06 -5.76273e-06 0.107696)
(2.51359e-06 -5.83041e-06 0.107696)
(-3.23407e-05 3.23972e-05 0.104266)
(4.55182e-05 -4.5571e-05 0.104384)
(-5.00055e-06 -8.1424e-07 0.107719)
(-5.03298e-06 1.19076e-06 0.107716)
(-5.81702e-06 -2.49703e-06 0.107698)
(-5.84815e-06 2.44209e-06 0.107695)
(4.99847e-06 8.53375e-07 0.107717)
(5.85206e-06 -2.61618e-06 0.107699)
(5.65361e-06 2.35354e-06 0.107696)
(3.22667e-05 -3.22161e-05 0.104266)
(-4.54761e-05 4.54111e-05 0.104383)
(8.29208e-07 5.07488e-06 0.107718)
(-2.54688e-06 5.85279e-06 0.107698)
(2.34878e-06 5.73971e-06 0.107697)
(4.54301e-05 4.54649e-05 0.104382)
(3.02827e-05 3.02605e-05 0.104251)
(-4.48475e-05 -4.48698e-05 0.10437)
(-3.02517e-06 -6.42535e-06 0.10769)
(2.91132e-06 -6.43458e-06 0.107689)
(-2.70251e-06 -7.46513e-06 0.107672)
(2.63594e-06 -7.40881e-06 0.107671)
(-3.03706e-05 3.02716e-05 0.104251)
(4.4879e-05 -4.48428e-05 0.10437)
(-6.45951e-06 -3.07332e-06 0.107691)
(-6.40393e-06 2.78894e-06 0.107689)
(-7.4862e-06 -2.78067e-06 0.107673)
(-7.34881e-06 2.61363e-06 0.10767)
(6.31325e-06 2.95019e-06 0.107689)
(7.4637e-06 -2.64334e-06 0.107674)
(7.5431e-06 2.79764e-06 0.107671)
(3.0393e-05 -3.05102e-05 0.104251)
(-4.48472e-05 4.48923e-05 0.104369)
(2.9872e-06 6.37501e-06 0.107691)
(-2.63193e-06 7.41444e-06 0.107673)
(2.89117e-06 7.53141e-06 0.107672)
(4.49688e-05 4.49153e-05 0.104369)
(3.07275e-05 3.06999e-05 0.10424)
(-4.47832e-05 -4.47129e-05 0.104353)
(-2.3591e-06 -7.38307e-06 0.107666)
(2.36603e-06 -7.35674e-06 0.107665)
(-2.65539e-06 -7.30596e-06 0.107647)
(2.54139e-06 -7.29354e-06 0.107646)
(-3.06631e-05 3.06751e-05 0.104239)
(4.46472e-05 -4.46562e-05 0.104353)
(-7.41222e-06 -2.40845e-06 0.107667)
(-7.34004e-06 2.45249e-06 0.107664)
(-7.3898e-06 -2.59851e-06 0.107648)
(-7.3928e-06 2.68241e-06 0.107645)
(7.45534e-06 2.37351e-06 0.107665)
(7.33097e-06 -2.59854e-06 0.107649)
(7.21133e-06 2.54337e-06 0.107646)
(3.06201e-05 -3.05999e-05 0.104239)
(-4.47392e-05 4.47218e-05 0.104353)
(2.43398e-06 7.45862e-06 0.107666)
(-2.73518e-06 7.42685e-06 0.107648)
(2.47613e-06 7.31209e-06 0.107648)
(4.45899e-05 4.46763e-05 0.104352)
(2.9863e-05 2.99154e-05 0.104224)
(-4.51129e-05 -4.51512e-05 0.104341)
(-2.99554e-06 -7.50286e-06 0.107641)
(2.85174e-06 -7.46501e-06 0.10764)
(-3.70931e-06 -8.32789e-06 0.107623)
(3.94096e-06 -8.32694e-06 0.107623)
(-3.00226e-05 2.99772e-05 0.104224)
(4.53569e-05 -4.52653e-05 0.104341)
(-7.59683e-06 -2.94108e-06 0.107642)
(-7.54876e-06 2.89594e-06 0.107639)
(-8.36101e-06 -3.78883e-06 0.107625)
(-8.25753e-06 3.75382e-06 0.107622)
(7.41495e-06 2.97464e-06 0.10764)
(8.42639e-06 -3.87173e-06 0.107625)
(8.47639e-06 3.9418e-06 0.107623)
(2.99303e-05 -3.00025e-05 0.104224)
(-4.51307e-05 4.52105e-05 0.10434)
(2.91501e-06 7.51998e-06 0.107641)
(-3.70524e-06 8.33998e-06 0.107625)
(4.03865e-06 8.48085e-06 0.107624)
(4.53535e-05 4.52939e-05 0.10434)
(2.90697e-05 2.8997e-05 0.104215)
(-4.49136e-05 -4.49354e-05 0.104333)
(-3.844e-06 -8.58044e-06 0.107618)
(4.20096e-06 -8.63459e-06 0.107618)
(-4.06635e-06 -9.18421e-06 0.107604)
(4.00733e-06 -9.23731e-06 0.107604)
(-2.87779e-05 2.88463e-05 0.104215)
(4.47772e-05 -4.4849e-05 0.104334)
(-8.57551e-06 -3.96173e-06 0.10762)
(-8.53547e-06 4.04623e-06 0.107617)
(-9.17248e-06 -4.11676e-06 0.107605)
(-9.24792e-06 4.15354e-06 0.107603)
(8.75109e-06 4.0068e-06 0.107618)
(9.23845e-06 -4.12279e-06 0.107606)
(9.07883e-06 3.80621e-06 0.107603)
(2.89637e-05 -2.89222e-05 0.104214)
(-4.49756e-05 4.49179e-05 0.104333)
(4.13683e-06 8.72322e-06 0.107619)
(-4.24575e-06 9.2686e-06 0.107605)
(3.83655e-06 9.0928e-06 0.107605)
(4.46584e-05 4.46677e-05 0.104333)
(2.87748e-05 2.87643e-05 0.104209)
(-4.46835e-05 -4.45804e-05 0.104325)
(-4.06776e-06 -9.27529e-06 0.107599)
(3.76395e-06 -9.27562e-06 0.107599)
(-4.16036e-06 -9.25366e-06 0.107585)
(3.85899e-06 -9.15946e-06 0.107585)
(-2.90218e-05 2.88856e-05 0.104209)
(4.45448e-05 -4.45467e-05 0.104324)
(-9.30084e-06 -4.05904e-06 0.107601)
(-9.3161e-06 3.93008e-06 0.107598)
(-9.38408e-06 -4.08447e-06 0.107587)
(-9.21824e-06 3.83517e-06 0.107584)
(9.10691e-06 3.8058e-06 0.107599)
(9.15557e-06 -3.93072e-06 0.107587)
(9.23667e-06 4.23149e-06 0.107584)
(2.87686e-05 -2.88966e-05 0.104209)
(-4.45136e-05 4.44766e-05 0.104324)
(3.77756e-06 9.16242e-06 0.1076)
(-3.93409e-06 9.18582e-06 0.107587)
(4.18158e-06 9.32665e-06 0.107586)
(4.47131e-05 4.47764e-05 0.104323)
(2.84568e-05 2.85216e-05 0.104201)
(-4.49506e-05 -4.50477e-05 0.104318)
(-4.26814e-06 -9.29813e-06 0.107581)
(4.20068e-06 -9.23201e-06 0.10758)
(-4.77503e-06 -9.98484e-06 0.107568)
(5.08425e-06 -1.00113e-05 0.107567)
(-2.84903e-05 2.85055e-05 0.104201)
(4.51699e-05 -4.50679e-05 0.104318)
(-9.40956e-06 -4.23365e-06 0.107582)
(-9.25473e-06 4.10828e-06 0.107579)
(-9.93907e-06 -4.88299e-06 0.107569)
(-9.94957e-06 5.08768e-06 0.107566)
(9.37479e-06 4.45201e-06 0.10758)
(1.01288e-05 -4.97426e-06 0.10757)
(1.00852e-05 4.90085e-06 0.107567)
(2.85664e-05 -2.86116e-05 0.104201)
(-4.50703e-05 4.52115e-05 0.104317)
(4.44544e-06 9.44133e-06 0.107581)
(-4.95986e-06 1.01036e-05 0.107569)
(4.98601e-06 1.00769e-05 0.107569)
(4.50457e-05 4.49947e-05 0.104318)
(2.77073e-05 2.7597e-05 0.104197)
(-4.45359e-05 -4.44438e-05 0.104313)
(-4.89455e-06 -1.0243e-05 0.107564)
(5.12048e-06 -1.02669e-05 0.107563)
(-4.88152e-06 -1.04431e-05 0.107552)
(4.80872e-06 -1.04687e-05 0.107551)
(-2.75496e-05 2.75928e-05 0.104197)
(4.44695e-05 -4.45325e-05 0.104314)
(-1.01793e-05 -4.99621e-06 0.107565)
(-1.02356e-05 5.19623e-06 0.107562)
(-1.05436e-05 -4.84164e-06 0.107553)
(-1.05428e-05 4.80382e-06 0.107551)
(1.02685e-05 4.87989e-06 0.107563)
(1.04602e-05 -4.91533e-06 0.107554)
(1.03856e-05 4.71187e-06 0.107551)
(2.75544e-05 -2.7488e-05 0.104196)
(-4.45261e-05 4.4429e-05 0.104313)
(4.95883e-06 1.02534e-05 0.107564)
(-4.95086e-06 1.04896e-05 0.107553)
(4.71421e-06 1.04198e-05 0.107553)
(4.43936e-05 4.44229e-05 0.104313)
(2.77602e-05 2.7842e-05 0.104193)
(-4.45625e-05 -4.46828e-05 0.10431)
(-4.85903e-06 -1.03993e-05 0.107548)
(4.78043e-06 -1.04434e-05 0.107548)
(-5.18352e-06 -1.04599e-05 0.107538)
(5.16334e-06 -1.04626e-05 0.107537)
(-2.7832e-05 2.7741e-05 0.104194)
(4.45752e-05 -4.45577e-05 0.10431)
(-1.0531e-05 -4.81527e-06 0.107549)
(-1.05005e-05 4.71781e-06 0.107547)
(-1.04112e-05 -5.31283e-06 0.107539)
(-1.03117e-05 5.0372e-06 0.107536)
(1.03466e-05 4.74016e-06 0.107547)
(1.04792e-05 -5.17758e-06 0.10754)
(1.04855e-05 5.34239e-06 0.107537)
(2.77769e-05 -2.79075e-05 0.104193)
(-4.43852e-05 4.449e-05 0.104309)
(4.72831e-06 1.04123e-05 0.107549)
(-4.99208e-06 1.04329e-05 0.107539)
(5.40738e-06 1.05184e-05 0.107538)
(4.47442e-05 4.47195e-05 0.104309)
(2.7172e-05 2.7021e-05 0.104192)
(-4.50747e-05 -4.49629e-05 0.10431)
(-5.5412e-06 -1.06768e-05 0.107534)
(5.44131e-06 -1.06102e-05 0.107534)
(-6.09041e-06 -1.15811e-05 0.107525)
(5.91548e-06 -1.1454e-05 0.107524)
(-2.71868e-05 2.71886e-05 0.104192)
(4.49704e-05 -4.49283e-05 0.10431)
(-1.05698e-05 -5.69398e-06 0.107536)
(-1.04261e-05 5.3593e-06 0.107533)
(-1.16359e-05 -6.00047e-06 0.107527)
(-1.16325e-05 6.21564e-06 0.107524)
(1.07216e-05 5.69743e-06 0.107534)
(1.15176e-05 -5.92971e-06 0.107527)
(1.15795e-05 5.9832e-06 0.107525)
(2.7337e-05 -2.72786e-05 0.104191)
(-4.52982e-05 4.51797e-05 0.10431)
(5.79368e-06 1.07171e-05 0.107535)
(-6.29425e-06 1.15278e-05 0.107526)
(5.96383e-06 1.1553e-05 0.107526)
(4.48981e-05 4.49191e-05 0.10431)
(2.65703e-05 2.67214e-05 0.104193)
(-4.37981e-05 -4.37352e-05 0.104306)
(-5.76119e-06 -1.16461e-05 0.107522)
(5.75071e-06 -1.16431e-05 0.107521)
(-4.89685e-06 -1.09879e-05 0.107512)
(5.31578e-06 -1.12468e-05 0.107511)
(-2.65873e-05 2.65841e-05 0.104192)
(4.40926e-05 -4.40592e-05 0.104307)
(-1.18251e-05 -5.57329e-06 0.107523)
(-1.19018e-05 6.07914e-06 0.10752)
(-1.11502e-05 -4.83062e-06 0.107513)
(-1.12554e-05 5.16909e-06 0.107511)
(1.16193e-05 5.63884e-06 0.107521)
(1.12809e-05 -5.30885e-06 0.107514)
(1.10209e-05 5.01767e-06 0.107511)
(2.61822e-05 -2.63425e-05 0.104193)
(-4.37535e-05 4.39523e-05 0.104306)
(5.52129e-06 1.16905e-05 0.107523)
(-5.08852e-06 1.14482e-05 0.107513)
(4.8806e-06 1.12514e-05 0.107512)
(4.37813e-05 4.39387e-05 0.104305)
(2.73788e-05 2.73368e-05 0.104189)
(-4.46029e-05 -4.48633e-05 0.104306)
(-5.00875e-06 -1.08142e-05 0.107508)
(5.33996e-06 -1.10123e-05 0.107508)
(-6.1971e-06 -1.13189e-05 0.1075)
(5.71405e-06 -1.10495e-05 0.1075)
(-2.71051e-05 2.71265e-05 0.10419)
(4.42262e-05 -4.42877e-05 0.104306)
(-1.08447e-05 -5.11163e-06 0.10751)
(-1.08826e-05 5.03984e-06 0.107508)
(-1.10774e-05 -6.50781e-06 0.107502)
(-1.08534e-05 5.60029e-06 0.107499)
(1.08829e-05 5.13296e-06 0.107508)
(1.10386e-05 -5.80748e-06 0.107502)
(1.12659e-05 6.02355e-06 0.107499)
(2.74697e-05 -2.73309e-05 0.10419)
(-4.43637e-05 4.42054e-05 0.104305)
(5.15424e-06 1.10084e-05 0.107509)
(-5.74489e-06 1.0783e-05 0.107501)
(6.37509e-06 1.09976e-05 0.107501)
(4.4726e-05 4.44136e-05 0.104305)
(2.62199e-05 2.60112e-05 0.104192)
(-4.4498e-05 -4.42761e-05 0.104313)
(-6.52097e-06 -1.15758e-05 0.107498)
(5.93201e-06 -1.12673e-05 0.107497)
(-6.55546e-06 -1.19383e-05 0.107494)
(6.83136e-06 -1.20275e-05 0.107493)
(-2.66362e-05 2.652e-05 0.104192)
(4.48116e-05 -4.47696e-05 0.104313)
(-1.14064e-05 -6.70328e-06 0.1075)
(-1.12303e-05 6.06943e-06 0.107497)
(-1.21561e-05 -6.34336e-06 0.107495)
(-1.2288e-05 6.99039e-06 0.107492)
(1.14598e-05 6.28936e-06 0.107498)
(1.20362e-05 -6.86621e-06 0.107495)
(1.19304e-05 6.71129e-06 0.107493)
(2.63143e-05 -2.65598e-05 0.104191)
(-4.48111e-05 4.48362e-05 0.104312)
(6.54244e-06 1.12266e-05 0.107499)
(-7.01682e-06 1.2223e-05 0.107494)
(6.50149e-06 1.21309e-05 0.107494)
(4.44202e-05 4.46661e-05 0.104313)
(2.62266e-05 2.64023e-05 0.1042)
(-4.3389e-05 -4.35235e-05 0.104314)
(-6.18676e-06 -1.19633e-05 0.107492)
(6.87123e-06 -1.2231e-05 0.107491)
(-5.33819e-06 -1.15794e-05 0.107485)
(5.53483e-06 -1.16907e-05 0.107485)
(-2.57184e-05 2.57815e-05 0.1042)
(4.33536e-05 -4.32304e-05 0.104315)
(-1.21556e-05 -6.03801e-06 0.107493)
(-1.2297e-05 6.75989e-06 0.10749)
(-1.14639e-05 -5.51075e-06 0.107486)
(-1.13744e-05 5.40358e-06 0.107484)
(1.20625e-05 6.51909e-06 0.107491)
(1.18418e-05 -5.37011e-06 0.107487)
(1.17137e-05 5.38141e-06 0.107484)
(2.59312e-05 -2.58524e-05 0.1042)
(-4.31636e-05 4.33693e-05 0.104314)
(6.31128e-06 1.2316e-05 0.107493)
(-5.20112e-06 1.16793e-05 0.107487)
(5.51294e-06 1.16698e-05 0.107486)
(4.34413e-05 4.33141e-05 0.104314)
(2.68502e-05 2.67486e-05 0.104201)
(-4.49454e-05 -4.46591e-05 0.104316)
(-5.609e-06 -1.13361e-05 0.107482)
(5.26019e-06 -1.1281e-05 0.107482)
(-7.1732e-06 -1.17855e-05 0.107476)
(6.35633e-06 -1.15525e-05 0.107475)
(-2.70874e-05 2.71392e-05 0.104202)
(4.44566e-05 -4.45984e-05 0.104315)
(-1.12835e-05 -5.68956e-06 0.107484)
(-1.11546e-05 5.38323e-06 0.107482)
(-1.21033e-05 -6.88223e-06 0.107478)
(-1.2079e-05 6.73469e-06 0.107475)
(1.13872e-05 5.40754e-06 0.107482)
(1.14642e-05 -6.60707e-06 0.107478)
(1.16324e-05 6.91978e-06 0.107476)
(2.7041e-05 -2.7009e-05 0.104201)
(-4.49841e-05 4.46211e-05 0.104316)
(5.53105e-06 1.12873e-05 0.107484)
(-7.09215e-06 1.16968e-05 0.107477)
(6.74181e-06 1.17739e-05 0.107477)
(4.46275e-05 4.48074e-05 0.104315)
(2.51767e-05 2.5378e-05 0.104205)
(-4.24e-05 -4.29139e-05 0.104319)
(-7.13968e-06 -1.22585e-05 0.107474)
(6.82784e-06 -1.21282e-05 0.107473)
(-5.00011e-06 -1.20077e-05 0.107468)
(6.06589e-06 -1.22746e-05 0.107468)
(-2.54587e-05 2.53096e-05 0.104204)
(4.32215e-05 -4.31784e-05 0.10432)
(-1.25081e-05 -6.96291e-06 0.107476)
(-1.25365e-05 6.98422e-06 0.107473)
(-1.15851e-05 -5.52003e-06 0.10747)
(-1.15921e-05 5.50672e-06 0.107467)
(1.21641e-05 7.19004e-06 0.107474)
(1.22979e-05 -5.94878e-06 0.10747)
(1.21662e-05 5.34622e-06 0.107468)
(2.507e-05 -2.53819e-05 0.104205)
(-4.24191e-05 4.29137e-05 0.104319)
(7.02119e-06 1.23513e-05 0.107475)
(-5.17903e-06 1.20983e-05 0.107469)
(5.65451e-06 1.20321e-05 0.107469)
(4.29112e-05 4.26591e-05 0.104319)
(2.76987e-05 2.72195e-05 0.104209)
(-4.53041e-05 -4.48639e-05 0.104328)
(-4.87379e-06 -1.13324e-05 0.107467)
(5.55564e-06 -1.15344e-05 0.107466)
(-7.89051e-06 -1.14773e-05 0.107465)
(6.97805e-06 -1.12658e-05 0.107464)
(-2.70916e-05 2.70996e-05 0.104209)
(4.45034e-05 -4.45729e-05 0.104328)
(-1.09195e-05 -5.37585e-06 0.107468)
(-1.08983e-05 5.19625e-06 0.107465)
(-1.17928e-05 -7.54895e-06 0.107466)
(-1.18767e-05 7.44343e-06 0.107463)
(1.14218e-05 4.8634e-06 0.107466)
(1.1226e-05 -7.21194e-06 0.107467)
(1.12297e-05 7.39396e-06 0.107464)