/*--------------------------------*- C++ -*----------------------------------*\
| =========                 |                                                 |
| \\      /  F ield         | OpenFOAM: The Open Source CFD Toolbox           |
|  \\    /   O peration     | Version:  v2012                                 |
|   \\  /    A nd           | Website:  www.openfoam.com                      |
|    \\/     M anipulation  |                                                 |
\*---------------------------------------------------------------------------*/
FoamFile
{
    version     2.0;
    format      ascii;
    class       volScalarField;
    location    "750";
    object      epsilon;
}
// * * * * * * * * * * * * * * * * * * * * * * * * * * * * * * * * * * * * * //

dimensions      [0 2 -3 0 0 0 0];


internalField   nonuniform List<scalar> 
171728
(
4.95567e-07
4.9733e-07
4.9733e-07
4.99575e-07
4.45573e-07
4.53735e-07
4.53737e-07
4.6371e-07
4.03752e-07
4.18513e-07
4.18517e-07
4.39411e-07
3.68363e-07
3.88552e-07
3.88558e-07
4.17667e-07
3.38015e-07
3.62102e-07
3.6211e-07
3.96081e-07
3.11646e-07
3.38273e-07
3.38281e-07
3.7458e-07
2.88473e-07
3.16638e-07
3.16646e-07
3.5371e-07
2.67923e-07
2.97021e-07
2.97031e-07
3.34147e-07
2.4958e-07
2.7937e-07
2.79379e-07
3.16484e-07
2.33137e-07
2.63679e-07
2.63688e-07
3.01161e-07
2.18366e-07
2.49955e-07
2.49964e-07
2.88493e-07
2.0509e-07
2.38198e-07
2.38208e-07
2.78694e-07
1.93172e-07
2.28411e-07
2.28421e-07
2.71875e-07
1.82498e-07
2.206e-07
2.20611e-07
2.68162e-07
1.72979e-07
2.14772e-07
2.14785e-07
2.67641e-07
1.64541e-07
2.10937e-07
2.10952e-07
2.70491e-07
1.57121e-07
2.09106e-07
2.09125e-07
2.76695e-07
1.50668e-07
2.09295e-07
2.09318e-07
2.8628e-07
1.45137e-07
2.1155e-07
2.11577e-07
2.99231e-07
1.40492e-07
2.15886e-07
2.15917e-07
3.15612e-07
1.36703e-07
2.22326e-07
2.22361e-07
3.35366e-07
1.33748e-07
2.30886e-07
2.30923e-07
3.58396e-07
1.31605e-07
2.41553e-07
2.41593e-07
3.84533e-07
1.30258e-07
2.54306e-07
2.5435e-07
4.13525e-07
1.29696e-07
2.691e-07
2.69149e-07
4.45039e-07
1.29921e-07
2.8587e-07
2.85923e-07
4.78679e-07
1.3091e-07
3.04529e-07
3.04588e-07
5.14022e-07
1.32666e-07
3.24975e-07
3.25038e-07
5.50612e-07
1.35188e-07
3.47088e-07
3.47156e-07
5.88012e-07
1.38479e-07
3.70728e-07
3.70801e-07
6.25793e-07
1.42541e-07
3.95755e-07
3.95833e-07
6.63581e-07
1.47378e-07
4.22005e-07
4.22087e-07
7.01033e-07
1.52998e-07
4.49321e-07
4.49406e-07
7.37892e-07
1.59401e-07
4.77518e-07
4.77608e-07
7.73927e-07
1.66601e-07
5.06439e-07
5.06532e-07
8.09008e-07
1.74588e-07
5.35884e-07
5.3598e-07
8.42941e-07
1.83379e-07
5.65712e-07
5.6581e-07
8.75769e-07
1.92953e-07
5.9571e-07
5.95814e-07
9.07392e-07
2.03306e-07
6.25724e-07
6.25832e-07
9.37804e-07
2.14428e-07
6.55606e-07
6.55714e-07
9.67018e-07
2.2629e-07
6.85191e-07
6.85303e-07
9.95026e-07
2.38868e-07
7.14344e-07
7.1446e-07
1.02184e-06
2.52126e-07
7.42954e-07
7.43072e-07
1.04751e-06
2.66024e-07
7.70901e-07
7.7102e-07
1.07204e-06
2.80511e-07
7.98105e-07
7.9822e-07
1.09551e-06
2.9553e-07
8.24479e-07
8.24598e-07
1.11791e-06
3.10989e-07
8.49912e-07
8.50022e-07
1.13924e-06
3.26848e-07
8.74414e-07
8.74532e-07
1.15961e-06
3.43038e-07
8.97964e-07
8.98067e-07
1.17903e-06
3.5944e-07
9.20445e-07
9.20561e-07
1.19748e-06
3.76022e-07
9.41955e-07
9.42065e-07
1.21505e-06
3.92631e-07
9.6239e-07
9.6249e-07
1.23169e-06
4.09304e-07
9.81906e-07
9.82013e-07
1.24758e-06
4.25793e-07
1.00024e-06
1.00034e-06
1.26245e-06
4.42137e-07
1.01774e-06
1.01785e-06
1.27668e-06
4.58403e-07
1.03432e-06
1.0344e-06
1.29021e-06
4.74156e-07
1.04973e-06
1.04982e-06
1.30274e-06
4.89581e-07
1.0643e-06
1.06442e-06
1.31471e-06
5.04749e-07
1.07805e-06
1.0781e-06
1.32599e-06
5.19419e-07
1.0909e-06
1.091e-06
1.33659e-06
5.33315e-07
1.1025e-06
1.10264e-06
1.34624e-06
5.46994e-07
1.11401e-06
1.11395e-06
1.35571e-06
5.60204e-07
1.124e-06
1.12438e-06
1.36451e-06
5.72316e-07
1.13364e-06
1.13339e-06
1.37205e-06
5.84098e-07
1.14191e-06
1.14203e-06
1.3793e-06
5.94796e-07
1.1495e-06
1.14977e-06
1.3855e-06
6.06062e-07
1.15789e-06
1.15805e-06
1.39387e-06
6.17858e-07
1.16656e-06
1.16664e-06
1.40136e-06
6.23957e-07
1.16825e-06
1.16793e-06
1.40094e-06
6.32108e-07
1.17394e-06
1.17306e-06
1.40632e-06
6.42253e-07
1.17891e-06
1.18355e-06
1.41942e-06
6.52468e-07
1.19144e-06
1.18904e-06
1.42285e-06
6.53711e-07
1.18739e-06
1.1811e-06
1.40691e-06
6.46366e-07
1.15974e-06
1.16163e-06
1.38394e-06
6.64353e-07
1.19023e-06
1.19933e-06
1.44281e-06
7.15967e-07
1.2718e-06
1.27035e-06
1.52664e-06
7.05733e-07
1.23386e-06
1.22941e-06
1.47127e-06
6.34451e-07
1.11547e-06
1.11625e-06
1.32423e-06
6.20136e-07
1.11038e-06
1.10813e-06
1.32915e-06
6.83796e-07
1.20481e-06
1.20551e-06
1.45642e-06
7.18505e-07
1.22304e-06
1.23576e-06
1.48187e-06
7.01658e-07
1.20571e-06
1.20547e-06
1.42926e-06
6.85059e-07
1.1983e-06
1.1858e-06
1.40765e-06
6.96373e-07
1.21615e-06
1.21086e-06
1.47003e-06
7.23098e-07
1.243e-06
1.23276e-06
1.51225e-06
7.04345e-07
1.19315e-06
1.19202e-06
1.4371e-06
6.50709e-07
1.11416e-06
1.13783e-06
1.3292e-06
6.45599e-07
1.12122e-06
1.14501e-06
1.3463e-06
7.03304e-07
1.21721e-06
1.20761e-06
1.4655e-06
7.28841e-07
1.23703e-06
1.21287e-06
1.4877e-06
6.92741e-07
1.16462e-06
1.15465e-06
1.39522e-06
6.57721e-07
1.12103e-06
1.13445e-06
1.3513e-06
6.66211e-07
1.14694e-06
1.16689e-06
1.39932e-06
6.91858e-07
1.18689e-06
1.19036e-06
1.43765e-06
6.76449e-07
1.12961e-06
1.12101e-06
1.38134e-06
5.06417e-07
5.05584e-07
5.05582e-07
5.06417e-07
5.05583e-07
5.05582e-07
5.09649e-07
5.09649e-07
5.09649e-07
5.09649e-07
5.05584e-07
5.05584e-07
5.06418e-07
5.05584e-07
5.05583e-07
5.06418e-07
4.99575e-07
4.67237e-07
4.97331e-07
4.97335e-07
4.63713e-07
4.63721e-07
4.99575e-07
4.67235e-07
4.97335e-07
4.97336e-07
4.63718e-07
4.63724e-07
4.97332e-07
4.63709e-07
4.63714e-07
4.99575e-07
4.67241e-07
4.97334e-07
4.6371e-07
4.63719e-07
4.6724e-07
4.63709e-07
4.41426e-07
4.5374e-07
4.53748e-07
4.26738e-07
4.26747e-07
4.63708e-07
4.4142e-07
4.53744e-07
4.53751e-07
4.26739e-07
4.26751e-07
4.53741e-07
4.26729e-07
4.26741e-07
4.63711e-07
4.41431e-07
4.53744e-07
4.26734e-07
4.26741e-07
4.41429e-07
4.39407e-07
4.19283e-07
4.18522e-07
4.1853e-07
3.95676e-07
3.95682e-07
4.39405e-07
4.19275e-07
4.18522e-07
4.18535e-07
3.95672e-07
3.95689e-07
4.18525e-07
3.95663e-07
3.95679e-07
4.39413e-07
4.19289e-07
4.18523e-07
3.95669e-07
3.95673e-07
4.19287e-07
4.17662e-07
3.97645e-07
3.88566e-07
3.88571e-07
3.68461e-07
3.68466e-07
4.17656e-07
3.97636e-07
3.8856e-07
3.88578e-07
3.68452e-07
3.68473e-07
3.88569e-07
3.68444e-07
3.68464e-07
4.17669e-07
3.97651e-07
3.88562e-07
3.68452e-07
3.68454e-07
3.97649e-07
3.96076e-07
3.76085e-07
3.6212e-07
3.62124e-07
3.44033e-07
3.44036e-07
3.96069e-07
3.76076e-07
3.62109e-07
3.62131e-07
3.4402e-07
3.44043e-07
3.62123e-07
3.44013e-07
3.44036e-07
3.96082e-07
3.76091e-07
3.62111e-07
3.44022e-07
3.44021e-07
3.7609e-07
3.74575e-07
3.55111e-07
3.38293e-07
3.38295e-07
3.21875e-07
3.21876e-07
3.74568e-07
3.55101e-07
3.38279e-07
3.38303e-07
3.21858e-07
3.21884e-07
3.38296e-07
3.21853e-07
3.21877e-07
3.74581e-07
3.55117e-07
3.3828e-07
3.21862e-07
3.2186e-07
3.55116e-07
3.53704e-07
3.35395e-07
3.16659e-07
3.16661e-07
3.01763e-07
3.01764e-07
3.53696e-07
3.35385e-07
3.16642e-07
3.16668e-07
3.01745e-07
3.01771e-07
3.16662e-07
3.0174e-07
3.01765e-07
3.5371e-07
3.35401e-07
3.16644e-07
3.01749e-07
3.01746e-07
3.354e-07
3.34141e-07
3.17533e-07
2.97044e-07
2.97045e-07
2.83623e-07
2.83623e-07
3.34134e-07
3.17523e-07
2.97026e-07
2.97053e-07
2.83603e-07
2.83631e-07
2.97047e-07
2.83599e-07
2.83625e-07
3.34148e-07
3.17539e-07
2.97027e-07
2.83608e-07
2.83604e-07
3.17539e-07
3.16478e-07
3.01975e-07
2.79394e-07
2.79394e-07
2.67442e-07
2.67442e-07
3.1647e-07
3.01965e-07
2.79374e-07
2.79402e-07
2.67421e-07
2.67449e-07
2.79396e-07
2.67417e-07
2.67443e-07
3.16484e-07
3.01981e-07
2.79375e-07
2.67426e-07
2.67421e-07
3.01981e-07
3.01154e-07
2.89041e-07
2.63704e-07
2.63704e-07
2.53227e-07
2.53227e-07
3.01146e-07
2.8903e-07
2.63682e-07
2.63711e-07
2.53204e-07
2.53234e-07
2.63705e-07
2.532e-07
2.53228e-07
3.01162e-07
2.89047e-07
2.63683e-07
2.5321e-07
2.53205e-07
2.89046e-07
2.88486e-07
2.78949e-07
2.49981e-07
2.49981e-07
2.40981e-07
2.4098e-07
2.88477e-07
2.78938e-07
2.49958e-07
2.49989e-07
2.40956e-07
2.40988e-07
2.49982e-07
2.40952e-07
2.4098e-07
2.88493e-07
2.78957e-07
2.49959e-07
2.40961e-07
2.40957e-07
2.78955e-07
2.78688e-07
2.71829e-07
2.38227e-07
2.38227e-07
2.30702e-07
2.30702e-07
2.78679e-07
2.71816e-07
2.38203e-07
2.38235e-07
2.30676e-07
2.3071e-07
2.38227e-07
2.3067e-07
2.30701e-07
2.78696e-07
2.71837e-07
2.38204e-07
2.30681e-07
2.30676e-07
2.71835e-07
2.71867e-07
2.67861e-07
2.28441e-07
2.28443e-07
2.22398e-07
2.224e-07
2.71857e-07
2.67847e-07
2.28417e-07
2.28451e-07
2.22372e-07
2.22408e-07
2.28442e-07
2.22364e-07
2.22397e-07
2.71877e-07
2.67871e-07
2.28417e-07
2.22375e-07
2.22371e-07
2.67869e-07
2.68153e-07
2.66978e-07
2.20632e-07
2.20637e-07
2.16076e-07
2.1608e-07
2.68141e-07
2.66963e-07
2.20608e-07
2.20645e-07
2.16048e-07
2.16088e-07
2.20634e-07
2.16038e-07
2.16074e-07
2.68163e-07
2.6699e-07
2.20608e-07
2.1605e-07
2.16047e-07
2.66988e-07
2.67632e-07
2.69151e-07
2.1481e-07
2.14815e-07
2.11744e-07
2.11752e-07
2.67617e-07
2.69134e-07
2.14783e-07
2.14824e-07
2.11717e-07
2.11761e-07
2.14809e-07
2.11701e-07
2.11741e-07
2.67642e-07
2.69165e-07
2.14782e-07
2.11716e-07
2.11714e-07
2.69163e-07
2.70481e-07
2.7466e-07
2.10981e-07
2.10989e-07
2.09414e-07
2.09422e-07
2.70464e-07
2.74638e-07
2.10954e-07
2.10999e-07
2.09386e-07
2.09435e-07
2.10978e-07
2.09363e-07
2.09408e-07
2.70493e-07
2.74675e-07
2.1095e-07
2.09381e-07
2.0938e-07
2.74672e-07
2.76684e-07
2.83545e-07
2.09157e-07
2.09166e-07
2.09128e-07
2.09136e-07
2.76663e-07
2.8352e-07
2.0913e-07
2.09178e-07
2.091e-07
2.09153e-07
2.09152e-07
2.0907e-07
2.09121e-07
2.76697e-07
2.83562e-07
2.09123e-07
2.09092e-07
2.09091e-07
2.83558e-07
2.86271e-07
2.95812e-07
2.09354e-07
2.09363e-07
2.10851e-07
2.10857e-07
2.86243e-07
2.95783e-07
2.09327e-07
2.09381e-07
2.10821e-07
2.10881e-07
2.09347e-07
2.10784e-07
2.10841e-07
2.86283e-07
2.95832e-07
2.09318e-07
2.1081e-07
2.10811e-07
2.95827e-07
2.99219e-07
3.11501e-07
2.11616e-07
2.11626e-07
2.14675e-07
2.14684e-07
2.99188e-07
3.11466e-07
2.11588e-07
2.11649e-07
2.14644e-07
2.14709e-07
2.11607e-07
2.14599e-07
2.14663e-07
2.99236e-07
3.11523e-07
2.11577e-07
2.14628e-07
2.14632e-07
3.11517e-07
3.15596e-07
3.30565e-07
2.15962e-07
2.15975e-07
2.20595e-07
2.20616e-07
3.15561e-07
3.30527e-07
2.15933e-07
2.16e-07
2.20565e-07
2.20641e-07
2.15951e-07
2.20517e-07
2.20587e-07
3.15616e-07
3.30592e-07
2.1592e-07
2.20549e-07
2.20554e-07
3.30584e-07
3.35347e-07
3.52915e-07
2.22404e-07
2.22429e-07
2.28629e-07
2.28662e-07
3.3531e-07
3.52875e-07
2.22377e-07
2.22455e-07
2.28601e-07
2.28688e-07
2.22398e-07
2.28549e-07
2.28626e-07
3.35372e-07
3.52948e-07
2.22365e-07
2.28584e-07
2.28592e-07
3.52941e-07
3.58373e-07
3.78401e-07
2.30967e-07
2.31003e-07
2.38774e-07
2.38817e-07
3.58334e-07
3.78358e-07
2.3094e-07
2.31029e-07
2.38746e-07
2.38844e-07
2.30965e-07
2.3869e-07
2.38775e-07
3.58402e-07
3.78438e-07
2.3093e-07
2.38728e-07
2.38739e-07
3.78431e-07
3.84506e-07
4.06786e-07
2.41638e-07
2.41683e-07
2.51014e-07
2.51066e-07
3.84465e-07
4.06741e-07
2.41611e-07
2.41711e-07
2.50985e-07
2.51095e-07
2.41639e-07
2.50925e-07
2.51018e-07
3.84538e-07
4.0683e-07
2.41602e-07
2.50966e-07
2.50979e-07
4.06823e-07
4.13493e-07
4.37752e-07
2.54397e-07
2.5445e-07
2.65311e-07
2.65369e-07
4.13449e-07
4.37703e-07
2.54368e-07
2.5448e-07
2.65278e-07
2.654e-07
2.54401e-07
2.65214e-07
2.65317e-07
4.1353e-07
4.37799e-07
2.54363e-07
2.65259e-07
2.65279e-07
4.37794e-07
4.45e-07
4.70913e-07
2.692e-07
2.69258e-07
2.81602e-07
2.81666e-07
4.44953e-07
4.70862e-07
2.69168e-07
2.69291e-07
2.81565e-07
2.81699e-07
2.69206e-07
2.81497e-07
2.81611e-07
4.45042e-07
4.70968e-07
2.69169e-07
2.81547e-07
2.81572e-07
4.70964e-07
4.78633e-07
5.05855e-07
2.85978e-07
2.86042e-07
2.99808e-07
2.99876e-07
4.78584e-07
5.05798e-07
2.85941e-07
2.86077e-07
2.99764e-07
2.99911e-07
2.85987e-07
2.99693e-07
2.99819e-07
4.78681e-07
5.05912e-07
2.85948e-07
2.99747e-07
2.99777e-07
5.05912e-07
5.13969e-07
5.42129e-07
3.04646e-07
3.04714e-07
3.19827e-07
3.19899e-07
5.13915e-07
5.42071e-07
3.04604e-07
3.04753e-07
3.19777e-07
3.19937e-07
3.04659e-07
3.19703e-07
3.19841e-07
5.1402e-07
5.42194e-07
3.04616e-07
3.19762e-07
3.19794e-07
5.42192e-07
5.50555e-07
5.79292e-07
3.25102e-07
3.25172e-07
3.41544e-07
3.41619e-07
5.505e-07
5.7923e-07
3.25053e-07
3.25214e-07
3.41485e-07
3.41659e-07
3.25117e-07
3.41411e-07
3.41561e-07
5.50612e-07
5.79362e-07
3.25068e-07
3.41474e-07
3.41507e-07
5.79364e-07
5.87947e-07
6.16921e-07
3.47224e-07
3.47296e-07
3.64826e-07
3.64902e-07
5.87889e-07
6.16855e-07
3.47166e-07
3.47341e-07
3.64758e-07
3.64944e-07
3.47242e-07
3.64682e-07
3.64846e-07
5.8801e-07
6.16993e-07
3.47186e-07
3.6475e-07
3.64784e-07
6.16998e-07
6.25723e-07
6.54626e-07
3.70874e-07
3.70945e-07
3.89531e-07
3.89609e-07
6.25659e-07
6.54559e-07
3.70808e-07
3.70994e-07
3.89453e-07
3.89652e-07
3.70895e-07
3.89378e-07
3.89554e-07
6.25787e-07
6.54702e-07
3.70831e-07
3.8945e-07
3.89484e-07
6.54708e-07
6.63506e-07
6.92066e-07
3.95911e-07
3.95978e-07
4.15498e-07
4.15574e-07
6.63442e-07
6.91995e-07
3.95835e-07
3.96033e-07
4.1541e-07
4.15622e-07
3.95935e-07
4.15336e-07
4.15525e-07
6.63572e-07
6.92145e-07
3.95863e-07
4.15413e-07
4.15446e-07
6.92153e-07
7.00954e-07
7.28969e-07
4.22169e-07
4.22242e-07
4.42573e-07
4.42645e-07
7.00888e-07
7.28891e-07
4.22083e-07
4.22294e-07
4.42475e-07
4.42696e-07
4.22197e-07
4.42402e-07
4.42603e-07
7.01024e-07
7.29047e-07
4.22116e-07
4.42481e-07
4.42514e-07
7.29058e-07
7.37812e-07
7.65097e-07
4.49493e-07
4.49565e-07
4.7057e-07
4.70643e-07
7.37739e-07
7.65018e-07
4.49397e-07
4.49618e-07
4.70462e-07
4.70696e-07
4.49525e-07
4.70394e-07
4.70605e-07
7.37879e-07
7.65182e-07
4.49435e-07
4.70479e-07
4.70507e-07
7.65191e-07
7.73843e-07
8.00307e-07
4.77696e-07
4.77768e-07
4.99338e-07
4.99406e-07
7.73769e-07
8.0022e-07
4.77592e-07
4.77822e-07
4.99222e-07
4.9946e-07
4.77732e-07
4.99154e-07
4.99377e-07
7.73917e-07
8.00383e-07
4.77633e-07
4.99241e-07
4.9927e-07
8.004e-07
8.08923e-07
8.34423e-07
5.06625e-07
5.06692e-07
5.28664e-07
5.28733e-07
8.08841e-07
8.34338e-07
5.06512e-07
5.06749e-07
5.2854e-07
5.28792e-07
5.06665e-07
5.28479e-07
5.2871e-07
8.08989e-07
8.34508e-07
5.06557e-07
5.28572e-07
5.28595e-07
8.3452e-07
8.4285e-07
8.67454e-07
5.36069e-07
5.36138e-07
5.5842e-07
5.58485e-07
8.42771e-07
8.67369e-07
5.35948e-07
5.36196e-07
5.5829e-07
5.58542e-07
5.36115e-07
5.58231e-07
5.58469e-07
8.42928e-07
8.67532e-07
5.36e-07
5.58324e-07
5.58347e-07
8.67548e-07
8.75683e-07
8.99305e-07
5.65903e-07
5.65965e-07
5.88395e-07
5.88455e-07
8.75601e-07
8.99217e-07
5.65776e-07
5.66024e-07
5.88259e-07
5.88516e-07
5.65954e-07
5.88203e-07
5.8845e-07
8.75751e-07
8.99382e-07
5.65831e-07
5.88302e-07
5.88321e-07
8.99402e-07
9.07304e-07
9.29946e-07
5.95903e-07
5.95962e-07
6.18418e-07
6.18475e-07
9.07221e-07
9.29857e-07
5.95772e-07
5.96023e-07
6.18279e-07
6.18537e-07
5.95958e-07
6.18226e-07
6.1848e-07
9.07373e-07
9.3002e-07
5.9583e-07
6.18328e-07
6.18345e-07
9.30041e-07
9.37715e-07
9.59397e-07
6.25916e-07
6.25973e-07
6.48343e-07
6.484e-07
9.37632e-07
9.59311e-07
6.25783e-07
6.26036e-07
6.48203e-07
6.48462e-07
6.2598e-07
6.48156e-07
6.48412e-07
9.37781e-07
9.5947e-07
6.25848e-07
6.48261e-07
6.48273e-07
9.59493e-07
9.6693e-07
9.87654e-07
6.55796e-07
6.55851e-07
6.78015e-07
6.78072e-07
9.66849e-07
9.87567e-07
6.55662e-07
6.55911e-07
6.77876e-07
6.78133e-07
6.55863e-07
6.77831e-07
6.7809e-07
9.66995e-07
9.87717e-07
6.55729e-07
6.77941e-07
6.77953e-07
9.87742e-07
9.9494e-07
1.01471e-06
6.85374e-07
6.85427e-07
7.07283e-07
7.07331e-07
9.94861e-07
1.01462e-06
6.85247e-07
6.85492e-07
7.07151e-07
7.07398e-07
6.85451e-07
7.07099e-07
7.07366e-07
9.95e-07
1.01477e-06
6.85314e-07
7.07214e-07
7.07228e-07
1.0148e-06
1.02175e-06
1.04061e-06
7.14527e-07
7.14575e-07
7.36036e-07
7.36085e-07
1.02167e-06
1.04053e-06
7.14402e-07
7.14641e-07
7.35906e-07
7.36151e-07
7.1461e-07
7.3586e-07
7.36128e-07
1.02181e-06
1.04067e-06
7.14472e-07
7.35977e-07
7.35989e-07
1.0407e-06
1.04742e-06
1.06538e-06
7.4313e-07
7.43176e-07
7.64154e-07
7.642e-07
1.04734e-06
1.06529e-06
7.43008e-07
7.43245e-07
7.64029e-07
7.64264e-07
7.4322e-07
7.63982e-07
7.64245e-07
1.04747e-06
1.06543e-06
7.43082e-07
7.641e-07
7.64108e-07
1.06546e-06
1.07196e-06
1.08907e-06
7.71073e-07
7.71117e-07
7.91547e-07
7.91587e-07
1.07187e-06
1.08898e-06
7.70955e-07
7.71182e-07
7.91421e-07
7.91645e-07
7.71164e-07
7.91377e-07
7.91642e-07
1.072e-06
1.08911e-06
7.71029e-07
7.91489e-07
7.91505e-07
1.08916e-06
1.09542e-06
1.11171e-06
7.98278e-07
7.98313e-07
8.18137e-07
8.18175e-07
1.09534e-06
1.11162e-06
7.98159e-07
7.98376e-07
8.18015e-07
8.18241e-07
7.98373e-07
8.17973e-07
8.18233e-07
1.09546e-06
1.11176e-06
7.98237e-07
8.18093e-07
8.181e-07
1.11179e-06
1.11783e-06
1.13326e-06
8.2464e-07
8.24679e-07
8.43792e-07
8.43834e-07
1.11775e-06
1.13318e-06
8.24524e-07
8.24743e-07
8.43671e-07
8.43891e-07
8.24738e-07
8.4364e-07
8.43891e-07
1.11788e-06
1.1333e-06
8.24606e-07
8.43754e-07
8.43761e-07
1.13334e-06
1.13916e-06
1.15384e-06
8.50068e-07
8.50104e-07
8.68536e-07
8.68561e-07
1.13908e-06
1.15375e-06
8.49952e-07
8.50159e-07
8.68415e-07
8.68623e-07
8.50165e-07
8.68374e-07
8.68628e-07
1.1392e-06
1.15387e-06
8.50035e-07
8.6849e-07
8.685e-07
1.15392e-06
1.15954e-06
1.17346e-06
8.74576e-07
8.74599e-07
8.92318e-07
8.92356e-07
1.15945e-06
1.17338e-06
8.74461e-07
8.74663e-07
8.92195e-07
8.92404e-07
8.74669e-07
8.92175e-07
8.92412e-07
1.15957e-06
1.1735e-06
8.74542e-07
8.92282e-07
8.92287e-07
1.17354e-06
1.17895e-06
1.19211e-06
8.98103e-07
8.98142e-07
9.15061e-07
9.15088e-07
1.17888e-06
1.19203e-06
8.97987e-07
8.98187e-07
9.14943e-07
9.15146e-07
8.98202e-07
9.14914e-07
9.15155e-07
1.17899e-06
1.19215e-06
8.98077e-07
9.15028e-07
9.15036e-07
1.1922e-06
1.1974e-06
1.20987e-06
9.20598e-07
9.20617e-07
9.36824e-07
9.36843e-07
1.19732e-06
1.20978e-06
9.20486e-07
9.20679e-07
9.36706e-07
9.369e-07
9.2069e-07
9.36677e-07
9.36917e-07
1.19744e-06
1.20991e-06
9.2057e-07
9.36791e-07
9.368e-07
1.20995e-06
1.21497e-06
1.2267e-06
9.42094e-07
9.42121e-07
9.57498e-07
9.57529e-07
1.21489e-06
1.22663e-06
9.41981e-07
9.42173e-07
9.57375e-07
9.57566e-07
9.42189e-07
9.57368e-07
9.57588e-07
1.215e-06
1.22673e-06
9.42071e-07
9.57467e-07
9.57473e-07
1.22678e-06
1.23162e-06
1.24277e-06
9.62526e-07
9.62549e-07
9.77271e-07
9.77286e-07
1.23155e-06
1.24268e-06
9.62413e-07
9.62594e-07
9.77156e-07
9.77341e-07
9.62612e-07
9.77128e-07
9.77352e-07
1.23165e-06
1.24279e-06
9.62498e-07
9.77236e-07
9.77241e-07
1.24283e-06
1.24751e-06
1.25783e-06
9.82032e-07
9.82058e-07
9.95889e-07
9.95913e-07
1.24742e-06
1.25777e-06
9.81925e-07
9.82113e-07
9.95769e-07
9.9594e-07
9.82132e-07
9.95762e-07
9.95978e-07
1.24753e-06
1.25786e-06
9.8202e-07
9.95853e-07
9.95863e-07
1.25792e-06
1.26237e-06
1.27216e-06
1.00038e-06
1.0004e-06
1.01355e-06
1.01358e-06
1.26231e-06
1.27209e-06
1.00027e-06
1.00043e-06
1.01343e-06
1.01363e-06
1.00046e-06
1.01344e-06
1.01366e-06
1.2624e-06
1.27221e-06
1.00035e-06
1.01356e-06
1.01356e-06
1.27225e-06
1.27659e-06
1.28591e-06
1.01785e-06
1.01788e-06
1.03043e-06
1.03043e-06
1.27652e-06
1.28582e-06
1.01774e-06
1.01794e-06
1.03032e-06
1.03046e-06
1.01796e-06
1.03029e-06
1.03049e-06
1.27664e-06
1.28591e-06
1.01786e-06
1.03037e-06
1.03038e-06
1.28597e-06
1.29016e-06
1.29863e-06
1.03447e-06
1.03446e-06
1.04608e-06
1.04611e-06
1.29007e-06
1.29854e-06
1.03436e-06
1.03448e-06
1.04596e-06
1.04613e-06
1.03454e-06
1.04596e-06
1.04614e-06
1.29014e-06
1.29864e-06
1.03443e-06
1.04605e-06
1.04603e-06
1.29868e-06
1.30267e-06
1.31062e-06
1.04984e-06
1.04988e-06
1.0608e-06
1.06084e-06
1.30261e-06
1.31058e-06
1.04973e-06
1.04991e-06
1.06071e-06
1.06092e-06
1.04992e-06
1.06072e-06
1.06095e-06
1.30271e-06
1.31072e-06
1.0498e-06
1.06085e-06
1.06085e-06
1.31075e-06
1.31457e-06
1.32213e-06
1.06438e-06
1.06443e-06
1.07484e-06
1.07487e-06
1.31454e-06
1.32208e-06
1.06429e-06
1.06449e-06
1.07472e-06
1.07484e-06
1.06452e-06
1.07474e-06
1.07491e-06
1.31466e-06
1.32212e-06
1.06443e-06
1.07478e-06
1.07481e-06
1.3222e-06
1.32594e-06
1.33292e-06
1.07817e-06
1.07818e-06
1.08791e-06
1.08787e-06
1.32588e-06
1.33276e-06
1.07805e-06
1.07816e-06
1.08779e-06
1.08791e-06
1.07823e-06
1.08773e-06
1.08793e-06
1.32591e-06
1.33287e-06
1.07813e-06
1.08782e-06
1.08782e-06
1.33292e-06
1.33659e-06
1.34271e-06
1.0911e-06
1.09106e-06
1.09981e-06
1.09988e-06
1.33643e-06
1.34268e-06
1.09098e-06
1.09109e-06
1.09972e-06
1.09997e-06
1.09112e-06
1.09976e-06
1.09993e-06
1.33655e-06
1.34283e-06
1.091e-06
1.09989e-06
1.09983e-06
1.34282e-06
1.34609e-06
1.35196e-06
1.10249e-06
1.10259e-06
1.11107e-06
1.11116e-06
1.34611e-06
1.35202e-06
1.10243e-06
1.10271e-06
1.11096e-06
1.11112e-06
1.10268e-06
1.11108e-06
1.11126e-06
1.34625e-06
1.35204e-06
1.10259e-06
1.11109e-06
1.11116e-06
1.35216e-06
1.35557e-06
1.36145e-06
1.11407e-06
1.11415e-06
1.12208e-06
1.12196e-06
1.3556e-06
1.3612e-06
1.11392e-06
1.11398e-06
1.12194e-06
1.12199e-06
1.11414e-06
1.12175e-06
1.12197e-06
1.35556e-06
1.3613e-06
1.11403e-06
1.12193e-06
1.12191e-06
1.36134e-06
1.36459e-06
1.36878e-06
1.12435e-06
1.12416e-06
1.13111e-06
1.1312e-06
1.36428e-06
1.36867e-06
1.12427e-06
1.12443e-06
1.13106e-06
1.13136e-06
1.12436e-06
1.13113e-06
1.13129e-06
1.36452e-06
1.36896e-06
1.12434e-06
1.13125e-06
1.13117e-06
1.36893e-06
1.37194e-06
1.37645e-06
1.13353e-06
1.13372e-06
1.1402e-06
1.14011e-06
1.37196e-06
1.37644e-06
1.13342e-06
1.13354e-06
1.1401e-06
1.13994e-06
1.1336e-06
1.14006e-06
1.14025e-06
1.37201e-06
1.37607e-06
1.1334e-06
1.13982e-06
1.14006e-06
1.37635e-06
1.37934e-06
1.3823e-06
1.1421e-06
1.14197e-06
1.14751e-06
1.14786e-06
1.37924e-06
1.38246e-06
1.14207e-06
1.14213e-06
1.14737e-06
1.14803e-06
1.14223e-06
1.14768e-06
1.14767e-06
1.37908e-06
1.383e-06
1.14212e-06
1.14804e-06
1.14767e-06
1.38265e-06
1.38512e-06
1.39014e-06
1.14929e-06
1.14969e-06
1.15582e-06
1.15549e-06
1.38542e-06
1.38985e-06
1.14911e-06
1.14967e-06
1.15568e-06
1.15551e-06
1.14951e-06
1.15534e-06
1.15594e-06
1.38584e-06
1.3899e-06
1.14954e-06
1.15559e-06
1.15597e-06
1.39036e-06
1.3938e-06
1.39943e-06
1.15855e-06
1.15805e-06
1.16558e-06
1.16533e-06
1.3932e-06
1.39871e-06
1.15842e-06
1.1581e-06
1.16551e-06
1.16543e-06
1.15849e-06
1.16521e-06
1.16534e-06
1.3933e-06
1.39886e-06
1.15841e-06
1.16514e-06
1.16506e-06
1.39893e-06
1.4018e-06
1.39917e-06
1.16671e-06
1.16663e-06
1.1675e-06
1.16784e-06
1.40127e-06
1.39978e-06
1.16674e-06
1.16687e-06
1.16757e-06
1.16796e-06
1.16667e-06
1.16782e-06
1.16774e-06
1.40145e-06
1.39972e-06
1.16647e-06
1.16787e-06
1.16766e-06
1.39945e-06
1.40071e-06
1.40309e-06
1.16778e-06
1.16834e-06
1.1721e-06
1.1726e-06
1.40135e-06
1.40406e-06
1.16774e-06
1.16802e-06
1.17139e-06
1.17072e-06
1.16789e-06
1.17228e-06
1.17137e-06
1.40118e-06
1.4019e-06
1.16777e-06
1.17061e-06
1.17095e-06
1.40247e-06
1.40662e-06
1.41228e-06
1.17436e-06
1.17423e-06
1.17948e-06
1.1769e-06
1.40718e-06
1.40895e-06
1.17366e-06
1.17303e-06
1.17992e-06
1.18064e-06
1.17402e-06
1.17711e-06
1.18229e-06
1.40552e-06
1.41404e-06
1.17372e-06
1.18131e-06
1.18292e-06
1.41591e-06
1.41552e-06
1.4224e-06
1.18134e-06
1.17846e-06
1.18858e-06
1.18888e-06
1.41164e-06
1.42155e-06
1.18208e-06
1.18294e-06
1.18883e-06
1.18906e-06
1.1842e-06
1.18891e-06
1.18742e-06
1.41756e-06
1.42223e-06
1.18491e-06
1.18849e-06
1.18734e-06
1.42135e-06
1.42536e-06
1.41474e-06
1.18988e-06
1.19181e-06
1.18789e-06
1.19221e-06
1.42623e-06
1.42328e-06
1.18981e-06
1.18991e-06
1.18722e-06
1.18756e-06
1.18759e-06
1.19146e-06
1.18385e-06
1.42475e-06
1.41492e-06
1.18733e-06
1.18641e-06
1.18235e-06
1.40746e-06
1.41376e-06
1.37797e-06
1.18238e-06
1.18822e-06
1.16254e-06
1.16349e-06
1.42314e-06
1.37815e-06
1.18142e-06
1.18209e-06
1.16223e-06
1.16272e-06
1.17893e-06
1.1636e-06
1.165e-06
1.41422e-06
1.37813e-06
1.17764e-06
1.16335e-06
1.16516e-06
1.38241e-06
1.37863e-06
1.41161e-06
1.16051e-06
1.15936e-06
1.17685e-06
1.16857e-06
1.3778e-06
1.39529e-06
1.16041e-06
1.16067e-06
1.17763e-06
1.17629e-06
1.16415e-06
1.16931e-06
1.18366e-06
1.37867e-06
1.40894e-06
1.16461e-06
1.17794e-06
1.18586e-06
1.42316e-06
1.43263e-06
1.52361e-06
1.19861e-06
1.1896e-06
1.26226e-06
1.26153e-06
1.41501e-06
1.52333e-06
1.19943e-06
1.19808e-06
1.26234e-06
1.26285e-06
1.20383e-06
1.2611e-06
1.25977e-06
1.42986e-06
1.52451e-06
1.20588e-06
1.2622e-06
1.25993e-06
1.51867e-06
1.53382e-06
1.49448e-06
1.27013e-06
1.27246e-06
1.25436e-06
1.26213e-06
1.53772e-06
1.50888e-06
1.26999e-06
1.27137e-06
1.25398e-06
1.25778e-06
1.26603e-06
1.26139e-06
1.24808e-06
1.53587e-06
1.49936e-06
1.26569e-06
1.25652e-06
1.2467e-06
1.48199e-06
1.48361e-06
1.33146e-06
1.22699e-06
1.23445e-06
1.13436e-06
1.13698e-06
1.49779e-06
1.33506e-06
1.22665e-06
1.23048e-06
1.13428e-06
1.13716e-06
1.22142e-06
1.1372e-06
1.13438e-06
1.48823e-06
1.33452e-06
1.22001e-06
1.13708e-06
1.13357e-06
1.33144e-06
1.32193e-06
1.2994e-06
1.11382e-06
1.11494e-06
1.10103e-06
1.10075e-06
1.32431e-06
1.29974e-06
1.11374e-06
1.11586e-06
1.10055e-06
1.10032e-06
1.11642e-06
1.10166e-06
1.1075e-06
1.32502e-06
1.29975e-06
1.11594e-06
1.10141e-06
1.10729e-06
1.31373e-06
1.31372e-06
1.43006e-06
1.11001e-06
1.1094e-06
1.18949e-06
1.18458e-06
1.31418e-06
1.42245e-06
1.10906e-06
1.10682e-06
1.18878e-06
1.18095e-06
1.11812e-06
1.18471e-06
1.19314e-06
1.31217e-06
1.41703e-06
1.11785e-06
1.18152e-06
1.19339e-06
1.43668e-06
1.45283e-06
1.48821e-06
1.21217e-06
1.20508e-06
1.23494e-06
1.22458e-06
1.44199e-06
1.46699e-06
1.21244e-06
1.20546e-06
1.23739e-06
1.23646e-06
1.21316e-06
1.22377e-06
1.2313e-06
1.43972e-06
1.48543e-06
1.21413e-06
1.23557e-06
1.23374e-06
1.48137e-06
1.48951e-06
1.44925e-06
1.23411e-06
1.22391e-06
1.21218e-06
1.21132e-06
1.46815e-06
1.44809e-06
1.23671e-06
1.23675e-06
1.21277e-06
1.21755e-06
1.22964e-06
1.20986e-06
1.20215e-06
1.48895e-06
1.46057e-06
1.23219e-06
1.21575e-06
1.20221e-06
1.43178e-06
1.44713e-06
1.41537e-06
1.20358e-06
1.20735e-06
1.18734e-06
1.20002e-06
1.44872e-06
1.43848e-06
1.20293e-06
1.2075e-06
1.18517e-06
1.18775e-06
1.19284e-06
1.19872e-06
1.18176e-06
1.45783e-06
1.41764e-06
1.1916e-06
1.18646e-06
1.17922e-06
1.40457e-06
1.41618e-06
1.42807e-06
1.18606e-06
1.19928e-06
1.19452e-06
1.20375e-06
1.43986e-06
1.4449e-06
1.18411e-06
1.18669e-06
1.1948e-06
1.19805e-06
1.1824e-06
1.20596e-06
1.21061e-06
1.41822e-06
1.43169e-06
1.18006e-06
1.20002e-06
1.21022e-06
1.45309e-06
1.44017e-06
1.49232e-06
1.20686e-06
1.21294e-06
1.24167e-06
1.24024e-06
1.4532e-06
1.49156e-06
1.20695e-06
1.20861e-06
1.23977e-06
1.23152e-06
1.22572e-06
1.24178e-06
1.25128e-06
1.44397e-06
1.47881e-06
1.22518e-06
1.23239e-06
1.24894e-06
1.50979e-06
1.49906e-06
1.46595e-06
1.24491e-06
1.24203e-06
1.22492e-06
1.21655e-06
1.49608e-06
1.44884e-06
1.24267e-06
1.23225e-06
1.22383e-06
1.20917e-06
1.2514e-06
1.21538e-06
1.21564e-06
1.48189e-06
1.43843e-06
1.24891e-06
1.20828e-06
1.21471e-06
1.44634e-06
1.45811e-06
1.33691e-06
1.20231e-06
1.1941e-06
1.12979e-06
1.12618e-06
1.4402e-06
1.32853e-06
1.20266e-06
1.19269e-06
1.13346e-06
1.1448e-06
1.19263e-06
1.12619e-06
1.12823e-06
1.43266e-06
1.36026e-06
1.19325e-06
1.14559e-06
1.1326e-06
1.33213e-06
1.33101e-06
1.31409e-06
1.11527e-06
1.11392e-06
1.10774e-06
1.10982e-06
1.32439e-06
1.31839e-06
1.11938e-06
1.13681e-06
1.11185e-06
1.13537e-06
1.11746e-06
1.11014e-06
1.11522e-06
1.35931e-06
1.36144e-06
1.12225e-06
1.13627e-06
1.11983e-06
1.33107e-06
1.32662e-06
1.43171e-06
1.11642e-06
1.12083e-06
1.18844e-06
1.19472e-06
1.33271e-06
1.44262e-06
1.12012e-06
1.14439e-06
1.18935e-06
1.19412e-06
1.12738e-06
1.19573e-06
1.19751e-06
1.37266e-06
1.4395e-06
1.13117e-06
1.19468e-06
1.19776e-06
1.44653e-06
1.45483e-06
1.49976e-06
1.21128e-06
1.21664e-06
1.23764e-06
1.24e-06
1.46569e-06
1.50748e-06
1.21102e-06
1.2075e-06
1.23503e-06
1.21809e-06
1.21592e-06
1.23901e-06
1.23145e-06
1.45283e-06
1.46488e-06
1.215e-06
1.21697e-06
1.22863e-06
1.48867e-06
1.50178e-06
1.43446e-06
1.23678e-06
1.23846e-06
1.19429e-06
1.18967e-06
1.50873e-06
1.42637e-06
1.23391e-06
1.21475e-06
1.19126e-06
1.17264e-06
1.22786e-06
1.18626e-06
1.17522e-06
1.46444e-06
1.39946e-06
1.22445e-06
1.16912e-06
1.17204e-06
1.4016e-06
1.42718e-06
1.35748e-06
1.17442e-06
1.16795e-06
1.13371e-06
1.12526e-06
1.41761e-06
1.33891e-06
1.1721e-06
1.15781e-06
1.13426e-06
1.13555e-06
1.15657e-06
1.12374e-06
1.1288e-06
1.39533e-06
1.36085e-06
1.15433e-06
1.13438e-06
1.12956e-06
1.34931e-06
1.35757e-06
1.36556e-06
1.13033e-06
1.12205e-06
1.13646e-06
1.13168e-06
1.33892e-06
1.35599e-06
1.13157e-06
1.13538e-06
1.13991e-06
1.15321e-06
1.12841e-06
1.13276e-06
1.14766e-06
1.36294e-06
1.39183e-06
1.12953e-06
1.15446e-06
1.15114e-06
1.38598e-06
1.37572e-06
1.41142e-06
1.14696e-06
1.14524e-06
1.17235e-06
1.17922e-06
1.36996e-06
1.42406e-06
1.15056e-06
1.1651e-06
1.17444e-06
1.1864e-06
1.16091e-06
1.18152e-06
1.18579e-06
1.40375e-06
1.43357e-06
1.16445e-06
1.18874e-06
1.18778e-06
1.43358e-06
1.41688e-06
1.40032e-06
1.17611e-06
1.18478e-06
1.15702e-06
1.16651e-06
1.43207e-06
1.41862e-06
1.17733e-06
1.188e-06
1.15627e-06
1.16052e-06
1.18812e-06
1.16808e-06
1.1633e-06
1.43711e-06
1.40573e-06
1.18962e-06
1.16234e-06
1.16266e-06
1.40847e-06
1.37751e-06
1.12016e-06
1.12865e-06
1.39422e-06
1.11896e-06
1.11989e-06
6.81836e-07
6.76397e-07
6.7716e-07
1.12284e-06
1.37847e-06
1.12173e-06
5.35663e-07
5.35601e-07
5.35655e-07
5.35655e-07
5.34573e-07
5.35516e-07
5.33634e-07
5.35654e-07
5.34573e-07
5.35517e-07
5.35654e-07
5.33634e-07
5.35256e-07
5.35986e-07
5.35987e-07
1.10713e-06
3.88082e-06
9.33891e-07
4.60617e-06
1.26081e-05
1.66011e-05
1.10725e-06
3.88106e-06
9.33924e-07
4.60653e-06
4.95567e-07
4.95567e-07
4.95567e-07
4.57231e-07
4.57231e-07
4.57232e-07
4.57232e-07
5.43144e-07
1.22026e-06
4.95565e-07
4.85522e-07
5.25341e-07
1.20946e-06
4.82301e-07
1.26097e-05
1.66037e-05
5.43162e-07
4.95565e-07
1.22025e-06
4.85523e-07
5.2532e-07
4.82302e-07
1.20945e-06
2.52172e-06
2.52242e-06
4.8419e-07
2.37248e-06
2.37288e-06
1.4308e-06
5.59329e-06
1.32967e-06
6.13637e-06
2.12844e-05
2.31105e-05
1.4312e-06
5.59395e-06
1.32973e-06
6.13703e-06
4.45572e-07
4.45573e-07
4.45573e-07
4.13542e-07