/*--------------------------------*- C++ -*----------------------------------*\
| =========                 |                                                 |
| \\      /  F ield         | OpenFOAM: The Open Source CFD Toolbox           |
|  \\    /   O peration     | Version:  v2012                                 |
|   \\  /    A nd           | Website:  www.openfoam.com                      |
|    \\/     M anipulation  |                                                 |
\*---------------------------------------------------------------------------*/
FoamFile
{
    version     2.0;
    format      ascii;
    class       volScalarField;
    location    "750";
    object      k;
}
// * * * * * * * * * * * * * * * * * * * * * * * * * * * * * * * * * * * * * //

dimensions      [0 2 -2 0 0 0 0];


internalField   nonuniform List<scalar> 
171728
(
3.58932e-05
3.58912e-05
3.58912e-05
3.59957e-05
3.39296e-05
3.3889e-05
3.3889e-05
3.39622e-05
3.21578e-05
3.20081e-05
3.20081e-05
3.19522e-05
3.05346e-05
3.02293e-05
3.02292e-05
2.99884e-05
2.90329e-05
2.8554e-05
2.85539e-05
2.81226e-05
2.76353e-05
2.69872e-05
2.69871e-05
2.63907e-05
2.63308e-05
2.5531e-05
2.55309e-05
2.48073e-05
2.51112e-05
2.4185e-05
2.41848e-05
2.33782e-05
2.39709e-05
2.29506e-05
2.29504e-05
2.21046e-05
2.29058e-05
2.18269e-05
2.18267e-05
2.0986e-05
2.1912e-05
2.08114e-05
2.08112e-05
2.00134e-05
2.09865e-05
1.99013e-05
1.99011e-05
1.91814e-05
2.01241e-05
1.90947e-05
1.90946e-05
1.84895e-05
1.93239e-05
1.83885e-05
1.83884e-05
1.7933e-05
1.85847e-05
1.77793e-05
1.77792e-05
1.75062e-05
1.79042e-05
1.72656e-05
1.72656e-05
1.72001e-05
1.72798e-05
1.68465e-05
1.68466e-05
1.70225e-05
1.67097e-05
1.65211e-05
1.65213e-05
1.69817e-05
1.61923e-05
1.62895e-05
1.62897e-05
1.70789e-05
1.57254e-05
1.61516e-05
1.6152e-05
1.73038e-05
1.53073e-05
1.61072e-05
1.61077e-05
1.7657e-05
1.49374e-05
1.61533e-05
1.6154e-05
1.81342e-05
1.46145e-05
1.62919e-05
1.62926e-05
1.87287e-05
1.43382e-05
1.652e-05
1.65209e-05
1.94281e-05
1.4108e-05
1.68354e-05
1.68364e-05
2.02208e-05
1.39235e-05
1.72351e-05
1.72363e-05
2.10946e-05
1.37844e-05
1.77154e-05
1.77167e-05
2.20358e-05
1.36907e-05
1.82724e-05
1.82739e-05
2.30304e-05
1.36422e-05
1.89015e-05
1.89031e-05
2.40647e-05
1.36391e-05
1.95975e-05
1.95992e-05
2.51257e-05
1.36815e-05
2.03554e-05
2.03572e-05
2.62015e-05
1.37699e-05
2.11688e-05
2.11708e-05
2.72825e-05
1.39047e-05
2.20324e-05
2.20343e-05
2.83608e-05
1.40855e-05
2.29386e-05
2.29409e-05
2.94295e-05
1.43136e-05
2.38828e-05
2.38849e-05
3.04845e-05
1.45875e-05
2.4856e-05
2.48585e-05
3.15205e-05
1.49087e-05
2.5855e-05
2.58573e-05
3.25376e-05
1.52762e-05
2.68715e-05
2.68739e-05
3.3533e-05
1.56887e-05
2.78988e-05
2.79014e-05
3.45036e-05
1.6146e-05
2.89326e-05
2.89353e-05
3.5451e-05
1.66472e-05
2.9968e-05
2.99708e-05
3.63732e-05
1.71899e-05
3.09993e-05
3.10023e-05
3.72699e-05
1.77729e-05
3.20239e-05
3.20267e-05
3.8142e-05
1.8394e-05
3.3036e-05
3.30389e-05
3.89883e-05
1.90495e-05
3.40325e-05
3.40347e-05
3.98107e-05
1.97397e-05
3.5012e-05
3.50149e-05
4.06096e-05
2.04559e-05
3.59673e-05
3.59699e-05
4.138e-05
2.11978e-05
3.68986e-05
3.69013e-05
4.21269e-05
2.19635e-05
3.78088e-05
3.78109e-05
4.28508e-05
2.27447e-05
3.86883e-05
3.86909e-05
4.35484e-05
2.35432e-05
3.95438e-05
3.95468e-05
4.42235e-05
2.43465e-05
4.03675e-05
4.03693e-05
4.48707e-05
2.51636e-05
4.1169e-05
4.11716e-05
4.55005e-05
2.59768e-05
4.19342e-05
4.19353e-05
4.60995e-05
2.67843e-05
4.26691e-05
4.26728e-05
4.66747e-05
2.76022e-05
4.33894e-05
4.33902e-05
4.72392e-05
2.8405e-05
4.40663e-05
4.40671e-05
4.77672e-05
2.91907e-05
4.47136e-05
4.47187e-05
4.8276e-05
2.99732e-05
4.53477e-05
4.53456e-05
4.87685e-05
3.07349e-05
4.5942e-05
4.59435e-05
4.92367e-05
3.15008e-05
4.6507e-05
4.65117e-05
4.968e-05
3.21814e-05
4.70432e-05
4.70415e-05
5.00935e-05
3.29415e-05
4.75822e-05
4.75825e-05
5.05301e-05
3.35969e-05
4.80419e-05
4.80584e-05
5.08848e-05
3.42614e-05
4.85152e-05
4.84859e-05
5.12465e-05
3.48671e-05
4.89155e-05
4.89307e-05
5.15458e-05
3.54096e-05
4.9281e-05
4.93022e-05
5.18936e-05
3.62371e-05
4.99328e-05
4.99184e-05
5.24028e-05
3.67659e-05
5.01279e-05
5.01403e-05
5.24987e-05
3.69571e-05
5.03147e-05
5.01406e-05
5.24761e-05
3.75779e-05
5.05998e-05
5.0827e-05
5.32302e-05
3.83693e-05
5.13256e-05
5.14397e-05
5.36916e-05
3.89208e-05
5.17423e-05
5.1538e-05
5.34828e-05
3.82485e-05
5.02438e-05
4.9994e-05
5.18539e-05
3.75933e-05
4.95552e-05
4.97472e-05
5.24821e-05
4.14886e-05
5.52407e-05
5.54999e-05
5.79021e-05
4.47358e-05
5.75026e-05
5.72307e-05
5.89918e-05
4.16472e-05
5.09607e-05
5.07384e-05
5.15858e-05
3.5543e-05
4.65276e-05
4.65539e-05
4.835e-05
3.58921e-05
5.03832e-05
5.0022e-05
5.36742e-05
4.30012e-05
5.4628e-05
5.52715e-05
5.7409e-05
4.43111e-05
5.4285e-05
5.53626e-05
5.57213e-05
4.21434e-05
5.2979e-05
5.23114e-05
5.32687e-05
4.11495e-05
5.28877e-05
5.20887e-05
5.45806e-05
4.32934e-05
5.56032e-05
5.51595e-05
5.85338e-05
4.48179e-05
5.59879e-05
5.53504e-05
5.77307e-05
4.16168e-05
5.01787e-05
5.09716e-05
5.15244e-05
3.76446e-05
4.78172e-05
4.95223e-05
4.9672e-05
3.86728e-05
5.23092e-05
5.26965e-05
5.49313e-05
4.52553e-05
5.70613e-05
5.54519e-05
5.85708e-05
4.60466e-05
5.5861e-05
5.38214e-05
5.57339e-05
4.14304e-05
4.9991e-05
5.0502e-05
5.16548e-05
3.95238e-05
4.93272e-05
5.0673e-05
5.25715e-05
4.12572e-05
5.30946e-05
5.36809e-05
5.56795e-05
4.29737e-05
5.33785e-05
5.30574e-05
5.57664e-05
3.63068e-05
3.6291e-05
3.6291e-05
3.63068e-05
3.6291e-05
3.6291e-05
3.6423e-05
3.6423e-05
3.6423e-05
3.6423e-05
3.6291e-05
3.6291e-05
3.63068e-05
3.6291e-05
3.6291e-05
3.63068e-05
3.59957e-05
3.42687e-05
3.58912e-05
3.58912e-05
3.43767e-05
3.43766e-05
3.59957e-05
3.42687e-05
3.58911e-05
3.58912e-05
3.43767e-05
3.43766e-05
3.58912e-05
3.43767e-05
3.43767e-05
3.59957e-05
3.42687e-05
3.58912e-05
3.43767e-05
3.43767e-05
3.42687e-05
3.39623e-05
3.22635e-05
3.38889e-05
3.38889e-05
3.24684e-05
3.24683e-05
3.39623e-05
3.22635e-05
3.38889e-05
3.38889e-05
3.24684e-05
3.24683e-05
3.38889e-05
3.24685e-05
3.24684e-05
3.39623e-05
3.22634e-05
3.38889e-05
3.24685e-05
3.24684e-05
3.22634e-05
3.19522e-05
3.02993e-05
3.20079e-05
3.20078e-05
3.06643e-05
3.06642e-05
3.19522e-05
3.02994e-05
3.2008e-05
3.20078e-05
3.06644e-05
3.06641e-05
3.20079e-05
3.06646e-05
3.06643e-05
3.19522e-05
3.02992e-05
3.2008e-05
3.06645e-05
3.06644e-05
3.02992e-05
2.99885e-05
2.84253e-05
3.0229e-05
3.02288e-05
2.89624e-05
2.89622e-05
2.99886e-05
2.84255e-05
3.02291e-05
3.02287e-05
2.89626e-05
2.89621e-05
3.02289e-05
2.89628e-05
2.89623e-05
2.99884e-05
2.84252e-05
3.02291e-05
2.89627e-05
2.89626e-05
2.84252e-05
2.81227e-05
2.6674e-05
2.85536e-05
2.85534e-05
2.7368e-05
2.73678e-05
2.81228e-05
2.66742e-05
2.85538e-05
2.85533e-05
2.73683e-05
2.73676e-05
2.85535e-05
2.73685e-05
2.73679e-05
2.81226e-05
2.66739e-05
2.85538e-05
2.73684e-05
2.73683e-05
2.66738e-05
2.63908e-05
2.50663e-05
2.69866e-05
2.69864e-05
2.58841e-05
2.58838e-05
2.63909e-05
2.50665e-05
2.6987e-05
2.69862e-05
2.58845e-05
2.58836e-05
2.69865e-05
2.58848e-05
2.5884e-05
2.63907e-05
2.50661e-05
2.69869e-05
2.58846e-05
2.58844e-05
2.50661e-05
2.48075e-05
2.36125e-05
2.55304e-05
2.55301e-05
2.45102e-05
2.45099e-05
2.48076e-05
2.36127e-05
2.55308e-05
2.55299e-05
2.45107e-05
2.45097e-05
2.55302e-05
2.4511e-05
2.45102e-05
2.48073e-05
2.36123e-05
2.55307e-05
2.45108e-05
2.45107e-05
2.36123e-05
2.33784e-05
2.23125e-05
2.41842e-05
2.41838e-05
2.32478e-05
2.32475e-05
2.33785e-05
2.23126e-05
2.41847e-05
2.41836e-05
2.32484e-05
2.32473e-05
2.41841e-05
2.32488e-05
2.32478e-05
2.33782e-05
2.23122e-05
2.41846e-05
2.32485e-05
2.32484e-05
2.23122e-05
2.21049e-05
2.11681e-05
2.29497e-05
2.29494e-05
2.20965e-05
2.20962e-05
2.21051e-05
2.11683e-05
2.29503e-05
2.29491e-05
2.20972e-05
2.2096e-05
2.29496e-05
2.20976e-05
2.20965e-05
2.21047e-05
2.11678e-05
2.29503e-05
2.20973e-05
2.20972e-05
2.11678e-05
2.09863e-05
2.01708e-05
2.18259e-05
2.18255e-05
2.10542e-05
2.10538e-05
2.09865e-05
2.01709e-05
2.18266e-05
2.18253e-05
2.10549e-05
2.10536e-05
2.18258e-05
2.10552e-05
2.10541e-05
2.09861e-05
2.01705e-05
2.18265e-05
2.1055e-05
2.10549e-05
2.01704e-05
2.00137e-05
1.93146e-05
2.08103e-05
2.081e-05
2.0118e-05
2.01176e-05
2.00138e-05
1.93148e-05
2.08111e-05
2.08097e-05
2.01188e-05
2.01174e-05
2.08102e-05
2.01191e-05
2.01179e-05
2.00134e-05
1.93144e-05
2.08111e-05
2.01189e-05
2.01188e-05
1.93143e-05
1.91817e-05
1.85904e-05
1.99002e-05
1.98999e-05
1.92855e-05
1.92852e-05
1.91818e-05
1.85905e-05
1.9901e-05
1.98997e-05
1.92863e-05
1.9285e-05
1.99001e-05
1.92866e-05
1.92855e-05
1.91814e-05
1.85902e-05
1.9901e-05
1.92864e-05
1.92864e-05
1.859e-05
1.84898e-05
1.79978e-05
1.90936e-05
1.90933e-05
1.85545e-05
1.85542e-05
1.84899e-05
1.79979e-05
1.90945e-05
1.90931e-05
1.85553e-05
1.8554e-05
1.90936e-05
1.85555e-05
1.85544e-05
1.84896e-05
1.79976e-05
1.90945e-05
1.85554e-05
1.85553e-05
1.79974e-05
1.79333e-05
1.75392e-05
1.83874e-05
1.83871e-05
1.79213e-05
1.79211e-05
1.79333e-05
1.75393e-05
1.83883e-05
1.8387e-05
1.79221e-05
1.79209e-05
1.83874e-05
1.79223e-05
1.79213e-05
1.79331e-05
1.75391e-05
1.83883e-05
1.79222e-05
1.79222e-05
1.75389e-05
1.75065e-05
1.72177e-05
1.77783e-05
1.77781e-05
1.73838e-05
1.73836e-05
1.75065e-05
1.72176e-05
1.77792e-05
1.7778e-05
1.73845e-05
1.73835e-05
1.77783e-05
1.73846e-05
1.73837e-05
1.75063e-05
1.72175e-05
1.77792e-05
1.73846e-05
1.73846e-05
1.72174e-05
1.72004e-05
1.7026e-05
1.72648e-05
1.72646e-05
1.69411e-05
1.69409e-05
1.72003e-05
1.70259e-05
1.72655e-05
1.72645e-05
1.69418e-05
1.69409e-05
1.72647e-05
1.69418e-05
1.6941e-05
1.72002e-05
1.7026e-05
1.72655e-05
1.69418e-05
1.69418e-05
1.70258e-05
1.70227e-05
1.69725e-05
1.68458e-05
1.68457e-05
1.65921e-05
1.6592e-05
1.70225e-05
1.69722e-05
1.68465e-05
1.68456e-05
1.65927e-05
1.6592e-05
1.68458e-05
1.65926e-05
1.6592e-05
1.70226e-05
1.69725e-05
1.68465e-05
1.65928e-05
1.65928e-05
1.69723e-05
1.69819e-05
1.70434e-05
1.65206e-05
1.65205e-05
1.63369e-05
1.63367e-05
1.69816e-05
1.7043e-05
1.65213e-05
1.65205e-05
1.63374e-05
1.63369e-05
1.65205e-05
1.63372e-05
1.63368e-05
1.69818e-05
1.70435e-05
1.65213e-05
1.63374e-05
1.63375e-05
1.70434e-05
1.7079e-05
1.72435e-05
1.62892e-05
1.62891e-05
1.61753e-05
1.61753e-05
1.70785e-05
1.72431e-05
1.62898e-05
1.62892e-05
1.61758e-05
1.61755e-05
1.62891e-05
1.61754e-05
1.61753e-05
1.7079e-05
1.72436e-05
1.62898e-05
1.61758e-05
1.61759e-05
1.72435e-05
1.73038e-05
1.7572e-05
1.61515e-05
1.61515e-05
1.61071e-05
1.61073e-05
1.73033e-05
1.75716e-05
1.61521e-05
1.61517e-05
1.61076e-05
1.61075e-05
1.61515e-05
1.61071e-05
1.61071e-05
1.73039e-05
1.75724e-05
1.61521e-05
1.61076e-05
1.61077e-05
1.75722e-05
1.76568e-05
1.80253e-05
1.61072e-05
1.61074e-05
1.61328e-05
1.61332e-05
1.76563e-05
1.80248e-05
1.61077e-05
1.61077e-05
1.61333e-05
1.61334e-05
1.61073e-05
1.61328e-05
1.6133e-05
1.76571e-05
1.80258e-05
1.61079e-05
1.61333e-05
1.61335e-05
1.80256e-05
1.81339e-05
1.85972e-05
1.61534e-05
1.61538e-05
1.62488e-05
1.62493e-05
1.81333e-05
1.85966e-05
1.6154e-05
1.61541e-05
1.62492e-05
1.62497e-05
1.61536e-05
1.62486e-05
1.62491e-05
1.81343e-05
1.85978e-05
1.61541e-05
1.62492e-05
1.62495e-05
1.85976e-05
1.87283e-05
1.92757e-05
1.62921e-05
1.62926e-05
1.6455e-05
1.64555e-05
1.87278e-05
1.9275e-05
1.62926e-05
1.6293e-05
1.64553e-05
1.6456e-05
1.62924e-05
1.64546e-05
1.64553e-05
1.87288e-05
1.92765e-05
1.62928e-05
1.64553e-05
1.64557e-05
1.92764e-05
1.94275e-05
2.00495e-05
1.65204e-05
1.6521e-05
1.67491e-05
1.67498e-05
1.94268e-05
2.00488e-05
1.65208e-05
1.65215e-05
1.67493e-05
1.67503e-05
1.65208e-05
1.67485e-05
1.67495e-05
1.94283e-05
2.00503e-05
1.65212e-05
1.67493e-05
1.67499e-05
2.00503e-05
2.02201e-05
2.09065e-05
1.68361e-05
1.68367e-05
1.71283e-05
1.7129e-05
2.02194e-05
2.09056e-05
1.68364e-05
1.68373e-05
1.71283e-05
1.71297e-05
1.68365e-05
1.71274e-05
1.71288e-05
2.02208e-05
2.09076e-05
1.68369e-05
1.71285e-05
1.7129e-05
2.09076e-05
2.10936e-05
2.18335e-05
1.7236e-05
1.72368e-05
1.75892e-05
1.75898e-05
2.10928e-05
2.18325e-05
1.72361e-05
1.72375e-05
1.75889e-05
1.75906e-05
1.72365e-05
1.7588e-05
1.75897e-05
2.10946e-05
2.18346e-05
1.72368e-05
1.75891e-05
1.75898e-05
2.18347e-05
2.20347e-05
2.28164e-05
1.77166e-05
1.77173e-05
1.81277e-05
1.81284e-05
2.20337e-05
2.28154e-05
1.77165e-05
1.77181e-05
1.81272e-05
1.81292e-05
1.77173e-05
1.81263e-05
1.81283e-05
2.20357e-05
2.28178e-05
1.77173e-05
1.81275e-05
1.81282e-05
2.28179e-05
2.30292e-05
2.38416e-05
1.82739e-05
1.82746e-05
1.87394e-05
1.874e-05
2.30281e-05
2.38403e-05
1.82736e-05
1.82755e-05
1.87386e-05
1.8741e-05
1.82746e-05
1.87376e-05
1.87401e-05
2.30303e-05
2.38429e-05
1.82744e-05
1.87391e-05
1.87398e-05
2.38433e-05
2.40631e-05
2.48961e-05
1.89032e-05
1.89039e-05
1.94196e-05
1.94202e-05
2.40619e-05
2.48949e-05
1.89026e-05
1.89049e-05
1.94185e-05
1.94212e-05
1.8904e-05
1.94175e-05
1.94205e-05
2.40644e-05
2.48976e-05
1.89036e-05
1.94191e-05
1.94198e-05
2.48979e-05
2.5124e-05
2.59675e-05
1.95996e-05
1.96001e-05
2.01627e-05
2.01634e-05
2.51228e-05
2.59663e-05
1.95986e-05
1.96013e-05
2.01613e-05
2.01644e-05
1.96005e-05
2.01605e-05
2.01637e-05
2.51253e-05
2.59691e-05
1.95998e-05
2.0162e-05
2.01627e-05
2.59694e-05
2.61998e-05
2.70464e-05
2.03577e-05
2.03581e-05
2.09631e-05
2.09636e-05
2.61987e-05
2.70449e-05
2.03565e-05
2.03594e-05
2.09614e-05
2.09649e-05
2.03587e-05
2.09606e-05
2.09643e-05
2.62012e-05
2.70479e-05
2.03577e-05
2.09624e-05
2.0963e-05
2.70484e-05
2.72807e-05
2.8124e-05
2.11714e-05
2.11718e-05
2.18149e-05
2.18152e-05
2.72794e-05
2.81224e-05
2.11698e-05
2.11732e-05
2.1813e-05
2.18165e-05
2.11726e-05
2.18121e-05
2.18161e-05
2.72821e-05
2.81255e-05
2.11713e-05
2.18139e-05
2.18145e-05
2.8126e-05
2.8359e-05
2.91935e-05
2.20353e-05
2.20356e-05
2.27113e-05
2.27116e-05
2.83575e-05
2.9192e-05
2.20334e-05
2.20368e-05
2.2709e-05
2.27132e-05
2.20365e-05
2.27084e-05
2.27128e-05
2.83602e-05
2.91954e-05
2.20349e-05
2.27105e-05
2.27109e-05
2.91959e-05
2.94274e-05
3.02503e-05
2.29415e-05
2.29418e-05
2.36468e-05
2.36469e-05
2.9426e-05
3.02485e-05
2.29393e-05
2.29434e-05
2.36443e-05
2.36482e-05
2.2943e-05
2.36437e-05
2.36483e-05
2.94291e-05
3.02516e-05
2.29411e-05
2.36455e-05
2.36461e-05
3.02524e-05
3.04826e-05
3.12895e-05
2.3886e-05
2.3886e-05
2.46133e-05
2.46133e-05
3.04809e-05
3.12877e-05
2.38836e-05
2.38875e-05
2.46106e-05
2.46151e-05
2.38875e-05
2.46101e-05
2.46152e-05
3.04836e-05
3.12911e-05
2.38854e-05
2.46124e-05
2.46128e-05
3.12918e-05
3.15183e-05
3.23097e-05
2.48591e-05
2.48592e-05
2.56063e-05
2.56063e-05
3.15168e-05
3.23083e-05
2.48565e-05
2.4861e-05
2.56034e-05
2.56079e-05
2.4861e-05
2.56032e-05
2.56081e-05
3.15199e-05
3.23113e-05
2.48586e-05
2.56053e-05
2.56056e-05
3.23119e-05
3.25357e-05
3.33095e-05
2.58582e-05
2.58581e-05
2.66193e-05
2.66191e-05
3.25343e-05
3.33078e-05
2.58555e-05
2.58597e-05
2.66164e-05
2.66209e-05
2.58601e-05
2.66161e-05
2.66216e-05
3.25369e-05
3.3311e-05
2.58576e-05
2.66185e-05
2.66188e-05
3.3312e-05
3.35308e-05
3.4285e-05
2.68747e-05
2.68745e-05
2.76443e-05
2.76439e-05
3.35293e-05
3.42832e-05
2.68719e-05
2.68762e-05
2.76413e-05
2.76456e-05
2.68768e-05
2.7641e-05
2.76466e-05
3.35321e-05
3.42862e-05
2.68741e-05
2.76434e-05
2.76437e-05
3.42872e-05
3.45016e-05
3.5237e-05
2.7902e-05
2.79017e-05
2.86767e-05
2.86765e-05
3.45e-05
3.52354e-05
2.78992e-05
2.79035e-05
2.86737e-05
2.86783e-05
2.79043e-05
2.86737e-05
2.86794e-05
3.45027e-05
3.52384e-05
2.79016e-05
2.86763e-05
2.86765e-05
3.52395e-05
3.54487e-05
3.61649e-05
2.89355e-05
2.89354e-05
2.97121e-05
2.97121e-05
3.54473e-05
3.61633e-05
2.89329e-05
2.89372e-05
2.97092e-05
2.97137e-05
2.89382e-05
2.97095e-05
2.97149e-05
3.54499e-05
3.61659e-05
2.89355e-05
2.9712e-05
2.97121e-05
3.6167e-05
3.63712e-05
3.7067e-05
2.99706e-05
2.99706e-05
3.07448e-05
3.07445e-05
3.63698e-05
3.70652e-05
2.99682e-05
2.99725e-05
3.07422e-05
3.07462e-05
2.99735e-05
3.0742e-05
3.07479e-05
3.63722e-05
3.70678e-05
2.99707e-05
3.07448e-05
3.07451e-05
3.70692e-05
3.72678e-05
3.79445e-05
3.10022e-05
3.10018e-05
3.17714e-05
3.17714e-05
3.7266e-05
3.7943e-05
3.09999e-05
3.10038e-05
3.17688e-05
3.17728e-05
3.10053e-05
3.17691e-05
3.17748e-05
3.72684e-05
3.79454e-05
3.10026e-05
3.17717e-05
3.1772e-05
3.79468e-05
3.81398e-05
3.87968e-05
3.20263e-05
3.20262e-05
3.27867e-05
3.27867e-05
3.81384e-05
3.87951e-05
3.20241e-05
3.2028e-05
3.27843e-05
3.27882e-05
3.20298e-05
3.27845e-05
3.27899e-05
3.81406e-05
3.87976e-05
3.20271e-05
3.27872e-05
3.27873e-05
3.87988e-05
3.89864e-05
3.96244e-05
3.30384e-05
3.30382e-05
3.37867e-05
3.37869e-05
3.89849e-05
3.96229e-05
3.30363e-05
3.30399e-05
3.37845e-05
3.37879e-05
3.30416e-05
3.37848e-05
3.37901e-05
3.89871e-05
3.96248e-05
3.3039e-05
3.37872e-05
3.37876e-05
3.96265e-05
3.98086e-05
4.0429e-05
3.40347e-05
3.40345e-05
3.47713e-05
3.4771e-05
3.98071e-05
4.0427e-05
3.40325e-05
3.40355e-05
3.47692e-05
3.47727e-05
3.40381e-05
3.47691e-05
3.47747e-05
3.98089e-05
4.04294e-05
3.40354e-05
3.4772e-05
3.47723e-05
4.04311e-05
4.06075e-05
4.12053e-05
3.50142e-05
3.50139e-05
3.57317e-05
3.57323e-05
4.06058e-05
4.12043e-05
3.50123e-05
3.50155e-05
3.57299e-05
3.57337e-05
3.50176e-05
3.57306e-05
3.57355e-05
4.0608e-05
4.12063e-05
3.50151e-05
3.57335e-05
3.57334e-05
4.12077e-05
4.13777e-05
4.19579e-05
3.59685e-05
3.5969e-05
3.66698e-05
3.66695e-05
4.13768e-05
4.19559e-05
3.59667e-05
3.59701e-05
3.66678e-05
3.66704e-05
3.59721e-05
3.66678e-05
3.6673e-05
4.13785e-05
4.19577e-05
3.59699e-05
3.66702e-05
3.66708e-05
4.19598e-05
4.21251e-05
4.2687e-05
3.69008e-05
3.69002e-05
3.7585e-05
3.75849e-05
4.21231e-05
4.26856e-05
3.68991e-05
3.69016e-05
3.7583e-05
3.7586e-05
3.6904e-05
3.75833e-05
3.7588e-05
4.21249e-05
4.26875e-05
3.69018e-05
3.7586e-05
3.75861e-05
4.2689e-05
4.28486e-05
4.339e-05
3.78098e-05
3.78102e-05
3.84719e-05
3.84725e-05
4.28477e-05
4.33893e-05
3.7808e-05
3.78108e-05
3.84701e-05
3.8473e-05
3.7813e-05
3.84712e-05
3.84756e-05
4.28492e-05
4.33905e-05
3.7811e-05
3.84735e-05
3.84739e-05
4.33926e-05
4.35459e-05
4.40705e-05
3.86894e-05
3.86896e-05
3.93344e-05
3.93334e-05
4.3545e-05
4.40682e-05
3.8688e-05
3.86907e-05
3.93328e-05
3.93347e-05
3.86928e-05
3.93323e-05
3.93375e-05
4.35463e-05
4.40705e-05
3.86911e-05
3.93352e-05
3.9336e-05
4.40725e-05
4.42214e-05
4.47235e-05
3.95456e-05
3.95449e-05
4.01648e-05
4.01657e-05
4.42194e-05
4.47233e-05
3.95443e-05
3.95463e-05
4.01627e-05
4.01653e-05
3.9549e-05
4.01646e-05
4.01683e-05
4.42214e-05
4.47242e-05
3.95474e-05
4.01665e-05
4.01668e-05
4.47261e-05
4.48683e-05
4.53581e-05
4.03676e-05
4.03684e-05
4.0973e-05
4.0972e-05
4.48682e-05
4.53561e-05
4.03658e-05
4.03681e-05
4.09715e-05
4.09728e-05
4.03711e-05
4.09707e-05
4.09746e-05
4.48688e-05
4.53577e-05
4.03696e-05
4.09729e-05
4.09733e-05
4.53592e-05
4.54994e-05
4.59634e-05
4.11709e-05
4.11702e-05
4.1747e-05
4.17479e-05
4.54974e-05
4.59632e-05
4.11697e-05
4.11714e-05
4.17456e-05
4.17479e-05
4.11731e-05
4.17476e-05
4.17515e-05
4.5499e-05
4.59642e-05
4.1172e-05
4.17492e-05
4.17498e-05
4.59666e-05
4.60966e-05
4.65415e-05
4.19346e-05
4.19349e-05
4.24866e-05
4.24869e-05
4.60966e-05
4.65405e-05
4.19331e-05
4.1934e-05
4.2485e-05
4.24872e-05
4.19379e-05
4.24862e-05
4.24901e-05
4.6097e-05
4.65419e-05
4.19362e-05
4.2489e-05
4.24892e-05
4.65438e-05
4.66718e-05
4.71111e-05
4.26684e-05
4.26693e-05
4.32122e-05
4.32127e-05
4.66711e-05
4.71105e-05
4.26673e-05
4.26705e-05
4.32114e-05
4.32135e-05
4.26735e-05
4.32119e-05
4.32146e-05
4.66729e-05
4.71117e-05
4.2673e-05
4.32135e-05
4.32135e-05
4.71133e-05
4.72381e-05
4.76495e-05
4.33912e-05
4.33903e-05
4.39025e-05
4.39013e-05
4.72368e-05
4.76467e-05
4.33903e-05
4.339e-05
4.39003e-05
4.38997e-05
4.33928e-05
4.39005e-05
4.39033e-05
4.72372e-05
4.76463e-05
4.33915e-05
4.39014e-05
4.39023e-05
4.76494e-05
4.7767e-05
4.81558e-05
4.40674e-05
4.40676e-05
4.45535e-05
4.45542e-05
4.77651e-05
4.81567e-05
4.40654e-05
4.40661e-05
4.45529e-05
4.45564e-05
4.40677e-05
4.45544e-05
4.45589e-05
4.77651e-05
4.81597e-05
4.40662e-05
4.45581e-05
4.45577e-05
4.81599e-05
4.82709e-05
4.86537e-05
4.47118e-05
4.47129e-05
4.51896e-05
4.51929e-05
4.82718e-05
4.86555e-05
4.47123e-05
4.47167e-05
4.51888e-05
4.51905e-05
4.47192e-05
4.51929e-05
4.51941e-05
4.82751e-05
4.86546e-05
4.47187e-05
4.51925e-05
4.51936e-05
4.86579e-05
4.87655e-05
4.91307e-05
4.53448e-05
4.53474e-05
4.57931e-05
4.57906e-05
4.87676e-05
4.91265e-05
4.53432e-05
4.53428e-05
4.57921e-05
4.57908e-05
4.53484e-05
4.57907e-05
4.57937e-05
4.8765e-05
4.91264e-05
4.53478e-05
4.57925e-05
4.57932e-05
4.91292e-05
4.9239e-05
4.95853e-05
4.59467e-05
4.59427e-05
4.63849e-05
4.63823e-05
4.92331e-05
4.9582e-05
4.59454e-05
4.59426e-05
4.63826e-05
4.63819e-05
4.59457e-05
4.63796e-05
4.6382e-05
4.92342e-05
4.95846e-05
4.59445e-05
4.63816e-05
4.63803e-05
4.95841e-05
4.96792e-05
4.99754e-05
4.65077e-05
4.65083e-05
4.68822e-05
4.68892e-05
4.96784e-05
4.99841e-05
4.65073e-05
4.65116e-05
4.68857e-05
4.68963e-05
4.65089e-05
4.6895e-05
4.69002e-05
4.96816e-05
4.99869e-05
4.65079e-05
4.68999e-05
4.69008e-05
4.99896e-05
5.008e-05
5.04494e-05
4.70309e-05
4.70383e-05
4.74732e-05
4.74742e-05
5.00891e-05
5.04462e-05
4.7032e-05
4.70369e-05
4.74648e-05
4.74521e-05
4.70464e-05
4.74679e-05
4.74602e-05
5.00879e-05
5.04333e-05
4.70459e-05
4.7455e-05
4.74583e-05
5.04396e-05
5.05415e-05
5.07887e-05
4.75957e-05
4.75888e-05
4.79193e-05
4.79088e-05
5.0533e-05
5.07754e-05
4.75899e-05
4.75797e-05
4.79261e-05
4.79432e-05
4.75825e-05
4.79115e-05
4.79325e-05
5.05269e-05
5.08066e-05
4.75836e-05
4.79468e-05
4.79385e-05
5.07989e-05
5.08736e-05
5.11746e-05
4.80371e-05
4.8039e-05
4.84076e-05
4.84143e-05
5.08678e-05
5.11847e-05
4.80415e-05
4.80579e-05
4.84025e-05
4.83774e-05
4.80479e-05
4.84173e-05
4.84022e-05
5.08915e-05
5.11441e-05
4.80489e-05
4.83737e-05
4.83896e-05
5.11622e-05
5.12587e-05
5.14681e-05
4.85169e-05
4.85094e-05
4.88093e-05
4.88115e-05
5.12599e-05
5.14663e-05
4.85166e-05
4.84884e-05
4.88125e-05
4.88343e-05
4.85174e-05
4.88129e-05
4.88133e-05
5.12249e-05
5.14958e-05
4.85081e-05
4.88326e-05
4.88138e-05
5.14786e-05
5.15321e-05
5.17653e-05
4.88936e-05
4.8918e-05
4.91578e-05
4.91732e-05
5.15434e-05
5.17875e-05
4.88914e-05
4.89279e-05
4.91528e-05
4.91662e-05
4.88984e-05
4.91705e-05
4.91804e-05
5.15721e-05
5.17818e-05
4.89003e-05
4.91881e-05
4.91956e-05
5.17909e-05
5.18705e-05
5.23447e-05
4.92932e-05
4.92831e-05
4.98192e-05
4.97831e-05
5.18717e-05
5.2297e-05
4.92901e-05
4.92828e-05
4.98147e-05
4.9776e-05
4.93098e-05
4.97801e-05
4.97929e-05
5.1869e-05
5.22969e-05
4.9324e-05
4.97683e-05
4.9783e-05
5.23147e-05
5.24343e-05
5.24825e-05
4.99636e-05
4.99349e-05
5.0118e-05
5.01221e-05
5.23972e-05
5.24912e-05
4.99611e-05
4.99302e-05
5.0126e-05
5.01417e-05
4.9936e-05
5.0125e-05
5.01237e-05
5.23967e-05
5.2508e-05
4.9924e-05
5.01369e-05
5.01231e-05
5.24892e-05
5.249e-05
5.24667e-05
5.01163e-05
5.01241e-05
5.01225e-05
5.01762e-05
5.25022e-05
5.25651e-05
5.01249e-05
5.0144e-05
5.01198e-05
5.01262e-05
5.01248e-05
5.01777e-05
5.01118e-05
5.25185e-05
5.24312e-05
5.0125e-05
5.01224e-05
5.01059e-05
5.24192e-05
5.25528e-05
5.2947e-05
5.02057e-05
5.03232e-05
5.06061e-05
5.05885e-05
5.26786e-05
5.28807e-05
5.01713e-05
5.01468e-05
5.05918e-05
5.06093e-05
5.01409e-05
5.05665e-05
5.0689e-05
5.24834e-05
5.30089e-05
5.0125e-05
5.06459e-05
5.07013e-05
5.30811e-05
5.303e-05
5.35331e-05
5.06964e-05
5.06097e-05
5.12051e-05
5.09861e-05
5.29079e-05
5.32938e-05
5.07192e-05
5.07687e-05
5.12644e-05
5.12888e-05
5.08758e-05
5.1064e-05
5.13308e-05
5.31334e-05
5.35557e-05
5.09193e-05
5.13137e-05
5.13709e-05
5.36323e-05
5.36756e-05
5.38877e-05
5.14053e-05
5.12883e-05
5.16431e-05
5.1767e-05
5.35043e-05
5.4056e-05
5.1445e-05
5.14462e-05
5.16378e-05
5.16157e-05
5.14257e-05
5.17386e-05
5.14832e-05
5.3659e-05
5.38328e-05
5.14425e-05
5.15617e-05
5.14643e-05
5.35541e-05
5.38636e-05
5.2069e-05
5.16277e-05
5.17742e-05
5.05512e-05
5.09377e-05
5.40872e-05
5.24787e-05
5.16166e-05
5.1597e-05
5.04801e-05
5.04794e-05
5.14336e-05
5.08859e-05
5.03582e-05
5.38255e-05
5.20704e-05
5.13893e-05
5.04369e-05
5.02856e-05
5.19754e-05
5.18483e-05
5.14591e-05
5.00503e-05
5.02638e-05
4.95885e-05
4.94731e-05
5.21486e-05
5.10958e-05
5.00008e-05
4.99886e-05
4.95774e-05
4.95365e-05
5.00241e-05
4.95023e-05
4.97934e-05
5.18485e-05
5.13864e-05
4.99921e-05
4.9603e-05
4.98208e-05
5.19939e-05
5.18561e-05
5.71468e-05
4.97098e-05
4.95211e-05
5.39547e-05
5.34426e-05
5.12138e-05
5.66881e-05
4.97151e-05
4.96642e-05
5.40202e-05
5.39786e-05
4.99967e-05
5.34794e-05
5.41614e-05
5.17551e-05
5.71008e-05
5.00687e-05
5.40316e-05
5.42709e-05
5.7223e-05
5.79629e-05
5.96952e-05
5.54775e-05
5.52461e-05
5.72778e-05
5.75577e-05
5.76845e-05
6.01494e-05
5.5507e-05
5.55095e-05
5.72555e-05
5.73475e-05
5.545e-05
5.74963e-05
5.69032e-05
5.7944e-05
5.98146e-05
5.54986e-05
5.72555e-05
5.68559e-05
5.91898e-05
5.95811e-05
5.30232e-05
5.72529e-05
5.75661e-05
5.30644e-05
5.35936e-05
6.01178e-05
5.34651e-05
5.72278e-05
5.73261e-05
5.30253e-05
5.31922e-05
5.68572e-05
5.35466e-05
5.26505e-05
5.97174e-05
5.31498e-05
5.68017e-05
5.31064e-05
5.25263e-05
5.26372e-05
5.1829e-05
4.78177e-05
5.06281e-05
5.09688e-05
4.66595e-05
4.67079e-05
5.21612e-05
4.78556e-05
5.06102e-05
5.07754e-05
4.66549e-05
4.6746e-05
5.04388e-05
4.6778e-05
4.70274e-05
5.19676e-05
4.80049e-05
5.03557e-05
4.68214e-05
4.70192e-05
4.83401e-05
4.77894e-05
5.19453e-05
4.64189e-05
4.64481e-05
4.81457e-05
4.81048e-05
4.78321e-05
5.19255e-05
4.64071e-05
4.64626e-05
4.80385e-05
4.76994e-05
4.68623e-05
4.81894e-05
4.87804e-05
4.79708e-05
5.14476e-05
4.68577e-05
4.78199e-05
4.8747e-05
5.25578e-05
5.31887e-05
5.74478e-05
5.05111e-05
5.03385e-05
5.48699e-05
5.42751e-05
5.30695e-05
5.65479e-05
5.04232e-05
4.99373e-05
5.49674e-05
5.46476e-05
5.09324e-05
5.42333e-05
5.47288e-05
5.26217e-05
5.70384e-05
5.09174e-05
5.46174e-05
5.48508e-05
5.72568e-05
5.76681e-05
5.68412e-05
5.53634e-05
5.46859e-05
5.54267e-05
5.47335e-05
5.66812e-05
5.59755e-05
5.55079e-05
5.53257e-05
5.56132e-05
5.57026e-05
5.51063e-05
5.46508e-05
5.49569e-05
5.73741e-05
5.74009e-05
5.52633e-05
5.56161e-05
5.51475e-05
5.6165e-05
5.64838e-05
5.4184e-05
5.49441e-05
5.43929e-05
5.28504e-05
5.32945e-05
5.58288e-05
5.49556e-05
5.51353e-05
5.54726e-05
5.27467e-05
5.29555e-05
5.42313e-05
5.3183e-05
5.21721e-05
5.70824e-05
5.43161e-05
5.44002e-05
5.28274e-05
5.20468e-05
5.33753e-05
5.40249e-05
5.36113e-05
5.24275e-05
5.30736e-05
5.20348e-05
5.28538e-05
5.49315e-05
5.47136e-05
5.22854e-05
5.2407e-05
5.18926e-05
5.19558e-05
5.18933e-05
5.28153e-05
5.19017e-05
5.40837e-05
5.36175e-05
5.17374e-05
5.19395e-05
5.17611e-05
5.39289e-05
5.37621e-05
5.68695e-05
5.20905e-05
5.28858e-05
5.45007e-05
5.47156e-05
5.4756e-05
5.71221e-05
5.19694e-05
5.20534e-05
5.44881e-05
5.4418e-05
5.24144e-05
5.49653e-05
5.5689e-05
5.38782e-05
5.67947e-05
5.23441e-05
5.45899e-05
5.56183e-05
5.81902e-05
5.73891e-05
5.85172e-05
5.53943e-05
5.5426e-05
5.63647e-05
5.60785e-05
5.75258e-05
5.81122e-05
5.53342e-05
5.50401e-05
5.625e-05
5.55084e-05
5.62939e-05
5.61382e-05
5.66405e-05
5.71294e-05
5.72181e-05
5.61927e-05
5.55387e-05
5.6505e-05
5.83197e-05
5.8443e-05
5.31396e-05
5.63095e-05
5.59651e-05
5.25215e-05
5.18765e-05
5.7809e-05
5.23844e-05
5.61972e-05
5.53639e-05
5.2589e-05
5.20901e-05
5.6324e-05
5.17455e-05
5.15496e-05
5.68353e-05
5.29374e-05
5.61856e-05
5.20148e-05
5.16644e-05
5.22024e-05
5.22351e-05
4.91331e-05
5.07018e-05
5.025e-05
4.78706e-05
4.78694e-05
5.16013e-05
4.91403e-05
5.08554e-05
5.09874e-05
4.81352e-05
4.94748e-05
5.0107e-05
4.78959e-05
4.81553e-05
5.2478e-05
5.12065e-05
5.03114e-05
4.95509e-05
4.84682e-05
4.96236e-05
4.91132e-05
5.27556e-05
4.77208e-05
4.77794e-05
4.94102e-05
4.99313e-05
4.91504e-05
5.33227e-05
4.79905e-05
4.94394e-05
4.95915e-05
5.11111e-05
4.81179e-05
5.00918e-05
5.06355e-05
5.1262e-05
5.41909e-05
4.8433e-05
5.12596e-05
5.07961e-05
5.39063e-05
5.39167e-05
5.84979e-05
5.1644e-05
5.21729e-05
5.61617e-05
5.65455e-05
5.45011e-05
5.90458e-05
5.17172e-05
5.25834e-05
5.59791e-05
5.52546e-05
5.26125e-05
5.65484e-05
5.61542e-05
5.49438e-05
5.7328e-05
5.26563e-05
5.52315e-05
5.59381e-05
5.84152e-05
5.88187e-05
5.80877e-05
5.67745e-05
5.71029e-05
5.68918e-05
5.70684e-05
5.93439e-05
5.81304e-05
5.654e-05
5.55136e-05
5.6605e-05
5.51607e-05
5.64989e-05
5.6933e-05
5.60315e-05
5.74265e-05
5.58235e-05
5.62369e-05
5.49654e-05
5.56928e-05
5.65247e-05
5.7416e-05
5.27661e-05
5.62167e-05
5.61338e-05
5.16424e-05
5.10729e-05
5.72956e-05
5.19455e-05
5.5906e-05
5.41258e-05
5.15931e-05
5.10468e-05
5.46482e-05
5.08982e-05
5.07003e-05
5.52507e-05
5.23178e-05
5.42978e-05
5.09042e-05
5.06839e-05
5.18367e-05
5.23883e-05
5.16223e-05
5.07242e-05
5.0107e-05
4.98131e-05
4.92302e-05
5.15192e-05
5.08076e-05
5.07585e-05
5.05908e-05
4.9984e-05
5.03601e-05
5.01336e-05
4.92227e-05
4.986e-05
5.21844e-05
5.24944e-05
5.01957e-05
5.03521e-05
5.00214e-05
5.20792e-05
5.18002e-05
5.42061e-05
4.98493e-05
4.93054e-05
5.18116e-05
5.19732e-05
5.11166e-05
5.44875e-05
5.00366e-05
5.05998e-05
5.20277e-05
5.29713e-05
5.01605e-05
5.21681e-05
5.2931e-05
5.28985e-05
5.53786e-05
5.03996e-05
5.31466e-05
5.31137e-05
5.53855e-05
5.45668e-05
5.52565e-05
5.258e-05
5.29177e-05
5.34894e-05
5.41155e-05
5.49855e-05
5.61425e-05
5.27231e-05
5.35135e-05
5.34691e-05
5.39687e-05
5.35697e-05
5.4246e-05
5.41641e-05
5.56388e-05
5.58652e-05
5.36909e-05
5.41303e-05
5.41853e-05
5.59938e-05
5.51634e-05
5.26046e-05
5.3275e-05
5.60733e-05
5.25624e-05
5.29333e-05
4.36035e-05
4.32989e-05
4.34549e-05
5.31546e-05
5.56213e-05
5.31332e-05
3.73773e-05
3.73765e-05
3.7377e-05
3.7377e-05
3.73701e-05
3.73777e-05
3.73043e-05
3.73768e-05
3.73702e-05
3.73777e-05
3.73768e-05
3.73043e-05
3.73741e-05
3.72959e-05
3.72959e-05
3.58798e-05
4.0872e-05
3.66033e-05
4.51467e-05
5.51147e-05
6.48951e-05
3.58803e-05
4.08712e-05
3.66034e-05
4.51465e-05
3.58932e-05
3.58933e-05
3.58932e-05
3.44005e-05
3.44005e-05
3.44005e-05
3.44005e-05
3.52758e-05
3.56384e-05
3.58929e-05
3.53771e-05
3.60475e-05
3.42365e-05
3.53822e-05
5.51168e-05
6.48994e-05
3.52758e-05
3.58929e-05
3.5638e-05
3.53771e-05
3.60475e-05
3.53822e-05
3.42375e-05
3.65971e-05
3.65977e-05
3.5279e-05
3.40642e-05
3.40633e-05
3.39657e-05
5.13534e-05
3.46793e-05
5.46248e-05
7.65447e-05
8.08614e-05
3.39682e-05
5.13543e-05
3.46789e-05
5.46254e-05
3.39296e-05
3.39297e-05
3.39297e-05
3.25854e-05
3.25854e-05
3.25855e-05