/*--------------------------------*- C++ -*----------------------------------*\
| =========                 |                                                 |
| \\      /  F ield         | OpenFOAM: The Open Source CFD Toolbox           |
|  \\    /   O peration     | Version:  v2012                                 |
|   \\  /    A nd           | Website:  www.openfoam.com                      |
|    \\/     M anipulation  |                                                 |
\*---------------------------------------------------------------------------*/
FoamFile
{
    version     2.0;
    format      ascii;
    class       volScalarField;
    location    "750";
    object      nut;
}
// * * * * * * * * * * * * * * * * * * * * * * * * * * * * * * * * * * * * * //

dimensions      [0 2 -1 0 0 0 0];


internalField   nonuniform List<scalar> 
171728
(
0.000233973
0.000233116
0.000233116
0.000233423
0.000232532
0.000227802
0.000227801
0.000223866
0.000230516
0.00022032
0.000220318
0.000209109
0.000227799
0.000211665
0.000211661
0.000193785
0.000224433
0.00020265
0.000202644
0.000179709
0.000220552
0.000193772
0.000193765
0.000167339
0.000216304
0.000185275
0.000185267
0.000156587
0.00021182
0.000177234
0.000177226
0.000147206
0.000207207
0.000169688
0.00016968
0.00013895
0.000202545
0.000162611
0.000162603
0.000131614
0.000197889
0.000155949
0.000155941
0.000124953
0.000193275
0.000149647
0.000149638
0.000118816
0.000188683
0.000143665
0.000143657
0.000113168
0.000184151
0.000137952
0.000137943
0.000107932
0.000179706
0.000132463
0.000132454
0.000103056
0.000175338
0.00012719
0.000127181
9.84357e-05
0.000171035
0.00012215
0.000122141
9.42517e-05
0.000166785
0.000117371
0.00011736
9.06596e-05
0.000162587
0.000112887
0.000112876
8.77315e-05
0.000158414
0.000108755
0.000108745
8.53835e-05
0.000154263
0.000105025
0.000105015
8.36672e-05
0.000150142
0.000101711
0.000101703
8.25799e-05
0.000146063
9.88943e-05
9.88865e-05
8.20965e-05
0.000142045
9.65841e-05
9.65777e-05
8.21489e-05
0.000138117
9.4793e-05
9.4787e-05
8.26878e-05
0.000134294
9.35196e-05
9.35148e-05
8.36642e-05
0.000130631
9.27504e-05
9.27461e-05
8.50196e-05
0.000127155
9.24667e-05
9.2463e-05
8.66957e-05
0.000123901
9.26392e-05
9.26365e-05
8.86372e-05
0.0001209
9.3237e-05
9.32349e-05
9.07918e-05
0.000118186
9.42267e-05
9.42251e-05
9.3111e-05
0.00011579
9.55694e-05
9.5569e-05
9.55595e-05
0.000113732
9.72323e-05
9.72306e-05
9.8104e-05
0.00011202
9.91717e-05
9.91723e-05
0.000100719
0.000110679
0.000101364
0.000101364
0.000103383
0.000109696
0.000103761
0.000103763
0.000106079
0.000109088
0.00010635
0.00010635
0.000108799
0.000108848
0.000109091
0.000109092
0.00011153
0.00010896
0.000111952
0.000111953
0.000114251
0.000109418
0.000114915
0.000114917
0.000116967
0.00011022
0.000117963
0.000117966
0.000119666
0.000111335
0.000121071
0.000121075
0.000122342
0.000112756
0.000124231
0.000124233
0.000124995
0.000114465
0.000127415
0.000127417
0.000127615
0.000116429
0.000130608
0.000130606
0.000130205
0.000118665
0.000133813
0.000133815
0.000132767
0.000121098
0.000136989
0.00013699
0.000135272
0.000123731
0.000140135
0.000140136
0.000137736
0.000126562
0.000143274
0.000143274
0.000140163
0.000129532
0.000146354
0.000146355
0.000142533
0.000132666
0.000149407
0.000149411
0.000144862
0.000135873
0.000152389
0.000152387
0.000147118
0.000139233
0.000155351
0.000155353
0.000149351
0.000142632
0.000158224
0.000158218
0.000151503
0.000146032
0.000161003
0.000161012
0.000153576
0.000149583
0.000163816
0.000163809
0.000155664
0.000153148
0.000166486
0.000166477
0.000157632
0.000156642
0.000169066
0.000169086
0.000159543
0.000160189
0.000171678
0.000171653
0.000161429
0.000163677
0.000174131
0.000174127
0.000163238
0.000167457
0.000176564
0.000176576
0.000165
0.0001704
0.000178792
0.000178789
0.000166586
0.000174335
0.000181287
0.000181229
0.000168409
0.000177503
0.000183235
0.000183401
0.000169843
0.000180871
0.000185509
0.000185267
0.000171362
0.000183953
0.000187338
0.000187412
0.000172592
0.000186195
0.000188771
0.000188907
0.000173879
0.000191276
0.000192356
0.000192232
0.000176361
0.000194975
0.000193583
0.000193732
0.00017706
0.000194467
0.000194083
0.000192886
0.000176231
0.00019788
0.00019546
0.000196448
0.000179659
0.000203072
0.000198993
0.000200282
0.000182346
0.000208554
0.000202928
0.0002024
0.000182981
0.000203701
0.000195906
0.000193647
0.00017486
0.000191454
0.00018569
0.000185712
0.000171812
0.000216375
0.000215946
0.000218225
0.000197649
0.000255219
0.000241186
0.000239776
0.000212879
0.000246046
0.000209534
0.000207565
0.000180859
0.000183343
0.000175465
0.000176022
0.000158293
0.000169556
0.000189624
0.000186808
0.000178028
0.000231619
0.000219601
0.00022249
0.000200168
0.00025185
0.000219968
0.000228833
0.000195512
0.000233331
0.000210807
0.000207694
0.000181423
0.000218841
0.000206997
0.000201667
0.000182387
0.000233286
0.000223857
0.000222129
0.000203907
0.000256661
0.000236447
0.000231314
0.000208722
0.000239548
0.000203393
0.000205505
0.000179754
0.000197554
0.000183535
0.000192768
0.000164939
0.000191386
0.000202318
0.000206956
0.000185309
0.0002529
0.000236888
0.000228171
0.000207535
0.000275465
0.000241144
0.000225789
0.000200373
0.000234876
0.000200635
0.000202337
0.000177711
0.000211031
0.00019093
0.000198046
0.000177757
0.000221425
0.000213763
0.000217874
0.00019408
0.000245704
0.000227012
0.000226008
0.000202621
0.000234266
0.000234448
0.000234449
0.000234267
0.000234448
0.000234449
0.000234274
0.000234274
0.000234274
0.000234274
0.000234448
0.000234448
0.000234266
0.000234448
0.000234448
0.000234266
0.000233423
0.000226204
0.000233116
0.000233114
0.000229361
0.000229357
0.000233423
0.000226205
0.000233114
0.000233114
0.000229359
0.000229356
0.000233116
0.000229364
0.000229361
0.000233423
0.000226202
0.000233114
0.000229363
0.000229359
0.000226202
0.000223867
0.00021223
0.000227799
0.000227794
0.000222332
0.000222326
0.000223868
0.000212234
0.000227797
0.000227792
0.000222332
0.000222323
0.000227798
0.000222339
0.000222331
0.000223866
0.000212227
0.000227797
0.000222336
0.000222331
0.000212228
0.000209111
0.000197061
0.000220313
0.000220307
0.000213879
0.000213874
0.000209112
0.000197066
0.000220314
0.000220304
0.000213883
0.000213869
0.000220311
0.00021389
0.000213877
0.000209108
0.000197057
0.000220313
0.000213886
0.000213882
0.000197058
0.000193788
0.000182876
0.000211654
0.000211648
0.00020489
0.000204884
0.000193792
0.000182883
0.000211658
0.000211643
0.000204897
0.000204879
0.000211651
0.000204905
0.000204887
0.000193784
0.000182872
0.000211657
0.000204899
0.000204896
0.000182873
0.000179713
0.000170268
0.000202634
0.000202628
0.000195943
0.000195937
0.000179717
0.000170274
0.000202643
0.000202622
0.000195954
0.000195931
0.000202631
0.000195962
0.00019594
0.000179708
0.000170263
0.000202641
0.000195955
0.000195953
0.000170264
0.000167344
0.000159242
0.000193753
0.000193747
0.000187336
0.000187331
0.000167349
0.000159249
0.000193765
0.00019374
0.000187351
0.000187324
0.00019375
0.000187359
0.000187333
0.000167339
0.000159238
0.000193764
0.000187351
0.00018735
0.000159238
0.000156591
0.000149613
0.000185253
0.000185247
0.000179173
0.000179168
0.000156597
0.00014962
0.000185268
0.00018524
0.000179191
0.00017916
0.000185249
0.000179198
0.00017917
0.000156587
0.000149608
0.000185267
0.000179189
0.00017919
0.000149608
0.000147211
0.000141107
0.000177208
0.000177203
0.000171501
0.000171496
0.000147217
0.000141114
0.000177227
0.000177195
0.000171521
0.000171488
0.000177205
0.000171529
0.000171498
0.000147206
0.000141101
0.000177225
0.00017152
0.000171521
0.000141101
0.000138956
0.000133547
0.00016966
0.000169655
0.000164309
0.000164304
0.000138962
0.000133554
0.000169682
0.000169647
0.000164332
0.000164296
0.000169658
0.000164339
0.000164307
0.000138951
0.000133541
0.00016968
0.000164331
0.000164332
0.000133541
0.000131621
0.000126686
0.000162581
0.000162576
0.000157546
0.000157541
0.000131627
0.000126693
0.000162605
0.000162567
0.000157572
0.000157533
0.000162578
0.000157579
0.000157545
0.000131615
0.00012668
0.000162604
0.00015757
0.000157571
0.000126679
0.00012496
0.000120362
0.000155916
0.000155912
0.000151157
0.000151152
0.000124966
0.000120369
0.000155942
0.000155903
0.000151184
0.000151144
0.000155915
0.000151192
0.000151156
0.000124954
0.000120355
0.000155942
0.000151183
0.000151184
0.000120355
0.000118823
0.000114426
0.000149612
0.000149607
0.000145096
0.000145091
0.000118827
0.000114433
0.000149639
0.000149599
0.000145124
0.000145083
0.000149611
0.000145132
0.000145096
0.000118816
0.00011442
0.000149639
0.000145123
0.000145124
0.000114418
0.000113175
0.000108835
0.00014363
0.000143624
0.000139318
0.000139313
0.00011318
0.000108843
0.000143658
0.000143616
0.000139347
0.000139305
0.000143629
0.000139356
0.000139319
0.000113168
0.000108829
0.000143658
0.000139347
0.000139348
0.000108828
0.000107939
0.000103702
0.000137916
0.000137909
0.000133776
0.00013377
0.000107944
0.000103708
0.000137944
0.000137901
0.000133805
0.000133762
0.000137915
0.000133814
0.000133776
0.000107933
0.000103696
0.000137944
0.000133805
0.000133806
0.000103695
0.000103063
9.91275e-05
0.000132425
0.000132418
0.000128446
0.000128438
0.000103069
9.91334e-05
0.000132454
0.000132411
0.000128473
0.000128431
0.000132425
0.000128485
0.000128447
0.000103057
9.91212e-05
0.000132454
0.000128475
0.000128476
9.91202e-05
9.84422e-05
9.49892e-05
0.000127151
0.000127144
0.000123344
0.000123337
9.84478e-05
9.49949e-05
0.000127179
0.000127136
0.000123371
0.000123329
0.000127152
0.000123385
0.000123347
9.84364e-05
9.49831e-05
0.000127181
0.000123374
0.000123375
9.49829e-05
9.42572e-05
9.14348e-05
0.000122111
0.000122103
0.000118477
0.00011847
9.42629e-05
9.14403e-05
0.000122137
0.000122095
0.000118502
0.000118461
0.000122113
0.000118517
0.00011848
9.4252e-05
9.14292e-05
0.000122141
0.000118506
0.000118507
9.14291e-05
9.06642e-05
8.83771e-05
0.000117331
0.000117324
0.000113921
0.000113916
9.06701e-05
8.8382e-05
0.000117356
0.000117314
0.000113945
0.000113905
0.000117334
0.000113961
0.000113926
9.066e-05
8.83719e-05
0.000117361
0.000113951
0.000113951
8.83721e-05
8.77356e-05
8.59078e-05
0.000112847
0.000112841
0.00010969
0.000109685
8.77405e-05
8.59133e-05
0.00011287
0.00011283
0.000109713
0.000109675
0.000112851
0.00010973
0.000109696
8.77313e-05
8.59036e-05
0.000112877
0.00010972
0.00010972
8.59036e-05
8.53873e-05
8.40679e-05
0.000108716
0.000108709
0.000105848
0.00010584
8.53924e-05
8.40729e-05
0.000108738
0.000108699
0.000105869
0.000105831
0.000108721
0.000105886
0.000105852
8.53835e-05
8.40643e-05
0.000108745
0.000105876
0.000105875
8.40647e-05
8.36702e-05
8.28588e-05
0.000104988
0.000104979
0.000102455
0.000102444
8.3675e-05
8.28634e-05
0.000105008
0.00010497
0.000102473
0.000102436
0.000104992
0.00010249
0.000102458
8.36674e-05
8.28549e-05
0.000105015
0.00010248
0.00010248
8.28556e-05
8.25826e-05
8.22591e-05
0.000101677
0.000101666
9.95175e-05
9.95053e-05
8.25866e-05
8.22635e-05
0.000101696
0.000101658
9.95341e-05
9.94985e-05
0.00010168
9.95501e-05
9.95202e-05
8.25794e-05
8.22564e-05
0.000101702
9.95415e-05
9.9541e-05
8.22567e-05
8.20989e-05
8.2205e-05
9.88623e-05
9.88501e-05
9.70819e-05
9.70686e-05
8.21028e-05
8.22081e-05
9.88793e-05
9.88432e-05
9.70971e-05
9.70633e-05
9.88649e-05
9.71119e-05
9.70845e-05
8.20963e-05
8.2203e-05
9.88858e-05
9.71047e-05
9.71042e-05
8.22034e-05
8.21504e-05
8.26461e-05
9.65546e-05
9.65415e-05
9.51637e-05
9.51502e-05
8.21532e-05
8.26493e-05
9.65701e-05
9.65361e-05
9.51775e-05
9.51451e-05
9.65571e-05
9.51917e-05
9.51657e-05
8.21491e-05
8.26439e-05
9.65764e-05
9.51847e-05
9.51834e-05
8.26446e-05
8.26894e-05
8.35345e-05
9.47658e-05
9.47524e-05
9.37638e-05
9.37502e-05
8.26923e-05
8.35362e-05
9.478e-05
9.47474e-05
9.37763e-05
9.37466e-05
9.47679e-05
9.37895e-05
9.37663e-05
8.26875e-05
8.35336e-05
9.47851e-05
9.3784e-05
9.3782e-05
8.35338e-05
8.36648e-05
8.48135e-05
9.34942e-05
9.34811e-05
9.28731e-05
9.28591e-05
8.36667e-05
8.48146e-05
9.3507e-05
9.34773e-05
9.28843e-05
9.28559e-05
9.34966e-05
9.28963e-05
9.28754e-05
8.36644e-05
8.4812e-05
9.35119e-05
9.28911e-05
9.28894e-05
8.48129e-05
8.50202e-05
8.64243e-05
9.27277e-05
9.27142e-05
9.24722e-05
9.24587e-05
8.50211e-05
8.64254e-05
9.27392e-05
9.27109e-05
9.2482e-05
9.24563e-05
9.27306e-05
9.24937e-05
9.24745e-05
8.50187e-05
8.64242e-05
9.27442e-05
9.24893e-05
9.24869e-05
8.64251e-05
8.66957e-05
8.83109e-05
9.24459e-05
9.24328e-05
9.25348e-05
9.25213e-05
8.66967e-05
8.83112e-05
9.24561e-05
9.24301e-05
9.25434e-05
9.25198e-05
9.24482e-05
9.25541e-05
9.2538e-05
8.66957e-05
8.83105e-05
9.24602e-05
9.25507e-05
9.25487e-05
8.83128e-05
8.86355e-05
9.0422e-05
9.26201e-05
9.26076e-05
9.30329e-05
9.30194e-05
8.86356e-05
9.0423e-05
9.2629e-05
9.26056e-05
9.30403e-05
9.30185e-05
9.26231e-05
9.30501e-05
9.30362e-05
8.86354e-05
9.04225e-05
9.26337e-05
9.30474e-05
9.30456e-05
9.04237e-05
9.079e-05
9.27062e-05
9.32202e-05
9.32074e-05
9.39286e-05
9.39161e-05
9.07903e-05
9.27071e-05
9.32278e-05
9.32062e-05
9.39347e-05
9.39152e-05
9.32236e-05
9.39448e-05
9.3932e-05
9.07902e-05
9.27068e-05
9.32326e-05
9.39421e-05
9.394e-05
9.2708e-05
9.31092e-05
9.5129e-05
9.42115e-05
9.4199e-05
9.51886e-05
9.51758e-05
9.31103e-05
9.51282e-05
9.42179e-05
9.41982e-05
9.51936e-05
9.51764e-05
9.42149e-05
9.52028e-05
9.51929e-05
9.31099e-05
9.51291e-05
9.42227e-05
9.52017e-05
9.51997e-05
9.51313e-05
9.55572e-05
9.76531e-05
9.55552e-05
9.5543e-05
9.67756e-05
9.67623e-05
9.55571e-05
9.76526e-05
9.55605e-05
9.55438e-05
9.67794e-05
9.67623e-05
9.55596e-05
9.67878e-05
9.67792e-05
9.55578e-05
9.76533e-05
9.55662e-05
9.67861e-05
9.67848e-05
9.76555e-05
9.81021e-05
0.000100253
9.72202e-05
9.7207e-05
9.86511e-05
9.86387e-05
9.81015e-05
0.000100253
9.72243e-05
9.7207e-05
9.86539e-05
9.86408e-05
9.72241e-05
9.86633e-05
9.86566e-05
9.81018e-05
0.000100255
9.72293e-05
9.86632e-05
9.8661e-05
0.000100257
0.000100715
0.000102907
9.91592e-05
9.91473e-05
0.000100784
0.000100771
0.000100715
0.000102906
9.91624e-05
9.91498e-05
0.000100786
0.000100772
9.91649e-05
0.000100795
0.000100789
0.000100717
0.000102906
9.91692e-05
0.000100793
0.000100792
0.000102909
0.000103381
0.000105597
0.000101355
0.000101341
0.000103134
0.000103121
0.00010338
0.000105596
0.000101357
0.000101342
0.000103135
0.000103124
0.000101359
0.000103144
0.000103141
0.000103379
0.000105598
0.000101363
0.000103145
0.000103144
0.000105601
0.000106076
0.000108309
0.000103751
0.000103738
0.000105676
0.000105664
0.000106076
0.00010831
0.000103753
0.000103742
0.000105677
0.000105666
0.000103758
0.000105686
0.000105682
0.000106077
0.000108309
0.00010376
0.000105686
0.000105684
0.000108311
0.000108797
0.000111038
0.00010634
0.000106328
0.000108385
0.000108372
0.000108798
0.000111038
0.000106342
0.00010633
0.000108386
0.000108375
0.000106346
0.000108394
0.000108393
0.000108796
0.000111038
0.000106348
0.000108395
0.000108394
0.000111043
0.000111526
0.000113761
0.000109082
0.00010907
0.000111217
0.000111204
0.000111526
0.00011376
0.000109083
0.000109073
0.000111218
0.000111207
0.000109089
0.000111225
0.000111224
0.000111526
0.00011376
0.000109091
0.000111226
0.000111225
0.000113764
0.000114249
0.000116477
0.000111943
0.00011193
0.000114155
0.000114143
0.000114248
0.000116477
0.000111944
0.000111933
0.000114156
0.000114147
0.00011195
0.000114165
0.000114165
0.000114247
0.000116478
0.000111952
0.000114166
0.000114166
0.000116482
0.000116963
0.000119182
0.000114904
0.000114894
0.000117185
0.000117174
0.000116963
0.000119183
0.000114907
0.000114897
0.000117186
0.000117177
0.000114914
0.000117195
0.000117194
0.000116963
0.000119182
0.000114916
0.000117196
0.000117195
0.000119186
0.000119663
0.000121864
0.000117953
0.000117943
0.00012028
0.000120269
0.000119664
0.000121863
0.000117955
0.000117947
0.000120282
0.000120272
0.000117962
0.000120289
0.00012029
0.000119663
0.000121863
0.000117964
0.000120291
0.000120292
0.000121868
0.000122338
0.000124524
0.000121062
0.000121051
0.000123428
0.00012342
0.000122337
0.000124523
0.000121066
0.000121055
0.00012343
0.000123421
0.000121072
0.00012344
0.00012344
0.000122336
0.000124522
0.000121074
0.000123441
0.000123442
0.000124528
0.000124991
0.000127154
0.00012422
0.000124211
0.000126607
0.000126599
0.000124991
0.000127153
0.000124223
0.000124214
0.000126609
0.0001266
0.000124232
0.000126618
0.000126617
0.00012499
0.000127153
0.000124234
0.00012662
0.000126619
0.000127157
0.000127612
0.000129751
0.000127404
0.000127396
0.000129795
0.00012979
0.000127612
0.000129752
0.000127408
0.000127398
0.000129798
0.000129788
0.000127414
0.000129808
0.000129806
0.000127611
0.000129749
0.000127416
0.000129808
0.000129809
0.000129755
0.000130201
0.000132323
0.000130597
0.000130589
0.000133002
0.000132994
0.000130202
0.000132321
0.0001306
0.000130587
0.000133006
0.000132996
0.000130607
0.000133012
0.000133012
0.000130198
0.000132321
0.000130609
0.000133015
0.000133016
0.000132327
0.000132764
0.00013484
0.000133803
0.000133795
0.000136181
0.000136178
0.000132762
0.000134844
0.000133807
0.000133797
0.000136186
0.000136179
0.000133813
0.000136196
0.000136193
0.000132762
0.000134842
0.000133816
0.0001362
0.000136198
0.000134846
0.000135266
0.000137316
0.000136972
0.00013697
0.000139339
0.000139332
0.00013527
0.000137315
0.000136978
0.00013697
0.000139343
0.00013933
0.000136985
0.00013935
0.000139348
0.000135267
0.000137312
0.000136989
0.000139349
0.000139352
0.00013732
0.000137733
0.000139754
0.000140125
0.000140117
0.000142479
0.000142472
0.000137731
0.000139754
0.000140131
0.000140117
0.000142484
0.000142473
0.000140135
0.000142489
0.000142487
0.000137728
0.000139753
0.000140139
0.000142493
0.000142492
0.000139758
0.000140159
0.000142136
0.00014326
0.000143257
0.000145573
0.000145573
0.000140161
0.000142142
0.000143265
0.000143254
0.000145578
0.000145567
0.000143269
0.00014559
0.000145586
0.000140158
0.000142135
0.000143273
0.00014559
0.000145592
0.000142143
0.000142527
0.000144477
0.000146338
0.000146336
0.000148638
0.000148627
0.000142531
0.000144473
0.000146345
0.000146335
0.000148644
0.000148628
0.000146349
0.000148645
0.000148647
0.000142526
0.000144473
0.000146355
0.000148649
0.000148654
0.00014448
0.000144858
0.000146749
0.000149398
0.000149388
0.000151634
0.000151635
0.000144854
0.000146756
0.000149406
0.000149391
0.000151637
0.000151627
0.000149408
0.000151653
0.000151646
0.000144854
0.000146749
0.000149415
0.000151652
0.000151652
0.000146756
0.000147111
0.000148992
0.000152368
0.000152371
0.000154605
0.000154595
0.000147119
0.00014899
0.000152373
0.000152362
0.000154611
0.000154592
0.000152382
0.00015461
0.000154604
0.000147111
0.000148986
0.000152388
0.00015461
0.000154612
0.000148991
0.000149352
0.000151163
0.000155345
0.000155336
0.0001575
0.000157504
0.000149349
0.000151169
0.000155353
0.000155336
0.000157509
0.000157499
0.000155346
0.000157526
0.000157521
0.000149346
0.000151164
0.000155355
0.000157523
0.000157526
0.000151173
0.000151493
0.000153243
0.000158206
0.000158205
0.000160289
0.000160286
0.000151501
0.000153245
0.000158213
0.000158194
0.000160294
0.000160279
0.000158218
0.000160303
0.000160298
0.000151493
0.00015324
0.000158223
0.000160306
0.000160307
0.000153247
0.000153568
0.000155338
0.00016098
0.000160982
0.000163093
0.000163096
0.000153572
0.000155345
0.000160988
0.000160982
0.000163105
0.000163098
0.000161001
0.000163114
0.000163102
0.00015357
0.000155342
0.000161013
0.000163113
0.000163111
0.000155346
0.000155662
0.000157353
0.000163805
0.0001638
0.000165827
0.000165814
0.000155665
0.000157344
0.000163816
0.000163794
0.00016583
0.000165798
0.000163807
0.000165832
0.000165824
0.000155658
0.00015733
0.000163815
0.000165825
0.000165834
0.000157345
0.000157639
0.000159244
0.000166477
0.000166472
0.000168412
0.00016841
0.000157634
0.000159254
0.000166479
0.000166455
0.000168421
0.000168414
0.000166467
0.000168431
0.000168429
0.000157622
0.000159258
0.000166474
0.000168438
0.000168435
0.000159255
0.000159525
0.00016114
0.000169041
0.000169041
0.000170992
0.000171012
0.000159535
0.000161157
0.000169058
0.000169059
0.000171005
0.000170999
0.000169074
0.000171032
0.000171015
0.000159542
0.000161146
0.000169085
0.000171023
0.000171027
0.000161158
0.000161415
0.000162984
0.000171637
0.000171656
0.00017348
0.000173467
0.000161436
0.000162975
0.000171644
0.000171623
0.000173491
0.000173462
0.000171654
0.000173492
0.000173481
0.000161415
0.000162961
0.000171666
0.00017349
0.000173495
0.000162974
0.000163253
0.000164804
0.000174135
0.000174111
0.000176067
0.000176036
0.000163234
0.000164785
0.000174144
0.000174105
0.000176063
0.000176018
0.000174124
0.000176036
0.000176027
0.000163226
0.000164784
0.000174134
0.00017603
0.000176029
0.000164783
0.000165013
0.000166262
0.000176571
0.000176558
0.00017804
0.000178078
0.000165005
0.000166312
0.000176577
0.000176564
0.000178084
0.00017814
0.000176549
0.000178136
0.000178147
0.000165009
0.000166328
0.000176555
0.000178172
0.000178167
0.000166331
0.000166514
0.000168248
0.000178687
0.000178732
0.000180765
0.000180792
0.00016657
0.000168259
0.000178721
0.000178748
0.000180725
0.00018062
0.000178795
0.000180778
0.000180684
0.000166567
0.00016816
0.00017881
0.000180651
0.000180679
0.000168197
0.000168476
0.000169607
0.000181334
0.000181311
0.000182708
0.000182614
0.000168458
0.000169532
0.000181301
0.000181199
0.000182768
0.000182849
0.000181232
0.000182645
0.000182779
0.000168387
0.000169704
0.000181243
0.000182895
0.000182845
0.000169656
0.000169782
0.000171234
0.000183216
0.0001832
0.000184965
0.000185031
0.000169741
0.000171303
0.000183268
0.000183372
0.000184941
0.000184775
0.000183286
0.000185062
0.000184916
0.000169893
0.000171078
0.000183327
0.000184767
0.00018485
0.000171164
0.000171438
0.000172472
0.000185491
0.000185455
0.000186849
0.00018681
0.000171459
0.00017244
0.000185494
0.000185269
0.000186896
0.000186956
0.000185474
0.00018685
0.000186853
0.000171243
0.00017257
0.000185421
0.000186941
0.000186858
0.000172498
0.000172549
0.000173485
0.000187204
0.000187325
0.000188164
0.000188336
0.000172587
0.000173669
0.000187217
0.000187406
0.000188148
0.00018828
0.000187206
0.00018834
0.000188317
0.000172727
0.000173626
0.000187216
0.000188433
0.000188429
0.000173629
0.000173733
0.000176212
0.000188756
0.00018876
0.000191643
0.000191406
0.000173816
0.000175982
0.000188755
0.00018875
0.00019162
0.000191335
0.000188893
0.000191403
0.000191481
0.000173786
0.000175962
0.000189015
0.000191323
0.000191451
0.000176074
0.000176517
0.000177174
0.000192569
0.000192361
0.00019363
0.000193605
0.000176334
0.000177156
0.000192546
0.000192285
0.00019368
0.000193737
0.000192363
0.000193631
0.000193634
0.000176308
0.000177277
0.000192305
0.000193715
0.000193642
0.000177184
0.00017703
0.000176573
0.00019357
0.000193538
0.000192905
0.000193236
0.000177031
0.000177113
0.000193643
0.000193745
0.000193001
0.000193161
0.000193618
0.0001933
0.000192943
0.000177163
0.000176483
0.00019364
0.00019315
0.000192967
0.000176332
0.000176708
0.000178651
0.000193173
0.0001941
0.000195415
0.000195707
0.000177485
0.000178624
0.000193024
0.000192939
0.000195231
0.000195247
0.00019273
0.000195502
0.00019559
0.00017638
0.000178845
0.000192658
0.000195419
0.00019558
0.000179096
0.0001788
0.000181329
0.000195805
0.000195612
0.000198536
0.000196792
0.000178467
0.000179818
0.000195857
0.000196097
0.000198956
0.000199106
0.000196716
0.000197389
0.000199706
0.00017924
0.000181503
0.000196934
0.000199394
0.000200033
0.000182135
0.000181917
0.000184733
0.000199873
0.000198642
0.000202065
0.0002023
0.000180647
0.000184774
0.000200194
0.000200187
0.000202138
0.000201906
0.000200419
0.000202205
0.000201501
0.000181882
0.000184334
0.000200592
0.000201679
0.000201609
0.000183397
0.000184696
0.000177076
0.000202886
0.000203036
0.000197833
0.000200705
0.000185005
0.000179851
0.000202963
0.000202694
0.00019733
0.00019724
0.000201952
0.000200279
0.00019591
0.000184375
0.000177065
0.000201825
0.000196802
0.000195318
0.000175874
0.000175495
0.000168831
0.000194272
0.000196126
0.000188054
0.000188506
0.00017764
0.000168402
0.000193903
0.000193765
0.000187845
0.000187749
0.000193461
0.00018861
0.000188521
0.000175491
0.000168674
0.000193137
0.00018799
0.000188378
0.000170959
0.000168931
0.000192909
0.000185544
0.000185534
0.000207563
0.000203761
0.000166823
0.000189859
0.000185458
0.000185286
0.000208055
0.000207651
0.000186879
0.000204111
0.000209571
0.000168599
0.000192485
0.000187099
0.000208166
0.000210393
0.000194052
0.000197138
0.000214601
0.000218086
0.000215874
0.000235392
0.000236236
0.000194753
0.000215799
0.000218343
0.000218124
0.000235281
0.000235324
0.000218576
0.00023587
0.000233492
0.000196746
0.000214758
0.000219018
0.000234805
0.000233363
0.000212761
0.000215348
0.00019004
0.000240434
0.000241604
0.000223407
0.00022736
0.000217169
0.0001927
0.00024029
0.000240366
0.000223094
0.000223932
0.000238203
0.000226919
0.000219932
0.000215662
0.00019051
0.000238014
0.000223225
0.000219052
0.000187286
0.000182886
0.000158371
0.000207114
0.000209701
0.00017796
0.000178375
0.000184904
0.000158581
0.000206984
0.00020794
0.000178004
0.000178736
0.000205089
0.000178763
0.000179722
0.000183437
0.000159571
0.000204502
0.000179136
0.000179693
0.000160085
0.000156459
0.000169817
0.000174705
0.000175022
0.000175387
0.000175814
0.000156684
0.000170595
0.000174765
0.000175538
0.00017471
0.000173395
0.000176767
0.000176414
0.000179491
0.000157836
0.00016811
0.000176776
0.000174189
0.000179208
0.000173044
0.000175253
0.000199584
0.000189431
0.000189246
0.000219414
0.0002165
0.000175781
0.000196176
0.000188731
0.000186184
0.000219758
0.000217372
0.000192447
0.000216309
0.000218932
0.000173099
0.000197118
0.000192181
0.000217289
0.000219475
0.000199174
0.000200942
0.000200644
0.00022353
0.00021991
0.000228093
0.000222583
0.000196947
0.000194735
0.000224226
0.000222748
0.000229519
0.000229353
0.000222262
0.000222179
0.000226114
0.000198974
0.000203029
0.000223068
0.000228982
0.000227675
0.000198289
0.000198419
0.000186687
0.00022574
0.000220543
0.000211722
0.00021302
0.000193631
0.000188956
0.000227437
0.000229357
0.000211277
0.000212491
0.000221902
0.000212359
0.000207295
0.000201159
0.000187297
0.000223518
0.000211693
0.000206746
0.00018255
0.000185487
0.000181137
0.000208571
0.000211388
0.000204003
0.000208861
0.00018861
0.000186464
0.000207784
0.000208297
0.000202841
0.000202785
0.000204974
0.000208176
0.000200263
0.000185623
0.000180721
0.00020415
0.000202325
0.000199244
0.000180133
0.000180627
0.000195047
0.000202349
0.00020753
0.000215298
0.00021725
0.000185687
0.000196883
0.000201395
0.00020177
0.000215529
0.000216415
0.000201721
0.000218964
0.000223062
0.00018093
0.000196312
0.00020127
0.000217631
0.000222913
0.000201849
0.000197735
0.000210228
0.000221837
0.000222606
0.000233426
0.000232651
0.000199073
0.000209777
0.000221755
0.000221261
0.000232684
0.000229336
0.000227914
0.000233372
0.000237515
0.000198219
0.000204843
0.000227548
0.000229756
0.00023656
0.000211642
0.000210822
0.000190097
0.000237351
0.000236068
0.000219744
0.000215067
0.000208838
0.000185899
0.000236336
0.000231295
0.000219597
0.000213316
0.0002394
0.000213981
0.000211981
0.000202925
0.000185416
0.0002381
0.000212552
0.000212105
0.00018411
0.000184496
0.000165336
0.000207448
0.000204014
0.000186185
0.000185825
0.000180945
0.000164845
0.000207941
0.000205816
0.000187552
0.000194032
0.000202213
0.000185979
0.000187142
0.000182338
0.000173339
0.000202995
0.000194475
0.000188801
0.000166502
0.000163642
0.000174954
0.000183582
0.000183308
0.000184884
0.000187811
0.000163141
0.000177383
0.000185049
0.000192227
0.0001861
0.000196891
0.000184835
0.000188861
0.000192697
0.000172294
0.000183605
0.000186637
0.000197943
0.000193879
0.000180798
0.000179836
0.000205354
0.00019817
0.000201358
0.000229366
0.000232068
0.000182394
0.000208147
0.000198775
0.000206088
0.000228357
0.000225581
0.000204887
0.000232278
0.000230457
0.00018701
0.000201918
0.000205384
0.000225598
0.000229213
0.000206299
0.000207332
0.000211701
0.000234561
0.000236962
0.000243912
0.000246381
0.000210079
0.000213214
0.000233169
0.000228326
0.000242073
0.000233528
0.000233977
0.000245918
0.00024043
0.000202673
0.000200408
0.000232458
0.000232574
0.000238175
0.000205161
0.000207888
0.000184595
0.000242186
0.000242811
0.000211717
0.000208627
0.000208414
0.000181378
0.000239991
0.000227728
0.00021121
0.000206525
0.000232393
0.000207482
0.00020495
0.000196898
0.000181023
0.000229867
0.000205585
0.000204679
0.000179228
0.000181948
0.000175633
0.000204866
0.000201385
0.000196506
0.000192744
0.000178412
0.000171335
0.000204917
0.000202882
0.000197257
0.000197928
0.000200463
0.000192502
0.000194955
0.000179824
0.000178189
0.00020076
0.000197651
0.000195626
0.000176121
0.00017554
0.000187362
0.00019499
0.000191044
0.000206081
0.000206162
0.000171656
0.000187633
0.000195844
0.000197778
0.000207434
0.000212859
0.00019506
0.000207306
0.000212644
0.000179407
0.000192535
0.000196326
0.00021385
0.000213758
0.000192581
0.000189133
0.000196237
0.00021156
0.000212719
0.000222556
0.000225942
0.000190009
0.000199968
0.000212493
0.000216947
0.000222532
0.000225877
0.000217381
0.000226728
0.000226972
0.000193869
0.000199813
0.00021809
0.000226877
0.000227277
0.000200343
0.000198815
0.000222337
0.000226323
0.000202965
0.000222218
0.000225176
0.000250961
0.000249456
0.000250974
0.000226469
0.000201989
0.000226508
0.00023473
0.000234746
0.000234729
0.000234729
0.000235117
0.000234798
0.000234701
0.000234727
0.000235118
0.000234798
0.000234727
0.000234701
0.000234867
0.000233566
0.000233566
0.000104651
3.87411e-05
0.000129118
3.98249e-05
2.16834e-05
2.28313e-05
0.000104643
3.87371e-05
0.000129114
3.98214e-05
0.000233973
0.000233973
0.000233973
0.000232935
0.000232935
0.000232935
0.000232935
0.000206196
9.36752e-05
0.000233969
0.000231994
0.000222614
8.72226e-05
0.000233611
2.16823e-05
2.28307e-05
0.00020619
0.000233969
9.36747e-05
0.000231994
0.000222622
0.000233611
8.72283e-05
4.78013e-05
4.77894e-05
0.000231345
4.40185e-05
4.40089e-05
7.25677e-05
4.2434e-05
8.14027e-05
4.37634e-05
2.47749e-05
2.54634e-05
7.25581e-05
4.24305e-05
8.13974e-05
4.37596e-05
0.000232532
0.000232532
0.000232532
0.000231084