/*--------------------------------*- C++ -*----------------------------------*\
| =========                 |                                                 |
| \\      /  F ield         | OpenFOAM: The Open Source CFD Toolbox           |
|  \\    /   O peration     | Version:  v2012                                 |
|   \\  /    A nd           | Website:  www.openfoam.com                      |
|    \\/     M anipulation  |                                                 |
\*---------------------------------------------------------------------------*/
FoamFile
{
    version     2.0;
    format      ascii;
    class       volScalarField;
    location    "750";
    object      p;
}
// * * * * * * * * * * * * * * * * * * * * * * * * * * * * * * * * * * * * * //

dimensions      [0 2 -2 0 0 0 0];


internalField   nonuniform List<scalar> 
171728
(
0.00360414
0.00360446
0.00360447
0.00360752
0.00354878
0.0035492
0.0035492
0.00355219
0.00349803
0.003498
0.003498
0.00350076
0.00344565
0.00344566
0.00344566
0.00344844
0.0033943
0.00339431
0.00339431
0.00339706
0.00334433
0.00334434
0.00334434
0.00334706
0.0032958
0.00329582
0.00329582
0.0032985
0.00324857
0.0032486
0.0032486
0.00325124
0.00320245
0.00320246
0.00320247
0.00320509
0.00315721
0.00315723
0.00315723
0.00315983
0.0031127
0.00311272
0.00311272
0.00311529
0.00306879
0.00306882
0.00306881
0.00307135
0.0030254
0.00302542
0.00302542
0.00302793
0.00298247
0.00298249
0.00298249
0.00298499
0.00293997
0.00293998
0.00293998
0.00294248
0.00289788
0.00289789
0.00289788
0.00290037
0.00285618
0.00285617
0.00285617
0.00285865
0.00281483
0.00281482
0.00281482
0.00281729
0.00277381
0.0027738
0.0027738
0.00277626
0.00273312
0.00273309
0.00273309
0.00273555
0.00269271
0.00269268
0.00269267
0.00269513
0.00265257
0.00265253
0.00265253
0.00265498
0.00261268
0.00261263
0.00261264
0.00261508
0.00257303
0.00257298
0.00257298
0.00257541
0.00253361
0.00253355
0.00253355
0.00253597
0.0024944
0.00249434
0.00249434
0.00249675
0.0024554
0.00245535
0.00245535
0.00245773
0.0024166
0.00241655
0.00241655
0.00241892
0.00237799
0.00237795
0.00237795
0.00238029
0.00233957
0.00233953
0.00233953
0.00234186
0.00230133
0.0023013
0.0023013
0.0023036
0.00226327
0.00226324
0.00226324
0.00226552
0.00222538
0.00222535
0.00222535
0.00222761
0.00218764
0.00218762
0.00218762
0.00218986
0.00215006
0.00215005
0.00215005
0.00215227
0.00211264
0.00211263
0.00211263
0.00211483
0.00207536
0.00207535
0.00207535
0.00207754
0.00203823
0.00203821
0.00203821
0.00204038
0.00200122
0.0020012
0.0020012
0.00200336
0.00196435
0.00196433
0.00196433
0.00196647
0.0019276
0.00192757
0.00192757
0.0019297
0.00189097
0.00189093
0.00189093
0.00189305
0.00185445
0.0018544
0.0018544
0.00185652
0.00181803
0.00181798
0.00181798
0.00182008
0.00178172
0.00178165
0.00178165
0.00178375
0.0017455
0.00174542
0.00174542
0.00174751
0.00170936
0.00170928
0.00170928
0.00171136
0.00167331
0.00167322
0.00167322
0.0016753
0.00163733
0.00163724
0.00163724
0.00163931
0.00160143
0.00160133
0.00160133
0.00160339
0.00156559
0.00156549
0.00156549
0.00156754
0.00152982
0.00152971
0.00152971
0.00153175
0.00149409
0.00149398
0.00149398
0.00149602
0.00145842
0.0014583
0.0014583
0.00146034
0.0014228
0.00142267
0.00142267
0.00142471
0.00138721
0.00138709
0.00138709
0.00138911
0.00135166
0.00135153
0.00135154
0.00135356
0.00131615
0.00131602
0.00131602
0.00131804
0.00128066
0.00128053
0.00128053
0.00128255
0.0012452
0.00124508
0.00124508
0.00124709
0.00120974
0.00120963
0.00120963
0.00121165
0.00117435
0.00117422
0.00117422
0.00117623
0.00113891
0.0011388
0.00113881
0.00114081
0.00110352
0.00110341
0.0011034
0.00110541
0.0010681
0.001068
0.00106801
0.00107001
0.00103272
0.00103263
0.00103262
0.00103464
0.000997423
0.000997321
0.000997315
0.000999313
0.000961995
0.00096185
0.000961865
0.000963854
0.000926476
0.000926437
0.000926399
0.000928429
0.000891146
0.000891037
0.000891111
0.000893131
0.000855805
0.000855707
0.000855695
0.00085766
0.00082038
0.000820295
0.000820181
0.000822192
0.000784128
0.000784059
0.000784065
0.000786132
0.000748622
0.000748667
0.000748815
0.000750843
0.000715499
0.000715697
0.000715597
0.000717475
0.0006813
0.000680491
0.000680413
0.000682198
0.000642834
0.00064219
0.000642306
0.000644205
0.000603877
0.000605028
0.000605034
0.000607585
0.000569897
0.000570556
0.000570322
0.000572707
0.000537223
0.000535939
0.00053621
0.000537642
0.000502196
0.000501653
0.000501692
0.000503403
0.00046677
0.000466984
0.000466594
0.000468866
0.000430119
0.0004303
0.000430658
0.000432753
0.000394252
0.000394259
0.000394369
0.000396429
0.000357936
0.000357495
0.000357121
0.000359174
0.000319394
0.000319027
0.000319295
0.000321253
0.000281606
0.000282476
0.000282539
0.000284923
0.000247815
0.000248195
0.000247905
0.000250184
0.000215384
0.000214338
0.000214379
0.00021592
0.000179436
0.000178921
0.000179169
0.000180841
0.000141301
0.000141454
0.000141638
0.000143894
0.000104125
0.000104797
0.000104549
0.000106981
6.85884e-05
6.87619e-05
6.8668e-05
7.06648e-05
3.44087e-05
3.32612e-05
3.34105e-05
3.49423e-05
6.16054e-06
7.02292e-06
7.07932e-06
5.19444e-06
0.00361754
0.00361777
0.00361777
0.00361754
0.00361777
0.00361777
0.00361853
0.00361853
0.00361853
0.00361853
0.00361777
0.00361777
0.00361754
0.00361777
0.00361777
0.00361754
0.00360752
0.00355876
0.00360446
0.00360446
0.00356104
0.00356104
0.00360752
0.00355876
0.00360447
0.00360446
0.00356104
0.00356104
0.00360446
0.00356104
0.00356104
0.00360752
0.00355876
0.00360447
0.00356104
0.00356104
0.00355876
0.00355219
0.00350768
0.0035492
0.0035492
0.00351113
0.00351113
0.00355219
0.00350769
0.0035492
0.0035492
0.00351113
0.00351113
0.0035492
0.00351113
0.00351113
0.00355219
0.00350768
0.0035492
0.00351113
0.00351113
0.00350769
0.00350076
0.00345532
0.00349801
0.00349801
0.00345868
0.00345868
0.00350076
0.00345532
0.00349801
0.00349801
0.00345868
0.00345868
0.00349801
0.00345868
0.00345868
0.00350076
0.00345532
0.00349801
0.00345868
0.00345868
0.00345532
0.00344844
0.00340377
0.00344566
0.00344567
0.00340703
0.00340703
0.00344844
0.00340377
0.00344566
0.00344567
0.00340703
0.00340703
0.00344566
0.00340703
0.00340703
0.00344844
0.00340377
0.00344566
0.00340703
0.00340703
0.00340377
0.00339706
0.00335356
0.00339431
0.00339431
0.00335669
0.00335669
0.00339706
0.00335356
0.00339431
0.00339431
0.00335669
0.00335669
0.00339431
0.00335669
0.00335669
0.00339706
0.00335356
0.00339431
0.00335669
0.00335669
0.00335356
0.00334706
0.0033048
0.00334434
0.00334434
0.00330782
0.00330782
0.00334706
0.0033048
0.00334434
0.00334434
0.00330782
0.00330782
0.00334434
0.00330782
0.00330782
0.00334706
0.0033048
0.00334434
0.00330782
0.00330782
0.0033048
0.0032985
0.00325738
0.00329582
0.00329582
0.00326029
0.00326029
0.0032985
0.00325737
0.00329582
0.00329582
0.00326029
0.00326029
0.00329582
0.00326029
0.00326029
0.0032985
0.00325738
0.00329582
0.00326029
0.00326029
0.00325737
0.00325124
0.00321108
0.00324859
0.00324859
0.00321391
0.00321391
0.00325125
0.00321107
0.00324859
0.00324859
0.00321391
0.0032139
0.0032486
0.00321391
0.0032139
0.00325125
0.00321108
0.0032486
0.00321391
0.00321391
0.00321108
0.00320508
0.0031657
0.00320246
0.00320246
0.00316847
0.00316847
0.00320509
0.0031657
0.00320246
0.00320247
0.00316847
0.00316847
0.00320247
0.00316847
0.00316847
0.00320509
0.0031657
0.00320247
0.00316847
0.00316847
0.0031657
0.00315982
0.00312108
0.00315723
0.00315723
0.00312379
0.0031238
0.00315982
0.00312107
0.00315723
0.00315723
0.00312379
0.0031238
0.00315724
0.0031238
0.00312379
0.00315983
0.00312107
0.00315724
0.0031238
0.00312379
0.00312107
0.00311529
0.00307706
0.00311273
0.00311272
0.00307974
0.00307974
0.00311529
0.00307706
0.00311273
0.00311272
0.00307974
0.00307974
0.00311273
0.00307974
0.00307974
0.00311529
0.00307706
0.00311273
0.00307974
0.00307974
0.00307705
0.00307136
0.00303356
0.00306882
0.00306882
0.00303622
0.00303622
0.00307135
0.00303356
0.00306882
0.00306881
0.00303622
0.00303622
0.00306881
0.00303622
0.00303622
0.00307135
0.00303356
0.00306881
0.00303622
0.00303622
0.00303356
0.00302793
0.00299055
0.00302542
0.00302542
0.00299318
0.00299318
0.00302793
0.00299056
0.00302542
0.00302542
0.00299318
0.00299318
0.00302542
0.00299318
0.00299318
0.00302793
0.00299055
0.00302542
0.00299318
0.00299318
0.00299056
0.00298499
0.002948
0.00298248
0.00298248
0.00295057
0.00295057
0.00298499
0.002948
0.00298248
0.00298248
0.00295057
0.00295057
0.00298248
0.00295057
0.00295057
0.00298499
0.002948
0.00298249
0.00295057
0.00295057
0.002948
0.00294248
0.00290584
0.00293998
0.00293998
0.00290837
0.00290837
0.00294248
0.00290584
0.00293998
0.00293998
0.00290837
0.00290837
0.00293998
0.00290837
0.00290837
0.00294248
0.00290584
0.00293998
0.00290837
0.00290837
0.00290584
0.00290037
0.00286407
0.00289788
0.00289788
0.00286656
0.00286656
0.00290037
0.00286407
0.00289788
0.00289788
0.00286656
0.00286656
0.00289788
0.00286656
0.00286656
0.00290037
0.00286407
0.00289788
0.00286656
0.00286656
0.00286407
0.00285865
0.00282266
0.00285617
0.00285617
0.00282513
0.00282513
0.00285865
0.00282266
0.00285617
0.00285617
0.00282513
0.00282513
0.00285617
0.00282513
0.00282513
0.00285865
0.00282266
0.00285617
0.00282513
0.00282513
0.00282266
0.00281729
0.00278159
0.00281482
0.00281482
0.00278403
0.00278403
0.00281729
0.00278159
0.00281482
0.00281482
0.00278403
0.00278403
0.00281482
0.00278403
0.00278403
0.00281729
0.00278159
0.00281482
0.00278403
0.00278403
0.00278159
0.00277626
0.00274084
0.0027738
0.0027738
0.00274324
0.00274324
0.00277626
0.00274084
0.0027738
0.0027738
0.00274324
0.00274324
0.0027738
0.00274324
0.00274324
0.00277626
0.00274084
0.0027738
0.00274324
0.00274324
0.00274084
0.00273555
0.00270038
0.00273309
0.00273309
0.00270275
0.00270275
0.00273555
0.00270039
0.00273309
0.00273309
0.00270275
0.00270275
0.00273309
0.00270275
0.00270275
0.00273555
0.00270038
0.00273309
0.00270275
0.00270275
0.00270038
0.00269513
0.0026602
0.00269268
0.00269268
0.00266254
0.00266254
0.00269513
0.0026602
0.00269267
0.00269267
0.00266254
0.00266254
0.00269267
0.00266254
0.00266254
0.00269513
0.0026602
0.00269267
0.00266254
0.00266254
0.0026602
0.00265498
0.00262027
0.00265253
0.00265253
0.00262259
0.00262259
0.00265497
0.00262027
0.00265253
0.00265253
0.00262259
0.00262259
0.00265253
0.00262259
0.00262259
0.00265497
0.00262027
0.00265253
0.00262259
0.00262259
0.00262027
0.00261508
0.00258058
0.00261263
0.00261263
0.00258287
0.00258287
0.00261508
0.00258058
0.00261264
0.00261263
0.00258287
0.00258287
0.00261264
0.00258287
0.00258287
0.00261508
0.00258058
0.00261264
0.00258287
0.00258287
0.00258058
0.00257541
0.00254112
0.00257298
0.00257298
0.00254339
0.00254339
0.00257541
0.00254112
0.00257298
0.00257298
0.00254339
0.00254339
0.00257298
0.00254339
0.00254339
0.00257541
0.00254112
0.00257298
0.00254339
0.00254339
0.00254112
0.00253597
0.00250187
0.00253355
0.00253355
0.00250413
0.00250413
0.00253597
0.00250187
0.00253355
0.00253355
0.00250413
0.00250413
0.00253355
0.00250413
0.00250413
0.00253597
0.00250187
0.00253355
0.00250413
0.00250413
0.00250187
0.00249675
0.00246283
0.00249434
0.00249434
0.00246508
0.00246508
0.00249675
0.00246283
0.00249434
0.00249434
0.00246508
0.00246508
0.00249435
0.00246508
0.00246508
0.00249675
0.00246283
0.00249434
0.00246508
0.00246508
0.00246283
0.00245773
0.002424
0.00245535
0.00245535
0.00242623
0.00242623
0.00245773
0.002424
0.00245535
0.00245535
0.00242623
0.00242623
0.00245535
0.00242623
0.00242623
0.00245773
0.002424
0.00245535
0.00242623
0.00242623
0.002424
0.00241892
0.00238536
0.00241655
0.00241655
0.00238758
0.00238758
0.00241892
0.00238536
0.00241655
0.00241655
0.00238758
0.00238758
0.00241655
0.00238758
0.00238758
0.00241892
0.00238536
0.00241655
0.00238758
0.00238758
0.00238536
0.00238029
0.0023469
0.00237795
0.00237795
0.00234912
0.00234912
0.00238029
0.0023469
0.00237795
0.00237795
0.00234912
0.00234912
0.00237795
0.00234912
0.00234912
0.00238029
0.0023469
0.00237795
0.00234912
0.00234912
0.0023469
0.00234186
0.00230863
0.00233953
0.00233953
0.00231084
0.00231084
0.00234186
0.00230863
0.00233953
0.00233953
0.00231084
0.00231084
0.00233953
0.00231084
0.00231084
0.00234186
0.00230863
0.00233953
0.00231084
0.00231084
0.00230863
0.0023036
0.00227053
0.0023013
0.0023013
0.00227274
0.00227274
0.0023036
0.00227053
0.0023013
0.0023013
0.00227274
0.00227274
0.0023013
0.00227274
0.00227274
0.0023036
0.00227053
0.0023013
0.00227274
0.00227274
0.00227053
0.00226552
0.0022326
0.00226324
0.00226324
0.00223481
0.0022348
0.00226552
0.0022326
0.00226324
0.00226324
0.0022348
0.0022348
0.00226324
0.0022348
0.00223481
0.00226552
0.0022326
0.00226324
0.0022348
0.0022348
0.0022326
0.00222761
0.00219484
0.00222535
0.00222535
0.00219704
0.00219704
0.00222761
0.00219484
0.00222535
0.00222535
0.00219704
0.00219704
0.00222535
0.00219704
0.00219704
0.00222761
0.00219484
0.00222535
0.00219704
0.00219704
0.00219484
0.00218986
0.00215723
0.00218762
0.00218762
0.00215943
0.00215943
0.00218986
0.00215723
0.00218762
0.00218762
0.00215943
0.00215943
0.00218762
0.00215943
0.00215943
0.00218986
0.00215723
0.00218762
0.00215943
0.00215943
0.00215723
0.00215227
0.00211978
0.00215005
0.00215005
0.00212197
0.00212197
0.00215227
0.00211978
0.00215005
0.00215005
0.00212197
0.00212197
0.00215005
0.00212197
0.00212197
0.00215227
0.00211978
0.00215005
0.00212197
0.00212197
0.00211978
0.00211483
0.00208247
0.00211263
0.00211263
0.00208465
0.00208465
0.00211483
0.00208247
0.00211263
0.00211263
0.00208465
0.00208465
0.00211263
0.00208465
0.00208465
0.00211483
0.00208247
0.00211263
0.00208465
0.00208465
0.00208247
0.00207753
0.0020453
0.00207535
0.00207535
0.00204748
0.00204748
0.00207753
0.0020453
0.00207535
0.00207535
0.00204748
0.00204748
0.00207535
0.00204748
0.00204748
0.00207753
0.0020453
0.00207535
0.00204748
0.00204748
0.0020453
0.00204038
0.00200827
0.00203821
0.00203821
0.00201044
0.00201044
0.00204038
0.00200827
0.00203821
0.00203821
0.00201044
0.00201044
0.00203821
0.00201044
0.00201044
0.00204038
0.00200827
0.00203821
0.00201044
0.00201044
0.00200827
0.00200336
0.00197137
0.0020012
0.0020012
0.00197353
0.00197353
0.00200336
0.00197137
0.0020012
0.0020012
0.00197353
0.00197353
0.0020012
0.00197353
0.00197353
0.00200336
0.00197137
0.0020012
0.00197353
0.00197353
0.00197137
0.00196647
0.00193459
0.00196433
0.00196433
0.00193675
0.00193675
0.00196647
0.00193459
0.00196433
0.00196433
0.00193675
0.00193675
0.00196433
0.00193675
0.00193675
0.00196647
0.00193459
0.00196433
0.00193675
0.00193675
0.00193459
0.0019297
0.00189793
0.00192757
0.00192757
0.00190008
0.00190008
0.0019297
0.00189793
0.00192757
0.00192757
0.00190008
0.00190008
0.00192757
0.00190008
0.00190008
0.0019297
0.00189793
0.00192757
0.00190008
0.00190008
0.00189793
0.00189305
0.00186138
0.00189093
0.00189093
0.00186352
0.00186352
0.00189305
0.00186138
0.00189093
0.00189093
0.00186352
0.00186352
0.00189093
0.00186352
0.00186352
0.00189305
0.00186138
0.00189093
0.00186352
0.00186352
0.00186138
0.00185652
0.00182494
0.0018544
0.0018544
0.00182707
0.00182707
0.00185651
0.00182494
0.0018544
0.0018544
0.00182707
0.00182707
0.0018544
0.00182707
0.00182707
0.00185652
0.00182494
0.0018544
0.00182707
0.00182707
0.00182494
0.00182008
0.0017886
0.00181798
0.00181798
0.00179073
0.00179073
0.00182008
0.0017886
0.00181798
0.00181798
0.00179073
0.00179073
0.00181798
0.00179073
0.00179073
0.00182008
0.0017886
0.00181798
0.00179073
0.00179073
0.0017886
0.00178375
0.00175236
0.00178165
0.00178165
0.00175447
0.00175447
0.00178375
0.00175236
0.00178165
0.00178165
0.00175447
0.00175447
0.00178165
0.00175447
0.00175447
0.00178375
0.00175236
0.00178165
0.00175447
0.00175447
0.00175236
0.00174751
0.0017162
0.00174542
0.00174542
0.00171831
0.00171831
0.00174751
0.0017162
0.00174542
0.00174542
0.00171831
0.00171831
0.00174542
0.00171831
0.00171831
0.00174751
0.0017162
0.00174542
0.00171831
0.00171831
0.0017162
0.00171136
0.00168013
0.00170928
0.00170928
0.00168223
0.00168223
0.00171136
0.00168013
0.00170928
0.00170928
0.00168223
0.00168223
0.00170928
0.00168223
0.00168223
0.00171136
0.00168013
0.00170928
0.00168223
0.00168223
0.00168013
0.0016753
0.00164413
0.00167322
0.00167322
0.00164623
0.00164623
0.0016753
0.00164413
0.00167322
0.00167322
0.00164623
0.00164623
0.00167322
0.00164623
0.00164623
0.0016753
0.00164413
0.00167322
0.00164623
0.00164623
0.00164413
0.00163931
0.00160821
0.00163724
0.00163724
0.0016103
0.0016103
0.00163931
0.00160821
0.00163724
0.00163724
0.0016103
0.0016103
0.00163724
0.0016103
0.0016103
0.00163931
0.00160821
0.00163724
0.0016103
0.0016103
0.00160821
0.00160339
0.00157235
0.00160133
0.00160133
0.00157444
0.00157444
0.00160339
0.00157235
0.00160133
0.00160133
0.00157444
0.00157444
0.00160133
0.00157444
0.00157444
0.00160339
0.00157235
0.00160133
0.00157444
0.00157444
0.00157235
0.00156754
0.00153656
0.00156549
0.00156549
0.00153865
0.00153865
0.00156754
0.00153656
0.00156549
0.00156549
0.00153865
0.00153865
0.00156549
0.00153865
0.00153865
0.00156754
0.00153656
0.00156549
0.00153865
0.00153865
0.00153656
0.00153175
0.00150082
0.00152971
0.00152971
0.00150291
0.00150291
0.00153175
0.00150083
0.00152971
0.00152971
0.00150291
0.00150291
0.00152971
0.00150291
0.00150291
0.00153175
0.00150082
0.00152971
0.00150291
0.00150291
0.00150082
0.00149602
0.00146514
0.00149398
0.00149398
0.00146722
0.00146721
0.00149602
0.00146514
0.00149398
0.00149398
0.00146722
0.00146722
0.00149398
0.00146721
0.00146722
0.00149602
0.00146514
0.00149398
0.00146722
0.00146722
0.00146514
0.00146034
0.00142951
0.0014583
0.0014583
0.00143158
0.00143158
0.00146034
0.00142951
0.0014583
0.0014583
0.00143158
0.00143158
0.0014583
0.00143158
0.00143158
0.00146034
0.00142951
0.0014583
0.00143158
0.00143158
0.0014295
0.00142471
0.00139391
0.00142267
0.00142267
0.00139598
0.00139598
0.00142471
0.00139391
0.00142267
0.00142267
0.00139598
0.00139598
0.00142267
0.00139598
0.00139598
0.00142471
0.00139391
0.00142267
0.00139598
0.00139598
0.00139391
0.00138911
0.00135835
0.00138709
0.00138709
0.00136042
0.00136042
0.00138911
0.00135835
0.00138709
0.00138709
0.00136042
0.00136042
0.00138709
0.00136042
0.00136042
0.00138911
0.00135835
0.00138709
0.00136042
0.00136042
0.00135835
0.00135356
0.00132283
0.00135153
0.00135153
0.0013249
0.0013249
0.00135356
0.00132283
0.00135153
0.00135154
0.0013249
0.0013249
0.00135154
0.00132489
0.0013249
0.00135356
0.00132283
0.00135154
0.0013249
0.0013249
0.00132283
0.00131804
0.00128734
0.00131602
0.00131602
0.0012894
0.0012894
0.00131804
0.00128734
0.00131602
0.00131602
0.0012894
0.0012894
0.00131602
0.0012894
0.0012894
0.00131804
0.00128734
0.00131602
0.0012894
0.0012894
0.00128734
0.00128255
0.00125188
0.00128053
0.00128053
0.00125394
0.00125394
0.00128255
0.00125188
0.00128053
0.00128053
0.00125394
0.00125394
0.00128053
0.00125394
0.00125394
0.00128255
0.00125188
0.00128053
0.00125394
0.00125394
0.00125188
0.00124709
0.00121643
0.00124507
0.00124507
0.00121848
0.00121849
0.00124709
0.00121643
0.00124507
0.00124508
0.00121849
0.00121849
0.00124508
0.00121849
0.00121849
0.00124709
0.00121643
0.00124508
0.00121849
0.00121849
0.00121643
0.00121164
0.00118102
0.00120963
0.00120963
0.00118308
0.00118308
0.00121164
0.00118102
0.00120963
0.00120963
0.00118308
0.00118307
0.00120963
0.00118307
0.00118307
0.00121164
0.00118102
0.00120963
0.00118307
0.00118307
0.00118102
0.00117623
0.0011456
0.00117423
0.00117422
0.00114765
0.00114765
0.00117623
0.0011456
0.00117422
0.00117422
0.00114766
0.00114766
0.00117422
0.00114765
0.00114766
0.00117623
0.0011456
0.00117422
0.00114766
0.00114766
0.0011456
0.00114081
0.00111021
0.0011388
0.0011388
0.00111226
0.00111226
0.00114081
0.00111021
0.0011388
0.00113881
0.00111225
0.00111225
0.0011388
0.00111226
0.00111226
0.00114081
0.0011102
0.0011388
0.00111225
0.00111225
0.0011102
0.00110542
0.0010748
0.00110341
0.00110341
0.00107685
0.00107685
0.00110542
0.0010748
0.00110341
0.0011034
0.00107685
0.00107686
0.00110341
0.00107685
0.00107685
0.00110541
0.00107481
0.00110341
0.00107686
0.00107686
0.0010748
0.00107001
0.00103942
0.001068
0.001068
0.00104147
0.00104147
0.00107001
0.00103942
0.001068
0.00106801
0.00104146
0.00104146
0.001068
0.00104147
0.00104147
0.00107002
0.00103942
0.001068
0.00104146
0.00104147
0.00103942
0.00103464
0.00100411
0.00103263
0.00103263
0.00100615
0.00100615
0.00103464
0.00100411
0.00103263
0.00103262
0.00100615
0.00100615
0.00103263
0.00100615
0.00100615
0.00103463
0.00100411
0.00103263
0.00100614
0.00100614
0.0010041
0.000999322
0.000968655
0.000997322
0.000997323
0.000970723
0.000970731
0.000999319
0.000968663
0.000997321
0.000997323
0.000970728
0.000970739
0.000997314
0.000970736
0.000970733
0.000999317
0.000968671
0.000997308
0.000970745
0.000970738
0.000968666
0.00096384
0.000933236
0.00096184
0.000961842
0.000935273
0.000935281
0.000963845
0.000933243
0.000961848
0.000961855
0.000935262
0.000935253
0.000961856
0.000935276
0.000935265
0.000963856
0.000933215
0.000961864
0.00093525
0.000935257
0.000933227
0.000928446
0.000897902
0.000926441
0.000926448
0.000899925
0.000899901
0.000928451
0.000897868
0.000926423
0.000926406
0.000899929
0.00089992
0.000926419
0.000899903
0.000899931
0.000928416
0.000897915
0.000926406
0.000899927
0.00089994
0.000897921
0.000893091
0.000862474
0.000891064
0.000891024
0.000864509
0.000864505
0.000893049
0.000862479
0.000891087
0.000891097
0.000864525
0.000864552
0.000891104
0.000864513
0.000864531
0.000893127
0.00086249
0.000891127
0.000864549
0.000864537
0.000862468
0.000857687
0.000827098
0.000855696
0.000855711
0.000829197
0.000829266
0.0008577
0.000827152
0.000855695
0.000855711
0.000829159
0.000829132
0.000855676
0.000829235
0.000829097
0.000857688
0.000827042
0.000855664
0.000829104
0.000829062
0.000827022
0.000822254
0.000790996
0.000820262
0.000820322
0.000793145
0.000793154
0.000822297
0.00079106
0.000820227
0.000820198
0.000793141
0.000793144
0.000820188
0.000793168
0.000793167
0.000822198
0.000791035
0.000820159
0.000793164
0.000793175
0.00079105
0.000786024
0.000755428
0.000784
0.000784035
0.00075727
0.000757183
0.000786108
0.000755336
0.000784012
0.000784028
0.000757321
0.000757373
0.000784097
0.00075722
0.000757405
0.000786084
0.000755505
0.000784122
0.000757411
0.000757457
0.000755533
0.00075077
0.000722132
0.000748718
0.000748647
0.00072387
0.000723794
0.000750682
0.000722031
0.000748756
0.0007488
0.000723859
0.000723826
0.000748778
0.00072376
0.000723774
0.000750829
0.000722041
0.000748813
0.000723781
0.000723751
0.000721975
0.000717695
0.000687185
0.000715752
0.000715749
0.00068964
0.000689727
0.000717667
0.000687271
0.000715706
0.00071567
0.000689603
0.000689534
0.000715568
0.00068971
0.000689547
0.000717588
0.00068714
0.000715518
0.000689523
0.000689505
0.00068713
0.000682214
0.000649521
0.000680444
0.000680478
0.00065206
0.000652064
0.000682283
0.000649553
0.000680434
0.000680394
0.000652089
0.000652148
0.000680441
0.000652094
0.000652135
0.000682203
0.000649617
0.000680434
0.000652183
0.000652157
0.00064958
0.000644121
0.000612346
0.000642173
0.00064216
0.000613823
0.000613776
0.00064412
0.000612307
0.00064221
0.000642269
0.000613849
0.000613875
0.000642265
0.000613785
0.000613926
0.000644205
0.000612374
0.000642279
0.000613906
0.000613963
0.000612424
0.00060753
0.000577374
0.00060503
0.000605034
0.000579067
0.000579128
0.000607514
0.000577449
0.000605031
0.000605026
0.000579001
0.000578905
0.000605077
0.000579093
0.000578972
0.000607531
0.000577227
0.000605086
0.00057887
0.000578915
0.000577302
0.000572761
0.000542523
0.000570554
0.000570596
0.000544893
0.000544807
0.000572823
0.000542406
0.000570484
0.000570369
0.00054495
0.000544943
0.000570472
0.000544799
0.000544802
0.000572601
0.00054257
0.000570405
0.000544973
0.000544835
0.000542437
0.000537674
0.000507827
0.000536006
0.000535909
0.000510013
0.000509987
0.00053756
0.000507827
0.000536095
0.000536168
0.000510053
0.000510167
0.000535999
0.000510045
0.000510166
0.000537761
0.000507978
0.00053606
0.000510223
0.000510205
0.000507969
0.000503277
0.000473643
0.000501597
0.000501608
0.000475735
0.000475859
0.000503303
0.00047388
0.000501597
0.000501647
0.000475619
0.000475525
0.000501735
0.000475895
0.000475715
0.000503385
0.000473477
0.000501738
0.000475525
0.000475606
0.000473664
0.000468836
0.000437632
0.000466835
0.000466987
0.000439551
0.000439513
0.000469059
0.000437546
0.000466727
0.000466593
0.000439625
0.000439688
0.000466821
0.000439523
0.000439654
0.000468664
0.000437764
0.000466716
0.000439738
0.000439731
0.00043773
0.000432635
0.000401304
0.000430355
0.000430271
0.000403186
0.000403068
0.000432523
0.000401106
0.000430478
0.000430621
0.000403297
0.000403404
0.000430496
0.000403111
0.000403401
0.000432795
0.000401434
0.000430612
0.000403433
0.000403483
0.000401417
0.000396479
0.000364586
0.000394359
0.000394246
0.000366967
0.000367004
0.000396283
0.000364624
0.000394391
0.000394403
0.000366839
0.000366595
0.000394346
0.000366885
0.000366535
0.000396509
0.000364239
0.000394357
0.000366445
0.000366445
0.000364229
0.000359478
0.000326401
0.000357535
0.000357577
0.000328752
0.000328724
0.000359515
0.000326342
0.000357424
0.000357213
0.000328782
0.000328771
0.000357231
0.000328751
0.000328702
0.000359175
0.000326475
0.000357137
0.000328813
0.000328745
0.000326393
0.000321075
0.00028951
0.000318942
0.000318947
0.000291163
0.000291234
0.000321074
0.000289613
0.000319023
0.000319218
0.000291207
0.00029145
0.000319149
0.000291341
0.000291549
0.000321328
0.000289745
0.00031923
0.000291543
0.000291584
0.000289816
0.000284697
0.000254802
0.000282395
0.000282438
0.000256596
0.000256588
0.000284785
0.00025483
0.000282402
0.000282504
0.000256518
0.000256363
0.0002826
0.000256523
0.000256443
0.000284856
0.000254598
0.000282589
0.000256293
0.000256349
0.000254694
0.000250257
0.000220821
0.00024822
0.000248251
0.000223146
0.00022311
0.000250316
0.00022073
0.000248134
0.000247964
0.00022316
0.000222959
0.000248087
0.00022306
0.000222912
0.000250053
0.000220642
0.000247998
0.000222926
0.000222936
0.000220611
0.000216084
0.000185702
0.000214423
0.00021437
0.000187933
0.000187885
0.000215991
0.000185635
0.000214481
0.00021439
0.000188006
0.000188142
0.000214247
0.000187906
0.000187969
0.000215981
0.000185864
0.000214319
0.00018817
0.00018805
0.000185728
0.000180814
0.000148692
0.000178935
0.000178897
0.000150798
0.00015077
0.000180749
0.000148701
0.000178998
0.000179146
0.000150796
0.000150985
0.000179002
0.000150803
0.000150889
0.000180966
0.00014901
0.000179071
0.000151032
0.000150946
0.000148926
0.000143628
0.000111998
0.000141384
0.000141405
0.000113866
0.000113937
0.000143667
0.000112105
0.00014141
0.000141582
0.000113796
0.00011376
0.000141574
0.000113955
0.000113942
0.000143937
0.000111894
0.000141622
0.000113764
0.000113865
0.000112038
0.000106972
7.57155e-05
0.000104752
0.000104807
7.76462e-05
7.76737e-05
0.000107064
7.57686e-05
0.000104668
0.000104574
7.76293e-05
7.75761e-05
0.000104732
7.76342e-05
7.75896e-05
0.000106853
7.5603e-05
0.000104638
7.75519e-05
7.75389e-05
7.56147e-05
7.08233e-05
3.98474e-05
6.87877e-05
6.88061e-05
4.20411e-05
4.19759e-05
7.08722e-05
3.97579e-05
6.87619e-05
6.87226e-05
4.20953e-05
4.20785e-05
6.86815e-05
4.19557e-05
4.19434e-05
7.06721e-05
3.98652e-05
6.8641e-05
4.20618e-05
4.19953e-05
3.97749e-05
3.49822e-05
8.29969e-06
3.33115e-05
3.32581e-05
1.1249e-05
1.11909e-05
3.4896e-05
8.24018e-06
3.33668e-05
3.34095e-05
1.12919e-05
1.13345e-05
3.32997e-05
1.12088e-05
1.12953e-05
3.5017e-05
8.31971e-06
3.3354e-05
1.1348e-05
1.1332e-05
8.30453e-06
5.22112e-06
6.95425e-06
6.93675e-06
5.17626e-06
7.03888e-06
6.9949e-06
6.13686e-06
6.2125e-06
6.21163e-06
6.98774e-06
5.20099e-06
7.07053e-06
0.00362592
0.00363568
0.00363048
0.00363048
0.00365286
0.00363964
0.00366825
0.00363369
0.00365286
0.00363965
0.00363369
0.00366825
0.00364422
0.00367199
0.00367199
0.00358128
0.00360042
0.00360961
0.00357336
0.0035741
0.00357687
0.00358126
0.0036004
0.00360961
0.00357334
0.00360414
0.00360414
0.00360414
0.00356073
0.00356073
0.00356073
0.00356073
0.00357878
0.0036046
0.00360454
0.0035876
0.00360763
0.00357768
0.00358849
0.0035742
0.00357686
0.00357878
0.00360454
0.00360462
0.00358761
0.00360762
0.00358849
0.00357768
0.00361048
0.00361046
0.00358201
0.00357732
0.00357731
0.00353465
0.00355393
0.00355529
0.00353319
0.00355283
0.00353274
0.00353465
0.00355392
0.00355529
0.00353318
0.00354878
0.00354878
0.00354878
0.00351119
0.0035112
0.00351119
0.00351119
0.00353323
0.003554
0.00354878
0.00353691
0.00355279
0.00353378
0.00353664
0.00355283
0.00353274
0.00353324
0.00354878
0.003554
0.00353691
0.00355279
0.00353664
0.00353377
0.00355502
0.00355502
0.00353346
0.00353411
0.00353411
0.00348239
0.00350119
0.00350226
0.00348136
0.00350083
0.00348108
0.00348239
0.00350119
0.00350226
0.00348136
0.00349803
0.00349803
0.00349803
0.00345866
0.00345866
0.00345866
0.00345866
0.00348149
0.00350159
0.00349791
0.00348487
0.00350103
0.00348185
0.00348477
0.00350083
0.00348108
0.00348149
0.00349791
0.00350159
0.00348486
0.00350103
0.00348477
0.00348185
0.00350183
0.00350183
0.00348148
0.00348192
0.00348192
0.00342987
0.00344852
0.00344938
0.0034291
0.00344831
0.00342892
0.00342987
0.00344852
0.00344938
0.0034291
0.00344565
0.00344565
0.00344565
0.00340702
0.00340702
0.00340702
0.00340702
0.00342936
0.00344893
0.00344562
0.00343271
0.00344864
0.00342954
0.00343268
0.00344831
0.00342892
0.00342936
0.00344562
0.00344893
0.00343271
0.00344864
0.00343268
0.00342954
0.00344896
0.00344896
0.0034294
0.00342948
0.00342948
0.00337867
0.00339703
0.00339766
0.00337812
0.00339688
0.00337798
0.00337867
0.00339702
0.00339766
0.00337812
0.0033943
0.0033943
0.0033943
0.00335668
0.00335668
0.00335668
0.00335668
0.0033784
0.00339738
0.00339428
0.00338168
0.0033972
0.00337851
0.00338165
0.00339688
0.00337798
0.0033784
0.00339428
0.00339738
0.00338168
0.0033972
0.00338165
0.00337851
0.00339736
0.00339736
0.00337848
0.00337842
0.00337842
0.00332903
0.00334698
0.00334743
0.00332863
0.00334687
0.00332851
0.00332903
0.00334697
0.00334743
0.00332863
0.00334433
0.00334433
0.00334433
0.00330781
0.00330781
0.00330781
0.00330781
0.00332891
0.00334727
0.00334431
0.00333208
0.00334716
0.00332898
0.00333205