/*--------------------------------*- C++ -*----------------------------------*\
| =========                 |                                                 |
| \\      /  F ield         | OpenFOAM: The Open Source CFD Toolbox           |
|  \\    /   O peration     | Version:  v2012                                 |
|   \\  /    A nd           | Website:  www.openfoam.com                      |
|    \\/     M anipulation  |                                                 |
\*---------------------------------------------------------------------------*/
FoamFile
{
    version     2.0;
    format      ascii;
    class       volScalarField;
    location    "0.155";
    object      p;
}
// * * * * * * * * * * * * * * * * * * * * * * * * * * * * * * * * * * * * * //

dimensions      [0 2 -2 0 0 0 0];


internalField   nonuniform List<scalar> 
247104
(
1.93395e-06
1.93443e-06
1.93444e-06
1.93425e-06
1.93404e-06
1.9343e-06
1.93445e-06
1.93436e-06
1.93442e-06
1.93449e-06
1.93453e-06
1.93431e-06
1.93416e-06
1.93435e-06
1.93455e-06
1.93447e-06
1.93444e-06
1.93453e-06
1.93424e-06
1.93384e-06
1.93368e-06
1.93389e-06
1.93429e-06
1.93455e-06
1.93442e-06
1.93426e-06
1.93431e-06
1.93384e-06
1.93336e-06
1.93318e-06
1.93341e-06
1.93392e-06
1.93435e-06
1.93421e-06
1.93395e-06
1.93404e-06
1.93416e-06
1.93368e-06
1.93318e-06
1.93299e-06
1.93323e-06
1.93376e-06
1.9342e-06
1.93398e-06
1.93429e-06
1.93434e-06
1.93389e-06
1.9334e-06
1.93323e-06
1.93345e-06
1.93396e-06
1.93438e-06
1.93425e-06
1.93444e-06
1.93454e-06
1.93429e-06
1.93391e-06
1.93375e-06
1.93396e-06
1.93434e-06
1.93455e-06
1.93442e-06
1.93435e-06
1.93446e-06
1.93454e-06
1.93434e-06
1.93419e-06
1.93438e-06
1.93455e-06
1.93443e-06
1.93441e-06
1.93421e-06
1.93398e-06
1.93426e-06
1.93443e-06
1.90007e-06
1.89797e-06
1.89811e-06
1.89697e-06
1.89666e-06
1.89662e-06
1.8966e-06
1.8983e-06
1.89863e-06
1.8981e-06
1.89601e-06
1.89286e-06
1.89271e-06
1.89271e-06
1.89286e-06
1.89642e-06
1.89662e-06
1.89696e-06
1.89286e-06
1.89277e-06
1.8928e-06
1.8928e-06
1.89278e-06
1.89286e-06
1.89691e-06
1.89779e-06
1.90007e-06
1.89665e-06
1.89271e-06
1.8928e-06
1.89291e-06
1.89291e-06
1.8928e-06
1.89271e-06
1.89668e-06
1.89846e-06
1.89798e-06
1.89661e-06
1.89271e-06
1.8928e-06
1.89291e-06
1.89291e-06
1.8928e-06
1.89271e-06
1.8968e-06
1.89644e-06
1.8966e-06
1.89286e-06
1.89278e-06
1.8928e-06
1.8928e-06
1.89278e-06
1.89286e-06
1.89672e-06
1.89751e-06
1.8983e-06
1.89641e-06
1.89286e-06
1.89271e-06
1.89271e-06
1.89286e-06
1.89647e-06
1.89686e-06
1.89832e-06
1.89863e-06
1.89662e-06
1.89691e-06
1.89668e-06
1.8968e-06
1.89671e-06
1.89686e-06
1.89938e-06
1.89779e-06
1.89846e-06
1.89644e-06
1.89751e-06
1.89832e-06
1.87999e-06
1.87978e-06
1.87962e-06
1.87741e-06
1.87737e-06
1.87737e-06
1.8774e-06
1.87979e-06
1.87991e-06
1.87964e-06
1.87675e-06
1.87363e-06
1.87344e-06
1.87344e-06
1.87363e-06
1.8776e-06
1.87788e-06
1.87741e-06
1.87363e-06
1.87316e-06
1.87315e-06
1.87315e-06
1.87316e-06
1.87364e-06
1.87839e-06
1.88036e-06
1.87999e-06
1.87737e-06
1.87344e-06
1.87315e-06
1.87316e-06
1.87316e-06
1.87315e-06
1.87344e-06
1.87837e-06
1.87993e-06
1.87979e-06
1.87738e-06
1.87344e-06
1.87315e-06
1.87316e-06
1.87316e-06
1.87315e-06
1.87344e-06
1.87827e-06
1.87781e-06
1.8774e-06
1.87363e-06
1.87316e-06
1.87315e-06
1.87315e-06
1.87316e-06
1.87363e-06
1.87843e-06
1.88033e-06
1.87979e-06
1.8776e-06
1.87363e-06
1.87344e-06
1.87344e-06
1.87363e-06
1.87809e-06
1.87817e-06
1.88026e-06
1.87991e-06
1.87788e-06
1.87839e-06
1.87837e-06
1.87827e-06
1.87843e-06
1.87817e-06
1.88038e-06
1.88036e-06
1.87994e-06
1.87781e-06
1.88034e-06
1.88026e-06
1.86016e-06
1.85999e-06
1.85992e-06
1.85757e-06
1.85755e-06
1.85744e-06
1.85764e-06
1.86004e-06
1.86018e-06
1.85991e-06
1.85665e-06
1.85372e-06
1.85364e-06
1.85364e-06
1.85371e-06
1.85767e-06
1.85825e-06
1.85757e-06
1.85372e-06
1.85353e-06
1.85352e-06
1.85352e-06
1.85353e-06
1.85372e-06
1.85868e-06
1.86058e-06
1.86017e-06
1.85755e-06
1.85364e-06
1.85352e-06
1.85351e-06
1.85351e-06
1.85352e-06
1.85365e-06
1.85879e-06
1.86009e-06
1.85999e-06
1.85745e-06
1.85364e-06
1.85352e-06
1.85351e-06
1.85351e-06
1.85352e-06
1.85364e-06
1.85873e-06
1.85815e-06
1.85764e-06
1.85372e-06
1.85353e-06
1.85352e-06
1.85352e-06
1.85353e-06
1.85372e-06
1.85878e-06
1.86049e-06
1.86005e-06
1.85767e-06
1.85372e-06
1.85365e-06
1.85364e-06
1.85372e-06
1.85859e-06
1.85851e-06
1.86053e-06
1.86018e-06
1.85825e-06
1.85868e-06
1.85879e-06
1.85873e-06
1.85878e-06
1.85851e-06
1.86049e-06
1.86058e-06
1.86009e-06
1.85815e-06
1.86049e-06
1.86053e-06
1.84035e-06
1.84018e-06
1.84003e-06
1.83764e-06
1.83762e-06
1.83744e-06
1.83772e-06
1.84016e-06
1.84029e-06
1.84003e-06
1.8366e-06
1.83373e-06
1.83371e-06
1.83371e-06
1.83373e-06
1.83765e-06
1.83837e-06
1.83764e-06
1.83373e-06
1.83368e-06
1.83368e-06
1.83368e-06
1.83368e-06
1.83373e-06
1.83884e-06
1.84073e-06
1.84035e-06
1.83762e-06
1.83371e-06
1.83368e-06
1.83368e-06
1.83368e-06
1.83368e-06
1.83371e-06
1.83905e-06
1.84032e-06
1.84018e-06
1.83744e-06
1.83371e-06
1.83368e-06
1.83368e-06
1.83368e-06
1.83368e-06
1.83371e-06
1.83901e-06
1.8384e-06
1.83772e-06
1.83373e-06
1.83368e-06
1.83368e-06
1.83368e-06
1.83368e-06
1.83373e-06
1.83899e-06
1.84071e-06
1.84016e-06
1.83765e-06
1.83373e-06
1.83371e-06
1.83371e-06
1.83373e-06
1.83886e-06
1.83868e-06
1.84068e-06
1.84033e-06
1.83837e-06
1.83884e-06
1.83905e-06
1.83901e-06
1.83898e-06
1.83868e-06
1.84065e-06
1.84073e-06
1.84032e-06
1.8384e-06
1.84071e-06
1.84068e-06
1.82046e-06
1.8203e-06
1.82011e-06
1.81772e-06
1.8177e-06
1.81749e-06
1.81779e-06
1.82025e-06
1.82041e-06
1.82011e-06
1.81665e-06
1.81379e-06
1.81379e-06
1.81379e-06
1.81379e-06
1.81769e-06
1.81847e-06
1.81772e-06
1.81379e-06
1.81378e-06
1.81378e-06
1.81378e-06
1.81378e-06
1.81379e-06
1.81894e-06
1.82083e-06
1.82046e-06
1.8177e-06
1.81379e-06
1.81378e-06
1.81378e-06
1.81378e-06
1.81378e-06
1.81379e-06
1.81918e-06
1.82046e-06
1.8203e-06
1.81749e-06
1.81379e-06
1.81378e-06
1.81378e-06
1.81378e-06
1.81378e-06
1.81379e-06
1.81915e-06
1.81854e-06
1.81779e-06
1.81379e-06
1.81378e-06
1.81378e-06
1.81378e-06
1.81378e-06
1.81379e-06
1.8191e-06
1.82084e-06
1.82025e-06
1.81768e-06
1.81379e-06
1.81379e-06
1.81379e-06
1.81379e-06
1.81901e-06
1.81879e-06
1.82077e-06
1.82041e-06
1.81847e-06
1.81894e-06
1.81918e-06
1.81915e-06
1.8191e-06
1.81879e-06
1.82073e-06
1.82084e-06
1.82046e-06
1.81854e-06
1.82084e-06
1.82078e-06
1.80055e-06
1.80039e-06
1.80019e-06
1.7978e-06
1.79777e-06
1.79756e-06
1.79787e-06
1.80032e-06
1.80049e-06
1.80019e-06
1.79672e-06
1.79387e-06
1.79387e-06
1.79387e-06
1.79387e-06
1.79775e-06
1.79856e-06
1.79779e-06
1.79387e-06
1.79386e-06
1.79386e-06
1.79386e-06
1.79386e-06
1.79387e-06
1.79902e-06
1.80092e-06
1.80055e-06
1.79777e-06
1.79387e-06
1.79386e-06
1.79386e-06
1.79386e-06
1.79386e-06
1.79386e-06
1.79927e-06
1.80055e-06
1.80039e-06
1.79756e-06
1.79387e-06
1.79386e-06
1.79386e-06
1.79386e-06
1.79386e-06
1.79386e-06
1.79925e-06
1.79863e-06
1.79787e-06
1.79387e-06
1.79386e-06
1.79386e-06
1.79386e-06
1.79386e-06
1.79387e-06
1.79918e-06
1.80093e-06
1.80033e-06
1.79775e-06
1.79387e-06
1.79387e-06
1.79386e-06
1.79387e-06
1.79911e-06
1.79888e-06
1.80086e-06
1.80049e-06
1.79856e-06
1.79902e-06
1.79927e-06
1.79925e-06
1.79918e-06
1.79888e-06
1.80081e-06
1.80092e-06
1.80055e-06
1.79863e-06
1.80093e-06
1.80086e-06
1.78063e-06
1.78047e-06
1.78027e-06
1.77788e-06
1.77785e-06
1.77764e-06
1.77795e-06
1.7804e-06
1.78057e-06
1.78027e-06
1.7768e-06
1.77395e-06
1.77394e-06
1.77395e-06
1.77394e-06
1.77783e-06
1.77864e-06
1.77787e-06
1.77394e-06
1.77394e-06
1.77394e-06
1.77394e-06
1.77394e-06
1.77394e-06
1.7791e-06
1.781e-06
1.78063e-06
1.77785e-06
1.77394e-06
1.77394e-06
1.77394e-06
1.77394e-06
1.77394e-06
1.77394e-06
1.77936e-06
1.78063e-06
1.78047e-06
1.77764e-06
1.77394e-06
1.77394e-06
1.77394e-06
1.77394e-06
1.77394e-06
1.77394e-06
1.77934e-06
1.77872e-06
1.77794e-06
1.77395e-06
1.77394e-06
1.77394e-06
1.77394e-06
1.77394e-06
1.77394e-06
1.77926e-06
1.78101e-06
1.7804e-06
1.77783e-06
1.77395e-06
1.77394e-06
1.77394e-06
1.77394e-06
1.77919e-06
1.77896e-06
1.78094e-06
1.78056e-06
1.77864e-06
1.7791e-06
1.77936e-06
1.77934e-06
1.77927e-06
1.77896e-06
1.78089e-06
1.781e-06
1.78063e-06
1.77872e-06
1.78101e-06
1.78094e-06
1.76071e-06
1.76055e-06
1.76035e-06
1.75796e-06
1.75793e-06
1.75772e-06
1.75803e-06
1.76049e-06
1.76065e-06
1.76035e-06
1.75688e-06
1.75402e-06
1.75402e-06
1.75402e-06
1.75402e-06
1.75791e-06
1.75872e-06
1.75795e-06
1.75402e-06
1.75402e-06
1.75402e-06
1.75402e-06
1.75402e-06
1.75402e-06
1.75918e-06
1.76108e-06
1.76071e-06
1.75793e-06
1.75402e-06
1.75402e-06
1.75402e-06
1.75402e-06
1.75402e-06
1.75402e-06
1.75944e-06
1.76071e-06
1.76055e-06
1.75772e-06
1.75402e-06
1.75402e-06
1.75402e-06
1.75402e-06
1.75402e-06
1.75402e-06
1.75942e-06
1.7588e-06
1.75803e-06
1.75402e-06
1.75402e-06
1.75402e-06
1.75402e-06
1.75402e-06
1.75402e-06
1.75935e-06
1.76109e-06
1.76049e-06
1.7579e-06
1.75402e-06
1.75403e-06
1.75403e-06
1.75402e-06
1.75927e-06
1.75905e-06
1.76102e-06
1.76065e-06
1.75872e-06
1.75918e-06
1.75944e-06
1.75942e-06
1.75935e-06
1.75904e-06
1.76097e-06
1.76108e-06
1.76071e-06
1.7588e-06
1.76109e-06
1.76102e-06
1.74079e-06
1.74063e-06
1.74043e-06
1.73804e-06
1.73801e-06
1.7378e-06
1.73811e-06
1.74057e-06
1.74073e-06
1.74043e-06
1.73696e-06
1.7341e-06
1.7341e-06
1.7341e-06
1.7341e-06
1.73798e-06
1.7388e-06
1.73803e-06
1.73411e-06
1.7341e-06
1.7341e-06
1.7341e-06
1.7341e-06
1.7341e-06
1.73926e-06
1.74116e-06
1.74079e-06
1.73801e-06
1.7341e-06
1.7341e-06
1.7341e-06
1.7341e-06
1.7341e-06
1.7341e-06
1.73952e-06
1.74079e-06
1.74063e-06
1.7378e-06
1.73411e-06
1.7341e-06
1.7341e-06
1.7341e-06
1.7341e-06
1.7341e-06
1.7395e-06
1.73888e-06
1.7381e-06
1.7341e-06
1.7341e-06
1.7341e-06
1.7341e-06
1.7341e-06
1.7341e-06
1.73943e-06
1.74117e-06
1.74057e-06
1.73798e-06
1.7341e-06
1.7341e-06
1.7341e-06
1.7341e-06
1.73935e-06
1.73913e-06
1.7411e-06
1.74073e-06
1.7388e-06
1.73926e-06
1.73952e-06
1.7395e-06
1.73943e-06
1.73912e-06
1.74105e-06
1.74116e-06
1.7408e-06
1.73888e-06
1.74117e-06
1.7411e-06
1.72087e-06
1.72071e-06
1.72051e-06
1.71811e-06
1.71809e-06
1.71788e-06
1.71819e-06
1.72065e-06
1.72081e-06
1.72051e-06
1.71704e-06
1.71418e-06
1.71419e-06
1.71419e-06
1.71419e-06
1.71807e-06
1.71888e-06
1.71811e-06
1.71419e-06
1.71418e-06
1.71418e-06
1.71418e-06
1.71419e-06
1.71419e-06
1.71934e-06
1.72124e-06
1.72087e-06
1.71809e-06
1.71419e-06
1.71418e-06
1.71419e-06
1.71419e-06
1.71418e-06
1.71419e-06
1.7196e-06
1.72087e-06
1.72071e-06
1.71788e-06
1.71418e-06
1.71418e-06
1.71418e-06
1.71418e-06
1.71419e-06
1.71419e-06
1.71958e-06
1.71896e-06
1.71819e-06
1.71418e-06
1.71418e-06
1.71419e-06
1.71419e-06
1.71419e-06
1.71419e-06
1.71951e-06
1.72125e-06
1.72065e-06
1.71807e-06
1.71419e-06
1.71419e-06
1.71419e-06
1.71419e-06
1.71943e-06
1.71921e-06
1.72118e-06
1.72081e-06
1.71888e-06
1.71934e-06
1.7196e-06
1.71958e-06
1.71951e-06
1.71921e-06
1.72114e-06
1.72124e-06
1.72088e-06
1.71896e-06
1.72125e-06
1.72118e-06
1.70095e-06
1.70079e-06
1.70058e-06
1.6982e-06
1.69817e-06
1.69796e-06
1.69827e-06
1.70073e-06
1.70089e-06
1.70059e-06
1.69712e-06
1.69426e-06
1.69426e-06
1.69427e-06
1.69426e-06
1.69815e-06
1.69896e-06
1.69819e-06
1.69427e-06
1.69426e-06
1.69426e-06
1.69426e-06
1.69426e-06
1.69427e-06
1.69942e-06
1.70132e-06
1.70095e-06
1.69817e-06
1.69426e-06
1.69426e-06
1.69426e-06
1.69426e-06
1.69426e-06
1.69426e-06
1.69968e-06
1.70095e-06
1.70079e-06
1.69796e-06
1.69426e-06
1.69426e-06
1.69426e-06
1.69426e-06
1.69426e-06
1.69426e-06
1.69966e-06
1.69904e-06
1.69827e-06
1.69426e-06
1.69426e-06
1.69426e-06
1.69426e-06
1.69426e-06
1.69426e-06
1.69959e-06
1.70133e-06
1.70073e-06
1.69814e-06
1.69426e-06
1.69427e-06
1.69427e-06
1.69426e-06
1.69951e-06
1.69929e-06
1.70126e-06
1.70089e-06
1.69896e-06
1.69942e-06
1.69968e-06
1.69966e-06
1.69959e-06
1.69929e-06
1.70122e-06
1.70132e-06
1.70096e-06
1.69904e-06
1.70133e-06
1.70126e-06
1.68103e-06
1.68087e-06
1.68066e-06
1.67828e-06
1.67825e-06
1.67804e-06
1.67835e-06
1.68081e-06
1.68097e-06
1.68067e-06
1.6772e-06
1.67434e-06
1.67434e-06
1.67434e-06
1.67434e-06
1.67823e-06
1.67904e-06
1.67827e-06
1.67434e-06
1.67434e-06
1.67434e-06
1.67434e-06
1.67434e-06
1.67434e-06
1.6795e-06
1.6814e-06
1.68103e-06
1.67825e-06
1.67434e-06
1.67434e-06
1.67434e-06
1.67434e-06
1.67434e-06
1.67434e-06
1.67976e-06
1.68103e-06
1.68087e-06
1.67804e-06
1.67434e-06
1.67434e-06
1.67434e-06
1.67434e-06
1.67434e-06
1.67434e-06
1.67974e-06
1.67912e-06
1.67834e-06
1.67434e-06
1.67434e-06
1.67434e-06
1.67434e-06
1.67434e-06
1.67434e-06
1.67967e-06
1.68141e-06
1.68081e-06
1.67822e-06
1.67434e-06
1.67434e-06
1.67434e-06
1.67434e-06
1.67959e-06
1.67937e-06
1.68134e-06
1.68097e-06
1.67904e-06
1.6795e-06
1.67976e-06
1.67974e-06
1.67967e-06
1.67937e-06
1.6813e-06
1.6814e-06
1.68104e-06
1.67912e-06
1.68141e-06
1.68134e-06
1.66111e-06
1.66095e-06
1.66074e-06
1.65835e-06
1.65833e-06
1.65812e-06
1.65842e-06
1.66089e-06
1.66105e-06
1.66075e-06
1.65728e-06
1.65442e-06
1.65442e-06
1.65442e-06
1.65442e-06
1.65831e-06
1.65912e-06
1.65835e-06
1.65442e-06
1.65442e-06
1.65442e-06
1.65442e-06
1.65442e-06
1.65442e-06
1.65958e-06
1.66148e-06
1.66111e-06
1.65833e-06
1.65442e-06
1.65442e-06
1.65442e-06
1.65442e-06
1.65442e-06
1.65442e-06
1.65984e-06
1.66111e-06
1.66095e-06
1.65811e-06
1.65442e-06
1.65442e-06
1.65442e-06
1.65442e-06
1.65442e-06
1.65442e-06
1.65982e-06
1.65919e-06
1.65842e-06
1.65442e-06
1.65442e-06
1.65442e-06
1.65442e-06
1.65442e-06
1.65442e-06
1.65974e-06
1.66149e-06
1.66088e-06
1.6583e-06
1.65442e-06
1.65442e-06
1.65442e-06
1.65442e-06
1.65967e-06
1.65944e-06
1.66142e-06
1.66104e-06
1.65911e-06
1.65958e-06
1.65984e-06
1.65982e-06
1.65975e-06
1.65944e-06
1.66137e-06
1.66148e-06
1.66111e-06
1.6592e-06
1.66149e-06
1.66142e-06
1.64118e-06
1.64103e-06
1.64082e-06
1.63843e-06
1.63841e-06
1.6382e-06
1.6385e-06
1.64096e-06
1.64112e-06
1.64083e-06
1.63736e-06
1.6345e-06
1.6345e-06
1.6345e-06
1.6345e-06
1.63838e-06
1.6392e-06
1.63843e-06
1.6345e-06
1.6345e-06
1.6345e-06
1.6345e-06
1.6345e-06
1.6345e-06
1.63966e-06
1.64156e-06
1.64119e-06
1.63841e-06
1.6345e-06
1.6345e-06
1.6345e-06
1.6345e-06
1.6345e-06
1.6345e-06
1.63992e-06
1.64119e-06
1.64103e-06
1.63819e-06
1.6345e-06
1.6345e-06
1.6345e-06
1.6345e-06
1.6345e-06
1.6345e-06
1.6399e-06
1.63927e-06
1.6385e-06
1.6345e-06
1.6345e-06
1.6345e-06
1.6345e-06
1.6345e-06
1.6345e-06
1.63982e-06
1.64157e-06
1.64096e-06
1.63838e-06
1.6345e-06
1.6345e-06
1.6345e-06
1.6345e-06
1.63975e-06
1.63952e-06
1.6415e-06
1.64112e-06
1.63919e-06
1.63966e-06
1.63992e-06
1.6399e-06
1.63983e-06
1.63952e-06
1.64145e-06
1.64156e-06
1.64119e-06
1.63928e-06
1.64157e-06
1.6415e-06
1.62126e-06
1.62111e-06
1.6209e-06
1.61851e-06
1.61849e-06
1.61827e-06
1.61858e-06
1.62104e-06
1.6212e-06
1.62091e-06
1.61744e-06
1.61458e-06
1.61458e-06
1.61458e-06
1.61458e-06
1.61846e-06
1.61928e-06
1.61851e-06
1.61458e-06
1.61458e-06
1.61458e-06
1.61458e-06
1.61458e-06
1.61458e-06
1.61974e-06
1.62164e-06
1.62127e-06
1.61849e-06
1.61458e-06
1.61458e-06
1.61458e-06
1.61458e-06
1.61458e-06
1.61458e-06
1.62e-06
1.62127e-06
1.62111e-06
1.61827e-06
1.61458e-06
1.61458e-06
1.61458e-06
1.61458e-06
1.61458e-06
1.61458e-06
1.61997e-06
1.61935e-06
1.61858e-06
1.61458e-06
1.61458e-06
1.61458e-06
1.61458e-06
1.61458e-06
1.61458e-06
1.6199e-06
1.62165e-06
1.62104e-06
1.61846e-06
1.61458e-06
1.61458e-06
1.61458e-06
1.61458e-06
1.61983e-06
1.6196e-06
1.62158e-06
1.6212e-06
1.61927e-06
1.61974e-06
1.62e-06
1.61997e-06
1.6199e-06
1.6196e-06
1.62153e-06
1.62164e-06
1.62127e-06
1.61935e-06
1.62165e-06
1.62158e-06
1.60134e-06
1.60119e-06
1.60098e-06
1.59859e-06
1.59857e-06
1.59835e-06
1.59866e-06
1.60112e-06
1.60128e-06
1.60099e-06
1.59751e-06
1.59466e-06
1.59466e-06
1.59466e-06
1.59466e-06
1.59854e-06
1.59936e-06
1.59859e-06
1.59466e-06
1.59466e-06
1.59466e-06
1.59466e-06
1.59466e-06
1.59466e-06
1.59982e-06
1.60172e-06
1.60135e-06
1.59857e-06
1.59466e-06
1.59466e-06
1.59466e-06
1.59466e-06
1.59466e-06
1.59466e-06
1.60008e-06
1.60135e-06
1.60119e-06
1.59835e-06
1.59466e-06
1.59466e-06
1.59466e-06
1.59466e-06
1.59466e-06
1.59466e-06
1.60005e-06
1.59943e-06
1.59866e-06
1.59466e-06
1.59466e-06
1.59466e-06
1.59466e-06
1.59466e-06
1.59466e-06
1.59998e-06
1.60173e-06
1.60112e-06
1.59854e-06
1.59466e-06
1.59466e-06
1.59466e-06
1.59466e-06
1.59991e-06
1.59968e-06
1.60166e-06
1.60128e-06
1.59935e-06
1.59982e-06
1.60008e-06
1.60006e-06
1.59999e-06
1.59968e-06
1.60161e-06
1.60172e-06
1.60135e-06
1.59944e-06
1.60173e-06
1.60166e-06
1.58142e-06
1.58127e-06
1.58106e-06
1.57867e-06
1.57865e-06
1.57843e-06
1.57874e-06
1.5812e-06
1.58136e-06
1.58107e-06
1.57759e-06
1.57474e-06
1.57474e-06
1.57474e-06
1.57474e-06
1.57862e-06
1.57944e-06
1.57867e-06
1.57474e-06
1.57474e-06
1.57474e-06
1.57474e-06
1.57474e-06
1.57474e-06
1.5799e-06
1.5818e-06
1.58143e-06
1.57865e-06
1.57474e-06
1.57474e-06
1.57474e-06
1.57474e-06
1.57474e-06
1.57474e-06
1.58016e-06
1.58143e-06
1.58127e-06
1.57843e-06
1.57474e-06
1.57474e-06
1.57474e-06
1.57474e-06
1.57474e-06
1.57474e-06
1.58013e-06
1.57951e-06
1.57874e-06
1.57474e-06
1.57474e-06
1.57474e-06
1.57474e-06
1.57474e-06
1.57474e-06
1.58006e-06
1.58181e-06
1.5812e-06
1.57862e-06
1.57474e-06
1.57474e-06
1.57474e-06
1.57474e-06
1.57999e-06
1.57976e-06
1.58174e-06
1.58136e-06
1.57943e-06
1.5799e-06
1.58016e-06
1.58014e-06
1.58006e-06
1.57976e-06
1.58169e-06
1.5818e-06
1.58143e-06
1.57952e-06
1.58181e-06
1.58174e-06
1.5615e-06
1.56135e-06
1.56114e-06
1.55875e-06
1.55873e-06
1.55851e-06
1.55882e-06
1.56128e-06
1.56144e-06
1.56115e-06
1.55767e-06
1.55482e-06
1.55482e-06
1.55482e-06
1.55482e-06
1.5587e-06
1.55952e-06
1.55875e-06
1.55482e-06
1.55482e-06
1.55482e-06
1.55482e-06
1.55482e-06
1.55482e-06
1.55998e-06
1.56188e-06
1.56151e-06
1.55873e-06
1.55482e-06
1.55482e-06
1.55482e-06
1.55482e-06
1.55482e-06
1.55482e-06
1.56024e-06
1.56151e-06
1.56135e-06
1.55851e-06
1.55482e-06
1.55482e-06
1.55482e-06
1.55482e-06
1.55482e-06
1.55482e-06
1.56021e-06
1.55959e-06
1.55882e-06
1.55482e-06
1.55482e-06
1.55482e-06
1.55482e-06
1.55482e-06
1.55482e-06
1.56014e-06
1.56189e-06
1.56128e-06
1.5587e-06
1.55482e-06
1.55482e-06
1.55482e-06
1.55482e-06
1.56007e-06
1.55984e-06
1.56182e-06
1.56144e-06
1.55951e-06
1.55998e-06
1.56024e-06
1.56021e-06
1.56014e-06
1.55984e-06
1.56177e-06
1.56188e-06
1.56151e-06
1.55959e-06
1.56189e-06
1.56182e-06
1.54158e-06
1.54143e-06
1.54122e-06
1.53883e-06
1.53881e-06
1.53859e-06
1.5389e-06
1.54136e-06
1.54152e-06
1.54123e-06
1.53775e-06
1.5349e-06
1.5349e-06
1.5349e-06
1.5349e-06
1.53878e-06
1.5396e-06
1.53883e-06
1.5349e-06
1.5349e-06
1.5349e-06
1.5349e-06
1.5349e-06
1.5349e-06
1.54006e-06
1.54196e-06
1.54159e-06
1.53881e-06
1.5349e-06
1.5349e-06
1.5349e-06
1.5349e-06
1.5349e-06
1.5349e-06
1.54032e-06
1.54159e-06
1.54143e-06
1.53859e-06
1.5349e-06
1.5349e-06
1.5349e-06
1.5349e-06
1.5349e-06
1.5349e-06
1.54029e-06
1.53967e-06
1.5389e-06
1.5349e-06
1.5349e-06
1.5349e-06
1.5349e-06
1.5349e-06
1.5349e-06
1.54022e-06
1.54197e-06
1.54136e-06
1.53878e-06
1.5349e-06
1.5349e-06
1.5349e-06
1.5349e-06
1.54015e-06
1.53992e-06
1.5419e-06
1.54152e-06
1.53959e-06
1.54006e-06
1.54032e-06
1.54029e-06
1.54022e-06
1.53992e-06
1.54185e-06
1.54196e-06
1.54159e-06
1.53967e-06
1.54197e-06
1.5419e-06
1.52166e-06
1.52151e-06
1.5213e-06
1.51891e-06
1.51889e-06
1.51868e-06
1.51898e-06
1.52144e-06
1.5216e-06
1.52131e-06
1.51784e-06
1.51498e-06
1.51498e-06
1.51498e-06
1.51498e-06
1.51886e-06
1.51968e-06
1.51891e-06
1.51498e-06
1.51498e-06
1.51498e-06
1.51498e-06
1.51498e-06
1.51498e-06
1.52014e-06
1.52204e-06
1.52167e-06
1.51889e-06
1.51498e-06
1.51498e-06
1.51498e-06
1.51498e-06
1.51498e-06
1.51498e-06
1.5204e-06
1.52167e-06
1.52151e-06
1.51867e-06
1.51498e-06
1.51498e-06
1.51498e-06
1.51498e-06
1.51498e-06
1.51498e-06
1.52037e-06
1.51975e-06
1.51898e-06
1.51498e-06
1.51498e-06
1.51498e-06
1.51498e-06
1.51498e-06
1.51498e-06
1.5203e-06
1.52205e-06
1.52144e-06
1.51886e-06
1.51498e-06
1.51498e-06
1.51498e-06
1.51498e-06
1.52023e-06
1.52e-06
1.52198e-06
1.5216e-06
1.51967e-06
1.52014e-06
1.5204e-06
1.52038e-06
1.52031e-06
1.52e-06
1.52193e-06
1.52204e-06
1.52167e-06
1.51975e-06
1.52205e-06
1.52198e-06
1.50174e-06
1.50159e-06
1.50138e-06
1.49899e-06
1.49897e-06
1.49876e-06
1.49906e-06
1.50152e-06
1.50168e-06
1.50139e-06
1.49792e-06
1.49506e-06
1.49506e-06
1.49506e-06
1.49506e-06
1.49894e-06
1.49976e-06
1.49899e-06
1.49506e-06
1.49506e-06
1.49506e-06
1.49506e-06
1.49506e-06
1.49506e-06
1.50022e-06
1.50212e-06
1.50175e-06
1.49897e-06
1.49506e-06
1.49506e-06
1.49506e-06
1.49506e-06
1.49506e-06
1.49506e-06
1.50048e-06
1.50175e-06
1.50159e-06
1.49875e-06
1.49506e-06
1.49506e-06
1.49506e-06
1.49506e-06
1.49506e-06
1.49506e-06
1.50046e-06
1.49983e-06
1.49906e-06
1.49506e-06
1.49506e-06
1.49506e-06
1.49506e-06
1.49506e-06
1.49506e-06
1.50038e-06
1.50213e-06
1.50152e-06
1.49894e-06
1.49506e-06
1.49506e-06
1.49506e-06
1.49506e-06
1.50031e-06
1.50008e-06
1.50206e-06
1.50168e-06
1.49975e-06
1.50022e-06
1.50048e-06
1.50046e-06
1.50039e-06
1.50008e-06
1.50201e-06
1.50212e-06
1.50175e-06
1.49984e-06
1.50213e-06
1.50206e-06
1.48182e-06
1.48167e-06
1.48146e-06
1.47907e-06
1.47905e-06
1.47883e-06
1.47914e-06
1.4816e-06
1.48176e-06
1.48147e-06
1.47799e-06
1.47514e-06
1.47514e-06
1.47514e-06
1.47514e-06
1.47902e-06
1.47984e-06
1.47907e-06
1.47514e-06
1.47514e-06
1.47514e-06
1.47514e-06
1.47514e-06
1.47514e-06
1.4803e-06
1.4822e-06
1.48183e-06
1.47905e-06
1.47514e-06
1.47514e-06
1.47514e-06
1.47514e-06
1.47514e-06
1.47514e-06
1.48056e-06
1.48183e-06
1.48167e-06
1.47883e-06
1.47514e-06
1.47514e-06
1.47514e-06
1.47514e-06
1.47514e-06
1.47514e-06
1.48053e-06
1.47991e-06
1.47914e-06
1.47514e-06
1.47514e-06
1.47514e-06
1.47514e-06
1.47514e-06
1.47514e-06
1.48046e-06
1.48221e-06
1.4816e-06
1.47902e-06
1.47514e-06
1.47514e-06
1.47514e-06
1.47514e-06
1.48039e-06
1.48016e-06
1.48214e-06
1.48176e-06
1.47983e-06
1.4803e-06
1.48056e-06
1.48054e-06
1.48047e-06
1.48016e-06
1.48209e-06
1.4822e-06
1.48183e-06
1.47991e-06
1.48221e-06
1.48214e-06
1.4619e-06
1.46175e-06
1.46154e-06
1.45915e-06
1.45913e-06
1.45891e-06
1.45922e-06
1.46168e-06
1.46184e-06
1.46155e-06
1.45807e-06
1.45522e-06
1.45522e-06
1.45522e-06
1.45522e-06
1.4591e-06
1.45992e-06
1.45915e-06
1.45522e-06
1.45522e-06
1.45522e-06
1.45522e-06
1.45522e-06
1.45522e-06
1.46038e-06
1.46228e-06
1.46191e-06
1.45913e-06
1.45522e-06
1.45522e-06
1.45522e-06
1.45522e-06
1.45522e-06
1.45522e-06
1.46063e-06
1.46191e-06
1.46175e-06
1.45891e-06
1.45522e-06
1.45522e-06
1.45522e-06
1.45522e-06
1.45522e-06
1.45522e-06
1.46061e-06
1.45999e-06
1.45922e-06
1.45522e-06
1.45522e-06
1.45522e-06
1.45522e-06
1.45522e-06
1.45522e-06
1.46054e-06
1.46229e-06
1.46168e-06
1.4591e-06
1.45522e-06
1.45522e-06
1.45522e-06
1.45522e-06
1.46047e-06
1.46024e-06
1.46222e-06
1.46184e-06
1.45991e-06
1.46038e-06
1.46064e-06
1.46061e-06
1.46054e-06
1.46024e-06
1.46217e-06
1.46228e-06
1.46191e-06
1.45999e-06
1.46229e-06
1.46222e-06
1.44198e-06
1.44183e-06
1.44162e-06
1.43923e-06
1.43921e-06
1.43899e-06
1.4393e-06
1.44176e-06
1.44192e-06
1.44163e-06
1.43815e-06
1.4353e-06
1.4353e-06
1.4353e-06
1.4353e-06
1.43918e-06
1.44e-06
1.43923e-06
1.4353e-06
1.4353e-06
1.4353e-06
1.4353e-06
1.4353e-06
1.4353e-06
1.44046e-06
1.44236e-06
1.44199e-06
1.43921e-06
1.4353e-06
1.4353e-06
1.4353e-06
1.4353e-06
1.4353e-06
1.4353e-06
1.44072e-06
1.44199e-06
1.44183e-06
1.43899e-06
1.4353e-06
1.4353e-06
1.4353e-06
1.4353e-06
1.4353e-06
1.4353e-06
1.44069e-06
1.44007e-06
1.4393e-06
1.4353e-06
1.4353e-06
1.4353e-06
1.4353e-06
1.4353e-06
1.4353e-06
1.44062e-06
1.44237e-06
1.44176e-06
1.43918e-06
1.4353e-06
1.4353e-06
1.4353e-06
1.4353e-06
1.44055e-06
1.44032e-06
1.4423e-06
1.44192e-06
1.43999e-06
1.44046e-06
1.44072e-06
1.44069e-06
1.44062e-06
1.44032e-06
1.44225e-06
1.44236e-06
1.44199e-06
1.44007e-06
1.44237e-06
1.4423e-06
1.42206e-06
1.42191e-06
1.4217e-06
1.41931e-06
1.41929e-06
1.41907e-06
1.41938e-06
1.42184e-06
1.422e-06
1.42171e-06
1.41823e-06
1.41538e-06
1.41538e-06
1.41538e-06
1.41538e-06
1.41926e-06
1.42008e-06
1.41931e-06
1.41538e-06
1.41538e-06
1.41538e-06
1.41538e-06
1.41538e-06
1.41538e-06
1.42054e-06
1.42244e-06
1.42207e-06
1.41929e-06
1.41538e-06
1.41538e-06
1.41538e-06
1.41538e-06
1.41538e-06
1.41538e-06
1.4208e-06
1.42207e-06
1.42191e-06
1.41907e-06
1.41538e-06
1.41538e-06
1.41538e-06
1.41538e-06
1.41538e-06
1.41538e-06
1.42077e-06
1.42015e-06
1.41938e-06
1.41538e-06
1.41538e-06
1.41538e-06
1.41538e-06
1.41538e-06
1.41538e-06
1.4207e-06
1.42245e-06
1.42184e-06
1.41926e-06
1.41538e-06
1.41538e-06
1.41538e-06
1.41538e-06
1.42063e-06
1.4204e-06
1.42238e-06
1.422e-06
1.42007e-06
1.42054e-06
1.4208e-06
1.42078e-06
1.42071e-06
1.4204e-06
1.42233e-06
1.42244e-06
1.42207e-06
1.42015e-06
1.42245e-06
1.42238e-06
1.40214e-06
1.40199e-06
1.40178e-06
1.39939e-06
1.39937e-06
1.39916e-06
1.39946e-06
1.40193e-06
1.40209e-06
1.40179e-06
1.39832e-06
1.39546e-06
1.39546e-06
1.39546e-06
1.39546e-06
1.39934e-06
1.40016e-06
1.39939e-06
1.39546e-06
1.39546e-06
1.39546e-06
1.39546e-06
1.39546e-06
1.39546e-06
1.40062e-06
1.40252e-06
1.40215e-06
1.39937e-06
1.39546e-06
1.39546e-06
1.39546e-06
1.39546e-06
1.39546e-06
1.39546e-06
1.40088e-06
1.40215e-06
1.40199e-06
1.39915e-06
1.39546e-06
1.39546e-06
1.39546e-06
1.39546e-06
1.39546e-06
1.39546e-06
1.40086e-06
1.40023e-06
1.39946e-06
1.39546e-06
1.39546e-06
1.39546e-06
1.39546e-06
1.39546e-06
1.39546e-06
1.40078e-06
1.40253e-06
1.40192e-06
1.39934e-06
1.39546e-06
1.39546e-06
1.39546e-06
1.39546e-06
1.40071e-06
1.40048e-06
1.40246e-06
1.40208e-06
1.40015e-06
1.40062e-06
1.40088e-06
1.40086e-06
1.40079e-06
1.40048e-06
1.40241e-06
1.40252e-06
1.40215e-06
1.40024e-06
1.40253e-06
1.40246e-06
1.38223e-06
1.38207e-06
1.38186e-06
1.37947e-06
1.37945e-06
1.37924e-06
1.37954e-06
1.38201e-06
1.38217e-06
1.38187e-06
1.3784e-06
1.37554e-06
1.37554e-06
1.37554e-06
1.37554e-06
1.37942e-06
1.38024e-06
1.37947e-06
1.37554e-06
1.37554e-06
1.37554e-06
1.37554e-06
1.37554e-06
1.37554e-06
1.3807e-06
1.3826e-06
1.38223e-06
1.37945e-06
1.37554e-06
1.37554e-06
1.37554e-06
1.37554e-06
1.37554e-06
1.37554e-06
1.38096e-06
1.38223e-06
1.38207e-06
1.37923e-06
1.37554e-06
1.37554e-06
1.37554e-06
1.37554e-06
1.37554e-06
1.37554e-06
1.38094e-06
1.38031e-06
1.37954e-06
1.37554e-06
1.37554e-06
1.37554e-06
1.37554e-06
1.37554e-06
1.37554e-06
1.38086e-06
1.38261e-06
1.382e-06
1.37942e-06
1.37554e-06
1.37554e-06
1.37554e-06
1.37554e-06
1.38079e-06
1.38056e-06
1.38254e-06
1.38216e-06
1.38023e-06
1.3807e-06
1.38096e-06
1.38094e-06
1.38087e-06
1.38056e-06
1.38249e-06
1.3826e-06
1.38223e-06
1.38032e-06
1.38261e-06
1.38254e-06
1.3623e-06
1.36215e-06
1.36194e-06
1.35955e-06
1.35953e-06
1.35932e-06
1.35962e-06
1.36209e-06
1.36224e-06
1.36195e-06
1.35847e-06
1.35562e-06
1.35562e-06
1.35562e-06
1.35562e-06
1.3595e-06
1.36032e-06
1.35955e-06
1.35562e-06
1.35562e-06
1.35562e-06
1.35562e-06
1.35562e-06
1.35562e-06
1.36078e-06
1.36268e-06
1.36231e-06
1.35953e-06
1.35562e-06
1.35562e-06
1.35562e-06
1.35562e-06
1.35562e-06
1.35562e-06
1.36104e-06
1.36231e-06
1.36215e-06
1.35931e-06
1.35562e-06
1.35562e-06
1.35562e-06
1.35562e-06
1.35562e-06
1.35562e-06
1.36102e-06
1.36039e-06
1.35962e-06
1.35562e-06
1.35562e-06
1.35562e-06
1.35562e-06
1.35562e-06
1.35562e-06
1.36094e-06
1.36269e-06
1.36208e-06
1.3595e-06
1.35562e-06
1.35562e-06
1.35562e-06
1.35562e-06
1.36087e-06
1.36064e-06
1.36262e-06
1.36224e-06
1.36031e-06
1.36078e-06
1.36104e-06
1.36102e-06
1.36095e-06
1.36064e-06
1.36257e-06
1.36268e-06
1.36231e-06
1.3604e-06
1.36269e-06
1.36262e-06
1.34238e-06
1.34223e-06
1.34202e-06
1.33963e-06
1.33961e-06
1.33939e-06
1.3397e-06
1.34216e-06
1.34232e-06
1.34203e-06
1.33855e-06
1.3357e-06
1.3357e-06
1.3357e-06
1.3357e-06
1.33958e-06
1.3404e-06
1.33963e-06
1.3357e-06
1.3357e-06
1.3357e-06
1.3357e-06
1.3357e-06
1.3357e-06
1.34086e-06
1.34276e-06
1.34239e-06
1.33961e-06
1.3357e-06
1.3357e-06
1.3357e-06
1.3357e-06
1.3357e-06
1.3357e-06
1.34112e-06
1.34239e-06
1.34223e-06
1.33939e-06
1.3357e-06
1.3357e-06
1.3357e-06
1.3357e-06
1.3357e-06
1.3357e-06
1.34109e-06
1.34047e-06
1.3397e-06
1.3357e-06
1.3357e-06
1.3357e-06
1.3357e-06
1.3357e-06
1.3357e-06
1.34102e-06
1.34277e-06
1.34216e-06
1.33958e-06
1.3357e-06
1.3357e-06
1.3357e-06
1.3357e-06
1.34095e-06
1.34072e-06
1.3427e-06
1.34232e-06
1.34039e-06
1.34086e-06
1.34111e-06
1.34109e-06
1.34102e-06
1.34072e-06
1.34265e-06
1.34276e-06
1.34239e-06
1.34047e-06
1.34277e-06
1.3427e-06
1.32246e-06
1.32231e-06
1.3221e-06
1.31971e-06
1.31969e-06
1.31947e-06
1.31978e-06
1.32224e-06
1.3224e-06
1.3221e-06
1.31863e-06
1.31578e-06
1.31578e-06
1.31578e-06
1.31578e-06
1.31966e-06
1.32047e-06
1.31971e-06
1.31578e-06
1.31578e-06
1.31578e-06
1.31578e-06
1.31578e-06
1.31578e-06
1.32094e-06
1.32284e-06
1.32247e-06
1.31969e-06
1.31578e-06
1.31578e-06
1.31578e-06
1.31578e-06
1.31578e-06
1.31578e-06
1.32119e-06
1.32247e-06
1.32231e-06
1.31947e-06
1.31578e-06
1.31578e-06
1.31578e-06
1.31578e-06
1.31578e-06
1.31578e-06
1.32117e-06
1.32055e-06
1.31978e-06
1.31578e-06
1.31578e-06
1.31578e-06
1.31578e-06
1.31578e-06
1.31578e-06
1.3211e-06
1.32285e-06
1.32224e-06
1.31966e-06
1.31578e-06
1.31578e-06
1.31578e-06
1.31578e-06
1.32103e-06
1.3208e-06
1.32277e-06
1.3224e-06
1.32047e-06
1.32094e-06
1.32119e-06
1.32117e-06
1.3211e-06
1.3208e-06
1.32273e-06
1.32283e-06
1.32247e-06
1.32055e-06
1.32285e-06
1.32278e-06
1.30254e-06
1.30239e-06
1.30218e-06
1.29979e-06
1.29976e-06
1.29955e-06
1.29986e-06
1.30232e-06
1.30248e-06
1.30218e-06
1.29871e-06
1.29586e-06
1.29586e-06
1.29586e-06
1.29586e-06
1.29974e-06
1.30055e-06
1.29978e-06
1.29586e-06
1.29586e-06
1.29586e-06
1.29586e-06
1.29586e-06
1.29586e-06
1.30102e-06
1.30291e-06
1.30255e-06
1.29976e-06
1.29586e-06
1.29586e-06
1.29586e-06
1.29586e-06
1.29586e-06
1.29586e-06
1.30127e-06
1.30255e-06
1.30239e-06
1.29955e-06
1.29586e-06
1.29586e-06
1.29586e-06
1.29586e-06
1.29586e-06
1.29586e-06
1.30125e-06
1.30063e-06
1.29986e-06
1.29586e-06
1.29586e-06
1.29586e-06
1.29586e-06
1.29586e-06
1.29586e-06
1.30118e-06
1.30292e-06
1.30232e-06
1.29974e-06
1.29586e-06
1.29586e-06
1.29586e-06
1.29586e-06
1.30111e-06
1.30088e-06
1.30285e-06
1.30248e-06
1.30055e-06
1.30101e-06
1.30127e-06
1.30125e-06
1.30118e-06