/*--------------------------------*- C++ -*----------------------------------*\
| =========                 |                                                 |
| \\      /  F ield         | OpenFOAM: The Open Source CFD Toolbox           |
|  \\    /   O peration     | Version:  v2012                                 |
|   \\  /    A nd           | Website:  www.openfoam.com                      |
|    \\/     M anipulation  |                                                 |
\*---------------------------------------------------------------------------*/
FoamFile
{
    version     2.0;
    format      ascii;
    class       volScalarField;
    location    "250";
    object      epsilon;
}
// * * * * * * * * * * * * * * * * * * * * * * * * * * * * * * * * * * * * * //

dimensions      [0 2 -3 0 0 0 0];


internalField   nonuniform List<scalar> 
171728
(
6.34378e-09
6.5196e-09
4.43355e-09
4.95564e-09
6.31323e-09
6.24333e-09
3.82892e-09
4.48681e-09
6.3402e-09
6.00926e-09
3.47468e-09
4.07029e-09
6.37046e-09
5.84575e-09
3.24442e-09
3.71712e-09
6.4087e-09
5.81492e-09
3.09255e-09
3.41746e-09
6.45698e-09
5.91127e-09
3.03638e-09
3.16344e-09
6.51708e-09
6.14656e-09
3.03767e-09
2.95158e-09
6.57709e-09
6.44943e-09
3.12833e-09
2.77703e-09
6.64444e-09
6.2861e-09
3.26295e-09
2.64017e-09
6.69043e-09
5.30869e-09
3.39649e-09
2.53922e-09
6.71959e-09
4.72556e-09
3.45033e-09
2.47248e-09
6.77097e-09
4.49426e-09
3.49026e-09
2.44158e-09
6.84366e-09
4.19776e-09
3.62342e-09
2.45072e-09
6.92984e-09
3.75177e-09
3.78715e-09
2.51374e-09
7.02667e-09
3.44475e-09
3.95393e-09
2.66042e-09
7.1339e-09
3.4888e-09
4.15779e-09
2.93223e-09
7.25776e-09
3.84928e-09
4.37784e-09
3.39921e-09
7.3877e-09
4.56207e-09
5.125e-09
4.20282e-09
7.53438e-09
5.75755e-09
6.25968e-09
5.61032e-09
7.694e-09
7.34333e-09
7.77388e-09
8.27885e-09
7.86934e-09
1.03442e-08
1.031e-08
1.23515e-08
8.07472e-09
1.27941e-08
1.36727e-08
1.96836e-08
8.30828e-09
1.94857e-08
1.871e-08
3.12153e-08
8.59839e-09
2.46433e-08
2.62346e-08
5.79768e-08
8.93357e-09
3.55148e-08
3.35225e-08
6.73899e-08
9.37422e-09
4.51864e-08
4.74549e-08
1.52879e-07
9.91684e-09
6.23319e-08
5.98251e-08
1.58673e-07
1.05729e-08
7.72329e-08
7.75245e-08
2.16498e-07
1.15278e-08
9.73546e-08
9.8262e-08
3.24194e-07
1.26203e-08
1.20676e-07
1.21058e-07
3.62404e-07
1.41136e-08
1.48848e-07
1.51082e-07
4.76368e-07
1.57071e-08
1.78377e-07
1.74052e-07
5.14529e-07
1.83658e-08
2.0698e-07
2.15207e-07
6.13164e-07
2.07492e-08
2.52559e-07
2.4793e-07
6.73422e-07
2.42241e-08
2.84916e-07
2.8416e-07
7.20177e-07
2.8656e-08
3.26977e-07
3.29962e-07
7.77689e-07
3.39922e-08
3.73832e-07
3.71994e-07
8.21709e-07
4.02146e-08
4.20357e-07
4.21372e-07
8.67013e-07
4.79463e-08
4.65364e-07
4.67758e-07
9.01911e-07
5.65502e-08
5.1806e-07
5.15343e-07
9.40718e-07
6.77779e-08
5.64733e-07
5.66181e-07
9.71568e-07
7.90454e-08
6.137e-07
6.14271e-07
1.00108e-06
9.38029e-08
6.63506e-07
6.60599e-07
1.03332e-06
1.08726e-07
7.08609e-07
7.10926e-07
1.05996e-06
1.27959e-07
7.53795e-07
7.50952e-07
1.08925e-06
1.45719e-07
7.95185e-07
7.94856e-07
1.11305e-06
1.67725e-07
8.38853e-07
8.4074e-07
1.14023e-06
1.92892e-07
8.74056e-07
8.71983e-07
1.16585e-06
2.16804e-07
9.07076e-07
9.08314e-07
1.18848e-06
2.41438e-07
9.33384e-07
9.3555e-07
1.2037e-06
2.68114e-07
9.64044e-07
9.63931e-07
1.22426e-06
2.95313e-07
9.77562e-07
9.7826e-07
1.23431e-06
3.12567e-07
9.82575e-07
9.82764e-07
1.22986e-06
3.46778e-07
1.01531e-06
1.01468e-06
1.26098e-06
3.95949e-07
1.05326e-06
1.05228e-06
1.3027e-06
4.23978e-07
1.06874e-06
1.06807e-06
1.32088e-06
4.26688e-07
1.05687e-06
1.05663e-06
1.30141e-06
4.0816e-07
1.02453e-06
1.02471e-06
1.25364e-06
3.92692e-07
9.95964e-07
9.96255e-07
1.21147e-06
3.95097e-07
9.84313e-07
9.84528e-07
1.19049e-06
4.32916e-07
1.01004e-06
1.01014e-06
1.22183e-06
4.94264e-07
1.05494e-06
1.05502e-06
1.27857e-06
5.40771e-07
1.08965e-06
1.08973e-06
1.32625e-06
5.66549e-07
1.11006e-06
1.11014e-06
1.35604e-06
5.77824e-07
1.11985e-06
1.11994e-06
1.37167e-06
5.8217e-07
1.12415e-06
1.12423e-06
1.37896e-06
5.83748e-07
1.12585e-06
1.12593e-06
1.38203e-06
5.84081e-07
1.12624e-06
1.12632e-06
1.38294e-06
5.8405e-07
1.12622e-06
1.1263e-06
1.38298e-06
5.84127e-07
1.12635e-06
1.12643e-06
1.3832e-06
5.84121e-07
1.12634e-06
1.12642e-06
1.38328e-06
5.84089e-07
1.12628e-06
1.12637e-06
1.38302e-06
5.84109e-07
1.12634e-06
1.12643e-06
1.3833e-06
5.84094e-07
1.1263e-06
1.12638e-06
1.38311e-06
5.84099e-07
1.12632e-06
1.1264e-06
1.38318e-06
5.84093e-07
1.1263e-06
1.12639e-06
1.38313e-06
5.84092e-07
1.12632e-06
1.1264e-06
1.38319e-06
5.84087e-07
1.1263e-06
1.12639e-06
1.38312e-06
5.84084e-07
1.12631e-06
1.12639e-06
1.38322e-06
5.84081e-07
1.1263e-06
1.12639e-06
1.38307e-06
5.84081e-07
1.1263e-06
1.12639e-06
1.38322e-06
5.8408e-07
1.12631e-06
1.12639e-06
1.38316e-06
5.8408e-07
1.1263e-06
1.12639e-06
1.38308e-06
5.8408e-07
1.12631e-06
1.12639e-06
1.38316e-06
5.84079e-07
1.12631e-06
1.1264e-06
1.3832e-06
5.8408e-07
1.12631e-06
1.1264e-06
1.38319e-06
5.84082e-07
1.12631e-06
1.12639e-06
1.38308e-06
5.84083e-07
1.12632e-06
1.1264e-06
1.38319e-06
5.84085e-07
1.12633e-06
1.12641e-06
1.38321e-06
5.84087e-07
1.12634e-06
1.12642e-06
1.38318e-06
5.8409e-07
1.12635e-06
1.12643e-06
1.38307e-06
5.84098e-07
1.12639e-06
1.12647e-06
1.38317e-06
5.84095e-07
1.12642e-06
1.1265e-06
1.38316e-06
5.83853e-07
1.12611e-06
1.12619e-06
1.38275e-06
5.64055e-07
1.06732e-06
1.06732e-06
1.33983e-06
5.10261e-09
4.26062e-09
4.48573e-09
4.77507e-09
4.48074e-09
4.60946e-09
6.39692e-09
7.03489e-09
6.36631e-09
6.25671e-09
5.01109e-09
4.23509e-09
4.88851e-09
3.64864e-09
4.15492e-09
4.98302e-09
5.06587e-09
4.63262e-09
5.27963e-09
5.93736e-09
4.92842e-09
5.78614e-09
4.71462e-09
4.42545e-09
4.85935e-09
6.28257e-09
4.60099e-09
5.97167e-09
4.72268e-09
6.31162e-09
4.41268e-09
4.85314e-09
4.47332e-09
4.59457e-09
3.95661e-09
4.30649e-09
4.52061e-09
4.5634e-09
4.22115e-09
4.80775e-09
5.73826e-09
4.46916e-09
5.59813e-09
4.36596e-09
4.19085e-09
4.52114e-09
5.86874e-09
4.31377e-09
5.58006e-09
4.3095e-09
6.06345e-09
4.02396e-09
4.40345e-09
4.09651e-09
4.21022e-09
3.54805e-09
3.94192e-09
4.09925e-09
4.16027e-09
3.88381e-09
4.36004e-09
5.55108e-09
4.03663e-09
5.39658e-09
4.1423e-09
4.0065e-09
4.2535e-09
5.49079e-09
4.08976e-09
5.23605e-09
3.93799e-09
5.87401e-09
3.69816e-09
4.03764e-09
3.78553e-09
3.86165e-09
3.29389e-09
3.6381e-09
3.74181e-09
3.83268e-09
3.60162e-09
3.93707e-09
5.33795e-09
3.67462e-09
5.12998e-09
3.96449e-09
3.86074e-09
4.04178e-09
5.15798e-09
3.91542e-09
4.92892e-09
3.62409e-09
5.81465e-09
3.42222e-09
3.73595e-09
3.52936e-09
3.56938e-09
3.12199e-09
3.3781e-09
3.43851e-09
3.55866e-09
3.36564e-09
3.59522e-09
5.04958e-09
3.37179e-09
4.79881e-09
3.827e-09
3.75902e-09
3.87962e-09
4.85363e-09
3.78904e-09
4.66159e-09
3.36085e-09
5.87255e-09
3.19302e-09
3.48893e-09
3.32679e-09
3.31871e-09
3.04268e-09
3.15721e-09
3.18066e-09
3.3337e-09
3.16792e-09
3.30313e-09
4.72126e-09
3.11756e-09
4.49133e-09
3.73728e-09
3.72432e-09
3.76478e-09
4.60435e-09
3.72506e-09
4.40044e-09
3.14364e-09
6.06928e-09
3.00798e-09
3.29512e-09
3.14773e-09
3.10914e-09
3.03433e-09
2.97923e-09
2.96494e-09
3.15471e-09
3.01506e-09
3.06318e-09
4.41648e-09
2.92714e-09
4.24117e-09
3.71232e-09
3.72523e-09
3.71639e-09
4.31671e-09
3.71634e-09
4.03569e-09
2.96852e-09
6.39573e-09
2.8638e-09
3.13145e-09
2.95964e-09
2.94051e-09
3.09819e-09
2.84159e-09
2.78626e-09
3.0067e-09
2.90305e-09
2.891e-09
4.20505e-09
2.80367e-09
4.1696e-09
3.71443e-09
3.67934e-09
3.72091e-09
3.94235e-09
3.76988e-09
3.69513e-09
2.83375e-09
6.44149e-09
2.75973e-09
2.94755e-09
2.86011e-09
2.81435e-09
3.22749e-09
2.74434e-09
2.64498e-09
2.89898e-09
2.81674e-09
2.78177e-09
4.17582e-09
2.73468e-09
4.30313e-09
3.64939e-09
3.4408e-09
3.78825e-09
3.62714e-09
3.81832e-09
3.46047e-09
2.73943e-09
5.53805e-09
2.69532e-09
2.85682e-09
2.80397e-09
2.72649e-09
3.36786e-09
2.68682e-09
2.53956e-09
2.81388e-09
2.70859e-09
2.72314e-09
4.36213e-09
2.70774e-09
4.55787e-09
3.44098e-09
3.44743e-09
3.8177e-09
3.41703e-09
3.75924e-09
3.30697e-09
2.68427e-09
4.82075e-09
2.67159e-09
2.8011e-09
2.70551e-09
2.67773e-09
3.44624e-09
2.66838e-09
2.46899e-09
2.70627e-09
2.65566e-09
2.7088e-09
4.61646e-09
2.72825e-09
4.73437e-09
3.44141e-09
3.26937e-09
3.73129e-09
3.27662e-09
3.67795e-09
3.18931e-09
2.67278e-09
4.54537e-09
2.69022e-09
2.70496e-09
2.65591e-09
2.66984e-09
3.47172e-09
2.68921e-09
2.43112e-09
2.66763e-09
2.68822e-09
2.73948e-09
4.76668e-09
2.79455e-09
4.86577e-09
3.26169e-09
3.17018e-09
3.67926e-09
3.16141e-09
3.72481e-09
3.08727e-09
2.70186e-09
4.29495e-09
2.75637e-09
2.6628e-09
2.63451e-09
2.70136e-09
3.58523e-09
2.75612e-09
2.43063e-09
2.71162e-09
2.76991e-09
2.81856e-09
4.8979e-09
2.92037e-09
4.97185e-09
3.17298e-09
3.10434e-09
3.75802e-09
3.06533e-09
3.88693e-09
3.04533e-09
2.7805e-09
3.86133e-09
2.87871e-09
2.64993e-09
2.65277e-09
2.78051e-09
3.74519e-09
2.87885e-09
2.47946e-09
2.80644e-09
2.90172e-09
2.96271e-09
4.99675e-09
3.12421e-09
5.06278e-09
3.11953e-09
3.11083e-09
3.93507e-09
3.04978e-09
4.09441e-09
3.10396e-09
2.92024e-09
3.46866e-09
3.07838e-09
2.68099e-09
2.7268e-09
2.92061e-09
3.91313e-09
3.07909e-09
2.59822e-09
2.95497e-09
3.10559e-09
3.18625e-09
5.09926e-09
3.43712e-09
5.18459e-09
3.15884e-09
3.20262e-09
4.14234e-09
3.14547e-09
4.31915e-09
3.33747e-09
3.14479e-09
3.46707e-09
3.3862e-09
2.77514e-09
2.87773e-09
3.14585e-09
4.06866e-09
3.38805e-09
2.82881e-09
3.18297e-09
3.41617e-09
3.53307e-09
5.20126e-09
3.88826e-09
5.38497e-09
3.25662e-09
3.38095e-09
4.3615e-09
3.41619e-09
4.57328e-09
3.76932e-09
3.48728e-09
3.74747e-09
3.84297e-09
2.96608e-09
3.26322e-09
3.48836e-09
4.32671e-09
3.86108e-09
3.23232e-09
3.57809e-09
3.9115e-09
4.05167e-09
5.41154e-09
4.5613e-09
5.62594e-09
3.48844e-09
3.91981e-09
4.67702e-09
3.91513e-09
4.87599e-09
4.41811e-09
3.99312e-09
4.31587e-09
4.56764e-09
3.4006e-09
3.86865e-09
4.0106e-09
4.86925e-09
4.5655e-09
3.94171e-09
4.16946e-09
5.47202e-09
4.78777e-09
5.93957e-09
5.76804e-09
6.80082e-09
4.26235e-09
5.4288e-09
5.03993e-09
4.65342e-09
5.95302e-09
5.50427e-09
4.78578e-09
5.45937e-09
5.63761e-09
4.18167e-09
5.25708e-09
4.78329e-09
5.93874e-09
5.64373e-09
5.18547e-09
5.87869e-09
7.09735e-09
6.05854e-09
6.99449e-09
7.16439e-09
8.12413e-09
5.77216e-09
7.31316e-09
6.24249e-09
5.86443e-09
7.25278e-09
7.07557e-09
5.96871e-09
6.92323e-09
7.24481e-09
5.70806e-09
7.16565e-09
5.97765e-09
7.3245e-09
7.27686e-09
7.54436e-09
7.98551e-09
1.09303e-08
7.7736e-09
8.4489e-09
9.52202e-09
1.04545e-08
7.95721e-09
1.12158e-08
7.78089e-09
7.5885e-09
9.34051e-09
9.36784e-09
7.72824e-09
9.33107e-09
9.5109e-09
7.93488e-09
1.07321e-08
7.7403e-09
9.44656e-09
9.55316e-09
1.11259e-08
1.17568e-08
1.82991e-08
1.01404e-08
1.13893e-08
1.30601e-08
1.27542e-08
1.33744e-08
1.64123e-08
9.9216e-09
1.027e-08
1.29487e-08
1.25479e-08
1.02216e-08
1.22163e-08
1.27048e-08
1.21931e-08
1.71431e-08
1.02424e-08
1.2654e-08
1.28684e-08
1.76227e-08
2.09469e-08
2.69984e-08
1.41221e-08
1.34034e-08
1.74481e-08
1.86798e-08
1.68016e-08
2.97594e-08
1.40119e-08
1.37186e-08
1.71872e-08
1.76233e-08
1.36043e-08
1.74472e-08
1.76176e-08
1.86527e-08
3.04666e-08
1.38326e-08
1.7732e-08
1.75103e-08
2.82611e-08
2.99722e-08
4.38706e-08
1.87972e-08
2.06444e-08
2.37755e-08
2.50328e-08
3.60118e-08
4.75245e-08
1.86348e-08
1.86668e-08
2.3499e-08
2.34301e-08
1.87262e-08
2.37182e-08
2.47698e-08
3.26218e-08
4.26878e-08
1.86731e-08
2.35975e-08
2.48027e-08
4.95983e-08
4.90986e-08
7.10265e-08
2.60551e-08
2.5941e-08
3.19599e-08
3.13435e-08
4.86652e-08
6.18644e-08
2.57476e-08
2.59503e-08
3.16057e-08
3.2581e-08
2.70931e-08
3.10707e-08
3.05216e-08
4.97091e-08
7.36896e-08
2.70346e-08
3.20824e-08
3.09541e-08
6.42432e-08
7.50443e-08
1.08858e-07
3.40821e-08
3.53079e-08
4.35431e-08
4.35546e-08
7.41242e-08
1.15794e-07
3.3711e-08
3.3935e-08
4.35385e-08
4.28255e-08
3.30036e-08
4.35994e-08
4.82203e-08
7.62456e-08
1.01051e-07
3.37573e-08
4.3273e-08
4.77672e-08
1.42935e-07
1.20141e-07
1.54639e-07
4.66639e-08
4.52015e-08
5.68782e-08
5.71971e-08
1.17692e-07
1.53069e-07
4.68283e-08
4.73438e-08
5.64066e-08
5.59156e-08
5.11305e-08
5.73256e-08
5.60616e-08
1.16753e-07
1.5674e-07
5.02905e-08
5.59746e-08
5.60743e-08
1.54056e-07
1.64376e-07
2.13622e-07
6.0989e-08
6.23731e-08
7.21319e-08
7.2829e-08
1.75753e-07
2.19607e-07
6.02638e-08
5.93359e-08
7.17935e-08
7.39426e-08
5.91366e-08
7.24668e-08
7.02071e-08
1.63618e-07
2.24173e-07
5.94986e-08
7.40243e-08
7.05813e-08
2.06403e-07
2.25789e-07
2.84917e-07
7.59921e-08
7.72448e-08
9.3861e-08
9.1956e-08
2.27401e-07
2.95887e-07
7.59683e-08
7.78625e-08
9.37315e-08
9.18697e-08
7.50745e-08
9.27212e-08
9.65129e-08
2.37261e-07
2.7999e-07
7.57025e-08
9.14919e-08
9.63439e-08
3.05263e-07
3.02631e-07
3.65685e-07
1.00028e-07
9.759e-08
1.14332e-07
1.15988e-07
3.11074e-07
3.58481e-07
9.9714e-08
9.85303e-08
1.13748e-07
1.16101e-07
1.01283e-07
1.15281e-07
1.11495e-07
2.97291e-07
3.69313e-07
1.00736e-07
1.16274e-07
1.11476e-07
3.51708e-07
3.77947e-07
4.50125e-07
1.20542e-07
1.2081e-07
1.45325e-07
1.39465e-07
3.76293e-07
4.37595e-07
1.19829e-07
1.20704e-07
1.45009e-07
1.41993e-07
1.17484e-07
1.3916e-07
1.44939e-07
3.85569e-07
4.41175e-07
1.17844e-07
1.42372e-07
1.45429e-07
4.57447e-07
4.68129e-07
5.05439e-07
1.51358e-07
1.49489e-07
1.65859e-07
1.7436e-07
4.55156e-07
5.26903e-07
1.51311e-07
1.51043e-07
1.6583e-07
1.6913e-07
1.52224e-07
1.73778e-07
1.65398e-07
4.58978e-07
5.16908e-07
1.52382e-07
1.68657e-07
1.6524e-07
5.04279e-07
5.18261e-07
6.01829e-07
1.73614e-07
1.78758e-07
2.07426e-07
1.95786e-07
5.38669e-07
5.72137e-07
1.73419e-07
1.744e-07
2.06657e-07
2.03122e-07
1.71044e-07
1.96297e-07
2.03349e-07
5.2835e-07
5.87603e-07
1.70928e-07
2.0309e-07
2.03513e-07
5.89858e-07
6.21862e-07
6.55952e-07
2.17059e-07
2.06213e-07
2.38707e-07
2.45034e-07
5.89472e-07
6.68703e-07
2.1639e-07
2.15204e-07
2.38296e-07
2.40289e-07
2.16179e-07
2.43896e-07
2.41073e-07
6.09255e-07
6.62958e-07
2.16712e-07
2.4065e-07
2.41846e-07
6.63306e-07
6.66337e-07
7.06809e-07
2.46386e-07
2.53929e-07
2.74161e-07
2.74632e-07
6.82907e-07
7.10587e-07
2.45717e-07
2.47489e-07
2.73767e-07
2.74804e-07
2.47819e-07
2.75448e-07
2.73802e-07
6.73126e-07
7.06589e-07
2.4789e-07
2.74571e-07
2.73297e-07
7.06163e-07
7.21556e-07
7.64417e-07
2.84807e-07
2.83893e-07
3.18325e-07
3.16913e-07
7.21587e-07
7.61692e-07
2.84893e-07
2.84859e-07
3.17567e-07
3.17631e-07
2.84227e-07
3.16493e-07
3.19081e-07
7.20446e-07
7.65307e-07
2.84288e-07
3.17351e-07
3.19133e-07
7.65515e-07
7.7672e-07
8.11021e-07
3.29037e-07
3.27714e-07
3.61707e-07
3.61208e-07
7.74937e-07
8.11012e-07
3.27826e-07
3.29758e-07
3.61272e-07
3.63133e-07
3.29824e-07
3.61327e-07
3.58943e-07
7.78239e-07
8.11509e-07
3.29562e-07
3.62567e-07
3.58909e-07
8.09862e-07
8.22735e-07
8.53989e-07
3.73529e-07
3.73095e-07
4.08202e-07
4.08581e-07
8.2297e-07
8.5456e-07
3.73368e-07
3.7261e-07
4.07361e-07
4.0672e-07
3.71105e-07
4.09434e-07
4.11048e-07
8.22042e-07
8.53866e-07
3.71103e-07
4.0754e-07
4.11019e-07
8.56485e-07
8.64246e-07
8.91887e-07
4.19502e-07
4.20359e-07
4.55953e-07
4.55064e-07
8.64638e-07
8.91203e-07
4.18354e-07
4.20801e-07
4.54751e-07
4.57974e-07
4.21775e-07
4.53501e-07
4.53991e-07
8.65612e-07
8.93861e-07
4.21896e-07
4.57526e-07
4.53671e-07
8.91942e-07
9.01996e-07
9.27954e-07
4.67762e-07
4.66371e-07
5.02031e-07
5.03934e-07
9.01328e-07
9.28935e-07
4.67038e-07
4.68033e-07
5.01793e-07
5.03184e-07
4.66993e-07
5.04652e-07
5.04956e-07
9.02512e-07
9.26354e-07
4.66458e-07
5.02026e-07
5.05723e-07
9.31187e-07
9.374e-07
9.63253e-07
5.15235e-07
5.17496e-07
5.5563e-07
5.53847e-07
9.38559e-07
9.62059e-07
5.14505e-07
5.1656e-07
5.54301e-07
5.5376e-07
5.17173e-07
5.53736e-07
5.55656e-07
9.36373e-07
9.63389e-07
5.18339e-07
5.54332e-07
5.54826e-07
9.63222e-07
9.71958e-07
9.9305e-07
5.66803e-07
5.64875e-07
6.00251e-07
6.0139e-07
9.7037e-07
9.93287e-07
5.65808e-07
5.65895e-07
5.99029e-07
6.0359e-07
5.67303e-07
6.00794e-07
5.99481e-07
9.7193e-07
9.93558e-07
5.66123e-07
6.01948e-07
6.01805e-07
9.9261e-07
1.00168e-06
1.026e-06
6.13644e-07
6.14271e-07
6.52499e-07
6.50705e-07
1.00225e-06
1.02527e-06
6.11992e-07
6.15241e-07
6.50745e-07
6.48329e-07
6.11968e-07
6.51374e-07
6.52744e-07
1.00194e-06
1.02346e-06
6.14903e-07
6.4907e-07
6.51834e-07
1.02541e-06
1.03363e-06
1.05237e-06
6.6335e-07
6.62623e-07
6.95821e-07
6.97471e-07
1.03301e-06
1.05341e-06
6.62041e-07
6.6082e-07
6.95283e-07
7.00554e-07
6.65096e-07
6.9768e-07
6.97524e-07
1.03153e-06
1.05555e-06
6.6343e-07
6.98404e-07
6.9907e-07
1.05228e-06
1.06047e-06
1.08402e-06
7.08252e-07
7.08578e-07
7.45444e-07
7.42268e-07
1.06092e-06
1.08074e-06
7.07654e-07
7.12334e-07
7.44709e-07
7.41546e-07
7.08792e-07
7.42359e-07
7.45792e-07
1.06359e-06
1.08026e-06
7.10741e-07
7.4177e-07
7.42665e-07
1.08194e-06
1.09104e-06
1.1057e-06
7.56247e-07
7.53796e-07
7.84135e-07
7.85619e-07
1.08824e-06
1.10826e-06
7.55597e-07
7.51102e-07
7.83115e-07
7.83562e-07
7.57483e-07
7.85143e-07
7.85454e-07
1.08642e-06
1.10667e-06
7.52892e-07
7.82663e-07
7.83312e-07
1.10665e-06
1.11194e-06
1.13325e-06
7.93583e-07
7.95552e-07
8.25838e-07
8.26918e-07
1.11508e-06
1.13511e-06
7.92366e-07
7.95537e-07
8.25368e-07
8.31489e-07
7.94116e-07
8.27837e-07
8.25053e-07
1.11513e-06
1.13928e-06
7.93786e-07
8.30553e-07
8.27409e-07
1.13267e-06
1.14136e-06
1.16143e-06
8.36994e-07
8.3758e-07
8.66175e-07
8.65627e-07
1.14259e-06
1.161e-06
8.37206e-07
8.42143e-07
8.6712e-07
8.66511e-07
8.3599e-07
8.66569e-07
8.64176e-07
1.1461e-06
1.15961e-06
8.38544e-07
8.64875e-07
8.67289e-07
1.15981e-06
1.16711e-06
1.18105e-06
8.74325e-07
8.7356e-07
8.99864e-07
8.98956e-07
1.16653e-06
1.18049e-06
8.74744e-07
8.73031e-07
8.98405e-07
8.9754e-07
8.72359e-07
8.98497e-07
8.99441e-07
1.16455e-06
1.1797e-06
8.75538e-07
8.98567e-07
9.01431e-07
1.18239e-06
1.18696e-06
1.20045e-06
9.08577e-07
9.07697e-07
9.28895e-07
9.28255e-07
1.18642e-06
1.19956e-06
9.06995e-07
9.06998e-07
9.27997e-07
9.29191e-07
9.08395e-07
9.27404e-07
9.27679e-07
1.1864e-06
1.20127e-06
9.09658e-07
9.29988e-07
9.27363e-07
1.19966e-06
1.20492e-06
1.21823e-06
9.346e-07
9.34179e-07
9.56009e-07
9.56327e-07
1.20406e-06
1.21839e-06
9.33935e-07
9.35118e-07
9.55531e-07
9.56617e-07
9.33137e-07
9.56189e-07
9.55399e-07
1.20555e-06
1.21813e-06
9.32654e-07
9.56334e-07
9.54796e-07
1.21773e-06
1.2243e-06
1.23213e-06
9.63599e-07
9.64049e-07
9.76762e-07
9.77284e-07
1.22466e-06
1.23243e-06
9.63148e-07
9.6418e-07
9.76573e-07
9.77097e-07
9.63418e-07
9.76891e-07
9.77138e-07
1.22417e-06
1.23186e-06
9.6275e-07
9.77434e-07
9.76313e-07
1.23283e-06
1.23365e-06
1.22635e-06
9.77601e-07
9.7808e-07
9.79839e-07
9.80086e-07
1.23382e-06
1.22618e-06
9.77535e-07
9.7781e-07
9.80017e-07
9.79654e-07
9.78024e-07
9.79615e-07
9.8037e-07
1.23327e-06
1.22546e-06
9.77229e-07
9.8004e-07
9.79846e-07
1.22684e-06
1.22938e-06
1.25072e-06
9.82784e-07
9.82914e-07
1.00435e-06
1.00409e-06
1.22918e-06
1.2504e-06
9.83026e-07
9.82488e-07
1.00466e-06
1.00394e-06
9.83343e-07
1.00423e-06
1.00485e-06
1.2284e-06
1.24991e-06
9.82942e-07
1.00383e-06
1.00477e-06
1.25101e-06
1.26077e-06
1.29475e-06
1.01538e-06
1.01502e-06
1.04557e-06
1.04529e-06
1.26044e-06
1.29455e-06
1.01567e-06
1.01497e-06
1.04568e-06
1.04524e-06
1.01583e-06
1.04559e-06
1.04591e-06
1.26004e-06
1.29433e-06
1.01577e-06
1.04461e-06
1.04569e-06
1.29476e-06
1.30269e-06
1.31793e-06
1.05323e-06
1.05305e-06
1.06733e-06
1.06745e-06
1.30255e-06
1.318e-06
1.0533e-06
1.05291e-06
1.06729e-06
1.06701e-06
1.05356e-06
1.06737e-06
1.06766e-06
1.30231e-06
1.31767e-06
1.05331e-06
1.06662e-06
1.06745e-06
1.31808e-06
1.32069e-06
1.30243e-06
1.0687e-06
1.06887e-06
1.063e-06
1.06333e-06
1.3208e-06
1.30269e-06
1.06864e-06
1.06837e-06
1.06289e-06
1.06272e-06
1.06903e-06
1.06306e-06
1.06332e-06
1.32045e-06
1.30235e-06
1.06884e-06
1.06276e-06
1.06324e-06
1.30277e-06
1.30107e-06
1.25516e-06
1.05681e-06
1.05713e-06
1.03252e-06
1.03276e-06
1.30134e-06
1.25529e-06
1.0567e-06
1.05655e-06
1.03238e-06
1.03235e-06
1.05712e-06
1.03247e-06
1.03273e-06
1.30101e-06
1.25529e-06
1.05705e-06
1.03256e-06
1.0327e-06
1.25538e-06
1.25345e-06
1.21262e-06
1.02463e-06
1.02481e-06
1.00265e-06
1.00269e-06
1.25356e-06
1.21256e-06
1.02448e-06
1.0245e-06
1.00249e-06
1.00264e-06
1.02478e-06
1.00247e-06
1.0027e-06
1.25359e-06
1.21286e-06
1.02476e-06
1.00276e-06
1.00266e-06
1.21266e-06
1.21144e-06
1.18893e-06
9.9614e-07
9.96158e-07
9.84752e-07
9.84734e-07
1.21137e-06
1.18883e-06
9.95991e-07
9.96174e-07
9.84609e-07
9.8486e-07
9.96179e-07
9.84588e-07
9.84773e-07
1.21168e-06
1.18916e-06
9.96133e-07
9.84819e-07
9.8471e-07
1.18893e-06
1.19049e-06
1.21128e-06
9.84472e-07
9.84452e-07
9.99869e-07
9.99854e-07
1.19039e-06
1.21118e-06
9.8433e-07
9.84587e-07
9.99734e-07
9.99987e-07
9.84494e-07
9.99734e-07
9.99913e-07
1.19071e-06
1.21142e-06
9.84428e-07
9.99857e-07
9.99821e-07
1.21132e-06
1.22179e-06
1.26705e-06
1.01017e-06
1.01017e-06
1.04437e-06
1.04439e-06
1.2217e-06
1.26697e-06
1.01005e-06
1.01028e-06
1.04425e-06
1.04444e-06
1.01023e-06
1.04425e-06
1.04443e-06
1.22192e-06
1.26712e-06
1.01013e-06
1.04433e-06
1.04433e-06
1.26711e-06
1.27851e-06
1.31716e-06
1.05506e-06
1.05509e-06
1.08245e-06
1.08249e-06
1.27844e-06
1.31709e-06
1.05495e-06
1.05513e-06
1.08235e-06
1.08251e-06
1.05513e-06
1.08234e-06
1.08252e-06
1.27857e-06
1.3172e-06
1.05502e-06
1.08242e-06
1.08241e-06
1.31722e-06
1.32619e-06
1.34989e-06
1.08977e-06
1.0898e-06
1.10627e-06
1.1063e-06
1.32613e-06
1.34983e-06
1.08967e-06
1.08983e-06
1.10617e-06
1.10633e-06
1.08984e-06
1.10616e-06
1.10635e-06
1.32623e-06
1.34993e-06
1.08973e-06
1.10625e-06
1.10625e-06
1.34997e-06
1.35597e-06
1.3677e-06
1.11017e-06
1.1102e-06
1.11819e-06
1.11822e-06
1.35591e-06
1.36763e-06
1.11007e-06
1.11023e-06
1.11809e-06
1.11826e-06
1.11024e-06
1.11809e-06
1.11827e-06
1.356e-06
1.36774e-06
1.11015e-06
1.11817e-06
1.11818e-06
1.36778e-06
1.37159e-06
1.37613e-06
1.11995e-06
1.11998e-06
1.12348e-06
1.12351e-06
1.37153e-06
1.37607e-06
1.11985e-06
1.12002e-06
1.12338e-06
1.12355e-06
1.12004e-06
1.12338e-06
1.12356e-06
1.37163e-06
1.37617e-06
1.11994e-06
1.12347e-06
1.12347e-06
1.37621e-06
1.37887e-06
1.37978e-06
1.12424e-06
1.12427e-06
1.12568e-06
1.12571e-06
1.37882e-06
1.37972e-06
1.12414e-06
1.12431e-06
1.12558e-06
1.12574e-06
1.12433e-06
1.12558e-06
1.12577e-06
1.37891e-06
1.37982e-06
1.12423e-06
1.12566e-06
1.12567e-06
1.37986e-06
1.38195e-06
1.38093e-06
1.12594e-06
1.12597e-06
1.1263e-06
1.12634e-06
1.3819e-06
1.38088e-06
1.12584e-06
1.12601e-06
1.1262e-06
1.12637e-06
1.12603e-06
1.12621e-06
1.12639e-06
1.38199e-06
1.38097e-06
1.12594e-06
1.12629e-06
1.1263e-06
1.38102e-06
1.38286e-06
1.38104e-06
1.12633e-06
1.12637e-06
1.12632e-06
1.12635e-06
1.38281e-06
1.38098e-06
1.12623e-06
1.1264e-06
1.12622e-06
1.12639e-06
1.12642e-06
1.12622e-06
1.12641e-06
1.38289e-06
1.38108e-06
1.12633e-06
1.12631e-06
1.12631e-06
1.38113e-06
1.38289e-06
1.38114e-06
1.12631e-06
1.12634e-06
1.12639e-06
1.12643e-06
1.38283e-06
1.3811e-06
1.12621e-06
1.12638e-06
1.12629e-06
1.12646e-06
1.1264e-06
1.1263e-06
1.12648e-06
1.38293e-06
1.38119e-06
1.12631e-06
1.12638e-06
1.12639e-06
1.38123e-06
1.38312e-06
1.38132e-06
1.12645e-06
1.12648e-06
1.12647e-06
1.1265e-06
1.38307e-06
1.38126e-06
1.12635e-06
1.12651e-06
1.12637e-06
1.12654e-06
1.12654e-06
1.12637e-06
1.12656e-06
1.38316e-06
1.38135e-06
1.12644e-06
1.12646e-06
1.12646e-06
1.3814e-06
1.3832e-06
1.38101e-06
1.12644e-06
1.12647e-06
1.12637e-06
1.1264e-06
1.38314e-06
1.38096e-06
1.12634e-06
1.1265e-06
1.12627e-06
1.12644e-06
1.12653e-06
1.12628e-06
1.12646e-06
1.38323e-06
1.38105e-06
1.12643e-06
1.12636e-06
1.12637e-06
1.3811e-06
1.38293e-06
1.38126e-06
1.12637e-06
1.12641e-06
1.12643e-06
1.12647e-06
1.38288e-06
1.38121e-06
1.12628e-06
1.12644e-06
1.12633e-06
1.1265e-06
1.12647e-06
1.12634e-06
1.12652e-06
1.38297e-06
1.38131e-06
1.12637e-06
1.12642e-06
1.12643e-06
1.38135e-06
1.38321e-06
1.38116e-06
1.12644e-06
1.12647e-06
1.1264e-06
1.12643e-06
1.38316e-06
1.38109e-06
1.12634e-06
1.12651e-06
1.1263e-06
1.12647e-06
1.12653e-06
1.1263e-06
1.12649e-06
1.38325e-06
1.38119e-06
1.12643e-06
1.12639e-06
1.12639e-06
1.38123e-06
1.38304e-06
1.38113e-06
1.12639e-06
1.12643e-06
1.1264e-06
1.12643e-06
1.38298e-06
1.38109e-06
1.1263e-06
1.12646e-06
1.1263e-06
1.12647e-06
1.12648e-06
1.1263e-06
1.12649e-06
1.38307e-06
1.38118e-06
1.12639e-06
1.12639e-06
1.1264e-06
1.38123e-06
1.38308e-06
1.3812e-06
1.12641e-06
1.12644e-06
1.12641e-06
1.12644e-06
1.38304e-06
1.38113e-06
1.12631e-06
1.12648e-06
1.12631e-06
1.12648e-06
1.1265e-06
1.12631e-06
1.1265e-06
1.38314e-06
1.38123e-06
1.12641e-06
1.1264e-06
1.1264e-06
1.38127e-06
1.38305e-06
1.38116e-06
1.1264e-06
1.12643e-06
1.12639e-06
1.12643e-06
1.38299e-06
1.38111e-06
1.1263e-06
1.12646e-06
1.1263e-06
1.12646e-06
1.12649e-06
1.1263e-06
1.12649e-06
1.38308e-06
1.38121e-06
1.12639e-06
1.12639e-06
1.12639e-06
1.38125e-06
1.3831e-06
1.38117e-06
1.12641e-06
1.12644e-06
1.1264e-06
1.12643e-06
1.38306e-06
1.3811e-06
1.12631e-06
1.12648e-06
1.1263e-06
1.12647e-06
1.1265e-06
1.1263e-06
1.12649e-06
1.38315e-06
1.38121e-06
1.12641e-06
1.12639e-06
1.1264e-06
1.38126e-06
1.38303e-06
1.38119e-06
1.12639e-06
1.12643e-06
1.1264e-06
1.12643e-06
1.38296e-06
1.38116e-06
1.12629e-06
1.12646e-06
1.1263e-06
1.12647e-06
1.12649e-06
1.1263e-06
1.12649e-06
1.38306e-06
1.38125e-06
1.12639e-06
1.12639e-06
1.12639e-06
1.38129e-06
1.38312e-06
1.38112e-06
1.1264e-06
1.12644e-06
1.12639e-06
1.12643e-06
1.38309e-06
1.38104e-06
1.1263e-06
1.12647e-06
1.12629e-06
1.12646e-06
1.12649e-06
1.1263e-06
1.12649e-06
1.38317e-06
1.38115e-06
1.1264e-06
1.12638e-06
1.12639e-06
1.38119e-06
1.38298e-06
1.38125e-06
1.12639e-06
1.12643e-06
1.12639e-06
1.12643e-06
1.38293e-06
1.38119e-06
1.1263e-06
1.12646e-06
1.12629e-06
1.12646e-06
1.12649e-06
1.1263e-06
1.12648e-06
1.38302e-06
1.38129e-06
1.12639e-06
1.12638e-06
1.12639e-06
1.38134e-06
1.38315e-06
1.38111e-06
1.1264e-06
1.12643e-06
1.12639e-06
1.12643e-06
1.38307e-06
1.38109e-06
1.1263e-06
1.12647e-06
1.12629e-06
1.12646e-06
1.12649e-06
1.1263e-06
1.12648e-06
1.38317e-06
1.38118e-06
1.12639e-06
1.12638e-06
1.12639e-06
1.38122e-06
1.38304e-06
1.38113e-06
1.1264e-06
1.12643e-06
1.12639e-06
1.12642e-06
1.38303e-06
1.38105e-06
1.1263e-06
1.12647e-06
1.12629e-06
1.12646e-06
1.12649e-06
1.12629e-06
1.12648e-06
1.38312e-06
1.38115e-06
1.1264e-06
1.12638e-06
1.12639e-06
1.38119e-06
1.38299e-06
1.38122e-06
1.12639e-06
1.12643e-06
1.12638e-06
1.12642e-06
1.38293e-06
1.38116e-06
1.1263e-06
1.12647e-06
1.12628e-06
1.12646e-06
1.12649e-06
1.12629e-06
1.12648e-06
1.38303e-06
1.38125e-06
1.1264e-06
1.12638e-06
1.12639e-06
1.3813e-06
1.38309e-06
1.38119e-06
1.12639e-06
1.12643e-06
1.12638e-06
1.12642e-06
1.38302e-06
1.38115e-06
1.1263e-06
1.12647e-06
1.12628e-06
1.12645e-06
1.1265e-06
1.12629e-06
1.12648e-06
1.38311e-06
1.38125e-06
1.1264e-06
1.12638e-06
1.12638e-06
1.3813e-06
1.38311e-06
1.3811e-06
1.1264e-06
1.12644e-06
1.12637e-06
1.12641e-06
1.38306e-06
1.38108e-06
1.1263e-06
1.12647e-06
1.12628e-06
1.12645e-06
1.1265e-06
1.12628e-06
1.12648e-06
1.38316e-06
1.38118e-06
1.1264e-06
1.12637e-06
1.12638e-06
1.38125e-06
1.38302e-06
1.38115e-06
1.1264e-06
1.12644e-06
1.12637e-06
1.12641e-06
1.38301e-06
1.38106e-06
1.1263e-06
1.12647e-06
1.12627e-06
1.12644e-06
1.1265e-06
1.12628e-06
1.12647e-06
1.38311e-06
1.38115e-06
1.1264e-06
1.12636e-06
1.12637e-06
1.3812e-06
1.38301e-06
1.38122e-06
1.1264e-06
1.12644e-06
1.12637e-06
1.1264e-06
1.38295e-06
1.38111e-06
1.12631e-06
1.12647e-06
1.12627e-06
1.12644e-06
1.1265e-06
1.12628e-06
1.12647e-06
1.38303e-06
1.38124e-06
1.1264e-06
1.12636e-06
1.12637e-06
1.38131e-06
1.38311e-06
1.38114e-06
1.12641e-06
1.12644e-06
1.12636e-06
1.1264e-06
1.38297e-06
1.3812e-06
1.12631e-06
1.12648e-06
1.12626e-06
1.12643e-06
1.12651e-06
1.12627e-06
1.12646e-06
1.38309e-06
1.38127e-06
1.12641e-06
1.12635e-06
1.12636e-06
1.38129e-06
1.38307e-06
1.38114e-06
1.12642e-06
1.12645e-06
1.12635e-06
1.12638e-06
1.38309e-06
1.38105e-06
1.12632e-06
1.12649e-06
1.12625e-06
1.12642e-06
1.12652e-06
1.12626e-06
1.12645e-06
1.38315e-06
1.38123e-06
1.12641e-06
1.12634e-06
1.12635e-06
1.38123e-06
1.38306e-06
1.38107e-06
1.12643e-06
1.12646e-06
1.12633e-06
1.12637e-06
1.383e-06
1.38109e-06
1.12633e-06
1.1265e-06
1.12624e-06
1.1264e-06
1.12653e-06
1.12625e-06
1.12643e-06
1.38316e-06
1.38112e-06
1.12642e-06
1.12632e-06
1.12633e-06
1.38118e-06
1.38296e-06
1.38122e-06
1.12644e-06
1.12648e-06
1.12632e-06
1.12636e-06
1.38296e-06
1.38112e-06
1.12634e-06
1.12651e-06
1.12623e-06
1.12639e-06
1.12654e-06
1.12623e-06
1.12642e-06
1.38302e-06
1.38124e-06
1.12644e-06
1.12631e-06
1.12632e-06
1.3813e-06
1.38312e-06
1.38107e-06
1.12647e-06
1.12651e-06
1.1263e-06
1.12634e-06
1.38306e-06
1.38102e-06
1.12638e-06
1.12654e-06
1.12621e-06
1.12638e-06
1.12657e-06
1.12621e-06
1.1264e-06
1.38314e-06
1.38114e-06
1.12647e-06
1.1263e-06
1.1263e-06
1.38124e-06
1.38299e-06
1.38093e-06
1.12651e-06
1.12654e-06
1.12591e-06
1.12594e-06
1.38292e-06
1.38091e-06
1.12641e-06
1.12658e-06
1.12581e-06
1.12598e-06
1.12661e-06
1.12582e-06
1.126e-06
1.38305e-06
1.38098e-06
1.1265e-06
1.12589e-06
1.12589e-06
1.38097e-06
1.38269e-06
1.36161e-06
1.12621e-06
1.12624e-06
1.1045e-06
1.10452e-06
1.38268e-06
1.36159e-06
1.12611e-06
1.12628e-06
1.10447e-06
1.10449e-06
1.1263e-06
1.10453e-06
1.10456e-06
1.38273e-06
1.36164e-06
1.12619e-06
1.10453e-06
1.10453e-06
1.36166e-06
1.33979e-06
1.06726e-06
1.06728e-06
1.3398e-06
1.06725e-06
1.06724e-06
5.64081e-07
5.64053e-07
5.641e-07
1.06731e-06
1.33982e-06
1.0673e-06
1.70021e-08
3.56744e-09
1.08212e-08
1.07922e-08
1.71885e-09
5.65186e-09
1.05476e-08
6.40304e-09
1.68824e-09
3.68628e-09
6.14786e-09
1.635e-08
5.15379e-09
3.80086e-09
8.36289e-09
7.50741e-09
1.77911e-07
6.02174e-09
2.80766e-07
1.55307e-06
3.10268e-06
7.79969e-09
1.78426e-07
5.97809e-09
2.79422e-07
7.00695e-09
6.32733e-09
6.1872e-09
6.30902e-09
7.01275e-09
6.29208e-09
6.13894e-09
1.6006e-09
8.83943e-08
4.41897e-09
6.45131e-09
1.70122e-09
6.55055e-08
4.39751e-09
1.60547e-06
3.17915e-06
1.52208e-09
3.56909e-09
1.09703e-07
4.27055e-09
1.62089e-09
3.51702e-09
8.63451e-08
2.15887e-07
2.19929e-07
4.75502e-09
1.84533e-07
1.88594e-07
1.73607e-08
5.08479e-07
1.17498e-08
7.153e-07
6.96162e-06
9.95977e-06
1.80679e-08
4.94816e-07
1.19915e-08
7.10259e-07
7.02496e-09
6.2948e-09
6.14247e-09
6.334e-09
7.05971e-09
6.31376e-09
6.15816e-09