/*--------------------------------*- C++ -*----------------------------------*\
| =========                 |                                                 |
| \\      /  F ield         | OpenFOAM: The Open Source CFD Toolbox           |
|  \\    /   O peration     | Version:  v2012                                 |
|   \\  /    A nd           | Website:  www.openfoam.com                      |
|    \\/     M anipulation  |                                                 |
\*---------------------------------------------------------------------------*/
FoamFile
{
    version     2.0;
    format      ascii;
    class       volScalarField;
    location    "250";
    object      k;
}
// * * * * * * * * * * * * * * * * * * * * * * * * * * * * * * * * * * * * * //

dimensions      [0 2 -2 0 0 0 0];


internalField   nonuniform List<scalar> 
171728
(
3.58932e-05
3.58912e-05
3.58912e-05
3.59957e-05
3.39296e-05
3.3889e-05
3.3889e-05
3.39622e-05
3.21578e-05
3.20081e-05
3.20081e-05
3.19522e-05
3.05346e-05
3.02293e-05
3.02292e-05
2.99884e-05
2.90329e-05
2.8554e-05
2.85539e-05
2.81226e-05
2.76353e-05
2.69872e-05
2.69871e-05
2.63907e-05
2.63308e-05
2.5531e-05
2.55309e-05
2.48073e-05
2.51112e-05
2.4185e-05
2.41848e-05
2.33782e-05
2.39709e-05
2.29506e-05
2.29504e-05
2.21046e-05
2.29058e-05
2.18269e-05
2.18267e-05
2.09861e-05
2.1912e-05
2.08114e-05
2.08112e-05
2.00134e-05
2.09865e-05
1.99014e-05
1.99012e-05
1.91817e-05
2.01241e-05
1.90947e-05
1.90948e-05
1.84881e-05
1.93239e-05
1.83885e-05
1.83886e-05
1.7933e-05
1.85848e-05
1.77794e-05
1.77794e-05
1.75055e-05
1.79042e-05
1.72655e-05
1.72656e-05
1.7203e-05
1.72798e-05
1.68464e-05
1.68461e-05
1.70244e-05
1.67097e-05
1.65209e-05
1.65212e-05
1.69807e-05
1.61923e-05
1.62894e-05
1.62897e-05
1.70773e-05
1.57254e-05
1.61515e-05
1.61521e-05
1.73011e-05
1.53073e-05
1.61072e-05
1.61076e-05
1.76539e-05
1.49374e-05
1.61534e-05
1.61535e-05
1.81334e-05
1.46145e-05
1.62918e-05
1.62922e-05
1.87286e-05
1.43382e-05
1.65201e-05
1.65208e-05
1.94289e-05
1.4108e-05
1.68356e-05
1.68365e-05
2.02214e-05
1.39235e-05
1.72351e-05
1.72363e-05
2.1094e-05
1.37844e-05
1.77153e-05
1.77167e-05
2.20348e-05
1.36906e-05
1.82725e-05
1.82737e-05
2.30304e-05
1.36422e-05
1.89015e-05
1.89029e-05
2.40649e-05
1.36391e-05
1.95975e-05
1.95995e-05
2.51256e-05
1.36815e-05
2.03557e-05
2.03573e-05
2.6202e-05
1.37699e-05
2.11685e-05
2.11706e-05
2.72816e-05
1.39047e-05
2.20322e-05
2.20342e-05
2.8362e-05
1.40856e-05
2.29393e-05
2.2941e-05
2.94294e-05
1.43134e-05
2.38818e-05
2.38849e-05
3.04832e-05
1.45879e-05
2.48571e-05
2.48587e-05
3.1522e-05
1.49086e-05
2.58547e-05
2.58571e-05
3.25371e-05
1.52758e-05
2.68707e-05
2.68734e-05
3.35327e-05
1.56887e-05
2.78991e-05
2.79021e-05
3.45039e-05
1.61459e-05
2.89328e-05
2.89342e-05
3.54506e-05
1.6647e-05
2.99673e-05
2.9971e-05
3.63735e-05
1.71901e-05
3.09995e-05
3.10019e-05
3.72695e-05
1.7774e-05
3.20266e-05
3.20292e-05
3.81436e-05
1.83906e-05
3.303e-05
3.30329e-05
3.89838e-05
1.90559e-05
3.40425e-05
3.40453e-05
3.98213e-05
1.97353e-05
3.50049e-05
3.50081e-05
4.05985e-05
2.04625e-05
3.5977e-05
3.59784e-05
4.13932e-05
2.11992e-05
3.68931e-05
3.68985e-05
4.21196e-05
2.19885e-05
3.78704e-05
3.78679e-05
4.29078e-05
2.27302e-05
3.86138e-05
3.86184e-05
4.34507e-05
2.36334e-05
3.97889e-05
3.97929e-05
4.44879e-05
2.42763e-05
4.01397e-05
4.01413e-05
4.44808e-05
2.54343e-05
4.18318e-05
4.1844e-05
4.64968e-05
2.601e-05
4.15697e-05
4.15727e-05
4.48545e-05
2.72914e-05
4.42246e-05
4.4198e-05
4.84721e-05
3.04059e-05
4.78922e-05
4.79053e-05
5.35671e-05
2.89423e-05
4.30652e-05
4.30712e-05
4.61107e-05
2.6138e-05
3.92807e-05
3.92754e-05
4.12714e-05
2.67095e-05
4.13454e-05
4.13467e-05
4.419e-05
3.31928e-05
4.74442e-05
4.74476e-05
5.01556e-05
3.79993e-05
5.14025e-05
5.14005e-05
5.415e-05
4.03331e-05
5.30408e-05
5.30402e-05
5.57458e-05
4.09324e-05
5.3277e-05
5.32785e-05
5.59158e-05
4.09199e-05
5.31408e-05
5.31431e-05
5.5726e-05
4.08143e-05
5.30636e-05
5.30652e-05
5.56329e-05
4.08203e-05
5.30971e-05
5.3098e-05
5.56788e-05
4.088e-05
5.31453e-05
5.31459e-05
5.57244e-05
4.09066e-05
5.31601e-05
5.31607e-05
5.57441e-05
4.09093e-05
5.31598e-05
5.31607e-05
5.57337e-05
4.09098e-05
5.31621e-05
5.31626e-05
5.57484e-05
4.09097e-05
5.31609e-05
5.31614e-05
5.57333e-05
4.09094e-05
5.31602e-05
5.31612e-05
5.57391e-05
4.09092e-05
5.31605e-05
5.3161e-05
5.57472e-05
4.09086e-05
5.31593e-05
5.31597e-05
5.57304e-05
4.09083e-05
5.31593e-05
5.31607e-05
5.57429e-05
4.09089e-05
5.31607e-05
5.31618e-05
5.57429e-05
4.09086e-05
5.31591e-05
5.31595e-05
5.57312e-05
4.09087e-05
5.31606e-05
5.31615e-05
5.57471e-05
4.0909e-05
5.3161e-05
5.31613e-05
5.57389e-05
4.0909e-05
5.31604e-05
5.31614e-05
5.57326e-05
4.09091e-05
5.31606e-05
5.3161e-05
5.57366e-05
4.0909e-05
5.31598e-05
5.31611e-05
5.57466e-05
4.09096e-05
5.3162e-05
5.31623e-05
5.57431e-05
4.09092e-05
5.31597e-05
5.31607e-05
5.57314e-05
4.09093e-05
5.31614e-05
5.31619e-05
5.57471e-05
4.09094e-05
5.31608e-05
5.3162e-05
5.57393e-05
4.09092e-05
5.31605e-05
5.31611e-05
5.57335e-05
4.09091e-05
5.31608e-05
5.31615e-05
5.57468e-05
4.09091e-05
5.31608e-05
5.31616e-05
5.57424e-05
4.09091e-05
5.31607e-05
5.31614e-05
5.57322e-05
4.09092e-05
5.31614e-05
5.3162e-05
5.57436e-05
4.09095e-05
5.31624e-05
5.3163e-05
5.57449e-05
4.09096e-05
5.31633e-05
5.31638e-05
5.57334e-05
4.08983e-05
5.31444e-05
5.31447e-05
5.57331e-05
4.04361e-05
5.19247e-05
5.19237e-05
5.53362e-05
3.63068e-05
3.6291e-05
3.6291e-05
3.63068e-05
3.6291e-05
3.6291e-05
3.6423e-05
3.6423e-05
3.6423e-05
3.6423e-05
3.6291e-05
3.6291e-05
3.63068e-05
3.6291e-05
3.6291e-05
3.63068e-05
3.59957e-05
3.42687e-05
3.58912e-05
3.58912e-05
3.43767e-05
3.43766e-05
3.59957e-05
3.42687e-05
3.58911e-05
3.58912e-05
3.43767e-05
3.43766e-05
3.58912e-05
3.43767e-05
3.43767e-05
3.59957e-05
3.42687e-05
3.58912e-05
3.43767e-05
3.43767e-05
3.42687e-05
3.39623e-05
3.22635e-05
3.38889e-05
3.38889e-05
3.24684e-05
3.24683e-05
3.39623e-05
3.22635e-05
3.38889e-05
3.38889e-05
3.24684e-05
3.24683e-05
3.38889e-05
3.24685e-05
3.24684e-05
3.39623e-05
3.22634e-05
3.38889e-05
3.24685e-05
3.24684e-05
3.22634e-05
3.19522e-05
3.02993e-05
3.20079e-05
3.20078e-05
3.06643e-05
3.06642e-05
3.19522e-05
3.02994e-05
3.2008e-05
3.20078e-05
3.06644e-05
3.06641e-05
3.20079e-05
3.06646e-05
3.06643e-05
3.19522e-05
3.02992e-05
3.2008e-05
3.06645e-05
3.06644e-05
3.02992e-05
2.99885e-05
2.84253e-05
3.0229e-05
3.02288e-05
2.89624e-05
2.89622e-05
2.99886e-05
2.84255e-05
3.02291e-05
3.02287e-05
2.89626e-05
2.89621e-05
3.02289e-05
2.89628e-05
2.89623e-05
2.99884e-05
2.84252e-05
3.02291e-05
2.89627e-05
2.89626e-05
2.84252e-05
2.81227e-05
2.6674e-05
2.85536e-05
2.85534e-05
2.7368e-05
2.73678e-05
2.81228e-05
2.66742e-05
2.85538e-05
2.85533e-05
2.73683e-05
2.73676e-05
2.85535e-05
2.73685e-05
2.73679e-05
2.81226e-05
2.66739e-05
2.85538e-05
2.73684e-05
2.73683e-05
2.66738e-05
2.63908e-05
2.50663e-05
2.69866e-05
2.69864e-05
2.58841e-05
2.58838e-05
2.63909e-05
2.50665e-05
2.6987e-05
2.69862e-05
2.58845e-05
2.58836e-05
2.69865e-05
2.58848e-05
2.5884e-05
2.63907e-05
2.50661e-05
2.69869e-05
2.58846e-05
2.58844e-05
2.50661e-05
2.48075e-05
2.36125e-05
2.55304e-05
2.55301e-05
2.45103e-05
2.45099e-05
2.48077e-05
2.36127e-05
2.55308e-05
2.55299e-05
2.45107e-05
2.45097e-05
2.55302e-05
2.45111e-05
2.45102e-05
2.48074e-05
2.36123e-05
2.55307e-05
2.45108e-05
2.45107e-05
2.36123e-05
2.33784e-05
2.23125e-05
2.41842e-05
2.41838e-05
2.32479e-05
2.32475e-05
2.33786e-05
2.23126e-05
2.41847e-05
2.41836e-05
2.32484e-05
2.32473e-05
2.41841e-05
2.32488e-05
2.32477e-05
2.33783e-05
2.23122e-05
2.41846e-05
2.32485e-05
2.32484e-05
2.23122e-05
2.2105e-05
2.11681e-05
2.29497e-05
2.29494e-05
2.20965e-05
2.20962e-05
2.21051e-05
2.11683e-05
2.29503e-05
2.29491e-05
2.20972e-05
2.2096e-05
2.29496e-05
2.20976e-05
2.20965e-05
2.21047e-05
2.1168e-05
2.29503e-05
2.20973e-05
2.20972e-05
2.11678e-05
2.09863e-05
2.01708e-05
2.18259e-05
2.18255e-05
2.10542e-05
2.10538e-05
2.09865e-05
2.0171e-05
2.18266e-05
2.18253e-05
2.10549e-05
2.10536e-05
2.18258e-05
2.10552e-05
2.10541e-05
2.09861e-05
2.01705e-05
2.18265e-05
2.1055e-05
2.10549e-05
2.01704e-05
2.00136e-05
1.93148e-05
2.08103e-05
2.081e-05
2.0118e-05
2.01177e-05
2.00136e-05
1.93147e-05
2.08111e-05
2.08097e-05
2.01188e-05
2.01174e-05
2.08103e-05
2.01191e-05
2.01179e-05
2.00135e-05
1.93145e-05
2.08111e-05
2.01189e-05
2.01188e-05
1.93145e-05
1.91826e-05
1.85906e-05
1.99003e-05
1.99e-05
1.92855e-05
1.92852e-05
1.91824e-05
1.85903e-05
1.99011e-05
1.98997e-05
1.92864e-05
1.92849e-05
1.99002e-05
1.92866e-05
1.92854e-05
1.91811e-05
1.85888e-05
1.99011e-05
1.92864e-05
1.92863e-05
1.85885e-05
1.84901e-05
1.79989e-05
1.90937e-05
1.90933e-05
1.85547e-05
1.85543e-05
1.84897e-05
1.79985e-05
1.90945e-05
1.90933e-05
1.85555e-05
1.85542e-05
1.90936e-05
1.85556e-05
1.85544e-05
1.84896e-05
1.79988e-05
1.90945e-05
1.85556e-05
1.85553e-05
1.79971e-05
1.79352e-05
1.75374e-05
1.83877e-05
1.83872e-05
1.79211e-05
1.79212e-05
1.79338e-05
1.75401e-05
1.83886e-05
1.83872e-05
1.79219e-05
1.79208e-05
1.83874e-05
1.79225e-05
1.79212e-05
1.79352e-05
1.75375e-05
1.83883e-05
1.79221e-05
1.79221e-05
1.7538e-05
1.7505e-05
1.72188e-05
1.77783e-05
1.77782e-05
1.73841e-05
1.73835e-05
1.7507e-05
1.72168e-05
1.77791e-05
1.77781e-05
1.73848e-05
1.73838e-05
1.77783e-05
1.73845e-05
1.73843e-05
1.75058e-05
1.72197e-05
1.77791e-05
1.7385e-05
1.73851e-05
1.72208e-05
1.72009e-05
1.70264e-05
1.72647e-05
1.72645e-05
1.69411e-05
1.69409e-05
1.71998e-05
1.70264e-05
1.72654e-05
1.72645e-05
1.69418e-05
1.69404e-05
1.72647e-05
1.69418e-05
1.69411e-05
1.72021e-05
1.70254e-05
1.72655e-05
1.69414e-05
1.69418e-05
1.70286e-05
1.70233e-05
1.6972e-05
1.68458e-05
1.68455e-05
1.6592e-05
1.65918e-05
1.70228e-05
1.69721e-05
1.68465e-05
1.68451e-05
1.65927e-05
1.6592e-05
1.68455e-05
1.65924e-05
1.65918e-05
1.70212e-05
1.69742e-05
1.68463e-05
1.65928e-05
1.65925e-05
1.69725e-05
1.69814e-05
1.70436e-05
1.65204e-05
1.65202e-05
1.63369e-05
1.63366e-05
1.69807e-05
1.70431e-05
1.6521e-05
1.65205e-05
1.63375e-05
1.63363e-05
1.65204e-05
1.6337e-05
1.63364e-05
1.69819e-05
1.70419e-05
1.65211e-05
1.63369e-05
1.63371e-05
1.70428e-05
1.70791e-05
1.72441e-05
1.62891e-05
1.62889e-05
1.61754e-05
1.61751e-05
1.70779e-05
1.72433e-05
1.62897e-05
1.62891e-05
1.61759e-05
1.6175e-05
1.62892e-05
1.61753e-05
1.61748e-05
1.70767e-05
1.72423e-05
1.62899e-05
1.61754e-05
1.61754e-05
1.72417e-05
1.73042e-05
1.75727e-05
1.61514e-05
1.61514e-05
1.61072e-05
1.61072e-05
1.73027e-05
1.75724e-05
1.6152e-05
1.61518e-05
1.61077e-05
1.61074e-05
1.61516e-05
1.61071e-05
1.61069e-05
1.73016e-05
1.75715e-05
1.61522e-05
1.61074e-05
1.61074e-05
1.7571e-05
1.76575e-05
1.80251e-05
1.61072e-05
1.61073e-05
1.61328e-05
1.61334e-05
1.76562e-05
1.80258e-05
1.61078e-05
1.61076e-05
1.61333e-05
1.61333e-05
1.6107e-05
1.6133e-05
1.6133e-05
1.7655e-05
1.80259e-05
1.61076e-05
1.61331e-05
1.61335e-05
1.80267e-05
1.8134e-05
1.8597e-05
1.61534e-05
1.61538e-05
1.62489e-05
1.62494e-05
1.81343e-05
1.85965e-05
1.61539e-05
1.61536e-05
1.62493e-05
1.62496e-05
1.61534e-05
1.62487e-05
1.62491e-05
1.8132e-05
1.85992e-05
1.61539e-05
1.62492e-05
1.62495e-05
1.85988e-05
1.87286e-05
1.92755e-05
1.62921e-05
1.62925e-05
1.6455e-05
1.64556e-05
1.8728e-05
1.92748e-05
1.62926e-05
1.62926e-05
1.64553e-05
1.64562e-05
1.62919e-05
1.64547e-05
1.64554e-05
1.87289e-05
1.92775e-05
1.62924e-05
1.64555e-05
1.64558e-05
1.92768e-05
1.94276e-05
2.00493e-05
1.65205e-05
1.65211e-05
1.67491e-05
1.67497e-05
1.94272e-05
2.00481e-05
1.65209e-05
1.65214e-05
1.67493e-05
1.67505e-05
1.65207e-05
1.67485e-05
1.67497e-05
1.94293e-05
2.00505e-05
1.65211e-05
1.67495e-05
1.675e-05
2.00501e-05
2.02201e-05
2.0906e-05
1.68362e-05
1.68369e-05
1.71282e-05
1.71288e-05
2.02192e-05
2.0905e-05
1.68364e-05
1.68375e-05
1.71282e-05
1.71296e-05
1.68367e-05
1.71273e-05
1.71287e-05
2.02215e-05
2.09069e-05
1.68371e-05
1.71284e-05
1.71289e-05
2.09066e-05
2.10932e-05
2.18335e-05
1.7236e-05
1.72367e-05
1.75891e-05
1.75897e-05
2.10921e-05
2.18325e-05
1.72361e-05
1.72375e-05
1.75889e-05
1.75905e-05
1.72367e-05
1.75879e-05
1.75895e-05
2.10944e-05
2.18342e-05
1.72369e-05
1.7589e-05
1.75896e-05
2.18342e-05
2.20344e-05
2.28167e-05
1.77166e-05
1.77172e-05
1.81277e-05
1.81285e-05
2.20333e-05
2.28158e-05
1.77164e-05
1.77182e-05
1.81273e-05
1.81291e-05
1.77171e-05
1.81264e-05
1.81283e-05
2.20352e-05
2.28178e-05
1.77172e-05
1.81274e-05
1.81282e-05
2.28183e-05
2.30294e-05
2.38413e-05
1.8274e-05
1.82747e-05
1.87393e-05
1.87399e-05
2.30285e-05
2.38401e-05
1.82736e-05
1.82754e-05
1.87386e-05
1.87411e-05
1.82745e-05
1.87376e-05
1.87402e-05
2.30299e-05
2.38435e-05
1.82743e-05
1.87391e-05
1.87398e-05
2.38436e-05
2.4063e-05
2.48962e-05
1.89033e-05
1.89039e-05
1.94196e-05
1.94203e-05
2.40618e-05
2.4895e-05
1.89026e-05
1.89048e-05
1.94185e-05
1.94215e-05
1.89041e-05
1.94176e-05
1.94205e-05
2.40647e-05
2.48978e-05
1.89036e-05
1.94193e-05
1.94198e-05
2.48977e-05
2.51238e-05
2.59678e-05
1.95996e-05
1.96001e-05
2.01626e-05
2.01635e-05
2.51228e-05
2.59665e-05
1.95987e-05
1.96016e-05
2.01613e-05
2.01642e-05
1.96005e-05
2.01606e-05
2.01638e-05
2.51259e-05
2.59685e-05
1.95998e-05
2.01619e-05
2.01629e-05
2.59698e-05
2.62001e-05
2.70463e-05
2.03577e-05
2.03584e-05
2.09631e-05
2.09631e-05
2.61991e-05
2.70439e-05
2.03565e-05
2.03596e-05
2.09614e-05
2.09647e-05
2.03589e-05
2.096e-05
2.09638e-05
2.62008e-05
2.7048e-05
2.03579e-05
2.09622e-05
2.09625e-05
2.70475e-05
2.72803e-05
2.81246e-05
2.11711e-05
2.11716e-05
2.18152e-05
2.18158e-05
2.72783e-05
2.8124e-05
2.11695e-05
2.1173e-05
2.18132e-05
2.18166e-05
2.11723e-05
2.18128e-05
2.18168e-05
2.72816e-05
2.81261e-05
2.1171e-05
2.18141e-05
2.18152e-05
2.81276e-05
2.83603e-05
2.91923e-05
2.20357e-05
2.20353e-05
2.2711e-05
2.27115e-05
2.83585e-05
2.9191e-05
2.20337e-05
2.20367e-05
2.27087e-05
2.27133e-05
2.20364e-05
2.27083e-05
2.27125e-05
2.83609e-05
2.9195e-05
2.20347e-05
2.27106e-05
2.27107e-05
2.91945e-05
2.94259e-05
3.02507e-05
2.29413e-05
2.29425e-05
2.36467e-05
2.36463e-05
2.94263e-05
3.0248e-05
2.29392e-05
2.29437e-05
2.36441e-05
2.36479e-05
2.29437e-05
2.36431e-05
2.36479e-05
2.9429e-05
3.02512e-05
2.29418e-05
2.36454e-05
2.36458e-05
3.02522e-05
3.0483e-05
3.12899e-05
2.38857e-05
2.3885e-05
2.4614e-05
2.46143e-05
3.04795e-05
3.1289e-05
2.38833e-05
2.38875e-05
2.46113e-05
2.46154e-05
2.38866e-05
2.46111e-05
2.46159e-05
3.04837e-05
3.12915e-05
2.38844e-05
2.46127e-05
2.46134e-05
3.12927e-05
3.1519e-05
3.23095e-05
2.486e-05
2.48603e-05
2.56058e-05
2.56058e-05
3.15186e-05
3.23077e-05
2.48574e-05
2.48611e-05
2.5603e-05
2.56078e-05
2.4862e-05
2.56027e-05
2.5608e-05
3.15196e-05
3.23115e-05
2.48597e-05
2.56051e-05
2.56055e-05
3.23119e-05
3.25351e-05
3.33097e-05
2.58577e-05
2.58577e-05
2.66193e-05
2.66188e-05
3.25333e-05
3.33078e-05
2.58551e-05
2.58598e-05
2.66162e-05
2.66208e-05
2.586e-05
2.66157e-05
2.6621e-05
3.25374e-05
3.33108e-05
2.58571e-05
2.66185e-05
2.66186e-05
3.33117e-05
3.3531e-05
3.42846e-05
2.68742e-05
2.68737e-05
2.76445e-05
2.76447e-05
3.35292e-05
3.42835e-05
2.68713e-05
2.68757e-05
2.76416e-05
2.76458e-05
2.6876e-05
2.76419e-05
2.76471e-05
3.35317e-05
3.4286e-05
2.68737e-05
2.76436e-05
2.76438e-05
3.42871e-05
3.45017e-05
3.52368e-05
2.79024e-05
2.79021e-05
2.86762e-05
2.86759e-05
3.45005e-05
3.52348e-05
2.78999e-05
2.7904e-05
2.86731e-05
2.86778e-05
2.79048e-05
2.8673e-05
2.86789e-05
3.45029e-05
3.52381e-05
2.79023e-05
2.86757e-05
2.86762e-05
3.52394e-05
3.54479e-05
3.61652e-05
2.89351e-05
2.89355e-05
2.97122e-05
2.97116e-05
3.5447e-05
3.61629e-05
2.8932e-05
2.89366e-05
2.97095e-05
2.9714e-05
2.89381e-05
2.97091e-05
2.9715e-05
3.54492e-05
3.61664e-05
2.89346e-05
2.97121e-05
2.9712e-05
3.61671e-05
3.63722e-05
3.70671e-05
2.99712e-05
2.99699e-05
3.07454e-05
3.07458e-05
3.63689e-05
3.70667e-05
2.9969e-05
2.99726e-05
3.07429e-05
3.07467e-05
2.99736e-05
3.07432e-05
3.07483e-05
3.63727e-05
3.70679e-05
2.99711e-05
3.07455e-05
3.07458e-05
3.70693e-05
3.72667e-05
3.79443e-05
3.10013e-05
3.10021e-05
3.17708e-05
3.17702e-05
3.72672e-05
3.79418e-05
3.09989e-05
3.10032e-05
3.1768e-05
3.17724e-05
3.10048e-05
3.1768e-05
3.17742e-05
3.72682e-05
3.79452e-05
3.10021e-05
3.1771e-05
3.17714e-05
3.79469e-05
3.81416e-05
3.87952e-05
3.20294e-05
3.20288e-05
3.27844e-05
3.27846e-05
3.81392e-05
3.87935e-05
3.20268e-05
3.20305e-05
3.27824e-05
3.27858e-05
3.20325e-05
3.27824e-05
3.27879e-05
3.8142e-05
3.87957e-05
3.20296e-05
3.27849e-05
3.2785e-05
3.87968e-05
3.8982e-05
3.96336e-05
3.30324e-05
3.30321e-05
3.37966e-05
3.37966e-05
3.89803e-05
3.96323e-05
3.30304e-05
3.3034e-05
3.37945e-05
3.37983e-05
3.30356e-05
3.37944e-05
3.37999e-05
3.89827e-05
3.96346e-05
3.30329e-05
3.37976e-05
3.37977e-05
3.96362e-05
3.98186e-05
4.04136e-05
3.40438e-05
3.40447e-05
3.47557e-05
3.47547e-05
3.98177e-05
4.0411e-05
3.40424e-05
3.40452e-05
3.4753e-05
3.47565e-05
3.40482e-05
3.47529e-05
3.47585e-05
3.98195e-05
4.0413e-05
3.40459e-05
3.47554e-05
3.47557e-05
4.04148e-05
4.0598e-05
4.12295e-05
3.50095e-05
3.50068e-05
3.57522e-05
3.57552e-05
4.0595e-05
4.12304e-05
3.50062e-05
3.50105e-05
3.57518e-05
3.57537e-05
3.50102e-05
3.57532e-05
3.57584e-05
4.05975e-05
4.12316e-05
3.50075e-05
3.57556e-05
3.57567e-05
4.1234e-05
4.13871e-05
4.1929e-05
3.59734e-05
3.59784e-05
3.66499e-05
3.66455e-05
4.13894e-05
4.19225e-05
3.5974e-05
3.59754e-05
3.66461e-05
3.66505e-05
3.59822e-05
3.6643e-05
3.66495e-05
4.13894e-05
4.1927e-05
3.59802e-05
3.66478e-05
3.66469e-05
4.19266e-05
4.21249e-05
4.27748e-05
3.69032e-05
3.68968e-05
3.76471e-05
3.76488e-05
4.21158e-05
4.27802e-05
3.68987e-05
3.6901e-05
3.76454e-05
3.76503e-05
3.68998e-05
3.76513e-05
3.76513e-05
4.21213e-05
4.27793e-05
3.68982e-05
3.76491e-05
3.76484e-05
4.27815e-05
4.28981e-05
4.32484e-05
3.78616e-05
3.78668e-05
3.84036e-05
3.84091e-05
4.29067e-05
4.32427e-05
3.78615e-05
3.78684e-05
3.84059e-05
3.84015e-05
3.78702e-05
3.84011e-05
3.84145e-05
4.29052e-05
4.32445e-05
3.78662e-05
3.84104e-05
3.84167e-05
4.32526e-05
4.34539e-05
4.43692e-05
3.8624e-05
3.8618e-05
3.95261e-05
3.95155e-05
4.34407e-05
4.43676e-05
3.86195e-05
3.86175e-05
3.95197e-05
3.95296e-05
3.86212e-05
3.95174e-05
3.95166e-05
4.34438e-05
4.43729e-05
3.86222e-05
3.95179e-05
3.95094e-05
4.43663e-05
4.44815e-05
4.44118e-05
3.97889e-05
3.97917e-05
4.00482e-05
4.00678e-05
4.44855e-05
4.44224e-05
3.97894e-05
3.97935e-05
4.00552e-05
4.00487e-05
3.97953e-05
4.00606e-05
4.00744e-05
4.44881e-05
4.44127e-05
3.97908e-05
4.00656e-05
4.00769e-05
4.44322e-05
4.44674e-05
4.62787e-05
4.013e-05
4.01427e-05
4.14925e-05
4.1476e-05
4.4475e-05
4.62675e-05
4.01334e-05
4.01293e-05
4.14881e-05
4.1499e-05
4.01474e-05
4.1482e-05
4.14768e-05
4.44648e-05
4.62847e-05
4.01495e-05
4.14864e-05
4.14743e-05
4.62702e-05
4.64907e-05
4.505e-05
4.18383e-05
4.18371e-05
4.1718e-05
4.17298e-05
4.64842e-05
4.50566e-05
4.18405e-05
4.18433e-05
4.1721e-05
4.17156e-05
4.18432e-05
4.17181e-05
4.17381e-05
4.64994e-05
4.50505e-05
4.18426e-05
4.17281e-05
4.17384e-05
4.50755e-05
4.48373e-05
4.68821e-05
4.15682e-05
4.15767e-05
4.23255e-05
4.23196e-05
4.48434e-05
4.68825e-05
4.15676e-05
4.15642e-05
4.23157e-05
4.23226e-05
4.15815e-05
4.23304e-05
4.23131e-05
4.48349e-05
4.68736e-05
4.15807e-05
4.23137e-05
4.23085e-05
4.68413e-05
4.85038e-05
5.35169e-05
4.42182e-05
4.42033e-05
4.78475e-05
4.78455e-05
4.85055e-05
5.3508e-05
4.42039e-05
4.42172e-05
4.78481e-05
4.7847e-05
4.41909e-05
4.78399e-05
4.78541e-05
4.84982e-05
5.35176e-05
4.41847e-05
4.78513e-05
4.78539e-05
5.35304e-05
5.35539e-05
4.72497e-05
4.79013e-05
4.78989e-05
4.5002e-05
4.49966e-05
5.35443e-05
4.72428e-05
4.79023e-05
4.79008e-05
4.50035e-05
4.50046e-05
4.79082e-05
4.49928e-05
4.50034e-05
5.35545e-05
4.72536e-05
4.79079e-05
4.50057e-05
4.50018e-05
4.72491e-05
4.61089e-05
4.13878e-05
4.30662e-05
4.30645e-05
3.95893e-05
3.95959e-05
4.61064e-05
4.14002e-05
4.30673e-05
4.30696e-05
3.95914e-05
3.95928e-05
4.30685e-05
3.96013e-05
3.95962e-05
4.61134e-05
4.13919e-05
4.30678e-05
3.95964e-05
3.95988e-05
4.13956e-05
4.12631e-05
4.31742e-05
3.92677e-05
3.9275e-05
3.98338e-05
3.98404e-05
4.12756e-05
4.31767e-05
3.92702e-05
3.92709e-05
3.98366e-05
3.9836e-05
3.92754e-05
3.98437e-05
3.98417e-05
4.12668e-05
4.31743e-05
3.92786e-05
3.98411e-05
3.9845e-05
4.31787e-05
4.41873e-05
4.92751e-05
4.13414e-05
4.13456e-05
4.61014e-05
4.60989e-05
4.41869e-05
4.92694e-05
4.13439e-05
4.13421e-05
4.60995e-05
4.60996e-05
4.13478e-05
4.60959e-05
4.6101e-05
4.41867e-05
4.92734e-05
4.13501e-05
4.61004e-05
4.60982e-05
4.92733e-05
5.01588e-05
5.3646e-05
4.74506e-05
4.74473e-05
5.06448e-05
5.0642e-05
5.01541e-05
5.36453e-05
4.74475e-05
4.74486e-05
5.06404e-05
5.06438e-05
4.7449e-05
5.06426e-05
5.06431e-05
5.01573e-05
5.36455e-05
4.74456e-05
5.06414e-05
5.06406e-05
5.36447e-05
5.41515e-05
5.55892e-05
5.14034e-05
5.14011e-05
5.28107e-05
5.28106e-05
5.41515e-05
5.55907e-05
5.13994e-05
5.14027e-05
5.28091e-05
5.28115e-05
5.14025e-05
5.28134e-05
5.28133e-05
5.4151e-05
5.55903e-05
5.14008e-05
5.2812e-05
5.28133e-05
5.55919e-05
5.57424e-05
5.59e-05
5.30376e-05
5.30383e-05
5.32715e-05
5.32731e-05
5.57442e-05
5.59017e-05
5.30369e-05
5.30388e-05
5.32724e-05
5.32728e-05
5.30413e-05
5.32748e-05
5.32766e-05
5.57439e-05
5.5902e-05
5.30417e-05
5.32761e-05
5.32775e-05
5.59048e-05
5.5911e-05
5.57198e-05
5.32738e-05
5.32754e-05
5.31854e-05
5.3186e-05
5.59125e-05
5.57184e-05
5.32748e-05
5.3275e-05
5.31868e-05
5.31851e-05
5.32789e-05
5.31869e-05
5.31894e-05
5.59128e-05
5.57189e-05
5.32798e-05
5.31894e-05
5.31902e-05
5.57217e-05
5.57243e-05
5.56174e-05
5.31397e-05
5.31398e-05
5.3067e-05
5.30668e-05
5.57227e-05
5.56157e-05
5.3141e-05
5.3139e-05
5.30676e-05
5.30665e-05
5.3143e-05
5.30682e-05
5.30696e-05
5.57232e-05
5.56162e-05
5.31437e-05
5.30699e-05
5.30703e-05
5.56182e-05
5.5632e-05
5.56464e-05
5.3062e-05
5.3062e-05
5.30757e-05
5.30769e-05
5.56304e-05
5.56483e-05
5.30625e-05
5.30619e-05
5.30758e-05
5.3077e-05
5.30648e-05
5.3079e-05
5.30793e-05
5.56309e-05
5.56486e-05
5.30654e-05
5.30799e-05
5.30801e-05
5.565e-05
5.5675e-05
5.56979e-05
5.30933e-05
5.30949e-05
5.31328e-05
5.31346e-05
5.56772e-05
5.57e-05
5.30935e-05
5.30949e-05
5.31329e-05
5.31341e-05
5.30974e-05
5.31366e-05
5.31372e-05
5.56774e-05
5.56997e-05
5.30982e-05
5.31373e-05
5.31379e-05
5.57017e-05
5.57208e-05
5.57226e-05
5.31417e-05
5.31434e-05
5.31568e-05
5.31573e-05
5.57227e-05
5.57232e-05
5.31419e-05
5.31427e-05
5.31569e-05
5.31565e-05
5.31459e-05
5.3159e-05
5.31599e-05
5.57223e-05
5.57226e-05
5.31466e-05
5.31596e-05
5.31604e-05
5.57249e-05
5.5742e-05
5.57165e-05
5.31581e-05
5.31584e-05
5.31579e-05
5.31581e-05
5.57423e-05
5.57149e-05
5.31583e-05
5.31577e-05
5.31581e-05
5.31576e-05
5.3161e-05
5.31598e-05
5.31608e-05
5.57417e-05
5.57153e-05
5.31615e-05
5.31606e-05
5.31614e-05
5.57173e-05
5.57325e-05
5.5724e-05
5.31576e-05
5.31581e-05
5.31581e-05
5.31596e-05
5.57313e-05
5.57261e-05
5.31578e-05
5.31576e-05
5.31583e-05
5.31589e-05
5.31608e-05
5.31614e-05
5.31623e-05
5.57317e-05
5.57261e-05
5.31614e-05
5.31621e-05
5.31629e-05
5.57281e-05
5.57445e-05
5.57125e-05
5.31588e-05
5.31603e-05
5.31586e-05
5.31595e-05
5.57464e-05
5.57136e-05
5.3159e-05
5.31595e-05
5.31588e-05
5.31587e-05
5.31629e-05
5.31613e-05
5.3162e-05
5.57462e-05
5.57128e-05
5.31635e-05
5.31617e-05
5.31625e-05
5.57153e-05
5.57319e-05
5.57198e-05
5.31585e-05
5.31591e-05
5.31576e-05
5.31585e-05
5.57318e-05
5.57214e-05
5.31587e-05
5.31584e-05
5.31579e-05
5.31582e-05
5.31617e-05
5.31602e-05
5.31613e-05
5.57312e-05
5.57227e-05
5.31622e-05
5.31613e-05
5.31618e-05
5.57251e-05
5.5734e-05
5.57245e-05
5.31574e-05
5.31584e-05
5.3158e-05
5.31588e-05
5.57355e-05
5.57261e-05
5.31577e-05
5.31581e-05
5.31582e-05
5.31582e-05
5.31611e-05
5.31606e-05
5.31613e-05
5.57367e-05
5.57259e-05
5.31616e-05
5.31613e-05
5.31618e-05
5.57268e-05
5.57449e-05
5.57099e-05
5.3158e-05
5.31587e-05
5.31564e-05
5.31573e-05
5.5746e-05
5.571e-05
5.31583e-05
5.31578e-05
5.31567e-05
5.31562e-05
5.31612e-05
5.31591e-05
5.31597e-05
5.57456e-05
5.57089e-05
5.31617e-05
5.31594e-05
5.31603e-05
5.57118e-05
5.57281e-05
5.57246e-05
5.31565e-05
5.31574e-05
5.31574e-05
5.31584e-05
5.57295e-05
5.57249e-05
5.31568e-05
5.31564e-05
5.31576e-05
5.31581e-05
5.31598e-05
5.31601e-05
5.3161e-05
5.57285e-05
5.57263e-05
5.31604e-05
5.31613e-05
5.31616e-05
5.57279e-05
5.57391e-05
5.57185e-05
5.31565e-05
5.31575e-05
5.31572e-05
5.31582e-05
5.57392e-05
5.57198e-05
5.31568e-05
5.31575e-05
5.31575e-05
5.3158e-05
5.31602e-05
5.316e-05
5.31608e-05
5.57415e-05
5.57192e-05
5.31608e-05
5.31612e-05
5.31613e-05
5.57203e-05
5.57408e-05
5.57128e-05
5.31581e-05
5.31589e-05
5.31565e-05
5.31572e-05
5.57419e-05
5.57129e-05
5.31583e-05
5.31586e-05
5.31567e-05
5.31564e-05
5.31615e-05
5.3159e-05
5.31596e-05
5.57417e-05
5.57127e-05
5.31621e-05
5.31595e-05
5.31601e-05
5.57155e-05
5.57288e-05
5.57261e-05
5.31564e-05
5.31572e-05
5.31578e-05
5.31591e-05
5.57291e-05
5.57276e-05
5.31567e-05
5.31563e-05
5.31582e-05
5.31585e-05
5.31595e-05
5.31611e-05
5.31614e-05
5.57286e-05
5.57271e-05
5.316e-05
5.31618e-05
5.3162e-05
5.57288e-05
5.57427e-05
5.57178e-05
5.31571e-05
5.31585e-05
5.31576e-05
5.31583e-05
5.57451e-05
5.57157e-05
5.31575e-05
5.31582e-05
5.31577e-05
5.31575e-05
5.3161e-05
5.31603e-05
5.31607e-05
5.57456e-05
5.57133e-05
5.31616e-05
5.31606e-05
5.31611e-05
5.57162e-05
5.57404e-05
5.57122e-05
5.31581e-05
5.3159e-05
5.31572e-05
5.31581e-05
5.57387e-05
5.57138e-05
5.31583e-05
5.3158e-05
5.31574e-05
5.31575e-05
5.31613e-05
5.31602e-05
5.31605e-05
5.57349e-05
5.57145e-05
5.31616e-05
5.31609e-05
5.3161e-05
5.57151e-05
5.5731e-05
5.57162e-05
5.31574e-05
5.31583e-05
5.31573e-05
5.31583e-05
5.57315e-05
5.57181e-05
5.31577e-05
5.31579e-05
5.31575e-05
5.31578e-05
5.31608e-05
5.31604e-05
5.3161e-05
5.57311e-05
5.57214e-05
5.31613e-05
5.31612e-05
5.31614e-05
5.57224e-05
5.57312e-05
5.5726e-05
5.31572e-05
5.31582e-05
5.31575e-05
5.31586e-05
5.57329e-05
5.57272e-05
5.31575e-05
5.31574e-05
5.31579e-05
5.31581e-05
5.3161e-05
5.3161e-05
5.31614e-05
5.57354e-05
5.57259e-05
5.31613e-05
5.31615e-05
5.31619e-05
5.57289e-05
5.5741e-05
5.57215e-05
5.3157e-05
5.3158e-05
5.31587e-05
5.31596e-05
5.57424e-05
5.57213e-05
5.31573e-05
5.31578e-05
5.31588e-05
5.31585e-05
5.31604e-05
5.3161e-05
5.31616e-05
5.5745e-05
5.57159e-05
5.31611e-05
5.31618e-05
5.31621e-05
5.57198e-05
5.57433e-05
5.57113e-05
5.3159e-05
5.31599e-05
5.31562e-05
5.31571e-05
5.57436e-05
5.57126e-05
5.31592e-05
5.3159e-05
5.31569e-05
5.3157e-05
5.31625e-05
5.31597e-05
5.316e-05
5.57393e-05
5.57139e-05
5.31626e-05
5.31603e-05
5.31602e-05
5.57153e-05
5.57285e-05
5.57266e-05
5.31566e-05
5.31575e-05
5.31586e-05
5.31596e-05
5.57293e-05
5.57279e-05
5.31574e-05
5.31574e-05
5.31585e-05
5.31588e-05
5.316e-05
5.31613e-05
5.3162e-05
5.573e-05
5.57277e-05
5.31605e-05
5.31624e-05
5.31626e-05
5.57296e-05
5.57429e-05
5.57161e-05
5.31582e-05
5.31593e-05
5.31572e-05
5.31581e-05
5.57451e-05
5.57147e-05
5.31581e-05
5.31584e-05
5.31579e-05
5.31578e-05
5.31621e-05
5.31601e-05
5.31608e-05
5.57443e-05
5.5716e-05
5.31623e-05
5.31608e-05
5.3161e-05
5.5716e-05
5.57393e-05
5.57137e-05
5.31582e-05
5.31591e-05
5.31573e-05
5.31584e-05
5.5738e-05
5.57157e-05
5.31587e-05
5.31588e-05
5.31577e-05
5.31579e-05
5.31616e-05
5.31602e-05
5.31612e-05
5.57393e-05
5.57151e-05
5.31621e-05
5.3161e-05
5.31615e-05
5.57182e-05
5.57294e-05
5.57268e-05
5.31575e-05
5.31586e-05
5.31575e-05
5.31585e-05
5.57312e-05
5.57273e-05
5.31579e-05
5.3158e-05
5.3158e-05
5.3158e-05
5.31614e-05
5.31602e-05
5.31613e-05
5.57306e-05
5.57273e-05
5.31616e-05
5.3161e-05
5.31616e-05
5.57295e-05
5.57434e-05
5.57168e-05
5.3158e-05
5.31589e-05
5.31568e-05
5.31578e-05
5.57442e-05
5.57176e-05
5.31584e-05
5.31584e-05
5.31572e-05
5.31573e-05
5.31618e-05
5.31596e-05
5.31606e-05
5.57441e-05
5.57176e-05
5.31621e-05
5.31603e-05
5.3161e-05
5.57192e-05
5.57396e-05
5.5713e-05
5.3158e-05
5.3159e-05
5.31567e-05
5.31575e-05
5.57404e-05
5.57134e-05
5.31584e-05
5.31585e-05
5.3157e-05
5.3157e-05
5.31618e-05
5.31593e-05
5.31602e-05
5.57403e-05
5.57135e-05
5.31621e-05
5.316e-05
5.31605e-05
5.57156e-05
5.57297e-05
5.57249e-05
5.3158e-05
5.31589e-05
5.31567e-05
5.31576e-05
5.57303e-05
5.57253e-05
5.31583e-05
5.31583e-05
5.31571e-05
5.31571e-05
5.31616e-05
5.31594e-05
5.31603e-05
5.57303e-05
5.57257e-05
5.31618e-05
5.31601e-05
5.31606e-05
5.57279e-05
5.574e-05
5.57225e-05
5.31587e-05
5.31595e-05
5.31563e-05
5.31572e-05
5.57402e-05
5.57231e-05
5.3159e-05
5.3159e-05
5.31567e-05
5.31566e-05
5.31622e-05
5.3159e-05
5.31598e-05
5.57408e-05
5.57222e-05
5.31624e-05
5.31595e-05
5.316e-05
5.57229e-05
5.57436e-05
5.57133e-05
5.31596e-05
5.31605e-05
5.31559e-05
5.31567e-05
5.57443e-05
5.57131e-05
5.316e-05
5.316e-05
5.31563e-05
5.31562e-05
5.31632e-05
5.31585e-05
5.31592e-05
5.57437e-05
5.57129e-05
5.31634e-05
5.3159e-05
5.31594e-05
5.57144e-05
5.57345e-05
5.5713e-05
5.31606e-05
5.31615e-05
5.31545e-05
5.31554e-05
5.57338e-05
5.57147e-05
5.3161e-05
5.3161e-05
5.31549e-05
5.31549e-05
5.31639e-05
5.31571e-05
5.31579e-05
5.57329e-05
5.57153e-05
5.31641e-05
5.31576e-05
5.31581e-05
5.57195e-05
5.57284e-05
5.55172e-05
5.31418e-05
5.31426e-05
5.29729e-05
5.29742e-05
5.57291e-05
5.55189e-05
5.31422e-05
5.3142e-05
5.29749e-05
5.29723e-05
5.31448e-05
5.29777e-05
5.29756e-05
5.57295e-05
5.55179e-05
5.3145e-05
5.29767e-05
5.29775e-05
5.55205e-05
5.53342e-05
5.19196e-05
5.19206e-05
5.53347e-05
5.19218e-05
5.19188e-05
4.04377e-05
4.04368e-05
4.0439e-05
5.19221e-05
5.5334e-05
5.19243e-05
3.73773e-05
3.73765e-05
3.7377e-05
3.7377e-05
3.73701e-05
3.73777e-05
3.73043e-05
3.73768e-05
3.73702e-05
3.73777e-05
3.73768e-05
3.73043e-05
3.73741e-05
3.72959e-05
3.72959e-05
3.58798e-05
4.08721e-05
3.66033e-05
4.51467e-05
5.51147e-05
6.48951e-05
3.58803e-05
4.08712e-05
3.66034e-05
4.51466e-05
3.58932e-05
3.58933e-05
3.58932e-05
3.44005e-05
3.44005e-05
3.44005e-05
3.44005e-05
3.52758e-05
3.56384e-05
3.58929e-05
3.53771e-05
3.60475e-05
3.42365e-05
3.53822e-05
5.51168e-05
6.48994e-05
3.52758e-05
3.58929e-05
3.5638e-05
3.53771e-05
3.60475e-05
3.53822e-05
3.42375e-05
3.65971e-05
3.65977e-05
3.5279e-05
3.40641e-05
3.40633e-05
3.39657e-05
5.13534e-05
3.46793e-05
5.46248e-05
7.65447e-05
8.08614e-05
3.39682e-05
5.13543e-05
3.46789e-05
5.46254e-05
3.39296e-05
3.39297e-05
3.39297e-05
3.25854e-05
3.25854e-05
3.25855e-05
3.25855e-05