/*--------------------------------*- C++ -*----------------------------------*\
| =========                 |                                                 |
| \\      /  F ield         | OpenFOAM: The Open Source CFD Toolbox           |
|  \\    /   O peration     | Version:  v2012                                 |
|   \\  /    A nd           | Website:  www.openfoam.com                      |
|    \\/     M anipulation  |                                                 |
\*---------------------------------------------------------------------------*/
FoamFile
{
    version     2.0;
    format      ascii;
    class       volScalarField;
    location    "250";
    object      k;
}
// * * * * * * * * * * * * * * * * * * * * * * * * * * * * * * * * * * * * * //

dimensions      [0 2 -2 0 0 0 0];


internalField   nonuniform List<scalar> 
171728
(
8.74195e-07
3.45857e-07
4.51942e-07
3.47461e-07
8.65196e-07
3.30809e-07
3.83256e-07
3.29977e-07
8.76613e-07
3.19722e-07
3.20385e-07
3.13803e-07
8.88956e-07
3.08716e-07
2.78142e-07
2.99134e-07
9.01854e-07
3.03995e-07
2.5235e-07
2.86592e-07
9.15748e-07
3.04539e-07
2.4024e-07
2.76091e-07
9.30714e-07
3.13207e-07
2.3441e-07
2.67016e-07
9.46128e-07
3.42787e-07
2.30598e-07
2.58905e-07
9.62156e-07
4.01366e-07
2.29866e-07
2.50971e-07
9.78584e-07
5.18254e-07
2.36357e-07
2.44846e-07
9.96234e-07
7.04711e-07
2.57992e-07
2.396e-07
1.01594e-06
8.42246e-07
3.00735e-07
2.35013e-07
1.035e-06
8.5833e-07
3.71603e-07
2.31168e-07
1.05399e-06
6.23962e-07
4.44062e-07
2.28137e-07
1.06918e-06
3.87457e-07
4.72404e-07
2.27055e-07
1.08034e-06
2.91092e-07
4.46278e-07
2.2989e-07
1.08841e-06
2.73623e-07
3.7416e-07
2.38867e-07
1.09899e-06
2.77306e-07
3.41871e-07
2.60368e-07
1.11936e-06
3.1506e-07
3.70766e-07
3.01543e-07
1.13743e-06
3.74589e-07
4.14093e-07
3.95274e-07
1.15451e-06
4.42846e-07
4.73843e-07
5.24675e-07
1.1745e-06
5.634e-07
5.7271e-07
7.66378e-07
1.19589e-06
7.38342e-07
7.97469e-07
1.17884e-06
1.21814e-06
1.04567e-06
9.6635e-07
1.95751e-06
1.24429e-06
1.16028e-06
1.36644e-06
2.49361e-06
1.278e-06
1.85824e-06
1.75981e-06
6.01789e-06
1.31525e-06
2.27116e-06
2.1974e-06
6.03272e-06
1.34934e-06
2.83149e-06
3.03085e-06
7.63825e-06
1.41787e-06
3.67378e-06
3.52945e-06
1.12235e-05
1.45704e-06
4.701e-06
4.7304e-06
1.264e-05
1.57604e-06
5.24214e-06
5.60176e-06
1.60603e-05
1.61904e-06
7.21169e-06
6.80168e-06
1.76173e-05
1.7783e-06
7.46622e-06
7.84808e-06
1.935e-05
1.9161e-06
9.81071e-06
9.60642e-06
2.28151e-05
2.04674e-06
1.08284e-05
1.08053e-05
2.3532e-05
2.30219e-06
1.24104e-05
1.23541e-05
2.56397e-05
2.55202e-06
1.4061e-05
1.42745e-05
2.69373e-05
2.90312e-06
1.60586e-05
1.57873e-05
2.87133e-05
3.30149e-06
1.75914e-05
1.79328e-05
2.97559e-05
3.68784e-06
1.95368e-05
1.93765e-05
3.12534e-05
4.38514e-06
2.15081e-05
2.15019e-05
3.244e-05
4.84254e-06
2.31153e-05
2.32562e-05
3.34254e-05
5.70955e-06
2.50872e-05
2.49836e-05
3.48099e-05
6.4159e-06
2.68758e-05
2.68647e-05
3.57688e-05
7.42354e-06
2.85196e-05
2.86191e-05
3.6978e-05
8.48373e-06
3.01518e-05
2.98463e-05
3.79882e-05
9.35885e-06
3.18073e-05
3.19932e-05
3.89291e-05
1.09317e-05
3.35677e-05
3.34805e-05
4.01735e-05
1.20448e-05
3.47654e-05
3.46279e-05
4.11677e-05
1.35958e-05
3.60667e-05
3.61838e-05
4.20686e-05
1.46474e-05
3.73112e-05
3.73091e-05
4.27758e-05
1.66192e-05
3.88974e-05
3.89033e-05
4.39978e-05
1.74363e-05
3.87612e-05
3.88171e-05
4.35918e-05
1.78389e-05
3.92588e-05
3.93139e-05
4.41602e-05
2.13085e-05
4.24671e-05
4.24609e-05
4.68034e-05
2.48735e-05
4.46865e-05
4.46662e-05
4.87035e-05
2.62392e-05
4.52516e-05
4.52325e-05
4.908e-05
2.55465e-05
4.34254e-05
4.34258e-05
4.69901e-05
2.24817e-05
4.10226e-05
4.10407e-05
4.48065e-05
2.03445e-05
3.92163e-05
3.92336e-05
4.29786e-05
2.00143e-05
3.9236e-05
3.92462e-05
4.3187e-05
2.41919e-05
4.25231e-05
4.25274e-05
4.59421e-05
2.92574e-05
4.56808e-05
4.5683e-05
4.87362e-05
3.31891e-05
4.79138e-05
4.79154e-05
5.07161e-05
3.54323e-05
4.91153e-05
4.91168e-05
5.17838e-05
3.64723e-05
4.96574e-05
4.96586e-05
5.22693e-05
3.69181e-05
4.98908e-05
4.98917e-05
5.2478e-05
3.70799e-05
4.99673e-05
4.99683e-05
5.255e-05
3.71035e-05
4.99707e-05
4.99718e-05
5.25644e-05
3.71118e-05
4.99716e-05
4.99725e-05
5.25496e-05
3.71208e-05
4.99834e-05
4.99842e-05
5.25768e-05
3.71159e-05
4.99738e-05
4.99749e-05
5.25566e-05
3.71176e-05
4.99789e-05
4.998e-05
5.25646e-05
3.71171e-05
4.9977e-05
4.99779e-05
5.25694e-05
3.71165e-05
4.99759e-05
4.9977e-05
5.25551e-05
3.71169e-05
4.9978e-05
4.9979e-05
5.25724e-05
3.71165e-05
4.99766e-05
4.99776e-05
5.25552e-05
3.71164e-05
4.99767e-05
4.99778e-05
5.25703e-05
3.71162e-05
4.99772e-05
4.99779e-05
5.25593e-05
3.71161e-05
4.99767e-05
4.99777e-05
5.25633e-05
3.7116e-05
4.99768e-05
4.99779e-05
5.25685e-05
3.7116e-05
4.99769e-05
4.9978e-05
5.25553e-05
3.7116e-05
4.99768e-05
4.99778e-05
5.25654e-05
3.7116e-05
4.99771e-05
4.99781e-05
5.25694e-05
3.7116e-05
4.99774e-05
4.99784e-05
5.25622e-05
3.7116e-05
4.9977e-05
4.9978e-05
5.25556e-05
3.71161e-05
4.9977e-05
4.99778e-05
5.25647e-05
3.71162e-05
4.99775e-05
4.99785e-05
5.25688e-05
3.71163e-05
4.99778e-05
4.99785e-05
5.25635e-05
3.71164e-05
4.99777e-05
4.99787e-05
5.25555e-05
3.71164e-05
4.99787e-05
4.9979e-05
5.25643e-05
3.71168e-05
4.99797e-05
4.99804e-05
5.25696e-05
3.71167e-05
4.99808e-05
4.99814e-05
5.25577e-05
3.71052e-05
4.99627e-05
4.9963e-05
5.25555e-05
3.6602e-05
4.87437e-05
4.87428e-05
5.21496e-05
3.62796e-07
3.46951e-07
3.15643e-07
3.50702e-07
3.23075e-07
3.56425e-07
8.96157e-07
9.18157e-07
8.97941e-07
8.85175e-07
3.27228e-07
3.41301e-07
3.50182e-07
3.43937e-07
3.33999e-07
3.4957e-07
3.6084e-07
3.45947e-07
3.85324e-07
3.53885e-07
3.74739e-07
3.45483e-07
3.48141e-07
3.326e-07
3.32184e-07
3.95536e-07
3.19075e-07
3.85181e-07
3.52938e-07
3.34364e-07
3.39903e-07
3.47379e-07
3.36233e-07
3.42777e-07
4.02176e-07
3.30481e-07
3.3269e-07
3.43082e-07
3.30133e-07
3.71294e-07
3.42591e-07
3.61187e-07
3.35493e-07
3.29695e-07
3.16804e-07
3.14454e-07
3.82039e-07
3.01677e-07
3.74223e-07
3.35752e-07
3.22298e-07
3.24343e-07
3.33415e-07
3.21419e-07
3.26738e-07
3.34137e-07
3.16098e-07
3.16393e-07
3.27661e-07
3.16097e-07
3.57978e-07
3.33589e-07
3.48287e-07
3.2948e-07
3.14235e-07
3.03098e-07
2.97897e-07
3.71962e-07
2.87844e-07
3.6661e-07
3.20859e-07
3.11174e-07
3.11266e-07
3.18575e-07
3.07167e-07
3.12861e-07
2.87017e-07
3.03757e-07
3.01579e-07
3.13883e-07
3.0337e-07
3.44775e-07
3.28201e-07
3.35206e-07
3.26813e-07
3.00729e-07
2.91202e-07
2.84621e-07
3.64974e-07
2.75764e-07
3.6205e-07
3.08311e-07
3.04475e-07
2.99773e-07
3.04808e-07
2.94513e-07
3.00849e-07
2.57455e-07
2.92565e-07
2.88706e-07
3.01205e-07
2.91125e-07
3.3244e-07
3.26855e-07
3.23661e-07
3.25074e-07
2.891e-07
2.81498e-07
2.73457e-07
3.61131e-07
2.66975e-07
3.60251e-07
2.96977e-07
3.03853e-07
2.89503e-07
2.92274e-07
2.84106e-07
2.89986e-07
2.42346e-07
2.8317e-07
2.77868e-07
2.88821e-07
2.76983e-07
3.20172e-07
3.22725e-07
3.07832e-07
3.15275e-07
2.79496e-07
2.73096e-07
2.64912e-07
3.60347e-07
2.60169e-07
3.61954e-07
2.8734e-07
3.10931e-07
2.81897e-07
2.82066e-07
2.75968e-07
2.80992e-07
2.35573e-07
2.75131e-07
2.68517e-07
2.74359e-07
2.63363e-07
3.0303e-07
3.10812e-07
2.89131e-07
2.86723e-07
2.71033e-07
2.63838e-07
2.59522e-07
3.63388e-07
2.59312e-07
3.71982e-07
2.80258e-07
3.32659e-07
2.75828e-07
2.7457e-07
2.72051e-07
2.73314e-07
2.31337e-07
2.68718e-07
2.60372e-07
2.61369e-07
2.54608e-07
2.85188e-07
2.76639e-07
2.75711e-07
2.50463e-07
2.62768e-07
2.64747e-07
2.59489e-07
3.76853e-07
2.64094e-07
3.9817e-07
2.74439e-07
3.83032e-07
2.70101e-07
2.71297e-07
2.71392e-07
2.67283e-07
2.2985e-07
2.63446e-07
2.52376e-07
2.53493e-07
2.50531e-07
2.73305e-07
2.44645e-07
2.68148e-07
2.36728e-07
2.64708e-07
2.81952e-07
2.66875e-07
4.0662e-07
2.78433e-07
4.31757e-07
2.68975e-07
4.81319e-07
2.65576e-07
2.70965e-07
2.74144e-07
2.62343e-07
2.32432e-07
2.59698e-07
2.45787e-07
2.50281e-07
2.51697e-07
2.67068e-07
2.36493e-07
2.64852e-07
2.44153e-07
2.83509e-07
3.25651e-07
2.83842e-07
4.39377e-07
3.05021e-07
4.57018e-07
2.64768e-07
6.55781e-07
2.62621e-07
2.73954e-07
2.80176e-07
2.59164e-07
2.51051e-07
2.58003e-07
2.40049e-07
2.5195e-07
2.59991e-07
2.64501e-07
2.57217e-07
2.64561e-07
3.03138e-07
3.28975e-07
3.87588e-07
3.14248e-07
4.60547e-07
3.50249e-07
4.63996e-07
2.62106e-07
8.20472e-07
2.61739e-07
2.80177e-07
2.87589e-07
2.57624e-07
2.87604e-07
2.57423e-07
2.35341e-07
2.60852e-07
2.74505e-07
2.64802e-07
3.22717e-07
2.6595e-07
4.02633e-07
3.90017e-07
4.27078e-07
3.64647e-07
4.63495e-07
4.13357e-07
4.35157e-07
2.61844e-07
8.61063e-07
2.62949e-07
2.87488e-07
2.87256e-07
2.57518e-07
3.51638e-07
2.58206e-07
2.3134e-07
2.76244e-07
2.90594e-07
2.66307e-07
4.3556e-07
2.68174e-07
5.45481e-07
4.26506e-07
4.14004e-07
4.30967e-07
4.19434e-07
4.83235e-07
3.71496e-07
2.63641e-07
7.015e-07
2.65996e-07
2.86292e-07
2.84415e-07
2.58476e-07
4.28814e-07
2.59704e-07
2.28095e-07
2.93078e-07
3.03051e-07
2.68781e-07
5.81481e-07
2.73188e-07
6.62307e-07
4.07183e-07
3.91315e-07
4.98738e-07
3.56847e-07
5.35669e-07
3.1861e-07
2.67062e-07
4.33208e-07
2.71107e-07
2.83901e-07
2.7654e-07
2.60355e-07
4.69791e-07
2.63184e-07
2.2646e-07
3.04519e-07
3.07596e-07
2.74556e-07
6.78028e-07
2.81297e-07
6.94869e-07
3.88459e-07
3.71047e-07
5.4356e-07
3.0836e-07
5.53489e-07
2.87181e-07
2.72845e-07
3.06206e-07
2.79035e-07
2.75435e-07
2.56618e-07
2.64648e-07
4.66123e-07
2.70411e-07
2.28368e-07
3.08827e-07
2.80496e-07
2.83933e-07
6.9204e-07
2.88742e-07
5.95328e-07
3.65961e-07
2.89753e-07
5.53309e-07
2.84033e-07
5.01342e-07
2.84383e-07
2.81886e-07
2.74097e-07
2.91895e-07
2.54636e-07
2.45521e-07
2.73017e-07
3.9151e-07
2.82685e-07
2.35852e-07
2.80118e-07
2.66522e-07
2.93926e-07
5.63203e-07
3.06937e-07
4.90309e-07
2.88149e-07
2.62559e-07
4.76037e-07
2.87371e-07
4.09496e-07
2.96621e-07
2.95726e-07
2.74499e-07
3.12462e-07
2.47928e-07
2.47499e-07
2.86639e-07
3.42142e-07
3.02298e-07
2.54398e-07
2.66969e-07
3.0147e-07
3.09102e-07
4.84785e-07
3.43463e-07
4.99824e-07
2.65383e-07
3.16167e-07
3.87626e-07
3.02078e-07
3.77398e-07
3.26491e-07
3.18698e-07
3.08842e-07
3.43268e-07
2.51082e-07
2.90307e-07
3.08149e-07
3.60558e-07
3.32942e-07
2.90086e-07
3.22596e-07
3.35572e-07
3.56443e-07
5.02017e-07
3.74397e-07
5.15483e-07
3.27665e-07
3.60726e-07
3.84915e-07
3.37076e-07
3.95242e-07
3.75497e-07
3.51304e-07
3.59458e-07
3.92626e-07
3.03773e-07
3.44494e-07
3.41201e-07
4.00787e-07
3.85026e-07
3.63727e-07
3.47429e-07
5.02917e-07
3.9233e-07
5.15827e-07
4.61589e-07
5.15777e-07
3.87805e-07
4.12166e-07
4.03502e-07
3.94081e-07
4.61753e-07
4.3245e-07
4.0649e-07
3.99869e-07
4.56406e-07
3.61092e-07
4.48599e-07
3.98608e-07
4.44156e-07
4.55016e-07
4.76146e-07
5.1899e-07
6.6347e-07
4.72663e-07
5.51579e-07
5.67384e-07
6.28172e-07
4.67923e-07
7.96994e-07
4.68834e-07
4.72211e-07
5.58169e-07
5.4931e-07
4.77645e-07
5.61341e-07
5.61716e-07
4.74978e-07
7.24605e-07
4.75143e-07
5.5878e-07
5.6073e-07
6.80748e-07
7.9442e-07
1.04824e-06
6.0962e-07
6.23411e-07
7.28638e-07
6.78048e-07
7.8462e-07
8.4828e-07
6.09252e-07
5.65186e-07
7.08124e-07
7.50217e-07
5.76832e-07
6.22105e-07
7.4648e-07
7.45401e-07
1.21796e-06
5.86934e-07
7.58554e-07
7.39893e-07
1.05631e-06
1.09703e-06
1.57455e-06
7.78645e-07
7.88142e-07
9.03813e-07
1.08094e-06
1.13289e-06
2.10027e-06
7.64597e-07
7.86849e-07
8.97079e-07
8.66759e-07
7.87312e-07
1.00749e-06
8.90616e-07
1.36276e-06
1.39873e-06
7.7541e-07
8.6453e-07
9.19924e-07
1.54033e-06
1.68387e-06
2.77691e-06
1.00389e-06
1.13593e-06
1.26093e-06
1.15722e-06
2.13378e-06
1.82762e-06
9.91526e-07
9.51976e-07
1.24918e-06
1.36151e-06
1.07726e-06
1.07398e-06
1.26418e-06
1.51608e-06
3.04628e-06
1.09062e-06
1.33696e-06
1.26122e-06
2.62003e-06
2.90189e-06
3.59616e-06
1.29802e-06
1.20217e-06
1.65466e-06
1.81089e-06
1.89075e-06
4.92382e-06
1.28288e-06
1.40911e-06
1.6329e-06
1.48381e-06
1.25265e-06
1.82424e-06
1.74697e-06
3.13721e-06
3.04174e-06
1.25978e-06
1.49796e-06
1.81225e-06
5.03513e-06
4.09473e-06
5.62252e-06
1.79236e-06
1.8546e-06
2.10658e-06
1.94973e-06
4.99317e-06
4.39542e-06
1.79587e-06
1.69317e-06
2.11657e-06
2.1822e-06
2.08298e-06
1.95978e-06
2.27672e-06
3.37236e-06
5.9925e-06
2.07721e-06
2.14989e-06
2.22895e-06
6.14236e-06
5.83374e-06
7.52382e-06
2.28087e-06
2.24251e-06
2.80048e-06
2.77887e-06
4.99794e-06
8.33386e-06
2.26152e-06
2.21674e-06
2.75114e-06
2.80781e-06
2.28453e-06
2.7622e-06
2.6482e-06
6.08179e-06
7.74249e-06
2.2553e-06
2.86087e-06
2.65378e-06
7.38006e-06
7.94214e-06
9.5198e-06
2.86838e-06
2.87336e-06
3.39406e-06
3.41995e-06
8.39958e-06
1.0076e-05
2.82568e-06
3.01777e-06
3.42247e-06
3.31158e-06
2.70169e-06
3.56473e-06
3.5797e-06
8.52482e-06
9.46988e-06
2.71147e-06
3.28509e-06
3.63433e-06
9.90686e-06
1.0053e-05
1.28425e-05
3.78218e-06
3.56424e-06
4.40755e-06
4.49254e-06
1.09679e-05
1.20809e-05
3.78651e-06
3.55425e-06
4.40103e-06
4.57073e-06
4.01544e-06
4.38625e-06
4.38484e-06
9.84131e-06
1.25685e-05
4.00917e-06
4.56007e-06
4.31948e-06
1.26292e-05
1.31486e-05
1.47467e-05
4.47122e-06
4.76151e-06
5.51048e-06
5.04493e-06
1.25073e-05
1.46928e-05
4.45901e-06
4.73436e-06
5.45753e-06
5.06731e-06
4.3983e-06
5.06134e-06
5.2431e-06
1.31966e-05
1.46769e-05
4.34731e-06
5.1117e-06
5.35344e-06
1.47588e-05
1.57302e-05
1.72918e-05
5.99446e-06
5.22901e-06
6.45443e-06
6.94472e-06
1.49504e-05
1.79981e-05
5.96593e-06
5.5321e-06
6.46517e-06
6.75897e-06
5.875e-06
6.90558e-06
6.60373e-06
1.50641e-05
1.77968e-05
5.92837e-06
6.72509e-06
6.58922e-06
1.75668e-05
1.73509e-05
1.91827e-05
6.4896e-06
7.24641e-06
7.6e-06
7.42098e-06
1.87099e-05
1.88901e-05
6.50137e-06
6.84264e-06
7.5729e-06
7.1878e-06
6.62393e-06
7.39462e-06
7.02725e-06
1.80939e-05
1.86378e-05
6.60726e-06
7.18246e-06
7.01185e-06
1.83814e-05
2.0333e-05
2.22503e-05
8.28865e-06
7.47331e-06
9.29627e-06
9.19803e-06
1.90073e-05
2.18976e-05
8.2405e-06
7.82884e-06
9.30034e-06
9.3905e-06
7.83634e-06
9.22874e-06
9.48522e-06
1.92818e-05
2.24923e-05
7.81763e-06
9.40155e-06
9.59106e-06
2.25458e-05
2.24252e-05
2.30834e-05
9.50513e-06
9.89448e-06
1.03372e-05
1.05896e-05
2.27918e-05
2.37883e-05
9.50331e-06
9.58296e-06
1.02666e-05
1.04224e-05
9.6697e-06
1.05744e-05
1.03611e-05
2.27712e-05
2.32564e-05
9.75825e-06
1.0473e-05
1.02829e-05
2.32293e-05
2.35013e-05
2.51634e-05
1.06975e-05
1.07691e-05
1.20592e-05
1.19817e-05
2.39669e-05
2.49367e-05
1.06716e-05
1.07891e-05
1.20931e-05
1.18979e-05
1.06726e-05
1.20199e-05
1.20591e-05
2.35759e-05
2.50582e-05
1.06223e-05
1.18267e-05
1.2101e-05
2.51635e-05
2.55774e-05
2.66771e-05
1.25151e-05
1.24234e-05
1.36778e-05
1.36316e-05
2.53919e-05
2.66337e-05
1.24884e-05
1.2372e-05
1.36211e-05
1.39596e-05
1.26166e-05
1.3566e-05
1.35735e-05
2.54989e-05
2.68775e-05
1.26257e-05
1.39662e-05
1.35593e-05
2.66432e-05
2.70405e-05
2.82496e-05
1.41195e-05
1.40876e-05
1.55345e-05
1.54816e-05
2.70116e-05
2.82852e-05
1.41076e-05
1.43281e-05
1.55442e-05
1.51812e-05
1.38572e-05
1.56169e-05
1.56414e-05
2.71826e-05
2.80061e-05
1.38562e-05
1.52283e-05
1.56223e-05
2.82864e-05
2.85731e-05
2.94867e-05
1.59288e-05
1.5937e-05
1.7287e-05
1.73319e-05
2.86162e-05
2.94786e-05
1.59172e-05
1.56988e-05
1.71918e-05
1.75677e-05
1.61905e-05
1.72192e-05
1.71251e-05
2.83914e-05
2.9763e-05
1.61834e-05
1.75413e-05
1.7145e-05
2.94969e-05
2.98212e-05
3.07884e-05
1.78033e-05
1.77273e-05
1.89361e-05
1.89256e-05
2.97823e-05
3.07922e-05
1.77139e-05
1.79487e-05
1.89854e-05
1.89351e-05
1.75582e-05
1.89621e-05
1.91209e-05
3.00378e-05
3.06735e-05
1.75406e-05
1.89216e-05
1.90969e-05
3.09029e-05
3.10712e-05
3.21318e-05
1.93172e-05
1.9471e-05
2.11068e-05
2.11096e-05
3.11297e-05
3.21626e-05
1.93652e-05
1.94536e-05
2.10301e-05
2.09816e-05
1.95342e-05
2.11272e-05
2.10592e-05
3.09607e-05
3.21582e-05
1.95852e-05
2.10162e-05
2.10822e-05
3.2149e-05
3.24682e-05
3.3183e-05
2.16439e-05
2.14927e-05
2.26041e-05
2.26551e-05
3.24178e-05
3.31403e-05
2.15755e-05
2.13931e-05
2.26061e-05
2.28713e-05
2.16169e-05
2.26409e-05
2.26841e-05
3.24643e-05
3.32705e-05
2.15174e-05
2.27793e-05
2.2622e-05
3.31874e-05
3.34169e-05
3.45254e-05
2.30167e-05
2.31608e-05
2.4754e-05
2.4609e-05
3.34355e-05
3.44966e-05
2.29954e-05
2.33974e-05
2.4634e-05
2.44955e-05
2.30097e-05
2.45973e-05
2.45906e-05
3.355e-05
3.43866e-05
2.3106e-05
2.46138e-05
2.46592e-05
3.44909e-05
3.48348e-05
3.54588e-05
2.52438e-05
2.50549e-05
2.62455e-05
2.64355e-05
3.47615e-05
3.55937e-05
2.51347e-05
2.48413e-05
2.62371e-05
2.64288e-05
2.51829e-05
2.64763e-05
2.64655e-05
3.4619e-05
3.55829e-05
2.50875e-05
2.62914e-05
2.64191e-05
3.55492e-05
3.56712e-05
3.67893e-05
2.66287e-05
2.68602e-05
2.81869e-05
2.80437e-05
3.58522e-05
3.6618e-05
2.66311e-05
2.7024e-05
2.81645e-05
2.82831e-05
2.67858e-05
2.80632e-05
2.81036e-05
3.59181e-05
3.67726e-05
2.69221e-05
2.83228e-05
2.82528e-05
3.66983e-05
3.71002e-05
3.77674e-05
2.87158e-05
2.84892e-05
2.98728e-05
2.98321e-05
3.68616e-05
3.77697e-05
2.86994e-05
2.85601e-05
2.98667e-05
2.94877e-05
2.86734e-05
2.98132e-05
3.00153e-05
3.69341e-05
3.74438e-05
2.8636e-05
2.9448e-05
2.97288e-05
3.77954e-05
3.79217e-05
3.85869e-05
3.01447e-05
3.01964e-05
3.12e-05
3.13219e-05
3.79979e-05
3.87624e-05
3.01107e-05
2.98827e-05
3.1087e-05
3.14168e-05
3.02596e-05
3.13138e-05
3.11879e-05
3.77092e-05
3.8986e-05
3.00648e-05
3.14415e-05
3.12709e-05
3.86624e-05
3.88845e-05
4.00535e-05
3.16702e-05
3.17704e-05
3.31127e-05
3.31206e-05
3.90337e-05
4.00583e-05
3.15802e-05
3.19886e-05
3.3189e-05
3.33893e-05
3.16576e-05
3.32475e-05
3.30498e-05
3.93038e-05
4.01032e-05
3.17635e-05
3.32588e-05
3.3177e-05
3.99589e-05
4.02814e-05
4.0855e-05
3.34731e-05
3.34496e-05
3.4393e-05
3.43169e-05
4.0264e-05
4.08121e-05
3.357e-05
3.36264e-05
3.43676e-05
3.42093e-05
3.33736e-05
3.436e-05
3.43441e-05
4.02368e-05
4.06534e-05
3.35199e-05
3.4172e-05
3.45151e-05
4.09043e-05
4.10667e-05
4.19185e-05
3.48205e-05
3.47383e-05
3.59847e-05
3.58878e-05
4.10316e-05
4.18609e-05
3.4747e-05
3.46195e-05
3.5901e-05
3.59002e-05
3.48289e-05
3.58758e-05
3.60118e-05
4.08948e-05
4.19375e-05
3.49748e-05
3.59529e-05
3.60275e-05
4.19626e-05
4.20721e-05
4.25694e-05
3.6189e-05
3.60954e-05
3.68982e-05
3.68599e-05
4.20034e-05
4.25392e-05
3.61275e-05
3.61423e-05
3.68774e-05
3.69042e-05
3.61725e-05
3.68352e-05
3.68298e-05
4.20974e-05
4.25667e-05
3.61593e-05
3.68836e-05
3.68e-05
4.24836e-05
4.28394e-05
4.38784e-05
3.73322e-05
3.73147e-05
3.86804e-05
3.87018e-05
4.28312e-05
4.39127e-05
3.73124e-05
3.73444e-05
3.86579e-05
3.87024e-05
3.72849e-05
3.87105e-05
3.8686e-05
4.28353e-05
4.38933e-05
3.72581e-05
3.86862e-05
3.86558e-05
4.38995e-05
4.3976e-05
4.35895e-05
3.8878e-05
3.89067e-05
3.88752e-05
3.89112e-05
4.40079e-05
4.35988e-05
3.88592e-05
3.88988e-05
3.88632e-05
3.88912e-05
3.88867e-05
3.88747e-05
3.88828e-05
4.39931e-05
4.35974e-05
3.88557e-05
3.89212e-05
3.88532e-05
4.36003e-05
4.35808e-05
4.3766e-05
3.87676e-05
3.88042e-05
3.88226e-05
3.885e-05
4.35889e-05
4.37598e-05
3.8762e-05
3.87806e-05
3.88308e-05
3.88286e-05
3.87769e-05
3.88106e-05
3.88366e-05
4.35864e-05
4.37524e-05
3.87522e-05
3.8869e-05
3.88308e-05
4.37817e-05
4.41465e-05
4.63542e-05
3.92759e-05
3.92824e-05
4.1726e-05
4.17075e-05
4.41351e-05
4.63371e-05
3.93004e-05
3.92714e-05
4.174e-05
4.17269e-05
3.92934e-05
4.1725e-05
4.17299e-05
4.41318e-05
4.63448e-05
3.93158e-05
4.17297e-05
4.17415e-05
4.63479e-05
4.68117e-05
4.84341e-05
4.24663e-05
4.24467e-05
4.4268e-05
4.42586e-05
4.67956e-05
4.84286e-05
4.24793e-05
4.24684e-05
4.42768e-05
4.42672e-05
4.24687e-05
4.42703e-05
4.42697e-05
4.68024e-05
4.84241e-05
4.24757e-05
4.42504e-05
4.42694e-05
4.84285e-05
4.87072e-05
4.90976e-05
4.46837e-05
4.46795e-05
4.52426e-05
4.52503e-05
4.87044e-05
4.91055e-05
4.46914e-05
4.46806e-05
4.52486e-05
4.52346e-05
4.46864e-05
4.52494e-05
4.52496e-05
4.86969e-05
4.90868e-05
4.46862e-05
4.52299e-05
4.52514e-05
4.91049e-05
4.90708e-05
4.71562e-05
4.52442e-05
4.52532e-05
4.41004e-05
4.41274e-05
4.90808e-05
4.7173e-05
4.525e-05
4.52358e-05
4.41021e-05
4.4088e-05
4.52518e-05
4.41142e-05
4.41161e-05
4.90605e-05
4.7156e-05
4.52538e-05
4.41081e-05
4.41213e-05
4.71708e-05
4.69763e-05
4.49581e-05
4.34153e-05
4.3438e-05
4.16023e-05
4.16123e-05
4.69919e-05
4.49605e-05
4.34152e-05
4.34039e-05
4.15988e-05
4.15964e-05
4.34276e-05
4.16008e-05
4.16056e-05
4.6977e-05
4.49656e-05
4.34333e-05
4.16164e-05
4.16109e-05
4.4962e-05
4.48033e-05
4.30429e-05
4.10257e-05
4.10326e-05
3.95345e-05
3.9535e-05
4.48049e-05
4.30403e-05
4.10221e-05
4.10225e-05
3.95308e-05
3.95385e-05
4.10271e-05
3.95289e-05
3.95327e-05
4.48113e-05
4.30538e-05
4.10318e-05
3.95474e-05
3.95353e-05
4.30417e-05
4.29799e-05
4.28766e-05
3.92219e-05
3.92212e-05
3.90064e-05
3.90043e-05
4.29773e-05
4.28738e-05
3.92182e-05
3.92274e-05
3.90028e-05
3.90137e-05
3.92199e-05
3.9001e-05
3.90048e-05
4.29907e-05
4.28851e-05
3.92219e-05
3.90149e-05
3.90057e-05
4.28761e-05
4.31869e-05
4.54125e-05
3.92407e-05
3.92379e-05
4.16768e-05
4.16762e-05
4.31841e-05
4.54109e-05
3.92374e-05
3.92486e-05
4.16743e-05
4.16815e-05
3.92401e-05
4.16744e-05
4.16785e-05
4.31943e-05
4.54165e-05
3.92398e-05
4.16795e-05
4.16773e-05
4.54141e-05
4.59406e-05
4.82795e-05
4.25254e-05
4.25253e-05
4.49579e-05
4.49587e-05
4.59393e-05
4.82787e-05
4.25234e-05
4.25292e-05
4.49566e-05
4.49596e-05
4.25274e-05
4.49571e-05
4.49602e-05
4.5944e-05
4.82808e-05
4.25263e-05
4.49597e-05
4.49589e-05
4.82811e-05
4.87349e-05
5.04239e-05
4.56817e-05
4.56825e-05
4.74603e-05
4.7461e-05
4.87341e-05
5.04232e-05
4.56807e-05
4.56829e-05
4.74596e-05
4.74606e-05
4.5684e-05
4.74602e-05
4.74626e-05
4.87358e-05
5.0424e-05
4.56828e-05
4.74619e-05
4.74617e-05
5.04254e-05
5.07147e-05
5.16277e-05
4.79139e-05
4.79145e-05
4.88937e-05
4.88941e-05
5.07141e-05
5.16273e-05
4.79134e-05
4.79141e-05
4.88931e-05
4.88937e-05
4.79163e-05
4.88943e-05
4.88964e-05
5.07147e-05
5.16279e-05
4.79156e-05
4.88958e-05
4.8896e-05
5.16296e-05
5.17818e-05
5.21874e-05
4.91146e-05
4.91149e-05
4.95593e-05
4.95595e-05
5.17815e-05
5.21872e-05
4.91142e-05
4.91146e-05
4.95588e-05
4.95593e-05
4.91174e-05
4.95605e-05
4.95623e-05
5.1782e-05
5.21879e-05
4.91171e-05
4.95619e-05
4.95622e-05
5.21897e-05
5.22671e-05
5.24322e-05
4.9656e-05
4.96562e-05
4.98489e-05
4.98492e-05
5.22669e-05
5.24323e-05
4.96557e-05
4.9656e-05
4.98486e-05
4.98489e-05
4.9659e-05
4.98507e-05
4.98519e-05
5.22675e-05
5.24326e-05
4.9659e-05
4.98516e-05
4.9852e-05
5.24345e-05
5.24758e-05
5.2523e-05
4.98889e-05
4.98893e-05
4.99564e-05
4.99569e-05
5.24759e-05
5.25232e-05
4.98887e-05
4.98889e-05
4.99562e-05
4.99564e-05
4.9892e-05
4.99583e-05
4.99595e-05
5.24761e-05
5.25233e-05
4.9892e-05
4.99592e-05
4.99596e-05
5.25252e-05
5.25477e-05
5.2544e-05
4.99655e-05
4.9966e-05
4.9971e-05
4.99714e-05
5.2548e-05
5.2544e-05
4.99654e-05
4.99654e-05
4.99708e-05
4.99709e-05
4.99686e-05
4.99727e-05
4.99742e-05
5.2548e-05
5.25442e-05
4.99687e-05
4.99738e-05
4.99743e-05
5.25463e-05
5.2562e-05
5.25251e-05
4.99689e-05
4.99693e-05
4.99662e-05
4.99666e-05
5.2562e-05
5.25252e-05
4.99688e-05
4.99689e-05
4.99661e-05
4.99662e-05
4.99722e-05
4.9968e-05
4.99694e-05
5.25622e-05
5.25255e-05
4.99723e-05
4.99691e-05
4.99695e-05
5.25275e-05
5.25473e-05
5.25543e-05
4.99695e-05
4.99701e-05
4.99815e-05
4.9982e-05
5.25478e-05
5.25546e-05
4.99694e-05
4.99696e-05
4.99814e-05
4.99814e-05
4.99727e-05
4.99833e-05
4.99845e-05
5.25478e-05
5.25545e-05
4.99727e-05
4.99842e-05
4.99845e-05
5.25564e-05
5.25747e-05
5.25383e-05
4.99815e-05
4.9982e-05
4.99732e-05
4.99736e-05
5.25749e-05
5.2538e-05
4.99814e-05
4.99814e-05
4.99731e-05
4.99731e-05
4.99845e-05
4.99749e-05
4.99762e-05
5.25749e-05
5.25383e-05
4.99845e-05
4.9976e-05
4.99764e-05
5.25403e-05
5.25545e-05
5.25391e-05
4.9972e-05
4.99724e-05
4.99751e-05
4.99757e-05
5.25543e-05
5.25397e-05
4.99719e-05
4.9972e-05
4.9975e-05
4.99752e-05
4.99751e-05
4.99771e-05
4.99784e-05
5.25546e-05
5.254e-05
4.99753e-05
4.99782e-05
4.99786e-05
5.25421e-05
5.25617e-05
5.25513e-05
4.9977e-05
4.99775e-05
4.99768e-05
4.99771e-05
5.25623e-05
5.25509e-05
4.99769e-05
4.9977e-05
4.99768e-05
4.99767e-05
4.99803e-05
4.99785e-05
4.99797e-05
5.25625e-05
5.25511e-05
4.99803e-05
4.99794e-05
4.99797e-05
5.25529e-05
5.25681e-05
5.25324e-05
4.99752e-05
4.99756e-05
4.99735e-05
4.99741e-05
5.25675e-05
5.25325e-05
4.99753e-05
4.99752e-05
4.99734e-05
4.99736e-05
4.99782e-05
4.99754e-05
4.99767e-05
5.25677e-05
5.25328e-05
4.99782e-05
4.99765e-05
4.99768e-05
5.25347e-05
5.25523e-05
5.25521e-05
4.99739e-05
4.99745e-05
4.99768e-05
4.99773e-05
5.25529e-05
5.25521e-05
4.99738e-05
4.9974e-05
4.99768e-05
4.99768e-05
4.99772e-05
4.99786e-05
4.99799e-05
5.25531e-05
5.25524e-05
4.99774e-05
4.99797e-05
4.99801e-05
5.25543e-05
5.25704e-05
5.25324e-05
4.99762e-05
4.99766e-05
4.99735e-05
4.99742e-05
5.25702e-05
5.25327e-05
4.99761e-05
4.99761e-05
4.99734e-05
4.99735e-05
4.99793e-05
4.99756e-05
4.99768e-05
5.25704e-05
5.25329e-05
4.99793e-05
4.99765e-05
4.99768e-05
5.25348e-05
5.25523e-05
5.2551e-05
4.99744e-05
4.99752e-05
4.99758e-05
4.99762e-05
5.25533e-05
5.25506e-05
4.99743e-05
4.99745e-05
4.99758e-05
4.99759e-05
4.99778e-05
4.99776e-05
4.9979e-05
5.25533e-05
5.25511e-05
4.99779e-05
4.99786e-05
4.99791e-05
5.25531e-05
5.25685e-05
5.25339e-05
4.99749e-05
4.99753e-05
4.99744e-05
4.99753e-05
5.25673e-05
5.25355e-05
4.99748e-05
4.99748e-05
4.99742e-05
4.99745e-05
4.99781e-05
4.99765e-05
4.99778e-05
5.2568e-05
5.25352e-05
4.99783e-05
4.99775e-05
4.99778e-05
5.25368e-05
5.2556e-05
5.25469e-05
4.9975e-05
4.9976e-05
4.99747e-05
4.99753e-05
5.25588e-05
5.25443e-05
4.99749e-05
4.99753e-05
4.99747e-05
4.99748e-05
4.99784e-05
4.99766e-05
4.9978e-05
5.2558e-05
5.25453e-05
4.99782e-05
4.99776e-05
4.9978e-05
5.25481e-05
5.25621e-05
5.25423e-05
4.99747e-05
4.99754e-05
4.99746e-05
4.99755e-05
5.25597e-05
5.25454e-05
4.99746e-05
4.99748e-05
4.99744e-05
4.99747e-05
4.9978e-05
4.99766e-05
4.99779e-05
5.25605e-05
5.25452e-05
4.99781e-05
4.99777e-05
4.9978e-05
5.25463e-05
5.2565e-05
5.25358e-05
4.99748e-05
4.99755e-05
4.99745e-05
4.99752e-05
5.25672e-05
5.25346e-05
4.99746e-05
4.99749e-05
4.99743e-05
4.99746e-05
4.9978e-05
4.99765e-05
4.99778e-05
5.2567e-05
5.2535e-05
4.99781e-05
4.99776e-05
4.99779e-05
5.25371e-05
5.2553e-05
5.25489e-05
4.99748e-05
4.99756e-05
4.99745e-05
4.99751e-05
5.25533e-05
5.25474e-05
4.99745e-05
4.99749e-05
4.99744e-05
4.99746e-05
4.9978e-05
4.99765e-05
4.99778e-05
5.25536e-05
5.25472e-05
4.99782e-05
4.99775e-05
4.99778e-05
5.255e-05
5.25654e-05
5.25434e-05
4.99747e-05
4.99754e-05
4.99746e-05
4.99754e-05
5.25626e-05
5.25459e-05
4.99746e-05
4.99749e-05
4.99743e-05
4.99747e-05
4.9978e-05
4.99767e-05
4.9978e-05
5.25622e-05
5.25469e-05
4.9978e-05
4.99778e-05
4.99781e-05
5.25478e-05
5.25659e-05
5.25344e-05
4.99749e-05
4.99756e-05
4.99743e-05
4.99752e-05
5.25674e-05
5.25359e-05
4.99746e-05
4.9975e-05
4.99742e-05
4.99746e-05
4.99784e-05
4.99767e-05
4.99782e-05
5.2568e-05
5.25369e-05
4.99784e-05
4.99777e-05
4.99781e-05
5.2539e-05
5.25553e-05
5.25396e-05
4.9975e-05
4.99758e-05
4.9974e-05
4.99747e-05
5.25587e-05
5.2537e-05
4.99748e-05
4.99752e-05
4.99739e-05
4.99741e-05
4.99788e-05
4.99761e-05
4.99775e-05
5.25604e-05
5.25365e-05
4.99787e-05
4.9977e-05
4.99775e-05
5.25376e-05
5.25555e-05
5.25489e-05
4.99747e-05
4.99756e-05
4.99742e-05
4.99748e-05
5.25542e-05
5.25459e-05
4.99746e-05
4.9975e-05
4.9974e-05
4.99741e-05
4.99786e-05
4.99763e-05
4.99779e-05
5.2554e-05
5.25453e-05
4.99785e-05
4.99772e-05
4.99778e-05
5.25496e-05
5.25667e-05
5.25421e-05
4.99749e-05
4.99756e-05
4.99741e-05
4.99748e-05
5.2561e-05
5.25482e-05
4.99749e-05
4.99749e-05
4.9974e-05
4.99742e-05
4.99784e-05
4.99762e-05
4.99776e-05
5.25603e-05
5.25482e-05
4.99783e-05
4.99771e-05
4.99775e-05
5.25471e-05
5.25654e-05
5.25347e-05
4.99755e-05
4.99758e-05
4.99737e-05
4.99746e-05
5.25672e-05
5.25422e-05
4.99754e-05
4.99754e-05
4.99735e-05
4.99739e-05
4.9979e-05
4.99758e-05
4.99771e-05
5.2568e-05
5.25407e-05
4.99789e-05
4.99765e-05
4.99769e-05
5.25397e-05
5.25542e-05
5.25404e-05
4.99755e-05
4.99764e-05
4.99736e-05
4.99738e-05
5.25659e-05
5.25347e-05
4.99753e-05
4.99756e-05
4.99736e-05
4.99735e-05
4.9979e-05
4.99752e-05
4.99768e-05
5.25646e-05
5.25344e-05
4.99788e-05
4.99762e-05
4.99765e-05
5.2537e-05
5.25568e-05
5.25462e-05
4.9976e-05
4.99763e-05
4.9973e-05
4.9974e-05
5.25524e-05
5.25503e-05
4.99759e-05
4.9976e-05
4.9973e-05
4.99731e-05
4.99792e-05
4.99756e-05
4.99768e-05
5.25546e-05
5.25444e-05
4.9979e-05
4.9976e-05
4.99765e-05
5.25486e-05
5.25615e-05
5.25436e-05
4.99761e-05
4.99772e-05
4.99728e-05
4.99731e-05
5.25689e-05
5.2535e-05
4.99761e-05
4.99762e-05
4.99727e-05
4.99727e-05
4.99798e-05
4.99747e-05
4.99764e-05
5.256e-05
5.25442e-05
4.99795e-05
4.99755e-05
4.99761e-05
5.25476e-05
5.25664e-05
5.25358e-05
4.99776e-05
4.9978e-05
4.99723e-05
4.99731e-05
5.25584e-05
5.25424e-05
4.99775e-05
4.99775e-05
4.99723e-05
4.99725e-05
4.99811e-05
4.99746e-05
4.99758e-05
5.25661e-05
5.25387e-05
4.99808e-05
4.99751e-05
4.99756e-05
5.25371e-05
5.25537e-05
5.25451e-05
4.99785e-05
4.99792e-05
4.99703e-05
4.99709e-05
5.25589e-05
5.25431e-05
4.99785e-05
4.99787e-05
4.99703e-05
4.99704e-05
4.99822e-05
4.99724e-05
4.99735e-05
5.25575e-05
5.25437e-05
4.99819e-05
4.99729e-05
4.99731e-05
5.25404e-05
5.25608e-05
5.23334e-05
4.99605e-05
4.99612e-05
4.97863e-05
4.97871e-05
5.25619e-05
5.23332e-05
4.99605e-05
4.99605e-05
4.97879e-05
4.97854e-05
4.99635e-05
4.97906e-05
4.97893e-05
5.25617e-05
5.23333e-05
4.99633e-05
4.97898e-05
4.97907e-05
5.23395e-05
5.21469e-05
4.87389e-05
4.87396e-05
5.2147e-05
4.87408e-05
4.8738e-05
3.66034e-05
3.66024e-05
3.66048e-05
4.87414e-05
5.21471e-05
4.87432e-05
2.55733e-06
3.72959e-07
1.62044e-06
1.62238e-06
9.79445e-08
3.29889e-07
3.33754e-07
9.19042e-07
1.04067e-07
3.49725e-07
8.86115e-07
8.43726e-07
3.55614e-07
2.6974e-07
4.16673e-07
3.00165e-07
5.23507e-06
2.56026e-07
6.99184e-06
1.36185e-05
2.1211e-05
3.18699e-07
5.24521e-06
2.74465e-07
6.96926e-06
8.95647e-07
8.77999e-07
8.63101e-07
8.62981e-07
8.85013e-07
8.66646e-07
8.5115e-07
9.75093e-08
6.96534e-07
4.54871e-07
3.41962e-07
9.65165e-08
6.70676e-07
4.50603e-07
1.3965e-05
2.15634e-05
1.0253e-07
4.25402e-07
1.16877e-06
4.38518e-07
1.02806e-07
4.16673e-07
1.11238e-06
1.89575e-06
1.92515e-06
3.41231e-07
1.87029e-06
1.90415e-06
5.01538e-07
1.03821e-05
3.9933e-07
1.30273e-05
3.634e-05
4.61329e-05
5.08537e-07
1.01973e-05
4.09868e-07
1.29711e-05
8.87895e-07
8.68548e-07
8.53428e-07
8.73782e-07
8.97979e-07
8.75907e-07
8.61548e-07
1.07874e-07