/*--------------------------------*- C++ -*----------------------------------*\
| =========                 |                                                 |
| \\      /  F ield         | OpenFOAM: The Open Source CFD Toolbox           |
|  \\    /   O peration     | Version:  v2012                                 |
|   \\  /    A nd           | Website:  www.openfoam.com                      |
|    \\/     M anipulation  |                                                 |
\*---------------------------------------------------------------------------*/
FoamFile
{
    version     2.0;
    format      ascii;
    class       volScalarField;
    location    "250";
    object      nut;
}
// * * * * * * * * * * * * * * * * * * * * * * * * * * * * * * * * * * * * * //

dimensions      [0 2 -1 0 0 0 0];


internalField   nonuniform List<scalar> 
171728
(
1.0842e-05
1.65126e-06
4.14626e-06
2.19257e-06
1.06713e-05
1.57754e-06
3.45257e-06
2.1841e-06
1.09083e-05
1.53097e-06
2.65872e-06
2.17736e-06
1.11643e-05
1.46731e-06
2.14605e-06
2.16654e-06
1.14221e-05
1.43032e-06
1.85325e-06
2.16305e-06
1.16887e-05
1.41204e-06
1.71072e-06
2.16864e-06
1.19625e-05
1.43639e-06
1.628e-06
2.17401e-06
1.22492e-05
1.63972e-06
1.52983e-06
2.17242e-06
1.25393e-05
2.30644e-06
1.45741e-06
2.14713e-06
1.2882e-05
4.55345e-06
1.4803e-06
2.12486e-06
1.3293e-05
9.45826e-06
1.73617e-06
2.08969e-06
1.37193e-05
1.42057e-05
2.33213e-06
2.03589e-06
1.40875e-05
1.57955e-05
3.42991e-06
1.96248e-06
1.44277e-05
9.33946e-06
4.68616e-06
1.86343e-06
1.46418e-05
3.92222e-06
5.07973e-06
1.74403e-06
1.47244e-05
2.18588e-06
4.31113e-06
1.62213e-06
1.46902e-05
1.75053e-06
2.87804e-06
1.51069e-06
1.47137e-05
1.51704e-06
2.05245e-06
1.4517e-06
1.49669e-05
1.55164e-06
1.97647e-06
1.45866e-06
1.51335e-05
1.71973e-06
1.98518e-06
1.69851e-06
1.5244e-05
1.70627e-06
1.95998e-06
2.00587e-06
1.53752e-05
2.23288e-06
2.15902e-06
2.68549e-06
1.54922e-05
2.51792e-06
3.05912e-06
4.00667e-06
1.55316e-05
3.99327e-06
3.20359e-06
5.94834e-06
1.55977e-05
3.41163e-06
5.0129e-06
8.30432e-06
1.56809e-05
6.8776e-06
5.87344e-06
2.13198e-05
1.56994e-05
7.44779e-06
7.264e-06
2.06426e-05
1.54986e-05
9.34267e-06
1.06643e-05
2.42536e-05
1.56953e-05
1.2477e-05
1.14096e-05
3.49698e-05
1.51397e-05
1.64816e-05
1.66359e-05
3.96777e-05
1.58393e-05
1.66156e-05
1.86931e-05
4.87312e-05
1.50197e-05
2.62408e-05
2.39219e-05
5.42891e-05
1.54967e-05
2.42391e-05
2.5758e-05
5.49575e-05
1.59249e-05
3.42988e-05
3.34993e-05
6.95663e-05
1.5564e-05
3.70385e-05
3.69787e-05
6.92024e-05
1.6646e-05
4.23935e-05
4.16291e-05
7.60785e-05
1.72437e-05
4.75993e-05
4.9298e-05
7.94756e-05
1.88621e-05
5.5213e-05
5.32346e-05
8.55821e-05
2.04601e-05
5.98482e-05
6.18756e-05
8.8354e-05
2.16447e-05
6.63089e-05
6.55686e-05
9.34496e-05
2.55342e-05
7.37234e-05
7.34921e-05
9.74832e-05
2.67001e-05
7.83587e-05
7.92429e-05
0.000100445
3.12773e-05
8.53695e-05
8.50383e-05
0.000105539
3.40741e-05
9.17399e-05
9.13652e-05
0.000108633
3.8761e-05
9.71128e-05
9.81618e-05
0.00011298
4.44531e-05
0.000102896
0.000100863
0.000116688
4.6999e-05
0.000108545
0.000109571
0.000119619
5.57574e-05
0.000116024
0.000115696
0.000124589
6.02249e-05
0.000119921
0.000118812
0.000128341
6.89043e-05
0.000125428
0.000125952
0.000132325
7.20189e-05
0.000129965
0.000129965
0.000134514
8.41749e-05
0.000139296
0.000139239
0.000141149
8.75401e-05
0.000137616
0.000137987
0.000139058
8.25901e-05
0.000136621
0.00013709
0.000139186
0.000103207
0.000154104
0.000154202
0.000151339
0.000131332
0.00016816
0.000168113
0.000161621
0.000145222
0.000174377
0.000174268
0.000166585
0.000143905
0.000165656
0.000165629
0.000158519
0.000115837
0.000152071
0.000152161
0.000149145
9.4283e-05
0.000140619
0.000140712
0.000139644
8.32759e-05
0.000137175
0.000137232
0.000137384
0.000106567
0.000154264
0.000154284
0.000148574
0.000142462
0.000172354
0.000172358
0.000161183
0.000174983
0.000186131
0.000186129
0.000170711
0.000195545
0.000193873
0.000193869
0.000175947
0.000205645
0.000197418
0.000197414
0.000178314
0.000210133
0.000198977
0.00019897
0.000179341
0.000211859
0.000199519
0.000199512
0.000179715
0.00021214
0.000199549
0.000199544
0.000179808
0.000212207
0.000199533
0.000199525
0.000179678
0.000212312
0.000199629
0.000199621
0.000179854
0.000212268
0.000199563
0.000199557
0.00017975
0.000212279
0.000199593
0.000199586
0.000179768
0.000212279
0.000199586
0.000199578
0.000179826
0.000212271
0.000199574
0.000199567
0.000179719
0.000212278
0.000199593
0.000199586
0.000179843
0.000212273
0.000199579
0.000199572
0.000179718
0.000212274
0.000199583
0.000199577
0.000179831
0.000212273
0.000199585
0.000199577
0.000179743
0.000212272
0.000199582
0.000199576
0.000179789
0.000212272
0.000199584
0.000199576
0.000179806
0.000212272
0.000199584
0.000199577
0.000179723
0.000212272
0.000199583
0.000199576
0.000179803
0.000212272
0.000199585
0.000199578
0.000179819
0.000212272
0.000199587
0.000199579
0.000179765
0.000212271
0.000199583
0.000199576
0.000179721
0.000212272
0.000199584
0.000199575
0.000179797
0.000212273
0.000199586
0.000199579
0.00017981
0.000212274
0.000199587
0.000199578
0.000179773
0.000212274
0.000199584
0.000199578
0.000179722
0.000212273
0.00019959
0.000199578
0.000179796
0.000212274
0.000199591
0.000199583
0.000179819
0.000212275
0.000199595
0.000199585
0.000179739
0.000212231
0.000199504
0.000199494
0.000179777
0.000213763
0.000200347
0.000200341
0.000182681
2.32153e-06
2.54276e-06
1.99895e-06
2.31813e-06
2.09652e-06
2.48044e-06
1.1299e-05
1.0785e-05
1.13986e-05
1.12708e-05
1.92314e-06
2.47546e-06
2.25763e-06
2.91788e-06
2.41641e-06
2.20709e-06
2.31323e-06
2.32506e-06
2.53099e-06
1.89834e-06
2.56443e-06
1.85655e-06
2.31369e-06
2.24973e-06
2.04372e-06
2.24118e-06
1.99148e-06
2.23603e-06
2.37383e-06
1.59419e-06
2.35641e-06
2.23783e-06
2.27453e-06
2.30155e-06
3.67919e-06
2.28251e-06
2.20356e-06
2.32139e-06
2.32376e-06
2.58069e-06
1.84083e-06
2.62712e-06
1.80953e-06
2.24072e-06
2.15537e-06
1.96837e-06
2.23827e-06
1.89876e-06
2.25873e-06
2.35425e-06
1.54183e-06
2.35287e-06
2.27206e-06
2.26971e-06
2.28211e-06
2.83205e-06
2.28129e-06
2.19782e-06
2.32257e-06
2.3154e-06
2.64524e-06
1.80421e-06
2.70457e-06
1.81043e-06
2.14541e-06
2.06369e-06
1.87771e-06
2.2678e-06
1.8233e-06
2.31019e-06
2.35286e-06
1.4836e-06
2.35787e-06
2.26224e-06
2.24319e-06
2.28125e-06
2.25087e-06
2.28255e-06
2.18757e-06
2.31353e-06
2.2998e-06
2.71731e-06
1.81614e-06
2.75203e-06
1.87381e-06
2.05308e-06
1.97679e-06
1.80386e-06
2.32427e-06
1.74799e-06
2.39347e-06
2.36059e-06
1.4349e-06
2.36331e-06
2.23817e-06
2.21186e-06
2.28217e-06
1.91079e-06
2.28042e-06
2.18164e-06
2.29447e-06
2.26639e-06
2.76658e-06
1.90413e-06
2.79616e-06
1.98186e-06
1.96554e-06
1.89723e-06
1.73473e-06
2.41828e-06
1.69299e-06
2.50564e-06
2.36178e-06
1.41495e-06
2.36237e-06
2.20358e-06
2.18363e-06
2.28049e-06
1.73723e-06
2.28578e-06
2.18475e-06
2.25202e-06
2.17959e-06
2.79309e-06
1.98541e-06
2.73563e-06
1.99181e-06
1.88122e-06
1.8023e-06
1.67767e-06
2.53814e-06
1.63539e-06
2.6795e-06
2.36375e-06
1.43362e-06
2.37766e-06
2.17307e-06
2.17752e-06
2.28554e-06
1.646e-06
2.28675e-06
2.18863e-06
2.14745e-06
2.07042e-06
2.698e-06
1.96862e-06
2.57032e-06
1.74454e-06
1.78091e-06
1.68176e-06
1.63106e-06
2.75316e-06
1.62845e-06
3.0858e-06
2.38132e-06
1.55722e-06
2.39098e-06
2.16672e-06
2.25064e-06
2.28635e-06
1.55462e-06
2.28704e-06
2.18983e-06
2.04484e-06
2.00969e-06
2.53196e-06
1.63794e-06
2.44019e-06
1.35405e-06
1.673e-06
1.71449e-06
1.62866e-06
3.24213e-06
1.66506e-06
3.86144e-06
2.39207e-06
2.04988e-06
2.37918e-06
2.24735e-06
2.31768e-06
2.28459e-06
1.47322e-06
2.27609e-06
2.1673e-06
1.99494e-06
2.00548e-06
2.41666e-06
1.28995e-06
2.36639e-06
1.17208e-06
1.72805e-06
2.07938e-06
1.69207e-06
4.10257e-06
1.8273e-06
4.84827e-06
2.37687e-06
3.76488e-06
2.3551e-06
2.31306e-06
2.41228e-06
2.27184e-06
1.44372e-06
2.25914e-06
2.14092e-06
2.00352e-06
2.10501e-06
2.35731e-06
1.15393e-06
2.33154e-06
1.17708e-06
2.1023e-06
2.76854e-06
1.8993e-06
5.08472e-06
2.22742e-06
5.68432e-06
2.35044e-06
8.02871e-06
2.32343e-06
2.4114e-06
2.61129e-06
2.25748e-06
1.64597e-06
2.24514e-06
2.1005e-06
2.11106e-06
2.29081e-06
2.32446e-06
1.28983e-06
2.30893e-06
1.74688e-06
2.8303e-06
4.13541e-06
2.38192e-06
5.82591e-06
3.00185e-06
6.07539e-06
2.31331e-06
1.33291e-05
2.29188e-06
2.61185e-06
2.80268e-06
2.23734e-06
2.14431e-06
2.21775e-06
2.05035e-06
2.29565e-06
2.52277e-06
2.30366e-06
1.9664e-06
2.27788e-06
2.99854e-06
4.19728e-06
5.17813e-06
3.25258e-06
6.11577e-06
4.12847e-06
5.52026e-06
2.28385e-06
1.55365e-05
2.2576e-06
2.79346e-06
2.8189e-06
2.20941e-06
3.10397e-06
2.1771e-06
1.98164e-06
2.53279e-06
2.74378e-06
2.26455e-06
3.48601e-06
2.21636e-06
5.38623e-06
5.15971e-06
4.96915e-06
4.44807e-06
5.16525e-06
5.40694e-06
4.07864e-06
2.24981e-06
1.14699e-05
2.21205e-06
2.78372e-06
2.74441e-06
2.16252e-06
4.41882e-06
2.10853e-06
1.88849e-06
2.75457e-06
2.84851e-06
2.19458e-06
6.09012e-06
2.14994e-06
7.79779e-06
4.78335e-06
4.43016e-06
5.68898e-06
3.75785e-06
6.30732e-06
2.94337e-06
2.19811e-06
4.86938e-06
2.14884e-06
2.70571e-06
2.52409e-06
2.08882e-06
5.07607e-06
2.02459e-06
1.77644e-06
2.82435e-06
2.74195e-06
2.12924e-06
8.11394e-06
2.07194e-06
8.38173e-06
4.29939e-06
3.86897e-06
6.41935e-06
2.72066e-06
6.38354e-06
2.22402e-06
2.13051e-06
2.43393e-06
2.06941e-06
2.46034e-06
2.05953e-06
2.00375e-06
4.80609e-06
1.94242e-06
1.65924e-06
2.69675e-06
2.0728e-06
2.05363e-06
8.28698e-06
1.92978e-06
5.9234e-06
3.70122e-06
2.23491e-06
6.31746e-06
2.12539e-06
4.94634e-06
1.93103e-06
2.0507e-06
1.80432e-06
1.99539e-06
1.96743e-06
1.66254e-06
1.92309e-06
3.18838e-06
1.86269e-06
1.54884e-06
1.97366e-06
1.63443e-06
1.91905e-06
5.27534e-06
1.85888e-06
3.8458e-06
2.14212e-06
1.58282e-06
4.36068e-06
1.89838e-06
3.09513e-06
1.79229e-06
1.97111e-06
1.57129e-06
1.92374e-06
1.62682e-06
1.42505e-06
1.84376e-06
2.16367e-06
1.80146e-06
1.4777e-06
1.53846e-06
1.4948e-06
1.79602e-06
3.56112e-06
1.84066e-06
3.3061e-06
1.4871e-06
1.65718e-06
2.68315e-06
1.76486e-06
2.1533e-06
1.74295e-06
1.91007e-06
1.57243e-06
1.88111e-06
1.35682e-06
1.44282e-06
1.78665e-06
1.97015e-06
1.76772e-06
1.46052e-06
1.59324e-06
1.42796e-06
1.88736e-06
3.24282e-06
1.76087e-06
2.9437e-06
1.67404e-06
1.60137e-06
2.13606e-06
1.7437e-06
1.93849e-06
1.79347e-06
1.86092e-06
1.67969e-06
1.91502e-06
1.45496e-06
1.49056e-06
1.7528e-06
1.97374e-06
1.83349e-06
1.57824e-06
1.36041e-06
2.08259e-06
1.78207e-06
2.83433e-06
2.01384e-06
2.29015e-06
1.70102e-06
1.36319e-06
1.88323e-06
1.84187e-06
2.05443e-06
1.7967e-06
1.92425e-06
1.54222e-06
1.97117e-06
1.4789e-06
1.68761e-06
1.84747e-06
1.87949e-06
1.95052e-06
1.83394e-06
2.06192e-06
2.16498e-06
1.98286e-06
2.40413e-06
2.21845e-06
2.78449e-06
1.47339e-06
3.48324e-06
1.99388e-06
1.95409e-06
2.16545e-06
2.16424e-06
2.00878e-06
2.32144e-06
2.23516e-06
1.66524e-06
2.75649e-06
1.98375e-06
2.22074e-06
2.19901e-06
2.3667e-06
2.71159e-06
3.66288e-06
2.36843e-06
2.60961e-06
2.73853e-06
2.21509e-06
3.29769e-06
2.17619e-06
2.38419e-06
2.09563e-06
2.62576e-06
2.87428e-06
2.20122e-06
1.99638e-06
2.84664e-06
2.6809e-06
4.38214e-06
2.24139e-06
2.92051e-06
2.81376e-06
3.55335e-06
3.6138e-06
5.08607e-06
2.90287e-06
2.70801e-06
3.09222e-06
4.20086e-06
3.20752e-06
8.35359e-06
2.82346e-06
2.98508e-06
3.08215e-06
2.88579e-06
2.97912e-06
3.85164e-06
2.88205e-06
5.12359e-06
4.12485e-06
2.89794e-06
2.8506e-06
3.07077e-06
4.30532e-06
5.19747e-06
9.77116e-06
3.48116e-06
4.47672e-06
4.47735e-06
3.84527e-06
8.42023e-06
4.8593e-06
3.43647e-06
3.14305e-06
4.44349e-06
5.12061e-06
3.85502e-06
3.34103e-06
4.7125e-06
4.1615e-06
1.13338e-05
3.95979e-06
5.01429e-06
4.62496e-06
9.61673e-06
1.00992e-05
1.0692e-05
4.4492e-06
3.68383e-06
5.65903e-06
6.77633e-06
4.3406e-06
1.88434e-05
4.39381e-06
5.26607e-06
5.51176e-06
4.62697e-06
4.27898e-06
6.86953e-06
5.69616e-06
1.16175e-05
8.24039e-06
4.23117e-06
4.66686e-06
6.18798e-06
1.59634e-05
1.25604e-05
1.83986e-05
6.19601e-06
6.84843e-06
7.02183e-06
5.9816e-06
1.90655e-05
1.13594e-05
6.19844e-06
5.44978e-06
7.14791e-06
7.66474e-06
7.63716e-06
6.02988e-06
8.32141e-06
8.76684e-06
2.06195e-05
7.72179e-06
7.43165e-06
7.97408e-06
2.20411e-05
1.86337e-05
2.38491e-05
7.67702e-06
7.25629e-06
9.78545e-06
9.54276e-06
1.27916e-05
2.84635e-05
7.63812e-06
7.45339e-06
9.48817e-06
9.59586e-06
7.94294e-06
9.47574e-06
8.99006e-06
2.03458e-05
2.4067e-05
7.69383e-06
9.95096e-06
8.98012e-06
2.3749e-05
2.51429e-05
2.86272e-05
9.7442e-06
9.61953e-06
1.10458e-05
1.14473e-05
2.79232e-05
3.08808e-05
9.45923e-06
1.05265e-05
1.1247e-05
1.07434e-05
8.75026e-06
1.23344e-05
1.19495e-05
2.75668e-05
2.88263e-05
8.74063e-06
1.06158e-05
1.23386e-05
2.89361e-05
3.00552e-05
4.05917e-05
1.28708e-05
1.17158e-05
1.52921e-05
1.56608e-05
3.48039e-05
3.66414e-05
1.29409e-05
1.1539e-05
1.53252e-05
1.61948e-05
1.43276e-05
1.50201e-05
1.55201e-05
2.93202e-05
3.84958e-05
1.43604e-05
1.60954e-05
1.50635e-05
4.08144e-05
4.1169e-05
4.34812e-05
1.49264e-05
1.689e-05
1.88054e-05
1.64243e-05
3.74145e-05
4.43996e-05
1.49334e-05
1.67126e-05
1.84859e-05
1.62753e-05
1.48195e-05
1.65676e-05
1.70699e-05
4.06506e-05
4.3944e-05
1.44336e-05
1.65177e-05
1.77362e-05
4.28554e-05
4.75716e-05
5.32419e-05
2.13667e-05
1.64615e-05
2.26058e-05
2.48946e-05
4.41962e-05
5.53304e-05
2.11704e-05
1.82357e-05
2.2685e-05
2.43099e-05
2.04068e-05
2.46972e-05
2.37295e-05
4.44979e-05
5.51456e-05
2.07578e-05
2.41343e-05
2.36481e-05
5.50751e-05
5.22806e-05
5.50288e-05
2.1832e-05
2.64377e-05
2.50615e-05
2.53153e-05
5.84879e-05
5.61323e-05
2.19359e-05
2.41626e-05
2.49757e-05
2.28917e-05
2.30869e-05
2.50704e-05
2.1856e-05
5.57679e-05
5.32046e-05
2.29864e-05
2.28613e-05
2.17428e-05
5.1553e-05
5.98345e-05
6.7927e-05
2.84861e-05
2.43754e-05
3.25833e-05
3.10746e-05
5.51598e-05
6.45361e-05
2.8243e-05
2.56323e-05
3.26681e-05
3.30284e-05
2.55656e-05
3.14284e-05
3.35884e-05
5.49211e-05
6.86788e-05
2.53811e-05
3.30564e-05
3.42324e-05
6.89696e-05
6.79237e-05
6.78486e-05
3.30022e-05
3.46989e-05
3.50785e-05
3.67496e-05
6.84601e-05
7.16727e-05
3.30794e-05
3.33953e-05
3.46511e-05
3.55756e-05
3.39574e-05
3.65357e-05
3.52873e-05
6.93293e-05
6.88909e-05
3.45721e-05
3.59526e-05
3.48205e-05
6.87718e-05
6.88899e-05
7.45507e-05
3.61621e-05
3.67659e-05
4.11156e-05
4.07698e-05
7.16434e-05
7.34751e-05
3.59766e-05
3.67773e-05
4.14463e-05
4.01106e-05
3.6068e-05
4.10849e-05
4.10176e-05
6.94351e-05
7.38426e-05
3.57206e-05
3.96673e-05
4.12966e-05
7.44445e-05
7.58038e-05
7.89747e-05
4.28414e-05
4.23868e-05
4.65501e-05
4.63e-05
7.48801e-05
7.87189e-05
4.28169e-05
4.17757e-05
4.62202e-05
4.82974e-05
4.34353e-05
4.58402e-05
4.61957e-05
7.5192e-05
8.01172e-05
4.3533e-05
4.84183e-05
4.61035e-05
7.88867e-05
7.99854e-05
8.41035e-05
4.80347e-05
4.78737e-05
5.32062e-05
5.27952e-05
7.97922e-05
8.42595e-05
4.79745e-05
4.95864e-05
5.33826e-05
5.0999e-05
4.65688e-05
5.36104e-05
5.35674e-05
8.08967e-05
8.26718e-05
4.65624e-05
5.12126e-05
5.34406e-05
8.40774e-05
8.502e-05
8.77376e-05
5.44342e-05
5.43794e-05
5.89879e-05
5.94105e-05
8.52381e-05
8.77566e-05
5.45047e-05
5.27109e-05
5.8494e-05
6.065e-05
5.59344e-05
5.88426e-05
5.81384e-05
8.38096e-05
8.91921e-05
5.58699e-05
6.05268e-05
5.83147e-05
8.77927e-05
8.87335e-05
9.19367e-05
6.09841e-05
6.06454e-05
6.42822e-05
6.3969e-05
8.85677e-05
9.18627e-05
6.04672e-05
6.19483e-05
6.46481e-05
6.41283e-05
5.94144e-05
6.41244e-05
6.51638e-05
8.99757e-05
9.14095e-05
5.93633e-05
6.41847e-05
6.49014e-05
9.23004e-05
9.26901e-05
9.64653e-05
6.51819e-05
6.59347e-05
7.21609e-05
7.24127e-05
9.29247e-05
9.67704e-05
6.55989e-05
6.59358e-05
7.18092e-05
7.1548e-05
6.64049e-05
7.25475e-05
7.18323e-05
9.21329e-05
9.66107e-05
6.6602e-05
7.17099e-05
7.2097e-05
9.65719e-05
9.76138e-05
9.97939e-05
7.43841e-05
7.3599e-05
7.66099e-05
7.68101e-05
9.74702e-05
9.95129e-05
7.40452e-05
7.27869e-05
7.67795e-05
7.79977e-05
7.41333e-05
7.67897e-05
7.72517e-05
9.75931e-05
0.000100269
7.36058e-05
7.75824e-05
7.65334e-05
9.98641e-05
0.000100334
0.000104562
7.76981e-05
7.85938e-05
8.45188e-05
8.37621e-05
0.000100389
0.000104461
7.7764e-05
8.00813e-05
8.3927e-05
8.3295e-05
7.78642e-05
8.3596e-05
8.33752e-05
0.000101107
0.00010398
7.81425e-05
8.40056e-05
8.3958e-05
0.000104413
0.000105658
0.000107529
8.64588e-05
8.5263e-05
8.90952e-05
9.0176e-05
0.000105277
0.000108242
8.58827e-05
8.40441e-05
8.91072e-05
8.97339e-05
8.58161e-05
9.04277e-05
9.03741e-05
0.000104566
0.000107956
8.53809e-05
8.90767e-05
8.98585e-05
0.000108086
0.000107989
0.000112369
9.0106e-05
9.16377e-05
9.59228e-05
9.53567e-05
0.000109042
0.000111663
9.01985e-05
9.22693e-05
9.58647e-05
9.70864e-05
9.11032e-05
9.54777e-05
9.53122e-05
0.000109168
0.000112659
9.17802e-05
9.73299e-05
9.67325e-05
0.000112029
0.000113541
0.000116102
9.81346e-05
9.69058e-05
0.000102424
0.000101953
0.000112374
0.000115848
9.81068e-05
9.7738e-05
0.000102516
9.98737e-05
9.76853e-05
0.000101885
0.00010323
0.000113006
0.000114021
9.80246e-05
9.97194e-05
0.000101546
0.000116174
0.000116396
0.000118248
0.000103056
0.000103154
0.000106085
0.000106776
0.000116535
0.000119131
0.000102981
0.000101023
0.000105378
0.000106834
0.000103773
0.000106603
0.000106104
0.000114765
0.000120069
0.000102484
0.000107123
0.000106366
0.000118773
0.000119227
0.000124317
0.00010785
0.000108458
0.000113927
0.000114054
0.000120014
0.000124392
0.000107211
0.000109357
0.000114328
0.000115793
0.000107894
0.000114804
0.000113757
0.000121308
0.000124821
0.000108286
0.000115107
0.000114223
0.000123904
0.000125124
0.000127193
0.000115335
0.000115274
0.000118306
0.000117902
0.000125078
0.000126986
0.000115949
0.000116567
0.000118323
0.000117348
0.000114909
0.000118259
0.000118025
0.000125121
0.000126085
0.000115498
0.000116959
0.00011894
0.000127356
0.000127875
0.000131738
0.000120102
0.000119652
0.000125462
0.000124873
0.000127715
0.000131473
0.000119804
0.000118926
0.000125
0.000124834
0.000120184
0.000124904
0.000125816
0.000126867
0.000131767
0.000121025
0.000125093
0.000125968
0.000132102
0.000132212
0.000133878
0.000126116
0.000125521
0.000128171
0.000127863
0.000131876
0.00013367
0.000125777
0.000125721
0.000128091
0.000128131
0.000126199
0.00012771
0.000127778
0.000132302
0.000133871
0.000126172
0.000128026
0.000127652
0.000133393
0.000134909
0.000140633
0.00013017
0.000129988
0.000137859
0.000137938
0.000134818
0.000140819
0.000130093
0.000130177
0.000137726
0.000137969
0.000129866
0.000138055
0.000137846
0.000134898
0.000140759
0.000129769
0.000137806
0.000137747
0.000140689
0.000141085
0.000139441
0.000139152
0.000139289
0.000138814
0.000139036
0.000141271
0.00013952
0.000139027
0.000139271
0.000138703
0.000138954
0.000139154
0.000138842
0.000138793
0.000141239
0.000139593
0.000139045
0.000139114
0.000138656
0.000139455
0.000139042
0.000137834
0.000137633
0.000137875
0.00013506
0.000135285
0.000139116
0.00013783
0.000137559
0.000137766
0.000135075
0.000135157
0.000137621
0.000134992
0.00013509
0.000139188
0.000137838
0.000137501
0.000135454
0.00013506
0.000137901
0.000139123
0.000149361
0.000136731
0.000136824
0.000149867
0.000149773
0.000139087
0.000149273
0.000136863
0.000136754
0.000149951
0.00014992
0.000136792
0.000149855
0.000149846
0.000139111
0.000149348
0.000136955
0.00015003
0.00014996
0.000149319
0.000151394
0.000160197
0.000154102
0.000153987
0.000165242
0.000165155
0.000151307
0.000160152
0.000154186
0.000154163
0.000165315
0.000165287
0.000154072
0.000165254
0.000165205
0.000151379
0.000160162
0.000154158
0.000165223
0.000165235
0.000160141
0.00016167
0.000166575
0.000168146
0.000168086
0.000173303
0.000173307
0.000161637
0.000166594
0.000168213
0.000168174
0.000173366
0.000173287
0.000168114
0.000173345
0.000173303
0.000161631
0.000166511
0.000168142
0.000173244
0.00017333
0.00016658
0.000166567
0.000159448
0.00017433
0.000174346
0.000169523
0.00016969
0.0001666
0.000159545
0.000174393
0.000174308
0.00016956
0.000169455
0.000174337
0.000169638
0.00016961
0.000166505
0.000159431
0.000174364
0.000169575
0.000169655
0.00015952
0.000158451
0.000150014
0.000165562
0.000165707
0.000155356
0.000155425
0.000158542
0.000150039
0.000165586
0.000165496
0.000155354
0.000155313
0.000165631
0.000155373
0.000155373
0.000158438
0.000150035
0.000165678
0.000155444
0.000155418
0.000150035
0.000149128
0.000140245
0.000152067
0.000152115
0.000142846
0.000142852
0.000149148
0.00014024
0.000152063
0.000152038
0.00014284
0.000142859
0.000152071
0.000142829
0.00014283
0.000149153
0.000140289
0.000152113
0.00014293
0.000142858
0.000140238
0.000139652
0.000136596
0.000140636
0.000140634
0.000136953
0.00013694
0.000139647
0.000136589
0.000140629
0.000140659
0.000136946
0.000136988
0.000140618
0.000136933
0.000136935
0.000139697
0.000136634
0.000140642
0.000137014
0.000136954
0.000136589
0.000137388
0.000146487
0.000137189
0.00013717
0.000149685
0.000149677
0.000137381
0.000146486
0.000137183
0.00013723
0.000149684
0.000149708
0.000137177
0.000149685
0.000149688
0.000137421
0.000146504
0.000137189
0.000149709
0.000149695
0.00014649
0.000148571
0.000159269
0.000154264
0.000154259
0.000168053
0.000168053
0.00014857
0.000159271
0.000154265
0.000154281
0.00016806
0.000168056
0.000154268
0.000168064
0.000168059
0.000148585
0.000159272
0.000154275
0.000168071
0.000168066
0.000159271
0.000161182
0.000169518
0.000172343
0.000172343
0.000183249
0.000183249
0.000161185
0.000169522
0.000172351
0.000172342
0.000183261
0.000183241
0.000172349
0.000183267
0.000183254
0.000161183
0.000169514
0.000172356
0.000183265
0.000183264
0.000169519
0.00017071
0.000175396
0.000186114
0.000186113
0.000192412
0.00019241
0.000170714
0.000175401
0.000186126
0.000186104
0.000192425
0.000192401
0.000186119
0.000192434
0.000192419
0.000170706
0.000175392
0.00018613
0.000192431
0.000192433
0.000175398
0.000175944
0.000178121
0.000193849
0.000193847
0.000196756
0.000196752
0.000175949
0.000178127
0.000193863
0.000193838
0.00019677
0.000196744
0.000193857
0.000196783
0.000196764
0.00017594
0.000178119
0.000193871
0.000196779
0.00019678
0.000178126
0.00017831
0.00017932
0.00019739
0.000197387
0.000198674
0.000198671
0.000178316
0.000179328
0.000197406
0.000197379
0.000198689
0.000198662
0.000197399
0.000198704
0.000198682
0.000178307
0.000179318
0.000197416
0.000198698
0.000198699
0.000179325
0.000179337
0.000179791
0.000198946
0.000198943
0.00019942
0.000199418
0.000179344
0.0001798
0.000198962
0.000198934
0.000199437
0.000199408
0.000198954
0.000199452
0.000199429
0.000179334
0.000179788
0.000198971
0.000199444
0.000199446
0.000179796
0.00017971
0.000179921
0.000199487
0.000199485
0.000199534
0.000199531
0.000179719
0.000179929
0.000199504
0.000199475
0.000199551
0.000199521
0.000199496
0.000199564
0.000199543
0.000179707
0.000179917
0.000199514
0.000199558
0.000199561
0.000179925
0.000179804
0.000179778
0.000199519
0.000199516
0.000199483
0.00019948
0.000179811
0.000179785
0.000199536
0.000199506
0.000199499
0.000199471
0.000199529
0.000199514
0.000199493
0.0001798
0.000179776
0.000199546
0.000199508
0.00019951
0.000179784
0.000179674
0.000179956
0.0001995
0.000199499
0.000199591
0.00019959
0.000179683
0.000179965
0.000199517
0.000199488
0.000199608
0.000199578
0.00019951
0.000199623
0.0001996
0.000179672
0.000179952
0.000199527
0.000199615
0.000199617
0.00017996
0.00017985
0.000179886
0.000199598
0.000199596
0.000199542
0.00019954
0.000179859
0.000179891
0.000199614
0.000199585
0.000199559
0.000199529
0.000199606
0.000199573
0.000199551
0.000179847
0.000179881
0.000199623
0.000199566
0.000199568
0.000179888
0.000179747
0.000179859
0.000199532
0.00019953
0.000199546
0.000199546
0.000179752
0.00017987
0.000199549
0.00019952
0.000199563
0.000199535
0.000199541
0.000199579
0.000199557
0.000179742
0.000179859
0.000199559
0.000199573
0.000199575
0.000179867
0.00017976
0.000179956
0.000199561
0.000199559
0.000199566
0.000199563
0.00017977
0.000179962
0.000199577
0.000199549
0.000199583
0.000199553
0.000199571
0.000199597
0.000199574
0.00017976
0.00017995
0.000199588
0.000199589
0.00019959
0.000179957
0.000179826
0.00017983
0.000199555
0.000199552
0.000199541
0.000199539
0.00017983
0.000179837
0.000199573
0.000199542
0.000199557
0.000199528
0.000199562
0.000199572
0.00019955
0.000179819
0.000179826
0.000199579
0.000199566
0.000199567
0.000179833
0.000179712
0.000179956
0.000199541
0.00019954
0.000199565
0.000199563
0.000179721
0.000179965
0.000199558
0.00019953
0.000199582
0.000199553
0.000199551
0.000199596
0.000199574
0.000179711
0.000179954
0.000199569
0.00019959
0.000199592
0.000179962
0.00017984
0.000179826
0.000199562
0.000199559
0.000199541
0.00019954
0.000179846
0.000179834
0.000199579
0.000199549
0.000199557
0.000199529
0.00019957
0.000199574
0.000199551
0.000179836
0.000179823
0.000199587
0.000199566
0.000199567
0.000179831
0.00017971
0.000179952
0.000199545
0.000199546
0.000199558
0.000199556
0.000179723
0.000179958
0.000199562
0.000199534
0.000199576
0.000199547
0.000199555
0.00019959
0.000199567
0.000179711
0.000179948
0.000199573
0.000199583
0.000199585
0.000179955
0.000179829
0.000179833
0.000199552
0.000199549
0.000199548
0.000199548
0.00017983
0.000179848
0.000199569
0.000199539
0.000199564
0.000199536
0.000199561
0.000199581
0.000199558
0.000179822
0.000179834
0.000199579
0.000199574
0.000199576
0.00017984
0.000179733
0.000179931
0.000199552
0.000199553
0.000199551
0.00019955
0.000179756
0.000179923
0.000199569
0.000199541
0.000199568
0.00019954
0.000199562
0.000199583
0.000199561
0.00017974
0.000179916
0.000199578
0.000199576
0.000199578
0.000179929
0.000179792
0.000179882
0.00019955
0.000199549
0.00019955
0.00019955
0.000179783
0.000179911
0.000199567
0.000199539
0.000199566
0.000199538
0.00019956
0.000199583
0.00019956
0.000179776
0.000179896
0.000199577
0.000199576
0.000199577
0.000179899
0.000179791
0.000179857
0.000199551
0.000199551
0.00019955
0.000199549
0.000179816
0.000179851
0.000199567
0.000199539
0.000199566
0.000199538
0.00019956
0.000199582
0.000199559
0.000179802
0.000179841
0.000199578
0.000199575
0.000199577
0.00017985
0.000179723
0.000179944
0.000199551
0.00019955
0.00019955
0.000199549
0.000179726
0.000179943
0.000199566
0.000199539
0.000199567
0.000199538
0.00019956
0.000199583
0.000199559
0.000179716
0.000179929
0.000199578
0.000199576
0.000199577
0.000179942
0.000179813
0.000179893
0.000199551
0.000199549
0.000199551
0.000199551
0.000179802
0.000179919
0.000199567
0.000199539
0.000199567
0.00019954
0.00019956
0.000199584
0.000199561
0.000179787
0.000179913
0.000199577
0.000199578
0.000199579
0.000179913
0.000179804
0.000179836
0.000199552
0.000199551
0.00019955
0.00019955
0.000179823
0.000179851
0.000199567
0.00019954
0.000199566
0.000199539
0.000199562
0.000199585
0.000199563
0.000179816
0.000179845
0.00019958
0.000199577
0.000199579
0.000179853
0.00017973
0.000179883
0.000199552
0.000199552
0.000199548
0.000199547
0.000179759
0.000179869
0.000199568
0.000199541
0.000199565
0.000199536
0.000199565
0.000199581
0.000199558
0.000179758
0.000179852
0.000199581
0.000199573
0.000199575
0.00017985
0.000179743
0.000179941
0.000199549
0.00019955
0.00019955
0.000199549
0.000179734
0.000179932
0.000199566
0.000199539
0.000199566
0.000199537
0.000199562
0.000199584
0.000199563
0.000179721
0.000179916
0.000199579
0.000199575
0.000199579
0.000179938
0.00017982
0.000179884
0.000199551
0.00019955
0.00019955
0.000199549
0.000179789
0.00017994
0.000199567
0.000199538
0.000199566
0.000199538
0.000199562
0.000199583
0.00019956
0.000179774
0.000179924
0.000199578
0.000199575
0.000199577
0.000179907
0.000179799
0.000179844
0.000199554
0.000199551
0.000199548
0.000199549
0.000179829
0.000179888
0.00019957
0.00019954
0.000199564
0.000199537
0.000199564
0.000199581
0.000199558
0.000179819
0.000179869
0.000199581
0.000199573
0.000199575
0.000179859
0.000179727
0.000179883
0.000199552
0.000199554
0.000199549
0.000199545
0.000179804
0.000179857
0.000199568
0.000199541
0.000199566
0.000199536
0.000199563
0.000199579
0.000199558
0.000179788
0.000179832
0.00019958
0.000199572
0.000199574
0.000179849
0.000179746
0.000179933
0.000199555
0.000199551
0.000199548
0.000199549
0.000179724
0.000179958
0.000199571
0.000199542
0.000199565
0.000199536
0.000199563
0.000199583
0.00019956
0.000179718
0.000179913
0.000199579
0.000199573
0.000199576
0.000179935
0.000179791
0.000179895
0.000199554
0.000199555
0.000199548
0.000199544
0.000179841
0.000179849
0.00019957
0.000199542
0.000199564
0.000199535
0.000199565
0.000199579
0.000199559
0.000179774
0.000179896
0.000199581
0.000199571
0.000199575
0.000179912
0.000179804
0.000179861
0.000199559
0.000199556
0.000199547
0.000199547
0.000179757
0.000179913
0.000199576
0.000199546
0.000199564
0.000199535
0.00019957
0.000199582
0.000199558
0.000179799
0.000179872
0.000199586
0.000199571
0.000199574
0.000179847
0.000179734
0.000179944
0.00019956
0.00019956
0.000199601
0.0001996
0.000179779
0.000179932
0.000199577
0.000199549
0.000199619
0.00019959
0.000199573
0.000199634
0.000199611
0.000179752
0.000179928
0.000199589
0.000199625
0.000199627
0.000179905
0.000179822
0.000181028
0.00019947
0.00019947
0.000201974
0.000201977
0.00017983
0.00018103
0.000199488
0.000199457
0.000201993
0.00020197
0.000199478
0.000202004
0.000201987
0.000179822
0.000181025
0.000199496
0.000201997
0.000202005
0.000181065
0.000182668
0.00020032
0.000200322
0.000182668
0.000200337
0.000200316
0.000213768
0.000213768
0.000213778
0.00020033
0.000182665
0.000200346
3.46189e-05
3.5092e-06
2.1839e-05
2.19502e-05
5.02302e-07
1.73295e-06
9.50474e-07
1.18721e-05
5.77346e-07
2.98612e-06
1.14947e-05
3.91858e-06
2.20838e-06
1.72287e-06
1.86843e-06
1.08012e-06
1.38638e-05
9.79688e-07
1.56705e-05
1.07476e-05
1.30506e-05
1.17199e-06
1.38774e-05
1.13411e-06
1.56443e-05
1.03036e-05
1.0965e-05
1.08361e-05
1.06239e-05
1.0052e-05
1.07432e-05
1.06209e-05
5.34627e-07
4.93973e-07
4.21404e-06
1.63136e-06
4.92817e-07
6.18002e-07
4.15551e-06
1.09325e-05
1.31634e-05
6.21588e-07
4.56335e-06
1.12068e-06
4.0526e-06
5.8685e-07
4.44281e-06
1.28976e-06
1.49823e-06
1.51666e-06
2.20388e-06
1.70603e-06
1.73028e-06
1.30401e-06
1.90784e-05
1.22145e-06
2.13531e-05
1.70727e-05
1.92316e-05
1.28819e-06
1.89134e-05
1.26083e-06
2.13195e-05
1.01e-05
1.07857e-05
1.06717e-05
1.08485e-05
1.02799e-05