/*--------------------------------*- C++ -*----------------------------------*\
| =========                 |                                                 |
| \\      /  F ield         | OpenFOAM: The Open Source CFD Toolbox           |
|  \\    /   O peration     | Version:  v2012                                 |
|   \\  /    A nd           | Website:  www.openfoam.com                      |
|    \\/     M anipulation  |                                                 |
\*---------------------------------------------------------------------------*/
FoamFile
{
    version     2.0;
    format      ascii;
    class       volScalarField;
    location    "250";
    object      nut;
}
// * * * * * * * * * * * * * * * * * * * * * * * * * * * * * * * * * * * * * //

dimensions      [0 2 -1 0 0 0 0];


internalField   nonuniform List<scalar> 
171728
(
0.000233973
0.000233116
0.000233116
0.000233423
0.000232532
0.000227802
0.000227801
0.000223867
0.000230516
0.00022032
0.000220318
0.000209109
0.000227799
0.000211665
0.000211661
0.000193785
0.000224433
0.00020265
0.000202644
0.000179709
0.000220552
0.000193772
0.000193765
0.000167339
0.000216304
0.000185275
0.000185267
0.000156587
0.00021182
0.000177234
0.000177226
0.000147206
0.000207207
0.000169688
0.00016968
0.000138949
0.000202545
0.000162611
0.000162603
0.000131615
0.000197889
0.000155949
0.00015594
0.000124954
0.000193275
0.000149648
0.000149639
0.000118817
0.000188683
0.000143665
0.000143659
0.000113151
0.000184151
0.000137952
0.000137946
0.00010793
0.000179706
0.000132465
0.000132455
0.000103045
0.000175338
0.000127188
0.000127182
9.84722e-05
0.000171035
0.000122149
0.000122133
9.42721e-05
0.000166784
0.000117368
0.000117361
9.06468e-05
0.000162586
0.000112885
0.000112876
8.77149e-05
0.000158414
0.000108754
0.000108746
8.53559e-05
0.000154264
0.000105024
0.000105014
8.36379e-05
0.000150142
0.000101712
0.000101697
8.25732e-05
0.000146063
9.88938e-05
9.88824e-05
8.20981e-05
0.000142045
9.65856e-05
9.65768e-05
8.21562e-05
0.000138117
9.47949e-05
9.47886e-05
8.26923e-05
0.000134294
9.3519e-05
9.35154e-05
8.36587e-05
0.00013063
9.2749e-05
9.27463e-05
8.50122e-05
0.000127154
9.24671e-05
9.24616e-05
8.66961e-05
0.000123901
9.26389e-05
9.26349e-05
8.8639e-05
0.000120901
9.32364e-05
9.32374e-05
9.07906e-05
0.000118187
9.42297e-05
9.42258e-05
9.31148e-05
0.000115789
9.55657e-05
9.55668e-05
9.55523e-05
0.000113732
9.72316e-05
9.72298e-05
9.81137e-05
0.000112021
9.91768e-05
9.91734e-05
0.000100716
0.000110676
0.000101357
0.000101364
0.000103375
0.0001097
0.000103769
0.000103764
0.000106087
0.000109087
0.000106348
0.000106349
0.000108797
0.000108844
0.000109086
0.000109089
0.000111529
0.00010896
0.000111954
0.000111959
0.000114252
0.000109418
0.000114916
0.000114909
0.000116965
0.000110216
0.000117958
0.000117967
0.000119668
0.000111338
0.000121072
0.000121072
0.00012234
0.000112767
0.000124249
0.00012425
0.000125004
0.000114424
0.000127368
0.00012737
0.000127584
0.000116515
0.000130689
0.000130692
0.000130278
0.000118615
0.000133752
0.000133757
0.000132685
0.000121199
0.000137088
0.00013708
0.000135387
0.000123744
0.000140067
0.000140091
0.000137635
0.000126871
0.000143812
0.000143773
0.000140646
0.000129304
0.000145788
0.000145808
0.000141808
0.000133548
0.000151425
0.000151437
0.000146823
0.000134846
0.000150857
0.000150854
0.000144685
0.000141731
0.00016086
0.000160928
0.000156158
0.00014248
0.000156433
0.000156457
0.000144763
0.000148466
0.000170593
0.000170365
0.000160855
0.000181515
0.00020275
0.00020283
0.000200489
0.000166145
0.000169657
0.000169699
0.000157226
0.00013187
0.00013934
0.000139294
0.00012451
0.000129389
0.000147665
0.000147659
0.000134923
0.000189316
0.000187963
0.000187977
0.000166313
0.000242254
0.000217444
0.000217413
0.000189871
0.000271219
0.000230825
0.0002308
0.000200184
0.000279317
0.00023304
0.000233032
0.000201572
0.000279318
0.000232002
0.000232002
0.000200403
0.000277851
0.000231307
0.000231301
0.000199721
0.00027782
0.000231533
0.000231522
0.000199966
0.000278571
0.000231925
0.000231912
0.000200255
0.000278926
0.00023205
0.000232037
0.000200388
0.000278966
0.000232048
0.000232037
0.000200316
0.000278972
0.000232066
0.000232052
0.000200416
0.000278972
0.000232058
0.000232044
0.000200311
0.000278968
0.000232052
0.000232042
0.000200356
0.000278967
0.000232056
0.000232042
0.000200412
0.000278958
0.000232046
0.00023203
0.000200292
0.000278955
0.000232046
0.000232039
0.000200384
0.000278961
0.000232057
0.000232048
0.000200375
0.000278958
0.000232043
0.000232029
0.0002003
0.000278959
0.000232056
0.000232046
0.000200416
0.000278964
0.000232059
0.000232043
0.000200353
0.000278964
0.000232054
0.000232044
0.0002003
0.000278966
0.000232057
0.000232041
0.000200327
0.000278967
0.00023205
0.000232042
0.000200404
0.000278977
0.000232069
0.000232053
0.000200386
0.000278972
0.000232051
0.00023204
0.000200315
0.000278975
0.000232065
0.000232051
0.000200424
0.000278977
0.000232059
0.00023205
0.00020035
0.000278976
0.000232057
0.000232044
0.000200304
0.000278976
0.000232059
0.000232046
0.000200398
0.000278975
0.000232058
0.000232046
0.000200371
0.000278975
0.000232056
0.000232044
0.000200312
0.000278975
0.00023206
0.000232047
0.000200399
0.000278976
0.000232064
0.000232051
0.000200401
0.000278979
0.000232068
0.000232053
0.000200318
0.000279068
0.000231968
0.000231954
0.000200366
0.000283545
0.000234296
0.000234288
0.000204806
0.000234266
0.000234448
0.000234449
0.000234267
0.000234448
0.000234449
0.000234274
0.000234274
0.000234274
0.000234274
0.000234448
0.000234448
0.000234266
0.000234448
0.000234448
0.000234266
0.000233423
0.000226204
0.000233116
0.000233114
0.000229361
0.000229357
0.000233423
0.000226205
0.000233114
0.000233114
0.000229359
0.000229356
0.000233116
0.000229364
0.000229361
0.000233423
0.000226202
0.000233114
0.000229363
0.000229359
0.000226202
0.000223867
0.00021223
0.000227799
0.000227794
0.000222332
0.000222326
0.000223868
0.000212234
0.000227797
0.000227792
0.000222332
0.000222323
0.000227798
0.000222339
0.000222331
0.000223866
0.000212227
0.000227797
0.000222336
0.000222331
0.000212228
0.000209111
0.00019706
0.000220313
0.000220307
0.000213879
0.000213874
0.000209112
0.000197066
0.000220314
0.000220304
0.000213883
0.000213869
0.000220311
0.00021389
0.000213877
0.000209107
0.000197057
0.000220313
0.000213886
0.000213882
0.000197057
0.000193788
0.000182876
0.000211654
0.000211648
0.00020489
0.000204884
0.000193792
0.000182883
0.000211658
0.000211643
0.000204897
0.000204879
0.000211651
0.000204905
0.000204887
0.000193784
0.000182872
0.000211657
0.000204899
0.000204896
0.000182872
0.000179713
0.000170268
0.000202634
0.000202628
0.000195943
0.000195937
0.000179717
0.000170274
0.000202643
0.000202622
0.000195954
0.000195931
0.000202631
0.000195962
0.00019594
0.000179708
0.000170263
0.000202641
0.000195955
0.000195953
0.000170264
0.000167344
0.000159242
0.000193753
0.000193747
0.000187336
0.000187331
0.000167349
0.000159249
0.000193765
0.00019374
0.000187351
0.000187324
0.00019375
0.000187359
0.000187333
0.000167339
0.000159238
0.000193764
0.000187351
0.00018735
0.000159238
0.000156592
0.000149613
0.000185253
0.000185247
0.000179173
0.000179168
0.000156597
0.00014962
0.000185268
0.00018524
0.000179191
0.00017916
0.000185249
0.000179198
0.00017917
0.000156587
0.000149608
0.000185267
0.00017919
0.00017919
0.000149608
0.000147211
0.000141107
0.000177208
0.000177203
0.000171501
0.000171496
0.000147217
0.000141114
0.000177227
0.000177195
0.000171521
0.000171488
0.000177205
0.000171529
0.000171498
0.000147207
0.000141101
0.000177225
0.00017152
0.00017152
0.000141101
0.000138956
0.000133548
0.00016966
0.000169655
0.000164309
0.000164304
0.000138961
0.000133555
0.000169681
0.000169647
0.000164332
0.000164296
0.000169658
0.000164339
0.000164307
0.00013895
0.000133542
0.00016968
0.000164331
0.000164332
0.00013354
0.000131621
0.000126684
0.000162581
0.000162576
0.000157546
0.000157541
0.000131627
0.000126692
0.000162605
0.000162568
0.000157571
0.000157534
0.000162578
0.000157579
0.000157545
0.000131615
0.000126679
0.000162604
0.00015757
0.000157571
0.000126679
0.000124958
0.000120366
0.000155917
0.000155912
0.000151158
0.000151152
0.000124963
0.000120367
0.000155943
0.000155903
0.000151186
0.000151144
0.000155915
0.000151192
0.000151157
0.000124954
0.000120354
0.000155942
0.000151182
0.000151184
0.000120356
0.000118833
0.000114427
0.000149613
0.000149608
0.000145096
0.00014509
0.000118834
0.00011443
0.00014964
0.000149599
0.000145124
0.000145082
0.000149612
0.000145132
0.000145094
0.00011881
0.000114402
0.00014964
0.000145122
0.000145123
0.0001144
0.000113178
0.000108848
0.000143631
0.000143624
0.000139321
0.000139314
0.000113178
0.000108848
0.000143658
0.000143618
0.00013935
0.000139308
0.000143629
0.000139356
0.000139318
0.000113168
0.000108842
0.000143658
0.00013935
0.000139347
0.000108822
0.000107961
0.000103679
0.000137921
0.000137909
0.000133772
0.000133772
0.000107947
0.000103718
0.000137948
0.000137904
0.000133801
0.000133758
0.000137914
0.000133817
0.000133774
0.000107956
0.000103672
0.000137944
0.000133802
0.000133803
0.00010368
0.000103044
9.91457e-05
0.000132425
0.000132421
0.000128451
0.000128437
0.000103078
9.91258e-05
0.000132453
0.000132412
0.000128479
0.000128437
0.000132423
0.000128484
0.000128455
0.000103048
9.91499e-05
0.000132453
0.000128482
0.000128484
9.91632e-05
9.84539e-05
9.4995e-05
0.000127151
0.000127142
0.000123345
0.000123337
9.84425e-05
9.5002e-05
0.000127178
0.000127137
0.000123372
0.000123323
0.000127152
0.000123385
0.000123348
9.84626e-05
9.49789e-05
0.000127181
0.000123368
0.000123376
9.50147e-05
9.42653e-05
9.14318e-05
0.000122111
0.000122102
0.000118476
0.000118468
9.42653e-05
9.14388e-05
0.000122137
0.000122088
0.000118501
0.000118461
0.00012211
0.000118514
0.000118476
9.42349e-05
9.14482e-05
0.000122138
0.000118507
0.000118503
9.14298e-05
9.06598e-05
8.83794e-05
0.000117328
0.000117321
0.000113921
0.000113913
9.066e-05
8.83812e-05
0.000117353
0.000117314
0.000113945
0.000113898
0.000117332
0.000113959
0.00011392
9.06613e-05
8.83555e-05
0.000117359
0.000113944
0.000113946
8.83647e-05
8.77366e-05
8.5914e-05
0.000112846
0.000112839
0.00010969
0.000109683
8.7733e-05
8.59157e-05
0.000112869
0.00011283
0.000109714
0.000109669
0.000112853
0.000109729
0.000109689
8.77071e-05
8.58902e-05
0.000112879
0.000109715
0.000109713
8.58853e-05
8.53913e-05
8.4075e-05
0.000108715
0.000108707
0.000105849
0.00010584
8.53852e-05
8.40811e-05
0.000108736
0.0001087
0.00010587
0.000105829
0.000108722
0.000105885
0.000105849
8.53597e-05
8.40551e-05
0.000108746
0.000105874
0.000105872
8.40534e-05
8.36782e-05
8.28579e-05
0.000104989
0.000104978
0.000102455
0.000102447
8.36745e-05
8.28731e-05
0.000105009
0.000104969
0.000102473
0.000102435
0.000104988
0.000102493
0.000102459
8.3646e-05
8.28588e-05
0.000105011
0.000102479
0.000102481
8.28661e-05
8.25845e-05
8.22576e-05
0.000101677
0.000101666
9.95181e-05
9.95063e-05
8.25962e-05
8.22629e-05
0.000101695
0.000101653
9.95347e-05
9.94986e-05
0.000101678
9.95511e-05
9.9521e-05
8.25605e-05
8.22701e-05
0.0001017
9.95416e-05
9.95417e-05
8.22689e-05
8.21016e-05
8.2203e-05
9.88629e-05
9.88496e-05
9.70823e-05
9.70699e-05
8.2106e-05
8.2206e-05
9.88799e-05
9.88392e-05
9.70974e-05
9.70652e-05
9.88608e-05
9.71132e-05
9.7086e-05
8.20986e-05
8.22111e-05
9.88817e-05
9.71066e-05
9.71058e-05
8.22069e-05
8.21507e-05
8.26441e-05
9.65552e-05
9.6543e-05
9.5164e-05
9.51499e-05
8.21563e-05
8.26435e-05
9.65707e-05
9.65353e-05
9.51779e-05
9.51472e-05
9.65565e-05
9.51914e-05
9.51676e-05
8.21581e-05
8.26449e-05
9.65757e-05
9.51868e-05
9.51854e-05
8.26423e-05
8.26893e-05
8.353e-05
9.47668e-05
9.47542e-05
9.37627e-05
9.37482e-05
8.26901e-05
8.35311e-05
9.47811e-05
9.47491e-05
9.3775e-05
9.37458e-05
9.47707e-05
9.37875e-05
9.37647e-05
8.26935e-05
8.3528e-05
9.4788e-05
9.37833e-05
9.37803e-05
8.35255e-05
8.36611e-05
8.48133e-05
9.34943e-05
9.34806e-05
9.28723e-05
9.28582e-05
8.36606e-05
8.48154e-05
9.35072e-05
9.34779e-05
9.28834e-05
9.28547e-05
9.3498e-05
9.28955e-05
9.2873e-05
8.36621e-05
8.48088e-05
9.35133e-05
9.289e-05
9.28871e-05
8.48098e-05
8.50175e-05
8.64262e-05
9.27267e-05
9.27128e-05
9.24729e-05
9.24596e-05
8.50181e-05
8.64287e-05
9.2738e-05
9.27113e-05
9.24829e-05
9.24547e-05
9.27288e-05
9.24946e-05
9.24747e-05
8.50148e-05
8.64244e-05
9.27424e-05
9.24878e-05
9.24869e-05
8.64284e-05
8.66977e-05
8.83085e-05
9.24461e-05
9.24332e-05
9.2534e-05
9.25202e-05
8.66997e-05
8.83091e-05
9.24562e-05
9.24285e-05
9.25429e-05
9.25207e-05
9.24473e-05
9.25531e-05
9.25383e-05
8.66927e-05
8.83148e-05
9.24594e-05
9.25515e-05
9.25492e-05
8.83144e-05
8.86339e-05
9.04229e-05
9.26204e-05
9.26071e-05
9.3033e-05
9.30202e-05
8.86343e-05
9.04242e-05
9.26295e-05
9.26043e-05
9.304e-05
9.30205e-05
9.26233e-05
9.30506e-05
9.30358e-05
8.8638e-05
9.04233e-05
9.26338e-05
9.30494e-05
9.30452e-05
9.04226e-05
9.07887e-05
9.27079e-05
9.32204e-05
9.32072e-05
9.3928e-05
9.39171e-05
9.07901e-05
9.27089e-05
9.32278e-05
9.32085e-05
9.39344e-05
9.39137e-05
9.32234e-05
9.39464e-05
9.39336e-05
9.07942e-05
9.27022e-05
9.32326e-05
9.39407e-05
9.39417e-05
9.27111e-05
9.31113e-05
9.51288e-05
9.42117e-05
9.42016e-05
9.51886e-05
9.51712e-05
9.31139e-05
9.51216e-05
9.4218e-05
9.4199e-05
9.51934e-05
9.51747e-05
9.42171e-05
9.51975e-05
9.51881e-05
9.31067e-05
9.51297e-05
9.42249e-05
9.52e-05
9.51948e-05
9.51249e-05
9.55547e-05
9.76568e-05
9.55525e-05
9.55399e-05
9.6778e-05
9.6768e-05
9.55488e-05
9.76647e-05
9.55579e-05
9.55416e-05
9.67818e-05
9.67639e-05
9.55563e-05
9.67942e-05
9.67859e-05
9.55546e-05
9.76575e-05
9.55629e-05
9.67879e-05
9.67913e-05
9.76673e-05
9.81113e-05
0.000100246
9.72242e-05
9.7206e-05
9.8648e-05
9.86366e-05
9.81103e-05
0.000100245
9.72278e-05
9.7206e-05
9.86511e-05
9.86421e-05
9.72243e-05
9.86611e-05
9.86529e-05
9.81065e-05
0.000100253
9.72292e-05
9.86639e-05
9.86578e-05
0.000100247
0.000100705
0.00010291
9.91574e-05
9.91525e-05
0.000100784
0.000100767
0.000100716
0.000102904
9.91612e-05
9.91517e-05
0.000100785
0.000100769
9.91696e-05
0.000100791
0.000100787
0.000100717
0.000102903
9.91742e-05
0.000100792
0.000100791
0.00010291
0.000103384
0.000105598
0.000101352
0.000101333
0.000103139
0.000103127
0.000103371
0.000105602
0.000101354
0.000101342
0.00010314
0.000103126
0.000101352
0.00010315
0.000103145
0.000103379
0.0001056
0.000101356
0.000103146
0.000103146
0.000105604
0.000106079
0.000108308
0.000103757
0.000103747
0.000105672
0.00010566
0.000106086
0.000108306
0.000103758
0.000103742
0.000105674
0.000105665
0.000103764
0.000105683
0.00010568
0.000106075
0.00010831
0.000103768
0.000105684
0.000105683
0.000108312
0.000108794
0.00011104
0.000106337
0.000106325
0.000108385
0.00010837
0.000108792
0.000111038
0.000106339
0.000106331
0.000108386
0.000108376
0.000106346
0.000108391
0.00010839
0.000108799
0.000111038
0.000106346
0.000108396
0.000108393
0.000111041
0.000111528
0.000113757
0.000109079
0.000109064
0.000111218
0.00011121
0.000111526
0.000113761
0.000109079
0.000109069
0.000111219
0.000111207
0.000109083
0.000111232
0.000111228
0.000111525
0.000113757
0.000109088
0.000111226
0.000111225
0.000113762
0.000114248
0.000116477
0.000111945
0.000111934
0.000114151
0.000114138
0.000114251
0.000116473
0.00011195
0.000111937
0.000114151
0.000114143
0.000111954
0.000114158
0.000114161
0.000114248
0.000116476
0.000111957
0.000114162
0.000114164
0.000116482
0.000116958
0.000119183
0.000114901
0.000114894
0.000117185
0.000117171
0.000116961
0.00011918
0.0001149
0.000114892
0.000117187
0.000117179
0.000114913
0.000117193
0.000117194
0.000116959
0.000119185
0.000114909
0.000117197
0.000117194
0.000119186
0.000119669
0.000121866
0.000117956
0.000117937
0.000120285
0.000120279
0.000119658
0.000121872
0.000117961
0.000117947
0.000120288
0.000120276
0.000117962
0.000120298
0.000120294
0.000119666
0.000121863
0.000117965
0.000120297
0.000120298
0.000121869
0.000122333
0.000124519
0.000121056
0.000121054
0.000123421
0.000123409
0.000122344
0.000124514
0.000121059
0.000121052
0.000123421
0.000123415
0.000121069
0.000123429
0.000123433
0.000122335
0.00012452
0.000121072
0.000123433
0.000123434
0.000124527
0.000125
0.000127144
0.000124241
0.000124229
0.000126591
0.000126585
0.000124995
0.000127144
0.000124242
0.000124232
0.000126596
0.000126583
0.000124251
0.000126604
0.000126602
0.000124997
0.000127141
0.000124251
0.000126603
0.000126603
0.000127144
0.000127582
0.000129811
0.000127358
0.000127348
0.00012987
0.000129863
0.000127582
0.000129813
0.000127362
0.000127352
0.000129874
0.000129866
0.000127367
0.000129881
0.000129879
0.000127581
0.000129813
0.000127369
0.000129886
0.000129885
0.000129818
0.000130271
0.000132219
0.000130672
0.000130672
0.000132883
0.00013287
0.000130275
0.000132213
0.00013068
0.000130666
0.000132883
0.000132873
0.00013069
0.00013289
0.00013289
0.000130272
0.00013221
0.000130695
0.00013289
0.000132891
0.000132218
0.000132691
0.000135018
0.00013376
0.000133734
0.000136351
0.000136366
0.000132682
0.000135033
0.000133754
0.000133752
0.000136367
0.000136346
0.00013375
0.000136382
0.00013638
0.000132683
0.000135027
0.000133751
0.000136382
0.000136388
0.000135036
0.000135357
0.00013709
0.000137035
0.000137067
0.000139175
0.00013914
0.000135382
0.000137062
0.000137058
0.000137035
0.000139167
0.000139167
0.000137085
0.000139151
0.000139162
0.000135368
0.000137074
0.000137092
0.000139169
0.000139162
0.000137069
0.000137676
0.000140403
0.000140119
0.000140066
0.000142984
0.000142985
0.000137629
0.000140441
0.000140103
0.000140088
0.000142987
0.000142991
0.00014008
0.000143033
0.000142993
0.000137649
0.000140423
0.000140087
0.000142998
0.000142991
0.00014043
0.000140598
0.000141186
0.000143725
0.000143755
0.0001451
0.000145148
0.000140659
0.000141171
0.00014374
0.000143761
0.000145142
0.000145076
0.000143769
0.000145115
0.000145179
0.000140637
0.000141165
0.000143758
0.000145168
0.000145216
0.000141215
0.000141827
0.000146543
0.000145832
0.000145795
0.000150128
0.00015003
0.00014176
0.000146531
0.000145823
0.000145773
0.000150093
0.00015014
0.000145811
0.000150075
0.000150027
0.000141763
0.000146557
0.00014584
0.000150061
0.000149991
0.000146501
0.000146805
0.000144982
0.000151415
0.000151416
0.000151077
0.000151228
0.000146829
0.000145065
0.00015143
0.000151437
0.000151151
0.000151068
0.00015143
0.000151193
0.000151269
0.00014684
0.000144987
0.000151412
0.000151218
0.000151306
0.000145118
0.000144587
0.000154954
0.000150756
0.000150861
0.000158618
0.000158479
0.000144654
0.000154886
0.000150803
0.000150736
0.000158597
0.000158654
0.000150889
0.000158562
0.000158469
0.00014457
0.000154979
0.000150923
0.000158566
0.000158466
0.000154864
0.000156157
0.000146907
0.00016089
0.000160863
0.000158573
0.000158661
0.000156117
0.000146954
0.00016092
0.000160919
0.000158622
0.000158549
0.000160893
0.000158589
0.000158719
0.000156201
0.000146914
0.000160906
0.000158663
0.000158741
0.000147075
0.000144642
0.000151768
0.000156407
0.000156473
0.000157447
0.000157406
0.000144686
0.000151783
0.000156428
0.000156369
0.000157395
0.000157414
0.000156506
0.000157504
0.000157351
0.000144631
0.000151708
0.00015652
0.000157369
0.000157334
0.0001515
0.000161079
0.000199478
0.000170517
0.000170402
0.000200448
0.000200431
0.000161103
0.000199437
0.000170425
0.000170497
0.00020047
0.000200427
0.000170292
0.000200421
0.000200481
0.000161035
0.000199473
0.000170261
0.000200479
0.0002005
0.000199557
0.00020041
0.000164975
0.000202796
0.000202775
0.000184316
0.000184261
0.000200362
0.000164921
0.000202823
0.000202772
0.000184344
0.000184316
0.000202836
0.000184248
0.00018431
0.000200404
0.000164989
0.000202855
0.000184345
0.000184312
0.000164956
0.000157229
0.000126256
0.000169663
0.000169636
0.000142641
0.000142677
0.000157205
0.00012633
0.000169685
0.000169671
0.000142667
0.000142654
0.000169662
0.000142731
0.000142674
0.000157249
0.000126277
0.000169669
0.000142691
0.000142702
0.000126291
0.000124471
0.000130282
0.00013924
0.000139282
0.0001387
0.000138743
0.000124545
0.000130308
0.000139269
0.000139251
0.000138734
0.000138706
0.000139278
0.000138788
0.000138745
0.000124489
0.00013028
0.000139311
0.000138756
0.000138782
0.000130303
0.000134911
0.000161743
0.000147612
0.000147641
0.000178589
0.000178569
0.00013492
0.000161717
0.000147647
0.000147609
0.000178598
0.000178563
0.000147649
0.000178574
0.000178577
0.000134905
0.000161729
0.000147683
0.000178595
0.000178578
0.000161726
0.000166339
0.00018708
0.000187987
0.000187959
0.000211526
0.000211497
0.000166316
0.000187082
0.000187988
0.000187958
0.000211515
0.000211501
0.000187965
0.000211533
0.000211497
0.000166324
0.00018707
0.000187961
0.000211509
0.000211499
0.00018706
0.000189893
0.000199423
0.000217428
0.000217402
0.000228837
0.000228827
0.000189899
0.00019944
0.000217419
0.000217405
0.000228846
0.000228825
0.000217404
0.000228885
0.000228839
0.000189883
0.000199422
0.000217411
0.000228855
0.000228861
0.000199427
0.000200176
0.000201746
0.000230772
0.000230768
0.000232911
0.000232915
0.000200194
0.000201768
0.000230788
0.000230764
0.000232941
0.000232905
0.000230783
0.000232967
0.000232935
0.000200178
0.000201754
0.000230809
0.000232957
0.000232965
0.000201767
0.000201551
0.000200665
0.000232985
0.000232989
0.000232344
0.000232341
0.000201571
0.000200666
0.000233015
0.000232978
0.00023238
0.000232325
0.00023301
0.000232386
0.000232361
0.000201558
0.000200655
0.00023304
0.000232387
0.000232391
0.000200668
0.000200402
0.000199937
0.000231964
0.000231957
0.000231327
0.000231316
0.000200401
0.000199932
0.000231999
0.000231941
0.000231356
0.000231304
0.000231976
0.000231364
0.000231331
0.00020039
0.000199921
0.000232005
0.000231359
0.00023136
0.00019993
0.000199728
0.000200063
0.000231268
0.000231259
0.000231336
0.000231336
0.000199723
0.000200082
0.000231296
0.000231248
0.000231361
0.000231328
0.000231273
0.000231389
0.000231348
0.000199712
0.00020007
0.000231302
0.000231379
0.000231377
0.000200074
0.000199954
0.000200387
0.000231476
0.000231479
0.000231794
0.000231801
0.000199975
0.00020041
0.000231501
0.00023147
0.000231819
0.000231788
0.000231492
0.000231854
0.000231813
0.000199963
0.000200394
0.000231521
0.000231841
0.000231842
0.000200402
0.000200242
0.000200551
0.000231867
0.000231873
0.000231994
0.00023199
0.000200263
0.000200565
0.000231892
0.000231859
0.000232019
0.000231975
0.000231886
0.000232041
0.000232003
0.000200246
0.000200547
0.000231914
0.000232028
0.000232031
0.000200557
0.000200385
0.000200514
0.000232007
0.000232
0.000232005
0.000231998
0.000200396
0.000200511
0.000232032
0.000231985
0.000232031
0.000231985
0.000232013
0.000232048
0.000232012
0.000200378
0.000200498
0.00023204
0.000232037
0.000232039
0.000200507
0.000200322
0.000200559
0.000232003
0.000231997
0.000232006
0.000232009
0.00020032
0.000200582
0.000232028
0.000231985
0.000232031
0.000231994
0.000232012
0.00023206
0.000232023
0.000200309
0.000200568
0.000232039
0.000232048
0.000232051
0.000200575
0.000200401
0.000200482
0.000232012
0.000232015
0.000232011
0.00023201
0.000200422
0.000200499
0.000232037
0.000231999
0.000232037
0.000231993
0.000232028
0.000232062
0.000232022
0.000200408
0.000200477
0.000232056
0.000232046
0.00023205
0.00020049
0.000200313
0.000200539
0.000232011
0.000232007
0.000232004
0.000232002
0.000200321
0.000200557
0.000232036
0.000231991
0.000232029
0.00023199
0.00023202
0.000232053
0.000232016
0.000200302
0.000200552
0.000232047
0.000232043
0.000232044
0.000200563
0.000200334
0.000200566
0.000232002
0.000232001
0.000232007
0.000232005
0.000200351
0.000200587
0.000232028
0.00023199
0.000232033
0.000231991
0.000232015
0.000232057
0.000232018
0.000200346
0.000200572
0.000232042
0.000232045
0.000232045
0.000200571
0.000200407
0.000200468
0.000232008
0.000232004
0.000231995
0.000231992
0.000200424
0.000200475
0.000232034
0.000231989
0.000232021
0.000231974
0.000232017
0.000232045
0.000232004
0.000200409
0.000200451
0.000232045
0.000232028
0.000232032
0.000200467
0.00020029
0.000200572
0.000231995
0.000231994
0.000232003
0.000232002
0.000200305
0.000200582
0.000232022
0.000231976
0.000232029
0.00023199
0.000232005
0.000232053
0.000232015
0.000200283
0.000200575
0.000232033
0.000232044
0.000232043
0.000200581
0.000200371
0.00020052
0.000231996
0.000231995
0.000232
0.000232
0.000200379
0.000200537
0.000232022
0.000231985
0.000232026
0.000231989
0.000232009
0.000232052
0.000232012
0.00020038
0.000200518
0.000232037
0.000232043
0.00023204
0.000200521
0.000200373
0.000200491
0.000232007
0.000232006
0.000231995
0.000231991
0.000200388
0.0002005
0.000232033
0.000231994
0.000232021
0.000231976
0.000232019
0.000232044
0.000232003
0.000200373
0.000200484
0.000232047
0.00023203
0.000232031
0.000200498
0.000200296
0.000200585
0.000231995
0.000231991
0.000232006
0.000232007
0.000200304
0.000200603
0.00023202
0.000231975
0.000232033
0.000231993
0.000232003
0.000232061
0.000232018
0.000200288
0.000200582
0.00023203
0.000232048
0.000232046
0.000200589
0.0002004
0.000200516
0.000232
0.000232003
0.000232003
0.000232001
0.000200423
0.00020051
0.000232027
0.000231991
0.000232028
0.000231984
0.000232015
0.000232054
0.000232012
0.000200411
0.000200478
0.000232043
0.000232038
0.000232038
0.000200494
0.000200376
0.000200472
0.000232008
0.000232006
0.000232
0.000231999
0.000200371
0.000200492
0.000232033
0.000231989
0.000232026
0.000231985
0.000232017
0.000232053
0.000232011
0.00020033
0.000200481
0.000232043
0.000232041
0.000232038
0.000200481
0.000200301
0.000200504
0.000232002
0.000232001
0.000232002
0.000232001
0.000200313
0.000200526
0.000232028
0.000231988
0.000232027
0.000231988
0.000232013
0.000232056
0.000232015
0.000200296
0.000200536
0.00023204
0.000232044
0.000232041
0.000200536
0.0002003
0.000200585
0.000232001
0.000232
0.000232004
0.000232005
0.000200319
0.000200601
0.000232027
0.000231984
0.000232031
0.00023199
0.000232014
0.000232062
0.000232019
0.000200326
0.000200573
0.00023204
0.000232047
0.000232047
0.000200591
0.000200379
0.000200557
0.000231999
0.000231998
0.000232015
0.000232013
0.000200396
0.000200563
0.000232025
0.000231988
0.000232039
0.000231994
0.00023201
0.000232061
0.00023202
0.000200397
0.00020051
0.00023204
0.000232049
0.000232048
0.000200531
0.000200402
0.000200491
0.000232017
0.000232015
0.000231995
0.000231993
0.000200409
0.000200508
0.000232041
0.000231998
0.000232024
0.000231983
0.000232027
0.000232052
0.000232008
0.000200365
0.000200502
0.000232052
0.000232038
0.000232034
0.000200506
0.000200307
0.000200589
0.000231997
0.000231996
0.000232016
0.000232015
0.00020032
0.000200606
0.000232028
0.000231985
0.000232038
0.000231999
0.000232007
0.000232065
0.000232025
0.000200311
0.000200589
0.000232035
0.000232056
0.000232054
0.000200595
0.000200409
0.000200496
0.000232012
0.000232011
0.000232005
0.000232002
0.000200431
0.000200496
0.000232034
0.000231995
0.000232033
0.00023199
0.000232025
0.000232056
0.000232015
0.000200412
0.000200489
0.000232051
0.000232043
0.000232041
0.000200482
0.000200366
0.000200481
0.000232011
0.00023201
0.000232007
0.000232006
0.000200364
0.000200503
0.000232039
0.000231997
0.000232033
0.000231992
0.000232021
0.000232057
0.00023202
0.000200359
0.000200484
0.000232049
0.000232045
0.000232047
0.000200499
0.00020029
0.000200575
0.000232006
0.000232005
0.000232009
0.000232007
0.00020031
0.000200586
0.000232032
0.000231991
0.000232036
0.000231994
0.000232019
0.000232058
0.000232021
0.000200293
0.000200571
0.000232046
0.000232046
0.000232048
0.000200585
0.000200386
0.000200509
0.00023201
0.000232008
0.000232005
0.000232003
0.000200399
0.000200524
0.000232037
0.000231994
0.000232031
0.000231989
0.000232022
0.000232054
0.000232018
0.000200384
0.000200508
0.000232049
0.000232042
0.000232045
0.000200521
0.000200357
0.000200497
0.000232009
0.000232007
0.000232005
0.000232003
0.000200371
0.00020051
0.000232036
0.000231994
0.000232031
0.000231989
0.000232022
0.000232054
0.000232016
0.000200356
0.000200495
0.000232049
0.000232041
0.000232043
0.000200507
0.000200298
0.000200589
0.000232008
0.000232006
0.000232007
0.000232005
0.000200312
0.000200599
0.000232034
0.000231992
0.000232034
0.000231992
0.000232019
0.000232056
0.000232019
0.000200297
0.000200588
0.000232046
0.000232044
0.000232046
0.000200593
0.000200384
0.000200568
0.000232011
0.000232009
0.000232006
0.000232004
0.000200395
0.000200576
0.000232037
0.000231995
0.000232033
0.00023199
0.000232022
0.000232055
0.000232017
0.000200385
0.000200557
0.000232049
0.000232042
0.000232043
0.000200547
0.000200412
0.0002005
0.000232015
0.000232013
0.000232006
0.000232004
0.000200422
0.000200501
0.000232042
0.000231999
0.000232032
0.000231989
0.000232026
0.000232055
0.000232016
0.000200405
0.000200485
0.000232053
0.00023204
0.000232042
0.000200485
0.000200349
0.000200527
0.000232019
0.000232017
0.000232085
0.000232083
0.000200345
0.000200546
0.000232045
0.000232002
0.000232113
0.000232071
0.000232029
0.000232134
0.000232097
0.000200327
0.000200534
0.000232055
0.000232122
0.000232124
0.000200555
0.000200352
0.000202346
0.000231918
0.000231916
0.000235599
0.000235602
0.000200361
0.000202361
0.000231946
0.000231901
0.000235626
0.000235594
0.000231926
0.000235642
0.000235611
0.000200351
0.000202347
0.000231955
0.000235633
0.000235638
0.000202362
0.000204801
0.00023426
0.000234262
0.000204803
0.000234283
0.000234254
0.000283552
0.000283555
0.000283562
0.000234271
0.000204795
0.000234294
0.00023473
0.000234746
0.000234729
0.000234729
0.000235117
0.000234798
0.000234701
0.000234727
0.000235118
0.000234798
0.000234727
0.000234701
0.000234867
0.000233566
0.000233566
0.000104651
3.87411e-05
0.000129118
3.98249e-05
2.16834e-05
2.28313e-05
0.000104643
3.87371e-05
0.000129114
3.98215e-05
0.000233973
0.000233973
0.000233973
0.000232935
0.000232935
0.000232935
0.000232935
0.000206196
9.36752e-05
0.000233969
0.000231994
0.000222614
8.72226e-05
0.000233611
2.16823e-05
2.28307e-05
0.00020619
0.000233969
9.36747e-05
0.000231994
0.000222622
0.000233611
8.72282e-05
4.78012e-05
4.77893e-05
0.000231345
4.40184e-05
4.40089e-05
7.25677e-05
4.2434e-05
8.14027e-05
4.37634e-05
2.47749e-05
2.54634e-05
7.25581e-05
4.24305e-05
8.13974e-05
4.37596e-05
0.000232532
0.000232532
0.000232532
0.000231084
0.000231084