/*--------------------------------*- C++ -*----------------------------------*\
| =========                 |                                                 |
| \\      /  F ield         | OpenFOAM: The Open Source CFD Toolbox           |
|  \\    /   O peration     | Version:  v2012                                 |
|   \\  /    A nd           | Website:  www.openfoam.com                      |
|    \\/     M anipulation  |                                                 |
\*---------------------------------------------------------------------------*/
FoamFile
{
    version     2.0;
    format      ascii;
    class       volScalarField;
    location    "250";
    object      p;
}
// * * * * * * * * * * * * * * * * * * * * * * * * * * * * * * * * * * * * * //

dimensions      [0 2 -2 0 0 0 0];


internalField   nonuniform List<scalar> 
171728
(
0.00361703
0.00361736
0.00361736
0.00362042
0.00356168
0.0035621
0.0035621
0.00356509
0.00351093
0.0035109
0.0035109
0.00351365
0.00345854
0.00345856
0.00345856
0.00346133
0.00340719
0.0034072
0.0034072
0.00340995
0.00335722
0.00335723
0.00335723
0.00335995
0.0033087
0.00330871
0.00330871
0.0033114
0.00326147
0.00326147
0.00326149
0.00326414
0.00321534
0.00321535
0.00321536
0.00321798
0.00317011
0.00317013
0.00317015
0.00317273
0.00312561
0.00312565
0.0031256
0.00312818
0.00308168
0.0030817
0.00308174
0.00308427
0.0030383
0.00303831
0.00303834
0.00304084
0.00299536
0.00299538
0.00299537
0.0029979
0.00295288
0.00295289
0.00295291
0.00295539
0.00291077
0.00291076
0.00291074
0.00291323
0.00286907
0.00286906
0.00286905
0.00287154
0.00282772
0.00282772
0.00282773
0.00283021
0.00278671
0.0027867
0.00278672
0.00278919
0.00274601
0.00274599
0.002746
0.00274847
0.0027056
0.00270556
0.00270557
0.00270803
0.00266546
0.00266541
0.00266542
0.00266787
0.00262556
0.00262551
0.00262551
0.00262795
0.00258591
0.00258586
0.00258585
0.00258828
0.00254648
0.00254643
0.00254642
0.00254884
0.00250727
0.00250722
0.00250722
0.00250962
0.00246827
0.00246822
0.00246822
0.0024706
0.00242946
0.00242942
0.00242942
0.00243178
0.00239086
0.00239081
0.00239081
0.00239316
0.00235244
0.0023524
0.0023524
0.00235473
0.0023142
0.00231417
0.00231417
0.00231647
0.00227614
0.00227611
0.00227611
0.00227839
0.00223825
0.00223822
0.00223822
0.00224048
0.00220051
0.00220049
0.00220049
0.00220273
0.00216294
0.00216292
0.00216292
0.00216514
0.00212551
0.0021255
0.0021255
0.0021277
0.00208824
0.00208823
0.00208823
0.00209041
0.0020511
0.00205109
0.00205109
0.00205326
0.0020141
0.00201408
0.00201409
0.00201624
0.00197723
0.00197721
0.00197721
0.00197935
0.00194049
0.00194045
0.00194045
0.00194259
0.00190385
0.00190381
0.00190381
0.00190594
0.00186733
0.00186728
0.00186728
0.0018694
0.00183092
0.00183087
0.00183087
0.00183297
0.0017946
0.00179453
0.00179453
0.00179663
0.0017584
0.00175833
0.00175833
0.00176043
0.00172223
0.00172215
0.00172215
0.00172422
0.00168626
0.00168619
0.00168619
0.00168827
0.0016502
0.00165007
0.00165007
0.00165213
0.0016145
0.00161445
0.00161444
0.00161653
0.00157848
0.00157828
0.00157828
0.00158032
0.00154321
0.00154318
0.00154318
0.00154519
0.00150703
0.00150683
0.00150683
0.00150893
0.00147256
0.00147226
0.00147225
0.0014739
0.00144164
0.00144136
0.00144137
0.0014433
0.00140026
0.00140007
0.00140007
0.00140243
0.00135911
0.00135965
0.00135964
0.00136202
0.00132746
0.00132757
0.00132757
0.00132942
0.00130007
0.00129925
0.00129925
0.00130055
0.00127128
0.00127024
0.00127024
0.00127154
0.00123932
0.00123867
0.00123867
0.00124029
0.00120451
0.00120425
0.00120425
0.00120616
0.00116827
0.0011682
0.0011682
0.00117025
0.00113164
0.00113164
0.00113164
0.00113373
0.00109505
0.00109503
0.00109503
0.00109712
0.00105852
0.00105848
0.00105848
0.00106056
0.00102198
0.00102195
0.00102195
0.00102403
0.000985419
0.000985391
0.000985391
0.000987477
0.000948847
0.00094882
0.00094882
0.000950907
0.00091227
0.000912243
0.000912243
0.00091433
0.000875688
0.00087566
0.000875661
0.000877749
0.000839105
0.000839078
0.000839078
0.000841165
0.00080252
0.000802493
0.000802493
0.00080458
0.000765936
0.000765908
0.000765908
0.000767996
0.00072935
0.000729322
0.000729321
0.000731409
0.000692765
0.000692739
0.000692739
0.000694826
0.00065618
0.000656152
0.000656152
0.00065824
0.000619595
0.000619566
0.000619566
0.000621654
0.000583009
0.000582983
0.000582983
0.000585071
0.000546423
0.000546397
0.000546397
0.000548484
0.000509837
0.000509808
0.000509808
0.000511895
0.00047325
0.000473219
0.00047322
0.000475307
0.000436662
0.000436636
0.000436636
0.000438723
0.000400075
0.000400046
0.000400047
0.000402134
0.000363487
0.00036346
0.000363458
0.000365546
0.000326901
0.000326875
0.000326875
0.000328962
0.000290314
0.000290285
0.000290285
0.000292372
0.000253728
0.0002537
0.0002537
0.000255785
0.000217143
0.000217116
0.000217117
0.0002192
0.000180558
0.000180531
0.000180531
0.000182612
0.000143973
0.000143947
0.000143947
0.000146021
0.000107384
0.000107362
0.000107362
0.000109422
7.08018e-05
7.0769e-05
7.0768e-05
7.27964e-05
3.49604e-05
3.43772e-05
3.43744e-05
3.62561e-05
6.15483e-06
7.31718e-06
7.31698e-06
5.30963e-06
0.00363044
0.00363067
0.00363067
0.00363044
0.00363067
0.00363067
0.00363143
0.00363143
0.00363143
0.00363143
0.00363067
0.00363067
0.00363044
0.00363067
0.00363067
0.00363044
0.00362042
0.00357166
0.00361736
0.00361736
0.00357394
0.00357394
0.00362042
0.00357166
0.00361737
0.00361736
0.00357394
0.00357394
0.00361736
0.00357394
0.00357394
0.00362042
0.00357166
0.00361737
0.00357394
0.00357393
0.00357166
0.00356509
0.00352058
0.0035621
0.0035621
0.00352402
0.00352402
0.00356509
0.00352058
0.0035621
0.0035621
0.00352402
0.00352402
0.0035621
0.00352402
0.00352402
0.00356509
0.00352058
0.0035621
0.00352402
0.00352402
0.00352058
0.00351365
0.00346821
0.0035109
0.0035109
0.00347157
0.00347157
0.00351365
0.00346821
0.0035109
0.0035109
0.00347157
0.00347157
0.0035109
0.00347157
0.00347157
0.00351365
0.00346821
0.0035109
0.00347157
0.00347157
0.00346821
0.00346133
0.00341666
0.00345856
0.00345856
0.00341992
0.00341993
0.00346133
0.00341666
0.00345856
0.00345856
0.00341992
0.00341992
0.00345856
0.00341992
0.00341992
0.00346133
0.00341666
0.00345856
0.00341992
0.00341992
0.00341666
0.00340996
0.00336645
0.0034072
0.0034072
0.00336958
0.00336958
0.00340995
0.00336645
0.0034072
0.0034072
0.00336958
0.00336959
0.0034072
0.00336958
0.00336959
0.00340995
0.00336645
0.0034072
0.00336959
0.00336959
0.00336645
0.00335995
0.00331769
0.00335723
0.00335723
0.00332071
0.00332071
0.00335995
0.00331769
0.00335723
0.00335723
0.00332071
0.00332072
0.00335723
0.00332071
0.00332071
0.00335995
0.00331769
0.00335723
0.00332071
0.00332071
0.00331769
0.00331139
0.00327027
0.00330871
0.00330871
0.00327318
0.00327319
0.00331139
0.00327027
0.00330871
0.00330871
0.00327318
0.00327318
0.00330871
0.00327319
0.00327319
0.00331139
0.00327027
0.00330871
0.00327319
0.00327318
0.00327026
0.00326415
0.00322397
0.0032615
0.00326149
0.00322679
0.00322681
0.00326414
0.00322397
0.0032615
0.00326149
0.0032268
0.0032268
0.0032615
0.00322681
0.0032268
0.00326414
0.00322397
0.00326149
0.00322681
0.0032268
0.00322398
0.00321798
0.0031786
0.00321536
0.00321535
0.00318138
0.00318137
0.00321798
0.0031786
0.00321536
0.00321536
0.00318137
0.00318136
0.00321536
0.00318137
0.00318136
0.00321798
0.00317861
0.00321536
0.00318136
0.00318136
0.0031786
0.00317272
0.00313399
0.00317013
0.00317012
0.00313667
0.00313667
0.00317271
0.00313398
0.00317013
0.00317015
0.00313667
0.00313669
0.00317013
0.00313667
0.0031367
0.00317273
0.00313396
0.00317013
0.00313669
0.00313671
0.00313398
0.00312821
0.00308995
0.00312565
0.00312565
0.00309267
0.00309266
0.00312821
0.00308996
0.00312565
0.0031256
0.00309267
0.00309261
0.00312563
0.00309266
0.00309262
0.00312818
0.00308998
0.00312563
0.00309261
0.00309262
0.00308995
0.00308424
0.00304648
0.00308169
0.0030817
0.00304913
0.00304914
0.00308425
0.00304647
0.00308168
0.00308174
0.00304913
0.00304916
0.00308172
0.00304914
0.00304913
0.00308428
0.00304649
0.00308172
0.00304915
0.00304913
0.00304648
0.00304082
0.00300344
0.00303833
0.00303831
0.00300609
0.00300605
0.00304081
0.00300346
0.00303833
0.00303834
0.00300609
0.00300609
0.00303834
0.00300605
0.00300606
0.00304083
0.00300345
0.00303834
0.00300608
0.00300606
0.00300346
0.00299788
0.00296091
0.00299537
0.00299538
0.00296346
0.00296347
0.00299789
0.0029609
0.00299537
0.00299537
0.00296346
0.00296346
0.00299538
0.00296347
0.00296347
0.00299788
0.00296091
0.00299538
0.00296347
0.00296348
0.00296091
0.0029554
0.00291872
0.0029529
0.00295289
0.00292128
0.00292129
0.00295538
0.00291873
0.0029529
0.00295291
0.00292128
0.00292129
0.0029529
0.00292129
0.00292129
0.0029554
0.00291871
0.0029529
0.00292129
0.00292129
0.0029187
0.00291325
0.00287695
0.00291077
0.00291076
0.00287947
0.00287945
0.00291326
0.00287696
0.00291077
0.00291074
0.00287947
0.00287943
0.00291074
0.00287945
0.00287944
0.00291324
0.00287695
0.00291074
0.00287943
0.00287944
0.00287695
0.00287153
0.00283555
0.00286905
0.00286906
0.00283802
0.002838
0.00287155
0.00283556
0.00286905
0.00286905
0.00283802
0.00283799
0.00286904
0.002838
0.00283799
0.00287155
0.00283556
0.00286904
0.00283799
0.00283799
0.00283557
0.00283018
0.00279449
0.00282771
0.00282772
0.00279692
0.00279691
0.0028302
0.0027945
0.00282771
0.00282773
0.00279692
0.00279691
0.00282773
0.00279691
0.00279691
0.00283021
0.00279451
0.00282773
0.00279691
0.00279691
0.00279451
0.00278916
0.00275373
0.00278669
0.0027867
0.00275613
0.00275613
0.00278917
0.00275374
0.00278669
0.00278672
0.00275613
0.00275613
0.00278672
0.00275613
0.00275613
0.00278919
0.00275375
0.00278672
0.00275613
0.00275613
0.00275375
0.00274844
0.00271327
0.00274598
0.00274599
0.00271564
0.00271564
0.00274845
0.00271327
0.00274598
0.002746
0.00271564
0.00271564
0.002746
0.00271564
0.00271564
0.00274846
0.00271329
0.002746
0.00271564
0.00271564
0.00271329
0.00270801
0.00267309
0.00270556
0.00270556
0.00267543
0.00267542
0.00270802
0.00267308
0.00270556
0.00270557
0.00267543
0.00267542
0.00270557
0.00267543
0.00267542
0.00270803
0.00267309
0.00270557
0.00267542
0.00267542
0.00267309
0.00266786
0.00263315
0.00266541
0.00266541
0.00263547
0.00263547
0.00266786
0.00263315
0.00266541
0.00266542
0.00263547
0.00263546
0.00266542
0.00263547
0.00263546
0.00266787
0.00263315
0.00266542
0.00263546
0.00263546
0.00263315
0.00262796
0.00259346
0.00262551
0.00262551
0.00259575
0.00259575
0.00262795
0.00259346
0.00262552
0.00262551
0.00259575
0.00259575
0.00262551
0.00259575
0.00259575
0.00262796
0.00259345
0.00262551
0.00259575
0.00259575
0.00259346
0.00258829
0.00255399
0.00258586
0.00258586
0.00255626
0.00255626
0.00258829
0.00255399
0.00258586
0.00258585
0.00255626
0.00255626
0.00258585
0.00255626
0.00255626
0.00258828
0.00255399
0.00258585
0.00255626
0.00255626
0.00255399
0.00254884
0.00251474
0.00254643
0.00254643
0.002517
0.002517
0.00254885
0.00251474
0.00254643
0.00254642
0.002517
0.002517
0.00254643
0.002517
0.002517
0.00254884
0.00251474
0.00254643
0.002517
0.002517
0.00251474
0.00250962
0.0024757
0.00250722
0.00250722
0.00247795
0.00247794
0.00250962
0.0024757
0.00250722
0.00250722
0.00247794
0.00247795
0.00250722
0.00247794
0.00247794
0.00250962
0.0024757
0.00250722
0.00247795
0.00247794
0.0024757
0.0024706
0.00243686
0.00246822
0.00246821
0.0024391
0.0024391
0.0024706
0.00243686
0.00246821
0.00246822
0.0024391
0.0024391
0.00246822
0.0024391
0.0024391
0.0024706
0.00243686
0.00246822
0.0024391
0.0024391
0.00243686
0.00243178
0.00239822
0.00242942
0.00242942
0.00240045
0.00240045
0.00243178
0.00239822
0.00242942
0.00242942
0.00240045
0.00240045
0.00242942
0.00240045
0.00240045
0.00243178
0.00239822
0.00242942
0.00240045
0.00240045
0.00239822
0.00239316
0.00235977
0.00239082
0.00239081
0.00236199
0.00236199
0.00239316
0.00235977
0.00239081
0.00239081
0.00236199
0.00236199
0.00239081
0.00236199
0.00236199
0.00239316
0.00235977
0.00239081
0.00236199
0.00236199
0.00235977
0.00235472
0.00232149
0.0023524
0.0023524
0.00232371
0.00232371
0.00235472
0.0023215
0.0023524
0.0023524
0.00232371
0.00232371
0.0023524
0.00232371
0.00232371
0.00235472
0.0023215
0.0023524
0.00232371
0.00232371
0.00232149
0.00231647
0.0022834
0.00231417
0.00231417
0.0022856
0.0022856
0.00231647
0.0022834
0.00231417
0.00231417
0.0022856
0.0022856
0.00231417
0.0022856
0.0022856
0.00231647
0.0022834
0.00231417
0.0022856
0.0022856
0.0022834
0.00227839
0.00224547
0.00227611
0.00227611
0.00224768
0.00224767
0.00227839
0.00224547
0.00227611
0.00227611
0.00224768
0.00224767
0.00227611
0.00224767
0.00224767
0.00227839
0.00224547
0.00227611
0.00224767
0.00224767
0.00224547
0.00224048
0.00220771
0.00223822
0.00223822
0.00220991
0.00220991
0.00224048
0.00220771
0.00223822
0.00223822
0.00220991
0.00220991
0.00223822
0.00220991
0.00220991
0.00224048
0.00220771
0.00223822
0.00220991
0.00220991
0.00220771
0.00220273
0.00217011
0.00220049
0.00220049
0.0021723
0.0021723
0.00220273
0.00217011
0.00220049
0.00220049
0.0021723
0.0021723
0.00220049
0.0021723
0.0021723
0.00220273
0.00217011
0.00220049
0.0021723
0.0021723
0.0021701
0.00216514
0.00213265
0.00216292
0.00216292
0.00213484
0.00213484
0.00216514
0.00213265
0.00216292
0.00216292
0.00213484
0.00213484
0.00216292
0.00213484
0.00213484
0.00216514
0.00213265
0.00216292
0.00213484
0.00213484
0.00213265
0.0021277
0.00209535
0.0021255
0.0021255
0.00209753
0.00209753
0.0021277
0.00209535
0.0021255
0.0021255
0.00209753
0.00209753
0.0021255
0.00209753
0.00209753
0.0021277
0.00209535
0.0021255
0.00209753
0.00209753
0.00209535
0.00209041
0.00205818
0.00208823
0.00208823
0.00206036
0.00206036
0.00209041
0.00205818
0.00208823
0.00208823
0.00206036
0.00206036
0.00208823
0.00206036
0.00206036
0.00209041
0.00205818
0.00208823
0.00206036
0.00206036
0.00205818
0.00205326
0.00202115
0.00205109
0.00205109
0.00202332
0.00202332
0.00205326
0.00202115
0.00205109
0.00205109
0.00202332
0.00202333
0.00205109
0.00202332
0.00202332
0.00205326
0.00202115
0.00205109
0.00202333
0.00202333
0.00202115
0.00201624
0.00198425
0.00201408
0.00201408
0.00198642
0.00198642
0.00201624
0.00198425
0.00201408
0.00201409
0.00198642
0.00198642
0.00201408
0.00198642
0.00198642
0.00201624
0.00198425
0.00201409
0.00198642
0.00198642
0.00198425
0.00197935
0.00194748
0.00197721
0.00197721
0.00194963
0.00194963
0.00197935
0.00194747
0.00197721
0.00197721
0.00194963
0.00194963
0.00197721
0.00194963
0.00194963
0.00197935
0.00194747
0.00197721
0.00194963
0.00194963
0.00194747
0.00194259
0.00191081
0.00194045
0.00194045
0.00191296
0.00191296
0.00194259
0.00191081
0.00194045
0.00194045
0.00191296
0.00191296
0.00194045
0.00191296
0.00191296
0.00194259
0.00191081
0.00194045
0.00191296
0.00191296
0.00191081
0.00190594
0.00187427
0.00190381
0.00190381
0.00187641
0.00187641
0.00190594
0.00187427
0.00190381
0.00190381
0.00187641
0.00187641
0.00190381
0.00187641
0.00187641
0.00190594
0.00187427
0.00190381
0.00187641
0.00187641
0.00187427
0.0018694
0.00183783
0.00186728
0.00186728
0.00183996
0.00183996
0.0018694
0.00183783
0.00186728
0.00186728
0.00183996
0.00183996
0.00186728
0.00183996
0.00183996
0.0018694
0.00183783
0.00186728
0.00183996
0.00183996
0.00183783
0.00183297
0.00180148
0.00183087
0.00183087
0.00180361
0.00180361
0.00183297
0.00180148
0.00183087
0.00183087
0.00180361
0.00180361
0.00183087
0.00180361
0.00180361
0.00183297
0.00180148
0.00183087
0.00180361
0.00180361
0.00180148
0.00179663
0.00176527
0.00179453
0.00179453
0.00176738
0.00176738
0.00179663
0.00176527
0.00179453
0.00179453
0.00176738
0.00176738
0.00179453
0.00176738
0.00176738
0.00179663
0.00176527
0.00179453
0.00176738
0.00176738
0.00176527
0.00176042
0.00172906
0.00175833
0.00175833
0.00173118
0.00173118
0.00176043
0.00172906
0.00175833
0.00175833
0.00173118
0.00173118
0.00175833
0.00173118
0.00173118
0.00176043
0.00172906
0.00175833
0.00173118
0.00173118
0.00172906
0.00172422
0.00169309
0.00172215
0.00172215
0.00169518
0.00169518
0.00172422
0.00169309
0.00172215
0.00172215
0.00169518
0.00169518
0.00172215
0.00169518
0.00169518
0.00172422
0.00169309
0.00172215
0.00169518
0.00169518
0.00169309
0.00168826
0.00165696
0.00168619
0.00168619
0.00165909
0.00165909
0.00168827
0.00165696
0.00168619
0.00168619
0.00165909
0.00165909
0.00168619
0.00165909
0.00165909
0.00168826
0.00165696
0.00168619
0.00165909
0.00165909
0.00165696
0.00165213
0.00162132
0.00165007
0.00165007
0.00162332
0.00162332
0.00165213
0.00162131
0.00165007
0.00165007
0.00162332
0.00162332
0.00165007
0.00162332
0.00162331
0.00165213
0.00162131
0.00165007
0.00162331
0.00162331
0.0016213
0.00161654
0.00158518
0.00161445
0.00161445
0.00158737
0.00158739
0.00161654
0.00158519
0.00161445
0.00161445
0.00158737
0.00158736
0.00161444
0.00158738
0.0015874
0.00161654
0.00158518
0.00161444
0.00158738
0.0015874
0.0015852
0.00158031
0.00154983
0.00157828
0.00157828
0.00155178
0.00155176
0.00158031
0.00154982
0.00157828
0.00157827
0.00155177
0.00155178
0.00157829
0.00155177
0.00155176
0.00158031
0.00154983
0.00157829
0.00155177
0.00155176
0.00154981
0.00154522
0.00151402
0.00154319
0.00154317
0.00151629
0.00151631
0.0015452
0.00151403
0.00154319
0.00154319
0.0015163
0.00151629
0.00154317
0.0015163
0.00151632
0.00154521
0.00151403
0.00154317
0.00151631
0.00151632
0.00151405
0.00150892
0.00147804
0.00150683
0.00150684
0.00148
0.00147999
0.00150893
0.00147804
0.00150682
0.00150682
0.00147999
0.00148
0.00150684
0.00148
0.00147998
0.00150892
0.00147804
0.00150684
0.00147998
0.00147997
0.00147802
0.00147392
0.00144803
0.00147226
0.00147225
0.00145007
0.00145007
0.00147391
0.00144803
0.00147226
0.00147226
0.00145007
0.00145006
0.00147225
0.00145006
0.00145009
0.00147391
0.00144803
0.00147224
0.00145008
0.00145009
0.00144806
0.00144328
0.00140845
0.00144136
0.00144137
0.00141111
0.00141111
0.00144327
0.00140844
0.00144136
0.00144136
0.00141111
0.00141111
0.00144138
0.00141111
0.00141111
0.00144327
0.00140844
0.00144138
0.00141111
0.00141111
0.00140844
0.00140244
0.00136695
0.00140008
0.00140007
0.00136875
0.00136876
0.00140243
0.00136696
0.00140008
0.00140008
0.00136875
0.00136875
0.00140007
0.00136876
0.00136876
0.00140244
0.00136695
0.00140007
0.00136876
0.00136876
0.00136695
0.00136201
0.00133346
0.00135964
0.00135964
0.00133505
0.00133505
0.00136202
0.00133346
0.00135964
0.00135964
0.00133505
0.00133505
0.00135965
0.00133505
0.00133505
0.00136201
0.00133346
0.00135964
0.00133505
0.00133506
0.00133346
0.00132941
0.00130443
0.00132757
0.00132757
0.00130638
0.00130638
0.00132941
0.00130443
0.00132757
0.00132757
0.00130638
0.00130638
0.00132757
0.00130638
0.00130638
0.00132942
0.00130443
0.00132757
0.00130638
0.00130638
0.00130443
0.00130055
0.00127553
0.00129926
0.00129925
0.00127765
0.00127765
0.00130054
0.00127553
0.00129926
0.00129926
0.00127765
0.00127765
0.00129925
0.00127765
0.00127765
0.00130055
0.00127553
0.00129925
0.00127764
0.00127765
0.00127553
0.00127154
0.00124472
0.00127024
0.00127024
0.00124685
0.00124685
0.00127154
0.00124472
0.00127024
0.00127024
0.00124686
0.00124685
0.00127024
0.00124685
0.00124685
0.00127154
0.00124472
0.00127024
0.00124686
0.00124685
0.00124472
0.00124029
0.00121096
0.00123866
0.00123866
0.00121306
0.00121306
0.00124029
0.00121096
0.00123867
0.00123867
0.00121306
0.00121306
0.00123867
0.00121306
0.00121306
0.00124029
0.00121096
0.00123867
0.00121306
0.00121306
0.00121096
0.00120616
0.00117521
0.00120425
0.00120425
0.0011773
0.0011773
0.00120616
0.00117521
0.00120425
0.00120425
0.0011773
0.0011773
0.00120425
0.0011773
0.0011773
0.00120616
0.00117521
0.00120425
0.0011773
0.0011773
0.00117521
0.00117025
0.00113872
0.0011682
0.0011682
0.00114079
0.00114079
0.00117025
0.00113872
0.0011682
0.0011682
0.00114079
0.00114079
0.0011682
0.00114079
0.00114079
0.00117025
0.00113872
0.0011682
0.00114078
0.00114079
0.00113872
0.00113373
0.00110211
0.00113164
0.00113164
0.00110418
0.00110418
0.00113373
0.00110211
0.00113164
0.00113164
0.00110418
0.00110418
0.00113164
0.00110418
0.00110418
0.00113373
0.00110211
0.00113164
0.00110418
0.00110418
0.00110211
0.00109712
0.00106554
0.00109503
0.00109503
0.00106762
0.00106762
0.00109712
0.00106554
0.00109503
0.00109503
0.00106762
0.00106762
0.00109503
0.00106762
0.00106762
0.00109712
0.00106554
0.00109503
0.00106762
0.00106762
0.00106554
0.00106056
0.00102901
0.00105848
0.00105848
0.00103108
0.00103108
0.00106056
0.00102901
0.00105848
0.00105848
0.00103108
0.00103108
0.00105848
0.00103108
0.00103108
0.00106056
0.001029
0.00105848
0.00103108
0.00103108
0.001029
0.00102403
0.000992458
0.00102195
0.00102195
0.000994532
0.000994532
0.00102403
0.000992458
0.00102195
0.00102195
0.000994532
0.000994532
0.00102195
0.000994532
0.000994532
0.00102403
0.000992458
0.00102195
0.000994532
0.000994532
0.000992458
0.000987477
0.000955889
0.000985391
0.000985391
0.000957964
0.000957964
0.000987476
0.000955889
0.000985391
0.000985391
0.000957963
0.000957964
0.000985391
0.000957964
0.000957964
0.000987477
0.000955888
0.000985391
0.000957963
0.000957963
0.000955888
0.000950907
0.000919313
0.00094882
0.00094882
0.000921387
0.000921387
0.000950907
0.000919313
0.00094882
0.00094882
0.000921387
0.000921387
0.00094882
0.000921387
0.000921387
0.000950906
0.000919312
0.00094882
0.000921387
0.000921387
0.000919312
0.00091433
0.000882732
0.000912243
0.000912243
0.000884806
0.000884805
0.000914329
0.000882732
0.000912243
0.000912243
0.000884805
0.000884806
0.000912243
0.000884805
0.000884806
0.000914329
0.000882732
0.000912243
0.000884806
0.000884806
0.000882732
0.000877749
0.000846148
0.00087566
0.00087566
0.000848224
0.000848224
0.000877748
0.000846148
0.00087566
0.000875661
0.000848223
0.000848224
0.000875661
0.000848224
0.000848224
0.000877749
0.000846148
0.000875661
0.000848224
0.000848224
0.000846148
0.000841165
0.000809564
0.000839078
0.000839078
0.000811639
0.000811639
0.000841165
0.000809564
0.000839078
0.000839078
0.000811639
0.000811639
0.000839078
0.000811639
0.000811639
0.000841165
0.000809564
0.000839078
0.000811639
0.000811639
0.000809564
0.00080458
0.000772979
0.000802493
0.000802493
0.000775053
0.000775053
0.00080458
0.00077298
0.000802493
0.000802493
0.000775053
0.000775054
0.000802493
0.000775054
0.000775054
0.00080458
0.00077298
0.000802493
0.000775054
0.000775054
0.000772979
0.000767996
0.000736393
0.000765908
0.000765908
0.000738469
0.000738469
0.000767996
0.000736393
0.000765907
0.000765908
0.000738469
0.000738469
0.000765908
0.000738469
0.000738469
0.000767997
0.000736393
0.000765908
0.000738469
0.000738469
0.000736393
0.000731409
0.00069981
0.000729322
0.000729321
0.000701885
0.000701885
0.000731408
0.00069981
0.000729321
0.000729321
0.000701885
0.000701885
0.000729322
0.000701885
0.000701885
0.000731409
0.00069981
0.000729321
0.000701885
0.000701885
0.00069981
0.000694826
0.000663223
0.000692739
0.000692739
0.000665297
0.000665297
0.000694826
0.000663223
0.000692739
0.000692739
0.000665297
0.000665297
0.000692739
0.000665297
0.000665297
0.000694826
0.000663223
0.000692739
0.000665297
0.000665297
0.000663223
0.00065824
0.000626638
0.000656152
0.000656152
0.000628714
0.000628714
0.000658239
0.000626639
0.000656152
0.000656152
0.000628714
0.000628714
0.000656152
0.000628714
0.000628714
0.00065824
0.000626639
0.000656152
0.000628714
0.000628714
0.000626639
0.000621653
0.000590055
0.000619566
0.000619566
0.00059213
0.00059213
0.000621653
0.000590055
0.000619566
0.000619566
0.00059213
0.000592129
0.000619566
0.00059213
0.00059213
0.000621654
0.000590055
0.000619566
0.000592129
0.00059213
0.000590055
0.000585071
0.000553467
0.000582983
0.000582983
0.000555541
0.000555541
0.00058507
0.000553467
0.000582983
0.000582983
0.000555541
0.000555541
0.000582983
0.000555541
0.000555541
0.000585071
0.000553467
0.000582983
0.000555541
0.000555541
0.000553467
0.000548484
0.000516879
0.000546397
0.000546396
0.000518954
0.000518953
0.000548484
0.000516879
0.000546397
0.000546397
0.000518953
0.000518953
0.000546397
0.000518953
0.000518954
0.000548484
0.000516878
0.000546397
0.000518953
0.000518953
0.000516879
0.000511896
0.000480292
0.000509808
0.000509808
0.000482368
0.000482367
0.000511896
0.000480292
0.000509808
0.000509808
0.000482367
0.000482368
0.000509808
0.000482367
0.000482368
0.000511895
0.000480293
0.000509808
0.000482368
0.000482368
0.000480292
0.000475307
0.000443707
0.00047322
0.000473219
0.000445783
0.000445783
0.000475306
0.000443708
0.000473219
0.00047322
0.000445783
0.000445783
0.00047322
0.000445783
0.000445784
0.000475307
0.000443708
0.00047322
0.000445783
0.000445783
0.000443708
0.000438722
0.000407119
0.000436635
0.000436635
0.000409193
0.000409193
0.000438722
0.000407119
0.000436635
0.000436635
0.000409193
0.000409193
0.000436636
0.000409192
0.000409192
0.000438723
0.000407118
0.000436636
0.000409192
0.000409192
0.000407118
0.000402135
0.000370531
0.000400048
0.000400048
0.000372606
0.000372606
0.000402134
0.000370532
0.000400048
0.000400048
0.000372605
0.000372606
0.000400047
0.000372607
0.000372607
0.000402135
0.000370531
0.000400047
0.000372606
0.000372606
0.000370531
0.000365545
0.000333946
0.000363458
0.000363458
0.00033602
0.00033602
0.000365546
0.000333947
0.000363458
0.000363458
0.00033602
0.000336021
0.00036346
0.00033602
0.00033602
0.000365545
0.000333946
0.000363459
0.000336021
0.00033602
0.000333946
0.000328962
0.000297357
0.000326875
0.000326875
0.000299431
0.000299431
0.000328962
0.000297357
0.000326874
0.000326874
0.00029943
0.000299431
0.000326875
0.000299431
0.000299431
0.000328962
0.000297356
0.000326875
0.00029943
0.00029943
0.000297356
0.000292372
0.000260771
0.000290286
0.000290286
0.000262846
0.000262846
0.000292372
0.000260771
0.000290285
0.000290285
0.000262846
0.000262846
0.000290285
0.000262846
0.000262846
0.000292372
0.00026077
0.000290285
0.000262846
0.000262846
0.000260771
0.000255784
0.000224187
0.0002537
0.0002537
0.00022626
0.00022626
0.000255784
0.000224187
0.0002537
0.0002537
0.00022626
0.00022626
0.0002537
0.00022626
0.00022626
0.000255785
0.000224187
0.0002537
0.00022626
0.00022626
0.000224187
0.0002192
0.000187602
0.000217117
0.000217116
0.000189673
0.000189673
0.0002192
0.000187602
0.000217117
0.000217117
0.000189673
0.000189673
0.000217117
0.000189673
0.000189674
0.0002192
0.000187601
0.000217116
0.000189673
0.000189673
0.000187602
0.000182612
0.000151019
0.000180531
0.000180531
0.00015309
0.00015309
0.000182612
0.000151019
0.000180531
0.000180531
0.000153089
0.000153089
0.000180531
0.000153089
0.00015309
0.000182612
0.000151018
0.000180531
0.000153089
0.00015309
0.000151019
0.000146021
0.000114436
0.000143947
0.000143947
0.000116502
0.000116502
0.000146021
0.000114437
0.000143947
0.000143947
0.000116502
0.000116502
0.000143947
0.000116503
0.000116502
0.000146021
0.000114436
0.000143947
0.000116502
0.000116503
0.000114436
0.000109421
7.78463e-05
0.000107362
0.000107362
7.99077e-05
7.99076e-05
0.000109422
7.78473e-05
0.000107362
0.000107362
7.99075e-05
7.99066e-05
0.000107362
7.99075e-05
7.99065e-05
0.000109421
7.78455e-05
0.000107362
7.99068e-05
7.99065e-05
7.78454e-05
7.27968e-05
4.1285e-05
7.07692e-05
7.07691e-05
4.33469e-05
4.33472e-05
7.27967e-05
4.12859e-05
7.07685e-05
7.0768e-05
4.33451e-05
4.33441e-05
7.07684e-05
4.33457e-05
4.33435e-05
7.27967e-05
4.12821e-05
7.07683e-05
4.33434e-05
4.33422e-05
4.12816e-05
3.62602e-05
8.60503e-06
3.43791e-05
3.43791e-05
1.17824e-05
1.17811e-05
3.62601e-05
8.6031e-06
3.43777e-05
3.43754e-05
1.17848e-05
1.17766e-05
3.43741e-05
1.17813e-05
1.17744e-05
3.62572e-05
8.60042e-06
3.43735e-05
1.17804e-05
1.17805e-05
8.59898e-06
5.31437e-06
7.31763e-06
7.31607e-06
5.31295e-06
7.31941e-06
7.31304e-06
6.15326e-06
6.15372e-06
6.15236e-06
7.31179e-06
5.31144e-06
7.31612e-06
0.00363882
0.00364858
0.00364338
0.00364338
0.00366576
0.00365254
0.00368115
0.00364659
0.00366576
0.00365255
0.00364659
0.00368115
0.00365712
0.00368489
0.00368489
0.00359418
0.00361332
0.00362251
0.00358626
0.00358699
0.00358976
0.00359415
0.0036133
0.0036225
0.00358624
0.00361703
0.00361704
0.00361704
0.00357363
0.00357363
0.00357363
0.00357363
0.00359168
0.0036175
0.00361743
0.0036005
0.00362053
0.00359058
0.00360139
0.0035871
0.00358976
0.00359168
0.00361744
0.00361751
0.00360051
0.00362052
0.00360139
0.00359058
0.00362338
0.00362336
0.0035949
0.00359022
0.00359021
0.00354755
0.00356682
0.00356819
0.00354608
0.00356573
0.00354564
0.00354754
0.00356682
0.00356819
0.00354608
0.00356168
0.00356168
0.00356168
0.00352409
0.00352409
0.00352409
0.00352409
0.00354613
0.0035669
0.00356168
0.00354981
0.00356569
0.00354667
0.00354954
0.00356573
0.00354563
0.00354613
0.00356168
0.0035669
0.00354981
0.00356569
0.00354954
0.00354667
0.00356792
0.00356792
0.00354636
0.003547
0.00354701
0.00349528
0.00351409
0.00351516
0.00349426
0.00351372
0.00349398
0.00349528
0.00351408
0.00351516
0.00349426
0.00351093
0.00351093
0.00351093
0.00347155
0.00347155
0.00347155
0.00347155
0.00349438
0.00351449
0.0035108
0.00349776
0.00351393
0.00349475
0.00349767
0.00351372
0.00349398
0.00349438
0.0035108
0.00351449
0.00349776
0.00351392
0.00349767
0.00349475
0.00351473
0.00351473
0.00349437
0.00349481
0.00349481
0.00344276
0.00346141
0.00346227
0.00344199
0.00346121
0.00344181
0.00344276
0.00346141
0.00346227
0.00344199
0.00345854
0.00345854
0.00345854
0.00341992
0.00341992
0.00341992
0.00341992
0.00344225
0.00346182
0.00345851
0.00344561
0.00346154
0.00344244
0.00344557
0.00346121
0.00344181
0.00344225
0.00345851
0.00346182
0.00344561
0.00346154
0.00344557
0.00344243
0.00346186
0.00346186
0.00344229
0.00344237
0.00344237
0.00339156
0.00340992
0.00341055
0.00339101
0.00340977
0.00339087
0.00339156
0.00340992
0.00341055
0.00339101
0.00340719
0.00340719
0.00340719
0.00336957
0.00336957
0.00336957
0.00336957
0.00339129
0.00341027
0.00340717
0.00339457
0.0034101
0.0033914
0.00339454
0.00340977
0.00339087
0.00339129
0.00340717
0.00341027
0.00339457
0.0034101
0.00339454
0.0033914
0.00341025
0.00341025
0.00339137
0.00339131
0.00339131
0.00334192
0.00335987
0.00336032
0.00334153
0.00335976
0.0033414
0.00334192
0.00335987
0.00336032
0.00334153
0.00335722
0.00335722
0.00335722
0.0033207
0.0033207
0.0033207
0.0033207
0.0033418
0.00336017
0.0033572
0.00334497
0.00336005
0.00334187
0.00334494
0.00335975
0.00334141