/*--------------------------------*- C++ -*----------------------------------*\
| =========                 |                                                 |
| \\      /  F ield         | OpenFOAM: The Open Source CFD Toolbox           |
|  \\    /   O peration     | Version:  v2012                                 |
|   \\  /    A nd           | Website:  www.openfoam.com                      |
|    \\/     M anipulation  |                                                 |
\*---------------------------------------------------------------------------*/
FoamFile
{
    version     2.0;
    format      ascii;
    class       volScalarField;
    location    "250";
    object      p;
}
// * * * * * * * * * * * * * * * * * * * * * * * * * * * * * * * * * * * * * //

dimensions      [0 2 -2 0 0 0 0];


internalField   nonuniform List<scalar> 
171728
(
0.00353241
0.00353145
0.00353145
0.00353215
0.00349672
0.00349542
0.00349537
0.00349821
0.00345878
0.00345694
0.00345681
0.00345914
0.00341452
0.00341292
0.0034128
0.00341514
0.00336612
0.00336467
0.00336455
0.00336702
0.00331747
0.00331608
0.00331605
0.00331844
0.00326951
0.00326829
0.00326824
0.00327062
0.00322216
0.00322103
0.003221
0.00322342
0.00317581
0.00317483
0.00317478
0.00317719
0.00313053
0.00312964
0.00312965
0.00313199
0.0030861
0.00308524
0.00308524
0.00308768
0.00304243
0.00304173
0.00304169
0.00304416
0.00299932
0.00299868
0.00299869
0.00300112
0.00295661
0.00295612
0.00295606
0.0029585
0.00291424
0.00291375
0.0029139
0.00291624
0.00287218
0.00287179
0.00287186
0.00287426
0.00283049
0.00283008
0.00283014
0.00283247
0.00278907
0.00278888
0.0027887
0.00279102
0.00274812
0.00274775
0.00274798
0.00275005
0.00270736
0.00270714
0.00270718
0.00270933
0.002667
0.00266708
0.0026669
0.00266894
0.002627
0.00262654
0.00262669
0.00262877
0.00258725
0.00258733
0.00258717
0.00258886
0.00254776
0.00254761
0.00254779
0.00255003
0.00250849
0.00250871
0.00250836
0.00250952
0.00246958
0.00246938
0.00246978
0.00247247
0.00243072
0.00243096
0.00243063
0.00243207
0.00239219
0.00239219
0.0023922
0.00239402
0.00235385
0.00235391
0.00235398
0.00235676
0.00231568
0.00231583
0.00231577
0.00231739
0.0022778
0.00227812
0.00227802
0.00228047
0.00223985
0.00223999
0.00224
0.00224186
0.00220243
0.00220276
0.00220274
0.00220492
0.00216478
0.00216511
0.00216501
0.00216707
0.00212747
0.00212769
0.00212773
0.00212969
0.00209032
0.0020906
0.00209064
0.00209254
0.00205334
0.0020536
0.00205351
0.00205556
0.00201645
0.00201664
0.00201674
0.00201862
0.00197975
0.00197991
0.00197984
0.00198189
0.00194321
0.00194334
0.00194336
0.00194533
0.0019068
0.00190684
0.00190685
0.00190884
0.00187053
0.00187058
0.00187054
0.00187259
0.00183444
0.00183442
0.00183444
0.00183644
0.00179851
0.00179843
0.00179846
0.00180049
0.00176274
0.00176261
0.00176255
0.00176461
0.00172699
0.00172692
0.00172702
0.00172899
0.00169181
0.00169159
0.00169151
0.00169361
0.00165654
0.00165629
0.00165631
0.00165834
0.00162158
0.00162131
0.00162136
0.00162328
0.00158672
0.00158652
0.00158647
0.00158851
0.00155247
0.00155215
0.00155214
0.00155411
0.00151784
0.00151747
0.00151747
0.00151945
0.00148355
0.00148358
0.00148356
0.00148553
0.00145086
0.0014505
0.00145048
0.00145231
0.00141792
0.00141708
0.00141708
0.00141882
0.00138274
0.0013822
0.00138221
0.00138413
0.00134542
0.00134516
0.00134517
0.00134725
0.00130688
0.00130747
0.00130748
0.00130983
0.00126931
0.00126997
0.00126997
0.00127233
0.00123456
0.00123494
0.00123494
0.00123703
0.00120357
0.00120332
0.00120332
0.00120501
0.00117423
0.00117335
0.00117335
0.0011747
0.00114423
0.00114345
0.00114345
0.00114486
0.00111284
0.00111236
0.00111236
0.00111399
0.0010798
0.00107956
0.00107956
0.00108138
0.00104532
0.0010452
0.0010452
0.00104715
0.00100991
0.00100985
0.00100985
0.00101187
0.000974027
0.000973995
0.000973995
0.000976052
0.000937941
0.000937915
0.000937914
0.000939986
0.000901799
0.000901771
0.000901771
0.000903844
0.000865625
0.000865598
0.000865598
0.000867674
0.000829448
0.000829419
0.000829419
0.000831494
0.000793274
0.000793247
0.000793247
0.000795322
0.000757099
0.000757071
0.000757071
0.000759146
0.000720929
0.000720901
0.000720901
0.000722977
0.000684757
0.000684729
0.000684729
0.000686804
0.000648586
0.00064856
0.00064856
0.000650635
0.000612414
0.000612384
0.000612384
0.000614459
0.000576242
0.000576215
0.000576214
0.00057829
0.00054007
0.000540043
0.000540043
0.000542116
0.000503899
0.000503871
0.000503871
0.000505946
0.000467728
0.0004677
0.000467701
0.000469776
0.000431556
0.000431528
0.000431528
0.000433602
0.000395383
0.000395354
0.000395354
0.000397429
0.000359208
0.000359181
0.000359181
0.000361256
0.000323033
0.000323006
0.000323006
0.000325081
0.000286858
0.000286829
0.000286829
0.000288902
0.000250684
0.000250656
0.000250657
0.000252729
0.00021451
0.000214484
0.000214484
0.000216554
0.000178336
0.000178309
0.000178309
0.000180376
0.00014216
0.000142134
0.000142134
0.000144191
0.000105978
0.000105959
0.000105958
0.000107998
6.97992e-05
6.97744e-05
6.97734e-05
7.1781e-05
3.43953e-05
3.38243e-05
3.38212e-05
3.56746e-05
6.00605e-06
6.81255e-06
6.81176e-06
5.12901e-06
0.00353696
0.00353458
0.00353466
0.00353698
0.00353461
0.00353463
0.00354084
0.0035408
0.00354085
0.00354084
0.00353468
0.00353449
0.00353698
0.00353462
0.0035345
0.0035369
0.00353219
0.00350292
0.00353143
0.00353143
0.0035047
0.00350465
0.00353221
0.00350289
0.00353143
0.00353144
0.00350468
0.00350467
0.00353139
0.00350459
0.00350472
0.00353221
0.00350292
0.00353142
0.00350473
0.00350468
0.00350293
0.00349822
0.00346463
0.00349538
0.00349538
0.00346683
0.00346685
0.00349822
0.0034647
0.00349536
0.00349538
0.00346684
0.00346688
0.00349536
0.00346686
0.00346682
0.00349822
0.00346463
0.00349539
0.00346688
0.00346678
0.00346462
0.00345916
0.00342137
0.00345685
0.00345691
0.00342448
0.00342453
0.00345923
0.00342139
0.00345688
0.00345684
0.00342446
0.00342446
0.0034568
0.00342448
0.00342447
0.00345914
0.00342135
0.00345679
0.00342453
0.00342445
0.00342137
0.00341515
0.00337352
0.0034129
0.00341288
0.00337685
0.00337685
0.00341517
0.00337355
0.00341287
0.00341293
0.00337686
0.00337686
0.00341288
0.00337691
0.00337684
0.00341512
0.0033735
0.00341286
0.00337688
0.00337683
0.00337351
0.00336703
0.00332487
0.0033646
0.0033647
0.00332812
0.00332819
0.00336708
0.00332487
0.00336459
0.0033646
0.00332812
0.00332814
0.00336461
0.00332817
0.00332813
0.00336702
0.00332487
0.0033646
0.00332811
0.00332812
0.00332485
0.00331846
0.00327693
0.00331604
0.00331601
0.00328013
0.00328008
0.00331848
0.00327695
0.00331604
0.00331604
0.00328014
0.00328017
0.00331602
0.00328018
0.00328014
0.00331848
0.00327694
0.00331603
0.00328012
0.00328013
0.00327693
0.00327064
0.00322963
0.00326827
0.0032683
0.00323273
0.00323271
0.00327068
0.00322964
0.00326824
0.00326826
0.00323273
0.00323274
0.00326824
0.0032328
0.00323273
0.00327064
0.00322963
0.00326825
0.00323276
0.00323272
0.00322961
0.00322345
0.00318323
0.00322101
0.00322109
0.00318621
0.00318619
0.00322348
0.00318325
0.00322102
0.00322102
0.00318622
0.00318622
0.00322101
0.00318626
0.0031862
0.00322344
0.00318325
0.00322102
0.00318622
0.0031862
0.00318322
0.0031772
0.00313793
0.00317477
0.00317482
0.00314081
0.00314083
0.00317724
0.00313794
0.00317477
0.0031748
0.00314081
0.00314084
0.00317478
0.00314085
0.00314081
0.00317722
0.00313793
0.00317478
0.00314081
0.0031408
0.00313791
0.00313204
0.00309349
0.0031296
0.00312961
0.00309628
0.00309631
0.00313206
0.00309347
0.00312961
0.00312958
0.0030963
0.0030963
0.00312957
0.0030963
0.00309626
0.00313203
0.00309352
0.00312958
0.00309633
0.00309627
0.00309348
0.0030877
0.0030498
0.00308527
0.00308523
0.00305254
0.00305259
0.0030877
0.00304979
0.00308526
0.00308526
0.00305254
0.00305252
0.00308524
0.00305255
0.00305249
0.00308774
0.00304987
0.00308524
0.0030525
0.00305248
0.00304981
0.00304414
0.0030067
0.00304171
0.00304171
0.00300944
0.00300938
0.00304408
0.00300664
0.0030417
0.00304173
0.00300945
0.00300937
0.0030417
0.0030094
0.00300932
0.00304419
0.00300672
0.00304174
0.00300929
0.00300934
0.00300672
0.00300107
0.00296405
0.00299861
0.0029987
0.00296675
0.00296677
0.003001
0.00296411
0.00299861
0.00299872
0.00296674
0.00296661
0.00299875
0.00296675
0.00296667
0.00300111
0.00296404
0.00299872
0.00296664
0.00296665
0.00296401
0.00295847
0.00292169
0.00295595
0.00295616
0.00292441
0.00292418
0.00295849
0.00292148
0.00295597
0.00295614
0.00292443
0.00292411
0.00295616
0.00292414
0.00292427
0.00295849
0.00292169
0.00295616
0.00292422
0.00292429
0.00292163
0.00291612
0.00287963
0.00291365
0.00291371
0.00288245
0.00288235
0.00291602
0.00287955
0.00291368
0.00291383
0.00288249
0.00288218
0.00291388
0.00288222
0.00288218
0.00291623
0.00287951
0.0029139
0.00288219
0.00288224
0.00287962
0.00287416
0.00283799
0.00287184
0.00287162
0.00284059
0.00284067
0.00287404
0.0028378
0.0028719
0.00287177
0.00284063
0.00284068
0.00287187
0.00284051
0.00284036
0.0028741
0.00283781
0.00287187
0.00284039
0.00284034
0.00283781
0.00283267
0.00279622
0.00283036
0.00283007
0.00279891
0.00279901
0.00283237
0.00279635
0.00283035
0.00283027
0.00279886
0.00279895
0.00283008
0.00279885
0.00279899
0.00283244
0.00279647
0.00283005
0.002799
0.00279903
0.00279633
0.00279091
0.00275524
0.00278863
0.00278883
0.00275837
0.00275826
0.00279111
0.00275519
0.00278855
0.00278877
0.00275813
0.00275799
0.00278876
0.00275804
0.00275808
0.0027911
0.0027553
0.00278867
0.00275818
0.00275807
0.00275529
0.00275002
0.00271456
0.00274805
0.00274795
0.00271721
0.0027174
0.00274997
0.00271426
0.0027479
0.0027478
0.00271716
0.00271726
0.0027478
0.00271744
0.00271743
0.00275006
0.00271456
0.0027478
0.00271729
0.00271745
0.0027145
0.00270933
0.0026739
0.00270726
0.00270738
0.00267681
0.00267667
0.0027092
0.0026738
0.00270717
0.00270706
0.00267683
0.00267691
0.00270719
0.00267689
0.002677
0.00270929
0.00267403
0.00270719
0.0026769
0.00267697
0.00267402
0.00266866
0.00263378
0.00266662
0.00266707
0.002637
0.00263673
0.00266877
0.00263388
0.00266664
0.0026668
0.002637
0.00263686
0.00266697
0.00263666
0.00263679
0.00266881
0.00263393
0.00266694
0.00263675
0.00263682
0.00263373
0.0026288
0.0025939
0.00262705
0.00262654
0.00259688
0.00259727
0.0026286
0.00259393
0.00262701
0.00262667
0.00259697
0.00259727
0.00262691
0.00259725
0.00259709
0.00262864
0.00259411
0.00262694
0.00259716
0.00259708
0.00259396
0.00258895
0.00255444
0.00258718
0.00258741
0.00255742
0.00255756
0.00258913
0.00255441
0.00258724
0.00258723
0.00255743
0.00255745
0.00258712
0.00255757
0.00255762
0.00258907
0.00255432
0.00258708
0.00255742
0.00255765
0.00255481
0.0025495
0.00251524
0.00254769
0.00254763
0.00251821
0.00251813
0.00254932
0.00251487
0.00254771
0.00254782
0.00251821
0.00251826
0.00254792
0.00251817
0.00251786
0.00254962
0.00251524
0.00254786
0.00251825
0.00251793
0.00251472
0.00251009
0.00247671
0.00250833
0.00250865
0.00247938
0.00247931
0.00251057
0.00247641
0.00250832
0.00250837
0.00247939
0.00247925
0.00250821
0.00247932
0.00247964
0.00251012
0.00247665
0.00250817
0.00247935
0.00247958
0.00247775
0.00247176
0.00243754
0.0024696
0.00246938
0.00244044
0.00244058
0.00247111
0.00243825
0.00246962
0.00246976
0.00244042
0.00244028
0.00246971
0.00244056
0.0024402
0.00247212
0.00243737
0.00246971
0.00244024
0.00244019
0.00243682
0.00243264
0.00239924
0.00243076
0.00243098
0.00240182
0.0024017
0.00243363
0.00239881
0.00243074
0.00243065
0.00240182
0.00240187
0.00243068
0.0024017
0.00240177
0.00243232
0.00239966
0.00243072
0.00240187
0.00240177
0.00239916
0.00239425
0.00236104
0.00239219
0.00239218
0.00236355
0.00236352
0.00239381
0.00236139
0.00239219
0.0023922
0.00236354
0.00236353
0.0023922
0.00236352
0.00236363
0.0023946
0.00236088
0.0023922
0.00236352
0.00236359
0.00236166
0.00235622
0.00232284
0.002354
0.00235394
0.00232529
0.00232537
0.00235633
0.00232279
0.00235401
0.00235399
0.0023253
0.00232536
0.00235395
0.00232536
0.00232523
0.00235607
0.00232307
0.00235393
0.00232535
0.00232525
0.00232229
0.00231775
0.00228514
0.00231587
0.00231581
0.00228744
0.00228752
0.00231803
0.00228486
0.00231586
0.00231578
0.00228745
0.00228751
0.00231587
0.00228751
0.00228752
0.00231815
0.00228488
0.0023159
0.00228752
0.0022875
0.00228538
0.00228031
0.00224677
0.00227793
0.00227815
0.00224948
0.00224952
0.00228001
0.00224721
0.00227793
0.00227803
0.00224948
0.00224944
0.00227798
0.00224951
0.00224943
0.00228
0.00224715
0.00227796
0.00224943
0.00224941
0.00224684
0.00224186
0.0022098
0.00224017
0.00223998
0.00221207
0.00221198
0.00224227
0.0022093
0.00224016
0.00224001
0.00221209
0.00221212
0.00224004
0.00221198
0.00221212
0.00224214
0.00220968
0.00224003
0.00221211
0.00221215
0.0022098
0.00220493
0.00217189
0.00220267
0.00220275
0.00217442
0.0021746
0.00220457
0.00217214
0.00220269
0.00220274
0.0021744
0.00217441
0.00220275
0.00217459
0.00217444
0.00220482
0.00217199
0.00220278
0.00217444
0.00217442
0.00217201
0.00216698
0.0021346
0.00216506
0.00216511
0.00213704
0.00213694
0.00216721
0.00213447
0.00216503
0.002165
0.00213706
0.00213704
0.00216502
0.00213697
0.00213705
0.00216703
0.00213456
0.00216498
0.00213702
0.00213704
0.00213456
0.00212972
0.00209742
0.00212774
0.00212768
0.00209989
0.0020999
0.0021296
0.00209744
0.00212776
0.00212775
0.00209988
0.00209991
0.00212775
0.00209987
0.00209987
0.00212971
0.00209747
0.00212776
0.00209993
0.00209988
0.00209741
0.00209256
0.00206039
0.0020906
0.00209061
0.00206282
0.00206283
0.00209258
0.00206041
0.00209059
0.00209063
0.00206283
0.00206277
0.00209058
0.00206284
0.00206282
0.00209257
0.00206035
0.00209058
0.00206276
0.00206282
0.00206043
0.00205552
0.00202349
0.00205357
0.00205358
0.00202588
0.00202589
0.00205554
0.00202348
0.00205358
0.00205351
0.00202586
0.00202594
0.00205361
0.00202588
0.0020259
0.0020555
0.00202354
0.0020536
0.00202595
0.00202589
0.00202345
0.00201865
0.00198672
0.00201667
0.00201667
0.00198907
0.00198906
0.00201862
0.00198674
0.00201666
0.00201673
0.00198909
0.00198904
0.00201665
0.00198906
0.00198906
0.00201867
0.00198668
0.00201665
0.00198903
0.00198907
0.00198674
0.00198187
0.00195017
0.00197988
0.0019799
0.00195247
0.00195248
0.00198191
0.00195014
0.00197991
0.00197986
0.00195245
0.00195246
0.00197992
0.00195249
0.00195248
0.00198186
0.00195017
0.00197993
0.00195247
0.00195249
0.00195016
0.00194534
0.00191366
0.00194336
0.00194334
0.00191596
0.00191595
0.0019453
0.00191369
0.00194334
0.00194334
0.00191597
0.00191599
0.00194334
0.00191594
0.00191595
0.00194534
0.0019137
0.00194333
0.00191597
0.00191593
0.00191365
0.00190886
0.00187742
0.00190684
0.00190685
0.00187964
0.00187963
0.00190888
0.0018774
0.00190685
0.00190688
0.00187963
0.00187959
0.00190683
0.00187963
0.0018796
0.00190888
0.00187735
0.00190684
0.0018796
0.00187963
0.0018774
0.0018726
0.0018412
0.0018706
0.00187057
0.00184341
0.00184344
0.00187259
0.00184123
0.00187059
0.00187052
0.00184342
0.00184346
0.00187058
0.00184345
0.00184347
0.00187255
0.00184127
0.00187058
0.00184344
0.00184344
0.00184123
0.00183642
0.0018053
0.00183437
0.00183442
0.00180745
0.00180741
0.00183643
0.00180525
0.00183439
0.00183447
0.00180746
0.00180745
0.00183441
0.0018074
0.00180739
0.00183649
0.00180526
0.00183442
0.00180747
0.00180742
0.00180526
0.00180053
0.00176937
0.00179851
0.00179844
0.00177155
0.00177157
0.00180048
0.00176942
0.00179851
0.00179843
0.00177155
0.00177149
0.00179846
0.00177156
0.00177159
0.00180047
0.00176938
0.00179844
0.00177148
0.0017715
0.00176939
0.0017646
0.00173371
0.00176256
0.00176262
0.00173578
0.0017358
0.00176464
0.0017337
0.00176256
0.00176257
0.00173576
0.00173589
0.0017626
0.0017358
0.00173576
0.00176462
0.00173379
0.00176255
0.0017359
0.00173581
0.00173371
0.00172898
0.00169834
0.00172692
0.00172692
0.00170043
0.0017004
0.00172897
0.00169831
0.00172692
0.00172701
0.00170046
0.00170039
0.00172691
0.00170041
0.00170044
0.00172904
0.00169826
0.00172695
0.00170037
0.00170043
0.00169833
0.00169362
0.00166301
0.0016916
0.00169158
0.00166509
0.0016651
0.0016936
0.00166304
0.00169164
0.00169154
0.00166507
0.00166505
0.00169161
0.00166509
0.00166509
0.00169354
0.00166303
0.0016916
0.00166507
0.00166511
0.00166304
0.00165831
0.00162798
0.00165629
0.00165631
0.00163005
0.00163006
0.00165833
0.00162799
0.00165625
0.00165628
0.00163003
0.00163009
0.00165629
0.00163005
0.00163005
0.00165834
0.00162803
0.00165632
0.00163012
0.00163005
0.00162797
0.0016233
0.00159315
0.0016213
0.00162131
0.00159515
0.00159515
0.0016233
0.00159315
0.0016213
0.00162135
0.00159516
0.00159515
0.00162128
0.00159516
0.00159512
0.00162333
0.00159312
0.00162128
0.00159512
0.00159513
0.00159314
0.00158852
0.00155872
0.00158651
0.00158651
0.00156077
0.00156076
0.00158852
0.00155873
0.00158651
0.0015865
0.00156076
0.00156075
0.0015865
0.00156078
0.0015608
0.00158849
0.00155872
0.00158651
0.00156075
0.00156079
0.00155875
0.00155409
0.00152409
0.00155215
0.00155214
0.00152612
0.00152611
0.00155409
0.00152408
0.00155214
0.00155213
0.00152612
0.00152611
0.00155217
0.0015261
0.00152612
0.00155409
0.00152408
0.00155216
0.00152612
0.00152612
0.00152409
0.00151945
0.00149003
0.00151748
0.00151747
0.00149194
0.00149194
0.00151945
0.00149003
0.00151748
0.00151747
0.00149195
0.00149193
0.00151748
0.00149195
0.00149195
0.00151945
0.00149002
0.00151748
0.00149193
0.00149195
0.00149003
0.00148552
0.0014568
0.00148357
0.00148357
0.00145877
0.00145877
0.00148552
0.00145681
0.00148357
0.00148357
0.00145877
0.00145878
0.00148358
0.00145878
0.00145878
0.00148551
0.0014568
0.00148358
0.00145876
0.00145877
0.0014568
0.00145232
0.00142336
0.00145049
0.00145049
0.0014255
0.00142551
0.00145232
0.00142336
0.00145049
0.0014505
0.0014255
0.00142551
0.0014505
0.0014255
0.0014255
0.00145232
0.00142336
0.00145048
0.0014255
0.0014255
0.00142336
0.00141882
0.00138894
0.00141708
0.00141709
0.00139114
0.00139114
0.00141883
0.00138894
0.00141708
0.00141708
0.00139114
0.00139114
0.00141708
0.00139114
0.00139114
0.00141882
0.00138894
0.00141708
0.00139114
0.00139114
0.00138894
0.00138412
0.00135234
0.0013822
0.0013822
0.00135459
0.00135459
0.00138413
0.00135234
0.00138219
0.0013822
0.00135459
0.00135459
0.0013822
0.00135459
0.00135459
0.00138413
0.00135234
0.0013822
0.00135459
0.00135459
0.00135234
0.00134725
0.0013149
0.00134516
0.00134516
0.00131685
0.00131685
0.00134724
0.0013149
0.00134516
0.00134516
0.00131685
0.00131686
0.00134516
0.00131685
0.00131685
0.00134725
0.0013149
0.00134516
0.00131685
0.00131685
0.0013149
0.00130983
0.00127733
0.00130747
0.00130747
0.00127923
0.00127923
0.00130983
0.00127732
0.00130748
0.00130748
0.00127923
0.00127923
0.00130747
0.00127923
0.00127923
0.00130983
0.00127732
0.00130747
0.00127923
0.00127923
0.00127733
0.00127233
0.00124157
0.00126997
0.00126997
0.00124335
0.00124335
0.00127233
0.00124157
0.00126997
0.00126997
0.00124335
0.00124335
0.00126996
0.00124335
0.00124335
0.00127233
0.00124157
0.00126996
0.00124335
0.00124335
0.00124157
0.00123703
0.00120919
0.00123494
0.00123494
0.001211
0.001211
0.00123703
0.00120919
0.00123494
0.00123494
0.001211
0.001211
0.00123494
0.00121101
0.001211
0.00123703
0.00120919
0.00123494
0.00121101
0.00121101
0.00120919
0.00120501
0.00117871
0.00120332
0.00120332
0.00118075
0.00118075
0.00120501
0.00117871
0.00120332
0.00120332
0.00118075
0.00118075
0.00120332
0.00118075
0.00118075
0.00120501
0.00117871
0.00120332
0.00118075
0.00118075
0.00117871
0.0011747
0.00114894
0.00117335
0.00117335
0.00115101
0.00115101
0.0011747
0.00114894
0.00117335
0.00117335
0.00115101
0.00115101
0.00117335
0.00115101
0.001151
0.0011747
0.00114894
0.00117335
0.00115101
0.00115101
0.00114894
0.00114486
0.00111827
0.00114345
0.00114345
0.00112028
0.00112029
0.00114486
0.00111827
0.00114345
0.00114345
0.00112028
0.00112028
0.00114345
0.00112029
0.00112028
0.00114486
0.00111827
0.00114345
0.00112029
0.00112029
0.00111827
0.00111399
0.00108592
0.00111236
0.00111236
0.00108792
0.00108792
0.00111399
0.00108592
0.00111236
0.00111236
0.00108792
0.00108792
0.00111236
0.00108792
0.00108792
0.00111399
0.00108592
0.00111236
0.00108792
0.00108792
0.00108592
0.00108138
0.00105188
0.00107956
0.00107956
0.0010539
0.0010539
0.00108138
0.00105188
0.00107956
0.00107956
0.0010539
0.0010539
0.00107956
0.0010539
0.0010539
0.00108138
0.00105188
0.00107956
0.0010539
0.0010539
0.00105188
0.00104715
0.0010167
0.0010452
0.0010452
0.00101875
0.00101875
0.00104715
0.0010167
0.0010452
0.0010452
0.00101875
0.00101875
0.0010452
0.00101875
0.00101875
0.00104715
0.0010167
0.0010452
0.00101875
0.00101875
0.0010167
0.00101187
0.000980931
0.00100985
0.00100985
0.000982988
0.000982988
0.00101187
0.000980931
0.00100985
0.00100985
0.000982988
0.000982988
0.00100985
0.000982988
0.000982988
0.00101187
0.00098093
0.00100985
0.000982988
0.000982988
0.00098093
0.000976052
0.000944886
0.000973995
0.000973995
0.000946946
0.000946946
0.000976052
0.000944886
0.000973995
0.000973995
0.000946946
0.000946946
0.000973995
0.000946946
0.000946946
0.000976052
0.000944885
0.000973995
0.000946946
0.000946946
0.000944885
0.000939986
0.000908746
0.000937915
0.000937915
0.000910809
0.000910809
0.000939986
0.000908747
0.000937915
0.000937914
0.000910809
0.000910809
0.000937915
0.000910809
0.000910809
0.000939986
0.000908746
0.000937914
0.000910808
0.000910809
0.000908746
0.000903844
0.000872579
0.000901771
0.000901771
0.000874643
0.000874643
0.000903844
0.00087258
0.000901771
0.000901771
0.000874643
0.000874644
0.000901771
0.000874643
0.000874644
0.000903844
0.00087258
0.000901771
0.000874644
0.000874644
0.00087258
0.000867673
0.000836399
0.000865598
0.000865598
0.000838462
0.000838462
0.000867673
0.000836399
0.000865598
0.000865598
0.000838462
0.000838462
0.000865598
0.000838462
0.000838463
0.000867674
0.000836399
0.000865598
0.000838463
0.000838463
0.000836399
0.000831494
0.000800227
0.000829419
0.000829419
0.000802291
0.000802291
0.000831494
0.000800227
0.000829419
0.000829419
0.000802291
0.000802291
0.000829419
0.000802291
0.000802291
0.000831494
0.000800227
0.000829419
0.000802291
0.000802291
0.000800227
0.000795322
0.00076405
0.000793247
0.000793247
0.000766114
0.000766113
0.000795322
0.00076405
0.000793247
0.000793247
0.000766114
0.000766114
0.000793247
0.000766114
0.000766114
0.000795322
0.00076405
0.000793247
0.000766114
0.000766114
0.00076405
0.000759145
0.00072788
0.000757071
0.000757071
0.000729943
0.000729943
0.000759145
0.000727881
0.000757071
0.000757071
0.000729943
0.000729943
0.000757071
0.000729943
0.000729943
0.000759145
0.00072788
0.000757071
0.000729943
0.000729943
0.00072788
0.000722976
0.000691709
0.000720901
0.000720901
0.000693773
0.000693773
0.000722976
0.000691709
0.000720901
0.000720901
0.000693773
0.000693773
0.000720901
0.000693773
0.000693774
0.000722976
0.000691709
0.000720901
0.000693773
0.000693773
0.000691709
0.000686804
0.000655538
0.000684729
0.000684729
0.000657601
0.000657601
0.000686803
0.000655538
0.000684729
0.000684729
0.000657601
0.000657601
0.000684729
0.000657601
0.000657601
0.000686803
0.000655538
0.000684729
0.000657601
0.000657601
0.000655538
0.000650635
0.000619365
0.00064856
0.00064856
0.000621428
0.000621428
0.000650635
0.000619365
0.00064856
0.00064856
0.000621428
0.000621428
0.00064856
0.000621428
0.000621428
0.000650635
0.000619364
0.00064856
0.000621428
0.000621428
0.000619365
0.000614459
0.000583195
0.000612384
0.000612384
0.000585258
0.000585258
0.000614459
0.000583195
0.000612384
0.000612384
0.000585258
0.000585258
0.000612384
0.000585258
0.000585258
0.000614459
0.000583195
0.000612384
0.000585258
0.000585258
0.000583195
0.00057829
0.00054702
0.000576215
0.000576215
0.000549085
0.000549084
0.00057829
0.000547021
0.000576215
0.000576215
0.000549084
0.000549084
0.000576215
0.000549085
0.000549085
0.00057829
0.00054702
0.000576214
0.000549085
0.000549085
0.00054702
0.000542116
0.000510851
0.000540043
0.000540043
0.000512914
0.000512913
0.000542116
0.000510851
0.000540042
0.000540043
0.000512913
0.000512913
0.000540043
0.000512913
0.000512914
0.000542116
0.000510851
0.000540043
0.000512913
0.000512913
0.000510851
0.000505946
0.000474679
0.000503871
0.000503871
0.000476743
0.000476743
0.000505946
0.00047468
0.000503871
0.000503871
0.000476743
0.000476743
0.000503871
0.000476743
0.000476743
0.000505946
0.00047468
0.000503871
0.000476743
0.000476743
0.00047468
0.000469775
0.000438507
0.0004677
0.000467701
0.00044057
0.00044057
0.000469776
0.000438506
0.0004677
0.0004677
0.000440571
0.00044057
0.000467701
0.00044057
0.000440571
0.000469776
0.000438506
0.000467701
0.00044057
0.00044057
0.000438506
0.000433602
0.000402335
0.000431528
0.000431528
0.000404398
0.000404397
0.000433601
0.000402335
0.000431528
0.000431528
0.000404397
0.000404397
0.000431528
0.000404397
0.000404398
0.000433602
0.000402334
0.000431528
0.000404397
0.000404397
0.000402335
0.000397429
0.000366161
0.000395354
0.000395354
0.000368224
0.000368224
0.000397428
0.000366162
0.000395354
0.000395354
0.000368223
0.000368224
0.000395354
0.000368224
0.000368224
0.000397428
0.000366162
0.000395354
0.000368224
0.000368224
0.000366162
0.000361256
0.000329984
0.000359181
0.000359181
0.000332047
0.000332047
0.000361256
0.000329985
0.00035918
0.000359181
0.000332047
0.000332048
0.000359181
0.000332047
0.000332047
0.000361256
0.000329985
0.000359181
0.000332047
0.000332047
0.000329985
0.000325079
0.000293809
0.000323006
0.000323006
0.000295872
0.000295871
0.00032508
0.000293809
0.000323006
0.000323006
0.000295872
0.000295871
0.000323007
0.000295871
0.000295871
0.00032508
0.000293808
0.000323007
0.000295871
0.000295871
0.000293808
0.000288902
0.000257637
0.000286829
0.000286829
0.000259698
0.000259698
0.000288902
0.000257636
0.00028683
0.00028683
0.000259698
0.000259697
0.000286829
0.000259699
0.0002597
0.000288902
0.000257636
0.000286829
0.000259699
0.000259699
0.000257637
0.000252729
0.000221463
0.000250656
0.000250655
0.000223523
0.000223524
0.000252727
0.000221464
0.000250657
0.000250656
0.000223522
0.000223524
0.000250657
0.000223524
0.000223523
0.000252728
0.000221463
0.000250657
0.000223523
0.000223523
0.000221463
0.000216553
0.000185289
0.000214483
0.000214483
0.000187349
0.000187349
0.000216553
0.000185289
0.000214483
0.000214483
0.000187348
0.000187349
0.000214484
0.000187348
0.000187348
0.000216553
0.00018529
0.000214484
0.000187348
0.000187348
0.000185289
0.000180375
0.000149115
0.00017831
0.00017831
0.000151173
0.000151173
0.000180375
0.000149117
0.000178309
0.00017831
0.000151173
0.000151173
0.00017831
0.000151174
0.000151173
0.000180376
0.000149115
0.000178309
0.000151173
0.000151173
0.000149115
0.000144191
0.000112943
0.000142135
0.000142135
0.000114994
0.000114994
0.000144191
0.000112944
0.000142135
0.000142135
0.000114994
0.000114994
0.000142135
0.000114995
0.000114995
0.000144191
0.000112943
0.000142134
0.000114995
0.000114995
0.000112943
0.000107999
7.67618e-05
0.000105958
0.000105959
7.88067e-05
7.88065e-05
0.000108
7.67619e-05
0.000105958
0.000105958
7.88061e-05
7.88062e-05
0.000105958
7.88068e-05
7.88065e-05
0.000107998
7.67606e-05
0.000105958
7.88061e-05
7.88063e-05
7.67618e-05
7.17814e-05
4.06274e-05
6.97748e-05
6.97741e-05
4.26704e-05
4.26712e-05
7.17804e-05
4.06285e-05
6.97735e-05
6.97731e-05
4.26689e-05
4.2668e-05
6.97745e-05
4.26697e-05
4.26665e-05
7.17804e-05
4.06244e-05
6.97743e-05
4.26669e-05
4.2665e-05
4.06242e-05
3.56783e-05
8.33337e-06
3.38255e-05
3.38262e-05
1.13354e-05
1.13347e-05
3.56783e-05
8.33314e-06
3.38242e-05
3.38221e-05
1.13367e-05
1.13302e-05
3.38209e-05
1.13353e-05
1.13284e-05
3.5675e-05
8.32998e-06
3.38203e-05
1.13333e-05
1.13331e-05
8.32794e-06
5.13319e-06
6.81199e-06
6.8115e-06
5.13391e-06
6.81241e-06
6.80845e-06
6.0055e-06
6.0051e-06
6.00404e-06
6.8065e-06
5.13198e-06
6.80988e-06
0.00354406
0.00354669
0.00354548
0.00354549
0.00357247
0.00354676
0.00357603
0.00354689
0.00357257
0.00354677
0.00354691
0.00357615
0.00355758
0.00357917
0.0035793
0.00351617
0.00353004
0.00353394
0.0035087
0.00350687
0.00351202
0.00351628
0.00353005
0.00353394
0.0035087
0.00353238
0.00353241
0.00353242
0.00350574
0.00350571
0.00350572
0.00350578
0.00351613
0.00352788
0.00353296
0.00352344
0.00353513
0.00351311
0.00352382
0.00350688
0.00351209
0.00351609
0.00353298
0.00352798
0.00352358
0.00353517
0.00352386
0.00351318
0.00353387
0.00353394
0.00352089
0.0035131
0.00351312
0.00348883
0.00350301
0.00350278
0.00348699
0.00350033
0.00348592
0.00348902
0.00350308
0.00350276
0.00348694
0.00349668
0.00349668
0.00349674
0.00346878
0.00346877
0.00346876
0.00346881
0.00348672
0.00350166
0.00349525
0.00348589
0.00350005
0.00348727
0.00348596
0.0035003
0.00348597
0.00348669
0.00349523
0.00350158
0.00348596
0.00350006
0.00348595
0.00348719
0.00350333
0.00350332
0.00348442
0.0034876
0.00348755
0.00344667
0.0034613
0.0034621
0.0034454
0.0034602
0.0034445
0.00344675
0.00346135
0.0034621
0.00344538
0.00345874
0.00345876
0.0034588
0.00342618
0.00342614
0.00342615
0.00342621
0.00344544
0.00346106
0.00345685
0.00344651
0.0034599
0.00344576
0.00344652
0.00346012
0.00344447
0.00344542
0.00345678
0.00346087
0.0034465
0.00345984
0.00344651
0.00344577
0.00346162
0.00346155
0.00344378
0.0034457
0.0034457
0.00340023
0.0034167
0.00341812
0.00339874
0.00341599
0.00339822
0.00340023
0.00341671
0.00341806
0.00339875
0.00341449
0.0034145
0.00341455
0.00337834
0.00337832
0.00337832
0.00337837
0.0033993
0.00341657
0.00341288
0.00340107
0.00341596
0.00339936
0.00340102
0.00341597
0.0033982
0.0033993
0.00341282
0.00341645
0.00340103
0.00341593
0.00340099
0.00339937
0.00341678
0.00341678
0.00339774
0.00339892
0.00339892
0.00335109
0.00336819
0.00336951
0.00334985
0.00336783
0.00334959
0.00335097
0.0033682
0.00336963
0.00334984
0.00336609
0.00336611
0.00336614
0.00332957
0.00332952
0.00332955
0.00332958
0.00335061
0.00336826
0.00336465
0.00335248
0.00336788
0.00335056
0.00335244
0.00336778
0.00334954
0.0033506
0.00336461
0.00336811
0.00335239
0.00336784
0.00335243
0.00335061
0.00336827
0.00336826
0.00334913
0.00334997
0.00334997
0.00330223
0.00331937
0.00332032
0.00330132
0.0033191
0.00330104
0.00330218
0.00331937
0.00332034
0.00330132
0.00331743
0.00331747
0.00331749
0.00328145
0.00328141
0.00328143
0.00328147
0.00330209
0.00331939
0.0033161
0.00330408
0.00331916
0.00330194
0.00330409
0.00331911