/*--------------------------------*- C++ -*----------------------------------*\
| =========                 |                                                 |
| \\      /  F ield         | OpenFOAM: The Open Source CFD Toolbox           |
|  \\    /   O peration     | Version:  v2012                                 |
|   \\  /    A nd           | Website:  www.openfoam.com                      |
|    \\/     M anipulation  |                                                 |
\*---------------------------------------------------------------------------*/
FoamFile
{
    version     2.0;
    format      ascii;
    class       volScalarField;
    location    "500";
    object      epsilon;
}
// * * * * * * * * * * * * * * * * * * * * * * * * * * * * * * * * * * * * * //

dimensions      [0 2 -3 0 0 0 0];


internalField   nonuniform List<scalar> 
85864
(
4.95567e-07
4.9733e-07
4.9733e-07
4.99575e-07
4.45573e-07
4.53735e-07
4.53737e-07
4.6371e-07
4.03752e-07
4.18513e-07
4.18517e-07
4.39411e-07
3.68363e-07
3.88552e-07
3.88558e-07
4.17667e-07
3.38015e-07
3.62102e-07
3.6211e-07
3.96081e-07
3.11646e-07
3.38273e-07
3.38281e-07
3.7458e-07
2.88473e-07
3.16637e-07
3.16646e-07
3.5371e-07
2.67923e-07
2.97021e-07
2.97031e-07
3.34148e-07
2.4958e-07
2.7937e-07
2.79379e-07
3.16484e-07
2.33137e-07
2.6368e-07
2.63688e-07
3.01164e-07
2.18366e-07
2.49955e-07
2.49965e-07
2.88499e-07
2.05091e-07
2.38203e-07
2.38211e-07
2.78703e-07
1.93172e-07
2.28419e-07
2.2843e-07
2.71904e-07
1.82501e-07
2.20624e-07
2.20632e-07
2.68269e-07
1.72983e-07
2.14816e-07
2.14864e-07
2.67924e-07
1.64554e-07
2.11118e-07
2.11082e-07
2.71307e-07
1.57188e-07
2.09638e-07
2.09582e-07
2.78691e-07
1.50765e-07
2.10374e-07
2.10614e-07
2.91993e-07
1.45457e-07
2.14165e-07
2.13425e-07
3.09798e-07
1.40862e-07
2.20104e-07
2.19994e-07
3.26785e-07
1.36678e-07
2.26642e-07
2.22137e-07
3.36352e-07
1.33733e-07
2.29496e-07
2.32502e-07
3.59975e-07
1.31511e-07
2.42422e-07
2.43136e-07
3.81829e-07
1.30146e-07
2.53015e-07
2.55504e-07
4.07499e-07
1.29505e-07
2.65983e-07
2.65524e-07
4.16241e-07
1.29486e-07
2.79787e-07
2.85297e-07
4.84342e-07
1.30566e-07
3.0296e-07
3.06667e-07
5.08689e-07
1.32744e-07
3.26481e-07
3.12278e-07
5.26786e-07
1.35119e-07
3.43748e-07
3.45377e-07
6.05814e-07
1.38809e-07
3.74331e-07
3.68134e-07
6.40506e-07
1.42103e-07
3.89574e-07
4.04302e-07
6.30046e-07
1.46001e-07
4.23806e-07
4.25165e-07
6.96629e-07
1.53162e-07
4.49896e-07
4.47307e-07
7.54862e-07
1.59971e-07
4.8733e-07
4.77048e-07
7.84298e-07
1.66924e-07
5.07194e-07
5.07214e-07
8.01103e-07
1.7573e-07
5.32199e-07
5.37143e-07
8.50415e-07
1.83181e-07
5.6409e-07
5.65617e-07
8.74081e-07
1.92992e-07
5.95249e-07
5.96114e-07
9.07011e-07
2.03076e-07
6.25431e-07
6.2513e-07
9.37377e-07
2.14313e-07
6.55115e-07
6.54887e-07
9.66246e-07
2.26533e-07
6.85256e-07
6.84799e-07
9.93342e-07
2.38767e-07
7.14281e-07
7.14523e-07
1.02086e-06
2.51955e-07
7.43012e-07
7.43153e-07
1.04787e-06
2.6579e-07
7.70827e-07
7.70632e-07
1.07209e-06
2.80486e-07
7.97813e-07
7.98328e-07
1.09516e-06
2.95512e-07
8.2452e-07
8.24676e-07
1.11735e-06
3.10984e-07
8.50169e-07
8.50002e-07
1.13956e-06
5.06417e-07
5.05584e-07
5.05582e-07
5.06417e-07
5.05583e-07
5.05582e-07
5.09649e-07
5.09649e-07
5.09649e-07
5.09649e-07
5.05584e-07
5.05584e-07
5.06418e-07
5.05584e-07
5.05583e-07
5.06418e-07
4.99575e-07
4.67237e-07
4.97331e-07
4.97335e-07
4.63713e-07
4.63721e-07
4.99575e-07
4.67235e-07
4.97335e-07
4.97336e-07
4.63718e-07
4.63724e-07
4.97332e-07
4.63709e-07
4.63714e-07
4.99575e-07
4.67241e-07
4.97334e-07
4.6371e-07
4.63719e-07
4.6724e-07
4.63709e-07
4.41426e-07
4.5374e-07
4.53748e-07
4.26738e-07
4.26747e-07
4.63708e-07
4.4142e-07
4.53744e-07
4.53751e-07
4.26739e-07
4.26751e-07
4.53741e-07
4.26729e-07
4.26741e-07
4.63711e-07
4.41431e-07
4.53744e-07
4.26734e-07
4.26741e-07
4.41429e-07
4.39407e-07
4.19283e-07
4.18522e-07
4.1853e-07
3.95676e-07
3.95682e-07
4.39405e-07
4.19275e-07
4.18522e-07
4.18535e-07
3.95672e-07
3.95689e-07
4.18525e-07
3.95663e-07
3.95679e-07
4.39413e-07
4.19289e-07
4.18523e-07
3.95669e-07
3.95673e-07
4.19287e-07
4.17662e-07
3.97645e-07
3.88566e-07
3.88571e-07
3.68461e-07
3.68466e-07
4.17656e-07
3.97636e-07
3.8856e-07
3.88578e-07
3.68452e-07
3.68473e-07
3.88569e-07
3.68444e-07
3.68464e-07
4.17669e-07
3.97651e-07
3.88562e-07
3.68452e-07
3.68454e-07
3.97649e-07
3.96076e-07
3.76085e-07
3.6212e-07
3.62124e-07
3.44033e-07
3.44036e-07
3.96069e-07
3.76075e-07
3.62109e-07
3.62131e-07
3.4402e-07
3.44043e-07
3.62123e-07
3.44013e-07
3.44036e-07
3.96082e-07
3.76091e-07
3.62111e-07
3.44021e-07
3.44021e-07
3.7609e-07
3.74575e-07
3.55111e-07
3.38292e-07
3.38295e-07
3.21875e-07
3.21876e-07
3.74568e-07
3.55101e-07
3.38279e-07
3.38303e-07
3.21858e-07
3.21884e-07
3.38296e-07
3.21853e-07
3.21877e-07
3.74581e-07
3.55116e-07
3.3828e-07
3.21862e-07
3.2186e-07
3.55116e-07
3.53704e-07
3.35396e-07
3.16659e-07
3.16661e-07
3.01763e-07
3.01764e-07
3.53696e-07
3.35385e-07
3.16642e-07
3.16668e-07
3.01745e-07
3.01771e-07
3.16662e-07
3.0174e-07
3.01766e-07
3.5371e-07
3.354e-07
3.16644e-07
3.0175e-07
3.01746e-07
3.354e-07
3.34142e-07
3.17533e-07
2.97044e-07
2.97045e-07
2.83623e-07
2.83624e-07
3.34133e-07
3.17525e-07
2.97026e-07
2.97053e-07
2.83603e-07
2.83631e-07
2.97047e-07
2.836e-07
2.83625e-07
3.34147e-07
3.17541e-07
2.97027e-07
2.83609e-07
2.83604e-07
3.17538e-07
3.16479e-07
3.01977e-07
2.79395e-07
2.79394e-07
2.67442e-07
2.67443e-07
3.16472e-07
3.01965e-07
2.79374e-07
2.79401e-07
2.6742e-07
2.6745e-07
2.79396e-07
2.67418e-07
2.67443e-07
3.16486e-07
3.01983e-07
2.79375e-07
2.67427e-07
2.67421e-07
3.01985e-07
3.01156e-07
2.89048e-07
2.63705e-07
2.63704e-07
2.53229e-07
2.53228e-07
3.01147e-07
2.89036e-07
2.63683e-07
2.63712e-07
2.53206e-07
2.53235e-07
2.63705e-07
2.53202e-07
2.53229e-07
3.01165e-07
2.8905e-07
2.63684e-07
2.53211e-07
2.53206e-07
2.8905e-07
2.88495e-07
2.78957e-07
2.49983e-07
2.49982e-07
2.40985e-07
2.40985e-07
2.88483e-07
2.78956e-07
2.49961e-07
2.4999e-07
2.4096e-07
2.40991e-07
2.49984e-07
2.40957e-07
2.40984e-07
2.88496e-07
2.78967e-07
2.49961e-07
2.40964e-07
2.4096e-07
2.78963e-07
2.78698e-07
2.71852e-07
2.38233e-07
2.38231e-07
2.30706e-07
2.30709e-07
2.78698e-07
2.7186e-07
2.38209e-07
2.38239e-07
2.30682e-07
2.30719e-07
2.38231e-07
2.30678e-07
2.30706e-07
2.78705e-07
2.71882e-07
2.38207e-07
2.3069e-07
2.30683e-07
2.71864e-07
2.71894e-07
2.67958e-07
2.28449e-07
2.28447e-07
2.2242e-07
2.22426e-07
2.71905e-07
2.67968e-07
2.28424e-07
2.28459e-07
2.2239e-07
2.2243e-07
2.28446e-07
2.22386e-07
2.22418e-07
2.71921e-07
2.67981e-07
2.28422e-07
2.22391e-07
2.22384e-07
2.67967e-07
2.68262e-07
2.67235e-07
2.20666e-07
2.2067e-07
2.16122e-07
2.16133e-07
2.68272e-07
2.67242e-07
2.20639e-07
2.20675e-07
2.16097e-07
2.16139e-07
2.20667e-07
2.16091e-07
2.1611e-07
2.6828e-07
2.67293e-07
2.20636e-07
2.16109e-07
2.16086e-07
2.67251e-07
2.6793e-07
2.6981e-07
2.14865e-07
2.14858e-07
2.11865e-07
2.11874e-07
2.67956e-07
2.69882e-07
2.1485e-07
2.14896e-07
2.11823e-07
2.11918e-07
2.14873e-07
2.11829e-07
2.11861e-07
2.67993e-07
2.69883e-07
2.14852e-07
2.11846e-07
2.11834e-07
2.69872e-07
2.71324e-07
2.7646e-07
2.11151e-07
2.11161e-07
2.09731e-07
2.09828e-07
2.71416e-07
2.76687e-07
2.11106e-07
2.11153e-07
2.09732e-07
2.09708e-07
2.1112e-07
2.09756e-07
2.09704e-07
2.71395e-07
2.76494e-07
2.11091e-07
2.0962e-07
2.09659e-07
2.7636e-07
2.7881e-07
2.8865e-07
2.09635e-07
2.09708e-07
2.10061e-07
2.10094e-07
2.79274e-07
2.88915e-07
2.09577e-07
2.09644e-07
2.09937e-07
2.10198e-07
2.09559e-07
2.10041e-07
2.0998e-07
2.78903e-07
2.89388e-07
2.09553e-07
2.102e-07
2.10021e-07
2.8874e-07
2.91809e-07
3.04676e-07
2.10414e-07
2.10423e-07
2.12544e-07
2.12794e-07
2.92013e-07
3.06432e-07
2.103e-07
2.10627e-07
2.12518e-07
2.12227e-07
2.10345e-07
2.1293e-07
2.12528e-07
2.92926e-07
3.03889e-07
2.1038e-07
2.12132e-07
2.12693e-07
3.04654e-07
3.10414e-07
3.27754e-07
2.14045e-07
2.1401e-07
2.18279e-07
2.18298e-07
3.12018e-07
3.2997e-07
2.13999e-07
2.13517e-07
2.18033e-07
2.19011e-07
2.13841e-07
2.18074e-07
2.17419e-07
3.08364e-07
3.32143e-07
2.14018e-07
2.18784e-07
2.17353e-07
3.24438e-07
3.3072e-07
3.34388e-07
2.19319e-07
2.20495e-07
2.21497e-07
2.25928e-07
3.35855e-07
3.54727e-07
2.19064e-07
2.20293e-07
2.21673e-07
2.21822e-07
2.18117e-07
2.25683e-07
2.21261e-07
3.35784e-07
3.34134e-07
2.17951e-07
2.2156e-07
2.21046e-07
3.32428e-07
3.36524e-07
3.49538e-07
2.2235e-07
2.26759e-07
2.27952e-07
2.28329e-07
3.56705e-07
3.50351e-07
2.22655e-07
2.22282e-07
2.28104e-07
2.29424e-07
2.22835e-07
2.28231e-07
2.29162e-07
3.3505e-07
3.57125e-07
2.22628e-07
2.29501e-07
2.28831e-07
3.54091e-07
3.56244e-07
3.76682e-07
2.30665e-07
2.29739e-07
2.38272e-07
2.38862e-07
3.52149e-07
3.79029e-07
2.30692e-07
2.32451e-07
2.38135e-07
2.39968e-07
2.31487e-07
2.38778e-07
2.38259e-07
3.66067e-07
3.85274e-07
2.31211e-07
2.40042e-07
2.38471e-07
3.769e-07
3.81532e-07
4.02367e-07
2.40802e-07
2.42415e-07
2.50393e-07
2.51142e-07
3.88221e-07
4.05518e-07
2.40714e-07
2.43154e-07
2.50432e-07
2.53419e-07
2.41047e-07
2.51069e-07
2.50596e-07
3.90854e-07
4.15366e-07
2.41336e-07
2.53089e-07
2.50654e-07
4.02555e-07
4.09255e-07
4.27384e-07
2.536e-07
2.53174e-07
2.63174e-07
2.619e-07
4.08096e-07
4.18895e-07
2.53625e-07
2.55828e-07
2.6315e-07
2.62324e-07
2.53535e-07
2.61734e-07
2.59657e-07
4.192e-07
4.21849e-07
2.53495e-07
2.62204e-07
2.59619e-07
4.13154e-07
4.34329e-07
4.60732e-07
2.67153e-07
2.66135e-07
2.79841e-07
2.77585e-07
4.27574e-07
4.51059e-07
2.67122e-07
2.65623e-07
2.79694e-07
2.79257e-07
2.6229e-07
2.77322e-07
2.80587e-07
4.26569e-07
4.6217e-07
2.62279e-07
2.7903e-07
2.80452e-07
4.66255e-07
4.65721e-07
4.86127e-07
2.83121e-07
2.80045e-07
2.95187e-07
2.94796e-07
4.54178e-07
4.83475e-07
2.8295e-07
2.85544e-07
2.95202e-07
3.03372e-07
2.8768e-07
2.94753e-07
3.01141e-07
4.73504e-07
5.172e-07
2.8752e-07
3.03316e-07
3.01139e-07
5.07717e-07
4.98934e-07
5.48863e-07
3.01649e-07
3.02975e-07
3.21524e-07
3.23261e-07
5.01857e-07
5.53644e-07
3.01762e-07
3.06693e-07
3.21561e-07
3.10429e-07
3.03333e-07
3.23067e-07
3.13505e-07
5.21036e-07
4.94562e-07
3.03405e-07
3.10342e-07
3.13509e-07
5.15039e-07
5.55803e-07
5.74124e-07
3.26221e-07
3.26741e-07
3.40002e-07
3.36919e-07
5.56881e-07
5.60855e-07
3.26124e-07
3.12446e-07
3.39797e-07
3.36217e-07
3.19788e-07
3.36685e-07
3.43126e-07
4.95498e-07
5.6268e-07
3.19662e-07
3.3601e-07
3.42915e-07
5.92204e-07
5.84709e-07
6.2567e-07
3.46465e-07
3.43954e-07
3.67433e-07
3.68749e-07
5.72581e-07
6.31281e-07
3.46402e-07
3.45566e-07
3.67498e-07
3.63259e-07
3.50979e-07
3.68517e-07
3.7073e-07
5.83949e-07
6.12838e-07
3.50913e-07
3.63037e-07
3.70806e-07
6.36087e-07
6.32418e-07
6.43868e-07
3.73246e-07
3.74526e-07
3.87572e-07
3.8432e-07
6.3753e-07
6.32232e-07
3.73157e-07
3.68302e-07
3.87311e-07
3.94856e-07
3.75511e-07
3.84229e-07
3.84144e-07
6.17432e-07
6.789e-07
3.75418e-07
3.94801e-07
3.83807e-07
6.28014e-07
6.49388e-07
6.62283e-07
3.92806e-07
3.89752e-07
4.07563e-07
4.16166e-07
6.37994e-07
6.97849e-07
3.92669e-07
4.04455e-07
4.07635e-07
4.22047e-07
3.87314e-07
4.15748e-07
4.10194e-07
6.9614e-07
7.09813e-07
3.87113e-07
4.21624e-07
4.10282e-07
6.78164e-07
6.68959e-07
7.31858e-07
4.13017e-07
4.24155e-07
4.41159e-07
4.42124e-07
7.09702e-07
7.30685e-07
4.13056e-07
4.2551e-07
4.4109e-07
4.40518e-07
4.20163e-07
4.42007e-07
4.4591e-07
7.11312e-07
7.20469e-07
4.20202e-07
4.40453e-07
4.45825e-07
7.44879e-07
7.50254e-07
7.76963e-07
4.52064e-07
4.5004e-07
4.75232e-07
4.79371e-07
7.4125e-07
7.95134e-07
4.52005e-07
4.47406e-07
4.75155e-07
4.69828e-07
4.53703e-07
4.7908e-07
4.76322e-07
7.29975e-07
7.62916e-07
4.53655e-07
4.69569e-07
4.76291e-07
7.79749e-07
7.79769e-07
8.00759e-07
4.79907e-07
4.87606e-07
4.98985e-07
5.03205e-07
8.04038e-07
8.06087e-07
4.79792e-07
4.7729e-07
4.98744e-07
4.99636e-07
4.82058e-07
5.03012e-07
4.97124e-07
7.72244e-07
8.02502e-07
4.81966e-07
4.99473e-07
4.96889e-07
7.92452e-07
8.14962e-07
8.53421e-07
5.0824e-07
5.07384e-07
5.35244e-07
5.25032e-07
8.08268e-07
8.2156e-07
5.08013e-07
5.07365e-07
5.35133e-07
5.30339e-07
5.04372e-07
5.2476e-07
5.30701e-07
8.12181e-07
8.38429e-07
5.04153e-07
5.30109e-07
5.30601e-07
8.41745e-07
8.58804e-07
8.62695e-07
5.4199e-07
5.32508e-07
5.57508e-07
5.5642e-07
8.30679e-07
8.62431e-07
5.4191e-07
5.37408e-07
5.57421e-07
5.58396e-07
5.38623e-07
5.56114e-07
5.58656e-07
8.45881e-07
8.66744e-07
5.38547e-07
5.58103e-07
5.58562e-07
8.6736e-07
8.68693e-07
9.01068e-07
5.63624e-07
5.64354e-07
5.88278e-07
5.87748e-07
8.71788e-07
8.98027e-07
5.63537e-07
5.65859e-07
5.88154e-07
5.88774e-07
5.65359e-07
5.87553e-07
5.87879e-07
8.75108e-07
9.00396e-07
5.65251e-07
5.88621e-07
5.87745e-07
8.98373e-07
9.10552e-07
9.28011e-07
5.96917e-07
5.95475e-07
6.1804e-07
6.18243e-07
9.06238e-07
9.29067e-07
5.96784e-07
5.96292e-07
6.17894e-07
6.18164e-07
5.95743e-07
6.17935e-07
6.18401e-07
9.08198e-07
9.2823e-07
5.95616e-07
6.17904e-07
6.1828e-07
9.299e-07
9.34005e-07
9.58621e-07
6.24422e-07
6.25727e-07
6.47396e-07
6.47886e-07
9.36822e-07
9.58138e-07
6.24281e-07
6.25375e-07
6.47245e-07
6.47528e-07
6.2577e-07
6.47691e-07
6.4815e-07
9.35507e-07
9.57124e-07
6.25648e-07
6.47378e-07
6.4801e-07
9.58741e-07
9.68344e-07
9.91234e-07
6.559e-07
6.55302e-07
6.7953e-07
6.77988e-07
9.65686e-07
9.87548e-07
6.55763e-07
6.55025e-07
6.79391e-07
6.77513e-07
6.55602e-07
6.77736e-07
6.77548e-07
9.64813e-07
9.86296e-07
6.55468e-07
6.77309e-07
6.77415e-07
9.86213e-07
9.97367e-07
1.01263e-06
6.86421e-07
6.85522e-07
7.06618e-07
7.07377e-07
9.95101e-07
1.01464e-06
6.86293e-07
6.85018e-07
7.06484e-07
7.07345e-07
6.84824e-07
7.07136e-07
7.06791e-07
9.93837e-07
1.01492e-06
6.84688e-07
7.0715e-07
7.06638e-07
1.0135e-06
1.01968e-06
1.03921e-06
7.13831e-07
7.14513e-07
7.35595e-07
7.3605e-07
1.02151e-06
1.04049e-06
7.137e-07
7.14708e-07
7.35461e-07
7.36332e-07
7.14166e-07
7.35818e-07
7.36161e-07
1.02218e-06
1.04094e-06
7.14018e-07
7.36151e-07
7.36037e-07
1.04098e-06
1.04577e-06
1.06359e-06
7.425e-07
7.43241e-07
7.63272e-07
7.64245e-07
1.04748e-06
1.06527e-06
7.42378e-07
7.43329e-07
7.63154e-07
7.63924e-07
7.43346e-07
7.64034e-07
7.64312e-07
1.04751e-06
1.06454e-06
7.4322e-07
7.63765e-07
7.64175e-07
1.06557e-06
1.07059e-06
1.08949e-06
7.70379e-07
7.7103e-07
7.91571e-07
7.91283e-07
1.07162e-06
1.08829e-06
7.70262e-07
7.70786e-07
7.91435e-07
7.91567e-07
7.71196e-07
7.91087e-07
7.9162e-07
1.0711e-06
1.08925e-06
7.71054e-07
7.91425e-07
7.91472e-07
1.08897e-06
1.09596e-06
1.11152e-06
7.98446e-07
7.98015e-07
8.18112e-07
8.18114e-07
1.09468e-06
1.11166e-06
7.98323e-07
7.98474e-07
8.18002e-07
8.18455e-07
7.98256e-07
8.17898e-07
8.17871e-07
1.09586e-06
1.11209e-06
7.98117e-07
8.18293e-07
8.17749e-07
1.11108e-06
1.1175e-06
1.13338e-06
8.2451e-07
8.24729e-07
8.43903e-07
8.44011e-07
1.11796e-06
1.1337e-06
8.24408e-07
8.24833e-07
8.43774e-07
8.43739e-07
8.24446e-07
8.43817e-07
8.43991e-07
1.11798e-06
1.13305e-06
8.24326e-07
8.43607e-07
8.43859e-07
1.13364e-06
1.13916e-06
1.15265e-06
8.50151e-07
8.50369e-07
8.67988e-07
8.68799e-07
1.13969e-06
1.15387e-06
8.50017e-07
8.50143e-07
8.6787e-07
8.68846e-07
8.50287e-07
8.68606e-07
8.68714e-07
1.13916e-06
1.15419e-06
8.50144e-07
8.68705e-07
8.6859e-07
1.15411e-06
5.35663e-07
5.35601e-07
5.35655e-07
5.35655e-07
5.34573e-07
5.35516e-07
5.33634e-07
5.35654e-07
5.34573e-07
5.35517e-07
5.35654e-07
5.33634e-07
5.35256e-07
5.35986e-07
5.35987e-07
1.10713e-06
3.88088e-06
9.33894e-07
4.60608e-06
1.26081e-05
1.66009e-05
1.10724e-06
3.88111e-06
9.33927e-07
4.60646e-06
4.95567e-07
4.95567e-07
4.95567e-07
4.57231e-07
4.57231e-07
4.57232e-07
4.57232e-07
5.43143e-07
1.22027e-06
4.95565e-07
4.85522e-07
5.25341e-07
1.20946e-06
4.82301e-07
1.26097e-05
1.66035e-05
5.43162e-07
4.95565e-07
1.22025e-06
4.85523e-07
5.2532e-07
4.82302e-07
1.20945e-06
2.52172e-06
2.52242e-06
4.8419e-07
2.37249e-06
2.37288e-06
1.4308e-06
5.59344e-06
1.32967e-06
6.13626e-06
2.12846e-05
2.31103e-05
1.4312e-06
5.59408e-06
1.32973e-06
6.13689e-06
4.45572e-07
4.45573e-07
4.45573e-07
4.13542e-07
4.13542e-07
4.13543e-07
4.13543e-07
5.87084e-07
1.19483e-06
4.46434e-07
4.44291e-07
5.73801e-07
1.20431e-06
4.3569e-07
2.12868e-05
2.31139e-05
5.87102e-07
4.46435e-07
1.19484e-06
4.44294e-07
5.73811e-07
4.35692e-07
1.2044e-06
2.3117e-06
2.31222e-06
4.53488e-07
2.35332e-06
2.35378e-06
1.66327e-06
6.91808e-06
1.59584e-06
7.31978e-06
2.46406e-05
2.49369e-05
1.66337e-06
6.91902e-06
1.59576e-06
7.32108e-06
4.03752e-07
4.03753e-07
4.03753e-07
3.76689e-07
3.76689e-07
3.76691e-07
3.7669e-07
6.15569e-07
1.24281e-06
4.06546e-07
4.10617e-07
6.0838e-07
1.26558e-06
3.97729e-07
2.46437e-05
2.49404e-05
6.15585e-07
4.06547e-07
1.24291e-06
4.10622e-07
6.08396e-07
3.97732e-07
1.26574e-06
2.47397e-06
2.47444e-06
4.30179e-07
2.53269e-06
2.53316e-06
1.81233e-06
7.84654e-06
1.77234e-06
8.09846e-06
2.4737e-05
2.44296e-05
1.81247e-06
7.84713e-06
1.77235e-06
8.10024e-06
3.68362e-07
3.68365e-07
3.68364e-07
3.45192e-07
3.45192e-07
3.45195e-07
3.45194e-07
6.26293e-07
1.31312e-06
3.73478e-07
3.81656e-07
6.24882e-07
1.3337e-06
3.66029e-07
2.47394e-05
2.4433e-05
6.26306e-07
3.7348e-07
1.31321e-06
3.81662e-07
6.24895e-07
3.66032e-07
1.33387e-06
2.63522e-06
2.63571e-06
4.08471e-07
2.67932e-06
2.67983e-06
1.89283e-06
8.39607e-06
1.87319e-06
8.52815e-06
2.3693e-05
2.32641e-05
1.893e-06
8.39665e-06
1.87322e-06
8.53018e-06
3.38014e-07
3.38017e-07
3.38016e-07
3.17912e-07
3.17911e-07
3.17915e-07
3.17914e-07
6.22109e-07
1.37209e-06
3.45239e-07
3.55922e-07
6.25445e-07
1.38711e-06
3.38764e-07
2.36951e-05
2.32671e-05
6.22123e-07
3.45241e-07
1.37217e-06
3.5593e-07
6.25458e-07
3.38768e-07
1.38727e-06
2.76361e-06
2.76413e-06
3.86837e-07
2.80531e-06
2.80586e-06
1.92988e-06
8.66408e-06
1.92179e-06
8.71775e-06
2.25027e-05
2.21195e-05
1.93005e-06
8.66467e-06
1.92182e-06
8.72e-06
3.11645e-07
3.11649e-07
3.11648e-07
2.94001e-07
2.94e-07
2.94004e-07
2.94002e-07
6.08887e-07
1.41601e-06
3.20492e-07
3.32668e-07
6.15379e-07
1.42752e-06
3.14745e-07
2.25039e-05
2.21219e-05
6.08901e-07
3.20493e-07
1.41608e-06
3.32677e-07
6.15391e-07
3.14749e-07
1.42769e-06
2.89503e-06
2.89562e-06
3.65488e-07
2.94335e-06
2.94399e-06
1.94789e-06
8.75906e-06
1.94363e-06
8.77038e-06
2.14781e-05
2.11778e-05
1.94805e-06
8.76096e-06
1.94368e-06
8.7729e-06
2.88472e-07
2.88476e-07
2.88475e-07
2.72839e-07
2.72838e-07
2.72842e-07
2.72841e-07
5.91863e-07
1.45269e-06
2.98409e-07
3.11548e-07
5.99369e-07
1.46402e-06
2.93242e-07
2.14792e-05
2.11797e-05
5.91877e-07
2.98411e-07
1.45273e-06
3.11557e-07
5.99383e-07
2.93246e-07
1.4642e-06
3.04927e-06
3.04997e-06
3.45061e-07
3.10573e-06
3.10649e-06
1.96561e-06
8.76791e-06
1.95957e-06
8.76397e-06
2.06747e-05
2.0452e-05
1.96577e-06
8.771e-06
1.95961e-06
8.76349e-06
2.67922e-07
2.67926e-07
2.67925e-07
2.53977e-07
2.53976e-07
2.5398e-07
2.53978e-07
5.75447e-07
1.49172e-06
2.785e-07
2.92425e-07
5.82271e-07
1.50542e-06
2.73825e-07
2.06756e-05
2.04542e-05
5.75462e-07
2.78501e-07
1.49172e-06
2.92434e-07
5.82287e-07
2.73829e-07
1.50567e-06
3.22663e-06
3.22745e-06
3.26205e-07
3.29136e-06
3.2923e-06
1.99551e-06
8.74936e-06
1.98441e-06
8.74402e-06
2.00715e-05
1.99106e-05
1.99574e-06
8.74928e-06
1.98436e-06
8.74562e-06
2.49579e-07
2.49583e-07
2.49581e-07
2.37082e-07
2.37082e-07
2.37086e-07
2.37084e-07
5.62898e-07
1.53985e-06
2.60474e-07
2.75263e-07
5.67831e-07
1.55772e-06
2.56239e-07
2.00734e-05
1.99123e-05
5.62916e-07
2.60475e-07
1.5399e-06
2.75273e-07
5.67844e-07
2.56243e-07
1.5579e-06
3.42234e-06
3.42333e-06
3.0945e-07
3.49193e-06
3.49308e-06
2.0452e-06
8.73516e-06
2.02675e-06
8.73083e-06
1.96319e-05
1.9516e-05
2.04533e-06
8.73547e-06
2.02684e-06
8.73342e-06
2.33136e-07
2.3314e-07
2.33138e-07
2.21912e-07
2.21911e-07
2.21915e-07
2.21913e-07
5.56503e-07
1.60113e-06
2.44157e-07
2.60064e-07
5.58636e-07
1.62353e-06
2.40331e-07
1.96337e-05
1.95178e-05
5.56521e-07
2.44158e-07
1.60112e-06
2.60072e-07
5.58656e-07
2.40334e-07
1.62378e-06
3.62793e-06
3.62903e-06
2.9517e-07
3.70034e-06
3.70171e-06
2.11905e-06
8.73039e-06
2.09213e-06
8.73347e-06
1.93167e-05
1.92366e-05
2.11912e-06
8.73299e-06
2.09215e-06
8.73561e-06
2.18364e-07
2.18369e-07
2.18367e-07
2.08277e-07
2.08276e-07
2.0828e-07
2.08278e-07
5.57606e-07
1.6764e-06
2.29438e-07
2.46831e-07
5.56746e-07
1.70374e-06
2.25997e-07
1.93185e-05
1.92382e-05
5.57626e-07
2.29439e-07
1.67652e-06
2.46842e-07
5.56762e-07
2.26001e-07
1.70389e-06
3.83577e-06
3.83691e-06
2.8365e-07
3.90924e-06
3.91092e-06
2.21863e-06
8.73921e-06
2.18295e-06
8.74991e-06
1.90969e-05
1.90397e-05
2.21887e-06
8.74355e-06
2.18268e-06
8.74776e-06
2.0509e-07
2.05094e-07
2.05092e-07
1.9603e-07
1.96029e-07
1.96034e-07
1.96031e-07
5.66946e-07
1.76541e-06
2.16238e-07
2.3557e-07
5.63119e-07
1.79688e-06
2.13167e-07
1.90979e-05
1.90425e-05
5.66931e-07
2.16238e-07
1.76543e-06
2.35581e-07
5.63165e-07
2.13171e-07
1.79702e-06
4.03979e-06
4.04131e-06
2.75039e-07
4.10851e-06
4.11005e-06
2.34344e-06
8.76155e-06
2.29941e-06
8.76477e-06
1.8943e-05
1.89029e-05
2.34396e-06
8.7611e-06
2.29913e-06
8.76851e-06
1.93171e-07
1.93175e-07
1.93172e-07
1.85055e-07
1.85055e-07
1.85059e-07
1.85057e-07
5.85876e-07
1.8657e-06
2.04495e-07
2.2628e-07
5.78729e-07
1.90025e-06
2.0178e-07
1.89457e-05
1.89042e-05
5.85929e-07
2.04496e-07
1.86585e-06
2.26293e-07
5.7875e-07
2.01785e-07
1.90055e-06
4.22993e-06
4.23158e-06
2.69524e-07
4.29421e-06
4.29613e-06
2.49195e-06
8.78016e-06
2.43901e-06
8.78726e-06
1.88337e-05
1.88082e-05
2.49189e-06
8.78408e-06
2.43904e-06
8.78761e-06
1.825e-07
1.82504e-07
1.82503e-07
1.75256e-07
1.75256e-07
1.75261e-07
1.75257e-07
6.14934e-07
1.97441e-06
1.94161e-07
2.18986e-07
6.04452e-07
2.01111e-06
1.91789e-07
1.88341e-05
1.88115e-05
6.14959e-07
1.9416e-07
1.97469e-06
2.18994e-07
6.04432e-07
1.91793e-07
2.01108e-06
4.40388e-06
4.40556e-06
2.67253e-07
4.46211e-06
4.46414e-06
2.65615e-06
8.79907e-06
2.59779e-06
8.81376e-06
1.87588e-05
1.87366e-05
2.65702e-06
8.80105e-06
2.59741e-06
8.81477e-06
1.72979e-07
1.7299e-07
1.72988e-07
1.66564e-07
1.66561e-07
1.6657e-07
1.66564e-07
6.5428e-07
2.08826e-06
1.85187e-07
2.137e-07
6.40516e-07
2.12603e-06
1.83155e-07
1.87618e-05
1.87365e-05
6.54696e-07
1.85197e-07
2.08874e-06
2.13703e-07
6.40513e-07
1.83162e-07
2.12653e-06
4.55769e-06
4.55951e-06
2.68052e-07
4.60765e-06
4.60946e-06
2.83229e-06
8.81771e-06
2.76796e-06
8.83221e-06
1.86976e-05
1.86788e-05
2.83094e-06
8.81874e-06
2.76852e-06
8.83578e-06
1.64552e-07
1.64558e-07
1.64554e-07
1.58926e-07
1.58937e-07
1.58913e-07
1.58917e-07
7.04708e-07
2.2037e-06
1.77559e-07
2.10473e-07
6.86843e-07
2.24102e-06
1.75846e-07
1.86997e-05
1.8681e-05
7.04304e-07
1.77546e-07
2.20368e-06
2.10514e-07
6.86624e-07
1.75847e-07
2.24105e-06
4.69081e-06
4.69262e-06
2.72559e-07
4.73104e-06
4.73302e-06
3.00798e-06
8.83573e-06
2.94438e-06
8.85123e-06
1.86469e-05
1.86362e-05
3.00802e-06
8.83715e-06
2.94736e-06
8.84173e-06
1.57193e-07
1.5718e-07
1.57177e-07
1.52281e-07
1.52289e-07
1.52324e-07
1.5229e-07
7.64465e-07
2.31602e-06
1.71249e-07
2.09669e-07
7.4312e-07
2.3516e-06
1.69868e-07
1.86489e-05
1.8638e-05
7.64437e-07
1.71238e-07
2.31648e-06
2.09644e-07
7.43515e-07
1.69894e-07
2.35225e-06
4.79784e-06
4.79962e-06
2.81687e-07
4.83419e-06
4.83615e-06
3.17762e-06
8.84946e-06
3.12147e-06
8.87325e-06
1.86037e-05
1.85928e-05
3.17594e-06
8.86456e-06
3.11622e-06
8.86325e-06
1.50781e-07
1.508e-07
1.50771e-07
1.46667e-07
1.4668e-07
1.46612e-07
1.4668e-07
8.33317e-07
2.42716e-06
1.66238e-07
2.10802e-07
8.09689e-07
2.45834e-06
1.65199e-07
1.86079e-05
1.86007e-05
8.3479e-07
1.66267e-07
2.42668e-06
2.11061e-07
8.11445e-07
1.65183e-07
2.46121e-06
4.89e-06
4.89161e-06
2.95632e-07
4.91434e-06
4.91594e-06
3.3319e-06
8.87085e-06
3.27757e-06
8.86989e-06
1.85691e-05
1.85529e-05
3.33206e-06
8.86798e-06
3.27876e-06
8.87227e-06
1.45423e-07
1.45406e-07
1.45439e-07
1.41987e-07
1.42032e-07
1.42095e-07
1.41859e-07
9.10367e-07
2.52718e-06
1.62603e-07
2.15241e-07
8.8603e-07
2.56042e-06
1.61856e-07
1.85702e-05
1.85663e-05
9.09049e-07
1.625e-07
2.52323e-06
2.15227e-07
8.83028e-07
1.61795e-07
2.55298e-06
4.96314e-06
4.96516e-06
3.17049e-07
4.99354e-06
4.99591e-06
3.48509e-06
8.8877e-06
3.43432e-06
8.89859e-06
1.85483e-05
1.85378e-05
3.48143e-06
8.892e-06
3.4255e-06
8.89178e-06
1.41066e-07
1.4097e-07
1.40702e-07
1.37637e-07
1.38169e-07
1.37597e-07
1.37647e-07
9.88836e-07
2.61563e-06
1.60087e-07
2.22258e-07
9.6401e-07
2.64869e-06
1.59668e-07
1.85471e-05
1.85428e-05
9.92565e-07
1.60133e-07
2.63065e-06
2.20755e-07
9.64256e-07
1.59663e-07
2.66378e-06
5.03134e-06
5.03422e-06
3.2764e-07
5.05063e-06
5.05365e-06
3.58463e-06
8.9255e-06
3.54654e-06
8.91686e-06
1.85189e-05
1.85054e-05
3.59113e-06
8.91221e-06
3.55642e-06
8.91495e-06
1.37143e-07
1.3666e-07
1.36763e-07
1.34379e-07
1.34326e-07
1.34559e-07
1.34463e-07
1.08042e-06
2.72235e-06
1.58988e-07
2.27206e-07
1.04872e-06
2.75375e-06
1.58851e-07
1.8502e-05
1.84921e-05
1.07682e-06
1.58726e-07
2.72043e-06
2.23466e-07
1.04947e-06
1.58546e-07
2.73802e-06
5.08779e-06
5.08993e-06
3.41915e-07
5.10544e-06
5.10783e-06
3.68028e-06
8.89432e-06
3.64913e-06
8.90673e-06
1.84615e-05
1.84564e-05
3.67675e-06
8.92063e-06
3.64534e-06
8.91663e-06
1.33602e-07
1.33914e-07
1.33796e-07
1.3198e-07
1.32132e-07
1.32269e-07
1.32021e-07
1.15715e-06
2.79662e-06
1.58679e-07
2.31921e-07
1.13409e-06
2.81523e-06
1.58777e-07
1.84653e-05
1.84525e-05
1.15675e-06
1.5867e-07
2.7969e-06
2.35084e-07
1.12881e-06
1.58878e-07
2.82504e-06
5.13597e-06
5.13552e-06
3.66738e-07
5.14338e-06
5.14364e-06
3.75512e-06
8.9148e-06
3.72865e-06
8.92128e-06
1.84355e-05
1.84358e-05
3.75884e-06
8.91361e-06
3.72761e-06
8.91421e-06
1.31732e-07
1.31879e-07
1.3157e-07
1.30461e-07
1.30465e-07
1.30753e-07
1.30507e-07
1.24141e-06
2.86569e-06
1.5994e-07
2.45812e-07
1.21144e-06
2.89142e-06
1.60564e-07
1.84481e-05
1.84387e-05
1.24164e-06
1.60078e-07
2.85515e-06
2.46612e-07
1.21512e-06
1.60624e-07
2.88165e-06
5.16457e-06
5.16792e-06
3.88651e-07
5.17829e-06
5.18188e-06
3.81925e-06
8.92761e-06
3.79896e-06
8.93085e-06
1.84067e-05
1.84012e-05
3.81972e-06
8.93222e-06
3.80105e-06
8.94111e-06
1.30032e-07
1.30325e-07
1.3015e-07
1.29531e-07
1.29451e-07
1.29396e-07
1.28998e-07
1.323e-06
2.93966e-06
1.6258e-07
2.55148e-07
1.29814e-06
2.95301e-06
1.63377e-07
1.8409e-05
1.84071e-05
1.32285e-06
1.62643e-07
2.93988e-06
2.5749e-07
1.29623e-06
1.63482e-07
2.95406e-06
5.2109e-06
5.21275e-06
4.10187e-07
5.21817e-06
5.22013e-06
3.86056e-06
8.93774e-06
3.84463e-06
8.93796e-06
1.83854e-05
1.83722e-05
3.86064e-06
8.93787e-06
3.84484e-06
8.93701e-06
1.29396e-07
1.29288e-07
1.28967e-07
1.29453e-07
1.2911e-07
1.29498e-07
1.29745e-07
1.39599e-06
2.98255e-06
1.66384e-07
2.70332e-07
1.37214e-06
3.01071e-06
1.67559e-07
1.8383e-05
1.83675e-05
1.39761e-06
1.66428e-07
2.98251e-06
2.69365e-07
1.37415e-06
1.67624e-07
2.99883e-06
5.21143e-06
5.21335e-06
4.24515e-07
5.21576e-06
5.21691e-06
3.90003e-06
8.94547e-06
3.89134e-06
8.95529e-06
1.83447e-05
1.83443e-05
3.89719e-06
8.94728e-06
3.88684e-06
8.95493e-06
1.29123e-07
1.29933e-07
1.30128e-07
1.30028e-07
1.30012e-07
1.30933e-07
1.3069e-07
1.47049e-06
3.04372e-06
1.71728e-07
2.82819e-07
1.44654e-06
3.0418e-06
1.73309e-07
1.83565e-05
1.83617e-05
1.46831e-06
1.72173e-07
3.02696e-06
2.91947e-07
1.44487e-06
1.73891e-07
3.04082e-06
5.25335e-06
5.25317e-06
5.0228e-07
5.26238e-06
5.26276e-06
3.9221e-06
8.95056e-06
3.90946e-06
8.94744e-06
1.83304e-05
1.83189e-05
3.92936e-06
8.95038e-06
3.91598e-06
8.94759e-06
1.30744e-07
1.30972e-07
1.30778e-07
1.32324e-07
1.32546e-07
1.30968e-07
1.3132e-07
1.53383e-06
3.06864e-06
1.78801e-07
3.11016e-07
1.51261e-06
3.09276e-06
1.80908e-07
1.83485e-05
1.83357e-05
1.53835e-06
1.79099e-07
3.10056e-06
3.08438e-07
1.51566e-06
1.80929e-07
3.11419e-06
5.25614e-06
5.26055e-06
5.04224e-07
5.25462e-06
5.26068e-06
3.94744e-06
8.95868e-06
3.94399e-06
8.96759e-06
1.83264e-05
1.83295e-05
3.94142e-06
8.96381e-06
3.94113e-06
8.9696e-06
1.32849e-07
1.31113e-07
1.31941e-07
1.34282e-07
1.33883e-07
1.33669e-07
1.34605e-07
1.59295e-06
3.11935e-06
1.87355e-07
3.28912e-07
1.57597e-06
3.12152e-06
1.89434e-07
1.83068e-05
1.82924e-05
1.5885e-06
1.86521e-07
3.10336e-06
3.1731e-07
1.57449e-06
1.88604e-07
3.10289e-06
5.26104e-06
5.26277e-06
5.51145e-07
5.26931e-06
5.26915e-06
3.95516e-06
8.96104e-06
3.94968e-06
8.95838e-06
1.83017e-05
1.82945e-05
3.96184e-06
8.96016e-06
3.95082e-06
8.95752e-06
1.34803e-07
1.34724e-07
1.35694e-07
1.37966e-07
1.38036e-07
1.37318e-07
1.38529e-07
1.64153e-06
3.12908e-06
1.9638e-07
3.52231e-07
1.62532e-06
3.14867e-06
1.99084e-07
1.82703e-05
1.82757e-05
1.64585e-06
1.96073e-07
3.15041e-06
3.53048e-07
1.62434e-06
1.99024e-07
3.1671e-06
5.28537e-06
5.2874e-06
6.20371e-07
5.29236e-06
5.29635e-06
3.97852e-06
8.96581e-06
3.97274e-06
8.97557e-06
1.8289e-05
1.83033e-05
3.97247e-06
8.97109e-06
3.97237e-06
8.98052e-06
1.38855e-07
1.38272e-07
1.39155e-07
1.41274e-07
1.40815e-07
1.4234e-07
1.407e-07
1.69659e-06
3.19262e-06
2.07947e-07
3.78158e-07
1.67855e-06
3.19654e-06
2.10968e-07
1.83074e-05
1.83042e-05
1.69196e-06
2.07803e-07
3.16414e-06
3.75344e-07
1.67973e-06
2.10762e-07
3.16686e-06
5.31435e-06
5.31658e-06
6.35676e-07
5.30763e-06
5.30719e-06
3.97989e-06
8.97863e-06
3.97828e-06
8.97873e-06
1.82911e-05
1.82732e-05
3.98546e-06
8.97902e-06
3.97783e-06
8.97718e-06
1.41801e-07
1.43801e-07
1.41413e-07
1.44831e-07
1.45983e-07
1.47189e-07
1.45256e-07
1.73023e-06
3.18778e-06
2.19664e-07
3.97254e-07
1.7218e-06
3.19895e-06
2.22658e-07
1.82796e-05
1.82914e-05
1.73452e-06
2.20429e-07
3.20751e-06
4.12004e-07
1.7209e-06
2.23878e-07
3.2206e-06
5.28778e-06
5.28827e-06
6.36813e-07
5.29216e-06
5.29535e-06
3.99142e-06
8.98121e-06
3.99016e-06
8.97994e-06
1.82474e-05
1.82728e-05
3.98889e-06
8.98552e-06
3.99134e-06
8.98556e-06
1.47418e-07
1.48091e-07
1.46909e-07
1.51105e-07
1.51569e-07
1.51342e-07
1.51995e-07
1.77361e-06
3.23267e-06
2.33206e-07
4.30218e-07
1.75795e-06
3.23469e-06
2.37033e-07
1.83129e-05
1.82991e-05
1.7712e-06
2.33882e-07
3.22517e-06
4.2923e-07
1.75903e-06
2.37245e-07
3.22967e-06
5.31612e-06
5.31885e-06
7.19718e-07
5.32169e-06
5.32367e-06
3.99723e-06
8.97782e-06
3.99253e-06
8.98849e-06
1.82881e-05
1.82792e-05
3.99974e-06
8.97886e-06
3.99352e-06
8.98835e-06
1.53208e-07
1.52718e-07
1.53719e-07
1.58542e-07
1.59191e-07
1.57548e-07
1.5878e-07
1.80273e-06
3.23487e-06
2.48239e-07
4.59366e-07
1.793e-06
3.25152e-06
2.52181e-07
1.82634e-05
1.82631e-05
1.80449e-06
2.47956e-07