/*--------------------------------*- C++ -*----------------------------------*\
| =========                 |                                                 |
| \\      /  F ield         | OpenFOAM: The Open Source CFD Toolbox           |
|  \\    /   O peration     | Version:  v2012                                 |
|   \\  /    A nd           | Website:  www.openfoam.com                      |
|    \\/     M anipulation  |                                                 |
\*---------------------------------------------------------------------------*/
FoamFile
{
    version     2.0;
    format      ascii;
    class       volScalarField;
    location    "500";
    object      k;
}
// * * * * * * * * * * * * * * * * * * * * * * * * * * * * * * * * * * * * * //

dimensions      [0 2 -2 0 0 0 0];


internalField   nonuniform List<scalar> 
85864
(
3.58932e-05
3.58912e-05
3.58912e-05
3.59957e-05
3.39296e-05
3.3889e-05
3.3889e-05
3.39622e-05
3.21578e-05
3.20081e-05
3.20081e-05
3.19522e-05
3.05346e-05
3.02293e-05
3.02292e-05
2.99885e-05
2.90329e-05
2.8554e-05
2.85539e-05
2.81226e-05
2.76353e-05
2.69872e-05
2.69871e-05
2.63907e-05
2.63308e-05
2.5531e-05
2.55309e-05
2.48073e-05
2.51112e-05
2.4185e-05
2.41848e-05
2.33782e-05
2.39709e-05
2.29506e-05
2.29504e-05
2.21046e-05
2.29057e-05
2.18269e-05
2.18267e-05
2.09859e-05
2.1912e-05
2.08114e-05
2.08112e-05
2.00136e-05
2.09865e-05
1.99014e-05
1.9901e-05
1.91812e-05
2.0124e-05
1.90949e-05
1.90946e-05
1.849e-05
1.93239e-05
1.83888e-05
1.83886e-05
1.79348e-05
1.85848e-05
1.77803e-05
1.77802e-05
1.75079e-05
1.7905e-05
1.72694e-05
1.72692e-05
1.72117e-05
1.72812e-05
1.68556e-05
1.68522e-05
1.70466e-05
1.6711e-05
1.65276e-05
1.653e-05
1.70201e-05
1.62047e-05
1.63459e-05
1.63692e-05
1.72891e-05
1.57421e-05
1.62626e-05
1.62085e-05
1.75595e-05
1.5354e-05
1.6304e-05
1.64047e-05
1.85117e-05
1.4959e-05
1.65438e-05
1.62454e-05
1.8234e-05
1.46028e-05
1.63112e-05
1.6269e-05
1.87725e-05
1.43375e-05
1.64595e-05
1.66107e-05
1.9441e-05
1.41025e-05
1.6925e-05
1.70539e-05
2.03474e-05
1.3891e-05
1.6973e-05
1.7084e-05
2.00725e-05
1.37763e-05
1.75726e-05
1.74363e-05
2.11994e-05
1.36065e-05
1.7693e-05
1.86905e-05
2.38272e-05
1.36593e-05
1.92374e-05
1.84654e-05
2.23612e-05
1.36186e-05
1.92631e-05
1.89472e-05
2.55253e-05
1.37267e-05
2.07136e-05
2.03056e-05
2.75644e-05
1.37709e-05
2.09678e-05
2.13538e-05
2.63772e-05
1.38217e-05
2.2028e-05
2.25279e-05
2.71555e-05
1.39436e-05
2.2782e-05
2.27796e-05
3.0037e-05
1.44326e-05
2.44404e-05
2.38264e-05
3.13705e-05
1.45631e-05
2.51826e-05
2.4836e-05
3.10207e-05
1.5029e-05
2.5632e-05
2.59798e-05
3.29652e-05
1.53126e-05
2.67365e-05
2.68425e-05
3.3533e-05
1.56589e-05
2.78593e-05
2.79301e-05
3.44424e-05
1.61585e-05
2.89165e-05
2.89174e-05
3.54582e-05
1.66027e-05
2.99385e-05
2.99246e-05
3.63562e-05
1.72217e-05
3.09941e-05
3.09616e-05
3.72118e-05
1.7768e-05
3.20269e-05
3.20186e-05
3.80716e-05
1.83877e-05
3.30296e-05
3.30547e-05
3.90067e-05
1.90258e-05
3.40403e-05
3.40155e-05
3.98137e-05
1.97282e-05
3.4997e-05
3.50053e-05
4.06166e-05
2.04566e-05
3.59623e-05
3.5988e-05
4.1334e-05
3.63068e-05
3.6291e-05
3.6291e-05
3.63068e-05
3.6291e-05
3.6291e-05
3.6423e-05
3.6423e-05
3.6423e-05
3.6423e-05
3.6291e-05
3.6291e-05
3.63068e-05
3.6291e-05
3.6291e-05
3.63068e-05
3.59957e-05
3.42687e-05
3.58912e-05
3.58912e-05
3.43767e-05
3.43766e-05
3.59957e-05
3.42687e-05
3.58911e-05
3.58912e-05
3.43767e-05
3.43766e-05
3.58912e-05
3.43767e-05
3.43767e-05
3.59957e-05
3.42687e-05
3.58912e-05
3.43767e-05
3.43767e-05
3.42687e-05
3.39623e-05
3.22635e-05
3.38889e-05
3.38889e-05
3.24684e-05
3.24683e-05
3.39623e-05
3.22635e-05
3.38889e-05
3.38889e-05
3.24684e-05
3.24683e-05
3.38889e-05
3.24685e-05
3.24684e-05
3.39623e-05
3.22634e-05
3.38889e-05
3.24685e-05
3.24684e-05
3.22634e-05
3.19522e-05
3.02993e-05
3.20079e-05
3.20078e-05
3.06643e-05
3.06642e-05
3.19522e-05
3.02994e-05
3.2008e-05
3.20078e-05
3.06644e-05
3.06641e-05
3.20079e-05
3.06646e-05
3.06643e-05
3.19522e-05
3.02992e-05
3.2008e-05
3.06645e-05
3.06644e-05
3.02992e-05
2.99885e-05
2.84253e-05
3.0229e-05
3.02288e-05
2.89624e-05
2.89622e-05
2.99886e-05
2.84255e-05
3.02291e-05
3.02287e-05
2.89626e-05
2.89621e-05
3.02289e-05
2.89628e-05
2.89623e-05
2.99885e-05
2.84252e-05
3.02291e-05
2.89627e-05
2.89626e-05
2.84252e-05
2.81227e-05
2.6674e-05
2.85536e-05
2.85534e-05
2.7368e-05
2.73678e-05
2.81228e-05
2.66742e-05
2.85538e-05
2.85533e-05
2.73683e-05
2.73676e-05
2.85535e-05
2.73685e-05
2.73679e-05
2.81226e-05
2.66739e-05
2.85538e-05
2.73684e-05
2.73683e-05
2.66738e-05
2.63909e-05
2.50663e-05
2.69866e-05
2.69864e-05
2.58841e-05
2.58838e-05
2.63909e-05
2.50665e-05
2.6987e-05
2.69862e-05
2.58845e-05
2.58836e-05
2.69865e-05
2.58848e-05
2.5884e-05
2.63907e-05
2.50661e-05
2.69869e-05
2.58846e-05
2.58844e-05
2.50661e-05
2.48075e-05
2.36125e-05
2.55304e-05
2.553e-05
2.45102e-05
2.45099e-05
2.48077e-05
2.36126e-05
2.55308e-05
2.55299e-05
2.45107e-05
2.45097e-05
2.55302e-05
2.4511e-05
2.45102e-05
2.48073e-05
2.36123e-05
2.55307e-05
2.45109e-05
2.45107e-05
2.36123e-05
2.33783e-05
2.23124e-05
2.41842e-05
2.41839e-05
2.32479e-05
2.32475e-05
2.33786e-05
2.23127e-05
2.41847e-05
2.41836e-05
2.32484e-05
2.32473e-05
2.41841e-05
2.32488e-05
2.32478e-05
2.33782e-05
2.23123e-05
2.41847e-05
2.32485e-05
2.32484e-05
2.23121e-05
2.2105e-05
2.1168e-05
2.29497e-05
2.29494e-05
2.20966e-05
2.20962e-05
2.2105e-05
2.11683e-05
2.29503e-05
2.29491e-05
2.20972e-05
2.2096e-05
2.29496e-05
2.20976e-05
2.20965e-05
2.21046e-05
2.11679e-05
2.29503e-05
2.20974e-05
2.20972e-05
2.11678e-05
2.09863e-05
2.01709e-05
2.18259e-05
2.18255e-05
2.10542e-05
2.10538e-05
2.09866e-05
2.01709e-05
2.18266e-05
2.18253e-05
2.1055e-05
2.10536e-05
2.18258e-05
2.10553e-05
2.10542e-05
2.09862e-05
2.01704e-05
2.18266e-05
2.10551e-05
2.1055e-05
2.01704e-05
2.00139e-05
1.93145e-05
2.08103e-05
2.08099e-05
2.0118e-05
2.01177e-05
2.00137e-05
1.93151e-05
2.08111e-05
2.08097e-05
2.01188e-05
2.01175e-05
2.08102e-05
2.01192e-05
2.0118e-05
2.00132e-05
1.93149e-05
2.08111e-05
2.0119e-05
2.01189e-05
1.93144e-05
1.91815e-05
1.85908e-05
1.99003e-05
1.98999e-05
1.92858e-05
1.92855e-05
1.91824e-05
1.85909e-05
1.99011e-05
1.98996e-05
1.92866e-05
1.92854e-05
1.99001e-05
1.92869e-05
1.92858e-05
1.9182e-05
1.85916e-05
1.9901e-05
1.92869e-05
1.92867e-05
1.85909e-05
1.84896e-05
1.79991e-05
1.90935e-05
1.90935e-05
1.8555e-05
1.85547e-05
1.84909e-05
1.7998e-05
1.90943e-05
1.90932e-05
1.85559e-05
1.85546e-05
1.90936e-05
1.85559e-05
1.8555e-05
1.8491e-05
1.79989e-05
1.90945e-05
1.8556e-05
1.85559e-05
1.8e-05
1.79334e-05
1.75411e-05
1.83876e-05
1.83877e-05
1.79224e-05
1.79216e-05
1.79347e-05
1.75406e-05
1.83886e-05
1.83873e-05
1.79229e-05
1.79217e-05
1.83875e-05
1.79234e-05
1.79221e-05
1.79356e-05
1.75414e-05
1.83886e-05
1.79234e-05
1.79227e-05
1.75411e-05
1.75076e-05
1.72268e-05
1.7779e-05
1.77789e-05
1.73861e-05
1.73868e-05
1.75083e-05
1.72237e-05
1.77795e-05
1.77788e-05
1.73865e-05
1.73868e-05
1.77785e-05
1.73873e-05
1.7387e-05
1.75086e-05
1.72254e-05
1.77788e-05
1.73872e-05
1.73876e-05
1.72295e-05
1.7209e-05
1.70353e-05
1.72681e-05
1.72685e-05
1.69423e-05
1.6943e-05
1.72076e-05
1.70336e-05
1.72686e-05
1.7268e-05
1.6944e-05
1.6946e-05
1.72668e-05
1.69443e-05
1.6947e-05
1.72097e-05
1.7036e-05
1.72675e-05
1.69469e-05
1.69483e-05
1.70482e-05
1.70321e-05
1.7022e-05
1.68499e-05
1.68537e-05
1.66038e-05
1.65987e-05
1.7034e-05
1.70054e-05
1.68505e-05
1.68532e-05
1.66042e-05
1.66051e-05
1.68508e-05
1.65978e-05
1.66032e-05
1.70366e-05
1.70091e-05
1.68527e-05
1.66048e-05
1.66017e-05
1.70098e-05
1.70292e-05
1.72073e-05
1.65252e-05
1.65291e-05
1.63976e-05
1.64003e-05
1.70189e-05
1.72443e-05
1.65288e-05
1.65312e-05
1.63936e-05
1.63798e-05
1.65298e-05
1.64008e-05
1.6382e-05
1.70181e-05
1.72044e-05
1.65274e-05
1.63823e-05
1.63861e-05
1.72034e-05
1.72964e-05
1.73965e-05
1.63625e-05
1.63491e-05
1.62212e-05
1.62437e-05
1.73093e-05
1.7451e-05
1.63552e-05
1.63645e-05
1.6221e-05
1.6227e-05
1.63505e-05
1.62499e-05
1.62296e-05
1.7307e-05
1.74949e-05
1.63535e-05
1.62271e-05
1.62379e-05
1.74633e-05
1.74817e-05
1.85483e-05
1.62259e-05
1.62512e-05
1.63466e-05
1.62847e-05
1.75945e-05
1.82957e-05
1.62266e-05
1.62097e-05
1.63412e-05
1.63304e-05
1.62328e-05
1.62959e-05
1.6323e-05
1.7509e-05
1.86295e-05
1.62428e-05
1.63342e-05
1.63341e-05
1.84559e-05
1.86579e-05
1.85429e-05
1.6366e-05
1.62987e-05
1.63227e-05
1.65343e-05
1.83659e-05
1.96425e-05
1.63536e-05
1.6408e-05
1.63077e-05
1.63886e-05
1.63246e-05
1.65072e-05
1.62094e-05
1.89192e-05
1.86623e-05
1.63321e-05
1.63669e-05
1.61972e-05
1.82241e-05
1.85258e-05
1.82905e-05
1.6251e-05
1.65627e-05
1.61865e-05
1.63924e-05
1.97669e-05
1.88033e-05
1.62573e-05
1.62607e-05
1.62123e-05
1.6173e-05
1.62034e-05
1.64039e-05
1.62593e-05
1.85135e-05
1.81771e-05
1.61924e-05
1.61809e-05
1.62483e-05
1.86123e-05
1.84138e-05
1.93939e-05
1.6209e-05
1.63104e-05
1.64853e-05
1.63287e-05
1.86874e-05
1.88229e-05
1.62318e-05
1.62612e-05
1.64769e-05
1.65759e-05
1.63273e-05
1.63197e-05
1.64738e-05
1.85766e-05
1.97417e-05
1.63092e-05
1.65879e-05
1.64575e-05
1.93752e-05
1.94913e-05
1.97974e-05
1.65275e-05
1.64677e-05
1.66741e-05
1.68704e-05
1.92922e-05
2.05068e-05
1.65159e-05
1.65977e-05
1.66802e-05
1.69326e-05
1.64954e-05
1.68832e-05
1.67518e-05
1.97881e-05
2.0843e-05
1.64969e-05
1.69254e-05
1.67775e-05
2.00883e-05
2.00405e-05
2.05547e-05
1.68143e-05
1.69176e-05
1.7023e-05
1.69439e-05
2.05183e-05
2.00753e-05
1.68231e-05
1.70669e-05
1.70268e-05
1.71009e-05
1.68607e-05
1.69418e-05
1.69923e-05
2.10537e-05
2.04135e-05
1.68717e-05
1.70935e-05
1.69895e-05
2.01465e-05
2.06198e-05
2.17206e-05
1.7068e-05
1.69775e-05
1.756e-05
1.75062e-05
2.01259e-05
2.14856e-05
1.70701e-05
1.70889e-05
1.75532e-05
1.72635e-05
1.69739e-05
1.7498e-05
1.70688e-05
2.03777e-05
2.09476e-05
1.69722e-05
1.72651e-05
1.70669e-05
2.02059e-05
2.18465e-05
2.15895e-05
1.77028e-05
1.75807e-05
1.77991e-05
1.75963e-05
2.14921e-05
2.08332e-05
1.76941e-05
1.74422e-05
1.77928e-05
1.84231e-05
1.74196e-05
1.75924e-05
1.84642e-05
2.12929e-05
2.4114e-05
1.74147e-05
1.8424e-05
1.84653e-05
2.39088e-05
2.16536e-05
2.43715e-05
1.7857e-05
1.76918e-05
1.88441e-05
1.90397e-05
2.09934e-05
2.50587e-05
1.78554e-05
1.86846e-05
1.88565e-05
1.86377e-05
1.8488e-05
1.90435e-05
1.84199e-05
2.45056e-05
2.2464e-05
1.84936e-05
1.8643e-05
1.84275e-05
2.23213e-05
2.46401e-05
2.45323e-05
1.90975e-05
1.92406e-05
1.92963e-05
1.92569e-05
2.51307e-05
2.38841e-05
1.91026e-05
1.84647e-05
1.92881e-05
1.85235e-05
1.8434e-05
1.92497e-05
1.92438e-05
2.20461e-05
2.26294e-05
1.84397e-05
1.85204e-05
1.92259e-05
2.48879e-05
2.4606e-05
2.6601e-05
1.93907e-05
1.927e-05
2.03263e-05
2.02809e-05
2.39123e-05
2.70277e-05
1.93792e-05
1.89522e-05
2.03394e-05
2.02541e-05
1.96415e-05
2.02783e-05
2.05791e-05
2.39546e-05
2.60565e-05
1.96292e-05
2.02504e-05
2.05937e-05
2.73411e-05
2.68943e-05
2.70303e-05
2.06207e-05
2.07142e-05
2.09692e-05
2.09779e-05
2.74329e-05
2.62897e-05
2.06289e-05
2.03082e-05
2.09538e-05
2.07076e-05
2.08339e-05
2.09817e-05
2.10645e-05
2.6005e-05
2.69393e-05
2.08419e-05
2.07141e-05
2.10481e-05
2.65327e-05
2.70956e-05
2.70557e-05
2.10731e-05
2.09652e-05
2.1596e-05
2.14439e-05
2.62195e-05
2.79515e-05
2.10553e-05
2.1346e-05
2.16031e-05
2.24977e-05
2.10174e-05
2.14288e-05
2.10755e-05
2.80528e-05
2.96135e-05
2.10008e-05
2.24831e-05
2.10731e-05
2.63761e-05
2.70723e-05
2.81525e-05
2.16352e-05
2.20437e-05
2.2046e-05
2.27094e-05
2.86663e-05
2.91317e-05
2.16438e-05
2.25446e-05
2.20451e-05
2.26099e-05
2.14247e-05
2.27051e-05
2.2793e-05
2.95406e-05
2.88027e-05
2.14419e-05
2.26083e-05
2.27895e-05
2.97882e-05
2.91549e-05
3.12086e-05
2.26857e-05
2.27834e-05
2.41228e-05
2.39563e-05
2.91703e-05
3.14131e-05
2.26816e-05
2.2764e-05
2.41243e-05
2.3568e-05
2.30461e-05
2.39542e-05
2.40705e-05
2.89527e-05
3.01185e-05
2.3043e-05
2.35631e-05
2.40757e-05
3.12135e-05
3.12069e-05
3.07562e-05
2.42578e-05
2.44464e-05
2.44246e-05
2.51422e-05
3.19893e-05
3.20689e-05
2.42581e-05
2.38328e-05
2.44171e-05
2.45752e-05
2.43635e-05
2.51424e-05
2.46038e-05
3.03719e-05
3.12605e-05
2.43659e-05
2.45749e-05
2.45978e-05
3.0983e-05
3.10559e-05
3.33919e-05
2.46706e-05
2.51814e-05
2.59864e-05
2.54229e-05
3.20558e-05
3.17501e-05
2.46553e-05
2.48347e-05
2.59818e-05
2.57201e-05
2.46622e-05
2.54218e-05
2.56366e-05
3.15405e-05
3.25705e-05
2.46539e-05
2.57198e-05
2.56313e-05
3.25637e-05
3.36025e-05
3.32978e-05
2.63286e-05
2.5636e-05
2.67544e-05
2.64566e-05
3.19164e-05
3.30229e-05
2.63272e-05
2.59821e-05
2.67544e-05
2.66133e-05
2.60118e-05
2.64478e-05
2.67128e-05
3.27848e-05
3.32387e-05
2.60104e-05
2.6604e-05
2.67132e-05
3.34315e-05
3.33203e-05
3.41765e-05
2.68117e-05
2.67436e-05
2.75173e-05
2.75807e-05
3.33004e-05
3.42231e-05
2.68115e-05
2.68505e-05
2.75161e-05
2.76587e-05
2.68862e-05
2.75824e-05
2.75816e-05
3.3429e-05
3.43665e-05
2.68856e-05
2.76611e-05
2.75782e-05
3.41713e-05
3.45994e-05
3.53228e-05
2.79011e-05
2.78576e-05
2.87744e-05
2.86615e-05
3.44541e-05
3.52105e-05
2.78994e-05
2.79274e-05
2.8771e-05
2.8688e-05
2.7868e-05
2.86552e-05
2.8688e-05
3.45998e-05
3.52119e-05
2.78649e-05
2.86827e-05
2.86858e-05
3.52692e-05
3.54038e-05
3.58983e-05
2.89264e-05
2.89242e-05
2.95617e-05
2.96906e-05
3.54212e-05
3.61192e-05
2.89234e-05
2.89238e-05
2.95578e-05
2.96614e-05
2.89333e-05
2.96897e-05
2.96986e-05
3.539e-05
3.60598e-05
2.89312e-05
2.96615e-05
2.9696e-05
3.61378e-05
3.62299e-05
3.73266e-05
2.98811e-05
2.99372e-05
3.08547e-05
3.07218e-05
3.63148e-05
3.70409e-05
2.98778e-05
2.99223e-05
3.08523e-05
3.07009e-05
2.99648e-05
3.07204e-05
3.07291e-05
3.62779e-05
3.699e-05
2.99618e-05
3.07004e-05
3.07267e-05
3.70277e-05
3.74978e-05
3.78549e-05
3.11214e-05
3.09974e-05
3.17438e-05
3.17829e-05
3.7265e-05
3.79614e-05
3.1119e-05
3.0964e-05
3.17414e-05
3.17572e-05
3.09777e-05
3.1779e-05
3.1734e-05
3.7192e-05
3.79358e-05
3.09756e-05
3.17544e-05
3.17302e-05
3.78692e-05
3.80132e-05
3.87951e-05
3.19749e-05
3.20299e-05
3.27867e-05
3.27746e-05
3.81417e-05
3.87782e-05
3.19728e-05
3.20206e-05
3.27838e-05
3.28041e-05
3.19915e-05
3.27725e-05
3.27812e-05
3.81444e-05
3.88325e-05
3.19875e-05
3.28028e-05
3.27792e-05
3.88052e-05
3.89824e-05
3.94977e-05
3.30309e-05
3.30322e-05
3.37253e-05
3.38031e-05
3.89789e-05
3.9649e-05
3.30282e-05
3.30561e-05
3.37239e-05
3.37796e-05
3.30444e-05
3.38009e-05
3.37967e-05
3.90181e-05
3.95886e-05
3.30425e-05
3.37789e-05
3.37948e-05
3.96347e-05
3.96952e-05
4.04371e-05
3.39781e-05
3.40417e-05
3.47512e-05
3.47564e-05
3.98246e-05
4.0389e-05
3.39767e-05
3.40158e-05
3.47481e-05
3.475e-05
3.40396e-05
3.47558e-05
3.47805e-05
3.97611e-05
4.04085e-05
3.40372e-05
3.47504e-05
3.4777e-05
4.04394e-05
4.06273e-05
4.12166e-05
3.50103e-05
3.49977e-05
3.57453e-05
3.5716e-05
4.05689e-05
4.11858e-05
3.50077e-05
3.50048e-05
3.57435e-05
3.57536e-05
3.50224e-05
3.57135e-05
3.57142e-05
4.06046e-05
4.12437e-05
3.50193e-05
3.57528e-05
3.57123e-05
4.11638e-05
4.13721e-05
4.19714e-05
3.5966e-05
3.5965e-05
3.66706e-05
3.66719e-05
4.13666e-05
4.19759e-05
3.59651e-05
3.59894e-05
3.66691e-05
3.66575e-05
3.59467e-05
3.66703e-05
3.66746e-05
4.14073e-05
4.19282e-05
3.59452e-05
3.66578e-05
3.66732e-05
4.19726e-05
3.73773e-05
3.73765e-05
3.7377e-05
3.7377e-05
3.73701e-05
3.73777e-05
3.73043e-05
3.73768e-05
3.73701e-05
3.73777e-05
3.73768e-05
3.73043e-05
3.73741e-05
3.72959e-05
3.72959e-05
3.58797e-05
4.08725e-05
3.66033e-05
4.51461e-05
5.51147e-05
6.48947e-05
3.58803e-05
4.08716e-05
3.66034e-05
4.5146e-05
3.58932e-05
3.58933e-05
3.58932e-05
3.44005e-05
3.44005e-05
3.44005e-05
3.44005e-05
3.52758e-05
3.56385e-05
3.58929e-05
3.53771e-05
3.60476e-05
3.42364e-05
3.53822e-05
5.51168e-05
6.48989e-05
3.52758e-05
3.58929e-05
3.56381e-05
3.53771e-05
3.60475e-05
3.53822e-05
3.42374e-05
3.6597e-05
3.65976e-05
3.5279e-05
3.40643e-05
3.40634e-05
3.39657e-05
5.13543e-05
3.46793e-05
5.46241e-05
7.65453e-05
8.0861e-05
3.39681e-05
5.13551e-05
3.46789e-05
5.46246e-05
3.39296e-05
3.39297e-05
3.39297e-05
3.25854e-05
3.25854e-05
3.25855e-05
3.25855e-05
3.3054e-05
3.24751e-05
3.39295e-05
3.34087e-05
3.38961e-05
3.15753e-05
3.34678e-05
7.65464e-05
8.0865e-05
3.30541e-05
3.39295e-05
3.2474e-05
3.34087e-05
3.38958e-05
3.34678e-05
3.15772e-05
3.17168e-05
3.17161e-05
3.32637e-05
3.09259e-05
3.09242e-05
3.22499e-05
5.91699e-05
3.29237e-05
6.14388e-05
8.43923e-05
8.50675e-05
3.22523e-05
5.91723e-05
3.29218e-05
6.14428e-05
3.21578e-05
3.21578e-05
3.21578e-05
3.09282e-05
3.09282e-05
3.09281e-05
3.09282e-05
3.07894e-05
3.05137e-05
3.21376e-05
3.15541e-05
3.16369e-05
2.98864e-05
3.17101e-05
8.43941e-05
8.50701e-05
3.07893e-05
3.21376e-05
3.05135e-05
3.1554e-05
3.16364e-05
3.17101e-05
2.98874e-05
3.02175e-05
3.02165e-05
3.1273e-05
3.00048e-05
3.00035e-05
3.07531e-05
6.4352e-05
3.13502e-05
6.57222e-05
8.46124e-05
8.39098e-05
3.07542e-05
6.43517e-05
3.13502e-05
6.57283e-05
3.05346e-05
3.05346e-05
3.05346e-05
2.9398e-05
2.9398e-05
2.93979e-05
2.9398e-05
2.86007e-05
2.91414e-05
3.04694e-05
2.98005e-05
2.9413e-05
2.86746e-05
3.00687e-05
8.46123e-05
8.39124e-05
2.86007e-05
3.04694e-05
2.9142e-05
2.98004e-05
2.94125e-05
3.00687e-05
2.86755e-05
2.99416e-05
2.99406e-05
2.93483e-05
3.00363e-05
3.00352e-05
2.95178e-05
6.73225e-05
3.00005e-05
6.80269e-05
8.22147e-05
8.12191e-05
2.95188e-05
6.73218e-05
3.00009e-05
6.80338e-05
2.90329e-05
2.90328e-05
2.90328e-05
2.79756e-05
2.79756e-05
2.79756e-05
2.79756e-05
2.65677e-05
2.8123e-05
2.89027e-05
2.8152e-05
2.73171e-05
2.7781e-05
2.85257e-05
8.22142e-05
8.12212e-05
2.65677e-05
2.89027e-05
2.81234e-05
2.81519e-05
2.73166e-05
2.85256e-05
2.77819e-05
3.04504e-05
3.04498e-05
2.75329e-05
3.0768e-05
3.07675e-05
2.86039e-05
6.87477e-05
2.89472e-05
6.90314e-05
7.94372e-05
7.85324e-05
2.86049e-05
6.87469e-05
2.89476e-05
6.90394e-05
2.76353e-05
2.76353e-05
2.76353e-05
2.66486e-05
2.66487e-05
2.66486e-05
2.66486e-05
2.47436e-05
2.74058e-05
2.74287e-05
2.66128e-05
2.5414e-05
2.71908e-05
2.70743e-05
7.94351e-05
7.85337e-05
2.47437e-05
2.74286e-05
2.7406e-05
2.66126e-05
2.54135e-05
2.70741e-05
2.71914e-05
3.16006e-05
3.16001e-05
2.58511e-05
3.21173e-05
3.21176e-05
2.80581e-05
6.92493e-05
2.82444e-05
6.93092e-05
7.7007e-05
7.62874e-05
2.80589e-05
6.92555e-05
2.82449e-05
6.93181e-05
2.63308e-05
2.63307e-05
2.63307e-05
2.54084e-05
2.54084e-05
2.54083e-05
2.54084e-05
2.31634e-05
2.70013e-05
2.60444e-05
2.51841e-05
2.37465e-05
2.69211e-05
2.57123e-05
7.70051e-05
7.62878e-05
2.31638e-05
2.60444e-05
2.70013e-05
2.51839e-05
2.3746e-05
2.57121e-05
2.69221e-05
3.32112e-05
3.32114e-05
2.432e-05
3.39014e-05
3.39031e-05
2.79142e-05
6.92959e-05
2.79271e-05
6.92757e-05
7.50745e-05
7.45344e-05
2.79139e-05
6.93082e-05
2.79273e-05
6.92687e-05
2.51112e-05
2.51111e-05
2.51111e-05
2.42488e-05
2.42488e-05
2.42486e-05
2.42487e-05
2.18462e-05
2.6935e-05
2.47489e-05
2.38659e-05
2.23368e-05
2.69823e-05
2.44388e-05
7.50724e-05
7.45354e-05
2.1846e-05
2.47488e-05
2.6934e-05
2.38657e-05
2.23367e-05
2.44386e-05
2.69837e-05
3.51857e-05
3.51863e-05
2.29423e-05
3.60159e-05
3.60186e-05
2.8158e-05
6.9199e-05
2.80328e-05
6.91698e-05
7.3607e-05
7.32132e-05
2.81604e-05
6.91935e-05
2.80299e-05
6.91753e-05
2.3971e-05
2.39708e-05
2.39709e-05
2.31652e-05
2.31652e-05
2.3165e-05
2.31651e-05
2.08002e-05
2.72003e-05
2.3541e-05
2.26594e-05
2.11955e-05
2.73559e-05
2.32523e-05
7.36073e-05
7.32131e-05
2.08005e-05
2.35409e-05
2.72001e-05
2.26592e-05
2.11945e-05
2.32521e-05
2.73564e-05
3.73588e-05
3.73662e-05
2.1721e-05
3.83742e-05
3.83795e-05
2.88199e-05
6.91235e-05
2.85565e-05
6.91005e-05
7.25282e-05
7.22426e-05
2.88221e-05
6.91217e-05
2.85559e-05
6.91104e-05
2.29058e-05
2.29056e-05
2.29057e-05
2.21538e-05
2.21539e-05
2.21537e-05
2.21538e-05
2.00281e-05
2.77801e-05
2.24171e-05
2.1563e-05
2.03175e-05
2.80354e-05
2.21493e-05
7.25287e-05
7.22428e-05
2.0028e-05
2.2417e-05
2.77795e-05
2.15628e-05
2.03173e-05
2.2149e-05
2.80364e-05
3.98179e-05
3.98229e-05
2.06513e-05
4.07652e-05
4.07778e-05
2.99043e-05
6.90986e-05
2.94945e-05
6.9115e-05
7.17499e-05
7.15513e-05
2.99101e-05
6.91082e-05
2.94973e-05
6.91217e-05
2.1912e-05
2.19118e-05
2.19119e-05
2.12115e-05
2.12115e-05
2.12113e-05
2.12114e-05
1.95212e-05
2.86496e-05
2.1377e-05
2.05741e-05
1.97024e-05
2.89942e-05
2.113e-05
7.17502e-05
7.15514e-05
1.95222e-05
2.13768e-05
2.86486e-05
2.0574e-05
1.97022e-05
2.11298e-05
2.89959e-05
4.22576e-05
4.22746e-05
1.97251e-05
4.31166e-05
4.31146e-05
3.1437e-05
6.91453e-05
3.08225e-05
6.92019e-05
7.12046e-05
7.10623e-05
3.13915e-05
6.91635e-05
3.08341e-05
6.91863e-05
2.09865e-05
2.09862e-05
2.09863e-05
2.03341e-05
2.0334e-05
2.03338e-05
2.0334e-05
1.92784e-05
2.97787e-05
2.042e-05
1.969e-05
1.93521e-05
3.01903e-05
2.01934e-05
7.1203e-05
7.10652e-05
1.92767e-05
2.04199e-05
2.97763e-05
1.96898e-05
1.9353e-05
2.01932e-05
3.01913e-05
4.45517e-05
4.45603e-05
1.89361e-05
4.56107e-05
4.56303e-05
3.3307e-05
6.92628e-05
3.25586e-05
6.92803e-05
7.08213e-05
7.07215e-05
3.33544e-05
6.92565e-05
3.24997e-05
6.92954e-05
2.01241e-05
2.01239e-05
2.0124e-05
1.95181e-05
1.95181e-05
1.95179e-05
1.9518e-05
1.92987e-05
3.11162e-05
1.95433e-05
1.8909e-05
1.92656e-05
3.15952e-05
1.93365e-05
7.08242e-05
7.07208e-05
1.92976e-05
1.95432e-05
3.1119e-05
1.89087e-05
1.92653e-05
1.93362e-05
3.15901e-05
4.69777e-05
4.69883e-05
1.82764e-05
4.76923e-05
4.76932e-05
3.54032e-05
6.93616e-05
3.46919e-05
6.93971e-05
7.0549e-05
7.0485e-05
3.54637e-05
6.93777e-05
3.46819e-05
6.93956e-05
1.93239e-05
1.93237e-05
1.93239e-05
1.87641e-05
1.8764e-05
1.87638e-05
1.87639e-05
1.95693e-05
3.26198e-05
1.87441e-05
1.82275e-05
1.94475e-05
3.31456e-05
1.85561e-05
7.05459e-05
7.04894e-05
1.95679e-05
1.8744e-05
3.26215e-05
1.82274e-05
1.94474e-05
1.85559e-05
3.3144e-05
4.89238e-05
4.89379e-05
1.77513e-05
4.97495e-05
4.97663e-05
3.80937e-05
6.9461e-05
3.68544e-05
6.95379e-05
7.03613e-05
7.03064e-05
3.7988e-05
6.94671e-05
3.6938e-05
6.95382e-05
1.85849e-05
1.85847e-05
1.85846e-05
1.80693e-05
1.80696e-05
1.80692e-05
1.80692e-05
2.0085e-05
3.42483e-05
1.802e-05
1.7643e-05
1.9905e-05
3.47966e-05
1.78503e-05
7.0365e-05
7.03022e-05
2.0093e-05
1.802e-05
3.42445e-05
1.76423e-05
1.98953e-05
1.78502e-05
3.47925e-05
5.09151e-05
5.08891e-05
1.73641e-05
5.15068e-05
5.15547e-05
4.05793e-05
6.95577e-05
3.94709e-05
6.96354e-05
7.02086e-05
7.01608e-05
4.05525e-05
6.956e-05
3.9457e-05
6.96489e-05
1.79049e-05
1.79045e-05
1.79046e-05
1.74311e-05
1.74314e-05
1.74316e-05
1.74318e-05
2.08672e-05
3.59395e-05
1.73687e-05
1.71546e-05
2.05859e-05
3.64886e-05
1.72166e-05
7.02102e-05
7.01628e-05
2.08955e-05
1.73684e-05
3.59331e-05
1.71558e-05
2.05704e-05
1.72174e-05
3.64991e-05
5.24111e-05
5.24153e-05
1.71079e-05
5.32688e-05
5.32798e-05
4.33334e-05
6.9652e-05
4.19357e-05
6.97352e-05
7.00812e-05
7.0054e-05
4.31303e-05
6.96571e-05
4.20785e-05
6.96798e-05
1.72819e-05
1.72809e-05
1.72809e-05
1.6849e-05
1.68479e-05
1.68499e-05
1.68493e-05
2.19262e-05
3.76174e-05
1.67897e-05
1.67708e-05
2.14927e-05
3.82019e-05
1.66571e-05
7.00827e-05
7.00552e-05
2.18775e-05
1.67886e-05
3.7616e-05
1.67648e-05
2.15134e-05
1.6655e-05
3.81653e-05
5.40691e-05
5.41137e-05
1.70085e-05
5.45113e-05
5.45146e-05
4.56807e-05
6.9725e-05
4.44215e-05
6.98498e-05
6.99732e-05
6.99457e-05
4.56766e-05
6.98008e-05
4.49382e-05
6.97943e-05
1.67118e-05
1.67123e-05
1.67117e-05
1.63284e-05
1.63287e-05
1.63262e-05
1.63263e-05
2.30975e-05
3.9247e-05
1.62789e-05
1.64745e-05
2.26447e-05
3.97038e-05
1.61647e-05
6.99798e-05
6.99617e-05
2.30917e-05
1.62794e-05
3.92807e-05
1.64633e-05
2.26669e-05
1.61625e-05
3.97769e-05
5.53175e-05
5.53398e-05
1.70368e-05
5.57795e-05
5.5768e-05
4.79996e-05
6.9839e-05
4.72962e-05
6.98331e-05
6.9887e-05
6.98452e-05
4.77786e-05
6.98186e-05
4.73085e-05
6.98402e-05
1.62025e-05
1.62076e-05
1.62045e-05
1.5847e-05
1.58547e-05
1.58502e-05
1.58485e-05
2.44653e-05
4.10355e-05
1.58425e-05
1.62837e-05
2.40445e-05
4.13253e-05
1.57411e-05
6.98851e-05
6.98754e-05
2.46554e-05
1.58489e-05
4.09156e-05
1.63448e-05
2.41199e-05
1.5751e-05
4.16133e-05
5.64646e-05
5.64891e-05
1.73679e-05
5.68961e-05
5.68925e-05
4.99259e-05
6.99258e-05
4.93377e-05
6.99818e-05
6.98339e-05
6.98081e-05
4.98453e-05
6.99448e-05
4.96191e-05
6.99434e-05
1.57495e-05
1.5739e-05
1.5743e-05
1.54503e-05
1.54425e-05
1.54487e-05
1.54489e-05
2.61213e-05
4.25447e-05
1.54816e-05
1.62859e-05
2.56699e-05
4.30917e-05
1.54022e-05
6.98271e-05
6.98163e-05
2.60656e-05
1.54714e-05
4.2269e-05
1.62136e-05
2.55271e-05
1.53882e-05
4.26544e-05
5.72204e-05
5.72485e-05
1.79171e-05
5.78071e-05
5.78305e-05
5.26442e-05
7.01244e-05
5.14511e-05
7.00811e-05
6.97607e-05
6.97273e-05
5.21247e-05
7.00504e-05
5.12988e-05
7.00651e-05
1.53463e-05
1.53626e-05
1.5349e-05
1.506e-05
1.50977e-05
1.50687e-05
1.50423e-05
2.76778e-05
4.36924e-05
1.51817e-05
1.63332e-05
2.7306e-05
4.40567e-05
1.51121e-05
6.97141e-05
6.96891e-05
2.77756e-05
1.51829e-05
4.3826e-05
1.64265e-05
2.71692e-05
1.51227e-05
4.44636e-05
5.82193e-05
5.8292e-05
1.84362e-05
5.84198e-05
5.8488e-05
5.34358e-05
6.99608e-05
5.27666e-05
7.0025e-05
6.96168e-05
6.96039e-05
5.35475e-05
7.00953e-05
5.32426e-05
7.00747e-05
1.5014e-05
1.49614e-05
1.49489e-05
1.46819e-05
1.47248e-05
1.46788e-05
1.46928e-05
2.9641e-05
4.52578e-05
1.4947e-05
1.65431e-05
2.87477e-05
4.59541e-05
1.49058e-05
6.96222e-05
6.95894e-05
2.9598e-05
1.49385e-05
4.54217e-05
1.61761e-05
2.89607e-05
1.48811e-05
4.54635e-05
5.90617e-05
5.9076e-05
1.82854e-05
5.92069e-05
5.92363e-05
5.47523e-05
7.00679e-05
5.43829e-05
7.01015e-05
6.95513e-05
6.95519e-05
5.47295e-05
7.00584e-05
5.44161e-05
7.00612e-05
1.46271e-05
1.46135e-05
1.46198e-05
1.44067e-05
1.43829e-05
1.44304e-05
1.44034e-05
3.11386e-05
4.65142e-05
1.47704e-05
1.62782e-05
3.08012e-05
4.66889e-05
1.47197e-05
6.95787e-05
6.95552e-05
3.09923e-05
1.47381e-05
4.64877e-05
1.64369e-05
3.04629e-05
1.47123e-05
4.71794e-05
5.98732e-05
5.97856e-05
1.90645e-05
5.98833e-05
5.98171e-05
5.58109e-05
7.01351e-05
5.5482e-05
7.01519e-05
6.94789e-05
6.94649e-05
5.59479e-05
7.01547e-05
5.53331e-05
7.02022e-05
1.43288e-05
1.43568e-05
1.43339e-05
1.41481e-05
1.41808e-05
1.4189e-05
1.41624e-05
3.26997e-05
4.73577e-05
1.46175e-05
1.66485e-05
3.19722e-05
4.79231e-05
1.46116e-05
6.94799e-05
6.94751e-05
3.27483e-05
1.46468e-05
4.72092e-05
1.6649e-05
3.22256e-05
1.46263e-05
4.76285e-05
6.02437e-05
6.03095e-05
1.95195e-05
6.03048e-05
6.03606e-05
5.69543e-05
7.01881e-05
5.65849e-05
7.01894e-05
6.94254e-05
6.93925e-05
5.69274e-05
7.01856e-05
5.66535e-05
7.01808e-05
1.41235e-05
1.41444e-05
1.41067e-05
1.39474e-05
1.39334e-05
1.39678e-05
1.39435e-05
3.44479e-05
4.88605e-05
1.46169e-05
1.69331e-05
3.39294e-05
4.90033e-05
1.46154e-05
6.94153e-05
6.9376e-05
3.44051e-05
1.46153e-05
4.88577e-05
1.71028e-05
3.38128e-05
1.46208e-05
4.90336e-05
6.09054e-05
6.09095e-05
2.04817e-05
6.1208e-05
6.12269e-05
5.7482e-05
7.02276e-05
5.72084e-05
7.02797e-05
6.93222e-05
6.93218e-05
5.75314e-05
7.02336e-05
5.72355e-05
7.02743e-05
1.38718e-05
1.38986e-05
1.38807e-05
1.37929e-05
1.37827e-05
1.37495e-05
1.37177e-05
3.57861e-05
4.90819e-05
1.46086e-05
1.70792e-05
3.53074e-05
4.98876e-05
1.46154e-05
6.93476e-05
6.9361e-05
3.58863e-05
1.4627e-05
4.93945e-05
1.70907e-05
3.53881e-05
1.4632e-05
4.98486e-05
6.10185e-05
6.10476e-05
1.96637e-05
6.07739e-05
6.07542e-05
5.83972e-05
7.02558e-05
5.82405e-05
7.0239e-05
6.9287e-05
6.92576e-05
5.82837e-05
7.02511e-05
5.80821e-05
7.02361e-05
1.37605e-05
1.37317e-05
1.37193e-05
1.36368e-05
1.35951e-05
1.37354e-05
1.37584e-05
3.74209e-05
5.07258e-05
1.47197e-05
1.75786e-05
3.68129e-05
5.0517e-05
1.47631e-05
6.93277e-05
6.92954e-05
3.72522e-05
1.47064e-05
5.01112e-05
1.76877e-05
3.67335e-05
1.47539e-05
5.01174e-05
6.1845e-05
6.1809e-05
2.33379e-05
6.22098e-05
6.22495e-05
5.87561e-05
7.02967e-05
5.83684e-05
7.03442e-05
6.92755e-05
6.92846e-05
5.89936e-05
7.032e-05
5.85328e-05
7.03513e-05
1.35841e-05
1.37334e-05
1.37517e-05
1.36417e-05
1.36728e-05
1.36591e-05
1.35876e-05
3.86334e-05
5.06532e-05
1.48459e-05
1.80703e-05
3.81344e-05
5.15906e-05
1.49158e-05
6.92235e-05
6.91871e-05
3.88613e-05
1.49371e-05
5.17841e-05
1.87624e-05
3.82321e-05
1.50082e-05
5.20973e-05
6.21627e-05
6.22995e-05
2.28793e-05
6.19836e-05
6.2091e-05
5.94569e-05
7.03106e-05
5.93661e-05
7.02963e-05
6.92148e-05
6.91966e-05
5.92777e-05
7.03024e-05
5.92988e-05
7.02881e-05
1.36893e-05
1.35815e-05
1.35482e-05
1.36251e-05
1.36232e-05
1.34589e-05
1.35613e-05
3.99899e-05
5.22156e-05
1.52001e-05
1.92733e-05
3.95774e-05
5.22476e-05
1.52763e-05
6.91303e-05
6.91432e-05
3.98096e-05
1.51703e-05
5.16273e-05
1.83963e-05
3.95986e-05
1.51895e-05
5.13661e-05
6.21311e-05
6.2068e-05
2.29576e-05
6.238e-05
6.22999e-05
5.96204e-05
7.03342e-05
5.94519e-05
7.03855e-05
6.91816e-05
6.92179e-05
5.9837e-05
7.03579e-05
5.94164e-05
7.04081e-05
1.35893e-05
1.34698e-05
1.36127e-05
1.36816e-05
1.36402e-05
1.36617e-05
1.37595e-05
4.08873e-05
5.1993e-05
1.54243e-05
1.93578e-05
4.05425e-05
5.2339e-05
1.54907e-05
6.92243e-05
6.92168e-05
4.10444e-05
1.53185e-05
5.26702e-05
1.96126e-05
4.0403e-05
1.54655e-05
5.33112e-05
6.28581e-05
6.28849e-05
2.63887e-05
6.29245e-05
6.29808e-05
6.03709e-05
7.04021e-05
6.0139e-05
7.04026e-05
6.91886e-05
6.91438e-05
6.01637e-05
7.04008e-05
6.01578e-05
7.03908e-05
1.37156e-05
1.36827e-05
1.3786e-05
1.37686e-05
1.37756e-05
1.37161e-05
1.37948e-05
4.22955e-05
5.37804e-05
1.58493e-05
2.09429e-05
4.17218e-05
5.38771e-05
1.59968e-05
6.91539e-05
6.91827e-05
4.21243e-05
1.58778e-05
5.30101e-05
2.03451e-05
4.18685e-05
1.59524e-05
5.28625e-05
6.35044e-05
6.34465e-05
2.75567e-05
6.35965e-05
6.35173e-05
6.04449e-05
7.04155e-05
6.03775e-05
7.04091e-05
6.90769e-05
6.914e-05
6.06475e-05
7.0434e-05
6.02942e-05
7.04351e-05
1.37663e-05
1.37695e-05
1.37751e-05
1.38124e-05
1.37689e-05
1.40334e-05
1.37292e-05
4.29871e-05
5.33255e-05
1.63127e-05
2.09809e-05
4.28745e-05
5.33661e-05
1.63624e-05
6.92385e-05
6.92044e-05
4.31473e-05
1.62778e-05
5.40058e-05
2.19342e-05
4.272e-05
1.64415e-05
5.44356e-05
6.27337e-05
6.27494e-05
2.57813e-05
6.25697e-05
6.26378e-05
6.09211e-05
7.03976e-05
6.08587e-05
7.04525e-05
6.91805e-05
6.91583e-05
6.08373e-05
7.03996e-05
6.08689e-05
7.0448e-05
1.38302e-05
1.40583e-05
1.37469e-05
1.38649e-05
1.40532e-05
1.40665e-05
1.4027e-05
4.41124e-05
5.47076e-05
1.67166e-05
2.24412e-05
4.35527e-05
5.47612e-05
1.69033e-05
6.91136e-05
6.91125e-05
4.4009e-05
1.68594e-05
5.43592e-05
2.25363e-05
4.36443e-05