/*--------------------------------*- C++ -*----------------------------------*\
| =========                 |                                                 |
| \\      /  F ield         | OpenFOAM: The Open Source CFD Toolbox           |
|  \\    /   O peration     | Version:  v2012                                 |
|   \\  /    A nd           | Website:  www.openfoam.com                      |
|    \\/     M anipulation  |                                                 |
\*---------------------------------------------------------------------------*/
FoamFile
{
    version     2.0;
    format      ascii;
    class       volScalarField;
    location    "500";
    object      nut;
}
// * * * * * * * * * * * * * * * * * * * * * * * * * * * * * * * * * * * * * //

dimensions      [0 2 -1 0 0 0 0];


internalField   nonuniform List<scalar> 
85864
(
0.000233973
0.000233116
0.000233116
0.000233423
0.000232532
0.000227802
0.000227801
0.000223867
0.000230516
0.00022032
0.000220318
0.000209109
0.000227799
0.000211665
0.000211661
0.000193785
0.000224433
0.00020265
0.000202644
0.000179709
0.000220552
0.000193772
0.000193765
0.000167339
0.000216304
0.000185275
0.000185268
0.000156587
0.00021182
0.000177234
0.000177226
0.000147206
0.000207207
0.000169688
0.00016968
0.00013895
0.000202545
0.00016261
0.000162603
0.000131612
0.000197889
0.000155949
0.00015594
0.000124954
0.000193275
0.000149644
0.000149635
0.00011881
0.00018868
0.000143663
0.000143652
0.000113162
0.000184147
0.000137942
0.000137934
0.000107911
0.000179703
0.00013245
0.00013242
0.000102968
0.000175341
0.000127136
0.000127156
9.82721e-05
0.00017099
0.000121971
0.000121956
9.38414e-05
0.000166703
0.000116861
0.000116762
8.92878e-05
0.000162476
0.000112282
0.000112994
8.68377e-05
0.000158333
0.000108142
0.000107478
8.4919e-05
0.000155234
0.000105558
0.000109034
9.16939e-05
0.000150596
0.000107334
0.000102159
8.31256e-05
0.000145933
9.87737e-05
9.79748e-05
8.30649e-05
0.000142154
9.6367e-05
9.71896e-05
8.34743e-05
0.000138213
9.69276e-05
9.85794e-05
8.95189e-05
0.000134117
9.26685e-05
9.20719e-05
7.48673e-05
0.000130821
9.17337e-05
8.92244e-05
7.95132e-05
0.000125522
8.62953e-05
0.00010068
9.69963e-05
0.000124274
9.68931e-05
8.88518e-05
7.42838e-05
0.000120252
8.92156e-05
8.77665e-05
9.15509e-05
0.000119337
9.91204e-05
9.17838e-05
0.000108534
0.000116899
9.33642e-05
9.6524e-05
8.98875e-05
0.000112257
9.7069e-05
0.000102113
8.79207e-05
0.000109383
9.58521e-05
9.78977e-05
0.000103532
0.000112308
0.000105995
0.000100732
0.00011056
0.000108618
0.000107243
0.000103351
0.000101839
0.000110974
0.000104823
0.000107397
0.000111893
0.000109345
0.000108082
0.000108783
0.000111577
0.000108669
0.000111687
0.000112309
0.000113898
0.000109647
0.000114873
0.000114919
0.000117108
0.000109514
0.00011772
0.000117689
0.000119757
0.000111795
0.000121041
0.000120746
0.000122079
0.000112771
0.000124244
0.000124156
0.000124491
0.000114488
0.000127377
0.000127604
0.000127729
0.00011615
0.000130716
0.000130442
0.000130266
0.000118533
0.000133691
0.000133729
0.00013288
0.000121107
0.000136909
0.000137132
0.000134933
0.000234266
0.000234448
0.000234449
0.000234267
0.000234448
0.000234449
0.000234274
0.000234274
0.000234274
0.000234274
0.000234448
0.000234448
0.000234266
0.000234448
0.000234448
0.000234266
0.000233423
0.000226204
0.000233116
0.000233114
0.000229361
0.000229357
0.000233423
0.000226205
0.000233114
0.000233114
0.000229359
0.000229356
0.000233116
0.000229364
0.000229361
0.000233423
0.000226202
0.000233114
0.000229363
0.000229359
0.000226202
0.000223867
0.00021223
0.000227799
0.000227794
0.000222332
0.000222326
0.000223868
0.000212234
0.000227797
0.000227792
0.000222332
0.000222323
0.000227798
0.000222339
0.000222331
0.000223866
0.000212227
0.000227797
0.000222336
0.000222331
0.000212228
0.000209111
0.00019706
0.000220313
0.000220307
0.000213879
0.000213874
0.000209112
0.000197066
0.000220314
0.000220304
0.000213883
0.000213869
0.000220311
0.00021389
0.000213877
0.000209108
0.000197056
0.000220313
0.000213886
0.000213882
0.000197057
0.000193788
0.000182876
0.000211654
0.000211648
0.00020489
0.000204884
0.000193792
0.000182882
0.000211658
0.000211643
0.000204897
0.000204879
0.000211651
0.000204905
0.000204887
0.000193785
0.000182872
0.000211657
0.000204899
0.000204896
0.000182872
0.000179713
0.000170268
0.000202634
0.000202628
0.000195942
0.000195938
0.000179717
0.000170274
0.000202643
0.000202623
0.000195954
0.000195931
0.000202631
0.000195962
0.00019594
0.000179708
0.000170264
0.000202641
0.000195955
0.000195953
0.000170264
0.000167344
0.000159242
0.000193753
0.000193747
0.000187336
0.000187331
0.000167349
0.00015925
0.000193765
0.000193741
0.000187351
0.000187324
0.00019375
0.000187359
0.000187334
0.000167339
0.000159238
0.000193764
0.000187351
0.00018735
0.000159237
0.000156592
0.000149613
0.000185253
0.000185247
0.000179172
0.000179168
0.000156597
0.000149619
0.000185268
0.00018524
0.000179191
0.00017916
0.000185249
0.000179198
0.00017917
0.000156587
0.000149608
0.000185267
0.00017919
0.00017919
0.000149608
0.00014721
0.000141107
0.000177208
0.000177203
0.000171501
0.000171496
0.000147217
0.000141113
0.000177227
0.000177195
0.000171521
0.000171488
0.000177205
0.000171529
0.000171498
0.000147207
0.000141101
0.000177226
0.00017152
0.000171521
0.0001411
0.000138957
0.000133546
0.00016966
0.000169655
0.000164309
0.000164304
0.00013896
0.000133554
0.000169681
0.000169647
0.000164333
0.000164297
0.000169657
0.000164339
0.000164308
0.000138949
0.000133541
0.00016968
0.000164331
0.000164332
0.000133539
0.00013162
0.000126685
0.00016258
0.000162575
0.000157546
0.000157541
0.000131627
0.00012669
0.000162604
0.000162567
0.000157572
0.000157533
0.000162579
0.000157579
0.000157545
0.000131615
0.000126677
0.000162603
0.00015757
0.000157572
0.000126677
0.000124959
0.000120357
0.000155915
0.000155911
0.000151155
0.000151151
0.000124962
0.000120365
0.000155941
0.000155902
0.000151183
0.000151144
0.000155913
0.000151191
0.000151156
0.00012495
0.000120358
0.000155941
0.000151183
0.000151185
0.000120353
0.000118816
0.000114422
0.000149609
0.000149606
0.000145097
0.00014509
0.000118827
0.000114418
0.000149637
0.000149595
0.000145125
0.000145083
0.000149608
0.000145131
0.000145098
0.000118819
0.000114418
0.000149636
0.000145124
0.000145125
0.000114417
0.000113161
0.000108812
0.000143623
0.000143624
0.000139313
0.000139304
0.000113173
0.000108795
0.00014365
0.000143612
0.000139344
0.000139301
0.000143626
0.000139348
0.000139313
0.000113168
0.0001088
0.000143655
0.000139346
0.000139348
0.00010882
0.000107897
0.000103624
0.000137898
0.000137897
0.000133762
0.000133744
0.000107908
0.000103616
0.000137929
0.000137887
0.000133786
0.000133742
0.000137896
0.000133797
0.000133765
0.000107916
0.000103606
0.000137931
0.000133786
0.00013379
0.000103618
0.000102961
9.89904e-05
0.000132401
0.000132404
0.000128406
0.000128412
0.00010296
9.89282e-05
0.000132418
0.000132379
0.000128439
0.000128386
0.000132389
0.000128446
0.000128422
0.000102949
9.89472e-05
0.000132406
0.000128434
0.000128447
9.8999e-05
9.82349e-05
9.44739e-05
0.000127099
0.000127098
0.000123176
0.000123129
9.81851e-05
9.43768e-05
0.000127133
0.000127094
0.0001232
0.000123242
0.000127097
0.00012319
0.000123259
9.82176e-05
9.44697e-05
0.000127126
0.000123308
0.000123305
9.46507e-05
9.36416e-05
9.03421e-05
0.000121891
0.000121904
0.000118117
0.000118026
9.35067e-05
9.00837e-05
0.000121935
0.000121935
0.000118193
0.000118059
0.000121948
0.000118043
0.000118155
9.36608e-05
8.99753e-05
0.00012198
0.000118052
0.000118109
9.01851e-05
8.94397e-05
8.74641e-05
0.000116805
0.000116856
0.000113856
0.00011376
8.92692e-05
8.73373e-05
0.000116919
0.000116772
0.000113814
0.000113778
0.000116909
0.000113694
0.000113647
8.89827e-05
8.76605e-05
0.000116854
0.000113864
0.000113617
8.74307e-05
8.67386e-05
8.3103e-05
0.000112574
0.000112408
0.000108491
0.000108783
8.64217e-05
8.30627e-05
0.000112497
0.000112879
0.000108612
0.000108206
0.000112515
0.000108978
0.000109034
8.74222e-05
8.29356e-05
0.000112465
0.00010832
0.000109179
8.45989e-05
8.31665e-05
9.25978e-05
0.00010804
0.000107799
0.000108575
0.000105641
8.2955e-05
8.49272e-05
0.000108175
0.000107348
0.000108417
0.000108202
0.000108728
0.0001059
0.000108377
8.21686e-05
9.34815e-05
0.000108945
0.000108379
0.00010863
9.22177e-05
9.31008e-05
8.85327e-05
0.000108416
0.000105435
0.000105192
0.000107759
8.51059e-05
9.9114e-05
0.000108102
0.000109005
0.000104929
0.000105363
0.000107633
0.000107452
0.000103189
9.61474e-05
8.77715e-05
0.000107832
0.000105049
0.000103183
8.44152e-05
8.67064e-05
7.99316e-05
0.000103043
0.000107466
9.89635e-05
0.000101247
9.98601e-05
8.39537e-05
0.000103111
0.000102374
9.93368e-05
9.81005e-05
0.000102077
0.000101425
9.9861e-05
8.42672e-05
7.71828e-05
0.00010206
9.81663e-05
9.9638e-05
8.27207e-05
7.99828e-05
8.41301e-05
9.81959e-05
9.87677e-05
9.76817e-05
9.55493e-05
8.09586e-05
7.86331e-05
9.85087e-05
9.78742e-05
9.75677e-05
9.75791e-05
9.95334e-05
9.5472e-05
9.74669e-05
7.94623e-05
8.44462e-05
9.9194e-05
9.78475e-05
9.72514e-05
8.39284e-05
8.35469e-05
8.25357e-05
9.69408e-05
9.64026e-05
9.50791e-05
9.78041e-05
8.20811e-05
9.03512e-05
9.67952e-05
9.69154e-05
9.51567e-05
9.83675e-05
9.65893e-05
9.80144e-05
9.72673e-05
8.4068e-05
9.26844e-05
9.66221e-05
9.8329e-05
9.75799e-05
8.79059e-05
8.32228e-05
8.25308e-05
9.52451e-05
9.67876e-05
9.31972e-05
9.30841e-05
8.8616e-05
8.04143e-05
9.53558e-05
9.86934e-05
9.32882e-05
9.4249e-05
9.75463e-05
9.31493e-05
9.26142e-05
9.35208e-05
8.11474e-05
9.76781e-05
9.42435e-05
9.26287e-05
7.83461e-05
8.21647e-05
8.73451e-05
9.26051e-05
9.26324e-05
9.40145e-05
9.35629e-05
8.02648e-05
8.59337e-05
9.26838e-05
9.20445e-05
9.39368e-05
8.84148e-05
9.01355e-05
9.34895e-05
8.70717e-05
7.89275e-05
7.63579e-05
9.01673e-05
8.84474e-05
8.70528e-05
7.23728e-05
8.60919e-05
7.64302e-05
9.35022e-05
9.18133e-05
8.86804e-05
8.62046e-05
8.28365e-05
7.0554e-05
9.33754e-05
8.92774e-05
8.86067e-05
9.84027e-05
9.00324e-05
8.6218e-05
9.7872e-05
7.83146e-05
0.000105819
8.99605e-05
9.84391e-05
9.78825e-05
9.9889e-05
7.59247e-05
9.31111e-05
8.79724e-05
8.62156e-05
9.3997e-05
9.68363e-05
7.12271e-05
0.000100765
8.79833e-05
0.000100562
9.41771e-05
9.29842e-05
9.61968e-05
9.69422e-05
8.89945e-05
0.000109076
8.07149e-05
9.62928e-05
9.3094e-05
8.91223e-05
7.57197e-05
9.34522e-05
8.65715e-05
9.47403e-05
9.68675e-05
9.12035e-05
9.05072e-05
9.92694e-05
8.13272e-05
9.48088e-05
8.87962e-05
9.111e-05
8.50101e-05
8.71368e-05
9.04965e-05
8.99016e-05
7.49083e-05
7.52042e-05
8.72073e-05
8.50337e-05
8.97161e-05
8.764e-05
8.61629e-05
9.89104e-05
9.06637e-05
8.92323e-05
9.59414e-05
9.63222e-05
8.07206e-05
0.000103988
9.05783e-05
8.77725e-05
9.61298e-05
9.35035e-05
9.24632e-05
9.632e-05
9.92209e-05
8.36432e-05
9.00055e-05
9.23701e-05
9.3483e-05
9.94486e-05
0.000107128
0.000100244
9.9289e-05
9.74247e-05
9.9081e-05
9.70981e-05
9.51697e-05
0.000106162
8.91357e-05
9.75369e-05
9.17727e-05
9.69383e-05
9.14411e-05
0.000100861
9.53003e-05
9.73542e-05
8.743e-05
9.20175e-05
0.000100991
9.15907e-05
9.71819e-05
9.34265e-05
9.87733e-05
9.00187e-05
9.67681e-05
9.32643e-05
9.51463e-05
9.36068e-05
8.71798e-05
9.62328e-05
9.65957e-05
9.63757e-05
9.52242e-05
0.000103408
9.46201e-05
9.34992e-05
8.96502e-05
9.95714e-05
0.000109549
9.4462e-05
0.000103289
8.96469e-05
8.40581e-05
8.79194e-05
9.1807e-05
9.31886e-05
9.71766e-05
9.20442e-05
9.68237e-05
9.9775e-05
9.60581e-05
9.32749e-05
0.000102241
9.20516e-05
9.79265e-05
9.10547e-05
9.68462e-05
9.81625e-05
0.00010759
9.78661e-05
9.12099e-05
9.7967e-05
9.81388e-05
0.000102418
9.81069e-05
0.000109468
9.65138e-05
9.58097e-05
0.000104957
0.000102645
9.52462e-05
0.000110175
9.65016e-05
9.77144e-05
0.00010502
0.000100054
9.916e-05
0.000102667
0.000104893
9.76939e-05
0.000101734
9.91527e-05
0.000100045
0.000104989
0.000110651
0.000107549
9.97571e-05
0.000104202
0.000106007
0.000100311
0.000108359
0.000113946
0.000112661
0.000104251
0.000100756
0.00010027
0.00010249
0.000105918
0.000108416
0.000102659
0.00010222
0.000104898
0.000105986
0.000102533
0.000102628
0.000102638
0.000101073
0.000116324
0.000101067
0.000107171
0.000109014
0.000104542
0.000111332
0.000105198
0.000100957
0.00010329
0.000108993
0.000106622
0.00010163
0.00010459
0.000105881
0.000105845
0.000110154
0.000101576
0.000106676
0.000105856
0.00011003
0.000116982
0.000110743
0.00011069
0.000104807
0.00010951
0.000107181
0.000105162
0.00010929
0.000110696
0.00010737
0.000109532
0.000108266
0.000107711
0.000107145
0.000109243
0.000110542
0.000110432
0.000107719
0.000108218
0.000109271
0.000111969
0.000109738
0.000113278
0.000108387
0.000108098
0.000110265
0.000110738
0.000110128
0.000113458
0.000108409
0.000108815
0.000110282
0.000111379
0.000109205
0.000110806
0.000110716
0.000110741
0.000114513
0.000109223
0.000111445
0.000110711
0.000113013
0.000115353
0.00011714
0.000112204
0.000111621
0.000115103
0.000114115
0.000114043
0.000116455
0.000112215
0.000112244
0.000115103
0.000114389
0.000111697
0.000114099
0.000114279
0.000115171
0.000116588
0.000111693
0.000114373
0.000114286
0.000116771
0.000116497
0.000117008
0.000114814
0.000114901
0.000115742
0.00011702
0.000116932
0.000118894
0.000114814
0.000114946
0.000115736
0.000116872
0.000114921
0.000117056
0.000117159
0.000116831
0.000118654
0.000114928
0.000116907
0.000117161
0.000119178
0.000118446
0.000123831
0.00011707
0.000117664
0.000121255
0.000120084
0.000119273
0.0001217
0.000117066
0.000117633
0.00012126
0.000119926
0.000118001
0.000120114
0.000120241
0.000119182
0.000121333
0.000118001
0.000119955
0.000120248
0.000121751
0.000124105
0.000124103
0.000122114
0.000121027
0.000123288
0.000123516
0.000122349
0.000124649
0.000122118
0.000120733
0.000123292
0.000123269
0.000120932
0.000123524
0.000123117
0.000121791
0.000124428
0.000120941
0.000123277
0.000123108
0.000123987
0.000124359
0.000127357
0.000123926
0.00012423
0.000126753
0.000126498
0.000124997
0.000127045
0.00012393
0.000124142
0.00012675
0.000126779
0.000123914
0.000126517
0.000126538
0.00012501
0.000127489
0.000123904
0.000126796
0.000126545
0.000127187
0.000127749
0.000128873
0.000127462
0.000127364
0.00012932
0.000129964
0.000127603
0.000130005
0.00012746
0.000127589
0.000129331
0.000129737
0.00012743
0.00012998
0.00012986
0.000127922
0.000129496
0.00012744
0.000129755
0.000129869
0.00012983
0.000129396
0.0001324
0.000130135
0.000130694
0.000132852
0.000132891
0.000130394
0.000132068
0.000130145
0.00013042
0.000132847
0.000132787
0.000130638
0.000132922
0.000133116
0.000129839
0.000132144
0.000130642
0.000132817
0.000133109
0.000132466
0.000132932
0.0001349
0.000133795
0.000133662
0.000136266
0.000136025
0.000132496
0.00013466
0.000133791
0.0001337
0.000136273
0.000136356
0.000133897
0.000136037
0.000136015
0.000132726
0.000135116
0.000133893
0.000136371
0.000136021
0.000134523
0.000135229
0.000137548
0.00013694
0.000136897
0.000139433
0.000139312
0.000135131
0.000137432
0.000136955
0.00013712
0.00013944
0.000139196
0.000136771
0.000139331
0.000139347
0.00013546
0.000137082
0.000136783
0.00013922
0.000139356
0.000137381
0.00023473
0.000234746
0.000234729
0.000234729
0.000235117
0.000234798
0.000234701
0.000234727
0.000235118
0.000234798
0.000234727
0.000234701
0.000234867
0.000233566
0.000233566
0.000104651
3.87413e-05
0.000129118
3.98246e-05
2.16834e-05
2.28312e-05
0.000104643
3.87373e-05
0.000129114
3.98212e-05
0.000233973
0.000233973
0.000233973
0.000232935
0.000232935
0.000232935
0.000232935
0.000206196
9.36756e-05
0.000233969
0.000231994
0.000222614
8.72225e-05
0.000233611
2.16823e-05
2.28306e-05
0.00020619
0.000233969
9.36751e-05
0.000231994
0.000222622
0.000233611
8.72281e-05
4.7801e-05
4.77893e-05
0.000231345
4.40188e-05
4.40093e-05
7.2568e-05
4.24344e-05
8.14027e-05
4.37631e-05
2.4775e-05
2.54634e-05
7.2558e-05
4.24308e-05
8.13973e-05
4.37593e-05
0.000232532
0.000232532
0.000232532
0.000231084
0.000231084
0.000231083
0.000231084
0.000167491
7.94394e-05
0.000232081
0.000226097
0.000180211
7.45074e-05
0.000231376
2.47732e-05
2.54618e-05
0.000167486
0.000232081
7.94333e-05
0.000226096
0.000180204
0.000231375
7.45104e-05
3.91642e-05
3.91537e-05
0.000219593
3.65768e-05
3.65658e-05
5.62776e-05
4.55469e-05
6.11322e-05
4.6412e-05
2.60134e-05
2.61173e-05
5.62825e-05
4.55444e-05
6.1128e-05
4.64097e-05
0.000230516
0.000230515
0.000230515
0.000228543
0.000228543
0.000228541
0.000228542
0.000138602
6.74259e-05
0.000228643
0.000218231
0.000148066
6.35186e-05
0.000227537
2.60112e-05
2.61152e-05
0.000138597
0.000228643
6.74199e-05
0.000218228
0.000148057
0.000227534
6.35147e-05
3.32174e-05
3.32089e-05
0.000204613
3.19922e-05
3.19833e-05
4.69658e-05
4.74993e-05
4.99086e-05
4.80026e-05
2.60473e-05
2.5939e-05
4.69655e-05
4.74954e-05
4.99086e-05
4.80008e-05
0.000227799
0.000227797
0.000227798
0.000225328
0.000225329
0.000225326
0.000225327
0.000117549
5.82049e-05
0.000223721
0.00020942
0.000124602
5.54854e-05
0.00022231
2.60448e-05
2.59369e-05
0.000117546
0.000223719
5.82035e-05
0.000209415
0.000124595
0.000222306
5.54819e-05
3.0618e-05
3.06101e-05
0.000189779
3.03047e-05
3.02969e-05
4.14284e-05
4.85834e-05
4.32433e-05
4.8837e-05
2.56756e-05
2.55196e-05
4.14277e-05
4.85789e-05
4.32437e-05
4.88353e-05
0.000224433
0.000224431
0.000224432
0.000221562
0.000221563
0.000221559
0.000221561
0.000102114
5.18778e-05
0.000217771
0.000200404
0.00010738
5.0076e-05
0.000216181
2.56731e-05
2.55175e-05
0.000102112
0.000217769
5.18763e-05
0.000200398
0.000107373
0.000216177
5.00734e-05
3.01962e-05
3.01892e-05
0.000176368
3.03711e-05
3.03642e-05
3.81558e-05
4.90949e-05
3.9242e-05
4.91962e-05
2.52381e-05
2.50937e-05
3.81552e-05
4.90904e-05
3.92422e-05
4.91949e-05
0.000220552
0.000220549
0.00022055
0.000217392
0.000217393
0.000217389
0.000217391
9.04962e-05
4.77378e-05
0.000211269
0.000191607
9.44593e-05
4.66127e-05
0.000209603
2.52354e-05
2.50918e-05
9.0495e-05
0.000211267
4.77363e-05
0.0001916
9.4454e-05
0.000209598
4.6609e-05
3.10442e-05
3.10368e-05
0.000164561
3.15413e-05
3.1535e-05
3.63742e-05
4.92738e-05
3.69397e-05
4.92953e-05
2.48489e-05
2.47325e-05
3.63735e-05
4.92719e-05
3.694e-05
4.92939e-05
0.000216305
0.0002163
0.000216302
0.000212957
0.000212958
0.000212952
0.000212955
8.15881e-05
4.51687e-05
0.000204579
0.00018322
8.46734e-05
4.45536e-05
0.000202907
2.48464e-05
2.47304e-05
8.15885e-05
0.000204576
4.51675e-05
0.000183212
8.46677e-05
0.000202902
4.45513e-05
3.25548e-05
3.25477e-05
0.000154267
3.33054e-05
3.33006e-05
3.56775e-05
4.92904e-05
3.58206e-05
4.92837e-05
2.45351e-05
2.44467e-05
3.56739e-05
4.92904e-05
3.58205e-05
4.92764e-05
0.000211821
0.000211815
0.000211818
0.000208367
0.000208368
0.000208362
0.000208365
7.46429e-05
4.37712e-05
0.000197938
0.000175301
7.71187e-05
4.35252e-05
0.000196304
2.45326e-05
2.44448e-05
7.46394e-05
0.000197935
4.37681e-05
0.000175292
7.7116e-05
0.000196298
4.35227e-05
3.45324e-05
3.45247e-05
0.00014522
3.54696e-05
3.54648e-05
3.57595e-05
4.92567e-05
3.56403e-05
4.92453e-05
2.42941e-05
2.4229e-05
3.57616e-05
4.92493e-05
3.56339e-05
4.9244e-05
0.000207208
0.000207201
0.000207204
0.000203711
0.000203712
0.000203705
0.000203708
6.91747e-05
4.32427e-05
0.000191482
0.000167877
7.12048e-05
4.3237e-05
0.000189901
2.42921e-05
2.4227e-05
6.91747e-05
0.00019148
4.32404e-05
0.000167869
7.1197e-05
0.000189895
4.32337e-05
3.67034e-05
3.67072e-05
0.000137217
3.79539e-05
3.79518e-05
3.65504e-05
4.92293e-05
3.62121e-05
4.92209e-05
2.41154e-05
2.40679e-05
3.65536e-05
4.92249e-05
3.62089e-05
4.92203e-05
0.000202546
0.000202539
0.000202542
0.000199049
0.000199051
0.000199043
0.000199047
6.48713e-05
4.33793e-05
0.000185239
0.00016091
6.65051e-05
4.3571e-05
0.000183718
2.41135e-05
2.40659e-05
6.48689e-05
0.000185237
4.3378e-05
0.000160901
6.65013e-05
0.000183711
4.35674e-05
3.93314e-05
3.93295e-05
0.000130036
4.04185e-05
4.04285e-05
3.79812e-05
4.92206e-05
3.74229e-05
4.92267e-05
2.39857e-05
2.39525e-05
3.79948e-05
4.92197e-05
3.74294e-05
4.92241e-05
0.00019789
0.000197883
0.000197886
0.000194421
0.000194422
0.000194415
0.00019442
6.15075e-05
4.40658e-05
0.000179254
0.000154342
6.27514e-05
4.44079e-05
0.000177803
2.39836e-05
2.39505e-05
6.15117e-05
0.000179251
4.40596e-05
0.000154334
6.27482e-05
0.000177797
4.44095e-05
4.18985e-05
4.19199e-05
0.000123453
4.27996e-05
4.27773e-05
4.00904e-05
4.92375e-05
3.91683e-05
4.92578e-05
2.38944e-05
2.38704e-05
3.99701e-05
4.92389e-05
3.92025e-05
4.92477e-05
0.000193276
0.000193268
0.000193272
0.000189832
0.000189832
0.000189823
0.000189829
5.89986e-05
4.52071e-05
0.000173549
0.00014812
5.98547e-05
4.56516e-05
0.000172164
2.38921e-05
2.38689e-05
5.89897e-05
0.000173547
4.51997e-05
0.00014811
5.98557e-05
0.000172156
4.56513e-05
4.42193e-05
4.42199e-05
0.000117336
4.55713e-05
4.55935e-05
4.26049e-05
4.9279e-05
4.14915e-05
4.92857e-05
2.38299e-05
2.38132e-05
4.27168e-05
4.92726e-05
4.13465e-05
4.92862e-05
0.000188684
0.000188675
0.00018868
0.000185275
0.000185275
0.000185268
0.000185272
5.72126e-05
4.67059e-05
0.000168096
0.000142211
5.77207e-05
4.72795e-05
0.00016677
2.38284e-05
2.3811e-05
5.72012e-05
0.000168093
4.67107e-05
0.000142199
5.77167e-05
0.000166763
4.72568e-05
4.69561e-05
4.69591e-05
0.000111539
4.76711e-05
4.76516e-05
4.52676e-05
4.9315e-05
4.44104e-05
4.93255e-05
2.37842e-05
2.37732e-05
4.54237e-05
4.93158e-05
4.43841e-05
4.93214e-05
0.000184149
0.00018414
0.000184145
0.000180811
0.000180809
0.000180799
0.000180805
5.60488e-05
4.85031e-05
0.000162859
0.000136547
5.6313e-05
4.91651e-05
0.000161582
2.37816e-05
2.3772e-05
5.60381e-05
0.000162858
4.85009e-05
0.000136539
5.6314e-05
0.000161576
4.91611e-05
4.89156e-05
4.89251e-05
0.000106116
4.99206e-05
4.99316e-05
4.91695e-05
4.935e-05
4.70562e-05
4.9377e-05
2.37523e-05
2.37433e-05
4.88811e-05
4.93477e-05
4.7277e-05
4.93717e-05
0.000179709
0.000179694
0.000179694
0.000176419
0.000176428
0.000176412
0.000176417
5.54908e-05
5.05517e-05
0.000157813
0.000131094
5.5672e-05
5.1256e-05
0.000156573
2.3751e-05
2.37405e-05
5.55001e-05
0.000157805
5.05288e-05
0.000131082
5.56179e-05
0.000156564
5.12322e-05
5.11907e-05
5.11179e-05
0.000101234
5.18194e-05
5.18954e-05
5.23257e-05
4.9383e-05
5.06568e-05
4.9412e-05
2.37266e-05
2.37183e-05
5.22813e-05
4.93805e-05
5.06107e-05
4.94112e-05
0.000175341
0.000175328
0.000175333
0.000172066
0.000172061
0.000172092
0.000172091
5.56111e-05
5.27514e-05
0.000152909
0.000125836
5.55294e-05
5.34701e-05
0.000151707
2.37251e-05
2.37168e-05
5.5794e-05
0.000152915
5.27331e-05
0.00012583
5.54638e-05
0.000151719
5.35002e-05
5.27037e-05
5.26917e-05
9.66443e-05
5.39798e-05
5.39795e-05
5.61839e-05
4.94159e-05
5.37548e-05
4.94473e-05
2.3705e-05
2.37002e-05
5.56577e-05
4.94152e-05
5.40667e-05
4.94219e-05
0.000170999
0.000170993
0.000170996
0.000167781
0.000167751
0.000167753
0.000167777
5.65994e-05
5.49892e-05
0.00014815
0.00012073
5.59458e-05
5.58534e-05
0.000147004
2.37034e-05
2.36986e-05
5.63503e-05
0.00014814
5.4974e-05
0.000120658
5.60236e-05
0.000146944
5.57308e-05
5.48397e-05
5.49097e-05
9.24292e-05
5.53214e-05
5.53055e-05
5.91025e-05
4.94428e-05
5.68944e-05
4.94869e-05
2.36868e-05
2.3682e-05
5.91232e-05
4.94659e-05
5.83237e-05
4.94641e-05
0.000166702
0.000166691
0.000166712
0.000163607
0.000163597
0.000163621
0.000163549
5.76183e-05
5.7116e-05
0.000143471
0.000115875
5.69979e-05
5.77119e-05
0.000142353
2.36859e-05
2.36829e-05
5.74878e-05
0.000143454
5.72253e-05
0.000115577
5.69858e-05
0.000142329
5.78567e-05
5.63195e-05
5.63463e-05
8.83626e-05
5.69804e-05
5.69385e-05
6.22338e-05
4.94849e-05
6.14247e-05
4.9482e-05
2.36726e-05
2.36648e-05
6.16591e-05
4.9472e-05
6.14344e-05
4.94788e-05
0.00016247
0.000162592
0.000162492
0.000159179
0.000159284
0.000159122
0.000159354
5.91734e-05
5.9969e-05
0.000138919
0.000110872
5.87252e-05
6.00293e-05
0.00013778
2.36699e-05
2.36682e-05
6.01838e-05
0.00013912
5.97123e-05
0.000111713
5.9295e-05
0.000138005
6.10463e-05
5.78148e-05
5.78413e-05
8.56266e-05
5.83443e-05
5.83093e-05
6.43695e-05
4.9514e-05
6.37909e-05
4.95327e-05
2.3663e-05
2.3659e-05
6.42293e-05
4.95169e-05
6.46868e-05
4.95163e-05
0.000158254
0.000158149
0.000158533
0.000156092
0.000155336
0.000156105
0.000156054
6.21023e-05
6.22811e-05
0.000134746
0.000107401
6.15191e-05
6.30956e-05
0.000133718
2.366e-05
2.36581e-05
6.16055e-05
0.000134531
6.11255e-05
0.000107175
6.08211e-05
0.000133478
6.14711e-05
5.8568e-05
5.8592e-05
8.81824e-05
5.95471e-05
5.95595e-05
6.95823e-05
4.95847e-05
6.7178e-05
4.95715e-05
2.36509e-05
2.36456e-05
6.80922e-05
4.9554e-05
6.65955e-05
4.95595e-05
0.000154552
0.000155428
0.000155038
0.000151901
0.000152723
0.000151873
0.000151449
6.38137e-05
6.31118e-05
0.000130472
0.000105673
6.39885e-05
6.34368e-05
0.00012939
2.3641e-05
2.36367e-05
6.44804e-05
0.000130709
6.35431e-05
0.000108673
6.33033e-05
0.000129822
6.49853e-05
5.9958e-05
6.00826e-05
8.94676e-05
6.0163e-05
6.02754e-05
6.98274e-05
4.95267e-05
6.86708e-05
4.95486e-05
2.36267e-05
2.36245e-05
7.0187e-05
4.95707e-05
6.99879e-05
4.95638e-05
0.000151852
0.000150438
0.000150319
0.000146994
0.000147684
0.000146611
0.000147167
6.83341e-05
6.59169e-05
0.000126716
0.000106203
6.55845e-05
6.75114e-05
0.00012594
2.36255e-05
2.36197e-05
6.81596e-05
0.000126579
6.63886e-05
0.000100177
6.68713e-05
0.000125443
6.58484e-05
6.11269e-05
6.11617e-05
8.20533e-05
6.13392e-05
6.13971e-05
7.18494e-05
4.95643e-05
7.13864e-05
4.95758e-05
2.36155e-05
2.36156e-05
7.17187e-05
4.95576e-05
7.14935e-05
4.95581e-05
0.000146174
0.000145739
0.000146207
0.000143182
0.000142705
0.000143333
0.000143067
7.02949e-05
6.79492e-05
0.000122764
9.70181e-05
7.04818e-05
6.78514e-05
0.000121449
2.3618e-05
2.36141e-05
6.96232e-05
0.000122122
6.81222e-05
9.85974e-05
6.87333e-05
0.000121282
6.95194e-05
6.24701e-05
6.22472e-05
8.41656e-05
6.23257e-05
6.2145e-05
7.34011e-05
4.95883e-05
7.29258e-05
4.95939e-05
2.36033e-05
2.36008e-05
7.37528e-05
4.95903e-05
7.2495e-05
4.96081e-05
0.000142106
0.000142341
0.000142078
0.000139079
0.000139811
0.000140031
0.000139937
7.27398e-05
6.86636e-05
0.000118282
9.77684e-05
7.08704e-05
6.9995e-05
0.00011761
2.36011e-05
2.36001e-05
7.29639e-05
0.000118712
6.82285e-05
9.68853e-05
7.21043e-05
0.000117772
6.91126e-05
6.26836e-05
6.27982e-05
8.35982e-05
6.27232e-05
6.28158e-05
7.56216e-05
4.96069e-05
7.49529e-05
4.96075e-05
2.35943e-05
2.35887e-05
7.55486e-05
4.96026e-05
7.51308e-05
4.96006e-05
0.000138742
0.000139269
0.000138873
0.000135243
0.00013533
0.000135593
0.000134864
7.65046e-05
7.20395e-05
0.000115569
9.54595e-05
7.5509e-05
7.17835e-05
0.000114735
2.35905e-05
2.35837e-05
7.62257e-05
0.000115513
7.20324e-05
9.77319e-05
7.48807e-05
0.000114775
7.21569e-05
6.40615e-05
6.40465e-05
8.8937e-05
6.4646e-05
6.46716e-05
7.62497e-05
4.96198e-05
7.56943e-05
4.9639e-05
2.35764e-05
2.35766e-05
7.64365e-05
4.96183e-05
7.58538e-05
4.96333e-05
0.000134123
0.000133803
0.000133259
0.000131679
0.0001315
0.000129947
0.000129587
7.83806e-05
7.12328e-05
0.000111845
9.28259e-05
7.75608e-05
7.36372e-05
0.000110929
2.35785e-05
2.35808e-05
7.89373e-05
0.000111837
7.25426e-05
9.00449e-05
7.80063e-05
0.000110808
7.35457e-05
6.37866e-05
6.38496e-05
6.92827e-05
6.31676e-05
6.31222e-05
7.82543e-05
4.96314e-05
7.80865e-05
4.9625e-05
2.35708e-05
2.35656e-05
7.78061e-05
4.96258e-05
7.75331e-05
4.962e-05
0.000130343
0.000129572
0.000129531
0.000126481
0.0001255
0.000129646
0.000129732
8.21665e-05
7.54665e-05
0.000109062
8.9419e-05
8.06335e-05
7.42628e-05
0.000108428
2.35752e-05
2.35697e-05
8.11877e-05
0.000108683
7.28906e-05
9.12891e-05
8.01245e-05
0.00010828
7.25895e-05
6.54916e-05
6.53603e-05
9.72172e-05
6.62856e-05
6.62937e-05
7.87106e-05
4.96441e-05
7.77432e-05
4.96619e-05
2.35682e-05
2.35704e-05
7.94693e-05
4.96487e-05
7.82383e-05
4.96608e-05
0.00012501
0.000129465
0.000128996
0.000124727
0.000125669
0.000125619
0.000123443
8.43269e-05
7.40272e-05
0.000105875
8.93498e-05
8.30479e-05
7.67393e-05
0.000105701
2.35579e-05
2.35517e-05
8.55635e-05
0.000107659
7.77684e-05
9.98473e-05
8.35522e-05
0.000107485
7.8724e-05
6.61044e-05
6.6374e-05
8.54793e-05
6.56209e-05
6.58506e-05
8.04419e-05
4.96507e-05
8.03078e-05
4.96452e-05
2.35586e-05
2.35554e-05
7.98231e-05
4.9644e-05
8.01027e-05
4.96384e-05
0.000125115
0.000123223
0.000121744
0.000121102
0.000121007
0.000118723
0.000119483
8.76788e-05
7.84199e-05
0.000105886
9.4913e-05
8.67361e-05
7.80275e-05
0.000105498
2.35415e-05
2.35433e-05
8.66619e-05
0.000105637
7.61436e-05
8.62717e-05
8.68811e-05
0.000104333
7.49779e-05
6.57332e-05
6.55746e-05
7.64616e-05
6.61736e-05
6.59539e-05
8.04101e-05
4.96577e-05
8.00726e-05
4.96761e-05
2.35523e-05
2.35586e-05
8.11187e-05
4.96619e-05
7.99845e-05
4.96805e-05
0.000119694
0.000118095
0.000119849
0.000119249
0.000118914
0.000118011
0.000121102
8.86831e-05
7.62054e-05
0.000102968
8.91832e-05
8.81311e-05
7.71281e-05
0.000102368
2.35577e-05
2.35567e-05
8.96106e-05
0.00010163
7.89071e-05
9.22328e-05
8.74642e-05
0.000102136
8.077e-05
6.69137e-05
6.69426e-05
9.85921e-05
6.714e-05
6.72659e-05
8.2419e-05
4.96825e-05
8.18199e-05
4.96827e-05
2.35544e-05
2.35468e-05
8.17397e-05
4.96785e-05
8.18806e-05
4.96746e-05
0.000119396
0.000117172
0.000120957
0.000117805
0.000116993
0.000115034
0.000117907
9.30523e-05
8.16585e-05
0.000102921
9.93686e-05
9.09884e-05
8.16663e-05
0.000103435
2.35456e-05
2.355e-05
9.20723e-05
0.000102933
7.88482e-05
9.04195e-05
9.16774e-05
0.000102301
7.80909e-05
6.864e-05
6.85084e-05
0.000107321
6.87821e-05
6.85696e-05
8.23826e-05
4.96871e-05
8.22247e-05
4.96852e-05
2.35346e-05
2.35449e-05
8.29881e-05
4.96894e-05
8.19739e-05
4.96907e-05
0.000115699
0.000115227
0.000116247
0.000113632
0.000112571
0.000117113
0.00011161
9.37695e-05
7.91682e-05
0.000102697
9.20879e-05
9.41096e-05
7.92394e-05
0.000101655
2.35603e-05
2.35549e-05
9.45982e-05
0.000101962
8.13902e-05
0.000100878
9.33749e-05
0.000102548
8.25752e-05
6.66268e-05
6.66259e-05
8.31168e-05
6.62097e-05
6.63292e-05
8.35638e-05
4.96807e-05
8.3491e-05
4.96991e-05
2.35527e-05
2.35491e-05
8.32818e-05
4.96777e-05
8.34984e-05
4.96935e-05
0.000112362
0.00011647
0.000110643
0.000109128
0.000111653
0.000113032
0.000111527
9.71475e-05
8.32686e-05
0.000101314
9.86679e-05
9.52119e-05
8.30044e-05
0.000101971
2.3539e-05
2.35386e-05
9.65984e-05
0.00010317
8.19116e-05