/*--------------------------------*- C++ -*----------------------------------*\
| =========                 |                                                 |
| \\      /  F ield         | OpenFOAM: The Open Source CFD Toolbox           |
|  \\    /   O peration     | Version:  v2012                                 |
|   \\  /    A nd           | Website:  www.openfoam.com                      |
|    \\/     M anipulation  |                                                 |
\*---------------------------------------------------------------------------*/
FoamFile
{
    version     2.0;
    format      ascii;
    class       volScalarField;
    location    "500";
    object      p;
}
// * * * * * * * * * * * * * * * * * * * * * * * * * * * * * * * * * * * * * //

dimensions      [0 2 -2 0 0 0 0];


internalField   nonuniform List<scalar> 
85864
(
0.00360463
0.00360496
0.00360496
0.00360801
0.00354927
0.00354969
0.00354969
0.00355268
0.00349852
0.00349849
0.00349849
0.00350125
0.00344614
0.00344615
0.00344615
0.00344892
0.00339479
0.00339479
0.00339479
0.00339754
0.00334481
0.00334482
0.00334482
0.00334754
0.00329628
0.0032963
0.0032963
0.00329898
0.00324906
0.00324908
0.00324907
0.00325174
0.00320293
0.00320295
0.00320297
0.00320557
0.0031577
0.00315772
0.00315773
0.00316032
0.00311319
0.0031132
0.00311321
0.00311578
0.00306928
0.0030693
0.00306929
0.00307184
0.0030259
0.00302592
0.00302589
0.00302842
0.00298298
0.00298298
0.00298295
0.00298551
0.00294049
0.00294053
0.00294052
0.00294299
0.00289845
0.00289845
0.00289847
0.00290088
0.00285681
0.00285685
0.00285681
0.00285925
0.00281556
0.00281553
0.00281552
0.00281799
0.00277459
0.00277453
0.00277462
0.00277707
0.00273397
0.00273399
0.00273386
0.00273658
0.00269321
0.00269334
0.00269318
0.00269543
0.00265269
0.00265257
0.00265253
0.00265512
0.00261285
0.00261256
0.00261298
0.00261524
0.00257312
0.00257327
0.00257307
0.00257547
0.00253351
0.0025332
0.00253323
0.00253574
0.0024944
0.00249447
0.00249423
0.00249642
0.0024554
0.00245505
0.00245581
0.0024589
0.00241693
0.00241735
0.00241618
0.00241821
0.0023781
0.0023777
0.00237812
0.00238076
0.0023401
0.00234026
0.00234025
0.00234263
0.00230162
0.00230122
0.00230156
0.00230354
0.00226347
0.00226364
0.00226384
0.00226562
0.0022258
0.00222576
0.00222551
0.00222853
0.00218837
0.0021884
0.00218824
0.00219052
0.00215043
0.00215049
0.00215053
0.00215238
0.00211318
0.00211282
0.00211312
0.00211542
0.00207565
0.00207579
0.00207567
0.00207784
0.00203854
0.00203859
0.00203858
0.0020407
0.00200162
0.00200158
0.00200156
0.00200376
0.00196466
0.00196468
0.00196467
0.00196682
0.00192805
0.00192796
0.00192796
0.00193008
0.00189133
0.00189133
0.00189133
0.00189344
0.00185486
0.00185479
0.00185481
0.00185693
0.00181842
0.00181839
0.00181837
0.00182048
0.00178214
0.00178205
0.00178206
0.00178416
0.00174592
0.00174585
0.00174586
0.00174792
0.00170978
0.00170971
0.00170969
0.0017118
0.00361804
0.00361826
0.00361826
0.00361804
0.00361826
0.00361826
0.00361903
0.00361902
0.00361903
0.00361903
0.00361826
0.00361826
0.00361804
0.00361826
0.00361826
0.00361804
0.00360801
0.00355925
0.00360496
0.00360496
0.00356153
0.00356153
0.00360801
0.00355925
0.00360496
0.00360496
0.00356153
0.00356153
0.00360496
0.00356153
0.00356153
0.00360801
0.00355925
0.00360496
0.00356153
0.00356153
0.00355925
0.00355268
0.00350817
0.00354969
0.0035497
0.00351162
0.00351162
0.00355268
0.00350817
0.00354969
0.00354969
0.00351162
0.00351162
0.00354969
0.00351162
0.00351162
0.00355268
0.00350817
0.00354969
0.00351162
0.00351162
0.00350817
0.00350125
0.0034558
0.00349849
0.00349849
0.00345916
0.00345917
0.00350125
0.0034558
0.00349849
0.00349849
0.00345916
0.00345917
0.00349849
0.00345916
0.00345916
0.00350125
0.0034558
0.00349849
0.00345916
0.00345917
0.0034558
0.00344892
0.00340425
0.00344615
0.00344615
0.00340751
0.00340752
0.00344892
0.00340425
0.00344615
0.00344615
0.00340751
0.00340752
0.00344615
0.00340752
0.00340752
0.00344892
0.00340425
0.00344615
0.00340752
0.00340752
0.00340425
0.00339755
0.00335404
0.0033948
0.00339479
0.00335717
0.00335718
0.00339755
0.00335404
0.0033948
0.0033948
0.00335717
0.00335717
0.00339479
0.00335717
0.00335718
0.00339755
0.00335404
0.00339479
0.00335717
0.00335718
0.00335404
0.00334754
0.00330529
0.00334482
0.00334482
0.00330831
0.00330831
0.00334754
0.00330528
0.00334482
0.00334483
0.00330831
0.0033083
0.00334482
0.0033083
0.00330831
0.00334754
0.00330529
0.00334482
0.0033083
0.00330831
0.00330529
0.00329898
0.00325787
0.0032963
0.0032963
0.00326076
0.00326079
0.00329898
0.00325786
0.00329629
0.00329631
0.00326077
0.00326078
0.0032963
0.00326078
0.00326077
0.00329899
0.00325785
0.0032963
0.00326079
0.00326076
0.00325786
0.00325174
0.00321155
0.00324909
0.00324907
0.00321439
0.00321438
0.00325172
0.00321157
0.00324909
0.00324907
0.00321437
0.00321439
0.00324909
0.00321439
0.00321438
0.00325172
0.00321157
0.0032491
0.00321439
0.00321439
0.00321155
0.00320558
0.00316619
0.00320294
0.00320296
0.00316897
0.00316895
0.00320557
0.00316618
0.00320296
0.00320296
0.00316898
0.00316896
0.00320295
0.00316895
0.00316895
0.00320557
0.00316618
0.00320294
0.00316894
0.00316895
0.0031662
0.0031603
0.00312156
0.00315772
0.00315771
0.00312426
0.00312428
0.00316031
0.00312156
0.00315771
0.0031577
0.00312428
0.00312429
0.00315773
0.00312431
0.00312429
0.00316032
0.00312156
0.00315774
0.0031243
0.00312429
0.00312155
0.00311579
0.00307754
0.00311323
0.00311322
0.00308023
0.00308024
0.00311577
0.00307755
0.00311322
0.00311323
0.00308023
0.00308021
0.00311319
0.00308023
0.00308023
0.00311577
0.00307754
0.00311321
0.00308023
0.00308024
0.00307754
0.00307185
0.00303405
0.00306929
0.00306932
0.0030367
0.00303672
0.00307184
0.00303406
0.00306931
0.00306931
0.00303669
0.00303673
0.00306931
0.0030367
0.00303671
0.00307184
0.00303405
0.00306928
0.00303671
0.00303669
0.00303404
0.00302844
0.00299107
0.00302592
0.00302591
0.00299367
0.00299371
0.00302842
0.00299104
0.00302591
0.0030259
0.00299368
0.0029937
0.00302589
0.0029937
0.00299365
0.00302841
0.00299103
0.0030259
0.00299369
0.00299365
0.00299106
0.00298551
0.00294852
0.002983
0.00298297
0.00295107
0.00295107
0.00298547
0.00294853
0.00298301
0.00298296
0.00295107
0.00295107
0.002983
0.00295109
0.0029511
0.00298547
0.00294851
0.00298301
0.00295106
0.00295109
0.00294851
0.00294301
0.0029064
0.0029405
0.00294052
0.00290887
0.00290892
0.00294302
0.0029064
0.00294049
0.00294052
0.00290888
0.00290895
0.00294048
0.00290894
0.0029089
0.00294301
0.00290639
0.00294047
0.00290894
0.00290888
0.00290634
0.00290096
0.0028647
0.00289847
0.00289845
0.00286713
0.00286717
0.00290093
0.00286472
0.00289846
0.00289845
0.00286715
0.00286722
0.00289838
0.00286718
0.00286716
0.00290093
0.00286471
0.0028984
0.0028672
0.00286717
0.00286466
0.00285931
0.00282331
0.00285682
0.00285684
0.00282576
0.0028258
0.00285933
0.00282337
0.00285682
0.00285681
0.00282579
0.0028258
0.00285677
0.00282579
0.00282579
0.00285929
0.00282332
0.00285678
0.0028258
0.00282579
0.00282334
0.00281797
0.0027824
0.00281549
0.00281552
0.00278486
0.00278486
0.00281801
0.00278231
0.00281552
0.00281554
0.00278487
0.00278485
0.00281553
0.00278484
0.00278483
0.00281799
0.00278249
0.00281554
0.00278486
0.00278482
0.0027824
0.00277705
0.00274185
0.0027746
0.00277454
0.0027441
0.00274412
0.00277697
0.00274183
0.00277461
0.00277462
0.00274411
0.00274394
0.00277458
0.00274414
0.00274407
0.00277714
0.0027416
0.00277461
0.00274391
0.00274406
0.00274185
0.00273662
0.00270105
0.00273407
0.002734
0.00270341
0.00270339
0.00273655
0.00270115
0.00273406
0.00273386
0.00270341
0.00270355
0.00273397
0.00270338
0.00270332
0.00273639
0.00270124
0.002734
0.00270351
0.00270328
0.00270077
0.00269567
0.00266011
0.00269322
0.00269336
0.00266259
0.00266281
0.00269591
0.00266035
0.00269321
0.00269321
0.00266262
0.00266246
0.00269306
0.00266288
0.0026628
0.00269572
0.00265984
0.00269304
0.0026625
0.00266278
0.00266034
0.00265487
0.00262058
0.00265254
0.0026525
0.00262277
0.00262243
0.00265492
0.00261995
0.00265257
0.00265246
0.0026228
0.00262303
0.00265275
0.00262241
0.00262277
0.00265472
0.00262084
0.00265275
0.00262302
0.00262279
0.00262048
0.0026154
0.0025806
0.00261287
0.00261258
0.00258292
0.00258323
0.00261488
0.00258122
0.0026129
0.002613
0.00258291
0.00258291
0.00261276
0.00258324
0.00258292
0.0026156
0.00258075
0.00261279
0.0025829
0.00258292
0.0025806
0.00257543
0.00254111
0.00257301
0.00257325
0.00254339
0.00254314
0.00257598
0.00254061
0.00257302
0.00257311
0.00254339
0.00254335
0.00257308
0.00254312
0.00254343
0.00257557
0.00254087
0.00257307
0.00254334
0.00254342
0.00254113
0.00253591
0.00250188
0.00253347
0.00253322
0.00250399
0.00250406
0.00253547
0.00250207
0.00253347
0.00253323
0.002504
0.00250388
0.00253338
0.00250408
0.00250371
0.0025356
0.00250165
0.00253338
0.00250387
0.00250371
0.00250127
0.0024968
0.00246244
0.00249436
0.00249447
0.00246493
0.00246475
0.00249698
0.00246213
0.00249436
0.00249424
0.00246495
0.00246529
0.00249412
0.00246479
0.0024658
0.00249658
0.00246327
0.00249411
0.00246534
0.00246582
0.00246422
0.0024574
0.00242455
0.00245513
0.00245502
0.00242656
0.00242683
0.00245727
0.00242505
0.00245517
0.00245573
0.00242653
0.00242652
0.002456
0.0024268
0.00242591
0.00245834
0.0024239
0.00245602
0.00242648
0.00242587
0.00242327
0.00241959
0.00238524
0.00241711
0.00241739
0.00238769
0.00238748
0.00242015
0.00238493
0.00241703
0.0024163
0.00238763
0.00238712
0.00241623
0.00238747
0.00238781
0.00241831
0.00238492
0.00241615
0.0023871
0.00238775
0.00238566
0.00238017
0.00234748
0.00237793
0.00237768
0.00234952
0.0023495
0.0023798
0.00234758
0.00237792
0.0023781
0.00234959
0.00235029
0.00237836
0.00234953
0.00234974
0.00238026
0.00234824
0.00237835
0.00235026
0.0023498
0.00234762
0.00234256
0.00230884
0.00234015
0.00234025
0.00231121
0.00231124
0.00234273
0.00230862
0.00234019
0.00234027
0.0023112
0.00231083
0.00234018
0.00231124
0.00231123
0.00234284
0.00230865
0.00234021
0.00231088
0.00231121
0.00230885
0.0023038
0.00227072
0.00230153
0.00230124
0.00227291
0.0022728
0.00230332
0.00227083
0.00230154
0.00230156
0.00227296
0.00227361
0.00230141
0.00227279
0.00227251
0.00230388
0.00227154
0.00230141
0.00227361
0.00227256
0.00227034
0.00226559
0.00223281
0.00226339
0.00226366
0.00223498
0.0022354
0.00226596
0.00223302
0.00226342
0.00226384
0.00223491
0.00223481
0.00226336
0.00223545
0.00223568
0.00226624
0.00223245
0.0022634
0.00223485
0.00223563
0.00223365
0.00222803
0.00219611
0.00222571
0.00222572
0.00219814
0.00219762
0.0022279
0.00219564
0.00222568
0.00222547
0.00219813
0.00219761
0.00222611
0.00219759
0.00219763
0.00222758
0.00219548
0.00222607
0.00219759
0.00219762
0.00219549
0.00219091
0.00215724
0.00218856
0.00218843
0.00215966
0.00216013
0.00219074
0.00215777
0.00218854
0.00218826
0.00215965
0.00215995
0.00218827
0.00216013
0.00215983
0.00219053
0.00215774
0.00218826
0.00215995
0.00215981
0.00215736
0.00215237
0.00212066
0.00215027
0.00215049
0.00212258
0.00212211
0.00215263
0.00211986
0.00215027
0.00215053
0.00212261
0.00212246
0.00215026
0.00212209
0.00212234
0.00215276
0.0021203
0.00215026
0.00212244
0.00212237
0.00212034
0.00211574
0.00208257
0.00211335
0.00211283
0.00208497
0.00208507
0.00211498
0.00208294
0.00211338
0.00211313
0.00208497
0.00208502
0.00211313
0.00208508
0.00208511
0.00211535
0.00208278
0.00211316
0.00208503
0.00208511
0.00208282
0.00207758
0.00204562
0.00207552
0.00207578
0.00204769
0.00204786
0.00207801
0.0020457
0.00207551
0.00207567
0.00204769
0.00204781
0.0020757
0.00204787
0.00204776
0.00207784
0.00204568
0.00207569
0.00204782
0.00204776
0.0020456
0.00204077
0.00200874
0.00203855
0.00203858
0.00201095
0.00201083
0.00204076
0.00200865
0.00203855
0.00203857
0.00201095
0.00201082
0.00203853
0.00201082
0.00201085
0.00204077
0.00200863
0.00203853
0.00201082
0.00201085
0.00200868
0.00200374
0.00197163
0.0020016
0.00200159
0.00197378
0.00197389
0.00200374
0.00197173
0.0020016
0.00200157
0.00197378
0.00197386
0.0020016
0.00197389
0.00197388
0.00200371
0.0019717
0.0020016
0.00197387
0.00197388
0.00197171
0.00196677
0.00193513
0.00196462
0.00196468
0.00193725
0.00193712
0.00196682
0.00193497
0.00196462
0.00196467
0.00193725
0.00193714
0.00196468
0.00193712
0.00193713
0.00196681
0.00193498
0.00196468
0.00193713
0.00193713
0.00193497
0.00193021
0.00189823
0.00192806
0.00192796
0.00190042
0.00190049
0.00193009
0.00189834
0.00192806
0.00192797
0.00190042
0.00190048
0.00192795
0.00190049
0.00190046
0.0019301
0.00189833
0.00192795
0.00190048
0.00190046
0.00189831
0.00189336
0.00186182
0.00189125
0.00189133
0.00186392
0.0018639
0.00189345
0.00186176
0.00189125
0.00189133
0.00186392
0.00186393
0.00189132
0.0018639
0.00186393
0.00189346
0.00186179
0.00189132
0.00186393
0.00186393
0.0018618
0.00185695
0.00182531
0.00185483
0.00185479
0.00182746
0.00182749
0.0018569
0.00182536
0.00185483
0.00185481
0.00182746
0.00182747
0.00185481
0.00182749
0.00182748
0.00185692
0.00182533
0.00185482
0.00182747
0.00182748
0.00182534
0.00182045
0.00178904
0.00181836
0.00181839
0.00179115
0.00179112
0.0018205
0.00178899
0.00181835
0.00181837
0.00179115
0.00179113
0.00181838
0.00179112
0.00179113
0.00182047
0.00178901
0.00181838
0.00179112
0.00179113
0.00178901
0.00178419
0.00175278
0.00178209
0.00178205
0.0017549
0.00175489
0.00178414
0.00175278
0.00178209
0.00178207
0.0017549
0.00175491
0.00178206
0.00175489
0.00175488
0.00178417
0.00175279
0.00178206
0.00175491
0.00175488
0.00175276
0.00174793
0.00171661
0.00174584
0.00174585
0.00171872
0.00171874
0.00174794
0.00171663
0.00174585
0.00174586
0.00171871
0.00171871
0.00174583
0.00171874
0.00171874
0.00174795
0.0017166
0.00174583
0.00171872
0.00171874
0.00171664
0.00171179
0.00168053
0.0017097
0.00170971
0.00168265
0.00168266
0.00171179
0.00168057
0.0017097
0.00170969
0.00168265
0.00168267
0.00170972
0.00168266
0.00168266
0.00171176
0.00168058
0.00170972
0.00168267
0.00168266
0.00168054
0.00362641
0.00363618
0.00363097
0.00363098
0.00365336
0.00364014
0.00366875
0.00363419
0.00365336
0.00364014
0.00363419
0.00366875
0.00364471
0.00367249
0.00367249
0.00358177
0.00360092
0.00361011
0.00357385
0.00357459
0.00357736
0.00358175
0.00360089
0.0036101
0.00357383
0.00360463
0.00360463
0.00360463
0.00356123
0.00356123
0.00356122
0.00356122
0.00357927
0.0036051
0.00360503
0.0035881
0.00360812
0.00357817
0.00358898
0.00357469
0.00357736
0.00357928
0.00360503
0.00360511
0.0035881
0.00360812
0.00358898
0.00357817
0.00361097
0.00361096
0.0035825
0.00357781
0.00357781
0.00353514
0.00355442
0.00355578
0.00353368
0.00355333
0.00353324
0.00353514
0.00355441
0.00355578
0.00353367
0.00354927
0.00354927
0.00354927
0.00351168
0.00351168
0.00351168
0.00351168
0.00353372
0.00355449
0.00354927
0.0035374
0.00355328
0.00353427
0.00353713
0.00355332
0.00353323
0.00353373
0.00354927
0.00355449
0.0035374
0.00355328
0.00353713
0.00353426
0.00355551
0.00355551
0.00353395
0.0035346
0.0035346
0.00348288
0.00350168
0.00350275
0.00348185
0.00350132
0.00348157
0.00348288
0.00350168
0.00350275
0.00348185
0.00349852
0.00349852
0.00349852
0.00345914
0.00345914
0.00345914
0.00345914
0.00348198
0.00350208
0.0034984
0.00348535
0.00350152
0.00348234
0.00348526
0.00350132
0.00348157
0.00348198
0.0034984
0.00350208
0.00348535
0.00350152
0.00348526
0.00348234
0.00350232
0.00350232
0.00348197
0.0034824
0.0034824
0.00343035
0.00344901
0.00344987
0.00342958
0.0034488
0.0034294
0.00343035
0.00344901
0.00344986
0.00342958
0.00344614
0.00344613
0.00344613
0.00340751
0.00340751
0.00340751
0.00340751
0.00342984
0.00344941
0.0034461
0.0034332
0.00344913
0.00343003
0.00343316
0.0034488
0.0034294
0.00342984
0.0034461
0.00344941
0.0034332
0.00344913
0.00343316
0.00343003
0.00344945
0.00344945
0.00342988
0.00342996
0.00342996
0.00337915
0.00339751
0.00339814
0.0033786
0.00339737
0.00337846
0.00337915
0.00339751
0.00339814
0.0033786
0.00339478
0.00339478
0.00339478
0.00335716
0.00335716
0.00335716
0.00335716
0.00337888
0.00339786
0.00339476
0.00338216
0.00339769
0.00337899
0.00338213
0.00339736
0.00337846
0.00337888
0.00339476
0.00339786
0.00338216
0.00339769
0.00338213
0.00337899
0.00339785
0.00339785
0.00337896
0.0033789
0.0033789
0.00332951
0.00334746
0.00334792
0.00332912
0.00334735
0.003329
0.00332951
0.00334746
0.00334792
0.00332912
0.00334481
0.00334481
0.00334481
0.00330829
0.00330829
0.00330829
0.00330829
0.00332939
0.00334776
0.00334479
0.00333256
0.00334764
0.00332946
0.00333253
0.00334734
0.003329
0.00332939
0.00334479
0.00334776
0.00333256
0.00334764
0.00333253
0.00332946
0.00334775
0.00334775
0.00332949
0.00332938
0.00332938
0.00328134
0.00329888
0.00329921
0.00328107
0.00329878
0.00328096
0.00328134
0.00329889
0.00329921
0.00328106
0.00329629
0.00329629
0.00329629
0.00326075
0.00326076
0.00326076
0.00326075
0.00328132
0.00329915
0.00329627
0.00328439
0.00329905
0.00328138
0.00328435
0.00329879
0.00328095
0.00328132
0.00329627
0.00329915
0.00328439
0.00329905
0.00328435
0.00328137
0.00329914
0.00329914
0.00328142
0.00328129
0.00328129
0.00323445
0.00325164
0.00325187
0.00323425
0.00325155
0.00323415
0.00323445
0.00325163
0.00325187
0.00323424
0.00324906
0.00324906
0.00324906
0.00321437
0.00321437
0.00321437
0.00321437
0.00323449
0.00325185
0.00324905
0.00323745
0.00325179
0.00323455
0.00323741
0.00325155
0.00323416
0.00323449
0.00324905
0.00325185
0.00323747
0.00325178
0.00323742
0.00323454
0.00325187
0.00325187
0.00323458
0.00323445
0.00323445
0.00318862
0.00320549
0.00320565
0.00318844
0.00320541
0.00318836
0.0031886
0.00320548
0.00320567
0.00318846
0.00320293
0.00320293
0.00320293
0.00316894
0.00316893
0.00316893
0.00316893
0.00318869
0.00320569
0.00320292
0.00319156
0.00320562
0.00318873
0.00319154
0.00320541
0.00318837
0.00318869
0.00320292
0.0032057
0.00319155
0.00320563
0.00319153
0.00318873
0.0032057
0.0032057
0.00318877
0.00318863
0.00318863
0.00314363
0.00316023
0.00316038
0.00314348
0.00316015
0.00314341
0.00314363
0.00316024
0.00316036
0.00314349
0.0031577
0.0031577
0.0031577
0.00312425
0.00312426
0.00312426
0.00312426
0.00314372
0.00316042
0.00315769
0.00314655
0.00316038
0.00314376
0.00314651
0.00316014
0.00314342
0.00314372
0.0031577
0.00316043
0.00314654
0.00316038
0.0031465
0.00314376
0.00316041
0.00316042
0.00314379
0.00314367
0.00314366
0.00309931
0.00311569
0.00311584
0.00309919
0.00311563
0.00309911
0.00309933
0.00311571
0.00311584
0.00309919
0.00311319
0.00311319
0.00311319
0.00308021
0.00308021
0.00308021
0.00308021
0.00309945
0.00311589
0.00311318
0.00310218
0.00311583
0.00309947
0.00310216
0.00311563
0.00309913
0.00309944
0.00311318
0.00311589
0.00310218
0.00311584
0.00310216
0.00309947
0.00311588
0.00311589
0.00309948
0.00309937
0.00309935
0.00305558
0.00307176
0.00307189
0.00305546
0.0030717
0.00305536
0.00305557
0.00307175
0.00307191
0.00305547
0.00306928
0.00306928
0.00306928
0.00303669
0.0030367
0.0030367
0.00303669
0.00305574
0.00307194
0.00306928
0.0030584
0.00307191
0.00305574
0.00305839
0.0030717
0.00305536
0.00305576
0.00306928
0.00307193
0.00305841
0.0030719
0.00305838
0.00305575
0.00307193
0.00307191
0.00305575
0.00305559
0.00305561
0.00301233
0.00302833
0.00302847
0.00301223
0.00302824
0.00301217
0.00301233
0.00302834
0.00302847
0.00301223
0.00302589
0.00302589
0.00302589
0.00299366
0.00299367
0.00299366
0.00299365
0.00301251
0.00302854
0.00302589
0.00301514
0.00302852
0.00301248
0.00301514
0.00302825
0.00301216
0.00301251
0.00302589
0.00302853
0.00301514
0.00302852
0.00301514
0.00301249
0.00302846
0.00302847
0.00301251
0.00301237
0.00301237
0.00296958
0.00298543
0.00298551
0.00296941
0.00298536
0.00296935
0.00296957
0.00298541
0.00298552
0.00296943
0.00298297
0.00298297
0.00298298
0.00295107
0.00295108
0.00295107
0.00295108
0.00296972
0.00298557
0.002983
0.00297232
0.00298561
0.00296969
0.00297232
0.00298535
0.00296936
0.00296975
0.00298297
0.00298555
0.00297235
0.00298559
0.00297234
0.00296972
0.00298554
0.00298554
0.00296973
0.00296955
0.00296957
0.00292724
0.00294288
0.002943
0.0029271
0.00294279
0.00292707
0.00292723
0.0029429
0.002943
0.00292708
0.0029405
0.0029405
0.00294049
0.00290891
0.00290892
0.00290892
0.0029089
0.00292746
0.00294305
0.00294051
0.00292993
0.00294305
0.00292734
0.00292992
0.0029428
0.00292706
0.00292744
0.00294051
0.00294306
0.00292994
0.00294309
0.00292995
0.00292734
0.00294297
0.00294295
0.00292743
0.00292721
0.00292723
0.0028853
0.00290081
0.00290094
0.00288518
0.00290077
0.00288512
0.0028853
0.00290082
0.00290092
0.00288515
0.00289844
0.00289844
0.00289843
0.00286718
0.00286718
0.00286719
0.00286717
0.00288553
0.00290095
0.00289842
0.00288798
0.00290101
0.00288543
0.00288801
0.00290079
0.00288511
0.00288549
0.00289845
0.00290096
0.00288797
0.00290108
0.00288804
0.00288542
0.00290096
0.00290096
0.00288552
0.00288522
0.00288521
0.00284381
0.00285913
0.00285927
0.0028437
0.0028591
0.00284365
0.00284375
0.00285917
0.00285927
0.00284369
0.00285681
0.00285681
0.0028568
0.00282582
0.00282583
0.00282582
0.00282582
0.00284402
0.0028593
0.00285682
0.00284645
0.00285943
0.00284395
0.0028465
0.00285913
0.00284363
0.00284403
0.00285683
0.00285932
0.00284643
0.0028594
0.00284648
0.00284394
0.00285928
0.0028593
0.00284397
0.00284372
0.00284373
0.00280262
0.00281781
0.00281795
0.00280246
0.00281782
0.00280243
0.00280257
0.0028178
0.00281798
0.00280251
0.00281556
0.00281556
0.00281556
0.00278482
0.00278481
0.00278484
0.00278481
0.00280291
0.00281792
0.00281557
0.00280529
0.00281813
0.00280276
0.00280534
0.00281785
0.00280244
0.00280288
0.00281557
0.002818
0.00280531
0.00281812
0.00280534
0.00280268
0.00281799
0.002818
0.00280293
0.00280254
0.00280254
0.00276176
0.00277703
0.00277702
0.00276169
0.00277695
0.00276175
0.00276175
0.00277703
0.00277704
0.00276163
0.00277459
0.00277459
0.00277458
0.00274411
0.00274409
0.00274405
0.00274411
0.00276209
0.00277703
0.00277457
0.00276429
0.0027771
0.00276184
0.00276439
0.00277693
0.00276166
0.00276192
0.00277467
0.00277711
0.00276437
0.00277721
0.00276439
0.00276197
0.00277706
0.00277707
0.00276187
0.00276177
0.00276174
0.00272106
0.00273616
0.0027363
0.00272086
0.00273611
0.00272102
0.00272102
0.00273614
0.00273622
0.00272089
0.00273392
0.00273394
0.00273395
0.0027034
0.00270345
0.00270343
0.00270332
0.00272137
0.00273629
0.00273393
0.00272374
0.00273632
0.00272117
0.0027237
0.00273624
0.00272066
0.00272124
0.00273394
0.00273612
0.00272388
0.00273637
0.00272381
0.00272089
0.00273594
0.00273594
0.00272155
0.00272071
0.0027207
0.00268031
0.00269535
0.00269551
0.0026803
0.00269528
0.00267996
0.00268034
0.00269541
0.00269552
0.00268027
0.00269333
0.00269317
0.00269315
0.00266273
0.00266281
0.00266273
0.00266285
0.0026806
0.00269544
0.00269327
0.00268324
0.00269563
0.00268029
0.0026831
0.00269523
0.00268026
0.00268065
0.00269321
0.00269553
0.00268282
0.00269572
0.00268298
0.00268066
0.00269572
0.00269572
0.00268045
0.00268055
0.00268055
0.00264013
0.00265516
0.00265515
0.00263999
0.00265495
0.0026401
0.00264012
0.00265505
0.00265509
0.00264002
0.00265266
0.00265277
0.0026528
0.00262281
0.00262269
0.00262288
0.00262278
0.00264037
0.00265517
0.00265275
0.00264236
0.00265537
0.00264036
0.00264263
0.00265532
0.00264025
0.00264032
0.00265271
0.00265518
0.0026426
0.0026553
0.00264275
0.00264019
0.00265517
0.00265518
0.00264046
0.00264008
0.0026401
0.00260026
0.00261504
0.00261509
0.00260017
0.00261523
0.00260016
0.00260031
0.00261512
0.00261518
0.00260025
0.0026128
0.00261286
0.0026128
0.00258301
0.00258313
0.00258306
0.00258301
0.0026004
0.00261519
0.00261268
0.0026028
0.00261511
0.00260027
0.00260279
0.00261482
0.00260025
0.00260057
0.00261283
0.00261516
0.00260286
0.00261527
0.00260284
0.00260036
0.00261502
0.00261503
0.00260045
0.00260027
0.00260029
0.00256059
0.00257532
0.00257541
0.00256051
0.00257514
0.00256032
0.00256053
0.00257529
0.00257538
0.00256045
0.00257318
0.00257318
0.00257313
0.00254342
0.00254331
0.00254336
0.00254341
0.00256082
0.00257525
0.00257318
0.00256325
0.00257555
0.00256066
0.00256323
0.00257532
0.00256005
0.00256074
0.00257312
0.00257521
0.0025633
0.00257541
0.00256322
0.0025605
0.00257528
0.00257524
0.00256106
0.00256024
0.00256023
0.00252105
0.00253578
0.00253579
0.00252101
0.00253581
0.00252115
0.00252111
0.00253583
0.00253581
0.00252104
0.00253343
0.00253342
0.00253345
0.00250412
0.00250417
0.0025041
0.00250403
0.00252126
0.00253587
0.00253335
0.00252342
0.00253584
0.00252107
0.00252351
0.00253579
0.00252132
0.00252134
0.00253338
0.00253587
0.00252331
0.0025359
0.0025235
0.00252128
0.00253575
0.00253577
0.00252075
0.00252156
0.00252158
0.00248202
0.00249644
0.00249657
0.00248189
0.00249629
0.00248167
0.00248206
0.00249647
0.00249664
0.00248195
0.00249443
0.00249435
0.00249445
0.0024651
0.00246504
0.00246537
0.00246548
0.00248225
0.00249643
0.00249434
0.00248466
0.00249664
0.00248214
0.0024845
0.00249677
0.002482
0.00248227
0.00249429
0.00249679
0.00248469
0.00249669
0.0024846
0.00248226
0.00249707
0.0024971
0.00248281
0.00248195
0.00248201
0.00244328
0.00245776
0.00245771
0.00244326
0.0024581
0.00244369
0.00244318
0.00245777
0.00245766
0.00244322
0.00245545
0.00245577
0.00245569
0.00242658
0.00242668
0.00242636
0.00242626
0.00244346
0.00245789
0.00245541
0.0024455
0.00245781
0.00244334
0.00244582
0.00245747
0.00244249
0.00244338
0.0024557
0.00245723
0.00244619
0.00245778
0.002446
0.00244274
0.00245685
0.00245681
0.00244344
0.00244307
0.00244304
0.00240455
0.00241898
0.0024191
0.00240443
0.00241842
0.002404
0.00240443
0.00241887
0.00241896
0.00240433
0.00241699
0.00241642
0.00241659
0.00238775
0.0023877
0.00238778
0.00238783
0.00240477
0.00241874
0.00241689
0.00240757
0.00241905
0.00240441
0.00240717
0.00241861
0.00240488
0.00240456
0.00241634
0.002419
0.00240597
0.00241891
0.00240653
0.00240488
0.00241952
0.00241948
0.00240436
0.00240489
0.00240486
0.00236605
0.00238037
0.00238034
0.00236606
0.00238057
0.00236635
0.00236615
0.0023804
0.0023804
0.00236613
0.00237803
0.00237831
0.0023783
0.0023496
0.00234959
0.00234974
0.00234968
0.00236621
0.00238056
0.00237803
0.00236818
0.00238042
0.00236626
0.00236846
0.00238101
0.00236615
0.00236635
0.00237822
0.00238047
0.00236893
0.00238042
0.00236882
0.00236616
0.00238037
0.00238038
0.00236699
0.00236584
0.00236586
0.00232782
0.00234207
0.00234216
0.00232772
0.00234202
0.00232722
0.00232782
0.00234207
0.00234222
0.0023277
0.00234014
0.00234005
0.00234014
0.00231124
0.00231121
0.00231122
0.00231121
0.00232799
0.00234192
0.0023401
0.00233086
0.00234215
0.00232763
0.00233057
0.0023415
0.00232776
0.00232798
0.00234008
0.00234201
0.00233022
0.00234227
0.00233036
0.00232797
0.00234181
0.00234184
0.00232847
0.00232741
0.00232743
0.00228947
0.00230367
0.00230376
0.00228934
0.0023035
0.00228985
0.00228959
0.00230374
0.00230383
0.00228944
0.00230146
0.00230172
0.00230148
0.002273
0.00227301
0.00227325
0.00227292
0.0022896
0.00230384
0.00230144
0.00229143
0.00230382
0.00228984
0.00229177
0.00230429
0.00228954
0.00228972
0.00230165
0.0023039
0.00229231
0.00230382
0.00229215
0.00228959
0.00230358
0.00230358
0.00228884
0.00229
0.00229004
0.00225161
0.00226577
0.00226574
0.00225168
0.00226598
0.00225126
0.00225148
0.00226574
0.00226571
0.00225164
0.00226366
0.00226368
0.00226357
0.00223514
0.0022353
0.00223509
0.00223537
0.00225185
0.00226569
0.00226357
0.0022544
0.00226574
0.00225166
0.00225423
0.00226509
0.00225129
0.00225171
0.0022636
0.00226545
0.00225402
0.00226577
0.00225407
0.00225152
0.00226633
0.00226633
0.00225231
0.00225173
0.00225172
0.00221396
0.00222803
0.00222802
0.00221393
0.00222783
0.00221418
0.00221394
0.002228
0.00222796
0.0022139
0.0022258
0.00222568
0.00222592
0.0021978
0.00219766
0.00219758
0.00219766
0.00221402
0.00222798
0.00222588
0.00221619
0.00222809
0.00221404
0.00221641
0.00222812
0.00221399
0.00221401
0.00222573
0.002228
0.00221621
0.00222797
0.00221634
0.002214
0.00222769
0.00222766
0.00221426
0.00221378
0.00221376
0.00217622
0.00219013
0.00219036
0.00217614
0.0021904
0.00217581
0.0021762
0.0021901
0.00219033
0.00217611
0.00218833
0.00218821
0.00218828
0.00215986
0.00216007
0.00215997
0.0021599
0.00217644
0.00219035
0.00218831
0.0021792
0.00219033
0.00217614
0.00217895
0.00219027
0.00217619
0.0021764
0.00218821
0.00219029
0.00217883
0.00219031
0.00217882
0.0021763
0.00219013
0.00219013
0.0021767
0.00217588
0.00217588
0.0021386
0.00215274
0.00215263
0.00213867
0.00215238
0.00213853
0.00213868
0.00215276
0.0021527
0.00213872
0.00215054
0.00215055
0.00215041
0.00212247
0.00212223
0.00212243
0.00212236
0.00213866
0.0021525
0.00215051
0.00214091
0.00215265
0.00213861
0.00214103
0.00215267
0.00213861
0.00213874
0.00215053
0.00215265
0.00214114
0.00215269
0.00214113
0.00213865
0.00215285
0.00215286
0.00213862
0.00213893
0.00213895
0.00210118
0.00211504
0.00211517
0.00210101
0.0021153
0.0021013
0.00210119
0.00211507
0.00211521
0.00210102
0.00211291
0.0021131
0.00211307
0.00208504
0.00208505
0.00208506
0.00208511
0.00210137
0.0021152
0.00211296
0.00210356
0.00211514
0.00210135
0.00210368
0.00211509
0.00210109
0.00210139
0.0021131
0.00211515
0.00210377
0.0021152
0.00210378
0.00210125
0.00211514
0.00211516
0.00210182
0.00210093
0.00210093
0.00206389
0.00207777
0.0020778
0.00206392
0.00207782
0.00206387
0.00206387
0.00207776
0.00207777
0.00206391
0.00207575
0.00207571
0.00207575
0.00204775
0.00204786
0.00204782
0.0020478
0.00206406
0.00207784
0.00207579
0.00206647
0.00207788
0.00206396
0.00206647
0.00207782
0.00206392
0.00206403
0.00207574
0.00207782
0.00206635
0.00207785
0.00206642
0.00206397
0.00207781
0.00207781
0.0020641
0.00206398
0.00206397
0.00202685
0.00204073
0.0020407
0.00202677
0.00204062
0.00202678
0.00202684
0.00204072
0.00204069
0.00202677
0.00203859
0.00203857
0.00203855
0.0020109
0.00201085
0.00201084
0.00201085
0.00202696
0.00204063
0.0020386
0.00202932
0.00204067
0.00202685
0.00202934
0.0020406
0.00202674
0.00202695
0.00203858
0.00204063
0.00202933
0.00204067
0.00202934
0.00202683
0.00204073
0.00204073
0.00202718
0.00202679
0.00202679
0.00198982
0.00200359
0.00200365
0.0019898
0.00200362
0.00198982
0.00198982
0.00200359
0.00200365
0.0019898
0.00200161
0.00200159
0.00200161
0.00197385
0.00197392
0.0019739
0.00197391
0.00199
0.00200364
0.00200162
0.00199235
0.00200368
0.0019899
0.00199239
0.00200362