/*--------------------------------*- C++ -*----------------------------------*\
| =========                 |                                                 |
| \\      /  F ield         | OpenFOAM: The Open Source CFD Toolbox           |
|  \\    /   O peration     | Version:  v2012                                 |
|   \\  /    A nd           | Website:  www.openfoam.com                      |
|    \\/     M anipulation  |                                                 |
\*---------------------------------------------------------------------------*/
FoamFile
{
    version     2.0;
    format      ascii;
    class       surfaceScalarField;
    location    "500";
    object      phi;
}
// * * * * * * * * * * * * * * * * * * * * * * * * * * * * * * * * * * * * * //

dimensions      [0 3 -1 0 0 0 0];
oriented        oriented;


internalField   nonuniform List<scalar> 
248808
(
-0.00104221
-1.45815e-05
-1.44777e-05
9.34771e-06
9.17762e-06
0.00105274
-0.00026146
-5.64183e-06
1.44583e-05
6.83957e-06
0.00105941
-4.53274e-06
-1.62486e-06
-2.21805e-06
-2.57554e-06
-6.59143e-06
-7.04426e-06
-3.16376e-06
-0.000263303
-0.000259727
-0.000262829
-0.000261437
-5.64682e-06
1.44873e-05
6.92911e-06
0.0010592
-4.53785e-06
-1.63504e-06
-2.22566e-06
-2.57985e-06
-6.58552e-06
-7.04033e-06
-3.16594e-06
-0.000259699
-0.000263274
-0.000262793
-0.000260564
5.61732e-06
5.65742e-06
-4.87815e-06
-4.87221e-06
0.00025904
-1.63187e-06
-1.63376e-06
-0.00106073
8.98536e-07
8.99306e-07
0.0010622
-0.00106267
-1.60665e-06
1.62783e-06
8.28417e-07
0.00106395
-6.53879e-07
7.84507e-07
-1.48149e-07
3.78004e-07
-8.00669e-07
-1.39484e-06
-2.90554e-07
-0.00106235
-1.60156e-06
1.63834e-06
8.23605e-07
0.00106363
-6.5386e-07
7.79016e-07
-1.48197e-07
3.7539e-07
-8.03195e-07
-1.39452e-06
-2.88008e-07
-0.000261533
1.63927e-06
1.60171e-06
-7.13271e-07
-7.16416e-07
0.000259722
-1.36115e-06
-1.36256e-06
-0.0010664
6.82257e-07
6.83066e-07
0.00106775
-0.0010679
-1.55714e-06
1.36729e-06
6.90348e-07
0.00106925
-6.21823e-07
8.38602e-07
-1.06604e-07
4.24419e-07
-7.80365e-07
-1.35992e-06
-2.45168e-07
-0.00106758
-1.55189e-06
1.3621e-06
6.95673e-07
0.00106892
-6.21822e-07
8.33199e-07
-1.06566e-07
4.24342e-07
-7.80299e-07
-1.35438e-06
-2.42616e-07
-0.000262766
1.58732e-06
1.55203e-06
-6.74927e-07
-6.83117e-07
0.000260984
-1.34101e-06
-1.34236e-06
-0.00107186
6.64427e-07
6.65269e-07
0.00107322
-0.00107326
-1.55562e-06
1.34201e-06
6.6729e-07
0.00107457
-6.20005e-07
8.63813e-07
-8.15722e-08
4.37898e-07
-7.79433e-07
-1.36915e-06
-2.2043e-07
-0.00107292
-1.55027e-06
1.34192e-06
6.67379e-07
0.00107424
-6.17278e-07
8.58405e-07
-8.39807e-08
4.37788e-07
-7.81959e-07
-1.36897e-06
-2.17876e-07
-0.000264044
1.58328e-06
1.55048e-06
-6.64627e-07
-6.70273e-07
0.000262245
-1.296e-06
-1.29724e-06
-0.00107721
6.42285e-07
6.43158e-07
0.00107852
-0.00107844
-1.5475e-06
1.29692e-06
6.34138e-07
0.00107969
-6.07585e-07
8.91666e-07
-5.62015e-08
4.59703e-07
-7.68233e-07
-1.37141e-06
-1.8915e-07
-0.0010781
-1.54209e-06
1.29675e-06
6.34162e-07
0.00107936
-6.0475e-07
8.86277e-07
-5.84793e-08
4.59611e-07
-7.7072e-07
-1.37141e-06
-1.8661e-07
-0.000265263
1.57523e-06
1.54225e-06
-6.47612e-07
-6.5327e-07
0.000263446
-1.24841e-06
-1.24953e-06
-0.00108237
6.20397e-07
6.21289e-07
0.00108362
-0.00108337
-1.53932e-06
1.24957e-06
6.04697e-07
0.00108457
-5.95733e-07
9.17333e-07
-3.38358e-08
4.83343e-07
-7.5413e-07
-1.36932e-06
-1.58738e-07
-0.00108303
-1.53384e-06
1.24916e-06
6.04515e-07
0.00108423
-5.92748e-07
9.12184e-07
-3.5851e-08
4.8369e-07
-7.56731e-07
-1.36901e-06
-1.56088e-07
-0.000266409
1.56686e-06
1.53365e-06
-6.30396e-07
-6.36134e-07
0.000264575
-1.20425e-06
-1.20503e-06
-0.00108732
6.00823e-07
6.01675e-07
0.00108852
-0.00108806
-1.53258e-06
1.2051e-06
5.80785e-07
0.00108919
-5.85749e-07
9.39628e-07
-1.63753e-08
5.09899e-07
-7.40292e-07
-1.36499e-06
-1.30342e-07
-0.00108772
-1.52746e-06
1.20495e-06
5.80849e-07
0.00108885
-5.83837e-07
9.34279e-07
-1.84492e-08
5.08799e-07
-7.42679e-07
-1.36342e-06
-1.28271e-07
-0.000267481
1.56059e-06
1.52726e-06
-6.16109e-07
-6.21816e-07
0.000265631
-1.16588e-06
-1.16627e-06
-0.00109208
5.84267e-07
5.85319e-07
0.00109324
-0.00109251
-1.5271e-06
1.16618e-06
5.6216e-07
0.00109359
-5.77137e-07
9.60288e-07
-8.21261e-10
5.34247e-07
-7.27671e-07
-1.36267e-06
-1.04935e-07
-0.00109217
-1.52202e-06
1.16569e-06
5.62382e-07
0.00109325
-5.75027e-07
9.53653e-07
-3.93411e-09
5.3517e-07
-7.29623e-07
-1.3597e-06
-1.03407e-07
-0.000268482
1.55671e-06
1.5231e-06
-6.05232e-07
-6.11072e-07
0.000266618
-1.13233e-06
-1.13455e-06
-0.00109667
5.70722e-07
5.71301e-07
0.00109779
-0.00109676
-1.52698e-06
1.13255e-06
5.48194e-07
0.00109779
-5.77045e-07
9.76974e-07
1.7681e-08
5.56487e-07
-7.16395e-07
-1.35665e-06
-8.4072e-08
-0.00109641
-1.52105e-06
1.13272e-06
5.48259e-07
0.00109744
-5.73352e-07
9.72135e-07
1.60848e-08
5.56312e-07
-7.19271e-07
-1.35894e-06
-8.15689e-08
-0.000269422
1.5544e-06
1.52095e-06
-5.94727e-07
-6.00247e-07
0.000267542
-1.10213e-06
-1.10402e-06
-0.00110111
5.58371e-07
5.58905e-07
0.0011022
-0.00110081
-1.52681e-06
1.10541e-06
5.38868e-07
0.0011018
-5.72823e-07
9.91335e-07
2.84455e-08
5.74419e-07
-7.08652e-07
-1.35783e-06
-6.47407e-08
-0.00110046
-1.52155e-06
1.10529e-06
5.38741e-07
0.00110145
-5.71243e-07
9.86281e-07
2.57309e-08
5.75457e-07
-7.11082e-07
-1.35763e-06
-6.21327e-08
-0.000270305
1.55583e-06
1.5218e-06
-5.90122e-07
-5.96113e-07
0.000268413
-1.07979e-06
-1.07984e-06
-0.00110542
5.49009e-07
5.49994e-07
0.00110648
-0.0011047
-1.52791e-06
1.07756e-06
5.28276e-07
0.00110564
-5.70383e-07
1.00597e-06
4.27063e-08
5.99531e-07
-6.97239e-07
-1.34968e-06
-4.96248e-08
-0.00110435
-1.52236e-06
1.07772e-06
5.27987e-07
0.00110529
-5.69417e-07
1.00094e-06
4.40781e-08
5.97097e-07
-7.00298e-07
-1.35108e-06
-4.73797e-08
-0.000271131
1.55692e-06
1.52239e-06
-5.83474e-07
-5.89856e-07
0.000269225
-1.05725e-06
-1.05764e-06
-0.00110962
5.40398e-07
5.41113e-07
0.00111065
-0.00110843
-1.53e-06
1.05504e-06
5.19283e-07
0.00110933
-5.72063e-07
1.01991e-06
5.16915e-08
6.17961e-07
-6.87305e-07
-1.34478e-06
-3.41492e-08
-0.00110808
-1.5247e-06
1.0551e-06
5.21299e-07
0.00110898
-5.7185e-07
1.01263e-06
4.76146e-08
6.19774e-07
-6.89961e-07
-1.34552e-06
-3.08212e-08
-0.000271907
1.55809e-06
1.52514e-06
-5.7947e-07
-5.84236e-07
0.000269988
-1.03636e-06
-1.0378e-06
-0.00111371
5.32392e-07
5.33079e-07
0.00111472
-0.001112
-1.53028e-06
1.03483e-06
5.09151e-07
0.00111287
-5.65571e-07
1.03478e-06
6.53384e-08
6.29428e-07
-6.80098e-07
-1.34611e-06
-2.39167e-08
-0.00111165
-1.52462e-06
1.03355e-06
5.07837e-07
0.00111252
-5.64083e-07
1.02851e-06
6.51286e-08
6.31385e-07
-6.82205e-07
-1.34266e-06
-2.17951e-08
-0.000272628
1.55995e-06
1.5256e-06
-5.74273e-07
-5.80079e-07
0.000270697
-1.01284e-06
-1.01338e-06
-0.0011177
5.22696e-07
5.23099e-07
0.00111868
-0.00111543
-1.5302e-06
1.01265e-06
4.96541e-07
0.00111626
-5.61319e-07
1.04766e-06
7.66254e-08
6.47747e-07
-6.63725e-07
-1.33846e-06
-1.35175e-08
-0.00111507
-1.52519e-06
1.01362e-06
4.99145e-07
0.00111591
-5.59942e-07
1.03998e-06
7.37041e-08
6.44831e-07
-6.67618e-07
-1.33842e-06
-1.12826e-08
-0.000273294
1.56214e-06
1.52751e-06
-5.70449e-07
-5.76445e-07
0.000271352
-9.9613e-07
-9.94593e-07
-0.00112158
5.14892e-07
5.1645e-07
0.00112254
-0.00111871
-1.53361e-06
9.9097e-07
4.91855e-07
0.0011195
-5.63272e-07
1.05831e-06
7.86982e-08
6.68712e-07
-6.50395e-07
-1.32721e-06
-2.16645e-09
-0.00111835
-1.52724e-06
9.90814e-07
4.89749e-07
0.00111914
-5.61082e-07
1.0537e-06
7.98313e-08
6.64776e-07
-6.53362e-07
-1.33062e-06
5.97088e-10
-0.000273911
1.56229e-06
1.52911e-06
-5.63172e-07
-5.67137e-07
0.00027195
-9.62638e-07
-9.67971e-07
-0.00112537
5.02343e-07
5.0072e-07
0.0011263
-0.00112183
-1.53154e-06
9.61745e-07
4.67757e-07
0.00112257
-5.57849e-07
1.0748e-06
9.30497e-08
6.79468e-07
-6.29276e-07
-1.31521e-06
1.25314e-08
-0.00112147
-1.52434e-06
9.66151e-07
4.64387e-07
0.00112222
-5.53901e-07
1.07195e-06
9.86405e-08
6.72443e-07
-6.34105e-07
-1.32233e-06
1.31875e-08
-0.000274465
1.55843e-06
1.52295e-06
-5.47073e-07
-5.53534e-07
0.000272484
-9.50112e-07
-9.47323e-07
-0.00112906
4.93332e-07
4.93481e-07
0.00112997
-0.00112477
-1.53567e-06
9.32479e-07
4.54277e-07
0.00112549
-5.56833e-07
1.08615e-06
1.00378e-07
6.88276e-07
-6.0998e-07
-1.30526e-06
2.43804e-08
-0.00112441
-1.52834e-06
9.46809e-07
4.65046e-07
0.00112512
-5.50545e-07
1.0786e-06
1.00352e-07
6.84353e-07
-6.1727e-07
-1.30576e-06
2.13782e-08
-0.000274949
1.55824e-06
1.52362e-06
-5.40966e-07
-5.47184e-07
0.000272956
-9.55585e-07
-9.48972e-07
-0.00113262
4.9399e-07
4.99167e-07
0.00113353
-0.0011275
-1.54652e-06
9.55079e-07
4.98919e-07
0.00112817
-5.6364e-07
1.07476e-06
7.56645e-08
6.92844e-07
-5.95733e-07
-1.29332e-06
3.07519e-08
-0.00112716
-1.52078e-06
9.28814e-07
4.44845e-07
0.00112783
-5.35372e-07
1.08773e-06
9.8473e-08
6.96071e-07
-6.01574e-07
-1.29425e-06
3.25542e-08
-0.000275365
1.55932e-06
1.52281e-06
-5.32915e-07
-5.40474e-07
0.000273356
-8.68735e-07
-8.77119e-07
-0.00113618
4.58518e-07
4.53589e-07
0.00113702
-0.00113016
-1.50525e-06
8.88063e-07
4.01919e-07
0.00113072
-4.92346e-07
1.12848e-06
1.45779e-07
7.04384e-07
-5.83559e-07
-1.27669e-06
3.32087e-08
-0.00112979
-1.53482e-06
9.05923e-07
4.55031e-07
0.00113043
-5.40298e-07
1.09069e-06
1.07459e-07
7.06131e-07
-5.83776e-07
-1.28547e-06
3.84676e-08
-0.000275671
1.55592e-06
1.51667e-06
-5.21873e-07
-5.31375e-07
0.000273651
-9.86062e-07
-9.91294e-07
-0.00113961
5.48007e-07
5.3556e-07
0.00114051
-0.00113258
-1.5587e-06
9.10962e-07
4.69462e-07
0.00113317
-5.5321e-07
1.08186e-06
9.29247e-08
7.31772e-07
-5.58179e-07
-1.25249e-06
4.86952e-08
-0.00113215
-1.54396e-06
9.65242e-07
5.33157e-07
0.00113278
-5.76355e-07
1.04427e-06
6.55979e-09
7.15745e-07
-5.62294e-07
-1.27199e-06
5.97728e-08
-0.000275914
1.62219e-06
1.58254e-06
-5.74969e-07
-5.84784e-07
0.000273869
-9.1832e-07
-8.59783e-07
-0.00114316
4.20227e-07
4.93787e-07
0.00114402
-0.00113479
-1.59379e-06
9.75656e-07
6.99447e-07
0.00113532
-6.1569e-07
1.01069e-06
-1.49472e-08
7.37294e-07
-5.40211e-07
-1.24446e-06
5.90889e-08
-0.00113452
-1.52863e-06
8.61794e-07
4.86061e-07
0.00113503
-4.84057e-07
1.11279e-06
1.70727e-07
6.92724e-07
-5.73492e-07
-1.26806e-06
1.29207e-08
-0.000276037
1.47998e-06
1.46069e-06
-4.59529e-07
-4.53244e-07
0.000274009
-7.17482e-07
-7.3367e-07
-0.00114633
3.60125e-07
3.67669e-07
0.00114706
-0.00113677
-1.42808e-06
8.03952e-07
1.97978e-07
0.00113726
-3.62879e-07
1.22443e-06
2.83112e-07
6.69952e-07
-5.82246e-07
-1.28708e-06
-5.07364e-09
-0.00113662
-1.38664e-06
7.46998e-07
1.50191e-07
0.00113711
-3.73902e-07
1.21645e-06
1.9729e-07
7.09821e-07
-5.49905e-07
-1.25983e-06
6.19471e-08
-0.000276403
1.52386e-06
1.49927e-06
-4.91984e-07
-4.88959e-07
0.00027436
-8.53296e-07
-8.75063e-07
-0.00114941
5.04716e-07
4.47215e-07
0.00115019
-0.00113882
-1.4422e-06
7.10084e-07
2.56239e-07
0.00113936
-4.54548e-07
1.16799e-06
1.22531e-07
7.47396e-07
-5.09315e-07
-1.21414e-06
8.28931e-08
-0.00113868
-1.55815e-06
8.60909e-07
4.94639e-07
0.00113906
-5.08677e-07
1.10139e-06
1.55889e-07
7.41887e-07
-5.2165e-07
-1.20029e-06
4.94851e-08
-0.000276487
1.5571e-06
1.50471e-06
-4.85066e-07
-5.02554e-07
0.000274413
-7.71156e-07
-7.97649e-07
-0.00115243
4.04917e-07
3.85974e-07
0.0011532
-0.00114074
-1.57038e-06
9.24525e-07
5.87418e-07
0.0011411
-5.39577e-07
1.07277e-06
8.40562e-08
7.30063e-07
-5.03862e-07
-1.20323e-06
5.29089e-08
-0.00114008
-1.53403e-06
9.0788e-07
5.69994e-07
0.00114056
-5.77412e-07
1.04623e-06
-1.70992e-08
7.38827e-07
-4.88915e-07
-1.20964e-06
8.79926e-08
-0.000276516
1.51145e-06
1.47246e-06
-4.588e-07
-4.70104e-07
0.000274461
-7.74322e-07
-7.69286e-07
-0.00115551
4.40296e-07
4.43032e-07
0.00115617
-0.00114218
-1.39314e-06
6.07925e-07
1.30609e-07
0.00114257
-3.35973e-07
1.23766e-06
2.64215e-07
7.3649e-07
-5.0459e-07
-1.19433e-06
6.08292e-08
-0.00114175
-1.38553e-06
6.17042e-07
1.4753e-07
0.00114205
-2.88858e-07
1.24803e-06
3.14642e-07
7.19939e-07
-5.19606e-07
-1.20307e-06
4.47731e-08
-0.000276503
1.5147e-06
1.48355e-06
-4.59527e-07
-4.61492e-07
0.000274426
-8.36686e-07
-8.26956e-07
-0.00115816
4.40139e-07
4.73359e-07
0.00115891
-0.00114361
-1.5949e-06
8.91931e-07
7.23801e-07
0.00114397
-6.09326e-07
1.02499e-06
-2.52503e-09
7.5487e-07
-4.5669e-07
-1.1604e-06
7.75441e-08
-0.00114308
-1.49437e-06
7.36011e-07
4.47632e-07
0.0011435
-5.17429e-07
1.10412e-06
6.9751e-08
7.57692e-07
-4.60271e-07
-1.16536e-06
9.48215e-08
-0.00027673
1.39723e-06
1.36275e-06
-3.56902e-07
-3.64729e-07
0.000274692
-4.90377e-07
-5.96461e-07
-0.00116094
3.31607e-07
1.49256e-07
0.00116155
-0.00114486
-1.25697e-06
5.02947e-07
-2.62283e-07
0.00114511
-1.57719e-07
1.35433e-06
3.79591e-07
7.41887e-07
-4.74893e-07
-1.16842e-06
9.14483e-08
-0.00114433
-1.51907e-06
9.85507e-07
5.87205e-07
0.00114447
-5.19747e-07
1.04227e-06
5.77902e-10
7.60825e-07
-4.40262e-07
-1.14664e-06
1.13003e-07
-0.00027637
1.69178e-06
1.62946e-06
-5.37943e-07
-5.60643e-07
0.000274148
-9.71266e-07
-8.40047e-07
-0.00116364
4.37542e-07
6.3851e-07
0.00116438
-0.00114604
-1.70865e-06
9.83726e-07
1.09044e-06
0.0011461
-6.95562e-07
9.16635e-07
-6.34294e-08
8.05229e-07
-4.06765e-07
-1.08061e-06
1.00494e-07
-0.00114504
-1.35015e-06
4.86483e-07
1.10402e-07
0.00114517
-2.0162e-07
1.31116e-06
4.6224e-07
7.12672e-07
-5.06694e-07
-1.15779e-06
-4.51449e-10
-0.000275893
1.30672e-06
1.30747e-06
-3.16669e-07
-2.98782e-07
0.000273894
-6.56393e-07
-5.82223e-07
-0.00116609
3.21179e-07
4.10424e-07
0.0011666
-0.00114583
-1.29535e-06
5.46157e-07
-7.19866e-09
0.001146
-2.36151e-07
1.30349e-06
3.23009e-07
7.35885e-07
-4.62678e-07
-1.14931e-06
6.99873e-08
-0.00114612
-1.35172e-06
4.94883e-07
7.7444e-08
0.00114662
-4.6491e-07
1.17243e-06
3.0004e-09
8.12842e-07
-3.54415e-07
-1.09611e-06
2.11032e-07
-0.000276258
1.54581e-06
1.53625e-06
-4.79679e-07
-4.63104e-07
0.000274118
-7.0939e-07
-7.6935e-07
-0.00116841
4.32679e-07
3.618e-07
0.00116909
-0.00114693
-1.53457e-06
7.96502e-07
5.83663e-07
0.00114711
-5.63696e-07
1.02436e-06
-2.17461e-08
8.12375e-07
-3.61844e-07
-1.06446e-06
1.49e-07
-0.00114716
-1.52564e-06
8.78088e-07
6.11058e-07
0.00114698
-4.10896e-07
1.12037e-06
2.25138e-07
7.6459e-07
-4.4819e-07
-1.08607e-06
5.28416e-08
-0.000275437
1.47944e-06
1.42362e-06
-3.67203e-07
-3.91605e-07
0.000273293
-5.79763e-07
-5.99029e-07
-0.00117094
3.57671e-07
3.26526e-07
0.00117143
-0.00114711
-1.30658e-06
5.41069e-07
9.98137e-08
0.00114707
-2.00426e-07
1.30584e-06
3.84026e-07
7.36359e-07
-4.54084e-07
-1.11631e-06
5.19578e-08
-0.00114686
-1.36694e-06
5.78505e-07
3.19327e-07
0.00114701
-4.26961e-07
1.1441e-06
4.76735e-08
8.05508e-07
-3.5526e-07
-1.07228e-06
1.81146e-07
-0.00027498
1.41881e-06
1.38033e-06
-3.71636e-07
-3.79084e-07
0.000272931
-5.4612e-07
-6.48221e-07
-0.00117308
3.83661e-07
2.40792e-07
0.00117365
-0.0011475
-1.46524e-06
5.94867e-07
5.08745e-07
0.00114768
-5.31611e-07
1.06381e-06
-1.3924e-08
8.27047e-07
-3.21382e-07
-1.03653e-06
1.8462e-07
-0.00114675
-1.48063e-06
8.10056e-07
7.01995e-07
0.00114648
-4.08317e-07
1.11414e-06
1.78907e-07
7.70472e-07
-4.20364e-07
-1.06441e-06
7.25273e-08
-0.000275384
1.36292e-06
1.29718e-06
-3.01121e-07
-3.31178e-07
0.000273356
-5.16557e-07
-4.52266e-07
-0.00117509
1.85852e-07
2.74973e-07
0.0011756
-0.00114753
-1.31725e-06
6.12212e-07
1.25616e-07
0.00114735
-2.33776e-07
1.27297e-06
3.26665e-07
7.70851e-07
-4.06694e-07
-1.06761e-06
9.42886e-08
-0.00114637
-1.2851e-06
4.86529e-07
-4.68851e-08
0.00114659
-2.90077e-07
1.24685e-06
2.25136e-07
7.76156e-07
-3.83941e-07
-1.07162e-06
1.2714e-07
-0.000275012
1.47905e-06
1.46664e-06
-3.87147e-07
-3.73845e-07
0.000272827
-7.82404e-07
-7.30394e-07
-0.00117718
4.94126e-07
5.69135e-07
0.00117763
-0.00114731
-1.45327e-06
6.37504e-07
4.86486e-07
0.00114734
-4.85631e-07
1.07739e-06
3.92873e-08
8.31522e-07
-3.21095e-07
-1.00707e-06
1.64152e-07
-0.00114711
-1.37748e-06
5.27209e-07
2.46911e-07
0.00114716
-3.60271e-07
1.17064e-06
1.76666e-07
8.08898e-07
-3.571e-07
-1.02584e-06
1.4165e-07
-0.000274341
1.43161e-06
1.40996e-06
-3.68893e-07
-3.6585e-07
0.000272234
-4.32621e-07
-4.03269e-07
-0.00117882
1.92109e-07
2.40654e-07
0.00117923
-0.0011468
-1.34806e-06
6.1993e-07
3.51546e-07
0.00114661
-3.08724e-07
1.20502e-06
2.2775e-07
7.73435e-07
-3.83047e-07
-1.0459e-06
9.8878e-08
-0.00114705
-1.35782e-06
5.55692e-07
3.19419e-07
0.00114696
-3.46012e-07
1.17714e-06
1.77509e-07
8.02897e-07
-3.53189e-07
-1.02421e-06
1.41263e-07
-0.000274062
1.29849e-06
1.27213e-06
-2.64777e-07
-2.63815e-07
0.00027202
-6.22034e-07
-6.83217e-07
-0.00118054
4.8456e-07
3.96105e-07
0.00118096
-0.00114661
-1.30568e-06
3.8006e-07
5.37178e-08
0.00114673
-3.00161e-07
1.22673e-06
2.19046e-07
8.0606e-07
-3.37647e-07
-1.01559e-06
1.48857e-07
-0.00114663
-1.36319e-06
5.43228e-07
3.32406e-07
0.00114653
-3.54587e-07
1.16514e-06
1.6872e-07
8.11446e-07
-3.40235e-07
-1.00546e-06
1.44517e-07
-0.0002741
1.44271e-06
1.38956e-06
-3.58808e-07
-3.78392e-07
0.000272005
-4.58737e-07
-4.74162e-07
-0.00118205
3.16024e-07
2.92797e-07
0.00118238
-0.00114693
-1.34521e-06
5.0014e-07
2.30711e-07
0.00114686
-3.32328e-07
1.1903e-06
1.91834e-07
8.15753e-07
-3.28199e-07
-9.96731e-07
1.50813e-07
-0.00114625
-1.31168e-06
4.9148e-07
1.76058e-07
0.00114616
-3.0009e-07
1.20839e-06
2.13384e-07
8.06218e-07
-3.38049e-07
-1.00541e-06
1.47141e-07
-0.000273645
1.34872e-06
1.31066e-06
-2.8458e-07
-2.92419e-07
0.000271563
-4.28883e-07
-4.21106e-07
-0.00118341
2.28779e-07
2.40632e-07
0.00118379
-0.00114642
-1.3325e-06
5.02396e-07
2.58845e-07
0.00114626
-3.2252e-07
1.19368e-06
1.95569e-07
8.19034e-07
-3.19469e-07
-9.85518e-07
1.53878e-07
-0.00114588
-1.33133e-06
4.93291e-07
2.47313e-07
0.00114576
-3.27363e-07
1.18251e-06
1.86833e-07
8.18333e-07
-3.22785e-07
-9.85722e-07
1.5489e-07
-0.000273487
1.35224e-06
1.32073e-06
-3.01272e-07
-3.04027e-07
0.000271419
-4.93795e-07
-4.87027e-07
-0.00118487
3.3798e-07
3.47131e-07
0.00118517
-0.00114583
-1.31632e-06
4.51241e-07
2.0414e-07
0.00114569
-3.08048e-07
1.2019e-06
2.05482e-07
8.22269e-07
-3.10449e-07
-9.7558e-07
1.58662e-07
-0.00114538
-1.30712e-06
4.44508e-07
1.90379e-07
0.00114526
-3.01982e-07
1.1991e-06
2.05297e-07
8.19898e-07
-3.14708e-07
-9.77372e-07
1.59242e-07
-0.000273245
1.3481e-06
1.31488e-06
-2.90284e-07
-2.94632e-07
0.000271167
-3.82128e-07
-3.76821e-07
-0.00118596
2.36984e-07
2.46025e-07
0.00118624
-0.00114527
-1.3071e-06
4.36161e-07
1.84767e-07
0.00114513
-3.02033e-07
1.20426e-06
2.07756e-07
8.25213e-07
-3.02934e-07
-9.66621e-07
1.61808e-07
-0.0011449
-1.29722e-06
4.22577e-07
1.68454e-07
0.00114478
-2.96348e-07
1.201e-06
2.04257e-07
8.26058e-07
-3.03538e-07
-9.66349e-07
1.67757e-07
-0.000273009
1.33399e-06
1.30085e-06
-2.80878e-07
-2.85162e-07
0.00027094
-4.42628e-07
-4.54287e-07
-0.00118704
3.23318e-07
3.24967e-07
0.00118729
-0.00114471
-1.29796e-06
3.87833e-07
1.71313e-07
0.00114457
-2.95836e-07
1.20517e-06
2.06872e-07
8.33093e-07
-2.89484e-07
-9.53625e-07
1.72485e-07
-0.00114437
-1.29181e-06
3.88462e-07
1.68194e-07
0.00114423
-2.88709e-07
1.2027e-06
2.1115e-07
8.31571e-07
-2.94633e-07
-9.54272e-07
1.72509e-07
-0.000272786
1.32495e-06
1.29046e-06
-2.72184e-07
-2.7747e-07
0.00027072
-3.52082e-07
-3.51729e-07
-0.00118792
2.53778e-07
2.54946e-07
0.00118811
-0.00114412
-1.29033e-06
3.79348e-07
1.59502e-07
0.00114396
-2.83871e-07
1.2094e-06
2.12834e-07
8.33487e-07
-2.86026e-07
-9.46877e-07
1.71518e-07
-0.00114378
-1.28604e-06
3.77628e-07
1.61141e-07
0.00114363
-2.87146e-07
1.20172e-06
2.09029e-07
8.35074e-07
-2.86395e-07
-9.45308e-07
1.76521e-07
-0.000272587
1.31641e-06
1.28193e-06
-2.65924e-07
-2.71158e-07
0.000270526
-3.545e-07
-3.57532e-07
-0.00118871
2.60992e-07
2.56078e-07
0.0011889
-0.0011435
-1.27817e-06
3.44966e-07
1.22456e-07
0.00114335
-2.75503e-07
1.21404e-06
2.15698e-07
8.38109e-07
-2.76906e-07
-9.37976e-07
1.78119e-07
-0.00114314
-1.27602e-06
3.5571e-07
1.39902e-07
0.00114298
-2.78285e-07
1.20555e-06
2.13918e-07
8.37511e-07
-2.80143e-07
-9.37708e-07
1.79446e-07
-0.000272384
1.31335e-06
1.27771e-06
-2.61527e-07
-2.67663e-07
0.000270322
-3.08674e-07
-3.06718e-07
-0.00118941
2.30725e-07
2.34417e-07
0.00118956
-0.0011429
-1.27572e-06
3.32773e-07
1.28721e-07
0.00114274
-2.73802e-07
1.21169e-06
2.15222e-07
8.40337e-07
-2.71061e-07
-9.30238e-07
1.79868e-07
-0.00114252
-1.26456e-06
3.22133e-07
1.08874e-07
0.00114237
-2.67717e-07
1.21169e-06
2.20897e-07
8.39969e-07
-2.73688e-07
-9.30691e-07
1.83265e-07
-0.000272175
1.30139e-06
1.26764e-06
-2.54164e-07
-2.58908e-07
0.000270119
-3.00252e-07
-3.00359e-07
-0.00118998
2.38382e-07
2.39189e-07
0.0011901
-0.00114227
-1.2634e-06
2.90458e-07
1.01664e-07
0.00114212
-2.6294e-07
1.21766e-06
2.20809e-07
8.45038e-07
-2.62325e-07
-9.21518e-07
1.86515e-07
-0.00114193
-1.26081e-06
2.91312e-07
1.06152e-07
0.00114177
-2.66464e-07
1.20959e-06
2.18252e-07
8.46354e-07
-2.63755e-07
-9.20042e-07
1.90366e-07
-0.000271994
1.29651e-06
1.26189e-06
-2.50094e-07
-2.55538e-07
0.000269942
-2.76417e-07
-2.79865e-07
-0.00119043
2.3341e-07
2.28168e-07
0.00119052
-0.00114169
-1.25829e-06
2.61298e-07
9.16591e-08
0.00114153
-2.57785e-07
1.21935e-06
2.24742e-07
8.49477e-07
-2.55111e-07
-9.12879e-07
1.91104e-07
-0.0011413
-1.25639e-06
2.7342e-07
1.07451e-07
0.00114114
-2.61863e-07
1.21017e-06
2.2139e-07
8.48008e-07
-2.59033e-07
-9.13535e-07
1.91614e-07
-0.000271823
1.28588e-06
1.25037e-06
-2.41328e-07
-2.47317e-07
0.000269776
-2.38815e-07
-2.36263e-07
-0.00119077
1.9902e-07
2.02586e-07
0.00119084
-0.00114107
-1.25422e-06
2.48055e-07
8.10498e-08
0.00114092
-2.55119e-07
1.21981e-06
2.26714e-07
8.50875e-07
-2.51173e-07
-9.0707e-07
1.91822e-07
-0.00114068
-1.24453e-06
2.39509e-07
6.86402e-08
0.00114054
-2.51626e-07
1.21717e-06
2.28413e-07
8.50629e-07
-2.53111e-07
-9.07403e-07
1.95557e-07
-0.000271668
1.28453e-06
1.25096e-06
-2.41607e-07
-2.46185e-07
0.00026962
5.22146e-06
5.23231e-06
0.000260567
-0.000259171
-5.9319e-06
-5.91777e-06
5.08158e-06
0.000261409
-0.000258686
-5.96204e-06
3.37916e-06
-5.22153e-06
5.07656e-06
0.000261442
-0.000258702
-5.97005e-06
3.37432e-06
5.22214e-06
0.000260579
-0.000259173
-5.90328e-06
-5.94651e-06
5.07467e-06
0.000261473
-0.000258717
-5.96755e-06
3.369e-06
5.0814e-06
-5.22378e-06
0.000261417
-0.000258686
3.38421e-06
-5.97225e-06
1.07111e-05
1.06174e-05
-0.000252649
-0.000256079
-0.000255118
-0.000255118
-6.41734e-06
-4.12515e-06
-6.6623e-06
-6.41771e-06
-4.12609e-06
-6.66784e-06
-5.06963e-06
0.00104223
1.06707e-05
1.06227e-05
-0.000252651
-0.000256076
-0.000255121
-0.000255121
-6.41995e-06
-4.12544e-06
-6.66504e-06
-6.41517e-06
-4.12088e-06
-6.66025e-06
-5.06927e-06
0.00104211
1.0731e-05
1.06833e-05
-0.000252643
-0.000256071
-0.000255118
-0.000255113
-6.41981e-06
-4.13282e-06
-6.66497e-06
-6.42001e-06
-4.12309e-06
-6.66258e-06
-5.08397e-06
-5.07209e-06
0.00104217
1.07263e-05
1.06276e-05
-0.000252646
-0.000256074
-0.000255118
-0.000255118
-6.4147e-06
-4.12777e-06
-6.65997e-06
-6.42014e-06
-4.12593e-06
-6.6653e-06
-0.000258712
-5.95991e-06
3.36395e-06
-5.22138e-06
0.000261404
-0.000258684
3.37919e-06
-5.96199e-06
5.22453e-06
0.000260559
-0.000259158
-5.9056e-06
-5.94373e-06
-0.000258697
3.37148e-06
-5.95704e-06
-5.23228e-06
0.000261471
-0.000258712
3.36649e-06
-5.96502e-06
-0.000259168
-5.93177e-06
-5.9178e-06
5.61757e-06
5.65479e-06
-4.87837e-06
-4.87222e-06
0.000259045
-7.80483e-07
-7.44604e-07
0.000261544
-0.000259462
-2.82244e-07
-2.74851e-07
7.09202e-06
0.00105882
-4.53008e-06
-1.57833e-06
-2.21273e-06
-2.57666e-06
-6.60588e-06
-7.05009e-06
-3.17074e-06
-0.000263264
-0.000259684
-0.000262793
-5.62803e-06
1.4555e-05
7.03143e-06
0.00105919
-4.5492e-06
-1.57072e-06
-2.21588e-06
-2.58756e-06
-6.63741e-06
-7.067e-06
-3.1864e-06
-0.000263338
-0.000259715
-0.000262834
0.00106192
2.02402e-06
-0.00106086
9.73754e-07
-1.71809e-06
-1.69104e-07
-6.92239e-07
-1.46542e-06
-3.07567e-07
-8.28055e-07
3.43209e-07
7.88558e-07
0.00106234
2.02437e-06
-0.00106128
9.68687e-07
-1.7285e-06
-1.61624e-07
-6.97733e-07
-1.47114e-06
-3.07691e-07
-8.28425e-07
3.48652e-07
-4.87646e-06
-4.86912e-06
0.000259055
-7.47274e-07
0.000261569
-0.000259482
-2.79603e-07
-2.71994e-07
6.81326e-06
0.00105966
-4.55437e-06
-1.63766e-06
-2.22893e-06
-2.58588e-06
-6.61991e-06
-7.06237e-06
-3.18164e-06
-0.000263359
-0.000259742
-0.000262847
-5.62773e-06
1.45894e-05
7.12546e-06
0.00105896
-4.54903e-06
-1.58079e-06
-2.2209e-06
-2.58953e-06
-6.6367e-06
-7.06586e-06
-3.18603e-06
-0.000259684
-0.000263315
-0.000262806
0.00106294
2.03159e-06
-0.00106187
9.6225e-07
-1.68817e-06
-1.71614e-07
-6.92518e-07
-1.46846e-06
-3.07676e-07
-8.25819e-07
3.45589e-07
7.77939e-07
0.00106203
2.0346e-06
-0.00106099
9.84064e-07
-1.71815e-06
-1.66665e-07
-6.92435e-07
-1.46824e-06
-3.0509e-07
-8.308e-07
3.43166e-07
1.45864e-05
7.11279e-06
0.00105877
-4.53002e-06
-1.57822e-06
-2.2101e-06
-2.57669e-06
-6.60589e-06
-3.17078e-06
-7.04776e-06
-0.000259679
-0.000263259
-0.000262788
2.03091e-06
-0.00106161
9.67484e-07
-1.68807e-06
-1.68949e-07
-6.89598e-07
-1.46575e-06
-3.10044e-07
3.40401e-07
-8.25536e-07
7.77916e-07
0.00106182
2.03422e-06
-0.00106078
9.84098e-07
-1.71806e-06
-1.66543e-07
-6.92195e-07
-1.4681e-06
-3.07525e-07
-8.28008e-07
3.45763e-07
-4.88128e-06
-4.86889e-06
0.000259035
-7.39132e-07
0.000261521
-0.000259444
-2.82651e-07
-2.77218e-07
1.44875e-05
6.83175e-06
0.00105961
-4.55451e-06
-1.63767e-06
-2.22898e-06
-2.5857e-06
-6.61978e-06
-3.18155e-06
-7.05964e-06
-0.000259732
-0.000263356
-0.000262842
2.03595e-06
-0.00106131
9.83006e-07
-1.68559e-06
-1.71497e-07
-6.92266e-07
-1.46262e-06
-3.05023e-07
3.40442e-07
-8.28064e-07
7.3923e-07
0.00106284
2.0366e-06
-0.00106179
9.72566e-07
-1.68313e-06
-1.71641e-07
-6.89942e-07
-1.4657e-06
-3.07518e-07
-8.28232e-07
3.40603e-07
-0.000259459
-2.79775e-07
-2.77427e-07
1.63935e-06
1.60415e-06
-7.10558e-07
-7.19029e-07
0.00025973
-8.66326e-07
-8.27645e-07
0.000262778
-0.000260667
-2.12622e-07
-2.05062e-07
8.29635e-07
0.00106319
-6.56442e-07
8.17754e-07
-1.43308e-07
3.7817e-07
-8.00541e-07
-1.39713e-06
-2.90475e-07
-1.64463e-06
1.63227e-06
8.24419e-07
0.00106362
-6.59288e-07
8.25836e-07
-1.43301e-07
3.83584e-07
-8.03541e-07
-1.40284e-06
-2.88177e-07
0.00106713
1.383e-06
-0.0010658
7.02151e-07
-1.59181e-06
-1.03513e-07
-6.28646e-07
-1.35468e-06
-2.4899e-07
-7.76784e-07
4.22457e-07
8.71709e-07
0.00106757
1.38329e-06
-0.00106623
6.97086e-07
-1.59715e-06
-1.03594e-07
-6.28896e-07
-1.35763e-06
-2.4919e-07
-7.77139e-07
4.25131e-07
-7.11049e-07
-7.18355e-07
0.000259748
-8.32905e-07
0.000262804
-0.000260679
-2.12657e-07
-2.0754e-07
8.23144e-07
0.00106421
-6.54078e-07
7.81854e-07
-1.45763e-07
3.80613e-07
-8.0359e-07
-1.40027e-06
-2.88115e-07
-1.63935e-06
1.63749e-06
8.297e-07
0.0010633
-6.59275e-07
8.17861e-07
-1.43343e-07
3.78179e-07
-8.03271e-07
-1.39733e-06
-2.87987e-07
0.00106816
1.38439e-06
-0.00106684
7.01116e-07
-1.5539e-06
-1.0843e-07
-6.23647e-07
-1.35239e-06
-2.46592e-07
-7.7714e-07
4.25054e-07
8.61123e-07
0.00106725
1.38305e-06
-0.00106591
7.02241e-07
-1.58922e-06
-1.06065e-07
-6.28802e-07
-1.35479e-06
-2.49016e-07
-7.76858e-07
4.25123e-07
1.63205e-06
8.29736e-07
0.0010631
-6.59063e-07
8.15186e-07
-1.45743e-07
3.78104e-07
-8.03188e-07
-2.88027e-07
-1.39724e-06
1.384e-06
-0.00106657
7.06475e-07
-1.5617e-06
-1.10835e-07
-6.23503e-07
-1.35227e-06
-2.46644e-07
4.24884e-07
-7.76944e-07
8.63716e-07
0.00106704
1.37774e-06
-0.0010657
7.02258e-07
-1.58914e-06
-1.05953e-07
-6.28626e-07
-1.35474e-06
-2.49069e-07
-7.76798e-07
4.22387e-07
-7.13816e-07
-7.15798e-07
0.000259709
-8.24833e-07
0.000262753
-0.000260646
-2.12851e-07
-2.075e-07
1.63355e-06
8.18032e-07
0.00106413
-6.54136e-07
7.76438e-07
-1.50875e-07
3.7548e-07
-8.00806e-07
-2.92947e-07
-1.39476e-06
1.38398e-06
-0.00106625
7.01392e-07
-1.55117e-06
-1.10844e-07
-6.23458e-07
-1.3467e-06
-2.49047e-07
4.16843e-07
-7.76863e-07
8.27501e-07
0.00106807
1.38438e-06
-0.00106674
7.01193e-07
-1.55137e-06
-1.1101e-07
-6.2373e-07
-1.35491e-06
-2.49066e-07
-7.79701e-07
4.22364e-07
-0.000260654
-2.12738e-07
-2.07647e-07
1.58996e-06
1.55722e-06
-6.7224e-07
-6.80571e-07
0.000260984
-8.90458e-07
-8.54259e-07
0.00026406
-0.000261937
-1.91611e-07
-1.86552e-07
6.9123e-07
0.00106848
-6.29696e-07
8.72083e-07
-9.92301e-08
4.24421e-07
-7.77671e-07
-1.35443e-06
-2.47612e-07
-1.59532e-06
1.36144e-06
7.0183e-07
0.00106891
-6.29907e-07
8.77452e-07
-9.93554e-08
4.30112e-07
-7.80559e-07
-1.36e-06
-2.42694e-07
0.00107249
1.34949e-06
-0.00107117
6.75806e-07
-1.58992e-06
-8.55524e-08
-6.24957e-07
-1.36675e-06
-2.29993e-07
-7.78021e-07
4.33839e-07
8.95925e-07
0.00107292
1.34977e-06
-0.00107159
6.76019e-07
-1.59522e-06
-8.31225e-08
-6.27717e-07
-1.37543e-06
-2.24894e-07
-7.83676e-07
4.42345e-07
-6.75275e-07
-6.77487e-07
0.000261005
-8.56952e-07
0.000264088
-0.000261963
-1.89002e-07
-1.83807e-07
6.90233e-07
0.00106952
-6.27361e-07
8.35985e-07
-1.04176e-07
4.27067e-07
-7.80558e-07
-1.35995e-06
-2.42707e-07
-1.58735e-06
1.36126e-06
6.9656e-07
0.00106859
-6.2986e-07
8.6948e-07
-9.93138e-08
4.27322e-07
-7.8025e-07
-1.35714e-06
-2.42545e-07
0.00107352
1.3508e-06
-0.0010722
6.74813e-07
-1.55436e-06
-8.79842e-08
-6.22508e-07
-1.36997e-06
-2.24918e-07
-7.83653e-07
4.3673e-07
8.90572e-07
0.0010726
1.34959e-06
-0.00107127
6.7598e-07
-1.58989e-06
-8.3081e-08
-6.27657e-07
-1.36992e-06
-2.24727e-07
-7.83414e-07
4.36892e-07
1.36624e-06
6.91323e-07
0.00106839
-6.27009e-07
8.66791e-07
-1.04168e-07
4.27185e-07
-7.8021e-07
-2.45115e-07
-1.3571e-06
1.35048e-06
-0.00107193
6.74949e-07
-1.55691e-06
-8.78503e-08
-6.22289e-07
-1.36746e-06
-2.2738e-07
4.33983e-07
-7.80978e-07
8.8517e-07
0.0010724
1.34938e-06
-0.00107107
6.75921e-07
-1.5846e-06
-8.798e-08
-6.2217e-07
-1.3672e-06
-2.27305e-07
-7.80701e-07
4.34132e-07
-6.7537e-07
-6.80012e-07
0.000260969
-8.5151e-07
0.000264039
-0.000261921
-1.91718e-07
-1.83816e-07
1.36251e-06
6.95518e-07
0.00106942
-6.22088e-07
8.2794e-07
-1.09179e-07
4.24636e-07
-7.77908e-07
-2.45088e-07
-1.35477e-06
1.35037e-06
-0.0010716
6.75017e-07
-1.55161e-06
-9.03438e-08
-6.19598e-07
-1.36709e-06
-2.24814e-07
4.33987e-07
-7.83434e-07
8.51553e-07
0.00107344
1.35086e-06
-0.00107211
6.74892e-07
-1.55183e-06
-9.044e-08
-6.19912e-07
-1.36488e-06
-2.2735e-07
-7.81081e-07
4.31305e-07
-0.000261934
-1.89086e-07
-1.83929e-07
1.58853e-06
1.55301e-06
-6.61955e-07
-6.67624e-07