/*--------------------------------*- C++ -*----------------------------------*\
| =========                 |                                                 |
| \\      /  F ield         | OpenFOAM: The Open Source CFD Toolbox           |
|  \\    /   O peration     | Version:  v2012                                 |
|   \\  /    A nd           | Website:  www.openfoam.com                      |
|    \\/     M anipulation  |                                                 |
\*---------------------------------------------------------------------------*/
FoamFile
{
    version     2.0;
    format      ascii;
    class       volVectorField;
    location    "500";
    object      U;
}
// * * * * * * * * * * * * * * * * * * * * * * * * * * * * * * * * * * * * * //

dimensions      [0 1 -1 0 0 0 0];


internalField   nonuniform List<vector> 
85864
(
(0.000107958 0.000107892 0.100299)
(-0.000190195 0.00011927 0.100385)
(0.000119341 -0.000190187 0.100385)
(-0.000239593 -0.000239612 0.100397)
(9.4279e-05 9.42317e-05 0.10086)
(-0.000158938 9.68065e-05 0.100942)
(9.68112e-05 -0.000158935 0.100942)
(-0.000201047 -0.000201098 0.100968)
(9.54251e-05 9.54136e-05 0.10137)
(-0.000155796 9.34676e-05 0.101449)
(9.34565e-05 -0.000155804 0.101449)
(-0.000201982 -0.000202039 0.101471)
(9.38877e-05 9.38751e-05 0.101892)
(-0.000152047 9.00838e-05 0.101957)
(9.00956e-05 -0.000152051 0.101957)
(-0.000198956 -0.000198999 0.101964)
(9.1134e-05 9.11277e-05 0.102398)
(-0.00014629 8.55651e-05 0.102446)
(8.55798e-05 -0.000146294 0.102446)
(-0.00019355 -0.000193593 0.102432)
(8.81549e-05 8.81553e-05 0.102885)
(-0.000140616 8.15793e-05 0.102912)
(8.15895e-05 -0.000140616 0.102912)
(-0.000188059 -0.000188135 0.102871)
(8.53064e-05 8.53215e-05 0.103353)
(-0.000135515 7.84171e-05 0.103354)
(7.84148e-05 -0.000135515 0.103354)
(-0.000183666 -0.000183727 0.103281)
(8.28019e-05 8.28722e-05 0.103803)
(-0.000131058 7.59653e-05 0.103774)
(7.60789e-05 -0.0001311 0.103774)
(-0.00018033 -0.000180457 0.103664)
(8.07291e-05 8.06374e-05 0.104237)
(-0.000127289 7.41848e-05 0.104174)
(7.41674e-05 -0.000127277 0.104175)
(-0.000177837 -0.000177799 0.104022)
(7.86788e-05 7.86045e-05 0.104658)
(-0.000124105 7.29081e-05 0.104557)
(7.28569e-05 -0.000124065 0.104557)
(-0.000177084 -0.000177273 0.104359)
(7.71161e-05 7.71626e-05 0.105066)
(-0.000121237 7.1823e-05 0.104924)
(7.17577e-05 -0.000121197 0.104924)
(-0.0001759 -0.000176304 0.104672)
(7.56531e-05 7.56944e-05 0.105463)
(-0.000118586 7.05402e-05 0.105276)
(7.083e-05 -0.000118647 0.105276)
(-0.000176055 -0.000175607 0.104966)
(7.43691e-05 7.43229e-05 0.105851)
(-0.000116149 6.90819e-05 0.105614)
(6.92931e-05 -0.000116225 0.105614)
(-0.000175329 -0.000175389 0.105238)
(7.27732e-05 7.27586e-05 0.106228)
(-0.000114001 6.80311e-05 0.105938)
(6.82618e-05 -0.000114075 0.105937)
(-0.000175421 -0.00017561 0.105489)
(7.16027e-05 7.17571e-05 0.106596)
(-0.000111431 6.73771e-05 0.106247)
(6.71776e-05 -0.000111245 0.106247)
(-0.000174632 -0.000173904 0.105718)
(6.9765e-05 6.95851e-05 0.106955)
(-0.000108265 6.45613e-05 0.106542)
(6.41975e-05 -0.000108842 0.106541)
(-0.000170876 -0.000171118 0.105922)
(6.82016e-05 6.85161e-05 0.107305)
(-0.000104971 6.281e-05 0.106819)
(6.49417e-05 -0.000107209 0.106818)
(-0.000170024 -0.000170308 0.1061)
(6.73911e-05 6.80462e-05 0.107642)
(-0.00010859 7.1331e-05 0.107076)
(6.34378e-05 -0.000105833 0.107078)
(-0.000168607 -0.000169383 0.10625)
(6.31443e-05 6.25081e-05 0.107977)
(-0.000102962 5.75701e-05 0.107324)
(6.25304e-05 -0.00010181 0.107326)
(-0.000168447 -0.0001702 0.106359)
(7.38591e-05 7.30928e-05 0.108306)
(-0.00010192 6.65116e-05 0.107556)
(7.98499e-05 -0.000108972 0.107549)
(-0.000190507 -0.000191962 0.106442)
(6.05453e-05 6.69105e-05 0.108643)
(-0.000107701 9.54827e-05 0.107762)
(6.54873e-05 -9.8747e-05 0.107768)
(-0.000140893 -0.000135569 0.106486)
(4.98852e-05 4.93441e-05 0.108936)
(-9.37184e-05 2.83369e-05 0.107947)
(3.00412e-05 -9.33027e-05 0.107967)
(-0.000156091 -0.000151916 0.106619)
(6.58615e-05 6.23852e-05 0.109232)
(-8.84171e-05 4.41341e-05 0.108144)
(6.34756e-05 -9.21987e-05 0.10816)
(-0.000158286 -0.000163888 0.10664)
(5.5924e-05 5.35187e-05 0.109517)
(-0.000101275 7.99401e-05 0.108319)
(8.35624e-05 -0.000103684 0.108295)
(-0.000143492 -0.000145693 0.10665)
(5.71325e-05 5.76031e-05 0.109807)
(-7.52407e-05 2.13885e-05 0.108457)
(2.16644e-05 -7.46138e-05 0.108445)
(-0.000147003 -0.000145485 0.106635)
(5.9036e-05 6.10032e-05 0.110061)
(-0.000100013 9.7634e-05 0.10859)
(6.20506e-05 -8.75879e-05 0.108577)
(-9.56251e-05 -9.61553e-05 0.106725)
(4.19336e-05 2.84842e-05 0.110319)
(-6.71802e-05 -1.59661e-05 0.108704)
(9.20178e-05 -0.000105149 0.108683)
(-0.000202013 -0.000209895 0.106549)
(6.22716e-05 7.82389e-05 0.110583)
(-9.70513e-05 0.000132909 0.108811)
(8.82795e-06 -5.80172e-05 0.10875)
(-7.49281e-05 -6.44671e-05 0.106403)
(4.19199e-05 4.93545e-05 0.110803)
(-6.64336e-05 4.17535e-06 0.108789)
(3.15611e-05 -7.11771e-05 0.10887)
(-0.000160826 -0.000150563 0.106517)
(5.83051e-05 5.24479e-05 0.111031)
(-8.55045e-05 8.97183e-05 0.1089)
(7.65195e-05 -8.25291e-05 0.108937)
(-0.000114233 -0.000122641 0.106199)
(4.65064e-05 4.38529e-05 0.111264)
(-6.00154e-05 8.68803e-06 0.108902)
(5.00721e-05 -6.97263e-05 0.108924)
(-0.0001079 -0.000108364 0.106039)
(4.96953e-05 3.84831e-05 0.111471)
(-6.98251e-05 7.44294e-05 0.108953)
(7.63877e-05 -7.61809e-05 0.108892)
(-6.94969e-05 -8.07357e-05 0.106197)
(2.79315e-05 3.48339e-05 0.111657)
(-6.03481e-05 1.70088e-05 0.108937)
(6.89801e-06 -5.89658e-05 0.10888)
(-0.000129247 -0.000121306 0.106024)
(6.54585e-05 7.15868e-05 0.111855)
(-6.54008e-05 6.98258e-05 0.108929)
(3.93458e-05 -5.7064e-05 0.108943)
(-0.000106649 -0.000102645 0.105783)
(2.85555e-05 3.22034e-05 0.112008)
(-6.11175e-05 3.84013e-05 0.108865)
(4.01486e-05 -5.70023e-05 0.108931)
(-6.01529e-05 -5.70607e-05 0.105687)
(6.00665e-05 5.31229e-05 0.112172)
(-4.58494e-05 1.46946e-05 0.108864)
(4.34536e-05 -5.41257e-05 0.10889)
(-0.000103976 -0.000110126 0.105693)
(4.08587e-05 3.89696e-05 0.112311)
(-5.0281e-05 3.33443e-05 0.108887)
(2.49212e-05 -4.8984e-05 0.108854)
(-7.1004e-05 -7.23985e-05 0.10552)
(3.26964e-05 3.35926e-05 0.112443)
(-4.73756e-05 3.3271e-05 0.108832)
(3.27677e-05 -4.74558e-05 0.108818)
(-7.74861e-05 -7.63564e-05 0.105464)
(4.43965e-05 4.5129e-05 0.112578)
(-4.26191e-05 2.74676e-05 0.108778)
(2.62062e-05 -4.25476e-05 0.10877)
(-7.38936e-05 -7.34463e-05 0.105369)
(3.22967e-05 3.29553e-05 0.11268)
(-4.02432e-05 2.50808e-05 0.108725)
(2.38557e-05 -3.96046e-05 0.108724)
(-6.87918e-05 -6.83067e-05 0.105282)
(4.17215e-05 4.18125e-05 0.112782)
(-3.55047e-05 2.33842e-05 0.108672)
(2.27168e-05 -3.55327e-05 0.108673)
(-6.52114e-05 -6.52034e-05 0.105198)
(3.3226e-05 3.32869e-05 0.112862)
(-3.35088e-05 2.11171e-05 0.108615)
(2.16319e-05 -3.3431e-05 0.108617)
(-6.22627e-05 -6.22326e-05 0.105123)
(3.40734e-05 3.3704e-05 0.112937)
(-3.00621e-05 1.73936e-05 0.108556)
(1.91162e-05 -3.06848e-05 0.108556)
(-6.04469e-05 -6.08189e-05 0.105047)
(3.013e-05 3.03901e-05 0.113001)
(-2.81773e-05 1.77101e-05 0.108498)
(1.53767e-05 -2.7428e-05 0.108497)
(-5.68208e-05 -5.65945e-05 0.104969)
(3.05001e-05 3.05316e-05 0.113054)
(-2.42232e-05 1.44164e-05 0.108439)
(1.49909e-05 -2.41677e-05 0.108441)
(-5.48732e-05 -5.4919e-05 0.104901)
(2.92557e-05 2.88484e-05 0.113095)
(-2.10535e-05 1.26456e-05 0.108384)
(1.42537e-05 -2.19502e-05 0.108381)
(-5.08488e-05 -5.11891e-05 0.104838)
(2.51615e-05 2.54268e-05 0.113127)
(-1.93125e-05 1.11489e-05 0.108325)
(9.98784e-06 -1.88925e-05 0.108323)
(-5.09605e-05 -5.06727e-05 0.104779)
(0.000134959 0.000134949 0.100282)
(0.000124248 0.000152867 0.100229)
(-0.00012424 0.000152848 0.100229)
(-0.000134956 0.000134918 0.100282)
(0.000152896 0.0001242 0.100229)
(0.000152868 -0.000124217 0.100229)
(9.08046e-05 9.07529e-05 0.100151)
(-9.07948e-05 9.07504e-05 0.100151)
(9.07789e-05 -9.07987e-05 0.100151)
(-9.07766e-05 -9.07967e-05 0.100151)
(-0.000152892 0.000124197 0.100229)
(-0.000152878 -0.000124212 0.100229)
(0.000134949 -0.000134968 0.100282)
(0.000124201 -0.000152897 0.100229)
(-0.000124198 -0.000152879 0.100229)
(-0.000134959 -0.000134941 0.100282)
(0.000239635 0.000239615 0.100397)
(0.000111303 0.000111177 0.100892)
(0.000119392 0.000190088 0.100385)
(-0.000119343 0.000190129 0.100385)
(8.91023e-05 0.000147213 0.100823)
(-8.9064e-05 0.00014721 0.100823)
(-0.000239644 0.000239563 0.100397)
(-0.000111268 0.000111147 0.100892)
(0.000190231 0.000119289 0.100385)
(0.00019017 -0.000119349 0.100385)
(0.00014719 8.90737e-05 0.100823)
(0.000147222 -8.9095e-05 0.100823)
(-0.000190151 -0.000119353 0.100385)
(-0.000147159 8.9075e-05 0.100823)
(-0.000147179 -8.9089e-05 0.100823)
(0.000239567 -0.000239657 0.100397)
(0.000111258 -0.000111271 0.100892)
(-0.000119321 -0.000190216 0.100385)
(8.90759e-05 -0.000147148 0.100823)
(-8.90554e-05 -0.000147174 0.100823)
(-0.000111253 -0.000111273 0.100892)
(0.000201135 0.000200968 0.100968)
(0.000105727 0.000105641 0.101395)
(9.68197e-05 0.000158993 0.100941)
(-9.67927e-05 0.000158989 0.100941)
(9.42004e-05 0.000156671 0.10132)
(-9.41994e-05 0.000156672 0.10132)
(-0.000201096 0.000200935 0.100967)
(-0.000105707 0.000105633 0.101395)
(0.000158972 9.68003e-05 0.100942)
(0.00015899 -9.68128e-05 0.100942)
(0.000156627 9.42038e-05 0.10132)
(0.000156667 -9.42067e-05 0.10132)
(-0.000158967 -9.68078e-05 0.100942)
(-0.000156623 9.42123e-05 0.10132)
(-0.000156645 -9.4197e-05 0.10132)
(0.000201043 -0.000201106 0.100968)
(0.000105686 -0.000105696 0.101395)
(-9.6793e-05 -0.000158961 0.100942)
(9.42007e-05 -0.000156624 0.10132)
(-9.42069e-05 -0.000156644 0.10132)
(-0.000105704 -0.000105707 0.101395)
(0.000202058 0.000201932 0.101471)
(9.66248e-05 9.65597e-05 0.101893)
(9.34485e-05 0.000155855 0.101449)
(-9.34549e-05 0.000155851 0.101449)
(9.11475e-05 0.000153338 0.101832)
(-9.11379e-05 0.000153325 0.101832)
(-0.000202042 0.000201909 0.101471)
(-9.65985e-05 9.65442e-05 0.101893)
(0.000155804 9.34628e-05 0.101449)
(0.000155846 -9.34587e-05 0.101449)
(0.000153277 9.11513e-05 0.101832)
(0.000153309 -9.11363e-05 0.101832)
(-0.000155828 -9.34524e-05 0.101449)
(-0.000153271 9.11435e-05 0.101832)
(-0.000153308 -9.11405e-05 0.101832)
(0.000201968 -0.000202045 0.101471)
(9.65723e-05 -9.65995e-05 0.101893)
(-9.34649e-05 -0.000155826 0.101449)
(9.11517e-05 -0.000153275 0.101832)
(-9.11388e-05 -0.000153283 0.101832)
(-9.66059e-05 -9.66282e-05 0.101893)
(0.000198964 0.000198889 0.101964)
(8.60786e-05 8.60382e-05 0.102366)
(9.00947e-05 0.000152108 0.101957)
(-9.00796e-05 0.000152099 0.101957)
(8.66925e-05 0.000147837 0.102326)
(-8.66852e-05 0.000147826 0.102326)
(-0.000198982 0.000198883 0.101964)
(-8.60704e-05 8.60328e-05 0.102366)
(0.000152054 9.00936e-05 0.101957)
(0.000152085 -9.00772e-05 0.101957)
(0.000147776 8.66965e-05 0.102326)
(0.000147808 -8.66793e-05 0.102326)
(-0.000152088 -9.00825e-05 0.101957)
(-0.000147769 8.66904e-05 0.102326)
(-0.000147812 -8.66835e-05 0.102326)
(0.000198902 -0.000199003 0.101964)
(8.60546e-05 -8.6122e-05 0.102366)
(-9.00842e-05 -0.000152058 0.101957)
(8.67029e-05 -0.000147773 0.102326)
(-8.66761e-05 -0.00014777 0.102326)
(-8.60677e-05 -8.61073e-05 0.102366)
(0.000193553 0.00019351 0.102432)
(7.60211e-05 7.59735e-05 0.102812)
(8.55792e-05 0.000146345 0.102446)
(-8.55639e-05 0.000146347 0.102446)
(8.25127e-05 0.000142063 0.102797)
(-8.25243e-05 0.000142068 0.102797)
(-0.000193604 0.000193525 0.102432)
(-7.59995e-05 7.60229e-05 0.102812)
(0.000146295 8.55754e-05 0.102446)
(0.000146323 -8.555e-05 0.102446)
(0.000141999 8.25179e-05 0.102798)
(0.000142047 -8.25164e-05 0.102798)
(-0.000146337 -8.55663e-05 0.102446)
(-0.000142004 8.25379e-05 0.102797)
(-0.000142035 -8.25102e-05 0.102798)
(0.000193524 -0.00019359 0.102432)
(7.61339e-05 -7.61638e-05 0.102812)
(-8.55683e-05 -0.000146294 0.102446)
(8.25501e-05 -0.000142011 0.102798)
(-8.25009e-05 -0.000141989 0.102798)
(-7.61105e-05 -7.61298e-05 0.102812)
(0.000188034 0.000188031 0.10287)
(6.70711e-05 6.69722e-05 0.10323)
(8.16163e-05 0.000140685 0.102912)
(-8.15838e-05 0.000140686 0.102912)
(7.9101e-05 0.000136756 0.103245)
(-7.91013e-05 0.000136755 0.103245)
(-0.000188356 0.000188274 0.10287)
(-6.68714e-05 6.68692e-05 0.103229)
(0.000140639 8.16136e-05 0.102912)
(0.000140643 -8.15545e-05 0.102912)
(0.000136691 7.91066e-05 0.103245)
(0.000136766 -7.91062e-05 0.103245)
(-0.000140682 -8.15942e-05 0.102912)
(-0.0001367 7.91164e-05 0.103245)
(-0.000136758 -7.91317e-05 0.103245)
(0.000188242 -0.000188308 0.102871)
(6.69787e-05 -6.70739e-05 0.103229)
(-8.15963e-05 -0.000140629 0.102912)
(7.91702e-05 -0.000136717 0.103245)
(-7.91284e-05 -0.000136702 0.103245)
(-6.72589e-05 -6.72603e-05 0.103229)
(0.000183385 0.000183399 0.103281)
(5.96134e-05 5.92841e-05 0.10362)
(7.84212e-05 0.000135567 0.103354)
(-7.84018e-05 0.000135577 0.103354)
(7.6525e-05 0.000132199 0.103671)
(-7.63977e-05 0.000132114 0.103671)
(-0.000183769 0.000183638 0.10328)
(-5.8937e-05 5.90043e-05 0.103621)
(0.000135531 7.84256e-05 0.103354)
(0.000135513 -7.83678e-05 0.103354)
(0.000132139 7.65246e-05 0.103671)
(0.000132098 -7.64129e-05 0.103671)
(-0.000135541 -7.83736e-05 0.103354)
(-0.00013208 7.64166e-05 0.103671)
(-0.000132165 -7.64988e-05 0.103671)
(0.000183829 -0.000183797 0.10328)
(5.85225e-05 -5.89989e-05 0.103621)
(-7.83769e-05 -0.000135487 0.103354)
(7.64228e-05 -0.000132059 0.103671)
(-7.6497e-05 -0.000132125 0.103671)
(-5.91362e-05 -5.91038e-05 0.10362)
(0.000180362 0.000180073 0.103664)
(5.22171e-05 5.26094e-05 0.103987)
(7.58885e-05 0.000131075 0.103774)
(-7.59869e-05 0.000131128 0.103774)
(7.47139e-05 0.00012826 0.104076)
(-7.47211e-05 0.000128313 0.104076)
(-0.000179696 0.000179539 0.103664)
(-5.29155e-05 5.29282e-05 0.103987)
(0.000131019 7.59297e-05 0.103774)
(0.000131144 -7.5958e-05 0.103774)
(0.000128256 7.4655e-05 0.104076)
(0.000128254 -7.4691e-05 0.104076)
(-0.000131076 -7.59374e-05 0.103774)
(-0.00012821 7.46565e-05 0.104076)
(-0.000128236 -7.45896e-05 0.104076)
(0.000179669 -0.000179969 0.103664)
(5.29666e-05 -5.27493e-05 0.103988)
(-7.5939e-05 -0.000131007 0.103774)
(7.46213e-05 -0.000128212 0.104076)
(-7.45535e-05 -0.000128151 0.104076)
(-5.24595e-05 -5.24607e-05 0.103988)
(0.000178476 0.000178212 0.104022)
(4.6978e-05 4.71411e-05 0.104333)
(7.43714e-05 0.000127431 0.104174)
(-7.42477e-05 0.000127343 0.104174)
(7.32194e-05 0.000124876 0.104463)
(-7.32405e-05 0.00012492 0.104463)
(-0.000178174 0.000178265 0.104023)
(-4.63011e-05 4.65452e-05 0.104333)
(0.00012734 7.42542e-05 0.104175)
(0.000127316 -7.42605e-05 0.104174)
(0.000124813 7.32243e-05 0.104463)
(0.000124856 -7.33055e-05 0.104463)
(-0.000127398 -7.42945e-05 0.104174)
(-0.0001249 7.31939e-05 0.104463)
(-0.000124928 -7.32838e-05 0.104463)
(0.000178047 -0.000178195 0.104023)
(4.67265e-05 -4.64197e-05 0.104332)
(-7.42543e-05 -0.000127352 0.104174)
(7.31963e-05 -0.00012488 0.104463)
(-7.32159e-05 -0.00012488 0.104463)
(-4.73129e-05 -4.72335e-05 0.104332)
(0.000176544 0.000176827 0.104359)
(4.1628e-05 4.1228e-05 0.104656)
(7.30109e-05 0.000124177 0.104557)
(-7.30685e-05 0.000124176 0.104557)
(7.21138e-05 0.000122012 0.104834)
(-7.21583e-05 0.000122041 0.104834)
(-0.000176747 0.00017679 0.104358)
(-4.20432e-05 4.14337e-05 0.104657)
(0.00012413 7.29099e-05 0.104557)
(0.000124165 -7.30034e-05 0.104557)
(0.000121925 7.19957e-05 0.104834)
(0.000121959 -7.20172e-05 0.104834)
(-0.000124079 -7.28237e-05 0.104557)
(-0.000121928 7.19998e-05 0.104834)
(-0.000121904 -7.20199e-05 0.104834)
(0.00017697 -0.000177323 0.104358)
(4.15786e-05 -4.1806e-05 0.104657)
(-7.27633e-05 -0.000123999 0.104558)
(7.19892e-05 -0.000121875 0.104834)
(-7.18925e-05 -0.000121867 0.104834)
(-4.08967e-05 -4.0983e-05 0.104657)
(0.00017656 0.000176471 0.104672)
(3.64993e-05 3.63874e-05 0.104961)
(7.17992e-05 0.000121364 0.104924)
(-7.17203e-05 0.000121335 0.104924)
(7.1031e-05 0.000119351 0.10519)
(-7.0811e-05 0.000119367 0.10519)
(-0.000176174 0.00017592 0.104673)
(-3.61628e-05 3.65943e-05 0.104961)
(0.000121299 7.18271e-05 0.104924)
(0.000121273 -7.17628e-05 0.104924)
(0.000119299 7.08992e-05 0.10519)
(0.000119404 -7.09282e-05 0.10519)
(-0.000121393 -7.18592e-05 0.104924)
(-0.000119267 7.09167e-05 0.10519)
(-0.000119304 -7.08632e-05 0.10519)
(0.000175965 -0.00017576 0.104673)
(3.57758e-05 -3.61441e-05 0.104961)
(-7.18018e-05 -0.000121283 0.104924)
(7.08824e-05 -0.000119304 0.10519)
(-7.09096e-05 -0.000119153 0.10519)
(-3.64221e-05 -3.65854e-05 0.104961)
(0.000176026 0.000175461 0.104966)
(3.13564e-05 3.14887e-05 0.105245)
(7.08684e-05 0.000118877 0.105276)
(-7.06377e-05 0.00011867 0.105277)
(6.98848e-05 0.00011699 0.105531)
(-6.98022e-05 0.000116876 0.105531)
(-0.000175391 0.000175932 0.104967)
(-3.1503e-05 3.17133e-05 0.105247)
(0.00011882 7.08414e-05 0.105277)
(0.000118707 -7.06628e-05 0.105276)
(0.000116906 6.99553e-05 0.105531)
(0.000116834 -6.94703e-05 0.105531)
(-0.000118799 -7.08201e-05 0.105276)
(-0.000116973 6.97775e-05 0.105531)
(-0.000116862 -6.96564e-05 0.105531)
(0.000175915 -0.000176004 0.104966)
(3.12764e-05 -3.05236e-05 0.105247)
(-7.08352e-05 -0.000118755 0.105276)
(6.96847e-05 -0.000116733 0.105531)
(-6.96998e-05 -0.000116726 0.105531)
(-3.11597e-05 -3.06692e-05 0.105246)
(0.00017608 0.000176388 0.105238)
(2.70813e-05 2.69412e-05 0.105509)
(6.98413e-05 0.00011648 0.105614)
(-6.91988e-05 0.000116159 0.105614)
(6.85995e-05 0.000114371 0.105858)
(-6.82556e-05 0.000114244 0.105859)
(-0.00017522 0.000175119 0.105239)
(-2.58584e-05 2.64356e-05 0.105513)
(0.000116412 6.97899e-05 0.105614)
(0.000116309 -6.94654e-05 0.105614)
(0.000114364 6.84729e-05 0.105858)
(0.000114446 -6.82673e-05 0.105858)
(-0.000116359 -6.97547e-05 0.105614)
(-0.000114337 6.83443e-05 0.105859)
(-0.000114485 -6.85453e-05 0.105858)
(0.000174907 -0.000174532 0.105239)
(2.56305e-05 -2.523e-05 0.105512)
(-6.94885e-05 -0.000116289 0.105614)
(6.83702e-05 -0.000114333 0.105858)
(-6.83614e-05 -0.00011445 0.105858)
(-2.62763e-05 -2.62652e-05 0.105509)
(0.000175993 0.000175475 0.10549)
(2.20091e-05 2.16353e-05 0.105754)
(6.83853e-05 0.000113854 0.105938)
(-6.82393e-05 0.000113639 0.105938)
(6.78977e-05 0.000112146 0.10617)
(-6.77194e-05 0.0001124 0.10617)
(-0.00017382 0.0001738 0.105491)
(-2.23634e-05 2.16458e-05 0.105754)
(0.000113713 6.822e-05 0.105938)
(0.000114011 -6.85182e-05 0.105937)
(0.000112211 6.77567e-05 0.10617)
(0.000112313 -6.71702e-05 0.106171)
(-0.00011374 -6.82122e-05 0.105937)
(-0.000112028 6.73829e-05 0.106171)
(-0.000112494 -6.74782e-05 0.106171)
(0.000174059 -0.000173646 0.10549)
(2.14802e-05 -2.08413e-05 0.105754)
(-6.80203e-05 -0.000113585 0.105938)
(6.72049e-05 -0.000111703 0.106171)
(-6.77788e-05 -0.000112176 0.10617)
(-2.10285e-05 -2.0122e-05 0.105754)
(0.000175794 0.000175517 0.105718)
(1.73776e-05 1.68018e-05 0.105973)
(6.7401e-05 0.000111686 0.106247)
(-6.6764e-05 0.000111512 0.106247)
(6.67336e-05 0.000109249 0.106467)
(-6.63348e-05 0.000109287 0.106469)
(-0.000174965 0.000174409 0.105719)
(-1.77754e-05 1.72419e-05 0.105976)
(0.000111436 6.75211e-05 0.106247)
(0.000111799 -6.72152e-05 0.106246)
(0.000109871 6.65966e-05 0.106468)
(0.000109328 -6.60175e-05 0.106469)
(-0.000112036 -6.843e-05 0.106245)
(-0.000108852 6.60386e-05 0.10647)
(-0.000109294 -6.53988e-05 0.106469)
(0.000174144 -0.000173797 0.105718)
(1.74431e-05 -1.66947e-05 0.105976)
(-6.80593e-05 -0.000111988 0.106246)
(6.5791e-05 -0.000109703 0.106469)
(-6.50948e-05 -0.000109442 0.106468)
(-1.35434e-05 -1.26905e-05 0.105977)
(0.000174609 0.000174591 0.105921)
(1.37438e-05 1.32045e-05 0.106169)
(6.50781e-05 0.000107965 0.106541)
(-6.4598e-05 0.000108 0.106541)
(6.83089e-05 0.000109419 0.106747)
(-6.75677e-05 0.000108602 0.106749)
(-0.000173492 0.00017322 0.105924)
(-1.64032e-05 1.64713e-05 0.106169)
(0.000108691 6.51471e-05 0.106541)
(0.000108893 -6.52829e-05 0.106541)
(0.000108717 6.81667e-05 0.106749)
(0.000107776 -6.54609e-05 0.10675)
(-0.000109332 -6.68e-05 0.106539)
(-0.000107885 6.69937e-05 0.106749)
(-0.000107956 -6.51833e-05 0.10675)
(0.000172562 -0.000172518 0.105924)
(1.49868e-05 -1.32609e-05 0.106171)
(-6.59388e-05 -0.000109728 0.106539)
(6.60556e-05 -0.000107425 0.10675)
(-6.50383e-05 -0.000107475 0.10675)
(-9.11306e-06 -8.84445e-06 0.106171)
(0.00017608 0.000175818 0.106098)
(4.87194e-06 2.32979e-06 0.106341)
(6.66535e-05 0.000107057 0.106817)
(-6.30443e-05 0.000105899 0.106818)
(6.42672e-05 0.000106469 0.107014)
(-6.87136e-05 0.000108281 0.107013)
(-0.000175538 0.000175051 0.1061)
(-1.07009e-05 1.18479e-05 0.10634)
(0.000106851 6.72473e-05 0.106817)
(0.000107424 -6.47506e-05 0.106818)
(0.000107402 6.25477e-05 0.107015)
(0.000104378 -6.09378e-05 0.107014)
(-0.000107314 -6.56264e-05 0.106817)
(-0.00010841 6.83051e-05 0.107013)
(-0.000105445 -6.18719e-05 0.107014)
(0.000173114 -0.000172088 0.106102)
(5.17239e-06 -4.98456e-06 0.10634)
(-6.58351e-05 -0.000106666 0.106818)
(6.15302e-05 -0.000103648 0.107015)
(-6.17339e-05 -0.000105164 0.107014)
(-2.79715e-06 -2.88734e-06 0.10634)
(0.000171 0.000168236 0.10625)
(5.98523e-06 5.68283e-06 0.106471)
(6.94803e-05 0.000109405 0.107075)
(-7.22534e-05 0.000108937 0.107075)
(6.08998e-05 0.000100944 0.107269)
(-5.56813e-05 0.00010018 0.10727)
(-0.000175634 0.000175864 0.10625)
(2.06455e-06 -7.77172e-07 0.106474)
(0.000108915 6.92844e-05 0.107077)
(0.000105449 -6.32485e-05 0.107078)
(0.000100679 5.97293e-05 0.107269)
(0.000106519 -7.43526e-05 0.107263)
(-0.000106686 -6.66191e-05 0.107078)
(-0.000100164 5.58851e-05 0.10727)
(-0.000102604 -6.70134e-05 0.107265)
(0.000168569 -0.000167946 0.106251)
(1.37977e-05 -1.57082e-05 0.106464)
(-6.58207e-05 -0.000107907 0.107078)
(7.21972e-05 -0.000108328 0.107264)
(-6.41082e-05 -0.000103034 0.107266)
(-8.05163e-06 -9.22045e-06 0.106468)
(0.000164927 0.000163567 0.106364)
(2.59596e-05 2.52436e-05 0.106575)
(5.65824e-05 0.000100001 0.107326)
(-5.87361e-05 0.000101931 0.107325)
(7.92391e-05 0.000107283 0.107493)
(-7.47327e-05 0.000102583 0.107496)
(-0.000158427 0.00015883 0.106366)
(-2.28613e-05 2.04009e-05 0.106567)
(0.000100708 5.52059e-05 0.107328)
(0.00010147 -6.39763e-05 0.107325)
(0.0001086 7.89613e-05 0.107494)
(0.000103533 -6.28247e-05 0.107491)
(-0.000100062 -5.80634e-05 0.107325)
(-0.000105819 7.32109e-05 0.107497)
(-0.000110804 -8.23591e-05 0.107493)
(0.000175346 -0.000177021 0.106353)
(-3.12453e-06 5.00955e-06 0.106578)
(-5.62713e-05 -0.000100258 0.107327)
(6.32298e-05 -0.000103794 0.107491)
(-8.16816e-05 -0.000112367 0.107491)
(-2.10933e-05 -2.09138e-05 0.106572)
(0.000192875 0.000192787 0.106447)
(-3.10973e-07 2.34788e-06 0.106598)
(8.32649e-05 0.000108454 0.107553)
(-6.56147e-05 0.00010006 0.107556)
(6.153e-05 0.000107898 0.107713)
(-7.3206e-05 0.000113038 0.107709)
(-0.000183397 0.000182477 0.106437)
(-1.17179e-05 1.63441e-05 0.106615)
(0.000108644 8.2989e-05 0.107553)
(0.000107438 -8.01935e-05 0.107548)
(0.000103064 6.46487e-05 0.107717)
(0.000114092 -7.95966e-05 0.107718)
(-0.000109852 -8.68002e-05 0.107551)
(-0.000104081 8.01408e-05 0.107711)
(-9.80272e-05 -4.70194e-05 0.107722)
(0.000171937 -0.000170877 0.106452)
(2.28705e-05 -1.74286e-05 0.106584)
(-8.3945e-05 -0.000110965 0.107551)
(8.57612e-05 -0.000106872 0.107719)
(-5.06075e-05 -9.36497e-05 0.107723)
(1.78007e-05 2.29022e-05 0.106621)
(0.000155891 0.000159855 0.106463)
(-3.08556e-05 -3.13663e-05 0.106737)
(5.14421e-05 0.000104647 0.10777)
(-8.67124e-05 0.000117067 0.107762)
(3.32361e-05 8.56753e-05 0.107927)
(-6.50216e-05 9.48064e-05 0.1079)
(-0.000182626 0.000187898 0.106469)
(5.12157e-06 -1.36278e-05 0.106588)
(0.00010003 5.85474e-05 0.107774)
(0.000106127 -5.89811e-05 0.107767)
(8.69356e-05 3.65178e-05 0.107926)
(7.54667e-05 -1.17654e-05 0.107921)
(-9.67488e-05 -4.1685e-05 0.107771)
(-0.000102566 5.57523e-05 0.107902)
(-9.88914e-05 -4.63555e-05 0.107932)
(0.000168995 -0.00016325 0.106435)
(-6.21062e-05 5.67943e-05 0.106734)
(-4.79294e-05 -9.10829e-05 0.107774)
(5.321e-06 -8.13102e-05 0.107921)
(-5.43075e-05 -9.54778e-05 0.107931)
(8.78986e-06 1.47287e-05 0.106768)
(0.000134328 0.00013252 0.106595)
(1.45446e-05 1.00452e-05 0.106848)
(3.69257e-05 8.62547e-05 0.107977)
(-3.88612e-05 8.47566e-05 0.107943)
(7.73051e-05 9.83658e-05 0.108116)
(-1.99959e-05 8.43589e-05 0.108093)
(-0.000139219 0.000128879 0.106436)
(4.931e-05 -4.75486e-05 0.106805)
(8.8713e-05 3.65581e-05 0.107973)
(8.73068e-05 -3.84509e-05 0.107965)
(0.000100103 6.90284e-05 0.108115)
(0.000101713 -8.81477e-05 0.108118)
(-0.000101476 -5.62536e-05 0.107979)
(-8.28257e-05 2.10689e-05 0.108094)
(-9.452e-05 -7.13702e-05 0.108113)
(0.000109832 -0.000116833 0.106602)
(3.79411e-05 -3.69774e-05 0.106825)
(-5.89883e-05 -9.92222e-05 0.107978)
(8.86019e-05 -0.000101803 0.108117)
(-6.27908e-05 -9.65898e-05 0.108115)
(2.8614e-07 -4.58758e-06 0.106815)
(0.000178075 0.000173616 0.106671)
(-2.53945e-05 -2.48621e-05 0.106831)
(7.3072e-05 9.62972e-05 0.108161)
(-4.17499e-05 9.1646e-05 0.108143)
(4.64602e-05 8.96832e-05 0.108274)
(-8.98665e-05 9.9292e-05 0.108282)
(-0.000127331 0.000129495 0.106657)
(-2.79706e-05 2.64711e-05 0.106852)
(9.65266e-05 6.81587e-05 0.108162)
(9.04251e-05 -6.41591e-05 0.108162)
(9.01664e-05 4.71338e-05 0.108274)
(9.81096e-05 -6.41748e-05 0.108251)
(-9.06409e-05 -6.67872e-05 0.108152)
(-0.000101999 8.76097e-05 0.108283)
(-8.97331e-05 -5.08633e-05 0.108271)
(0.00018348 -0.000182864 0.106635)
(-1.23481e-05 1.1236e-05 0.106777)
(-5.83042e-05 -9.58438e-05 0.108155)
(6.25066e-05 -9.92137e-05 0.108251)
(-4.8689e-05 -9.51087e-05 0.108273)
(2.01239e-05 1.65905e-05 0.106826)
(0.000138267 0.000137858 0.10665)
(-7.24022e-06 -8.31162e-06 0.10685)
(5.30329e-05 9.17486e-05 0.108316)
(-8.27663e-05 9.78453e-05 0.108317)
(6.27458e-05 9.27245e-05 0.108436)
(-3.05104e-05 8.56778e-05 0.108419)
(-0.000181387 0.000179043 0.106647)
(4.63555e-05 -4.24423e-05 0.106788)
(9.40307e-05 5.06707e-05 0.108316)
(0.000105394 -8.25926e-05 0.108294)
(9.3691e-05 6.11519e-05 0.108437)
(8.72621e-05 -4.27637e-05 0.108414)
(-9.24149e-05 -5.31498e-05 0.108316)
(-8.21738e-05 3.34792e-05 0.10842)
(-9.77289e-05 -6.82538e-05 0.108436)
(0.00016322 -0.000163194 0.106598)
(-2.96875e-05 3.39118e-05 0.106736)
(-5.2648e-05 -9.46515e-05 0.108316)
(4.60717e-05 -8.32954e-05 0.108416)
(-6.90614e-05 -9.49799e-05 0.108434)
(1.74155e-06 3.67286e-06 0.106832)
(0.000143911 0.000143768 0.106648)
(-8.17209e-06 -6.98346e-06 0.106834)
(5.02956e-05 8.77447e-05 0.108466)
(-1.6436e-05 8.00996e-05 0.108455)
(6.25092e-05 9.2167e-05 0.108548)
(-8.10116e-05 0.000100573 0.108558)
(-0.000107384 0.000112093 0.106607)
(-1.48543e-05 1.83779e-05 0.106892)
(8.71224e-05 5.10472e-05 0.108467)
(7.77964e-05 -1.84025e-05 0.108441)
(9.09547e-05 6.57347e-05 0.108548)
(9.13574e-05 -5.04845e-05 0.108537)
(-9.04296e-05 -5.57593e-05 0.108468)
(-9.78945e-05 8.84885e-05 0.108559)
(-6.6501e-05 3.91353e-06 0.108564)
(0.000109995 -0.000106218 0.106542)
(-1.94546e-05 2.24141e-05 0.106855)
(-5.65674e-05 -8.83839e-05 0.108467)
(5.7507e-05 -8.95447e-05 0.108538)
(1.57545e-06 -6.67355e-05 0.108565)
(7.22188e-05 7.20889e-05 0.10691)
(0.000158056 0.000158513 0.106627)
(-4.74417e-05 -5.53331e-05 0.106763)
(7.48765e-05 9.45332e-05 0.108582)
(-9.32206e-05 0.000101113 0.108592)
(3.29351e-05 7.05799e-05 0.108663)
(4.69738e-06 5.69036e-05 0.108681)
(-0.000182865 0.000185257 0.106678)
(8.52554e-05 -9.44096e-05 0.106815)
(9.46372e-05 7.67676e-05 0.108581)
(8.82801e-05 -5.73812e-05 0.108579)
(7.62128e-05 2.01829e-05 0.108662)
(8.58834e-05 -7.3078e-05 0.10867)
(-7.86915e-05 -2.77008e-05 0.108598)
(-6.2549e-05 -1.90946e-05 0.108682)
(-0.000105724 -0.000141873 0.108687)
(0.000151336 -0.000148975 0.106659)
(-1.1953e-05 3.88058e-06 0.10681)
(-2.91767e-05 -7.96236e-05 0.108597)
(5.88137e-05 -9.11559e-05 0.108671)
(-0.000129639 -0.000110972 0.108685)
(-7.4691e-05 -8.1656e-05 0.106818)
(9.64355e-05 8.77677e-05 0.106553)
(2.18e-05 2.66377e-05 0.106802)
(1.94925e-05 6.52418e-05 0.108682)
(8.87228e-07 6.09124e-05 0.108699)
(7.91068e-05 9.22009e-05 0.108767)
(-0.000120417 0.000101859 0.10879)
(-6.53938e-05 5.5602e-05 0.106617)
(-7.60033e-05 7.98529e-05 0.106851)
(7.13722e-05 3.68298e-06 0.108685)
(9.90148e-05 -0.000107019 0.108679)
(8.97306e-05 8.58298e-05 0.108777)
(8.43718e-05 -6.22921e-05 0.10873)
(-9.43558e-05 -0.000113928 0.108694)
(-0.000100023 0.000127742 0.108796)
(-6.99545e-05 -5.15295e-07 0.108711)
(0.000149145 -0.000157846 0.106579)
(-7.39179e-06 1.23017e-05 0.106538)
(-9.88952e-05 -0.000100481 0.108696)
(6.94226e-05 -8.23284e-05 0.108736)
(-6.88175e-06 -6.70135e-05 0.10872)
(8.04205e-05 8.69511e-05 0.106591)
(0.00018039 0.000189055 0.106566)
(-5.07616e-05 -3.66436e-05 0.106534)
(8.98014e-05 9.88781e-05 0.108796)
(-0.000119406 0.000102449 0.108809)
(3.74629e-05 8.17322e-05 0.108809)
(-2.76253e-05 7.68976e-05 0.108785)
(-0.00022129 0.000227686 0.106591)
(7.06566e-05 -6.69057e-05 0.106473)
(9.09828e-05 0.000108098 0.108802)
(6.36011e-05 4.88669e-06 0.108747)
(7.09892e-05 5.64355e-05 0.1088)
(5.42567e-05 3.52107e-05 0.108828)
(-7.25895e-05 6.09899e-06 0.10874)
(-7.31723e-05 3.21683e-05 0.108781)
(-8.3397e-05 -5.05815e-05 0.108851)
(9.72034e-05 -8.99874e-05 0.106322)
(-9.24288e-05 9.60181e-05 0.106799)
(-1.2111e-05 -6.45962e-05 0.108746)
(-3.04398e-05 -5.07613e-05 0.108823)
(-6.98137e-05 -7.27115e-05 0.108843)
(-8.78166e-06 5.17167e-06 0.106756)
(8.62278e-05 9.63273e-05 0.106304)
(1.11218e-06 -7.94615e-06 0.106515)
(2.97015e-05 7.47259e-05 0.108807)
(-6.89139e-06 6.68443e-05 0.108792)
(6.17069e-05 7.15286e-05 0.108857)
(-5.86283e-05 7.09076e-05 0.108873)
(-6.73471e-05 6.81728e-05 0.106261)
(-5.90694e-06 -3.74043e-07 0.106598)
(6.82871e-05 3.70109e-05 0.108798)
(7.14512e-05 -3.43919e-05 0.108873)
(7.66056e-05 4.90179e-05 0.108863)
(9.1649e-05 -0.00013084 0.108947)
(-8.74521e-05 -8.17755e-05 0.108866)
(-7.54623e-05 5.05046e-05 0.108878)
(-7.386e-05 -7.25873e-05 0.108862)
(9.1191e-05 -9.02654e-05 0.106621)
(5.1422e-05 -5.76491e-05 0.106642)
(-8.92025e-05 -8.09875e-05 0.108857)
(0.00012286 -9.62795e-05 0.108951)
(-6.01713e-05 -7.91134e-05 0.108869)
(1.44138e-05 5.08931e-06 0.106445)
(0.000146064 0.000137812 0.106284)
(-3.65694e-05 -3.54884e-05 0.106334)
(7.44274e-05 7.70589e-05 0.108876)
(-9.47572e-05 8.18777e-05 0.108897)