/*--------------------------------*- C++ -*----------------------------------*\
| =========                 |                                                 |
| \\      /  F ield         | OpenFOAM: The Open Source CFD Toolbox           |
|  \\    /   O peration     | Version:  v2012                                 |
|   \\  /    A nd           | Website:  www.openfoam.com                      |
|    \\/     M anipulation  |                                                 |
\*---------------------------------------------------------------------------*/
FoamFile
{
    version     2.0;
    format      ascii;
    class       volScalarField;
    location    "350";
    object      nut;
}
// * * * * * * * * * * * * * * * * * * * * * * * * * * * * * * * * * * * * * //

dimensions      [0 2 -1 0 0 0 0];


internalField   nonuniform List<scalar> 
85864
(
0.000233972
0.000233089
0.000233087
0.000233403
0.000232522
0.000227709
0.000227701
0.000223723
0.000230492
0.000220181
0.000220172
0.000208945
0.000227759
0.000211499
0.000211495
0.00019367
0.000224377
0.000202482
0.000202477
0.000179647
0.000220485
0.000193618
0.000193609
0.000167327
0.000216232
0.000185139
0.000185129
0.000156634
0.000211746
0.000177115
0.000177105
0.00014729
0.000207132
0.000169584
0.000169574
0.000139054
0.00020247
0.000162518
0.000162508
0.000131641
0.000197815
0.000155863
0.000155852
0.000125
0.000193203
0.000149563
0.000149553
0.000118851
0.000188614
0.000143579
0.000143571
0.000113114
0.000184083
0.000137857
0.00013785
0.000107896
0.00017964
0.000132355
0.00013235
0.000102984
0.000175272
0.000127065
0.00012706
9.83383e-05
0.000170967
0.000122007
0.000122
9.4087e-05
0.000166712
0.000117213
0.000117203
9.05235e-05
0.000162508
0.000112709
0.000112695
8.75883e-05
0.000158329
0.000108552
0.000108537
8.52859e-05
0.000154171
0.000104792
0.000104779
8.35642e-05
0.000150042
0.000101458
0.000101447
8.24912e-05
0.000145952
9.86139e-05
9.86035e-05
8.20307e-05
0.000141923
9.62757e-05
9.62681e-05
8.20366e-05
0.00013798
9.44568e-05
9.44507e-05
8.24469e-05
0.000134142
9.31564e-05
9.31549e-05
8.36475e-05
0.000130462
9.23617e-05
9.23643e-05
8.50263e-05
0.000126966
9.20539e-05
9.20546e-05
8.67303e-05
0.000123692
9.22051e-05
9.22041e-05
8.84397e-05
0.000120684
9.27828e-05
9.27807e-05
9.06216e-05
0.000117946
9.37535e-05
9.3751e-05
9.29543e-05
0.000115529
9.50798e-05
9.50764e-05
9.52827e-05
0.000113449
9.67215e-05
9.6723e-05
9.75938e-05
0.000111719
9.86483e-05
9.86476e-05
0.000100222
0.000110351
0.00010082
0.000100815
0.000102846
0.00010935
0.000103204
0.0001032
0.000105509
0.000108715
0.000105771
0.000105767
0.000108159
0.000108445
0.000108489
0.000108486
0.000111031
0.000108531
0.000111332
0.000111331
0.000113553
0.000108965
0.000114279
0.000114277
0.000116278
0.000109734
0.000117308
0.000117303
0.000119025
0.000110822
0.000120403
0.000120401
0.000121796
0.000112215
0.000123544
0.000123545
0.000124539
0.000113893
0.000126717
0.000126719
0.000127213
0.000115838
0.000129903
0.000129907
0.000129721
0.000118028
0.000133091
0.000133093
0.000132332
0.000120442
0.000136269
0.00013627
0.000134789
0.000234263
0.000234458
0.00023446
0.000234266
0.000234459
0.000234451
0.000234275
0.000234275
0.000234275
0.000234275
0.000234459
0.00023446
0.000234264
0.00023446
0.000234462
0.000234264
0.000233415
0.000226102
0.000233087
0.00023308
0.000229284
0.000229265
0.000233409
0.000226091
0.000233082
0.000233092
0.000229276
0.000229244
0.00023309
0.000229285
0.000229271
0.000233417
0.000226082
0.00023308
0.00022928
0.000229263
0.000226082
0.000223743
0.000212097
0.000227708
0.000227684
0.000222216
0.000222176
0.000223731
0.000212082
0.000227698
0.000227633
0.000222202
0.000222059
0.00022769
0.00022221
0.000222192
0.000223723
0.000212071
0.000227683
0.000222199
0.000222182
0.000212071
0.000208967
0.000196938
0.000220189
0.000220148
0.000213736
0.000213696
0.000208947
0.000196924
0.000220176
0.000220026
0.000213728
0.000213588
0.000220164
0.000213727
0.000213714
0.000208938
0.000196913
0.000220156
0.000213722
0.000213709
0.000196922
0.000193663
0.000182791
0.000211505
0.000211468
0.000204735
0.000204704
0.000193639
0.000182791
0.000211499
0.000211369
0.000204733
0.00020464
0.000211485
0.000204735
0.000204716
0.000193634
0.000182775
0.000211482
0.00020473
0.000204719
0.000182752
0.000179617
0.000170242
0.000202479
0.00020245
0.000195795
0.00019577
0.000179601
0.000170236
0.000202478
0.000202398
0.000195797
0.000195745
0.00020246
0.000195802
0.000195775
0.000179594
0.000170217
0.000202466
0.000195793
0.000195785
0.00017017
0.000167269
0.0001592
0.000193608
0.000193584
0.000187204
0.000187183
0.000167281
0.000159205
0.000193612
0.000193566
0.000187213
0.000187177
0.000193588
0.000187217
0.000187185
0.000167276
0.000159186
0.0001936
0.000187206
0.0001872
0.000159159
0.000156619
0.000149561
0.000185125
0.000185104
0.000179057
0.000179039
0.000156627
0.000149574
0.000185135
0.0001851
0.00017907
0.000179038
0.000185106
0.000179075
0.00017904
0.000156632
0.000149557
0.000185122
0.000179064
0.000179059
0.000149554
0.000147276
0.000141089
0.000177096
0.000177079
0.000171399
0.000171384
0.00014728
0.000141098
0.00017711
0.000177078
0.000171415
0.000171381
0.00017708
0.000171421
0.000171384
0.000147277
0.000141143
0.0001771
0.000171411
0.000171408
0.000141095
0.000139061
0.000133566
0.000169561
0.000169548
0.000164219
0.000164207
0.000139043
0.000133637
0.000169579
0.000169544
0.000164237
0.000164202
0.000169547
0.000164244
0.000164205
0.000138955
0.000133637
0.000169572
0.000164233
0.000164231
0.000133617
0.000131751
0.000126808
0.000162492
0.000162483
0.000157461
0.000157453
0.000131678
0.000126733
0.000162511
0.000162476
0.000157482
0.000157447
0.000162479
0.000157491
0.00015745
0.000131659
0.000126805
0.000162506
0.00015748
0.000157478
0.0001268
0.000125003
0.000120536
0.000155832
0.000155826
0.000151075
0.000151068
0.000125144
0.00012044
0.000155853
0.000155819
0.000151098
0.000151063
0.000155822
0.000151108
0.000151066
0.000125009
0.000120532
0.000155851
0.000151096
0.000151096
0.000120524
0.000118866
0.000114469
0.000149531
0.000149525
0.000145013
0.000145006
0.000118998
0.000114443
0.000149554
0.000149519
0.000145037
0.000145002
0.000149521
0.000145047
0.000145006
0.000118918
0.000114473
0.000149553
0.000145037
0.000145038
0.000114522
0.000113248
0.000108805
0.000143545
0.000143539
0.00013923
0.000139222
0.000113237
0.000108802
0.000143569
0.000143535
0.000139255
0.000139219
0.000143538
0.000139264
0.000139223
0.000113172
0.000108802
0.000143571
0.000139257
0.000139256
0.000108827
0.000107924
0.000103637
0.000137823
0.000137816
0.00013368
0.00013367
0.000107905
0.000103639
0.000137848
0.00013781
0.000133706
0.000133666
0.000137816
0.000133713
0.000133674
0.000107913
0.000103625
0.00013785
0.000133708
0.000133706
0.000103628
0.000103004
9.90297e-05
0.000132323
0.000132313
0.000128338
0.000128326
0.000102995
9.90452e-05
0.000132348
0.000132307
0.000128364
0.000128322
0.000132316
0.00012837
0.000128331
0.000102987
9.90224e-05
0.000132349
0.000128365
0.000128362
9.90205e-05
9.83399e-05
9.48555e-05
0.000127033
0.000127021
0.000123222
0.00012321
9.83204e-05
9.48501e-05
0.000127059
0.000127018
0.000123247
0.000123206
0.000127028
0.000123254
0.000123218
9.83263e-05
9.48349e-05
0.000127059
0.000123248
0.000123249
9.48293e-05
9.40985e-05
9.13446e-05
0.000121975
0.000121963
0.00011833
0.000118319
9.40798e-05
9.13091e-05
0.000122
0.000121959
0.000118351
0.000118313
0.000121971
0.000118363
0.000118324
9.40799e-05
9.13265e-05
0.000122002
0.000118356
0.000118357
9.11951e-05
9.04331e-05
8.82345e-05
0.000117173
0.000117167
0.00011375
0.000113745
9.04656e-05
8.82359e-05
0.000117199
0.00011716
0.000113773
0.000113735
0.00011718
0.000113791
0.000113754
9.04313e-05
8.82549e-05
0.000117205
0.000113778
0.000113782
8.81079e-05
8.75211e-05
8.57935e-05
0.000112664
0.000112662
0.000109493
0.00010949
8.75389e-05
8.5702e-05
0.000112688
0.000112652
0.000109516
0.000109478
0.00011267
0.000109537
0.000109499
8.7483e-05
8.57925e-05
0.000112698
0.000109522
0.000109527
8.56083e-05
8.51266e-05
8.40234e-05
0.000108507
0.000108504
0.000105626
0.000105618
8.51449e-05
8.38459e-05
0.000108528
0.000108494
0.000105646
0.000105609
0.000108516
0.000105667
0.000105634
8.51132e-05
8.39305e-05
0.000108541
0.000105653
0.000105657
8.37652e-05
8.33339e-05
8.27425e-05
0.000104752
0.000104743
0.000102204
0.000102192
8.34227e-05
8.24788e-05
0.00010477
0.000104735
0.000102221
0.000102185
0.000104761
0.000102242
0.000102212
8.33627e-05
8.28213e-05
0.000104783
0.000102229
0.000102233
8.25883e-05
8.22452e-05
8.22181e-05
0.000101419
0.000101408
9.92406e-05
9.92284e-05
8.24212e-05
8.18795e-05
0.000101435
0.000101402
9.92566e-05
9.92218e-05
0.00010143
9.92756e-05
9.92486e-05
8.22558e-05
8.20459e-05
0.000101452
9.9263e-05
9.92697e-05
8.1978e-05
8.17527e-05
8.18035e-05
9.85774e-05
9.85674e-05
9.67792e-05
9.67671e-05
8.20025e-05
8.18276e-05
9.85927e-05
9.85623e-05
9.67949e-05
9.67615e-05
9.85874e-05
9.68098e-05
9.67885e-05
8.19548e-05
8.18428e-05
9.86104e-05
9.68015e-05
9.68078e-05
8.18638e-05
8.2004e-05
8.2276e-05
9.62449e-05
9.62339e-05
9.48363e-05
9.48225e-05
8.20741e-05
8.23027e-05
9.62594e-05
9.62292e-05
9.48486e-05
9.48171e-05
9.62548e-05
9.48613e-05
9.48459e-05
8.19943e-05
8.22209e-05
9.62755e-05
9.48544e-05
9.48617e-05
8.2502e-05
8.2588e-05
8.31845e-05
9.44295e-05
9.44194e-05
9.34116e-05
9.33946e-05
8.25931e-05
8.33727e-05
9.44417e-05
9.44143e-05
9.34218e-05
9.33915e-05
9.44417e-05
9.3433e-05
9.34207e-05
8.25951e-05
8.31255e-05
9.44591e-05
9.34286e-05
9.34346e-05
8.32451e-05
8.35885e-05
8.4487e-05
9.31359e-05
9.31212e-05
9.24987e-05
9.24793e-05
8.33995e-05
8.44468e-05
9.31458e-05
9.31177e-05
9.25075e-05
9.24756e-05
9.31468e-05
9.25141e-05
9.25064e-05
8.36047e-05
8.46977e-05
9.31611e-05
9.25138e-05
9.25172e-05
8.45231e-05
8.49597e-05
8.6314e-05
9.23463e-05
9.23304e-05
9.20745e-05
9.20556e-05
8.49327e-05
8.61203e-05
9.23552e-05
9.23271e-05
9.20817e-05
9.20503e-05
9.23578e-05
9.20876e-05
9.20844e-05
8.47818e-05
8.63376e-05
9.23682e-05
9.20866e-05
9.20935e-05
8.61666e-05
8.64395e-05
8.82559e-05
9.20409e-05
9.2027e-05
9.21159e-05
9.20991e-05
8.66749e-05
8.80257e-05
9.20482e-05
9.20204e-05
9.21223e-05
9.20913e-05
9.20557e-05
9.21273e-05
9.21264e-05
8.64283e-05
8.83059e-05
9.20632e-05
9.21248e-05
9.21333e-05
8.82721e-05
8.84428e-05
9.03769e-05
9.2194e-05
9.21826e-05
9.25895e-05
9.2578e-05
8.8644e-05
9.0161e-05
9.22011e-05
9.21735e-05
9.2596e-05
9.25693e-05
9.22091e-05
9.26022e-05
9.26035e-05
8.83318e-05
9.04535e-05
9.22157e-05
9.25999e-05
9.26089e-05
9.04296e-05
9.05904e-05
9.26269e-05
9.27719e-05
9.27653e-05
9.34664e-05
9.34569e-05
9.08294e-05
9.27092e-05
9.27787e-05
9.27534e-05
9.34718e-05
9.3447e-05
9.279e-05
9.34782e-05
9.34812e-05
9.05255e-05
9.23989e-05
9.27949e-05
9.34755e-05
9.3485e-05
9.27392e-05
9.28544e-05
9.50972e-05
9.37418e-05
9.37358e-05
9.47069e-05
9.46991e-05
9.29978e-05
9.51466e-05
9.3749e-05
9.37275e-05
9.47128e-05
9.46884e-05
9.37621e-05
9.47173e-05
9.47222e-05
9.3135e-05
9.47416e-05
9.37661e-05
9.4714e-05
9.47274e-05
9.5189e-05
9.54284e-05
9.73304e-05
9.50706e-05
9.50653e-05
9.62778e-05
9.62695e-05
9.5407e-05
9.76134e-05
9.50761e-05
9.50567e-05
9.62823e-05
9.6261e-05
9.50877e-05
9.62847e-05
9.62884e-05
9.56005e-05
9.72175e-05
9.50935e-05
9.62851e-05
9.62935e-05
9.76504e-05
9.81061e-05
0.000100037
9.67169e-05
9.67102e-05
9.81379e-05
9.8128e-05
9.78933e-05
0.000100111
9.67228e-05
9.67056e-05
9.81446e-05
9.81187e-05
9.67313e-05
9.81436e-05
9.81459e-05
9.80343e-05
9.97268e-05
9.6736e-05
9.81437e-05
9.81496e-05
0.000100182
0.000100457
0.000102778
9.86414e-05
9.86374e-05
0.00010025
0.000100242
0.000100341
0.000102534
9.86496e-05
9.86284e-05
0.000100257
0.000100231
9.86544e-05
0.000100257
0.000100259
0.000100571
0.000102295
9.86577e-05
0.000100253
0.00010026
0.000102775
0.00010281
0.000105387
0.000100814
0.000100809
0.000102584
0.000102576
0.000102993
0.000105033
0.000100821
0.000100798
0.000102588
0.000102564
0.000100824
0.00010259
0.000102593
0.000103156
0.000104946
0.000100826
0.000102586
0.000102593
0.000105419
0.000105457
0.000108087
0.000103199
0.000103194
0.000105111
0.000105099
0.000105844
0.000107618
0.000103204
0.000103182
0.000105113
0.00010509
0.00010321
0.000105114
0.000105118
0.000105812
0.000107657
0.000103208
0.000105111
0.000105116
0.000108142
0.000108206
0.000110562
0.000105768
0.00010576
0.000107798
0.000107782
0.000108539
0.000110343
0.000105769
0.000105751
0.000107797
0.000107777
0.000105777
0.000107797
0.000107802
0.000108481
0.000110395
0.000105775
0.000107796
0.0001078
0.000110597
0.000111043
0.000113219
0.000108491
0.000108479
0.000110616
0.000110597
0.000111245
0.000112956
0.00010849
0.000108472
0.000110613
0.000110592
0.000108496
0.000110612
0.00011062
0.000111135
0.000113075
0.000108495
0.000110611
0.000110618
0.000113505
0.000113773
0.000115743
0.000111339
0.000111322
0.000113541
0.00011352
0.00011389
0.000115906
0.000111336
0.000111317
0.000113537
0.000113515
0.000111344
0.000113535
0.000113547
0.000113822
0.000115766
0.000111342
0.000113533
0.000113545
0.000116153
0.000116592
0.000118454
0.000114287
0.000114269
0.000116553
0.000116529
0.000116398
0.000118575
0.000114283
0.000114263
0.000116548
0.000116524
0.000114295
0.000116545
0.000116559
0.000116503
0.000118604
0.000114293
0.00011654
0.000116556
0.000118857
0.000119258
0.000121268
0.000117317
0.000117296
0.000119632
0.000119609
0.000119088
0.00012126
0.000117312
0.00011729
0.000119628
0.000119606
0.000117326
0.000119625
0.000119642
0.000119145
0.000121285
0.000117323
0.000119622
0.00011964
0.000121256
0.00012181
0.000123944
0.000120412
0.000120389
0.000122767
0.00012274
0.00012174
0.000123747
0.000120408
0.000120388
0.000122763
0.000122741
0.000120422
0.000122756
0.000122776
0.000121767
0.000123879
0.00012042
0.000122757
0.000122775
0.000123884
0.00012449
0.000126564
0.000123556
0.000123532
0.000125933
0.000125908
0.000124542
0.000126381
0.000123554
0.000123533
0.000125931
0.000125909
0.000123567
0.000125922
0.000125945
0.000124398
0.00012641
0.000123565
0.000125925
0.000125944
0.000126478
0.000127102
0.00012905
0.000126729
0.000126706
0.000129116
0.000129094
0.000127136
0.00012908
0.000126728
0.000126706
0.000129116
0.000129096
0.000126741
0.000129107
0.000129129
0.000127109
0.000129034
0.00012674
0.00012911
0.000129129
0.000129085
0.000129704
0.000131573
0.000129914
0.000129893
0.000132303
0.000132283
0.000129703
0.000131601
0.000129914
0.000129896
0.000132303
0.000132284
0.000129927
0.000132295
0.000132317
0.000129754
0.00013154
0.000129927
0.000132298
0.000132318
0.000131639
0.0001323
0.000134295
0.000133101
0.00013308
0.000135481
0.000135463
0.000132252
0.000134322
0.000133102
0.000133082
0.000135483
0.000135465
0.000133114
0.000135476
0.000135496
0.000132262
0.000134175
0.000133116
0.000135478
0.000135498
0.000134176
0.000134677
0.000136762
0.000136274
0.000136257
0.000138639
0.000138626
0.000134704
0.000136862
0.000136277
0.000136259
0.000138642
0.000138627
0.000136288
0.000138639
0.000138655
0.00013475
0.00013663
0.00013629
0.00013864
0.000138659
0.000136654
0.00023473
0.000234746
0.000234729
0.000234729
0.000235133
0.000234799
0.000234906
0.000234726
0.000235129
0.000234799
0.000234726
0.000234791
0.000234869
0.000233498
0.000233777
0.000104757
3.88313e-05
0.000128572
3.97892e-05
2.15152e-05
2.2846e-05
0.000104728
3.88344e-05
0.000128532
3.97745e-05
0.000233972
0.000233972
0.000233972
0.000232928
0.000232928
0.000232928
0.000232928
0.000205996
9.29805e-05
0.000233965
0.000231962
0.000222244
8.64227e-05
0.000233604
2.13839e-05
2.28952e-05
0.000206018
0.000233967
9.3025e-05
0.000231961
0.000222398
0.000233606
8.62399e-05
4.73416e-05
4.77536e-05
0.000231293
4.37259e-05
4.38337e-05
7.26328e-05
4.24066e-05
8.13688e-05
4.37553e-05
2.47896e-05
2.54761e-05
7.26349e-05
4.24056e-05
8.1371e-05
4.37484e-05
0.000232521
0.000232518
0.00023252
0.000231064
0.000231062
0.00023105
0.000231061
0.000167315
7.88347e-05
0.000232059
0.000225992
0.000180005
7.38813e-05
0.000231348
2.47824e-05
2.54714e-05
0.00016724
0.000232053
7.87682e-05
0.000225982
0.000179911
0.000231338
7.39395e-05
3.91334e-05
3.91888e-05
0.000219437
3.65508e-05
3.65511e-05
5.63646e-05
4.55417e-05
6.12359e-05
4.64183e-05
2.60153e-05
2.61185e-05
5.63453e-05
4.55377e-05
6.12422e-05
4.64157e-05
0.000230489
0.000230476
0.000230488
0.000228507
0.000228502
0.000228486
0.000228502
0.000138503
6.69997e-05
0.000228593
0.000218081
0.000148024
6.30595e-05
0.000227479
2.60159e-05
2.61165e-05
0.000138517
0.00022858
6.69673e-05
0.000218074
0.000147937
0.000227465
6.31349e-05
3.33253e-05
3.33139e-05
0.000204467
3.20774e-05
3.20619e-05
4.70109e-05
4.74992e-05
5.00126e-05
4.80111e-05
2.60501e-05
2.59406e-05
4.70131e-05
4.74957e-05
4.99835e-05
4.80077e-05
0.000227753
0.000227737
0.000227753
0.000225276
0.000225271
0.000225256
0.00022527
0.000117507
5.78511e-05
0.000223641
0.000209251
0.000124613
5.51883e-05
0.000222224
2.60371e-05
2.59355e-05
0.000117511
0.000223635
5.78378e-05
0.000209247
0.000124572
0.000222217
5.52108e-05
3.07217e-05
3.07097e-05
0.000189649
3.0412e-05
3.04138e-05
4.14791e-05
4.8582e-05
4.32951e-05
4.88435e-05
2.56723e-05
2.55208e-05
4.14578e-05
4.85764e-05
4.33009e-05
4.88381e-05
0.000224372
0.000224359
0.000224371
0.000221497
0.000221493
0.000221484
0.00022149
0.000102071
5.15874e-05
0.000217672
0.000200238
0.000107427
4.98503e-05
0.000216079
2.56679e-05
2.55176e-05
0.00010208
0.000217671
5.15843e-05
0.000200231
0.000107437
0.000216076
4.9864e-05
3.03118e-05
3.02711e-05
0.000176256
3.04536e-05
3.04692e-05
3.81754e-05
4.90913e-05
3.92602e-05
4.91962e-05
2.52351e-05
2.50955e-05
3.81813e-05
4.9086e-05
3.92935e-05
4.91899e-05
0.00022048
0.000220473
0.000220477
0.000217321
0.000217317
0.000217312
0.000217312
9.0476e-05
4.74705e-05
0.000211162
0.000191456
9.45772e-05
4.64648e-05
0.000209496
2.5232e-05
2.50934e-05
9.04746e-05
0.000211162
4.74526e-05
0.000191446
9.45823e-05
0.000209492
4.64345e-05
3.11191e-05
3.11077e-05
0.000164475
3.15878e-05
3.15827e-05
3.64035e-05
4.92744e-05
3.69431e-05
4.92887e-05
2.48474e-05
2.47346e-05
3.63845e-05
4.92705e-05
3.69709e-05
4.92847e-05
0.000216227
0.000216223
0.000216222
0.000212883
0.000212878
0.000212875
0.000212873
8.15871e-05
4.49346e-05
0.000204474
0.000183088
8.48223e-05
4.44396e-05
0.000202805
2.48447e-05
2.47325e-05
8.15777e-05
0.000204471
4.49242e-05
0.000183077
8.48104e-05
0.000202798
4.44075e-05
3.27006e-05
3.26783e-05
0.000154203
3.33127e-05
3.3331e-05
3.57052e-05
4.92865e-05
3.58332e-05
4.92699e-05
2.45354e-05
2.44481e-05
3.56912e-05
4.92822e-05
3.58342e-05
4.92653e-05
0.000211742
0.000211738
0.000211736
0.000208292
0.000208289
0.000208284
0.000208283
7.46578e-05
4.36006e-05
0.000197841
0.000175185
7.72734e-05
4.34066e-05
0.000196209
2.45326e-05
2.44469e-05
7.46552e-05
0.000197835
4.35906e-05
0.000175175
7.72644e-05
0.0001962
4.34281e-05
3.47261e-05
3.46922e-05
0.000145168
3.5444e-05
3.54706e-05
3.57651e-05
4.92534e-05
3.56744e-05
4.92328e-05
2.42963e-05
2.42292e-05
3.57484e-05
4.92491e-05
3.56835e-05
4.92283e-05
0.000207129
0.000207124
0.000207122
0.000203636
0.000203635
0.000203628
0.000203627
6.9242e-05
4.31127e-05
0.000191394
0.000167776
7.13405e-05
4.31265e-05
0.000189815
2.4293e-05
2.42302e-05
6.9223e-05
0.000191388
4.30744e-05
0.000167766
7.13374e-05
0.000189807
4.31565e-05
3.7009e-05
3.70056e-05
0.000137247
3.78367e-05
3.78327e-05
3.65431e-05
4.922e-05
3.62688e-05
4.92174e-05
2.41146e-05
2.40719e-05
3.65361e-05
4.9216e-05
3.6254e-05
4.92132e-05
0.000202469
0.000202462
0.000202461
0.000198975
0.000198975
0.000198967
0.000198967
6.4914e-05
4.33198e-05
0.00018516
0.000160818
6.65812e-05
4.34258e-05
0.00018364
2.41126e-05
2.40694e-05
6.49122e-05
0.000185156
4.32446e-05
0.000160807
6.65802e-05
0.000183632
4.35221e-05
3.95016e-05
3.94811e-05
0.000130122
4.03167e-05
4.03361e-05
3.79656e-05
4.92169e-05
3.74779e-05
4.92217e-05
2.39847e-05
2.39569e-05
3.79629e-05
4.92129e-05
3.7468e-05
4.92179e-05
0.000197816
0.000197807
0.000197808
0.000194349
0.00019435
0.000194341
0.000194342
6.15304e-05
4.40317e-05
0.000179183
0.000154256
6.27837e-05
4.42762e-05
0.000177733
2.39881e-05
2.39487e-05
6.1536e-05
0.000179179
4.39439e-05
0.000154245
6.278e-05
0.000177725
4.43477e-05
4.20173e-05
4.19938e-05
0.000123576
4.28469e-05
4.28601e-05
3.99397e-05
4.92406e-05
3.92792e-05
4.92453e-05
2.38926e-05
2.38683e-05
3.99442e-05
4.92368e-05
3.92592e-05
4.92414e-05
0.000193204
0.000193195
0.000193196
0.000189761
0.000189762
0.000189754
0.000189755
5.89356e-05
4.51602e-05
0.000173484
0.000148038
5.98748e-05
4.55463e-05
0.000172099
2.38972e-05
2.38665e-05
5.89368e-05
0.000173481
4.50804e-05
0.000148027
5.98748e-05
0.000172092
4.55933e-05
4.45062e-05
4.44961e-05
0.000117457
4.53151e-05
4.53142e-05
4.24498e-05
4.92753e-05
4.16052e-05
4.92847e-05
2.38351e-05
2.38116e-05
4.24451e-05
4.92722e-05
4.15843e-05
4.92811e-05
0.000188615
0.000188607
0.000188608
0.000185208
0.000185209
0.0001852
0.000185202
5.70953e-05
4.66723e-05
0.000168033
0.000142126
5.77112e-05
4.71646e-05
0.000166706
2.38334e-05
2.38094e-05
5.71253e-05
0.000168031
4.6596e-05
0.000142116
5.77112e-05
0.0001667
4.72441e-05
4.6893e-05
4.68812e-05
0.000111669
4.76521e-05
4.76593e-05
4.53624e-05
4.9316e-05
4.43649e-05
4.93255e-05
2.37901e-05
2.37711e-05
4.5388e-05
4.93126e-05
4.43532e-05
4.93222e-05
0.000184084
0.000184076
0.000184077
0.000180743
0.000180744
0.000180736
0.000180737
5.59256e-05
4.84208e-05
0.000162797
0.000136463
5.6313e-05
4.90922e-05
0.000161518
2.37882e-05
2.37689e-05
5.60057e-05
0.000162796
4.83925e-05
0.000136456
5.62442e-05
0.000161513
4.91251e-05
4.91316e-05
4.91322e-05
0.000106161
4.98528e-05
4.98266e-05
4.86187e-05
4.93547e-05
4.75092e-05
4.93647e-05
2.37573e-05
2.3742e-05
4.86294e-05
4.93526e-05
4.74873e-05
4.93618e-05
0.00017964
0.000179632
0.000179634
0.000176357
0.000176357
0.000176349
0.00017635
5.53891e-05
5.04503e-05
0.00015774
0.000131014
5.55895e-05
5.11714e-05
0.000156504
2.37553e-05
2.374e-05
5.54722e-05
0.000157741
5.0448e-05
0.000131008
5.55104e-05
0.0001565
5.11491e-05
5.1189e-05
5.12002e-05
0.000101267
5.18497e-05
5.18288e-05
5.20313e-05
4.93913e-05
5.08839e-05
4.93995e-05
2.37305e-05
2.37204e-05
5.20732e-05
4.93893e-05
5.0867e-05
4.93971e-05
0.000175272
0.000175264
0.000175265
0.000172038
0.000172037
0.000172029
0.000172031
5.55499e-05
5.26168e-05
0.000152836
0.000125782
5.5461e-05
5.33777e-05
0.000151636
2.37282e-05
2.37187e-05
5.55665e-05
0.000152837
5.25891e-05
0.000125775
5.5411e-05
0.000151633
5.33999e-05
5.30654e-05
5.30654e-05
9.68676e-05
5.3668e-05
5.3668e-05
5.55555e-05
4.94237e-05
5.43201e-05
4.94313e-05
2.3708e-05
2.37018e-05
5.55935e-05
4.94224e-05
5.42888e-05
4.9429e-05
0.000170968
0.00017096
0.000170962
0.00016777
0.00016777
0.000167762
0.000167764
5.62725e-05
5.48722e-05
0.00014808
0.000120786
5.59908e-05
5.56404e-05
0.000146914
2.37058e-05
2.36999e-05
5.62914e-05
0.000148082
5.48695e-05
0.000120778
5.59309e-05
0.000146911
5.56556e-05
5.47627e-05
5.47783e-05
9.29226e-05
5.52995e-05
5.52932e-05
5.89513e-05
4.94538e-05
5.77347e-05
4.9461e-05
2.36893e-05
2.36847e-05
5.89965e-05
4.94517e-05
5.77054e-05
4.94589e-05
0.000166714
0.000166706
0.000166709
0.000163551
0.000163554
0.000163545
0.000163548
5.7565e-05
5.71833e-05
0.00014344
0.000116045
5.70926e-05
5.78782e-05
0.000142299
2.36873e-05
2.36826e-05
5.76248e-05
0.000143442
5.7127e-05
0.000116035
5.70405e-05
0.000142295
5.79413e-05
5.62977e-05
5.62979e-05
8.95775e-05
5.6793e-05
5.67915e-05
6.21586e-05
4.94824e-05
6.09857e-05
4.9489e-05
2.36729e-05
2.36683e-05
6.22136e-05
4.94802e-05
6.09505e-05
4.94871e-05
0.000162511
0.000162502
0.000162506
0.000159368
0.000159373
0.000159362
0.000159367
5.93652e-05
5.9411e-05
0.000138898
0.000111618
5.8736e-05
6.0168e-05
0.000137786
2.36708e-05
2.36664e-05
5.94024e-05
0.0001389
5.93892e-05
0.000111604
5.87062e-05
0.000137782
6.01774e-05
5.768e-05
5.76942e-05
8.67613e-05
5.81321e-05
5.81136e-05
6.50849e-05
4.95089e-05
6.39933e-05
4.95147e-05
2.36574e-05
2.36535e-05
6.51323e-05
4.9501e-05
6.39621e-05
4.95175e-05
0.000158335
0.000158324
0.00015833
0.000155204
0.00015521
0.000155199
0.000155205
6.1591e-05
6.15981e-05
0.000134462
0.00010755
6.08518e-05
6.23402e-05
0.00013338
2.36555e-05
2.36515e-05
6.16363e-05
0.000134458
6.15795e-05
0.000107536
6.08024e-05
0.000133375
6.23534e-05
5.89316e-05
5.8948e-05
8.46031e-05
5.93431e-05
5.93274e-05
6.77077e-05
4.95278e-05
6.6694e-05
4.95436e-05
2.36433e-05
2.36397e-05
6.7724e-05
4.95265e-05
6.66824e-05
4.95421e-05
0.000154176
0.000154165
0.000154173
0.000151066
0.000151071
0.000151059
0.000151068
6.419e-05
6.37081e-05
0.00013014
0.000103921
6.32829e-05
6.44035e-05
0.000129101
2.36412e-05
2.36374e-05
6.42012e-05
0.000130137
6.36965e-05
0.000103909
6.32858e-05
0.000129096
6.44276e-05
6.0065e-05
6.00838e-05
8.30761e-05
6.04461e-05
6.043e-05
6.99937e-05
4.95512e-05
6.91118e-05
4.95658e-05
2.36301e-05
2.36267e-05
7.0008e-05
4.95498e-05
6.91061e-05
4.95641e-05
0.000150047
0.000150036
0.000150045
0.000146963
0.000146967
0.000146955
0.000146965
6.69662e-05
6.57125e-05
0.000125987
0.000100697
6.60526e-05
6.63827e-05
0.000124961
2.36278e-05
2.36244e-05
6.70091e-05
0.000125988
6.57013e-05
0.000100685
6.59967e-05
0.000124954
6.6398e-05
6.10996e-05
6.11187e-05
8.21956e-05
6.14532e-05
6.14368e-05
7.20151e-05
4.95722e-05
7.122e-05
4.95856e-05
2.36177e-05
2.36146e-05
7.2012e-05
4.95706e-05
7.12172e-05
4.95838e-05
0.000145957
0.000145946
0.000145956
0.000142913
0.000142917
0.000142905
0.000142915
6.99212e-05
6.76179e-05
0.00012201
9.79781e-05
6.88973e-05
6.82565e-05
0.000121038
2.36154e-05
2.36123e-05
6.99131e-05
0.000122012
6.76084e-05
9.79681e-05
6.89089e-05
0.00012103
6.82647e-05
6.20452e-05
6.20641e-05
8.18528e-05
6.23727e-05
6.23607e-05
7.37604e-05
4.95905e-05
7.30584e-05
4.96028e-05
2.36063e-05
2.36035e-05
7.37743e-05
4.95889e-05
7.30469e-05
4.9601e-05
0.000141927
0.000141916
0.000141927
0.000138942
0.000138945
0.000138933
0.000138944
7.28945e-05
6.94051e-05
0.000118279
9.577e-05
7.18939e-05
7.00323e-05
0.00011737
2.36039e-05
2.36011e-05
7.29069e-05
0.000118282
6.94197e-05
9.57621e-05
7.18883e-05
0.000117365
7.00262e-05
6.29226e-05
6.29309e-05
8.20891e-05
6.32223e-05
6.32122e-05
7.52764e-05
4.96075e-05
7.46691e-05
4.96164e-05
2.35958e-05
2.35934e-05
7.52964e-05
4.96053e-05
7.46696e-05
4.96158e-05
0.000137984
0.000137973
0.000137985
0.000135088
0.000135092
0.000135079
0.000135092
7.58759e-05
7.11025e-05
0.000114842
9.40823e-05
7.48828e-05
7.16951e-05
0.000114034
2.35934e-05
2.3591e-05
7.58854e-05
0.000114851
7.11123e-05
9.40761e-05
7.48809e-05
0.000114033
7.16838e-05
6.37285e-05
6.37327e-05
8.29267e-05
6.39947e-05
6.39909e-05
7.66546e-05
4.9624e-05
7.60818e-05
4.9627e-05
2.35864e-05
2.35843e-05
7.66703e-05
4.96221e-05
7.6083e-05
4.96256e-05
0.000134145
0.000134135
0.000134146
0.00013137
0.000131372
0.000131362
0.000131374
7.88033e-05
7.2701e-05
0.000111722
9.291e-05
7.7819e-05
7.32576e-05
0.000111
2.3584e-05
2.35819e-05
7.87736e-05
0.000111733
7.2711e-05
9.29074e-05
7.78464e-05
0.000111001
7.32566e-05
6.44701e-05
6.44704e-05
8.37816e-05
6.47146e-05
6.47131e-05
7.78763e-05
4.96352e-05
7.73481e-05
4.96387e-05
2.35779e-05
2.35761e-05
7.78905e-05
4.96339e-05
7.73523e-05
4.96384e-05
0.000130464
0.000130454
0.000130466
0.000127826
0.000127827
0.000127818
0.00012783
8.16248e-05
7.42034e-05
0.000108984
9.224e-05
8.06741e-05
7.47375e-05
0.000108361
2.35754e-05
2.35736e-05
8.16038e-05
0.000108997
7.42191e-05
9.22395e-05
8.07089e-05
0.000108365
7.47313e-05
6.51586e-05
6.51585e-05
8.52327e-05
6.53803e-05
6.5381e-05
7.89844e-05
4.9647e-05
7.84941e-05
4.96493e-05
2.35703e-05
2.35688e-05
7.89951e-05
4.96449e-05
7.85004e-05
4.96483e-05
0.000126968
0.000126958
0.000126971
0.000124495
0.000124496
0.000124486
0.0001245
8.43477e-05
7.56249e-05
0.000106649
9.20497e-05
8.34199e-05
7.6123e-05
0.000106129
2.35677e-05
2.35663e-05
8.43203e-05
0.000106664
7.5631e-05
9.20488e-05
8.34545e-05
0.000106135
7.61301e-05
6.57957e-05
6.57948e-05
8.72344e-05
6.6005e-05
6.60037e-05
7.99983e-05
4.96569e-05
7.95465e-05
4.96595e-05
2.35636e-05
2.35625e-05
7.99983e-05
4.96556e-05
7.95505e-05
4.9658e-05
0.000123693
0.000123684
0.000123698
0.00012142
0.000121421
0.000121412
0.000121426
8.69317e-05
7.69632e-05
0.000104746
9.23118e-05
8.60596e-05
7.74352e-05
0.000104333
2.3561e-05
2.35599e-05
8.6938e-05
0.000104759
7.69725e-05
9.23096e-05
8.60747e-05
0.000104338
7.74421e-05
6.63886e-05
6.63903e-05
8.93376e-05
6.65883e-05
6.65866e-05
8.09343e-05
4.96651e-05
8.05143e-05
4.96709e-05
2.35579e-05
2.35571e-05
8.09357e-05
4.96648e-05
8.05196e-05
4.96685e-05
0.000120685
0.000120676
0.00012069
0.000118601
0.000118602
0.000118594
0.000118607
8.94298e-05
7.82338e-05
0.000103285
9.29909e-05
8.85868e-05
7.86838e-05
0.000102985
2.35553e-05
2.35545e-05
8.94169e-05
0.000103296
7.82404e-05
9.29905e-05
8.86117e-05
0.000102989
7.86881e-05
6.69477e-05
6.69491e-05
9.15034e-05
6.71366e-05
6.71348e-05
8.18069e-05
4.96744e-05
8.14182e-05
4.96815e-05
2.35532e-05
2.35527e-05
8.18094e-05
4.96744e-05
8.14258e-05
4.96787e-05
0.000117947
0.000117939
0.000117954
0.000116104
0.000116104
0.000116097
0.000116111
9.18217e-05
7.94347e-05
0.000102274
9.40547e-05
9.09971e-05
7.98634e-05
0.000102086
2.35505e-05
2.35502e-05
9.18192e-05
0.000102283
7.94457e-05
9.40511e-05
9.10017e-05
0.000102085
7.98693e-05
6.74755e-05
6.74764e-05
9.39676e-05
6.76537e-05
6.7653e-05
8.26245e-05
4.96847e-05
8.22624e-05
4.96926e-05
2.35494e-05
2.35494e-05
8.26271e-05
4.96863e-05
8.22723e-05
4.96887e-05
0.000115531
0.000115523
0.000115538
0.000113937
0.000113937
0.00011393
0.000113944
9.41145e-05
8.0582e-05
0.000101706
9.54615e-05
9.32894e-05
8.09912e-05
0.000101624
2.35468e-05
2.35468e-05
9.4117e-05
0.000101713
8.05911e-05
9.54612e-05
9.32986e-05
0.000101625
8.09974e-05
6.79761e-05
6.79767e-05
9.63604e-05
6.81459e-05
6.8145e-05
8.3395e-05
4.96957e-05
8.30541e-05
4.97047e-05
2.35467e-05
2.35471e-05
8.34005e-05
4.96966e-05
8.30646e-05
4.97e-05
0.000113449
0.000113442
0.000113457
0.000112118
0.000112118
0.000112111
0.000112125
9.63185e-05
8.16806e-05
0.000101564
9.71797e-05
9.54889e-05
8.20589e-05
0.000101587
2.35441e-05
2.35445e-05
9.63171e-05
0.000101575
8.16799e-05
9.71814e-05