/*--------------------------------*- C++ -*----------------------------------*\
| =========                 |                                                 |
| \\      /  F ield         | OpenFOAM: The Open Source CFD Toolbox           |
|  \\    /   O peration     | Version:  v2012                                 |
|   \\  /    A nd           | Website:  www.openfoam.com                      |
|    \\/     M anipulation  |                                                 |
\*---------------------------------------------------------------------------*/
FoamFile
{
    version     2.0;
    format      ascii;
    class       surfaceScalarField;
    location    "350";
    object      phi;
}
// * * * * * * * * * * * * * * * * * * * * * * * * * * * * * * * * * * * * * //

dimensions      [0 3 -1 0 0 0 0];
oriented        oriented;


internalField   nonuniform List<scalar> 
248808
(
-0.00104218
-1.4631e-05
-1.45284e-05
9.38431e-06
9.21421e-06
0.00105274
-0.00026149
-5.68391e-06
1.4508e-05
6.88963e-06
0.00105925
-4.59309e-06
-1.59741e-06
-2.121e-06
-2.49009e-06
-6.62383e-06
-7.11413e-06
-2.98586e-06
-0.000263332
-0.000259761
-0.000262856
-0.000261467
-5.68868e-06
1.4538e-05
6.97887e-06
0.00105904
-4.5981e-06
-1.60758e-06
-2.1284e-06
-2.49514e-06
-6.61867e-06
-7.11124e-06
-2.98844e-06
-0.000259733
-0.000263303
-0.00026282
-0.000260562
5.65905e-06
5.69891e-06
-4.95348e-06
-4.94666e-06
0.000259104
-1.65297e-06
-1.654e-06
-0.0010608
9.33923e-07
9.34889e-07
0.00106223
-0.00106274
-1.61816e-06
1.64877e-06
8.30065e-07
0.00106394
-6.7962e-07
8.35263e-07
-9.88838e-08
4.23088e-07
-8.508e-07
-1.43189e-06
-2.55239e-07
-0.00106242
-1.61328e-06
1.65883e-06
8.26026e-07
0.00106362
-6.79917e-07
8.29767e-07
-9.91398e-08
4.20801e-07
-8.52796e-07
-1.43123e-06
-2.52382e-07
-0.000261566
1.65087e-06
1.61361e-06
-6.98312e-07
-7.01192e-07
0.000259701
-1.3758e-06
-1.37618e-06
-0.00106636
6.96014e-07
6.97848e-07
0.00106772
-0.00106788
-1.57236e-06
1.38068e-06
6.90054e-07
0.00106923
-6.57007e-07
8.78665e-07
-7.30749e-08
4.61849e-07
-8.37334e-07
-1.39894e-06
-2.21381e-07
-0.00106756
-1.56675e-06
1.37544e-06
6.94709e-07
0.0010689
-6.56949e-07
8.73693e-07
-7.3053e-08
4.61958e-07
-8.37194e-07
-1.39332e-06
-2.18863e-07
-0.000262802
1.60226e-06
1.56751e-06
-6.63552e-07
-6.71502e-07
0.000260968
-1.35012e-06
-1.35141e-06
-0.00107181
6.75768e-07
6.76998e-07
0.00107316
-0.00107323
-1.5721e-06
1.35e-06
6.65858e-07
0.00107454
-6.53284e-07
9.01017e-07
-5.2954e-08
4.75997e-07
-8.28061e-07
-1.40424e-06
-1.94553e-07
-0.00107289
-1.56658e-06
1.35046e-06
6.65585e-07
0.0010742
-6.50598e-07
8.95852e-07
-5.49988e-08
4.75554e-07
-8.30692e-07
-1.40443e-06
-1.92242e-07
-0.00026408
1.59963e-06
1.56726e-06
-6.55659e-07
-6.61246e-07
0.00026223
-1.30302e-06
-1.30553e-06
-0.00107714
6.5192e-07
6.52119e-07
0.00107845
-0.0010784
-1.56382e-06
1.30386e-06
6.35028e-07
0.00107965
-6.38425e-07
9.25214e-07
-3.46496e-08
4.9496e-07
-8.0969e-07
-1.40331e-06
-1.64785e-07
-0.00107806
-1.55839e-06
1.30331e-06
6.35225e-07
0.00107931
-6.35611e-07
9.19898e-07
-3.65387e-08
4.94884e-07
-8.12252e-07
-1.40317e-06
-1.6242e-07
-0.000265298
1.59153e-06
1.55897e-06
-6.40112e-07
-6.45754e-07
0.000263434
-1.25238e-06
-1.25491e-06
-0.00108228
6.26957e-07
6.27087e-07
0.00108354
-0.00108332
-1.55489e-06
1.25369e-06
6.05945e-07
0.00108452
-6.24095e-07
9.47132e-07
-1.38269e-08
5.16173e-07
-7.89022e-07
-1.39693e-06
-1.36843e-07
-0.00108298
-1.54953e-06
1.25354e-06
6.06483e-07
0.00108418
-6.21281e-07
9.41714e-07
-1.64267e-08
5.15986e-07
-7.91719e-07
-1.39688e-06
-1.34587e-07
-0.000266443
1.58256e-06
1.54975e-06
-6.23994e-07
-6.29679e-07
0.000264564
-1.20603e-06
-1.20789e-06
-0.00108722
6.04541e-07
6.05208e-07
0.00108843
-0.001088
-1.54743e-06
1.20729e-06
5.82649e-07
0.00108914
-6.12089e-07
9.66477e-07
3.52067e-09
5.37609e-07
-7.69666e-07
-1.38884e-06
-1.12221e-07
-0.00108766
-1.54205e-06
1.20738e-06
5.83069e-07
0.0010888
-6.09331e-07
9.61052e-07
8.42053e-10
5.37466e-07
-7.72311e-07
-1.3888e-06
-1.09921e-07
-0.000267514
1.57514e-06
1.54221e-06
-6.09912e-07
-6.15588e-07
0.000265622
-1.16583e-06
-1.16694e-06
-0.00109197
5.85835e-07
5.86919e-07
0.00109313
-0.00109245
-1.54186e-06
1.16687e-06
5.64102e-07
0.00109353
-6.02778e-07
9.83595e-07
1.78985e-08
5.5842e-07
-7.52727e-07
-1.38086e-06
-9.10071e-08
-0.00109211
-1.53647e-06
1.1666e-06
5.64496e-07
0.00109319
-6.00057e-07
9.78127e-07
1.51482e-08
5.58536e-07
-7.5515e-07
-1.38055e-06
-8.8575e-08
-0.000268516
1.56964e-06
1.53671e-06
-5.98293e-07
-6.03804e-07
0.000266612
-1.13087e-06
-1.13247e-06
-0.00109655
5.70448e-07
5.71563e-07
0.00109767
-0.00109669
-1.538e-06
1.13248e-06
5.49339e-07
0.00109772
-5.95965e-07
9.98673e-07
2.98004e-08
5.78483e-07
-7.3815e-07
-1.37346e-06
-7.28453e-08
-0.00109635
-1.53262e-06
1.13213e-06
5.49852e-07
0.00109737
-5.93278e-07
9.93159e-07
2.69816e-08
5.78662e-07
-7.4046e-07
-1.37304e-06
-7.03955e-08
-0.000269455
1.56606e-06
1.53294e-06
-5.88731e-07
-5.94274e-07
0.000267539
-1.10075e-06
-1.10224e-06
-0.00110098
5.5719e-07
5.58332e-07
0.00110207
-0.00110074
-1.5363e-06
1.10218e-06
5.3718e-07
0.00110173
-5.91864e-07
1.01168e-06
4.37226e-08
5.97528e-07
-7.25536e-07
-1.36679e-06
-5.75468e-08
-0.00110039
-1.53076e-06
1.10253e-06
5.37711e-07
0.00110138
-5.88993e-07
1.00634e-06
3.98721e-08
5.97612e-07
-7.27922e-07
-1.36647e-06
-5.52431e-08
-0.000270337
1.56434e-06
1.53092e-06
-5.81117e-07
-5.8677e-07
0.000268409
-1.07453e-06
-1.0756e-06
-0.00110529
5.45683e-07
5.46835e-07
0.00110635
-0.00110462
-1.53557e-06
1.07583e-06
5.28205e-07
0.00110557
-5.86156e-07
1.0239e-06
5.16652e-08
6.15495e-07
-7.13833e-07
-1.3605e-06
-4.45898e-08
-0.00110428
-1.52995e-06
1.0761e-06
5.28092e-07
0.00110522
-5.85998e-07
1.01857e-06
5.1806e-08
6.15425e-07
-7.16459e-07
-1.36036e-06
-4.24799e-08
-0.000271165
1.56381e-06
1.53018e-06
-5.74892e-07
-5.80714e-07
0.000269226
-1.05025e-06
-1.05139e-06
-0.00110948
5.35016e-07
5.36071e-07
0.00111051
-0.00110835
-1.53519e-06
1.05172e-06
5.19627e-07
0.00110926
-5.83686e-07
1.03564e-06
6.15163e-08
6.32381e-07
-7.02199e-07
-1.35396e-06
-3.34487e-08
-0.001108
-1.52952e-06
1.05182e-06
5.19408e-07
0.00110891
-5.83455e-07
1.03032e-06
6.1705e-08
6.32362e-07
-7.04839e-07
-1.35379e-06
-3.14064e-08
-0.00027194
1.56347e-06
1.52978e-06
-5.69243e-07
-5.75048e-07
0.000269991
-1.02653e-06
-1.02769e-06
-0.00111356
5.24314e-07
5.25178e-07
0.00111456
-0.00111192
-1.5349e-06
1.02811e-06
5.10373e-07
0.00111279
-5.80875e-07
1.04719e-06
7.03027e-08
6.47838e-07
-6.90361e-07
-1.34702e-06
-2.10424e-08
-0.00111157
-1.52927e-06
1.02783e-06
5.10065e-07
0.00111244
-5.80696e-07
1.0417e-06
7.04175e-08
6.4784e-07
-6.92981e-07
-1.34682e-06
-1.82197e-08
-0.000272663
1.56328e-06
1.52948e-06
-5.6407e-07
-5.69865e-07
0.000270704
-1.00382e-06
-1.00515e-06
-0.00111754
5.14139e-07
5.148e-07
0.00111852
-0.00111535
-1.53483e-06
1.00547e-06
5.00107e-07
0.00111618
-5.76963e-07
1.05786e-06
7.88863e-08
6.62103e-07
-6.77612e-07
-1.33922e-06
-8.91624e-09
-0.001115
-1.52921e-06
1.005e-06
5.00072e-07
0.00111583
-5.76868e-07
1.05236e-06
7.88923e-08
6.62132e-07
-6.80189e-07
-1.33898e-06
-6.04387e-09
-0.000273333
1.56322e-06
1.52941e-06
-5.58661e-07
-5.64323e-07
0.000271364
-9.81667e-07
-9.8303e-07
-0.00112143
5.04076e-07
5.04631e-07
0.00112238
-0.00111862
-1.53436e-06
9.83316e-07
4.89329e-07
0.00111942
-5.71823e-07
1.06777e-06
8.73568e-08
6.75092e-07
-6.6381e-07
-1.33035e-06
2.31646e-09
-0.00111827
-1.52879e-06
9.82735e-07
4.89331e-07
0.00111907
-5.7175e-07
1.06229e-06
8.73762e-08
6.75119e-07
-6.66375e-07
-1.33008e-06
5.21981e-09
-0.000273949
1.56282e-06
1.52894e-06
-5.52138e-07
-5.57792e-07
0.000271967
-9.59842e-07
-9.61104e-07
-0.00112521
4.94032e-07
4.94575e-07
0.00112615
-0.00112175
-1.53311e-06
9.61266e-07
4.78417e-07
0.0011225
-5.65585e-07
1.07756e-06
9.54124e-08
6.86987e-07
-6.49198e-07
-1.32048e-06
1.26407e-08
-0.00112139
-1.5275e-06
9.60766e-07
4.78282e-07
0.00112215
-5.65465e-07
1.07205e-06
9.54625e-08
6.87064e-07
-6.51793e-07
-1.32026e-06
1.55351e-08
-0.000274505
1.56168e-06
1.52762e-06
-5.44782e-07
-5.5056e-07
0.000272511
-9.38498e-07
-9.39689e-07
-0.00112891
4.84309e-07
4.84836e-07
0.00112982
-0.00112471
-1.53121e-06
9.39645e-07
4.67327e-07
0.00112543
-5.58048e-07
1.08687e-06
1.03179e-07
6.97822e-07
-6.33965e-07
-1.30963e-06
2.22301e-08
-0.00112436
-1.52564e-06
9.39306e-07
4.67346e-07
0.00112507
-5.57966e-07
1.08134e-06
1.03271e-07
6.97767e-07
-6.3665e-07
-1.3095e-06
2.51123e-08
-0.000275
1.55993e-06
1.52574e-06
-5.37003e-07
-5.42817e-07
0.000272994
-9.17425e-07
-9.18447e-07
-0.00113251
4.74599e-07
4.7516e-07
0.0011334
-0.00112751
-1.52873e-06
9.1829e-07
4.56119e-07
0.00112819
-5.49438e-07
1.09548e-06
1.10693e-07
7.07788e-07
-6.18511e-07
-1.2979e-06
3.22909e-08
-0.00112716
-1.52327e-06
9.17774e-07
4.55915e-07
0.00112783
-5.49483e-07
1.08977e-06
1.10632e-07
7.07554e-07
-6.21446e-07
-1.29788e-06
3.65484e-08
-0.00027543
1.55754e-06
1.52324e-06
-5.28648e-07
-5.34516e-07
0.000273412
-8.968e-07
-8.97864e-07
-0.00113602
4.65503e-07
4.65961e-07
0.00113688
-0.00113014
-1.52567e-06
8.97145e-07
4.44931e-07
0.00113078
-5.40046e-07
1.10327e-06
1.17744e-07
7.16529e-07
-6.03218e-07
-1.28596e-06
4.44245e-08
-0.00112979
-1.5202e-06
8.96939e-07
4.4481e-07
0.00113042
-5.4005e-07
1.09755e-06
1.17758e-07
7.16285e-07
-6.06042e-07
-1.28594e-06
4.8227e-08
-0.000275792
1.55449e-06
1.52009e-06
-5.19723e-07
-5.25602e-07
0.000273763
-8.76833e-07
-8.77653e-07
-0.00113944
4.56938e-07
4.5725e-07
0.00114028
-0.0011326
-1.52164e-06
8.76939e-07
4.34567e-07
0.00113319
-5.29637e-07
1.11059e-06
1.24734e-07
7.24572e-07
-5.87754e-07
-1.27312e-06
5.49019e-08
-0.00113224
-1.5162e-06
8.76856e-07
4.34703e-07
0.00113283
-5.29725e-07
1.10478e-06
1.24697e-07
7.24411e-07
-5.90645e-07
-1.27311e-06
5.84139e-08
-0.000276084
1.55049e-06
1.51608e-06
-5.10046e-07
-5.15883e-07
0.000274043
-8.5731e-07
-8.58057e-07
-0.00114275
4.48767e-07
4.49227e-07
0.00114357
-0.00113488
-1.51658e-06
8.57465e-07
4.24295e-07
0.00113542
-5.21512e-07
1.11728e-06
1.34347e-07
7.32218e-07
-5.72435e-07
-1.25921e-06
6.4287e-08
-0.00113452
-1.51112e-06
8.57495e-07
4.24512e-07
0.00113506
-5.18709e-07
1.11151e-06
1.31381e-07
7.32073e-07
-5.75231e-07
-1.25925e-06
6.77601e-08
-0.000276305
1.54549e-06
1.51106e-06
-4.996e-07
-5.054e-07
0.000274253
-8.37917e-07
-8.38814e-07
-0.001146
4.41042e-07
4.41508e-07
0.00114679
-0.00113697
-1.51034e-06
8.38272e-07
4.14421e-07
0.00113746
-5.10092e-07
1.12359e-06
1.40904e-07
7.39763e-07
-5.57213e-07
-1.24462e-06
7.30737e-08
-0.00113661
-1.50484e-06
8.38388e-07
4.14492e-07
0.0011371
-5.0727e-07
1.11788e-06
1.37836e-07
7.39541e-07
-5.60001e-07
-1.24462e-06
7.63735e-08
-0.000276455
1.53923e-06
1.50483e-06
-4.88321e-07
-4.94035e-07
0.000274393
-8.1864e-07
-8.19534e-07
-0.00114914
4.33588e-07
4.34008e-07
0.00114991
-0.00113886
-1.50279e-06
8.19255e-07
4.04732e-07
0.00113931
-4.98834e-07
1.12961e-06
1.47325e-07
7.4712e-07
-5.42131e-07
-1.22936e-06
8.14178e-08
-0.0011385
-1.49734e-06
8.19364e-07
4.04924e-07
0.00113895
-4.95993e-07
1.12394e-06
1.44244e-07
7.46911e-07
-5.44883e-07
-1.22934e-06
8.46391e-08
-0.000276535
1.53169e-06
1.4973e-06
-4.76143e-07
-4.81806e-07
0.000274464
-7.98948e-07
-7.9971e-07
-0.00115218
4.25917e-07
4.26218e-07
0.00115293
-0.00114056
-1.49422e-06
7.99438e-07
3.9539e-07
0.00114096
-4.8727e-07
1.13531e-06
1.53796e-07
7.54457e-07
-5.27388e-07
-1.21362e-06
8.96469e-08
-0.0011402
-1.48875e-06
7.99703e-07
3.95389e-07
0.0011406
-4.84434e-07
1.12964e-06
1.5067e-07
7.54238e-07
-5.30102e-07
-1.21358e-06
9.28602e-08
-0.00027655
1.52319e-06
1.48877e-06
-4.63442e-07
-4.69091e-07
0.000274471
-7.78851e-07
-7.79931e-07
-0.00115513
4.18348e-07
4.18589e-07
0.00115585
-0.00114207
-1.48472e-06
7.79701e-07
3.85594e-07
0.00114241
-4.75727e-07
1.14072e-06
1.60164e-07
7.61743e-07
-5.12785e-07
-1.19759e-06
9.78159e-08
-0.00114171
-1.47925e-06
7.79682e-07
3.85861e-07
0.00114205
-4.72964e-07
1.13502e-06
1.571e-07
7.61547e-07
-5.15396e-07
-1.19749e-06
1.00967e-07
-0.000276505
1.51372e-06
1.47931e-06
-4.50395e-07
-4.56077e-07
0.000274418
-7.58014e-07
-7.59166e-07
-0.00115798
4.10208e-07
4.10484e-07
0.00115868
-0.00114337
-1.4746e-06
7.58685e-07
3.76425e-07
0.00114367
-4.64067e-07
1.14593e-06
1.66389e-07
7.69023e-07
-4.98443e-07
-1.18136e-06
1.05982e-07
-0.00114301
-1.46903e-06
7.58797e-07
3.76636e-07
0.00114331
-4.61362e-07
1.14024e-06
1.63308e-07
7.68842e-07
-5.01072e-07
-1.18121e-06
1.09064e-07
-0.000276405
1.50352e-06
1.4691e-06
-4.37305e-07
-4.42948e-07
0.000274313
-7.36588e-07
-7.37854e-07
-0.00116073
4.0186e-07
4.02153e-07
0.0011614
-0.00114449
-1.46367e-06
7.37411e-07
3.66977e-07
0.00114473
-4.52736e-07
1.15106e-06
1.72277e-07
7.76249e-07
-4.84213e-07
-1.16511e-06
1.14052e-07
-0.00114412
-1.45808e-06
7.37311e-07
3.67097e-07
0.00114437
-4.49966e-07
1.14547e-06
1.69208e-07
7.7607e-07
-4.86852e-07
-1.16497e-06
1.17121e-07
-0.000276259
1.49256e-06
1.45811e-06
-4.24135e-07
-4.29797e-07
0.000274162
-7.14499e-07
-7.15646e-07
-0.00116337
3.93106e-07
3.93455e-07
0.00116401
-0.00114541
-1.45221e-06
7.1524e-07
3.57532e-07
0.00114561
-4.41561e-07
1.15631e-06
1.78122e-07
7.83357e-07
-4.70376e-07
-1.14903e-06
1.21903e-07
-0.00114504
-1.44658e-06
7.15132e-07
3.57271e-07
0.00114524
-4.38772e-07
1.15078e-06
1.75138e-07
7.83219e-07
-4.72945e-07
-1.14886e-06
1.24968e-07
-0.000276074
1.48113e-06
1.44666e-06
-4.11174e-07
-4.16743e-07
0.000273974
-6.91847e-07
-6.92818e-07
-0.0011659
3.84165e-07
3.84575e-07
0.00116652
-0.00114614
-1.44016e-06
6.9255e-07
3.46912e-07
0.0011463
-4.30607e-07
1.16167e-06
1.83949e-07
7.90364e-07
-4.56799e-07
-1.13315e-06
1.29675e-07
-0.00114577
-1.43456e-06
6.92353e-07
3.46693e-07
0.00114593
-4.27752e-07
1.15617e-06
1.81024e-07
7.9026e-07
-4.5938e-07
-1.13297e-06
1.32712e-07
-0.000275858
1.46913e-06
1.43467e-06
-3.98291e-07
-4.03888e-07
0.000273756
-6.68611e-07
-6.69462e-07
-0.00116833
3.75066e-07
3.75624e-07
0.00116891
-0.0011467
-1.42791e-06
6.69262e-07
3.35575e-07
0.00114681
-4.19796e-07
1.16697e-06
1.89675e-07
7.97167e-07
-4.43593e-07
-1.11761e-06
1.37329e-07
-0.00114633
-1.42232e-06
6.69021e-07
3.35217e-07
0.00114644
-4.16938e-07
1.1615e-06
1.86818e-07
7.97134e-07
-4.46153e-07
-1.11744e-06
1.40356e-07
-0.000275619
1.45689e-06
1.42242e-06
-3.85743e-07
-3.91327e-07
0.000273517
-6.44753e-07
-6.45362e-07
-0.00117063
3.65673e-07
3.66324e-07
0.00117119
-0.00114709
-1.41549e-06
6.45174e-07
3.23496e-07
0.00114716
-4.09255e-07
1.17231e-06
1.95283e-07
8.03958e-07
-4.30691e-07
-1.10247e-06
1.44832e-07
-0.00114672
-1.40987e-06
6.45062e-07
3.23219e-07
0.0011468
-4.0643e-07
1.16681e-06
1.92438e-07
8.03752e-07
-4.33316e-07
-1.10235e-06
1.4782e-07
-0.000275364
1.44467e-06
1.41019e-06
-3.73689e-07
-3.79262e-07
0.000273262
-6.20143e-07
-6.20799e-07
-0.00117282
3.56139e-07
3.5678e-07
0.00117335
-0.00114732
-1.40327e-06
6.20695e-07
3.10897e-07
0.00114736
-3.99027e-07
1.17756e-06
2.00766e-07
8.10331e-07
-4.18254e-07
-1.08788e-06
1.52126e-07
-0.00114696
-1.39768e-06
6.20541e-07
3.1055e-07
0.00114699
-3.96084e-07
1.1721e-06
1.97992e-07
8.1021e-07
-4.20811e-07
-1.08778e-06
1.55131e-07
-0.000275099
1.43227e-06
1.3978e-06
-3.61957e-07
-3.67482e-07
0.000272998
-5.95196e-07
-5.9595e-07
-0.00117489
3.46645e-07
3.47268e-07
0.00117538
-0.00114742
-1.39107e-06
5.95771e-07
2.97297e-07
0.00114742
-3.88983e-07
1.18264e-06
2.06238e-07
8.1657e-07
-4.06258e-07
-1.07386e-06
1.59185e-07
-0.00114705
-1.38556e-06
5.95694e-07
2.9696e-07
0.00114705
-3.86135e-07
1.1771e-06
2.03372e-07
8.16481e-07
-4.08831e-07
-1.07366e-06
1.62185e-07
-0.000274829
1.42022e-06
1.38576e-06
-3.50783e-07
-3.56357e-07
0.00027273
-5.69947e-07
-5.70764e-07
-0.00117683
3.37221e-07
3.37683e-07
0.00117729
-0.00114738
-1.37939e-06
5.70654e-07
2.8274e-07
0.00114735
-3.79331e-07
1.18759e-06
2.11428e-07
8.22647e-07
-3.94644e-07
-1.0602e-06
1.66062e-07
-0.00114701
-1.37372e-06
5.70458e-07
2.82613e-07
0.00114699
-3.76492e-07
1.18201e-06
2.08598e-07
8.22447e-07
-3.97329e-07
-1.06013e-06
1.68966e-07
-0.000274558
1.40831e-06
1.37387e-06
-3.40107e-07
-3.45632e-07
0.000272462
-5.44653e-07
-5.45422e-07
-0.00117864
3.27813e-07
3.28306e-07
0.00117908
-0.00114723
-1.36778e-06
5.45251e-07
2.67602e-07
0.00114718
-3.69979e-07
1.19228e-06
2.16555e-07
8.28303e-07
-3.83564e-07
-1.04736e-06
1.72589e-07
-0.00114686
-1.36224e-06
5.45182e-07
2.67454e-07
0.00114681
-3.67185e-07
1.18669e-06
2.13674e-07
8.28156e-07
-3.86146e-07
-1.04727e-06
1.75566e-07
-0.00027429
1.39675e-06
1.36232e-06
-3.29928e-07
-3.35444e-07
0.000272196
-5.19039e-07
-5.19809e-07
-0.00118033
3.18392e-07
3.18849e-07
0.00118073
-0.00114698
-1.35666e-06
5.19769e-07
2.51863e-07
0.0011469
-3.61019e-07
1.19674e-06
2.21394e-07
8.33765e-07
-3.72966e-07
-1.035e-06
1.78909e-07
-0.00114661
-1.35109e-06
5.19534e-07
2.51828e-07
0.00114653
-3.5819e-07
1.19118e-06
2.18556e-07
8.33659e-07
-3.75544e-07
-1.03493e-06
1.81815e-07
-0.000274026
1.38554e-06
1.35118e-06
-3.20277e-07
-3.25755e-07
0.000271935
-4.93359e-07
-4.94052e-07
-0.00118189
3.08923e-07
3.09362e-07
0.00118226
-0.00114664
-1.34595e-06
4.94199e-07
2.35707e-07
0.00114655
-3.52473e-07
1.20093e-06
2.26004e-07
8.38986e-07
-3.6283e-07
-1.02327e-06
1.84862e-07
-0.00114627
-1.34044e-06
4.93909e-07
2.35556e-07
0.00114618
-3.49619e-07
1.19541e-06
2.23192e-07
8.389e-07
-3.65416e-07
-1.02313e-06
1.878e-07
-0.000273769
1.37487e-06
1.34051e-06
-3.11189e-07
-3.16624e-07
0.000271681
-4.67561e-07
-4.68248e-07
-0.00118332
2.99373e-07
2.99795e-07
0.00118365
-0.00114623
-1.3357e-06
4.68341e-07
2.19353e-07
0.00114612
-3.44269e-07
1.20484e-06
2.30418e-07
8.44045e-07
-3.53149e-07
-1.01207e-06
1.90562e-07
-0.00114586
-1.33017e-06
4.68047e-07
2.1919e-07
0.00114575
-3.4142e-07
1.19935e-06
2.27602e-07
8.43966e-07
-3.55744e-07
-1.01196e-06
1.93459e-07
-0.00027352
1.3646e-06
1.3303e-06
-3.02588e-07
-3.08e-07
0.000271435
-4.41722e-07
-4.42293e-07
-0.00118461
2.89597e-07
2.9009e-07
0.00118492
-0.00114576
-1.32591e-06
4.42324e-07
2.02951e-07
0.00114564
-3.36426e-07
1.20847e-06
2.34612e-07
8.48745e-07
-3.43901e-07
-1.00141e-06
1.96001e-07
-0.00114539
-1.32038e-06
4.42147e-07
2.02708e-07
0.00114527
-3.33602e-07
1.20303e-06
2.3178e-07
8.48713e-07
-3.4653e-07
-1.00125e-06
1.98857e-07
-0.000273279
1.35482e-06
1.32054e-06
-2.94467e-07
-2.99883e-07
0.000271198
-4.15869e-07
-4.1628e-07
-0.00118578
2.79628e-07
2.80062e-07
0.00118606
-0.00114524
-1.31671e-06
4.16372e-07
1.86558e-07
0.00114511
-3.28978e-07
1.2119e-06
2.38533e-07
8.53231e-07
-3.35073e-07
-9.91319e-07
2.01191e-07
-0.00114488
-1.3111e-06
4.16141e-07
1.86315e-07
0.00114474
-3.26186e-07
1.20641e-06
2.35699e-07
8.53132e-07
-3.377e-07
-9.91172e-07
2.04025e-07
-0.000273047
1.34545e-06
1.31115e-06
-2.8674e-07
-2.92183e-07
0.000270969
-3.89795e-07
-4.01748e-07
-0.00118682
2.69302e-07
2.69725e-07
0.00118707
-0.00114469
-1.30783e-06
3.90349e-07
1.70424e-07
0.00114455
-3.21894e-07
1.21504e-06
2.4217e-07
8.57403e-07
-3.26713e-07
-9.8177e-07
2.06056e-07
-0.00114432
-1.30225e-06
3.90169e-07
1.70316e-07
0.00114418
-3.19146e-07
1.2095e-06
2.39404e-07
8.57354e-07
-3.29288e-07
-9.81619e-07
2.08922e-07
-0.000272825
1.3367e-06
1.30241e-06
-2.79643e-07
-2.85072e-07
0.00027075
-3.63883e-07
-3.64496e-07
-0.00118775
2.58681e-07
2.59026e-07
0.00118796
-0.00114411
-1.29952e-06
3.64356e-07
1.54869e-07
0.00114396
-3.12576e-07
1.21794e-06
2.42714e-07
8.61452e-07
-3.18749e-07
-9.72677e-07
2.10658e-07
-0.00114374
-1.29392e-06
3.64168e-07
1.54736e-07
0.00114359
-3.1252e-07
1.21242e-06
2.42793e-07
8.61327e-07
-3.21348e-07
-9.72536e-07
2.1352e-07
-0.000272612
1.32832e-06
1.29402e-06
-2.72907e-07
-2.78332e-07
0.000270541
-3.38073e-07
-3.38666e-07
-0.00118855
2.4768e-07
2.47935e-07
0.00118873
-0.00114351
-1.2916e-06
3.38491e-07
1.39607e-07
0.00114336
-3.06209e-07
1.22054e-06
2.45993e-07
8.652e-07
-3.11149e-07
-9.6411e-07
2.15031e-07
-0.00114314
-1.28609e-06
3.38392e-07
1.39613e-07
0.00114299
-3.06207e-07
1.21503e-06
2.45955e-07
8.65091e-07
-3.13788e-07
-9.63961e-07
2.17888e-07
-0.00027241
1.32045e-06
1.28614e-06
-2.66607e-07
-2.72072e-07
0.000270342
-3.12444e-07
-3.13065e-07
-0.00118923
2.36246e-07
2.36402e-07
0.00118938
-0.0011429
-1.28418e-06
3.12834e-07
1.25047e-07
0.00114274
-3.00316e-07
1.22298e-06
2.48847e-07
8.68799e-07
-3.03944e-07
-9.55967e-07
2.19156e-07
-0.00114253
-1.27869e-06
3.12694e-07
1.25039e-07
0.00114238
-3.00342e-07
1.21742e-06
2.48861e-07
8.68671e-07
-3.06618e-07
-9.55757e-07
2.21978e-07
-0.000272217
1.31299e-06
1.27866e-06
-2.60721e-07
-2.66194e-07
0.000270152
-2.87155e-07
-2.87716e-07
-0.0011898
2.24358e-07
2.24439e-07
0.00118993
-0.00114228
-1.27716e-06
2.87387e-07
1.11243e-07
0.00114213
-2.94804e-07
1.22519e-06
2.51524e-07
8.72177e-07
-2.97126e-07
-9.48262e-07
2.23056e-07
-0.00114191
-1.27169e-06
2.87308e-07
1.11328e-07
0.00114176
-2.9487e-07
1.21961e-06
2.51489e-07
8.72028e-07
-2.9977e-07
-9.48141e-07
2.25883e-07
-0.000272034
1.30604e-06
1.27171e-06
-2.55262e-07
-2.60797e-07
0.000269972
-2.62002e-07
-2.62653e-07
-0.00119027
2.11958e-07
2.11926e-07
0.00119037
-0.00114167
-1.27061e-06
2.62308e-07
9.81762e-08
0.00114152
-2.89631e-07
1.22711e-06
2.53976e-07
8.75374e-07
-2.90666e-07
-9.40959e-07
2.26733e-07
-0.0011413
-1.26517e-06
2.62204e-07
9.83267e-08
0.00114115
-2.89687e-07
1.2215e-06
2.53948e-07
8.75226e-07
-2.93317e-07
-9.40832e-07
2.29547e-07
-0.000271861
1.29947e-06
1.26516e-06
-2.5022e-07
-2.55687e-07
0.000269802
-2.37156e-07
-2.37802e-07
-0.00119063
1.99001e-07
1.98895e-07
0.00119071
-0.00114107
-1.26452e-06
2.37542e-07
8.60298e-08
0.00114092
-2.84806e-07
1.22886e-06
2.56188e-07
8.78367e-07
-2.84537e-07
-9.34078e-07
2.30203e-07
-0.0011407
-1.25906e-06
2.37475e-07
8.63086e-08
0.00114055
-2.84921e-07
1.2233e-06
2.56124e-07
8.78214e-07
-2.87213e-07
-9.33951e-07
2.32987e-07
-0.000271697
1.29331e-06
1.25904e-06
-2.45527e-07
-2.51007e-07
0.000269641
5.22566e-06
5.23672e-06
0.000260566
-0.000259153
-5.94512e-06
-5.93055e-06
5.05356e-06
0.000261439
-0.000258684
-5.96341e-06
3.3809e-06
-5.22573e-06
5.04845e-06
0.000261472
-0.000258699
-5.97117e-06
3.37592e-06
5.22648e-06
0.000260579
-0.000259155
-5.9165e-06
-5.95937e-06
5.04652e-06
0.000261503
-0.000258715
-5.96878e-06
3.37083e-06
5.05299e-06
-5.22836e-06
0.000261446
-0.000258684
3.38592e-06
-5.97257e-06
1.0692e-05
1.05982e-05
-0.000252646
-0.000256096
-0.000255126
-0.000255126
-6.41913e-06
-4.11051e-06
-6.65458e-06
-6.41946e-06
-4.11132e-06
-6.66003e-06
-5.04141e-06
0.0010422
1.06507e-05
1.06038e-05
-0.000252649
-0.000256094
-0.000255129
-0.000255129
-6.42164e-06
-4.11065e-06
-6.65722e-06
-6.41663e-06
-4.1059e-06
-6.65216e-06
-5.04123e-06
0.00104208
1.07115e-05
1.06645e-05
-0.000252641
-0.000256089
-0.000255126
-0.000255121
-6.42152e-06
-4.11787e-06
-6.65704e-06
-6.42177e-06
-4.10841e-06
-6.65471e-06
-5.05576e-06
-5.04299e-06
0.00104214
1.07054e-05
1.06068e-05
-0.000252643
-0.000256091
-0.000255126
-0.000255126
-6.41616e-06
-4.11287e-06
-6.6519e-06
-6.42077e-06
-4.11109e-06
-6.65637e-06
-0.000258709
-5.96111e-06
3.36581e-06
-5.2248e-06
0.000261433
-0.000258681
3.3803e-06
-5.96335e-06
5.22862e-06
0.000260558
-0.00025914
-5.91816e-06
-5.95697e-06
-0.000258694
3.37323e-06
-5.9584e-06
-5.23624e-06
0.000261499
-0.000258708
3.36736e-06
-5.96451e-06
-0.000259149
-5.94476e-06
-5.92944e-06
5.65973e-06
5.69705e-06
-4.95414e-06
-4.94738e-06
0.000259111
-8.12194e-07
-7.76848e-07
0.000261576
-0.000259443
-2.75801e-07
-2.6842e-07
7.14225e-06
0.00105866
-4.59072e-06
-1.55058e-06
-2.11586e-06
-2.49148e-06
-6.6385e-06
-7.12067e-06
-2.99267e-06
-0.000263293
-0.000259718
-0.00026282
-5.66996e-06
1.46032e-05
7.07958e-06
0.00105902
-4.6093e-06
-1.54291e-06
-2.11866e-06
-2.50102e-06
-6.6693e-06
-7.13628e-06
-3.00741e-06
-0.000263367
-0.000259748
-0.000262861
0.00106199
2.12352e-06
-0.00106095
1.04446e-06
-1.75884e-06
-1.32098e-07
-7.46894e-07
-1.54203e-06
-2.91828e-07
-9.12267e-07
3.63915e-07
8.20961e-07
0.00106241
2.12296e-06
-0.00106136
1.03793e-06
-1.76855e-06
-1.24423e-07
-7.51782e-07
-1.54789e-06
-2.92208e-07
-9.12994e-07
3.69194e-07
-4.9517e-06
-4.94425e-06
0.000259121
-7.7986e-07
0.000261601
-0.000259463
-2.72335e-07
-2.65345e-07
6.86338e-06
0.00105949
-4.61487e-06
-1.61066e-06
-2.13208e-06
-2.50084e-06
-6.6523e-06
-7.13295e-06
-3.00322e-06
-0.000263388
-0.000259777
-0.000262874
-5.67004e-06
1.46385e-05
7.17414e-06
0.0010588
-4.60956e-06
-1.55324e-06
-2.12387e-06
-2.50476e-06
-6.66862e-06
-7.13628e-06
-3.00779e-06
-0.000259718
-0.000263344
-0.000262832
0.00106301
2.1313e-06
-0.00106195
1.03265e-06
-1.72887e-06
-1.34295e-07
-7.47184e-07
-1.54543e-06
-2.9206e-07
-9.10555e-07
3.66241e-07
8.09911e-07
0.0010621
2.13353e-06
-0.00106108
1.05433e-06
-1.75862e-06
-1.29784e-07
-7.471e-07
-1.54527e-06
-2.87804e-07
-9.1442e-07
3.64284e-07
1.46352e-05
7.16107e-06
0.0010586
-4.58987e-06
-1.55038e-06
-2.11274e-06
-2.4913e-06
-6.63844e-06
-2.99282e-06
-7.11807e-06
-0.000259712
-0.000263288
-0.000262814
2.13059e-06
-0.0010617
1.03667e-06
-1.72838e-06
-1.31326e-07
-7.43594e-07
-1.54292e-06
-2.94672e-07
3.60699e-07
-9.10406e-07
8.09816e-07
0.00106189
2.13335e-06
-0.00106087
1.05431e-06
-1.75861e-06
-1.29596e-07
-7.46719e-07
-1.54479e-06
-2.91738e-07
-9.12306e-07
3.66518e-07
-4.95648e-06
-4.94449e-06
0.000259101
-7.71463e-07
0.000261553
-0.000259425
-2.7599e-07
-2.70786e-07
1.4537e-05
6.87945e-06
0.00105944
-4.6145e-06
-1.6099e-06
-2.13143e-06
-2.50316e-06
-6.65043e-06
-3.00187e-06
-7.13317e-06
-0.000259765
-0.000263383
-0.000262867
2.136e-06
-0.0010614
1.05322e-06
-1.72639e-06
-1.34176e-07
-7.46856e-07
-1.53948e-06
-2.89455e-07
3.61181e-07
-9.1256e-07
7.71578e-07
0.00106291
2.1372e-06
-0.00106187
1.04285e-06
-1.72377e-06
-1.34155e-07
-7.44431e-07
-1.54328e-06
-2.92346e-07
-9.13522e-07
3.60845e-07
-0.00025944
-2.73219e-07
-2.70967e-07
1.65101e-06
1.61599e-06
-6.95589e-07
-7.038e-07
0.000259709
-9.07163e-07
-8.68654e-07
0.000262815
-0.000260649
-1.98692e-07
-1.91462e-07
8.31795e-07
0.00106318
-6.82507e-07
8.6788e-07
-9.48226e-08
4.23439e-07
-8.50076e-07
-1.43377e-06
-2.54713e-07
-1.65554e-06
1.65215e-06
8.25711e-07
0.0010636
-6.84801e-07
8.76494e-07
-9.43027e-08
4.28701e-07
-8.5341e-07
-1.43983e-06
-2.52667e-07
0.00106712
1.39049e-06
-0.00106578
6.99497e-07
-1.60521e-06
-7.01488e-08
-6.63267e-07
-1.3935e-06
-2.2613e-07
-8.34673e-07
4.59478e-07
9.12842e-07
0.00106755
1.38962e-06
-0.00106621
6.93781e-07
-1.61007e-06
-6.99553e-08
-6.63197e-07
-1.39642e-06
-2.26185e-07
-8.35157e-07
4.62561e-07
-6.95424e-07
-7.02919e-07
0.000259726
-8.74216e-07
0.000262841
-0.000260662
-1.98505e-07
-1.9344e-07
8.26239e-07
0.0010642
-6.80327e-07
8.323e-07
-9.70946e-08
4.26135e-07
-8.52981e-07
-1.43681e-06
-2.52144e-07
-1.65089e-06
1.65687e-06
8.31786e-07
0.00106329
-6.85631e-07
8.68099e-07
-9.50458e-08
4.24184e-07
-8.51719e-07
-1.43394e-06
-2.50744e-07
0.00106814
1.39066e-06
-0.00106681
6.99804e-07
-1.56775e-06
-7.46542e-08
-6.58679e-07
-1.39104e-06
-2.23837e-07
-8.35092e-07
4.62374e-07
9.02564e-07
0.00106723
1.38832e-06
-0.00106589
6.98853e-07
-1.6021e-06
-7.21251e-08
-6.63225e-07
-1.39337e-06
-2.25933e-07
-8.3495e-07
4.63008e-07
1.65266e-06
8.32107e-07
0.00106309
-6.85205e-07
8.6544e-07
-9.70364e-08
4.23548e-07
-8.52712e-07
-2.52192e-07
-1.43393e-06
1.39032e-06
-0.00106655
7.03501e-07
-1.57518e-06
-7.63489e-08
-6.57971e-07
-1.39113e-06
-2.2392e-07
4.62103e-07
-8.3503e-07
9.04751e-07
0.00106702
1.38477e-06
-0.00106568
6.99751e-07
-1.60236e-06
-7.21771e-08
-6.63157e-07
-1.39374e-06
-2.26368e-07
-8.3504e-07
4.59423e-07
-6.98606e-07
-7.00623e-07
0.000259688
-8.6665e-07
0.000262789
-0.000260629
-1.97907e-07
-1.93459e-07
1.65454e-06
8.20852e-07
0.00106412
-6.80336e-07
8.2695e-07
-1.01625e-07
4.20794e-07
-8.50899e-07
-2.57391e-07
-1.43174e-06
1.38991e-06
-0.00106622
6.97839e-07
-1.56432e-06
-7.63119e-08
-6.57828e-07
-1.38549e-06
-2.26129e-07
4.54277e-07
-8.34877e-07
8.6865e-07
0.00106805
1.39085e-06
-0.00106671
6.99026e-07
-1.56512e-06
-7.67154e-08
-6.58582e-07
-1.39367e-06
-2.26324e-07
-8.37967e-07
4.59718e-07
-0.000260637
-1.98772e-07
-1.93688e-07
1.60506e-06
1.57274e-06
-6.60917e-07
-6.69265e-07
0.000260968
-9.27949e-07
-8.91967e-07
0.000264095
-0.000261921
-1.79822e-07
-1.74957e-07
6.91335e-07
0.00106846
-6.65036e-07
9.11609e-07
-6.6964e-08
4.61833e-07
-8.34457e-07
-1.39351e-06
-2.23648e-07
-1.61002e-06
1.3751e-06
7.01259e-07
0.00106889
-6.64968e-07
9.17288e-07
-6.67604e-08
4.67694e-07
-8.37338e-07
-1.39894e-06
-2.18792e-07
0.00107247
1.35978e-06
-0.00107114
6.74827e-07
-1.60621e-06
-5.60671e-08
-6.59064e-07
-1.40308e-06
-2.04285e-07
-8.28758e-07
4.71649e-07
9.33817e-07
0.00107288
1.35954e-06
-0.00107156
6.7417e-07
-1.61106e-06
-5.37083e-08
-6.61512e-07
-1.41122e-06
-1.99552e-07
-8.34207e-07
4.80039e-07
-6.63756e-07
-6.65695e-07
0.000260988
-8.95012e-07
0.000264123
-0.000261946
-1.76829e-07
-1.71722e-07
6.91428e-07
0.0010695
-6.63046e-07
8.75656e-07
-7.14146e-08
4.64689e-07
-8.37488e-07
-1.39889e-06
-2.1899e-07
-1.60188e-06
1.37393e-06
6.95947e-07
0.00106857
-6.64799e-07
9.09645e-07
-6.66216e-08
4.65319e-07
-8.37486e-07
-1.39603e-06
-2.18834e-07
0.00107349
1.3608e-06
-0.00107217
6.74213e-07
-1.5711e-06
-5.82118e-08
-6.56889e-07
-1.40589e-06
-1.99619e-07
-8.34349e-07
4.7445e-07
9.28364e-07
0.00107257
1.35832e-06
-0.00107124
6.73836e-07
-1.60587e-06
-5.37044e-08
-6.61461e-07
-1.40515e-06
-1.99186e-07
-8.33916e-07
4.75317e-07
1.38051e-06
6.91412e-07
0.00106837
-6.62227e-07
9.06578e-07
-7.10794e-08
4.64382e-07
-8.37371e-07
-2.21458e-07
-1.39643e-06
1.35953e-06
-0.00107191
6.73255e-07
-1.57331e-06
-5.77683e-08
-6.56231e-07
-1.40303e-06
-2.01873e-07
4.71864e-07
-8.31456e-07
9.22856e-07
0.00107237
1.35939e-06
-0.00107104
6.74847e-07
-1.6008e-06
-5.79572e-08
-6.56173e-07
-1.40332e-06
-2.02045e-07
-8.31571e-07
4.71601e-07
-6.6297e-07
-6.6833e-07
0.000260952
-8.89858e-07
0.000264074
-0.000261904
-1.78967e-07
-1.72214e-07
1.37612e-06
6.95879e-07
0.0010694
-6.57663e-07
8.67833e-07
-7.55961e-08
4.62089e-07
-8.3501e-07
-2.21385e-07
-1.39376e-06
1.36011e-06
-0.00107157
6.72855e-07
-1.56779e-06
-5.98851e-08
-6.5361e-07
-1.40309e-06
-1.99588e-07
4.71505e-07
-8.34121e-07
8.89332e-07
0.00107341
1.36053e-06
-0.00107208
6.73837e-07
-1.56849e-06
-6.01976e-08
-6.54189e-07
-1.40076e-06
-2.01973e-07
-8.31775e-07
4.69175e-07
-0.000261918
-1.77292e-07
-1.72192e-07
1.60505e-06
1.56984e-06
-6.53063e-07
-6.58837e-07
0.000262232