/*--------------------------------*- C++ -*----------------------------------*\
| =========                 |                                                 |
| \\      /  F ield         | OpenFOAM: The Open Source CFD Toolbox           |
|  \\    /   O peration     | Version:  v2012                                 |
|   \\  /    A nd           | Website:  www.openfoam.com                      |
|    \\/     M anipulation  |                                                 |
\*---------------------------------------------------------------------------*/
FoamFile
{
    version     2.0;
    format      ascii;
    class       volVectorField;
    location    "350";
    object      U;
}
// * * * * * * * * * * * * * * * * * * * * * * * * * * * * * * * * * * * * * //

dimensions      [0 1 -1 0 0 0 0];


internalField   nonuniform List<vector> 
85864
(
(0.000106253 0.000106178 0.100294)
(-0.000184867 0.000115558 0.10039)
(0.000115592 -0.000184993 0.10039)
(-0.00024769 -0.000247608 0.100398)
(9.7182e-05 9.71812e-05 0.100854)
(-0.00015155 9.34512e-05 0.100938)
(9.3604e-05 -0.000151428 0.100938)
(-0.000194328 -0.000194315 0.100971)
(9.70404e-05 9.7118e-05 0.101368)
(-0.000152243 9.08881e-05 0.101447)
(9.08432e-05 -0.00015225 0.101447)
(-0.000194829 -0.000194768 0.101474)
(9.48429e-05 9.4852e-05 0.101886)
(-0.000149207 8.71297e-05 0.101954)
(8.71292e-05 -0.000149331 0.101954)
(-0.000192197 -0.000192175 0.101967)
(9.14991e-05 9.14139e-05 0.102391)
(-0.000143606 8.23993e-05 0.102442)
(8.2449e-05 -0.0001436 0.102442)
(-0.00018695 -0.000186945 0.102435)
(8.80228e-05 8.79259e-05 0.102877)
(-0.000137733 7.83621e-05 0.102907)
(7.83927e-05 -0.000137721 0.102907)
(-0.000181524 -0.000181534 0.102874)
(8.48322e-05 8.47877e-05 0.103344)
(-0.000132344 7.51281e-05 0.103348)
(7.51496e-05 -0.000132337 0.103348)
(-0.000176895 -0.000176897 0.103285)
(8.20972e-05 8.20939e-05 0.103793)
(-0.000127629 7.25617e-05 0.103768)
(7.25887e-05 -0.000127568 0.103768)
(-0.000173186 -0.000173129 0.103668)
(7.98165e-05 7.98178e-05 0.104226)
(-0.000123537 7.05491e-05 0.104168)
(7.05897e-05 -0.000123448 0.104168)
(-0.000170263 -0.000170226 0.104027)
(7.78742e-05 7.78497e-05 0.104646)
(-0.000120018 6.92103e-05 0.104551)
(6.91547e-05 -0.000119947 0.104551)
(-0.000168107 -0.000168107 0.104363)
(7.61329e-05 7.61117e-05 0.105053)
(-0.000116865 6.81355e-05 0.104917)
(6.80875e-05 -0.000116829 0.104917)
(-0.000166547 -0.000166595 0.104678)
(7.45607e-05 7.45293e-05 0.10545)
(-0.000113919 6.71417e-05 0.105269)
(6.70888e-05 -0.00011386 0.105269)
(-0.000165217 -0.000165253 0.104972)
(7.30909e-05 7.30476e-05 0.105836)
(-0.00011124 6.61469e-05 0.105607)
(6.61186e-05 -0.000111203 0.105607)
(-0.000164071 -0.000164136 0.105246)
(7.1633e-05 7.15844e-05 0.106214)
(-0.00010875 6.50705e-05 0.10593)
(6.50607e-05 -0.000108708 0.10593)
(-0.000163031 -0.000163034 0.105498)
(7.02061e-05 7.01512e-05 0.106581)
(-0.000106309 6.40263e-05 0.106239)
(6.4005e-05 -0.000106263 0.106239)
(-0.00016178 -0.000161755 0.105728)
(6.87923e-05 6.8745e-05 0.10694)
(-0.000103916 6.30267e-05 0.106534)
(6.30024e-05 -0.000103883 0.106534)
(-0.000160271 -0.000160292 0.105935)
(6.7412e-05 6.7368e-05 0.10729)
(-0.000101572 6.20163e-05 0.106813)
(6.19969e-05 -0.00010156 0.106813)
(-0.000158629 -0.000158678 0.106117)
(6.60946e-05 6.60522e-05 0.107631)
(-9.92873e-05 6.10107e-05 0.107077)
(6.10351e-05 -9.93865e-05 0.107077)
(-0.000156792 -0.000156862 0.106274)
(6.48165e-05 6.47792e-05 0.107963)
(-9.72972e-05 6.00764e-05 0.107325)
(6.0098e-05 -9.74192e-05 0.107325)
(-0.000154708 -0.000154793 0.106405)
(6.35574e-05 6.35101e-05 0.108287)
(-9.54401e-05 5.90892e-05 0.107556)
(5.91436e-05 -9.55501e-05 0.107556)
(-0.000152284 -0.000152358 0.106509)
(6.23052e-05 6.22718e-05 0.108602)
(-9.36078e-05 5.807e-05 0.10777)
(5.81029e-05 -9.37138e-05 0.10777)
(-0.000149453 -0.000149501 0.106585)
(6.10682e-05 6.10422e-05 0.108908)
(-9.16853e-05 5.69164e-05 0.107966)
(5.69507e-05 -9.18008e-05 0.107966)
(-0.00014611 -0.000146136 0.106634)
(5.98099e-05 5.98025e-05 0.109205)
(-8.96012e-05 5.57217e-05 0.108144)
(5.57473e-05 -8.97228e-05 0.108144)
(-0.00014221 -0.000142228 0.106658)
(5.85584e-05 5.85441e-05 0.109494)
(-8.73565e-05 5.45009e-05 0.108303)
(5.45122e-05 -8.74475e-05 0.108303)
(-0.000137944 -0.000137961 0.106657)
(5.73163e-05 5.72874e-05 0.109773)
(-8.49775e-05 5.32424e-05 0.108444)
(5.32151e-05 -8.50552e-05 0.108443)
(-0.000133328 -0.000133331 0.106633)
(5.6015e-05 5.59761e-05 0.110042)
(-8.24441e-05 5.19272e-05 0.108565)
(5.18964e-05 -8.2498e-05 0.108565)
(-0.000128465 -0.000128463 0.10659)
(5.46556e-05 5.46177e-05 0.110302)
(-7.97746e-05 5.05199e-05 0.108669)
(5.0487e-05 -7.98177e-05 0.108668)
(-0.00012336 -0.000123368 0.106529)
(5.32449e-05 5.32139e-05 0.110552)
(-7.69473e-05 4.89828e-05 0.108754)
(4.89417e-05 -7.69771e-05 0.108753)
(-0.000118189 -0.000118196 0.106455)
(5.1801e-05 5.17771e-05 0.110791)
(-7.39819e-05 4.72897e-05 0.108821)
(4.72424e-05 -7.39988e-05 0.108821)
(-0.000112884 -0.000112895 0.106369)
(5.03392e-05 5.03325e-05 0.11102)
(-7.08887e-05 4.5485e-05 0.108872)
(4.54294e-05 -7.09121e-05 0.108872)
(-0.000107596 -0.00010762 0.106275)
(4.88627e-05 4.886e-05 0.111237)
(-6.77059e-05 4.35839e-05 0.108907)
(4.35297e-05 -6.77266e-05 0.108907)
(-0.000102443 -0.000102471 0.106176)
(4.73723e-05 4.73775e-05 0.111444)
(-6.44592e-05 4.1594e-05 0.108928)
(4.15184e-05 -6.44659e-05 0.108927)
(-9.73007e-05 -9.73329e-05 0.106074)
(4.58857e-05 4.58825e-05 0.111638)
(-6.1167e-05 3.94859e-05 0.108935)
(3.94358e-05 -6.11843e-05 0.108934)
(-9.24233e-05 -9.24509e-05 0.10597)
(4.44144e-05 4.44027e-05 0.111821)
(-5.78705e-05 3.73305e-05 0.10893)
(3.7282e-05 -5.78886e-05 0.10893)
(-8.76833e-05 -8.77132e-05 0.105866)
(4.2947e-05 4.29374e-05 0.111992)
(-5.4587e-05 3.51143e-05 0.108915)
(3.5075e-05 -5.45981e-05 0.108914)
(-8.31606e-05 -8.31886e-05 0.105764)
(4.14906e-05 4.14764e-05 0.112151)
(-5.13352e-05 3.28661e-05 0.10889)
(3.28362e-05 -5.13377e-05 0.108889)
(-7.88801e-05 -7.88941e-05 0.105664)
(4.00202e-05 4.00147e-05 0.112298)
(-4.81237e-05 3.06237e-05 0.108857)
(3.05892e-05 -4.81055e-05 0.108856)
(-7.48474e-05 -7.48635e-05 0.105566)
(3.85537e-05 3.85448e-05 0.112432)
(-4.49373e-05 2.83912e-05 0.108817)
(2.8355e-05 -4.49231e-05 0.108816)
(-7.10564e-05 -7.1059e-05 0.105472)
(3.70696e-05 3.70703e-05 0.112554)
(-4.1803e-05 2.61879e-05 0.108772)
(2.61588e-05 -4.17963e-05 0.108771)
(-6.7471e-05 -6.74802e-05 0.105381)
(3.55573e-05 3.55544e-05 0.112663)
(-3.87281e-05 2.40211e-05 0.108722)
(2.39973e-05 -3.87289e-05 0.108721)
(-6.40549e-05 -6.40766e-05 0.105294)
(3.40203e-05 3.40161e-05 0.112761)
(-3.57313e-05 2.19321e-05 0.108669)
(2.1902e-05 -3.57279e-05 0.108668)
(-6.09445e-05 -6.09684e-05 0.10521)
(3.24511e-05 3.24452e-05 0.112847)
(-3.2814e-05 1.99361e-05 0.108614)
(1.99078e-05 -3.28081e-05 0.108613)
(-5.79741e-05 -5.80095e-05 0.10513)
(3.08497e-05 3.08335e-05 0.112921)
(-2.99718e-05 1.79829e-05 0.108556)
(1.79808e-05 -2.99669e-05 0.108556)
(-5.52113e-05 -5.52534e-05 0.105054)
(2.92142e-05 2.91915e-05 0.112984)
(-2.72131e-05 1.61531e-05 0.108499)
(1.61435e-05 -2.72167e-05 0.108498)
(-5.26146e-05 -5.26706e-05 0.104982)
(2.7539e-05 2.75087e-05 0.113037)
(-2.45559e-05 1.44269e-05 0.10844)
(1.44296e-05 -2.45576e-05 0.108439)
(-5.02341e-05 -5.0292e-05 0.104914)
(2.58374e-05 2.57963e-05 0.11308)
(-2.19889e-05 1.27777e-05 0.108382)
(1.27894e-05 -2.19849e-05 0.108381)
(-4.79915e-05 -4.80514e-05 0.104849)
(2.40853e-05 2.40354e-05 0.113114)
(-1.95202e-05 1.12409e-05 0.108325)
(1.12662e-05 -1.95218e-05 0.108324)
(-4.59208e-05 -4.59724e-05 0.104788)
(0.000138046 0.000138148 0.100281)
(0.000126477 0.000159967 0.100229)
(-0.000126469 0.000159896 0.100229)
(-0.000138038 0.000138082 0.10028)
(0.000159941 0.000126483 0.100229)
(0.000159709 -0.000126532 0.100229)
(9.386e-05 9.38274e-05 0.100152)
(-9.37818e-05 9.38161e-05 0.100152)
(9.38005e-05 -9.38486e-05 0.100152)
(-9.36932e-05 -9.36754e-05 0.100152)
(-0.000159935 0.00012646 0.100229)
(-0.000159923 -0.000126199 0.100229)
(0.000137925 -0.000138191 0.100281)
(0.000126412 -0.000159987 0.100229)
(-0.000126211 -0.000159509 0.100229)
(-0.000138027 -0.00013772 0.10028)
(0.000247784 0.000247914 0.100398)
(0.000112876 0.000112583 0.100897)
(0.000115702 0.000184833 0.10039)
(-0.000115598 0.000184729 0.10039)
(9.31631e-05 0.000149106 0.100817)
(-9.29626e-05 0.000148844 0.100817)
(-0.000247749 0.000247733 0.100398)
(-0.000112493 0.000112459 0.100896)
(0.000185043 0.000115514 0.10039)
(0.000184898 -0.000115614 0.10039)
(0.000149009 9.31847e-05 0.100817)
(0.000148928 -9.31044e-05 0.100817)
(-0.000184907 -0.000115547 0.10039)
(-0.000149059 9.29562e-05 0.100817)
(-0.000148975 -9.313e-05 0.100817)
(0.000247634 -0.000247943 0.100398)
(0.000112666 -0.000112719 0.100897)
(-0.000115225 -0.000184969 0.10039)
(9.31198e-05 -0.000149001 0.100817)
(-9.30441e-05 -0.00014912 0.100817)
(-0.000112697 -0.000112736 0.100896)
(0.000194461 0.000194183 0.100971)
(0.000105516 0.000105426 0.101399)
(9.35521e-05 0.00015161 0.100938)
(-9.34073e-05 0.000151366 0.100938)
(9.14059e-05 0.00015227 0.101319)
(-9.1318e-05 0.000152159 0.101319)
(-0.000194095 0.000194116 0.100971)
(-0.000105353 0.000105316 0.101399)
(0.000151434 9.36714e-05 0.100938)
(0.000151341 -9.35461e-05 0.100938)
(0.000152114 9.15833e-05 0.101319)
(0.000151872 -9.12379e-05 0.101319)
(-0.00015149 -9.36188e-05 0.100938)
(-0.000152133 9.13843e-05 0.101319)
(-0.000152208 -9.14165e-05 0.101319)
(0.000194224 -0.00019435 0.100971)
(0.000105171 -0.00010531 0.101399)
(-9.35876e-05 -0.000151561 0.100938)
(9.13506e-05 -0.000152078 0.101319)
(-9.1462e-05 -0.000152158 0.101319)
(-0.000105481 -0.0001054 0.101399)
(0.000194899 0.000194796 0.101474)
(9.78133e-05 9.77771e-05 0.101896)
(9.08986e-05 0.000152397 0.101448)
(-9.08194e-05 0.000152292 0.101447)
(8.83427e-05 0.00015054 0.101829)
(-8.81769e-05 0.000150464 0.101829)
(-0.000194729 0.000194688 0.101474)
(-9.76249e-05 9.75997e-05 0.101896)
(0.00015225 9.10576e-05 0.101447)
(0.000152017 -9.07101e-05 0.101447)
(0.000150451 8.83948e-05 0.101829)
(0.000150258 -8.81157e-05 0.101829)
(-0.000152351 -9.09177e-05 0.101448)
(-0.000150364 8.82631e-05 0.101829)
(-0.000150505 -8.83289e-05 0.101829)
(0.000194539 -0.000194686 0.101474)
(9.74942e-05 -9.77505e-05 0.101896)
(-9.09834e-05 -0.000152294 0.101448)
(8.82546e-05 -0.000150496 0.101828)
(-8.83839e-05 -0.000150465 0.101829)
(-9.78058e-05 -9.7754e-05 0.101896)
(0.000192253 0.000192177 0.101967)
(8.85353e-05 8.84309e-05 0.10237)
(8.72244e-05 0.00014937 0.101954)
(-8.70433e-05 0.000149314 0.101954)
(8.36918e-05 0.000145194 0.102322)
(-8.34721e-05 0.000145188 0.102322)
(-0.000192046 0.00019204 0.101967)
(-8.83259e-05 8.83256e-05 0.10237)
(0.000149315 8.72464e-05 0.101954)
(0.000149133 -8.69904e-05 0.101954)
(0.000145228 8.36518e-05 0.102322)
(0.00014512 -8.3371e-05 0.102322)
(-0.000149341 -8.71997e-05 0.101954)
(-0.000145088 8.35755e-05 0.102322)
(-0.000145199 -8.3649e-05 0.102322)
(0.000191931 -0.000192189 0.101967)
(8.82492e-05 -8.84065e-05 0.10237)
(-8.72587e-05 -0.0001493 0.101954)
(8.36028e-05 -0.000145107 0.102322)
(-8.37143e-05 -0.000145135 0.102322)
(-8.84994e-05 -8.84573e-05 0.10237)
(0.00018704 0.000186883 0.102435)
(7.97344e-05 7.96541e-05 0.102816)
(8.25195e-05 0.000143691 0.102442)
(-8.23273e-05 0.000143698 0.102442)
(7.93971e-05 0.000139215 0.102793)
(-7.92711e-05 0.000139217 0.102793)
(-0.000186825 0.00018679 0.102435)
(-7.96161e-05 7.96377e-05 0.102816)
(0.000143746 8.24527e-05 0.102442)
(0.00014367 -8.22083e-05 0.102442)
(0.000139264 7.93041e-05 0.102793)
(0.000139266 -7.91426e-05 0.102793)
(-0.000143704 -8.24553e-05 0.102442)
(-0.000139168 7.92867e-05 0.102793)
(-0.000139228 -7.93057e-05 0.102793)
(0.000186724 -0.000186898 0.102435)
(7.96402e-05 -7.95753e-05 0.102816)
(-8.25291e-05 -0.000143637 0.102442)
(7.93243e-05 -0.000139146 0.102793)
(-7.93374e-05 -0.000139163 0.102793)
(-7.96848e-05 -7.96347e-05 0.102816)
(0.000181623 0.000181493 0.102874)
(7.19379e-05 7.19059e-05 0.103234)
(7.8456e-05 0.000137772 0.102907)
(-7.83561e-05 0.000137787 0.102907)
(7.59188e-05 0.00013367 0.10324)
(-7.58602e-05 0.00013368 0.10324)
(-0.000181493 0.000181464 0.102874)
(-7.18872e-05 7.19088e-05 0.103234)
(0.000137812 7.83679e-05 0.102907)
(0.000137823 -7.82389e-05 0.102907)
(0.000133652 7.58692e-05 0.10324)
(0.00013367 -7.58159e-05 0.10324)
(-0.000137785 -7.83677e-05 0.102907)
(-0.000133625 7.58701e-05 0.10324)
(-0.000133669 -7.58512e-05 0.10324)
(0.000181468 -0.000181488 0.102874)
(7.19194e-05 -7.18922e-05 0.103234)
(-7.83907e-05 -0.00013772 0.102907)
(7.58941e-05 -0.000133627 0.10324)
(-7.58742e-05 -0.000133591 0.10324)
(-7.1929e-05 -7.18798e-05 0.103234)
(0.000176957 0.000176873 0.103285)
(6.51045e-05 6.5111e-05 0.103626)
(7.51684e-05 0.000132385 0.103348)
(-7.51169e-05 0.000132401 0.103348)
(7.31708e-05 0.000128787 0.103665)
(-7.31348e-05 0.000128802 0.103665)
(-0.000176875 0.000176856 0.103285)
(-6.50806e-05 6.51119e-05 0.103626)
(0.000132354 7.51323e-05 0.103348)
(0.000132365 -7.5092e-05 0.103348)
(0.000128708 7.317e-05 0.103665)
(0.00012872 -7.314e-05 0.103665)
(-0.000132384 -7.51031e-05 0.103348)
(-0.000128745 7.31529e-05 0.103665)
(-0.000128798 -7.31166e-05 0.103665)
(0.000176865 -0.000176921 0.103285)
(6.51199e-05 -6.50884e-05 0.103626)
(-7.51311e-05 -0.000132294 0.103348)
(7.3174e-05 -0.000128695 0.103665)
(-7.31727e-05 -0.000128653 0.103665)
(-6.5155e-05 -6.50468e-05 0.103626)
(0.000173194 0.00017313 0.103668)
(5.91455e-05 5.92152e-05 0.103993)
(7.25825e-05 0.000127661 0.103768)
(-7.25524e-05 0.000127679 0.103768)
(7.10388e-05 0.000124528 0.10407)
(-7.10045e-05 0.000124527 0.10407)
(-0.000173134 0.000173112 0.103668)
(-5.91315e-05 5.92011e-05 0.103993)
(0.000127583 7.2587e-05 0.103768)
(0.000127598 -7.25614e-05 0.103768)
(0.000124432 7.10472e-05 0.10407)
(0.000124459 -7.10115e-05 0.10407)
(-0.000127689 -7.25309e-05 0.103768)
(-0.0001245 7.09965e-05 0.10407)
(-0.000124562 -7.09791e-05 0.10407)
(0.000173123 -0.000173176 0.103668)
(5.92261e-05 -5.91121e-05 0.103993)
(-7.25919e-05 -0.000127527 0.103768)
(7.1036e-05 -0.000124411 0.10407)
(-7.1041e-05 -0.000124388 0.10407)
(-5.92114e-05 -5.90858e-05 0.103993)
(0.000170281 0.000170186 0.104027)
(5.41625e-05 5.43496e-05 0.104338)
(7.06304e-05 0.000123576 0.104168)
(-7.05968e-05 0.000123563 0.104168)
(6.96752e-05 0.000120924 0.104456)
(-6.96378e-05 0.000120881 0.104456)
(-0.000170214 0.000170139 0.104027)
(-5.41522e-05 5.43216e-05 0.104338)
(0.000123468 7.0614e-05 0.104168)
(0.000123497 -7.0601e-05 0.104168)
(0.000120775 6.95694e-05 0.104457)
(0.000120801 -6.96316e-05 0.104456)
(-0.000123594 -7.05271e-05 0.104168)
(-0.000120848 6.95082e-05 0.104456)
(-0.000120884 -6.94762e-05 0.104456)
(0.000170164 -0.00017026 0.104027)
(5.4308e-05 -5.40701e-05 0.104338)
(-7.05774e-05 -0.00012343 0.104168)
(6.94577e-05 -0.000120767 0.104456)
(-6.94401e-05 -0.000120763 0.104456)
(-5.41778e-05 -5.40525e-05 0.104338)
(0.000168167 0.000168179 0.104363)
(4.97367e-05 4.99046e-05 0.104663)
(6.93913e-05 0.000120103 0.10455)
(-6.9355e-05 0.000120049 0.10455)
(6.86343e-05 0.000117748 0.104827)
(-6.85731e-05 0.000117664 0.104827)
(-0.000168106 0.000168112 0.104363)
(-4.96673e-05 4.98511e-05 0.104663)
(0.000119944 6.92829e-05 0.104551)
(0.000119961 -6.93574e-05 0.104551)
(0.000117559 6.852e-05 0.104827)
(0.000117551 -6.86024e-05 0.104827)
(-0.000120055 -6.91998e-05 0.104551)
(-0.000117624 6.83969e-05 0.104827)
(-0.000117665 -6.84384e-05 0.104827)
(0.000168101 -0.000168126 0.104363)
(4.97897e-05 -4.97046e-05 0.104663)
(-6.91432e-05 -0.000119949 0.104551)
(6.8351e-05 -0.000117588 0.104827)
(-6.83508e-05 -0.000117598 0.104827)
(-4.97251e-05 -4.96836e-05 0.104663)
(0.000166622 0.000166636 0.104678)
(4.55387e-05 4.56262e-05 0.104968)
(6.83722e-05 0.000116974 0.104917)
(-6.83216e-05 0.000116895 0.104917)
(6.76202e-05 0.000114722 0.105182)
(-6.75853e-05 0.000114655 0.105182)
(-0.000166539 0.000166555 0.104678)
(-4.55027e-05 4.56307e-05 0.104968)
(0.000116791 6.82602e-05 0.104917)
(0.000116775 -6.83488e-05 0.104917)
(0.000114556 6.75054e-05 0.105182)
(0.000114518 -6.75967e-05 0.105182)
(-0.000116908 -6.81858e-05 0.104917)
(-0.00011463 6.73882e-05 0.105182)
(-0.00011467 -6.7429e-05 0.105182)
(0.000166502 -0.00016662 0.104678)
(4.55317e-05 -4.55335e-05 0.104968)
(-6.80936e-05 -0.000116841 0.104917)
(6.73362e-05 -0.000114588 0.105182)
(-6.73456e-05 -0.000114593 0.105182)
(-4.55195e-05 -4.55031e-05 0.104968)
(0.000165292 0.00016526 0.104972)
(4.15894e-05 4.15981e-05 0.105254)
(6.73678e-05 0.000113993 0.105269)
(-6.73383e-05 0.000113925 0.105269)
(6.66172e-05 0.000111925 0.105523)
(-6.65812e-05 0.000111906 0.105523)
(-0.00016522 0.000165223 0.104972)
(-4.15801e-05 4.16501e-05 0.105254)
(0.000113829 6.72559e-05 0.105269)
(0.00011379 -6.73426e-05 0.105269)
(0.000111821 6.65094e-05 0.105524)
(0.000111793 -6.65652e-05 0.105523)
(-0.000113954 -6.71738e-05 0.105269)
(-0.00011187 6.64051e-05 0.105524)
(-0.000111902 -6.63932e-05 0.105523)
(0.000165145 -0.000165292 0.104972)
(4.15501e-05 -4.15779e-05 0.105253)
(-6.7098e-05 -0.000113867 0.105269)
(6.63735e-05 -0.000111835 0.105523)
(-6.63603e-05 -0.000111801 0.105524)
(-4.15519e-05 -4.15423e-05 0.105254)
(0.000164152 0.000164047 0.105246)
(3.76362e-05 3.77156e-05 0.105519)
(6.63461e-05 0.000111284 0.105606)
(-6.63179e-05 0.000111279 0.105606)
(6.55646e-05 0.000109408 0.10585)
(-6.55435e-05 0.000109412 0.10585)
(-0.000164137 0.000164068 0.105246)
(-3.75677e-05 3.7733e-05 0.105519)
(0.000111198 6.6254e-05 0.105607)
(0.000111173 -6.62951e-05 0.105606)
(0.000109344 6.54309e-05 0.105851)
(0.000109343 -6.55076e-05 0.10585)
(-0.000111274 -6.61262e-05 0.105607)
(-0.00010936 6.53383e-05 0.105851)
(-0.000109403 -6.53413e-05 0.10585)
(0.000164 -0.00016417 0.105246)
(3.77123e-05 -3.75302e-05 0.105519)
(-6.61036e-05 -0.000111164 0.105607)
(6.53295e-05 -0.000109319 0.10585)
(-6.52957e-05 -0.000109273 0.105851)
(-3.76409e-05 -3.75059e-05 0.105519)
(0.000163095 0.000163004 0.105498)
(3.34842e-05 3.3582e-05 0.105764)
(6.52979e-05 0.000108785 0.10593)
(-6.52801e-05 0.000108804 0.10593)
(6.45496e-05 0.000106953 0.106163)
(-6.45338e-05 0.00010697 0.106163)
(-0.000163053 0.000163024 0.105498)
(-3.33729e-05 3.3592e-05 0.105764)
(0.000108736 6.51622e-05 0.10593)
(0.000108742 -6.52382e-05 0.10593)
(0.000106917 6.43717e-05 0.106163)
(0.000106944 -6.44852e-05 0.106163)
(-0.000108796 -6.50814e-05 0.10593)
(-0.000106905 6.42783e-05 0.106163)
(-0.000106961 -6.43355e-05 0.106163)
(0.000162992 -0.000163047 0.105498)
(3.36435e-05 -3.33258e-05 0.105764)
(-6.50342e-05 -0.000108663 0.10593)
(6.42656e-05 -0.000106862 0.106163)
(-6.42455e-05 -0.000106829 0.106163)
(-3.34938e-05 -3.3321e-05 0.105764)
(0.000161828 0.000161764 0.105728)
(2.93863e-05 2.94513e-05 0.105987)
(6.42967e-05 0.00010634 0.106239)
(-6.42873e-05 0.000106377 0.106239)
(6.35487e-05 0.000104561 0.106461)
(-6.35529e-05 0.000104588 0.106461)
(-0.000161765 0.000161777 0.105728)
(-2.92783e-05 2.94622e-05 0.105987)
(0.000106319 6.41158e-05 0.106239)
(0.000106349 -6.4232e-05 0.106239)
(0.000104534 6.3377e-05 0.106462)
(0.000104565 -6.34864e-05 0.106461)
(-0.000106362 -6.40915e-05 0.106239)
(-0.000104503 6.32893e-05 0.106462)
(-0.000104565 -6.33594e-05 0.106461)
(0.00016179 -0.00016175 0.105728)
(2.94854e-05 -2.92489e-05 0.105986)
(-6.39942e-05 -0.000106231 0.106239)
(6.32561e-05 -0.000104467 0.106461)
(-6.32489e-05 -0.000104445 0.106462)
(-2.9347e-05 -2.92444e-05 0.105987)
(0.000160345 0.00016027 0.105934)
(2.55346e-05 2.55908e-05 0.106186)
(6.32951e-05 0.000103958 0.106533)
(-6.32862e-05 0.000103998 0.106534)
(6.25452e-05 0.000102232 0.106745)
(-6.25168e-05 0.000102239 0.106745)
(-0.000160273 0.000160287 0.105935)
(-2.54233e-05 2.55417e-05 0.106186)
(0.000103942 6.31285e-05 0.106534)
(0.000103974 -6.32349e-05 0.106533)
(0.0001022 6.23897e-05 0.106745)
(0.000102223 -6.24804e-05 0.106744)
(-0.000103979 -6.31131e-05 0.106534)
(-0.000102147 6.22744e-05 0.106745)
(-0.000102209 -6.23592e-05 0.106745)
(0.00016028 -0.000160292 0.105935)
(2.55786e-05 -2.54048e-05 0.106186)
(-6.29989e-05 -0.000103863 0.106534)
(6.22514e-05 -0.000102133 0.106745)
(-6.22354e-05 -0.000102104 0.106745)
(-2.54562e-05 -2.53985e-05 0.106186)
(0.000158733 0.000158658 0.106117)
(2.20064e-05 2.20401e-05 0.106361)
(6.2291e-05 0.000101635 0.106813)
(-6.22466e-05 0.000101668 0.106813)
(6.15515e-05 9.99767e-05 0.107012)
(-6.14691e-05 9.99361e-05 0.107012)
(-0.000158653 0.000158636 0.106117)
(-2.1846e-05 2.19309e-05 0.106361)
(0.00010162 6.21356e-05 0.106813)
(0.000101641 -6.22256e-05 0.106813)
(9.996e-05 6.14056e-05 0.107013)
(9.99667e-05 -6.14794e-05 0.107012)
(-0.000101638 -6.2111e-05 0.106813)
(-9.98258e-05 6.12529e-05 0.107013)
(-9.99009e-05 -6.13461e-05 0.107013)
(0.000158643 -0.000158688 0.106117)
(2.20242e-05 -2.18723e-05 0.106361)
(-6.19825e-05 -0.000101531 0.106813)
(6.12664e-05 -9.98788e-05 0.107013)
(-6.12092e-05 -9.97961e-05 0.107013)
(-2.18703e-05 -2.18413e-05 0.106361)
(0.000156951 0.00015686 0.106274)
(1.87186e-05 1.87396e-05 0.10651)
(6.13148e-05 9.94657e-05 0.107077)
(-6.12114e-05 9.94014e-05 0.107077)
(6.06072e-05 9.79954e-05 0.107264)
(-6.04912e-05 9.78838e-05 0.107264)
(-0.000156817 0.000156799 0.106274)
(-1.85496e-05 1.86212e-05 0.10651)
(9.94608e-05 6.11689e-05 0.107077)
(9.94738e-05 -6.124e-05 0.107077)
(9.79886e-05 6.04748e-05 0.107265)
(9.79953e-05 -6.05212e-05 0.107264)
(-9.93637e-05 -6.11045e-05 0.107077)
(-9.77683e-05 6.03088e-05 0.107265)
(-9.784e-05 -6.0383e-05 0.107264)
(0.000156842 -0.000156889 0.106274)
(1.87265e-05 -1.85701e-05 0.106509)
(-6.09678e-05 -9.92559e-05 0.107077)
(6.03357e-05 -9.78875e-05 0.107265)
(-6.0234e-05 -9.77458e-05 0.107265)
(-1.85453e-05 -1.85455e-05 0.106509)
(0.000154912 0.000154812 0.106405)
(1.5578e-05 1.56254e-05 0.106631)
(6.03635e-05 9.75371e-05 0.107325)
(-6.02495e-05 9.74175e-05 0.107325)
(5.96344e-05 9.60734e-05 0.1075)
(-5.95228e-05 9.60169e-05 0.1075)
(-0.000154765 0.000154747 0.106405)
(-1.54305e-05 1.55165e-05 0.106631)
(9.75135e-05 6.02386e-05 0.107325)
(9.75255e-05 -6.02798e-05 0.107325)
(9.60865e-05 5.95002e-05 0.1075)
(9.61071e-05 -5.95556e-05 0.107499)
(-9.73622e-05 -6.01468e-05 0.107325)
(-9.58859e-05 5.93381e-05 0.1075)
(-9.59332e-05 -5.94128e-05 0.1075)
(0.000154793 -0.000154825 0.106405)
(1.56055e-05 -1.54599e-05 0.106631)
(-5.99962e-05 -9.72675e-05 0.107325)
(5.9384e-05 -9.60005e-05 0.1075)
(-5.92642e-05 -9.586e-05 0.1075)
(-1.54437e-05 -1.54458e-05 0.106631)
(0.000152465 0.000152388 0.106508)
(1.25993e-05 1.26679e-05 0.106725)
(5.93744e-05 9.56009e-05 0.107556)
(-5.92833e-05 9.55613e-05 0.107556)
(5.85901e-05 9.41607e-05 0.107718)
(-5.85341e-05 9.41988e-05 0.107718)
(-0.000152324 0.000152324 0.106508)
(-1.25289e-05 1.25516e-05 0.106726)
(9.56288e-05 5.92437e-05 0.107556)
(9.56472e-05 -5.93119e-05 0.107556)
(9.42155e-05 5.84754e-05 0.107718)
(9.42582e-05 -5.85536e-05 0.107718)
(-9.54822e-05 -5.91684e-05 0.107556)
(-9.40597e-05 5.83368e-05 0.107718)
(-9.40991e-05 -5.84022e-05 0.107718)
(0.000152374 -0.000152405 0.106509)
(1.26494e-05 -1.25435e-05 0.106725)
(-5.90277e-05 -9.54059e-05 0.107556)
(5.83748e-05 -9.41612e-05 0.107718)
(-5.82622e-05 -9.40164e-05 0.107718)
(-1.2527e-05 -1.25012e-05 0.106725)
(0.000149568 0.000149546 0.106585)
(9.75294e-06 9.77278e-06 0.106791)
(5.8312e-05 9.36954e-05 0.10777)
(-5.82603e-05 9.37487e-05 0.107769)
(5.74041e-05 9.22247e-05 0.107918)
(-5.74238e-05 9.23239e-05 0.107918)
(-0.00014949 0.000149452 0.106585)
(-9.67649e-06 9.71483e-06 0.106792)
(9.37649e-05 5.8207e-05 0.10777)
(9.37989e-05 -5.82899e-05 0.107769)
(9.23043e-05 5.73518e-05 0.107919)
(9.23434e-05 -5.7442e-05 0.107918)
(-9.36465e-05 -5.81336e-05 0.10777)
(-9.21706e-05 5.7226e-05 0.107919)
(-9.22094e-05 -5.72686e-05 0.107918)
(0.000149505 -0.000149562 0.106585)
(9.77826e-06 -9.72487e-06 0.106791)
(-5.79974e-05 -9.3558e-05 0.10777)
(5.72543e-05 -9.22778e-05 0.107919)
(-5.71535e-05 -9.21115e-05 0.107919)
(-9.67439e-06 -9.63574e-06 0.106791)
(0.000146223 0.000146141 0.106634)
(6.89569e-06 7.05154e-06 0.10683)
(5.70862e-05 9.17351e-05 0.107965)
(-5.71234e-05 9.18448e-05 0.107965)
(5.6191e-05 9.01824e-05 0.1081)
(-5.62397e-05 9.03159e-05 0.1081)
(-0.000146147 0.000146123 0.106635)
(-6.94437e-06 6.95411e-06 0.106831)
(9.18236e-05 5.70514e-05 0.107966)
(9.18566e-05 -5.71373e-05 0.107965)
(9.02641e-05 5.61422e-05 0.108101)
(9.03022e-05 -5.6246e-05 0.1081)
(-9.17267e-05 -5.69675e-05 0.107965)
(-9.01453e-05 5.60205e-05 0.108101)
(-9.01933e-05 -5.60554e-05 0.108101)
(0.000146144 -0.000146257 0.106634)
(7.02268e-06 -6.93128e-06 0.10683)
(-5.68541e-05 -9.16156e-05 0.107966)
(5.60523e-05 -9.02549e-05 0.108101)
(-5.59638e-05 -9.00672e-05 0.108101)
(-6.91439e-06 -6.87086e-06 0.10683)
(0.000142325 0.000142319 0.106658)
(4.26028e-06 4.4121e-06 0.106843)
(5.58992e-05 8.9644e-05 0.108143)
(-5.595e-05 8.9778e-05 0.108143)
(5.49944e-05 8.79246e-05 0.108264)
(-5.50487e-05 8.80718e-05 0.108264)
(-0.000142273 0.000142224 0.106658)
(-4.32372e-06 4.31253e-06 0.106843)
(8.97282e-05 5.58405e-05 0.108144)
(8.97668e-05 -5.59567e-05 0.108143)
(8.80231e-05 5.49252e-05 0.108265)
(8.80593e-05 -5.50533e-05 0.108264)
(-8.96612e-05 -5.57738e-05 0.108143)
(-8.79195e-05 5.48217e-05 0.108265)
(-8.79659e-05 -5.48639e-05 0.108264)
(0.000142278 -0.000142382 0.106658)
(4.36109e-06 -4.26511e-06 0.106843)
(-5.56778e-05 -8.95067e-05 0.108144)
(5.48351e-05 -8.80167e-05 0.108265)
(-5.4762e-05 -8.78416e-05 0.108265)
(-4.29332e-06 -4.25921e-06 0.106842)
(0.000138021 0.000137975 0.106657)
(1.69808e-06 1.89019e-06 0.106831)
(5.46859e-05 8.73556e-05 0.108302)
(-5.47336e-05 8.74979e-05 0.108302)
(5.37584e-05 8.5565e-05 0.108409)
(-5.37849e-05 8.57129e-05 0.108409)
(-0.000138003 0.000137938 0.106657)
(-1.77884e-06 1.73983e-06 0.106832)
(8.7456e-05 5.46065e-05 0.108303)
(8.74903e-05 -5.47359e-05 0.108302)
(8.56662e-05 5.36396e-05 0.10841)
(8.5711e-05 -5.3778e-05 0.108409)
(-8.73993e-05 -5.45652e-05 0.108302)
(-8.5581e-05 5.35584e-05 0.10841)
(-8.56248e-05 -5.36165e-05 0.108409)
(0.000137979 -0.000138087 0.106657)
(1.84545e-06 -1.70609e-06 0.106831)
(-5.44625e-05 -8.72851e-05 0.108303)
(5.35371e-05 -8.56632e-05 0.10841)
(-5.35115e-05 -8.55229e-05 0.10841)
(-1.75318e-06 -1.7085e-06 0.106831)
(0.000133377 0.000133362 0.106633)
(-7.35482e-07 -6.06535e-07 0.106798)
(5.34515e-05 8.49539e-05 0.108443)
(-5.34718e-05 8.51012e-05 0.108442)
(5.24807e-05 8.30402e-05 0.108536)
(-5.24935e-05 8.3197e-05 0.108535)
(-0.000133375 0.000133291 0.106633)
(6.73685e-07 -7.14945e-07 0.106799)
(8.50618e-05 5.33091e-05 0.108443)
(8.50977e-05 -5.345e-05 0.108442)
(8.31546e-05 5.23193e-05 0.108536)
(8.31972e-05 -5.24707e-05 0.108535)
(-8.50127e-05 -5.33e-05 0.108443)
(-8.30807e-05 5.22693e-05 0.108537)
(-8.31056e-05 -5.23223e-05 0.108536)
(0.000133349 -0.000133431 0.106633)
(-6.47333e-07 7.98888e-07 0.106798)
(-5.31985e-05 -8.49173e-05 0.108443)
(5.22434e-05 -8.31368e-05 0.108536)
(-5.22253e-05 -8.30446e-05 0.108536)
(7.12021e-07 7.53742e-07 0.106797)
(0.000128562 0.00012851 0.106589)
(-3.19763e-06 -3.09793e-06 0.106746)
(5.21455e-05 8.23927e-05 0.108564)
(-5.21557e-05 8.2553e-05 0.108564)
(5.10949e-05 8.04013e-05 0.108643)
(-5.10955e-05 8.05634e-05 0.108643)
(-0.000128561 0.000128484 0.10659)
(3.16564e-06 -3.18731e-06 0.106746)
(8.25101e-05 5.19772e-05 0.108565)
(8.25491e-05 -5.21281e-05 0.108564)
(8.05137e-05 5.09321e-05 0.108644)
(8.05554e-05 -5.10721e-05 0.108643)
(-8.24612e-05 -5.19898e-05 0.108564)
(-8.04551e-05 5.08866e-05 0.108645)
(-8.04633e-05 -5.0934e-05 0.108643)
(0.00012849 -0.000128554 0.10659)
(-3.12807e-06 3.2795e-06 0.106745)
(-5.18936e-05 -8.24068e-05 0.108565)
(5.08513e-05 -8.04942e-05 0.108644)
(-5.08388e-05 -8.04263e-05 0.108644)
(3.21657e-06 3.24326e-06 0.106745)
(0.000123471 0.000123408 0.106529)
(-5.72896e-06 -5.61383e-06 0.106677)
(5.07292e-05 7.97191e-05 0.108667)
(-5.07316e-05 7.98809e-05 0.108667)
(4.95831e-05 7.76098e-05 0.108733)
(-4.95864e-05 7.77714e-05 0.108733)
(-0.00012346 0.000123398 0.106529)
(5.70214e-06 -5.68579e-06 0.106678)
(7.98316e-05 5.05642e-05 0.108668)
(7.98749e-05 -5.07132e-05 0.108667)
(7.7719e-05 4.94339e-05 0.108733)
(7.77592e-05 -4.9559e-05 0.108732)
(-7.97819e-05 -5.05775e-05 0.108667)
(-7.76593e-05 4.93903e-05 0.108734)
(-7.76603e-05 -4.94415e-05 0.108733)
(0.000123407 -0.000123456 0.106529)
(-5.65525e-06 5.76558e-06 0.106677)
(-5.04856e-05 -7.97483e-05 0.108668)
(4.93536e-05 -7.76922e-05 0.108734)
(-4.93526e-05 -7.76464e-05 0.108733)
(5.71044e-06 5.75522e-06 0.106677)
(0.000118265 0.000118228 0.106454)
(-8.2913e-06 -8.19207e-06 0.106596)
(4.9169e-05 7.68988e-05 0.108752)
(-4.91773e-05 7.70517e-05 0.108752)
(4.79093e-05 7.46963e-05 0.108805)
(-4.79072e-05 7.48335e-05 0.108804)
(-0.000118254 0.000118217 0.106455)
(8.25677e-06 -8.24187e-06 0.106597)
(7.70021e-05 4.90122e-05 0.108753)
(7.70378e-05 -4.91435e-05 0.108752)
(7.47864e-05 4.77673e-05 0.108805)
(7.48159e-05 -4.78889e-05 0.108804)
(-7.69363e-05 -4.90536e-05 0.108752)
(-7.47255e-05 4.77308e-05 0.108806)
(-7.47254e-05 -4.77852e-05 0.108804)
(0.000118203 -0.000118261 0.106455)
(-8.23038e-06 8.32359e-06 0.106596)
(-4.89531e-05 -7.69301e-05 0.108753)
(4.76808e-05 -7.47464e-05 0.108805)
(-4.76753e-05 -7.47252e-05 0.108805)
(8.28654e-06 8.31275e-06 0.106596)
(0.000112941 0.000112906 0.106369)
(-1.08064e-05 -1.06982e-05 0.106506)
(4.74687e-05 7.39475e-05 0.10882)
(-4.74644e-05 7.40817e-05 0.10882)
(4.61037e-05 7.16476e-05 0.108859)
(-4.61267e-05 7.17879e-05 0.108859)
(-0.000112919 0.000112886 0.106369)
(1.07987e-05 -1.07611e-05 0.106506)
(7.40374e-05 4.73358e-05 0.108821)
(7.40569e-05 -4.7448e-05 0.108819)
(7.17202e-05 4.5983e-05 0.10886)
(7.17431e-05 -4.60942e-05 0.108859)
(-7.3973e-05 -4.73482e-05 0.108819)
(-7.16694e-05 4.5958e-05 0.108861)
(-7.16658e-05 -4.59998e-05 0.108859)
(0.000112886 -0.000112964 0.106369)
(-1.07726e-05 1.08478e-05 0.106505)
(-4.72563e-05 -7.39761e-05 0.108821)
(4.59012e-05 -7.16859e-05 0.10886)
(-4.5908e-05 -7.16654e-05 0.10886)
(1.08128e-05 1.08238e-05 0.106505)
(0.000107648 0.000107629 0.106275)
(-1.3322e-05 -1.32184e-05 0.106408)
(4.56338e-05 7.08679e-05 0.108871)
(-4.56754e-05 7.10115e-05 0.10887)
(4.42087e-05 6.8502e-05 0.108898)