/*--------------------------------*- C++ -*----------------------------------*\
| =========                 |                                                 |
| \\      /  F ield         | OpenFOAM: The Open Source CFD Toolbox           |
|  \\    /   O peration     | Version:  v2012                                 |
|   \\  /    A nd           | Website:  www.openfoam.com                      |
|    \\/     M anipulation  |                                                 |
\*---------------------------------------------------------------------------*/
FoamFile
{
    version     2.0;
    format      ascii;
    class       volScalarField;
    location    "350";
    object      epsilon;
}
// * * * * * * * * * * * * * * * * * * * * * * * * * * * * * * * * * * * * * //

dimensions      [0 2 -3 0 0 0 0];


internalField   nonuniform List<scalar> 
171728
(
3.23701e-07
8.68951e-07
1.15404e-06
8.68997e-07
8.68897e-07
8.69087e-07
1.15404e-06
9.16261e-06
9.1646e-06
4.09575e-06
3.23745e-07
1.84302e-05
3.4775e-06
1.84279e-05
1.84301e-05
5.46384e-06
5.46598e-06
3.4771e-06
3.47791e-06
5.64187e-07
2.10967e-06
9.1639e-06
4.09563e-06
5.64224e-07
3.47807e-06
2.10963e-06
5.46594e-06
5.464e-06
1.84286e-05
9.1636e-06
9.16516e-06
7.09003e-06
2.20592e-05
2.20659e-05
9.16708e-06
7.09152e-06
7.09116e-06
2.20593e-05
1.22105e-05
4.09565e-06
4.74778e-06
1.08315e-05
4.74782e-06
1.08336e-05
1.2208e-05
1.84352e-05
1.84328e-05
1.84351e-05
4.54131e-06
2.81341e-06
5.46435e-06
9.50141e-06
9.50441e-06
2.81442e-06
4.54124e-06
4.54742e-06
2.81486e-06
5.46605e-06
9.5063e-06
9.5093e-06
2.81541e-06
4.54724e-06
9.73776e-06
2.17291e-05
2.17284e-05
2.17354e-05
2.17347e-05
9.73814e-06
2.2066e-05
9.16642e-06
7.09018e-06
7.08968e-06
2.20591e-05
1.22106e-05
4.09556e-06
1.08313e-05
4.74754e-06
1.08334e-05
4.74762e-06
1.22079e-05
4.54766e-06
2.81465e-06
5.46603e-06
9.5059e-06
9.5089e-06
2.81565e-06
4.54739e-06
4.54166e-06
2.81377e-06
5.46442e-06
9.50127e-06
2.81431e-06
9.50438e-06
4.54141e-06
9.73827e-06
2.17287e-05
2.17291e-05
2.17351e-05
2.17354e-05
9.73864e-06
1.84336e-05
9.16614e-06
1.68747e-07
2.67168e-06
1.77159e-06
1.77181e-06
1.15346e-06
1.77211e-06
1.77229e-06
2.67063e-06
2.67178e-06
1.77178e-06
1.77165e-06
1.15361e-06
1.77216e-06
1.77232e-06
2.67071e-06
1.68808e-07
1.62088e-06
2.03597e-06
3.47743e-06
2.86276e-06
2.03591e-06
2.86295e-06
1.62267e-06
1.62066e-06
2.03613e-06
3.47771e-06
2.86269e-06
2.86289e-06
2.03584e-06
1.6226e-06
1.62192e-06
2.03601e-06
3.47838e-06
2.86306e-06
2.86377e-06
2.03662e-06
1.62146e-06
1.42121e-06
2.11061e-06
2.36856e-06
1.28409e-06
2.36939e-06
1.28479e-06
1.42119e-06
1.62076e-06
2.03625e-06
3.47802e-06
2.86285e-06
2.86303e-06
2.0361e-06
1.62274e-06
1.41963e-06
2.11053e-06
1.28513e-06
2.36836e-06
1.28384e-06
2.36915e-06
1.42224e-06
4.95569e-07
4.97396e-07
4.97399e-07
4.9962e-07
4.45582e-07
4.53882e-07
4.53894e-07
4.63946e-07
4.03772e-07
4.18679e-07
4.18689e-07
4.39586e-07
3.68389e-07
3.88691e-07
3.88694e-07
4.17662e-07
3.3804e-07
3.62186e-07
3.62188e-07
3.95888e-07
3.11663e-07
3.38296e-07
3.38302e-07
3.74241e-07
2.88476e-07
3.16605e-07
3.16612e-07
3.53254e-07
2.6791e-07
2.96936e-07
2.96942e-07
3.33575e-07
2.49551e-07
2.79233e-07
2.79239e-07
3.15826e-07
2.33092e-07
2.63499e-07
2.63506e-07
3.00642e-07
2.18305e-07
2.49741e-07
2.49749e-07
2.8788e-07
2.05015e-07
2.37951e-07
2.37958e-07
2.78057e-07
1.93082e-07
2.28132e-07
2.28137e-07
2.71386e-07
1.82392e-07
2.20289e-07
2.20293e-07
2.67515e-07
1.72858e-07
2.14424e-07
2.14427e-07
2.66937e-07
1.64404e-07
2.10549e-07
2.10552e-07
2.69736e-07
1.56968e-07
2.0867e-07
2.08678e-07
2.75869e-07
1.50498e-07
2.08797e-07
2.08811e-07
2.85248e-07
1.44947e-07
2.10988e-07
2.11007e-07
2.9806e-07
1.40282e-07
2.15254e-07
2.15278e-07
3.14331e-07
1.36469e-07
2.21615e-07
2.21645e-07
3.34004e-07
1.33487e-07
2.30084e-07
2.30118e-07
3.56987e-07
1.31312e-07
2.40654e-07
2.40693e-07
3.83007e-07
1.29931e-07
2.53295e-07
2.53338e-07
4.12256e-07
1.29329e-07
2.67967e-07
2.68015e-07
4.43675e-07
1.29511e-07
2.84601e-07
2.84651e-07
4.76967e-07
1.30451e-07
3.03108e-07
3.03164e-07
5.1216e-07
1.32152e-07
3.23387e-07
3.2345e-07
5.48621e-07
1.34612e-07
3.45322e-07
3.45395e-07
5.85994e-07
1.37833e-07
3.68775e-07
3.68857e-07
6.23713e-07
1.41816e-07
3.93591e-07
3.93686e-07
6.61192e-07
1.46567e-07
4.19625e-07
4.19726e-07
6.99227e-07
1.52089e-07
4.46708e-07
4.46818e-07
7.36557e-07
1.5839e-07
4.74671e-07
4.74791e-07
7.72383e-07
1.65472e-07
5.03346e-07
5.03467e-07
8.07198e-07
1.73338e-07
5.32561e-07
5.32681e-07
8.40932e-07
1.81989e-07
5.6214e-07
5.62259e-07
8.73505e-07
1.91421e-07
5.91909e-07
5.92019e-07
9.04891e-07
2.01625e-07
6.21697e-07
6.218e-07
9.35137e-07
2.12589e-07
6.5135e-07
6.5145e-07
9.64148e-07
2.2429e-07
6.80713e-07
6.80813e-07
9.91296e-07
2.36704e-07
7.09649e-07
7.09765e-07
1.01695e-06
2.49796e-07
7.38056e-07
7.38179e-07
1.04234e-06
2.63524e-07
7.65825e-07
7.65951e-07
1.06675e-06
2.7784e-07
7.92858e-07
7.92989e-07
1.09006e-06
2.92684e-07
8.19081e-07
8.19207e-07
1.11236e-06
3.07994e-07
8.4442e-07
8.44544e-07
1.13361e-06
5.06408e-07
5.05555e-07
5.05552e-07
5.06401e-07
5.05553e-07
5.05569e-07
5.09644e-07
5.09644e-07
5.09645e-07
5.09644e-07
5.05553e-07
5.05551e-07
5.06404e-07
5.05551e-07
5.05546e-07
5.06406e-07
4.99594e-07
4.67396e-07
4.974e-07
4.97414e-07
4.6384e-07
4.63869e-07
4.99608e-07
4.67412e-07
4.97408e-07
4.97388e-07
4.63853e-07
4.63908e-07
4.97394e-07
4.6384e-07
4.63861e-07
4.99591e-07
4.6743e-07
4.97413e-07
4.63847e-07
4.63875e-07
4.67439e-07
4.639e-07
4.41554e-07
4.53883e-07
4.53916e-07
4.26889e-07
4.26933e-07
4.63919e-07
4.41573e-07
4.53895e-07
4.53993e-07
4.26902e-07
4.27089e-07
4.53912e-07
4.26895e-07
4.26922e-07
4.63935e-07
4.41591e-07
4.53924e-07
4.26908e-07
4.26933e-07
4.41599e-07
4.39551e-07
4.19305e-07
4.18672e-07
4.18714e-07
3.95814e-07
3.95845e-07
4.39576e-07
4.19309e-07
4.18684e-07
4.18865e-07
3.95818e-07
3.95943e-07
4.18704e-07
3.95814e-07
3.95834e-07
4.39588e-07
4.1932e-07
4.18713e-07
3.9582e-07
3.95838e-07
4.19333e-07
4.1768e-07
3.97517e-07
3.88695e-07
3.88722e-07
3.68558e-07
3.68574e-07
4.17704e-07
3.97495e-07
3.88696e-07
3.88804e-07
3.6855e-07
3.68617e-07
3.88712e-07
3.68545e-07
3.68566e-07
4.17704e-07
3.97506e-07
3.88713e-07
3.68546e-07
3.68561e-07
3.97589e-07
3.95967e-07
3.75808e-07
3.62203e-07
3.62214e-07
3.44073e-07
3.44075e-07
3.95979e-07
3.7581e-07
3.62193e-07
3.62251e-07
3.44058e-07
3.44098e-07
3.62209e-07
3.44053e-07
3.44074e-07
3.95972e-07
3.75822e-07
3.62202e-07
3.44059e-07
3.44065e-07
3.7593e-07
3.74382e-07
3.54855e-07
3.38318e-07
3.38318e-07
3.21855e-07
3.21855e-07
3.74347e-07
3.54847e-07
3.38302e-07
3.38337e-07
3.21837e-07
3.21866e-07
3.38318e-07
3.21836e-07
3.21855e-07
3.74347e-07
3.54851e-07
3.38308e-07
3.21843e-07
3.21842e-07
3.54877e-07
3.53254e-07
3.35084e-07
3.16625e-07
3.16626e-07
3.01689e-07
3.01691e-07
3.53243e-07
3.35054e-07
3.16606e-07
3.16634e-07
3.01666e-07
3.01693e-07
3.16626e-07
3.01668e-07
3.01689e-07
3.53237e-07
3.35084e-07
3.1661e-07
3.01675e-07
3.01669e-07
3.35094e-07
3.33621e-07
3.17113e-07
2.96958e-07
2.96959e-07
2.83501e-07
2.83501e-07
3.33621e-07
3.17119e-07
2.96933e-07
2.9696e-07
2.83471e-07
2.835e-07
2.96957e-07
2.83475e-07
2.83497e-07
3.33611e-07
3.16964e-07
2.96936e-07
2.8348e-07
2.83476e-07
3.17096e-07
3.15834e-07
3.01465e-07
2.7926e-07
2.7926e-07
2.67277e-07
2.67277e-07
3.15866e-07
3.01325e-07
2.79229e-07
2.79257e-07
2.67242e-07
2.67271e-07
2.79255e-07
2.67248e-07
2.67268e-07
3.16081e-07
3.01303e-07
2.79235e-07
2.67254e-07
2.67253e-07
3.01324e-07
3.00412e-07
2.88265e-07
2.63529e-07
2.63527e-07
2.53029e-07
2.53027e-07
3.00583e-07
2.88443e-07
2.63493e-07
2.63522e-07
2.5299e-07
2.53018e-07
2.63519e-07
2.52996e-07
2.53013e-07
3.00609e-07
2.88264e-07
2.63505e-07
2.53004e-07
2.53001e-07
2.88254e-07
2.87903e-07
2.78017e-07
2.49774e-07
2.4977e-07
2.40748e-07
2.40747e-07
2.87601e-07
2.78247e-07
2.49735e-07
2.49762e-07
2.40706e-07
2.40736e-07
2.49757e-07
2.40714e-07
2.40728e-07
2.87883e-07
2.78021e-07
2.49745e-07
2.40722e-07
2.40715e-07
2.78021e-07
2.78045e-07
2.71102e-07
2.37984e-07
2.37984e-07
2.30433e-07
2.30437e-07
2.77769e-07
2.712e-07
2.37942e-07
2.37973e-07
2.30389e-07
2.30425e-07
2.37965e-07
2.304e-07
2.30413e-07
2.77926e-07
2.71104e-07
2.3795e-07
2.30406e-07
2.30397e-07
2.70971e-07
2.71073e-07
2.67192e-07
2.28163e-07
2.28169e-07
2.22093e-07
2.22102e-07
2.71135e-07
2.67237e-07
2.28121e-07
2.28158e-07
2.22047e-07
2.22091e-07
2.28147e-07
2.22061e-07
2.22078e-07
2.71269e-07
2.67211e-07
2.28128e-07
2.22066e-07
2.22057e-07
2.67132e-07
2.67455e-07
2.66273e-07
2.20319e-07
2.20329e-07
2.15727e-07
2.15741e-07
2.67531e-07
2.66291e-07
2.20275e-07
2.20321e-07
2.15682e-07
2.15733e-07
2.20306e-07
2.15697e-07
2.15715e-07
2.6749e-07
2.66302e-07
2.20283e-07
2.15698e-07
2.15691e-07
2.66278e-07
2.66909e-07
2.68398e-07
2.14454e-07
2.14468e-07
2.11352e-07
2.11371e-07
2.66947e-07
2.68403e-07
2.14411e-07
2.14463e-07
2.1131e-07
2.11362e-07
2.14445e-07
2.11318e-07
2.11343e-07
2.66935e-07
2.68411e-07
2.14418e-07
2.1132e-07
2.11316e-07
2.68416e-07
2.6971e-07
2.73809e-07
2.10585e-07
2.10603e-07
2.08972e-07
2.0899e-07
2.69751e-07
2.73825e-07
2.10543e-07
2.10594e-07
2.08933e-07
2.08982e-07
2.10574e-07
2.0893e-07
2.0896e-07
2.69726e-07
2.73845e-07
2.10546e-07
2.08937e-07
2.08931e-07
2.7386e-07
2.75862e-07
2.82415e-07
2.08714e-07
2.08732e-07
2.08643e-07
2.08661e-07
2.75891e-07
2.82529e-07
2.08674e-07
2.08725e-07
2.08609e-07
2.08657e-07
2.08703e-07
2.08593e-07
2.08637e-07
2.75864e-07
2.82455e-07
2.08673e-07
2.08602e-07
2.086e-07
2.82866e-07
2.85543e-07
2.94697e-07
2.08857e-07
2.08872e-07
2.1031e-07
2.10321e-07
2.85437e-07
2.9469e-07
2.08818e-07
2.08869e-07
2.10273e-07
2.10326e-07
2.08835e-07
2.10242e-07
2.10288e-07
2.85526e-07
2.94612e-07
2.08809e-07
2.10259e-07
2.10257e-07
2.95044e-07
2.98255e-07
3.10245e-07
2.1106e-07
2.11072e-07
2.14068e-07
2.14078e-07
2.98204e-07
3.10556e-07
2.11024e-07
2.11076e-07
2.14032e-07
2.14089e-07
2.11039e-07
2.13988e-07
2.14045e-07
2.98365e-07
3.10248e-07
2.11008e-07
2.1401e-07
2.14011e-07
3.10531e-07
3.14624e-07
3.29088e-07
2.15338e-07
2.1535e-07
2.19911e-07
2.19933e-07
3.14458e-07
3.29673e-07
2.15304e-07
2.15359e-07
2.19881e-07
2.19947e-07
2.15312e-07
2.19827e-07
2.19892e-07
3.14593e-07
3.29379e-07
2.1528e-07
2.19856e-07
2.19854e-07
3.29543e-07
3.34523e-07
3.51702e-07
2.217e-07
2.21726e-07
2.27859e-07
2.27892e-07
3.34075e-07
3.52029e-07
2.21674e-07
2.21739e-07
2.27833e-07
2.27908e-07
2.21681e-07
2.27771e-07
2.27842e-07
3.34363e-07
3.5136e-07
2.21643e-07
2.27805e-07
2.27801e-07
3.51799e-07
3.57528e-07
3.76798e-07
2.30176e-07
2.30212e-07
2.37911e-07
2.37952e-07
3.5712e-07
3.77648e-07
2.30152e-07
2.30224e-07
2.37883e-07
2.37966e-07
2.30157e-07
2.37816e-07
2.37893e-07
3.57456e-07
3.76927e-07
2.30115e-07
2.37856e-07
2.37847e-07
3.77354e-07
3.83796e-07
4.06105e-07
2.4075e-07
2.40793e-07
2.50044e-07
2.5009e-07
3.8302e-07
4.05976e-07
2.40723e-07
2.40805e-07
2.50011e-07
2.50107e-07
2.40734e-07
2.49942e-07
2.50028e-07
3.83322e-07
4.05933e-07
2.40685e-07
2.49984e-07
2.49979e-07
4.05981e-07
4.12236e-07
4.36895e-07
2.53398e-07
2.53447e-07
2.64216e-07
2.64269e-07
4.11883e-07
4.36724e-07
2.53367e-07
2.53464e-07
2.64184e-07
2.64291e-07
2.53387e-07
2.64111e-07
2.64209e-07
4.12278e-07
4.37131e-07
2.53336e-07
2.64157e-07
2.64159e-07
4.36852e-07
4.43513e-07
4.69881e-07
2.68075e-07
2.68127e-07
2.80376e-07
2.80435e-07
4.43483e-07
4.69794e-07
2.68046e-07
2.68149e-07
2.80344e-07
2.80454e-07
2.68071e-07
2.80265e-07
2.80376e-07
4.43473e-07
4.70171e-07
2.68019e-07
2.80311e-07
2.80318e-07
4.69768e-07
4.7705e-07
5.04617e-07
2.84718e-07
2.84774e-07
2.98433e-07
2.98496e-07
4.76942e-07
5.04521e-07
2.84686e-07
2.84796e-07
2.98396e-07
2.98518e-07
2.84723e-07
2.98312e-07
2.98444e-07
4.76973e-07
5.04723e-07
2.84663e-07
2.98364e-07
2.9838e-07
5.0465e-07
5.12342e-07
5.40885e-07
3.03235e-07
3.03299e-07
3.18291e-07
3.18361e-07
5.12196e-07
5.40513e-07
3.03202e-07
3.03321e-07
3.1825e-07
3.18379e-07
3.03252e-07
3.18158e-07
3.18312e-07
5.12278e-07
5.40748e-07
3.03185e-07
3.18217e-07
3.1824e-07
5.40736e-07
5.48907e-07
5.77841e-07
3.23526e-07
3.23593e-07
3.39836e-07
3.39911e-07
5.48527e-07
5.77568e-07
3.23487e-07
3.23616e-07
3.39791e-07
3.39926e-07
3.23552e-07
3.39691e-07
3.39863e-07
5.48858e-07
5.7739e-07
3.23479e-07
3.39759e-07
3.39783e-07
5.77777e-07
5.85773e-07
6.15336e-07
3.45469e-07
3.45544e-07
3.62931e-07
3.63011e-07
5.85824e-07
6.15002e-07
3.45426e-07
3.45564e-07
3.62881e-07
3.6302e-07
3.45502e-07
3.62773e-07
3.62966e-07
5.86459e-07
6.14784e-07
3.45421e-07
3.62852e-07
3.62879e-07
6.15269e-07
6.23505e-07
6.52736e-07
3.68929e-07
3.6901e-07
3.87434e-07
3.8752e-07
6.23414e-07
6.52284e-07
3.68881e-07
3.69024e-07
3.87374e-07
3.8752e-07
3.68969e-07
3.87266e-07
3.87478e-07
6.23981e-07
6.52838e-07
3.68884e-07
3.87351e-07
3.8739e-07
6.52626e-07
6.61242e-07
6.89813e-07
3.93767e-07
3.93842e-07
4.13196e-07
4.13275e-07
6.61072e-07
6.89268e-07
3.93705e-07
3.93851e-07
4.13122e-07
4.13277e-07
3.93809e-07
4.13013e-07
4.13243e-07
6.61282e-07
6.90084e-07
3.93722e-07
4.13103e-07
4.13148e-07
6.89388e-07
6.98482e-07
7.26482e-07
4.19809e-07
4.1989e-07
4.4004e-07
4.40119e-07
6.98578e-07
7.26027e-07
4.19741e-07
4.19891e-07
4.3996e-07
4.40124e-07
4.19861e-07
4.39846e-07
4.40096e-07
6.98354e-07
7.27132e-07
4.19768e-07
4.39947e-07
4.39996e-07
7.2544e-07
7.35076e-07
7.6194e-07
4.46903e-07
4.46982e-07
4.67808e-07
4.67888e-07
7.35101e-07
7.61823e-07
4.46828e-07
4.46987e-07
4.67724e-07
4.67903e-07
4.46963e-07
4.676e-07
4.6787e-07
7.34818e-07
7.63284e-07
4.46862e-07
4.67715e-07
4.67763e-07
7.61347e-07
7.71375e-07
7.96361e-07
4.74878e-07
4.74956e-07
4.9633e-07
4.96411e-07
7.7096e-07
7.97818e-07
4.74797e-07
4.7497e-07
4.96241e-07
4.96423e-07
4.74937e-07
4.96117e-07
4.96387e-07
7.70722e-07
7.98333e-07
4.74827e-07
4.96231e-07
4.9627e-07
7.96293e-07
8.07071e-07
8.30495e-07
5.03565e-07
5.03635e-07
5.25432e-07
5.25501e-07
8.05295e-07
8.32015e-07
5.03478e-07
5.03649e-07
5.25338e-07
5.25523e-07
5.03614e-07
5.2521e-07
5.2548e-07
8.05609e-07
8.32333e-07
5.03494e-07
5.25329e-07
5.25354e-07
8.30204e-07
8.40959e-07
8.63409e-07
5.32782e-07
5.32844e-07
5.54936e-07
5.55003e-07
8.3914e-07
8.64899e-07
5.32691e-07
5.32868e-07
5.54833e-07
5.55025e-07
5.32822e-07
5.54716e-07
5.54974e-07
8.39409e-07
8.65116e-07
5.32696e-07
5.54832e-07
5.54848e-07
8.62972e-07
8.73503e-07
8.96589e-07
5.6236e-07
5.62417e-07
5.84673e-07
5.84729e-07
8.71823e-07
8.96523e-07
5.62259e-07
5.62441e-07
5.84558e-07
5.84755e-07
5.62389e-07
5.84454e-07
5.84703e-07
8.72019e-07
8.96696e-07
5.62263e-07
5.84561e-07
5.84572e-07
8.94572e-07
9.03493e-07
9.26944e-07
5.92127e-07
5.92177e-07
6.14469e-07
6.14518e-07
9.03259e-07
9.26918e-07
5.92014e-07
5.92204e-07
6.14341e-07
6.14547e-07
5.92153e-07
6.14253e-07
6.14499e-07
9.03425e-07
9.27022e-07
5.9202e-07
6.14353e-07
6.14358e-07
9.24994e-07
9.33547e-07
9.56207e-07
6.21917e-07
6.21958e-07
6.44175e-07
6.44214e-07
9.33484e-07
9.56112e-07
6.21791e-07
6.21982e-07
6.44033e-07
6.4424e-07
6.21942e-07
6.43951e-07
6.44205e-07
9.33591e-07
9.56213e-07
6.21801e-07
6.44049e-07
6.44056e-07
9.54283e-07
9.62607e-07
9.84251e-07
6.51575e-07
6.51604e-07
6.73634e-07
6.73654e-07
9.62529e-07
9.84078e-07
6.51437e-07
6.51628e-07
6.73482e-07
6.73679e-07
6.516e-07
6.73399e-07
6.73667e-07
9.62585e-07
9.84163e-07
6.51457e-07
6.73496e-07
6.73521e-07
9.82531e-07
9.90427e-07
1.01102e-06
6.80946e-07
6.80955e-07
7.02701e-07
7.02697e-07
9.9029e-07
1.01086e-06
6.80804e-07
6.80982e-07
7.02548e-07
7.02735e-07
6.80972e-07
7.02453e-07
7.02734e-07
9.90367e-07
1.011e-06
6.80827e-07
7.02563e-07
7.02587e-07
1.01097e-06
1.01703e-06
1.0367e-06
7.09897e-07
7.09882e-07
7.31259e-07
7.31235e-07
1.01685e-06
1.0365e-06
7.09752e-07
7.09925e-07
7.31107e-07
7.31289e-07
7.0993e-07
7.31004e-07
7.31295e-07
1.017e-06
1.03665e-06
7.09782e-07
7.31126e-07
7.31147e-07
1.0365e-06
1.04251e-06
1.06127e-06
7.38307e-07
7.38276e-07
7.59195e-07
7.59161e-07
1.04232e-06
1.0611e-06
7.38164e-07
7.38334e-07
7.59049e-07
7.59227e-07
7.38346e-07
7.58941e-07
7.59237e-07
1.04246e-06
1.06125e-06
7.38198e-07
7.59068e-07
7.59088e-07
1.06111e-06
1.06688e-06
1.08473e-06
7.66072e-07
7.66034e-07
7.86411e-07
7.86377e-07
1.06672e-06
1.08459e-06
7.65935e-07
7.66103e-07
7.86271e-07
7.86454e-07
7.66117e-07
7.86168e-07
7.8646e-07
1.06688e-06
1.0848e-06
7.6597e-07
7.86297e-07
7.86314e-07
1.0846e-06
1.09016e-06
1.10722e-06
7.93093e-07
7.93058e-07
8.12827e-07
8.12799e-07
1.09003e-06
1.10709e-06
7.92965e-07
7.93137e-07
8.12698e-07
8.12881e-07
7.93149e-07
8.12604e-07
8.12886e-07
1.09023e-06
1.10724e-06
7.93005e-07
8.1273e-07
8.12745e-07
1.10708e-06
1.11246e-06
1.1281e-06
8.19294e-07
8.19269e-07
8.38369e-07
8.38353e-07
1.11216e-06
1.12787e-06
8.19176e-07
8.19356e-07
8.38252e-07
8.38439e-07
8.19364e-07
8.38169e-07
8.38443e-07
1.11248e-06
1.12826e-06
8.19225e-07
8.38294e-07
8.38308e-07
1.12853e-06
1.13384e-06
1.14853e-06
8.44609e-07
8.44599e-07
8.62986e-07
8.62987e-07
1.13377e-06
1.14811e-06
8.44504e-07
8.44687e-07
8.62881e-07
8.63074e-07
8.44696e-07
8.62813e-07
8.63082e-07
1.13378e-06
1.14874e-06
8.44563e-07
8.62938e-07
8.6295e-07
1.14877e-06
5.35663e-07
5.35602e-07
5.35656e-07
5.35656e-07
5.34541e-07
5.35515e-07
5.33172e-07
5.35656e-07
5.34548e-07
5.35516e-07
5.35656e-07
5.33446e-07
5.35253e-07
5.36167e-07
5.35518e-07
1.10525e-06
3.85123e-06
9.38055e-07
4.59186e-06
1.27404e-05
1.66349e-05
1.10557e-06
3.84933e-06
9.38347e-07
4.59144e-06
4.95569e-07
4.9557e-07
4.95569e-07
4.57236e-07
4.57236e-07
4.57238e-07
4.57238e-07
5.43525e-07
1.22749e-06
4.95579e-07
4.85578e-07
5.26247e-07
1.21685e-06
4.82313e-07
1.28323e-05
1.6686e-05
5.43482e-07
4.95576e-07
1.22666e-06
4.85582e-07
5.259e-07
4.8231e-07
1.21918e-06
2.5459e-06
2.52473e-06
4.84287e-07
2.3848e-06
2.3791e-06
1.42764e-06
5.58321e-06
1.32974e-06
6.13328e-06
2.13249e-05
2.31404e-05
1.42776e-06
5.58289e-06
1.32967e-06
6.13279e-06
4.45583e-07
4.45587e-07
4.45585e-07
4.1356e-07
4.13562e-07
4.13577e-07
4.13565e-07
5.8737e-07
1.20086e-06
4.46468e-07
4.44447e-07
5.74299e-07
1.21043e-06
4.35732e-07
2.13213e-05
2.31556e-05
5.87452e-07
4.46476e-07
1.20139e-06
4.4446e-07
5.74479e-07
4.35744e-07
1.20953e-06
2.30581e-06
2.30449e-06
4.53703e-07
2.34564e-06
2.34477e-06
1.65879e-06
6.91595e-06
1.59213e-06
7.32299e-06
2.46483e-05
2.49414e-05
1.65922e-06
6.91674e-06
1.59176e-06
7.32392e-06
4.03775e-07
4.0379e-07
4.03777e-07
3.76714e-07
3.76717e-07
3.76732e-07
3.76719e-07
6.15461e-07
1.24711e-06
4.06605e-07
4.10782e-07
6.08222e-07
1.27114e-06
3.97792e-07
2.46525e-05
2.49414e-05
6.15313e-07
4.06618e-07
1.24806e-06
4.10791e-07
6.08407e-07
3.97805e-07
1.27003e-06
2.46239e-06
2.46208e-06
4.30286e-07
2.52158e-06
2.52208e-06
1.80886e-06
7.84647e-06
1.76726e-06
8.1032e-06
2.47317e-05
2.44326e-05
1.80858e-06
7.84699e-06
1.76796e-06
8.10371e-06
3.68392e-07
3.68405e-07
3.68394e-07
3.45218e-07
3.45221e-07
3.4523e-07
3.45223e-07
6.25738e-07
1.31813e-06
3.73548e-07
3.81784e-07
6.24358e-07
1.33765e-06
3.66098e-07
2.4733e-05
2.44307e-05
6.25759e-07
3.73553e-07
1.31783e-06
3.81786e-07
6.24547e-07
3.66103e-07
1.33747e-06
2.62612e-06
2.62652e-06
4.08467e-07
2.67081e-06
2.67097e-06
1.88824e-06
8.39501e-06
1.86971e-06
8.53158e-06
2.36834e-05
2.32667e-05
1.89004e-06
8.39498e-06
1.86873e-06
8.53187e-06
3.38041e-07
3.3805e-07
3.38044e-07
3.17931e-07
3.17932e-07
3.17938e-07
3.17935e-07
6.21381e-07
1.37708e-06
3.45299e-07
3.55992e-07
6.24648e-07
1.39042e-06
3.38819e-07
2.36825e-05
2.32683e-05
6.21409e-07
3.45299e-07
1.37709e-06
3.55995e-07
6.24655e-07
3.38821e-07
1.39061e-06
2.75771e-06
2.7594e-06
3.86733e-07
2.80241e-06
2.80131e-06
1.92581e-06
8.66163e-06
1.91909e-06
8.71775e-06
2.24951e-05
2.21241e-05
1.92646e-06
8.66207e-06
1.91771e-06
8.71854e-06
3.11663e-07
3.11669e-07
3.11666e-07
2.94008e-07
2.94008e-07
2.94012e-07
2.94011e-07
6.07963e-07
1.42041e-06
3.20527e-07
3.32678e-07
6.14141e-07
1.42938e-06
3.14773e-07
2.24957e-05
2.21261e-05
6.07941e-07
3.20527e-07
1.42112e-06
3.32686e-07
6.14115e-07
3.14776e-07
1.43037e-06
2.89437e-06
2.89515e-06
3.65293e-07
2.94221e-06
2.94273e-06
1.94387e-06
8.75698e-06
1.94019e-06
8.7686e-06
2.14745e-05
2.11837e-05
1.94422e-06
8.75786e-06
1.94016e-06
8.76948e-06
2.88476e-07
2.8848e-07
2.88479e-07
2.72831e-07
2.72831e-07
2.72835e-07
2.72834e-07
5.90813e-07
1.4567e-06
2.98416e-07
3.11503e-07
5.9796e-07
1.46498e-06
2.93241e-07
2.14752e-05
2.11851e-05
5.90731e-07
2.98414e-07
1.45692e-06
3.1151e-07
5.97893e-07
2.93241e-07
1.46573e-06
3.04934e-06
3.05161e-06
3.44795e-07
3.10833e-06
3.10708e-06
1.96201e-06
8.7652e-06
1.95648e-06
8.76077e-06
2.06747e-05
2.04559e-05
1.96238e-06
8.76595e-06
1.95627e-06
8.76148e-06
2.67911e-07
2.67914e-07
2.67913e-07
2.53952e-07
2.53952e-07
2.53955e-07
2.53954e-07
5.74328e-07
1.49521e-06
2.78476e-07
2.92326e-07
5.80782e-07
1.50673e-06
2.73793e-07
2.06761e-05
2.04564e-05
5.74241e-07
2.78471e-07
1.49549e-06
2.92332e-07
5.80687e-07
2.7379e-07
1.50658e-06
3.22749e-06
3.23067e-06
3.25881e-07
3.29324e-06
3.29203e-06
1.99379e-06
8.74534e-06
1.9821e-06
8.74015e-06
2.0074e-05
1.99137e-05
1.99398e-06
8.74607e-06
1.98114e-06
8.74096e-06
2.49551e-07
2.49554e-07
2.49553e-07
2.37042e-07
2.37042e-07
2.37044e-07
2.37044e-07
5.61631e-07
1.54335e-06
2.60419e-07
2.75115e-07
5.66329e-07
1.55908e-06
2.56177e-07
2.00758e-05
1.99141e-05
5.61725e-07
2.60414e-07
1.54344e-06
2.7512e-07
5.66267e-07
2.56174e-07
1.55936e-06
3.42578e-06
3.42731e-06
3.08914e-07
3.49205e-06
3.4939e-06
2.04521e-06
8.7302e-06
2.02458e-06
8.72844e-06
1.96361e-05
1.95187e-05
2.04514e-06
8.73102e-06
2.02447e-06
8.72937e-06
2.33092e-07
2.33094e-07
2.33094e-07
2.21855e-07
2.21855e-07
2.21857e-07
2.21856e-07
5.55525e-07
1.60316e-06
2.44075e-07
2.59875e-07
5.57519e-07
1.62727e-06
2.40242e-07
1.96372e-05
1.95204e-05
5.55471e-07
2.44071e-07
1.60466e-06
2.59882e-07
5.57488e-07
2.40241e-07
1.62543e-06
3.63166e-06
3.63441e-06
2.94472e-07
3.70314e-06
3.702e-06
2.12004e-06
8.72816e-06
2.09074e-06
8.73146e-06
1.93218e-05
1.92388e-05
2.11928e-06
8.72919e-06
2.09047e-06
8.73253e-06
2.18306e-07
2.18307e-07
2.18307e-07
2.08205e-07
2.08205e-07
2.08206e-07
2.08205e-07
5.56772e-07
1.67814e-06
2.2933e-07
2.4661e-07
5.55928e-07
1.70785e-06
2.25885e-07
1.93215e-05
1.92426e-05
5.56741e-07
2.29329e-07
1.68008e-06
2.46617e-07
5.55911e-07
2.25886e-07
1.70579e-06
3.84085e-06
3.84408e-06
2.82835e-07
3.91049e-06
3.91025e-06
2.21996e-06
8.73779e-06
2.18178e-06
8.74618e-06
1.91011e-05
1.90463e-05
2.21927e-06
8.73895e-06
2.18194e-06
8.74742e-06
2.05016e-07
2.05017e-07
2.05016e-07
1.95943e-07
1.95945e-07
1.95945e-07
1.95943e-07
5.66598e-07
1.76707e-06
2.16108e-07
2.35311e-07
5.6228e-07
1.80091e-06
2.13033e-07
1.91006e-05
1.90475e-05
5.66609e-07
2.16108e-07
1.76892e-06
2.35317e-07
5.62308e-07
2.13037e-07
1.79892e-06
4.04508e-06
4.04746e-06
2.74166e-07
4.11064e-06
4.11144e-06
2.34369e-06
8.75677e-06
2.29874e-06
8.76671e-06
1.89453e-05
1.89098e-05
2.3435e-06
8.75808e-06
2.29902e-06
8.76811e-06
1.93084e-07
1.93084e-07
1.93081e-07
1.84952e-07
1.84954e-07
1.84954e-07
1.84951e-07
5.85698e-07
1.86736e-06
2.04346e-07
2.25984e-07
5.77998e-07
1.90403e-06
2.01626e-07
1.89468e-05
1.89115e-05
5.85782e-07
2.04347e-07
1.86917e-06
2.2599e-07
5.7799e-07
2.01631e-07
1.90227e-06
4.2366e-06
4.23902e-06
2.68561e-07
4.29737e-06
4.29773e-06
2.49058e-06
8.77859e-06
2.43939e-06
8.78856e-06
1.88374e-05
1.88141e-05
2.48923e-06
8.78021e-06
2.43994e-06
8.7903e-06
1.82396e-07
1.82396e-07
1.82392e-07
1.75135e-07
1.75139e-07
1.75139e-07
1.75135e-07
6.14857e-07
1.97795e-06
1.93991e-07
2.18632e-07
6.03653e-07
2.01324e-06
1.91615e-07
1.88388e-05
1.88157e-05
6.14412e-07
1.93992e-07
1.97799e-06
2.18636e-07
6.04123e-07
1.91619e-07
2.01326e-06
4.41106e-06
4.41251e-06
2.66327e-07
4.46354e-06
4.46709e-06
2.65391e-06
8.79994e-06
2.59848e-06
8.80911e-06
1.87595e-05
1.87432e-05
2.65338e-06
8.80183e-06
2.59929e-06
8.81115e-06
1.72862e-07
1.72862e-07
1.72858e-07
1.66417e-07
1.66422e-07
1.66422e-07
1.66418e-07
6.5422e-07
2.09195e-06
1.84999e-07
2.13259e-07
6.39513e-07
2.12815e-06
1.82956e-07
1.87609e-05
1.87445e-05
6.53649e-07
1.84999e-07
2.09074e-06
2.13263e-07
6.40045e-07
1.82959e-07
2.13023e-06
4.56602e-06
4.56621e-06
2.66935e-07
4.61102e-06
4.614e-06
2.82845e-06
8.81938e-06
2.76993e-06
8.82775e-06
1.87009e-05
1.86871e-05
2.8279e-06
8.82147e-06
2.7705e-06
8.82984e-06
1.64409e-07
1.64409e-07
1.64405e-07
1.58732e-07
1.58736e-07
1.58736e-07
1.58733e-07
7.03567e-07
2.20785e-06
1.77331e-07
2.09875e-07
6.85996e-07
2.24396e-06
1.75612e-07
1.87021e-05
1.8688e-05
7.03415e-07
1.77328e-07
2.20792e-06
2.0988e-07
6.8635e-07
1.75615e-07
2.24439e-06
4.69876e-06
4.7006e-06
2.70723e-07
4.73652e-06
4.73831e-06
3.00333e-06
8.83704e-06
2.94648e-06
8.84469e-06
1.86526e-05
1.864e-05
3.00365e-06
8.83913e-06
2.94641e-06
8.84679e-06
1.56972e-07
1.56972e-07
1.56968e-07
1.52026e-07
1.52029e-07
1.52029e-07
1.52026e-07
7.63023e-07
2.32236e-06
1.70958e-07
2.0849e-07
7.4216e-07
2.3573e-06
1.69559e-07
1.86538e-05
1.86413e-05
7.62789e-07
1.70954e-07
2.3223e-06
2.08499e-07
7.426e-07
1.6956e-07
2.35808e-06
4.81102e-06
4.81166e-06
2.78012e-07
4.84338e-06
4.84551e-06
3.17399e-06
8.85327e-06
3.11781e-06
8.86042e-06
1.86099e-05
1.85984e-05
3.17394e-06
8.85545e-06
3.11819e-06
8.86253e-06
1.505e-07
1.505e-07
1.50497e-07
1.4625e-07
1.4625e-07
1.46252e-07
1.46248e-07
8.31467e-07
2.43152e-06
1.65862e-07
2.0915e-07
8.07929e-07
2.46776e-06
1.6478e-07
1.86113e-05
1.85999e-05
8.30924e-07
1.65858e-07
2.43279e-06
2.09162e-07
8.08226e-07
1.64782e-07
2.46617e-06
4.90435e-06
4.90601e-06
2.88531e-07
4.92955e-06
4.93125e-06
3.33016e-06
8.86851e-06
3.27899e-06
8.87528e-06
1.85709e-05
1.85608e-05
3.32946e-06
8.87067e-06
3.28032e-06
8.87735e-06
1.44947e-07
1.44949e-07
1.44945e-07
1.41367e-07
1.41365e-07
1.41368e-07
1.41364e-07
9.06987e-07
2.53684e-06
1.62038e-07
2.11857e-07
8.8134e-07
2.56772e-06
1.61269e-07
1.85723e-05
1.85621e-05
9.06904e-07
1.62035e-07
2.53683e-06
2.11874e-07
8.81625e-07
1.61271e-07
2.56795e-06
4.98107e-06
4.98166e-06
3.02406e-07
5.0012e-06
5.00465e-06
3.46822e-06
8.88297e-06
3.42373e-06
8.88938e-06
1.8535e-05
1.85254e-05
3.46764e-06
8.88547e-06
3.42511e-06
8.89101e-06
1.40279e-07
1.40283e-07
1.40278e-07
1.37345e-07
1.37342e-07
1.37347e-07
1.37341e-07
9.88329e-07
2.63304e-06
1.59488e-07
2.16648e-07
9.60692e-07
2.6611e-06
1.59032e-07
1.85363e-05
1.85268e-05
9.87724e-07
1.5949e-07
2.63315e-06
2.16671e-07
9.61309e-07
1.59037e-07
2.6613e-06
5.04376e-06
5.04429e-06
3.19626e-07
5.05972e-06
5.06317e-06
3.5849e-06
8.89687e-06
3.54909e-06
8.90212e-06
1.8501e-05
1.84921e-05
3.58562e-06
8.89888e-06
3.54941e-06
8.90407e-06
1.36466e-07
1.36471e-07
1.36465e-07
1.34159e-07
1.34155e-07
1.34161e-07
1.34154e-07
1.07211e-06
2.7205e-06
1.58224e-07
2.23539e-07
1.04475e-06
2.74566e-06
1.58076e-07
1.85026e-05
1.84939e-05
1.07207e-06
1.58226e-07
2.72069e-06
2.23568e-07
1.04485e-06
1.5808e-07
2.7459e-06
5.09499e-06
5.09556e-06
3.40321e-07
5.10752e-06
5.11098e-06
3.68176e-06
8.90943e-06
3.65181e-06
8.9141e-06
1.84694e-05
1.84615e-05
3.68224e-06
8.91133e-06
3.65189e-06
8.91603e-06
1.33482e-07
1.33489e-07
1.33482e-07
1.31787e-07
1.31783e-07
1.3179e-07
1.31782e-07
1.15781e-06
2.79913e-06
1.58228e-07
2.32533e-07
1.12941e-06
2.82142e-06
1.58437e-07
1.84711e-05
1.84632e-05
1.15726e-06
1.58226e-07
2.79935e-06
2.32567e-07
1.13002e-06
1.58444e-07
2.82168e-06
5.13695e-06
5.13757e-06
3.64236e-07
5.14672e-06
5.15012e-06
3.75765e-06
8.92062e-06
3.73487e-06
8.92476e-06
1.84404e-05
1.84332e-05
3.75889e-06
8.92253e-06
3.73491e-06
8.92671e-06
1.31308e-07
1.31316e-07
1.31308e-07
1.30212e-07
1.30208e-07
1.30217e-07
1.30208e-07
1.24109e-06
2.86918e-06
1.59557e-07
2.43623e-07
1.21443e-06
2.88859e-06
1.60095e-07
1.8442e-05
1.84348e-05
1.24121e-06
1.59553e-07
2.86931e-06
2.43662e-07
1.21454e-06
1.60103e-07
2.88882e-06
5.17149e-06
5.17203e-06
3.9126e-07
5.17896e-06
5.18188e-06
3.81755e-06
8.93052e-06
3.80012e-06
8.93418e-06
1.84137e-05
1.84072e-05
3.81802e-06
8.93243e-06
3.80076e-06
8.93612e-06
1.29927e-07
1.29936e-07
1.29927e-07
1.29422e-07
1.29418e-07
1.29429e-07
1.2942e-07
1.32196e-06
2.93105e-06
1.62211e-07
2.56776e-07
1.29635e-06
2.94786e-06
1.63084e-07
1.84152e-05
1.84087e-05
1.32185e-06
1.62206e-07
2.93108e-06
2.56821e-07
1.29643e-06
1.63092e-07
2.9481e-06
5.19952e-06
5.20082e-06
4.20897e-07
5.20574e-06
5.20851e-06
3.86438e-06
8.93915e-06
3.85026e-06
8.94228e-06
1.83893e-05
1.83835e-05
3.86459e-06
8.94105e-06
3.85043e-06
8.94427e-06
1.29326e-07
1.29336e-07
1.29327e-07
1.29397e-07
1.29392e-07
1.29405e-07
1.29395e-07
1.39803e-06
2.98548e-06
1.66208e-07
2.71949e-07
1.37406e-06
3.00005e-06
1.67423e-07
1.83907e-05
1.83851e-05
1.3981e-06
1.66199e-07
2.98547e-06
2.71995e-07
1.37421e-06
1.67429e-07
3.00023e-06
5.2231e-06
5.22448e-06
4.52986e-07
5.22881e-06
5.23106e-06
3.8984e-06
8.94638e-06
3.88887e-06
8.9496e-06
1.83672e-05
1.83623e-05
3.89871e-06
8.94831e-06
3.8891e-06
8.95152e-06
1.29507e-07
1.29519e-07
1.29511e-07
1.30144e-07
1.30139e-07
1.30152e-07
1.30144e-07
1.46843e-06
3.03337e-06
1.71567e-07
2.8906e-07
1.44657e-06
3.04605e-06
1.73122e-07
1.83686e-05
1.83637e-05
1.4691e-06
1.71558e-07
3.03338e-06
2.89109e-07
1.44619e-06
1.73131e-07
3.04619e-06
5.24293e-06
5.24476e-06
4.873e-07
5.24797e-06
5.24988e-06
3.92488e-06
8.95306e-06
3.91795e-06
8.95577e-06
1.83473e-05
1.83431e-05
3.92515e-06
8.95489e-06
3.91808e-06
8.9576e-06
1.30446e-07
1.3046e-07
1.30452e-07
1.31654e-07
1.31649e-07
1.31664e-07
1.31657e-07
1.53288e-06
3.07562e-06
1.78293e-07
3.08021e-07
1.51305e-06
3.08662e-06
1.8019e-07
1.83486e-05
1.83445e-05
1.53346e-06
1.78285e-07
3.07565e-06
3.08076e-07
1.51258e-06
1.80202e-07
3.08681e-06
5.25958e-06
5.26142e-06
5.22869e-07
5.26415e-06
5.26601e-06
3.94511e-06
8.95874e-06
3.94005e-06
8.96139e-06
1.83296e-05
1.83262e-05
3.94535e-06
8.96073e-06
3.94016e-06
8.96334e-06
1.32146e-07
1.32162e-07
1.32156e-07
1.33924e-07
1.33919e-07
1.33935e-07
1.33929e-07
1.59112e-06
3.113e-06
1.86388e-07
3.28726e-07
1.57326e-06
3.12261e-06
1.88627e-07
1.83307e-05
1.83274e-05
1.59172e-06
1.86379e-07
3.11307e-06
3.28786e-07
1.57292e-06
1.88641e-07
3.12279e-06
5.2742e-06
5.27608e-06
5.59142e-07
5.27795e-06
5.27991e-06
3.96072e-06
8.9642e-06
3.95686e-06
8.96674e-06
1.83141e-05
1.83114e-05
3.96129e-06
8.96614e-06
3.9572e-06
8.96878e-06
1.34607e-07
1.34623e-07
1.34619e-07
1.36954e-07
1.36949e-07
1.36966e-07
1.36962e-07