/*--------------------------------*- C++ -*----------------------------------*\
| =========                 |                                                 |
| \\      /  F ield         | OpenFOAM: The Open Source CFD Toolbox           |
|  \\    /   O peration     | Version:  v2012                                 |
|   \\  /    A nd           | Website:  www.openfoam.com                      |
|    \\/     M anipulation  |                                                 |
\*---------------------------------------------------------------------------*/
FoamFile
{
    version     2.0;
    format      ascii;
    class       volScalarField;
    location    "350";
    object      k;
}
// * * * * * * * * * * * * * * * * * * * * * * * * * * * * * * * * * * * * * //

dimensions      [0 2 -2 0 0 0 0];


internalField   nonuniform List<scalar> 
171728
(
2.1038e-05
3.669e-05
4.19303e-05
3.66909e-05
3.66894e-05
3.66912e-05
4.19514e-05
7.13599e-05
7.13653e-05
6.4731e-05
2.10388e-05
6.95335e-05
6.02142e-05
6.95333e-05
6.95355e-05
6.69221e-05
6.69324e-05
6.02136e-05
6.02193e-05
2.90776e-05
5.33388e-05
7.13599e-05
6.47288e-05
2.90777e-05
6.02161e-05
5.33361e-05
6.69268e-05
6.69222e-05
6.95331e-05
7.13606e-05
7.13755e-05
7.73966e-05
7.01959e-05
7.02122e-05
7.1381e-05
7.74165e-05
7.74374e-05
7.01981e-05
7.01561e-05
6.47726e-05
6.82247e-05
6.98504e-05
6.8261e-05
6.98632e-05
7.01436e-05
6.95462e-05
6.95459e-05
6.95481e-05
7.01202e-05
5.9369e-05
6.69392e-05
7.11427e-05
7.11608e-05
5.94212e-05
7.00993e-05
7.01715e-05
5.93794e-05
6.69503e-05
7.11529e-05
7.11711e-05
5.9431e-05
7.01488e-05
9.23857e-05
7.20346e-05
7.20281e-05
7.20486e-05
7.20421e-05
9.23738e-05
7.02093e-05
7.13753e-05
7.73949e-05
7.74147e-05
7.01946e-05
7.01526e-05
6.47698e-05
6.98495e-05
6.82164e-05
6.98623e-05
6.8252e-05
7.01416e-05
7.01707e-05
5.9379e-05
6.69417e-05
7.11509e-05
7.11691e-05
5.94264e-05
7.01496e-05
7.01215e-05
5.93712e-05
6.69393e-05
7.11421e-05
5.94224e-05
7.11602e-05
7.01004e-05
9.23866e-05
7.2028e-05
7.20343e-05
7.2042e-05
7.20483e-05
9.23781e-05
6.95457e-05
7.13764e-05
1.50347e-05
5.96546e-05
5.06098e-05
5.06137e-05
4.19556e-05
5.06425e-05
5.06465e-05
5.96227e-05
5.96538e-05
5.06171e-05
5.06166e-05
4.19431e-05
5.06443e-05
5.06439e-05
5.96229e-05
1.50371e-05
4.82237e-05
5.26149e-05
6.02621e-05
5.85484e-05
5.26456e-05
5.86062e-05
4.82104e-05
4.82406e-05
5.26081e-05
6.02608e-05
5.85476e-05
5.86059e-05
5.26522e-05
4.82024e-05
4.82437e-05
5.26133e-05
6.02665e-05
5.85559e-05
5.86143e-05
5.26553e-05
4.82063e-05
4.58953e-05
5.34175e-05
5.56431e-05
4.39311e-05
5.57162e-05
4.39787e-05
4.58745e-05
4.82371e-05
5.26108e-05
6.02585e-05
5.85459e-05
5.8604e-05
5.26513e-05
4.82006e-05
4.58715e-05
5.34152e-05
4.39287e-05
5.5638e-05
4.39755e-05
5.57084e-05
4.58713e-05
3.58933e-05
3.58914e-05
3.58914e-05
3.59958e-05
3.39293e-05
3.38876e-05
3.38874e-05
3.396e-05
3.21569e-05
3.20043e-05
3.20041e-05
3.1946e-05
3.0533e-05
3.02228e-05
3.02227e-05
2.99794e-05
2.90303e-05
2.85455e-05
2.85452e-05
2.81109e-05
2.76319e-05
2.69774e-05
2.6977e-05
2.63778e-05
2.63265e-05
2.55204e-05
2.55199e-05
2.47951e-05
2.51062e-05
2.41734e-05
2.4173e-05
2.33648e-05
2.39652e-05
2.29379e-05
2.29375e-05
2.20899e-05
2.28993e-05
2.18132e-05
2.18128e-05
2.097e-05
2.19049e-05
2.07967e-05
2.07963e-05
1.99958e-05
2.09787e-05
1.98854e-05
1.9885e-05
1.91623e-05
2.01157e-05
1.90773e-05
1.9077e-05
1.84685e-05
1.93147e-05
1.83692e-05
1.83689e-05
1.79083e-05
1.85748e-05
1.77576e-05
1.77574e-05
1.74771e-05
1.78933e-05
1.72412e-05
1.7241e-05
1.71676e-05
1.7268e-05
1.6819e-05
1.68189e-05
1.69823e-05
1.66966e-05
1.64903e-05
1.64902e-05
1.69383e-05
1.61779e-05
1.6255e-05
1.62547e-05
1.70315e-05
1.57094e-05
1.61129e-05
1.61127e-05
1.72588e-05
1.52896e-05
1.60636e-05
1.60637e-05
1.76102e-05
1.49178e-05
1.61052e-05
1.61055e-05
1.80888e-05
1.45927e-05
1.62384e-05
1.62389e-05
1.8684e-05
1.4314e-05
1.64608e-05
1.64615e-05
1.9385e-05
1.40811e-05
1.67701e-05
1.67711e-05
2.01604e-05
1.38936e-05
1.71634e-05
1.71648e-05
2.10547e-05
1.37513e-05
1.76369e-05
1.76388e-05
2.19967e-05
1.3654e-05
1.8187e-05
1.81888e-05
2.29933e-05
1.36016e-05
1.88091e-05
1.8811e-05
2.39965e-05
1.35951e-05
1.94981e-05
1.95001e-05
2.50603e-05
1.36327e-05
2.02486e-05
2.02508e-05
2.61323e-05
1.37165e-05
2.10549e-05
2.10571e-05
2.72079e-05
1.38461e-05
2.19105e-05
2.19134e-05
2.82614e-05
1.40218e-05
2.28097e-05
2.28125e-05
2.93276e-05
1.42439e-05
2.37457e-05
2.3748e-05
3.03713e-05
1.45122e-05
2.47121e-05
2.47145e-05
3.13981e-05
1.48267e-05
2.5703e-05
2.57052e-05
3.23998e-05
1.51872e-05
2.67115e-05
2.67137e-05
3.34117e-05
1.5593e-05
2.77318e-05
2.7734e-05
3.43491e-05
1.60433e-05
2.87587e-05
2.87606e-05
3.52939e-05
1.65369e-05
2.97868e-05
2.97884e-05
3.62075e-05
1.70724e-05
3.08119e-05
3.08142e-05
3.70976e-05
1.7648e-05
3.18299e-05
3.18326e-05
3.79783e-05
1.82616e-05
3.28368e-05
3.28398e-05
3.88307e-05
1.89104e-05
3.38288e-05
3.3832e-05
3.96379e-05
1.95916e-05
3.4803e-05
3.4806e-05
4.04421e-05
2.0302e-05
3.57566e-05
3.57594e-05
4.12039e-05
3.63062e-05
3.62907e-05
3.62907e-05
3.63062e-05
3.62907e-05
3.62907e-05
3.6423e-05
3.6423e-05
3.6423e-05
3.6423e-05
3.62907e-05
3.62907e-05
3.63062e-05
3.62907e-05
3.62907e-05
3.63062e-05
3.59958e-05
3.42668e-05
3.58914e-05
3.58914e-05
3.43755e-05
3.43752e-05
3.59959e-05
3.42665e-05
3.58914e-05
3.58914e-05
3.43754e-05
3.43751e-05
3.58915e-05
3.43756e-05
3.43754e-05
3.59958e-05
3.42665e-05
3.58914e-05
3.43755e-05
3.43753e-05
3.42668e-05
3.39598e-05
3.2258e-05
3.38875e-05
3.38869e-05
3.24656e-05
3.24644e-05
3.39596e-05
3.22576e-05
3.38872e-05
3.38861e-05
3.24651e-05
3.24617e-05
3.38873e-05
3.24654e-05
3.24651e-05
3.39596e-05
3.22574e-05
3.38872e-05
3.24651e-05
3.24649e-05
3.22577e-05
3.19464e-05
3.02907e-05
3.20047e-05
3.20033e-05
3.06594e-05
3.06577e-05
3.19458e-05
3.02897e-05
3.20042e-05
3.20002e-05
3.06589e-05
3.06538e-05
3.20041e-05
3.06588e-05
3.06586e-05
3.19456e-05
3.02893e-05
3.20038e-05
3.06586e-05
3.06583e-05
3.02904e-05
2.99795e-05
2.84141e-05
3.02235e-05
3.02219e-05
2.89552e-05
2.89537e-05
2.99784e-05
2.84133e-05
3.0223e-05
3.02179e-05
2.89548e-05
2.89509e-05
3.02226e-05
2.89548e-05
2.89543e-05
2.9978e-05
2.84124e-05
3.02225e-05
2.89545e-05
2.89543e-05
2.84137e-05
2.81114e-05
2.66621e-05
2.8546e-05
2.85444e-05
2.73593e-05
2.73576e-05
2.81105e-05
2.66618e-05
2.85455e-05
2.85421e-05
2.73588e-05
2.73568e-05
2.85449e-05
2.7359e-05
2.73579e-05
2.81098e-05
2.66607e-05
2.8545e-05
2.73586e-05
2.73583e-05
2.66608e-05
2.63781e-05
2.50539e-05
2.69776e-05
2.69759e-05
2.58742e-05
2.58727e-05
2.63778e-05
2.5054e-05
2.69772e-05
2.69754e-05
2.58741e-05
2.58727e-05
2.69762e-05
2.58743e-05
2.58729e-05
2.63775e-05
2.50527e-05
2.69767e-05
2.58739e-05
2.58734e-05
2.50515e-05
2.47939e-05
2.35974e-05
2.55202e-05
2.55188e-05
2.44993e-05
2.44982e-05
2.47941e-05
2.35974e-05
2.55201e-05
2.55188e-05
2.44993e-05
2.44982e-05
2.55189e-05
2.44997e-05
2.44982e-05
2.47943e-05
2.35971e-05
2.55194e-05
2.44992e-05
2.44987e-05
2.35973e-05
2.33653e-05
2.22963e-05
2.4173e-05
2.41719e-05
2.32359e-05
2.3235e-05
2.33657e-05
2.22972e-05
2.4173e-05
2.41718e-05
2.32358e-05
2.32347e-05
2.41719e-05
2.32363e-05
2.32348e-05
2.3365e-05
2.22953e-05
2.41724e-05
2.32359e-05
2.32355e-05
2.22962e-05
2.20908e-05
2.11517e-05
2.29375e-05
2.29366e-05
2.20836e-05
2.20829e-05
2.20905e-05
2.11524e-05
2.29374e-05
2.29363e-05
2.20834e-05
2.20823e-05
2.29364e-05
2.20841e-05
2.20824e-05
2.2091e-05
2.11516e-05
2.29372e-05
2.20837e-05
2.20835e-05
2.11508e-05
2.09707e-05
2.01534e-05
2.18127e-05
2.1812e-05
2.10402e-05
2.10396e-05
2.09709e-05
2.01536e-05
2.18125e-05
2.18113e-05
2.104e-05
2.10388e-05
2.18114e-05
2.10408e-05
2.10388e-05
2.09703e-05
2.01531e-05
2.18126e-05
2.10404e-05
2.10402e-05
2.01524e-05
1.99968e-05
1.92962e-05
2.07961e-05
2.07955e-05
2.01028e-05
2.01023e-05
1.99977e-05
1.92966e-05
2.07958e-05
2.07947e-05
2.01026e-05
2.01015e-05
2.07946e-05
2.01036e-05
2.01013e-05
1.99967e-05
1.9296e-05
2.07961e-05
2.01031e-05
2.01028e-05
1.92954e-05
1.91631e-05
1.85691e-05
1.98846e-05
1.98842e-05
1.92688e-05
1.92685e-05
1.91642e-05
1.85703e-05
1.98844e-05
1.98834e-05
1.92686e-05
1.92678e-05
1.98832e-05
1.92697e-05
1.92675e-05
1.91632e-05
1.85694e-05
1.98847e-05
1.92693e-05
1.92689e-05
1.85688e-05
1.84687e-05
1.79728e-05
1.90764e-05
1.90762e-05
1.85358e-05
1.85357e-05
1.84699e-05
1.7974e-05
1.90762e-05
1.90755e-05
1.85356e-05
1.8535e-05
1.90752e-05
1.85368e-05
1.85348e-05
1.84692e-05
1.79731e-05
1.90766e-05
1.85365e-05
1.85361e-05
1.79726e-05
1.79086e-05
1.75106e-05
1.83681e-05
1.83681e-05
1.79005e-05
1.79004e-05
1.79096e-05
1.75113e-05
1.8368e-05
1.83674e-05
1.79003e-05
1.78998e-05
1.83671e-05
1.79014e-05
1.78995e-05
1.79089e-05
1.75105e-05
1.83684e-05
1.79011e-05
1.79007e-05
1.751e-05
1.74778e-05
1.71851e-05
1.77567e-05
1.77567e-05
1.73604e-05
1.73603e-05
1.74783e-05
1.71866e-05
1.77567e-05
1.77561e-05
1.73604e-05
1.73597e-05
1.77559e-05
1.73611e-05
1.73595e-05
1.74772e-05
1.71848e-05
1.7757e-05
1.73609e-05
1.73606e-05
1.71848e-05
1.71669e-05
1.69877e-05
1.72405e-05
1.72404e-05
1.69148e-05
1.69147e-05
1.71665e-05
1.69877e-05
1.72406e-05
1.72398e-05
1.69149e-05
1.69142e-05
1.72397e-05
1.69153e-05
1.6914e-05
1.71662e-05
1.6987e-05
1.72407e-05
1.69151e-05
1.6915e-05
1.69869e-05
1.69831e-05
1.69303e-05
1.68186e-05
1.68185e-05
1.65626e-05
1.65625e-05
1.69823e-05
1.69304e-05
1.68187e-05
1.68179e-05
1.65627e-05
1.6562e-05
1.68179e-05
1.65629e-05
1.6562e-05
1.69814e-05
1.69298e-05
1.68188e-05
1.65627e-05
1.65628e-05
1.69299e-05
1.69386e-05
1.69975e-05
1.64899e-05
1.649e-05
1.63036e-05
1.63037e-05
1.69385e-05
1.69975e-05
1.64901e-05
1.64894e-05
1.63039e-05
1.63032e-05
1.64895e-05
1.6304e-05
1.63031e-05
1.6938e-05
1.6997e-05
1.64902e-05
1.63036e-05
1.63039e-05
1.69953e-05
1.70306e-05
1.71972e-05
1.62546e-05
1.62548e-05
1.61379e-05
1.61381e-05
1.70308e-05
1.71967e-05
1.62549e-05
1.62543e-05
1.61382e-05
1.61376e-05
1.62542e-05
1.61382e-05
1.61375e-05
1.703e-05
1.71972e-05
1.6255e-05
1.61379e-05
1.61382e-05
1.71866e-05
1.72507e-05
1.75281e-05
1.61127e-05
1.61129e-05
1.60652e-05
1.60655e-05
1.7248e-05
1.75251e-05
1.6113e-05
1.61125e-05
1.60657e-05
1.60653e-05
1.61124e-05
1.60653e-05
1.60652e-05
1.72485e-05
1.75262e-05
1.61131e-05
1.60653e-05
1.60655e-05
1.75132e-05
1.75996e-05
1.79817e-05
1.60636e-05
1.60638e-05
1.6086e-05
1.60861e-05
1.75972e-05
1.79613e-05
1.60641e-05
1.60637e-05
1.60864e-05
1.60861e-05
1.60636e-05
1.60858e-05
1.60859e-05
1.75984e-05
1.79815e-05
1.60639e-05
1.6086e-05
1.60862e-05
1.79674e-05
1.80754e-05
1.85531e-05
1.61053e-05
1.61056e-05
1.61969e-05
1.61973e-05
1.80845e-05
1.85357e-05
1.61057e-05
1.61056e-05
1.61972e-05
1.61972e-05
1.61055e-05
1.61965e-05
1.61969e-05
1.80748e-05
1.85368e-05
1.61057e-05
1.61968e-05
1.6197e-05
1.85397e-05
1.86715e-05
1.92125e-05
1.62387e-05
1.62393e-05
1.63975e-05
1.6398e-05
1.86811e-05
1.92123e-05
1.6239e-05
1.62393e-05
1.63978e-05
1.63981e-05
1.6239e-05
1.63968e-05
1.63978e-05
1.8683e-05
1.92131e-05
1.62392e-05
1.63974e-05
1.63978e-05
1.92167e-05
1.93807e-05
1.9985e-05
1.64615e-05
1.64621e-05
1.66857e-05
1.66862e-05
1.93807e-05
1.99843e-05
1.64617e-05
1.64623e-05
1.66858e-05
1.66864e-05
1.6462e-05
1.66846e-05
1.66864e-05
1.93805e-05
1.99837e-05
1.64621e-05
1.66855e-05
1.66862e-05
2.00114e-05
2.01739e-05
2.08398e-05
1.67711e-05
1.67718e-05
1.70589e-05
1.70591e-05
2.01739e-05
2.08615e-05
1.67712e-05
1.6772e-05
1.70588e-05
1.70594e-05
1.6772e-05
1.70574e-05
1.70597e-05
2.01739e-05
2.08389e-05
1.67719e-05
1.70584e-05
1.70592e-05
2.08449e-05
2.10491e-05
2.17648e-05
1.7165e-05
1.71654e-05
1.75134e-05
1.75134e-05
2.10229e-05
2.17576e-05
1.7165e-05
1.71657e-05
1.75131e-05
1.75137e-05
1.71662e-05
1.75113e-05
1.75144e-05
2.10495e-05
2.17942e-05
1.71657e-05
1.75128e-05
1.75136e-05
2.17702e-05
2.1992e-05
2.27757e-05
1.76392e-05
1.76395e-05
1.80451e-05
1.80453e-05
2.19854e-05
2.27423e-05
1.76391e-05
1.76398e-05
1.80447e-05
1.80453e-05
1.76408e-05
1.80427e-05
1.80467e-05
2.19676e-05
2.27759e-05
1.76398e-05
1.80442e-05
1.80456e-05
2.27531e-05
2.29606e-05
2.38043e-05
1.81896e-05
1.81901e-05
1.86501e-05
1.86504e-05
2.29839e-05
2.37676e-05
1.81893e-05
1.81901e-05
1.86495e-05
1.86501e-05
1.81918e-05
1.86472e-05
1.86519e-05
2.29581e-05
2.38017e-05
1.81905e-05
1.86489e-05
1.86504e-05
2.38051e-05
2.39925e-05
2.48579e-05
1.8812e-05
1.88129e-05
1.93229e-05
1.93238e-05
2.40208e-05
2.48214e-05
1.88115e-05
1.88125e-05
1.93222e-05
1.93231e-05
1.88144e-05
1.932e-05
1.93253e-05
2.39914e-05
2.48572e-05
1.88129e-05
1.93218e-05
1.93235e-05
2.48638e-05
2.50519e-05
2.59189e-05
1.95011e-05
1.95025e-05
2.00588e-05
2.006e-05
2.5083e-05
2.59214e-05
1.95005e-05
1.95016e-05
2.00578e-05
2.0059e-05
1.9504e-05
2.00557e-05
2.00615e-05
2.50524e-05
2.5889e-05
1.95023e-05
2.00576e-05
2.00597e-05
2.59324e-05
2.61192e-05
2.69978e-05
2.02519e-05
2.02531e-05
2.0852e-05
2.08531e-05
2.6136e-05
2.69941e-05
2.02511e-05
2.02525e-05
2.08508e-05
2.0852e-05
2.02551e-05
2.08485e-05
2.08549e-05
2.61595e-05
2.69526e-05
2.02533e-05
2.08504e-05
2.0853e-05
2.70025e-05
2.72142e-05
2.80295e-05
2.10585e-05
2.106e-05
2.16964e-05
2.16974e-05
2.7213e-05
2.80614e-05
2.10574e-05
2.1059e-05
2.16949e-05
2.16966e-05
2.10617e-05
2.16924e-05
2.1699e-05
2.72362e-05
2.80258e-05
2.106e-05
2.16949e-05
2.16971e-05
2.80554e-05
2.83069e-05
2.91018e-05
2.19148e-05
2.19159e-05
2.25856e-05
2.25863e-05
2.82767e-05
2.91103e-05
2.19136e-05
2.19155e-05
2.25843e-05
2.25857e-05
2.19179e-05
2.25812e-05
2.2588e-05
2.82916e-05
2.90822e-05
2.19159e-05
2.2584e-05
2.25858e-05
2.91116e-05
2.93428e-05
3.01567e-05
2.28139e-05
2.28153e-05
2.35129e-05
2.35139e-05
2.9318e-05
3.01483e-05
2.28129e-05
2.28146e-05
2.35116e-05
2.35128e-05
2.28168e-05
2.35087e-05
2.35153e-05
2.9347e-05
3.0123e-05
2.28146e-05
2.35109e-05
2.35127e-05
3.01549e-05
3.03636e-05
3.11846e-05
2.37502e-05
2.37512e-05
2.44725e-05
2.4473e-05
3.0357e-05
3.11607e-05
2.37489e-05
2.37503e-05
2.44708e-05
2.44722e-05
2.37525e-05
2.4468e-05
2.44746e-05
3.0387e-05
3.11537e-05
2.37499e-05
2.44702e-05
2.44716e-05
3.1184e-05
3.1391e-05
3.22013e-05
2.47168e-05
2.47176e-05
2.5458e-05
2.54581e-05
3.14145e-05
3.21591e-05
2.47152e-05
2.47167e-05
2.54558e-05
2.54575e-05
2.47189e-05
2.54534e-05
2.54597e-05
3.14147e-05
3.2169e-05
2.47159e-05
2.54557e-05
2.54566e-05
3.22014e-05
3.24068e-05
3.31878e-05
2.57077e-05
2.57081e-05
2.64631e-05
2.64624e-05
3.24255e-05
3.31537e-05
2.57056e-05
2.57075e-05
2.64604e-05
2.64624e-05
2.57094e-05
2.6458e-05
2.64643e-05
3.24204e-05
3.31647e-05
2.57063e-05
2.64603e-05
2.64611e-05
3.31557e-05
3.33878e-05
3.4148e-05
2.67168e-05
2.67163e-05
2.74813e-05
2.74801e-05
3.34137e-05
3.41078e-05
2.6714e-05
2.67161e-05
2.74781e-05
2.74801e-05
2.6718e-05
2.74759e-05
2.74825e-05
3.34004e-05
3.41277e-05
2.67148e-05
2.74781e-05
2.74791e-05
3.41551e-05
3.43531e-05
3.50672e-05
2.77376e-05
2.77364e-05
2.85073e-05
2.85057e-05
3.43697e-05
3.50902e-05
2.77344e-05
2.77363e-05
2.85037e-05
2.85055e-05
2.77388e-05
2.85017e-05
2.85088e-05
3.43614e-05
3.50709e-05
2.77354e-05
2.85036e-05
2.85052e-05
3.50939e-05
3.53132e-05
3.5992e-05
2.87647e-05
2.87631e-05
2.9536e-05
2.95335e-05
3.52824e-05
3.60072e-05
2.87612e-05
2.87628e-05
2.95321e-05
2.95333e-05
2.87662e-05
2.95299e-05
2.95375e-05
3.52994e-05
3.60132e-05
2.87628e-05
2.95314e-05
2.9534e-05
3.60217e-05
3.62272e-05
3.6909e-05
2.97931e-05
2.97906e-05
3.05624e-05
3.05594e-05
3.61987e-05
3.69048e-05
2.97894e-05
2.97905e-05
3.05585e-05
3.05598e-05
2.97948e-05
3.05561e-05
3.05644e-05
3.62088e-05
3.69112e-05
2.97912e-05
3.05582e-05
3.05609e-05
3.69062e-05
3.7101e-05
3.77849e-05
3.08185e-05
3.08152e-05
3.15831e-05
3.15791e-05
3.70872e-05
3.77512e-05
3.08148e-05
3.0816e-05
3.15794e-05
3.15804e-05
3.08205e-05
3.15762e-05
3.15851e-05
3.7094e-05
3.7774e-05
3.0817e-05
3.15789e-05
3.15817e-05
3.77722e-05
3.79739e-05
3.86319e-05
3.18368e-05
3.1833e-05
3.25931e-05
3.25891e-05
3.79785e-05
3.86008e-05
3.18334e-05
3.18344e-05
3.25897e-05
3.25907e-05
3.1839e-05
3.25862e-05
3.25955e-05
3.79591e-05
3.8608e-05
3.18356e-05
3.25893e-05
3.25922e-05
3.86159e-05
3.88162e-05
3.94383e-05
3.28437e-05
3.28399e-05
3.35888e-05
3.35852e-05
3.88186e-05
3.94403e-05
3.28406e-05
3.28414e-05
3.35857e-05
3.3587e-05
3.28462e-05
3.35824e-05
3.35915e-05
3.88173e-05
3.94372e-05
3.2843e-05
3.35855e-05
3.35884e-05
3.94413e-05
3.9637e-05
4.02326e-05
3.38352e-05
3.38317e-05
3.45671e-05
3.45639e-05
3.96345e-05
4.02345e-05
3.38324e-05
3.38337e-05
3.45644e-05
3.45657e-05
3.38381e-05
3.45613e-05
3.45701e-05
3.96459e-05
4.02281e-05
3.38351e-05
3.45643e-05
3.45673e-05
4.02402e-05
4.04391e-05
4.10283e-05
3.48088e-05
3.48056e-05
3.55251e-05
3.55224e-05
4.04262e-05
4.1028e-05
3.48064e-05
3.48077e-05
3.55229e-05
3.55245e-05
3.48119e-05
3.55203e-05
3.55286e-05
4.04337e-05
4.10128e-05
3.48093e-05
3.55231e-05
3.55261e-05
4.10179e-05
4.11908e-05
4.17765e-05
3.57613e-05
3.57589e-05
3.64606e-05
3.64589e-05
4.11938e-05
4.17841e-05
3.57594e-05
3.57609e-05
3.64588e-05
3.64608e-05
3.57649e-05
3.64569e-05
3.64647e-05
4.1201e-05
4.17602e-05
3.57625e-05
3.64596e-05
3.64624e-05
4.17644e-05
3.73774e-05
3.73766e-05
3.7377e-05
3.7377e-05
3.73702e-05
3.73777e-05
3.73043e-05
3.73769e-05
3.73702e-05
3.73777e-05
3.73768e-05
3.73048e-05
3.73741e-05
3.72967e-05
3.72964e-05
3.58675e-05
4.07633e-05
3.66071e-05
4.50563e-05
5.51877e-05
6.49822e-05
3.58676e-05
4.07549e-05
3.66072e-05
4.50459e-05
3.58932e-05
3.58933e-05
3.58933e-05
3.44001e-05
3.44001e-05
3.44002e-05
3.44001e-05
3.5271e-05
3.5611e-05
3.58931e-05
3.53767e-05
3.60486e-05
3.41831e-05
3.53821e-05
5.52174e-05
6.51519e-05
3.52715e-05
3.58931e-05
3.56074e-05
3.53767e-05
3.60492e-05
3.53821e-05
3.41796e-05
3.65949e-05
3.66007e-05
3.52786e-05
3.40388e-05
3.404e-05
3.39434e-05
5.12905e-05
3.4673e-05
5.4606e-05
7.66403e-05
8.0934e-05
3.39452e-05
5.12885e-05
3.46726e-05
5.45995e-05
3.39292e-05
3.39292e-05
3.39293e-05
3.25847e-05
3.25847e-05
3.25844e-05
3.25847e-05
3.30447e-05
3.24328e-05
3.39291e-05
3.34068e-05
3.38914e-05
3.15222e-05
3.34674e-05
7.66226e-05
8.0953e-05
3.30396e-05
3.3929e-05
3.24262e-05
3.34066e-05
3.38879e-05
3.34671e-05
3.15228e-05
3.16639e-05
3.16772e-05
3.32598e-05
3.08644e-05
3.08588e-05
3.22312e-05
5.91574e-05
3.29133e-05
6.14565e-05
8.44086e-05
8.50772e-05
3.223e-05
5.91582e-05
3.29112e-05
6.14586e-05
3.21568e-05
3.21565e-05
3.21569e-05
3.09268e-05
3.09265e-05
3.09261e-05
3.09266e-05
3.07757e-05
3.04697e-05
3.21364e-05
3.15496e-05
3.16283e-05
2.98435e-05
3.17086e-05
8.44167e-05
8.50739e-05
3.07735e-05
3.21359e-05
3.04739e-05
3.15494e-05
3.16238e-05
3.17082e-05
2.98483e-05
3.01957e-05
3.01886e-05
3.12658e-05
2.99788e-05
2.99746e-05
3.07383e-05
6.43515e-05
3.13378e-05
6.57473e-05
8.46078e-05
8.39177e-05
3.07367e-05
6.43513e-05
3.13349e-05
6.5747e-05
3.05327e-05
3.05322e-05
3.05328e-05
2.93957e-05
2.93954e-05
2.93949e-05
2.93954e-05
2.8583e-05
2.91081e-05
3.04668e-05
2.97935e-05
2.9402e-05
2.86401e-05
3.00658e-05
8.4589e-05
8.39062e-05
2.85838e-05
3.04666e-05
2.91014e-05
2.97933e-05
2.94017e-05
3.00655e-05
2.8644e-05
2.99404e-05
2.99369e-05
2.93381e-05
3.00415e-05
3.00434e-05
2.95e-05
6.73173e-05
2.99906e-05
6.80451e-05
8.21928e-05
8.12257e-05
2.95065e-05
6.73133e-05
2.99847e-05
6.80425e-05
2.90301e-05
2.90296e-05
2.90301e-05
2.79724e-05
2.79721e-05
2.79718e-05
2.79721e-05
2.65466e-05
2.80951e-05
2.88986e-05
2.81431e-05
2.73057e-05
2.77514e-05
2.85212e-05
8.21841e-05
8.12233e-05
2.65484e-05
2.88986e-05
2.80943e-05
2.81428e-05
2.73071e-05
2.85212e-05
2.77572e-05
3.04761e-05
3.04649e-05
2.75205e-05
3.07939e-05
3.07957e-05
2.8581e-05
6.87354e-05
2.89336e-05
6.90314e-05
7.94191e-05
7.85433e-05
2.8588e-05
6.87335e-05
2.89355e-05
6.90301e-05
2.76316e-05
2.76314e-05
2.76315e-05
2.66446e-05
2.66443e-05
2.66442e-05
2.66442e-05
2.4722e-05
2.73715e-05
2.74233e-05
2.66027e-05
2.54042e-05
2.71653e-05
2.70686e-05
7.94152e-05
7.85436e-05
2.47214e-05
2.74233e-05
2.73731e-05
2.66023e-05
2.54044e-05
2.70685e-05
2.71659e-05
3.16351e-05
3.16336e-05
2.58374e-05
3.21348e-05
3.2135e-05
2.80404e-05
6.92415e-05
2.82207e-05
6.92975e-05
7.69983e-05
7.63013e-05
2.80356e-05
6.92422e-05
2.82311e-05
6.92981e-05
2.63262e-05
2.63262e-05
2.63261e-05
2.54036e-05
2.54034e-05
2.54033e-05
2.54032e-05
2.31427e-05
2.69684e-05
2.60381e-05
2.51733e-05
2.37394e-05
2.68955e-05
2.57057e-05
7.69953e-05
7.63006e-05
2.31398e-05
2.60378e-05
2.69673e-05
2.51728e-05
2.37364e-05
2.57053e-05
2.68926e-05
3.32859e-05
3.32869e-05
2.43055e-05
3.39193e-05
3.39218e-05
2.78994e-05
6.92825e-05
2.791e-05
6.92533e-05
7.50749e-05
7.45436e-05
2.78966e-05
6.92824e-05
2.79088e-05
6.92529e-05
2.5106e-05
2.51059e-05
2.51057e-05
2.42433e-05
2.42431e-05
2.42429e-05
2.42428e-05
2.18271e-05
2.69138e-05
2.47417e-05
2.3854e-05
2.23306e-05
2.69572e-05
2.44314e-05
7.50732e-05
7.45427e-05
2.18251e-05
2.47412e-05
2.69133e-05
2.38536e-05
2.23275e-05
2.44308e-05
2.69625e-05
3.5289e-05
3.52891e-05
2.29268e-05
3.60132e-05
3.60201e-05
2.8148e-05
6.91807e-05
2.80298e-05
6.91458e-05
7.36149e-05
7.3219e-05
2.81428e-05
6.91806e-05
2.80266e-05
6.91458e-05
2.39651e-05
2.39649e-05
2.39648e-05
2.31589e-05
2.31588e-05
2.31586e-05
2.31585e-05
2.07869e-05
2.71903e-05
2.35331e-05
2.26465e-05
2.11876e-05
2.73329e-05
2.32442e-05
7.36133e-05
7.32212e-05
2.07857e-05
2.35325e-05
2.71789e-05
2.2646e-05
2.1186e-05
2.32435e-05
2.73448e-05
3.75329e-05
3.75396e-05
2.17044e-05
3.83156e-05
3.83238e-05
2.88171e-05
6.90974e-05
2.85636e-05
6.90886e-05
7.25347e-05
7.22534e-05
2.88138e-05
6.90979e-05
2.8557e-05
6.90894e-05
2.28993e-05
2.2899e-05
2.28989e-05
2.21469e-05
2.21469e-05
2.21465e-05
2.21465e-05
2.0017e-05
2.77786e-05
2.24086e-05
2.1549e-05
2.03088e-05
2.80209e-05
2.21405e-05
7.25338e-05
7.22529e-05
2.00158e-05
2.24081e-05
2.77675e-05
2.15486e-05
2.03081e-05
2.21399e-05
2.80361e-05
3.99244e-05
3.99292e-05
2.06336e-05
4.07292e-05
4.07327e-05
2.99051e-05
6.90871e-05
2.95064e-05
6.91036e-05
7.17579e-05
7.1562e-05
2.98987e-05
6.90884e-05
2.95006e-05
6.91052e-05
2.19049e-05
2.19045e-05
2.19045e-05
2.12039e-05
2.1204e-05
2.12035e-05
2.12035e-05
1.95102e-05
2.86534e-05
2.13677e-05
2.05592e-05
1.9693e-05
2.8986e-05
2.11206e-05
7.17624e-05
7.15569e-05
1.95106e-05
2.13674e-05
2.86413e-05
2.05587e-05
1.96921e-05
2.11202e-05
2.89919e-05
4.23454e-05
4.23514e-05
1.97066e-05
4.31474e-05
4.31526e-05
3.13873e-05
6.91419e-05
3.08579e-05
6.91784e-05
7.12098e-05
7.10714e-05
3.13841e-05
6.91438e-05
3.08511e-05
6.91806e-05
2.09788e-05
2.09784e-05
2.09783e-05
2.03258e-05
2.03259e-05
2.03255e-05
2.03254e-05
1.92622e-05
2.97772e-05
2.041e-05
1.96737e-05
1.93409e-05
3.01892e-05
2.01832e-05
7.12157e-05
7.1071e-05
1.92626e-05
2.04099e-05
2.97664e-05
1.96733e-05
1.93414e-05
2.0183e-05
3.01881e-05
4.47252e-05
4.47333e-05
1.89158e-05
4.54941e-05
4.54981e-05
3.32481e-05
6.92413e-05
3.25985e-05
6.92872e-05
7.08333e-05
7.07322e-05
3.32449e-05
6.92443e-05
3.25923e-05
6.92902e-05
2.01159e-05
2.01155e-05
2.01154e-05
1.95091e-05
1.95093e-05
1.95089e-05
1.95088e-05
1.9276e-05
3.11188e-05
1.95326e-05
1.8891e-05
1.92518e-05
3.15881e-05
1.93254e-05
7.08337e-05
7.0732e-05
1.92824e-05
1.95325e-05
3.11083e-05
1.88906e-05
1.92517e-05
1.93253e-05
3.16001e-05
4.69831e-05
4.69906e-05
1.82544e-05
4.77003e-05
4.77059e-05
3.54305e-05
6.93562e-05
3.46768e-05
6.94023e-05
7.05645e-05
7.04927e-05
3.54309e-05
6.93602e-05
3.46761e-05
6.94068e-05
1.9315e-05
1.93146e-05
1.93144e-05
1.87541e-05
1.87544e-05
1.87539e-05
1.87538e-05
1.95466e-05
3.26213e-05
1.87323e-05
1.82072e-05
1.94347e-05
3.31385e-05
1.8544e-05
7.05645e-05
7.04925e-05
1.95535e-05
1.87323e-05
3.26122e-05
1.82069e-05
1.94303e-05
1.8544e-05
3.31497e-05
4.90716e-05
4.908e-05
1.77243e-05
4.97237e-05
4.97304e-05
3.78637e-05
6.94677e-05
3.70362e-05
6.95109e-05
7.037e-05
7.0317e-05
3.78641e-05
6.94737e-05
3.70335e-05
6.95169e-05
1.85751e-05
1.85747e-05
1.85745e-05
1.80582e-05
1.80584e-05
1.8058e-05
1.80579e-05
2.00656e-05
3.42441e-05
1.80067e-05
1.76194e-05
1.98747e-05
3.47851e-05
1.78367e-05
7.03697e-05
7.03164e-05
2.00719e-05
1.80067e-05
3.42334e-05
1.76191e-05
1.98688e-05
1.78367e-05
3.47945e-05
5.09608e-05
5.09674e-05
1.73307e-05
5.15407e-05
5.15469e-05
4.04376e-05
6.95702e-05
3.95734e-05
6.96089e-05
7.02204e-05
7.01796e-05
4.045e-05
6.9577e-05
3.95709e-05
6.96155e-05
1.78936e-05
1.78932e-05
1.7893e-05
1.7419e-05
1.74192e-05
1.74188e-05
1.74187e-05
2.08388e-05
3.59274e-05
1.73534e-05
1.71265e-05
2.05605e-05
3.6481e-05
1.72011e-05
7.02193e-05
7.01788e-05
2.08397e-05
1.73533e-05
3.59185e-05
1.71262e-05
2.05565e-05
1.72011e-05
3.64921e-05
5.26352e-05
5.26455e-05
1.70699e-05
5.31455e-05
5.31555e-05
4.3057e-05
6.96626e-05
4.21707e-05
6.96982e-05
7.00964e-05
7.00636e-05
4.30741e-05
6.96699e-05
4.21581e-05
6.97048e-05
1.72682e-05
1.72678e-05
1.72677e-05
1.68343e-05
1.68344e-05
1.68341e-05
1.6834e-05
2.18422e-05
3.76288e-05
1.67715e-05
1.67275e-05
2.14875e-05
3.81752e-05
1.66368e-05
7.00954e-05
7.00632e-05
2.18425e-05
1.67714e-05
3.76274e-05
1.67273e-05
2.14824e-05
1.66367e-05
3.81868e-05
5.41053e-05
5.41166e-05
1.69423e-05
5.45523e-05
5.45613e-05
4.55962e-05
6.97478e-05
4.47221e-05
6.9781e-05
6.99885e-05
6.99601e-05
4.56133e-05
6.97549e-05
4.47135e-05
6.97879e-05
1.66968e-05
1.66964e-05
1.66963e-05
1.63025e-05
1.63026e-05
1.63023e-05
1.63022e-05
2.30611e-05
3.93055e-05
1.62587e-05
1.64218e-05
2.26389e-05
3.98371e-05
1.6141e-05
6.99882e-05
6.99599e-05
2.30656e-05
1.62587e-05
3.92963e-05
1.64215e-05
2.26327e-05
1.61409e-05
3.9846e-05
5.53879e-05
5.53974e-05
1.69463e-05
5.57738e-05
5.57826e-05
4.79581e-05
6.98279e-05
4.71371e-05
6.98592e-05
6.9891e-05
6.98652e-05
4.79742e-05
6.98349e-05
4.71331e-05
6.98661e-05
1.6178e-05
1.61777e-05
1.61776e-05
1.58217e-05
1.58218e-05
1.58215e-05
1.58215e-05
2.44594e-05
4.09222e-05
1.58138e-05
1.62094e-05
2.3983e-05
4.14319e-05
1.57129e-05
6.98906e-05
6.98649e-05
2.44659e-05
1.58137e-05
4.09146e-05
1.62091e-05
2.39807e-05
1.57128e-05
4.1437e-05
5.65005e-05
5.65109e-05
1.70741e-05
5.6836e-05
5.68466e-05
5.00809e-05
6.99036e-05
4.93396e-05
6.99329e-05
6.98004e-05
6.97766e-05
5.00949e-05
6.99079e-05
4.93375e-05
6.99413e-05
1.57095e-05
1.57092e-05
1.57092e-05
1.539e-05
1.53901e-05
1.53898e-05
1.53898e-05
2.60069e-05
4.24513e-05
1.54362e-05
1.60902e-05
2.54864e-05
4.29333e-05
1.53521e-05
6.98002e-05
6.97764e-05
2.60085e-05
1.54361e-05
4.24458e-05
1.609e-05
2.54842e-05
1.5352e-05
4.29393e-05
5.74685e-05
5.74795e-05
1.73338e-05
5.776e-05
5.77721e-05
5.19321e-05
6.99716e-05
5.12839e-05
7.00034e-05
6.97157e-05
6.96935e-05
5.19436e-05
6.99786e-05
5.12817e-05
7.001e-05
1.52897e-05
1.52894e-05
1.52895e-05
1.50062e-05
1.50063e-05
1.5006e-05
1.50061e-05
2.76523e-05
4.38835e-05
1.51258e-05
1.6066e-05
2.71036e-05
4.43259e-05
1.50583e-05
6.97155e-05
6.96936e-05
2.76543e-05
1.51258e-05
4.3881e-05
1.60661e-05
2.71056e-05
1.50582e-05
4.43361e-05
5.83124e-05
5.83248e-05
1.7724e-05
5.8569e-05
5.8581e-05
5.35101e-05
7.00375e-05
5.29553e-05
7.00662e-05
6.96367e-05
6.96167e-05
5.35191e-05
7.0044e-05
5.29537e-05
7.00726e-05
1.49178e-05
1.49176e-05
1.49177e-05
1.46696e-05
1.46696e-05
1.46694e-05
1.46694e-05
2.93511e-05
4.52079e-05
1.48827e-05
1.61298e-05
2.87905e-05
4.56184e-05
1.48318e-05
6.96365e-05
6.96165e-05
2.93536e-05
1.48827e-05
4.52059e-05
1.61301e-05
2.87862e-05
1.48317e-05
4.56257e-05
5.90542e-05
5.90669e-05
1.82387e-05
5.92811e-05
5.92928e-05
5.48338e-05
7.00963e-05
5.43648e-05
7.01221e-05
6.95638e-05
6.95456e-05
5.48417e-05
7.01027e-05
5.4364e-05
7.01285e-05
1.45928e-05
1.45926e-05
1.45927e-05
1.43794e-05
1.43793e-05
1.43793e-05
1.43793e-05
3.10517e-05
4.6429e-05
1.47073e-05
1.62856e-05
3.04906e-05
4.68051e-05
1.46733e-05
6.95633e-05
6.95451e-05
3.10514e-05
1.47073e-05
4.64267e-05
1.6286e-05
3.04945e-05
1.46732e-05
4.68099e-05
5.97092e-05
5.97213e-05
1.88638e-05
5.99097e-05
5.99209e-05
5.59349e-05
7.01482e-05
5.55408e-05
7.01712e-05
6.94965e-05
6.94801e-05
5.59436e-05
7.01546e-05
5.55411e-05
7.01776e-05
1.4314e-05
1.43139e-05
1.4314e-05
1.41351e-05
1.41351e-05
1.41351e-05
1.41351e-05
3.27217e-05
4.75429e-05
1.46006e-05
1.65299e-05
3.218e-05
4.78941e-05
1.45835e-05
6.94958e-05
6.94795e-05
3.27231e-05
1.46006e-05
4.75482e-05
1.65307e-05
3.21797e-05
1.45836e-05
4.78939e-05
6.02925e-05
6.0304e-05
1.95934e-05
6.04721e-05
6.04833e-05
5.68523e-05
7.01941e-05
5.6519e-05
7.02127e-05
6.9435e-05
6.94205e-05
5.68614e-05
7.02e-05
5.65204e-05
7.02201e-05
1.40811e-05
1.40811e-05
1.40812e-05
1.39364e-05
1.39363e-05
1.39364e-05
1.39365e-05
3.43312e-05
4.85655e-05
1.45631e-05
1.68607e-05
3.38121e-05
4.88863e-05
1.45648e-05
6.94342e-05
6.942e-05
3.43342e-05
1.45633e-05
4.85688e-05
1.68616e-05
3.38135e-05
1.4565e-05
4.88839e-05
6.08149e-05
6.08249e-05
2.043e-05
6.0975e-05
6.09864e-05
5.76224e-05
7.02341e-05
5.73365e-05
7.02489e-05
6.93794e-05
6.9367e-05
5.76306e-05
7.02404e-05
5.73386e-05
7.02555e-05
1.38935e-05
1.38937e-05
1.38938e-05
1.37828e-05
1.37827e-05
1.37829e-05
1.3783e-05
3.58572e-05
4.95007e-05
1.45937e-05
1.72744e-05
3.53665e-05
4.97936e-05
1.46122e-05
6.93785e-05
6.93662e-05
3.58588e-05
1.4594e-05
4.95042e-05
1.72757e-05
3.5368e-05
1.46127e-05
4.97944e-05
6.12837e-05
6.12945e-05
2.12986e-05
6.14293e-05
6.14397e-05
5.82767e-05
7.02683e-05
5.80274e-05
7.02814e-05
6.93295e-05
6.93189e-05
5.8284e-05
7.02746e-05
5.80299e-05
7.02884e-05
1.37511e-05
1.37514e-05
1.37516e-05
1.36743e-05
1.36741e-05
1.36744e-05
1.36747e-05
3.72859e-05
5.03567e-05
1.46936e-05
1.77676e-05
3.68275e-05
5.06278e-05
1.47292e-05
6.93281e-05
6.93178e-05
3.72881e-05
1.46941e-05
5.03623e-05
1.77691e-05
3.68297e-05
1.473e-05
5.06273e-05
6.17078e-05
6.17185e-05
2.22525e-05
6.18395e-05
6.18508e-05
5.88408e-05
7.02989e-05
5.86203e-05
7.03109e-05
6.92849e-05
6.92761e-05
5.88467e-05
7.03053e-05
5.86235e-05
7.03179e-05
1.36538e-05
1.36541e-05
1.36545e-05
1.36108e-05
1.36106e-05
1.36109e-05
1.36113e-05
3.8616e-05
5.11447e-05
1.48616e-05
1.83361e-05
3.81869e-05
5.1392e-05
1.49141e-05
6.92831e-05
6.92747e-05
3.8617e-05
1.48623e-05
5.11474e-05
1.83377e-05
3.81906e-05
1.49151e-05
5.13959e-05
6.20949e-05
6.21055e-05
2.328e-05
6.22157e-05
6.22266e-05
5.93344e-05
7.03274e-05
5.91378e-05
7.03391e-05
6.92456e-05
6.92389e-05
5.93386e-05
7.03341e-05
5.91417e-05
7.03461e-05
1.36014e-05
1.36018e-05
1.36023e-05
1.35929e-05
1.35927e-05
1.3593e-05
1.35936e-05
3.9846e-05
5.18703e-05
1.50972e-05
1.89754e-05