/*--------------------------------*- C++ -*----------------------------------*\
| =========                 |                                                 |
| \\      /  F ield         | OpenFOAM: The Open Source CFD Toolbox           |
|  \\    /   O peration     | Version:  v2012                                 |
|   \\  /    A nd           | Website:  www.openfoam.com                      |
|    \\/     M anipulation  |                                                 |
\*---------------------------------------------------------------------------*/
FoamFile
{
    version     2.0;
    format      ascii;
    class       volScalarField;
    location    "350";
    object      p;
}
// * * * * * * * * * * * * * * * * * * * * * * * * * * * * * * * * * * * * * //

dimensions      [0 2 -2 0 0 0 0];


internalField   nonuniform List<scalar> 
171728
(
0.00167167
0.00167159
0.00167316
0.00167159
0.00167159
0.00167159
0.00167316
0.0016736
0.0016736
0.00167361
0.00167167
0.00167361
0.00167357
0.00167361
0.0016736
0.00167361
0.00167361
0.00167357
0.00167357
0.00167163
0.00167355
0.0016736
0.00167361
0.00167163
0.00167357
0.00167355
0.00167361
0.00167361
0.00167361
0.0016736
0.00166925
0.00167361
0.00167361
0.00166924
0.00166925
0.00167361
0.00166924
0.00167361
0.00166924
0.00166927
0.0016736
0.00167361
0.00166926
0.00166924
0.00167361
0.00166924
0.00166924
0.00166924
0.00166929
0.00167357
0.00166925
0.0016736
0.00166925
0.00166934
0.00167359
0.00166929
0.00167357
0.00166925
0.0016736
0.00166925
0.00166934
0.00167359
0.00166924
0.00167362
0.00167362
0.00166924
0.00166924
0.00167362
0.00166924
0.00166925
0.00167361
0.00166924
0.00167361
0.00166924
0.00166927
0.00167361
0.0016736
0.00166924
0.00166926
0.00167361
0.00166929
0.00167357
0.00166925
0.0016736
0.00166925
0.00166934
0.00167359
0.00166929
0.00167357
0.00166925
0.0016736
0.00166934
0.00166925
0.00167359
0.00166924
0.00167362
0.00167362
0.00166924
0.00166924
0.00167362
0.00166924
0.00166925
0.00167168
0.00166944
0.00167337
0.00167337
0.00166994
0.00166963
0.00166963
0.0016735
0.00166944
0.00167337
0.00167337
0.00166994
0.00166963
0.00166963
0.0016735
0.00167168
0.00166962
0.00167343
0.00166932
0.00167355
0.00166948
0.00166937
0.00167338
0.00166962
0.00167343
0.00166932
0.00167355
0.00166937
0.00166948
0.00167338
0.00166962
0.00167343
0.00166932
0.00167355
0.00166937
0.00166948
0.00167338
0.00166965
0.00166941
0.00167354
0.00167336
0.00166939
0.00166966
0.00167334
0.00166962
0.00167343
0.00166932
0.00167355
0.00166937
0.00166948
0.00167338
0.00166965
0.00166941
0.00167336
0.00167354
0.00166966
0.00166939
0.00167334
0.00359175
0.00359157
0.00359158
0.00359437
0.00353821
0.00353835
0.00353835
0.00354055
0.00348693
0.00348697
0.00348697
0.00348928
0.00343503
0.003435
0.00343499
0.00343727
0.00338396
0.00338391
0.00338391
0.00338614
0.00333425
0.00333421
0.00333421
0.0033364
0.00328598
0.00328594
0.00328594
0.0032881
0.00323899
0.00323897
0.00323897
0.0032411
0.0031931
0.00319309
0.00319309
0.00319518
0.0031481
0.0031481
0.0031481
0.00315017
0.00310382
0.00310383
0.00310383
0.00310588
0.00306014
0.00306016
0.00306016
0.00306217
0.00301698
0.00301699
0.00301699
0.00301898
0.00297428
0.00297429
0.00297429
0.00297626
0.002932
0.00293201
0.00293201
0.00293398
0.00289014
0.00289014
0.00289014
0.00289209
0.00284865
0.00284865
0.00284865
0.00285058
0.00280751
0.00280752
0.00280752
0.00280944
0.00276671
0.00276672
0.00276672
0.00276862
0.00272622
0.00272623
0.00272623
0.00272812
0.00268602
0.00268602
0.00268602
0.0026879
0.00264608
0.00264609
0.00264609
0.00264795
0.0026064
0.0026064
0.0026064
0.00260825
0.00256695
0.00256695
0.00256695
0.00256879
0.00252773
0.00252773
0.00252773
0.00252956
0.00248873
0.00248872
0.00248872
0.00249053
0.00244992
0.00244991
0.00244991
0.00245172
0.00241132
0.00241131
0.00241131
0.0024131
0.00237291
0.0023729
0.0023729
0.00237467
0.00233469
0.00233467
0.00233467
0.00233642
0.00229664
0.00229662
0.00229662
0.00229836
0.00225877
0.00225875
0.00225875
0.00226047
0.00222107
0.00222104
0.00222104
0.00222274
0.00218352
0.0021835
0.0021835
0.00218518
0.00214614
0.00214611
0.00214611
0.00214778
0.0021089
0.00210887
0.00210887
0.00211053
0.00207181
0.00207177
0.00207177
0.00207342
0.00203485
0.00203481
0.00203481
0.00203645
0.00199803
0.00199799
0.00199799
0.00199962
0.00196134
0.00196129
0.00196129
0.00196291
0.00192477
0.00192472
0.00192472
0.00192633
0.00188831
0.00188826
0.00188826
0.00188986
0.00185196
0.0018519
0.0018519
0.0018535
0.00181572
0.00181566
0.00181566
0.00181725
0.00177958
0.00177951
0.00177951
0.00178109
0.00174352
0.00174345
0.00174345
0.00174503
0.00170755
0.00170748
0.00170748
0.00170905
0.00360514
0.00360534
0.00360534
0.00360515
0.00360533
0.00360533
0.00360607
0.00360607
0.00360607
0.00360607
0.00360534
0.00360534
0.00360514
0.00360534
0.00360534
0.00360514
0.00359437
0.00354822
0.00359157
0.00359157
0.00355072
0.00355073
0.00359437
0.00354822
0.00359157
0.00359157
0.00355072
0.00355072
0.00359157
0.00355072
0.00355072
0.00359437
0.00354823
0.00359158
0.00355072
0.00355073
0.00354823
0.00354055
0.0034973
0.00353835
0.00353835
0.00349997
0.00349997
0.00354055
0.00349731
0.00353835
0.00353835
0.00349997
0.00349997
0.00353835
0.00349997
0.00349997
0.00354055
0.0034973
0.00353835
0.00349997
0.00349997
0.00349731
0.00348927
0.00344526
0.00348697
0.00348697
0.00344794
0.00344794
0.00348927
0.00344526
0.00348697
0.00348697
0.00344794
0.00344794
0.00348697
0.00344794
0.00344794
0.00348927
0.00344526
0.00348697
0.00344794
0.00344794
0.00344527
0.00343727
0.00339394
0.003435
0.003435
0.00339656
0.00339656
0.00343727
0.00339394
0.003435
0.003435
0.00339656
0.00339656
0.003435
0.00339656
0.00339656
0.00343727
0.00339394
0.003435
0.00339656
0.00339656
0.00339394
0.00338614
0.00334398
0.00338391
0.00338391
0.00334649
0.00334649
0.00338614
0.00334398
0.00338391
0.00338391
0.00334649
0.00334649
0.00338391
0.00334649
0.00334649
0.00338614
0.00334398
0.00338391
0.00334649
0.00334649
0.00334398
0.0033364
0.00329547
0.00333421
0.00333421
0.00329788
0.00329788
0.0033364
0.00329547
0.00333421
0.00333421
0.00329788
0.00329788
0.00333421
0.00329788
0.00329788
0.0033364
0.00329547
0.00333421
0.00329788
0.00329788
0.00329547
0.0032881
0.00324828
0.00328594
0.00328594
0.0032506
0.00325061
0.0032881
0.00324828
0.00328594
0.00328594
0.0032506
0.0032506
0.00328594
0.00325061
0.00325061
0.0032881
0.00324828
0.00328594
0.0032506
0.00325061
0.00324828
0.0032411
0.00320221
0.00323897
0.00323897
0.00320447
0.00320447
0.0032411
0.00320221
0.00323897
0.00323897
0.00320447
0.00320447
0.00323897
0.00320447
0.00320447
0.0032411
0.00320221
0.00323897
0.00320447
0.00320447
0.00320221
0.00319519
0.00315708
0.00319309
0.00319309
0.00315928
0.00315927
0.00319519
0.00315708
0.00319309
0.00319309
0.00315928
0.00315927
0.00319309
0.00315928
0.00315928
0.00319519
0.00315708
0.00319309
0.00315928
0.00315928
0.00315708
0.00315017
0.00311269
0.0031481
0.0031481
0.00311484
0.00311484
0.00315017
0.00311269
0.0031481
0.0031481
0.00311484
0.00311484
0.0031481
0.00311484
0.00311484
0.00315017
0.00311269
0.0031481
0.00311484
0.00311484
0.00311269
0.00310588
0.00306891
0.00310383
0.00310383
0.00307102
0.00307102
0.00310588
0.0030689
0.00310383
0.00310383
0.00307102
0.00307102
0.00310383
0.00307102
0.00307102
0.00310588
0.0030689
0.00310383
0.00307102
0.00307102
0.0030689
0.00306218
0.00302564
0.00306015
0.00306015
0.00302773
0.00302773
0.00306217
0.00302563
0.00306016
0.00306015
0.00302774
0.00302773
0.00306015
0.00302774
0.00302773
0.00306218
0.00302564
0.00306016
0.00302774
0.00302774
0.00302563
0.00301898
0.00298285
0.00301699
0.00301699
0.00298492
0.00298492
0.00301898
0.00298285
0.00301699
0.00301699
0.00298492
0.00298492
0.00301699
0.00298492
0.00298492
0.00301899
0.00298285
0.00301699
0.00298492
0.00298492
0.00298285
0.00297626
0.00294052
0.00297428
0.00297428
0.00294254
0.00294254
0.00297626
0.00294052
0.00297429
0.00297428
0.00294254
0.00294254
0.00297429
0.00294254
0.00294254
0.00297626
0.00294051
0.00297429
0.00294254
0.00294254
0.00294051
0.00293398
0.00289859
0.00293201
0.00293201
0.00290057
0.00290057
0.00293398
0.00289859
0.00293201
0.00293201
0.00290057
0.00290057
0.00293201
0.00290057
0.00290057
0.00293397
0.00289859
0.00293201
0.00290057
0.00290057
0.00289859
0.00289209
0.00285704
0.00289014
0.00289014
0.00285899
0.00285899
0.00289209
0.00285704
0.00289014
0.00289014
0.00285899
0.00285899
0.00289014
0.00285899
0.00285899
0.00289209
0.00285704
0.00289014
0.00285899
0.00285899
0.00285704
0.00285058
0.00281586
0.00284865
0.00284865
0.00281777
0.00281777
0.00285058
0.00281585
0.00284865
0.00284865
0.00281777
0.00281777
0.00284865
0.00281777
0.00281777
0.00285058
0.00281585
0.00284865
0.00281777
0.00281777
0.00281585
0.00280944
0.00277501
0.00280752
0.00280752
0.00277689
0.00277689
0.00280944
0.002775
0.00280752
0.00280752
0.00277689
0.00277689
0.00280752
0.00277689
0.00277689
0.00280944
0.002775
0.00280752
0.00277689
0.00277689
0.002775
0.00276862
0.00273447
0.00276672
0.00276672
0.00273632
0.00273632
0.00276862
0.00273447
0.00276672
0.00276672
0.00273632
0.00273632
0.00276672
0.00273632
0.00273632
0.00276862
0.00273447
0.00276672
0.00273632
0.00273632
0.00273447
0.00272812
0.00269422
0.00272623
0.00272623
0.00269605
0.00269605
0.00272812
0.00269422
0.00272623
0.00272623
0.00269605
0.00269605
0.00272623
0.00269605
0.00269605
0.00272812
0.00269422
0.00272623
0.00269605
0.00269605
0.00269422
0.0026879
0.00265424
0.00268602
0.00268602
0.00265605
0.00265605
0.0026879
0.00265424
0.00268602
0.00268602
0.00265605
0.00265605
0.00268602
0.00265605
0.00265605
0.0026879
0.00265424
0.00268602
0.00265605
0.00265605
0.00265424
0.00264795
0.00261452
0.00264609
0.00264609
0.0026163
0.0026163
0.00264795
0.00261452
0.00264609
0.00264609
0.0026163
0.0026163
0.00264609
0.0026163
0.0026163
0.00264795
0.00261452
0.00264609
0.0026163
0.0026163
0.00261452
0.00260825
0.00257503
0.0026064
0.0026064
0.00257679
0.00257679
0.00260825
0.00257503
0.0026064
0.0026064
0.00257679
0.00257679
0.0026064
0.00257679
0.00257679
0.00260826
0.00257503
0.0026064
0.00257679
0.00257679
0.00257503
0.00256879
0.00253577
0.00256695
0.00256695
0.00253751
0.00253751
0.00256879
0.00253577
0.00256695
0.00256695
0.00253751
0.00253751
0.00256695
0.00253751
0.00253751
0.00256879
0.00253577
0.00256695
0.00253751
0.00253751
0.00253577
0.00252956
0.00249672
0.00252773
0.00252773
0.00249845
0.00249845
0.00252956
0.00249672
0.00252773
0.00252773
0.00249845
0.00249845
0.00252773
0.00249845
0.00249845
0.00252956
0.00249672
0.00252773
0.00249845
0.00249845
0.00249672
0.00249053
0.00245788
0.00248872
0.00248872
0.0024596
0.0024596
0.00249053
0.00245788
0.00248872
0.00248872
0.0024596
0.0024596
0.00248872
0.0024596
0.0024596
0.00249053
0.00245788
0.00248872
0.00245959
0.0024596
0.00245788
0.00245172
0.00241923
0.00244991
0.00244991
0.00242094
0.00242094
0.00245172
0.00241923
0.00244991
0.00244991
0.00242094
0.00242094
0.00244991
0.00242094
0.00242094
0.00245172
0.00241923
0.00244991
0.00242094
0.00242094
0.00241923
0.00241309
0.00238078
0.00241131
0.00241131
0.00238248
0.00238248
0.00241309
0.00238078
0.00241131
0.00241131
0.00238248
0.00238248
0.00241131
0.00238248
0.00238248
0.0024131
0.00238078
0.00241131
0.00238248
0.00238248
0.00238078
0.00237467
0.00234251
0.0023729
0.0023729
0.00234421
0.00234421
0.00237467
0.00234251
0.0023729
0.0023729
0.00234421
0.00234421
0.0023729
0.00234421
0.00234421
0.00237467
0.00234251
0.0023729
0.00234421
0.00234421
0.00234251
0.00233642
0.00230442
0.00233467
0.00233467
0.00230612
0.00230612
0.00233642
0.00230442
0.00233467
0.00233467
0.00230612
0.00230612
0.00233467
0.00230612
0.00230612
0.00233642
0.00230442
0.00233467
0.00230612
0.00230612
0.00230442
0.00229836
0.00226651
0.00229662
0.00229662
0.0022682
0.0022682
0.00229836
0.00226651
0.00229662
0.00229662
0.0022682
0.0022682
0.00229662
0.0022682
0.0022682
0.00229836
0.00226651
0.00229662
0.0022682
0.0022682
0.00226651
0.00226047
0.00222876
0.00225875
0.00225875
0.00223045
0.00223045
0.00226047
0.00222876
0.00225875
0.00225875
0.00223045
0.00223045
0.00225875
0.00223045
0.00223045
0.00226047
0.00222876
0.00225875
0.00223045
0.00223045
0.00222876
0.00222274
0.00219118
0.00222104
0.00222104
0.00219287
0.00219287
0.00222274
0.00219118
0.00222104
0.00222104
0.00219287
0.00219287
0.00222104
0.00219287
0.00219287
0.00222274
0.00219118
0.00222104
0.00219287
0.00219287
0.00219118
0.00218518
0.00215375
0.00218349
0.0021835
0.00215544
0.00215544
0.00218518
0.00215375
0.00218349
0.0021835
0.00215544
0.00215544
0.0021835
0.00215544
0.00215544
0.00218518
0.00215375
0.00218349
0.00215544
0.00215544
0.00215375
0.00214778
0.00211648
0.00214611
0.00214611
0.00211816
0.00211816
0.00214778
0.00211648
0.00214611
0.00214611
0.00211816
0.00211816
0.00214611
0.00211816
0.00211816
0.00214778
0.00211648
0.00214611
0.00211816
0.00211816
0.00211648
0.00211052
0.00207935
0.00210887
0.00210887
0.00208103
0.00208103
0.00211052
0.00207935
0.00210887
0.00210887
0.00208103
0.00208103
0.00210887
0.00208103
0.00208103
0.00211052
0.00207935
0.00210887
0.00208103
0.00208103
0.00207935
0.00207342
0.00204236
0.00207177
0.00207177
0.00204404
0.00204404
0.00207342
0.00204236
0.00207177
0.00207177
0.00204404
0.00204404
0.00207177
0.00204404
0.00204404
0.00207342
0.00204236
0.00207177
0.00204404
0.00204404
0.00204236
0.00203645
0.00200551
0.00203481
0.00203481
0.00200718
0.00200718
0.00203645
0.00200551
0.00203481
0.00203481
0.00200718
0.00200718
0.00203481
0.00200718
0.00200718
0.00203645
0.0020055
0.00203481
0.00200718
0.00200718
0.0020055
0.00199962
0.00196878
0.00199799
0.00199799
0.00197046
0.00197046
0.00199961
0.00196878
0.00199799
0.00199799
0.00197046
0.00197046
0.00199799
0.00197046
0.00197046
0.00199962
0.00196878
0.00199799
0.00197046
0.00197046
0.00196878
0.00196291
0.00193218
0.00196129
0.00196129
0.00193385
0.00193385
0.00196291
0.00193218
0.00196129
0.00196129
0.00193385
0.00193385
0.00196129
0.00193385
0.00193385
0.00196291
0.00193218
0.00196129
0.00193385
0.00193385
0.00193218
0.00192633
0.00189569
0.00192472
0.00192472
0.00189736
0.00189736
0.00192633
0.00189569
0.00192472
0.00192472
0.00189736
0.00189736
0.00192472
0.00189736
0.00189736
0.00192633
0.00189569
0.00192472
0.00189736
0.00189736
0.00189569
0.00188986
0.00185932
0.00188826
0.00188826
0.00186098
0.00186098
0.00188986
0.00185932
0.00188826
0.00188826
0.00186098
0.00186098
0.00188826
0.00186098
0.00186098
0.00188986
0.00185932
0.00188826
0.00186098
0.00186098
0.00185932
0.0018535
0.00182305
0.0018519
0.0018519
0.00182471
0.00182471
0.0018535
0.00182305
0.0018519
0.0018519
0.00182471
0.00182471
0.0018519
0.00182471
0.00182471
0.0018535
0.00182305
0.0018519
0.00182471
0.00182471
0.00182305
0.00181725
0.00178688
0.00181566
0.00181566
0.00178853
0.00178853
0.00181724
0.00178688
0.00181566
0.00181566
0.00178853
0.00178853
0.00181566
0.00178853
0.00178853
0.00181724
0.00178688
0.00181566
0.00178854
0.00178853
0.00178688
0.00178109
0.0017508
0.00177951
0.00177951
0.00175245
0.00175245
0.00178109
0.0017508
0.00177951
0.00177951
0.00175245
0.00175245
0.00177951
0.00175245
0.00175245
0.00178109
0.0017508
0.00177951
0.00175245
0.00175245
0.0017508
0.00174503
0.00171481
0.00174345
0.00174345
0.00171646
0.00171646
0.00174503
0.00171481
0.00174345
0.00174345
0.00171646
0.00171646
0.00174345
0.00171646
0.00171646
0.00174503
0.00171481
0.00174345
0.00171646
0.00171646
0.00171481
0.00170905
0.0016789
0.00170748
0.00170748
0.00168055
0.00168055
0.00170905
0.0016789
0.00170748
0.00170748
0.00168055
0.00168055
0.00170748
0.00168055
0.00168055
0.00170905
0.0016789
0.00170748
0.00168055
0.00168055
0.0016789
0.00361428
0.00362424
0.00361886
0.00361886
0.00364135
0.00362824
0.00365672
0.00362216
0.00364132
0.00362825
0.00362215
0.00365672
0.00363272
0.00366075
0.00366072
0.00357324
0.00357335
0.00359164
0.00357154
0.00355129
0.00357055
0.00357324
0.0035733
0.00359161
0.00357154
0.00359176
0.00359176
0.00359176
0.0035506
0.0035506
0.0035506
0.0035506
0.00357191
0.00358873
0.00359183
0.00357607
0.00359398
0.00357286
0.00357671
0.00355131
0.00357061
0.00357192
0.00359184
0.00358875
0.00357608
0.00359398
0.00357672
0.00357287
0.00358533
0.00358521
0.00357293
0.00357321
0.00357326
0.00352358
0.00354144
0.00354245
0.00352267
0.0035408
0.00352221
0.00352357
0.00354142
0.00354245
0.00352267
0.00353821
0.00353821
0.00353821
0.00349991
0.00349991
0.00349991
0.00349991
0.00352267
0.00354193
0.00353829
0.00352573
0.00354122
0.00352314
0.00352567
0.00354081
0.00352219
0.00352267
0.00353829
0.00354192
0.00352573
0.00354122
0.00352567
0.00352314
0.0035422
0.00354219
0.0035231
0.00352327
0.00352327
0.0034713
0.0034899
0.00349074
0.00347053
0.0034896
0.00347029
0.0034713
0.0034899
0.00349074
0.00347053
0.00348693
0.00348693
0.00348693
0.00344797
0.00344797
0.00344797
0.00344797
0.00347079
0.00349028
0.00348694
0.00347395
0.00348998
0.00347096
0.00347393
0.00348961
0.00347029
0.00347079
0.00348694
0.00349028
0.00347395
0.00348998
0.00347393
0.00347096
0.00349035
0.00349035
0.00347127
0.0034709
0.0034709
0.0034192
0.00343769
0.00343837
0.00341859
0.00343752
0.00341843
0.0034192
0.00343769
0.00343837
0.00341859
0.00343503
0.00343503
0.00343503
0.00339661
0.00339661
0.00339661
0.00339661
0.00341892
0.003438
0.003435
0.00342211
0.00343789
0.00341896
0.00342212
0.00343752
0.00341843
0.00341892
0.003435
0.00343799
0.00342211
0.00343789
0.00342212
0.00341896
0.00343799
0.00343799
0.00341946
0.00341885
0.00341885
0.00336833
0.00338646
0.00338697
0.00336789
0.00338635
0.00336775
0.00336833
0.00338646
0.00338697
0.00336789
0.00338396
0.00338396
0.00338396
0.00334654
0.00334654
0.00334654
0.00334654
0.00336821
0.0033867
0.00338391
0.00337134
0.00338667
0.00336821
0.00337135
0.00338635
0.00336776
0.00336821
0.00338391
0.0033867
0.00337134
0.00338667
0.00337135
0.00336821
0.00338669
0.00338669
0.00336878
0.00336809
0.00336809
0.00331898
0.00333669
0.00333704
0.00331867
0.00333661
0.00331855
0.00331898
0.00333669
0.00333704
0.00331867
0.00333425
0.00333425
0.00333425
0.00329792
0.00329792
0.00329792
0.00329792
0.00331897
0.00333687
0.00333421
0.00332201
0.00333686
0.00331896
0.00332201
0.00333659
0.00331856
0.00331897
0.00333421
0.00333687
0.00332201
0.00333686
0.00332201
0.00331896
0.00333688
0.00333688
0.00331955
0.00331885
0.00331885
0.00327109
0.00328838
0.00328862
0.00327087
0.00328829
0.00327076
0.00327109
0.00328838
0.00328862
0.00327087
0.00328598
0.00328597
0.00328598
0.00325063
0.00325063
0.00325063
0.00325063
0.00327114
0.00328852
0.00328593
0.00327409
0.00328851
0.00327114
0.00327408
0.00328829
0.00327076
0.00327114
0.00328593
0.00328852
0.00327409
0.00328851
0.00327408
0.00327114
0.00328855
0.00328854
0.00327172
0.00327103
0.00327103
0.00322446
0.00324137
0.00324154
0.0032243
0.00324129
0.00322419
0.00322446
0.00324137
0.00324154
0.0032243
0.00323899
0.00323899
0.00323899
0.00320448
0.00320448
0.00320448
0.00320448
0.00322456
0.00324148
0.00323896
0.00322741
0.00324147
0.00322455
0.00322739
0.00324129
0.00322419
0.00322456
0.00323896
0.00324148
0.00322741
0.00324147
0.00322739
0.00322455
0.00324152
0.00324152
0.00322512
0.00322444
0.00322444
0.00317888
0.00319546
0.00319559
0.00317874
0.00319539
0.00317864
0.00317888
0.00319546
0.00319559
0.00317874
0.0031931
0.0031931
0.0031931
0.00315928
0.00315928
0.00315928
0.00315928
0.00317901
0.00319555
0.00319307
0.00318177
0.00319554
0.003179
0.00318175
0.00319539
0.00317864
0.00317901
0.00319307
0.00319555
0.00318177
0.00319554
0.00318175
0.003179
0.00319559
0.0031956
0.00317954
0.00317888
0.00317888
0.00313413
0.00315045
0.00315056
0.00313402
0.00315038
0.00313392
0.00313413
0.00315045
0.00315056
0.00313402
0.0031481
0.0031481
0.0031481
0.00311483
0.00311483
0.00311483
0.00311483
0.00313428
0.00315053
0.00314808
0.00313697
0.00315052
0.00313427
0.00313695
0.00315038
0.00313392
0.00313428
0.00314808
0.00315053
0.00313697
0.00315052
0.00313695
0.00313427
0.00315057
0.00315057
0.0031348
0.00313414
0.00313414
0.00309007
0.00310615
0.00310625
0.00308995
0.00310608
0.00308986
0.00309007
0.00310615
0.00310625
0.00308995
0.00310382
0.00310382
0.00310382
0.00307101
0.00307101
0.00307101
0.00307101
0.00309024
0.00310622
0.00310381
0.00309286
0.00310622
0.00309021
0.00309284
0.00310608
0.00308986
0.00309024
0.00310381
0.00310622
0.00309286
0.00310622
0.00309284
0.00309021
0.00310626
0.00310626
0.00309072
0.00309007
0.00309007
0.00304657
0.00306245
0.00306255
0.00304645
0.00306239
0.00304637
0.00304657
0.00306245
0.00306255
0.00304645
0.00306014
0.00306014
0.00306014
0.00302772
0.00302772
0.00302772
0.00302772
0.00304676
0.00306251
0.00306013
0.00304932
0.00306253
0.00304671
0.0030493
0.00306239
0.00304636
0.00304676
0.00306013
0.00306251
0.00304932
0.00306253
0.0030493
0.00304671
0.00306255
0.00306255
0.00304721
0.00304655
0.00304655
0.00300356
0.00301926
0.00301936
0.00300344
0.00301921
0.00300336
0.00300356
0.00301926
0.00301936
0.00300344
0.00301698
0.00301698
0.00301698
0.00298491
0.00298491
0.00298491
0.00298491
0.00300377
0.00301932
0.00301697
0.00300627
0.00301935
0.00300369
0.00300626
0.00301921
0.00300336
0.00300377
0.00301697
0.00301932
0.00300627
0.00301934
0.00300626
0.00300369
0.00301935
0.00301935
0.00300418
0.00300353
0.00300353
0.002961
0.00297654
0.00297664
0.00296087
0.00297649
0.0029608
0.002961
0.00297654
0.00297664
0.00296087
0.00297427
0.00297428
0.00297427
0.00294253
0.00294253
0.00294253
0.00294253
0.00296123
0.00297659
0.00297427
0.00296368
0.00297663
0.00296113
0.00296367
0.00297649
0.0029608
0.00296123
0.00297427
0.00297659
0.00296368
0.00297663
0.00296367
0.00296113
0.00297662
0.00297662
0.00296163
0.00296096
0.00296096
0.00291886
0.00293425
0.00293435
0.00291873
0.0029342
0.00291867
0.00291886
0.00293425
0.00293435
0.00291873
0.002932
0.002932
0.002932
0.00290057
0.00290057
0.00290057
0.00290057
0.00291911
0.00293428
0.002932
0.00292151
0.00293434
0.00291898
0.0029215
0.0029342
0.00291866
0.00291911
0.002932
0.00293428
0.00292151
0.00293434
0.0029215
0.00291898
0.00293432
0.00293432
0.0029195
0.00291881
0.00291881
0.00287712
0.00289236
0.00289246
0.00287699
0.00289231
0.00287692
0.00287712
0.00289236
0.00289246
0.00287698
0.00289013
0.00289014
0.00289013
0.00285898
0.00285898
0.00285898
0.00285898
0.00287738
0.00289239
0.00289014
0.00287974
0.00289246
0.00287723
0.00287973
0.00289232
0.00287692
0.00287738
0.00289014
0.00289239
0.00287974
0.00289246
0.00287973
0.00287723
0.00289242
0.00289242
0.00287777
0.00287705
0.00287705
0.00283575
0.00285085
0.00285096
0.00283562
0.00285082
0.00283556
0.00283575
0.00285085
0.00285096
0.00283561
0.00284865
0.00284865
0.00284865
0.00281776
0.00281777
0.00281776
0.00281777
0.00283602
0.00285088
0.00284865
0.00283834
0.00285096
0.00283585
0.00283834
0.00285082
0.00283556
0.00283602
0.00284865
0.00285088
0.00283834
0.00285096
0.00283834
0.00283585
0.00285091
0.00285091
0.0028364
0.00283568
0.00283568
0.00279473
0.00280971
0.00280981
0.0027946
0.00280968
0.00279455
0.00279473
0.00280971
0.00280981
0.0027946
0.00280751
0.00280751
0.00280751
0.00277688
0.00277688
0.00277688
0.00277688
0.00279501
0.00280973
0.00280752
0.00279729
0.00280981
0.00279483
0.00279729
0.00280968
0.00279455
0.00279501
0.00280752
0.00280973
0.00279729
0.00280981
0.00279729
0.00279483
0.00280976
0.00280976
0.00279539
0.00279465
0.00279465
0.00275403
0.00276891
0.002769
0.0027539
0.00276887
0.00275387
0.00275403
0.00276891
0.002769
0.00275391
0.00276671
0.00276671
0.00276671
0.00273632
0.00273632
0.00273632
0.00273632
0.00275432
0.00276892
0.00276672
0.00275657
0.002769
0.00275413
0.00275657
0.00276888
0.00275386
0.00275432
0.00276672
0.00276892
0.00275657
0.002769
0.00275657
0.00275413
0.00276895
0.00276895
0.0027547
0.00275395
0.00275395
0.00271363
0.00272841
0.0027285
0.00271351
0.00272838
0.00271349
0.00271363
0.00272841
0.0027285
0.00271351
0.00272622
0.00272622
0.00272622
0.00269604
0.00269605
0.00269605
0.00269604
0.00271393
0.00272841
0.00272623
0.00271615
0.00272849
0.00271373
0.00271615
0.00272838
0.00271347
0.00271393
0.00272623
0.00272842
0.00271615
0.0027285
0.00271615
0.00271373
0.00272844
0.00272844
0.00271431
0.00271356
0.00271356
0.00267351
0.0026882
0.00268828
0.0026734
0.00268817
0.00267336
0.00267351
0.0026882
0.00268828
0.0026734
0.00268602
0.00268602
0.00268602
0.00265604
0.00265604
0.00265604
0.00265604
0.00267381
0.0026882
0.00268603
0.00267602
0.00268827
0.0026736
0.00267602
0.00268818
0.00267336
0.00267381
0.00268603
0.0026882
0.00267602
0.00268827
0.00267602
0.0026736
0.00268823
0.00268823
0.0026742
0.00267344
0.00267344
0.00263365
0.00264826
0.00264833
0.00263355
0.00264824
0.00263351
0.00263365
0.00264826
0.00264833
0.00263355
0.00264609
0.00264609
0.00264608
0.0026163
0.0026163
0.0026163
0.0026163
0.00263395
0.00264825
0.00264609
0.00263614
0.00264832
0.00263374
0.00263614
0.00264823
0.00263351
0.00263395
0.00264609
0.00264825
0.00263614
0.00264832
0.00263614
0.00263374
0.00264828
0.00264828
0.00263435
0.00263358
0.00263358
0.00259404
0.00260856
0.00260863
0.00259394
0.00260854
0.00259391
0.00259404
0.00260856
0.00260863
0.00259394
0.0026064
0.0026064
0.0026064
0.00257679
0.00257679
0.00257679
0.00257679
0.00259433
0.00260855
0.0026064
0.00259652
0.00260861
0.00259413
0.00259652
0.00260855
0.00259391
0.00259433
0.0026064
0.00260855
0.00259652
0.00260861
0.00259652
0.00259413
0.00260859
0.00260859
0.00259474
0.00259397
0.00259397
0.00255465
0.0025691
0.00256917
0.00255456
0.00256909
0.00255453
0.00255465
0.00256911
0.00256917
0.00255456
0.00256695
0.00256695
0.00256695
0.00253752
0.00253752
0.00253752
0.00253752
0.00255494
0.00256909
0.00256695
0.00255712
0.00256914
0.00255474
0.00255712
0.00256909
0.00255453
0.00255493
0.00256695
0.00256909
0.00255712
0.00256914
0.00255712
0.00255474
0.00256913
0.00256913
0.00255537
0.00255459
0.00255459
0.00251549
0.00252987
0.00252993
0.0025154
0.00252986
0.00251537
0.00251549
0.00252987
0.00252993
0.0025154
0.00252773
0.00252773
0.00252773
0.00249846
0.00249846
0.00249846
0.00249846
0.00251575
0.00252985
0.00252773
0.00251795
0.00252989
0.00251557
0.00251795
0.00252986
0.00251537
0.00251575
0.00252773
0.00252985
0.00251795
0.00252989
0.00251795
0.00251557
0.00252989
0.00252989
0.00251622
0.00251543
0.00251543
0.00247654
0.00249085
0.0024909
0.00247646
0.00249084
0.00247643
0.00247654
0.00249085
0.0024909
0.00247645
0.00248873
0.00248873
0.00248872
0.00245961
0.00245961
0.00245961
0.00245961
0.00247679
0.00249082
0.00248872
0.002479
0.00249086
0.00247661
0.002479
0.00249084
0.00247643
0.00247679
0.00248872
0.00249082
0.002479
0.00249086
0.002479
0.00247661
0.00249087
0.00249087
0.00247727
0.00247648
0.00247648
0.00243779
0.00245204
0.00245208
0.00243771
0.00245202
0.00243769
0.00243779
0.00245204
0.00245208
0.00243771
0.00244992
0.00244992
0.00244992
0.00242095
0.00242095
0.00242095
0.00242095
0.00243803
0.00245201
0.00244991
0.00244024
0.00245203
0.00243786
0.00244025
0.00245202
0.00243769
0.00243803
0.00244991
0.00245201
0.00244024
0.00245203
0.00244025
0.00243786
0.00245205
0.00245205
0.00243853
0.00243773
0.00243773
0.00239924
0.00241342
0.00241346
0.00239917
0.00241341
0.00239914
0.00239924
0.00241342
0.00241347
0.00239917
0.00241132
0.00241132
0.00241132
0.0023825
0.0023825
0.0023825
0.0023825
0.00239947
0.00241339
0.00241131
0.00240169
0.00241341
0.0023993
0.00240169
0.00241341
0.00239914
0.00239947
0.00241131
0.00241339
0.00240169
0.00241341
0.00240169
0.0023993
0.00241343
0.00241343
0.00239998
0.00239918
0.00239918
0.00236088
0.002375
0.00237504
0.00236081
0.00237499
0.00236079
0.00236088
0.002375
0.00237504
0.00236081
0.00237291
0.00237291
0.00237291
0.00234423
0.00234423
0.00234423
0.00234423
0.0023611
0.00237496
0.0023729
0.00236332
0.00237498
0.00236094
0.00236333
0.00237499
0.00236079
0.0023611
0.0023729
0.00237496
0.00236332
0.00237498
0.00236333
0.00236094
0.00237501
0.00237501
0.00236162
0.00236083
0.00236083
0.0023227
0.00233676
0.0023368
0.00232264
0.00233675
0.00232261
0.0023227
0.00233676
0.0023368
0.00232263
0.00233469
0.00233469
0.00233469
0.00230614
0.00230614
0.00230614
0.00230614
0.00232291
0.00233673
0.00233467
0.00232514
0.00233674
0.00232276
0.00232515
0.00233675
0.00232261
0.00232291
0.00233467
0.00233673
0.00232514
0.00233674
0.00232515
0.00232276
0.00233677
0.00233677
0.00232344
0.00232265
0.00232265
0.0022847
0.0022987
0.00229874
0.00228464
0.00229869
0.00228462
0.0022847
0.0022987
0.00229874
0.00228464
0.00229664
0.00229664
0.00229664
0.00226822
0.00226822
0.00226822
0.00226822
0.00228491
0.00229867
0.00229663
0.00228714
0.00229867
0.00228476
0.00228714
0.00229869
0.00228462
0.00228491
0.00229663
0.00229867
0.00228714
0.00229867
0.00228714
0.00228476
0.00229871
0.00229871
0.00228544
0.00228465
0.00228465
0.00224687
0.00226081
0.00226085
0.00224681
0.00226081
0.0022468
0.00224687
0.00226081
0.00226085
0.00224681
0.00225877
0.00225877
0.00225877
0.00223048
0.00223048
0.00223048
0.00223048
0.00224707
0.00226078
0.00225876
0.0022493
0.00226079
0.00224693
0.00224931
0.00226081
0.0022468
0.00224707
0.00225876
0.00226078
0.0022493
0.00226079
0.00224932
0.00224693
0.00226083
0.00226083
0.00224761
0.00224683
0.00224683
0.00220921
0.0022231
0.00222313
0.00220916
0.00222309
0.00220914
0.00220921
0.0022231
0.00222313
0.00220916
0.00222107
0.00222107
0.00222107
0.00219289
0.00219289
0.00219289
0.00219289
0.00220941
0.00222307
0.00222105
0.00221164
0.00222307
0.00220927
0.00221165
0.00222309
0.00220914
0.00220941
0.00222105
0.00222307
0.00221164
0.00222307
0.00221165
0.00220927
0.00222311
0.00222311
0.00220995
0.00220917
0.00220917
0.00217171
0.00218554
0.00218558
0.00217166
0.00218554
0.00217164
0.00217171
0.00218554
0.00218558
0.00217166
0.00218352
0.00218352
0.00218352
0.00215547
0.00215547
0.00215547
0.00215547
0.0021719
0.00218551
0.00218351
0.00217413
0.00218551
0.00217176
0.00217415
0.00218554
0.00217164
0.0021719
0.00218351
0.00218551
0.00217413
0.00218551
0.00217415
0.00217176
0.00218556
0.00218556
0.00217244
0.00217167
0.00217167
0.00213437
0.00214815
0.00214818
0.00213432
0.00214814
0.0021343
0.00213437
0.00214815
0.00214818
0.00213432
0.00214614
0.00214614
0.00214614
0.0021182
0.0021182
0.0021182
0.00211819