/*--------------------------------*- C++ -*----------------------------------*\
| =========                 |                                                 |
| \\      /  F ield         | OpenFOAM: The Open Source CFD Toolbox           |
|  \\    /   O peration     | Version:  v2012                                 |
|   \\  /    A nd           | Website:  www.openfoam.com                      |
|    \\/     M anipulation  |                                                 |
\*---------------------------------------------------------------------------*/
FoamFile
{
    version     2.0;
    format      ascii;
    class       volScalarField;
    location    "0.395";
    object      p;
}
// * * * * * * * * * * * * * * * * * * * * * * * * * * * * * * * * * * * * * //

dimensions      [0 2 -2 0 0 0 0];


internalField   nonuniform List<scalar> 
247104
(
1.8412e-06
1.84109e-06
1.84124e-06
1.84122e-06
1.84113e-06
1.84123e-06
1.84122e-06
1.84102e-06
1.84108e-06
1.84115e-06
1.84121e-06
1.84106e-06
1.84097e-06
1.84108e-06
1.84122e-06
1.84112e-06
1.84124e-06
1.84121e-06
1.8409e-06
1.84054e-06
1.8404e-06
1.84058e-06
1.84095e-06
1.84123e-06
1.84124e-06
1.84122e-06
1.84106e-06
1.84054e-06
1.84006e-06
1.83989e-06
1.84011e-06
1.84061e-06
1.8411e-06
1.84122e-06
1.8412e-06
1.84114e-06
1.84097e-06
1.8404e-06
1.83989e-06
1.83971e-06
1.83994e-06
1.84048e-06
1.84102e-06
1.84112e-06
1.84124e-06
1.84108e-06
1.84058e-06
1.84011e-06
1.83994e-06
1.84016e-06
1.84065e-06
1.84112e-06
1.84124e-06
1.84122e-06
1.84122e-06
1.84095e-06
1.84062e-06
1.84048e-06
1.84065e-06
1.841e-06
1.84123e-06
1.84122e-06
1.84102e-06
1.84112e-06
1.84123e-06
1.84111e-06
1.84102e-06
1.84112e-06
1.84123e-06
1.84109e-06
1.84124e-06
1.84122e-06
1.84112e-06
1.84124e-06
1.84122e-06
1.80834e-06
1.80635e-06
1.80573e-06
1.8045e-06
1.80452e-06
1.80446e-06
1.80445e-06
1.80578e-06
1.806e-06
1.80573e-06
1.80367e-06
1.80106e-06
1.80105e-06
1.80104e-06
1.80106e-06
1.80405e-06
1.80432e-06
1.8045e-06
1.80106e-06
1.801e-06
1.80107e-06
1.80107e-06
1.801e-06
1.80106e-06
1.80443e-06
1.80575e-06
1.80834e-06
1.80451e-06
1.80104e-06
1.80107e-06
1.80117e-06
1.80117e-06
1.80107e-06
1.80105e-06
1.80444e-06
1.80608e-06
1.80635e-06
1.80446e-06
1.80104e-06
1.80107e-06
1.80117e-06
1.80117e-06
1.80107e-06
1.80105e-06
1.8046e-06
1.80468e-06
1.80445e-06
1.80106e-06
1.801e-06
1.80107e-06
1.80107e-06
1.80101e-06
1.80106e-06
1.80438e-06
1.80567e-06
1.80578e-06
1.80405e-06
1.80106e-06
1.80105e-06
1.80104e-06
1.80106e-06
1.80429e-06
1.80446e-06
1.80592e-06
1.806e-06
1.80432e-06
1.80443e-06
1.80444e-06
1.8046e-06
1.80438e-06
1.80446e-06
1.80604e-06
1.80575e-06
1.80608e-06
1.80468e-06
1.80567e-06
1.80592e-06
1.78822e-06
1.78805e-06
1.78788e-06
1.78578e-06
1.78567e-06
1.78562e-06
1.78575e-06
1.78782e-06
1.78809e-06
1.78787e-06
1.78507e-06
1.78215e-06
1.78209e-06
1.78209e-06
1.78214e-06
1.78554e-06
1.78621e-06
1.78577e-06
1.78213e-06
1.7819e-06
1.78194e-06
1.78194e-06
1.7819e-06
1.78214e-06
1.78634e-06
1.7883e-06
1.78822e-06
1.78567e-06
1.78208e-06
1.78194e-06
1.78197e-06
1.78197e-06
1.78194e-06
1.78209e-06
1.78639e-06
1.78805e-06
1.78805e-06
1.78562e-06
1.78208e-06
1.78193e-06
1.78197e-06
1.78197e-06
1.78194e-06
1.78209e-06
1.78635e-06
1.78636e-06
1.78575e-06
1.78213e-06
1.7819e-06
1.78194e-06
1.78194e-06
1.7819e-06
1.78215e-06
1.78639e-06
1.78839e-06
1.78782e-06
1.78554e-06
1.78214e-06
1.78209e-06
1.78209e-06
1.78213e-06
1.78601e-06
1.78632e-06
1.78831e-06
1.78809e-06
1.78621e-06
1.78634e-06
1.78639e-06
1.78634e-06
1.78638e-06
1.78632e-06
1.78817e-06
1.78829e-06
1.78805e-06
1.78635e-06
1.78838e-06
1.7883e-06
1.7693e-06
1.76913e-06
1.76899e-06
1.76685e-06
1.76674e-06
1.76666e-06
1.76684e-06
1.76893e-06
1.7692e-06
1.76899e-06
1.76613e-06
1.76317e-06
1.76314e-06
1.76314e-06
1.76317e-06
1.76656e-06
1.76734e-06
1.76685e-06
1.76317e-06
1.76306e-06
1.76307e-06
1.76307e-06
1.76306e-06
1.76317e-06
1.76743e-06
1.76938e-06
1.7693e-06
1.76674e-06
1.76314e-06
1.76307e-06
1.76308e-06
1.76308e-06
1.76307e-06
1.76314e-06
1.76748e-06
1.76913e-06
1.76913e-06
1.76666e-06
1.76314e-06
1.76307e-06
1.76308e-06
1.76308e-06
1.76307e-06
1.76314e-06
1.76745e-06
1.76747e-06
1.76684e-06
1.76317e-06
1.76306e-06
1.76307e-06
1.76307e-06
1.76306e-06
1.76317e-06
1.76747e-06
1.76945e-06
1.76893e-06
1.76657e-06
1.76317e-06
1.76314e-06
1.76314e-06
1.76317e-06
1.7672e-06
1.76745e-06
1.76941e-06
1.7692e-06
1.76734e-06
1.76743e-06
1.76748e-06
1.76745e-06
1.76746e-06
1.76745e-06
1.76943e-06
1.76938e-06
1.76913e-06
1.76747e-06
1.76945e-06
1.76941e-06
1.75038e-06
1.75021e-06
1.75004e-06
1.74789e-06
1.74778e-06
1.74769e-06
1.74788e-06
1.74998e-06
1.75026e-06
1.75004e-06
1.74719e-06
1.7442e-06
1.74419e-06
1.74419e-06
1.7442e-06
1.74758e-06
1.7484e-06
1.7479e-06
1.7442e-06
1.74417e-06
1.74417e-06
1.74417e-06
1.74417e-06
1.7442e-06
1.74849e-06
1.75044e-06
1.75038e-06
1.74778e-06
1.74419e-06
1.74417e-06
1.74418e-06
1.74418e-06
1.74417e-06
1.74419e-06
1.74857e-06
1.75022e-06
1.75021e-06
1.74769e-06
1.74419e-06
1.74417e-06
1.74418e-06
1.74418e-06
1.74417e-06
1.74419e-06
1.74854e-06
1.74855e-06
1.74788e-06
1.7442e-06
1.74417e-06
1.74417e-06
1.74417e-06
1.74417e-06
1.7442e-06
1.74854e-06
1.75054e-06
1.74998e-06
1.74758e-06
1.7442e-06
1.74419e-06
1.74419e-06
1.7442e-06
1.74829e-06
1.74853e-06
1.75048e-06
1.75026e-06
1.7484e-06
1.74849e-06
1.74857e-06
1.74854e-06
1.74854e-06
1.74853e-06
1.75047e-06
1.75044e-06
1.75022e-06
1.74855e-06
1.75054e-06
1.75047e-06
1.73143e-06
1.73126e-06
1.73109e-06
1.72894e-06
1.72883e-06
1.72874e-06
1.72893e-06
1.73103e-06
1.7313e-06
1.73109e-06
1.72824e-06
1.72525e-06
1.72525e-06
1.72525e-06
1.72525e-06
1.72862e-06
1.72944e-06
1.72894e-06
1.72525e-06
1.72524e-06
1.72524e-06
1.72524e-06
1.72524e-06
1.72525e-06
1.72953e-06
1.73149e-06
1.73143e-06
1.72883e-06
1.72525e-06
1.72524e-06
1.72524e-06
1.72524e-06
1.72524e-06
1.72524e-06
1.72962e-06
1.73128e-06
1.73126e-06
1.72874e-06
1.72525e-06
1.72524e-06
1.72524e-06
1.72524e-06
1.72524e-06
1.72525e-06
1.7296e-06
1.72961e-06
1.72893e-06
1.72525e-06
1.72524e-06
1.72524e-06
1.72524e-06
1.72524e-06
1.72525e-06
1.72959e-06
1.7316e-06
1.73103e-06
1.72861e-06
1.72525e-06
1.72524e-06
1.72525e-06
1.72525e-06
1.72936e-06
1.72958e-06
1.73152e-06
1.7313e-06
1.72944e-06
1.72953e-06
1.72962e-06
1.7296e-06
1.72959e-06
1.72958e-06
1.73151e-06
1.73149e-06
1.73128e-06
1.72961e-06
1.7316e-06
1.73152e-06
1.71248e-06
1.71231e-06
1.71214e-06
1.70999e-06
1.70988e-06
1.7098e-06
1.70998e-06
1.71208e-06
1.71235e-06
1.71214e-06
1.70929e-06
1.7063e-06
1.7063e-06
1.7063e-06
1.7063e-06
1.70966e-06
1.71049e-06
1.70999e-06
1.7063e-06
1.7063e-06
1.7063e-06
1.7063e-06
1.7063e-06
1.7063e-06
1.71058e-06
1.71254e-06
1.71248e-06
1.70988e-06
1.7063e-06
1.7063e-06
1.7063e-06
1.7063e-06
1.7063e-06
1.7063e-06
1.71067e-06
1.71234e-06
1.71231e-06
1.7098e-06
1.7063e-06
1.7063e-06
1.7063e-06
1.7063e-06
1.7063e-06
1.7063e-06
1.71065e-06
1.71066e-06
1.70998e-06
1.7063e-06
1.7063e-06
1.7063e-06
1.7063e-06
1.7063e-06
1.7063e-06
1.71065e-06
1.71265e-06
1.71208e-06
1.70966e-06
1.7063e-06
1.7063e-06
1.7063e-06
1.7063e-06
1.71041e-06
1.71064e-06
1.71257e-06
1.71235e-06
1.71049e-06
1.71058e-06
1.71067e-06
1.71065e-06
1.71065e-06
1.71064e-06
1.71257e-06
1.71254e-06
1.71234e-06
1.71066e-06
1.71265e-06
1.71257e-06
1.69354e-06
1.69337e-06
1.69319e-06
1.69105e-06
1.69093e-06
1.69085e-06
1.69103e-06
1.69314e-06
1.6934e-06
1.69319e-06
1.69035e-06
1.68735e-06
1.68735e-06
1.68735e-06
1.68735e-06
1.69072e-06
1.69154e-06
1.69105e-06
1.68735e-06
1.68735e-06
1.68735e-06
1.68735e-06
1.68735e-06
1.68735e-06
1.69163e-06
1.6936e-06
1.69354e-06
1.69093e-06
1.68735e-06
1.68735e-06
1.68735e-06
1.68735e-06
1.68735e-06
1.68735e-06
1.69173e-06
1.69339e-06
1.69337e-06
1.69085e-06
1.68735e-06
1.68735e-06
1.68735e-06
1.68735e-06
1.68735e-06
1.68735e-06
1.6917e-06
1.69172e-06
1.69103e-06
1.68735e-06
1.68735e-06
1.68735e-06
1.68735e-06
1.68735e-06
1.68735e-06
1.6917e-06
1.69371e-06
1.69314e-06
1.69072e-06
1.68735e-06
1.68735e-06
1.68735e-06
1.68735e-06
1.69146e-06
1.69169e-06
1.69363e-06
1.6934e-06
1.69154e-06
1.69164e-06
1.69172e-06
1.6917e-06
1.6917e-06
1.69169e-06
1.69362e-06
1.6936e-06
1.69339e-06
1.69172e-06
1.69371e-06
1.69363e-06
1.67459e-06
1.67442e-06
1.67425e-06
1.6721e-06
1.67198e-06
1.6719e-06
1.67208e-06
1.67419e-06
1.67446e-06
1.67425e-06
1.6714e-06
1.66841e-06
1.66841e-06
1.66841e-06
1.66841e-06
1.67177e-06
1.6726e-06
1.6721e-06
1.66841e-06
1.66841e-06
1.66841e-06
1.66841e-06
1.66841e-06
1.66841e-06
1.67269e-06
1.67465e-06
1.67459e-06
1.67198e-06
1.66841e-06
1.66841e-06
1.66841e-06
1.66841e-06
1.66841e-06
1.66841e-06
1.67278e-06
1.67444e-06
1.67442e-06
1.6719e-06
1.66841e-06
1.66841e-06
1.66841e-06
1.66841e-06
1.66841e-06
1.66841e-06
1.67276e-06
1.67277e-06
1.67208e-06
1.66841e-06
1.66841e-06
1.66841e-06
1.66841e-06
1.66841e-06
1.66841e-06
1.67275e-06
1.67476e-06
1.67419e-06
1.67177e-06
1.66841e-06
1.66841e-06
1.66841e-06
1.66841e-06
1.67252e-06
1.67275e-06
1.67468e-06
1.67446e-06
1.6726e-06
1.67269e-06
1.67278e-06
1.67276e-06
1.67275e-06
1.67275e-06
1.67467e-06
1.67465e-06
1.67444e-06
1.67277e-06
1.67476e-06
1.67468e-06
1.65564e-06
1.65548e-06
1.6553e-06
1.65315e-06
1.65304e-06
1.65296e-06
1.65314e-06
1.65525e-06
1.65551e-06
1.6553e-06
1.65245e-06
1.64946e-06
1.64946e-06
1.64946e-06
1.64946e-06
1.65282e-06
1.65365e-06
1.65315e-06
1.64946e-06
1.64946e-06
1.64946e-06
1.64946e-06
1.64946e-06
1.64946e-06
1.65374e-06
1.6557e-06
1.65564e-06
1.65304e-06
1.64946e-06
1.64946e-06
1.64946e-06
1.64946e-06
1.64946e-06
1.64946e-06
1.65383e-06
1.6555e-06
1.65548e-06
1.65296e-06
1.64946e-06
1.64946e-06
1.64946e-06
1.64946e-06
1.64946e-06
1.64946e-06
1.65381e-06
1.65382e-06
1.65314e-06
1.64946e-06
1.64946e-06
1.64946e-06
1.64946e-06
1.64946e-06
1.64946e-06
1.65381e-06
1.65582e-06
1.65525e-06
1.65282e-06
1.64946e-06
1.64946e-06
1.64946e-06
1.64946e-06
1.65357e-06
1.6538e-06
1.65573e-06
1.65551e-06
1.65365e-06
1.65374e-06
1.65383e-06
1.65381e-06
1.65381e-06
1.6538e-06
1.65573e-06
1.65571e-06
1.6555e-06
1.65383e-06
1.65582e-06
1.65573e-06
1.6367e-06
1.63653e-06
1.63635e-06
1.63421e-06
1.63409e-06
1.63401e-06
1.63419e-06
1.6363e-06
1.63657e-06
1.63635e-06
1.63351e-06
1.63051e-06
1.63051e-06
1.63051e-06
1.63051e-06
1.63388e-06
1.63471e-06
1.63421e-06
1.63051e-06
1.63051e-06
1.63051e-06
1.63051e-06
1.63051e-06
1.63051e-06
1.6348e-06
1.63676e-06
1.6367e-06
1.63409e-06
1.63051e-06
1.63051e-06
1.63051e-06
1.63051e-06
1.63051e-06
1.63051e-06
1.63489e-06
1.63655e-06
1.63653e-06
1.63401e-06
1.63051e-06
1.63051e-06
1.63051e-06
1.63051e-06
1.63051e-06
1.63051e-06
1.63487e-06
1.63488e-06
1.63419e-06
1.63051e-06
1.63051e-06
1.63051e-06
1.63051e-06
1.63051e-06
1.63051e-06
1.63486e-06
1.63687e-06
1.6363e-06
1.63388e-06
1.63051e-06
1.63051e-06
1.63051e-06
1.63051e-06
1.63463e-06
1.63485e-06
1.63679e-06
1.63657e-06
1.63471e-06
1.6348e-06
1.63489e-06
1.63487e-06
1.63486e-06
1.63486e-06
1.63678e-06
1.63676e-06
1.63655e-06
1.63488e-06
1.63687e-06
1.63679e-06
1.61775e-06
1.61758e-06
1.61741e-06
1.61526e-06
1.61515e-06
1.61507e-06
1.61525e-06
1.61735e-06
1.61762e-06
1.61741e-06
1.61456e-06
1.61157e-06
1.61157e-06
1.61157e-06
1.61157e-06
1.61493e-06
1.61576e-06
1.61526e-06
1.61157e-06
1.61157e-06
1.61157e-06
1.61157e-06
1.61157e-06
1.61157e-06
1.61585e-06
1.61781e-06
1.61775e-06
1.61515e-06
1.61157e-06
1.61157e-06
1.61157e-06
1.61157e-06
1.61157e-06
1.61157e-06
1.61594e-06
1.61761e-06
1.61758e-06
1.61507e-06
1.61157e-06
1.61157e-06
1.61157e-06
1.61157e-06
1.61157e-06
1.61157e-06
1.61592e-06
1.61593e-06
1.61525e-06
1.61157e-06
1.61157e-06
1.61157e-06
1.61157e-06
1.61157e-06
1.61157e-06
1.61592e-06
1.61793e-06
1.61735e-06
1.61493e-06
1.61157e-06
1.61157e-06
1.61157e-06
1.61157e-06
1.61568e-06
1.61591e-06
1.61784e-06
1.61762e-06
1.61576e-06
1.61585e-06
1.61594e-06
1.61592e-06
1.61592e-06
1.61591e-06
1.61784e-06
1.61781e-06
1.61761e-06
1.61593e-06
1.61792e-06
1.61784e-06
1.59881e-06
1.59864e-06
1.59846e-06
1.59632e-06
1.5962e-06
1.59612e-06
1.5963e-06
1.59841e-06
1.59867e-06
1.59846e-06
1.59562e-06
1.59262e-06
1.59262e-06
1.59262e-06
1.59262e-06
1.59599e-06
1.59681e-06
1.59632e-06
1.59262e-06
1.59262e-06
1.59262e-06
1.59262e-06
1.59262e-06
1.59262e-06
1.59691e-06
1.59887e-06
1.59881e-06
1.5962e-06
1.59262e-06
1.59262e-06
1.59262e-06
1.59262e-06
1.59262e-06
1.59262e-06
1.597e-06
1.59866e-06
1.59864e-06
1.59612e-06
1.59262e-06
1.59262e-06
1.59262e-06
1.59262e-06
1.59262e-06
1.59262e-06
1.59698e-06
1.59699e-06
1.5963e-06
1.59262e-06
1.59262e-06
1.59262e-06
1.59262e-06
1.59262e-06
1.59262e-06
1.59697e-06
1.59898e-06
1.59841e-06
1.59599e-06
1.59262e-06
1.59262e-06
1.59262e-06
1.59262e-06
1.59674e-06
1.59696e-06
1.5989e-06
1.59867e-06
1.59682e-06
1.59691e-06
1.597e-06
1.59697e-06
1.59697e-06
1.59696e-06
1.59889e-06
1.59887e-06
1.59866e-06
1.59699e-06
1.59898e-06
1.5989e-06
1.57986e-06
1.57969e-06
1.57952e-06
1.57737e-06
1.57726e-06
1.57718e-06
1.57736e-06
1.57946e-06
1.57973e-06
1.57952e-06
1.57667e-06
1.57368e-06
1.57368e-06
1.57368e-06
1.57368e-06
1.57704e-06
1.57787e-06
1.57737e-06
1.57368e-06
1.57368e-06
1.57368e-06
1.57368e-06
1.57368e-06
1.57368e-06
1.57796e-06
1.57992e-06
1.57986e-06
1.57726e-06
1.57368e-06
1.57368e-06
1.57368e-06
1.57368e-06
1.57368e-06
1.57368e-06
1.57805e-06
1.57972e-06
1.57969e-06
1.57718e-06
1.57368e-06
1.57368e-06
1.57368e-06
1.57368e-06
1.57368e-06
1.57368e-06
1.57803e-06
1.57804e-06
1.57736e-06
1.57368e-06
1.57368e-06
1.57368e-06
1.57368e-06
1.57368e-06
1.57368e-06
1.57803e-06
1.58003e-06
1.57946e-06
1.57704e-06
1.57368e-06
1.57368e-06
1.57368e-06
1.57368e-06
1.57779e-06
1.57802e-06
1.57995e-06
1.57973e-06
1.57787e-06
1.57796e-06
1.57805e-06
1.57803e-06
1.57803e-06
1.57802e-06
1.57994e-06
1.57992e-06
1.57972e-06
1.57804e-06
1.58003e-06
1.57995e-06
1.56092e-06
1.56075e-06
1.56057e-06
1.55843e-06
1.55831e-06
1.55823e-06
1.55841e-06
1.56052e-06
1.56078e-06
1.56057e-06
1.55773e-06
1.55473e-06
1.55473e-06
1.55473e-06
1.55473e-06
1.5581e-06
1.55892e-06
1.55843e-06
1.55473e-06
1.55473e-06
1.55473e-06
1.55473e-06
1.55473e-06
1.55473e-06
1.55902e-06
1.56098e-06
1.56092e-06
1.55831e-06
1.55473e-06
1.55473e-06
1.55473e-06
1.55473e-06
1.55473e-06
1.55473e-06
1.55911e-06
1.56077e-06
1.56075e-06
1.55823e-06
1.55473e-06
1.55473e-06
1.55473e-06
1.55473e-06
1.55473e-06
1.55473e-06
1.55909e-06
1.5591e-06
1.55841e-06
1.55473e-06
1.55473e-06
1.55473e-06
1.55473e-06
1.55473e-06
1.55473e-06
1.55908e-06
1.56109e-06
1.56052e-06
1.5581e-06
1.55473e-06
1.55473e-06
1.55473e-06
1.55473e-06
1.55885e-06
1.55907e-06
1.56101e-06
1.56078e-06
1.55893e-06
1.55902e-06
1.55911e-06
1.55908e-06
1.55908e-06
1.55907e-06
1.561e-06
1.56098e-06
1.56077e-06
1.5591e-06
1.56109e-06
1.56101e-06
1.54197e-06
1.5418e-06
1.54163e-06
1.53948e-06
1.53937e-06
1.53929e-06
1.53947e-06
1.54158e-06
1.54184e-06
1.54163e-06
1.53878e-06
1.53579e-06
1.53579e-06
1.53579e-06
1.53579e-06
1.53915e-06
1.53998e-06
1.53948e-06
1.53579e-06
1.53579e-06
1.53579e-06
1.53579e-06
1.53579e-06
1.53579e-06
1.54007e-06
1.54203e-06
1.54197e-06
1.53937e-06
1.53579e-06
1.53579e-06
1.53579e-06
1.53579e-06
1.53579e-06
1.53579e-06
1.54016e-06
1.54183e-06
1.5418e-06
1.53929e-06
1.53579e-06
1.53579e-06
1.53579e-06
1.53579e-06
1.53579e-06
1.53579e-06
1.54014e-06
1.54015e-06
1.53947e-06
1.53579e-06
1.53579e-06
1.53579e-06
1.53579e-06
1.53579e-06
1.53579e-06
1.54014e-06
1.54215e-06
1.54158e-06
1.53915e-06
1.53579e-06
1.53579e-06
1.53579e-06
1.53579e-06
1.5399e-06
1.54013e-06
1.54206e-06
1.54184e-06
1.53998e-06
1.54007e-06
1.54016e-06
1.54014e-06
1.54014e-06
1.54013e-06
1.54206e-06
1.54203e-06
1.54183e-06
1.54015e-06
1.54215e-06
1.54206e-06
1.52303e-06
1.52286e-06
1.52269e-06
1.52054e-06
1.52042e-06
1.52034e-06
1.52053e-06
1.52263e-06
1.5229e-06
1.52269e-06
1.51984e-06
1.51685e-06
1.51685e-06
1.51685e-06
1.51685e-06
1.52021e-06
1.52104e-06
1.52054e-06
1.51685e-06
1.51685e-06
1.51685e-06
1.51685e-06
1.51685e-06
1.51685e-06
1.52113e-06
1.52309e-06
1.52303e-06
1.52042e-06
1.51685e-06
1.51685e-06
1.51685e-06
1.51685e-06
1.51685e-06
1.51685e-06
1.52122e-06
1.52288e-06
1.52286e-06
1.52034e-06
1.51685e-06
1.51685e-06
1.51685e-06
1.51685e-06
1.51685e-06
1.51685e-06
1.5212e-06
1.52121e-06
1.52052e-06
1.51685e-06
1.51685e-06
1.51685e-06
1.51685e-06
1.51685e-06
1.51685e-06
1.5212e-06
1.5232e-06
1.52263e-06
1.52021e-06
1.51685e-06
1.51685e-06
1.51685e-06
1.51685e-06
1.52096e-06
1.52119e-06
1.52312e-06
1.5229e-06
1.52104e-06
1.52113e-06
1.52122e-06
1.5212e-06
1.5212e-06
1.52119e-06
1.52311e-06
1.52309e-06
1.52288e-06
1.52121e-06
1.5232e-06
1.52312e-06
1.50409e-06
1.50392e-06
1.50374e-06
1.5016e-06
1.50148e-06
1.5014e-06
1.50158e-06
1.50369e-06
1.50395e-06
1.50374e-06
1.5009e-06
1.4979e-06
1.4979e-06
1.4979e-06
1.4979e-06
1.50127e-06
1.50209e-06
1.5016e-06
1.4979e-06
1.4979e-06
1.4979e-06
1.4979e-06
1.4979e-06
1.4979e-06
1.50219e-06
1.50414e-06
1.50409e-06
1.50148e-06
1.4979e-06
1.4979e-06
1.4979e-06
1.4979e-06
1.4979e-06
1.4979e-06
1.50228e-06
1.50394e-06
1.50392e-06
1.5014e-06
1.4979e-06
1.4979e-06
1.4979e-06
1.4979e-06
1.4979e-06
1.4979e-06
1.50225e-06
1.50227e-06
1.50158e-06
1.4979e-06
1.4979e-06
1.4979e-06
1.4979e-06
1.4979e-06
1.4979e-06
1.50225e-06
1.50426e-06
1.50369e-06
1.50127e-06
1.4979e-06
1.4979e-06
1.4979e-06
1.4979e-06
1.50202e-06
1.50224e-06
1.50418e-06
1.50395e-06
1.50209e-06
1.50219e-06
1.50227e-06
1.50225e-06
1.50225e-06
1.50224e-06
1.50417e-06
1.50415e-06
1.50394e-06
1.50227e-06
1.50426e-06
1.50418e-06
1.48514e-06
1.48497e-06
1.4848e-06
1.48265e-06
1.48254e-06
1.48246e-06
1.48264e-06
1.48474e-06
1.48501e-06
1.4848e-06
1.48195e-06
1.47896e-06
1.47896e-06
1.47896e-06
1.47896e-06
1.48232e-06
1.48315e-06
1.48265e-06
1.47896e-06
1.47896e-06
1.47896e-06
1.47896e-06
1.47896e-06
1.47896e-06
1.48324e-06
1.4852e-06
1.48514e-06
1.48254e-06
1.47896e-06
1.47896e-06
1.47896e-06
1.47896e-06
1.47896e-06
1.47896e-06
1.48333e-06
1.485e-06
1.48497e-06
1.48246e-06
1.47896e-06
1.47896e-06
1.47896e-06
1.47896e-06
1.47896e-06
1.47896e-06
1.48331e-06
1.48332e-06
1.48264e-06
1.47896e-06
1.47896e-06
1.47896e-06
1.47896e-06
1.47896e-06
1.47896e-06
1.48331e-06
1.48532e-06
1.48474e-06
1.48232e-06
1.47896e-06
1.47896e-06
1.47896e-06
1.47896e-06
1.48307e-06
1.4833e-06
1.48523e-06
1.48501e-06
1.48315e-06
1.48324e-06
1.48333e-06
1.48331e-06
1.48331e-06
1.4833e-06
1.48523e-06
1.4852e-06
1.485e-06
1.48332e-06
1.48531e-06
1.48523e-06
1.4662e-06
1.46603e-06
1.46586e-06
1.46371e-06
1.4636e-06
1.46351e-06
1.4637e-06
1.4658e-06
1.46607e-06
1.46586e-06
1.46301e-06
1.46002e-06
1.46002e-06
1.46002e-06
1.46002e-06
1.46338e-06
1.46421e-06
1.46371e-06
1.46002e-06
1.46002e-06
1.46002e-06
1.46002e-06
1.46002e-06
1.46002e-06
1.4643e-06
1.46626e-06
1.4662e-06
1.4636e-06
1.46002e-06
1.46002e-06
1.46002e-06
1.46002e-06
1.46002e-06
1.46002e-06
1.46439e-06
1.46605e-06
1.46603e-06
1.46351e-06
1.46002e-06
1.46002e-06
1.46002e-06
1.46002e-06
1.46002e-06
1.46002e-06
1.46437e-06
1.46438e-06
1.4637e-06
1.46002e-06
1.46002e-06
1.46002e-06
1.46002e-06
1.46002e-06
1.46002e-06
1.46437e-06
1.46637e-06
1.4658e-06
1.46338e-06
1.46002e-06
1.46002e-06
1.46002e-06
1.46002e-06
1.46413e-06
1.46436e-06
1.46629e-06
1.46607e-06
1.46421e-06
1.4643e-06
1.46439e-06
1.46437e-06
1.46437e-06
1.46436e-06
1.46628e-06
1.46626e-06
1.46605e-06
1.46438e-06
1.46637e-06
1.46629e-06
1.44726e-06
1.44709e-06
1.44691e-06
1.44477e-06
1.44465e-06
1.44457e-06
1.44475e-06
1.44686e-06
1.44713e-06
1.44691e-06
1.44407e-06
1.44108e-06
1.44108e-06
1.44108e-06
1.44108e-06
1.44444e-06
1.44527e-06
1.44477e-06
1.44108e-06
1.44108e-06
1.44108e-06
1.44108e-06
1.44108e-06
1.44108e-06
1.44536e-06
1.44732e-06
1.44726e-06
1.44465e-06
1.44108e-06
1.44108e-06
1.44108e-06
1.44108e-06
1.44108e-06
1.44108e-06
1.44545e-06
1.44711e-06
1.44709e-06
1.44457e-06
1.44108e-06
1.44108e-06
1.44108e-06
1.44108e-06
1.44108e-06
1.44108e-06
1.44543e-06
1.44544e-06
1.44475e-06
1.44108e-06
1.44108e-06
1.44108e-06
1.44108e-06
1.44108e-06
1.44108e-06
1.44542e-06
1.44743e-06
1.44686e-06
1.44444e-06
1.44108e-06
1.44108e-06
1.44108e-06
1.44108e-06
1.44519e-06
1.44542e-06
1.44735e-06
1.44713e-06
1.44527e-06
1.44536e-06
1.44545e-06
1.44543e-06
1.44542e-06
1.44542e-06
1.44734e-06
1.44732e-06
1.44711e-06
1.44544e-06
1.44743e-06
1.44735e-06
1.42832e-06
1.42815e-06
1.42797e-06
1.42583e-06
1.42571e-06
1.42563e-06
1.42581e-06
1.42792e-06
1.42818e-06
1.42797e-06
1.42513e-06
1.42214e-06
1.42214e-06
1.42214e-06
1.42213e-06
1.4255e-06
1.42633e-06
1.42583e-06
1.42214e-06
1.42214e-06
1.42214e-06
1.42214e-06
1.42214e-06
1.42213e-06
1.42642e-06
1.42838e-06
1.42832e-06
1.42571e-06
1.42213e-06
1.42214e-06
1.42214e-06
1.42214e-06
1.42214e-06
1.42214e-06
1.42651e-06
1.42817e-06
1.42815e-06
1.42563e-06
1.42214e-06
1.42214e-06
1.42214e-06
1.42214e-06
1.42214e-06
1.42214e-06
1.42649e-06
1.4265e-06
1.42581e-06
1.42213e-06
1.42214e-06
1.42214e-06
1.42214e-06
1.42214e-06
1.42213e-06
1.42648e-06
1.42849e-06
1.42792e-06
1.4255e-06
1.42213e-06
1.42213e-06
1.42213e-06
1.42213e-06
1.42625e-06
1.42647e-06
1.42841e-06
1.42818e-06
1.42633e-06
1.42642e-06
1.42651e-06
1.42649e-06
1.42648e-06
1.42647e-06
1.4284e-06
1.42838e-06
1.42817e-06
1.4265e-06
1.42849e-06
1.42841e-06
1.40938e-06
1.40921e-06
1.40903e-06
1.40689e-06
1.40677e-06
1.40669e-06
1.40687e-06
1.40898e-06
1.40924e-06
1.40903e-06
1.40619e-06
1.40319e-06
1.40319e-06
1.40319e-06
1.40319e-06
1.40656e-06
1.40739e-06
1.40689e-06
1.40319e-06
1.40319e-06
1.40319e-06
1.40319e-06
1.40319e-06
1.40319e-06
1.40748e-06
1.40944e-06
1.40938e-06
1.40677e-06
1.40319e-06
1.40319e-06
1.40319e-06
1.40319e-06
1.40319e-06
1.40319e-06
1.40757e-06
1.40923e-06
1.40921e-06
1.40669e-06
1.40319e-06
1.40319e-06
1.40319e-06
1.40319e-06
1.40319e-06
1.40319e-06
1.40755e-06
1.40756e-06
1.40687e-06
1.40319e-06
1.40319e-06
1.40319e-06
1.40319e-06
1.40319e-06
1.40319e-06
1.40754e-06
1.40955e-06
1.40898e-06
1.40656e-06
1.40319e-06
1.40319e-06
1.40319e-06
1.40319e-06
1.40731e-06
1.40753e-06
1.40947e-06
1.40924e-06
1.40739e-06
1.40748e-06
1.40757e-06
1.40755e-06
1.40754e-06
1.40753e-06
1.40946e-06
1.40944e-06
1.40923e-06
1.40756e-06
1.40955e-06
1.40947e-06
1.39044e-06
1.39027e-06
1.39009e-06
1.38795e-06
1.38783e-06
1.38775e-06
1.38793e-06
1.39004e-06
1.3903e-06
1.39009e-06
1.38725e-06
1.38425e-06
1.38425e-06
1.38425e-06
1.38425e-06
1.38762e-06
1.38845e-06
1.38795e-06
1.38425e-06
1.38425e-06
1.38425e-06
1.38425e-06
1.38425e-06
1.38425e-06
1.38854e-06
1.3905e-06
1.39044e-06
1.38783e-06
1.38425e-06
1.38425e-06
1.38425e-06
1.38425e-06
1.38425e-06
1.38425e-06
1.38863e-06
1.39029e-06
1.39027e-06
1.38775e-06
1.38425e-06
1.38425e-06
1.38425e-06
1.38425e-06
1.38425e-06
1.38425e-06
1.38861e-06
1.38862e-06
1.38793e-06
1.38425e-06
1.38425e-06
1.38425e-06
1.38425e-06
1.38425e-06
1.38425e-06
1.3886e-06
1.39061e-06
1.39004e-06
1.38762e-06
1.38425e-06
1.38425e-06
1.38425e-06
1.38425e-06
1.38837e-06
1.38859e-06
1.39053e-06
1.3903e-06
1.38845e-06
1.38854e-06
1.38863e-06
1.38861e-06
1.3886e-06
1.38859e-06
1.39052e-06
1.3905e-06
1.39029e-06
1.38862e-06
1.39061e-06
1.39053e-06
1.3715e-06
1.37133e-06
1.37115e-06
1.36901e-06
1.36889e-06
1.36881e-06
1.36899e-06
1.3711e-06
1.37137e-06
1.37115e-06
1.36831e-06
1.36532e-06
1.36532e-06
1.36532e-06
1.36532e-06
1.36868e-06
1.36951e-06
1.36901e-06
1.36532e-06
1.36532e-06
1.36532e-06
1.36532e-06
1.36532e-06
1.36532e-06
1.3696e-06
1.37156e-06
1.3715e-06
1.36889e-06
1.36532e-06
1.36532e-06
1.36532e-06
1.36532e-06
1.36532e-06
1.36532e-06
1.36969e-06
1.37135e-06
1.37133e-06
1.36881e-06
1.36532e-06
1.36532e-06
1.36532e-06
1.36532e-06
1.36532e-06
1.36532e-06
1.36967e-06
1.36968e-06
1.36899e-06
1.36532e-06
1.36532e-06
1.36532e-06
1.36532e-06
1.36532e-06
1.36532e-06
1.36966e-06
1.37167e-06
1.3711e-06
1.36868e-06
1.36532e-06
1.36532e-06
1.36532e-06
1.36532e-06
1.36943e-06
1.36965e-06
1.37159e-06
1.37137e-06
1.36951e-06
1.3696e-06
1.36969e-06
1.36967e-06
1.36966e-06
1.36965e-06
1.37158e-06
1.37156e-06
1.37135e-06
1.36968e-06
1.37167e-06
1.37159e-06
1.35256e-06
1.35239e-06
1.35221e-06
1.35007e-06
1.34995e-06
1.34987e-06
1.35005e-06
1.35216e-06
1.35242e-06
1.35221e-06
1.34937e-06
1.34637e-06
1.34637e-06
1.34637e-06
1.34637e-06
1.34974e-06
1.35057e-06
1.35007e-06
1.34637e-06
1.34637e-06
1.34637e-06
1.34637e-06
1.34637e-06
1.34637e-06
1.35066e-06
1.35262e-06
1.35256e-06
1.34995e-06
1.34637e-06
1.34637e-06
1.34637e-06
1.34637e-06
1.34637e-06
1.34637e-06
1.35075e-06
1.35241e-06
1.35239e-06
1.34987e-06
1.34637e-06
1.34637e-06
1.34637e-06
1.34637e-06
1.34637e-06
1.34637e-06
1.35073e-06
1.35074e-06
1.35005e-06
1.34637e-06
1.34637e-06
1.34637e-06
1.34637e-06
1.34637e-06
1.34637e-06
1.35072e-06
1.35273e-06
1.35216e-06
1.34974e-06
1.34637e-06
1.34637e-06
1.34637e-06
1.34637e-06
1.35049e-06
1.35071e-06
1.35265e-06
1.35242e-06
1.35057e-06
1.35066e-06
1.35075e-06
1.35073e-06
1.35072e-06
1.35071e-06
1.35264e-06
1.35262e-06
1.35241e-06
1.35074e-06
1.35273e-06
1.35265e-06
1.33362e-06
1.33345e-06
1.33327e-06
1.33113e-06
1.33101e-06
1.33093e-06
1.33111e-06
1.33322e-06
1.33348e-06
1.33327e-06
1.33043e-06
1.32743e-06
1.32743e-06
1.32743e-06
1.32743e-06
1.3308e-06
1.33162e-06
1.33113e-06
1.32743e-06
1.32743e-06
1.32743e-06
1.32743e-06
1.32743e-06
1.32743e-06
1.33172e-06
1.33368e-06
1.33362e-06
1.33101e-06
1.32743e-06
1.32743e-06
1.32743e-06
1.32743e-06
1.32743e-06
1.32743e-06
1.33181e-06
1.33347e-06
1.33345e-06
1.33093e-06
1.32743e-06
1.32743e-06
1.32743e-06
1.32743e-06
1.32743e-06
1.32743e-06
1.33179e-06
1.3318e-06
1.33111e-06
1.32743e-06
1.32743e-06
1.32743e-06
1.32743e-06
1.32743e-06
1.32743e-06
1.33178e-06
1.33379e-06
1.33322e-06
1.3308e-06
1.32743e-06
1.32743e-06
1.32743e-06
1.32743e-06
1.33155e-06
1.33177e-06
1.33371e-06
1.33348e-06
1.33163e-06
1.33172e-06
1.33181e-06
1.33179e-06
1.33178e-06
1.33177e-06
1.3337e-06
1.33368e-06
1.33347e-06
1.3318e-06
1.33379e-06
1.33371e-06
1.31468e-06
1.31451e-06
1.31433e-06
1.31219e-06
1.31207e-06
1.31199e-06
1.31217e-06
1.31428e-06
1.31454e-06
1.31433e-06
1.31149e-06
1.30849e-06
1.30849e-06
1.30849e-06
1.30849e-06
1.31186e-06
1.31268e-06
1.31219e-06
1.30849e-06
1.30849e-06
1.30849e-06
1.30849e-06
1.30849e-06
1.30849e-06
1.31278e-06
1.31473e-06
1.31468e-06
1.31207e-06
1.30849e-06
1.30849e-06
1.30849e-06
1.30849e-06
1.30849e-06
1.30849e-06
1.31287e-06
1.31453e-06
1.31451e-06
1.31199e-06
1.30849e-06
1.30849e-06
1.30849e-06
1.30849e-06
1.30849e-06
1.30849e-06
1.31284e-06
1.31286e-06
1.31217e-06
1.30849e-06
1.30849e-06
1.30849e-06
1.30849e-06
1.30849e-06
1.30849e-06
1.31284e-06
1.31485e-06
1.31428e-06
1.31186e-06
1.30849e-06
1.30849e-06
1.30849e-06
1.30849e-06
1.31261e-06
1.31283e-06
1.31477e-06
1.31454e-06
1.31268e-06
1.31277e-06
1.31286e-06
1.31284e-06
1.31284e-06
1.31283e-06
1.31476e-06
1.31474e-06
1.31453e-06
1.31286e-06
1.31485e-06
1.31477e-06
1.29573e-06
1.29557e-06
1.29539e-06
1.29324e-06
1.29313e-06
1.29305e-06
1.29323e-06
1.29534e-06
1.2956e-06
1.29539e-06
1.29254e-06
1.28955e-06
1.28955e-06
1.28955e-06
1.28955e-06
1.29291e-06
1.29374e-06
1.29324e-06
1.28955e-06
1.28955e-06
1.28955e-06
1.28955e-06
1.28955e-06
1.28955e-06
1.29383e-06
1.29579e-06
1.29573e-06
1.29313e-06
1.28955e-06
1.28955e-06
1.28955e-06
1.28955e-06
1.28955e-06
1.28955e-06
1.29392e-06
1.29559e-06
1.29557e-06
1.29305e-06
1.28955e-06
1.28955e-06
1.28955e-06
1.28955e-06
1.28955e-06
1.28955e-06
1.2939e-06
1.29391e-06
1.29323e-06
1.28955e-06
1.28955e-06
1.28955e-06
1.28955e-06
1.28955e-06
1.28955e-06
1.2939e-06
1.29591e-06
1.29534e-06
1.29291e-06
1.28955e-06
1.28955e-06
1.28955e-06
1.28955e-06
1.29366e-06
1.29389e-06
1.29582e-06
1.2956e-06
1.29374e-06
1.29383e-06
1.29392e-06
1.2939e-06
1.2939e-06
1.29389e-06
1.29582e-06
1.2958e-06
1.29559e-06
1.29392e-06
1.29591e-06
1.29582e-06
1.27679e-06
1.27662e-06
1.27645e-06
1.2743e-06
1.27419e-06
1.27411e-06
1.27429e-06
1.27639e-06
1.27666e-06
1.27645e-06
1.2736e-06
1.27061e-06
1.27061e-06
1.27061e-06
1.27061e-06
1.27397e-06
1.2748e-06
1.2743e-06
1.27061e-06
1.27061e-06
1.27061e-06
1.27061e-06
1.27061e-06
1.27061e-06
1.27489e-06
1.27685e-06
1.27679e-06
1.27419e-06
1.27061e-06
1.27061e-06
1.27061e-06
1.27061e-06
1.27061e-06
1.27061e-06
1.27498e-06
1.27664e-06
1.27662e-06
1.27411e-06
1.27061e-06
1.27061e-06
1.27061e-06
1.27061e-06
1.27061e-06
1.27061e-06
1.27496e-06
1.27497e-06
1.27429e-06
1.27061e-06
1.27061e-06
1.27061e-06
1.27061e-06
1.27061e-06
1.27061e-06
1.27496e-06
1.27696e-06
1.27639e-06
1.27397e-06
1.27061e-06
1.27061e-06
1.27061e-06
1.27061e-06
1.27472e-06
1.27495e-06
1.27688e-06
1.27666e-06
1.2748e-06
1.27489e-06
1.27498e-06
1.27496e-06
1.27496e-06
1.27495e-06
1.27687e-06
1.27685e-06
1.27664e-06
1.27497e-06
1.27696e-06
1.27688e-06
1.25785e-06
1.25768e-06
1.2575e-06
1.25536e-06
1.25524e-06
1.25516e-06
1.25534e-06
1.25745e-06
1.25772e-06
1.2575e-06
1.25466e-06
1.25167e-06
1.25167e-06
1.25167e-06
1.25167e-06
1.25503e-06
1.25586e-06
1.25536e-06
1.25167e-06
1.25167e-06
1.25167e-06
1.25167e-06
1.25167e-06
1.25167e-06
1.25595e-06
1.25791e-06
1.25785e-06
1.25524e-06
1.25167e-06
1.25167e-06
1.25167e-06
1.25167e-06
1.25167e-06
1.25167e-06
1.25604e-06
1.2577e-06
1.25768e-06
1.25516e-06
1.25167e-06
1.25167e-06
1.25167e-06
1.25167e-06
1.25167e-06
1.25167e-06
1.25602e-06
1.25603e-06
1.25534e-06
1.25167e-06
1.25167e-06
1.25167e-06
1.25167e-06
1.25167e-06
1.25167e-06
1.25601e-06
1.25802e-06
1.25745e-06
1.25503e-06
1.25167e-06
1.25167e-06
1.25167e-06
1.25167e-06
1.25578e-06
1.25601e-06
1.25794e-06
1.25772e-06
1.25586e-06
1.25595e-06
1.25604e-06
1.25602e-06
1.25601e-06
1.25601e-06
1.25793e-06
1.25791e-06
1.2577e-06
1.25603e-06
1.25802e-06
1.25794e-06
1.23891e-06
1.23874e-06
1.23856e-06
1.23642e-06
1.2363e-06
1.23622e-06
1.2364e-06
1.23851e-06
1.23877e-06
1.23856e-06
1.23572e-06
1.23272e-06
1.23272e-06
1.23272e-06
1.23272e-06
1.23609e-06
1.23691e-06
1.23642e-06
1.23272e-06
1.23272e-06
1.23272e-06
1.23272e-06
1.23272e-06
1.23272e-06
1.23701e-06
1.23897e-06
1.23891e-06
1.2363e-06
1.23272e-06
1.23272e-06
1.23272e-06
1.23272e-06
1.23272e-06
1.23272e-06
1.2371e-06
1.23876e-06
1.23874e-06
1.23622e-06
1.23272e-06
1.23272e-06
1.23272e-06
1.23272e-06
1.23272e-06
1.23272e-06
1.23708e-06
1.23709e-06
1.2364e-06
1.23272e-06
1.23272e-06
1.23272e-06
1.23272e-06
1.23272e-06
1.23272e-06
1.23707e-06
1.23908e-06
1.23851e-06
1.23609e-06
1.23272e-06
1.23272e-06
1.23272e-06
1.23272e-06
1.23684e-06
1.23706e-06