/*--------------------------------*- C++ -*----------------------------------*\
| =========                 |                                                 |
| \\      /  F ield         | OpenFOAM: The Open Source CFD Toolbox           |
|  \\    /   O peration     | Version:  v2012                                 |
|   \\  /    A nd           | Website:  www.openfoam.com                      |
|    \\/     M anipulation  |                                                 |
\*---------------------------------------------------------------------------*/
FoamFile
{
    version     2.0;
    format      ascii;
    class       volScalarField;
    location    "80.5";
    object      p;
}
// * * * * * * * * * * * * * * * * * * * * * * * * * * * * * * * * * * * * * //

dimensions      [0 2 -2 0 0 0 0];


internalField   nonuniform List<scalar> 
247104
(
9.34022e-07
9.33987e-07
9.33981e-07
9.33944e-07
9.3392e-07
9.33949e-07
9.33982e-07
9.33977e-07
9.33987e-07
9.33965e-07
9.33806e-07
9.33652e-07
9.33598e-07
9.33667e-07
9.33828e-07
9.33977e-07
9.33981e-07
9.33806e-07
9.33526e-07
9.33314e-07
9.33244e-07
9.33334e-07
9.33559e-07
9.33838e-07
9.33983e-07
9.33944e-07
9.33652e-07
9.33314e-07
9.33074e-07
9.32996e-07
9.33096e-07
9.33353e-07
9.33695e-07
9.33965e-07
9.34022e-07
9.3392e-07
9.33597e-07
9.33244e-07
9.32996e-07
9.32916e-07
9.33019e-07
9.33284e-07
9.33644e-07
9.33946e-07
9.33949e-07
9.33667e-07
9.33334e-07
9.33096e-07
9.33019e-07
9.33118e-07
9.33372e-07
9.33709e-07
9.33968e-07
9.33982e-07
9.33828e-07
9.33559e-07
9.33353e-07
9.33284e-07
9.33372e-07
9.33592e-07
9.33859e-07
9.33981e-07
9.33977e-07
9.33977e-07
9.33838e-07
9.33695e-07
9.33644e-07
9.3371e-07
9.33859e-07
9.33986e-07
9.33983e-07
9.33964e-07
9.33946e-07
9.33968e-07
9.33981e-07
9.21014e-07
9.20965e-07
9.20721e-07
9.20041e-07
9.19998e-07
9.1997e-07
9.20036e-07
9.20801e-07
9.20804e-07
9.20721e-07
9.19695e-07
9.18443e-07
9.18447e-07
9.18447e-07
9.18443e-07
9.19868e-07
9.20239e-07
9.20041e-07
9.18443e-07
9.18446e-07
9.1846e-07
9.1846e-07
9.18446e-07
9.18443e-07
9.20337e-07
9.21043e-07
9.21014e-07
9.19998e-07
9.18448e-07
9.1846e-07
9.18472e-07
9.18472e-07
9.1846e-07
9.18447e-07
9.2037e-07
9.20985e-07
9.20965e-07
9.1997e-07
9.18448e-07
9.1846e-07
9.18472e-07
9.18472e-07
9.1846e-07
9.18447e-07
9.20353e-07
9.20383e-07
9.20036e-07
9.18443e-07
9.18446e-07
9.1846e-07
9.1846e-07
9.18446e-07
9.18443e-07
9.20357e-07
9.2111e-07
9.20801e-07
9.19868e-07
9.18443e-07
9.18448e-07
9.18448e-07
9.18443e-07
9.20156e-07
9.20321e-07
9.20993e-07
9.20804e-07
9.20239e-07
9.20337e-07
9.2037e-07
9.20353e-07
9.20357e-07
9.20322e-07
9.20942e-07
9.21043e-07
9.20985e-07
9.20383e-07
9.21111e-07
9.20993e-07
9.11129e-07
9.11099e-07
9.10946e-07
9.1022e-07
9.10157e-07
9.10128e-07
9.10212e-07
9.11026e-07
9.11051e-07
9.10946e-07
9.09865e-07
9.08576e-07
9.08578e-07
9.08579e-07
9.08576e-07
9.10022e-07
9.10426e-07
9.1022e-07
9.08576e-07
9.08579e-07
9.08586e-07
9.08586e-07
9.08578e-07
9.08576e-07
9.10495e-07
9.11234e-07
9.11129e-07
9.10157e-07
9.08579e-07
9.08586e-07
9.08593e-07
9.08593e-07
9.08586e-07
9.08579e-07
9.10509e-07
9.11127e-07
9.11099e-07
9.10128e-07
9.08579e-07
9.08586e-07
9.08593e-07
9.08593e-07
9.08586e-07
9.08579e-07
9.10488e-07
9.10553e-07
9.10212e-07
9.08576e-07
9.08578e-07
9.08586e-07
9.08586e-07
9.08578e-07
9.08576e-07
9.10509e-07
9.11276e-07
9.11026e-07
9.10022e-07
9.08576e-07
9.08578e-07
9.08579e-07
9.08576e-07
9.10294e-07
9.10503e-07
9.11213e-07
9.11051e-07
9.10426e-07
9.10495e-07
9.10509e-07
9.10488e-07
9.10509e-07
9.10503e-07
9.11187e-07
9.11234e-07
9.11127e-07
9.10552e-07
9.11276e-07
9.11214e-07
9.01298e-07
9.01268e-07
9.01115e-07
9.00386e-07
9.00322e-07
9.00294e-07
9.00379e-07
9.01195e-07
9.0122e-07
9.01115e-07
9.00031e-07
8.98734e-07
8.98735e-07
8.98735e-07
8.98734e-07
9.00187e-07
9.00593e-07
9.00386e-07
8.98734e-07
8.98736e-07
8.98739e-07
8.98739e-07
8.98736e-07
8.98734e-07
9.00659e-07
9.01402e-07
9.01298e-07
9.00322e-07
8.98735e-07
8.98739e-07
8.98742e-07
8.98742e-07
8.98739e-07
8.98735e-07
9.00671e-07
9.01296e-07
9.01268e-07
9.00294e-07
8.98735e-07
8.98739e-07
8.98742e-07
8.98742e-07
8.98739e-07
8.98735e-07
9.0065e-07
9.0072e-07
9.00379e-07
8.98734e-07
8.98736e-07
8.98739e-07
8.98739e-07
8.98736e-07
8.98734e-07
9.00673e-07
9.01445e-07
9.01195e-07
9.00187e-07
8.98734e-07
8.98735e-07
8.98735e-07
8.98734e-07
9.00456e-07
9.00669e-07
9.0138e-07
9.0122e-07
9.00593e-07
9.00659e-07
9.00671e-07
9.0065e-07
9.00673e-07
9.00669e-07
9.01357e-07
9.01402e-07
9.01296e-07
9.0072e-07
9.01445e-07
9.0138e-07
8.9146e-07
8.9143e-07
8.91277e-07
8.90548e-07
8.90484e-07
8.90456e-07
8.90541e-07
8.91357e-07
8.91382e-07
8.91277e-07
8.90193e-07
8.88894e-07
8.88895e-07
8.88895e-07
8.88894e-07
8.90348e-07
8.90755e-07
8.90548e-07
8.88894e-07
8.88896e-07
8.88897e-07
8.88897e-07
8.88896e-07
8.88894e-07
8.90821e-07
8.91565e-07
8.9146e-07
8.90484e-07
8.88895e-07
8.88897e-07
8.88898e-07
8.88898e-07
8.88897e-07
8.88895e-07
8.90832e-07
8.91458e-07
8.9143e-07
8.90456e-07
8.88895e-07
8.88897e-07
8.88898e-07
8.88898e-07
8.88897e-07
8.88895e-07
8.9081e-07
8.90882e-07
8.90541e-07
8.88894e-07
8.88896e-07
8.88897e-07
8.88897e-07
8.88896e-07
8.88894e-07
8.90834e-07
8.91607e-07
8.91357e-07
8.90348e-07
8.88894e-07
8.88895e-07
8.88895e-07
8.88894e-07
8.90617e-07
8.90831e-07
8.91542e-07
8.91382e-07
8.90755e-07
8.90821e-07
8.90832e-07
8.9081e-07
8.90834e-07
8.90831e-07
8.91519e-07
8.91564e-07
8.91458e-07
8.90882e-07
8.91607e-07
8.91542e-07
8.81621e-07
8.81591e-07
8.81438e-07
8.80709e-07
8.80645e-07
8.80617e-07
8.80702e-07
8.81519e-07
8.81544e-07
8.81438e-07
8.80355e-07
8.79055e-07
8.79056e-07
8.79056e-07
8.79055e-07
8.80509e-07
8.80917e-07
8.80709e-07
8.79055e-07
8.79057e-07
8.79057e-07
8.79057e-07
8.79057e-07
8.79055e-07
8.80982e-07
8.81726e-07
8.81621e-07
8.80645e-07
8.79056e-07
8.79057e-07
8.79058e-07
8.79058e-07
8.79057e-07
8.79056e-07
8.80993e-07
8.81619e-07
8.81591e-07
8.80617e-07
8.79056e-07
8.79057e-07
8.79058e-07
8.79058e-07
8.79057e-07
8.79056e-07
8.80972e-07
8.81044e-07
8.80702e-07
8.79055e-07
8.79057e-07
8.79057e-07
8.79057e-07
8.79057e-07
8.79055e-07
8.80996e-07
8.81769e-07
8.81519e-07
8.80509e-07
8.79055e-07
8.79056e-07
8.79056e-07
8.79055e-07
8.80779e-07
8.80993e-07
8.81704e-07
8.81544e-07
8.80917e-07
8.80982e-07
8.80993e-07
8.80972e-07
8.80996e-07
8.80993e-07
8.81681e-07
8.81726e-07
8.81619e-07
8.81044e-07
8.81769e-07
8.81704e-07
8.71783e-07
8.71753e-07
8.716e-07
8.70871e-07
8.70807e-07
8.70779e-07
8.70863e-07
8.7168e-07
8.71705e-07
8.716e-07
8.70516e-07
8.69217e-07
8.69217e-07
8.69217e-07
8.69217e-07
8.70671e-07
8.71078e-07
8.70871e-07
8.69217e-07
8.69218e-07
8.69218e-07
8.69218e-07
8.69218e-07
8.69217e-07
8.71144e-07
8.71888e-07
8.71783e-07
8.70807e-07
8.69217e-07
8.69218e-07
8.69218e-07
8.69218e-07
8.69218e-07
8.69217e-07
8.71155e-07
8.71781e-07
8.71753e-07
8.70779e-07
8.69217e-07
8.69218e-07
8.69218e-07
8.69218e-07
8.69218e-07
8.69217e-07
8.71133e-07
8.71205e-07
8.70863e-07
8.69217e-07
8.69218e-07
8.69218e-07
8.69218e-07
8.69218e-07
8.69217e-07
8.71157e-07
8.7193e-07
8.7168e-07
8.70671e-07
8.69217e-07
8.69217e-07
8.69217e-07
8.69217e-07
8.7094e-07
8.71154e-07
8.71865e-07
8.71705e-07
8.71078e-07
8.71144e-07
8.71155e-07
8.71133e-07
8.71157e-07
8.71154e-07
8.71843e-07
8.71888e-07
8.71781e-07
8.71205e-07
8.7193e-07
8.71865e-07
8.61944e-07
8.61915e-07
8.61761e-07
8.61032e-07
8.60968e-07
8.6094e-07
8.61025e-07
8.61842e-07
8.61867e-07
8.61761e-07
8.60678e-07
8.59378e-07
8.59379e-07
8.59378e-07
8.59378e-07
8.60833e-07
8.6124e-07
8.61032e-07
8.59378e-07
8.5938e-07
8.59379e-07
8.59379e-07
8.5938e-07
8.59378e-07
8.61305e-07
8.6205e-07
8.61944e-07
8.60968e-07
8.59378e-07
8.59379e-07
8.59379e-07
8.59379e-07
8.59379e-07
8.59378e-07
8.61316e-07
8.61943e-07
8.61914e-07
8.6094e-07
8.59378e-07
8.59379e-07
8.59379e-07
8.59379e-07
8.59379e-07
8.59379e-07
8.61295e-07
8.61367e-07
8.61025e-07
8.59378e-07
8.5938e-07
8.59379e-07
8.59379e-07
8.5938e-07
8.59378e-07
8.61319e-07
8.62092e-07
8.61842e-07
8.60832e-07
8.59378e-07
8.59378e-07
8.59378e-07
8.59378e-07
8.61102e-07
8.61316e-07
8.62027e-07
8.61867e-07
8.6124e-07
8.61305e-07
8.61316e-07
8.61295e-07
8.61319e-07
8.61316e-07
8.62004e-07
8.62049e-07
8.61942e-07
8.61367e-07
8.62092e-07
8.62027e-07
8.52106e-07
8.52076e-07
8.51923e-07
8.51194e-07
8.5113e-07
8.51102e-07
8.51187e-07
8.52003e-07
8.52029e-07
8.51923e-07
8.50839e-07
8.4954e-07
8.4954e-07
8.4954e-07
8.4954e-07
8.50994e-07
8.51401e-07
8.51194e-07
8.4954e-07
8.49541e-07
8.49541e-07
8.49541e-07
8.49541e-07
8.4954e-07
8.51467e-07
8.52211e-07
8.52106e-07
8.5113e-07
8.4954e-07
8.49541e-07
8.49541e-07
8.4954e-07
8.49541e-07
8.4954e-07
8.51478e-07
8.52104e-07
8.52076e-07
8.51102e-07
8.4954e-07
8.49541e-07
8.4954e-07
8.4954e-07
8.49541e-07
8.4954e-07
8.51456e-07
8.51528e-07
8.51187e-07
8.4954e-07
8.49541e-07
8.49541e-07
8.49541e-07
8.49541e-07
8.4954e-07
8.5148e-07
8.52254e-07
8.52003e-07
8.50994e-07
8.4954e-07
8.4954e-07
8.4954e-07
8.4954e-07
8.51263e-07
8.51477e-07
8.52188e-07
8.52029e-07
8.51401e-07
8.51467e-07
8.51478e-07
8.51456e-07
8.5148e-07
8.51477e-07
8.52166e-07
8.52211e-07
8.52104e-07
8.51528e-07
8.52253e-07
8.52188e-07
8.42267e-07
8.42238e-07
8.42084e-07
8.41356e-07
8.41292e-07
8.41263e-07
8.41348e-07
8.42165e-07
8.4219e-07
8.42084e-07
8.41001e-07
8.39701e-07
8.39702e-07
8.39702e-07
8.39701e-07
8.41156e-07
8.41563e-07
8.41356e-07
8.39701e-07
8.39703e-07
8.39702e-07
8.39702e-07
8.39703e-07
8.39701e-07
8.41629e-07
8.42373e-07
8.42267e-07
8.41291e-07
8.39702e-07
8.39702e-07
8.39702e-07
8.39702e-07
8.39702e-07
8.39702e-07
8.41639e-07
8.42266e-07
8.42238e-07
8.41263e-07
8.39702e-07
8.39702e-07
8.39702e-07
8.39702e-07
8.39702e-07
8.39702e-07
8.41618e-07
8.4169e-07
8.41348e-07
8.39701e-07
8.39703e-07
8.39702e-07
8.39702e-07
8.39703e-07
8.39701e-07
8.41642e-07
8.42415e-07
8.42165e-07
8.41156e-07
8.39701e-07
8.39702e-07
8.39702e-07
8.39701e-07
8.41425e-07
8.41639e-07
8.4235e-07
8.4219e-07
8.41563e-07
8.41629e-07
8.41639e-07
8.41618e-07
8.41642e-07
8.41639e-07
8.42328e-07
8.42373e-07
8.42266e-07
8.4169e-07
8.42415e-07
8.4235e-07
8.32429e-07
8.32399e-07
8.32246e-07
8.31517e-07
8.31453e-07
8.31425e-07
8.3151e-07
8.32326e-07
8.32352e-07
8.32246e-07
8.31162e-07
8.29863e-07
8.29863e-07
8.29863e-07
8.29863e-07
8.31317e-07
8.31725e-07
8.31517e-07
8.29863e-07
8.29864e-07
8.29864e-07
8.29864e-07
8.29864e-07
8.29863e-07
8.3179e-07
8.32534e-07
8.32429e-07
8.31453e-07
8.29863e-07
8.29864e-07
8.29863e-07
8.29863e-07
8.29864e-07
8.29863e-07
8.31801e-07
8.32427e-07
8.32399e-07
8.31425e-07
8.29863e-07
8.29864e-07
8.29863e-07
8.29863e-07
8.29864e-07
8.29863e-07
8.31779e-07
8.31851e-07
8.3151e-07
8.29863e-07
8.29864e-07
8.29864e-07
8.29864e-07
8.29864e-07
8.29863e-07
8.31803e-07
8.32577e-07
8.32326e-07
8.31317e-07
8.29863e-07
8.29863e-07
8.29863e-07
8.29863e-07
8.31586e-07
8.318e-07
8.32512e-07
8.32352e-07
8.31725e-07
8.3179e-07
8.31801e-07
8.31779e-07
8.31803e-07
8.31801e-07
8.32489e-07
8.32534e-07
8.32427e-07
8.31851e-07
8.32577e-07
8.32512e-07
8.2259e-07
8.22561e-07
8.22408e-07
8.21679e-07
8.21615e-07
8.21587e-07
8.21671e-07
8.22488e-07
8.22513e-07
8.22408e-07
8.21324e-07
8.20024e-07
8.20025e-07
8.20025e-07
8.20024e-07
8.21479e-07
8.21886e-07
8.21679e-07
8.20024e-07
8.20026e-07
8.20025e-07
8.20025e-07
8.20026e-07
8.20024e-07
8.21952e-07
8.22696e-07
8.2259e-07
8.21615e-07
8.20025e-07
8.20025e-07
8.20025e-07
8.20025e-07
8.20025e-07
8.20025e-07
8.21962e-07
8.22589e-07
8.22561e-07
8.21586e-07
8.20025e-07
8.20025e-07
8.20025e-07
8.20025e-07
8.20025e-07
8.20025e-07
8.21941e-07
8.22013e-07
8.21671e-07
8.20024e-07
8.20026e-07
8.20025e-07
8.20025e-07
8.20026e-07
8.20024e-07
8.21965e-07
8.22738e-07
8.22488e-07
8.21479e-07
8.20024e-07
8.20025e-07
8.20025e-07
8.20024e-07
8.21748e-07
8.21962e-07
8.22673e-07
8.22513e-07
8.21886e-07
8.21952e-07
8.21962e-07
8.21941e-07
8.21965e-07
8.21962e-07
8.22651e-07
8.22696e-07
8.22589e-07
8.22013e-07
8.22738e-07
8.22673e-07
8.12752e-07
8.12722e-07
8.12569e-07
8.1184e-07
8.11776e-07
8.11748e-07
8.11833e-07
8.12649e-07
8.12675e-07
8.12569e-07
8.11486e-07
8.10186e-07
8.10186e-07
8.10186e-07
8.10186e-07
8.1164e-07
8.12048e-07
8.1184e-07
8.10186e-07
8.10187e-07
8.10187e-07
8.10187e-07
8.10187e-07
8.10186e-07
8.12113e-07
8.12857e-07
8.12752e-07
8.11776e-07
8.10186e-07
8.10187e-07
8.10186e-07
8.10186e-07
8.10187e-07
8.10186e-07
8.12124e-07
8.1275e-07
8.12722e-07
8.11748e-07
8.10186e-07
8.10187e-07
8.10186e-07
8.10186e-07
8.10187e-07
8.10186e-07
8.12102e-07
8.12174e-07
8.11833e-07
8.10186e-07
8.10187e-07
8.10187e-07
8.10187e-07
8.10187e-07
8.10186e-07
8.12126e-07
8.129e-07
8.12649e-07
8.1164e-07
8.10186e-07
8.10186e-07
8.10186e-07
8.10186e-07
8.11909e-07
8.12123e-07
8.12835e-07
8.12675e-07
8.12048e-07
8.12113e-07
8.12124e-07
8.12102e-07
8.12126e-07
8.12124e-07
8.12812e-07
8.12857e-07
8.1275e-07
8.12174e-07
8.129e-07
8.12835e-07
8.02914e-07
8.02884e-07
8.02731e-07
8.02002e-07
8.01938e-07
8.0191e-07
8.01994e-07
8.02811e-07
8.02836e-07
8.02731e-07
8.01647e-07
8.00347e-07
8.00348e-07
8.00348e-07
8.00347e-07
8.01802e-07
8.02209e-07
8.02002e-07
8.00347e-07
8.00349e-07
8.00348e-07
8.00348e-07
8.00349e-07
8.00347e-07
8.02275e-07
8.03019e-07
8.02914e-07
8.01938e-07
8.00348e-07
8.00348e-07
8.00348e-07
8.00348e-07
8.00348e-07
8.00348e-07
8.02285e-07
8.02912e-07
8.02884e-07
8.0191e-07
8.00348e-07
8.00348e-07
8.00348e-07
8.00348e-07
8.00348e-07
8.00348e-07
8.02264e-07
8.02336e-07
8.01994e-07
8.00347e-07
8.00349e-07
8.00348e-07
8.00348e-07
8.00349e-07
8.00347e-07
8.02288e-07
8.03061e-07
8.02811e-07
8.01802e-07
8.00347e-07
8.00348e-07
8.00348e-07
8.00347e-07
8.02071e-07
8.02285e-07
8.02996e-07
8.02836e-07
8.02209e-07
8.02275e-07
8.02285e-07
8.02264e-07
8.02288e-07
8.02285e-07
8.02974e-07
8.03019e-07
8.02912e-07
8.02336e-07
8.03061e-07
8.02996e-07
7.93075e-07
7.93045e-07
7.92892e-07
7.92163e-07
7.92099e-07
7.92071e-07
7.92156e-07
7.92973e-07
7.92998e-07
7.92892e-07
7.91809e-07
7.90509e-07
7.90509e-07
7.90509e-07
7.90509e-07
7.91963e-07
7.92371e-07
7.92163e-07
7.90509e-07
7.9051e-07
7.9051e-07
7.9051e-07
7.9051e-07
7.90509e-07
7.92436e-07
7.9318e-07
7.93075e-07
7.92099e-07
7.90509e-07
7.9051e-07
7.9051e-07
7.9051e-07
7.9051e-07
7.90509e-07
7.92447e-07
7.93073e-07
7.93045e-07
7.92071e-07
7.90509e-07
7.9051e-07
7.9051e-07
7.9051e-07
7.9051e-07
7.90509e-07
7.92425e-07
7.92498e-07
7.92156e-07
7.90509e-07
7.9051e-07
7.9051e-07
7.9051e-07
7.9051e-07
7.90509e-07
7.92449e-07
7.93223e-07
7.92972e-07
7.91963e-07
7.90509e-07
7.90509e-07
7.90509e-07
7.90509e-07
7.92233e-07
7.92447e-07
7.93158e-07
7.92998e-07
7.92371e-07
7.92436e-07
7.92447e-07
7.92425e-07
7.92449e-07
7.92447e-07
7.93135e-07
7.9318e-07
7.93073e-07
7.92497e-07
7.93223e-07
7.93158e-07
7.83237e-07
7.83207e-07
7.83054e-07
7.82325e-07
7.82261e-07
7.82233e-07
7.82317e-07
7.83134e-07
7.83159e-07
7.83054e-07
7.8197e-07
7.80671e-07
7.80671e-07
7.80671e-07
7.80671e-07
7.82125e-07
7.82532e-07
7.82325e-07
7.80671e-07
7.80672e-07
7.80671e-07
7.80671e-07
7.80672e-07
7.80671e-07
7.82598e-07
7.83342e-07
7.83237e-07
7.82261e-07
7.80671e-07
7.80671e-07
7.80671e-07
7.80671e-07
7.80671e-07
7.80671e-07
7.82608e-07
7.83235e-07
7.83207e-07
7.82233e-07
7.80671e-07
7.80671e-07
7.80671e-07
7.80671e-07
7.80671e-07
7.80671e-07
7.82587e-07
7.82659e-07
7.82317e-07
7.80671e-07
7.80672e-07
7.80671e-07
7.80671e-07
7.80672e-07
7.80671e-07
7.82611e-07
7.83384e-07
7.83134e-07
7.82125e-07
7.80671e-07
7.80671e-07
7.80671e-07
7.80671e-07
7.82394e-07
7.82608e-07
7.83319e-07
7.83159e-07
7.82532e-07
7.82598e-07
7.82608e-07
7.82587e-07
7.82611e-07
7.82608e-07
7.83297e-07
7.83342e-07
7.83235e-07
7.82659e-07
7.83384e-07
7.83319e-07
7.73398e-07
7.73368e-07
7.73215e-07
7.72486e-07
7.72422e-07
7.72394e-07
7.72479e-07
7.73296e-07
7.73321e-07
7.73215e-07
7.72132e-07
7.70832e-07
7.70832e-07
7.70832e-07
7.70832e-07
7.72286e-07
7.72694e-07
7.72486e-07
7.70832e-07
7.70834e-07
7.70833e-07
7.70833e-07
7.70834e-07
7.70832e-07
7.72759e-07
7.73503e-07
7.73398e-07
7.72422e-07
7.70832e-07
7.70833e-07
7.70833e-07
7.70833e-07
7.70833e-07
7.70832e-07
7.7277e-07
7.73396e-07
7.73368e-07
7.72394e-07
7.70832e-07
7.70833e-07
7.70833e-07
7.70833e-07
7.70833e-07
7.70832e-07
7.72748e-07
7.72821e-07
7.72479e-07
7.70832e-07
7.70834e-07
7.70833e-07
7.70833e-07
7.70834e-07
7.70832e-07
7.72772e-07
7.73546e-07
7.73296e-07
7.72286e-07
7.70832e-07
7.70832e-07
7.70832e-07
7.70832e-07
7.72556e-07
7.7277e-07
7.73481e-07
7.73321e-07
7.72694e-07
7.72759e-07
7.7277e-07
7.72748e-07
7.72772e-07
7.7277e-07
7.73458e-07
7.73503e-07
7.73396e-07
7.72821e-07
7.73546e-07
7.73481e-07
7.6356e-07
7.6353e-07
7.63377e-07
7.62648e-07
7.62584e-07
7.62556e-07
7.62641e-07
7.63457e-07
7.63482e-07
7.63377e-07
7.62293e-07
7.60994e-07
7.60994e-07
7.60994e-07
7.60994e-07
7.62448e-07
7.62855e-07
7.62648e-07
7.60994e-07
7.60995e-07
7.60994e-07
7.60994e-07
7.60995e-07
7.60994e-07
7.62921e-07
7.63665e-07
7.6356e-07
7.62584e-07
7.60994e-07
7.60994e-07
7.60994e-07
7.60994e-07
7.60994e-07
7.60994e-07
7.62932e-07
7.63558e-07
7.6353e-07
7.62556e-07
7.60994e-07
7.60994e-07
7.60994e-07
7.60994e-07
7.60994e-07
7.60994e-07
7.6291e-07
7.62982e-07
7.6264e-07
7.60994e-07
7.60995e-07
7.60994e-07
7.60994e-07
7.60995e-07
7.60994e-07
7.62934e-07
7.63707e-07
7.63457e-07
7.62448e-07
7.60994e-07
7.60994e-07
7.60994e-07
7.60994e-07
7.62717e-07
7.62931e-07
7.63642e-07
7.63482e-07
7.62855e-07
7.62921e-07
7.62931e-07
7.6291e-07
7.62934e-07
7.62931e-07
7.6362e-07
7.63665e-07
7.63558e-07
7.62982e-07
7.63707e-07
7.63642e-07
7.53721e-07
7.53691e-07
7.53538e-07
7.52809e-07
7.52745e-07
7.52717e-07
7.52802e-07
7.53619e-07
7.53644e-07
7.53538e-07
7.52455e-07
7.51155e-07
7.51155e-07
7.51155e-07
7.51155e-07
7.52609e-07
7.53017e-07
7.52809e-07
7.51155e-07
7.51157e-07
7.51156e-07
7.51156e-07
7.51157e-07
7.51155e-07
7.53082e-07
7.53826e-07
7.53721e-07
7.52745e-07
7.51155e-07
7.51156e-07
7.51156e-07
7.51156e-07
7.51156e-07
7.51155e-07
7.53093e-07
7.53719e-07
7.53691e-07
7.52717e-07
7.51155e-07
7.51156e-07
7.51156e-07
7.51156e-07
7.51156e-07
7.51155e-07
7.53072e-07
7.53144e-07
7.52802e-07
7.51155e-07
7.51157e-07
7.51156e-07
7.51156e-07
7.51157e-07
7.51155e-07
7.53095e-07
7.53869e-07
7.53619e-07
7.52609e-07
7.51155e-07
7.51155e-07
7.51155e-07
7.51155e-07
7.52879e-07
7.53093e-07
7.53804e-07
7.53644e-07
7.53017e-07
7.53082e-07
7.53093e-07
7.53072e-07
7.53096e-07
7.53093e-07
7.53781e-07
7.53826e-07
7.53719e-07
7.53144e-07
7.53869e-07
7.53804e-07
7.43883e-07
7.43853e-07
7.437e-07
7.42971e-07
7.42907e-07
7.42879e-07
7.42964e-07
7.4378e-07
7.43805e-07
7.437e-07
7.42616e-07
7.41317e-07
7.41317e-07
7.41317e-07
7.41317e-07
7.42771e-07
7.43178e-07
7.42971e-07
7.41317e-07
7.41318e-07
7.41317e-07
7.41317e-07
7.41318e-07
7.41317e-07
7.43244e-07
7.43988e-07
7.43883e-07
7.42907e-07
7.41317e-07
7.41317e-07
7.41317e-07
7.41317e-07
7.41317e-07
7.41317e-07
7.43255e-07
7.43881e-07
7.43853e-07
7.42879e-07
7.41317e-07
7.41317e-07
7.41317e-07
7.41317e-07
7.41317e-07
7.41317e-07
7.43233e-07
7.43305e-07
7.42964e-07
7.41317e-07
7.41318e-07
7.41317e-07
7.41317e-07
7.41318e-07
7.41317e-07
7.43257e-07
7.4403e-07
7.4378e-07
7.42771e-07
7.41317e-07
7.41317e-07
7.41317e-07
7.41317e-07
7.4304e-07
7.43254e-07
7.43965e-07
7.43805e-07
7.43178e-07
7.43244e-07
7.43255e-07
7.43233e-07
7.43257e-07
7.43254e-07
7.43943e-07
7.43988e-07
7.43881e-07
7.43305e-07
7.4403e-07
7.43965e-07
7.34044e-07
7.34015e-07
7.33861e-07
7.33133e-07
7.33068e-07
7.3304e-07
7.33125e-07
7.33942e-07
7.33967e-07
7.33861e-07
7.32778e-07
7.31478e-07
7.31478e-07
7.31478e-07
7.31478e-07
7.32933e-07
7.3334e-07
7.33132e-07
7.31478e-07
7.3148e-07
7.31479e-07
7.31479e-07
7.3148e-07
7.31478e-07
7.33405e-07
7.3415e-07
7.34044e-07
7.33068e-07
7.31478e-07
7.31479e-07
7.31479e-07
7.31479e-07
7.31479e-07
7.31478e-07
7.33416e-07
7.34043e-07
7.34014e-07
7.3304e-07
7.31478e-07
7.31479e-07
7.31479e-07
7.31479e-07
7.31479e-07
7.31478e-07
7.33395e-07
7.33467e-07
7.33125e-07
7.31478e-07
7.3148e-07
7.31479e-07
7.31479e-07
7.3148e-07
7.31478e-07
7.33419e-07
7.34192e-07
7.33942e-07
7.32933e-07
7.31478e-07
7.31478e-07
7.31478e-07
7.31478e-07
7.33202e-07
7.33416e-07
7.34127e-07
7.33967e-07
7.3334e-07
7.33405e-07
7.33416e-07
7.33395e-07
7.33419e-07
7.33416e-07
7.34104e-07
7.34149e-07
7.34043e-07
7.33467e-07
7.34192e-07
7.34127e-07
7.24206e-07
7.24176e-07
7.24023e-07
7.23294e-07
7.2323e-07
7.23202e-07
7.23287e-07
7.24103e-07
7.24129e-07
7.24023e-07
7.22939e-07
7.2164e-07
7.2164e-07
7.2164e-07
7.2164e-07
7.23094e-07
7.23501e-07
7.23294e-07
7.2164e-07
7.21641e-07
7.21641e-07
7.21641e-07
7.21641e-07
7.2164e-07
7.23567e-07
7.24311e-07
7.24206e-07
7.2323e-07
7.2164e-07
7.21641e-07
7.2164e-07
7.2164e-07
7.21641e-07
7.2164e-07
7.23578e-07
7.24204e-07
7.24176e-07
7.23202e-07
7.2164e-07
7.21641e-07
7.2164e-07
7.2164e-07
7.21641e-07
7.2164e-07
7.23556e-07
7.23628e-07
7.23287e-07
7.2164e-07
7.21641e-07
7.21641e-07
7.21641e-07
7.21641e-07
7.2164e-07
7.2358e-07
7.24354e-07
7.24103e-07
7.23094e-07
7.2164e-07
7.2164e-07
7.2164e-07
7.2164e-07
7.23363e-07
7.23577e-07
7.24289e-07
7.24129e-07
7.23501e-07
7.23567e-07
7.23578e-07
7.23556e-07
7.2358e-07
7.23578e-07
7.24266e-07
7.24311e-07
7.24204e-07
7.23628e-07
7.24354e-07
7.24289e-07
7.14367e-07
7.14338e-07
7.14185e-07
7.13456e-07
7.13392e-07
7.13363e-07
7.13448e-07
7.14265e-07
7.1429e-07
7.14185e-07
7.13101e-07
7.11801e-07
7.11802e-07
7.11802e-07
7.11801e-07
7.13256e-07
7.13663e-07
7.13456e-07
7.11801e-07
7.11803e-07
7.11802e-07
7.11802e-07
7.11803e-07
7.11801e-07
7.13729e-07
7.14473e-07
7.14367e-07
7.13392e-07
7.11802e-07
7.11802e-07
7.11802e-07
7.11802e-07
7.11802e-07
7.11802e-07
7.13739e-07
7.14366e-07
7.14338e-07
7.13363e-07
7.11802e-07
7.11802e-07
7.11802e-07
7.11802e-07
7.11802e-07
7.11802e-07
7.13718e-07
7.1379e-07
7.13448e-07
7.11801e-07
7.11803e-07
7.11802e-07
7.11802e-07
7.11803e-07
7.11801e-07
7.13742e-07
7.14515e-07
7.14265e-07
7.13256e-07
7.11801e-07
7.11802e-07
7.11802e-07
7.11801e-07
7.13525e-07
7.13739e-07
7.1445e-07
7.1429e-07
7.13663e-07
7.13729e-07
7.13739e-07
7.13718e-07
7.13742e-07
7.13739e-07
7.14428e-07
7.14473e-07
7.14366e-07
7.1379e-07
7.14515e-07
7.1445e-07
7.04529e-07
7.04499e-07
7.04346e-07
7.03617e-07
7.03553e-07
7.03525e-07
7.0361e-07
7.04426e-07
7.04452e-07
7.04346e-07
7.03263e-07
7.01963e-07
7.01963e-07
7.01963e-07
7.01963e-07
7.03417e-07
7.03825e-07
7.03617e-07
7.01963e-07
7.01964e-07
7.01964e-07
7.01964e-07
7.01964e-07
7.01963e-07
7.0389e-07
7.04634e-07
7.04529e-07
7.03553e-07
7.01963e-07
7.01964e-07
7.01963e-07
7.01963e-07
7.01964e-07
7.01963e-07
7.03901e-07
7.04527e-07
7.04499e-07
7.03525e-07
7.01963e-07
7.01964e-07
7.01963e-07
7.01963e-07
7.01964e-07
7.01963e-07
7.03879e-07
7.03951e-07
7.0361e-07
7.01963e-07
7.01964e-07
7.01964e-07
7.01964e-07
7.01964e-07
7.01963e-07
7.03903e-07
7.04677e-07
7.04426e-07
7.03417e-07
7.01963e-07
7.01963e-07
7.01963e-07
7.01963e-07
7.03686e-07
7.039e-07
7.04612e-07
7.04452e-07
7.03825e-07
7.0389e-07
7.03901e-07
7.03879e-07
7.03903e-07
7.03901e-07
7.04589e-07
7.04634e-07
7.04527e-07
7.03951e-07
7.04677e-07
7.04612e-07
6.94691e-07
6.94661e-07
6.94508e-07
6.93779e-07
6.93715e-07
6.93687e-07
6.93771e-07
6.94588e-07
6.94613e-07
6.94508e-07
6.93424e-07
6.92124e-07
6.92125e-07
6.92125e-07
6.92124e-07
6.93579e-07
6.93986e-07
6.93779e-07
6.92124e-07
6.92126e-07
6.92125e-07
6.92125e-07
6.92126e-07
6.92124e-07
6.94052e-07
6.94796e-07
6.94691e-07
6.93715e-07
6.92125e-07
6.92125e-07
6.92125e-07
6.92125e-07
6.92125e-07
6.92125e-07
6.94062e-07
6.94689e-07
6.94661e-07
6.93687e-07
6.92125e-07
6.92125e-07
6.92125e-07
6.92125e-07
6.92125e-07
6.92125e-07
6.94041e-07
6.94113e-07
6.93771e-07
6.92124e-07
6.92126e-07
6.92125e-07
6.92125e-07
6.92126e-07
6.92124e-07
6.94065e-07
6.94838e-07
6.94588e-07
6.93579e-07
6.92124e-07
6.92125e-07
6.92125e-07
6.92125e-07
6.93848e-07
6.94062e-07
6.94773e-07
6.94613e-07
6.93986e-07
6.94052e-07
6.94062e-07
6.94041e-07
6.94065e-07
6.94062e-07
6.94751e-07
6.94796e-07
6.94689e-07
6.94113e-07
6.94838e-07
6.94773e-07
6.84852e-07
6.84822e-07
6.84669e-07
6.8394e-07
6.83876e-07
6.83848e-07
6.83933e-07
6.8475e-07
6.84775e-07
6.84669e-07
6.83586e-07
6.82286e-07
6.82286e-07
6.82286e-07
6.82286e-07
6.8374e-07
6.84148e-07
6.8394e-07
6.82286e-07
6.82288e-07
6.82287e-07
6.82287e-07
6.82288e-07
6.82286e-07
6.84213e-07
6.84957e-07
6.84852e-07
6.83876e-07
6.82286e-07
6.82287e-07
6.82287e-07
6.82287e-07
6.82287e-07
6.82286e-07
6.84224e-07
6.8485e-07
6.84822e-07
6.83848e-07
6.82286e-07
6.82287e-07
6.82287e-07
6.82287e-07
6.82287e-07
6.82286e-07
6.84202e-07
6.84275e-07
6.83933e-07
6.82286e-07
6.82288e-07
6.82287e-07
6.82287e-07
6.82288e-07
6.82286e-07
6.84226e-07
6.85e-07
6.8475e-07
6.8374e-07
6.82286e-07
6.82286e-07
6.82286e-07
6.82286e-07
6.8401e-07
6.84224e-07
6.84935e-07
6.84775e-07
6.84148e-07
6.84213e-07
6.84224e-07
6.84202e-07
6.84226e-07
6.84224e-07
6.84912e-07
6.84957e-07
6.8485e-07
6.84275e-07
6.85e-07
6.84935e-07
6.75014e-07
6.74984e-07
6.74831e-07
6.74102e-07
6.74038e-07
6.7401e-07
6.74094e-07
6.74911e-07
6.74937e-07
6.74831e-07
6.73747e-07
6.72448e-07
6.72448e-07
6.72448e-07
6.72448e-07
6.73902e-07
6.74309e-07
6.74102e-07
6.72448e-07
6.72449e-07
6.72448e-07
6.72448e-07
6.72449e-07
6.72448e-07
6.74375e-07
6.75119e-07
6.75014e-07
6.74038e-07
6.72448e-07
6.72448e-07
6.72448e-07
6.72448e-07
6.72448e-07
6.72448e-07
6.74386e-07
6.75012e-07
6.74984e-07
6.7401e-07
6.72448e-07
6.72448e-07
6.72448e-07
6.72448e-07
6.72448e-07
6.72448e-07
6.74364e-07
6.74436e-07
6.74094e-07
6.72448e-07
6.72449e-07
6.72448e-07
6.72448e-07
6.72449e-07
6.72448e-07
6.74388e-07
6.75161e-07
6.74911e-07
6.73902e-07
6.72448e-07
6.72448e-07
6.72448e-07
6.72448e-07
6.74171e-07
6.74385e-07
6.75096e-07
6.74936e-07
6.74309e-07
6.74375e-07
6.74385e-07
6.74364e-07
6.74388e-07
6.74385e-07
6.75074e-07
6.75119e-07
6.75012e-07
6.74436e-07
6.75161e-07
6.75096e-07
6.65175e-07
6.65145e-07
6.64992e-07
6.64263e-07
6.64199e-07
6.64171e-07
6.64256e-07
6.65073e-07
6.65098e-07
6.64992e-07
6.63909e-07
6.62609e-07
6.62609e-07
6.62609e-07
6.62609e-07
6.64063e-07
6.64471e-07
6.64263e-07
6.62609e-07
6.62611e-07
6.6261e-07
6.6261e-07
6.62611e-07
6.62609e-07
6.64536e-07
6.6528e-07
6.65175e-07
6.64199e-07
6.62609e-07
6.6261e-07
6.6261e-07
6.6261e-07
6.6261e-07
6.62609e-07
6.64547e-07
6.65174e-07
6.65145e-07
6.64171e-07
6.62609e-07
6.6261e-07
6.6261e-07
6.6261e-07
6.6261e-07
6.62609e-07
6.64526e-07
6.64598e-07
6.64256e-07
6.62609e-07
6.62611e-07
6.6261e-07
6.6261e-07
6.62611e-07
6.62609e-07
6.6455e-07
6.65323e-07
6.65073e-07
6.64063e-07
6.62609e-07
6.62609e-07
6.62609e-07
6.62609e-07
6.64333e-07
6.64547e-07
6.65258e-07
6.65098e-07
6.64471e-07
6.64536e-07
6.64547e-07
6.64526e-07
6.6455e-07
6.64547e-07
6.65235e-07
6.6528e-07
6.65173e-07
6.64598e-07
6.65323e-07
6.65258e-07
6.55337e-07
6.55307e-07
6.55154e-07
6.54425e-07
6.54361e-07
6.54333e-07
6.54418e-07
6.55234e-07
6.5526e-07
6.55154e-07
6.5407e-07
6.52771e-07
6.52771e-07
6.52771e-07
6.52771e-07
6.54225e-07
6.54632e-07
6.54425e-07
6.52771e-07
6.52772e-07
6.52771e-07
6.52771e-07
6.52772e-07
6.52771e-07
6.54698e-07
6.55442e-07
6.55337e-07
6.54361e-07
6.52771e-07
6.52771e-07
6.52771e-07
6.52771e-07
6.52771e-07
6.52771e-07
6.54709e-07
6.55335e-07
6.55307e-07
6.54333e-07
6.52771e-07
6.52771e-07
6.52771e-07
6.52771e-07
6.52771e-07
6.52771e-07
6.54687e-07
6.54759e-07
6.54417e-07
6.52771e-07
6.52772e-07
6.52771e-07
6.52771e-07
6.52772e-07
6.52771e-07
6.54711e-07
6.55484e-07
6.55234e-07
6.54225e-07
6.52771e-07
6.52771e-07
6.52771e-07
6.52771e-07
6.54494e-07
6.54708e-07
6.55419e-07
6.55259e-07
6.54632e-07
6.54698e-07
6.54709e-07
6.54687e-07
6.54711e-07
6.54708e-07
6.55397e-07
6.55442e-07
6.55335e-07
6.54759e-07
6.55484e-07
6.55419e-07
6.45498e-07
6.45469e-07
6.45316e-07
6.44586e-07
6.44522e-07
6.44494e-07
6.44579e-07
6.45396e-07
6.45421e-07
6.45315e-07
6.44232e-07
6.42932e-07
6.42932e-07
6.42932e-07
6.42932e-07
6.44387e-07
6.44794e-07
6.44586e-07
6.42932e-07
6.42934e-07
6.42933e-07
6.42933e-07
6.42934e-07
6.42932e-07
6.44859e-07
6.45604e-07
6.45498e-07
6.44522e-07
6.42932e-07
6.42933e-07
6.42933e-07
6.42933e-07
6.42933e-07
6.42932e-07
6.4487e-07
6.45497e-07
6.45468e-07
6.44494e-07
6.42932e-07
6.42933e-07
6.42933e-07
6.42933e-07
6.42933e-07
6.42932e-07
6.44849e-07
6.44921e-07
6.44579e-07
6.42932e-07
6.42934e-07
6.42933e-07
6.42933e-07
6.42934e-07
6.42932e-07
6.44873e-07
6.45646e-07
6.45396e-07
6.44387e-07
6.42932e-07
6.42932e-07
6.42932e-07
6.42932e-07
6.44656e-07
6.4487e-07
6.45581e-07
6.45421e-07
6.44794e-07
6.44859e-07
6.4487e-07
6.44849e-07
6.44873e-07
6.4487e-07
6.45558e-07
6.45603e-07
6.45496e-07
6.44921e-07
6.45646e-07
6.45581e-07
6.3566e-07
6.3563e-07
6.35477e-07
6.34748e-07
6.34684e-07
6.34656e-07
6.34741e-07
6.35557e-07
6.35583e-07
6.35477e-07
6.34393e-07
6.33094e-07
6.33094e-07
6.33094e-07
6.33094e-07
6.34548e-07
6.34955e-07
6.34748e-07
6.33094e-07
6.33095e-07
6.33095e-07
6.33095e-07
6.33095e-07
6.33094e-07
6.35021e-07
6.35765e-07
6.3566e-07
6.34684e-07
6.33094e-07
6.33095e-07
6.33094e-07
6.33094e-07
6.33095e-07
6.33094e-07
6.35032e-07
6.35658e-07
6.3563e-07
6.34656e-07
6.33094e-07
6.33095e-07
6.33094e-07
6.33094e-07
6.33095e-07
6.33094e-07
6.3501e-07
6.35082e-07
6.34741e-07
6.33094e-07
6.33095e-07
6.33095e-07
6.33095e-07
6.33095e-07
6.33094e-07
6.35034e-07
6.35808e-07
6.35557e-07
6.34548e-07
6.33094e-07
6.33094e-07
6.33094e-07
6.33094e-07
6.34817e-07
6.35031e-07
6.35743e-07
6.35583e-07
6.34955e-07
6.35021e-07
6.35032e-07
6.3501e-07
6.35034e-07
6.35031e-07
6.3572e-07
6.35765e-07
6.35658e-07
6.35082e-07
6.35808e-07
6.35742e-07
6.25821e-07
6.25792e-07
6.25638e-07
6.2491e-07
6.24845e-07
6.24817e-07
6.24902e-07
6.25719e-07
6.25744e-07
6.25638e-07
6.24555e-07
6.23255e-07
6.23256e-07
6.23256e-07
6.23255e-07
6.2471e-07
6.25117e-07
6.2491e-07
6.23255e-07
6.23257e-07
6.23256e-07
6.23256e-07
6.23257e-07
6.23255e-07
6.25183e-07
6.25927e-07
6.25821e-07
6.24845e-07
6.23256e-07
6.23256e-07
6.23256e-07
6.23256e-07
6.23256e-07
6.23256e-07
6.25193e-07
6.2582e-07
6.25792e-07
6.24817e-07
6.23256e-07
6.23256e-07
6.23256e-07
6.23256e-07
6.23256e-07
6.23256e-07
6.25172e-07
6.25244e-07
6.24902e-07
6.23255e-07
6.23257e-07
6.23256e-07
6.23256e-07
6.23257e-07
6.23255e-07
6.25196e-07
6.25969e-07
6.25719e-07
6.2471e-07
6.23255e-07
6.23256e-07
6.23256e-07
6.23255e-07
6.24979e-07
6.25193e-07