/*--------------------------------*- C++ -*----------------------------------*\
| =========                 |                                                 |
| \\      /  F ield         | OpenFOAM: The Open Source CFD Toolbox           |
|  \\    /   O peration     | Version:  v2012                                 |
|   \\  /    A nd           | Website:  www.openfoam.com                      |
|    \\/     M anipulation  |                                                 |
\*---------------------------------------------------------------------------*/
FoamFile
{
    version     2.0;
    format      ascii;
    class       volScalarField;
    location    "87500";
    object      p;
}
// * * * * * * * * * * * * * * * * * * * * * * * * * * * * * * * * * * * * * //

dimensions      [0 2 -2 0 0 0 0];


internalField   nonuniform List<scalar> 
171728
(
1.2697e-07
1.26905e-07
1.26905e-07
1.27052e-07
1.2406e-07
1.23983e-07
1.23983e-07
1.24114e-07
1.219e-07
1.21875e-07
1.21875e-07
1.21984e-07
1.20072e-07
1.20065e-07
1.20065e-07
1.2016e-07
1.18416e-07
1.18416e-07
1.18416e-07
1.18505e-07
1.16864e-07
1.16866e-07
1.16866e-07
1.16951e-07
1.15379e-07
1.15382e-07
1.15382e-07
1.15464e-07
1.13942e-07
1.13944e-07
1.13944e-07
1.14024e-07
1.12538e-07
1.1254e-07
1.1254e-07
1.12618e-07
1.11159e-07
1.1116e-07
1.1116e-07
1.11238e-07
1.09799e-07
1.098e-07
1.098e-07
1.09876e-07
1.08454e-07
1.08454e-07
1.08454e-07
1.0853e-07
1.07119e-07
1.07119e-07
1.07119e-07
1.07194e-07
1.05793e-07
1.05793e-07
1.05793e-07
1.05868e-07
1.04473e-07
1.04473e-07
1.04473e-07
1.04548e-07
1.03159e-07
1.03159e-07
1.03159e-07
1.03233e-07
1.01848e-07
1.01848e-07
1.01848e-07
1.01922e-07
1.00541e-07
1.00541e-07
1.00541e-07
1.00615e-07
9.92358e-08
9.92357e-08
9.92357e-08
9.93094e-08
9.79326e-08
9.79325e-08
9.79325e-08
9.80061e-08
9.66308e-08
9.66307e-08
9.66307e-08
9.67042e-08
9.53301e-08
9.53301e-08
9.53301e-08
9.54035e-08
9.40304e-08
9.40303e-08
9.40303e-08
9.41037e-08
9.27313e-08
9.27312e-08
9.27312e-08
9.28045e-08
9.14327e-08
9.14326e-08
9.14326e-08
9.1506e-08
9.01346e-08
9.01344e-08
9.01344e-08
9.02078e-08
8.88368e-08
8.88366e-08
8.88366e-08
8.89099e-08
8.75392e-08
8.7539e-08
8.7539e-08
8.76123e-08
8.62418e-08
8.62416e-08
8.62416e-08
8.63149e-08
8.49446e-08
8.49444e-08
8.49444e-08
8.50177e-08
8.36475e-08
8.36473e-08
8.36473e-08
8.37206e-08
8.23505e-08
8.23503e-08
8.23503e-08
8.24236e-08
8.10536e-08
8.10534e-08
8.10534e-08
8.11267e-08
7.97567e-08
7.97565e-08
7.97565e-08
7.98298e-08
7.84599e-08
7.84597e-08
7.84597e-08
7.8533e-08
7.71631e-08
7.71629e-08
7.71629e-08
7.72361e-08
7.58663e-08
7.5866e-08
7.5866e-08
7.59393e-08
7.45695e-08
7.45692e-08
7.45692e-08
7.46425e-08
7.32726e-08
7.32724e-08
7.32724e-08
7.33457e-08
7.19758e-08
7.19756e-08
7.19756e-08
7.20489e-08
7.0679e-08
7.06788e-08
7.06788e-08
7.07521e-08
6.93822e-08
6.9382e-08
6.9382e-08
6.94553e-08
6.80854e-08
6.80852e-08
6.80852e-08
6.81585e-08
6.67886e-08
6.67884e-08
6.67884e-08
6.68617e-08
6.54918e-08
6.54916e-08
6.54916e-08
6.55649e-08
6.4195e-08
6.41948e-08
6.41948e-08
6.42681e-08
6.28983e-08
6.2898e-08
6.2898e-08
6.29713e-08
6.16015e-08
6.16012e-08
6.16012e-08
6.16745e-08
6.03047e-08
6.03044e-08
6.03044e-08
6.03777e-08
5.90079e-08
5.90076e-08
5.90076e-08
5.90809e-08
5.77111e-08
5.77109e-08
5.77109e-08
5.77841e-08
5.64143e-08
5.64141e-08
5.64141e-08
5.64873e-08
5.51175e-08
5.51173e-08
5.51173e-08
5.51905e-08
5.38207e-08
5.38205e-08
5.38205e-08
5.38937e-08
5.25239e-08
5.25237e-08
5.25237e-08
5.2597e-08
5.12271e-08
5.12269e-08
5.12269e-08
5.13002e-08
4.99303e-08
4.99301e-08
4.99301e-08
5.00034e-08
4.86335e-08
4.86333e-08
4.86333e-08
4.87066e-08
4.73367e-08
4.73365e-08
4.73365e-08
4.74098e-08
4.60399e-08
4.60397e-08
4.60397e-08
4.6113e-08
4.47432e-08
4.47429e-08
4.47429e-08
4.48162e-08
4.34464e-08
4.34461e-08
4.34461e-08
4.35194e-08
4.21496e-08
4.21494e-08
4.21494e-08
4.22226e-08
4.08528e-08
4.08526e-08
4.08526e-08
4.09258e-08
3.9556e-08
3.95558e-08
3.95558e-08
3.9629e-08
3.82592e-08
3.8259e-08
3.8259e-08
3.83323e-08
3.69624e-08
3.69622e-08
3.69622e-08
3.70355e-08
3.56656e-08
3.56654e-08
3.56654e-08
3.57387e-08
3.43688e-08
3.43686e-08
3.43686e-08
3.44419e-08
3.3072e-08
3.30718e-08
3.30718e-08
3.3145e-08
3.17752e-08
3.1775e-08
3.1775e-08
3.18482e-08
3.04784e-08
3.04782e-08
3.04782e-08
3.05514e-08
2.91816e-08
2.91814e-08
2.91814e-08
2.92546e-08
2.78848e-08
2.78846e-08
2.78846e-08
2.79578e-08
2.6588e-08
2.65878e-08
2.65878e-08
2.6661e-08
2.52912e-08
2.5291e-08
2.5291e-08
2.53642e-08
2.39944e-08
2.39942e-08
2.39942e-08
2.40674e-08
2.26976e-08
2.26974e-08
2.26974e-08
2.27706e-08
2.14008e-08
2.14006e-08
2.14006e-08
2.14739e-08
2.0104e-08
2.01038e-08
2.01038e-08
2.01771e-08
1.88072e-08
1.8807e-08
1.8807e-08
1.88803e-08
1.75104e-08
1.75102e-08
1.75102e-08
1.75835e-08
1.62136e-08
1.62134e-08
1.62134e-08
1.62867e-08
1.49168e-08
1.49166e-08
1.49166e-08
1.49899e-08
1.36201e-08
1.36198e-08
1.36198e-08
1.36931e-08
1.23233e-08
1.23231e-08
1.23231e-08
1.23963e-08
1.10265e-08
1.10263e-08
1.10263e-08
1.10995e-08
9.72971e-09
9.72949e-09
9.72949e-09
9.80276e-09
8.43293e-09
8.43271e-09
8.43271e-09
8.50598e-09
7.13615e-09
7.13593e-09
7.13593e-09
7.20919e-09
5.83937e-09
5.83917e-09
5.83917e-09
5.91241e-09
4.5426e-09
4.54243e-09
4.54243e-09
4.61563e-09
3.24592e-09
3.24566e-09
3.24566e-09
3.31892e-09
1.95298e-09
1.9488e-09
1.94875e-09
2.02341e-09
6.64986e-10
7.31126e-10
7.31063e-10
6.62173e-10
1.27562e-07
1.27637e-07
1.27637e-07
1.27562e-07
1.27637e-07
1.27637e-07
1.27804e-07
1.27804e-07
1.27804e-07
1.27804e-07
1.27637e-07
1.27637e-07
1.27562e-07
1.27637e-07
1.27637e-07
1.27562e-07
1.27052e-07
1.24455e-07
1.26905e-07
1.26905e-07
1.24597e-07
1.24597e-07
1.27052e-07
1.24455e-07
1.26905e-07
1.26905e-07
1.24597e-07
1.24597e-07
1.26905e-07
1.24597e-07
1.24597e-07
1.27052e-07
1.24455e-07
1.26905e-07
1.24597e-07
1.24597e-07
1.24455e-07
1.24114e-07
1.22254e-07
1.23983e-07
1.23983e-07
1.22366e-07
1.22366e-07
1.24114e-07
1.22254e-07
1.23983e-07
1.23983e-07
1.22366e-07
1.22366e-07
1.23983e-07
1.22366e-07
1.22366e-07
1.24114e-07
1.22254e-07
1.23983e-07
1.22366e-07
1.22366e-07
1.22254e-07
1.21984e-07
1.20396e-07
1.21875e-07
1.21875e-07
1.20499e-07
1.20499e-07
1.21984e-07
1.20396e-07
1.21875e-07
1.21875e-07
1.20499e-07
1.20499e-07
1.21875e-07
1.20499e-07
1.20499e-07
1.21984e-07
1.20396e-07
1.21875e-07
1.20499e-07
1.20499e-07
1.20396e-07
1.2016e-07
1.18724e-07
1.20065e-07
1.20065e-07
1.18817e-07
1.18817e-07
1.2016e-07
1.18724e-07
1.20065e-07
1.20065e-07
1.18817e-07
1.18817e-07
1.20065e-07
1.18817e-07
1.18817e-07
1.2016e-07
1.18724e-07
1.20065e-07
1.18817e-07
1.18817e-07
1.18724e-07
1.18505e-07
1.17157e-07
1.18416e-07
1.18416e-07
1.17246e-07
1.17246e-07
1.18505e-07
1.17157e-07
1.18416e-07
1.18416e-07
1.17246e-07
1.17246e-07
1.18416e-07
1.17246e-07
1.17246e-07
1.18505e-07
1.17157e-07
1.18416e-07
1.17246e-07
1.17246e-07
1.17157e-07
1.16951e-07
1.15663e-07
1.16866e-07
1.16866e-07
1.15748e-07
1.15748e-07
1.16951e-07
1.15663e-07
1.16866e-07
1.16866e-07
1.15748e-07
1.15748e-07
1.16866e-07
1.15748e-07
1.15748e-07
1.16951e-07
1.15663e-07
1.16866e-07
1.15748e-07
1.15748e-07
1.15663e-07
1.15464e-07
1.14218e-07
1.15382e-07
1.15382e-07
1.143e-07
1.143e-07
1.15464e-07
1.14218e-07
1.15382e-07
1.15382e-07
1.143e-07
1.143e-07
1.15382e-07
1.143e-07
1.143e-07
1.15464e-07
1.14218e-07
1.15382e-07
1.143e-07
1.143e-07
1.14218e-07
1.14024e-07
1.12808e-07
1.13944e-07
1.13944e-07
1.12888e-07
1.12888e-07
1.14024e-07
1.12808e-07
1.13944e-07
1.13944e-07
1.12888e-07
1.12888e-07
1.13944e-07
1.12888e-07
1.12888e-07
1.14024e-07
1.12808e-07
1.13944e-07
1.12888e-07
1.12888e-07
1.12808e-07
1.12618e-07
1.11425e-07
1.1254e-07
1.1254e-07
1.11503e-07
1.11503e-07
1.12618e-07
1.11425e-07
1.1254e-07
1.1254e-07
1.11503e-07
1.11503e-07
1.1254e-07
1.11503e-07
1.11503e-07
1.12618e-07
1.11425e-07
1.1254e-07
1.11503e-07
1.11503e-07
1.11425e-07
1.11238e-07
1.10062e-07
1.1116e-07
1.1116e-07
1.10139e-07
1.10139e-07
1.11238e-07
1.10062e-07
1.1116e-07
1.1116e-07
1.10139e-07
1.10139e-07
1.1116e-07
1.10139e-07
1.10139e-07
1.11238e-07
1.10062e-07
1.1116e-07
1.10139e-07
1.10139e-07
1.10062e-07
1.09876e-07
1.08713e-07
1.098e-07
1.098e-07
1.0879e-07
1.08789e-07
1.09876e-07
1.08713e-07
1.098e-07
1.098e-07
1.0879e-07
1.08789e-07
1.098e-07
1.0879e-07
1.0879e-07
1.09876e-07
1.08713e-07
1.098e-07
1.0879e-07
1.0879e-07
1.08713e-07
1.0853e-07
1.07377e-07
1.08454e-07
1.08454e-07
1.07452e-07
1.07452e-07
1.0853e-07
1.07377e-07
1.08454e-07
1.08454e-07
1.07452e-07
1.07452e-07
1.08454e-07
1.07452e-07
1.07452e-07
1.0853e-07
1.07377e-07
1.08454e-07
1.07452e-07
1.07452e-07
1.07377e-07
1.07194e-07
1.06049e-07
1.07119e-07
1.07119e-07
1.06124e-07
1.06124e-07
1.07194e-07
1.06049e-07
1.07119e-07
1.07119e-07
1.06124e-07
1.06124e-07
1.07119e-07
1.06124e-07
1.06124e-07
1.07194e-07
1.06049e-07
1.07119e-07
1.06124e-07
1.06124e-07
1.06049e-07
1.05868e-07
1.04728e-07
1.05793e-07
1.05793e-07
1.04803e-07
1.04803e-07
1.05868e-07
1.04728e-07
1.05793e-07
1.05793e-07
1.04803e-07
1.04803e-07
1.05793e-07
1.04803e-07
1.04803e-07
1.05868e-07
1.04728e-07
1.05793e-07
1.04803e-07
1.04803e-07
1.04728e-07
1.04548e-07
1.03413e-07
1.04473e-07
1.04473e-07
1.03487e-07
1.03487e-07
1.04548e-07
1.03413e-07
1.04473e-07
1.04473e-07
1.03487e-07
1.03487e-07
1.04473e-07
1.03487e-07
1.03487e-07
1.04548e-07
1.03413e-07
1.04473e-07
1.03487e-07
1.03487e-07
1.03413e-07
1.03233e-07
1.02102e-07
1.03159e-07
1.03159e-07
1.02176e-07
1.02176e-07
1.03233e-07
1.02102e-07
1.03159e-07
1.03159e-07
1.02176e-07
1.02176e-07
1.03159e-07
1.02176e-07
1.02176e-07
1.03233e-07
1.02102e-07
1.03159e-07
1.02176e-07
1.02176e-07
1.02102e-07
1.01922e-07
1.00794e-07
1.01848e-07
1.01848e-07
1.00867e-07
1.00867e-07
1.01922e-07
1.00794e-07
1.01848e-07
1.01848e-07
1.00867e-07
1.00867e-07
1.01848e-07
1.00867e-07
1.00867e-07
1.01922e-07
1.00794e-07
1.01848e-07
1.00867e-07
1.00867e-07
1.00794e-07
1.00615e-07
9.94881e-08
1.00541e-07
1.00541e-07
9.95618e-08
9.95618e-08
1.00615e-07
9.94881e-08
1.00541e-07
1.00541e-07
9.95618e-08
9.95618e-08
1.00541e-07
9.95618e-08
9.95618e-08
1.00615e-07
9.94881e-08
1.00541e-07
9.95618e-08
9.95618e-08
9.94881e-08
9.93094e-08
9.81846e-08
9.92357e-08
9.92357e-08
9.82582e-08
9.82582e-08
9.93094e-08
9.81846e-08
9.92357e-08
9.92357e-08
9.82582e-08
9.82582e-08
9.92357e-08
9.82582e-08
9.82582e-08
9.93094e-08
9.81846e-08
9.92357e-08
9.82582e-08
9.82582e-08
9.81846e-08
9.80061e-08
9.68825e-08
9.79325e-08
9.79325e-08
9.6956e-08
9.6956e-08
9.80061e-08
9.68826e-08
9.79325e-08
9.79325e-08
9.6956e-08
9.6956e-08
9.79325e-08
9.6956e-08
9.6956e-08
9.80061e-08
9.68825e-08
9.79325e-08
9.6956e-08
9.6956e-08
9.68825e-08
9.67042e-08
9.55817e-08
9.66307e-08
9.66307e-08
9.56551e-08
9.56551e-08
9.67042e-08
9.55817e-08
9.66307e-08
9.66307e-08
9.56551e-08
9.56551e-08
9.66307e-08
9.56551e-08
9.56551e-08
9.67042e-08
9.55817e-08
9.66307e-08
9.56551e-08
9.56551e-08
9.55817e-08
9.54035e-08
9.42818e-08
9.53301e-08
9.53301e-08
9.43552e-08
9.43552e-08
9.54035e-08
9.42818e-08
9.53301e-08
9.53301e-08
9.43552e-08
9.43552e-08
9.53301e-08
9.43552e-08
9.43552e-08
9.54035e-08
9.42818e-08
9.53301e-08
9.43552e-08
9.43552e-08
9.42818e-08
9.41037e-08
9.29826e-08
9.40303e-08
9.40303e-08
9.30559e-08
9.30559e-08
9.41037e-08
9.29826e-08
9.40303e-08
9.40303e-08
9.30559e-08
9.30559e-08
9.40303e-08
9.30559e-08
9.30559e-08
9.41037e-08
9.29826e-08
9.40303e-08
9.30559e-08
9.30559e-08
9.29825e-08
9.28045e-08
9.16839e-08
9.27312e-08
9.27312e-08
9.17572e-08
9.17572e-08
9.28045e-08
9.16839e-08
9.27312e-08
9.27312e-08
9.17572e-08
9.17572e-08
9.27312e-08
9.17572e-08
9.17572e-08
9.28045e-08
9.16839e-08
9.27312e-08
9.17572e-08
9.17572e-08
9.16839e-08
9.15059e-08
9.03857e-08
9.14326e-08
9.14326e-08
9.0459e-08
9.0459e-08
9.15059e-08
9.03857e-08
9.14326e-08
9.14326e-08
9.0459e-08
9.0459e-08
9.14326e-08
9.0459e-08
9.0459e-08
9.15059e-08
9.03857e-08
9.14326e-08
9.0459e-08
9.0459e-08
9.03857e-08
9.02078e-08
8.90878e-08
9.01344e-08
9.01344e-08
8.9161e-08
8.9161e-08
9.02078e-08
8.90878e-08
9.01344e-08
9.01344e-08
8.9161e-08
8.9161e-08
9.01344e-08
8.9161e-08
8.9161e-08
9.02078e-08
8.90878e-08
9.01344e-08
8.9161e-08
8.9161e-08
8.90878e-08
8.89099e-08
8.77902e-08
8.88366e-08
8.88366e-08
8.78634e-08
8.78634e-08
8.89099e-08
8.77902e-08
8.88366e-08
8.88366e-08
8.78634e-08
8.78634e-08
8.88366e-08
8.78634e-08
8.78634e-08
8.89099e-08
8.77902e-08
8.88366e-08
8.78634e-08
8.78634e-08
8.77902e-08
8.76123e-08
8.64927e-08
8.7539e-08
8.7539e-08
8.6566e-08
8.6566e-08
8.76123e-08
8.64928e-08
8.7539e-08
8.7539e-08
8.6566e-08
8.6566e-08
8.7539e-08
8.6566e-08
8.6566e-08
8.76123e-08
8.64927e-08
8.7539e-08
8.6566e-08
8.6566e-08
8.64927e-08
8.63149e-08
8.51955e-08
8.62416e-08
8.62416e-08
8.52687e-08
8.52687e-08
8.63149e-08
8.51955e-08
8.62416e-08
8.62416e-08
8.52687e-08
8.52687e-08
8.62416e-08
8.52687e-08
8.52687e-08
8.63149e-08
8.51955e-08
8.62416e-08
8.52687e-08
8.52687e-08
8.51955e-08
8.50177e-08
8.38984e-08
8.49444e-08
8.49444e-08
8.39716e-08
8.39716e-08
8.50177e-08
8.38984e-08
8.49444e-08
8.49444e-08
8.39716e-08
8.39716e-08
8.49444e-08
8.39716e-08
8.39716e-08
8.50177e-08
8.38984e-08
8.49444e-08
8.39716e-08
8.39716e-08
8.38983e-08
8.37206e-08
8.26013e-08
8.36473e-08
8.36473e-08
8.26745e-08
8.26745e-08
8.37206e-08
8.26013e-08
8.36473e-08
8.36473e-08
8.26745e-08
8.26745e-08
8.36473e-08
8.26745e-08
8.26745e-08
8.37206e-08
8.26013e-08
8.36473e-08
8.26745e-08
8.26745e-08
8.26013e-08
8.24236e-08
8.13044e-08
8.23503e-08
8.23503e-08
8.13776e-08
8.13776e-08
8.24236e-08
8.13044e-08
8.23503e-08
8.23503e-08
8.13776e-08
8.13776e-08
8.23503e-08
8.13776e-08
8.13776e-08
8.24236e-08
8.13044e-08
8.23503e-08
8.13776e-08
8.13776e-08
8.13044e-08
8.11266e-08
8.00075e-08
8.10534e-08
8.10534e-08
8.00807e-08
8.00807e-08
8.11266e-08
8.00075e-08
8.10534e-08
8.10534e-08
8.00807e-08
8.00807e-08
8.10534e-08
8.00807e-08
8.00807e-08
8.11267e-08
8.00075e-08
8.10534e-08
8.00807e-08
8.00807e-08
8.00075e-08
7.98298e-08
7.87107e-08
7.97565e-08
7.97565e-08
7.87839e-08
7.87839e-08
7.98298e-08
7.87107e-08
7.97565e-08
7.97565e-08
7.87839e-08
7.87839e-08
7.97565e-08
7.87839e-08
7.87839e-08
7.98298e-08
7.87107e-08
7.97565e-08
7.87839e-08
7.87839e-08
7.87107e-08
7.85329e-08
7.74139e-08
7.84597e-08
7.84597e-08
7.74871e-08
7.74871e-08
7.85329e-08
7.74139e-08
7.84597e-08
7.84597e-08
7.74871e-08
7.74871e-08
7.84597e-08
7.74871e-08
7.74871e-08
7.85329e-08
7.74139e-08
7.84597e-08
7.74871e-08
7.74871e-08
7.74139e-08
7.72361e-08
7.61171e-08
7.71629e-08
7.71629e-08
7.61902e-08
7.61902e-08
7.72361e-08
7.61171e-08
7.71629e-08
7.71629e-08
7.61902e-08
7.61902e-08
7.71629e-08
7.61902e-08
7.61902e-08
7.72361e-08
7.61171e-08
7.71629e-08
7.61902e-08
7.61902e-08
7.61171e-08
7.59393e-08
7.48203e-08
7.5866e-08
7.5866e-08
7.48934e-08
7.48934e-08
7.59393e-08
7.48203e-08
7.5866e-08
7.5866e-08
7.48934e-08
7.48934e-08
7.5866e-08
7.48934e-08
7.48934e-08
7.59393e-08
7.48202e-08
7.5866e-08
7.48934e-08
7.48934e-08
7.48202e-08
7.46425e-08
7.35234e-08
7.45692e-08
7.45692e-08
7.35966e-08
7.35966e-08
7.46425e-08
7.35235e-08
7.45692e-08
7.45692e-08
7.35966e-08
7.35966e-08
7.45692e-08
7.35966e-08
7.35966e-08
7.46425e-08
7.35234e-08
7.45692e-08
7.35966e-08
7.35966e-08
7.35234e-08
7.33457e-08
7.22266e-08
7.32724e-08
7.32724e-08
7.22998e-08
7.22998e-08
7.33457e-08
7.22266e-08
7.32724e-08
7.32724e-08
7.22998e-08
7.22998e-08
7.32724e-08
7.22998e-08
7.22998e-08
7.33457e-08
7.22266e-08
7.32724e-08
7.22998e-08
7.22998e-08
7.22266e-08
7.20489e-08
7.09298e-08
7.19756e-08
7.19756e-08
7.1003e-08
7.1003e-08
7.20489e-08
7.09298e-08
7.19756e-08
7.19756e-08
7.1003e-08
7.1003e-08
7.19756e-08
7.1003e-08
7.1003e-08
7.20489e-08
7.09298e-08
7.19756e-08
7.1003e-08
7.1003e-08
7.09298e-08
7.07521e-08
6.9633e-08
7.06788e-08
7.06788e-08
6.97062e-08
6.97062e-08
7.07521e-08
6.9633e-08
7.06788e-08
7.06788e-08
6.97062e-08
6.97062e-08
7.06788e-08
6.97062e-08
6.97062e-08
7.07521e-08
6.9633e-08
7.06788e-08
6.97062e-08
6.97062e-08
6.9633e-08
6.94553e-08
6.83362e-08
6.9382e-08
6.9382e-08
6.84094e-08
6.84094e-08
6.94553e-08
6.83362e-08
6.9382e-08
6.9382e-08
6.84094e-08
6.84094e-08
6.9382e-08
6.84094e-08
6.84094e-08
6.94553e-08
6.83362e-08
6.9382e-08
6.84094e-08
6.84094e-08
6.83362e-08
6.81585e-08
6.70394e-08
6.80852e-08
6.80852e-08
6.71126e-08
6.71126e-08
6.81585e-08
6.70394e-08
6.80852e-08
6.80852e-08
6.71126e-08
6.71126e-08
6.80852e-08
6.71126e-08
6.71126e-08
6.81585e-08
6.70394e-08
6.80852e-08
6.71126e-08
6.71126e-08
6.70394e-08
6.68617e-08
6.57426e-08
6.67884e-08
6.67884e-08
6.58158e-08
6.58158e-08
6.68617e-08
6.57426e-08
6.67884e-08
6.67884e-08
6.58158e-08
6.58158e-08
6.67884e-08
6.58158e-08
6.58158e-08
6.68617e-08
6.57426e-08
6.67884e-08
6.58158e-08
6.58158e-08
6.57426e-08
6.55649e-08
6.44458e-08
6.54916e-08
6.54916e-08
6.4519e-08
6.4519e-08
6.55649e-08
6.44458e-08
6.54916e-08
6.54916e-08
6.4519e-08
6.4519e-08
6.54916e-08
6.4519e-08
6.4519e-08
6.55649e-08
6.44458e-08
6.54916e-08
6.4519e-08
6.4519e-08
6.44458e-08
6.42681e-08
6.3149e-08
6.41948e-08
6.41948e-08
6.32222e-08
6.32222e-08
6.42681e-08
6.3149e-08
6.41948e-08
6.41948e-08
6.32222e-08
6.32222e-08
6.41948e-08
6.32222e-08
6.32222e-08
6.42681e-08
6.3149e-08
6.41948e-08
6.32222e-08
6.32222e-08
6.3149e-08
6.29713e-08
6.18522e-08
6.2898e-08
6.2898e-08
6.19254e-08
6.19254e-08
6.29713e-08
6.18523e-08
6.2898e-08
6.2898e-08
6.19254e-08
6.19254e-08
6.2898e-08
6.19254e-08
6.19254e-08
6.29713e-08
6.18522e-08
6.2898e-08
6.19254e-08
6.19254e-08
6.18522e-08
6.16745e-08
6.05555e-08
6.16012e-08
6.16012e-08
6.06286e-08
6.06286e-08
6.16745e-08
6.05555e-08
6.16012e-08
6.16012e-08
6.06286e-08
6.06286e-08
6.16012e-08
6.06286e-08
6.06286e-08
6.16745e-08
6.05554e-08
6.16012e-08
6.06286e-08
6.06286e-08
6.05554e-08
6.03777e-08
5.92587e-08
6.03044e-08
6.03044e-08
5.93318e-08
5.93318e-08
6.03777e-08
5.92587e-08
6.03044e-08
6.03044e-08
5.93318e-08
5.93318e-08
6.03044e-08
5.93318e-08
5.93318e-08
6.03777e-08
5.92587e-08
6.03044e-08
5.93318e-08
5.93318e-08
5.92587e-08
5.90809e-08
5.79619e-08
5.90076e-08
5.90076e-08
5.80351e-08
5.80351e-08
5.90809e-08
5.79619e-08
5.90076e-08
5.90076e-08
5.80351e-08
5.80351e-08
5.90076e-08
5.80351e-08
5.80351e-08
5.90809e-08
5.79619e-08
5.90076e-08
5.80351e-08
5.80351e-08
5.79619e-08
5.77841e-08
5.66651e-08
5.77109e-08
5.77109e-08
5.67383e-08
5.67383e-08
5.77841e-08
5.66651e-08
5.77109e-08
5.77109e-08
5.67383e-08
5.67383e-08
5.77109e-08
5.67383e-08
5.67383e-08
5.77841e-08
5.66651e-08
5.77109e-08
5.67383e-08
5.67383e-08
5.66651e-08
5.64873e-08
5.53683e-08
5.64141e-08
5.64141e-08
5.54415e-08
5.54415e-08
5.64873e-08
5.53683e-08
5.64141e-08
5.64141e-08
5.54415e-08
5.54415e-08
5.64141e-08
5.54415e-08
5.54415e-08
5.64873e-08
5.53683e-08
5.64141e-08
5.54415e-08
5.54415e-08
5.53683e-08
5.51905e-08
5.40715e-08
5.51173e-08
5.51173e-08
5.41447e-08
5.41447e-08
5.51905e-08
5.40715e-08
5.51173e-08
5.51173e-08
5.41447e-08
5.41447e-08
5.51173e-08
5.41447e-08
5.41447e-08
5.51905e-08
5.40715e-08
5.51173e-08
5.41447e-08
5.41447e-08
5.40715e-08
5.38937e-08
5.27747e-08
5.38205e-08
5.38205e-08
5.28479e-08
5.28479e-08
5.38937e-08
5.27747e-08
5.38205e-08
5.38205e-08
5.28479e-08
5.28479e-08
5.38205e-08
5.28479e-08
5.28479e-08
5.38937e-08
5.27747e-08
5.38205e-08
5.28479e-08
5.28479e-08
5.27747e-08
5.2597e-08
5.14779e-08
5.25237e-08
5.25237e-08
5.15511e-08
5.15511e-08
5.25969e-08
5.14779e-08
5.25237e-08
5.25237e-08
5.15511e-08
5.15511e-08
5.25237e-08
5.15511e-08
5.15511e-08
5.2597e-08
5.14779e-08
5.25237e-08
5.15511e-08
5.15511e-08
5.14779e-08
5.13002e-08
5.01811e-08
5.12269e-08
5.12269e-08
5.02543e-08
5.02543e-08
5.13002e-08
5.01811e-08
5.12269e-08
5.12269e-08
5.02543e-08
5.02543e-08
5.12269e-08
5.02543e-08
5.02543e-08
5.13002e-08
5.01811e-08
5.12269e-08
5.02543e-08
5.02543e-08
5.01811e-08
5.00034e-08
4.88843e-08
4.99301e-08
4.99301e-08
4.89575e-08
4.89575e-08
5.00034e-08
4.88843e-08
4.99301e-08
4.99301e-08
4.89575e-08
4.89575e-08
4.99301e-08
4.89575e-08
4.89575e-08
5.00034e-08
4.88843e-08
4.99301e-08
4.89575e-08
4.89575e-08
4.88843e-08
4.87066e-08
4.75875e-08
4.86333e-08
4.86333e-08
4.76607e-08
4.76607e-08
4.87066e-08
4.75875e-08
4.86333e-08
4.86333e-08
4.76607e-08
4.76607e-08
4.86333e-08
4.76607e-08
4.76607e-08
4.87066e-08
4.75875e-08
4.86333e-08
4.76607e-08
4.76607e-08
4.75875e-08
4.74098e-08
4.62907e-08
4.73365e-08
4.73365e-08
4.63639e-08
4.63639e-08
4.74098e-08
4.62907e-08
4.73365e-08
4.73365e-08
4.63639e-08
4.63639e-08
4.73365e-08
4.63639e-08
4.63639e-08
4.74098e-08
4.62907e-08
4.73365e-08
4.63639e-08
4.63639e-08
4.62907e-08
4.6113e-08
4.49939e-08
4.60397e-08
4.60397e-08
4.50671e-08
4.50671e-08
4.6113e-08
4.49939e-08
4.60397e-08
4.60397e-08
4.50671e-08
4.50671e-08
4.60397e-08
4.50671e-08
4.50671e-08
4.6113e-08
4.49939e-08
4.60397e-08
4.50671e-08
4.50671e-08
4.49939e-08
4.48162e-08
4.36972e-08
4.47429e-08
4.47429e-08
4.37703e-08
4.37703e-08
4.48162e-08
4.36972e-08
4.47429e-08
4.47429e-08
4.37703e-08
4.37703e-08
4.47429e-08
4.37703e-08
4.37703e-08
4.48162e-08
4.36971e-08
4.47429e-08
4.37703e-08
4.37703e-08
4.36971e-08
4.35194e-08
4.24004e-08
4.34461e-08
4.34461e-08
4.24736e-08
4.24736e-08
4.35194e-08
4.24004e-08
4.34461e-08
4.34461e-08
4.24736e-08
4.24736e-08
4.34461e-08
4.24736e-08
4.24736e-08
4.35194e-08
4.24004e-08
4.34461e-08
4.24736e-08
4.24736e-08
4.24004e-08
4.22226e-08
4.11036e-08
4.21494e-08
4.21494e-08
4.11768e-08
4.11768e-08
4.22226e-08
4.11036e-08
4.21494e-08
4.21494e-08
4.11768e-08
4.11768e-08
4.21494e-08
4.11768e-08
4.11768e-08
4.22226e-08
4.11036e-08
4.21494e-08
4.11768e-08
4.11768e-08
4.11036e-08
4.09258e-08
3.98068e-08
4.08526e-08
4.08526e-08
3.988e-08
3.988e-08
4.09258e-08
3.98068e-08
4.08526e-08
4.08526e-08
3.988e-08
3.988e-08
4.08526e-08
3.988e-08
3.988e-08
4.09258e-08
3.98068e-08
4.08526e-08
3.988e-08
3.988e-08
3.98068e-08
3.9629e-08
3.851e-08
3.95558e-08
3.95558e-08
3.85832e-08
3.85832e-08
3.9629e-08
3.851e-08
3.95558e-08
3.95558e-08
3.85832e-08
3.85832e-08
3.95558e-08
3.85832e-08
3.85832e-08
3.9629e-08
3.851e-08
3.95558e-08
3.85832e-08
3.85832e-08
3.851e-08
3.83322e-08
3.72132e-08
3.8259e-08
3.8259e-08
3.72864e-08
3.72864e-08
3.83322e-08
3.72132e-08
3.8259e-08
3.8259e-08
3.72864e-08
3.72864e-08
3.8259e-08
3.72864e-08
3.72864e-08
3.83322e-08
3.72132e-08
3.8259e-08
3.72864e-08
3.72864e-08
3.72132e-08
3.70354e-08
3.59164e-08
3.69622e-08
3.69622e-08
3.59896e-08
3.59896e-08
3.70354e-08
3.59164e-08
3.69622e-08
3.69622e-08
3.59896e-08
3.59896e-08
3.69622e-08
3.59896e-08
3.59896e-08
3.70355e-08
3.59164e-08
3.69622e-08
3.59896e-08
3.59896e-08
3.59164e-08
3.57386e-08
3.46196e-08
3.56654e-08
3.56654e-08
3.46928e-08
3.46928e-08
3.57386e-08
3.46196e-08
3.56654e-08
3.56654e-08
3.46928e-08
3.46928e-08
3.56654e-08
3.46928e-08
3.46928e-08
3.57387e-08
3.46196e-08
3.56654e-08
3.46928e-08
3.46928e-08
3.46196e-08
3.44418e-08
3.33228e-08
3.43686e-08
3.43686e-08
3.3396e-08
3.3396e-08
3.44418e-08
3.33228e-08
3.43686e-08
3.43686e-08
3.3396e-08
3.3396e-08
3.43686e-08
3.3396e-08
3.3396e-08
3.44418e-08
3.33228e-08
3.43686e-08
3.3396e-08
3.3396e-08
3.33228e-08
3.3145e-08
3.2026e-08
3.30718e-08
3.30718e-08
3.20992e-08
3.20992e-08
3.3145e-08
3.2026e-08
3.30718e-08
3.30718e-08
3.20992e-08
3.20992e-08
3.30718e-08
3.20992e-08
3.20992e-08
3.3145e-08
3.2026e-08
3.30718e-08
3.20992e-08
3.20992e-08
3.2026e-08
3.18482e-08
3.07292e-08
3.1775e-08
3.1775e-08
3.08024e-08
3.08024e-08
3.18482e-08
3.07292e-08
3.1775e-08
3.1775e-08
3.08024e-08
3.08024e-08
3.1775e-08
3.08024e-08
3.08024e-08
3.18482e-08
3.07292e-08
3.1775e-08
3.08024e-08
3.08024e-08
3.07292e-08
3.05514e-08
2.94324e-08
3.04782e-08
3.04782e-08
2.95056e-08
2.95056e-08
3.05514e-08
2.94324e-08
3.04782e-08
3.04782e-08
2.95056e-08
2.95056e-08
3.04782e-08
2.95056e-08
2.95056e-08
3.05514e-08
2.94324e-08
3.04782e-08
2.95056e-08
2.95056e-08
2.94324e-08
2.92546e-08
2.81356e-08
2.91814e-08
2.91814e-08
2.82088e-08
2.82088e-08
2.92546e-08
2.81356e-08
2.91814e-08
2.91814e-08
2.82088e-08
2.82088e-08
2.91814e-08
2.82088e-08
2.82088e-08
2.92546e-08
2.81356e-08
2.91814e-08
2.82088e-08
2.82088e-08
2.81356e-08
2.79578e-08
2.68388e-08
2.78846e-08
2.78846e-08
2.6912e-08
2.6912e-08
2.79578e-08
2.68388e-08
2.78846e-08
2.78846e-08
2.6912e-08
2.6912e-08
2.78846e-08
2.6912e-08
2.6912e-08
2.79578e-08
2.68388e-08
2.78846e-08
2.6912e-08
2.6912e-08
2.68388e-08
2.6661e-08
2.5542e-08
2.65878e-08
2.65878e-08
2.56152e-08
2.56152e-08
2.6661e-08
2.5542e-08
2.65878e-08
2.65878e-08
2.56152e-08
2.56152e-08
2.65878e-08
2.56152e-08
2.56152e-08
2.6661e-08
2.5542e-08
2.65878e-08
2.56152e-08
2.56152e-08
2.5542e-08
2.53642e-08
2.42452e-08
2.5291e-08
2.5291e-08
2.43184e-08
2.43184e-08
2.53642e-08
2.42452e-08
2.5291e-08
2.5291e-08
2.43184e-08
2.43184e-08
2.5291e-08
2.43184e-08
2.43184e-08
2.53642e-08
2.42452e-08
2.5291e-08
2.43184e-08
2.43184e-08
2.42452e-08
2.40674e-08
2.29484e-08
2.39942e-08
2.39942e-08
2.30216e-08
2.30216e-08
2.40674e-08
2.29484e-08
2.39942e-08
2.39942e-08
2.30216e-08
2.30216e-08
2.39942e-08
2.30216e-08
2.30216e-08
2.40674e-08
2.29484e-08
2.39942e-08
2.30216e-08
2.30216e-08
2.29484e-08
2.27706e-08
2.16516e-08
2.26974e-08
2.26974e-08
2.17248e-08
2.17248e-08
2.27706e-08
2.16516e-08
2.26974e-08
2.26974e-08
2.17248e-08
2.17248e-08
2.26974e-08
2.17248e-08
2.17248e-08
2.27706e-08
2.16516e-08
2.26974e-08
2.17248e-08
2.17248e-08
2.16516e-08
2.14738e-08
2.03548e-08
2.14006e-08
2.14006e-08
2.0428e-08
2.0428e-08
2.14738e-08
2.03548e-08
2.14006e-08
2.14006e-08
2.0428e-08
2.0428e-08
2.14006e-08
2.0428e-08
2.0428e-08
2.14738e-08
2.03548e-08
2.14006e-08
2.0428e-08
2.0428e-08
2.03548e-08
2.01771e-08
1.9058e-08
2.01038e-08
2.01038e-08
1.91312e-08
1.91312e-08
2.0177e-08
1.9058e-08
2.01038e-08
2.01038e-08
1.91312e-08
1.91312e-08
2.01038e-08
1.91312e-08
1.91312e-08
2.01771e-08
1.9058e-08
2.01038e-08
1.91312e-08
1.91312e-08
1.9058e-08
1.88803e-08
1.77612e-08
1.8807e-08
1.8807e-08
1.78344e-08
1.78344e-08
1.88803e-08
1.77612e-08
1.8807e-08
1.8807e-08
1.78344e-08
1.78344e-08
1.8807e-08
1.78344e-08
1.78344e-08
1.88803e-08
1.77612e-08
1.8807e-08
1.78344e-08
1.78344e-08
1.77612e-08
1.75835e-08
1.64644e-08
1.75102e-08
1.75102e-08
1.65376e-08
1.65376e-08
1.75835e-08
1.64644e-08
1.75102e-08
1.75102e-08
1.65376e-08
1.65376e-08
1.75102e-08
1.65376e-08
1.65376e-08
1.75835e-08
1.64644e-08
1.75102e-08
1.65376e-08
1.65376e-08
1.64644e-08
1.62867e-08
1.51676e-08
1.62134e-08
1.62134e-08
1.52408e-08
1.52408e-08
1.62867e-08
1.51676e-08
1.62134e-08
1.62134e-08
1.52408e-08
1.52408e-08
1.62134e-08
1.52408e-08
1.52408e-08
1.62867e-08
1.51676e-08
1.62134e-08
1.52408e-08
1.52408e-08
1.51676e-08
1.49899e-08
1.38708e-08
1.49166e-08
1.49166e-08
1.3944e-08
1.3944e-08
1.49899e-08
1.38709e-08
1.49166e-08
1.49166e-08
1.3944e-08
1.3944e-08
1.49166e-08
1.3944e-08
1.3944e-08
1.49899e-08
1.38708e-08
1.49166e-08
1.3944e-08
1.3944e-08
1.38708e-08
1.36931e-08
1.25741e-08
1.36198e-08
1.36198e-08
1.26473e-08
1.26472e-08
1.36931e-08
1.25741e-08
1.36198e-08
1.36198e-08
1.26472e-08
1.26472e-08
1.36198e-08
1.26473e-08
1.26473e-08
1.36931e-08
1.25741e-08
1.36198e-08
1.26473e-08
1.26472e-08
1.25741e-08
1.23963e-08
1.12773e-08
1.23231e-08
1.23231e-08
1.13505e-08
1.13505e-08
1.23963e-08
1.12773e-08
1.23231e-08
1.23231e-08
1.13505e-08
1.13505e-08
1.23231e-08
1.13505e-08
1.13505e-08
1.23963e-08
1.12773e-08
1.23231e-08
1.13505e-08
1.13505e-08
1.12773e-08
1.10995e-08
9.98049e-09
1.10263e-08
1.10263e-08
1.00537e-08
1.00537e-08
1.10995e-08
9.9805e-09
1.10263e-08
1.10263e-08
1.00537e-08
1.00537e-08
1.10263e-08
1.00537e-08
1.00537e-08
1.10995e-08
9.98049e-09
1.10263e-08
1.00537e-08
1.00537e-08
9.98049e-09
9.80276e-09
8.68371e-09
9.72949e-09
9.72949e-09
8.7569e-09
8.7569e-09
9.80275e-09
8.68372e-09
9.72949e-09
9.72949e-09
8.7569e-09
8.7569e-09
9.72949e-09
8.7569e-09
8.7569e-09
9.80276e-09
8.6837e-09
9.72949e-09
8.7569e-09
8.7569e-09
8.6837e-09
8.50597e-09
7.38692e-09
8.43271e-09
8.43271e-09
7.46011e-09
7.46011e-09
8.50597e-09
7.38693e-09
8.43271e-09
8.43271e-09
7.46011e-09
7.46011e-09
8.43271e-09
7.46011e-09
7.46011e-09
8.50598e-09
7.38692e-09
8.43271e-09
7.46011e-09
7.46011e-09
7.38692e-09
7.20919e-09
6.09013e-09
7.13593e-09
7.13593e-09
6.16332e-09
6.16332e-09
7.20918e-09
6.09014e-09
7.13593e-09
7.13593e-09
6.16332e-09
6.16332e-09
7.13593e-09
6.16332e-09
6.16333e-09
7.20919e-09
6.09013e-09
7.13593e-09
6.16332e-09
6.16332e-09
6.09013e-09
5.91241e-09
4.79333e-09
5.83917e-09
5.83917e-09
4.86653e-09
4.86653e-09
5.9124e-09
4.79334e-09
5.83917e-09
5.83917e-09
4.86652e-09
4.86653e-09
5.83917e-09
4.86653e-09
4.86653e-09
5.91241e-09
4.79333e-09
5.83917e-09
4.86653e-09
4.86653e-09
4.79333e-09
4.61563e-09
3.49655e-09
4.54243e-09
4.54243e-09
3.56971e-09
3.5697e-09
4.61562e-09
3.49656e-09
4.54243e-09
4.54243e-09
3.56971e-09
3.5697e-09
4.54243e-09
3.56971e-09
3.5697e-09
4.61563e-09
3.49653e-09
4.54243e-09
3.5697e-09
3.5697e-09
3.49654e-09
3.31892e-09
2.20078e-09
3.24566e-09
3.24566e-09
2.27267e-09
2.27266e-09
3.3189e-09
2.20078e-09
3.24566e-09
3.24565e-09
2.27267e-09
2.27265e-09
3.24566e-09
2.27266e-09
2.27265e-09
3.31893e-09
2.20076e-09
3.24566e-09
2.27264e-09
2.27265e-09
2.20076e-09
2.02343e-09
8.66515e-10
1.9488e-09
1.94879e-09
1.02344e-09
1.02338e-09
2.0234e-09
8.66457e-10
1.94881e-09
1.94875e-09
1.0236e-09
1.02333e-09
1.94876e-09
1.02353e-09
1.02333e-09
2.02341e-09
8.66435e-10
1.94878e-09
1.02343e-09
1.02356e-09
8.66471e-10
6.62222e-10
7.31033e-10
7.30987e-10
6.62177e-10
7.31153e-10
7.30951e-10
6.64969e-10
6.64956e-10
6.64971e-10
7.30968e-10
6.62186e-10
7.31103e-10
1.28303e-07
1.28914e-07
1.28587e-07
1.28587e-07
1.30315e-07
1.29172e-07
1.317e-07
1.28807e-07
1.30315e-07
1.29172e-07
1.28807e-07
1.317e-07
1.29468e-07
1.32134e-07
1.32134e-07
1.25668e-07
1.2692e-07
1.26935e-07
1.2563e-07
1.26858e-07
1.25614e-07
1.25668e-07
1.2692e-07
1.26935e-07
1.2563e-07
1.2697e-07
1.2697e-07
1.2697e-07
1.24692e-07
1.24692e-07
1.24692e-07
1.24692e-07
1.25729e-07
1.26975e-07
1.26947e-07
1.26044e-07
1.2701e-07
1.25679e-07
1.26096e-07
1.26858e-07
1.25614e-07
1.25729e-07
1.26947e-07
1.26975e-07
1.26044e-07
1.2701e-07
1.26095e-07
1.25679e-07
1.26991e-07
1.26991e-07
1.25849e-07
1.25663e-07
1.25663e-07
1.23233e-07
1.24039e-07
1.24059e-07
1.23218e-07
1.24033e-07
1.23214e-07
1.23233e-07
1.24039e-07
1.24059e-07
1.23218e-07
1.2406e-07
1.2406e-07
1.2406e-07
1.224e-07
1.224e-07
1.224e-07
1.224e-07
1.23249e-07
1.24057e-07
1.24011e-07