/*--------------------------------*- C++ -*----------------------------------*\
| =========                 |                                                 |
| \\      /  F ield         | OpenFOAM: The Open Source CFD Toolbox           |
|  \\    /   O peration     | Version:  v2012                                 |
|   \\  /    A nd           | Website:  www.openfoam.com                      |
|    \\/     M anipulation  |                                                 |
\*---------------------------------------------------------------------------*/
FoamFile
{
    version     2.0;
    format      ascii;
    class       volScalarField;
    location    "75";
    object      epsilon;
}
// * * * * * * * * * * * * * * * * * * * * * * * * * * * * * * * * * * * * * //

dimensions      [0 2 -3 0 0 0 0];


internalField   nonuniform List<scalar> 
171728
(
1.43825e-07
2.08209e-08
2.14906e-08
8.79995e-09
1.46392e-07
2.23012e-08
2.38612e-08
8.37455e-09
1.51992e-07
2.52801e-08
2.74951e-08
8.52898e-09
1.57525e-07
2.92228e-08
3.19341e-08
9.47642e-09
1.6302e-07
3.43761e-08
3.74945e-08
1.11892e-08
1.68712e-07
4.09295e-08
4.44793e-08
1.44122e-08
1.74279e-07
4.95e-08
5.30323e-08
1.98047e-08
1.8e-07
6.00629e-08
6.33034e-08
2.71767e-08
1.85779e-07
7.26183e-08
7.54784e-08
3.65531e-08
1.91842e-07
8.75303e-08
9.01783e-08
4.88085e-08
1.98226e-07
1.04595e-07
1.0682e-07
6.51469e-08
2.06666e-07
1.2547e-07
1.26955e-07
8.75258e-08
2.16216e-07
1.4924e-07
1.50242e-07
1.17287e-07
2.28537e-07
1.79426e-07
1.80005e-07
1.58411e-07
2.44016e-07
2.19439e-07
2.19962e-07
2.2068e-07
2.64309e-07
2.75248e-07
2.75479e-07
3.14422e-07
2.83362e-07
3.34575e-07
3.34637e-07
4.14906e-07
3.01006e-07
3.87736e-07
3.87779e-07
4.93932e-07
3.12364e-07
4.16518e-07
4.16559e-07
5.31746e-07
3.16354e-07
4.24449e-07
4.2449e-07
5.39633e-07
3.17207e-07
4.258e-07
4.2584e-07
5.40798e-07
3.1735e-07
4.26e-07
4.26039e-07
5.40994e-07
3.17377e-07
4.26036e-07
4.26074e-07
5.4099e-07
3.17389e-07
4.2605e-07
4.26088e-07
5.41004e-07
3.17396e-07
4.26062e-07
4.26099e-07
5.4101e-07
3.17402e-07
4.26068e-07
4.26104e-07
5.41015e-07
3.17407e-07
4.2607e-07
4.26106e-07
5.41018e-07
3.17412e-07
4.26071e-07
4.26106e-07
5.41012e-07
3.17414e-07
4.2607e-07
4.26106e-07
5.41015e-07
3.17414e-07
4.2607e-07
4.26106e-07
5.4101e-07
3.17413e-07
4.2607e-07
4.26105e-07
5.41001e-07
3.17413e-07
4.2607e-07
4.26105e-07
5.40995e-07
3.17413e-07
4.2607e-07
4.26104e-07
5.40991e-07
3.17413e-07
4.26071e-07
4.26104e-07
5.40987e-07
3.17413e-07
4.2607e-07
4.26104e-07
5.40982e-07
3.17412e-07
4.2607e-07
4.26104e-07
5.40981e-07
3.17412e-07
4.2607e-07
4.26104e-07
5.40978e-07
3.17413e-07
4.2607e-07
4.26105e-07
5.40978e-07
3.17412e-07
4.26069e-07
4.26104e-07
5.40981e-07
3.17412e-07
4.2607e-07
4.26105e-07
5.40981e-07
3.17414e-07
4.26069e-07
4.26105e-07
5.40978e-07
3.17414e-07
4.26068e-07
4.26105e-07
5.40977e-07
3.17413e-07
4.26067e-07
4.26105e-07
5.40977e-07
3.17412e-07
4.26066e-07
4.26106e-07
5.40979e-07
3.17414e-07
4.26066e-07
4.26106e-07
5.40978e-07
3.17414e-07
4.26066e-07
4.26106e-07
5.40979e-07
3.17413e-07
4.26067e-07
4.26105e-07
5.40976e-07
3.17413e-07
4.26068e-07
4.26105e-07
5.40977e-07
3.17413e-07
4.26068e-07
4.26106e-07
5.40981e-07
3.17413e-07
4.26068e-07
4.26105e-07
5.40981e-07
3.17413e-07
4.26068e-07
4.26105e-07
5.40978e-07
3.17413e-07
4.26068e-07
4.26105e-07
5.40977e-07
3.17413e-07
4.26068e-07
4.26106e-07
5.40977e-07
3.17413e-07
4.26068e-07
4.26106e-07
5.40977e-07
3.17412e-07
4.26067e-07
4.26106e-07
5.4098e-07
3.17412e-07
4.26068e-07
4.26106e-07
5.40977e-07
3.17413e-07
4.26068e-07
4.26106e-07
5.40978e-07
3.17414e-07
4.26069e-07
4.26106e-07
5.40981e-07
3.17415e-07
4.26069e-07
4.26106e-07
5.4098e-07
3.17414e-07
4.26069e-07
4.26106e-07
5.40977e-07
3.17414e-07
4.26068e-07
4.26106e-07
5.40976e-07
3.17413e-07
4.26068e-07
4.26107e-07
5.40976e-07
3.17413e-07
4.26069e-07
4.26106e-07
5.40975e-07
3.17413e-07
4.26068e-07
4.26105e-07
5.40976e-07
3.17413e-07
4.26068e-07
4.26105e-07
5.40975e-07
3.17413e-07
4.26067e-07
4.26105e-07
5.40976e-07
3.17412e-07
4.26067e-07
4.26105e-07
5.40982e-07
3.17412e-07
4.26067e-07
4.26105e-07
5.4098e-07
3.17413e-07
4.26069e-07
4.26105e-07
5.40978e-07
3.17415e-07
4.26068e-07
4.26105e-07
5.4098e-07
3.17415e-07
4.26068e-07
4.26105e-07
5.40976e-07
3.17414e-07
4.26068e-07
4.26105e-07
5.40975e-07
3.17414e-07
4.26068e-07
4.26105e-07
5.4098e-07
3.17413e-07
4.26068e-07
4.26104e-07
5.4098e-07
3.17413e-07
4.26069e-07
4.26105e-07
5.40978e-07
3.17413e-07
4.2607e-07
4.26104e-07
5.40973e-07
3.17413e-07
4.2607e-07
4.26105e-07
5.40975e-07
3.17413e-07
4.26071e-07
4.26106e-07
5.4098e-07
3.17413e-07
4.26071e-07
4.26107e-07
5.4098e-07
3.17414e-07
4.26072e-07
4.26108e-07
5.40978e-07
3.17416e-07
4.26073e-07
4.26109e-07
5.40975e-07
3.17417e-07
4.26074e-07
4.2611e-07
5.40978e-07
3.17419e-07
4.26075e-07
4.26111e-07
5.4098e-07
3.1742e-07
4.26076e-07
4.26112e-07
5.40982e-07
3.17421e-07
4.26077e-07
4.26114e-07
5.40977e-07
3.17423e-07
4.26079e-07
4.26116e-07
5.40978e-07
3.17424e-07
4.2608e-07
4.26117e-07
5.40982e-07
3.17425e-07
4.2608e-07
4.26117e-07
5.40981e-07
3.17425e-07
4.2608e-07
4.26117e-07
5.40978e-07
3.17427e-07
4.26078e-07
4.26114e-07
5.40973e-07
3.17428e-07
4.26073e-07
4.26109e-07
5.40968e-07
3.17431e-07
4.26062e-07
4.26098e-07
5.40962e-07
3.17431e-07
4.26036e-07
4.2607e-07
5.40935e-07
3.17397e-07
4.25997e-07
4.26029e-07
5.40785e-07
3.14754e-07
4.11553e-07
4.11559e-07
5.21629e-07
9.98075e-09
1.7138e-08
1.52896e-08
9.1956e-09
1.54088e-08
1.37689e-08
1.45917e-07
1.45904e-07
1.46214e-07
1.4559e-07
1.53096e-08
1.80327e-08
7.79022e-09
1.54198e-08
2.0144e-08
8.95179e-09
9.86672e-09
9.63997e-09
2.39614e-08
2.06375e-08
2.51728e-08
2.21229e-08
9.07195e-09
8.65199e-09
1.94741e-08
1.90946e-08
2.10886e-08
2.07569e-08
2.71782e-08
2.18267e-08
2.87344e-08
7.69075e-09
7.61659e-09
3.73903e-08
2.30915e-08
3.28339e-08
8.49822e-09
9.56945e-09
9.89281e-09
2.57411e-08
2.28875e-08
2.7603e-08
2.5436e-08
8.55281e-09
8.74394e-09
2.18724e-08
2.1539e-08
2.44608e-08
2.41374e-08
2.94627e-08
2.45413e-08
3.17438e-08
7.56985e-09
8.22085e-09
3.09636e-08
2.65602e-08
2.81847e-08
8.59596e-09
9.85124e-09
1.0789e-08
2.82926e-08
2.6367e-08
3.05615e-08
2.95938e-08
8.69871e-09
9.63526e-09
2.53799e-08
2.50407e-08
2.85006e-08
2.81584e-08
3.24954e-08
2.81305e-08
3.48948e-08
8.19207e-09
9.42541e-09
2.80974e-08
3.07759e-08
2.91955e-08
9.5018e-09
1.07725e-08
1.24105e-08
3.1324e-08
3.0749e-08
3.39736e-08
3.47461e-08
9.61987e-09
1.15066e-08
2.96548e-08
2.92641e-08
3.34734e-08
3.30808e-08
3.56714e-08
3.30205e-08
3.78227e-08
9.42189e-09
1.14714e-08
3.02898e-08
3.6013e-08
3.41615e-08
1.11738e-08
1.24604e-08
1.54284e-08
3.50829e-08
3.62117e-08
3.94348e-08
4.12427e-08
1.15708e-08
1.4884e-08
3.48395e-08
3.44541e-08
3.97566e-08
3.93649e-08
3.84013e-08
3.91127e-08
4.09299e-08
1.15416e-08
1.49321e-08
3.56243e-08
4.26064e-08
4.059e-08
1.42358e-08
1.55925e-08
2.03034e-08
4.1198e-08
4.31337e-08
4.72701e-08
4.9121e-08
1.50749e-08
2.02734e-08
4.1609e-08
4.13431e-08
4.7609e-08
4.73748e-08
4.21807e-08
4.71351e-08
4.68743e-08
1.51254e-08
2.03045e-08
4.24304e-08
5.07046e-08
4.83218e-08
1.94661e-08
2.06172e-08
2.72898e-08
4.96187e-08
5.13836e-08
5.71864e-08
5.86678e-08
2.06103e-08
2.74343e-08
4.99173e-08
4.97794e-08
5.73994e-08
5.77275e-08
4.90798e-08
5.72814e-08
5.66047e-08
2.06486e-08
2.76488e-08
5.05336e-08
6.06094e-08
5.79104e-08
2.6716e-08
2.77363e-08
3.62337e-08
5.99955e-08
6.13121e-08
6.92921e-08
7.02672e-08
2.78771e-08
3.64221e-08
6.01597e-08
6.05213e-08
6.93624e-08
6.96513e-08
5.93397e-08
6.93872e-08
6.86357e-08
2.80859e-08
3.66481e-08
6.06743e-08
7.23064e-08
6.95647e-08
3.59178e-08
3.68531e-08
4.81902e-08
7.25611e-08
7.3462e-08
8.35432e-08
8.41782e-08
3.70442e-08
4.83411e-08
7.25758e-08
7.28663e-08
8.35944e-08
8.37579e-08
7.18972e-08
8.34756e-08
8.28213e-08
3.7271e-08
4.86842e-08
7.26842e-08
8.62327e-08
8.34873e-08
4.78938e-08
4.91193e-08
6.41073e-08
8.75946e-08
8.82076e-08
1.00051e-07
1.00517e-07
4.92569e-08
6.41526e-08
8.77495e-08
8.78425e-08
1.00303e-07
1.003e-07
8.69501e-08
1.00053e-07
9.96862e-08
4.96082e-08
6.46487e-08
8.75721e-08
1.02382e-07
1.0009e-07
6.3836e-08
6.54098e-08
8.474e-08
1.0464e-07
1.05008e-07
1.20074e-07
1.20271e-07
6.54484e-08
8.4752e-08
1.04805e-07
1.04813e-07
1.20285e-07
1.2026e-07
1.04315e-07
1.20101e-07
1.19815e-07
6.59559e-08
8.52142e-08
1.04655e-07
1.21741e-07
1.20146e-07
8.46123e-08
8.76419e-08
1.12143e-07
1.25447e-07
1.25646e-07
1.42695e-07
1.42865e-07
8.76549e-08
1.12169e-07
1.2574e-07
1.25673e-07
1.42848e-07
1.42801e-07
1.25234e-07
1.42743e-07
1.4259e-07
8.81383e-08
1.12513e-07
1.25547e-07
1.43921e-07
1.42766e-07
1.12106e-07
1.1731e-07
1.50517e-07
1.49202e-07
1.4934e-07
1.71178e-07
1.71201e-07
1.17352e-07
1.50618e-07
1.49297e-07
1.49277e-07
1.71287e-07
1.71257e-07
1.49115e-07
1.71236e-07
1.71059e-07
1.17678e-07
1.50799e-07
1.49269e-07
1.71859e-07
1.71205e-07
1.50544e-07
1.58412e-07
2.08435e-07
1.79402e-07
1.794e-07
2.08013e-07
2.07955e-07
1.58489e-07
2.08285e-07
1.79541e-07
1.79501e-07
2.08157e-07
2.08155e-07
1.79268e-07
2.08005e-07
2.07849e-07
1.58647e-07
2.08655e-07
1.79413e-07
2.08561e-07
2.07965e-07
2.08188e-07
2.20952e-07
2.9664e-07
2.19477e-07
2.19418e-07
2.60329e-07
2.60298e-07
2.2078e-07
2.96529e-07
2.196e-07
2.19625e-07
2.6038e-07
2.60445e-07
2.19325e-07
2.60304e-07
2.60244e-07
2.21211e-07
2.969e-07
2.19425e-07
2.6061e-07
2.6029e-07
2.96481e-07
3.14549e-07
3.98453e-07
2.75293e-07
2.75275e-07
3.19962e-07
3.19968e-07
3.14461e-07
3.9842e-07
2.75325e-07
2.75391e-07
3.19954e-07
3.20019e-07
2.7523e-07
3.19929e-07
3.19945e-07
3.14767e-07
3.98527e-07
2.7526e-07
3.20014e-07
3.19937e-07
3.98436e-07
4.1492e-07
4.81789e-07
3.34628e-07
3.3464e-07
3.76162e-07
3.76175e-07
4.14892e-07
4.81759e-07
3.3461e-07
3.34679e-07
3.76124e-07
3.76199e-07
3.34619e-07
3.76095e-07
3.76157e-07
4.14977e-07
4.81824e-07
3.346e-07
3.76138e-07
3.76119e-07
4.81811e-07
4.93917e-07
5.27096e-07
3.87819e-07
3.87833e-07
4.11991e-07
4.12001e-07
4.93884e-07
5.27053e-07
3.87778e-07
3.87855e-07
4.11946e-07
4.12022e-07
3.87816e-07
4.11907e-07
4.1199e-07
4.93945e-07
5.27115e-07
3.87775e-07
4.11948e-07
4.11944e-07
5.27123e-07
5.31723e-07
5.38087e-07
4.16609e-07
4.16623e-07
4.23596e-07
4.23603e-07
5.31678e-07
5.38039e-07
4.16566e-07
4.16641e-07
4.23548e-07
4.2362e-07
4.16611e-07
4.23503e-07
4.23595e-07
5.31738e-07
5.38096e-07
4.16565e-07
4.23545e-07
4.23549e-07
5.38116e-07
5.3961e-07
5.39764e-07
4.24545e-07
4.24555e-07
4.25751e-07
4.25764e-07
5.39561e-07
5.39712e-07
4.245e-07
4.24571e-07
4.25706e-07
4.25777e-07
4.24546e-07
4.2566e-07
4.25751e-07
5.39615e-07
5.39767e-07
4.245e-07
4.257e-07
4.25706e-07
5.39787e-07
5.40778e-07
5.40033e-07
4.25894e-07
4.2591e-07
4.26069e-07
4.26088e-07
5.40727e-07
5.39981e-07
4.25851e-07
4.25922e-07
4.26026e-07
4.26097e-07
4.25895e-07
4.2598e-07
4.26067e-07
5.40779e-07
5.40036e-07
4.2585e-07
4.26018e-07
4.26022e-07
5.4005e-07
5.40983e-07
5.40038e-07
4.26091e-07
4.2611e-07
4.2612e-07
4.26141e-07
5.40933e-07
5.39989e-07
4.26048e-07
4.2612e-07
4.26077e-07
4.26149e-07
4.26088e-07
4.26031e-07
4.26113e-07
5.40983e-07
5.40041e-07
4.26043e-07
4.26069e-07
4.26069e-07
5.40044e-07
5.40989e-07
5.40054e-07
4.26125e-07
4.26147e-07
4.26136e-07
4.26157e-07
5.40941e-07
5.40006e-07
4.26082e-07
4.26155e-07
4.26093e-07
4.26165e-07
4.26119e-07
4.26047e-07
4.26128e-07
5.40989e-07
5.40058e-07
4.26074e-07
4.26085e-07
4.26083e-07
5.40058e-07
5.41004e-07
5.40061e-07
4.2614e-07
4.26161e-07
4.26146e-07
4.2617e-07
5.40957e-07
5.40013e-07
4.26097e-07
4.26169e-07
4.26105e-07
4.26177e-07
4.26132e-07
4.2606e-07
4.2614e-07
5.41004e-07
5.40065e-07
4.26088e-07
4.26097e-07
4.26098e-07
5.40065e-07
5.4101e-07
5.40065e-07
4.2615e-07
4.26174e-07
4.2615e-07
4.26179e-07
5.40964e-07
5.4002e-07
4.26108e-07
4.26181e-07
4.2611e-07
4.26185e-07
4.26144e-07
4.26068e-07
4.26145e-07
5.4101e-07
5.4007e-07
4.26102e-07
4.26104e-07
4.26107e-07
5.40071e-07
5.41014e-07
5.40065e-07
4.26153e-07
4.26182e-07
4.2615e-07
4.26181e-07
5.40971e-07
5.40023e-07
4.26113e-07
4.26187e-07
4.26112e-07
4.26186e-07
4.26147e-07
4.2607e-07
4.26146e-07
5.41016e-07
5.40072e-07
4.2611e-07
4.26106e-07
4.2611e-07
5.40071e-07
5.41013e-07
5.40065e-07
4.26152e-07
4.26183e-07
4.26149e-07
4.26181e-07
5.40972e-07
5.40023e-07
4.26114e-07
4.26189e-07
4.26113e-07
4.26186e-07
4.26147e-07
4.26071e-07
4.26146e-07
5.41017e-07
5.40072e-07
4.26111e-07
4.26106e-07
4.26109e-07
5.40067e-07
5.41015e-07
5.40059e-07
4.26151e-07
4.26183e-07
4.26149e-07
4.26181e-07
5.40975e-07
5.40016e-07
4.26115e-07
4.26188e-07
4.26113e-07
4.26187e-07
4.26148e-07
4.2607e-07
4.26146e-07
5.41019e-07
5.40067e-07
4.26111e-07
4.26106e-07
4.26109e-07
5.40069e-07
5.4101e-07
5.4006e-07
4.2615e-07
4.26183e-07
4.26148e-07
4.26181e-07
5.40967e-07
5.4002e-07
4.26115e-07
4.26188e-07
4.26114e-07
4.26187e-07
4.26148e-07
4.2607e-07
4.26146e-07
5.41013e-07
5.40071e-07
4.26111e-07
4.26106e-07
4.2611e-07
5.40063e-07
5.41006e-07
5.40068e-07
4.26149e-07
4.26183e-07
4.26147e-07
4.26181e-07
5.40966e-07
5.40029e-07
4.26116e-07
4.26189e-07
4.26114e-07
4.26187e-07
4.26148e-07
4.2607e-07
4.26146e-07
5.41012e-07
5.40077e-07
4.26112e-07
4.26105e-07
4.26109e-07
5.40058e-07
5.41012e-07
5.4007e-07
4.26149e-07
4.26182e-07
4.26147e-07
4.26183e-07
5.40974e-07
5.40028e-07
4.26116e-07
4.26189e-07
4.26115e-07
4.26187e-07
4.26148e-07
4.2607e-07
4.26146e-07
5.41018e-07
5.40079e-07
4.26111e-07
4.26105e-07
4.26109e-07
5.40059e-07
5.41017e-07
5.40067e-07
4.26148e-07
4.26185e-07
4.26146e-07
4.26185e-07
5.40978e-07
5.40023e-07
4.26117e-07
4.26188e-07
4.26116e-07
4.26186e-07
4.26148e-07
4.2607e-07
4.26146e-07
5.41022e-07
5.40075e-07
4.26111e-07
4.26104e-07
4.2611e-07
5.40059e-07
5.41016e-07
5.40067e-07
4.26148e-07
4.26188e-07
4.26146e-07
4.26187e-07
5.40974e-07
5.40022e-07
4.26118e-07
4.26188e-07
4.26116e-07
4.26187e-07
4.26148e-07
4.26071e-07
4.26146e-07
5.4102e-07
5.40075e-07
4.26111e-07
4.26104e-07
4.2611e-07
5.4006e-07
5.41015e-07
5.40067e-07
4.26148e-07
4.26189e-07
4.26146e-07
4.26187e-07
5.40973e-07
5.40022e-07
4.26118e-07
4.26188e-07
4.26116e-07
4.26186e-07
4.26148e-07
4.2607e-07
4.26146e-07
5.41019e-07
5.40075e-07
4.26111e-07
4.26104e-07
4.2611e-07
5.40059e-07
5.41015e-07
5.40067e-07
4.26148e-07
4.26188e-07
4.26146e-07
4.26186e-07
5.40973e-07
5.4002e-07
4.26117e-07
4.26188e-07
4.26116e-07
4.26187e-07
4.26148e-07
4.2607e-07
4.26147e-07
5.41019e-07
5.40074e-07
4.26111e-07
4.26104e-07
4.2611e-07
5.40059e-07
5.41015e-07
5.40068e-07
4.26147e-07
4.26188e-07
4.26145e-07
4.26187e-07
5.40971e-07
5.40021e-07
4.26117e-07
4.26188e-07
4.26115e-07
4.26186e-07
4.26148e-07
4.26071e-07
4.26147e-07
5.41019e-07
5.40075e-07
4.26112e-07
4.26104e-07
4.2611e-07
5.40057e-07
5.41015e-07
5.40068e-07
4.26147e-07
4.26188e-07
4.26146e-07
4.26187e-07
5.40971e-07
5.40021e-07
4.26117e-07
4.26188e-07
4.26115e-07
4.26186e-07
4.26148e-07
4.2607e-07
4.26146e-07
5.4102e-07
5.40075e-07
4.26112e-07
4.26105e-07
4.2611e-07
5.40059e-07
5.41015e-07
5.40067e-07
4.26147e-07
4.26188e-07
4.26145e-07
4.26187e-07
5.40971e-07
5.40022e-07
4.26117e-07
4.26188e-07
4.26115e-07
4.26186e-07
4.26148e-07
4.26069e-07
4.26146e-07
5.4102e-07
5.40075e-07
4.26111e-07
4.26104e-07
4.26109e-07
5.40061e-07
5.41015e-07
5.40067e-07
4.26147e-07
4.26189e-07
4.26145e-07
4.26187e-07
5.40972e-07
5.40022e-07
4.26117e-07
4.26188e-07
4.26115e-07
4.26186e-07
4.26148e-07
4.2607e-07
4.26146e-07
5.41019e-07
5.40075e-07
4.26111e-07
4.26105e-07
4.26109e-07
5.40059e-07
5.41014e-07
5.40069e-07
4.26147e-07
4.26189e-07
4.26144e-07
4.26186e-07
5.40972e-07
5.40024e-07
4.26117e-07
4.26188e-07
4.26116e-07
4.26187e-07
4.26147e-07
4.26069e-07
4.26146e-07
5.41019e-07
5.40075e-07
4.26111e-07
4.26105e-07
4.2611e-07
5.40056e-07
5.41013e-07
5.40069e-07
4.26147e-07
4.26187e-07
4.26145e-07
4.26184e-07
5.40974e-07
5.40027e-07
4.26119e-07
4.26189e-07
4.26116e-07
4.26187e-07
4.26147e-07
4.26068e-07
4.26146e-07
5.4102e-07
5.40075e-07
4.26111e-07
4.26105e-07
4.2611e-07
5.40055e-07
5.41014e-07
5.4007e-07
4.26146e-07
4.26185e-07
4.26144e-07
4.26182e-07
5.40974e-07
5.40025e-07
4.26118e-07
4.26189e-07
4.26117e-07
4.26188e-07
4.26148e-07
4.26067e-07
4.26146e-07
5.4102e-07
5.40074e-07
4.26112e-07
4.26106e-07
4.2611e-07
5.40056e-07
5.41014e-07
5.40072e-07
4.26146e-07
4.26184e-07
4.26145e-07
4.26182e-07
5.40973e-07
5.40025e-07
4.26119e-07
4.2619e-07
4.26117e-07
4.26188e-07
4.26148e-07
4.26066e-07
4.26146e-07
5.41019e-07
5.40075e-07
4.26112e-07
4.26106e-07
4.2611e-07
5.40057e-07
5.41016e-07
5.40072e-07
4.26147e-07
4.26183e-07
4.26146e-07
4.26181e-07
5.40972e-07
5.40025e-07
4.26118e-07
4.2619e-07
4.26117e-07
4.26188e-07
4.26148e-07
4.26066e-07
4.26146e-07
5.41019e-07
5.40076e-07
4.26111e-07
4.26106e-07
4.2611e-07
5.40057e-07
5.41016e-07
5.40072e-07
4.26149e-07
4.26183e-07
4.26148e-07
4.26181e-07
5.40972e-07
5.40026e-07
4.26118e-07
4.2619e-07
4.26117e-07
4.26188e-07
4.26148e-07
4.26066e-07
4.26146e-07
5.4102e-07
5.40077e-07
4.26112e-07
4.26106e-07
4.2611e-07
5.40057e-07
5.41017e-07
5.40072e-07
4.26151e-07
4.26183e-07
4.26149e-07
4.26181e-07
5.40973e-07
5.40027e-07
4.26118e-07
4.26189e-07
4.26116e-07
4.26187e-07
4.26147e-07
4.26067e-07
4.26146e-07
5.41021e-07
5.40076e-07
4.26111e-07
4.26105e-07
4.26109e-07
5.40055e-07
5.41017e-07
5.40073e-07
4.26152e-07
4.26183e-07
4.2615e-07
4.26182e-07
5.40974e-07
5.40027e-07
4.26118e-07
4.26189e-07
4.26116e-07
4.26187e-07
4.26147e-07
4.26068e-07
4.26145e-07
5.41021e-07
5.40075e-07
4.26111e-07
4.26105e-07
4.26109e-07
5.40058e-07
5.41017e-07
5.40074e-07
4.26153e-07
4.26183e-07
4.26152e-07
4.26182e-07
5.40975e-07
5.40027e-07
4.26117e-07
4.26189e-07
4.26115e-07
4.26187e-07
4.26147e-07
4.26068e-07
4.26145e-07
5.4102e-07
5.40075e-07
4.26111e-07
4.26107e-07
4.26109e-07
5.40061e-07
5.41018e-07
5.40074e-07
4.26154e-07
4.26184e-07
4.26152e-07
4.26182e-07
5.40975e-07
5.40028e-07
4.26117e-07
4.26188e-07
4.26115e-07
4.26187e-07
4.26147e-07
4.26068e-07
4.26145e-07
5.41019e-07
5.40075e-07
4.26111e-07
4.26105e-07
4.26109e-07
5.40059e-07
5.41019e-07
5.40075e-07
4.26154e-07
4.26184e-07
4.26153e-07
4.26182e-07
5.40975e-07
5.40029e-07
4.26117e-07
4.26189e-07
4.26115e-07
4.26187e-07
4.26147e-07
4.26068e-07
4.26146e-07
5.4102e-07
5.40075e-07
4.26111e-07
4.26105e-07
4.26109e-07
5.40055e-07
5.41019e-07
5.40075e-07
4.26155e-07
4.26184e-07
4.26153e-07
4.26182e-07
5.40976e-07
5.40029e-07
4.26117e-07
4.26188e-07
4.26115e-07
4.26187e-07
4.26148e-07
4.26068e-07
4.26146e-07
5.41019e-07
5.40075e-07
4.26111e-07
4.26105e-07
4.26109e-07
5.40055e-07
5.41019e-07
5.40076e-07
4.26155e-07
4.26184e-07
4.26154e-07
4.26183e-07
5.40977e-07
5.4003e-07
4.26117e-07
4.26188e-07
4.26114e-07
4.26187e-07
4.26147e-07
4.26068e-07
4.26146e-07
5.41019e-07
5.40076e-07
4.26111e-07
4.26106e-07
4.26109e-07
5.40056e-07
5.4102e-07
5.40076e-07
4.26156e-07
4.26185e-07
4.26154e-07
4.26183e-07
5.40977e-07
5.4003e-07
4.26116e-07
4.26188e-07
4.26114e-07
4.26186e-07
4.26148e-07
4.26068e-07
4.26146e-07
5.4102e-07
5.40075e-07
4.26111e-07
4.26107e-07
4.26109e-07
5.40056e-07
5.4102e-07
5.40076e-07
4.26156e-07
4.26185e-07
4.26154e-07
4.26183e-07
5.40977e-07
5.40029e-07
4.26116e-07
4.26188e-07
4.26114e-07
4.26186e-07
4.26148e-07
4.26067e-07
4.26146e-07
5.4102e-07
5.40075e-07
4.2611e-07
4.26106e-07
4.26108e-07
5.40058e-07
5.41021e-07
5.40075e-07
4.26156e-07
4.26184e-07
4.26154e-07
4.26183e-07
5.40977e-07
5.4003e-07
4.26116e-07
4.26188e-07
4.26114e-07
4.26187e-07
4.26148e-07
4.26068e-07
4.26146e-07
5.4102e-07
5.40075e-07
4.2611e-07
4.26106e-07
4.26107e-07
5.40056e-07
5.4102e-07
5.40075e-07
4.26156e-07
4.26185e-07
4.26154e-07
4.26183e-07
5.40977e-07
5.4003e-07
4.26115e-07
4.26189e-07
4.26114e-07
4.26187e-07
4.26148e-07
4.26068e-07
4.26146e-07
5.4102e-07
5.40075e-07
4.26109e-07
4.26106e-07
4.26107e-07
5.40059e-07
5.41019e-07
5.40076e-07
4.26157e-07
4.26185e-07
4.26155e-07
4.26183e-07
5.40977e-07
5.4003e-07
4.26115e-07
4.26189e-07
4.26114e-07
4.26187e-07
4.26147e-07
4.26069e-07
4.26145e-07
5.4102e-07
5.40075e-07
4.26108e-07
4.26106e-07
4.26106e-07
5.40061e-07
5.4102e-07
5.40076e-07
4.26156e-07
4.26185e-07
4.26154e-07
4.26183e-07
5.40977e-07
5.4003e-07
4.26116e-07
4.26189e-07
4.26114e-07
4.26187e-07
4.26147e-07
4.26069e-07
4.26145e-07
5.41019e-07
5.40076e-07
4.26108e-07
4.26106e-07
4.26105e-07
5.40058e-07
5.4102e-07
5.40076e-07
4.26156e-07
4.26184e-07
4.26154e-07
4.26183e-07
5.40977e-07
5.40031e-07
4.26116e-07
4.26188e-07
4.26114e-07
4.26187e-07
4.26146e-07
4.26069e-07
4.26145e-07
5.4102e-07
5.40076e-07
4.26107e-07
4.26106e-07
4.26105e-07
5.40055e-07
5.4102e-07
5.40076e-07
4.26156e-07
4.26184e-07
4.26154e-07
4.26182e-07
5.40978e-07
5.4003e-07
4.26115e-07
4.26188e-07
4.26113e-07
4.26186e-07
4.26147e-07
4.26068e-07
4.26145e-07
5.4102e-07
5.40076e-07
4.26107e-07
4.26106e-07
4.26106e-07
5.40054e-07
5.4102e-07
5.40075e-07
4.26156e-07
4.26184e-07
4.26154e-07
4.26182e-07
5.40977e-07
5.4003e-07
4.26115e-07
4.26188e-07
4.26113e-07
4.26186e-07
4.26147e-07
4.26068e-07
4.26145e-07
5.4102e-07
5.40074e-07
4.26108e-07
4.26107e-07
4.26106e-07
5.40054e-07
5.4102e-07
5.40076e-07
4.26156e-07
4.26184e-07
4.26154e-07
4.26183e-07
5.40977e-07
5.4003e-07
4.26115e-07
4.26188e-07
4.26113e-07
4.26186e-07
4.26147e-07
4.26069e-07
4.26145e-07
5.41019e-07
5.40074e-07
4.26107e-07
4.26106e-07
4.26106e-07
5.40054e-07
5.4102e-07
5.40076e-07
4.26156e-07
4.26185e-07
4.26154e-07
4.26183e-07
5.40977e-07
5.4003e-07
4.26115e-07
4.26189e-07
4.26113e-07
4.26187e-07
4.26147e-07
4.26068e-07
4.26145e-07
5.41018e-07
5.40076e-07
4.26107e-07
4.26105e-07
4.26106e-07
5.40055e-07
5.4102e-07
5.40075e-07
4.26156e-07
4.26184e-07
4.26154e-07
4.26183e-07
5.40977e-07
5.4003e-07
4.26115e-07
4.26188e-07
4.26113e-07
4.26187e-07
4.26147e-07
4.26068e-07
4.26145e-07
5.4102e-07
5.40075e-07
4.26107e-07
4.26105e-07
4.26106e-07
5.40054e-07
5.4102e-07
5.40075e-07
4.26156e-07
4.26184e-07
4.26154e-07
4.26183e-07
5.40977e-07
5.4003e-07
4.26115e-07
4.2619e-07
4.26113e-07
4.26187e-07
4.26147e-07
4.26067e-07
4.26146e-07
5.4102e-07
5.40075e-07
4.26107e-07
4.26105e-07
4.26106e-07
5.40057e-07
5.41019e-07
5.40075e-07
4.26156e-07
4.26184e-07
4.26154e-07
4.26182e-07
5.40977e-07
5.4003e-07
4.26114e-07
4.26189e-07
4.26112e-07
4.26187e-07
4.26148e-07
4.26067e-07
4.26146e-07
5.41019e-07
5.40074e-07
4.26108e-07
4.26105e-07
4.26106e-07
5.40061e-07
5.41019e-07
5.40075e-07
4.26156e-07
4.26184e-07
4.26154e-07
4.26182e-07
5.40977e-07
5.4003e-07
4.26114e-07
4.26188e-07
4.26112e-07
4.26187e-07
4.26147e-07
4.26067e-07
4.26145e-07
5.41019e-07
5.40076e-07
4.26108e-07
4.26105e-07
4.26106e-07
5.40058e-07
5.4102e-07
5.40075e-07
4.26156e-07
4.26184e-07
4.26154e-07
4.26182e-07
5.40977e-07
5.40029e-07
4.26114e-07
4.26188e-07
4.26112e-07
4.26186e-07
4.26147e-07
4.26069e-07
4.26145e-07
5.4102e-07
5.40076e-07
4.26108e-07
4.26105e-07
4.26106e-07
5.40057e-07
5.4102e-07
5.40075e-07
4.26156e-07
4.26184e-07
4.26155e-07
4.26183e-07
5.40976e-07
5.40029e-07
4.26114e-07
4.26188e-07
4.26112e-07
4.26186e-07
4.26147e-07
4.26068e-07
4.26145e-07
5.41021e-07
5.40074e-07
4.26107e-07
4.26105e-07
4.26105e-07
5.40058e-07
5.41019e-07
5.40075e-07
4.26157e-07
4.26185e-07
4.26155e-07
4.26183e-07
5.40976e-07
5.4003e-07
4.26115e-07
4.26188e-07
4.26113e-07
4.26187e-07
4.26147e-07
4.26069e-07
4.26145e-07
5.4102e-07
5.40074e-07
4.26107e-07
4.26105e-07
4.26105e-07
5.40053e-07
5.41019e-07
5.40075e-07
4.26156e-07
4.26185e-07
4.26155e-07
4.26183e-07
5.40977e-07
5.4003e-07
4.26114e-07
4.26189e-07
4.26113e-07
4.26187e-07
4.26147e-07
4.26068e-07
4.26146e-07
5.41018e-07
5.40075e-07
4.26107e-07
4.26105e-07
4.26106e-07
5.40055e-07
5.4102e-07
5.40075e-07
4.26156e-07
4.26185e-07
4.26155e-07
4.26183e-07
5.40977e-07
5.4003e-07
4.26115e-07
4.26188e-07
4.26113e-07
4.26187e-07
4.26147e-07
4.26068e-07
4.26145e-07
5.41019e-07
5.40075e-07
4.26107e-07
4.26105e-07
4.26105e-07
5.40059e-07
5.4102e-07
5.40075e-07
4.26157e-07
4.26185e-07
4.26155e-07
4.26183e-07
5.40977e-07
5.4003e-07
4.26115e-07
4.26188e-07
4.26113e-07
4.26187e-07
4.26147e-07
4.26068e-07
4.26145e-07
5.41019e-07
5.40076e-07
4.26107e-07
4.26104e-07
4.26105e-07
5.40057e-07
5.41019e-07
5.40075e-07
4.26156e-07
4.26185e-07
4.26155e-07
4.26183e-07
5.40977e-07
5.40031e-07
4.26114e-07
4.26189e-07
4.26113e-07
4.26187e-07
4.26147e-07
4.26069e-07
4.26145e-07
5.4102e-07
5.40076e-07
4.26107e-07
4.26105e-07
4.26105e-07
5.40055e-07
5.41019e-07
5.40076e-07
4.26156e-07
4.26185e-07
4.26154e-07
4.26183e-07
5.40978e-07
5.4003e-07
4.26115e-07
4.26189e-07
4.26113e-07
4.26187e-07
4.26147e-07
4.2607e-07
4.26145e-07
5.4102e-07
5.40075e-07
4.26107e-07
4.26104e-07
4.26105e-07
5.40052e-07
5.4102e-07
5.40076e-07
4.26156e-07
4.26185e-07
4.26154e-07
4.26182e-07
5.40978e-07
5.4003e-07
4.26114e-07
4.26188e-07
4.26113e-07
4.26187e-07
4.26147e-07
4.2607e-07
4.26145e-07
5.4102e-07
5.40076e-07
4.26107e-07
4.26105e-07
4.26105e-07
5.40055e-07
5.4102e-07
5.40075e-07
4.26156e-07
4.26184e-07
4.26154e-07
4.26182e-07
5.40977e-07
5.4003e-07
4.26114e-07
4.26188e-07
4.26112e-07
4.26186e-07
4.26147e-07
4.2607e-07
4.26145e-07
5.4102e-07
5.40076e-07
4.26107e-07
4.26105e-07
4.26105e-07
5.40059e-07
5.4102e-07
5.40075e-07
4.26156e-07
4.26184e-07
4.26153e-07
4.26182e-07
5.40977e-07
5.40031e-07
4.26114e-07
4.26188e-07
4.26112e-07
4.26186e-07
4.26147e-07
4.26071e-07
4.26145e-07
5.41021e-07
5.40075e-07
4.26107e-07
4.26106e-07
4.26105e-07
5.40057e-07
5.41019e-07
5.40075e-07
4.26155e-07
4.26184e-07
4.26154e-07
4.26182e-07
5.40978e-07
5.4003e-07
4.26114e-07
4.26188e-07
4.26112e-07
4.26186e-07
4.26147e-07
4.26071e-07
4.26145e-07
5.4102e-07
5.40075e-07
4.26107e-07
4.26107e-07
4.26106e-07
5.40055e-07
5.41019e-07
5.40075e-07
4.26156e-07
4.26185e-07
4.26154e-07
4.26182e-07
5.40978e-07
5.4003e-07
4.26115e-07
4.26189e-07
4.26112e-07
4.26186e-07
4.26148e-07
4.26072e-07
4.26146e-07
5.41019e-07
5.40075e-07
4.26109e-07
4.26108e-07
4.26106e-07
5.40054e-07
5.41019e-07
5.40074e-07
4.26157e-07
4.26185e-07
4.26155e-07
4.26183e-07
5.40977e-07
5.40031e-07
4.26115e-07
4.26189e-07
4.26113e-07
4.26187e-07
4.26149e-07
4.26073e-07
4.26147e-07
5.4102e-07
5.40076e-07
4.26109e-07
4.26109e-07
4.26107e-07
5.40058e-07
5.41019e-07
5.40075e-07
4.26158e-07
4.26187e-07
4.26155e-07
4.26184e-07
5.40978e-07
5.4003e-07
4.26116e-07
4.26191e-07
4.26114e-07
4.26188e-07
4.2615e-07
4.26073e-07
4.26147e-07
5.41021e-07
5.40075e-07
4.2611e-07
4.26109e-07
4.26107e-07
5.4006e-07
5.41019e-07
5.40075e-07
4.2616e-07
4.26188e-07
4.26157e-07
4.26185e-07
5.40978e-07
5.40032e-07
4.26118e-07
4.26192e-07
4.26115e-07
4.26189e-07
4.26151e-07
4.26074e-07
4.26148e-07
5.4102e-07
5.40075e-07
4.26111e-07
4.2611e-07
4.26107e-07
5.40059e-07
5.4102e-07
5.40077e-07
4.26163e-07
4.26191e-07
4.26158e-07
4.26186e-07
5.40979e-07
5.40031e-07
4.26121e-07
4.26195e-07
4.26117e-07
4.26191e-07
4.26153e-07
4.26074e-07
4.26149e-07
5.4102e-07
5.40077e-07
4.26113e-07
4.2611e-07
4.26108e-07
5.40054e-07
5.41021e-07
5.40077e-07
4.26165e-07
4.26193e-07
4.26159e-07
4.26187e-07
5.40979e-07
5.40031e-07
4.26123e-07
4.26197e-07
4.26118e-07
4.26192e-07
4.26155e-07
4.26074e-07
4.2615e-07
5.41021e-07
5.40077e-07
4.26115e-07
4.26111e-07
4.26109e-07
5.40057e-07
5.41022e-07
5.40076e-07
4.26167e-07
4.26194e-07
4.2616e-07
4.26186e-07
5.40978e-07
5.4003e-07
4.26126e-07
4.26199e-07
4.26118e-07
4.26191e-07
4.26158e-07
4.26074e-07
4.2615e-07
5.41022e-07
5.40077e-07
4.26117e-07
4.26111e-07
4.2611e-07
5.40061e-07
5.41021e-07
5.40076e-07
4.26169e-07
4.26196e-07
4.26158e-07
4.26185e-07
5.40978e-07
5.4003e-07
4.26127e-07
4.262e-07
4.26116e-07
4.26189e-07
4.2616e-07
4.26072e-07
4.26149e-07
5.4102e-07
5.40077e-07
4.26119e-07
4.26109e-07
4.26108e-07
5.40059e-07
5.4102e-07
5.40075e-07
4.26169e-07
4.26196e-07
4.26154e-07
4.26182e-07
5.40977e-07
5.40029e-07
4.26127e-07
4.26201e-07
4.26113e-07
4.26186e-07
4.2616e-07
4.26069e-07
4.26145e-07
5.41019e-07
5.40075e-07
4.26119e-07
4.26106e-07
4.26104e-07
5.40055e-07
5.4102e-07
5.40072e-07
4.26168e-07
4.26196e-07
4.26149e-07
4.26177e-07
5.40977e-07
5.40028e-07
4.26127e-07
4.262e-07
4.26107e-07
4.2618e-07
4.2616e-07
4.26063e-07
4.2614e-07
5.41018e-07
5.40073e-07
4.26118e-07
4.261e-07
4.26098e-07
5.40051e-07
5.41017e-07
5.40067e-07
4.26166e-07
4.26195e-07
4.26139e-07
4.26167e-07
5.40974e-07
5.40024e-07
4.26125e-07
4.26198e-07
4.26098e-07
4.2617e-07
4.26157e-07
4.26054e-07
4.2613e-07
5.41015e-07
5.40067e-07
4.26116e-07
4.2609e-07
4.26088e-07
5.4005e-07
5.4101e-07
5.40062e-07
4.26161e-07
4.2619e-07
4.26122e-07
4.2615e-07
5.40969e-07
5.40018e-07
4.2612e-07
4.26193e-07
4.26081e-07
4.26153e-07
4.26152e-07
4.26037e-07
4.26113e-07
5.41007e-07
5.4006e-07
4.2611e-07
4.26072e-07
4.26071e-07
5.40047e-07
5.41e-07
5.40051e-07
4.2615e-07
4.26178e-07
4.26092e-07
4.26118e-07
5.40959e-07
5.40008e-07
4.26109e-07
4.26182e-07
4.26051e-07
4.26123e-07
4.26141e-07
4.26006e-07
4.26081e-07
5.40998e-07
5.40054e-07
4.26099e-07
4.26041e-07
4.26038e-07
5.40034e-07
5.40979e-07
5.39954e-07
4.26125e-07
4.26149e-07
4.25908e-07
4.2593e-07
5.4094e-07
5.39911e-07
4.26083e-07
4.26154e-07
4.25863e-07
4.25934e-07
4.26114e-07
4.25823e-07
4.25898e-07
5.40979e-07
5.39959e-07
4.26069e-07
4.25853e-07
4.25847e-07
5.39918e-07
5.40827e-07
5.31607e-07
4.26085e-07
4.26107e-07
4.1866e-07
4.18681e-07
5.4079e-07
5.31582e-07
4.26039e-07
4.26114e-07
4.18635e-07
4.18667e-07
4.26077e-07
4.18607e-07
4.18644e-07
5.40829e-07
5.31602e-07
4.26023e-07
4.18617e-07
4.18614e-07
5.31583e-07
5.21648e-07
4.11591e-07
4.11609e-07
5.21631e-07
4.11575e-07
4.11595e-07
3.14752e-07
3.14748e-07
3.14743e-07
4.11575e-07
5.21644e-07
4.11555e-07
2.73108e-07
8.40272e-08
2.11673e-07
2.1158e-07
9.70956e-10
1.60093e-08
2.48655e-08
1.45154e-07
1.07941e-09
1.61628e-08
1.46044e-07
2.19979e-08
9.32945e-09
8.57847e-09
2.42362e-08
6.43491e-09
1.93088e-07
4.10859e-09
2.98921e-07
1.69435e-06
3.37975e-06
6.55289e-09
1.76103e-07
4.39031e-09
2.65517e-07
1.43811e-07
1.4417e-07
1.43437e-07
1.45042e-07
1.45082e-07
1.45412e-07
1.4475e-07
9.27386e-10
1.1821e-07
7.35195e-08
2.09599e-08
9.47249e-10
9.54902e-08
7.35306e-08
1.58297e-06
3.09721e-06
1.11967e-09
7.391e-08
9.87689e-08
2.17147e-08
1.10163e-09
7.39667e-08
7.85705e-08
2.0598e-07
2.31929e-07
8.64747e-09
1.78046e-07
2.01384e-07
1.62136e-08
5.38944e-07
9.9946e-09
7.88922e-07
6.82854e-06
1.00153e-05
1.69925e-08
4.99076e-07
1.01959e-08
6.86743e-07
1.46496e-07
1.46807e-07
1.46137e-07
1.50645e-07
1.50812e-07
1.51079e-07
1.50263e-07
8.6447e-10