/*--------------------------------*- C++ -*----------------------------------*\
| =========                 |                                                 |
| \\      /  F ield         | OpenFOAM: The Open Source CFD Toolbox           |
|  \\    /   O peration     | Version:  v2012                                 |
|   \\  /    A nd           | Website:  www.openfoam.com                      |
|    \\/     M anipulation  |                                                 |
\*---------------------------------------------------------------------------*/
FoamFile
{
    version     2.0;
    format      ascii;
    class       volScalarField;
    location    "75";
    object      k;
}
// * * * * * * * * * * * * * * * * * * * * * * * * * * * * * * * * * * * * * //

dimensions      [0 2 -2 0 0 0 0];


internalField   nonuniform List<scalar> 
171728
(
9.81399e-06
1.53381e-06
1.45514e-06
4.87798e-07
9.99982e-06
1.67327e-06
1.64145e-06
4.76992e-07
1.03737e-05
1.90002e-06
1.93024e-06
5.03386e-07
1.07403e-05
2.19016e-06
2.27356e-06
5.84867e-07
1.10998e-05
2.56775e-06
2.69471e-06
7.28928e-07
1.14718e-05
3.04757e-06
3.20685e-06
1.00533e-06
1.18395e-05
3.67274e-06
3.82097e-06
1.42568e-06
1.22041e-05
4.41205e-06
4.53351e-06
1.93683e-06
1.25762e-05
5.25651e-06
5.36451e-06
2.55881e-06
1.29865e-05
6.24586e-06
6.36316e-06
3.38853e-06
1.343e-05
7.36352e-06
7.47026e-06
4.47591e-06
1.40217e-05
8.70778e-06
8.77228e-06
5.8897e-06
1.46997e-05
1.01616e-05
1.02094e-05
7.67073e-06
1.55771e-05
1.19156e-05
1.19425e-05
9.96468e-06
1.66064e-05
1.39916e-05
1.40175e-05
1.28358e-05
1.78371e-05
1.66114e-05
1.66232e-05
1.65344e-05
1.89264e-05
1.91164e-05
1.91192e-05
2.01619e-05
1.99679e-05
2.15027e-05
2.15039e-05
2.32689e-05
2.0672e-05
2.28989e-05
2.28998e-05
2.49035e-05
2.0929e-05
2.33162e-05
2.33171e-05
2.53018e-05
2.09849e-05
2.33911e-05
2.33919e-05
2.53599e-05
2.09941e-05
2.34025e-05
2.34033e-05
2.5371e-05
2.09957e-05
2.34043e-05
2.3405e-05
2.5371e-05
2.09962e-05
2.34047e-05
2.34054e-05
2.53714e-05
2.09965e-05
2.34049e-05
2.34057e-05
2.53716e-05
2.09968e-05
2.34052e-05
2.3406e-05
2.5372e-05
2.09971e-05
2.34056e-05
2.34063e-05
2.53721e-05
2.09972e-05
2.34058e-05
2.34066e-05
2.53718e-05
2.09974e-05
2.34059e-05
2.34066e-05
2.5372e-05
2.09975e-05
2.34059e-05
2.34065e-05
2.53718e-05
2.09975e-05
2.34058e-05
2.34065e-05
2.53714e-05
2.09975e-05
2.34058e-05
2.34065e-05
2.53713e-05
2.09976e-05
2.34058e-05
2.34065e-05
2.53712e-05
2.09976e-05
2.34059e-05
2.34064e-05
2.5371e-05
2.09976e-05
2.34059e-05
2.34064e-05
2.53709e-05
2.09975e-05
2.34058e-05
2.34064e-05
2.53708e-05
2.09976e-05
2.34058e-05
2.34064e-05
2.53707e-05
2.09976e-05
2.34058e-05
2.34065e-05
2.53707e-05
2.09975e-05
2.34058e-05
2.34065e-05
2.53708e-05
2.09976e-05
2.34058e-05
2.34065e-05
2.53708e-05
2.09976e-05
2.34058e-05
2.34064e-05
2.53707e-05
2.09975e-05
2.34058e-05
2.34065e-05
2.53706e-05
2.09975e-05
2.34058e-05
2.34065e-05
2.53707e-05
2.09974e-05
2.34057e-05
2.34065e-05
2.53707e-05
2.09975e-05
2.34058e-05
2.34065e-05
2.53707e-05
2.09975e-05
2.34058e-05
2.34065e-05
2.53707e-05
2.09975e-05
2.34058e-05
2.34065e-05
2.53706e-05
2.09975e-05
2.34058e-05
2.34065e-05
2.53706e-05
2.09976e-05
2.34059e-05
2.34065e-05
2.53708e-05
2.09976e-05
2.34059e-05
2.34065e-05
2.53708e-05
2.09976e-05
2.34059e-05
2.34065e-05
2.53707e-05
2.09975e-05
2.34059e-05
2.34064e-05
2.53706e-05
2.09975e-05
2.34059e-05
2.34065e-05
2.53706e-05
2.09976e-05
2.34059e-05
2.34065e-05
2.53706e-05
2.09975e-05
2.34058e-05
2.34065e-05
2.53707e-05
2.09975e-05
2.34058e-05
2.34065e-05
2.53706e-05
2.09976e-05
2.34058e-05
2.34065e-05
2.53707e-05
2.09975e-05
2.34059e-05
2.34065e-05
2.53708e-05
2.09976e-05
2.34059e-05
2.34065e-05
2.53707e-05
2.09976e-05
2.34059e-05
2.34065e-05
2.53706e-05
2.09975e-05
2.34059e-05
2.34065e-05
2.53706e-05
2.09976e-05
2.34059e-05
2.34066e-05
2.53706e-05
2.09976e-05
2.34059e-05
2.34065e-05
2.53706e-05
2.09976e-05
2.34059e-05
2.34065e-05
2.53706e-05
2.09976e-05
2.34058e-05
2.34065e-05
2.53705e-05
2.09975e-05
2.34058e-05
2.34064e-05
2.53706e-05
2.09975e-05
2.34058e-05
2.34064e-05
2.53708e-05
2.09976e-05
2.34058e-05
2.34065e-05
2.53707e-05
2.09976e-05
2.34059e-05
2.34065e-05
2.53706e-05
2.09976e-05
2.34059e-05
2.34065e-05
2.53707e-05
2.09976e-05
2.34059e-05
2.34065e-05
2.53706e-05
2.09976e-05
2.34059e-05
2.34065e-05
2.53706e-05
2.09976e-05
2.34058e-05
2.34065e-05
2.53707e-05
2.09976e-05
2.34058e-05
2.34065e-05
2.53707e-05
2.09976e-05
2.34059e-05
2.34064e-05
2.53707e-05
2.09976e-05
2.34059e-05
2.34064e-05
2.53705e-05
2.09976e-05
2.34059e-05
2.34065e-05
2.53706e-05
2.09977e-05
2.3406e-05
2.34065e-05
2.53707e-05
2.09976e-05
2.3406e-05
2.34065e-05
2.53707e-05
2.09976e-05
2.3406e-05
2.34065e-05
2.53707e-05
2.09976e-05
2.3406e-05
2.34066e-05
2.53706e-05
2.09977e-05
2.34061e-05
2.34066e-05
2.53707e-05
2.09977e-05
2.34061e-05
2.34066e-05
2.53708e-05
2.09978e-05
2.34061e-05
2.34067e-05
2.53709e-05
2.09978e-05
2.34061e-05
2.34067e-05
2.53707e-05
2.09979e-05
2.34062e-05
2.34068e-05
2.53707e-05
2.09979e-05
2.34063e-05
2.34069e-05
2.53709e-05
2.09979e-05
2.34064e-05
2.3407e-05
2.53709e-05
2.0998e-05
2.34064e-05
2.3407e-05
2.53708e-05
2.0998e-05
2.34066e-05
2.34072e-05
2.53708e-05
2.09981e-05
2.34068e-05
2.34073e-05
2.53709e-05
2.09982e-05
2.34071e-05
2.34076e-05
2.53713e-05
2.09983e-05
2.34075e-05
2.3408e-05
2.53712e-05
2.09972e-05
2.34058e-05
2.34063e-05
2.53689e-05
2.09343e-05
2.30801e-05
2.30799e-05
2.50459e-05
5.32727e-07
1.14735e-06
1.0519e-06
5.20371e-07
1.09448e-06
1.04391e-06
9.93114e-06
9.9245e-06
9.9372e-06
9.91678e-06
1.13269e-06
1.11243e-06
4.1759e-07
1.04715e-06
1.25783e-06
4.95796e-07
5.30651e-07
5.49011e-07
1.5728e-06
1.41449e-06
1.69315e-06
1.5363e-06
5.14943e-07
5.08486e-07
1.42472e-06
1.43575e-06
1.55427e-06
1.5586e-06
1.60367e-06
1.63317e-06
1.72342e-06
4.13495e-07
4.30436e-07
1.98087e-06
1.5802e-06
1.99409e-06
4.82879e-07
5.46087e-07
6.04556e-07
1.75274e-06
1.59811e-06
1.9467e-06
1.79893e-06
5.03404e-07
5.38329e-07
1.61767e-06
1.61947e-06
1.8228e-06
1.81671e-06
1.78256e-06
1.8451e-06
1.97341e-06
4.27498e-07
4.89735e-07
1.99179e-06
1.85643e-06
1.97651e-06
5.07616e-07
6.02713e-07
6.96645e-07
2.01632e-06
1.87333e-06
2.23657e-06
2.12478e-06
5.34907e-07
6.10729e-07
1.89475e-06
1.88378e-06
2.13908e-06
2.11994e-06
2.04191e-06
2.10873e-06
2.27464e-06
4.87914e-07
5.93873e-07
1.98223e-06
2.18268e-06
2.13567e-06
5.8606e-07
6.95851e-07
8.35913e-07
2.30586e-06
2.21407e-06
2.5195e-06
2.52282e-06
6.09686e-07
7.64238e-07
2.22786e-06
2.20381e-06
2.5161e-06
2.48924e-06
2.3554e-06
2.46684e-06
2.6017e-06
5.93739e-07
7.57137e-07
2.21621e-06
2.58284e-06
2.50798e-06
7.25378e-07
8.4025e-07
1.0824e-06
2.60487e-06
2.63645e-06
2.92607e-06
3.01893e-06
7.69909e-07
1.04284e-06
2.61921e-06
2.59281e-06
2.98078e-06
2.95244e-06
2.67724e-06
2.9126e-06
2.94631e-06
7.63076e-07
1.03463e-06
2.61838e-06
3.07007e-06
2.98739e-06
9.89921e-07
1.09594e-06
1.46521e-06
3.05529e-06
3.16033e-06
3.50032e-06
3.59745e-06
1.05934e-06
1.46579e-06
3.11764e-06
3.09897e-06
3.55448e-06
3.5372e-06
3.06087e-06
3.50195e-06
3.44689e-06
1.05056e-06
1.44977e-06
3.12272e-06
3.6551e-06
3.55703e-06
1.4019e-06
1.48738e-06
1.95605e-06
3.66939e-06
3.75776e-06
4.19937e-06
4.26859e-06
1.48899e-06
1.9595e-06
3.71749e-06
3.70494e-06
4.23382e-06
4.25937e-06
3.61126e-06
4.21957e-06
4.15492e-06
1.47387e-06
1.96145e-06
3.71689e-06
4.34721e-06
4.23673e-06
1.91001e-06
1.9821e-06
2.54214e-06
4.39332e-06
4.45495e-06
5.02281e-06
5.07595e-06
1.98568e-06
2.55699e-06
4.42177e-06
4.45211e-06
5.03734e-06
5.06389e-06
4.34548e-06
5.03862e-06
4.97159e-06
1.98718e-06
2.55819e-06
4.42863e-06
5.14664e-06
5.03397e-06
2.51904e-06
2.58049e-06
3.35381e-06
5.24407e-06
5.2961e-06
5.97782e-06
6.01748e-06
2.59592e-06
3.36773e-06
5.25283e-06
5.2788e-06
5.98308e-06
5.99971e-06
5.19247e-06
5.97738e-06
5.92458e-06
2.59745e-06
3.38156e-06
5.24544e-06
6.0957e-06
5.96956e-06
3.33099e-06
3.41286e-06
4.41475e-06
6.2463e-06
6.2851e-06
7.06444e-06
7.09471e-06
3.42598e-06
4.42163e-06
6.25767e-06
6.26882e-06
7.08157e-06
7.08481e-06
6.19989e-06
7.06849e-06
7.04093e-06
3.44116e-06
4.45614e-06
6.24138e-06
7.17883e-06
7.06612e-06
4.39411e-06
4.49524e-06
5.78363e-06
7.36264e-06
7.38563e-06
8.36077e-06
8.37084e-06
4.50107e-06
5.78564e-06
7.37251e-06
7.37687e-06
8.37024e-06
8.37332e-06
7.34217e-06
8.36586e-06
8.34449e-06
4.53685e-06
5.8174e-06
7.36258e-06
8.44029e-06
8.36507e-06
5.77773e-06
5.89459e-06
7.45184e-06
8.70214e-06
8.71248e-06
9.76325e-06
9.77585e-06
5.89654e-06
7.45334e-06
8.7183e-06
8.7179e-06
9.77568e-06
9.77283e-06
8.68843e-06
9.76897e-06
9.75756e-06
5.92743e-06
7.47041e-06
8.7092e-06
9.82154e-06
9.76997e-06
7.45282e-06
7.6698e-06
9.58461e-06
1.01575e-05
1.01693e-05
1.14574e-05
1.14615e-05
7.67194e-06
9.58951e-06
1.01633e-05
1.0163e-05
1.14556e-05
1.14588e-05
1.01532e-05
1.14606e-05
1.14513e-05
7.68809e-06
9.59578e-06
1.01628e-05
1.14908e-05
1.14585e-05
9.58692e-06
9.96673e-06
1.2328e-05
1.19145e-05
1.19156e-05
1.34105e-05
1.34062e-05
9.969e-06
1.23165e-05
1.1914e-05
1.19169e-05
1.34151e-05
1.34176e-05
1.19068e-05
1.34095e-05
1.33999e-05
9.97517e-06
1.23409e-05
1.19141e-05
1.34366e-05
1.34071e-05
1.23109e-05
1.28537e-05
1.58972e-05
1.39938e-05
1.39893e-05
1.59524e-05
1.59497e-05
1.28417e-05
1.58914e-05
1.39986e-05
1.40016e-05
1.59553e-05
1.59586e-05
1.39839e-05
1.59515e-05
1.59467e-05
1.28686e-05
1.591e-05
1.39903e-05
1.5967e-05
1.59501e-05
1.58888e-05
1.65425e-05
1.9583e-05
1.66128e-05
1.66109e-05
1.84927e-05
1.84922e-05
1.65375e-05
1.95818e-05
1.6615e-05
1.66179e-05
1.84933e-05
1.84949e-05
1.66085e-05
1.84925e-05
1.84913e-05
1.65533e-05
1.95862e-05
1.66111e-05
1.84966e-05
1.84921e-05
1.95812e-05
2.01634e-05
2.2807e-05
1.91171e-05
1.9117e-05
2.09654e-05
2.09655e-05
2.01625e-05
2.28067e-05
1.91175e-05
1.91188e-05
2.0965e-05
2.09661e-05
1.91163e-05
2.09648e-05
2.09652e-05
2.01658e-05
2.2808e-05
1.91167e-05
2.09661e-05
2.0965e-05
2.28074e-05
2.32693e-05
2.47176e-05
2.15038e-05
2.1504e-05
2.26655e-05
2.26656e-05
2.32688e-05
2.47169e-05
2.15034e-05
2.15044e-05
2.26649e-05
2.26657e-05
2.15039e-05
2.26646e-05
2.26657e-05
2.32699e-05
2.47177e-05
2.15035e-05
2.26654e-05
2.26652e-05
2.47179e-05
2.49034e-05
2.52602e-05
2.29002e-05
2.29004e-05
2.32662e-05
2.32662e-05
2.49025e-05
2.52594e-05
2.28997e-05
2.29004e-05
2.32656e-05
2.32662e-05
2.29005e-05
2.3265e-05
2.32666e-05
2.49032e-05
2.526e-05
2.29e-05
2.32659e-05
2.32662e-05
2.52609e-05
2.53013e-05
2.53409e-05
2.33176e-05
2.33176e-05
2.33844e-05
2.33844e-05
2.53004e-05
2.53398e-05
2.33171e-05
2.33176e-05
2.33839e-05
2.33843e-05
2.3318e-05
2.33831e-05
2.33847e-05
2.5301e-05
2.53404e-05
2.33176e-05
2.3384e-05
2.33843e-05
2.53412e-05
2.53598e-05
2.53553e-05
2.33925e-05
2.33925e-05
2.34027e-05
2.34026e-05
2.53587e-05
2.53543e-05
2.3392e-05
2.33924e-05
2.34021e-05
2.34025e-05
2.33927e-05
2.34013e-05
2.34027e-05
2.53592e-05
2.53548e-05
2.33924e-05
2.34021e-05
2.34023e-05
2.53555e-05
2.53711e-05
2.53567e-05
2.3404e-05
2.3404e-05
2.34055e-05
2.34055e-05
2.537e-05
2.53557e-05
2.34034e-05
2.34038e-05
2.34049e-05
2.34053e-05
2.34039e-05
2.34041e-05
2.34052e-05
2.53705e-05
2.53562e-05
2.34035e-05
2.34049e-05
2.34048e-05
2.53563e-05
2.53716e-05
2.53569e-05
2.34057e-05
2.34057e-05
2.3406e-05
2.3406e-05
2.53706e-05
2.53559e-05
2.34052e-05
2.34055e-05
2.34054e-05
2.34058e-05
2.34054e-05
2.34046e-05
2.34056e-05
2.5371e-05
2.53564e-05
2.3405e-05
2.34054e-05
2.34052e-05
2.53564e-05
2.5372e-05
2.53572e-05
2.34062e-05
2.34061e-05
2.34063e-05
2.34063e-05
2.5371e-05
2.53562e-05
2.34056e-05
2.34059e-05
2.34058e-05
2.34061e-05
2.34057e-05
2.34049e-05
2.34059e-05
2.53714e-05
2.53567e-05
2.34054e-05
2.34056e-05
2.34056e-05
2.53567e-05
2.53722e-05
2.53575e-05
2.34065e-05
2.34065e-05
2.34067e-05
2.34067e-05
2.53713e-05
2.53565e-05
2.34059e-05
2.34063e-05
2.34061e-05
2.34065e-05
2.3406e-05
2.34052e-05
2.34063e-05
2.53716e-05
2.53569e-05
2.34057e-05
2.34059e-05
2.34059e-05
2.53571e-05
2.53726e-05
2.53577e-05
2.34068e-05
2.34068e-05
2.3407e-05
2.34071e-05
2.53716e-05
2.53568e-05
2.34063e-05
2.34066e-05
2.34065e-05
2.34069e-05
2.34064e-05
2.34055e-05
2.34066e-05
2.53719e-05
2.53572e-05
2.34061e-05
2.34062e-05
2.34062e-05
2.53571e-05
2.53727e-05
2.53577e-05
2.34072e-05
2.34072e-05
2.34071e-05
2.34073e-05
2.53718e-05
2.53568e-05
2.34066e-05
2.3407e-05
2.34067e-05
2.3407e-05
2.34067e-05
2.34058e-05
2.34066e-05
2.53721e-05
2.53572e-05
2.34063e-05
2.34065e-05
2.34063e-05
2.53569e-05
2.53727e-05
2.53575e-05
2.34072e-05
2.34074e-05
2.34071e-05
2.34073e-05
2.53719e-05
2.53566e-05
2.34068e-05
2.34071e-05
2.34067e-05
2.3407e-05
2.34067e-05
2.34059e-05
2.34067e-05
2.53722e-05
2.53571e-05
2.34063e-05
2.34066e-05
2.34063e-05
2.53571e-05
2.53725e-05
2.53575e-05
2.34071e-05
2.34073e-05
2.34071e-05
2.34073e-05
2.53716e-05
2.53568e-05
2.34068e-05
2.34071e-05
2.34068e-05
2.3407e-05
2.34067e-05
2.34059e-05
2.34067e-05
2.5372e-05
2.53572e-05
2.34064e-05
2.34066e-05
2.34063e-05
2.53568e-05
2.53724e-05
2.53578e-05
2.34071e-05
2.34073e-05
2.3407e-05
2.34073e-05
2.53716e-05
2.53571e-05
2.34069e-05
2.34071e-05
2.34068e-05
2.34071e-05
2.34068e-05
2.34058e-05
2.34066e-05
2.5372e-05
2.53574e-05
2.34064e-05
2.34065e-05
2.34063e-05
2.53566e-05
2.53726e-05
2.53579e-05
2.34071e-05
2.34073e-05
2.3407e-05
2.34073e-05
2.53719e-05
2.5357e-05
2.34068e-05
2.34072e-05
2.34068e-05
2.3407e-05
2.34067e-05
2.34058e-05
2.34067e-05
2.53722e-05
2.53574e-05
2.34064e-05
2.34065e-05
2.34063e-05
2.53567e-05
2.53728e-05
2.53578e-05
2.34071e-05
2.34074e-05
2.3407e-05
2.34073e-05
2.5372e-05
2.53568e-05
2.34069e-05
2.34071e-05
2.34069e-05
2.3407e-05
2.34067e-05
2.34059e-05
2.34067e-05
2.53723e-05
2.53573e-05
2.34064e-05
2.34065e-05
2.34063e-05
2.53567e-05
2.53728e-05
2.53578e-05
2.34071e-05
2.34074e-05
2.3407e-05
2.34073e-05
2.53719e-05
2.53568e-05
2.34069e-05
2.34071e-05
2.34069e-05
2.3407e-05
2.34067e-05
2.34059e-05
2.34066e-05
2.53722e-05
2.53573e-05
2.34064e-05
2.34064e-05
2.34063e-05
2.53567e-05
2.53728e-05
2.53578e-05
2.34071e-05
2.34074e-05
2.3407e-05
2.34073e-05
2.53719e-05
2.53569e-05
2.34069e-05
2.34071e-05
2.34069e-05
2.3407e-05
2.34067e-05
2.34059e-05
2.34067e-05
2.53722e-05
2.53573e-05
2.34063e-05
2.34064e-05
2.34063e-05
2.53567e-05
2.53728e-05
2.53578e-05
2.34071e-05
2.34074e-05
2.3407e-05
2.34073e-05
2.53719e-05
2.53568e-05
2.3407e-05
2.34071e-05
2.34069e-05
2.3407e-05
2.34067e-05
2.34059e-05
2.34067e-05
2.53722e-05
2.53573e-05
2.34063e-05
2.34064e-05
2.34063e-05
2.53567e-05
2.53728e-05
2.53578e-05
2.34071e-05
2.34075e-05
2.3407e-05
2.34074e-05
2.53718e-05
2.53569e-05
2.3407e-05
2.34071e-05
2.34069e-05
2.3407e-05
2.34067e-05
2.34058e-05
2.34067e-05
2.53722e-05
2.53573e-05
2.34064e-05
2.34064e-05
2.34063e-05
2.53566e-05
2.53728e-05
2.53578e-05
2.3407e-05
2.34074e-05
2.34069e-05
2.34073e-05
2.53719e-05
2.53569e-05
2.34069e-05
2.34071e-05
2.34068e-05
2.3407e-05
2.34067e-05
2.34058e-05
2.34067e-05
2.53722e-05
2.53573e-05
2.34064e-05
2.34065e-05
2.34063e-05
2.53566e-05
2.53727e-05
2.53578e-05
2.3407e-05
2.34074e-05
2.3407e-05
2.34073e-05
2.53719e-05
2.53569e-05
2.34069e-05
2.34071e-05
2.34068e-05
2.3407e-05
2.34068e-05
2.34058e-05
2.34067e-05
2.53722e-05
2.53573e-05
2.34064e-05
2.34065e-05
2.34063e-05
2.53567e-05
2.53728e-05
2.53578e-05
2.3407e-05
2.34074e-05
2.3407e-05
2.34073e-05
2.53719e-05
2.53569e-05
2.34069e-05
2.34071e-05
2.34069e-05
2.3407e-05
2.34067e-05
2.34058e-05
2.34066e-05
2.53722e-05
2.53573e-05
2.34064e-05
2.34065e-05
2.34063e-05
2.53566e-05
2.53727e-05
2.53578e-05
2.34071e-05
2.34074e-05
2.34069e-05
2.34073e-05
2.53719e-05
2.53569e-05
2.3407e-05
2.34071e-05
2.34069e-05
2.3407e-05
2.34067e-05
2.34058e-05
2.34066e-05
2.53722e-05
2.53573e-05
2.34063e-05
2.34064e-05
2.34063e-05
2.53565e-05
2.53727e-05
2.53578e-05
2.3407e-05
2.34074e-05
2.34069e-05
2.34073e-05
2.53719e-05
2.5357e-05
2.34069e-05
2.34071e-05
2.34069e-05
2.3407e-05
2.34067e-05
2.34058e-05
2.34066e-05
2.53722e-05
2.53573e-05
2.34063e-05
2.34065e-05
2.34063e-05
2.53565e-05
2.53727e-05
2.53578e-05
2.3407e-05
2.34074e-05
2.34069e-05
2.34073e-05
2.53719e-05
2.53569e-05
2.3407e-05
2.34071e-05
2.34069e-05
2.34071e-05
2.34067e-05
2.34058e-05
2.34067e-05
2.53722e-05
2.53573e-05
2.34064e-05
2.34065e-05
2.34063e-05
2.53566e-05
2.53727e-05
2.53579e-05
2.3407e-05
2.34074e-05
2.34069e-05
2.34073e-05
2.53719e-05
2.53569e-05
2.3407e-05
2.34071e-05
2.34069e-05
2.34071e-05
2.34067e-05
2.34057e-05
2.34067e-05
2.53722e-05
2.53573e-05
2.34064e-05
2.34065e-05
2.34063e-05
2.53566e-05
2.53728e-05
2.53579e-05
2.3407e-05
2.34074e-05
2.3407e-05
2.34073e-05
2.53719e-05
2.53569e-05
2.34069e-05
2.34072e-05
2.34068e-05
2.34071e-05
2.34067e-05
2.34058e-05
2.34067e-05
2.53722e-05
2.53574e-05
2.34063e-05
2.34065e-05
2.34063e-05
2.53566e-05
2.53728e-05
2.53579e-05
2.34071e-05
2.34073e-05
2.3407e-05
2.34073e-05
2.53719e-05
2.53569e-05
2.34069e-05
2.34072e-05
2.34068e-05
2.34071e-05
2.34067e-05
2.34058e-05
2.34066e-05
2.53722e-05
2.53574e-05
2.34064e-05
2.34065e-05
2.34063e-05
2.53566e-05
2.53728e-05
2.53579e-05
2.34072e-05
2.34073e-05
2.34071e-05
2.34073e-05
2.53719e-05
2.5357e-05
2.34069e-05
2.34072e-05
2.34068e-05
2.34071e-05
2.34067e-05
2.34058e-05
2.34066e-05
2.53723e-05
2.53574e-05
2.34063e-05
2.34065e-05
2.34063e-05
2.53565e-05
2.53728e-05
2.53579e-05
2.34072e-05
2.34073e-05
2.34071e-05
2.34073e-05
2.53719e-05
2.5357e-05
2.34068e-05
2.34071e-05
2.34068e-05
2.3407e-05
2.34067e-05
2.34058e-05
2.34066e-05
2.53723e-05
2.53574e-05
2.34063e-05
2.34065e-05
2.34063e-05
2.53566e-05
2.53728e-05
2.53579e-05
2.34072e-05
2.34074e-05
2.34072e-05
2.34073e-05
2.53719e-05
2.5357e-05
2.34069e-05
2.34071e-05
2.34068e-05
2.3407e-05
2.34067e-05
2.34059e-05
2.34066e-05
2.53723e-05
2.53573e-05
2.34063e-05
2.34065e-05
2.34063e-05
2.53567e-05
2.53728e-05
2.5358e-05
2.34073e-05
2.34074e-05
2.34072e-05
2.34073e-05
2.5372e-05
2.5357e-05
2.34069e-05
2.34071e-05
2.34068e-05
2.3407e-05
2.34067e-05
2.34059e-05
2.34066e-05
2.53722e-05
2.53573e-05
2.34063e-05
2.34065e-05
2.34062e-05
2.53566e-05
2.53729e-05
2.5358e-05
2.34073e-05
2.34074e-05
2.34072e-05
2.34073e-05
2.5372e-05
2.5357e-05
2.34069e-05
2.34071e-05
2.34068e-05
2.34071e-05
2.34067e-05
2.34059e-05
2.34067e-05
2.53722e-05
2.53573e-05
2.34063e-05
2.34065e-05
2.34063e-05
2.53565e-05
2.53729e-05
2.5358e-05
2.34073e-05
2.34074e-05
2.34073e-05
2.34073e-05
2.5372e-05
2.53571e-05
2.34069e-05
2.34071e-05
2.34068e-05
2.3407e-05
2.34068e-05
2.34059e-05
2.34067e-05
2.53722e-05
2.53573e-05
2.34064e-05
2.34065e-05
2.34063e-05
2.53565e-05
2.53729e-05
2.5358e-05
2.34074e-05
2.34074e-05
2.34073e-05
2.34073e-05
2.5372e-05
2.53571e-05
2.34069e-05
2.34071e-05
2.34068e-05
2.34071e-05
2.34067e-05
2.34059e-05
2.34066e-05
2.53722e-05
2.53574e-05
2.34063e-05
2.34065e-05
2.34063e-05
2.53565e-05
2.53729e-05
2.5358e-05
2.34074e-05
2.34074e-05
2.34073e-05
2.34073e-05
2.5372e-05
2.53571e-05
2.34069e-05
2.34071e-05
2.34068e-05
2.3407e-05
2.34067e-05
2.34059e-05
2.34067e-05
2.53722e-05
2.53574e-05
2.34063e-05
2.34065e-05
2.34063e-05
2.53566e-05
2.53729e-05
2.5358e-05
2.34074e-05
2.34074e-05
2.34073e-05
2.34073e-05
2.5372e-05
2.53571e-05
2.34068e-05
2.34071e-05
2.34068e-05
2.3407e-05
2.34067e-05
2.34059e-05
2.34067e-05
2.53723e-05
2.53573e-05
2.34063e-05
2.34065e-05
2.34062e-05
2.53566e-05
2.53729e-05
2.5358e-05
2.34074e-05
2.34074e-05
2.34073e-05
2.34074e-05
2.5372e-05
2.53571e-05
2.34068e-05
2.34071e-05
2.34067e-05
2.3407e-05
2.34068e-05
2.34058e-05
2.34067e-05
2.53723e-05
2.53573e-05
2.34063e-05
2.34065e-05
2.34062e-05
2.53565e-05
2.53729e-05
2.5358e-05
2.34074e-05
2.34075e-05
2.34073e-05
2.34074e-05
2.5372e-05
2.53571e-05
2.34068e-05
2.34071e-05
2.34067e-05
2.3407e-05
2.34068e-05
2.34058e-05
2.34067e-05
2.53723e-05
2.53573e-05
2.34063e-05
2.34065e-05
2.34062e-05
2.53567e-05
2.53729e-05
2.5358e-05
2.34074e-05
2.34074e-05
2.34073e-05
2.34074e-05
2.5372e-05
2.53571e-05
2.34068e-05
2.34071e-05
2.34067e-05
2.3407e-05
2.34067e-05
2.34059e-05
2.34066e-05
2.53723e-05
2.53573e-05
2.34062e-05
2.34065e-05
2.34062e-05
2.53567e-05
2.53729e-05
2.5358e-05
2.34074e-05
2.34075e-05
2.34073e-05
2.34074e-05
2.5372e-05
2.53571e-05
2.34068e-05
2.34071e-05
2.34067e-05
2.34071e-05
2.34067e-05
2.34059e-05
2.34066e-05
2.53722e-05
2.53574e-05
2.34062e-05
2.34066e-05
2.34061e-05
2.53566e-05
2.53729e-05
2.5358e-05
2.34074e-05
2.34074e-05
2.34073e-05
2.34073e-05
2.5372e-05
2.53571e-05
2.34068e-05
2.34072e-05
2.34067e-05
2.3407e-05
2.34066e-05
2.34059e-05
2.34066e-05
2.53723e-05
2.53574e-05
2.34062e-05
2.34065e-05
2.3406e-05
2.53564e-05
2.53729e-05
2.5358e-05
2.34074e-05
2.34074e-05
2.34073e-05
2.34073e-05
2.53721e-05
2.53571e-05
2.34068e-05
2.34071e-05
2.34067e-05
2.3407e-05
2.34067e-05
2.34059e-05
2.34066e-05
2.53723e-05
2.53574e-05
2.34061e-05
2.34065e-05
2.34061e-05
2.53564e-05
2.53729e-05
2.5358e-05
2.34074e-05
2.34074e-05
2.34073e-05
2.34073e-05
2.5372e-05
2.53571e-05
2.34068e-05
2.34071e-05
2.34067e-05
2.3407e-05
2.34067e-05
2.34059e-05
2.34066e-05
2.53723e-05
2.53573e-05
2.34062e-05
2.34066e-05
2.34061e-05
2.53565e-05
2.53729e-05
2.5358e-05
2.34074e-05
2.34074e-05
2.34073e-05
2.34074e-05
2.53721e-05
2.53571e-05
2.34068e-05
2.34071e-05
2.34067e-05
2.3407e-05
2.34067e-05
2.34059e-05
2.34066e-05
2.53722e-05
2.53573e-05
2.34062e-05
2.34065e-05
2.34061e-05
2.53565e-05
2.53729e-05
2.5358e-05
2.34074e-05
2.34074e-05
2.34073e-05
2.34073e-05
2.53721e-05
2.53571e-05
2.34068e-05
2.34071e-05
2.34067e-05
2.3407e-05
2.34067e-05
2.34059e-05
2.34066e-05
2.53722e-05
2.53574e-05
2.34062e-05
2.34065e-05
2.34061e-05
2.53565e-05
2.53729e-05
2.5358e-05
2.34074e-05
2.34074e-05
2.34073e-05
2.34074e-05
2.5372e-05
2.53571e-05
2.34068e-05
2.34071e-05
2.34067e-05
2.3407e-05
2.34066e-05
2.34059e-05
2.34066e-05
2.53722e-05
2.53573e-05
2.34062e-05
2.34065e-05
2.34061e-05
2.53565e-05
2.53729e-05
2.5358e-05
2.34074e-05
2.34074e-05
2.34073e-05
2.34074e-05
2.5372e-05
2.53571e-05
2.34067e-05
2.34071e-05
2.34067e-05
2.3407e-05
2.34067e-05
2.34058e-05
2.34067e-05
2.53722e-05
2.53573e-05
2.34062e-05
2.34064e-05
2.34061e-05
2.53566e-05
2.53729e-05
2.5358e-05
2.34074e-05
2.34074e-05
2.34073e-05
2.34073e-05
2.5372e-05
2.53571e-05
2.34067e-05
2.34071e-05
2.34067e-05
2.34071e-05
2.34068e-05
2.34058e-05
2.34067e-05
2.53722e-05
2.53573e-05
2.34062e-05
2.34064e-05
2.34061e-05
2.53567e-05
2.53729e-05
2.5358e-05
2.34074e-05
2.34074e-05
2.34073e-05
2.34073e-05
2.5372e-05
2.53571e-05
2.34067e-05
2.34071e-05
2.34067e-05
2.3407e-05
2.34067e-05
2.34058e-05
2.34066e-05
2.53722e-05
2.53574e-05
2.34062e-05
2.34065e-05
2.34061e-05
2.53566e-05
2.53729e-05
2.5358e-05
2.34074e-05
2.34074e-05
2.34073e-05
2.34073e-05
2.5372e-05
2.53571e-05
2.34068e-05
2.34071e-05
2.34067e-05
2.3407e-05
2.34067e-05
2.34059e-05
2.34066e-05
2.53722e-05
2.53574e-05
2.34062e-05
2.34065e-05
2.34061e-05
2.53565e-05
2.53729e-05
2.5358e-05
2.34074e-05
2.34074e-05
2.34073e-05
2.34074e-05
2.5372e-05
2.53571e-05
2.34067e-05
2.34071e-05
2.34066e-05
2.3407e-05
2.34067e-05
2.34059e-05
2.34066e-05
2.53723e-05
2.53573e-05
2.34061e-05
2.34065e-05
2.34061e-05
2.53566e-05
2.53729e-05
2.5358e-05
2.34074e-05
2.34075e-05
2.34074e-05
2.34074e-05
2.5372e-05
2.53571e-05
2.34067e-05
2.34071e-05
2.34067e-05
2.3407e-05
2.34067e-05
2.34059e-05
2.34066e-05
2.53723e-05
2.53573e-05
2.34061e-05
2.34065e-05
2.34061e-05
2.53564e-05
2.53729e-05
2.5358e-05
2.34075e-05
2.34074e-05
2.34074e-05
2.34074e-05
2.5372e-05
2.53571e-05
2.34068e-05
2.34071e-05
2.34067e-05
2.3407e-05
2.34067e-05
2.34059e-05
2.34067e-05
2.53722e-05
2.53573e-05
2.34062e-05
2.34065e-05
2.34061e-05
2.53565e-05
2.53729e-05
2.5358e-05
2.34074e-05
2.34074e-05
2.34073e-05
2.34074e-05
2.53721e-05
2.53571e-05
2.34068e-05
2.34071e-05
2.34067e-05
2.3407e-05
2.34067e-05
2.34058e-05
2.34066e-05
2.53722e-05
2.53573e-05
2.34062e-05
2.34065e-05
2.34061e-05
2.53567e-05
2.53729e-05
2.5358e-05
2.34074e-05
2.34074e-05
2.34074e-05
2.34074e-05
2.5372e-05
2.53571e-05
2.34067e-05
2.34071e-05
2.34067e-05
2.3407e-05
2.34067e-05
2.34058e-05
2.34066e-05
2.53722e-05
2.53574e-05
2.34061e-05
2.34065e-05
2.34061e-05
2.53566e-05
2.53729e-05
2.5358e-05
2.34075e-05
2.34074e-05
2.34074e-05
2.34074e-05
2.5372e-05
2.53571e-05
2.34068e-05
2.34071e-05
2.34067e-05
2.3407e-05
2.34067e-05
2.34059e-05
2.34066e-05
2.53723e-05
2.53574e-05
2.34061e-05
2.34064e-05
2.34061e-05
2.53565e-05
2.53729e-05
2.5358e-05
2.34074e-05
2.34075e-05
2.34073e-05
2.34074e-05
2.53721e-05
2.53571e-05
2.34068e-05
2.34071e-05
2.34067e-05
2.34071e-05
2.34067e-05
2.34059e-05
2.34067e-05
2.53723e-05
2.53573e-05
2.34062e-05
2.34064e-05
2.34061e-05
2.53564e-05
2.53729e-05
2.5358e-05
2.34074e-05
2.34074e-05
2.34073e-05
2.34073e-05
2.53721e-05
2.53571e-05
2.34067e-05
2.34071e-05
2.34066e-05
2.3407e-05
2.34067e-05
2.34059e-05
2.34066e-05
2.53722e-05
2.53574e-05
2.34062e-05
2.34065e-05
2.34061e-05
2.53565e-05
2.53729e-05
2.5358e-05
2.34074e-05
2.34074e-05
2.34073e-05
2.34073e-05
2.5372e-05
2.53571e-05
2.34067e-05
2.34071e-05
2.34066e-05
2.3407e-05
2.34067e-05
2.34059e-05
2.34066e-05
2.53722e-05
2.53574e-05
2.34062e-05
2.34065e-05
2.34061e-05
2.53567e-05
2.53729e-05
2.5358e-05
2.34074e-05
2.34074e-05
2.34073e-05
2.34073e-05
2.53721e-05
2.53571e-05
2.34067e-05
2.34071e-05
2.34067e-05
2.3407e-05
2.34067e-05
2.3406e-05
2.34066e-05
2.53723e-05
2.53573e-05
2.34062e-05
2.34065e-05
2.34061e-05
2.53566e-05
2.53729e-05
2.5358e-05
2.34074e-05
2.34074e-05
2.34074e-05
2.34074e-05
2.53721e-05
2.53571e-05
2.34068e-05
2.34071e-05
2.34067e-05
2.34071e-05
2.34067e-05
2.3406e-05
2.34067e-05
2.53722e-05
2.53573e-05
2.34062e-05
2.34065e-05
2.34062e-05
2.53565e-05
2.53729e-05
2.5358e-05
2.34075e-05
2.34075e-05
2.34074e-05
2.34074e-05
2.53721e-05
2.53571e-05
2.34069e-05
2.34072e-05
2.34067e-05
2.34071e-05
2.34069e-05
2.3406e-05
2.34068e-05
2.53722e-05
2.53573e-05
2.34063e-05
2.34065e-05
2.34062e-05
2.53565e-05
2.53729e-05
2.5358e-05
2.34075e-05
2.34076e-05
2.34074e-05
2.34075e-05
2.53721e-05
2.53572e-05
2.34069e-05
2.34072e-05
2.34068e-05
2.34071e-05
2.34069e-05
2.34061e-05
2.34068e-05
2.53722e-05
2.53574e-05
2.34064e-05
2.34066e-05
2.34063e-05
2.53567e-05
2.53729e-05
2.5358e-05
2.34076e-05
2.34077e-05
2.34075e-05
2.34075e-05
2.53721e-05
2.53572e-05
2.3407e-05
2.34073e-05
2.34068e-05
2.34072e-05
2.34069e-05
2.34061e-05
2.34068e-05
2.53723e-05
2.53573e-05
2.34064e-05
2.34066e-05
2.34063e-05
2.53567e-05
2.53729e-05
2.5358e-05
2.34077e-05
2.34077e-05
2.34075e-05
2.34076e-05
2.53721e-05
2.53572e-05
2.3407e-05
2.34074e-05
2.34069e-05
2.34072e-05
2.3407e-05
2.3406e-05
2.34068e-05
2.53723e-05
2.53574e-05
2.34065e-05
2.34066e-05
2.34063e-05
2.53567e-05
2.53729e-05
2.53581e-05
2.34077e-05
2.34078e-05
2.34076e-05
2.34076e-05
2.53721e-05
2.53572e-05
2.34071e-05
2.34074e-05
2.34069e-05
2.34073e-05
2.3407e-05
2.3406e-05
2.34068e-05
2.53723e-05
2.53574e-05
2.34065e-05
2.34066e-05
2.34063e-05
2.53565e-05
2.5373e-05
2.53581e-05
2.34078e-05
2.34078e-05
2.34076e-05
2.34075e-05
2.53721e-05
2.53572e-05
2.34072e-05
2.34075e-05
2.34069e-05
2.34073e-05
2.34071e-05
2.3406e-05
2.34069e-05
2.53723e-05
2.53574e-05
2.34066e-05
2.34066e-05
2.34063e-05
2.53566e-05
2.5373e-05
2.53581e-05
2.34079e-05
2.34078e-05
2.34076e-05
2.34075e-05
2.53721e-05
2.53571e-05
2.34072e-05
2.34076e-05
2.34069e-05
2.34073e-05
2.34072e-05
2.34061e-05
2.34069e-05
2.53724e-05
2.53575e-05
2.34066e-05
2.34067e-05
2.34063e-05
2.53568e-05
2.5373e-05
2.53581e-05
2.34079e-05
2.34079e-05
2.34076e-05
2.34075e-05
2.53721e-05
2.53572e-05
2.34073e-05
2.34076e-05
2.34069e-05
2.34072e-05
2.34072e-05
2.3406e-05
2.34068e-05
2.53724e-05
2.53575e-05
2.34067e-05
2.34066e-05
2.34063e-05
2.53567e-05
2.5373e-05
2.53582e-05
2.3408e-05
2.3408e-05
2.34075e-05
2.34075e-05
2.53721e-05
2.53572e-05
2.34073e-05
2.34077e-05
2.34069e-05
2.34072e-05
2.34073e-05
2.3406e-05
2.34068e-05
2.53723e-05
2.53575e-05
2.34067e-05
2.34066e-05
2.34062e-05
2.53566e-05
2.53731e-05
2.53582e-05
2.34081e-05
2.34081e-05
2.34075e-05
2.34075e-05
2.53722e-05
2.53573e-05
2.34074e-05
2.34078e-05
2.34069e-05
2.34072e-05
2.34074e-05
2.3406e-05
2.34068e-05
2.53724e-05
2.53575e-05
2.34068e-05
2.34066e-05
2.34062e-05
2.53567e-05
2.53731e-05
2.53582e-05
2.34082e-05
2.34082e-05
2.34075e-05
2.34075e-05
2.53723e-05
2.53574e-05
2.34076e-05
2.34079e-05
2.34068e-05
2.34071e-05
2.34075e-05
2.3406e-05
2.34068e-05
2.53725e-05
2.53576e-05
2.34069e-05
2.34065e-05
2.34062e-05
2.53569e-05
2.53732e-05
2.53585e-05
2.34084e-05
2.34084e-05
2.34075e-05
2.34075e-05
2.53724e-05
2.53576e-05
2.34078e-05
2.34081e-05
2.34069e-05
2.34072e-05
2.34077e-05
2.3406e-05
2.34068e-05
2.53725e-05
2.53578e-05
2.34071e-05
2.34065e-05
2.34062e-05
2.53572e-05
2.53733e-05
2.53588e-05
2.34087e-05
2.34087e-05
2.34075e-05
2.34076e-05
2.53726e-05
2.5358e-05
2.34081e-05
2.34084e-05
2.34069e-05
2.34073e-05
2.3408e-05
2.34061e-05
2.34068e-05
2.53727e-05
2.53582e-05
2.34074e-05
2.34066e-05
2.34062e-05
2.53574e-05
2.53734e-05
2.53578e-05
2.34091e-05
2.34091e-05
2.34049e-05
2.34049e-05
2.53727e-05
2.53569e-05
2.34085e-05
2.34088e-05
2.34042e-05
2.34045e-05
2.34084e-05
2.34034e-05
2.34041e-05
2.53728e-05
2.53572e-05
2.34077e-05
2.34039e-05
2.34035e-05
2.53561e-05
2.53711e-05
2.52188e-05
2.34073e-05
2.34073e-05
2.32627e-05
2.32627e-05
2.53704e-05
2.52183e-05
2.34067e-05
2.3407e-05
2.32624e-05
2.3262e-05
2.34066e-05
2.32619e-05
2.32618e-05
2.53705e-05
2.52181e-05
2.34059e-05
2.32618e-05
2.32615e-05
2.52176e-05
2.50469e-05
2.30806e-05
2.30806e-05
2.50465e-05
2.30805e-05
2.30799e-05
2.09341e-05
2.09339e-05
2.09337e-05
2.30797e-05
2.50463e-05
2.30796e-05
1.85892e-05
5.9851e-06
1.41522e-05
1.41477e-05
7.58483e-08
1.19027e-06
1.00859e-06
9.79464e-06
7.47666e-08
1.10858e-06
9.83494e-06
7.56592e-07
5.14013e-07
2.12466e-07
5.05319e-07
2.66695e-07
5.52858e-06
2.04628e-07
7.2928e-06
1.44561e-05
2.24406e-05
2.6237e-07
5.19901e-06
2.02912e-07
6.73646e-06
9.80628e-06
9.82099e-06
9.79084e-06
9.90788e-06
9.90061e-06
9.91587e-06
9.8755e-06
7.67427e-08
1.31734e-06
5.1481e-06
1.54844e-06
7.74673e-08
1.27186e-06
5.14698e-06
1.38163e-05
2.11888e-05
7.54665e-08
5.18062e-06
9.65832e-07
1.4709e-06
7.49722e-08
5.18356e-06
9.38989e-07
1.778e-06
2.03525e-06
4.81387e-07
1.772e-06
2.02962e-06
4.69956e-07
1.07984e-05
3.52061e-07
1.39144e-05
3.58714e-05
4.62975e-05
4.79585e-07
1.02434e-05
3.50267e-07
1.26843e-05
9.99459e-06
1.00094e-05
9.96601e-06
1.02832e-05
1.02833e-05