/*--------------------------------*- C++ -*----------------------------------*\
| =========                 |                                                 |
| \\      /  F ield         | OpenFOAM: The Open Source CFD Toolbox           |
|  \\    /   O peration     | Version:  v2012                                 |
|   \\  /    A nd           | Website:  www.openfoam.com                      |
|    \\/     M anipulation  |                                                 |
\*---------------------------------------------------------------------------*/
FoamFile
{
    version     2.0;
    format      ascii;
    class       volScalarField;
    location    "75";
    object      nut;
}
// * * * * * * * * * * * * * * * * * * * * * * * * * * * * * * * * * * * * * //

dimensions      [0 2 -1 0 0 0 0];


internalField   nonuniform List<scalar> 
171728
(
6.02696e-05
1.01692e-05
8.86756e-06
2.43357e-06
6.14764e-05
1.12992e-05
1.01627e-05
2.44514e-06
6.37225e-05
1.28523e-05
1.21958e-05
2.67392e-06
6.59063e-05
1.47732e-05
1.4568e-05
3.24872e-06
6.80189e-05
1.7262e-05
1.74301e-05
4.27378e-06
7.02038e-05
2.04227e-05
2.08085e-05
6.31139e-06
7.23879e-05
2.45255e-05
2.4777e-05
9.23669e-06
7.44697e-05
2.91687e-05
2.92203e-05
1.2423e-05
7.66202e-05
3.42445e-05
3.43147e-05
1.61211e-05
7.91198e-05
4.01115e-05
4.04098e-05
2.11724e-05
8.18903e-05
4.66557e-05
4.70179e-05
2.76765e-05
8.56202e-05
5.43899e-05
5.45527e-05
3.56691e-05
8.99442e-05
6.22705e-05
6.24388e-05
4.51507e-05
9.55566e-05
7.12185e-05
7.13093e-05
5.64134e-05
0.000101712
8.02907e-05
8.0396e-05
6.71935e-05
0.000108338
9.0226e-05
9.02781e-05
7.82537e-05
0.000113772
9.83015e-05
9.83128e-05
8.8177e-05
0.000119216
0.000107323
0.000107323
9.86572e-05
0.000123125
0.000113302
0.000113299
0.000104968
0.000124614
0.000115275
0.000115272
0.000106769
0.000124944
0.000115648
0.000115645
0.000107029
0.000124997
0.000115706
0.000115703
0.000107084
0.000125005
0.000115714
0.000115711
0.000107085
0.000125006
0.000115714
0.000115712
0.000107086
0.000125007
0.000115714
0.000115711
0.000107086
0.000125008
0.000115715
0.000115713
0.000107088
0.000125009
0.000115718
0.000115715
0.000107089
0.00012501
0.00011572
0.000115718
0.000107088
0.000125011
0.000115721
0.000115718
0.000107089
0.000125012
0.000115721
0.000115718
0.000107088
0.000125012
0.00011572
0.000115718
0.000107086
0.000125013
0.00011572
0.000115717
0.000107086
0.000125014
0.00011572
0.000115717
0.000107086
0.000125014
0.00011572
0.000115717
0.000107086
0.000125013
0.000115721
0.000115717
0.000107085
0.000125013
0.00011572
0.000115717
0.000107085
0.000125013
0.00011572
0.000115717
0.000107085
0.000125013
0.00011572
0.000115717
0.000107085
0.000125013
0.00011572
0.000115717
0.000107085
0.000125013
0.00011572
0.000115717
0.000107085
0.000125013
0.00011572
0.000115717
0.000107085
0.000125013
0.00011572
0.000115717
0.000107084
0.000125012
0.00011572
0.000115717
0.000107085
0.000125012
0.00011572
0.000115717
0.000107085
0.000125012
0.000115721
0.000115717
0.000107085
0.000125012
0.000115721
0.000115717
0.000107085
0.000125012
0.000115721
0.000115717
0.000107084
0.000125013
0.000115721
0.000115717
0.000107085
0.000125014
0.000115722
0.000115717
0.000107085
0.000125013
0.000115721
0.000115717
0.000107085
0.000125013
0.000115721
0.000115717
0.000107084
0.000125013
0.000115721
0.000115717
0.000107084
0.000125013
0.000115722
0.000115717
0.000107084
0.000125013
0.000115721
0.000115717
0.000107085
0.000125013
0.000115721
0.000115717
0.000107085
0.000125013
0.000115721
0.000115717
0.000107085
0.000125014
0.000115721
0.000115717
0.000107085
0.000125012
0.000115721
0.000115717
0.000107085
0.000125013
0.000115721
0.000115718
0.000107085
0.000125013
0.000115721
0.000115717
0.000107084
0.000125012
0.000115721
0.000115717
0.000107084
0.000125013
0.000115721
0.000115718
0.000107084
0.000125014
0.000115722
0.000115718
0.000107084
0.000125014
0.000115722
0.000115717
0.000107084
0.000125013
0.000115721
0.000115717
0.000107084
0.000125013
0.000115721
0.000115717
0.000107084
0.000125013
0.000115721
0.000115717
0.000107085
0.000125014
0.000115721
0.000115717
0.000107085
0.000125013
0.000115721
0.000115717
0.000107084
0.000125013
0.000115721
0.000115717
0.000107085
0.000125013
0.000115721
0.000115717
0.000107084
0.000125013
0.000115721
0.000115718
0.000107084
0.000125013
0.000115721
0.000115718
0.000107085
0.000125014
0.000115721
0.000115717
0.000107085
0.000125014
0.000115721
0.000115717
0.000107084
0.000125013
0.000115721
0.000115717
0.000107084
0.000125013
0.000115721
0.000115717
0.000107084
0.000125014
0.000115721
0.000115717
0.000107085
0.000125013
0.000115721
0.000115717
0.000107085
0.000125013
0.000115721
0.000115717
0.000107085
0.000125012
0.000115721
0.000115717
0.000107085
0.000125013
0.000115722
0.000115717
0.000107085
0.000125012
0.000115722
0.000115717
0.000107085
0.000125013
0.000115721
0.000115717
0.000107085
0.000125013
0.000115722
0.000115717
0.000107085
0.000125013
0.000115722
0.000115718
0.000107085
0.000125013
0.000115722
0.000115718
0.000107086
0.000125013
0.000115723
0.000115719
0.000107085
0.000125013
0.000115724
0.00011572
0.000107086
0.000125013
0.000115726
0.000115721
0.000107087
0.000125013
0.000115729
0.000115725
0.000107089
0.000125014
0.000115735
0.000115731
0.000107093
0.000125015
0.000115746
0.000115742
0.000107098
0.000125015
0.00011574
0.000115736
0.000107108
0.000125311
0.000116491
0.000116488
0.000108232
2.55911e-06
6.91308e-06
6.51324e-06
2.65026e-06
6.99666e-06
7.12314e-06
6.08325e-05
6.07563e-05
6.0783e-05
6.07927e-05
7.54227e-06
6.17627e-06
2.01461e-06
6.40001e-06
7.06875e-06
2.47138e-06
2.56855e-06
2.81403e-06
9.29136e-06
8.72536e-06
1.02494e-05
9.60176e-06
2.63063e-06
2.68959e-06
9.38091e-06
9.71608e-06
1.03098e-05
1.0533e-05
8.5163e-06
1.09981e-05
9.30296e-06
2.00085e-06
2.18927e-06
9.4449e-06
9.73229e-06
1.08996e-05
2.4694e-06
2.80465e-06
3.32503e-06
1.07411e-05
1.00429e-05
1.23561e-05
1.14504e-05
2.66666e-06
2.98285e-06
1.07678e-05
1.09588e-05
1.2225e-05
1.23062e-05
9.70643e-06
1.24849e-05
1.10413e-05
2.17282e-06
2.62572e-06
1.15313e-05
1.1678e-05
1.24746e-05
2.69785e-06
3.31874e-06
4.04841e-06
1.29327e-05
1.19787e-05
1.4731e-05
1.373e-05
2.96035e-06
3.48398e-06
1.27308e-05
1.27542e-05
1.44491e-05
1.43643e-05
1.15477e-05
1.42268e-05
1.33446e-05
2.61539e-06
3.36767e-06
1.25859e-05
1.3932e-05
1.40603e-05
3.25328e-06
4.04537e-06
5.06729e-06
1.52767e-05
1.43481e-05
1.68163e-05
1.64857e-05
3.47765e-06
4.5683e-06
1.50634e-05
1.49368e-05
1.70216e-05
1.68578e-05
1.39975e-05
1.6586e-05
1.61067e-05
3.36741e-06
4.49756e-06
1.45938e-05
1.66716e-05
1.65712e-05
4.23811e-06
5.09949e-06
6.83436e-06
1.74068e-05
1.72755e-05
1.95403e-05
1.98885e-05
4.61063e-06
6.57593e-06
1.77219e-05
1.75608e-05
2.01138e-05
1.99295e-05
1.67985e-05
1.95203e-05
1.9088e-05
4.54058e-06
6.45198e-06
1.73205e-05
1.99097e-05
1.97882e-05
6.19531e-06
6.93266e-06
9.51644e-06
2.03925e-05
2.08396e-05
2.33277e-05
2.37118e-05
6.69979e-06
9.5381e-06
2.10237e-05
2.09061e-05
2.38838e-05
2.37692e-05
1.99902e-05
2.34163e-05
2.2812e-05
6.56721e-06
9.31645e-06
2.06838e-05
2.37134e-05
2.35654e-05
9.08646e-06
9.65737e-06
1.26183e-05
2.44222e-05
2.47329e-05
2.77535e-05
2.7952e-05
9.68143e-06
1.25961e-05
2.49167e-05
2.48173e-05
2.81061e-05
2.82846e-05
2.39143e-05
2.79747e-05
2.74483e-05
9.46823e-06
1.25233e-05
2.46049e-05
2.80623e-05
2.78964e-05
1.22897e-05
1.27481e-05
1.60521e-05
2.8954e-05
2.91328e-05
3.27682e-05
3.30008e-05
1.27295e-05
1.61561e-05
2.92503e-05
2.94758e-05
3.29246e-05
3.31347e-05
2.864e-05
3.29296e-05
3.24103e-05
1.2654e-05
1.60715e-05
2.90922e-05
3.29696e-05
3.2785e-05
1.59002e-05
1.6262e-05
2.10068e-05
3.41095e-05
3.43631e-05
3.84962e-05
3.87144e-05
1.63721e-05
2.11155e-05
3.42166e-05
3.44181e-05
3.85402e-05
3.86792e-05
3.37503e-05
3.85216e-05
3.81431e-05
1.62916e-05
2.11392e-05
3.40696e-05
3.87808e-05
3.84154e-05
2.08502e-05
2.13416e-05
2.7362e-05
4.00876e-05
4.03052e-05
4.48929e-05
4.50684e-05
2.14459e-05
2.7428e-05
4.01627e-05
4.02633e-05
4.49973e-05
4.50398e-05
3.97869e-05
4.49433e-05
4.47577e-05
2.14832e-05
2.76439e-05
4.00348e-05
4.53028e-05
4.48965e-05
2.72219e-05
2.78038e-05
3.55267e-05
4.6624e-05
4.67514e-05
5.23947e-05
5.24347e-05
2.78596e-05
3.55464e-05
4.66759e-05
4.67272e-05
5.24214e-05
5.24705e-05
4.65096e-05
5.24464e-05
5.23035e-05
2.80866e-05
3.57428e-05
4.66168e-05
5.26649e-05
5.24172e-05
3.55078e-05
3.56811e-05
4.45655e-05
5.43294e-05
5.43724e-05
6.01206e-05
6.0204e-05
3.56994e-05
4.45727e-05
5.44044e-05
5.44283e-05
6.02091e-05
6.01939e-05
5.42504e-05
6.01708e-05
6.00946e-05
3.58766e-05
4.46405e-05
5.4374e-05
6.03223e-05
6.01733e-05
4.45917e-05
4.51312e-05
5.49295e-05
6.22359e-05
6.23236e-05
6.90191e-05
6.90585e-05
4.514e-05
5.49489e-05
6.22679e-05
6.22718e-05
6.89532e-05
6.90036e-05
6.22202e-05
6.90344e-05
6.89934e-05
4.52049e-05
5.49545e-05
6.2273e-05
6.91469e-05
6.90211e-05
5.49461e-05
5.64364e-05
6.56234e-05
7.12142e-05
7.12282e-05
7.78106e-05
7.77826e-05
5.64347e-05
6.5548e-05
7.11529e-05
7.12041e-05
7.78107e-05
7.78408e-05
7.1175e-05
7.78024e-05
7.77495e-05
5.64484e-05
6.5691e-05
7.12052e-05
7.79092e-05
7.77892e-05
6.55195e-05
6.72972e-05
7.66753e-05
8.03015e-05
8.02717e-05
8.79778e-05
8.79581e-05
6.72248e-05
7.66481e-05
8.03114e-05
8.03374e-05
8.79925e-05
8.80072e-05
8.02437e-05
8.79758e-05
8.79431e-05
6.73752e-05
7.67313e-05
8.02806e-05
8.8044e-05
8.79657e-05
7.66349e-05
7.82988e-05
8.66215e-05
9.02269e-05
9.02113e-05
9.61935e-05
9.61866e-05
7.82738e-05
8.66178e-05
9.02399e-05
9.02497e-05
9.62024e-05
9.61994e-05
9.02004e-05
9.6201e-05
9.61838e-05
7.83473e-05
8.66337e-05
9.02188e-05
9.62185e-05
9.61945e-05
8.66088e-05
8.81873e-05
9.71678e-05
9.82939e-05
9.82885e-05
0.000105165
0.000105163
8.81856e-05
9.7171e-05
9.83023e-05
9.82964e-05
0.000105173
0.000105162
9.82873e-05
0.000105178
0.000105165
8.81957e-05
9.71692e-05
9.82971e-05
0.000105179
0.000105174
9.71662e-05
9.86634e-05
0.00010432
0.000107311
0.000107309
0.000112224
0.000112222
9.8666e-05
0.000104322
0.000107318
0.000107307
0.00011223
0.000112218
0.000107312
0.000112237
0.000112226
9.86629e-05
0.000104316
0.00010732
0.000112235
0.000112234
0.000104317
0.000104972
0.000106725
0.00011329
0.000113288
0.000115012
0.00011501
0.000104974
0.000106727
0.000113297
0.000113283
0.000115019
0.000115005
0.000113292
0.000115025
0.000115016
0.000104968
0.000106721
0.000113301
0.000115022
0.000115024
0.000106724
0.00010677
0.000107073
0.000115262
0.00011526
0.000115595
0.000115592
0.000106772
0.000107075
0.000115269
0.000115255
0.000115602
0.000115587
0.000115266
0.000115607
0.000115598
0.000106766
0.000107069
0.000115274
0.000115605
0.000115606
0.000107071
0.000107032
0.000107142
0.000115636
0.000115632
0.000115689
0.000115684
0.000107034
0.000107144
0.000115643
0.000115628
0.000115696
0.00011568
0.000115638
0.0001157
0.00011569
0.000107028
0.000107137
0.000115647
0.000115697
0.000115698
0.00010714
0.000107087
0.000107153
0.000115696
0.000115691
0.000115704
0.000115698
0.000107088
0.000107154
0.000115702
0.000115686
0.00011571
0.000115694
0.000115696
0.000115714
0.000115702
0.000107082
0.000107148
0.000115705
0.000115711
0.000115711
0.000107148
0.00010709
0.000107151
0.000115704
0.000115698
0.000115704
0.000115698
0.000107091
0.000107153
0.00011571
0.000115694
0.00011571
0.000115694
0.000115702
0.000115714
0.000115702
0.000107085
0.000107146
0.000115711
0.000115712
0.000115711
0.000107146
0.000107091
0.000107153
0.000115705
0.000115699
0.000115705
0.000115698
0.000107092
0.000107154
0.00011571
0.000115694
0.00011571
0.000115694
0.000115702
0.000115714
0.000115702
0.000107086
0.000107147
0.000115711
0.000115711
0.00011571
0.000107148
0.000107091
0.000107155
0.000115705
0.000115698
0.000115707
0.000115699
0.000107092
0.000107155
0.000115711
0.000115694
0.000115713
0.000115695
0.000115702
0.000115714
0.000115704
0.000107086
0.000107149
0.00011571
0.000115712
0.000115711
0.000107149
0.000107093
0.000107156
0.000115708
0.0001157
0.000115711
0.000115702
0.000107093
0.000107157
0.000115713
0.000115696
0.000115716
0.000115699
0.000115705
0.000115717
0.000115707
0.000107088
0.00010715
0.000115712
0.000115715
0.000115714
0.00010715
0.000107095
0.000107156
0.000115711
0.000115703
0.000115711
0.000115705
0.000107095
0.000107157
0.000115716
0.0001157
0.000115717
0.000115701
0.000115708
0.00011572
0.000115708
0.000107089
0.000107151
0.000115714
0.000115717
0.000115714
0.000107149
0.000107095
0.000107155
0.000115711
0.000115705
0.000115711
0.000115704
0.000107096
0.000107156
0.000115718
0.000115701
0.000115717
0.0001157
0.000115708
0.000115721
0.000115708
0.00010709
0.00010715
0.000115714
0.000115718
0.000115714
0.00010715
0.000107094
0.000107156
0.000115711
0.000115704
0.000115711
0.000115704
0.000107095
0.000107157
0.000115718
0.000115701
0.000115718
0.000115701
0.000115708
0.000115721
0.000115708
0.000107089
0.000107151
0.000115714
0.000115718
0.000115714
0.000107149
0.000107094
0.000107156
0.000115711
0.000115704
0.000115711
0.000115704
0.000107095
0.000107158
0.000115718
0.000115701
0.000115718
0.000115701
0.000115708
0.00011572
0.000115708
0.000107089
0.000107151
0.000115714
0.000115718
0.000115714
0.000107148
0.000107094
0.000107157
0.000115711
0.000115705
0.000115711
0.000115704
0.000107096
0.000107157
0.000115718
0.000115701
0.000115718
0.000115701
0.000115708
0.00011572
0.000115708
0.00010709
0.000107151
0.000115714
0.000115717
0.000115714
0.000107149
0.000107095
0.000107156
0.000115711
0.000115704
0.000115711
0.000115704
0.000107096
0.000107157
0.000115718
0.000115701
0.000115718
0.0001157
0.000115708
0.000115721
0.000115708
0.00010709
0.000107151
0.000115715
0.000115717
0.000115714
0.000107149
0.000107095
0.000107156
0.000115712
0.000115704
0.000115711
0.000115703
0.000107096
0.000107157
0.000115718
0.000115701
0.000115718
0.0001157
0.000115708
0.00011572
0.000115708
0.000107089
0.000107151
0.000115714
0.000115717
0.000115714
0.000107149
0.000107095
0.000107156
0.000115712
0.000115703
0.000115711
0.000115703
0.000107096
0.000107157
0.000115718
0.000115701
0.000115718
0.0001157
0.000115708
0.000115721
0.000115708
0.000107089
0.000107151
0.000115714
0.000115717
0.000115714
0.000107149
0.000107095
0.000107156
0.000115712
0.000115703
0.000115711
0.000115704
0.000107096
0.000107158
0.000115719
0.000115701
0.000115718
0.0001157
0.000115708
0.000115721
0.000115708
0.000107089
0.000107151
0.000115714
0.000115717
0.000115714
0.000107149
0.000107095
0.000107157
0.000115712
0.000115704
0.000115711
0.000115704
0.000107096
0.000107158
0.000115719
0.000115701
0.000115718
0.000115701
0.000115708
0.00011572
0.000115708
0.000107089
0.000107151
0.000115714
0.000115717
0.000115714
0.000107148
0.000107095
0.000107156
0.000115711
0.000115704
0.000115711
0.000115704
0.000107096
0.000107158
0.000115718
0.000115701
0.000115718
0.0001157
0.000115708
0.00011572
0.000115708
0.000107089
0.000107151
0.000115714
0.000115717
0.000115714
0.000107148
0.000107095
0.000107156
0.000115711
0.000115704
0.000115711
0.000115703
0.000107096
0.000107158
0.000115718
0.000115701
0.000115718
0.0001157
0.000115708
0.00011572
0.000115708
0.000107089
0.000107151
0.000115715
0.000115717
0.000115714
0.000107149
0.000107095
0.000107156
0.000115711
0.000115704
0.000115711
0.000115703
0.000107096
0.000107158
0.000115718
0.0001157
0.000115718
0.0001157
0.000115708
0.00011572
0.000115708
0.000107089
0.000107151
0.000115715
0.000115717
0.000115714
0.000107148
0.000107095
0.000107156
0.000115711
0.000115704
0.000115711
0.000115704
0.000107096
0.000107157
0.000115719
0.000115701
0.000115718
0.0001157
0.000115708
0.00011572
0.000115708
0.000107089
0.000107151
0.000115714
0.000115717
0.000115714
0.000107148
0.000107095
0.000107156
0.000115711
0.000115704
0.000115711
0.000115704
0.000107096
0.000107157
0.000115718
0.0001157
0.000115718
0.0001157
0.000115708
0.00011572
0.000115708
0.000107089
0.000107151
0.000115714
0.000115717
0.000115714
0.000107148
0.000107095
0.000107156
0.000115711
0.000115704
0.000115711
0.000115704
0.000107096
0.000107157
0.000115718
0.000115701
0.000115718
0.0001157
0.000115708
0.000115721
0.000115708
0.000107089
0.000107151
0.000115715
0.000115717
0.000115714
0.000107148
0.000107095
0.000107156
0.000115712
0.000115705
0.000115711
0.000115705
0.000107096
0.000107157
0.000115718
0.000115701
0.000115718
0.000115701
0.000115708
0.000115721
0.000115708
0.000107089
0.000107151
0.000115714
0.000115717
0.000115714
0.000107148
0.000107095
0.000107156
0.000115711
0.000115705
0.000115711
0.000115705
0.000107096
0.000107157
0.000115718
0.000115701
0.000115717
0.000115701
0.000115708
0.000115721
0.000115708
0.00010709
0.000107151
0.000115714
0.000115717
0.000115714
0.000107148
0.000107095
0.000107156
0.000115711
0.000115705
0.000115711
0.000115704
0.000107096
0.000107157
0.000115718
0.000115701
0.000115717
0.000115701
0.000115708
0.000115721
0.000115708
0.00010709
0.000107151
0.000115715
0.000115718
0.000115714
0.000107148
0.000107095
0.000107156
0.000115712
0.000115705
0.000115711
0.000115704
0.000107096
0.000107157
0.000115717
0.000115701
0.000115717
0.000115701
0.000115708
0.000115721
0.000115708
0.00010709
0.000107151
0.000115714
0.000115717
0.000115714
0.000107148
0.000107095
0.000107156
0.000115711
0.000115704
0.000115711
0.000115704
0.000107096
0.000107157
0.000115717
0.000115701
0.000115717
0.000115701
0.000115708
0.000115721
0.000115708
0.00010709
0.000107151
0.000115714
0.000115717
0.000115714
0.000107148
0.000107095
0.000107156
0.000115712
0.000115705
0.000115712
0.000115705
0.000107096
0.000107157
0.000115718
0.000115701
0.000115718
0.0001157
0.000115708
0.000115722
0.000115708
0.00010709
0.000107151
0.000115714
0.000115717
0.000115714
0.000107149
0.000107095
0.000107156
0.000115712
0.000115705
0.000115712
0.000115705
0.000107096
0.000107158
0.000115718
0.000115701
0.000115718
0.0001157
0.000115708
0.000115722
0.000115708
0.00010709
0.000107151
0.000115714
0.000115718
0.000115714
0.000107148
0.000107095
0.000107156
0.000115712
0.000115705
0.000115712
0.000115705
0.000107096
0.000107158
0.000115718
0.000115701
0.000115718
0.000115701
0.000115708
0.000115721
0.000115708
0.00010709
0.000107151
0.000115714
0.000115717
0.000115714
0.000107148
0.000107095
0.000107156
0.000115712
0.000115705
0.000115712
0.000115704
0.000107096
0.000107158
0.000115718
0.000115701
0.000115718
0.000115701
0.000115708
0.000115721
0.000115708
0.00010709
0.000107151
0.000115714
0.000115717
0.000115714
0.000107148
0.000107095
0.000107157
0.000115713
0.000115705
0.000115712
0.000115704
0.000107096
0.000107158
0.000115718
0.000115701
0.000115718
0.000115701
0.000115708
0.000115722
0.000115708
0.000107089
0.000107151
0.000115714
0.000115717
0.000115714
0.000107148
0.000107095
0.000107157
0.000115712
0.000115705
0.000115712
0.000115705
0.000107096
0.000107158
0.000115718
0.000115701
0.000115718
0.0001157
0.000115708
0.000115721
0.000115708
0.00010709
0.000107151
0.000115714
0.000115718
0.000115714
0.000107148
0.000107095
0.000107157
0.000115713
0.000115705
0.000115712
0.000115705
0.000107096
0.000107158
0.000115718
0.000115701
0.000115717
0.0001157
0.000115708
0.000115721
0.000115708
0.00010709
0.000107151
0.000115714
0.000115717
0.000115714
0.000107148
0.000107095
0.000107156
0.000115712
0.000115705
0.000115712
0.000115705
0.000107096
0.000107158
0.000115718
0.000115701
0.000115717
0.0001157
0.000115708
0.000115721
0.000115708
0.00010709
0.000107151
0.000115714
0.000115717
0.000115714
0.000107148
0.000107095
0.000107156
0.000115713
0.000115705
0.000115712
0.000115705
0.000107096
0.000107158
0.000115717
0.000115701
0.000115717
0.0001157
0.000115708
0.000115721
0.000115708
0.00010709
0.000107151
0.000115714
0.000115717
0.000115714
0.000107148
0.000107095
0.000107156
0.000115713
0.000115705
0.000115712
0.000115705
0.000107096
0.000107158
0.000115717
0.000115701
0.000115717
0.0001157
0.000115708
0.000115721
0.000115708
0.00010709
0.000107151
0.000115714
0.000115717
0.000115714
0.000107148
0.000107095
0.000107156
0.000115712
0.000115705
0.000115712
0.000115705
0.000107096
0.000107158
0.000115717
0.000115701
0.000115717
0.000115701
0.000115708
0.000115721
0.000115707
0.000107089
0.000107151
0.000115714
0.000115718
0.000115714
0.000107148
0.000107095
0.000107156
0.000115712
0.000115705
0.000115712
0.000115705
0.000107096
0.000107158
0.000115717
0.000115701
0.000115717
0.000115701
0.000115708
0.000115722
0.000115708
0.00010709
0.000107151
0.000115714
0.000115718
0.000115713
0.000107147
0.000107095
0.000107156
0.000115712
0.000115705
0.000115712
0.000115705
0.000107096
0.000107158
0.000115717
0.000115701
0.000115717
0.0001157
0.000115708
0.000115721
0.000115708
0.00010709
0.000107151
0.000115713
0.000115717
0.000115713
0.000107147
0.000107095
0.000107156
0.000115712
0.000115705
0.000115712
0.000115705
0.000107096
0.000107158
0.000115717
0.000115701
0.000115717
0.0001157
0.000115708
0.000115721
0.000115708
0.00010709
0.000107151
0.000115713
0.000115718
0.000115713
0.000107148
0.000107095
0.000107157
0.000115713
0.000115705
0.000115712
0.000115705
0.000107096
0.000107158
0.000115718
0.0001157
0.000115717
0.0001157
0.000115708
0.000115722
0.000115708
0.00010709
0.000107151
0.000115714
0.000115718
0.000115714
0.000107148
0.000107095
0.000107157
0.000115713
0.000115705
0.000115712
0.000115705
0.000107096
0.000107158
0.000115718
0.000115701
0.000115717
0.0001157
0.000115708
0.000115722
0.000115707
0.000107089
0.000107151
0.000115714
0.000115717
0.000115713
0.000107148
0.000107095
0.000107156
0.000115712
0.000115705
0.000115712
0.000115705
0.000107096
0.000107158
0.000115718
0.0001157
0.000115717
0.0001157
0.000115707
0.000115721
0.000115708
0.000107089
0.000107151
0.000115713
0.000115717
0.000115713
0.000107148
0.000107095
0.000107156
0.000115712
0.000115705
0.000115712
0.000115705
0.000107096
0.000107158
0.000115717
0.0001157
0.000115717
0.0001157
0.000115708
0.000115721
0.000115708
0.000107089
0.000107151
0.000115713
0.000115717
0.000115713
0.000107148
0.000107095
0.000107156
0.000115713
0.000115705
0.000115712
0.000115705
0.000107096
0.000107158
0.000115717
0.000115701
0.000115717
0.000115701
0.000115708
0.000115721
0.000115708
0.000107089
0.000107151
0.000115714
0.000115717
0.000115713
0.000107148
0.000107095
0.000107156
0.000115712
0.000115705
0.000115712
0.000115705
0.000107096
0.000107158
0.000115717
0.000115701
0.000115717
0.0001157
0.000115708
0.000115721
0.000115708
0.000107089
0.000107151
0.000115713
0.000115717
0.000115713
0.000107148
0.000107095
0.000107157
0.000115713
0.000115705
0.000115712
0.000115705
0.000107096
0.000107158
0.000115718
0.000115701
0.000115717
0.0001157
0.000115708
0.000115721
0.000115708
0.000107089
0.000107151
0.000115713
0.000115717
0.000115713
0.000107148
0.000107095
0.000107156
0.000115712
0.000115705
0.000115712
0.000115705
0.000107096
0.000107158
0.000115717
0.000115701
0.000115717
0.0001157
0.000115708
0.000115721
0.000115707
0.00010709
0.000107151
0.000115713
0.000115717
0.000115713
0.000107148
0.000107095
0.000107156
0.000115712
0.000115705
0.000115712
0.000115705
0.000107096
0.000107158
0.000115717
0.000115701
0.000115717
0.0001157
0.000115708
0.000115721
0.000115708
0.00010709
0.000107151
0.000115713
0.000115717
0.000115714
0.000107148
0.000107095
0.000107156
0.000115713
0.000115705
0.000115713
0.000115705
0.000107096
0.000107158
0.000115718
0.000115701
0.000115717
0.0001157
0.000115708
0.000115721
0.000115708
0.000107089
0.000107151
0.000115714
0.000115718
0.000115714
0.000107148
0.000107095
0.000107156
0.000115713
0.000115705
0.000115712
0.000115705
0.000107096
0.000107158
0.000115717
0.000115701
0.000115717
0.0001157
0.000115708
0.000115721
0.000115708
0.000107089
0.000107151
0.000115714
0.000115718
0.000115713
0.000107148
0.000107095
0.000107156
0.000115712
0.000115705
0.000115713
0.000115705
0.000107096
0.000107158
0.000115717
0.000115701
0.000115717
0.0001157
0.000115708
0.000115721
0.000115708
0.00010709
0.000107151
0.000115713
0.000115717
0.000115713
0.000107148
0.000107095
0.000107157
0.000115713
0.000115705
0.000115713
0.000115705
0.000107096
0.000107158
0.000115718
0.000115701
0.000115717
0.0001157
0.000115708
0.000115721
0.000115708
0.00010709
0.000107151
0.000115713
0.000115717
0.000115713
0.000107148
0.000107095
0.000107156
0.000115713
0.000115705
0.000115712
0.000115705
0.000107096
0.000107158
0.000115718
0.000115701
0.000115717
0.000115701
0.000115708
0.000115721
0.000115708
0.00010709
0.000107151
0.000115714
0.000115717
0.000115714
0.000107147
0.000107095
0.000107156
0.000115712
0.000115705
0.000115712
0.000115705
0.000107096
0.000107158
0.000115717
0.000115701
0.000115717
0.000115701
0.000115708
0.000115721
0.000115708
0.00010709
0.000107151
0.000115714
0.000115717
0.000115714
0.000107148
0.000107095
0.000107156
0.000115712
0.000115705
0.000115712
0.000115705
0.000107096
0.000107158
0.000115717
0.000115701
0.000115717
0.0001157
0.000115708
0.000115721
0.000115708
0.00010709
0.000107151
0.000115714
0.000115717
0.000115713
0.000107148
0.000107095
0.000107156
0.000115713
0.000115705
0.000115713
0.000115705
0.000107096
0.000107158
0.000115717
0.000115701
0.000115717
0.000115701
0.000115708
0.000115721
0.000115707
0.00010709
0.000107151
0.000115713
0.000115717
0.000115713
0.000107148
0.000107095
0.000107157
0.000115713
0.000115705
0.000115713
0.000115705
0.000107096
0.000107158
0.000115718
0.000115701
0.000115718
0.000115701
0.000115708
0.000115721
0.000115708
0.00010709
0.000107151
0.000115714
0.000115717
0.000115714
0.000107148
0.000107095
0.000107157
0.000115713
0.000115706
0.000115713
0.000115706
0.000107097
0.000107158
0.000115718
0.000115702
0.000115718
0.000115701
0.000115709
0.000115721
0.000115709
0.000107089
0.000107151
0.000115715
0.000115717
0.000115715
0.000107148
0.000107095
0.000107157
0.000115713
0.000115706
0.000115713
0.000115706
0.000107096
0.000107158
0.000115718
0.000115702
0.000115718
0.000115701
0.00011571
0.000115722
0.000115709
0.000107089
0.000107151
0.000115715
0.000115717
0.000115715
0.000107149
0.000107095
0.000107157
0.000115714
0.000115707
0.000115713
0.000115706
0.000107097
0.000107158
0.000115719
0.000115702
0.000115718
0.000115702
0.00011571
0.000115722
0.000115709
0.00010709
0.000107151
0.000115715
0.000115717
0.000115715
0.000107149
0.000107095
0.000107157
0.000115714
0.000115707
0.000115713
0.000115706
0.000107097
0.000107158
0.000115719
0.000115702
0.000115718
0.000115702
0.00011571
0.000115721
0.000115709
0.00010709
0.000107151
0.000115715
0.000115717
0.000115715
0.000107149
0.000107095
0.000107157
0.000115714
0.000115707
0.000115713
0.000115706
0.000107097
0.000107158
0.000115719
0.000115702
0.000115718
0.000115702
0.00011571
0.000115721
0.000115709
0.00010709
0.000107151
0.000115715
0.000115717
0.000115715
0.000107148
0.000107096
0.000107157
0.000115714
0.000115706
0.000115713
0.000115706
0.000107097
0.000107158
0.000115719
0.000115702
0.000115718
0.000115702
0.00011571
0.000115721
0.000115709
0.00010709
0.000107151
0.000115715
0.000115717
0.000115715
0.000107148
0.000107096
0.000107157
0.000115714
0.000115706
0.000115713
0.000115705
0.000107097
0.000107158
0.000115719
0.000115702
0.000115718
0.000115702
0.00011571
0.000115722
0.000115709
0.00010709
0.000107151
0.000115715
0.000115717
0.000115714
0.000107149
0.000107096
0.000107157
0.000115714
0.000115706
0.000115714
0.000115706
0.000107097
0.000107158
0.000115719
0.000115702
0.000115719
0.000115702
0.00011571
0.000115722
0.000115709
0.00010709
0.000107152
0.000115715
0.000115718
0.000115714
0.000107149
0.000107096
0.000107158
0.000115715
0.000115707
0.000115714
0.000115707
0.000107097
0.000107159
0.00011572
0.000115703
0.000115719
0.000115702
0.00011571
0.000115722
0.00011571
0.000107091
0.000107152
0.000115716
0.000115718
0.000115715
0.000107149
0.000107097
0.000107159
0.000115716
0.000115708
0.000115715
0.000115708
0.000107098
0.00010716
0.000115721
0.000115704
0.00011572
0.000115704
0.000115711
0.000115724
0.000115711
0.000107091
0.000107153
0.000115717
0.00011572
0.000115716
0.00010715
0.000107098
0.00010716
0.000115717
0.00011571
0.000115718
0.000115711
0.000107099
0.000107162
0.000115722
0.000115706
0.000115723
0.000115706
0.000115713
0.000115726
0.000115713
0.000107092
0.000107155
0.000115719
0.000115722
0.000115719
0.000107152
0.000107099
0.000107163
0.000115721
0.000115714
0.000115723
0.000115715
0.000107101
0.000107165
0.000115726
0.000115709
0.000115728
0.000115711
0.000115716
0.000115731
0.000115718
0.000107094
0.000107158
0.000115722
0.000115727
0.000115724
0.000107155
0.000107103
0.000107168
0.000115727
0.00011572
0.000115731
0.000115725
0.000107104
0.000107169
0.000115732
0.000115715
0.000115736
0.00011572
0.000115722
0.00011574
0.000115727
0.000107098
0.000107162
0.000115728
0.000115736
0.000115733
0.000107159
0.000107108
0.000107178
0.000115738
0.000115731
0.000115755
0.000115749
0.000107109
0.00010718
0.000115743
0.000115727
0.000115761
0.000115745
0.000115733
0.000115764
0.00011575
0.000107103
0.000107173
0.000115739
0.00011576
0.000115758
0.000107172
0.000107118
0.000107671
0.000115731
0.000115725
0.000116332
0.000116327
0.000107119
0.000107672
0.000115737
0.00011572
0.000116337
0.000116324
0.000115726
0.000116339
0.000116328
0.000107112
0.000107666
0.000115734
0.000116336
0.000116334
0.000107666
0.000108237
0.000116485
0.00011648
0.000108237
0.000116489
0.000116477
0.000125309
0.000125308
0.000125308
0.000116481
0.000108232
0.000116486
0.000113875
3.83677e-05
8.51586e-05
8.51415e-05
5.33255e-07
7.96452e-06
3.68189e-06
5.94826e-05
4.6609e-07
6.84328e-06
5.96074e-05
2.34199e-06
2.5488e-06
4.736e-07
9.4822e-07
9.94784e-07
1.42467e-05
9.17237e-07
1.60131e-05
1.11005e-05
1.34099e-05
9.45445e-07
1.38139e-05
8.44042e-07
1.5382e-05
6.01808e-05
6.02116e-05
6.01481e-05
6.09132e-05
6.0807e-05
6.08563e-05
6.06379e-05
5.71552e-07
1.32124e-06
3.2444e-05
1.02954e-05
5.70184e-07
1.52463e-06
3.24249e-05
1.08531e-05
1.30462e-05
4.57783e-07
3.26815e-05
8.50012e-07
8.96712e-06
4.59207e-07
3.26936e-05
1.00996e-06
1.38128e-06
1.6074e-06
2.4118e-06
1.58722e-06
1.84097e-06
1.22596e-06
1.94724e-05
1.11613e-06
2.20871e-05
1.69594e-05
1.92617e-05
1.21819e-06
1.89217e-05
1.08297e-06
2.10854e-05
6.13688e-05
6.14209e-05
6.11683e-05