/*--------------------------------*- C++ -*----------------------------------*\
| =========                 |                                                 |
| \\      /  F ield         | OpenFOAM: The Open Source CFD Toolbox           |
|  \\    /   O peration     | Version:  v2012                                 |
|   \\  /    A nd           | Website:  www.openfoam.com                      |
|    \\/     M anipulation  |                                                 |
\*---------------------------------------------------------------------------*/
FoamFile
{
    version     2.0;
    format      ascii;
    class       volScalarField;
    location    "75";
    object      p;
}
// * * * * * * * * * * * * * * * * * * * * * * * * * * * * * * * * * * * * * //

dimensions      [0 2 -2 0 0 0 0];


internalField   nonuniform List<scalar> 
171728
(
0.00360105
0.00360108
0.00360109
0.00360322
0.00356323
0.00356261
0.00356256
0.00356588
0.0035271
0.00352633
0.00352635
0.00352856
0.00348119
0.00348067
0.0034807
0.00348335
0.00343352
0.00343301
0.00343302
0.00343578
0.00338522
0.00338474
0.00338471
0.00338757
0.00333733
0.00333693
0.00333696
0.0033397
0.00329026
0.00328995
0.00328996
0.00329276
0.00324423
0.00324403
0.00324401
0.00324678
0.00319932
0.00319917
0.00319917
0.00320192
0.0031555
0.00315536
0.00315536
0.00315796
0.00311296
0.00311289
0.00311285
0.00311542
0.00307157
0.00307148
0.00307143
0.00307401
0.00303109
0.00303114
0.00303112
0.00303363
0.00299073
0.0029907
0.00299073
0.00299333
0.00294928
0.00294907
0.00294908
0.00295175
0.00290778
0.00290747
0.00290748
0.00291005
0.00286756
0.00286735
0.00286735
0.00286979
0.00282894
0.00282884
0.00282884
0.00283112
0.00279131
0.00279125
0.00279125
0.00279347
0.00275401
0.00275396
0.00275396
0.00275617
0.00271677
0.00271672
0.00271672
0.00271893
0.00267953
0.00267948
0.00267948
0.00268169
0.00264229
0.00264225
0.00264225
0.00264446
0.00260505
0.00260501
0.00260501
0.00260722
0.00256782
0.00256777
0.00256777
0.00256998
0.00253058
0.00253053
0.00253053
0.00253274
0.00249334
0.0024933
0.0024933
0.0024955
0.0024561
0.00245606
0.00245606
0.00245827
0.00241887
0.00241882
0.00241882
0.00242103
0.00238163
0.00238159
0.00238159
0.00238379
0.00234439
0.00234435
0.00234435
0.00234656
0.00230716
0.00230711
0.00230711
0.00230932
0.00226992
0.00226988
0.00226988
0.00227208
0.00223268
0.00223264
0.00223264
0.00223485
0.00219545
0.0021954
0.0021954
0.00219761
0.00215821
0.00215817
0.00215817
0.00216038
0.00212098
0.00212093
0.00212093
0.00212314
0.00208374
0.0020837
0.0020837
0.00208591
0.00204651
0.00204646
0.00204646
0.00204867
0.00200927
0.00200923
0.00200923
0.00201144
0.00197204
0.00197199
0.00197199
0.0019742
0.0019348
0.00193476
0.00193476
0.00193697
0.00189757
0.00189752
0.00189752
0.00189973
0.00186033
0.00186029
0.00186029
0.0018625
0.0018231
0.00182306
0.00182306
0.00182526
0.00178587
0.00178582
0.00178582
0.00178803
0.00174863
0.00174859
0.00174859
0.0017508
0.0017114
0.00171136
0.00171136
0.00171356
0.00167417
0.00167412
0.00167412
0.00167633
0.00163693
0.00163688
0.00163688
0.00163909
0.00159969
0.00159964
0.00159964
0.00160185
0.00156245
0.00156241
0.00156241
0.00156462
0.00152521
0.00152517
0.00152517
0.00152738
0.00148798
0.00148793
0.00148793
0.00149014
0.00145074
0.00145069
0.00145069
0.0014529
0.0014135
0.00141345
0.00141345
0.00141566
0.00137626
0.00137621
0.00137621
0.00137842
0.00133901
0.00133897
0.00133897
0.00134118
0.00130177
0.00130172
0.00130172
0.00130393
0.00126453
0.00126448
0.00126448
0.00126669
0.00122728
0.00122724
0.00122724
0.00122945
0.00119004
0.00118999
0.00118999
0.0011922
0.00115279
0.00115275
0.00115275
0.00115496
0.00111555
0.0011155
0.0011155
0.00111771
0.00107831
0.00107826
0.00107826
0.00108047
0.00104106
0.00104102
0.00104102
0.00104323
0.00100382
0.00100377
0.00100377
0.00100598
0.000966574
0.000966529
0.000966529
0.000968738
0.000929331
0.000929286
0.000929286
0.000931494
0.000892087
0.000892042
0.000892043
0.000894251
0.000854843
0.000854798
0.000854798
0.000857007
0.000817599
0.000817554
0.000817554
0.000819763
0.000780356
0.000780311
0.000780311
0.000782519
0.000743112
0.000743067
0.000743067
0.000745275
0.000705868
0.000705823
0.000705823
0.000708031
0.000668624
0.000668579
0.000668579
0.000670788
0.00063138
0.000631335
0.000631335
0.000633543
0.000594135
0.00059409
0.00059409
0.000596299
0.000556891
0.000556846
0.000556846
0.000559055
0.000519648
0.000519603
0.000519603
0.000521812
0.000482404
0.000482359
0.000482359
0.000484567
0.000445159
0.000445114
0.000445114
0.000447322
0.000407916
0.00040787
0.00040787
0.000410079
0.000370672
0.000370627
0.000370627
0.000372834
0.000333427
0.000333382
0.000333382
0.000335589
0.000296183
0.000296137
0.000296137
0.000298343
0.000258937
0.000258892
0.000258892
0.000261095
0.00022169
0.000221646
0.000221646
0.000223846
0.00018444
0.000184397
0.000184397
0.000186591
0.000147183
0.000147145
0.000147144
0.000149327
0.000109911
0.000109881
0.000109881
0.000112046
7.26454e-05
7.26056e-05
7.26041e-05
7.47421e-05
3.62296e-05
3.56935e-05
3.569e-05
3.76132e-05
5.70863e-06
5.54032e-06
5.54073e-06
5.46156e-06
0.00360881
0.00360813
0.00360819
0.00360888
0.0036081
0.00360803
0.00361056
0.00361068
0.00361064
0.00361079
0.00360824
0.00360835
0.00360878
0.00360831
0.00360842
0.00360909
0.00360296
0.00356985
0.00360095
0.00360102
0.00357142
0.00357142
0.00360304
0.00356999
0.00360094
0.00360079
0.00357131
0.00357136
0.0036012
0.00357138
0.00357148
0.00360277
0.00356978
0.00360121
0.00357142
0.00357159
0.00356999
0.00356575
0.00353393
0.00356263
0.00356261
0.00353646
0.00353651
0.00356587
0.00353395
0.00356264
0.00356255
0.00353636
0.00353652
0.00356285
0.00353651
0.00353652
0.00356568
0.00353393
0.00356287
0.00353655
0.00353647
0.00353393
0.00352862
0.00348959
0.00352648
0.00352635
0.00349258
0.0034925
0.00352861
0.00348952
0.00352657
0.00352638
0.00349247
0.00349239
0.00352639
0.00349248
0.00349251
0.00352858
0.00348953
0.00352649
0.00349251
0.00349245
0.00348942
0.00348347
0.00344195
0.00348056
0.00348067
0.00344483
0.00344496
0.00348343
0.00344189
0.00348059
0.00348074
0.00344491
0.003445
0.0034806
0.00344496
0.00344487
0.00348345
0.00344189
0.00348076
0.00344493
0.00344479
0.0034419
0.00343578
0.00339374
0.00343303
0.00343301
0.00339677
0.00339684
0.00343576
0.00339372
0.00343304
0.00343323
0.00339688
0.00339705
0.00343294
0.00339681
0.00339673
0.00343577
0.00339368
0.00343296
0.00339686
0.0033968
0.00339374
0.00338756
0.0033458
0.00338475
0.00338474
0.00334875
0.00334883
0.00338754
0.00334579
0.00338484
0.00338494
0.00334891
0.00334893
0.0033849
0.00334881
0.00334865
0.00338753
0.00334576
0.00338469
0.00334881
0.00334883
0.00334577
0.00333975
0.00329869
0.00333692
0.00333696
0.00330162
0.00330162
0.00333973
0.00329871
0.00333699
0.00333709
0.00330171
0.00330149
0.003337
0.0033016
0.00330153
0.00333971
0.00329873
0.00333685
0.00330166
0.00330156
0.00329874
0.00329275
0.00325263
0.00328996
0.00328995
0.00325541
0.00325541
0.00329275
0.00325258
0.00328992
0.00328977
0.00325546
0.00325541
0.00328989
0.00325538
0.00325545
0.00329276
0.00325263
0.00328996
0.00325538
0.0032553
0.0032526
0.00324679
0.00320758
0.00324401
0.00324402
0.00321028
0.00321026
0.00324677
0.00320756
0.00324395
0.00324398
0.00321032
0.00321028
0.00324402
0.00321025
0.00321026
0.00324678
0.00320757
0.003244
0.00321024
0.00321022
0.00320761
0.00320191
0.00316355
0.00319916
0.00319917
0.0031662
0.00316618
0.00320188
0.00316355
0.00319913
0.00319914
0.00316623
0.00316622
0.00319915
0.00316619
0.0031662
0.00320189
0.00316354
0.00319912
0.00316618
0.00316618
0.00316352
0.00315798
0.00312077
0.00315536
0.00315536
0.00312339
0.00312337
0.00315797
0.00312077
0.00315536
0.00315535
0.00312337
0.00312338
0.00315537
0.00312339
0.0031234
0.00315797
0.00312077
0.00315533
0.00312337
0.00312339
0.0031208
0.0031154
0.00307927
0.00311289
0.00311287
0.00308174
0.00308173
0.0031154
0.00307927
0.00311288
0.00311289
0.00308175
0.00308174
0.00311291
0.00308176
0.00308176
0.00311539
0.00307925
0.00311289
0.00308171
0.00308175
0.00307928
0.003074
0.00303878
0.00307146
0.00307146
0.00304116
0.00304117
0.003074
0.00303879
0.00307148
0.00307147
0.00304115
0.00304114
0.00307147
0.00304116
0.00304116
0.00307397
0.00303877
0.00307147
0.00304113
0.00304115
0.00303878
0.00303363
0.00299865
0.00303115
0.00303115
0.00300094
0.00300094
0.00303365
0.00299866
0.00303113
0.00303111
0.00300094
0.00300095
0.00303114
0.00300093
0.00300093
0.00303364
0.00299868
0.00303113
0.00300096
0.00300094
0.00299865
0.00299334
0.0029572
0.00299071
0.00299071
0.00295954
0.00295954
0.00299334
0.0029572
0.0029907
0.00299072
0.00295954
0.00295955
0.0029907
0.00295954
0.00295954
0.00299335
0.00295721
0.0029907
0.00295955
0.00295954
0.0029572
0.00295175
0.00291546
0.00294908
0.00294907
0.00291779
0.00291779
0.00295175
0.00291546
0.00294908
0.00294908
0.00291779
0.00291779
0.00294907
0.00291778
0.00291778
0.00295176
0.00291546
0.00294908
0.00291779
0.00291779
0.00291546
0.00291003
0.00287496
0.00290749
0.00290749
0.00287722
0.00287722
0.00291004
0.00287497
0.0029075
0.0029075
0.00287722
0.00287722
0.00290746
0.00287722
0.00287722
0.00291004
0.00287497
0.00290748
0.00287722
0.00287722
0.00287497
0.00286979
0.00283611
0.00286735
0.00286735
0.00283835
0.00283835
0.00286979
0.00283611
0.00286735
0.00286734
0.00283835
0.00283835
0.00286735
0.00283835
0.00283835
0.00286979
0.00283611
0.00286735
0.00283835
0.00283835
0.00283611
0.00283112
0.00279838
0.00282884
0.00282884
0.0028006
0.0028006
0.00283112
0.00279838
0.00282884
0.00282884
0.0028006
0.0028006
0.00282884
0.0028006
0.0028006
0.00283112
0.00279838
0.00282884
0.0028006
0.0028006
0.00279838
0.00279347
0.00276107
0.00279125
0.00279125
0.00276327
0.00276328
0.00279347
0.00276107
0.00279125
0.00279125
0.00276327
0.00276328
0.00279125
0.00276328
0.00276328
0.00279347
0.00276107
0.00279125
0.00276327
0.00276328
0.00276107
0.00275617
0.00272383
0.00275396
0.00275396
0.00272603
0.00272603
0.00275617
0.00272383
0.00275396
0.00275396
0.00272603
0.00272603
0.00275396
0.00272603
0.00272603
0.00275617
0.00272383
0.00275396
0.00272603
0.00272603
0.00272383
0.00271893
0.00268659
0.00271672
0.00271672
0.00268879
0.00268879
0.00271893
0.00268659
0.00271672
0.00271672
0.00268879
0.00268879
0.00271672
0.00268879
0.00268879
0.00271893
0.00268659
0.00271672
0.00268879
0.00268879
0.00268659
0.00268169
0.00264935
0.00267948
0.00267948
0.00265156
0.00265156
0.00268169
0.00264935
0.00267948
0.00267948
0.00265156
0.00265156
0.00267948
0.00265156
0.00265156
0.00268169
0.00264935
0.00267948
0.00265156
0.00265156
0.00264935
0.00264445
0.00261211
0.00264225
0.00264225
0.00261432
0.00261432
0.00264445
0.00261211
0.00264225
0.00264225
0.00261432
0.00261432
0.00264225
0.00261432
0.00261432
0.00264446
0.00261211
0.00264225
0.00261432
0.00261432
0.00261211
0.00260722
0.00257488
0.00260501
0.00260501
0.00257708
0.00257708
0.00260722
0.00257488
0.00260501
0.00260501
0.00257708
0.00257708
0.00260501
0.00257708
0.00257708
0.00260722
0.00257488
0.00260501
0.00257708
0.00257708
0.00257488
0.00256998
0.00253764
0.00256777
0.00256777
0.00253984
0.00253984
0.00256998
0.00253764
0.00256777
0.00256777
0.00253984
0.00253984
0.00256777
0.00253984
0.00253984
0.00256998
0.00253764
0.00256777
0.00253984
0.00253984
0.00253764
0.00253274
0.0025004
0.00253053
0.00253053
0.00250261
0.0025026
0.00253274
0.0025004
0.00253053
0.00253053
0.0025026
0.00250261
0.00253053
0.0025026
0.00250261
0.00253274
0.0025004
0.00253053
0.0025026
0.00250261
0.0025004
0.0024955
0.00246316
0.0024933
0.0024933
0.00246537
0.00246537
0.0024955
0.00246316
0.0024933
0.0024933
0.00246537
0.00246537
0.0024933
0.00246537
0.00246537
0.0024955
0.00246316
0.0024933
0.00246537
0.00246537
0.00246316
0.00245827
0.00242593
0.00245606
0.00245606
0.00242813
0.00242813
0.00245827
0.00242593
0.00245606
0.00245606
0.00242813
0.00242813
0.00245606
0.00242813
0.00242813
0.00245827
0.00242593
0.00245606
0.00242813
0.00242813
0.00242593
0.00242103
0.00238869
0.00241882
0.00241882
0.0023909
0.0023909
0.00242103
0.00238869
0.00241882
0.00241882
0.0023909
0.0023909
0.00241882
0.0023909
0.0023909
0.00242103
0.00238869
0.00241882
0.0023909
0.0023909
0.00238869
0.00238379
0.00235145
0.00238159
0.00238159
0.00235366
0.00235366
0.0023838
0.00235146
0.00238159
0.00238159
0.00235366
0.00235366
0.00238159
0.00235366
0.00235366
0.00238379
0.00235145
0.00238159
0.00235366
0.00235366
0.00235145
0.00234656
0.00231422
0.00234435
0.00234435
0.00231642
0.00231642
0.00234656
0.00231422
0.00234435
0.00234435
0.00231642
0.00231642
0.00234435
0.00231642
0.00231642
0.00234656
0.00231422
0.00234435
0.00231642
0.00231642
0.00231422
0.00230932
0.00227698
0.00230711
0.00230711
0.00227918
0.00227918
0.00230932
0.00227698
0.00230711
0.00230711
0.00227918
0.00227919
0.00230711
0.00227918
0.00227918
0.00230932
0.00227698
0.00230711
0.00227918
0.00227918
0.00227698
0.00227208
0.00223974
0.00226988
0.00226988
0.00224195
0.00224195
0.00227208
0.00223974
0.00226988
0.00226988
0.00224195
0.00224195
0.00226988
0.00224195
0.00224195
0.00227208
0.00223974
0.00226988
0.00224195
0.00224195
0.00223974
0.00223485
0.00220251
0.00223264
0.00223264
0.00220471
0.00220471
0.00223485
0.00220251
0.00223264
0.00223264
0.00220471
0.00220471
0.00223264
0.00220471
0.00220471
0.00223485
0.00220251
0.00223264
0.00220471
0.00220471
0.00220251
0.00219761
0.00216527
0.0021954
0.0021954
0.00216748
0.00216748
0.00219761
0.00216527
0.0021954
0.0021954
0.00216748
0.00216748
0.0021954
0.00216748
0.00216748
0.00219761
0.00216527
0.0021954
0.00216748
0.00216748
0.00216527
0.00216038
0.00212804
0.00215817
0.00215817
0.00213024
0.00213024
0.00216038
0.00212804
0.00215817
0.00215817
0.00213024
0.00213024
0.00215817
0.00213024
0.00213024
0.00216038
0.00212804
0.00215817
0.00213024
0.00213024
0.00212804
0.00212314
0.0020908
0.00212093
0.00212093
0.00209301
0.00209301
0.00212314
0.0020908
0.00212093
0.00212093
0.00209301
0.00209301
0.00212093
0.00209301
0.00209301
0.00212314
0.0020908
0.00212093
0.00209301
0.00209301
0.0020908
0.00208591
0.00205357
0.0020837
0.0020837
0.00205577
0.00205577
0.00208591
0.00205357
0.0020837
0.0020837
0.00205577
0.00205577
0.0020837
0.00205577
0.00205577
0.00208591
0.00205357
0.0020837
0.00205577
0.00205577
0.00205357
0.00204867
0.00201633
0.00204646
0.00204646
0.00201854
0.00201854
0.00204867
0.00201633
0.00204646
0.00204646
0.00201854
0.00201854
0.00204646
0.00201854
0.00201854
0.00204867
0.00201633
0.00204646
0.00201854
0.00201854
0.00201633
0.00201144
0.0019791
0.00200923
0.00200923
0.0019813
0.0019813
0.00201144
0.0019791
0.00200923
0.00200923
0.0019813
0.0019813
0.00200923
0.0019813
0.0019813
0.00201144
0.0019791
0.00200923
0.0019813
0.0019813
0.0019791
0.0019742
0.00194186
0.00197199
0.00197199
0.00194407
0.00194407
0.0019742
0.00194186
0.00197199
0.00197199
0.00194407
0.00194407
0.00197199
0.00194407
0.00194407
0.0019742
0.00194186
0.00197199
0.00194407
0.00194407
0.00194186
0.00193697
0.00190463
0.00193476
0.00193476
0.00190683
0.00190683
0.00193697
0.00190463
0.00193476
0.00193476
0.00190683
0.00190683
0.00193476
0.00190683
0.00190683
0.00193697
0.00190463
0.00193476
0.00190683
0.00190683
0.00190463
0.00189973
0.00186739
0.00189752
0.00189752
0.0018696
0.0018696
0.00189973
0.00186739
0.00189752
0.00189752
0.0018696
0.0018696
0.00189752
0.0018696
0.0018696
0.00189973
0.00186739
0.00189752
0.0018696
0.0018696
0.00186739
0.0018625
0.00183016
0.00186029
0.00186029
0.00183236
0.00183236
0.0018625
0.00183016
0.00186029
0.00186029
0.00183236
0.00183236
0.00186029
0.00183236
0.00183236
0.0018625
0.00183016
0.00186029
0.00183236
0.00183236
0.00183016
0.00182526
0.00179293
0.00182306
0.00182306
0.00179513
0.00179513
0.00182526
0.00179293
0.00182306
0.00182306
0.00179513
0.00179513
0.00182306
0.00179513
0.00179513
0.00182526
0.00179293
0.00182306
0.00179513
0.00179513
0.00179293
0.00178803
0.00175569
0.00178582
0.00178582
0.0017579
0.0017579
0.00178803
0.00175569
0.00178582
0.00178582
0.0017579
0.0017579
0.00178582
0.0017579
0.0017579
0.00178803
0.00175569
0.00178582
0.0017579
0.0017579
0.00175569
0.0017508
0.00171846
0.00174859
0.00174859
0.00172066
0.00172066
0.0017508
0.00171846
0.00174859
0.00174859
0.00172066
0.00172066
0.00174859
0.00172066
0.00172066
0.0017508
0.00171846
0.00174859
0.00172066
0.00172066
0.00171846
0.00171356
0.00168123
0.00171136
0.00171136
0.00168343
0.00168343
0.00171356
0.00168123
0.00171136
0.00171136
0.00168343
0.00168343
0.00171136
0.00168343
0.00168343
0.00171356
0.00168123
0.00171136
0.00168343
0.00168343
0.00168123
0.00167633
0.00164399
0.00167412
0.00167412
0.00164619
0.00164619
0.00167633
0.00164399
0.00167412
0.00167412
0.00164619
0.00164619
0.00167412
0.00164619
0.00164619
0.00167633
0.00164399
0.00167412
0.00164619
0.00164619
0.00164399
0.00163909
0.00160675
0.00163688
0.00163688
0.00160895
0.00160895
0.00163909
0.00160675
0.00163688
0.00163688
0.00160895
0.00160895
0.00163688
0.00160895
0.00160895
0.00163909
0.00160675
0.00163688
0.00160895
0.00160895
0.00160675
0.00160185
0.00156951
0.00159964
0.00159964
0.00157172
0.00157172
0.00160185
0.00156951
0.00159964
0.00159964
0.00157172
0.00157172
0.00159964
0.00157172
0.00157172
0.00160185
0.00156951
0.00159964
0.00157172
0.00157172
0.00156951
0.00156462
0.00153228
0.00156241
0.00156241
0.00153448
0.00153448
0.00156462
0.00153227
0.00156241
0.00156241
0.00153448
0.00153448
0.00156241
0.00153448
0.00153448
0.00156462
0.00153228
0.00156241
0.00153448
0.00153448
0.00153227
0.00152738
0.00149504
0.00152517
0.00152517
0.00149724
0.00149724
0.00152738
0.00149504
0.00152517
0.00152517
0.00149724
0.00149724
0.00152517
0.00149724
0.00149724
0.00152738
0.00149504
0.00152517
0.00149724
0.00149724
0.00149504
0.00149014
0.0014578
0.00148793
0.00148793
0.00146
0.00146
0.00149014
0.0014578
0.00148793
0.00148793
0.00146
0.00146
0.00148793
0.00146
0.00146
0.00149014
0.0014578
0.00148793
0.00146
0.00146
0.0014578
0.0014529
0.00142056
0.00145069
0.00145069
0.00142276
0.00142276
0.0014529
0.00142056
0.00145069
0.00145069
0.00142276
0.00142276
0.00145069
0.00142276
0.00142276
0.0014529
0.00142056
0.00145069
0.00142276
0.00142276
0.00142056
0.00141566
0.00138332
0.00141345
0.00141345
0.00138552
0.00138552
0.00141566
0.00138332
0.00141345
0.00141345
0.00138552
0.00138552
0.00141345
0.00138552
0.00138552
0.00141566
0.00138332
0.00141345
0.00138552
0.00138552
0.00138332
0.00137842
0.00134607
0.00137621
0.00137621
0.00134828
0.00134828
0.00137842
0.00134607
0.00137621
0.00137621
0.00134828
0.00134828
0.00137621
0.00134828
0.00134828
0.00137842
0.00134607
0.00137621
0.00134828
0.00134828
0.00134607
0.00134118
0.00130883
0.00133897
0.00133897
0.00131104
0.00131104
0.00134118
0.00130883
0.00133897
0.00133897
0.00131103
0.00131104
0.00133897
0.00131104
0.00131104
0.00134118
0.00130883
0.00133897
0.00131104
0.00131104
0.00130883
0.00130393
0.00127159
0.00130172
0.00130172
0.00127379
0.00127379
0.00130393
0.00127159
0.00130172
0.00130172
0.00127379
0.00127379
0.00130172
0.00127379
0.00127379
0.00130393
0.00127159
0.00130172
0.00127379
0.00127379
0.00127159
0.00126669
0.00123434
0.00126448
0.00126448
0.00123655
0.00123655
0.00126669
0.00123434
0.00126448
0.00126448
0.00123655
0.00123655
0.00126448
0.00123655
0.00123655
0.00126669
0.00123434
0.00126448
0.00123655
0.00123655
0.00123434
0.00122945
0.0011971
0.00122724
0.00122724
0.0011993
0.0011993
0.00122945
0.0011971
0.00122724
0.00122724
0.0011993
0.0011993
0.00122724
0.0011993
0.0011993
0.00122945
0.0011971
0.00122724
0.0011993
0.0011993
0.0011971
0.0011922
0.00115986
0.00118999
0.00118999
0.00116206
0.00116206
0.0011922
0.00115986
0.00118999
0.00118999
0.00116206
0.00116206
0.00118999
0.00116206
0.00116206
0.0011922
0.00115986
0.00118999
0.00116206
0.00116206
0.00115986
0.00115496
0.00112261
0.00115275
0.00115275
0.00112482
0.00112482
0.00115496
0.00112261
0.00115275
0.00115275
0.00112482
0.00112482
0.00115275
0.00112482
0.00112482
0.00115496
0.00112261
0.00115275
0.00112482
0.00112482
0.00112261
0.00111771
0.00108537
0.0011155
0.0011155
0.00108757
0.00108757
0.00111771
0.00108537
0.0011155
0.0011155
0.00108757
0.00108757
0.00111551
0.00108757
0.00108757
0.00111771
0.00108537
0.0011155
0.00108757
0.00108757
0.00108537
0.00108047
0.00104812
0.00107826
0.00107826
0.00105033
0.00105033
0.00108047
0.00104812
0.00107826
0.00107826
0.00105033
0.00105033
0.00107826
0.00105033
0.00105033
0.00108047
0.00104812
0.00107826
0.00105033
0.00105033
0.00104812
0.00104323
0.00101088
0.00104102
0.00104102
0.00101308
0.00101308
0.00104323
0.00101088
0.00104102
0.00104102
0.00101308
0.00101308
0.00104102
0.00101308
0.00101308
0.00104323
0.00101088
0.00104102
0.00101308
0.00101308
0.00101088
0.00100598
0.000973636
0.00100377
0.00100377
0.00097584
0.00097584
0.00100598
0.000973636
0.00100377
0.00100377
0.00097584
0.00097584
0.00100377
0.00097584
0.00097584
0.00100598
0.000973635
0.00100377
0.00097584
0.00097584
0.000973635
0.000968738
0.000936392
0.000966529
0.000966529
0.000938597
0.000938597
0.000968738
0.000936392
0.000966529
0.000966529
0.000938596
0.000938597
0.000966529
0.000938597
0.000938597
0.000968738
0.000936392
0.000966529
0.000938596
0.000938596
0.000936392
0.000931494
0.000899148
0.000929286
0.000929286
0.000901353
0.000901353
0.000931494
0.000899149
0.000929286
0.000929286
0.000901353
0.000901353
0.000929286
0.000901353
0.000901353
0.000931494
0.000899149
0.000929286
0.000901354
0.000901354
0.000899149
0.000894251
0.000861905
0.000892042
0.000892042
0.000864109
0.000864109
0.000894251
0.000861905
0.000892042
0.000892043
0.000864109
0.00086411
0.000892043
0.000864109
0.00086411
0.000894251
0.000861905
0.000892043
0.00086411
0.00086411
0.000861905
0.000857007
0.000824661
0.000854798
0.000854798
0.000826866
0.000826865
0.000857007
0.000824661
0.000854798
0.000854799
0.000826865
0.000826866
0.000854799
0.000826866
0.000826866
0.000857007
0.000824661
0.000854799
0.000826866
0.000826866
0.000824661
0.000819763
0.000787417
0.000817555
0.000817554
0.000789622
0.000789621
0.000819763
0.000787417
0.000817554
0.000817555
0.000789621
0.000789622
0.000817555
0.000789622
0.000789622
0.000819763
0.000787417
0.000817555
0.000789622
0.000789622
0.000787417
0.000782519
0.000750173
0.000780311
0.000780311
0.000752378
0.000752378
0.000782519
0.000750173
0.00078031
0.000780311
0.000752377
0.000752378
0.000780311
0.000752378
0.000752378
0.000782519
0.000750173
0.000780311
0.000752378
0.000752378
0.000750173
0.000745275
0.000712929
0.000743067
0.000743067
0.000715134
0.000715133
0.000745275
0.000712929
0.000743067
0.000743067
0.000715133
0.000715134
0.000743067
0.000715134
0.000715134
0.000745275
0.000712929
0.000743067
0.000715133
0.000715133
0.000712929
0.000708031
0.000675685
0.000705823
0.000705823
0.00067789
0.000677889
0.000708031
0.000675685
0.000705823
0.000705823
0.000677889
0.000677889
0.000705823
0.000677889
0.00067789
0.000708031
0.000675685
0.000705823
0.000677889
0.000677889
0.000675685
0.000670787
0.000638441
0.000668579
0.000668579
0.000640646
0.000640646
0.000670787
0.000638441
0.000668579
0.000668579
0.000640645
0.000640646
0.000668579
0.000640646
0.000640646
0.000670787
0.000638441
0.000668579
0.000640646
0.000640646
0.000638441
0.000633543
0.000601197
0.000631335
0.000631335
0.000603402
0.000603402
0.000633543
0.000601197
0.000631335
0.000631335
0.000603402
0.000603402
0.000631335
0.000603402
0.000603402
0.000633543
0.000601197
0.000631335
0.000603402
0.000603402
0.000601197
0.000596299
0.000563953
0.00059409
0.00059409
0.000566158
0.000566158
0.000596299
0.000563953
0.00059409
0.00059409
0.000566158
0.000566158
0.00059409
0.000566158
0.000566158
0.000596299
0.000563953
0.00059409
0.000566158
0.000566158
0.000563953
0.000559055
0.000526709
0.000556846
0.000556846
0.000528913
0.000528913
0.000559055
0.000526709
0.000556846
0.000556846
0.000528913
0.000528913
0.000556847
0.000528913
0.000528913
0.000559055
0.000526709
0.000556846
0.000528913
0.000528913
0.000526709
0.000521812
0.000489464
0.000519603
0.000519603
0.000491669
0.000491669
0.000521811
0.000489465
0.000519603
0.000519603
0.000491669
0.000491669
0.000519603
0.000491669
0.000491669
0.000521812
0.000489464
0.000519603
0.000491669
0.000491669
0.000489464
0.000484567
0.000452221
0.000482359
0.000482359
0.000454426
0.000454425
0.000484567
0.000452221
0.000482359
0.000482359
0.000454425
0.000454426
0.000482359
0.000454426
0.000454426
0.000484567
0.000452221
0.000482359
0.000454426
0.000454425
0.000452221
0.000447322
0.000414977
0.000445114
0.000445114
0.000417181
0.000417181
0.000447322
0.000414977
0.000445114
0.000445114
0.000417181
0.000417181
0.000445114
0.000417181
0.000417181
0.000447322
0.000414977
0.000445114
0.000417181
0.000417181
0.000414977
0.000410079
0.000377733
0.000407871
0.00040787
0.000379937
0.000379937
0.000410079
0.000377733
0.00040787
0.000407871
0.000379937
0.000379937
0.000407871
0.000379937
0.000379937
0.000410079
0.000377733
0.00040787
0.000379937
0.000379937
0.000377733
0.000372834
0.000340489
0.000370627
0.000370626
0.000342693
0.000342693
0.000372834
0.000340489
0.000370626
0.000370627
0.000342693
0.000342693
0.000370627
0.000342693
0.000342693
0.000372834
0.000340489
0.000370627
0.000342693
0.000342693
0.000340489
0.000335589
0.000303245
0.000333382
0.000333382
0.000305448
0.000305448
0.000335589
0.000303245
0.000333382
0.000333382
0.000305448
0.000305448
0.000333382
0.000305448
0.000305448
0.000335589
0.000303245
0.000333382
0.000305448
0.000305448
0.000303245
0.000298343
0.000266
0.000296138
0.000296137
0.000268203
0.000268203
0.000298343
0.000266
0.000296137
0.000296137
0.000268203
0.000268203
0.000296138
0.000268203
0.000268203
0.000298343
0.000266
0.000296137
0.000268203
0.000268203
0.000266
0.000261095
0.000228756
0.000258892
0.000258892
0.000230957
0.000230957
0.000261095
0.000228756
0.000258892
0.000258892
0.000230956
0.000230957
0.000258892
0.000230956
0.000230957
0.000261095
0.000228756
0.000258892
0.000230956
0.000230956
0.000228756
0.000223846
0.00019151
0.000221646
0.000221646
0.000193709
0.000193708
0.000223846
0.00019151
0.000221646
0.000221646
0.000193708
0.000193708
0.000221646
0.000193708
0.000193709
0.000223846
0.00019151
0.000221646
0.000193708
0.000193708
0.00019151
0.000186591
0.000154262
0.000184398
0.000184397
0.000156456
0.000156456
0.00018659
0.000154262
0.000184397
0.000184398
0.000156456
0.000156456
0.000184398
0.000156456
0.000156456
0.000186591
0.000154261
0.000184397
0.000156456
0.000156456
0.000154261
0.000149327
0.000117005
0.000147145
0.000147145
0.000119195
0.000119195
0.000149327
0.000117006
0.000147144
0.000147145
0.000119195
0.000119195
0.000147145
0.000119195
0.000119195
0.000149327
0.000117005
0.000147145
0.000119194
0.000119195
0.000117005
0.000112046
7.97351e-05
0.000109881
0.000109882
8.19188e-05
8.19189e-05
0.000112046
7.97359e-05
0.000109881
0.000109881
8.19182e-05
8.19179e-05
0.000109881
8.19187e-05
8.19181e-05
0.000112046
7.97343e-05
0.000109881
8.19178e-05
8.19179e-05
7.97344e-05
7.47432e-05
4.25603e-05
7.26056e-05
7.26058e-05
4.47566e-05
4.47574e-05
7.47433e-05
4.25613e-05
7.26047e-05
7.26042e-05
4.47552e-05
4.47538e-05
7.26047e-05
4.47562e-05
4.47534e-05
7.47425e-05
4.25577e-05
7.26043e-05
4.47534e-05
4.47525e-05
4.25572e-05
3.76172e-05
8.80015e-06
3.56945e-05
3.56952e-05
1.11819e-05
1.11816e-05
3.76177e-05
8.79987e-06
3.56934e-05
3.5691e-05
1.11806e-05
1.11772e-05
3.56899e-05
1.11787e-05
1.11747e-05
3.7614e-05
8.7968e-06
3.56895e-05
1.11772e-05
1.1176e-05
8.79433e-06
5.46584e-06
5.54472e-06
5.54341e-06
5.46661e-06
5.54036e-06
5.54e-06
5.70784e-06
5.70645e-06
5.70548e-06
5.53826e-06
5.4643e-06
5.53745e-06
0.00361521
0.00362019
0.00361779
0.00361774
0.00363818
0.00362224
0.00364753
0.00361954
0.00363856
0.00362224
0.00361971
0.00364779
0.00362926
0.0036507
0.00365098
0.00358414
0.0035992
0.00360274
0.00357608
0.00357626
0.00357942
0.00358396
0.00359908
0.00360259
0.00357614
0.00360115
0.00360109
0.00360128
0.00357194
0.00357198
0.00357192
0.00357201
0.00358393
0.00359791
0.00360179
0.00359093
0.00360403
0.00358044
0.00359155
0.00357563
0.00357928
0.00358411
0.00360196
0.00360007
0.00359084
0.00360463
0.00359157
0.0035804
0.00360325
0.00360333
0.00358765
0.00358058
0.0035806
0.00355705
0.00357024
0.00356979
0.00355517
0.00356769
0.00355421
0.00355713
0.00357028
0.0035697
0.00355517
0.00356326
0.00356322
0.00356324
0.0035371
0.00353714
0.00353711
0.00353708
0.00355462
0.00356916
0.00356275
0.0035545
0.00356727
0.00355537
0.00355406
0.00356755
0.00355422
0.00355468
0.00356262
0.00356904
0.00355454
0.00356724
0.00355414
0.00355546
0.00357091
0.00357089
0.00355336
0.00355621
0.00355623
0.00351458
0.00352974
0.00353052
0.00351353
0.00352862
0.00351263
0.00351472
0.00352987
0.00353056
0.00351351
0.00352711
0.0035271
0.00352702
0.0034931
0.00349307
0.00349306
0.003493
0.00351306
0.00352947
0.00352601
0.00351564
0.00352867
0.00351389
0.00351523
0.00352855
0.00351263
0.00351312
0.00352609
0.00352954
0.00351559
0.00352866
0.00351525
0.00351389
0.0035302
0.00353016
0.00351249
0.00351381
0.00351373
0.00346763
0.00348444
0.00348576
0.00346616
0.00348371
0.0034657
0.00346751
0.00348454
0.00348592
0.00346617
0.0034812
0.00348119
0.00348114
0.00344552
0.00344549
0.00344549
0.0034455
0.00346615
0.00348445
0.00348034
0.00346874
0.0034841
0.00346666
0.0034685
0.00348373
0.00346573
0.00346613
0.0034804
0.00348451
0.00346871
0.00348402
0.0034685
0.00346667
0.00348448
0.00348425
0.00346566
0.00346626
0.00346593
0.00341903
0.00343625
0.00343757
0.0034178
0.00343575
0.00341766
0.00341912
0.00343619
0.00343747
0.00341791
0.00343351
0.00343354
0.00343351
0.00339732
0.00339732
0.00339733
0.00339732
0.00341823
0.00343632
0.00343283
0.003421
0.00343612
0.00341843
0.00342084
0.00343568
0.00341784
0.00341819
0.0034328
0.0034364
0.003421
0.00343609
0.00342079
0.00341842
0.00343619
0.0034361
0.00341791
0.00341807
0.00341824
0.00337038
0.00338779
0.00338868
0.00336952
0.00338742
0.00336936
0.00337045
0.00338765
0.00338867
0.00336964
0.0033852
0.00338522
0.00338521
0.00334922
0.00334922
0.00334923
0.00334921
0.00336985
0.00338789
0.00338464
0.00337275
0.00338779
0.00337008
0.0033726
0.00338725
0.00336982