/*--------------------------------*- C++ -*----------------------------------*\
| =========                 |                                                 |
| \\      /  F ield         | OpenFOAM: The Open Source CFD Toolbox           |
|  \\    /   O peration     | Version:  v2012                                 |
|   \\  /    A nd           | Website:  www.openfoam.com                      |
|    \\/     M anipulation  |                                                 |
\*---------------------------------------------------------------------------*/
FoamFile
{
    version     2.0;
    format      ascii;
    class       volScalarField;
    location    "200";
    object      epsilon;
}
// * * * * * * * * * * * * * * * * * * * * * * * * * * * * * * * * * * * * * //

dimensions      [0 2 -3 0 0 0 0];


internalField   nonuniform List<scalar> 
85864
(
2.70145e-07
7.79332e-07
1.07126e-06
7.80108e-07
7.80249e-07
7.79725e-07
1.06977e-06
9.03115e-06
9.03452e-06
4.06903e-06
2.69999e-07
1.81918e-05
3.42571e-06
1.81935e-05
1.81962e-05
5.4111e-06
5.41305e-06
3.42545e-06
3.42671e-06
4.80963e-07
2.05119e-06
9.03149e-06
4.06916e-06
4.80898e-07
3.42675e-06
2.05142e-06
5.41292e-06
5.4112e-06
1.81919e-05
9.03096e-06
9.0326e-06
7.06441e-06
2.18327e-05
2.18428e-05
9.03597e-06
7.0671e-06
7.06679e-06
2.18362e-05
1.2066e-05
4.06921e-06
4.72685e-06
1.06939e-05
4.72691e-06
1.06954e-05
1.2064e-05
1.81961e-05
1.81975e-05
1.82001e-05
4.4919e-06
2.75992e-06
5.41109e-06
9.3523e-06
9.35395e-06
2.76003e-06
4.49203e-06
4.49866e-06
2.7613e-06
5.413e-06
9.35702e-06
9.35927e-06
2.76089e-06
4.49875e-06
9.67885e-06
2.15029e-05
2.15028e-05
2.15085e-05
2.15083e-05
9.67988e-06
2.1839e-05
9.03365e-06
7.0653e-06
7.06479e-06
2.18323e-05
1.20653e-05
4.06931e-06
1.06937e-05
4.72705e-06
1.06952e-05
4.72697e-06
1.20636e-05
4.49901e-06
2.76095e-06
5.41279e-06
9.355e-06
9.35751e-06
2.76104e-06
4.49905e-06
4.49289e-06
2.76038e-06
5.41122e-06
9.35138e-06
2.76021e-06
9.35337e-06
4.49297e-06
9.67936e-06
2.15008e-05
2.15013e-05
2.15067e-05
2.15072e-05
9.68011e-06
1.81959e-05
9.03237e-06
1.40047e-07
2.61734e-06
1.70469e-06
1.7054e-06
1.06993e-06
1.70412e-06
1.70473e-06
2.61816e-06
2.61655e-06
1.70479e-06
1.70438e-06
1.06874e-06
1.704e-06
1.70428e-06
2.61663e-06
1.40143e-07
1.54389e-06
1.96898e-06
3.4259e-06
2.81626e-06
1.96867e-06
2.81627e-06
1.54457e-06
1.54296e-06
1.96991e-06
3.42556e-06
2.81599e-06
2.81597e-06
1.96958e-06
1.54536e-06
1.54464e-06
1.96998e-06
3.42691e-06
2.81763e-06
2.81735e-06
1.96968e-06
1.54531e-06
1.33717e-06
2.05182e-06
2.31735e-06
1.19589e-06
2.31771e-06
1.19522e-06
1.33889e-06
1.54426e-06
1.97012e-06
3.42686e-06
2.81738e-06
2.81729e-06
1.96982e-06
1.54492e-06
1.3368e-06
2.05188e-06
1.19603e-06
2.31713e-06
1.19529e-06
2.31785e-06
1.339e-06
7.78625e-07
1.07199e-06
2.74304e-07
7.86224e-07
7.86795e-07
1.07847e-06
2.7759e-07
7.9221e-07
7.9278e-07
1.08345e-06
2.8012e-07
7.96486e-07
7.97105e-07
1.0867e-06
2.81992e-07
7.99208e-07
7.99874e-07
1.08907e-06
2.833e-07
8.00825e-07
8.01477e-07
1.08964e-06
2.84104e-07
8.01832e-07
8.02573e-07
1.09084e-06
2.84579e-07
8.02236e-07
8.03127e-07
1.09065e-06
2.84882e-07
8.02171e-07
8.03062e-07
1.09022e-06
2.85106e-07
8.02092e-07
8.02999e-07
1.09072e-06
2.85262e-07
8.021e-07
8.03097e-07
1.0907e-06
2.85473e-07
8.02538e-07
8.03291e-07
1.09112e-06
2.85685e-07
8.02979e-07
8.03751e-07
1.09163e-06
2.8581e-07
8.03135e-07
8.04087e-07
1.09155e-06
2.85886e-07
8.03409e-07
8.04234e-07
1.09225e-06
2.85972e-07
8.0363e-07
8.04353e-07
1.09224e-06
2.86093e-07
8.03904e-07
8.04528e-07
1.09311e-06
2.86266e-07
8.0419e-07
8.0459e-07
1.09336e-06
2.86278e-07
8.04472e-07
8.04688e-07
1.09333e-06
2.86463e-07
8.04646e-07
8.04759e-07
1.09295e-06
2.86502e-07
8.04827e-07
8.04975e-07
1.09369e-06
2.86519e-07
8.05091e-07
8.04998e-07
1.09362e-06
2.86551e-07
8.05213e-07
8.05045e-07
1.09434e-06
2.86557e-07
8.05449e-07
8.05067e-07
1.09477e-06
2.86563e-07
8.05504e-07
8.05119e-07
1.09524e-06
2.86557e-07
8.05741e-07
8.05178e-07
1.09496e-06
2.86525e-07
8.06021e-07
8.05227e-07
1.09489e-06
2.8653e-07
8.06079e-07
8.0533e-07
1.09479e-06
2.8653e-07
8.0609e-07
8.05477e-07
1.09521e-06
2.86502e-07
8.06147e-07
8.05506e-07
1.0947e-06
2.86503e-07
8.06156e-07
8.05639e-07
1.09432e-06
2.86515e-07
8.06147e-07
8.05753e-07
1.09458e-06
2.86538e-07
8.06236e-07
8.05855e-07
1.09441e-06
2.86485e-07
8.06244e-07
8.0596e-07
1.09389e-06
2.86604e-07
8.06172e-07
8.0597e-07
1.09393e-06
2.86685e-07
8.06112e-07
8.05881e-07
1.09377e-06
2.86725e-07
8.0611e-07
8.05825e-07
1.09435e-06
2.86719e-07
8.0602e-07
8.05621e-07
1.09316e-06
2.86918e-07
8.05902e-07
8.05853e-07
1.09306e-06
2.86959e-07
8.05815e-07
8.0591e-07
1.09345e-06
2.86973e-07
8.05747e-07
8.05922e-07
1.09375e-06
2.86964e-07
8.05677e-07
8.0598e-07
1.09363e-06
2.86941e-07
8.05642e-07
8.06093e-07
1.09429e-06
2.86917e-07
8.05736e-07
8.06209e-07
1.09419e-06
2.8688e-07
8.05852e-07
8.06312e-07
1.09407e-06
2.86805e-07
8.05948e-07
8.06411e-07
1.09303e-06
2.86085e-07
8.05612e-07
8.06054e-07
1.08952e-06
2.70752e-07
7.47993e-07
7.48355e-07
1.04025e-06
1.07513e-06
7.79221e-07
7.86188e-07
7.85711e-07
1.06974e-06
1.07396e-06
7.86405e-07
7.86191e-07
7.79639e-07
7.84917e-07
7.85854e-07
1.07421e-06
7.79773e-07
7.85508e-07
7.86031e-07
1.07535e-06
1.07813e-06
1.08012e-06
7.87728e-07
7.87282e-07
7.91869e-07
7.91503e-07
1.07666e-06
1.07945e-06
7.87941e-07
7.87809e-07
7.91986e-07
7.92158e-07
7.87376e-07
7.91213e-07
7.91635e-07
1.07697e-06
1.08015e-06
7.87554e-07
7.91762e-07
7.91663e-07
1.08045e-06
1.08238e-06
1.08377e-06
7.93415e-07
7.93223e-07
7.9649e-07
7.96259e-07
1.08185e-06
1.08349e-06
7.93649e-07
7.93872e-07
7.9656e-07
7.96825e-07
7.93325e-07
7.95781e-07
7.96461e-07
1.08262e-06
1.08453e-06
7.93399e-07
7.96381e-07
7.96507e-07
1.08438e-06
1.08598e-06
1.08658e-06
7.97775e-07
7.97353e-07
7.99787e-07
7.99176e-07
1.08579e-06
1.08523e-06
7.97869e-07
7.98009e-07
7.99802e-07
7.99616e-07
7.97702e-07
7.98775e-07
7.99543e-07
1.08672e-06
1.08675e-06
7.97666e-07
7.99456e-07
7.99388e-07
1.08619e-06
1.08869e-06
1.08838e-06
8.00621e-07
7.99973e-07
8.01907e-07
8.00989e-07
1.08858e-06
1.08651e-06
8.00583e-07
8.00369e-07
8.01992e-07
8.0158e-07
8.00381e-07
8.00579e-07
8.01458e-07
1.08863e-06
1.08764e-06
8.00158e-07
8.01226e-07
8.0121e-07
1.0876e-06
1.09146e-06
1.08925e-06
8.02693e-07
8.01675e-07
8.03187e-07
8.01898e-07
1.08958e-06
1.08681e-06
8.02822e-07
8.02206e-07
8.0319e-07
8.02603e-07
8.01765e-07
8.01694e-07
8.0229e-07
1.09041e-06
1.08856e-06
8.01819e-07
8.02328e-07
8.02303e-07
1.08877e-06
1.09224e-06
1.08891e-06
8.03824e-07
8.02467e-07
8.03669e-07
8.02124e-07
1.08927e-06
1.08587e-06
8.03723e-07
8.03244e-07
8.03536e-07
8.02891e-07
8.02844e-07
8.02224e-07
8.02905e-07
1.09165e-06
1.08883e-06
8.02907e-07
8.03129e-07
8.02736e-07
1.08848e-06
1.09195e-06
1.08899e-06
8.03843e-07
8.02322e-07
8.03657e-07
8.02028e-07
1.08866e-06
1.08664e-06
8.03695e-07
8.0301e-07
8.03783e-07
8.02716e-07
8.03025e-07
8.02267e-07
8.03241e-07
1.0918e-06
1.08885e-06
8.02767e-07
8.0314e-07
8.02855e-07
1.08824e-06
1.09197e-06
1.08974e-06
8.0388e-07
8.02299e-07
8.03947e-07
8.02273e-07
1.08855e-06
1.08686e-06
8.03963e-07
8.02831e-07
8.03993e-07
8.02625e-07
8.03745e-07
8.02124e-07
8.03772e-07
1.0917e-06
1.08895e-06
8.03025e-07
8.03035e-07
8.03443e-07
1.08844e-06
1.09139e-06
1.08949e-06
8.04077e-07
8.02394e-07
8.04159e-07
8.02709e-07
1.08873e-06
1.08643e-06
8.0417e-07
8.02918e-07
8.0406e-07
8.02995e-07
8.04325e-07
8.0209e-07
8.04128e-07
1.09071e-06
1.08858e-06
8.0368e-07
8.03081e-07
8.04008e-07
1.08812e-06
1.09126e-06
1.08958e-06
8.0431e-07
8.02957e-07
8.0419e-07
8.032e-07
1.08968e-06
1.08681e-06
8.04353e-07
8.03074e-07
8.04254e-07
8.03404e-07
8.04443e-07
8.02326e-07
8.04369e-07
1.09018e-06
1.0881e-06
8.04246e-07
8.03184e-07
8.04222e-07
1.08884e-06
1.0912e-06
1.08936e-06
8.04361e-07
8.03754e-07
8.0414e-07
8.0352e-07
1.08983e-06
1.08692e-06
8.04574e-07
8.03969e-07
8.04393e-07
8.03915e-07
8.04475e-07
8.02971e-07
8.04555e-07
1.09136e-06
1.08881e-06
8.04488e-07
8.03707e-07
8.04396e-07
1.08907e-06
1.09221e-06
1.08988e-06
8.04394e-07
8.03626e-07
8.04193e-07
8.03575e-07
1.08998e-06
1.08759e-06
8.04528e-07
8.04214e-07
8.04329e-07
8.03939e-07
8.04636e-07
8.03121e-07
8.04764e-07
1.0919e-06
1.08935e-06
8.04669e-07
8.0408e-07
8.0462e-07
1.08957e-06
1.09158e-06
1.09019e-06
8.0449e-07
8.03687e-07
8.04316e-07
8.03684e-07
1.08926e-06
1.08796e-06
8.0452e-07
8.04234e-07
8.04378e-07
8.04014e-07
8.04768e-07
8.03356e-07
8.04854e-07
1.09221e-06
1.08972e-06
8.04694e-07
8.04231e-07
8.0475e-07
1.09012e-06
1.09203e-06
1.09044e-06
8.045e-07
8.04084e-07
8.04466e-07
8.03941e-07
1.09082e-06
1.08817e-06
8.04538e-07
8.04161e-07
8.04434e-07
8.04079e-07
8.04926e-07
8.03599e-07
8.04935e-07
1.09201e-06
1.09005e-06
8.04897e-07
8.04332e-07
8.04887e-07
1.08961e-06
1.09207e-06
1.08952e-06
8.04519e-07
8.04074e-07
8.04558e-07
8.04117e-07
1.09125e-06
1.08854e-06
8.04581e-07
8.04212e-07
8.04493e-07
8.04062e-07
8.05186e-07
8.03891e-07
8.05351e-07
1.09184e-06
1.09015e-06
8.04994e-07
8.0452e-07
8.05016e-07
1.0904e-06
1.09209e-06
1.08902e-06
8.04692e-07
8.04268e-07
8.04537e-07
8.04195e-07
1.09175e-06
1.08865e-06
8.04623e-07
8.04238e-07
8.04408e-07
8.04138e-07
8.05484e-07
8.0418e-07
8.05548e-07
1.09201e-06
1.09034e-06
8.05097e-07
8.04446e-07
8.05181e-07
1.09074e-06
1.09218e-06
1.08924e-06
8.04708e-07
8.04668e-07
8.04533e-07
8.04709e-07
1.09202e-06
1.08964e-06
8.04685e-07
8.04375e-07
8.04478e-07
8.04407e-07
8.05731e-07
8.04375e-07
8.05641e-07
1.09219e-06
1.09013e-06
8.05316e-07
8.04688e-07
8.05098e-07
1.09068e-06
1.09242e-06
1.0895e-06
8.04806e-07
8.04835e-07
8.04596e-07
8.04872e-07
1.09139e-06
1.09006e-06
8.04783e-07
8.04636e-07
8.04513e-07
8.04729e-07
8.05777e-07
8.04643e-07
8.05715e-07
1.09337e-06
1.0908e-06
8.05403e-07
8.04756e-07
8.05294e-07
1.09099e-06
1.09279e-06
1.08995e-06
8.04872e-07
8.05099e-07
8.04729e-07
8.0508e-07
1.09186e-06
1.09048e-06
8.04684e-07
8.04799e-07
8.04525e-07
8.05072e-07
8.05858e-07
8.04824e-07
8.05696e-07
1.09313e-06
1.09098e-06
8.05428e-07
8.0498e-07
8.05522e-07
1.09092e-06
1.0932e-06
1.09038e-06
8.04994e-07
8.05123e-07
8.04894e-07
8.0527e-07
1.09227e-06
1.09092e-06
8.04831e-07
8.05141e-07
8.04692e-07
8.0535e-07
8.06114e-07
8.05083e-07
8.06141e-07
1.09295e-06
1.09087e-06
8.06046e-07
8.05008e-07
8.05896e-07
1.09163e-06
1.09368e-06
1.0907e-06
8.04922e-07
8.05458e-07
8.04877e-07
8.05405e-07
1.09268e-06
1.09103e-06
8.04998e-07
8.05543e-07
8.04916e-07
8.05539e-07
8.06306e-07
8.05207e-07
8.06395e-07
1.09407e-06
1.0911e-06
8.06067e-07
8.05045e-07
8.06065e-07
1.0919e-06
1.094e-06
1.09077e-06
8.05377e-07
8.05715e-07
8.05184e-07
8.05641e-07
1.09283e-06
1.09137e-06
8.05076e-07
8.05731e-07
8.04944e-07
8.05743e-07
8.0642e-07
8.05341e-07
8.06565e-07
1.0943e-06
1.0914e-06
8.06212e-07
8.05066e-07
8.06089e-07
1.0925e-06
1.09393e-06
1.09115e-06
8.05303e-07
8.05728e-07
8.0521e-07
8.05716e-07
1.09319e-06
1.09183e-06
8.05276e-07
8.05955e-07
8.05216e-07
8.05748e-07
8.06724e-07
8.05502e-07
8.06779e-07
1.0945e-06
1.09158e-06
8.06292e-07
8.05115e-07
8.06261e-07
1.09262e-06
1.09441e-06
1.09149e-06
8.05402e-07
8.05949e-07
8.05324e-07
8.0603e-07
1.09364e-06
1.09218e-06
8.05429e-07
8.06147e-07
8.0531e-07
8.05947e-07
8.06811e-07
8.05732e-07
8.06916e-07
1.09458e-06
1.09174e-06
8.06358e-07
8.05172e-07
8.0642e-07
1.093e-06
1.09471e-06
1.0918e-06
8.05482e-07
8.06112e-07
8.05422e-07
8.06024e-07
1.094e-06
1.09238e-06
8.05514e-07
8.06163e-07
8.05323e-07
8.06267e-07
8.07012e-07
8.05983e-07
8.0704e-07
1.09461e-06
1.0913e-06
8.06442e-07
8.05226e-07
8.06487e-07
1.09226e-06
1.09494e-06
1.09207e-06
8.05624e-07
8.06167e-07
8.05511e-07
8.05975e-07
1.09417e-06
1.09231e-06
8.05574e-07
8.06369e-07
8.05391e-07
8.06403e-07
8.07167e-07
8.06088e-07
8.07021e-07
1.09425e-06
1.09162e-06
8.06491e-07
8.05306e-07
8.06451e-07
1.09281e-06
1.09516e-06
1.0923e-06
8.05835e-07
8.06138e-07
8.05668e-07
8.05959e-07
1.09406e-06
1.09226e-06
8.05705e-07
8.06517e-07
8.05497e-07
8.06403e-07
8.07165e-07
8.06091e-07
8.07023e-07
1.09327e-06
1.09097e-06
8.0668e-07
8.05476e-07
8.06718e-07
1.09275e-06
1.09531e-06
1.09227e-06
8.05971e-07
8.06112e-07
8.05687e-07
8.06001e-07
1.09413e-06
1.09216e-06
8.05682e-07
8.06548e-07
8.05509e-07
8.06325e-07
8.07226e-07
8.06137e-07
8.07012e-07
1.09272e-06
1.0904e-06
8.06772e-07
8.05504e-07
8.06608e-07
1.09206e-06
1.09523e-06
1.09223e-06
8.05825e-07
8.06183e-07
8.05613e-07
8.06165e-07
1.09458e-06
1.09215e-06
8.05631e-07
8.06563e-07
8.05426e-07
8.06336e-07
8.07212e-07
8.06135e-07
8.06912e-07
1.09288e-06
1.09042e-06
8.06813e-07
8.05591e-07
8.06599e-07
1.09163e-06
1.09448e-06
1.09245e-06
8.05833e-07
8.06323e-07
8.05702e-07
8.06123e-07
1.09508e-06
1.0921e-06
8.05654e-07
8.06571e-07
8.05481e-07
8.06301e-07
8.0718e-07
8.06139e-07
8.06857e-07
1.09377e-06
1.09062e-06
8.06808e-07
8.05728e-07
8.06541e-07
1.09205e-06
1.09426e-06
1.09253e-06
8.05813e-07
8.06342e-07
8.05576e-07
8.06148e-07
1.09395e-06
1.09197e-06
8.05802e-07
8.0649e-07
8.05577e-07
8.06173e-07
8.0697e-07
8.06211e-07
8.06722e-07
1.09379e-06
1.09045e-06
8.06826e-07
8.05845e-07
8.06524e-07
1.09197e-06
1.09429e-06
1.09205e-06
8.05786e-07
8.06309e-07
8.05539e-07
8.06154e-07
1.09372e-06
1.09147e-06
8.05763e-07
8.06324e-07
8.05579e-07
8.05961e-07
8.06869e-07
8.06225e-07
8.06546e-07
1.09346e-06
1.09065e-06
8.06676e-07
8.05916e-07
8.06444e-07
1.09179e-06
1.09502e-06
1.09216e-06
8.05868e-07
8.06487e-07
8.05626e-07
8.06202e-07
1.09444e-06
1.09191e-06
8.0586e-07
8.0622e-07
8.05609e-07
8.05822e-07
8.06802e-07
8.06164e-07
8.06402e-07
1.09236e-06
1.09082e-06
8.06552e-07
8.05932e-07
8.06215e-07
1.09211e-06
1.09514e-06
1.09167e-06
8.05818e-07
8.06367e-07
8.05601e-07
8.06137e-07
1.09356e-06
1.09145e-06
8.05989e-07
8.06006e-07
8.0572e-07
8.05702e-07
8.06635e-07
8.06131e-07
8.06265e-07
1.09263e-06
1.09105e-06
8.06424e-07
8.05841e-07
8.06038e-07
1.09107e-06
1.09452e-06
1.09193e-06
8.05863e-07
8.06286e-07
8.05598e-07
8.06012e-07
1.09326e-06
1.09118e-06
8.05858e-07
8.05858e-07
8.05776e-07
8.05591e-07
8.06388e-07
8.06111e-07
8.06142e-07
1.09283e-06
1.09074e-06
8.06283e-07
8.05765e-07
8.05849e-07
1.09166e-06
1.09382e-06
1.09201e-06
8.05954e-07
8.06152e-07
8.05867e-07
8.05852e-07
1.09406e-06
1.09133e-06
8.05797e-07
8.05917e-07
8.05692e-07
8.05623e-07
8.06316e-07
8.05977e-07
8.0605e-07
1.09351e-06
1.09086e-06
8.06214e-07
8.05573e-07
8.0578e-07
1.09133e-06
1.09382e-06
1.09231e-06
8.05849e-07
8.06135e-07
8.05849e-07
8.05727e-07
1.09438e-06
1.09157e-06
8.05748e-07
8.05844e-07
8.05662e-07
8.05819e-07
8.0635e-07
8.05845e-07
8.05886e-07
1.09408e-06
1.09113e-06
8.06022e-07
8.05776e-07
8.05665e-07
1.09112e-06
1.09407e-06
1.09126e-06
8.06002e-07
8.05985e-07
8.05782e-07
8.05811e-07
1.09439e-06
1.09152e-06
8.05737e-07
8.0588e-07
8.05633e-07
8.05813e-07
8.06244e-07
8.05722e-07
8.05851e-07
1.09442e-06
1.09142e-06
8.06002e-07
8.05817e-07
8.05792e-07
1.09143e-06
1.09396e-06
1.09101e-06
8.0595e-07
8.05864e-07
8.05747e-07
8.05719e-07
1.09338e-06
1.09145e-06
8.05645e-07
8.05845e-07
8.05588e-07
8.05836e-07
8.06115e-07
8.05643e-07
8.05939e-07
1.09426e-06
1.09174e-06
8.05786e-07
8.05781e-07
8.05713e-07
1.09181e-06
1.09402e-06
1.09092e-06
8.06011e-07
8.05759e-07
8.0553e-07
8.05688e-07
1.09328e-06
1.09149e-06
8.0561e-07
8.05844e-07
8.05511e-07
8.05849e-07
8.06013e-07
8.05552e-07
8.05802e-07
1.0936e-06
1.09177e-06
8.05731e-07
8.05815e-07
8.05673e-07
1.09124e-06
1.09276e-06
1.09047e-06
8.05872e-07
8.05697e-07
8.05628e-07
8.056e-07
1.09327e-06
1.09142e-06
8.05571e-07
8.05873e-07
8.05478e-07
8.05867e-07
8.05835e-07
8.05468e-07
8.05722e-07
1.09417e-06
1.09168e-06
8.05687e-07
8.05892e-07
8.0563e-07
1.0917e-06
1.09332e-06
1.09054e-06
8.05636e-07
8.05626e-07
8.05461e-07
8.05555e-07
1.09327e-06
1.09169e-06
8.05521e-07
8.05925e-07
8.05399e-07
8.05912e-07
8.05767e-07
8.05505e-07
8.0573e-07
1.09484e-06
1.09174e-06
8.05675e-07
8.05972e-07
8.05617e-07
1.09216e-06
1.09355e-06
1.09028e-06
8.05516e-07
8.05643e-07
8.05376e-07
8.05583e-07
1.0936e-06
1.09154e-06
8.05462e-07
8.0601e-07
8.05367e-07
8.05973e-07
8.05828e-07
8.0558e-07
8.05828e-07
1.09474e-06
1.09154e-06
8.05712e-07
8.06047e-07
8.05714e-07
1.09151e-06
1.09318e-06
1.08984e-06
8.05481e-07
8.05718e-07
8.05337e-07
8.05642e-07
1.09341e-06
1.08996e-06
8.05491e-07
8.06116e-07
8.0537e-07
8.06089e-07
8.05976e-07
8.05639e-07
8.05903e-07
1.09424e-06
1.09023e-06
8.05866e-07
8.06106e-07
8.05805e-07
1.09118e-06
1.09244e-06
1.08776e-06
8.05508e-07
8.05824e-07
8.04957e-07
8.05285e-07
1.09313e-06
1.08796e-06
8.05536e-07
8.06283e-07
8.04943e-07
8.05733e-07
8.06081e-07
8.05261e-07
8.0554e-07
1.09379e-06
1.08761e-06
8.05981e-07
8.05705e-07
8.05387e-07
1.08865e-06
1.08911e-06
1.06211e-06
8.05262e-07
8.05591e-07
7.82216e-07
7.82559e-07
1.08923e-06
1.0634e-06
8.05242e-07
8.06037e-07
7.82239e-07
7.82826e-07
8.05854e-07
7.83478e-07
7.82689e-07
1.08877e-06
1.06264e-06
8.05681e-07
7.83834e-07
7.82562e-07
1.06251e-06
1.03865e-06
7.48417e-07
7.48781e-07
1.03931e-06
7.48468e-07
7.49056e-07
2.70592e-07
2.71204e-07
2.70539e-07
7.4894e-07
1.03898e-06
7.48818e-07
4.06801e-06
9.0349e-06
4.06669e-06
1.81938e-05
1.82006e-05
4.07031e-06
9.03838e-06
2.69609e-07
2.69971e-07
2.73593e-07
2.73345e-07
2.73671e-07
2.73646e-07
2.04849e-06
3.4249e-06
4.78937e-07
7.81985e-07
3.42629e-06
4.82245e-07
2.04791e-06
1.81994e-05
2.04969e-06
4.79732e-07
7.82655e-07
4.82999e-07
3.42697e-06
2.04795e-06
5.41087e-06
5.41348e-06
1.07222e-06
5.41188e-06
5.41457e-06
4.07267e-06
9.04059e-06
4.07145e-06
9.04406e-06
1.82053e-05
1.82116e-05
4.07468e-06
9.04339e-06
4.07338e-06
9.04712e-06
2.74242e-07
2.74573e-07
2.745e-07
2.77032e-07
2.76667e-07
2.77028e-07
2.76903e-07
2.05456e-06
3.43085e-06
4.866e-07
7.89219e-07
2.05211e-06
3.43282e-06
4.89557e-07
1.82049e-05
1.82116e-05
2.05697e-06
4.87226e-07
3.43096e-06
7.89752e-07
2.05434e-06
4.90171e-07
3.4325e-06
5.41557e-06
5.41786e-06
1.07823e-06
5.41706e-06
5.41922e-06
4.07769e-06
9.04847e-06
4.07613e-06
9.0512e-06
1.82149e-05
1.82202e-05
4.08019e-06
9.05105e-06
4.07852e-06
9.05391e-06
2.77753e-07
2.7804e-07
2.77979e-07
2.79662e-07
2.79679e-07
2.79897e-07
2.7992e-07
2.06179e-06
3.43792e-06
4.92805e-07
7.94558e-07
2.05932e-06
3.43908e-06
4.95322e-07
1.8215e-05
1.82204e-05
2.06397e-06
4.93442e-07
3.43649e-06
7.95183e-07
2.06116e-06
4.95956e-07
3.43831e-06
5.42068e-06
5.42312e-06
1.08284e-06
5.42162e-06
5.424e-06
4.08259e-06
9.05445e-06
4.08157e-06
9.05667e-06
1.82221e-05
1.82267e-05
4.08503e-06
9.05737e-06
4.08396e-06
9.06021e-06
2.8025e-07
2.80536e-07
2.80489e-07
2.81693e-07
2.81485e-07
2.81703e-07
2.81733e-07
2.06873e-06
3.44204e-06
4.97638e-07
7.98221e-07
2.0664e-06
3.44239e-06
4.99694e-07
1.82214e-05
1.82261e-05
2.06795e-06
4.98212e-07
3.44268e-06
7.98817e-07
2.06692e-06
5.0017e-07
3.4433e-06
5.42496e-06
5.4267e-06
1.08527e-06
5.42547e-06
5.42723e-06
4.08478e-06
9.05871e-06
4.08466e-06
9.06085e-06
1.82267e-05
1.82302e-05
4.08729e-06
9.06274e-06
4.08717e-06
9.06389e-06
2.82058e-07
2.82203e-07
2.82357e-07
2.83091e-07
2.82789e-07
2.82957e-07
2.83033e-07
2.07119e-06
3.44361e-06
5.01001e-07
8.00297e-07
2.06941e-06
3.44328e-06
5.02535e-07
1.82264e-05
1.82304e-05
2.0712e-06
5.01464e-07
3.4448e-06
8.01113e-07
2.07068e-06
5.02895e-07
3.44454e-06
5.4274e-06
5.42894e-06
1.08767e-06
5.427e-06
5.42877e-06
4.08612e-06
9.06162e-06
4.08603e-06
9.06226e-06
1.82291e-05
1.82323e-05
4.08765e-06
9.06427e-06
4.08783e-06
9.06476e-06
2.83188e-07
2.83352e-07
2.83484e-07
2.83923e-07
2.8355e-07
2.83748e-07
2.83906e-07
2.07049e-06
3.44428e-06
5.03078e-07
8.01462e-07
2.07034e-06
3.44326e-06
5.03939e-07
1.82296e-05
1.82322e-05
2.07144e-06
5.03432e-07
3.44506e-06
8.02408e-07
2.07173e-06
5.04286e-07
3.44452e-06
5.42807e-06
5.43008e-06
1.08746e-06
5.42765e-06
5.42957e-06
4.08658e-06
9.06214e-06
4.08718e-06
9.06252e-06
1.82306e-05
1.82336e-05
4.08833e-06
9.06492e-06
4.0886e-06
9.06543e-06
2.83924e-07
2.84194e-07
2.84063e-07
2.84436e-07
2.83943e-07
2.84239e-07
2.84367e-07
2.07139e-06
3.4436e-06
5.04186e-07
8.02146e-07
2.07099e-06
3.44312e-06
5.04661e-07
1.82291e-05
1.82319e-05
2.07135e-06
5.0443e-07
3.44479e-06
8.0314e-07
2.07089e-06
5.04964e-07
3.44333e-06
5.42851e-06
5.4303e-06
1.08901e-06
5.42779e-06
5.42951e-06
4.08555e-06
9.0624e-06
4.08646e-06
9.06276e-06
1.82315e-05
1.82346e-05
4.08805e-06
9.06538e-06
4.08859e-06
9.0659e-06
2.84355e-07
2.84374e-07
2.84715e-07
2.84752e-07
2.84251e-07
2.84416e-07
2.84764e-07
2.07074e-06
3.44326e-06
5.0468e-07
8.02372e-07
2.07147e-06
3.44238e-06
5.0508e-07
1.82304e-05
1.82338e-05
2.07096e-06
5.04974e-07
3.44309e-06
8.03224e-07
2.07057e-06
5.05348e-07
3.44251e-06
5.42862e-06
5.42967e-06
1.08865e-06
5.42832e-06
5.429e-06
4.08504e-06
9.06266e-06
4.0856e-06
9.06318e-06
1.82338e-05
1.82375e-05
4.08721e-06
9.06598e-06
4.08797e-06
9.06651e-06
2.8434e-07
2.84432e-07
2.85048e-07
2.85089e-07
2.84464e-07
2.84524e-07
2.85268e-07
2.07098e-06
3.44237e-06
5.05053e-07
8.02247e-07
2.07056e-06
3.44133e-06
5.052e-07
1.8233e-05
1.82368e-05
2.07038e-06
5.0535e-07
3.44332e-06
8.03149e-07
2.06964e-06
5.0556e-07
3.44278e-06
5.42978e-06
5.43012e-06
1.08871e-06
5.42946e-06
5.42968e-06
4.08461e-06
9.06348e-06
4.08521e-06
9.06409e-06
1.82369e-05
1.824e-05
4.08647e-06
9.06614e-06
4.0871e-06
9.06616e-06
2.84555e-07
2.84542e-07
2.85382e-07
2.85142e-07
2.84775e-07
2.8476e-07
2.85539e-07
2.06973e-06
3.44109e-06
5.05066e-07
8.02124e-07
2.06903e-06
3.44055e-06
5.05373e-07
1.8236e-05
1.82397e-05
2.06987e-06
5.05466e-07
3.44319e-06
8.03019e-07
2.06945e-06
5.05784e-07
3.44243e-06
5.43012e-06
5.43085e-06
1.08881e-06
5.42942e-06
5.43013e-06
4.08378e-06
9.0638e-06
4.08461e-06
9.06391e-06
1.82384e-05
1.82415e-05
4.08606e-06
9.06579e-06
4.08654e-06
9.06613e-06
2.84869e-07
2.84965e-07
2.8584e-07
2.85354e-07
2.85007e-07
2.85178e-07
2.85877e-07
2.06913e-06
3.4415e-06
5.05379e-07
8.02401e-07
2.06913e-06
3.44141e-06
5.05748e-07
1.82389e-05
1.82423e-05
2.06967e-06
5.05757e-07
3.44274e-06
8.03104e-07
2.06899e-06
5.06e-07
3.44257e-06
5.43008e-06
5.43073e-06
1.08911e-06
5.42927e-06
5.43018e-06
4.08369e-06
9.06352e-06
4.0841e-06
9.06359e-06
1.82401e-05
1.82429e-05
4.08612e-06
9.06597e-06
4.08663e-06
9.06629e-06
2.85336e-07
2.85307e-07
2.86079e-07
2.8557e-07
2.85329e-07
2.85468e-07
2.86173e-07
2.06911e-06
3.4425e-06
5.05731e-07
8.02974e-07
2.06847e-06
3.44204e-06
5.06138e-07
1.82406e-05
1.82433e-05
2.06989e-06
5.06218e-07
3.44383e-06
8.03595e-07
2.06971e-06
5.06485e-07
3.4435e-06
5.42959e-06
5.43106e-06
1.08952e-06
5.42867e-06
5.43054e-06
4.08311e-06
9.06315e-06
4.08383e-06
9.06356e-06
1.82404e-05
1.82429e-05
4.0852e-06
9.06618e-06
4.08583e-06
9.06661e-06
2.85476e-07
2.8563e-07
2.8624e-07
2.85828e-07
2.85537e-07
2.85679e-07
2.86374e-07
2.06758e-06
3.44244e-06
5.06059e-07
8.03183e-07
2.06847e-06
3.44161e-06
5.06387e-07
1.82404e-05
1.82429e-05
2.06866e-06
5.06453e-07
3.44465e-06
8.03934e-07
2.06923e-06
5.06737e-07
3.44442e-06
5.42865e-06
5.43101e-06
1.08994e-06
5.42801e-06
5.43016e-06
4.08317e-06
9.06338e-06
4.08346e-06
9.06383e-06
1.82402e-05
1.82429e-05
4.08439e-06
9.06645e-06
4.08512e-06
9.06653e-06
2.85611e-07
2.85759e-07
2.86467e-07
2.85779e-07
2.85646e-07
2.85836e-07
2.86578e-07
2.06681e-06
3.44212e-06
5.06302e-07
8.03316e-07
2.06699e-06
3.4414e-06
5.06481e-07
1.82402e-05
1.82428e-05
2.06964e-06
5.06745e-07
3.44498e-06
8.04251e-07
2.06819e-06
5.06868e-07
3.44442e-06
5.42906e-06
5.43062e-06
1.08969e-06
5.42841e-06
5.42942e-06
4.08306e-06
9.0636e-06
4.08365e-06
9.06399e-06
1.82412e-05
1.82442e-05
4.08392e-06
9.06594e-06
4.08439e-06
9.06608e-06
2.85967e-07
2.85795e-07
2.86623e-07
2.85984e-07
2.85989e-07
2.85868e-07
2.86714e-07
2.06636e-06
3.44198e-06
5.06516e-07
8.03577e-07
2.06601e-06
3.44137e-06
5.06729e-07
1.82407e-05
1.8243e-05
2.07023e-06
5.06846e-07
3.44484e-06
8.04246e-07
2.06956e-06
5.0714e-07
3.44423e-06
5.42902e-06
5.42973e-06
1.09054e-06
5.4283e-06
5.4293e-06
4.08236e-06
9.06417e-06
4.08305e-06
9.06464e-06
1.82424e-05
1.82453e-05
4.08412e-06
9.0656e-06
4.08453e-06
9.06594e-06
2.86081e-07
2.8611e-07
2.86825e-07
2.86091e-07
2.86212e-07
2.8595e-07
2.86895e-07
2.06607e-06
3.44224e-06
5.06904e-07
8.03982e-07
2.06599e-06
3.44162e-06
5.0732e-07
1.82402e-05
1.82427e-05
2.06951e-06
5.07101e-07
3.44486e-06
8.04504e-07
2.06974e-06
5.07333e-07
3.44443e-06
5.42921e-06
5.43046e-06
1.09051e-06
5.42873e-06
5.42999e-06
4.0825e-06
9.06446e-06
4.08294e-06
9.06469e-06
1.82436e-05
1.82463e-05
4.08342e-06
9.066e-06
4.08409e-06
9.06638e-06
2.86315e-07
2.8618e-07
2.87039e-07
2.86249e-07
2.8645e-07
2.86101e-07
2.86992e-07
2.06742e-06
3.44208e-06
5.07164e-07
8.04187e-07
2.06707e-06
3.44154e-06
5.07685e-07
1.82406e-05
1.82437e-05
2.07032e-06
5.07248e-07
3.44483e-06
8.04601e-07
2.06998e-06
5.07368e-07
3.4444e-06
5.42965e-06
5.43083e-06
1.09105e-06
5.42911e-06
5.43011e-06
4.08236e-06
9.06419e-06
4.083e-06
9.06427e-06
1.82441e-05
1.82463e-05
4.08325e-06
9.0658e-06
4.0837e-06
9.06597e-06
2.86551e-07
2.86345e-07
2.87213e-07
2.86282e-07
2.86669e-07
2.86273e-07
2.87163e-07
2.06668e-06
3.44222e-06
5.07663e-07
8.04381e-07
2.06757e-06
3.4414e-06
5.07985e-07
1.82417e-05
1.82444e-05
2.07034e-06
5.07283e-07
3.44505e-06
8.04759e-07
2.07012e-06
5.07402e-07
3.44443e-06
5.42997e-06
5.43063e-06
1.09135e-06
5.42936e-06
5.42986e-06
4.08233e-06
9.06374e-06
4.08284e-06
9.06382e-06
1.82434e-05
1.82458e-05
4.08225e-06
9.06569e-06
4.08298e-06
9.06599e-06
2.86797e-07
2.86462e-07
2.87295e-07
2.8643e-07
2.86904e-07
2.86565e-07
2.8723e-07
2.06777e-06
3.44204e-06
5.07961e-07
8.04636e-07
2.067e-06
3.44151e-06
5.08027e-07
1.82419e-05
1.82446e-05
2.07125e-06
5.07227e-07
3.44449e-06
8.04809e-07
2.0708e-06
5.07374e-07
3.44393e-06
5.4303e-06
5.43079e-06
1.09151e-06
5.42974e-06
5.4303e-06
4.08257e-06
9.0634e-06
4.08296e-06
9.0639e-06
1.82434e-05
1.82459e-05
4.0814e-06
9.06586e-06
4.08182e-06
9.06627e-06
2.86946e-07
2.86615e-07
2.87318e-07
2.86499e-07
2.86991e-07
2.86757e-07
2.87175e-07
2.06758e-06
3.44245e-06
5.08136e-07
8.04876e-07
2.06779e-06
3.44181e-06
5.08243e-07
1.82418e-05
1.82445e-05
2.07113e-06
5.07224e-07
3.4446e-06
8.05046e-07
2.06996e-06
5.07271e-07
3.44406e-06
5.43036e-06
5.43131e-06
1.0908e-06
5.42959e-06
5.43078e-06
4.08334e-06
9.06409e-06
4.08345e-06
9.06462e-06
1.82437e-05
1.82463e-05
4.08265e-06
9.06651e-06
4.08231e-06
9.06699e-06
2.87064e-07
2.86849e-07
2.87522e-07
2.86512e-07
2.87061e-07
2.86915e-07
2.87408e-07
2.06804e-06
3.44236e-06
5.08328e-07
8.04933e-07
2.06695e-06
3.44182e-06
5.08379e-07
1.8242e-05
1.82445e-05
2.07125e-06
5.07146e-07
3.4447e-06
8.05028e-07
2.0715e-06
5.07252e-07
3.4443e-06
5.43051e-06
5.43209e-06
1.09201e-06
5.4298e-06
5.43175e-06
4.08378e-06
9.06488e-06
4.08402e-06
9.06557e-06
1.82443e-05
1.82469e-05
4.08456e-06
9.06693e-06
4.08421e-06
9.06711e-06
2.87135e-07
2.8703e-07
2.87451e-07
2.86545e-07
2.871e-07
2.86979e-07
2.87465e-07
2.06767e-06
3.44264e-06
5.08462e-07
8.05266e-07
2.0672e-06
3.44195e-06
5.08493e-07
1.82418e-05
1.82443e-05
2.07119e-06
5.07066e-07
3.44516e-06
8.0502e-07
2.07053e-06
5.07199e-07
3.44446e-06
5.43041e-06
5.4326e-06
1.09172e-06
5.42994e-06
5.43202e-06
4.08321e-06
9.06578e-06
4.08384e-06
9.06611e-06
1.82451e-05
1.82477e-05
4.08468e-06
9.06672e-06
4.08514e-06
9.06687e-06
2.87181e-07
2.87137e-07
2.87556e-07
2.86563e-07
2.87137e-07
2.86992e-07
2.8748e-07
2.06881e-06
3.44256e-06
5.08388e-07
8.05425e-07
2.0674e-06
3.44214e-06
5.08649e-07
1.82417e-05
1.82443e-05
2.07098e-06
5.07005e-07
3.44479e-06
8.05054e-07
2.07045e-06
5.0711e-07
3.44423e-06
5.43081e-06
5.43277e-06
1.09275e-06
5.43021e-06
5.4321e-06
4.08299e-06
9.06544e-06
4.08355e-06
9.06543e-06
1.82453e-05
1.82479e-05
4.08407e-06
9.06647e-06
4.08463e-06
9.06663e-06
2.87214e-07
2.87162e-07
2.8757e-07
2.86577e-07
2.87153e-07
2.87013e-07
2.8746e-07
2.06825e-06
3.44315e-06
5.08676e-07
8.05663e-07
2.06871e-06
3.4427e-06
5.08787e-07
1.82417e-05
1.82447e-05
2.07084e-06
5.06897e-07
3.44475e-06
8.051e-07
2.07108e-06
5.0703e-07
3.44407e-06
5.43129e-06
5.43288e-06
1.09285e-06
5.4307e-06
5.43236e-06
4.08286e-06
9.06494e-06
4.08316e-06
9.0652e-06
1.82456e-05
1.82479e-05
4.08446e-06
9.06614e-06
4.08467e-06
9.06659e-06
2.87186e-07
2.87183e-07
2.87565e-07
2.86557e-07
2.87139e-07
2.87036e-07
2.87429e-07
2.06894e-06
3.44328e-06
5.08703e-07
8.05761e-07
2.06894e-06
3.44266e-06
5.08837e-07
1.82428e-05
1.82457e-05
2.07148e-06
5.06872e-07
3.44476e-06
8.05148e-07
2.07111e-06
5.06964e-07
3.44425e-06
5.4314e-06
5.43323e-06
1.09335e-06
5.43088e-06
5.43259e-06
4.08345e-06
9.06506e-06
4.08366e-06
9.06562e-06
1.82453e-05
1.82477e-05
4.08481e-06
9.06683e-06
4.0853e-06
9.06732e-06
2.87191e-07
2.87238e-07
2.87579e-07
2.8653e-07
2.87103e-07
2.87105e-07
2.87409e-07
2.0684e-06
3.44358e-06
5.08741e-07
8.06038e-07
2.06873e-06
3.44277e-06
5.08824e-07
1.82436e-05
1.82463e-05
2.07095e-06
5.06833e-07
3.44482e-06
8.05294e-07
2.07095e-06
5.06916e-07
3.44431e-06
5.43191e-06
5.43337e-06
1.09293e-06
5.43137e-06
5.43277e-06
4.08331e-06
9.06575e-06
4.08383e-06
9.06607e-06
1.82448e-05
1.82471e-05
4.0849e-06
9.06724e-06
4.08515e-06
9.06763e-06
2.87203e-07
2.87204e-07
2.87615e-07
2.86571e-07
2.87048e-07
2.87147e-07
2.87435e-07
2.0677e-06
3.44318e-06
5.08762e-07
8.06183e-07
2.0673e-06
3.44263e-06
5.08845e-07
1.82442e-05
1.82471e-05
2.07078e-06
5.06862e-07
3.44448e-06
8.05343e-07
2.06982e-06
5.06975e-07
3.44373e-06
5.43235e-06
5.43368e-06
1.09323e-06
5.43192e-06
5.43332e-06
4.08323e-06
9.06616e-06
4.08378e-06
9.06657e-06
1.82445e-05
1.82468e-05
4.0874e-06
9.06741e-06
4.08673e-06
9.06756e-06
2.87204e-07
2.87277e-07
2.87534e-07
2.86536e-07
2.87037e-07
2.87179e-07
2.87432e-07
2.06865e-06
3.44354e-06
5.088e-07
8.06147e-07
2.06846e-06
3.44333e-06
5.08852e-07
1.82449e-05
1.82479e-05
2.07001e-06
5.06939e-07
3.44419e-06
8.05446e-07
2.07091e-06
5.07018e-07
3.4437e-06
5.43291e-06
5.43413e-06
1.09333e-06
5.43218e-06
5.43341e-06
4.08299e-06
9.06606e-06
4.08368e-06
9.0663e-06
1.82445e-05
1.82471e-05
4.08786e-06
9.06686e-06
4.08831e-06
9.06691e-06
2.8724e-07
2.87394e-07
2.87513e-07
2.86516e-07
2.87045e-07
2.87336e-07
2.87389e-07
2.06927e-06
3.44433e-06
5.08798e-07
8.06111e-07
2.06792e-06
3.44381e-06
5.08875e-07
1.82459e-05
1.82485e-05
2.06952e-06
5.06909e-07
3.44411e-06
8.05564e-07
2.07023e-06
5.07121e-07
3.44316e-06
5.43276e-06
5.4338e-06
1.0929e-06
5.43197e-06
5.43299e-06
4.08306e-06
9.06591e-06
4.08336e-06
9.06625e-06
1.82449e-05
1.82475e-05
4.08695e-06
9.0663e-06
4.08802e-06
9.06655e-06