/*--------------------------------*- C++ -*----------------------------------*\
| =========                 |                                                 |
| \\      /  F ield         | OpenFOAM: The Open Source CFD Toolbox           |
|  \\    /   O peration     | Version:  v2012                                 |
|   \\  /    A nd           | Website:  www.openfoam.com                      |
|    \\/     M anipulation  |                                                 |
\*---------------------------------------------------------------------------*/
FoamFile
{
    version     2.0;
    format      ascii;
    class       volScalarField;
    location    "200";
    object      k;
}
// * * * * * * * * * * * * * * * * * * * * * * * * * * * * * * * * * * * * * //

dimensions      [0 2 -2 0 0 0 0];


internalField   nonuniform List<scalar> 
85864
(
1.84814e-05
3.31447e-05
3.87645e-05
3.31437e-05
3.31502e-05
3.3115e-05
3.87275e-05
7.06831e-05
7.06949e-05
6.36575e-05
1.84409e-05
6.89366e-05
5.86607e-05
6.89469e-05
6.89503e-05
6.59391e-05
6.5949e-05
5.86757e-05
5.86841e-05
2.54738e-05
5.09178e-05
7.06815e-05
6.36574e-05
2.5466e-05
5.86662e-05
5.09097e-05
6.59387e-05
6.59385e-05
6.89406e-05
7.06776e-05
7.06935e-05
7.68188e-05
6.97148e-05
6.97383e-05
7.0706e-05
7.68586e-05
7.68738e-05
6.97241e-05
6.96026e-05
6.36792e-05
6.73495e-05
6.92629e-05
6.73662e-05
6.92696e-05
6.9595e-05
6.89474e-05
6.89569e-05
6.89603e-05
6.87175e-05
5.73626e-05
6.59529e-05
7.04101e-05
7.0418e-05
5.73844e-05
6.87061e-05
6.87877e-05
5.73752e-05
6.59622e-05
7.04225e-05
7.04311e-05
5.73985e-05
6.87737e-05
9.15769e-05
7.15373e-05
7.1532e-05
7.15496e-05
7.15444e-05
9.15712e-05
6.97277e-05
7.06892e-05
7.683e-05
7.68432e-05
6.97133e-05
6.95982e-05
6.3676e-05
6.92624e-05
6.73401e-05
6.92688e-05
6.73574e-05
6.95913e-05
6.87684e-05
5.7349e-05
6.59491e-05
7.0411e-05
7.04187e-05
5.73779e-05
6.87533e-05
6.87187e-05
5.73545e-05
6.59529e-05
7.0405e-05
5.73888e-05
7.04136e-05
6.87054e-05
9.15807e-05
7.15258e-05
7.15325e-05
7.15389e-05
7.15456e-05
9.15762e-05
6.89507e-05
7.0688e-05
1.34509e-05
5.75379e-05
4.78571e-05
4.7886e-05
3.87445e-05
4.78478e-05
4.78722e-05
5.75334e-05
5.7464e-05
4.78383e-05
4.78296e-05
3.87105e-05
4.78266e-05
4.78368e-05
5.74505e-05
1.34351e-05
4.52784e-05
4.99906e-05
5.86842e-05
5.66602e-05
5.00266e-05
5.669e-05
4.52804e-05
4.52878e-05
5.00739e-05
5.86915e-05
5.66602e-05
5.66896e-05
5.0064e-05
4.52846e-05
4.53013e-05
5.00111e-05
5.87094e-05
5.6705e-05
5.67409e-05
5.00468e-05
4.52979e-05
4.26661e-05
5.09536e-05
5.34869e-05
4.04304e-05
5.35221e-05
4.04374e-05
4.26635e-05
4.52575e-05
5.00179e-05
5.86918e-05
5.6675e-05
5.67073e-05
5.00207e-05
4.52508e-05
4.26617e-05
5.09422e-05
4.04465e-05
5.34875e-05
4.04541e-05
5.35104e-05
4.26602e-05
3.31198e-05
3.8739e-05
1.86706e-05
3.34233e-05
3.34439e-05
3.89969e-05
1.88197e-05
3.36641e-05
3.36839e-05
3.92021e-05
1.89296e-05
3.38295e-05
3.38563e-05
3.93721e-05
1.90072e-05
3.39312e-05
3.39577e-05
3.94834e-05
1.90599e-05
3.39917e-05
3.40208e-05
3.95332e-05
1.90929e-05
3.40293e-05
3.40629e-05
3.95516e-05
1.91131e-05
3.40429e-05
3.40762e-05
3.948e-05
1.91271e-05
3.40471e-05
3.40797e-05
3.95821e-05
1.91454e-05
3.40543e-05
3.40878e-05
3.9641e-05
1.9164e-05
3.40753e-05
3.41065e-05
3.96335e-05
1.91782e-05
3.41031e-05
3.41263e-05
3.9682e-05
1.91893e-05
3.41241e-05
3.41467e-05
3.97162e-05
1.91977e-05
3.41389e-05
3.41589e-05
3.97408e-05
1.92037e-05
3.41576e-05
3.41684e-05
3.97548e-05
1.92099e-05
3.41761e-05
3.41783e-05
3.97706e-05
1.92168e-05
3.41931e-05
3.41842e-05
3.97864e-05
1.92242e-05
3.42073e-05
3.41894e-05
3.97926e-05
1.92305e-05
3.42162e-05
3.41972e-05
3.97999e-05
1.92319e-05
3.42229e-05
3.4206e-05
3.98112e-05
1.92334e-05
3.42284e-05
3.4213e-05
3.98224e-05
1.92326e-05
3.42332e-05
3.42093e-05
3.98307e-05
1.9232e-05
3.42368e-05
3.42078e-05
3.98324e-05
1.92306e-05
3.42398e-05
3.42086e-05
3.98372e-05
1.9231e-05
3.42454e-05
3.42102e-05
3.98493e-05
1.92284e-05
3.42476e-05
3.42156e-05
3.98547e-05
1.9228e-05
3.42497e-05
3.42234e-05
3.98075e-05
1.92263e-05
3.42499e-05
3.42304e-05
3.98246e-05
1.92245e-05
3.42488e-05
3.42331e-05
3.97477e-05
1.92239e-05
3.42498e-05
3.42355e-05
3.97098e-05
1.92246e-05
3.4251e-05
3.4242e-05
3.97558e-05
1.92251e-05
3.42526e-05
3.42478e-05
3.97873e-05
1.92283e-05
3.42509e-05
3.42512e-05
3.975e-05
1.92311e-05
3.42506e-05
3.42547e-05
3.97793e-05
1.92351e-05
3.42519e-05
3.42559e-05
3.97876e-05
1.92398e-05
3.42489e-05
3.4255e-05
3.97868e-05
1.92443e-05
3.42476e-05
3.42534e-05
3.9782e-05
1.92491e-05
3.42482e-05
3.42535e-05
3.96815e-05
1.92507e-05
3.4246e-05
3.42554e-05
3.97252e-05
1.92524e-05
3.42445e-05
3.42584e-05
3.97556e-05
1.92514e-05
3.42441e-05
3.42641e-05
3.97748e-05
1.92504e-05
3.42434e-05
3.42697e-05
3.97908e-05
1.92489e-05
3.42433e-05
3.42759e-05
3.98044e-05
1.92474e-05
3.42495e-05
3.42808e-05
3.98245e-05
1.92464e-05
3.42551e-05
3.42832e-05
3.96911e-05
1.92464e-05
3.42606e-05
3.42864e-05
3.9654e-05
1.92235e-05
3.42512e-05
3.42758e-05
3.96693e-05
1.87348e-05
3.27959e-05
3.28202e-05
3.86671e-05
3.89293e-05
3.30995e-05
3.33718e-05
3.33435e-05
3.87298e-05
3.89154e-05
3.33814e-05
3.33579e-05
3.31146e-05
3.33481e-05
3.33478e-05
3.8924e-05
3.31205e-05
3.33697e-05
3.33576e-05
3.89174e-05
3.90044e-05
3.91249e-05
3.34288e-05
3.34043e-05
3.36108e-05
3.35929e-05
3.89979e-05
3.91262e-05
3.34395e-05
3.34205e-05
3.36214e-05
3.36127e-05
3.34063e-05
3.36088e-05
3.35972e-05
3.90068e-05
3.91487e-05
3.34157e-05
3.36274e-05
3.36028e-05
3.91306e-05
3.91929e-05
3.9288e-05
3.36565e-05
3.36383e-05
3.37956e-05
3.37734e-05
3.91973e-05
3.92809e-05
3.36659e-05
3.36595e-05
3.38012e-05
3.37929e-05
3.36445e-05
3.37958e-05
3.37894e-05
3.92224e-05
3.93205e-05
3.36494e-05
3.38191e-05
3.3791e-05
3.93086e-05
3.93516e-05
3.9375e-05
3.38284e-05
3.38027e-05
3.39263e-05
3.38928e-05
3.93361e-05
3.93482e-05
3.38322e-05
3.38208e-05
3.39291e-05
3.39056e-05
3.38221e-05
3.39124e-05
3.39205e-05
3.93789e-05
3.94065e-05
3.38225e-05
3.39388e-05
3.39145e-05
3.94305e-05
3.94286e-05
3.94692e-05
3.39476e-05
3.39109e-05
3.4013e-05
3.39687e-05
3.94023e-05
3.9358e-05
3.39505e-05
3.39242e-05
3.40152e-05
3.39832e-05
3.39401e-05
3.39828e-05
3.40003e-05
3.9445e-05
3.94412e-05
3.39339e-05
3.40095e-05
3.39984e-05
3.94834e-05
3.95191e-05
3.94277e-05
3.40273e-05
3.39798e-05
3.40698e-05
3.40109e-05
3.939e-05
3.93334e-05
3.40313e-05
3.39951e-05
3.40674e-05
3.40304e-05
3.40125e-05
3.40255e-05
3.40487e-05
3.94793e-05
3.94227e-05
3.40108e-05
3.40581e-05
3.40483e-05
3.95544e-05
3.94707e-05
3.94436e-05
3.40798e-05
3.40175e-05
3.40952e-05
3.40271e-05
3.93286e-05
3.93566e-05
3.40763e-05
3.40421e-05
3.40875e-05
3.40525e-05
3.40561e-05
3.40416e-05
3.40784e-05
3.94618e-05
3.94817e-05
3.40567e-05
3.40757e-05
3.40721e-05
3.94584e-05
3.94834e-05
3.95097e-05
3.40981e-05
3.40287e-05
3.41025e-05
3.40345e-05
3.94107e-05
3.93746e-05
3.40901e-05
3.4053e-05
3.41045e-05
3.40537e-05
3.40839e-05
3.4046e-05
3.41069e-05
3.95266e-05
3.95259e-05
3.40747e-05
3.40792e-05
3.40898e-05
3.95294e-05
3.95583e-05
3.95708e-05
3.41061e-05
3.40376e-05
3.4117e-05
3.4048e-05
3.9432e-05
3.94105e-05
3.41098e-05
3.40537e-05
3.41237e-05
3.40574e-05
3.41135e-05
3.40515e-05
3.41405e-05
3.95257e-05
3.94502e-05
3.4096e-05
3.40858e-05
3.41233e-05
3.95966e-05
3.95694e-05
3.95e-05
3.41206e-05
3.40531e-05
3.41378e-05
3.40774e-05
3.94603e-05
3.94241e-05
3.41269e-05
3.40596e-05
3.41352e-05
3.40776e-05
3.41478e-05
3.40702e-05
3.41607e-05
3.94957e-05
3.95109e-05
3.41308e-05
3.4103e-05
3.41575e-05
3.95862e-05
3.95466e-05
3.95547e-05
3.41412e-05
3.40846e-05
3.41484e-05
3.41045e-05
3.94739e-05
3.94355e-05
3.41376e-05
3.40835e-05
3.4148e-05
3.41102e-05
3.41625e-05
3.4098e-05
3.41723e-05
3.95101e-05
3.95131e-05
3.41636e-05
3.41233e-05
3.41761e-05
3.96381e-05
3.95995e-05
3.95953e-05
3.41515e-05
3.41082e-05
3.41557e-05
3.41186e-05
3.94881e-05
3.94602e-05
3.41506e-05
3.4118e-05
3.41601e-05
3.4133e-05
3.4177e-05
3.41211e-05
3.41875e-05
3.95603e-05
3.95642e-05
3.41799e-05
3.41431e-05
3.41882e-05
3.96739e-05
3.96364e-05
3.96172e-05
3.41562e-05
3.41215e-05
3.41609e-05
3.41289e-05
3.95095e-05
3.95213e-05
3.41616e-05
3.41362e-05
3.41652e-05
3.4142e-05
3.41902e-05
3.41355e-05
3.42003e-05
3.96078e-05
3.95973e-05
3.41913e-05
3.4158e-05
3.42001e-05
3.96991e-05
3.96581e-05
3.96355e-05
3.41622e-05
3.41319e-05
3.41702e-05
3.41403e-05
3.95675e-05
3.95717e-05
3.41677e-05
3.4144e-05
3.41707e-05
3.41503e-05
3.42023e-05
3.4154e-05
3.42109e-05
3.96383e-05
3.96217e-05
3.4203e-05
3.41664e-05
3.42108e-05
3.97182e-05
3.96816e-05
3.95961e-05
3.41722e-05
3.41438e-05
3.41797e-05
3.41515e-05
3.95646e-05
3.9558e-05
3.41715e-05
3.41523e-05
3.4174e-05
3.41575e-05
3.42145e-05
3.4173e-05
3.42222e-05
3.96628e-05
3.96318e-05
3.42133e-05
3.41763e-05
3.42185e-05
3.97296e-05
3.95923e-05
3.95829e-05
3.41805e-05
3.41539e-05
3.41841e-05
3.4167e-05
3.96045e-05
3.96017e-05
3.41761e-05
3.41587e-05
3.41769e-05
3.41647e-05
3.42249e-05
3.41905e-05
3.42359e-05
3.96767e-05
3.96388e-05
3.42209e-05
3.41837e-05
3.42288e-05
3.97409e-05
3.95812e-05
3.95605e-05
3.41843e-05
3.41717e-05
3.41864e-05
3.41826e-05
3.96432e-05
3.96267e-05
3.41779e-05
3.41672e-05
3.41794e-05
3.41747e-05
3.42398e-05
3.42046e-05
3.42473e-05
3.96844e-05
3.96548e-05
3.42302e-05
3.41889e-05
3.42372e-05
3.97474e-05
3.96035e-05
3.95973e-05
3.41897e-05
3.41859e-05
3.41915e-05
3.41943e-05
3.96672e-05
3.9645e-05
3.41811e-05
3.41783e-05
3.41821e-05
3.41893e-05
3.42495e-05
3.42148e-05
3.42562e-05
3.96918e-05
3.96695e-05
3.42395e-05
3.4195e-05
3.42421e-05
3.97541e-05
3.96381e-05
3.96221e-05
3.41927e-05
3.41967e-05
3.41958e-05
3.42052e-05
3.96878e-05
3.96582e-05
3.41829e-05
3.41927e-05
3.41853e-05
3.42048e-05
3.42571e-05
3.42218e-05
3.42605e-05
3.97055e-05
3.96766e-05
3.42438e-05
3.42041e-05
3.42474e-05
3.97648e-05
3.96623e-05
3.96463e-05
3.41963e-05
3.42082e-05
3.41989e-05
3.42144e-05
3.97047e-05
3.96717e-05
3.41855e-05
3.42085e-05
3.41881e-05
3.42186e-05
3.42614e-05
3.42273e-05
3.42663e-05
3.97222e-05
3.96932e-05
3.42488e-05
3.4212e-05
3.42553e-05
3.97763e-05
3.96851e-05
3.96647e-05
3.41993e-05
3.42165e-05
3.42024e-05
3.4221e-05
3.97173e-05
3.96894e-05
3.41893e-05
3.42214e-05
3.41929e-05
3.42289e-05
3.42691e-05
3.42316e-05
3.42739e-05
3.97288e-05
3.96981e-05
3.42565e-05
3.42111e-05
3.42627e-05
3.97901e-05
3.96997e-05
3.96733e-05
3.4205e-05
3.42243e-05
3.42059e-05
3.42256e-05
3.96887e-05
3.96548e-05
3.41953e-05
3.42302e-05
3.41975e-05
3.4236e-05
3.42768e-05
3.4236e-05
3.42829e-05
3.9732e-05
3.96968e-05
3.42657e-05
3.42075e-05
3.42684e-05
3.97976e-05
3.9672e-05
3.964e-05
3.42059e-05
3.42256e-05
3.42064e-05
3.42287e-05
3.96966e-05
3.96794e-05
3.41978e-05
3.42382e-05
3.4201e-05
3.42419e-05
3.42837e-05
3.4239e-05
3.42888e-05
3.9732e-05
3.97033e-05
3.42694e-05
3.42082e-05
3.42702e-05
3.9796e-05
3.96813e-05
3.96682e-05
3.42068e-05
3.42303e-05
3.42082e-05
3.4235e-05
3.97204e-05
3.96961e-05
3.42034e-05
3.42427e-05
3.42058e-05
3.42447e-05
3.42895e-05
3.42443e-05
3.42933e-05
3.97379e-05
3.97005e-05
3.42704e-05
3.42097e-05
3.42716e-05
3.98032e-05
3.97072e-05
3.96814e-05
3.42092e-05
3.42382e-05
3.421e-05
3.42412e-05
3.97429e-05
3.97078e-05
3.42079e-05
3.42453e-05
3.4209e-05
3.42478e-05
3.42956e-05
3.42469e-05
3.42963e-05
3.97449e-05
3.97106e-05
3.42732e-05
3.42136e-05
3.4274e-05
3.9809e-05
3.9717e-05
3.96934e-05
3.42107e-05
3.42435e-05
3.42131e-05
3.42428e-05
3.97534e-05
3.97102e-05
3.42093e-05
3.4248e-05
3.42094e-05
3.42511e-05
3.42978e-05
3.42491e-05
3.42994e-05
3.97457e-05
3.96477e-05
3.4274e-05
3.42215e-05
3.42742e-05
3.97668e-05
3.97295e-05
3.97042e-05
3.42144e-05
3.42433e-05
3.42182e-05
3.42402e-05
3.97547e-05
3.97045e-05
3.42096e-05
3.42535e-05
3.421e-05
3.42559e-05
3.43001e-05
3.42498e-05
3.42983e-05
3.96881e-05
3.96253e-05
3.42747e-05
3.42282e-05
3.42762e-05
3.97791e-05
3.97398e-05
3.97122e-05
3.42206e-05
3.42403e-05
3.42221e-05
3.42407e-05
3.9749e-05
3.97071e-05
3.42105e-05
3.42567e-05
3.42116e-05
3.42564e-05
3.42986e-05
3.42485e-05
3.42968e-05
3.96251e-05
3.96134e-05
3.42792e-05
3.42328e-05
3.42786e-05
3.97481e-05
3.97466e-05
3.97098e-05
3.42234e-05
3.42407e-05
3.42228e-05
3.42417e-05
3.97528e-05
3.9718e-05
3.4212e-05
3.42557e-05
3.42102e-05
3.42521e-05
3.42969e-05
3.42494e-05
3.42917e-05
3.96118e-05
3.96076e-05
3.42779e-05
3.42341e-05
3.42725e-05
3.96663e-05
3.97443e-05
3.97027e-05
3.42227e-05
3.42433e-05
3.42226e-05
3.42441e-05
3.97529e-05
3.96654e-05
3.42106e-05
3.4252e-05
3.42103e-05
3.42509e-05
3.42908e-05
3.42507e-05
3.42854e-05
3.96518e-05
3.96454e-05
3.42723e-05
3.4241e-05
3.42709e-05
3.97117e-05
3.97468e-05
3.97094e-05
3.42229e-05
3.42456e-05
3.42247e-05
3.42432e-05
3.96633e-05
3.96403e-05
3.42105e-05
3.42513e-05
3.42133e-05
3.42493e-05
3.42852e-05
3.42518e-05
3.42816e-05
3.96868e-05
3.96323e-05
3.42709e-05
3.42465e-05
3.42698e-05
3.97466e-05
3.97543e-05
3.9705e-05
3.42268e-05
3.42439e-05
3.42259e-05
3.42437e-05
3.96835e-05
3.96801e-05
3.42159e-05
3.42493e-05
3.42179e-05
3.42458e-05
3.42818e-05
3.42506e-05
3.42757e-05
3.9631e-05
3.96238e-05
3.42698e-05
3.42498e-05
3.42684e-05
3.97073e-05
3.9749e-05
3.97058e-05
3.42259e-05
3.42437e-05
3.42265e-05
3.4244e-05
3.96796e-05
3.96551e-05
3.42188e-05
3.42461e-05
3.42206e-05
3.42411e-05
3.42759e-05
3.42497e-05
3.42718e-05
3.96233e-05
3.96185e-05
3.42686e-05
3.42529e-05
3.42651e-05
3.97381e-05
3.97516e-05
3.97082e-05
3.42284e-05
3.42457e-05
3.423e-05
3.42462e-05
3.96979e-05
3.9639e-05
3.42222e-05
3.4241e-05
3.42227e-05
3.42363e-05
3.42715e-05
3.4251e-05
3.42672e-05
3.96636e-05
3.9658e-05
3.42653e-05
3.4255e-05
3.42595e-05
3.97478e-05
3.97521e-05
3.96255e-05
3.42315e-05
3.42463e-05
3.42295e-05
3.4244e-05
3.96383e-05
3.96218e-05
3.42241e-05
3.42365e-05
3.42231e-05
3.42342e-05
3.42672e-05
3.42486e-05
3.42615e-05
3.96995e-05
3.96819e-05
3.42589e-05
3.42547e-05
3.42531e-05
3.97511e-05
3.96667e-05
3.9659e-05
3.42301e-05
3.42444e-05
3.42315e-05
3.42423e-05
3.96659e-05
3.96579e-05
3.42237e-05
3.42346e-05
3.42224e-05
3.4233e-05
3.42617e-05
3.42464e-05
3.42583e-05
3.97196e-05
3.96954e-05
3.42532e-05
3.42526e-05
3.42477e-05
3.97467e-05
3.97021e-05
3.96898e-05
3.42339e-05
3.42428e-05
3.42369e-05
3.42391e-05
3.96995e-05
3.96836e-05
3.42243e-05
3.42341e-05
3.42253e-05
3.42344e-05
3.42588e-05
3.42466e-05
3.42556e-05
3.97314e-05
3.97052e-05
3.42477e-05
3.42518e-05
3.42429e-05
3.96425e-05
3.9731e-05
3.9707e-05
3.424e-05
3.42394e-05
3.42417e-05
3.42347e-05
3.97234e-05
3.96445e-05
3.42268e-05
3.42363e-05
3.42274e-05
3.42373e-05
3.42551e-05
3.42455e-05
3.42475e-05
3.97407e-05
3.97119e-05
3.42424e-05
3.42528e-05
3.42365e-05
3.96804e-05
3.97421e-05
3.96148e-05
3.42441e-05
3.42347e-05
3.42412e-05
3.42292e-05
3.96421e-05
3.96288e-05
3.423e-05
3.42403e-05
3.42279e-05
3.42424e-05
3.42479e-05
3.42423e-05
3.42441e-05
3.97476e-05
3.97139e-05
3.42373e-05
3.42553e-05
3.42338e-05
3.97137e-05
3.96558e-05
3.96486e-05
3.42426e-05
3.42311e-05
3.42374e-05
3.42288e-05
3.96737e-05
3.96652e-05
3.42303e-05
3.42458e-05
3.42275e-05
3.42468e-05
3.42459e-05
3.42417e-05
3.42424e-05
3.97575e-05
3.97171e-05
3.42361e-05
3.42599e-05
3.4235e-05
3.97344e-05
3.96476e-05
3.95723e-05
3.42383e-05
3.42319e-05
3.42284e-05
3.42299e-05
3.97068e-05
3.96283e-05
3.42299e-05
3.42512e-05
3.42261e-05
3.42516e-05
3.42452e-05
3.42409e-05
3.42414e-05
3.97609e-05
3.9727e-05
3.42384e-05
3.42651e-05
3.42363e-05
3.97547e-05
3.96122e-05
3.96163e-05
3.42295e-05
3.42334e-05
3.42212e-05
3.42286e-05
3.96675e-05
3.96586e-05
3.42292e-05
3.42563e-05
3.42256e-05
3.42565e-05
3.42449e-05
3.42387e-05
3.42426e-05
3.97636e-05
3.97373e-05
3.42405e-05
3.42706e-05
3.42385e-05
3.97665e-05
3.96616e-05
3.95946e-05
3.4225e-05
3.42329e-05
3.42208e-05
3.42303e-05
3.97017e-05
3.96881e-05
3.42302e-05
3.42618e-05
3.42254e-05
3.42604e-05
3.42478e-05
3.42428e-05
3.42476e-05
3.9736e-05
3.97051e-05
3.42431e-05
3.42744e-05
3.42408e-05
3.97764e-05
3.96363e-05
3.95257e-05
3.42263e-05
3.42367e-05
3.42219e-05
3.42331e-05
3.97307e-05
3.96128e-05
3.42307e-05
3.42668e-05
3.42266e-05
3.42634e-05
3.42547e-05
3.42477e-05
3.42544e-05
3.9748e-05
3.95873e-05
3.42474e-05
3.42768e-05
3.42464e-05
3.96966e-05
3.95704e-05
3.95433e-05
3.42286e-05
3.42405e-05
3.42233e-05
3.42375e-05
3.9662e-05
3.96227e-05
3.42337e-05
3.42704e-05
3.4229e-05
3.42676e-05
3.42617e-05
3.42517e-05
3.42569e-05
3.96317e-05
3.95598e-05
3.42538e-05
3.42783e-05
3.42491e-05
3.96578e-05
3.95974e-05
3.95808e-05
3.42321e-05
3.42472e-05
3.42198e-05
3.42351e-05
3.96721e-05
3.95904e-05
3.42376e-05
3.42766e-05
3.42237e-05
3.42616e-05
3.4265e-05
3.42459e-05
3.42501e-05
3.96082e-05
3.95618e-05
3.42571e-05
3.42708e-05
3.42397e-05
3.9616e-05
3.95637e-05
3.90592e-05
3.42254e-05
3.42411e-05
3.38534e-05
3.38695e-05
3.95775e-05
3.90732e-05
3.42291e-05
3.42667e-05
3.38585e-05
3.3888e-05
3.42556e-05
3.38855e-05
3.38781e-05
3.95455e-05
3.90727e-05
3.42445e-05
3.39085e-05
3.38691e-05
3.91066e-05
3.86057e-05
3.27762e-05
3.27935e-05
3.86357e-05
3.27823e-05
3.28138e-05
1.87434e-05
1.87751e-05
1.87195e-05
3.27997e-05
3.86467e-05
3.27911e-05
6.3662e-05
7.07045e-05
6.36082e-05
6.89456e-05
6.89629e-05
6.371e-05
7.07176e-05
1.84239e-05
1.84371e-05
1.86253e-05
1.85855e-05
1.86003e-05
1.85969e-05
5.08778e-05
5.8632e-05
2.5429e-05
3.31952e-05
5.86924e-05
2.55085e-05
5.07933e-05
6.89558e-05
5.09181e-05
2.54643e-05
3.32192e-05
2.55413e-05
5.87123e-05
5.0828e-05
6.59302e-05
6.59532e-05
3.87902e-05
6.59585e-05
6.59845e-05
6.3779e-05
7.07319e-05
6.3728e-05
7.07534e-05
6.89752e-05
6.89917e-05
6.38242e-05
7.07466e-05
6.37809e-05
7.07647e-05
1.86225e-05
1.86367e-05
1.86315e-05
1.87859e-05
1.87496e-05
1.87617e-05
1.87567e-05
5.11158e-05
5.88034e-05
2.57556e-05
3.34882e-05
5.10174e-05
5.88707e-05
2.58249e-05
6.89704e-05
6.89882e-05
5.11597e-05
2.57834e-05
5.88131e-05
3.35076e-05
5.10548e-05
2.58519e-05
5.88607e-05
6.60197e-05
6.60383e-05
3.90291e-05
6.60526e-05
6.60728e-05
6.39021e-05
7.07752e-05
6.38452e-05
7.0793e-05
6.90012e-05
6.90153e-05
6.39518e-05
7.07881e-05
6.38961e-05
7.08025e-05
1.8778e-05
1.87899e-05
1.87843e-05
1.89056e-05
1.88714e-05
1.88812e-05
1.88794e-05
5.13869e-05
5.89721e-05
2.60228e-05
3.37132e-05
5.1263e-05
5.90284e-05
2.6079e-05
6.89982e-05
6.90126e-05
5.14333e-05
2.60508e-05
5.8949e-05
3.37332e-05
5.13108e-05
2.6108e-05
5.9018e-05
6.61043e-05
6.61281e-05
3.92231e-05
6.61297e-05
6.61535e-05
6.40141e-05
7.08089e-05
6.39658e-05
7.0823e-05
6.90208e-05
6.90333e-05
6.40615e-05
7.08234e-05
6.4019e-05
7.08353e-05
1.88913e-05
1.8901e-05
1.88998e-05
1.89911e-05
1.89563e-05
1.89635e-05
1.89673e-05
5.16174e-05
5.91078e-05
2.62331e-05
3.38618e-05
5.15276e-05
5.91405e-05
2.62753e-05
6.90163e-05
6.9028e-05
5.16873e-05
2.62599e-05
5.91135e-05
3.38885e-05
5.15804e-05
2.62996e-05
5.91479e-05
6.61827e-05
6.61885e-05
3.93766e-05
6.62073e-05
6.62174e-05
6.4079e-05
7.08371e-05
6.40673e-05
7.08478e-05
6.90345e-05
6.90437e-05
6.41381e-05
7.08495e-05
6.40989e-05
7.08602e-05
1.89693e-05
1.89762e-05
1.89805e-05
1.90501e-05
1.9012e-05
1.90185e-05
1.9026e-05
5.17679e-05
5.91703e-05
2.63721e-05
3.39526e-05
5.17567e-05
5.91806e-05
2.63965e-05
6.90299e-05
6.90404e-05
5.18053e-05
2.63893e-05
5.91981e-05
3.39777e-05
5.17454e-05
2.64123e-05
5.92073e-05
6.62382e-05
6.62387e-05
3.94697e-05
6.6241e-05
6.62476e-05
6.41094e-05
7.08537e-05
6.40941e-05
7.08579e-05
6.90414e-05
6.90494e-05
6.41395e-05
7.08635e-05
6.41391e-05
7.08664e-05
1.90219e-05
1.90278e-05
1.90356e-05
1.90885e-05
1.905e-05
1.90565e-05
1.9068e-05
5.18333e-05
5.92015e-05
2.64476e-05
3.40071e-05
5.18135e-05
5.91841e-05
2.64627e-05
6.90391e-05
6.90465e-05
5.1864e-05
2.64612e-05
5.92272e-05
3.40369e-05
5.18136e-05
2.6476e-05
5.92149e-05
6.62431e-05
6.6262e-05
3.9519e-05
6.62526e-05
6.62662e-05
6.41482e-05
7.0858e-05
6.41488e-05
7.08601e-05
6.90456e-05
6.90527e-05
6.41705e-05
7.08675e-05
6.41583e-05
7.08701e-05
1.90566e-05
1.90645e-05
1.90762e-05
1.91102e-05
1.90721e-05
1.90785e-05
1.90982e-05
5.18452e-05
5.91975e-05
2.64868e-05
3.40375e-05
5.1867e-05
5.92052e-05
2.64968e-05
6.90388e-05
6.90453e-05
5.1834e-05
2.65007e-05
5.92385e-05
3.40712e-05
5.18561e-05
2.65108e-05
5.92107e-05
6.62611e-05
6.62728e-05
3.951e-05
6.62542e-05
6.62673e-05
6.41223e-05
7.08591e-05
6.41255e-05
7.08611e-05
6.90473e-05
6.90548e-05
6.41712e-05
7.08701e-05
6.41695e-05
7.08726e-05
1.90767e-05
1.90803e-05
1.91035e-05
1.91241e-05
1.90865e-05
1.90874e-05
1.91255e-05
5.18358e-05
5.92059e-05
2.65098e-05
3.40458e-05
5.18467e-05
5.9213e-05
2.6514e-05
6.90411e-05
6.90492e-05
5.18289e-05
2.65217e-05
5.91919e-05
3.40783e-05
5.18215e-05
2.65263e-05
5.91931e-05
6.62584e-05
6.62534e-05
3.94733e-05
6.62616e-05
6.62541e-05
6.41252e-05
7.08602e-05
6.41231e-05
7.08624e-05
6.90522e-05
6.90614e-05
6.41591e-05
7.08732e-05
6.41605e-05
7.08759e-05
1.90891e-05
1.90914e-05
1.91313e-05
1.91422e-05
1.91043e-05
1.91029e-05
1.91522e-05
5.18756e-05
5.91969e-05
2.65247e-05
3.4048e-05
5.18617e-05
5.91883e-05
2.65297e-05
6.90468e-05
6.90563e-05
5.18079e-05
2.65375e-05
5.92168e-05
3.40815e-05
5.18713e-05
2.6543e-05
5.92222e-05
6.6277e-05
6.62663e-05
3.95683e-05
6.62783e-05
6.62602e-05
6.41178e-05
7.08635e-05
6.41175e-05
7.0867e-05
6.90604e-05
6.90688e-05
6.41493e-05
7.08746e-05
6.41494e-05
7.08743e-05
1.91101e-05
1.9107e-05
1.91589e-05
1.91612e-05
1.91279e-05
1.91273e-05
1.91769e-05
5.18236e-05
5.91626e-05
2.65445e-05
3.40591e-05
5.18132e-05
5.91654e-05
2.65525e-05
6.90544e-05
6.90635e-05
5.1809e-05
2.65589e-05
5.92246e-05
3.40929e-05
5.18332e-05
2.65681e-05
5.92168e-05
6.6287e-05
6.6273e-05
3.96238e-05
6.62826e-05
6.62772e-05
6.40893e-05
7.08667e-05
6.41079e-05
7.08675e-05
6.90649e-05
6.9073e-05
6.41279e-05
7.0872e-05
6.41372e-05
7.08733e-05
1.91327e-05
1.91324e-05
1.91803e-05
1.91771e-05
1.91505e-05
1.91519e-05
1.91961e-05
5.18375e-05
5.91654e-05
2.65703e-05
3.40839e-05
5.18347e-05
5.91679e-05
2.65791e-05
6.90619e-05
6.90708e-05
5.18212e-05
2.65856e-05
5.91929e-05
3.41136e-05
5.18132e-05
2.65949e-05
5.92021e-05
6.6289e-05
6.62777e-05
3.96144e-05
6.62868e-05
6.62813e-05
6.41035e-05
7.08655e-05
6.40899e-05
7.0866e-05
6.90697e-05
6.90768e-05
6.41386e-05
7.08731e-05
6.41427e-05
7.08749e-05
1.9155e-05
1.9158e-05
1.92006e-05
1.91877e-05
1.91665e-05
1.9169e-05
1.92097e-05
5.1826e-05
5.92006e-05
2.65949e-05
3.41129e-05
5.18265e-05
5.92112e-05
2.66028e-05
6.90673e-05
6.90745e-05
5.18453e-05
2.66089e-05
5.92173e-05
3.4133e-05
5.18456e-05
2.66154e-05
5.92139e-05
6.62766e-05
6.62864e-05
3.96568e-05
6.62785e-05
6.62899e-05
6.40926e-05
7.08634e-05
6.40999e-05
7.08652e-05
6.90709e-05
6.9077e-05
6.41257e-05
7.08743e-05
6.41245e-05
7.08765e-05
1.91709e-05
1.91704e-05
1.92121e-05
1.91962e-05
1.91799e-05
1.91793e-05
1.92218e-05
5.18421e-05
5.92053e-05
2.66097e-05
3.4129e-05
5.18371e-05
5.92008e-05
2.66122e-05
6.90674e-05
6.90737e-05
5.18656e-05
2.66243e-05
5.92342e-05
3.41527e-05
5.18715e-05
2.66276e-05
5.92567e-05
6.62649e-05
6.62854e-05
3.96878e-05
6.62583e-05
6.62858e-05
6.40994e-05
7.08641e-05
6.40806e-05
7.08665e-05
6.90699e-05
6.90767e-05
6.41113e-05
7.08761e-05
6.41158e-05
7.08767e-05
1.91822e-05
1.91809e-05
1.92261e-05
1.92028e-05
1.91917e-05
1.91887e-05
1.92333e-05
5.18168e-05
5.92148e-05
2.66216e-05
3.41443e-05
5.18342e-05
5.92162e-05
2.66271e-05
6.90668e-05
6.90731e-05
5.18414e-05
2.66336e-05
5.92561e-05
3.41624e-05
5.18099e-05
2.66362e-05
5.92675e-05
6.62668e-05
6.62872e-05
3.97092e-05
6.6274e-05
6.62617e-05
6.41012e-05
7.08655e-05
6.41056e-05
7.08673e-05
6.9072e-05
6.90797e-05
6.40978e-05
7.08737e-05
6.41019e-05
7.08742e-05
1.91963e-05
1.91903e-05
1.92357e-05
1.92092e-05
1.92047e-05
1.91961e-05
1.92437e-05
5.18077e-05
5.92167e-05
2.66396e-05
3.41644e-05
5.18065e-05
5.92185e-05
2.66454e-05
6.90677e-05
6.9074e-05
5.18519e-05
2.66441e-05
5.92607e-05
3.41737e-05
5.18334e-05
2.66477e-05
5.9263e-05
6.62751e-05
6.62612e-05
3.97194e-05
6.62668e-05
6.62673e-05
6.40784e-05
7.08678e-05
6.40825e-05
7.08705e-05
6.90755e-05
6.90825e-05
6.41166e-05
7.08715e-05
6.41104e-05
7.08731e-05
1.92069e-05
1.92e-05
1.92468e-05
1.92152e-05
1.92172e-05
1.92047e-05
1.92537e-05
5.17941e-05
5.92247e-05
2.66582e-05
3.41815e-05
5.17661e-05
5.92285e-05
2.6665e-05
6.90668e-05
6.90732e-05
5.18554e-05
2.66521e-05
5.92637e-05
3.41824e-05
5.18218e-05
2.66523e-05
5.92661e-05
6.62755e-05
6.62771e-05
3.9741e-05
6.6269e-05
6.62808e-05
6.40814e-05
7.08701e-05
6.40865e-05
7.08715e-05
6.90784e-05
6.90855e-05
6.41e-05
7.08728e-05
6.41054e-05
7.08752e-05
1.9222e-05
1.92056e-05
1.92549e-05
1.92229e-05
1.92304e-05
1.9212e-05
1.92614e-05
5.18157e-05
5.92235e-05
2.66792e-05
3.41983e-05
5.18294e-05
5.92309e-05
2.66866e-05
6.90676e-05
6.90752e-05
5.18666e-05
2.66499e-05
5.92539e-05
3.41867e-05
5.18877e-05
2.66494e-05
5.92604e-05
6.62807e-05
6.62863e-05
3.97449e-05
6.62824e-05
6.62859e-05
6.40784e-05
7.08686e-05
6.40873e-05
7.08691e-05
6.908e-05
6.90859e-05
6.41022e-05
7.08727e-05
6.40842e-05
7.08734e-05
1.9233e-05
1.92154e-05
1.92648e-05
1.92299e-05
1.92413e-05
1.92218e-05
1.92687e-05
5.17957e-05
5.9226e-05
2.66969e-05
3.42115e-05
5.18483e-05
5.92211e-05
2.67002e-05
6.90705e-05
6.90774e-05
5.18498e-05
2.66477e-05
5.92518e-05
3.41912e-05
5.18449e-05
2.66476e-05
5.92654e-05
6.62862e-05
6.62728e-05
3.97499e-05
6.62863e-05
6.62733e-05
6.40874e-05
7.08665e-05
6.40909e-05
7.08671e-05
6.90783e-05
6.90844e-05
6.40865e-05
7.08718e-05
6.40874e-05
7.08737e-05
1.92452e-05
1.92233e-05
1.92694e-05
1.92315e-05
1.92515e-05
1.92328e-05
1.92727e-05
5.18005e-05
5.92141e-05
2.67033e-05
3.4219e-05
5.1791e-05
5.92268e-05
2.67068e-05
6.9071e-05
6.90778e-05
5.1878e-05
2.66472e-05
5.92501e-05
3.42014e-05
5.18652e-05
2.66472e-05
5.92446e-05
6.629e-05
6.62748e-05
3.97591e-05
6.6292e-05
6.62775e-05
6.40871e-05
7.08645e-05
6.40886e-05
7.08666e-05
6.90785e-05
6.90845e-05
6.40638e-05
7.08727e-05
6.40627e-05
7.08745e-05
1.92521e-05
1.92376e-05
1.92742e-05
1.92335e-05
1.92588e-05
1.92447e-05
1.92767e-05
5.18116e-05
5.9233e-05
2.67077e-05
3.4226e-05
5.18427e-05
5.92371e-05
2.67086e-05
6.90709e-05
6.90774e-05
5.18703e-05
2.66455e-05
5.92597e-05
3.421e-05
5.18432e-05
2.66452e-05
5.92581e-05
6.62937e-05
6.62832e-05
3.97714e-05
6.62798e-05
6.6284e-05
6.41038e-05
7.08676e-05
6.40844e-05
7.08704e-05
6.90789e-05
6.90855e-05
6.40704e-05
7.08754e-05
6.40541e-05
7.08778e-05
1.926e-05
1.92465e-05
1.92768e-05
1.92333e-05
1.92634e-05
1.92534e-05
1.92796e-05
5.18417e-05
5.92199e-05
2.67103e-05
3.42299e-05
5.18117e-05
5.92213e-05
2.67107e-05
6.90712e-05
6.90776e-05
5.18624e-05
2.66425e-05
5.92429e-05
3.42129e-05
5.1866e-05
2.66424e-05
5.92555e-05
6.62928e-05
6.62908e-05
3.97826e-05
6.62929e-05
6.63038e-05
6.41108e-05
7.08713e-05
6.40907e-05
7.08748e-05
6.90806e-05
6.90869e-05
6.41203e-05
7.08783e-05
6.40952e-05
7.08797e-05
1.92643e-05
1.92555e-05
1.92822e-05
1.92324e-05
1.92662e-05
1.9258e-05
1.92833e-05
5.1803e-05
5.92412e-05
2.67128e-05
3.42365e-05
5.18012e-05
5.92168e-05
2.67165e-05
6.90709e-05
6.90773e-05
5.18492e-05
2.66388e-05
5.92688e-05
3.42103e-05
5.18422e-05
2.66383e-05
5.92599e-05
6.62811e-05
6.63027e-05
3.97967e-05
6.62845e-05
6.63051e-05
6.40905e-05
7.08764e-05
6.40931e-05
7.08786e-05
6.90822e-05
6.90892e-05
6.41206e-05
7.08777e-05
6.41223e-05
7.08787e-05
1.9267e-05
1.926e-05
1.92834e-05
1.92307e-05
1.92661e-05
1.92608e-05
1.92852e-05
5.18644e-05
5.92301e-05
2.67176e-05
3.42393e-05
5.18571e-05
5.92355e-05
2.67193e-05
6.90708e-05
6.90771e-05
5.18208e-05
2.66347e-05
5.92619e-05
3.42089e-05
5.18307e-05
2.66344e-05
5.9252e-05
6.6298e-05
6.63124e-05
3.97925e-05
6.62976e-05
6.63114e-05
6.40936e-05
7.08757e-05
6.4082e-05
7.08754e-05
6.90831e-05
6.90895e-05
6.41034e-05
7.08764e-05
6.41052e-05
7.08775e-05
1.92666e-05
1.92604e-05
1.92861e-05
1.92312e-05
1.92666e-05
1.92601e-05
1.92854e-05
5.18691e-05
5.92455e-05
2.67201e-05
3.42418e-05
5.1857e-05
5.92421e-05
2.67202e-05
6.90702e-05
6.90774e-05
5.18384e-05
2.6631e-05
5.92616e-05
3.42102e-05
5.1825e-05
2.66318e-05
5.92564e-05
6.63024e-05
6.63099e-05
3.98053e-05
6.62996e-05
6.63071e-05
6.40869e-05
7.08726e-05
6.4074e-05
7.08738e-05
6.90838e-05
6.90897e-05
6.41088e-05
7.08744e-05
6.41079e-05
7.08764e-05
1.92663e-05
1.92608e-05
1.92845e-05
1.92286e-05
1.92659e-05
1.92605e-05
1.92829e-05
5.18681e-05
5.92374e-05
2.67169e-05
3.42465e-05
5.18302e-05
5.92417e-05
2.67175e-05
6.90728e-05
6.90801e-05
5.18547e-05
2.66278e-05
5.92622e-05
3.42117e-05
5.18389e-05
2.66301e-05
5.92659e-05
6.63054e-05
6.63158e-05
3.98068e-05
6.63058e-05
6.63152e-05
6.40988e-05
7.08725e-05
6.4079e-05
7.08752e-05
6.9083e-05
6.90892e-05
6.41203e-05
7.08772e-05
6.41216e-05
7.08798e-05
1.9264e-05
1.92605e-05
1.9283e-05
1.92288e-05
1.92618e-05
1.9262e-05
1.92812e-05
5.18518e-05
5.9239e-05
2.67161e-05
3.42501e-05
5.18579e-05
5.92305e-05
2.67161e-05
6.90748e-05
6.90818e-05
5.18219e-05
2.66272e-05
5.9263e-05
3.4219e-05
5.18147e-05
2.66276e-05
5.92721e-05
6.6313e-05
6.63155e-05
3.98164e-05
6.63149e-05
6.6311e-05
6.40964e-05
7.08762e-05
6.4098e-05
7.0878e-05
6.9082e-05
6.90877e-05
6.41e-05
7.08798e-05
6.41114e-05
7.08818e-05
1.92651e-05
1.92623e-05
1.92813e-05
1.92268e-05
1.9262e-05
1.92646e-05
1.92799e-05
5.18503e-05
5.9235e-05
2.67168e-05
3.42498e-05
5.18246e-05
5.92384e-05
2.67167e-05
6.9076e-05
6.90833e-05
5.1847e-05
2.66293e-05
5.92325e-05
3.42264e-05
5.18293e-05
2.66313e-05
5.92383e-05
6.63208e-05
6.63135e-05
3.97763e-05
6.63224e-05
6.63159e-05
6.40873e-05
7.08782e-05
6.40954e-05
7.08808e-05
6.90814e-05
6.90872e-05
6.41516e-05
7.08813e-05
6.41131e-05
7.08823e-05
1.92612e-05
1.92661e-05
1.92796e-05
1.92246e-05
1.92585e-05
1.92687e-05
1.9278e-05
5.1882e-05
5.92438e-05
2.67167e-05
3.42496e-05
5.18771e-05
5.92575e-05
2.67168e-05
6.90778e-05
6.90853e-05
5.18524e-05
2.6637e-05
5.92528e-05
3.42321e-05
5.18645e-05
2.66421e-05
5.92433e-05
6.63344e-05
6.63302e-05
3.97326e-05
6.63342e-05
6.63314e-05
6.40913e-05
7.08786e-05
6.40953e-05
7.08798e-05
6.90809e-05
6.90877e-05
6.41796e-05
7.08787e-05
6.41769e-05
7.08789e-05
1.92593e-05
1.92707e-05
1.92781e-05
1.92237e-05
1.92578e-05
1.92726e-05
1.92765e-05
5.1865e-05
5.9266e-05
2.67159e-05
3.42492e-05
5.18533e-05
5.92716e-05
2.67156e-05
6.90804e-05
6.9087e-05
5.18465e-05
2.66497e-05
5.92475e-05
3.42336e-05
5.18386e-05
2.66527e-05
5.92397e-05
6.6332e-05
6.63268e-05
3.96745e-05
6.63242e-05
6.63198e-05
6.41023e-05
7.08779e-05
6.40803e-05
7.08793e-05
6.90823e-05
6.90888e-05
6.41501e-05
7.08757e-05
6.41766e-05
7.08766e-05