/*--------------------------------*- C++ -*----------------------------------*\
| =========                 |                                                 |
| \\      /  F ield         | OpenFOAM: The Open Source CFD Toolbox           |
|  \\    /   O peration     | Version:  v2012                                 |
|   \\  /    A nd           | Website:  www.openfoam.com                      |
|    \\/     M anipulation  |                                                 |
\*---------------------------------------------------------------------------*/
FoamFile
{
    version     2.0;
    format      ascii;
    class       volScalarField;
    location    "200";
    object      nut;
}
// * * * * * * * * * * * * * * * * * * * * * * * * * * * * * * * * * * * * * //

dimensions      [0 2 -1 0 0 0 0];


internalField   nonuniform List<scalar> 
85864
(
0.000113792
0.000126867
0.000126245
0.000126733
0.00012676
0.000126576
0.00012618
4.97887e-05
4.97867e-05
8.96295e-05
0.000113356
2.35108e-05
9.04036e-05
2.35156e-05
2.35145e-05
7.23175e-05
7.23131e-05
9.04566e-05
9.04493e-05
0.000121428
0.000113757
4.97845e-05
8.96263e-05
0.00012137
9.03931e-05
0.000113707
7.22923e-05
7.23146e-05
2.35134e-05
4.9782e-05
4.97953e-05
7.51799e-05
2.00348e-05
2.0039e-05
4.97944e-05
7.52292e-05
7.52622e-05
2.00369e-05
3.61353e-05
8.96865e-05
8.63652e-05
4.03747e-05
8.6407e-05
4.03767e-05
3.61334e-05
2.35126e-05
2.35173e-05
2.35162e-05
9.46121e-05
0.000107301
7.23479e-05
4.77084e-05
4.77106e-05
0.000107378
9.45783e-05
9.46629e-05
0.000107294
7.23426e-05
4.77011e-05
4.77012e-05
0.000107397
9.46227e-05
7.79814e-05
2.14195e-05
2.14166e-05
2.14214e-05
2.14184e-05
7.79634e-05
2.00364e-05
4.97836e-05
7.51924e-05
7.52236e-05
2.00343e-05
3.61327e-05
8.96755e-05
4.03747e-05
8.63376e-05
4.03767e-05
8.63834e-05
3.61307e-05
9.46029e-05
0.00010721
7.23167e-05
4.76957e-05
4.76934e-05
0.000107315
9.45604e-05
9.45947e-05
0.000107253
7.2346e-05
4.7706e-05
0.000107388
4.77076e-05
9.45564e-05
7.79837e-05
2.14148e-05
2.14182e-05
2.14168e-05
2.14202e-05
7.797e-05
2.35152e-05
4.97889e-05
0.00011627
0.000113839
0.000120918
0.000121014
0.000126272
0.000120911
0.000120991
0.000113785
0.000113581
0.000120816
0.000120801
0.000126191
0.000120813
0.000120844
0.000113524
0.000115918
0.000119511
0.00011423
9.04709e-05
0.000102595
0.000114412
0.000102703
0.000119469
0.000119633
0.000114556
9.05028e-05
0.000102605
0.000102712
0.00011453
0.00011943
0.000119574
0.000114265
9.05223e-05
0.000102707
0.000102847
0.000114446
0.000119504
0.000122525
0.000113882
0.000111109
0.000123017
0.000111237
0.000123129
0.000122351
0.000119372
0.000114288
9.04691e-05
0.000102608
0.000102728
0.000114319
0.000119286
0.000122533
0.000113827
0.000123101
0.000111121
0.000123223
0.000111182
0.000122323
0.000126791
0.000125993
0.000114373
0.000127877
0.000127943
0.000126909
0.000114832
0.000128747
0.000128806
0.000127659
0.000115128
0.000129317
0.000129421
0.000128383
0.000115303
0.000129652
0.000129747
0.00012883
0.000115408
0.000129853
0.000129969
0.000129087
0.00011548
0.000129977
0.000130113
0.000129065
0.000115532
0.000130015
0.000130125
0.000128621
0.000115578
0.000130058
0.000130162
0.000129338
0.000115708
0.000130126
0.000130235
0.000129663
0.00011587
0.000130285
0.000130361
0.000129617
0.000115957
0.000130426
0.000130481
0.000129884
0.000116004
0.000130515
0.000130562
0.000130047
0.000116055
0.000130603
0.000130601
0.000130219
0.000116096
0.000130701
0.00013065
0.000130226
0.000116137
0.000130807
0.000130706
0.000130331
0.000116171
0.000130893
0.000130723
0.000130331
0.00011619
0.000130955
0.000130753
0.000130341
0.000116261
0.000130977
0.000130796
0.000130393
0.000116204
0.000131
0.000130852
0.000130513
0.000116205
0.000131013
0.000130871
0.000130497
0.000116189
0.000131007
0.000130839
0.000130561
0.000116169
0.000131014
0.000130819
0.000130486
0.00011615
0.000130999
0.000130822
0.000130466
0.000116152
0.000131033
0.000130826
0.000130489
0.000116123
0.000131011
0.000130858
0.000130558
0.00011613
0.000130981
0.000130909
0.000130257
0.000116109
0.000130974
0.000130946
0.000130381
0.000116086
0.000130963
0.000130943
0.000129829
0.000116091
0.000130962
0.000130956
0.000129641
0.000116099
0.000130969
0.000130984
0.000129986
0.0001161
0.000130983
0.000131011
0.000130162
0.000116129
0.000130956
0.00013102
0.000129939
0.000116185
0.000130952
0.000131029
0.000130191
0.000116185
0.000130974
0.000131037
0.000130242
0.000116209
0.000130961
0.000131045
0.000130255
0.000116246
0.000130951
0.000131041
0.000130155
0.000116307
0.00013097
0.000131075
0.000129638
0.000116246
0.000130972
0.000131052
0.000129936
0.00011625
0.000130975
0.000131066
0.000130089
0.000116232
0.000130983
0.000131108
0.000130178
0.000116224
0.000130989
0.000131141
0.000130298
0.000116215
0.000130994
0.00013117
0.000130308
0.000116206
0.000131026
0.000131189
0.000130452
0.000116209
0.00013105
0.00013119
0.000129594
0.000116239
0.000131077
0.000131199
0.000129474
0.000116255
0.00013106
0.000131175
0.000129992
0.000116673
0.000129415
0.000129544
0.000129356
0.000126863
0.000126539
0.00012749
0.00012735
0.000126199
0.000126911
0.000127528
0.000127383
0.000126587
0.000127515
0.00012736
0.000126937
0.00012661
0.000127584
0.000127407
0.000126759
0.000126999
0.000127549
0.000127676
0.000127561
0.000128394
0.000128317
0.000127129
0.000127637
0.000127722
0.000127599
0.000128457
0.000128363
0.000127561
0.000128486
0.000128329
0.00012715
0.000127701
0.000127604
0.000128539
0.000128367
0.000127546
0.000127725
0.000128181
0.000128493
0.000128385
0.000129058
0.000128925
0.000127817
0.000128169
0.000128527
0.000128442
0.000129089
0.000128983
0.000128416
0.000129174
0.000129015
0.00012789
0.000128303
0.000128442
0.000129255
0.00012902
0.000128244
0.000128335
0.000128417
0.0001291
0.000128971
0.000129521
0.000129364
0.000128256
0.000128402
0.000129114
0.000129004
0.00012954
0.000129391
0.000129064
0.000129579
0.000129516
0.000128426
0.000128602
0.000129072
0.000129671
0.000129496
0.000128825
0.000128517
0.000128818
0.000129549
0.000129374
0.00012984
0.00012965
0.000128359
0.000128314
0.000129577
0.000129411
0.000129843
0.000129665
0.00012953
0.000129824
0.000129816
0.000128631
0.000128723
0.000129519
0.000129924
0.000129841
0.000129004
0.00012878
0.000128446
0.000129822
0.000129624
0.000130067
0.000129826
0.00012816
0.000128119
0.000129832
0.000129655
0.000130048
0.00012986
0.000129859
0.00012997
0.000130051
0.000128645
0.000128494
0.000129837
0.000130116
0.000130046
0.000129329
0.000128373
0.00012859
0.000130039
0.000129784
0.000130182
0.000129912
0.000127798
0.00012838
0.00013003
0.000129845
0.000130145
0.000129983
0.000130017
0.000130007
0.000130178
0.000128384
0.000128847
0.000130011
0.00013012
0.000130157
0.000128736
0.00012849
0.000129011
0.000130176
0.000129893
0.00013024
0.000129985
0.000128404
0.000128407
0.000130139
0.000129967
0.000130235
0.00013002
0.0001302
0.000130033
0.000130341
0.000128789
0.000129133
0.000130172
0.000130146
0.000130273
0.000129229
0.000128975
0.000129322
0.000130231
0.000129964
0.000130304
0.000130048
0.000128556
0.000128615
0.000130247
0.000130001
0.000130347
0.000130062
0.00013031
0.000130099
0.000130512
0.000128795
0.000128627
0.000130292
0.000130213
0.000130434
0.000129644
0.000129117
0.000128888
0.00013031
0.000130067
0.000130428
0.000130202
0.000128719
0.000128755
0.000130343
0.000130032
0.000130425
0.000130157
0.000130477
0.000130247
0.000130608
0.000128716
0.000129067
0.000130453
0.000130337
0.000130604
0.000129614
0.000128983
0.000129236
0.000130429
0.000130217
0.000130505
0.000130329
0.000128696
0.000128784
0.000130395
0.00013019
0.000130491
0.00013034
0.000130571
0.000130421
0.000130658
0.000128872
0.000129138
0.000130611
0.000130476
0.000130711
0.000129869
0.000129336
0.000129527
0.0001305
0.000130268
0.000130568
0.000130385
0.00012877
0.000128933
0.000130459
0.000130308
0.000130561
0.000130431
0.000130677
0.000130493
0.000130744
0.00012906
0.000129388
0.000130697
0.000130542
0.000130775
0.000130076
0.000129457
0.000129608
0.000130531
0.00013039
0.000130599
0.000130455
0.000128892
0.000129253
0.00013055
0.000130407
0.00013061
0.000130496
0.000130752
0.000130579
0.000130808
0.000129306
0.000129541
0.000130755
0.000130595
0.00013083
0.000130182
0.000129674
0.000129691
0.000130561
0.00013046
0.00013065
0.000130525
0.000129356
0.000129539
0.000130598
0.000130463
0.000130644
0.000130547
0.000130823
0.000130683
0.000130875
0.000129469
0.000129656
0.00013084
0.000130635
0.000130891
0.000130241
0.000129774
0.000129403
0.000130636
0.000130486
0.000130699
0.000130568
0.000129152
0.000129423
0.000130625
0.000130539
0.000130661
0.000130592
0.00013089
0.000130788
0.000130947
0.000129653
0.000129683
0.000130886
0.000130695
0.000130927
0.000130377
0.000129186
0.000129426
0.000130696
0.000130565
0.000130717
0.000130659
0.000129362
0.000129666
0.000130652
0.000130579
0.000130673
0.000130649
0.000130927
0.000130875
0.000130984
0.000129764
0.000129717
0.000130928
0.000130721
0.000130985
0.000130356
0.00012911
0.000129339
0.000130697
0.00013067
0.000130739
0.000130765
0.000129556
0.000129817
0.00013066
0.00013064
0.000130706
0.000130714
0.000130993
0.000130936
0.00013104
0.000129794
0.000129799
0.000130982
0.000130772
0.000131022
0.000130358
0.000129245
0.000129553
0.000130736
0.000130713
0.000130778
0.000130771
0.000129681
0.000129818
0.000130674
0.000130703
0.000130715
0.000130782
0.000131027
0.000130982
0.000131093
0.000129822
0.00012992
0.000131018
0.00013078
0.000131073
0.00013041
0.000129443
0.000129686
0.000130743
0.000130769
0.000130801
0.000130827
0.00012989
0.000129855
0.000130672
0.00013077
0.000130734
0.000130848
0.000131077
0.000130992
0.000131114
0.000129771
0.000129887
0.000131036
0.000130838
0.000131082
0.000130442
0.000129558
0.000129791
0.00013076
0.000130814
0.000130803
0.000130864
0.000129945
0.000129893
0.000130708
0.000130865
0.000130753
0.000130898
0.000131097
0.000131005
0.000131162
0.000129909
0.000129974
0.000131071
0.000130862
0.000131105
0.000130527
0.000129657
0.000129859
0.000130763
0.000130874
0.000130803
0.000130884
0.000129978
0.000129957
0.000130713
0.000130908
0.000130763
0.000130931
0.000131114
0.000130995
0.000131147
0.000129973
0.000130019
0.00013103
0.000130851
0.000131102
0.000130532
0.000129696
0.000129877
0.000130818
0.000130879
0.000130832
0.000130897
0.000129743
0.000129718
0.000130732
0.00013091
0.000130761
0.000130955
0.000131143
0.000131009
0.000131174
0.000129861
0.000129984
0.000131096
0.000130817
0.000131117
0.000130549
0.000129478
0.000129651
0.000130751
0.000130847
0.000130786
0.000130882
0.000129777
0.000129838
0.000130738
0.000130941
0.000130784
0.000130967
0.000131176
0.00013101
0.000131192
0.000129833
0.00012999
0.000131101
0.000130819
0.000131127
0.000130467
0.000129546
0.00012979
0.00013077
0.000130881
0.000130796
0.000130919
0.000129889
0.000129892
0.000130749
0.000130939
0.000130777
0.000130987
0.000131172
0.000131024
0.000131192
0.000129849
0.000129951
0.000131096
0.000130823
0.00013111
0.000130499
0.000129659
0.000129837
0.000130772
0.000130905
0.000130791
0.000130915
0.000129983
0.000129927
0.000130758
0.000130927
0.000130786
0.000130979
0.000131204
0.000131007
0.000131192
0.000129885
0.000129998
0.000131107
0.000130843
0.000131102
0.000130493
0.000129687
0.000129878
0.00013077
0.000130919
0.000130799
0.000130929
0.000130008
0.000129919
0.000130755
0.000130946
0.000130787
0.000130952
0.000131188
0.000130983
0.000131196
0.000129886
0.000129638
0.000131099
0.000130895
0.000131093
0.000130304
0.000129742
0.000129917
0.000130776
0.000130909
0.000130823
0.000130917
0.000129998
0.000129891
0.000130747
0.000130954
0.00013078
0.000130967
0.000131181
0.000130971
0.000131191
0.000129552
0.000129454
0.000131096
0.000130933
0.000131114
0.000130319
0.000129782
0.000129942
0.000130789
0.000130891
0.000130828
0.000130922
0.000129973
0.000129913
0.000130733
0.000130955
0.000130775
0.000130971
0.00013117
0.000130961
0.000131179
0.000129257
0.000129453
0.0001311
0.000130941
0.000131089
0.000130123
0.000129809
0.000129929
0.000130788
0.000130898
0.00013083
0.000130924
0.00012999
0.000129996
0.000130748
0.000130942
0.000130763
0.000130951
0.000131147
0.00013096
0.000131141
0.000129236
0.000129483
0.000131075
0.000130946
0.00013106
0.00012967
0.000129803
0.000129888
0.000130806
0.000130906
0.00013084
0.000130915
0.000129937
0.000129654
0.000130746
0.000130911
0.000130777
0.000130939
0.000131102
0.000130971
0.00013111
0.000129478
0.000129728
0.000131026
0.000130985
0.00013105
0.000130018
0.000129909
0.000129906
0.000130807
0.000130901
0.000130842
0.000130915
0.000129293
0.000129496
0.000130741
0.000130905
0.000130791
0.000130933
0.000131065
0.000130979
0.00013109
0.000129601
0.000129619
0.000131016
0.000131004
0.000131051
0.000130197
0.000129984
0.000129866
0.00013084
0.000130885
0.000130872
0.000130915
0.000129558
0.000129771
0.000130759
0.000130902
0.00013081
0.000130927
0.000131073
0.000130957
0.000131066
0.000129235
0.000129583
0.000131005
0.000131011
0.000131043
0.000129948
0.000129946
0.000129929
0.000130837
0.000130889
0.000130883
0.000130917
0.00012956
0.000129666
0.000130787
0.000130905
0.000130831
0.000130925
0.000131044
0.000130949
0.000131065
0.000129224
0.000129525
0.00013102
0.000131023
0.000131031
0.000130171
0.000129877
0.000129932
0.000130844
0.000130875
0.000130895
0.000130925
0.000129594
0.000129509
0.000130797
0.000130882
0.000130842
0.000130912
0.000131021
0.000130968
0.000131053
0.000129617
0.000129763
0.000131014
0.000131037
0.000131025
0.000130198
0.000129866
0.000129449
0.000130875
0.000130899
0.000130895
0.000130919
0.000129309
0.000129451
0.000130791
0.000130883
0.000130827
0.000130914
0.000131016
0.000130955
0.000131032
0.000129819
0.000129892
0.000130987
0.000131049
0.000131005
0.000130343
0.000129381
0.000129638
0.000130857
0.000130898
0.000130911
0.000130926
0.000129525
0.000129719
0.000130809
0.000130893
0.000130813
0.000130924
0.000131013
0.000130942
0.000131027
0.000129927
0.000130017
0.000130966
0.000131045
0.000130994
0.000130244
0.000129695
0.000129829
0.000130871
0.000130907
0.000130908
0.000130928
0.00012965
0.00012987
0.000130824
0.000130879
0.000130848
0.000130929
0.000131003
0.000130965
0.000131022
0.000129924
0.000130068
0.000130935
0.000131071
0.000130969
0.000129601
0.000129884
0.000129906
0.000130935
0.000130884
0.000130949
0.000130914
0.000129767
0.000129585
0.000130851
0.000130908
0.00013087
0.000130919
0.000130969
0.000130978
0.000130986
0.000129916
0.000130079
0.000130926
0.000131045
0.000130938
0.000129874
0.000129927
0.000129428
0.000130942
0.000130872
0.000130955
0.000130859
0.000129236
0.000129488
0.000130877
0.000130933
0.000130878
0.000130959
0.000130931
0.000130974
0.000130966
0.000129921
0.000130058
0.00013089
0.000131058
0.000130897
0.000130055
0.000129376
0.000129678
0.000130939
0.000130865
0.000130932
0.000130871
0.000129562
0.000129736
0.000130894
0.00013098
0.000130882
0.00013099
0.000130937
0.000130981
0.000130939
0.000130005
0.000130041
0.000130916
0.000131099
0.000130919
0.000130145
0.000129315
0.00012919
0.000130896
0.000130888
0.000130898
0.000130884
0.000129791
0.000129489
0.000130897
0.000131021
0.000130884
0.000131024
0.000130948
0.000130991
0.000130954
0.000130105
0.000130101
0.000130942
0.000131132
0.000130936
0.000130346
0.000129234
0.000129532
0.000130851
0.000130909
0.000130827
0.000130888
0.000129534
0.000129696
0.000130898
0.000131056
0.000130886
0.000131059
0.000130975
0.000130987
0.000130975
0.000130055
0.00013018
0.000130965
0.000131162
0.000130959
0.000130369
0.000129489
0.000129382
0.000130855
0.000130917
0.000130852
0.000130909
0.000129758
0.000129856
0.000130913
0.00013109
0.000130897
0.000131081
0.000131008
0.000131013
0.000131013
0.000129796
0.000129962
0.000130987
0.000131178
0.000130979
0.000130379
0.000129297
0.000128963
0.000130885
0.000130944
0.000130873
0.000130926
0.000129908
0.000129382
0.000130927
0.000131114
0.000130911
0.000131094
0.000131051
0.000131038
0.000131049
0.000129886
0.000129216
0.000131014
0.000131184
0.000131006
0.000129934
0.000128912
0.00012913
0.000130908
0.000130961
0.00013089
0.00013095
0.000129482
0.000129634
0.000130945
0.000131124
0.000130929
0.000131107
0.000131081
0.000131059
0.000131056
0.000129186
0.000129192
0.000131038
0.000131186
0.000131012
0.000129719
0.000129175
0.000129622
0.00013093
0.000130994
0.000130926
0.00013099
0.000129581
0.000129661
0.000130968
0.000131145
0.000130958
0.000131119
0.000131089
0.000131076
0.000131063
0.000129086
0.000129515
0.000131044
0.000131195
0.000131008
0.000129747
0.000129349
0.000129276
0.000130919
0.000130985
0.000131862
0.00013193
0.000129425
0.000129212
0.00013095
0.000131108
0.000131898
0.000132029
0.000131054
0.000131899
0.000131975
0.000129271
0.000129301
0.000130997
0.000132019
0.000131926
0.000129542
0.000129145
0.000129187
0.00012926
0.000129263
0.000129225
0.000129372
0.000116848
0.00011698
0.000116573
0.000129281
0.000129378
0.000129234
8.96647e-05
4.97981e-05
8.95422e-05
2.35143e-05
2.35173e-05
8.9749e-05
4.97975e-05
0.000113311
0.000113321
0.000114116
0.000113732
0.000113777
0.000113746
0.000113728
9.03367e-05
0.000121513
0.000126822
9.0486e-05
0.000121435
0.000113382
2.3514e-05
0.000113841
0.000121648
0.000126897
0.000121557
9.05296e-05
0.000113535
7.2301e-05
7.23167e-05
0.000126299
7.23497e-05
7.23706e-05
8.98915e-05
4.98054e-05
8.97747e-05
4.98165e-05
2.35197e-05
2.35227e-05
8.99745e-05
4.98107e-05
8.98812e-05
4.98156e-05
0.000113812
0.000113847
0.000113814
0.00011465
0.000114359
0.000114357
0.000114348
0.000114455
9.07081e-05
0.000122691
0.000127888
0.000114151
9.08634e-05
0.000122607
2.35169e-05
2.35203e-05
0.000114517
0.000122798
9.07351e-05
0.000127949
0.000114194
0.00012271
9.08413e-05
7.24344e-05
7.24446e-05
0.000127147
7.24867e-05
7.25021e-05
9.01279e-05
4.9823e-05
9.00017e-05
4.9833e-05
2.3525e-05
2.35277e-05
9.02127e-05
4.9827e-05
9.00926e-05
4.98314e-05
0.000114257
0.000114284
0.00011424
0.000115025
0.000114602
0.000114631
0.0001146
0.000115267
9.10419e-05
0.000123673
0.000128741
0.000114849
9.11847e-05
0.000123577
2.35227e-05
2.35256e-05
0.000115353
0.000123779
9.1008e-05
0.000128792
0.00011496
0.000123693
9.11731e-05
7.25518e-05
7.25712e-05
0.000127868
7.25951e-05
7.26153e-05
9.03354e-05
4.98374e-05
9.02217e-05
4.98451e-05
2.3529e-05
2.35316e-05
9.04152e-05
4.98418e-05
9.03189e-05
4.98429e-05
0.000114609
0.00011461
0.000114615
0.00011523
0.000114894
0.000114891
0.000114925
0.000115912
9.13515e-05
0.00012446
0.000129282
0.00011564
9.14433e-05
0.000124347
2.35268e-05
2.35288e-05
0.000116271
0.00012457
9.13523e-05
0.00012939
0.000115848
0.000124458
9.14422e-05
7.26665e-05
7.26562e-05
0.000128582
7.27137e-05
7.27124e-05
9.04704e-05
4.98537e-05
9.04398e-05
4.9857e-05
2.35324e-05
2.35342e-05
9.05813e-05
4.9849e-05
9.04733e-05
4.98577e-05
0.000114817
0.000114841
0.000114832
0.000115375
0.000115037
0.000115047
0.000115107
0.000116451
9.15032e-05
0.000124938
0.000129639
0.000116501
9.15438e-05
0.000124787
2.35297e-05
2.35316e-05
0.000116619
0.000124985
9.15575e-05
0.000129699
0.000116378
0.000124847
9.15929e-05
7.27558e-05
7.27364e-05
0.000128906
7.27675e-05
7.2758e-05
9.05262e-05
4.9861e-05
9.04851e-05
4.98634e-05
2.3534e-05
2.35354e-05
9.05775e-05
4.98603e-05
9.05722e-05
4.98617e-05
0.000114994
0.000114999
0.000115039
0.000115501
0.000115187
0.000115185
0.00011526
0.000116785
9.15819e-05
0.000125135
0.000129867
0.000116704
9.15554e-05
0.000125064
2.35318e-05
2.35334e-05
0.00011687
0.000125176
9.16405e-05
0.000129941
0.000116626
0.000125104
9.1617e-05
7.27575e-05
7.27721e-05
0.000129253
7.27841e-05
7.27882e-05
9.06255e-05
4.98643e-05
9.06141e-05
4.98651e-05
2.35349e-05
2.35359e-05
9.06499e-05
4.98623e-05
9.06094e-05
4.98632e-05
0.000115115
0.000115101
0.000115296
0.000115555
0.000115294
0.000115251
0.000115437
0.000116788
9.15875e-05
0.000125231
0.000129989
0.000116908
9.16244e-05
0.000125208
2.35322e-05
2.35331e-05
0.00011674
0.000125302
9.16827e-05
0.000130084
0.000116865
0.000125264
9.16356e-05
7.27912e-05
7.27931e-05
0.00012901
7.27859e-05
7.27916e-05
9.05754e-05
4.98644e-05
9.05642e-05
4.98652e-05
2.3535e-05
2.35361e-05
9.06581e-05
4.98634e-05
9.06414e-05
4.98641e-05
0.000115183
0.000115219
0.000115361
0.000115594
0.000115343
0.000115288
0.000115606
0.000116783
9.16225e-05
0.000125325
0.000130015
0.00011679
9.1668e-05
0.000125266
2.35321e-05
2.35333e-05
0.000116739
0.000125365
9.15837e-05
0.000130125
0.000116728
0.000125316
9.16028e-05
7.27838e-05
7.27587e-05
0.000128813
7.27948e-05
7.27694e-05
9.05949e-05
4.98645e-05
9.05766e-05
4.98647e-05
2.35353e-05
2.35368e-05
9.06426e-05
4.98645e-05
9.06296e-05
4.98654e-05
0.000115338
0.00011533
0.000115562
0.000115677
0.000115472
0.000115431
0.000115725
0.000116948
9.16185e-05
0.000125374
0.000130052
0.000116909
9.16194e-05
0.000125385
2.35327e-05
2.35343e-05
0.000116677
0.000125421
9.16547e-05
0.000130162
0.000117004
0.000125421
9.16859e-05
7.28092e-05
7.27812e-05
0.000129427
7.28162e-05
7.27737e-05
9.05834e-05
4.98647e-05
9.05693e-05
4.98662e-05
2.35369e-05
2.35386e-05
9.06313e-05
4.98656e-05
9.06177e-05
4.98652e-05
0.000115506
0.000115473
0.00011576
0.000115885
0.000115631
0.00011563
0.000115913
0.000116785
9.15463e-05
0.000125558
0.000130157
0.000116777
9.15693e-05
0.000125557
2.3534e-05
2.35355e-05
0.00011671
0.000125595
9.16825e-05
0.00013027
0.000116843
0.000125602
9.16786e-05
7.28265e-05
7.27859e-05
0.000129778
7.28263e-05
7.28048e-05
9.05214e-05
4.98674e-05
9.05556e-05
4.9868e-05
2.3538e-05
2.35395e-05
9.058e-05
4.98639e-05
9.05957e-05
4.98639e-05
0.000115651
0.000115608
0.000115832
0.000115991
0.00011581
0.000115758
0.000116008
0.000116881
9.15442e-05
0.000125724
0.000130302
0.000116868
9.15541e-05
0.000125716
2.35353e-05
2.35371e-05
0.000116777
0.000125775
9.15963e-05
0.000130414
0.000116779
0.000125803
9.16292e-05
7.28316e-05
7.2798e-05
0.000129682
7.28376e-05
7.28131e-05
9.05634e-05
4.98672e-05
9.05158e-05
4.98676e-05
2.35391e-05
2.35404e-05
9.06087e-05
4.98645e-05
9.06089e-05
4.98652e-05
0.000115731
0.000115779
0.000115981
0.000116032
0.000115873
0.000115847
0.000116053
0.00011683
9.16265e-05
0.000125869
0.00013043
0.000116868
9.16717e-05
0.000125843
2.35368e-05
2.35383e-05
0.000116873
0.00012588
9.16425e-05
0.000130483
0.000116885
0.000125875
9.1641e-05
7.28109e-05
7.28126e-05
0.00012991
7.28274e-05
7.28274e-05
9.05455e-05
4.98663e-05
9.05504e-05
4.98667e-05
2.35395e-05
2.35405e-05
9.05929e-05
4.98651e-05
9.05753e-05
4.98657e-05
0.000115867
0.000115798
0.000116055
0.00011603
0.00011595
0.000115885
0.000116118
0.000116989
9.16426e-05
0.000125927
0.000130519
0.000116916
9.16507e-05
0.00012587
2.35372e-05
2.35382e-05
0.000117034
0.000125968
9.16732e-05
0.000130579
0.000117028
0.000125929
9.17492e-05
7.27978e-05
7.28112e-05
0.000130063
7.27917e-05
7.28233e-05
9.05635e-05
4.98661e-05
9.05039e-05
4.98669e-05
2.35391e-05
2.35403e-05
9.05699e-05
4.9866e-05
9.05665e-05
4.98665e-05
0.000115948
0.000115873
0.000116131
0.000116129
0.000116049
0.000115935
0.000116174
0.000116919
9.16804e-05
0.000125979
0.000130615
0.000116987
9.17038e-05
0.000125987
2.35371e-05
2.3538e-05
0.000116869
0.000125983
9.17321e-05
0.000130602
0.000116809
0.000125977
9.17825e-05
7.27964e-05
7.28204e-05
0.000130232
7.2821e-05
7.27804e-05
9.05709e-05
4.98669e-05
9.05702e-05
4.98671e-05
2.35393e-05
2.35406e-05
9.05423e-05
4.98655e-05
9.05435e-05
4.98655e-05
0.000115974
0.000115972
0.000116184
0.000116123
0.000116066
0.000116012
0.000116243
0.000116903
9.16901e-05
0.000126097
0.000130726
0.000116917
9.1712e-05
0.000126099
2.35371e-05
2.35383e-05
0.000116883
0.000126057
9.17502e-05
0.000130689
0.000116838
0.000126018
9.17736e-05
7.28151e-05
7.27752e-05
0.000130198
7.28066e-05
7.27943e-05
9.05222e-05
4.98669e-05
9.05185e-05
4.98681e-05
2.354e-05
2.35411e-05
9.05909e-05
4.98643e-05
9.05642e-05
4.98645e-05
0.000116057
0.000115961
0.000116236
0.000116153
0.000116127
0.000116083
0.000116292
0.000116858
9.1708e-05
0.000126177
0.000130791
0.000116736
9.17361e-05
0.000126138
2.35371e-05
2.35381e-05
0.00011694
0.00012607
9.1759e-05
0.000130713
0.000116775
0.000126014
9.17779e-05
7.28135e-05
7.28002e-05
0.000130344
7.28056e-05
7.28147e-05
9.05275e-05
4.98686e-05
9.05319e-05
4.98693e-05
2.35405e-05
2.35418e-05
9.05595e-05
4.98639e-05
9.05599e-05
4.98651e-05
0.000116143
0.000116001
0.000116248
0.000116181
0.00011619
0.00011611
0.000116345
0.000116879
9.17086e-05
0.00012631
0.000130886
0.000116961
9.17458e-05
0.000126251
2.3537e-05
2.35382e-05
0.000116945
0.000126013
9.17294e-05
0.00013073
0.000117059
0.000125978
9.17611e-05
7.28191e-05
7.28155e-05
0.000130305
7.283e-05
7.28243e-05
9.05221e-05
4.98678e-05
9.05328e-05
4.98682e-05
2.3541e-05
2.35421e-05
9.05696e-05
4.98648e-05
9.05089e-05
4.98648e-05
0.00011618
0.000116052
0.000116296
0.000116253
0.000116233
0.000116159
0.000116364
0.000116831
9.17126e-05
0.000126354
0.000130956
0.000117018
9.17192e-05
0.000126305
2.35376e-05
2.35388e-05
0.000116867
0.000125983
9.17171e-05
0.000130739
0.000116859
0.000125952
9.17757e-05
7.28267e-05
7.27886e-05
0.000130302
7.28352e-05
7.27999e-05
9.05482e-05
4.98675e-05
9.05469e-05
4.98678e-05
2.35408e-05
2.35418e-05
9.05474e-05
4.98642e-05
9.05339e-05
4.98651e-05
0.000116229
0.0001161
0.000116319
0.000116212
0.000116261
0.000116173
0.000116385
0.000116791
9.16805e-05
0.00012634
0.000130971
0.000116791
9.17341e-05
0.000126357
2.35376e-05
2.35389e-05
0.000116944
0.000125993
9.17269e-05
0.000130809
0.000116912
0.000125956
9.17244e-05
7.28308e-05
7.27908e-05
0.000130343
7.28426e-05
7.28033e-05
9.0542e-05
4.98664e-05
9.05377e-05
4.98667e-05
2.35408e-05
2.35417e-05
9.05023e-05
4.98645e-05
9.04897e-05
4.98648e-05
0.000116252
0.00011621
0.000116368
0.000116208
0.000116314
0.000116238
0.000116456
0.000116852
9.17282e-05
0.000126339
0.000130986
0.00011698
9.17577e-05
0.000126321
2.35377e-05
2.35386e-05
0.000116916
0.000125977
9.17534e-05
0.000130836
0.00011686
0.000125962
9.17631e-05
7.28382e-05
7.28022e-05
0.000130509
7.28179e-05
7.2811e-05
9.05722e-05
4.98671e-05
9.05147e-05
4.98681e-05
2.35407e-05
2.35418e-05
9.04931e-05
4.98647e-05
9.04544e-05
4.98654e-05
0.000116299
0.000116223
0.000116317
0.0001162
0.000116341
0.00011628
0.000116396
0.000116961
9.16898e-05
0.000126316
0.000131007
0.000116888
9.17085e-05
0.000126306
2.35377e-05
2.35387e-05
0.000116874
0.000125967
9.16989e-05
0.000130862
0.000116875
0.00012594
9.17485e-05
7.2834e-05
7.28085e-05
0.000130437
7.28438e-05
7.28416e-05
9.05823e-05
4.9868e-05
9.052e-05
4.98691e-05
2.35411e-05
2.35421e-05
9.05917e-05
4.98665e-05
9.05284e-05
4.98675e-05
0.000116322
0.000116259
0.00011641
0.000116175
0.00011636
0.000116309
0.000116419
0.000116808
9.17483e-05
0.000126305
0.000131003
0.000116826
9.16912e-05
0.000126333
2.35378e-05
2.35389e-05
0.000116817
0.000125953
9.17667e-05
0.000130843
0.000116823
0.000125915
9.1758e-05
7.28098e-05
7.28279e-05
0.000130564
7.28234e-05
7.28408e-05
9.05372e-05
4.98702e-05
9.05308e-05
4.98715e-05
2.35413e-05
2.35426e-05
9.05898e-05
4.98668e-05
9.05843e-05
4.98674e-05
0.000116336
0.00011627
0.000116382
0.000116148
0.000116343
0.000116338
0.000116435
0.00011702
9.17162e-05
0.000126369
0.000130999
0.000117067
9.1744e-05
0.000126321
2.35378e-05
2.35388e-05
0.000116701
0.000125929
9.17553e-05
0.000130826
0.000116776
0.0001259
9.17397e-05
7.28416e-05
7.28468e-05
0.000130413
7.28486e-05
7.28536e-05
9.05509e-05
4.98711e-05
9.05059e-05
4.98707e-05
2.35415e-05
2.35425e-05
9.05549e-05
4.98663e-05
9.05473e-05
4.9867e-05
0.000116319
0.000116264
0.00011641
0.000116149
0.000116343
0.000116321
0.000116446
0.000117073
9.17482e-05
0.000126322
0.000130979
0.000116992
9.17496e-05
0.000126294
2.35374e-05
2.35385e-05
0.000116788
0.000125921
9.17554e-05
0.000130829
0.000116714
0.000125895
9.17572e-05
7.28447e-05
7.284e-05
0.000130487
7.28466e-05
7.28407e-05
9.05352e-05
4.98695e-05
9.0492e-05
4.98696e-05
2.35417e-05
2.35427e-05
9.05615e-05
4.98653e-05
9.05542e-05
4.98656e-05
0.000116326
0.000116261
0.000116392
0.000116126
0.00011634
0.000116317
0.000116428
0.000117029
9.17195e-05
0.000126285
0.000130999
0.000116859
9.17495e-05
0.000126257
2.35378e-05
2.3539e-05
0.000116825
0.000125897
9.17571e-05
0.000130832
0.000116775
0.000125896
9.17821e-05
7.28497e-05
7.2848e-05
0.000130436
7.28576e-05
7.28555e-05
9.05556e-05
4.98687e-05
9.04949e-05
4.98694e-05
2.35414e-05
2.35426e-05
9.05859e-05
4.98654e-05
9.0579e-05
4.98664e-05
0.000116296
0.000116235
0.000116368
0.000116139
0.000116304
0.000116307
0.000116415
0.000116987
9.17165e-05
0.000126268
0.000130982
0.000116995
9.1712e-05
0.000126247
2.35382e-05
2.35394e-05
0.000116708
0.000125901
9.17578e-05
0.000130864
0.000116675
0.000125884
9.17995e-05
7.28598e-05
7.28456e-05
0.00013055
7.28711e-05
7.28437e-05
9.05518e-05
4.987e-05
9.05448e-05
4.98709e-05
2.35415e-05
2.35424e-05
9.05267e-05
4.98668e-05
9.05535e-05
4.98675e-05
0.000116305
0.00011627
0.000116333
0.000116098
0.00011633
0.000116321
0.00011639
0.000117019
9.17148e-05
0.000126269
0.000130956
0.000116926
9.17401e-05
0.000126247
2.35382e-05
2.35394e-05
0.00011683
0.000125913
9.16727e-05
0.000130913
0.000116805
0.000125905
9.17104e-05
7.28709e-05
7.28371e-05
0.00013025
7.28802e-05
7.28471e-05
9.05279e-05
4.98706e-05
9.05384e-05
4.9872e-05
2.35414e-05
2.35424e-05
9.06172e-05
4.9868e-05
9.05233e-05
4.98686e-05
0.000116257
0.000116287
0.000116345
0.000116086
0.000116292
0.000116358
0.000116367
0.000117108
9.17325e-05
0.000126258
0.00013096
0.000117097
9.17808e-05
0.000126247
2.35384e-05
2.35397e-05
0.000116898
0.000125967
9.17429e-05
0.00013094
0.000116902
0.000125996
9.17267e-05
7.28933e-05
7.28679e-05
0.000129953
7.29026e-05
7.288e-05
9.05446e-05
4.98717e-05
9.05406e-05
4.9872e-05
2.35411e-05
2.35424e-05
9.06859e-05
4.98675e-05
9.06686e-05
4.98675e-05
0.000116219
0.000116294
0.000116336
0.000116082
0.00011628
0.000116341
0.000116366
0.000116997
9.17803e-05
0.000126252
0.000130963
0.000117021
9.18115e-05
0.00012623
2.35389e-05
2.35401e-05
0.000116899
0.000126095
9.17289e-05
0.000130933
0.000116824
0.000126071
9.17298e-05
7.28899e-05
7.28647e-05
0.000129624
7.28835e-05
7.28601e-05
9.05742e-05
4.98715e-05
9.05051e-05
4.98716e-05
2.35415e-05
2.35426e-05
9.06229e-05
4.98663e-05
9.0674e-05