/*--------------------------------*- C++ -*----------------------------------*\
| =========                 |                                                 |
| \\      /  F ield         | OpenFOAM: The Open Source CFD Toolbox           |
|  \\    /   O peration     | Version:  v2012                                 |
|   \\  /    A nd           | Website:  www.openfoam.com                      |
|    \\/     M anipulation  |                                                 |
\*---------------------------------------------------------------------------*/
FoamFile
{
    version     2.0;
    format      ascii;
    class       volScalarField;
    location    "200";
    object      p;
}
// * * * * * * * * * * * * * * * * * * * * * * * * * * * * * * * * * * * * * //

dimensions      [0 2 -2 0 0 0 0];


internalField   nonuniform List<scalar> 
85864
(
0.00164751
0.00164748
0.00164905
0.00164748
0.00164748
0.00164748
0.00164905
0.00164956
0.00164955
0.00164954
0.00164751
0.00164956
0.0016495
0.00164957
0.00164956
0.00164956
0.00164956
0.00164951
0.00164951
0.0016475
0.00164945
0.00164955
0.00164954
0.0016475
0.0016495
0.00164945
0.00164956
0.00164956
0.00164956
0.00164955
0.00164529
0.00164957
0.00164957
0.00164528
0.00164529
0.00164956
0.00164528
0.00164956
0.00164527
0.00164529
0.00164955
0.00164956
0.00164529
0.00164528
0.00164956
0.00164528
0.00164529
0.00164528
0.00164532
0.00164951
0.00164529
0.00164956
0.0016453
0.00164536
0.00164954
0.00164532
0.00164951
0.00164529
0.00164956
0.00164529
0.00164536
0.00164954
0.00164528
0.00164957
0.00164957
0.00164528
0.00164528
0.00164958
0.00164527
0.00164528
0.00164956
0.00164527
0.00164956
0.00164527
0.00164529
0.00164956
0.00164955
0.00164528
0.00164529
0.00164956
0.00164532
0.0016495
0.00164529
0.00164955
0.00164529
0.00164536
0.00164953
0.00164532
0.0016495
0.00164529
0.00164955
0.00164536
0.00164529
0.00164953
0.00164527
0.00164957
0.00164957
0.00164527
0.00164527
0.00164957
0.00164528
0.00164529
0.00164751
0.00164546
0.00164928
0.00164928
0.00164589
0.00164563
0.00164563
0.00164942
0.00164546
0.00164927
0.00164928
0.00164589
0.00164563
0.00164563
0.00164942
0.0016475
0.0016456
0.00164936
0.00164534
0.00164947
0.00164549
0.00164538
0.00164929
0.00164561
0.00164937
0.00164535
0.00164948
0.00164539
0.0016455
0.00164929
0.0016456
0.00164937
0.00164535
0.00164948
0.00164538
0.00164549
0.00164929
0.00164563
0.00164541
0.00164946
0.00164926
0.0016454
0.00164563
0.00164925
0.0016456
0.00164936
0.00164534
0.00164947
0.00164538
0.00164549
0.00164929
0.00164563
0.00164541
0.00164926
0.00164946
0.00164563
0.0016454
0.00164925
0.00164749
0.00164905
0.00161234
0.00161232
0.00161231
0.00161388
0.00157722
0.0015772
0.00157721
0.00157877
0.00154214
0.00154212
0.00154212
0.00154369
0.00150706
0.00150704
0.00150704
0.00150861
0.00147197
0.00147195
0.00147195
0.00147352
0.00143687
0.00143685
0.00143685
0.00143843
0.00140178
0.00140176
0.00140176
0.00140333
0.0013667
0.00136667
0.00136667
0.00136825
0.00133162
0.00133159
0.0013316
0.00133317
0.00129654
0.00129652
0.00129652
0.00129809
0.00126145
0.00126143
0.00126143
0.001263
0.00122635
0.00122634
0.00122634
0.00122791
0.00119125
0.00119124
0.00119124
0.00119281
0.00115615
0.00115613
0.00115614
0.00115771
0.00112105
0.00112104
0.00112103
0.00112261
0.00108594
0.00108593
0.00108593
0.0010875
0.00105083
0.00105081
0.00105081
0.00105238
0.0010157
0.00101568
0.00101568
0.00101725
0.000980568
0.000980546
0.000980548
0.000982123
0.000945433
0.000945412
0.000945415
0.000946989
0.00091029
0.000910271
0.000910269
0.000911847
0.000875145
0.000875129
0.000875123
0.0008767
0.000840002
0.000839983
0.000839978
0.000841553
0.000804861
0.000804841
0.000804837
0.000806411
0.000769721
0.000769701
0.0007697
0.000771275
0.000734587
0.000734565
0.00073457
0.000736139
0.000699455
0.000699433
0.000699435
0.000701016
0.000664322
0.000664306
0.000664306
0.000665882
0.000629193
0.000629178
0.000629176
0.000630751
0.000594064
0.000594046
0.000594047
0.000595622
0.000558938
0.000558917
0.000558918
0.000560488
0.000523814
0.000523794
0.000523792
0.000525366
0.000488688
0.00048867
0.00048867
0.000490242
0.000453561
0.000453539
0.000453543
0.000455115
0.000418433
0.000418414
0.000418413
0.000419987
0.000383304
0.000383285
0.000383286
0.000384858
0.000348175
0.000348155
0.000348157
0.000349724
0.000313046
0.000313023
0.000313026
0.000314595
0.000277916
0.000277897
0.000277898
0.000279465
0.000242777
0.000242762
0.000242765
0.000244329
0.000207642
0.000207623
0.000207632
0.000209192
0.000172507
0.000172499
0.000172496
0.000174052
0.000137371
0.000137365
0.000137361
0.000138904
0.000102225
0.000102224
0.000102222
0.000103738
6.70897e-05
6.70807e-05
6.70782e-05
6.85281e-05
3.26444e-05
3.21708e-05
3.21642e-05
3.32901e-05
6.62344e-06
7.26155e-06
7.25835e-06
5.66164e-06
0.00161951
0.00164749
0.0016211
0.0016211
0.00164905
0.00161952
0.0016211
0.0016211
0.00164748
0.0016211
0.0016211
0.00161951
0.00164748
0.0016211
0.0016211
0.00161951
0.00161388
0.00158439
0.00161231
0.00161232
0.00158598
0.00158598
0.00161388
0.0015844
0.00161231
0.00161232
0.00158598
0.00158598
0.00161231
0.00158598
0.00158598
0.00161388
0.0015844
0.00161231
0.00158598
0.00158598
0.0015844
0.00157877
0.00154932
0.00157721
0.0015772
0.00155089
0.00155089
0.00157877
0.00154932
0.00157721
0.00157721
0.00155089
0.00155089
0.0015772
0.00155089
0.00155089
0.00157877
0.00154931
0.00157721
0.00155089
0.00155089
0.00154932
0.00154369
0.00151424
0.00154212
0.00154212
0.00151581
0.00151581
0.00154369
0.00151424
0.00154212
0.00154212
0.00151581
0.00151581
0.00154213
0.00151581
0.00151581
0.00154369
0.00151423
0.00154212
0.00151581
0.00151581
0.00151424
0.00150861
0.00147915
0.00150704
0.00150704
0.00148073
0.00148072
0.00150861
0.00147915
0.00150704
0.00150704
0.00148073
0.00148072
0.00150704
0.00148072
0.00148072
0.0015086
0.00147915
0.00150704
0.00148072
0.00148072
0.00147915
0.00147352
0.00144405
0.00147195
0.00147194
0.00144563
0.00144562
0.00147351
0.00144405
0.00147195
0.00147195
0.00144562
0.00144562
0.00147195
0.00144563
0.00144562
0.00147352
0.00144406
0.00147195
0.00144563
0.00144562
0.00144406
0.00143842
0.00140896
0.00143685
0.00143685
0.00141053
0.00141053
0.00143842
0.00140896
0.00143685
0.00143685
0.00141053
0.00141053
0.00143685
0.00141053
0.00141053
0.00143842
0.00140896
0.00143685
0.00141053
0.00141053
0.00140896
0.00140333
0.00137387
0.00140175
0.00140175
0.00137544
0.00137544
0.00140332
0.00137387
0.00140176
0.00140176
0.00137544
0.00137544
0.00140176
0.00137544
0.00137545
0.00140332
0.00137388
0.00140175
0.00137544
0.00137545
0.00137387
0.00136824
0.0013388
0.00136668
0.00136667
0.00134037
0.00134037
0.00136824
0.00133879
0.00136668
0.00136667
0.00134037
0.00134036
0.00136668
0.00134036
0.00134037
0.00136825
0.00133879
0.00136668
0.00134036
0.00134037
0.0013388
0.00133317
0.00130371
0.0013316
0.0013316
0.00130529
0.00130529
0.00133316
0.00130372
0.0013316
0.0013316
0.00130529
0.00130529
0.0013316
0.00130529
0.00130529
0.00133316
0.00130372
0.0013316
0.00130529
0.00130529
0.00130372
0.00129808
0.00126863
0.00129652
0.00129652
0.0012702
0.00127021
0.00129809
0.00126863
0.00129652
0.00129652
0.0012702
0.00127021
0.00129652
0.00127021
0.00127021
0.00129809
0.00126863
0.00129652
0.0012702
0.0012702
0.00126863
0.001263
0.00123353
0.00126143
0.00126143
0.00123511
0.00123511
0.001263
0.00123354
0.00126143
0.00126143
0.00123511
0.00123511
0.00126143
0.00123511
0.00123511
0.001263
0.00123354
0.00126143
0.00123511
0.00123511
0.00123354
0.0012279
0.00119844
0.00122633
0.00122633
0.00120001
0.00120001
0.0012279
0.00119844
0.00122633
0.00122634
0.00120001
0.00120001
0.00122634
0.00120001
0.00120001
0.00122791
0.00119844
0.00122634
0.00120001
0.00120001
0.00119844
0.00119281
0.00116334
0.00119124
0.00119124
0.00116491
0.00116491
0.00119281
0.00116334
0.00119124
0.00119124
0.00116491
0.00116491
0.00119124
0.00116491
0.00116491
0.00119281
0.00116334
0.00119124
0.00116491
0.00116491
0.00116334
0.00115771
0.00112824
0.00115613
0.00115614
0.00112981
0.00112981
0.00115771
0.00112824
0.00115613
0.00115613
0.00112981
0.00112981
0.00115613
0.00112981
0.00112981
0.0011577
0.00112824
0.00115613
0.00112981
0.00112981
0.00112824
0.00112261
0.00109313
0.00112103
0.00112104
0.0010947
0.00109471
0.00112261
0.00109313
0.00112103
0.00112103
0.0010947
0.0010947
0.00112104
0.00109471
0.00109471
0.0011226
0.00109313
0.00112104
0.0010947
0.00109471
0.00109313
0.00108749
0.00105802
0.00108592
0.00108593
0.00105959
0.00105959
0.0010875
0.00105802
0.00108592
0.00108592
0.00105959
0.00105959
0.00108593
0.00105959
0.00105959
0.0010875
0.00105801
0.00108593
0.00105959
0.00105959
0.00105802
0.00105238
0.00102289
0.00105081
0.00105081
0.00102446
0.00102446
0.00105238
0.00102289
0.00105081
0.00105081
0.00102446
0.00102446
0.0010508
0.00102446
0.00102446
0.00105238
0.00102289
0.0010508
0.00102446
0.00102446
0.00102289
0.00101726
0.000987758
0.00101568
0.00101568
0.000989332
0.000989332
0.00101725
0.000987758
0.00101568
0.00101568
0.000989332
0.000989334
0.00101568
0.000989331
0.000989333
0.00101725
0.00098776
0.00101568
0.000989332
0.000989333
0.000987761
0.000982121
0.000952625
0.000980549
0.000980547
0.000954198
0.000954196
0.000982119
0.000952622
0.000980549
0.000980551
0.000954198
0.000954202
0.000980549
0.000954194
0.000954201
0.000982122
0.000952628
0.00098055
0.000954199
0.000954199
0.000952628
0.000946988
0.000917484
0.000945414
0.000945412
0.000919059
0.000919058
0.000946984
0.000917487
0.000945415
0.000945419
0.000919059
0.000919059
0.000945413
0.000919058
0.000919059
0.000946991
0.000917482
0.000945414
0.000919057
0.000919059
0.000917486
0.000911843
0.00088234
0.000910271
0.000910271
0.000883911
0.000883913
0.000911847
0.00088234
0.000910271
0.000910272
0.000883913
0.00088391
0.000910272
0.000883916
0.000883913
0.000911842
0.000882335
0.000910271
0.000883909
0.000883911
0.000882339
0.000876701
0.000847192
0.000875124
0.000875127
0.000848766
0.000848769
0.0008767
0.000847195
0.000875125
0.000875123
0.000848766
0.000848762
0.000875126
0.00084877
0.000848768
0.000876696
0.000847187
0.000875123
0.000848762
0.000848766
0.000847193
0.000841555
0.00081205
0.000839982
0.000839983
0.000813626
0.000813626
0.000841556
0.000812051
0.00083998
0.000839975
0.000813622
0.000813621
0.000839981
0.000813625
0.000813623
0.000841547
0.000812049
0.000839978
0.000813622
0.000813622
0.000812051
0.00080641
0.000776912
0.000804839
0.00080484
0.000778487
0.000778485
0.000806413
0.000776911
0.000804839
0.000804838
0.000778486
0.000778486
0.000804837
0.000778485
0.000778484
0.000806412
0.000776913
0.000804837
0.000778486
0.000778484
0.000776912
0.000771274
0.000741775
0.000769702
0.000769699
0.000743349
0.000743345
0.000771271
0.000741774
0.000769702
0.000769702
0.000743349
0.00074335
0.000769699
0.00074335
0.000743348
0.000771275
0.000741777
0.0007697
0.000743354
0.000743351
0.000741779
0.000736138
0.000706643
0.000734564
0.000734565
0.000708217
0.000708216
0.000736135
0.000706643
0.000734566
0.000734568
0.000708218
0.00070822
0.000734563
0.000708218
0.000708224
0.000736141
0.000706651
0.000734569
0.00070822
0.000708223
0.000706653
0.000701007
0.00067151
0.000699433
0.000699435
0.000673084
0.000673088
0.000701006
0.000671516
0.000699435
0.000699434
0.000673085
0.000673087
0.000699441
0.000673089
0.000673091
0.000701011
0.000671515
0.000699439
0.000673088
0.000673088
0.000671521
0.000665872
0.000636382
0.0006643
0.000664304
0.000637956
0.00063796
0.000665878
0.000636387
0.0006643
0.000664303
0.000637954
0.000637954
0.000664306
0.000637958
0.000637954
0.000665879
0.000636383
0.000664303
0.000637957
0.00063796
0.000636385
0.000630747
0.000601256
0.000629174
0.000629179
0.000602828
0.000602828
0.000630751
0.000601261
0.000629174
0.000629175
0.000602829
0.000602829
0.000629177
0.000602829
0.000602832
0.000630746
0.000601255
0.000629179
0.000602829
0.00060283
0.00060126
0.000595617
0.000566126
0.000594046
0.000594043
0.000567697
0.0005677
0.00059562
0.000566126
0.000594046
0.000594046
0.0005677
0.0005677
0.000594047
0.0005677
0.000567699
0.000595619
0.000566126
0.000594046
0.000567697
0.000567698
0.000566126
0.000560486
0.000531004
0.000558913
0.00055892
0.000532575
0.000532575
0.000560489
0.000531003
0.000558918
0.00055892
0.000532578
0.000532576
0.000558917
0.000532574
0.000532571
0.000560492
0.000531003
0.000558917
0.000532575
0.000532573
0.000531002
0.000525366
0.000495878
0.000523795
0.000523794
0.000497453
0.000497452
0.000525366
0.000495876
0.000523796
0.000523796
0.000497452
0.00049745
0.000523792
0.00049745
0.000497451
0.000525367
0.000495878
0.000523792
0.000497451
0.000497448
0.000495878
0.000490241
0.000460755
0.00048867
0.000488671
0.000462324
0.000462321
0.00049024
0.000460749
0.000488668
0.000488672
0.000462327
0.000462327
0.00048867
0.000462321
0.000462323
0.000490243
0.000460753
0.000488668
0.000462326
0.000462324
0.000460751
0.000455118
0.000425616
0.000453541
0.00045354
0.000427191
0.000427195
0.000455112
0.000425621
0.000453543
0.000453545
0.000427194
0.000427194
0.00045354
0.000427192
0.000427194
0.000455116
0.000425622
0.000453542
0.000427193
0.000427194
0.000425625
0.000419981
0.000390493
0.000418412
0.000418414
0.000392067
0.000392064
0.000419984
0.000390491
0.000418413
0.000418413
0.000392068
0.000392067
0.000418413
0.000392065
0.000392067
0.000419986
0.000390494
0.000418412
0.000392067
0.000392068
0.000390498
0.000384855
0.000355363
0.000383285
0.000383282
0.000356938
0.000356934
0.000384854
0.000355361
0.000383285
0.000383287
0.000356936
0.000356938
0.000383286
0.000356936
0.00035693
0.000384857
0.000355364
0.000383286
0.000356935
0.00035693
0.000355363
0.000349726
0.000320236
0.000348157
0.000348153
0.000321805
0.000321803
0.000349724
0.000320238
0.000348157
0.000348158
0.00032181
0.000321807
0.000348148
0.000321803
0.000321805
0.000349726
0.000320234
0.000348151
0.000321807
0.000321805
0.000320233
0.000314598
0.000285102
0.000313025
0.000313024
0.000286676
0.000286676
0.000314597
0.000285102
0.000313028
0.000313028
0.000286678
0.000286675
0.000313025
0.000286676
0.000286678
0.000314596
0.000285102
0.000313026
0.000286676
0.000286674
0.000285105
0.000279464
0.000249974
0.000277899
0.000277897
0.000251543
0.000251541
0.000279461
0.000249967
0.000277899
0.000277896
0.000251543
0.000251546
0.000277897
0.000251539
0.000251541
0.000279463
0.000249973
0.000277896
0.000251544
0.000251542
0.000249972
0.000244332
0.000214837
0.00024276
0.000242762
0.000216405
0.000216404
0.000244325
0.000214835
0.000242764
0.000242766
0.000216406
0.000216409
0.000242761
0.000216403
0.000216405
0.00024433
0.000214838
0.000242762
0.000216408
0.000216408
0.00021484
0.000209189
0.000179702
0.000207628
0.000207624
0.000181272
0.00018127
0.000209185
0.000179702
0.000207628
0.000207631
0.00018127
0.000181272
0.000207628
0.000181272
0.000181273
0.000209191
0.000179706
0.000207631
0.000181273
0.00018127
0.000179707
0.000174047
0.000144567
0.000172497
0.000172496
0.000146133
0.000146136
0.000174048
0.000144573
0.000172495
0.000172496
0.000146131
0.000146132
0.000172499
0.000146138
0.000146138
0.000174052
0.000144569
0.000172496
0.000146133
0.000146137
0.000144574
0.000138898
0.000109431
0.000137362
0.000137363
0.000110992
0.000110994
0.000138901
0.000109433
0.000137361
0.000137361
0.000110991
0.000110988
0.000137365
0.000110993
0.000110992
0.000138901
0.000109429
0.000137364
0.000110989
0.000110992
0.000109439
0.000103731
7.42855e-05
0.000102222
0.000102224
7.58413e-05
7.584e-05
0.000103732
7.42867e-05
0.000102221
0.000102221
7.58408e-05
7.58382e-05
0.000102222
7.58412e-05
7.58363e-05
0.000103729
7.42858e-05
0.000102222
7.58382e-05
7.58395e-05
7.42876e-05
6.85255e-05
3.92111e-05
6.70813e-05
6.70807e-05
4.07787e-05
4.07792e-05
6.85262e-05
3.92109e-05
6.70811e-05
6.70784e-05
4.07775e-05
4.07741e-05
6.7078e-05
4.07779e-05
4.07754e-05
6.85248e-05
3.92055e-05
6.70782e-05
4.07749e-05
4.07721e-05
3.92054e-05
3.32977e-05
8.24156e-06
3.21697e-05
3.21725e-05
1.03462e-05
1.03465e-05
3.32986e-05
8.24237e-06
3.21683e-05
3.21629e-05
1.03437e-05
1.03355e-05
3.21647e-05
1.03429e-05
1.03357e-05
3.32921e-05
8.23548e-06
3.21637e-05
1.03371e-05
1.03382e-05
8.23523e-06
5.66018e-06
7.25906e-06
7.26374e-06
5.66438e-06
7.25725e-06
7.25577e-06
6.62462e-06
6.61889e-06
6.61793e-06
7.25249e-06
5.65821e-06
7.25424e-06
0.0016365
0.00163649
0.00164955
0.00164956
0.00163649
0.0016365
0.00163649
0.00164751
0.00164751
0.00162112
0.00162113
0.00162113
0.00162112
0.00163662
0.00164951
0.0016475
0.00163869
0.00163655
0.0016387
0.00164946
0.00163648
0.00163662
0.0016475
0.00163868
0.0016387
0.00163655
0.00164945
0.00164956
0.00164956
0.0016371
0.00163649
0.00163649
0.00160136
0.00161439
0.00161438
0.00160135
0.00161439
0.00160135
0.00160137
0.00161438
0.00161438
0.00160135
0.00161234
0.00161234
0.00161234
0.001586
0.001586
0.001586
0.001586
0.00160148
0.00161433
0.00161233
0.00160353
0.00161429
0.00160141
0.00160355
0.00161439
0.00160134
0.00160147
0.00161233
0.00161434
0.00160353
0.00161429
0.00160355
0.00160141
0.00161439
0.00161439
0.00160195
0.00160135
0.00160135
0.00156627
0.00157928
0.00157927
0.00156626
0.00157929
0.00156626
0.00156627
0.00157928
0.00157927
0.00156626
0.00157722
0.00157722
0.00157722
0.00155091
0.00155091
0.00155091
0.00155091
0.00156638
0.00157923
0.00157722
0.00156843
0.00157919
0.00156632
0.00156845
0.00157929
0.00156626
0.00156638
0.00157722
0.00157923
0.00156843
0.00157918
0.00156845
0.00156632
0.00157929
0.00157928
0.00156686
0.00156626
0.00156626
0.00153121
0.00154421
0.0015442
0.0015312
0.00154422
0.0015312
0.00153121
0.00154421
0.0015442
0.0015312
0.00154214
0.00154214
0.00154214
0.00151583
0.00151583
0.00151583
0.00151583
0.00153131
0.00154416
0.00154214
0.00153335
0.0015441
0.00153125
0.00153337
0.00154422
0.0015312
0.00153132
0.00154214
0.00154417
0.00153335
0.00154411
0.00153336
0.00153126
0.00154422
0.00154422
0.00153178
0.0015312
0.0015312
0.00149614
0.00150915
0.00150914
0.00149613
0.00150916
0.00149613
0.00149614
0.00150915
0.00150914
0.00149613
0.00150706
0.00150705
0.00150705
0.00148074
0.00148074
0.00148074
0.00148074
0.00149624
0.0015091
0.00150705
0.00149826
0.00150905
0.00149619
0.00149827
0.00150915
0.00149612
0.00149624
0.00150705
0.00150909
0.00149827
0.00150905
0.00149827
0.00149618
0.00150915
0.00150915
0.00149669
0.00149613
0.00149612
0.00146106
0.00147407
0.00147406
0.00146104
0.00147408
0.00146104
0.00146106
0.00147407
0.00147406
0.00146105
0.00147196
0.00147197
0.00147196
0.00144564
0.00144564
0.00144564
0.00144564
0.00146116
0.00147402
0.00147195
0.00146318
0.00147397
0.00146109
0.00146318
0.00147408
0.00146105
0.00146116
0.00147196
0.00147402
0.00146318
0.00147396
0.00146318
0.0014611
0.00147407
0.00147407
0.0014616
0.00146105
0.00146104
0.00142597
0.00143898
0.00143897
0.00142596
0.00143899
0.00142595
0.00142596
0.00143898
0.00143897
0.00142596
0.00143687
0.00143687
0.00143687
0.00141055
0.00141055
0.00141055
0.00141055
0.00142606
0.00143893
0.00143686
0.00142807
0.00143887
0.001426
0.00142808
0.00143899
0.00142595
0.00142607
0.00143686
0.00143893
0.00142808
0.00143887
0.00142808
0.00142601
0.00143898
0.00143899
0.0014265
0.00142595
0.00142596
0.00139087
0.00140389
0.00140388
0.00139087
0.0014039
0.00139086
0.00139087
0.00140389
0.00140388
0.00139086
0.00140178
0.00140178
0.00140178
0.00137547
0.00137546
0.00137546
0.00137547
0.00139097
0.00140384
0.00140176
0.00139298
0.00140378
0.00139092
0.00139299
0.00140389
0.00139086
0.00139098
0.00140176
0.00140384
0.00139298
0.00140378
0.00139299
0.00139092
0.00140389
0.00140389
0.00139141
0.00139086
0.00139086
0.00135579
0.0013688
0.00136879
0.00135578
0.00136881
0.00135578
0.0013558
0.0013688
0.0013688
0.00135579
0.00136669
0.0013667
0.0013667
0.00134039
0.00134039
0.00134039
0.00134039
0.00135589
0.00136875
0.00136668
0.0013579
0.0013687
0.00135584
0.00135791
0.00136881
0.00135578
0.00135589
0.00136668
0.00136875
0.0013579
0.00136869
0.00135791
0.00135584
0.0013688
0.0013688
0.00135633
0.00135578
0.00135578
0.00132072
0.00133372
0.00133372
0.0013207
0.00133373
0.0013207
0.00132072
0.00133373
0.00133372
0.00132071
0.00133162
0.00133162
0.00133162
0.00130531
0.00130531
0.00130531
0.00130531
0.00132082
0.00133367
0.0013316
0.00132283
0.00133362
0.00132076
0.00132284
0.00133374
0.0013207
0.00132082
0.00133161
0.00133367
0.00132283
0.00133362
0.00132283
0.00132076
0.00133373
0.00133372
0.00132126
0.00132071
0.0013207
0.00128564
0.00129865
0.00129864
0.00128563
0.00129865
0.00128562
0.00128563
0.00129865
0.00129864
0.00128562
0.00129654
0.00129654
0.00129654
0.00127022
0.00127023
0.00127023
0.00127022
0.00128574
0.0012986
0.00129653
0.00128775
0.00129854
0.00128568
0.00128775
0.00129865
0.00128561
0.00128573
0.00129652
0.0012986
0.00128774
0.00129854
0.00128775
0.00128568
0.00129865
0.00129865
0.00128617
0.00128562
0.00128562
0.00125054
0.00126356
0.00126355
0.00125054
0.00126357
0.00125053
0.00125055
0.00126356
0.00126355
0.00125053
0.00126145
0.00126145
0.00126145
0.00123513
0.00123513
0.00123513
0.00123513
0.00125065
0.0012635
0.00126144
0.00125266
0.00126345
0.00125059
0.00125266
0.00126356
0.00125053
0.00125065
0.00126144
0.00126351
0.00125266
0.00126345
0.00125266
0.00125058
0.00126356
0.00126356
0.00125109
0.00125053
0.00125053
0.00121545
0.00122847
0.00122846
0.00121544
0.00122847
0.00121543
0.00121545
0.00122846
0.00122845
0.00121544
0.00122635
0.00122636
0.00122636
0.00120003
0.00120003
0.00120003
0.00120003
0.00121555
0.00122841
0.00122634
0.00121756
0.00122836
0.00121549
0.00121757
0.00122847
0.00121543
0.00121555
0.00122634
0.00122841
0.00121756
0.00122836
0.00121757
0.00121549
0.00122847
0.00122847
0.00121599
0.00121544
0.00121544
0.00118035
0.00119336
0.00119336
0.00118034
0.00119337
0.00118033
0.00118035
0.00119337
0.00119336
0.00118034
0.00119126
0.00119126
0.00119126
0.00116493
0.00116493
0.00116493
0.00116493
0.00118044
0.00119331
0.00119124
0.00118246
0.00119326
0.00118039
0.00118247
0.00119337
0.00118034
0.00118045
0.00119124
0.00119332
0.00118246
0.00119326
0.00118247
0.00118039
0.00119337
0.00119337
0.00118089
0.00118034
0.00118034
0.00114525
0.00115827
0.00115826
0.00114524
0.00115827
0.00114524
0.00114525
0.00115827
0.00115826
0.00114524
0.00115616
0.00115616
0.00115616
0.00112983
0.00112983
0.00112983
0.00112983
0.00114535
0.00115821
0.00115614
0.00114736
0.00115816
0.00114529
0.00114737
0.00115827
0.00114524
0.00114535
0.00115614
0.00115821
0.00114736
0.00115816
0.00114737
0.00114529
0.00115827
0.00115827
0.00114579
0.00114524
0.00114524
0.00111014
0.00112317
0.00112316
0.00111014
0.00112317
0.00111013
0.00111015
0.00112317
0.00112316
0.00111014
0.00112106
0.00112105
0.00112105
0.00109472
0.00109473
0.00109472
0.00109472
0.00111025
0.00112311
0.00112104
0.00111226
0.00112306
0.00111019
0.00111227
0.00112317
0.00111013
0.00111025
0.00112104
0.00112311
0.00111225
0.00112306
0.00111226
0.00111019
0.00112317
0.00112317
0.00111069
0.00111014
0.00111013
0.00107504
0.00108806
0.00108805
0.00107503
0.00108806
0.00107502
0.00107503
0.00108806
0.00108805
0.00107503
0.00108595
0.00108594
0.00108595
0.00105961
0.00105961
0.00105961
0.0010596
0.00107514
0.00108801
0.00108593
0.00107715
0.00108795
0.00107508
0.00107715
0.00108806
0.00107502
0.00107513
0.00108593
0.00108801
0.00107714
0.00108795
0.00107715
0.00107508
0.00108807
0.00108806
0.00107557
0.00107502
0.00107502
0.00103991
0.00105294
0.00105293
0.0010399
0.00105295
0.0010399
0.00103991
0.00105294
0.00105293
0.0010399
0.00105083
0.00105083
0.00105082
0.00102448
0.00102448
0.00102448
0.00102448
0.00104001
0.00105289
0.00105081
0.00104203
0.00105283
0.00103996
0.00104203
0.00105295
0.0010399
0.00104001
0.00105081
0.00105289
0.00104203
0.00105283
0.00104203
0.00103995
0.00105294
0.00105294
0.00104045
0.0010399
0.0010399
0.00100479
0.00101781
0.0010178
0.00100477
0.00101782
0.00100477
0.00100479
0.00101781
0.00101781
0.00100478
0.0010157
0.0010157
0.0010157
0.000989351
0.000989352
0.000989352
0.00098935
0.00100488
0.00101776
0.00101568
0.0010069
0.0010177
0.00100482
0.0010069
0.00101782
0.00100477
0.00100488
0.00101569
0.00101776
0.0010069
0.0010177
0.0010069
0.00100483
0.00101781
0.00101782
0.00100532
0.00100477
0.00100477
0.000969653
0.000982681
0.000982676
0.000969641
0.000982689
0.000969635
0.000969656
0.000982684
0.000982677
0.000969645
0.000980568
0.00098057
0.000980568
0.000954218
0.000954218
0.000954222
0.000954219
0.000969752
0.000982631
0.000980553
0.000971762
0.000982576
0.000969698
0.000971769
0.000982691
0.000969641
0.000969762
0.000980551
0.000982636
0.000971765
0.000982578
0.000971767
0.000969699
0.000982685
0.000982685
0.000970192
0.000969641
0.000969641
0.000934515
0.000947547
0.000947536
0.000934506
0.00094755
0.000934497
0.000934516
0.000947552
0.000947542
0.000934506
0.000945434
0.000945437
0.000945435
0.000919077
0.000919079
0.000919077
0.00091908
0.000934618
0.000947495
0.000945418
0.000936628
0.00094744
0.000934558
0.000936633
0.000947556
0.000934501
0.000934619
0.00094542
0.000947501
0.000936628
0.000947444
0.000936634
0.000934563
0.000947554
0.000947556
0.000935056
0.000934504
0.000934505
0.000899378
0.000912412
0.000912403
0.000899366
0.000912415
0.000899361
0.000899372
0.00091241
0.000912399
0.000899363
0.000910293
0.00091029
0.000910294
0.000883932
0.000883935
0.000883929
0.000883932
0.000899475
0.000912357
0.000910278
0.000901484
0.0009123
0.000899416
0.000901493
0.000912413
0.000899352
0.000899471
0.000910276
0.000912354
0.000901482
0.000912295
0.000901487
0.00089941
0.000912413
0.000912411
0.000899912
0.000899358
0.000899358
0.000864227
0.000877262
0.000877255
0.000864219
0.000877269
0.000864214
0.000864224
0.000877257
0.000877252
0.000864213
0.000875149
0.000875142
0.000875145
0.000848787
0.000848788
0.000848784
0.000848785
0.000864327
0.000877212
0.000875133
0.000866342
0.000877157
0.000864271
0.000866346
0.00087726
0.000864206
0.000864319
0.000875129
0.000877203
0.000866335
0.000877147
0.000866341
0.000864261
0.000877265
0.000877263
0.000864765
0.000864213
0.000864211
0.000829083
0.000842119
0.00084211
0.000829072
0.000842122
0.000829066
0.000829078
0.000842114
0.000842104
0.000829073
0.000840003
0.000839997
0.000839998
0.000813646
0.000813646
0.000813643
0.00081364
0.000829189
0.000842063
0.000839987
0.000831195
0.000842007
0.000829126
0.000831196
0.000842119
0.000829064
0.000829178
0.000839981
0.000842059
0.000831191
0.000842
0.000831195
0.000829121
0.000842117
0.000842116
0.00082962
0.000829067
0.000829063
0.000793945
0.000806977
0.000806967
0.000793934
0.000806981
0.000793926
0.000793945
0.000806975
0.000806968
0.000793934
0.00080486
0.000804859
0.000804855
0.000778506
0.000778505
0.000778505
0.000778502
0.000794038
0.000806921
0.000804845
0.000796055
0.000806861
0.000793982
0.000796059
0.000806978
0.000793925
0.000794044
0.00080484
0.00080692
0.000796053
0.000806862
0.000796056
0.000793983
0.000806975
0.000806975
0.000794477
0.000793926
0.000793927
0.000758808
0.000771835
0.000771829
0.000758794
0.00077184
0.000758793
0.000758806
0.000771836
0.000771828
0.000758794
0.000769721
0.000769721
0.000769719
0.000743371
0.000743369
0.000743372
0.000743369
0.000758904
0.000771783
0.000769706
0.000760916
0.000771725
0.000758847
0.00076092
0.000771843
0.000758791
0.000758902
0.000769708
0.000771784
0.000760917
0.000771724
0.000760923
0.000758846
0.000771837
0.000771837
0.000759346
0.000758791
0.000758792
0.000723667
0.000736701
0.000736691
0.000723657
0.000736706
0.000723653
0.000723667
0.0007367
0.000736694
0.000723659
0.000734586
0.00073459
0.000734588
0.000708239
0.000708237
0.000708242
0.000708242
0.000723773
0.000736648
0.000734571
0.000725782
0.000736594
0.000723713
0.000725789
0.000736708
0.000723658
0.000723778
0.000734575
0.000736651
0.000725787
0.000736593
0.000725792
0.00072372
0.000736708
0.000736708
0.000724209
0.000723664
0.000723662
0.000688539
0.000701568
0.00070156
0.000688529
0.000701574
0.000688524
0.000688542
0.000701571
0.000701562
0.000688534
0.000699454
0.000699458
0.000699458
0.000673106
0.000673108
0.00067311
0.00067311
0.000688644
0.00070152
0.000699441
0.00069065
0.000701462
0.000688585
0.000690657
0.000701578
0.000688526
0.000688655
0.000699443
0.000701527
0.000690648
0.000701468
0.000690658
0.00068859
0.000701575
0.00070158
0.000689085
0.000688533
0.000688536
0.00065341
0.000666438
0.000666429
0.000653398
0.000666442
0.000653393
0.000653406
0.000666438
0.000666428
0.000653398
0.000664325
0.000664327
0.000664326
0.000637976
0.000637978
0.000637977
0.000637979
0.000653512
0.000666388
0.000664313
0.000655522
0.000666333
0.000653455
0.00065553
0.000666443
0.000653392
0.000653509
0.000664315
0.000666388
0.000655519
0.000666332
0.000655531
0.000653452
0.00066645
0.000666449
0.000653953
0.000653404
0.000653401
0.000618279
0.000631306
0.000631297
0.000618269
0.000631316
0.000618268
0.000618278
0.000631308
0.0006313
0.000618268
0.000629197
0.000629195
0.000629199
0.000602847
0.000602849
0.000602845
0.000602849
0.000618387
0.00063126
0.000629183
0.000620396
0.000631205
0.000618326
0.000620401
0.000631313
0.000618266
0.000618377
0.000629183
0.000631254
0.000620395
0.000631198
0.0006204
0.000618319
0.000631315
0.000631314
0.000618823
0.000618272
0.000618268
0.000583154
0.00059618
0.000596173
0.000583144
0.000596191
0.000583138
0.000583149
0.000596181
0.000596171
0.000583141
0.000594066
0.000594063
0.000594066
0.00056772
0.000567722
0.000567718
0.000567719
0.000583259
0.000596131
0.000594052
0.000585263
0.000596075
0.000583196
0.000585267
0.000596183
0.000583137
0.000583249
0.000594052
0.000596127
0.000585262
0.000596069
0.000585269
0.000583192
0.000596185
0.000596182
0.000583691
0.00058314
0.000583138
0.00054803
0.000561058
0.000561046
0.00054802
0.000561064
0.000548012
0.00054802
0.000561055
0.000561048
0.000548016
0.00055894
0.000558938
0.000558937
0.000532596
0.000532596
0.000532594
0.000532593
0.000548122
0.000561003
0.000558923
0.000550135
0.000560941
0.000548067
0.000550142
0.000561058
0.00054801
0.000548124
0.000558924
0.000560999
0.000550135
0.000560941
0.000550142
0.000548066
0.000561056
0.000561056
0.000548564
0.000548012
0.000548011
0.000512904
0.000525933
0.000525922
0.00051289
0.000525935