/*--------------------------------*- C++ -*----------------------------------*\
| =========                 |                                                 |
| \\      /  F ield         | OpenFOAM: The Open Source CFD Toolbox           |
|  \\    /   O peration     | Version:  v2012                                 |
|   \\  /    A nd           | Website:  www.openfoam.com                      |
|    \\/     M anipulation  |                                                 |
\*---------------------------------------------------------------------------*/
FoamFile
{
    version     2.0;
    format      ascii;
    class       surfaceScalarField;
    location    "200";
    object      phi;
}
// * * * * * * * * * * * * * * * * * * * * * * * * * * * * * * * * * * * * * //

dimensions      [0 3 -1 0 0 0 0];
oriented        oriented;


internalField   nonuniform List<scalar> 
248808
(
-9.46062e-08
-9.3531e-08
7.87412e-08
7.79167e-08
0.00119168
-1.25019e-06
9.72701e-08
-2.76693e-07
1.24471e-06
2.70247e-07
9.03107e-07
-2.72256e-07
2.54408e-07
-9.18813e-07
3.38064e-08
0.00114335
1.28966e-06
1.25325e-06
-2.38475e-07
-2.45327e-07
0.000270208
-2.82253e-07
1.28481e-06
2.75782e-07
9.03005e-07
-2.69471e-07
2.5179e-07
-9.19026e-07
2.99696e-08
0.0011428
3.14511e-08
-2.79976e-07
1.24727e-06
2.72781e-07
9.062e-07
-2.71653e-07
2.55003e-07
-9.21245e-07
0.0011439
-1.29128e-06
9.47127e-08
3.90719e-08
-2.86652e-07
1.28336e-06
2.77238e-07
9.06741e-07
-2.71187e-07
2.55333e-07
-9.20733e-07
0.00114295
-2.37436e-07
-2.46386e-07
0.000270203
-8.32155e-09
3.99267e-08
0.000191448
-4.80362e-09
-9.73424e-09
3.95264e-08
0.000191468
-3.53284e-09
5.80542e-08
-4.77528e-10
0.000227976
2.72418e-12
-2.46766e-08
8.23034e-08
8.00632e-08
0.00119133
8.71478e-09
1.96529e-08
9.66969e-05
-1.99522e-08
-4.01616e-08
1.03355e-07
0.000244105
1.31144e-08
1.78893e-08
9.67231e-05
1.64435e-08
9.67228e-05
2.004e-08
4.15482e-08
0.000275794
-1.24388e-08
2.44495e-08
4.02446e-08
0.000275752
-1.50135e-08
1.00847e-07
0.000244118
1.34166e-08
1.00233e-07
0.000244129
1.47259e-08
1.8536e-10
1.47488e-07
9.94108e-07
-8.37354e-07
8.15187e-07
-1.01446e-06
0.00116472
6.81318e-10
0.000250309
-1.34994e-09
1.83892e-07
4.1736e-08
0.0001914
-4.38209e-09
5.79555e-08
0.000227939
-2.46201e-08
-1.04898e-09
1.4726e-07
9.9462e-07
-8.39847e-07
8.15297e-07
-1.01673e-06
0.00116471
-2.37273e-08
9.98307e-08
0.000244049
1.7378e-08
0.000250279
1.86335e-07
-3.41993e-09
4.26989e-08
0.000275678
-1.32206e-08
-1.81699e-08
4.38727e-08
0.000275782
-1.16869e-08
8.06221e-09
9.67097e-05
0.000191419
-5.20593e-09
6.00757e-09
-4.00521e-08
3.25895e-09
0.000191478
-2.78093e-08
5.15971e-08
0.000260581
8.96671e-10
7.81881e-05
1.03014e-09
-2.67996e-08
-7.82351e-05
-2.4434e-09
7.82643e-05
5.09506e-09
4.64909e-09
-4.26845e-08
0.000191501
0.00026069
-2.53329e-08
1.65965e-09
5.14521e-08
-4.0133e-09
-5.81738e-08
0.000260731
1.07312e-09
-2.77846e-08
-9.61791e-10
-0.000141666
0.000141692
2.9276e-09
2.90356e-08
-7.52527e-10
-6.65146e-08
0.000228012
0.000221761
-2.5223e-08
5.836e-08
0.000169104
1.2162e-09
-2.75734e-10
-6.54719e-08
0.000221798
-3.43585e-10
0.000169133
-5.80761e-09
-2.55206e-08
9.67282e-05
-2.28628e-08
9.6752e-05
-2.4261e-08
9.67517e-05
3.19396e-08
-3.06005e-08
-0.000220667
2.66765e-08
-6.14339e-08
0.0002207
0.000250138
-3.0259e-08
9.52812e-08
4.54584e-08
9.5196e-09
-4.6062e-08
-1.96585e-08
0.000275827
0.000181208
2.68459e-08
-1.37741e-08
1.37927e-08
0.000181236
-9.92233e-08
-3.98525e-08
0.0002502
-2.19265e-08
5.3667e-08
3.30966e-08
-2.90971e-08
-0.0002206
2.31924e-08
-6.50351e-08
0.000220637
0.000250046
-3.18321e-08
9.3838e-08
5.19159e-08
7.16439e-09
-4.7349e-08
-2.00099e-08
0.000275787
0.000181159
2.56563e-08
-1.52267e-08
1.2521e-08
0.000181187
-1.00648e-07
-4.35576e-08
0.000250113
-2.15137e-08
5.46162e-08
1.30625e-08
1.43588e-08
-0.000211885
0.000211908
7.96552e-05
1.20396e-08
7.96419e-05
1.06113e-08
7.96821e-05
7.96688e-05
-2.86378e-08
-7.81824e-05
-2.69329e-09
7.82137e-05
3.59612e-09
-4.24772e-08
0.000191433
0.000260556
-2.77886e-08
2.03652e-09
5.11694e-08
-3.66799e-09
-5.58664e-08
0.00026059
1.23267e-09
-5.09629e-10
-2.99267e-08
-0.00014159
0.000141618
2.90787e-08
1.4533e-09
-6.4182e-08
0.000227971
0.000169069
8.51659e-10
0.000221666
-2.70478e-08
5.78193e-08
0.000169097
-6.33737e-08
0.000221697
3.47121e-08
-2.91451e-08
-0.000220569
2.32629e-08
-6.48878e-08
0.000220606
0.00024999
-3.20378e-08
9.3691e-08
5.24444e-08
8.33258e-09
-4.93537e-08
-2.06984e-08
0.000275714
0.000181134
2.78435e-08
-1.46756e-08
1.32772e-08
0.000181164
-1.00789e-07
-4.30917e-08
0.000250055
-2.16462e-08
5.44938e-08
-3.07281e-08
3.37428e-08
-0.000220649
2.66128e-08
-5.89235e-08
0.000220678
0.00025014
-3.00434e-08
9.25517e-08
4.54767e-08
-4.83526e-08
9.26744e-09
2.27591e-08
-1.9694e-08
0.000275818
0.000181197
2.90062e-08
-1.3695e-08
-9.69845e-08
-3.99403e-08
0.000250198
1.38941e-08
0.000181226
-2.19325e-08
5.16618e-08
1.38961e-08
1.31545e-08
-0.000211859
0.000211882
7.96323e-05
1.09749e-08
7.96508e-05
1.2015e-08
7.96595e-05
7.96779e-05
-6.15022e-09
9.67387e-05
-3.9953e-08
3.1474e-09
0.00019145
-1.16335e-09
0.00121403
1.06834e-07
-1.13181e-07
-1.10015e-07
-0.000242639
0.000242736
0.000261667
-1.06876e-07
0.00026209
-1.05343e-07
2.4147e-07
2.50511e-07
0.000272248
0.000261972
0.000262402
-1.10699e-07
-1.12064e-07
-0.000242617
0.000242716
0.000262042
-1.08525e-07
0.000261687
-1.03981e-07
2.49093e-07
2.4278e-07
0.000272239
0.000261999
0.00026235
0.0012132
1.06739e-07
2.22718e-08
1.83944e-07
-0.000264947
0.000265663
-1.92326e-08
0.000260591
2.35751e-08
-9.83354e-08
-1.584e-08
0.000244159
0.00024998
1.84119e-07
-5.16409e-08
6.00312e-09
0.000260729
5.57359e-08
0.000250104
-1.12063e-08
2.0473e-08
1.78378e-07
1.99964e-08
-0.000264934
0.000265651
-1.22079e-08
0.000260578
2.34002e-08
-1.55572e-08
-9.59423e-08
0.00024417
0.000249984
1.79357e-07
6.1039e-09
5.53709e-08
0.000250103
-1.11665e-08
0.000260714
1.23016e-08
1.81498e-07
1.89174e-08
-0.000264983
-2.39112e-08
0.000265713
0.000260605
2.4329e-08
-1.42894e-08
-9.65211e-08
0.000244177
0.000250043
1.81398e-07
9.41113e-09
-1.01844e-08
0.000250163
0.000260739
2.87286e-08
2.02695e-07
-5.9942e-09
-0.000267079
0.000267852
4.77095e-09
-1.84163e-07
-1.39169e-09
0.000250424
0.000249387
2.02266e-07
0.000267567
-4.09684e-09
6.45123e-09
0.000249519
-5.42994e-09
0.000268198
1.81958e-07
2.02253e-08
-0.000264903
-6.70031e-09
0.000265614
0.000260522
2.81166e-08
-1.64844e-08
-9.66904e-08
0.000244099
0.000249946
1.80842e-07
8.21957e-09
-6.56905e-09
0.000250062
0.000260658
1.50241e-08
-7.89656e-11
2.03302e-07
-0.000267019
0.000267803
-1.84292e-07
1.92386e-09
0.000250396
0.000267553
-4.27929e-09
0.0002493
2.04182e-07
0.000268178
0.000249435
-1.25566e-06
9.58871e-08
3.42428e-08
0.00114377
-2.76461e-07
1.25036e-06
2.70475e-07
9.03655e-07
-2.69023e-07
2.52275e-07
-9.18621e-07
1.28508e-06
1.25071e-06
-2.40571e-07
-2.4593e-07
0.000270213
-6.81845e-08
-6.49281e-08
-0.00119175
5.59314e-08
5.87178e-08
0.00119177
-0.00114352
-1.25109e-06
7.1179e-08
2.31437e-08
0.00114344
-2.73118e-07
1.25302e-06
2.72682e-07
9.06682e-07
-2.64616e-07
-9.13612e-07
2.55093e-07
-0.0011431
-1.24588e-06
7.07164e-08
2.20156e-08
0.00114303
-2.73466e-07
1.24695e-06
2.71946e-07
9.06651e-07
-2.67472e-07
-9.13044e-07
2.57831e-07
-0.000272183
1.28002e-06
1.24666e-06
-2.37594e-07
-2.42348e-07
0.000270136
-4.60469e-08
-4.23776e-08
-0.00119181
3.82179e-08
4.18433e-08
0.00119182
-0.00114322
-1.2484e-06
4.84404e-08
1.29634e-08
0.00114316
-2.71491e-07
1.25452e-06
2.73311e-07
9.09201e-07
-2.61676e-07
-9.09757e-07
2.57229e-07
-0.00114281
-1.243e-06
4.88362e-08
1.17399e-08
0.00114275
-2.71589e-07
1.24871e-06
2.73235e-07
9.08961e-07
-2.63824e-07
-9.09659e-07
2.6045e-07
-0.000272118
1.27704e-06
1.24348e-06
-2.35834e-07
-2.40198e-07
0.000270073
-2.98333e-08
-2.69267e-08
-0.00119183
2.55086e-08
3.02149e-08
0.00119183
-0.00114299
-1.2474e-06
2.97216e-08
6.19099e-09
0.00114294
-2.7119e-07
1.2549e-06
2.73173e-07
9.10485e-07
-2.59975e-07
-9.07621e-07
2.58267e-07
-0.00114258
-1.24185e-06
3.01925e-08
5.56289e-09
0.00114254
-2.71144e-07
1.24913e-06
2.73268e-07
9.09605e-07
-2.62933e-07
-9.08087e-07
2.60749e-07
-0.000272066
1.27577e-06
1.24263e-06
-2.35964e-07
-2.40338e-07
0.000270024
-1.95282e-08
-1.66949e-08
-0.00119183
1.75642e-08
2.16635e-08
0.00119183
-0.00114282
-1.24819e-06
1.70573e-08
7.81256e-09
0.00114279
-2.72153e-07
1.25377e-06
2.72101e-07
9.1e-07
-2.59602e-07
-9.07635e-07
2.58499e-07
-0.00114243
-1.24203e-06
1.61144e-08
5.29249e-09
0.0011424
-2.7169e-07
1.24853e-06
2.72536e-07
9.09892e-07
-2.63033e-07
-9.0728e-07
2.60512e-07
-0.00027203
1.27602e-06
1.24237e-06
-2.36651e-07
-2.41574e-07
0.00026999
-1.16875e-08
-8.6841e-09
-0.00119182
1.07639e-08
1.41001e-08
0.00119181
-0.00114271
-1.24841e-06
9.07133e-09
9.83239e-09
0.00114269
-2.72823e-07
1.2535e-06
2.71427e-07
9.10095e-07
-2.59946e-07
-9.0722e-07
2.57756e-07
-0.00114233
-1.24277e-06
8.06358e-09
8.02236e-09
0.0011423
-2.72512e-07
1.24759e-06
2.71637e-07
9.10217e-07
-2.62409e-07
-9.06882e-07
2.60647e-07
-0.000272004
1.27648e-06
1.24229e-06
-2.37147e-07
-2.42444e-07
0.000269965
-3.77912e-09
-2.06601e-09
-0.0011918
3.75884e-09
6.39022e-09
0.0011918
-0.00114263
-1.24815e-06
2.6172e-09
7.30077e-09
0.00114262
-2.72698e-07
1.25364e-06
2.71678e-07
9.09682e-07
-2.60123e-07
-9.07448e-07
2.577e-07
-0.00114225
-1.24238e-06
2.6394e-09
6.31215e-09
0.00114224
-2.72456e-07
1.24782e-06
2.71504e-07
9.09664e-07
-2.62879e-07
-9.07149e-07
2.60365e-07
-0.000271985
1.2763e-06
1.24208e-06
-2.37485e-07
-2.42987e-07
0.000269947
2.53218e-09
2.67864e-09
-0.00119178
-1.71297e-11
9.44657e-10
0.00119178
-0.00114259
-1.24797e-06
-3.39316e-09
3.16367e-09
0.00114258
-2.71984e-07
1.25357e-06
2.72116e-07
9.10536e-07
-2.59834e-07
-9.06826e-07
2.5803e-07
-0.00114221
-1.24176e-06
-2.40174e-09
1.99449e-09
0.0011422
-2.71661e-07
1.2484e-06
2.72223e-07
9.09518e-07
-2.62875e-07
-9.07336e-07
2.6048e-07
-0.000271974
1.27571e-06
1.24143e-06
-2.37135e-07
-2.42895e-07
0.000269937
5.47593e-09
4.60972e-09
-0.00119176
-1.27308e-09
-1.63502e-09
0.00119175
-0.00114257
-1.24753e-06
-7.71113e-09
1.19923e-09
0.00114257
-2.71804e-07
1.25388e-06
2.72218e-07
9.10247e-07
-2.59311e-07
-9.07116e-07
2.58538e-07
-0.00114219
-1.24123e-06
-5.19674e-09
3.10134e-10
0.00114218
-2.71252e-07
1.24895e-06
2.72667e-07
9.09585e-07
-2.62651e-07
-9.07254e-07
2.60568e-07
-0.000271967
1.27565e-06
1.24059e-06
-2.36455e-07
-2.42866e-07
0.00026993
5.79778e-09
5.65368e-09
-0.00119174
-1.98067e-09
-3.07067e-09
0.00119173
-0.00114256
-1.24689e-06
-9.22737e-09
1.03143e-09
0.00114255
-2.70972e-07
1.25423e-06
2.72903e-07
9.10423e-07
-2.59308e-07
-9.06798e-07
2.58552e-07
-0.00114217
-1.24125e-06
-6.57127e-09
1.31144e-09
0.00114217
-2.7104e-07
1.24865e-06
2.72723e-07
9.09617e-07
-2.62735e-07
-9.07252e-07
2.6056e-07
-0.000271961
1.27579e-06
1.24029e-06
-2.36707e-07
-2.42943e-07
0.000269925
7.50659e-09
4.44735e-09
-0.00119171
-2.2617e-09
-4.61775e-09
0.00119171
-0.00114254
-1.24665e-06
-6.43152e-09
2.15849e-09
0.00114253
-2.70834e-07
1.25459e-06
2.73042e-07
9.102e-07
-2.59515e-07
-9.06975e-07
2.58053e-07
-0.00114215
-1.24141e-06
-6.49553e-09
3.52125e-09
0.00114215
-2.7142e-07
1.2484e-06
2.72337e-07
9.09627e-07
-2.62478e-07
-9.07273e-07
2.60687e-07
-0.000271959
1.27596e-06
1.24129e-06
-2.37773e-07
-2.43241e-07
0.000269922
6.80166e-09
4.28407e-09
-0.0011917
-2.47536e-09
-4.57077e-09
0.00119169
-0.0011425
-1.24653e-06
-4.82052e-09
3.52611e-09
0.00114249
-2.70971e-07
1.25446e-06
2.72759e-07
9.10123e-07
-2.6029e-07
-9.06893e-07
2.57386e-07
-0.00114212
-1.24123e-06
-4.75058e-09
4.31399e-09
0.00114212
-2.71079e-07
1.24835e-06
2.72682e-07
9.09664e-07
-2.62944e-07
-9.07144e-07
2.60114e-07
-0.000271956
1.27583e-06
1.2416e-06
-2.37892e-07
-2.43274e-07
0.00026992
5.66574e-09
6.04426e-09
-0.00119168
-3.42616e-09
-4.32552e-09
0.00119168
-0.00114247
-1.24703e-06
-4.51323e-09
2.88549e-09
0.00114246
-2.71504e-07
1.25373e-06
2.72243e-07
9.09748e-07
-2.59929e-07
-9.07278e-07
2.57608e-07
-0.00114209
-1.24106e-06
-2.62849e-09
3.35628e-09
0.00114208
-2.71076e-07
1.24832e-06
2.72571e-07
9.09286e-07
-2.6331e-07
-9.07497e-07
2.59677e-07
-0.000271952
1.27606e-06
1.24185e-06
-2.3807e-07
-2.43531e-07
0.000269916
5.15746e-09
6.96068e-09
-0.00119167
-4.62564e-09
-4.30599e-09
0.00119167
-0.00114244
-1.24695e-06
-3.66138e-09
2.34817e-09
0.00114244
-2.71428e-07
1.25359e-06
2.72236e-07
9.09764e-07
-2.59576e-07
-9.07262e-07
2.57914e-07
-0.00114207
-1.24138e-06
-1.43759e-09
2.1839e-09
0.00114206
-2.71426e-07
1.24789e-06
2.72165e-07
9.08738e-07
-2.63539e-07
-9.08039e-07
2.59392e-07
-0.000271949
1.27635e-06
1.24173e-06
-2.38059e-07
-2.43884e-07
0.000269913
4.97572e-09
7.42707e-09
-0.00119166
-4.84307e-09
-4.3874e-09
0.00119166
-0.00114241
-1.24673e-06
-3.29721e-09
3.0904e-09
0.0011424
-2.71763e-07
1.25372e-06
2.7191e-07
9.09764e-07
-2.59699e-07
-9.0718e-07
2.57686e-07
-0.00114205
-1.24135e-06
-1.63877e-09
2.54685e-09
0.00114204
-2.71581e-07
1.24778e-06
2.71905e-07
9.08639e-07
-2.63403e-07
-9.08145e-07
2.59538e-07
-0.000271947
1.27619e-06
1.2417e-06
-2.38005e-07
-2.43882e-07
0.000269911
4.5241e-09
6.2435e-09
-0.00119165
-4.2026e-09
-3.84475e-09
0.00119165
-0.00114238
-1.24713e-06
-3.09936e-09
3.82807e-09
0.00114238
-2.71904e-07
1.25315e-06
2.71704e-07
9.09748e-07
-2.59863e-07
-9.07181e-07
2.57635e-07
-0.00114203
-1.2417e-06
-3.87032e-09
3.61258e-09
0.00114203
-2.71991e-07
1.24749e-06
2.71574e-07
9.08752e-07
-2.63188e-07
-9.08104e-07
2.59722e-07
-0.000271945
1.27599e-06
1.24199e-06
-2.38194e-07
-2.43791e-07
0.000269909
2.872e-09
5.70801e-09
-0.00119165
-3.56823e-09
-2.49795e-09
0.00119164
-0.00114236
-1.2473e-06
-1.54145e-09
4.05955e-09
0.00114235
-2.72082e-07
1.25279e-06
2.71484e-07
9.09382e-07
-2.60398e-07
-9.07561e-07
2.57063e-07
-0.00114203
-1.24218e-06
-4.38826e-09
5.30108e-09
0.00114202
-2.72318e-07
1.24694e-06
2.71288e-07
9.08607e-07
-2.63427e-07
-9.08434e-07
2.59549e-07
-0.000271944
1.27594e-06
1.24276e-06
-2.38964e-07
-2.43776e-07
0.000269908
1.08314e-09
4.98562e-09
-0.00119164
-2.74682e-09
-1.62482e-09
0.00119164
-0.00114233
-1.24804e-06
-5.26189e-10
6.55566e-09
0.00114233
-2.72662e-07
1.25216e-06
2.70926e-07
9.08605e-07
-2.60837e-07
-9.08399e-07
2.56707e-07
-0.00114202
-1.24262e-06
-4.53706e-09
6.93926e-09
0.00114202
-2.72729e-07
1.24647e-06
2.70869e-07
9.08617e-07
-2.63672e-07
-9.08322e-07
2.59482e-07
-0.000271944
1.27593e-06
1.24305e-06
-2.39447e-07
-2.43798e-07
0.000269908
1.2234e-09
3.20277e-09
-0.00119164
-2.22309e-09
-1.69254e-09
0.00119164
-0.00114232
-1.24829e-06
-9.69228e-10
8.01893e-09
0.00114231
-2.73095e-07
1.25179e-06
2.70507e-07
9.08538e-07
-2.61002e-07
-9.08511e-07
2.56615e-07
-0.00114202
-1.24315e-06
-4.36558e-09
9.46729e-09
0.00114202
-2.73486e-07
1.24601e-06
2.70182e-07
9.08842e-07
-2.63646e-07
-9.08133e-07
2.59512e-07
-0.000271944
1.27642e-06
1.24274e-06
-2.39226e-07
-2.44244e-07
0.000269908
3.14749e-09
9.57285e-10
-0.00119164
-1.51959e-09
-3.10004e-09
0.00119164
-0.00114231
-1.24833e-06
-7.59081e-10
7.05584e-09
0.0011423
-2.73164e-07
1.25179e-06
2.70473e-07
9.08508e-07
-2.61215e-07
-9.08713e-07
2.56377e-07
-0.00114202
-1.2439e-06
-3.0809e-09
1.16625e-08
0.00114202
-2.74073e-07
1.2451e-06
2.69513e-07
9.08809e-07
-2.63973e-07
-9.08654e-07
2.59123e-07
-0.000271945
1.27656e-06
1.24247e-06
-2.38741e-07
-2.44462e-07
0.000269909
4.66026e-09
-1.84998e-09
-0.00119165
6.01146e-11
-4.98913e-09
0.00119165
-0.0011423
-1.24828e-06
-3.05327e-10
5.34729e-09
0.0011423
-2.72983e-07
1.25192e-06
2.70641e-07
9.08359e-07
-2.61623e-07
-9.08844e-07
2.56e-07
-0.00114201
-1.24422e-06
-1.07946e-09
1.13257e-08
0.00114201
-2.74517e-07
1.24483e-06
2.69233e-07
9.08447e-07
-2.64532e-07
-9.09166e-07
2.58655e-07
-0.000271944
1.27723e-06
1.24253e-06
-2.38809e-07
-2.44988e-07
0.000269908
3.70127e-09
-2.89946e-09
-0.00119166
1.11597e-09
-4.80788e-09
0.00119166
-0.0011423
-1.24794e-06
8.32036e-10
4.60659e-09
0.0011423
-2.72921e-07
1.25237e-06
2.70685e-07
9.07781e-07
-2.61901e-07
-9.09499e-07
2.55674e-07
-0.00114202
-1.24416e-06
-1.24087e-11
9.60849e-09
0.00114202
-2.74165e-07
1.24497e-06
2.69458e-07
9.07652e-07
-2.6473e-07
-9.09599e-07
2.58582e-07
-0.000271944
1.27725e-06
1.24279e-06
-2.39245e-07
-2.45055e-07
0.000269908
2.49136e-09
-2.39713e-09
-0.00119167
5.17598e-10
-3.2636e-09
0.00119167
-0.0011423
-1.24799e-06
1.62172e-09
4.09817e-09
0.0011423
-2.72658e-07
1.2522e-06
2.71e-07
9.0749e-07
-2.62039e-07
-9.09707e-07
2.55578e-07
-0.00114203
-1.24399e-06
-5.33059e-10
8.31293e-09
0.00114203
-2.74113e-07
1.24522e-06
2.69693e-07
9.07834e-07
-2.64303e-07
-9.09216e-07
2.58918e-07
-0.000271945
1.2769e-06
1.24361e-06
-2.40133e-07
-2.44598e-07
0.000269909
1.05263e-09
-9.88782e-10
-0.00119168
-5.37587e-10
-1.58773e-09
0.00119168
-0.0011423
-1.2483e-06
1.59061e-09
5.49395e-09
0.0011423
-2.73019e-07
1.25172e-06
2.7057e-07
9.07395e-07
-2.6188e-07
-9.09699e-07
2.5571e-07
-0.00114204
-1.24344e-06
-2.60044e-09
7.511e-09
0.00114204
-2.73675e-07
1.24564e-06
2.69896e-07
9.08312e-07
-2.63823e-07
-9.08761e-07
2.59366e-07
-0.000271945
1.27654e-06
1.24408e-06
-2.40528e-07
-2.44209e-07
0.000269909
-3.10973e-10
-5.82706e-10
-0.00119169
-3.66838e-10
8.94596e-11
0.00119169
-0.0011423
-1.24878e-06
2.27693e-10
7.49888e-09
0.0011423
-2.73609e-07
1.2512e-06
2.69871e-07
9.07913e-07
-2.61633e-07
-9.09131e-07
2.55917e-07
-0.00114204
-1.24347e-06
-4.52899e-09
7.87412e-09
0.00114204
-2.73738e-07
1.24568e-06
2.6992e-07
9.08836e-07
-2.63317e-07
-9.08079e-07
2.5978e-07
-0.000271945
1.27627e-06
1.24383e-06
-2.40258e-07
-2.43955e-07
0.000269909
-1.14335e-09
-1.68315e-10
-0.0011917
-1.94501e-10
6.34476e-10
0.0011917
-0.00114231
-1.24882e-06
-1.73424e-09
8.27293e-09
0.00114231
-2.7372e-07
1.25115e-06
2.69774e-07
9.08177e-07
-2.61118e-07
-9.08743e-07
2.56357e-07
-0.00114204
-1.24349e-06
-5.47657e-09
8.19686e-09
0.00114204
-2.73588e-07
1.24593e-06
2.69956e-07
9.09273e-07
-2.62991e-07
-9.07609e-07
2.60006e-07
-0.000271944
1.27594e-06
1.24325e-06
-2.3985e-07
-2.43605e-07
0.000269908
-1.6494e-10
5.72262e-10
-0.0011917
-5.17588e-10
-1.57357e-10
0.0011917
-0.00114231
-1.24829e-06
-3.15051e-09
7.0519e-09
0.00114231
-2.73024e-07
1.25165e-06
2.70604e-07
9.0809e-07
-2.61217e-07
-9.08864e-07
2.56222e-07
-0.00114204
-1.24329e-06
-5.04826e-09
7.89501e-09
0.00114204
-2.73574e-07
1.24616e-06
2.70195e-07
9.09181e-07
-2.62829e-07
-9.07621e-07
2.60085e-07
-0.000271944
1.27639e-06
1.24284e-06
-2.39408e-07
-2.44087e-07
0.000269908
1.36608e-09
1.47078e-09
-0.00119171
-1.18095e-09
-1.4356e-09
0.00119171
-0.00114231
-1.24779e-06
-3.3107e-09
4.5201e-09
0.00114232
-2.72517e-07
1.25226e-06
2.71043e-07
9.08187e-07
-2.6152e-07
-9.08766e-07
2.55863e-07
-0.00114203
-1.24257e-06
-1.83923e-09
5.73595e-09
0.00114203
-2.73304e-07
1.24723e-06
2.71046e-07
9.08338e-07
-2.63798e-07
-9.08415e-07
2.59013e-07
-0.000271945
1.27709e-06
1.24243e-06
-2.38996e-07
-2.4487e-07
0.000269909
2.61986e-09
3.18982e-09
-0.00119171
-2.45497e-09
-2.4919e-09
0.00119171
-0.00114232
-1.24727e-06
-1.80991e-09
2.2824e-09
0.00114232
-2.71871e-07
1.25277e-06
2.71832e-07
9.07494e-07
-2.61871e-07
-9.09409e-07
2.5561e-07
-0.00114203
-1.24211e-06
8.80745e-10
3.46496e-09
0.00114202
-2.72186e-07
1.2475e-06
2.71765e-07
9.0793e-07
-2.64551e-07
-9.09549e-07
2.58465e-07
-0.000271945
1.27717e-06
1.24266e-06
-2.39393e-07
-2.4467e-07
0.00026991
2.48498e-09
5.40844e-09
-0.00119171
-4.37429e-09
-2.36746e-09
0.00119171
-0.00114233
-1.24728e-06
-8.55376e-10
2.01684e-09
0.00114233
-2.71755e-07
1.25281e-06
2.71825e-07
9.07413e-07
-2.62036e-07
-9.09552e-07
2.55416e-07
-0.00114202
-1.24148e-06
2.54468e-09
2.07967e-09
0.00114201
-2.71326e-07
1.24786e-06
2.72472e-07
9.07509e-07
-2.64592e-07
-9.09457e-07
2.58431e-07
-0.000271946
1.27744e-06
1.243e-06
-2.39735e-07
-2.44958e-07
0.000269911
2.35717e-09
6.73736e-09
-0.00119171
-4.8738e-09
-2.16432e-09
0.00119171
-0.00114233
-1.24719e-06
-4.463e-10
3.84408e-09
0.00114233
-2.72537e-07
1.25319e-06
2.71066e-07
9.0742e-07
-2.62103e-07
-9.09497e-07
2.55345e-07
-0.001142
-1.24134e-06
2.48543e-09
1.54463e-09
0.00114199
-2.71262e-07
1.24802e-06
2.72431e-07
9.07854e-07
-2.64256e-07
-9.09057e-07
2.58689e-07
-0.000271946
1.2774e-06
1.24314e-06
-2.39716e-07
-2.44851e-07
0.00026991
2.48841e-09
7.00475e-09
-0.00119171
-4.88712e-09
-1.71826e-09
0.0011917
-0.00114234
-1.24801e-06
-1.54636e-09
5.53781e-09
0.00114234
-2.72586e-07
1.25228e-06
2.70884e-07
9.08092e-07
-2.61959e-07
-9.08972e-07
2.55479e-07
-0.00114197
-1.24114e-06
1.37584e-09
9.78168e-10
0.00114197
-2.71315e-07
1.24832e-06
2.72403e-07
9.07964e-07
-2.64115e-07
-9.08655e-07
2.58782e-07
-0.000271946
1.27711e-06
1.24299e-06
-2.39873e-07
-2.44492e-07
0.00026991
1.10443e-09
8.01579e-09
-0.0011917
-5.02563e-09
-9.72455e-10
0.0011917
-0.00114234
-1.24837e-06
-3.29421e-09
6.9804e-09
0.00114234
-2.73111e-07
1.25199e-06
2.70507e-07
9.08203e-07
-2.61117e-07
-9.08635e-07
2.56353e-07
-0.00114196
-1.24076e-06
1.24877e-09
-1.77251e-10
0.00114195
-2.71075e-07
1.24861e-06
2.72665e-07
9.07823e-07
-2.64191e-07
-9.08726e-07
2.58672e-07
-0.000271946
1.27719e-06
1.24262e-06
-2.39393e-07
-2.44682e-07
0.000269911
4.6133e-11
8.57646e-09
-0.00119169
-4.91751e-09
1.5567e-10
0.00119169
-0.00114234
-1.24868e-06
-4.02435e-09
7.55825e-09
0.00114234
-2.7326e-07
1.25173e-06
2.70457e-07
9.08555e-07
-2.60745e-07
-9.0843e-07
2.56738e-07
-0.00114194
-1.24065e-06
9.03387e-10
-6.4088e-10
0.00114193
-2.70817e-07
1.24845e-06
2.72808e-07
9.07647e-07
-2.64278e-07
-9.09112e-07
2.58622e-07
-0.000271949
1.277e-06
1.24251e-06
-2.39036e-07
-2.45026e-07
0.000269913
9.87847e-12
6.93361e-09
-0.00119168
-3.839e-09
1.566e-09
0.00119168
-0.00114233
-1.24865e-06
-3.65888e-09
8.38207e-09
0.00114234
-2.73643e-07
1.25174e-06
2.69925e-07
9.08812e-07
-2.61227e-07
-9.08827e-07
2.56154e-07
-0.00114192
-1.24118e-06
-3.11113e-10
1.39812e-09
0.00114192
-2.71374e-07
1.24781e-06
2.72149e-07
9.07864e-07
-2.6422e-07
-9.08949e-07
2.58747e-07
-0.000271951
1.27696e-06
1.24246e-06
-2.39174e-07
-2.44914e-07
0.000269916
6.37443e-11
7.04727e-09
-0.00119167
-3.26376e-09
1.47991e-09
0.00119167
-0.00114233
-1.2492e-06
-3.91559e-09
8.74875e-09
0.00114234
-2.73812e-07
1.25113e-06
2.69883e-07
9.08688e-07
-2.61345e-07
-9.08531e-07
2.56191e-07
-0.00114191
-1.24165e-06
-2.77664e-09
2.98517e-09
0.00114191
-2.72134e-07
1.24717e-06
2.71418e-07
9.08409e-07
-2.63932e-07
-9.08345e-07
2.59101e-07
-0.000271955
1.27698e-06
1.24268e-06
-2.39369e-07
-2.44848e-07
0.000269919
1.30085e-09
6.22375e-09
-0.00119166
-2.13863e-09
8.18458e-10
0.00119165
-0.00114234
-1.24857e-06
-4.31958e-09
7.00763e-09
0.00114234
-2.73099e-07
1.25163e-06
2.70466e-07
9.0839e-07
-2.60886e-07
-9.08702e-07
2.56545e-07
-0.00114191
-1.24201e-06
-4.52603e-09
4.93793e-09
0.00114191
-2.72293e-07
1.24687e-06
2.71148e-07
9.08151e-07
-2.63692e-07
-9.08552e-07
2.59178e-07
-0.000271958
1.27694e-06
1.24292e-06
-2.39516e-07
-2.4486e-07
0.000269922
2.59383e-09
4.87888e-09
-0.00119165
-1.09107e-09
3.85214e-11
0.00119164
-0.00114233
-1.24827e-06
-5.47648e-09
6.37433e-09
0.00114234
-2.72941e-07
1.25193e-06
2.70585e-07
9.08433e-07
-2.60935e-07
-9.08644e-07
2.56414e-07
-0.0011419
-1.24245e-06
-5.91806e-09
7.18904e-09
0.0011419
-2.72869e-07
1.24629e-06
2.70511e-07
9.082e-07
-2.63703e-07
-9.08371e-07
2.59153e-07
-0.00027196
1.27692e-06
1.24249e-06
-2.39263e-07
-2.44745e-07
0.000269925
4.05112e-09
3.59407e-09
-0.00119163
-1.53867e-10
-1.08168e-09
0.00119163
-0.00114234
-1.24824e-06
-7.11556e-09
6.58766e-09
0.00114234
-2.73392e-07
1.25204e-06
2.70116e-07
9.08389e-07
-2.60903e-07
-9.08408e-07
2.56233e-07
-0.0011419
-1.24283e-06
-7.5269e-09
8.8363e-09
0.0011419
-2.73198e-07
1.24576e-06
2.70051e-07
9.08482e-07
-2.6311e-07
-9.08049e-07
2.59441e-07
-0.000271961
1.27716e-06
1.24261e-06
-2.39234e-07
-2.44816e-07
0.000269925
5.08924e-09
2.98108e-09
-0.00119162
-1.11208e-10
-2.53418e-09
0.00119162
-0.00114234
-1.24859e-06
-8.47857e-09
6.92636e-09
0.00114235
-2.73059e-07
1.2514e-06
2.70227e-07
9.08151e-07
-2.60295e-07
-9.08259e-07
2.56364e-07
-0.00114189
-1.24299e-06
-7.75813e-09
9.55791e-09
0.00114189
-2.73417e-07
1.24549e-06
2.69671e-07
9.08205e-07
-2.63086e-07
-9.07759e-07
2.59051e-07
-0.000271961
1.27708e-06
1.24222e-06
-2.38826e-07
-2.44806e-07
0.000269926
8.45551e-09
3.27996e-09
-0.00119162
-8.28223e-10
-5.25158e-09
0.00119162
-0.00114234
-1.24826e-06
-9.80031e-09
6.26589e-09
0.00114235
-2.72738e-07
1.25129e-06
2.70267e-07
9.07713e-07
-2.60096e-07
-9.07681e-07
2.5565e-07
-0.00114189
-1.24281e-06
-6.98598e-09
9.28807e-09
0.00114189
-2.732e-07
1.2452e-06
2.69556e-07
9.07307e-07
-2.62859e-07
-9.07724e-07
2.58241e-07
-0.000271962
1.27714e-06
1.24162e-06
-2.38281e-07
-2.44819e-07
0.000269926
1.2035e-08
5.01607e-09
-0.00119162
-2.1847e-09
-8.95476e-09
0.00119161
-0.00114235
-1.24729e-06
-1.18027e-08
3.93173e-09
0.00114236
-2.7208e-07
1.25132e-06
2.69785e-07
9.07431e-07
-2.59158e-07
-9.06173e-07
2.54494e-07
-0.00114188
-1.2426e-06
-7.33711e-09
1.04077e-08
0.00114188
-2.72919e-07
1.24451e-06
2.68849e-07
9.06314e-07
-2.62174e-07
-9.06983e-07
2.56991e-07
-0.000271962
1.27691e-06
1.24108e-06
-2.37513e-07
-2.44418e-07
0.000269926
1.51788e-08
8.07374e-09
-0.00119162
-5.08679e-09
-1.20888e-08
0.00119161
-0.00114235
-1.24597e-06
-1.2566e-08
4.54795e-09
0.00114236
-2.70577e-07
1.2506e-06
2.69281e-07
9.04906e-07
-2.56959e-07
-9.05178e-07
2.52399e-07
-0.00114187
-1.24156e-06
-1.00752e-08
9.42988e-09
0.00114188
-2.72063e-07
1.24374e-06
2.67683e-07
9.04339e-07
-2.59884e-07
-9.05171e-07
2.54834e-07
-0.000271962
1.27565e-06
1.24055e-06
-2.36647e-07
-2.42738e-07
0.000269925
1.8517e-08
1.34423e-08
-0.00119162
-1.08009e-08
-1.63702e-08
0.00119161
-0.00114235
-1.2436e-06
-1.53195e-08
5.77045e-09
0.00114236
-2.68084e-07
1.24812e-06
2.66572e-07
9.00755e-07
-2.52265e-07
-9.01633e-07
2.47176e-07
-0.00114186
-1.23929e-06
-1.37346e-08
1.0823e-08
0.00114188
-2.69292e-07
1.24129e-06
2.65339e-07
9.00159e-07
-2.55452e-07
-9.01834e-07
2.49382e-07
-0.000271961
1.27316e-06
1.23864e-06
-2.33867e-07
-2.3937e-07
0.000269922
2.35841e-08
2.03842e-08
-0.00119162
-1.99587e-08
-2.36305e-08
0.00119162
-0.00114234
-1.23856e-06
-2.11278e-08
9.62673e-09
0.00114236
-2.62296e-07
1.24158e-06
2.58648e-07
8.92422e-07
-2.4103e-07
-8.93897e-07
2.34953e-07
-0.00114186
-1.23377e-06
-1.8949e-08
1.25084e-08
0.00114188
-2.6308e-07
1.23527e-06
2.57868e-07
8.91725e-07
-2.44317e-07
-8.94145e-07
2.37044e-07
-0.000271961
1.26795e-06
1.23339e-06
-2.26535e-07
-2.32307e-07
0.000269918
4.49632e-08
4.32778e-08
-0.00119162
-3.82682e-08
-4.68077e-08
0.00119162
-0.00114233
-1.22586e-06
-3.72516e-08
6.49441e-09
0.00114237
-2.4441e-07
1.2289e-06
2.42389e-07
8.77988e-07
-2.16626e-07
-8.78912e-07
2.07885e-07
-0.00114186
-1.21844e-06
-4.17752e-08
1.74938e-08
0.0011419
-2.45354e-07
1.21971e-06
2.3864e-07
8.74302e-07
-2.17285e-07
-8.76876e-07
2.09985e-07
-0.000271969
1.25807e-06
1.22121e-06
-2.06873e-07
-2.12191e-07
0.000269909
9.82505e-07
9.88094e-07
-0.00119154
-8.66612e-07
-8.57222e-07
0.00119129
-0.00114264
-1.11805e-06
-9.82199e-07
-3.87055e-07
0.00114314
-1.27038e-07
1.37911e-06
2.93449e-07
9.95167e-07
-7.63471e-08
-7.47955e-07
2.77318e-07
-0.00114219
-1.11013e-06
-9.92877e-07
-3.96958e-07
0.0011427
-1.27509e-07
1.37301e-06
2.95753e-07
9.91757e-07
-8.28747e-08
-7.45227e-07
2.79522e-07
-0.00027206
1.15276e-06
1.1109e-06
-9.74216e-08
-9.95275e-08
0.000269993
5.51201e-06
5.50512e-06
-0.00117822
-1.16907e-05
-1.15828e-05
0.000286445
0.000289473
0.000288829
0.000288829
4.49316e-06
6.77824e-06
7.17224e-06
4.4974e-06
6.77941e-06
7.17615e-06
-0.000283206
5.40885e-06
-5.50175e-06
6.02397e-06
-3.41849e-06
0.000280694
-0.000283157
-5.50366e-06
5.41367e-06
-3.42657e-06
6.02022e-06
0.000280653
-0.000273016
-5.40576e-06
-5.41662e-06
5.75853e-06
5.74746e-06
0.000272332
-1.2868e-06
-1.24901e-06
0.000272195
-0.000270155
2.43189e-07
2.52333e-07
-1.29641e-06
9.49367e-08
3.95247e-08
0.00114334
-2.86498e-07
1.28923e-06
2.77245e-07
9.09791e-07
-2.71198e-07
2.5551e-07
-9.23536e-07
0.00114258
7.4763e-08
-0.00114265
2.13783e-08
-1.28611e-06
2.77507e-07
-2.79448e-07
-9.15188e-07
2.53972e-07
-2.66328e-07
9.05444e-07
1.29095e-06
0.00114309
7.4711e-08
-0.00114318
3.27578e-08
-1.29335e-06
2.78685e-07
-2.84207e-07
-9.19505e-07
2.57421e-07
-2.6847e-07
9.12292e-07
-2.40201e-07
-2.43339e-07
0.000270254
-1.25238e-06
0.000272241
-0.000270193
2.47075e-07
2.48745e-07
0.00114367
7.20019e-08
-0.00114375
2.44853e-08
-1.25e-06
2.74271e-07
-2.77505e-07
-9.17071e-07
2.57398e-07
-2.68491e-07
9.08811e-07
1.28517e-06
0.0011427
7.46185e-08
-0.00114279
3.33491e-08
-1.28791e-06
2.78798e-07
-2.83909e-07
-9.17027e-07
2.57402e-07
-2.68082e-07
9.08654e-07
9.42258e-08
3.4905e-08
0.00114276
-2.79987e-07
1.27856e-06
2.7235e-07
9.03446e-07
-2.69004e-07
2.5233e-07
-9.18726e-07
7.74117e-08
-0.0011436
2.69451e-08
-1.25229e-06
2.7194e-07
-2.74217e-07
-9.14744e-07
2.54352e-07
9.06078e-07
-2.65734e-07
1.28087e-06
0.00114253
7.53613e-08
-0.0011426
2.60686e-08
-1.28127e-06
2.74218e-07
-2.77192e-07
-9.14771e-07
2.54417e-07
-2.65875e-07
9.06094e-07
-1.24641e-06
0.000272179
-0.000270142
2.44108e-07
2.51018e-07
9.57362e-08
3.65996e-08
0.00114387
-2.77575e-07
1.24443e-06
2.69436e-07
9.03833e-07
-2.71735e-07
2.54925e-07
-9.18546e-07
7.68676e-08
-0.00114318
2.56412e-08
-1.24693e-06
2.71611e-07
-2.74356e-07
-9.14282e-07
2.56881e-07
9.06084e-07
-2.68844e-07
1.24591e-06
0.00114363
7.36129e-08
-0.00114371
2.81268e-08
-1.24776e-06
2.70985e-07
-2.75168e-07
-9.14457e-07
2.58086e-07
-2.67871e-07
9.06559e-07
-0.000270154
2.45958e-07
2.52094e-07
1.28511e-06
1.24906e-06
-2.3548e-07
-2.42158e-07
0.000270139
-1.28838e-06
-1.25054e-06
0.000272136
-0.000270095
2.44556e-07
2.53281e-07
1.82947e-08
0.00114251
-2.78688e-07
1.28746e-06
2.78046e-07
9.0587e-07
-2.65091e-07
-9.14261e-07
2.54702e-07
-1.29216e-06
6.75888e-08
2.94039e-08
0.00114302
-2.83058e-07
1.29161e-06
2.79365e-07
9.12505e-07
-2.67301e-07
-9.18685e-07
2.58262e-07
0.00114231
5.21687e-08
-0.00114238
1.41977e-08
-1.28316e-06
2.78749e-07
-2.77259e-07
-9.11084e-07
2.56316e-07
-2.62967e-07
9.08242e-07
1.29279e-06
0.0011428
5.0509e-08
-0.00114287
2.26543e-08
-1.29008e-06
2.80466e-07
-2.81488e-07
-9.16388e-07
2.59659e-07
-2.64965e-07
9.13975e-07
-2.3721e-07
-2.40267e-07
0.000270175
-1.2541e-06
0.000272174
-0.000270126
2.4825e-07
2.50029e-07
2.15821e-08