/*--------------------------------*- C++ -*----------------------------------*\
| =========                 |                                                 |
| \\      /  F ield         | OpenFOAM: The Open Source CFD Toolbox           |
|  \\    /   O peration     | Version:  v2012                                 |
|   \\  /    A nd           | Website:  www.openfoam.com                      |
|    \\/     M anipulation  |                                                 |
\*---------------------------------------------------------------------------*/
FoamFile
{
    version     2.0;
    format      ascii;
    class       volVectorField;
    location    "200";
    object      U;
}
// * * * * * * * * * * * * * * * * * * * * * * * * * * * * * * * * * * * * * //

dimensions      [0 1 -1 0 0 0 0];


internalField   nonuniform List<vector> 
85864
(
(9.22171e-06 9.283e-06 0.113208)
(4.77989e-06 -7.9021e-06 0.108587)
(4.35235e-05 4.37709e-05 0.104993)
(4.47967e-06 7.90819e-06 0.108579)
(7.68804e-06 4.54732e-06 0.108578)
(7.64633e-06 -5.23088e-06 0.108582)
(4.3485e-05 -4.40112e-05 0.104999)
(1.11902e-06 1.16045e-05 0.0813042)
(1.15124e-05 1.63197e-06 0.0813036)
(1.27954e-05 -4.01045e-07 0.0908229)
(9.42019e-06 -9.58087e-06 0.113214)
(6.15708e-06 -4.52342e-06 0.0705782)
(6.99899e-06 -1.7416e-05 0.0924959)
(4.39253e-06 6.25238e-06 0.0705892)
(5.99241e-06 5.04711e-06 0.0705885)
(6.82455e-06 7.36327e-06 0.0867775)
(6.87286e-06 7.63241e-06 0.0867754)
(7.05813e-06 1.74217e-05 0.0925007)
(1.72039e-05 7.70776e-06 0.0924983)
(1.20377e-05 1.51366e-06 0.111109)
(2.15099e-05 -1.4792e-07 0.0985864)
(1.15853e-05 -1.21946e-06 0.081296)
(1.27478e-05 -1.17124e-07 0.0908222)
(1.19826e-05 -2.19455e-06 0.111111)
(1.71169e-05 -7.59439e-06 0.0924928)
(2.1517e-05 -6.65175e-07 0.0985865)
(7.0979e-06 -7.22287e-06 0.086765)
(6.80573e-06 -7.43153e-06 0.0867707)
(4.33117e-06 -6.33268e-06 0.070584)
(9.52e-07 -1.17382e-05 0.0812993)
(-1.13589e-06 -1.24358e-05 0.0813705)
(-7.28848e-08 1.03791e-05 0.0849681)
(-7.41464e-07 7.0112e-06 0.0674883)
(-7.22857e-06 -3.48267e-08 0.0675717)
(-1.25305e-05 -5.7692e-07 0.0813707)
(1.0364e-05 2.29418e-07 0.0849682)
(-1.23383e-05 -1.02602e-06 0.0850417)
(7.05257e-06 -5.59995e-07 0.0674908)
(-7.53723e-06 -9.90329e-08 0.0760043)
(-1.58009e-05 -6.7965e-07 0.0908848)
(1.27205e-05 1.94523e-07 0.0892271)
(6.89392e-06 -5.22257e-07 0.0777288)
(-1.51062e-05 -1.15293e-06 0.0892951)
(-7.59151e-06 -3.7693e-07 0.0777838)
(7.35869e-06 -8.83661e-07 0.0759409)
(-7.34256e-06 2.42273e-06 0.0706553)
(-2.56788e-06 -7.35397e-06 0.0706613)
(-7.60682e-06 -1.97964e-06 0.0706611)
(-9.58671e-06 -1.75106e-05 0.0912088)
(1.23168e-05 2.12574e-05 0.0960492)
(-5.98608e-06 -9.12537e-06 0.0868441)
(4.60006e-06 6.77328e-06 0.0807225)
(-4.16659e-06 -8.27629e-06 0.0807908)
(-1.07422e-05 -2.30803e-05 0.0961203)
(8.02093e-06 1.4813e-05 0.0911418)
(-1.80996e-05 -9.03178e-06 0.0912014)
(2.07119e-05 1.28601e-05 0.0960452)
(-9.61701e-06 -5.24693e-06 0.086843)
(6.24143e-06 5.2424e-06 0.0807166)
(-8.78129e-06 -3.58686e-06 0.0807854)
(-2.35748e-05 -1.02104e-05 0.0961171)
(1.42278e-05 8.65707e-06 0.0911343)
(-7.54192e-06 -6.93801e-06 0.0829288)
(5.80176e-06 3.93662e-06 0.0675523)
(3.492e-06 6.3435e-06 0.067546)
(-6.19167e-06 -4.31425e-06 0.0676268)
(-4.71946e-06 -5.70738e-06 0.0676207)
(5.64759e-06 6.29415e-06 0.0828671)
(-7.12225e-06 1.80636e-07 0.0675702)
(-1.23717e-05 1.04164e-06 0.0813647)
(1.03531e-05 -1.43737e-07 0.0849625)
(-1.22759e-05 1.15433e-06 0.0850377)
(7.04649e-06 7.35094e-07 0.0674848)
(-7.51951e-06 -3.07296e-08 0.076003)
(-1.58569e-05 1.22341e-07 0.0908839)
(6.87145e-06 2.82251e-07 0.0777281)
(1.25679e-05 -5.47238e-07 0.089225)
(-7.59327e-06 9.45805e-08 0.0777833)
(-1.51815e-05 7.67612e-07 0.0892938)
(7.3233e-06 7.70624e-07 0.0759371)
(-1.79959e-05 9.05092e-06 0.0911941)
(2.06687e-05 -1.29532e-05 0.0960403)
(-9.32023e-06 5.68562e-06 0.0868355)
(6.42864e-06 -4.91898e-06 0.0807073)
(-8.50719e-06 4.03544e-06 0.0807782)
(-2.36153e-05 1.02096e-05 0.0961133)
(1.42379e-05 -8.71995e-06 0.0911259)
(-9.61062e-06 1.74366e-05 0.0912019)
(1.22378e-05 -2.12106e-05 0.096045)
(-6.00734e-06 9.07738e-06 0.0868385)
(4.50416e-06 -6.84324e-06 0.0807155)
(-1.08545e-05 2.31554e-05 0.0961166)
(-4.25399e-06 8.21081e-06 0.0807852)
(7.94048e-06 -1.49037e-05 0.0911345)
(-7.44327e-06 6.98197e-06 0.0829215)
(3.66822e-06 -6.19188e-06 0.0675401)
(5.83176e-06 -3.92023e-06 0.0675468)
(-4.50274e-06 5.94229e-06 0.0676156)
(-6.16422e-06 4.35461e-06 0.067622)
(5.72875e-06 -6.31367e-06 0.0828594)
(-2.59898e-06 7.33825e-06 0.0706565)
(-1.20897e-06 1.23703e-05 0.0813654)
(1.36173e-05 4.47502e-06 0.114877)
(-2.25999e-05 -2.21124e-05 0.0975155)
(4.33854e-05 2.37072e-05 0.101781)
(2.31342e-05 4.34924e-05 0.101777)
(-4.50313e-05 -4.47344e-05 0.105182)
(-4.4193e-05 -2.46498e-05 0.10189)
(-2.52106e-05 -4.39772e-05 0.101886)
(1.86675e-05 1.91518e-05 0.0974301)
(-2.25894e-05 2.20193e-05 0.0975123)
(2.30424e-05 -4.38666e-05 0.101778)
(4.3198e-05 -2.36124e-05 0.101783)
(-4.49565e-05 4.45523e-05 0.105187)
(-4.42466e-05 2.47401e-05 0.101891)
(-2.52861e-05 4.37763e-05 0.101887)
(1.85426e-05 -1.93267e-05 0.097427)
(1.36138e-05 -4.83384e-06 0.114879)
(-4.57263e-06 5.25928e-05 0.101851)
(1.04608e-05 -5.17895e-05 0.0996196)
(-7.58884e-06 1.64985e-05 0.0925753)
(3.2111e-06 -2.03182e-05 0.0953297)
(-8.34292e-06 4.93762e-05 0.0997121)
(-4.45208e-06 2.15489e-05 0.0954263)
(6.12945e-06 -5.40597e-05 0.101691)
(-4.74e-06 -5.24859e-05 0.101848)
(1.03937e-05 5.17113e-05 0.0996192)
(-7.52944e-06 -1.64114e-05 0.0925791)
(3.36603e-06 2.04475e-05 0.0953317)
(-4.32425e-06 -2.13078e-05 0.0954271)
(-8.41893e-06 -4.94942e-05 0.0997106)
(6.00998e-06 5.41049e-05 0.101688)
(-5.26138e-05 -4.36309e-06 0.101844)
(5.14669e-05 1.08034e-05 0.099616)
(-1.67036e-05 -6.8846e-06 0.0925781)
(2.03237e-05 3.70239e-06 0.0953277)
(-2.15214e-05 -3.96691e-06 0.0954244)
(-4.95817e-05 -7.93892e-06 0.0997087)
(5.39229e-05 6.31937e-06 0.101684)
(-5.15923e-05 -1.03726e-06 0.103568)
(-2.27468e-05 -8.41727e-07 0.0986719)
(2.18694e-05 1.33589e-06 0.0974845)
(5.36642e-05 -1.74617e-08 0.10417)
(-2.26665e-05 -1.75116e-06 0.097581)
(-5.08251e-05 -1.73087e-07 0.104322)
(5.3789e-05 2.33429e-06 0.103385)
(-5.28811e-05 3.74387e-06 0.101845)
(5.12962e-05 -1.11168e-05 0.0996145)
(-1.66953e-05 6.98379e-06 0.0925735)
(2.01879e-05 -3.98726e-06 0.0953257)
(-2.16136e-05 3.68854e-06 0.0954222)
(-4.97551e-05 7.61184e-06 0.0997074)
(5.37294e-05 -6.91135e-06 0.101685)
(-5.18076e-05 3.34947e-07 0.103569)
(-2.27896e-05 6.12235e-08 0.0986717)
(5.3529e-05 -6.47729e-07 0.10417)
(2.16403e-05 -1.97161e-06 0.0974843)
(-5.08438e-05 -4.95993e-07 0.104322)
(-2.28385e-05 1.11253e-06 0.0975805)
(5.35596e-05 -3.02068e-06 0.103386)
(-7.74482e-06 4.76024e-06 0.108593)
(-4.37036e-05 -4.38127e-05 0.104997)
(6.6615e-06 6.90103e-06 0.113217)
(-5.60301e-06 3.32532e-06 0.108561)
(3.31085e-06 -5.63539e-06 0.108556)
(-4.24259e-05 -4.20993e-05 0.104968)
(4.52347e-06 4.86091e-06 0.113223)
(-3.91077e-06 2.07127e-06 0.108533)
(2.0411e-06 -3.82394e-06 0.108529)
(-4.14939e-05 -4.11891e-05 0.104944)
(2.84622e-06 3.25317e-06 0.113224)
(-2.51712e-06 1.51285e-06 0.108512)
(1.3525e-06 -2.69946e-06 0.108508)
(-4.14494e-05 -4.10648e-05 0.104924)
(1.64954e-06 1.97421e-06 0.113224)
(-1.76375e-06 1.58329e-06 0.108497)
(1.37587e-06 -1.78359e-06 0.108494)
(-4.16011e-05 -4.14012e-05 0.104911)
(6.84596e-07 9.75202e-07 0.113223)
(-1.19973e-06 1.77277e-06 0.108487)
(1.65554e-06 -1.21101e-06 0.108485)
(-4.1644e-05 -4.17032e-05 0.104901)
(-3.27218e-07 -9.43665e-08 0.113221)
(-8.37816e-07 1.52862e-06 0.10848)
(1.42416e-06 -8.06089e-07 0.108478)
(-4.16718e-05 -4.16739e-05 0.104894)
(-8.02691e-07 -7.7869e-07 0.11322)
(-5.70628e-07 9.93587e-07 0.108476)
(9.11051e-07 -6.75895e-07 0.108474)
(-4.15513e-05 -4.15479e-05 0.104891)
(-1.01299e-06 -1.12694e-06 0.113217)
(-3.82705e-07 8.18578e-07 0.108474)
(7.33013e-07 -5.93617e-07 0.108472)
(-4.12571e-05 -4.16045e-05 0.104888)
(-1.19757e-06 -1.20529e-06 0.113215)
(-2.59525e-07 7.5331e-07 0.108473)
(7.86374e-07 -5.10572e-07 0.108471)
(-4.11949e-05 -4.17025e-05 0.104886)
(-1.20288e-06 -1.38904e-06 0.113213)
(-4.44267e-07 7.42735e-07 0.108471)
(8.96184e-07 -4.4088e-07 0.108469)
(-4.16521e-05 -4.18243e-05 0.104885)
(-1.18529e-06 -1.39908e-06 0.113211)
(-5.29583e-07 8.04097e-07 0.108467)
(8.75859e-07 -5.32814e-07 0.108466)
(-4.17457e-05 -4.17791e-05 0.104884)
(-1.27637e-06 -1.33512e-06 0.11321)
(-6.22548e-07 9.00566e-07 0.108465)
(8.51709e-07 -7.46752e-07 0.108463)
(-4.18604e-05 -4.18342e-05 0.104883)
(-1.42379e-06 -1.31264e-06 0.113209)
(-6.31768e-07 7.88034e-07 0.108462)
(8.59176e-07 -9.19004e-07 0.108461)
(-4.17961e-05 -4.19742e-05 0.104882)
(-1.42422e-06 -1.30078e-06 0.113208)
(-6.69441e-07 9.19056e-07 0.108459)
(9.2521e-07 -8.74718e-07 0.108459)
(-4.17955e-05 -4.19212e-05 0.104881)
(-1.33698e-06 -1.2456e-06 0.113207)
(-6.91156e-07 1.00389e-06 0.108457)
(1.00867e-06 -7.5156e-07 0.108458)
(-4.18779e-05 -4.1901e-05 0.10488)
(-1.27036e-06 -1.11447e-06 0.113207)
(-8.01364e-07 1.01957e-06 0.108454)
(1.21867e-06 -7.78917e-07 0.108457)
(-4.21658e-05 -4.18877e-05 0.10488)
(-1.20128e-06 -1.04572e-06 0.113206)
(-9.15245e-07 1.25579e-06 0.108452)
(1.3905e-06 -7.5999e-07 0.108457)
(-4.22937e-05 -4.18624e-05 0.10488)
(-1.15554e-06 -1.03877e-06 0.113206)
(-8.8997e-07 1.42692e-06 0.108451)
(1.64687e-06 -7.32826e-07 0.108457)
(-4.22257e-05 -4.20836e-05 0.10488)
(-1.01115e-06 -1.16239e-06 0.113206)
(-9.79203e-07 1.41364e-06 0.10845)
(1.88709e-06 -8.65278e-07 0.108456)
(-4.20716e-05 -4.21263e-05 0.10488)
(-7.6845e-07 -1.3452e-06 0.113207)
(-1.10284e-06 1.28086e-06 0.108449)
(1.97517e-06 -1.03515e-06 0.108456)
(-4.21218e-05 -4.23436e-05 0.10488)
(-6.30002e-07 -1.31537e-06 0.113208)
(-1.25019e-06 1.24662e-06 0.108449)
(1.81133e-06 -1.12616e-06 0.108457)
(-4.22172e-05 -4.23343e-05 0.10488)
(-6.58129e-07 -1.21428e-06 0.11321)
(-1.35362e-06 1.13166e-06 0.108449)
(1.67013e-06 -1.02597e-06 0.108458)
(-4.25458e-05 -4.2216e-05 0.10488)
(-8.25866e-07 -1.07487e-06 0.113211)
(-1.30201e-06 1.27904e-06 0.10845)
(1.55266e-06 -9.27622e-07 0.108458)
(-4.27489e-05 -4.21017e-05 0.10488)
(-8.90674e-07 -8.94869e-07 0.113212)
(-1.15715e-06 1.51963e-06 0.10845)
(1.52713e-06 -8.35344e-07 0.108459)
(-4.2642e-05 -4.19952e-05 0.10488)
(-9.10411e-07 -8.31463e-07 0.113212)
(-1.04176e-06 1.55022e-06 0.10845)
(1.63953e-06 -7.11599e-07 0.108459)
(-4.24445e-05 -4.18541e-05 0.10488)
(-9.77025e-07 -9.02981e-07 0.113213)
(-9.74461e-07 1.40475e-06 0.10845)
(1.46427e-06 -6.92646e-07 0.108459)
(-4.23819e-05 -4.20311e-05 0.10488)
(-1.05445e-06 -1.05418e-06 0.113214)
(-1.022e-06 1.1081e-06 0.108451)
(1.28921e-06 -9.06168e-07 0.108458)
(-4.21424e-05 -4.23351e-05 0.10488)
(-1.16833e-06 -1.14475e-06 0.113214)
(-1.14052e-06 9.08895e-07 0.108452)
(1.00484e-06 -1.18329e-06 0.108458)
(-4.22241e-05 -4.23501e-05 0.10488)
(-1.39391e-06 -1.09825e-06 0.113215)
(-1.16508e-06 9.00895e-07 0.108453)
(7.97467e-07 -1.37804e-06 0.108457)
(-4.24567e-05 -4.24234e-05 0.104881)
(-1.43772e-06 -1.1056e-06 0.113215)
(-1.17359e-06 1.18726e-06 0.108454)
(6.90949e-07 -1.27609e-06 0.108455)
(-4.24186e-05 -4.24467e-05 0.104881)
(-1.44294e-06 -1.08215e-06 0.113215)
(-1.09402e-06 1.26769e-06 0.108454)
(6.74234e-07 -1.14945e-06 0.108454)
(-4.24589e-05 -4.2364e-05 0.10488)
(-1.48991e-06 -1.01601e-06 0.113215)
(-8.66608e-07 1.39011e-06 0.108455)
(5.16261e-07 -1.21941e-06 0.108452)
(-4.22601e-05 -4.23516e-05 0.104881)
(-1.46949e-06 -8.81988e-07 0.113215)
(-7.7797e-07 1.37827e-06 0.108455)
(4.02587e-07 -1.23604e-06 0.108451)
(-4.2203e-05 -4.23512e-05 0.104882)
(-1.35887e-06 -7.72505e-07 0.113215)
(-8.63428e-07 1.57092e-06 0.108455)
(6.34275e-07 -1.11266e-06 0.10845)
(-4.22119e-05 -4.23152e-05 0.104883)
(-1.33953e-06 -8.42097e-07 0.113215)
(-8.33834e-07 1.53568e-06 0.108456)
(8.51199e-07 -9.19918e-07 0.10845)
(-4.22951e-05 -4.23497e-05 0.104884)
(-1.24416e-06 -8.87406e-07 0.113216)
(-7.50316e-07 1.2665e-06 0.108458)
(9.72881e-07 -7.8615e-07 0.108451)
(-4.24015e-05 -4.23446e-05 0.104885)
(-1.11113e-06 -9.70803e-07 0.113216)
(-7.16014e-07 1.16086e-06 0.108459)
(1.22082e-06 -6.82658e-07 0.108452)
(-4.219e-05 -4.23057e-05 0.104886)
(-1.00139e-06 -1.11848e-06 0.113217)
(-6.29971e-07 1.26135e-06 0.108461)
(1.33812e-06 -4.98284e-07 0.108453)
(-4.23166e-05 -4.24366e-05 0.104886)
(-1.00632e-06 -1.29656e-06 0.113219)
(-4.61781e-07 1.18057e-06 0.108463)
(1.40219e-06 -4.7488e-07 0.108455)
(-4.21863e-05 -4.24023e-05 0.104887)
(-1.08154e-06 -1.56821e-06 0.113222)
(-3.80445e-07 1.11438e-06 0.108467)
(1.35128e-06 -5.20267e-07 0.108457)
(-4.19766e-05 -4.24388e-05 0.104887)
(-1.26904e-06 -2.03298e-06 0.113226)
(-2.39539e-07 9.66632e-07 0.108471)
(1.42037e-06 -5.18299e-07 0.108461)
(-4.17272e-05 -4.23408e-05 0.104888)
(-1.65564e-06 -2.41874e-06 0.113231)
(-1.7509e-07 8.47504e-07 0.108477)
(1.44057e-06 -3.15468e-07 0.108465)
(-4.14935e-05 -4.17685e-05 0.10489)
(-2.38906e-06 -2.96393e-06 0.113237)
(-1.02516e-07 1.03351e-06 0.108483)
(1.51108e-06 -2.81986e-07 0.108471)
(-4.04519e-05 -4.05361e-05 0.104894)
(-3.57087e-06 -3.96552e-06 0.113243)
(-2.07877e-08 1.86977e-06 0.108492)
(2.22028e-06 -2.59278e-07 0.108481)
(-3.75116e-05 -3.76924e-05 0.104904)
(-5.30018e-06 -5.61638e-06 0.113251)
(-4.44531e-07 3.53506e-06 0.108505)
(3.94542e-06 -5.96683e-07 0.108494)
(-3.07421e-05 -3.07436e-05 0.104931)
(-1.28865e-05 -1.30897e-05 0.113254)
(1.98453e-06 5.89936e-06 0.108524)
(6.01349e-06 1.85006e-06 0.108513)
(-1.43963e-05 -1.4173e-05 0.105001)
(-2.31619e-05 -2.30227e-05 0.113369)
(9.30456e-05 -5.10368e-05 0.108714)
(-5.11585e-05 9.30111e-05 0.108705)
(3.20652e-05 3.24206e-05 0.105373)
(-4.58038e-05 -4.54465e-05 0.105161)
(-5.16243e-06 7.65658e-06 0.108587)
(3.492e-06 6.27058e-06 0.108557)
(-4.43966e-06 5.96938e-06 0.108563)
(-4.38741e-05 4.34845e-05 0.105003)
(4.54172e-05 -4.5809e-05 0.105168)
(5.88241e-06 3.78136e-06 0.108556)
(5.99038e-06 -4.49525e-06 0.108558)
(-7.75794e-06 -4.85216e-06 0.108584)
(-6.17388e-06 3.87028e-06 0.108568)
(-6.14387e-06 -3.84382e-06 0.108561)
(-4.56115e-05 4.53277e-05 0.105163)
(-4.892e-06 -7.81091e-06 0.108585)
(3.82763e-06 -6.23593e-06 0.108563)
(-4.0408e-06 -5.95944e-06 0.108562)
(4.54035e-05 4.57089e-05 0.105163)
(4.20862e-05 4.24232e-05 0.104966)
(-4.63421e-05 -4.59881e-05 0.105138)
(3.00694e-06 5.67724e-06 0.108551)
(-3.95178e-06 5.38778e-06 0.108555)
(2.46109e-06 4.31231e-06 0.108531)
(-3.20482e-06 4.13222e-06 0.108534)
(-4.24899e-05 4.20501e-05 0.104972)
(4.60802e-05 -4.63585e-05 0.105142)
(5.28202e-06 3.33469e-06 0.108549)
(5.42673e-06 -4.03645e-06 0.108551)
(3.95422e-06 2.70325e-06 0.10853)
(4.20979e-06 -3.32037e-06 0.10853)
(-5.55542e-06 -3.33319e-06 0.108554)
(-4.35106e-06 2.53738e-06 0.10854)
(-4.20148e-06 -2.64122e-06 0.108533)
(4.21807e-05 -4.25328e-05 0.104968)
(-4.61721e-05 4.59585e-05 0.105136)
(-3.57195e-06 -5.34045e-06 0.108554)
(2.51138e-06 -4.2602e-06 0.108535)
(-2.78676e-06 -3.95009e-06 0.108534)
(4.61435e-05 4.64345e-05 0.105137)
(4.13308e-05 4.16587e-05 0.104944)
(-4.62853e-05 -4.60831e-05 0.105118)
(2.01762e-06 3.78611e-06 0.108526)
(-2.66966e-06 3.70902e-06 0.108528)
(1.85432e-06 2.95401e-06 0.10851)
(-2.15995e-06 2.9584e-06 0.108512)
(-4.16105e-05 4.13371e-05 0.104947)
(4.6323e-05 -4.64207e-05 0.105121)
(3.49415e-06 2.24751e-06 0.108525)
(3.73177e-06 -2.78647e-06 0.108524)
(2.76356e-06 2.181e-06 0.10851)
(2.95485e-06 -2.22445e-06 0.108509)
(-3.77904e-06 -2.2193e-06 0.108527)
(-2.89721e-06 1.74356e-06 0.108517)
(-2.89976e-06 -1.73017e-06 0.10851)
(4.14397e-05 -4.17204e-05 0.104943)
(-4.62265e-05 4.60588e-05 0.105117)
(-2.30452e-06 -3.47645e-06 0.108528)
(1.68145e-06 -3.01683e-06 0.108512)
(-2.02607e-06 -2.67577e-06 0.108511)
(4.60492e-05 4.64152e-05 0.105116)
(4.14106e-05 4.15376e-05 0.104926)
(-4.59676e-05 -4.57991e-05 0.105103)
(1.64033e-06 2.67047e-06 0.108505)
(-1.86086e-06 2.67712e-06 0.108508)
(1.93823e-06 2.23211e-06 0.108493)
(-1.89816e-06 2.26973e-06 0.108496)
(-4.13294e-05 4.12203e-05 0.104928)
(4.61791e-05 -4.59181e-05 0.105107)
(2.50479e-06 1.97507e-06 0.108506)
(2.70281e-06 -1.80709e-06 0.108505)
(2.02838e-06 2.31694e-06 0.108494)
(2.21268e-06 -1.74866e-06 0.108495)
(-2.59939e-06 -1.43266e-06 0.108505)
(-1.97193e-06 1.73777e-06 0.1085)
(-2.07468e-06 -1.54555e-06 0.108493)
(4.13687e-05 -4.16227e-05 0.104925)
(-4.60034e-05 4.6102e-05 0.105105)
(-1.75975e-06 -2.41719e-06 0.108506)
(1.54237e-06 -2.0551e-06 0.108497)
(-1.85249e-06 -1.83957e-06 0.108495)
(4.58168e-05 4.60629e-05 0.105102)
(4.16472e-05 4.17797e-05 0.104912)
(-4.58561e-05 -4.5587e-05 0.105092)
(1.66064e-06 2.00147e-06 0.10849)
(-1.65386e-06 2.00232e-06 0.108493)
(1.78525e-06 1.65478e-06 0.108481)
(-1.92812e-06 1.70236e-06 0.108485)
(-4.15942e-05 4.18038e-05 0.104915)
(4.599e-05 -4.56944e-05 0.105097)
(1.81663e-06 2.07068e-06 0.108491)
(1.98744e-06 -1.5021e-06 0.108493)
(1.39264e-06 2.09686e-06 0.108482)
(1.63763e-06 -1.8898e-06 0.108485)
(-1.85153e-06 -1.35498e-06 0.108489)
(-1.4548e-06 2.00675e-06 0.108489)
(-1.44954e-06 -1.6179e-06 0.108481)
(4.15938e-05 -4.15353e-05 0.104915)
(-4.5597e-05 4.57314e-05 0.105097)
(-1.61587e-06 -1.63001e-06 0.108492)
(1.80093e-06 -1.35647e-06 0.108487)
(-1.75524e-06 -1.22931e-06 0.108483)
(4.56904e-05 4.56626e-05 0.105091)
(4.16873e-05 4.19587e-05 0.104902)
(-4.58693e-05 -4.55087e-05 0.105086)
(1.51868e-06 1.51182e-06 0.108479)
(-1.72141e-06 1.62165e-06 0.108484)
(1.54045e-06 1.22802e-06 0.108473)
(-1.70199e-06 1.41165e-06 0.108479)
(-4.18811e-05 4.21477e-05 0.104906)
(4.57846e-05 -4.56802e-05 0.105091)
(1.24307e-06 1.79212e-06 0.10848)
(1.51977e-06 -1.74459e-06 0.108483)
(1.04773e-06 1.75128e-06 0.108475)
(1.15862e-06 -1.88503e-06 0.108479)
(-1.27037e-06 -1.4536e-06 0.108479)
(-9.3297e-07 1.80656e-06 0.108481)
(-9.77901e-07 -1.59557e-06 0.108474)
(4.19474e-05 -4.19517e-05 0.104906)
(-4.56316e-05 4.55246e-05 0.10509)
(-1.5501e-06 -1.11101e-06 0.108481)
(1.76478e-06 -9.18691e-07 0.108479)
(-1.53709e-06 -8.84525e-07 0.108476)
(4.55859e-05 4.55586e-05 0.105084)
(4.17383e-05 4.20593e-05 0.104896)
(-4.56132e-05 -4.55685e-05 0.105082)
(1.31733e-06 1.07303e-06 0.108472)
(-1.44716e-06 1.29267e-06 0.108478)
(1.47625e-06 8.0337e-07 0.108469)
(-1.45374e-06 9.30067e-07 0.108476)
(-4.20094e-05 4.20009e-05 0.1049)
(4.54137e-05 -4.54343e-05 0.105088)
(9.12254e-07 1.43018e-06 0.108474)
(1.04503e-06 -1.61796e-06 0.108478)
(7.20068e-07 1.45293e-06 0.108471)
(7.7651e-07 -1.57976e-06 0.108476)
(-8.74434e-07 -1.42634e-06 0.108473)
(-6.41865e-07 1.35968e-06 0.108477)
(-6.76362e-07 -1.52788e-06 0.108469)
(4.18758e-05 -4.21334e-05 0.1049)
(-4.54918e-05 4.52606e-05 0.105086)
(-1.28451e-06 -8.08062e-07 0.108474)
(1.23595e-06 -7.12811e-07 0.108475)
(-1.28297e-06 -6.9171e-07 0.108471)
(4.56395e-05 4.56538e-05 0.105079)
(4.1889e-05 4.18806e-05 0.104893)
(-4.53185e-05 -4.54636e-05 0.10508)
(1.23931e-06 6.88115e-07 0.108468)
(-1.15116e-06 8.39226e-07 0.108475)
(1.42925e-06 5.96374e-07 0.108467)
(-1.23127e-06 6.86656e-07 0.108473)
(-4.22081e-05 4.21325e-05 0.104898)
(4.57937e-05 -4.55295e-05 0.105086)
(6.6334e-07 1.24497e-06 0.108471)
(6.54072e-07 -1.25939e-06 0.108476)
(6.11796e-07 1.31659e-06 0.108468)
(5.00842e-07 -1.29993e-06 0.108474)
(-5.59758e-07 -1.28821e-06 0.108468)
(-4.69478e-07 1.11699e-06 0.108475)
(-3.38137e-07 -1.44252e-06 0.108464)
(4.18815e-05 -4.22029e-05 0.104897)
(-4.57132e-05 4.54482e-05 0.105084)
(-1.07583e-06 -6.85811e-07 0.10847)
(9.39703e-07 -6.77924e-07 0.108472)
(-1.11107e-06 -6.43104e-07 0.108467)
(4.5795e-05 4.54961e-05 0.105076)
(4.20046e-05 4.18111e-05 0.104891)
(-4.54141e-05 -4.53812e-05 0.105078)
(1.17296e-06 5.30296e-07 0.108466)
(-9.2764e-07 6.40561e-07 0.108473)
(1.35627e-06 5.36937e-07 0.108464)
(-1.08609e-06 5.28837e-07 0.108471)
(-4.17931e-05 4.20271e-05 0.104896)
(4.60537e-05 -4.57253e-05 0.105085)
(6.01011e-07 1.08526e-06 0.108467)
(4.36639e-07 -1.06909e-06 0.108474)
(5.77625e-07 1.26127e-06 0.108465)
(4.56145e-07 -1.27627e-06 0.108473)
(-2.62417e-07 -1.2657e-06 0.108462)
(-2.68856e-07 1.0153e-06 0.108473)
(-2.31787e-07 -1.32009e-06 0.108459)
(4.16042e-05 -4.19608e-05 0.104895)
(-4.57529e-05 4.5725e-05 0.105083)
(-8.79082e-07 -6.21533e-07 0.108466)
(9.8686e-07 -5.65207e-07 0.108471)
(-9.20729e-07 -5.99815e-07 0.108461)
(4.58928e-05 4.53805e-05 0.105074)
(4.18395e-05 4.18369e-05 0.104889)
(-4.52599e-05 -4.56175e-05 0.105077)
(1.17004e-06 5.11005e-07 0.108463)
(-7.84607e-07 4.39917e-07 0.10847)
(1.40079e-06 5.14282e-07 0.108462)
(-1.08991e-06 3.75218e-07 0.108467)
(-4.15316e-05 4.17639e-05 0.104895)
(4.59357e-05 -4.58639e-05 0.105084)
(5.33441e-07 1.0109e-06 0.108465)
(4.28377e-07 -1.01597e-06 0.108472)
(6.75856e-07 1.10998e-06 0.108464)
(5.97192e-07 -1.18321e-06 0.10847)
(-2.69106e-07 -1.12005e-06 0.108458)
(-4.36105e-07 1.00265e-06 0.108472)
(-4.4312e-07 -1.27043e-06 0.108456)
(4.16573e-05 -4.17586e-05 0.104894)
(-4.55254e-05 4.57795e-05 0.105082)
(-7.54103e-07 -5.89382e-07 0.10846)
(1.09429e-06 -4.48706e-07 0.108469)
(-1.03666e-06 -4.98978e-07 0.108457)
(4.54714e-05 4.52285e-05 0.105072)
(4.21125e-05 4.17354e-05 0.104889)
(-4.50272e-05 -4.53985e-05 0.105077)
(1.19698e-06 4.59717e-07 0.108461)
(-8.69489e-07 3.51869e-07 0.108466)
(1.36001e-06 5.50103e-07 0.108461)
(-1.20557e-06 4.43771e-07 0.108464)
(-4.16972e-05 4.16233e-05 0.104894)
(4.55788e-05 -4.58686e-05 0.105083)
(7.10845e-07 9.18137e-07 0.108463)
(5.83872e-07 -9.75049e-07 0.108469)
(7.94013e-07 1.10735e-06 0.108462)
(6.20887e-07 -1.26035e-06 0.108466)
(-5.068e-07 -1.06701e-06 0.108456)
(-5.14946e-07 9.98926e-07 0.108468)
(-5.38418e-07 -1.26143e-06 0.108454)
(4.16671e-05 -4.15105e-05 0.104893)
(-4.55223e-05 4.55801e-05 0.105081)
(-8.63963e-07 -4.62761e-07 0.108456)
(1.10933e-06 -5.37904e-07 0.108467)
(-1.09324e-06 -4.78322e-07 0.108455)
(4.51956e-05 4.51705e-05 0.105071)
(4.21509e-05 4.1807e-05 0.104889)
(-4.52336e-05 -4.51843e-05 0.105077)
(1.08139e-06 5.49348e-07 0.10846)
(-1.01479e-06 4.62935e-07 0.108463)
(1.23411e-06 6.94542e-07 0.10846)
(-1.34217e-06 5.54382e-07 0.108462)
(-4.1922e-05 4.15644e-05 0.104893)
(4.54257e-05 -4.55152e-05 0.105082)
(7.58927e-07 9.1112e-07 0.108462)
(6.42293e-07 -1.11641e-06 0.108465)
(6.64768e-07 1.14896e-06 0.108461)
(5.28204e-07 -1.46591e-06 0.108463)
(-5.59599e-07 -1.11711e-06 0.108454)
(-6.4077e-07 1.12561e-06 0.108465)
(-6.25567e-07 -1.35033e-06 0.108453)
(4.16327e-05 -4.18392e-05 0.104892)
(-4.56038e-05 4.50587e-05 0.105079)
(-9.62016e-07 -5.61342e-07 0.108454)
(1.091e-06 -7.33824e-07 0.108464)
(-1.21774e-06 -6.89275e-07 0.108453)
(4.50201e-05 4.50394e-05 0.10507)
(4.19106e-05 4.1933e-05 0.104889)
(-4.53023e-05 -4.52001e-05 0.105077)
(9.66403e-07 6.80121e-07 0.10846)
(-1.1715e-06 5.4864e-07 0.108462)
(1.13956e-06 7.59046e-07 0.108459)
(-1.44065e-06 5.35357e-07 0.10846)
(-4.19347e-05 4.17738e-05 0.104893)
(4.518e-05 -4.54244e-05 0.10508)
(6.38411e-07 9.32191e-07 0.108461)
(5.21942e-07 -1.28669e-06 0.108463)
(6.39317e-07 1.13098e-06 0.10846)
(5.27955e-07 -1.6467e-06 0.108461)
(-6.31094e-07 -1.18546e-06 0.108452)
(-6.56591e-07 1.00565e-06 0.108463)
(-6.11079e-07 -1.43777e-06 0.10845)
(4.15581e-05 -4.21916e-05 0.104891)
(-4.5386e-05 4.48965e-05 0.105078)
(-1.05545e-06 -7.27383e-07 0.108452)
(1.07107e-06 -8.80794e-07 0.108461)
(-1.25265e-06 -8.10458e-07 0.108451)
(4.50437e-05 4.48514e-05 0.105068)
(4.17995e-05 4.18747e-05 0.104889)
(-4.53599e-05 -4.52695e-05 0.105077)
(9.20342e-07 7.50629e-07 0.108459)
(-1.23208e-06 5.2137e-07 0.10846)
(1.22414e-06 7.79768e-07 0.108457)
(-1.501e-06 5.2943e-07 0.108458)
(-4.20707e-05 4.17603e-05 0.104892)
(4.5258e-05 -4.555e-05 0.105078)
(5.70497e-07 9.19171e-07 0.10846)
(4.83057e-07 -1.41631e-06 0.108461)
(5.75069e-07 1.14563e-06 0.10846)
(5.1742e-07 -1.64432e-06 0.10846)
(-6.35868e-07 -1.27303e-06 0.10845)
(-7.00335e-07 1.08375e-06 0.10846)
(-6.05103e-07 -1.40214e-06 0.108449)
(4.17137e-05 -4.23071e-05 0.10489)
(-4.53266e-05 4.48621e-05 0.105077)
(-1.07154e-06 -8.1924e-07 0.10845)
(1.13036e-06 -9.1404e-07 0.108459)
(-1.22339e-06 -9.33206e-07 0.108449)
(4.50348e-05 4.48857e-05 0.105067)
(4.18097e-05 4.18786e-05 0.104889)
(-4.54963e-05 -4.54162e-05 0.105076)
(9.9761e-07 7.36705e-07 0.108457)
(-1.32547e-06 5.45927e-07 0.108458)
(1.24293e-06 8.15798e-07 0.108456)
(-1.45658e-06 5.91193e-07 0.108456)
(-4.1925e-05 4.15821e-05 0.10489)
(4.51825e-05 -4.53213e-05 0.105077)
(5.36763e-07 9.25705e-07 0.10846)
(5.54775e-07 -1.4034e-06 0.10846)
(6.09916e-07 1.22834e-06 0.108459)
(7.10191e-07 -1.42566e-06 0.108458)
(-6.02997e-07 -1.16892e-06 0.108448)
(-7.32718e-07 1.21465e-06 0.108457)
(-7.19945e-07 -1.2556e-06 0.108447)
(4.17525e-05 -4.22672e-05 0.104889)
(-4.52292e-05 4.50507e-05 0.105076)
(-1.05045e-06 -9.15329e-07 0.108449)
(1.19486e-06 -7.77242e-07 0.108458)
(-1.29874e-06 -8.47888e-07 0.108448)
(4.49517e-05 4.48885e-05 0.105067)
(4.1797e-05 4.1853e-05 0.104888)
(-4.52437e-05 -4.51021e-05 0.105076)
(1.08206e-06 8.01675e-07 0.108456)
(-1.2632e-06 6.28649e-07 0.108456)
(1.27765e-06 9.05952e-07 0.108455)
(-1.4419e-06 7.47748e-07 0.108455)
(-4.19949e-05 4.1812e-05 0.104889)
(4.51465e-05 -4.52433e-05 0.105076)
(6.09425e-07 1.05943e-06 0.10846)
(7.42449e-07 -1.09791e-06 0.108458)
(6.7369e-07 1.37804e-06 0.108459)
(8.0627e-07 -1.22375e-06 0.108457)
(-7.67853e-07 -1.0295e-06 0.108446)
(-7.56042e-07 1.18809e-06 0.108454)
(-9.79152e-07 -1.19409e-06 0.108445)
(4.18053e-05 -4.20464e-05 0.104889)
(-4.50279e-05 4.52624e-05 0.105076)
(-1.21047e-06 -8.43632e-07 0.108447)
(1.42167e-06 -8.06412e-07 0.108457)
(-1.70605e-06 -8.36437e-07 0.108447)
(4.46756e-05 4.49284e-05 0.105066)
(4.19966e-05 4.21741e-05 0.104888)
(-4.51823e-05 -4.48165e-05 0.105077)
(1.08139e-06 9.20242e-07 0.108455)
(-1.26194e-06 7.6158e-07 0.108454)
(1.36704e-06 1.0544e-06 0.108455)
(-1.54355e-06 8.784e-07 0.108453)
(-4.20308e-05 4.18685e-05 0.104888)
(4.48931e-05 -4.49094e-05 0.105075)
(6.48134e-07 1.22687e-06 0.108459)
(8.15725e-07 -1.02515e-06 0.108457)
(7.01771e-07 1.46459e-06 0.108459)
(8.95073e-07 -1.33102e-06 0.108455)
(-1.04807e-06 -9.74986e-07 0.108445)
(-9.52035e-07 1.40858e-06 0.108452)
(-1.1823e-06 -1.21355e-06 0.108444)
(4.20114e-05 -4.18657e-05 0.104889)
(-4.48616e-05 4.50347e-05 0.105076)
(-1.53432e-06 -8.21918e-07 0.108446)
(1.57552e-06 -7.81747e-07 0.108457)
(-1.75661e-06 -8.0396e-07 0.108446)
(4.45243e-05 4.49796e-05 0.105066)
(4.21272e-05 4.247e-05 0.104889)
(-4.50023e-05 -4.47269e-05 0.105076)
(1.13719e-06 1.00667e-06 0.108455)
(-1.35971e-06 9.1877e-07 0.108452)
(1.37827e-06 1.06546e-06 0.108454)
(-1.62196e-06 1.09612e-06 0.108451)
(-4.2229e-05 4.21755e-05 0.104887)
(4.48065e-05 -4.47544e-05 0.105074)
(6.61402e-07 1.23056e-06 0.108459)
(9.0505e-07 -1.13336e-06 0.108455)
(8.78696e-07 1.46072e-06 0.108459)
(1.16005e-06 -1.41713e-06 0.108453)
(-1.16205e-06 -1.05824e-06 0.108444)
(-9.04082e-07 1.6324e-06 0.108451)
(-1.06889e-06 -1.24602e-06 0.108444)
(4.21583e-05 -4.20556e-05 0.104889)
(-4.46809e-05 4.50166e-05 0.105075)
(-1.5645e-06 -8.31124e-07 0.108446)
(1.78716e-06 -7.33338e-07 0.108457)
(-1.65475e-06 -8.42023e-07 0.108447)
(4.45503e-05 4.4734e-05 0.105066)
(4.22591e-05 4.24464e-05 0.104889)
(-4.48566e-05 -4.50792e-05 0.105077)
(1.15927e-06 1.02057e-06 0.108454)
(-1.42732e-06 1.11532e-06 0.108451)
(1.43874e-06 9.80553e-07 0.108454)
(-1.66997e-06 1.10787e-06 0.10845)
(-4.22849e-05 4.2254e-05 0.104886)
(4.46657e-05 -4.47564e-05 0.105073)
(8.58501e-07 1.17537e-06 0.108459)
(1.18623e-06 -1.20817e-06 0.108453)
(1.0028e-06 1.14325e-06 0.108459)
(1.33451e-06 -1.5047e-06 0.108451)
(-1.03307e-06 -1.0666e-06 0.108444)
(-1.01067e-06 1.65152e-06 0.10845)
(-9.53555e-07 -1.34434e-06 0.108444)
(4.23191e-05 -4.21176e-05 0.104888)
(-4.44614e-05 4.49574e-05 0.105074)
(-1.40732e-06 -8.1759e-07 0.108447)
(2.07226e-06 -8.59975e-07 0.108456)
(-1.56447e-06 -8.75276e-07 0.108447)
(4.46825e-05 4.46578e-05 0.105066)
(4.23478e-05 4.20357e-05 0.104889)
(-4.4565e-05 -4.51945e-05 0.105077)
(1.27587e-06 9.12413e-07 0.108455)
(-1.48167e-06 1.05839e-06 0.10845)
(1.72429e-06 8.91398e-07 0.108455)
(-1.74681e-06 1.01931e-06 0.108449)
(-4.24319e-05 4.22593e-05 0.104885)
(4.45943e-05 -4.47499e-05 0.105072)
(1.02635e-06 8.56189e-07 0.108459)
(1.40709e-06 -1.32205e-06 0.10845)
(1.3551e-06 9.5862e-07 0.108459)
(1.64431e-06 -1.54455e-06 0.108448)
(-9.09946e-07 -1.20081e-06 0.108444)
(-1.10772e-06 1.54523e-06 0.108449)
(-8.62074e-07 -1.58654e-06 0.108444)
(4.26301e-05 -4.21707e-05 0.104887)
(-4.42854e-05 4.48627e-05 0.105073)
(-1.35212e-06 -9.08841e-07 0.108447)
(2.19655e-06 -1.02062e-06 0.108456)
(-1.51974e-06 -1.13246e-06 0.108447)
(4.46995e-05 4.4464e-05 0.105066)
(4.26268e-05 4.19608e-05 0.10489)
(-4.44169e-05 -4.50878e-05 0.105078)
(1.5784e-06 8.66196e-07 0.108455)
(-1.50806e-06 9.8615e-07 0.108449)
(1.98954e-06 1.00372e-06 0.108456)
(-1.7362e-06 1.03628e-06 0.108449)
(-4.25181e-05 4.2285e-05 0.104884)
(4.45512e-05 -4.4863e-05 0.105072)
(1.37092e-06 6.94998e-07 0.108459)
(1.67106e-06 -1.3331e-06 0.108448)
(1.49525e-06 9.99333e-07 0.108459)
(1.80471e-06 -1.57715e-06 0.108446)
(-9.01138e-07 -1.47006e-06 0.108444)
(-1.24098e-06 1.4605e-06 0.108449)
(-1.11131e-06 -1.75904e-06 0.108444)
(4.27435e-05 -4.22649e-05 0.104886)
(-4.42129e-05 4.48317e-05 0.105072)
(-1.30038e-06 -1.18068e-06 0.108447)
(2.08499e-06 -1.14274e-06 0.108456)
(-1.52732e-06 -1.25353e-06 0.108447)
(4.45815e-05 4.44232e-05 0.105066)
(4.27725e-05 4.20642e-05 0.10489)
(-4.44544e-05 -4.50395e-05 0.105078)
(1.75411e-06 9.77119e-07 0.108456)
(-1.58462e-06 1.02819e-06 0.108449)
(1.96931e-06 1.08176e-06 0.108457)
(-1.95031e-06 1.17527e-06 0.108449)
(-4.25348e-05 4.21129e-05 0.104884)
(4.43897e-05 -4.48093e-05 0.105072)
(1.486e-06 8.53811e-07 0.10846)
(1.75831e-06 -1.36215e-06 0.108446)
(1.45179e-06 1.26061e-06 0.10846)
(1.66341e-06 -1.57167e-06 0.108445)
(-1.16075e-06 -1.54634e-06 0.108444)
(-1.3775e-06 1.39726e-06 0.108449)
(-1.40299e-06 -1.60274e-06 0.108444)
(4.28073e-05 -4.22954e-05 0.104885)
(-4.42154e-05 4.48465e-05 0.105072)
(-1.3689e-06 -1.24344e-06 0.108447)
(1.94258e-06 -1.08942e-06 0.108457)
(-1.74768e-06 -1.17386e-06 0.108448)
(4.42816e-05 4.454e-05 0.105066)
(4.26644e-05 4.20953e-05 0.104891)
(-4.44767e-05 -4.4781e-05 0.105079)
(1.78363e-06 1.06063e-06 0.108457)
(-1.79109e-06 1.17728e-06 0.10845)