/*--------------------------------*- C++ -*----------------------------------*\
| =========                 |                                                 |
| \\      /  F ield         | OpenFOAM: The Open Source CFD Toolbox           |
|  \\    /   O peration     | Version:  v2012                                 |
|   \\  /    A nd           | Website:  www.openfoam.com                      |
|    \\/     M anipulation  |                                                 |
\*---------------------------------------------------------------------------*/
FoamFile
{
    version     2.0;
    format      ascii;
    class       volScalarField;
    location    "0.27";
    object      p;
}
// * * * * * * * * * * * * * * * * * * * * * * * * * * * * * * * * * * * * * //

dimensions      [0 2 -2 0 0 0 0];


internalField   nonuniform List<scalar> 
247104
(
1.87025e-06
1.87026e-06
1.87039e-06
1.87032e-06
1.8702e-06
1.87035e-06
1.87037e-06
1.87019e-06
1.87026e-06
1.87031e-06
1.87037e-06
1.8702e-06
1.87009e-06
1.87022e-06
1.87038e-06
1.87028e-06
1.87038e-06
1.87037e-06
1.87006e-06
1.86969e-06
1.86954e-06
1.86972e-06
1.87011e-06
1.87039e-06
1.87038e-06
1.87032e-06
1.8702e-06
1.86969e-06
1.8692e-06
1.86902e-06
1.86924e-06
1.86976e-06
1.87024e-06
1.87031e-06
1.87024e-06
1.8702e-06
1.87009e-06
1.86954e-06
1.86902e-06
1.86884e-06
1.86907e-06
1.86961e-06
1.87014e-06
1.87017e-06
1.87035e-06
1.87023e-06
1.86973e-06
1.86924e-06
1.86907e-06
1.86929e-06
1.86979e-06
1.87027e-06
1.87035e-06
1.87038e-06
1.87038e-06
1.87011e-06
1.86976e-06
1.86961e-06
1.86979e-06
1.87015e-06
1.87039e-06
1.87037e-06
1.87019e-06
1.87029e-06
1.87039e-06
1.87025e-06
1.87014e-06
1.87027e-06
1.87039e-06
1.87025e-06
1.87039e-06
1.87032e-06
1.87017e-06
1.87034e-06
1.87037e-06
1.83675e-06
1.83472e-06
1.83433e-06
1.83314e-06
1.83313e-06
1.83305e-06
1.83305e-06
1.83435e-06
1.83469e-06
1.83431e-06
1.83226e-06
1.82949e-06
1.82943e-06
1.82943e-06
1.82949e-06
1.83266e-06
1.83287e-06
1.83313e-06
1.82949e-06
1.82942e-06
1.82948e-06
1.82948e-06
1.82942e-06
1.82948e-06
1.83305e-06
1.83412e-06
1.83674e-06
1.83312e-06
1.82943e-06
1.82948e-06
1.82958e-06
1.82958e-06
1.82948e-06
1.82943e-06
1.833e-06
1.83463e-06
1.83473e-06
1.83305e-06
1.82943e-06
1.82948e-06
1.82958e-06
1.82958e-06
1.82948e-06
1.82943e-06
1.83317e-06
1.8331e-06
1.83305e-06
1.82948e-06
1.82942e-06
1.82948e-06
1.82948e-06
1.82942e-06
1.82949e-06
1.83295e-06
1.83399e-06
1.83435e-06
1.83266e-06
1.82949e-06
1.82943e-06
1.82943e-06
1.82949e-06
1.83284e-06
1.83306e-06
1.83448e-06
1.83468e-06
1.83288e-06
1.83305e-06
1.833e-06
1.83317e-06
1.83295e-06
1.83305e-06
1.83502e-06
1.83414e-06
1.83464e-06
1.8331e-06
1.83399e-06
1.83447e-06
1.81664e-06
1.81645e-06
1.8163e-06
1.81414e-06
1.81406e-06
1.81403e-06
1.81412e-06
1.8163e-06
1.81653e-06
1.81629e-06
1.81342e-06
1.81042e-06
1.81032e-06
1.81032e-06
1.81041e-06
1.81401e-06
1.81459e-06
1.81414e-06
1.81045e-06
1.8101e-06
1.81012e-06
1.81011e-06
1.81008e-06
1.81041e-06
1.81483e-06
1.81681e-06
1.81664e-06
1.81406e-06
1.81033e-06
1.81012e-06
1.81014e-06
1.81014e-06
1.81011e-06
1.81032e-06
1.81487e-06
1.81653e-06
1.81646e-06
1.81403e-06
1.81032e-06
1.81011e-06
1.81014e-06
1.81014e-06
1.81011e-06
1.81032e-06
1.81481e-06
1.81469e-06
1.81412e-06
1.8104e-06
1.81008e-06
1.81011e-06
1.81011e-06
1.81008e-06
1.81041e-06
1.81488e-06
1.81688e-06
1.8163e-06
1.814e-06
1.8104e-06
1.81032e-06
1.81032e-06
1.81041e-06
1.81448e-06
1.81475e-06
1.81678e-06
1.81653e-06
1.81459e-06
1.81482e-06
1.81487e-06
1.81481e-06
1.81488e-06
1.81475e-06
1.8167e-06
1.81681e-06
1.81653e-06
1.81468e-06
1.81688e-06
1.81678e-06
1.79748e-06
1.7973e-06
1.79717e-06
1.79495e-06
1.79487e-06
1.79478e-06
1.79497e-06
1.79716e-06
1.7974e-06
1.79716e-06
1.79415e-06
1.79121e-06
1.79117e-06
1.79117e-06
1.79122e-06
1.79477e-06
1.79552e-06
1.79495e-06
1.79121e-06
1.79107e-06
1.79107e-06
1.79107e-06
1.79107e-06
1.79122e-06
1.7957e-06
1.79766e-06
1.79747e-06
1.79487e-06
1.79117e-06
1.79107e-06
1.79107e-06
1.79107e-06
1.79107e-06
1.79117e-06
1.79577e-06
1.79737e-06
1.7973e-06
1.79478e-06
1.79117e-06
1.79107e-06
1.79107e-06
1.79107e-06
1.79107e-06
1.79117e-06
1.79574e-06
1.7956e-06
1.79498e-06
1.79122e-06
1.79107e-06
1.79107e-06
1.79107e-06
1.79107e-06
1.79122e-06
1.79576e-06
1.79771e-06
1.79716e-06
1.79477e-06
1.79122e-06
1.79117e-06
1.79117e-06
1.79122e-06
1.79551e-06
1.79567e-06
1.79767e-06
1.79741e-06
1.79552e-06
1.7957e-06
1.79578e-06
1.79574e-06
1.79576e-06
1.79566e-06
1.79766e-06
1.79767e-06
1.79737e-06
1.7956e-06
1.7977e-06
1.79766e-06
1.77826e-06
1.7781e-06
1.77793e-06
1.7757e-06
1.77561e-06
1.77549e-06
1.77571e-06
1.77792e-06
1.77816e-06
1.77793e-06
1.7749e-06
1.77195e-06
1.77194e-06
1.77194e-06
1.77195e-06
1.77547e-06
1.77629e-06
1.7757e-06
1.77195e-06
1.77191e-06
1.77191e-06
1.77191e-06
1.77191e-06
1.77195e-06
1.77648e-06
1.77844e-06
1.77827e-06
1.77561e-06
1.77194e-06
1.77191e-06
1.77191e-06
1.77191e-06
1.77191e-06
1.77194e-06
1.7766e-06
1.77818e-06
1.7781e-06
1.77549e-06
1.77194e-06
1.77191e-06
1.77191e-06
1.77191e-06
1.77191e-06
1.77194e-06
1.77658e-06
1.77642e-06
1.77571e-06
1.77195e-06
1.77191e-06
1.77191e-06
1.77191e-06
1.77191e-06
1.77195e-06
1.77656e-06
1.77852e-06
1.77792e-06
1.77547e-06
1.77195e-06
1.77194e-06
1.77194e-06
1.77195e-06
1.77637e-06
1.77646e-06
1.77844e-06
1.77816e-06
1.77629e-06
1.77648e-06
1.7766e-06
1.77658e-06
1.77655e-06
1.77646e-06
1.77841e-06
1.77844e-06
1.77818e-06
1.77642e-06
1.77852e-06
1.77844e-06
1.75904e-06
1.75887e-06
1.75869e-06
1.75646e-06
1.75637e-06
1.75625e-06
1.75647e-06
1.75868e-06
1.75892e-06
1.75869e-06
1.75566e-06
1.75271e-06
1.7527e-06
1.7527e-06
1.7527e-06
1.75621e-06
1.75705e-06
1.75646e-06
1.75271e-06
1.75269e-06
1.75269e-06
1.75269e-06
1.75269e-06
1.75271e-06
1.75724e-06
1.7592e-06
1.75904e-06
1.75637e-06
1.7527e-06
1.75269e-06
1.75269e-06
1.75269e-06
1.75269e-06
1.7527e-06
1.75738e-06
1.75896e-06
1.75887e-06
1.75625e-06
1.7527e-06
1.75269e-06
1.75269e-06
1.75269e-06
1.75269e-06
1.7527e-06
1.75736e-06
1.7572e-06
1.75647e-06
1.75271e-06
1.75269e-06
1.75269e-06
1.75269e-06
1.75269e-06
1.75271e-06
1.75732e-06
1.75929e-06
1.75868e-06
1.75621e-06
1.75271e-06
1.7527e-06
1.7527e-06
1.75271e-06
1.75715e-06
1.75723e-06
1.75919e-06
1.75892e-06
1.75705e-06
1.75724e-06
1.75737e-06
1.75736e-06
1.75732e-06
1.75724e-06
1.75915e-06
1.7592e-06
1.75897e-06
1.7572e-06
1.75929e-06
1.7592e-06
1.7398e-06
1.73963e-06
1.73945e-06
1.73722e-06
1.73713e-06
1.73701e-06
1.73723e-06
1.73944e-06
1.73968e-06
1.73945e-06
1.73642e-06
1.73347e-06
1.73347e-06
1.73346e-06
1.73347e-06
1.73696e-06
1.73781e-06
1.73722e-06
1.73347e-06
1.73346e-06
1.73346e-06
1.73346e-06
1.73346e-06
1.73347e-06
1.738e-06
1.73996e-06
1.73981e-06
1.73713e-06
1.73347e-06
1.73346e-06
1.73346e-06
1.73346e-06
1.73346e-06
1.73346e-06
1.73814e-06
1.73973e-06
1.73963e-06
1.73701e-06
1.73347e-06
1.73346e-06
1.73346e-06
1.73346e-06
1.73346e-06
1.73346e-06
1.73813e-06
1.73796e-06
1.73723e-06
1.73347e-06
1.73346e-06
1.73346e-06
1.73346e-06
1.73346e-06
1.73347e-06
1.73809e-06
1.74006e-06
1.73944e-06
1.73696e-06
1.73347e-06
1.73347e-06
1.73347e-06
1.73347e-06
1.73792e-06
1.738e-06
1.73996e-06
1.73968e-06
1.73781e-06
1.738e-06
1.73814e-06
1.73813e-06
1.73808e-06
1.73801e-06
1.73992e-06
1.73996e-06
1.73973e-06
1.73796e-06
1.74006e-06
1.73996e-06
1.72057e-06
1.7204e-06
1.72021e-06
1.71798e-06
1.71789e-06
1.71777e-06
1.71799e-06
1.7202e-06
1.72044e-06
1.72021e-06
1.71719e-06
1.71423e-06
1.71423e-06
1.71423e-06
1.71423e-06
1.71773e-06
1.71857e-06
1.71798e-06
1.71423e-06
1.71423e-06
1.71423e-06
1.71423e-06
1.71423e-06
1.71423e-06
1.71877e-06
1.72072e-06
1.72057e-06
1.71789e-06
1.71423e-06
1.71423e-06
1.71423e-06
1.71423e-06
1.71423e-06
1.71423e-06
1.7189e-06
1.7205e-06
1.7204e-06
1.71777e-06
1.71423e-06
1.71423e-06
1.71423e-06
1.71423e-06
1.71423e-06
1.71423e-06
1.7189e-06
1.71873e-06
1.71799e-06
1.71423e-06
1.71423e-06
1.71423e-06
1.71423e-06
1.71423e-06
1.71423e-06
1.71885e-06
1.72083e-06
1.7202e-06
1.71773e-06
1.71423e-06
1.71423e-06
1.71423e-06
1.71423e-06
1.71869e-06
1.71877e-06
1.72072e-06
1.72044e-06
1.71858e-06
1.71877e-06
1.7189e-06
1.7189e-06
1.71885e-06
1.71877e-06
1.72068e-06
1.72073e-06
1.7205e-06
1.71873e-06
1.72082e-06
1.72072e-06
1.70133e-06
1.70116e-06
1.70098e-06
1.69875e-06
1.69866e-06
1.69854e-06
1.69875e-06
1.70097e-06
1.70121e-06
1.70098e-06
1.69795e-06
1.69499e-06
1.69499e-06
1.69499e-06
1.69499e-06
1.69849e-06
1.69934e-06
1.69875e-06
1.69499e-06
1.69499e-06
1.69499e-06
1.69499e-06
1.69499e-06
1.69499e-06
1.69953e-06
1.70149e-06
1.70133e-06
1.69866e-06
1.69499e-06
1.69499e-06
1.69499e-06
1.69499e-06
1.69499e-06
1.69499e-06
1.69967e-06
1.70126e-06
1.70116e-06
1.69853e-06
1.69499e-06
1.69499e-06
1.69499e-06
1.69499e-06
1.69499e-06
1.69499e-06
1.69966e-06
1.69949e-06
1.69875e-06
1.69499e-06
1.69499e-06
1.69499e-06
1.69499e-06
1.69499e-06
1.69499e-06
1.69962e-06
1.70159e-06
1.70097e-06
1.69849e-06
1.69499e-06
1.69499e-06
1.69499e-06
1.69499e-06
1.69946e-06
1.69953e-06
1.70149e-06
1.70121e-06
1.69934e-06
1.69953e-06
1.69967e-06
1.69966e-06
1.69961e-06
1.69954e-06
1.70145e-06
1.70149e-06
1.70126e-06
1.69949e-06
1.70159e-06
1.70149e-06
1.6821e-06
1.68193e-06
1.68174e-06
1.67951e-06
1.67942e-06
1.6793e-06
1.67952e-06
1.68173e-06
1.68197e-06
1.68174e-06
1.67872e-06
1.67576e-06
1.67576e-06
1.67576e-06
1.67576e-06
1.67925e-06
1.6801e-06
1.67951e-06
1.67576e-06
1.67576e-06
1.67576e-06
1.67576e-06
1.67576e-06
1.67576e-06
1.6803e-06
1.68225e-06
1.6821e-06
1.67942e-06
1.67576e-06
1.67576e-06
1.67576e-06
1.67576e-06
1.67576e-06
1.67576e-06
1.68043e-06
1.68203e-06
1.68193e-06
1.6793e-06
1.67576e-06
1.67576e-06
1.67576e-06
1.67576e-06
1.67576e-06
1.67576e-06
1.68043e-06
1.68026e-06
1.67952e-06
1.67576e-06
1.67576e-06
1.67576e-06
1.67576e-06
1.67576e-06
1.67576e-06
1.68038e-06
1.68235e-06
1.68173e-06
1.67925e-06
1.67576e-06
1.67576e-06
1.67576e-06
1.67576e-06
1.68022e-06
1.6803e-06
1.68225e-06
1.68197e-06
1.6801e-06
1.68029e-06
1.68043e-06
1.68042e-06
1.68038e-06
1.6803e-06
1.68221e-06
1.68225e-06
1.68203e-06
1.68026e-06
1.68235e-06
1.68225e-06
1.66286e-06
1.66269e-06
1.66251e-06
1.66028e-06
1.66019e-06
1.66006e-06
1.66028e-06
1.6625e-06
1.66274e-06
1.6625e-06
1.65948e-06
1.65652e-06
1.65652e-06
1.65652e-06
1.65652e-06
1.66002e-06
1.66087e-06
1.66028e-06
1.65652e-06
1.65652e-06
1.65652e-06
1.65652e-06
1.65652e-06
1.65652e-06
1.66106e-06
1.66302e-06
1.66286e-06
1.66018e-06
1.65652e-06
1.65652e-06
1.65652e-06
1.65652e-06
1.65652e-06
1.65652e-06
1.6612e-06
1.66279e-06
1.66269e-06
1.66006e-06
1.65652e-06
1.65652e-06
1.65652e-06
1.65652e-06
1.65652e-06
1.65652e-06
1.66119e-06
1.66102e-06
1.66028e-06
1.65652e-06
1.65652e-06
1.65652e-06
1.65652e-06
1.65652e-06
1.65652e-06
1.66114e-06
1.66312e-06
1.6625e-06
1.66002e-06
1.65652e-06
1.65652e-06
1.65652e-06
1.65652e-06
1.66098e-06
1.66106e-06
1.66301e-06
1.66274e-06
1.66087e-06
1.66106e-06
1.6612e-06
1.66119e-06
1.66114e-06
1.66106e-06
1.66297e-06
1.66302e-06
1.66279e-06
1.66102e-06
1.66312e-06
1.66302e-06
1.64363e-06
1.64346e-06
1.64326e-06
1.64104e-06
1.64095e-06
1.64083e-06
1.64105e-06
1.64326e-06
1.6435e-06
1.64327e-06
1.64024e-06
1.63729e-06
1.63729e-06
1.63729e-06
1.63729e-06
1.64078e-06
1.64163e-06
1.64104e-06
1.63729e-06
1.63729e-06
1.63729e-06
1.63729e-06
1.63729e-06
1.63729e-06
1.64182e-06
1.64378e-06
1.64363e-06
1.64095e-06
1.63729e-06
1.63729e-06
1.63729e-06
1.63729e-06
1.63729e-06
1.63729e-06
1.64196e-06
1.64355e-06
1.64346e-06
1.64083e-06
1.63729e-06
1.63729e-06
1.63729e-06
1.63729e-06
1.63729e-06
1.63729e-06
1.64195e-06
1.64179e-06
1.64105e-06
1.63729e-06
1.63729e-06
1.63729e-06
1.63729e-06
1.63729e-06
1.63729e-06
1.64191e-06
1.64388e-06
1.64326e-06
1.64078e-06
1.63729e-06
1.63729e-06
1.63729e-06
1.63729e-06
1.64175e-06
1.64182e-06
1.64378e-06
1.6435e-06
1.64163e-06
1.64182e-06
1.64196e-06
1.64195e-06
1.64191e-06
1.64183e-06
1.64374e-06
1.64378e-06
1.64356e-06
1.64179e-06
1.64388e-06
1.64378e-06
1.62439e-06
1.62422e-06
1.62403e-06
1.6218e-06
1.62171e-06
1.62159e-06
1.62181e-06
1.62403e-06
1.62426e-06
1.62403e-06
1.62101e-06
1.61805e-06
1.61805e-06
1.61805e-06
1.61805e-06
1.62155e-06
1.62239e-06
1.6218e-06
1.61805e-06
1.61805e-06
1.61805e-06
1.61805e-06
1.61805e-06
1.61805e-06
1.62259e-06
1.62454e-06
1.62439e-06
1.62171e-06
1.61805e-06
1.61805e-06
1.61805e-06
1.61805e-06
1.61805e-06
1.61805e-06
1.62273e-06
1.62432e-06
1.62422e-06
1.62159e-06
1.61805e-06
1.61805e-06
1.61805e-06
1.61805e-06
1.61805e-06
1.61805e-06
1.62272e-06
1.62255e-06
1.62181e-06
1.61805e-06
1.61805e-06
1.61805e-06
1.61805e-06
1.61805e-06
1.61805e-06
1.62267e-06
1.62465e-06
1.62403e-06
1.62155e-06
1.61805e-06
1.61805e-06
1.61805e-06
1.61805e-06
1.62251e-06
1.62259e-06
1.62454e-06
1.62427e-06
1.6224e-06
1.62259e-06
1.62272e-06
1.62272e-06
1.62267e-06
1.62259e-06
1.6245e-06
1.62455e-06
1.62432e-06
1.62255e-06
1.62465e-06
1.62454e-06
1.60515e-06
1.60498e-06
1.60479e-06
1.60257e-06
1.60248e-06
1.60236e-06
1.60257e-06
1.60479e-06
1.60503e-06
1.6048e-06
1.60177e-06
1.59881e-06
1.59881e-06
1.59881e-06
1.59881e-06
1.60231e-06
1.60316e-06
1.60257e-06
1.59881e-06
1.59881e-06
1.59881e-06
1.59881e-06
1.59881e-06
1.59881e-06
1.60335e-06
1.60531e-06
1.60515e-06
1.60248e-06
1.59881e-06
1.59881e-06
1.59881e-06
1.59881e-06
1.59881e-06
1.59881e-06
1.60349e-06
1.60508e-06
1.60498e-06
1.60235e-06
1.59881e-06
1.59881e-06
1.59881e-06
1.59881e-06
1.59881e-06
1.59881e-06
1.60348e-06
1.60331e-06
1.60257e-06
1.59881e-06
1.59881e-06
1.59881e-06
1.59881e-06
1.59881e-06
1.59881e-06
1.60344e-06
1.60541e-06
1.60479e-06
1.60231e-06
1.59881e-06
1.59881e-06
1.59881e-06
1.59881e-06
1.60327e-06
1.60335e-06
1.60531e-06
1.60503e-06
1.60316e-06
1.60335e-06
1.60349e-06
1.60348e-06
1.60344e-06
1.60336e-06
1.60527e-06
1.60531e-06
1.60508e-06
1.60331e-06
1.60541e-06
1.60531e-06
1.58591e-06
1.58575e-06
1.58555e-06
1.58333e-06
1.58324e-06
1.58312e-06
1.58334e-06
1.58555e-06
1.58579e-06
1.58556e-06
1.58253e-06
1.57957e-06
1.57957e-06
1.57958e-06
1.57958e-06
1.58307e-06
1.58392e-06
1.58333e-06
1.57957e-06
1.57957e-06
1.57957e-06
1.57957e-06
1.57957e-06
1.57958e-06
1.58411e-06
1.58607e-06
1.58592e-06
1.58324e-06
1.57957e-06
1.57957e-06
1.57957e-06
1.57957e-06
1.57957e-06
1.57957e-06
1.58425e-06
1.58584e-06
1.58575e-06
1.58312e-06
1.57957e-06
1.57957e-06
1.57957e-06
1.57957e-06
1.57957e-06
1.57957e-06
1.58424e-06
1.58407e-06
1.58334e-06
1.57957e-06
1.57957e-06
1.57957e-06
1.57957e-06
1.57957e-06
1.57957e-06
1.5842e-06
1.58617e-06
1.58555e-06
1.58307e-06
1.57957e-06
1.57957e-06
1.57957e-06
1.57957e-06
1.58404e-06
1.58411e-06
1.58607e-06
1.58579e-06
1.58392e-06
1.58411e-06
1.58425e-06
1.58424e-06
1.5842e-06
1.58412e-06
1.58603e-06
1.58607e-06
1.58584e-06
1.58408e-06
1.58617e-06
1.58607e-06
1.56668e-06
1.56651e-06
1.56632e-06
1.56409e-06
1.564e-06
1.56388e-06
1.5641e-06
1.56631e-06
1.56655e-06
1.56632e-06
1.5633e-06
1.56034e-06
1.56034e-06
1.56034e-06
1.56034e-06
1.56383e-06
1.56468e-06
1.56409e-06
1.56034e-06
1.56034e-06
1.56034e-06
1.56034e-06
1.56034e-06
1.56034e-06
1.56487e-06
1.56683e-06
1.56668e-06
1.564e-06
1.56034e-06
1.56034e-06
1.56034e-06
1.56034e-06
1.56034e-06
1.56034e-06
1.56501e-06
1.5666e-06
1.56651e-06
1.56388e-06
1.56034e-06
1.56034e-06
1.56034e-06
1.56034e-06
1.56034e-06
1.56034e-06
1.565e-06
1.56484e-06
1.5641e-06
1.56034e-06
1.56034e-06
1.56034e-06
1.56034e-06
1.56034e-06
1.56034e-06
1.56496e-06
1.56693e-06
1.56631e-06
1.56383e-06
1.56034e-06
1.56034e-06
1.56034e-06
1.56034e-06
1.5648e-06
1.56488e-06
1.56683e-06
1.56655e-06
1.56468e-06
1.56487e-06
1.56501e-06
1.565e-06
1.56496e-06
1.56488e-06
1.56679e-06
1.56683e-06
1.56661e-06
1.56484e-06
1.56693e-06
1.56683e-06
1.54744e-06
1.54727e-06
1.54708e-06
1.54485e-06
1.54476e-06
1.54464e-06
1.54486e-06
1.54707e-06
1.54731e-06
1.54708e-06
1.54406e-06
1.5411e-06
1.5411e-06
1.5411e-06
1.5411e-06
1.54459e-06
1.54544e-06
1.54485e-06
1.5411e-06
1.5411e-06
1.5411e-06
1.5411e-06
1.5411e-06
1.5411e-06
1.54564e-06
1.54759e-06
1.54744e-06
1.54476e-06
1.5411e-06
1.5411e-06
1.5411e-06
1.5411e-06
1.5411e-06
1.5411e-06
1.54577e-06
1.54737e-06
1.54727e-06
1.54464e-06
1.5411e-06
1.5411e-06
1.5411e-06
1.5411e-06
1.5411e-06
1.5411e-06
1.54577e-06
1.5456e-06
1.54486e-06
1.5411e-06
1.5411e-06
1.5411e-06
1.5411e-06
1.5411e-06
1.5411e-06
1.54572e-06
1.54769e-06
1.54707e-06
1.54459e-06
1.5411e-06
1.5411e-06
1.5411e-06
1.5411e-06
1.54556e-06
1.54564e-06
1.54759e-06
1.54731e-06
1.54544e-06
1.54563e-06
1.54577e-06
1.54576e-06
1.54572e-06
1.54564e-06
1.54755e-06
1.54759e-06
1.54737e-06
1.5456e-06
1.54769e-06
1.54759e-06
1.5282e-06
1.52803e-06
1.52784e-06
1.52562e-06
1.52552e-06
1.5254e-06
1.52562e-06
1.52784e-06
1.52807e-06
1.52784e-06
1.52482e-06
1.52186e-06
1.52186e-06
1.52186e-06
1.52186e-06
1.52536e-06
1.5262e-06
1.52561e-06
1.52186e-06
1.52186e-06
1.52186e-06
1.52186e-06
1.52186e-06
1.52186e-06
1.5264e-06
1.52835e-06
1.5282e-06
1.52552e-06
1.52186e-06
1.52186e-06
1.52186e-06
1.52186e-06
1.52186e-06
1.52186e-06
1.52654e-06
1.52813e-06
1.52803e-06
1.5254e-06
1.52186e-06
1.52186e-06
1.52186e-06
1.52186e-06
1.52186e-06
1.52186e-06
1.52653e-06
1.52636e-06
1.52562e-06
1.52186e-06
1.52186e-06
1.52186e-06
1.52186e-06
1.52186e-06
1.52186e-06
1.52648e-06
1.52846e-06
1.52784e-06
1.52536e-06
1.52186e-06
1.52186e-06
1.52186e-06
1.52186e-06
1.52632e-06
1.5264e-06
1.52835e-06
1.52808e-06
1.52621e-06
1.5264e-06
1.52654e-06
1.52653e-06
1.52648e-06
1.5264e-06
1.52831e-06
1.52836e-06
1.52813e-06
1.52636e-06
1.52846e-06
1.52835e-06
1.50896e-06
1.50879e-06
1.5086e-06
1.50638e-06
1.50629e-06
1.50617e-06
1.50638e-06
1.5086e-06
1.50884e-06
1.5086e-06
1.50558e-06
1.50262e-06
1.50262e-06
1.50262e-06
1.50262e-06
1.50612e-06
1.50697e-06
1.50638e-06
1.50262e-06
1.50262e-06
1.50262e-06
1.50262e-06
1.50262e-06
1.50262e-06
1.50716e-06
1.50912e-06
1.50896e-06
1.50629e-06
1.50262e-06
1.50262e-06
1.50262e-06
1.50262e-06
1.50262e-06
1.50262e-06
1.5073e-06
1.50889e-06
1.50879e-06
1.50616e-06
1.50262e-06
1.50262e-06
1.50262e-06
1.50262e-06
1.50262e-06
1.50262e-06
1.50729e-06
1.50712e-06
1.50638e-06
1.50262e-06
1.50262e-06
1.50262e-06
1.50262e-06
1.50262e-06
1.50262e-06
1.50725e-06
1.50922e-06
1.5086e-06
1.50612e-06
1.50262e-06
1.50262e-06
1.50262e-06
1.50262e-06
1.50708e-06
1.50716e-06
1.50912e-06
1.50884e-06
1.50697e-06
1.50716e-06
1.5073e-06
1.50729e-06
1.50725e-06
1.50717e-06
1.50908e-06
1.50912e-06
1.50889e-06
1.50712e-06
1.50922e-06
1.50912e-06
1.48973e-06
1.48956e-06
1.48937e-06
1.48714e-06
1.48705e-06
1.48693e-06
1.48715e-06
1.48936e-06
1.4896e-06
1.48937e-06
1.48634e-06
1.48339e-06
1.48339e-06
1.48339e-06
1.48339e-06
1.48688e-06
1.48773e-06
1.48714e-06
1.48339e-06
1.48339e-06
1.48339e-06
1.48339e-06
1.48339e-06
1.48339e-06
1.48792e-06
1.48988e-06
1.48973e-06
1.48705e-06
1.48339e-06
1.48339e-06
1.48339e-06
1.48339e-06
1.48339e-06
1.48339e-06
1.48806e-06
1.48965e-06
1.48956e-06
1.48693e-06
1.48339e-06
1.48339e-06
1.48339e-06
1.48339e-06
1.48339e-06
1.48339e-06
1.48805e-06
1.48789e-06
1.48715e-06
1.48339e-06
1.48339e-06
1.48339e-06
1.48339e-06
1.48339e-06
1.48339e-06
1.48801e-06
1.48998e-06
1.48936e-06
1.48688e-06
1.48339e-06
1.48339e-06
1.48339e-06
1.48339e-06
1.48785e-06
1.48793e-06
1.48988e-06
1.4896e-06
1.48773e-06
1.48792e-06
1.48806e-06
1.48805e-06
1.48801e-06
1.48793e-06
1.48984e-06
1.48988e-06
1.48966e-06
1.48789e-06
1.48998e-06
1.48988e-06
1.47049e-06
1.47032e-06
1.47013e-06
1.4679e-06
1.46781e-06
1.46769e-06
1.46791e-06
1.47013e-06
1.47036e-06
1.47013e-06
1.46711e-06
1.46415e-06
1.46415e-06
1.46415e-06
1.46415e-06
1.46765e-06
1.46849e-06
1.4679e-06
1.46415e-06
1.46415e-06
1.46415e-06
1.46415e-06
1.46415e-06
1.46415e-06
1.46869e-06
1.47064e-06
1.47049e-06
1.46781e-06
1.46415e-06
1.46415e-06
1.46415e-06
1.46415e-06
1.46415e-06
1.46415e-06
1.46883e-06
1.47042e-06
1.47032e-06
1.46769e-06
1.46415e-06
1.46415e-06
1.46415e-06
1.46415e-06
1.46415e-06
1.46415e-06
1.46882e-06
1.46865e-06
1.46791e-06
1.46415e-06
1.46415e-06
1.46415e-06
1.46415e-06
1.46415e-06
1.46415e-06
1.46877e-06
1.47075e-06
1.47013e-06
1.46765e-06
1.46415e-06
1.46415e-06
1.46415e-06
1.46415e-06
1.46861e-06
1.46869e-06
1.47064e-06
1.47037e-06
1.4685e-06
1.46869e-06
1.46882e-06
1.46882e-06
1.46877e-06
1.46869e-06
1.4706e-06
1.47065e-06
1.47042e-06
1.46865e-06
1.47075e-06
1.47064e-06
1.45125e-06
1.45108e-06
1.45089e-06
1.44867e-06
1.44858e-06
1.44846e-06
1.44867e-06
1.45089e-06
1.45113e-06
1.4509e-06
1.44787e-06
1.44491e-06
1.44491e-06
1.44491e-06
1.44491e-06
1.44841e-06
1.44926e-06
1.44867e-06
1.44491e-06
1.44491e-06
1.44491e-06
1.44491e-06
1.44491e-06
1.44491e-06
1.44945e-06
1.45141e-06
1.45126e-06
1.44858e-06
1.44491e-06
1.44491e-06
1.44491e-06
1.44491e-06
1.44491e-06
1.44491e-06
1.44959e-06
1.45118e-06
1.45108e-06
1.44845e-06
1.44491e-06
1.44491e-06
1.44491e-06
1.44491e-06
1.44491e-06
1.44491e-06
1.44958e-06
1.44941e-06
1.44867e-06
1.44491e-06
1.44491e-06
1.44491e-06
1.44491e-06
1.44491e-06
1.44491e-06
1.44954e-06
1.45151e-06
1.45089e-06
1.44841e-06
1.44491e-06
1.44491e-06
1.44491e-06
1.44491e-06
1.44937e-06
1.44945e-06
1.45141e-06
1.45113e-06
1.44926e-06
1.44945e-06
1.44959e-06
1.44958e-06
1.44954e-06
1.44946e-06
1.45137e-06
1.45141e-06
1.45118e-06
1.44941e-06
1.45151e-06
1.45141e-06
1.43202e-06
1.43185e-06
1.43166e-06
1.42943e-06
1.42934e-06
1.42922e-06
1.42944e-06
1.43165e-06
1.43189e-06
1.43166e-06
1.42864e-06
1.42568e-06
1.42568e-06
1.42568e-06
1.42568e-06
1.42917e-06
1.43002e-06
1.42943e-06
1.42568e-06
1.42568e-06
1.42568e-06
1.42568e-06
1.42568e-06
1.42568e-06
1.43022e-06
1.43217e-06
1.43202e-06
1.42934e-06
1.42568e-06
1.42568e-06
1.42568e-06
1.42568e-06
1.42568e-06
1.42568e-06
1.43035e-06
1.43195e-06
1.43185e-06
1.42922e-06
1.42568e-06
1.42568e-06
1.42568e-06
1.42568e-06
1.42568e-06
1.42568e-06
1.43034e-06
1.43018e-06
1.42944e-06
1.42568e-06
1.42568e-06
1.42568e-06
1.42568e-06
1.42568e-06
1.42568e-06
1.4303e-06
1.43227e-06
1.43165e-06
1.42917e-06
1.42568e-06
1.42568e-06
1.42568e-06
1.42568e-06
1.43014e-06
1.43022e-06
1.43217e-06
1.43189e-06
1.43002e-06
1.43021e-06
1.43035e-06
1.43034e-06
1.4303e-06
1.43022e-06
1.43213e-06
1.43217e-06
1.43195e-06
1.43018e-06
1.43227e-06
1.43217e-06
1.41278e-06
1.41261e-06
1.41242e-06
1.4102e-06
1.41011e-06
1.40998e-06
1.4102e-06
1.41242e-06
1.41265e-06
1.41242e-06
1.4094e-06
1.40644e-06
1.40644e-06
1.40644e-06
1.40644e-06
1.40994e-06
1.41079e-06
1.4102e-06
1.40644e-06
1.40644e-06
1.40644e-06
1.40644e-06
1.40644e-06
1.40644e-06
1.41098e-06
1.41294e-06
1.41278e-06
1.41011e-06
1.40644e-06
1.40644e-06
1.40644e-06
1.40644e-06
1.40644e-06
1.40644e-06
1.41112e-06
1.41271e-06
1.41261e-06
1.40998e-06
1.40644e-06
1.40644e-06
1.40644e-06
1.40644e-06
1.40644e-06
1.40644e-06
1.41111e-06
1.41094e-06
1.4102e-06
1.40644e-06
1.40644e-06
1.40644e-06
1.40644e-06
1.40644e-06
1.40644e-06
1.41107e-06
1.41304e-06
1.41242e-06
1.40994e-06
1.40644e-06
1.40644e-06
1.40644e-06
1.40644e-06
1.4109e-06
1.41098e-06
1.41293e-06
1.41266e-06
1.41079e-06
1.41098e-06
1.41112e-06
1.41111e-06
1.41106e-06
1.41099e-06
1.41289e-06
1.41294e-06
1.41271e-06
1.41094e-06
1.41304e-06
1.41294e-06
1.39355e-06
1.39338e-06
1.39319e-06
1.39096e-06
1.39087e-06
1.39075e-06
1.39097e-06
1.39318e-06
1.39342e-06
1.39319e-06
1.39016e-06
1.38721e-06
1.38721e-06
1.38721e-06
1.38721e-06
1.3907e-06
1.39155e-06
1.39096e-06
1.38721e-06
1.38721e-06
1.38721e-06
1.38721e-06
1.38721e-06
1.38721e-06
1.39174e-06
1.3937e-06
1.39355e-06
1.39087e-06
1.38721e-06
1.38721e-06
1.38721e-06
1.38721e-06
1.38721e-06
1.38721e-06
1.39188e-06
1.39347e-06
1.39338e-06
1.39075e-06
1.38721e-06
1.38721e-06
1.38721e-06
1.38721e-06
1.38721e-06
1.38721e-06
1.39187e-06
1.39171e-06
1.39097e-06
1.38721e-06
1.38721e-06
1.38721e-06
1.38721e-06
1.38721e-06
1.38721e-06
1.39183e-06
1.3938e-06
1.39318e-06
1.3907e-06
1.38721e-06
1.38721e-06
1.38721e-06
1.38721e-06
1.39167e-06
1.39175e-06
1.3937e-06
1.39342e-06
1.39155e-06
1.39174e-06
1.39188e-06
1.39187e-06
1.39183e-06
1.39175e-06
1.39366e-06
1.3937e-06
1.39348e-06
1.39171e-06
1.3938e-06
1.3937e-06
1.37431e-06
1.37414e-06
1.37395e-06
1.37173e-06
1.37163e-06
1.37151e-06
1.37173e-06
1.37395e-06
1.37418e-06
1.37395e-06
1.37093e-06
1.36797e-06
1.36797e-06
1.36797e-06
1.36797e-06
1.37147e-06
1.37232e-06
1.37173e-06
1.36797e-06
1.36797e-06
1.36797e-06
1.36797e-06
1.36797e-06
1.36797e-06
1.37251e-06
1.37447e-06
1.37431e-06
1.37163e-06
1.36797e-06
1.36797e-06
1.36797e-06
1.36797e-06
1.36797e-06
1.36797e-06
1.37265e-06
1.37424e-06
1.37414e-06
1.37151e-06
1.36797e-06
1.36797e-06
1.36797e-06
1.36797e-06
1.36797e-06
1.36797e-06
1.37264e-06
1.37247e-06
1.37173e-06
1.36797e-06
1.36797e-06
1.36797e-06
1.36797e-06
1.36797e-06
1.36797e-06
1.37259e-06
1.37457e-06
1.37395e-06
1.37147e-06
1.36797e-06
1.36797e-06
1.36797e-06
1.36797e-06
1.37243e-06
1.37251e-06
1.37446e-06
1.37419e-06
1.37232e-06
1.37251e-06
1.37265e-06
1.37264e-06
1.37259e-06
1.37251e-06
1.37442e-06
1.37447e-06
1.37424e-06
1.37247e-06
1.37457e-06
1.37447e-06
1.35508e-06
1.35491e-06
1.35471e-06
1.35249e-06
1.3524e-06
1.35228e-06
1.3525e-06
1.35471e-06
1.35495e-06
1.35472e-06
1.35169e-06
1.34874e-06
1.34874e-06
1.34874e-06
1.34874e-06
1.35223e-06
1.35308e-06
1.35249e-06
1.34874e-06
1.34874e-06
1.34874e-06
1.34874e-06
1.34874e-06
1.34874e-06
1.35327e-06
1.35523e-06
1.35508e-06
1.3524e-06
1.34874e-06
1.34874e-06
1.34874e-06
1.34874e-06
1.34874e-06
1.34874e-06
1.35341e-06
1.355e-06
1.35491e-06
1.35228e-06
1.34874e-06
1.34874e-06
1.34874e-06
1.34874e-06
1.34874e-06
1.34874e-06
1.3534e-06
1.35323e-06
1.3525e-06
1.34874e-06
1.34874e-06
1.34874e-06
1.34874e-06
1.34874e-06
1.34874e-06
1.35336e-06
1.35533e-06
1.35471e-06
1.35223e-06
1.34874e-06
1.34874e-06
1.34874e-06
1.34874e-06
1.3532e-06
1.35327e-06
1.35523e-06
1.35495e-06
1.35308e-06
1.35327e-06
1.35341e-06
1.3534e-06
1.35336e-06
1.35328e-06
1.35519e-06
1.35523e-06
1.355e-06
1.35324e-06
1.35533e-06
1.35523e-06
1.33584e-06
1.33567e-06
1.33548e-06
1.33326e-06
1.33316e-06
1.33304e-06
1.33326e-06
1.33548e-06
1.33571e-06
1.33548e-06
1.33246e-06
1.3295e-06
1.3295e-06
1.3295e-06
1.3295e-06
1.333e-06
1.33384e-06
1.33325e-06
1.3295e-06
1.3295e-06
1.3295e-06
1.3295e-06
1.3295e-06
1.3295e-06
1.33404e-06
1.33599e-06
1.33584e-06
1.33316e-06
1.3295e-06
1.3295e-06
1.3295e-06
1.3295e-06
1.3295e-06
1.3295e-06
1.33418e-06
1.33577e-06
1.33567e-06
1.33304e-06
1.3295e-06
1.3295e-06
1.3295e-06
1.3295e-06
1.3295e-06
1.3295e-06
1.33417e-06
1.334e-06
1.33326e-06
1.3295e-06
1.3295e-06
1.3295e-06
1.3295e-06
1.3295e-06
1.3295e-06
1.33412e-06
1.3361e-06
1.33548e-06
1.333e-06
1.3295e-06
1.3295e-06
1.3295e-06
1.3295e-06
1.33396e-06
1.33404e-06
1.33599e-06
1.33572e-06
1.33385e-06
1.33404e-06
1.33418e-06
1.33417e-06
1.33412e-06
1.33404e-06
1.33595e-06
1.336e-06
1.33577e-06
1.334e-06
1.3361e-06
1.33599e-06
1.3166e-06
1.31644e-06
1.31624e-06
1.31402e-06
1.31393e-06
1.31381e-06
1.31403e-06
1.31624e-06
1.31648e-06
1.31625e-06
1.31322e-06
1.31027e-06
1.31027e-06
1.31027e-06
1.31027e-06
1.31376e-06
1.31461e-06
1.31402e-06
1.31027e-06
1.31027e-06
1.31027e-06
1.31027e-06
1.31027e-06
1.31027e-06
1.3148e-06
1.31676e-06
1.31661e-06
1.31393e-06
1.31027e-06
1.31027e-06
1.31027e-06
1.31027e-06
1.31027e-06
1.31027e-06
1.31494e-06
1.31653e-06
1.31644e-06
1.31381e-06
1.31027e-06
1.31027e-06
1.31027e-06
1.31027e-06
1.31027e-06
1.31027e-06
1.31493e-06
1.31476e-06
1.31403e-06
1.31027e-06
1.31027e-06
1.31027e-06
1.31027e-06
1.31027e-06
1.31027e-06
1.31489e-06
1.31686e-06
1.31624e-06
1.31376e-06
1.31027e-06
1.31027e-06
1.31027e-06
1.31027e-06
1.31473e-06
1.3148e-06
1.31676e-06
1.31648e-06
1.31461e-06
1.3148e-06
1.31494e-06
1.31493e-06
1.31489e-06
1.31481e-06
1.31672e-06
1.31676e-06
1.31653e-06
1.31477e-06
1.31686e-06
1.31676e-06
1.29737e-06
1.2972e-06
1.29701e-06
1.29479e-06
1.29469e-06
1.29457e-06
1.29479e-06
1.29701e-06
1.29724e-06
1.29701e-06
1.29399e-06
1.29103e-06
1.29103e-06
1.29103e-06
1.29103e-06
1.29453e-06
1.29538e-06
1.29478e-06
1.29103e-06
1.29103e-06
1.29103e-06
1.29103e-06
1.29103e-06
1.29103e-06
1.29557e-06
1.29753e-06
1.29737e-06
1.29469e-06
1.29103e-06
1.29103e-06
1.29103e-06
1.29103e-06
1.29103e-06
1.29103e-06
1.29571e-06
1.2973e-06
1.2972e-06
1.29457e-06
1.29103e-06
1.29103e-06
1.29103e-06
1.29103e-06
1.29103e-06
1.29103e-06
1.2957e-06
1.29553e-06
1.29479e-06
1.29103e-06
1.29103e-06
1.29103e-06
1.29103e-06
1.29103e-06
1.29103e-06
1.29565e-06
1.29763e-06
1.29701e-06
1.29453e-06
1.29103e-06
1.29103e-06
1.29103e-06
1.29103e-06
1.29549e-06
1.29557e-06
1.29752e-06
1.29725e-06
1.29538e-06
1.29557e-06
1.29571e-06
1.2957e-06
1.29565e-06
1.29557e-06
1.29748e-06
1.29753e-06
1.2973e-06
1.29553e-06
1.29763e-06
1.29752e-06
1.27813e-06
1.27797e-06
1.27778e-06
1.27555e-06
1.27546e-06
1.27534e-06
1.27556e-06
1.27777e-06
1.27801e-06
1.27778e-06
1.27475e-06
1.2718e-06
1.2718e-06
1.2718e-06
1.2718e-06
1.27529e-06
1.27614e-06
1.27555e-06
1.2718e-06
1.2718e-06
1.2718e-06
1.2718e-06
1.2718e-06
1.2718e-06
1.27633e-06
1.27829e-06
1.27814e-06
1.27546e-06
1.2718e-06
1.2718e-06
1.2718e-06
1.2718e-06
1.2718e-06
1.2718e-06
1.27647e-06
1.27806e-06
1.27797e-06
1.27534e-06
1.2718e-06
1.2718e-06
1.2718e-06
1.2718e-06
1.2718e-06
1.2718e-06
1.27646e-06
1.2763e-06
1.27556e-06
1.2718e-06
1.2718e-06
1.2718e-06
1.2718e-06
1.2718e-06
1.2718e-06
1.27642e-06
1.27839e-06
1.27777e-06
1.27529e-06
1.2718e-06
1.2718e-06
1.2718e-06
1.2718e-06
1.27626e-06
1.27634e-06
1.27829e-06
1.27801e-06
1.27614e-06
1.27633e-06
1.27647e-06
1.27646e-06
1.27642e-06
1.27634e-06
1.27825e-06
1.27829e-06
1.27807e-06
1.2763e-06
1.27839e-06
1.27829e-06
1.2589e-06
1.25873e-06
1.25854e-06
1.25632e-06
1.25623e-06
1.2561e-06
1.25632e-06
1.25854e-06
1.25878e-06
1.25854e-06
1.25552e-06
1.25256e-06
1.25256e-06
1.25256e-06
1.25256e-06
1.25606e-06
1.25691e-06
1.25632e-06
1.25256e-06
1.25256e-06
1.25256e-06
1.25256e-06
1.25256e-06
1.25256e-06
1.2571e-06
1.25906e-06
1.2589e-06
1.25623e-06
1.25256e-06
1.25256e-06
1.25256e-06
1.25256e-06
1.25256e-06
1.25256e-06
1.25724e-06
1.25883e-06
1.25873e-06
1.2561e-06
1.25256e-06
1.25256e-06
1.25256e-06
1.25256e-06
1.25256e-06
1.25256e-06
1.25723e-06
1.25706e-06
1.25632e-06
1.25256e-06
1.25256e-06
1.25256e-06
1.25256e-06
1.25256e-06
1.25256e-06
1.25719e-06
1.25916e-06
1.25854e-06
1.25606e-06
1.25256e-06
1.25256e-06
1.25256e-06
1.25256e-06
1.25702e-06
1.2571e-06
1.25905e-06
1.25878e-06
1.25691e-06