/*--------------------------------*- C++ -*----------------------------------*\
| =========                 |                                                 |
| \\      /  F ield         | OpenFOAM: The Open Source CFD Toolbox           |
|  \\    /   O peration     | Version:  v2012                                 |
|   \\  /    A nd           | Website:  www.openfoam.com                      |
|    \\/     M anipulation  |                                                 |
\*---------------------------------------------------------------------------*/
FoamFile
{
    version     2.0;
    format      ascii;
    class       volScalarField;
    location    "300";
    object      nut;
}
// * * * * * * * * * * * * * * * * * * * * * * * * * * * * * * * * * * * * * //

dimensions      [0 2 -1 0 0 0 0];


internalField   nonuniform List<scalar> 
171728
(
0.000123067
0.000139416
0.000137125
0.00013942
0.000139424
0.000139405
0.000137132
5.00207e-05
5.00178e-05
9.20841e-05
0.000123056
2.36101e-05
9.38332e-05
2.36129e-05
2.36116e-05
7.3769e-05
7.37644e-05
9.38358e-05
9.38351e-05
0.000134871
0.000121351
5.00133e-05
9.20749e-05
0.000134862
9.38279e-05
0.000121347
7.37523e-05
7.37673e-05
2.36119e-05
5.00133e-05
5.00232e-05
7.60379e-05
2.01034e-05
2.01067e-05
5.00211e-05
7.60632e-05
7.61034e-05
2.01047e-05
3.62748e-05
9.21779e-05
8.82383e-05
4.05439e-05
8.83135e-05
4.05432e-05
3.6274e-05
2.36122e-05
2.3615e-05
2.36137e-05
9.74367e-05
0.000112739
7.38008e-05
4.79416e-05
4.79508e-05
0.000112914
9.73874e-05
9.74491e-05
0.000112739
7.37962e-05
4.79343e-05
4.79363e-05
0.000112892
9.73983e-05
7.88811e-05
2.14922e-05
2.1489e-05
2.14943e-05
2.14911e-05
7.88637e-05
2.01049e-05
5.00171e-05
7.60334e-05
7.60756e-05
2.01028e-05
3.62724e-05
9.21718e-05
4.05436e-05
8.82197e-05
4.05429e-05
8.82952e-05
3.62709e-05
9.7444e-05
0.000112723
7.37801e-05
4.79338e-05
4.79351e-05
0.000112884
9.73917e-05
9.74385e-05
0.000112749
7.38012e-05
4.79413e-05
0.000112904
4.79507e-05
9.73811e-05
7.88815e-05
2.14886e-05
2.1492e-05
2.14907e-05
2.14941e-05
7.88639e-05
2.3614e-05
5.00215e-05
0.000120584
0.000119899
0.000130071
0.000130083
0.000137424
0.000130326
0.000130323
0.000119766
0.000119899
0.000130073
0.000130073
0.000137385
0.000130332
0.000130316
0.00011976
0.000120572
0.000129184
0.000122342
9.39814e-05
0.000107764
0.000122537
0.000107953
0.000128827
0.000129074
0.000122355
9.39799e-05
0.000107765
0.000107952
0.000122526
0.000128979
0.000129211
0.000122339
9.39676e-05
0.000107762
0.00010797
0.000122526
0.00012885
0.000133462
0.000121655
0.000117639
0.000135117
0.000117891
0.000135549
0.000133187
0.000129038
0.000122367
9.39529e-05
0.000107754
0.000107941
0.000122466
0.000129005
0.000133264
0.000121648
0.000135142
0.000117629
0.000135547
0.000117874
0.000133254
0.000233972
0.000233079
0.000233079
0.000233403
0.000232521
0.000227696
0.000227701
0.000223711
0.000230489
0.000220168
0.000220173
0.000208902
0.000227754
0.000211494
0.000211494
0.000193597
0.000224373
0.000202479
0.000202476
0.000179572
0.00022048
0.000193612
0.000193609
0.000167246
0.000216224
0.000185131
0.000185128
0.000156527
0.000211736
0.000177109
0.000177103
0.000147167
0.000207123
0.000169581
0.000169571
0.000138986
0.000202465
0.000162517
0.000162504
0.000131617
0.000197814
0.000155863
0.000155849
0.000125103
0.000193203
0.000149565
0.000149552
0.000118961
0.000188614
0.000143581
0.000143569
0.000113245
0.000184083
0.000137858
0.000137848
0.00010792
0.000179639
0.000132356
0.000132347
0.000102993
0.00017527
0.000127067
0.000127057
9.83383e-05
0.000170965
0.000122009
0.000122
9.41178e-05
0.000166711
0.000117215
0.000117205
9.04043e-05
0.000162508
0.000112709
0.000112696
8.74416e-05
0.00015833
0.000108551
0.000108539
8.51281e-05
0.000154172
0.000104793
0.000104779
8.33639e-05
0.000150043
0.00010146
0.000101446
8.2272e-05
0.000145953
9.86144e-05
9.8603e-05
8.18107e-05
0.000141924
9.62774e-05
9.62656e-05
8.19687e-05
0.000137982
9.44592e-05
9.44516e-05
8.24282e-05
0.000134142
9.31594e-05
9.31546e-05
8.33542e-05
0.000130461
9.23646e-05
9.23637e-05
8.47231e-05
0.000126965
9.20577e-05
9.20553e-05
8.66153e-05
0.000123689
9.22087e-05
9.22065e-05
8.85361e-05
0.00012068
9.27871e-05
9.27833e-05
9.08494e-05
0.000117949
9.37557e-05
9.37544e-05
9.32451e-05
0.000115533
9.50804e-05
9.50807e-05
9.55837e-05
0.000113453
9.67244e-05
9.67258e-05
9.81599e-05
0.000111724
9.86478e-05
9.86508e-05
0.000100589
0.000110357
0.000100816
0.00010082
0.000103338
0.000109357
0.000103199
0.000103203
0.000105703
0.000108724
0.000105765
0.000105769
0.000108587
0.000108454
0.000108486
0.000108488
0.000111245
0.000108541
0.000111332
0.000111335
0.000113743
0.000108975
0.000114276
0.000114282
0.000116394
0.000109744
0.000117304
0.000117311
0.000118928
0.000110832
0.000120401
0.000120407
0.000121632
0.000112224
0.000123545
0.000123551
0.000124214
0.000113902
0.000126718
0.000126725
0.000126816
0.000115846
0.000129907
0.00012991
0.000129465
0.000118036
0.000133096
0.000133094
0.000132013
0.000120451
0.000136272
0.000136267
0.000134556
0.000234263
0.000234459
0.000234459
0.000234261
0.00023446
0.000234461
0.000234275
0.000234275
0.000234275
0.000234275
0.000234458
0.000234462
0.000234261
0.000234457
0.000234461
0.000234267
0.000233392
0.000226066
0.000233078
0.000233079
0.00022928
0.000229275
0.000233405
0.000226072
0.000233075
0.000233073
0.000229269
0.000229267
0.000233081
0.000229273
0.000229273
0.00023339
0.000226063
0.000233081
0.000229278
0.000229278
0.000226074
0.000223702
0.000212038
0.000227703
0.000227696
0.0002222
0.000222192
0.000223709
0.000212051
0.000227688
0.000227686
0.00022218
0.000222176
0.000227691
0.000222196
0.000222181
0.000223701
0.000212041
0.000227698
0.0002222
0.000222192
0.000212038
0.000208905
0.00019689
0.000220172
0.000220164
0.000213719
0.000213714
0.000208916
0.000196895
0.00022015
0.000220146
0.000213703
0.000213693
0.00022015
0.00021372
0.000213693
0.000208908
0.000196877
0.000220162
0.000213722
0.00021371
0.000196885
0.000193628
0.00018275
0.00021149
0.000211485
0.000204723
0.00020472
0.000193635
0.00018276
0.000211477
0.000211465
0.000204721
0.000204704
0.000211464
0.000204732
0.000204698
0.000193625
0.000182724
0.000211482
0.000204729
0.000204717
0.000182753
0.000179613
0.000170183
0.000202468
0.000202466
0.000195782
0.000195783
0.000179616
0.000170196
0.000202469
0.000202451
0.00019579
0.000195772
0.000202444
0.000195797
0.000195762
0.000179621
0.000170182
0.000202464
0.000195794
0.000195782
0.000170193
0.000167295
0.000159213
0.000193595
0.000193596
0.000187189
0.000187191
0.000167305
0.000159236
0.000193604
0.000193586
0.0001872
0.000187184
0.000193576
0.00018721
0.000187172
0.000167285
0.000159223
0.000193597
0.000187206
0.000187196
0.000159214
0.000156545
0.000149628
0.000185109
0.000185111
0.000179041
0.000179044
0.000156544
0.000149654
0.000185121
0.000185105
0.000179055
0.000179039
0.000185093
0.000179068
0.000179029
0.00015655
0.000149637
0.000185117
0.000179063
0.000179054
0.000149636
0.000147184
0.00014116
0.000177081
0.000177084
0.000171386
0.000171388
0.000147198
0.000141186
0.000177096
0.000177079
0.000171403
0.000171383
0.00017707
0.000171417
0.000171377
0.000147187
0.000141101
0.000177096
0.000171408
0.000171403
0.000141093
0.000138961
0.000133652
0.00016955
0.000169552
0.00016421
0.00016421
0.00013896
0.000133585
0.000169568
0.000169545
0.000164231
0.000164203
0.000169541
0.000164242
0.000164202
0.00013904
0.000133566
0.000169568
0.00016423
0.00016423
0.000133592
0.000131655
0.000126735
0.000162485
0.000162485
0.000157457
0.000157455
0.000131742
0.000126817
0.000162507
0.000162477
0.000157481
0.000157447
0.000162477
0.000157491
0.00015745
0.000131734
0.000126732
0.000162505
0.000157477
0.000157479
0.000126721
0.000125124
0.000120474
0.00015583
0.000155828
0.000151074
0.00015107
0.000125016
0.000120545
0.000155854
0.000155819
0.0001511
0.000151062
0.000155823
0.000151109
0.000151068
0.000125102
0.000120466
0.000155852
0.000151095
0.000151098
0.000120466
0.000118964
0.000114498
0.000149529
0.000149527
0.000145012
0.000145009
0.000118883
0.000114504
0.000149556
0.000149518
0.00014504
0.000145001
0.000149524
0.00014505
0.000145009
0.000118946
0.000114433
0.000149555
0.000145036
0.00014504
0.000114423
0.000113184
0.000108834
0.000143545
0.00014354
0.000139229
0.000139224
0.000113175
0.000108812
0.000143572
0.000143533
0.000139257
0.000139217
0.00014354
0.000139267
0.000139227
0.000113219
0.000108804
0.000143572
0.000139254
0.000139259
0.000108783
0.000107933
0.000103642
0.000137822
0.000137817
0.000133678
0.000133672
0.000107922
0.000103629
0.00013785
0.000137809
0.000133705
0.000133664
0.000137819
0.000133715
0.000133677
0.000107907
0.000103627
0.000137851
0.000133704
0.000133708
0.000103631
0.000103001
9.90213e-05
0.000132321
0.000132314
0.000128335
0.000128328
0.000102997
9.90187e-05
0.000132347
0.000132306
0.000128361
0.000128321
0.00013232
0.000128373
0.000128336
0.000102988
9.9006e-05
0.000132352
0.000128362
0.000128368
9.90281e-05
9.83565e-05
9.48086e-05
0.00012703
0.000127024
0.000123218
0.000123212
9.83454e-05
9.48224e-05
0.000127055
0.000127016
0.000123243
0.000123205
0.000127032
0.000123258
0.000123223
9.83478e-05
9.48019e-05
0.000127064
0.000123247
0.000123251
9.4815e-05
9.41293e-05
9.11962e-05
0.00012197
0.000121964
0.000118326
0.000118322
9.41421e-05
9.12563e-05
0.000121995
0.000121957
0.000118352
0.000118314
0.000121976
0.000118368
0.000118335
9.41212e-05
9.11783e-05
0.000122005
0.000118353
0.000118359
9.13452e-05
9.05297e-05
8.81652e-05
0.000117172
0.000117166
0.00011375
0.000113746
9.04956e-05
8.81814e-05
0.000117198
0.000117158
0.000113776
0.000113738
0.000117177
0.000113792
0.000113756
9.05112e-05
8.81159e-05
0.000117207
0.00011378
0.000113781
8.82878e-05
8.75778e-05
8.56075e-05
0.000112664
0.000112662
0.000109495
0.000109492
8.75456e-05
8.56409e-05
0.000112689
0.000112652
0.00010952
0.000109483
0.000112673
0.000109538
0.000109502
8.75818e-05
8.55884e-05
0.000112698
0.000109526
0.000109525
8.57904e-05
8.5251e-05
8.37021e-05
0.000108508
0.000108506
0.000105628
0.000105622
8.51989e-05
8.40091e-05
0.000108531
0.000108496
0.000105649
0.000105615
0.000108518
0.000105668
0.000105635
8.52476e-05
8.37185e-05
0.000108541
0.000105657
0.000105657
8.39957e-05
8.35349e-05
8.26891e-05
0.000104753
0.000104747
0.000102208
0.000102196
8.33414e-05
8.27501e-05
0.000104772
0.000104739
0.000102224
0.000102189
0.000104761
0.000102243
0.000102213
8.3563e-05
8.26548e-05
0.000104783
0.000102231
0.000102234
8.28603e-05
8.24018e-05
8.22147e-05
0.000101421
0.000101413
9.92428e-05
9.92325e-05
8.22681e-05
8.2219e-05
0.000101439
0.000101406
9.92567e-05
9.92231e-05
0.000101429
9.92758e-05
9.92498e-05
8.23374e-05
8.21235e-05
0.000101452
9.92634e-05
9.92701e-05
8.22819e-05
8.17374e-05
8.216e-05
9.85804e-05
9.85709e-05
9.67814e-05
9.677e-05
8.17821e-05
8.22677e-05
9.85944e-05
9.85634e-05
9.67931e-05
9.67618e-05
9.85907e-05
9.68108e-05
9.67885e-05
8.17582e-05
8.22011e-05
9.86102e-05
9.67983e-05
9.68077e-05
8.19654e-05
8.17959e-05
8.26568e-05
9.62461e-05
9.62374e-05
9.48366e-05
9.48254e-05
8.17894e-05
8.2474e-05
9.62585e-05
9.6229e-05
9.48478e-05
9.48177e-05
9.62577e-05
9.48624e-05
9.48449e-05
8.17368e-05
8.26718e-05
9.62749e-05
9.48531e-05
9.48607e-05
8.25356e-05
8.23269e-05
8.35469e-05
9.44327e-05
9.44222e-05
9.34127e-05
9.33985e-05
8.24446e-05
8.35666e-05
9.44439e-05
9.44137e-05
9.34216e-05
9.33905e-05
9.44432e-05
9.34336e-05
9.34189e-05
8.23103e-05
8.3223e-05
9.44581e-05
9.34273e-05
9.34333e-05
8.35007e-05
8.33357e-05
8.4642e-05
9.31373e-05
9.31255e-05
9.24966e-05
9.24817e-05
8.32985e-05
8.47761e-05
9.31465e-05
9.31171e-05
9.2504e-05
9.24755e-05
9.31465e-05
9.25141e-05
9.25039e-05
8.34765e-05
8.44137e-05
9.31609e-05
9.2511e-05
9.25171e-05
8.49098e-05
8.47904e-05
8.61643e-05
9.23477e-05
9.23339e-05
9.20732e-05
9.20571e-05
8.46885e-05
8.6493e-05
9.23542e-05
9.23285e-05
9.20782e-05
9.20501e-05
9.23556e-05
9.20878e-05
9.20791e-05
8.49114e-05
8.60343e-05
9.2369e-05
9.2084e-05
9.20919e-05
8.6198e-05
8.66016e-05
8.81837e-05
9.20437e-05
9.20309e-05
9.21147e-05
9.20995e-05
8.64242e-05
8.84231e-05
9.2049e-05
9.20229e-05
9.21198e-05
9.20938e-05
9.20505e-05
9.21266e-05
9.21234e-05
8.66711e-05
8.82295e-05
9.20643e-05
9.21248e-05
9.21337e-05
8.82396e-05
8.85343e-05
9.02697e-05
9.21975e-05
9.21857e-05
9.25907e-05
9.25761e-05
8.83945e-05
9.02421e-05
9.22019e-05
9.21775e-05
9.25955e-05
9.25696e-05
9.22073e-05
9.26009e-05
9.25995e-05
8.85072e-05
9.04537e-05
9.22171e-05
9.25977e-05
9.26084e-05
9.01953e-05
9.07753e-05
9.27458e-05
9.27779e-05
9.27651e-05
9.34665e-05
9.34522e-05
9.08005e-05
9.24183e-05
9.27816e-05
9.27583e-05
9.34696e-05
9.34484e-05
9.27876e-05
9.34756e-05
9.34752e-05
9.04847e-05
9.27553e-05
9.27959e-05
9.34742e-05
9.34817e-05
9.24187e-05
9.2873e-05
9.51375e-05
9.37478e-05
9.37361e-05
9.47084e-05
9.46926e-05
9.31669e-05
9.47732e-05
9.37516e-05
9.37324e-05
9.4712e-05
9.46938e-05
9.37583e-05
9.47139e-05
9.47172e-05
9.29724e-05
9.51653e-05
9.37655e-05
9.47154e-05
9.47223e-05
9.48616e-05
9.5328e-05
9.73381e-05
9.5076e-05
9.50629e-05
9.62792e-05
9.62628e-05
9.55913e-05
9.74342e-05
9.50788e-05
9.50626e-05
9.62822e-05
9.62622e-05
9.50839e-05
9.62828e-05
9.62838e-05
9.52386e-05
9.76532e-05
9.509e-05
9.62848e-05
9.6288e-05
9.71921e-05
9.80859e-05
9.9913e-05
9.67232e-05
9.67082e-05
9.81394e-05
9.81215e-05
9.78255e-05
0.000100243
9.67273e-05
9.67073e-05
9.81419e-05
9.81215e-05
9.67281e-05
9.81401e-05
9.81432e-05
9.77462e-05
0.000100254
9.67343e-05
9.81426e-05
9.81472e-05
9.98203e-05
0.000100574
0.000102635
9.86501e-05
9.86333e-05
0.000100255
0.000100235
0.000100237
0.000102766
9.86539e-05
9.8634e-05
0.000100257
0.000100233
9.86545e-05
0.00010025
0.000100257
0.000100236
0.000102786
9.86584e-05
0.000100253
0.000100262
0.000102365
0.000103222
0.0001054
0.000100823
0.000100805
0.00010259
0.000102568
0.000102809
0.000105374
0.000100825
0.000100804
0.000102589
0.000102567
0.000100829
0.000102582
0.000102593
0.000102913
0.000105442
0.000100832
0.000102585
0.000102597
0.000105247
0.000105754
0.00010796
0.000103209
0.00010319
0.000105115
0.000105092
0.000105488
0.000107842
0.000103207
0.000103188
0.000105112
0.000105091
0.000103214
0.000105104
0.000105121
0.000105565
0.00010807
0.000103217
0.000105108
0.000105121
0.000107775
0.000108248
0.000110788
0.000105777
0.000105756
0.0001078
0.000107779
0.000108275
0.00011061
0.000105774
0.000105756
0.000107795
0.000107776
0.000105785
0.000107788
0.000107807
0.000108246
0.000110624
0.000105785
0.000107791
0.000107808
0.000110461
0.000110882
0.00011336
0.000108496
0.000108479
0.000110614
0.000110593
0.000111049
0.000113212
0.000108492
0.000108474
0.00011061
0.000110592
0.000108506
0.000110604
0.000110624
0.000110902
0.000113225
0.000108507
0.000110608
0.000110625
0.000113354
0.000113668
0.000115994
0.000111341
0.000111323
0.00011354
0.000113515
0.000113741
0.00011589
0.000111337
0.000111322
0.000113536
0.000113517
0.000111352
0.000113528
0.000113548
0.000113761
0.000115937
0.000111353
0.000113533
0.00011355
0.000116062
0.000116459
0.000118663
0.00011429
0.000114266
0.000116546
0.000116523
0.00011631
0.000118809
0.000114287
0.000114269
0.000116544
0.000116527
0.000114299
0.000116536
0.000116554
0.000116376
0.000118571
0.0001143
0.000116542
0.000116555
0.000118864
0.000119032
0.000121346
0.000117314
0.000117293
0.000119625
0.000119605
0.000118973
0.000121439
0.000117313
0.000117298
0.000119623
0.000119608
0.000117322
0.000119617
0.000119634
0.000119042
0.000121442
0.000117324
0.000119623
0.000119636
0.000121513
0.000121626
0.000124105
0.000120409
0.00012039
0.000122757
0.000122739
0.000121552
0.000124085
0.000120408
0.000120395
0.000122756
0.000122744
0.000120418
0.000122751
0.000122769
0.000121586
0.000124087
0.000120419
0.000122758
0.00012277
0.00012415
0.000124206
0.000126746
0.000123552
0.000123534
0.000125924
0.000125908
0.000124215
0.000126681
0.000123552
0.000123539
0.000125923
0.000125912
0.000123563
0.000125918
0.000125936
0.000124227
0.00012675
0.000123564
0.000125925
0.000125938
0.000126748
0.000126886
0.000129196
0.000126724
0.000126708
0.000129105
0.000129093
0.000126802
0.000129106
0.000126725
0.000126712
0.000129106
0.000129096
0.000126736
0.000129103
0.000129123
0.000126893
0.0001293
0.000126738
0.000129108
0.000129125
0.000129349
0.000129597
0.000131876
0.00012991
0.000129896
0.00013229
0.000132284
0.000129703
0.000131662
0.000129911
0.000129899
0.000132292
0.000132282
0.000129923
0.000132294
0.000132312
0.000129435
0.000131862
0.000129926
0.000132294
0.000132314
0.000131913
0.000132129
0.00013434
0.000133093
0.000133086
0.000135469
0.000135465
0.000132277
0.000134269
0.000133096
0.000133082
0.000135472
0.000135458
0.000133111
0.000135476
0.00013549
0.000132091
0.000134277
0.000133114
0.00013547
0.000135494
0.000134432
0.000134706
0.000136823
0.000136269
0.000136261
0.000138627
0.000138625
0.00013477
0.000136616
0.000136273
0.000136254
0.000138631
0.000138616
0.000136284
0.000138635
0.000138647
0.000134598
0.000136818
0.000136288
0.000138627
0.000138651
0.000136834
0.00023473
0.000234747
0.000234729
0.000234729
0.000235098
0.000234799
0.000234818
0.000234726
0.000235097
0.000234799
0.000234727
0.000234728
0.00023487
0.000233769
0.000233418
0.000104758
3.85259e-05
0.000128443
3.97902e-05
2.22051e-05
2.29005e-05
0.000104647
3.85546e-05
0.00012823
3.97885e-05
0.000233972
0.000233972
0.000233972
0.000232928
0.000232928
0.000232928
0.000232929
0.00020603
9.26577e-05
0.000233967
0.000231956
0.000222339
8.63489e-05
0.000233606
2.21837e-05
2.29017e-05
0.000206
0.000233966
9.27835e-05
0.000231957
0.000222311
0.000233604
8.62891e-05
4.73298e-05
4.7375e-05
0.000231284
4.35308e-05
4.36696e-05
7.26552e-05
4.24112e-05
8.13937e-05
4.3761e-05
2.47965e-05
2.54828e-05
7.26237e-05
4.24068e-05
8.13571e-05
4.37544e-05
0.000232521
0.000232521
0.000232522
0.000231062
0.000231062
0.000231061
0.000231062
0.000167341
7.88097e-05
0.000232058
0.000225977
0.000180017
7.39673e-05
0.000231348
2.4795e-05
2.54806e-05
0.000167272
0.000232055
7.88572e-05
0.000225983
0.000179962
0.000231342
7.39247e-05
3.89978e-05
3.9067e-05
0.000219421
3.6449e-05
3.64967e-05
5.63504e-05
4.55452e-05
6.12593e-05
4.64214e-05
2.60198e-05
2.61207e-05
5.63409e-05
4.55416e-05
6.12166e-05
4.64178e-05
0.00023049
0.000230488
0.000230488
0.000228502
0.000228504
0.000228501
0.0002285
0.00013856
6.69563e-05
0.000228593
0.000218071
0.000148009
6.31414e-05
0.000227479
2.60169e-05
2.61178e-05
0.00013849
0.000228588
6.70175e-05
0.000218073
0.000148011
0.000227473
6.30767e-05
3.31891e-05
3.32482e-05
0.000204421
3.19701e-05
3.20094e-05
4.70697e-05
4.75011e-05
4.99853e-05
4.80133e-05
2.6042e-05
2.59391e-05
4.7048e-05
4.74958e-05
4.99858e-05
4.80084e-05
0.000227755
0.000227752
0.000227751
0.000225272
0.000225274
0.00022527
0.000225268
0.000117508
5.78871e-05
0.000223644
0.000209246
0.000124586
5.51539e-05
0.000222227
2.60495e-05
2.59361e-05
0.000117515
0.000223642
5.78987e-05
0.000209245
0.000124619
0.000222224
5.51264e-05
3.06442e-05
3.06749e-05
0.000189635
3.03396e-05
3.03491e-05
4.14517e-05
4.85819e-05
4.33143e-05
4.88439e-05
2.56719e-05
2.55201e-05
4.14831e-05
4.85767e-05
4.32843e-05
4.88394e-05
0.000224375
0.000224371
0.000224369
0.000221493
0.000221496
0.000221491
0.000221488
0.00010211
5.16271e-05
0.000217674
0.000200234
0.000107397
4.97878e-05
0.00021608
2.56691e-05
2.55182e-05
0.000102125
0.000217675
5.16442e-05
0.000200231
0.000107398
0.00021608
4.97793e-05
3.02437e-05
3.02825e-05
0.000176271
3.04349e-05
3.04222e-05
3.81841e-05
4.909e-05
3.92597e-05
4.91971e-05
2.52349e-05
2.50948e-05
3.81774e-05
4.90852e-05
3.92447e-05
4.91926e-05
0.000220483
0.000220479
0.000220475
0.000217314
0.000217318
0.000217314
0.00021731
9.05139e-05
4.75437e-05
0.000211161
0.000191449
9.45207e-05
4.63675e-05
0.000209494
2.52323e-05
2.50929e-05
9.05215e-05
0.000211166
4.75369e-05
0.000191446
9.45355e-05
0.000209496
4.63596e-05
3.10888e-05
3.11125e-05
0.000164514
3.15423e-05
3.15354e-05
3.63813e-05
4.92665e-05
3.69658e-05
4.92937e-05
2.48467e-05
2.47339e-05
3.64053e-05
4.92625e-05
3.69474e-05
4.92903e-05
0.000216228
0.000216224
0.00021622
0.000212873
0.000212879
0.000212874
0.00021287
8.16242e-05
4.50027e-05
0.000204471
0.00018308
8.47654e-05
4.43635e-05
0.000202801
2.48442e-05
2.47312e-05
8.16249e-05
0.000204475
4.50062e-05
0.000183075
8.47686e-05
0.000202801
4.43536e-05
3.26536e-05
3.26876e-05
0.000154268
3.33296e-05
3.32873e-05
3.56974e-05
4.92843e-05
3.58361e-05
4.92822e-05
2.45344e-05
2.44485e-05
3.57062e-05
4.92813e-05
3.58356e-05
4.92793e-05
0.000211742
0.000211737
0.000211733
0.000208283
0.000208289
0.000208283
0.000208279
7.46984e-05
4.3644e-05
0.000197837
0.00017518
7.72254e-05
4.33784e-05
0.000196205
2.45316e-05
2.44435e-05
7.46961e-05
0.000197838
4.36373e-05
0.000175173
7.72202e-05
0.000196202
4.3333e-05
3.46905e-05
3.47193e-05
0.000145261
3.5474e-05
3.5428e-05
3.57994e-05
4.92438e-05
3.56526e-05
4.92422e-05
2.42944e-05
2.42303e-05
3.58113e-05
4.92407e-05
3.56525e-05
4.92392e-05
0.000207129
0.000207122
0.000207119
0.00020363
0.000203634
0.000203626
0.000203625
6.92648e-05
4.31267e-05
0.000191392
0.000167773
7.12969e-05
4.31088e-05
0.000189813
2.42938e-05
2.42265e-05
6.92594e-05
0.000191389
4.31526e-05
0.000167762
7.12905e-05
0.000189807
4.30549e-05
3.70257e-05
3.70321e-05
0.000137219
3.78241e-05
3.78125e-05
3.6622e-05
4.9219e-05
3.62136e-05
4.92165e-05
2.41173e-05
2.40674e-05
3.66024e-05
4.92159e-05
3.6212e-05
4.92136e-05
0.000202469
0.00020246
0.00020246
0.000198973
0.000198976
0.000198966
0.000198967
6.49226e-05
4.3266e-05
0.00018516
0.000160817
6.65734e-05
4.35352e-05
0.00018364
2.41153e-05
2.40701e-05
6.49155e-05
0.000185155
4.33151e-05
0.000160803
6.65849e-05
0.000183631
4.34241e-05
3.94834e-05
3.94917e-05
0.00013013
4.03412e-05
4.03215e-05
3.80232e-05
4.92162e-05
3.74348e-05
4.92235e-05
2.39881e-05
2.39574e-05
3.80087e-05
4.92133e-05
3.74207e-05
4.92208e-05
0.000197816
0.000197806
0.000197808
0.000194349
0.000194351
0.000194341
0.000194343
6.15353e-05
4.39374e-05
0.000179184
0.000154258
6.27889e-05
4.43872e-05
0.000177734
2.39823e-05
2.3955e-05
6.15287e-05
0.000179179
4.40194e-05
0.000154243
6.27865e-05
0.000177725
4.42682e-05
4.20074e-05
4.2009e-05
0.000123491
4.28618e-05
4.2842e-05
3.99928e-05
4.92301e-05
3.92235e-05
4.92541e-05
2.38925e-05
2.38761e-05
3.9989e-05
4.92277e-05
3.92304e-05
4.92518e-05
0.000193205
0.000193194
0.000193197
0.000189762
0.000189764
0.000189753
0.000189756
5.90134e-05
4.5084e-05
0.000173486
0.00014804
5.98276e-05
4.56389e-05
0.000172101
2.38901e-05
2.38742e-05
5.90069e-05
0.000173481
4.51595e-05
0.000148026
5.98255e-05
0.000172092
4.55378e-05
4.45021e-05
4.45033e-05
0.000117396
4.53161e-05
4.5298e-05
4.24804e-05
4.92663e-05
4.15526e-05
4.92922e-05
2.38279e-05
2.38194e-05
4.2498e-05
4.92637e-05
4.15539e-05
4.92899e-05
0.000188617
0.000188606
0.000188609
0.000185208
0.00018521
0.0001852
0.000185203
5.71871e-05
4.65789e-05
0.000168036
0.000142128
5.76784e-05
4.7223e-05
0.000166709
2.38256e-05
2.38176e-05
5.71465e-05
0.000168032
4.66738e-05
0.000142115
5.76755e-05
0.000166701
4.71415e-05
4.68829e-05
4.68947e-05
0.000111551
4.76606e-05
4.76379e-05
4.53828e-05
4.93077e-05
4.43431e-05
4.93322e-05
2.37824e-05
2.37794e-05
4.53802e-05
4.93051e-05
4.43668e-05
4.93305e-05
0.000184086
0.000184075
0.000184078
0.000180743
0.000180745
0.000180735
0.000180739
5.60378e-05
4.84256e-05
0.000162799
0.000136464
5.62494e-05
4.90708e-05
0.000161521
2.37801e-05
2.37775e-05
5.59272e-05
0.000162796
4.84619e-05
0.000136454
5.63091e-05
0.000161513
4.90907e-05
4.91354e-05
4.91189e-05
0.00010614
4.9832e-05
4.98417e-05
4.8635e-05
4.93478e-05
4.74848e-05
4.93706e-05
2.37495e-05
2.37488e-05
4.8612e-05
4.93453e-05
4.75154e-05
4.93683e-05
0.000179641
0.000179632
0.000179635
0.000176356
0.000176358
0.000176349
0.000176353
5.55086e-05
5.04591e-05
0.000157743
0.000131015
5.55086e-05
5.11431e-05
0.000156507
2.37472e-05
2.37466e-05
5.53853e-05
0.00015774
5.04378e-05
0.000131006
5.5582e-05
0.0001565
5.1177e-05
5.11987e-05
5.11836e-05
0.000101272
5.18323e-05
5.18466e-05
5.20651e-05
4.93844e-05
5.08575e-05
4.9405e-05
2.37259e-05
2.37231e-05
5.20648e-05
4.93819e-05
5.08795e-05
4.94035e-05
0.000175273
0.000175263
0.000175268
0.000172035
0.000172038
0.000172029
0.000172034
5.558e-05
5.2631e-05
0.000152838
0.000125784
5.53973e-05
5.336e-05
0.000151639
2.37242e-05
2.37207e-05
5.55302e-05
0.000152837
5.26451e-05
0.000125774
5.54711e-05
0.000151631
5.3342e-05
5.30805e-05
5.30743e-05
9.68649e-05
5.36525e-05
5.36496e-05
5.55456e-05
4.94176e-05
5.43369e-05
4.94368e-05
2.37068e-05
2.37023e-05
5.55887e-05
4.94154e-05
5.42971e-05
4.94345e-05
0.000170969
0.000170959
0.000170965
0.000167768
0.000167771
0.000167762
0.000167767
5.63338e-05
5.48884e-05
0.000148083
0.000120789
5.59447e-05
5.56687e-05
0.000146916
2.37051e-05
2.37001e-05
5.62735e-05
0.000148082
5.49038e-05
0.000120779
5.59798e-05
0.000146911
5.56143e-05
5.47805e-05
5.4763e-05
9.30072e-05
5.53148e-05
5.53116e-05
5.8976e-05
4.94485e-05
5.77185e-05
4.9462e-05
2.36893e-05
2.36848e-05
5.90092e-05
4.94471e-05
5.76956e-05
4.94585e-05
0.000166715
0.000166706
0.000166711
0.000163551
0.000163555
0.000163545
0.00016355
5.76267e-05
5.71318e-05
0.000143441
0.000116048
5.70472e-05
5.79565e-05
0.000142302
2.36874e-05
2.36825e-05
5.75663e-05
0.000143441
5.71827e-05
0.000116036
5.70916e-05
0.000142298
5.78884e-05
5.63108e-05
5.631e-05
8.97525e-05
5.67739e-05
5.67777e-05
6.21768e-05
4.94821e-05
6.0969e-05
4.9489e-05
2.36729e-05
2.36683e-05
6.21929e-05
4.948e-05
6.09616e-05
4.94862e-05
0.000162512
0.000162503
0.000162508
0.000159368
0.000159373
0.000159363
0.000159368
5.94286e-05
5.94234e-05
0.000138901
0.00011162
5.87138e-05
6.01227e-05
0.000137788
2.36709e-05
2.36664e-05
5.93361e-05
0.000138899
5.94346e-05
0.000111606
5.87603e-05
0.000137783
6.013e-05
5.76966e-05
5.76794e-05
8.69818e-05
5.81128e-05
5.81332e-05
6.51084e-05
4.95086e-05
6.39744e-05
4.95148e-05
2.36574e-05
2.36535e-05
6.5112e-05
4.95068e-05
6.39754e-05
4.95125e-05
0.000158335
0.000158326
0.000158331
0.000155205
0.00015521
0.0001552
0.000155206
6.16501e-05
6.16179e-05
0.000134462
0.000107551
6.08108e-05
6.22997e-05
0.000133383
2.36556e-05
2.36514e-05
6.16248e-05
0.000134461
6.16171e-05
0.000107538
6.08426e-05
0.000133378
6.23109e-05
5.89479e-05
5.89305e-05
8.48047e-05
5.9326e-05
5.93454e-05
6.77029e-05
4.95338e-05
6.67039e-05
4.95386e-05
2.36433e-05
2.36397e-05
6.77341e-05
4.95318e-05
6.66838e-05
4.95372e-05
0.000154178
0.000154168
0.000154173
0.000151067
0.000151072
0.000151061
0.000151068
6.41965e-05
6.37234e-05
0.000130141
0.000103923
6.32906e-05
6.43798e-05
0.000129103
2.36412e-05
2.36375e-05
6.41835e-05
0.00013014
6.37347e-05
0.00010391
6.32896e-05
0.0001291
6.43749e-05
6.00834e-05
6.00658e-05
8.33529e-05
6.04283e-05
6.0447e-05
7.0004e-05
4.95565e-05
6.91032e-05
4.95608e-05
2.36301e-05
2.36267e-05
7.00216e-05
4.95549e-05
6.90938e-05
4.95595e-05
0.000150049
0.000150039
0.000150045
0.000146963
0.000146968
0.000146957
0.000146965
6.69931e-05
6.57325e-05
0.000125984
0.000100699
6.60088e-05
6.63488e-05
0.000124964
2.36278e-05
2.36244e-05
6.69666e-05
0.00012599
6.57388e-05
0.000100686
6.60235e-05
0.000124958
6.63642e-05
6.11179e-05
6.1101e-05
8.24411e-05
6.14417e-05
6.1453e-05
7.19956e-05
4.95771e-05
7.12088e-05
4.95811e-05
2.36177e-05
2.36146e-05
7.20256e-05
4.95757e-05
7.12053e-05
4.958e-05
0.000145959
0.000145948
0.000145956
0.000142913
0.000142918
0.000142906
0.000142915
6.99032e-05
6.76514e-05
0.000122009
9.79785e-05
6.89169e-05
6.82271e-05
0.00012104
2.36154e-05
2.36123e-05
6.99018e-05
0.000122013
6.76356e-05
9.79662e-05
6.89269e-05
0.000121034
6.82236e-05
6.20514e-05
6.20484e-05
8.21879e-05
6.23762e-05
6.23638e-05
7.37419e-05
4.95911e-05
7.30483e-05
4.96027e-05
2.36063e-05
2.36035e-05
7.37626e-05
4.95887e-05
7.30568e-05
4.96012e-05
0.000141929
0.000141918
0.000141928
0.000138942
0.000138946
0.000138934
0.000138945
7.29067e-05
6.94433e-05
0.000118277
9.57709e-05
7.18984e-05
6.99887e-05
0.000117373
2.36039e-05
2.36011e-05
7.2884e-05
0.000118283
6.94403e-05
9.57592e-05
7.19096e-05
0.00011737
7.00003e-05
6.29187e-05
6.2919e-05
8.21777e-05
6.3216e-05
6.32153e-05
7.52914e-05
4.96097e-05
7.46586e-05
4.96164e-05
2.35959e-05
2.35934e-05
7.53103e-05
4.96048e-05
7.46597e-05
4.96161e-05
0.000137986
0.000137975
0.000137986
0.00013509
0.000135091
0.000135081
0.000135091
7.58488e-05
7.11415e-05
0.000114839
9.40836e-05
7.4894e-05
7.16525e-05
0.000114038
2.35934e-05
2.3591e-05
7.5861e-05
0.000114848
7.11336e-05
9.40758e-05
7.49077e-05
0.000114037
7.16632e-05
6.3725e-05
6.37278e-05
8.28846e-05
6.39901e-05
6.39963e-05
7.66388e-05
4.96208e-05
7.6091e-05
4.96297e-05
2.35864e-05
2.35842e-05
7.66574e-05
4.96192e-05
7.60917e-05
4.96277e-05
0.000134146
0.000134133
0.000134148
0.000131373
0.000131376
0.000131364
0.000131376
7.8774e-05
7.27362e-05
0.000111725
9.29108e-05
7.78383e-05
7.32238e-05
0.000110998
2.35839e-05
2.35818e-05
7.87882e-05
0.000111734
7.27291e-05
9.29064e-05
7.78203e-05
0.000110998
7.32287e-05
6.44671e-05
6.44691e-05
8.41432e-05
6.47174e-05
6.47135e-05
7.78617e-05
4.96332e-05
7.73605e-05
4.96406e-05
2.35779e-05
2.35761e-05
7.78776e-05
4.9633e-05
7.7363e-05
4.96389e-05
0.000130464
0.000130453
0.000130466
0.000127829
0.000127832
0.00012782
0.000127833
8.16139e-05
7.42371e-05
0.000108986
9.22402e-05
8.06873e-05
7.46985e-05
0.000108357
2.35754e-05
2.35736e-05
8.1623e-05
0.000108997
7.42388e-05
9.22367e-05
8.06737e-05
0.000108359
7.46999e-05
6.51537e-05
6.51545e-05
8.53696e-05
6.53833e-05
6.53832e-05
7.89699e-05
4.96461e-05
7.85055e-05
4.96494e-05
2.35703e-05
2.35688e-05
7.89826e-05
4.96431e-05
7.85107e-05
4.96493e-05
0.000126967
0.000126956
0.00012697
0.000124499
0.000124501
0.00012449
0.000124503
8.43177e-05
7.56553e-05
0.000106651
9.205e-05
8.34338e-05
7.60891e-05
0.000106127
2.35677e-05
2.35663e-05
8.43501e-05
0.000106662
7.56602e-05
9.20465e-05
8.34301e-05
0.000106129
7.61011e-05
6.57929e-05
6.57915e-05
8.71737e-05
6.60049e-05
6.60076e-05
7.99839e-05
4.96569e-05
7.95513e-05
4.96592e-05
2.35636e-05
2.35625e-05
7.99965e-05
4.96538e-05
7.95603e-05
4.96591e-05
0.000123692
0.000123681
0.000123696
0.000121426
0.000121427
0.000121416
0.00012143
8.69311e-05
7.69912e-05