/*--------------------------------*- C++ -*----------------------------------*\
| =========                 |                                                 |
| \\      /  F ield         | OpenFOAM: The Open Source CFD Toolbox           |
|  \\    /   O peration     | Version:  v2012                                 |
|   \\  /    A nd           | Website:  www.openfoam.com                      |
|    \\/     M anipulation  |                                                 |
\*---------------------------------------------------------------------------*/
FoamFile
{
    version     2.0;
    format      ascii;
    class       volScalarField;
    location    "0.47";
    object      p;
}
// * * * * * * * * * * * * * * * * * * * * * * * * * * * * * * * * * * * * * //

dimensions      [0 2 -2 0 0 0 0];


internalField   nonuniform List<scalar> 
247104
(
1.83128e-06
1.83115e-06
1.83131e-06
1.83129e-06
1.83122e-06
1.83131e-06
1.83129e-06
1.83109e-06
1.83115e-06
1.83122e-06
1.83128e-06
1.83113e-06
1.83105e-06
1.83115e-06
1.83129e-06
1.83119e-06
1.83131e-06
1.83128e-06
1.83098e-06
1.83062e-06
1.83048e-06
1.83066e-06
1.83103e-06
1.8313e-06
1.83131e-06
1.83129e-06
1.83113e-06
1.83062e-06
1.83014e-06
1.82997e-06
1.83019e-06
1.83069e-06
1.83118e-06
1.8313e-06
1.83128e-06
1.83122e-06
1.83105e-06
1.83048e-06
1.82997e-06
1.8298e-06
1.83002e-06
1.83056e-06
1.8311e-06
1.83121e-06
1.83131e-06
1.83115e-06
1.83066e-06
1.83019e-06
1.83002e-06
1.83024e-06
1.83073e-06
1.8312e-06
1.83132e-06
1.83129e-06
1.83129e-06
1.83103e-06
1.83069e-06
1.83056e-06
1.83073e-06
1.83107e-06
1.8313e-06
1.83129e-06
1.83108e-06
1.83119e-06
1.8313e-06
1.83118e-06
1.8311e-06
1.8312e-06
1.8313e-06
1.83116e-06
1.83131e-06
1.8313e-06
1.83121e-06
1.83132e-06
1.83129e-06
1.79874e-06
1.79678e-06
1.7961e-06
1.79487e-06
1.79488e-06
1.79482e-06
1.79482e-06
1.79616e-06
1.79635e-06
1.7961e-06
1.79404e-06
1.7915e-06
1.79149e-06
1.79149e-06
1.7915e-06
1.79442e-06
1.79471e-06
1.79487e-06
1.7915e-06
1.79144e-06
1.79151e-06
1.79151e-06
1.79144e-06
1.7915e-06
1.79481e-06
1.79621e-06
1.79874e-06
1.79487e-06
1.79149e-06
1.79151e-06
1.7916e-06
1.7916e-06
1.79151e-06
1.79149e-06
1.79484e-06
1.79648e-06
1.79678e-06
1.79482e-06
1.79149e-06
1.79151e-06
1.7916e-06
1.7916e-06
1.79151e-06
1.79149e-06
1.79499e-06
1.79509e-06
1.79482e-06
1.7915e-06
1.79144e-06
1.79151e-06
1.79151e-06
1.79144e-06
1.7915e-06
1.7948e-06
1.79615e-06
1.79616e-06
1.79442e-06
1.7915e-06
1.79149e-06
1.79149e-06
1.7915e-06
1.79469e-06
1.79484e-06
1.79632e-06
1.79634e-06
1.79471e-06
1.79481e-06
1.79485e-06
1.795e-06
1.7948e-06
1.79484e-06
1.79634e-06
1.79621e-06
1.79648e-06
1.7951e-06
1.79615e-06
1.79631e-06
1.77866e-06
1.77849e-06
1.77832e-06
1.77624e-06
1.77612e-06
1.77607e-06
1.77621e-06
1.77826e-06
1.77853e-06
1.77832e-06
1.77555e-06
1.77258e-06
1.77257e-06
1.77257e-06
1.77259e-06
1.77597e-06
1.77668e-06
1.77625e-06
1.77262e-06
1.7724e-06
1.77245e-06
1.77245e-06
1.77239e-06
1.77259e-06
1.77676e-06
1.77871e-06
1.77866e-06
1.77613e-06
1.77258e-06
1.77245e-06
1.77249e-06
1.77249e-06
1.77245e-06
1.77257e-06
1.7768e-06
1.77847e-06
1.7785e-06
1.77608e-06
1.77257e-06
1.77245e-06
1.77249e-06
1.77249e-06
1.77245e-06
1.77257e-06
1.77676e-06
1.77682e-06
1.77622e-06
1.77258e-06
1.7724e-06
1.77245e-06
1.77245e-06
1.7724e-06
1.77259e-06
1.77679e-06
1.7788e-06
1.77826e-06
1.77597e-06
1.77259e-06
1.77257e-06
1.77258e-06
1.77262e-06
1.77643e-06
1.77676e-06
1.77873e-06
1.77853e-06
1.77668e-06
1.77677e-06
1.77681e-06
1.77677e-06
1.7768e-06
1.77676e-06
1.77858e-06
1.77871e-06
1.77847e-06
1.77683e-06
1.7788e-06
1.77873e-06
1.75986e-06
1.75969e-06
1.75955e-06
1.75743e-06
1.75731e-06
1.75724e-06
1.75742e-06
1.75948e-06
1.75976e-06
1.75955e-06
1.75674e-06
1.75376e-06
1.75374e-06
1.75375e-06
1.75376e-06
1.75713e-06
1.7579e-06
1.75743e-06
1.75376e-06
1.75367e-06
1.75369e-06
1.75369e-06
1.75367e-06
1.75377e-06
1.75797e-06
1.75991e-06
1.75986e-06
1.75731e-06
1.75375e-06
1.75369e-06
1.7537e-06
1.7537e-06
1.75369e-06
1.75375e-06
1.75801e-06
1.75967e-06
1.7597e-06
1.75724e-06
1.75375e-06
1.75369e-06
1.7537e-06
1.7537e-06
1.75369e-06
1.75375e-06
1.75797e-06
1.75804e-06
1.75742e-06
1.75377e-06
1.75367e-06
1.75369e-06
1.75369e-06
1.75367e-06
1.75376e-06
1.75799e-06
1.75998e-06
1.75949e-06
1.75713e-06
1.75377e-06
1.75375e-06
1.75375e-06
1.75376e-06
1.75771e-06
1.758e-06
1.75995e-06
1.75977e-06
1.75791e-06
1.75797e-06
1.75801e-06
1.75798e-06
1.75799e-06
1.758e-06
1.75998e-06
1.75992e-06
1.75967e-06
1.75804e-06
1.75999e-06
1.75995e-06
1.74103e-06
1.74086e-06
1.7407e-06
1.73858e-06
1.73846e-06
1.73838e-06
1.73856e-06
1.74063e-06
1.7409e-06
1.7407e-06
1.7379e-06
1.7349e-06
1.7349e-06
1.7349e-06
1.7349e-06
1.73824e-06
1.73905e-06
1.73858e-06
1.7349e-06
1.73488e-06
1.73488e-06
1.73488e-06
1.73487e-06
1.7349e-06
1.73912e-06
1.74107e-06
1.74103e-06
1.73846e-06
1.7349e-06
1.73488e-06
1.73488e-06
1.73488e-06
1.73488e-06
1.7349e-06
1.73918e-06
1.74084e-06
1.74086e-06
1.73838e-06
1.7349e-06
1.73488e-06
1.73488e-06
1.73488e-06
1.73488e-06
1.7349e-06
1.73915e-06
1.73921e-06
1.73856e-06
1.7349e-06
1.73488e-06
1.73488e-06
1.73488e-06
1.73488e-06
1.7349e-06
1.73916e-06
1.74116e-06
1.74063e-06
1.73824e-06
1.7349e-06
1.7349e-06
1.7349e-06
1.7349e-06
1.73889e-06
1.73917e-06
1.74111e-06
1.7409e-06
1.73905e-06
1.73912e-06
1.73918e-06
1.73915e-06
1.73916e-06
1.73917e-06
1.74111e-06
1.74107e-06
1.74084e-06
1.73921e-06
1.74116e-06
1.74111e-06
1.72218e-06
1.72201e-06
1.72184e-06
1.71972e-06
1.7196e-06
1.71953e-06
1.7197e-06
1.72177e-06
1.72204e-06
1.72184e-06
1.71905e-06
1.71605e-06
1.71605e-06
1.71605e-06
1.71605e-06
1.71938e-06
1.72019e-06
1.71972e-06
1.71605e-06
1.71604e-06
1.71604e-06
1.71604e-06
1.71604e-06
1.71605e-06
1.72026e-06
1.72221e-06
1.72218e-06
1.7196e-06
1.71604e-06
1.71604e-06
1.71604e-06
1.71604e-06
1.71604e-06
1.71604e-06
1.72032e-06
1.722e-06
1.72201e-06
1.71953e-06
1.71605e-06
1.71604e-06
1.71604e-06
1.71604e-06
1.71604e-06
1.71604e-06
1.7203e-06
1.72036e-06
1.7197e-06
1.71605e-06
1.71604e-06
1.71604e-06
1.71604e-06
1.71604e-06
1.71605e-06
1.72031e-06
1.72232e-06
1.72177e-06
1.71938e-06
1.71605e-06
1.71605e-06
1.71605e-06
1.71605e-06
1.72004e-06
1.72032e-06
1.72225e-06
1.72204e-06
1.72019e-06
1.72025e-06
1.72032e-06
1.7203e-06
1.72031e-06
1.72032e-06
1.72225e-06
1.72221e-06
1.722e-06
1.72036e-06
1.72232e-06
1.72225e-06
1.70333e-06
1.70316e-06
1.70299e-06
1.70087e-06
1.70075e-06
1.70068e-06
1.70085e-06
1.70292e-06
1.70319e-06
1.70299e-06
1.7002e-06
1.6972e-06
1.6972e-06
1.6972e-06
1.6972e-06
1.70052e-06
1.70134e-06
1.70087e-06
1.6972e-06
1.69719e-06
1.69719e-06
1.69719e-06
1.69719e-06
1.6972e-06
1.7014e-06
1.70336e-06
1.70333e-06
1.70075e-06
1.6972e-06
1.69719e-06
1.6972e-06
1.6972e-06
1.69719e-06
1.6972e-06
1.70147e-06
1.70315e-06
1.70316e-06
1.70068e-06
1.6972e-06
1.69719e-06
1.6972e-06
1.6972e-06
1.69719e-06
1.6972e-06
1.70145e-06
1.70151e-06
1.70085e-06
1.6972e-06
1.69719e-06
1.69719e-06
1.69719e-06
1.69719e-06
1.6972e-06
1.70146e-06
1.70347e-06
1.70292e-06
1.70052e-06
1.6972e-06
1.6972e-06
1.6972e-06
1.6972e-06
1.7012e-06
1.70147e-06
1.7034e-06
1.70319e-06
1.70134e-06
1.7014e-06
1.70147e-06
1.70145e-06
1.70146e-06
1.70147e-06
1.7034e-06
1.70336e-06
1.70315e-06
1.70151e-06
1.70347e-06
1.7034e-06
1.68448e-06
1.68431e-06
1.68414e-06
1.68202e-06
1.6819e-06
1.68183e-06
1.682e-06
1.68407e-06
1.68434e-06
1.68414e-06
1.68135e-06
1.67835e-06
1.67835e-06
1.67835e-06
1.67835e-06
1.68167e-06
1.68249e-06
1.68202e-06
1.67835e-06
1.67835e-06
1.67835e-06
1.67835e-06
1.67835e-06
1.67835e-06
1.68255e-06
1.68451e-06
1.68448e-06
1.6819e-06
1.67835e-06
1.67835e-06
1.67835e-06
1.67835e-06
1.67835e-06
1.67835e-06
1.68263e-06
1.6843e-06
1.68431e-06
1.68183e-06
1.67835e-06
1.67835e-06
1.67835e-06
1.67835e-06
1.67835e-06
1.67835e-06
1.6826e-06
1.68266e-06
1.682e-06
1.67835e-06
1.67835e-06
1.67835e-06
1.67835e-06
1.67835e-06
1.67835e-06
1.68261e-06
1.68462e-06
1.68407e-06
1.68167e-06
1.67835e-06
1.67835e-06
1.67835e-06
1.67835e-06
1.68235e-06
1.68263e-06
1.68455e-06
1.68434e-06
1.68249e-06
1.68255e-06
1.68262e-06
1.6826e-06
1.68261e-06
1.68263e-06
1.68455e-06
1.68451e-06
1.6843e-06
1.68267e-06
1.68462e-06
1.68455e-06
1.66563e-06
1.66546e-06
1.66529e-06
1.66318e-06
1.66305e-06
1.66298e-06
1.66315e-06
1.66523e-06
1.66549e-06
1.66529e-06
1.6625e-06
1.6595e-06
1.6595e-06
1.6595e-06
1.6595e-06
1.66282e-06
1.66364e-06
1.66317e-06
1.6595e-06
1.6595e-06
1.6595e-06
1.6595e-06
1.6595e-06
1.6595e-06
1.6637e-06
1.66566e-06
1.66563e-06
1.66305e-06
1.6595e-06
1.6595e-06
1.6595e-06
1.6595e-06
1.6595e-06
1.6595e-06
1.66378e-06
1.66545e-06
1.66546e-06
1.66298e-06
1.6595e-06
1.6595e-06
1.6595e-06
1.6595e-06
1.6595e-06
1.6595e-06
1.66375e-06
1.66382e-06
1.66315e-06
1.6595e-06
1.6595e-06
1.6595e-06
1.6595e-06
1.6595e-06
1.6595e-06
1.66376e-06
1.66577e-06
1.66523e-06
1.66282e-06
1.6595e-06
1.6595e-06
1.6595e-06
1.6595e-06
1.6635e-06
1.66378e-06
1.6657e-06
1.6655e-06
1.66364e-06
1.6637e-06
1.66378e-06
1.66375e-06
1.66376e-06
1.66378e-06
1.6657e-06
1.66566e-06
1.66545e-06
1.66382e-06
1.66577e-06
1.6657e-06
1.64678e-06
1.64661e-06
1.64644e-06
1.64433e-06
1.64421e-06
1.64414e-06
1.64431e-06
1.64638e-06
1.64665e-06
1.64644e-06
1.64365e-06
1.64065e-06
1.64065e-06
1.64065e-06
1.64065e-06
1.64398e-06
1.64479e-06
1.64433e-06
1.64065e-06
1.64065e-06
1.64065e-06
1.64065e-06
1.64065e-06
1.64065e-06
1.64486e-06
1.64681e-06
1.64678e-06
1.64421e-06
1.64065e-06
1.64065e-06
1.64065e-06
1.64065e-06
1.64065e-06
1.64065e-06
1.64493e-06
1.6466e-06
1.64661e-06
1.64414e-06
1.64065e-06
1.64065e-06
1.64065e-06
1.64065e-06
1.64065e-06
1.64065e-06
1.6449e-06
1.64497e-06
1.64431e-06
1.64065e-06
1.64065e-06
1.64065e-06
1.64065e-06
1.64065e-06
1.64065e-06
1.64492e-06
1.64692e-06
1.64638e-06
1.64398e-06
1.64065e-06
1.64065e-06
1.64065e-06
1.64065e-06
1.64465e-06
1.64493e-06
1.64686e-06
1.64665e-06
1.64479e-06
1.64486e-06
1.64493e-06
1.6449e-06
1.64492e-06
1.64493e-06
1.64685e-06
1.64681e-06
1.6466e-06
1.64497e-06
1.64692e-06
1.64685e-06
1.62793e-06
1.62777e-06
1.6276e-06
1.62548e-06
1.62536e-06
1.62529e-06
1.62546e-06
1.62753e-06
1.6278e-06
1.6276e-06
1.62481e-06
1.6218e-06
1.6218e-06
1.6218e-06
1.6218e-06
1.62513e-06
1.62595e-06
1.62548e-06
1.6218e-06
1.6218e-06
1.6218e-06
1.6218e-06
1.6218e-06
1.6218e-06
1.62601e-06
1.62796e-06
1.62793e-06
1.62536e-06
1.6218e-06
1.6218e-06
1.6218e-06
1.6218e-06
1.6218e-06
1.6218e-06
1.62608e-06
1.62776e-06
1.62777e-06
1.62529e-06
1.6218e-06
1.6218e-06
1.6218e-06
1.6218e-06
1.6218e-06
1.6218e-06
1.62606e-06
1.62612e-06
1.62546e-06
1.6218e-06
1.6218e-06
1.6218e-06
1.6218e-06
1.6218e-06
1.6218e-06
1.62607e-06
1.62807e-06
1.62753e-06
1.62513e-06
1.6218e-06
1.6218e-06
1.6218e-06
1.6218e-06
1.6258e-06
1.62608e-06
1.62801e-06
1.6278e-06
1.62595e-06
1.62601e-06
1.62608e-06
1.62605e-06
1.62607e-06
1.62608e-06
1.62801e-06
1.62797e-06
1.62776e-06
1.62612e-06
1.62807e-06
1.62801e-06
1.60909e-06
1.60892e-06
1.60875e-06
1.60663e-06
1.60651e-06
1.60644e-06
1.60661e-06
1.60868e-06
1.60895e-06
1.60875e-06
1.60596e-06
1.60296e-06
1.60296e-06
1.60296e-06
1.60296e-06
1.60628e-06
1.6071e-06
1.60663e-06
1.60296e-06
1.60296e-06
1.60296e-06
1.60296e-06
1.60296e-06
1.60296e-06
1.60716e-06
1.60912e-06
1.60909e-06
1.60651e-06
1.60296e-06
1.60296e-06
1.60296e-06
1.60296e-06
1.60296e-06
1.60296e-06
1.60723e-06
1.60891e-06
1.60892e-06
1.60644e-06
1.60296e-06
1.60296e-06
1.60296e-06
1.60296e-06
1.60296e-06
1.60296e-06
1.60721e-06
1.60727e-06
1.60661e-06
1.60296e-06
1.60296e-06
1.60296e-06
1.60296e-06
1.60296e-06
1.60296e-06
1.60722e-06
1.60923e-06
1.60868e-06
1.60628e-06
1.60296e-06
1.60296e-06
1.60296e-06
1.60296e-06
1.60696e-06
1.60723e-06
1.60916e-06
1.60895e-06
1.6071e-06
1.60716e-06
1.60723e-06
1.60721e-06
1.60722e-06
1.60724e-06
1.60916e-06
1.60912e-06
1.60891e-06
1.60727e-06
1.60923e-06
1.60916e-06
1.59024e-06
1.59007e-06
1.5899e-06
1.58778e-06
1.58766e-06
1.58759e-06
1.58776e-06
1.58983e-06
1.5901e-06
1.5899e-06
1.58711e-06
1.58411e-06
1.58411e-06
1.58411e-06
1.58411e-06
1.58743e-06
1.58825e-06
1.58778e-06
1.58411e-06
1.58411e-06
1.58411e-06
1.58411e-06
1.58411e-06
1.58411e-06
1.58831e-06
1.59027e-06
1.59024e-06
1.58766e-06
1.58411e-06
1.58411e-06
1.58411e-06
1.58411e-06
1.58411e-06
1.58411e-06
1.58839e-06
1.59006e-06
1.59007e-06
1.58759e-06
1.58411e-06
1.58411e-06
1.58411e-06
1.58411e-06
1.58411e-06
1.58411e-06
1.58836e-06
1.58843e-06
1.58776e-06
1.58411e-06
1.58411e-06
1.58411e-06
1.58411e-06
1.58411e-06
1.58411e-06
1.58837e-06
1.59038e-06
1.58984e-06
1.58743e-06
1.58411e-06
1.58411e-06
1.58411e-06
1.58411e-06
1.58811e-06
1.58839e-06
1.59031e-06
1.5901e-06
1.58825e-06
1.58831e-06
1.58839e-06
1.58836e-06
1.58837e-06
1.58839e-06
1.59031e-06
1.59027e-06
1.59006e-06
1.58843e-06
1.59038e-06
1.59031e-06
1.57139e-06
1.57122e-06
1.57105e-06
1.56894e-06
1.56882e-06
1.56875e-06
1.56892e-06
1.57099e-06
1.57126e-06
1.57105e-06
1.56826e-06
1.56526e-06
1.56526e-06
1.56526e-06
1.56526e-06
1.56859e-06
1.5694e-06
1.56894e-06
1.56526e-06
1.56526e-06
1.56526e-06
1.56526e-06
1.56526e-06
1.56526e-06
1.56947e-06
1.57142e-06
1.57139e-06
1.56881e-06
1.56526e-06
1.56526e-06
1.56526e-06
1.56526e-06
1.56526e-06
1.56526e-06
1.56954e-06
1.57121e-06
1.57122e-06
1.56875e-06
1.56526e-06
1.56526e-06
1.56526e-06
1.56526e-06
1.56526e-06
1.56526e-06
1.56951e-06
1.56958e-06
1.56892e-06
1.56526e-06
1.56526e-06
1.56526e-06
1.56526e-06
1.56526e-06
1.56526e-06
1.56953e-06
1.57153e-06
1.57099e-06
1.56859e-06
1.56526e-06
1.56526e-06
1.56526e-06
1.56526e-06
1.56926e-06
1.56954e-06
1.57147e-06
1.57126e-06
1.5694e-06
1.56946e-06
1.56954e-06
1.56951e-06
1.56952e-06
1.56954e-06
1.57146e-06
1.57142e-06
1.57121e-06
1.56958e-06
1.57153e-06
1.57146e-06
1.55254e-06
1.55238e-06
1.5522e-06
1.55009e-06
1.54997e-06
1.5499e-06
1.55007e-06
1.55214e-06
1.55241e-06
1.5522e-06
1.54941e-06
1.54641e-06
1.54641e-06
1.54641e-06
1.54641e-06
1.54974e-06
1.55055e-06
1.55009e-06
1.54641e-06
1.54641e-06
1.54641e-06
1.54641e-06
1.54641e-06
1.54641e-06
1.55062e-06
1.55257e-06
1.55254e-06
1.54997e-06
1.54641e-06
1.54641e-06
1.54641e-06
1.54641e-06
1.54641e-06
1.54641e-06
1.55069e-06
1.55237e-06
1.55238e-06
1.5499e-06
1.54641e-06
1.54641e-06
1.54641e-06
1.54641e-06
1.54641e-06
1.54641e-06
1.55066e-06
1.55073e-06
1.55007e-06
1.54641e-06
1.54641e-06
1.54641e-06
1.54641e-06
1.54641e-06
1.54641e-06
1.55068e-06
1.55268e-06
1.55214e-06
1.54974e-06
1.54641e-06
1.54641e-06
1.54641e-06
1.54641e-06
1.55041e-06
1.55069e-06
1.55262e-06
1.55241e-06
1.55056e-06
1.55062e-06
1.55069e-06
1.55066e-06
1.55068e-06
1.55069e-06
1.55262e-06
1.55258e-06
1.55237e-06
1.55073e-06
1.55268e-06
1.55262e-06
1.53369e-06
1.53353e-06
1.53335e-06
1.53124e-06
1.53112e-06
1.53105e-06
1.53122e-06
1.53329e-06
1.53356e-06
1.53336e-06
1.53057e-06
1.52756e-06
1.52756e-06
1.52756e-06
1.52756e-06
1.53089e-06
1.53171e-06
1.53124e-06
1.52756e-06
1.52756e-06
1.52756e-06
1.52756e-06
1.52756e-06
1.52756e-06
1.53177e-06
1.53372e-06
1.53369e-06
1.53112e-06
1.52756e-06
1.52756e-06
1.52756e-06
1.52756e-06
1.52756e-06
1.52756e-06
1.53184e-06
1.53352e-06
1.53353e-06
1.53105e-06
1.52756e-06
1.52756e-06
1.52756e-06
1.52756e-06
1.52756e-06
1.52756e-06
1.53182e-06
1.53188e-06
1.53122e-06
1.52756e-06
1.52756e-06
1.52756e-06
1.52756e-06
1.52756e-06
1.52756e-06
1.53183e-06
1.53384e-06
1.53329e-06
1.53089e-06
1.52756e-06
1.52756e-06
1.52756e-06
1.52756e-06
1.53156e-06
1.53184e-06
1.53377e-06
1.53356e-06
1.53171e-06
1.53177e-06
1.53184e-06
1.53181e-06
1.53183e-06
1.53184e-06
1.53377e-06
1.53373e-06
1.53352e-06
1.53188e-06
1.53383e-06
1.53377e-06
1.51485e-06
1.51468e-06
1.51451e-06
1.51239e-06
1.51227e-06
1.5122e-06
1.51237e-06
1.51444e-06
1.51471e-06
1.51451e-06
1.51172e-06
1.50872e-06
1.50872e-06
1.50872e-06
1.50872e-06
1.51204e-06
1.51286e-06
1.51239e-06
1.50872e-06
1.50872e-06
1.50872e-06
1.50872e-06
1.50872e-06
1.50872e-06
1.51292e-06
1.51488e-06
1.51485e-06
1.51227e-06
1.50872e-06
1.50872e-06
1.50872e-06
1.50872e-06
1.50872e-06
1.50872e-06
1.51299e-06
1.51467e-06
1.51468e-06
1.5122e-06
1.50872e-06
1.50872e-06
1.50872e-06
1.50872e-06
1.50872e-06
1.50872e-06
1.51297e-06
1.51303e-06
1.51237e-06
1.50872e-06
1.50872e-06
1.50872e-06
1.50872e-06
1.50872e-06
1.50872e-06
1.51298e-06
1.51499e-06
1.51444e-06
1.51204e-06
1.50872e-06
1.50872e-06
1.50872e-06
1.50872e-06
1.51272e-06
1.51299e-06
1.51492e-06
1.51471e-06
1.51286e-06
1.51292e-06
1.51299e-06
1.51297e-06
1.51298e-06
1.51299e-06
1.51492e-06
1.51488e-06
1.51467e-06
1.51303e-06
1.51499e-06
1.51492e-06
1.496e-06
1.49583e-06
1.49566e-06
1.49354e-06
1.49342e-06
1.49335e-06
1.49352e-06
1.49559e-06
1.49586e-06
1.49566e-06
1.49287e-06
1.48987e-06
1.48987e-06
1.48987e-06
1.48987e-06
1.49319e-06
1.49401e-06
1.49354e-06
1.48987e-06
1.48987e-06
1.48987e-06
1.48987e-06
1.48987e-06
1.48987e-06
1.49407e-06
1.49603e-06
1.496e-06
1.49342e-06
1.48987e-06
1.48987e-06
1.48987e-06
1.48987e-06
1.48987e-06
1.48987e-06
1.49415e-06
1.49582e-06
1.49583e-06
1.49335e-06
1.48987e-06
1.48987e-06
1.48987e-06
1.48987e-06
1.48987e-06
1.48987e-06
1.49412e-06
1.49419e-06
1.49352e-06
1.48987e-06
1.48987e-06
1.48987e-06
1.48987e-06
1.48987e-06
1.48987e-06
1.49413e-06
1.49614e-06
1.49559e-06
1.49319e-06
1.48987e-06
1.48987e-06
1.48987e-06
1.48987e-06
1.49387e-06
1.49415e-06
1.49607e-06
1.49586e-06
1.49401e-06
1.49407e-06
1.49414e-06
1.49412e-06
1.49413e-06
1.49415e-06
1.49607e-06
1.49603e-06
1.49582e-06
1.49419e-06
1.49614e-06
1.49607e-06
1.47715e-06
1.47698e-06
1.47681e-06
1.4747e-06
1.47457e-06
1.4745e-06
1.47467e-06
1.47675e-06
1.47702e-06
1.47681e-06
1.47402e-06
1.47102e-06
1.47102e-06
1.47102e-06
1.47102e-06
1.47435e-06
1.47516e-06
1.4747e-06
1.47102e-06
1.47102e-06
1.47102e-06
1.47102e-06
1.47102e-06
1.47102e-06
1.47522e-06
1.47718e-06
1.47715e-06
1.47457e-06
1.47102e-06
1.47102e-06
1.47102e-06
1.47102e-06
1.47102e-06
1.47102e-06
1.4753e-06
1.47697e-06
1.47698e-06
1.4745e-06
1.47102e-06
1.47102e-06
1.47102e-06
1.47102e-06
1.47102e-06
1.47102e-06
1.47527e-06
1.47534e-06
1.47467e-06
1.47102e-06
1.47102e-06
1.47102e-06
1.47102e-06
1.47102e-06
1.47102e-06
1.47528e-06
1.47729e-06
1.47675e-06
1.47434e-06
1.47102e-06
1.47102e-06
1.47102e-06
1.47102e-06
1.47502e-06
1.4753e-06
1.47722e-06
1.47702e-06
1.47516e-06
1.47522e-06
1.4753e-06
1.47527e-06
1.47528e-06
1.4753e-06
1.47722e-06
1.47718e-06
1.47697e-06
1.47534e-06
1.47729e-06
1.47722e-06
1.4583e-06
1.45814e-06
1.45796e-06
1.45585e-06
1.45573e-06
1.45566e-06
1.45583e-06
1.4579e-06
1.45817e-06
1.45796e-06
1.45517e-06
1.45217e-06
1.45217e-06
1.45217e-06
1.45217e-06
1.4555e-06
1.45631e-06
1.45585e-06
1.45217e-06
1.45217e-06
1.45217e-06
1.45217e-06
1.45217e-06
1.45217e-06
1.45638e-06
1.45833e-06
1.4583e-06
1.45573e-06
1.45217e-06
1.45217e-06
1.45217e-06
1.45217e-06
1.45217e-06
1.45217e-06
1.45645e-06
1.45812e-06
1.45814e-06
1.45566e-06
1.45217e-06
1.45217e-06
1.45217e-06
1.45217e-06
1.45217e-06
1.45217e-06
1.45642e-06
1.45649e-06
1.45583e-06
1.45217e-06
1.45217e-06
1.45217e-06
1.45217e-06
1.45217e-06
1.45217e-06
1.45644e-06
1.45844e-06
1.4579e-06
1.4555e-06
1.45217e-06
1.45217e-06
1.45217e-06
1.45217e-06
1.45617e-06
1.45645e-06
1.45838e-06
1.45817e-06
1.45631e-06
1.45638e-06
1.45645e-06
1.45642e-06
1.45644e-06
1.45645e-06
1.45837e-06
1.45833e-06
1.45812e-06
1.45649e-06
1.45844e-06
1.45838e-06
1.43945e-06
1.43929e-06
1.43912e-06
1.437e-06
1.43688e-06
1.43681e-06
1.43698e-06
1.43905e-06
1.43932e-06
1.43912e-06
1.43633e-06
1.43332e-06
1.43332e-06
1.43332e-06
1.43332e-06
1.43665e-06
1.43747e-06
1.437e-06
1.43332e-06
1.43332e-06
1.43332e-06
1.43332e-06
1.43332e-06
1.43332e-06
1.43753e-06
1.43948e-06
1.43945e-06
1.43688e-06
1.43332e-06
1.43332e-06
1.43332e-06
1.43332e-06
1.43332e-06
1.43332e-06
1.4376e-06
1.43928e-06
1.43929e-06
1.43681e-06
1.43332e-06
1.43332e-06
1.43332e-06
1.43332e-06
1.43332e-06
1.43332e-06
1.43758e-06
1.43764e-06
1.43698e-06
1.43332e-06
1.43332e-06
1.43332e-06
1.43332e-06
1.43332e-06
1.43332e-06
1.43759e-06
1.4396e-06
1.43905e-06
1.43665e-06
1.43332e-06
1.43332e-06
1.43332e-06
1.43332e-06
1.43732e-06
1.4376e-06
1.43953e-06
1.43932e-06
1.43747e-06
1.43753e-06
1.4376e-06
1.43758e-06
1.43759e-06
1.4376e-06
1.43953e-06
1.43949e-06
1.43928e-06
1.43764e-06
1.43959e-06
1.43953e-06
1.42061e-06
1.42044e-06
1.42027e-06
1.41815e-06
1.41803e-06
1.41796e-06
1.41813e-06
1.4202e-06
1.42047e-06
1.42027e-06
1.41748e-06
1.41448e-06
1.41448e-06
1.41448e-06
1.41448e-06
1.4178e-06
1.41862e-06
1.41815e-06
1.41448e-06
1.41448e-06
1.41448e-06
1.41448e-06
1.41448e-06
1.41448e-06
1.41868e-06
1.42064e-06
1.42061e-06
1.41803e-06
1.41448e-06
1.41448e-06
1.41448e-06
1.41448e-06
1.41448e-06
1.41448e-06
1.41875e-06
1.42043e-06
1.42044e-06
1.41796e-06
1.41448e-06
1.41448e-06
1.41448e-06
1.41448e-06
1.41448e-06
1.41448e-06
1.41873e-06
1.41879e-06
1.41813e-06
1.41448e-06
1.41448e-06
1.41448e-06
1.41448e-06
1.41448e-06
1.41448e-06
1.41874e-06
1.42075e-06
1.4202e-06
1.4178e-06
1.41448e-06
1.41448e-06
1.41448e-06
1.41448e-06
1.41848e-06
1.41875e-06
1.42068e-06
1.42047e-06
1.41862e-06
1.41868e-06
1.41875e-06
1.41873e-06
1.41874e-06
1.41875e-06
1.42068e-06
1.42064e-06
1.42043e-06
1.41879e-06
1.42075e-06
1.42068e-06
1.40176e-06
1.40159e-06
1.40142e-06
1.3993e-06
1.39918e-06
1.39911e-06
1.39928e-06
1.40136e-06
1.40162e-06
1.40142e-06
1.39863e-06
1.39563e-06
1.39563e-06
1.39563e-06
1.39563e-06
1.39895e-06
1.39977e-06
1.3993e-06
1.39563e-06
1.39563e-06
1.39563e-06
1.39563e-06
1.39563e-06
1.39563e-06
1.39983e-06
1.40179e-06
1.40176e-06
1.39918e-06
1.39563e-06
1.39563e-06
1.39563e-06
1.39563e-06
1.39563e-06
1.39563e-06
1.39991e-06
1.40158e-06
1.40159e-06
1.39911e-06
1.39563e-06
1.39563e-06
1.39563e-06
1.39563e-06
1.39563e-06
1.39563e-06
1.39988e-06
1.39995e-06
1.39928e-06
1.39563e-06
1.39563e-06
1.39563e-06
1.39563e-06
1.39563e-06
1.39563e-06
1.39989e-06
1.4019e-06
1.40135e-06
1.39895e-06
1.39563e-06
1.39563e-06
1.39563e-06
1.39563e-06
1.39963e-06
1.39991e-06
1.40183e-06
1.40162e-06
1.39977e-06
1.39983e-06
1.39991e-06
1.39988e-06
1.39989e-06
1.39991e-06
1.40183e-06
1.40179e-06
1.40158e-06
1.39995e-06
1.4019e-06
1.40183e-06
1.38291e-06
1.38274e-06
1.38257e-06
1.38046e-06
1.38034e-06
1.38027e-06
1.38044e-06
1.38251e-06
1.38278e-06
1.38257e-06
1.37978e-06
1.37678e-06
1.37678e-06
1.37678e-06
1.37678e-06
1.38011e-06
1.38092e-06
1.38046e-06
1.37678e-06
1.37678e-06
1.37678e-06
1.37678e-06
1.37678e-06
1.37678e-06
1.38099e-06
1.38294e-06
1.38291e-06
1.38034e-06
1.37678e-06
1.37678e-06
1.37678e-06
1.37678e-06
1.37678e-06
1.37678e-06
1.38106e-06
1.38273e-06
1.38274e-06
1.38027e-06
1.37678e-06
1.37678e-06
1.37678e-06
1.37678e-06
1.37678e-06
1.37678e-06
1.38103e-06
1.3811e-06
1.38044e-06
1.37678e-06
1.37678e-06
1.37678e-06
1.37678e-06
1.37678e-06
1.37678e-06
1.38105e-06
1.38305e-06
1.38251e-06
1.38011e-06
1.37678e-06
1.37678e-06
1.37678e-06
1.37678e-06
1.38078e-06
1.38106e-06
1.38299e-06
1.38278e-06
1.38092e-06
1.38099e-06
1.38106e-06
1.38103e-06
1.38105e-06
1.38106e-06
1.38298e-06
1.38294e-06
1.38273e-06
1.3811e-06
1.38305e-06
1.38298e-06
1.36407e-06
1.3639e-06
1.36373e-06
1.36161e-06
1.36149e-06
1.36142e-06
1.36159e-06
1.36366e-06
1.36393e-06
1.36373e-06
1.36094e-06
1.35794e-06
1.35794e-06
1.35794e-06
1.35794e-06
1.36126e-06
1.36208e-06
1.36161e-06
1.35794e-06
1.35794e-06
1.35794e-06
1.35794e-06
1.35794e-06
1.35794e-06
1.36214e-06
1.3641e-06
1.36407e-06
1.36149e-06
1.35794e-06
1.35794e-06
1.35794e-06
1.35794e-06
1.35794e-06
1.35794e-06
1.36221e-06
1.36389e-06
1.3639e-06
1.36142e-06
1.35794e-06
1.35794e-06
1.35794e-06
1.35794e-06
1.35794e-06
1.35794e-06
1.36219e-06
1.36225e-06
1.36159e-06
1.35794e-06
1.35794e-06
1.35794e-06
1.35794e-06
1.35794e-06
1.35794e-06
1.3622e-06
1.36421e-06
1.36366e-06
1.36126e-06
1.35794e-06
1.35794e-06
1.35794e-06
1.35794e-06
1.36194e-06
1.36222e-06
1.36414e-06
1.36393e-06
1.36208e-06
1.36214e-06
1.36221e-06
1.36219e-06
1.3622e-06
1.36222e-06
1.36414e-06
1.3641e-06
1.36389e-06
1.36225e-06
1.36421e-06
1.36414e-06
1.34522e-06
1.34506e-06
1.34488e-06
1.34277e-06
1.34265e-06
1.34258e-06
1.34275e-06
1.34482e-06
1.34509e-06
1.34488e-06
1.34209e-06
1.33909e-06
1.33909e-06
1.33909e-06
1.33909e-06
1.34242e-06
1.34323e-06
1.34277e-06
1.33909e-06
1.33909e-06
1.33909e-06
1.33909e-06
1.33909e-06
1.33909e-06
1.3433e-06
1.34525e-06
1.34522e-06
1.34265e-06
1.33909e-06
1.33909e-06
1.33909e-06
1.33909e-06
1.33909e-06
1.33909e-06
1.34337e-06
1.34504e-06
1.34506e-06
1.34258e-06
1.33909e-06
1.33909e-06
1.33909e-06
1.33909e-06
1.33909e-06
1.33909e-06
1.34334e-06
1.34341e-06
1.34275e-06
1.33909e-06
1.33909e-06
1.33909e-06
1.33909e-06
1.33909e-06
1.33909e-06
1.34336e-06
1.34536e-06
1.34482e-06
1.34242e-06
1.33909e-06
1.33909e-06
1.33909e-06
1.33909e-06
1.34309e-06
1.34337e-06
1.3453e-06
1.34509e-06
1.34323e-06
1.3433e-06
1.34337e-06
1.34334e-06
1.34336e-06
1.34337e-06
1.34529e-06
1.34525e-06
1.34504e-06
1.34341e-06
1.34536e-06
1.3453e-06
1.32638e-06
1.32621e-06
1.32604e-06
1.32392e-06
1.3238e-06
1.32373e-06
1.3239e-06
1.32598e-06
1.32624e-06
1.32604e-06
1.32325e-06
1.32025e-06
1.32025e-06
1.32025e-06
1.32025e-06
1.32357e-06
1.32439e-06
1.32392e-06
1.32025e-06
1.32025e-06
1.32025e-06
1.32025e-06
1.32025e-06
1.32025e-06
1.32445e-06
1.32641e-06
1.32638e-06
1.3238e-06
1.32025e-06
1.32025e-06
1.32025e-06
1.32025e-06
1.32025e-06
1.32025e-06
1.32453e-06
1.3262e-06
1.32621e-06
1.32373e-06
1.32025e-06
1.32025e-06
1.32025e-06
1.32025e-06
1.32025e-06
1.32025e-06
1.3245e-06
1.32457e-06
1.3239e-06
1.32025e-06
1.32025e-06
1.32025e-06
1.32025e-06
1.32025e-06
1.32025e-06
1.32451e-06
1.32652e-06
1.32597e-06
1.32357e-06
1.32025e-06
1.32025e-06
1.32025e-06
1.32025e-06
1.32425e-06
1.32453e-06
1.32645e-06
1.32624e-06
1.32439e-06
1.32445e-06
1.32453e-06
1.3245e-06
1.32451e-06
1.32453e-06
1.32645e-06
1.32641e-06
1.3262e-06
1.32457e-06
1.32652e-06
1.32645e-06
1.30753e-06
1.30737e-06
1.30719e-06
1.30508e-06
1.30496e-06
1.30489e-06
1.30506e-06
1.30713e-06
1.3074e-06
1.30719e-06
1.3044e-06
1.3014e-06
1.3014e-06
1.3014e-06
1.3014e-06
1.30473e-06
1.30555e-06
1.30508e-06
1.3014e-06
1.3014e-06
1.3014e-06
1.3014e-06
1.3014e-06
1.3014e-06
1.30561e-06
1.30756e-06
1.30753e-06
1.30496e-06
1.3014e-06
1.3014e-06
1.3014e-06
1.3014e-06
1.3014e-06
1.3014e-06
1.30568e-06
1.30736e-06
1.30737e-06
1.30489e-06
1.3014e-06
1.3014e-06
1.3014e-06
1.3014e-06
1.3014e-06
1.3014e-06
1.30566e-06
1.30572e-06
1.30506e-06
1.3014e-06
1.3014e-06
1.3014e-06
1.3014e-06
1.3014e-06
1.3014e-06
1.30567e-06
1.30767e-06
1.30713e-06
1.30473e-06
1.3014e-06
1.3014e-06
1.3014e-06
1.3014e-06
1.3054e-06
1.30568e-06
1.30761e-06
1.3074e-06
1.30555e-06
1.30561e-06
1.30568e-06
1.30565e-06
1.30567e-06
1.30568e-06
1.30761e-06
1.30757e-06
1.30736e-06
1.30572e-06
1.30767e-06
1.30761e-06
1.28869e-06
1.28852e-06
1.28835e-06
1.28623e-06
1.28611e-06
1.28604e-06
1.28621e-06
1.28829e-06
1.28855e-06
1.28835e-06
1.28556e-06
1.28256e-06
1.28256e-06
1.28256e-06
1.28256e-06
1.28588e-06
1.2867e-06
1.28623e-06
1.28256e-06
1.28256e-06
1.28256e-06
1.28256e-06
1.28256e-06
1.28256e-06
1.28676e-06
1.28872e-06
1.28869e-06
1.28611e-06
1.28256e-06
1.28256e-06
1.28256e-06
1.28256e-06
1.28256e-06
1.28256e-06
1.28684e-06
1.28851e-06
1.28852e-06
1.28604e-06
1.28256e-06
1.28256e-06
1.28256e-06
1.28256e-06
1.28256e-06
1.28256e-06
1.28681e-06
1.28688e-06
1.28621e-06
1.28256e-06
1.28256e-06
1.28256e-06
1.28256e-06
1.28256e-06
1.28256e-06
1.28682e-06
1.28883e-06
1.28829e-06
1.28588e-06
1.28256e-06
1.28256e-06
1.28256e-06
1.28256e-06
1.28656e-06
1.28684e-06
1.28876e-06
1.28855e-06
1.2867e-06
1.28676e-06
1.28684e-06
1.28681e-06
1.28682e-06
1.28684e-06
1.28876e-06
1.28872e-06
1.28851e-06
1.28688e-06
1.28883e-06
1.28876e-06
1.26984e-06
1.26968e-06
1.26951e-06
1.26739e-06
1.26727e-06
1.2672e-06
1.26737e-06
1.26944e-06
1.26971e-06
1.26951e-06
1.26672e-06
1.26371e-06
1.26371e-06
1.26371e-06
1.26371e-06
1.26704e-06
1.26786e-06
1.26739e-06
1.26371e-06
1.26371e-06
1.26371e-06
1.26371e-06
1.26371e-06
1.26371e-06
1.26792e-06
1.26987e-06
1.26984e-06
1.26727e-06
1.26371e-06
1.26371e-06
1.26371e-06
1.26371e-06
1.26371e-06
1.26371e-06
1.26799e-06
1.26967e-06
1.26968e-06
1.2672e-06
1.26371e-06
1.26371e-06
1.26371e-06
1.26371e-06
1.26371e-06
1.26371e-06
1.26797e-06
1.26803e-06
1.26737e-06
1.26371e-06
1.26371e-06
1.26371e-06
1.26371e-06
1.26371e-06
1.26371e-06
1.26798e-06
1.26999e-06
1.26944e-06
1.26704e-06
1.26371e-06
1.26371e-06
1.26371e-06
1.26371e-06
1.26772e-06
1.26799e-06
1.26992e-06
1.26971e-06
1.26786e-06
1.26792e-06
1.26799e-06
1.26797e-06
1.26798e-06
1.26799e-06
1.26992e-06
1.26988e-06
1.26967e-06
1.26803e-06
1.26998e-06
1.26992e-06
1.251e-06
1.25083e-06
1.25066e-06
1.24854e-06
1.24842e-06
1.24835e-06
1.24852e-06
1.2506e-06
1.25086e-06
1.25066e-06
1.24787e-06
1.24487e-06
1.24487e-06
1.24487e-06
1.24487e-06
1.2482e-06
1.24901e-06
1.24855e-06
1.24487e-06
1.24487e-06
1.24487e-06
1.24487e-06
1.24487e-06
1.24487e-06
1.24907e-06
1.25103e-06
1.251e-06
1.24842e-06
1.24487e-06
1.24487e-06
1.24487e-06
1.24487e-06
1.24487e-06
1.24487e-06
1.24915e-06
1.25082e-06
1.25083e-06
1.24835e-06
1.24487e-06
1.24487e-06
1.24487e-06
1.24487e-06
1.24487e-06
1.24487e-06
1.24912e-06
1.24919e-06
1.24852e-06
1.24487e-06
1.24487e-06
1.24487e-06
1.24487e-06
1.24487e-06
1.24487e-06
1.24913e-06
1.25114e-06
1.2506e-06
1.24819e-06
1.24487e-06
1.24487e-06
1.24487e-06
1.24487e-06
1.24887e-06
1.24915e-06
1.25107e-06
1.25087e-06
1.24901e-06
1.24907e-06
1.24915e-06
1.24912e-06
1.24913e-06
1.24915e-06
1.25107e-06
1.25103e-06
1.25082e-06
1.24919e-06
1.25114e-06
1.25107e-06
1.23215e-06
1.23199e-06
1.23182e-06
1.2297e-06
1.22958e-06
1.22951e-06
1.22968e-06
1.23175e-06
1.23202e-06
1.23182e-06
1.22903e-06
1.22603e-06
1.22602e-06
1.22602e-06
1.22602e-06
1.22935e-06
1.23017e-06
1.2297e-06
1.22602e-06
1.22602e-06
1.22602e-06
1.22602e-06
1.22602e-06
1.22602e-06
1.23023e-06
1.23218e-06
1.23215e-06
1.22958e-06
1.22602e-06
1.22602e-06
1.22602e-06
1.22602e-06
1.22602e-06
1.22602e-06
1.2303e-06
1.23198e-06
1.23199e-06
1.22951e-06
1.22602e-06
1.22602e-06
1.22602e-06
1.22602e-06
1.22602e-06
1.22602e-06
1.23028e-06
1.23034e-06
1.22968e-06
1.22602e-06
1.22602e-06
1.22602e-06
1.22602e-06
1.22602e-06
1.22602e-06
1.23029e-06
1.2323e-06
1.23175e-06
1.22935e-06
1.22602e-06
1.22602e-06
1.22602e-06
1.22602e-06
1.23003e-06
1.2303e-06
1.23223e-06
1.23202e-06
1.23017e-06
1.23023e-06
1.2303e-06
1.23028e-06
1.23029e-06