/*--------------------------------*- C++ -*----------------------------------*\
| =========                 |                                                 |
| \\      /  F ield         | OpenFOAM: The Open Source CFD Toolbox           |
|  \\    /   O peration     | Version:  v2012                                 |
|   \\  /    A nd           | Website:  www.openfoam.com                      |
|    \\/     M anipulation  |                                                 |
\*---------------------------------------------------------------------------*/
FoamFile
{
    version     2.0;
    format      ascii;
    class       volScalarField;
    location    "0.16";
    object      p;
}
// * * * * * * * * * * * * * * * * * * * * * * * * * * * * * * * * * * * * * //

dimensions      [0 2 -2 0 0 0 0];


internalField   nonuniform List<scalar> 
247104
(
1.92961e-06
1.93006e-06
1.93007e-06
1.9299e-06
1.92969e-06
1.92994e-06
1.93008e-06
1.92999e-06
1.93005e-06
1.93012e-06
1.93016e-06
1.92994e-06
1.9298e-06
1.92998e-06
1.93018e-06
1.93009e-06
1.93008e-06
1.93016e-06
1.92987e-06
1.92947e-06
1.92931e-06
1.92952e-06
1.92992e-06
1.93017e-06
1.93006e-06
1.92991e-06
1.92995e-06
1.92947e-06
1.92899e-06
1.92881e-06
1.92904e-06
1.92954e-06
1.92998e-06
1.92986e-06
1.92961e-06
1.92969e-06
1.9298e-06
1.92931e-06
1.92881e-06
1.92862e-06
1.92886e-06
1.92939e-06
1.92983e-06
1.92963e-06
1.92994e-06
1.92998e-06
1.92952e-06
1.92903e-06
1.92886e-06
1.92908e-06
1.92958e-06
1.93001e-06
1.9299e-06
1.93008e-06
1.93017e-06
1.92992e-06
1.92954e-06
1.92939e-06
1.92958e-06
1.92996e-06
1.93018e-06
1.93006e-06
1.92998e-06
1.93009e-06
1.93017e-06
1.92998e-06
1.92983e-06
1.93001e-06
1.93018e-06
1.93006e-06
1.93005e-06
1.92986e-06
1.92963e-06
1.9299e-06
1.93006e-06
1.89573e-06
1.89363e-06
1.89374e-06
1.8926e-06
1.89231e-06
1.89227e-06
1.89225e-06
1.89391e-06
1.89425e-06
1.89373e-06
1.89164e-06
1.88852e-06
1.88838e-06
1.88838e-06
1.88853e-06
1.89205e-06
1.89225e-06
1.89259e-06
1.88852e-06
1.88844e-06
1.88846e-06
1.88846e-06
1.88844e-06
1.88853e-06
1.89253e-06
1.89341e-06
1.89573e-06
1.8923e-06
1.88837e-06
1.88846e-06
1.88858e-06
1.88858e-06
1.88846e-06
1.88838e-06
1.89232e-06
1.89408e-06
1.89364e-06
1.89226e-06
1.88838e-06
1.88846e-06
1.88858e-06
1.88858e-06
1.88846e-06
1.88838e-06
1.89244e-06
1.8921e-06
1.89225e-06
1.88852e-06
1.88844e-06
1.88846e-06
1.88846e-06
1.88844e-06
1.88853e-06
1.89235e-06
1.89315e-06
1.89391e-06
1.89205e-06
1.88852e-06
1.88838e-06
1.88838e-06
1.88852e-06
1.89211e-06
1.89249e-06
1.89394e-06
1.89425e-06
1.89225e-06
1.89254e-06
1.89233e-06
1.89244e-06
1.89235e-06
1.89249e-06
1.89497e-06
1.89341e-06
1.89408e-06
1.8921e-06
1.89314e-06
1.89394e-06
1.87565e-06
1.87544e-06
1.87529e-06
1.87307e-06
1.87303e-06
1.87304e-06
1.87306e-06
1.87544e-06
1.87557e-06
1.8753e-06
1.87241e-06
1.8693e-06
1.86911e-06
1.86911e-06
1.8693e-06
1.87324e-06
1.87354e-06
1.87307e-06
1.8693e-06
1.86884e-06
1.86883e-06
1.86883e-06
1.86884e-06
1.8693e-06
1.87403e-06
1.87601e-06
1.87565e-06
1.87303e-06
1.86911e-06
1.86883e-06
1.86884e-06
1.86884e-06
1.86883e-06
1.86911e-06
1.87402e-06
1.87559e-06
1.87544e-06
1.87304e-06
1.86911e-06
1.86883e-06
1.86884e-06
1.86884e-06
1.86883e-06
1.86911e-06
1.87393e-06
1.87348e-06
1.87306e-06
1.8693e-06
1.86884e-06
1.86883e-06
1.86883e-06
1.86884e-06
1.8693e-06
1.87408e-06
1.87599e-06
1.87544e-06
1.87324e-06
1.8693e-06
1.86911e-06
1.86911e-06
1.8693e-06
1.87374e-06
1.87383e-06
1.87591e-06
1.87557e-06
1.87354e-06
1.87403e-06
1.87402e-06
1.87393e-06
1.87408e-06
1.87383e-06
1.87603e-06
1.876e-06
1.87559e-06
1.87348e-06
1.87599e-06
1.87591e-06
1.85587e-06
1.8557e-06
1.85562e-06
1.85328e-06
1.85326e-06
1.85315e-06
1.85334e-06
1.85574e-06
1.85588e-06
1.85562e-06
1.85236e-06
1.84944e-06
1.84936e-06
1.84936e-06
1.84943e-06
1.85336e-06
1.85395e-06
1.85328e-06
1.84943e-06
1.84925e-06
1.84924e-06
1.84924e-06
1.84925e-06
1.84944e-06
1.85436e-06
1.85627e-06
1.85587e-06
1.85326e-06
1.84936e-06
1.84924e-06
1.84923e-06
1.84923e-06
1.84924e-06
1.84937e-06
1.85447e-06
1.8558e-06
1.8557e-06
1.85315e-06
1.84936e-06
1.84924e-06
1.84923e-06
1.84923e-06
1.84924e-06
1.84936e-06
1.85441e-06
1.85386e-06
1.85335e-06
1.84944e-06
1.84925e-06
1.84924e-06
1.84924e-06
1.84925e-06
1.84944e-06
1.85446e-06
1.85619e-06
1.85574e-06
1.85336e-06
1.84943e-06
1.84936e-06
1.84936e-06
1.84944e-06
1.85427e-06
1.85421e-06
1.85623e-06
1.85588e-06
1.85396e-06
1.85436e-06
1.85447e-06
1.85441e-06
1.85446e-06
1.8542e-06
1.85618e-06
1.85627e-06
1.8558e-06
1.85387e-06
1.8562e-06
1.85623e-06
1.8361e-06
1.83593e-06
1.83578e-06
1.8334e-06
1.83337e-06
1.83319e-06
1.83347e-06
1.8359e-06
1.83604e-06
1.83578e-06
1.83237e-06
1.8295e-06
1.82948e-06
1.82948e-06
1.8295e-06
1.83339e-06
1.83411e-06
1.8334e-06
1.8295e-06
1.82945e-06
1.82945e-06
1.82945e-06
1.82945e-06
1.8295e-06
1.83456e-06
1.83647e-06
1.8361e-06
1.83337e-06
1.82948e-06
1.82945e-06
1.82945e-06
1.82945e-06
1.82945e-06
1.82948e-06
1.83477e-06
1.83607e-06
1.83593e-06
1.83319e-06
1.82948e-06
1.82945e-06
1.82945e-06
1.82945e-06
1.82945e-06
1.82948e-06
1.83473e-06
1.83416e-06
1.83347e-06
1.8295e-06
1.82945e-06
1.82945e-06
1.82945e-06
1.82945e-06
1.8295e-06
1.83471e-06
1.83645e-06
1.8359e-06
1.83339e-06
1.8295e-06
1.82948e-06
1.82948e-06
1.8295e-06
1.83458e-06
1.83442e-06
1.83642e-06
1.83608e-06
1.83412e-06
1.83456e-06
1.83477e-06
1.83473e-06
1.83471e-06
1.83442e-06
1.8364e-06
1.83647e-06
1.83607e-06
1.83416e-06
1.83646e-06
1.83642e-06
1.81625e-06
1.81609e-06
1.81591e-06
1.81352e-06
1.8135e-06
1.8133e-06
1.81359e-06
1.81603e-06
1.81621e-06
1.81591e-06
1.81247e-06
1.80961e-06
1.80961e-06
1.80961e-06
1.80961e-06
1.81347e-06
1.81427e-06
1.81352e-06
1.80961e-06
1.8096e-06
1.8096e-06
1.8096e-06
1.8096e-06
1.80961e-06
1.81471e-06
1.81662e-06
1.81626e-06
1.8135e-06
1.80961e-06
1.8096e-06
1.8096e-06
1.8096e-06
1.8096e-06
1.80961e-06
1.81495e-06
1.81625e-06
1.8161e-06
1.81329e-06
1.80961e-06
1.8096e-06
1.8096e-06
1.8096e-06
1.8096e-06
1.80961e-06
1.81492e-06
1.81434e-06
1.81359e-06
1.80961e-06
1.8096e-06
1.8096e-06
1.8096e-06
1.8096e-06
1.80961e-06
1.81487e-06
1.81663e-06
1.81603e-06
1.81347e-06
1.80961e-06
1.8096e-06
1.80961e-06
1.80961e-06
1.81477e-06
1.81458e-06
1.81656e-06
1.81621e-06
1.81427e-06
1.81471e-06
1.81495e-06
1.81492e-06
1.81487e-06
1.81458e-06
1.81652e-06
1.81662e-06
1.81625e-06
1.81434e-06
1.81663e-06
1.81656e-06
1.79639e-06
1.79623e-06
1.79604e-06
1.79365e-06
1.79362e-06
1.79341e-06
1.79372e-06
1.79616e-06
1.79633e-06
1.79604e-06
1.79259e-06
1.78973e-06
1.78973e-06
1.78973e-06
1.78973e-06
1.79359e-06
1.7944e-06
1.79365e-06
1.78973e-06
1.78973e-06
1.78973e-06
1.78973e-06
1.78973e-06
1.78973e-06
1.79484e-06
1.79675e-06
1.79639e-06
1.79362e-06
1.78973e-06
1.78973e-06
1.78973e-06
1.78973e-06
1.78973e-06
1.78973e-06
1.79509e-06
1.79639e-06
1.79623e-06
1.79341e-06
1.78973e-06
1.78973e-06
1.78973e-06
1.78973e-06
1.78973e-06
1.78973e-06
1.79507e-06
1.79448e-06
1.79371e-06
1.78973e-06
1.78973e-06
1.78973e-06
1.78973e-06
1.78973e-06
1.78973e-06
1.795e-06
1.79677e-06
1.79616e-06
1.79358e-06
1.78973e-06
1.78973e-06
1.78973e-06
1.78973e-06
1.79492e-06
1.79471e-06
1.79669e-06
1.79633e-06
1.7944e-06
1.79484e-06
1.79509e-06
1.79507e-06
1.795e-06
1.79471e-06
1.79665e-06
1.79675e-06
1.79639e-06
1.79448e-06
1.79676e-06
1.79669e-06
1.77652e-06
1.77636e-06
1.77616e-06
1.77378e-06
1.77375e-06
1.77354e-06
1.77384e-06
1.77628e-06
1.77646e-06
1.77616e-06
1.77272e-06
1.76986e-06
1.76986e-06
1.76986e-06
1.76986e-06
1.77371e-06
1.77453e-06
1.77377e-06
1.76986e-06
1.76986e-06
1.76986e-06
1.76986e-06
1.76986e-06
1.76986e-06
1.77497e-06
1.77688e-06
1.77652e-06
1.77375e-06
1.76986e-06
1.76986e-06
1.76986e-06
1.76986e-06
1.76986e-06
1.76986e-06
1.77522e-06
1.77652e-06
1.77636e-06
1.77354e-06
1.76986e-06
1.76986e-06
1.76986e-06
1.76986e-06
1.76986e-06
1.76986e-06
1.7752e-06
1.77461e-06
1.77384e-06
1.76986e-06
1.76986e-06
1.76986e-06
1.76986e-06
1.76986e-06
1.76986e-06
1.77513e-06
1.77689e-06
1.77628e-06
1.77371e-06
1.76986e-06
1.76986e-06
1.76986e-06
1.76986e-06
1.77505e-06
1.77484e-06
1.77682e-06
1.77645e-06
1.77452e-06
1.77497e-06
1.77522e-06
1.7752e-06
1.77513e-06
1.77484e-06
1.77678e-06
1.77688e-06
1.77652e-06
1.77461e-06
1.77689e-06
1.77682e-06
1.75664e-06
1.75649e-06
1.75629e-06
1.7539e-06
1.75387e-06
1.75367e-06
1.75397e-06
1.75641e-06
1.75658e-06
1.75629e-06
1.75285e-06
1.74998e-06
1.74998e-06
1.74998e-06
1.74998e-06
1.75384e-06
1.75466e-06
1.7539e-06
1.74998e-06
1.74998e-06
1.74998e-06
1.74998e-06
1.74998e-06
1.74998e-06
1.7551e-06
1.757e-06
1.75665e-06
1.75387e-06
1.74998e-06
1.74998e-06
1.74998e-06
1.74998e-06
1.74998e-06
1.74998e-06
1.75535e-06
1.75665e-06
1.75649e-06
1.75367e-06
1.74998e-06
1.74998e-06
1.74998e-06
1.74998e-06
1.74998e-06
1.74998e-06
1.75533e-06
1.75474e-06
1.75397e-06
1.74998e-06
1.74998e-06
1.74998e-06
1.74998e-06
1.74998e-06
1.74998e-06
1.75525e-06
1.75702e-06
1.75641e-06
1.75383e-06
1.74998e-06
1.74998e-06
1.74998e-06
1.74998e-06
1.75518e-06
1.75497e-06
1.75695e-06
1.75658e-06
1.75465e-06
1.7551e-06
1.75535e-06
1.75533e-06
1.75526e-06
1.75497e-06
1.75691e-06
1.757e-06
1.75665e-06
1.75474e-06
1.75702e-06
1.75695e-06
1.73677e-06
1.73662e-06
1.73641e-06
1.73403e-06
1.734e-06
1.73379e-06
1.73409e-06
1.73654e-06
1.73671e-06
1.73642e-06
1.73297e-06
1.73011e-06
1.73011e-06
1.73011e-06
1.73011e-06
1.73396e-06
1.73478e-06
1.73403e-06
1.73011e-06
1.73011e-06
1.73011e-06
1.73011e-06
1.73011e-06
1.73011e-06
1.73523e-06
1.73713e-06
1.73678e-06
1.734e-06
1.73011e-06
1.73011e-06
1.73011e-06
1.73011e-06
1.73011e-06
1.73011e-06
1.73547e-06
1.73677e-06
1.73662e-06
1.73379e-06
1.73011e-06
1.73011e-06
1.73011e-06
1.73011e-06
1.73011e-06
1.73011e-06
1.73545e-06
1.73487e-06
1.73409e-06
1.73011e-06
1.73011e-06
1.73011e-06
1.73011e-06
1.73011e-06
1.73011e-06
1.73538e-06
1.73715e-06
1.73654e-06
1.73396e-06
1.73011e-06
1.73011e-06
1.73011e-06
1.73011e-06
1.73531e-06
1.7351e-06
1.73707e-06
1.73671e-06
1.73478e-06
1.73522e-06
1.73547e-06
1.73546e-06
1.73538e-06
1.7351e-06
1.73703e-06
1.73713e-06
1.73678e-06
1.73487e-06
1.73715e-06
1.73708e-06
1.7169e-06
1.71674e-06
1.71654e-06
1.71415e-06
1.71413e-06
1.71392e-06
1.71422e-06
1.71667e-06
1.71684e-06
1.71654e-06
1.7131e-06
1.71024e-06
1.71024e-06
1.71024e-06
1.71024e-06
1.71409e-06
1.71491e-06
1.71415e-06
1.71024e-06
1.71024e-06
1.71024e-06
1.71024e-06
1.71024e-06
1.71024e-06
1.71535e-06
1.71726e-06
1.7169e-06
1.71413e-06
1.71024e-06
1.71024e-06
1.71024e-06
1.71024e-06
1.71024e-06
1.71024e-06
1.7156e-06
1.7169e-06
1.71674e-06
1.71392e-06
1.71024e-06
1.71024e-06
1.71024e-06
1.71024e-06
1.71024e-06
1.71024e-06
1.71558e-06
1.71499e-06
1.71422e-06
1.71024e-06
1.71024e-06
1.71024e-06
1.71024e-06
1.71024e-06
1.71024e-06
1.71551e-06
1.71728e-06
1.71666e-06
1.71409e-06
1.71024e-06
1.71024e-06
1.71024e-06
1.71024e-06
1.71543e-06
1.71522e-06
1.7172e-06
1.71683e-06
1.7149e-06
1.71535e-06
1.7156e-06
1.71558e-06
1.71551e-06
1.71522e-06
1.71716e-06
1.71726e-06
1.7169e-06
1.71499e-06
1.71728e-06
1.7172e-06
1.69702e-06
1.69687e-06
1.69666e-06
1.69428e-06
1.69425e-06
1.69404e-06
1.69435e-06
1.69679e-06
1.69696e-06
1.69667e-06
1.69322e-06
1.69036e-06
1.69036e-06
1.69036e-06
1.69036e-06
1.69422e-06
1.69504e-06
1.69428e-06
1.69036e-06
1.69036e-06
1.69036e-06
1.69036e-06
1.69036e-06
1.69036e-06
1.69548e-06
1.69738e-06
1.69703e-06
1.69425e-06
1.69036e-06
1.69036e-06
1.69036e-06
1.69036e-06
1.69036e-06
1.69036e-06
1.69573e-06
1.69703e-06
1.69687e-06
1.69404e-06
1.69036e-06
1.69036e-06
1.69036e-06
1.69036e-06
1.69036e-06
1.69036e-06
1.69571e-06
1.69512e-06
1.69435e-06
1.69036e-06
1.69036e-06
1.69036e-06
1.69036e-06
1.69036e-06
1.69036e-06
1.69563e-06
1.6974e-06
1.69679e-06
1.69421e-06
1.69036e-06
1.69036e-06
1.69036e-06
1.69036e-06
1.69556e-06
1.69535e-06
1.69733e-06
1.69696e-06
1.69503e-06
1.69548e-06
1.69573e-06
1.69571e-06
1.69564e-06
1.69535e-06
1.69729e-06
1.69738e-06
1.69703e-06
1.69512e-06
1.6974e-06
1.69733e-06
1.67715e-06
1.677e-06
1.67679e-06
1.67441e-06
1.67438e-06
1.67417e-06
1.67447e-06
1.67692e-06
1.67709e-06
1.6768e-06
1.67335e-06
1.67049e-06
1.67049e-06
1.67049e-06
1.67049e-06
1.67434e-06
1.67516e-06
1.67441e-06
1.67049e-06
1.67049e-06
1.67049e-06
1.67049e-06
1.67049e-06
1.67049e-06
1.67561e-06
1.67751e-06
1.67716e-06
1.67438e-06
1.67049e-06
1.67049e-06
1.67049e-06
1.67049e-06
1.67049e-06
1.67049e-06
1.67585e-06
1.67715e-06
1.677e-06
1.67417e-06
1.67049e-06
1.67049e-06
1.67049e-06
1.67049e-06
1.67049e-06
1.67049e-06
1.67584e-06
1.67525e-06
1.67447e-06
1.67049e-06
1.67049e-06
1.67049e-06
1.67049e-06
1.67049e-06
1.67049e-06
1.67576e-06
1.67753e-06
1.67692e-06
1.67434e-06
1.67049e-06
1.67049e-06
1.67049e-06
1.67049e-06
1.67569e-06
1.67548e-06
1.67745e-06
1.67709e-06
1.67516e-06
1.6756e-06
1.67585e-06
1.67584e-06
1.67576e-06
1.67548e-06
1.67741e-06
1.67751e-06
1.67716e-06
1.67525e-06
1.67753e-06
1.67746e-06
1.65728e-06
1.65712e-06
1.65692e-06
1.65454e-06
1.65451e-06
1.6543e-06
1.6546e-06
1.65705e-06
1.65722e-06
1.65692e-06
1.65348e-06
1.65062e-06
1.65062e-06
1.65062e-06
1.65062e-06
1.65447e-06
1.65529e-06
1.65453e-06
1.65062e-06
1.65062e-06
1.65062e-06
1.65062e-06
1.65062e-06
1.65062e-06
1.65573e-06
1.65764e-06
1.65729e-06
1.65451e-06
1.65062e-06
1.65062e-06
1.65062e-06
1.65062e-06
1.65062e-06
1.65062e-06
1.65598e-06
1.65728e-06
1.65712e-06
1.6543e-06
1.65062e-06
1.65062e-06
1.65062e-06
1.65062e-06
1.65062e-06
1.65062e-06
1.65596e-06
1.65537e-06
1.6546e-06
1.65062e-06
1.65062e-06
1.65062e-06
1.65062e-06
1.65062e-06
1.65062e-06
1.65589e-06
1.65766e-06
1.65705e-06
1.65447e-06
1.65062e-06
1.65062e-06
1.65062e-06
1.65062e-06
1.65581e-06
1.65561e-06
1.65758e-06
1.65721e-06
1.65529e-06
1.65573e-06
1.65598e-06
1.65596e-06
1.65589e-06
1.65561e-06
1.65754e-06
1.65764e-06
1.65728e-06
1.65538e-06
1.65766e-06
1.65758e-06
1.63741e-06
1.63725e-06
1.63704e-06
1.63466e-06
1.63464e-06
1.63443e-06
1.63473e-06
1.63717e-06
1.63734e-06
1.63705e-06
1.63361e-06
1.63075e-06
1.63075e-06
1.63075e-06
1.63075e-06
1.6346e-06
1.63542e-06
1.63466e-06
1.63075e-06
1.63075e-06
1.63075e-06
1.63075e-06
1.63075e-06
1.63075e-06
1.63586e-06
1.63777e-06
1.63741e-06
1.63464e-06
1.63075e-06
1.63075e-06
1.63075e-06
1.63075e-06
1.63075e-06
1.63075e-06
1.63611e-06
1.63741e-06
1.63725e-06
1.63443e-06
1.63075e-06
1.63075e-06
1.63075e-06
1.63075e-06
1.63075e-06
1.63075e-06
1.63609e-06
1.6355e-06
1.63473e-06
1.63075e-06
1.63075e-06
1.63075e-06
1.63075e-06
1.63075e-06
1.63075e-06
1.63602e-06
1.63778e-06
1.63717e-06
1.6346e-06
1.63075e-06
1.63075e-06
1.63075e-06
1.63075e-06
1.63594e-06
1.63573e-06
1.63771e-06
1.63734e-06
1.63541e-06
1.63586e-06
1.63611e-06
1.63609e-06
1.63602e-06
1.63573e-06
1.63767e-06
1.63777e-06
1.63741e-06
1.6355e-06
1.63779e-06
1.63771e-06
1.61753e-06
1.61738e-06
1.61717e-06
1.61479e-06
1.61476e-06
1.61456e-06
1.61486e-06
1.6173e-06
1.61747e-06
1.61718e-06
1.61373e-06
1.61087e-06
1.61087e-06
1.61087e-06
1.61087e-06
1.61473e-06
1.61555e-06
1.61479e-06
1.61087e-06
1.61087e-06
1.61087e-06
1.61087e-06
1.61087e-06
1.61087e-06
1.61599e-06
1.61789e-06
1.61754e-06
1.61476e-06
1.61087e-06
1.61087e-06
1.61087e-06
1.61087e-06
1.61087e-06
1.61087e-06
1.61624e-06
1.61754e-06
1.61738e-06
1.61455e-06
1.61087e-06
1.61087e-06
1.61087e-06
1.61087e-06
1.61087e-06
1.61087e-06
1.61622e-06
1.61563e-06
1.61486e-06
1.61087e-06
1.61087e-06
1.61087e-06
1.61087e-06
1.61087e-06
1.61087e-06
1.61615e-06
1.61791e-06
1.6173e-06
1.61472e-06
1.61087e-06
1.61087e-06
1.61087e-06
1.61087e-06
1.61607e-06
1.61586e-06
1.61784e-06
1.61747e-06
1.61554e-06
1.61599e-06
1.61624e-06
1.61622e-06
1.61615e-06
1.61586e-06
1.6178e-06
1.61789e-06
1.61754e-06
1.61563e-06
1.61791e-06
1.61784e-06
1.59766e-06
1.5975e-06
1.5973e-06
1.59492e-06
1.59489e-06
1.59468e-06
1.59499e-06
1.59743e-06
1.5976e-06
1.5973e-06
1.59386e-06
1.591e-06
1.591e-06
1.591e-06
1.591e-06
1.59485e-06
1.59567e-06
1.59492e-06
1.591e-06
1.591e-06
1.591e-06
1.591e-06
1.591e-06
1.591e-06
1.59612e-06
1.59802e-06
1.59767e-06
1.59489e-06
1.591e-06
1.591e-06
1.591e-06
1.591e-06
1.591e-06
1.591e-06
1.59636e-06
1.59766e-06
1.59751e-06
1.59468e-06
1.591e-06
1.591e-06
1.591e-06
1.591e-06
1.591e-06
1.591e-06
1.59634e-06
1.59576e-06
1.59498e-06
1.591e-06
1.591e-06
1.591e-06
1.591e-06
1.591e-06
1.591e-06
1.59627e-06
1.59804e-06
1.59743e-06
1.59485e-06
1.591e-06
1.591e-06
1.591e-06
1.591e-06
1.59619e-06
1.59599e-06
1.59796e-06
1.5976e-06
1.59567e-06
1.59611e-06
1.59636e-06
1.59635e-06
1.59627e-06
1.59599e-06
1.59792e-06
1.59802e-06
1.59767e-06
1.59576e-06
1.59804e-06
1.59797e-06
1.57779e-06
1.57763e-06
1.57742e-06
1.57505e-06
1.57502e-06
1.57481e-06
1.57511e-06
1.57755e-06
1.57772e-06
1.57743e-06
1.57399e-06
1.57113e-06
1.57113e-06
1.57113e-06
1.57113e-06
1.57498e-06
1.5758e-06
1.57504e-06
1.57113e-06
1.57113e-06
1.57113e-06
1.57113e-06
1.57113e-06
1.57113e-06
1.57624e-06
1.57815e-06
1.57779e-06
1.57502e-06
1.57113e-06
1.57113e-06
1.57113e-06
1.57113e-06
1.57113e-06
1.57113e-06
1.57649e-06
1.57779e-06
1.57763e-06
1.57481e-06
1.57113e-06
1.57113e-06
1.57113e-06
1.57113e-06
1.57113e-06
1.57113e-06
1.57647e-06
1.57588e-06
1.57511e-06
1.57113e-06
1.57113e-06
1.57113e-06
1.57113e-06
1.57113e-06
1.57113e-06
1.5764e-06
1.57817e-06
1.57755e-06
1.57498e-06
1.57113e-06
1.57113e-06
1.57113e-06
1.57113e-06
1.57632e-06
1.57611e-06
1.57809e-06
1.57772e-06
1.57579e-06
1.57624e-06
1.57649e-06
1.57647e-06
1.5764e-06
1.57611e-06
1.57805e-06
1.57815e-06
1.57779e-06
1.57588e-06
1.57817e-06
1.57809e-06
1.55792e-06
1.55776e-06
1.55755e-06
1.55517e-06
1.55515e-06
1.55494e-06
1.55524e-06
1.55768e-06
1.55785e-06
1.55756e-06
1.55412e-06
1.55126e-06
1.55126e-06
1.55126e-06
1.55126e-06
1.55511e-06
1.55593e-06
1.55517e-06
1.55125e-06
1.55126e-06
1.55126e-06
1.55126e-06
1.55126e-06
1.55126e-06
1.55637e-06
1.55827e-06
1.55792e-06
1.55514e-06
1.55126e-06
1.55126e-06
1.55126e-06
1.55126e-06
1.55126e-06
1.55126e-06
1.55662e-06
1.55792e-06
1.55776e-06
1.55493e-06
1.55126e-06
1.55126e-06
1.55126e-06
1.55126e-06
1.55126e-06
1.55126e-06
1.5566e-06
1.55601e-06
1.55524e-06
1.55126e-06
1.55126e-06
1.55126e-06
1.55126e-06
1.55126e-06
1.55126e-06
1.55653e-06
1.55829e-06
1.55768e-06
1.5551e-06
1.55126e-06
1.55126e-06
1.55126e-06
1.55126e-06
1.55645e-06
1.55624e-06
1.55822e-06
1.55785e-06
1.55592e-06
1.55637e-06
1.55662e-06
1.5566e-06
1.55653e-06
1.55624e-06
1.55818e-06
1.55827e-06
1.55792e-06
1.55601e-06
1.55829e-06
1.55822e-06
1.53804e-06
1.53789e-06
1.53768e-06
1.5353e-06
1.53527e-06
1.53506e-06
1.53537e-06
1.53781e-06
1.53798e-06
1.53769e-06
1.53424e-06
1.53138e-06
1.53138e-06
1.53138e-06
1.53138e-06
1.53524e-06
1.53605e-06
1.5353e-06
1.53138e-06
1.53138e-06
1.53138e-06
1.53138e-06
1.53138e-06
1.53138e-06
1.5365e-06
1.5384e-06
1.53805e-06
1.53527e-06
1.53138e-06
1.53138e-06
1.53138e-06
1.53138e-06
1.53138e-06
1.53138e-06
1.53675e-06
1.53805e-06
1.53789e-06
1.53506e-06
1.53138e-06
1.53138e-06
1.53138e-06
1.53138e-06
1.53138e-06
1.53138e-06
1.53673e-06
1.53614e-06
1.53537e-06
1.53138e-06
1.53138e-06
1.53138e-06
1.53138e-06
1.53138e-06
1.53138e-06
1.53665e-06
1.53842e-06
1.53781e-06
1.53523e-06
1.53138e-06
1.53138e-06
1.53138e-06
1.53138e-06
1.53658e-06
1.53637e-06
1.53834e-06
1.53798e-06
1.53605e-06
1.5365e-06
1.53675e-06
1.53673e-06
1.53666e-06
1.53637e-06
1.53831e-06
1.5384e-06
1.53805e-06
1.53614e-06
1.53842e-06
1.53835e-06
1.51817e-06
1.51801e-06
1.51781e-06
1.51543e-06
1.5154e-06
1.51519e-06
1.51549e-06
1.51794e-06
1.51811e-06
1.51781e-06
1.51437e-06
1.51151e-06
1.51151e-06
1.51151e-06
1.51151e-06
1.51536e-06
1.51618e-06
1.51542e-06
1.51151e-06
1.51151e-06
1.51151e-06
1.51151e-06
1.51151e-06
1.51151e-06
1.51662e-06
1.51853e-06
1.51818e-06
1.5154e-06
1.51151e-06
1.51151e-06
1.51151e-06
1.51151e-06
1.51151e-06
1.51151e-06
1.51687e-06
1.51817e-06
1.51801e-06
1.51519e-06
1.51151e-06
1.51151e-06
1.51151e-06
1.51151e-06
1.51151e-06
1.51151e-06
1.51685e-06
1.51626e-06
1.51549e-06
1.51151e-06
1.51151e-06
1.51151e-06
1.51151e-06
1.51151e-06
1.51151e-06
1.51678e-06
1.51855e-06
1.51794e-06
1.51536e-06
1.51151e-06
1.51151e-06
1.51151e-06
1.51151e-06
1.5167e-06
1.5165e-06
1.51847e-06
1.5181e-06
1.51618e-06
1.51662e-06
1.51687e-06
1.51685e-06
1.51678e-06
1.5165e-06
1.51843e-06
1.51853e-06
1.51817e-06
1.51627e-06
1.51855e-06
1.51847e-06
1.4983e-06
1.49814e-06
1.49793e-06
1.49555e-06
1.49553e-06
1.49532e-06
1.49562e-06
1.49806e-06
1.49824e-06
1.49794e-06
1.4945e-06
1.49164e-06
1.49164e-06
1.49164e-06
1.49164e-06
1.49549e-06
1.49631e-06
1.49555e-06
1.49164e-06
1.49164e-06
1.49164e-06
1.49164e-06
1.49164e-06
1.49164e-06
1.49675e-06
1.49866e-06
1.4983e-06
1.49553e-06
1.49164e-06
1.49164e-06
1.49164e-06
1.49164e-06
1.49164e-06
1.49164e-06
1.497e-06
1.4983e-06
1.49814e-06
1.49532e-06
1.49164e-06
1.49164e-06
1.49164e-06
1.49164e-06
1.49164e-06
1.49164e-06
1.49698e-06
1.49639e-06
1.49562e-06
1.49164e-06
1.49164e-06
1.49164e-06
1.49164e-06
1.49164e-06
1.49164e-06
1.49691e-06
1.49867e-06
1.49806e-06
1.49549e-06
1.49164e-06
1.49164e-06
1.49164e-06
1.49164e-06
1.49683e-06
1.49662e-06
1.4986e-06
1.49823e-06
1.4963e-06
1.49675e-06
1.497e-06
1.49698e-06
1.49691e-06
1.49662e-06
1.49856e-06
1.49866e-06
1.4983e-06
1.49639e-06
1.49868e-06
1.4986e-06
1.47843e-06
1.47827e-06
1.47806e-06
1.47568e-06
1.47566e-06
1.47545e-06
1.47575e-06
1.47819e-06
1.47836e-06
1.47807e-06
1.47463e-06
1.47177e-06
1.47177e-06
1.47177e-06
1.47177e-06
1.47562e-06
1.47644e-06
1.47568e-06
1.47177e-06
1.47177e-06
1.47177e-06
1.47177e-06
1.47177e-06
1.47177e-06
1.47688e-06
1.47878e-06
1.47843e-06
1.47565e-06
1.47177e-06
1.47177e-06
1.47177e-06
1.47177e-06
1.47177e-06
1.47177e-06
1.47713e-06
1.47843e-06
1.47827e-06
1.47544e-06
1.47177e-06
1.47177e-06
1.47177e-06
1.47177e-06
1.47177e-06
1.47177e-06
1.47711e-06
1.47652e-06
1.47575e-06
1.47177e-06
1.47177e-06
1.47177e-06
1.47177e-06
1.47177e-06
1.47177e-06
1.47704e-06
1.4788e-06
1.47819e-06
1.47561e-06
1.47177e-06
1.47177e-06
1.47177e-06
1.47177e-06
1.47696e-06
1.47675e-06
1.47873e-06
1.47836e-06
1.47643e-06
1.47688e-06
1.47713e-06
1.47711e-06
1.47704e-06
1.47675e-06
1.47869e-06
1.47878e-06
1.47843e-06
1.47652e-06
1.4788e-06
1.47873e-06
1.45855e-06
1.4584e-06
1.45819e-06
1.45581e-06
1.45578e-06
1.45558e-06
1.45588e-06
1.45832e-06
1.45849e-06
1.4582e-06
1.45475e-06
1.45189e-06
1.45189e-06
1.45189e-06
1.45189e-06
1.45575e-06
1.45656e-06
1.45581e-06
1.45189e-06
1.45189e-06
1.45189e-06
1.45189e-06
1.45189e-06
1.45189e-06
1.45701e-06
1.45891e-06
1.45856e-06
1.45578e-06
1.45189e-06
1.45189e-06
1.45189e-06
1.45189e-06
1.45189e-06
1.45189e-06
1.45726e-06
1.45856e-06
1.4584e-06
1.45557e-06
1.45189e-06
1.45189e-06
1.45189e-06
1.45189e-06
1.45189e-06
1.45189e-06
1.45724e-06
1.45665e-06
1.45588e-06
1.45189e-06
1.45189e-06
1.45189e-06
1.45189e-06
1.45189e-06
1.45189e-06
1.45716e-06
1.45893e-06
1.45832e-06
1.45574e-06
1.45189e-06
1.45189e-06
1.45189e-06
1.45189e-06
1.45709e-06
1.45688e-06
1.45886e-06
1.45849e-06
1.45656e-06
1.45701e-06
1.45726e-06
1.45724e-06
1.45717e-06
1.45688e-06
1.45882e-06
1.45891e-06
1.45856e-06
1.45665e-06
1.45893e-06
1.45886e-06
1.43868e-06
1.43852e-06
1.43832e-06
1.43594e-06
1.43591e-06
1.4357e-06
1.43601e-06
1.43845e-06
1.43862e-06
1.43832e-06
1.43488e-06
1.43202e-06
1.43202e-06
1.43202e-06
1.43202e-06
1.43587e-06
1.43669e-06
1.43593e-06
1.43202e-06
1.43202e-06
1.43202e-06
1.43202e-06
1.43202e-06
1.43202e-06
1.43713e-06
1.43904e-06
1.43869e-06
1.43591e-06
1.43202e-06
1.43202e-06
1.43202e-06
1.43202e-06
1.43202e-06
1.43202e-06
1.43738e-06
1.43868e-06
1.43852e-06
1.4357e-06
1.43202e-06
1.43202e-06
1.43202e-06
1.43202e-06
1.43202e-06
1.43202e-06
1.43736e-06
1.43678e-06
1.436e-06
1.43202e-06
1.43202e-06
1.43202e-06
1.43202e-06
1.43202e-06
1.43202e-06
1.43729e-06
1.43906e-06
1.43845e-06
1.43587e-06
1.43202e-06
1.43202e-06
1.43202e-06
1.43202e-06
1.43721e-06
1.43701e-06
1.43898e-06
1.43861e-06
1.43669e-06
1.43713e-06
1.43738e-06
1.43736e-06
1.43729e-06
1.43701e-06
1.43894e-06
1.43904e-06
1.43869e-06
1.43678e-06
1.43906e-06
1.43898e-06
1.41881e-06
1.41865e-06
1.41844e-06
1.41606e-06
1.41604e-06
1.41583e-06
1.41613e-06
1.41858e-06
1.41874e-06
1.41845e-06
1.41501e-06
1.41215e-06
1.41215e-06
1.41215e-06
1.41215e-06
1.416e-06
1.41682e-06
1.41606e-06
1.41215e-06
1.41215e-06
1.41215e-06
1.41215e-06
1.41215e-06
1.41215e-06
1.41726e-06
1.41917e-06
1.41881e-06
1.41604e-06
1.41215e-06
1.41215e-06
1.41215e-06
1.41215e-06
1.41215e-06
1.41215e-06
1.41751e-06
1.41881e-06
1.41865e-06
1.41583e-06
1.41215e-06
1.41215e-06
1.41215e-06
1.41215e-06
1.41215e-06
1.41215e-06
1.41749e-06
1.4169e-06
1.41613e-06
1.41215e-06
1.41215e-06
1.41215e-06
1.41215e-06
1.41215e-06
1.41215e-06
1.41742e-06
1.41918e-06
1.41857e-06
1.41599e-06
1.41215e-06
1.41215e-06
1.41215e-06
1.41215e-06
1.41734e-06
1.41713e-06
1.41911e-06
1.41874e-06
1.41681e-06
1.41726e-06
1.41751e-06
1.41749e-06
1.41742e-06
1.41713e-06
1.41907e-06
1.41916e-06
1.41881e-06
1.4169e-06
1.41918e-06
1.41911e-06
1.39893e-06
1.39878e-06
1.39857e-06
1.39619e-06
1.39616e-06
1.39595e-06
1.39626e-06
1.3987e-06
1.39887e-06
1.39857e-06
1.39513e-06
1.39227e-06
1.39227e-06
1.39227e-06
1.39227e-06
1.39612e-06
1.39694e-06
1.39619e-06
1.39227e-06
1.39227e-06
1.39227e-06
1.39227e-06
1.39227e-06
1.39227e-06
1.39739e-06
1.39929e-06
1.39894e-06
1.39616e-06
1.39227e-06
1.39227e-06
1.39227e-06
1.39227e-06
1.39227e-06
1.39227e-06
1.39763e-06
1.39893e-06
1.39878e-06
1.39595e-06
1.39227e-06
1.39227e-06
1.39227e-06
1.39227e-06
1.39227e-06
1.39227e-06
1.39762e-06
1.39703e-06
1.39625e-06
1.39227e-06
1.39227e-06
1.39227e-06
1.39227e-06
1.39227e-06
1.39227e-06
1.39754e-06
1.39931e-06
1.3987e-06
1.39612e-06
1.39227e-06
1.39227e-06
1.39227e-06
1.39227e-06
1.39747e-06
1.39726e-06
1.39923e-06
1.39887e-06
1.39694e-06
1.39738e-06
1.39763e-06
1.39762e-06
1.39755e-06
1.39726e-06
1.39919e-06
1.39929e-06
1.39894e-06
1.39703e-06
1.39931e-06
1.39924e-06
1.37906e-06
1.3789e-06
1.37869e-06
1.37632e-06
1.37629e-06
1.37608e-06
1.37638e-06
1.37883e-06
1.379e-06
1.3787e-06
1.37526e-06
1.3724e-06
1.3724e-06
1.3724e-06
1.3724e-06
1.37625e-06
1.37707e-06
1.37631e-06
1.3724e-06
1.3724e-06
1.3724e-06
1.3724e-06
1.3724e-06
1.3724e-06
1.37751e-06
1.37942e-06
1.37906e-06
1.37629e-06
1.3724e-06
1.3724e-06
1.3724e-06
1.3724e-06
1.3724e-06
1.3724e-06
1.37776e-06
1.37906e-06
1.3789e-06
1.37608e-06
1.3724e-06
1.3724e-06
1.3724e-06
1.3724e-06
1.3724e-06
1.3724e-06
1.37774e-06
1.37715e-06
1.37638e-06
1.3724e-06
1.3724e-06
1.3724e-06
1.3724e-06
1.3724e-06
1.3724e-06
1.37767e-06
1.37944e-06
1.37882e-06
1.37625e-06
1.3724e-06
1.3724e-06
1.3724e-06
1.3724e-06
1.37759e-06
1.37738e-06
1.37936e-06
1.37899e-06
1.37706e-06
1.37751e-06
1.37776e-06
1.37774e-06
1.37767e-06
1.37738e-06
1.37932e-06
1.37942e-06
1.37906e-06
1.37716e-06
1.37944e-06
1.37936e-06
1.35919e-06
1.35903e-06
1.35882e-06
1.35644e-06
1.35642e-06
1.35621e-06
1.35651e-06
1.35896e-06
1.35912e-06
1.35883e-06
1.35539e-06
1.35253e-06
1.35253e-06
1.35253e-06
1.35253e-06
1.35638e-06
1.3572e-06
1.35644e-06
1.35253e-06
1.35253e-06
1.35253e-06
1.35253e-06
1.35253e-06
1.35253e-06
1.35764e-06
1.35955e-06
1.35919e-06
1.35642e-06
1.35253e-06
1.35253e-06
1.35253e-06
1.35253e-06
1.35253e-06
1.35253e-06
1.35789e-06
1.35919e-06
1.35903e-06
1.35621e-06
1.35253e-06
1.35253e-06
1.35253e-06
1.35253e-06
1.35253e-06
1.35253e-06
1.35787e-06
1.35728e-06
1.35651e-06
1.35253e-06
1.35253e-06
1.35253e-06
1.35253e-06
1.35253e-06
1.35253e-06
1.3578e-06
1.35956e-06
1.35895e-06
1.35637e-06
1.35253e-06
1.35253e-06
1.35253e-06
1.35253e-06
1.35772e-06
1.35751e-06
1.35949e-06
1.35912e-06
1.35719e-06
1.35764e-06
1.35789e-06
1.35787e-06
1.3578e-06
1.35751e-06
1.35945e-06
1.35954e-06
1.35919e-06
1.35728e-06
1.35956e-06
1.35949e-06
1.33931e-06
1.33916e-06
1.33895e-06
1.33657e-06
1.33654e-06
1.33634e-06
1.33664e-06
1.33908e-06
1.33925e-06
1.33896e-06
1.33551e-06
1.33265e-06
1.33265e-06
1.33265e-06
1.33265e-06
1.33651e-06
1.33732e-06
1.33657e-06
1.33265e-06
1.33265e-06
1.33265e-06
1.33265e-06
1.33265e-06
1.33265e-06
1.33777e-06
1.33967e-06
1.33932e-06
1.33654e-06
1.33265e-06
1.33265e-06
1.33265e-06
1.33265e-06
1.33265e-06
1.33265e-06
1.33802e-06
1.33932e-06
1.33916e-06
1.33633e-06
1.33265e-06
1.33265e-06
1.33265e-06
1.33265e-06
1.33265e-06
1.33265e-06
1.338e-06
1.33741e-06
1.33664e-06
1.33265e-06
1.33265e-06
1.33265e-06
1.33265e-06
1.33265e-06
1.33265e-06
1.33793e-06
1.33969e-06
1.33908e-06
1.3365e-06
1.33265e-06
1.33265e-06
1.33265e-06
1.33265e-06
1.33785e-06
1.33764e-06
1.33962e-06
1.33925e-06
1.33732e-06
1.33777e-06
1.33802e-06
1.338e-06
1.33793e-06
1.33764e-06
1.33958e-06
1.33967e-06
1.33932e-06
1.33741e-06
1.33969e-06
1.33962e-06
1.31944e-06
1.31929e-06
1.31908e-06
1.3167e-06
1.31667e-06
1.31646e-06
1.31677e-06
1.31921e-06
1.31938e-06
1.31908e-06
1.31564e-06
1.31278e-06
1.31278e-06
1.31278e-06
1.31278e-06
1.31663e-06
1.31745e-06
1.3167e-06
1.31278e-06
1.31278e-06
1.31278e-06
1.31278e-06
1.31278e-06
1.31278e-06
1.3179e-06
1.3198e-06
1.31945e-06
1.31667e-06
1.31278e-06
1.31278e-06
1.31278e-06
1.31278e-06
1.31278e-06
1.31278e-06
1.31814e-06
1.31944e-06
1.31929e-06
1.31646e-06
1.31278e-06
1.31278e-06
1.31278e-06
1.31278e-06
1.31278e-06
1.31278e-06
1.31813e-06
1.31754e-06
1.31676e-06
1.31278e-06
1.31278e-06
1.31278e-06
1.31278e-06
1.31278e-06
1.31278e-06
1.31805e-06
1.31982e-06
1.31921e-06
1.31663e-06
1.31278e-06
1.31278e-06
1.31278e-06
1.31278e-06
1.31798e-06
1.31777e-06
1.31974e-06
1.31938e-06
1.31745e-06
1.31789e-06
1.31814e-06
1.31813e-06
1.31805e-06
1.31777e-06
1.3197e-06
1.3198e-06
1.31945e-06
1.31754e-06
1.31982e-06
1.31975e-06
1.29957e-06
1.29941e-06
1.2992e-06
1.29683e-06
1.2968e-06
1.29659e-06
1.29689e-06
1.29934e-06
1.29951e-06
1.29921e-06
1.29577e-06
1.29291e-06
1.29291e-06
1.29291e-06
1.29291e-06
1.29676e-06
1.29758e-06
1.29682e-06
1.29291e-06
1.29291e-06
1.29291e-06
1.29291e-06
1.29291e-06
1.29291e-06
1.29802e-06
1.29993e-06
1.29957e-06
1.2968e-06
1.29291e-06
1.29291e-06
1.29291e-06
1.29291e-06
1.29291e-06
1.29291e-06
1.29827e-06
1.29957e-06
1.29941e-06
1.29659e-06
1.29291e-06
1.29291e-06
1.29291e-06
1.29291e-06
1.29291e-06
1.29291e-06
1.29825e-06
1.29766e-06
1.29689e-06
1.29291e-06
1.29291e-06
1.29291e-06
1.29291e-06
1.29291e-06
1.29291e-06
1.29818e-06
1.29995e-06
1.29933e-06
1.29676e-06
1.29291e-06
1.29291e-06
1.29291e-06
1.29291e-06
1.2981e-06
1.29789e-06
1.29987e-06
1.2995e-06
1.29757e-06
1.29802e-06