/*--------------------------------*- C++ -*----------------------------------*\
| =========                 |                                                 |
| \\      /  F ield         | OpenFOAM: The Open Source CFD Toolbox           |
|  \\    /   O peration     | Version:  v2012                                 |
|   \\  /    A nd           | Website:  www.openfoam.com                      |
|    \\/     M anipulation  |                                                 |
\*---------------------------------------------------------------------------*/
FoamFile
{
    version     2.0;
    format      ascii;
    class       volScalarField;
    location    "375";
    object      epsilon;
}
// * * * * * * * * * * * * * * * * * * * * * * * * * * * * * * * * * * * * * //

dimensions      [0 2 -3 0 0 0 0];


internalField   nonuniform List<scalar> 
171728
(
4.95567e-07
4.9733e-07
4.9733e-07
4.99575e-07
4.45573e-07
4.53735e-07
4.53737e-07
4.6371e-07
4.03752e-07
4.18513e-07
4.18517e-07
4.39411e-07
3.68363e-07
3.88552e-07
3.88558e-07
4.17667e-07
3.38015e-07
3.62102e-07
3.6211e-07
3.96081e-07
3.11646e-07
3.38273e-07
3.38281e-07
3.7458e-07
2.88473e-07
3.16638e-07
3.16646e-07
3.53709e-07
2.67923e-07
2.97021e-07
2.97031e-07
3.34147e-07
2.4958e-07
2.7937e-07
2.79379e-07
3.16483e-07
2.33137e-07
2.63679e-07
2.63688e-07
3.01162e-07
2.18366e-07
2.49955e-07
2.49964e-07
2.88492e-07
2.0509e-07
2.38199e-07
2.38208e-07
2.78696e-07
1.93172e-07
2.28411e-07
2.28422e-07
2.71879e-07
1.82498e-07
2.206e-07
2.20612e-07
2.68163e-07
1.72979e-07
2.14773e-07
2.14786e-07
2.67643e-07
1.64541e-07
2.10937e-07
2.10953e-07
2.70494e-07
1.57122e-07
2.09106e-07
2.09125e-07
2.76698e-07
1.50668e-07
2.09295e-07
2.09318e-07
2.86284e-07
1.45137e-07
2.1155e-07
2.11577e-07
2.99231e-07
1.40492e-07
2.15886e-07
2.15917e-07
3.15607e-07
1.36703e-07
2.22326e-07
2.22361e-07
3.35365e-07
1.33748e-07
2.30887e-07
2.30923e-07
3.58398e-07
1.31605e-07
2.41554e-07
2.41594e-07
3.84537e-07
1.30259e-07
2.54306e-07
2.54351e-07
4.13531e-07
1.29696e-07
2.691e-07
2.6915e-07
4.45045e-07
1.29922e-07
2.85871e-07
2.85923e-07
4.78692e-07
1.3091e-07
3.04531e-07
3.04587e-07
5.14026e-07
1.32667e-07
3.2498e-07
3.25049e-07
5.50612e-07
1.35187e-07
3.47082e-07
3.47159e-07
5.88019e-07
1.38478e-07
3.7073e-07
3.70796e-07
6.25807e-07
1.42543e-07
3.95754e-07
3.95827e-07
6.6357e-07
1.47379e-07
4.22e-07
4.22095e-07
7.01014e-07
1.52991e-07
4.49325e-07
4.49385e-07
7.379e-07
1.59414e-07
4.77529e-07
4.7766e-07
7.7395e-07
1.66589e-07
5.06384e-07
5.06432e-07
8.08955e-07
1.74586e-07
5.35989e-07
5.36117e-07
8.42951e-07
1.83409e-07
5.65571e-07
5.65648e-07
8.7579e-07
1.9289e-07
5.95858e-07
5.95921e-07
9.07364e-07
2.03389e-07
6.25559e-07
6.25887e-07
9.37692e-07
2.14362e-07
6.55801e-07
6.55443e-07
9.67221e-07
2.26295e-07
6.84915e-07
6.85676e-07
9.9501e-07
2.38893e-07
7.14576e-07
7.14091e-07
1.02156e-06
2.52134e-07
7.42969e-07
7.43236e-07
1.04764e-06
2.66039e-07
7.70758e-07
7.71202e-07
1.07232e-06
2.80493e-07
7.98175e-07
7.97959e-07
1.09522e-06
2.95512e-07
8.24445e-07
8.24705e-07
1.11792e-06
3.11017e-07
8.4995e-07
8.50004e-07
1.13931e-06
3.2688e-07
8.74446e-07
8.74544e-07
1.15961e-06
3.43031e-07
8.97953e-07
8.98111e-07
1.17902e-06
3.59434e-07
9.20468e-07
9.20566e-07
1.19757e-06
3.76009e-07
9.4193e-07
9.42036e-07
1.21501e-06
3.92641e-07
9.62397e-07
9.6251e-07
1.2317e-06
4.09274e-07
9.81857e-07
9.81961e-07
1.24754e-06
4.25804e-07
1.00031e-06
1.0004e-06
1.26251e-06
4.42186e-07
1.01775e-06
1.01786e-06
1.27669e-06
4.58326e-07
1.03425e-06
1.03434e-06
1.29013e-06
4.74157e-07
1.04974e-06
1.04985e-06
1.30276e-06
4.8965e-07
1.06436e-06
1.06444e-06
1.31476e-06
5.0471e-07
1.07799e-06
1.0781e-06
1.32592e-06
5.19309e-07
1.09081e-06
1.09088e-06
1.33654e-06
5.33457e-07
1.10272e-06
1.10282e-06
1.34638e-06
5.46971e-07
1.11377e-06
1.11384e-06
1.35565e-06
5.60062e-07
1.12413e-06
1.12421e-06
1.36428e-06
5.72377e-07
1.13351e-06
1.13358e-06
1.37227e-06
5.84291e-07
1.14235e-06
1.14244e-06
1.37978e-06
5.95359e-07
1.1503e-06
1.15035e-06
1.38651e-06
6.05971e-07
1.15754e-06
1.15765e-06
1.39302e-06
6.15879e-07
1.16433e-06
1.16436e-06
1.39856e-06
6.24973e-07
1.16988e-06
1.16999e-06
1.40394e-06
6.33974e-07
1.17585e-06
1.17591e-06
1.40884e-06
6.41265e-07
1.17949e-06
1.17955e-06
1.41241e-06
6.49531e-07
1.18499e-06
1.18506e-06
1.41743e-06
6.55063e-07
1.18668e-06
1.18675e-06
1.41883e-06
6.62387e-07
1.19183e-06
1.19189e-06
1.42411e-06
6.6712e-07
1.19248e-06
1.19253e-06
1.42432e-06
6.71821e-07
1.19526e-06
1.19535e-06
1.42756e-06
6.77073e-07
1.19652e-06
1.19656e-06
1.42893e-06
6.80606e-07
1.19795e-06
1.19802e-06
1.43085e-06
6.81946e-07
1.19442e-06
1.19445e-06
1.42692e-06
6.87589e-07
1.20112e-06
1.20121e-06
1.43415e-06
6.91879e-07
1.20319e-06
1.20328e-06
1.44368e-06
6.74036e-07
1.16063e-06
1.1606e-06
1.376e-06
6.95652e-07
1.21477e-06
1.2148e-06
1.45238e-06
7.30613e-07
1.26054e-06
1.26067e-06
1.53369e-06
6.70825e-07
1.13428e-06
1.13435e-06
1.37206e-06
6.06175e-07
1.05076e-06
1.05079e-06
1.23865e-06
6.42605e-07
1.13517e-06
1.13524e-06
1.35348e-06
7.56592e-07
1.28248e-06
1.28253e-06
1.5516e-06
7.77674e-07
1.29695e-06
1.29701e-06
1.59117e-06
7.01245e-07
1.18459e-06
1.18466e-06
1.46048e-06
6.19026e-07
1.07878e-06
1.07884e-06
1.31363e-06
5.86008e-07
1.03688e-06
1.03694e-06
1.25712e-06
5.83948e-07
1.03498e-06
1.03505e-06
1.26457e-06
5.97914e-07
1.04748e-06
1.04753e-06
1.28738e-06
5.86543e-07
1.0012e-06
1.00119e-06
1.25593e-06
5.06417e-07
5.05584e-07
5.05582e-07
5.06417e-07
5.05583e-07
5.05582e-07
5.09649e-07
5.09649e-07
5.09649e-07
5.09649e-07
5.05584e-07
5.05584e-07
5.06418e-07
5.05584e-07
5.05583e-07
5.06418e-07
4.99575e-07
4.67237e-07
4.97331e-07
4.97335e-07
4.63713e-07
4.63721e-07
4.99575e-07
4.67235e-07
4.97335e-07
4.97336e-07
4.63718e-07
4.63724e-07
4.97332e-07
4.63709e-07
4.63714e-07
4.99575e-07
4.67241e-07
4.97334e-07
4.6371e-07
4.63719e-07
4.6724e-07
4.63709e-07
4.41426e-07
4.5374e-07
4.53748e-07
4.26738e-07
4.26747e-07
4.63708e-07
4.4142e-07
4.53744e-07
4.53751e-07
4.26739e-07
4.26751e-07
4.53741e-07
4.26729e-07
4.26741e-07
4.63711e-07
4.41431e-07
4.53744e-07
4.26734e-07
4.26741e-07
4.41429e-07
4.39407e-07
4.19283e-07
4.18522e-07
4.1853e-07
3.95676e-07
3.95682e-07
4.39405e-07
4.19275e-07
4.18522e-07
4.18535e-07
3.95672e-07
3.95689e-07
4.18525e-07
3.95663e-07
3.95679e-07
4.39413e-07
4.19289e-07
4.18523e-07
3.95669e-07
3.95673e-07
4.19287e-07
4.17662e-07
3.97645e-07
3.88566e-07
3.88571e-07
3.68461e-07
3.68466e-07
4.17656e-07
3.97636e-07
3.8856e-07
3.88578e-07
3.68452e-07
3.68473e-07
3.88569e-07
3.68444e-07
3.68464e-07
4.17669e-07
3.97651e-07
3.88562e-07
3.68452e-07
3.68454e-07
3.9765e-07
3.96076e-07
3.76085e-07
3.6212e-07
3.62124e-07
3.44033e-07
3.44036e-07
3.96069e-07
3.76076e-07
3.62109e-07
3.62131e-07
3.4402e-07
3.44043e-07
3.62123e-07
3.44013e-07
3.44036e-07
3.96082e-07
3.76091e-07
3.62111e-07
3.44022e-07
3.44021e-07
3.7609e-07
3.74575e-07
3.55111e-07
3.38293e-07
3.38295e-07
3.21875e-07
3.21876e-07
3.74568e-07
3.55102e-07
3.38279e-07
3.38303e-07
3.21858e-07
3.21884e-07
3.38296e-07
3.21853e-07
3.21877e-07
3.74582e-07
3.55117e-07
3.3828e-07
3.21862e-07
3.2186e-07
3.55116e-07
3.53704e-07
3.35394e-07
3.16659e-07
3.16661e-07
3.01763e-07
3.01764e-07
3.53697e-07
3.35386e-07
3.16643e-07
3.16668e-07
3.01745e-07
3.01771e-07
3.16662e-07
3.0174e-07
3.01765e-07
3.5371e-07
3.35401e-07
3.16644e-07
3.01749e-07
3.01746e-07
3.354e-07
3.34141e-07
3.17532e-07
2.97044e-07
2.97045e-07
2.83623e-07
2.83624e-07
3.34134e-07
3.17524e-07
2.97026e-07
2.97053e-07
2.83603e-07
2.83631e-07
2.97047e-07
2.83599e-07
2.83625e-07
3.34148e-07
3.1754e-07
2.97027e-07
2.83608e-07
2.83604e-07
3.17539e-07
3.16477e-07
3.01975e-07
2.79394e-07
2.79394e-07
2.67442e-07
2.67442e-07
3.16471e-07
3.01964e-07
2.79374e-07
2.79402e-07
2.6742e-07
2.67449e-07
2.79396e-07
2.67417e-07
2.67443e-07
3.16485e-07
3.01982e-07
2.79375e-07
2.67426e-07
2.67421e-07
3.01981e-07
3.01154e-07
2.8904e-07
2.63704e-07
2.63704e-07
2.53227e-07
2.53227e-07
3.01146e-07
2.89031e-07
2.63682e-07
2.63711e-07
2.53204e-07
2.53234e-07
2.63705e-07
2.532e-07
2.53228e-07
3.01163e-07
2.89048e-07
2.63683e-07
2.5321e-07
2.53205e-07
2.89045e-07
2.88485e-07
2.78953e-07
2.49981e-07
2.49981e-07
2.40981e-07
2.40981e-07
2.88479e-07
2.78938e-07
2.49959e-07
2.49989e-07
2.40957e-07
2.40988e-07
2.49982e-07
2.40952e-07
2.4098e-07
2.88493e-07
2.78958e-07
2.49959e-07
2.40962e-07
2.40957e-07
2.78957e-07
2.7869e-07
2.7183e-07
2.38227e-07
2.38228e-07
2.30702e-07
2.30702e-07
2.78679e-07
2.71819e-07
2.38203e-07
2.38235e-07
2.30677e-07
2.3071e-07
2.38228e-07
2.3067e-07
2.30701e-07
2.78698e-07
2.7184e-07
2.38204e-07
2.30681e-07
2.30677e-07
2.71839e-07
2.71869e-07
2.67864e-07
2.28441e-07
2.28444e-07
2.22399e-07
2.224e-07
2.7186e-07
2.6785e-07
2.28417e-07
2.28452e-07
2.22372e-07
2.22409e-07
2.28442e-07
2.22364e-07
2.22397e-07
2.71879e-07
2.67874e-07
2.28417e-07
2.22376e-07
2.22372e-07
2.67871e-07
2.68156e-07
2.66981e-07
2.20633e-07
2.20637e-07
2.16077e-07
2.1608e-07
2.68144e-07
2.66965e-07
2.20608e-07
2.20646e-07
2.16049e-07
2.16089e-07
2.20634e-07
2.16038e-07
2.16075e-07
2.68166e-07
2.66992e-07
2.20609e-07
2.1605e-07
2.16048e-07
2.6699e-07
2.67635e-07
2.69154e-07
2.1481e-07
2.14816e-07
2.11745e-07
2.11752e-07
2.67619e-07
2.69136e-07
2.14784e-07
2.14825e-07
2.11718e-07
2.11762e-07
2.1481e-07
2.11701e-07
2.11742e-07
2.67644e-07
2.69166e-07
2.14783e-07
2.11716e-07
2.11714e-07
2.69165e-07
2.70484e-07
2.74661e-07
2.10982e-07
2.10989e-07
2.09414e-07
2.09423e-07
2.70466e-07
2.74639e-07
2.10955e-07
2.10999e-07
2.09387e-07
2.09435e-07
2.10979e-07
2.09363e-07
2.09409e-07
2.70495e-07
2.74676e-07
2.10951e-07
2.09382e-07
2.0938e-07
2.74675e-07
2.76686e-07
2.83546e-07
2.09158e-07
2.09166e-07
2.09128e-07
2.09136e-07
2.76663e-07
2.8352e-07
2.0913e-07
2.09179e-07
2.091e-07
2.09153e-07
2.09152e-07
2.09071e-07
2.09121e-07
2.76697e-07
2.83561e-07
2.09124e-07
2.09092e-07
2.09092e-07
2.8356e-07
2.86272e-07
2.95811e-07
2.09354e-07
2.09363e-07
2.1085e-07
2.10857e-07
2.86244e-07
2.95783e-07
2.09327e-07
2.09381e-07
2.10821e-07
2.1088e-07
2.09347e-07
2.10784e-07
2.10841e-07
2.86284e-07
2.95833e-07
2.09318e-07
2.1081e-07
2.10811e-07
2.95829e-07
2.99214e-07
3.11497e-07
2.11616e-07
2.11626e-07
2.14675e-07
2.14684e-07
2.99185e-07
3.11464e-07
2.11588e-07
2.11649e-07
2.14644e-07
2.14709e-07
2.11608e-07
2.14599e-07
2.14663e-07
2.99236e-07
3.11523e-07
2.11578e-07
2.14629e-07
2.14632e-07
3.11514e-07
3.15592e-07
3.3056e-07
2.15961e-07
2.15974e-07
2.20594e-07
2.20616e-07
3.15556e-07
3.30523e-07
2.15932e-07
2.16e-07
2.20565e-07
2.20641e-07
2.1595e-07
2.20516e-07
2.20586e-07
3.15612e-07
3.30588e-07
2.15919e-07
2.20549e-07
2.20554e-07
3.30579e-07
3.35348e-07
3.52914e-07
2.22404e-07
2.22429e-07
2.28628e-07
2.28662e-07
3.35309e-07
3.52876e-07
2.22377e-07
2.22454e-07
2.28601e-07
2.28687e-07
2.22397e-07
2.28549e-07
2.28625e-07
3.3537e-07
3.52944e-07
2.22364e-07
2.28584e-07
2.28591e-07
3.52941e-07
3.58376e-07
3.78401e-07
2.30967e-07
2.31003e-07
2.38775e-07
2.38818e-07
3.58339e-07
3.78361e-07
2.30941e-07
2.31029e-07
2.38747e-07
2.38844e-07
2.30964e-07
2.38691e-07
2.38775e-07
3.58402e-07
3.78439e-07
2.3093e-07
2.38728e-07
2.38739e-07
3.78436e-07
3.8451e-07
4.06791e-07
2.41639e-07
2.41684e-07
2.51016e-07
2.51065e-07
3.84468e-07
4.0674e-07
2.41613e-07
2.41712e-07
2.50986e-07
2.51095e-07
2.4164e-07
2.50925e-07
2.51019e-07
3.84543e-07
4.0683e-07
2.41603e-07
2.50967e-07
2.5098e-07
4.06829e-07
4.13502e-07
4.3775e-07
2.54399e-07
2.54451e-07
2.6531e-07
2.65371e-07
4.13449e-07
4.3771e-07
2.54371e-07
2.54481e-07
2.65277e-07
2.65401e-07
2.54402e-07
2.65215e-07
2.65318e-07
4.13535e-07
4.37805e-07
2.54365e-07
2.65261e-07
2.65281e-07
4.37797e-07
4.44998e-07
4.70915e-07
2.69197e-07
2.69259e-07
2.81604e-07
2.81667e-07
4.44961e-07
4.70865e-07
2.69165e-07
2.69292e-07
2.81566e-07
2.81699e-07
2.69207e-07
2.81498e-07
2.81613e-07
4.45049e-07
4.7097e-07
2.6917e-07
2.81546e-07
2.81574e-07
4.70969e-07
4.78647e-07
5.05848e-07
2.85981e-07
2.86043e-07
2.99807e-07
2.99875e-07
4.78592e-07
5.05792e-07
2.85944e-07
2.86076e-07
2.99763e-07
2.99913e-07
2.8599e-07
2.99692e-07
2.99818e-07
4.78684e-07
5.05925e-07
2.85951e-07
2.99749e-07
2.99776e-07
5.05906e-07
5.13971e-07
5.42135e-07
3.04648e-07
3.04716e-07
3.19828e-07
3.199e-07
5.13917e-07
5.42064e-07
3.04606e-07
3.04752e-07
3.19778e-07
3.19942e-07
3.04659e-07
3.19704e-07
3.19839e-07
5.14038e-07
5.42196e-07
3.04616e-07
3.19767e-07
3.19791e-07
5.4218e-07
5.50561e-07
5.79295e-07
3.25105e-07
3.25177e-07
3.41542e-07
3.41614e-07
5.505e-07
5.79215e-07
3.25055e-07
3.25225e-07
3.41483e-07
3.41657e-07
3.2512e-07
3.41406e-07
3.41565e-07
5.50642e-07
5.7935e-07
3.25072e-07
3.41472e-07
3.41511e-07
5.79377e-07
5.87947e-07
6.16938e-07
3.47217e-07
3.4729e-07
3.64837e-07
3.64905e-07
5.87869e-07
6.1685e-07
3.47159e-07
3.47343e-07
3.64769e-07
3.64945e-07
3.47239e-07
3.64684e-07
3.64851e-07
5.87996e-07
6.17001e-07
3.47184e-07
3.6475e-07
3.64789e-07
6.16996e-07
6.25758e-07
6.54579e-07
3.70879e-07
3.70946e-07
3.89523e-07
3.89603e-07
6.25653e-07
6.5456e-07
3.70813e-07
3.70989e-07
3.89445e-07
3.89648e-07
3.709e-07
3.89372e-07
3.89551e-07
6.25778e-07
6.54695e-07
3.70837e-07
3.89447e-07
3.89481e-07
6.54687e-07
6.63487e-07
6.92089e-07
3.95921e-07
3.95977e-07
4.15498e-07
4.15577e-07
6.63428e-07
6.92028e-07
3.95845e-07
3.96027e-07
4.1541e-07
4.15625e-07
3.95936e-07
4.1534e-07
4.15522e-07
6.63561e-07
6.92157e-07
3.95864e-07
4.15415e-07
4.15443e-07
6.92144e-07
7.00951e-07
7.28965e-07
4.22167e-07
4.22237e-07
4.42571e-07
4.42657e-07
7.00921e-07
7.28866e-07
4.22081e-07
4.22302e-07
4.42473e-07
4.4269e-07
4.22199e-07
4.42415e-07
4.42605e-07
7.0105e-07
7.29027e-07
4.22119e-07
4.42476e-07
4.42515e-07
7.29084e-07
7.37811e-07
7.6508e-07
4.49479e-07
4.49569e-07
4.70586e-07
4.70619e-07
7.37735e-07
7.64967e-07
4.49383e-07
4.49596e-07
4.70479e-07
4.70719e-07
4.49513e-07
4.70369e-07
4.70603e-07
7.37861e-07
7.65179e-07
4.49421e-07
4.705e-07
4.70506e-07
7.65183e-07
7.7383e-07
8.00309e-07
4.77728e-07
4.77779e-07
4.99289e-07
4.99398e-07
7.73709e-07
8.00277e-07
4.77625e-07
4.77876e-07
4.99171e-07
4.9939e-07
4.77744e-07
4.99146e-07
4.9937e-07
7.7393e-07
8.0035e-07
4.77646e-07
4.99173e-07
4.99262e-07
8.00343e-07
8.08886e-07
8.34465e-07
5.06582e-07
5.06639e-07
5.28731e-07
5.28793e-07
8.08871e-07
8.34318e-07
5.06467e-07
5.06649e-07
5.28612e-07
5.28914e-07
5.06627e-07
5.28537e-07
5.28721e-07
8.08918e-07
8.34559e-07
5.06517e-07
5.2869e-07
5.28609e-07
8.34516e-07
8.42907e-07
8.67349e-07
5.36069e-07
5.36242e-07
5.58349e-07
5.5838e-07
8.42815e-07
8.67329e-07
5.35953e-07
5.3633e-07
5.58211e-07
5.58357e-07
5.3621e-07
5.58129e-07
5.58452e-07
8.43029e-07
8.67425e-07
5.36096e-07
5.58144e-07
5.58326e-07
8.67649e-07
8.75627e-07
8.99453e-07
5.65972e-07
5.65829e-07
5.88466e-07
5.88567e-07
8.75472e-07
8.99306e-07
5.65844e-07
5.65868e-07
5.88337e-07
5.88692e-07
5.65827e-07
5.8831e-07
5.88483e-07
8.75562e-07
8.99527e-07
5.65703e-07
5.88475e-07
5.88358e-07
8.99269e-07
9.07347e-07
9.29711e-07
5.95758e-07
5.96103e-07
6.18313e-07
6.18369e-07
9.07391e-07
9.29794e-07
5.95626e-07
5.96118e-07
6.18168e-07
6.18447e-07
5.96062e-07
6.18128e-07
6.18367e-07
9.07604e-07
9.29918e-07
5.95932e-07
6.18243e-07
6.18232e-07
9.30032e-07
9.37642e-07
9.59789e-07
6.26106e-07
6.25815e-07
6.48512e-07
6.48508e-07
9.37503e-07
9.59329e-07
6.25981e-07
6.26103e-07
6.48373e-07
6.48454e-07
6.25848e-07
6.48249e-07
6.4852e-07
9.37651e-07
9.59562e-07
6.25727e-07
6.48243e-07
6.48379e-07
9.5959e-07
9.67092e-07
9.87115e-07
6.55633e-07
6.56046e-07
6.77777e-07
6.77925e-07
9.66945e-07
9.87516e-07
6.55475e-07
6.55637e-07
6.7763e-07
6.78122e-07
6.55968e-07
6.77706e-07
6.7816e-07
9.66974e-07
9.87508e-07
6.5581e-07
6.77947e-07
6.78018e-07
9.87763e-07
9.94635e-07
1.01511e-06
6.85404e-07
6.85137e-07
7.0745e-07
7.07376e-07
9.94665e-07
1.01455e-06
6.85305e-07
6.85853e-07
7.07341e-07
7.07488e-07
6.85553e-07
7.07129e-07
7.07156e-07
9.95047e-07
1.01508e-06
6.85444e-07
7.07292e-07
7.07041e-07
1.01465e-06
1.022e-06
1.04044e-06
7.14547e-07
7.14826e-07
7.36e-07
7.36275e-07
1.02181e-06
1.04087e-06
7.14404e-07
7.1429e-07
7.35828e-07
7.35866e-07
7.1427e-07
7.36048e-07
7.36146e-07
1.02178e-06
1.0401e-06
7.14115e-07
7.35686e-07
7.35966e-07
1.0406e-06
1.04734e-06
1.06549e-06
7.43161e-07
7.43183e-07
7.64185e-07
7.63977e-07
1.0475e-06
1.06495e-06
7.43032e-07
7.43401e-07
7.64106e-07
7.64741e-07
7.43465e-07
7.63775e-07
7.6451e-07
1.04727e-06
1.0662e-06
7.43319e-07
7.64595e-07
7.6442e-07
1.06591e-06
1.07201e-06
1.08901e-06
7.71072e-07
7.70966e-07
7.91523e-07
7.91663e-07
1.07158e-06
1.08908e-06
7.70981e-07
7.71356e-07
7.91369e-07
7.91297e-07
7.71265e-07
7.9144e-07
7.9145e-07
1.07253e-06
1.08857e-06
7.71157e-07
7.91128e-07
7.91285e-07
1.08886e-06
1.09536e-06
1.11167e-06
7.98248e-07
7.98395e-07
8.1809e-07
8.18154e-07
1.09545e-06
1.11161e-06
7.98102e-07
7.98126e-07
8.17973e-07
8.18337e-07
7.98196e-07
8.17952e-07
8.18198e-07
1.09498e-06
1.11191e-06
7.98032e-07
8.1819e-07
8.18071e-07
1.11176e-06
1.11779e-06
1.13331e-06
8.24606e-07
8.24643e-07
8.43836e-07
8.43849e-07
1.11771e-06
1.13319e-06
8.24502e-07
8.24849e-07
8.43717e-07
8.43891e-07
8.24739e-07
8.43657e-07
8.43959e-07
1.11806e-06
1.13328e-06
8.24618e-07
8.43755e-07
8.43831e-07
1.13342e-06
1.13923e-06
1.1539e-06
8.5012e-07
8.5014e-07
8.68585e-07
8.68613e-07
1.13912e-06
1.15381e-06
8.50002e-07
8.50139e-07
8.68458e-07
8.68614e-07
8.50237e-07
8.68426e-07
8.68646e-07
1.13915e-06
1.15386e-06
8.50105e-07
8.68483e-07
8.68514e-07
1.15394e-06
1.15959e-06
1.17347e-06
8.74617e-07
8.74633e-07
8.92319e-07
8.92341e-07
1.1595e-06
1.17337e-06
8.745e-07
8.74677e-07
8.92203e-07
8.92458e-07
8.74653e-07
8.92157e-07
8.9238e-07
1.15957e-06
1.17358e-06
8.74525e-07
8.92331e-07
8.92262e-07
1.1735e-06
1.17895e-06
1.19209e-06
8.98092e-07
8.98132e-07
9.15058e-07
9.15111e-07
1.17887e-06
1.19206e-06
8.97982e-07
8.98234e-07
9.14937e-07
9.15155e-07
8.98195e-07
9.14944e-07
9.1523e-07
1.17907e-06
1.19216e-06
8.98077e-07
9.15046e-07
9.15109e-07
1.19228e-06
1.19739e-06
1.20986e-06
9.20593e-07
9.20634e-07
9.36813e-07
9.36827e-07
1.19735e-06
1.20976e-06
9.20477e-07
9.20675e-07
9.36692e-07
9.3687e-07
9.20751e-07
9.36658e-07
9.36884e-07
1.19744e-06
1.20987e-06
9.2063e-07
9.36759e-07
9.36765e-07
1.20993e-06
1.21497e-06
1.22671e-06
9.42088e-07
9.42099e-07
9.57514e-07
9.57534e-07
1.21487e-06
1.22663e-06
9.41974e-07
9.42148e-07
9.57398e-07
9.57591e-07
9.42148e-07
9.57371e-07
9.57592e-07
1.21498e-06
1.22675e-06
9.4203e-07
9.57486e-07
9.57479e-07
1.22678e-06
1.23163e-06
1.24271e-06
9.62533e-07
9.62556e-07
9.77222e-07
9.77248e-07
1.23155e-06
1.24264e-06
9.62422e-07
9.62613e-07
9.77104e-07
9.77292e-07
9.62627e-07
9.77093e-07
9.7732e-07
1.23166e-06
1.24275e-06
9.62514e-07
9.77196e-07
9.77207e-07
1.24281e-06
1.24745e-06
1.25786e-06
9.81988e-07
9.82011e-07
9.95908e-07
9.95931e-07
1.24738e-06
1.25779e-06
9.81876e-07
9.82057e-07
9.95792e-07
9.95973e-07
9.82085e-07
9.95782e-07
9.96003e-07
1.24748e-06
1.2579e-06
9.81972e-07
9.95882e-07
9.95893e-07
1.25795e-06
1.26243e-06
1.27223e-06
1.00043e-06
1.00045e-06
1.01362e-06
1.01363e-06
1.26236e-06
1.27215e-06
1.00032e-06
1.00049e-06
1.0135e-06
1.01368e-06
1.00053e-06
1.01348e-06
1.01369e-06
1.26246e-06
1.27226e-06
1.00042e-06
1.01359e-06
1.01358e-06
1.2723e-06
1.27663e-06
1.2858e-06
1.01788e-06
1.0179e-06
1.03033e-06
1.03036e-06
1.27655e-06
1.28573e-06
1.01777e-06
1.01795e-06
1.03021e-06
1.03039e-06
1.01796e-06
1.03022e-06
1.03043e-06
1.27665e-06
1.28583e-06
1.01785e-06
1.03031e-06
1.03032e-06
1.28589e-06
1.29004e-06
1.29863e-06
1.03436e-06
1.03439e-06
1.04608e-06
1.04609e-06
1.28998e-06
1.29854e-06
1.03425e-06
1.03442e-06
1.04597e-06
1.04614e-06
1.03446e-06
1.04594e-06
1.04614e-06
1.29007e-06
1.29865e-06
1.03436e-06
1.04606e-06
1.04604e-06
1.29868e-06
1.30271e-06
1.31071e-06
1.04986e-06
1.04988e-06
1.0609e-06
1.06094e-06
1.30262e-06
1.31066e-06
1.04976e-06
1.04993e-06
1.06078e-06
1.06095e-06
1.04994e-06
1.06081e-06
1.06101e-06
1.30273e-06
1.31074e-06
1.04984e-06
1.06088e-06
1.0609e-06
1.31081e-06
1.31465e-06
1.32211e-06
1.06447e-06
1.0645e-06
1.0748e-06
1.07479e-06
1.31461e-06
1.322e-06
1.06436e-06
1.06451e-06
1.07469e-06
1.07485e-06
1.06457e-06
1.07465e-06
1.07484e-06
1.31468e-06
1.32212e-06
1.06446e-06
1.07477e-06
1.07474e-06
1.32214e-06
1.32589e-06
1.33275e-06
1.07811e-06
1.07813e-06
1.08777e-06
1.08782e-06
1.32579e-06
1.33273e-06
1.07801e-06
1.07818e-06
1.08765e-06
1.08782e-06
1.07818e-06
1.0877e-06
1.08789e-06
1.32591e-06
1.3328e-06
1.07808e-06
1.08776e-06
1.08779e-06
1.33288e-06
1.33641e-06
1.34285e-06
1.0909e-06
1.09093e-06
1.09996e-06
1.09995e-06
1.3364e-06
1.34273e-06
1.09079e-06
1.09095e-06
1.09985e-06
1.1e-06
1.091e-06
1.09981e-06
1.09999e-06
1.33645e-06
1.34286e-06
1.0909e-06
1.09992e-06
1.09989e-06
1.34286e-06
1.34637e-06
1.35213e-06
1.10285e-06
1.10286e-06
1.11116e-06
1.11122e-06
1.34626e-06
1.35212e-06
1.10274e-06
1.10289e-06
1.11105e-06
1.11121e-06
1.1029e-06
1.1111e-06
1.11128e-06
1.34638e-06
1.35216e-06
1.1028e-06
1.11115e-06
1.11118e-06
1.35226e-06
1.35551e-06
1.36097e-06
1.11384e-06
1.11388e-06
1.12173e-06
1.12172e-06
1.3555e-06
1.36086e-06
1.11374e-06
1.11391e-06
1.12163e-06
1.12179e-06
1.11396e-06
1.1216e-06
1.12178e-06
1.35555e-06
1.361e-06
1.11386e-06
1.12171e-06
1.12168e-06
1.361e-06
1.36426e-06
1.36904e-06
1.12425e-06
1.12426e-06
1.13131e-06
1.13136e-06
1.36416e-06
1.36902e-06
1.12414e-06
1.12429e-06
1.13119e-06
1.13134e-06
1.1243e-06
1.13123e-06
1.1314e-06
1.36429e-06
1.36905e-06
1.1242e-06
1.13127e-06
1.1313e-06
1.36914e-06
1.37216e-06
1.37666e-06
1.13359e-06
1.13363e-06
1.14036e-06
1.14037e-06
1.37214e-06
1.37657e-06
1.13349e-06
1.13364e-06
1.14026e-06
1.14044e-06
1.13369e-06
1.14025e-06
1.14044e-06
1.37217e-06
1.37672e-06
1.1336e-06
1.14037e-06
1.14035e-06
1.37673e-06
1.37971e-06
1.38351e-06
1.14244e-06
1.14247e-06
1.14835e-06
1.1484e-06
1.37963e-06
1.38349e-06
1.14234e-06
1.14251e-06
1.14824e-06
1.14837e-06
1.14252e-06
1.14828e-06
1.14842e-06
1.37976e-06
1.38351e-06
1.14243e-06
1.1483e-06
1.14831e-06
1.38357e-06
1.38645e-06
1.39019e-06
1.1504e-06
1.15042e-06
1.15606e-06
1.15608e-06
1.38642e-06
1.39009e-06
1.15029e-06
1.15042e-06
1.15597e-06
1.15613e-06
1.15046e-06
1.15596e-06
1.15615e-06
1.38645e-06
1.39023e-06
1.15036e-06
1.15608e-06
1.15608e-06
1.39027e-06
1.39293e-06
1.39566e-06
1.15762e-06
1.15765e-06
1.16256e-06
1.16261e-06
1.39285e-06
1.39565e-06
1.15753e-06
1.1577e-06
1.16245e-06
1.16261e-06
1.15772e-06
1.1625e-06
1.16265e-06
1.39298e-06
1.39569e-06
1.15765e-06
1.16253e-06
1.16253e-06
1.39575e-06
1.39848e-06
1.40145e-06
1.1644e-06
1.16444e-06
1.16883e-06
1.16884e-06
1.39847e-06
1.40136e-06
1.1643e-06
1.16443e-06
1.16874e-06
1.16887e-06
1.16449e-06
1.16872e-06
1.16888e-06
1.3985e-06
1.40145e-06
1.16436e-06
1.16881e-06
1.1688e-06
1.40149e-06
1.4039e-06
1.40603e-06
1.17e-06
1.17001e-06
1.17444e-06
1.17449e-06
1.40381e-06
1.40599e-06
1.16992e-06
1.17006e-06
1.17434e-06
1.17451e-06
1.17005e-06
1.17438e-06
1.17455e-06
1.40391e-06
1.40609e-06
1.16998e-06
1.17446e-06
1.17447e-06
1.40613e-06
1.40872e-06
1.41016e-06
1.1759e-06
1.17596e-06
1.17861e-06
1.17863e-06
1.4087e-06
1.41011e-06
1.1758e-06
1.17596e-06
1.17851e-06
1.17864e-06
1.17604e-06
1.17852e-06
1.17867e-06
1.40878e-06
1.41016e-06
1.17594e-06
1.17856e-06
1.17856e-06
1.41022e-06
1.41238e-06
1.41479e-06
1.17961e-06
1.17961e-06
1.18398e-06
1.18401e-06
1.41232e-06
1.41472e-06
1.17952e-06
1.17965e-06
1.18389e-06
1.18404e-06
1.17962e-06
1.1839e-06
1.18406e-06
1.41238e-06
1.41482e-06
1.17953e-06
1.18398e-06
1.18397e-06
1.41484e-06
1.41732e-06
1.41686e-06
1.18502e-06
1.18508e-06
1.18619e-06
1.18624e-06
1.41729e-06
1.41684e-06
1.18493e-06
1.18509e-06
1.1861e-06
1.18625e-06
1.18517e-06
1.18614e-06
1.18632e-06
1.41738e-06
1.41691e-06
1.18508e-06
1.18621e-06
1.18624e-06
1.417e-06
1.41876e-06
1.42143e-06
1.18679e-06
1.1868e-06
1.19077e-06
1.19077e-06
1.4187e-06
1.42131e-06
1.1867e-06
1.18683e-06
1.19067e-06
1.1908e-06
1.18683e-06
1.19063e-06
1.19076e-06
1.41878e-06
1.42141e-06
1.18675e-06
1.19071e-06
1.19067e-06
1.42138e-06
1.42408e-06
1.42257e-06
1.19189e-06
1.19194e-06
1.19254e-06
1.19265e-06
1.42402e-06
1.42266e-06
1.1918e-06
1.19195e-06
1.19246e-06
1.19263e-06
1.19199e-06
1.19256e-06
1.19275e-06
1.42409e-06
1.42269e-06
1.19189e-06
1.19261e-06
1.19265e-06
1.42285e-06
1.42405e-06
1.42487e-06
1.19249e-06
1.19257e-06
1.19424e-06
1.19417e-06
1.42413e-06
1.42466e-06
1.1924e-06
1.19256e-06
1.19415e-06
1.19424e-06
1.19266e-06
1.19403e-06
1.19415e-06
1.42416e-06
1.42479e-06
1.19257e-06
1.19413e-06
1.19407e-06
1.42473e-06
1.42772e-06
1.42727e-06
1.19545e-06
1.1954e-06
1.19666e-06
1.19674e-06
1.4275e-06
1.42739e-06
1.19535e-06
1.19545e-06
1.19658e-06
1.19673e-06
1.19539e-06
1.19663e-06
1.19679e-06
1.42763e-06
1.4274e-06
1.1953e-06
1.19668e-06
1.1967e-06
1.42754e-06
1.42865e-06
1.42814e-06
1.19652e-06
1.19661e-06
1.1974e-06
1.19742e-06
1.42877e-06
1.42807e-06
1.19643e-06
1.1966e-06
1.19731e-06
1.19745e-06
1.19668e-06
1.19731e-06
1.19747e-06
1.42878e-06
1.42816e-06
1.19659e-06
1.19738e-06
1.19738e-06
1.42818e-06
1.43086e-06
1.42597e-06
1.19806e-06
1.19806e-06
1.19629e-06
1.19632e-06
1.43075e-06
1.42591e-06
1.19797e-06
1.1981e-06
1.19619e-06
1.19631e-06
1.1981e-06
1.1962e-06
1.19636e-06
1.43086e-06
1.42596e-06
1.19801e-06
1.19624e-06
1.19627e-06
1.42605e-06
1.42682e-06
1.42738e-06
1.19448e-06
1.19454e-06
1.19583e-06
1.19586e-06
1.42678e-06
1.42735e-06
1.19439e-06
1.19452e-06
1.19575e-06
1.19589e-06
1.19457e-06
1.19576e-06
1.19587e-06
1.42681e-06
1.42739e-06
1.19448e-06
1.19581e-06
1.19579e-06
1.42738e-06
1.43419e-06
1.44509e-06
1.20121e-06
1.20123e-06
1.20752e-06
1.20755e-06
1.43414e-06
1.44502e-06
1.20114e-06
1.2013e-06
1.20745e-06
1.20763e-06
1.20123e-06
1.20745e-06
1.20761e-06
1.43423e-06
1.44521e-06
1.20115e-06
1.20755e-06
1.20753e-06
1.44523e-06
1.44351e-06
1.37668e-06
1.20325e-06
1.20329e-06
1.16526e-06
1.16533e-06
1.44345e-06
1.37672e-06
1.20317e-06
1.20334e-06
1.16516e-06
1.1653e-06
1.20338e-06
1.16526e-06
1.16539e-06
1.44362e-06
1.37669e-06
1.20329e-06
1.16525e-06
1.1653e-06
1.37681e-06
1.37588e-06
1.42418e-06
1.16063e-06
1.1607e-06
1.18742e-06
1.18748e-06
1.37593e-06
1.42421e-06
1.16053e-06
1.16066e-06
1.18732e-06
1.18749e-06
1.16073e-06
1.18739e-06
1.18746e-06
1.37588e-06
1.4242e-06
1.16064e-06
1.18738e-06
1.18736e-06
1.42417e-06
1.4524e-06
1.53215e-06
1.21485e-06
1.21489e-06
1.26192e-06
1.2619e-06
1.4524e-06
1.53196e-06
1.21475e-06
1.21494e-06
1.26183e-06
1.26201e-06
1.21489e-06
1.26175e-06
1.26194e-06
1.45243e-06
1.53218e-06
1.21479e-06
1.26187e-06
1.26184e-06
1.53215e-06
1.53369e-06
1.39429e-06
1.26071e-06
1.26069e-06
1.17497e-06
1.17498e-06
1.53349e-06
1.39419e-06
1.26063e-06
1.26081e-06
1.17491e-06
1.17506e-06
1.26074e-06
1.17491e-06
1.17505e-06
1.53372e-06
1.39436e-06
1.26064e-06
1.17499e-06
1.17499e-06
1.39435e-06
1.37193e-06
1.23962e-06
1.13428e-06
1.13431e-06
1.05533e-06
1.0554e-06
1.37189e-06
1.23972e-06
1.13423e-06
1.13436e-06
1.05528e-06
1.05542e-06
1.13438e-06
1.05538e-06
1.05547e-06
1.37201e-06
1.23973e-06
1.13434e-06
1.05541e-06
1.05544e-06
1.23981e-06
1.23846e-06
1.31621e-06
1.05071e-06
1.05079e-06
1.09563e-06
1.09568e-06
1.23856e-06
1.31619e-06
1.05066e-06
1.05081e-06
1.09552e-06
1.09572e-06
1.05086e-06
1.09555e-06
1.09574e-06
1.23856e-06
1.31627e-06
1.05082e-06
1.09561e-06
1.09564e-06
1.31633e-06
1.35339e-06
1.52537e-06
1.13531e-06
1.13535e-06
1.25768e-06
1.2577e-06
1.35335e-06
1.52526e-06
1.13518e-06
1.13539e-06
1.25754e-06
1.25775e-06
1.13539e-06
1.25751e-06
1.25772e-06
1.35344e-06
1.52538e-06
1.13528e-06
1.25757e-06
1.25759e-06
1.52539e-06
1.55161e-06
1.59206e-06
1.28264e-06
1.28267e-06
1.30319e-06
1.30322e-06
1.55151e-06
1.59197e-06
1.28251e-06
1.28272e-06
1.30308e-06
1.30327e-06
1.28269e-06
1.30306e-06
1.30324e-06
1.55161e-06
1.59208e-06
1.28256e-06
1.30312e-06
1.30312e-06
1.59208e-06
1.59116e-06
1.47366e-06
1.29705e-06
1.29708e-06
1.21746e-06
1.21751e-06
1.59108e-06
1.47364e-06
1.29695e-06
1.29714e-06
1.2174e-06
1.21756e-06
1.29711e-06
1.21742e-06
1.21755e-06
1.59117e-06
1.47373e-06
1.297e-06
1.21749e-06
1.21749e-06
1.47377e-06
1.46034e-06
1.32045e-06
1.1846e-06
1.18465e-06
1.09848e-06
1.09851e-06
1.46035e-06
1.32043e-06
1.18454e-06
1.1847e-06
1.09842e-06
1.09857e-06
1.1847e-06
1.09845e-06
1.09857e-06
1.4604e-06
1.32054e-06
1.18464e-06
1.09852e-06
1.09852e-06
1.32058e-06
1.31351e-06
1.25679e-06
1.0788e-06
1.07883e-06
1.04206e-06
1.04209e-06
1.31349e-06
1.25675e-06
1.07874e-06
1.07889e-06
1.04199e-06
1.04214e-06
1.07888e-06
1.042e-06
1.04213e-06
1.31358e-06
1.25684e-06
1.07883e-06
1.04206e-06
1.04207e-06
1.25687e-06
1.25704e-06
1.2585e-06
1.03694e-06
1.03698e-06
1.03291e-06
1.03295e-06
1.257e-06
1.25846e-06
1.03686e-06
1.03702e-06
1.03283e-06
1.03299e-06
1.03702e-06
1.03283e-06
1.03298e-06
1.25709e-06
1.25855e-06
1.03694e-06
1.0329e-06
1.0329e-06
1.25857e-06
1.26451e-06
1.28274e-06
1.03507e-06
1.03512e-06
1.04538e-06
1.04543e-06
1.26447e-06
1.28271e-06
1.03499e-06
1.03515e-06
1.04529e-06
1.04546e-06
1.03514e-06
1.0453e-06
1.04545e-06
1.26455e-06
1.28281e-06
1.03505e-06
1.04535e-06
1.04537e-06
1.28283e-06
1.28731e-06
1.27624e-06
1.04756e-06
1.04761e-06
1.03123e-06
1.03127e-06
1.28729e-06
1.27623e-06
1.04747e-06
1.04764e-06
1.0312e-06
1.03123e-06
1.04764e-06
1.03123e-06
1.03128e-06
1.28737e-06
1.27626e-06
1.04754e-06
1.03123e-06
1.03124e-06
1.27628e-06
1.25589e-06
1.00116e-06
1.0012e-06
1.25589e-06
1.00115e-06
1.00116e-06
5.86568e-07
5.86539e-07
5.86576e-07
1.00121e-06
1.2559e-06
1.0012e-06
5.35663e-07
5.35601e-07
5.35655e-07
5.35655e-07
5.34573e-07
5.35516e-07
5.33634e-07
5.35654e-07
5.34573e-07
5.35517e-07
5.35654e-07
5.33634e-07
5.35256e-07
5.35986e-07
5.35987e-07
1.10713e-06
3.88082e-06
9.33891e-07
4.60617e-06
1.26081e-05
1.66011e-05
1.10725e-06
3.88106e-06
9.33924e-07
4.60653e-06
4.95567e-07
4.95567e-07
4.95567e-07
4.57231e-07
4.57231e-07
4.57232e-07
4.57232e-07
5.43144e-07
1.22026e-06
4.95565e-07
4.85522e-07
5.25341e-07
1.20946e-06
4.82301e-07
1.26097e-05
1.66037e-05
5.43162e-07
4.95565e-07
1.22025e-06
4.85523e-07
5.2532e-07
4.82302e-07
1.20945e-06
2.52172e-06
2.52242e-06
4.8419e-07
2.37248e-06
2.37287e-06
1.4308e-06
5.59329e-06
1.32967e-06
6.13637e-06
2.12844e-05
2.31105e-05
1.4312e-06
5.59395e-06
1.32973e-06
6.13703e-06
4.45572e-07
4.45573e-07
4.45573e-07
4.13542e-07
4.13542e-07
4.13543e-07