/*--------------------------------*- C++ -*----------------------------------*\
| =========                 |                                                 |
| \\      /  F ield         | OpenFOAM: The Open Source CFD Toolbox           |
|  \\    /   O peration     | Version:  v2012                                 |
|   \\  /    A nd           | Website:  www.openfoam.com                      |
|    \\/     M anipulation  |                                                 |
\*---------------------------------------------------------------------------*/
FoamFile
{
    version     2.0;
    format      ascii;
    class       volScalarField;
    location    "375";
    object      k;
}
// * * * * * * * * * * * * * * * * * * * * * * * * * * * * * * * * * * * * * //

dimensions      [0 2 -2 0 0 0 0];


internalField   nonuniform List<scalar> 
171728
(
3.58932e-05
3.58912e-05
3.58912e-05
3.59957e-05
3.39296e-05
3.3889e-05
3.3889e-05
3.39622e-05
3.21578e-05
3.20081e-05
3.20081e-05
3.19522e-05
3.05346e-05
3.02293e-05
3.02292e-05
2.99884e-05
2.90329e-05
2.8554e-05
2.85539e-05
2.81226e-05
2.76353e-05
2.69872e-05
2.69871e-05
2.63907e-05
2.63308e-05
2.5531e-05
2.55309e-05
2.48073e-05
2.51112e-05
2.4185e-05
2.41848e-05
2.33781e-05
2.39709e-05
2.29506e-05
2.29504e-05
2.21047e-05
2.29058e-05
2.18269e-05
2.18267e-05
2.0986e-05
2.1912e-05
2.08114e-05
2.08112e-05
2.00134e-05
2.09865e-05
1.99013e-05
1.99011e-05
1.91814e-05
2.01241e-05
1.90947e-05
1.90946e-05
1.84895e-05
1.93239e-05
1.83885e-05
1.83884e-05
1.79331e-05
1.85847e-05
1.77793e-05
1.77793e-05
1.75062e-05
1.79042e-05
1.72656e-05
1.72656e-05
1.72002e-05
1.72798e-05
1.68465e-05
1.68466e-05
1.70226e-05
1.67097e-05
1.65211e-05
1.65213e-05
1.69817e-05
1.61923e-05
1.62895e-05
1.62897e-05
1.70789e-05
1.57254e-05
1.61516e-05
1.6152e-05
1.7304e-05
1.53073e-05
1.61072e-05
1.61077e-05
1.76568e-05
1.49374e-05
1.61534e-05
1.61539e-05
1.81338e-05
1.46145e-05
1.62919e-05
1.62926e-05
1.87284e-05
1.43383e-05
1.65199e-05
1.65209e-05
1.9428e-05
1.41079e-05
1.68355e-05
1.68365e-05
2.02204e-05
1.39235e-05
1.72353e-05
1.72361e-05
2.10944e-05
1.37846e-05
1.77156e-05
1.77171e-05
2.20352e-05
1.36906e-05
1.82725e-05
1.82744e-05
2.30292e-05
1.36418e-05
1.89011e-05
1.89028e-05
2.40659e-05
1.36393e-05
1.9598e-05
1.95992e-05
2.51248e-05
1.36814e-05
2.03544e-05
2.03571e-05
2.61998e-05
1.37694e-05
2.11685e-05
2.11705e-05
2.72822e-05
1.39049e-05
2.20354e-05
2.20348e-05
2.83632e-05
1.40869e-05
2.29354e-05
2.29424e-05
2.94282e-05
1.43099e-05
2.38823e-05
2.38785e-05
3.04824e-05
1.45939e-05
2.48615e-05
2.48713e-05
3.15161e-05
1.48993e-05
2.58472e-05
2.58389e-05
3.25506e-05
1.52889e-05
2.68782e-05
2.68916e-05
3.3522e-05
1.5673e-05
2.78935e-05
2.78897e-05
3.45044e-05
1.61637e-05
2.89372e-05
2.8942e-05
3.54552e-05
1.66303e-05
2.99643e-05
2.99594e-05
3.63739e-05
1.71991e-05
3.0992e-05
3.10238e-05
3.72696e-05
1.77707e-05
3.20444e-05
3.19902e-05
3.8123e-05
1.83967e-05
3.30208e-05
3.3082e-05
3.90208e-05
1.90495e-05
3.40353e-05
3.40101e-05
3.97944e-05
1.97367e-05
3.50116e-05
3.50188e-05
4.06055e-05
2.04572e-05
3.59671e-05
3.59715e-05
4.13837e-05
2.12007e-05
3.69025e-05
3.68996e-05
4.21297e-05
2.19649e-05
3.7807e-05
3.78138e-05
4.2847e-05
2.27446e-05
3.86904e-05
3.86932e-05
4.35534e-05
2.3541e-05
3.95427e-05
3.95443e-05
4.42221e-05
2.43482e-05
4.03677e-05
4.03707e-05
4.48705e-05
2.5161e-05
4.11669e-05
4.11688e-05
4.5499e-05
2.5975e-05
4.19343e-05
4.19363e-05
4.60999e-05
2.6791e-05
4.26734e-05
4.26758e-05
4.66783e-05
2.75988e-05
4.33857e-05
4.33863e-05
4.72352e-05
2.84026e-05
4.40636e-05
4.40673e-05
4.77664e-05
2.91931e-05
4.47213e-05
4.47206e-05
4.82803e-05
2.99747e-05
4.53413e-05
4.53455e-05
4.8765e-05
3.07346e-05
4.59409e-05
4.59397e-05
4.92357e-05
3.14853e-05
4.65077e-05
4.65121e-05
4.96783e-05
3.22096e-05
4.70498e-05
4.70477e-05
5.0105e-05
3.29159e-05
4.75643e-05
4.75695e-05
5.05068e-05
3.35984e-05
4.80488e-05
4.80456e-05
5.08904e-05
3.42666e-05
4.85198e-05
4.85255e-05
5.12586e-05
3.48772e-05
4.89358e-05
4.89322e-05
5.15863e-05
3.55283e-05
4.93745e-05
4.93793e-05
5.1938e-05
3.60585e-05
4.9728e-05
4.97268e-05
5.22032e-05
3.66602e-05
5.01072e-05
5.01075e-05
5.25232e-05
3.7166e-05
5.0457e-05
5.04599e-05
5.27715e-05
3.76589e-05
5.07112e-05
5.07094e-05
5.30074e-05
3.81502e-05
5.10897e-05
5.10912e-05
5.32857e-05
3.85905e-05
5.12784e-05
5.12781e-05
5.344e-05
3.89555e-05
5.15646e-05
5.1567e-05
5.36796e-05
3.95019e-05
5.18286e-05
5.18268e-05
5.38741e-05
3.96054e-05
5.185e-05
5.18505e-05
5.39029e-05
4.01724e-05
5.22362e-05
5.22365e-05
5.42158e-05
4.0398e-05
5.22972e-05
5.22965e-05
5.42293e-05
4.06841e-05
5.24458e-05
5.24465e-05
5.4442e-05
4.07357e-05
5.23216e-05
5.23199e-05
5.40335e-05
4.16468e-05
5.34472e-05
5.34509e-05
5.57096e-05
4.10961e-05
5.15887e-05
5.15877e-05
5.30663e-05
4.01247e-05
5.08739e-05
5.08685e-05
5.23455e-05
4.43902e-05
5.72698e-05
5.72735e-05
5.98224e-05
4.58878e-05
5.68987e-05
5.69041e-05
5.79598e-05
3.80785e-05
4.6191e-05
4.61893e-05
4.71896e-05
3.4399e-05
4.46296e-05
4.46285e-05
4.67975e-05
4.14651e-05
5.53773e-05
5.53782e-05
5.7668e-05
5.07067e-05
6.16648e-05
6.16643e-05
6.37259e-05
5.14701e-05
6.04958e-05
6.0495e-05
6.13263e-05
4.314e-05
5.15445e-05
5.15452e-05
5.30509e-05
3.70438e-05
4.70982e-05
4.70986e-05
4.90151e-05
3.55375e-05
4.64908e-05
4.64911e-05
4.88073e-05
3.70388e-05
4.79633e-05
4.79631e-05
5.03047e-05
3.83597e-05
4.76795e-05
4.76784e-05
5.06138e-05
3.63068e-05
3.6291e-05
3.6291e-05
3.63068e-05
3.6291e-05
3.6291e-05
3.6423e-05
3.6423e-05
3.6423e-05
3.6423e-05
3.6291e-05
3.6291e-05
3.63068e-05
3.6291e-05
3.6291e-05
3.63068e-05
3.59957e-05
3.42687e-05
3.58912e-05
3.58912e-05
3.43767e-05
3.43766e-05
3.59957e-05
3.42687e-05
3.58911e-05
3.58912e-05
3.43767e-05
3.43766e-05
3.58912e-05
3.43767e-05
3.43767e-05
3.59957e-05
3.42687e-05
3.58912e-05
3.43767e-05
3.43767e-05
3.42687e-05
3.39623e-05
3.22635e-05
3.38889e-05
3.38889e-05
3.24684e-05
3.24683e-05
3.39623e-05
3.22635e-05
3.38889e-05
3.38889e-05
3.24684e-05
3.24683e-05
3.38889e-05
3.24685e-05
3.24684e-05
3.39623e-05
3.22634e-05
3.38889e-05
3.24685e-05
3.24684e-05
3.22634e-05
3.19522e-05
3.02993e-05
3.20079e-05
3.20078e-05
3.06643e-05
3.06642e-05
3.19522e-05
3.02994e-05
3.2008e-05
3.20078e-05
3.06644e-05
3.06641e-05
3.20079e-05
3.06646e-05
3.06643e-05
3.19522e-05
3.02992e-05
3.2008e-05
3.06645e-05
3.06644e-05
3.02992e-05
2.99885e-05
2.84253e-05
3.0229e-05
3.02288e-05
2.89624e-05
2.89622e-05
2.99886e-05
2.84255e-05
3.02291e-05
3.02287e-05
2.89626e-05
2.89621e-05
3.02289e-05
2.89628e-05
2.89623e-05
2.99884e-05
2.84252e-05
3.02291e-05
2.89627e-05
2.89626e-05
2.84252e-05
2.81227e-05
2.6674e-05
2.85536e-05
2.85534e-05
2.7368e-05
2.73678e-05
2.81228e-05
2.66742e-05
2.85538e-05
2.85533e-05
2.73683e-05
2.73676e-05
2.85535e-05
2.73685e-05
2.73679e-05
2.81226e-05
2.66739e-05
2.85538e-05
2.73684e-05
2.73683e-05
2.66738e-05
2.63908e-05
2.50663e-05
2.69866e-05
2.69864e-05
2.58841e-05
2.58838e-05
2.63909e-05
2.50665e-05
2.6987e-05
2.69862e-05
2.58845e-05
2.58836e-05
2.69865e-05
2.58848e-05
2.5884e-05
2.63907e-05
2.50661e-05
2.69869e-05
2.58846e-05
2.58844e-05
2.50661e-05
2.48075e-05
2.36125e-05
2.55303e-05
2.553e-05
2.45102e-05
2.45099e-05
2.48076e-05
2.36127e-05
2.55308e-05
2.55299e-05
2.45107e-05
2.45097e-05
2.55302e-05
2.4511e-05
2.45102e-05
2.48073e-05
2.36123e-05
2.55307e-05
2.45108e-05
2.45107e-05
2.36123e-05
2.33784e-05
2.23124e-05
2.41842e-05
2.41838e-05
2.32478e-05
2.32475e-05
2.33785e-05
2.23126e-05
2.41847e-05
2.41836e-05
2.32484e-05
2.32473e-05
2.41841e-05
2.32488e-05
2.32478e-05
2.33782e-05
2.23122e-05
2.41846e-05
2.32485e-05
2.32484e-05
2.23122e-05
2.21049e-05
2.11681e-05
2.29497e-05
2.29494e-05
2.20965e-05
2.20962e-05
2.21051e-05
2.11683e-05
2.29503e-05
2.29491e-05
2.20972e-05
2.2096e-05
2.29496e-05
2.20976e-05
2.20965e-05
2.21047e-05
2.11679e-05
2.29503e-05
2.20973e-05
2.20972e-05
2.11678e-05
2.09863e-05
2.01708e-05
2.18259e-05
2.18255e-05
2.10542e-05
2.10538e-05
2.09865e-05
2.0171e-05
2.18266e-05
2.18253e-05
2.10549e-05
2.10536e-05
2.18258e-05
2.10552e-05
2.10541e-05
2.09861e-05
2.01705e-05
2.18265e-05
2.1055e-05
2.10549e-05
2.01704e-05
2.00137e-05
1.93147e-05
2.08103e-05
2.081e-05
2.0118e-05
2.01176e-05
2.00139e-05
1.93148e-05
2.08111e-05
2.08097e-05
2.01188e-05
2.01174e-05
2.08102e-05
2.01191e-05
2.01179e-05
2.00134e-05
1.93144e-05
2.08111e-05
2.01189e-05
2.01188e-05
1.93143e-05
1.91817e-05
1.85903e-05
1.99002e-05
1.98999e-05
1.92855e-05
1.92852e-05
1.91819e-05
1.85906e-05
1.9901e-05
1.98997e-05
1.92863e-05
1.9285e-05
1.99002e-05
1.92866e-05
1.92855e-05
1.91815e-05
1.85902e-05
1.9901e-05
1.92865e-05
1.92864e-05
1.85901e-05
1.84898e-05
1.79978e-05
1.90936e-05
1.90933e-05
1.85545e-05
1.85542e-05
1.84899e-05
1.7998e-05
1.90945e-05
1.90931e-05
1.85553e-05
1.8554e-05
1.90936e-05
1.85555e-05
1.85545e-05
1.84896e-05
1.79978e-05
1.90945e-05
1.85554e-05
1.85553e-05
1.79974e-05
1.79333e-05
1.75393e-05
1.83874e-05
1.83872e-05
1.79214e-05
1.79211e-05
1.79334e-05
1.75392e-05
1.83883e-05
1.8387e-05
1.79222e-05
1.79209e-05
1.83874e-05
1.79223e-05
1.79213e-05
1.79332e-05
1.75391e-05
1.83883e-05
1.79222e-05
1.79222e-05
1.75389e-05
1.75067e-05
1.72178e-05
1.77784e-05
1.77781e-05
1.73838e-05
1.73836e-05
1.75066e-05
1.72177e-05
1.77792e-05
1.7778e-05
1.73846e-05
1.73835e-05
1.77783e-05
1.73847e-05
1.73838e-05
1.75064e-05
1.72176e-05
1.77792e-05
1.73846e-05
1.73846e-05
1.72175e-05
1.72005e-05
1.70263e-05
1.72648e-05
1.72646e-05
1.69411e-05
1.69409e-05
1.72004e-05
1.70259e-05
1.72655e-05
1.72645e-05
1.69418e-05
1.69409e-05
1.72647e-05
1.69418e-05
1.6941e-05
1.72003e-05
1.7026e-05
1.72655e-05
1.69418e-05
1.69418e-05
1.70259e-05
1.70229e-05
1.69726e-05
1.68458e-05
1.68457e-05
1.65921e-05
1.6592e-05
1.70226e-05
1.69723e-05
1.68465e-05
1.68456e-05
1.65928e-05
1.6592e-05
1.68458e-05
1.65926e-05
1.65921e-05
1.70227e-05
1.69726e-05
1.68466e-05
1.65928e-05
1.65928e-05
1.69724e-05
1.69819e-05
1.70433e-05
1.65206e-05
1.65205e-05
1.63368e-05
1.63367e-05
1.69816e-05
1.7043e-05
1.65213e-05
1.65205e-05
1.63374e-05
1.63369e-05
1.65206e-05
1.63372e-05
1.63368e-05
1.69819e-05
1.70434e-05
1.65213e-05
1.63374e-05
1.63375e-05
1.70433e-05
1.70789e-05
1.72435e-05
1.62892e-05
1.62891e-05
1.61753e-05
1.61753e-05
1.70786e-05
1.72431e-05
1.62897e-05
1.62892e-05
1.61759e-05
1.61755e-05
1.62891e-05
1.61755e-05
1.61753e-05
1.70788e-05
1.72436e-05
1.62898e-05
1.61758e-05
1.61759e-05
1.72436e-05
1.7304e-05
1.75721e-05
1.61515e-05
1.61515e-05
1.61071e-05
1.61073e-05
1.73036e-05
1.75717e-05
1.61521e-05
1.61517e-05
1.61076e-05
1.61075e-05
1.61515e-05
1.61071e-05
1.61071e-05
1.73041e-05
1.75725e-05
1.61521e-05
1.61076e-05
1.61077e-05
1.75723e-05
1.76566e-05
1.80252e-05
1.61071e-05
1.61074e-05
1.61328e-05
1.61331e-05
1.76564e-05
1.80247e-05
1.61077e-05
1.61077e-05
1.61332e-05
1.61335e-05
1.61072e-05
1.61327e-05
1.6133e-05
1.76572e-05
1.8026e-05
1.61078e-05
1.61333e-05
1.61335e-05
1.80255e-05
1.81335e-05
1.85973e-05
1.61534e-05
1.61539e-05
1.62487e-05
1.62493e-05
1.81332e-05
1.85964e-05
1.6154e-05
1.61541e-05
1.62492e-05
1.62497e-05
1.61537e-05
1.62486e-05
1.62491e-05
1.81342e-05
1.85979e-05
1.61542e-05
1.62492e-05
1.62495e-05
1.85972e-05
1.87283e-05
1.9276e-05
1.62921e-05
1.62926e-05
1.64549e-05
1.64554e-05
1.87275e-05
1.92752e-05
1.62926e-05
1.6293e-05
1.64552e-05
1.6456e-05
1.62924e-05
1.64545e-05
1.64553e-05
1.87289e-05
1.92766e-05
1.62929e-05
1.64553e-05
1.64557e-05
1.92761e-05
1.94277e-05
2.005e-05
1.65205e-05
1.65209e-05
1.67493e-05
1.675e-05
1.94268e-05
2.00491e-05
1.65209e-05
1.65216e-05
1.67495e-05
1.67504e-05
1.65209e-05
1.67487e-05
1.67495e-05
1.94281e-05
2.00506e-05
1.65214e-05
1.67494e-05
1.67498e-05
2.005e-05
2.02203e-05
2.09056e-05
1.68361e-05
1.68368e-05
1.71283e-05
1.71291e-05
2.02198e-05
2.09053e-05
1.68363e-05
1.68375e-05
1.71283e-05
1.71297e-05
1.68366e-05
1.71276e-05
1.71288e-05
2.0221e-05
2.09075e-05
1.6837e-05
1.71285e-05
1.71291e-05
2.09074e-05
2.1093e-05
2.18331e-05
1.72364e-05
1.7237e-05
1.75888e-05
1.75897e-05
2.10927e-05
2.18319e-05
1.72365e-05
1.72373e-05
1.75886e-05
1.75909e-05
1.72368e-05
1.75878e-05
1.75896e-05
2.10946e-05
2.18339e-05
1.7237e-05
1.75894e-05
1.75897e-05
2.18345e-05
2.20338e-05
2.28168e-05
1.77167e-05
1.77175e-05
1.81274e-05
1.8128e-05
2.20329e-05
2.28152e-05
1.77166e-05
1.77186e-05
1.8127e-05
1.81288e-05
1.77174e-05
1.81259e-05
1.81276e-05
2.20357e-05
2.28157e-05
1.77175e-05
1.81271e-05
1.81275e-05
2.28173e-05
2.30294e-05
2.38417e-05
1.82738e-05
1.82747e-05
1.87399e-05
1.87403e-05
2.30274e-05
2.38414e-05
1.82734e-05
1.82761e-05
1.87392e-05
1.87407e-05
1.82741e-05
1.87379e-05
1.87409e-05
2.30285e-05
2.38439e-05
1.82739e-05
1.87387e-05
1.87405e-05
2.38446e-05
2.40636e-05
2.48945e-05
1.89028e-05
1.89035e-05
1.94205e-05
1.94203e-05
2.40619e-05
2.4895e-05
1.89022e-05
1.89046e-05
1.94194e-05
1.94217e-05
1.89042e-05
1.94176e-05
1.94205e-05
2.40638e-05
2.48992e-05
1.89038e-05
1.94196e-05
1.94199e-05
2.48964e-05
2.51239e-05
2.59646e-05
1.96012e-05
1.96006e-05
2.01608e-05
2.01625e-05
2.51228e-05
2.59671e-05
1.96003e-05
1.96013e-05
2.01594e-05
2.01644e-05
1.96011e-05
2.01596e-05
2.01635e-05
2.51268e-05
2.59686e-05
1.96004e-05
2.01621e-05
2.01625e-05
2.59686e-05
2.61953e-05
2.705e-05
2.03572e-05
2.03572e-05
2.09634e-05
2.09647e-05
2.61991e-05
2.70455e-05
2.03559e-05
2.03593e-05
2.09617e-05
2.09643e-05
2.03589e-05
2.09617e-05
2.09636e-05
2.62014e-05
2.70466e-05
2.03579e-05
2.09618e-05
2.09623e-05
2.70492e-05
2.72829e-05
2.81237e-05
2.11707e-05
2.11715e-05
2.18164e-05
2.18167e-05
2.72815e-05
2.81203e-05
2.11692e-05
2.1173e-05
2.18144e-05
2.18183e-05
2.11721e-05
2.18137e-05
2.18172e-05
2.7282e-05
2.81255e-05
2.11708e-05
2.18157e-05
2.18156e-05
2.8128e-05
2.83591e-05
2.91923e-05
2.20356e-05
2.20384e-05
2.27099e-05
2.27069e-05
2.8356e-05
2.91907e-05
2.20336e-05
2.20373e-05
2.27077e-05
2.27101e-05
2.20368e-05
2.27036e-05
2.27113e-05
2.83597e-05
2.91932e-05
2.20351e-05
2.27073e-05
2.27095e-05
2.91929e-05
2.9426e-05
3.02529e-05
2.29438e-05
2.29387e-05
2.36446e-05
2.36516e-05
2.94222e-05
3.02531e-05
2.29417e-05
2.29451e-05
2.36421e-05
2.36503e-05
2.2942e-05
2.36486e-05
2.3652e-05
2.94276e-05
3.0255e-05
2.29401e-05
2.36479e-05
2.36499e-05
3.0252e-05
3.04834e-05
3.12907e-05
2.38793e-05
2.38853e-05
2.46222e-05
2.46106e-05
3.04863e-05
3.12809e-05
2.38767e-05
2.38808e-05
2.46197e-05
2.46168e-05
2.38899e-05
2.4607e-05
2.4606e-05
3.04837e-05
3.12875e-05
2.38876e-05
2.46134e-05
2.46038e-05
3.12887e-05
3.15243e-05
3.22977e-05
2.48693e-05
2.4865e-05
2.55893e-05
2.56072e-05
3.15127e-05
3.23158e-05
2.48672e-05
2.48744e-05
2.55859e-05
2.56002e-05
2.48587e-05
2.5605e-05
2.562e-05
3.15219e-05
3.23144e-05
2.48567e-05
2.55988e-05
2.56171e-05
3.23259e-05
3.25208e-05
3.3331e-05
2.5846e-05
2.58496e-05
2.66453e-05
2.66178e-05
3.25341e-05
3.33027e-05
2.58426e-05
2.58407e-05
2.66432e-05
2.66338e-05
2.586e-05
2.66134e-05
2.66142e-05
3.25301e-05
3.33108e-05
2.58569e-05
2.66298e-05
2.66122e-05
3.32958e-05
3.35512e-05
3.4253e-05
2.68895e-05
2.6882e-05
2.76085e-05
2.7648e-05
3.35331e-05
3.42882e-05
2.68876e-05
2.68945e-05
2.76041e-05
2.76276e-05
2.68816e-05
2.76468e-05
2.76452e-05
3.35432e-05
3.4281e-05
2.68795e-05
2.7627e-05
2.76412e-05
3.42959e-05
3.44713e-05
3.52819e-05
2.78829e-05
2.78954e-05
2.87179e-05
2.86687e-05
3.4498e-05
3.52267e-05
2.78792e-05
2.78912e-05
2.87173e-05
2.87052e-05
2.78938e-05
2.86641e-05
2.86823e-05
3.44899e-05
3.52577e-05
2.78905e-05
2.87016e-05
2.86814e-05
3.52344e-05
3.54916e-05
3.61164e-05
2.89583e-05
2.89413e-05
2.96758e-05
2.97241e-05
3.54448e-05
3.61782e-05
2.89567e-05
2.8945e-05
2.96693e-05
2.96733e-05
2.89446e-05
2.9723e-05
2.97155e-05
3.54684e-05
3.61272e-05
2.89426e-05
2.96729e-05
2.97094e-05
3.61708e-05
3.63255e-05
3.7099e-05
2.99481e-05
2.99652e-05
3.07642e-05
3.07217e-05
3.63757e-05
3.70378e-05
2.99439e-05
2.99597e-05
3.07663e-05
3.07966e-05
2.99811e-05
3.07191e-05
3.07544e-05
3.63424e-05
3.71205e-05
2.99769e-05
3.07951e-05
3.0756e-05
3.70769e-05
3.72979e-05
3.79288e-05
3.10146e-05
3.09954e-05
3.1765e-05
3.17993e-05
3.72489e-05
3.79769e-05
3.10151e-05
3.10259e-05
3.17578e-05
3.17171e-05
3.09947e-05
3.17957e-05
3.17498e-05
3.73099e-05
3.7882e-05
3.09947e-05
3.17143e-05
3.17424e-05
3.79167e-05
3.81266e-05
3.88061e-05
3.20243e-05
3.20473e-05
3.27909e-05
3.27726e-05
3.81681e-05
3.87754e-05
3.20181e-05
3.19923e-05
3.27918e-05
3.28351e-05
3.20217e-05
3.27718e-05
3.28179e-05
3.80852e-05
3.88546e-05
3.2015e-05
3.28357e-05
3.28184e-05
3.88346e-05
3.89935e-05
3.96212e-05
3.30401e-05
3.30216e-05
3.3786e-05
3.37856e-05
3.89623e-05
3.96236e-05
3.30417e-05
3.30814e-05
3.37831e-05
3.37694e-05
3.30644e-05
3.37832e-05
3.37836e-05
3.90453e-05
3.95968e-05
3.30655e-05
3.37683e-05
3.37804e-05
3.96138e-05
3.98059e-05
4.04264e-05
3.40342e-05
3.4038e-05
3.47684e-05
3.47734e-05
3.98121e-05
4.04297e-05
3.40305e-05
3.40116e-05
3.47655e-05
3.47708e-05
3.40271e-05
3.47711e-05
3.47671e-05
3.97736e-05
4.04319e-05
3.40229e-05
3.47699e-05
3.4764e-05
4.04243e-05
4.06044e-05
4.12058e-05
3.50104e-05
3.50136e-05
3.57323e-05
3.57309e-05
4.06059e-05
4.12028e-05
3.50086e-05
3.50194e-05
3.57309e-05
3.57374e-05
3.50124e-05
3.57292e-05
3.57372e-05
4.06168e-05
4.12091e-05
3.50102e-05
3.57371e-05
3.57355e-05
4.12109e-05
4.13796e-05
4.19609e-05
3.59703e-05
3.59687e-05
3.66729e-05
3.66733e-05
4.13765e-05
4.19596e-05
3.59688e-05
3.59717e-05
3.66704e-05
3.66682e-05
3.59757e-05
3.66719e-05
3.66781e-05
4.13785e-05
4.19552e-05
3.59738e-05
3.66683e-05
3.66756e-05
4.19638e-05
4.21278e-05
4.26887e-05
3.6904e-05
3.6904e-05
3.75867e-05
3.75844e-05
4.21269e-05
4.26847e-05
3.69018e-05
3.68996e-05
3.7585e-05
3.75887e-05
3.69071e-05
3.75826e-05
3.75845e-05
4.21226e-05
4.26906e-05
3.69046e-05
3.75884e-05
3.75828e-05
4.26851e-05
4.28498e-05
4.3389e-05
3.78103e-05
3.78088e-05
3.84716e-05
3.84737e-05
4.28462e-05
4.33905e-05
3.7809e-05
3.78141e-05
3.84698e-05
3.84756e-05
3.78093e-05
3.84726e-05
3.84792e-05
4.28534e-05
4.33926e-05
3.78077e-05
3.84762e-05
3.84775e-05
4.33962e-05
4.35449e-05
4.40695e-05
3.86892e-05
3.86913e-05
3.9333e-05
3.9333e-05
4.35467e-05
4.40679e-05
3.86877e-05
3.86924e-05
3.93311e-05
3.9333e-05
3.86983e-05
3.93321e-05
3.93381e-05
4.35478e-05
4.40687e-05
3.86966e-05
3.93337e-05
3.93363e-05
4.4073e-05
4.42204e-05
4.47248e-05
3.95442e-05
3.95438e-05
4.01661e-05
4.01653e-05
4.42184e-05
4.47229e-05
3.95425e-05
3.95437e-05
4.01645e-05
4.01662e-05
3.95474e-05
4.0164e-05
4.01671e-05
4.42192e-05
4.47246e-05
3.95457e-05
4.01666e-05
4.01656e-05
4.47248e-05
4.487e-05
4.53557e-05
4.03696e-05
4.0369e-05
4.09706e-05
4.0971e-05
4.48684e-05
4.5355e-05
4.03682e-05
4.03702e-05
4.0969e-05
4.09714e-05
4.03713e-05
4.09702e-05
4.09743e-05
4.487e-05
4.53565e-05
4.03699e-05
4.09723e-05
4.09728e-05
4.53588e-05
4.54959e-05
4.59626e-05
4.11674e-05
4.11678e-05
4.17452e-05
4.17454e-05
4.54954e-05
4.59615e-05
4.1166e-05
4.1168e-05
4.17438e-05
4.1746e-05
4.1171e-05
4.17446e-05
4.17487e-05
4.54965e-05
4.59629e-05
4.11695e-05
4.1747e-05
4.17475e-05
4.59649e-05
4.60974e-05
4.65473e-05
4.19344e-05
4.19349e-05
4.2493e-05
4.24928e-05
4.60964e-05
4.65463e-05
4.19332e-05
4.19351e-05
4.24916e-05
4.24928e-05
4.19385e-05
4.2492e-05
4.24952e-05
4.60977e-05
4.6547e-05
4.19373e-05
4.24938e-05
4.2494e-05
4.6549e-05
4.66773e-05
4.71072e-05
4.2675e-05
4.26743e-05
4.32091e-05
4.32101e-05
4.66761e-05
4.71067e-05
4.26738e-05
4.26749e-05
4.32076e-05
4.32097e-05
4.26764e-05
4.32097e-05
4.3213e-05
4.66768e-05
4.71076e-05
4.26752e-05
4.32111e-05
4.32118e-05
4.71096e-05
4.72319e-05
4.76463e-05
4.33843e-05
4.33859e-05
4.3899e-05
4.38978e-05
4.72321e-05
4.76445e-05
4.3383e-05
4.33846e-05
4.3898e-05
4.38987e-05
4.33894e-05
4.38971e-05
4.39002e-05
4.72324e-05
4.76458e-05
4.33881e-05
4.38998e-05
4.38994e-05
4.76475e-05
4.77662e-05
4.816e-05
4.40661e-05
4.40644e-05
4.45572e-05
4.45596e-05
4.77638e-05
4.8161e-05
4.40653e-05
4.40664e-05
4.45558e-05
4.45581e-05
4.40664e-05
4.45595e-05
4.45625e-05
4.77657e-05
4.81612e-05
4.40657e-05
4.456e-05
4.45615e-05
4.81638e-05
4.82754e-05
4.86566e-05
4.47184e-05
4.47212e-05
4.51917e-05
4.51894e-05
4.82774e-05
4.86535e-05
4.47171e-05
4.47185e-05
4.51907e-05
4.51907e-05
4.47247e-05
4.51889e-05
4.51914e-05
4.82764e-05
4.8655e-05
4.47236e-05
4.51919e-05
4.51906e-05
4.86561e-05
4.87669e-05
4.91232e-05
4.53446e-05
4.53419e-05
4.57904e-05
4.57937e-05
4.87629e-05
4.91257e-05
4.53439e-05
4.53445e-05
4.57891e-05
4.57914e-05
4.53436e-05
4.57938e-05
4.57966e-05
4.87656e-05
4.91252e-05
4.53429e-05
4.57936e-05
4.57959e-05
4.91285e-05
4.92289e-05
4.95789e-05
4.59369e-05
4.59405e-05
4.63705e-05
4.6368e-05
4.92326e-05
4.95752e-05
4.59357e-05
4.59373e-05
4.63698e-05
4.63702e-05
4.59441e-05
4.63679e-05
4.63703e-05
4.92306e-05
4.95777e-05
4.59432e-05
4.63717e-05
4.63696e-05
4.95777e-05
4.96811e-05
5.00035e-05
4.65111e-05
4.65081e-05
4.69159e-05
4.69188e-05
4.96763e-05
5.0006e-05
4.65107e-05
4.6511e-05
4.69144e-05
4.69148e-05
4.65098e-05
4.69189e-05
4.69208e-05
4.96799e-05
5.00035e-05
4.65093e-05
4.69171e-05
4.692e-05
5.00081e-05
5.00988e-05
5.04126e-05
4.70457e-05
4.70493e-05
4.74358e-05
4.74342e-05
5.01026e-05
5.04099e-05
4.70444e-05
4.70451e-05
4.74357e-05
4.74379e-05
4.70521e-05
4.74345e-05
4.74376e-05
5.00989e-05
5.04141e-05
4.70514e-05
4.74396e-05
4.74374e-05
5.04132e-05
5.05078e-05
5.0802e-05
4.75665e-05
4.75642e-05
4.79322e-05
4.79345e-05
5.0504e-05
5.08036e-05
4.75665e-05
4.7568e-05
4.79303e-05
4.79293e-05
4.7567e-05
4.79347e-05
4.79349e-05
5.05091e-05
5.07998e-05
4.75667e-05
4.79315e-05
4.79337e-05
5.08041e-05
5.08872e-05
5.11688e-05
4.80457e-05
4.80485e-05
4.84027e-05
4.84013e-05
5.08899e-05
5.11665e-05
4.80442e-05
4.80432e-05
4.84031e-05
4.84049e-05
4.80494e-05
4.84018e-05
4.84058e-05
5.08849e-05
5.11709e-05
4.80484e-05
4.84073e-05
4.84066e-05
5.11713e-05
5.12567e-05
5.15077e-05
4.85208e-05
4.85193e-05
4.88278e-05
4.88307e-05
5.12537e-05
5.15103e-05
4.85213e-05
4.85231e-05
4.88262e-05
4.88266e-05
4.85237e-05
4.88315e-05
4.8831e-05
5.1259e-05
5.15068e-05
4.85244e-05
4.88283e-05
4.8829e-05
5.15096e-05
5.15846e-05
5.18592e-05
4.89328e-05
4.89352e-05
4.92801e-05
4.92782e-05
5.15879e-05
5.18558e-05
4.89312e-05
4.89308e-05
4.928e-05
4.92792e-05
4.89352e-05
4.92786e-05
4.92814e-05
5.1583e-05
5.18587e-05
4.8933e-05
4.92822e-05
4.92822e-05
5.186e-05
5.19364e-05
5.21277e-05
4.93754e-05
4.9374e-05
4.96183e-05
4.96207e-05
5.1933e-05
5.21302e-05
4.93758e-05
4.93757e-05
4.96178e-05
4.96201e-05
4.93779e-05
4.96216e-05
4.96225e-05
5.19367e-05
5.21296e-05
4.93796e-05
4.96222e-05
4.96222e-05
5.21318e-05
5.21995e-05
5.24627e-05
4.97246e-05
4.97269e-05
5.0042e-05
5.0042e-05
5.22029e-05
5.24611e-05
4.97237e-05
4.97254e-05
5.0041e-05
5.00389e-05
4.97285e-05
5.00431e-05
5.00445e-05
5.2201e-05
5.24602e-05
4.97269e-05
5.00416e-05
5.0043e-05
5.24629e-05
5.25234e-05
5.26912e-05
5.01073e-05
5.01065e-05
5.03396e-05
5.0339e-05
5.25212e-05
5.26903e-05
5.0107e-05
5.01047e-05
5.03401e-05
5.03417e-05
5.01085e-05
5.03393e-05
5.03398e-05
5.2521e-05
5.26929e-05
5.01082e-05
5.03433e-05
5.03413e-05
5.2692e-05
5.27691e-05
5.29645e-05
5.04553e-05
5.04562e-05
5.06756e-05
5.06787e-05
5.27695e-05
5.29666e-05
5.04555e-05
5.04574e-05
5.06745e-05
5.06743e-05
5.04584e-05
5.0681e-05
5.06838e-05
5.27718e-05
5.2964e-05
5.04594e-05
5.0679e-05
5.06825e-05
5.29695e-05
5.30041e-05
5.31978e-05
5.07082e-05
5.07095e-05
5.09715e-05
5.09684e-05
5.30054e-05
5.31941e-05
5.07073e-05
5.07064e-05
5.09713e-05
5.09701e-05
5.07125e-05
5.09678e-05
5.09661e-05
5.30028e-05
5.31963e-05
5.07112e-05
5.09695e-05
5.09661e-05
5.31927e-05
5.32881e-05
5.34107e-05
5.10907e-05
5.10896e-05
5.12597e-05
5.12663e-05
5.32859e-05
5.34158e-05
5.10907e-05
5.10902e-05
5.12601e-05
5.12622e-05
5.10893e-05
5.12697e-05
5.12739e-05
5.32876e-05
5.3414e-05
5.10895e-05
5.12694e-05
5.12739e-05
5.3421e-05
5.34298e-05
5.35866e-05
5.12688e-05
5.12749e-05
5.14316e-05
5.14199e-05
5.34348e-05
5.35761e-05
5.12691e-05
5.12711e-05
5.14305e-05
5.14254e-05
5.12825e-05
5.14171e-05
5.14132e-05
5.34329e-05
5.35797e-05
5.12825e-05
5.14204e-05
5.14137e-05
5.35726e-05
5.36918e-05
5.38484e-05
5.1574e-05
5.15667e-05
5.18096e-05
5.18152e-05
5.36832e-05
5.38556e-05
5.15732e-05
5.15696e-05
5.18098e-05
5.18116e-05
5.15616e-05
5.1818e-05
5.18198e-05
5.36859e-05
5.38525e-05
5.15618e-05
5.18167e-05
5.18194e-05
5.38591e-05
5.38616e-05
5.38364e-05
5.18182e-05
5.1825e-05
5.1818e-05
5.1823e-05
5.387e-05
5.3834e-05
5.18184e-05
5.1821e-05
5.18181e-05
5.18199e-05
5.18311e-05
5.18264e-05
5.18287e-05
5.38665e-05
5.38345e-05
5.18307e-05
5.18251e-05
5.18285e-05
5.38358e-05
5.39119e-05
5.41924e-05
5.18489e-05
5.18483e-05
5.21928e-05
5.21897e-05
5.39032e-05
5.41907e-05
5.18487e-05
5.18475e-05
5.21928e-05
5.21902e-05
5.18511e-05
5.21893e-05
5.21886e-05
5.3906e-05
5.41909e-05
5.18512e-05
5.21912e-05
5.21889e-05
5.41911e-05
5.4213e-05
5.41615e-05
5.22337e-05
5.22351e-05
5.22581e-05
5.22632e-05
5.42145e-05
5.41688e-05
5.2234e-05
5.22336e-05
5.22586e-05
5.22604e-05
5.22365e-05
5.2266e-05
5.22668e-05
5.42135e-05
5.41661e-05
5.22367e-05
5.22649e-05
5.22671e-05
5.41708e-05
5.42244e-05
5.44534e-05
5.22894e-05
5.22938e-05
5.24578e-05
5.24564e-05
5.42281e-05
5.44478e-05
5.22899e-05
5.2292e-05
5.24576e-05
5.24561e-05
5.22979e-05
5.24573e-05
5.24586e-05
5.42271e-05
5.44503e-05
5.22982e-05
5.24583e-05
5.24583e-05
5.44503e-05
5.44433e-05
5.40014e-05
5.24463e-05
5.2445e-05
5.22943e-05
5.22954e-05
5.44388e-05
5.40047e-05
5.2446e-05
5.24442e-05
5.22941e-05
5.22916e-05
5.24472e-05
5.22963e-05
5.22962e-05
5.44404e-05
5.39994e-05
5.2447e-05
5.22947e-05
5.22963e-05
5.40048e-05
5.40313e-05
5.55879e-05
5.23195e-05
5.23204e-05
5.33099e-05
5.33094e-05
5.40344e-05
5.55857e-05
5.23194e-05
5.23171e-05
5.3311e-05
5.33125e-05
5.23208e-05
5.33116e-05
5.33107e-05
5.40293e-05
5.55912e-05
5.2321e-05
5.33144e-05
5.33113e-05
5.55866e-05
5.57094e-05
5.36217e-05
5.34456e-05
5.34452e-05
5.25964e-05
5.25975e-05
5.57072e-05
5.36233e-05
5.34467e-05
5.34485e-05
5.25966e-05
5.25964e-05
5.3448e-05
5.25998e-05
5.26046e-05
5.57131e-05
5.36225e-05
5.34487e-05
5.2602e-05
5.26055e-05
5.36313e-05
5.30574e-05
5.18233e-05
5.15838e-05
5.15856e-05
5.06471e-05
5.065e-05
5.30599e-05
5.18293e-05
5.15834e-05
5.15821e-05
5.06461e-05
5.06446e-05
5.15907e-05
5.06533e-05
5.0651e-05
5.30572e-05
5.18215e-05
5.15911e-05
5.06481e-05
5.06504e-05
5.18239e-05
5.23476e-05
5.91293e-05
5.08677e-05
5.08708e-05
5.60413e-05
5.60409e-05
5.23548e-05
5.91265e-05
5.08667e-05
5.08657e-05
5.60411e-05
5.60427e-05
5.0871e-05
5.6041e-05
5.60413e-05
5.23464e-05
5.91295e-05
5.08703e-05
5.60422e-05
5.60407e-05
5.91285e-05
5.98248e-05
5.93062e-05
5.72729e-05
5.72707e-05
5.78139e-05
5.78097e-05
5.98204e-05
5.92972e-05
5.72732e-05
5.72743e-05
5.7815e-05
5.78149e-05
5.72723e-05
5.78098e-05
5.78122e-05
5.98247e-05
5.93058e-05
5.72721e-05
5.78155e-05
5.78128e-05
5.9302e-05
5.79615e-05
4.8088e-05
5.69011e-05
5.68964e-05
4.81154e-05
4.81167e-05
5.79542e-05
4.80937e-05
5.69031e-05
5.69016e-05
4.81176e-05
4.81156e-05
5.68995e-05
4.81233e-05
4.81199e-05
5.79614e-05
4.80911e-05
5.69009e-05
4.81225e-05
4.81228e-05
4.80938e-05
4.71814e-05
4.59259e-05
4.61809e-05
4.61839e-05
4.44081e-05
4.4412e-05
4.71882e-05
4.59314e-05
4.61827e-05
4.61816e-05
4.44087e-05
4.44094e-05
4.6187e-05
4.44161e-05
4.44153e-05
4.71847e-05
4.59288e-05
4.61898e-05
4.44145e-05
4.44169e-05
4.59323e-05
4.6792e-05
5.61377e-05
4.46231e-05
4.46268e-05
5.24299e-05
5.24297e-05
4.67955e-05
5.61352e-05
4.46231e-05
4.46245e-05
5.24271e-05
5.24306e-05
4.463e-05
5.24257e-05
5.24307e-05
4.67943e-05
5.61368e-05
4.4631e-05
5.24272e-05
5.24281e-05
5.61378e-05
5.76709e-05
6.3343e-05
5.53822e-05
5.53814e-05
6.09149e-05
6.09137e-05
5.76686e-05
6.33408e-05
5.53798e-05
5.5382e-05
6.09139e-05
6.09136e-05
5.53819e-05
6.09134e-05
6.09137e-05
5.76696e-05
6.33409e-05
5.53796e-05
6.09131e-05
6.09124e-05
6.33405e-05
6.3729e-05
6.23998e-05
6.16657e-05
6.16646e-05
6.16787e-05
6.16784e-05
6.37271e-05
6.2401e-05
6.16651e-05
6.16643e-05
6.16793e-05
6.16777e-05
6.16648e-05
6.1681e-05
6.16792e-05
6.37268e-05
6.24002e-05
6.16638e-05
6.16802e-05
6.16794e-05
6.24008e-05
6.13228e-05
5.39441e-05
6.0489e-05
6.04897e-05
5.34327e-05
5.34336e-05
6.13247e-05
5.39463e-05
6.04913e-05
6.04887e-05
5.34351e-05
5.34339e-05
6.0492e-05
5.34397e-05
5.34378e-05
6.13237e-05
5.39471e-05
6.0494e-05
5.34403e-05
5.34407e-05
5.3949e-05
5.30449e-05
4.92289e-05
5.15373e-05
5.15379e-05
4.77288e-05
4.77289e-05
5.30471e-05
4.92295e-05
5.15393e-05
5.15386e-05
4.77297e-05
4.77296e-05
5.1542e-05
4.77326e-05
4.77318e-05
5.30476e-05
4.92303e-05
5.15448e-05
4.77331e-05
4.77334e-05
4.92313e-05
4.90128e-05
4.8639e-05
4.70949e-05
4.7095e-05
4.646e-05
4.64603e-05
4.90132e-05
4.86387e-05
4.70954e-05
4.70954e-05
4.64598e-05
4.64601e-05
4.70974e-05
4.64615e-05
4.64617e-05
4.90138e-05
4.86391e-05
4.70985e-05
4.64619e-05
4.64618e-05
4.86397e-05
4.88066e-05
5.00797e-05
4.64893e-05
4.64897e-05
4.75896e-05
4.75912e-05
4.88065e-05
5.00808e-05
4.6489e-05
4.64894e-05
4.75896e-05
4.75903e-05
4.6491e-05
4.75919e-05
4.75921e-05
4.88066e-05
5.00807e-05
4.64909e-05
4.75916e-05
4.75917e-05
5.00816e-05
5.03029e-05
5.07251e-05
4.79613e-05
4.79628e-05
4.84331e-05
4.84342e-05
5.03043e-05
5.07261e-05
4.7961e-05
4.79622e-05
4.8434e-05
4.84326e-05
4.79639e-05
4.84367e-05
4.84354e-05
5.03038e-05
5.07256e-05
4.79634e-05
4.84358e-05
4.84365e-05
5.0727e-05
5.06119e-05
4.76755e-05
4.76764e-05
5.0613e-05
4.76768e-05
4.76746e-05
3.83613e-05
3.83596e-05
3.83616e-05
4.76775e-05
5.06122e-05
4.76791e-05
3.73773e-05
3.73765e-05
3.7377e-05
3.7377e-05
3.73701e-05
3.73777e-05
3.73043e-05
3.73768e-05
3.73702e-05
3.73777e-05
3.73768e-05
3.73043e-05
3.73741e-05
3.72959e-05
3.72959e-05
3.58798e-05
4.0872e-05
3.66033e-05
4.51467e-05
5.51147e-05
6.48951e-05
3.58803e-05
4.08712e-05
3.66034e-05
4.51465e-05
3.58932e-05
3.58933e-05
3.58932e-05
3.44005e-05
3.44005e-05
3.44005e-05
3.44005e-05
3.52758e-05
3.56384e-05
3.58929e-05
3.53771e-05
3.60475e-05
3.42365e-05
3.53822e-05
5.51168e-05
6.48994e-05
3.52758e-05
3.58929e-05
3.5638e-05
3.53771e-05
3.60475e-05
3.53822e-05
3.42375e-05
3.65971e-05
3.65977e-05
3.5279e-05
3.40641e-05
3.40633e-05
3.39657e-05
5.13534e-05
3.46793e-05
5.46248e-05
7.65447e-05
8.08614e-05
3.39682e-05
5.13543e-05
3.46789e-05
5.46254e-05
3.39296e-05
3.39297e-05
3.39297e-05
3.25854e-05
3.25854e-05
3.25855e-05