/*--------------------------------*- C++ -*----------------------------------*\
| =========                 |                                                 |
| \\      /  F ield         | OpenFOAM: The Open Source CFD Toolbox           |
|  \\    /   O peration     | Version:  v2012                                 |
|   \\  /    A nd           | Website:  www.openfoam.com                      |
|    \\/     M anipulation  |                                                 |
\*---------------------------------------------------------------------------*/
FoamFile
{
    version     2.0;
    format      ascii;
    class       volScalarField;
    location    "375";
    object      nut;
}
// * * * * * * * * * * * * * * * * * * * * * * * * * * * * * * * * * * * * * //

dimensions      [0 2 -1 0 0 0 0];


internalField   nonuniform List<scalar> 
171728
(
0.000233973
0.000233116
0.000233116
0.000233423
0.000232532
0.000227802
0.000227801
0.000223867
0.000230516
0.00022032
0.000220318
0.000209109
0.000227799
0.000211665
0.000211661
0.000193785
0.000224433
0.00020265
0.000202644
0.000179709
0.000220552
0.000193772
0.000193765
0.000167339
0.000216304
0.000185275
0.000185267
0.000156587
0.00021182
0.000177234
0.000177226
0.000147206
0.000207207
0.000169688
0.00016968
0.00013895
0.000202545
0.000162611
0.000162603
0.000131614
0.000197889
0.000155949
0.000155941
0.000124954
0.000193275
0.000149646
0.000149638
0.000118816
0.000188683
0.000143665
0.000143657
0.000113166
0.000184151
0.000137952
0.000137943
0.000107933
0.000179706
0.000132462
0.000132454
0.000103056
0.000175338
0.00012719
0.000127181
9.84353e-05
0.000171035
0.00012215
0.000122141
9.42512e-05
0.000166785
0.000117371
0.00011736
9.06586e-05
0.000162586
0.000112887
0.000112877
8.77321e-05
0.000158414
0.000108755
0.000108745
8.53864e-05
0.000154263
0.000105025
0.000105015
8.36659e-05
0.000150143
0.000101712
0.000101702
8.25763e-05
0.000146062
9.88944e-05
9.88861e-05
8.20932e-05
0.000142046
9.65825e-05
9.65776e-05
8.2147e-05
0.000138115
9.47937e-05
9.47878e-05
8.26836e-05
0.000134294
9.35213e-05
9.35133e-05
8.36601e-05
0.000130634
9.27517e-05
9.27509e-05
8.50138e-05
0.000127154
9.24658e-05
9.24658e-05
8.66869e-05
0.000123894
9.26371e-05
9.26328e-05
8.86453e-05
0.000120905
9.32411e-05
9.32362e-05
9.07836e-05
0.000118183
9.42184e-05
9.42257e-05
9.31006e-05
0.000115782
9.55673e-05
9.55642e-05
9.55595e-05
0.00011374
9.72573e-05
9.72398e-05
9.81197e-05
0.000112034
9.91416e-05
9.91744e-05
0.000100706
0.00011063
0.000101371
0.00010133
0.000103375
0.000109793
0.000103787
0.000103844
0.000106049
0.000108932
0.000106312
0.00010623
0.000108883
0.000109065
0.000109119
0.000109216
0.00011146
0.000108698
0.000111939
0.00011185
0.00011427
0.000109693
0.000114917
0.000115018
0.000116971
0.000109994
0.000117982
0.000117812
0.000119673
0.000111443
0.000120975
0.000121305
0.000122374
0.000112724
0.000124387
0.000123922
0.000124855
0.000114493
0.000127321
0.00012772
0.000127794
0.000116437
0.000130618
0.00013046
0.000130133
0.000118636
0.000133815
0.000133828
0.00013274
0.000121102
0.000136981
0.000137006
0.000135288
0.000123752
0.000140159
0.000140122
0.000137756
0.000126581
0.000143263
0.000143289
0.000140141
0.000129533
0.000146366
0.000146371
0.000142556
0.000132646
0.000149402
0.000149397
0.000144858
0.000135888
0.00015239
0.000152394
0.000147116
0.000139215
0.000155342
0.000155341
0.000149346
0.000142608
0.000158215
0.000158215
0.000151498
0.000146088
0.000161033
0.000161035
0.000153599
0.000149571
0.000163799
0.000163789
0.000155647
0.000153122
0.000166464
0.000166475
0.000157624
0.000156646
0.000169114
0.000169097
0.000159565
0.000160218
0.000171638
0.000171653
0.000161414
0.000163708
0.000174138
0.000174117
0.000163237
0.000167247
0.000176533
0.000176551
0.000164971
0.000170706
0.000178881
0.000178852
0.00016667
0.000174108
0.00018113
0.000181155
0.000168282
0.0001775
0.000183309
0.000183272
0.000169854
0.000180865
0.000185474
0.000185503
0.000171383
0.000183885
0.000187364
0.000187327
0.000172738
0.000187473
0.000189545
0.000189564
0.000174283
0.000190004
0.000191148
0.000191133
0.00017537
0.00019354
0.000193152
0.000193137
0.000176847
0.000196093
0.000194864
0.000194877
0.000177902
0.00019904
0.000196226
0.000196202
0.000179041
0.000201668
0.000198242
0.000198242
0.000180287
0.000204607
0.000199424
0.000199409
0.000181153
0.00020619
0.000200785
0.000200794
0.000182103
0.000210511
0.000202736
0.000202713
0.000183399
0.000210135
0.000202432
0.00020242
0.000183177
0.000214517
0.000205243
0.000205237
0.000185133
0.000215808
0.000205476
0.000205459
0.000184976
0.000218445
0.000207255
0.000207255
0.000186944
0.000217202
0.000205124
0.000205097
0.00018322
0.000225619
0.000213677
0.000213691
0.000193479
0.000225507
0.000206376
0.000206372
0.000184189
0.000208292
0.000191752
0.000191705
0.000169794
0.000242734
0.000234173
0.00023418
0.000210007
0.000282506
0.000256877
0.000256911
0.000220356
0.000215281
0.000182749
0.000182729
0.000161803
0.000165726
0.000157917
0.0001579
0.000145625
0.000204525
0.000215207
0.000215205
0.0001929
0.000297561
0.000263873
0.000263856
0.000229698
0.000340003
0.00027805
0.000278027
0.000231761
0.000270579
0.000221653
0.000221648
0.000192821
0.000210751
0.000192541
0.000192534
0.000171999
0.000194645
0.00018795
0.000187941
0.000169539
0.000206498
0.000197658
0.000197647
0.00017691
0.000225783
0.000204354
0.000204348
0.000183575
0.000234266
0.000234448
0.000234449
0.000234267
0.000234448
0.000234449
0.000234274
0.000234274
0.000234274
0.000234274
0.000234448
0.000234448
0.000234266
0.000234448
0.000234448
0.000234266
0.000233423
0.000226204
0.000233116
0.000233114
0.000229361
0.000229357
0.000233423
0.000226205
0.000233114
0.000233114
0.000229359
0.000229356
0.000233116
0.000229364
0.000229361
0.000233423
0.000226202
0.000233114
0.000229363
0.000229359
0.000226202
0.000223867
0.00021223
0.000227799
0.000227794
0.000222332
0.000222326
0.000223868
0.000212234
0.000227797
0.000227792
0.000222332
0.000222323
0.000227798
0.000222339
0.000222331
0.000223866
0.000212227
0.000227797
0.000222336
0.000222331
0.000212228
0.000209111
0.00019706
0.000220313
0.000220307
0.000213879
0.000213874
0.000209112
0.000197066
0.000220314
0.000220304
0.000213883
0.000213869
0.000220311
0.00021389
0.000213877
0.000209108
0.000197057
0.000220313
0.000213886
0.000213882
0.000197058
0.000193788
0.000182876
0.000211654
0.000211648
0.00020489
0.000204884
0.000193792
0.000182883
0.000211658
0.000211643
0.000204897
0.000204879
0.000211651
0.000204905
0.000204887
0.000193784
0.000182872
0.000211657
0.000204899
0.000204896
0.000182872
0.000179713
0.000170268
0.000202634
0.000202628
0.000195943
0.000195937
0.000179717
0.000170274
0.000202643
0.000202622
0.000195954
0.000195931
0.000202631
0.000195962
0.00019594
0.000179708
0.000170263
0.000202641
0.000195955
0.000195953
0.000170264
0.000167344
0.000159242
0.000193753
0.000193747
0.000187336
0.000187331
0.000167349
0.000159249
0.000193765
0.000193741
0.000187351
0.000187324
0.00019375
0.000187359
0.000187333
0.000167339
0.000159238
0.000193764
0.000187351
0.00018735
0.000159238
0.000156592
0.000149613
0.000185253
0.000185247
0.000179173
0.000179167
0.000156597
0.00014962
0.000185268
0.00018524
0.000179191
0.00017916
0.000185249
0.000179198
0.00017917
0.000156587
0.000149608
0.000185267
0.000179189
0.00017919
0.000149608
0.000147212
0.000141107
0.000177208
0.000177203
0.000171501
0.000171496
0.000147216
0.000141113
0.000177227
0.000177195
0.000171521
0.000171488
0.000177205
0.000171529
0.000171498
0.000147206
0.000141101
0.000177225
0.00017152
0.000171521
0.000141101
0.000138956
0.000133547
0.00016966
0.000169655
0.000164309
0.000164304
0.000138961
0.000133554
0.000169681
0.000169647
0.000164332
0.000164296
0.000169658
0.000164339
0.000164307
0.00013895
0.000133541
0.00016968
0.000164331
0.000164332
0.000133541
0.000131621
0.000126686
0.000162581
0.000162576
0.000157546
0.000157541
0.000131627
0.000126693
0.000162605
0.000162567
0.000157572
0.000157533
0.000162578
0.000157579
0.000157545
0.000131615
0.000126679
0.000162604
0.00015757
0.000157571
0.000126679
0.000124961
0.000120362
0.000155916
0.000155912
0.000151157
0.000151152
0.000124966
0.000120369
0.000155942
0.000155903
0.000151184
0.000151144
0.000155915
0.000151192
0.000151156
0.000124954
0.000120355
0.000155942
0.000151183
0.000151184
0.000120355
0.000118821
0.000114424
0.000149612
0.000149607
0.000145096
0.00014509
0.000118828
0.000114432
0.000149639
0.000149599
0.000145124
0.000145083
0.000149611
0.000145132
0.000145095
0.000118816
0.000114418
0.000149639
0.000145123
0.000145124
0.000114418
0.000113175
0.000108835
0.00014363
0.000143624
0.000139318
0.000139313
0.000113179
0.000108843
0.000143658
0.000143616
0.000139347
0.000139305
0.000143629
0.000139356
0.000139319
0.000113167
0.00010883
0.000143658
0.000139347
0.000139348
0.000108827
0.000107938
0.000103703
0.000137916
0.000137909
0.000133776
0.00013377
0.000107945
0.000103707
0.000137944
0.000137901
0.000133805
0.000133762
0.000137915
0.000133814
0.000133776
0.000107934
0.000103695
0.000137944
0.000133805
0.000133806
0.000103694
0.000103064
9.91277e-05
0.000132425
0.000132418
0.000128446
0.000128438
0.000103069
9.91335e-05
0.000132453
0.000132411
0.000128473
0.000128431
0.000132425
0.000128485
0.000128447
0.000103058
9.91216e-05
0.000132454
0.000128475
0.000128476
9.91203e-05
9.8442e-05
9.49917e-05
0.000127151
0.000127144
0.000123345
0.000123337
9.84477e-05
9.49951e-05
0.000127178
0.000127136
0.000123371
0.000123329
0.000127152
0.000123385
0.000123347
9.84361e-05
9.49831e-05
0.000127181
0.000123374
0.000123375
9.49826e-05
9.42591e-05
9.14362e-05
0.000122111
0.000122103
0.000118477
0.00011847
9.42634e-05
9.1441e-05
0.000122137
0.000122095
0.000118502
0.000118461
0.000122113
0.000118517
0.00011848
9.42527e-05
9.14308e-05
0.000122141
0.000118506
0.000118507
9.14292e-05
9.06645e-05
8.83759e-05
0.000117331
0.000117324
0.000113921
0.000113916
9.06698e-05
8.83812e-05
0.000117356
0.000117314
0.000113945
0.000113905
0.000117334
0.000113962
0.000113926
9.066e-05
8.83708e-05
0.000117361
0.000113951
0.000113952
8.83714e-05
8.77365e-05
8.59089e-05
0.000112847
0.00011284
0.00010969
0.000109685
8.77414e-05
8.5914e-05
0.00011287
0.00011283
0.000109713
0.000109675
0.000112852
0.000109731
0.000109696
8.77295e-05
8.59029e-05
0.000112877
0.00010972
0.00010972
8.59056e-05
8.53903e-05
8.40694e-05
0.000108716
0.000108709
0.000105847
0.00010584
8.53963e-05
8.40754e-05
0.000108738
0.000108699
0.000105869
0.000105831
0.000108721
0.000105886
0.000105852
8.53856e-05
8.40667e-05
0.000108745
0.000105876
0.000105875
8.40664e-05
8.36685e-05
8.28583e-05
0.000104988
0.000104979
0.000102454
0.000102444
8.36763e-05
8.28624e-05
0.000105007
0.00010497
0.000102472
0.000102437
0.000104992
0.00010249
0.000102458
8.36687e-05
8.28582e-05
0.000105015
0.000102481
0.00010248
8.2854e-05
8.25789e-05
8.22605e-05
0.000101676
0.000101666
9.95163e-05
9.95045e-05
8.25844e-05
8.22607e-05
0.000101695
0.000101658
9.95329e-05
9.94983e-05
0.000101681
9.95493e-05
9.95201e-05
8.25792e-05
8.22577e-05
0.000101703
9.95413e-05
9.95409e-05
8.22516e-05
8.20976e-05
8.22064e-05
9.88614e-05
9.88501e-05
9.70804e-05
9.70677e-05
8.20998e-05
8.22095e-05
9.88784e-05
9.88429e-05
9.70955e-05
9.70625e-05
9.88652e-05
9.7111e-05
9.70842e-05
8.20957e-05
8.22037e-05
9.88861e-05
9.71039e-05
9.7104e-05
8.21995e-05
8.21497e-05
8.265e-05
9.65541e-05
9.65399e-05
9.51663e-05
9.51519e-05
8.21529e-05
8.26502e-05
9.65697e-05
9.6536e-05
9.51801e-05
9.51454e-05
9.65584e-05
9.51933e-05
9.51651e-05
8.21468e-05
8.26447e-05
9.65777e-05
9.51849e-05
9.51827e-05
8.26412e-05
8.26912e-05
8.35265e-05
9.47662e-05
9.47531e-05
9.37629e-05
9.37509e-05
8.26943e-05
8.35332e-05
9.47804e-05
9.47483e-05
9.37754e-05
9.37469e-05
9.47689e-05
9.37904e-05
9.37661e-05
8.26876e-05
8.3532e-05
9.47861e-05
9.37843e-05
9.37818e-05
8.35316e-05
8.36572e-05
8.4811e-05
9.34973e-05
9.34829e-05
9.28702e-05
9.28575e-05
8.36642e-05
8.48114e-05
9.35101e-05
9.34759e-05
9.28812e-05
9.28589e-05
9.34984e-05
9.28947e-05
9.28742e-05
8.36632e-05
8.48047e-05
9.35137e-05
9.28942e-05
9.28882e-05
8.48122e-05
8.50123e-05
8.64256e-05
9.27277e-05
9.27154e-05
9.24696e-05
9.24546e-05
8.50147e-05
8.64251e-05
9.27393e-05
9.27157e-05
9.24794e-05
9.24508e-05
9.27321e-05
9.24896e-05
9.24681e-05
8.50163e-05
8.64082e-05
9.27458e-05
9.24838e-05
9.24805e-05
8.64227e-05
8.66963e-05
8.83117e-05
9.24436e-05
9.2432e-05
9.25408e-05
9.25248e-05
8.66914e-05
8.83211e-05
9.24536e-05
9.24328e-05
9.25494e-05
9.2517e-05
9.24418e-05
9.25575e-05
9.25444e-05
8.66774e-05
8.83194e-05
9.24538e-05
9.25478e-05
9.25551e-05
8.83201e-05
8.86394e-05
9.04079e-05
9.26177e-05
9.26054e-05
9.30385e-05
9.30195e-05
8.86384e-05
9.04249e-05
9.26267e-05
9.2602e-05
9.30459e-05
9.30233e-05
9.26255e-05
9.30501e-05
9.30355e-05
8.8633e-05
9.04329e-05
9.26361e-05
9.30522e-05
9.30451e-05
9.04132e-05
9.07838e-05
9.26925e-05
9.32346e-05
9.32115e-05
9.39127e-05
9.39096e-05
9.07914e-05
9.2713e-05
9.32425e-05
9.32075e-05
9.39183e-05
9.39164e-05
9.3228e-05
9.39382e-05
9.3931e-05
9.08026e-05
9.27044e-05
9.32372e-05
9.39435e-05
9.39391e-05
9.27059e-05
9.30798e-05
9.51514e-05
9.4204e-05
9.41908e-05
9.5191e-05
9.51848e-05
9.31152e-05
9.51284e-05
9.42099e-05
9.41985e-05
9.51961e-05
9.51706e-05
9.42162e-05
9.52119e-05
9.51874e-05
9.31127e-05
9.51181e-05
9.4224e-05
9.51957e-05
9.51939e-05
9.51382e-05
9.55733e-05
9.7652e-05
9.55499e-05
9.5541e-05
9.67891e-05
9.6773e-05
9.55674e-05
9.76416e-05
9.55552e-05
9.55393e-05
9.67929e-05
9.67795e-05
9.55547e-05
9.67987e-05
9.67884e-05
9.55533e-05
9.76563e-05
9.55612e-05
9.68032e-05
9.67943e-05
9.76655e-05
9.81032e-05
0.000100247
9.72256e-05
9.72313e-05
9.86361e-05
9.86031e-05
9.8092e-05
0.000100251
9.72295e-05
9.72154e-05
9.86386e-05
9.86093e-05
9.7229e-05
9.86268e-05
9.86446e-05
9.81005e-05
0.000100241
9.72343e-05
9.86311e-05
9.86486e-05
0.000100238
0.000100707
0.000102925
9.91727e-05
9.91185e-05
0.000100775
0.000100813
0.000100697
0.00010293
9.91761e-05
9.91534e-05
0.000100778
0.000100804
9.91536e-05
0.000100838
0.000100822
0.000100705
0.000102933
9.91581e-05
0.000100827
0.000100826
0.000102914
0.000103391
0.0001056
0.000101306
0.000101346
0.000103196
0.000103086
0.000103412
0.000105553
0.000101307
0.000101306
0.000103198
0.000103114
0.000101387
0.000103106
0.000103062
0.000103388
0.000105567
0.000101389
0.00010313
0.000103065
0.00010558
0.00010611
0.000108241
0.000103836
0.000103767
0.000105549
0.000105691
0.000106043
0.000108365
0.000103842
0.000103829
0.000105547
0.000105637
0.000103721
0.00010572
0.000105782
0.000106078
0.000108343
0.000103725
0.000105666
0.000105782
0.000108392
0.000108704
0.000111163
0.000106227
0.000106283
0.000108583
0.00010834
0.000108812
0.000110992
0.000106223
0.000106202
0.00010859
0.000108448
0.000106369
0.000108352
0.000108327
0.000108774
0.000111019
0.000106367
0.000108455
0.000108333
0.000110951
0.000111657
0.000113577
0.000109229
0.000109105
0.000110948
0.000111256
0.000111531
0.000113801
0.000109238
0.000109204
0.000110939
0.000111078
0.000109109
0.00011129
0.000111233
0.000111572
0.000113737
0.000109116
0.00011111
0.000111226
0.000113822
0.000114057
0.000116727
0.000111756
0.000111908
0.000114453
0.000114062
0.000114251
0.000116418
0.000111748
0.000111823
0.000114473
0.000114363
0.000111889
0.000114071
0.000114169
0.000114179
0.000116594
0.000111884
0.000114371
0.000114186
0.000116437
0.000117226
0.000118928
0.000115114
0.000114907
0.000116939
0.000117295
0.000116935
0.000119287
0.000115129
0.000115007
0.000116913
0.00011686
0.000114946
0.000117324
0.000117186
0.000117088
0.000118952
0.000114958
0.000116887
0.000117162
0.000119208
0.000119399
0.000122027
0.00011777
0.000117951
0.000120403
0.000120084
0.000119726
0.000121692
0.000117754
0.000117784
0.000120438
0.000120651
0.000118004
0.000120105
0.000120376
0.000119461
0.000122171
0.000117989
0.000120672
0.000120409
0.000121937
0.000122507
0.000124441
0.000121156
0.000120959
0.000123385
0.000123605
0.000122208
0.000124706
0.000121184
0.000121288
0.000123358
0.000123036
0.000121047
0.000123615
0.000123242
0.000122612
0.000124174
0.000121074
0.000123044
0.000123215
0.000124343
0.000124914
0.000127202
0.000124199
0.000124374
0.000126634
0.000126527
0.000125166
0.000127065
0.000124173
0.000123911
0.000126654
0.000126883
0.000124128
0.000126555
0.000126788
0.000124651
0.000127435
0.000124101
0.000126912
0.000126808
0.000127338
0.000127653
0.000129738
0.000127418
0.000127292
0.000129793
0.000129768
0.000127499
0.000129745
0.000127445
0.00012769
0.000129796
0.000129703
0.000127574
0.000129786
0.000129787
0.000127929
0.00012963
0.000127599
0.000129722
0.000129789
0.000129708
0.00013019
0.000132312
0.000130598
0.000130603
0.000132987
0.000133015
0.00013022
0.00013234
0.000130593
0.000130444
0.000132985
0.000132965
0.000130552
0.000133031
0.00013296
0.000130025
0.000132318
0.000130546
0.000132982
0.000132957
0.000132288
0.000132748
0.000134837
0.00013378
0.000133798
0.000136178
0.000136165
0.000132768
0.000134831
0.000133782
0.000133809
0.000136186
0.000136208
0.000133774
0.000136183
0.000136195
0.000132797
0.000134862
0.000133776
0.000136228
0.000136203
0.000134858
0.000135271
0.000137329
0.000136978
0.000136962
0.000139354
0.000139353
0.000135264
0.000137332
0.000136986
0.000136985
0.000139356
0.000139314
0.000137
0.000139373
0.000139384
0.000135273
0.000137297
0.000137007
0.000139336
0.000139386
0.000137344
0.000137745
0.000139764
0.000140143
0.00014014
0.000142492
0.000142471
0.00013775
0.00013975
0.000140145
0.0001401
0.000142498
0.000142485
0.000140161
0.000142486
0.000142466
0.000137714
0.000139764
0.000140162
0.000142503
0.000142472
0.000139737
0.000140166
0.000142132
0.000143265
0.000143248
0.00014557
0.000145578
0.000140153
0.000142146
0.000143273
0.000143272
0.000145577
0.000145586
0.000143242
0.000145597
0.000145601
0.000140176
0.000142147
0.000143249
0.000145608
0.000145607
0.000142157
0.000142522
0.000144471
0.000146337
0.000146347
0.000148629
0.000148627
0.000142539
0.000144473
0.000146344
0.000146348
0.000148634
0.00014862
0.000146381
0.000148647
0.000148656
0.000142535
0.000144465
0.000146387
0.000148643
0.000148662
0.000144487
0.000144852
0.000146756
0.000149388
0.000149383
0.000151641
0.000151632
0.000144851
0.000146754
0.000149394
0.000149375
0.000151647
0.000151629
0.000149403
0.000151648
0.000151636
0.000144843
0.000146751
0.000149409
0.000151649
0.000151643
0.000146749
0.000147121
0.000148983
0.000152382
0.000152374
0.000154594
0.000154593
0.00014712
0.000148987
0.00015239
0.000152374
0.000154601
0.000154589
0.00015238
0.000154612
0.000154607
0.000147117
0.000148984
0.000152388
0.000154611
0.000154614
0.000148992
0.000149336
0.000151154
0.000155326
0.000155325
0.000157484
0.000157482
0.000149341
0.000151156
0.000155333
0.000155319
0.000157492
0.000157479
0.000155337
0.000157499
0.000157495
0.000149336
0.000151151
0.000155344
0.000157502
0.000157504
0.000151159
0.000151492
0.000153273
0.000158197
0.000158196
0.000160326
0.000160322
0.000151494
0.000153276
0.000158205
0.000158192
0.000160333
0.000160315
0.000158212
0.00016034
0.000160332
0.00015149
0.000153268
0.000158221
0.000160336
0.000160339
0.000153276
0.000153599
0.000155326
0.000161025
0.000161017
0.000163086
0.000163089
0.0001536
0.000155331
0.000161033
0.000161014
0.000163094
0.000163082
0.000161023
0.000163108
0.000163099
0.000153593
0.000155325
0.000161031
0.000163105
0.000163107
0.000155331
0.000155637
0.000157332
0.00016377
0.000163778
0.000165801
0.000165791
0.000155645
0.00015733
0.000163778
0.000163764
0.00016581
0.000165789
0.000163793
0.000165809
0.000165801
0.000155636
0.000157325
0.0001638
0.000165811
0.000165811
0.000157332
0.000157629
0.000159261
0.000166464
0.000166448
0.000168424
0.000168435
0.000157624
0.000159273
0.000166474
0.000166455
0.000168432
0.000168423
0.000166454
0.000168455
0.000168447
0.000157623
0.000159265
0.000166465
0.000168449
0.000168456
0.000159273
0.000159545
0.000161161
0.000169076
0.000169093
0.000171014
0.000170998
0.000159563
0.000161153
0.000169084
0.00016907
0.000171024
0.000170998
0.000169108
0.000171016
0.000171005
0.000159549
0.000161148
0.000169116
0.00017102
0.000171015
0.000161153
0.000161431
0.000162955
0.000171644
0.000171621
0.000173482
0.000173499
0.000161416
0.000162974
0.000171656
0.000171633
0.000173491
0.000173482
0.000171625
0.000173519
0.00017351
0.000161419
0.000162962
0.000171636
0.000173508
0.00017352
0.000162974
0.000163208
0.000164744
0.000174093
0.000174115
0.000175934
0.000175917
0.000163235
0.000164734
0.000174101
0.000174088
0.000175946
0.000175925
0.000174131
0.000175938
0.000175928
0.000163215
0.000164735
0.00017414
0.000175948
0.000175938
0.000164734
0.000164992
0.000166428
0.000176539
0.000176515
0.000178281
0.000178294
0.000164973
0.000166446
0.000176552
0.00017653
0.000178288
0.000178265
0.00017652
0.000178314
0.000178298
0.000164982
0.000166423
0.000176532
0.000178292
0.000178309
0.000166442
0.000166646
0.000168063
0.000178837
0.000178858
0.000180537
0.000180526
0.000166672
0.000168058
0.000178844
0.000178823
0.000180553
0.000180544
0.000178868
0.000180549
0.000180544
0.000166642
0.000168069
0.000178878
0.000180569
0.000180557
0.000168064
0.000168291
0.000169663
0.000181127
0.000181108
0.000182775
0.000182784
0.000168279
0.000169677
0.000181144
0.000181132
0.000182779
0.000182748
0.000181123
0.000182806
0.00018278
0.000168297
0.000169648
0.000181136
0.000182775
0.000182787
0.000169665
0.000169845
0.00017117
0.000183272
0.000183287
0.000184902
0.000184889
0.000169866
0.000171165
0.000183276
0.000183244
0.00018492
0.000184905
0.000183284
0.000184912
0.000184912
0.000169829
0.000171176
0.000183291
0.000184935
0.000184932
0.000171177
0.000171378
0.000172586
0.000185466
0.00018545
0.000186854
0.000186869
0.000171368
0.000172606
0.000185486
0.000185473
0.00018686
0.000186841
0.000185475
0.000186894
0.000186867
0.000171387
0.000172579
0.000185496
0.000186866
0.00018687
0.00017259
0.000172735
0.000174108
0.000187325
0.000187339
0.000189062
0.000189045
0.00017276
0.000174098
0.00018733
0.000187305
0.000189076
0.000189044
0.000187333
0.000189067
0.000189058
0.000172724
0.0001741
0.000187332
0.000189075
0.000189075
0.000174104
0.000174284
0.000175227
0.000189538
0.000189523
0.000190595
0.000190605
0.000174271
0.000175245
0.000189556
0.000189527
0.000190609
0.000190601
0.000189541
0.00019063
0.000190613
0.00017428
0.000175236
0.000189566
0.000190629
0.000190629
0.000175243
0.000175355
0.000176753
0.000191109
0.000191121
0.000192823
0.000192822
0.00017538
0.000176754
0.00019112
0.000191111
0.000192831
0.000192794
0.000191126
0.000192851
0.000192834
0.000175362
0.000176736
0.000191133
0.000192825
0.000192837
0.000176749
0.000176853
0.000177715
0.000193134
0.000193127
0.000194192
0.00019418
0.00017685
0.000177714
0.000193145
0.000193105
0.000194212
0.000194196
0.000193136
0.0001942
0.000194175
0.000176836
0.000177718
0.000193145
0.000194218
0.000194201
0.000177708
0.0001779
0.000179037
0.000194844
0.000194841
0.000196097
0.000196117
0.000177905
0.000179058
0.000194862
0.00019485
0.000196106
0.000196082
0.000194845
0.000196154
0.000196151
0.000177911
0.000179034
0.000194869
0.000196131
0.000196158
0.000179063
0.000179023
0.000180028
0.000196182
0.000196192
0.000197494
0.000197464
0.00017904
0.000180011
0.000196191
0.000196163
0.000197507
0.000197472
0.000196213
0.000197478
0.000197439
0.000179015
0.000180012
0.00019622
0.000197478
0.000197453
0.000179987
0.000180316
0.000181206
0.000198244
0.000198225
0.000199361
0.000199403
0.000180305
0.000181243
0.000198259
0.000198228
0.000199379
0.000199371
0.000198209
0.000199447
0.000199449
0.000180306
0.000181222
0.000198224
0.000199433
0.000199464
0.000181257
0.000181092
0.000181815
0.000199331
0.000199377
0.000199928
0.000199838
0.000181134
0.000181759
0.000199349
0.000199341
0.000199936
0.000199875
0.00019943
0.000199839
0.000199786
0.000181111
0.00018177
0.000199445
0.000199852
0.000199805
0.000181726
0.00018219
0.000183449
0.000200848
0.000200782
0.000202577
0.000202602
0.000182139
0.000183486
0.000200858
0.000200804
0.000202593
0.000202578
0.000200736
0.000202639
0.000202622
0.000182148
0.000183461
0.000200754
0.000202621
0.000202635
0.000183485
0.000183348
0.000183071
0.000202653
0.000202693
0.000202354
0.000202406
0.000183394
0.000183082
0.00020267
0.000202662
0.000202371
0.000202369
0.000202725
0.000202456
0.000202453
0.000183367
0.000183068
0.000202737
0.000202429
0.000202464
0.000183085
0.000183219
0.000185188
0.000202391
0.000202395
0.000204877
0.00020484
0.000183187
0.000185161
0.000202405
0.00020238
0.000204891
0.000204844
0.000202419
0.000204854
0.000204822
0.000183189
0.000185161
0.000202433
0.00020486
0.000204839
0.000185144
0.00018515
0.000184864
0.000205222
0.000205217
0.000205263
0.000205299
0.000185144
0.000184923
0.000205239
0.000205207
0.000205282
0.000205272
0.000205217
0.00020534
0.00020532
0.000185136
0.000184892
0.000205233
0.00020532
0.000205337
0.000184923
0.000184941
0.000187147
0.000205396
0.00020543
0.000207027
0.000207009
0.000184981
0.000187116
0.000205416
0.00020541
0.000207042
0.00020701
0.000205455
0.000207037
0.00020702
0.00018496
0.000187127
0.000205473
0.000207038
0.000207035
0.000187115
0.000186965
0.000183871
0.000207249
0.00020723
0.000205817
0.00020582
0.000186939
0.000183897
0.000207262
0.000207227
0.000205829
0.000205786
0.00020724
0.000205845
0.000205825
0.000186947
0.000183856
0.000207255
0.000205823
0.00020584
0.000183894
0.0001832
0.000192445
0.000205092
0.000205098
0.000211818
0.000211809
0.000183228
0.00019244
0.000205104
0.000205059
0.00021184
0.00021182
0.000205099
0.000211845
0.00021181
0.000183182
0.000192453
0.000205115
0.000211849
0.000211828
0.000192417
0.000193499
0.000187971
0.000213655
0.000213643
0.000213663
0.000213659
0.000193491
0.000187976
0.000213678
0.000213661
0.000213684
0.000213657
0.000213651
0.000213692
0.000213708
0.00019351
0.000187976
0.000213671
0.000213712
0.000213731
0.00018802
0.000184142
0.000169718
0.000206336
0.000206338
0.000194423
0.000194436
0.000184153
0.000169753
0.000206352
0.000206317
0.000194432
0.000194392
0.000206374
0.000194476
0.000194445
0.000184141
0.000169703
0.000206393
0.000194437
0.000194458
0.000169723
0.000169806
0.000205375
0.000191692
0.000191709
0.000223989
0.000223989
0.000169851
0.00020538
0.0001917
0.000191664
0.000224004
0.000223984
0.00019171
0.000224017
0.000223985
0.000169794
0.000205372
0.000191721
0.000224005
0.000223998
0.000205369
0.000210023
0.000227033
0.000234166
0.000234152
0.000256023
0.000255985
0.000210019
0.000226981
0.000234185
0.000234161
0.000256046
0.000256014
0.000234156
0.000256001
0.000255993
0.000210019
0.000227019
0.000234173
0.000256032
0.00025601
0.000226992
0.000220388
0.000167891
0.0002569
0.000256851
0.000197434
0.000197431
0.00022034
0.000167917
0.00025693
0.000256885
0.000197463
0.000197419
0.000256862
0.00019749
0.000197445
0.000220375
0.000167898
0.000256885
0.000197478
0.000197474
0.000167906
0.000161772
0.000144223
0.000182677
0.000182686
0.000161995
0.000162017
0.000161805
0.00014426
0.000182701
0.000182666
0.000162016
0.000161992
0.0001827
0.000162066
0.000162032
0.000161781
0.000144235
0.000182728
0.000162045
0.000162058
0.00014425
0.0001456
0.000185942
0.000157852
0.000157872
0.000196712
0.000196708
0.000145627
0.000185938
0.000157869
0.00015785
0.000196713
0.000196706
0.000157888
0.000196707
0.000196712
0.00014561
0.000185934
0.000157911
0.000196709
0.000196713
0.00018594
0.000192918
0.00022682
0.000215217
0.000215207
0.000256261
0.000256245
0.000192915
0.000226817
0.000215221
0.000215203
0.000256274
0.000256233
0.000215208
0.000256273
0.000256241
0.000192909
0.000226802
0.000215212
0.000256259
0.000256253
0.000226799
0.000229722
0.0002378
0.000263859
0.000263843
0.000281227
0.000281214
0.000229719
0.000237812
0.000263874
0.000263829
0.000281248
0.000281195
0.00026384
0.000281257
0.000281212
0.000229704
0.000237791
0.000263853
0.000281236
0.000281228
0.00023779
0.000231757
0.000198338
0.000277985
0.000277982
0.000233918
0.000233919
0.00023177
0.000198358
0.00027802
0.00027796
0.000233952
0.000233909
0.000277991
0.000233986
0.000233944
0.000231753
0.000198347
0.000278022
0.000233978
0.00023398
0.000198356
0.000192796
0.000173548
0.000221586
0.000221586
0.000196748
0.000196743
0.000192814
0.000173558
0.000221618
0.00022158
0.000196769
0.000196739
0.000221611
0.00019679
0.000196759
0.000192804
0.000173551
0.000221645
0.000196783
0.000196785
0.000173555
0.000171994
0.000169183
0.000192503
0.000192497
0.000188078
0.000188073
0.000172002
0.000169188
0.000192521
0.000192492
0.000188092
0.000188064
0.000192509
0.000188106
0.000188079
0.000171994
0.000169177
0.000192532
0.000188096
0.000188095
0.000169179
0.000169542
0.000175965
0.000187923
0.000187917
0.000194982
0.000194985
0.000169546
0.000175977
0.000187935
0.000187908
0.000194997
0.000194972
0.000187923
0.000195015
0.000194988
0.000169536
0.000175963
0.000187939
0.000195002
0.000195001
0.000175967
0.000176907
0.000181449
0.000197626
0.000197629
0.000204726
0.000204727
0.00017692
0.000181458
0.00019764
0.000197619
0.00020474
0.000204721
0.000197634
0.000204755
0.000204735
0.000176906
0.00018145
0.000197647
0.000204749
0.000204751
0.000181457
0.000183568
0.000204328
0.000204329
0.000183576
0.000204341
0.000204322
0.000225793
0.000225784
0.000225794
0.000204337
0.000183568
0.000204351
0.00023473
0.000234746
0.000234729
0.000234729
0.000235117
0.000234798
0.000234701
0.000234727
0.000235118
0.000234798
0.000234727
0.000234701
0.000234867
0.000233566
0.000233566
0.000104651
3.87411e-05
0.000129118
3.98249e-05
2.16834e-05
2.28313e-05
0.000104643
3.87371e-05
0.000129114
3.98214e-05
0.000233973
0.000233973
0.000233973
0.000232935
0.000232935
0.000232935
0.000232935
0.000206196
9.36752e-05
0.000233969
0.000231994
0.000222614
8.72226e-05
0.000233611
2.16823e-05
2.28307e-05
0.00020619
0.000233969
9.36747e-05
0.000231994
0.000222622
0.000233611
8.72282e-05
4.78013e-05
4.77895e-05
0.000231345
4.40184e-05
4.40089e-05
7.25677e-05
4.2434e-05
8.14027e-05
4.37634e-05
2.47749e-05
2.54634e-05
7.25581e-05
4.24305e-05
8.13974e-05
4.37596e-05
0.000232532
0.000232532
0.000232532