/*--------------------------------*- C++ -*----------------------------------*\
| =========                 |                                                 |
| \\      /  F ield         | OpenFOAM: The Open Source CFD Toolbox           |
|  \\    /   O peration     | Version:  v2012                                 |
|   \\  /    A nd           | Website:  www.openfoam.com                      |
|    \\/     M anipulation  |                                                 |
\*---------------------------------------------------------------------------*/
FoamFile
{
    version     2.0;
    format      ascii;
    class       volScalarField;
    location    "375";
    object      p;
}
// * * * * * * * * * * * * * * * * * * * * * * * * * * * * * * * * * * * * * //

dimensions      [0 2 -2 0 0 0 0];


internalField   nonuniform List<scalar> 
171728
(
0.00359994
0.00360026
0.00360027
0.00360332
0.00354458
0.003545
0.003545
0.00354799
0.00349383
0.0034938
0.0034938
0.00349655
0.00344144
0.00344145
0.00344145
0.00344423
0.00339009
0.0033901
0.0033901
0.00339285
0.00334011
0.00334012
0.00334012
0.00334284
0.00329159
0.0032916
0.0032916
0.00329428
0.00324435
0.00324438
0.00324438
0.00324702
0.00319823
0.00319825
0.00319825
0.00320086
0.00315299
0.00315301
0.00315302
0.00315561
0.00310848
0.00310851
0.0031085
0.00311107
0.00306457
0.00306459
0.00306459
0.00306713
0.00302118
0.00302119
0.00302119
0.00302371
0.00297825
0.00297827
0.00297827
0.00298077
0.00293575
0.00293575
0.00293575
0.00293826
0.00289366
0.00289367
0.00289367
0.00289615
0.00285195
0.00285194
0.00285194
0.00285443
0.0028106
0.0028106
0.0028106
0.00281307
0.00276958
0.00276957
0.00276957
0.00277203
0.00272889
0.00272886
0.00272886
0.00273132
0.00268848
0.00268844
0.00268844
0.0026909
0.00264833
0.00264829
0.00264829
0.00265074
0.00260844
0.00260839
0.00260839
0.00261083
0.00256879
0.00256873
0.00256873
0.00257116
0.00252936
0.0025293
0.0025293
0.00253172
0.00249015
0.00249009
0.00249009
0.00249249
0.00245114
0.00245109
0.00245109
0.00245348
0.00241234
0.00241229
0.00241229
0.00241466
0.00237373
0.00237369
0.00237369
0.00237603
0.00233531
0.00233527
0.00233527
0.0023376
0.00229707
0.00229703
0.00229703
0.00229934
0.00225901
0.00225897
0.00225897
0.00226125
0.00222111
0.00222108
0.00222108
0.00222334
0.00218337
0.00218335
0.00218335
0.00218559
0.00214579
0.00214578
0.00214578
0.002148
0.00210837
0.00210836
0.00210836
0.00211056
0.0020711
0.00207108
0.00207108
0.00207327
0.00203395
0.00203395
0.00203395
0.00203612
0.00199697
0.00199694
0.00199694
0.0019991
0.00196008
0.00196007
0.00196007
0.00196222
0.00192336
0.00192331
0.00192332
0.00192544
0.00188671
0.00188668
0.00188667
0.0018888
0.00185021
0.00185015
0.00185017
0.00185227
0.00181379
0.00181374
0.00181372
0.00181583
0.00177747
0.00177741
0.00177741
0.00177951
0.00174126
0.00174118
0.00174118
0.00174327
0.00170512
0.00170504
0.00170504
0.00170712
0.00166907
0.00166898
0.00166899
0.00167106
0.00163309
0.001633
0.001633
0.00163507
0.00159719
0.00159709
0.00159709
0.00159915
0.00156135
0.00156124
0.00156125
0.0015633
0.00152557
0.00152546
0.00152546
0.00152751
0.00148985
0.00148973
0.00148973
0.00149178
0.00145417
0.00145406
0.00145406
0.00145609
0.00141855
0.00141843
0.00141843
0.00142046
0.00138297
0.00138284
0.00138284
0.00138487
0.00134742
0.00134729
0.00134729
0.00134932
0.00131191
0.00131178
0.00131178
0.0013138
0.00127642
0.0012763
0.00127629
0.00127831
0.00124096
0.00124084
0.00124084
0.00124285
0.00120552
0.0012054
0.0012054
0.00120741
0.0011701
0.00116998
0.00116999
0.00117199
0.0011347
0.00113458
0.00113458
0.00113659
0.0010993
0.00109919
0.00109919
0.0011012
0.00106391
0.0010638
0.0010638
0.00106581
0.00102852
0.00102842
0.00102842
0.00103043
0.00099312
0.000993027
0.000993026
0.000995033
0.000957752
0.000957647
0.000957647
0.000959649
0.000922318
0.00092224
0.00092224
0.000924249
0.000886942
0.000886837
0.000886835
0.000888838
0.000851478
0.000851413
0.000851414
0.000853425
0.000816076
0.000815966
0.000815965
0.000817969
0.00078056
0.000780515
0.000780515
0.000782528
0.000745149
0.000745038
0.000745037
0.000747042
0.000709583
0.000709518
0.000709519
0.000711523
0.000674094
0.000674057
0.000674056
0.00067609
0.000638522
0.000638421
0.000638422
0.000640416
0.000603028
0.000602988
0.000602989
0.000605024
0.000567189
0.000567107
0.000567106
0.000569116
0.000532212
0.000532209
0.00053221
0.000534211
0.000495694
0.000495599
0.000495596
0.000497657
0.000459888
0.000460016
0.000460013
0.000462005
0.000427197
0.000427595
0.00042759
0.000429593
0.000390648
0.000389962
0.00038996
0.000391876
0.000350268
0.000349953
0.000349948
0.000352212
0.00031424
0.000315371
0.000315373
0.000317763
0.000283047
0.000283661
0.000283657
0.000285651
0.00025361
0.000251853
0.000251855
0.000253044
0.000218037
0.00021727
0.000217272
0.000218956
0.00017646
0.000176681
0.000176682
0.000179202
0.000134887
0.000136084
0.000136082
0.000138831
9.73026e-05
9.78335e-05
9.78354e-05
0.000100153
6.33895e-05
6.34283e-05
6.34269e-05
6.52708e-05
3.17875e-05
3.09392e-05
3.09364e-05
3.24253e-05
5.62425e-06
6.38203e-06
6.38047e-06
4.79477e-06
0.00361334
0.00361357
0.00361357
0.00361334
0.00361357
0.00361357
0.00361433
0.00361433
0.00361433
0.00361433
0.00361357
0.00361357
0.00361334
0.00361357
0.00361357
0.00361334
0.00360332
0.00355456
0.00360026
0.00360026
0.00355684
0.00355684
0.00360332
0.00355456
0.00360027
0.00360026
0.00355684
0.00355684
0.00360026
0.00355684
0.00355684
0.00360332
0.00355456
0.00360027
0.00355684
0.00355683
0.00355456
0.00354799
0.00350348
0.003545
0.003545
0.00350692
0.00350692
0.00354799
0.00350348
0.003545
0.003545
0.00350692
0.00350692
0.003545
0.00350692
0.00350692
0.00354799
0.00350348
0.00354499
0.00350692
0.00350692
0.00350348
0.00349655
0.00345111
0.0034938
0.0034938
0.00345447
0.00345447
0.00349655
0.00345111
0.0034938
0.0034938
0.00345447
0.00345447
0.0034938
0.00345447
0.00345447
0.00349655
0.00345111
0.0034938
0.00345447
0.00345447
0.00345111
0.00344423
0.00339956
0.00344145
0.00344145
0.00340282
0.00340282
0.00344423
0.00339956
0.00344145
0.00344145
0.00340282
0.00340282
0.00344145
0.00340282
0.00340282
0.00344423
0.00339956
0.00344145
0.00340282
0.00340282
0.00339956
0.00339285
0.00334934
0.0033901
0.0033901
0.00335248
0.00335248
0.00339285
0.00334934
0.0033901
0.0033901
0.00335248
0.00335248
0.0033901
0.00335247
0.00335248
0.00339285
0.00334934
0.0033901
0.00335247
0.00335248
0.00334934
0.00334284
0.00330058
0.00334012
0.00334013
0.0033036
0.0033036
0.00334284
0.00330059
0.00334012
0.00334013
0.0033036
0.0033036
0.00334012
0.0033036
0.00330361
0.00334284
0.00330059
0.00334012
0.0033036
0.0033036
0.00330058
0.00329428
0.00325316
0.0032916
0.0032916
0.00325608
0.00325607
0.00329428
0.00325316
0.0032916
0.0032916
0.00325607
0.00325607
0.0032916
0.00325607
0.00325608
0.00329428
0.00325316
0.0032916
0.00325607
0.00325608
0.00325316
0.00324703
0.00320685
0.00324437
0.00324438
0.00320969
0.00320968
0.00324703
0.00320686
0.00324436
0.00324438
0.00320969
0.00320968
0.00324437
0.00320968
0.00320969
0.00324703
0.00320686
0.00324438
0.00320969
0.00320969
0.00320686
0.00320087
0.00316148
0.00319824
0.00319825
0.00316426
0.00316425
0.00320087
0.00316148
0.00319824
0.00319825
0.00316426
0.00316425
0.00319824
0.00316425
0.00316425
0.00320087
0.00316148
0.00319824
0.00316425
0.00316425
0.00316148
0.0031556
0.00311685
0.00315301
0.00315301
0.00311958
0.00311957
0.0031556
0.00311686
0.00315301
0.00315302
0.00311958
0.00311958
0.00315302
0.00311957
0.00311958
0.00315561
0.00311685
0.00315302
0.00311958
0.00311958
0.00311685
0.00311107
0.00307284
0.0031085
0.00310851
0.00307552
0.00307552
0.00311107
0.00307283
0.0031085
0.0031085
0.00307552
0.00307552
0.0031085
0.00307552
0.00307553
0.00311107
0.00307284
0.0031085
0.00307552
0.00307553
0.00307283
0.00306714
0.00302934
0.0030646
0.00306459
0.003032
0.003032
0.00306714
0.00302934
0.0030646
0.00306459
0.003032
0.00303201
0.00306459
0.003032
0.003032
0.00306714
0.00302934
0.00306459
0.00303201
0.003032
0.00302935
0.00302371
0.00298633
0.00302119
0.0030212
0.00298896
0.00298895
0.00302371
0.00298634
0.00302119
0.00302119
0.00298896
0.00298895
0.00302121
0.00298895
0.00298896
0.00302371
0.00298633
0.0030212
0.00298895
0.00298896
0.00298633
0.00298077
0.00294377
0.00297827
0.00297827
0.00294634
0.00294635
0.00298077
0.00294377
0.00297827
0.00297827
0.00294634
0.00294635
0.00297826
0.00294635
0.00294635
0.00298077
0.00294377
0.00297826
0.00294635
0.00294635
0.00294378
0.00293826
0.00290162
0.00293576
0.00293575
0.00290415
0.00290415
0.00293826
0.00290162
0.00293576
0.00293575
0.00290415
0.00290415
0.00293576
0.00290415
0.00290415
0.00293826
0.00290162
0.00293576
0.00290415
0.00290415
0.00290162
0.00289615
0.00285984
0.00289366
0.00289367
0.00286233
0.00286234
0.00289615
0.00285984
0.00289366
0.00289367
0.00286233
0.00286235
0.00289367
0.00286234
0.00286234
0.00289615
0.00285984
0.00289367
0.00286235
0.00286234
0.00285984
0.00285443
0.00281844
0.00285195
0.00285194
0.0028209
0.0028209
0.00285443
0.00281844
0.00285195
0.00285194
0.0028209
0.00282089
0.00285195
0.0028209
0.0028209
0.00285442
0.00281844
0.00285195
0.00282089
0.0028209
0.00281844
0.00281307
0.00277736
0.0028106
0.0028106
0.0027798
0.00277981
0.00281307
0.00277737
0.0028106
0.0028106
0.0027798
0.00277981
0.0028106
0.0027798
0.0027798
0.00281307
0.00277737
0.0028106
0.00277981
0.0027798
0.00277737
0.00277203
0.00273661
0.00276957
0.00276957
0.00273901
0.00273901
0.00277203
0.00273661
0.00276957
0.00276957
0.00273901
0.00273901
0.00276957
0.00273901
0.00273901
0.00277203
0.00273661
0.00276957
0.00273901
0.00273901
0.00273661
0.00273132
0.00269615
0.00272886
0.00272886
0.00269852
0.00269852
0.00273132
0.00269615
0.00272886
0.00272886
0.00269852
0.00269851
0.00272886
0.00269852
0.00269852
0.00273132
0.00269615
0.00272886
0.00269851
0.00269852
0.00269615
0.00269089
0.00265596
0.00268844
0.00268844
0.0026583
0.0026583
0.0026909
0.00265596
0.00268844
0.00268844
0.0026583
0.0026583
0.00268844
0.0026583
0.00265831
0.00269089
0.00265596
0.00268844
0.0026583
0.00265831
0.00265597
0.00265074
0.00261603
0.00264829
0.00264829
0.00261834
0.00261834
0.00265074
0.00261603
0.00264829
0.00264829
0.00261834
0.00261834
0.00264829
0.00261834
0.00261835
0.00265074
0.00261603
0.00264829
0.00261834
0.00261835
0.00261603
0.00261083
0.00257633
0.00260839
0.00260839
0.00257862
0.00257862
0.00261083
0.00257633
0.00260839
0.00260839
0.00257862
0.00257862
0.00260839
0.00257862
0.00257863
0.00261083
0.00257633
0.00260839
0.00257862
0.00257862
0.00257633
0.00257116
0.00253687
0.00256873
0.00256873
0.00253914
0.00253914
0.00257116
0.00253687
0.00256873
0.00256873
0.00253914
0.00253914
0.00256873
0.00253914
0.00253914
0.00257116
0.00253687
0.00256873
0.00253914
0.00253914
0.00253687
0.00253172
0.00249762
0.0025293
0.0025293
0.00249987
0.00249987
0.00253172
0.00249762
0.0025293
0.0025293
0.00249987
0.00249987
0.0025293
0.00249987
0.00249987
0.00253172
0.00249762
0.0025293
0.00249987
0.00249987
0.00249762
0.00249249
0.00245858
0.00249009
0.00249009
0.00246082
0.00246082
0.00249249
0.00245858
0.00249009
0.00249009
0.00246082
0.00246082
0.00249009
0.00246082
0.00246082
0.00249249
0.00245858
0.00249009
0.00246082
0.00246082
0.00245858
0.00245348
0.00241974
0.00245109
0.00245109
0.00242197
0.00242197
0.00245348
0.00241974
0.00245109
0.00245109
0.00242197
0.00242197
0.00245109
0.00242197
0.00242197
0.00245348
0.00241974
0.00245109
0.00242197
0.00242197
0.00241974
0.00241466
0.00238109
0.00241229
0.00241229
0.00238332
0.00238332
0.00241466
0.00238109
0.00241229
0.00241229
0.00238332
0.00238332
0.00241229
0.00238332
0.00238332
0.00241466
0.00238109
0.00241229
0.00238332
0.00238332
0.00238109
0.00237603
0.00234264
0.00237369
0.00237369
0.00234486
0.00234485
0.00237603
0.00234264
0.00237369
0.00237369
0.00234486
0.00234486
0.00237369
0.00234485
0.00234486
0.00237603
0.00234264
0.00237369
0.00234486
0.00234486
0.00234264
0.0023376
0.00230436
0.00233527
0.00233527
0.00230657
0.00230657
0.00233759
0.00230436
0.00233527
0.00233527
0.00230657
0.00230658
0.00233527
0.00230657
0.00230657
0.00233759
0.00230436
0.00233527
0.00230658
0.00230657
0.00230436
0.00229934
0.00226626
0.00229703
0.00229703
0.00226847
0.00226847
0.00229933
0.00226626
0.00229703
0.00229703
0.00226847
0.00226847
0.00229703
0.00226847
0.00226847
0.00229934
0.00226626
0.00229703
0.00226847
0.00226847
0.00226626
0.00226125
0.00222833
0.00225897
0.00225897
0.00223054
0.00223054
0.00226125
0.00222833
0.00225897
0.00225897
0.00223054
0.00223054
0.00225897
0.00223054
0.00223054
0.00226125
0.00222833
0.00225897
0.00223054
0.00223054
0.00222833
0.00222334
0.00219057
0.00222108
0.00222108
0.00219277
0.00219277
0.00222334
0.00219057
0.00222108
0.00222108
0.00219277
0.00219277
0.00222108
0.00219277
0.00219277
0.00222334
0.00219057
0.00222108
0.00219277
0.00219277
0.00219057
0.00218559
0.00215296
0.00218335
0.00218335
0.00215516
0.00215516
0.00218559
0.00215296
0.00218335
0.00218335
0.00215516
0.00215516
0.00218335
0.00215516
0.00215516
0.00218559
0.00215296
0.00218335
0.00215516
0.00215516
0.00215296
0.002148
0.00211551
0.00214578
0.00214578
0.0021177
0.0021177
0.002148
0.00211551
0.00214578
0.00214578
0.0021177
0.0021177
0.00214578
0.0021177
0.0021177
0.002148
0.00211551
0.00214578
0.0021177
0.0021177
0.00211551
0.00211056
0.00207821
0.00210836
0.00210836
0.00208039
0.00208039
0.00211056
0.0020782
0.00210836
0.00210836
0.00208039
0.00208039
0.00210836
0.00208039
0.00208039
0.00211056
0.0020782
0.00210836
0.00208039
0.00208039
0.00207821
0.00207327
0.00204104
0.00207108
0.00207108
0.00204322
0.00204322
0.00207327
0.00204104
0.00207108
0.00207108
0.00204322
0.00204322
0.00207108
0.00204322
0.00204322
0.00207327
0.00204104
0.00207108
0.00204322
0.00204322
0.00204104
0.00203612
0.00200401
0.00203394
0.00203395
0.00200618
0.00200618
0.00203612
0.00200401
0.00203394
0.00203395
0.00200618
0.00200618
0.00203395
0.00200618
0.00200618
0.00203612
0.00200401
0.00203395
0.00200618
0.00200618
0.00200401
0.0019991
0.00196711
0.00199695
0.00199694
0.00196927
0.00196928
0.0019991
0.00196711
0.00199695
0.00199694
0.00196927
0.00196927
0.00199694
0.00196928
0.00196928
0.0019991
0.00196711
0.00199694
0.00196928
0.00196928
0.00196711
0.00196221
0.00193034
0.00196006
0.00196007
0.00193249
0.00193249
0.00196221
0.00193033
0.00196006
0.00196007
0.0019325
0.0019325
0.00196007
0.00193249
0.00193249
0.00196222
0.00193034
0.00196007
0.0019325
0.00193249
0.00193033
0.00192545
0.00189368
0.00192332
0.00192331
0.00189583
0.00189583
0.00192545
0.00189368
0.00192332
0.00192332
0.00189582
0.00189582
0.00192331
0.00189583
0.00189583
0.00192545
0.00189367
0.00192331
0.00189582
0.00189582
0.00189368
0.0018888
0.00185713
0.00188667
0.00188668
0.00185927
0.00185927
0.0018888
0.00185713
0.00188667
0.00188667
0.00185928
0.00185928
0.00188668
0.00185927
0.00185928
0.0018888
0.00185714
0.00188668
0.00185928
0.00185928
0.00185714
0.00185227
0.0018207
0.00185015
0.00185015
0.00182283
0.00182283
0.00185226
0.0018207
0.00185016
0.00185017
0.00182283
0.00182282
0.00185016
0.00182283
0.00182282
0.00185227
0.00182069
0.00185016
0.00182282
0.00182282
0.00182069
0.00181584
0.00178436
0.00181373
0.00181374
0.00178648
0.00178648
0.00181584
0.00178436
0.00181373
0.00181372
0.00178648
0.00178648
0.00181373
0.00178648
0.00178648
0.00181583
0.00178436
0.00181372
0.00178648
0.00178648
0.00178436
0.00177951
0.00174811
0.00177741
0.00177741
0.00175023
0.00175023
0.0017795
0.00174811
0.00177741
0.00177741
0.00175023
0.00175023
0.00177741
0.00175023
0.00175023
0.00177951
0.00174811
0.00177741
0.00175023
0.00175023
0.00174811
0.00174327
0.00171196
0.00174118
0.00174118
0.00171407
0.00171407
0.00174327
0.00171196
0.00174118
0.00174118
0.00171407
0.00171407
0.00174118
0.00171407
0.00171407
0.00174327
0.00171196
0.00174118
0.00171407
0.00171407
0.00171196
0.00170712
0.00167589
0.00170504
0.00170504
0.00167799
0.00167799
0.00170712
0.00167589
0.00170504
0.00170504
0.00167799
0.00167799
0.00170504
0.00167799
0.00167799
0.00170712
0.00167589
0.00170504
0.00167799
0.00167799
0.00167589
0.00167106
0.00163989
0.00166899
0.00166898
0.00164199
0.00164199
0.00167106
0.00163989
0.00166899
0.00166899
0.00164199
0.00164199
0.00166898
0.00164199
0.00164199
0.00167106
0.00163989
0.00166898
0.00164199
0.00164199
0.00163989
0.00163507
0.00160397
0.001633
0.001633
0.00160606
0.00160606
0.00163507
0.00160397
0.001633
0.001633
0.00160606
0.00160606
0.001633
0.00160606
0.00160606
0.00163507
0.00160397
0.001633
0.00160606
0.00160606
0.00160397
0.00159915
0.00156811
0.00159709
0.00159709
0.0015702
0.0015702
0.00159915
0.00156811
0.00159709
0.00159709
0.0015702
0.0015702
0.00159709
0.0015702
0.0015702
0.00159915
0.00156811
0.00159709
0.0015702
0.0015702
0.00156811
0.0015633
0.00153232
0.00156125
0.00156124
0.0015344
0.0015344
0.0015633
0.00153232
0.00156125
0.00156125
0.0015344
0.0015344
0.00156124
0.0015344
0.0015344
0.0015633
0.00153232
0.00156125
0.0015344
0.0015344
0.00153232
0.00152751
0.00149658
0.00152546
0.00152546
0.00149866
0.00149866
0.00152751
0.00149658
0.00152546
0.00152546
0.00149866
0.00149866
0.00152546
0.00149866
0.00149866
0.00152751
0.00149658
0.00152546
0.00149866
0.00149866
0.00149658
0.00149178
0.0014609
0.00148973
0.00148973
0.00146297
0.00146297
0.00149177
0.0014609
0.00148973
0.00148973
0.00146297
0.00146297
0.00148973
0.00146297
0.00146297
0.00149178
0.0014609
0.00148973
0.00146297
0.00146297
0.00146089
0.00145609
0.00142526
0.00145406
0.00145406
0.00142733
0.00142733
0.00145609
0.00142526
0.00145406
0.00145406
0.00142733
0.00142733
0.00145406
0.00142733
0.00142733
0.00145609
0.00142526
0.00145406
0.00142733
0.00142733
0.00142526
0.00142046
0.00138966
0.00141843
0.00141843
0.00139173
0.00139173
0.00142046
0.00138967
0.00141843
0.00141843
0.00139173
0.00139173
0.00141843
0.00139173
0.00139173
0.00142046
0.00138966
0.00141843
0.00139173
0.00139173
0.00138966
0.00138487
0.00135411
0.00138284
0.00138284
0.00135618
0.00135618
0.00138487
0.00135411
0.00138284
0.00138284
0.00135618
0.00135618
0.00138284
0.00135618
0.00135618
0.00138487
0.00135411
0.00138284
0.00135618
0.00135618
0.00135411
0.00134932
0.00131859
0.00134729
0.00134729
0.00132065
0.00132065
0.00134932
0.00131859
0.00134729
0.00134729
0.00132065
0.00132065
0.00134729
0.00132065
0.00132065
0.00134932
0.00131859
0.00134729
0.00132065
0.00132065
0.00131859
0.0013138
0.0012831
0.00131178
0.00131178
0.00128516
0.00128516
0.0013138
0.0012831
0.00131178
0.00131178
0.00128516
0.00128516
0.00131178
0.00128516
0.00128516
0.0013138
0.0012831
0.00131178
0.00128516
0.00128516
0.0012831
0.00127831
0.00124764
0.00127629
0.00127629
0.0012497
0.0012497
0.00127831
0.00124764
0.00127629
0.00127629
0.0012497
0.0012497
0.0012763
0.0012497
0.0012497
0.00127831
0.00124764
0.0012763
0.0012497
0.0012497
0.00124764
0.00124285
0.0012122
0.00124084
0.00124084
0.00121426
0.00121426
0.00124285
0.0012122
0.00124084
0.00124084
0.00121426
0.00121426
0.00124084
0.00121426
0.00121426
0.00124285
0.0012122
0.00124084
0.00121426
0.00121426
0.0012122
0.00120741
0.00117678
0.0012054
0.0012054
0.00117884
0.00117884
0.00120741
0.00117678
0.0012054
0.0012054
0.00117884
0.00117884
0.0012054
0.00117884
0.00117884
0.00120741
0.00117678
0.0012054
0.00117884
0.00117884
0.00117678
0.00117199
0.00114138
0.00116999
0.00116999
0.00114343
0.00114343
0.00117199
0.00114138
0.00116999
0.00116999
0.00114343
0.00114343
0.00116999
0.00114343
0.00114343
0.00117199
0.00114138
0.00116999
0.00114343
0.00114343
0.00114138
0.00113659
0.00110599
0.00113458
0.00113458
0.00110804
0.00110804
0.00113659
0.00110599
0.00113458
0.00113458
0.00110804
0.00110804
0.00113458
0.00110804
0.00110804
0.00113659
0.00110599
0.00113458
0.00110804
0.00110804
0.00110599
0.0011012
0.0010706
0.00109919
0.00109919
0.00107265
0.00107265
0.0011012
0.0010706
0.00109919
0.00109919
0.00107265
0.00107265
0.00109919
0.00107265
0.00107265
0.0011012
0.0010706
0.00109919
0.00107265
0.00107265
0.0010706
0.00106581
0.00103522
0.0010638
0.0010638
0.00103727
0.00103727
0.00106581
0.00103522
0.0010638
0.0010638
0.00103727
0.00103727
0.0010638
0.00103727
0.00103727
0.00106581
0.00103522
0.0010638
0.00103727
0.00103727
0.00103522
0.00103043
0.000999829
0.00102842
0.00102842
0.00100187
0.00100188
0.00103042
0.000999829
0.00102842
0.00102842
0.00100187
0.00100188
0.00102842
0.00100188
0.00100188
0.00103043
0.000999829
0.00102842
0.00100188
0.00100188
0.000999829
0.000995033
0.000964448
0.000993026
0.000993027
0.000966495
0.000966495
0.000995033
0.000964449
0.000993026
0.000993026
0.000966495
0.000966494
0.000993027
0.000966495
0.000966495
0.000995033
0.000964448
0.000993026
0.000966494
0.000966494
0.000964448
0.000959649
0.000929048
0.000957648
0.000957648
0.000931088
0.000931088
0.000959649
0.000929048
0.000957648
0.000957647
0.000931089
0.000931089
0.000957647
0.000931088
0.000931088
0.000959649
0.000929048
0.000957647
0.000931089
0.000931089
0.000929048
0.000924249
0.000893645
0.00092224
0.00092224
0.000895693
0.000895694
0.000924249
0.000893646
0.00092224
0.000922241
0.000895693
0.000895693
0.00092224
0.000895695
0.000895695
0.000924249
0.000893644
0.00092224
0.000895693
0.000895694
0.000893645
0.000888838
0.000858228
0.000886836
0.000886837
0.000860263
0.000860262
0.000888838
0.000858227
0.000886836
0.000886835
0.000860263
0.000860263
0.000886837
0.000860261
0.000860261
0.000888837
0.000858228
0.000886836
0.000860262
0.000860261
0.000858227
0.000853425
0.000822787
0.000851414
0.000851414
0.000824844
0.000824845
0.000853424
0.000822789
0.000851414
0.000851415
0.000824844
0.000824844
0.000851413
0.000824846
0.000824848
0.000853425
0.000822788
0.000851414
0.000824846
0.000824848
0.00082279
0.000817967
0.000787337
0.000815964
0.000815965
0.000789368
0.000789367
0.000817968
0.000787335
0.000815964
0.000815964
0.000789369
0.000789368
0.000815967
0.000789366
0.000789365
0.000817967
0.000787335
0.000815966
0.000789366
0.000789365
0.000787333
0.000782531
0.000751872
0.000780516
0.000780516
0.000753933
0.000753936
0.000782529
0.000751877
0.000780516
0.000780516
0.000753933
0.000753934
0.000780514
0.000753937
0.000753939
0.00078253
0.000751875
0.000780514
0.000753936
0.000753938
0.000751879
0.000747036
0.000716337
0.000745033
0.000745036
0.000718378
0.000718376
0.000747039
0.000716334
0.000745032
0.000745034
0.000718379
0.000718378
0.000745039
0.000718375
0.000718374
0.000747039
0.000716335
0.000745039
0.000718376
0.000718375
0.000716332
0.000711529
0.000680926
0.000709523
0.00070952
0.000682953
0.000682952
0.000711525
0.000680928
0.000709524
0.000709522
0.000682952
0.000682952
0.000709517
0.000682953
0.000682952
0.000711526
0.000680927
0.000709518
0.000682953
0.000682952
0.000680928
0.000676083
0.000645232
0.000674051
0.000674055
0.000647287
0.000647288
0.000676088
0.000645233
0.000674051
0.000674053
0.000647287
0.000647288
0.000674058
0.000647288
0.000647289
0.000676086
0.000645232
0.000674057
0.000647288
0.000647289
0.000645233
0.000640416
0.000609872
0.000638423
0.000638422
0.0006119
0.000611897
0.000640416
0.000609868
0.000638423
0.000638423
0.0006119
0.000611899
0.000638421
0.000611896
0.000611895
0.000640416
0.000609869
0.000638422
0.000611897
0.000611895
0.000609866
0.000605028
0.000573965
0.000602991
0.000602989
0.000576027
0.000576029
0.000605025
0.000573968
0.00060299
0.000602989
0.000576027
0.000576028
0.000602988
0.00057603
0.00057603
0.000605026
0.000573966
0.000602988
0.000576028
0.00057603
0.000573969
0.000569112
0.000538939
0.000567104
0.000567106
0.000540916
0.000540915
0.000569115
0.000538938
0.000567105
0.000567105
0.000540916
0.000540916
0.000567107
0.000540914
0.000540914
0.000569114
0.000538939
0.000567107
0.000540916
0.000540915
0.000538937
0.000534214
0.000502729
0.000532211
0.000532209
0.000504904
0.000504905
0.000534212
0.000502731
0.00053221
0.000532211
0.000504903
0.000504902
0.000532209
0.000504905
0.000504905
0.000534213
0.000502727
0.000532209
0.000504902
0.000504904
0.00050273
0.000497655
0.000466518
0.000495598
0.000495599
0.000468321
0.000468322
0.000497657
0.00046652
0.000495597
0.000495596
0.000468321
0.00046832
0.000495599
0.000468322
0.00046832
0.000497654
0.000466515
0.000495598
0.000468318
0.000468319
0.000466516
0.000462006
0.000434077
0.000460014
0.000460016
0.000435772
0.000435773
0.000462008
0.00043408
0.000460014
0.000460014
0.000435767
0.000435767
0.000460014
0.000435773
0.000435776
0.000462005
0.000434075
0.000460014
0.000435766
0.000435771
0.00043408
0.00042959
0.000397179
0.000427595
0.000427595
0.00039973
0.000399728
0.000429592
0.000397179
0.00042759
0.00042759
0.000399728
0.000399726
0.000427597
0.00039973
0.000399729
0.000429587
0.000397176
0.000427594
0.000399727
0.000399729
0.000397177
0.000391877
0.000357338
0.000389964
0.000389961
0.000359705
0.000359709
0.000391876
0.000357343
0.000389963
0.00038996
0.000359704
0.000359704
0.000389963
0.000359708
0.000359707
0.000391874
0.000357337
0.00038996
0.000359704
0.000359709
0.000357342
0.000352207
0.000322366
0.00034995
0.000349958
0.000323722
0.000323722
0.000352211
0.000322364
0.000349952
0.000349953
0.000323722
0.000323723
0.000349952
0.000323719
0.000323721
0.000352206
0.000322365
0.000349956
0.000323721
0.000323721
0.000322363
0.000317766
0.000289866
0.000315374
0.000315376
0.000291306
0.000291296
0.000317764
0.000289866
0.000315376
0.000315377
0.000291296
0.000291295
0.000315374
0.000291302
0.000291304
0.000317765
0.000289864
0.000315375
0.000291292
0.000291294
0.000289865
0.000285642
0.000257392
0.000283667
0.000283662
0.00025993
0.000259931
0.00028565
0.000257394
0.000283659
0.000283663
0.00025993
0.000259931
0.000283663
0.000259932
0.000259931
0.000285646
0.000257394
0.000283659
0.000259932
0.000259932
0.000257394
0.000253041
0.00022397
0.000251851
0.000251852
0.000226463
0.000226461
0.000253042
0.000223974
0.000251852
0.000251854
0.00022646
0.000226463
0.000251853
0.000226464
0.000226461
0.000253046
0.000223974
0.000251854
0.000226467
0.000226463
0.000223971
0.000218956
0.000184762
0.000217269
0.000217269
0.000187075
0.000187078
0.00021896
0.000184763
0.00021727
0.000217269
0.000187078
0.000187077
0.000217268
0.000187075
0.000187074
0.00021896
0.000184761
0.00021727
0.000187078
0.000187079
0.000184762
0.000179202
0.000144342
0.000176681
0.000176682
0.000146125
0.000146125
0.000179202
0.000144344
0.000176682
0.000176682
0.000146123
0.000146125
0.000176681
0.000146125
0.000146125
0.000179201
0.000144342
0.000176682
0.000146123
0.000146124
0.000144343
0.00013883
0.000105195
0.000136084
0.000136084
0.000107029
0.000107029
0.000138831
0.000105194
0.000136081
0.000136083
0.000107029
0.000107029
0.000136084
0.000107028
0.00010703
0.00013883
0.000105194
0.000136082
0.000107028
0.000107029
0.000105195
0.000100153
6.98276e-05
9.78391e-05
9.78355e-05
7.1695e-05
7.16958e-05
0.000100149
6.98284e-05
9.78393e-05
9.78393e-05
7.16942e-05
7.16953e-05
9.78393e-05
7.16953e-05
7.16954e-05
0.000100152
6.98274e-05
9.78359e-05
7.1693e-05
7.16924e-05
6.98274e-05
6.52715e-05
3.69097e-05
6.3429e-05
6.34261e-05
3.89366e-05
3.89368e-05
6.52701e-05
3.69103e-05
6.34276e-05
6.34279e-05
3.89345e-05
3.89325e-05
6.34278e-05
3.89346e-05
3.89327e-05
6.52717e-05
3.69072e-05
6.3425e-05
3.89324e-05
3.89322e-05
3.69061e-05
3.24303e-05
7.61244e-06
3.09423e-05
3.09418e-05
1.03722e-05
1.03714e-05
3.2429e-05
7.61154e-06
3.09396e-05
3.09369e-05
1.03734e-05
1.03663e-05
3.09366e-05
1.0371e-05
1.03644e-05
3.24275e-05
7.60727e-06
3.09355e-05
1.03689e-05
1.0369e-05
7.60654e-06
4.79917e-06
6.38224e-06
6.38142e-06
4.79896e-06
6.3832e-06
6.37746e-06
5.62308e-06
5.62254e-06
5.62145e-06
6.37675e-06
4.79576e-06
6.38012e-06
0.00362172
0.00363148
0.00362628
0.00362628
0.00364866
0.00363544
0.00366405
0.00362949
0.00364866
0.00363545
0.00362949
0.00366405
0.00364002
0.00366779
0.00366779
0.00357708
0.00359622
0.00360541
0.00356916
0.0035699
0.00357267
0.00357706
0.0035962
0.00360541
0.00356914
0.00359994
0.00359994
0.00359994
0.00355653
0.00355653
0.00355653
0.00355653
0.00357458
0.0036004
0.00360034
0.0035834
0.00360343
0.00357348
0.00358429
0.00357
0.00357266
0.00357458
0.00360034
0.00360041
0.00358341
0.00360342
0.00358429
0.00357348
0.00360628
0.00360626
0.00357781
0.00357312
0.00357311
0.00353045
0.00354972
0.00355109
0.00352898
0.00354863
0.00352854
0.00353044
0.00354972
0.00355108
0.00352898
0.00354458
0.00354458
0.00354458
0.00350699
0.00350699
0.00350699
0.00350699
0.00352903
0.0035498
0.00354458
0.00353271
0.00354859
0.00352957
0.00353244
0.00354863
0.00352853
0.00352903
0.00354458
0.0035498
0.00353271
0.00354859
0.00353244
0.00352957
0.00355082
0.00355082
0.00352926
0.0035299
0.00352991
0.00347818
0.00349698
0.00349806
0.00347716
0.00349662
0.00347687
0.00347818
0.00349698
0.00349806
0.00347716
0.00349383
0.00349383
0.00349383
0.00345445
0.00345445
0.00345445
0.00345445
0.00347728
0.00349738
0.0034937
0.00348066
0.00349682
0.00347764
0.00348056
0.00349662
0.00347687
0.00347728
0.0034937
0.00349738
0.00348066
0.00349682
0.00348056
0.00347764
0.00349763
0.00349763
0.00347727
0.00347771
0.00347771
0.00342565
0.00344431
0.00344517
0.00342488
0.0034441
0.00342471
0.00342565
0.00344431
0.00344517
0.00342488
0.00344144
0.00344144
0.00344144
0.00340281
0.00340281
0.00340281
0.00340281
0.00342515
0.00344472
0.0034414
0.0034285
0.00344443
0.00342533
0.00342846
0.0034441
0.0034247
0.00342514
0.0034414
0.00344472
0.0034285
0.00344443
0.00342846
0.00342533
0.00344475
0.00344475
0.00342519
0.00342527
0.00342527
0.00337446
0.00339281
0.00339344
0.0033739
0.00339267
0.00337377
0.00337446
0.00339281
0.00339344
0.0033739
0.00339009
0.00339009
0.00339009
0.00335247
0.00335246
0.00335246
0.00335247
0.00337419
0.00339316
0.00339007
0.00337746
0.00339299
0.00337429
0.00337744
0.00339267
0.00337377
0.00337419
0.00339007
0.00339316
0.00337746
0.00339299
0.00337744
0.00337429
0.00339315
0.00339315
0.00337426
0.0033742
0.0033742
0.00332481
0.00334276
0.00334322
0.00332442
0.00334265
0.00332429
0.00332481
0.00334276
0.00334322
0.00332442
0.00334011
0.00334011
0.00334011
0.00330359
0.00330359
0.00330359
0.00330359
0.00332469
0.00334306
0.0033401
0.00332786
0.00334295
0.00332476
0.00332783
0.00334264