/*--------------------------------*- C++ -*----------------------------------*\
| =========                 |                                                 |
| \\      /  F ield         | OpenFOAM: The Open Source CFD Toolbox           |
|  \\    /   O peration     | Version:  v2012                                 |
|   \\  /    A nd           | Website:  www.openfoam.com                      |
|    \\/     M anipulation  |                                                 |
\*---------------------------------------------------------------------------*/
FoamFile
{
    version     2.0;
    format      ascii;
    class       volScalarField;
    location    "87.5";
    object      epsilon;
}
// * * * * * * * * * * * * * * * * * * * * * * * * * * * * * * * * * * * * * //

dimensions      [0 2 -3 0 0 0 0];


internalField   nonuniform List<scalar> 
171728
(
9.25509e-08
1.51787e-08
1.33883e-08
7.96094e-09
9.39566e-08
1.58275e-08
1.43993e-08
7.8165e-09
9.74542e-08
1.68048e-08
1.59594e-08
7.90611e-09
1.00893e-07
1.81097e-08
1.78489e-08
7.9001e-09
1.04265e-07
1.96617e-08
2.01037e-08
7.63921e-09
1.0756e-07
2.17378e-08
2.28407e-08
7.7479e-09
1.10885e-07
2.46395e-08
2.61325e-08
8.64999e-09
1.14279e-07
2.83228e-08
3.01979e-08
1.01245e-08
1.17746e-07
3.30053e-08
3.51765e-08
1.26454e-08
1.21382e-07
3.91595e-08
4.13289e-08
1.67693e-08
1.25217e-07
4.65358e-08
4.85535e-08
2.23478e-08
1.28918e-07
5.49256e-08
5.68384e-08
2.91928e-08
1.33236e-07
6.51732e-08
6.70373e-08
3.83942e-08
1.37892e-07
7.69932e-08
7.88661e-08
5.11346e-08
1.43868e-07
9.1703e-08
9.33553e-08
6.89174e-08
1.51201e-07
1.1011e-07
1.11199e-07
9.46026e-08
1.60737e-07
1.35709e-07
1.36339e-07
1.35921e-07
1.73809e-07
1.74831e-07
1.7543e-07
2.06235e-07
1.92145e-07
2.32276e-07
2.32549e-07
3.07991e-07
2.11552e-07
2.9451e-07
2.94589e-07
4.096e-07
2.30555e-07
3.48709e-07
3.48764e-07
4.85057e-07
2.4335e-07
3.78328e-07
3.78379e-07
5.20443e-07
2.48354e-07
3.87339e-07
3.87389e-07
5.28966e-07
2.49596e-07
3.89121e-07
3.89169e-07
5.30424e-07
2.49828e-07
3.89417e-07
3.89464e-07
5.30706e-07
2.4987e-07
3.89464e-07
3.89511e-07
5.30703e-07
2.4988e-07
3.89477e-07
3.89523e-07
5.30707e-07
2.49887e-07
3.89484e-07
3.89531e-07
5.30719e-07
2.49891e-07
3.8949e-07
3.89536e-07
5.3072e-07
2.49895e-07
3.89493e-07
3.89539e-07
5.30723e-07
2.49899e-07
3.89495e-07
3.8954e-07
5.30726e-07
2.49901e-07
3.89495e-07
3.8954e-07
5.3072e-07
2.49903e-07
3.89494e-07
3.8954e-07
5.3072e-07
2.49904e-07
3.89495e-07
3.8954e-07
5.30723e-07
2.49904e-07
3.89495e-07
3.8954e-07
5.30717e-07
2.49904e-07
3.89496e-07
3.8954e-07
5.30723e-07
2.49904e-07
3.89495e-07
3.89539e-07
5.30741e-07
2.49904e-07
3.89495e-07
3.89539e-07
5.30757e-07
2.49904e-07
3.89495e-07
3.89539e-07
5.30769e-07
2.49904e-07
3.89495e-07
3.8954e-07
5.30783e-07
2.49904e-07
3.89494e-07
3.8954e-07
5.30793e-07
2.49905e-07
3.89493e-07
3.8954e-07
5.30798e-07
2.49905e-07
3.89491e-07
3.8954e-07
5.30808e-07
2.49905e-07
3.89491e-07
3.8954e-07
5.3081e-07
2.49904e-07
3.8949e-07
3.8954e-07
5.30804e-07
2.49905e-07
3.8949e-07
3.8954e-07
5.30803e-07
2.49905e-07
3.89491e-07
3.8954e-07
5.30805e-07
2.49905e-07
3.89491e-07
3.8954e-07
5.30807e-07
2.49904e-07
3.89491e-07
3.8954e-07
5.30807e-07
2.49904e-07
3.89492e-07
3.8954e-07
5.30806e-07
2.49905e-07
3.89492e-07
3.8954e-07
5.30806e-07
2.49905e-07
3.89492e-07
3.8954e-07
5.30806e-07
2.49904e-07
3.89492e-07
3.8954e-07
5.30812e-07
2.49904e-07
3.89492e-07
3.8954e-07
5.30812e-07
2.49904e-07
3.89492e-07
3.8954e-07
5.30804e-07
2.49904e-07
3.89492e-07
3.8954e-07
5.308e-07
2.49904e-07
3.89492e-07
3.8954e-07
5.30802e-07
2.49905e-07
3.89492e-07
3.8954e-07
5.30806e-07
2.49905e-07
3.89492e-07
3.8954e-07
5.30809e-07
2.49905e-07
3.89493e-07
3.89541e-07
5.30808e-07
2.49905e-07
3.89493e-07
3.89541e-07
5.30806e-07
2.49905e-07
3.89492e-07
3.8954e-07
5.3081e-07
2.49905e-07
3.89492e-07
3.89541e-07
5.30809e-07
2.49905e-07
3.89493e-07
3.89541e-07
5.30803e-07
2.49905e-07
3.89493e-07
3.8954e-07
5.308e-07
2.49905e-07
3.89492e-07
3.8954e-07
5.30801e-07
2.49905e-07
3.89492e-07
3.89539e-07
5.30803e-07
2.49904e-07
3.89492e-07
3.89539e-07
5.30806e-07
2.49904e-07
3.89492e-07
3.89539e-07
5.30806e-07
2.49905e-07
3.89492e-07
3.89539e-07
5.30806e-07
2.49905e-07
3.89492e-07
3.89539e-07
5.30813e-07
2.49905e-07
3.89492e-07
3.89539e-07
5.3081e-07
2.49906e-07
3.89492e-07
3.89539e-07
5.30799e-07
2.49905e-07
3.89492e-07
3.89539e-07
5.30801e-07
2.49905e-07
3.89492e-07
3.89539e-07
5.30804e-07
2.49905e-07
3.89493e-07
3.8954e-07
5.30801e-07
2.49906e-07
3.89494e-07
3.8954e-07
5.30806e-07
2.49906e-07
3.89495e-07
3.89541e-07
5.30809e-07
2.49907e-07
3.89496e-07
3.89541e-07
5.30804e-07
2.49907e-07
3.89497e-07
3.89542e-07
5.30799e-07
2.49908e-07
3.89496e-07
3.89542e-07
5.30801e-07
2.49909e-07
3.89497e-07
3.89542e-07
5.3081e-07
2.4991e-07
3.89498e-07
3.89543e-07
5.30812e-07
2.49911e-07
3.89499e-07
3.89544e-07
5.30806e-07
2.49911e-07
3.895e-07
3.89546e-07
5.30801e-07
2.49912e-07
3.89501e-07
3.89546e-07
5.30803e-07
2.49913e-07
3.89501e-07
3.89547e-07
5.3081e-07
2.49914e-07
3.89501e-07
3.89547e-07
5.30811e-07
2.49915e-07
3.89501e-07
3.89547e-07
5.30803e-07
2.49917e-07
3.89498e-07
3.89545e-07
5.30794e-07
2.49919e-07
3.89492e-07
3.89538e-07
5.30795e-07
2.4992e-07
3.8948e-07
3.89526e-07
5.30785e-07
2.49919e-07
3.89451e-07
3.89495e-07
5.30749e-07
2.49852e-07
3.89395e-07
3.89437e-07
5.3056e-07
2.46261e-07
3.71835e-07
3.71842e-07
5.07363e-07
7.65883e-09
1.12417e-08
1.01141e-08
7.9596e-09
9.25744e-09
8.90302e-09
9.42245e-08
9.40473e-08
9.41597e-08
9.4752e-08
1.08038e-08
1.14869e-08
7.22801e-09
9.83131e-09
1.51873e-08
8.0665e-09
7.59851e-09
7.4818e-09
1.53171e-08
1.32415e-08
1.60224e-08
1.38127e-08
7.87347e-09
7.55951e-09
1.18387e-08
1.20652e-08
1.27005e-08
1.28048e-08
1.60568e-08
1.56168e-08
1.68617e-08
7.11828e-09
6.60477e-09
2.54177e-08
1.40746e-08
2.63255e-08
7.88563e-09
7.44378e-09
7.50493e-09
1.63599e-08
1.41049e-08
1.7466e-08
1.53867e-08
7.46831e-09
7.35676e-09
1.30948e-08
1.31545e-08
1.43919e-08
1.43302e-08
1.72502e-08
1.65672e-08
1.85262e-08
6.49434e-09
6.27958e-09
2.66807e-08
1.55646e-08
2.7395e-08
7.98152e-09
7.46988e-09
7.65843e-09
1.78515e-08
1.57629e-08
1.91119e-08
1.69363e-08
7.30683e-09
7.2766e-09
1.48535e-08
1.47592e-08
1.63371e-08
1.62295e-08
1.89784e-08
1.78231e-08
2.04368e-08
6.21006e-09
6.24813e-09
2.75393e-08
1.73714e-08
2.76863e-08
8.00766e-09
7.62532e-09
7.99324e-09
1.95563e-08
1.73904e-08
2.09691e-08
1.89521e-08
7.21162e-09
7.321e-09
1.68542e-08
1.67323e-08
1.85322e-08
1.84236e-08
2.09368e-08
1.92417e-08
2.2573e-08
6.2101e-09
6.62884e-09
2.75909e-08
1.95193e-08
2.5783e-08
7.76773e-09
7.96116e-09
8.56629e-09
2.14555e-08
1.95023e-08
2.30762e-08
2.14355e-08
7.28092e-09
7.78833e-09
1.91254e-08
1.9001e-08
2.1036e-08
2.09077e-08
2.31236e-08
2.11616e-08
2.49484e-08
6.60336e-09
7.36436e-09
2.51511e-08
2.21311e-08
2.41553e-08
7.78954e-09
8.54634e-09
9.49472e-09
2.36835e-08
2.21496e-08
2.55435e-08
2.45066e-08
7.76251e-09
8.67483e-09
2.1723e-08
2.15937e-08
2.40927e-08
2.3854e-08
2.5568e-08
2.38295e-08
2.7648e-08
7.35253e-09
8.51913e-09
2.41035e-08
2.52489e-08
2.45398e-08
8.65617e-09
9.48985e-09
1.0898e-08
2.61434e-08
2.53994e-08
2.81548e-08
2.82601e-08
8.67144e-09
1.02878e-08
2.49429e-08
2.47358e-08
2.76301e-08
2.73432e-08
2.83903e-08
2.73248e-08
3.02448e-08
8.52991e-09
1.02867e-08
2.53403e-08
2.90846e-08
2.81299e-08
1.00984e-08
1.09534e-08
1.34058e-08
2.90125e-08
2.93803e-08
3.20574e-08
3.3071e-08
1.03541e-08
1.30321e-08
2.87008e-08
2.83703e-08
3.22126e-08
3.20455e-08
3.08903e-08
3.17466e-08
3.30888e-08
1.03556e-08
1.31045e-08
2.92105e-08
3.3872e-08
3.27372e-08
1.24985e-08
1.35455e-08
1.72251e-08
3.32775e-08
3.43755e-08
3.76239e-08
3.87915e-08
1.3195e-08
1.71925e-08
3.34833e-08
3.32468e-08
3.78646e-08
3.77405e-08
3.39245e-08
3.75288e-08
3.75626e-08
1.32633e-08
1.72486e-08
3.40157e-08
3.97239e-08
3.82851e-08
1.6497e-08
1.74819e-08
2.25024e-08
3.9202e-08
4.03592e-08
4.45019e-08
4.5442e-08
1.74626e-08
2.25645e-08
3.9447e-08
3.9479e-08
4.47062e-08
4.49057e-08
3.9052e-08
4.45416e-08
4.40622e-08
1.75218e-08
2.27097e-08
3.98214e-08
4.66172e-08
4.51012e-08
2.19756e-08
2.28558e-08
2.90514e-08
4.65005e-08
4.73798e-08
5.2661e-08
5.3403e-08
2.29183e-08
2.91813e-08
4.67034e-08
4.68844e-08
5.27483e-08
5.2941e-08
4.60535e-08
5.27242e-08
5.22429e-08
2.3063e-08
2.93251e-08
4.70692e-08
5.46291e-08
5.29905e-08
2.86977e-08
2.95358e-08
3.79269e-08
5.49317e-08
5.56051e-08
6.25944e-08
6.31818e-08
2.96722e-08
3.80563e-08
5.49582e-08
5.51494e-08
6.27014e-08
6.27935e-08
5.44483e-08
6.25696e-08
6.20394e-08
2.98148e-08
3.82179e-08
5.51591e-08
6.44244e-08
6.26465e-08
3.76429e-08
3.8673e-08
4.94894e-08
6.52234e-08
6.58029e-08
7.38183e-08
7.42771e-08
3.87962e-08
4.95823e-08
6.53844e-08
6.54412e-08
7.39097e-08
7.39486e-08
6.47007e-08
7.37288e-08
7.34005e-08
3.90015e-08
4.98652e-08
6.52647e-08
7.56372e-08
7.37918e-08
4.92799e-08
5.13651e-08
6.58335e-08
7.70933e-08
7.75113e-08
8.78866e-08
8.82357e-08
5.14597e-08
6.58939e-08
7.71861e-08
7.72205e-08
8.8137e-08
8.80945e-08
7.67084e-08
8.78355e-08
8.7612e-08
5.18309e-08
6.62679e-08
7.70681e-08
8.95522e-08
8.79196e-08
6.56963e-08
6.90467e-08
8.96096e-08
9.17603e-08
9.20909e-08
1.04961e-07
1.05144e-07
6.91068e-08
8.9684e-08
9.20245e-08
9.19725e-08
1.05098e-07
1.05082e-07
9.15367e-08
1.04975e-07
1.04838e-07
6.95038e-08
9.00664e-08
9.18064e-08
1.06256e-07
1.05004e-07
8.95445e-08
9.46442e-08
1.27246e-07
1.10097e-07
1.10224e-07
1.28325e-07
1.28335e-07
9.473e-08
1.27386e-07
1.10201e-07
1.10197e-07
1.28479e-07
1.28422e-07
1.09987e-07
1.28372e-07
1.28201e-07
9.5112e-08
1.27547e-07
1.10143e-07
1.29036e-07
1.28357e-07
1.27314e-07
1.35881e-07
1.92036e-07
1.35689e-07
1.35683e-07
1.63311e-07
1.63272e-07
1.35993e-07
1.91883e-07
1.35884e-07
1.35804e-07
1.63522e-07
1.63477e-07
1.35555e-07
1.63296e-07
1.63159e-07
1.36113e-07
1.92285e-07
1.35708e-07
1.63931e-07
1.63281e-07
1.918e-07
2.065e-07
2.89028e-07
1.74875e-07
1.74839e-07
2.16874e-07
2.16858e-07
2.06319e-07
2.88907e-07
1.75059e-07
1.75048e-07
2.16948e-07
2.17009e-07
1.74735e-07
2.16827e-07
2.16794e-07
2.06785e-07
2.89298e-07
1.74839e-07
2.17184e-07
2.16838e-07
2.88877e-07
3.08115e-07
3.92883e-07
2.32338e-07
2.32334e-07
2.79191e-07
2.792e-07
3.08013e-07
3.92843e-07
2.32383e-07
2.32458e-07
2.7917e-07
2.79262e-07
2.3228e-07
2.79122e-07
2.79168e-07
3.08344e-07
3.92971e-07
2.32305e-07
2.79226e-07
2.79146e-07
3.92877e-07
4.096e-07
4.73442e-07
2.94593e-07
2.94608e-07
3.37121e-07
3.37143e-07
4.09563e-07
4.73401e-07
2.94563e-07
2.94658e-07
3.37074e-07
3.37174e-07
2.94579e-07
3.3703e-07
3.37119e-07
4.0967e-07
4.73484e-07
2.94548e-07
3.37087e-07
3.3707e-07
4.73474e-07
4.8503e-07
5.15688e-07
3.48808e-07
3.48835e-07
3.73499e-07
3.73528e-07
4.84988e-07
5.15635e-07
3.48762e-07
3.48861e-07
3.7345e-07
3.73547e-07
3.48812e-07
3.73401e-07
3.73506e-07
4.85065e-07
5.15713e-07
3.48759e-07
3.73452e-07
3.73451e-07
5.15725e-07
5.20409e-07
5.27129e-07
3.78431e-07
3.78461e-07
3.86283e-07
3.86313e-07
5.20356e-07
5.27077e-07
3.78381e-07
3.78477e-07
3.86232e-07
3.86325e-07
3.7844e-07
3.86182e-07
3.86294e-07
5.2043e-07
5.27146e-07
3.78384e-07
3.86232e-07
3.8624e-07
5.27169e-07
5.2893e-07
5.2916e-07
3.87442e-07
3.87472e-07
3.89019e-07
3.8905e-07
5.28879e-07
5.29106e-07
3.87391e-07
3.87484e-07
3.8897e-07
3.89061e-07
3.87453e-07
3.88919e-07
3.8903e-07
5.28941e-07
5.29171e-07
3.87399e-07
3.88967e-07
3.88977e-07
5.29195e-07
5.30393e-07
5.29534e-07
3.89223e-07
3.89254e-07
3.89485e-07
3.89518e-07
5.3034e-07
5.2948e-07
3.89175e-07
3.89264e-07
3.89437e-07
3.89527e-07
3.89233e-07
3.89385e-07
3.89493e-07
5.30399e-07
5.29544e-07
3.89182e-07
3.89432e-07
3.89444e-07
5.29564e-07
5.3068e-07
5.29538e-07
3.89518e-07
3.89551e-07
3.89559e-07
3.89593e-07
5.30627e-07
5.29485e-07
3.8947e-07
3.89559e-07
3.89511e-07
3.89601e-07
3.89524e-07
3.89459e-07
3.89563e-07
5.30685e-07
5.29548e-07
3.89476e-07
3.89505e-07
3.89516e-07
5.29562e-07
5.30682e-07
5.29544e-07
3.89565e-07
3.89598e-07
3.89575e-07
3.89609e-07
5.30631e-07
5.29491e-07
3.89517e-07
3.89607e-07
3.89528e-07
3.89617e-07
3.89568e-07
3.89475e-07
3.89577e-07
5.30688e-07
5.29555e-07
3.89522e-07
3.89522e-07
3.89531e-07
5.29565e-07
5.30689e-07
5.29556e-07
3.89577e-07
3.89612e-07
3.89582e-07
3.89618e-07
5.30638e-07
5.29503e-07
3.8953e-07
3.8962e-07
3.89536e-07
3.89625e-07
3.8958e-07
3.89483e-07
3.89585e-07
5.30695e-07
5.29567e-07
3.89534e-07
3.89529e-07
3.8954e-07
5.29579e-07
5.30699e-07
5.29556e-07
3.89583e-07
3.8962e-07
3.89585e-07
3.89624e-07
5.30648e-07
5.29505e-07
3.89538e-07
3.89628e-07
3.89542e-07
3.89631e-07
3.89587e-07
3.89489e-07
3.8959e-07
5.30706e-07
5.29568e-07
3.89542e-07
3.89535e-07
3.89546e-07
5.29579e-07
5.30701e-07
5.2956e-07
3.89587e-07
3.89626e-07
3.89587e-07
3.89628e-07
5.30651e-07
5.29511e-07
3.89544e-07
3.89633e-07
3.89546e-07
3.89635e-07
3.89592e-07
3.89493e-07
3.89593e-07
5.30708e-07
5.29573e-07
3.89548e-07
3.89538e-07
3.89549e-07
5.29584e-07
5.30703e-07
5.2956e-07
3.89588e-07
3.8963e-07
3.89587e-07
3.8963e-07
5.30655e-07
5.29512e-07
3.89547e-07
3.89636e-07
3.89548e-07
3.89637e-07
3.89594e-07
3.89494e-07
3.89594e-07
5.30712e-07
5.29575e-07
3.8955e-07
3.8954e-07
3.8955e-07
5.29585e-07
5.30704e-07
5.29561e-07
3.89587e-07
3.8963e-07
3.89587e-07
3.89631e-07
5.30657e-07
5.29512e-07
3.89549e-07
3.89637e-07
3.89549e-07
3.89637e-07
3.89595e-07
3.89495e-07
3.89594e-07
5.30713e-07
5.29575e-07
3.89551e-07
3.8954e-07
3.8955e-07
5.29578e-07
5.30705e-07
5.29558e-07
3.89587e-07
3.89632e-07
3.89586e-07
3.89633e-07
5.30658e-07
5.29505e-07
3.8955e-07
3.89638e-07
3.89549e-07
3.89637e-07
3.89595e-07
3.89495e-07
3.89594e-07
5.30715e-07
5.29571e-07
3.89551e-07
3.8954e-07
3.89551e-07
5.29582e-07
5.30702e-07
5.29556e-07
3.89586e-07
3.89634e-07
3.89585e-07
3.89636e-07
5.30651e-07
5.29506e-07
3.8955e-07
3.89638e-07
3.8955e-07
3.89637e-07
3.89595e-07
3.89495e-07
3.89595e-07
5.3071e-07
5.29574e-07
3.89551e-07
3.8954e-07
3.89551e-07
5.29585e-07
5.30696e-07
5.29569e-07
3.89586e-07
3.89636e-07
3.89585e-07
3.89637e-07
5.30647e-07
5.29522e-07
3.89551e-07
3.89638e-07
3.89551e-07
3.89637e-07
3.89595e-07
3.89495e-07
3.89595e-07
5.30708e-07
5.29585e-07
3.89551e-07
3.8954e-07
3.89551e-07
5.29583e-07
5.30706e-07
5.29574e-07
3.89585e-07
3.89637e-07
3.89585e-07
3.89637e-07
5.30662e-07
5.29519e-07
3.89551e-07
3.89638e-07
3.8955e-07
3.89637e-07
3.89595e-07
3.89495e-07
3.89594e-07
5.3072e-07
5.29584e-07
3.89552e-07
3.89539e-07
3.89551e-07
5.29596e-07
5.3072e-07
5.2956e-07
3.89586e-07
3.89637e-07
3.89585e-07
3.89636e-07
5.30671e-07
5.29501e-07
3.89551e-07
3.89638e-07
3.8955e-07
3.89637e-07
3.89595e-07
3.89495e-07
3.89595e-07
5.30727e-07
5.29571e-07
3.89551e-07
3.89539e-07
3.89551e-07
5.29612e-07
5.30714e-07
5.29551e-07
3.89586e-07
3.89637e-07
3.89585e-07
3.89637e-07
5.30659e-07
5.29494e-07
3.89551e-07
3.89637e-07
3.89551e-07
3.89637e-07
3.89595e-07
3.89495e-07
3.89595e-07
5.30719e-07
5.29564e-07
3.89551e-07
3.89539e-07
3.89551e-07
5.29622e-07
5.30703e-07
5.29553e-07
3.89585e-07
3.89637e-07
3.89585e-07
3.89637e-07
5.30646e-07
5.29498e-07
3.89551e-07
3.89637e-07
3.89551e-07
3.89637e-07
3.89595e-07
3.89495e-07
3.89595e-07
5.3071e-07
5.29566e-07
3.89551e-07
3.89539e-07
3.89551e-07
5.29628e-07
5.30701e-07
5.29554e-07
3.89585e-07
3.89637e-07
3.89584e-07
3.89637e-07
5.30646e-07
5.29501e-07
3.89551e-07
3.89638e-07
3.8955e-07
3.89637e-07
3.89595e-07
3.89495e-07
3.89595e-07
5.30709e-07
5.29569e-07
3.89551e-07
3.8954e-07
3.89551e-07
5.29635e-07
5.30701e-07
5.29557e-07
3.89585e-07
3.89638e-07
3.89582e-07
3.89636e-07
5.30649e-07
5.29506e-07
3.89551e-07
3.89638e-07
3.8955e-07
3.89637e-07
3.89595e-07
3.89494e-07
3.89595e-07
5.30711e-07
5.29569e-07
3.89553e-07
3.8954e-07
3.89551e-07
5.29639e-07
5.30699e-07
5.2956e-07
3.89584e-07
3.89635e-07
3.89584e-07
3.89633e-07
5.30653e-07
5.29509e-07
3.89552e-07
3.89637e-07
3.89552e-07
3.89637e-07
3.89595e-07
3.89493e-07
3.89594e-07
5.30712e-07
5.29569e-07
3.89552e-07
3.8954e-07
3.89551e-07
5.29643e-07
5.30703e-07
5.2956e-07
3.89584e-07
3.89633e-07
3.89583e-07
3.89632e-07
5.30654e-07
5.29508e-07
3.89553e-07
3.89638e-07
3.89552e-07
3.89637e-07
3.89595e-07
3.89491e-07
3.89594e-07
5.30713e-07
5.29568e-07
3.89552e-07
3.8954e-07
3.89551e-07
5.2965e-07
5.30705e-07
5.29559e-07
3.89584e-07
3.89632e-07
3.89584e-07
3.89631e-07
5.30653e-07
5.29507e-07
3.89553e-07
3.89638e-07
3.89552e-07
3.89637e-07
3.89595e-07
3.89491e-07
3.89594e-07
5.30712e-07
5.29567e-07
3.89552e-07
3.8954e-07
3.89551e-07
5.29648e-07
5.30704e-07
5.29559e-07
3.89585e-07
3.89632e-07
3.89584e-07
3.89631e-07
5.30654e-07
5.29506e-07
3.89553e-07
3.89638e-07
3.89552e-07
3.89638e-07
3.89595e-07
3.8949e-07
3.89595e-07
5.30711e-07
5.29568e-07
3.89552e-07
3.8954e-07
3.89552e-07
5.29643e-07
5.30704e-07
5.29561e-07
3.89585e-07
3.89631e-07
3.89586e-07
3.8963e-07
5.30654e-07
5.29505e-07
3.89553e-07
3.89638e-07
3.89552e-07
3.89638e-07
3.89595e-07
3.8949e-07
3.89594e-07
5.30711e-07
5.29568e-07
3.89552e-07
3.8954e-07
3.89551e-07
5.29645e-07
5.30706e-07
5.29562e-07
3.89587e-07
3.89631e-07
3.89587e-07
3.8963e-07
5.30652e-07
5.29506e-07
3.89553e-07
3.89639e-07
3.89551e-07
3.89638e-07
3.89595e-07
3.8949e-07
3.89595e-07
5.30711e-07
5.29567e-07
3.89552e-07
3.8954e-07
3.89551e-07
5.29648e-07
5.30707e-07
5.29562e-07
3.89589e-07
3.89631e-07
3.89589e-07
3.8963e-07
5.30653e-07
5.29506e-07
3.89552e-07
3.89639e-07
3.89551e-07
3.89638e-07
3.89595e-07
3.89491e-07
3.89594e-07
5.3071e-07
5.29568e-07
3.89552e-07
3.8954e-07
3.89551e-07
5.2965e-07
5.30708e-07
5.29562e-07
3.8959e-07
3.89631e-07
3.8959e-07
3.8963e-07
5.30653e-07
5.29506e-07
3.89552e-07
3.89639e-07
3.8955e-07
3.89638e-07
3.89595e-07
3.89491e-07
3.89594e-07
5.30711e-07
5.29569e-07
3.89552e-07
3.8954e-07
3.89551e-07
5.29649e-07
5.30708e-07
5.29562e-07
3.89591e-07
3.89631e-07
3.89592e-07
3.8963e-07
5.30653e-07
5.29508e-07
3.89551e-07
3.89638e-07
3.8955e-07
3.89637e-07
3.89595e-07
3.89491e-07
3.89594e-07
5.30712e-07
5.2957e-07
3.89552e-07
3.8954e-07
3.89551e-07
5.29649e-07
5.30708e-07
5.29562e-07
3.89593e-07
3.89631e-07
3.89593e-07
3.89631e-07
5.30654e-07
5.29509e-07
3.89551e-07
3.89638e-07
3.8955e-07
3.89637e-07
3.89595e-07
3.89492e-07
3.89594e-07
5.30713e-07
5.29569e-07
3.89552e-07
3.89541e-07
3.89551e-07
5.29648e-07
5.30708e-07
5.29562e-07
3.89594e-07
3.89632e-07
3.89593e-07
3.89631e-07
5.30655e-07
5.29509e-07
3.89551e-07
3.89638e-07
3.8955e-07
3.89637e-07
3.89595e-07
3.89492e-07
3.89594e-07
5.30713e-07
5.29567e-07
3.89551e-07
3.8954e-07
3.89551e-07
5.2965e-07
5.30708e-07
5.29564e-07
3.89594e-07
3.89632e-07
3.89594e-07
3.89631e-07
5.30656e-07
5.29509e-07
3.8955e-07
3.89638e-07
3.89549e-07
3.89637e-07
3.89595e-07
3.89492e-07
3.89594e-07
5.30711e-07
5.29567e-07
3.89551e-07
3.8954e-07
3.8955e-07
5.29654e-07
5.30709e-07
5.29565e-07
3.89595e-07
3.89632e-07
3.89594e-07
3.89631e-07
5.30656e-07
5.29509e-07
3.8955e-07
3.89638e-07
3.89549e-07
3.89637e-07
3.89595e-07
3.89492e-07
3.89594e-07
5.3071e-07
5.29568e-07
3.89551e-07
3.8954e-07
3.8955e-07
5.29649e-07
5.3071e-07
5.29564e-07
3.89595e-07
3.89632e-07
3.89595e-07
3.89631e-07
5.30656e-07
5.2951e-07
3.8955e-07
3.89638e-07
3.89549e-07
3.89637e-07
3.89595e-07
3.89492e-07
3.89594e-07
5.30711e-07
5.29568e-07
3.8955e-07
3.8954e-07
3.8955e-07
5.29641e-07
5.30709e-07
5.29565e-07
3.89596e-07
3.89631e-07
3.89595e-07
3.89631e-07
5.30656e-07
5.29509e-07
3.8955e-07
3.89638e-07
3.89549e-07
3.89637e-07
3.89595e-07
3.89492e-07
3.89594e-07
5.30711e-07
5.29568e-07
3.8955e-07
3.8954e-07
3.89549e-07
5.29642e-07
5.3071e-07
5.29566e-07
3.89596e-07
3.89631e-07
3.89595e-07
3.89631e-07
5.30656e-07
5.29509e-07
3.8955e-07
3.89638e-07
3.89549e-07
3.89637e-07
3.89595e-07
3.89491e-07
3.89595e-07
5.30711e-07
5.29569e-07
3.8955e-07
3.8954e-07
3.89549e-07
5.29646e-07
5.30712e-07
5.29565e-07
3.89596e-07
3.89632e-07
3.89595e-07
3.89631e-07
5.30656e-07
5.29509e-07
3.8955e-07
3.89638e-07
3.89549e-07
3.89637e-07
3.89595e-07
3.89492e-07
3.89595e-07
5.30712e-07
5.29568e-07
3.89549e-07
3.8954e-07
3.89548e-07
5.2965e-07
5.30711e-07
5.29565e-07
3.89596e-07
3.89632e-07
3.89596e-07
3.89631e-07
5.30656e-07
5.29508e-07
3.89549e-07
3.89638e-07
3.89548e-07
3.89637e-07
3.89595e-07
3.89492e-07
3.89595e-07
5.30712e-07
5.29567e-07
3.89549e-07
3.8954e-07
3.89548e-07
5.29652e-07
5.3071e-07
5.29564e-07
3.89597e-07
3.89632e-07
3.89596e-07
3.89631e-07
5.30655e-07
5.2951e-07
3.89549e-07
3.89638e-07
3.89548e-07
3.89637e-07
3.89595e-07
3.89493e-07
3.89594e-07
5.30712e-07
5.29567e-07
3.89548e-07
3.8954e-07
3.89547e-07
5.29649e-07
5.3071e-07
5.29564e-07
3.89596e-07
3.89632e-07
3.89596e-07
3.89631e-07
5.30656e-07
5.2951e-07
3.89549e-07
3.89638e-07
3.89548e-07
3.89637e-07
3.89595e-07
3.89493e-07
3.89594e-07
5.30711e-07
5.29567e-07
3.89548e-07
3.89541e-07
3.89547e-07
5.29649e-07
5.30709e-07
5.29565e-07
3.89596e-07
3.89632e-07
3.89596e-07
3.89631e-07
5.30657e-07
5.2951e-07
3.89549e-07
3.89638e-07
3.89548e-07
3.89637e-07
3.89594e-07
3.89492e-07
3.89594e-07
5.30711e-07
5.29567e-07
3.89547e-07
3.8954e-07
3.89546e-07
5.29652e-07
5.3071e-07
5.29565e-07
3.89596e-07
3.89632e-07
3.89596e-07
3.89631e-07
5.30656e-07
5.2951e-07
3.89549e-07
3.89638e-07
3.89548e-07
3.89637e-07
3.89594e-07
3.89492e-07
3.89594e-07
5.3071e-07
5.29569e-07
3.89546e-07
3.89541e-07
3.89546e-07
5.29647e-07
5.30711e-07
5.29565e-07
3.89596e-07
3.89631e-07
3.89596e-07
3.8963e-07
5.30656e-07
5.2951e-07
3.89548e-07
3.89638e-07
3.89547e-07
3.89637e-07
3.89594e-07
3.89492e-07
3.89594e-07
5.30712e-07
5.2957e-07
3.89547e-07
3.89541e-07
3.89546e-07
5.29642e-07
5.3071e-07
5.29564e-07
3.89596e-07
3.89631e-07
3.89595e-07
3.89631e-07
5.30656e-07
5.2951e-07
3.89548e-07
3.89638e-07
3.89547e-07
3.89637e-07
3.89594e-07
3.89493e-07
3.89594e-07
5.30713e-07
5.29568e-07
3.89547e-07
3.8954e-07
3.89546e-07
5.29641e-07
5.3071e-07
5.29564e-07
3.89596e-07
3.89631e-07
3.89595e-07
3.89631e-07
5.30657e-07
5.2951e-07
3.89548e-07
3.89638e-07
3.89547e-07
3.89637e-07
3.89594e-07
3.89492e-07
3.89594e-07
5.30712e-07
5.29567e-07
3.89547e-07
3.8954e-07
3.89546e-07
5.29644e-07
5.3071e-07
5.29565e-07
3.89596e-07
3.89632e-07
3.89595e-07
3.89631e-07
5.30657e-07
5.29509e-07
3.89548e-07
3.89638e-07
3.89547e-07
3.89637e-07
3.89594e-07
3.89492e-07
3.89594e-07
5.30711e-07
5.29567e-07
3.89547e-07
3.89539e-07
3.89547e-07
5.29647e-07
5.3071e-07
5.29565e-07
3.89596e-07
3.89632e-07
3.89595e-07
3.89631e-07
5.30657e-07
5.29508e-07
3.89548e-07
3.89638e-07
3.89547e-07
3.89637e-07
3.89595e-07
3.89492e-07
3.89594e-07
5.3071e-07
5.29569e-07
3.89547e-07
3.89539e-07
3.89547e-07
5.29649e-07
5.3071e-07
5.29564e-07
3.89596e-07
3.89631e-07
3.89595e-07
3.8963e-07
5.30656e-07
5.29508e-07
3.89548e-07
3.89638e-07
3.89547e-07
3.89637e-07
3.89595e-07
3.89491e-07
3.89594e-07
5.30711e-07
5.2957e-07
3.89547e-07
3.89539e-07
3.89547e-07
5.29649e-07
5.3071e-07
5.29564e-07
3.89596e-07
3.89631e-07
3.89596e-07
3.8963e-07
5.30655e-07
5.29509e-07
3.89548e-07
3.89638e-07
3.89547e-07
3.89637e-07
3.89595e-07
3.89492e-07
3.89594e-07
5.30713e-07
5.29568e-07
3.89547e-07
3.89539e-07
3.89547e-07
5.2965e-07
5.30709e-07
5.29565e-07
3.89596e-07
3.89631e-07
3.89596e-07
3.89631e-07
5.30655e-07
5.29509e-07
3.89548e-07
3.89638e-07
3.89547e-07
3.89637e-07
3.89594e-07
3.89492e-07
3.89594e-07
5.30712e-07
5.29567e-07
3.89547e-07
3.89539e-07
3.89546e-07
5.29654e-07
5.3071e-07
5.29565e-07
3.89597e-07
3.89631e-07
3.89596e-07
3.89631e-07
5.30655e-07
5.29508e-07
3.89548e-07
3.89638e-07
3.89547e-07
3.89637e-07
3.89594e-07
3.89492e-07
3.89594e-07
5.30711e-07
5.29568e-07
3.89546e-07
3.89538e-07
3.89546e-07
5.29646e-07
5.3071e-07
5.29565e-07
3.89597e-07
3.89632e-07
3.89596e-07
3.89631e-07
5.30655e-07
5.29508e-07
3.89548e-07
3.89638e-07
3.89547e-07
3.89637e-07
3.89594e-07
3.89492e-07
3.89594e-07
5.30711e-07
5.2957e-07
3.89547e-07
3.89539e-07
3.89546e-07
5.29638e-07
5.3071e-07
5.29564e-07
3.89597e-07
3.89632e-07
3.89596e-07
3.89631e-07
5.30656e-07
5.29508e-07
3.89548e-07
3.89638e-07
3.89547e-07
3.89637e-07
3.89594e-07
3.89492e-07
3.89594e-07
5.30714e-07
5.29567e-07
3.89547e-07
3.89539e-07
3.89546e-07
5.29643e-07
5.3071e-07
5.29564e-07
3.89597e-07
3.89632e-07
3.89595e-07
3.89631e-07
5.30655e-07
5.29509e-07
3.89548e-07
3.89638e-07
3.89547e-07
3.89637e-07
3.89594e-07
3.89492e-07
3.89594e-07
5.30712e-07
5.29565e-07
3.89547e-07
3.89539e-07
3.89546e-07
5.29645e-07
5.3071e-07
5.29565e-07
3.89597e-07
3.89632e-07
3.89595e-07
3.8963e-07
5.30655e-07
5.2951e-07
3.89548e-07
3.89638e-07
3.89547e-07
3.89636e-07
3.89595e-07
3.89492e-07
3.89593e-07
5.30709e-07
5.29568e-07
3.89547e-07
3.89539e-07
3.89545e-07
5.29644e-07
5.3071e-07
5.29565e-07
3.89597e-07
3.89632e-07
3.89595e-07
3.8963e-07
5.30656e-07
5.29509e-07
3.89549e-07
3.89638e-07
3.89547e-07
3.89636e-07
3.89595e-07
3.89493e-07
3.89593e-07
5.3071e-07
5.2957e-07
3.89547e-07
3.89539e-07
3.89545e-07
5.2965e-07
5.3071e-07
5.29564e-07
3.89597e-07
3.89632e-07
3.89595e-07
3.8963e-07
5.30656e-07
5.29509e-07
3.89549e-07
3.89638e-07
3.89546e-07
3.89636e-07
3.89595e-07
3.89494e-07
3.89593e-07
5.30712e-07
5.2957e-07
3.89547e-07
3.89539e-07
3.89545e-07
5.29649e-07
5.3071e-07
5.29564e-07
3.89597e-07
3.89632e-07
3.89595e-07
3.8963e-07
5.30656e-07
5.2951e-07
3.89549e-07
3.89639e-07
3.89546e-07
3.89636e-07
3.89595e-07
3.89494e-07
3.89593e-07
5.30713e-07
5.29569e-07
3.89547e-07
3.8954e-07
3.89545e-07
5.29643e-07
5.30709e-07
5.29565e-07
3.89597e-07
3.89632e-07
3.89595e-07
3.8963e-07
5.30657e-07
5.29509e-07
3.89549e-07
3.89639e-07
3.89546e-07
3.89636e-07
3.89595e-07
3.89494e-07
3.89593e-07
5.30714e-07
5.29568e-07
3.89548e-07
3.8954e-07
3.89545e-07
5.29642e-07
5.30709e-07
5.29566e-07
3.89597e-07
3.89632e-07
3.89595e-07
3.8963e-07
5.30657e-07
5.29508e-07
3.89549e-07
3.89639e-07
3.89546e-07
3.89636e-07
3.89596e-07
3.89494e-07
3.89593e-07
5.30713e-07
5.29567e-07
3.89548e-07
3.89539e-07
3.89545e-07
5.29647e-07
5.30711e-07
5.29565e-07
3.89598e-07
3.89633e-07
3.89595e-07
3.8963e-07
5.30656e-07
5.29509e-07
3.89549e-07
3.89639e-07
3.89547e-07
3.89637e-07
3.89596e-07
3.89494e-07
3.89594e-07
5.30712e-07
5.29568e-07
3.89548e-07
3.89539e-07
3.89546e-07
5.29655e-07
5.30711e-07
5.29564e-07
3.89599e-07
3.89634e-07
3.89596e-07
3.89631e-07
5.30656e-07
5.2951e-07
3.8955e-07
3.8964e-07
3.89547e-07
3.89637e-07
3.89597e-07
3.89494e-07
3.89595e-07
5.30712e-07
5.29567e-07
3.89549e-07
3.89539e-07
3.89547e-07
5.29651e-07
5.3071e-07
5.29565e-07
3.896e-07
3.89635e-07
3.89596e-07
3.89631e-07
5.30657e-07
5.2951e-07
3.89552e-07
3.89641e-07
3.89548e-07
3.89637e-07
3.89599e-07
3.89494e-07
3.89595e-07
5.30712e-07
5.29567e-07
3.89551e-07
3.8954e-07
3.89547e-07
5.29645e-07
5.3071e-07
5.29565e-07
3.89602e-07
3.89637e-07
3.89596e-07
3.89631e-07
5.30657e-07
5.29508e-07
3.89553e-07
3.89643e-07
3.89548e-07
3.89638e-07
3.896e-07
3.89494e-07
3.89595e-07
5.30711e-07
5.29568e-07
3.89552e-07
3.8954e-07
3.89547e-07
5.29643e-07
5.3071e-07
5.29565e-07
3.89603e-07
3.89638e-07
3.89596e-07
3.89631e-07
5.30656e-07
5.2951e-07
3.89554e-07
3.89644e-07
3.89547e-07
3.89637e-07
3.89602e-07
3.89494e-07
3.89595e-07
5.30712e-07
5.29569e-07
3.89553e-07
3.89539e-07
3.89546e-07
5.29648e-07
5.3071e-07
5.29565e-07
3.89604e-07
3.89639e-07
3.89595e-07
3.8963e-07
5.30656e-07
5.2951e-07
3.89556e-07
3.89646e-07
3.89546e-07
3.89636e-07
3.89603e-07
3.89492e-07
3.89593e-07
5.30713e-07
5.29569e-07
3.89554e-07
3.89537e-07
3.89544e-07
5.29654e-07
5.3071e-07
5.29565e-07
3.89605e-07
3.8964e-07
3.89593e-07
3.89627e-07
5.30657e-07
5.29509e-07
3.89557e-07
3.89647e-07
3.89544e-07
3.89634e-07
3.89603e-07
3.89489e-07
3.89591e-07
5.30711e-07
5.29566e-07
3.89554e-07
3.89535e-07
3.89542e-07
5.2965e-07
5.3071e-07
5.29563e-07
3.89606e-07
3.89641e-07
3.89588e-07
3.89623e-07
5.30656e-07
5.29507e-07
3.89558e-07
3.89647e-07
3.8954e-07
3.8963e-07
3.89604e-07
3.89484e-07
3.89587e-07
5.30708e-07
5.29566e-07
3.89555e-07
3.89531e-07
3.89537e-07
5.2964e-07
5.30709e-07
5.2956e-07
3.89606e-07
3.8964e-07
3.89581e-07
3.89615e-07
5.30654e-07
5.29502e-07
3.89557e-07
3.89647e-07
3.89533e-07
3.89622e-07
3.89604e-07
3.89477e-07
3.89579e-07
5.30706e-07
5.29564e-07
3.89554e-07
3.89523e-07
3.8953e-07
5.29638e-07
5.30705e-07
5.29554e-07
3.89603e-07
3.89637e-07
3.89569e-07
3.89603e-07
5.30649e-07
5.29498e-07
3.89555e-07
3.89644e-07
3.89521e-07
3.8961e-07
3.89601e-07
3.89465e-07
3.89567e-07
5.30703e-07
5.29557e-07
3.89551e-07
3.89511e-07
3.89517e-07
5.29642e-07
5.30698e-07
5.29547e-07
3.89597e-07
3.89631e-07
3.89548e-07
3.89583e-07
5.30642e-07
5.29492e-07
3.89549e-07
3.89638e-07
3.89501e-07
3.8959e-07
3.89595e-07
3.89445e-07
3.89547e-07
5.30695e-07
5.29549e-07
3.89545e-07
3.89491e-07
3.89497e-07
5.29633e-07
5.30684e-07
5.29538e-07
3.89584e-07
3.89619e-07
3.89513e-07
3.89546e-07
5.3063e-07
5.29484e-07
3.89536e-07
3.89626e-07
3.89466e-07
3.89555e-07
3.89582e-07
3.89409e-07
3.8951e-07
5.30684e-07
5.29545e-07
3.89532e-07
3.89455e-07
3.89458e-07
5.29617e-07
5.3066e-07
5.29426e-07
3.89556e-07
3.89587e-07
3.89295e-07
3.89324e-07
5.30609e-07
5.29375e-07
3.89508e-07
3.89595e-07
3.89243e-07
3.89329e-07
3.89552e-07
3.89192e-07
3.89293e-07
5.30662e-07
5.29436e-07
3.89499e-07
3.89231e-07
3.89232e-07
5.29501e-07
5.30483e-07
5.1941e-07
3.89502e-07
3.89529e-07
3.80459e-07
3.80487e-07
5.30435e-07
5.19379e-07
3.89449e-07
3.8954e-07
3.80433e-07
3.80469e-07
3.89502e-07
3.80398e-07
3.8045e-07
5.30486e-07
5.19407e-07
3.89438e-07
3.8041e-07
3.80416e-07
5.19412e-07
5.07372e-07
3.71879e-07
3.71903e-07
5.07351e-07
3.71862e-07
3.71885e-07
2.46257e-07
2.46253e-07
2.4625e-07
3.71868e-07
5.0737e-07
3.71846e-07
1.91612e-07
4.96073e-08
1.42992e-07
1.42877e-07
1.06078e-09
1.11293e-08
2.32227e-08
9.44677e-08
1.55121e-09
1.01807e-08
9.50531e-08
1.72559e-08
8.31267e-09
5.2569e-09
1.03618e-08
5.93477e-09
1.77984e-07
4.60798e-09
2.70091e-07
1.66276e-06
3.23348e-06
5.89148e-09
1.71776e-07
4.74754e-09
2.64866e-07
9.23339e-08
9.24749e-08
9.31242e-08
9.31208e-08
9.28849e-08
9.30449e-08
9.36234e-08
1.06838e-09
1.11931e-07
4.48673e-08
1.52471e-08
1.06701e-09
8.89324e-08
4.4906e-08
1.56795e-06
3.08188e-06
1.24498e-09
4.66048e-08
9.40631e-08
1.34841e-08
1.41448e-09
4.63309e-08
7.30314e-08
2.03556e-07
2.22438e-07
7.86858e-09
1.71497e-07
1.90804e-07
1.56261e-08
5.04188e-07
9.64907e-09
7.00149e-07
7.14018e-06
1.02929e-05
1.54083e-08
4.96078e-07
9.76795e-09
6.96834e-07
9.37484e-08
9.39039e-08
9.44406e-08
9.66105e-08
9.64167e-08
9.66042e-08
9.69402e-08
1.04017e-09