/*--------------------------------*- C++ -*----------------------------------*\
| =========                 |                                                 |
| \\      /  F ield         | OpenFOAM: The Open Source CFD Toolbox           |
|  \\    /   O peration     | Version:  v2012                                 |
|   \\  /    A nd           | Website:  www.openfoam.com                      |
|    \\/     M anipulation  |                                                 |
\*---------------------------------------------------------------------------*/
FoamFile
{
    version     2.0;
    format      ascii;
    class       volScalarField;
    location    "87.5";
    object      k;
}
// * * * * * * * * * * * * * * * * * * * * * * * * * * * * * * * * * * * * * //

dimensions      [0 2 -2 0 0 0 0];


internalField   nonuniform List<scalar> 
171728
(
7.38998e-06
1.15589e-06
1.0254e-06
4.94135e-07
7.51546e-06
1.25727e-06
1.12593e-06
5.00849e-07
7.79206e-06
1.3983e-06
1.28154e-06
5.17073e-07
8.05914e-06
1.56373e-06
1.46562e-06
5.35959e-07
8.31803e-06
1.72841e-06
1.67457e-06
5.53392e-07
8.57061e-06
1.91457e-06
1.92151e-06
5.81073e-07
8.82415e-06
2.16397e-06
2.21213e-06
6.7101e-07
9.08016e-06
2.47382e-06
2.56216e-06
8.16041e-07
9.34414e-06
2.86513e-06
2.97685e-06
1.06048e-06
9.62362e-06
3.37471e-06
3.47821e-06
1.42276e-06
9.9058e-06
3.96352e-06
4.04829e-06
1.86868e-06
1.01853e-05
4.60772e-06
4.68747e-06
2.39231e-06
1.05268e-05
5.38106e-06
5.46759e-06
3.08172e-06
1.09073e-05
6.24498e-06
6.33299e-06
3.97757e-06
1.13957e-05
7.27327e-06
7.34273e-06
5.17923e-06
1.19809e-05
8.46447e-06
8.51991e-06
6.74491e-06
1.27029e-05
9.97965e-06
1.00135e-05
8.87035e-06
1.36154e-05
1.19875e-05
1.20175e-05
1.1815e-05
1.48125e-05
1.46365e-05
1.46506e-05
1.57235e-05
1.599e-05
1.73507e-05
1.73545e-05
1.95073e-05
1.71678e-05
1.98649e-05
1.98665e-05
2.25281e-05
1.80063e-05
2.13596e-05
2.13608e-05
2.41186e-05
1.83506e-05
2.18549e-05
2.18561e-05
2.45482e-05
1.84388e-05
2.19598e-05
2.19609e-05
2.46264e-05
1.84555e-05
2.1978e-05
2.19791e-05
2.46424e-05
1.84583e-05
2.19808e-05
2.19818e-05
2.46435e-05
1.84588e-05
2.19812e-05
2.19822e-05
2.46432e-05
1.84591e-05
2.19814e-05
2.19825e-05
2.46438e-05
1.84594e-05
2.19816e-05
2.19827e-05
2.46438e-05
1.84596e-05
2.19819e-05
2.1983e-05
2.46441e-05
1.84598e-05
2.19822e-05
2.19832e-05
2.46442e-05
1.846e-05
2.19823e-05
2.19834e-05
2.4644e-05
1.84601e-05
2.19823e-05
2.19833e-05
2.4644e-05
1.84602e-05
2.19823e-05
2.19833e-05
2.46441e-05
1.84603e-05
2.19824e-05
2.19833e-05
2.46439e-05
1.84603e-05
2.19824e-05
2.19833e-05
2.46441e-05
1.84603e-05
2.19824e-05
2.19833e-05
2.46447e-05
1.84603e-05
2.19823e-05
2.19833e-05
2.46451e-05
1.84603e-05
2.19823e-05
2.19833e-05
2.46455e-05
1.84603e-05
2.19823e-05
2.19833e-05
2.46458e-05
1.84603e-05
2.19823e-05
2.19833e-05
2.46461e-05
1.84603e-05
2.19823e-05
2.19833e-05
2.46462e-05
1.84603e-05
2.19823e-05
2.19833e-05
2.46465e-05
1.84603e-05
2.19823e-05
2.19833e-05
2.46466e-05
1.84602e-05
2.19823e-05
2.19833e-05
2.46464e-05
1.84602e-05
2.19823e-05
2.19833e-05
2.46464e-05
1.84603e-05
2.19823e-05
2.19833e-05
2.46464e-05
1.84603e-05
2.19823e-05
2.19833e-05
2.46465e-05
1.84603e-05
2.19823e-05
2.19833e-05
2.46465e-05
1.84604e-05
2.19824e-05
2.19833e-05
2.46464e-05
1.84604e-05
2.19824e-05
2.19833e-05
2.46464e-05
1.84603e-05
2.19824e-05
2.19833e-05
2.46464e-05
1.84603e-05
2.19824e-05
2.19833e-05
2.46466e-05
1.84603e-05
2.19824e-05
2.19833e-05
2.46466e-05
1.84603e-05
2.19824e-05
2.19833e-05
2.46464e-05
1.84603e-05
2.19824e-05
2.19833e-05
2.46463e-05
1.84603e-05
2.19824e-05
2.19833e-05
2.46463e-05
1.84603e-05
2.19824e-05
2.19833e-05
2.46465e-05
1.84603e-05
2.19824e-05
2.19833e-05
2.46466e-05
1.84603e-05
2.19824e-05
2.19833e-05
2.46465e-05
1.84604e-05
2.19824e-05
2.19834e-05
2.46464e-05
1.84603e-05
2.19824e-05
2.19833e-05
2.46465e-05
1.84603e-05
2.19824e-05
2.19833e-05
2.46465e-05
1.84604e-05
2.19824e-05
2.19833e-05
2.46463e-05
1.84604e-05
2.19824e-05
2.19833e-05
2.46463e-05
1.84604e-05
2.19824e-05
2.19833e-05
2.46463e-05
1.84603e-05
2.19824e-05
2.19833e-05
2.46464e-05
1.84603e-05
2.19824e-05
2.19833e-05
2.46464e-05
1.84603e-05
2.19824e-05
2.19832e-05
2.46464e-05
1.84604e-05
2.19824e-05
2.19833e-05
2.46464e-05
1.84603e-05
2.19824e-05
2.19833e-05
2.46466e-05
1.84604e-05
2.19824e-05
2.19832e-05
2.46465e-05
1.84604e-05
2.19824e-05
2.19833e-05
2.46462e-05
1.84603e-05
2.19824e-05
2.19833e-05
2.46463e-05
1.84604e-05
2.19824e-05
2.19833e-05
2.46464e-05
1.84604e-05
2.19824e-05
2.19833e-05
2.46463e-05
1.84604e-05
2.19825e-05
2.19833e-05
2.46464e-05
1.84604e-05
2.19825e-05
2.19833e-05
2.46465e-05
1.84605e-05
2.19825e-05
2.19833e-05
2.46464e-05
1.84605e-05
2.19825e-05
2.19834e-05
2.46462e-05
1.84604e-05
2.19826e-05
2.19834e-05
2.46463e-05
1.84605e-05
2.19826e-05
2.19834e-05
2.46466e-05
1.84605e-05
2.19826e-05
2.19834e-05
2.46466e-05
1.84605e-05
2.19827e-05
2.19835e-05
2.46465e-05
1.84606e-05
2.19827e-05
2.19835e-05
2.46464e-05
1.84606e-05
2.19828e-05
2.19836e-05
2.46464e-05
1.84607e-05
2.19828e-05
2.19836e-05
2.46467e-05
1.84607e-05
2.19829e-05
2.19837e-05
2.46467e-05
1.84608e-05
2.1983e-05
2.19839e-05
2.46466e-05
1.84609e-05
2.19832e-05
2.19841e-05
2.46465e-05
1.8461e-05
2.19835e-05
2.19843e-05
2.46468e-05
1.84611e-05
2.19839e-05
2.19847e-05
2.4647e-05
1.84611e-05
2.19845e-05
2.19853e-05
2.46468e-05
1.84585e-05
2.19822e-05
2.19829e-05
2.46437e-05
1.83589e-05
2.155e-05
2.155e-05
2.42103e-05
4.26129e-07
8.22507e-07
7.4825e-07
4.74195e-07
7.05642e-07
7.58361e-07
7.49976e-06
7.48967e-06
7.49223e-06
7.51458e-06
8.33327e-07
7.98766e-07
4.60686e-07
7.41954e-07
9.32401e-07
4.95799e-07
4.25601e-07
4.4931e-07
1.12332e-06
1.01118e-06
1.1941e-06
1.07289e-06
4.73307e-07
4.81217e-07
9.55894e-07
1.03391e-06
1.04376e-06
1.1042e-06
1.10682e-06
1.22402e-06
1.18196e-06
4.53272e-07
4.27574e-07
1.40653e-06
1.09222e-06
1.48906e-06
5.04109e-07
4.48245e-07
4.85857e-07
1.22937e-06
1.10428e-06
1.34285e-06
1.24133e-06
4.78874e-07
5.02039e-07
1.0861e-06
1.13966e-06
1.21409e-06
1.25511e-06
1.21906e-06
1.36411e-06
1.33871e-06
4.2165e-07
4.22419e-07
1.52912e-06
1.24192e-06
1.65147e-06
5.21092e-07
4.8432e-07
5.29625e-07
1.38304e-06
1.27989e-06
1.5144e-06
1.39595e-06
4.99684e-07
5.26629e-07
1.25915e-06
1.29495e-06
1.40603e-06
1.4264e-06
1.38001e-06
1.52569e-06
1.50957e-06
4.18771e-07
4.42375e-07
1.69125e-06
1.4197e-06
1.80989e-06
5.40603e-07
5.27907e-07
5.85349e-07
1.56125e-06
1.44132e-06
1.71254e-06
1.58805e-06
5.23126e-07
5.53736e-07
1.45668e-06
1.47156e-06
1.616e-06
1.62447e-06
1.55463e-06
1.6866e-06
1.70156e-06
4.39602e-07
4.90335e-07
1.84572e-06
1.61889e-06
1.934e-06
5.58861e-07
5.83662e-07
6.60432e-07
1.76573e-06
1.63898e-06
1.94013e-06
1.81722e-06
5.50457e-07
6.0515e-07
1.67097e-06
1.67668e-06
1.8446e-06
1.84411e-06
1.7517e-06
1.86277e-06
1.92237e-06
4.88181e-07
5.64184e-07
1.95403e-06
1.85781e-06
1.98e-06
5.84886e-07
6.59414e-07
7.61663e-07
2.00569e-06
1.88219e-06
2.19828e-06
2.09072e-06
6.02714e-07
6.8982e-07
1.90771e-06
1.90522e-06
2.11962e-06
2.10239e-06
1.98314e-06
2.09427e-06
2.19055e-06
5.63179e-07
6.75706e-07
1.98889e-06
2.13383e-06
2.11761e-06
6.71199e-07
7.61365e-07
8.98199e-07
2.25695e-06
2.1689e-06
2.44195e-06
2.41988e-06
6.89323e-07
8.4022e-07
2.19455e-06
2.17846e-06
2.42692e-06
2.40417e-06
2.26791e-06
2.38973e-06
2.4776e-06
6.76444e-07
8.38244e-07
2.1859e-06
2.467e-06
2.42296e-06
8.12324e-07
9.02566e-07
1.12635e-06
2.5166e-06
2.51709e-06
2.77262e-06
2.83404e-06
8.45827e-07
1.09381e-06
2.51737e-06
2.48878e-06
2.81304e-06
2.80079e-06
2.55003e-06
2.75951e-06
2.78931e-06
8.43774e-07
1.09413e-06
2.51536e-06
2.86841e-06
2.81448e-06
1.04752e-06
1.13746e-06
1.46068e-06
2.87564e-06
2.94471e-06
3.24016e-06
3.30819e-06
1.10819e-06
1.46048e-06
2.92017e-06
2.9042e-06
3.28086e-06
3.25903e-06
2.87551e-06
3.23969e-06
3.20277e-06
1.1075e-06
1.45585e-06
2.92318e-06
3.348e-06
3.27783e-06
1.40189e-06
1.48032e-06
1.89263e-06
3.37007e-06
3.43546e-06
3.79445e-06
3.84263e-06
1.48041e-06
1.89004e-06
3.40875e-06
3.39914e-06
3.82194e-06
3.84028e-06
3.33331e-06
3.80716e-06
3.75527e-06
1.47666e-06
1.89298e-06
3.40406e-06
3.89684e-06
3.82792e-06
1.84393e-06
1.91574e-06
2.38583e-06
3.95092e-06
3.9962e-06
4.42723e-06
4.46959e-06
1.91341e-06
2.39571e-06
3.9764e-06
3.99609e-06
4.43972e-06
4.46052e-06
3.91219e-06
4.44096e-06
4.39023e-06
1.91591e-06
2.39686e-06
3.98277e-06
4.51808e-06
4.44046e-06
2.35974e-06
2.41704e-06
3.05638e-06
4.59986e-06
4.63889e-06
5.18235e-06
5.2182e-06
2.42795e-06
3.06833e-06
4.60593e-06
4.62657e-06
5.19238e-06
5.20255e-06
4.55869e-06
5.18601e-06
5.14138e-06
2.42921e-06
3.07724e-06
4.60645e-06
5.27064e-06
5.18168e-06
3.03226e-06
3.10611e-06
3.92762e-06
5.378e-06
5.41403e-06
6.00761e-06
6.03249e-06
3.11757e-06
3.93472e-06
5.3923e-06
5.39863e-06
6.01161e-06
6.01687e-06
5.34251e-06
6.00653e-06
5.98301e-06
3.12758e-06
3.96019e-06
5.37806e-06
6.098e-06
6.00487e-06
3.90796e-06
3.9965e-06
5.03869e-06
6.24693e-06
6.26749e-06
7.00929e-06
7.02548e-06
4.00348e-06
5.04286e-06
6.248e-06
6.25411e-06
7.02406e-06
7.02391e-06
6.22415e-06
7.01237e-06
6.9926e-06
4.03021e-06
5.07439e-06
6.24438e-06
7.08494e-06
7.01344e-06
5.02856e-06
5.18822e-06
6.47789e-06
7.27057e-06
7.28724e-06
8.13152e-06
8.14621e-06
5.19195e-06
6.48178e-06
7.28885e-06
7.2865e-06
8.14094e-06
8.14071e-06
7.25672e-06
8.13494e-06
8.12462e-06
5.22305e-06
6.50462e-06
7.27624e-06
8.19643e-06
8.13616e-06
6.47528e-06
6.74623e-06
8.47264e-06
8.46187e-06
8.4744e-06
9.56973e-06
9.57346e-06
6.75075e-06
8.47907e-06
8.46637e-06
8.46831e-06
9.57143e-06
9.57333e-06
8.45618e-06
9.57245e-06
9.56283e-06
6.77173e-06
8.48834e-06
8.46582e-06
9.60897e-06
9.5712e-06
8.47438e-06
8.87127e-06
1.12695e-05
9.97866e-06
9.97977e-06
1.14134e-05
1.14099e-05
8.87511e-06
1.12592e-05
9.98253e-06
9.98317e-06
1.1421e-05
1.14217e-05
9.97053e-06
1.1412e-05
1.14033e-05
8.88375e-06
1.12836e-05
9.97907e-06
1.1444e-05
1.14108e-05
1.12544e-05
1.18309e-05
1.50352e-05
1.19901e-05
1.19864e-05
1.39577e-05
1.39553e-05
1.18198e-05
1.50288e-05
1.19973e-05
1.19989e-05
1.39614e-05
1.39646e-05
1.19807e-05
1.39558e-05
1.3952e-05
1.18464e-05
1.50483e-05
1.19872e-05
1.3974e-05
1.39553e-05
1.50266e-05
1.57307e-05
1.89004e-05
1.46389e-05
1.46371e-05
1.66691e-05
1.66686e-05
1.57254e-05
1.88989e-05
1.46415e-05
1.46447e-05
1.66695e-05
1.6672e-05
1.46345e-05
1.66679e-05
1.66675e-05
1.57418e-05
1.8904e-05
1.46368e-05
1.66732e-05
1.66679e-05
1.88989e-05
1.95084e-05
2.20785e-05
1.73523e-05
1.73522e-05
1.93078e-05
1.93081e-05
1.95073e-05
2.20778e-05
1.73524e-05
1.73546e-05
1.93072e-05
1.9309e-05
1.73513e-05
1.93066e-05
1.93079e-05
1.95112e-05
2.20796e-05
1.73514e-05
1.93085e-05
1.93073e-05
2.20789e-05
2.25278e-05
2.39212e-05
1.98664e-05
1.98668e-05
2.11005e-05
2.11009e-05
2.25271e-05
2.39202e-05
1.98658e-05
1.98674e-05
2.10998e-05
2.1101e-05
1.98667e-05
2.10992e-05
2.11009e-05
2.25287e-05
2.39214e-05
1.9866e-05
2.11004e-05
2.11003e-05
2.39217e-05
2.41183e-05
2.44948e-05
2.13612e-05
2.13616e-05
2.17905e-05
2.17907e-05
2.41173e-05
2.44938e-05
2.13605e-05
2.13616e-05
2.17897e-05
2.17906e-05
2.13617e-05
2.1789e-05
2.17911e-05
2.41182e-05
2.44948e-05
2.13611e-05
2.17901e-05
2.17905e-05
2.44957e-05
2.45474e-05
2.46002e-05
2.18565e-05
2.18567e-05
2.19492e-05
2.19494e-05
2.45464e-05
2.45991e-05
2.18558e-05
2.18567e-05
2.19485e-05
2.19493e-05
2.18572e-05
2.19476e-05
2.19498e-05
2.45472e-05
2.45999e-05
2.18566e-05
2.19488e-05
2.19492e-05
2.46009e-05
2.46259e-05
2.4621e-05
2.19615e-05
2.19616e-05
2.19776e-05
2.19777e-05
2.46248e-05
2.46198e-05
2.19608e-05
2.19615e-05
2.19769e-05
2.19776e-05
2.1962e-05
2.1976e-05
2.19779e-05
2.46255e-05
2.46206e-05
2.19614e-05
2.1977e-05
2.19775e-05
2.46214e-05
2.46421e-05
2.46239e-05
2.19797e-05
2.19798e-05
2.19823e-05
2.19823e-05
2.46409e-05
2.46227e-05
2.1979e-05
2.19797e-05
2.19815e-05
2.19822e-05
2.198e-05
2.19805e-05
2.19823e-05
2.46416e-05
2.46235e-05
2.19795e-05
2.19816e-05
2.19818e-05
2.4624e-05
2.46435e-05
2.46232e-05
2.19825e-05
2.19826e-05
2.19828e-05
2.19829e-05
2.46424e-05
2.46221e-05
2.19818e-05
2.19824e-05
2.19821e-05
2.19827e-05
2.19825e-05
2.19811e-05
2.19827e-05
2.4643e-05
2.46229e-05
2.1982e-05
2.19821e-05
2.19823e-05
2.46232e-05
2.46433e-05
2.4624e-05
2.19829e-05
2.1983e-05
2.19831e-05
2.19832e-05
2.46422e-05
2.46228e-05
2.19822e-05
2.19828e-05
2.19824e-05
2.19831e-05
2.19828e-05
2.19814e-05
2.1983e-05
2.46428e-05
2.46236e-05
2.19823e-05
2.19824e-05
2.19826e-05
2.4624e-05
2.46438e-05
2.4624e-05
2.19832e-05
2.19833e-05
2.19833e-05
2.19835e-05
2.46427e-05
2.46228e-05
2.19825e-05
2.19831e-05
2.19827e-05
2.19833e-05
2.19831e-05
2.19816e-05
2.19833e-05
2.46433e-05
2.46236e-05
2.19826e-05
2.19827e-05
2.19828e-05
2.4624e-05
2.46439e-05
2.46243e-05
2.19834e-05
2.19835e-05
2.19836e-05
2.19837e-05
2.46428e-05
2.46231e-05
2.19828e-05
2.19834e-05
2.1983e-05
2.19836e-05
2.19833e-05
2.19818e-05
2.19836e-05
2.46434e-05
2.46239e-05
2.19828e-05
2.19829e-05
2.1983e-05
2.46243e-05
2.46442e-05
2.46244e-05
2.19837e-05
2.19838e-05
2.19838e-05
2.19841e-05
2.4643e-05
2.46233e-05
2.19831e-05
2.19837e-05
2.19833e-05
2.19839e-05
2.19836e-05
2.19821e-05
2.19838e-05
2.46437e-05
2.4624e-05
2.19831e-05
2.19832e-05
2.19833e-05
2.46244e-05
2.46442e-05
2.46244e-05
2.19838e-05
2.19841e-05
2.19838e-05
2.19842e-05
2.46432e-05
2.46233e-05
2.19834e-05
2.19839e-05
2.19835e-05
2.1984e-05
2.19838e-05
2.19823e-05
2.19838e-05
2.46438e-05
2.46241e-05
2.19833e-05
2.19834e-05
2.19833e-05
2.46241e-05
2.46443e-05
2.46243e-05
2.19838e-05
2.19842e-05
2.19838e-05
2.19842e-05
2.46433e-05
2.46231e-05
2.19835e-05
2.1984e-05
2.19835e-05
2.1984e-05
2.19839e-05
2.19823e-05
2.19838e-05
2.46439e-05
2.46239e-05
2.19833e-05
2.19833e-05
2.19833e-05
2.46243e-05
2.46442e-05
2.46242e-05
2.19838e-05
2.19843e-05
2.19838e-05
2.19842e-05
2.46431e-05
2.46232e-05
2.19835e-05
2.1984e-05
2.19836e-05
2.1984e-05
2.19839e-05
2.19824e-05
2.19838e-05
2.46437e-05
2.4624e-05
2.19833e-05
2.19833e-05
2.19833e-05
2.46244e-05
2.4644e-05
2.46246e-05
2.19838e-05
2.19842e-05
2.19838e-05
2.19842e-05
2.4643e-05
2.46237e-05
2.19836e-05
2.1984e-05
2.19836e-05
2.1984e-05
2.19839e-05
2.19824e-05
2.19839e-05
2.46437e-05
2.46244e-05
2.19833e-05
2.19833e-05
2.19833e-05
2.46242e-05
2.46443e-05
2.46248e-05
2.19838e-05
2.19842e-05
2.19838e-05
2.19842e-05
2.46435e-05
2.46236e-05
2.19836e-05
2.1984e-05
2.19836e-05
2.1984e-05
2.19839e-05
2.19824e-05
2.19838e-05
2.46441e-05
2.46243e-05
2.19833e-05
2.19833e-05
2.19833e-05
2.46247e-05
2.46448e-05
2.46244e-05
2.19838e-05
2.19842e-05
2.19838e-05
2.19842e-05
2.46437e-05
2.46231e-05
2.19836e-05
2.1984e-05
2.19836e-05
2.1984e-05
2.19839e-05
2.19824e-05
2.19838e-05
2.46442e-05
2.46239e-05
2.19833e-05
2.19833e-05
2.19833e-05
2.46252e-05
2.46446e-05
2.46241e-05
2.19838e-05
2.19843e-05
2.19838e-05
2.19843e-05
2.46434e-05
2.46229e-05
2.19836e-05
2.1984e-05
2.19836e-05
2.1984e-05
2.19839e-05
2.19823e-05
2.19839e-05
2.4644e-05
2.46238e-05
2.19833e-05
2.19833e-05
2.19833e-05
2.46255e-05
2.46442e-05
2.46242e-05
2.19838e-05
2.19843e-05
2.19838e-05
2.19843e-05
2.4643e-05
2.46231e-05
2.19836e-05
2.1984e-05
2.19836e-05
2.1984e-05
2.19839e-05
2.19823e-05
2.19839e-05
2.46438e-05
2.46239e-05
2.19833e-05
2.19833e-05
2.19833e-05
2.46256e-05
2.46442e-05
2.46242e-05
2.19838e-05
2.19843e-05
2.19837e-05
2.19842e-05
2.4643e-05
2.46232e-05
2.19836e-05
2.1984e-05
2.19836e-05
2.1984e-05
2.19839e-05
2.19823e-05
2.19839e-05
2.46438e-05
2.46239e-05
2.19833e-05
2.19833e-05
2.19833e-05
2.46258e-05
2.46442e-05
2.46243e-05
2.19838e-05
2.19843e-05
2.19837e-05
2.19842e-05
2.46432e-05
2.46233e-05
2.19836e-05
2.1984e-05
2.19835e-05
2.1984e-05
2.19839e-05
2.19823e-05
2.19839e-05
2.46439e-05
2.46239e-05
2.19834e-05
2.19833e-05
2.19833e-05
2.46259e-05
2.46442e-05
2.46243e-05
2.19837e-05
2.19842e-05
2.19837e-05
2.19842e-05
2.46433e-05
2.46233e-05
2.19836e-05
2.1984e-05
2.19836e-05
2.1984e-05
2.19839e-05
2.19823e-05
2.19839e-05
2.46439e-05
2.46239e-05
2.19833e-05
2.19833e-05
2.19833e-05
2.4626e-05
2.46442e-05
2.46243e-05
2.19837e-05
2.19842e-05
2.19837e-05
2.19842e-05
2.46433e-05
2.46232e-05
2.19837e-05
2.1984e-05
2.19836e-05
2.1984e-05
2.19839e-05
2.19823e-05
2.19838e-05
2.46439e-05
2.46239e-05
2.19833e-05
2.19833e-05
2.19833e-05
2.46263e-05
2.46443e-05
2.46243e-05
2.19837e-05
2.19842e-05
2.19837e-05
2.19842e-05
2.46432e-05
2.46232e-05
2.19836e-05
2.1984e-05
2.19836e-05
2.1984e-05
2.19838e-05
2.19823e-05
2.19838e-05
2.46438e-05
2.46238e-05
2.19833e-05
2.19833e-05
2.19833e-05
2.46262e-05
2.46443e-05
2.46242e-05
2.19837e-05
2.19842e-05
2.19837e-05
2.19842e-05
2.46432e-05
2.46232e-05
2.19836e-05
2.1984e-05
2.19836e-05
2.1984e-05
2.19839e-05
2.19823e-05
2.19839e-05
2.46438e-05
2.46238e-05
2.19834e-05
2.19833e-05
2.19833e-05
2.46261e-05
2.46442e-05
2.46243e-05
2.19838e-05
2.19842e-05
2.19838e-05
2.19842e-05
2.46432e-05
2.46231e-05
2.19836e-05
2.1984e-05
2.19835e-05
2.1984e-05
2.19839e-05
2.19823e-05
2.19839e-05
2.46438e-05
2.46238e-05
2.19833e-05
2.19833e-05
2.19833e-05
2.46261e-05
2.46443e-05
2.46243e-05
2.19838e-05
2.19843e-05
2.19839e-05
2.19842e-05
2.46432e-05
2.46232e-05
2.19836e-05
2.19841e-05
2.19835e-05
2.1984e-05
2.19839e-05
2.19823e-05
2.19839e-05
2.46438e-05
2.46238e-05
2.19833e-05
2.19833e-05
2.19833e-05
2.46262e-05
2.46443e-05
2.46243e-05
2.19839e-05
2.19842e-05
2.19839e-05
2.19842e-05
2.46432e-05
2.46232e-05
2.19835e-05
2.19841e-05
2.19835e-05
2.1984e-05
2.19839e-05
2.19823e-05
2.19838e-05
2.46438e-05
2.46239e-05
2.19834e-05
2.19833e-05
2.19833e-05
2.46263e-05
2.46443e-05
2.46243e-05
2.1984e-05
2.19842e-05
2.1984e-05
2.19842e-05
2.46432e-05
2.46232e-05
2.19835e-05
2.19841e-05
2.19834e-05
2.1984e-05
2.19839e-05
2.19823e-05
2.19838e-05
2.46438e-05
2.46239e-05
2.19833e-05
2.19833e-05
2.19833e-05
2.46262e-05
2.46444e-05
2.46243e-05
2.1984e-05
2.19842e-05
2.1984e-05
2.19842e-05
2.46432e-05
2.46232e-05
2.19835e-05
2.19841e-05
2.19835e-05
2.1984e-05
2.19839e-05
2.19824e-05
2.19838e-05
2.46438e-05
2.46239e-05
2.19833e-05
2.19833e-05
2.19833e-05
2.46262e-05
2.46444e-05
2.46243e-05
2.19841e-05
2.19842e-05
2.19841e-05
2.19842e-05
2.46432e-05
2.46232e-05
2.19835e-05
2.1984e-05
2.19835e-05
2.1984e-05
2.19839e-05
2.19824e-05
2.19838e-05
2.46439e-05
2.46239e-05
2.19833e-05
2.19833e-05
2.19833e-05
2.46262e-05
2.46444e-05
2.46244e-05
2.19841e-05
2.19843e-05
2.19841e-05
2.19842e-05
2.46433e-05
2.46233e-05
2.19835e-05
2.1984e-05
2.19835e-05
2.1984e-05
2.19839e-05
2.19824e-05
2.19838e-05
2.46439e-05
2.46238e-05
2.19833e-05
2.19833e-05
2.19833e-05
2.46263e-05
2.46444e-05
2.46244e-05
2.19842e-05
2.19843e-05
2.19841e-05
2.19842e-05
2.46433e-05
2.46233e-05
2.19835e-05
2.1984e-05
2.19835e-05
2.1984e-05
2.19839e-05
2.19824e-05
2.19839e-05
2.46438e-05
2.46238e-05
2.19833e-05
2.19833e-05
2.19833e-05
2.46264e-05
2.46444e-05
2.46244e-05
2.19842e-05
2.19843e-05
2.19842e-05
2.19842e-05
2.46433e-05
2.46233e-05
2.19835e-05
2.1984e-05
2.19835e-05
2.1984e-05
2.19839e-05
2.19824e-05
2.19839e-05
2.46438e-05
2.46238e-05
2.19833e-05
2.19833e-05
2.19833e-05
2.46262e-05
2.46444e-05
2.46244e-05
2.19842e-05
2.19843e-05
2.19842e-05
2.19842e-05
2.46433e-05
2.46233e-05
2.19835e-05
2.1984e-05
2.19835e-05
2.1984e-05
2.19839e-05
2.19824e-05
2.19838e-05
2.46438e-05
2.46238e-05
2.19833e-05
2.19833e-05
2.19832e-05
2.4626e-05
2.46444e-05
2.46245e-05
2.19842e-05
2.19843e-05
2.19842e-05
2.19842e-05
2.46433e-05
2.46233e-05
2.19835e-05
2.1984e-05
2.19835e-05
2.1984e-05
2.19839e-05
2.19824e-05
2.19839e-05
2.46438e-05
2.46239e-05
2.19833e-05
2.19833e-05
2.19832e-05
2.4626e-05
2.46444e-05
2.46245e-05
2.19842e-05
2.19843e-05
2.19842e-05
2.19842e-05
2.46433e-05
2.46233e-05
2.19835e-05
2.1984e-05
2.19835e-05
2.1984e-05
2.19839e-05
2.19824e-05
2.19839e-05
2.46438e-05
2.46239e-05
2.19833e-05
2.19833e-05
2.19832e-05
2.46262e-05
2.46445e-05
2.46245e-05
2.19842e-05
2.19843e-05
2.19842e-05
2.19842e-05
2.46433e-05
2.46233e-05
2.19835e-05
2.1984e-05
2.19834e-05
2.1984e-05
2.19839e-05
2.19824e-05
2.19839e-05
2.46438e-05
2.46239e-05
2.19832e-05
2.19833e-05
2.19832e-05
2.46263e-05
2.46445e-05
2.46245e-05
2.19842e-05
2.19843e-05
2.19842e-05
2.19843e-05
2.46433e-05
2.46233e-05
2.19835e-05
2.1984e-05
2.19834e-05
2.1984e-05
2.19839e-05
2.19824e-05
2.19839e-05
2.46439e-05
2.46238e-05
2.19832e-05
2.19833e-05
2.19832e-05
2.46263e-05
2.46445e-05
2.46244e-05
2.19843e-05
2.19843e-05
2.19842e-05
2.19843e-05
2.46433e-05
2.46233e-05
2.19834e-05
2.1984e-05
2.19834e-05
2.1984e-05
2.19839e-05
2.19824e-05
2.19838e-05
2.46438e-05
2.46238e-05
2.19832e-05
2.19833e-05
2.19832e-05
2.46262e-05
2.46444e-05
2.46244e-05
2.19842e-05
2.19843e-05
2.19842e-05
2.19843e-05
2.46433e-05
2.46233e-05
2.19834e-05
2.1984e-05
2.19834e-05
2.1984e-05
2.19839e-05
2.19824e-05
2.19838e-05
2.46438e-05
2.46238e-05
2.19832e-05
2.19833e-05
2.19831e-05
2.46262e-05
2.46444e-05
2.46244e-05
2.19842e-05
2.19843e-05
2.19842e-05
2.19842e-05
2.46434e-05
2.46233e-05
2.19834e-05
2.19841e-05
2.19834e-05
2.1984e-05
2.19838e-05
2.19824e-05
2.19838e-05
2.46438e-05
2.46238e-05
2.19831e-05
2.19833e-05
2.19831e-05
2.46263e-05
2.46444e-05
2.46245e-05
2.19842e-05
2.19843e-05
2.19842e-05
2.19842e-05
2.46433e-05
2.46233e-05
2.19834e-05
2.1984e-05
2.19834e-05
2.1984e-05
2.19838e-05
2.19824e-05
2.19838e-05
2.46438e-05
2.46239e-05
2.19831e-05
2.19833e-05
2.19831e-05
2.46261e-05
2.46445e-05
2.46244e-05
2.19842e-05
2.19843e-05
2.19842e-05
2.19842e-05
2.46433e-05
2.46233e-05
2.19834e-05
2.1984e-05
2.19834e-05
2.1984e-05
2.19838e-05
2.19824e-05
2.19838e-05
2.46438e-05
2.46239e-05
2.19831e-05
2.19833e-05
2.19831e-05
2.4626e-05
2.46445e-05
2.46244e-05
2.19843e-05
2.19843e-05
2.19842e-05
2.19842e-05
2.46433e-05
2.46233e-05
2.19834e-05
2.1984e-05
2.19834e-05
2.1984e-05
2.19839e-05
2.19824e-05
2.19838e-05
2.46439e-05
2.46239e-05
2.19831e-05
2.19833e-05
2.19831e-05
2.4626e-05
2.46445e-05
2.46244e-05
2.19843e-05
2.19843e-05
2.19842e-05
2.19842e-05
2.46433e-05
2.46233e-05
2.19834e-05
2.1984e-05
2.19834e-05
2.1984e-05
2.19839e-05
2.19824e-05
2.19838e-05
2.46439e-05
2.46238e-05
2.19831e-05
2.19833e-05
2.19831e-05
2.46261e-05
2.46444e-05
2.46244e-05
2.19842e-05
2.19843e-05
2.19842e-05
2.19843e-05
2.46434e-05
2.46233e-05
2.19834e-05
2.1984e-05
2.19834e-05
2.1984e-05
2.19838e-05
2.19824e-05
2.19838e-05
2.46438e-05
2.46238e-05
2.19831e-05
2.19833e-05
2.19831e-05
2.46262e-05
2.46444e-05
2.46244e-05
2.19842e-05
2.19843e-05
2.19842e-05
2.19842e-05
2.46434e-05
2.46233e-05
2.19834e-05
2.1984e-05
2.19834e-05
2.1984e-05
2.19839e-05
2.19824e-05
2.19839e-05
2.46437e-05
2.46239e-05
2.19831e-05
2.19833e-05
2.19831e-05
2.46262e-05
2.46444e-05
2.46244e-05
2.19842e-05
2.19843e-05
2.19842e-05
2.19842e-05
2.46433e-05
2.46232e-05
2.19834e-05
2.1984e-05
2.19833e-05
2.1984e-05
2.19839e-05
2.19824e-05
2.19839e-05
2.46438e-05
2.46239e-05
2.19831e-05
2.19832e-05
2.19831e-05
2.46262e-05
2.46444e-05
2.46244e-05
2.19842e-05
2.19843e-05
2.19842e-05
2.19842e-05
2.46433e-05
2.46233e-05
2.19834e-05
2.1984e-05
2.19834e-05
2.1984e-05
2.19839e-05
2.19824e-05
2.19838e-05
2.46439e-05
2.46239e-05
2.19831e-05
2.19833e-05
2.19831e-05
2.46262e-05
2.46444e-05
2.46244e-05
2.19843e-05
2.19843e-05
2.19842e-05
2.19842e-05
2.46433e-05
2.46233e-05
2.19834e-05
2.1984e-05
2.19834e-05
2.1984e-05
2.19839e-05
2.19824e-05
2.19838e-05
2.46439e-05
2.46238e-05
2.19831e-05
2.19833e-05
2.19831e-05
2.46264e-05
2.46444e-05
2.46244e-05
2.19843e-05
2.19843e-05
2.19842e-05
2.19842e-05
2.46433e-05
2.46233e-05
2.19834e-05
2.1984e-05
2.19833e-05
2.1984e-05
2.19838e-05
2.19824e-05
2.19838e-05
2.46438e-05
2.46238e-05
2.19831e-05
2.19832e-05
2.19831e-05
2.46261e-05
2.46444e-05
2.46244e-05
2.19843e-05
2.19843e-05
2.19842e-05
2.19843e-05
2.46433e-05
2.46233e-05
2.19834e-05
2.1984e-05
2.19834e-05
2.1984e-05
2.19838e-05
2.19824e-05
2.19838e-05
2.46438e-05
2.46239e-05
2.19831e-05
2.19833e-05
2.19831e-05
2.46259e-05
2.46444e-05
2.46244e-05
2.19843e-05
2.19843e-05
2.19842e-05
2.19842e-05
2.46433e-05
2.46232e-05
2.19834e-05
2.1984e-05
2.19834e-05
2.1984e-05
2.19839e-05
2.19824e-05
2.19838e-05
2.46439e-05
2.46239e-05
2.19831e-05
2.19833e-05
2.19831e-05
2.46261e-05
2.46444e-05
2.46244e-05
2.19843e-05
2.19843e-05
2.19842e-05
2.19842e-05
2.46433e-05
2.46233e-05
2.19834e-05
2.1984e-05
2.19833e-05
2.1984e-05
2.19839e-05
2.19824e-05
2.19838e-05
2.46439e-05
2.46238e-05
2.19831e-05
2.19833e-05
2.19831e-05
2.46261e-05
2.46444e-05
2.46244e-05
2.19843e-05
2.19843e-05
2.19842e-05
2.19842e-05
2.46433e-05
2.46233e-05
2.19834e-05
2.1984e-05
2.19834e-05
2.19839e-05
2.19839e-05
2.19824e-05
2.19838e-05
2.46438e-05
2.46238e-05
2.19831e-05
2.19833e-05
2.19831e-05
2.46261e-05
2.46445e-05
2.46245e-05
2.19843e-05
2.19843e-05
2.19843e-05
2.19842e-05
2.46433e-05
2.46233e-05
2.19834e-05
2.1984e-05
2.19834e-05
2.1984e-05
2.19839e-05
2.19824e-05
2.19838e-05
2.46438e-05
2.46239e-05
2.19831e-05
2.19833e-05
2.19831e-05
2.46263e-05
2.46445e-05
2.46244e-05
2.19843e-05
2.19843e-05
2.19842e-05
2.19843e-05
2.46433e-05
2.46233e-05
2.19835e-05
2.1984e-05
2.19834e-05
2.1984e-05
2.19839e-05
2.19825e-05
2.19838e-05
2.46438e-05
2.46239e-05
2.19831e-05
2.19833e-05
2.19831e-05
2.46262e-05
2.46445e-05
2.46244e-05
2.19843e-05
2.19843e-05
2.19842e-05
2.19843e-05
2.46433e-05
2.46233e-05
2.19835e-05
2.19841e-05
2.19834e-05
2.1984e-05
2.19839e-05
2.19825e-05
2.19839e-05
2.46439e-05
2.46239e-05
2.19832e-05
2.19833e-05
2.19831e-05
2.46261e-05
2.46444e-05
2.46244e-05
2.19843e-05
2.19843e-05
2.19843e-05
2.19843e-05
2.46433e-05
2.46233e-05
2.19835e-05
2.19841e-05
2.19834e-05
2.1984e-05
2.1984e-05
2.19825e-05
2.19839e-05
2.46439e-05
2.46239e-05
2.19832e-05
2.19833e-05
2.19832e-05
2.4626e-05
2.46444e-05
2.46245e-05
2.19844e-05
2.19844e-05
2.19843e-05
2.19843e-05
2.46434e-05
2.46233e-05
2.19835e-05
2.19841e-05
2.19834e-05
2.19841e-05
2.1984e-05
2.19825e-05
2.19839e-05
2.46439e-05
2.46239e-05
2.19832e-05
2.19833e-05
2.19832e-05
2.46262e-05
2.46445e-05
2.46245e-05
2.19844e-05
2.19844e-05
2.19843e-05
2.19843e-05
2.46433e-05
2.46233e-05
2.19836e-05
2.19842e-05
2.19835e-05
2.19841e-05
2.1984e-05
2.19825e-05
2.19839e-05
2.46439e-05
2.46239e-05
2.19833e-05
2.19833e-05
2.19832e-05
2.46265e-05
2.46445e-05
2.46245e-05
2.19845e-05
2.19845e-05
2.19844e-05
2.19844e-05
2.46434e-05
2.46234e-05
2.19836e-05
2.19842e-05
2.19835e-05
2.19841e-05
2.19841e-05
2.19825e-05
2.1984e-05
2.46439e-05
2.46239e-05
2.19833e-05
2.19833e-05
2.19833e-05
2.46263e-05
2.46445e-05
2.46245e-05
2.19845e-05
2.19845e-05
2.19844e-05
2.19844e-05
2.46434e-05
2.46234e-05
2.19837e-05
2.19843e-05
2.19835e-05
2.19841e-05
2.19842e-05
2.19825e-05
2.1984e-05
2.46439e-05
2.46239e-05
2.19834e-05
2.19833e-05
2.19833e-05
2.46262e-05
2.46445e-05
2.46245e-05
2.19846e-05
2.19846e-05
2.19844e-05
2.19844e-05
2.46434e-05
2.46233e-05
2.19837e-05
2.19843e-05
2.19835e-05
2.19841e-05
2.19842e-05
2.19825e-05
2.1984e-05
2.46439e-05
2.46239e-05
2.19835e-05
2.19833e-05
2.19833e-05
2.46262e-05
2.46445e-05
2.46245e-05
2.19846e-05
2.19847e-05
2.19844e-05
2.19844e-05
2.46434e-05
2.46234e-05
2.19838e-05
2.19844e-05
2.19835e-05
2.19841e-05
2.19843e-05
2.19825e-05
2.1984e-05
2.46439e-05
2.4624e-05
2.19835e-05
2.19833e-05
2.19833e-05
2.46263e-05
2.46445e-05
2.46245e-05
2.19847e-05
2.19847e-05
2.19844e-05
2.19844e-05
2.46434e-05
2.46234e-05
2.19839e-05
2.19845e-05
2.19835e-05
2.19841e-05
2.19843e-05
2.19825e-05
2.1984e-05
2.46439e-05
2.4624e-05
2.19836e-05
2.19833e-05
2.19832e-05
2.46265e-05
2.46446e-05
2.46246e-05
2.19848e-05
2.19848e-05
2.19843e-05
2.19843e-05
2.46435e-05
2.46234e-05
2.19839e-05
2.19845e-05
2.19835e-05
2.19841e-05
2.19844e-05
2.19824e-05
2.19839e-05
2.46439e-05
2.46239e-05
2.19836e-05
2.19832e-05
2.19832e-05
2.46264e-05
2.46446e-05
2.46246e-05
2.19849e-05
2.19849e-05
2.19843e-05
2.19843e-05
2.46435e-05
2.46234e-05
2.1984e-05
2.19846e-05
2.19835e-05
2.19841e-05
2.19845e-05
2.19824e-05
2.19839e-05
2.46439e-05
2.4624e-05
2.19837e-05
2.19832e-05
2.19831e-05
2.46262e-05
2.46447e-05
2.46246e-05
2.1985e-05
2.1985e-05
2.19843e-05
2.19842e-05
2.46435e-05
2.46234e-05
2.19842e-05
2.19848e-05
2.19834e-05
2.1984e-05
2.19846e-05
2.19824e-05
2.19839e-05
2.4644e-05
2.46241e-05
2.19838e-05
2.19832e-05
2.19831e-05
2.46262e-05
2.46447e-05
2.46247e-05
2.19852e-05
2.19851e-05
2.19842e-05
2.19842e-05
2.46435e-05
2.46235e-05
2.19844e-05
2.19849e-05
2.19834e-05
2.1984e-05
2.19848e-05
2.19823e-05
2.19838e-05
2.4644e-05
2.46242e-05
2.1984e-05
2.19832e-05
2.1983e-05
2.46266e-05
2.46448e-05
2.46249e-05
2.19854e-05
2.19854e-05
2.19843e-05
2.19843e-05
2.46436e-05
2.46238e-05
2.19846e-05
2.19852e-05
2.19835e-05
2.1984e-05
2.1985e-05
2.19824e-05
2.19839e-05
2.46441e-05
2.46244e-05
2.19842e-05
2.19832e-05
2.19831e-05
2.46268e-05
2.46449e-05
2.46253e-05
2.19858e-05
2.19859e-05
2.19844e-05
2.19844e-05
2.46437e-05
2.46243e-05
2.1985e-05
2.19856e-05
2.19836e-05
2.19842e-05
2.19854e-05
2.19825e-05
2.1984e-05
2.46443e-05
2.46249e-05
2.19846e-05
2.19833e-05
2.19831e-05
2.4627e-05
2.46449e-05
2.4624e-05
2.19864e-05
2.19864e-05
2.1981e-05
2.1981e-05
2.46439e-05
2.4623e-05
2.19856e-05
2.19862e-05
2.19801e-05
2.19807e-05
2.1986e-05
2.19792e-05
2.19806e-05
2.46444e-05
2.46236e-05
2.19851e-05
2.19798e-05
2.19797e-05
2.46257e-05
2.4642e-05
2.44399e-05
2.19841e-05
2.19841e-05
2.17884e-05
2.17884e-05
2.4641e-05
2.44392e-05
2.19832e-05
2.19839e-05
2.17881e-05
2.17876e-05
2.19837e-05
2.17875e-05
2.17878e-05
2.46414e-05
2.44392e-05
2.19828e-05
2.17876e-05
2.17875e-05
2.44394e-05
2.4211e-05
2.15506e-05
2.15506e-05
2.42105e-05
2.15505e-05
2.15497e-05
1.83586e-05
1.83584e-05
1.83583e-05
2.15499e-05
2.42103e-05
2.15498e-05
1.50764e-05
4.19203e-06
1.11168e-05
1.11101e-05
8.48818e-08
8.66628e-07
8.28687e-07
7.49379e-06
8.65302e-08
7.77369e-07
7.51847e-06
6.37944e-07
4.98412e-07
1.45052e-07
3.64051e-07
2.54018e-07
5.23578e-06
2.19253e-07
6.81288e-06
1.42522e-05
2.1812e-05
2.47681e-07
5.11383e-06
2.16718e-07
6.71929e-06
7.37833e-06
7.38224e-06
7.40419e-06
7.44791e-06
7.43554e-06
7.44028e-06
7.45559e-06
8.1295e-08
1.14423e-06
3.80413e-06
1.16549e-06
8.21116e-08
1.10656e-06
3.79859e-06
1.37371e-05
2.1117e-05
8.44134e-08
3.8224e-06
8.67032e-07
1.03377e-06
8.57288e-08
3.81058e-06
8.32364e-07
1.72065e-06
1.96118e-06
4.95691e-07
1.72178e-06
1.94026e-06
4.60408e-07
1.03165e-05
3.44546e-07
1.28516e-05
3.69536e-05
4.71602e-05
4.50087e-07
1.02177e-05
3.40181e-07
1.27972e-05
7.50409e-06
7.50859e-06
7.52243e-06