/*--------------------------------*- C++ -*----------------------------------*\
| =========                 |                                                 |
| \\      /  F ield         | OpenFOAM: The Open Source CFD Toolbox           |
|  \\    /   O peration     | Version:  v2012                                 |
|   \\  /    A nd           | Website:  www.openfoam.com                      |
|    \\/     M anipulation  |                                                 |
\*---------------------------------------------------------------------------*/
FoamFile
{
    version     2.0;
    format      ascii;
    class       volScalarField;
    location    "87.5";
    object      nut;
}
// * * * * * * * * * * * * * * * * * * * * * * * * * * * * * * * * * * * * * //

dimensions      [0 2 -1 0 0 0 0];


internalField   nonuniform List<scalar> 
171728
(
5.31066e-05
7.92208e-06
7.06816e-06
2.76039e-06
5.41036e-05
8.98852e-06
7.92367e-06
2.88831e-06
5.6072e-05
1.04715e-05
9.26163e-06
3.04357e-06
5.79374e-05
1.21522e-05
1.08311e-05
3.27245e-06
5.97236e-05
1.36747e-05
1.25538e-05
3.60794e-06
6.14634e-05
1.51765e-05
1.45485e-05
3.92211e-06
6.32e-05
1.71046e-05
1.68532e-05
4.68473e-06
6.49326e-05
1.94465e-05
1.9565e-05
5.91958e-06
6.67381e-05
2.23845e-05
2.26727e-05
8.00418e-06
6.86696e-05
2.61745e-05
2.63452e-05
1.0864e-05
7.05276e-05
3.03821e-05
3.03784e-05
1.40629e-05
7.24223e-05
3.47888e-05
3.47919e-05
1.76442e-05
7.48542e-05
3.99861e-05
4.01346e-05
2.2262e-05
7.7649e-05
4.55882e-05
4.57688e-05
2.7846e-05
8.12385e-05
5.1918e-05
5.19778e-05
3.50303e-05
8.54408e-05
5.85619e-05
5.87506e-05
4.32804e-05
9.03512e-05
6.60486e-05
6.61908e-05
5.21e-05
9.59908e-05
7.3974e-05
7.40914e-05
6.09186e-05
0.00010277
8.30069e-05
8.30695e-05
7.22437e-05
0.000108774
9.19976e-05
9.20134e-05
8.36134e-05
0.000115053
0.000101847
0.000101848
9.41671e-05
0.000119912
0.000108533
0.00010853
0.000100594
0.000122032
0.000110981
0.000110979
0.000102531
0.000122595
0.000111536
0.000111533
0.000102902
0.000122702
0.000111636
0.000111634
0.000102981
0.000122719
0.00011165
0.000111648
0.000102991
0.000122721
0.000111651
0.000111648
0.000102987
0.000122722
0.000111651
0.000111649
0.000102989
0.000122723
0.000111652
0.00011165
0.00010299
0.000122724
0.000111654
0.000111651
0.000102991
0.000122725
0.000111656
0.000111654
0.000102992
0.000122726
0.000111658
0.000111655
0.000102991
0.000122726
0.000111658
0.000111655
0.000102991
0.000122728
0.000111658
0.000111655
0.000102992
0.000122729
0.000111658
0.000111655
0.000102991
0.000122729
0.000111658
0.000111655
0.000102991
0.000122729
0.000111658
0.000111655
0.000102993
0.000122729
0.000111658
0.000111655
0.000102993
0.000122729
0.000111658
0.000111655
0.000102994
0.000122729
0.000111658
0.000111655
0.000102994
0.000122729
0.000111657
0.000111655
0.000102994
0.000122729
0.000111658
0.000111654
0.000102994
0.000122729
0.000111658
0.000111654
0.000102995
0.000122728
0.000111658
0.000111654
0.000102995
0.000122728
0.000111659
0.000111654
0.000102995
0.000122728
0.000111659
0.000111654
0.000102995
0.000122728
0.000111659
0.000111655
0.000102995
0.000122728
0.000111659
0.000111655
0.000102995
0.000122729
0.000111659
0.000111654
0.000102995
0.00012273
0.000111659
0.000111654
0.000102995
0.000122729
0.000111659
0.000111655
0.000102995
0.000122729
0.000111659
0.000111655
0.000102995
0.000122729
0.000111659
0.000111655
0.000102995
0.000122729
0.000111659
0.000111654
0.000102995
0.000122729
0.000111659
0.000111655
0.000102995
0.000122729
0.000111659
0.000111655
0.000102994
0.000122729
0.000111659
0.000111655
0.000102995
0.000122729
0.000111659
0.000111655
0.000102995
0.000122729
0.000111659
0.000111655
0.000102995
0.000122729
0.000111659
0.000111655
0.000102995
0.000122729
0.000111659
0.000111655
0.000102994
0.000122729
0.000111659
0.000111655
0.000102995
0.000122729
0.000111659
0.000111655
0.000102994
0.00012273
0.000111659
0.000111655
0.000102994
0.000122729
0.000111659
0.000111655
0.000102994
0.000122729
0.000111659
0.000111655
0.000102995
0.000122729
0.000111659
0.000111654
0.000102995
0.000122729
0.000111659
0.000111654
0.000102995
0.000122729
0.000111659
0.000111654
0.000102995
0.00012273
0.000111659
0.000111654
0.000102995
0.000122729
0.000111659
0.000111654
0.000102995
0.000122729
0.000111659
0.000111654
0.000102995
0.000122729
0.000111659
0.000111655
0.000102994
0.000122729
0.000111659
0.000111655
0.000102994
0.000122729
0.000111659
0.000111655
0.000102995
0.00012273
0.000111659
0.000111654
0.000102995
0.000122729
0.000111659
0.000111654
0.000102995
0.000122729
0.000111659
0.000111654
0.000102995
0.000122729
0.000111659
0.000111655
0.000102995
0.00012273
0.000111659
0.000111655
0.000102994
0.000122729
0.00011166
0.000111655
0.000102995
0.000122729
0.00011166
0.000111655
0.000102995
0.000122729
0.00011166
0.000111655
0.000102995
0.000122729
0.00011166
0.000111655
0.000102995
0.000122729
0.00011166
0.000111655
0.000102995
0.000122729
0.000111661
0.000111656
0.000102995
0.000122729
0.000111661
0.000111656
0.000102996
0.00012273
0.000111662
0.000111657
0.000102996
0.00012273
0.000111663
0.000111658
0.000102996
0.00012273
0.000111666
0.000111661
0.000102997
0.00012273
0.00011167
0.000111665
0.000103
0.000122731
0.000111678
0.000111673
0.000103004
0.000122732
0.000111692
0.000111688
0.000103009
0.00012273
0.000111685
0.00011168
0.000103019
0.000123181
0.000112406
0.000112403
0.000103974
2.13385e-06
5.41615e-06
4.98207e-06
2.54252e-06
4.84084e-06
5.81376e-06
5.37246e-05
5.36811e-05
5.36536e-05
5.36369e-05
5.78492e-06
4.99897e-06
2.64262e-06
5.03948e-06
5.1519e-06
2.74264e-06
2.14546e-06
2.42845e-06
7.41431e-06
6.94961e-06
8.00937e-06
7.50019e-06
2.56072e-06
2.75697e-06
6.94639e-06
7.97388e-06
7.72001e-06
8.56976e-06
6.86646e-06
8.63436e-06
7.45666e-06
2.59767e-06
2.4912e-06
7.00497e-06
7.62832e-06
7.58034e-06
2.90038e-06
2.4293e-06
2.83082e-06
8.3144e-06
7.78092e-06
9.29188e-06
9.01305e-06
2.76352e-06
3.0834e-06
8.10745e-06
8.88621e-06
9.21774e-06
9.8936e-06
7.75346e-06
1.01085e-05
8.7062e-06
2.46384e-06
2.55741e-06
7.88725e-06
8.91843e-06
8.96011e-06
3.06186e-06
2.82614e-06
3.2964e-06
9.64361e-06
9.35295e-06
1.08e-05
1.03554e-05
3.07542e-06
3.43023e-06
9.60657e-06
1.02256e-05
1.08907e-05
1.12828e-05
9.03126e-06
1.17542e-05
1.00355e-05
2.54155e-06
2.81886e-06
9.3477e-06
1.04424e-05
1.06484e-05
3.28469e-06
3.28927e-06
3.85789e-06
1.12176e-05
1.07512e-05
1.25877e-05
1.1976e-05
3.41525e-06
3.76945e-06
1.13308e-05
1.16478e-05
1.26822e-05
1.28912e-05
1.03892e-05
1.33053e-05
1.15438e-05
2.80068e-06
3.2643e-06
1.11123e-05
1.20841e-05
1.30563e-05
3.61873e-06
3.85114e-06
4.58254e-06
1.30783e-05
1.23967e-05
1.46805e-05
1.38652e-05
3.74544e-06
4.23179e-06
1.31393e-05
1.33158e-05
1.45574e-05
1.4639e-05
1.19429e-05
1.47575e-05
1.33314e-05
3.24817e-06
3.89e-06
1.36631e-05
1.40359e-05
1.46069e-05
3.95251e-06
4.57908e-06
5.49902e-06
1.52871e-05
1.43947e-05
1.70266e-05
1.60529e-05
4.21175e-06
4.93688e-06
1.50782e-05
1.51289e-05
1.67831e-05
1.66765e-05
1.38437e-05
1.65651e-05
1.56201e-05
3.88239e-06
4.8235e-06
1.47701e-05
1.62301e-05
1.64461e-05
4.68403e-06
5.49754e-06
6.66258e-06
1.75357e-05
1.66686e-05
1.90619e-05
1.86491e-05
4.93171e-06
6.17596e-06
1.73775e-05
1.7267e-05
1.91854e-05
1.90249e-05
1.63051e-05
1.88098e-05
1.82664e-05
4.82794e-06
6.1476e-06
1.69704e-05
1.8833e-05
1.87831e-05
5.88095e-06
6.6935e-06
8.51715e-06
1.96466e-05
1.94081e-05
2.15821e-05
2.18578e-05
6.21861e-06
8.26243e-06
1.9872e-05
1.96495e-05
2.2109e-05
2.20312e-05
1.89457e-05
2.15879e-05
2.11619e-05
6.18759e-06
8.22166e-06
1.94942e-05
2.18617e-05
2.17769e-05
7.90144e-06
8.59642e-06
1.11478e-05
2.23647e-05
2.27027e-05
2.51138e-05
2.53915e-05
8.3765e-06
1.11659e-05
2.29208e-05
2.28321e-05
2.55849e-05
2.53287e-05
2.19361e-05
2.51701e-05
2.45776e-05
8.32293e-06
1.10591e-05
2.26086e-05
2.53958e-05
2.52573e-05
1.07217e-05
1.12815e-05
1.43266e-05
2.60743e-05
2.6319e-05
2.9118e-05
2.92444e-05
1.12953e-05
1.42482e-05
2.65106e-05
2.63399e-05
2.94064e-05
2.95574e-05
2.56065e-05
2.92873e-05
2.88043e-05
1.12002e-05
1.42012e-05
2.6189e-05
2.93171e-05
2.92401e-05
1.39249e-05
1.44517e-05
1.76342e-05
3.02121e-05
3.0335e-05
3.34979e-05
3.36676e-05
1.43773e-05
1.77014e-05
3.04701e-05
3.06539e-05
3.36315e-05
3.38237e-05
2.99102e-05
3.36656e-05
3.3204e-05
1.43244e-05
1.76314e-05
3.03303e-05
3.363e-05
3.34888e-05
1.74631e-05
1.78016e-05
2.21671e-05
3.46665e-05
3.48301e-05
3.86154e-05
3.87876e-05
1.78802e-05
2.22648e-05
3.47412e-05
3.49318e-05
3.86989e-05
3.87937e-05
3.43509e-05
3.86853e-05
3.83473e-05
1.78131e-05
2.22997e-05
3.46224e-05
3.88078e-05
3.85733e-05
2.19832e-05
2.24527e-05
2.80536e-05
3.99099e-05
4.00903e-05
4.40029e-05
4.40941e-05
2.25468e-05
2.81025e-05
4.00236e-05
4.00828e-05
4.40071e-05
4.40609e-05
3.97031e-05
4.40405e-05
4.38918e-05
2.25724e-05
2.83059e-05
3.98854e-05
4.42468e-05
4.39787e-05
2.78915e-05
2.79855e-05
3.47081e-05
4.55573e-05
4.56105e-05
5.03116e-05
5.03444e-05
2.80318e-05
3.47337e-05
4.55183e-05
4.5587e-05
5.03802e-05
5.04025e-05
4.54527e-05
5.0385e-05
5.02292e-05
2.82039e-05
3.4971e-05
4.55351e-05
5.04474e-05
5.03522e-05
3.46409e-05
3.50862e-05
4.21459e-05
5.18471e-05
5.18981e-05
5.66968e-05
5.68025e-05
3.51062e-05
4.21614e-05
5.19585e-05
5.19544e-05
5.67543e-05
5.67594e-05
5.1776e-05
5.6737e-05
5.66668e-05
3.5325e-05
4.22789e-05
5.19019e-05
5.69033e-05
5.6738e-05
4.21425e-05
4.32783e-05
5.07736e-05
5.85331e-05
5.86389e-05
6.42291e-05
6.42738e-05
4.32971e-05
5.07944e-05
5.85398e-05
5.8569e-05
6.41746e-05
6.4229e-05
5.85128e-05
6.42422e-05
6.41982e-05
4.33917e-05
5.08415e-05
5.85631e-05
6.43999e-05
6.42328e-05
5.07669e-05
5.21263e-05
5.95211e-05
6.60452e-05
6.60628e-05
7.17889e-05
7.17613e-05
5.21283e-05
5.94598e-05
6.60016e-05
6.60492e-05
7.17922e-05
7.182e-05
6.60028e-05
7.17785e-05
7.17291e-05
5.2184e-05
5.95922e-05
6.60415e-05
7.19016e-05
7.17691e-05
5.94343e-05
6.1004e-05
7.03919e-05
7.39881e-05
7.39571e-05
8.08468e-05
8.08245e-05
6.09428e-05
7.03612e-05
7.39996e-05
7.4024e-05
8.08626e-05
8.08769e-05
7.39309e-05
8.08418e-05
8.08106e-05
6.108e-05
7.04488e-05
7.39666e-05
8.09204e-05
8.08319e-05
7.03477e-05
7.22809e-05
8.18313e-05
8.30113e-05
8.29929e-05
8.95709e-05
8.95626e-05
7.22565e-05
8.18273e-05
8.30253e-05
8.30352e-05
8.95817e-05
8.95786e-05
8.29825e-05
8.95794e-05
8.95604e-05
7.23293e-05
8.18448e-05
8.30001e-05
8.96034e-05
8.95725e-05
8.18197e-05
8.36229e-05
9.26648e-05
9.19887e-05
9.19825e-05
9.95231e-05
9.95192e-05
8.36212e-05
9.26671e-05
9.19987e-05
9.19927e-05
9.95305e-05
9.95192e-05
9.19821e-05
9.95373e-05
9.95239e-05
8.36326e-05
9.26661e-05
9.19932e-05
9.95396e-05
9.95329e-05
9.26621e-05
9.41697e-05
9.98671e-05
0.000101834
0.00010183
0.000107285
0.000107281
9.41721e-05
9.98691e-05
0.000101841
0.000101829
0.000107292
0.000107277
0.000101836
0.0001073
0.000107287
9.41702e-05
9.98632e-05
0.000101845
0.000107297
0.000107297
9.98642e-05
0.000100598
0.000102441
0.000108519
0.000108514
0.000110629
0.000110623
0.0001006
0.000102442
0.000108526
0.00010851
0.000110636
0.000110619
0.000108522
0.000110643
0.000110632
0.000100593
0.000102437
0.000108531
0.00011064
0.000110642
0.000102441
0.000102531
0.000102928
0.000110968
0.000110962
0.000111458
0.00011145
0.000102533
0.000102929
0.000110975
0.000110957
0.000111464
0.000111446
0.000110971
0.00011147
0.00011146
0.000102528
0.000102923
0.000110981
0.000111468
0.00011147
0.000102927
0.000102903
0.000103029
0.000111524
0.000111516
0.000111613
0.000111604
0.000102904
0.00010303
0.00011153
0.000111512
0.000111619
0.0001116
0.000111526
0.000111624
0.000111613
0.000102899
0.000103024
0.000111535
0.000111622
0.000111623
0.000103027
0.000102983
0.000103053
0.000111625
0.000111616
0.000111638
0.00011163
0.000102983
0.000103053
0.000111631
0.000111612
0.000111645
0.000111626
0.000111625
0.00011165
0.000111638
0.000102978
0.000103047
0.000111634
0.000111647
0.000111646
0.000103049
0.000102994
0.000103046
0.000111639
0.000111631
0.000111639
0.000111631
0.000102995
0.000103047
0.000111646
0.000111627
0.000111646
0.000111627
0.000111638
0.000111651
0.000111638
0.000102989
0.000103041
0.000111647
0.000111648
0.000111646
0.000103042
0.000102991
0.00010305
0.00011164
0.000111631
0.00011164
0.000111631
0.000102992
0.00010305
0.000111646
0.000111627
0.000111647
0.000111627
0.000111638
0.000111651
0.000111639
0.000102986
0.000103044
0.000111647
0.000111649
0.000111647
0.000103046
0.000102994
0.00010305
0.000111641
0.000111631
0.000111642
0.000111632
0.000102994
0.00010305
0.000111647
0.000111628
0.000111648
0.000111628
0.000111639
0.000111652
0.00011164
0.000102988
0.000103044
0.000111647
0.000111649
0.000111647
0.000103045
0.000102994
0.000103052
0.000111642
0.000111632
0.000111644
0.000111634
0.000102994
0.000103051
0.000111648
0.000111628
0.00011165
0.00011163
0.00011164
0.000111653
0.000111642
0.000102989
0.000103046
0.000111648
0.000111651
0.000111649
0.000103047
0.000102996
0.000103052
0.000111644
0.000111634
0.000111646
0.000111636
0.000102996
0.000103053
0.00011165
0.00011163
0.000111652
0.000111633
0.000111642
0.000111655
0.000111644
0.00010299
0.000103047
0.00011165
0.000111653
0.000111651
0.000103047
0.000102996
0.000103052
0.000111646
0.000111637
0.000111646
0.000111637
0.000102997
0.000103053
0.000111653
0.000111633
0.000111654
0.000111634
0.000111644
0.000111658
0.000111644
0.000102991
0.000103047
0.000111651
0.000111655
0.000111651
0.000103047
0.000102996
0.000103052
0.000111646
0.000111637
0.000111646
0.000111637
0.000102997
0.000103053
0.000111654
0.000111634
0.000111654
0.000111634
0.000111645
0.000111658
0.000111644
0.000102992
0.000103046
0.000111651
0.000111655
0.000111651
0.000103047
0.000102996
0.000103052
0.000111646
0.000111637
0.000111646
0.000111637
0.000102997
0.000103053
0.000111654
0.000111634
0.000111654
0.000111634
0.000111644
0.000111658
0.000111644
0.000102991
0.000103047
0.000111652
0.000111655
0.000111652
0.000103047
0.000102996
0.000103053
0.000111647
0.000111637
0.000111647
0.000111636
0.000102997
0.000103054
0.000111654
0.000111634
0.000111654
0.000111634
0.000111645
0.000111658
0.000111644
0.000102991
0.000103047
0.000111652
0.000111655
0.000111652
0.000103047
0.000102997
0.000103053
0.000111647
0.000111636
0.000111647
0.000111636
0.000102998
0.000103054
0.000111654
0.000111634
0.000111654
0.000111634
0.000111645
0.000111658
0.000111644
0.000102992
0.000103047
0.000111652
0.000111655
0.000111651
0.000103048
0.000102997
0.000103052
0.000111647
0.000111636
0.000111647
0.000111636
0.000102998
0.000103053
0.000111654
0.000111634
0.000111654
0.000111634
0.000111644
0.000111658
0.000111644
0.000102992
0.000103046
0.000111651
0.000111655
0.000111651
0.000103049
0.000102997
0.000103052
0.000111647
0.000111637
0.000111646
0.000111637
0.000102997
0.000103053
0.000111654
0.000111634
0.000111654
0.000111634
0.000111644
0.000111658
0.000111644
0.000102991
0.000103047
0.000111651
0.000111655
0.000111651
0.00010305
0.000102996
0.000103052
0.000111647
0.000111637
0.000111646
0.000111636
0.000102997
0.000103054
0.000111654
0.000111634
0.000111654
0.000111634
0.000111645
0.000111658
0.000111645
0.000102991
0.000103047
0.000111652
0.000111655
0.000111651
0.000103049
0.000102996
0.000103052
0.000111647
0.000111637
0.000111646
0.000111636
0.000102997
0.000103054
0.000111654
0.000111634
0.000111654
0.000111634
0.000111645
0.000111658
0.000111645
0.000102991
0.000103047
0.000111652
0.000111655
0.000111651
0.00010305
0.000102996
0.000103052
0.000111646
0.000111636
0.000111646
0.000111636
0.000102998
0.000103054
0.000111654
0.000111634
0.000111654
0.000111633
0.000111645
0.000111658
0.000111645
0.000102992
0.000103047
0.000111652
0.000111655
0.000111652
0.00010305
0.000102996
0.000103052
0.000111646
0.000111637
0.000111646
0.000111637
0.000102998
0.000103053
0.000111654
0.000111634
0.000111654
0.000111634
0.000111645
0.000111658
0.000111645
0.000102991
0.000103047
0.000111652
0.000111654
0.000111651
0.00010305
0.000102996
0.000103052
0.000111646
0.000111637
0.000111646
0.000111637
0.000102998
0.000103053
0.000111654
0.000111634
0.000111654
0.000111633
0.000111645
0.000111658
0.000111644
0.000102991
0.000103047
0.000111651
0.000111654
0.000111651
0.000103051
0.000102997
0.000103052
0.000111646
0.000111637
0.000111646
0.000111638
0.000102997
0.000103053
0.000111654
0.000111634
0.000111654
0.000111633
0.000111644
0.000111658
0.000111644
0.000102991
0.000103046
0.000111651
0.000111654
0.000111651
0.000103051
0.000102996
0.000103051
0.000111646
0.000111638
0.000111646
0.000111638
0.000102997
0.000103053
0.000111654
0.000111634
0.000111654
0.000111634
0.000111645
0.000111659
0.000111645
0.000102991
0.000103046
0.000111652
0.000111654
0.000111651
0.00010305
0.000102996
0.000103051
0.000111647
0.000111638
0.000111646
0.000111638
0.000102997
0.000103053
0.000111654
0.000111634
0.000111654
0.000111634
0.000111645
0.000111659
0.000111645
0.000102991
0.000103046
0.000111651
0.000111655
0.000111651
0.00010305
0.000102996
0.000103051
0.000111647
0.000111638
0.000111647
0.000111638
0.000102997
0.000103053
0.000111654
0.000111634
0.000111653
0.000111634
0.000111645
0.000111659
0.000111645
0.000102991
0.000103046
0.000111651
0.000111655
0.000111651
0.000103051
0.000102996
0.000103052
0.000111647
0.000111638
0.000111647
0.000111638
0.000102997
0.000103053
0.000111653
0.000111634
0.000111653
0.000111634
0.000111645
0.000111659
0.000111645
0.000102991
0.000103046
0.000111652
0.000111655
0.000111651
0.000103051
0.000102996
0.000103052
0.000111647
0.000111638
0.000111647
0.000111638
0.000102997
0.000103053
0.000111653
0.000111634
0.000111653
0.000111634
0.000111645
0.000111659
0.000111644
0.000102991
0.000103047
0.000111651
0.000111655
0.000111651
0.000103051
0.000102996
0.000103052
0.000111647
0.000111638
0.000111647
0.000111638
0.000102997
0.000103053
0.000111653
0.000111634
0.000111653
0.000111634
0.000111645
0.000111659
0.000111644
0.000102991
0.000103047
0.000111651
0.000111654
0.000111651
0.000103051
0.000102996
0.000103052
0.000111647
0.000111638
0.000111647
0.000111638
0.000102997
0.000103053
0.000111654
0.000111634
0.000111654
0.000111634
0.000111645
0.000111659
0.000111644
0.000102991
0.000103047
0.000111651
0.000111655
0.000111651
0.000103051
0.000102997
0.000103052
0.000111648
0.000111638
0.000111647
0.000111638
0.000102997
0.000103053
0.000111654
0.000111634
0.000111654
0.000111634
0.000111644
0.000111659
0.000111644
0.000102991
0.000103047
0.000111651
0.000111655
0.000111651
0.000103051
0.000102997
0.000103052
0.000111648
0.000111638
0.000111647
0.000111638
0.000102998
0.000103053
0.000111654
0.000111634
0.000111654
0.000111634
0.000111645
0.000111659
0.000111645
0.000102991
0.000103046
0.000111651
0.000111655
0.000111651
0.000103051
0.000102997
0.000103052
0.000111648
0.000111638
0.000111648
0.000111638
0.000102998
0.000103053
0.000111654
0.000111634
0.000111654
0.000111634
0.000111645
0.000111659
0.000111645
0.000102991
0.000103046
0.000111651
0.000111654
0.000111651
0.000103051
0.000102997
0.000103052
0.000111648
0.000111638
0.000111648
0.000111638
0.000102998
0.000103053
0.000111654
0.000111634
0.000111654
0.000111634
0.000111645
0.000111659
0.000111644
0.000102991
0.000103046
0.000111651
0.000111655
0.000111651
0.00010305
0.000102997
0.000103052
0.000111648
0.000111638
0.000111648
0.000111638
0.000102998
0.000103053
0.000111654
0.000111634
0.000111654
0.000111634
0.000111645
0.000111659
0.000111645
0.000102991
0.000103046
0.000111651
0.000111655
0.000111651
0.00010305
0.000102997
0.000103052
0.000111648
0.000111638
0.000111648
0.000111638
0.000102998
0.000103053
0.000111654
0.000111634
0.000111653
0.000111633
0.000111645
0.000111659
0.000111645
0.000102991
0.000103047
0.000111651
0.000111655
0.000111651
0.000103051
0.000102997
0.000103052
0.000111648
0.000111638
0.000111648
0.000111638
0.000102998
0.000103053
0.000111654
0.000111634
0.000111653
0.000111633
0.000111645
0.000111659
0.000111645
0.000102991
0.000103047
0.000111651
0.000111655
0.000111651
0.000103051
0.000102997
0.000103052
0.000111648
0.000111638
0.000111648
0.000111638
0.000102998
0.000103053
0.000111653
0.000111634
0.000111653
0.000111634
0.000111645
0.000111659
0.000111645
0.000102991
0.000103046
0.000111651
0.000111655
0.000111651
0.000103051
0.000102997
0.000103052
0.000111648
0.000111638
0.000111648
0.000111638
0.000102998
0.000103053
0.000111653
0.000111634
0.000111653
0.000111634
0.000111645
0.000111659
0.000111644
0.000102991
0.000103046
0.000111651
0.000111655
0.000111651
0.000103051
0.000102997
0.000103052
0.000111648
0.000111638
0.000111648
0.000111638
0.000102998
0.000103053
0.000111653
0.000111634
0.000111653
0.000111634
0.000111645
0.000111659
0.000111644
0.000102991
0.000103046
0.000111651
0.000111655
0.000111651
0.00010305
0.000102997
0.000103052
0.000111648
0.000111638
0.000111648
0.000111638
0.000102998
0.000103053
0.000111653
0.000111634
0.000111653
0.000111634
0.000111644
0.000111659
0.000111644
0.000102991
0.000103046
0.000111651
0.000111655
0.000111651
0.000103051
0.000102997
0.000103052
0.000111648
0.000111638
0.000111648
0.000111638
0.000102998
0.000103053
0.000111653
0.000111634
0.000111653
0.000111634
0.000111644
0.000111659
0.000111644
0.000102991
0.000103046
0.000111651
0.000111655
0.00011165
0.00010305
0.000102997
0.000103052
0.000111648
0.000111638
0.000111648
0.000111638
0.000102998
0.000103053
0.000111653
0.000111634
0.000111653
0.000111633
0.000111644
0.000111659
0.000111644
0.000102991
0.000103047
0.000111651
0.000111655
0.000111651
0.00010305
0.000102997
0.000103052
0.000111648
0.000111638
0.000111648
0.000111638
0.000102998
0.000103053
0.000111653
0.000111633
0.000111653
0.000111633
0.000111645
0.000111659
0.000111645
0.000102991
0.000103047
0.000111651
0.000111655
0.000111651
0.00010305
0.000102997
0.000103052
0.000111648
0.000111638
0.000111648
0.000111638
0.000102998
0.000103053
0.000111653
0.000111634
0.000111653
0.000111633
0.000111645
0.000111659
0.000111644
0.000102991
0.000103046
0.000111651
0.000111655
0.000111651
0.000103051
0.000102997
0.000103052
0.000111648
0.000111638
0.000111648
0.000111638
0.000102998
0.000103053
0.000111653
0.000111634
0.000111653
0.000111633
0.000111644
0.000111659
0.000111644
0.000102991
0.000103046
0.000111651
0.000111655
0.00011165
0.000103051
0.000102997
0.000103052
0.000111648
0.000111638
0.000111648
0.000111638
0.000102998
0.000103053
0.000111653
0.000111634
0.000111653
0.000111634
0.000111645
0.000111659
0.000111645
0.000102991
0.000103046
0.000111651
0.000111654
0.000111651
0.000103051
0.000102997
0.000103052
0.000111648
0.000111638
0.000111648
0.000111638
0.000102998
0.000103053
0.000111653
0.000111634
0.000111653
0.000111634
0.000111645
0.000111659
0.000111645
0.000102991
0.000103047
0.000111651
0.000111654
0.000111651
0.00010305
0.000102997
0.000103052
0.000111648
0.000111638
0.000111648
0.000111638
0.000102998
0.000103053
0.000111653
0.000111634
0.000111653
0.000111634
0.000111645
0.000111659
0.000111645
0.000102991
0.000103047
0.000111651
0.000111654
0.00011165
0.00010305
0.000102997
0.000103052
0.000111648
0.000111638
0.000111648
0.000111638
0.000102998
0.000103053
0.000111653
0.000111634
0.000111653
0.000111634
0.000111645
0.000111659
0.000111644
0.000102991
0.000103046
0.00011165
0.000111654
0.00011165
0.000103051
0.000102997
0.000103052
0.000111648
0.000111638
0.000111648
0.000111638
0.000102998
0.000103053
0.000111653
0.000111634
0.000111653
0.000111633
0.000111644
0.000111659
0.000111644
0.000102991
0.000103046
0.00011165
0.000111654
0.00011165
0.00010305
0.000102997
0.000103052
0.000111648
0.000111638
0.000111648
0.000111638
0.000102998
0.000103053
0.000111653
0.000111634
0.000111653
0.000111633
0.000111644
0.000111659
0.000111644
0.000102991
0.000103047
0.000111651
0.000111655
0.000111651
0.00010305
0.000102997
0.000103052
0.000111648
0.000111638
0.000111648
0.000111638
0.000102998
0.000103053
0.000111653
0.000111634
0.000111653
0.000111633
0.000111645
0.000111659
0.000111644
0.000102991
0.000103047
0.000111651
0.000111655
0.000111651
0.00010305
0.000102997
0.000103052
0.000111648
0.000111638
0.000111648
0.000111638
0.000102998
0.000103053
0.000111653
0.000111634
0.000111653
0.000111634
0.000111645
0.000111659
0.000111644
0.000102991
0.000103046
0.000111651
0.000111655
0.000111651
0.000103051
0.000102997
0.000103052
0.000111648
0.000111638
0.000111648
0.000111638
0.000102998
0.000103053
0.000111653
0.000111633
0.000111653
0.000111633
0.000111644
0.000111659
0.000111644
0.000102991
0.000103046
0.000111651
0.000111654
0.00011165
0.00010305
0.000102997
0.000103052
0.000111648
0.000111638
0.000111648
0.000111638
0.000102998
0.000103053
0.000111653
0.000111633
0.000111654
0.000111634
0.000111644
0.000111659
0.000111644
0.000102991
0.000103046
0.00011165
0.000111654
0.000111651
0.000103051
0.000102997
0.000103052
0.000111648
0.000111638
0.000111648
0.000111638
0.000102998
0.000103053
0.000111654
0.000111634
0.000111654
0.000111634
0.000111644
0.000111659
0.000111645
0.000102991
0.000103047
0.000111651
0.000111654
0.000111651
0.000103051
0.000102997
0.000103052
0.000111648
0.000111638
0.000111648
0.000111638
0.000102998
0.000103053
0.000111654
0.000111634
0.000111654
0.000111634
0.000111645
0.000111659
0.000111645
0.000102991
0.000103047
0.000111651
0.000111654
0.000111651
0.00010305
0.000102997
0.000103052
0.000111648
0.000111639
0.000111649
0.000111639
0.000102998
0.000103053
0.000111654
0.000111634
0.000111654
0.000111634
0.000111645
0.000111659
0.000111645
0.000102991
0.000103047
0.000111652
0.000111655
0.000111652
0.00010305
0.000102997
0.000103052
0.000111649
0.000111639
0.000111649
0.000111639
0.000102998
0.000103053
0.000111654
0.000111635
0.000111654
0.000111635
0.000111646
0.00011166
0.000111645
0.000102991
0.000103047
0.000111652
0.000111655
0.000111652
0.000103051
0.000102997
0.000103052
0.000111649
0.000111639
0.000111649
0.000111639
0.000102998
0.000103053
0.000111655
0.000111635
0.000111654
0.000111635
0.000111646
0.00011166
0.000111645
0.000102991
0.000103047
0.000111652
0.000111655
0.000111652
0.000103051
0.000102997
0.000103052
0.00011165
0.00011164
0.000111649
0.000111639
0.000102998
0.000103054
0.000111655
0.000111635
0.000111654
0.000111635
0.000111646
0.00011166
0.000111646
0.000102991
0.000103047
0.000111652
0.000111655
0.000111652
0.000103051
0.000102997
0.000103053
0.00011165
0.00011164
0.000111649
0.00011164
0.000102998
0.000103054
0.000111655
0.000111635
0.000111655
0.000111635
0.000111646
0.00011166
0.000111646
0.000102991
0.000103047
0.000111653
0.000111655
0.000111652
0.000103051
0.000102997
0.000103053
0.00011165
0.00011164
0.000111649
0.00011164
0.000102998
0.000103054
0.000111655
0.000111636
0.000111655
0.000111635
0.000111647
0.00011166
0.000111646
0.000102992
0.000103047
0.000111653
0.000111655
0.000111652
0.000103051
0.000102997
0.000103053
0.00011165
0.00011164
0.000111649
0.00011164
0.000102999
0.000103054
0.000111655
0.000111636
0.000111655
0.000111635
0.000111647
0.00011166
0.000111646
0.000102992
0.000103047
0.000111653
0.000111655
0.000111652
0.000103051
0.000102998
0.000103053
0.00011165
0.000111641
0.000111649
0.00011164
0.000102999
0.000103054
0.000111656
0.000111636
0.000111655
0.000111635
0.000111647
0.00011166
0.000111646
0.000102992
0.000103047
0.000111653
0.000111655
0.000111652
0.000103052
0.000102998
0.000103053
0.000111651
0.000111641
0.00011165
0.00011164
0.000102999
0.000103054
0.000111656
0.000111636
0.000111655
0.000111636
0.000111647
0.00011166
0.000111647
0.000102992
0.000103047
0.000111654
0.000111655
0.000111653
0.000103052
0.000102998
0.000103054
0.000111651
0.000111642
0.000111651
0.000111641
0.000102999
0.000103055
0.000111657
0.000111637
0.000111656
0.000111636
0.000111648
0.000111661
0.000111647
0.000102993
0.000103048
0.000111654
0.000111656
0.000111653
0.000103052
0.000102999
0.000103055
0.000111653
0.000111643
0.000111652
0.000111642
0.000103
0.000103056
0.000111658
0.000111639
0.000111658
0.000111638
0.000111649
0.000111663
0.000111649
0.000102993
0.000103049
0.000111656
0.000111658
0.000111655
0.000103053
0.000103
0.000103056
0.000111655
0.000111645
0.000111656
0.000111646
0.000103001
0.000103057
0.000111661
0.000111641
0.000111661
0.000111641
0.000111652
0.000111666
0.000111652
0.000102995
0.000103051
0.000111658
0.000111661
0.000111658
0.000103055
0.000103002
0.000103059
0.00011166
0.00011165
0.000111662
0.000111652
0.000103003
0.00010306
0.000111665
0.000111645
0.000111667
0.000111648
0.000111656
0.000111672
0.000111658
0.000102997
0.000103054
0.000111662
0.000111668
0.000111664
0.000103058
0.000103005
0.000103065
0.000111668
0.000111658
0.000111673
0.000111664
0.000103006
0.000103066
0.000111673
0.000111653
0.000111679
0.000111659
0.000111664
0.000111684
0.00011167
0.000103
0.000103059
0.00011167
0.000111679
0.000111676
0.000103063
0.000103011
0.000103076
0.000111681
0.000111673
0.000111701
0.000111693
0.000103012
0.000103077
0.000111687
0.000111668
0.000111708
0.000111689
0.000111678
0.000111712
0.000111698
0.000103005
0.00010307
0.000111685
0.000111708
0.000111706
0.000103075
0.00010302
0.000103498
0.000111674
0.000111666
0.000112301
0.000112294
0.000103021
0.000103498
0.00011168
0.00011166
0.000112306
0.00011229
0.00011167
0.000112311
0.000112298
0.000103015
0.000103493
0.000111678
0.000112307
0.000112305
0.000103493
0.000103978
0.000112398
0.000112391
0.000103978
0.000112402
0.000112388
0.000123178
0.000123177
0.000123177
0.000112394
0.000103973
0.0001124
0.000106762
3.1882e-05
7.77841e-05
7.77525e-05
6.11289e-07
6.07352e-06
2.66141e-06
5.3501e-05
4.34417e-07
5.3422e-06
5.35224e-05
2.12261e-06
2.68955e-06
3.60215e-07
1.15115e-06
9.78514e-07
1.3862e-05
9.38908e-07
1.54666e-05
1.09946e-05
1.32423e-05
9.37138e-07
1.37016e-05
8.90355e-07
1.53413e-05
5.30637e-05
5.3039e-05
5.29829e-05
5.36123e-05
5.35701e-05
5.35462e-05
5.34345e-05
5.56728e-07
1.05273e-06
2.90284e-05
8.0181e-06
5.68698e-07
1.23918e-06
2.8919e-05
1.08318e-05
1.30223e-05
5.15115e-07
2.82152e-05
7.19273e-07
7.133e-06
4.67626e-07
2.82068e-05
8.53807e-07
1.30901e-06
1.55621e-06
2.8104e-06
1.55575e-06
1.77571e-06
1.2209e-06
1.89985e-05
1.10726e-06
2.12307e-05
1.72126e-05
1.94472e-05
1.18326e-06
1.8941e-05
1.06625e-06
2.11516e-05