/*--------------------------------*- C++ -*----------------------------------*\
| =========                 |                                                 |
| \\      /  F ield         | OpenFOAM: The Open Source CFD Toolbox           |
|  \\    /   O peration     | Version:  v2012                                 |
|   \\  /    A nd           | Website:  www.openfoam.com                      |
|    \\/     M anipulation  |                                                 |
\*---------------------------------------------------------------------------*/
FoamFile
{
    version     2.0;
    format      ascii;
    class       volScalarField;
    location    "87.5";
    object      p;
}
// * * * * * * * * * * * * * * * * * * * * * * * * * * * * * * * * * * * * * //

dimensions      [0 2 -2 0 0 0 0];


internalField   nonuniform List<scalar> 
171728
(
0.00356537
0.00356524
0.00356523
0.00356711
0.00352794
0.00352747
0.00352743
0.00353049
0.0034917
0.00349092
0.00349085
0.00349313
0.00344617
0.00344548
0.00344541
0.00344822
0.00339831
0.00339767
0.00339762
0.00340036
0.00335006
0.00334945
0.00334948
0.00335218
0.00330206
0.00330154
0.00330157
0.00330434
0.00325498
0.00325457
0.00325462
0.00325737
0.00320888
0.00320858
0.00320858
0.00321138
0.0031638
0.00316355
0.00316355
0.00316634
0.00311967
0.00311945
0.00311948
0.00312217
0.00307637
0.00307621
0.00307622
0.0030789
0.00303373
0.00303359
0.00303361
0.00303625
0.0029918
0.00299171
0.00299173
0.0029943
0.00295095
0.00295085
0.00295081
0.00295337
0.00291129
0.00291122
0.00291116
0.00291366
0.00287307
0.00287303
0.00287305
0.00287548
0.00283407
0.00283394
0.00283396
0.0028365
0.00279403
0.00279377
0.00279378
0.0027964
0.00275375
0.00275348
0.00275349
0.00275601
0.00271449
0.0027143
0.0027143
0.00271669
0.00267652
0.00267643
0.00267643
0.00267866
0.00263943
0.00263937
0.00263937
0.00264155
0.00260267
0.00260262
0.00260262
0.00260479
0.00256598
0.00256593
0.00256593
0.0025681
0.00252929
0.00252924
0.00252924
0.00253142
0.00249261
0.00249256
0.00249256
0.00249474
0.00245592
0.00245588
0.00245588
0.00245805
0.00241924
0.00241919
0.00241919
0.00242137
0.00238256
0.00238251
0.00238251
0.00238468
0.00234587
0.00234582
0.00234582
0.002348
0.00230919
0.00230914
0.00230914
0.00231132
0.0022725
0.00227245
0.00227245
0.00227463
0.00223581
0.00223577
0.00223577
0.00223794
0.00219913
0.00219908
0.00219908
0.00220126
0.00216244
0.00216239
0.00216239
0.00216457
0.00212575
0.00212571
0.00212571
0.00212788
0.00208907
0.00208902
0.00208902
0.00209119
0.00205238
0.00205233
0.00205233
0.00205451
0.00201569
0.00201564
0.00201564
0.00201782
0.001979
0.00197896
0.00197896
0.00198113
0.00194232
0.00194227
0.00194227
0.00194445
0.00190563
0.00190558
0.00190558
0.00190776
0.00186894
0.0018689
0.0018689
0.00187107
0.00183226
0.00183221
0.00183221
0.00183439
0.00179557
0.00179553
0.00179553
0.0017977
0.00175889
0.00175884
0.00175884
0.00176102
0.0017222
0.00172216
0.00172216
0.00172433
0.00168551
0.00168547
0.00168547
0.00168764
0.00164883
0.00164878
0.00164878
0.00165096
0.00161214
0.00161209
0.00161209
0.00161427
0.00157545
0.00157541
0.00157541
0.00157758
0.00153876
0.00153872
0.00153872
0.00154089
0.00150208
0.00150203
0.00150203
0.0015042
0.00146539
0.00146534
0.00146534
0.00146752
0.0014287
0.00142866
0.00142866
0.00143083
0.00139202
0.00139197
0.00139197
0.00139414
0.00135533
0.00135528
0.00135528
0.00135746
0.00131864
0.0013186
0.0013186
0.00132077
0.00128196
0.00128191
0.00128191
0.00128409
0.00124527
0.00124523
0.00124523
0.0012474
0.00120859
0.00120854
0.00120854
0.00121072
0.0011719
0.00117185
0.00117185
0.00117403
0.00113521
0.00113517
0.00113517
0.00113734
0.00109853
0.00109848
0.00109848
0.00110066
0.00106184
0.00106179
0.00106179
0.00106397
0.00102515
0.00102511
0.00102511
0.00102728
0.000988467
0.000988421
0.00098842
0.000990596
0.00095178
0.000951734
0.000951733
0.000953908
0.000915093
0.000915047
0.000915047
0.000917222
0.000878406
0.00087836
0.000878361
0.000880536
0.00084172
0.000841673
0.000841673
0.000843848
0.000805033
0.000804986
0.000804986
0.000807161
0.000768346
0.0007683
0.0007683
0.000770475
0.000731659
0.000731613
0.000731613
0.000733788
0.000694972
0.000694926
0.000694926
0.000697101
0.000658286
0.00065824
0.00065824
0.000660414
0.000621599
0.000621553
0.000621553
0.000623728
0.000584913
0.000584867
0.000584866
0.000587041
0.000548226
0.00054818
0.00054818
0.000550354
0.000511539
0.000511493
0.000511493
0.000513668
0.000474852
0.000474806
0.000474806
0.00047698
0.000438165
0.000438118
0.000438118
0.000440293
0.000401478
0.000401431
0.000401431
0.000403606
0.00036479
0.000364744
0.000364744
0.000366918
0.000328103
0.000328057
0.000328057
0.00033023
0.000291416
0.000291369
0.000291369
0.000293541
0.000254728
0.000254682
0.000254682
0.000256851
0.000218038
0.000217993
0.000217993
0.000220158
0.000181345
0.000181302
0.000181302
0.000183461
0.000144646
0.000144607
0.000144607
0.000146753
0.00010793
0.000107901
0.0001079
0.000110029
7.12212e-05
7.1181e-05
7.11794e-05
7.32821e-05
3.5376e-05
3.48736e-05
3.48699e-05
3.67314e-05
5.27114e-06
4.88601e-06
4.88611e-06
4.87904e-06
0.0035727
0.00357182
0.00357182
0.00357273
0.0035718
0.0035718
0.0035747
0.0035747
0.00357471
0.00357473
0.00357184
0.00357186
0.00357273
0.00357183
0.00357188
0.00357276
0.00356705
0.00353461
0.00356519
0.00356524
0.00353594
0.00353588
0.00356709
0.0035346
0.00356518
0.00356519
0.003536
0.00353599
0.00356522
0.00353597
0.00353601
0.00356704
0.00353459
0.00356525
0.00353595
0.00353601
0.00353461
0.00353048
0.0034985
0.00352745
0.00352736
0.00350085
0.00350084
0.0035305
0.00349849
0.00352735
0.00352742
0.00350093
0.00350085
0.00352744
0.00350086
0.00350086
0.00353047
0.00349849
0.00352746
0.00350086
0.00350096
0.00349846
0.00349317
0.00345433
0.00349092
0.00349088
0.00345743
0.00345735
0.00349316
0.00345432
0.00349082
0.00349086
0.00345744
0.00345745
0.00349089
0.00345733
0.00345733
0.00349314
0.00345431
0.00349088
0.0034574
0.00345738
0.00345435
0.00344823
0.0034066
0.00344545
0.00344544
0.00340961
0.00340965
0.00344822
0.00340659
0.00344545
0.00344537
0.00340952
0.00340957
0.0034455
0.00340969
0.00340971
0.00344818
0.00340656
0.00344555
0.00340966
0.00340978
0.00340653
0.00340043
0.00335841
0.00339768
0.00339765
0.00336159
0.00336155
0.0034004
0.00335843
0.00339774
0.00339775
0.00336163
0.00336166
0.00339765
0.00336155
0.00336152
0.00340041
0.00335843
0.00339759
0.00336152
0.00336154
0.00335839
0.00335223
0.00331045
0.00334954
0.00334947
0.00331354
0.00331345
0.00335224
0.00331046
0.00334951
0.00334939
0.00331353
0.00331345
0.00334952
0.00331342
0.00331346
0.00335223
0.00331048
0.00334936
0.00331345
0.00331347
0.00331044
0.00330435
0.00326335
0.00330158
0.00330156
0.00326634
0.00326624
0.00330436
0.00326335
0.00330152
0.00330133
0.00326623
0.0032661
0.00330158
0.00326624
0.00326632
0.00330434
0.00326339
0.00330142
0.00326626
0.00326614
0.00326334
0.00325738
0.00321717
0.00325462
0.00325457
0.00322
0.00321997
0.00325737
0.00321717
0.00325455
0.00325438
0.00321991
0.00321998
0.00325451
0.00321997
0.00322009
0.00325738
0.00321724
0.00325455
0.00321996
0.00321995
0.00321721
0.00321132
0.00317201
0.00320857
0.00320856
0.00317465
0.00317472
0.00321134
0.00317202
0.00320855
0.00320851
0.00317466
0.00317483
0.00320855
0.00317473
0.00317472
0.00321139
0.00317197
0.00320863
0.0031747
0.00317477
0.00317203
0.0031663
0.00312779
0.0031635
0.00316357
0.00313042
0.00313042
0.00316632
0.00312782
0.00316358
0.00316364
0.00313036
0.00313032
0.00316357
0.00313041
0.00313032
0.00316631
0.00312781
0.00316356
0.00313045
0.00313049
0.00312774
0.0031222
0.00308439
0.00311949
0.00311948
0.00308698
0.00308698
0.00312222
0.00308442
0.00311948
0.00311944
0.00308695
0.00308699
0.0031194
0.00308698
0.00308699
0.00312221
0.00308441
0.00311948
0.00308698
0.00308699
0.0030844
0.00307889
0.00304169
0.00307623
0.00307621
0.00304419
0.00304419
0.00307891
0.00304169
0.00307622
0.00307624
0.00304419
0.0030442
0.00307622
0.00304419
0.00304418
0.0030789
0.00304171
0.00307623
0.0030442
0.0030442
0.00304169
0.00303626
0.0029996
0.0030336
0.00303359
0.00300205
0.00300206
0.00303626
0.0029996
0.0030336
0.0030336
0.00300206
0.00300206
0.00303358
0.00300207
0.00300207
0.00303627
0.00299962
0.00303361
0.00300207
0.00300203
0.00299962
0.00299429
0.00295857
0.00299171
0.0029917
0.00296099
0.00296097
0.00299428
0.00295857
0.00299169
0.00299168
0.00296099
0.00296098
0.00299172
0.00296099
0.002961
0.0029943
0.00295857
0.00299168
0.00296095
0.002961
0.00295859
0.00295335
0.00291866
0.00295084
0.00295082
0.00292092
0.00292091
0.00295335
0.00291866
0.00295086
0.00295084
0.00292092
0.00292091
0.00295086
0.00292093
0.00292093
0.00295335
0.0029186
0.00295086
0.00292088
0.00292093
0.00291867
0.00291366
0.00288039
0.00291121
0.00291121
0.00288257
0.00288258
0.00291366
0.00288039
0.0029112
0.00291119
0.00288257
0.00288256
0.00291122
0.00288257
0.00288257
0.00291361
0.00288039
0.00291121
0.00288256
0.00288256
0.00288037
0.0028755
0.00284162
0.00287301
0.00287305
0.00284384
0.00284384
0.00287549
0.00284162
0.00287305
0.00287302
0.00284384
0.00284385
0.00287304
0.00284383
0.00284383
0.00287551
0.00284164
0.00287302
0.00284386
0.00284383
0.00284161
0.00283651
0.00280167
0.00283395
0.00283395
0.00280389
0.00280389
0.0028365
0.00280167
0.00283395
0.00283396
0.00280389
0.0028039
0.00283394
0.00280389
0.00280389
0.00283652
0.00280168
0.00283395
0.0028039
0.00280389
0.00280167
0.0027964
0.00276122
0.00279377
0.00279377
0.00276348
0.00276348
0.0027964
0.00276122
0.00279378
0.00279378
0.00276348
0.00276348
0.00279377
0.00276348
0.00276348
0.00279641
0.00276122
0.00279378
0.00276348
0.00276348
0.00276122
0.00275601
0.00272176
0.00275348
0.00275348
0.00272397
0.00272397
0.00275601
0.00272176
0.00275349
0.00275349
0.00272397
0.00272397
0.00275349
0.00272397
0.00272397
0.00275601
0.00272176
0.00275349
0.00272397
0.00272397
0.00272176
0.00271669
0.00268358
0.0027143
0.0027143
0.00268579
0.00268579
0.00271669
0.00268358
0.0027143
0.0027143
0.00268579
0.00268579
0.0027143
0.00268579
0.00268579
0.00271669
0.00268358
0.0027143
0.00268579
0.00268579
0.00268358
0.00267866
0.0026464
0.00267643
0.00267643
0.00264859
0.00264859
0.00267866
0.0026464
0.00267643
0.00267643
0.00264859
0.00264859
0.00267643
0.00264859
0.00264859
0.00267866
0.0026464
0.00267643
0.00264859
0.00264859
0.0026464
0.00264155
0.00260962
0.00263937
0.00263937
0.0026118
0.00261179
0.00264155
0.00260962
0.00263937
0.00263937
0.00261179
0.0026118
0.00263937
0.0026118
0.0026118
0.00264155
0.00260962
0.00263937
0.0026118
0.0026118
0.00260962
0.00260479
0.00257293
0.00260262
0.00260262
0.0025751
0.0025751
0.00260479
0.00257293
0.00260262
0.00260262
0.0025751
0.0025751
0.00260262
0.0025751
0.0025751
0.00260479
0.00257293
0.00260262
0.0025751
0.0025751
0.00257293
0.0025681
0.00253625
0.00256593
0.00256593
0.00253842
0.00253842
0.0025681
0.00253625
0.00256593
0.00256593
0.00253842
0.00253842
0.00256593
0.00253842
0.00253842
0.0025681
0.00253625
0.00256593
0.00253842
0.00253842
0.00253625
0.00253142
0.00249956
0.00252924
0.00252924
0.00250173
0.00250173
0.00253142
0.00249956
0.00252924
0.00252924
0.00250173
0.00250173
0.00252924
0.00250173
0.00250173
0.00253142
0.00249956
0.00252924
0.00250173
0.00250173
0.00249956
0.00249474
0.00246288
0.00249256
0.00249256
0.00246505
0.00246505
0.00249474
0.00246288
0.00249256
0.00249256
0.00246505
0.00246505
0.00249256
0.00246505
0.00246505
0.00249474
0.00246288
0.00249256
0.00246505
0.00246505
0.00246288
0.00245805
0.00242619
0.00245588
0.00245588
0.00242836
0.00242836
0.00245805
0.00242619
0.00245588
0.00245588
0.00242836
0.00242836
0.00245588
0.00242836
0.00242836
0.00245805
0.00242619
0.00245588
0.00242836
0.00242836
0.00242619
0.00242137
0.00238951
0.00241919
0.00241919
0.00239168
0.00239168
0.00242137
0.00238951
0.00241919
0.00241919
0.00239168
0.00239168
0.00241919
0.00239168
0.00239168
0.00242137
0.00238951
0.00241919
0.00239168
0.00239168
0.00238951
0.00238468
0.00235283
0.00238251
0.00238251
0.002355
0.002355
0.00238468
0.00235283
0.00238251
0.00238251
0.002355
0.002355
0.00238251
0.002355
0.002355
0.00238468
0.00235283
0.00238251
0.002355
0.002355
0.00235283
0.002348
0.00231614
0.00234583
0.00234582
0.00231831
0.00231831
0.002348
0.00231614
0.00234582
0.00234583
0.00231831
0.00231831
0.00234583
0.00231831
0.00231831
0.002348
0.00231614
0.00234583
0.00231831
0.00231831
0.00231614
0.00231131
0.00227946
0.00230914
0.00230914
0.00228163
0.00228163
0.00231131
0.00227946
0.00230914
0.00230914
0.00228163
0.00228163
0.00230914
0.00228163
0.00228163
0.00231131
0.00227946
0.00230914
0.00228163
0.00228163
0.00227946
0.00227463
0.00224277
0.00227245
0.00227245
0.00224494
0.00224494
0.00227463
0.00224277
0.00227245
0.00227245
0.00224494
0.00224494
0.00227245
0.00224494
0.00224494
0.00227463
0.00224277
0.00227245
0.00224494
0.00224494
0.00224277
0.00223794
0.00220608
0.00223577
0.00223577
0.00220825
0.00220825
0.00223794
0.00220608
0.00223577
0.00223577
0.00220825
0.00220825
0.00223577
0.00220825
0.00220825
0.00223794
0.00220608
0.00223577
0.00220825
0.00220825
0.00220608
0.00220126
0.0021694
0.00219908
0.00219908
0.00217157
0.00217157
0.00220126
0.0021694
0.00219908
0.00219908
0.00217157
0.00217157
0.00219908
0.00217157
0.00217157
0.00220126
0.0021694
0.00219908
0.00217157
0.00217157
0.0021694
0.00216457
0.00213271
0.00216239
0.00216239
0.00213488
0.00213488
0.00216457
0.00213271
0.00216239
0.00216239
0.00213488
0.00213488
0.00216239
0.00213488
0.00213488
0.00216457
0.00213271
0.00216239
0.00213488
0.00213488
0.00213271
0.00212788
0.00209602
0.00212571
0.00212571
0.00209819
0.00209819
0.00212788
0.00209602
0.00212571
0.00212571
0.00209819
0.00209819
0.00212571
0.00209819
0.00209819
0.00212788
0.00209602
0.00212571
0.00209819
0.00209819
0.00209602
0.00209119
0.00205933
0.00208902
0.00208902
0.0020615
0.0020615
0.00209119
0.00205933
0.00208902
0.00208902
0.0020615
0.0020615
0.00208902
0.0020615
0.0020615
0.00209119
0.00205933
0.00208902
0.0020615
0.0020615
0.00205933
0.00205451
0.00202265
0.00205233
0.00205233
0.00202482
0.00202482
0.00205451
0.00202265
0.00205233
0.00205233
0.00202482
0.00202482
0.00205233
0.00202482
0.00202482
0.00205451
0.00202265
0.00205233
0.00202482
0.00202482
0.00202265
0.00201782
0.00198596
0.00201564
0.00201564
0.00198813
0.00198813
0.00201782
0.00198596
0.00201564
0.00201564
0.00198813
0.00198813
0.00201564
0.00198813
0.00198813
0.00201782
0.00198596
0.00201564
0.00198813
0.00198813
0.00198596
0.00198113
0.00194927
0.00197896
0.00197896
0.00195144
0.00195144
0.00198113
0.00194927
0.00197896
0.00197896
0.00195144
0.00195144
0.00197896
0.00195144
0.00195144
0.00198113
0.00194927
0.00197896
0.00195144
0.00195144
0.00194927
0.00194445
0.00191258
0.00194227
0.00194227
0.00191476
0.00191475
0.00194445
0.00191258
0.00194227
0.00194227
0.00191476
0.00191476
0.00194227
0.00191476
0.00191476
0.00194445
0.00191259
0.00194227
0.00191476
0.00191476
0.00191258
0.00190776
0.0018759
0.00190558
0.00190558
0.00187807
0.00187807
0.00190776
0.0018759
0.00190558
0.00190558
0.00187807
0.00187807
0.00190558
0.00187807
0.00187807
0.00190776
0.0018759
0.00190558
0.00187807
0.00187807
0.0018759
0.00187107
0.00183921
0.0018689
0.0018689
0.00184138
0.00184138
0.00187107
0.00183921
0.0018689
0.0018689
0.00184138
0.00184138
0.0018689
0.00184138
0.00184138
0.00187107
0.00183921
0.0018689
0.00184138
0.00184138
0.00183921
0.00183439
0.00180253
0.00183221
0.00183221
0.0018047
0.0018047
0.00183439
0.00180253
0.00183221
0.00183221
0.0018047
0.0018047
0.00183221
0.0018047
0.0018047
0.00183439
0.00180253
0.00183221
0.0018047
0.0018047
0.00180253
0.0017977
0.00176584
0.00179553
0.00179553
0.00176801
0.00176801
0.0017977
0.00176584
0.00179553
0.00179553
0.00176801
0.00176801
0.00179553
0.00176801
0.00176801
0.0017977
0.00176584
0.00179553
0.00176801
0.00176801
0.00176584
0.00176102
0.00172916
0.00175884
0.00175884
0.00173133
0.00173133
0.00176102
0.00172916
0.00175884
0.00175884
0.00173133
0.00173133
0.00175884
0.00173133
0.00173133
0.00176102
0.00172916
0.00175884
0.00173133
0.00173133
0.00172916
0.00172433
0.00169247
0.00172216
0.00172216
0.00169464
0.00169464
0.00172433
0.00169247
0.00172216
0.00172216
0.00169464
0.00169464
0.00172216
0.00169464
0.00169464
0.00172433
0.00169247
0.00172216
0.00169464
0.00169464
0.00169247
0.00168764
0.00165578
0.00168547
0.00168547
0.00165795
0.00165795
0.00168764
0.00165578
0.00168547
0.00168547
0.00165795
0.00165795
0.00168547
0.00165795
0.00165795
0.00168764
0.00165578
0.00168547
0.00165795
0.00165795
0.00165578
0.00165096
0.00161909
0.00164878
0.00164878
0.00162127
0.00162127
0.00165096
0.00161909
0.00164878
0.00164878
0.00162127
0.00162127
0.00164878
0.00162127
0.00162127
0.00165096
0.00161909
0.00164878
0.00162127
0.00162127
0.00161909
0.00161427
0.00158241
0.00161209
0.00161209
0.00158458
0.00158458
0.00161427
0.00158241
0.00161209
0.00161209
0.00158458
0.00158458
0.00161209
0.00158458
0.00158458
0.00161427
0.00158241
0.00161209
0.00158458
0.00158458
0.00158241
0.00157758
0.00154572
0.00157541
0.00157541
0.00154789
0.00154789
0.00157758
0.00154572
0.00157541
0.00157541
0.00154789
0.00154789
0.00157541
0.00154789
0.00154789
0.00157758
0.00154572
0.00157541
0.00154789
0.00154789
0.00154572
0.00154089
0.00150903
0.00153872
0.00153872
0.0015112
0.0015112
0.00154089
0.00150903
0.00153872
0.00153872
0.0015112
0.0015112
0.00153872
0.0015112
0.0015112
0.00154089
0.00150903
0.00153872
0.0015112
0.0015112
0.00150903
0.0015042
0.00147234
0.00150203
0.00150203
0.00147451
0.00147451
0.0015042
0.00147234
0.00150203
0.00150203
0.00147451
0.00147451
0.00150203
0.00147451
0.00147451
0.0015042
0.00147234
0.00150203
0.00147451
0.00147451
0.00147234
0.00146752
0.00143566
0.00146534
0.00146534
0.00143783
0.00143783
0.00146752
0.00143566
0.00146534
0.00146534
0.00143783
0.00143783
0.00146534
0.00143783
0.00143783
0.00146752
0.00143566
0.00146534
0.00143783
0.00143783
0.00143566
0.00143083
0.00139897
0.00142866
0.00142866
0.00140114
0.00140114
0.00143083
0.00139897
0.00142866
0.00142866
0.00140114
0.00140114
0.00142866
0.00140114
0.00140114
0.00143083
0.00139897
0.00142866
0.00140114
0.00140114
0.00139897
0.00139414
0.00136228
0.00139197
0.00139197
0.00136446
0.00136446
0.00139414
0.00136229
0.00139197
0.00139197
0.00136446
0.00136446
0.00139197
0.00136446
0.00136446
0.00139414
0.00136228
0.00139197
0.00136446
0.00136446
0.00136228
0.00135746
0.0013256
0.00135528
0.00135528
0.00132777
0.00132777
0.00135746
0.0013256
0.00135528
0.00135528
0.00132777
0.00132777
0.00135528
0.00132777
0.00132777
0.00135746
0.0013256
0.00135528
0.00132777
0.00132777
0.0013256
0.00132077
0.00128891
0.0013186
0.0013186
0.00129108
0.00129108
0.00132077
0.00128891
0.0013186
0.0013186
0.00129108
0.00129108
0.0013186
0.00129108
0.00129108
0.00132077
0.00128891
0.0013186
0.00129108
0.00129108
0.00128891
0.00128409
0.00125223
0.00128191
0.00128191
0.0012544
0.0012544
0.00128409
0.00125223
0.00128191
0.00128191
0.0012544
0.0012544
0.00128191
0.0012544
0.0012544
0.00128409
0.00125223
0.00128191
0.0012544
0.0012544
0.00125223
0.0012474
0.00121554
0.00124523
0.00124523
0.00121771
0.00121771
0.0012474
0.00121554
0.00124523
0.00124523
0.00121771
0.00121771
0.00124523
0.00121771
0.00121771
0.0012474
0.00121554
0.00124523
0.00121771
0.00121771
0.00121554
0.00121072
0.00117886
0.00120854
0.00120854
0.00118103
0.00118103
0.00121072
0.00117886
0.00120854
0.00120854
0.00118103
0.00118103
0.00120854
0.00118103
0.00118103
0.00121072
0.00117886
0.00120854
0.00118103
0.00118103
0.00117886
0.00117403
0.00114217
0.00117185
0.00117185
0.00114434
0.00114434
0.00117403
0.00114217
0.00117185
0.00117185
0.00114434
0.00114434
0.00117185
0.00114434
0.00114434
0.00117403
0.00114217
0.00117185
0.00114434
0.00114434
0.00114217
0.00113734
0.00110548
0.00113517
0.00113517
0.00110765
0.00110765
0.00113734
0.00110548
0.00113517
0.00113517
0.00110765
0.00110765
0.00113517
0.00110765
0.00110765
0.00113734
0.00110548
0.00113517
0.00110765
0.00110765
0.00110548
0.00110066
0.0010688
0.00109848
0.00109848
0.00107097
0.00107097
0.00110066
0.0010688
0.00109848
0.00109848
0.00107097
0.00107097
0.00109848
0.00107097
0.00107097
0.00110066
0.0010688
0.00109848
0.00107097
0.00107097
0.0010688
0.00106397
0.00103211
0.00106179
0.00106179
0.00103428
0.00103428
0.00106397
0.00103211
0.00106179
0.00106179
0.00103428
0.00103428
0.00106179
0.00103428
0.00103428
0.00106397
0.00103211
0.00106179
0.00103428
0.00103428
0.00103211
0.00102728
0.000995422
0.00102511
0.00102511
0.000997592
0.000997592
0.00102728
0.000995422
0.00102511
0.00102511
0.000997592
0.000997592
0.00102511
0.000997592
0.000997592
0.00102728
0.000995422
0.00102511
0.000997592
0.000997592
0.000995422
0.000990596
0.000958735
0.000988421
0.000988421
0.000960905
0.000960905
0.000990595
0.000958735
0.00098842
0.000988421
0.000960905
0.000960905
0.000988421
0.000960905
0.000960905
0.000990595
0.000958734
0.00098842
0.000960905
0.000960905
0.000958735
0.000953909
0.000922048
0.000951734
0.000951734
0.000924219
0.000924218
0.000953909
0.000922048
0.000951733
0.000951733
0.000924218
0.000924218
0.000951734
0.000924219
0.000924219
0.000953908
0.000922048
0.000951733
0.000924218
0.000924218
0.000922048
0.000917222
0.000885361
0.000915047
0.000915047
0.000887532
0.000887532
0.000917222
0.000885362
0.000915047
0.000915047
0.000887532
0.000887532
0.000915047
0.000887532
0.000887532
0.000917222
0.000885362
0.000915047
0.000887532
0.000887532
0.000885362
0.000880535
0.000848675
0.00087836
0.00087836
0.000850845
0.000850845
0.000880535
0.000848675
0.00087836
0.000878361
0.000850845
0.000850845
0.000878361
0.000850845
0.000850845
0.000880536
0.000848675
0.000878361
0.000850845
0.000850845
0.000848675
0.000843848
0.000811987
0.000841673
0.000841673
0.000814158
0.000814158
0.000843848
0.000811988
0.000841673
0.000841673
0.000814158
0.000814158
0.000841674
0.000814158
0.000814158
0.000843848
0.000811988
0.000841673
0.000814158
0.000814158
0.000811988
0.000807161
0.000775301
0.000804986
0.000804986
0.000777471
0.000777471
0.000807161
0.000775301
0.000804986
0.000804987
0.000777471
0.000777471
0.000804987
0.000777471
0.000777471
0.000807161
0.000775301
0.000804986
0.000777471
0.000777471
0.000775301
0.000770475
0.000738614
0.0007683
0.0007683
0.000740784
0.000740784
0.000770474
0.000738614
0.000768299
0.0007683
0.000740784
0.000740784
0.0007683
0.000740784
0.000740785
0.000770475
0.000738614
0.0007683
0.000740784
0.000740784
0.000738614
0.000733788
0.000701927
0.000731613
0.000731613
0.000704098
0.000704098
0.000733788
0.000701928
0.000731613
0.000731613
0.000704098
0.000704098
0.000731613
0.000704098
0.000704098
0.000733788
0.000701927
0.000731613
0.000704098
0.000704098
0.000701927
0.000697101
0.000665241
0.000694926
0.000694926
0.000667411
0.000667411
0.000697101
0.000665241
0.000694926
0.000694926
0.000667411
0.000667411
0.000694926
0.000667411
0.000667411
0.000697101
0.000665241
0.000694926
0.000667411
0.000667411
0.000665241
0.000660414
0.000628554
0.00065824
0.000658239
0.000630725
0.000630724
0.000660414
0.000628554
0.000658239
0.00065824
0.000630724
0.000630725
0.00065824
0.000630725
0.000630725
0.000660414
0.000628554
0.000658239
0.000630725
0.000630724
0.000628554
0.000623728
0.000591867
0.000621553
0.000621553
0.000594038
0.000594038
0.000623728
0.000591867
0.000621553
0.000621553
0.000594038
0.000594038
0.000621553
0.000594038
0.000594038
0.000623728
0.000591867
0.000621553
0.000594038
0.000594038
0.000591867
0.000587041
0.000555181
0.000584867
0.000584866
0.000557351
0.000557351
0.000587041
0.000555181
0.000584866
0.000584867
0.000557351
0.000557351
0.000584867
0.000557351
0.000557351
0.000587041
0.000555181
0.000584866
0.000557351
0.000557351
0.000555181
0.000550354
0.000518494
0.00054818
0.00054818
0.000520664
0.000520664
0.000550354
0.000518494
0.000548179
0.00054818
0.000520664
0.000520664
0.00054818
0.000520664
0.000520664
0.000550354
0.000518494
0.00054818
0.000520664
0.000520664
0.000518494
0.000513668
0.000481807
0.000511493
0.000511493
0.000483977
0.000483977
0.000513667
0.000481807
0.000511493
0.000511493
0.000483977
0.000483977
0.000511493
0.000483977
0.000483977
0.000513667
0.000481807
0.000511493
0.000483977
0.000483977
0.000481807
0.00047698
0.00044512
0.000474806
0.000474806
0.00044729
0.00044729
0.00047698
0.00044512
0.000474806
0.000474806
0.00044729
0.00044729
0.000474806
0.00044729
0.00044729
0.00047698
0.00044512
0.000474806
0.00044729
0.00044729
0.00044512
0.000440293
0.000408433
0.000438118
0.000438118
0.000410603
0.000410603
0.000440293
0.000408433
0.000438118
0.000438118
0.000410603
0.000410603
0.000438119
0.000410603
0.000410603
0.000440293
0.000408433
0.000438118
0.000410603
0.000410603
0.000408433
0.000403605
0.000371745
0.000401431
0.000401431
0.000373915
0.000373915
0.000403605
0.000371746
0.000401431
0.000401431
0.000373915
0.000373915
0.000401431
0.000373915
0.000373915
0.000403605
0.000371745
0.000401431
0.000373915
0.000373915
0.000371745
0.000366918
0.000335059
0.000364744
0.000364744
0.000337228
0.000337228
0.000366918
0.000335059
0.000364744
0.000364744
0.000337228
0.000337228
0.000364744
0.000337228
0.000337228
0.000366918
0.000335058
0.000364744
0.000337228
0.000337228
0.000335058
0.00033023
0.000298372
0.000328057
0.000328057
0.00030054
0.00030054
0.00033023
0.000298372
0.000328057
0.000328057
0.00030054
0.00030054
0.000328057
0.00030054
0.00030054
0.00033023
0.000298371
0.000328057
0.00030054
0.00030054
0.000298371
0.000293541
0.000261685
0.00029137
0.000291369
0.000263853
0.000263853
0.000293541
0.000261685
0.000291369
0.00029137
0.000263852
0.000263853
0.00029137
0.000263853
0.000263853
0.000293541
0.000261685
0.000291369
0.000263853
0.000263853
0.000261685
0.000256851
0.000224998
0.000254682
0.000254682
0.000227164
0.000227164
0.000256851
0.000224998
0.000254682
0.000254682
0.000227163
0.000227164
0.000254682
0.000227164
0.000227164
0.000256851
0.000224998
0.000254682
0.000227164
0.000227164
0.000224998
0.000220158
0.00018831
0.000217993
0.000217993
0.000190473
0.000190473
0.000220158
0.00018831
0.000217993
0.000217993
0.000190473
0.000190473
0.000217993
0.000190473
0.000190473
0.000220158
0.000188309
0.000217993
0.000190473
0.000190473
0.00018831
0.00018346
0.000151618
0.000181303
0.000181302
0.000153778
0.000153778
0.00018346
0.000151618
0.000181302
0.000181302
0.000153777
0.000153778
0.000181303
0.000153778
0.000153778
0.000183461
0.000151618
0.000181302
0.000153778
0.000153778
0.000151618
0.000146753
0.000114919
0.000144607
0.000144607
0.000117072
0.000117072
0.000146753
0.000114919
0.000144607
0.000144607
0.000117072
0.000117072
0.000144607
0.000117073
0.000117072
0.000146753
0.000114918
0.000144607
0.000117072
0.000117072
0.000114918
0.00011003
7.82038e-05
0.000107901
0.000107901
8.03517e-05
8.03519e-05
0.00011003
7.82046e-05
0.000107901
0.000107901
8.03511e-05
8.03509e-05
0.000107901
8.03517e-05
8.03511e-05
0.000110029
7.8203e-05
0.000107901
8.03507e-05
8.03508e-05
7.82031e-05
7.32833e-05
4.16e-05
7.1181e-05
7.11813e-05
4.37649e-05
4.37656e-05
7.32834e-05
4.16009e-05
7.11801e-05
7.11796e-05
4.37636e-05
4.3762e-05
7.11801e-05
4.37646e-05
4.37617e-05
7.32825e-05
4.15972e-05
7.11796e-05
4.37615e-05
4.3761e-05
4.15969e-05
3.67354e-05
8.21623e-06
3.48745e-05
3.48751e-05
1.06803e-05
1.06789e-05
3.67358e-05
8.21441e-06
3.48735e-05
3.48708e-05
1.06789e-05
1.0675e-05
3.48698e-05
1.06768e-05
1.06732e-05
3.6732e-05
8.21153e-06
3.48696e-05
1.0675e-05
1.06745e-05
8.21037e-06
4.8835e-06
4.89119e-06
4.88822e-06
4.88243e-06
4.88628e-06
4.88512e-06
5.27005e-06
5.2685e-06
5.26805e-06
4.88471e-06
4.8803e-06
4.88368e-06
0.0035791
0.00358377
0.00358158
0.00358157
0.00360256
0.0035855
0.00361129
0.00358318
0.00360257
0.00358549
0.00358319
0.0036112
0.00359298
0.0036143
0.00361443
0.00354846
0.00356354
0.00356712
0.00354059
0.0035405
0.00354404
0.00354848
0.00356348
0.00356711
0.00354053
0.0035654
0.00356538
0.00356541
0.00353668
0.00353666
0.00353666
0.00353668
0.00354824
0.00356202
0.00356602
0.00355525
0.00356831
0.00354501
0.00355587
0.00354049
0.00354398
0.00354829
0.00356603
0.00356191
0.0035553
0.00356828
0.00355595
0.0035449
0.00356744
0.00356749
0.00355209
0.0035448
0.00354481
0.00352147
0.003535
0.00353455
0.0035197
0.00353226
0.00351883
0.00352144
0.00353505
0.00353452
0.00351958
0.00352792
0.00352794
0.00352795
0.00350168
0.00350169
0.00350171
0.00350165
0.0035191
0.00353394
0.00352721
0.00351883
0.00353198
0.00351995
0.00351864
0.00353223
0.00351885
0.00351912
0.00352724
0.00353395
0.0035188
0.00353197
0.00351868
0.00351983
0.00353542
0.00353543
0.00351777
0.00352045
0.00352043
0.00347941
0.00349457
0.0034954
0.00347826
0.00349311
0.00347761
0.00347942
0.00349441
0.00349518
0.00347827
0.00349172
0.00349171
0.00349169
0.00345805
0.00345805
0.00345806
0.00345803
0.00347783
0.00349428
0.00349057
0.00348019
0.00349335
0.00347855
0.00347993
0.00349327
0.0034774
0.00347783
0.0034906
0.00349425
0.00348027
0.00349336
0.00347996
0.00347858
0.00349458
0.00349463
0.00347728
0.00347859
0.00347854
0.0034323
0.00344923
0.00345074
0.00343104
0.00344852
0.00343079
0.00343236
0.0034492
0.00345065
0.0034311
0.00344615
0.00344614
0.00344614
0.00341029
0.00341031
0.00341028
0.00341028
0.00343112
0.00344929
0.00344519
0.00343356
0.00344883
0.0034315
0.00343338
0.00344857
0.00343048
0.00343109
0.00344525
0.00344921
0.00343357
0.00344885
0.00343335
0.00343149
0.0034493
0.00344933
0.00343052
0.00343132
0.00343134
0.00338394
0.00340076
0.00340201
0.0033828
0.00340039
0.00338237
0.00338395
0.00340091
0.00340207
0.00338271
0.00339832
0.00339831
0.0033983
0.00336214
0.00336214
0.00336215
0.00336211
0.00338307
0.00340093
0.0033975
0.00338562
0.00340072
0.00338328
0.00338555
0.00340037
0.0033825
0.00338301
0.00339749
0.00340095
0.00338568
0.00340075
0.00338555
0.00338329
0.00340089
0.00340096
0.00338253
0.0033828
0.00338271
0.00333514
0.00335229
0.00335332
0.0033344
0.00335208
0.0033341
0.00333516
0.00335231
0.00335334
0.00333441
0.00335004
0.00335005
0.00335001
0.00331396
0.00331395
0.00331396
0.00331393
0.00333469
0.0033525
0.00334939
0.00333738
0.00335238
0.00333478
0.00333733
0.00335209
0.00333409