/*--------------------------------*- C++ -*----------------------------------*\
| =========                 |                                                 |
| \\      /  F ield         | OpenFOAM: The Open Source CFD Toolbox           |
|  \\    /   O peration     | Version:  v2012                                 |
|   \\  /    A nd           | Website:  www.openfoam.com                      |
|    \\/     M anipulation  |                                                 |
\*---------------------------------------------------------------------------*/
FoamFile
{
    version     2.0;
    format      ascii;
    class       volScalarField;
    location    "750";
    object      epsilon;
}
// * * * * * * * * * * * * * * * * * * * * * * * * * * * * * * * * * * * * * //

dimensions      [0 2 -3 0 0 0 0];


internalField   nonuniform List<scalar> 
85864
(
4.95567e-07
4.9733e-07
4.9733e-07
4.99575e-07
4.45573e-07
4.53735e-07
4.53737e-07
4.6371e-07
4.03752e-07
4.18513e-07
4.18517e-07
4.39411e-07
3.68363e-07
3.88552e-07
3.88558e-07
4.17667e-07
3.38015e-07
3.62102e-07
3.6211e-07
3.96081e-07
3.11646e-07
3.38273e-07
3.38281e-07
3.74581e-07
2.88473e-07
3.16638e-07
3.16646e-07
3.5371e-07
2.67923e-07
2.97021e-07
2.97031e-07
3.34147e-07
2.4958e-07
2.7937e-07
2.79379e-07
3.16484e-07
2.33137e-07
2.63679e-07
2.63688e-07
3.01161e-07
2.18366e-07
2.49955e-07
2.49964e-07
2.88492e-07
2.0509e-07
2.38198e-07
2.38208e-07
2.78695e-07
1.93172e-07
2.28411e-07
2.28421e-07
2.71876e-07
1.82498e-07
2.206e-07
2.20611e-07
2.68162e-07
1.72979e-07
2.14772e-07
2.14785e-07
2.67641e-07
1.64541e-07
2.10937e-07
2.10952e-07
2.70491e-07
1.57121e-07
2.09106e-07
2.09125e-07
2.76694e-07
1.50668e-07
2.09295e-07
2.09318e-07
2.8628e-07
1.45137e-07
2.11549e-07
2.11576e-07
2.9923e-07
1.40492e-07
2.15886e-07
2.15917e-07
3.15612e-07
1.36703e-07
2.22326e-07
2.2236e-07
3.35363e-07
1.33748e-07
2.30887e-07
2.30924e-07
3.58398e-07
1.31605e-07
2.41553e-07
2.41594e-07
3.84534e-07
1.30258e-07
2.54306e-07
2.5435e-07
4.13527e-07
1.29696e-07
2.691e-07
2.69149e-07
4.45036e-07
1.29921e-07
2.8587e-07
2.85924e-07
4.78685e-07
1.3091e-07
3.04529e-07
3.04588e-07
5.14018e-07
1.32666e-07
3.24974e-07
3.25038e-07
5.50612e-07
1.35188e-07
3.47089e-07
3.47157e-07
5.88013e-07
1.38479e-07
3.70727e-07
3.708e-07
6.25793e-07
1.42541e-07
3.95756e-07
3.95834e-07
6.6358e-07
1.47378e-07
4.22006e-07
4.22086e-07
7.01036e-07
1.52996e-07
4.49317e-07
4.49405e-07
7.37894e-07
1.59403e-07
4.77524e-07
4.77612e-07
7.73925e-07
1.66599e-07
5.06433e-07
5.06527e-07
8.09008e-07
1.74587e-07
5.35882e-07
5.35979e-07
8.42932e-07
1.83381e-07
5.65716e-07
5.65814e-07
8.75778e-07
1.92953e-07
5.95709e-07
5.95814e-07
9.07386e-07
2.03306e-07
6.25723e-07
6.25829e-07
9.37808e-07
2.14429e-07
6.55612e-07
6.55721e-07
9.67023e-07
2.26289e-07
6.85186e-07
6.85298e-07
9.95023e-07
2.38868e-07
7.14345e-07
7.1446e-07
1.02184e-06
2.52128e-07
7.42952e-07
7.4307e-07
1.0475e-06
2.66022e-07
7.709e-07
7.71016e-07
1.07204e-06
2.80521e-07
7.98119e-07
7.98236e-07
1.09552e-06
2.95526e-07
8.2447e-07
8.24593e-07
1.1179e-06
3.10984e-07
8.49901e-07
8.5001e-07
1.13923e-06
5.06417e-07
5.05584e-07
5.05582e-07
5.06417e-07
5.05583e-07
5.05582e-07
5.09649e-07
5.09649e-07
5.09649e-07
5.09649e-07
5.05584e-07
5.05584e-07
5.06418e-07
5.05584e-07
5.05583e-07
5.06418e-07
4.99575e-07
4.67237e-07
4.97331e-07
4.97335e-07
4.63713e-07
4.63721e-07
4.99575e-07
4.67235e-07
4.97335e-07
4.97336e-07
4.63718e-07
4.63724e-07
4.97332e-07
4.63709e-07
4.63714e-07
4.99575e-07
4.67241e-07
4.97334e-07
4.6371e-07
4.63719e-07
4.6724e-07
4.63709e-07
4.41426e-07
4.5374e-07
4.53748e-07
4.26738e-07
4.26747e-07
4.63708e-07
4.4142e-07
4.53744e-07
4.53751e-07
4.26739e-07
4.26751e-07
4.53741e-07
4.26729e-07
4.26741e-07
4.63711e-07
4.41431e-07
4.53744e-07
4.26734e-07
4.26741e-07
4.41429e-07
4.39407e-07
4.19283e-07
4.18522e-07
4.1853e-07
3.95676e-07
3.95682e-07
4.39405e-07
4.19275e-07
4.18522e-07
4.18535e-07
3.95672e-07
3.95689e-07
4.18525e-07
3.95663e-07
3.95679e-07
4.39413e-07
4.19289e-07
4.18523e-07
3.95669e-07
3.95673e-07
4.19287e-07
4.17662e-07
3.97645e-07
3.88566e-07
3.88571e-07
3.68461e-07
3.68466e-07
4.17656e-07
3.97636e-07
3.8856e-07
3.88578e-07
3.68452e-07
3.68473e-07
3.88569e-07
3.68444e-07
3.68464e-07
4.17669e-07
3.97651e-07
3.88562e-07
3.68452e-07
3.68454e-07
3.97649e-07
3.96076e-07
3.76085e-07
3.6212e-07
3.62124e-07
3.44033e-07
3.44036e-07
3.96069e-07
3.76076e-07
3.62109e-07
3.62131e-07
3.4402e-07
3.44043e-07
3.62123e-07
3.44013e-07
3.44036e-07
3.96082e-07
3.76091e-07
3.62111e-07
3.44022e-07
3.44021e-07
3.7609e-07
3.74575e-07
3.55111e-07
3.38293e-07
3.38295e-07
3.21875e-07
3.21876e-07
3.74568e-07
3.55101e-07
3.38279e-07
3.38303e-07
3.21858e-07
3.21884e-07
3.38296e-07
3.21853e-07
3.21877e-07
3.74581e-07
3.55117e-07
3.3828e-07
3.21862e-07
3.2186e-07
3.55116e-07
3.53704e-07
3.35395e-07
3.16659e-07
3.16661e-07
3.01763e-07
3.01764e-07
3.53696e-07
3.35385e-07
3.16642e-07
3.16668e-07
3.01745e-07
3.01771e-07
3.16662e-07
3.0174e-07
3.01765e-07
3.5371e-07
3.35401e-07
3.16644e-07
3.01749e-07
3.01746e-07
3.354e-07
3.34141e-07
3.17533e-07
2.97044e-07
2.97045e-07
2.83623e-07
2.83623e-07
3.34134e-07
3.17523e-07
2.97026e-07
2.97053e-07
2.83603e-07
2.83631e-07
2.97047e-07
2.83599e-07
2.83625e-07
3.34148e-07
3.17539e-07
2.97027e-07
2.83608e-07
2.83604e-07
3.17538e-07
3.16478e-07
3.01975e-07
2.79394e-07
2.79394e-07
2.67442e-07
2.67442e-07
3.1647e-07
3.01965e-07
2.79374e-07
2.79402e-07
2.67421e-07
2.67449e-07
2.79396e-07
2.67417e-07
2.67443e-07
3.16485e-07
3.01981e-07
2.79375e-07
2.67426e-07
2.67421e-07
3.01981e-07
3.01154e-07
2.8904e-07
2.63704e-07
2.63704e-07
2.53227e-07
2.53227e-07
3.01147e-07
2.89029e-07
2.63682e-07
2.63711e-07
2.53204e-07
2.53234e-07
2.63705e-07
2.532e-07
2.53228e-07
3.01162e-07
2.89047e-07
2.63683e-07
2.5321e-07
2.53205e-07
2.89046e-07
2.88486e-07
2.7895e-07
2.49981e-07
2.49981e-07
2.40981e-07
2.4098e-07
2.88477e-07
2.78938e-07
2.49958e-07
2.49989e-07
2.40956e-07
2.40988e-07
2.49982e-07
2.40952e-07
2.4098e-07
2.88493e-07
2.78957e-07
2.49959e-07
2.40961e-07
2.40957e-07
2.78956e-07
2.78688e-07
2.71829e-07
2.38227e-07
2.38227e-07
2.30702e-07
2.30702e-07
2.78678e-07
2.71816e-07
2.38203e-07
2.38235e-07
2.30676e-07
2.3071e-07
2.38227e-07
2.3067e-07
2.30701e-07
2.78696e-07
2.71837e-07
2.38204e-07
2.30681e-07
2.30676e-07
2.71835e-07
2.71868e-07
2.67861e-07
2.28441e-07
2.28443e-07
2.22398e-07
2.224e-07
2.71857e-07
2.67847e-07
2.28417e-07
2.28451e-07
2.22372e-07
2.22408e-07
2.28442e-07
2.22364e-07
2.22397e-07
2.71877e-07
2.67871e-07
2.28417e-07
2.22375e-07
2.22371e-07
2.67869e-07
2.68153e-07
2.66978e-07
2.20632e-07
2.20637e-07
2.16076e-07
2.1608e-07
2.68141e-07
2.66963e-07
2.20608e-07
2.20645e-07
2.16048e-07
2.16088e-07
2.20634e-07
2.16038e-07
2.16074e-07
2.68163e-07
2.6699e-07
2.20608e-07
2.1605e-07
2.16047e-07
2.66988e-07
2.67632e-07
2.69152e-07
2.1481e-07
2.14815e-07
2.11744e-07
2.11752e-07
2.67617e-07
2.69135e-07
2.14783e-07
2.14824e-07
2.11717e-07
2.11761e-07
2.14809e-07
2.11701e-07
2.11742e-07
2.67642e-07
2.69165e-07
2.14782e-07
2.11716e-07
2.11714e-07
2.69163e-07
2.70482e-07
2.7466e-07
2.10981e-07
2.10989e-07
2.09413e-07
2.09422e-07
2.70465e-07
2.74638e-07
2.10954e-07
2.10999e-07
2.09386e-07
2.09435e-07
2.10978e-07
2.09363e-07
2.09408e-07
2.70493e-07
2.74675e-07
2.1095e-07
2.09381e-07
2.0938e-07
2.74672e-07
2.76684e-07
2.83545e-07
2.09157e-07
2.09166e-07
2.09128e-07
2.09136e-07
2.76662e-07
2.83518e-07
2.09129e-07
2.09178e-07
2.091e-07
2.09152e-07
2.09151e-07
2.0907e-07
2.0912e-07
2.76697e-07
2.83561e-07
2.09123e-07
2.09092e-07
2.09091e-07
2.83557e-07
2.8627e-07
2.95812e-07
2.09354e-07
2.09363e-07
2.10851e-07
2.10857e-07
2.86241e-07
2.95783e-07
2.09327e-07
2.09381e-07
2.10821e-07
2.1088e-07
2.09347e-07
2.10784e-07
2.10841e-07
2.86282e-07
2.95832e-07
2.09318e-07
2.1081e-07
2.10811e-07
2.95826e-07
2.99219e-07
3.11501e-07
2.11616e-07
2.11626e-07
2.14675e-07
2.14684e-07
2.99187e-07
3.11467e-07
2.11588e-07
2.11649e-07
2.14644e-07
2.14709e-07
2.11607e-07
2.14599e-07
2.14663e-07
2.99234e-07
3.11523e-07
2.11577e-07
2.14629e-07
2.14632e-07
3.11517e-07
3.15596e-07
3.30563e-07
2.15962e-07
2.15975e-07
2.20594e-07
2.20616e-07
3.15561e-07
3.30526e-07
2.15933e-07
2.16e-07
2.20565e-07
2.20641e-07
2.15951e-07
2.20516e-07
2.20586e-07
3.15616e-07
3.3059e-07
2.1592e-07
2.20549e-07
2.20554e-07
3.30582e-07
3.35345e-07
3.52915e-07
2.22403e-07
2.22429e-07
2.28629e-07
2.28662e-07
3.35308e-07
3.52874e-07
2.22376e-07
2.22454e-07
2.28601e-07
2.28688e-07
2.22397e-07
2.28549e-07
2.28626e-07
3.35369e-07
3.52947e-07
2.22364e-07
2.28584e-07
2.28592e-07
3.52941e-07
3.58375e-07
3.78403e-07
2.30967e-07
2.31003e-07
2.38775e-07
2.38818e-07
3.58334e-07
3.78362e-07
2.30941e-07
2.31029e-07
2.38747e-07
2.38845e-07
2.30965e-07
2.38691e-07
2.38775e-07
3.58402e-07
3.78442e-07
2.30931e-07
2.38729e-07
2.38739e-07
3.78433e-07
3.84507e-07
4.06788e-07
2.41639e-07
2.41684e-07
2.51015e-07
2.51066e-07
3.84467e-07
4.06741e-07
2.41612e-07
2.41711e-07
2.50985e-07
2.51095e-07
2.41639e-07
2.50925e-07
2.51019e-07
3.84541e-07
4.06829e-07
2.41602e-07
2.50967e-07
2.5098e-07
4.06824e-07
4.13494e-07
4.37748e-07
2.54397e-07
2.5445e-07
2.6531e-07
2.65368e-07
4.13449e-07
4.37701e-07
2.54368e-07
2.5448e-07
2.65277e-07
2.65399e-07
2.54401e-07
2.65213e-07
2.65316e-07
4.1353e-07
4.37798e-07
2.54363e-07
2.65259e-07
2.65278e-07
4.3779e-07
4.44998e-07
4.7092e-07
2.692e-07
2.69258e-07
2.81604e-07
2.81667e-07
4.44951e-07
4.70865e-07
2.69168e-07
2.69291e-07
2.81566e-07
2.817e-07
2.69206e-07
2.81498e-07
2.81612e-07
4.45041e-07
4.70971e-07
2.69169e-07
2.81547e-07
2.81573e-07
4.70969e-07
4.78639e-07
5.0585e-07
2.85979e-07
2.86042e-07
2.99806e-07
2.99875e-07
4.78587e-07
5.05797e-07
2.85942e-07
2.86077e-07
2.99763e-07
2.99912e-07
2.85988e-07
2.99693e-07
2.99819e-07
4.78683e-07
5.05912e-07
2.85949e-07
2.99748e-07
2.99777e-07
5.05909e-07
5.13964e-07
5.42129e-07
3.04645e-07
3.04714e-07
3.19827e-07
3.19899e-07
5.13914e-07
5.4207e-07
3.04603e-07
3.04753e-07
3.19777e-07
3.19936e-07
3.04657e-07
3.19703e-07
3.19841e-07
5.1402e-07
5.42192e-07
3.04614e-07
3.19761e-07
3.19793e-07
5.42191e-07
5.50556e-07
5.79292e-07
3.25102e-07
3.25171e-07
3.41544e-07
3.41619e-07
5.50498e-07
5.79231e-07
3.25053e-07
3.25213e-07
3.41485e-07
3.4166e-07
3.25117e-07
3.41411e-07
3.41561e-07
5.50609e-07
5.79363e-07
3.25068e-07
3.41475e-07
3.41508e-07
5.79365e-07
5.87948e-07
6.16919e-07
3.47224e-07
3.47297e-07
3.64825e-07
3.64902e-07
5.8789e-07
6.16853e-07
3.47167e-07
3.47342e-07
3.64757e-07
3.64943e-07
3.47242e-07
3.64681e-07
3.64846e-07
5.8801e-07
6.16992e-07
3.47186e-07
3.64749e-07
3.64784e-07
6.16997e-07
6.25722e-07
6.54626e-07
3.70873e-07
3.70943e-07
3.89531e-07
3.8961e-07
6.25657e-07
6.54561e-07
3.70807e-07
3.70993e-07
3.89454e-07
3.89654e-07
3.70895e-07
3.89378e-07
3.89554e-07
6.25784e-07
6.54706e-07
3.70832e-07
3.89452e-07
3.89484e-07
6.54709e-07
6.63506e-07
6.92068e-07
3.95912e-07
3.9598e-07
4.15498e-07
4.15574e-07
6.63444e-07
6.91995e-07
3.95836e-07
3.96035e-07
4.15411e-07
4.15621e-07
3.95936e-07
4.15336e-07
4.15525e-07
6.63576e-07
6.92145e-07
3.95864e-07
4.15412e-07
4.15446e-07
6.92156e-07
7.00955e-07
7.2897e-07
4.2217e-07
4.22242e-07
4.42572e-07
4.42645e-07
7.00888e-07
7.28893e-07
4.22084e-07
4.22293e-07
4.42474e-07
4.42696e-07
4.22198e-07
4.42402e-07
4.42604e-07
7.01023e-07
7.29049e-07
4.22116e-07
4.42482e-07
4.42516e-07
7.2906e-07
7.37811e-07
7.65096e-07
4.49489e-07
4.49562e-07
4.7057e-07
4.70643e-07
7.3774e-07
7.65016e-07
4.49394e-07
4.49617e-07
4.70463e-07
4.70696e-07
4.49523e-07
4.70394e-07
4.70603e-07
7.37882e-07
7.6518e-07
4.49433e-07
4.70478e-07
4.70505e-07
7.65186e-07
7.73848e-07
8.0031e-07
4.77702e-07
4.77774e-07
4.9934e-07
4.99407e-07
7.73772e-07
8.00223e-07
4.77597e-07
4.77827e-07
4.99224e-07
4.99461e-07
4.77735e-07
4.99154e-07
4.9938e-07
7.73918e-07
8.00386e-07
4.77636e-07
4.99242e-07
4.99274e-07
8.00408e-07
8.08919e-07
8.34411e-07
5.0662e-07
5.06687e-07
5.28656e-07
5.28727e-07
8.08838e-07
8.34327e-07
5.06507e-07
5.06743e-07
5.28532e-07
5.28784e-07
5.06663e-07
5.28473e-07
5.28702e-07
8.08986e-07
8.34496e-07
5.06555e-07
5.28565e-07
5.28587e-07
8.34507e-07
8.42843e-07
8.67464e-07
5.36066e-07
5.36136e-07
5.58427e-07
5.58489e-07
8.42766e-07
8.67377e-07
5.35945e-07
5.36194e-07
5.58296e-07
5.58547e-07
5.36111e-07
5.58235e-07
5.58476e-07
8.42921e-07
8.67541e-07
5.35995e-07
5.58329e-07
5.58354e-07
8.67557e-07
8.75691e-07
8.99302e-07
5.65907e-07
5.6597e-07
5.88393e-07
5.88455e-07
8.75607e-07
8.99217e-07
5.65781e-07
5.66028e-07
5.88257e-07
5.88516e-07
5.6596e-07
5.88203e-07
5.88448e-07
8.75758e-07
8.99381e-07
5.65837e-07
5.88302e-07
5.88319e-07
8.99398e-07
9.073e-07
9.29947e-07
5.95901e-07
5.95961e-07
6.18418e-07
6.18474e-07
9.07219e-07
9.29855e-07
5.9577e-07
5.96023e-07
6.1828e-07
6.18535e-07
5.95955e-07
6.18225e-07
6.18481e-07
9.07371e-07
9.30019e-07
5.95827e-07
6.18326e-07
6.18346e-07
9.30043e-07
9.37718e-07
9.59399e-07
6.25916e-07
6.25972e-07
6.48345e-07
6.48406e-07
9.37632e-07
9.59317e-07
6.25783e-07
6.26033e-07
6.48205e-07
6.48465e-07
6.25982e-07
6.48162e-07
6.48417e-07
9.3778e-07
9.59473e-07
6.2585e-07
6.48264e-07
6.48278e-07
9.59498e-07
9.66933e-07
9.87655e-07
6.558e-07
6.55857e-07
6.78013e-07
6.78068e-07
9.66856e-07
9.87566e-07
6.55665e-07
6.55917e-07
6.77875e-07
6.78131e-07
6.55868e-07
6.77827e-07
6.78088e-07
9.67e-07
9.87719e-07
6.55733e-07
6.77939e-07
6.77951e-07
9.87741e-07
9.94939e-07
1.01471e-06
6.85372e-07
6.85422e-07
7.07283e-07
7.07331e-07
9.94856e-07
1.01462e-06
6.85245e-07
6.85487e-07
7.07151e-07
7.07397e-07
6.85448e-07
7.07099e-07
7.07365e-07
9.94997e-07
1.01476e-06
6.85311e-07
7.07214e-07
7.07228e-07
1.0148e-06
1.02175e-06
1.04061e-06
7.14527e-07
7.14577e-07
7.36036e-07
7.36082e-07
1.02167e-06
1.04052e-06
7.144e-07
7.14641e-07
7.35908e-07
7.36152e-07
7.1461e-07
7.35858e-07
7.36124e-07
1.02181e-06
1.04067e-06
7.14472e-07
7.35977e-07
7.35987e-07
1.0407e-06
1.04742e-06
1.06538e-06
7.43129e-07
7.43176e-07
7.64151e-07
7.64198e-07
1.04733e-06
1.06529e-06
7.43008e-07
7.43243e-07
7.64025e-07
7.64261e-07
7.43216e-07
7.6398e-07
7.64241e-07
1.04747e-06
1.06543e-06
7.43079e-07
7.64098e-07
7.64105e-07
1.06546e-06
1.07196e-06
1.08909e-06
7.71071e-07
7.71117e-07
7.91562e-07
7.91599e-07
1.07187e-06
1.089e-06
7.70952e-07
7.71178e-07
7.91435e-07
7.91659e-07
7.71162e-07
7.91389e-07
7.91658e-07
1.072e-06
1.08913e-06
7.71027e-07
7.91502e-07
7.91521e-07
1.08917e-06
1.09544e-06
1.11171e-06
7.98294e-07
7.98327e-07
8.18134e-07
8.18177e-07
1.09535e-06
1.11162e-06
7.98176e-07
7.98393e-07
8.18011e-07
8.1824e-07
7.98388e-07
8.17975e-07
8.18231e-07
1.09548e-06
1.11176e-06
7.98254e-07
8.18095e-07
8.18097e-07
1.11179e-06
1.11782e-06
1.13325e-06
8.24627e-07
8.24671e-07
8.43785e-07
8.43824e-07
1.11774e-06
1.13316e-06
8.24512e-07
8.24736e-07
8.43661e-07
8.43876e-07
8.24725e-07
8.43629e-07
8.43882e-07
1.11787e-06
1.13329e-06
8.24595e-07
8.43739e-07
8.4375e-07
1.13333e-06
1.13915e-06
1.15385e-06
8.50062e-07
8.50094e-07
8.68541e-07
8.68567e-07
1.13907e-06
1.15375e-06
8.49944e-07
8.50146e-07
8.68418e-07
8.68625e-07
8.50156e-07
8.68379e-07
8.68632e-07
1.13919e-06
1.15388e-06
8.50026e-07
8.68492e-07
8.68502e-07
1.15392e-06
5.35663e-07
5.35601e-07
5.35655e-07
5.35655e-07
5.34573e-07
5.35516e-07
5.33634e-07
5.35654e-07
5.34573e-07
5.35517e-07
5.35654e-07
5.33634e-07
5.35256e-07
5.35986e-07
5.35987e-07
1.10713e-06
3.88082e-06
9.33891e-07
4.60617e-06
1.26081e-05
1.66011e-05
1.10725e-06
3.88106e-06
9.33924e-07
4.60653e-06
4.95567e-07
4.95567e-07
4.95567e-07
4.57231e-07
4.57231e-07
4.57232e-07
4.57232e-07
5.43144e-07
1.22026e-06
4.95565e-07
4.85522e-07
5.25341e-07
1.20946e-06
4.82301e-07
1.26097e-05
1.66037e-05
5.43162e-07
4.95565e-07
1.22025e-06
4.85523e-07
5.2532e-07
4.82302e-07
1.20945e-06
2.52172e-06
2.52242e-06
4.8419e-07
2.37248e-06
2.37288e-06
1.4308e-06
5.59329e-06
1.32967e-06
6.13638e-06
2.12844e-05
2.31105e-05
1.4312e-06
5.59395e-06
1.32973e-06
6.13703e-06
4.45572e-07
4.45573e-07
4.45573e-07
4.13542e-07
4.13542e-07
4.13543e-07
4.13543e-07
5.87084e-07
1.19483e-06
4.46434e-07
4.44291e-07
5.73801e-07
1.20431e-06
4.3569e-07
2.12866e-05
2.31142e-05
5.87102e-07
4.46435e-07
1.19484e-06
4.44294e-07
5.73811e-07
4.35692e-07
1.2044e-06
2.31171e-06
2.31222e-06
4.53488e-07
2.35332e-06
2.35378e-06
1.66327e-06
6.91799e-06
1.59584e-06
7.32012e-06
2.46404e-05
2.4937e-05
1.66337e-06
6.91882e-06
1.59576e-06
7.32107e-06
4.03752e-07
4.03753e-07
4.03753e-07
3.76689e-07
3.76689e-07
3.76691e-07
3.7669e-07
6.15569e-07
1.24281e-06
4.06546e-07
4.10617e-07
6.0838e-07
1.26558e-06
3.97729e-07
2.46436e-05
2.49405e-05
6.15585e-07
4.06547e-07
1.24291e-06
4.10622e-07
6.08396e-07
3.97732e-07
1.26574e-06
2.47396e-06
2.47444e-06
4.3018e-07
2.53268e-06
2.53316e-06
1.81233e-06
7.8464e-06
1.77234e-06
8.09939e-06
2.47364e-05
2.44304e-05
1.81247e-06
7.84737e-06
1.77234e-06
8.10071e-06
3.68362e-07
3.68365e-07
3.68364e-07
3.45192e-07
3.45192e-07
3.45195e-07
3.45194e-07
6.26293e-07
1.31312e-06
3.73478e-07
3.81656e-07
6.24882e-07
1.33369e-06
3.66029e-07
2.47388e-05
2.4434e-05
6.26306e-07
3.7348e-07
1.31321e-06
3.81662e-07
6.24894e-07
3.66032e-07
1.33385e-06
2.63523e-06
2.63572e-06
4.08471e-07
2.67932e-06
2.67982e-06
1.89282e-06
8.39546e-06
1.87319e-06
8.52954e-06
2.36922e-05
2.3265e-05
1.89299e-06
8.39661e-06
1.87321e-06
8.53097e-06
3.38014e-07
3.38017e-07
3.38016e-07
3.17912e-07
3.17911e-07
3.17915e-07
3.17914e-07
6.22109e-07
1.37211e-06
3.45239e-07
3.55922e-07
6.25445e-07
1.3871e-06
3.38764e-07
2.3694e-05
2.32683e-05
6.22123e-07
3.45241e-07
1.37219e-06
3.5593e-07
6.25457e-07
3.38768e-07
1.38726e-06
2.7635e-06
2.76403e-06
3.86837e-07
2.80527e-06
2.80582e-06
1.92987e-06
8.66299e-06
1.9218e-06
8.71883e-06
2.25015e-05
2.21201e-05
1.93005e-06
8.66439e-06
1.92183e-06
8.72027e-06
3.11645e-07
3.11649e-07
3.11648e-07
2.94001e-07
2.94e-07
2.94004e-07
2.94002e-07
6.08887e-07
1.41603e-06
3.20492e-07
3.32668e-07
6.15378e-07
1.42751e-06
3.14745e-07
2.25027e-05
2.2123e-05
6.08901e-07
3.20493e-07
1.4161e-06
3.32677e-07
6.15391e-07
3.14749e-07
1.42768e-06
2.8951e-06
2.8957e-06
3.65488e-07
2.94362e-06
2.94424e-06
1.94789e-06
8.75944e-06
1.94364e-06
8.77084e-06
2.14771e-05
2.11783e-05
1.94807e-06
8.76089e-06
1.94367e-06
8.77225e-06
2.88472e-07
2.88476e-07
2.88475e-07
2.72839e-07
2.72838e-07
2.72842e-07
2.72841e-07
5.91864e-07
1.45273e-06
2.98409e-07
3.11548e-07
5.99369e-07
1.46399e-06
2.93242e-07
2.14782e-05
2.11809e-05
5.91878e-07
2.98411e-07
1.4528e-06
3.11557e-07
5.99382e-07
2.93246e-07
1.46416e-06
3.04888e-06
3.04956e-06
3.45061e-07
3.10622e-06
3.107e-06
1.9656e-06
8.76862e-06
1.95959e-06
8.76338e-06
2.0674e-05
2.04527e-05
1.96576e-06
8.77006e-06
1.95963e-06
8.7648e-06
2.67922e-07
2.67926e-07
2.67925e-07
2.53976e-07
2.53976e-07
2.5398e-07
2.53978e-07
5.75448e-07
1.49165e-06
2.785e-07
2.92425e-07
5.82272e-07
1.50547e-06
2.73825e-07
2.06753e-05
2.04548e-05
5.75465e-07
2.78501e-07
1.49172e-06
2.92434e-07
5.82287e-07
2.73829e-07
1.50563e-06
3.226e-06
3.22681e-06
3.26206e-07
3.29164e-06
3.29259e-06
1.99555e-06
8.74924e-06
1.98437e-06
8.74308e-06
2.00717e-05
1.99104e-05
1.9957e-06
8.7507e-06
1.98439e-06
8.74455e-06
2.49579e-07
2.49583e-07
2.49581e-07
2.37082e-07
2.37081e-07
2.37086e-07
2.37084e-07
5.629e-07
1.5398e-06
2.60474e-07
2.75263e-07
5.67829e-07
1.55769e-06
2.56239e-07
2.00736e-05
1.99121e-05
5.62916e-07
2.60475e-07
1.53986e-06
2.75272e-07
5.67845e-07
2.56243e-07
1.55785e-06
3.42148e-06
3.42242e-06
3.09449e-07
3.49259e-06
3.49375e-06
2.04524e-06
8.73349e-06
2.02679e-06
8.73133e-06
1.96319e-05
1.95161e-05
2.04537e-06
8.73499e-06
2.02681e-06
8.73287e-06
2.33136e-07
2.3314e-07
2.33138e-07
2.21911e-07
2.2191e-07
2.21914e-07
2.21913e-07
5.565e-07
1.60097e-06
2.44157e-07
2.60063e-07
5.58642e-07
1.62361e-06
2.4033e-07
1.96337e-05
1.9518e-05
5.56518e-07
2.44158e-07
1.60103e-06
2.60072e-07
5.5866e-07
2.40334e-07
1.62378e-06
3.62734e-06
3.62845e-06
2.95169e-07
3.70103e-06
3.70241e-06
2.11899e-06
8.73089e-06
2.092e-06
8.73367e-06
1.93171e-05
1.92359e-05
2.11916e-06
8.73252e-06
2.09199e-06
8.73533e-06
2.18365e-07
2.18369e-07
2.18367e-07
2.08276e-07
2.08275e-07
2.08279e-07
2.08277e-07
5.57605e-07
1.67645e-06
2.29438e-07
2.4683e-07
5.56738e-07
1.70372e-06
2.25997e-07
1.93189e-05
1.92378e-05
5.57624e-07
2.29439e-07
1.67651e-06
2.46839e-07
5.56754e-07
2.26001e-07
1.70391e-06
3.83554e-06
3.83679e-06
2.83637e-07
3.90912e-06
3.91069e-06
2.21871e-06
8.74033e-06
2.18282e-06
8.74734e-06
1.9096e-05
1.904e-05
2.2189e-06
8.74208e-06
2.18285e-06
8.74908e-06
2.05089e-07
2.05093e-07
2.05092e-07
1.9603e-07
1.96029e-07
1.96033e-07
1.96031e-07
5.66946e-07
1.76535e-06
2.16237e-07
2.35565e-07
5.631e-07
1.79676e-06
2.13166e-07
1.90978e-05
1.90418e-05
5.66971e-07
2.16238e-07
1.76545e-06
2.35575e-07
5.63124e-07
2.1317e-07
1.79694e-06
4.03859e-06
4.04001e-06
2.75008e-07
4.10925e-06
4.111e-06
2.34378e-06
8.75828e-06
2.29941e-06
8.76718e-06
1.89422e-05
1.89037e-05
2.34439e-06
8.7601e-06
2.29928e-06
8.76898e-06
1.93171e-07
1.93175e-07
1.93173e-07
1.85053e-07
1.85052e-07
1.85057e-07
1.85055e-07
5.85868e-07
1.86568e-06
2.04494e-07
2.2627e-07
5.78753e-07
1.9003e-06
2.01779e-07
1.8944e-05
1.89054e-05
5.85899e-07
2.04495e-07
1.86578e-06
2.26281e-07
5.78782e-07
2.01783e-07
1.9005e-06
4.22968e-06
4.23124e-06
2.69469e-07
4.29523e-06
4.29712e-06
2.49196e-06
8.77938e-06
2.43872e-06
8.7884e-06
1.88344e-05
1.88075e-05
2.49252e-06
8.78125e-06
2.43845e-06
8.79025e-06
1.82497e-07
1.82501e-07
1.82499e-07
1.75253e-07
1.75252e-07
1.75256e-07
1.75254e-07
6.149e-07
1.97458e-06
1.94157e-07
2.18952e-07
6.04378e-07
2.01136e-06
1.91785e-07
1.88362e-05
1.88092e-05
6.14936e-07
1.94158e-07
1.97469e-06
2.18964e-07
6.04413e-07
1.9179e-07
2.01157e-06
4.40386e-06
4.40553e-06
2.67053e-07
4.46269e-06
4.46469e-06
2.65682e-06
8.80012e-06
2.59693e-06
8.80849e-06
1.87566e-05
1.87368e-05
2.65737e-06
8.80203e-06
2.59666e-06
8.81037e-06
1.72978e-07
1.72982e-07
1.7298e-07
1.66551e-07
1.66549e-07
1.66554e-07
1.66552e-07
6.5432e-07
2.08873e-06
1.85183e-07
2.13621e-07
6.40333e-07
2.1265e-06
1.83145e-07
1.87583e-05
1.87386e-05
6.54357e-07
1.85183e-07
2.08885e-06
2.13634e-07
6.40371e-07
1.83149e-07
2.12672e-06
4.55803e-06
4.55977e-06
2.67665e-07
4.60935e-06
4.61141e-06
2.83135e-06
8.81917e-06
2.7677e-06
8.82676e-06
1.86972e-05
1.86816e-05
2.8319e-06
8.8211e-06
2.76746e-06
8.82865e-06
1.6454e-07
1.64545e-07
1.64542e-07
1.58882e-07
1.5888e-07
1.58886e-07
1.58883e-07
7.0408e-07
2.20468e-06
1.77535e-07
2.10281e-07
6.86696e-07
2.24234e-06
1.75823e-07
1.86988e-05
1.86832e-05
7.04119e-07
1.77535e-07
2.20481e-06
2.10297e-07
6.86735e-07
1.75827e-07
2.24255e-06
4.69101e-06
4.69282e-06
2.71499e-07
4.7348e-06
4.7369e-06
3.00734e-06
8.83648e-06
2.94324e-06
8.84345e-06
1.86483e-05
1.86352e-05
3.0079e-06
8.83841e-06
2.94301e-06
8.84535e-06
1.5712e-07
1.57125e-07
1.57122e-07
1.52192e-07
1.5219e-07
1.52196e-07
1.52193e-07
7.63687e-07
2.31922e-06
1.71187e-07
2.0895e-07
7.43128e-07
2.35576e-06
1.69794e-07
1.86499e-05
1.86368e-05
7.63727e-07
1.71186e-07
2.31934e-06
2.08971e-07
7.4317e-07
1.69799e-07
2.35598e-06
4.80348e-06
4.80532e-06
2.78688e-07
4.84e-06
4.84209e-06
3.1767e-06
8.85247e-06
3.11526e-06
8.859e-06
1.86057e-05
1.85938e-05
3.17727e-06
8.85439e-06
3.11505e-06
8.86089e-06
1.50666e-07
1.50672e-07
1.50669e-07
1.46434e-07
1.46432e-07
1.46438e-07
1.46435e-07
8.32136e-07
2.42956e-06
1.6612e-07
2.09658e-07
8.08797e-07
2.46425e-06
1.65045e-07
1.86073e-05
1.85956e-05
8.32178e-07
1.6612e-07
2.42969e-06
2.09681e-07
8.0884e-07
1.6505e-07
2.46447e-06
4.89711e-06
4.89898e-06
2.89264e-07
4.927e-06
4.92908e-06
3.33254e-06
8.86748e-06
3.27632e-06
8.87371e-06
1.85669e-05
1.85565e-05
3.3331e-06
8.86946e-06
3.27614e-06
8.87564e-06
1.45134e-07
1.45141e-07
1.45137e-07
1.41572e-07
1.41569e-07
1.41576e-07
1.41572e-07
9.07928e-07
2.53362e-06
1.62328e-07
2.1243e-07
8.8236e-07
2.56586e-06
1.61567e-07
1.85686e-05
1.85579e-05
9.07971e-07
1.62328e-07
2.53375e-06
2.12458e-07
8.82404e-07
1.61571e-07
2.56608e-06
4.97426e-06
4.97614e-06
3.03246e-07
4.99841e-06
5.00049e-06
3.47003e-06
8.8819e-06
3.42077e-06
8.88785e-06
1.85313e-05
1.85213e-05
3.47061e-06
8.88381e-06
3.4206e-06
8.88967e-06
1.40489e-07
1.40497e-07
1.40492e-07
1.37573e-07
1.3757e-07
1.37579e-07
1.37574e-07
9.89105e-07
2.62988e-06
1.59809e-07
2.17293e-07
9.62004e-07
2.65932e-06
1.59362e-07
1.85327e-05
1.85229e-05
9.89148e-07
1.5981e-07
2.63e-06
2.17325e-07
9.62049e-07
1.59366e-07
2.65953e-06
5.03745e-06
5.03933e-06
3.20633e-07
5.05681e-06
5.05888e-06
3.58668e-06
8.89549e-06
3.54529e-06
8.90103e-06
1.84976e-05
1.84883e-05
3.58726e-06
8.89727e-06
3.54512e-06
8.90278e-06
1.367e-07
1.36709e-07
1.36704e-07
1.34413e-07
1.3441e-07
1.3442e-07
1.34414e-07
1.07343e-06
2.7175e-06
1.58573e-07
2.24269e-07
1.04556e-06
2.74399e-06
1.5844e-07
1.84994e-05
1.84903e-05
1.07347e-06
1.58575e-07
2.71758e-06
2.24302e-07
1.0456e-06
1.58444e-07
2.74421e-06
5.0891e-06
5.09098e-06
3.41356e-07
5.10455e-06
5.10662e-06
3.68232e-06
8.90806e-06
3.64886e-06
8.91303e-06
1.84664e-05
1.8458e-05
3.68289e-06
8.90978e-06
3.64869e-06
8.9148e-06
1.33745e-07
1.33755e-07
1.33749e-07
1.32071e-07
1.32068e-07
1.32079e-07
1.32072e-07
1.15861e-06
2.79621e-06
1.58617e-07
2.33357e-07
1.13072e-06
2.81982e-06
1.58832e-07
1.84683e-05
1.84599e-05
1.15865e-06
1.58615e-07
2.79631e-06
2.33394e-07
1.13076e-06
1.58841e-07
2.82005e-06
5.13141e-06
5.13329e-06
3.6531e-07
5.14375e-06
5.14578e-06
3.75853e-06
8.91931e-06
3.73234e-06
8.92373e-06
1.84377e-05
1.843e-05
3.75909e-06
8.92106e-06
3.73216e-06
8.92554e-06
1.31602e-07
1.31613e-07
1.31606e-07
1.3053e-07
1.30527e-07
1.30539e-07
1.30532e-07
1.24245e-06
2.86627e-06
1.59987e-07
2.44548e-07
1.21525e-06
2.88714e-06
1.60534e-07
1.84395e-05
1.84318e-05
1.24249e-06
1.59985e-07
2.86638e-06
2.44588e-07
1.21529e-06
1.60545e-07
2.88736e-06
5.16611e-06
5.16803e-06
3.92282e-07
5.17613e-06
5.17808e-06
3.81789e-06
8.92923e-06
3.79793e-06
8.93313e-06
1.84112e-05
1.84042e-05
3.81844e-06
8.93103e-06
3.79776e-06
8.93498e-06
1.30255e-07
1.30267e-07
1.3026e-07
1.29779e-07
1.29776e-07
1.29789e-07
1.29781e-07
1.32312e-06
2.92824e-06
1.62691e-07
2.57816e-07
1.29716e-06
2.9466e-06
1.63576e-07
1.84129e-05
1.8406e-05
1.32315e-06
1.62689e-07
2.92834e-06
2.57859e-07
1.29719e-06
1.63588e-07
2.94681e-06
5.19471e-06
5.19664e-06
4.22008e-07
5.20298e-06
5.20495e-06
3.86336e-06
8.93791e-06
3.84848e-06
8.94133e-06
1.8387e-05
1.83807e-05
3.86391e-06
8.93974e-06
3.84832e-06
8.94321e-06
1.29693e-07
1.29707e-07
1.29699e-07
1.29793e-07
1.29791e-07
1.29805e-07
1.29797e-07
1.39919e-06
2.98283e-06
1.6675e-07
2.7311e-07
1.37488e-06
2.99896e-06
1.67979e-07
1.83887e-05
1.83825e-05
1.39922e-06
1.66748e-07
2.98292e-06
2.73158e-07
1.37491e-06
1.67993e-07
2.99916e-06
5.21857e-06
5.22051e-06
4.54131e-07
5.22549e-06
5.22745e-06
3.89794e-06
8.94551e-06
3.88701e-06
8.94855e-06
1.8365e-05
1.83594e-05
3.89848e-06
8.94735e-06
3.88686e-06
8.95043e-06
1.29918e-07
1.29934e-07
1.29926e-07
1.30589e-07
1.30587e-07
1.30603e-07
1.30595e-07
1.46971e-06
3.0309e-06
1.72181e-07
2.90361e-07
1.44731e-06
3.04508e-06
1.73754e-07
1.83667e-05
1.83612e-05
1.46973e-06
1.7218e-07
3.03098e-06
2.90414e-07
1.44734e-06
1.7377e-07
3.04526e-06
5.23865e-06
5.24058e-06
4.88245e-07
5.24447e-06
5.24643e-06
3.92425e-06
8.95225e-06
3.91626e-06
8.95502e-06
1.83452e-05
1.83404e-05
3.92475e-06
8.95411e-06
3.91613e-06
8.95691e-06
1.30907e-07
1.30924e-07
1.30915e-07
1.32154e-07
1.32151e-07
1.32168e-07
1.3216e-07
1.53417e-06
3.07331e-06
1.78991e-07
3.09478e-07
1.5138e-06
3.0858e-06
1.8091e-07
1.83469e-05
1.83422e-05
1.53419e-06
1.78991e-07
3.07338e-06
3.09535e-07
1.51383e-06
1.80927e-07
3.08597e-06
5.25573e-06
5.25765e-06
5.23911e-07
5.26069e-06
5.26264e-06
3.94451e-06
8.9584e-06
3.9385e-06
8.961e-06
1.83277e-05
1.83237e-05
3.94487e-06
8.96026e-06
3.93846e-06
8.96289e-06
1.32662e-07
1.32681e-07
1.32673e-07
1.34485e-07
1.34482e-07
1.34502e-07
1.34493e-07
1.59248e-06
3.11085e-06
1.87183e-07
3.30351e-07
1.57414e-06
3.12192e-06
1.89446e-07
1.83294e-05
1.83255e-05
1.5925e-06
1.87183e-07
3.11091e-06
3.30412e-07
1.57416e-06
1.89466e-07
3.12208e-06
5.27047e-06
5.27239e-06
5.60696e-07
5.27477e-06
5.27671e-06
3.96024e-06
8.96421e-06
3.9556e-06
8.96673e-06
1.83126e-05
1.83093e-05
3.9605e-06
8.96606e-06
3.95569e-06
8.96861e-06
1.35185e-07
1.35206e-07
1.35197e-07
1.37583e-07
1.37581e-07
1.37602e-07
1.37593e-07
1.64487e-06
3.14429e-06
1.96749e-07
3.5286e-07
1.62844e-06
3.15415e-06
1.99352e-07
1.83143e-05
1.83112e-05
1.64488e-06
1.9675e-07
3.14434e-06
3.52926e-07
1.62846e-06
1.99375e-07
3.1543e-06
5.2834e-06
5.28532e-06
5.98149e-07
5.28719e-06
5.28913e-06
3.97269e-06
8.96988e-06
3.96904e-06
8.97241e-06
1.82997e-05
1.82973e-05
3.97293e-06
8.97173e-06
3.96918e-06
8.97429e-06
1.38475e-07
1.38498e-07
1.38489e-07
1.41452e-07
1.41449e-07
1.41474e-07
1.41464e-07
1.69177e-06
3.17424e-06
2.07669e-07
3.76861e-07
1.67707e-06
3.18313e-06
2.10607e-07
1.83014e-05
1.82991e-05
1.69179e-06
2.07672e-07
3.17429e-06
3.76931e-07
1.6771e-06
2.10633e-07
3.18326e-06
5.29496e-06
5.29687e-06
6.35863e-07
5.29839e-06
5.30032e-06
3.98279e-06
8.97563e-06
3.97984e-06
8.97824e-06
1.82892e-05
1.82876e-05
3.98303e-06
8.97748e-06
3.97999e-06
8.98011e-06
1.42537e-07
1.42563e-07
1.42553e-07
1.46096e-07
1.46092e-07
1.46119e-07
1.46109e-07
1.73386e-06
3.20134e-06
2.19917e-07
4.02209e-07
1.72049e-06
3.20937e-06
2.23182e-07
1.82909e-05
1.82895e-05
1.73388e-06
2.19922e-07
3.20139e-06
4.02284e-07
1.72052e-06
2.23211e-07
3.20951e-06
5.30555e-06
5.30746e-06
6.73484e-07
5.3087e-06
5.31063e-06
3.99122e-06
8.98161e-06
3.98876e-06
8.98437e-06
1.8281e-05
1.82803e-05
3.99144e-06
8.98346e-06
3.9889e-06
8.98624e-06
1.47375e-07
1.47401e-07
1.47392e-07
1.51519e-07
1.51515e-07
1.51544e-07
1.51535e-07
1.77162e-06
3.22603e-06
2.33455e-07
4.28742e-07
1.75938e-06
3.23337e-06
2.37035e-07
1.82827e-05
1.82822e-05
1.77163e-06
2.3346e-07
3.22608e-06
4.2882e-07
1.75941e-06
2.37068e-07
3.23349e-06
5.31543e-06
5.31733e-06
7.1069e-07
5.3184e-06
5.32033e-06
3.99851e-06
8.98797e-06
3.99637e-06
8.99089e-06
1.82752e-05
1.82754e-05
3.99867e-06
8.98983e-06
3.99648e-06
8.99279e-06
1.52992e-07
1.53023e-07
1.53013e-07
1.57725e-07
1.57721e-07
1.57753e-07
1.57742e-07
1.80566e-06
3.24875e-06
2.48237e-07
4.56289e-07
1.79438e-06
3.25552e-06
2.5212e-07
1.82769e-05
1.82772e-05
1.80567e-06
2.48247e-07
3.24878e-06