/*--------------------------------*- C++ -*----------------------------------*\
| =========                 |                                                 |
| \\      /  F ield         | OpenFOAM: The Open Source CFD Toolbox           |
|  \\    /   O peration     | Version:  v2012                                 |
|   \\  /    A nd           | Website:  www.openfoam.com                      |
|    \\/     M anipulation  |                                                 |
\*---------------------------------------------------------------------------*/
FoamFile
{
    version     2.0;
    format      ascii;
    class       volScalarField;
    location    "750";
    object      k;
}
// * * * * * * * * * * * * * * * * * * * * * * * * * * * * * * * * * * * * * //

dimensions      [0 2 -2 0 0 0 0];


internalField   nonuniform List<scalar> 
85864
(
3.58932e-05
3.58912e-05
3.58912e-05
3.59957e-05
3.39296e-05
3.3889e-05
3.3889e-05
3.39622e-05
3.21578e-05
3.20081e-05
3.20081e-05
3.19522e-05
3.05346e-05
3.02293e-05
3.02292e-05
2.99884e-05
2.90329e-05
2.8554e-05
2.85539e-05
2.81226e-05
2.76353e-05
2.69872e-05
2.69871e-05
2.63907e-05
2.63308e-05
2.5531e-05
2.55309e-05
2.48073e-05
2.51112e-05
2.4185e-05
2.41848e-05
2.33782e-05
2.39709e-05
2.29506e-05
2.29504e-05
2.21046e-05
2.29058e-05
2.18269e-05
2.18267e-05
2.0986e-05
2.1912e-05
2.08114e-05
2.08112e-05
2.00134e-05
2.09865e-05
1.99013e-05
1.99011e-05
1.91814e-05
2.01241e-05
1.90947e-05
1.90946e-05
1.84895e-05
1.93239e-05
1.83885e-05
1.83884e-05
1.7933e-05
1.85847e-05
1.77793e-05
1.77792e-05
1.75062e-05
1.79042e-05
1.72656e-05
1.72656e-05
1.72001e-05
1.72798e-05
1.68465e-05
1.68466e-05
1.70225e-05
1.67097e-05
1.65211e-05
1.65212e-05
1.69817e-05
1.61923e-05
1.62895e-05
1.62897e-05
1.70789e-05
1.57254e-05
1.61516e-05
1.6152e-05
1.73039e-05
1.53073e-05
1.61072e-05
1.61077e-05
1.76569e-05
1.49374e-05
1.61533e-05
1.61539e-05
1.81341e-05
1.46145e-05
1.62919e-05
1.62926e-05
1.87289e-05
1.43382e-05
1.652e-05
1.65209e-05
1.94282e-05
1.4108e-05
1.68354e-05
1.68364e-05
2.02206e-05
1.39235e-05
1.72352e-05
1.72363e-05
2.10948e-05
1.37844e-05
1.77154e-05
1.77167e-05
2.20357e-05
1.36906e-05
1.82724e-05
1.82738e-05
2.30303e-05
1.36422e-05
1.89015e-05
1.89031e-05
2.40647e-05
1.36391e-05
1.95974e-05
1.95991e-05
2.51256e-05
1.36815e-05
2.03554e-05
2.03573e-05
2.62015e-05
1.37699e-05
2.11688e-05
2.11707e-05
2.72827e-05
1.39047e-05
2.20324e-05
2.20344e-05
2.8361e-05
1.40855e-05
2.29386e-05
2.29408e-05
2.9429e-05
1.43137e-05
2.38829e-05
2.3885e-05
3.04852e-05
1.45873e-05
2.48556e-05
2.48579e-05
3.15196e-05
1.4909e-05
2.58553e-05
2.58576e-05
3.25381e-05
1.52762e-05
2.68715e-05
2.68739e-05
3.35328e-05
1.56888e-05
2.78986e-05
2.79012e-05
3.45037e-05
1.61461e-05
2.8933e-05
2.89354e-05
3.54512e-05
1.66471e-05
2.99678e-05
2.99707e-05
3.63732e-05
1.71898e-05
3.09993e-05
3.10023e-05
3.72698e-05
1.77729e-05
3.20238e-05
3.20268e-05
3.81419e-05
1.83937e-05
3.30358e-05
3.30388e-05
3.89881e-05
1.90501e-05
3.40332e-05
3.40355e-05
3.98116e-05
1.97401e-05
3.50123e-05
3.50151e-05
4.06096e-05
2.04556e-05
3.59666e-05
3.59689e-05
4.13792e-05
3.63068e-05
3.6291e-05
3.6291e-05
3.63068e-05
3.6291e-05
3.6291e-05
3.6423e-05
3.6423e-05
3.6423e-05
3.6423e-05
3.6291e-05
3.6291e-05
3.63068e-05
3.6291e-05
3.6291e-05
3.63068e-05
3.59957e-05
3.42687e-05
3.58912e-05
3.58912e-05
3.43767e-05
3.43766e-05
3.59957e-05
3.42687e-05
3.58911e-05
3.58912e-05
3.43767e-05
3.43766e-05
3.58912e-05
3.43767e-05
3.43767e-05
3.59957e-05
3.42687e-05
3.58912e-05
3.43767e-05
3.43767e-05
3.42687e-05
3.39623e-05
3.22635e-05
3.38889e-05
3.38889e-05
3.24684e-05
3.24683e-05
3.39623e-05
3.22635e-05
3.38889e-05
3.38889e-05
3.24684e-05
3.24683e-05
3.38889e-05
3.24685e-05
3.24684e-05
3.39623e-05
3.22634e-05
3.38889e-05
3.24685e-05
3.24684e-05
3.22634e-05
3.19522e-05
3.02993e-05
3.20079e-05
3.20078e-05
3.06643e-05
3.06642e-05
3.19522e-05
3.02994e-05
3.2008e-05
3.20078e-05
3.06644e-05
3.06641e-05
3.20079e-05
3.06646e-05
3.06643e-05
3.19522e-05
3.02992e-05
3.2008e-05
3.06645e-05
3.06644e-05
3.02992e-05
2.99885e-05
2.84253e-05
3.0229e-05
3.02288e-05
2.89624e-05
2.89622e-05
2.99886e-05
2.84255e-05
3.02291e-05
3.02287e-05
2.89626e-05
2.89621e-05
3.02289e-05
2.89628e-05
2.89623e-05
2.99884e-05
2.84252e-05
3.02291e-05
2.89627e-05
2.89626e-05
2.84252e-05
2.81227e-05
2.6674e-05
2.85536e-05
2.85534e-05
2.7368e-05
2.73678e-05
2.81228e-05
2.66742e-05
2.85538e-05
2.85533e-05
2.73683e-05
2.73676e-05
2.85535e-05
2.73685e-05
2.73679e-05
2.81226e-05
2.66739e-05
2.85538e-05
2.73684e-05
2.73683e-05
2.66738e-05
2.63908e-05
2.50663e-05
2.69866e-05
2.69864e-05
2.58841e-05
2.58838e-05
2.6391e-05
2.50665e-05
2.6987e-05
2.69862e-05
2.58845e-05
2.58836e-05
2.69865e-05
2.58848e-05
2.5884e-05
2.63907e-05
2.50661e-05
2.69869e-05
2.58846e-05
2.58844e-05
2.50661e-05
2.48075e-05
2.36125e-05
2.55304e-05
2.55301e-05
2.45102e-05
2.45099e-05
2.48076e-05
2.36127e-05
2.55308e-05
2.55299e-05
2.45107e-05
2.45097e-05
2.55302e-05
2.4511e-05
2.45102e-05
2.48073e-05
2.36123e-05
2.55307e-05
2.45108e-05
2.45107e-05
2.36123e-05
2.33784e-05
2.23124e-05
2.41842e-05
2.41838e-05
2.32478e-05
2.32475e-05
2.33785e-05
2.23126e-05
2.41847e-05
2.41836e-05
2.32484e-05
2.32473e-05
2.41841e-05
2.32488e-05
2.32478e-05
2.33782e-05
2.23122e-05
2.41846e-05
2.32485e-05
2.32484e-05
2.23122e-05
2.21049e-05
2.11681e-05
2.29497e-05
2.29494e-05
2.20965e-05
2.20962e-05
2.21051e-05
2.11683e-05
2.29503e-05
2.29491e-05
2.20972e-05
2.2096e-05
2.29496e-05
2.20976e-05
2.20965e-05
2.21047e-05
2.11678e-05
2.29503e-05
2.20973e-05
2.20972e-05
2.11678e-05
2.09863e-05
2.01708e-05
2.18259e-05
2.18255e-05
2.10542e-05
2.10538e-05
2.09865e-05
2.01709e-05
2.18266e-05
2.18253e-05
2.10549e-05
2.10536e-05
2.18258e-05
2.10552e-05
2.10541e-05
2.09861e-05
2.01705e-05
2.18265e-05
2.1055e-05
2.10549e-05
2.01704e-05
2.00137e-05
1.93146e-05
2.08103e-05
2.081e-05
2.0118e-05
2.01176e-05
2.00138e-05
1.93148e-05
2.08111e-05
2.08097e-05
2.01188e-05
2.01174e-05
2.08102e-05
2.01191e-05
2.01179e-05
2.00134e-05
1.93144e-05
2.08111e-05
2.01189e-05
2.01188e-05
1.93143e-05
1.91817e-05
1.85904e-05
1.99002e-05
1.98999e-05
1.92855e-05
1.92852e-05
1.91818e-05
1.85906e-05
1.9901e-05
1.98997e-05
1.92863e-05
1.9285e-05
1.99001e-05
1.92866e-05
1.92855e-05
1.91815e-05
1.85902e-05
1.9901e-05
1.92865e-05
1.92864e-05
1.859e-05
1.84898e-05
1.79978e-05
1.90936e-05
1.90933e-05
1.85545e-05
1.85542e-05
1.84899e-05
1.79979e-05
1.90945e-05
1.90931e-05
1.85553e-05
1.8554e-05
1.90936e-05
1.85555e-05
1.85544e-05
1.84896e-05
1.79976e-05
1.90945e-05
1.85554e-05
1.85553e-05
1.79974e-05
1.79333e-05
1.75392e-05
1.83874e-05
1.83871e-05
1.79213e-05
1.79211e-05
1.79333e-05
1.75393e-05
1.83883e-05
1.8387e-05
1.79221e-05
1.79209e-05
1.83874e-05
1.79223e-05
1.79213e-05
1.79331e-05
1.75391e-05
1.83883e-05
1.79222e-05
1.79222e-05
1.75389e-05
1.75065e-05
1.72177e-05
1.77783e-05
1.77781e-05
1.73838e-05
1.73836e-05
1.75065e-05
1.72176e-05
1.77792e-05
1.77779e-05
1.73846e-05
1.73835e-05
1.77783e-05
1.73846e-05
1.73838e-05
1.75063e-05
1.72176e-05
1.77792e-05
1.73846e-05
1.73846e-05
1.72174e-05
1.72004e-05
1.7026e-05
1.72648e-05
1.72646e-05
1.69411e-05
1.69409e-05
1.72003e-05
1.70258e-05
1.72655e-05
1.72645e-05
1.69418e-05
1.69409e-05
1.72647e-05
1.69418e-05
1.6941e-05
1.72003e-05
1.7026e-05
1.72655e-05
1.69418e-05
1.69418e-05
1.70258e-05
1.70227e-05
1.69725e-05
1.68458e-05
1.68457e-05
1.65921e-05
1.65919e-05
1.70225e-05
1.69722e-05
1.68465e-05
1.68456e-05
1.65927e-05
1.6592e-05
1.68458e-05
1.65926e-05
1.6592e-05
1.70226e-05
1.69725e-05
1.68465e-05
1.65927e-05
1.65927e-05
1.69723e-05
1.69818e-05
1.70434e-05
1.65206e-05
1.65204e-05
1.63368e-05
1.63367e-05
1.69815e-05
1.70431e-05
1.65213e-05
1.65205e-05
1.63374e-05
1.63369e-05
1.65205e-05
1.63372e-05
1.63368e-05
1.69818e-05
1.70435e-05
1.65213e-05
1.63374e-05
1.63375e-05
1.70433e-05
1.70789e-05
1.72435e-05
1.62892e-05
1.62891e-05
1.61753e-05
1.61753e-05
1.70786e-05
1.7243e-05
1.62897e-05
1.62892e-05
1.61759e-05
1.61755e-05
1.62891e-05
1.61755e-05
1.61753e-05
1.7079e-05
1.72437e-05
1.62898e-05
1.61758e-05
1.61759e-05
1.72435e-05
1.73038e-05
1.7572e-05
1.61515e-05
1.61515e-05
1.61071e-05
1.61073e-05
1.73034e-05
1.75715e-05
1.61521e-05
1.61517e-05
1.61076e-05
1.61075e-05
1.61515e-05
1.61071e-05
1.61071e-05
1.7304e-05
1.75724e-05
1.61521e-05
1.61076e-05
1.61077e-05
1.75722e-05
1.76567e-05
1.80252e-05
1.61072e-05
1.61074e-05
1.61328e-05
1.61331e-05
1.76563e-05
1.80246e-05
1.61077e-05
1.61076e-05
1.61332e-05
1.61334e-05
1.61072e-05
1.61327e-05
1.61329e-05
1.76571e-05
1.80256e-05
1.61078e-05
1.61332e-05
1.61335e-05
1.80255e-05
1.81337e-05
1.85974e-05
1.61534e-05
1.61538e-05
1.62489e-05
1.62494e-05
1.81332e-05
1.85968e-05
1.6154e-05
1.61541e-05
1.62493e-05
1.62498e-05
1.61536e-05
1.62487e-05
1.62491e-05
1.81342e-05
1.85979e-05
1.61541e-05
1.62493e-05
1.62496e-05
1.85979e-05
1.87285e-05
1.92758e-05
1.62921e-05
1.62927e-05
1.6455e-05
1.64555e-05
1.8728e-05
1.9275e-05
1.62926e-05
1.6293e-05
1.64553e-05
1.6456e-05
1.62924e-05
1.64546e-05
1.64553e-05
1.87291e-05
1.92764e-05
1.62928e-05
1.64553e-05
1.64558e-05
1.92764e-05
1.94276e-05
2.00493e-05
1.65205e-05
1.65211e-05
1.6749e-05
1.67497e-05
1.94268e-05
2.00487e-05
1.65209e-05
1.65215e-05
1.67491e-05
1.67502e-05
1.65208e-05
1.67484e-05
1.67494e-05
1.94281e-05
2.00504e-05
1.65212e-05
1.67493e-05
1.67497e-05
2.00502e-05
2.02199e-05
2.09069e-05
1.6836e-05
1.68367e-05
1.71285e-05
1.71291e-05
2.02193e-05
2.09058e-05
1.68363e-05
1.68373e-05
1.71285e-05
1.71298e-05
1.68364e-05
1.71275e-05
1.71289e-05
2.02208e-05
2.09077e-05
1.68368e-05
1.71285e-05
1.71292e-05
2.09077e-05
2.1094e-05
2.18334e-05
1.72362e-05
1.72368e-05
1.75891e-05
1.75898e-05
2.1093e-05
2.18324e-05
1.72362e-05
1.72374e-05
1.75889e-05
1.75906e-05
1.72366e-05
1.7588e-05
1.75897e-05
2.10948e-05
2.18346e-05
1.72368e-05
1.75891e-05
1.75898e-05
2.18347e-05
2.20345e-05
2.28164e-05
1.77166e-05
1.77173e-05
1.81276e-05
1.81284e-05
2.20336e-05
2.28154e-05
1.77164e-05
1.77182e-05
1.81272e-05
1.81292e-05
1.77172e-05
1.81263e-05
1.81282e-05
2.20357e-05
2.28178e-05
1.77173e-05
1.81275e-05
1.81281e-05
2.28178e-05
2.30292e-05
2.38416e-05
1.8274e-05
1.82746e-05
1.87393e-05
1.874e-05
2.30281e-05
2.38403e-05
1.82736e-05
1.82755e-05
1.87386e-05
1.8741e-05
1.82746e-05
1.87376e-05
1.87402e-05
2.30303e-05
2.3843e-05
1.82744e-05
1.8739e-05
1.87398e-05
2.38434e-05
2.40631e-05
2.48961e-05
1.89033e-05
1.89039e-05
1.94196e-05
1.94202e-05
2.40619e-05
2.48949e-05
1.89026e-05
1.8905e-05
1.94186e-05
1.94212e-05
1.8904e-05
1.94175e-05
1.94205e-05
2.40644e-05
2.48976e-05
1.89036e-05
1.9419e-05
1.94198e-05
2.48978e-05
2.5124e-05
2.59675e-05
1.95995e-05
1.96e-05
2.01627e-05
2.01634e-05
2.51227e-05
2.59663e-05
1.95986e-05
1.96012e-05
2.01613e-05
2.01644e-05
1.96005e-05
2.01605e-05
2.01636e-05
2.51253e-05
2.59691e-05
1.95998e-05
2.01621e-05
2.01627e-05
2.59694e-05
2.61998e-05
2.70465e-05
2.03578e-05
2.03582e-05
2.09631e-05
2.09635e-05
2.61988e-05
2.70449e-05
2.03565e-05
2.03596e-05
2.09615e-05
2.09649e-05
2.03587e-05
2.09605e-05
2.09642e-05
2.62013e-05
2.7048e-05
2.03578e-05
2.09624e-05
2.0963e-05
2.70485e-05
2.72808e-05
2.81241e-05
2.11714e-05
2.11718e-05
2.18152e-05
2.18155e-05
2.72794e-05
2.81225e-05
2.11698e-05
2.11731e-05
2.18132e-05
2.18167e-05
2.11725e-05
2.18124e-05
2.18164e-05
2.72822e-05
2.81255e-05
2.11712e-05
2.1814e-05
2.18148e-05
2.81261e-05
2.83591e-05
2.91931e-05
2.20352e-05
2.20356e-05
2.27109e-05
2.27112e-05
2.83577e-05
2.91916e-05
2.20333e-05
2.20369e-05
2.27086e-05
2.27128e-05
2.20367e-05
2.2708e-05
2.27123e-05
2.83604e-05
2.9195e-05
2.20351e-05
2.27101e-05
2.27105e-05
2.91954e-05
2.94271e-05
3.0251e-05
2.29415e-05
2.29418e-05
2.36473e-05
2.36474e-05
2.94257e-05
3.02492e-05
2.29393e-05
2.29433e-05
2.36448e-05
2.36488e-05
2.29427e-05
2.36441e-05
2.36488e-05
2.94288e-05
3.02523e-05
2.29409e-05
2.36461e-05
2.36467e-05
3.02531e-05
3.04831e-05
3.12886e-05
2.38862e-05
2.38861e-05
2.46127e-05
2.46127e-05
3.04814e-05
3.12869e-05
2.38838e-05
2.38876e-05
2.46099e-05
2.46144e-05
2.38878e-05
2.46096e-05
2.46145e-05
3.04842e-05
3.12902e-05
2.38857e-05
2.46117e-05
2.46122e-05
3.1291e-05
3.15175e-05
3.23102e-05
2.48585e-05
2.48588e-05
2.56067e-05
2.56065e-05
3.1516e-05
3.23087e-05
2.48559e-05
2.48605e-05
2.56038e-05
2.56083e-05
2.48604e-05
2.56034e-05
2.56084e-05
3.1519e-05
3.23118e-05
2.4858e-05
2.56057e-05
2.56059e-05
3.23123e-05
3.25363e-05
3.33095e-05
2.58586e-05
2.58584e-05
2.66193e-05
2.66193e-05
3.25347e-05
3.33079e-05
2.58559e-05
2.586e-05
2.66164e-05
2.66209e-05
2.58606e-05
2.66162e-05
2.66216e-05
3.25374e-05
3.33109e-05
2.5858e-05
2.66185e-05
2.66188e-05
3.3312e-05
3.35306e-05
3.4285e-05
2.68745e-05
2.68745e-05
2.76443e-05
2.76438e-05
3.35293e-05
3.42829e-05
2.68717e-05
2.68762e-05
2.76414e-05
2.76457e-05
2.68767e-05
2.76409e-05
2.76465e-05
3.3532e-05
3.42862e-05
2.6874e-05
2.76435e-05
2.76437e-05
3.4287e-05
3.45017e-05
3.5237e-05
2.7902e-05
2.79015e-05
2.86766e-05
2.86766e-05
3.44998e-05
3.52356e-05
2.78992e-05
2.79033e-05
2.86738e-05
2.86782e-05
2.79043e-05
2.86739e-05
2.86796e-05
3.45026e-05
3.52383e-05
2.79016e-05
2.86762e-05
2.86767e-05
3.52397e-05
3.54488e-05
3.61651e-05
2.89357e-05
2.89357e-05
2.97122e-05
2.97122e-05
3.54475e-05
3.61636e-05
2.8933e-05
2.89373e-05
2.97093e-05
2.97139e-05
2.89386e-05
2.97095e-05
2.97149e-05
3.545e-05
3.61663e-05
2.89358e-05
2.97122e-05
2.97121e-05
3.61671e-05
3.63713e-05
3.70668e-05
2.99706e-05
2.99704e-05
3.07446e-05
3.07442e-05
3.63699e-05
3.70649e-05
2.99682e-05
2.99724e-05
3.07421e-05
3.07461e-05
2.99734e-05
3.07418e-05
3.07478e-05
3.63724e-05
3.70674e-05
2.99706e-05
3.07446e-05
3.07451e-05
3.7069e-05
3.72676e-05
3.79445e-05
3.10022e-05
3.10018e-05
3.17712e-05
3.17711e-05
3.72659e-05
3.79429e-05
3.09999e-05
3.10037e-05
3.17687e-05
3.17729e-05
3.10052e-05
3.17688e-05
3.17747e-05
3.72682e-05
3.79455e-05
3.10025e-05
3.17716e-05
3.17719e-05
3.79467e-05
3.81397e-05
3.87966e-05
3.20264e-05
3.20261e-05
3.27864e-05
3.27864e-05
3.81382e-05
3.8795e-05
3.20242e-05
3.20281e-05
3.27841e-05
3.2788e-05
3.20297e-05
3.27843e-05
3.27897e-05
3.81406e-05
3.87973e-05
3.2027e-05
3.27871e-05
3.2787e-05
3.87986e-05
3.89862e-05
3.96249e-05
3.30381e-05
3.3038e-05
3.37872e-05
3.37872e-05
3.89848e-05
3.96233e-05
3.3036e-05
3.30397e-05
3.37848e-05
3.37881e-05
3.30412e-05
3.37852e-05
3.37908e-05
3.89869e-05
3.96251e-05
3.30386e-05
3.37874e-05
3.37881e-05
3.96272e-05
3.98094e-05
4.04295e-05
3.40357e-05
3.40352e-05
3.4772e-05
3.47718e-05
3.98077e-05
4.04276e-05
3.40334e-05
3.40363e-05
3.47699e-05
3.47734e-05
3.40391e-05
3.47699e-05
3.47754e-05
3.98094e-05
4.04301e-05
3.40364e-05
3.47728e-05
3.4773e-05
4.04316e-05
4.06076e-05
4.12044e-05
3.50142e-05
3.50142e-05
3.57311e-05
3.57316e-05
4.0606e-05
4.12034e-05
3.50121e-05
3.50156e-05
3.57292e-05
3.5733e-05
3.50175e-05
3.57299e-05
3.57348e-05
4.06084e-05
4.12054e-05
3.50151e-05
3.57328e-05
3.57326e-05
4.12067e-05
4.13769e-05
4.19581e-05
3.5968e-05
3.59683e-05
3.66699e-05
3.66693e-05
4.13759e-05
4.1956e-05
3.5966e-05
3.5969e-05
3.6668e-05
3.66704e-05
3.59715e-05
3.66677e-05
3.66731e-05
4.13776e-05
4.19577e-05
3.59692e-05
3.667e-05
3.66708e-05
4.19599e-05
3.73773e-05
3.73765e-05
3.7377e-05
3.7377e-05
3.73701e-05
3.73777e-05
3.73043e-05
3.73768e-05
3.73702e-05
3.73777e-05
3.73768e-05
3.73043e-05
3.73741e-05
3.72959e-05
3.72959e-05
3.58798e-05
4.0872e-05
3.66033e-05
4.51467e-05
5.51147e-05
6.48951e-05
3.58803e-05
4.08712e-05
3.66034e-05
4.51465e-05
3.58932e-05
3.58933e-05
3.58932e-05
3.44005e-05
3.44005e-05
3.44005e-05
3.44005e-05
3.52758e-05
3.56384e-05
3.58929e-05
3.53771e-05
3.60475e-05
3.42365e-05
3.53822e-05
5.51168e-05
6.48994e-05
3.52758e-05
3.58929e-05
3.5638e-05
3.53771e-05
3.60475e-05
3.53822e-05
3.42375e-05
3.65971e-05
3.65977e-05
3.5279e-05
3.40642e-05
3.40633e-05
3.39657e-05
5.13534e-05
3.46793e-05
5.46249e-05
7.65447e-05
8.08614e-05
3.39682e-05
5.13544e-05
3.46789e-05
5.46254e-05
3.39296e-05
3.39297e-05
3.39297e-05
3.25854e-05
3.25854e-05
3.25855e-05
3.25855e-05
3.30541e-05
3.2475e-05
3.39295e-05
3.34087e-05
3.38961e-05
3.15754e-05
3.34678e-05
7.65458e-05
8.08655e-05
3.30541e-05
3.39295e-05
3.24739e-05
3.34087e-05
3.38958e-05
3.34678e-05
3.15773e-05
3.17169e-05
3.17162e-05
3.32637e-05
3.09255e-05
3.09239e-05
3.22498e-05
5.91693e-05
3.29238e-05
6.14406e-05
8.43919e-05
8.50677e-05
3.2252e-05
5.91711e-05
3.29217e-05
6.14427e-05
3.21578e-05
3.21578e-05
3.21578e-05
3.09282e-05
3.09282e-05
3.09281e-05
3.09282e-05
3.07893e-05
3.05137e-05
3.21376e-05
3.15541e-05
3.16368e-05
2.98864e-05
3.17101e-05
8.43937e-05
8.50702e-05
3.07892e-05
3.21376e-05
3.05135e-05
3.1554e-05
3.16363e-05
3.17101e-05
2.98874e-05
3.02179e-05
3.02169e-05
3.12731e-05
3.00048e-05
3.00034e-05
3.0753e-05
6.43513e-05
3.13503e-05
6.57272e-05
8.46111e-05
8.39117e-05
3.07539e-05
6.43529e-05
3.13504e-05
6.57306e-05
3.05346e-05
3.05346e-05
3.05346e-05
2.9398e-05
2.9398e-05
2.93979e-05
2.9398e-05
2.86006e-05
2.91415e-05
3.04694e-05
2.98005e-05
2.9413e-05
2.86746e-05
3.00687e-05
8.46109e-05
8.39146e-05
2.86005e-05
3.04694e-05
2.91421e-05
2.98004e-05
2.94126e-05
3.00687e-05
2.86756e-05
2.99417e-05
2.99406e-05
2.93483e-05
3.00363e-05
3.00353e-05
2.95178e-05
6.73195e-05
3.00007e-05
6.80344e-05
8.22129e-05
8.12213e-05
2.95188e-05
6.73217e-05
3.0001e-05
6.8038e-05
2.90329e-05
2.90328e-05
2.90328e-05
2.79756e-05
2.79756e-05
2.79756e-05
2.79756e-05
2.65676e-05
2.8123e-05
2.89027e-05
2.8152e-05
2.73171e-05
2.77811e-05
2.85257e-05
8.22116e-05
8.12239e-05
2.65676e-05
2.89027e-05
2.81234e-05
2.81519e-05
2.73166e-05
2.85256e-05
2.7782e-05
3.0443e-05
3.04424e-05
2.7533e-05
3.07816e-05
3.07812e-05
2.86038e-05
6.87422e-05
2.89474e-05
6.90373e-05
7.94345e-05
7.85339e-05
2.86048e-05
6.87455e-05
2.89476e-05
6.90408e-05
2.76353e-05
2.76353e-05
2.76353e-05
2.66486e-05
2.66487e-05
2.66486e-05
2.66486e-05
2.47435e-05
2.74061e-05
2.74287e-05
2.66128e-05
2.54141e-05
2.71909e-05
2.70743e-05
7.94324e-05
7.85363e-05
2.47437e-05
2.74286e-05
2.74064e-05
2.66126e-05
2.54135e-05
2.70741e-05
2.71918e-05
3.15632e-05
3.15634e-05
2.58511e-05
3.21322e-05
3.21321e-05
2.80582e-05
6.92515e-05
2.82445e-05
6.93115e-05
7.70046e-05
7.62886e-05
2.8059e-05
6.9255e-05
2.82446e-05
6.93149e-05
2.63308e-05
2.63307e-05
2.63307e-05
2.54084e-05
2.54084e-05
2.54083e-05
2.54084e-05
2.31636e-05
2.70012e-05
2.60445e-05
2.51841e-05
2.37463e-05
2.69208e-05
2.57123e-05
7.70028e-05
7.62907e-05
2.31638e-05
2.60444e-05
2.70016e-05
2.51839e-05
2.37457e-05
2.57121e-05
2.69216e-05
3.3191e-05
3.31919e-05
2.432e-05
3.39238e-05
3.39255e-05
2.79138e-05
6.92998e-05
2.79275e-05
6.92722e-05
7.50726e-05
7.4536e-05
2.79141e-05
6.93033e-05
2.79276e-05
6.92756e-05
2.51112e-05
2.51111e-05
2.51111e-05
2.42488e-05
2.42488e-05
2.42486e-05
2.42487e-05
2.18464e-05
2.69345e-05
2.47489e-05
2.38659e-05
2.23369e-05
2.69821e-05
2.44388e-05
7.50715e-05
7.4537e-05
2.18466e-05
2.47488e-05
2.69345e-05
2.38657e-05
2.23364e-05
2.44386e-05
2.69828e-05
3.51911e-05
3.51934e-05
2.29424e-05
3.60337e-05
3.60366e-05
2.81583e-05
6.91977e-05
2.80319e-05
6.91652e-05
7.36075e-05
7.32125e-05
2.81586e-05
6.92013e-05
2.80315e-05
6.91689e-05
2.3971e-05
2.39708e-05
2.39709e-05
2.31652e-05
2.31652e-05
2.3165e-05
2.31651e-05
2.08003e-05
2.72001e-05
2.3541e-05
2.26594e-05
2.11952e-05
2.73551e-05
2.32523e-05
7.36078e-05
7.32127e-05
2.08005e-05
2.35409e-05
2.72003e-05
2.26592e-05
2.11947e-05
2.3252e-05
2.73559e-05
3.74384e-05
3.74416e-05
2.1721e-05
3.83472e-05
3.83523e-05
2.88216e-05
6.91148e-05
2.85547e-05
6.91034e-05
7.25282e-05
7.22428e-05
2.88249e-05
6.91187e-05
2.85543e-05
6.91075e-05
2.29058e-05
2.29056e-05
2.29057e-05
2.21538e-05
2.21538e-05
2.21536e-05
2.21537e-05
2.00274e-05
2.778e-05
2.24172e-05
2.15629e-05
2.03182e-05
2.80347e-05
2.21492e-05
7.25286e-05
7.22433e-05
2.00275e-05
2.2417e-05
2.77803e-05
2.15627e-05
2.0318e-05
2.2149e-05
2.80357e-05
3.982e-05
3.98248e-05
2.06511e-05
4.07612e-05
4.0768e-05
2.99321e-05
6.91014e-05
2.94771e-05
6.9116e-05
7.17509e-05
7.15497e-05
2.99377e-05
6.91057e-05
2.94704e-05
6.91205e-05
2.1912e-05
2.19118e-05
2.19119e-05
2.12114e-05
2.12115e-05
2.12112e-05
2.12114e-05
1.95212e-05
2.86495e-05
2.1377e-05
2.05741e-05
1.97026e-05
2.89933e-05
2.113e-05
7.17514e-05
7.15502e-05
1.95213e-05
2.13768e-05
2.865e-05
2.05739e-05
1.97026e-05
2.11298e-05
2.89947e-05
4.22417e-05
4.22476e-05
1.97251e-05
4.31808e-05
4.31895e-05
3.14464e-05
6.91511e-05
3.0805e-05
6.91881e-05
7.12024e-05
7.10631e-05
3.14488e-05
6.91561e-05
3.08018e-05
6.9193e-05
2.09865e-05
2.09863e-05
2.09864e-05
2.03339e-05
2.0334e-05
2.03337e-05
2.03339e-05
1.92796e-05
2.97739e-05
2.042e-05
1.96899e-05
1.93513e-05
3.01944e-05
2.01934e-05
7.12028e-05
7.10636e-05
1.92798e-05
2.04199e-05
2.97747e-05
1.96897e-05
1.93514e-05
2.01931e-05
3.01958e-05
4.46187e-05
4.46262e-05
1.89357e-05
4.5525e-05
4.55351e-05
3.33272e-05
6.92458e-05
3.25317e-05
6.92927e-05
7.08194e-05
7.07234e-05
3.33276e-05
6.92511e-05
3.25322e-05
6.92979e-05
2.01241e-05
2.01239e-05
2.0124e-05
1.9518e-05
1.9518e-05
1.95178e-05
1.95179e-05
1.92974e-05
3.11128e-05
1.95433e-05
1.89087e-05
1.9266e-05
3.15947e-05
1.93363e-05
7.08199e-05
7.07238e-05
1.92976e-05
1.95432e-05
3.11136e-05
1.89085e-05
1.92662e-05
1.93361e-05
3.15962e-05
4.68787e-05
4.68873e-05
1.82773e-05
4.77313e-05
4.77427e-05
3.55267e-05
6.93569e-05
3.46096e-05
6.94044e-05
7.05506e-05
7.04833e-05
3.55268e-05
6.93625e-05
3.46105e-05
6.94099e-05
1.93239e-05
1.93237e-05
1.93238e-05
1.87638e-05
1.87638e-05
1.87636e-05
1.87637e-05
1.95664e-05
3.2619e-05
1.87441e-05
1.8227e-05
1.94491e-05
3.31457e-05
1.8556e-05
7.0551e-05
7.04836e-05
1.95666e-05
1.8744e-05
3.26201e-05
1.82269e-05
1.94493e-05
1.85558e-05
3.31473e-05
4.89709e-05
4.89806e-05
1.77512e-05
4.97536e-05
4.97658e-05
3.79664e-05
6.94662e-05
3.69626e-05
6.95102e-05
7.03561e-05
7.03066e-05
3.79665e-05
6.94719e-05
3.69638e-05
6.95158e-05
1.85848e-05
1.85845e-05
1.85847e-05
1.80687e-05
1.80688e-05
1.80685e-05
1.80687e-05
2.00911e-05
3.42412e-05
1.80197e-05
1.76416e-05
1.98893e-05
3.47948e-05
1.78499e-05
7.03565e-05
7.0307e-05
2.00914e-05
1.80196e-05
3.42423e-05
1.76415e-05
1.98896e-05
1.78498e-05
3.47965e-05
5.08628e-05
5.08732e-05
1.73616e-05
5.15701e-05
5.15828e-05
4.0546e-05
6.95664e-05
3.9496e-05
6.96063e-05
7.02072e-05
7.01681e-05
4.05461e-05
6.95722e-05
3.94973e-05
6.96119e-05
1.79042e-05
1.7904e-05
1.79041e-05
1.74305e-05
1.74305e-05
1.74303e-05
1.74305e-05
2.08646e-05
3.59273e-05
1.73678e-05
1.71514e-05
2.05813e-05
3.64914e-05
1.72159e-05
7.02074e-05
7.01684e-05
2.08649e-05
1.73678e-05
3.59284e-05
1.71514e-05
2.05816e-05
1.72158e-05
3.6493e-05
5.25446e-05
5.25555e-05
1.71052e-05
5.3176e-05
5.31889e-05
4.31516e-05
6.96574e-05
4.21002e-05
6.9694e-05
7.00847e-05
7.00519e-05
4.31521e-05
6.96632e-05
4.21016e-05
6.96996e-05
1.72799e-05
1.72797e-05
1.72798e-05
1.68469e-05
1.68469e-05
1.68468e-05
1.68469e-05
2.18734e-05
3.7629e-05
1.67877e-05
1.67555e-05
2.1514e-05
3.81888e-05
1.66535e-05
7.0085e-05
7.00522e-05
2.18738e-05
1.67877e-05
3.76301e-05
1.67556e-05
2.15144e-05
1.66534e-05
3.81904e-05
5.40219e-05
5.40333e-05
1.69819e-05
5.45792e-05
5.45919e-05
4.56739e-05
6.97413e-05
4.46627e-05
6.97757e-05
6.9978e-05
6.99486e-05
4.56749e-05
6.97471e-05
4.46642e-05
6.97813e-05
1.67097e-05
1.67095e-05
1.67096e-05
1.63165e-05
1.63165e-05
1.63164e-05
1.63165e-05
2.30961e-05
3.93046e-05
1.62771e-05
1.64532e-05
2.26688e-05
3.9848e-05
1.61598e-05
6.99782e-05
6.9949e-05
2.30964e-05
1.62771e-05
3.93057e-05
1.64534e-05
2.26692e-05
1.61598e-05
3.98497e-05
5.53108e-05
5.53228e-05
1.69913e-05
5.57981e-05
5.58104e-05
4.80223e-05
6.98205e-05
4.70836e-05
6.98531e-05
6.9881e-05
6.98542e-05
4.8023e-05
6.98262e-05
4.70857e-05
6.98587e-05
1.61923e-05
1.61922e-05
1.61923e-05
1.58372e-05
1.58372e-05
1.58371e-05
1.58372e-05
2.45013e-05
4.09208e-05
1.58344e-05
1.62446e-05
2.40177e-05
4.14387e-05
1.5734e-05
6.98812e-05
6.98544e-05
2.45016e-05
1.58344e-05
4.09218e-05
1.62449e-05
2.4018e-05
1.5734e-05
4.14402e-05
5.64327e-05
5.64449e-05
1.71272e-05
5.68569e-05
5.68691e-05
5.01322e-05
6.98959e-05
4.929e-05
6.99268e-05
6.97913e-05
6.97664e-05
5.01334e-05
6.99015e-05
4.92919e-05
6.99323e-05
1.57254e-05
1.57253e-05
1.57254e-05
1.54071e-05
1.54071e-05
1.54071e-05
1.54071e-05
2.60492e-05
4.24532e-05
1.54594e-05
1.61296e-05
2.55233e-05
4.29395e-05
1.53757e-05
6.97913e-05
6.97665e-05
2.60495e-05
1.54594e-05
4.2454e-05
1.61301e-05
2.55237e-05
1.53758e-05
4.29427e-05
5.74091e-05
5.74212e-05
1.7392e-05
5.77791e-05
5.77914e-05
5.19721e-05
6.99669e-05
5.12386e-05
6.99957e-05
6.97072e-05
6.96841e-05
5.19736e-05
6.99724e-05
5.12403e-05
7.00012e-05
1.53073e-05
1.53073e-05
1.53073e-05
1.50253e-05
1.50253e-05
1.50252e-05
1.50253e-05
2.76947e-05
4.38866e-05
1.51518e-05
1.61103e-05
2.71419e-05
4.43394e-05
1.50849e-05
6.97074e-05
6.96845e-05
2.76949e-05
1.51518e-05
4.38818e-05
1.61108e-05
2.71422e-05
1.50849e-05
4.43469e-05
5.82612e-05
5.82732e-05
1.77835e-05
5.85856e-05
5.85978e-05
5.35403e-05
7.00325e-05
5.29178e-05
7.00586e-05
6.96291e-05
6.96079e-05
5.35419e-05
7.00379e-05
5.29193e-05
7.00643e-05
1.49373e-05
1.49374e-05
1.49374e-05
1.46907e-05
1.46907e-05
1.46907e-05
1.46908e-05
2.93911e-05
4.521e-05
1.49118e-05
1.61794e-05
2.88268e-05
4.56365e-05
1.48616e-05
6.96294e-05
6.96083e-05
2.93914e-05
1.49119e-05
4.52054e-05
1.61799e-05
2.88271e-05
1.48617e-05
4.56434e-05
5.90091e-05
5.90211e-05
1.82974e-05
5.92953e-05
5.93074e-05
5.48576e-05
7.00915e-05
5.43361e-05
7.01146e-05
6.95568e-05
6.95374e-05
5.48591e-05
7.00971e-05
5.43376e-05
7.01205e-05
1.46145e-05
1.46146e-05
1.46146e-05
1.44028e-05
1.44028e-05
1.44029e-05
1.44029e-05
3.10964e-05
4.64279e-05
1.47401e-05
1.63405e-05
3.05323e-05
4.68274e-05
1.47068e-05
6.95569e-05
6.95377e-05
3.1096e-05
1.47403e-05
4.64236e-05
1.63411e-05
3.0533e-05
1.4707e-05
4.68338e-05
5.96691e-05
5.9681e-05
1.89245e-05
5.99227e-05
5.99348e-05
5.59555e-05
7.01435e-05
5.55209e-05
7.01638e-05
6.94902e-05
6.94726e-05
5.59571e-05
7.01493e-05
5.55225e-05
7.01699e-05
1.43382e-05
1.43383e-05
1.43384e-05
1.4161e-05
1.4161e-05
1.41612e-05
1.41612e-05
3.27736e-05
4.75441e-05
1.46375e-05
1.65907e-05
3.22128e-05
4.7918e-05
1.46213e-05
6.94902e-05
6.94727e-05
3.27731e-05
1.46377e-05
4.754e-05
1.65915e-05
3.22134e-05
1.46215e-05
4.79238e-05
6.02553e-05
6.02673e-05
1.96523e-05
6.04817e-05
6.04938e-05
5.6871e-05
7.01889e-05
5.65078e-05
7.02068e-05
6.94292e-05
6.94135e-05
5.68726e-05
7.01949e-05
5.65093e-05
7.0213e-05
1.4108e-05
1.41082e-05
1.41082e-05
1.39652e-05
1.39651e-05
1.39654e-05
1.39654e-05
3.43884e-05
4.85655e-05
1.46048e-05
1.69275e-05
3.38404e-05
4.89155e-05
1.46072e-05
6.94291e-05
6.94135e-05
3.43879e-05
1.46051e-05
4.85614e-05
1.69284e-05
3.38408e-05
1.46076e-05
4.89208e-05
6.07795e-05
6.07914e-05
2.04692e-05
6.09834e-05
6.09955e-05
5.76399e-05
7.02286e-05
5.73335e-05
7.02446e-05
6.93739e-05
6.936e-05
5.76415e-05
7.02347e-05
5.73351e-05
7.02508e-05
1.39234e-05
1.39237e-05
1.39237e-05
1.38146e-05
1.38146e-05
1.38149e-05
1.3815e-05
3.59198e-05
4.95005e-05
1.464e-05
1.73478e-05
3.53911e-05
4.98287e-05
1.46599e-05
6.93737e-05
6.93599e-05
3.59194e-05
1.46403e-05
4.94964e-05
1.73489e-05
3.53914e-05
1.46603e-05
4.98334e-05
6.12518e-05
6.12636e-05
2.13635e-05
6.14362e-05
6.14481e-05
5.82939e-05
7.02639e-05
5.80319e-05
7.02784e-05
6.93242e-05
6.93121e-05
5.82955e-05
7.027e-05
5.80334e-05
7.02847e-05
1.37844e-05
1.37847e-05
1.37847e-05
1.37095e-05
1.37094e-05
1.37098e-05
1.37098e-05
3.73553e-05
5.03575e-05
1.47452e-05
1.78477e-05
3.68498e-05
5.06668e-05
1.47823e-05
6.93239e-05
6.9312e-05
3.7355e-05
1.47456e-05
5.03535e-05
1.78488e-05
3.68499e-05
1.47828e-05
5.06711e-05
6.16798e-05
6.16916e-05
2.23201e-05
6.1848e-05
6.18599e-05
5.88586e-05
7.02961e-05
5.8631e-05
7.03097e-05
6.92801e-05
6.92699e-05
5.88603e-05
7.03022e-05
5.86326e-05
7.0316e-05
1.36906e-05
1.3691e-05
1.3691e-05
1.36495e-05
1.36495e-05
1.36499e-05
1.365e-05
3.86903e-05
5.11452e-05
1.49191e-05
1.8423e-05
3.82098e-05
5.14383e-05
1.49732e-05
6.92799e-05
6.927e-05
3.86901e-05
1.49196e-05
5.11415e-05
1.84243e-05
3.82098e-05
1.49738e-05
5.14419e-05
6.2071e-05
6.20826e-05
2.33261e-05
6.22257e-05
6.22376e-05
5.93542e-05
7.03265e-05
5.91533e-05
7.03397e-05
6.92419e-05
6.92337e-05
5.93561e-05
7.03326e-05
5.91549e-05
7.03459e-05
1.36422e-05
1.36427e-05
1.36427e-05
1.36361e-05
1.3636e-05
1.36366e-05
1.36366e-05
3.99262e-05
5.18727e-05
1.51608e-05
1.90696e-05
3.94711e-05
5.21512e-05
1.52318e-05
6.92417e-05
6.92339e-05
3.99261e-05
1.51614e-05
5.18696e-05
1.9071e-05
3.9471e-05
1.52325e-05
5.21538e-05
6.24312e-05
6.24429e-05
2.43676e-05
6.25746e-05
6.25864e-05
5.9796e-05
7.03561e-05
5.96159e-05
7.03694e-05
6.92095e-05
6.92034e-05
5.97979e-05
7.03622e-05
5.96176e-05
7.03756e-05
1.36389e-05
1.36395e-05
1.36396e-05
1.36665e-05
1.36665e-05
1.36671e-05
1.36671e-05
4.10683e-05
5.25475e-05
1.54692e-05
1.97813e-05
4.06383e-05
5.28121e-05
1.55565e-05
6.92092e-05
6.92035e-05
4.10683e-05
1.54699e-05
5.25454e-05
1.97829e-05
4.06382e-05
1.55575e-05
5.28132e-05
6.27657e-05
6.27773e-05
2.5432e-05
6.28996e-05
6.29114e-05
6.01957e-05
7.03862e-05
6.0032e-05
7.03999e-05
6.91829e-05
6.9179e-05
6.01975e-05
7.03922e-05
6.00337e-05
7.0406e-05
1.36813e-05
1.36821e-05
1.36821e-05
1.37435e-05
1.37433e-05
1.37442e-05
1.37442e-05
4.2125e-05
5.31777e-05
1.58427e-05
2.05539e-05
4.17193e-05
5.34275e-05
1.59462e-05
6.91827e-05
6.91791e-05
4.21251e-05
1.58436e-05
5.31771e-05
2.05556e-05
4.17192e-05
1.59472e-05
5.34275e-05
6.30791e-05
6.30907e-05
2.65087e-05
6.3205e-05
6.32167e-05
6.05618e-05
7.04175e-05
6.04111e-05
7.04319e-05
6.91624e-05
6.91606e-05
6.05635e-05
7.04235e-05
6.04127e-05
7.0438e-05
1.37697e-05
1.37706e-05
1.37706e-05
1.38668e-05
1.38666e-05
1.38675e-05
1.38675e-05
4.31052e-05
5.37686e-05
1.62794e-05
2.13802e-05
4.27223e-05
5.40037e-05
1.63981e-05
6.91621e-05
6.91607e-05
4.31053e-05
1.62802e-05
5.37682e-05
2.13819e-05
4.27222e-05
1.63993e-05
5.40035e-05
6.33746e-05
6.33861e-05
2.75878e-05
6.3494e-05
6.35057e-05
6.09007e-05
7.04507e-05
6.07607e-05
7.0466e-05
6.91477e-05
6.91481e-05
6.09027e-05
7.04568e-05
6.07623e-05
7.04723e-05
1.39045e-05
1.39054e-05
1.39056e-05
1.40358e-05
1.40357e-05
1.40368e-05
1.40368e-05
4.40186e-05
5.43247e-05
1.6777e-05
2.22551e-05
4.3656e-05
5.45462e-05
1.69105e-05
6.91475e-05
6.91482e-05
4.40187e-05
1.6778e-05