/*--------------------------------*- C++ -*----------------------------------*\
| =========                 |                                                 |
| \\      /  F ield         | OpenFOAM: The Open Source CFD Toolbox           |
|  \\    /   O peration     | Version:  v2012                                 |
|   \\  /    A nd           | Website:  www.openfoam.com                      |
|    \\/     M anipulation  |                                                 |
\*---------------------------------------------------------------------------*/
FoamFile
{
    version     2.0;
    format      ascii;
    class       volScalarField;
    location    "750";
    object      nut;
}
// * * * * * * * * * * * * * * * * * * * * * * * * * * * * * * * * * * * * * //

dimensions      [0 2 -1 0 0 0 0];


internalField   nonuniform List<scalar> 
85864
(
0.000233973
0.000233116
0.000233116
0.000233423
0.000232532
0.000227802
0.000227801
0.000223866
0.000230516
0.00022032
0.000220318
0.000209109
0.000227799
0.000211665
0.000211661
0.000193785
0.000224433
0.00020265
0.000202644
0.000179709
0.000220552
0.000193772
0.000193765
0.000167339
0.000216304
0.000185275
0.000185267
0.000156587
0.00021182
0.000177234
0.000177226
0.000147206
0.000207207
0.000169688
0.00016968
0.00013895
0.000202545
0.000162611
0.000162603
0.000131614
0.000197889
0.000155949
0.000155941
0.000124953
0.000193275
0.000149647
0.000149638
0.000118816
0.000188683
0.000143665
0.000143657
0.000113168
0.000184151
0.000137952
0.000137943
0.000107932
0.000179706
0.000132462
0.000132454
0.000103056
0.000175338
0.00012719
0.000127181
9.84357e-05
0.000171035
0.000122151
0.000122141
9.42518e-05
0.000166785
0.000117371
0.00011736
9.06595e-05
0.000162587
0.000112887
0.000112876
8.77313e-05
0.000158414
0.000108755
0.000108745
8.53836e-05
0.000154263
0.000105025
0.000105015
8.36674e-05
0.000150142
0.000101711
0.000101702
8.25786e-05
0.000146063
9.88949e-05
9.88871e-05
8.20984e-05
0.000142046
9.65845e-05
9.65777e-05
8.21489e-05
0.000138117
9.47924e-05
9.4787e-05
8.26868e-05
0.000134294
9.352e-05
9.35145e-05
8.36654e-05
0.000130631
9.27503e-05
9.27465e-05
8.50195e-05
0.000127155
9.24666e-05
9.24628e-05
8.66953e-05
0.000123901
9.26394e-05
9.26365e-05
8.86376e-05
0.000120901
9.32365e-05
9.32344e-05
9.07914e-05
0.000118186
9.42272e-05
9.42261e-05
9.31114e-05
0.00011579
9.5569e-05
9.55676e-05
9.55601e-05
0.000113733
9.72332e-05
9.72317e-05
9.81049e-05
0.000112018
9.91702e-05
9.91706e-05
0.000100715
0.000110682
0.000101366
0.000101366
0.000103387
0.000109693
0.000103758
0.000103759
0.000106075
0.00010909
0.000106351
0.000106352
0.000108801
0.000108848
0.000109092
0.000109092
0.00011153
0.000108961
0.000111951
0.000111952
0.000114251
0.000109419
0.000114916
0.000114917
0.000116968
0.000110219
0.000117962
0.000117966
0.000119666
0.000111334
0.000121071
0.000121074
0.000122341
0.000112755
0.00012423
0.000124234
0.000124995
0.000114462
0.000127413
0.000127417
0.000127613
0.000116431
0.000130611
0.00013061
0.000130209
0.000118671
0.000133816
0.000133818
0.000132769
0.000121096
0.000136985
0.000136985
0.000135268
0.000234266
0.000234448
0.000234449
0.000234267
0.000234448
0.000234449
0.000234274
0.000234274
0.000234274
0.000234274
0.000234448
0.000234448
0.000234266
0.000234448
0.000234448
0.000234266
0.000233423
0.000226204
0.000233116
0.000233114
0.000229361
0.000229357
0.000233423
0.000226205
0.000233114
0.000233114
0.000229359
0.000229356
0.000233116
0.000229364
0.000229361
0.000233423
0.000226202
0.000233114
0.000229363
0.000229359
0.000226202
0.000223867
0.00021223
0.000227799
0.000227794
0.000222332
0.000222326
0.000223868
0.000212234
0.000227797
0.000227792
0.000222332
0.000222323
0.000227798
0.000222339
0.000222331
0.000223866
0.000212227
0.000227797
0.000222336
0.000222331
0.000212228
0.000209111
0.000197061
0.000220313
0.000220307
0.000213879
0.000213874
0.000209112
0.000197066
0.000220314
0.000220304
0.000213883
0.000213869
0.000220311
0.00021389
0.000213877
0.000209107
0.000197057
0.000220313
0.000213886
0.000213882
0.000197058
0.000193788
0.000182876
0.000211654
0.000211648
0.00020489
0.000204884
0.000193792
0.000182882
0.000211658
0.000211643
0.000204897
0.000204879
0.000211651
0.000204905
0.000204887
0.000193784
0.000182872
0.000211657
0.000204899
0.000204896
0.000182873
0.000179713
0.000170268
0.000202634
0.000202628
0.000195943
0.000195937
0.000179717
0.000170274
0.000202643
0.000202622
0.000195954
0.000195931
0.000202631
0.000195962
0.00019594
0.000179708
0.000170263
0.000202641
0.000195955
0.000195953
0.000170264
0.000167344
0.000159242
0.000193753
0.000193747
0.000187336
0.000187331
0.000167349
0.000159249
0.000193765
0.00019374
0.000187351
0.000187324
0.00019375
0.000187359
0.000187333
0.000167339
0.000159238
0.000193764
0.000187351
0.00018735
0.000159238
0.000156591
0.000149613
0.000185253
0.000185247
0.000179173
0.000179168
0.000156597
0.00014962
0.000185268
0.00018524
0.000179191
0.00017916
0.000185249
0.000179198
0.00017917
0.000156587
0.000149608
0.000185267
0.000179189
0.00017919
0.000149608
0.000147211
0.000141107
0.000177208
0.000177203
0.000171501
0.000171496
0.000147217
0.000141114
0.000177227
0.000177195
0.000171521
0.000171488
0.000177205
0.000171529
0.000171498
0.000147206
0.000141101
0.000177225
0.00017152
0.000171521
0.000141101
0.000138956
0.000133547
0.00016966
0.000169655
0.000164309
0.000164304
0.000138961
0.000133554
0.000169682
0.000169647
0.000164332
0.000164296
0.000169658
0.000164339
0.000164307
0.00013895
0.000133541
0.00016968
0.000164331
0.000164332
0.000133541
0.000131621
0.000126686
0.000162581
0.000162576
0.000157546
0.000157541
0.000131627
0.000126693
0.000162605
0.000162567
0.000157572
0.000157533
0.000162578
0.000157579
0.000157545
0.000131615
0.00012668
0.000162604
0.00015757
0.000157571
0.000126679
0.00012496
0.000120362
0.000155916
0.000155912
0.000151157
0.000151152
0.000124966
0.000120369
0.000155942
0.000155903
0.000151184
0.000151144
0.000155915
0.000151192
0.000151156
0.000124954
0.000120355
0.000155942
0.000151183
0.000151184
0.000120355
0.000118823
0.000114426
0.000149612
0.000149607
0.000145096
0.000145091
0.000118827
0.000114433
0.000149639
0.000149599
0.000145124
0.000145083
0.000149611
0.000145132
0.000145095
0.000118816
0.00011442
0.000149639
0.000145123
0.000145124
0.000114418
0.000113175
0.000108835
0.00014363
0.000143624
0.000139318
0.000139313
0.00011318
0.000108843
0.000143658
0.000143616
0.000139347
0.000139305
0.000143629
0.000139356
0.000139319
0.000113168
0.000108829
0.000143658
0.000139347
0.000139348
0.000108828
0.000107939
0.000103702
0.000137916
0.000137909
0.000133776
0.00013377
0.000107945
0.000103708
0.000137944
0.000137901
0.000133805
0.000133762
0.000137915
0.000133814
0.000133776
0.000107933
0.000103696
0.000137944
0.000133805
0.000133806
0.000103695
0.000103063
9.91274e-05
0.000132425
0.000132418
0.000128446
0.000128438
0.000103069
9.91331e-05
0.000132454
0.000132411
0.000128473
0.000128431
0.000132425
0.000128485
0.000128447
0.000103057
9.91212e-05
0.000132454
0.000128475
0.000128476
9.91202e-05
9.84422e-05
9.49891e-05
0.000127151
0.000127144
0.000123345
0.000123337
9.84476e-05
9.49944e-05
0.000127179
0.000127136
0.000123371
0.000123329
0.000127152
0.000123385
0.000123347
9.84366e-05
9.4983e-05
0.000127181
0.000123374
0.000123375
9.4983e-05
9.42573e-05
9.14348e-05
0.000122111
0.000122104
0.000118477
0.00011847
9.42626e-05
9.14405e-05
0.000122137
0.000122096
0.000118502
0.000118461
0.000122113
0.000118517
0.00011848
9.42521e-05
9.14295e-05
0.000122141
0.000118506
0.000118507
9.14291e-05
9.06644e-05
8.83766e-05
0.000117331
0.000117324
0.000113921
0.000113916
9.067e-05
8.83824e-05
0.000117356
0.000117314
0.000113945
0.000113905
0.000117334
0.000113962
0.000113926
9.06601e-05
8.83723e-05
0.000117361
0.000113951
0.000113951
8.83721e-05
8.77351e-05
8.59082e-05
0.000112847
0.000112841
0.00010969
0.000109685
8.77415e-05
8.59129e-05
0.00011287
0.00011283
0.000109713
0.000109675
0.000112851
0.000109731
0.000109696
8.7732e-05
8.59037e-05
0.000112877
0.00010972
0.00010972
8.59036e-05
8.53879e-05
8.40678e-05
0.000108716
0.000108709
0.000105848
0.00010584
8.53928e-05
8.40729e-05
0.000108737
0.000108699
0.000105869
0.000105831
0.000108721
0.000105886
0.000105852
8.53842e-05
8.40647e-05
0.000108745
0.000105876
0.000105875
8.40653e-05
8.36701e-05
8.28574e-05
0.000104988
0.000104979
0.000102454
0.000102444
8.36754e-05
8.28621e-05
0.000105008
0.00010497
0.000102472
0.000102436
0.000104992
0.00010249
0.000102458
8.3668e-05
8.28541e-05
0.000105015
0.00010248
0.000102479
8.28544e-05
8.25809e-05
8.22609e-05
0.000101676
0.000101665
9.95181e-05
9.95059e-05
8.25855e-05
8.2264e-05
0.000101695
0.000101658
9.95348e-05
9.94994e-05
0.00010168
9.95507e-05
9.9521e-05
8.25786e-05
8.22571e-05
0.000101701
9.95424e-05
9.95418e-05
8.22584e-05
8.21005e-05
8.22051e-05
9.88623e-05
9.88506e-05
9.70824e-05
9.70685e-05
8.2104e-05
8.22079e-05
9.88792e-05
9.88439e-05
9.70976e-05
9.7063e-05
9.8865e-05
9.71119e-05
9.70846e-05
8.20981e-05
8.22021e-05
9.88859e-05
9.71045e-05
9.71045e-05
8.22026e-05
8.21511e-05
8.26451e-05
9.65553e-05
9.65418e-05
9.51624e-05
9.51497e-05
8.21528e-05
8.26493e-05
9.65709e-05
9.65362e-05
9.51761e-05
9.51445e-05
9.65577e-05
9.51911e-05
9.5165e-05
8.21479e-05
8.26446e-05
9.65769e-05
9.5184e-05
9.51825e-05
8.26444e-05
8.26875e-05
8.35359e-05
9.47649e-05
9.47517e-05
9.3765e-05
9.37508e-05
8.26917e-05
8.35367e-05
9.47792e-05
9.47473e-05
9.37777e-05
9.37473e-05
9.47673e-05
9.37902e-05
9.37669e-05
8.26875e-05
8.3534e-05
9.47847e-05
9.37847e-05
9.37827e-05
8.35342e-05
8.36669e-05
8.48133e-05
9.34953e-05
9.34816e-05
9.2873e-05
9.28591e-05
8.36678e-05
8.48147e-05
9.35079e-05
9.34771e-05
9.2884e-05
9.28558e-05
9.34972e-05
9.28962e-05
9.28758e-05
8.36651e-05
8.48122e-05
9.35124e-05
9.28911e-05
9.28898e-05
8.48135e-05
8.50192e-05
8.64241e-05
9.27271e-05
9.27141e-05
9.24718e-05
9.24589e-05
8.50208e-05
8.64257e-05
9.27388e-05
9.27114e-05
9.24818e-05
9.24563e-05
9.27304e-05
9.24938e-05
9.24739e-05
8.50188e-05
8.64244e-05
9.27441e-05
9.24893e-05
9.24862e-05
8.64245e-05
8.66957e-05
8.83111e-05
9.24461e-05
9.24328e-05
9.25347e-05
9.25209e-05
8.66969e-05
8.83109e-05
9.24561e-05
9.24299e-05
9.25432e-05
9.25195e-05
9.24479e-05
9.25537e-05
9.25381e-05
8.66955e-05
8.83105e-05
9.246e-05
9.25505e-05
9.25491e-05
8.8313e-05
8.86355e-05
9.04222e-05
9.26202e-05
9.26077e-05
9.30331e-05
9.30195e-05
8.86355e-05
9.04233e-05
9.26292e-05
9.26057e-05
9.30405e-05
9.30187e-05
9.26233e-05
9.30503e-05
9.30362e-05
8.86355e-05
9.0423e-05
9.26338e-05
9.30474e-05
9.30454e-05
9.04234e-05
9.07899e-05
9.27065e-05
9.32199e-05
9.3207e-05
9.39284e-05
9.39161e-05
9.07903e-05
9.2707e-05
9.32274e-05
9.32056e-05
9.39344e-05
9.3915e-05
9.32234e-05
9.39448e-05
9.39318e-05
9.07905e-05
9.27066e-05
9.32325e-05
9.39421e-05
9.39398e-05
9.27085e-05
9.31094e-05
9.51293e-05
9.42117e-05
9.41994e-05
9.51884e-05
9.5175e-05
9.31106e-05
9.51285e-05
9.42184e-05
9.41992e-05
9.51937e-05
9.51767e-05
9.42149e-05
9.5202e-05
9.51926e-05
9.31105e-05
9.51296e-05
9.42229e-05
9.52019e-05
9.51997e-05
9.51314e-05
9.55579e-05
9.76537e-05
9.55551e-05
9.55426e-05
9.67778e-05
9.67649e-05
9.55572e-05
9.76533e-05
9.55601e-05
9.55425e-05
9.67814e-05
9.67639e-05
9.55591e-05
9.67902e-05
9.67813e-05
9.55582e-05
9.76531e-05
9.55654e-05
9.67875e-05
9.67867e-05
9.76558e-05
9.81031e-05
0.00010025
9.72205e-05
9.72078e-05
9.86477e-05
9.8635e-05
9.81026e-05
0.000100251
9.72246e-05
9.72079e-05
9.86505e-05
9.86375e-05
9.72261e-05
9.86597e-05
9.8653e-05
9.81024e-05
0.000100253
9.72313e-05
9.866e-05
9.86575e-05
0.000100254
0.000100712
0.000102911
9.91579e-05
9.91458e-05
0.000100788
0.000100775
0.000100712
0.000102911
9.91613e-05
9.91482e-05
0.00010079
0.000100776
9.91622e-05
0.000100799
0.000100793
0.000100714
0.00010291
9.91667e-05
0.000100798
0.000100796
0.000102914
0.000103384
0.000105593
0.000101357
0.000101343
0.00010313
0.000103117
0.000103383
0.000105592
0.00010136
0.000101345
0.000103132
0.00010312
0.000101362
0.00010314
0.000103137
0.000103383
0.000105593
0.000101366
0.000103141
0.00010314
0.000105597
0.000106072
0.000108311
0.000103747
0.000103735
0.000105678
0.000105665
0.000106072
0.000108311
0.000103749
0.000103738
0.000105679
0.000105668
0.000103754
0.000105687
0.000105683
0.000106072
0.000108312
0.000103756
0.000105688
0.000105685
0.000108313
0.0001088
0.000111038
0.000106343
0.000106329
0.000108385
0.000108373
0.0001088
0.000111039
0.000106344
0.000106332
0.000108386
0.000108375
0.000106349
0.000108395
0.000108393
0.000108799
0.000111038
0.000106351
0.000108395
0.000108395
0.000111043
0.000111526
0.000113761
0.000109081
0.00010907
0.000111217
0.000111203
0.000111527
0.000113758
0.000109083
0.000109073
0.000111218
0.000111208
0.000109089
0.000111225
0.000111223
0.000111526
0.00011376
0.00010909
0.000111227
0.000111225
0.000113762
0.000114249
0.000116477
0.000111943
0.000111929
0.000114154
0.000114144
0.000114246
0.000116478
0.000111944
0.000111933
0.000114156
0.000114146
0.00011195
0.000114165
0.000114166
0.000114247
0.000116477
0.000111951
0.000114165
0.000114167
0.000116483
0.000116963
0.000119183
0.000114905
0.000114895
0.000117185
0.000117176
0.000116964
0.000119184
0.000114907
0.000114897
0.000117187
0.000117179
0.000114916
0.000117197
0.000117194
0.000116963
0.000119184
0.000114918
0.000117198
0.000117196
0.000119186
0.000119664
0.000121863
0.000117953
0.000117942
0.000120278
0.000120267
0.000119665
0.000121861
0.000117955
0.000117947
0.000120281
0.00012027
0.000117961
0.000120288
0.000120289
0.000119664
0.00012186
0.000117963
0.00012029
0.000120291
0.000121867
0.000122337
0.000124523
0.000121062
0.000121051
0.000123427
0.000123418
0.000122336
0.000124523
0.000121066
0.000121055
0.000123429
0.000123421
0.000121072
0.000123438
0.00012344
0.000122335
0.000124523
0.000121074
0.000123441
0.000123441
0.000124528
0.000124991
0.000127152
0.000124221
0.00012421
0.000126605
0.000126597
0.000124991
0.000127152
0.000124224
0.000124215
0.000126608
0.000126599
0.000124232
0.000126617
0.000126615
0.00012499
0.000127151
0.000124234
0.000126619
0.000126618
0.000127156
0.00012761
0.000129753
0.000127402
0.000127395
0.000129796
0.00012979
0.000127611
0.000129753
0.000127406
0.000127397
0.000129798
0.000129787
0.000127411
0.000129809
0.000129808
0.00012761
0.000129749
0.000127414
0.000129808
0.00012981
0.000129757
0.000130204
0.000132327
0.000130602
0.000130593
0.000133008
0.000132999
0.000130204
0.000132325
0.000130604
0.00013059
0.000133012
0.000133001
0.000130612
0.000133018
0.000133019
0.0001302
0.000132325
0.000130614
0.00013302
0.000133021
0.000132331
0.000132765
0.000134836
0.000133805
0.000133798
0.000136177
0.000136174
0.000132765
0.000134839
0.000133808
0.000133798
0.000136182
0.000136176
0.000133815
0.000136193
0.000136189
0.000132764
0.000134838
0.000133817
0.000136197
0.000136194
0.000134841
0.000135262
0.000137317
0.00013697
0.000136967
0.000139339
0.00013933
0.000135266
0.000137315
0.000136973
0.000136964
0.000139344
0.000139329
0.000136981
0.000139348
0.000139348
0.000135263
0.000137312
0.000136985
0.000139348
0.000139351
0.00013732
0.00023473
0.000234746
0.000234729
0.000234729
0.000235117
0.000234798
0.000234701
0.000234727
0.000235118
0.000234798
0.000234727
0.000234701
0.000234867
0.000233566
0.000233566
0.000104651
3.87411e-05
0.000129118
3.98249e-05
2.16834e-05
2.28313e-05
0.000104643
3.87371e-05
0.000129114
3.98214e-05
0.000233973
0.000233973
0.000233973
0.000232935
0.000232935
0.000232935
0.000232935
0.000206196
9.36752e-05
0.000233969
0.000231994
0.000222614
8.72226e-05
0.000233611
2.16823e-05
2.28307e-05
0.00020619
0.000233969
9.36747e-05
0.000231994
0.000222622
0.000233611
8.72283e-05
4.78013e-05
4.77894e-05
0.000231345
4.40185e-05
4.40089e-05
7.25677e-05
4.2434e-05
8.14027e-05
4.37634e-05
2.47749e-05
2.54634e-05
7.25581e-05
4.24305e-05
8.13974e-05
4.37596e-05
0.000232532
0.000232532
0.000232532
0.000231084
0.000231084
0.000231083
0.000231084
0.000167491
7.94389e-05
0.000232081
0.000226097
0.000180211
7.45079e-05
0.000231376
2.47731e-05
2.54619e-05
0.000167487
0.000232081
7.94328e-05
0.000226096
0.000180204
0.000231375
7.4511e-05
3.91643e-05
3.91541e-05
0.000219593
3.65758e-05
3.65651e-05
5.62773e-05
4.55466e-05
6.11325e-05
4.64126e-05
2.60134e-05
2.61173e-05
5.62814e-05
4.55439e-05
6.11278e-05
4.64097e-05
0.000230516
0.000230515
0.000230515
0.000228543
0.000228543
0.000228541
0.000228542
0.000138601
6.74261e-05
0.000228643
0.000218231
0.000148065
6.35185e-05
0.000227537
2.60111e-05
2.61152e-05
0.000138596
0.000228643
6.742e-05
0.000218228
0.000148057
0.000227534
6.35147e-05
3.32184e-05
3.32098e-05
0.000204613
3.19922e-05
3.19832e-05
4.69657e-05
4.74992e-05
4.99089e-05
4.80043e-05
2.60471e-05
2.59392e-05
4.69648e-05
4.74958e-05
4.99095e-05
4.80015e-05
0.000227799
0.000227797
0.000227798
0.000225328
0.000225329
0.000225326
0.000225327
0.000117548
5.82051e-05
0.000223721
0.00020942
0.000124602
5.5486e-05
0.00022231
2.60446e-05
2.59372e-05
0.000117545
0.000223719
5.82035e-05
0.000209415
0.000124595
0.000222306
5.54828e-05
3.0618e-05
3.06101e-05
0.000189779
3.03048e-05
3.0297e-05
4.14286e-05
4.85825e-05
4.32437e-05
4.88398e-05
2.56753e-05
2.55199e-05
4.14276e-05
4.8579e-05
4.32442e-05
4.88368e-05
0.000224433
0.000224431
0.000224432
0.000221562
0.000221563
0.000221559
0.000221561
0.000102113
5.18773e-05
0.000217771
0.000200404
0.00010738
5.00766e-05
0.000216181
2.56727e-05
2.5518e-05
0.000102111
0.000217769
5.18758e-05
0.000200398
0.000107374
0.000216177
5.00741e-05
3.01827e-05
3.01757e-05
0.000176369
3.03984e-05
3.03915e-05
3.8156e-05
4.90932e-05
3.92422e-05
4.91984e-05
2.52376e-05
2.5094e-05
3.8155e-05
4.909e-05
3.92423e-05
4.91954e-05
0.000220552
0.000220549
0.00022055
0.000217392
0.000217393
0.000217389
0.000217391
9.04957e-05
4.7738e-05
0.000211269
0.000191607
9.44603e-05
4.66132e-05
0.000209603
2.5235e-05
2.50922e-05
9.04948e-05
0.000211267
4.77367e-05
0.0001916
9.44543e-05
0.000209598
4.6611e-05
3.09699e-05
3.0964e-05
0.000164561
3.15677e-05
3.15608e-05
3.63746e-05
4.92747e-05
3.69398e-05
4.92961e-05
2.48485e-05
2.47327e-05
3.63734e-05
4.92716e-05
3.69396e-05
4.92929e-05
0.000216305
0.0002163
0.000216302
0.000212957
0.000212957
0.000212952
0.000212955
8.15891e-05
4.51673e-05
0.000204579
0.000183219
8.4672e-05
4.45534e-05
0.000202907
2.48461e-05
2.47309e-05
8.15888e-05
0.000204576
4.51665e-05
0.000183211
8.46662e-05
0.000202902
4.45507e-05
3.25194e-05
3.25139e-05
0.000154267
3.33442e-05
3.3339e-05
3.56769e-05
4.92919e-05
3.58213e-05
4.92821e-05
2.45348e-05
2.44469e-05
3.56745e-05
4.92888e-05
3.58208e-05
4.9279e-05
0.000211821
0.000211816
0.000211818
0.000208367
0.000208368
0.000208362
0.000208365
7.4644e-05
4.37715e-05
0.000197938
0.000175301
7.71192e-05
4.35233e-05
0.000196304
2.45325e-05
2.4445e-05
7.46438e-05
0.000197935
4.37697e-05
0.000175292
7.71136e-05
0.000196298
4.3521e-05
3.45497e-05
3.45455e-05
0.00014522
3.55015e-05
3.54971e-05
3.57597e-05
4.92555e-05
3.56389e-05
4.9244e-05
2.42942e-05
2.42289e-05
3.57576e-05
4.92525e-05
3.56375e-05
4.9241e-05
0.000207208
0.000207202
0.000207204
0.000203711
0.000203712
0.000203705
0.000203708
6.91753e-05
4.32434e-05
0.000191483
0.000167877
7.12031e-05
4.32353e-05
0.000189901
2.42922e-05
2.42269e-05
6.91745e-05
0.00019148
4.32423e-05
0.000167868
7.11981e-05
0.000189895
4.32335e-05
3.68692e-05
3.68653e-05
0.000137218
3.78934e-05
3.78908e-05
3.65539e-05
4.92263e-05
3.62067e-05
4.92222e-05
2.41154e-05
2.40679e-05
3.656e-05
4.92233e-05
3.62055e-05
4.92194e-05
0.000202546
0.000202539
0.000202542
0.000199049
0.00019905
0.000199043
0.000199046
6.48675e-05
4.33832e-05
0.00018524
0.000160909
6.65086e-05
4.35663e-05
0.000183717
2.41134e-05
2.4066e-05
6.48657e-05
0.000185237
4.33826e-05
0.0001609
6.65053e-05
0.000183711
4.3565e-05
3.9342e-05
3.93395e-05
0.000130035
4.04031e-05
4.04015e-05
3.8053e-05
4.92218e-05
3.7381e-05
4.9227e-05
2.39858e-05
2.39522e-05
3.8064e-05
4.92187e-05
3.73642e-05
4.9224e-05
0.000197891
0.000197883
0.000197887
0.000194421
0.000194422
0.000194415
0.000194418
6.15078e-05
4.40643e-05
0.000179254
0.000154342
6.27536e-05
4.4406e-05
0.000177803
2.39839e-05
2.39502e-05
6.15064e-05
0.000179252
4.4064e-05
0.000154333
6.27516e-05
0.000177796
4.44051e-05
4.18696e-05
4.18676e-05
0.000123458
4.29285e-05
4.29285e-05
4.01129e-05
4.92395e-05
3.91261e-05
4.92526e-05
2.3894e-05
2.38706e-05
4.01156e-05
4.92366e-05
3.91175e-05
4.92498e-05
0.000193277
0.000193269
0.000193273
0.00018983
0.000189831
0.000189823
0.000189827
5.90061e-05
4.51941e-05
0.000173549
0.000148122
5.98516e-05
4.56673e-05
0.000172164
2.3892e-05
2.38686e-05
5.90045e-05
0.000173547
4.51941e-05
0.000148113
5.98496e-05
0.000172157
4.56667e-05
4.43655e-05
4.43649e-05
0.000117344
4.53921e-05
4.53929e-05
4.26502e-05
4.92732e-05
4.14229e-05
4.92898e-05
2.38296e-05
2.38135e-05
4.26403e-05
4.92705e-05
4.14265e-05
4.92871e-05
0.000188684
0.000188676
0.00018868
0.000185274
0.000185275
0.000185267
0.000185271
5.72056e-05
4.66962e-05
0.000168096
0.000142213
5.77209e-05
4.72768e-05
0.000166769
2.38277e-05
2.38115e-05
5.72038e-05
0.000168094
4.66964e-05
0.000142204
5.77189e-05
0.000166763
4.72764e-05
4.67612e-05
4.67613e-05
0.000111572
4.77379e-05
4.77396e-05
4.55839e-05
4.93127e-05
4.42053e-05
4.93296e-05
2.37844e-05
2.3773e-05
4.5574e-05
4.93101e-05
4.42124e-05
4.93269e-05
0.000184152
0.000184143
0.000184148
0.000180808
0.00018081
0.000180801
0.000180805
5.6035e-05
4.84965e-05
0.000162861
0.000136559
5.63289e-05
4.91593e-05
0.000161583
2.37824e-05
2.37711e-05
5.60332e-05
0.000162859
4.84967e-05
0.00013655
5.63271e-05
0.000161576
4.9159e-05
4.90101e-05
4.90108e-05
0.000106194
4.99223e-05
4.99245e-05
4.88293e-05
4.93515e-05
4.73487e-05
4.93672e-05
2.37516e-05
2.37432e-05
4.88194e-05
4.93489e-05
4.73566e-05
4.93645e-05
0.000179707
0.000179699
0.000179703
0.000176422
0.000176423
0.000176414
0.000176419
5.55214e-05
5.05193e-05
0.00015781
0.000131122
5.56003e-05
5.12397e-05
0.000156574
2.37496e-05
2.37413e-05
5.55198e-05
0.000157809
5.05197e-05
0.000131113
5.55987e-05
0.000156568
5.12394e-05
5.10819e-05
5.10831e-05
0.000101351
5.19276e-05
5.193e-05
5.22571e-05
4.93871e-05
5.07259e-05
4.94013e-05
2.37262e-05
2.37196e-05
5.22474e-05
4.93846e-05
5.07336e-05
4.93986e-05
0.00017534
0.000175331
0.000175336
0.000172103
0.000172105
0.000172096
0.000172101
5.56467e-05
5.2692e-05
0.000152914
0.000125905
5.55167e-05
5.3447e-05
0.000151715
2.37244e-05
2.37178e-05
5.56452e-05
0.000152913
5.26924e-05
0.000125895
5.55152e-05
0.000151709
5.34466e-05
5.29702e-05
5.29719e-05
9.69911e-05
5.37493e-05
5.37514e-05
5.57254e-05
4.94194e-05
5.41982e-05
4.94324e-05
2.37055e-05
2.37e-05
5.57165e-05
4.94168e-05
5.42061e-05
4.94298e-05
0.000171037
0.000171028
0.000171033
0.000167839
0.000167841
0.000167831
0.000167837
5.63847e-05
5.49474e-05
0.000148169
0.000120925
5.6056e-05
5.57164e-05
0.000147004
2.37037e-05
2.36982e-05
5.63833e-05
0.000148168
5.49478e-05
0.000120914
5.60546e-05
0.000146999
5.5716e-05
5.46798e-05
5.46818e-05
9.3131e-05
5.53927e-05
5.53944e-05
5.9102e-05
4.94492e-05
5.76286e-05
4.94613e-05
2.36875e-05
2.36828e-05
5.90939e-05
4.94466e-05
5.76364e-05
4.94587e-05
0.000166787
0.000166777
0.000166783
0.000163627
0.000163629
0.000163619
0.000163625
5.76933e-05
5.7227e-05
0.00014354
0.000116207
5.71822e-05
5.79925e-05
0.000142401
2.36857e-05
2.36807e-05
5.7692e-05
0.00014354
5.72272e-05
0.000116196
5.7181e-05
0.000142397
5.7992e-05
5.6224e-05
5.62269e-05
8.98255e-05
5.68721e-05
5.68731e-05
6.22806e-05
4.94775e-05
6.0897e-05
4.9489e-05
2.36712e-05
2.36664e-05
6.22719e-05
4.94746e-05
6.09057e-05
4.94861e-05
0.000162589
0.000162579
0.000162586
0.00015945
0.000159453
0.000159442
0.000159449
5.95071e-05
5.94825e-05
0.000139013
0.000111801
5.8838e-05
6.02311e-05
0.000137902
2.36692e-05
2.36647e-05
5.95059e-05
0.000139013
5.94825e-05
0.00011179
5.88369e-05
0.000137898
6.02305e-05
5.76204e-05
5.76235e-05
8.70599e-05
5.82072e-05
5.82081e-05
6.51842e-05
4.95039e-05
6.39201e-05
4.95146e-05
2.36558e-05
2.36518e-05
6.51766e-05
4.95013e-05
6.3928e-05
4.95122e-05
0.000158418
0.000158407
0.000158414
0.000155293
0.000155297
0.000155286
0.000155293
6.17431e-05
6.16774e-05
0.000134594
0.000107757
6.09451e-05
6.24002e-05
0.000133515
2.3654e-05
2.36498e-05
6.17418e-05
0.000134594
6.1677e-05
0.000107747
6.0944e-05
0.000133512
6.24045e-05
5.88834e-05
5.88863e-05
8.49054e-05
5.94167e-05
5.94176e-05
6.77782e-05
4.95288e-05
6.66478e-05
4.95387e-05
2.36419e-05
2.36381e-05
6.77713e-05
4.95266e-05
6.66554e-05
4.95368e-05
0.000154267
0.000154255
0.000154263
0.000151162
0.000151166
0.000151155
0.000151163
6.43073e-05
6.37877e-05
0.000130299
0.000104155
6.34124e-05
6.4482e-05
0.000129258
2.36398e-05
2.36359e-05
6.4306e-05
0.000130298
6.3772e-05
0.000104146
6.34112e-05
0.000129257
6.44987e-05
6.00288e-05
6.00315e-05
8.33812e-05
6.05156e-05
6.05163e-05
7.00621e-05
4.95517e-05
6.90697e-05
4.9561e-05
2.36288e-05
2.36252e-05
7.00553e-05
4.95498e-05
6.90769e-05
4.95591e-05
0.000150146
0.000150134
0.000150142
0.000147068
0.000147072
0.000147061
0.000147069
6.71026e-05
6.57873e-05
0.000126169
0.000100959
6.61426e-05
6.64728e-05
0.000125152
2.36266e-05
2.3623e-05
6.71013e-05
0.000126173
6.57716e-05
0.00010095
6.61415e-05
0.000125146
6.64878e-05
6.10722e-05
6.10747e-05
8.24822e-05
6.15181e-05
6.1519e-05
7.20605e-05
4.95726e-05
7.11932e-05
4.95808e-05
2.36165e-05
2.36132e-05
7.20538e-05
4.95707e-05
7.12004e-05
4.9579e-05
0.000146066
0.000146055
0.000146063
0.000143029
0.000143032
0.000143021
0.00014303
7.00457e-05
6.76837e-05
0.000122225
9.82673e-05
6.9039e-05
6.83557e-05
0.000121259
2.36143e-05
2.3611e-05
7.00419e-05
0.000122229
6.76687e-05
9.82592e-05
6.90398e-05
0.000121254
6.83691e-05
6.20266e-05
6.20284e-05
8.21659e-05
6.24338e-05
6.24356e-05
7.38084e-05
4.9591e-05
7.30481e-05
4.95982e-05
2.36052e-05
2.36022e-05
7.38018e-05
4.95892e-05
7.30554e-05
4.95965e-05
0.000142049
0.000142037
0.000142046
0.000139069
0.000139072
0.000139061
0.00013907
7.30618e-05
6.94752e-05
0.000118526
9.6087e-05
7.19958e-05
7.01324e-05
0.000117624
2.36029e-05
2.36e-05
7.30579e-05
0.000118531
6.94607e-05
9.60799e-05
7.19964e-05
0.000117619
7.01444e-05
6.29032e-05
6.29047e-05
8.23658e-05
6.32758e-05
6.32773e-05
7.53457e-05
4.9607e-05
7.46739e-05
4.96134e-05
2.35949e-05
2.35922e-05
7.53392e-05
4.96053e-05
7.46812e-05
4.96117e-05
0.000138119
0.000138109
0.000138117
0.000135233
0.000135235
0.000135225
0.000135234
7.60659e-05
7.11654e-05
0.000115125
9.44258e-05
7.49632e-05
7.18066e-05
0.00011432
2.35926e-05
2.35899e-05
7.60623e-05
0.00011513
7.11513e-05
9.44195e-05
7.49635e-05
0.000114316
7.18173e-05
6.37096e-05
6.37109e-05
8.3035e-05
6.40529e-05
6.40542e-05
7.67103e-05
4.96211e-05
7.61104e-05
4.96267e-05
2.35855e-05
2.35831e-05
7.6704e-05
4.96194e-05
7.61176e-05
4.96251e-05
0.000134297
0.000134285
0.000134295
0.000131527
0.000131529
0.000131518
0.000131527
7.90097e-05
7.27595e-05
0.000112031
9.32809e-05
7.78877e-05
7.33842e-05
0.000111319
2.35831e-05
2.35808e-05
7.90066e-05
0.000112037
7.27456e-05
9.32756e-05
7.78875e-05
0.000111315
7.33938e-05
6.44556e-05
6.44567e-05
8.41297e-05
6.47723e-05
6.47734e-05
7.79349e-05
4.96335e-05
7.73934e-05
4.96387e-05
2.3577e-05
2.35749e-05
7.79293e-05
4.96319e-05
7.74002e-05
4.9637e-05
0.000130633
0.000130623
0.000130632
0.000127998
0.000128
0.00012799
0.000127999
8.18604e-05
7.42616e-05
0.000109323
9.26349e-05
8.07315e-05
7.48724e-05
0.000108708
2.35747e-05
2.35727e-05
8.1858e-05
0.00010933
7.42482e-05
9.26303e-05
8.07306e-05
0.000108705
7.48809e-05
6.51472e-05
6.51481e-05
8.55806e-05
6.54412e-05
6.54422e-05
7.90442e-05
4.96449e-05
7.85538e-05
4.96497e-05
2.35695e-05
2.35678e-05
7.90416e-05
4.96432e-05
7.85587e-05
4.96481e-05
0.000127156
0.000127146
0.000127155
0.000124683
0.000124684
0.000124674
0.000124683
8.46004e-05
7.56787e-05
0.000107019
9.24668e-05
8.34738e-05
7.62772e-05
0.000106509
2.35672e-05
2.35655e-05
8.45985e-05
0.000107026
7.56661e-05
9.2463e-05
8.34724e-05
0.000106507
7.62839e-05
6.57916e-05
6.57923e-05
8.73371e-05
6.60661e-05
6.60669e-05
8.00615e-05
4.96556e-05
7.96136e-05
4.96603e-05
2.3563e-05
2.35616e-05
8.00614e-05
4.96539e-05
7.96163e-05
4.96586e-05
0.000123903
0.000123893
0.000123902
0.000121634
0.000121635
0.000121626
0.000121635
8.72223e-05
7.70191e-05
0.000105142
9.27516e-05
8.61053e-05
7.76049e-05
0.000104743
2.35607e-05
2.35594e-05
8.72211e-05
0.000105149
7.70085e-05
9.2748e-05
8.61036e-05
0.000104741
7.76088e-05
6.63946e-05
6.63953e-05
8.9343e-05
6.66521e-05
6.66527e-05
8.10032e-05
4.96661e-05
8.05902e-05
4.96708e-05
2.35575e-05
2.35565e-05
8.10034e-05
4.96644e-05
8.05918e-05
4.96691e-05
0.000120902
0.000120892
0.000120901
0.000118836
0.000118837
0.000118828
0.000118836
8.9725e-05
7.829e-05
0.000103707
9.34479e-05
8.86264e-05
7.88597e-05
0.000103417
2.35552e-05
2.35542e-05
8.97243e-05
0.000103714
7.82826e-05
9.34458e-05
8.86244e-05
0.000103418
7.88595e-05
6.69614e-05
6.69619e-05
9.15461e-05
6.7204e-05
6.72045e-05
8.18816e-05
4.96767e-05
8.14973e-05
4.96815e-05
2.3553e-05
2.35523e-05
8.18816e-05
4.9675e-05
8.14986e-05
4.96799e-05
0.000118187
0.00011818
0.000118187
0.000116359
0.000116359
0.000116353
0.000116361
9.21101e-05
7.95005e-05
0.000102717
9.45323e-05
9.10469e-05
8.00483e-05
0.000102541
2.35507e-05
2.355e-05
9.21096e-05
0.000102726
7.94974e-05
9.453e-05
9.10449e-05
0.000102541
8.00451e-05
6.74968e-05
6.74973e-05
9.39059e-05
6.77263e-05
6.77268e-05
8.27055e-05
4.96877e-05
8.23453e-05
4.96928e-05
2.35495e-05
2.35492e-05
8.27056e-05
4.9686e-05
8.23465e-05
4.96912e-05
0.00011579
0.000115783
0.00011579
0.000114217
0.000114216
0.000114209
0.000114217
9.43912e-05
8.0655e-05
0.000102168
9.59558e-05
9.33667e-05
8.11771e-05
0.000102098
2.35472e-05
2.35469e-05
9.43906e-05
0.000102176
8.06526e-05
9.59537e-05
9.33647e-05
0.000102099
8.11736e-05
6.8004e-05
6.80044e-05
9.63825e-05
6.82223e-05
6.82227e-05
8.34814e-05
4.96995e-05
8.31423e-05
4.97048e-05
2.3547e-05
2.3547e-05
8.34833e-05
4.96978e-05
8.31444e-05
4.97032e-05
0.000113733
0.000113725
0.000113735
0.000112414
0.000112413
0.000112408
0.000112416
9.65784e-05
8.17563e-05
0.000102048
9.76922e-05
9.55907e-05
8.22531e-05
0.000102082
2.35447e-05
2.35448e-05
9.65778e-05
0.000102056