/*--------------------------------*- C++ -*----------------------------------*\
| =========                 |                                                 |
| \\      /  F ield         | OpenFOAM: The Open Source CFD Toolbox           |
|  \\    /   O peration     | Version:  v2012                                 |
|   \\  /    A nd           | Website:  www.openfoam.com                      |
|    \\/     M anipulation  |                                                 |
\*---------------------------------------------------------------------------*/
FoamFile
{
    version     2.0;
    format      ascii;
    class       volScalarField;
    location    "750";
    object      p;
}
// * * * * * * * * * * * * * * * * * * * * * * * * * * * * * * * * * * * * * //

dimensions      [0 2 -2 0 0 0 0];


internalField   nonuniform List<scalar> 
85864
(
0.00360405
0.00360438
0.00360438
0.00360743
0.00354869
0.00354911
0.00354911
0.0035521
0.00349794
0.00349791
0.00349791
0.00350067
0.00344555
0.00344557
0.00344557
0.00344834
0.0033942
0.00339421
0.00339421
0.00339696
0.00334423
0.00334424
0.00334424
0.00334696
0.0032957
0.00329572
0.00329572
0.0032984
0.00324847
0.00324849
0.0032485
0.00325114
0.00320234
0.00320236
0.00320236
0.00320498
0.00315711
0.00315713
0.00315713
0.00315972
0.0031126
0.00311262
0.00311262
0.00311518
0.00306868
0.00306871
0.0030687
0.00307125
0.00302529
0.00302531
0.00302531
0.00302782
0.00298236
0.00298237
0.00298237
0.00298488
0.00293986
0.00293987
0.00293987
0.00294237
0.00289777
0.00289777
0.00289777
0.00290026
0.00285606
0.00285606
0.00285605
0.00285854
0.00281471
0.0028147
0.0028147
0.00281717
0.0027737
0.00277368
0.00277368
0.00277614
0.00273299
0.00273297
0.00273297
0.00273543
0.00269258
0.00269255
0.00269255
0.002695
0.00265244
0.0026524
0.0026524
0.00265485
0.00261255
0.0026125
0.0026125
0.00261494
0.0025729
0.00257284
0.00257284
0.00257527
0.00253347
0.00253341
0.00253341
0.00253583
0.00249426
0.0024942
0.0024942
0.00249661
0.00245526
0.0024552
0.0024552
0.00245759
0.00241646
0.00241641
0.00241641
0.00241877
0.00237785
0.00237781
0.00237781
0.00238015
0.00233943
0.00233939
0.00233939
0.00234172
0.00230119
0.00230116
0.00230116
0.00230346
0.00226314
0.0022631
0.0022631
0.00226538
0.00222524
0.00222521
0.00222521
0.00222747
0.0021875
0.00218749
0.00218749
0.00218973
0.00214993
0.00214991
0.00214991
0.00215214
0.00211251
0.00211249
0.00211249
0.0021147
0.00207523
0.00207522
0.00207522
0.0020774
0.00203809
0.00203808
0.00203808
0.00204025
0.00200109
0.00200107
0.00200107
0.00200323
0.00196422
0.0019642
0.0019642
0.00196634
0.00192747
0.00192744
0.00192744
0.00192957
0.00189084
0.0018908
0.0018908
0.00189293
0.00185433
0.00185428
0.00185428
0.00185639
0.00181792
0.00181786
0.00181786
0.00181996
0.0017816
0.00178154
0.00178154
0.00178363
0.00174538
0.00174531
0.00174531
0.0017474
0.00170925
0.00170917
0.00170917
0.00171125
0.00361745
0.00361768
0.00361768
0.00361745
0.00361768
0.00361768
0.00361844
0.00361844
0.00361845
0.00361844
0.00361768
0.00361768
0.00361745
0.00361768
0.00361768
0.00361745
0.00360743
0.00355867
0.00360437
0.00360437
0.00356095
0.00356095
0.00360743
0.00355867
0.00360438
0.00360437
0.00356095
0.00356095
0.00360437
0.00356095
0.00356095
0.00360743
0.00355867
0.00360438
0.00356095
0.00356095
0.00355867
0.0035521
0.00350759
0.00354911
0.00354911
0.00351104
0.00351104
0.0035521
0.00350759
0.00354911
0.00354911
0.00351104
0.00351104
0.00354911
0.00351104
0.00351104
0.0035521
0.00350759
0.00354911
0.00351104
0.00351104
0.00350759
0.00350067
0.00345522
0.00349791
0.00349791
0.00345858
0.00345858
0.00350067
0.00345522
0.00349791
0.00349791
0.00345858
0.00345858
0.00349791
0.00345858
0.00345858
0.00350067
0.00345522
0.00349791
0.00345858
0.00345858
0.00345522
0.00344834
0.00340367
0.00344557
0.00344557
0.00340693
0.00340694
0.00344834
0.00340367
0.00344557
0.00344557
0.00340693
0.00340694
0.00344557
0.00340694
0.00340694
0.00344834
0.00340367
0.00344557
0.00340693
0.00340694
0.00340367
0.00339697
0.00335346
0.00339421
0.00339421
0.00335659
0.00335659
0.00339696
0.00335346
0.00339421
0.00339421
0.00335659
0.0033566
0.00339421
0.00335659
0.00335659
0.00339696
0.00335346
0.00339421
0.00335659
0.00335659
0.00335346
0.00334696
0.0033047
0.00334424
0.00334424
0.00330772
0.00330772
0.00334696
0.0033047
0.00334424
0.00334424
0.00330772
0.00330772
0.00334424
0.00330772
0.00330772
0.00334696
0.0033047
0.00334424
0.00330772
0.00330772
0.0033047
0.0032984
0.00325728
0.00329572
0.00329572
0.00326019
0.00326019
0.0032984
0.00325727
0.00329572
0.00329572
0.00326019
0.00326019
0.00329572
0.00326019
0.00326019
0.0032984
0.00325727
0.00329572
0.00326019
0.00326019
0.00325727
0.00325114
0.00321097
0.00324849
0.00324849
0.0032138
0.0032138
0.00325114
0.00321097
0.00324849
0.00324849
0.0032138
0.0032138
0.0032485
0.0032138
0.0032138
0.00325114
0.00321097
0.0032485
0.0032138
0.0032138
0.00321097
0.00320498
0.0031656
0.00320236
0.00320236
0.00316837
0.00316837
0.00320498
0.00316559
0.00320236
0.00320236
0.00316837
0.00316836
0.00320236
0.00316837
0.00316836
0.00320498
0.0031656
0.00320236
0.00316836
0.00316836
0.0031656
0.00315972
0.00312097
0.00315713
0.00315713
0.00312369
0.00312369
0.00315972
0.00312096
0.00315713
0.00315713
0.00312369
0.00312369
0.00315713
0.00312369
0.00312369
0.00315972
0.00312096
0.00315713
0.00312369
0.00312369
0.00312097
0.00311518
0.00307695
0.00311262
0.00311262
0.00307963
0.00307963
0.00311518
0.00307695
0.00311262
0.00311262
0.00307963
0.00307963
0.00311262
0.00307963
0.00307963
0.00311518
0.00307695
0.00311262
0.00307963
0.00307963
0.00307695
0.00307125
0.00303345
0.00306871
0.00306871
0.00303611
0.00303611
0.00307124
0.00303345
0.00306871
0.0030687
0.00303611
0.00303611
0.0030687
0.00303611
0.00303611
0.00307124
0.00303345
0.0030687
0.00303611
0.00303611
0.00303345
0.00302782
0.00299044
0.00302531
0.00302531
0.00299306
0.00299306
0.00302782
0.00299044
0.00302531
0.00302531
0.00299306
0.00299306
0.00302531
0.00299306
0.00299307
0.00302782
0.00299044
0.00302531
0.00299306
0.00299307
0.00299044
0.00298488
0.00294788
0.00298237
0.00298237
0.00295046
0.00295046
0.00298488
0.00294788
0.00298237
0.00298237
0.00295046
0.00295046
0.00298237
0.00295046
0.00295046
0.00298487
0.00294788
0.00298237
0.00295046
0.00295046
0.00294788
0.00294237
0.00290572
0.00293987
0.00293987
0.00290826
0.00290826
0.00294237
0.00290572
0.00293987
0.00293987
0.00290826
0.00290826
0.00293987
0.00290826
0.00290826
0.00294237
0.00290572
0.00293987
0.00290826
0.00290826
0.00290572
0.00290026
0.00286395
0.00289777
0.00289777
0.00286645
0.00286645
0.00290026
0.00286395
0.00289777
0.00289777
0.00286645
0.00286645
0.00289777
0.00286645
0.00286645
0.00290026
0.00286395
0.00289777
0.00286645
0.00286645
0.00286395
0.00285854
0.00282254
0.00285606
0.00285606
0.00282501
0.00282501
0.00285854
0.00282254
0.00285606
0.00285605
0.00282501
0.00282501
0.00285606
0.00282501
0.00282501
0.00285854
0.00282254
0.00285606
0.00282501
0.00282501
0.00282254
0.00281717
0.00278148
0.0028147
0.0028147
0.00278391
0.00278391
0.00281717
0.00278148
0.0028147
0.0028147
0.00278391
0.00278391
0.0028147
0.00278391
0.00278391
0.00281717
0.00278147
0.0028147
0.00278391
0.00278391
0.00278148
0.00277615
0.00274072
0.00277368
0.00277368
0.00274312
0.00274312
0.00277614
0.00274072
0.00277368
0.00277368
0.00274312
0.00274312
0.00277368
0.00274312
0.00274312
0.00277614
0.00274072
0.00277368
0.00274312
0.00274312
0.00274072
0.00273543
0.00270026
0.00273297
0.00273297
0.00270263
0.00270263
0.00273543
0.00270026
0.00273297
0.00273297
0.00270263
0.00270263
0.00273297
0.00270263
0.00270263
0.00273543
0.00270026
0.00273297
0.00270263
0.00270263
0.00270026
0.002695
0.00266007
0.00269255
0.00269255
0.00266241
0.00266241
0.002695
0.00266007
0.00269255
0.00269255
0.00266241
0.00266241
0.00269255
0.00266241
0.00266241
0.002695
0.00266007
0.00269255
0.00266241
0.00266241
0.00266007
0.00265485
0.00262014
0.0026524
0.0026524
0.00262245
0.00262245
0.00265485
0.00262014
0.0026524
0.0026524
0.00262245
0.00262245
0.0026524
0.00262245
0.00262245
0.00265485
0.00262014
0.0026524
0.00262245
0.00262245
0.00262014
0.00261494
0.00258045
0.0026125
0.0026125
0.00258274
0.00258274
0.00261494
0.00258045
0.0026125
0.0026125
0.00258274
0.00258274
0.0026125
0.00258274
0.00258274
0.00261494
0.00258045
0.0026125
0.00258274
0.00258273
0.00258045
0.00257527
0.00254098
0.00257284
0.00257284
0.00254325
0.00254325
0.00257527
0.00254098
0.00257284
0.00257284
0.00254325
0.00254325
0.00257284
0.00254325
0.00254325
0.00257527
0.00254098
0.00257284
0.00254325
0.00254325
0.00254098
0.00253583
0.00250173
0.00253341
0.00253341
0.00250399
0.00250399
0.00253583
0.00250173
0.00253341
0.00253341
0.00250399
0.00250399
0.00253341
0.00250399
0.00250399
0.00253583
0.00250173
0.00253341
0.00250399
0.00250399
0.00250173
0.00249661
0.00246269
0.0024942
0.0024942
0.00246494
0.00246493
0.00249661
0.00246269
0.0024942
0.0024942
0.00246493
0.00246493
0.0024942
0.00246494
0.00246494
0.00249661
0.00246269
0.0024942
0.00246494
0.00246493
0.00246269
0.00245759
0.00242386
0.0024552
0.0024552
0.00242609
0.00242609
0.00245759
0.00242386
0.0024552
0.0024552
0.00242609
0.00242609
0.0024552
0.00242609
0.00242609
0.00245759
0.00242386
0.0024552
0.00242609
0.00242609
0.00242386
0.00241877
0.00238521
0.00241641
0.00241641
0.00238744
0.00238744
0.00241877
0.00238521
0.00241641
0.00241641
0.00238744
0.00238744
0.00241641
0.00238744
0.00238744
0.00241877
0.00238521
0.00241641
0.00238744
0.00238744
0.00238521
0.00238015
0.00234676
0.00237781
0.00237781
0.00234898
0.00234898
0.00238015
0.00234676
0.00237781
0.00237781
0.00234898
0.00234898
0.00237781
0.00234898
0.00234898
0.00238015
0.00234676
0.00237781
0.00234898
0.00234898
0.00234676
0.00234172
0.00230849
0.00233939
0.00233939
0.0023107
0.0023107
0.00234172
0.00230849
0.00233939
0.00233939
0.0023107
0.0023107
0.00233939
0.0023107
0.0023107
0.00234172
0.00230849
0.00233939
0.0023107
0.0023107
0.00230849
0.00230346
0.00227039
0.00230116
0.00230116
0.0022726
0.0022726
0.00230346
0.00227039
0.00230116
0.00230116
0.0022726
0.0022726
0.00230116
0.0022726
0.0022726
0.00230346
0.00227039
0.00230116
0.0022726
0.0022726
0.00227039
0.00226538
0.00223247
0.0022631
0.0022631
0.00223467
0.00223467
0.00226538
0.00223247
0.0022631
0.0022631
0.00223467
0.00223467
0.0022631
0.00223467
0.00223467
0.00226538
0.00223247
0.0022631
0.00223467
0.00223467
0.00223247
0.00222747
0.0021947
0.00222521
0.00222521
0.0021969
0.0021969
0.00222747
0.0021947
0.00222521
0.00222521
0.0021969
0.0021969
0.00222521
0.0021969
0.0021969
0.00222747
0.0021947
0.00222521
0.0021969
0.0021969
0.0021947
0.00218973
0.0021571
0.00218749
0.00218749
0.00215929
0.00215929
0.00218973
0.0021571
0.00218749
0.00218749
0.00215929
0.00215929
0.00218749
0.00215929
0.00215929
0.00218973
0.0021571
0.00218749
0.00215929
0.00215929
0.0021571
0.00215213
0.00211964
0.00214991
0.00214991
0.00212183
0.00212183
0.00215213
0.00211964
0.00214991
0.00214991
0.00212183
0.00212183
0.00214991
0.00212183
0.00212183
0.00215214
0.00211964
0.00214991
0.00212183
0.00212183
0.00211964
0.0021147
0.00208234
0.00211249
0.00211249
0.00208452
0.00208452
0.0021147
0.00208234
0.00211249
0.00211249
0.00208452
0.00208452
0.00211249
0.00208452
0.00208452
0.0021147
0.00208234
0.00211249
0.00208452
0.00208452
0.00208234
0.0020774
0.00204517
0.00207522
0.00207522
0.00204735
0.00204735
0.0020774
0.00204517
0.00207522
0.00207522
0.00204735
0.00204735
0.00207522
0.00204735
0.00204735
0.0020774
0.00204517
0.00207522
0.00204735
0.00204735
0.00204517
0.00204025
0.00200814
0.00203808
0.00203808
0.00201031
0.00201031
0.00204025
0.00200814
0.00203808
0.00203808
0.00201031
0.00201031
0.00203808
0.00201031
0.00201031
0.00204025
0.00200814
0.00203808
0.00201031
0.00201031
0.00200814
0.00200323
0.00197124
0.00200107
0.00200107
0.0019734
0.0019734
0.00200323
0.00197124
0.00200107
0.00200107
0.0019734
0.0019734
0.00200107
0.0019734
0.0019734
0.00200323
0.00197124
0.00200107
0.0019734
0.0019734
0.00197124
0.00196634
0.00193446
0.0019642
0.0019642
0.00193662
0.00193662
0.00196634
0.00193446
0.0019642
0.0019642
0.00193662
0.00193662
0.0019642
0.00193662
0.00193662
0.00196634
0.00193446
0.0019642
0.00193662
0.00193662
0.00193446
0.00192957
0.0018978
0.00192744
0.00192744
0.00189995
0.00189995
0.00192957
0.00189781
0.00192744
0.00192744
0.00189995
0.00189995
0.00192744
0.00189995
0.00189995
0.00192957
0.0018978
0.00192744
0.00189995
0.00189995
0.0018978
0.00189293
0.00186126
0.0018908
0.0018908
0.0018634
0.0018634
0.00189293
0.00186126
0.0018908
0.0018908
0.0018634
0.0018634
0.0018908
0.0018634
0.0018634
0.00189293
0.00186126
0.0018908
0.0018634
0.0018634
0.00186126
0.00185639
0.00182482
0.00185428
0.00185428
0.00182695
0.00182695
0.00185639
0.00182482
0.00185428
0.00185428
0.00182695
0.00182695
0.00185428
0.00182695
0.00182695
0.00185639
0.00182482
0.00185428
0.00182695
0.00182695
0.00182482
0.00181996
0.00178848
0.00181786
0.00181786
0.00179061
0.00179061
0.00181996
0.00178848
0.00181786
0.00181786
0.00179061
0.00179061
0.00181786
0.00179061
0.00179061
0.00181996
0.00178848
0.00181786
0.00179061
0.00179061
0.00178848
0.00178363
0.00175224
0.00178154
0.00178154
0.00175436
0.00175436
0.00178363
0.00175224
0.00178154
0.00178154
0.00175436
0.00175436
0.00178154
0.00175436
0.00175436
0.00178363
0.00175224
0.00178154
0.00175436
0.00175436
0.00175224
0.0017474
0.00171609
0.00174531
0.00174531
0.0017182
0.0017182
0.0017474
0.00171609
0.00174531
0.00174531
0.0017182
0.0017182
0.00174531
0.0017182
0.0017182
0.0017474
0.00171609
0.00174531
0.0017182
0.0017182
0.00171609
0.00171125
0.00168001
0.00170917
0.00170917
0.00168212
0.00168212
0.00171125
0.00168001
0.00170917
0.00170917
0.00168212
0.00168212
0.00170917
0.00168212
0.00168212
0.00171125
0.00168001
0.00170917
0.00168212
0.00168212
0.00168001
0.00362583
0.00363559
0.00363039
0.00363039
0.00365277
0.00363956
0.00366816
0.0036336
0.00365277
0.00363956
0.0036336
0.00366816
0.00364413
0.0036719
0.00367191
0.00358119
0.00360033
0.00360952
0.00357327
0.00357401
0.00357678
0.00358117
0.00360031
0.00360952
0.00357325
0.00360405
0.00360405
0.00360405
0.00356064
0.00356064
0.00356064
0.00356064
0.00357869
0.00360451
0.00360445
0.00358752
0.00360754
0.00357759
0.0035884
0.00357411
0.00357677
0.00357869
0.00360445
0.00360453
0.00358752
0.00360753
0.0035884
0.00357759
0.00361039
0.00361037
0.00358192
0.00357723
0.00357722
0.00353456
0.00355384
0.0035552
0.0035331
0.00355274
0.00353265
0.00353455
0.00355383
0.0035552
0.00353309
0.00354869
0.00354869
0.00354869
0.0035111
0.0035111
0.0035111
0.0035111
0.00353314
0.00355391
0.00354869
0.00353682
0.0035527
0.00353368
0.00353655
0.00355274
0.00353265
0.00353314
0.00354869
0.00355391
0.00353682
0.0035527
0.00353655
0.00353368
0.00355493
0.00355493
0.00353337
0.00353402
0.00353402
0.0034823
0.0035011
0.00350217
0.00348127
0.00350074
0.00348099
0.0034823
0.0035011
0.00350217
0.00348127
0.00349794
0.00349794
0.00349794
0.00345856
0.00345856
0.00345856
0.00345856
0.0034814
0.0035015
0.00349782
0.00348477
0.00350094
0.00348176
0.00348468
0.00350074
0.00348099
0.0034814
0.00349782
0.0035015
0.00348477
0.00350094
0.00348468
0.00348176
0.00350174
0.00350174
0.00348139
0.00348182
0.00348182
0.00342977
0.00344842
0.00344928
0.003429
0.00344822
0.00342882
0.00342977
0.00344842
0.00344928
0.003429
0.00344555
0.00344555
0.00344555
0.00340693
0.00340693
0.00340693
0.00340693
0.00342926
0.00344883
0.00344552
0.00343262
0.00344855
0.00342945
0.00343258
0.00344822
0.00342882
0.00342926
0.00344552
0.00344883
0.00343262
0.00344855
0.00343258
0.00342945
0.00344887
0.00344887
0.0034293
0.00342938
0.00342938
0.00337857
0.00339693
0.00339756
0.00337802
0.00339679
0.00337788
0.00337857
0.00339693
0.00339756
0.00337802
0.0033942
0.0033942
0.0033942
0.00335658
0.00335658
0.00335658
0.00335658
0.0033783
0.00339728
0.00339418
0.00338158
0.00339711
0.00337841
0.00338155
0.00339678
0.00337788
0.0033783
0.00339418
0.00339728
0.00338158
0.00339711
0.00338155
0.00337841
0.00339727
0.00339727
0.00337838
0.00337832
0.00337832
0.00332893
0.00334688
0.00334733
0.00332853
0.00334677
0.00332841
0.00332893
0.00334688
0.00334733
0.00332853
0.00334423
0.00334423
0.00334423
0.00330771
0.00330771
0.00330771
0.00330771
0.00332881
0.00334718
0.00334421
0.00333198
0.00334706
0.00332888
0.00333195
0.00334676
0.00332842
0.00332881
0.00334421
0.00334718
0.00333198
0.00334706
0.00333195
0.00332888
0.00334716
0.00334716
0.0033289
0.00332879
0.00332879
0.00328076
0.00329831
0.00329863
0.00328048
0.0032982
0.00328038
0.00328075
0.00329831
0.00329863
0.00328048
0.0032957
0.0032957
0.0032957
0.00326017
0.00326017
0.00326017
0.00326017
0.00328073
0.00329857
0.00329569
0.0032838
0.00329847
0.00328079
0.00328377
0.0032982
0.00328038
0.00328073
0.00329569
0.00329857
0.0032838
0.00329847
0.00328377
0.00328079
0.00329856
0.00329856
0.00328083
0.00328071
0.00328071
0.00323386
0.00325105
0.00325128
0.00323366
0.00325095
0.00323356
0.00323386
0.00325105
0.00325128
0.00323366
0.00324847
0.00324847
0.00324847
0.00321378
0.00321378
0.00321378
0.00321378
0.0032339
0.00325128
0.00324846
0.00323687
0.0032512
0.00323395
0.00323683
0.00325096
0.00323357
0.0032339
0.00324846
0.00325128
0.00323687
0.0032512
0.00323683
0.00323395
0.00325128
0.00325128
0.003234
0.00323387
0.00323387
0.00318802
0.00320489
0.00320507
0.00318786
0.00320481
0.00318777
0.00318802
0.00320489
0.00320507
0.00318786
0.00320234
0.00320234
0.00320234
0.00316834
0.00316834
0.00316834
0.00316834
0.0031881
0.00320511
0.00320233
0.00319098
0.00320503
0.00318815
0.00319095
0.00320481
0.00318778
0.0031881
0.00320233
0.00320511
0.00319098
0.00320503
0.00319095
0.00318814
0.00320511
0.00320511
0.00318818
0.00318806
0.00318806
0.00314303
0.00315964
0.00315978
0.0031429
0.00315955
0.00314281
0.00314303
0.00315964
0.00315978
0.0031429
0.00315711
0.00315711
0.00315711
0.00312366
0.00312366
0.00312366
0.00312366
0.00314313
0.00315984
0.0031571
0.00314594
0.00315978
0.00314318
0.00314591
0.00315955
0.00314281
0.00314313
0.0031571
0.00315984
0.00314594
0.00315978
0.00314591
0.00314317
0.00315983
0.00315983
0.0031432
0.00314307
0.00314307
0.00309873
0.0031151
0.00311524
0.0030986
0.00311502
0.00309852
0.00309873
0.0031151
0.00311524
0.0030986
0.0031126
0.00311259
0.0031126
0.00307961
0.00307961
0.00307961
0.00307961
0.00309885
0.0031153
0.00311259
0.00310159
0.00311525
0.00309888
0.00310156
0.00311502
0.00309852
0.00309885
0.00311259
0.0031153
0.00310159
0.00311525
0.00310156
0.00309887
0.00311528
0.00311528
0.00309889
0.00309876
0.00309876
0.00305498
0.00307116
0.00307129
0.00305486
0.00307109
0.00305478
0.00305498
0.00307116
0.00307129
0.00305486
0.00306868
0.00306868
0.00306868
0.00303609
0.00303609
0.00303609
0.00303609
0.00305513
0.00307135
0.00306868
0.00305781
0.00307132
0.00305514
0.00305779
0.00307109
0.00305478
0.00305513
0.00306868
0.00307135
0.00305781
0.00307132
0.00305779
0.00305514
0.00307133
0.00307133
0.00305514
0.00305501
0.00305501
0.00301174
0.00302774
0.00302786
0.00301161
0.00302766
0.00301154
0.00301174
0.00302774
0.00302786
0.00301161
0.00302529
0.00302529
0.00302529
0.00299305
0.00299305
0.00299305
0.00299305
0.0030119
0.00302792
0.00302529
0.00301453
0.00302792
0.00301188
0.00301452
0.00302767
0.00301154
0.0030119
0.00302529
0.00302792
0.00301453
0.00302792
0.00301452
0.00301188
0.00302789
0.00302789
0.00301188
0.00301175
0.00301175
0.00296894
0.00298477
0.0029849
0.00296881
0.00298471
0.00296875
0.00296894
0.00298477
0.0029849
0.00296881
0.00298236
0.00298236
0.00298236
0.00295044
0.00295044
0.00295044
0.00295044
0.00296913
0.00298495
0.00298236
0.00297171
0.00298497
0.00296909
0.0029717
0.00298471
0.00296875
0.00296913
0.00298236
0.00298495
0.00297171
0.00298497
0.0029717
0.00296908
0.00298491
0.00298491
0.00296911
0.00296894
0.00296894
0.00292657
0.00294225
0.00294237
0.00292644
0.00294219
0.00292639
0.00292657
0.00294225
0.00294237
0.00292644
0.00293986
0.00293986
0.00293986
0.00290825
0.00290825
0.00290825
0.00290825
0.00292678
0.00294242
0.00293987
0.00292931
0.00294246
0.00292671
0.00292931
0.00294219
0.00292639
0.00292678
0.00293987
0.00294242
0.00292931
0.00294246
0.00292931
0.00292671
0.00294237
0.00294237
0.00292675
0.00292655
0.00292655
0.00288459
0.00290013
0.00290025
0.00288447
0.00290007
0.00288443
0.00288459
0.00290013
0.00290025
0.00288447
0.00289777
0.00289777
0.00289777
0.00286645
0.00286645
0.00286645
0.00286645
0.00288483
0.00290029
0.00289778
0.00288731
0.00290036
0.00288473
0.00288732
0.00290008
0.00288443
0.00288483
0.00289778
0.00290029
0.0028873
0.00290036
0.00288732
0.00288473
0.00290024
0.00290024
0.00288479
0.00288457
0.00288457
0.002843
0.0028584
0.00285852
0.00284288
0.00285836
0.00284284
0.002843
0.0028584
0.00285852
0.00284288
0.00285606
0.00285606
0.00285606
0.00282502
0.00282502
0.00282501
0.00282501
0.00284325
0.00285854
0.00285607
0.00284568
0.00285864
0.00284313
0.00284571
0.00285836
0.00284284
0.00284325
0.00285608
0.00285854
0.00284568
0.00285864
0.00284571
0.00284312
0.0028585
0.0028585
0.0028432
0.00284297
0.00284297
0.00280175
0.00281703
0.00281714
0.00280164
0.00281699
0.00280161
0.00280175
0.00281703
0.00281714
0.00280164
0.00281471
0.00281471
0.00281471
0.00278392
0.00278392
0.00278392
0.00278392
0.00280202
0.00281716
0.00281473
0.00280442
0.00281728
0.00280187
0.00280444
0.00281699
0.0028016
0.00280202
0.00281473
0.00281716
0.00280442
0.00281728
0.00280444
0.00280187
0.00281712
0.00281712
0.00280197
0.00280172
0.00280172
0.00276083
0.002776
0.0027761
0.00276072
0.00277597
0.0027607
0.00276083
0.002776
0.0027761
0.00276073
0.00277369
0.00277369
0.00277369
0.00274314
0.00274314
0.00274314
0.00274314
0.00276111
0.00277611
0.00277371
0.00276347
0.00277624
0.00276094
0.00276351
0.00277596
0.0027607
0.00276111
0.00277371
0.00277611
0.00276348
0.00277624
0.00276351
0.00276094
0.00277608
0.00277608
0.00276106
0.0027608
0.0027608
0.00272021
0.00273528
0.00273537
0.00272012
0.00273524
0.0027201
0.00272021
0.00273528
0.00273537
0.00272012
0.00273299
0.00273299
0.00273299
0.00270266
0.00270266
0.00270266
0.00270266
0.00272049
0.00273538
0.002733
0.00272284
0.00273551
0.00272032
0.00272287
0.00273525
0.00272009
0.00272049
0.002733
0.00273538
0.00272284
0.00273551
0.00272287
0.00272032
0.00273535
0.00273535
0.00272046
0.00272018
0.00272018
0.00267988
0.00269485
0.00269494
0.00267979
0.00269481
0.00267977
0.00267988
0.00269485
0.00269494
0.00267979
0.00269258
0.00269258
0.00269258
0.00266245
0.00266245
0.00266245
0.00266245
0.00268015
0.00269494
0.00269258
0.00268249
0.00269506
0.00267998
0.00268252
0.00269482
0.00267977
0.00268015
0.00269258
0.00269494
0.00268249
0.00269506
0.00268252
0.00267998
0.00269491
0.00269491
0.00268013
0.00267985
0.00267985
0.00263981
0.00265469
0.00265477
0.00263973
0.00265466
0.00263971
0.00263981
0.00265469
0.00265477
0.00263973
0.00265244
0.00265244
0.00265244
0.0026225
0.0026225
0.0026225
0.0026225
0.00264008
0.00265476
0.00265243
0.0026424
0.00265489
0.0026399
0.00264243
0.00265466
0.0026397
0.00264008
0.00265243
0.00265476
0.0026424
0.00265489
0.00264243
0.0026399
0.00265475
0.00265475
0.00264008
0.00263978
0.00263978
0.00259999
0.00261478
0.00261485
0.00259991
0.00261476
0.00259989
0.00259999
0.00261478
0.00261485
0.00259991
0.00261255
0.00261255
0.00261255
0.00258279
0.00258279
0.00258279
0.00258279
0.00260024
0.00261484
0.00261253
0.00260256
0.00261496
0.00260007
0.00260259
0.00261476
0.00259989
0.00260024
0.00261253
0.00261485
0.00260257
0.00261496
0.00260259
0.00260007
0.00261483
0.00261483
0.00260026
0.00259995
0.00259995
0.0025604
0.00257511
0.00257518
0.00256033
0.00257509
0.00256031
0.0025604
0.00257511
0.00257518
0.00256033
0.0025729
0.0025729
0.0025729
0.00254331
0.00254331
0.00254331
0.00254331
0.00256064
0.00257516
0.00257286
0.00256296
0.00257527
0.00256048
0.00256298
0.00257509
0.00256031
0.00256063
0.00257286
0.00257516
0.00256296
0.00257527
0.00256298
0.00256048
0.00257516
0.00257516
0.00256068
0.00256037
0.00256037
0.00252104
0.00253567
0.00253574
0.00252097
0.00253565
0.00252095
0.00252104
0.00253567
0.00253574
0.00252097
0.00253347
0.00253347
0.00253347
0.00250404
0.00250404
0.00250404
0.00250404
0.00252126
0.00253571
0.00253343
0.00252359
0.00253581
0.00252111
0.0025236
0.00253565
0.00252095
0.00252126
0.00253343
0.00253571
0.00252359
0.00253581
0.0025236
0.00252111
0.00253571
0.00253571
0.00252133
0.002521
0.002521
0.00248189
0.00249645
0.00249651
0.00248182
0.00249643
0.00248181
0.00248189
0.00249645
0.00249651
0.00248182
0.00249426
0.00249426
0.00249426
0.00246499
0.00246499
0.00246499
0.00246499
0.0024821
0.00249648
0.00249421
0.00248443
0.00249657
0.00248195
0.00248444
0.00249643
0.00248181
0.0024821
0.00249421
0.00249648
0.00248443
0.00249657
0.00248444
0.00248195
0.00249648
0.00249648
0.00248219
0.00248185
0.00248185
0.00244295
0.00245743
0.00245749
0.00244288
0.00245741
0.00244287
0.00244295
0.00245743
0.00245749
0.00244288
0.00245526
0.00245526
0.00245526
0.00242614
0.00242614
0.00242614
0.00242614
0.00244314
0.00245746
0.00245521
0.00244549
0.00245754
0.002443
0.00244549
0.00245741
0.00244287
0.00244314
0.00245521
0.00245746
0.00244549
0.00245754
0.00244549
0.002443
0.00245747
0.00245747
0.00244325
0.00244291
0.00244291
0.00240421
0.00241862
0.00241867
0.00240414
0.0024186
0.00240413
0.00240421
0.00241862
0.00241867
0.00240414
0.00241646
0.00241646
0.00241646
0.00238748
0.00238748
0.00238748
0.00238748
0.00240439
0.00241864
0.00241641
0.00240674
0.00241871
0.00240426
0.00240674
0.0024186
0.00240413
0.00240439
0.00241641
0.00241864
0.00240674
0.00241871
0.00240674
0.00240426
0.00241865
0.00241865
0.00240451
0.00240417
0.00240417
0.00236565
0.00238
0.00238005
0.00236559
0.00237998
0.00236558
0.00236565
0.00238
0.00238005
0.00236559
0.00237785
0.00237785
0.00237785
0.00234902
0.00234902
0.00234902
0.00234902
0.00236583
0.00238002
0.00237781
0.00236819
0.00238008
0.0023657
0.00236819
0.00237998
0.00236558
0.00236583
0.00237781
0.00238002
0.00236819
0.00238008
0.00236819
0.0023657
0.00238003
0.00238003
0.00236596
0.00236562
0.00236562
0.00232729
0.00234156
0.00234162
0.00232723
0.00234155
0.00232722
0.00232729
0.00234157
0.00234162
0.00232723
0.00233943
0.00233943
0.00233943
0.00231074
0.00231074
0.00231074
0.00231074
0.00232746
0.00234158
0.0023394
0.00232982
0.00234164
0.00232734
0.00232982
0.00234156
0.00232722
0.00232746
0.0023394
0.00234158
0.00232982
0.00234164
0.00232982
0.00232734
0.0023416
0.0023416
0.0023276
0.00232726
0.00232726
0.0022891
0.00230332
0.00230336
0.00228905
0.00230331
0.00228904
0.0022891
0.00230332
0.00230336
0.00228905
0.00230119
0.00230119
0.00230119
0.00227264
0.00227264
0.00227264
0.00227264
0.00228927
0.00230333
0.00230117
0.00229163
0.00230338
0.00228915
0.00229164
0.00230331
0.00228904
0.00228927
0.00230117
0.00230333
0.00229163
0.00230338
0.00229164
0.00228915
0.00230335
0.00230335
0.00228942
0.00228907
0.00228907
0.00225109
0.00226524
0.00226529
0.00225104
0.00226523
0.00225103
0.00225109
0.00226524
0.00226529
0.00225104
0.00226314
0.00226314
0.00226314
0.0022347
0.0022347
0.0022347
0.0022347
0.00225125
0.00226526
0.00226311
0.00225361
0.0022653
0.00225114
0.00225362
0.00226524
0.00225103
0.00225125
0.00226311
0.00226526
0.00225361
0.0022653
0.00225362
0.00225114
0.00226527
0.00226527
0.00225141
0.00225106
0.00225106
0.00221324
0.00222734
0.00222738
0.0022132
0.00222733
0.00221319
0.00221324
0.00222734
0.00222738
0.0022132
0.00222524
0.00222524
0.00222524
0.00219692
0.00219692
0.00219692
0.00219692
0.0022134
0.00222735
0.00222522
0.00221577
0.0022274
0.00221329
0.00221578
0.00222733
0.00221319
0.0022134
0.00222522
0.00222735
0.00221577
0.0022274
0.00221578
0.00221329
0.00222737
0.00222737
0.00221356
0.00221322
0.00221322
0.00217556
0.0021896
0.00218964
0.00217551
0.00218959
0.00217551
0.00217556
0.0021896
0.00218964
0.00217551
0.0021875
0.0021875
0.0021875
0.00215931
0.00215931
0.00215931
0.00215931
0.00217572
0.00218961
0.0021875
0.00217808
0.00218965
0.00217561
0.0021781
0.00218959
0.00217551
0.00217571
0.0021875
0.00218961
0.00217808
0.00218965
0.0021781
0.00217561
0.00218963
0.00218963
0.00217588
0.00217554
0.00217554
0.00213803
0.00215201
0.00215205
0.00213799
0.00215201
0.00213799
0.00213803
0.00215201
0.00215205
0.00213799
0.00214993
0.00214993
0.00214993
0.00212185
0.00212185
0.00212185
0.00212185
0.00213818
0.00215202
0.00214993
0.00214054
0.00215206
0.00213808
0.00214057
0.00215201
0.00213799
0.00213818
0.00214993
0.00215202
0.00214054
0.00215206
0.00214057
0.00213808
0.00215204
0.00215204
0.00213835
0.00213801
0.00213801
0.00210065
0.00211458
0.00211462
0.00210061
0.00211458
0.00210061
0.00210065
0.00211458
0.00211462
0.00210061
0.00211251
0.00211251
0.00211251
0.00208453
0.00208453
0.00208453
0.00208453
0.0021008
0.00211459
0.00211252
0.00210316
0.00211463
0.0021007
0.00210319
0.00211458
0.00210061
0.0021008
0.00211252
0.00211459
0.00210316
0.00211463
0.00210319
0.0021007
0.00211461
0.00211461
0.00210097
0.00210063
0.00210063
0.00206342
0.0020773
0.00207733
0.00206338
0.00207729
0.00206338
0.00206342
0.0020773
0.00207733
0.00206338
0.00207523
0.00207523
0.00207523
0.00204736
0.00204736
0.00204736
0.00204736
0.00206356
0.0020773
0.00207525
0.00206592
0.00207734
0.00206347
0.00206595
0.00207729
0.00206338
0.00206356
0.00207525
0.0020773
0.00206592
0.00207734
0.00206595
0.00206347
0.00207732
0.00207732
0.00206374
0.0020634
0.0020634
0.00202632
0.00204015
0.00204018
0.00202628
0.00204015
0.00202629
0.00202632
0.00204015
0.00204018
0.00202628
0.00203809
0.00203809
0.00203809
0.00201033
0.00201033
0.00201033
0.00201033
0.00202646
0.00204016
0.00203811
0.00202881
0.00204019
0.00202637
0.00202885
0.00204015
0.00202629
0.00202646
0.00203811
0.00204016
0.00202881
0.00204019
0.00202885
0.00202637
0.00204018
0.00204018
0.00202664
0.0020263
0.0020263
0.00198936
0.00200314
0.00200317
0.00198932
0.00200314
0.00198932
0.00198936
0.00200314
0.00200317
0.00198932
0.00200109
0.00200109
0.00200109
0.00197343
0.00197343
0.00197343
0.00197343
0.0019895
0.00200315
0.00200111
0.00199184
0.00200318
0.00198941
0.00199188
0.00200314
0.00198932
0.0019895
0.00200111
0.00200315
0.00199184
0.00200318