/*--------------------------------*- C++ -*----------------------------------*\
| =========                 |                                                 |
| \\      /  F ield         | OpenFOAM: The Open Source CFD Toolbox           |
|  \\    /   O peration     | Version:  v2012                                 |
|   \\  /    A nd           | Website:  www.openfoam.com                      |
|    \\/     M anipulation  |                                                 |
\*---------------------------------------------------------------------------*/
FoamFile
{
    version     2.0;
    format      ascii;
    class       surfaceScalarField;
    location    "750";
    object      phi;
}
// * * * * * * * * * * * * * * * * * * * * * * * * * * * * * * * * * * * * * //

dimensions      [0 3 -1 0 0 0 0];
oriented        oriented;


internalField   nonuniform List<scalar> 
248808
(
-0.00104221
-1.45815e-05
-1.44777e-05
9.34771e-06
9.17762e-06
0.00105274
-0.00026146
-5.64183e-06
1.44583e-05
6.83957e-06
0.00105941
-4.53274e-06
-1.62486e-06
-2.21805e-06
-2.57554e-06
-6.59143e-06
-7.04427e-06
-3.16375e-06
-0.000263303
-0.000259727
-0.000262829
-0.000261437
-5.64682e-06
1.44873e-05
6.92911e-06
0.0010592
-4.53785e-06
-1.63504e-06
-2.22565e-06
-2.57985e-06
-6.58553e-06
-7.04034e-06
-3.16594e-06
-0.000259699
-0.000263274
-0.000262793
-0.000260564
5.61732e-06
5.65742e-06
-4.87815e-06
-4.87221e-06
0.00025904
-1.63187e-06
-1.63376e-06
-0.00106073
8.98537e-07
8.99307e-07
0.0010622
-0.00106267
-1.60665e-06
1.62783e-06
8.28417e-07
0.00106395
-6.53887e-07
7.84507e-07
-1.48148e-07
3.78011e-07
-8.00666e-07
-1.39484e-06
-2.90555e-07
-0.00106235
-1.60156e-06
1.63834e-06
8.23605e-07
0.00106363
-6.53862e-07
7.79017e-07
-1.48197e-07
3.75394e-07
-8.03195e-07
-1.39453e-06
-2.88008e-07
-0.000261533
1.63928e-06
1.60171e-06
-7.13269e-07
-7.16419e-07
0.000259722
-1.36113e-06
-1.36255e-06
-0.0010664
6.82252e-07
6.83062e-07
0.00106775
-0.0010679
-1.55714e-06
1.3673e-06
6.90356e-07
0.00106925
-6.21816e-07
8.38619e-07
-1.06585e-07
4.24397e-07
-7.8041e-07
-1.35997e-06
-2.4516e-07
-0.00106758
-1.55189e-06
1.36211e-06
6.9568e-07
0.00106892
-6.21828e-07
8.33211e-07
-1.06553e-07
4.24343e-07
-7.80328e-07
-1.35442e-06
-2.4261e-07
-0.000262766
1.58732e-06
1.55204e-06
-6.74946e-07
-6.83122e-07
0.000260984
-1.34099e-06
-1.3423e-06
-0.00107186
6.64413e-07
6.65264e-07
0.00107322
-0.00107326
-1.55557e-06
1.34196e-06
6.67272e-07
0.00107457
-6.1996e-07
8.63814e-07
-8.15531e-08
4.38213e-07
-7.79436e-07
-1.36933e-06
-2.20276e-07
-0.00107292
-1.55023e-06
1.34185e-06
6.67343e-07
0.00107424
-6.17224e-07
8.58395e-07
-8.39751e-08
4.38145e-07
-7.81914e-07
-1.36911e-06
-2.17721e-07
-0.000264044
1.58323e-06
1.55041e-06
-6.64563e-07
-6.70218e-07
0.000262245
-1.29596e-06
-1.29715e-06
-0.00107721
6.42269e-07
6.43162e-07
0.00107852
-0.00107844
-1.5474e-06
1.29686e-06
6.34106e-07
0.00107969
-6.07349e-07
8.91671e-07
-5.61571e-08
4.60136e-07
-7.68255e-07
-1.37183e-06
-1.89e-07
-0.0010781
-1.54199e-06
1.29669e-06
6.34116e-07
0.00107936
-6.04527e-07
8.86223e-07
-5.86326e-08
4.60063e-07
-7.70738e-07
-1.37163e-06
-1.86423e-07
-0.000265263
1.57528e-06
1.54228e-06
-6.47712e-07
-6.53379e-07
0.000263446
-1.24841e-06
-1.24949e-06
-0.00108237
6.20371e-07
6.21289e-07
0.00108362
-0.00108337
-1.53901e-06
1.24923e-06
6.04451e-07
0.00108457
-5.95034e-07
9.17293e-07
-3.3855e-08
4.84428e-07
-7.53991e-07
-1.36935e-06
-1.58442e-07
-0.00108303
-1.53357e-06
1.24903e-06
6.0443e-07
0.00108423
-5.92237e-07
9.11835e-07
-3.63382e-08
4.84374e-07
-7.56499e-07
-1.36916e-06
-1.55863e-07
-0.000266408
1.56705e-06
1.53388e-06
-6.30858e-07
-6.36537e-07
0.000264575
-1.20432e-06
-1.20521e-06
-0.00108732
6.00844e-07
6.01738e-07
0.00108852
-0.00108806
-1.53234e-06
1.20494e-06
5.80549e-07
0.00108919
-5.853e-07
9.40136e-07
-1.53539e-08
5.09153e-07
-7.40247e-07
-1.36521e-06
-1.30471e-07
-0.00108772
-1.52697e-06
1.20474e-06
5.80615e-07
0.00108885
-5.82639e-07
9.34604e-07
-1.77968e-08
5.09107e-07
-7.42744e-07
-1.365e-06
-1.27909e-07
-0.00026748
1.56065e-06
1.52734e-06
-6.16397e-07
-6.22094e-07
0.00026563
-1.16554e-06
-1.16682e-06
-0.00109208
5.84395e-07
5.8534e-07
0.00109324
-0.00109251
-1.52795e-06
1.16662e-06
5.62508e-07
0.00109359
-5.78876e-07
9.60133e-07
-1.24183e-09
5.33207e-07
-7.28058e-07
-1.36111e-06
-1.05633e-07
-0.00109217
-1.52257e-06
1.16645e-06
5.62679e-07
0.00109325
-5.76276e-07
9.54654e-07
-3.17126e-09
5.33151e-07
-7.30528e-07
-1.36087e-06
-1.03098e-07
-0.000268483
1.5564e-06
1.52289e-06
-6.04451e-07
-6.10202e-07
0.000266618
-1.13187e-06
-1.13316e-06
-0.00109667
5.70319e-07
5.70997e-07
0.00109779
-0.00109676
-1.52678e-06
1.13302e-06
5.48821e-07
0.00109779
-5.75726e-07
9.76742e-07
1.65457e-08
5.55795e-07
-7.17625e-07
-1.35792e-06
-8.39885e-08
-0.00109641
-1.5213e-06
1.13295e-06
5.48883e-07
0.00109744
-5.7311e-07
9.71406e-07
1.36822e-08
5.55821e-07
-7.20003e-07
-1.35756e-06
-8.14058e-08
-0.000269423
1.55487e-06
1.52125e-06
-5.95772e-07
-6.01444e-07
0.000267544
-1.10332e-06
-1.10445e-06
-0.00110111
5.58631e-07
5.59293e-07
0.0011022
-0.00110081
-1.52706e-06
1.1043e-06
5.381e-07
0.0011018
-5.73769e-07
9.91886e-07
3.09311e-08
5.77117e-07
-7.08207e-07
-1.35525e-06
-6.51377e-08
-0.00110047
-1.52161e-06
1.10423e-06
5.3817e-07
0.00110145
-5.71315e-07
9.86459e-07
2.788e-08
5.77207e-07
-7.10594e-07
-1.35493e-06
-6.24978e-08
-0.000270305
1.55539e-06
1.52163e-06
-5.89435e-07
-5.9516e-07
0.000268412
-1.07848e-06
-1.07946e-06
-0.00110542
5.48715e-07
5.49396e-07
0.00110648
-0.0011047
-1.52813e-06
1.07923e-06
5.28814e-07
0.00110564
-5.69964e-07
1.00621e-06
4.10524e-08
5.97106e-07
-6.98955e-07
-1.35244e-06
-4.89904e-08
-0.00110435
-1.52269e-06
1.07923e-06
5.28976e-07
0.0011053
-5.70187e-07
1.00058e-06
4.02542e-08
5.97201e-07
-7.01479e-07
-1.35225e-06
-4.62939e-08
-0.000271132
1.55686e-06
1.52297e-06
-5.84363e-07
-5.90126e-07
0.000269227
-1.0558e-06
-1.05682e-06
-0.00110962
5.39684e-07
5.40349e-07
0.00111065
-0.00110843
-1.52988e-06
1.05656e-06
5.19966e-07
0.00110934
-5.70518e-07
1.01997e-06
5.22276e-08
6.1604e-07
-6.88828e-07
-1.34877e-06
-3.47988e-08
-0.00110808
-1.52426e-06
1.05639e-06
5.19945e-07
0.00110899
-5.70081e-07
1.01438e-06
5.21056e-08
6.15933e-07
-6.91419e-07
-1.34857e-06
-3.23005e-08
-0.000271907
1.55852e-06
1.52451e-06
-5.79532e-07
-5.85325e-07
0.000269989
-1.03422e-06
-1.03515e-06
-0.00111371
5.30911e-07
5.31583e-07
0.00111472
-0.001112
-1.53133e-06
1.03503e-06
5.10705e-07
0.00111288
-5.6916e-07
1.0332e-06
6.19798e-08
6.33087e-07
-6.77843e-07
-1.3443e-06
-2.26115e-08
-0.00111165
-1.52574e-06
1.03484e-06
5.10676e-07
0.00111253
-5.69045e-07
1.02768e-06
6.20052e-08
6.33072e-07
-6.80352e-07
-1.34401e-06
-2.01268e-08
-0.00027263
1.56005e-06
1.5259e-06
-5.74857e-07
-5.80735e-07
0.0002707
-1.01328e-06
-1.01417e-06
-0.0011177
5.22268e-07
5.23011e-07
0.00111868
-0.00111543
-1.53292e-06
1.01412e-06
5.00642e-07
0.00111627
-5.66759e-07
1.04591e-06
7.11862e-08
6.48756e-07
-6.65134e-07
-1.3381e-06
-1.1885e-08
-0.00111508
-1.52718e-06
1.01385e-06
5.00582e-07
0.00111592
-5.66682e-07
1.04049e-06
7.14437e-08
6.48768e-07
-6.67594e-07
-1.33775e-06
-9.49869e-09
-0.0002733
1.56157e-06
1.52741e-06
-5.69761e-07
-5.75386e-07
0.000271356
-9.92431e-07
-9.93185e-07
-0.00112159
5.13344e-07
5.14075e-07
0.00112255
-0.00111871
-1.5333e-06
9.93134e-07
4.90248e-07
0.00111951
-5.62632e-07
1.05888e-06
8.00047e-08
6.62595e-07
-6.51026e-07
-1.33028e-06
-3.13275e-09
-0.00111836
-1.52771e-06
9.92947e-07
4.90157e-07
0.00111916
-5.62469e-07
1.05327e-06
8.00248e-08
6.62631e-07
-6.53564e-07
-1.33001e-06
-9.71949e-10
-0.000273915
1.56213e-06
1.52788e-06
-5.62486e-07
-5.68187e-07
0.000271955
-9.71234e-07
-9.72001e-07
-0.00112539
5.0412e-07
5.04851e-07
0.00112633
-0.00112184
-1.53317e-06
9.71963e-07
4.77948e-07
0.00112259
-5.57292e-07
1.07111e-06
8.76386e-08
6.74835e-07
-6.35907e-07
-1.32121e-06
7.50141e-09
-0.00112148
-1.52757e-06
9.71685e-07
4.77361e-07
0.00112224
-5.57086e-07
1.06553e-06
8.78942e-08
6.74704e-07
-6.38497e-07
-1.32097e-06
1.08225e-08
-0.000274471
1.56192e-06
1.52758e-06
-5.54738e-07
-5.60462e-07
0.000272497
-9.49979e-07
-9.50729e-07
-0.00112909
4.94636e-07
4.95301e-07
0.00113
-0.0011248
-1.53205e-06
9.50574e-07
4.66036e-07
0.00112552
-5.49597e-07
1.0826e-06
9.50976e-08
6.851e-07
-6.19974e-07
-1.31086e-06
1.72464e-08
-0.00112445
-1.52652e-06
9.50428e-07
4.65731e-07
0.00112516
-5.49439e-07
1.07688e-06
9.51274e-08
6.85011e-07
-6.22611e-07
-1.31071e-06
2.04321e-08
-0.000274965
1.56111e-06
1.52668e-06
-5.46513e-07
-5.52243e-07
0.000272976
-9.28158e-07
-9.28935e-07
-0.0011327
4.84428e-07
4.85094e-07
0.00113359
-0.0011276
-1.53016e-06
9.28748e-07
4.55392e-07
0.00112828
-5.40542e-07
1.09302e-06
1.01604e-07
6.94257e-07
-6.03331e-07
-1.29933e-06
2.59221e-08
-0.00112725
-1.52466e-06
9.28723e-07
4.55008e-07
0.00112792
-5.4049e-07
1.08732e-06
1.017e-07
6.94189e-07
-6.05885e-07
-1.29902e-06
2.90295e-08
-0.000275395
1.55925e-06
1.52473e-06
-5.3737e-07
-5.43108e-07
0.000273391
-9.06946e-07
-9.07505e-07
-0.00113622
4.74551e-07
4.75287e-07
0.00113708
-0.00113024
-1.52719e-06
9.074e-07
4.44817e-07
0.00113087
-5.30141e-07
1.10258e-06
1.07801e-07
7.02676e-07
-5.86244e-07
-1.28591e-06
3.35212e-08
-0.00112988
-1.52162e-06
9.07148e-07
4.44423e-07
0.00113051
-5.2996e-07
1.09692e-06
1.07995e-07
7.02548e-07
-5.88798e-07
-1.28573e-06
3.66227e-08
-0.000275756
1.55631e-06
1.52173e-06
-5.27351e-07
-5.33078e-07
0.000273738
-8.85943e-07
-8.86567e-07
-0.00113964
4.65107e-07
4.65806e-07
0.00114048
-0.00113269
-1.523e-06
8.86421e-07
4.34419e-07
0.00113328
-5.18547e-07
1.1112e-06
1.13645e-07
7.10219e-07
-5.69165e-07
-1.27129e-06
4.04045e-08
-0.00113233
-1.51745e-06
8.86197e-07
4.34176e-07
0.00113292
-5.18495e-07
1.10547e-06
1.13694e-07
7.10101e-07
-5.7173e-07
-1.27113e-06
4.34892e-08
-0.000276047
1.55223e-06
1.51759e-06
-5.16487e-07
-5.22213e-07
0.000274016
-8.65294e-07
-8.65847e-07
-0.00114296
4.55924e-07
4.56621e-07
0.00114378
-0.00113497
-1.51755e-06
8.65768e-07
4.25006e-07
0.00113551
-5.09352e-07
1.11882e-06
1.21593e-07
7.17243e-07
-5.52212e-07
-1.25552e-06
4.68706e-08
-0.00113461
-1.51201e-06
8.65509e-07
4.24727e-07
0.00113515
-5.06388e-07
1.11308e-06
1.18918e-07
7.17139e-07
-5.5471e-07
-1.25533e-06
4.99241e-08
-0.000276267
1.54682e-06
1.51213e-06
-5.04701e-07
-5.10415e-07
0.000274223
-8.44813e-07
-8.45336e-07
-0.00114621
4.47027e-07
4.47762e-07
0.001147
-0.00113705
-1.51069e-06
8.45276e-07
4.15948e-07
0.00113754
-4.97025e-07
1.1257e-06
1.26383e-07
7.23896e-07
-5.35382e-07
-1.23885e-06
5.31045e-08
-0.00113669
-1.50513e-06
8.44998e-07
4.15738e-07
0.00113718
-4.94017e-07
1.12e-06
1.23654e-07
7.23774e-07
-5.37879e-07
-1.23867e-06
5.61369e-08
-0.000276416
1.53997e-06
1.50524e-06
-4.91962e-07
-4.97653e-07
0.000274361
-8.23718e-07
-8.24386e-07
-0.00114935
4.37842e-07
4.38548e-07
0.00115013
-0.00113895
-1.50261e-06
8.24084e-07
4.07349e-07
0.00113939
-4.84142e-07
1.13175e-06
1.31584e-07
7.30251e-07
-5.18966e-07
-1.22159e-06
5.92478e-08
-0.00113859
-1.49698e-06
8.23985e-07
4.06984e-07
0.00113903
-4.81274e-07
1.12611e-06
1.28719e-07
7.3015e-07
-5.2137e-07
-1.22138e-06
6.22576e-08
-0.000276496
1.53192e-06
1.49713e-06
-4.78676e-07
-4.84379e-07
0.00027443
-8.02074e-07
-8.02679e-07
-0.0011524
4.28313e-07
4.28984e-07
0.00115315
-0.00114065
-1.4937e-06
8.02576e-07
3.99618e-07
0.00114104
-4.71101e-07
1.13697e-06
1.36444e-07
7.36534e-07
-5.0269e-07
-1.20382e-06
6.55573e-08
-0.00114028
-1.48806e-06
8.02375e-07
3.99459e-07
0.00114068
-4.68249e-07
1.13134e-06
1.33598e-07
7.36456e-07
-5.05218e-07
-1.2036e-06
6.84791e-08
-0.000276511
1.52296e-06
1.48822e-06
-4.65221e-07
-4.70883e-07
0.000274436
-7.79984e-07
-7.80518e-07
-0.00115536
4.18541e-07
4.19208e-07
0.00115608
-0.00114215
-1.48369e-06
7.80386e-07
3.92257e-07
0.00114249
-4.58273e-07
1.14186e-06
1.40994e-07
7.42818e-07
-4.86661e-07
-1.18575e-06
7.19545e-08
-0.00114178
-1.47807e-06
7.80214e-07
3.92123e-07
0.00114213
-4.55444e-07
1.13621e-06
1.38145e-07
7.4274e-07
-4.892e-07
-1.18553e-06
7.48515e-08
-0.000276465
1.51299e-06
1.47825e-06
-4.51489e-07
-4.57109e-07
0.000274382
-7.57398e-07
-7.57865e-07
-0.00115821
4.08643e-07
4.0932e-07
0.00115891
-0.00114345
-1.47265e-06
7.57786e-07
3.84447e-07
0.00114374
-4.45538e-07
1.14665e-06
1.45558e-07
7.49127e-07
-4.71007e-07
-1.16761e-06
7.84224e-08
-0.00114308
-1.46703e-06
7.57643e-07
3.84334e-07
0.00114338
-4.42719e-07
1.14099e-06
1.42696e-07
7.49042e-07
-4.73549e-07
-1.1674e-06
8.1306e-08
-0.000276365
1.50197e-06
1.46722e-06
-4.37468e-07
-4.43062e-07
0.000274276
-7.34769e-07
-7.35192e-07
-0.00116096
3.99108e-07
3.99772e-07
0.00116163
-0.00114455
-1.46085e-06
7.35102e-07
3.76091e-07
0.0011448
-4.33138e-07
1.15133e-06
1.5001e-07
7.55462e-07
-4.55771e-07
-1.14959e-06
8.49572e-08
-0.00114419
-1.45522e-06
7.34948e-07
3.75959e-07
0.00114444
-4.30304e-07
1.14568e-06
1.47173e-07
7.55367e-07
-4.58312e-07
-1.14939e-06
8.78315e-08
-0.000276219
1.49017e-06
1.4554e-06
-4.2344e-07
-4.29012e-07
0.000274125
-7.11991e-07
-7.12378e-07
-0.0011636
3.89868e-07
3.90512e-07
0.00116425
-0.00114547
-1.4484e-06
7.12289e-07
3.66697e-07
0.00114567
-4.20976e-07
1.15603e-06
1.54497e-07
7.61774e-07
-4.40974e-07
-1.13187e-06
9.15387e-08
-0.0011451
-1.44278e-06
7.12162e-07
3.66606e-07
0.0011453
-4.18158e-07
1.15038e-06
1.51646e-07
7.61668e-07
-4.43518e-07
-1.13168e-06
9.43988e-08
-0.000276033
1.47775e-06
1.44297e-06
-4.09526e-07
-4.15077e-07
0.000273937
-6.89245e-07
-6.89586e-07
-0.00116614
3.81029e-07
3.81684e-07
0.00116676
-0.0011462
-1.43559e-06
6.8953e-07
3.56386e-07
0.00114635
-4.09142e-07
1.16069e-06
1.58994e-07
7.68013e-07
-4.26668e-07
-1.1146e-06
9.81115e-08
-0.00114583
-1.42994e-06
6.89373e-07
3.5627e-07
0.00114599
-4.06307e-07
1.15505e-06
1.56161e-07
7.67895e-07
-4.29214e-07
-1.11442e-06
1.00961e-07
-0.000275818
1.46488e-06
1.4301e-06
-3.95869e-07
-4.01399e-07
0.00027372
-6.66382e-07
-6.66691e-07
-0.00116856
3.72516e-07
3.73146e-07
0.00116915
-0.00114675
-1.42252e-06
6.6666e-07
3.44867e-07
0.00114686
-3.97596e-07
1.16533e-06
1.63498e-07
7.74162e-07
-4.1283e-07
-1.0979e-06
1.04691e-07
-0.00114638
-1.41687e-06
6.66511e-07
3.44726e-07
0.0011465
-3.94752e-07
1.15972e-06
1.6069e-07
7.74037e-07
-4.15379e-07
-1.09772e-06
1.07529e-07
-0.000275579
1.4518e-06
1.41702e-06
-3.82609e-07
-3.88118e-07
0.000273481
-6.43379e-07
-6.43629e-07
-0.00117087
3.64356e-07
3.64937e-07
0.00117142
-0.00114714
-1.40937e-06
6.43547e-07
3.3201e-07
0.00114721
-3.86273e-07
1.16999e-06
1.68148e-07
7.80226e-07
-3.99486e-07
-1.08173e-06
1.1122e-07
-0.00114677
-1.40375e-06
6.43404e-07
3.31899e-07
0.00114684
-3.83447e-07
1.16438e-06
1.65338e-07
7.80099e-07
-4.02035e-07
-1.08155e-06
1.14048e-07
-0.000275324
1.43869e-06
1.40392e-06
-3.69843e-07
-3.75333e-07
0.000273226
-6.20046e-07
-6.20242e-07
-0.00117305
3.55972e-07
3.56626e-07
0.00117358
-0.00114737
-1.39646e-06
6.20241e-07
3.18796e-07
0.0011474
-3.75409e-07
1.17445e-06
1.72677e-07
7.86151e-07
-3.86641e-07
-1.06619e-06
1.17652e-07
-0.001147
-1.39082e-06
6.20036e-07
3.18623e-07
0.00114703
-3.72579e-07
1.16884e-06
1.69871e-07
7.86027e-07
-3.89175e-07
-1.06601e-06
1.20484e-07
-0.000275059
1.42573e-06
1.39098e-06
-3.57666e-07
-3.63132e-07
0.000272963
-5.95944e-07
-5.96233e-07
-0.00117512
3.47415e-07
3.47974e-07
0.00117561
-0.00114745
-1.38368e-06
5.96167e-07
3.0418e-07
0.00114746
-3.64845e-07
1.17889e-06
1.77262e-07
7.92008e-07
-3.74217e-07
-1.05123e-06
1.24112e-07
-0.00114709
-1.37808e-06
5.96116e-07
3.04106e-07
0.00114709
-3.62024e-07
1.17326e-06
1.74455e-07
7.91871e-07
-3.76779e-07
-1.05107e-06
1.26881e-07
-0.000274789
1.41296e-06
1.37821e-06
-3.45997e-07
-3.51478e-07
0.000272695
-5.72374e-07
-5.72609e-07
-0.00117706
3.39631e-07
3.40235e-07
0.00117752
-0.00114741
-1.37133e-06
5.72547e-07
2.88581e-07
0.00114739
-3.54667e-07
1.18307e-06
1.81849e-07
7.97603e-07
-3.62336e-07
-1.037e-06
1.3035e-07
-0.00114705
-1.36572e-06
5.72413e-07
2.88403e-07
0.00114702
-3.51845e-07
1.17746e-06
1.79049e-07
7.97481e-07
-3.64894e-07
-1.03683e-06
1.33128e-07
-0.000274518
1.40061e-06
1.36586e-06
-3.35021e-07
-3.40463e-07
0.000272427
-5.48242e-07
-5.48477e-07
-0.00117887
3.31605e-07
3.32191e-07
0.0011793
-0.00114726
-1.35924e-06
5.48486e-07
2.71556e-07
0.0011472
-3.44634e-07
1.18719e-06
1.86559e-07
8.02938e-07
-3.50956e-07
-1.02351e-06
1.36438e-07
-0.00114689
-1.35362e-06
5.48356e-07
2.71463e-07
0.00114684
-3.41813e-07
1.18159e-06
1.83769e-07
8.02807e-07
-3.53524e-07
-1.02334e-06
1.392e-07
-0.000274249
1.38846e-06
1.35374e-06
-3.24467e-07
-3.2989e-07
0.000272161
-5.24326e-07
-5.24585e-07
-0.00118055
3.23933e-07
3.24512e-07
0.00118095
-0.001147
-1.34775e-06
5.2454e-07
2.54584e-07
0.00114693
-3.35067e-07
1.191e-06
1.91117e-07
8.08049e-07
-3.40143e-07
-1.01069e-06
1.42264e-07
-0.00114664
-1.34214e-06
5.24414e-07
2.54463e-07
0.00114656
-3.32255e-07
1.1854e-06
1.8832e-07
8.07903e-07
-3.42704e-07
-1.01053e-06
1.45025e-07
-0.000273985
1.37698e-06
1.34228e-06
-3.14659e-07
-3.20076e-07
0.000271901
-4.99909e-07
-5.0008e-07
-0.00118211
3.15899e-07
3.16476e-07
0.00118247
-0.00114666
-1.3366e-06
5.00075e-07
2.36873e-07
0.00114656
-3.25839e-07
1.19471e-06
1.95552e-07
8.12923e-07
-3.29799e-07
-9.98532e-07
1.47921e-07
-0.00114629
-1.33098e-06
4.99957e-07
2.36725e-07
0.0011462
-3.23022e-07
1.18912e-06
1.92759e-07
8.12766e-07
-3.32339e-07
-9.98379e-07
1.50688e-07
-0.000273728
1.3658e-06
1.33112e-06
-3.05266e-07
-3.1067e-07
0.000271647
-4.75249e-07
-4.75428e-07
-0.00118353
3.07515e-07
3.08072e-07
0.00118386
-0.00114625
-1.32599e-06
4.75375e-07
2.18987e-07
0.00114613
-3.17091e-07
1.19817e-06
1.99762e-07
8.17561e-07
-3.19948e-07
-9.87019e-07
1.53367e-07
-0.00114588
-1.32039e-06
4.75234e-07
2.18905e-07
0.00114577
-3.14267e-07
1.19258e-06
1.96988e-07
8.17404e-07
-3.22487e-07
-9.86869e-07
1.56119e-07
-0.000273479
1.3552e-06
1.32054e-06
-2.9652e-07
-3.01901e-07
0.000271401
-4.5042e-07
-4.50557e-07
-0.00118482
2.98841e-07
2.99465e-07
0.00118512
-0.00114577
-1.31589e-06
4.50611e-07
2.01147e-07
0.00114565
-3.08782e-07
1.20141e-06
2.03773e-07
8.22029e-07
-3.10513e-07
-9.76065e-07
1.58639e-07
-0.00114541
-1.31028e-06
4.50374e-07
2.01012e-07
0.00114528
-3.05962e-07
1.19584e-06
2.01002e-07
8.21885e-07
-3.13073e-07
-9.75907e-07
1.61378e-07
-0.000273238
1.34506e-06
1.31043e-06
-2.88221e-07
-2.93587e-07
0.000271164
-4.25203e-07
-4.25327e-07
-0.00118598
2.89728e-07
2.90289e-07
0.00118625
-0.00114525
-1.30629e-06
4.25327e-07
1.83635e-07
0.00114512
-3.00883e-07
1.20444e-06
2.076e-07
8.26263e-07
-3.01536e-07
-9.65705e-07
1.63676e-07
-0.00114488
-1.30069e-06
4.25173e-07
1.83571e-07
0.00114475
-2.98072e-07
1.19888e-06
2.04828e-07
8.26115e-07
-3.04109e-07
-9.65549e-07
1.66404e-07
-0.000273007
1.33545e-06
1.30083e-06
-2.80468e-07
-2.85827e-07
0.000270937
-3.99622e-07
-4.11166e-07
-0.00118701
2.79865e-07
2.80313e-07
0.00118726
-0.0011447
-1.29725e-06
3.99644e-07
1.66699e-07
0.00114455
-2.93435e-07
1.20722e-06
2.11122e-07
8.30322e-07
-2.92995e-07
-9.5589e-07
1.68494e-07
-0.00114433
-1.29164e-06
3.99502e-07
1.66618e-07
0.00114418
-2.90667e-07
1.20164e-06
2.08367e-07
8.3017e-07
-2.95573e-07
-9.55742e-07
1.71218e-07
-0.000272785
1.3264e-06
1.2918e-06
-2.73247e-07
-2.78595e-07
0.000270718
-3.73823e-07
-3.73928e-07
-0.00118793
2.6935e-07
2.69811e-07
0.00118814
-0.00114411
-1.28874e-06
3.73895e-07
1.50653e-07
0.00114396
-2.8375e-07
1.20974e-06
2.11624e-07
8.34225e-07
-2.84866e-07
-9.4658e-07
1.73071e-07
-0.00114374
-1.28312e-06
3.73779e-07
1.50526e-07
0.00114359
-2.83691e-07
1.20418e-06
2.11686e-07
8.34058e-07
-2.87471e-07
-9.4644e-07
1.75803e-07
-0.000272573
1.31783e-06
1.28327e-06
-2.66493e-07
-2.71829e-07
0.00027051
-3.47763e-07
-3.47934e-07
-0.00118872
2.58186e-07
2.58539e-07
0.0011889
-0.00114351
-1.28067e-06
3.47791e-07
1.35071e-07
0.00114336
-2.77184e-07
1.21209e-06
2.14717e-07
8.37957e-07
-2.77141e-07
-9.37746e-07
1.77464e-07
-0.00114314
-1.27507e-06
3.47687e-07
1.3494e-07
0.00114299
-2.77139e-07
1.20651e-06
2.14761e-07
8.3778e-07
-2.79754e-07
-9.37622e-07
1.80192e-07
-0.000272371
1.30978e-06
1.27523e-06
-2.60208e-07
-2.65542e-07
0.000270311
-3.2178e-07
-3.21819e-07
-0.00118939
2.46162e-07
2.46653e-07
0.00118955
-0.0011429
-1.27313e-06
3.21783e-07
1.20509e-07
0.00114274
-2.71084e-07
1.21418e-06
2.17521e-07
8.4153e-07
-2.69811e-07
-9.29388e-07
1.81658e-07
-0.00114253
-1.26756e-06
3.21627e-07
1.20421e-07
0.00114237
-2.71061e-07
1.20858e-06
2.17541e-07
8.41374e-07
-2.72408e-07
-9.29246e-07
1.84396e-07
-0.000272178
1.30225e-06
1.26772e-06
-2.54393e-07
-2.59711e-07
0.000270123
-2.9576e-07
-2.95814e-07
-0.00118996
2.33732e-07
2.34174e-07
0.00119008
-0.00114228
-1.26606e-06
2.95722e-07
1.06821e-07
0.00114213
-2.65379e-07
1.21607e-06
2.201e-07
8.44928e-07
-2.62856e-07
-9.21474e-07
1.85639e-07
-0.00114191
-1.26048e-06
2.9566e-07
1.06776e-07
0.00114176
-2.65334e-07
1.21049e-06
2.20143e-07
8.4476e-07
-2.6547e-07
-9.21347e-07
1.88354e-07
-0.000271996
1.29515e-06
1.26061e-06
-2.4896e-07
-2.54286e-07
0.000269943
-2.69794e-07
-2.69655e-07
-0.00119041
2.19997e-07
2.20567e-07
0.00119051
-0.00114167
-1.25948e-06
2.6989e-07
9.41428e-08
0.00114152
-2.60118e-07
1.21771e-06
2.224e-07
8.48128e-07
-2.56293e-07
-9.14028e-07
1.89394e-07
-0.0011413
-1.2539e-06
2.69743e-07
9.39684e-08
0.00114115
-2.60071e-07
1.21215e-06
2.22446e-07
8.47974e-07
-2.58888e-07
-9.13895e-07
1.92131e-07
-0.000271823
1.28854e-06
1.25405e-06
-2.44012e-07
-2.49302e-07
0.000269774
-2.44573e-07
-2.4431e-07
-0.00119077
2.06515e-07
2.07177e-07
0.00119085
-0.00114107
-1.25331e-06
2.44334e-07
8.2393e-08
0.00114092
-2.55186e-07
1.21922e-06
2.24536e-07
8.51238e-07
-2.50037e-07
-9.06924e-07
1.93012e-07
-0.0011407
-1.24776e-06
2.44128e-07
8.23034e-08
0.00114055
-2.55156e-07
1.21365e-06
2.24574e-07
8.5109e-07
-2.52639e-07
-9.06792e-07
1.95738e-07
-0.000271661
1.28237e-06
1.2479e-06
-2.39398e-07
-2.44684e-07
0.000269614
5.22146e-06
5.23231e-06
0.000260567
-0.000259171
-5.93189e-06
-5.91777e-06
5.08158e-06
0.000261409
-0.000258686
-5.96204e-06
3.37916e-06
-5.22153e-06
5.07656e-06
0.000261442
-0.000258702
-5.97005e-06
3.37432e-06
5.22214e-06
0.000260579
-0.000259173
-5.90328e-06
-5.94651e-06
5.07467e-06
0.000261473
-0.000258717
-5.96755e-06
3.369e-06
5.0814e-06
-5.22378e-06
0.000261417
-0.000258686
3.38421e-06
-5.97225e-06
1.07111e-05
1.06174e-05
-0.000252649
-0.000256079
-0.000255118
-0.000255118
-6.41734e-06
-4.12515e-06
-6.6623e-06
-6.41771e-06
-4.12609e-06
-6.66784e-06
-5.06963e-06
0.00104223
1.06707e-05
1.06227e-05
-0.000252651
-0.000256076
-0.000255121
-0.000255121
-6.41996e-06
-4.12544e-06
-6.66504e-06
-6.41517e-06
-4.12087e-06
-6.66025e-06
-5.06927e-06
0.00104211
1.0731e-05
1.06833e-05
-0.000252643
-0.000256071
-0.000255118
-0.000255113
-6.41981e-06
-4.13282e-06
-6.66497e-06
-6.42001e-06
-4.12309e-06
-6.66258e-06
-5.08397e-06
-5.07209e-06
0.00104217
1.07263e-05
1.06276e-05
-0.000252646
-0.000256074
-0.000255118
-0.000255118
-6.4147e-06
-4.12777e-06
-6.65997e-06
-6.42014e-06
-4.12593e-06
-6.6653e-06
-0.000258712
-5.95991e-06
3.36395e-06
-5.22138e-06
0.000261404
-0.000258684
3.37919e-06
-5.96198e-06
5.22453e-06
0.000260559
-0.000259158
-5.9056e-06
-5.94373e-06
-0.000258697
3.37148e-06
-5.95704e-06
-5.23228e-06
0.000261471
-0.000258712
3.36649e-06
-5.96502e-06
-0.000259168
-5.93177e-06
-5.9178e-06
5.61757e-06
5.65479e-06
-4.87838e-06
-4.87223e-06
0.000259045
-7.80481e-07
-7.44603e-07
0.000261544
-0.000259462
-2.82245e-07
-2.74852e-07
7.09202e-06
0.00105882
-4.53008e-06
-1.57833e-06
-2.21273e-06
-2.57666e-06
-6.60588e-06
-7.05009e-06
-3.17074e-06
-0.000263264
-0.000259684
-0.000262793
-5.62803e-06
1.4555e-05
7.03143e-06
0.00105919
-4.54921e-06
-1.57072e-06
-2.21587e-06
-2.58757e-06
-6.6374e-06
-7.067e-06
-3.18641e-06
-0.000263338
-0.000259715
-0.000262834
0.00106192
2.02401e-06
-0.00106086
9.73752e-07
-1.71809e-06
-1.69108e-07
-6.92239e-07
-1.46543e-06
-3.07558e-07
-8.28052e-07
3.43222e-07
7.88562e-07
0.00106234
2.02437e-06
-0.00106128
9.68688e-07
-1.7285e-06
-1.61614e-07
-6.97736e-07
-1.47114e-06
-3.07707e-07
-8.28418e-07
3.48638e-07
-4.87646e-06
-4.86912e-06
0.000259055
-7.47276e-07
0.000261569
-0.000259482
-2.796e-07
-2.71986e-07
6.81326e-06
0.00105966
-4.55437e-06
-1.63766e-06
-2.22893e-06
-2.58587e-06
-6.61991e-06
-7.06238e-06
-3.18164e-06
-0.000263359
-0.000259742
-0.000262847
-5.62773e-06
1.45894e-05
7.12547e-06
0.00105896
-4.54903e-06
-1.58079e-06
-2.2209e-06
-2.58953e-06
-6.6367e-06
-7.06587e-06
-3.18603e-06
-0.000259684
-0.000263315
-0.000262806
0.00106294
2.03159e-06
-0.00106187
9.6225e-07
-1.68817e-06
-1.71616e-07
-6.92516e-07
-1.46847e-06
-3.07669e-07
-8.25819e-07
3.45597e-07
7.77941e-07
0.00106203
2.0346e-06
-0.00106099
9.84064e-07
-1.71815e-06
-1.6666e-07
-6.92435e-07
-1.46825e-06
-3.0509e-07
-8.30807e-07
3.43167e-07
1.45864e-05
7.11279e-06
0.00105877
-4.53002e-06
-1.57822e-06
-2.2101e-06
-2.57669e-06
-6.60589e-06
-3.17079e-06
-7.04777e-06
-0.000259679
-0.000263259
-0.000262788
2.03091e-06
-0.00106161
9.67484e-07
-1.68807e-06
-1.68945e-07
-6.89596e-07
-1.46576e-06
-3.10041e-07
3.40406e-07
-8.25542e-07
7.77918e-07
0.00106182
2.03422e-06
-0.00106078
9.84099e-07
-1.71806e-06
-1.66541e-07
-6.92195e-07
-1.46811e-06
-3.07531e-07
-8.28006e-07
3.45756e-07
-4.88128e-06
-4.8689e-06
0.000259035
-7.39134e-07
0.000261521
-0.000259444
-2.82648e-07
-2.77214e-07
1.44875e-05
6.83175e-06
0.00105961
-4.55451e-06
-1.63767e-06
-2.22898e-06
-2.5857e-06
-6.61978e-06
-3.18154e-06
-7.05965e-06
-0.000259732
-0.000263356
-0.000262842
2.03595e-06
-0.00106131
9.83007e-07
-1.68559e-06
-1.71494e-07
-6.92267e-07
-1.46262e-06
-3.05022e-07
3.4045e-07
-8.28068e-07
7.39229e-07
0.00106284
2.03659e-06
-0.00106179
9.72566e-07
-1.68313e-06
-1.71644e-07
-6.89939e-07
-1.4657e-06
-3.07509e-07
-8.28234e-07
3.40606e-07
-0.000259459
-2.79777e-07
-2.77426e-07
1.63935e-06
1.60415e-06
-7.10561e-07
-7.19032e-07
0.00025973
-8.66329e-07
-8.27635e-07
0.000262778
-0.000260667
-2.12633e-07
-2.0506e-07
8.29639e-07
0.00106319
-6.56443e-07
8.17758e-07
-1.43303e-07
3.78168e-07
-8.00555e-07
-1.39714e-06
-2.90471e-07
-1.64463e-06
1.63226e-06
8.24416e-07
0.00106362
-6.59296e-07
8.25832e-07
-1.43307e-07
3.83592e-07
-8.03529e-07
-1.40283e-06
-2.88165e-07
0.00106713
1.38301e-06
-0.0010658
7.02155e-07
-1.59182e-06
-1.03508e-07
-6.28664e-07
-1.35465e-06
-2.49023e-07
-7.76781e-07
4.22403e-07
8.71698e-07
0.00106757
1.38328e-06
-0.00106623
6.97077e-07
-1.59715e-06
-1.03612e-07
-6.28894e-07
-1.35764e-06
-2.49141e-07
-7.77132e-07
4.25206e-07
-7.11053e-07
-7.18361e-07
0.000259748
-8.32897e-07
0.000262804
-0.000260679
-2.12662e-07
-2.07549e-07
8.23145e-07
0.00106421
-6.5408e-07
7.81857e-07
-1.45758e-07
3.80614e-07
-8.03597e-07
-1.40027e-06
-2.88114e-07
-1.63935e-06
1.63748e-06
8.29699e-07
0.0010633
-6.59279e-07
8.17861e-07
-1.43344e-07
3.78182e-07
-8.03265e-07
-1.39733e-06
-2.87989e-07
0.00106816
1.38438e-06
-0.00106684
7.01115e-07
-1.55391e-06
-1.08441e-07
-6.23661e-07
-1.35235e-06
-2.46598e-07
-7.77122e-07
4.25057e-07
8.61116e-07
0.00106725
1.38304e-06
-0.00106591
7.02235e-07
-1.58922e-06
-1.06073e-07
-6.28801e-07
-1.35478e-06
-2.48995e-07
-7.7684e-07
4.25175e-07
1.63205e-06
8.29733e-07
0.0010631
-6.59066e-07
8.15185e-07
-1.45744e-07
3.78104e-07
-8.03181e-07
-2.88027e-07
-1.39723e-06
1.38399e-06
-0.00106657
7.06471e-07
-1.56169e-06
-1.10847e-07
-6.23507e-07
-1.35226e-06
-2.46623e-07
4.24922e-07
-7.76928e-07
8.63704e-07
0.00106704
1.37773e-06
-0.0010657
7.02255e-07
-1.58914e-06
-1.0597e-07
-6.28626e-07
-1.35472e-06
-2.49052e-07
-7.76781e-07
4.22418e-07
-7.1382e-07
-7.15802e-07
0.000259709
-8.24832e-07
0.000262753
-0.000260646
-2.12847e-07
-2.07501e-07
1.63355e-06
8.18033e-07
0.00106413
-6.54137e-07
7.76438e-07
-1.50873e-07
3.75479e-07
-8.00812e-07
-2.92947e-07
-1.39476e-06
1.38398e-06
-0.00106625
7.01387e-07
-1.55117e-06
-1.10845e-07
-6.23457e-07
-1.34669e-06
-2.49036e-07
4.16861e-07
-7.76854e-07
8.27498e-07
0.00106807
1.38438e-06
-0.00106674
7.01192e-07
-1.55136e-06
-1.11017e-07
-6.23724e-07
-1.35493e-06
-2.49048e-07
-7.79711e-07
4.22393e-07
-0.000260654
-2.12739e-07
-2.07655e-07
1.58995e-06
1.55721e-06
-6.72225e-07
-6.8056e-07
0.000260984
-8.90508e-07
-8.54297e-07
0.00026406
-0.000261937
-1.91569e-07
-1.86509e-07
6.91217e-07
0.00106848
-6.29677e-07
8.72072e-07
-9.92463e-08
4.24535e-07
-7.77661e-07
-1.35445e-06
-2.47566e-07
-1.59532e-06
1.36146e-06
7.01848e-07
0.00106891
-6.29902e-07
8.77476e-07
-9.93259e-08
4.30072e-07
-7.8062e-07
-1.36007e-06
-2.42701e-07
0.00107249
1.34952e-06
-0.00107117
6.75819e-07
-1.58991e-06
-8.54848e-08
-6.24936e-07
-1.36699e-06
-2.29956e-07
-7.78115e-07
4.33828e-07
8.95929e-07
0.00107292
1.34982e-06
-0.00107159
6.76038e-07
-1.59525e-06
-8.31131e-08
-6.27752e-07
-1.37531e-06
-2.25029e-07
-7.83694e-07
4.42087e-07
-6.75279e-07
-6.77491e-07
0.000261005
-8.56941e-07
0.000264088
-0.000261963
-1.89015e-07
-1.83813e-07
6.90228e-07
0.00106952
-6.27335e-07
8.35991e-07
-1.04173e-07
4.2715e-07
-7.80593e-07
-1.36004e-06
-2.42663e-07
-1.58735e-06
1.36128e-06
6.96574e-07
0.00106859
-6.29862e-07
8.69497e-07
-9.92948e-08
4.27296e-07
-7.80297e-07
-1.35721e-06
-2.42536e-07
0.00107352
1.35084e-06
-0.0010722
6.74829e-07
-1.55439e-06
-8.79214e-08
-6.22539e-07
-1.36993e-06
-2.25017e-07
-7.8368e-07
4.36494e-07
8.9055e-07
0.0010726
1.34962e-06
-0.00107127
6.75987e-07
-1.58992e-06
-8.31113e-08
-6.27694e-07
-1.36969e-06
-2.24859e-07
-7.83382e-07
4.36611e-07
1.36625e-06
6.91328e-07
0.00106839
-6.27005e-07
8.66813e-07
-1.0414e-07
4.27177e-07
-7.80252e-07
-2.45108e-07
-1.35716e-06
1.35051e-06
-0.00107193
6.74953e-07
-1.55695e-06
-8.78621e-08
-6.22327e-07
-1.36724e-06
-2.27515e-07
4.33716e-07
-7.80937e-07
8.85183e-07
0.0010724
1.34944e-06
-0.00107107
6.75941e-07
-1.58464e-06
-8.79437e-08
-6.22246e-07
-1.36705e-06
-2.27462e-07
-7.80691e-07
4.33838e-07
-6.75379e-07
-6.80019e-07
0.000260969
-8.51504e-07
0.000264039
-0.000261921
-1.91738e-07
-1.83855e-07
1.36252e-06
6.95523e-07
0.00106942
-6.22098e-07
8.2796e-07
-1.0915e-07
4.24566e-07
-7.77913e-07
-2.45121e-07
-1.35476e-06
1.35041e-06
-0.0010716
6.75035e-07
-1.55164e-06
-9.0357e-08
-6.19633e-07
-1.36695e-06
-2.2496e-07
4.33723e-07
-7.83418e-07
8.51522e-07
0.00107344
1.35086e-06
-0.00107211
6.74885e-07
-1.55187e-06
-9.0455e-08
-6.1999e-07
-1.36467e-06
-2.27474e-07
-7.80979e-07
4.31215e-07
-0.000261934
-1.8912e-07
-1.83925e-07
1.58855e-06
1.55298e-06