/*--------------------------------*- C++ -*----------------------------------*\
| =========                 |                                                 |
| \\      /  F ield         | OpenFOAM: The Open Source CFD Toolbox           |
|  \\    /   O peration     | Version:  v2012                                 |
|   \\  /    A nd           | Website:  www.openfoam.com                      |
|    \\/     M anipulation  |                                                 |
\*---------------------------------------------------------------------------*/
FoamFile
{
    version     2.0;
    format      ascii;
    class       volVectorField;
    location    "750";
    object      U;
}
// * * * * * * * * * * * * * * * * * * * * * * * * * * * * * * * * * * * * * //

dimensions      [0 1 -1 0 0 0 0];


internalField   nonuniform List<vector> 
85864
(
(0.000107958 0.000107892 0.100299)
(-0.000190195 0.00011927 0.100385)
(0.000119341 -0.000190187 0.100385)
(-0.000239594 -0.000239612 0.100397)
(9.42792e-05 9.42318e-05 0.10086)
(-0.000158939 9.68064e-05 0.100942)
(9.68112e-05 -0.000158935 0.100942)
(-0.000201047 -0.000201099 0.100968)
(9.54246e-05 9.54125e-05 0.10137)
(-0.000155796 9.34672e-05 0.101449)
(9.34564e-05 -0.000155803 0.101449)
(-0.000201987 -0.000202039 0.101471)
(9.38838e-05 9.38743e-05 0.101892)
(-0.000152046 9.00868e-05 0.101957)
(9.00992e-05 -0.000152051 0.101957)
(-0.000198924 -0.000198969 0.101964)
(9.11286e-05 9.11269e-05 0.102398)
(-0.000146289 8.55705e-05 0.102446)
(8.5585e-05 -0.000146294 0.102446)
(-0.000193569 -0.000193617 0.102432)
(8.81498e-05 8.81553e-05 0.102885)
(-0.000140623 8.15992e-05 0.102912)
(8.16159e-05 -0.000140629 0.102912)
(-0.000188197 -0.000188246 0.10287)
(8.5317e-05 8.53331e-05 0.103353)
(-0.000135492 7.83916e-05 0.103354)
(7.84259e-05 -0.000135502 0.103354)
(-0.000183713 -0.000183766 0.103281)
(8.28413e-05 8.28528e-05 0.103803)
(-0.000131057 7.59324e-05 0.103774)
(7.59765e-05 -0.000131066 0.103774)
(-0.000180197 -0.000180278 0.103664)
(8.06322e-05 8.05947e-05 0.104237)
(-0.000127324 7.42351e-05 0.104174)
(7.4231e-05 -0.000127315 0.104174)
(-0.000178032 -0.000178071 0.104023)
(7.87244e-05 7.86986e-05 0.104658)
(-0.000124094 7.28986e-05 0.104557)
(7.28945e-05 -0.000124085 0.104557)
(-0.000176891 -0.000176944 0.104358)
(7.70838e-05 7.70655e-05 0.105066)
(-0.000121268 7.17505e-05 0.104924)
(7.17552e-05 -0.000121259 0.104924)
(-0.000176283 -0.000176347 0.104673)
(7.55909e-05 7.55744e-05 0.105464)
(-0.000118704 7.06267e-05 0.105277)
(7.0642e-05 -0.000118701 0.105277)
(-0.000175845 -0.000175918 0.104967)
(7.41434e-05 7.41327e-05 0.105851)
(-0.000116273 6.94605e-05 0.105615)
(6.94732e-05 -0.000116262 0.105615)
(-0.000175505 -0.000175611 0.105239)
(7.2738e-05 7.27341e-05 0.106229)
(-0.000113884 6.82286e-05 0.105938)
(6.82215e-05 -0.000113868 0.105938)
(-0.000175222 -0.000175237 0.105491)
(7.13392e-05 7.13317e-05 0.106597)
(-0.000111583 6.71764e-05 0.106248)
(6.71469e-05 -0.000111554 0.106248)
(-0.000174392 -0.000174413 0.10572)
(6.98863e-05 6.98908e-05 0.106957)
(-0.000109427 6.61418e-05 0.106543)
(6.61282e-05 -0.000109471 0.106543)
(-0.000173316 -0.000173347 0.105926)
(6.83477e-05 6.83522e-05 0.107308)
(-0.000107405 6.50833e-05 0.106822)
(6.5067e-05 -0.000107443 0.106822)
(-0.000172044 -0.000172081 0.106108)
(6.68328e-05 6.68417e-05 0.107649)
(-0.000105396 6.40125e-05 0.107086)
(6.39927e-05 -0.000105408 0.107086)
(-0.000170361 -0.000170408 0.106264)
(6.53541e-05 6.53706e-05 0.107982)
(-0.000103531 6.29601e-05 0.107334)
(6.29254e-05 -0.000103527 0.107334)
(-0.000168221 -0.000168264 0.106394)
(6.38181e-05 6.38303e-05 0.108306)
(-0.000101579 6.18833e-05 0.107565)
(6.18747e-05 -0.000101581 0.107565)
(-0.000165578 -0.000165628 0.106497)
(6.22906e-05 6.23138e-05 0.108622)
(-9.95586e-05 6.08787e-05 0.107779)
(6.08566e-05 -9.95534e-05 0.107779)
(-0.000162337 -0.000162387 0.106572)
(6.08135e-05 6.08487e-05 0.108928)
(-9.73537e-05 5.98261e-05 0.107975)
(5.98217e-05 -9.73521e-05 0.107974)
(-0.000158446 -0.000158495 0.106621)
(5.93602e-05 5.9381e-05 0.109226)
(-9.49565e-05 5.88113e-05 0.108152)
(5.87605e-05 -9.49539e-05 0.108152)
(-0.000154067 -0.00015413 0.106644)
(5.78817e-05 5.78943e-05 0.109515)
(-9.25301e-05 5.77991e-05 0.108311)
(5.7763e-05 -9.25151e-05 0.108311)
(-0.000149379 -0.000149413 0.106643)
(5.63758e-05 5.63902e-05 0.109794)
(-8.99055e-05 5.67361e-05 0.108451)
(5.67053e-05 -8.98942e-05 0.108451)
(-0.000144277 -0.000144298 0.106619)
(5.48977e-05 5.49145e-05 0.110064)
(-8.70768e-05 5.55178e-05 0.108572)
(5.549e-05 -8.707e-05 0.108572)
(-0.000138802 -0.000138821 0.106575)
(5.351e-05 5.35272e-05 0.110324)
(-8.40923e-05 5.41456e-05 0.108675)
(5.41158e-05 -8.40849e-05 0.108675)
(-0.000133093 -0.000133113 0.106515)
(5.2199e-05 5.22161e-05 0.110574)
(-8.09615e-05 5.25749e-05 0.10876)
(5.25515e-05 -8.09579e-05 0.108759)
(-0.00012724 -0.000127261 0.10644)
(5.09678e-05 5.09865e-05 0.110813)
(-7.77043e-05 5.08271e-05 0.108827)
(5.08023e-05 -7.77e-05 0.108826)
(-0.000121341 -0.000121361 0.106355)
(4.97882e-05 4.98055e-05 0.111042)
(-7.4326e-05 4.88943e-05 0.108877)
(4.88662e-05 -7.43231e-05 0.108877)
(-0.000115498 -0.000115517 0.106261)
(4.86322e-05 4.86462e-05 0.11126)
(-7.08236e-05 4.67661e-05 0.108912)
(4.67412e-05 -7.08216e-05 0.108911)
(-0.000109787 -0.000109808 0.106162)
(4.74225e-05 4.74425e-05 0.111466)
(-6.7204e-05 4.45257e-05 0.108932)
(4.44982e-05 -6.71999e-05 0.108931)
(-0.000104281 -0.000104295 0.10606)
(4.62356e-05 4.62492e-05 0.111661)
(-6.35413e-05 4.21768e-05 0.108939)
(4.21489e-05 -6.35442e-05 0.108938)
(-9.89622e-05 -9.89874e-05 0.105956)
(4.51937e-05 4.52121e-05 0.111843)
(-5.99777e-05 3.97741e-05 0.108933)
(3.97387e-05 -5.9968e-05 0.108933)
(-9.39221e-05 -9.39571e-05 0.105852)
(4.41334e-05 4.41525e-05 0.112014)
(-5.64442e-05 3.72438e-05 0.108917)
(3.722e-05 -5.64354e-05 0.108917)
(-8.9088e-05 -8.9116e-05 0.10575)
(4.31034e-05 4.31231e-05 0.112172)
(-5.29756e-05 3.4761e-05 0.108892)
(3.47359e-05 -5.29734e-05 0.108891)
(-8.45901e-05 -8.462e-05 0.10565)
(4.19995e-05 4.20192e-05 0.112318)
(-4.95298e-05 3.22408e-05 0.108859)
(3.22143e-05 -4.95299e-05 0.108858)
(-8.02794e-05 -8.03091e-05 0.105553)
(4.08187e-05 4.0838e-05 0.112452)
(-4.61539e-05 2.97615e-05 0.108819)
(2.97436e-05 -4.61391e-05 0.108818)
(-7.62657e-05 -7.62893e-05 0.105458)
(3.95765e-05 3.96017e-05 0.112573)
(-4.28314e-05 2.73607e-05 0.108773)
(2.73375e-05 -4.2814e-05 0.108772)
(-7.24703e-05 -7.24892e-05 0.105368)
(3.82405e-05 3.82633e-05 0.112682)
(-3.9565e-05 2.50084e-05 0.108723)
(2.49913e-05 -3.95537e-05 0.108722)
(-6.89174e-05 -6.8937e-05 0.105281)
(3.67805e-05 3.67962e-05 0.112779)
(-3.63755e-05 2.27464e-05 0.10867)
(2.27289e-05 -3.6364e-05 0.108669)
(-6.56107e-05 -6.56285e-05 0.105197)
(3.52168e-05 3.52376e-05 0.112864)
(-3.32712e-05 2.0604e-05 0.108614)
(2.05839e-05 -3.32612e-05 0.108613)
(-6.25124e-05 -6.25282e-05 0.105118)
(3.35467e-05 3.35562e-05 0.112937)
(-3.02454e-05 1.85474e-05 0.108557)
(1.85293e-05 -3.02369e-05 0.108556)
(-5.96204e-05 -5.96374e-05 0.105042)
(3.17711e-05 3.17932e-05 0.113)
(-2.73212e-05 1.66292e-05 0.108498)
(1.66202e-05 -2.73095e-05 0.108497)
(-5.69336e-05 -5.69471e-05 0.10497)
(2.99245e-05 2.99412e-05 0.113052)
(-2.44942e-05 1.48241e-05 0.10844)
(1.48133e-05 -2.44959e-05 0.108439)
(-5.44078e-05 -5.44291e-05 0.104902)
(2.79553e-05 2.79855e-05 0.113094)
(-2.17981e-05 1.31488e-05 0.108382)
(1.31274e-05 -2.17913e-05 0.108381)
(-5.20957e-05 -5.21058e-05 0.104838)
(2.60127e-05 2.60521e-05 0.113127)
(-1.92226e-05 1.15889e-05 0.108325)
(1.15745e-05 -1.92117e-05 0.108324)
(-4.99293e-05 -4.99377e-05 0.104777)
(0.000134959 0.000134949 0.100282)
(0.000124249 0.000152867 0.100229)
(-0.000124241 0.000152848 0.100229)
(-0.000134956 0.000134917 0.100282)
(0.000152896 0.0001242 0.100229)
(0.000152868 -0.000124217 0.100229)
(9.08047e-05 9.0753e-05 0.100151)
(-9.07948e-05 9.07504e-05 0.100151)
(9.0779e-05 -9.07988e-05 0.100151)
(-9.07765e-05 -9.07968e-05 0.100151)
(-0.000152892 0.000124197 0.100229)
(-0.000152878 -0.000124213 0.100229)
(0.000134949 -0.000134968 0.100282)
(0.000124201 -0.000152897 0.100229)
(-0.000124198 -0.00015288 0.100229)
(-0.000134957 -0.000134941 0.100282)
(0.000239636 0.000239615 0.100397)
(0.000111304 0.000111177 0.100892)
(0.000119392 0.000190088 0.100385)
(-0.000119343 0.000190129 0.100385)
(8.91024e-05 0.000147213 0.100823)
(-8.90639e-05 0.00014721 0.100823)
(-0.000239645 0.000239563 0.100397)
(-0.000111265 0.000111146 0.100892)
(0.000190231 0.000119289 0.100385)
(0.00019017 -0.000119349 0.100385)
(0.000147189 8.90738e-05 0.100823)
(0.000147222 -8.90949e-05 0.100823)
(-0.000190151 -0.000119353 0.100385)
(-0.000147158 8.90751e-05 0.100823)
(-0.000147179 -8.9089e-05 0.100823)
(0.000239567 -0.000239657 0.100397)
(0.000111257 -0.00011127 0.100892)
(-0.000119321 -0.000190216 0.100385)
(8.90759e-05 -0.000147148 0.100823)
(-8.90554e-05 -0.000147174 0.100823)
(-0.000111253 -0.000111272 0.100892)
(0.000201136 0.000200969 0.100968)
(0.000105726 0.000105646 0.101395)
(9.68197e-05 0.000158993 0.100941)
(-9.67928e-05 0.000158989 0.100941)
(9.41998e-05 0.000156671 0.10132)
(-9.41998e-05 0.000156672 0.10132)
(-0.000201098 0.000200936 0.100967)
(-0.000105713 0.000105636 0.101395)
(0.000158972 9.68003e-05 0.100942)
(0.00015899 -9.68129e-05 0.100942)
(0.000156627 9.42041e-05 0.10132)
(0.000156667 -9.42071e-05 0.10132)
(-0.000158967 -9.68078e-05 0.100942)
(-0.000156623 9.42127e-05 0.10132)
(-0.000156645 -9.41976e-05 0.10132)
(0.000201044 -0.000201107 0.100968)
(0.000105686 -0.000105699 0.101395)
(-9.67931e-05 -0.000158961 0.100942)
(9.42007e-05 -0.000156624 0.10132)
(-9.4207e-05 -0.000156644 0.10132)
(-0.000105706 -0.000105713 0.101395)
(0.000202052 0.000201924 0.101471)
(9.66021e-05 9.65418e-05 0.101893)
(9.34493e-05 0.000155854 0.101449)
(-9.34543e-05 0.000155851 0.101449)
(9.11458e-05 0.000153335 0.101832)
(-9.11351e-05 0.000153325 0.101832)
(-0.000202044 0.000201911 0.101471)
(-9.65989e-05 9.65511e-05 0.101893)
(0.000155804 9.3463e-05 0.101449)
(0.000155845 -9.34583e-05 0.101449)
(0.000153277 9.11486e-05 0.101832)
(0.00015331 -9.11344e-05 0.101832)
(-0.000155827 -9.34518e-05 0.101449)
(-0.000153272 9.11415e-05 0.101832)
(-0.000153309 -9.11373e-05 0.101832)
(0.000201971 -0.000202047 0.101471)
(9.65779e-05 -9.66128e-05 0.101893)
(-9.34642e-05 -0.000155826 0.101449)
(9.11493e-05 -0.000153275 0.101832)
(-9.11377e-05 -0.000153284 0.101832)
(-9.66228e-05 -9.66244e-05 0.101893)
(0.000198973 0.000198871 0.101964)
(8.60706e-05 8.60304e-05 0.102366)
(9.00959e-05 0.00015211 0.101957)
(-9.00827e-05 0.000152099 0.101957)
(8.66934e-05 0.000147833 0.102326)
(-8.66815e-05 0.000147826 0.102326)
(-0.000198964 0.000198857 0.101964)
(-8.60681e-05 8.60389e-05 0.102366)
(0.000152053 9.00973e-05 0.101957)
(0.000152084 -9.00802e-05 0.101957)
(0.000147776 8.66934e-05 0.102326)
(0.000147807 -8.66721e-05 0.102326)
(-0.000152086 -9.00865e-05 0.101957)
(-0.000147771 8.66857e-05 0.102326)
(-0.000147814 -8.66816e-05 0.102326)
(0.000198877 -0.000198974 0.101964)
(8.60303e-05 -8.60635e-05 0.102366)
(-9.0086e-05 -0.000152056 0.101957)
(8.66969e-05 -0.000147773 0.102326)
(-8.66775e-05 -0.000147773 0.102326)
(-8.60667e-05 -8.60699e-05 0.102366)
(0.000193597 0.00019351 0.102432)
(7.60656e-05 7.60332e-05 0.102812)
(8.55759e-05 0.00014635 0.102446)
(-8.5568e-05 0.000146347 0.102446)
(8.25252e-05 0.000142062 0.102797)
(-8.25144e-05 0.000142064 0.102797)
(-0.000193562 0.000193467 0.102432)
(-7.60554e-05 7.60339e-05 0.102812)
(0.000146294 8.55759e-05 0.102446)
(0.000146325 -8.55577e-05 0.102446)
(0.000142005 8.25265e-05 0.102798)
(0.000142034 -8.24968e-05 0.102798)
(-0.000146333 -8.55661e-05 0.102446)
(-0.000141999 8.2522e-05 0.102798)
(-0.000142047 -8.25144e-05 0.102798)
(0.000193465 -0.000193562 0.102432)
(7.60018e-05 -7.60367e-05 0.102812)
(-8.55636e-05 -0.00014629 0.102446)
(8.25317e-05 -0.000142002 0.102798)
(-8.25101e-05 -0.000141997 0.102798)
(-7.60743e-05 -7.60776e-05 0.102812)
(0.000188202 0.000188123 0.10287)
(6.71099e-05 6.7081e-05 0.103229)
(8.16004e-05 0.000140684 0.102912)
(-8.15944e-05 0.000140692 0.102912)
(7.91293e-05 0.000136774 0.103245)
(-7.91011e-05 0.000136768 0.103245)
(-0.000188159 0.000188081 0.10287)
(-6.70718e-05 6.70393e-05 0.103229)
(0.000140628 8.16009e-05 0.102912)
(0.00014066 -8.15781e-05 0.102912)
(0.000136722 7.91325e-05 0.103245)
(0.000136747 -7.90901e-05 0.103245)
(-0.000140671 -8.15909e-05 0.102912)
(-0.00013671 7.91172e-05 0.103245)
(-0.000136765 -7.91214e-05 0.103245)
(0.000188073 -0.000188178 0.10287)
(6.70144e-05 -6.70512e-05 0.103229)
(-8.15895e-05 -0.00014062 0.102912)
(7.91397e-05 -0.000136717 0.103245)
(-7.91167e-05 -0.000136712 0.103245)
(-6.7119e-05 -6.71235e-05 0.103229)
(0.000183688 0.000183606 0.103281)
(5.91516e-05 5.91029e-05 0.10362)
(7.83966e-05 0.000135551 0.103354)
(-7.83797e-05 0.00013555 0.103354)
(7.64717e-05 0.000132158 0.103671)
(-7.64505e-05 0.000132153 0.103671)
(-0.000183615 0.000183518 0.103281)
(-5.90873e-05 5.90621e-05 0.10362)
(0.0001355 7.84017e-05 0.103354)
(0.00013553 -7.83708e-05 0.103354)
(0.000132109 7.65049e-05 0.103671)
(0.000132131 -7.64431e-05 0.103671)
(-0.000135543 -7.83899e-05 0.103354)
(-0.000132097 7.64814e-05 0.103671)
(-0.000132149 -7.64892e-05 0.103671)
(0.00018355 -0.000183666 0.103281)
(5.90655e-05 -5.91132e-05 0.10362)
(-7.83909e-05 -0.000135489 0.103354)
(7.65168e-05 -0.000132108 0.103671)
(-7.64879e-05 -0.000132095 0.103671)
(-5.92235e-05 -5.92363e-05 0.10362)
(0.000180151 0.000180018 0.103664)
(5.25674e-05 5.25993e-05 0.103988)
(7.59526e-05 0.000131119 0.103774)
(-7.59366e-05 0.000131119 0.103774)
(7.47011e-05 0.000128268 0.104076)
(-7.4692e-05 0.000128276 0.104076)
(-0.000180162 0.000180033 0.103664)
(-5.25528e-05 5.26027e-05 0.103987)
(0.000131069 7.5953e-05 0.103774)
(0.000131096 -7.59265e-05 0.103774)
(0.000128214 7.46336e-05 0.104076)
(0.000128254 -7.46869e-05 0.104076)
(-0.000131098 -7.59223e-05 0.103774)
(-0.000128207 7.46158e-05 0.104076)
(-0.000128247 -7.46365e-05 0.104076)
(0.000180079 -0.000180251 0.103664)
(5.26094e-05 -5.25339e-05 0.103987)
(-7.59313e-05 -0.000131044 0.103774)
(7.46131e-05 -0.0001282 0.104076)
(-7.45908e-05 -0.00012818 0.104076)
(-5.26025e-05 -5.25731e-05 0.103987)
(0.000178081 0.000178027 0.104023)
(4.68226e-05 4.68374e-05 0.104332)
(7.43303e-05 0.000127392 0.104174)
(-7.4312e-05 0.000127395 0.104174)
(7.32913e-05 0.000124922 0.104463)
(-7.32792e-05 0.000124932 0.104463)
(-0.000178166 0.000178109 0.104022)
(-4.67984e-05 4.68474e-05 0.104332)
(0.000127339 7.42654e-05 0.104174)
(0.000127369 -7.43052e-05 0.104174)
(0.000124866 7.32315e-05 0.104463)
(0.000124916 -7.32817e-05 0.104463)
(-0.000127371 -7.42656e-05 0.104174)
(-0.000124859 7.32077e-05 0.104463)
(-0.000124913 -7.32422e-05 0.104463)
(0.000178129 -0.000178176 0.104023)
(4.68253e-05 -4.67792e-05 0.104332)
(-7.42172e-05 -0.000127305 0.104175)
(7.32115e-05 -0.000124856 0.104463)
(-7.31923e-05 -0.000124844 0.104463)
(-4.68649e-05 -4.68532e-05 0.104332)
(0.000176911 0.000176849 0.104358)
(4.15401e-05 4.15526e-05 0.104657)
(7.29901e-05 0.000124165 0.104557)
(-7.297e-05 0.00012417 0.104557)
(7.21197e-05 0.000122017 0.104834)
(-7.2084e-05 0.000122005 0.104834)
(-0.000176947 0.000176891 0.104358)
(-4.1475e-05 4.15205e-05 0.104657)
(0.000124108 7.29335e-05 0.104557)
(0.000124145 -7.29639e-05 0.104557)
(0.000121947 7.20645e-05 0.104834)
(0.000121994 -7.2087e-05 0.104834)
(-0.000124148 -7.29295e-05 0.104557)
(-0.000121927 7.20092e-05 0.104834)
(-0.000122001 -7.20616e-05 0.104834)
(0.000176939 -0.000177001 0.104358)
(4.14203e-05 -4.13878e-05 0.104657)
(-7.28792e-05 -0.000124078 0.104557)
(7.202e-05 -0.000121929 0.104834)
(-7.20117e-05 -0.000121927 0.104834)
(-4.14765e-05 -4.1474e-05 0.104657)
(0.0001763 0.000176234 0.104673)
(3.63941e-05 3.63813e-05 0.104961)
(7.18416e-05 0.000121341 0.104924)
(-7.18258e-05 0.000121344 0.104924)
(7.10036e-05 0.000119401 0.10519)
(-7.0981e-05 0.000119393 0.10519)
(-0.000176181 0.000176127 0.104673)
(-3.64492e-05 3.64898e-05 0.104961)
(0.000121275 7.17877e-05 0.104924)
(0.000121325 -7.18219e-05 0.104924)
(0.000119341 7.0952e-05 0.10519)
(0.000119382 -7.09734e-05 0.10519)
(-0.000121319 -7.17784e-05 0.104924)
(-0.000119323 7.09073e-05 0.10519)
(-0.000119392 -7.09454e-05 0.10519)
(0.00017618 -0.00017626 0.104673)
(3.63841e-05 -3.63755e-05 0.104961)
(-7.1727e-05 -0.000121244 0.104924)
(7.09109e-05 -0.000119313 0.10519)
(-7.08969e-05 -0.000119316 0.10519)
(-3.63575e-05 -3.63665e-05 0.104961)
(0.000175929 0.000175843 0.104966)
(3.13823e-05 3.13495e-05 0.105246)
(7.07195e-05 0.00011877 0.105276)
(-7.07013e-05 0.000118774 0.105276)
(6.98535e-05 0.000116946 0.105531)
(-6.98271e-05 0.000116944 0.105531)
(-0.000175883 0.000175814 0.104967)
(-3.13947e-05 3.14158e-05 0.105246)
(0.000118712 7.06714e-05 0.105277)
(0.000118769 -7.07033e-05 0.105276)
(0.000116884 6.98079e-05 0.105531)
(0.000116936 -6.98259e-05 0.105531)
(-0.00011877 -7.06716e-05 0.105277)
(-0.000116877 6.9763e-05 0.105531)
(-0.000116942 -6.97935e-05 0.105531)
(0.000175767 -0.000175864 0.104967)
(3.13651e-05 -3.13836e-05 0.105246)
(-7.06206e-05 -0.000118692 0.105277)
(6.97739e-05 -0.000116865 0.105531)
(-6.9751e-05 -0.000116863 0.105531)
(-3.13738e-05 -3.14026e-05 0.105246)
(0.000175567 0.000175453 0.105239)
(2.64888e-05 2.64916e-05 0.105511)
(6.95476e-05 0.000116339 0.105614)
(-6.9522e-05 0.000116341 0.105614)
(6.85982e-05 0.000114565 0.105859)
(-6.86025e-05 0.000114556 0.105858)
(-0.000175585 0.000175492 0.105239)
(-2.64622e-05 2.6576e-05 0.105511)
(0.000116281 6.9511e-05 0.105615)
(0.000116332 -6.95199e-05 0.105614)
(0.00011449 6.85565e-05 0.105859)
(0.000114546 -6.86026e-05 0.105858)
(-0.000116339 -6.94879e-05 0.105614)
(-0.000114483 6.85185e-05 0.105859)
(-0.000114553 -6.85656e-05 0.105859)
(0.000175465 -0.000175607 0.105239)
(2.65459e-05 -2.64734e-05 0.105511)
(-6.94462e-05 -0.000116258 0.105615)
(6.85355e-05 -0.000114462 0.105859)
(-6.84983e-05 -0.000114461 0.105859)
(-2.65596e-05 -2.65002e-05 0.105511)
(0.000175238 0.00017517 0.105491)
(2.13362e-05 2.13968e-05 0.105755)
(6.83244e-05 0.00011397 0.105938)
(-6.83267e-05 0.00011396 0.105938)
(6.75329e-05 0.000112219 0.106172)
(-6.75393e-05 0.000112223 0.106172)
(-0.000175244 0.000175245 0.105491)
(-2.12883e-05 2.14219e-05 0.105755)
(0.000113897 6.82605e-05 0.105938)
(0.000113957 -6.83186e-05 0.105938)
(0.000112149 6.74565e-05 0.106172)
(0.000112215 -6.75272e-05 0.106171)
(-0.000113967 -6.82959e-05 0.105938)
(-0.000112155 6.74361e-05 0.106172)
(-0.000112235 -6.75109e-05 0.106172)
(0.000175209 -0.00017525 0.105491)
(2.14053e-05 -2.12795e-05 0.105755)
(-6.82124e-05 -0.00011387 0.105938)
(6.74085e-05 -0.000112124 0.106172)
(-6.74178e-05 -0.000112137 0.106172)
(-2.13769e-05 -2.13078e-05 0.105755)
(0.000174404 0.000174374 0.10572)
(1.6376e-05 1.6445e-05 0.105978)
(6.72674e-05 0.000111641 0.106248)
(-6.72791e-05 0.000111656 0.106248)
(6.64976e-05 0.000110049 0.10647)
(-6.65255e-05 0.000110073 0.10647)
(-0.000174346 0.000174351 0.10572)
(-1.63722e-05 1.64861e-05 0.105978)
(0.000111578 6.71936e-05 0.106248)
(0.000111645 -6.72667e-05 0.106247)
(0.000109999 6.64331e-05 0.10647)
(0.000110061 -6.65021e-05 0.10647)
(-0.000111661 -6.72473e-05 0.106248)
(-0.000109935 6.64023e-05 0.10647)
(-0.00011001 -6.64683e-05 0.10647)
(0.000174383 -0.000174397 0.10572)
(1.65095e-05 -1.64038e-05 0.105977)
(-6.71529e-05 -0.000111559 0.106248)
(6.63809e-05 -0.000109969 0.10647)
(-6.63753e-05 -0.000109909 0.10647)
(-1.63996e-05 -1.63411e-05 0.105977)
(0.000173385 0.000173361 0.105926)
(1.18023e-05 1.18692e-05 0.106176)
(6.62448e-05 0.000109539 0.106542)
(-6.6267e-05 0.000109565 0.106542)
(6.54542e-05 0.000108019 0.106753)
(-6.5468e-05 0.000108027 0.106753)
(-0.000173377 0.00017337 0.105926)
(-1.17532e-05 1.18215e-05 0.106176)
(0.000109496 6.61808e-05 0.106543)
(0.000109564 -6.62493e-05 0.106542)
(0.000107979 6.53875e-05 0.106754)
(0.000108044 -6.54589e-05 0.106753)
(-0.000109511 -6.622e-05 0.106542)
(-0.000107916 6.53523e-05 0.106754)
(-0.000108006 -6.54348e-05 0.106753)
(0.000173379 -0.000173411 0.105926)
(1.18287e-05 -1.1735e-05 0.106176)
(-6.61262e-05 -0.000109405 0.106543)
(6.53368e-05 -0.000107945 0.106754)
(-6.5337e-05 -0.000107899 0.106754)
(-1.17809e-05 -1.17278e-05 0.106176)
(0.000172097 0.000172069 0.106108)
(7.53235e-06 7.59782e-06 0.10635)
(6.51813e-05 0.00010751 0.106822)
(-6.51926e-05 0.000107522 0.106822)
(6.43665e-05 0.000105966 0.107021)
(-6.43852e-05 0.000105992 0.107021)
(-0.000172022 0.000171975 0.106108)
(-7.47153e-06 7.53695e-06 0.10635)
(0.000107475 6.51152e-05 0.106822)
(0.000107542 -6.51893e-05 0.106822)
(0.000105938 6.43032e-05 0.107022)
(0.000106011 -6.43845e-05 0.107021)
(-0.000107501 -6.51653e-05 0.106822)
(-0.000105877 6.42755e-05 0.107022)
(-0.000105973 -6.43559e-05 0.107021)
(0.000172031 -0.000172077 0.106108)
(7.59885e-06 -7.50838e-06 0.10635)
(-6.50666e-05 -0.000107385 0.106822)
(6.42593e-05 -0.000105908 0.107022)
(-6.42549e-05 -0.000105853 0.107022)
(-7.54793e-06 -7.50602e-06 0.10635)
(0.000170395 0.000170367 0.106264)
(3.63956e-06 3.70048e-06 0.106498)
(6.40944e-05 0.000105487 0.107086)
(-6.41195e-05 0.000105495 0.107086)
(6.32947e-05 0.000104099 0.107273)
(-6.33069e-05 0.000104097 0.107273)
(-0.00017036 0.000170315 0.106264)
(-3.57801e-06 3.655e-06 0.106499)
(0.00010544 6.40348e-05 0.107086)
(0.00010551 -6.41169e-05 0.107086)
(0.000104036 6.32446e-05 0.107274)
(0.000104102 -6.33063e-05 0.107273)
(-0.000105476 -6.40867e-05 0.107086)
(-0.000103999 6.32136e-05 0.107274)
(-0.000104077 -6.32824e-05 0.107273)
(0.000170393 -0.000170439 0.106264)
(3.69151e-06 -3.60448e-06 0.106498)
(-6.39844e-05 -0.000105371 0.107086)
(6.31834e-05 -0.000103997 0.107274)
(-6.3184e-05 -0.000103973 0.107274)
(-3.65222e-06 -3.6079e-06 0.106498)
(0.00016827 0.000168236 0.106394)
(1.44256e-07 2.13992e-07 0.106619)
(6.30331e-05 0.000103633 0.107334)
(-6.3048e-05 0.000103633 0.107334)
(6.22442e-05 0.000102148 0.107508)
(-6.22556e-05 0.000102167 0.107508)
(-0.000168212 0.000168179 0.106394)
(-8.79484e-08 1.76488e-07 0.10662)
(0.000103565 6.29848e-05 0.107334)
(0.000103631 -6.30471e-05 0.107333)
(0.000102096 6.21849e-05 0.107509)
(0.000102173 -6.22542e-05 0.107508)
(-0.000103606 -6.30187e-05 0.107334)
(-0.000102068 6.21527e-05 0.107509)
(-0.000102148 -6.22368e-05 0.107508)
(0.00016823 -0.00016828 0.106394)
(1.88871e-07 -1.09869e-07 0.106619)
(-6.29203e-05 -0.000103501 0.107334)
(6.21309e-05 -0.000102066 0.107509)
(-6.21324e-05 -0.000102043 0.107509)
(-1.66103e-07 -1.28608e-07 0.106619)
(0.000165612 0.00016558 0.106497)
(-2.98981e-06 -2.92564e-06 0.106713)
(6.19778e-05 0.000101648 0.107565)
(-6.19889e-05 0.000101664 0.107565)
(6.12006e-05 0.00010013 0.107727)
(-6.12134e-05 0.000100169 0.107726)
(-0.000165542 0.000165519 0.106497)
(3.04809e-06 -2.99927e-06 0.106713)
(0.00010161 6.19197e-05 0.107565)
(0.000101686 -6.19963e-05 0.107564)
(0.000100092 6.11478e-05 0.107727)
(0.000100173 -6.12207e-05 0.107726)
(-0.000101653 -6.1969e-05 0.107565)
(-0.00010007 6.11224e-05 0.107727)
(-0.000100146 -6.11971e-05 0.107726)
(0.000165572 -0.000165628 0.106497)
(-2.95581e-06 3.02633e-06 0.106713)
(-6.18626e-05 -0.000101552 0.107565)
(6.10992e-05 -0.000100065 0.107727)
(-6.10947e-05 -0.000100042 0.107727)
(2.98495e-06 3.02066e-06 0.106713)
(0.000162387 0.000162342 0.106572)
(-5.85755e-06 -5.85114e-06 0.106779)
(6.09423e-05 9.96101e-05 0.107778)
(-6.09677e-05 9.96564e-05 0.107778)
(6.01518e-05 9.79822e-05 0.107927)
(-6.0197e-05 9.80321e-05 0.107927)
(-0.000162327 0.000162265 0.106572)
(5.92815e-06 -5.85555e-06 0.106779)
(9.95791e-05 6.08989e-05 0.107779)
(9.96589e-05 -6.09753e-05 0.107778)
(9.79529e-05 6.01359e-05 0.107927)
(9.8026e-05 -6.01937e-05 0.107926)
(-9.96318e-05 -6.09451e-05 0.107778)
(-9.79185e-05 6.00933e-05 0.107927)
(-9.80083e-05 -6.01725e-05 0.107927)
(0.000162337 -0.000162402 0.106572)
(-5.83306e-06 5.88026e-06 0.106778)
(-6.08439e-05 -9.95255e-05 0.107779)
(6.00805e-05 -9.79177e-05 0.107927)
(-6.00737e-05 -9.78918e-05 0.107927)
(5.86484e-06 5.89914e-06 0.106778)
(0.000158525 0.000158411 0.106621)
(-8.5131e-06 -8.36232e-06 0.106817)
(5.98916e-05 9.74111e-05 0.107974)
(-5.99318e-05 9.74668e-05 0.107974)
(5.91434e-05 9.56356e-05 0.108109)
(-5.91626e-05 9.56843e-05 0.108109)
(-0.000158437 0.000158401 0.106621)
(8.48513e-06 -8.4239e-06 0.106817)
(9.73836e-05 5.98671e-05 0.107975)
(9.74598e-05 -5.99271e-05 0.107974)
(9.55971e-05 5.90705e-05 0.108109)
(9.56701e-05 -5.91561e-05 0.108108)
(-9.74376e-05 -5.98948e-05 0.107974)
(-9.55524e-05 5.906e-05 0.10811)
(-9.56608e-05 -5.91373e-05 0.108109)
(0.000158446 -0.000158544 0.106621)
(-8.41121e-06 8.52937e-06 0.106816)
(-5.97941e-05 -9.73178e-05 0.107974)
(5.90086e-05 -9.55584e-05 0.108109)
(-5.90271e-05 -9.55268e-05 0.108109)
(8.45413e-06 8.47104e-06 0.106817)
(0.000154078 0.000154101 0.106644)
(-1.07349e-05 -1.06078e-05 0.106829)
(5.89006e-05 9.50258e-05 0.108151)
(-5.89136e-05 9.50755e-05 0.108151)
(5.81417e-05 9.31992e-05 0.108272)
(-5.81735e-05 9.32608e-05 0.108272)
(-0.00015408 0.000154036 0.106644)
(1.06942e-05 -1.06281e-05 0.10683)
(9.49874e-05 5.88221e-05 0.108152)
(9.50562e-05 -5.89102e-05 0.108151)
(9.31532e-05 5.80477e-05 0.108273)
(9.32331e-05 -5.81587e-05 0.108272)
(-9.50478e-05 -5.88925e-05 0.108151)
(-9.31573e-05 5.80604e-05 0.108273)
(-9.32198e-05 -5.81234e-05 0.108272)
(0.000154069 -0.000154093 0.106644)
(-1.06273e-05 1.07426e-05 0.106829)
(-5.87841e-05 -9.49361e-05 0.108152)
(5.80219e-05 -9.31378e-05 0.108273)
(-5.80372e-05 -9.31414e-05 0.108273)
(1.06501e-05 1.06907e-05 0.106829)
(0.000149363 0.000149369 0.106643)
(-1.28253e-05 -1.27131e-05 0.106818)
(5.78856e-05 9.25765e-05 0.10831)
(-5.7914e-05 9.26334e-05 0.10831)
(5.71125e-05 9.06386e-05 0.108417)
(-5.71278e-05 9.06911e-05 0.108417)
(-0.00014939 0.000149355 0.106643)
(1.2813e-05 -1.27492e-05 0.106818)
(9.25324e-05 5.77886e-05 0.108311)
(9.26066e-05 -5.78973e-05 0.10831)
(9.05869e-05 5.70129e-05 0.108418)
(9.06638e-05 -5.71124e-05 0.108416)
(-9.2593e-05 -5.7859e-05 0.10831)
(-9.05842e-05 5.70128e-05 0.108418)
(-9.06486e-05 -5.70789e-05 0.108417)
(0.000149376 -0.000149398 0.106643)
(-1.27411e-05 1.28511e-05 0.106817)
(-5.77776e-05 -9.25198e-05 0.108311)
(5.69858e-05 -9.05719e-05 0.108418)
(-5.7001e-05 -9.0582e-05 0.108417)
(1.27442e-05 1.27979e-05 0.106817)
(0.000144262 0.000144258 0.106619)
(-1.48948e-05 -1.47926e-05 0.106784)
(5.68323e-05 8.99587e-05 0.10845)
(-5.68515e-05 9.00121e-05 0.10845)
(5.59342e-05 8.78589e-05 0.108543)
(-5.59523e-05 8.79078e-05 0.108543)
(-0.000144266 0.000144231 0.106619)
(1.48802e-05 -1.48203e-05 0.106784)
(8.99093e-05 5.67314e-05 0.108451)
(8.99826e-05 -5.68315e-05 0.10845)
(8.78019e-05 5.58329e-05 0.108543)
(8.78768e-05 -5.59305e-05 0.108542)
(-8.99689e-05 -5.68003e-05 0.10845)
(-8.77995e-05 5.58358e-05 0.108544)
(-8.78642e-05 -5.59013e-05 0.108543)
(0.000144257 -0.000144282 0.106619)
(-1.48162e-05 1.49203e-05 0.106783)
(-5.67224e-05 -8.99025e-05 0.108451)
(5.58066e-05 -8.77871e-05 0.108543)
(-5.58257e-05 -8.77986e-05 0.108543)
(1.48118e-05 1.48645e-05 0.106783)
(0.000138785 0.000138776 0.106575)
(-1.69275e-05 -1.68333e-05 0.106731)
(5.5614e-05 8.71347e-05 0.108571)
(-5.56365e-05 8.71839e-05 0.108571)
(5.46024e-05 8.49133e-05 0.10865)
(-5.46194e-05 8.49584e-05 0.10865)
(-0.000138787 0.000138751 0.106575)
(1.69143e-05 -1.68534e-05 0.106732)
(8.70808e-05 5.55109e-05 0.108572)
(8.71551e-05 -5.56166e-05 0.108571)
(8.48543e-05 5.44984e-05 0.108651)
(8.49286e-05 -5.46003e-05 0.108649)
(-8.71429e-05 -5.55832e-05 0.108571)
(-8.485e-05 5.45016e-05 0.108651)
(-8.4915e-05 -5.45644e-05 0.10865)
(0.000138776 -0.000138802 0.106575)
(-1.68488e-05 1.69513e-05 0.106731)
(-5.55072e-05 -8.70773e-05 0.108572)
(5.44756e-05 -8.48395e-05 0.108651)
(-5.44887e-05 -8.48504e-05 0.108651)
(1.68518e-05 1.69003e-05 0.106731)
(0.000133082 0.000133068 0.106514)
(-1.89589e-05 -1.8871e-05 0.106663)
(5.42481e-05 8.41561e-05 0.108674)
(-5.42641e-05 8.42006e-05 0.108674)
(5.30882e-05 8.18216e-05 0.108739)
(-5.30991e-05 8.18639e-05 0.108739)
(-0.000133079 0.000133047 0.106515)
(1.89464e-05 -1.88862e-05 0.106664)
(8.40998e-05 5.41435e-05 0.108675)
(8.41699e-05 -5.42411e-05 0.108673)
(8.17602e-05 5.29841e-05 0.10874)
(8.18345e-05 -5.3082e-05 0.108738)
(-8.41559e-05 -5.42045e-05 0.108674)
(-8.17548e-05 5.29818e-05 0.10874)
(-8.18263e-05 -5.30587e-05 0.108739)
(0.000133069 -0.000133093 0.106514)
(-1.88841e-05 1.89832e-05 0.106662)
(-5.41296e-05 -8.40912e-05 0.108675)
(5.29591e-05 -8.17463e-05 0.10874)
(-5.29846e-05 -8.17625e-05 0.10874)
(1.88849e-05 1.89303e-05 0.106662)
(0.000127221 0.000127205 0.10644)
(-2.09596e-05 -2.08774e-05 0.106582)
(5.26798e-05 8.10261e-05 0.108759)
(-5.26951e-05 8.10693e-05 0.108758)
(5.13906e-05 7.86005e-05 0.10881)
(-5.1411e-05 7.86445e-05 0.10881)
(-0.000127222 0.000127191 0.10644)
(2.09412e-05 -2.08833e-05 0.106582)
(8.09682e-05 5.2574e-05 0.108759)
(8.10396e-05 -5.26767e-05 0.108758)
(7.85381e-05 5.12861e-05 0.108811)
(7.86127e-05 -5.13896e-05 0.10881)
(-8.10295e-05 -5.2649e-05 0.108758)
(-7.85365e-05 5.12946e-05 0.108812)
(-7.86005e-05 -5.13521e-05 0.10881)
(0.000127213 -0.000127237 0.10644)
(-2.08909e-05 2.09851e-05 0.106581)
(-5.25743e-05 -8.09663e-05 0.108759)
(5.1269e-05 -7.85273e-05 0.108811)
(-5.12784e-05 -7.85383e-05 0.108811)
(2.09087e-05 2.09515e-05 0.106581)
(0.000121342 0.000121323 0.106354)
(-2.29455e-05 -2.28689e-05 0.106491)
(5.09287e-05 7.77704e-05 0.108826)
(-5.09461e-05 7.78128e-05 0.108825)
(4.94868e-05 7.52449e-05 0.108865)
(-4.95041e-05 7.52894e-05 0.108864)
(-0.000121348 0.000121318 0.106355)
(2.29353e-05 -2.28798e-05 0.106492)
(7.77112e-05 5.08241e-05 0.108826)
(7.7781e-05 -5.09237e-05 0.108825)
(7.51817e-05 4.93831e-05 0.108866)
(7.52543e-05 -4.94806e-05 0.108864)
(-7.7772e-05 -5.08931e-05 0.108825)
(-7.51806e-05 4.93885e-05 0.108866)
(-7.52442e-05 -4.94516e-05 0.108865)
(0.000121328 -0.000121352 0.106354)
(-2.28841e-05 2.29728e-05 0.10649)
(-5.08204e-05 -7.77086e-05 0.108826)
(4.93619e-05 -7.51701e-05 0.108866)
(-4.9379e-05 -7.5183e-05 0.108865)
(2.28898e-05 2.29311e-05 0.106491)
(0.000115499 0.000115479 0.106261)
(-2.48591e-05 -2.47887e-05 0.106394)
(4.89866e-05 7.43871e-05 0.108876)