/*--------------------------------*- C++ -*----------------------------------*\
| =========                 |                                                 |
| \\      /  F ield         | OpenFOAM: The Open Source CFD Toolbox           |
|  \\    /   O peration     | Version:  v2012                                 |
|   \\  /    A nd           | Website:  www.openfoam.com                      |
|    \\/     M anipulation  |                                                 |
\*---------------------------------------------------------------------------*/
FoamFile
{
    version     2.0;
    format      ascii;
    class       volScalarField;
    location    "400";
    object      epsilon;
}
// * * * * * * * * * * * * * * * * * * * * * * * * * * * * * * * * * * * * * //

dimensions      [0 2 -3 0 0 0 0];


internalField   nonuniform List<scalar> 
85864
(
3.23693e-07
8.68937e-07
1.15436e-06
8.69006e-07
8.68888e-07
8.6907e-07
1.15446e-06
9.16241e-06
9.16441e-06
4.09541e-06
3.23738e-07
1.84302e-05
3.47737e-06
1.84279e-05
1.84302e-05
5.46409e-06
5.46576e-06
3.47735e-06
3.47767e-06
5.64186e-07
2.10971e-06
9.16372e-06
4.09538e-06
5.6423e-07
3.47785e-06
2.10959e-06
5.46588e-06
5.4641e-06
1.84286e-05
9.16338e-06
9.16541e-06
7.09002e-06
2.20592e-05
2.20661e-05
9.16737e-06
7.09151e-06
7.09117e-06
2.20594e-05
1.22108e-05
4.09593e-06
4.74762e-06
1.08316e-05
4.74793e-06
1.08337e-05
1.22078e-05
1.84352e-05
1.84329e-05
1.84352e-05
4.54155e-06
2.81367e-06
5.46421e-06
9.50112e-06
9.50476e-06
2.81424e-06
4.5411e-06
4.54749e-06
2.81464e-06
5.46623e-06
9.50601e-06
9.50966e-06
2.81563e-06
4.54716e-06
9.73779e-06
2.17291e-05
2.17285e-05
2.17354e-05
2.17348e-05
9.73816e-06
2.20662e-05
9.16671e-06
7.0902e-06
7.08972e-06
2.20593e-05
1.22107e-05
4.09583e-06
1.08314e-05
4.7476e-06
1.08335e-05
4.74766e-06
1.2208e-05
4.54761e-06
2.81489e-06
5.4659e-06
9.50552e-06
9.50917e-06
2.81536e-06
4.54727e-06
4.54142e-06
2.81352e-06
5.46407e-06
9.50127e-06
2.81449e-06
9.50428e-06
4.54139e-06
9.7382e-06
2.17287e-05
2.1729e-05
2.1735e-05
2.17354e-05
9.73859e-06
1.84336e-05
9.16638e-06
1.68745e-07
2.67131e-06
1.77164e-06
1.77226e-06
1.15334e-06
1.77191e-06
1.77196e-06
2.67124e-06
2.67133e-06
1.77229e-06
1.77211e-06
1.15334e-06
1.77173e-06
1.77182e-06
2.67127e-06
1.6881e-07
1.62072e-06
2.03597e-06
3.47747e-06
2.86247e-06
2.03586e-06
2.86312e-06
1.62271e-06
1.62169e-06
2.03568e-06
3.4773e-06
2.86247e-06
2.86314e-06
2.03625e-06
1.62119e-06
1.62091e-06
2.03625e-06
3.47847e-06
2.8633e-06
2.8635e-06
2.03629e-06
1.6229e-06
1.41971e-06
2.11057e-06
2.36854e-06
1.28529e-06
2.36934e-06
1.28395e-06
1.42237e-06
1.62177e-06
2.03586e-06
3.47794e-06
2.86257e-06
2.86327e-06
2.03651e-06
1.6213e-06
1.42109e-06
2.11054e-06
1.28412e-06
2.36835e-06
1.2847e-06
2.36917e-06
1.42106e-06
8.68841e-07
1.15467e-06
3.39728e-07
8.92277e-07
8.92366e-07
1.17377e-06
3.56007e-07
9.14716e-07
9.14801e-07
1.19211e-06
3.7245e-07
9.36145e-07
9.36232e-07
1.20963e-06
3.88975e-07
9.56564e-07
9.56654e-07
1.22625e-06
4.05501e-07
9.75985e-07
9.76078e-07
1.24207e-06
4.21951e-07
9.94418e-07
9.94512e-07
1.25703e-06
4.38248e-07
1.01187e-06
1.01197e-06
1.27119e-06
4.5432e-07
1.02835e-06
1.02845e-06
1.2846e-06
4.701e-07
1.04389e-06
1.04398e-06
1.29726e-06
4.85529e-07
1.05849e-06
1.05858e-06
1.30914e-06
5.00554e-07
1.07219e-06
1.07228e-06
1.32035e-06
5.1513e-07
1.08501e-06
1.08509e-06
1.33094e-06
5.29215e-07
1.09697e-06
1.09705e-06
1.34087e-06
5.42772e-07
1.1081e-06
1.10818e-06
1.35015e-06
5.55773e-07
1.11843e-06
1.11851e-06
1.3588e-06
5.68192e-07
1.12799e-06
1.12806e-06
1.36686e-06
5.80008e-07
1.13679e-06
1.13686e-06
1.37438e-06
5.91208e-07
1.14486e-06
1.14493e-06
1.38131e-06
6.01782e-07
1.15224e-06
1.1523e-06
1.3877e-06
6.11724e-07
1.15893e-06
1.159e-06
1.39356e-06
6.21032e-07
1.16497e-06
1.16504e-06
1.39891e-06
6.29706e-07
1.17038e-06
1.17045e-06
1.40376e-06
6.3775e-07
1.17518e-06
1.17525e-06
1.40813e-06
6.45173e-07
1.1794e-06
1.17947e-06
1.41203e-06
6.51985e-07
1.18306e-06
1.18313e-06
1.41547e-06
6.58202e-07
1.18619e-06
1.18626e-06
1.41846e-06
6.6384e-07
1.18881e-06
1.18888e-06
1.42103e-06
6.68922e-07
1.19096e-06
1.19101e-06
1.4232e-06
6.73473e-07
1.19265e-06
1.1927e-06
1.42502e-06
6.77524e-07
1.19393e-06
1.19396e-06
1.42648e-06
6.81108e-07
1.19483e-06
1.19484e-06
1.42767e-06
6.84261e-07
1.19539e-06
1.19538e-06
1.42857e-06
6.87019e-07
1.19566e-06
1.19562e-06
1.4291e-06
6.89415e-07
1.19566e-06
1.19561e-06
1.42955e-06
6.91471e-07
1.19548e-06
1.19542e-06
1.4298e-06
6.93216e-07
1.1951e-06
1.19506e-06
1.42986e-06
6.94679e-07
1.19454e-06
1.19453e-06
1.43003e-06
6.95874e-07
1.19383e-06
1.19387e-06
1.42988e-06
6.96812e-07
1.19298e-06
1.19306e-06
1.42953e-06
6.97498e-07
1.19198e-06
1.1921e-06
1.42867e-06
6.97924e-07
1.19085e-06
1.19098e-06
1.42804e-06
6.9809e-07
1.18957e-06
1.18969e-06
1.42745e-06
6.98031e-07
1.18813e-06
1.18825e-06
1.42655e-06
6.97807e-07
1.18656e-06
1.18667e-06
1.42542e-06
6.97382e-07
1.18489e-06
1.18499e-06
1.42421e-06
6.96531e-07
1.1829e-06
1.18297e-06
1.4221e-06
6.78516e-07
1.12648e-06
1.12647e-06
1.38123e-06
1.16797e-06
8.69011e-07
8.8667e-07
8.8667e-07
1.15417e-06
1.16787e-06
8.86546e-07
8.86725e-07
8.69095e-07
8.86509e-07
8.86755e-07
1.16788e-06
8.68967e-07
8.86599e-07
8.86629e-07
1.16793e-06
1.17351e-06
1.18659e-06
8.92435e-07
8.92433e-07
9.09356e-07
9.09352e-07
1.17333e-06
1.18653e-06
8.92316e-07
8.92491e-07
9.09232e-07
9.09405e-07
8.92522e-07
9.09199e-07
9.09442e-07
1.17365e-06
1.18645e-06
8.92396e-07
9.09286e-07
9.09321e-07
1.18653e-06
1.19181e-06
1.20414e-06
9.14868e-07
9.14865e-07
9.31034e-07
9.31029e-07
1.19164e-06
1.20425e-06
9.14751e-07
9.14919e-07
9.30911e-07
9.3108e-07
9.14959e-07
9.30883e-07
9.31126e-07
1.19197e-06
1.20416e-06
9.14838e-07
9.3097e-07
9.31009e-07
1.20423e-06
1.20942e-06
1.22098e-06
9.36295e-07
9.36288e-07
9.51703e-07
9.51695e-07
1.20916e-06
1.22108e-06
9.36178e-07
9.36341e-07
9.51583e-07
9.51747e-07
9.3639e-07
9.51555e-07
9.51795e-07
1.20947e-06
1.22098e-06
9.36273e-07
9.51643e-07
9.51679e-07
1.22104e-06
1.22612e-06
1.23697e-06
9.56709e-07
9.56701e-07
9.71367e-07
9.71357e-07
1.22582e-06
1.23703e-06
9.56596e-07
9.56755e-07
9.71252e-07
9.71411e-07
9.56808e-07
9.71223e-07
9.71463e-07
1.22613e-06
1.23696e-06
9.5669e-07
9.71315e-07
9.71345e-07
1.23704e-06
1.24193e-06
1.25213e-06
9.76126e-07
9.76119e-07
9.90039e-07
9.90033e-07
1.24165e-06
1.25206e-06
9.76018e-07
9.76173e-07
9.89932e-07
9.9009e-07
9.76229e-07
9.89903e-07
9.90137e-07
1.24193e-06
1.25218e-06
9.76109e-07
9.89997e-07
9.9002e-07
1.25219e-06
1.25692e-06
1.26648e-06
9.94551e-07
9.94547e-07
1.00772e-06
1.00772e-06
1.25672e-06
1.26645e-06
9.94451e-07
9.94604e-07
1.00762e-06
1.00778e-06
9.94653e-07
1.0076e-06
1.00782e-06
1.25688e-06
1.26655e-06
9.94537e-07
1.00769e-06
1.00771e-06
1.26655e-06
1.2711e-06
1.28012e-06
1.01199e-06
1.01199e-06
1.02443e-06
1.02444e-06
1.27095e-06
1.28e-06
1.0119e-06
1.01205e-06
1.02434e-06
1.0245e-06
1.01209e-06
1.02432e-06
1.02453e-06
1.27105e-06
1.28016e-06
1.01198e-06
1.02442e-06
1.02442e-06
1.28012e-06
1.28446e-06
1.29295e-06
1.02846e-06
1.02847e-06
1.04018e-06
1.04021e-06
1.28441e-06
1.29292e-06
1.02837e-06
1.02853e-06
1.0401e-06
1.04026e-06
1.02856e-06
1.04009e-06
1.04029e-06
1.28444e-06
1.29304e-06
1.02846e-06
1.04019e-06
1.04018e-06
1.29298e-06
1.29707e-06
1.30505e-06
1.04397e-06
1.044e-06
1.055e-06
1.05504e-06
1.29705e-06
1.30504e-06
1.0439e-06
1.04405e-06
1.05493e-06
1.05508e-06
1.04408e-06
1.05493e-06
1.05511e-06
1.29707e-06
1.30513e-06
1.04398e-06
1.05502e-06
1.05501e-06
1.30514e-06
1.309e-06
1.31646e-06
1.05856e-06
1.05861e-06
1.06891e-06
1.06896e-06
1.30898e-06
1.31644e-06
1.05849e-06
1.05865e-06
1.06884e-06
1.069e-06
1.05868e-06
1.06885e-06
1.06902e-06
1.30903e-06
1.31647e-06
1.05858e-06
1.06894e-06
1.06893e-06
1.31654e-06
1.32023e-06
1.32718e-06
1.07225e-06
1.0723e-06
1.08193e-06
1.08199e-06
1.32022e-06
1.32714e-06
1.07218e-06
1.07234e-06
1.08186e-06
1.08203e-06
1.07237e-06
1.08189e-06
1.08205e-06
1.32031e-06
1.32718e-06
1.07227e-06
1.08197e-06
1.08195e-06
1.3272e-06
1.33082e-06
1.33723e-06
1.08505e-06
1.08511e-06
1.0941e-06
1.09416e-06
1.33078e-06
1.33719e-06
1.08499e-06
1.08515e-06
1.09403e-06
1.0942e-06
1.08517e-06
1.09406e-06
1.09421e-06
1.33092e-06
1.33725e-06
1.08508e-06
1.09414e-06
1.09412e-06
1.33726e-06
1.34072e-06
1.34659e-06
1.09701e-06
1.09707e-06
1.10543e-06
1.10549e-06
1.34071e-06
1.3466e-06
1.09694e-06
1.09711e-06
1.10536e-06
1.10553e-06
1.09712e-06
1.1054e-06
1.10554e-06
1.34083e-06
1.34669e-06
1.09703e-06
1.10548e-06
1.10545e-06
1.34669e-06
1.35005e-06
1.3554e-06
1.10814e-06
1.1082e-06
1.11596e-06
1.11602e-06
1.35e-06
1.3554e-06
1.10806e-06
1.10823e-06
1.11588e-06
1.11605e-06
1.10825e-06
1.11593e-06
1.11606e-06
1.35008e-06
1.3555e-06
1.10816e-06
1.116e-06
1.11597e-06
1.35549e-06
1.35873e-06
1.36359e-06
1.11847e-06
1.11853e-06
1.12571e-06
1.12576e-06
1.35868e-06
1.36359e-06
1.11839e-06
1.11856e-06
1.12562e-06
1.12579e-06
1.11857e-06
1.12567e-06
1.12581e-06
1.35876e-06
1.36369e-06
1.11848e-06
1.12575e-06
1.12571e-06
1.3637e-06
1.3668e-06
1.37124e-06
1.12802e-06
1.12808e-06
1.1347e-06
1.13475e-06
1.36676e-06
1.37119e-06
1.12794e-06
1.12811e-06
1.13461e-06
1.13478e-06
1.12812e-06
1.13466e-06
1.13479e-06
1.36684e-06
1.3713e-06
1.12803e-06
1.13473e-06
1.1347e-06
1.37129e-06
1.37428e-06
1.37829e-06
1.13683e-06
1.13689e-06
1.14296e-06
1.14301e-06
1.37428e-06
1.37825e-06
1.13674e-06
1.13691e-06
1.14286e-06
1.14303e-06
1.13692e-06
1.14291e-06
1.14304e-06
1.37433e-06
1.37834e-06
1.13683e-06
1.14298e-06
1.14295e-06
1.37834e-06
1.38123e-06
1.38478e-06
1.14491e-06
1.14496e-06
1.1505e-06
1.15056e-06
1.38122e-06
1.38476e-06
1.14482e-06
1.14498e-06
1.15041e-06
1.15058e-06
1.145e-06
1.15046e-06
1.15059e-06
1.38127e-06
1.38484e-06
1.1449e-06
1.15053e-06
1.15049e-06
1.38484e-06
1.38764e-06
1.39074e-06
1.15228e-06
1.15234e-06
1.15737e-06
1.15742e-06
1.3876e-06
1.39072e-06
1.1522e-06
1.15236e-06
1.15728e-06
1.15744e-06
1.15237e-06
1.15732e-06
1.15745e-06
1.38767e-06
1.3908e-06
1.15228e-06
1.15739e-06
1.15735e-06
1.3908e-06
1.39351e-06
1.39618e-06
1.15898e-06
1.15903e-06
1.16358e-06
1.16362e-06
1.39346e-06
1.39615e-06
1.1589e-06
1.15905e-06
1.16349e-06
1.16364e-06
1.15907e-06
1.16352e-06
1.16365e-06
1.39353e-06
1.39625e-06
1.15897e-06
1.16359e-06
1.16356e-06
1.39624e-06
1.39886e-06
1.40112e-06
1.16503e-06
1.16507e-06
1.16914e-06
1.16918e-06
1.39881e-06
1.40108e-06
1.16494e-06
1.16509e-06
1.16905e-06
1.16921e-06
1.16511e-06
1.16908e-06
1.16922e-06
1.39887e-06
1.4012e-06
1.16501e-06
1.16915e-06
1.16912e-06
1.40117e-06
1.40371e-06
1.40558e-06
1.17044e-06
1.17048e-06
1.17409e-06
1.17413e-06
1.40366e-06
1.40555e-06
1.17036e-06
1.1705e-06
1.17401e-06
1.17416e-06
1.17052e-06
1.17403e-06
1.17417e-06
1.40371e-06
1.40565e-06
1.17043e-06
1.1741e-06
1.17408e-06
1.40563e-06
1.40807e-06
1.40955e-06
1.17524e-06
1.17528e-06
1.17845e-06
1.17849e-06
1.408e-06
1.40954e-06
1.17516e-06
1.17531e-06
1.17837e-06
1.17852e-06
1.17532e-06
1.17838e-06
1.17853e-06
1.40807e-06
1.40963e-06
1.17523e-06
1.17846e-06
1.17845e-06
1.40962e-06
1.41196e-06
1.41308e-06
1.17946e-06
1.17949e-06
1.18224e-06
1.18228e-06
1.41188e-06
1.41306e-06
1.17938e-06
1.17953e-06
1.18216e-06
1.18232e-06
1.17955e-06
1.18218e-06
1.18233e-06
1.41196e-06
1.41315e-06
1.17946e-06
1.18225e-06
1.18225e-06
1.41316e-06
1.41538e-06
1.41617e-06
1.18311e-06
1.18315e-06
1.18549e-06
1.18553e-06
1.41532e-06
1.41612e-06
1.18304e-06
1.18319e-06
1.18541e-06
1.18557e-06
1.18321e-06
1.18543e-06
1.18559e-06
1.4154e-06
1.41621e-06
1.18313e-06
1.1855e-06
1.18551e-06
1.41625e-06
1.41834e-06
1.41879e-06
1.18623e-06
1.18628e-06
1.18821e-06
1.18827e-06
1.41835e-06
1.41879e-06
1.18616e-06
1.18631e-06
1.18813e-06
1.1883e-06
1.18634e-06
1.18817e-06
1.18833e-06
1.41841e-06
1.41887e-06
1.18626e-06
1.18824e-06
1.18825e-06
1.41893e-06
1.4209e-06
1.42101e-06
1.18884e-06
1.1889e-06
1.19044e-06
1.19052e-06
1.42091e-06
1.42105e-06
1.18876e-06
1.18893e-06
1.19036e-06
1.19053e-06
1.18896e-06
1.19042e-06
1.19058e-06
1.42096e-06
1.4211e-06
1.18889e-06
1.19048e-06
1.19051e-06
1.42117e-06
1.42308e-06
1.42288e-06
1.19096e-06
1.19105e-06
1.19222e-06
1.19232e-06
1.42308e-06
1.42293e-06
1.19088e-06
1.19105e-06
1.19213e-06
1.19231e-06
1.1911e-06
1.19221e-06
1.19236e-06
1.42312e-06
1.42295e-06
1.19103e-06
1.19226e-06
1.1923e-06
1.42302e-06
1.42488e-06
1.4244e-06
1.19264e-06
1.19274e-06
1.19358e-06
1.19369e-06
1.42489e-06
1.42445e-06
1.19255e-06
1.19272e-06
1.19348e-06
1.19366e-06
1.19279e-06
1.19358e-06
1.19373e-06
1.42491e-06
1.42445e-06
1.19272e-06
1.19361e-06
1.19366e-06
1.42455e-06
1.42634e-06
1.42561e-06
1.19391e-06
1.19402e-06
1.19456e-06
1.19469e-06
1.42636e-06
1.42571e-06
1.1938e-06
1.19398e-06
1.19445e-06
1.19463e-06
1.19406e-06
1.19458e-06
1.19472e-06
1.42636e-06
1.4257e-06
1.19399e-06
1.19459e-06
1.19464e-06
1.42573e-06
1.42748e-06
1.42665e-06
1.1948e-06
1.19493e-06
1.19522e-06
1.19535e-06
1.42752e-06
1.42671e-06
1.19469e-06
1.19486e-06
1.1951e-06
1.19527e-06
1.19495e-06
1.19524e-06
1.19536e-06
1.4275e-06
1.42669e-06
1.19487e-06
1.19523e-06
1.19528e-06
1.42664e-06
1.42834e-06
1.42737e-06
1.19536e-06
1.19549e-06
1.19559e-06
1.1957e-06
1.42838e-06
1.42741e-06
1.19524e-06
1.19541e-06
1.19546e-06
1.19562e-06
1.1955e-06
1.19559e-06
1.19571e-06
1.42836e-06
1.42737e-06
1.19541e-06
1.19556e-06
1.19561e-06
1.42746e-06
1.42903e-06
1.42788e-06
1.19564e-06
1.19576e-06
1.19568e-06
1.19579e-06
1.42906e-06
1.42789e-06
1.19551e-06
1.19567e-06
1.19556e-06
1.1957e-06
1.19575e-06
1.19567e-06
1.19578e-06
1.42903e-06
1.42785e-06
1.19565e-06
1.19562e-06
1.19566e-06
1.42793e-06
1.42952e-06
1.42818e-06
1.19568e-06
1.19578e-06
1.19555e-06
1.19564e-06
1.42953e-06
1.42817e-06
1.19555e-06
1.19569e-06
1.19543e-06
1.19557e-06
1.19577e-06
1.19553e-06
1.19563e-06
1.42948e-06
1.42816e-06
1.19565e-06
1.19547e-06
1.1955e-06
1.4282e-06
1.42979e-06
1.42827e-06
1.1955e-06
1.19559e-06
1.19523e-06
1.1953e-06
1.42978e-06
1.42824e-06
1.19538e-06
1.19552e-06
1.19512e-06
1.19526e-06
1.19558e-06
1.19517e-06
1.19528e-06
1.42975e-06
1.42797e-06
1.19544e-06
1.19514e-06
1.19514e-06
1.42828e-06
1.42987e-06
1.42822e-06
1.19514e-06
1.19521e-06
1.19473e-06
1.19477e-06
1.42983e-06
1.42816e-06
1.19504e-06
1.19518e-06
1.19463e-06
1.19479e-06
1.1952e-06
1.19465e-06
1.19478e-06
1.43008e-06
1.42793e-06
1.19506e-06
1.19464e-06
1.19463e-06
1.42787e-06
1.4298e-06
1.42803e-06
1.19462e-06
1.19467e-06
1.19408e-06
1.19411e-06
1.42973e-06
1.42794e-06
1.19453e-06
1.19468e-06
1.194e-06
1.19416e-06
1.19465e-06
1.19398e-06
1.19412e-06
1.43003e-06
1.42776e-06
1.19451e-06
1.194e-06
1.19398e-06
1.42775e-06
1.4296e-06
1.42769e-06
1.19396e-06
1.19396e-06
1.19328e-06
1.1933e-06
1.42946e-06
1.42729e-06
1.19388e-06
1.19404e-06
1.19322e-06
1.19338e-06
1.19397e-06
1.19315e-06
1.19332e-06
1.42985e-06
1.42772e-06
1.19383e-06
1.19322e-06
1.19319e-06
1.42742e-06
1.42925e-06
1.42689e-06
1.19314e-06
1.19312e-06
1.19233e-06
1.19234e-06
1.42934e-06
1.42677e-06
1.19307e-06
1.19324e-06
1.19227e-06
1.19245e-06
1.19314e-06
1.19217e-06
1.19235e-06
1.42927e-06
1.42725e-06
1.19301e-06
1.19229e-06
1.19225e-06
1.42713e-06
1.42899e-06
1.42624e-06
1.19215e-06
1.19214e-06
1.19123e-06
1.19119e-06
1.42881e-06
1.42607e-06
1.19211e-06
1.19227e-06
1.19115e-06
1.19136e-06
1.19218e-06
1.19104e-06
1.19121e-06
1.42878e-06
1.42628e-06
1.19205e-06
1.19119e-06
1.19115e-06
1.42653e-06
1.42826e-06
1.42542e-06
1.19099e-06
1.19102e-06
1.18995e-06
1.18989e-06
1.42798e-06
1.42554e-06
1.19099e-06
1.19113e-06
1.18986e-06
1.19009e-06
1.19105e-06
1.18973e-06
1.18992e-06
1.42835e-06
1.42548e-06
1.19092e-06
1.18992e-06
1.18989e-06
1.4254e-06
1.42741e-06
1.42447e-06
1.18969e-06
1.18973e-06
1.1885e-06
1.18845e-06
1.42706e-06
1.42461e-06
1.1897e-06
1.18983e-06
1.18841e-06
1.18864e-06
1.18976e-06
1.18828e-06
1.18848e-06
1.42746e-06
1.4246e-06
1.18963e-06
1.18849e-06
1.18846e-06
1.42451e-06
1.42645e-06
1.42339e-06
1.18825e-06
1.1883e-06
1.18691e-06
1.1869e-06
1.42612e-06
1.42355e-06
1.18825e-06
1.18839e-06
1.18683e-06
1.18703e-06
1.18832e-06
1.18672e-06
1.18691e-06
1.42627e-06
1.42338e-06
1.1882e-06
1.18689e-06
1.18687e-06
1.42341e-06
1.42535e-06
1.42215e-06
1.18668e-06
1.18673e-06
1.18521e-06
1.18523e-06
1.42505e-06
1.42235e-06
1.18665e-06
1.18682e-06
1.18514e-06
1.18532e-06
1.18673e-06
1.18504e-06
1.18521e-06
1.42542e-06
1.42217e-06
1.18663e-06
1.18517e-06
1.18515e-06
1.42214e-06
1.42412e-06
1.42058e-06
1.18503e-06
1.18506e-06
1.18302e-06
1.18306e-06
1.42382e-06
1.42083e-06
1.18497e-06
1.18514e-06
1.18294e-06
1.18311e-06
1.18504e-06
1.18286e-06
1.183e-06
1.42413e-06
1.42058e-06
1.18496e-06
1.18293e-06
1.18293e-06
1.42084e-06
1.42247e-06
1.40226e-06
1.18304e-06
1.18309e-06
1.16202e-06
1.16204e-06
1.42217e-06
1.4021e-06
1.18296e-06
1.18313e-06
1.16201e-06
1.16202e-06
1.18303e-06
1.16198e-06
1.16188e-06
1.42244e-06
1.40216e-06
1.18294e-06
1.16198e-06
1.16186e-06
1.40111e-06
1.38046e-06
1.12645e-06
1.12647e-06
1.38043e-06
1.12645e-06
1.12644e-06
6.78512e-07
6.78532e-07
6.78416e-07
1.12686e-06
1.3804e-06
1.12686e-06
4.09764e-06
9.16943e-06
4.09528e-06
1.84294e-05
1.84399e-05
4.09784e-06
9.17148e-06
3.23666e-07
3.2376e-07
3.35693e-07
3.35665e-07
3.35738e-07
3.35762e-07
2.11423e-06
3.47744e-06
5.64172e-07
8.74791e-07
3.48052e-06
5.70036e-07
2.10972e-06
1.84408e-05
2.1142e-06
5.64225e-07
8.74885e-07
5.70092e-07
3.48048e-06
2.10976e-06
5.46423e-06
5.46599e-06
1.15824e-06
5.46666e-06
5.46881e-06
4.10517e-06
9.17855e-06
4.10293e-06
9.18567e-06
1.84516e-05
1.84625e-05
4.10537e-06
9.18082e-06
4.10304e-06
9.18751e-06
3.39699e-07
3.39774e-07
3.39798e-07
3.51919e-07
3.51889e-07
3.51965e-07
3.51991e-07
2.12801e-06
3.48842e-06
5.875e-07
8.97979e-07
2.12375e-06
3.49088e-06
5.93292e-07
1.84524e-05
1.84634e-05
2.12801e-06
5.87553e-07
3.48851e-06
8.98068e-07
2.12379e-06
5.93345e-07
3.49131e-06
5.47347e-06
5.47521e-06
1.17728e-06
5.4758e-06
5.47783e-06
4.11267e-06
9.19488e-06
4.1104e-06
9.20201e-06
1.84747e-05
1.84859e-05
4.11296e-06
9.19722e-06
4.11038e-06
9.20397e-06
3.55977e-07
3.56054e-07
3.56081e-07
3.68329e-07
3.68297e-07
3.68375e-07
3.68405e-07
2.14111e-06
3.49897e-06
6.10495e-07
9.20168e-07
2.13709e-06
3.50144e-06
6.16189e-07
1.84755e-05
1.84868e-05
2.14109e-06
6.10553e-07
3.49904e-06
9.20251e-07
2.13711e-06
6.16247e-07
3.50187e-06
5.48257e-06
5.48451e-06
1.19541e-06
5.48491e-06
5.48682e-06
4.12001e-06
9.21165e-06
4.11781e-06
9.21845e-06
1.84985e-05
1.851e-05
4.12021e-06
9.21376e-06
4.11799e-06
9.22057e-06
3.72418e-07
3.72497e-07
3.72528e-07
3.84841e-07
3.84807e-07
3.84889e-07
3.84921e-07
2.15349e-06
3.50904e-06
6.33058e-07
9.41345e-07
2.14972e-06
3.51142e-06
6.3863e-07
1.84994e-05
1.85109e-05
2.1535e-06
6.33121e-07
3.50883e-06
9.41431e-07
2.14973e-06
6.38692e-07
3.51185e-06
5.49155e-06
5.49353e-06
1.2127e-06
5.49387e-06
5.49561e-06
4.12716e-06
9.22828e-06
4.12493e-06
9.23511e-06
1.8523e-05
1.85346e-05
4.12744e-06
9.23042e-06
4.12517e-06
9.23731e-06
3.88941e-07
3.89024e-07
3.89057e-07
4.01375e-07
4.01338e-07
4.01425e-07
4.0146e-07
2.16523e-06
3.51875e-06
6.55096e-07
9.61513e-07
2.16165e-06
3.52103e-06
6.60522e-07
1.85238e-05
1.85355e-05
2.16522e-06
6.55165e-07
3.51855e-06
9.61602e-07
2.1617e-06
6.60592e-07
3.52133e-06
5.5004e-06
5.50237e-06
1.2291e-06
5.50288e-06
5.50456e-06
4.1342e-06
9.24497e-06
4.13214e-06
9.25183e-06
1.8548e-05
1.85598e-05
4.13454e-06
9.24692e-06
4.1322e-06
9.25422e-06
4.05465e-07
4.05553e-07
4.05587e-07
4.17851e-07
4.17812e-07
4.17905e-07
4.1794e-07
2.1763e-06
3.52802e-06
6.76524e-07
9.80686e-07
2.17296e-06
3.53025e-06
6.81786e-07
1.85488e-05
1.85607e-05
2.17631e-06
6.766e-07
3.52795e-06
9.8078e-07
2.17301e-06
6.81862e-07
3.53053e-06
5.50898e-06
5.51103e-06
1.24467e-06
5.51156e-06
5.51326e-06
4.1411e-06
9.2617e-06
4.13901e-06
9.26856e-06
1.85735e-05
1.85855e-05
4.14112e-06
9.2636e-06
4.13926e-06
9.2708e-06
4.21912e-07
4.22006e-07
4.2204e-07
4.34193e-07
4.34153e-07
4.34251e-07
4.34284e-07
2.18678e-06
3.53695e-06
6.9727e-07
9.98873e-07
2.18365e-06
3.53908e-06
7.0235e-07
1.85742e-05
1.85863e-05
2.1868e-06
6.97352e-07
3.53691e-06
9.98969e-07
2.18369e-06
7.02433e-07
3.53916e-06
5.51761e-06
5.51961e-06
1.2594e-06
5.52009e-06
5.52182e-06
4.14783e-06
9.27843e-06
4.14578e-06
9.2853e-06
1.85992e-05
1.86113e-05
4.14813e-06
9.28055e-06
4.14598e-06
9.28745e-06
4.38208e-07
4.38308e-07
4.38337e-07
4.50328e-07
4.50289e-07
4.50391e-07
4.50422e-07
2.1967e-06
3.54539e-06
7.17273e-07
1.01608e-06
2.19374e-06
3.54775e-06
7.2216e-07
1.86e-05
1.86122e-05
2.19669e-06
7.17359e-07
3.54564e-06
1.01618e-06
2.19379e-06
7.22249e-07
3.54779e-06
5.52597e-06
5.52801e-06
1.27336e-06
5.52847e-06
5.53006e-06
4.15442e-06
9.29516e-06
4.15241e-06
9.30208e-06
1.86253e-05
1.86375e-05
4.15464e-06
9.29704e-06
4.15261e-06
9.30427e-06
4.54282e-07
4.54385e-07
4.54409e-07
4.66187e-07
4.66153e-07
4.66257e-07
4.66285e-07
2.20603e-06
3.55369e-06
7.36502e-07
1.03233e-06
2.20326e-06
3.55584e-06
7.41187e-07
1.86261e-05
1.86384e-05
2.20605e-06
7.3659e-07
3.55366e-06
1.03242e-06
2.20329e-06
7.41277e-07
3.55601e-06
5.53421e-06
5.53636e-06
1.28656e-06
5.53669e-06
5.53844e-06
4.16082e-06
9.31162e-06
4.15888e-06
9.31879e-06
1.86517e-05
1.86639e-05
4.16107e-06
9.31368e-06
4.15904e-06
9.32083e-06
4.70067e-07
4.70172e-07
4.70192e-07
4.81709e-07
4.81681e-07
4.81786e-07
4.81811e-07
2.2148e-06
3.56159e-06
7.54901e-07
1.04763e-06
2.21223e-06
3.56355e-06
7.5937e-07
1.86524e-05
1.86648e-05
2.21484e-06
7.54994e-07
3.56145e-06
1.04772e-06
2.21226e-06
7.59465e-07
3.56375e-06
5.54232e-06
5.54449e-06
1.29912e-06
5.54474e-06
5.54647e-06
4.16715e-06
9.32847e-06
4.16525e-06
9.33528e-06
1.86782e-05
1.86905e-05
4.16732e-06
9.3305e-06
4.16537e-06
9.3373e-06
4.85503e-07
4.85609e-07
4.85625e-07
4.9684e-07
4.9682e-07
4.96926e-07
4.96948e-07
2.2231e-06
3.56917e-06
7.72436e-07
1.062e-06
2.22067e-06
3.57099e-06
7.76682e-07
1.8679e-05
1.86914e-05
2.22307e-06
7.72528e-07
3.56907e-06
1.06209e-06
2.22071e-06
7.76774e-07
3.57115e-06
5.55029e-06
5.55238e-06
1.3109e-06
5.55258e-06
5.55444e-06
4.1732e-06
9.34477e-06
4.17144e-06
9.35183e-06
1.87049e-05
1.87172e-05
4.17349e-06
9.34678e-06
4.17148e-06
9.35389e-06
5.00537e-07
5.00643e-07
5.00656e-07
5.11533e-07
5.11521e-07
5.11628e-07
5.11646e-07
2.23093e-06
3.57638e-06
7.89079e-07
1.07548e-06
2.22864e-06
3.57816e-06
7.93096e-07
1.87057e-05
1.87181e-05
2.23086e-06
7.89164e-07
3.57632e-06
1.07556e-06
2.22868e-06
7.93182e-07
3.57833e-06
5.55818e-06
5.56016e-06
1.32196e-06
5.5602e-06
5.56215e-06
4.1792e-06
9.36134e-06
4.17758e-06
9.36805e-06
1.87317e-05
1.8744e-05
4.1794e-06
9.36314e-06
4.17753e-06
9.37016e-06
5.1512e-07
5.15228e-07
5.15236e-07
5.25744e-07
5.25739e-07
5.25847e-07
5.25861e-07
2.23828e-06
3.58324e-06
8.04807e-07
1.08808e-06
2.23614e-06
3.58506e-06
8.08596e-07
1.87324e-05
1.87449e-05
2.23823e-06
8.04891e-07
3.58318e-06
1.08816e-06
2.23617e-06
8.0868e-07
3.58511e-06
5.56584e-06
5.56777e-06
1.33231e-06
5.56777e-06
5.56977e-06
4.18492e-06
9.37759e-06
4.18346e-06
9.38427e-06
1.87584e-05
1.87708e-05
4.18511e-06
9.3796e-06
4.18366e-06
9.38625e-06
5.29212e-07
5.2932e-07
5.29323e-07
5.39436e-07
5.39438e-07
5.39545e-07
5.39556e-07
2.24515e-06
3.58985e-06
8.19615e-07
1.09983e-06
2.24315e-06
3.59153e-06
8.23173e-07
1.87592e-05
1.87717e-05
2.24509e-06
8.19698e-07
3.58985e-06
1.09991e-06
2.24321e-06
8.23257e-07
3.5916e-06
5.57328e-06
5.5752e-06
1.34204e-06
5.57515e-06
5.5771e-06
4.19062e-06
9.39346e-06
4.18921e-06
9.40036e-06
1.87852e-05
1.87975e-05
4.19072e-06
9.39543e-06
4.18933e-06
9.40236e-06
5.42776e-07
5.42883e-07
5.42881e-07
5.52579e-07
5.52588e-07
5.52693e-07
5.52702e-07
2.2516e-06
3.59615e-06
8.33502e-07
1.11076e-06
2.24972e-06
3.59769e-06
8.36831e-07
1.8786e-05
1.87984e-05
2.25156e-06
8.33587e-07
3.59616e-06
1.11084e-06
2.24976e-06
8.36915e-07
3.59779e-06
5.58054e-06
5.58244e-06
1.35115e-06
5.58233e-06
5.58434e-06
4.19605e-06
9.40931e-06
4.1947e-06
9.4161e-06
1.88118e-05
1.8824e-05
4.19618e-06
9.41129e-06
4.19477e-06
9.41812e-06
5.55783e-07
5.55889e-07
5.55883e-07
5.65144e-07
5.65158e-07
5.65262e-07
5.65268e-07
2.25759e-06
3.60213e-06
8.46473e-07
1.12089e-06
2.25583e-06
3.60354e-06
8.49575e-07
1.88127e-05
1.8825e-05
2.25757e-06
8.46555e-07
3.60212e-06
1.12097e-06
2.25584e-06
8.49656e-07
3.60365e-06
5.58759e-06
5.58946e-06
1.35968e-06
5.58935e-06
5.59137e-06
4.20126e-06
9.4249e-06
4.19997e-06
9.43154e-06
1.88383e-05
1.88505e-05
4.20151e-06
9.42692e-06
4.19998e-06
9.43363e-06
5.68205e-07
5.68309e-07
5.68302e-07
5.77112e-07
5.77128e-07
5.7723e-07
5.77235e-07
2.26309e-06
3.60781e-06
8.58543e-07
1.13026e-06
2.2616e-06
3.60909e-06
8.61422e-07
1.88392e-05
1.88515e-05
2.26314e-06
8.58619e-07
3.60778e-06
1.13033e-06
2.26152e-06
8.61497e-07
3.60919e-06
5.59444e-06
5.59627e-06
1.36756e-06
5.59612e-06
5.59818e-06
4.20628e-06
9.44045e-06
4.20497e-06
9.44665e-06
1.88646e-05
1.88767e-05
4.2065e-06
9.44227e-06
4.20497e-06
9.44887e-06
5.80024e-07
5.80126e-07
5.80117e-07
5.88466e-07
5.88485e-07
5.88585e-07
5.88588e-07
2.26819e-06
3.61317e-06
8.69729e-07
1.13888e-06
2.26688e-06
3.61436e-06
8.7239e-07
1.88656e-05
1.88778e-05
2.26823e-06
8.69802e-07
3.61312e-06
1.13895e-06
2.26677e-06
8.72461e-07
3.61441e-06
5.60106e-06
5.60288e-06
1.37488e-06
5.60266e-06
5.60475e-06
4.21101e-06
9.45549e-06
4.20977e-06
9.4616e-06
1.88908e-05
1.89027e-05
4.21123e-06
9.45732e-06
4.20985e-06
9.46378e-06
5.91225e-07
5.91325e-07
5.91315e-07
5.99197e-07
5.99216e-07
5.99314e-07
5.99316e-07
2.27288e-06
3.61816e-06
8.8005e-07
1.14678e-06
2.27176e-06
3.61931e-06
8.82496e-07
1.88917e-05
1.89038e-05
2.27283e-06
8.80117e-07
3.61815e-06
1.14684e-06
2.27169e-06
8.82562e-07
3.61934e-06
5.60746e-06
5.60928e-06
1.38165e-06
5.60905e-06
5.61107e-06
4.21547e-06
9.47002e-06
4.21433e-06
9.47631e-06
1.89166e-05
1.89284e-05
4.21569e-06
9.47203e-06
4.21441e-06
9.47835e-06
6.018e-07
6.01898e-07
6.01887e-07
6.09296e-07
6.09315e-07
6.09412e-07
6.09413e-07
2.27713e-06
3.62288e-06
8.89525e-07
1.15398e-06
2.27613e-06
3.62392e-06
8.91762e-07
1.89175e-05
1.89295e-05
2.27707e-06
8.89588e-07
3.62287e-06
1.15404e-06
2.2761e-06
8.91825e-07
3.62397e-06
5.61364e-06
5.61547e-06
1.38789e-06
5.61515e-06
5.61717e-06
4.21968e-06
9.48438e-06
4.2186e-06
9.49054e-06
1.89421e-05
1.89538e-05
4.2198e-06
9.48639e-06
4.21877e-06
9.4925e-06
6.11741e-07
6.11838e-07
6.11826e-07
6.1876e-07
6.18779e-07
6.18876e-07
6.18875e-07
2.28097e-06
3.62728e-06
8.9818e-07
1.1605e-06
2.28011e-06
3.62822e-06
9.00213e-07
1.89431e-05
1.89548e-05
2.28093e-06
8.98241e-07
3.62728e-06
1.16057e-06
2.28009e-06
9.00274e-07
3.62828e-06
5.61955e-06
5.62143e-06
1.39358e-06
5.62107e-06
5.62299e-06
4.22362e-06
9.4984e-06
4.22262e-06
9.5044e-06
1.89672e-05
1.89787e-05
4.22376e-06
9.50062e-06
4.22282e-06
9.50625e-06
6.21047e-07
6.21144e-07
6.21131e-07
6.27589e-07
6.27606e-07
6.27704e-07
6.27702e-07
2.28451e-06
3.63137e-06
9.06036e-07
1.16638e-06
2.28365e-06
3.63222e-06
9.07872e-07
1.89682e-05
1.89798e-05
2.28438e-06
9.06099e-07
3.63138e-06
1.16645e-06
2.28367e-06
9.07935e-07
3.63228e-06
5.62522e-06
5.62717e-06
1.39876e-06
5.62669e-06
5.62859e-06
4.22729e-06
9.51205e-06
4.22637e-06
9.51788e-06
1.8992e-05
1.90034e-05
4.22746e-06
9.51404e-06
4.22658e-06
9.5199e-06
6.29717e-07
6.29816e-07
6.29803e-07
6.35786e-07
6.35801e-07
6.359e-07
6.359e-07
2.28755e-06
3.63516e-06
9.13125e-07
1.17163e-06
2.28679e-06
3.63591e-06
9.14771e-07
1.8993e-05
1.90045e-05
2.28745e-06
9.13191e-07
3.63518e-06
1.1717e-06
2.28687e-06
9.14836e-07
3.63598e-06
5.63072e-06
5.63264e-06
1.40346e-06
5.63205e-06
5.63402e-06
4.23065e-06
9.52531e-06
4.22985e-06
9.531e-06
1.90164e-05
1.90276e-05
4.23086e-06
9.52732e-06
4.23005e-06
9.53301e-06
6.37759e-07
6.37858e-07
6.37846e-07
6.43358e-07
6.43372e-07
6.43473e-07
6.43474e-07
2.2902e-06
3.63866e-06
9.19478e-07
1.17628e-06
2.2896e-06
3.63932e-06
9.20937e-07
1.90174e-05
1.90287e-05
2.29015e-06
9.19545e-07
3.63869e-06
1.17635e-06
2.28964e-06
9.21005e-07
3.63939e-06
5.63595e-06
5.63785e-06
1.40768e-06
5.6372e-06
5.63917e-06
4.2338e-06
9.53836e-06
4.2331e-06
9.54358e-06
1.90404e-05
1.90515e-05
4.23398e-06
9.54019e-06
4.23326e-06
9.54569e-06
6.45178e-07
6.4528e-07
6.45269e-07
6.50316e-07
6.5033e-07
6.50433e-07
6.50436e-07
2.29247e-06
3.64186e-06
9.25119e-07
1.18035e-06
2.29205e-06
3.64242e-06
9.26401e-07
1.90414e-05
1.90525e-05
2.29248e-06
9.25192e-07
3.64188e-06
1.18042e-06
2.29208e-06
9.26473e-07
3.64249e-06
5.64092e-06
5.64285e-06
1.41144e-06
5.64209e-06
5.64405e-06
4.23666e-06
9.55068e-06
4.23605e-06
9.55607e-06
1.90641e-05
1.9075e-05
4.23683e-06
9.5529e-06
4.23617e-06
9.5579e-06
6.5199e-07
6.52093e-07
6.52084e-07
6.56671e-07
6.56689e-07
6.56792e-07
6.56798e-07
2.29441e-06
3.64477e-06
9.30087e-07
1.18386e-06
2.29412e-06
3.64524e-06
9.31197e-07
1.90649e-05
1.90759e-05
2.29441e-06
9.30162e-07
3.64478e-06
1.18394e-06
2.29412e-06
9.31272e-07
3.64529e-06
5.64566e-06
5.64759e-06
1.41475e-06
5.64673e-06
5.64869e-06
4.23925e-06
9.56281e-06
4.23873e-06
9.56802e-06
1.90872e-05
1.9098e-05
4.23941e-06
9.56478e-06
4.23883e-06
9.57004e-06
6.58208e-07
6.5831e-07
6.58305e-07
6.62441e-07
6.62468e-07
6.62568e-07
6.62579e-07
2.29599e-06
3.6474e-06
9.3441e-07
1.18686e-06
2.2958e-06
3.64777e-06
9.35353e-07
1.9088e-05
1.90988e-05
2.29599e-06
9.34488e-07
3.64738e-06
1.18693e-06
2.29581e-06
9.35431e-07
3.6478e-06
5.65011e-06
5.65205e-06
1.41764e-06
5.65114e-06
5.6531e-06
4.24158e-06
9.57474e-06
4.24113e-06
9.57946e-06
1.911e-05
1.91205e-05
4.24172e-06
9.57655e-06
4.24121e-06
9.58161e-06
6.63851e-07
6.6395e-07
6.6395e-07
6.67648e-07
6.67686e-07
6.67781e-07
6.67799e-07
2.29723e-06
3.64975e-06
9.3812e-07
1.18935e-06
2.29714e-06
3.65004e-06
9.38903e-07
1.91107e-05
1.91213e-05
2.29723e-06
9.38201e-07
3.6497e-06
1.18941e-06
2.29715e-06
9.38984e-07
3.65002e-06
5.65435e-06
5.65629e-06
1.42011e-06
5.65531e-06
5.65727e-06
4.24368e-06
9.58613e-06
4.2433e-06
9.59071e-06
1.91322e-05
1.91424e-05
4.24379e-06
9.58814e-06
4.24336e-06
9.59267e-06
6.6894e-07
6.69033e-07
6.6904e-07
6.72315e-07
6.72368e-07
6.72453e-07
6.7248e-07
2.29816e-06
3.65183e-06
9.41256e-07
1.19136e-06
2.29816e-06
3.65202e-06
9.41886e-07
1.91329e-05
1.91432e-05
2.29815e-06
9.41337e-07
3.65175e-06
1.19142e-06
2.29817e-06
9.41966e-07
3.65197e-06
5.65837e-06
5.6603e-06
1.42213e-06
5.65925e-06
5.6612e-06
4.24557e-06
9.59688e-06
4.24526e-06
9.60165e-06
1.91538e-05
1.91638e-05
4.24563e-06
9.5991e-06
4.24528e-06
9.60347e-06