/*--------------------------------*- C++ -*----------------------------------*\
| =========                 |                                                 |
| \\      /  F ield         | OpenFOAM: The Open Source CFD Toolbox           |
|  \\    /   O peration     | Version:  v2012                                 |
|   \\  /    A nd           | Website:  www.openfoam.com                      |
|    \\/     M anipulation  |                                                 |
\*---------------------------------------------------------------------------*/
FoamFile
{
    version     2.0;
    format      ascii;
    class       volScalarField;
    location    "400";
    object      k;
}
// * * * * * * * * * * * * * * * * * * * * * * * * * * * * * * * * * * * * * //

dimensions      [0 2 -2 0 0 0 0];


internalField   nonuniform List<scalar> 
85864
(
2.10375e-05
3.66891e-05
4.1931e-05
3.6691e-05
3.66888e-05
3.66906e-05
4.19346e-05
7.13613e-05
7.13668e-05
6.47327e-05
2.10385e-05
6.95335e-05
6.02135e-05
6.95335e-05
6.95358e-05
6.69225e-05
6.69321e-05
6.02144e-05
6.02192e-05
2.90774e-05
5.33382e-05
7.13613e-05
6.47304e-05
2.90781e-05
6.02164e-05
5.33367e-05
6.69266e-05
6.69217e-05
6.95333e-05
7.13619e-05
7.13745e-05
7.73975e-05
7.01958e-05
7.02124e-05
7.13799e-05
7.74179e-05
7.74358e-05
7.01984e-05
7.0155e-05
6.47706e-05
6.82268e-05
6.98508e-05
6.82578e-05
6.98636e-05
7.0145e-05
6.95463e-05
6.9546e-05
6.95483e-05
7.01207e-05
5.93699e-05
6.69399e-05
7.11444e-05
7.11594e-05
5.94222e-05
7.00998e-05
7.0172e-05
5.93796e-05
6.69502e-05
7.11547e-05
7.11696e-05
5.94315e-05
7.01492e-05
9.23837e-05
7.20347e-05
7.20283e-05
7.20486e-05
7.20422e-05
9.23748e-05
7.02097e-05
7.13744e-05
7.7396e-05
7.74145e-05
7.0195e-05
7.01533e-05
6.47683e-05
6.985e-05
6.82172e-05
6.98628e-05
6.82526e-05
7.01421e-05
7.01701e-05
5.93782e-05
6.69414e-05
7.11521e-05
7.11672e-05
5.9426e-05
7.01488e-05
7.01209e-05
5.93701e-05
6.69393e-05
7.1142e-05
5.94218e-05
7.11602e-05
7.00997e-05
9.23879e-05
7.20279e-05
7.20342e-05
7.20419e-05
7.20482e-05
9.2376e-05
6.95458e-05
7.13751e-05
1.50345e-05
5.96558e-05
5.06078e-05
5.06115e-05
4.19681e-05
5.06516e-05
5.06563e-05
5.96228e-05
5.96549e-05
5.06081e-05
5.06115e-05
4.19661e-05
5.06508e-05
5.06544e-05
5.9621e-05
1.50371e-05
4.82371e-05
5.26104e-05
6.02619e-05
5.85469e-05
5.26491e-05
5.86057e-05
4.81997e-05
4.82254e-05
5.26147e-05
6.02612e-05
5.85481e-05
5.86061e-05
5.26453e-05
4.82118e-05
4.82452e-05
5.26141e-05
6.02664e-05
5.85557e-05
5.86142e-05
5.26565e-05
4.82068e-05
4.58963e-05
5.34175e-05
5.56427e-05
4.39306e-05
5.57158e-05
4.39787e-05
4.58653e-05
4.82398e-05
5.26106e-05
6.02587e-05
5.85465e-05
5.86045e-05
5.26523e-05
4.82026e-05
4.58933e-05
5.34155e-05
4.39299e-05
5.56376e-05
4.39779e-05
5.57102e-05
4.58687e-05
3.66879e-05
4.19409e-05
2.17959e-05
3.75937e-05
3.7595e-05
4.26602e-05
2.25727e-05
3.84736e-05
3.84747e-05
4.33577e-05
2.33638e-05
3.93263e-05
3.93274e-05
4.40309e-05
2.41655e-05
4.01512e-05
4.01524e-05
4.46797e-05
2.49739e-05
4.09477e-05
4.09489e-05
4.53014e-05
2.57852e-05
4.17155e-05
4.17169e-05
4.59065e-05
2.65959e-05
4.24545e-05
4.24561e-05
4.64854e-05
2.74026e-05
4.31648e-05
4.31662e-05
4.7041e-05
2.82021e-05
4.38464e-05
4.38478e-05
4.75778e-05
2.89916e-05
4.44995e-05
4.45008e-05
4.80934e-05
2.97685e-05
4.51244e-05
4.51254e-05
4.85828e-05
3.05304e-05
4.57212e-05
4.57223e-05
4.90458e-05
3.12752e-05
4.62905e-05
4.62916e-05
4.94881e-05
3.20009e-05
4.68324e-05
4.68336e-05
4.99127e-05
3.2706e-05
4.73477e-05
4.73488e-05
5.03203e-05
3.33889e-05
4.78366e-05
4.78375e-05
5.07043e-05
3.40485e-05
4.82993e-05
4.83e-05
5.10668e-05
3.46836e-05
4.87363e-05
4.87369e-05
5.14131e-05
3.52933e-05
4.91482e-05
4.91486e-05
5.17369e-05
3.5877e-05
4.95352e-05
4.95357e-05
5.20432e-05
3.6434e-05
4.9898e-05
4.98986e-05
5.23291e-05
3.69639e-05
5.0237e-05
5.02377e-05
5.25979e-05
3.74665e-05
5.05528e-05
5.05536e-05
5.285e-05
3.79418e-05
5.0846e-05
5.08469e-05
5.30845e-05
3.83896e-05
5.11172e-05
5.1118e-05
5.33018e-05
3.88104e-05
5.13671e-05
5.13677e-05
5.35007e-05
3.92045e-05
5.15961e-05
5.15966e-05
5.36968e-05
3.95724e-05
5.18051e-05
5.18051e-05
5.3858e-05
3.99149e-05
5.19948e-05
5.19943e-05
5.40066e-05
4.02329e-05
5.21664e-05
5.21654e-05
5.41467e-05
4.05274e-05
5.23207e-05
5.23193e-05
5.42711e-05
4.07997e-05
5.24589e-05
5.2457e-05
5.4383e-05
4.10511e-05
5.25822e-05
5.25797e-05
5.44834e-05
4.12825e-05
5.26921e-05
5.26888e-05
5.45735e-05
4.14951e-05
5.27886e-05
5.27851e-05
5.46514e-05
4.16897e-05
5.28727e-05
5.28696e-05
5.47189e-05
4.18671e-05
5.29453e-05
5.29429e-05
5.47778e-05
4.20281e-05
5.30073e-05
5.3006e-05
5.48285e-05
4.2173e-05
5.3059e-05
5.30591e-05
5.48703e-05
4.23019e-05
5.31004e-05
5.31019e-05
5.49031e-05
4.24146e-05
5.31314e-05
5.3134e-05
5.49269e-05
4.2511e-05
5.31524e-05
5.31555e-05
5.49435e-05
4.25913e-05
5.31632e-05
5.31661e-05
5.49547e-05
4.2656e-05
5.31644e-05
5.31668e-05
5.49559e-05
4.27053e-05
5.31574e-05
5.31591e-05
5.49512e-05
4.27285e-05
5.31267e-05
5.31277e-05
5.493e-05
4.23743e-05
5.2035e-05
5.20344e-05
5.46333e-05
4.24928e-05
3.66896e-05
3.73726e-05
3.73711e-05
4.19398e-05
4.24919e-05
3.73704e-05
3.73719e-05
3.66953e-05
3.73697e-05
3.73766e-05
4.25037e-05
3.6693e-05
3.73709e-05
3.73744e-05
4.25065e-05
4.26695e-05
4.31945e-05
3.75967e-05
3.75952e-05
3.8259e-05
3.82573e-05
4.26584e-05
4.31921e-05
3.75947e-05
3.75961e-05
3.82568e-05
3.82579e-05
3.76007e-05
3.82562e-05
3.82627e-05
4.26516e-05
4.32052e-05
3.75985e-05
3.82573e-05
3.82607e-05
4.32163e-05
4.33709e-05
4.389e-05
3.84763e-05
3.84748e-05
3.91182e-05
3.91168e-05
4.3367e-05
4.38814e-05
3.84745e-05
3.84754e-05
3.91161e-05
3.91171e-05
3.84801e-05
3.91158e-05
3.91219e-05
4.33541e-05
4.38904e-05
3.84782e-05
3.91169e-05
3.91201e-05
4.38894e-05
4.40322e-05
4.45436e-05
3.93287e-05
3.93273e-05
3.995e-05
3.99483e-05
4.40398e-05
4.45278e-05
3.93269e-05
3.93277e-05
3.9948e-05
3.99488e-05
3.93326e-05
3.99476e-05
3.99535e-05
4.40334e-05
4.45396e-05
3.93308e-05
3.99488e-05
3.99517e-05
4.45418e-05
4.46804e-05
4.51768e-05
4.01534e-05
4.01519e-05
4.07533e-05
4.07518e-05
4.46923e-05
4.51547e-05
4.01517e-05
4.01524e-05
4.07517e-05
4.07523e-05
4.01571e-05
4.07512e-05
4.0757e-05
4.46728e-05
4.51693e-05
4.01552e-05
4.07525e-05
4.07552e-05
4.51739e-05
4.53095e-05
4.57793e-05
4.09496e-05
4.09483e-05
4.15279e-05
4.15267e-05
4.53151e-05
4.57616e-05
4.09482e-05
4.09487e-05
4.15266e-05
4.15273e-05
4.09535e-05
4.15263e-05
4.15317e-05
4.53021e-05
4.57772e-05
4.09517e-05
4.15278e-05
4.15299e-05
4.57802e-05
4.59021e-05
4.63611e-05
4.1717e-05
4.17159e-05
4.22735e-05
4.22726e-05
4.59109e-05
4.63481e-05
4.1716e-05
4.17164e-05
4.22725e-05
4.22732e-05
4.17208e-05
4.22725e-05
4.22772e-05
4.59042e-05
4.63598e-05
4.17192e-05
4.2274e-05
4.22757e-05
4.63644e-05
4.6484e-05
4.69208e-05
4.24554e-05
4.24547e-05
4.29903e-05
4.299e-05
4.64953e-05
4.69232e-05
4.24547e-05
4.24552e-05
4.29896e-05
4.29903e-05
4.24591e-05
4.299e-05
4.29939e-05
4.64788e-05
4.69173e-05
4.24577e-05
4.29915e-05
4.29927e-05
4.69242e-05
4.70356e-05
4.74602e-05
4.3165e-05
4.31648e-05
4.36784e-05
4.36787e-05
4.70387e-05
4.74567e-05
4.31645e-05
4.3165e-05
4.36779e-05
4.36786e-05
4.31687e-05
4.36788e-05
4.36821e-05
4.70363e-05
4.74459e-05
4.31677e-05
4.36801e-05
4.36812e-05
4.74625e-05
4.75745e-05
4.7973e-05
4.38458e-05
4.38463e-05
4.43379e-05
4.43387e-05
4.75829e-05
4.79666e-05
4.38456e-05
4.38463e-05
4.43377e-05
4.43385e-05
4.38498e-05
4.43391e-05
4.4342e-05
4.7585e-05
4.7961e-05
4.38489e-05
4.43402e-05
4.43412e-05
4.79704e-05
4.80819e-05
4.84546e-05
4.44983e-05
4.44991e-05
4.49691e-05
4.49703e-05
4.80913e-05
4.84603e-05
4.44983e-05
4.44991e-05
4.4969e-05
4.497e-05
4.45026e-05
4.4971e-05
4.49735e-05
4.8095e-05
4.84691e-05
4.45017e-05
4.4972e-05
4.49726e-05
4.8459e-05
4.85811e-05
4.89268e-05
4.51225e-05
4.51238e-05
4.55726e-05
4.55739e-05
4.85833e-05
4.89291e-05
4.51226e-05
4.51235e-05
4.55726e-05
4.55737e-05
4.5127e-05
4.55748e-05
4.55769e-05
4.85727e-05
4.89395e-05
4.51262e-05
4.55759e-05
4.55762e-05
4.89435e-05
4.90501e-05
4.9381e-05
4.57191e-05
4.57204e-05
4.61485e-05
4.61499e-05
4.90455e-05
4.93798e-05
4.57193e-05
4.57203e-05
4.61486e-05
4.61498e-05
4.57234e-05
4.6151e-05
4.61528e-05
4.90394e-05
4.93889e-05
4.57227e-05
4.61521e-05
4.61522e-05
4.93918e-05
4.94894e-05
4.98184e-05
4.62881e-05
4.62895e-05
4.66971e-05
4.66986e-05
4.94929e-05
4.98122e-05
4.62882e-05
4.62894e-05
4.66971e-05
4.66984e-05
4.62924e-05
4.66998e-05
4.67014e-05
4.94859e-05
4.9813e-05
4.62918e-05
4.67009e-05
4.67008e-05
4.98219e-05
4.99123e-05
5.0227e-05
4.68298e-05
4.68313e-05
4.7219e-05
4.72204e-05
4.99155e-05
5.02205e-05
4.683e-05
4.68312e-05
4.72188e-05
4.72202e-05
4.68342e-05
4.72217e-05
4.72229e-05
4.99153e-05
5.02225e-05
4.68337e-05
4.72228e-05
4.72225e-05
5.02248e-05
5.03184e-05
5.06132e-05
4.7345e-05
4.73465e-05
4.77143e-05
4.77156e-05
5.03225e-05
5.06065e-05
4.7345e-05
4.73463e-05
4.7714e-05
4.77154e-05
4.73491e-05
4.77171e-05
4.77182e-05
5.03215e-05
5.06087e-05
4.73487e-05
4.77181e-05
4.77177e-05
5.06129e-05
5.0697e-05
5.09797e-05
4.78338e-05
4.78352e-05
4.81837e-05
4.81849e-05
5.0707e-05
5.09839e-05
4.78337e-05
4.78349e-05
4.81832e-05
4.81844e-05
4.78377e-05
4.81864e-05
4.81871e-05
5.07065e-05
5.09792e-05
4.78373e-05
4.81873e-05
4.81867e-05
5.09862e-05
5.10693e-05
5.13282e-05
4.82966e-05
4.82979e-05
4.86272e-05
4.86285e-05
5.10664e-05
5.13315e-05
4.82964e-05
4.82973e-05
4.86268e-05
4.86277e-05
4.83001e-05
4.863e-05
4.86305e-05
5.1069e-05
5.13271e-05
4.82998e-05
4.86305e-05
4.86301e-05
5.1334e-05
5.1411e-05
5.16613e-05
4.87337e-05
4.87351e-05
4.90454e-05
4.90467e-05
5.14104e-05
5.1659e-05
4.87335e-05
4.87343e-05
4.9045e-05
4.90459e-05
4.87371e-05
4.90482e-05
4.90486e-05
5.14141e-05
5.16579e-05
4.87367e-05
4.90487e-05
4.90482e-05
5.16619e-05
5.17369e-05
5.19718e-05
4.91456e-05
4.9147e-05
4.94389e-05
4.944e-05
5.17392e-05
5.19687e-05
4.91455e-05
4.91462e-05
4.94386e-05
4.94391e-05
4.91489e-05
4.94415e-05
4.94418e-05
5.17385e-05
5.19676e-05
4.91485e-05
4.9442e-05
4.94414e-05
5.19729e-05
5.20415e-05
5.22648e-05
4.95329e-05
4.95341e-05
4.98079e-05
4.98089e-05
5.20447e-05
5.22642e-05
4.95328e-05
4.95333e-05
4.98076e-05
4.98081e-05
4.9536e-05
4.98104e-05
4.98108e-05
5.20456e-05
5.22554e-05
4.95356e-05
4.9811e-05
4.98105e-05
5.22665e-05
5.23274e-05
5.25389e-05
4.98958e-05
4.98969e-05
5.0153e-05
5.01539e-05
5.23315e-05
5.25388e-05
4.98957e-05
4.98961e-05
5.01528e-05
5.01531e-05
4.98989e-05
5.01554e-05
5.01559e-05
5.23373e-05
5.25274e-05
4.98986e-05
5.0156e-05
5.01556e-05
5.25403e-05
5.25966e-05
5.27942e-05
5.02349e-05
5.02359e-05
5.04747e-05
5.04754e-05
5.25979e-05
5.27861e-05
5.0235e-05
5.02352e-05
5.04747e-05
5.04749e-05
5.0238e-05
5.04771e-05
5.04776e-05
5.2609e-05
5.27833e-05
5.02378e-05
5.04778e-05
5.04775e-05
5.27958e-05
5.28485e-05
5.30317e-05
5.05508e-05
5.05517e-05
5.07736e-05
5.07743e-05
5.28553e-05
5.30212e-05
5.0551e-05
5.05513e-05
5.07737e-05
5.07739e-05
5.05539e-05
5.07759e-05
5.07766e-05
5.28606e-05
5.30213e-05
5.05539e-05
5.07768e-05
5.07767e-05
5.30337e-05
5.30827e-05
5.3251e-05
5.0844e-05
5.0845e-05
5.10501e-05
5.10511e-05
5.30946e-05
5.32424e-05
5.08444e-05
5.08446e-05
5.10504e-05
5.10507e-05
5.08473e-05
5.10527e-05
5.10534e-05
5.30946e-05
5.32427e-05
5.08474e-05
5.10535e-05
5.10536e-05
5.32542e-05
5.32983e-05
5.34454e-05
5.11151e-05
5.11163e-05
5.1305e-05
5.13063e-05
5.33086e-05
5.34569e-05
5.11155e-05
5.11159e-05
5.13052e-05
5.13056e-05
5.11186e-05
5.13078e-05
5.13085e-05
5.33073e-05
5.34506e-05
5.11189e-05
5.13084e-05
5.13089e-05
5.34563e-05
5.35107e-05
5.36361e-05
5.13647e-05
5.13663e-05
5.15386e-05
5.15404e-05
5.35016e-05
5.36385e-05
5.13651e-05
5.13655e-05
5.15388e-05
5.15394e-05
5.13684e-05
5.15419e-05
5.15426e-05
5.35055e-05
5.36331e-05
5.13688e-05
5.15423e-05
5.15432e-05
5.36357e-05
5.36869e-05
5.38122e-05
5.15932e-05
5.15953e-05
5.17518e-05
5.17542e-05
5.36858e-05
5.38051e-05
5.15935e-05
5.15942e-05
5.17519e-05
5.17525e-05
5.15976e-05
5.17555e-05
5.17564e-05
5.36947e-05
5.3803e-05
5.15982e-05
5.17556e-05
5.1757e-05
5.381e-05
5.38507e-05
5.39676e-05
5.18017e-05
5.18044e-05
5.19456e-05
5.19484e-05
5.38637e-05
5.39609e-05
5.18019e-05
5.18026e-05
5.19453e-05
5.19461e-05
5.18066e-05
5.19495e-05
5.19504e-05
5.38614e-05
5.39586e-05
5.18073e-05
5.19491e-05
5.19511e-05
5.39717e-05
5.40034e-05
5.41055e-05
5.19912e-05
5.19943e-05
5.21208e-05
5.2124e-05
5.40157e-05
5.41069e-05
5.1991e-05
5.19918e-05
5.21202e-05
5.21209e-05
5.19963e-05
5.21249e-05
5.2126e-05
5.40132e-05
5.41041e-05
5.1997e-05
5.21241e-05
5.21265e-05
5.41092e-05
5.41427e-05
5.42312e-05
5.21625e-05
5.2166e-05
5.22784e-05
5.2282e-05
5.41478e-05
5.42341e-05
5.21619e-05
5.21628e-05
5.22774e-05
5.22783e-05
5.2168e-05
5.22826e-05
5.22837e-05
5.41449e-05
5.42312e-05
5.21685e-05
5.22813e-05
5.22841e-05
5.42352e-05
5.42674e-05
5.43454e-05
5.23168e-05
5.23207e-05
5.24197e-05
5.24235e-05
5.42715e-05
5.43487e-05
5.23159e-05
5.23168e-05
5.24184e-05
5.24194e-05
5.23223e-05
5.24237e-05
5.24248e-05
5.42685e-05
5.43459e-05
5.23226e-05
5.24219e-05
5.24249e-05
5.43493e-05
5.43803e-05
5.44495e-05
5.24553e-05
5.24592e-05
5.25461e-05
5.25496e-05
5.43836e-05
5.44522e-05
5.24541e-05
5.2455e-05
5.25446e-05
5.25452e-05
5.24604e-05
5.25495e-05
5.25505e-05
5.43805e-05
5.44487e-05
5.24606e-05
5.25472e-05
5.25503e-05
5.44514e-05
5.44822e-05
5.45429e-05
5.25793e-05
5.25829e-05
5.26585e-05
5.26619e-05
5.44848e-05
5.4545e-05
5.25779e-05
5.25783e-05
5.26571e-05
5.26572e-05
5.25837e-05
5.26615e-05
5.26623e-05
5.44805e-05
5.45408e-05
5.25834e-05
5.26585e-05
5.26617e-05
5.45437e-05
5.45727e-05
5.46235e-05
5.26894e-05
5.26929e-05
5.27579e-05
5.27612e-05
5.45749e-05
5.46254e-05
5.26882e-05
5.26882e-05
5.27569e-05
5.27567e-05
5.26933e-05
5.27606e-05
5.27613e-05
5.45702e-05
5.46214e-05
5.26925e-05
5.2757e-05
5.27602e-05
5.46242e-05
5.46507e-05
5.46932e-05
5.27865e-05
5.27897e-05
5.28451e-05
5.28481e-05
5.46525e-05
5.46946e-05
5.27857e-05
5.27855e-05
5.28445e-05
5.28444e-05
5.27899e-05
5.28472e-05
5.28481e-05
5.46485e-05
5.46917e-05
5.27887e-05
5.28438e-05
5.28467e-05
5.46937e-05
5.47184e-05
5.4754e-05
5.28714e-05
5.28741e-05
5.29215e-05
5.29238e-05
5.47198e-05
5.47548e-05
5.28709e-05
5.28709e-05
5.29212e-05
5.29213e-05
5.28742e-05
5.29225e-05
5.2924e-05
5.47167e-05
5.47529e-05
5.28728e-05
5.29198e-05
5.29225e-05
5.47544e-05
5.47775e-05
5.48064e-05
5.2945e-05
5.29471e-05
5.29877e-05
5.29893e-05
5.47783e-05
5.48065e-05
5.29448e-05
5.2945e-05
5.29878e-05
5.29881e-05
5.29474e-05
5.29877e-05
5.29898e-05
5.47762e-05
5.48059e-05
5.29459e-05
5.29859e-05
5.29883e-05
5.48069e-05
5.48283e-05
5.48504e-05
5.30082e-05
5.30095e-05
5.30435e-05
5.30444e-05
5.48283e-05
5.48495e-05
5.30084e-05
5.30088e-05
5.30441e-05
5.30445e-05
5.30101e-05
5.30423e-05
5.30452e-05
5.48276e-05
5.485e-05
5.30087e-05
5.30419e-05
5.30441e-05
5.48504e-05
5.48705e-05
5.48852e-05
5.30607e-05
5.30613e-05
5.3089e-05
5.30891e-05
5.48693e-05
5.48831e-05
5.30614e-05
5.30618e-05
5.309e-05
5.30905e-05
5.30622e-05
5.30867e-05
5.30902e-05
5.48702e-05
5.48849e-05
5.30612e-05
5.30876e-05
5.30896e-05
5.48847e-05
5.49034e-05
5.49107e-05
5.31028e-05
5.31029e-05
5.31238e-05
5.31235e-05
5.49012e-05
5.49079e-05
5.3104e-05
5.31044e-05
5.31252e-05
5.31257e-05
5.31039e-05
5.31209e-05
5.31248e-05
5.49034e-05
5.49107e-05
5.31035e-05
5.3123e-05
5.31245e-05
5.491e-05
5.49273e-05
5.49297e-05
5.31344e-05
5.31341e-05
5.3148e-05
5.31474e-05
5.49244e-05
5.49263e-05
5.31359e-05
5.31363e-05
5.31496e-05
5.315e-05
5.31353e-05
5.3145e-05
5.31488e-05
5.49272e-05
5.49296e-05
5.31352e-05
5.31479e-05
5.31488e-05
5.49292e-05
5.4944e-05
5.49426e-05
5.31556e-05
5.3155e-05
5.31617e-05
5.3161e-05
5.49407e-05
5.49394e-05
5.31573e-05
5.31575e-05
5.31634e-05
5.31634e-05
5.31562e-05
5.31588e-05
5.3162e-05
5.49438e-05
5.49423e-05
5.31564e-05
5.31618e-05
5.31624e-05
5.49423e-05
5.49562e-05
5.49451e-05
5.31661e-05
5.31654e-05
5.31637e-05
5.3163e-05
5.49528e-05
5.4942e-05
5.31678e-05
5.31678e-05
5.31653e-05
5.31651e-05
5.31663e-05
5.3161e-05
5.31634e-05
5.49551e-05
5.49441e-05
5.31667e-05
5.31636e-05
5.31639e-05
5.49373e-05
5.49565e-05
5.49388e-05
5.31671e-05
5.31664e-05
5.31571e-05
5.31563e-05
5.49534e-05
5.49303e-05
5.31687e-05
5.31683e-05
5.31585e-05
5.31579e-05
5.31666e-05
5.31544e-05
5.31558e-05
5.49553e-05
5.49369e-05
5.31671e-05
5.31564e-05
5.31563e-05
5.49324e-05
5.49497e-05
5.49238e-05
5.31602e-05
5.31594e-05
5.31438e-05
5.3143e-05
5.49503e-05
5.49191e-05
5.31615e-05
5.31608e-05
5.31449e-05
5.31439e-05
5.31586e-05
5.31409e-05
5.31416e-05
5.49477e-05
5.49212e-05
5.31591e-05
5.31422e-05
5.3142e-05
5.49188e-05
5.49343e-05
5.47739e-05
5.31297e-05
5.31288e-05
5.29794e-05
5.29785e-05
5.49315e-05
5.47553e-05
5.31309e-05
5.31296e-05
5.29818e-05
5.29787e-05
5.3127e-05
5.29785e-05
5.2975e-05
5.49316e-05
5.47545e-05
5.31274e-05
5.2978e-05
5.29768e-05
5.47531e-05
5.46188e-05
5.20284e-05
5.20356e-05
5.46364e-05
5.20306e-05
5.20257e-05
4.23694e-05
4.2371e-05
4.23674e-05
5.20319e-05
5.46353e-05
5.2034e-05
6.48245e-05
7.13954e-05
6.47297e-05
6.95349e-05
6.95613e-05
6.48282e-05
7.14009e-05
2.1036e-05
2.1041e-05
2.16044e-05
2.16029e-05
2.16054e-05
2.1608e-05
5.35377e-05
6.0217e-05
2.90772e-05
3.69167e-05
6.03328e-05
2.93217e-05
5.33402e-05
6.95601e-05
5.35362e-05
2.90789e-05
3.6918e-05
2.93234e-05
6.03346e-05
5.33393e-05
6.6924e-05
6.69343e-05
4.21526e-05
6.69835e-05
6.69966e-05
6.50507e-05
7.14451e-05
6.49585e-05
7.14797e-05
6.95909e-05
6.96182e-05
6.5055e-05
7.14493e-05
6.49617e-05
7.14866e-05
2.17944e-05
2.17969e-05
2.17996e-05
2.2377e-05
2.23754e-05
2.2378e-05
2.23807e-05
5.39995e-05
6.0505e-05
3.00548e-05
3.78162e-05
5.38107e-05
6.06172e-05
3.02979e-05
6.95895e-05
6.9617e-05
5.39989e-05
3.00566e-05
6.05024e-05
3.78175e-05
5.38093e-05
3.02998e-05
6.06191e-05
6.71003e-05
6.71108e-05
4.28611e-05
6.71577e-05
6.71707e-05
6.52697e-05
7.15299e-05
6.51802e-05
7.15652e-05
6.96489e-05
6.9677e-05
6.52742e-05
7.15347e-05
6.51839e-05
7.1572e-05
2.25711e-05
2.25737e-05
2.25765e-05
2.31649e-05
2.31633e-05
2.3166e-05
2.31688e-05
5.44431e-05
6.07826e-05
3.10255e-05
3.86894e-05
5.42621e-05
6.08909e-05
3.12664e-05
6.96476e-05
6.96758e-05
5.44419e-05
3.10275e-05
6.07806e-05
3.86905e-05
5.42615e-05
3.12684e-05
6.08929e-05
6.72712e-05
6.72821e-05
4.35536e-05
6.7327e-05
6.73397e-05
6.54817e-05
7.16144e-05
6.53958e-05
7.16519e-05
6.97087e-05
6.97375e-05
6.54864e-05
7.16204e-05
6.53986e-05
7.16579e-05
2.33622e-05
2.33649e-05
2.33678e-05
2.39644e-05
2.39627e-05
2.39654e-05
2.39683e-05
5.48681e-05
6.10496e-05
3.19854e-05
3.95351e-05
5.46941e-05
6.11541e-05
3.2223e-05
6.97074e-05
6.97363e-05
5.48672e-05
3.19875e-05
6.10483e-05
3.95362e-05
5.46926e-05
3.22251e-05
6.11558e-05
6.74372e-05
6.74479e-05
4.42198e-05
6.74913e-05
6.75035e-05
6.5686e-05
7.17006e-05
6.56033e-05
7.17382e-05
6.97702e-05
6.97994e-05
6.56919e-05
7.17066e-05
6.56068e-05
7.1744e-05
2.41638e-05
2.41666e-05
2.41695e-05
2.47714e-05
2.47696e-05
2.47726e-05
2.47755e-05
5.5273e-05
6.13065e-05
3.29304e-05
4.0353e-05
5.511e-05
6.14073e-05
3.31637e-05
6.97688e-05
6.97983e-05
5.52743e-05
3.29327e-05
6.13056e-05
4.03542e-05
5.51077e-05
3.31662e-05
6.14089e-05
6.75981e-05
6.76088e-05
4.48625e-05
6.76504e-05
6.76618e-05
6.58834e-05
7.1787e-05
6.58034e-05
7.18247e-05
6.9833e-05
6.98627e-05
6.58901e-05
7.17945e-05
6.58066e-05
7.18299e-05
2.49721e-05
2.49751e-05
2.4978e-05
2.55824e-05
2.55805e-05
2.55837e-05
2.55866e-05
5.56643e-05
6.15535e-05
3.38571e-05
4.11424e-05
5.55068e-05
6.16508e-05
3.40854e-05
6.98316e-05
6.98614e-05
5.56647e-05
3.38597e-05
6.15527e-05
4.11438e-05
5.55059e-05
3.40879e-05
6.16523e-05
6.77537e-05
6.77648e-05
4.54801e-05
6.78041e-05
6.78156e-05
6.60743e-05
7.18736e-05
6.59976e-05
7.19112e-05
6.98969e-05
6.9927e-05
6.60796e-05
7.18811e-05
6.60017e-05
7.19167e-05
2.57833e-05
2.57865e-05
2.57895e-05
2.63936e-05
2.63917e-05
2.6395e-05
2.63979e-05
5.60387e-05
6.17911e-05
3.47624e-05
4.1903e-05
5.58868e-05
6.18849e-05
3.49849e-05
6.98954e-05
6.99256e-05
5.60393e-05
3.47651e-05
6.17907e-05
4.19045e-05
5.58861e-05
3.49876e-05
6.18865e-05
6.79042e-05
6.79152e-05
4.60745e-05
6.7953e-05
6.79643e-05
6.62587e-05
7.19602e-05
6.61845e-05
7.19977e-05
6.99617e-05
6.9992e-05
6.62654e-05
7.19663e-05
6.61893e-05
7.20035e-05
2.6594e-05
2.65974e-05
2.66001e-05
2.72016e-05
2.71998e-05
2.72033e-05
2.72059e-05
5.6398e-05
6.20195e-05
3.56436e-05
4.26349e-05
5.62529e-05
6.21097e-05
3.58599e-05
6.996e-05
6.99906e-05
5.6398e-05
3.56464e-05
6.2019e-05
4.26364e-05
5.6252e-05
3.58628e-05
6.2111e-05
6.80494e-05
6.8061e-05
4.66456e-05
6.80968e-05
6.81085e-05
6.64377e-05
7.20465e-05
6.63655e-05
7.20837e-05
7.00272e-05
7.00578e-05
6.64444e-05
7.20538e-05
6.63687e-05
7.2089e-05
2.74008e-05
2.74043e-05
2.74068e-05
2.80032e-05
2.80016e-05
2.80051e-05
2.80076e-05
5.67432e-05
6.22384e-05
3.64989e-05
4.3338e-05
5.66016e-05
6.23254e-05
3.67083e-05
7.00255e-05
7.00563e-05
5.67423e-05
3.65017e-05
6.22387e-05
4.33394e-05
5.66016e-05
3.67111e-05
6.23265e-05
6.81902e-05
6.82018e-05
4.71945e-05
6.82359e-05
6.82477e-05
6.6611e-05
7.2134e-05
6.65402e-05
7.21694e-05
7.00933e-05
7.0124e-05
6.66147e-05
7.21398e-05
6.65452e-05
7.21752e-05
2.82005e-05
2.82041e-05
2.82063e-05
2.87955e-05
2.87942e-05
2.87977e-05
2.88e-05
5.70718e-05
6.24484e-05
3.73257e-05
4.40124e-05
5.69374e-05
6.25319e-05
3.75278e-05
7.00915e-05
7.01224e-05
5.70704e-05
3.73287e-05
6.2449e-05
4.40138e-05
5.69387e-05
3.75308e-05
6.25333e-05
6.83261e-05
6.83379e-05
4.7714e-05
6.83701e-05
6.83821e-05
6.67776e-05
7.22186e-05
6.67093e-05
7.22553e-05
7.01598e-05
7.01906e-05
6.67817e-05
7.22243e-05
6.67143e-05
7.2261e-05
2.89904e-05
2.8994e-05
2.8996e-05
2.95758e-05
2.95749e-05
2.95785e-05
2.95806e-05
5.73884e-05
6.26501e-05
3.8123e-05
4.46585e-05
5.72584e-05
6.27305e-05
3.83176e-05
7.01579e-05
7.0189e-05
5.73861e-05
3.81259e-05
6.26507e-05
4.46598e-05
5.72606e-05
3.83204e-05
6.27318e-05
6.84575e-05
6.84691e-05
4.82182e-05
6.85001e-05
6.85116e-05
6.69394e-05
7.23048e-05
6.6872e-05
7.23399e-05
7.02265e-05
7.02575e-05
6.6942e-05
7.23105e-05
6.68776e-05
7.23452e-05
2.97677e-05
2.97713e-05
2.97731e-05
3.03418e-05
3.03412e-05
3.03448e-05
3.03467e-05
5.76912e-05
6.28438e-05
3.88896e-05
4.52764e-05
5.75672e-05
6.29211e-05
3.90764e-05
7.02247e-05
7.02558e-05
5.76898e-05
3.88922e-05
6.28447e-05
4.52775e-05
5.75657e-05
3.90789e-05
6.29219e-05
6.85843e-05
6.8596e-05
4.87041e-05
6.86251e-05
6.86369e-05
6.70946e-05
7.23883e-05
6.70289e-05
7.24248e-05
7.02935e-05
7.03245e-05
6.70986e-05
7.2395e-05
6.70351e-05
7.24296e-05
3.053e-05
3.05336e-05
3.05352e-05
3.1091e-05
3.10908e-05
3.10945e-05
3.10961e-05
5.79806e-05
6.30291e-05
3.96246e-05
4.58663e-05
5.7862e-05
6.3103e-05
3.98035e-05
7.02916e-05
7.03228e-05
5.79794e-05
3.96271e-05
6.30294e-05
4.58675e-05
5.78599e-05
3.9806e-05
6.31041e-05
6.87066e-05
6.87182e-05
4.91717e-05
6.87461e-05
6.87575e-05
6.72439e-05
7.2472e-05
6.71808e-05
7.25077e-05
7.03605e-05
7.03914e-05
6.72479e-05
7.24775e-05
6.71845e-05
7.25132e-05
3.12751e-05
3.12788e-05
3.12801e-05
3.18217e-05
3.18218e-05
3.18255e-05
3.1827e-05
5.82544e-05
6.32057e-05
4.03277e-05
4.64288e-05
5.81434e-05
6.32762e-05
4.04986e-05
7.03586e-05
7.03898e-05
5.82551e-05
4.03301e-05
6.32063e-05
4.64299e-05
5.81413e-05
4.0501e-05
6.32776e-05
6.88243e-05
6.88359e-05
4.96083e-05
6.88623e-05
6.88738e-05
6.73871e-05
7.25558e-05
6.73265e-05
7.25894e-05
7.04273e-05
7.04581e-05
6.73907e-05
7.25614e-05
6.73302e-05
7.25947e-05
3.20011e-05
3.20048e-05
3.20059e-05
3.25322e-05
3.25326e-05
3.25362e-05
3.25375e-05
5.85177e-05
6.33741e-05
4.09986e-05
4.6964e-05
5.84117e-05
6.34414e-05
4.11616e-05
7.04255e-05
7.04566e-05
5.85163e-05
4.10011e-05
6.33751e-05
4.69651e-05
5.84094e-05
4.1164e-05
6.34426e-05
6.89371e-05
6.8949e-05
5.00282e-05
6.89738e-05
6.89852e-05
6.75237e-05
7.26373e-05
6.74661e-05
7.26704e-05
7.04938e-05
7.05245e-05
6.75279e-05
7.26429e-05
6.74697e-05
7.26759e-05
3.27065e-05
3.27101e-05
3.2711e-05
3.32209e-05
3.32215e-05
3.3225e-05
3.32262e-05
5.87672e-05
6.35347e-05
4.16376e-05
4.74728e-05
5.86644e-05
6.35987e-05
4.17926e-05
7.04922e-05
7.05231e-05
5.87644e-05
4.16399e-05
6.35356e-05
4.74737e-05
5.86651e-05
4.1795e-05
6.35992e-05
6.90454e-05
6.90573e-05
5.04201e-05
6.90806e-05
6.90919e-05
6.76539e-05
7.27176e-05
6.75995e-05
7.27504e-05
7.056e-05
7.05905e-05
6.76572e-05
7.27233e-05
6.7604e-05
7.27557e-05
3.33897e-05
3.33932e-05
3.3394e-05
3.38865e-05
3.38873e-05
3.38907e-05
3.38918e-05
5.90034e-05
6.36872e-05
4.22445e-05
4.79551e-05
5.89056e-05
6.37478e-05
4.23916e-05
7.05585e-05
7.05892e-05
5.90001e-05
4.22466e-05
6.36875e-05
4.79559e-05
5.89062e-05
4.23936e-05
6.37479e-05
6.9149e-05
6.91609e-05
5.08035e-05
6.91824e-05
6.91938e-05
6.77778e-05
7.27955e-05
6.77256e-05
7.28293e-05
7.06258e-05
7.0656e-05
6.77805e-05
7.28022e-05
6.77312e-05
7.28339e-05
3.40494e-05
3.40528e-05
3.40535e-05
3.45279e-05
3.45288e-05
3.4532e-05
3.45331e-05
5.92244e-05
6.38315e-05
4.28195e-05
4.84115e-05
5.91337e-05
6.38887e-05
4.29589e-05
7.06243e-05
7.06547e-05
5.92232e-05
4.28215e-05
6.38316e-05
4.8412e-05
5.91313e-05
4.29608e-05
6.38887e-05
6.92477e-05
6.92596e-05
5.11618e-05
6.92798e-05
6.9291e-05
6.78938e-05
7.28728e-05
6.78465e-05
7.29055e-05
7.06909e-05
7.07208e-05
6.78977e-05
7.28795e-05
6.78511e-05
7.29106e-05
3.46846e-05
3.46878e-05
3.46886e-05
3.51441e-05
3.51451e-05
3.51482e-05
3.51492e-05
5.9434e-05
6.39674e-05
4.33632e-05
4.88422e-05
5.93475e-05
6.40214e-05
4.34949e-05
7.06895e-05
7.07196e-05
5.94318e-05
4.3365e-05
6.39679e-05
4.88428e-05
5.93458e-05
4.34966e-05
6.40214e-05
6.93419e-05
6.93536e-05
5.14999e-05
6.93722e-05
6.93834e-05
6.80039e-05
7.29493e-05
6.79591e-05
7.29798e-05
7.07553e-05
7.07849e-05
6.80082e-05
7.29551e-05
6.79638e-05
7.29853e-05
3.52944e-05
3.52976e-05
3.52982e-05
3.57345e-05
3.57355e-05
3.57385e-05
3.57394e-05
5.96295e-05
6.40953e-05
4.38759e-05
4.92479e-05
5.95485e-05
6.41459e-05
4.4e-05
7.07539e-05
7.07837e-05
5.96278e-05
4.38775e-05
6.40955e-05
4.92484e-05
5.95473e-05
4.40016e-05
6.41468e-05
6.94314e-05
6.94431e-05
5.18188e-05
6.94603e-05
6.94712e-05
6.81067e-05
7.30231e-05
6.80652e-05
7.30527e-05
7.08189e-05
7.0848e-05
6.81124e-05
7.30288e-05
6.80685e-05
7.30586e-05
3.58781e-05
3.58812e-05
3.58818e-05
3.62983e-05
3.62993e-05
3.63023e-05
3.63031e-05
5.98122e-05
6.42153e-05
4.43583e-05
4.9629e-05
5.97369e-05
6.42627e-05
4.44749e-05
7.08174e-05
7.08469e-05
5.98105e-05
4.43598e-05
6.42159e-05
4.96295e-05
5.97355e-05
4.44764e-05
6.42637e-05
6.95161e-05
6.95276e-05
5.21222e-05
6.95427e-05
6.95544e-05
6.82031e-05
7.3095e-05
6.81645e-05
7.31238e-05
7.08815e-05
7.09102e-05
6.82088e-05
7.30996e-05
6.81675e-05
7.31304e-05
3.64351e-05
3.64381e-05
3.64387e-05
3.68352e-05
3.68361e-05
3.68391e-05
3.68399e-05
5.99803e-05
6.43277e-05
4.48105e-05
4.99858e-05
5.99132e-05
6.43718e-05
4.492e-05
7.08801e-05
7.09091e-05
5.99809e-05
4.48122e-05
6.43283e-05
4.99865e-05
5.99112e-05
4.49217e-05
6.43731e-05
6.95962e-05
6.96073e-05
5.24059e-05
6.96211e-05
6.96329e-05
6.82926e-05
7.31648e-05
6.82569e-05
7.3193e-05
7.09431e-05
7.09715e-05
6.82984e-05
7.31703e-05
6.826e-05
7.31985e-05
3.6965e-05
3.69681e-05
3.69686e-05
3.73448e-05
3.73456e-05
3.73486e-05
3.73494e-05
6.01381e-05
6.44325e-05
4.52339e-05
5.03191e-05
6.00768e-05
6.44734e-05
4.53363e-05
7.09418e-05
7.09704e-05
6.01391e-05
4.52355e-05
6.44333e-05
5.03198e-05
6.0074e-05
4.53379e-05
6.44748e-05
6.96713e-05
6.96826e-05
5.26707e-05
6.96954e-05
6.97064e-05
6.83756e-05
7.32328e-05
6.83425e-05
7.32601e-05
7.10038e-05
7.10318e-05
6.83812e-05
7.32384e-05
6.83457e-05
7.32655e-05
3.74676e-05
3.74707e-05
3.74713e-05
3.78269e-05
3.78277e-05
3.78308e-05
3.78317e-05
6.02846e-05
6.45299e-05
4.56288e-05
5.06293e-05
6.02277e-05
6.4568e-05
4.57243e-05
7.10024e-05
7.10306e-05
6.02849e-05
4.56305e-05
6.45308e-05
5.06301e-05
6.02248e-05
4.57259e-05
6.45692e-05
6.97419e-05
6.97538e-05
5.29173e-05
6.97648e-05
6.97758e-05
6.84519e-05
7.32974e-05
6.84215e-05
7.33257e-05
7.10636e-05
7.1091e-05
6.84572e-05
7.33043e-05
6.84244e-05
7.33308e-05
3.79429e-05
3.7946e-05
3.79466e-05
3.82817e-05
3.82826e-05
3.82856e-05
3.82866e-05
6.04192e-05
6.462e-05
4.59959e-05
5.0917e-05
6.03638e-05
6.46551e-05
4.60847e-05
7.1062e-05
7.10897e-05
6.04186e-05
4.59977e-05
6.46209e-05
5.09179e-05
6.03634e-05
4.60865e-05
6.46561e-05
6.98083e-05
6.98198e-05
5.31465e-05
6.98294e-05
6.98409e-05
6.85215e-05
7.33626e-05
6.84939e-05
7.33882e-05
7.11222e-05
7.11493e-05
6.85267e-05
7.33671e-05
6.84966e-05
7.33946e-05
3.83909e-05
3.8394e-05
3.83948e-05
3.87093e-05
3.87104e-05
3.87134e-05
3.87145e-05
6.05415e-05
6.47031e-05
4.63363e-05
5.11829e-05
6.04907e-05
6.47352e-05
4.64185e-05
7.11205e-05
7.11477e-05
6.05405e-05
4.63381e-05
6.47034e-05
5.11836e-05
6.04901e-05
4.64203e-05
6.47358e-05
6.98701e-05
6.98816e-05
5.33583e-05
6.98896e-05
6.99012e-05
6.85848e-05
7.34246e-05
6.85597e-05
7.34495e-05
7.11798e-05
7.12063e-05
6.85884e-05
7.343e-05
6.85623e-05
7.34548e-05
3.8812e-05
3.8815e-05
3.88159e-05
3.911e-05
3.91114e-05
3.91143e-05
3.91156e-05
6.06518e-05
6.47792e-05
4.66505e-05
5.14275e-05
6.06058e-05
6.48084e-05
4.67263e-05
7.11779e-05
7.12046e-05
6.06509e-05
4.66523e-05
6.4779e-05
5.1428e-05
6.06052e-05
4.67281e-05
6.48085e-05
6.99273e-05
6.9939e-05
5.35428e-05
6.99455e-05
6.99572e-05
6.8642e-05
7.34834e-05
6.86194e-05
7.35094e-05
7.12362e-05
7.12621e-05
6.86451e-05
7.349e-05
6.86225e-05
7.35141e-05
3.92066e-05
3.92094e-05
3.92106e-05
3.94844e-05
3.94863e-05
3.94888e-05
3.94905e-05
6.07512e-05
6.48486e-05
4.69394e-05
5.16512e-05
6.07094e-05
6.48749e-05
4.70089e-05
7.12341e-05
7.12603e-05
6.07503e-05
4.69413e-05
6.48475e-05
5.16515e-05
6.07089e-05
4.70107e-05
6.48744e-05
6.99805e-05
6.99922e-05
5.37237e-05
6.99974e-05
7.00092e-05
6.86936e-05
7.35415e-05
6.86732e-05
7.35664e-05
7.12912e-05
7.13166e-05
6.86961e-05
7.35469e-05
6.86758e-05
7.3572e-05
3.95751e-05
3.95776e-05
3.95792e-05
3.9833e-05
3.98355e-05
3.98377e-05
3.98398e-05
6.08401e-05
6.4911e-05
4.7204e-05
5.1855e-05
6.08024e-05
6.49345e-05
4.72673e-05
7.12891e-05
7.13148e-05
6.08383e-05
4.72059e-05
6.49093e-05
5.18548e-05
6.08016e-05
4.72691e-05
6.49332e-05
7.00296e-05
7.00415e-05
5.38922e-05
7.00452e-05
7.00569e-05
6.87399e-05
7.35984e-05
6.87215e-05
7.36207e-05
7.13447e-05
7.13697e-05
6.87412e-05
7.36028e-05
6.87232e-05
7.3627e-05
3.99184e-05