/*--------------------------------*- C++ -*----------------------------------*\
| =========                 |                                                 |
| \\      /  F ield         | OpenFOAM: The Open Source CFD Toolbox           |
|  \\    /   O peration     | Version:  v2012                                 |
|   \\  /    A nd           | Website:  www.openfoam.com                      |
|    \\/     M anipulation  |                                                 |
\*---------------------------------------------------------------------------*/
FoamFile
{
    version     2.0;
    format      ascii;
    class       volScalarField;
    location    "400";
    object      nut;
}
// * * * * * * * * * * * * * * * * * * * * * * * * * * * * * * * * * * * * * //

dimensions      [0 2 -1 0 0 0 0];


internalField   nonuniform List<scalar> 
85864
(
0.000123054
0.000139421
0.000137079
0.000139424
0.000139427
0.000139411
0.00013709
5.00217e-05
5.00185e-05
9.20856e-05
0.000123049
2.36103e-05
9.38382e-05
2.36132e-05
2.36119e-05
7.37681e-05
7.37669e-05
9.38417e-05
9.38478e-05
0.000134875
0.000121366
5.00145e-05
9.208e-05
0.000134871
9.38343e-05
0.000121366
7.3753e-05
7.37663e-05
2.36121e-05
5.00172e-05
5.00238e-05
7.60411e-05
2.01037e-05
2.01069e-05
5.00206e-05
7.60653e-05
7.61041e-05
2.01049e-05
3.62756e-05
9.21822e-05
8.82423e-05
4.05408e-05
8.83167e-05
4.05478e-05
3.62741e-05
2.36124e-05
2.36153e-05
2.36139e-05
9.74386e-05
0.000112746
7.3805e-05
4.79456e-05
4.79475e-05
0.000112922
9.73901e-05
9.74537e-05
0.000112744
7.38004e-05
4.79348e-05
4.79366e-05
0.000112902
9.73977e-05
7.8881e-05
2.14924e-05
2.14891e-05
2.14944e-05
2.14912e-05
7.88628e-05
2.01052e-05
5.00166e-05
7.60363e-05
7.60779e-05
2.01031e-05
3.62741e-05
9.21776e-05
4.05406e-05
8.82178e-05
4.05476e-05
8.83083e-05
3.62706e-05
9.74458e-05
0.000112729
7.37855e-05
4.79338e-05
4.79357e-05
0.000112892
9.73941e-05
9.74418e-05
0.000112753
7.38054e-05
4.79416e-05
0.000112911
4.7951e-05
9.73835e-05
7.88848e-05
2.14887e-05
2.14921e-05
2.14908e-05
2.14942e-05
7.88614e-05
2.36142e-05
5.00193e-05
0.000120556
0.000119901
0.000130107
0.00013008
0.000137444
0.000130313
0.000130333
0.000119772
0.000119897
0.000130062
0.000130092
0.00013743
0.000130322
0.000130334
0.000119764
0.000120551
0.00012921
0.000122353
9.39865e-05
0.000107773
0.00012254
0.000107965
0.000128852
0.00012907
0.00012239
9.39888e-05
0.000107777
0.000107966
0.000122499
0.000129037
0.000129239
0.000122354
9.39732e-05
0.000107774
0.000107982
0.000122548
0.000128875
0.000133535
0.000121677
0.000117647
0.000135138
0.000117916
0.000135575
0.000133106
0.000129141
0.000122361
9.39637e-05
0.000107767
0.000107955
0.000122516
0.000128979
0.000133389
0.00012167
0.000135256
0.000117634
0.000135491
0.000117901
0.000133249
0.000139427
0.000137108
0.000125852
0.000142552
0.000142548
0.000139543
0.00012881
0.000145641
0.000145635
0.000141925
0.000131905
0.000148684
0.000148679
0.000144247
0.000135118
0.000151679
0.000151674
0.000146515
0.000138428
0.000154618
0.000154612
0.000148704
0.000141815
0.000157496
0.000157491
0.000150884
0.000145262
0.000160312
0.000160308
0.00015299
0.000148752
0.000163064
0.00016306
0.000155034
0.00015227
0.000165751
0.000165747
0.000157045
0.000155801
0.00016837
0.000168366
0.000159011
0.000159333
0.00017092
0.000170914
0.000160886
0.000162851
0.000173398
0.000173393
0.000162663
0.000166345
0.000175805
0.0001758
0.000164383
0.000169805
0.000178138
0.000178134
0.000166067
0.000173221
0.000180398
0.000180393
0.000167716
0.000176585
0.000182582
0.000182577
0.000169281
0.000179889
0.00018469
0.000184684
0.000170771
0.000183126
0.000186721
0.000186715
0.000172226
0.00018629
0.000188675
0.000188668
0.000173599
0.000189373
0.000190552
0.000190545
0.000174922
0.000192372
0.000192351
0.000192344
0.000176173
0.000195282
0.000194072
0.000194066
0.000177372
0.000198098
0.000195718
0.000195711
0.000178521
0.000200817
0.000197286
0.00019728
0.000179611
0.000203438
0.000198779
0.000198773
0.000180644
0.000205959
0.000200198
0.00020019
0.000181612
0.000208377
0.000201541
0.000201533
0.000182615
0.000210694
0.000202811
0.000202801
0.000183433
0.000212908
0.000204009
0.000203998
0.000184211
0.00021502
0.000205137
0.000205125
0.000184978
0.000217032
0.000206197
0.000206185
0.000185675
0.000218945
0.00020719
0.000207178
0.000186323
0.000220761
0.00020812
0.000208107
0.000186943
0.000222482
0.00020899
0.000208974
0.000187502
0.00022411
0.000209788
0.00020977
0.000188005
0.000225648
0.000210524
0.000210506
0.000188462
0.000227093
0.000211202
0.000211184
0.000188845
0.00022845
0.000211821
0.000211805
0.000189215
0.000229719
0.000212386
0.000212373
0.00018955
0.000230898
0.000212896
0.000212887
0.000189891
0.000231988
0.000213349
0.000213345
0.00019014
0.000232988
0.000213747
0.000213749
0.000190333
0.000233889
0.000214092
0.000214094
0.000190531
0.000234676
0.000214385
0.000214384
0.00019069
0.000235361
0.00021463
0.000214626
0.00019082
0.000235906
0.000214744
0.000214739
0.000190955
0.000238171
0.000216326
0.000216323
0.000194487
0.000139137
0.000139413
0.000141771
0.000141759
0.000137159
0.000139142
0.000141774
0.000141757
0.000139443
0.000141775
0.000141788
0.000139219
0.000139446
0.000141769
0.000141791
0.000139231
0.000139634
0.000141513
0.000142549
0.000142538
0.000144869
0.000144857
0.000139582
0.000141506
0.000142553
0.000142536
0.000144872
0.000144853
0.000142566
0.000144873
0.000144883
0.0001395
0.000141601
0.00014257
0.000144867
0.000144888
0.000141664
0.000142047
0.000143978
0.000145637
0.000145626
0.000147922
0.000147913
0.000142042
0.000143909
0.000145641
0.000145621
0.000147926
0.000147907
0.000145651
0.000147929
0.000147936
0.000141918
0.000143979
0.000145656
0.000147923
0.000147941
0.000143964
0.00014428
0.000146253
0.000148679
0.000148669
0.000150929
0.000150918
0.000144361
0.000146137
0.000148683
0.000148664
0.000150934
0.000150913
0.000148693
0.000150935
0.000150941
0.000144282
0.000146226
0.000148698
0.00015093
0.000150946
0.000146234
0.000146535
0.000148496
0.000151673
0.000151663
0.000153881
0.000153871
0.000146649
0.000148344
0.000151678
0.000151658
0.000153887
0.000153866
0.000151685
0.000153888
0.000153894
0.000146485
0.000148448
0.000151689
0.000153883
0.000153899
0.000148468
0.000148773
0.000150637
0.000154609
0.000154601
0.000156772
0.000156764
0.000148843
0.000150529
0.000154616
0.000154595
0.00015678
0.00015676
0.000154622
0.000156782
0.000156786
0.000148724
0.000150617
0.000154628
0.000156778
0.000156791
0.000150635
0.000150869
0.000152739
0.000157486
0.000157478
0.000159602
0.000159595
0.000150951
0.000152658
0.000157494
0.000157473
0.00015961
0.00015959
0.000157499
0.000159614
0.000159614
0.000150887
0.000152722
0.000157504
0.00015961
0.000159621
0.000152753
0.000152993
0.000154782
0.000160299
0.000160293
0.000162368
0.000162363
0.000153085
0.000154813
0.000160309
0.000160288
0.000162377
0.000162358
0.000160312
0.000162383
0.00016238
0.000152964
0.000154755
0.000160319
0.000162379
0.000162388
0.000154805
0.000155015
0.000156791
0.00016305
0.000163045
0.000165069
0.000165067
0.000155042
0.000156771
0.000163059
0.000163039
0.000165079
0.000165059
0.000163061
0.000165087
0.000165081
0.000155022
0.000156684
0.00016307
0.000165082
0.00016509
0.000156802
0.000157046
0.000158711
0.000165733
0.000165732
0.000167703
0.000167702
0.000157104
0.000158671
0.000165744
0.000165725
0.000167713
0.000167694
0.000165746
0.000167723
0.000167716
0.000157115
0.000158623
0.000165755
0.000167718
0.000167725
0.000158684
0.000158952
0.000160511
0.00016835
0.000168349
0.000170267
0.000170268
0.000159017
0.000160551
0.000168361
0.000168342
0.000170278
0.000170259
0.000168364
0.00017029
0.000170282
0.000159035
0.000160606
0.000168373
0.000170284
0.000170291
0.000160531
0.00016089
0.000162333
0.000170897
0.000170898
0.000172762
0.000172763
0.000160905
0.000162353
0.000170908
0.00017089
0.000172774
0.000172756
0.000170912
0.000172786
0.000172777
0.000160824
0.000162417
0.000170921
0.000172781
0.000172787
0.000162441
0.000162706
0.000164118
0.000173375
0.000173375
0.000175187
0.000175187
0.00016268
0.000164114
0.000173387
0.000173368
0.000175199
0.000175181
0.000173389
0.000175212
0.000175201
0.000162623
0.000164168
0.000173399
0.000175207
0.000175211
0.000164186
0.00016441
0.000165877
0.000175781
0.000175781
0.000177538
0.000177539
0.000164435
0.000165834
0.000175793
0.000175775
0.00017755
0.000177532
0.000175795
0.000177563
0.000177552
0.000164373
0.00016583
0.000175805
0.000177559
0.000177563
0.000165888
0.000166077
0.000167513
0.000178113
0.000178114
0.000179815
0.000179817
0.000166104
0.00016747
0.000178126
0.000178108
0.000179827
0.00017981
0.000178127
0.000179842
0.000179829
0.000166093
0.000167472
0.000178138
0.000179837
0.00017984
0.000167487
0.000167711
0.000169078
0.000180372
0.000180373
0.000182018
0.000182019
0.000167745
0.000169033
0.000180384
0.000180367
0.00018203
0.000182013
0.000180385
0.000182045
0.000182032
0.000167729
0.000169035
0.000180397
0.00018204
0.000182043
0.000169062
0.000169239
0.000170578
0.000182555
0.000182556
0.000184146
0.000184146
0.000169311
0.000170613
0.000182568
0.00018255
0.000184157
0.000184139
0.000182569
0.000184173
0.000184157
0.000169298
0.000170568
0.00018258
0.000184168
0.000184169
0.000170616
0.000170799
0.000172034
0.000184664
0.000184664
0.000186197
0.000186198
0.00017078
0.000172061
0.000184676
0.000184656
0.000186208
0.000186188
0.000184675
0.000186224
0.000186208
0.000170791
0.00017202
0.000184687
0.000186218
0.00018622
0.000172067
0.000172222
0.000173458
0.000186694
0.000186696
0.00018817
0.000188171
0.000172219
0.000173444
0.000186707
0.000186687
0.000188182
0.000188162
0.000186706
0.000188199
0.000188181
0.000172237
0.000173427
0.000186718
0.000188192
0.000188194
0.000173455
0.000173606
0.000174796
0.000188648
0.00018865
0.000190067
0.000190068
0.000173627
0.000174779
0.000188661
0.000188641
0.00019008
0.000190058
0.00018866
0.000190095
0.000190077
0.000173613
0.00017476
0.000188672
0.000190088
0.00019009
0.000174796
0.000174917
0.000176084
0.000190525
0.000190526
0.000191886
0.000191887
0.000174945
0.000176083
0.000190539
0.000190517
0.000191899
0.000191877
0.000190535
0.000191915
0.000191896
0.000174942
0.000176011
0.000190548
0.000191908
0.000191909
0.000176088
0.000176168
0.000177308
0.000192324
0.000192326
0.000193628
0.000193629
0.000176202
0.000177313
0.000192338
0.000192316
0.000193642
0.000193619
0.000192335
0.000193657
0.000193638
0.000176234
0.000177221
0.000192348
0.000193651
0.000193652
0.000177311
0.00017737
0.000178468
0.000194046
0.000194047
0.000195293
0.000195293
0.000177385
0.000178416
0.00019406
0.000194038
0.000195307
0.000195284
0.000194057
0.000195323
0.000195303
0.000177454
0.000178384
0.000194071
0.000195316
0.000195317
0.000178472
0.000178519
0.000179569
0.000195692
0.000195693
0.000196882
0.000196882
0.000178574
0.0001795
0.000195706
0.000195684
0.000196897
0.000196873
0.000195702
0.000196912
0.000196892
0.000178601
0.000179489
0.000195717
0.000196905
0.000196907
0.000179574
0.000179608
0.000180606
0.00019726
0.000197262
0.000198395
0.000198396
0.000179699
0.00018055
0.000197276
0.000197253
0.00019841
0.000198386
0.000197271
0.000198425
0.000198405
0.000179688
0.000180541
0.000197286
0.000198418
0.000198421
0.000180618
0.000180633
0.000181529
0.000198753
0.000198756
0.000199832
0.000199834
0.00018071
0.000181615
0.000198769
0.000198746
0.000199847
0.000199823
0.000198764
0.000199863
0.000199843
0.000180691
0.00018156
0.00019878
0.000199856
0.000199859
0.000181594
0.000181694
0.00018249
0.000200171
0.000200175
0.000201194
0.000201197
0.000181632
0.000182506
0.000200187
0.000200164
0.000201209
0.000201185
0.000200183
0.000201227
0.000201206
0.000181652
0.000182459
0.000200199
0.000201218
0.000201222
0.000182469
0.000182564
0.000183403
0.000201514
0.000201519
0.000202481
0.000202486
0.000182556
0.000183349
0.000201529
0.000201507
0.000202496
0.000202472
0.000201528
0.000202515
0.000202495
0.000182609
0.000183328
0.000201545
0.000202505
0.000202511
0.000183368
0.000183398
0.000184222
0.000202784
0.00020279
0.000203696
0.000203701
0.000183486
0.00018417
0.000202798
0.000202776
0.00020371
0.000203685
0.000202799
0.000203729
0.00020371
0.000183466
0.00018415
0.000202816
0.000203718
0.000203727
0.000184231
0.000184207
0.000184967
0.000203983
0.00020399
0.000204839
0.000204845
0.00018429
0.00018497
0.000203996
0.000203973
0.000204851
0.000204827
0.000203998
0.000204871
0.000204854
0.00018427
0.00018495
0.000204015
0.000204859
0.00020487
0.000184973
0.000184969
0.000185669
0.000205111
0.000205119
0.00020591
0.000205917
0.000185001
0.000185677
0.000205124
0.000205101
0.000205921
0.000205898
0.000205128
0.00020594
0.000205925
0.000184981
0.000185658
0.000205144
0.000205929
0.000205942
0.000185682
0.000185674
0.000186316
0.000206172
0.000206181
0.000206911
0.000206918
0.000185697
0.000186332
0.000206184
0.000206162
0.000206922
0.000206899
0.000206189
0.00020694
0.000206926
0.000185679
0.000186314
0.000206206
0.000206928
0.000206942
0.000186344
0.000186335
0.000186936
0.000207168
0.000207177
0.000207846
0.000207854
0.000186352
0.00018695
0.00020718
0.000207158
0.000207857
0.000207834
0.000207185
0.000207873
0.000207861
0.000186334
0.000186931
0.000207201
0.00020786
0.000207876
0.000186938
0.000186944
0.000187511
0.0002081
0.000208108
0.000208719
0.000208728
0.000186957
0.000187524
0.000208111
0.000208088
0.000208731
0.000208706
0.000208115
0.000208746
0.000208733
0.000186932
0.000187501
0.00020813
0.00020873
0.000208748
0.00018751
0.000187501
0.000188027
0.000208966
0.000208975
0.000209532
0.000209541
0.000187515
0.000188041
0.000208978
0.000208954
0.000209544
0.000209519
0.00020898
0.000209557
0.000209545
0.000187489
0.000188014
0.000208995
0.000209538
0.000209559
0.000188029
0.000188002
0.000188494
0.000209768
0.000209777
0.000210282
0.000210293
0.000188016
0.000188508
0.000209782
0.000209757
0.000210295
0.00021027
0.000209781
0.000210308
0.000210296
0.000187992
0.000188524
0.000209796
0.000210288
0.00021031
0.000188497
0.000188457
0.00018892
0.000210507
0.000210516
0.000210979
0.000210988
0.000188472
0.000188935
0.000210521
0.000210496
0.000210993
0.000210966
0.000210518
0.000211
0.00021099
0.000188418
0.000188951
0.000210532
0.000210981
0.000211003
0.000188969
0.000188874
0.000189308
0.000211184
0.000211193
0.000211621
0.000211628
0.000188888
0.00018932
0.000211199
0.000211174
0.000211636
0.000211611
0.000211199
0.000211639
0.00021163
0.000188835
0.000189339
0.000211212
0.000211622
0.000211644
0.000189348
0.000189251
0.000189656
0.000211807
0.000211816
0.000212209
0.000212212
0.000189269
0.000189703
0.000211823
0.000211798
0.000212226
0.0002122
0.000211819
0.000212223
0.000212216
0.000189213
0.00018965
0.000211834
0.000212208
0.00021223
0.000189693
0.000189589
0.000190004
0.000212372
0.000212381
0.000212742
0.000212743
0.000189568
0.000190005
0.00021239
0.000212363
0.000212762
0.000212733
0.000212384
0.000212752
0.000212749
0.000189584
0.000189954
0.000212399
0.000212739
0.000212761
0.000189968
0.000189851
0.000190267
0.000212886
0.000212889
0.000213219
0.000213223
0.00018986
0.000190271
0.000212902
0.000212877
0.000213244
0.00021321
0.000212889
0.000213229
0.00021323
0.000189878
0.000190261
0.000212909
0.00021322
0.000213238
0.000190223
0.000190113
0.000190509
0.000213346
0.000213339
0.000213643
0.000213648
0.000190131
0.000190469
0.000213359
0.000213337
0.000213672
0.000213634
0.000213344
0.000213659
0.000213653
0.000190101
0.0001905
0.000213365
0.000213647
0.00021366
0.000190507
0.000190341
0.000190725
0.00021375
0.000213738
0.000214013
0.000214016
0.000190365
0.000190684
0.000213762
0.00021374
0.000214044
0.000214002
0.000213742
0.00021403
0.000214019
0.000190334
0.000190706
0.000213767
0.000214017
0.000214026
0.000190717
0.000190554
0.000190887
0.000214094
0.000214079
0.000214316
0.000214314
0.000190575
0.000190844
0.000214108
0.000214082
0.000214343
0.000214306
0.000214083
0.000214329
0.000214314
0.000190571
0.000190881
0.000214108
0.000214319
0.000214325
0.000190831
0.000190704
0.000191009
0.000214385
0.000214371
0.000214571
0.000214561
0.000190723
0.000190923
0.000214404
0.000214369
0.000214595
0.000214558
0.000214372
0.00021458
0.00021456
0.000190686
0.000190994
0.000214394
0.000214572
0.000214575
0.000190966
0.000190821
0.000191116
0.000214629
0.000214615
0.00021486
0.000214846
0.000190866
0.00019105
0.000214649
0.000214612
0.000214883
0.000214846
0.000214614
0.000214866
0.000214845
0.000190806
0.000191099
0.000214632
0.000214863
0.000214863
0.000191047
0.000190935
0.000192558
0.000214743
0.000214727
0.000217392
0.00021738
0.000190956
0.000192448
0.000214766
0.000214724
0.000217414
0.000217386
0.000214722
0.000217393
0.000217381
0.000190921
0.000192434
0.000214741
0.000217388
0.0002174
0.00019257
0.000194493
0.000216278
0.000216333
0.000194621
0.000216296
0.000216257
0.000238117
0.000238127
0.000238128
0.000216229
0.000194618
0.000216245
9.22969e-05
5.00311e-05
9.20801e-05
2.36122e-05
2.36168e-05
9.23028e-05
5.00278e-05
0.000123048
0.00012307
0.000125137
0.00012513
0.000125132
0.000125153
0.000122014
9.38472e-05
0.000134877
0.000140211
9.41252e-05
0.000135743
0.000121374
2.36148e-05
0.000122009
0.00013488
0.000140206
0.000135746
9.41316e-05
0.000121368
7.37697e-05
7.37685e-05
0.000138068
7.38681e-05
7.38679e-05
9.27717e-05
5.00511e-05
9.25593e-05
5.00607e-05
2.36218e-05
2.36264e-05
9.27793e-05
5.00446e-05
9.25658e-05
5.00603e-05
0.000125846
0.000125847
0.000125869
0.000128057
0.00012805
0.000128052
0.000128073
0.000123324
9.44488e-05
0.000138376
0.000143329
0.000122709
9.47325e-05
0.000139252
2.36198e-05
2.36244e-05
0.000123321
0.000138381
9.44381e-05
0.000143324
0.0001227
0.000139256
9.47268e-05
7.40335e-05
7.40332e-05
0.00014044
7.41287e-05
7.41299e-05
9.32272e-05
5.00808e-05
9.30227e-05
5.00914e-05
2.36316e-05
2.36364e-05
9.32334e-05
5.00748e-05
9.30339e-05
5.00902e-05
0.000128803
0.000128805
0.000128826
0.00013112
0.000131113
0.000131115
0.000131136
0.000124592
9.50302e-05
0.000141905
0.000146406
0.000123997
9.53016e-05
0.000142786
2.36297e-05
2.36344e-05
0.000124587
0.00014191
9.50219e-05
0.000146401
0.000123994
0.00014279
9.52962e-05
7.42878e-05
7.42854e-05
0.000142815
7.43792e-05
7.43814e-05
9.36666e-05
5.01078e-05
9.34708e-05
5.01233e-05
2.36417e-05
2.36466e-05
9.36752e-05
5.01048e-05
9.34748e-05
5.01202e-05
0.000131898
0.0001319
0.000131922
0.000134305
0.000134298
0.0001343
0.000134321
0.000125817
9.55915e-05
0.000145446
0.000149438
0.00012524
9.58541e-05
0.000146327
2.36398e-05
2.36447e-05
0.000125812
0.000145451
9.55933e-05
0.000149432
0.000125232
0.000146332
9.58477e-05
7.45327e-05
7.45294e-05
0.000145119
7.46207e-05
7.4624e-05
9.40886e-05
5.0138e-05
9.39025e-05
5.01535e-05
2.36522e-05
2.36571e-05
9.40991e-05
5.01348e-05
9.3907e-05
5.01496e-05
0.000135111
0.000135113
0.000135134
0.000137593
0.000137585
0.000137588
0.000137609
0.000126989
9.6132e-05
0.000148981
0.000152419
0.00012645
9.63859e-05
0.000149859
2.36502e-05
2.36552e-05
0.000126995
0.000148987
9.61345e-05
0.000152414
0.000126436
0.000149865
9.63827e-05
7.47681e-05
7.4765e-05
0.000147374
7.48502e-05
7.48526e-05
9.44935e-05
5.01682e-05
9.43113e-05
5.01837e-05
2.36628e-05
2.36679e-05
9.4505e-05
5.01681e-05
9.43191e-05
5.0178e-05
0.00013842
0.000138423
0.000138444
0.000140962
0.000140955
0.000140958
0.000140979
0.000128137
9.66533e-05
0.000152496
0.000155343
0.00012761
9.68976e-05
0.000153367
2.36609e-05
2.36659e-05
0.000128139
0.000152502
9.66528e-05
0.000155338
0.000127602
0.000153372
9.6895e-05
7.49959e-05
7.49924e-05
0.000149566
7.50722e-05
7.50746e-05
9.48838e-05
5.01985e-05
9.47116e-05
5.02139e-05
2.36736e-05
2.36788e-05
9.48986e-05
5.01987e-05
9.47174e-05
5.02093e-05
0.000141807
0.000141811
0.000141832
0.000144396
0.000144389
0.000144393
0.000144413
0.000129245
9.7155e-05
0.000155977
0.000158206
0.000128729
9.73915e-05
0.000156838
2.36717e-05
2.36768e-05
0.000129246
0.000155983
9.71548e-05
0.000158202
0.000128724
0.000156844
9.73944e-05
7.52117e-05
7.52088e-05
0.000151705
7.52859e-05
7.52874e-05
9.52593e-05
5.02287e-05
9.50929e-05
5.0244e-05
2.36848e-05
2.36899e-05
9.52716e-05
5.02258e-05
9.51022e-05
5.02404e-05
0.000145254
0.000145259
0.000145279
0.000147878
0.00014787
0.000147875
0.000147893
0.000130317
9.76417e-05
0.000159412
0.000161007
0.000129822
9.78606e-05
0.00016026
2.36826e-05
2.36878e-05
0.000130317
0.000159418
9.76334e-05
0.000161003
0.000129815
0.000160267
9.78637e-05
7.54194e-05
7.54173e-05
0.000153785
7.54904e-05
7.54945e-05
9.56228e-05
5.02588e-05
9.54612e-05
5.02733e-05
2.36959e-05
2.3701e-05
9.5637e-05
5.02588e-05
9.54658e-05
5.02688e-05
0.000148745
0.00014875
0.000148768
0.00015139
0.000151384
0.000151388
0.000151406
0.000131359
9.81023e-05
0.00016279
0.000163743
0.000130868
9.83173e-05
0.000163623
2.36937e-05
2.36989e-05
0.000131353
0.000162796
9.81041e-05
0.000163739
0.000130867
0.000163628
9.83163e-05
7.56189e-05
7.56153e-05
0.000155809
7.56863e-05
7.56886e-05
9.59744e-05
5.02918e-05
9.5815e-05
5.03024e-05
2.37071e-05
2.37122e-05
9.59793e-05
5.02888e-05
9.58257e-05
5.02996e-05
0.000152264
0.000152269
0.000152286
0.000154919
0.000154914
0.000154919
0.000154936
0.000132359
9.85465e-05
0.0001661
0.000166413
0.000131888
9.87557e-05
0.000166915
2.37049e-05
2.371e-05
0.000132349
0.000166106
9.85523e-05
0.000166409
0.000131893
0.000166921
9.87546e-05
7.58094e-05
7.58063e-05
0.000157719
7.58741e-05
7.58772e-05
9.63085e-05
5.03188e-05
9.61556e-05
5.03332e-05
2.37183e-05
2.37235e-05
9.63164e-05
5.03158e-05
9.61672e-05
5.03302e-05
0.000155797
0.000155801
0.000155818
0.000158452
0.000158449
0.000158453
0.000158469
0.000133331
9.89734e-05
0.000169338
0.000169015
0.000132873
9.91772e-05
0.000170136
2.37161e-05
2.37213e-05
0.000133322
0.000169343
9.89781e-05
0.00016901
0.000132881
0.000170141
9.91767e-05
7.59922e-05
7.59894e-05
0.000159623
7.60554e-05
7.60555e-05
9.66354e-05
5.0351e-05
9.64818e-05
5.03619e-05
2.37296e-05
2.37348e-05
9.66364e-05
5.03482e-05
9.64971e-05
5.03581e-05
0.00015933
0.000159334
0.00015935
0.000161976
0.000161974
0.000161979
0.000161993
0.000134269
9.93854e-05
0.0001725
0.000171548
0.00013383
9.95807e-05
0.000173279
2.37273e-05
2.37326e-05
0.000134267
0.000172504
9.93901e-05
0.000171542
0.000133821
0.000173282
9.95785e-05
7.61658e-05
7.61645e-05
0.000161494
7.62287e-05
7.6228e-05
9.69449e-05
5.0378e-05
9.67925e-05
5.03927e-05
2.37409e-05
2.37461e-05
9.69519e-05
5.03777e-05
9.68116e-05
5.03881e-05
0.00016285
0.000162855
0.000162869
0.000165477
0.000165477
0.000165482
0.000165495
0.000135174
9.97813e-05
0.000175583
0.000174008
0.000134751
9.99646e-05
0.000176341
2.37387e-05
2.37439e-05
0.000135171
0.000175586
9.9784e-05
0.000174003
0.000134739
0.000176345
9.99667e-05
7.63323e-05
7.63317e-05
0.00016333
7.63936e-05
7.63914e-05
9.72436e-05
5.04071e-05
9.7095e-05
5.04209e-05
2.37522e-05
2.37574e-05
9.72507e-05
5.04039e-05
9.71011e-05
5.04179e-05
0.000166345
0.00016635
0.000166363
0.000168947
0.000168947
0.000168952
0.000168965
0.000136036
0.000100156
0.000178582
0.000176397
0.000135639
0.000100333
0.000179321
2.375e-05
2.37552e-05
0.000136043
0.000178586
0.000100158
0.000176393
0.000135626
0.000179325
0.000100335
7.64919e-05
7.64913e-05
0.000165039
7.65506e-05
7.65496e-05
9.75253e-05
5.04384e-05
9.73831e-05
5.0448e-05
2.37635e-05
2.37687e-05
9.75334e-05
5.04356e-05
9.73909e-05
5.04447e-05
0.000169806
0.000169811
0.000169823
0.000172375
0.000172377
0.000172382
0.000172394
0.000136875
0.000100514
0.000181499
0.000178712
0.000136494
0.000100685
0.000182218
2.37612e-05
2.37665e-05
0.000136871
0.000181503
0.000100517
0.000178707
0.000136481
0.000182221
0.000100686
7.6643e-05
7.66433e-05
0.000166713
7.67001e-05
7.66979e-05
9.77945e-05
5.04667e-05
9.76593e-05
5.04762e-05
2.37747e-05
2.37799e-05
9.78035e-05
5.04638e-05
9.76678e-05
5.0473e-05
0.000173223
0.000173228
0.00017324
0.000175754
0.000175757
0.000175761
0.000175772
0.000137679
0.000100857
0.000184332
0.000180953
0.000137305
0.00010102
0.000185029
2.37725e-05
2.37777e-05
0.000137667
0.000184335
0.00010086
0.000180948
0.000137307
0.000185032
0.000101019
7.6787e-05
7.67879e-05
0.000168272
7.68411e-05
7.68386e-05
9.80502e-05
5.04946e-05
9.79227e-05
5.05045e-05
2.37858e-05
2.3791e-05
9.80541e-05
5.04916e-05
9.79355e-05
5.05007e-05
0.000176588
0.000176593
0.000176604
0.000179075
0.000179078
0.000179083
0.000179093
0.000138451
0.000101182
0.000187077
0.000183119
0.000138083
0.000101339
0.000187753
2.37836e-05
2.37889e-05
0.000138432
0.000187079
0.000101184
0.000183114
0.000138091
0.000187754
0.000101336
7.69234e-05
7.69246e-05
0.000169858
7.69744e-05
7.69716e-05
9.82923e-05
5.05195e-05
9.81715e-05
5.05332e-05
2.3797e-05
2.3802e-05
9.82947e-05
5.0519e-05
9.81877e-05
5.05278e-05
0.000179894
0.000179897
0.000179908
0.000182331
0.000182335
0.000182338
0.000182348
0.000139176
0.00010149
0.000189733
0.000185209
0.00013883
0.000101639
0.000190387
2.37947e-05
2.37999e-05
0.000139168
0.000189734
0.000101492
0.000185202
0.000138826
0.000190389
0.000101637
7.70519e-05
7.70533e-05
0.000171344
7.71013e-05
7.70975e-05
9.85181e-05
5.05463e-05
9.84098e-05
5.05591e-05
2.38079e-05
2.38129e-05
9.85242e-05
5.05458e-05
9.84215e-05
5.05544e-05
0.000183131
0.000183135
0.000183145
0.000185515
0.000185519
0.000185522
0.000185531
0.000139874
0.000101782
0.000192299
0.000187221
0.000139536
0.000101922
0.000192933
2.38057e-05
2.38108e-05
0.000139866
0.0001923
0.000101784
0.000187215
0.000139532
0.000192933
0.000101921
7.71735e-05
7.71744e-05
0.000172765
7.72191e-05
7.72161e-05
9.87334e-05
5.05748e-05
9.86299e-05
5.05835e-05
2.38187e-05
2.38237e-05
9.87408e-05
5.0572e-05
9.86419e-05
5.05803e-05
0.000186296
0.000186298
0.000186309
0.000188621
0.000188625
0.000188627
0.000188637
0.000140533
0.000102057
0.000194777
0.000189157
0.000140213
0.000102188
0.000195388
2.38165e-05
2.38216e-05
0.000140528
0.000194777
0.000102057
0.00018915
0.000140209
0.000195389
0.00010219
7.72877e-05
7.72884e-05
0.000174126
7.73311e-05
7.73276e-05
9.89335e-05
5.06004e-05
9.88381e-05
5.06087e-05
2.38294e-05
2.38343e-05
9.89469e-05
5.05975e-05
9.88437e-05
5.06063e-05
0.00018938
0.000189382
0.000189392
0.000191643
0.000191648
0.000191649
0.000191658
0.000141157
0.000102315
0.000197164
0.000191015
0.000140855
0.000102439
0.000197755
2.38272e-05
2.38322e-05
0.000141152
0.000197164
0.000102317
0.000191008
0.00014085
0.000197755
0.000102441
7.73947e-05
7.73946e-05
0.000175451
7.7433e-05
7.74327e-05
9.91209e-05
5.06253e-05
9.90325e-05
5.06333e-05
2.38399e-05
2.38447e-05
9.91344e-05
5.06198e-05
9.90363e-05
5.06325e-05
0.000192379
0.000192381
0.000192391
0.000194578
0.000194582
0.000194583
0.000194592
0.000141731
0.000102558
0.000199461
0.000192796
0.000141468
0.000102674
0.000200031
2.38377e-05
2.38426e-05
0.000141742
0.000199462
0.000102559
0.000192789
0.000141457
0.000200032
0.000102677
7.74952e-05
7.7493e-05
0.000176709
7.75302e-05
7.75304e-05
9.92952e-05
5.06493e-05
9.9213e-05
5.06572e-05
2.38502e-05
2.3855e-05
9.9308e-05
5.06462e-05
9.9217e-05
5.0654e-05
0.00019529
0.000195291
0.000195301
0.00019742
0.000197424
0.000197425
0.000197434
0.000142289
0.000102785
0.000201669
0.0001945
0.000142046
0.000102894
0.000202219
2.38481e-05
2.38529e-05
0.0001423
0.00020167
0.000102787
0.000194493
0.000142028
0.000202219
0.000102897
7.75865e-05
7.75853e-05
0.000177902
7.7622e-05
7.76192e-05
9.94575e-05
5.06727e-05
9.93802e-05
5.06803e-05
2.38604e-05
2.38651e-05
9.94689e-05
5.06698e-05
9.93846e-05
5.06771e-05
0.000198107
0.000198108
0.000198118
0.000200167
0.000200171
0.000200172
0.000200181
0.000142818
0.000102997
0.000203788
0.000196127
0.000142585
0.0001031
0.000204318
2.38582e-05
2.3863e-05
0.000142822
0.000203788
0.000102999
0.000196121
0.000142569
0.000204318
0.000103102
7.76717e-05
7.76721e-05
0.000179033
7.77055e-05
7.77027e-05
9.96054e-05
5.06928e-05
9.95336e-05
5.07042e-05
2.38704e-05
2.3875e-05
9.96166e-05
5.06926e-05
9.95381e-05
5.07001e-05
0.000200828
0.000200828
0.000200839
0.000202816
0.00020282
0.000202821
0.00020283
0.000143314
0.000103194
0.000205818
0.000197678
0.000143078
0.00010329
0.000206327
2.38682e-05
2.38729e-05
0.000143311
0.000205818
0.000103196
0.000197672
0.000143074
0.000206327
0.000103291
7.77512e-05
7.775e-05
0.000180106
7.77819e-05
7.77805e-05
9.97408e-05
5.07175e-05
9.96746e-05
5.07243e-05
2.38802e-05
2.38847e-05
9.97518e-05
5.07119e-05
9.96797e-05
5.07235e-05
0.00020345
0.000203451
0.000203462
0.000205365
0.00020537
0.00020537
0.00020538
0.000143773
0.000103377
0.00020776
0.000199154
0.000143551
0.000103466
0.000208249
2.3878e-05
2.38825e-05
0.000143768
0.000207759
0.000103377
0.000199147
0.000143547
0.000208249
0.000103467
7.78236e-05
7.78226e-05
0.00018112
7.78522e-05
7.78508e-05
9.98641e-05
5.07388e-05
9.98033e-05
5.07456e-05
2.38898e-05
2.38942e-05
9.98709e-05
5.07358e-05
9.98084e-05
5.07421e-05
0.000205974
0.000205973
0.000205985
0.000207813
0.000207819
0.000207818
0.000207828
0.000144198
0.000103546
0.000209613
0.000200555
0.000143991
0.000103628
0.000210082
2.38876e-05
2.3892e-05
0.000144194
0.000209612
0.000103545
0.000200547
0.000143988
0.000210081
0.000103628
7.78896e-05
7.7889e-05
0.000182002
7.79159e-05
7.79151e-05
9.99757e-05
5.07568e-05
9.99204e-05
5.07677e-05
2.38992e-05
2.39035e-05
9.99814e-05
5.07563e-05
9.99276e-05
5.07628e-05
0.000208396
0.000208395
0.000208407
0.000210158
0.000210166
0.000210163
0.000210176
0.000144593
0.0001037
0.000211378
0.000201881
0.0001444
0.000103777
0.000211827
2.38969e-05
2.39013e-05
0.000144589
0.000211377
0.000103698
0.000201872
0.000144397
0.000211826
0.000103775
7.79495e-05
7.7949e-05
0.000182917
7.7974e-05
7.79734e-05
0.000100077
5.07767e-05
0.000100026
5.07869e-05
2.39084e-05
2.39126e-05
0.000100081
5.07735e-05
0.000100032
5.07842e-05
0.000210717
0.000210714
0.000210729
0.0002124
0.000212411
0.000212407
0.000212421
0.000144958
0.000103841
0.000213055
0.000203133
0.000144779
0.000103911
0.000213484
2.39061e-05
2.39104e-05
0.00014495
0.000213054
0.000103838
0.000203122
0.000144774
0.000213482
0.000103908
7.80037e-05
7.80035e-05
0.000183805
7.80262e-05
7.80254e-05
0.000100167
5.07982e-05
0.000100121
5.08038e-05
2.39172e-05
2.39215e-05
0.000100169
5.07926e-05
0.000100125
5.08029e-05