/*--------------------------------*- C++ -*----------------------------------*\
| =========                 |                                                 |
| \\      /  F ield         | OpenFOAM: The Open Source CFD Toolbox           |
|  \\    /   O peration     | Version:  v2012                                 |
|   \\  /    A nd           | Website:  www.openfoam.com                      |
|    \\/     M anipulation  |                                                 |
\*---------------------------------------------------------------------------*/
FoamFile
{
    version     2.0;
    format      ascii;
    class       volScalarField;
    location    "400";
    object      p;
}
// * * * * * * * * * * * * * * * * * * * * * * * * * * * * * * * * * * * * * //

dimensions      [0 2 -2 0 0 0 0];


internalField   nonuniform List<scalar> 
85864
(
0.00166685
0.00166677
0.00166834
0.00166677
0.00166677
0.00166677
0.00166834
0.00166878
0.00166878
0.00166879
0.00166685
0.00166879
0.00166875
0.00166879
0.00166879
0.00166879
0.00166879
0.00166875
0.00166875
0.00166681
0.00166873
0.00166878
0.00166879
0.00166681
0.00166875
0.00166873
0.00166879
0.00166879
0.00166879
0.00166878
0.00166443
0.00166879
0.00166879
0.00166442
0.00166443
0.00166879
0.00166442
0.00166879
0.00166442
0.00166445
0.00166878
0.00166879
0.00166444
0.00166442
0.00166879
0.00166442
0.00166442
0.00166442
0.00166447
0.00166875
0.00166443
0.00166878
0.00166443
0.00166452
0.00166877
0.00166447
0.00166875
0.00166443
0.00166878
0.00166443
0.00166452
0.00166877
0.00166442
0.0016688
0.0016688
0.00166442
0.00166442
0.0016688
0.00166442
0.00166443
0.00166879
0.00166442
0.00166879
0.00166442
0.00166445
0.00166879
0.00166878
0.00166442
0.00166444
0.00166879
0.00166447
0.00166875
0.00166443
0.00166878
0.00166443
0.00166452
0.00166877
0.00166447
0.00166875
0.00166443
0.00166878
0.00166452
0.00166443
0.00166877
0.00166442
0.0016688
0.0016688
0.00166442
0.00166442
0.0016688
0.00166442
0.00166443
0.00166686
0.00166462
0.00166855
0.00166855
0.00166512
0.00166481
0.00166481
0.00166868
0.00166462
0.00166855
0.00166855
0.00166512
0.00166481
0.00166482
0.00166868
0.00166686
0.0016648
0.00166861
0.0016645
0.00166873
0.00166466
0.00166455
0.00166856
0.0016648
0.00166861
0.0016645
0.00166873
0.00166455
0.00166466
0.00166856
0.0016648
0.00166861
0.0016645
0.00166873
0.00166455
0.00166466
0.00166856
0.00166483
0.00166459
0.00166872
0.00166854
0.00166458
0.00166484
0.00166852
0.0016648
0.00166861
0.0016645
0.00166873
0.00166455
0.00166466
0.00166856
0.00166483
0.00166459
0.00166854
0.00166872
0.00166484
0.00166458
0.00166852
0.00166677
0.00166834
0.00163103
0.00163095
0.00163095
0.00163252
0.00159529
0.00159521
0.00159521
0.00159677
0.00155961
0.00155952
0.00155952
0.00156109
0.00152399
0.0015239
0.0015239
0.00152546
0.00148843
0.00148834
0.00148834
0.0014899
0.00145291
0.00145282
0.00145282
0.00145438
0.00141745
0.00141735
0.00141735
0.00141891
0.00138202
0.00138192
0.00138192
0.00138348
0.00134664
0.00134653
0.00134653
0.00134809
0.00131129
0.00131118
0.00131118
0.00131274
0.00127596
0.00127585
0.00127585
0.00127741
0.00124066
0.00124056
0.00124056
0.00124212
0.00120538
0.00120528
0.00120528
0.00120684
0.00117012
0.00117003
0.00117003
0.00117158
0.00113487
0.00113479
0.00113479
0.00113634
0.00109964
0.00109955
0.00109955
0.00110111
0.00106441
0.00106433
0.00106433
0.00106589
0.00102919
0.00102911
0.00102911
0.00103067
0.000993964
0.000993889
0.000993889
0.000995449
0.000958738
0.000958665
0.000958665
0.000960226
0.000923505
0.000923435
0.000923435
0.000924998
0.000888264
0.000888197
0.000888197
0.000889762
0.000853012
0.000852948
0.000852949
0.000854515
0.000817746
0.000817685
0.000817685
0.000819253
0.000782463
0.000782405
0.000782405
0.000783976
0.000747163
0.000747107
0.000747108
0.00074868
0.000711841
0.000711789
0.000711789
0.000713364
0.000676496
0.000676447
0.000676447
0.000678024
0.000641126
0.000641079
0.000641079
0.000642659
0.000605726
0.000605682
0.000605681
0.000607264
0.000570294
0.000570252
0.000570252
0.000571837
0.000534826
0.000534786
0.000534786
0.000536375
0.000499319
0.000499282
0.000499282
0.000500873
0.00046377
0.000463734
0.000463734
0.000465328
0.000428175
0.000428141
0.000428141
0.000429739
0.000392532
0.0003925
0.000392501
0.000394101
0.00035684
0.00035681
0.000356811
0.000358414
0.000321098
0.000321071
0.000321071
0.000322678
0.000285308
0.000285282
0.000285283
0.000286893
0.000249471
0.000249447
0.000249447
0.000251059
0.00021359
0.000213568
0.000213568
0.000215182
0.000177666
0.000177647
0.000177646
0.000179261
0.0001417
0.000141684
0.000141684
0.000143295
0.00010569
0.000105678
0.000105677
0.000107277
6.96453e-05
6.96263e-05
6.96246e-05
7.11796e-05
3.41331e-05
3.36783e-05
3.36748e-05
3.49335e-05
6.90771e-06
7.94888e-06
7.94509e-06
5.83381e-06
0.00163825
0.00166677
0.0016399
0.0016399
0.00166834
0.00163825
0.0016399
0.0016399
0.00166677
0.0016399
0.0016399
0.00163825
0.00166677
0.0016399
0.0016399
0.00163825
0.00163252
0.00160249
0.00163095
0.00163095
0.00160414
0.00160414
0.00163252
0.00160249
0.00163095
0.00163095
0.00160414
0.00160414
0.00163095
0.00160414
0.00160414
0.00163252
0.00160249
0.00163095
0.00160414
0.00160414
0.00160249
0.00159677
0.0015668
0.00159521
0.00159521
0.00156844
0.00156844
0.00159677
0.0015668
0.00159521
0.00159521
0.00156844
0.00156844
0.00159521
0.00156844
0.00156844
0.00159677
0.0015668
0.00159521
0.00156844
0.00156844
0.0015668
0.00156109
0.00153117
0.00155952
0.00155952
0.0015328
0.0015328
0.00156109
0.00153117
0.00155952
0.00155952
0.0015328
0.0015328
0.00155952
0.0015328
0.0015328
0.00156109
0.00153117
0.00155952
0.0015328
0.0015328
0.00153117
0.00152546
0.00149559
0.0015239
0.0015239
0.00149722
0.00149722
0.00152546
0.00149559
0.0015239
0.0015239
0.00149722
0.00149722
0.0015239
0.00149722
0.00149722
0.00152546
0.00149559
0.0015239
0.00149722
0.00149722
0.00149559
0.0014899
0.00146006
0.00148834
0.00148834
0.0014617
0.00146169
0.0014899
0.00146006
0.00148834
0.00148834
0.00146169
0.00146169
0.00148834
0.00146169
0.0014617
0.0014899
0.00146006
0.00148834
0.00146169
0.0014617
0.00146006
0.00145438
0.00142459
0.00145282
0.00145282
0.00142622
0.00142621
0.00145438
0.00142459
0.00145282
0.00145282
0.00142621
0.00142621
0.00145282
0.00142621
0.00142621
0.00145438
0.00142459
0.00145282
0.00142621
0.00142621
0.00142459
0.00141891
0.00138915
0.00141735
0.00141735
0.00139078
0.00139078
0.00141891
0.00138915
0.00141735
0.00141735
0.00139078
0.00139078
0.00141735
0.00139078
0.00139078
0.00141891
0.00138915
0.00141735
0.00139078
0.00139078
0.00138915
0.00138348
0.00135376
0.00138192
0.00138192
0.00135538
0.00135538
0.00138348
0.00135376
0.00138192
0.00138192
0.00135538
0.00135538
0.00138192
0.00135538
0.00135538
0.00138348
0.00135376
0.00138192
0.00135538
0.00135538
0.00135376
0.00134809
0.0013184
0.00134653
0.00134653
0.00132001
0.00132001
0.00134809
0.0013184
0.00134653
0.00134653
0.00132001
0.00132001
0.00134653
0.00132002
0.00132001
0.00134809
0.0013184
0.00134653
0.00132002
0.00132002
0.0013184
0.00131274
0.00128306
0.00131118
0.00131118
0.00128468
0.00128468
0.00131274
0.00128306
0.00131118
0.00131118
0.00128468
0.00128468
0.00131118
0.00128468
0.00128468
0.00131274
0.00128306
0.00131118
0.00128468
0.00128468
0.00128306
0.00127741
0.00124776
0.00127585
0.00127585
0.00124938
0.00124938
0.00127741
0.00124776
0.00127585
0.00127585
0.00124938
0.00124938
0.00127585
0.00124938
0.00124938
0.00127741
0.00124776
0.00127585
0.00124938
0.00124938
0.00124776
0.00124212
0.00121248
0.00124056
0.00124056
0.0012141
0.0012141
0.00124212
0.00121249
0.00124056
0.00124056
0.0012141
0.0012141
0.00124056
0.0012141
0.0012141
0.00124212
0.00121248
0.00124056
0.0012141
0.0012141
0.00121248
0.00120684
0.00117722
0.00120528
0.00120528
0.00117884
0.00117884
0.00120684
0.00117722
0.00120528
0.00120528
0.00117884
0.00117884
0.00120528
0.00117884
0.00117884
0.00120684
0.00117722
0.00120528
0.00117884
0.00117884
0.00117722
0.00117158
0.00114198
0.00117003
0.00117003
0.0011436
0.0011436
0.00117158
0.00114198
0.00117003
0.00117003
0.0011436
0.0011436
0.00117003
0.0011436
0.0011436
0.00117158
0.00114198
0.00117003
0.0011436
0.0011436
0.00114198
0.00113634
0.00110675
0.00113479
0.00113479
0.00110836
0.00110836
0.00113634
0.00110675
0.00113479
0.00113479
0.00110836
0.00110836
0.00113479
0.00110836
0.00110836
0.00113634
0.00110675
0.00113479
0.00110836
0.00110836
0.00110675
0.00110111
0.00107152
0.00109955
0.00109955
0.00107314
0.00107314
0.00110111
0.00107152
0.00109955
0.00109955
0.00107314
0.00107314
0.00109955
0.00107314
0.00107314
0.00110111
0.00107152
0.00109955
0.00107314
0.00107314
0.00107152
0.00106589
0.0010363
0.00106433
0.00106433
0.00103791
0.00103791
0.00106589
0.0010363
0.00106433
0.00106433
0.00103791
0.00103791
0.00106433
0.00103791
0.00103791
0.00106589
0.0010363
0.00106433
0.00103791
0.00103791
0.0010363
0.00103067
0.00100108
0.00102911
0.00102911
0.00100269
0.00100269
0.00103067
0.00100108
0.00102911
0.00102911
0.00100269
0.00100269
0.00102911
0.00100269
0.00100269
0.00103067
0.00100108
0.00102911
0.00100269
0.00100269
0.00100108
0.000995448
0.00096586
0.000993889
0.000993889
0.000967471
0.000967471
0.000995448
0.00096586
0.000993889
0.000993889
0.000967471
0.000967471
0.000993889
0.000967471
0.000967471
0.000995448
0.00096586
0.000993889
0.000967471
0.000967471
0.00096586
0.000960226
0.000930632
0.000958665
0.000958665
0.000932243
0.000932243
0.000960226
0.000930633
0.000958665
0.000958665
0.000932243
0.000932243
0.000958665
0.000932243
0.000932243
0.000960226
0.000930632
0.000958665
0.000932243
0.000932243
0.000930632
0.000924998
0.000895397
0.000923435
0.000923435
0.000897008
0.000897008
0.000924998
0.000895397
0.000923435
0.000923435
0.000897008
0.000897008
0.000923435
0.000897008
0.000897008
0.000924998
0.000895397
0.000923435
0.000897008
0.000897007
0.000895396
0.000889762
0.000860151
0.000888197
0.000888197
0.000861762
0.000861761
0.000889761
0.000860151
0.000888197
0.000888197
0.000861762
0.000861762
0.000888197
0.000861761
0.000861762
0.000889762
0.000860151
0.000888197
0.000861762
0.000861762
0.000860151
0.000854514
0.000824891
0.000852948
0.000852948
0.000826502
0.000826502
0.000854514
0.000824891
0.000852948
0.000852948
0.000826502
0.000826502
0.000852948
0.000826502
0.000826502
0.000854515
0.000824891
0.000852949
0.000826502
0.000826502
0.000824891
0.000819253
0.000789616
0.000817685
0.000817685
0.000791227
0.000791227
0.000819253
0.000789616
0.000817685
0.000817685
0.000791227
0.000791227
0.000817685
0.000791227
0.000791227
0.000819253
0.000789616
0.000817685
0.000791227
0.000791227
0.000789616
0.000783976
0.000754323
0.000782405
0.000782405
0.000755934
0.000755934
0.000783975
0.000754323
0.000782405
0.000782405
0.000755934
0.000755934
0.000782405
0.000755934
0.000755934
0.000783976
0.000754323
0.000782405
0.000755934
0.000755934
0.000754323
0.00074868
0.000719009
0.000747107
0.000747107
0.00072062
0.00072062
0.00074868
0.000719009
0.000747107
0.000747107
0.00072062
0.00072062
0.000747108
0.000720621
0.000720621
0.00074868
0.000719009
0.000747108
0.000720621
0.000720621
0.000719009
0.000713363
0.000683673
0.000711789
0.000711789
0.000685285
0.000685285
0.000713363
0.000683673
0.000711789
0.000711789
0.000685284
0.000685285
0.000711789
0.000685285
0.000685285
0.000713364
0.000683673
0.000711789
0.000685285
0.000685285
0.000683673
0.000678024
0.000648311
0.000676447
0.000676447
0.000649923
0.000649924
0.000678024
0.000648312
0.000676447
0.000676447
0.000649923
0.000649923
0.000676447
0.000649923
0.000649924
0.000678024
0.000648311
0.000676447
0.000649923
0.000649923
0.000648311
0.000642659
0.000612921
0.000641079
0.000641079
0.000614534
0.000614534
0.000642659
0.000612921
0.000641079
0.000641079
0.000614534
0.000614534
0.000641079
0.000614534
0.000614534
0.000642659
0.000612921
0.000641079
0.000614534
0.000614534
0.000612921
0.000607264
0.000577499
0.000605682
0.000605682
0.000579112
0.000579113
0.000607264
0.000577499
0.000605682
0.000605681
0.000579112
0.000579112
0.000605682
0.000579113
0.000579112
0.000607264
0.000577499
0.000605682
0.000579112
0.000579112
0.000577498
0.000571837
0.000542042
0.000570252
0.000570252
0.000543656
0.000543656
0.000571837
0.000542042
0.000570252
0.000570252
0.000543656
0.000543656
0.000570252
0.000543656
0.000543656
0.000571837
0.000542041
0.000570252
0.000543656
0.000543656
0.000542041
0.000536375
0.000506546
0.000534787
0.000534786
0.000508162
0.000508162
0.000536374
0.000506546
0.000534787
0.000534786
0.000508162
0.000508162
0.000534786
0.000508161
0.000508161
0.000536375
0.000506546
0.000534786
0.000508161
0.000508161
0.000506545
0.000500873
0.000471008
0.000499282
0.000499282
0.000472625
0.000472625
0.000500873
0.000471008
0.000499282
0.000499282
0.000472625
0.000472625
0.000499281
0.000472625
0.000472625
0.000500873
0.000471008
0.000499281
0.000472625
0.000472625
0.000471007
0.000465329
0.000435425
0.000463734
0.000463734
0.000437044
0.000437043
0.000465328
0.000435425
0.000463735
0.000463734
0.000437044
0.000437044
0.000463734
0.000437043
0.000437043
0.000465329
0.000435425
0.000463734
0.000437044
0.000437043
0.000435424
0.000429739
0.000399794
0.000428141
0.000428141
0.000401415
0.000401414
0.000429738
0.000399794
0.000428142
0.000428142
0.000401415
0.000401415
0.000428141
0.000401414
0.000401414
0.000429739
0.000399795
0.000428141
0.000401415
0.000401415
0.000399794
0.000394101
0.000364115
0.000392501
0.0003925
0.000365737
0.000365737
0.000394101
0.000364115
0.000392501
0.000392501
0.000365737
0.000365737
0.0003925
0.000365736
0.000365737
0.000394101
0.000364115
0.0003925
0.000365737
0.000365737
0.000364115
0.000358414
0.000328386
0.000356811
0.00035681
0.000330009
0.000330009
0.000358414
0.000328386
0.000356811
0.000356811
0.000330009
0.00033001
0.00035681
0.000330009
0.000330009
0.000358415
0.000328386
0.00035681
0.000330009
0.000330009
0.000328386
0.000322678
0.000292608
0.000321071
0.000321071
0.000294232
0.000294232
0.000322678
0.000292608
0.000321071
0.000321071
0.000294232
0.000294232
0.000321071
0.000294232
0.000294232
0.000322678
0.000292608
0.000321071
0.000294233
0.000294232
0.000292608
0.000286892
0.000256782
0.000285282
0.000285283
0.000258408
0.000258408
0.000286892
0.000256782
0.000285283
0.000285283
0.000258408
0.000258408
0.000285283
0.000258407
0.000258408
0.000286892
0.000256782
0.000285283
0.000258408
0.000258408
0.000256782
0.000251059
0.000220912
0.000249447
0.000249447
0.000222538
0.000222538
0.000251059
0.000220912
0.000249447
0.000249447
0.000222537
0.000222538
0.000249447
0.000222538
0.000222538
0.000251059
0.000220912
0.000249447
0.000222538
0.000222538
0.000220912
0.000215181
0.000184999
0.000213568
0.000213568
0.000186624
0.000186625
0.000215181
0.000185
0.000213568
0.000213568
0.000186624
0.000186624
0.000213568
0.000186625
0.000186625
0.000215181
0.000184999
0.000213568
0.000186624
0.000186625
0.000184999
0.00017926
0.000149045
0.000177646
0.000177646
0.000150669
0.000150669
0.00017926
0.000149046
0.000177646
0.000177646
0.000150669
0.000150669
0.000177647
0.000150669
0.000150669
0.00017926
0.000149045
0.000177647
0.000150669
0.000150669
0.000149046
0.000143295
0.000113049
0.000141684
0.000141684
0.000114669
0.000114669
0.000143295
0.00011305
0.000141684
0.000141684
0.000114668
0.000114668
0.000141684
0.000114669
0.000114669
0.000143295
0.000113049
0.000141684
0.000114668
0.000114669
0.000113049
0.000107277
7.70054e-05
0.000105678
0.000105678
7.86188e-05
7.86189e-05
0.000107277
7.70059e-05
0.000105677
0.000105677
7.86185e-05
7.86176e-05
0.000105677
7.86189e-05
7.86178e-05
0.000107276
7.7004e-05
0.000105677
7.86177e-05
7.86179e-05
7.70042e-05
7.11804e-05
4.092e-05
6.96263e-05
6.96263e-05
4.25628e-05
4.25635e-05
7.11801e-05
4.09215e-05
6.96258e-05
6.96245e-05
4.25611e-05
4.25588e-05
6.9625e-05
4.25623e-05
4.25589e-05
7.11792e-05
4.09167e-05
6.96249e-05
4.25588e-05
4.2558e-05
4.09159e-05
3.49392e-05
8.60909e-06
3.36808e-05
3.36807e-05
1.10761e-05
1.10757e-05
3.49389e-05
8.60889e-06
3.36785e-05
3.36753e-05
1.10763e-05
1.10671e-05
3.36749e-05
1.10739e-05
1.10652e-05
3.49347e-05
8.60195e-06
3.36738e-05
1.10683e-05
1.1069e-05
8.6013e-06
5.83879e-06
7.94626e-06
7.9485e-06
5.8381e-06
7.94641e-06
7.94293e-06
6.908e-06
6.90493e-06
6.90527e-06
7.94019e-06
5.83381e-06
7.94273e-06
0.00165549
0.00165547
0.00166879
0.00166879
0.00165547
0.00165549
0.00165547
0.00166685
0.00166685
0.00163998
0.00163998
0.00163998
0.00163998
0.00165563
0.00166875
0.00166681
0.00165781
0.00165554
0.00165785
0.00166873
0.00165547
0.00165563
0.00166681
0.00165781
0.00165785
0.00165554
0.00166873
0.00166879
0.00166879
0.00165616
0.00165548
0.00165548
0.0016197
0.00163297
0.00163297
0.00161968
0.00163297
0.00161968
0.0016197
0.00163297
0.00163297
0.00161968
0.00163103
0.00163103
0.00163103
0.00160422
0.00160422
0.00160422
0.00160422
0.00161984
0.00163293
0.001631
0.00162201
0.00163291
0.00161975
0.00162205
0.00163297
0.00161968
0.00161984
0.001631
0.00163293
0.00162201
0.00163291
0.00162205
0.00161975
0.00163298
0.00163298
0.00162036
0.00161969
0.00161969
0.00158398
0.00159723
0.00159723
0.00158397
0.00159723
0.00158396
0.00158398
0.00159723
0.00159723
0.00158397
0.00159529
0.00159529
0.00159529
0.00156852
0.00156852
0.00156852
0.00156852
0.00158412
0.00159719
0.00159525
0.00158628
0.00159717
0.00158403
0.00158632
0.00159723
0.00158396
0.00158412
0.00159525
0.00159719
0.00158628
0.00159717
0.00158632
0.00158403
0.00159723
0.00159723
0.00158464
0.00158397
0.00158397
0.00154833
0.00156155
0.00156155
0.00154831
0.00156155
0.0015483
0.00154833
0.00156155
0.00156155
0.00154831
0.00155961
0.00155961
0.00155961
0.00153289
0.00153289
0.00153289
0.00153289
0.00154846
0.00156151
0.00155957
0.00155061
0.00156149
0.00154837
0.00155066
0.00156155
0.00154831
0.00154846
0.00155957
0.00156151
0.00155061
0.00156149
0.00155066
0.00154837
0.00156156
0.00156156
0.00154898
0.00154831
0.00154831
0.00151273
0.00152593
0.00152593
0.00151271
0.00152594
0.00151271
0.00151273
0.00152593
0.00152593
0.00151271
0.00152399
0.00152399
0.00152399
0.00149731
0.00149731
0.00149731
0.00149731
0.00151285
0.00152589
0.00152395
0.00151501
0.00152587
0.00151277
0.00151505
0.00152594
0.00151271
0.00151285
0.00152395
0.00152589
0.00151501
0.00152587
0.00151505
0.00151277
0.00152594
0.00152594
0.00151337
0.00151271
0.00151271
0.00147718
0.00149037
0.00149037
0.00147717
0.00149037
0.00147717
0.00147718
0.00149037
0.00149037
0.00147717
0.00148843
0.00148843
0.00148843
0.00146179
0.00146179
0.00146179
0.00146179
0.00147731
0.00149033
0.00148838
0.00147945
0.0014903
0.00147723
0.0014795
0.00149037
0.00147717
0.00147731
0.00148838
0.00149033
0.00147945
0.0014903
0.0014795
0.00147723
0.00149037
0.00149038
0.00147782
0.00147717
0.00147717
0.00144169
0.00145486
0.00145486
0.00144168
0.00145486
0.00144167
0.00144169
0.00145486
0.00145486
0.00144168
0.00145291
0.00145291
0.00145291
0.00142631
0.00142631
0.00142631
0.00142631
0.00144181
0.00145482
0.00145287
0.00144395
0.00145479
0.00144173
0.001444
0.00145486
0.00144167
0.00144181
0.00145287
0.00145482
0.00144395
0.00145479
0.001444
0.00144173
0.00145486
0.00145486
0.00144232
0.00144168
0.00144168
0.00140624
0.00141939
0.00141939
0.00140623
0.00141941
0.00140623
0.00140624
0.00141939
0.00141939
0.00140623
0.00141745
0.00141745
0.00141745
0.00139088
0.00139088
0.00139088
0.00139088
0.00140636
0.00141936
0.0014174
0.00140849
0.00141933
0.00140628
0.00140854
0.0014194
0.00140622
0.00140636
0.0014174
0.00141936
0.00140849
0.00141933
0.00140854
0.00140628
0.0014194
0.0014194
0.00140686
0.00140623
0.00140623
0.00137083
0.00138397
0.00138397
0.00137082
0.00138398
0.00137082
0.00137083
0.00138397
0.00138397
0.00137082
0.00138202
0.00138202
0.00138202
0.00135548
0.00135548
0.00135548
0.00135548
0.00137095
0.00138393
0.00138197
0.00137307
0.0013839
0.00137087
0.00137312
0.00138398
0.00137082
0.00137095
0.00138197
0.00138393
0.00137307
0.0013839
0.00137312
0.00137087
0.00138398
0.00138398
0.00137145
0.00137082
0.00137082
0.00133546
0.00134859
0.00134858
0.00133545
0.00134859
0.00133544
0.00133546
0.00134859
0.00134858
0.00133545
0.00134664
0.00134664
0.00134664
0.00132012
0.00132012
0.00132012
0.00132012
0.00133557
0.00134855
0.00134658
0.00133769
0.00134852
0.0013355
0.00133774
0.00134859
0.00133544
0.00133557
0.00134658
0.00134855
0.00133769
0.00134852
0.00133774
0.0013355
0.00134859
0.00134859
0.00133607
0.00133545
0.00133545
0.00130012
0.00131324
0.00131323
0.00130011
0.00131324
0.00130011
0.00130012
0.00131324
0.00131323
0.00130011
0.00131129
0.00131128
0.00131129
0.00128479
0.00128479
0.00128479
0.00128479
0.00130023
0.0013132
0.00131123
0.00130235
0.00131316
0.00130016
0.00130239
0.00131324
0.00130011
0.00130023
0.00131123
0.0013132
0.00130234
0.00131316
0.00130239
0.00130016
0.00131324
0.00131324
0.00130073
0.00130011
0.00130011
0.00126481
0.00127792
0.00127791
0.0012648
0.00127793
0.0012648
0.00126481
0.00127792
0.00127791
0.0012648
0.00127596
0.00127596
0.00127596
0.00124948
0.00124948
0.00124948
0.00124948
0.00126492
0.00127788
0.0012759
0.00126703
0.00127784
0.00126485
0.00126707
0.00127792
0.0012648
0.00126492
0.0012759
0.00127788
0.00126703
0.00127784
0.00126707
0.00126485
0.00127792
0.00127792
0.00126541
0.0012648
0.0012648
0.00122952
0.00124263
0.00124262
0.00122952
0.00124263
0.00122951
0.00122952
0.00124263
0.00124262
0.00122952
0.00124066
0.00124066
0.00124066
0.0012142
0.0012142
0.0012142
0.0012142
0.00122963
0.00124259
0.0012406
0.00123174
0.00124255
0.00122956
0.00123178
0.00124263
0.00122951
0.00122963
0.0012406
0.00124259
0.00123174
0.00124255
0.00123178
0.00122956
0.00124263
0.00124263
0.00123012
0.00122951
0.00122951
0.00119426
0.00120736
0.00120735
0.00119425
0.00120736
0.00119425
0.00119426
0.00120736
0.00120735
0.00119425
0.00120538
0.00120538
0.00120538
0.00117893
0.00117893
0.00117893
0.00117893
0.00119436
0.00120731
0.00120532
0.00119647
0.00120728
0.0011943
0.0011965
0.00120736
0.00119425
0.00119436
0.00120532
0.00120731
0.00119647
0.00120728
0.0011965
0.0011943
0.00120736
0.00120736
0.00119485
0.00119425
0.00119425
0.00115901
0.0011721
0.0011721
0.00115901
0.00117211
0.001159
0.00115901
0.0011721
0.0011721
0.00115901
0.00117012
0.00117012
0.00117012
0.00114368
0.00114368
0.00114368
0.00114368
0.00115911
0.00117206
0.00117006
0.00116122
0.00117202
0.00115905
0.00116125
0.00117211
0.001159
0.00115911
0.00117006
0.00117206
0.00116122
0.00117202
0.00116125
0.00115905
0.00117211
0.00117211
0.0011596
0.001159
0.001159
0.00112378
0.00113687
0.00113686
0.00112377
0.00113687
0.00112377
0.00112378
0.00113687
0.00113686
0.00112377
0.00113487
0.00113487
0.00113487
0.00110845
0.00110845
0.00110845
0.00110845
0.00112388
0.00113682
0.00113482
0.00112598
0.00113679
0.00112382
0.00112601
0.00113687
0.00112377
0.00112388
0.00113482
0.00113682
0.00112598
0.00113678
0.00112601
0.00112382
0.00113687
0.00113687
0.00112436
0.00112377
0.00112377
0.00108855
0.00110164
0.00110163
0.00108855
0.00110165
0.00108855
0.00108855
0.00110164
0.00110163
0.00108855
0.00109964
0.00109964
0.00109964
0.00107322
0.00107322
0.00107322
0.00107322
0.00108865
0.0011016
0.00109959
0.00109075
0.00110156
0.00108859
0.00109078
0.00110165
0.00108855
0.00108865
0.00109959
0.0011016
0.00109075
0.00110156
0.00109078
0.00108859
0.00110164
0.00110164
0.00108913
0.00108854
0.00108854
0.00105333
0.00106642
0.00106641
0.00105333
0.00106643
0.00105333
0.00105333
0.00106642
0.00106641
0.00105333
0.00106441
0.00106441
0.00106441
0.00103799
0.00103799
0.00103799
0.00103799
0.00105343
0.00106638
0.00106436
0.00105552
0.00106634
0.00105337
0.00105556
0.00106643
0.00105333
0.00105343
0.00106436
0.00106638
0.00105552
0.00106634
0.00105556
0.00105337
0.00106642
0.00106642
0.00105391
0.00105333
0.00105333
0.00101812
0.00103121
0.0010312
0.00101812
0.00103121
0.00101811
0.00101812
0.00103121
0.0010312
0.00101812
0.00102919
0.00102919
0.00102919
0.00100277
0.00100277
0.00100277
0.00100277
0.00101821
0.00103116
0.00102914
0.0010203
0.00103112
0.00101816
0.00102033
0.00103121
0.00101811
0.00101821
0.00102914
0.00103116
0.0010203
0.00103112
0.00102033
0.00101816
0.00103121
0.00103121
0.00101869
0.00101811
0.00101811
0.0009829
0.00099599
0.00099598
0.000982899
0.000995997
0.000982897
0.0009829
0.000995989
0.00099598
0.000982899
0.000993964
0.000993964
0.000993964
0.000967545
0.000967545
0.000967545
0.000967545
0.000982992
0.000995944
0.000993917
0.000985083
0.000995902
0.000982939
0.000985112
0.000995997
0.000982897
0.000982992
0.000993918
0.000995944
0.000985083
0.000995902
0.000985112
0.000982939
0.00099599
0.00099599
0.000983471
0.000982893
0.000982893
0.000947679
0.000960771
0.00096076
0.000947678
0.000960778
0.000947676
0.000947678
0.000960771
0.000960761
0.000947678
0.000958738
0.000958737
0.000958738
0.000932314
0.000932314
0.000932314
0.000932314
0.000947769
0.000960725
0.000958693
0.000949858
0.000960682
0.000947718
0.000949885
0.000960778
0.000947676
0.000947769
0.000958692
0.000960726
0.000949858
0.000960681
0.000949885
0.000947717
0.000960771
0.000960771
0.000948246
0.000947672
0.000947672
0.000912451
0.000925546
0.000925535
0.00091245
0.000925553
0.000912449
0.00091245
0.000925546
0.000925536
0.00091245
0.000923505
0.000923505
0.000923505
0.000897075
0.000897075
0.000897075
0.000897075
0.000912539
0.0009255
0.000923462
0.000914627
0.000925456
0.000912489
0.000914653
0.000925553
0.000912449
0.000912538
0.000923461
0.0009255
0.000914626
0.000925455
0.000914652
0.000912488
0.000925546
0.000925546
0.000913015
0.000912445
0.000912444
0.000877213
0.000890313
0.000890302
0.000877213
0.00089032
0.000877212
0.000877213
0.000890313
0.000890302
0.000877213
0.000888264
0.000888264
0.000888264
0.000861826
0.000861826
0.000861826
0.000861826
0.000877301
0.000890267
0.000888223
0.000879386
0.000890222
0.000877251
0.000879411
0.000890321
0.000877212
0.000877301
0.000888223
0.000890268
0.000879387
0.000890223
0.000879412
0.000877252
0.000890313
0.000890313
0.000877775
0.000877207
0.000877208
0.000841963
0.000855069
0.000855057
0.000841964
0.000855076
0.000841963
0.000841963
0.000855069
0.000855058
0.000841964
0.000853012
0.000853012
0.000853012
0.000826564
0.000826564
0.000826564
0.000826564
0.000842049
0.000855023
0.000852972
0.000844133
0.000854977
0.000842001
0.000844157
0.000855076
0.000841963
0.00084205
0.000852973
0.000855024
0.000844134
0.000854978
0.000844158
0.000842001
0.000855069
0.00085507
0.000842523
0.000841958
0.000841958
0.000806699
0.000819811
0.000819799
0.0008067
0.000819818
0.000806698
0.000806698
0.000819811
0.000819799
0.0008067
0.000817746
0.000817746
0.000817746
0.000791285
0.000791285
0.000791286
0.000791286
0.000806783
0.000819764
0.000817708
0.000808867
0.000819717
0.000806737
0.00080889
0.000819818
0.000806699
0.000806783
0.000817708
0.000819765
0.000808867
0.000819718
0.00080889
0.000806736
0.000819811
0.000819811
0.000807256
0.000806693
0.000806693
0.000771417
0.000784536
0.000784524
0.000771419
0.000784544
0.000771418
0.000771417
0.000784536
0.000784525
0.000771419
0.000782463
0.000782463
0.000782463
0.00075599
0.00075599
0.00075599
0.00075599
0.000771501
0.000784489
0.000782427
0.000773583
0.000784442
0.000771455
0.000773604
0.000784544
0.000771418
0.000771501
0.000782427
0.00078449
0.000773583
0.000784442
0.000773604
0.000771455
0.000784536
0.000784536
0.000771972
0.000771412
0.000771412
0.000736116
0.000749244
0.000749231
0.000736118
0.000749251
0.000736117
0.000736116
0.000749244
0.000749231
0.000736118
0.000747163
0.000747163
0.000747163
0.000720673
0.000720674
0.000720674
0.000720674
0.000736199
0.000749196
0.000747128
0.00073828
0.000749148
0.000736154
0.0007383
0.000749251
0.000736117
0.000736199
0.000747128
0.000749197
0.00073828
0.000749148
0.0007383
0.000736154
0.000749243
0.000749243
0.000736669
0.000736112
0.000736112
0.000700794
0.00071393
0.000713917
0.000700796
0.000713937
0.000700795
0.000700794
0.00071393
0.000713917
0.000700796
0.000711841
0.000711841
0.000711841
0.000685335
0.000685335
0.000685335
0.000685335
0.000700875
0.000713882
0.000711809
0.000702956
0.000713834
0.000700831
0.000702975
0.000713937
0.000700795
0.000700875
0.000711809
0.000713883
0.000702955
0.000713834
0.000702975
0.000700831
0.000713929
0.00071393
0.000701344
0.000700789
0.000700789
0.000665447
0.000678593
0.00067858
0.000665449
0.0006786
0.000665449
0.000665447
0.000678593
0.00067858
0.00066545
0.000676497
0.000676496
0.000676497
0.000649971
0.000649971
0.000649971
0.000649971
0.000665527
0.000678545
0.000676466
0.000667607
0.000678496
0.000665484
0.000667626
0.0006786
0.000665448
0.000665527
0.000676465
0.000678545
0.000667607
0.000678496
0.000667626
0.000665484
0.000678592
0.000678592
0.000665995
0.000665443
0.000665443
0.000630073
0.00064323
0.000643217
0.000630076
0.000643237
0.000630075
0.000630073
0.00064323
0.000643217
0.000630076
0.000641126
0.000641126
0.000641126
0.000614579
0.000614579
0.000614579
0.000614579
0.000630153
0.000643182
0.000641097
0.000632232
0.000643132
0.00063011
0.00063225
0.000643237
0.000630075
0.000630153
0.000641096
0.000643182
0.000632232
0.000643132
0.000632249
0.00063011
0.000643229
0.000643229
0.00063062
0.000630069
0.000630069
0.000594669
0.000607837
0.000607824
0.000594672
0.000607845
0.000594671
0.000594668
0.000607837
0.000607824
0.000594672
0.000605726
0.000605726
0.000605726
0.000579155
0.000579155
0.000579155
0.000579155
0.000594748
0.000607789
0.000605698
0.000596827
0.000607739
0.000594706
0.000596844
0.000607844
0.00059467
0.000594747
0.000605698
0.000607789
0.000596827
0.000607739
0.000596843
0.000594705
0.000607837
0.000607837
0.000595214
0.000594665
0.000594664
0.000559231
0.000572412
0.000572399
0.000559234
0.00057242
0.000559233
0.00055923
0.000572412
0.0005724
0.000559234
0.000570294
0.000570294
0.000570294
0.000543697
0.000543697
0.000543696
0.000543696
0.000559309
0.000572364
0.000570267
0.000561389
0.000572314
0.000559268
0.000561404
0.000572419
0.000559233
0.000559309
0.000570267
0.000572364
0.000561389
0.000572313
0.000561404
0.000559267
0.000572412
0.000572412
0.000559774
0.000559227
0.000559227
0.000523756
0.000536952
0.000536939
0.000523759
0.000536959
0.000523758