/*--------------------------------*- C++ -*----------------------------------*\
| =========                 |                                                 |
| \\      /  F ield         | OpenFOAM: The Open Source CFD Toolbox           |
|  \\    /   O peration     | Version:  v2012                                 |
|   \\  /    A nd           | Website:  www.openfoam.com                      |
|    \\/     M anipulation  |                                                 |
\*---------------------------------------------------------------------------*/
FoamFile
{
    version     2.0;
    format      ascii;
    class       surfaceScalarField;
    location    "400";
    object      phi;
}
// * * * * * * * * * * * * * * * * * * * * * * * * * * * * * * * * * * * * * //

dimensions      [0 3 -1 0 0 0 0];
oriented        oriented;


internalField   nonuniform List<scalar> 
248808
(
-2.13005e-07
-2.1311e-07
1.85743e-07
1.85417e-07
0.00119096
-1.2533e-06
2.13105e-07
-2.80423e-07
1.22492e-06
2.58132e-07
8.81018e-07
-2.81422e-07
2.36237e-07
-9.27488e-07
7.48709e-08
0.00113996
1.29311e-06
1.25624e-06
-2.38814e-07
-2.46685e-07
0.000269496
-2.85973e-07
1.26453e-06
2.63496e-07
8.81147e-07
-2.78774e-07
2.33406e-07
-9.27568e-07
7.54786e-08
0.00113948
7.49055e-08
-2.83302e-07
1.22769e-06
2.6098e-07
8.84e-07
-2.81489e-07
2.3633e-07
-9.30266e-07
0.0011406
-1.29313e-06
2.12922e-07
7.56997e-08
-2.88894e-07
1.26457e-06
2.66305e-07
8.83798e-07
-2.81492e-07
2.36157e-07
-9.30267e-07
0.00113959
-2.38841e-07
-2.46512e-07
0.000269477
-7.91578e-09
4.05325e-08
0.00019205
-6.03611e-09
-7.97376e-09
4.05391e-08
0.00019207
-6.05126e-09
6.05799e-08
2.63255e-10
0.000228355
2.16961e-10
-2.3424e-08
1.85518e-07
1.85688e-07
0.00119055
7.94546e-09
1.82252e-08
9.70704e-05
-1.95655e-08
-4.05669e-08
1.06402e-07
0.000244398
1.25942e-08
1.59597e-08
9.70872e-05
1.59151e-08
9.70862e-05
1.95251e-08
4.102e-08
0.000276421
-1.24941e-08
2.19596e-08
4.09563e-08
0.000276377
-1.26254e-08
1.03994e-07
0.0002444
1.25738e-08
1.03965e-07
0.000244415
1.25799e-08
3.32788e-09
3.28732e-07
9.62927e-07
-8.54477e-07
7.81862e-07
-1.03009e-06
0.00116168
1.79965e-09
0.000250151
-1.84746e-09
1.92632e-07
4.27341e-08
0.000192018
-6.15234e-09
6.05719e-08
0.00022832
-2.34173e-08
4.28562e-10
3.28711e-07
9.63003e-07
-8.57243e-07
7.81876e-07
-1.03275e-06
0.00116165
-2.18507e-08
1.03943e-07
0.000244347
1.4923e-08
0.000250121
1.95241e-07
-2.03368e-09
4.31994e-08
0.00027633
-1.21837e-08
-1.59403e-08
4.32188e-08
0.000276427
-1.20308e-08
7.93659e-09
9.70799e-05
0.000192033
-6.06175e-09
5.81435e-09
-3.53366e-08
1.52473e-09
0.000192078
-2.58203e-08
5.13453e-08
0.000261312
3.53e-10
7.84823e-05
1.04596e-09
-2.50046e-08
-7.85277e-05
-1.87382e-09
7.85545e-05
2.20127e-09
5.69102e-09
-3.76733e-08
0.0001921
0.00026142
-2.36316e-08
4.09413e-10
5.14791e-08
-4.43424e-09
-5.343e-08
0.000261455
9.13062e-10
-2.49797e-08
-7.23839e-10
-0.000142162
0.000142186
2.70693e-09
2.63006e-08
-4.79377e-11
-5.71443e-08
0.000228384
0.00022221
-2.43985e-08
6.05356e-08
0.000169694
1.29088e-09
9.03208e-11
-5.70877e-08
0.000222241
-9.72411e-12
0.000169719
-5.76316e-09
-2.38297e-08
9.71e-05
-2.14843e-08
9.71145e-05
-2.1613e-08
9.71135e-05
2.95676e-08
-2.57338e-08
-0.000220935
2.36542e-08
-5.70111e-08
0.000220965
0.000250166
-3.27521e-08
9.52239e-08
5.07005e-08
8.43895e-09
-4.17729e-08
-1.75715e-08
0.00027645
0.000181699
2.50631e-08
-1.30316e-08
1.2496e-08
0.000181724
-9.1426e-08
-3.27604e-08
0.000250222
-2.22174e-08
5.10622e-08
2.96233e-08
-2.57883e-08
-0.000220869
2.16494e-08
-5.92807e-08
0.000220903
0.000250074
-3.28e-08
9.50892e-08
5.58092e-08
8.39431e-09
-4.18997e-08
-1.98944e-08
0.000276409
0.000181649
2.50046e-08
-1.31059e-08
1.24955e-08
0.000181675
-9.14833e-08
-3.79254e-08
0.000250136
-2.02649e-08
5.32476e-08
1.25409e-08
1.25583e-08
-0.000212361
0.000212381
7.98948e-05
1.06606e-08
7.98813e-05
1.06028e-08
7.99198e-05
7.99064e-05
-2.71522e-08
-7.848e-05
-2.05444e-09
7.85092e-05
1.71417e-09
-3.75743e-08
0.000192048
0.000261301
-2.58758e-08
2.36007e-10
5.14113e-08
-4.43026e-09
-5.0867e-08
0.000261331
1.00106e-09
-6.81779e-10
-2.69715e-08
-0.000142089
0.000142115
2.62738e-08
2.39122e-09
-5.46884e-08
0.000228346
0.000169659
1.44506e-09
0.000222119
-2.64064e-08
6.03981e-08
0.000169685
-5.45657e-08
0.000222145
3.15257e-08
-2.57586e-08
-0.000220857
2.16936e-08
-5.9211e-08
0.000220889
0.000250029
-3.28279e-08
9.50578e-08
5.58285e-08
8.03061e-09
-4.40803e-08
-1.9813e-08
0.000276362
0.000181641
2.69308e-08
-1.3137e-08
1.25773e-08
0.000181668
-9.14327e-08
-3.78259e-08
0.000250089
-2.02956e-08
5.31233e-08
-2.5734e-08
3.15619e-08
-0.000220933
2.36392e-08
-5.47046e-08
0.000220959
0.000250177
-3.2706e-08
9.25949e-08
5.07072e-08
-4.4147e-08
7.84526e-09
2.16193e-08
-1.75071e-08
0.000276459
0.0001817
2.69853e-08
-1.30445e-08
-8.89496e-08
-3.28419e-08
0.000250229
1.24583e-08
0.000181726
-2.22112e-08
4.87156e-08
1.25152e-08
1.25981e-08
-0.000212353
0.000212374
7.98777e-05
1.05933e-08
7.98957e-05
1.06617e-08
7.99028e-05
7.99207e-05
-5.68509e-09
9.71072e-05
-3.54751e-08
1.7704e-09
0.000192061
3.95196e-10
0.00121574
2.50235e-07
-1.04054e-07
-1.01774e-07
-0.000242575
0.000242665
0.000261258
-1.06416e-07
0.000261682
-1.04078e-07
2.28767e-07
2.3671e-07
0.000271523
0.000261555
0.000261986
-1.01557e-07
-1.04231e-07
-0.00024256
0.000242652
0.00026163
-1.06619e-07
0.000261273
-1.03735e-07
2.36538e-07
2.2893e-07
0.000271501
0.000261577
0.00026193
0.00121487
2.50029e-07
1.59651e-08
1.70627e-07
-0.00026449
0.000265197
-1.29203e-08
0.000260349
2.79119e-08
-8.74056e-08
-1.3784e-08
0.000244446
0.000250081
1.87372e-07
-5.1514e-08
6.7749e-09
0.000260481
5.09973e-08
0.000250195
-8.78709e-09
2.55754e-08
1.65493e-07
1.34213e-08
-0.000264485
0.000265192
-5.26625e-09
0.000260338
2.79914e-08
-1.38884e-08
-8.4874e-08
0.000244446
0.000250082
1.82247e-07
6.75121e-09
5.08064e-08
0.000250192
-8.81714e-09
0.000260468
1.79915e-08
1.68223e-07
1.33944e-08
-0.000264542
-1.80798e-08
0.000265263
0.000260369
2.79263e-08
-1.37679e-08
-8.49866e-08
0.000244456
0.000250148
1.84761e-07
9.14248e-09
-8.74124e-09
0.000250258
0.000260496
3.33607e-08
1.83301e-07
-2.69589e-09
-0.000266517
0.000267281
3.4408e-09
-1.62765e-07
-4.17333e-10
0.000250253
0.000249328
2.10091e-07
0.000266917
-6.97071e-09
7.3118e-09
0.000249449
-4.56892e-09
0.000267538
1.68028e-07
1.58967e-08
-0.000264458
-2.63737e-09
0.000265161
0.000260288
3.05106e-08
-1.61666e-08
-8.48554e-08
0.00024439
0.000250056
1.8474e-07
6.66196e-09
-6.31913e-09
0.000250164
0.000260418
1.79635e-08
1.47307e-09
1.83308e-07
-0.000266455
0.00026723
-1.62759e-07
2.41598e-09
0.000250226
0.000266901
-5.46179e-09
0.000249242
2.12572e-07
0.000267517
0.000249367
-1.2588e-06
2.13275e-07
7.50962e-08
0.00114033
-2.80454e-07
1.23042e-06
2.58079e-07
8.81147e-07
-2.78763e-07
2.33444e-07
-9.276e-07
1.28756e-06
1.25344e-06
-2.41307e-07
-2.46632e-07
0.00026949
-1.89193e-07
-1.89233e-07
-0.0011911
1.71741e-07
1.72068e-07
0.00119113
-0.0011399
-1.25347e-06
1.89416e-07
6.47003e-08
0.00113976
-2.76285e-07
1.23178e-06
2.59883e-07
8.83834e-07
-2.73302e-07
-9.21436e-07
2.36472e-07
-0.00113953
-1.24798e-06
1.89221e-07
6.45157e-08
0.00113939
-2.76264e-07
1.22633e-06
2.59913e-07
8.83731e-07
-2.75941e-07
-9.21306e-07
2.39282e-07
-0.000271398
1.28221e-06
1.2481e-06
-2.37307e-07
-2.42629e-07
0.000269348
-1.66168e-07
-1.66217e-07
-0.00119121
1.5798e-07
1.58249e-07
0.00119122
-0.00113934
-1.2485e-06
1.66335e-07
5.48657e-08
0.0011392
-2.72451e-07
1.23303e-06
2.61454e-07
8.8634e-07
-2.68093e-07
-9.1561e-07
2.3939e-07
-0.00113897
-1.24298e-06
1.66148e-07
5.47633e-08
0.00113884
-2.72417e-07
1.22759e-06
2.61516e-07
8.86241e-07
-2.70741e-07
-9.15556e-07
2.42161e-07
-0.000271263
1.27718e-06
1.24308e-06
-2.33577e-07
-2.38909e-07
0.000269215
-1.43945e-07
-1.43998e-07
-0.00119125
1.4414e-07
1.44399e-07
0.00119125
-0.0011388
-1.24381e-06
1.44026e-07
4.57525e-08
0.00113867
-2.68887e-07
1.2342e-06
2.62893e-07
8.88692e-07
-2.63205e-07
-9.10187e-07
2.42058e-07
-0.00113843
-1.23831e-06
1.43845e-07
4.56171e-08
0.0011383
-2.68869e-07
1.22871e-06
2.62926e-07
8.88564e-07
-2.65844e-07
-9.10054e-07
2.44867e-07
-0.000271136
1.27253e-06
1.23845e-06
-2.30181e-07
-2.35511e-07
0.000269091
-1.22516e-07
-1.22615e-07
-0.00119122
1.30298e-07
1.30505e-07
0.00119121
-0.00113828
-1.23947e-06
1.22623e-07
3.71053e-08
0.00113816
-2.65546e-07
1.2352e-06
2.64182e-07
8.90902e-07
-2.58581e-07
-9.05032e-07
2.44599e-07
-0.00113792
-1.234e-06
1.22463e-07
3.70838e-08
0.00113779
-2.65533e-07
1.2297e-06
2.64211e-07
8.90765e-07
-2.61226e-07
-9.04914e-07
2.47389e-07
-0.000271018
1.26819e-06
1.2341e-06
-2.27018e-07
-2.32369e-07
0.000268976
-1.0202e-07
-1.02144e-07
-0.00119114
1.16556e-07
1.16668e-07
0.00119111
-0.00113779
-1.23541e-06
1.02086e-07
2.90416e-08
0.00113767
-2.62441e-07
1.23609e-06
2.65338e-07
8.92968e-07
-2.54209e-07
-9.0017e-07
2.46972e-07
-0.00113742
-1.22994e-06
1.01968e-07
2.91557e-08
0.0011373
-2.62454e-07
1.23057e-06
2.65363e-07
8.92843e-07
-2.56884e-07
-9.00051e-07
2.49738e-07
-0.000270909
1.26416e-06
1.23005e-06
-2.24101e-07
-2.29478e-07
0.000268869
-8.24528e-08
-8.26362e-08
-0.001191
1.02991e-07
1.03001e-07
0.00119096
-0.00113731
-1.23159e-06
8.24441e-08
2.15226e-08
0.0011372
-2.5957e-07
1.23688e-06
2.66373e-07
8.94911e-07
-2.50111e-07
-8.95621e-07
2.49179e-07
-0.00113695
-1.22616e-06
8.23993e-08
2.16884e-08
0.00113683
-2.59622e-07
1.23136e-06
2.66379e-07
8.9477e-07
-2.52785e-07
-8.95486e-07
2.51944e-07
-0.000270808
1.26038e-06
1.22625e-06
-2.21392e-07
-2.26787e-07
0.00026877
-6.38084e-08
-6.40322e-08
-0.00119082
8.96023e-08
8.95237e-08
0.00119077
-0.00113686
-1.22807e-06
6.3797e-08
1.4399e-08
0.00113676
-2.5687e-07
1.23762e-06
2.67322e-07
8.96712e-07
-2.46259e-07
-8.91316e-07
2.5123e-07
-0.0011365
-1.2227e-06
6.37465e-08
1.46577e-08
0.00113639
-2.56958e-07
1.23206e-06
2.67276e-07
8.96585e-07
-2.4892e-07
-8.91186e-07
2.54008e-07
-0.000270715
1.25685e-06
1.22271e-06
-2.18881e-07
-2.24286e-07
0.000268679
-4.60101e-08
-4.61984e-08
-0.00119061
7.62878e-08
7.62247e-08
0.00119054
-0.00113644
-1.22482e-06
4.59813e-08
8.01144e-09
0.00113634
-2.54439e-07
1.23825e-06
2.68138e-07
8.98388e-07
-2.42642e-07
-8.87311e-07
2.53143e-07
-0.00113607
-1.2194e-06
4.59372e-08
8.19026e-09
0.00113597
-2.54496e-07
1.23271e-06
2.68101e-07
8.9825e-07
-2.45317e-07
-8.87177e-07
2.55902e-07
-0.00027063
1.25356e-06
1.21943e-06
-2.16573e-07
-2.21976e-07
0.000268595
-2.9003e-08
-2.91564e-08
-0.00119035
6.31802e-08
6.3078e-08
0.00119028
-0.00113604
-1.22175e-06
2.89922e-08
2.22594e-09
0.00113594
-2.52186e-07
1.23883e-06
2.68822e-07
8.99924e-07
-2.39282e-07
-8.83565e-07
2.54878e-07
-0.00113567
-1.21634e-06
2.89346e-08
2.39577e-09
0.00113557
-2.52222e-07
1.23328e-06
2.68793e-07
8.9979e-07
-2.41947e-07
-8.83433e-07
2.57636e-07
-0.000270552
1.25051e-06
1.21641e-06
-2.14473e-07
-2.19857e-07
0.000268519
-1.33473e-08
-1.3463e-08
-0.00119007
5.08687e-08
5.07851e-08
0.00118999
-0.00113566
-1.21887e-06
1.33936e-08
-4.17322e-09
0.00113557
-2.50038e-07
1.23937e-06
2.69505e-07
9.01431e-07
-2.36081e-07
-8.8e-07
2.56565e-07
-0.00113529
-1.21348e-06
1.3329e-08
-3.87058e-09
0.0011352
-2.50101e-07
1.23383e-06
2.69454e-07
9.01276e-07
-2.38749e-07
-8.7988e-07
2.593e-07
-0.000270481
1.24765e-06
1.21354e-06
-2.12491e-07
-2.17878e-07
0.000268451
5.95221e-10
5.50079e-10
-0.00118976
3.91801e-08
3.90754e-08
0.00118968
-0.0011353
-1.21628e-06
-5.59518e-10
-9.98103e-09
0.00113522
-2.48157e-07
1.23976e-06
2.69972e-07
9.02826e-07
-2.33049e-07
-8.76653e-07
2.58128e-07
-0.00113493
-1.21089e-06
-6.02444e-10
-9.70533e-09
0.00113485
-2.48197e-07
1.2342e-06
2.69958e-07
9.02676e-07
-2.3572e-07
-8.7652e-07
2.60856e-07
-0.000270418
1.24503e-06
1.21096e-06
-2.10729e-07
-2.16086e-07
0.000268388
1.68803e-08
1.69413e-08
-0.00118943
2.5583e-08
2.55339e-08
0.00118935
-0.00113497
-1.21386e-06
-1.68749e-08
-1.36639e-08
0.00113489
-2.46376e-07
1.24015e-06
2.70463e-07
9.04256e-07
-2.3018e-07
-8.73434e-07
2.59653e-07
-0.0011346
-1.20841e-06
-1.69566e-08
-1.34834e-08
0.00113452
-2.46409e-07
1.23463e-06
2.70472e-07
9.04112e-07
-2.32865e-07
-8.73306e-07
2.62387e-07
-0.00027036
1.24254e-06
1.2085e-06
-2.09048e-07
-2.14386e-07
0.000268333
3.10385e-08
3.12284e-08
-0.00118909
1.33149e-08
1.33573e-08
0.001189
-0.00113465
-1.21164e-06
-3.11078e-08
-1.70162e-08
0.00113458
-2.44781e-07
1.24046e-06
2.70835e-07
9.05401e-07
-2.27675e-07
-8.70618e-07
2.60874e-07
-0.00113429
-1.20618e-06
-3.11781e-08
-1.69349e-08
0.00113421
-2.44784e-07
1.23497e-06
2.70862e-07
9.05232e-07
-2.30364e-07
-8.70486e-07
2.63608e-07
-0.000270309
1.2403e-06
1.20629e-06
-2.07555e-07
-2.12866e-07
0.000268283
4.40035e-08
4.43674e-08
-0.00118873
1.68604e-09
1.83333e-09
0.00118864
-0.00113436
-1.20963e-06
-4.41932e-08
-1.99202e-08
0.00113429
-2.43344e-07
1.24068e-06
2.71126e-07
9.06409e-07
-2.25394e-07
-8.6802e-07
2.61956e-07
-0.001134
-1.20417e-06
-4.42676e-08
-1.99208e-08
0.00113393
-2.43341e-07
1.23519e-06
2.71155e-07
9.06285e-07
-2.28106e-07
-8.67892e-07
2.64688e-07
-0.000270264
1.23825e-06
1.20427e-06
-2.06206e-07
-2.11497e-07
0.00026824
5.43915e-08
5.48302e-08
-0.00118836
-7.41361e-09
-7.20741e-09
0.00118826
-0.00113409
-1.20778e-06
-5.46476e-08
-2.40719e-08
0.00113403
-2.42008e-07
1.24086e-06
2.71392e-07
9.0727e-07
-2.23389e-07
-8.65695e-07
2.62846e-07
-0.00113373
-1.20232e-06
-5.47139e-08
-2.41272e-08
0.00113366
-2.4201e-07
1.23538e-06
2.71421e-07
9.07139e-07
-2.26099e-07
-8.65591e-07
2.6556e-07
-0.000270225
1.23641e-06
1.20246e-06
-2.05024e-07
-2.10294e-07
0.000268201
6.42479e-08
6.47594e-08
-0.00118797
-1.6332e-08
-1.60725e-08
0.00118788
-0.00113384
-1.20611e-06
-6.45951e-08
-2.77005e-08
0.00113378
-2.40761e-07
1.24103e-06
2.71634e-07
9.0805e-07
-2.21589e-07
-8.63618e-07
2.63608e-07
-0.00113347
-1.20063e-06
-6.46571e-08
-2.77324e-08
0.00113341
-2.40769e-07
1.23555e-06
2.71665e-07
9.07894e-07
-2.24297e-07
-8.6351e-07
2.66324e-07
-0.000270191
1.23467e-06
1.20072e-06
-2.03887e-07
-2.09151e-07
0.000268169
7.34201e-08
7.39151e-08
-0.00118758
-2.47785e-08
-2.45339e-08
0.00118749
-0.00113361
-1.20456e-06
-7.37708e-08
-3.1015e-08
0.00113355
-2.39631e-07
1.24117e-06
2.71848e-07
9.08726e-07
-2.19946e-07
-8.6174e-07
2.64284e-07
-0.00113324
-1.19908e-06
-7.3883e-08
-3.10678e-08
0.00113319
-2.39639e-07
1.2357e-06
2.71874e-07
9.08577e-07
-2.22656e-07
-8.61598e-07
2.67007e-07
-0.000270162
1.23312e-06
1.19919e-06
-2.02884e-07
-2.08142e-07
0.000268141
8.17761e-08
8.22409e-08
-0.00118719
-3.26221e-08
-3.23876e-08
0.00118709
-0.00113339
-1.20313e-06
-8.21413e-08
-3.40877e-08
0.00113334
-2.38609e-07
1.24131e-06
2.72031e-07
9.09298e-07
-2.18493e-07
-8.60012e-07
2.64861e-07
-0.00113303
-1.19767e-06
-8.22479e-08
-3.41188e-08
0.00113298
-2.38609e-07
1.23582e-06
2.72045e-07
9.09161e-07
-2.2118e-07
-8.59885e-07
2.67592e-07
-0.000270138
1.2317e-06
1.19777e-06
-2.01968e-07
-2.07223e-07
0.000268118
8.93226e-08
8.9768e-08
-0.00118679
-3.98342e-08
-3.9651e-08
0.00118669
-0.00113319
-1.20185e-06
-8.97156e-08
-3.69321e-08
0.00113315
-2.37679e-07
1.24139e-06
2.72156e-07
9.09833e-07
-2.17194e-07
-8.58478e-07
2.65342e-07
-0.00113283
-1.19639e-06
-8.98022e-08
-3.69522e-08
0.00113278
-2.37681e-07
1.23591e-06
2.72182e-07
9.09663e-07
-2.19874e-07
-8.58371e-07
2.68083e-07
-0.000270119
1.23042e-06
1.19649e-06
-2.01144e-07
-2.06411e-07
0.000268099
9.61675e-08
9.65651e-08
-0.00118639
-4.65025e-08
-4.63624e-08
0.0011863
-0.00113301
-1.2007e-06
-9.65373e-08
-3.95027e-08
0.00113297
-2.36843e-07
1.24146e-06
2.72266e-07
9.10258e-07
-2.1604e-07
-8.57129e-07
2.65746e-07
-0.00113265
-1.19524e-06
-9.66413e-08
-3.95116e-08
0.0011326
-2.36854e-07
1.23598e-06
2.72294e-07
9.10109e-07
-2.18721e-07
-8.56996e-07
2.68485e-07
-0.000270104
1.22928e-06
1.19534e-06
-2.00412e-07
-2.05681e-07
0.000268085
1.02275e-07
1.0264e-07
-0.001186
-5.2579e-08
-5.24699e-08
0.0011859
-0.00113285
-1.19966e-06
-1.02637e-07
-4.19034e-08
0.00113281
-2.36096e-07
1.2415e-06
2.72345e-07
9.10624e-07
-2.15026e-07
-8.55924e-07
2.66077e-07
-0.00113248
-1.19421e-06
-1.02781e-07
-4.18876e-08
0.00113244
-2.3611e-07
1.23602e-06
2.72361e-07
9.10491e-07
-2.17699e-07
-8.55771e-07
2.68821e-07
-0.000270092
1.22824e-06
1.1943e-06
-1.99754e-07
-2.05027e-07
0.000268075
1.07733e-07
1.0803e-07
-0.0011856
-5.80999e-08
-5.80348e-08
0.0011855
-0.00113269
-1.19873e-06
-1.08079e-07
-4.40717e-08
0.00113266
-2.35422e-07
1.24155e-06
2.72411e-07
9.1093e-07
-2.14132e-07
-8.54863e-07
2.66343e-07
-0.00113233
-1.19329e-06
-1.08313e-07
-4.39996e-08
0.00113229
-2.35452e-07
1.23604e-06
2.72407e-07
9.10815e-07
-2.16783e-07
-8.54676e-07
2.69101e-07
-0.000270085
1.22732e-06
1.19339e-06
-1.99181e-07
-2.04447e-07
0.000268068
1.12563e-07
1.12808e-07
-0.0011852
-6.3063e-08
-6.30815e-08
0.0011851
-0.00113256
-1.1979e-06
-1.12879e-07
-4.60552e-08
0.00113252
-2.34823e-07
1.24156e-06
2.72455e-07
9.11182e-07
-2.13364e-07
-8.5394e-07
2.66542e-07
-0.00113219
-1.19245e-06
-1.12976e-07
-4.59961e-08
0.00113216
-2.34849e-07
1.23607e-06
2.72465e-07
9.11047e-07
-2.16055e-07
-8.53801e-07
2.69283e-07
-0.000270081
1.22653e-06
1.19256e-06
-1.98657e-07
-2.03962e-07
0.000268064
1.16813e-07
1.16994e-07
-0.0011848
-6.75243e-08
-6.76151e-08
0.0011847
-0.00113243
-1.19716e-06
-1.17052e-07
-4.79095e-08
0.0011324
-2.34284e-07
1.24158e-06
2.72494e-07
9.11388e-07
-2.12711e-07
-8.53142e-07
2.66701e-07
-0.00113206
-1.19171e-06
-1.17101e-07
-4.77823e-08
0.00113203
-2.34306e-07
1.23608e-06
2.72491e-07
9.11231e-07
-2.15422e-07
-8.53026e-07
2.69409e-07
-0.000270079
1.22584e-06
1.19184e-06
-1.98203e-07
-2.03543e-07
0.000268064
1.20475e-07
1.20628e-07
-0.00118441
-7.14815e-08
-7.16322e-08
0.00118431
-0.00113231
-1.19649e-06
-1.20651e-07
-4.9495e-08
0.00113229
-2.3383e-07
1.24157e-06
2.72502e-07
9.1154e-07
-2.12178e-07
-8.52486e-07
2.66783e-07
-0.00113195
-1.19105e-06
-1.20632e-07
-4.93932e-08
0.00113192
-2.33859e-07
1.23608e-06
2.72525e-07
9.11363e-07
-2.14905e-07
-8.52382e-07
2.69477e-07
-0.000270081
1.22523e-06
1.19121e-06
-1.97816e-07
-2.03171e-07
0.000268066
1.23544e-07
1.2373e-07
-0.00118402
-7.49667e-08
-7.51173e-08
0.00118392
-0.00113221
-1.19598e-06
-1.23648e-07
-5.08514e-08
0.00113218
-2.33445e-07
1.24155e-06
2.72486e-07
9.11638e-07
-2.11757e-07
-8.51953e-07
2.66813e-07
-0.00113184
-1.19053e-06
-1.23571e-07
-5.07743e-08
0.00113182
-2.33463e-07
1.23606e-06
2.72512e-07
9.11443e-07
-2.14505e-07
-8.51866e-07
2.69487e-07
-0.000270086
1.22473e-06
1.19072e-06
-1.97522e-07
-2.02877e-07
0.00026807
1.26027e-07
1.2629e-07
-0.00118363
-7.79704e-08
-7.80888e-08
0.00118353
-0.00113211
-1.19556e-06
-1.26063e-07
-5.19763e-08
0.00113209
-2.33169e-07
1.24147e-06
2.7242e-07
9.11665e-07
-2.11437e-07
-8.51553e-07
2.66788e-07
-0.00113175
-1.19009e-06
-1.25943e-07
-5.19856e-08
0.00113172
-2.33162e-07
1.23601e-06
2.72466e-07
9.11454e-07
-2.14214e-07
-8.51486e-07
2.69448e-07
-0.000270092
1.22431e-06
1.19031e-06
-1.97297e-07
-2.02632e-07
0.000268077
1.27879e-07
1.283e-07
-0.00118325
-8.04918e-08
-8.05005e-08
0.00118315
-0.00113202
-1.19525e-06
-1.27865e-07
-5.27983e-08
0.001132
-2.32998e-07
1.24135e-06
2.72299e-07
9.11628e-07
-2.1126e-07
-8.51298e-07
2.66702e-07
-0.00113166
-1.18976e-06
-1.27729e-07
-5.2938e-08
0.00113164
-2.32959e-07
1.23591e-06
2.72376e-07
9.11395e-07
-2.14055e-07
-8.51242e-07
2.69337e-07
-0.000270101
1.22398e-06
1.19002e-06
-1.97167e-07
-2.02462e-07
0.000268087
1.29052e-07
1.29731e-07
-0.00118287
-8.25179e-08
-8.2338e-08
0.00118277
-0.00113194
-1.19509e-06
-1.29029e-07
-5.33058e-08
0.00113193
-2.3294e-07
1.24117e-06
2.72108e-07
9.11518e-07
-2.11205e-07
-8.51199e-07
2.6654e-07
-0.00113158
-1.18955e-06
-1.289e-07
-5.36424e-08
0.00113156
-2.32843e-07
1.23579e-06
2.72247e-07
9.11294e-07
-2.14004e-07
-8.51191e-07
2.69165e-07
-0.000270112
1.22378e-06
1.18989e-06
-1.97155e-07
-2.02383e-07
0.000268098
1.29532e-07
1.30497e-07
-0.00118249
-8.40116e-08
-8.35866e-08
0.0011824
-0.00113187
-1.19507e-06
-1.29514e-07
-5.34315e-08
0.00113186
-2.33016e-07
1.24091e-06
2.71839e-07
9.11288e-07
-2.11307e-07
-8.51268e-07
2.66266e-07
-0.00113151
-1.18949e-06
-1.29492e-07
-5.40318e-08
0.00113149
-2.32868e-07
1.23556e-06
2.72022e-07
9.11067e-07
-2.14083e-07
-8.51208e-07
2.68921e-07
-0.000270124
1.22369e-06
1.1899e-06
-1.97256e-07
-2.02395e-07
0.00026811
1.29257e-07
1.30505e-07
-0.00118213
-8.48829e-08
-8.42104e-08
0.00118204
-0.00113181
-1.19521e-06
-1.29286e-07
-5.31803e-08
0.00113179
-2.33227e-07
1.24055e-06
2.71483e-07
9.10939e-07
-2.11588e-07
-8.51523e-07
2.65872e-07
-0.00113145
-1.18961e-06
-1.2943e-07
-5.39841e-08
0.00113143
-2.33062e-07
1.23523e-06
2.71678e-07
9.10763e-07
-2.14319e-07
-8.51428e-07
2.68573e-07
-0.000270138
1.22375e-06
1.19005e-06
-1.97494e-07
-2.02525e-07
0.000268125
1.28229e-07
1.29641e-07
-0.00118177
-8.50754e-08
-8.421e-08
0.00118168
-0.00113175
-1.19552e-06
-1.28373e-07
-5.2567e-08
0.00113174
-2.33569e-07
1.2401e-06
2.7104e-07
9.1047e-07
-2.12029e-07
-8.51966e-07
2.6537e-07
-0.00113139
-1.18992e-06
-1.28677e-07
-5.34425e-08
0.00113138
-2.33431e-07
1.23477e-06
2.71209e-07
9.10342e-07
-2.14719e-07
-8.51826e-07
2.68115e-07
-0.000270154
1.22396e-06
1.19036e-06
-1.97851e-07
-2.02796e-07
0.00026814
1.26516e-07
1.27877e-07
-0.00118142
-8.45779e-08
-8.36693e-08
0.00118133
-0.0011317
-1.19596e-06
-1.26781e-07
-5.16291e-08
0.00113169
-2.34033e-07
1.23956e-06
2.70529e-07
9.09878e-07
-2.12639e-07
-8.52587e-07
2.64748e-07
-0.00113134
-1.19041e-06
-1.27253e-07
-5.24709e-08
0.00113133
-2.33951e-07
1.23419e-06
2.70642e-07
9.09797e-07
-2.15271e-07
-8.52405e-07
2.67552e-07
-0.000270171
1.22433e-06
1.19076e-06
-1.98293e-07
-2.03208e-07
0.000268157
1.24149e-07
1.25254e-07
-0.00118108
-8.34505e-08
-8.26429e-08
0.00118099
-0.00113166
-1.19655e-06
-1.24524e-07
-5.04783e-08
0.00113165
-2.34613e-07
1.23895e-06
2.69943e-07
9.09134e-07
-2.13433e-07
-8.53412e-07
2.63989e-07
-0.0011313
-1.19106e-06
-1.25115e-07
-5.10996e-08
0.0011313
-2.34605e-07
1.23352e-06
2.69991e-07
9.0911e-07
-2.1601e-07
-8.53176e-07
2.66853e-07
-0.000270189
1.22487e-06
1.19126e-06
-1.98807e-07
-2.03786e-07
0.000268175
1.21187e-07
1.21831e-07
-0.00118075
-8.17177e-08
-8.12107e-08
0.00118067
-0.00113163
-1.19726e-06
-1.2164e-07
-4.91423e-08
0.00113162
-2.35312e-07
1.23825e-06
2.6928e-07
9.08257e-07
-2.14377e-07
-8.54412e-07
2.63101e-07
-0.00113127
-1.19183e-06
-1.22234e-07
-4.93745e-08
0.00113127
-2.35376e-07
1.23277e-06
2.69256e-07
9.08264e-07
-2.16919e-07
-8.54146e-07
2.65996e-07
-0.000270209
1.2256e-06
1.19185e-06
-1.99405e-07
-2.04541e-07
0.000268195
1.17729e-07
1.17784e-07
-0.00118044
-7.94662e-08
-7.94298e-08
0.00118036
-0.0011316
-1.19807e-06
-1.18249e-07
-4.7654e-08
0.0011316
-2.36073e-07
1.23752e-06
2.68582e-07
9.07286e-07
-2.15443e-07
-8.55533e-07
2.62118e-07
-0.00113125
-1.19271e-06
-1.18718e-07
-4.74065e-08
0.00113124
-2.36207e-07
1.23196e-06
2.68486e-07
9.07281e-07
-2.17993e-07
-8.55276e-07
2.64999e-07
-0.000270229
1.22648e-06
1.19251e-06
-2.00039e-07
-2.05405e-07
0.000268216
1.13914e-07
1.13307e-07
-0.00118014
-7.68265e-08
-7.73885e-08
0.00118006
-0.00113158
-1.19892e-06
-1.14455e-07
-4.60705e-08
0.00113158
-2.36846e-07
1.23676e-06
2.67882e-07
9.06237e-07
-2.16585e-07
-8.56733e-07
2.61053e-07
-0.00113123
-1.19362e-06
-1.14695e-07
-4.53129e-08
0.00113123
-2.37048e-07
1.23114e-06
2.67719e-07
9.06182e-07
-2.19174e-07
-8.56514e-07
2.63888e-07
-0.000270251
1.22746e-06
1.19324e-06
-2.00718e-07
-2.0634e-07
0.000268237
1.09865e-07
1.08635e-07
-0.00117985
-7.3946e-08
-7.51193e-08
0.00117978
-0.00113157
-1.19976e-06
-1.10348e-07
-4.44895e-08
0.00113157
-2.37621e-07
1.23601e-06
2.67173e-07
9.05106e-07
-2.1776e-07
-8.57984e-07
2.59911e-07
-0.00113122
-1.19452e-06
-1.10342e-07
-4.32623e-08
0.00113122
-2.37851e-07
1.23037e-06
2.66975e-07
9.04995e-07
-2.20401e-07
-8.57832e-07
2.62686e-07
-0.000270273
1.22843e-06
1.19402e-06
-2.01441e-07
-2.07243e-07
0.000268259
1.05758e-07
1.0407e-07
-0.00117958
-7.10578e-08
-7.27542e-08
0.00117951
-0.00113157
-1.20061e-06
-1.06165e-07
-4.28752e-08
0.00113157
-2.38369e-07
1.23526e-06
2.66446e-07
9.03928e-07
-2.18901e-07
-8.59201e-07
2.58679e-07
-0.00113121
-1.19538e-06
-1.05922e-07
-4.14098e-08
0.00113121
-2.38572e-07
1.22958e-06
2.6624e-07
9.03755e-07
-2.21582e-07
-8.59057e-07
2.61416e-07
-0.000270295
1.22937e-06
1.19485e-06
-2.02197e-07
-2.08071e-07
0.000268281
1.01699e-07
9.98934e-08
-0.00117933
-6.83542e-08
-7.03635e-08
0.00117926
-0.00113157
-1.2014e-06
-1.02111e-07
-4.1405e-08
0.00113158
-2.39042e-07
1.2345e-06
2.65697e-07
9.0266e-07
-2.19851e-07
-8.60278e-07
2.57371e-07
-0.00113121
-1.19614e-06
-1.0165e-07
-3.9844e-08
0.00113121
-2.39224e-07
1.22882e-06
2.65518e-07
9.02399e-07
-2.2259e-07
-8.60165e-07
2.60056e-07
-0.000270318
1.23022e-06
1.1957e-06
-2.02937e-07
-2.08791e-07
0.000268304
9.79512e-08
9.62548e-08
-0.00117908
-6.60309e-08
-6.8126e-08
0.00117902
-0.00113158
-1.20211e-06
-9.84226e-08
-3.99364e-08
0.00113158
-2.39618e-07
1.23366e-06
2.64853e-07
9.01154e-07
-2.2046e-07
-8.61013e-07
2.55844e-07
-0.00113121
-1.19681e-06
-9.77612e-08
-3.84903e-08
0.00113122
-2.39761e-07
1.228e-06
2.64715e-07
9.00886e-07
-2.23258e-07
-8.61013e-07
2.58462e-07
-0.000270341
1.23096e-06
1.1965e-06
-2.03579e-07
-2.09333e-07
0.000268326
9.48195e-08
9.34229e-08
-0.00117886
-6.43088e-08
-6.63009e-08
0.0011788
-0.00113159
-1.20265e-06
-9.54003e-08
-3.84397e-08
0.00113159
-2.39992e-07
1.23261e-06
2.63773e-07
8.99253e-07
-2.20369e-07
-8.61276e-07
2.53702e-07
-0.00113122
-1.19734e-06
-9.46656e-08
-3.72469e-08
0.00113122
-2.40097e-07
1.22698e-06
2.63646e-07
8.98937e-07
-2.23199e-07
-8.61256e-07
2.56286e-07
-0.000270362
1.23147e-06
1.19715e-06
-2.03975e-07
-2.09574e-07
0.000268347
9.28923e-08
9.18893e-08
-0.00117865
-6.38491e-08
-6.55692e-08
0.00117859
-0.00113159
-1.20277e-06
-9.36418e-08
-3.67523e-08
0.00113161
-2.39833e-07
1.23096e-06
2.61938e-07
8.96184e-07
-2.18631e-07
-8.60421e-07
2.49864e-07
-0.00113122
-1.19744e-06
-9.29057e-08
-3.58661e-08
0.00113123
-2.39911e-07
1.22536e-06
2.61843e-07
8.95884e-07
-2.2146e-07
-8.60418e-07
2.52438e-07
-0.000270384
1.23152e-06
1.19736e-06
-2.03695e-07
-2.09135e-07
0.000268368
9.32011e-08
9.26598e-08
-0.00117845
-6.62226e-08
-6.75336e-08
0.00117839
-0.0011316
-1.2014e-06
-9.41954e-08
-3.34764e-08
0.00113162
-2.37747e-07
1.22727e-06
2.57513e-07
8.90221e-07
-2.12411e-07
-8.57086e-07
2.40991e-07
-0.00113123
-1.19602e-06
-9.35093e-08
-3.28887e-08
0.00113125
-2.37833e-07
1.2217e-06
2.57483e-07
8.8989e-07
-2.15254e-07
-8.57032e-07
2.43552e-07
-0.000270405
1.23004e-06
1.19602e-06
-2.01195e-07
-2.06512e-07
0.000268387
1.14563e-07
1.14741e-07
-0.00117827
-8.19626e-08
-8.85811e-08
0.00117821
-0.00113161
-1.1945e-06
-1.1038e-07
-3.71597e-08
0.00113166
-2.27915e-07
1.21952e-06
2.48924e-07
8.80306e-07
-1.95517e-07
-8.48539e-07
2.19581e-07
-0.00113125
-1.18638e-06
-1.1552e-07
-3.15856e-08
0.00113129
-2.2789e-07
1.21125e-06
2.46139e-07
8.77379e-07
-1.95636e-07
-8.45794e-07
2.22245e-07
-0.000270434
1.22572e-06
1.18908e-06
-1.8798e-07
-1.93213e-07
0.000268401
1.03004e-06
1.03749e-06
-0.001178
-8.93469e-07
-8.8276e-07
0.0011777
-0.00113191
-1.09098e-06
-1.03292e-06
-4.31634e-07
0.0011324
-1.22449e-07
1.37255e-06
3.11783e-07
1.002e-06
-5.79358e-08
-7.25782e-07
2.8843e-07
-0.00113155
-1.0827e-06
-1.04355e-06
-4.43007e-07
0.00113206
-1.22252e-07
1.36714e-06
3.14719e-07
9.98908e-07
-6.4208e-08
-7.22986e-07
2.91136e-07
-0.000270547
1.1247e-06
1.08275e-06
-8.25181e-08
-8.49241e-08
0.000268507
5.5087e-06
5.50169e-06
-0.00116475
-1.16739e-05
-1.1567e-05
0.000283505
0.000285734
0.000285474
0.000285474
4.52397e-06
6.71356e-06
7.15566e-06
4.52801e-06
6.71453e-06
7.15931e-06
-0.000280637
5.41358e-06
-5.49903e-06
5.95807e-06
-3.38515e-06
0.000278149
-0.000280608
-5.50127e-06
5.41891e-06
-3.39349e-06
5.95487e-06
0.000278129
-0.000271478
-5.41067e-06
-5.42208e-06
5.74154e-06
5.72971e-06
0.00027084
-1.2656e-06
-1.22878e-06
0.000271415
-0.000269389
2.30002e-07
2.37939e-07
-1.29861e-06
2.1319e-07
7.57179e-08
0.00113993
-2.88896e-07
1.27004e-06
2.6629e-07
8.8662e-07
-2.81605e-07
2.36146e-07
-9.33208e-07
0.00113905
1.9505e-07
-0.0011392
6.76071e-08
-1.28898e-06
2.64883e-07
-2.82847e-07
-9.22955e-07
2.35701e-07
-2.74631e-07
8.83159e-07
1.27113e-06
0.0011395
1.95276e-07
-0.00113965
6.78058e-08
-1.29453e-06
2.6769e-07
-2.85738e-07
-9.28556e-07
2.38445e-07
-2.77484e-07
8.88626e-07
-2.41482e-07
-2.43948e-07
0.000269518
-1.2315e-06
0.000271445
-0.000269411
2.3282e-07
2.35175e-07
0.00114017
1.95104e-07
-0.00114031
6.70758e-08
-1.25213e-06
2.62351e-07
-2.80172e-07
-9.25624e-07
2.38618e-07
-2.77342e-07
8.86022e-07
1.26565e-06
0.00113916
1.95023e-07
-0.0011393
6.76797e-08
-1.28908e-06
2.67715e-07
-2.85683e-07
-9.25635e-07
2.3847e-07
-2.77329e-07
8.85824e-07
2.12824e-07
7.54819e-08
0.00113938
-2.83173e-07
1.25915e-06
2.60712e-07
8.8111e-07
-2.7872e-07
2.33403e-07
-9.276e-07
1.95291e-07
-0.00114004
6.71919e-08
-1.25477e-06
2.5946e-07
-2.77315e-07
-9.22957e-07
2.35737e-07
8.83175e-07
-2.74577e-07
1.2602e-06
0.00113895
1.94925e-07
-0.00113909
6.75362e-08
-1.2835e-06
2.62081e-07
-2.79998e-07
-9.22965e-07
2.35719e-07
-2.74575e-07
8.83146e-07
-1.22599e-06
0.000271393
-0.00026937
2.30146e-07
2.37757e-07
2.12956e-07
7.50243e-08
0.0011405
-2.80559e-07
1.22505e-06
2.58195e-07
8.81311e-07
-2.81455e-07
2.36288e-07
-9.27637e-07
1.95122e-07
-0.00113968
6.70446e-08
-1.24929e-06
2.59507e-07
-2.77256e-07
-9.22779e-07
2.38528e-07
8.83108e-07
-2.77276e-07
1.22611e-06
0.00114006
1.9501e-07
-0.00114021
6.71668e-08
-1.2494e-06
2.59575e-07
-2.77382e-07
-9.22985e-07
2.38597e-07
-2.77299e-07
8.83321e-07
-0.000269383
2.32624e-07
2.37972e-07
1.28767e-06
1.25083e-06
-2.34768e-07
-2.42624e-07
0.000269354
-1.26689e-06
-1.23009e-06
0.00027128
-0.000269254
2.31454e-07
2.39392e-07
6.50253e-08
0.00113891
-2.81826e-07
1.26595e-06
2.6529e-07
8.83796e-07
-2.73295e-07
-9.21435e-07
2.36442e-07
-1.29322e-06
1.89403e-07
6.52463e-08
0.00113936
-2.84709e-07
1.27141e-06
2.68116e-07
8.8927e-07
-2.76162e-07
-9.27031e-07
2.39169e-07
0.00113849
1.71838e-07
-0.00113863
5.76958e-08
-1.28387e-06
2.6648e-07
-2.7893e-07
-9.17079e-07
2.38604e-07
-2.69368e-07
8.85679e-07
1.27238e-06
0.00113894
1.72113e-07
-0.00113908
5.78087e-08
-1.28942e-06
2.69305e-07
-2.81809e-07
-9.22677e-07
2.41343e-07
-2.72245e-07
8.9118e-07
-2.37491e-07
-2.39929e-07
0.000269376
-1.23277e-06
0.00027131