/*--------------------------------*- C++ -*----------------------------------*\
| =========                 |                                                 |
| \\      /  F ield         | OpenFOAM: The Open Source CFD Toolbox           |
|  \\    /   O peration     | Version:  v2012                                 |
|   \\  /    A nd           | Website:  www.openfoam.com                      |
|    \\/     M anipulation  |                                                 |
\*---------------------------------------------------------------------------*/
FoamFile
{
    version     2.0;
    format      ascii;
    class       volVectorField;
    location    "400";
    object      U;
}
// * * * * * * * * * * * * * * * * * * * * * * * * * * * * * * * * * * * * * //

dimensions      [0 1 -1 0 0 0 0];


internalField   nonuniform List<vector> 
85864
(
(2.22899e-05 2.22916e-05 0.113139)
(9.82112e-06 -1.7151e-05 0.108268)
(4.40976e-05 4.40842e-05 0.104731)
(9.87858e-06 1.71688e-05 0.108266)
(1.71455e-05 9.83286e-06 0.108268)
(1.71842e-05 -9.90106e-06 0.108265)
(4.40121e-05 -4.40873e-05 0.104731)
(6.56758e-07 1.09715e-05 0.0815644)
(1.09774e-05 6.49894e-07 0.0815638)
(1.23927e-05 -3.67227e-07 0.0909796)
(2.22798e-05 -2.22975e-05 0.113139)
(5.44809e-06 -4.56693e-06 0.0708561)
(6.69187e-06 -1.89192e-05 0.0926136)
(4.60087e-06 5.48455e-06 0.0708598)
(5.48374e-06 4.63835e-06 0.0708587)
(6.97859e-06 7.25795e-06 0.08698)
(7.2301e-06 7.01772e-06 0.0869775)
(6.67285e-06 1.88997e-05 0.0926141)
(1.88982e-05 6.68475e-06 0.0926131)
(2.70026e-05 4.55456e-06 0.110821)
(2.44019e-05 1.0704e-07 0.0985323)
(1.09636e-05 -6.25381e-07 0.0815628)
(1.23945e-05 4.30756e-07 0.0909797)
(2.69931e-05 -4.61007e-06 0.11082)
(1.89028e-05 -6.65471e-06 0.0926123)
(2.44005e-05 -8.87018e-08 0.0985324)
(7.22245e-06 -7.00158e-06 0.0869757)
(6.99264e-06 -7.24123e-06 0.0869789)
(4.61253e-06 -5.48379e-06 0.0708592)
(6.45376e-07 -1.09877e-05 0.0815642)
(-1.58177e-06 -1.14477e-05 0.0816215)
(-4.7597e-07 9.56754e-06 0.0852114)
(-7.11716e-07 6.36415e-06 0.067747)
(-6.71532e-06 1.11263e-07 0.0678177)
(-1.14924e-05 -1.49644e-06 0.0816215)
(9.60552e-06 -4.48985e-07 0.0852112)
(-1.1794e-05 -1.49562e-06 0.0852742)
(6.42959e-06 -6.48372e-07 0.067748)
(-6.84327e-06 1.11595e-07 0.0762652)
(-1.40866e-05 -5.75014e-07 0.0910297)
(1.23834e-05 4.11873e-08 0.0894135)
(6.2916e-06 -5.84195e-07 0.078004)
(-1.35689e-05 -1.07038e-06 0.08947)
(-7.08976e-06 -3.77581e-07 0.0780499)
(6.99604e-06 -8.39675e-07 0.0762118)
(-6.8537e-06 2.00796e-06 0.0709214)
(-2.07346e-06 -6.87998e-06 0.0709207)
(-6.9098e-06 -2.03714e-06 0.0709201)
(-8.30768e-06 -1.64062e-05 0.0913138)
(1.40119e-05 2.09909e-05 0.0960661)
(-5.19502e-06 -8.37528e-06 0.0870358)
(4.41485e-06 6.41587e-06 0.0809462)
(-3.86761e-06 -7.60975e-06 0.0810034)
(-8.33127e-06 -2.07246e-05 0.0961241)
(8.29098e-06 1.35897e-05 0.0912583)
(-1.64195e-05 -8.33317e-06 0.0913068)
(2.093e-05 1.4023e-05 0.0960626)
(-8.41743e-06 -5.18693e-06 0.0870341)
(6.38861e-06 4.44793e-06 0.0809403)
(-7.63761e-06 -3.86501e-06 0.0809979)
(-2.07384e-05 -8.35637e-06 0.0961212)
(1.35533e-05 8.32468e-06 0.0912512)
(-6.69233e-06 -6.68707e-06 0.0831099)
(5.45548e-06 3.47199e-06 0.0677604)
(3.45388e-06 5.48418e-06 0.0677541)
(-5.52204e-06 -4.09003e-06 0.0678234)
(-4.09872e-06 -5.52168e-06 0.0678171)
(5.65136e-06 5.68046e-06 0.0830579)
(-6.6584e-06 -1.35192e-07 0.0678207)
(-1.14538e-05 1.51688e-06 0.0816219)
(9.5877e-06 5.04789e-07 0.0852105)
(-1.17416e-05 1.49323e-06 0.0852754)
(6.37413e-06 7.2922e-07 0.0677463)
(-6.7956e-06 -1.23181e-07 0.0762655)
(-1.40791e-05 5.5942e-07 0.0910296)
(6.29021e-06 6.49002e-07 0.0780037)
(1.23491e-05 2.61444e-08 0.089413)
(-7.08123e-06 3.68733e-07 0.0780498)
(-1.35357e-05 1.04869e-06 0.0894704)
(6.9489e-06 9.04242e-07 0.0762095)
(-1.63829e-05 8.33891e-06 0.0913069)
(2.09248e-05 -1.40419e-05 0.096062)
(-8.37109e-06 5.18758e-06 0.0870349)
(6.36398e-06 -4.46886e-06 0.0809389)
(-7.58755e-06 3.90405e-06 0.0809983)
(-2.0721e-05 8.33476e-06 0.0961215)
(1.35172e-05 -8.33473e-06 0.0912505)
(-8.29865e-06 1.64007e-05 0.0913135)
(1.40053e-05 -2.09328e-05 0.0960657)
(-5.18075e-06 8.4246e-06 0.0870357)
(4.40977e-06 -6.38065e-06 0.0809448)
(-8.35343e-06 2.07318e-05 0.0961239)
(-3.83534e-06 7.62105e-06 0.0810033)
(8.27268e-06 -1.35659e-05 0.0912577)
(-6.68126e-06 6.71012e-06 0.0831096)
(3.4516e-06 -5.49676e-06 0.0677534)
(5.46801e-06 -3.47049e-06 0.0677596)
(-4.08101e-06 5.55731e-06 0.067817)
(-5.51171e-06 4.11239e-06 0.0678229)
(5.65468e-06 -5.68888e-06 0.0830573)
(-2.03154e-06 6.91271e-06 0.0709204)
(-1.49924e-06 1.15035e-05 0.0816212)
(3.10867e-05 1.02601e-05 0.115031)
(-2.0117e-05 -2.01172e-05 0.0974815)
(4.29045e-05 2.39912e-05 0.101631)
(2.39513e-05 4.28477e-05 0.101628)
(-3.85461e-05 -3.85356e-05 0.104891)
(-4.0089e-05 -2.13899e-05 0.10172)
(-2.14073e-05 -4.00854e-05 0.101717)
(1.85964e-05 1.86079e-05 0.0974117)
(-2.00982e-05 2.01413e-05 0.0974813)
(2.39264e-05 -4.29142e-05 0.101627)
(4.28408e-05 -2.3973e-05 0.101631)
(-3.85418e-05 3.85623e-05 0.104891)
(-4.01052e-05 2.14088e-05 0.10172)
(-2.13724e-05 4.00693e-05 0.101717)
(1.85306e-05 -1.8624e-05 0.0974116)
(3.10922e-05 -1.02759e-05 0.11503)
(-1.99773e-06 4.56667e-05 0.101663)
(1.22211e-05 -5.23186e-05 0.0995352)
(-6.78241e-06 1.38333e-05 0.0926793)
(3.31149e-06 -2.15088e-05 0.095376)
(-5.83483e-06 4.39914e-05 0.0996112)
(-3.53021e-06 1.85859e-05 0.0954559)
(8.00273e-06 -5.51651e-05 0.101528)
(-2.01545e-06 -4.56632e-05 0.101663)
(1.22259e-05 5.23449e-05 0.0995356)
(-6.81094e-06 -1.3767e-05 0.0926791)
(3.29669e-06 2.14639e-05 0.0953769)
(-3.55637e-06 -1.85319e-05 0.095456)
(-5.82287e-06 -4.39635e-05 0.0996105)
(8.03843e-06 5.5149e-05 0.101528)
(-4.57003e-05 -1.9932e-06 0.101663)
(5.23074e-05 1.22156e-05 0.099534)
(-1.38098e-05 -6.78128e-06 0.0926791)
(2.14959e-05 3.29036e-06 0.0953756)
(-1.86042e-05 -3.52155e-06 0.0954555)
(-4.39918e-05 -5.83206e-06 0.09961)
(5.51211e-05 8.00412e-06 0.101527)
(-4.23765e-05 7.90164e-07 0.103337)
(-1.7407e-05 -4.55659e-07 0.0985999)
(2.44347e-05 1.52662e-06 0.0974699)
(5.68725e-05 7.71863e-07 0.103929)
(-1.78473e-05 -1.09457e-06 0.0975484)
(-4.05517e-05 6.33688e-07 0.104056)
(5.65653e-05 3.92143e-06 0.103181)
(-4.56473e-05 1.96351e-06 0.101662)
(5.23245e-05 -1.22191e-05 0.0995332)
(-1.37745e-05 6.75242e-06 0.0926794)
(2.14897e-05 -3.26138e-06 0.0953758)
(-1.85492e-05 3.51315e-06 0.0954558)
(-4.39577e-05 5.78841e-06 0.0996096)
(5.51504e-05 -8.00914e-06 0.101527)
(-4.23844e-05 -7.9701e-07 0.103337)
(-1.74048e-05 4.40149e-07 0.0986)
(5.68753e-05 -7.83732e-07 0.103929)
(2.44041e-05 -1.50082e-06 0.0974702)
(-4.05435e-05 -6.50265e-07 0.104056)
(-1.7828e-05 1.08711e-06 0.0975486)
(5.65148e-05 -3.92927e-06 0.103182)
(-1.71605e-05 9.83739e-06 0.108269)
(-4.4044e-05 -4.40427e-05 0.104731)
(2.05057e-05 2.05076e-05 0.113156)
(-1.49006e-05 8.49793e-06 0.108214)
(8.47766e-06 -1.48857e-05 0.108214)
(-4.22688e-05 -4.22696e-05 0.104677)
(1.87058e-05 1.87066e-05 0.113166)
(-1.27355e-05 7.23772e-06 0.108161)
(7.22106e-06 -1.27198e-05 0.108161)
(-4.05943e-05 -4.06006e-05 0.104626)
(1.68925e-05 1.68926e-05 0.113169)
(-1.06657e-05 6.06724e-06 0.10811)
(6.04891e-06 -1.06532e-05 0.10811)
(-3.90745e-05 -3.90779e-05 0.104579)
(1.50845e-05 1.50815e-05 0.113166)
(-8.69363e-06 4.95698e-06 0.108062)
(4.94321e-06 -8.68119e-06 0.108061)
(-3.76458e-05 -3.76575e-05 0.104536)
(1.32858e-05 1.3277e-05 0.113157)
(-6.81596e-06 3.9156e-06 0.108015)
(3.91596e-06 -6.80863e-06 0.108014)
(-3.63252e-05 -3.63496e-05 0.104495)
(1.15097e-05 1.14944e-05 0.113144)
(-5.04079e-06 2.94627e-06 0.10797)
(2.9512e-06 -5.03272e-06 0.107969)
(-3.50912e-05 -3.51245e-05 0.104458)
(9.75909e-06 9.73672e-06 0.113126)
(-3.35865e-06 2.01645e-06 0.107928)
(2.03417e-06 -3.34839e-06 0.107927)
(-3.39417e-05 -3.39812e-05 0.104424)
(8.01784e-06 7.99741e-06 0.113105)
(-1.76405e-06 1.1542e-06 0.107888)
(1.17193e-06 -1.75655e-06 0.107887)
(-3.28885e-05 -3.29273e-05 0.104392)
(6.28217e-06 6.26165e-06 0.113081)
(-2.50682e-07 3.40531e-07 0.10785)
(3.49764e-07 -2.40906e-07 0.107849)
(-3.1926e-05 -3.19591e-05 0.104364)
(4.58739e-06 4.56847e-06 0.113054)
(1.2051e-06 -4.05751e-07 0.107814)
(-3.87046e-07 1.21228e-06 0.107813)
(-3.10111e-05 -3.10465e-05 0.104338)
(2.95925e-06 2.94099e-06 0.113024)
(2.63234e-06 -1.04039e-06 0.10778)
(-1.02677e-06 2.63991e-06 0.10778)
(-3.01859e-05 -3.0211e-05 0.104314)
(1.53941e-06 1.52849e-06 0.112993)
(3.75884e-06 -1.57155e-06 0.107749)
(-1.56129e-06 3.76944e-06 0.107748)
(-2.93806e-05 -2.93986e-05 0.104293)
(1.56934e-07 1.57542e-07 0.11296)
(4.77839e-06 -2.06411e-06 0.10772)
(-2.06473e-06 4.7894e-06 0.107719)
(-2.86629e-05 -2.86713e-05 0.104275)
(-1.16424e-06 -1.15102e-06 0.112925)
(5.73339e-06 -2.50524e-06 0.107692)
(-2.51053e-06 5.73882e-06 0.107691)
(-2.79987e-05 -2.79987e-05 0.104259)
(-2.2757e-06 -2.2542e-06 0.11289)
(6.52879e-06 -2.99189e-06 0.107667)
(-2.99851e-06 6.53387e-06 0.107666)
(-2.74259e-05 -2.74178e-05 0.104245)
(-3.32452e-06 -3.29731e-06 0.112854)
(7.25746e-06 -3.44124e-06 0.107643)
(-3.44685e-06 7.26397e-06 0.107642)
(-2.68693e-05 -2.686e-05 0.104233)
(-4.29946e-06 -4.27278e-06 0.112817)
(7.93393e-06 -3.85562e-06 0.107621)
(-3.85952e-06 7.94355e-06 0.10762)
(-2.63844e-05 -2.63714e-05 0.104222)
(-5.20419e-06 -5.17789e-06 0.112779)
(8.54811e-06 -4.23211e-06 0.107601)
(-4.23645e-06 8.56031e-06 0.1076)
(-2.59316e-05 -2.59191e-05 0.104214)
(-6.03252e-06 -6.01202e-06 0.112741)
(9.09788e-06 -4.5786e-06 0.107582)
(-4.57978e-06 9.11203e-06 0.107581)
(-2.55261e-05 -2.55134e-05 0.104208)
(-6.8011e-06 -6.78193e-06 0.112703)
(9.58875e-06 -4.89476e-06 0.107565)
(-4.89744e-06 9.6021e-06 0.107564)
(-2.51584e-05 -2.51492e-05 0.104203)
(-7.49744e-06 -7.48231e-06 0.112665)
(1.00211e-05 -5.1807e-06 0.10755)
(-5.18161e-06 1.00387e-05 0.107549)
(-2.48258e-05 -2.4818e-05 0.104199)
(-8.13088e-06 -8.12007e-06 0.112628)
(1.0404e-05 -5.44206e-06 0.107535)
(-5.43586e-06 1.04273e-05 0.107535)
(-2.45332e-05 -2.45233e-05 0.104197)
(-8.69863e-06 -8.69504e-06 0.11259)
(1.07318e-05 -5.67859e-06 0.107522)
(-5.67365e-06 1.07477e-05 0.107521)
(-2.42642e-05 -2.42692e-05 0.104196)
(-9.2069e-06 -9.21006e-06 0.112552)
(1.10212e-05 -5.89233e-06 0.10751)
(-5.88609e-06 1.10264e-05 0.10751)
(-2.40282e-05 -2.40449e-05 0.104196)
(-9.65871e-06 -9.66501e-06 0.112515)
(1.12562e-05 -6.08023e-06 0.1075)
(-6.07379e-06 1.12583e-05 0.107499)
(-2.38236e-05 -2.3847e-05 0.104197)
(-1.00526e-05 -1.00585e-05 0.112478)
(1.1448e-05 -6.23827e-06 0.10749)
(-6.23621e-06 1.14442e-05 0.107489)
(-2.36606e-05 -2.3683e-05 0.1042)
(-1.03933e-05 -1.03937e-05 0.112441)
(1.15923e-05 -6.36724e-06 0.107481)
(-6.37197e-06 1.15852e-05 0.10748)
(-2.35236e-05 -2.35411e-05 0.104203)
(-1.06736e-05 -1.06612e-05 0.112405)
(1.16922e-05 -6.4616e-06 0.107472)
(-6.48081e-06 1.16798e-05 0.107472)
(-2.3428e-05 -2.34308e-05 0.104207)
(-1.08973e-05 -1.08637e-05 0.112369)
(1.17409e-05 -6.51959e-06 0.107465)
(-6.55792e-06 1.17317e-05 0.107464)
(-2.33881e-05 -2.33647e-05 0.104211)
(-1.10536e-05 -1.09959e-05 0.112333)
(1.17292e-05 -6.53329e-06 0.107458)
(-6.58911e-06 1.1727e-05 0.107458)
(-2.33939e-05 -2.33366e-05 0.104217)
(-1.11405e-05 -1.10564e-05 0.112299)
(1.16555e-05 -6.50171e-06 0.107452)
(-6.57229e-06 1.16658e-05 0.107452)
(-2.34551e-05 -2.33585e-05 0.104223)
(-1.11445e-05 -1.10431e-05 0.112265)
(1.15227e-05 -6.42629e-06 0.107447)
(-6.49695e-06 1.15456e-05 0.107447)
(-2.35705e-05 -2.34371e-05 0.104229)
(-1.1067e-05 -1.09646e-05 0.112232)
(1.13263e-05 -6.31162e-06 0.107443)
(-6.37289e-06 1.13649e-05 0.107442)
(-2.3721e-05 -2.35742e-05 0.104236)
(-1.09111e-05 -1.08232e-05 0.1122)
(1.10616e-05 -6.16114e-06 0.107439)
(-6.19953e-06 1.11156e-05 0.107439)
(-2.39029e-05 -2.37784e-05 0.104243)
(-1.06856e-05 -1.06313e-05 0.112169)
(1.07371e-05 -5.98314e-06 0.107436)
(-5.9887e-06 1.07965e-05 0.107436)
(-2.41226e-05 -2.40495e-05 0.104251)
(-1.03988e-05 -1.03933e-05 0.11214)
(1.03709e-05 -5.78276e-06 0.107434)
(-5.75227e-06 1.04217e-05 0.107434)
(-2.43588e-05 -2.43706e-05 0.10426)
(-1.0067e-05 -1.01227e-05 0.112112)
(9.96921e-06 -5.57103e-06 0.107432)
(-5.50422e-06 1.00043e-05 0.107433)
(-2.46203e-05 -2.47274e-05 0.104268)
(-9.7062e-06 -9.8218e-06 0.112086)
(9.54941e-06 -5.35886e-06 0.107432)
(-5.259e-06 9.56277e-06 0.107432)
(-2.48986e-05 -2.50781e-05 0.104277)
(-9.34623e-06 -9.51077e-06 0.112061)
(9.1295e-06 -5.14561e-06 0.107432)
(-5.03316e-06 9.12712e-06 0.107432)
(-2.51959e-05 -2.54092e-05 0.104286)
(-9.0109e-06 -9.20078e-06 0.112039)
(8.73597e-06 -4.95175e-06 0.107433)
(-4.83873e-06 8.71483e-06 0.107433)
(-2.54982e-05 -2.5711e-05 0.104295)
(-8.72773e-06 -8.91809e-06 0.112018)
(8.3833e-06 -4.76315e-06 0.107435)
(-4.663e-06 8.34464e-06 0.107434)
(-2.57808e-05 -2.59618e-05 0.104303)
(-8.53826e-06 -8.71206e-06 0.111999)
(8.08247e-06 -4.57148e-06 0.107438)
(-4.49242e-06 8.03632e-06 0.107436)
(-2.59894e-05 -2.61151e-05 0.104312)
(-8.55863e-06 -8.70014e-06 0.111984)
(7.83646e-06 -4.32882e-06 0.107441)
(-4.27102e-06 7.79062e-06 0.107439)
(-2.59604e-05 -2.6025e-05 0.104321)
(-9.06823e-06 -9.16731e-06 0.111971)
(7.56749e-06 -3.85215e-06 0.107445)
(-3.81382e-06 7.52213e-06 0.107444)
(-2.50779e-05 -2.50938e-05 0.104331)
(-1.0738e-05 -1.07906e-05 0.111962)
(6.91057e-06 -2.54907e-06 0.107451)
(-2.54345e-06 6.8805e-06 0.107449)
(-2.10818e-05 -2.10675e-05 0.104349)
(-1.98112e-05 -1.97734e-05 0.111956)
(8.6039e-06 -8.91911e-07 0.107462)
(-9.61374e-07 8.63163e-06 0.10746)
(-6.18125e-06 -6.10453e-06 0.104402)
(-2.26316e-05 -2.24782e-05 0.112066)
(0.00011987 -5.86062e-05 0.107724)
(-5.87105e-05 0.000119826 0.107722)
(3.94458e-05 3.95098e-05 0.10476)
(-3.89633e-05 -3.89506e-05 0.104848)
(-9.9178e-06 1.72087e-05 0.108266)
(8.86942e-06 1.54636e-05 0.108225)
(-8.89257e-06 1.55002e-05 0.108225)
(-4.40668e-05 4.40082e-05 0.104731)
(3.89707e-05 -3.89609e-05 0.104849)
(1.54343e-05 8.81685e-06 0.108227)
(1.54694e-05 -8.86688e-06 0.108224)
(-1.71633e-05 -9.87089e-06 0.108266)
(-1.54499e-05 8.82652e-06 0.108228)
(-1.54513e-05 -8.84502e-06 0.108225)
(-3.89489e-05 3.89743e-05 0.104848)
(-9.82721e-06 -1.71379e-05 0.108267)
(8.80203e-06 -1.54337e-05 0.108227)
(-8.81463e-06 -1.54259e-05 0.108226)
(3.89782e-05 3.89727e-05 0.104848)
(4.2277e-05 4.22679e-05 0.104677)
(-3.94675e-05 -3.94563e-05 0.104794)
(8.53594e-06 1.49123e-05 0.108212)
(-8.55799e-06 1.49484e-05 0.108211)
(7.59052e-06 1.32858e-05 0.108172)
(-7.61258e-06 1.33213e-05 0.108171)
(-4.22834e-05 4.22335e-05 0.104677)
(3.94606e-05 -3.94466e-05 0.104795)
(1.48874e-05 8.49177e-06 0.108213)
(1.49196e-05 -8.54155e-06 0.108211)
(1.3258e-05 7.55194e-06 0.108173)
(1.32938e-05 -7.59644e-06 0.108171)
(-1.48987e-05 -8.51918e-06 0.108211)
(-1.32672e-05 7.5471e-06 0.108174)
(-1.32665e-05 -7.56672e-06 0.108171)
(4.22416e-05 -4.23109e-05 0.104677)
(-3.94396e-05 3.94663e-05 0.104794)
(-8.48468e-06 -1.48707e-05 0.108213)
(7.52861e-06 -1.32514e-05 0.108174)
(-7.5374e-06 -1.32422e-05 0.108173)
(3.94848e-05 3.94737e-05 0.104794)
(4.06262e-05 4.06177e-05 0.104627)
(-3.98811e-05 -3.98732e-05 0.104744)
(7.28016e-06 1.27531e-05 0.108159)
(-7.30103e-06 1.27899e-05 0.108158)
(6.39685e-06 1.11963e-05 0.108121)
(-6.41256e-06 1.12277e-05 0.10812)
(-4.06321e-05 4.0589e-05 0.104627)
(3.99009e-05 -3.98852e-05 0.104744)
(1.27278e-05 7.24017e-06 0.10816)
(1.27603e-05 -7.2846e-06 0.108158)
(1.11679e-05 6.35447e-06 0.108122)
(1.12026e-05 -6.39328e-06 0.108119)
(-1.2736e-05 -7.25931e-06 0.108158)
(-1.11725e-05 6.35513e-06 0.108123)
(-1.11791e-05 -6.3705e-06 0.10812)
(4.05839e-05 -4.06498e-05 0.104626)
(-3.98848e-05 3.99213e-05 0.104743)
(-7.22578e-06 -1.27118e-05 0.10816)
(6.33669e-06 -1.11617e-05 0.108122)
(-6.33379e-06 -1.11562e-05 0.108122)
(3.99025e-05 3.98948e-05 0.104743)
(3.9101e-05 3.90891e-05 0.10458)
(-4.02717e-05 -4.02758e-05 0.104697)
(6.10433e-06 1.06889e-05 0.108108)
(-6.12337e-06 1.07202e-05 0.108107)
(5.27368e-06 9.19863e-06 0.108071)
(-5.28421e-06 9.22948e-06 0.108071)
(-3.90765e-05 3.90346e-05 0.10458)
(4.02714e-05 -4.02542e-05 0.104697)
(1.06591e-05 6.05656e-06 0.10811)
(1.06939e-05 -6.10473e-06 0.108107)
(9.17843e-06 5.23187e-06 0.108073)
(9.20647e-06 -5.26481e-06 0.10807)
(-1.06701e-05 -6.08256e-06 0.108107)
(-9.17872e-06 5.23239e-06 0.108074)
(-9.18434e-06 -5.25707e-06 0.108071)
(3.90356e-05 -3.90886e-05 0.104579)
(-4.02577e-05 4.02937e-05 0.104696)
(-6.04867e-06 -1.0651e-05 0.108109)
(5.21282e-06 -9.1635e-06 0.108073)
(-5.21679e-06 -9.16289e-06 0.108072)
(4.02918e-05 4.0274e-05 0.104696)
(3.76564e-05 3.76326e-05 0.104536)
(-4.06079e-05 -4.06224e-05 0.104653)
(5.00657e-06 8.71701e-06 0.108059)
(-5.01628e-06 8.74636e-06 0.108058)
(4.23559e-06 7.29982e-06 0.108024)
(-4.22265e-06 7.32515e-06 0.108023)
(-3.76552e-05 3.76153e-05 0.104536)
(4.0609e-05 -4.05935e-05 0.104653)
(8.69817e-06 4.95785e-06 0.108061)
(8.72389e-06 -4.99684e-06 0.108058)
(7.28561e-06 4.18375e-06 0.108025)
(7.31233e-06 -4.21697e-06 0.108023)
(-8.7015e-06 -4.98464e-06 0.108059)
(-7.27653e-06 4.17457e-06 0.108026)
(-7.28308e-06 -4.21571e-06 0.108023)
(3.76305e-05 -3.76829e-05 0.104536)
(-4.05914e-05 4.06281e-05 0.104653)
(-4.94481e-06 -8.68e-06 0.10806)
(4.17134e-06 -7.26657e-06 0.108025)
(-4.16243e-06 -7.26961e-06 0.108025)
(4.06358e-05 4.06041e-05 0.104652)
(3.63406e-05 3.63082e-05 0.104495)
(-4.08836e-05 -4.09072e-05 0.104612)
(3.9808e-06 6.8391e-06 0.108012)
(-3.97514e-06 6.86627e-06 0.108012)
(3.24872e-06 5.49424e-06 0.107979)
(-3.24439e-06 5.52125e-06 0.107978)
(-3.63376e-05 3.62962e-05 0.104496)
(4.08965e-05 -4.08882e-05 0.104613)
(6.82804e-06 3.9264e-06 0.108014)
(6.85195e-06 -3.95871e-06 0.108011)
(5.4915e-06 3.18842e-06 0.10798)
(5.51192e-06 -3.23012e-06 0.107978)
(-6.82218e-06 -3.95958e-06 0.108012)
(-5.4746e-06 3.18707e-06 0.107981)
(-5.48193e-06 -3.23321e-06 0.107978)
(3.63e-05 -3.63504e-05 0.104495)
(-4.08918e-05 4.09279e-05 0.104612)
(-3.91002e-06 -6.81163e-06 0.108013)
(3.19376e-06 -5.46521e-06 0.10798)
(-3.17388e-06 -5.47266e-06 0.10798)
(4.09257e-05 4.08853e-05 0.104612)
(3.51395e-05 3.50994e-05 0.104458)
(-4.11287e-05 -4.11596e-05 0.104575)
(3.01189e-06 5.06246e-06 0.107968)
(-3.00406e-06 5.08548e-06 0.107967)
(2.32217e-06 3.78581e-06 0.107936)
(-2.28533e-06 3.79653e-06 0.107935)
(-3.50962e-05 3.50476e-05 0.104458)
(4.11625e-05 -4.11729e-05 0.104576)
(5.05832e-06 2.94771e-06 0.107969)
(5.07755e-06 -2.98976e-06 0.107967)
(3.79028e-06 2.25571e-06 0.107937)
(3.80869e-06 -2.29715e-06 0.107935)
(-5.04582e-06 -2.99582e-06 0.107967)
(-3.76868e-06 2.23883e-06 0.107938)
(-3.77451e-06 -2.3056e-06 0.107935)
(3.50692e-05 -3.51181e-05 0.104458)
(-4.11407e-05 4.11809e-05 0.104575)
(-2.93169e-06 -5.03694e-06 0.107969)
(2.26665e-06 -3.76029e-06 0.107937)
(-2.23982e-06 -3.77314e-06 0.107937)
(4.1182e-05 4.11342e-05 0.104575)
(3.40102e-05 3.39648e-05 0.104424)
(-4.13532e-05 -4.13819e-05 0.104541)
(2.09597e-06 3.3752e-06 0.107925)
(-2.06817e-06 3.39492e-06 0.107925)
(1.44063e-06 2.17246e-06 0.107895)
(-1.42045e-06 2.18971e-06 0.107895)
(-3.39731e-05 3.39112e-05 0.104424)
(4.13805e-05 -4.1379e-05 0.104541)
(3.38078e-06 2.02899e-06 0.107927)
(3.3961e-06 -2.07045e-06 0.107924)
(2.17661e-06 1.37923e-06 0.107897)
(2.19518e-06 -1.42315e-06 0.107894)
(-3.36301e-06 -2.08463e-06 0.107925)
(-2.15343e-06 1.36955e-06 0.107898)
(-2.15976e-06 -1.42968e-06 0.107895)
(3.39624e-05 -3.40063e-05 0.104424)
(-4.13653e-05 4.13993e-05 0.104541)
(-2.01407e-06 -3.36117e-06 0.107926)
(1.39234e-06 -2.14656e-06 0.107897)
(-1.35567e-06 -2.15823e-06 0.107896)
(4.14079e-05 4.13595e-05 0.10454)
(3.29498e-05 3.2907e-05 0.104392)
(-4.15496e-05 -4.1576e-05 0.104509)
(1.22893e-06 1.78323e-06 0.107885)
(-1.21049e-06 1.79986e-06 0.107885)
(6.05163e-07 6.35863e-07 0.107857)
(-5.99209e-07 6.51681e-07 0.107856)
(-3.29249e-05 3.28743e-05 0.104393)
(4.15652e-05 -4.15713e-05 0.10451)
(1.78661e-06 1.16454e-06 0.107887)
(1.80389e-06 -1.2098e-06 0.107884)
(6.39762e-07 5.48135e-07 0.107858)
(6.53631e-07 -5.91104e-07 0.107855)
(-1.76735e-06 -1.2194e-06 0.107885)
(-6.21212e-07 5.41221e-07 0.107859)
(-6.20587e-07 -5.9548e-07 0.107856)
(3.29012e-05 -3.29506e-05 0.104392)
(-4.15295e-05 4.15597e-05 0.104509)
(-1.14697e-06 -1.76827e-06 0.107886)
(5.50347e-07 -6.10412e-07 0.107858)
(-5.30828e-07 -6.23591e-07 0.107858)
(4.15821e-05 4.15386e-05 0.104509)
(3.19584e-05 3.19201e-05 0.104364)
(-4.17132e-05 -4.17349e-05 0.104481)
(4.0316e-07 2.65613e-07 0.107848)
(-4.05072e-07 2.80273e-07 0.107847)
(-1.70361e-07 -8.3015e-07 0.107821)
(1.63659e-07 -8.21638e-07 0.10782)
(-3.19372e-05 3.18793e-05 0.104364)
(4.17157e-05 -4.17369e-05 0.104481)
(2.67834e-07 3.43118e-07 0.107849)
(2.80273e-07 -3.86014e-07 0.107846)
(-8.31707e-07 -2.25914e-07 0.107822)
(-8.17105e-07 1.79837e-07 0.107819)
(-2.4805e-07 -3.92447e-07 0.107847)
(8.45012e-07 -2.31905e-07 0.107823)
(8.44381e-07 1.74135e-07 0.10782)
(3.19142e-05 -3.19659e-05 0.104364)
(-4.16954e-05 4.17135e-05 0.104481)
(-3.29472e-07 -2.49828e-07 0.107848)
(-2.19399e-07 8.53994e-07 0.107822)
(2.40288e-07 8.45788e-07 0.107821)
(4.17475e-05 4.17016e-05 0.10448)
(3.10517e-05 3.1022e-05 0.104338)
(-4.18357e-05 -4.18428e-05 0.104455)
(-3.48951e-07 -1.1917e-06 0.107812)
(3.36617e-07 -1.18433e-06 0.107811)
(-8.42535e-07 -2.27655e-06 0.107787)
(8.25133e-07 -2.27188e-06 0.107786)
(-3.10386e-05 3.09683e-05 0.104338)
(4.18441e-05 -4.18605e-05 0.104456)
(-1.19367e-06 -3.99262e-07 0.107813)
(-1.17938e-06 3.48524e-07 0.10781)
(-2.28531e-06 -8.84496e-07 0.107788)
(-2.26473e-06 8.35515e-07 0.107785)
(1.20679e-06 3.44184e-07 0.107811)
(2.28918e-06 -8.9383e-07 0.107789)
(2.28867e-06 8.37243e-07 0.107786)
(3.10038e-05 -3.1066e-05 0.104338)
(-4.1833e-05 4.18441e-05 0.104455)
(4.07854e-07 1.20965e-06 0.107813)
(-8.7829e-07 2.29476e-06 0.107788)
(8.94074e-07 2.29484e-06 0.107787)
(4.18766e-05 4.18444e-05 0.104455)
(3.02054e-05 3.01859e-05 0.104315)
(-4.19758e-05 -4.19728e-05 0.104432)
(-9.92405e-07 -2.62131e-06 0.107778)
(9.72631e-07 -2.61737e-06 0.107778)
(-1.40928e-06 -3.48724e-06 0.107755)
(1.38056e-06 -3.48311e-06 0.107754)
(-3.01996e-05 3.01347e-05 0.104315)
(4.19759e-05 -4.19884e-05 0.104432)
(-2.63349e-06 -1.03575e-06 0.10778)
(-2.61182e-06 9.86889e-07 0.107777)
(-3.50398e-06 -1.43957e-06 0.107756)
(-3.47911e-06 1.39207e-06 0.107753)
(2.63427e-06 9.84599e-07 0.107778)
(3.49827e-06 -1.44096e-06 0.107757)
(3.49473e-06 1.39404e-06 0.107754)
(3.0173e-05 -3.02362e-05 0.104314)
(-4.19681e-05 4.19883e-05 0.104431)
(1.04161e-06 2.64268e-06 0.107779)
(-1.43069e-06 3.50877e-06 0.107756)
(1.44529e-06 3.50715e-06 0.107755)
(4.19945e-05 4.19641e-05 0.104431)
(2.93919e-05 2.9386e-05 0.104294)
(-4.21081e-05 -4.20884e-05 0.104411)
(-1.5402e-06 -3.74516e-06 0.107747)
(1.51242e-06 -3.74435e-06 0.107746)
(-1.92668e-06 -4.50997e-06 0.107725)
(1.90101e-06 -4.51124e-06 0.107724)
(-2.94097e-05 2.93526e-05 0.104294)
(4.20864e-05 -4.20869e-05 0.104412)
(-3.76506e-06 -1.56801e-06 0.107748)
(-3.74116e-06 1.52592e-06 0.107745)
(-4.53714e-06 -1.94008e-06 0.107726)
(-4.50695e-06 1.90796e-06 0.107723)
(3.75709e-06 1.5287e-06 0.107746)
(4.52993e-06 -1.9483e-06 0.107727)
(4.52088e-06 1.91618e-06 0.107724)
(2.93612e-05 -2.94176e-05 0.104293)
(-4.2079e-05 4.21013e-05 0.104411)
(1.5815e-06 3.77276e-06 0.107748)
(-1.9416e-06 4.54033e-06 0.107726)
(1.95812e-06 4.54007e-06 0.107725)
(4.21036e-05 4.20836e-05 0.104411)
(2.86395e-05 2.86513e-05 0.104275)
(-4.21797e-05 -4.21491e-05 0.104393)
(-2.04811e-06 -4.7554e-06 0.107718)
(2.01976e-06 -4.75848e-06 0.107717)
(-2.38666e-06 -5.4817e-06 0.107697)
(2.35318e-06 -5.48183e-06 0.107696)
(-2.86703e-05 2.86275e-05 0.104275)
(4.21629e-05 -4.21531e-05 0.104393)
(-4.78682e-06 -2.0592e-06 0.107719)
(-4.75598e-06 2.03096e-06 0.107716)
(-5.51947e-06 -2.38879e-06 0.107698)
(-5.47988e-06 2.36427e-06 0.107695)
(4.77254e-06 2.03687e-06 0.107717)
(5.50891e-06 -2.39192e-06 0.107699)
(5.49599e-06 2.37038e-06 0.107696)
(2.86377e-05 -2.86906e-05 0.104275)
(-4.21412e-05 4.2168e-05 0.104392)
(2.07662e-06 4.79294e-06 0.107718)
(-2.39463e-06 5.51644e-06 0.107698)
(2.40325e-06 5.52012e-06 0.107697)
(4.21753e-05 4.21643e-05 0.104392)
(2.79811e-05 2.80039e-05 0.104259)
(-4.22174e-05 -4.21785e-05 0.104377)
(-2.50269e-06 -5.7024e-06 0.10769)
(2.46989e-06 -5.70492e-06 0.107689)
(-2.87775e-06 -6.30615e-06 0.107671)
(2.84696e-06 -6.30873e-06 0.10767)
(-2.80043e-05 2.79718e-05 0.104259)
(4.22029e-05 -4.21859e-05 0.104377)
(-5.74375e-06 -2.49976e-06 0.107691)
(-5.70475e-06 2.48143e-06 0.107689)
(-6.3535e-06 -2.86956e-06 0.107672)
(-6.31087e-06 2.85745e-06 0.107669)
(5.71616e-06 2.48604e-06 0.107689)
(6.34192e-06 -2.87382e-06 0.107673)
(6.31821e-06 2.86265e-06 0.10767)
(2.79795e-05 -2.80266e-05 0.104259)
(-4.21847e-05 4.22173e-05 0.104376)
(2.51802e-06 5.74156e-06 0.107691)
(-2.87701e-06 6.34874e-06 0.107672)
(2.89023e-06 6.34819e-06 0.107672)
(4.21998e-05 4.21955e-05 0.104376)
(2.73879e-05 2.74179e-05 0.104245)
(-4.22384e-05 -4.21995e-05 0.104363)
(-2.99378e-06 -6.49291e-06 0.107665)
(2.96684e-06 -6.49431e-06 0.107664)
(-3.33796e-06 -7.04444e-06 0.107647)
(3.31295e-06 -7.04407e-06 0.107646)
(-2.74059e-05 2.738e-05 0.104245)
(4.22108e-05 -4.21882e-05 0.104363)
(-6.54225e-06 -2.98909e-06 0.107666)
(-6.49702e-06 2.97735e-06 0.107663)
(-7.09612e-06 -3.32943e-06 0.107648)
(-7.04731e-06 3.32428e-06 0.107645)
(6.50635e-06 2.98492e-06 0.107664)
(7.08244e-06 -3.33463e-06 0.107649)
(7.05664e-06 3.32862e-06 0.107646)
(2.73829e-05 -2.74244e-05 0.104245)
(-4.21934e-05 4.22293e-05 0.104362)
(3.00897e-06 6.53753e-06 0.107665)
(-3.3398e-06 7.09018e-06 0.107648)
(3.34849e-06 7.09129e-06 0.107647)
(4.22208e-05 4.22188e-05 0.104362)
(2.68611e-05 2.68911e-05 0.104233)
(-4.22416e-05 -4.22089e-05 0.104351)
(-3.44732e-06 -7.21911e-06 0.107641)
(3.41964e-06 -7.22049e-06 0.10764)
(-3.76193e-06 -7.73268e-06 0.107625)
(3.74231e-06 -7.7304e-06 0.107624)
(-2.68752e-05 2.68558e-05 0.104233)
(4.22262e-05 -4.21974e-05 0.104351)
(-7.27093e-06 -3.43899e-06 0.107642)
(-7.22316e-06 3.43361e-06 0.107639)
(-7.78348e-06 -3.7517e-06 0.107626)
(-7.7348e-06 3.74755e-06 0.107623)
(7.23013e-06 3.43771e-06 0.10764)
(7.77194e-06 -3.75652e-06 0.107626)
(7.74755e-06 3.75471e-06 0.107624)
(2.6852e-05 -2.68881e-05 0.104233)
(-4.22005e-05 4.22431e-05 0.10435)
(3.45703e-06 7.26779e-06 0.107642)
(-3.76149e-06 7.7825e-06 0.107625)
(3.77332e-06 7.78551e-06 0.107625)
(4.2227e-05 4.22278e-05 0.10435)
(2.63617e-05 2.63842e-05 0.104223)
(-4.2231e-05 -4.22045e-05 0.10434)
(-3.86022e-06 -7.89431e-06 0.107619)
(3.84022e-06 -7.89214e-06 0.107618)
(-4.14136e-06 -8.36414e-06 0.107604)
(4.12804e-06 -8.35966e-06 0.107603)
(-2.63787e-05 2.63651e-05 0.104223)
(4.22299e-05 -4.22003e-05 0.104341)
(-7.94517e-06 -3.85187e-06 0.107621)
(-7.89813e-06 3.85066e-06 0.107618)
(-8.41178e-06 -4.13944e-06 0.107605)
(-8.36494e-06 4.14453e-06 0.107602)
(7.90957e-06 3.85452e-06 0.107618)
(8.40317e-06 -4.13905e-06 0.107606)
(8.37416e-06 4.13931e-06 0.107603)
(2.63574e-05 -2.63855e-05 0.104222)
(-4.21947e-05 4.22411e-05 0.10434)
(3.8731e-06 7.94782e-06 0.10762)
(-4.14626e-06 8.41685e-06 0.107605)
(4.15805e-06 8.41588e-06 0.107605)
(4.22217e-05 4.22222e-05 0.10434)
(2.59118e-05 2.59278e-05 0.104215)
(-4.22042e-05 -4.21892e-05 0.104332)
(-4.23107e-06 -8.51029e-06 0.107599)
(4.21679e-06 -8.5049e-06 0.107598)
(-4.4924e-06 -8.93212e-06 0.107585)
(4.48625e-06 -8.9247e-06 0.107584)
(-2.59199e-05 2.59048e-05 0.104214)
(4.22042e-05 -4.21765e-05 0.104332)
(-8.55668e-06 -4.23205e-06 0.1076)
(-8.511e-06 4.23492e-06 0.107597)
(-8.97519e-06 -4.49894e-06 0.107586)
(-8.92861e-06 4.49981e-06 0.107583)
(8.51961e-06 4.23096e-06 0.107598)
(8.96983e-06 -4.49722e-06 0.107587)
(8.94028e-06 4.4944e-06 0.107584)
(2.59082e-05 -2.59331e-05 0.104214)
(-4.21714e-05 4.22215e-05 0.104331)
(4.24916e-06 8.56187e-06 0.1076)
(-4.49567e-06 8.98213e-06 0.107586)
(4.51134e-06 8.98179e-06 0.107586)
(4.22017e-05 4.22032e-05 0.104332)
(2.55124e-05 2.5518e-05 0.104208)
(-4.21705e-05 -4.21603e-05 0.104325)
(-4.57388e-06 -9.06146e-06 0.10758)
(4.56974e-06 -9.05502e-06 0.10758)
(-4.81111e-06 -9.44041e-06 0.107568)
(4.8071e-06 -9.43084e-06 0.107567)
(-2.55156e-05 2.55007e-05 0.104208)
(4.21707e-05 -4.21481e-05 0.104326)
(-9.10324e-06 -4.58302e-06 0.107582)
(-9.05923e-06 4.58396e-06 0.107579)
(-9.47637e-06 -4.82083e-06 0.107569)
(-9.43497e-06 4.82311e-06 0.107566)
(9.07032e-06 4.57657e-06 0.10758)
(9.47505e-06 -4.82019e-06 0.107569)
(9.44575e-06 4.81327e-06 0.107567)
(2.55033e-05 -2.55253e-05 0.104207)
(-4.21424e-05 4.21896e-05 0.104325)
(4.59464e-06 9.11252e-06 0.107581)
(-4.82106e-06 9.49006e-06 0.107569)
(4.83371e-06 9.48744e-06 0.107568)
(4.2168e-05 4.21657e-05 0.104325)
(2.51479e-05 2.51482e-05 0.104203)
(-4.21237e-05 -4.2122e-05 0.10432)
(-4.88582e-06 -9.55573e-06 0.107563)
(4.88318e-06 -9.5473e-06 0.107562)
(-5.09803e-06 -9.89071e-06 0.107552)
(5.10161e-06 -9.88077e-06 0.107551)
(-2.51508e-05 2.51324e-05 0.104203)
(4.21267e-05 -4.21072e-05 0.104321)
(-9.58996e-06 -4.89682e-06 0.107565)
(-9.55057e-06 4.89939e-06 0.107562)
(-9.92187e-06 -5.11501e-06 0.107553)
(-9.88279e-06 5.11694e-06 0.10755)
(9.56439e-06 4.88699e-06 0.107563)
(9.92185e-06 -5.11395e-06 0.107553)
(9.89651e-06 5.10694e-06 0.107551)
(2.51351e-05 -2.51589e-05 0.104202)
(-4.21012e-05 4.21497e-05 0.10432)
(4.90565e-06 9.60592e-06 0.107564)
(-5.11464e-06 9.94031e-06 0.107553)
(5.12762e-06 9.9388e-06 0.107552)
(4.21309e-05 4.21268e-05 0.10432)
(2.48248e-05 2.48174e-05 0.104199)
(-4.20706e-05 -4.20739e-05 0.104317)
(-5.16483e-06 -9.99092e-06 0.107548)
(5.16935e-06 -9.98228e-06 0.107547)
(-5.35716e-06 -1.02876e-05 0.107537)
(5.36315e-06 -1.02766e-05 0.107536)
(-2.482e-05 2.47979e-05 0.104199)
(4.2079e-05 -4.20658e-05 0.104317)
(-1.00211e-05 -5.18318e-06 0.107549)
(-9.98386e-06 5.18427e-06 0.107546)
(-1.03133e-05 -5.37703e-06 0.107538)
(-1.02757e-05 5.37971e-06 0.107535)
(9.99765e-06 5.17469e-06 0.107547)
(1.0318e-05 -5.38e-06 0.107539)
(1.02905e-05 5.37193e-06 0.107536)
(2.48054e-05 -2.4827e-05 0.104199)
(-4.20489e-05 4.21e-05 0.104316)
(5.19396e-06 1.00403e-05 0.107548)
(-5.37618e-06 1.03454e-05 0.107538)
(5.3877e-06 1.03389e-05 0.107538)
(4.20791e-05 4.20791e-05 0.104316)
(2.45362e-05 2.45231e-05 0.104197)
(-4.2012e-05 -4.20244e-05 0.104315)
(-5.41672e-06 -1.03755e-05 0.107533)
(5.42001e-06 -1.03664e-05 0.107533)
(-5.59191e-06 -1.06342e-05 0.107524)