/*--------------------------------*- C++ -*----------------------------------*\
| =========                 |                                                 |
| \\      /  F ield         | OpenFOAM: The Open Source CFD Toolbox           |
|  \\    /   O peration     | Version:  v2012                                 |
|   \\  /    A nd           | Website:  www.openfoam.com                      |
|    \\/     M anipulation  |                                                 |
\*---------------------------------------------------------------------------*/
FoamFile
{
    version     2.0;
    format      ascii;
    class       volScalarField;
    location    "250";
    object      k;
}
// * * * * * * * * * * * * * * * * * * * * * * * * * * * * * * * * * * * * * //

dimensions      [0 2 -2 0 0 0 0];


internalField   nonuniform List<scalar> 
171728
(
2.0987e-05
3.66664e-05
4.19125e-05
3.66502e-05
3.665e-05
3.66563e-05
4.19229e-05
7.1311e-05
7.13196e-05
6.47787e-05
2.09857e-05
6.94647e-05
6.02489e-05
6.94656e-05
6.94701e-05
6.69523e-05
6.69639e-05
6.02383e-05
6.02454e-05
2.89766e-05
5.331e-05
7.13125e-05
6.47759e-05
2.89782e-05
6.02429e-05
5.33073e-05
6.69583e-05
6.69583e-05
6.9465e-05
7.13144e-05
7.13239e-05
7.74423e-05
7.01244e-05
7.01413e-05
7.13299e-05
7.74646e-05
7.74845e-05
7.01296e-05
7.0074e-05
6.48217e-05
6.82792e-05
6.9765e-05
6.83189e-05
6.97715e-05
7.00671e-05
6.94745e-05
6.94752e-05
6.94798e-05
7.01885e-05
5.9415e-05
6.69742e-05
7.11038e-05
7.11194e-05
5.94724e-05
7.01642e-05
7.02425e-05
5.94276e-05
6.69865e-05
7.11151e-05
7.11313e-05
5.94845e-05
7.02163e-05
9.24332e-05
7.19808e-05
7.19752e-05
7.19926e-05
7.19872e-05
9.24203e-05
7.01356e-05
7.13227e-05
7.74406e-05
7.74617e-05
7.01234e-05
7.00706e-05
6.48189e-05
6.9764e-05
6.82718e-05
6.97704e-05
6.83099e-05
7.00636e-05
7.02425e-05
5.94299e-05
6.69732e-05
7.1113e-05
7.11253e-05
5.94819e-05
7.02191e-05
7.01955e-05
5.94281e-05
6.69796e-05
7.11036e-05
5.94843e-05
7.11198e-05
7.01731e-05
9.24355e-05
7.19727e-05
7.19788e-05
7.19846e-05
7.19907e-05
9.24238e-05
6.94747e-05
7.13246e-05
1.49915e-05
5.97209e-05
5.06284e-05
5.06369e-05
4.19158e-05
5.06722e-05
5.06709e-05
5.96865e-05
5.97278e-05
5.06452e-05
5.06425e-05
4.19252e-05
5.06838e-05
5.06733e-05
5.96936e-05
1.49885e-05
4.82104e-05
5.26351e-05
6.02984e-05
5.85806e-05
5.26734e-05
5.86408e-05
4.81716e-05
4.81939e-05
5.26166e-05
6.02875e-05
5.85682e-05
5.86284e-05
5.26538e-05
4.81541e-05
4.82005e-05
5.26282e-05
6.02948e-05
5.85768e-05
5.86374e-05
5.26666e-05
4.81623e-05
4.57951e-05
5.33875e-05
5.56421e-05
4.38219e-05
5.57157e-05
4.38395e-05
4.58028e-05
4.81827e-05
5.26287e-05
6.02872e-05
5.85695e-05
5.86287e-05
5.26599e-05
4.8165e-05
4.58063e-05
5.33867e-05
4.381e-05
5.56377e-05
4.38547e-05
5.57104e-05
4.5803e-05
3.58933e-05
3.58914e-05
3.58914e-05
3.59958e-05
3.39293e-05
3.38874e-05
3.38874e-05
3.39599e-05
3.21569e-05
3.2004e-05
3.20039e-05
3.19448e-05
3.05328e-05
3.02228e-05
3.02226e-05
2.99776e-05
2.90301e-05
2.85456e-05
2.85452e-05
2.81095e-05
2.76317e-05
2.69774e-05
2.69769e-05
2.63754e-05
2.63262e-05
2.55201e-05
2.55198e-05
2.47924e-05
2.51059e-05
2.41732e-05
2.41729e-05
2.33631e-05
2.39649e-05
2.2938e-05
2.29376e-05
2.20902e-05
2.28991e-05
2.18135e-05
2.1813e-05
2.0971e-05
2.19048e-05
2.07971e-05
2.07965e-05
1.99967e-05
2.09787e-05
1.98859e-05
1.98853e-05
1.91633e-05
2.01157e-05
1.90778e-05
1.90773e-05
1.84692e-05
1.93148e-05
1.83696e-05
1.83691e-05
1.79091e-05
1.85749e-05
1.7758e-05
1.77577e-05
1.7478e-05
1.78933e-05
1.72415e-05
1.72413e-05
1.7166e-05
1.72679e-05
1.68193e-05
1.68191e-05
1.69821e-05
1.66965e-05
1.64905e-05
1.64904e-05
1.69388e-05
1.61778e-05
1.62549e-05
1.62549e-05
1.70321e-05
1.57093e-05
1.61126e-05
1.61127e-05
1.72556e-05
1.52895e-05
1.60633e-05
1.60634e-05
1.76102e-05
1.49176e-05
1.61053e-05
1.61057e-05
1.80885e-05
1.45925e-05
1.62385e-05
1.62391e-05
1.86721e-05
1.43137e-05
1.6461e-05
1.6462e-05
1.93657e-05
1.40807e-05
1.67703e-05
1.67718e-05
2.01689e-05
1.38931e-05
1.71636e-05
1.71656e-05
2.1046e-05
1.37507e-05
1.76376e-05
1.76398e-05
2.19681e-05
1.36532e-05
1.81882e-05
1.81904e-05
2.29626e-05
1.36007e-05
1.88105e-05
1.88129e-05
2.39962e-05
1.35942e-05
1.94999e-05
1.95025e-05
2.50567e-05
1.36335e-05
2.02508e-05
2.02536e-05
2.61271e-05
1.37174e-05
2.10575e-05
2.10603e-05
2.72082e-05
1.38473e-05
2.19136e-05
2.19164e-05
2.82794e-05
1.40233e-05
2.28128e-05
2.28158e-05
2.93599e-05
1.42458e-05
2.37488e-05
2.37515e-05
3.0394e-05
1.45147e-05
2.47155e-05
2.47177e-05
3.14061e-05
1.48298e-05
2.57063e-05
2.57085e-05
3.24093e-05
1.51908e-05
2.67146e-05
2.67169e-05
3.33896e-05
1.55969e-05
2.77343e-05
2.77363e-05
3.43755e-05
1.6047e-05
2.87591e-05
2.87608e-05
3.53005e-05
1.65394e-05
2.97834e-05
2.97853e-05
3.62089e-05
1.70727e-05
3.08042e-05
3.08066e-05
3.70963e-05
1.76449e-05
3.18177e-05
3.182e-05
3.7966e-05
1.82535e-05
3.282e-05
3.28223e-05
3.88042e-05
1.88957e-05
3.38086e-05
3.38111e-05
3.9624e-05
1.95683e-05
3.47807e-05
3.47837e-05
4.04115e-05
2.02672e-05
3.57325e-05
3.57368e-05
4.11757e-05
3.63062e-05
3.62907e-05
3.62907e-05
3.63061e-05
3.62907e-05
3.62907e-05
3.6423e-05
3.6423e-05
3.6423e-05
3.6423e-05
3.62907e-05
3.62907e-05
3.63061e-05
3.62907e-05
3.62907e-05
3.63062e-05
3.59958e-05
3.42664e-05
3.58914e-05
3.58914e-05
3.43754e-05
3.43755e-05
3.59958e-05
3.42668e-05
3.58914e-05
3.58914e-05
3.43754e-05
3.43754e-05
3.58914e-05
3.43755e-05
3.43754e-05
3.59958e-05
3.42666e-05
3.58914e-05
3.43754e-05
3.43755e-05
3.42667e-05
3.39595e-05
3.22568e-05
3.38873e-05
3.38875e-05
3.24651e-05
3.24653e-05
3.396e-05
3.22574e-05
3.38873e-05
3.38873e-05
3.24649e-05
3.2465e-05
3.38872e-05
3.24651e-05
3.24647e-05
3.39597e-05
3.22568e-05
3.38875e-05
3.2465e-05
3.24651e-05
3.22568e-05
3.19449e-05
3.0289e-05
3.2004e-05
3.20042e-05
3.06586e-05
3.06587e-05
3.19456e-05
3.02896e-05
3.20038e-05
3.20039e-05
3.06583e-05
3.06583e-05
3.20035e-05
3.06586e-05
3.06578e-05
3.19449e-05
3.02887e-05
3.2004e-05
3.06585e-05
3.06584e-05
3.02887e-05
2.99779e-05
2.84127e-05
3.02227e-05
3.02228e-05
2.89544e-05
2.89546e-05
2.99783e-05
2.84132e-05
3.02225e-05
3.02224e-05
2.89544e-05
2.89541e-05
3.02219e-05
2.89548e-05
2.89538e-05
2.99774e-05
2.84117e-05
3.02225e-05
2.89545e-05
2.89543e-05
2.84123e-05
2.81099e-05
2.66603e-05
2.85451e-05
2.85453e-05
2.73582e-05
2.73585e-05
2.81104e-05
2.6661e-05
2.85452e-05
2.85448e-05
2.73586e-05
2.73581e-05
2.85446e-05
2.73591e-05
2.73578e-05
2.8109e-05
2.66596e-05
2.8545e-05
2.73585e-05
2.73579e-05
2.6659e-05
2.63765e-05
2.5051e-05
2.69764e-05
2.69767e-05
2.5873e-05
2.58732e-05
2.63773e-05
2.5052e-05
2.69769e-05
2.69764e-05
2.58736e-05
2.58732e-05
2.69761e-05
2.58741e-05
2.58728e-05
2.63769e-05
2.50505e-05
2.6976e-05
2.58737e-05
2.58723e-05
2.5049e-05
2.47928e-05
2.35962e-05
2.55189e-05
2.55191e-05
2.44981e-05
2.44982e-05
2.47939e-05
2.35961e-05
2.55196e-05
2.55192e-05
2.44989e-05
2.44984e-05
2.55188e-05
2.44995e-05
2.44981e-05
2.47945e-05
2.35965e-05
2.55182e-05
2.44992e-05
2.44973e-05
2.35951e-05
2.33635e-05
2.22955e-05
2.41718e-05
2.41719e-05
2.32349e-05
2.32349e-05
2.33657e-05
2.22965e-05
2.41726e-05
2.4172e-05
2.32357e-05
2.32348e-05
2.41719e-05
2.32363e-05
2.32349e-05
2.33642e-05
2.22952e-05
2.41711e-05
2.3236e-05
2.32343e-05
2.22943e-05
2.20897e-05
2.11507e-05
2.29365e-05
2.29366e-05
2.20828e-05
2.20829e-05
2.20911e-05
2.11525e-05
2.29374e-05
2.29364e-05
2.20836e-05
2.20824e-05
2.29366e-05
2.20844e-05
2.20829e-05
2.20902e-05
2.11509e-05
2.29361e-05
2.20839e-05
2.20827e-05
2.11501e-05
2.09707e-05
2.0153e-05
2.18118e-05
2.18121e-05
2.10394e-05
2.10398e-05
2.09715e-05
2.0154e-05
2.18127e-05
2.18114e-05
2.10404e-05
2.10389e-05
2.1812e-05
2.10412e-05
2.10397e-05
2.09701e-05
2.0153e-05
2.18119e-05
2.10406e-05
2.10399e-05
2.01532e-05
1.99964e-05
1.92961e-05
2.07953e-05
2.07957e-05
2.01021e-05
2.01027e-05
1.99982e-05
1.92973e-05
2.07963e-05
2.07948e-05
2.01032e-05
2.01016e-05
2.07956e-05
2.0104e-05
2.01025e-05
1.99963e-05
1.92961e-05
2.07959e-05
2.01034e-05
2.01029e-05
1.92963e-05
1.91631e-05
1.85696e-05
1.9884e-05
1.98846e-05
1.92682e-05
1.92689e-05
1.91645e-05
1.85708e-05
1.98851e-05
1.98835e-05
1.92694e-05
1.92678e-05
1.98844e-05
1.92702e-05
1.92687e-05
1.91633e-05
1.85697e-05
1.98849e-05
1.92696e-05
1.92692e-05
1.85696e-05
1.84692e-05
1.79733e-05
1.90759e-05
1.90766e-05
1.85354e-05
1.85361e-05
1.84704e-05
1.79743e-05
1.9077e-05
1.90755e-05
1.85365e-05
1.85351e-05
1.90764e-05
1.85373e-05
1.85359e-05
1.84694e-05
1.79735e-05
1.90769e-05
1.85368e-05
1.85364e-05
1.79733e-05
1.79091e-05
1.75108e-05
1.83677e-05
1.83684e-05
1.79001e-05
1.79007e-05
1.791e-05
1.75117e-05
1.83688e-05
1.83675e-05
1.79011e-05
1.78999e-05
1.83683e-05
1.79018e-05
1.79007e-05
1.79092e-05
1.7511e-05
1.83687e-05
1.79014e-05
1.7901e-05
1.75108e-05
1.7478e-05
1.71857e-05
1.77563e-05
1.7757e-05
1.736e-05
1.73606e-05
1.74784e-05
1.71856e-05
1.77573e-05
1.77562e-05
1.73609e-05
1.73599e-05
1.77569e-05
1.73615e-05
1.73606e-05
1.74779e-05
1.71863e-05
1.77573e-05
1.73612e-05
1.73609e-05
1.71863e-05
1.71664e-05
1.69892e-05
1.72401e-05
1.72407e-05
1.69144e-05
1.69149e-05
1.71675e-05
1.69877e-05
1.7241e-05
1.72401e-05
1.69152e-05
1.69144e-05
1.72407e-05
1.69157e-05
1.6915e-05
1.71661e-05
1.69892e-05
1.7241e-05
1.69155e-05
1.69152e-05
1.69895e-05
1.69822e-05
1.69303e-05
1.68181e-05
1.68187e-05
1.65621e-05
1.65626e-05
1.69831e-05
1.69304e-05
1.68189e-05
1.68182e-05
1.65629e-05
1.65622e-05
1.68188e-05
1.65632e-05
1.65627e-05
1.6982e-05
1.69302e-05
1.6819e-05
1.65631e-05
1.6563e-05
1.69305e-05
1.69386e-05
1.69975e-05
1.64894e-05
1.649e-05
1.63032e-05
1.63036e-05
1.69387e-05
1.69975e-05
1.64903e-05
1.64897e-05
1.63039e-05
1.63035e-05
1.64902e-05
1.63041e-05
1.63037e-05
1.69385e-05
1.69974e-05
1.64904e-05
1.6304e-05
1.6304e-05
1.69953e-05
1.70309e-05
1.71954e-05
1.62542e-05
1.62547e-05
1.61375e-05
1.6138e-05
1.7031e-05
1.71856e-05
1.62549e-05
1.62545e-05
1.61382e-05
1.61379e-05
1.62547e-05
1.61381e-05
1.61379e-05
1.70309e-05
1.71958e-05
1.6255e-05
1.61381e-05
1.61382e-05
1.71886e-05
1.72518e-05
1.75126e-05
1.61122e-05
1.61127e-05
1.60647e-05
1.60653e-05
1.72546e-05
1.7514e-05
1.61129e-05
1.61126e-05
1.60654e-05
1.60653e-05
1.61126e-05
1.60651e-05
1.6065e-05
1.72502e-05
1.75142e-05
1.61129e-05
1.60652e-05
1.60654e-05
1.75135e-05
1.76092e-05
1.79664e-05
1.60631e-05
1.60636e-05
1.60851e-05
1.60857e-05
1.76091e-05
1.79649e-05
1.60638e-05
1.60637e-05
1.60857e-05
1.60858e-05
1.60634e-05
1.60848e-05
1.60854e-05
1.76092e-05
1.79676e-05
1.60638e-05
1.6085e-05
1.60858e-05
1.79673e-05
1.80878e-05
1.85371e-05
1.61049e-05
1.61056e-05
1.61957e-05
1.61965e-05
1.80868e-05
1.85371e-05
1.61056e-05
1.61058e-05
1.61963e-05
1.61969e-05
1.61054e-05
1.61951e-05
1.61962e-05
1.80883e-05
1.85382e-05
1.61058e-05
1.61955e-05
1.61966e-05
1.85494e-05
1.86821e-05
1.92139e-05
1.62382e-05
1.62392e-05
1.63961e-05
1.6397e-05
1.86788e-05
1.92322e-05
1.62389e-05
1.62396e-05
1.63967e-05
1.63976e-05
1.62388e-05
1.63951e-05
1.63966e-05
1.86827e-05
1.92148e-05
1.62393e-05
1.63958e-05
1.63972e-05
1.92348e-05
1.93816e-05
1.99865e-05
1.64609e-05
1.64619e-05
1.66842e-05
1.66851e-05
1.93644e-05
1.99812e-05
1.64616e-05
1.64626e-05
1.66848e-05
1.66861e-05
1.64615e-05
1.66826e-05
1.66848e-05
1.93821e-05
2.00089e-05
1.64621e-05
1.66839e-05
1.66853e-05
1.99856e-05
2.01755e-05
2.08648e-05
1.67707e-05
1.67716e-05
1.70569e-05
1.70579e-05
2.01713e-05
2.0837e-05
1.67713e-05
1.67726e-05
1.70576e-05
1.70592e-05
1.67714e-05
1.70547e-05
1.70576e-05
2.0157e-05
2.08672e-05
1.67719e-05
1.70565e-05
1.70581e-05
2.08414e-05
2.10273e-05
2.17938e-05
1.71643e-05
1.71652e-05
1.7511e-05
1.75122e-05
2.10454e-05
2.17644e-05
1.71651e-05
1.71666e-05
1.75117e-05
1.75135e-05
1.71652e-05
1.75085e-05
1.7512e-05
2.10285e-05
2.17953e-05
1.71656e-05
1.75105e-05
1.75123e-05
2.17937e-05
2.19682e-05
2.27787e-05
1.76384e-05
1.76394e-05
1.80426e-05
1.8044e-05
2.19898e-05
2.27466e-05
1.76392e-05
1.76409e-05
1.80431e-05
1.80453e-05
1.76394e-05
1.80398e-05
1.80438e-05
2.19697e-05
2.27435e-05
1.76397e-05
1.80419e-05
1.80439e-05
2.27784e-05
2.29624e-05
2.38075e-05
1.8189e-05
1.81901e-05
1.86475e-05
1.86485e-05
2.29817e-05
2.38025e-05
1.81896e-05
1.81915e-05
1.86478e-05
1.865e-05
1.81902e-05
1.86442e-05
1.86487e-05
2.29853e-05
2.3772e-05
1.81903e-05
1.86464e-05
1.86487e-05
2.38052e-05
2.39989e-05
2.48245e-05
1.88116e-05
1.88123e-05
1.93205e-05
1.93215e-05
2.39936e-05
2.48585e-05
1.88121e-05
1.88141e-05
1.93207e-05
1.93231e-05
1.88127e-05
1.93167e-05
1.93217e-05
2.4022e-05
2.48261e-05
1.88128e-05
1.93192e-05
1.93215e-05
2.48608e-05
2.5083e-05
2.59288e-05
1.95011e-05
1.95019e-05
2.00563e-05
2.00577e-05
2.50545e-05
2.58936e-05
1.95013e-05
1.95037e-05
2.00561e-05
2.00591e-05
1.95022e-05
2.00523e-05
2.00579e-05
2.50855e-05
2.58943e-05
1.95021e-05
2.0055e-05
2.00573e-05
2.59261e-05
2.6144e-05
2.69987e-05
2.02521e-05
2.0253e-05
2.08494e-05
2.0851e-05
2.6154e-05
2.69742e-05
2.02518e-05
2.02548e-05
2.08487e-05
2.08523e-05
2.02533e-05
2.08451e-05
2.08513e-05
2.61684e-05
2.69785e-05
2.02529e-05
2.08479e-05
2.08505e-05
2.70051e-05
2.72068e-05
2.80517e-05
2.10587e-05
2.10602e-05
2.16935e-05
2.16953e-05
2.72252e-05
2.80455e-05
2.1058e-05
2.10615e-05
2.16922e-05
2.16967e-05
2.10605e-05
2.1689e-05
2.16957e-05
2.72296e-05
2.80375e-05
2.10598e-05
2.16917e-05
2.16947e-05
2.80655e-05
2.82751e-05
2.91138e-05
2.19149e-05
2.19164e-05
2.25828e-05
2.25842e-05
2.82893e-05
2.90826e-05
2.19136e-05
2.19178e-05
2.25806e-05
2.25857e-05
2.19169e-05
2.25774e-05
2.25848e-05
2.83002e-05
2.90901e-05
2.19159e-05
2.25803e-05
2.25835e-05
2.9089e-05
2.9332e-05
3.01396e-05
2.28146e-05
2.28157e-05
2.35102e-05
2.35114e-05
2.93581e-05
3.01552e-05
2.28125e-05
2.28173e-05
2.35075e-05
2.35128e-05
2.28166e-05
2.35042e-05
2.35127e-05
2.9367e-05
3.01555e-05
2.28152e-05
2.35068e-05
2.35109e-05
3.01789e-05
3.03833e-05
3.11593e-05
2.37508e-05
2.37517e-05
2.44697e-05
2.44706e-05
3.03837e-05
3.11924e-05
2.37482e-05
2.37532e-05
2.44665e-05
2.44717e-05
2.37533e-05
2.44632e-05
2.44729e-05
3.03922e-05
3.11924e-05
2.37515e-05
2.44653e-05
2.44708e-05
3.11943e-05
3.14271e-05
3.21969e-05
2.47178e-05
2.47182e-05
2.54544e-05
2.54554e-05
3.14022e-05
3.2195e-05
2.47147e-05
2.47193e-05
2.54511e-05
2.54564e-05
2.47208e-05
2.54478e-05
2.54582e-05
3.13998e-05
3.22047e-05
2.47187e-05
2.545e-05
2.54558e-05
3.21999e-05
3.23985e-05
3.3182e-05
2.57083e-05
2.57088e-05
2.6458e-05
2.6459e-05
3.24026e-05
3.31676e-05
2.57053e-05
2.57099e-05
2.6455e-05
2.64603e-05
2.57118e-05
2.64517e-05
2.64623e-05
3.24079e-05
3.31815e-05
2.57093e-05
2.64539e-05
2.64595e-05
3.31925e-05
3.33866e-05
3.41452e-05
2.67164e-05
2.67166e-05
2.74746e-05
2.74753e-05
3.33872e-05
3.41126e-05
2.67137e-05
2.6718e-05
2.74718e-05
2.74768e-05
2.67202e-05
2.74682e-05
2.7479e-05
3.33871e-05
3.41503e-05
2.67173e-05
2.74703e-05
2.74757e-05
3.41275e-05
3.43477e-05
3.50861e-05
2.77356e-05
2.77359e-05
2.84976e-05
2.84984e-05
3.43706e-05
3.50582e-05
2.7733e-05
2.77373e-05
2.8495e-05
2.84997e-05
2.77397e-05
2.84917e-05
2.85024e-05
3.4344e-05
3.50628e-05
2.77364e-05
2.84934e-05
2.84988e-05
3.50711e-05
3.52783e-05
3.59833e-05
2.876e-05
2.876e-05
2.95215e-05
2.95224e-05
3.52958e-05
3.59704e-05
2.87577e-05
2.87615e-05
2.95195e-05
2.9524e-05
2.87642e-05
2.95161e-05
2.95268e-05
3.52937e-05
3.59769e-05
2.87608e-05
2.95178e-05
2.95235e-05
3.59966e-05
3.62045e-05
3.6865e-05
2.97837e-05
2.97837e-05
3.05432e-05
3.05438e-05
3.62076e-05
3.68811e-05
2.97822e-05
2.97856e-05
3.05419e-05
3.05459e-05
2.97885e-05
3.05377e-05
3.05489e-05
3.62048e-05
3.68826e-05
2.97851e-05
3.05401e-05
3.05457e-05
3.68904e-05
3.7085e-05
3.7757e-05
3.0804e-05
3.08038e-05
3.15581e-05
3.15591e-05
3.7075e-05
3.77528e-05
3.08028e-05
3.08059e-05
3.15569e-05
3.1561e-05
3.08091e-05
3.15531e-05
3.15642e-05
3.70895e-05
3.77517e-05
3.08059e-05
3.15556e-05
3.15614e-05
3.77456e-05
3.79371e-05
3.85902e-05
3.18166e-05
3.18166e-05
3.25629e-05
3.25642e-05
3.79391e-05
3.85918e-05
3.18155e-05
3.18183e-05
3.25615e-05
3.25659e-05
3.18217e-05
3.25582e-05
3.25688e-05
3.79462e-05
3.85915e-05
3.18191e-05
3.25606e-05
3.2567e-05
3.85842e-05
3.87928e-05
3.94231e-05
3.28179e-05
3.28181e-05
3.35541e-05
3.35561e-05
3.87844e-05
3.94248e-05
3.28166e-05
3.28198e-05
3.35525e-05
3.3558e-05
3.28229e-05
3.355e-05
3.35603e-05
3.87938e-05
3.94122e-05
3.28211e-05
3.35525e-05
3.35588e-05
3.94089e-05
3.96001e-05
4.02003e-05
3.38046e-05
3.38056e-05
3.45288e-05
3.45321e-05
3.96005e-05
4.02335e-05
3.38033e-05
3.38076e-05
3.45273e-05
3.4534e-05
3.38101e-05
3.45262e-05
3.45361e-05
3.96153e-05
4.02129e-05
3.38086e-05
3.4529e-05
3.45349e-05
4.02143e-05
4.04144e-05
4.09759e-05
3.47748e-05
3.47767e-05
3.54848e-05
3.54886e-05
4.03935e-05
4.10025e-05
3.47735e-05
3.47786e-05
3.54834e-05
3.54906e-05
3.47809e-05
3.54827e-05
3.54923e-05
4.04051e-05
4.09942e-05
3.47797e-05
3.54866e-05
3.54912e-05
4.0992e-05
4.11813e-05
4.17352e-05
3.5725e-05
3.57273e-05
3.64169e-05
3.64208e-05
4.11582e-05
4.17508e-05
3.57239e-05
3.57296e-05
3.64162e-05
3.6424e-05
3.57309e-05
3.64159e-05
3.64234e-05
4.11813e-05
4.17465e-05
3.573e-05
3.64218e-05
3.64235e-05
4.17369e-05
3.73774e-05
3.73766e-05
3.7377e-05
3.7377e-05
3.73702e-05
3.73777e-05
3.73047e-05
3.73768e-05
3.73703e-05
3.73777e-05
3.73768e-05
3.73044e-05
3.73741e-05
3.72966e-05
3.72967e-05
3.58667e-05
4.07722e-05
3.66059e-05
4.50607e-05
5.52424e-05
6.51214e-05
3.58672e-05
4.07736e-05
3.6607e-05
4.50608e-05
3.58933e-05
3.58933e-05
3.58933e-05
3.44001e-05
3.44001e-05
3.44001e-05
3.44002e-05
3.52726e-05
3.56061e-05
3.58931e-05
3.53766e-05
3.60489e-05
3.41758e-05
3.53822e-05
5.52831e-05
6.51701e-05
3.52709e-05
3.58931e-05
3.56052e-05
3.53766e-05
3.60486e-05
3.53821e-05
3.41781e-05
3.65676e-05
3.65987e-05
3.52785e-05
3.39921e-05
3.40174e-05
3.39452e-05
5.12997e-05
3.46743e-05
5.46142e-05
7.66915e-05
8.09771e-05
3.3939e-05
5.12993e-05
3.46701e-05
5.46136e-05
3.39293e-05
3.39293e-05
3.39293e-05
3.25847e-05
3.25847e-05
3.25847e-05
3.25847e-05
3.3042e-05
3.24291e-05
3.39291e-05
3.34066e-05
3.38907e-05
3.1522e-05
3.34673e-05
7.67127e-05
8.09924e-05
3.30412e-05
3.3929e-05
3.24283e-05
3.34065e-05
3.38886e-05
3.34671e-05
3.15233e-05
3.16182e-05
3.16516e-05
3.32595e-05
3.08038e-05
3.08384e-05
3.22284e-05
5.91658e-05
3.29142e-05
6.14643e-05
8.44314e-05
8.5089e-05
3.22223e-05
5.91646e-05
3.29017e-05
6.14631e-05
3.21569e-05
3.21569e-05
3.21568e-05
3.09266e-05
3.09267e-05
3.09266e-05
3.09266e-05
3.07739e-05
3.04741e-05
3.21361e-05
3.15493e-05
3.1625e-05
2.9849e-05
3.17083e-05
8.4436e-05
8.50913e-05
3.07744e-05
3.21361e-05
3.04749e-05
3.15492e-05
3.16253e-05
3.17083e-05
2.98504e-05
3.01347e-05
3.01651e-05
3.12642e-05
2.99246e-05
2.99529e-05
3.07266e-05
6.43585e-05
3.13275e-05
6.57523e-05
8.46105e-05
8.39173e-05
3.07382e-05
6.43557e-05
3.13286e-05
6.57517e-05
3.05329e-05
3.05328e-05
3.05328e-05
2.93955e-05
2.93956e-05
2.93955e-05
2.93954e-05
2.8586e-05
2.91119e-05
3.04668e-05
2.97935e-05
2.94036e-05
2.86456e-05
3.00658e-05
8.46039e-05
8.39165e-05
2.85849e-05
3.04668e-05
2.91086e-05
2.97932e-05
2.94026e-05
3.00657e-05
2.86487e-05
2.99004e-05
2.99206e-05
2.93366e-05
3.00086e-05
3.00286e-05
2.94941e-05
6.73193e-05
2.99786e-05
6.80457e-05
8.21903e-05
8.12231e-05
2.95039e-05
6.7319e-05
2.99871e-05
6.80483e-05
2.90302e-05
2.90301e-05
2.90301e-05
2.79722e-05
2.79723e-05
2.79721e-05
2.79721e-05
2.65518e-05
2.81015e-05
2.8899e-05
2.81432e-05
2.73104e-05
2.77604e-05
2.85217e-05
8.2188e-05
8.12244e-05
2.65503e-05
2.88988e-05
2.80917e-05
2.81427e-05
2.73086e-05
2.85214e-05
2.77601e-05
3.04556e-05
3.04441e-05
2.75189e-05
3.07789e-05
3.07643e-05
2.85846e-05
6.8736e-05
2.89201e-05
6.90327e-05
7.94159e-05
7.85393e-05
2.85885e-05
6.87392e-05
2.89394e-05
6.90361e-05
2.76318e-05
2.76316e-05
2.76315e-05
2.66443e-05
2.66445e-05
2.66443e-05
2.66441e-05
2.4726e-05
2.73739e-05
2.74239e-05
2.66027e-05
2.5409e-05
2.71674e-05
2.70692e-05
7.94138e-05
7.85413e-05
2.47241e-05
2.74236e-05
2.73747e-05
2.66022e-05
2.54066e-05
2.70688e-05
2.71682e-05
3.16237e-05
3.15849e-05
2.58349e-05
3.21255e-05
3.20919e-05
2.80371e-05
6.92432e-05
2.82195e-05
6.92989e-05
7.69933e-05
7.62965e-05
2.80383e-05
6.92462e-05
2.82334e-05
6.9302e-05
2.63264e-05
2.63262e-05
2.63259e-05
2.54033e-05
2.54034e-05
2.54034e-05
2.5403e-05
2.31457e-05
2.69694e-05
2.60387e-05
2.5173e-05
2.37426e-05
2.68961e-05
2.57063e-05
7.69922e-05
7.62972e-05
2.3144e-05
2.60382e-05
2.69679e-05
2.51727e-05
2.37402e-05
2.57057e-05
2.68949e-05
3.32792e-05
3.32487e-05
2.43034e-05
3.39124e-05
3.38911e-05
2.78978e-05
6.92828e-05
2.79092e-05
6.92525e-05
7.50716e-05
7.45398e-05
2.78998e-05
6.92858e-05
2.79114e-05
6.92557e-05
2.5106e-05
2.51059e-05
2.51055e-05
2.4243e-05
2.42431e-05
2.4243e-05
2.42426e-05
2.18306e-05
2.69159e-05
2.47423e-05
2.38539e-05
2.23338e-05
2.69606e-05
2.4432e-05
7.50695e-05
7.45398e-05
2.18293e-05
2.47418e-05
2.6914e-05
2.38536e-05
2.23319e-05
2.44314e-05
2.69645e-05
3.52914e-05
3.52756e-05
2.29247e-05
3.60159e-05
3.60076e-05
2.81454e-05
6.91786e-05
2.80283e-05
6.91432e-05
7.3613e-05
7.32211e-05
2.81494e-05
6.91829e-05
2.80289e-05
6.91479e-05
2.39651e-05
2.3965e-05
2.39646e-05
2.31587e-05
2.31589e-05
2.31587e-05
2.31584e-05
2.07904e-05
2.71924e-05
2.35337e-05
2.26466e-05
2.11912e-05
2.73371e-05
2.32448e-05
7.36088e-05
7.32161e-05
2.07891e-05
2.35332e-05
2.71803e-05
2.26462e-05
2.11898e-05
2.32442e-05
2.73478e-05
3.75426e-05
3.75371e-05
2.17035e-05
3.83237e-05
3.83258e-05
2.88201e-05
6.90956e-05
2.85593e-05
6.90865e-05
7.25342e-05
7.22501e-05
2.88164e-05
6.91007e-05
2.85597e-05
6.90925e-05
2.28993e-05
2.28991e-05
2.28988e-05
2.21468e-05
2.2147e-05
2.21466e-05
2.21466e-05
2.00197e-05
2.77782e-05
2.24092e-05
2.15494e-05
2.03114e-05
2.80242e-05
2.21411e-05
7.2535e-05
7.2249e-05
2.00191e-05
2.24087e-05
2.7769e-05
2.15488e-05
2.0311e-05
2.21405e-05
2.80324e-05
3.99278e-05
3.99296e-05
2.06338e-05
4.07323e-05
4.07354e-05
2.9903e-05
6.90856e-05
2.95029e-05
6.91022e-05
7.17631e-05
7.15575e-05
2.9905e-05
6.90919e-05
2.95039e-05
6.91087e-05
2.19051e-05
2.19046e-05
2.19046e-05
2.12038e-05
2.12041e-05
2.12036e-05
2.12037e-05
1.95119e-05
2.86542e-05
2.13684e-05
2.05596e-05
1.96962e-05
2.8989e-05
2.11213e-05
7.17621e-05
7.15564e-05
1.95106e-05
2.13679e-05
2.86389e-05
2.05589e-05
1.96965e-05
2.11207e-05
2.89972e-05
4.23506e-05
4.2354e-05
1.97079e-05
4.3151e-05
4.31528e-05
3.1384e-05
6.91406e-05
3.08579e-05
6.9177e-05
7.12162e-05
7.10718e-05
3.13855e-05
6.91471e-05
3.08557e-05
6.91831e-05
2.0979e-05
2.09785e-05
2.09786e-05
2.03258e-05
2.03262e-05
2.03256e-05
2.03258e-05
1.9265e-05
2.9779e-05
2.04108e-05
1.96742e-05
1.93438e-05
3.01838e-05
2.0184e-05
7.12157e-05
7.10708e-05
1.92667e-05
2.04103e-05
2.9764e-05
1.96736e-05
1.93397e-05
2.01834e-05
3.02009e-05
4.47244e-05
4.473e-05
1.89166e-05
4.54942e-05
4.54972e-05
3.32472e-05
6.924e-05
3.25977e-05
6.92858e-05
7.08339e-05
7.07327e-05
3.32434e-05
6.92457e-05
3.25945e-05
6.92909e-05
2.01162e-05
2.01156e-05
2.01158e-05
1.95091e-05
1.95095e-05
1.95089e-05
1.95091e-05
1.92784e-05
3.11176e-05
1.95333e-05
1.88914e-05
1.92545e-05
3.15865e-05
1.93261e-05
7.08335e-05
7.0732e-05
1.92833e-05
1.95329e-05
3.11037e-05
1.88909e-05
1.92527e-05
1.93256e-05
3.15989e-05
4.69844e-05
4.69897e-05
1.82551e-05
4.76981e-05
4.77039e-05
3.54323e-05
6.93548e-05
3.46784e-05
6.94014e-05
7.0565e-05
7.04932e-05
3.54318e-05
6.93601e-05
3.46758e-05
6.94057e-05
1.93152e-05
1.93147e-05
1.93149e-05
1.87541e-05
1.87546e-05
1.8754e-05
1.87542e-05
1.95463e-05
3.26192e-05
1.8733e-05
1.82077e-05
1.94377e-05
3.31393e-05
1.85447e-05
7.05645e-05
7.04928e-05
1.95502e-05
1.87326e-05
3.26147e-05
1.82072e-05
1.94312e-05
1.85442e-05
3.31487e-05
4.90716e-05
4.90786e-05
1.77252e-05
4.97211e-05
4.9729e-05
3.78624e-05
6.94672e-05
3.70372e-05
6.95101e-05
7.03702e-05
7.03173e-05
3.78608e-05
6.94717e-05
3.70325e-05
6.95146e-05
1.85753e-05
1.85748e-05
1.8575e-05
1.80582e-05
1.80586e-05
1.80581e-05
1.80583e-05
2.00672e-05
3.42407e-05
1.80073e-05
1.76198e-05
1.98751e-05
3.47867e-05
1.78373e-05
7.03672e-05
7.03202e-05
2.00741e-05
1.80069e-05
3.42386e-05
1.76195e-05
1.98667e-05
1.78368e-05
3.47904e-05
5.09591e-05
5.09678e-05
1.73317e-05
5.15377e-05
5.15478e-05
4.04378e-05
6.95689e-05
3.95761e-05
6.96105e-05
7.02202e-05
7.01797e-05
4.04469e-05
6.95713e-05
3.95682e-05
6.96155e-05
1.78938e-05
1.78933e-05
1.78935e-05
1.74189e-05
1.74193e-05
1.74189e-05
1.7419e-05
2.08381e-05
3.59287e-05
1.73539e-05
1.71269e-05
2.05613e-05
3.64836e-05
1.72016e-05
7.02163e-05
7.01806e-05
2.08413e-05
1.73535e-05
3.59167e-05
1.71266e-05
2.0555e-05
1.72012e-05
3.64871e-05
5.26339e-05
5.26454e-05
1.70727e-05
5.31447e-05
5.31552e-05
4.30581e-05
6.96598e-05
4.21733e-05
6.97e-05
7.00965e-05
7.00638e-05
4.30721e-05
6.96656e-05
4.21574e-05
6.97057e-05
1.72684e-05
1.7268e-05
1.72681e-05
1.68341e-05
1.68345e-05
1.68341e-05
1.68343e-05
2.18398e-05
3.76245e-05
1.67719e-05
1.67278e-05
2.14906e-05
3.81865e-05
1.66372e-05
7.00946e-05
7.00633e-05
2.18431e-05
1.67716e-05
3.76228e-05
1.67276e-05
2.14836e-05
1.66369e-05
3.818e-05
5.41046e-05
5.41166e-05
1.69429e-05
5.455e-05
5.45609e-05
4.55971e-05
6.97449e-05
4.47246e-05
6.97824e-05
6.9989e-05
6.99604e-05
4.56111e-05
6.97515e-05
4.4713e-05
6.97892e-05
1.66969e-05
1.66966e-05
1.66967e-05
1.63022e-05
1.63025e-05
1.63023e-05
1.63024e-05
2.30593e-05
3.9299e-05
1.62591e-05
1.6422e-05
2.26396e-05
3.98372e-05
1.61414e-05
6.99877e-05
6.99596e-05
2.30633e-05
1.62589e-05
3.93011e-05
1.64219e-05
2.26327e-05
1.61411e-05
3.98398e-05
5.5386e-05
5.53982e-05
1.69468e-05
5.57728e-05
5.57838e-05
4.79585e-05
6.98247e-05
4.71387e-05
6.986e-05
6.98913e-05
6.98655e-05
4.79715e-05
6.98324e-05
4.71321e-05
6.98679e-05
1.61782e-05
1.61779e-05
1.6178e-05
1.58214e-05
1.58216e-05
1.58214e-05
1.58216e-05
2.44622e-05
4.09193e-05
1.58141e-05
1.62095e-05
2.39846e-05
4.14317e-05
1.57132e-05
6.98902e-05
6.98646e-05
2.44664e-05
1.58138e-05
4.09154e-05
1.62094e-05
2.39773e-05
1.57129e-05
4.14356e-05
5.64984e-05
5.65113e-05
1.70758e-05
5.68353e-05
5.68464e-05
5.008e-05
6.99001e-05
4.93399e-05
6.99334e-05
6.98009e-05
6.9777e-05
5.00922e-05
6.991e-05
4.9336e-05
6.99397e-05
1.57097e-05
1.57095e-05
1.57096e-05
1.53895e-05
1.53897e-05
1.53896e-05
1.53897e-05
2.60086e-05
4.24503e-05
1.54364e-05
1.609e-05
2.54864e-05
4.29304e-05
1.53522e-05
6.97997e-05
6.97761e-05
2.60113e-05
1.54362e-05
4.24439e-05
1.60901e-05
2.54829e-05
1.5352e-05
4.2935e-05
5.74673e-05
5.74793e-05
1.73336e-05
5.77604e-05
5.77716e-05
5.19307e-05
6.99708e-05
5.12831e-05
7.0002e-05
6.9716e-05
6.9694e-05
5.1942e-05
6.99809e-05
5.12811e-05
7.00083e-05
1.52899e-05
1.52898e-05
1.52898e-05
1.50057e-05
1.50058e-05
1.50057e-05
1.50059e-05
2.76523e-05
4.38837e-05
1.51258e-05
1.60656e-05
2.71032e-05
4.43318e-05
1.50583e-05
6.97152e-05
6.96935e-05
2.76524e-05
1.51257e-05
4.38827e-05
1.60658e-05
2.71007e-05
1.50581e-05
4.43295e-05
5.83139e-05
5.83244e-05
1.7726e-05
5.85718e-05
5.85812e-05
5.35089e-05
7.00364e-05
5.29547e-05
7.00638e-05
6.9637e-05
6.9617e-05
5.35184e-05
7.0046e-05
5.29536e-05
7.00706e-05
1.49179e-05
1.49179e-05
1.49179e-05
1.46689e-05
1.4669e-05
1.4669e-05
1.46691e-05
2.93469e-05
4.52057e-05
1.48825e-05
1.61286e-05
2.87896e-05
4.56257e-05
1.48316e-05
6.96364e-05
6.96166e-05
2.93487e-05
1.48824e-05
4.52092e-05
1.6129e-05
2.87895e-05
1.48314e-05
4.56214e-05
5.90565e-05
5.90659e-05
1.82396e-05
5.92835e-05
5.92924e-05
5.48331e-05
7.00971e-05
5.43648e-05
7.01189e-05
6.9564e-05
6.95458e-05
5.48414e-05
7.01045e-05
5.43646e-05
7.01264e-05
1.45929e-05
1.45929e-05
1.45929e-05
1.43786e-05
1.43786e-05
1.43787e-05
1.43789e-05
3.10509e-05
4.64239e-05
1.47068e-05
1.6284e-05
3.04951e-05
4.68097e-05
1.46728e-05
6.95634e-05
6.95454e-05
3.10527e-05
1.47069e-05
4.64306e-05
1.62846e-05
3.04944e-05
1.46728e-05
4.68071e-05
5.97118e-05
5.97206e-05
1.88814e-05
5.99119e-05
5.99214e-05
5.59351e-05
7.01491e-05
5.55418e-05
7.01684e-05
6.94967e-05
6.94803e-05
5.59435e-05
7.01563e-05
5.5542e-05
7.01756e-05
1.43141e-05
1.43142e-05
1.43141e-05
1.41343e-05
1.41343e-05
1.41345e-05
1.41346e-05
3.27225e-05
4.75432e-05
1.45998e-05
1.65281e-05
3.218e-05
4.78932e-05
1.45828e-05
6.94964e-05
6.94803e-05
3.27272e-05
1.46001e-05
4.75474e-05
1.65291e-05
3.21774e-05
1.45831e-05
4.78911e-05
6.02943e-05
6.03029e-05
1.96115e-05
6.04727e-05
6.04819e-05
5.68526e-05
7.01944e-05
5.65203e-05
7.02113e-05
6.94353e-05
6.94207e-05
5.68614e-05
7.02015e-05
5.65212e-05
7.02184e-05
1.4081e-05
1.40813e-05
1.40812e-05
1.39355e-05
1.39355e-05
1.39358e-05
1.39358e-05
3.43327e-05
4.85646e-05
1.45621e-05
1.68583e-05
3.38123e-05
4.88846e-05
1.45638e-05
6.94349e-05
6.94206e-05
3.43349e-05
1.45626e-05
4.85689e-05
1.68598e-05
3.381e-05
1.45643e-05
4.88877e-05
6.08145e-05
6.08237e-05
2.04041e-05
6.0976e-05
6.09856e-05
5.76224e-05
7.02337e-05
5.73376e-05
7.02484e-05
6.93796e-05
6.93671e-05
5.76309e-05
7.02405e-05
5.73393e-05
7.02555e-05
1.38933e-05
1.38938e-05
1.38936e-05
1.37819e-05
1.37818e-05
1.37824e-05
1.37823e-05
3.58578e-05
4.94984e-05
1.4594e-05
1.72717e-05
3.53627e-05
4.97941e-05
1.46091e-05
6.93788e-05
6.93664e-05
3.58559e-05
1.45949e-05
4.95024e-05
1.72736e-05
3.53664e-05
1.461e-05
4.97969e-05
6.12832e-05
6.12941e-05
2.13199e-05
6.14286e-05
6.14393e-05
5.82765e-05
7.02673e-05
5.80282e-05
7.02821e-05
6.93295e-05
6.93188e-05
5.8284e-05
7.02737e-05
5.80304e-05
7.02884e-05
1.37508e-05
1.37514e-05
1.37512e-05
1.36733e-05
1.36733e-05
1.3674e-05
1.36738e-05
3.72876e-05
5.03567e-05
1.4694e-05
1.77647e-05
3.68256e-05
5.06261e-05
1.47256e-05
6.93281e-05
6.93177e-05
3.72871e-05
1.46949e-05
5.03607e-05
1.77667e-05
3.6829e-05
1.47266e-05
5.06312e-05
6.17074e-05
6.1719e-05
2.22802e-05
6.18399e-05
6.18507e-05
5.88407e-05
7.02978e-05
5.86207e-05
7.03121e-05
6.92847e-05
6.9276e-05
5.88466e-05
7.03037e-05
5.86233e-05
7.03179e-05
1.36533e-05
1.3654e-05
1.36538e-05
1.36098e-05
1.36098e-05
1.36105e-05
1.36104e-05
3.86143e-05
5.11447e-05
1.48622e-05
1.83332e-05
3.81876e-05
5.13912e-05
1.49102e-05
6.9283e-05
6.92745e-05
3.86162e-05
1.48634e-05
5.11478e-05
1.83353e-05
3.81904e-05
1.49115e-05
5.13963e-05
6.20944e-05
6.21058e-05
2.32895e-05
6.2215e-05
6.22264e-05
5.93348e-05
7.03267e-05
5.91377e-05
7.03403e-05
6.92454e-05
6.92387e-05
5.93388e-05
7.03332e-05
5.91415e-05
7.03458e-05
1.36008e-05
1.36016e-05
1.36014e-05
1.35919e-05
1.35918e-05
1.35928e-05
1.35926e-05
3.98444e-05
5.18707e-05
1.5098e-05