/*--------------------------------*- C++ -*----------------------------------*\
| =========                 |                                                 |
| \\      /  F ield         | OpenFOAM: The Open Source CFD Toolbox           |
|  \\    /   O peration     | Version:  v2012                                 |
|   \\  /    A nd           | Website:  www.openfoam.com                      |
|    \\/     M anipulation  |                                                 |
\*---------------------------------------------------------------------------*/
FoamFile
{
    version     2.0;
    format      ascii;
    class       volScalarField;
    location    "250";
    object      p;
}
// * * * * * * * * * * * * * * * * * * * * * * * * * * * * * * * * * * * * * //

dimensions      [0 2 -2 0 0 0 0];


internalField   nonuniform List<scalar> 
171728
(
0.00166564
0.00166557
0.00166716
0.00166557
0.00166557
0.00166557
0.00166716
0.0016676
0.0016676
0.00166761
0.00166564
0.00166761
0.00166757
0.00166761
0.00166761
0.00166762
0.00166762
0.00166757
0.00166757
0.00166561
0.00166755
0.0016676
0.00166761
0.00166561
0.00166757
0.00166755
0.00166761
0.00166761
0.00166761
0.0016676
0.00166322
0.00166762
0.00166761
0.00166321
0.00166322
0.00166762
0.00166322
0.00166761
0.00166321
0.00166324
0.00166761
0.00166761
0.00166324
0.00166321
0.00166761
0.00166321
0.00166321
0.00166321
0.00166326
0.00166758
0.00166323
0.00166761
0.00166322
0.00166332
0.0016676
0.00166326
0.00166758
0.00166323
0.00166761
0.00166322
0.00166332
0.0016676
0.00166321
0.00166762
0.00166762
0.0016632
0.0016632
0.00166763
0.00166321
0.00166322
0.00166762
0.00166322
0.00166761
0.00166321
0.00166324
0.00166761
0.00166761
0.00166321
0.00166324
0.00166761
0.00166326
0.00166758
0.00166323
0.0016676
0.00166322
0.00166332
0.0016676
0.00166326
0.00166758
0.00166323
0.00166761
0.00166332
0.00166322
0.0016676
0.00166321
0.00166761
0.00166761
0.0016632
0.0016632
0.00166762
0.00166321
0.00166322
0.00166566
0.00166342
0.00166737
0.00166737
0.00166392
0.00166361
0.00166361
0.0016675
0.00166342
0.00166737
0.00166737
0.00166392
0.00166361
0.00166361
0.0016675
0.00166566
0.00166359
0.00166744
0.00166329
0.00166756
0.00166346
0.00166334
0.00166738
0.00166359
0.00166744
0.00166329
0.00166756
0.00166335
0.00166346
0.00166738
0.00166359
0.00166744
0.00166329
0.00166756
0.00166335
0.00166346
0.00166738
0.00166363
0.00166339
0.00166755
0.00166736
0.00166337
0.00166364
0.00166735
0.00166359
0.00166744
0.00166329
0.00166756
0.00166335
0.00166346
0.00166738
0.00166363
0.00166339
0.00166736
0.00166755
0.00166364
0.00166337
0.00166735
0.00358664
0.00358647
0.00358646
0.00358926
0.00353309
0.00353322
0.00353322
0.00353543
0.0034818
0.00348184
0.00348184
0.00348415
0.0034299
0.00342987
0.00342986
0.00343214
0.00337883
0.00337877
0.00337877
0.00338101
0.00332912
0.00332907
0.00332908
0.00333127
0.00328084
0.00328081
0.00328081
0.00328297
0.00323386
0.00323384
0.00323384
0.00323597
0.00318797
0.00318797
0.00318797
0.00319006
0.00314297
0.00314297
0.00314298
0.00314504
0.0030987
0.00309871
0.00309871
0.00310075
0.00305502
0.00305503
0.00305503
0.00305705
0.00301185
0.00301186
0.00301186
0.00301386
0.00296915
0.00296916
0.00296916
0.00297114
0.00292688
0.00292688
0.00292688
0.00292885
0.00288501
0.00288501
0.00288502
0.00288696
0.00284352
0.00284353
0.00284353
0.00284546
0.00280239
0.00280239
0.00280239
0.00280431
0.00276159
0.00276159
0.00276159
0.00276349
0.0027211
0.0027211
0.0027211
0.00272299
0.00268089
0.0026809
0.0026809
0.00268277
0.00264096
0.00264096
0.00264096
0.00264282
0.00260127
0.00260127
0.00260127
0.00260313
0.00256183
0.00256182
0.00256182
0.00256367
0.0025226
0.0025226
0.0025226
0.00252443
0.0024836
0.00248359
0.00248359
0.00248541
0.0024448
0.00244479
0.00244479
0.00244659
0.0024062
0.00240618
0.00240618
0.00240797
0.00236779
0.00236777
0.00236777
0.00236954
0.00232956
0.00232954
0.00232954
0.0023313
0.00229152
0.00229149
0.0022915
0.00229323
0.00225364
0.00225362
0.00225362
0.00225534
0.00221594
0.00221591
0.00221591
0.00221762
0.0021784
0.00217837
0.00217837
0.00218006
0.00214101
0.00214098
0.00214098
0.00214265
0.00210377
0.00210374
0.00210374
0.0021054
0.00206668
0.00206664
0.00206664
0.00206829
0.00202972
0.00202968
0.00202968
0.00203132
0.00199289
0.00199285
0.00199285
0.00199448
0.00195619
0.00195614
0.00195614
0.00195776
0.00191959
0.00191954
0.00191954
0.00192115
0.0018831
0.00188305
0.00188305
0.00188465
0.00184671
0.00184665
0.00184665
0.00184825
0.00181039
0.00181033
0.00181033
0.00181192
0.00177414
0.00177408
0.00177408
0.00177567
0.00173794
0.00173788
0.00173788
0.00173947
0.00170178
0.00170171
0.00170171
0.0017033
0.00360002
0.00360022
0.00360022
0.00360003
0.00360022
0.00360022
0.00360096
0.00360096
0.00360096
0.00360095
0.00360023
0.00360022
0.00360002
0.00360022
0.00360021
0.00360002
0.00358926
0.0035431
0.00358646
0.00358646
0.0035456
0.0035456
0.00358927
0.0035431
0.00358646
0.00358646
0.0035456
0.0035456
0.00358646
0.0035456
0.0035456
0.00358926
0.0035431
0.00358645
0.0035456
0.0035456
0.0035431
0.00353543
0.00349218
0.00353322
0.00353322
0.00349484
0.00349484
0.00353543
0.00349218
0.00353322
0.00353322
0.00349484
0.00349484
0.00353322
0.00349484
0.00349484
0.00353543
0.00349218
0.00353322
0.00349484
0.00349484
0.00349218
0.00348415
0.00344013
0.00348184
0.00348184
0.00344281
0.00344281
0.00348415
0.00344013
0.00348184
0.00348184
0.00344281
0.00344281
0.00348184
0.00344281
0.00344281
0.00348415
0.00344013
0.00348184
0.00344281
0.00344281
0.00344013
0.00343214
0.00338881
0.00342986
0.00342987
0.00339143
0.00339143
0.00343214
0.00338881
0.00342986
0.00342987
0.00339143
0.00339143
0.00342986
0.00339143
0.00339143
0.00343214
0.00338881
0.00342986
0.00339142
0.00339142
0.00338881
0.00338101
0.00333885
0.00337877
0.00337878
0.00334136
0.00334136
0.00338101
0.00333885
0.00337877
0.00337877
0.00334136
0.00334136
0.00337877
0.00334136
0.00334136
0.00338101
0.00333885
0.00337877
0.00334136
0.00334136
0.00333885
0.00333127
0.00329033
0.00332908
0.00332907
0.00329275
0.00329275
0.00333127
0.00329033
0.00332908
0.00332908
0.00329275
0.00329275
0.00332907
0.00329275
0.00329275
0.00333127
0.00329033
0.00332908
0.00329275
0.00329275
0.00329033
0.00328297
0.00324315
0.00328081
0.00328081
0.00324547
0.00324547
0.00328297
0.00324315
0.00328081
0.00328081
0.00324547
0.00324547
0.00328081
0.00324547
0.00324548
0.00328297
0.00324315
0.00328081
0.00324548
0.00324548
0.00324315
0.00323597
0.00319708
0.00323384
0.00323384
0.00319934
0.00319934
0.00323597
0.00319709
0.00323384
0.00323384
0.00319934
0.00319934
0.00323384
0.00319934
0.00319934
0.00323597
0.00319708
0.00323384
0.00319934
0.00319934
0.00319708
0.00319006
0.00315195
0.00318796
0.00318796
0.00315415
0.00315415
0.00319006
0.00315195
0.00318797
0.00318796
0.00315415
0.00315415
0.00318796
0.00315415
0.00315415
0.00319006
0.00315195
0.00318797
0.00315415
0.00315415
0.00315195
0.00314504
0.00310756
0.00314297
0.00314297
0.00310971
0.00310971
0.00314504
0.00310756
0.00314298
0.00314297
0.00310971
0.00310971
0.00314297
0.00310971
0.00310971
0.00314504
0.00310756
0.00314298
0.00310971
0.00310971
0.00310756
0.00310075
0.00306378
0.0030987
0.0030987
0.0030659
0.0030659
0.00310075
0.00306378
0.0030987
0.0030987
0.0030659
0.0030659
0.0030987
0.0030659
0.0030659
0.00310075
0.00306378
0.00309871
0.0030659
0.0030659
0.00306378
0.00305705
0.00302051
0.00305503
0.00305503
0.00302261
0.00302261
0.00305705
0.00302051
0.00305503
0.00305503
0.00302261
0.00302261
0.00305503
0.00302261
0.00302261
0.00305705
0.00302051
0.00305503
0.00302261
0.00302261
0.00302051
0.00301386
0.00297772
0.00301186
0.00301186
0.00297979
0.00297979
0.00301386
0.00297772
0.00301186
0.00301186
0.00297979
0.00297979
0.00301186
0.00297979
0.00297979
0.00301386
0.00297772
0.00301186
0.00297979
0.00297979
0.00297772
0.00297114
0.00293539
0.00296916
0.00296916
0.00293741
0.00293741
0.00297114
0.00293539
0.00296916
0.00296916
0.00293741
0.00293741
0.00296916
0.00293741
0.00293741
0.00297114
0.00293538
0.00296916
0.00293741
0.00293741
0.00293539
0.00292885
0.00289346
0.00292688
0.00292688
0.00289545
0.00289545
0.00292885
0.00289346
0.00292688
0.00292688
0.00289545
0.00289545
0.00292688
0.00289545
0.00289545
0.00292885
0.00289346
0.00292688
0.00289545
0.00289545
0.00289346
0.00288696
0.00285191
0.00288502
0.00288501
0.00285386
0.00285386
0.00288696
0.00285191
0.00288502
0.00288501
0.00285386
0.00285386
0.00288502
0.00285386
0.00285386
0.00288696
0.00285191
0.00288502
0.00285386
0.00285386
0.00285191
0.00284546
0.00281073
0.00284353
0.00284353
0.00281264
0.00281265
0.00284546
0.00281073
0.00284353
0.00284353
0.00281264
0.00281264
0.00284353
0.00281265
0.00281265
0.00284546
0.00281073
0.00284353
0.00281264
0.00281265
0.00281073
0.00280431
0.00276988
0.00280239
0.00280239
0.00277176
0.00277176
0.00280431
0.00276988
0.00280239
0.00280239
0.00277176
0.00277176
0.00280239
0.00277176
0.00277176
0.00280431
0.00276988
0.00280239
0.00277176
0.00277176
0.00276988
0.0027635
0.00272934
0.00276159
0.00276159
0.0027312
0.00273119
0.00276349
0.00272934
0.00276159
0.00276159
0.0027312
0.0027312
0.00276159
0.00273119
0.0027312
0.00276349
0.00272934
0.00276159
0.0027312
0.0027312
0.00272934
0.00272299
0.00268909
0.0027211
0.0027211
0.00269092
0.00269092
0.00272299
0.00268909
0.0027211
0.0027211
0.00269092
0.00269092
0.0027211
0.00269092
0.00269092
0.00272299
0.00268909
0.0027211
0.00269092
0.00269092
0.00268909
0.00268277
0.00264911
0.0026809
0.0026809
0.00265092
0.00265092
0.00268277
0.00264911
0.0026809
0.0026809
0.00265092
0.00265092
0.0026809
0.00265092
0.00265092
0.00268277
0.00264912
0.0026809
0.00265092
0.00265092
0.00264911
0.00264282
0.00260939
0.00264096
0.00264096
0.00261117
0.00261117
0.00264282
0.00260939
0.00264096
0.00264096
0.00261117
0.00261117
0.00264096
0.00261117
0.00261117
0.00264282
0.00260939
0.00264096
0.00261117
0.00261117
0.00260939
0.00260313
0.0025699
0.00260127
0.00260127
0.00257166
0.00257166
0.00260313
0.0025699
0.00260127
0.00260127
0.00257166
0.00257166
0.00260127
0.00257166
0.00257166
0.00260313
0.0025699
0.00260127
0.00257166
0.00257166
0.0025699
0.00256367
0.00253064
0.00256182
0.00256182
0.00253239
0.00253238
0.00256367
0.00253064
0.00256182
0.00256182
0.00253239
0.00253238
0.00256182
0.00253238
0.00253239
0.00256367
0.00253064
0.00256182
0.00253238
0.00253239
0.00253064
0.00252443
0.00249159
0.0025226
0.0025226
0.00249332
0.00249332
0.00252443
0.00249159
0.0025226
0.0025226
0.00249332
0.00249332
0.0025226
0.00249332
0.00249332
0.00252443
0.00249159
0.0025226
0.00249332
0.00249332
0.00249159
0.00248541
0.00245275
0.00248359
0.00248359
0.00245447
0.00245447
0.00248541
0.00245275
0.00248359
0.00248359
0.00245447
0.00245447
0.00248359
0.00245447
0.00245447
0.00248541
0.00245275
0.00248359
0.00245447
0.00245447
0.00245275
0.00244659
0.00241411
0.00244479
0.00244479
0.00241581
0.00241581
0.00244659
0.00241411
0.00244479
0.00244479
0.00241581
0.00241581
0.00244479
0.00241582
0.00241581
0.00244659
0.0024141
0.00244479
0.00241581
0.00241582
0.00241411
0.00240797
0.00237565
0.00240618
0.00240618
0.00237735
0.00237735
0.00240797
0.00237565
0.00240618
0.00240618
0.00237735
0.00237735
0.00240618
0.00237735
0.00237735
0.00240797
0.00237565
0.00240618
0.00237735
0.00237735
0.00237565
0.00236954
0.00233738
0.00236777
0.00236777
0.00233908
0.00233908
0.00236954
0.00233738
0.00236777
0.00236777
0.00233908
0.00233908
0.00236777
0.00233908
0.00233908
0.00236954
0.00233738
0.00236777
0.00233908
0.00233908
0.00233738
0.00233129
0.0022993
0.00232954
0.00232954
0.00230099
0.00230099
0.0023313
0.0022993
0.00232954
0.00232954
0.00230099
0.00230099
0.00232954
0.00230099
0.00230099
0.0023313
0.00229929
0.00232954
0.00230099
0.00230099
0.00229929
0.00229323
0.00226138
0.00229149
0.00229149
0.00226307
0.00226307
0.00229323
0.00226138
0.00229149
0.0022915
0.00226307
0.00226307
0.00229149
0.00226307
0.00226307
0.00229323
0.00226138
0.00229149
0.00226307
0.00226307
0.00226138
0.00225534
0.00222363
0.00225362
0.00225362
0.00222533
0.00222533
0.00225534
0.00222364
0.00225362
0.00225362
0.00222533
0.00222533
0.00225362
0.00222533
0.00222533
0.00225534
0.00222363
0.00225362
0.00222533
0.00222532
0.00222363
0.00221762
0.00218605
0.00221591
0.00221591
0.00218774
0.00218774
0.00221762
0.00218605
0.00221591
0.00221591
0.00218774
0.00218774
0.00221591
0.00218774
0.00218774
0.00221762
0.00218605
0.00221591
0.00218774
0.00218774
0.00218605
0.00218006
0.00214862
0.00217837
0.00217837
0.00215031
0.00215031
0.00218006
0.00214862
0.00217837
0.00217837
0.00215031
0.00215031
0.00217837
0.00215031
0.00215031
0.00218006
0.00214862
0.00217837
0.00215031
0.00215031
0.00214862
0.00214265
0.00211135
0.00214098
0.00214098
0.00211304
0.00211304
0.00214265
0.00211135
0.00214098
0.00214098
0.00211304
0.00211304
0.00214098
0.00211304
0.00211304
0.00214265
0.00211135
0.00214098
0.00211304
0.00211304
0.00211135
0.0021054
0.00207422
0.00210374
0.00210374
0.0020759
0.0020759
0.0021054
0.00207422
0.00210374
0.00210374
0.0020759
0.0020759
0.00210374
0.0020759
0.0020759
0.0021054
0.00207422
0.00210374
0.0020759
0.0020759
0.00207422
0.00206829
0.00203723
0.00206664
0.00206664
0.00203891
0.00203891
0.00206829
0.00203723
0.00206664
0.00206664
0.00203891
0.00203891
0.00206664
0.00203891
0.00203891
0.00206829
0.00203723
0.00206664
0.00203891
0.00203891
0.00203723
0.00203132
0.00200037
0.00202968
0.00202968
0.00200205
0.00200205
0.00203132
0.00200037
0.00202968
0.00202968
0.00200205
0.00200205
0.00202968
0.00200205
0.00200205
0.00203132
0.00200037
0.00202968
0.00200205
0.00200205
0.00200037
0.00199448
0.00196363
0.00199285
0.00199285
0.00196531
0.00196531
0.00199448
0.00196363
0.00199285
0.00199285
0.00196531
0.00196531
0.00199285
0.00196531
0.00196531
0.00199448
0.00196363
0.00199285
0.00196531
0.00196531
0.00196363
0.00195776
0.00192701
0.00195614
0.00195614
0.00192868
0.00192868
0.00195776
0.00192701
0.00195614
0.00195614
0.00192868
0.00192868
0.00195614
0.00192868
0.00192868
0.00195776
0.00192701
0.00195614
0.00192868
0.00192868
0.00192701
0.00192115
0.00189049
0.00191954
0.00191954
0.00189216
0.00189216
0.00192115
0.00189049
0.00191954
0.00191954
0.00189216
0.00189216
0.00191954
0.00189216
0.00189216
0.00192115
0.00189049
0.00191954
0.00189216
0.00189216
0.00189049
0.00188465
0.00185407
0.00188305
0.00188305
0.00185574
0.00185574
0.00188465
0.00185407
0.00188305
0.00188305
0.00185574
0.00185574
0.00188305
0.00185574
0.00185574
0.00188465
0.00185407
0.00188305
0.00185574
0.00185574
0.00185407
0.00184825
0.00181774
0.00184665
0.00184665
0.0018194
0.0018194
0.00184825
0.00181774
0.00184665
0.00184665
0.0018194
0.0018194
0.00184665
0.0018194
0.0018194
0.00184825
0.00181774
0.00184665
0.0018194
0.0018194
0.00181774
0.00181192
0.00178147
0.00181033
0.00181033
0.00178313
0.00178313
0.00181192
0.00178147
0.00181033
0.00181033
0.00178313
0.00178313
0.00181033
0.00178313
0.00178313
0.00181192
0.00178147
0.00181033
0.00178313
0.00178313
0.00178147
0.00177567
0.00174526
0.00177408
0.00177408
0.00174692
0.00174692
0.00177567
0.00174526
0.00177408
0.00177408
0.00174692
0.00174692
0.00177408
0.00174692
0.00174692
0.00177567
0.00174526
0.00177408
0.00174692
0.00174692
0.00174526
0.00173947
0.00170909
0.00173788
0.00173788
0.00171075
0.00171075
0.00173947
0.00170909
0.00173788
0.00173788
0.00171075
0.00171075
0.00173788
0.00171075
0.00171075
0.00173946
0.00170909
0.00173788
0.00171075
0.00171075
0.00170909
0.0017033
0.00167295
0.00170171
0.00170171
0.0016746
0.00167461
0.0017033
0.00167295
0.00170171
0.00170171
0.0016746
0.0016746
0.00170171
0.00167461
0.0016746
0.0017033
0.00167295
0.00170171
0.0016746
0.0016746
0.00167295
0.00360917
0.00361914
0.00361375
0.00361376
0.00363618
0.00362312
0.00365157
0.00361703
0.00363622
0.00362313
0.00361704
0.00365164
0.0036276
0.00365561
0.0036557
0.00356811
0.00356816
0.00358652
0.00356641
0.00354607
0.00356537
0.00356811
0.00356815
0.00358649
0.0035664
0.00358664
0.00358664
0.00358664
0.00354548
0.00354548
0.00354548
0.00354548
0.0035668
0.00358367
0.00358672
0.00357096
0.0035889
0.00356776
0.0035716
0.00354612
0.0035654
0.00356679
0.00358672
0.00358367
0.00357096
0.00358888
0.0035716
0.00356774
0.00358022
0.00358022
0.0035678
0.00356808
0.00356809
0.00351845
0.00353631
0.00353733
0.00351754
0.00353568
0.00351708
0.00351845
0.0035363
0.00353733
0.00351754
0.00353309
0.00353309
0.00353309
0.00349478
0.00349478
0.00349478
0.00349478
0.00351755
0.0035368
0.00353316
0.00352061
0.0035361
0.00351801
0.00352055
0.00353569
0.00351707
0.00351754
0.00353316
0.00353679
0.0035206
0.00353609
0.00352055
0.00351801
0.00353707
0.00353707
0.00351797
0.00351814
0.00351814
0.00346618
0.00348477
0.00348562
0.0034654
0.00348448
0.00346516
0.00346617
0.00348477
0.00348562
0.0034654
0.00348181
0.0034818
0.0034818
0.00344284
0.00344284
0.00344284
0.00344284
0.00346566
0.00348515
0.00348181
0.00346882
0.00348486
0.00346583
0.0034688
0.00348448
0.00346516
0.00346566
0.00348181
0.00348515
0.00346882
0.00348486
0.0034688
0.00346583
0.00348522
0.00348522
0.00346614
0.00346577
0.00346577
0.00341406
0.00343255
0.00343324
0.00341346
0.00343239
0.0034133
0.00341406
0.00343255
0.00343324
0.00341346
0.0034299
0.0034299
0.0034299
0.00339148
0.00339148
0.00339148
0.00339148
0.00341379
0.00343286
0.00342987
0.00341698
0.00343276
0.00341383
0.00341699
0.00343239
0.0034133
0.00341379
0.00342987
0.00343286
0.00341698
0.00343276
0.00341699
0.00341383
0.00343286
0.00343286
0.00341432
0.00341372
0.00341372
0.0033632
0.00338133
0.00338184
0.00336276
0.00338122
0.00336262
0.00336319
0.00338133
0.00338184
0.00336276
0.00337883
0.00337883
0.00337883
0.00334141
0.00334141
0.00334141
0.00334141
0.00336308
0.00338157
0.00337878
0.00336621
0.00338154
0.00336308
0.00336622
0.00338121
0.00336263
0.00336308
0.00337878
0.00338157
0.00336621
0.00338154
0.00336622
0.00336308
0.00338156
0.00338156
0.00336365
0.00336296
0.00336296
0.00331385
0.00333156
0.00333191
0.00331354
0.00333148
0.00331341
0.00331385
0.00333156
0.00333191
0.00331354
0.00332912
0.00332912
0.00332912
0.00329279
0.00329278
0.00329279
0.00329279
0.00331384
0.00333174
0.00332907
0.00331688
0.00333173
0.00331383
0.00331688
0.00333146
0.00331343
0.00331384
0.00332907
0.00333174
0.00331688
0.00333173
0.00331688
0.00331383
0.00333175
0.00333175
0.00331442
0.00331372
0.00331372
0.00326596
0.00328325
0.00328349
0.00326574
0.00328316
0.00326563
0.00326596
0.00328325
0.00328349
0.00326574
0.00328084
0.00328084
0.00328084
0.0032455
0.0032455
0.0032455
0.0032455
0.00326601
0.00328339
0.0032808
0.00326896
0.00328338
0.00326601
0.00326894
0.00328316
0.00326563
0.00326601
0.0032808
0.00328339
0.00326896
0.00328338
0.00326894
0.00326601
0.00328341
0.00328341
0.00326659
0.0032659
0.0032659
0.00321933
0.00323624
0.00323641
0.00321917
0.00323616
0.00321906
0.00321933
0.00323624
0.00323641
0.00321917
0.00323386
0.00323386
0.00323386
0.00319935
0.00319935
0.00319935
0.00319935
0.00321943
0.00323635
0.00323383
0.00322228
0.00323634
0.00321942
0.00322226
0.00323616
0.00321906
0.00321943
0.00323383
0.00323635
0.00322228
0.00323634
0.00322226
0.00321942
0.00323639
0.00323639
0.00321999
0.00321931
0.00321931
0.00317375
0.00319033
0.00319047
0.00317361
0.00319026
0.00317352
0.00317375
0.00319033
0.00319047
0.00317361
0.00318797
0.00318797
0.00318797
0.00315415
0.00315415
0.00315415
0.00315415
0.00317388
0.00319043
0.00318794
0.00317664
0.00319042
0.00317387
0.00317662
0.00319026
0.00317352
0.00317388
0.00318794
0.00319043
0.00317664
0.00319042
0.00317662
0.00317387
0.00319047
0.00319047
0.00317441
0.00317375
0.00317375
0.00312901
0.00314532
0.00314543
0.00312889
0.00314525
0.0031288
0.00312901
0.00314532
0.00314543
0.00312889
0.00314297
0.00314297
0.00314297
0.00310971
0.00310971
0.00310971
0.00310971
0.00312916
0.0031454
0.00314295
0.00313185
0.00314539
0.00312914
0.00313182
0.00314525
0.00312879
0.00312916
0.00314295
0.0031454
0.00313185
0.00314539
0.00313182
0.00312914
0.00314544
0.00314544
0.00312967
0.00312901
0.00312901
0.00308494
0.00310102
0.00310112
0.00308483
0.00310096
0.00308474
0.00308494
0.00310103
0.00310112
0.00308483
0.0030987
0.0030987
0.0030987
0.00306589
0.00306589
0.00306589
0.00306589
0.00308511
0.0031011
0.00309868
0.00308773
0.00310109
0.00308508
0.00308771
0.00310096
0.00308474
0.00308511
0.00309868
0.0031011
0.00308773
0.00310109
0.00308771
0.00308508
0.00310114
0.00310114
0.0030856
0.00308494
0.00308494
0.00304144
0.00305732
0.00305742
0.00304132
0.00305726
0.00304124
0.00304144
0.00305732
0.00305742
0.00304132
0.00305502
0.00305502
0.00305502
0.0030226
0.0030226
0.0030226
0.0030226
0.00304163
0.00305739
0.00305501
0.00304419
0.0030574
0.00304158
0.00304417
0.00305726
0.00304124
0.00304163
0.00305501
0.00305739
0.00304419
0.0030574
0.00304417
0.00304158
0.00305742
0.00305742
0.00304208
0.00304143
0.00304143
0.00299843
0.00301414
0.00301423
0.00299831
0.00301408
0.00299823
0.00299843
0.00301414
0.00301424
0.00299831
0.00301185
0.00301185
0.00301185
0.00297978
0.00297978
0.00297978
0.00297978
0.00299864
0.00301419
0.00301185
0.00300114
0.00301422
0.00299857
0.00300113
0.00301408
0.00299823
0.00299864
0.00301185
0.00301419
0.00300114
0.00301422
0.00300113
0.00299857
0.00301423
0.00301423
0.00299905
0.00299841
0.00299841
0.00295587
0.00297141
0.00297151
0.00295575
0.00297136
0.00295567
0.00295587
0.00297141
0.00297151
0.00295575
0.00296915
0.00296915
0.00296915
0.0029374
0.0029374
0.0029374
0.0029374
0.0029561
0.00297146
0.00296915
0.00295855
0.0029715
0.002956
0.00295854
0.00297136
0.00295567
0.0029561
0.00296915
0.00297146
0.00295855
0.0029715
0.00295854
0.002956
0.00297149
0.00297149
0.0029565
0.00295583
0.00295583
0.00291373
0.00292912
0.00292922
0.0029136
0.00292907
0.00291354
0.00291373
0.00292912
0.00292922
0.0029136
0.00292688
0.00292688
0.00292688
0.00289544
0.00289544
0.00289544
0.00289544
0.00291398
0.00292916
0.00292688
0.00291638
0.00292921
0.00291385
0.00291637
0.00292907
0.00291354
0.00291398
0.00292688
0.00292916
0.00291638
0.00292921
0.00291637
0.00291385
0.00292919
0.00292919
0.00291437
0.00291368
0.00291368
0.00287199
0.00288723
0.00288733
0.00287186
0.00288718
0.0028718
0.00287199
0.00288723
0.00288733
0.00287186
0.00288501
0.00288501
0.00288501
0.00285386
0.00285386
0.00285386
0.00285386
0.00287225
0.00288726
0.00288501
0.00287461
0.00288733
0.0028721
0.00287461
0.00288719
0.0028718
0.00287225
0.00288501
0.00288726
0.00287461
0.00288733
0.00287461
0.0028721
0.00288729
0.00288729
0.00287264
0.00287193
0.00287193
0.00283062
0.00284573
0.00284583
0.00283049
0.00284569
0.00283043
0.00283062
0.00284573
0.00284583
0.00283049
0.00284352
0.00284352
0.00284352
0.00281264
0.00281264
0.00281264
0.00281264
0.0028309
0.00284575
0.00284353
0.00283321
0.00284583
0.00283073
0.00283321
0.00284569
0.00283043
0.0028309
0.00284353
0.00284575
0.00283321
0.00284583
0.00283321
0.00283072
0.00284578
0.00284578
0.00283128
0.00283055
0.00283055
0.0027896
0.00280459
0.00280469
0.00278947
0.00280455
0.00278942
0.0027896
0.00280459
0.00280469
0.00278947
0.00280239
0.00280239
0.00280239
0.00277176
0.00277176
0.00277176
0.00277176
0.00278989
0.0028046
0.00280239
0.00279216
0.00280469
0.0027897
0.00279216
0.00280455
0.00278942
0.00278989
0.00280239
0.0028046
0.00279216
0.00280469
0.00279216
0.0027897
0.00280463
0.00280463
0.00279026
0.00278952
0.00278952
0.0027489
0.00276379
0.00276388
0.00274877
0.00276375
0.00274874
0.0027489
0.00276378
0.00276388
0.00274878
0.00276159
0.00276159
0.00276159
0.00273119
0.00273119
0.00273119
0.00273119
0.0027492
0.00276379
0.00276159
0.00275144
0.00276387
0.002749
0.00275144
0.00276375
0.00274873
0.0027492
0.00276159
0.00276379
0.00275144
0.00276387
0.00275144
0.002749
0.00276382
0.00276382
0.00274957
0.00274883
0.00274883
0.00270851
0.00272329
0.00272337
0.00270839
0.00272325
0.00270836
0.0027085
0.00272329
0.00272337
0.00270839
0.0027211
0.0027211
0.0027211
0.00269092
0.00269092
0.00269092
0.00269092
0.0027088
0.00272329
0.0027211
0.00271102
0.00272337
0.0027086
0.00271103
0.00272326
0.00270835
0.0027088
0.0027211
0.00272329
0.00271102
0.00272337
0.00271103
0.0027086
0.00272332
0.00272332
0.00270918
0.00270843
0.00270843
0.00266839
0.00268307
0.00268316
0.00266827
0.00268304
0.00266824
0.00266838
0.00268307
0.00268316
0.00266827
0.00268089
0.00268089
0.00268089
0.00265092
0.00265092
0.00265092
0.00265092
0.00266868
0.00268307
0.0026809
0.00267089
0.00268315
0.00266848
0.00267089
0.00268305
0.00266823
0.00266868
0.0026809
0.00268307
0.00267089
0.00268315
0.00267089
0.00266848
0.0026831
0.0026831
0.00266907
0.00266831
0.00266831
0.00262853
0.00264313
0.00264321
0.00262842
0.00264311
0.00262838
0.00262853
0.00264313
0.00264321
0.00262842
0.00264096
0.00264096
0.00264096
0.00261117
0.00261117
0.00261117
0.00261117
0.00262882
0.00264312
0.00264096
0.00263101
0.00264319
0.00262861
0.00263102
0.00264311
0.00262838
0.00262882
0.00264096
0.00264312
0.00263102
0.00264319
0.00263102
0.00262861
0.00264316
0.00264316
0.00262922
0.00262846
0.00262846
0.00258891
0.00260344
0.00260351
0.00258881
0.00260342
0.00258878
0.00258891
0.00260344
0.00260351
0.00258881
0.00260127
0.00260127
0.00260127
0.00257167
0.00257167
0.00257167
0.00257167
0.0025892
0.00260342
0.00260127
0.00259139
0.00260348
0.002589
0.00259139
0.00260342
0.00258878
0.0025892
0.00260127
0.00260342
0.00259139
0.00260348
0.00259139
0.002589
0.00260346
0.00260346
0.00258962
0.00258884
0.00258884
0.00254953
0.00256398
0.00256404
0.00254943
0.00256396
0.0025494
0.00254953
0.00256398
0.00256404
0.00254943
0.00256183
0.00256183
0.00256183
0.00253239
0.00253239
0.00253239
0.00253239
0.00254981
0.00256396
0.00256182
0.002552
0.00256401
0.00254961
0.002552
0.00256396
0.0025494
0.0025498
0.00256182
0.00256396
0.002552
0.00256401
0.002552
0.00254961
0.002564
0.002564
0.00255024
0.00254946
0.00254946
0.00251036
0.00252474
0.0025248
0.00251027
0.00252473
0.00251025
0.00251036
0.00252474
0.0025248
0.00251027
0.0025226
0.0025226
0.0025226
0.00249333
0.00249333
0.00249333
0.00249333
0.00251063
0.00252472
0.0025226
0.00251283
0.00252476
0.00251044
0.00251283
0.00252473
0.00251025
0.00251062
0.0025226
0.00252472
0.00251283
0.00252476
0.00251283
0.00251045
0.00252476
0.00252476
0.00251109
0.0025103
0.0025103
0.00247141
0.00248572
0.00248578
0.00247133
0.00248571
0.0024713
0.00247141
0.00248572
0.00248578
0.00247133
0.0024836
0.0024836
0.0024836
0.00245448
0.00245448
0.00245448
0.00245448
0.00247166
0.0024857
0.00248359
0.00247387
0.00248573
0.00247148
0.00247387
0.00248571
0.0024713
0.00247166
0.00248359
0.0024857
0.00247387
0.00248573
0.00247387
0.00247149
0.00248574
0.00248574
0.00247215
0.00247135
0.00247135
0.00243266
0.00244691
0.00244696
0.00243259
0.0024469
0.00243256
0.00243266
0.00244691
0.00244696
0.00243258
0.0024448
0.0024448
0.0024448
0.00241583
0.00241583
0.00241583
0.00241583
0.0024329
0.00244688
0.00244479
0.00243512
0.0024469
0.00243273
0.00243512
0.0024469
0.00243256
0.0024329
0.00244479
0.00244688
0.00243512
0.0024469
0.00243512
0.00243273
0.00244692
0.00244692
0.0024334
0.00243261
0.0024326
0.00239411
0.00240829
0.00240834
0.00239404
0.00240828
0.00239402
0.00239411
0.00240829
0.00240834
0.00239404
0.0024062
0.0024062
0.0024062
0.00237737
0.00237737
0.00237737
0.00237737
0.00239434
0.00240826
0.00240618
0.00239656
0.00240828
0.00239417
0.00239656
0.00240828
0.00239402
0.00239434
0.00240618
0.00240826
0.00239656
0.00240828
0.00239656
0.00239417
0.00240831
0.00240831
0.00239485
0.00239406
0.00239406
0.00235575
0.00236987
0.00236991
0.00235568
0.00236986
0.00235566
0.00235575
0.00236987
0.00236991
0.00235568
0.00236779
0.00236779
0.00236779
0.0023391
0.0023391
0.0023391
0.0023391
0.00235597
0.00236984
0.00236777
0.0023582
0.00236985
0.00235581
0.0023582
0.00236986
0.00235566
0.00235597
0.00236777
0.00236984
0.0023582
0.00236985
0.0023582
0.00235581
0.00236988
0.00236988
0.00235649
0.0023557
0.0023557
0.00231757
0.00233163
0.00233167
0.00231751
0.00233162
0.00231749
0.00231757
0.00233163
0.00233167
0.00231751
0.00232956
0.00232956
0.00232956
0.00230101
0.00230101
0.00230101
0.00230101
0.00231779
0.0023316
0.00232955
0.00232001
0.00233161
0.00231763
0.00232002
0.00233162
0.00231749
0.00231778
0.00232955
0.0023316
0.00232001
0.00233161
0.00232002
0.00231763
0.00233165
0.00233165
0.00231832
0.00231752
0.00231752
0.00227958
0.00229357
0.00229361
0.00227951
0.00229357
0.00227949
0.00227957
0.00229357
0.00229361
0.00227951
0.00229152
0.00229152
0.00229152
0.0022631
0.0022631
0.0022631
0.0022631
0.00227978
0.00229354
0.0022915
0.00228201
0.00229355
0.00227963
0.00228202
0.00229357
0.00227949
0.00227978
0.0022915
0.00229354
0.00228201
0.00229355
0.00228202
0.00227963
0.00229359
0.00229359
0.00228032
0.00227953
0.00227953
0.00224175
0.00225569
0.00225572
0.00224169
0.00225568
0.00224167
0.00224175
0.00225569
0.00225572
0.00224169
0.00225364
0.00225364
0.00225364
0.00222535
0.00222535
0.00222535
0.00222535
0.00224195
0.00225566
0.00225363
0.00224418
0.00225566
0.0022418
0.00224419
0.00225568
0.00224167
0.00224195
0.00225363
0.00225566
0.00224418
0.00225566
0.00224419
0.0022418
0.0022557
0.0022557
0.00224249
0.0022417
0.0022417
0.00220409
0.00221797
0.00221801
0.00220403
0.00221797
0.00220401
0.00220409
0.00221797
0.00221801
0.00220403
0.00221594
0.00221594
0.00221594
0.00218777
0.00218777
0.00218777
0.00218777
0.00220428
0.00221794
0.00221593
0.00220651
0.00221794
0.00220414
0.00220653
0.00221797
0.00220401
0.00220428
0.00221593
0.00221794
0.00220651
0.00221794
0.00220653
0.00220414
0.00221799
0.00221799
0.00220482
0.00220404
0.00220404
0.00216659
0.00218042
0.00218045
0.00216653
0.00218042
0.00216652
0.00216659
0.00218042
0.00218045
0.00216653
0.0021784
0.0021784
0.0021784
0.00215034
0.00215034
0.00215034
0.00215034
0.00216677
0.00218039
0.00217838
0.00216901
0.00218039
0.00216664
0.00216902
0.00218042
0.00216652
0.00216677
0.00217838
0.00218039
0.00216901
0.00218039
0.00216902
0.00216664
0.00218043
0.00218043
0.00216732
0.00216655
0.00216655
0.00212924
0.00214302
0.00214305
0.00212919
0.00214302
0.00212918
0.00212924
0.00214302
0.00214305
0.00212919
0.00214101
0.00214101
0.00214101
0.00211307
0.00211307
0.00211307
0.00211307
0.00212942