/*--------------------------------*- C++ -*----------------------------------*\
| =========                 |                                                 |
| \\      /  F ield         | OpenFOAM: The Open Source CFD Toolbox           |
|  \\    /   O peration     | Version:  v2012                                 |
|   \\  /    A nd           | Website:  www.openfoam.com                      |
|    \\/     M anipulation  |                                                 |
\*---------------------------------------------------------------------------*/
FoamFile
{
    version     2.0;
    format      ascii;
    class       volScalarField;
    location    "70.5";
    object      p;
}
// * * * * * * * * * * * * * * * * * * * * * * * * * * * * * * * * * * * * * //

dimensions      [0 2 -2 0 0 0 0];


internalField   nonuniform List<scalar> 
247104
(
9.77653e-07
9.7762e-07
9.77609e-07
9.77566e-07
9.7754e-07
9.77572e-07
9.77611e-07
9.77609e-07
9.7762e-07
9.77595e-07
9.77427e-07
9.77265e-07
9.77208e-07
9.77281e-07
9.77451e-07
9.77608e-07
9.77609e-07
9.77427e-07
9.77135e-07
9.76913e-07
9.76839e-07
9.76933e-07
9.7717e-07
9.77461e-07
9.7761e-07
9.77566e-07
9.77265e-07
9.76913e-07
9.76662e-07
9.7658e-07
9.76685e-07
9.76953e-07
9.7731e-07
9.77587e-07
9.77653e-07
9.7754e-07
9.77208e-07
9.76839e-07
9.7658e-07
9.76496e-07
9.76603e-07
9.76881e-07
9.77255e-07
9.77567e-07
9.77572e-07
9.77281e-07
9.76933e-07
9.76685e-07
9.76603e-07
9.76707e-07
9.76973e-07
9.77325e-07
9.77591e-07
9.77611e-07
9.77451e-07
9.7717e-07
9.76953e-07
9.76881e-07
9.76973e-07
9.77204e-07
9.77483e-07
9.77609e-07
9.77609e-07
9.77608e-07
9.77461e-07
9.7731e-07
9.77255e-07
9.77325e-07
9.77483e-07
9.77617e-07
9.7761e-07
9.77587e-07
9.77567e-07
9.77591e-07
9.77609e-07
9.64011e-07
9.6394e-07
9.63698e-07
9.62943e-07
9.62895e-07
9.62866e-07
9.62934e-07
9.63766e-07
9.63781e-07
9.63697e-07
9.62583e-07
9.61232e-07
9.61238e-07
9.61238e-07
9.61232e-07
9.62757e-07
9.63146e-07
9.62942e-07
9.61232e-07
9.61237e-07
9.61252e-07
9.61252e-07
9.61237e-07
9.61232e-07
9.63237e-07
9.64019e-07
9.6401e-07
9.62895e-07
9.61238e-07
9.61252e-07
9.61267e-07
9.61267e-07
9.61252e-07
9.61238e-07
9.63269e-07
9.63935e-07
9.63939e-07
9.62865e-07
9.61238e-07
9.61252e-07
9.61267e-07
9.61267e-07
9.61252e-07
9.61238e-07
9.63252e-07
9.63291e-07
9.62934e-07
9.61232e-07
9.61237e-07
9.61252e-07
9.61252e-07
9.61236e-07
9.61232e-07
9.63258e-07
9.64089e-07
9.63766e-07
9.62757e-07
9.61232e-07
9.61238e-07
9.61238e-07
9.61232e-07
9.6304e-07
9.63224e-07
9.63973e-07
9.63782e-07
9.63146e-07
9.63237e-07
9.63269e-07
9.63251e-07
9.63257e-07
9.63224e-07
9.63901e-07
9.64019e-07
9.63935e-07
9.6329e-07
9.64088e-07
9.63972e-07
9.53661e-07
9.53622e-07
9.53472e-07
9.52675e-07
9.52611e-07
9.52581e-07
9.52665e-07
9.53541e-07
9.53576e-07
9.53471e-07
9.52305e-07
9.50911e-07
9.50914e-07
9.50914e-07
9.50911e-07
9.52463e-07
9.52885e-07
9.52675e-07
9.50911e-07
9.50913e-07
9.50921e-07
9.50921e-07
9.50912e-07
9.50911e-07
9.52943e-07
9.53756e-07
9.53661e-07
9.52611e-07
9.50914e-07
9.50921e-07
9.50928e-07
9.50928e-07
9.50921e-07
9.50914e-07
9.52956e-07
9.53638e-07
9.53622e-07
9.52581e-07
9.50914e-07
9.50921e-07
9.50928e-07
9.50928e-07
9.50921e-07
9.50914e-07
9.52935e-07
9.53011e-07
9.52665e-07
9.50911e-07
9.50913e-07
9.50921e-07
9.50921e-07
9.50912e-07
9.50911e-07
9.52956e-07
9.53793e-07
9.53541e-07
9.52463e-07
9.50911e-07
9.50914e-07
9.50914e-07
9.50911e-07
9.5273e-07
9.52956e-07
9.53739e-07
9.53576e-07
9.52885e-07
9.52943e-07
9.52956e-07
9.52935e-07
9.52956e-07
9.52956e-07
9.53696e-07
9.53756e-07
9.53638e-07
9.53011e-07
9.53793e-07
9.53739e-07
9.43374e-07
9.43335e-07
9.43183e-07
9.42385e-07
9.42321e-07
9.42291e-07
9.42376e-07
9.43254e-07
9.43288e-07
9.43183e-07
9.42016e-07
9.40613e-07
9.40615e-07
9.40615e-07
9.40613e-07
9.42171e-07
9.42595e-07
9.42385e-07
9.40613e-07
9.40615e-07
9.40618e-07
9.40618e-07
9.40615e-07
9.40613e-07
9.42651e-07
9.43469e-07
9.43374e-07
9.4232e-07
9.40615e-07
9.40618e-07
9.40621e-07
9.40621e-07
9.40618e-07
9.40615e-07
9.42661e-07
9.43351e-07
9.43335e-07
9.42291e-07
9.40615e-07
9.40618e-07
9.40621e-07
9.40621e-07
9.40618e-07
9.40615e-07
9.4264e-07
9.42723e-07
9.42376e-07
9.40613e-07
9.40615e-07
9.40618e-07
9.40618e-07
9.40615e-07
9.40613e-07
9.42664e-07
9.43506e-07
9.43253e-07
9.42171e-07
9.40613e-07
9.40615e-07
9.40615e-07
9.40613e-07
9.42436e-07
9.42666e-07
9.43452e-07
9.43288e-07
9.42595e-07
9.42651e-07
9.42661e-07
9.4264e-07
9.42664e-07
9.42666e-07
9.43409e-07
9.43469e-07
9.43351e-07
9.42723e-07
9.43506e-07
9.43452e-07
9.3308e-07
9.33041e-07
9.32889e-07
9.32091e-07
9.32026e-07
9.31996e-07
9.32082e-07
9.3296e-07
9.32994e-07
9.32889e-07
9.31722e-07
9.30318e-07
9.30318e-07
9.30318e-07
9.30318e-07
9.31877e-07
9.32301e-07
9.32091e-07
9.30318e-07
9.30319e-07
9.30321e-07
9.3032e-07
9.30319e-07
9.30318e-07
9.32356e-07
9.33175e-07
9.3308e-07
9.32026e-07
9.30318e-07
9.3032e-07
9.30322e-07
9.30322e-07
9.3032e-07
9.30318e-07
9.32366e-07
9.33057e-07
9.33041e-07
9.31996e-07
9.30318e-07
9.3032e-07
9.30322e-07
9.30322e-07
9.3032e-07
9.30318e-07
9.32345e-07
9.32429e-07
9.32082e-07
9.30318e-07
9.30319e-07
9.3032e-07
9.3032e-07
9.30319e-07
9.30318e-07
9.32369e-07
9.33212e-07
9.3296e-07
9.31876e-07
9.30318e-07
9.30318e-07
9.30318e-07
9.30318e-07
9.32141e-07
9.32372e-07
9.33159e-07
9.32994e-07
9.32301e-07
9.32356e-07
9.32366e-07
9.32345e-07
9.32369e-07
9.32372e-07
9.33116e-07
9.33175e-07
9.33057e-07
9.32429e-07
9.33212e-07
9.33159e-07
9.22786e-07
9.22747e-07
9.22595e-07
9.21797e-07
9.21732e-07
9.21702e-07
9.21787e-07
9.22666e-07
9.227e-07
9.22595e-07
9.21427e-07
9.20023e-07
9.20023e-07
9.20023e-07
9.20023e-07
9.21582e-07
9.22007e-07
9.21797e-07
9.20023e-07
9.20024e-07
9.20025e-07
9.20025e-07
9.20024e-07
9.20023e-07
9.22062e-07
9.22881e-07
9.22786e-07
9.21732e-07
9.20023e-07
9.20025e-07
9.20025e-07
9.20025e-07
9.20025e-07
9.20023e-07
9.22071e-07
9.22763e-07
9.22747e-07
9.21702e-07
9.20024e-07
9.20025e-07
9.20025e-07
9.20025e-07
9.20025e-07
9.20023e-07
9.2205e-07
9.22134e-07
9.21787e-07
9.20023e-07
9.20024e-07
9.20025e-07
9.20025e-07
9.20024e-07
9.20023e-07
9.22075e-07
9.22918e-07
9.22666e-07
9.21582e-07
9.20023e-07
9.20023e-07
9.20023e-07
9.20023e-07
9.21847e-07
9.22078e-07
9.22865e-07
9.227e-07
9.22007e-07
9.22062e-07
9.22071e-07
9.2205e-07
9.22075e-07
9.22078e-07
9.22822e-07
9.22881e-07
9.22763e-07
9.22134e-07
9.22918e-07
9.22865e-07
9.12491e-07
9.12453e-07
9.12301e-07
9.11503e-07
9.11437e-07
9.11408e-07
9.11493e-07
9.12371e-07
9.12406e-07
9.12301e-07
9.11133e-07
9.09729e-07
9.09729e-07
9.09729e-07
9.09729e-07
9.11288e-07
9.11713e-07
9.11503e-07
9.09729e-07
9.0973e-07
9.0973e-07
9.0973e-07
9.0973e-07
9.09729e-07
9.11768e-07
9.12587e-07
9.12491e-07
9.11437e-07
9.09729e-07
9.0973e-07
9.0973e-07
9.0973e-07
9.0973e-07
9.09729e-07
9.11777e-07
9.12468e-07
9.12453e-07
9.11408e-07
9.09729e-07
9.0973e-07
9.0973e-07
9.0973e-07
9.0973e-07
9.09729e-07
9.11756e-07
9.1184e-07
9.11493e-07
9.09729e-07
9.0973e-07
9.0973e-07
9.0973e-07
9.0973e-07
9.09729e-07
9.11781e-07
9.12624e-07
9.12371e-07
9.11288e-07
9.09729e-07
9.09729e-07
9.09729e-07
9.09729e-07
9.11552e-07
9.11784e-07
9.12571e-07
9.12406e-07
9.11713e-07
9.11768e-07
9.11777e-07
9.11756e-07
9.11781e-07
9.11784e-07
9.12528e-07
9.12587e-07
9.12468e-07
9.1184e-07
9.12624e-07
9.12571e-07
9.02197e-07
9.02159e-07
9.02006e-07
9.01209e-07
9.01143e-07
9.01114e-07
9.01199e-07
9.02077e-07
9.02112e-07
9.02007e-07
9.00839e-07
8.99434e-07
8.99435e-07
8.99435e-07
8.99434e-07
9.00994e-07
9.01419e-07
9.01209e-07
8.99434e-07
8.99436e-07
8.99435e-07
8.99435e-07
8.99436e-07
8.99434e-07
9.01474e-07
9.02293e-07
9.02197e-07
9.01143e-07
8.99435e-07
8.99435e-07
8.99435e-07
8.99435e-07
8.99435e-07
8.99435e-07
9.01483e-07
9.02174e-07
9.02159e-07
9.01113e-07
8.99435e-07
8.99435e-07
8.99435e-07
8.99435e-07
8.99435e-07
8.99435e-07
9.01462e-07
9.01546e-07
9.01199e-07
8.99434e-07
8.99436e-07
8.99435e-07
8.99435e-07
8.99436e-07
8.99434e-07
9.01487e-07
9.0233e-07
9.02077e-07
9.00994e-07
8.99434e-07
8.99435e-07
8.99435e-07
8.99434e-07
9.01258e-07
9.0149e-07
9.02277e-07
9.02112e-07
9.01418e-07
9.01474e-07
9.01483e-07
9.01462e-07
9.01487e-07
9.0149e-07
9.02234e-07
9.02293e-07
9.02174e-07
9.01546e-07
9.0233e-07
9.02276e-07
8.91903e-07
8.91864e-07
8.91712e-07
8.90914e-07
8.90849e-07
8.90819e-07
8.90905e-07
8.91783e-07
8.91818e-07
8.91712e-07
8.90545e-07
8.8914e-07
8.8914e-07
8.8914e-07
8.8914e-07
8.907e-07
8.91124e-07
8.90914e-07
8.8914e-07
8.89141e-07
8.89141e-07
8.89141e-07
8.89141e-07
8.8914e-07
8.9118e-07
8.91999e-07
8.91903e-07
8.90849e-07
8.8914e-07
8.89141e-07
8.89141e-07
8.89141e-07
8.89141e-07
8.8914e-07
8.91188e-07
8.9188e-07
8.91864e-07
8.90819e-07
8.8914e-07
8.89141e-07
8.89141e-07
8.89141e-07
8.89141e-07
8.8914e-07
8.91167e-07
8.91252e-07
8.90905e-07
8.8914e-07
8.89141e-07
8.89141e-07
8.89141e-07
8.89141e-07
8.8914e-07
8.91192e-07
8.92036e-07
8.91783e-07
8.907e-07
8.8914e-07
8.8914e-07
8.8914e-07
8.8914e-07
8.90964e-07
8.91195e-07
8.91982e-07
8.91818e-07
8.91124e-07
8.91179e-07
8.91188e-07
8.91167e-07
8.91192e-07
8.91196e-07
8.91939e-07
8.91999e-07
8.9188e-07
8.91252e-07
8.92036e-07
8.91982e-07
8.81609e-07
8.8157e-07
8.81418e-07
8.8062e-07
8.80555e-07
8.80525e-07
8.80611e-07
8.81489e-07
8.81523e-07
8.81418e-07
8.80251e-07
8.78846e-07
8.78846e-07
8.78846e-07
8.78846e-07
8.80405e-07
8.8083e-07
8.8062e-07
8.78846e-07
8.78847e-07
8.78847e-07
8.78847e-07
8.78847e-07
8.78846e-07
8.80885e-07
8.81705e-07
8.81609e-07
8.80555e-07
8.78846e-07
8.78847e-07
8.78846e-07
8.78846e-07
8.78847e-07
8.78846e-07
8.80894e-07
8.81586e-07
8.8157e-07
8.80525e-07
8.78846e-07
8.78847e-07
8.78846e-07
8.78846e-07
8.78847e-07
8.78846e-07
8.80873e-07
8.80958e-07
8.80611e-07
8.78846e-07
8.78847e-07
8.78847e-07
8.78847e-07
8.78847e-07
8.78846e-07
8.80898e-07
8.81741e-07
8.81489e-07
8.80405e-07
8.78846e-07
8.78846e-07
8.78846e-07
8.78846e-07
8.8067e-07
8.80901e-07
8.81688e-07
8.81523e-07
8.8083e-07
8.80885e-07
8.80894e-07
8.80873e-07
8.80898e-07
8.80901e-07
8.81645e-07
8.81704e-07
8.81586e-07
8.80958e-07
8.81741e-07
8.81688e-07
8.71315e-07
8.71276e-07
8.71124e-07
8.70326e-07
8.70261e-07
8.70231e-07
8.70316e-07
8.71195e-07
8.71229e-07
8.71124e-07
8.69956e-07
8.68552e-07
8.68552e-07
8.68552e-07
8.68552e-07
8.70111e-07
8.70536e-07
8.70326e-07
8.68552e-07
8.68553e-07
8.68552e-07
8.68552e-07
8.68553e-07
8.68552e-07
8.70591e-07
8.7141e-07
8.71315e-07
8.7026e-07
8.68552e-07
8.68552e-07
8.68552e-07
8.68552e-07
8.68552e-07
8.68552e-07
8.706e-07
8.71292e-07
8.71276e-07
8.70231e-07
8.68552e-07
8.68552e-07
8.68552e-07
8.68552e-07
8.68552e-07
8.68552e-07
8.70579e-07
8.70663e-07
8.70316e-07
8.68552e-07
8.68553e-07
8.68552e-07
8.68552e-07
8.68553e-07
8.68552e-07
8.70604e-07
8.71447e-07
8.71195e-07
8.70111e-07
8.68552e-07
8.68552e-07
8.68552e-07
8.68552e-07
8.70376e-07
8.70607e-07
8.71394e-07
8.71229e-07
8.70536e-07
8.70591e-07
8.706e-07
8.70579e-07
8.70604e-07
8.70607e-07
8.71351e-07
8.7141e-07
8.71292e-07
8.70663e-07
8.71447e-07
8.71394e-07
8.6102e-07
8.60981e-07
8.60829e-07
8.60032e-07
8.59966e-07
8.59936e-07
8.60022e-07
8.609e-07
8.60935e-07
8.60829e-07
8.59662e-07
8.58257e-07
8.58257e-07
8.58257e-07
8.58257e-07
8.59817e-07
8.60241e-07
8.60032e-07
8.58257e-07
8.58259e-07
8.58258e-07
8.58258e-07
8.58259e-07
8.58257e-07
8.60297e-07
8.61116e-07
8.6102e-07
8.59966e-07
8.58257e-07
8.58258e-07
8.58258e-07
8.58258e-07
8.58258e-07
8.58257e-07
8.60306e-07
8.60997e-07
8.60981e-07
8.59936e-07
8.58257e-07
8.58258e-07
8.58258e-07
8.58258e-07
8.58258e-07
8.58257e-07
8.60285e-07
8.60369e-07
8.60022e-07
8.58257e-07
8.58259e-07
8.58258e-07
8.58258e-07
8.58259e-07
8.58257e-07
8.6031e-07
8.61153e-07
8.609e-07
8.59817e-07
8.58257e-07
8.58257e-07
8.58257e-07
8.58257e-07
8.60081e-07
8.60313e-07
8.61099e-07
8.60935e-07
8.60241e-07
8.60297e-07
8.60306e-07
8.60285e-07
8.60309e-07
8.60313e-07
8.61057e-07
8.61116e-07
8.60997e-07
8.60369e-07
8.61153e-07
8.61099e-07
8.50726e-07
8.50687e-07
8.50535e-07
8.49737e-07
8.49672e-07
8.49642e-07
8.49728e-07
8.50606e-07
8.5064e-07
8.50535e-07
8.49368e-07
8.47963e-07
8.47963e-07
8.47963e-07
8.47963e-07
8.49523e-07
8.49947e-07
8.49737e-07
8.47963e-07
8.47964e-07
8.47964e-07
8.47964e-07
8.47964e-07
8.47963e-07
8.50002e-07
8.50822e-07
8.50726e-07
8.49672e-07
8.47963e-07
8.47964e-07
8.47964e-07
8.47964e-07
8.47964e-07
8.47963e-07
8.50011e-07
8.50703e-07
8.50687e-07
8.49642e-07
8.47963e-07
8.47964e-07
8.47964e-07
8.47964e-07
8.47964e-07
8.47963e-07
8.4999e-07
8.50075e-07
8.49728e-07
8.47963e-07
8.47964e-07
8.47964e-07
8.47964e-07
8.47964e-07
8.47963e-07
8.50015e-07
8.50859e-07
8.50606e-07
8.49523e-07
8.47963e-07
8.47963e-07
8.47963e-07
8.47963e-07
8.49787e-07
8.50018e-07
8.50805e-07
8.5064e-07
8.49947e-07
8.50002e-07
8.50011e-07
8.4999e-07
8.50015e-07
8.50019e-07
8.50762e-07
8.50822e-07
8.50703e-07
8.50075e-07
8.50859e-07
8.50805e-07
8.40432e-07
8.40393e-07
8.40241e-07
8.39443e-07
8.39378e-07
8.39348e-07
8.39434e-07
8.40312e-07
8.40346e-07
8.40241e-07
8.39074e-07
8.37669e-07
8.37669e-07
8.37669e-07
8.37669e-07
8.39228e-07
8.39653e-07
8.39443e-07
8.37669e-07
8.3767e-07
8.3767e-07
8.3767e-07
8.3767e-07
8.37669e-07
8.39708e-07
8.40527e-07
8.40432e-07
8.39378e-07
8.37669e-07
8.3767e-07
8.37669e-07
8.37669e-07
8.3767e-07
8.37669e-07
8.39717e-07
8.40409e-07
8.40393e-07
8.39348e-07
8.37669e-07
8.3767e-07
8.37669e-07
8.37669e-07
8.3767e-07
8.37669e-07
8.39696e-07
8.39781e-07
8.39433e-07
8.37669e-07
8.3767e-07
8.3767e-07
8.3767e-07
8.3767e-07
8.37669e-07
8.39721e-07
8.40564e-07
8.40312e-07
8.39228e-07
8.37669e-07
8.37669e-07
8.37669e-07
8.37669e-07
8.39493e-07
8.39724e-07
8.40511e-07
8.40346e-07
8.39653e-07
8.39708e-07
8.39717e-07
8.39696e-07
8.39721e-07
8.39724e-07
8.40468e-07
8.40527e-07
8.40409e-07
8.39781e-07
8.40564e-07
8.40511e-07
8.30138e-07
8.30099e-07
8.29947e-07
8.29149e-07
8.29084e-07
8.29054e-07
8.29139e-07
8.30018e-07
8.30052e-07
8.29947e-07
8.28779e-07
8.27375e-07
8.27375e-07
8.27375e-07
8.27375e-07
8.28934e-07
8.29359e-07
8.29149e-07
8.27375e-07
8.27376e-07
8.27375e-07
8.27375e-07
8.27376e-07
8.27375e-07
8.29414e-07
8.30233e-07
8.30138e-07
8.29084e-07
8.27375e-07
8.27375e-07
8.27375e-07
8.27375e-07
8.27375e-07
8.27375e-07
8.29423e-07
8.30115e-07
8.30099e-07
8.29054e-07
8.27375e-07
8.27375e-07
8.27375e-07
8.27375e-07
8.27375e-07
8.27375e-07
8.29402e-07
8.29487e-07
8.29139e-07
8.27375e-07
8.27376e-07
8.27375e-07
8.27375e-07
8.27376e-07
8.27375e-07
8.29427e-07
8.3027e-07
8.30018e-07
8.28934e-07
8.27375e-07
8.27375e-07
8.27375e-07
8.27375e-07
8.29199e-07
8.2943e-07
8.30217e-07
8.30052e-07
8.29359e-07
8.29414e-07
8.29423e-07
8.29402e-07
8.29427e-07
8.2943e-07
8.30174e-07
8.30233e-07
8.30115e-07
8.29487e-07
8.3027e-07
8.30217e-07
8.19844e-07
8.19805e-07
8.19653e-07
8.18855e-07
8.18789e-07
8.1876e-07
8.18845e-07
8.19723e-07
8.19758e-07
8.19653e-07
8.18485e-07
8.1708e-07
8.17081e-07
8.17081e-07
8.1708e-07
8.1864e-07
8.19065e-07
8.18855e-07
8.1708e-07
8.17082e-07
8.17081e-07
8.17081e-07
8.17082e-07
8.1708e-07
8.1912e-07
8.19939e-07
8.19844e-07
8.18789e-07
8.17081e-07
8.17081e-07
8.17081e-07
8.17081e-07
8.17081e-07
8.17081e-07
8.19129e-07
8.19821e-07
8.19805e-07
8.1876e-07
8.17081e-07
8.17081e-07
8.17081e-07
8.17081e-07
8.17081e-07
8.17081e-07
8.19108e-07
8.19192e-07
8.18845e-07
8.1708e-07
8.17082e-07
8.17081e-07
8.17081e-07
8.17082e-07
8.1708e-07
8.19133e-07
8.19976e-07
8.19723e-07
8.1864e-07
8.1708e-07
8.17081e-07
8.17081e-07
8.1708e-07
8.18905e-07
8.19136e-07
8.19923e-07
8.19758e-07
8.19065e-07
8.1912e-07
8.19129e-07
8.19108e-07
8.19133e-07
8.19136e-07
8.1988e-07
8.19939e-07
8.1982e-07
8.19192e-07
8.19976e-07
8.19923e-07
8.09549e-07
8.0951e-07
8.09358e-07
8.08561e-07
8.08495e-07
8.08465e-07
8.08551e-07
8.09429e-07
8.09464e-07
8.09358e-07
8.08191e-07
8.06786e-07
8.06787e-07
8.06786e-07
8.06786e-07
8.08346e-07
8.0877e-07
8.08561e-07
8.06786e-07
8.06788e-07
8.06787e-07
8.06787e-07
8.06788e-07
8.06786e-07
8.08826e-07
8.09645e-07
8.09549e-07
8.08495e-07
8.06786e-07
8.06787e-07
8.06787e-07
8.06787e-07
8.06787e-07
8.06786e-07
8.08835e-07
8.09526e-07
8.0951e-07
8.08465e-07
8.06786e-07
8.06787e-07
8.06787e-07
8.06787e-07
8.06787e-07
8.06786e-07
8.08814e-07
8.08898e-07
8.08551e-07
8.06786e-07
8.06788e-07
8.06787e-07
8.06787e-07
8.06788e-07
8.06786e-07
8.08839e-07
8.09682e-07
8.09429e-07
8.08346e-07
8.06786e-07
8.06786e-07
8.06786e-07
8.06786e-07
8.0861e-07
8.08842e-07
8.09628e-07
8.09464e-07
8.0877e-07
8.08826e-07
8.08835e-07
8.08814e-07
8.08839e-07
8.08842e-07
8.09586e-07
8.09645e-07
8.09526e-07
8.08898e-07
8.09682e-07
8.09628e-07
7.99255e-07
7.99216e-07
7.99064e-07
7.98266e-07
7.98201e-07
7.98171e-07
7.98257e-07
7.99135e-07
7.99169e-07
7.99064e-07
7.97897e-07
7.96492e-07
7.96492e-07
7.96492e-07
7.96492e-07
7.98052e-07
7.98476e-07
7.98266e-07
7.96492e-07
7.96493e-07
7.96493e-07
7.96493e-07
7.96493e-07
7.96492e-07
7.98531e-07
7.99351e-07
7.99255e-07
7.98201e-07
7.96492e-07
7.96493e-07
7.96492e-07
7.96492e-07
7.96493e-07
7.96492e-07
7.9854e-07
7.99232e-07
7.99216e-07
7.98171e-07
7.96492e-07
7.96493e-07
7.96492e-07
7.96492e-07
7.96493e-07
7.96492e-07
7.98519e-07
7.98604e-07
7.98257e-07
7.96492e-07
7.96493e-07
7.96493e-07
7.96493e-07
7.96493e-07
7.96492e-07
7.98544e-07
7.99387e-07
7.99135e-07
7.98052e-07
7.96492e-07
7.96492e-07
7.96492e-07
7.96492e-07
7.98316e-07
7.98547e-07
7.99334e-07
7.99169e-07
7.98476e-07
7.98531e-07
7.9854e-07
7.98519e-07
7.98544e-07
7.98548e-07
7.99291e-07
7.99351e-07
7.99232e-07
7.98604e-07
7.99387e-07
7.99334e-07
7.88961e-07
7.88922e-07
7.8877e-07
7.87972e-07
7.87907e-07
7.87877e-07
7.87962e-07
7.88841e-07
7.88875e-07
7.8877e-07
7.87602e-07
7.86198e-07
7.86198e-07
7.86198e-07
7.86198e-07
7.87757e-07
7.88182e-07
7.87972e-07
7.86198e-07
7.86199e-07
7.86198e-07
7.86198e-07
7.86199e-07
7.86198e-07
7.88237e-07
7.89056e-07
7.88961e-07
7.87907e-07
7.86198e-07
7.86198e-07
7.86198e-07
7.86198e-07
7.86198e-07
7.86198e-07
7.88246e-07
7.88938e-07
7.88922e-07
7.87877e-07
7.86198e-07
7.86198e-07
7.86198e-07
7.86198e-07
7.86198e-07
7.86198e-07
7.88225e-07
7.8831e-07
7.87962e-07
7.86198e-07
7.86199e-07
7.86198e-07
7.86198e-07
7.86199e-07
7.86198e-07
7.8825e-07
7.89093e-07
7.88841e-07
7.87757e-07
7.86198e-07
7.86198e-07
7.86198e-07
7.86198e-07
7.88022e-07
7.88253e-07
7.8904e-07
7.88875e-07
7.88182e-07
7.88237e-07
7.88246e-07
7.88225e-07
7.8825e-07
7.88253e-07
7.88997e-07
7.89056e-07
7.88938e-07
7.88309e-07
7.89093e-07
7.8904e-07
7.78666e-07
7.78628e-07
7.78476e-07
7.77678e-07
7.77612e-07
7.77583e-07
7.77668e-07
7.78546e-07
7.78581e-07
7.78476e-07
7.77308e-07
7.75903e-07
7.75904e-07
7.75904e-07
7.75903e-07
7.77463e-07
7.77888e-07
7.77678e-07
7.75903e-07
7.75905e-07
7.75904e-07
7.75904e-07
7.75905e-07
7.75903e-07
7.77943e-07
7.78762e-07
7.78666e-07
7.77612e-07
7.75904e-07
7.75904e-07
7.75904e-07
7.75904e-07
7.75904e-07
7.75904e-07
7.77952e-07
7.78644e-07
7.78628e-07
7.77583e-07
7.75904e-07
7.75904e-07
7.75904e-07
7.75904e-07
7.75904e-07
7.75904e-07
7.77931e-07
7.78015e-07
7.77668e-07
7.75903e-07
7.75905e-07
7.75904e-07
7.75904e-07
7.75905e-07
7.75903e-07
7.77956e-07
7.78799e-07
7.78546e-07
7.77463e-07
7.75903e-07
7.75904e-07
7.75904e-07
7.75903e-07
7.77728e-07
7.77959e-07
7.78746e-07
7.78581e-07
7.77888e-07
7.77943e-07
7.77952e-07
7.77931e-07
7.77956e-07
7.77959e-07
7.78703e-07
7.78762e-07
7.78643e-07
7.78015e-07
7.78799e-07
7.78746e-07
7.68372e-07
7.68333e-07
7.68181e-07
7.67383e-07
7.67318e-07
7.67288e-07
7.67374e-07
7.68252e-07
7.68287e-07
7.68181e-07
7.67014e-07
7.65609e-07
7.65609e-07
7.65609e-07
7.65609e-07
7.67169e-07
7.67593e-07
7.67383e-07
7.65609e-07
7.65611e-07
7.6561e-07
7.6561e-07
7.6561e-07
7.65609e-07
7.67649e-07
7.68468e-07
7.68372e-07
7.67318e-07
7.65609e-07
7.6561e-07
7.6561e-07
7.6561e-07
7.6561e-07
7.65609e-07
7.67657e-07
7.68349e-07
7.68333e-07
7.67288e-07
7.65609e-07
7.6561e-07
7.6561e-07
7.6561e-07
7.6561e-07
7.65609e-07
7.67637e-07
7.67721e-07
7.67374e-07
7.65609e-07
7.65611e-07
7.6561e-07
7.6561e-07
7.65611e-07
7.65609e-07
7.67661e-07
7.68505e-07
7.68252e-07
7.67169e-07
7.65609e-07
7.65609e-07
7.65609e-07
7.65609e-07
7.67433e-07
7.67665e-07
7.68451e-07
7.68287e-07
7.67593e-07
7.67649e-07
7.67657e-07
7.67636e-07
7.67661e-07
7.67665e-07
7.68409e-07
7.68468e-07
7.68349e-07
7.67721e-07
7.68505e-07
7.68451e-07
7.58078e-07
7.58039e-07
7.57887e-07
7.57089e-07
7.57024e-07
7.56994e-07
7.5708e-07
7.57958e-07
7.57993e-07
7.57887e-07
7.5672e-07
7.55315e-07
7.55315e-07
7.55315e-07
7.55315e-07
7.56875e-07
7.57299e-07
7.57089e-07
7.55315e-07
7.55316e-07
7.55316e-07
7.55316e-07
7.55316e-07
7.55315e-07
7.57354e-07
7.58174e-07
7.58078e-07
7.57024e-07
7.55315e-07
7.55316e-07
7.55316e-07
7.55316e-07
7.55316e-07
7.55315e-07
7.57363e-07
7.58055e-07
7.58039e-07
7.56994e-07
7.55315e-07
7.55316e-07
7.55316e-07
7.55316e-07
7.55316e-07
7.55315e-07
7.57342e-07
7.57427e-07
7.5708e-07
7.55315e-07
7.55316e-07
7.55316e-07
7.55316e-07
7.55316e-07
7.55315e-07
7.57367e-07
7.5821e-07
7.57958e-07
7.56875e-07
7.55315e-07
7.55315e-07
7.55315e-07
7.55315e-07
7.57139e-07
7.5737e-07
7.58157e-07
7.57992e-07
7.57299e-07
7.57354e-07
7.57363e-07
7.57342e-07
7.57367e-07
7.57371e-07
7.58114e-07
7.58174e-07
7.58055e-07
7.57427e-07
7.5821e-07
7.58157e-07
7.47784e-07
7.47745e-07
7.47593e-07
7.46795e-07
7.4673e-07
7.467e-07
7.46786e-07
7.47664e-07
7.47698e-07
7.47593e-07
7.46426e-07
7.45021e-07
7.45021e-07
7.45021e-07
7.45021e-07
7.4658e-07
7.47005e-07
7.46795e-07
7.45021e-07
7.45022e-07
7.45022e-07
7.45022e-07
7.45022e-07
7.45021e-07
7.4706e-07
7.4788e-07
7.47784e-07
7.4673e-07
7.45021e-07
7.45022e-07
7.45021e-07
7.45021e-07
7.45022e-07
7.45021e-07
7.47069e-07
7.47761e-07
7.47745e-07
7.467e-07
7.45021e-07
7.45022e-07
7.45021e-07
7.45021e-07
7.45022e-07
7.45021e-07
7.47048e-07
7.47133e-07
7.46786e-07
7.45021e-07
7.45022e-07
7.45022e-07
7.45022e-07
7.45022e-07
7.45021e-07
7.47073e-07
7.47916e-07
7.47664e-07
7.4658e-07
7.45021e-07
7.45021e-07
7.45021e-07
7.45021e-07
7.46845e-07
7.47076e-07
7.47863e-07
7.47698e-07
7.47005e-07
7.4706e-07
7.47069e-07
7.47048e-07
7.47073e-07
7.47076e-07
7.4782e-07
7.4788e-07
7.47761e-07
7.47133e-07
7.47916e-07
7.47863e-07
7.3749e-07
7.37451e-07
7.37299e-07
7.36501e-07
7.36436e-07
7.36406e-07
7.36491e-07
7.3737e-07
7.37404e-07
7.37299e-07
7.36131e-07
7.34727e-07
7.34727e-07
7.34727e-07
7.34727e-07
7.36286e-07
7.36711e-07
7.36501e-07
7.34727e-07
7.34728e-07
7.34727e-07
7.34727e-07
7.34728e-07
7.34727e-07
7.36766e-07
7.37585e-07
7.3749e-07
7.36436e-07
7.34727e-07
7.34727e-07
7.34727e-07
7.34727e-07
7.34727e-07
7.34727e-07
7.36775e-07
7.37467e-07
7.37451e-07
7.36406e-07
7.34727e-07
7.34727e-07
7.34727e-07
7.34727e-07
7.34727e-07
7.34727e-07
7.36754e-07
7.36839e-07
7.36491e-07
7.34727e-07
7.34728e-07
7.34727e-07
7.34727e-07
7.34728e-07
7.34727e-07
7.36779e-07
7.37622e-07
7.3737e-07
7.36286e-07
7.34727e-07
7.34727e-07
7.34727e-07
7.34727e-07
7.36551e-07
7.36782e-07
7.37569e-07
7.37404e-07
7.36711e-07
7.36766e-07
7.36775e-07
7.36754e-07
7.36779e-07
7.36782e-07
7.37526e-07
7.37585e-07
7.37467e-07
7.36839e-07
7.37622e-07
7.37569e-07
7.27196e-07
7.27157e-07
7.27005e-07
7.26207e-07
7.26141e-07
7.26112e-07
7.26197e-07
7.27076e-07
7.2711e-07
7.27005e-07
7.25837e-07
7.24432e-07
7.24433e-07
7.24433e-07
7.24432e-07
7.25992e-07
7.26417e-07
7.26207e-07
7.24432e-07
7.24434e-07
7.24433e-07
7.24433e-07
7.24434e-07
7.24432e-07
7.26472e-07
7.27291e-07
7.27196e-07
7.26141e-07
7.24433e-07
7.24433e-07
7.24433e-07
7.24433e-07
7.24433e-07
7.24433e-07
7.26481e-07
7.27173e-07
7.27157e-07
7.26112e-07
7.24433e-07
7.24433e-07
7.24433e-07
7.24433e-07
7.24433e-07
7.24433e-07
7.2646e-07
7.26544e-07
7.26197e-07
7.24432e-07
7.24434e-07
7.24433e-07
7.24433e-07
7.24434e-07
7.24432e-07
7.26485e-07
7.27328e-07
7.27075e-07
7.25992e-07
7.24432e-07
7.24433e-07
7.24433e-07
7.24432e-07
7.26257e-07
7.26488e-07
7.27275e-07
7.2711e-07
7.26417e-07
7.26472e-07
7.26481e-07
7.2646e-07
7.26485e-07
7.26488e-07
7.27232e-07
7.27291e-07
7.27173e-07
7.26544e-07
7.27328e-07
7.27275e-07
7.16901e-07
7.16862e-07
7.1671e-07
7.15913e-07
7.15847e-07
7.15817e-07
7.15903e-07
7.16781e-07
7.16816e-07
7.1671e-07
7.15543e-07
7.14138e-07
7.14138e-07
7.14138e-07
7.14138e-07
7.15698e-07
7.16122e-07
7.15912e-07
7.14138e-07
7.14139e-07
7.14139e-07
7.14139e-07
7.14139e-07
7.14138e-07
7.16178e-07
7.16997e-07
7.16901e-07
7.15847e-07
7.14138e-07
7.14139e-07
7.14139e-07
7.14139e-07
7.14139e-07
7.14138e-07
7.16186e-07
7.16878e-07
7.16862e-07
7.15817e-07
7.14138e-07
7.14139e-07
7.14139e-07
7.14139e-07
7.14139e-07
7.14138e-07
7.16166e-07
7.1625e-07
7.15903e-07
7.14138e-07
7.14139e-07
7.14139e-07
7.14139e-07
7.14139e-07
7.14138e-07
7.1619e-07
7.17034e-07
7.16781e-07
7.15698e-07
7.14138e-07
7.14138e-07
7.14138e-07
7.14138e-07
7.15962e-07
7.16194e-07
7.1698e-07
7.16816e-07
7.16122e-07
7.16178e-07
7.16186e-07
7.16165e-07
7.1619e-07
7.16194e-07
7.16938e-07
7.16997e-07
7.16878e-07
7.1625e-07
7.17034e-07
7.1698e-07
7.06607e-07
7.06568e-07
7.06416e-07
7.05618e-07
7.05553e-07
7.05523e-07
7.05609e-07
7.06487e-07
7.06521e-07
7.06416e-07
7.05249e-07
7.03844e-07
7.03844e-07
7.03844e-07
7.03844e-07
7.05403e-07
7.05828e-07
7.05618e-07
7.03844e-07
7.03845e-07
7.03845e-07
7.03845e-07
7.03845e-07
7.03844e-07
7.05883e-07
7.06703e-07
7.06607e-07
7.05553e-07
7.03844e-07
7.03845e-07
7.03844e-07
7.03844e-07
7.03845e-07
7.03844e-07
7.05892e-07
7.06584e-07
7.06568e-07
7.05523e-07
7.03844e-07
7.03845e-07
7.03844e-07
7.03844e-07
7.03845e-07
7.03844e-07
7.05871e-07
7.05956e-07
7.05609e-07
7.03844e-07
7.03845e-07
7.03845e-07
7.03845e-07
7.03845e-07
7.03844e-07
7.05896e-07
7.06739e-07
7.06487e-07
7.05403e-07
7.03844e-07
7.03844e-07
7.03844e-07
7.03844e-07
7.05668e-07
7.05899e-07
7.06686e-07
7.06521e-07
7.05828e-07
7.05883e-07
7.05892e-07
7.05871e-07
7.05896e-07
7.05899e-07
7.06643e-07
7.06702e-07
7.06584e-07
7.05956e-07
7.06739e-07
7.06686e-07
6.96313e-07
6.96274e-07
6.96122e-07
6.95324e-07
6.95259e-07
6.95229e-07
6.95314e-07
6.96193e-07
6.96227e-07
6.96122e-07
6.94954e-07
6.9355e-07
6.9355e-07
6.9355e-07
6.9355e-07
6.95109e-07
6.95534e-07
6.95324e-07
6.9355e-07
6.93551e-07
6.9355e-07
6.9355e-07
6.93551e-07
6.9355e-07
6.95589e-07
6.96408e-07
6.96313e-07
6.95259e-07
6.9355e-07
6.9355e-07
6.9355e-07
6.9355e-07
6.9355e-07
6.9355e-07
6.95598e-07
6.9629e-07
6.96274e-07
6.95229e-07
6.9355e-07
6.9355e-07
6.9355e-07
6.9355e-07
6.9355e-07
6.9355e-07
6.95577e-07
6.95662e-07
6.95314e-07
6.9355e-07
6.93551e-07
6.9355e-07
6.9355e-07
6.93551e-07
6.9355e-07
6.95602e-07
6.96445e-07
6.96193e-07
6.95109e-07
6.9355e-07
6.9355e-07
6.9355e-07
6.9355e-07
6.95374e-07
6.95605e-07
6.96392e-07
6.96227e-07
6.95534e-07
6.95589e-07
6.95598e-07
6.95577e-07
6.95602e-07
6.95605e-07
6.96349e-07
6.96408e-07
6.9629e-07
6.95661e-07
6.96445e-07
6.96392e-07
6.86018e-07
6.8598e-07
6.85828e-07
6.8503e-07
6.84964e-07
6.84935e-07
6.8502e-07
6.85898e-07
6.85933e-07
6.85828e-07
6.8466e-07
6.83256e-07
6.83256e-07
6.83256e-07
6.83256e-07
6.84815e-07
6.8524e-07
6.8503e-07
6.83256e-07
6.83257e-07
6.83256e-07
6.83256e-07
6.83257e-07
6.83256e-07
6.85295e-07
6.86114e-07
6.86018e-07
6.84964e-07
6.83256e-07
6.83256e-07
6.83256e-07
6.83256e-07
6.83256e-07
6.83256e-07
6.85304e-07
6.85996e-07
6.8598e-07
6.84935e-07
6.83256e-07
6.83256e-07
6.83256e-07
6.83256e-07
6.83256e-07
6.83256e-07
6.85283e-07
6.85367e-07
6.8502e-07
6.83256e-07
6.83257e-07
6.83256e-07
6.83256e-07
6.83257e-07
6.83255e-07
6.85308e-07
6.86151e-07
6.85898e-07
6.84815e-07
6.83256e-07
6.83256e-07
6.83256e-07
6.83255e-07
6.8508e-07
6.85311e-07
6.86098e-07
6.85933e-07
6.8524e-07
6.85295e-07
6.85304e-07
6.85283e-07
6.85308e-07
6.85311e-07
6.86055e-07
6.86114e-07
6.85995e-07
6.85367e-07
6.86151e-07
6.86098e-07
6.75724e-07
6.75686e-07
6.75534e-07
6.74736e-07
6.7467e-07
6.74641e-07
6.74726e-07
6.75604e-07
6.75639e-07
6.75534e-07
6.74366e-07
6.72961e-07
6.72962e-07
6.72962e-07
6.72961e-07
6.74521e-07
6.74946e-07
6.74736e-07
6.72961e-07
6.72963e-07
6.72962e-07
6.72962e-07
6.72963e-07
6.72961e-07
6.75001e-07
6.7582e-07
6.75724e-07
6.7467e-07
6.72962e-07
6.72962e-07
6.72962e-07
6.72962e-07
6.72962e-07
6.72962e-07
6.7501e-07
6.75701e-07
6.75686e-07
6.7464e-07
6.72962e-07
6.72962e-07
6.72962e-07
6.72962e-07
6.72962e-07
6.72962e-07
6.74989e-07
6.75073e-07
6.74726e-07
6.72961e-07
6.72963e-07
6.72962e-07
6.72962e-07
6.72963e-07
6.72961e-07
6.75014e-07
6.75857e-07
6.75604e-07
6.74521e-07
6.72961e-07
6.72962e-07
6.72962e-07
6.72961e-07
6.74786e-07
6.75017e-07
6.75804e-07
6.75639e-07
6.74946e-07
6.75001e-07
6.7501e-07
6.74989e-07
6.75014e-07
6.75017e-07
6.75761e-07
6.7582e-07
6.75701e-07
6.75073e-07
6.75857e-07
6.75803e-07
6.6543e-07
6.65391e-07
6.65239e-07
6.64442e-07
6.64376e-07
6.64346e-07
6.64432e-07
6.6531e-07
6.65345e-07
6.65239e-07
6.64072e-07
6.62667e-07
6.62667e-07
6.62667e-07
6.62667e-07
6.64227e-07
6.64651e-07
6.64441e-07
6.62667e-07
6.62669e-07
6.62668e-07
6.62668e-07
6.62669e-07
6.62667e-07
6.64707e-07
6.65526e-07
6.6543e-07
6.64376e-07
6.62667e-07
6.62668e-07
6.62668e-07
6.62668e-07
6.62668e-07
6.62667e-07
6.64716e-07
6.65407e-07
6.65391e-07
6.64346e-07
6.62667e-07
6.62668e-07
6.62668e-07
6.62668e-07
6.62668e-07
6.62667e-07
6.64695e-07
6.64779e-07
6.64432e-07
6.62667e-07
6.62668e-07
6.62668e-07
6.62668e-07
6.62668e-07
6.62667e-07
6.64719e-07
6.65563e-07
6.6531e-07
6.64227e-07
6.62667e-07
6.62667e-07
6.62667e-07
6.62667e-07
6.64491e-07
6.64723e-07
6.65509e-07
6.65345e-07
6.64651e-07
6.64707e-07
6.64715e-07
6.64694e-07
6.64719e-07
6.64723e-07
6.65467e-07
6.65526e-07
6.65407e-07
6.64779e-07
6.65563e-07
6.65509e-07
6.55136e-07
6.55097e-07
6.54945e-07
6.54147e-07
6.54082e-07
6.54052e-07
6.54138e-07
6.55016e-07
6.5505e-07
6.54945e-07
6.53778e-07
6.52373e-07
6.52373e-07
6.52373e-07
6.52373e-07
6.53933e-07
6.54357e-07
6.54147e-07
6.52373e-07
6.52374e-07
6.52374e-07
6.52374e-07
6.52374e-07
6.52373e-07
6.54412e-07
6.55232e-07
6.55136e-07
6.54082e-07
6.52373e-07
6.52374e-07
6.52373e-07
6.52373e-07
6.52374e-07
6.52373e-07
6.54421e-07
6.55113e-07
6.55097e-07
6.54052e-07
6.52373e-07
6.52374e-07
6.52373e-07
6.52373e-07
6.52374e-07
6.52373e-07
6.544e-07
6.54485e-07
6.54138e-07
6.52373e-07
6.52374e-07
6.52374e-07
6.52374e-07
6.52374e-07
6.52373e-07
6.54425e-07
6.55268e-07
6.55016e-07
6.53932e-07
6.52373e-07
6.52373e-07
6.52373e-07
6.52373e-07
6.54197e-07
6.54428e-07
6.55215e-07