/*--------------------------------*- C++ -*----------------------------------*\
| =========                 |                                                 |
| \\      /  F ield         | OpenFOAM: The Open Source CFD Toolbox           |
|  \\    /   O peration     | Version:  v2012                                 |
|   \\  /    A nd           | Website:  www.openfoam.com                      |
|    \\/     M anipulation  |                                                 |
\*---------------------------------------------------------------------------*/
FoamFile
{
    version     2.0;
    format      ascii;
    class       volScalarField;
    location    "375";
    object      k;
}
// * * * * * * * * * * * * * * * * * * * * * * * * * * * * * * * * * * * * * //

dimensions      [0 2 -2 0 0 0 0];


internalField   nonuniform List<scalar> 
171728
(
3.58932e-05
3.58912e-05
3.58912e-05
3.59957e-05
3.39296e-05
3.3889e-05
3.3889e-05
3.39622e-05
3.21578e-05
3.20081e-05
3.20081e-05
3.19522e-05
3.05346e-05
3.02293e-05
3.02292e-05
2.99884e-05
2.90329e-05
2.8554e-05
2.85539e-05
2.81226e-05
2.76353e-05
2.69872e-05
2.69871e-05
2.63907e-05
2.63308e-05
2.5531e-05
2.55309e-05
2.48073e-05
2.51112e-05
2.4185e-05
2.41848e-05
2.33782e-05
2.39709e-05
2.29506e-05
2.29504e-05
2.21047e-05
2.29058e-05
2.18269e-05
2.18267e-05
2.0986e-05
2.1912e-05
2.08114e-05
2.08112e-05
2.00134e-05
2.09865e-05
1.99013e-05
1.99011e-05
1.91814e-05
2.01241e-05
1.90947e-05
1.90946e-05
1.84895e-05
1.93239e-05
1.83885e-05
1.83884e-05
1.79331e-05
1.85847e-05
1.77793e-05
1.77793e-05
1.75061e-05
1.79042e-05
1.72656e-05
1.72656e-05
1.72002e-05
1.72798e-05
1.68465e-05
1.68466e-05
1.70226e-05
1.67097e-05
1.65211e-05
1.65213e-05
1.69817e-05
1.61923e-05
1.62895e-05
1.62898e-05
1.70789e-05
1.57254e-05
1.61516e-05
1.6152e-05
1.7304e-05
1.53073e-05
1.61072e-05
1.61077e-05
1.76568e-05
1.49374e-05
1.61534e-05
1.61539e-05
1.81338e-05
1.46145e-05
1.62919e-05
1.62926e-05
1.87284e-05
1.43383e-05
1.65198e-05
1.65209e-05
1.94281e-05
1.41079e-05
1.68355e-05
1.68365e-05
2.02205e-05
1.39235e-05
1.72353e-05
1.72362e-05
2.10944e-05
1.37846e-05
1.77156e-05
1.77171e-05
2.20352e-05
1.36907e-05
1.82724e-05
1.82745e-05
2.30292e-05
1.36418e-05
1.89012e-05
1.89027e-05
2.40657e-05
1.36393e-05
1.95979e-05
1.95992e-05
2.51251e-05
1.36814e-05
2.03545e-05
2.03572e-05
2.61999e-05
1.37694e-05
2.11684e-05
2.11705e-05
2.72817e-05
1.39049e-05
2.20351e-05
2.20349e-05
2.8363e-05
1.4087e-05
2.2936e-05
2.29423e-05
2.94284e-05
1.43098e-05
2.38815e-05
2.38785e-05
3.04827e-05
1.4594e-05
2.48622e-05
2.48715e-05
3.15159e-05
1.48993e-05
2.58467e-05
2.58388e-05
3.25504e-05
1.52889e-05
2.68784e-05
2.68917e-05
3.35222e-05
1.5673e-05
2.78933e-05
2.78897e-05
3.45041e-05
1.61637e-05
2.89375e-05
2.8942e-05
3.54557e-05
1.66303e-05
2.99638e-05
2.99593e-05
3.63735e-05
1.71992e-05
3.09927e-05
3.10239e-05
3.72697e-05
1.77705e-05
3.20437e-05
3.19902e-05
3.81233e-05
1.83967e-05
3.30212e-05
3.30819e-05
3.90205e-05
1.90497e-05
3.40352e-05
3.40101e-05
3.97945e-05
1.97366e-05
3.50116e-05
3.50188e-05
4.06055e-05
2.04572e-05
3.59671e-05
3.59715e-05
4.13837e-05
2.12006e-05
3.69025e-05
3.68996e-05
4.21297e-05
2.19649e-05
3.7807e-05
3.78139e-05
4.2847e-05
2.27446e-05
3.86905e-05
3.86931e-05
4.35535e-05
2.3541e-05
3.95427e-05
3.95443e-05
4.42221e-05
2.43482e-05
4.03677e-05
4.03706e-05
4.48705e-05
2.51611e-05
4.11669e-05
4.11689e-05
4.5499e-05
2.59749e-05
4.19342e-05
4.19363e-05
4.60999e-05
2.6791e-05
4.26734e-05
4.26758e-05
4.66783e-05
2.75987e-05
4.33857e-05
4.33863e-05
4.72352e-05
2.84026e-05
4.40636e-05
4.40673e-05
4.77663e-05
2.91931e-05
4.47213e-05
4.47206e-05
4.82803e-05
2.99747e-05
4.53413e-05
4.53455e-05
4.8765e-05
3.07345e-05
4.59409e-05
4.59396e-05
4.92357e-05
3.14853e-05
4.65077e-05
4.65122e-05
4.96783e-05
3.22096e-05
4.70498e-05
4.70476e-05
5.0105e-05
3.29159e-05
4.75644e-05
4.75696e-05
5.05069e-05
3.35984e-05
4.80488e-05
4.80455e-05
5.08904e-05
3.42667e-05
4.85199e-05
4.85257e-05
5.12586e-05
3.48769e-05
4.89356e-05
4.89319e-05
5.15861e-05
3.55286e-05
4.93748e-05
4.93795e-05
5.19382e-05
3.60582e-05
4.97278e-05
4.97265e-05
5.22029e-05
3.66605e-05
5.01073e-05
5.01076e-05
5.25234e-05
3.71658e-05
5.04569e-05
5.04599e-05
5.27713e-05
3.76591e-05
5.07113e-05
5.07094e-05
5.30075e-05
3.81499e-05
5.10895e-05
5.10911e-05
5.32856e-05
3.85909e-05
5.12789e-05
5.12785e-05
5.34404e-05
3.89551e-05
5.1564e-05
5.15664e-05
5.36791e-05
3.95022e-05
5.18289e-05
5.18271e-05
5.38744e-05
3.96057e-05
5.18502e-05
5.18507e-05
5.39029e-05
4.01722e-05
5.22361e-05
5.22364e-05
5.42157e-05
4.0398e-05
5.22972e-05
5.22965e-05
5.42293e-05
4.06842e-05
5.24459e-05
5.24466e-05
5.44421e-05
4.07358e-05
5.23216e-05
5.232e-05
5.40337e-05
4.16461e-05
5.34463e-05
5.34499e-05
5.57083e-05
4.10966e-05
5.15904e-05
5.15894e-05
5.30684e-05
4.01271e-05
5.08774e-05
5.08719e-05
5.23507e-05
4.43865e-05
5.7263e-05
5.72666e-05
5.98141e-05
4.58821e-05
5.68937e-05
5.68992e-05
5.79568e-05
3.80808e-05
4.61957e-05
4.6194e-05
4.71953e-05
3.44025e-05
4.46327e-05
4.46315e-05
4.67985e-05
4.14636e-05
5.53765e-05
5.53774e-05
5.76666e-05
5.07154e-05
6.16765e-05
6.1676e-05
6.3739e-05
5.14797e-05
6.05042e-05
6.05034e-05
6.13322e-05
4.31224e-05
5.15201e-05
5.15207e-05
5.30249e-05
3.70279e-05
4.70872e-05
4.70877e-05
4.90052e-05
3.55383e-05
4.64953e-05
4.64957e-05
4.88181e-05
3.70525e-05
4.79708e-05
4.79705e-05
5.03107e-05
3.83578e-05
4.76759e-05
4.76748e-05
5.06097e-05
3.63068e-05
3.6291e-05
3.6291e-05
3.63068e-05
3.6291e-05
3.6291e-05
3.6423e-05
3.6423e-05
3.6423e-05
3.6423e-05
3.6291e-05
3.6291e-05
3.63068e-05
3.6291e-05
3.6291e-05
3.63068e-05
3.59957e-05
3.42687e-05
3.58912e-05
3.58912e-05
3.43767e-05
3.43766e-05
3.59957e-05
3.42687e-05
3.58911e-05
3.58912e-05
3.43767e-05
3.43766e-05
3.58912e-05
3.43767e-05
3.43767e-05
3.59957e-05
3.42687e-05
3.58912e-05
3.43767e-05
3.43767e-05
3.42687e-05
3.39623e-05
3.22635e-05
3.38889e-05
3.38889e-05
3.24684e-05
3.24683e-05
3.39623e-05
3.22635e-05
3.38889e-05
3.38889e-05
3.24684e-05
3.24683e-05
3.38889e-05
3.24685e-05
3.24684e-05
3.39623e-05
3.22634e-05
3.38889e-05
3.24685e-05
3.24684e-05
3.22634e-05
3.19522e-05
3.02993e-05
3.20079e-05
3.20078e-05
3.06643e-05
3.06642e-05
3.19522e-05
3.02994e-05
3.2008e-05
3.20078e-05
3.06644e-05
3.06641e-05
3.20079e-05
3.06646e-05
3.06643e-05
3.19522e-05
3.02992e-05
3.2008e-05
3.06645e-05
3.06644e-05
3.02992e-05
2.99885e-05
2.84253e-05
3.0229e-05
3.02288e-05
2.89624e-05
2.89622e-05
2.99886e-05
2.84255e-05
3.02291e-05
3.02287e-05
2.89626e-05
2.89621e-05
3.02289e-05
2.89628e-05
2.89623e-05
2.99884e-05
2.84252e-05
3.02291e-05
2.89627e-05
2.89626e-05
2.84252e-05
2.81227e-05
2.6674e-05
2.85536e-05
2.85534e-05
2.7368e-05
2.73678e-05
2.81228e-05
2.66742e-05
2.85538e-05
2.85533e-05
2.73683e-05
2.73676e-05
2.85535e-05
2.73685e-05
2.73679e-05
2.81226e-05
2.66739e-05
2.85538e-05
2.73684e-05
2.73683e-05
2.66738e-05
2.63908e-05
2.50663e-05
2.69866e-05
2.69864e-05
2.58841e-05
2.58838e-05
2.63909e-05
2.50665e-05
2.6987e-05
2.69862e-05
2.58845e-05
2.58836e-05
2.69865e-05
2.58848e-05
2.5884e-05
2.63907e-05
2.50661e-05
2.69869e-05
2.58846e-05
2.58844e-05
2.50661e-05
2.48075e-05
2.36125e-05
2.55303e-05
2.553e-05
2.45102e-05
2.45099e-05
2.48076e-05
2.36127e-05
2.55308e-05
2.55299e-05
2.45107e-05
2.45097e-05
2.55302e-05
2.4511e-05
2.45102e-05
2.48073e-05
2.36123e-05
2.55307e-05
2.45108e-05
2.45107e-05
2.36123e-05
2.33784e-05
2.23125e-05
2.41842e-05
2.41838e-05
2.32478e-05
2.32475e-05
2.33785e-05
2.23126e-05
2.41847e-05
2.41836e-05
2.32484e-05
2.32473e-05
2.41841e-05
2.32488e-05
2.32478e-05
2.33782e-05
2.23122e-05
2.41846e-05
2.32485e-05
2.32484e-05
2.23122e-05
2.21049e-05
2.11681e-05
2.29497e-05
2.29494e-05
2.20965e-05
2.20962e-05
2.21051e-05
2.11683e-05
2.29503e-05
2.29491e-05
2.20972e-05
2.2096e-05
2.29496e-05
2.20976e-05
2.20965e-05
2.21047e-05
2.11679e-05
2.29503e-05
2.20973e-05
2.20972e-05
2.11678e-05
2.09863e-05
2.01708e-05
2.18259e-05
2.18255e-05
2.10542e-05
2.10538e-05
2.09865e-05
2.0171e-05
2.18266e-05
2.18253e-05
2.10549e-05
2.10536e-05
2.18258e-05
2.10552e-05
2.10541e-05
2.09861e-05
2.01705e-05
2.18265e-05
2.1055e-05
2.10549e-05
2.01704e-05
2.00137e-05
1.93147e-05
2.08103e-05
2.081e-05
2.0118e-05
2.01176e-05
2.00139e-05
1.93148e-05
2.08111e-05
2.08097e-05
2.01188e-05
2.01174e-05
2.08102e-05
2.01191e-05
2.01179e-05
2.00134e-05
1.93144e-05
2.08111e-05
2.01189e-05
2.01188e-05
1.93143e-05
1.91817e-05
1.85903e-05
1.99002e-05
1.98999e-05
1.92855e-05
1.92852e-05
1.91819e-05
1.85906e-05
1.9901e-05
1.98997e-05
1.92863e-05
1.9285e-05
1.99002e-05
1.92866e-05
1.92855e-05
1.91815e-05
1.85902e-05
1.9901e-05
1.92865e-05
1.92864e-05
1.85901e-05
1.84899e-05
1.79978e-05
1.90936e-05
1.90933e-05
1.85545e-05
1.85542e-05
1.84899e-05
1.7998e-05
1.90945e-05
1.90931e-05
1.85553e-05
1.8554e-05
1.90936e-05
1.85555e-05
1.85545e-05
1.84896e-05
1.79978e-05
1.90945e-05
1.85554e-05
1.85553e-05
1.79975e-05
1.79333e-05
1.75393e-05
1.83875e-05
1.83872e-05
1.79214e-05
1.79211e-05
1.79334e-05
1.75392e-05
1.83883e-05
1.8387e-05
1.79222e-05
1.79209e-05
1.83874e-05
1.79223e-05
1.79213e-05
1.79332e-05
1.75391e-05
1.83883e-05
1.79222e-05
1.79222e-05
1.75389e-05
1.75067e-05
1.72177e-05
1.77784e-05
1.77781e-05
1.73838e-05
1.73836e-05
1.75066e-05
1.72177e-05
1.77792e-05
1.7778e-05
1.73846e-05
1.73835e-05
1.77783e-05
1.73847e-05
1.73838e-05
1.75064e-05
1.72177e-05
1.77792e-05
1.73846e-05
1.73846e-05
1.72175e-05
1.72005e-05
1.70262e-05
1.72648e-05
1.72646e-05
1.69411e-05
1.69409e-05
1.72004e-05
1.70259e-05
1.72655e-05
1.72645e-05
1.69418e-05
1.69409e-05
1.72647e-05
1.69418e-05
1.69411e-05
1.72003e-05
1.7026e-05
1.72656e-05
1.69418e-05
1.69418e-05
1.70259e-05
1.70229e-05
1.69726e-05
1.68458e-05
1.68457e-05
1.65921e-05
1.6592e-05
1.70226e-05
1.69723e-05
1.68465e-05
1.68456e-05
1.65928e-05
1.6592e-05
1.68458e-05
1.65926e-05
1.65921e-05
1.70227e-05
1.69726e-05
1.68466e-05
1.65928e-05
1.65928e-05
1.69724e-05
1.69818e-05
1.70432e-05
1.65206e-05
1.65205e-05
1.63368e-05
1.63367e-05
1.69816e-05
1.7043e-05
1.65213e-05
1.65205e-05
1.63374e-05
1.63368e-05
1.65206e-05
1.63372e-05
1.63368e-05
1.69819e-05
1.70434e-05
1.65213e-05
1.63374e-05
1.63375e-05
1.70433e-05
1.70789e-05
1.72436e-05
1.62892e-05
1.62891e-05
1.61753e-05
1.61753e-05
1.70786e-05
1.72431e-05
1.62898e-05
1.62892e-05
1.61759e-05
1.61755e-05
1.62891e-05
1.61755e-05
1.61753e-05
1.70788e-05
1.72436e-05
1.62898e-05
1.61758e-05
1.61759e-05
1.72436e-05
1.7304e-05
1.75721e-05
1.61515e-05
1.61515e-05
1.61071e-05
1.61073e-05
1.73036e-05
1.75717e-05
1.6152e-05
1.61517e-05
1.61076e-05
1.61075e-05
1.61515e-05
1.61071e-05
1.61071e-05
1.7304e-05
1.75726e-05
1.61521e-05
1.61076e-05
1.61077e-05
1.75723e-05
1.76567e-05
1.80253e-05
1.61072e-05
1.61074e-05
1.61328e-05
1.61331e-05
1.76564e-05
1.80247e-05
1.61077e-05
1.61077e-05
1.61332e-05
1.61334e-05
1.61073e-05
1.61327e-05
1.61329e-05
1.76573e-05
1.8026e-05
1.61078e-05
1.61333e-05
1.61335e-05
1.80254e-05
1.81336e-05
1.85975e-05
1.61534e-05
1.61538e-05
1.62488e-05
1.62492e-05
1.81332e-05
1.85964e-05
1.61539e-05
1.61541e-05
1.62492e-05
1.62497e-05
1.61536e-05
1.62486e-05
1.62491e-05
1.81343e-05
1.85979e-05
1.61542e-05
1.62492e-05
1.62496e-05
1.85972e-05
1.87284e-05
1.92759e-05
1.62921e-05
1.62926e-05
1.64549e-05
1.64554e-05
1.87275e-05
1.92752e-05
1.62926e-05
1.6293e-05
1.64552e-05
1.6456e-05
1.62924e-05
1.64545e-05
1.64553e-05
1.87288e-05
1.92766e-05
1.62928e-05
1.64553e-05
1.64557e-05
1.9276e-05
1.94276e-05
2.005e-05
1.65205e-05
1.65209e-05
1.67493e-05
1.675e-05
1.94268e-05
2.00491e-05
1.65209e-05
1.65216e-05
1.67495e-05
1.67504e-05
1.65209e-05
1.67487e-05
1.67495e-05
1.94281e-05
2.00506e-05
1.65214e-05
1.67494e-05
1.67499e-05
2.005e-05
2.02202e-05
2.09057e-05
1.6836e-05
1.68369e-05
1.71283e-05
1.71291e-05
2.02199e-05
2.09052e-05
1.68363e-05
1.68374e-05
1.71283e-05
1.71297e-05
1.68366e-05
1.71275e-05
1.71288e-05
2.0221e-05
2.09075e-05
1.6837e-05
1.71285e-05
1.71291e-05
2.09073e-05
2.10932e-05
2.18329e-05
1.72364e-05
1.7237e-05
1.75889e-05
1.75897e-05
2.10926e-05
2.1832e-05
1.72365e-05
1.72373e-05
1.75886e-05
1.75909e-05
1.72368e-05
1.75878e-05
1.75896e-05
2.10946e-05
2.18339e-05
1.72371e-05
1.75894e-05
1.75897e-05
2.18345e-05
2.20337e-05
2.28167e-05
1.77168e-05
1.77175e-05
1.81274e-05
1.8128e-05
2.2033e-05
2.28151e-05
1.77166e-05
1.77185e-05
1.81269e-05
1.81289e-05
1.77174e-05
1.81258e-05
1.81277e-05
2.20357e-05
2.28158e-05
1.77175e-05
1.81272e-05
1.81276e-05
2.28173e-05
2.30292e-05
2.38419e-05
1.82738e-05
1.82746e-05
1.87399e-05
1.87404e-05
2.30273e-05
2.38415e-05
1.82734e-05
1.82762e-05
1.87392e-05
1.87406e-05
1.82741e-05
1.8738e-05
1.87407e-05
2.30286e-05
2.38438e-05
1.82739e-05
1.87386e-05
1.87403e-05
2.38443e-05
2.40637e-05
2.48945e-05
1.89028e-05
1.89036e-05
1.94205e-05
1.94201e-05
2.40621e-05
2.48947e-05
1.89021e-05
1.89046e-05
1.94195e-05
1.94218e-05
1.89042e-05
1.94174e-05
1.94206e-05
2.40636e-05
2.48993e-05
1.89038e-05
1.94196e-05
1.94199e-05
2.48968e-05
2.51239e-05
2.59645e-05
1.96013e-05
1.96005e-05
2.01607e-05
2.01627e-05
2.51224e-05
2.59676e-05
1.96004e-05
1.96013e-05
2.01593e-05
2.01645e-05
1.9601e-05
2.01598e-05
2.01636e-05
2.5127e-05
2.59685e-05
1.96003e-05
2.01622e-05
2.01626e-05
2.59684e-05
2.61951e-05
2.70501e-05
2.03571e-05
2.03572e-05
2.09634e-05
2.09645e-05
2.61994e-05
2.70454e-05
2.03558e-05
2.03594e-05
2.09618e-05
2.09642e-05
2.03589e-05
2.09615e-05
2.09635e-05
2.62013e-05
2.70464e-05
2.03579e-05
2.09617e-05
2.09622e-05
2.70487e-05
2.72831e-05
2.81237e-05
2.11708e-05
2.11715e-05
2.18163e-05
2.18169e-05
2.72816e-05
2.81204e-05
2.11692e-05
2.11729e-05
2.18143e-05
2.18183e-05
2.11722e-05
2.18138e-05
2.18171e-05
2.72817e-05
2.81257e-05
2.11709e-05
2.18157e-05
2.18156e-05
2.81282e-05
2.83591e-05
2.91924e-05
2.20355e-05
2.20382e-05
2.27102e-05
2.27071e-05
2.83562e-05
2.91902e-05
2.20336e-05
2.20373e-05
2.27079e-05
2.27101e-05
2.20367e-05
2.27038e-05
2.27112e-05
2.83598e-05
2.91933e-05
2.2035e-05
2.27073e-05
2.27093e-05
2.91932e-05
2.94261e-05
3.02527e-05
2.2944e-05
2.29393e-05
2.36443e-05
2.3651e-05
2.94221e-05
3.0253e-05
2.29419e-05
2.29451e-05
2.36418e-05
2.36502e-05
2.2942e-05
2.3648e-05
2.36523e-05
2.94277e-05
3.02548e-05
2.29401e-05
2.36478e-05
2.36502e-05
3.02522e-05
3.04831e-05
3.1291e-05
2.38791e-05
2.38846e-05
2.46226e-05
2.46113e-05
3.04856e-05
3.12817e-05
2.38765e-05
2.38808e-05
2.462e-05
2.46169e-05
2.38896e-05
2.46077e-05
2.4606e-05
3.04836e-05
3.12877e-05
2.38873e-05
2.46136e-05
2.46037e-05
3.12881e-05
3.15246e-05
3.22973e-05
2.48695e-05
2.48657e-05
2.5589e-05
2.56065e-05
3.15138e-05
3.2315e-05
2.48674e-05
2.48746e-05
2.55855e-05
2.56e-05
2.48595e-05
2.56043e-05
2.56198e-05
3.15221e-05
3.23142e-05
2.48574e-05
2.55986e-05
2.56169e-05
3.23265e-05
3.25205e-05
3.33314e-05
2.58459e-05
2.58491e-05
2.66456e-05
2.66184e-05
3.25332e-05
3.33034e-05
2.58425e-05
2.58405e-05
2.66435e-05
2.66339e-05
2.58592e-05
2.6614e-05
2.66143e-05
3.25299e-05
3.33109e-05
2.58561e-05
2.66299e-05
2.66122e-05
3.32954e-05
3.35516e-05
3.42526e-05
2.68895e-05
2.68823e-05
2.76083e-05
2.76474e-05
3.35338e-05
3.42875e-05
2.68876e-05
2.68947e-05
2.76039e-05
2.76277e-05
2.68819e-05
2.76462e-05
2.7645e-05
3.35433e-05
3.4281e-05
2.68798e-05
2.76271e-05
2.76411e-05
3.42959e-05
3.44711e-05
3.52822e-05
2.7883e-05
2.78952e-05
2.8718e-05
2.86694e-05
3.44975e-05
3.52275e-05
2.78792e-05
2.78912e-05
2.87174e-05
2.87052e-05
2.78936e-05
2.86648e-05
2.86827e-05
3.44899e-05
3.52576e-05
2.78903e-05
2.87015e-05
2.86818e-05
3.52348e-05
3.54917e-05
3.61163e-05
2.89583e-05
2.89416e-05
2.96757e-05
2.97233e-05
3.54454e-05
3.61773e-05
2.89567e-05
2.89449e-05
2.96692e-05
2.96733e-05
2.8945e-05
2.97222e-05
2.97152e-05
3.54684e-05
3.61272e-05
2.8943e-05
2.96728e-05
2.97092e-05
3.61705e-05
3.63254e-05
3.70992e-05
2.9948e-05
2.99647e-05
3.07644e-05
3.07226e-05
3.63749e-05
3.70388e-05
2.99439e-05
2.99597e-05
3.07664e-05
3.07967e-05
2.99807e-05
3.07199e-05
3.07542e-05
3.63423e-05
3.71206e-05
2.99765e-05
3.07951e-05
3.07558e-05
3.70768e-05
3.7298e-05
3.79286e-05
3.10147e-05
3.09961e-05
3.17648e-05
3.17987e-05
3.72498e-05
3.79762e-05
3.10152e-05
3.1026e-05
3.17576e-05
3.17171e-05
3.09948e-05
3.17951e-05
3.17501e-05
3.731e-05
3.7882e-05
3.09948e-05
3.17144e-05
3.17427e-05
3.7917e-05
3.81264e-05
3.88061e-05
3.20241e-05
3.20466e-05
3.27909e-05
3.27728e-05
3.81672e-05
3.87756e-05
3.20179e-05
3.19922e-05
3.27918e-05
3.2835e-05
3.20218e-05
3.2772e-05
3.28176e-05
3.80852e-05
3.88545e-05
3.20152e-05
3.28356e-05
3.28181e-05
3.88342e-05
3.89936e-05
3.96213e-05
3.30401e-05
3.30219e-05
3.37862e-05
3.37857e-05
3.89628e-05
3.96236e-05
3.30417e-05
3.30814e-05
3.37832e-05
3.37695e-05
3.30641e-05
3.37833e-05
3.37837e-05
3.90452e-05
3.95969e-05
3.30652e-05
3.37683e-05
3.37805e-05
3.96139e-05
3.9806e-05
4.04263e-05
3.40343e-05
3.4038e-05
3.47683e-05
3.47733e-05
3.9812e-05
4.04296e-05
3.40306e-05
3.40117e-05
3.47655e-05
3.47708e-05
3.40272e-05
3.4771e-05
3.47671e-05
3.97737e-05
4.04319e-05
3.4023e-05
3.47699e-05
3.47641e-05
4.04244e-05
4.06044e-05
4.12058e-05
3.50103e-05
3.50136e-05
3.57324e-05
3.57309e-05
4.06059e-05
4.12028e-05
3.50085e-05
3.50194e-05
3.57309e-05
3.57373e-05
3.50125e-05
3.57292e-05
3.57372e-05
4.06168e-05
4.12091e-05
3.50103e-05
3.57371e-05
3.57355e-05
4.12109e-05
4.13797e-05
4.19609e-05
3.59703e-05
3.59687e-05
3.66728e-05
3.66733e-05
4.13765e-05
4.19596e-05
3.59688e-05
3.59717e-05
3.66704e-05
3.66681e-05
3.59757e-05
3.6672e-05
3.66782e-05
4.13785e-05
4.19552e-05
3.59738e-05
3.66683e-05
3.66757e-05
4.19638e-05
4.21278e-05
4.26887e-05
3.69039e-05
3.6904e-05
3.75867e-05
3.75844e-05
4.21269e-05
4.26847e-05
3.69017e-05
3.68996e-05
3.7585e-05
3.75888e-05
3.69071e-05
3.75825e-05
3.75845e-05
4.21227e-05
4.26907e-05
3.69046e-05
3.75885e-05
3.75828e-05
4.26851e-05
4.28498e-05
4.3389e-05
3.78103e-05
3.78088e-05
3.84715e-05
3.84737e-05
4.28462e-05
4.33905e-05
3.7809e-05
3.78141e-05
3.84698e-05
3.84756e-05
3.78093e-05
3.84726e-05
3.84792e-05
4.28534e-05
4.33925e-05
3.78077e-05
3.84762e-05
3.84775e-05
4.33962e-05
4.35449e-05
4.40695e-05
3.86892e-05
3.86913e-05
3.9333e-05
3.9333e-05
4.35467e-05
4.40679e-05
3.86876e-05
3.86924e-05
3.93311e-05
3.9333e-05
3.86983e-05
3.93321e-05
3.93381e-05
4.35478e-05
4.40687e-05
3.86966e-05
3.93337e-05
3.93363e-05
4.4073e-05
4.42204e-05
4.47248e-05
3.95442e-05
3.95438e-05
4.01661e-05
4.01653e-05
4.42184e-05
4.47229e-05
3.95425e-05
3.95437e-05
4.01645e-05
4.01661e-05
3.95474e-05
4.01639e-05
4.01671e-05
4.42192e-05
4.47246e-05
3.95456e-05
4.01666e-05
4.01656e-05
4.47249e-05
4.487e-05
4.53557e-05
4.03695e-05
4.0369e-05
4.09706e-05
4.0971e-05
4.48684e-05
4.5355e-05
4.03682e-05
4.03701e-05
4.0969e-05
4.09714e-05
4.03713e-05
4.09702e-05
4.09743e-05
4.487e-05
4.53565e-05
4.03699e-05
4.09723e-05
4.09728e-05
4.53588e-05
4.54959e-05
4.59626e-05
4.11675e-05
4.11678e-05
4.17452e-05
4.17453e-05
4.54954e-05
4.59615e-05
4.1166e-05
4.1168e-05
4.17437e-05
4.17459e-05
4.11709e-05
4.17445e-05
4.17487e-05
4.54966e-05
4.59628e-05
4.11695e-05
4.1747e-05
4.17475e-05
4.59649e-05
4.60974e-05
4.65473e-05
4.19344e-05
4.19348e-05
4.24931e-05
4.24928e-05
4.60964e-05
4.65463e-05
4.19331e-05
4.19351e-05
4.24916e-05
4.24928e-05
4.19386e-05
4.2492e-05
4.24952e-05
4.60977e-05
4.6547e-05
4.19374e-05
4.24938e-05
4.2494e-05
4.6549e-05
4.66773e-05
4.71071e-05
4.26751e-05
4.26743e-05
4.3209e-05
4.32101e-05
4.66761e-05
4.71067e-05
4.26739e-05
4.26749e-05
4.32076e-05
4.32097e-05
4.26763e-05
4.32097e-05
4.32129e-05
4.66768e-05
4.71077e-05
4.26752e-05
4.32112e-05
4.32118e-05
4.71096e-05
4.72319e-05
4.76463e-05
4.33842e-05
4.33859e-05
4.3899e-05
4.38978e-05
4.72321e-05
4.76445e-05
4.3383e-05
4.33847e-05
4.3898e-05
4.38987e-05
4.33894e-05
4.38971e-05
4.39002e-05
4.72324e-05
4.76458e-05
4.33882e-05
4.38998e-05
4.38994e-05
4.76475e-05
4.77663e-05
4.816e-05
4.40662e-05
4.40644e-05
4.45572e-05
4.45596e-05
4.77638e-05
4.8161e-05
4.40654e-05
4.40663e-05
4.45558e-05
4.45581e-05
4.40663e-05
4.45595e-05
4.45625e-05
4.77657e-05
4.81612e-05
4.40656e-05
4.456e-05
4.45615e-05
4.81637e-05
4.82753e-05
4.86566e-05
4.47183e-05
4.47212e-05
4.51917e-05
4.51894e-05
4.82774e-05
4.86535e-05
4.47171e-05
4.47185e-05
4.51907e-05
4.51907e-05
4.47248e-05
4.51889e-05
4.51914e-05
4.82764e-05
4.8655e-05
4.47237e-05
4.51919e-05
4.51906e-05
4.86561e-05
4.8767e-05
4.91232e-05
4.53446e-05
4.53419e-05
4.57904e-05
4.57937e-05
4.87629e-05
4.91257e-05
4.5344e-05
4.53445e-05
4.57891e-05
4.57914e-05
4.53436e-05
4.57938e-05
4.57966e-05
4.87656e-05
4.91251e-05
4.53429e-05
4.57935e-05
4.57958e-05
4.91285e-05
4.92289e-05
4.95789e-05
4.59369e-05
4.59405e-05
4.63705e-05
4.6368e-05
4.92326e-05
4.95752e-05
4.59357e-05
4.59373e-05
4.63698e-05
4.63703e-05
4.59441e-05
4.63679e-05
4.63704e-05
4.92306e-05
4.95778e-05
4.59432e-05
4.63718e-05
4.63697e-05
4.95778e-05
4.96812e-05
5.00035e-05
4.65111e-05
4.65081e-05
4.69158e-05
4.69188e-05
4.96763e-05
5.00061e-05
4.65107e-05
4.65111e-05
4.69143e-05
4.69147e-05
4.65098e-05
4.6919e-05
4.69207e-05
4.968e-05
5.00034e-05
4.65093e-05
4.6917e-05
4.692e-05
5.0008e-05
5.00987e-05
5.04126e-05
4.70457e-05
4.70493e-05
4.74358e-05
4.74341e-05
5.01026e-05
5.04098e-05
4.70444e-05
4.7045e-05
4.74358e-05
4.74379e-05
4.70521e-05
4.74344e-05
4.74376e-05
5.00988e-05
5.04141e-05
4.70513e-05
4.74396e-05
4.74373e-05
5.04132e-05
5.05078e-05
5.0802e-05
4.75666e-05
4.75642e-05
4.79322e-05
4.79346e-05
5.0504e-05
5.08037e-05
4.75666e-05
4.75681e-05
4.79303e-05
4.79294e-05
4.75671e-05
4.79348e-05
4.7935e-05
5.05091e-05
5.07998e-05
4.75668e-05
4.79316e-05
4.79337e-05
5.08041e-05
5.08871e-05
5.11689e-05
4.80456e-05
4.80484e-05
4.84028e-05
4.84013e-05
5.08899e-05
5.11665e-05
4.8044e-05
4.80431e-05
4.84032e-05
4.84049e-05
4.80494e-05
4.84017e-05
4.84058e-05
5.08849e-05
5.11709e-05
4.80483e-05
4.84074e-05
4.84066e-05
5.11713e-05
5.12568e-05
5.15076e-05
4.85209e-05
4.85194e-05
4.88276e-05
4.88306e-05
5.12537e-05
5.15103e-05
4.85215e-05
4.85233e-05
4.8826e-05
4.88265e-05
4.85238e-05
4.88314e-05
4.88308e-05
5.12591e-05
5.15067e-05
4.85245e-05
4.88281e-05
4.88289e-05
5.15095e-05
5.15844e-05
5.18594e-05
4.89325e-05
4.8935e-05
4.92804e-05
4.92784e-05
5.15878e-05
5.1856e-05
4.89309e-05
4.89306e-05
4.92803e-05
4.92795e-05
4.8935e-05
4.92788e-05
4.92817e-05
5.15829e-05
5.18589e-05
4.89327e-05
4.92825e-05
4.92825e-05
5.18601e-05
5.19366e-05
5.21274e-05
4.93757e-05
4.93743e-05
4.96179e-05
4.96203e-05
5.19332e-05
5.21299e-05
4.93761e-05
4.93759e-05
4.96174e-05
4.96197e-05
4.93782e-05
4.96212e-05
4.96222e-05
5.1937e-05
5.21294e-05
4.93799e-05
4.96218e-05
4.96218e-05
5.21315e-05
5.21992e-05
5.2463e-05
4.97243e-05
4.97267e-05
5.00424e-05
5.00424e-05
5.22027e-05
5.24614e-05
4.97234e-05
4.97251e-05
5.00413e-05
5.00392e-05
4.97283e-05
5.00435e-05
5.00449e-05
5.22007e-05
5.24605e-05
4.97266e-05
5.00419e-05
5.00434e-05
5.24632e-05
5.25236e-05
5.26909e-05
5.01075e-05
5.01067e-05
5.03393e-05
5.03387e-05
5.25214e-05
5.269e-05
5.01071e-05
5.01048e-05
5.03398e-05
5.03414e-05
5.01087e-05
5.0339e-05
5.03394e-05
5.25212e-05
5.26926e-05
5.01083e-05
5.03431e-05
5.0341e-05
5.26917e-05
5.27689e-05
5.29647e-05
5.04552e-05
5.04561e-05
5.06759e-05
5.0679e-05
5.27693e-05
5.29669e-05
5.04555e-05
5.04574e-05
5.06748e-05
5.06746e-05
5.04584e-05
5.06813e-05
5.06841e-05
5.27717e-05
5.29642e-05
5.04594e-05
5.06793e-05
5.06828e-05
5.29697e-05
5.30042e-05
5.31975e-05
5.07083e-05
5.07096e-05
5.09712e-05
5.0968e-05
5.30055e-05
5.31938e-05
5.07074e-05
5.07065e-05
5.09709e-05
5.09697e-05
5.07126e-05
5.09674e-05
5.09657e-05
5.30029e-05
5.3196e-05
5.07113e-05
5.09691e-05
5.09658e-05
5.31924e-05
5.3288e-05
5.3411e-05
5.10906e-05
5.10894e-05
5.12602e-05
5.12668e-05
5.32858e-05
5.34161e-05
5.10905e-05
5.10901e-05
5.12605e-05
5.12627e-05
5.10892e-05
5.12702e-05
5.12743e-05
5.32875e-05
5.34143e-05
5.10893e-05
5.12699e-05
5.12744e-05
5.34213e-05
5.34301e-05
5.35861e-05
5.12692e-05
5.12754e-05
5.14308e-05
5.14191e-05
5.34352e-05
5.35756e-05
5.12695e-05
5.12715e-05
5.14297e-05
5.14246e-05
5.1283e-05
5.14163e-05
5.14124e-05
5.34333e-05
5.35791e-05
5.1283e-05
5.14196e-05
5.14129e-05
5.35721e-05
5.36913e-05
5.38487e-05
5.15735e-05
5.15661e-05
5.18099e-05
5.18154e-05
5.36827e-05
5.38559e-05
5.15726e-05
5.1569e-05
5.181e-05
5.18119e-05
5.1561e-05
5.18182e-05
5.182e-05
5.36854e-05
5.38528e-05
5.15612e-05
5.18169e-05
5.18196e-05
5.38594e-05
5.38619e-05
5.38365e-05
5.18185e-05
5.18254e-05
5.18183e-05
5.18233e-05
5.38703e-05
5.38341e-05
5.18188e-05
5.18213e-05
5.18184e-05
5.18202e-05
5.18314e-05
5.18267e-05
5.18291e-05
5.38668e-05
5.38346e-05
5.1831e-05
5.18255e-05
5.18288e-05
5.3836e-05
5.39118e-05
5.41922e-05
5.1849e-05
5.18484e-05
5.21926e-05
5.21895e-05
5.39031e-05
5.41905e-05
5.18488e-05
5.18477e-05
5.21926e-05
5.219e-05
5.18513e-05
5.21891e-05
5.21884e-05
5.39059e-05
5.41907e-05
5.18514e-05
5.2191e-05
5.21886e-05
5.41909e-05
5.42129e-05
5.41615e-05
5.22336e-05
5.2235e-05
5.22581e-05
5.22631e-05
5.42144e-05
5.41688e-05
5.22339e-05
5.22335e-05
5.22586e-05
5.22604e-05
5.22364e-05
5.22659e-05
5.22668e-05
5.42134e-05
5.41661e-05
5.22366e-05
5.22649e-05
5.2267e-05
5.41709e-05
5.42243e-05
5.44534e-05
5.22894e-05
5.22938e-05
5.24579e-05
5.24564e-05
5.4228e-05
5.44478e-05
5.22898e-05
5.2292e-05
5.24577e-05
5.24562e-05
5.22979e-05
5.24573e-05
5.24586e-05
5.42271e-05
5.44503e-05
5.22982e-05
5.24583e-05
5.24584e-05
5.44503e-05
5.44433e-05
5.40016e-05
5.24464e-05
5.24451e-05
5.22944e-05
5.22955e-05
5.44388e-05
5.40049e-05
5.24461e-05
5.24443e-05
5.22942e-05
5.22917e-05
5.24473e-05
5.22964e-05
5.22963e-05
5.44404e-05
5.39997e-05
5.2447e-05
5.22948e-05
5.22964e-05
5.40051e-05
5.40314e-05
5.55866e-05
5.23195e-05
5.23205e-05
5.3309e-05
5.33085e-05
5.40345e-05
5.55843e-05
5.23194e-05
5.23171e-05
5.331e-05
5.33115e-05
5.23208e-05
5.33107e-05
5.33098e-05
5.40294e-05
5.55899e-05
5.2321e-05
5.33135e-05
5.33103e-05
5.55853e-05
5.5708e-05
5.36228e-05
5.34446e-05
5.34442e-05
5.25966e-05
5.25976e-05
5.57058e-05
5.36244e-05
5.34458e-05
5.34475e-05
5.25968e-05
5.25965e-05
5.34471e-05
5.26e-05
5.26048e-05
5.57117e-05
5.36236e-05
5.34477e-05
5.26022e-05
5.26057e-05
5.36324e-05
5.30595e-05
5.18282e-05
5.15855e-05
5.15874e-05
5.06506e-05
5.06535e-05
5.30619e-05
5.18342e-05
5.15852e-05
5.15839e-05
5.06497e-05
5.06482e-05
5.15924e-05
5.06569e-05
5.06545e-05
5.30593e-05
5.18265e-05
5.15928e-05
5.06516e-05
5.0654e-05
5.18289e-05
5.23528e-05
5.91221e-05
5.08711e-05
5.08743e-05
5.60365e-05
5.60361e-05
5.236e-05
5.91193e-05
5.08701e-05
5.08692e-05
5.60363e-05
5.60379e-05
5.08745e-05
5.60363e-05
5.60366e-05
5.23516e-05
5.91223e-05
5.08737e-05
5.60375e-05
5.6036e-05
5.91212e-05
5.98164e-05
5.93009e-05
5.7266e-05
5.72638e-05
5.78069e-05
5.78027e-05
5.98121e-05
5.9292e-05
5.72663e-05
5.72674e-05
5.7808e-05
5.78079e-05
5.72654e-05
5.78028e-05
5.78052e-05
5.98164e-05
5.93006e-05
5.72652e-05
5.78084e-05
5.78058e-05
5.92969e-05
5.79584e-05
4.80934e-05
5.68963e-05
5.68915e-05
4.81191e-05
4.81204e-05
5.79511e-05
4.8099e-05
5.68982e-05
5.68967e-05
4.81214e-05
4.81194e-05
5.68946e-05
4.81271e-05
4.81237e-05
5.79583e-05
4.80965e-05
5.68961e-05
4.81263e-05
4.81266e-05
4.80993e-05
4.7187e-05
4.59289e-05
4.61856e-05
4.61886e-05
4.44121e-05
4.4416e-05
4.71939e-05
4.59344e-05
4.61875e-05
4.61863e-05
4.44126e-05
4.44133e-05
4.61918e-05
4.44201e-05
4.44192e-05
4.71904e-05
4.59318e-05
4.61945e-05
4.44184e-05
4.44208e-05
4.59352e-05
4.67931e-05
5.6135e-05
4.46262e-05
4.46298e-05
5.24269e-05
5.24268e-05
4.67966e-05
5.61326e-05
4.46262e-05
4.46276e-05
5.24241e-05
5.24276e-05
4.4633e-05
5.24228e-05
5.24278e-05
4.67954e-05
5.61341e-05
4.4634e-05
5.24243e-05
5.24251e-05
5.61351e-05
5.76695e-05
6.33544e-05
5.53814e-05
5.53806e-05
6.09241e-05
6.09229e-05
5.76672e-05
6.33522e-05
5.53791e-05
5.53812e-05
6.09231e-05
6.09228e-05
5.53812e-05
6.09227e-05
6.09229e-05
5.76681e-05
6.33522e-05
5.53788e-05
6.09224e-05
6.09217e-05
6.33518e-05
6.37421e-05
6.24107e-05
6.16774e-05
6.16764e-05
6.1691e-05
6.16907e-05
6.37402e-05
6.24118e-05
6.16769e-05
6.1676e-05
6.16916e-05
6.16901e-05
6.16765e-05
6.16933e-05
6.16916e-05
6.37399e-05
6.24111e-05
6.16756e-05
6.16926e-05
6.16918e-05
6.24118e-05
6.13285e-05
5.39192e-05
6.04974e-05
6.04981e-05
5.34122e-05
5.34131e-05
6.13304e-05
5.39215e-05
6.04997e-05
6.04972e-05
5.34146e-05
5.34134e-05
6.05005e-05
5.34192e-05
5.34172e-05
6.13295e-05
5.39222e-05
6.05025e-05
5.34198e-05
5.34202e-05
5.39241e-05
5.3019e-05
4.92157e-05
5.15129e-05
5.15134e-05
4.77121e-05
4.77122e-05
5.30212e-05
4.92164e-05
5.15149e-05
5.15141e-05
4.77129e-05
4.77129e-05
5.15175e-05
4.77159e-05
4.77151e-05
5.30216e-05
4.92171e-05
5.15203e-05
4.77164e-05
4.77167e-05
4.92182e-05
4.90029e-05
4.86463e-05
4.70839e-05
4.70841e-05
4.64623e-05
4.64627e-05
4.90034e-05
4.86461e-05
4.70844e-05
4.70844e-05
4.64621e-05
4.64625e-05
4.70864e-05
4.64639e-05
4.64642e-05
4.90039e-05
4.86464e-05
4.70876e-05
4.64643e-05
4.64643e-05
4.86471e-05
4.88173e-05
5.00882e-05
4.64939e-05
4.64944e-05
4.76011e-05
4.76026e-05
4.88172e-05
5.00892e-05
4.64936e-05
4.6494e-05
4.7601e-05
4.76017e-05
4.64957e-05
4.76033e-05
4.76035e-05
4.88173e-05
5.00891e-05
4.64956e-05
4.7603e-05
4.76031e-05
5.009e-05
5.0309e-05
5.07219e-05
4.79688e-05
4.79702e-05
4.84305e-05
4.84315e-05
5.03103e-05
5.07229e-05
4.79685e-05
4.79696e-05
4.84314e-05
4.84299e-05
4.79714e-05
4.84341e-05
4.84327e-05
5.03099e-05
5.07223e-05
4.79708e-05
4.84331e-05
4.84338e-05
5.07237e-05
5.06079e-05
4.76719e-05
4.76728e-05
5.06091e-05
4.76732e-05
4.76711e-05
3.83594e-05
3.83577e-05
3.83597e-05
4.76739e-05
5.06082e-05
4.76755e-05
3.73773e-05
3.73765e-05
3.7377e-05
3.7377e-05
3.73701e-05
3.73777e-05
3.73043e-05
3.73768e-05
3.73702e-05
3.73777e-05
3.73768e-05
3.73043e-05
3.73741e-05
3.72959e-05
3.72959e-05
3.58798e-05
4.0872e-05
3.66033e-05
4.51467e-05
5.51147e-05
6.48951e-05
3.58803e-05
4.08712e-05
3.66034e-05
4.51465e-05
3.58932e-05
3.58933e-05
3.58932e-05
3.44005e-05
3.44005e-05
3.44005e-05
3.44005e-05
3.52758e-05
3.56384e-05
3.58929e-05
3.53771e-05
3.60475e-05
3.42365e-05
3.53822e-05
5.51168e-05
6.48994e-05
3.52758e-05
3.58929e-05
3.5638e-05
3.53771e-05
3.60475e-05
3.53822e-05
3.42375e-05
3.65972e-05
3.65977e-05
3.5279e-05
3.40641e-05
3.40633e-05
3.39657e-05
5.13534e-05
3.46793e-05
5.46248e-05
7.65447e-05
8.08614e-05
3.39682e-05
5.13543e-05
3.46789e-05
5.46254e-05
3.39296e-05
3.39297e-05
3.39297e-05
3.25854e-05