/*--------------------------------*- C++ -*----------------------------------*\
| =========                 |                                                 |
| \\      /  F ield         | OpenFOAM: The Open Source CFD Toolbox           |
|  \\    /   O peration     | Version:  v2012                                 |
|   \\  /    A nd           | Website:  www.openfoam.com                      |
|    \\/     M anipulation  |                                                 |
\*---------------------------------------------------------------------------*/
FoamFile
{
    version     2.0;
    format      ascii;
    class       volScalarField;
    location    "375";
    object      nut;
}
// * * * * * * * * * * * * * * * * * * * * * * * * * * * * * * * * * * * * * //

dimensions      [0 2 -1 0 0 0 0];


internalField   nonuniform List<scalar> 
171728
(
0.000233973
0.000233116
0.000233116
0.000233423
0.000232532
0.000227802
0.000227801
0.000223867
0.000230516
0.00022032
0.000220318
0.000209109
0.000227799
0.000211665
0.000211661
0.000193785
0.000224433
0.00020265
0.000202644
0.000179709
0.000220552
0.000193772
0.000193765
0.000167339
0.000216304
0.000185275
0.000185267
0.000156587
0.00021182
0.000177234
0.000177226
0.000147206
0.000207207
0.000169688
0.00016968
0.00013895
0.000202545
0.000162611
0.000162603
0.000131614
0.000197889
0.000155949
0.000155941
0.000124954
0.000193275
0.000149646
0.000149638
0.000118816
0.000188683
0.000143665
0.000143657
0.000113166
0.000184151
0.000137952
0.000137943
0.000107933
0.000179706
0.000132462
0.000132454
0.000103055
0.000175338
0.00012719
0.000127181
9.84357e-05
0.000171035
0.00012215
0.000122141
9.42514e-05
0.000166785
0.000117371
0.00011736
9.06584e-05
0.000162587
0.000112887
0.000112877
8.77319e-05
0.000158414
0.000108755
0.000108744
8.53863e-05
0.000154263
0.000105025
0.000105015
8.3666e-05
0.000150142
0.000101712
0.000101702
8.2576e-05
0.000146062
9.88944e-05
9.88862e-05
8.20938e-05
0.000142046
9.65823e-05
9.65776e-05
8.21471e-05
0.000138115
9.47941e-05
9.47877e-05
8.26845e-05
0.000134294
9.35213e-05
9.35136e-05
8.366e-05
0.000130634
9.27519e-05
9.27505e-05
8.50139e-05
0.000127154
9.24649e-05
9.24664e-05
8.66872e-05
0.000123894
9.26384e-05
9.26324e-05
8.86433e-05
0.000120905
9.32396e-05
9.32361e-05
9.07861e-05
0.000118183
9.42193e-05
9.42264e-05
9.31006e-05
0.000115782
9.55667e-05
9.55637e-05
9.5556e-05
0.000113739
9.72562e-05
9.72398e-05
9.81189e-05
0.000112035
9.91459e-05
9.91745e-05
0.000100708
0.000110628
0.000101365
0.000101329
0.000103377
0.000109795
0.000103792
0.000103845
0.000106046
0.000108931
0.000106308
0.000106229
0.000108883
0.000109065
0.000109121
0.000109216
0.000111461
0.000108698
0.000111936
0.00011185
0.000114268
0.000109693
0.00011492
0.000115018
0.000116974
0.000109994
0.000117977
0.000117812
0.000119671
0.000111444
0.00012098
0.000121305
0.000122373
0.000112723
0.000124383
0.000123923
0.000124857
0.000114492
0.000127323
0.000127719
0.000127792
0.000116438
0.000130618
0.00013046
0.000130133
0.000118635
0.000133815
0.000133828
0.000132741
0.000121102
0.000136981
0.000137006
0.000135288
0.000123752
0.000140159
0.000140122
0.000137756
0.000126581
0.000143263
0.00014329
0.000140141
0.000129533
0.000146366
0.000146371
0.000142556
0.000132646
0.000149402
0.000149397
0.000144858
0.000135887
0.00015239
0.000152394
0.000147116
0.000139215
0.000155343
0.000155341
0.000149346
0.000142607
0.000158215
0.000158215
0.000151498
0.000146089
0.000161033
0.000161035
0.000153599
0.000149571
0.000163799
0.00016379
0.000155647
0.000153122
0.000166464
0.000166475
0.000157624
0.000156646
0.000169115
0.000169098
0.000159565
0.000160218
0.000171638
0.000171653
0.000161414
0.000163708
0.000174138
0.000174117
0.000163237
0.000167248
0.000176533
0.000176552
0.000164971
0.000170706
0.000178881
0.000178852
0.00016667
0.000174108
0.000181129
0.000181156
0.000168282
0.0001775
0.000183309
0.000183272
0.000169854
0.000180866
0.000185474
0.000185504
0.000171383
0.000183883
0.000187363
0.000187325
0.000172738
0.000187476
0.000189547
0.000189566
0.000174285
0.000190001
0.000191146
0.000191132
0.000175369
0.000193543
0.000193154
0.000193138
0.000176848
0.00019609
0.000194863
0.000194877
0.0001779
0.000199043
0.000196227
0.000196203
0.000179042
0.000201664
0.00019824
0.00019824
0.000180286
0.000204611
0.000199428
0.000199413
0.000181155
0.000206187
0.000200781
0.00020079
0.000182101
0.000210512
0.000202737
0.000202714
0.000183399
0.00021014
0.000202435
0.000202423
0.000183179
0.000214515
0.000205241
0.000205235
0.000185131
0.000215807
0.000205476
0.000205459
0.000184977
0.000218444
0.000207254
0.000207254
0.000186941
0.000217209
0.000205132
0.000205106
0.00018323
0.000225607
0.00021366
0.000213674
0.00019346
0.000225501
0.000206379
0.000206375
0.000184187
0.000208348
0.000191811
0.000191765
0.000169865
0.000242705
0.000234126
0.000234132
0.000209963
0.000282349
0.000256751
0.000256786
0.000220252
0.000215286
0.000182777
0.000182757
0.000161827
0.000165819
0.000157991
0.000157973
0.000145685
0.000204542
0.000215214
0.000215212
0.000192912
0.000297608
0.000263919
0.000263903
0.000229742
0.000340091
0.000278124
0.000278101
0.000231794
0.000270409
0.000221484
0.000221478
0.000192672
0.000210578
0.000192448
0.000192441
0.00017193
0.000194629
0.000187964
0.000187956
0.000169592
0.000206652
0.000197726
0.000197714
0.000176955
0.000225789
0.000204341
0.000204334
0.000183561
0.000234266
0.000234448
0.000234449
0.000234267
0.000234448
0.000234449
0.000234274
0.000234274
0.000234274
0.000234274
0.000234448
0.000234448
0.000234266
0.000234448
0.000234448
0.000234266
0.000233423
0.000226204
0.000233116
0.000233114
0.000229361
0.000229357
0.000233423
0.000226205
0.000233114
0.000233114
0.000229359
0.000229356
0.000233116
0.000229364
0.000229361
0.000233423
0.000226202
0.000233114
0.000229363
0.000229359
0.000226202
0.000223867
0.00021223
0.000227799
0.000227794
0.000222332
0.000222326
0.000223868
0.000212234
0.000227797
0.000227792
0.000222332
0.000222323
0.000227798
0.000222339
0.000222331
0.000223866
0.000212227
0.000227797
0.000222336
0.000222331
0.000212228
0.000209111
0.00019706
0.000220313
0.000220307
0.000213879
0.000213874
0.000209112
0.000197066
0.000220314
0.000220304
0.000213883
0.000213869
0.000220311
0.00021389
0.000213877
0.000209108
0.000197057
0.000220313
0.000213886
0.000213882
0.000197058
0.000193788
0.000182876
0.000211654
0.000211648
0.00020489
0.000204884
0.000193792
0.000182883
0.000211658
0.000211643
0.000204897
0.000204879
0.000211651
0.000204905
0.000204887
0.000193784
0.000182872
0.000211657
0.000204899
0.000204896
0.000182872
0.000179713
0.000170268
0.000202634
0.000202628
0.000195943
0.000195937
0.000179717
0.000170274
0.000202643
0.000202622
0.000195954
0.000195931
0.000202631
0.000195962
0.00019594
0.000179708
0.000170263
0.000202641
0.000195955
0.000195953
0.000170264
0.000167344
0.000159242
0.000193753
0.000193747
0.000187336
0.000187331
0.000167349
0.000159249
0.000193765
0.000193741
0.000187351
0.000187324
0.00019375
0.000187359
0.000187333
0.000167339
0.000159238
0.000193764
0.000187351
0.00018735
0.000159238
0.000156592
0.000149613
0.000185253
0.000185247
0.000179173
0.000179167
0.000156597
0.00014962
0.000185268
0.00018524
0.000179191
0.00017916
0.000185249
0.000179198
0.00017917
0.000156587
0.000149608
0.000185267
0.000179189
0.00017919
0.000149608
0.000147212
0.000141107
0.000177208
0.000177203
0.000171501
0.000171496
0.000147216
0.000141113
0.000177227
0.000177195
0.000171521
0.000171488
0.000177205
0.000171529
0.000171498
0.000147206
0.000141101
0.000177225
0.00017152
0.000171521
0.000141101
0.000138956
0.000133547
0.00016966
0.000169655
0.000164309
0.000164304
0.000138961
0.000133554
0.000169681
0.000169647
0.000164332
0.000164296
0.000169658
0.000164339
0.000164307
0.00013895
0.000133541
0.00016968
0.000164331
0.000164332
0.000133541
0.000131621
0.000126686
0.000162581
0.000162576
0.000157546
0.000157541
0.000131627
0.000126693
0.000162605
0.000162567
0.000157572
0.000157533
0.000162578
0.000157579
0.000157545
0.000131615
0.000126679
0.000162604
0.00015757
0.000157571
0.000126679
0.000124961
0.000120361
0.000155916
0.000155912
0.000151157
0.000151152
0.000124966
0.00012037
0.000155942
0.000155903
0.000151184
0.000151144
0.000155915
0.000151192
0.000151156
0.000124954
0.000120355
0.000155942
0.000151183
0.000151184
0.000120355
0.000118821
0.000114425
0.000149612
0.000149607
0.000145096
0.00014509
0.000118828
0.000114432
0.000149639
0.000149599
0.000145124
0.000145083
0.000149611
0.000145132
0.000145095
0.000118816
0.000114418
0.000149639
0.000145123
0.000145124
0.000114418
0.000113175
0.000108834
0.00014363
0.000143624
0.000139318
0.000139313
0.000113179
0.000108843
0.000143658
0.000143616
0.000139347
0.000139305
0.000143629
0.000139356
0.000139319
0.000113167
0.00010883
0.000143658
0.000139347
0.000139348
0.000108828
0.000107938
0.000103702
0.000137916
0.000137909
0.000133776
0.00013377
0.000107945
0.000103707
0.000137944
0.000137901
0.000133805
0.000133762
0.000137915
0.000133814
0.000133776
0.000107934
0.000103695
0.000137944
0.000133805
0.000133805
0.000103693
0.000103064
9.91272e-05
0.000132425
0.000132418
0.000128446
0.000128438
0.000103069
9.91336e-05
0.000132453
0.000132411
0.000128474
0.000128431
0.000132425
0.000128485
0.000128447
0.000103058
9.91219e-05
0.000132454
0.000128475
0.000128476
9.91201e-05
9.84423e-05
9.4991e-05
0.000127151
0.000127143
0.000123345
0.000123337
9.84478e-05
9.49951e-05
0.000127178
0.000127136
0.000123371
0.000123329
0.000127152
0.000123385
0.000123347
9.84364e-05
9.49831e-05
0.000127181
0.000123374
0.000123375
9.49827e-05
9.42594e-05
9.1436e-05
0.000122111
0.000122103
0.000118477
0.00011847
9.42635e-05
9.14411e-05
0.000122137
0.000122096
0.000118502
0.000118461
0.000122113
0.000118517
0.00011848
9.42527e-05
9.14307e-05
0.000122141
0.000118506
0.000118507
9.14289e-05
9.0664e-05
8.83752e-05
0.000117331
0.000117324
0.000113921
0.000113916
9.06698e-05
8.83812e-05
0.000117356
0.000117314
0.000113945
0.000113905
0.000117334
0.000113962
0.000113926
9.066e-05
8.83707e-05
0.000117361
0.000113951
0.000113951
8.83714e-05
8.77357e-05
8.59101e-05
0.000112847
0.000112841
0.00010969
0.000109685
8.77415e-05
8.59141e-05
0.00011287
0.000112831
0.000109714
0.000109675
0.000112851
0.000109731
0.000109696
8.77292e-05
8.5903e-05
0.000112877
0.00010972
0.00010972
8.59056e-05
8.5391e-05
8.40701e-05
0.000108716
0.000108709
0.000105847
0.00010584
8.53962e-05
8.40754e-05
0.000108737
0.000108699
0.000105869
0.000105831
0.000108721
0.000105886
0.000105853
8.53854e-05
8.40672e-05
0.000108745
0.000105876
0.000105876
8.40662e-05
8.36694e-05
8.28592e-05
0.000104988
0.000104979
0.000102454
0.000102444
8.36762e-05
8.28626e-05
0.000105008
0.00010497
0.000102472
0.000102436
0.000104992
0.00010249
0.000102458
8.36693e-05
8.28577e-05
0.000105015
0.000102481
0.00010248
8.28533e-05
8.25795e-05
8.22616e-05
0.000101676
0.000101666
9.95168e-05
9.95043e-05
8.25843e-05
8.22608e-05
0.000101694
0.000101658
9.95334e-05
9.94984e-05
0.000101681
9.95491e-05
9.95204e-05
8.2579e-05
8.22578e-05
0.000101703
9.95414e-05
9.95412e-05
8.22518e-05
8.20988e-05
8.22054e-05
9.88616e-05
9.88501e-05
9.70803e-05
9.70677e-05
8.20996e-05
8.22097e-05
9.88786e-05
9.88429e-05
9.70954e-05
9.70624e-05
9.88651e-05
9.7111e-05
9.70841e-05
8.20955e-05
8.22032e-05
9.8886e-05
9.71037e-05
9.71039e-05
8.21986e-05
8.21491e-05
8.26503e-05
9.65545e-05
9.65397e-05
9.51659e-05
9.51521e-05
8.21531e-05
8.265e-05
9.657e-05
9.65361e-05
9.51797e-05
9.51455e-05
9.65583e-05
9.51935e-05
9.51657e-05
8.21465e-05
8.26449e-05
9.65776e-05
9.5185e-05
9.51833e-05
8.2642e-05
8.26908e-05
8.35272e-05
9.47658e-05
9.47535e-05
9.37637e-05
9.37506e-05
8.26944e-05
8.35326e-05
9.478e-05
9.47482e-05
9.37761e-05
9.3747e-05
9.47689e-05
9.379e-05
9.3766e-05
8.26876e-05
8.35318e-05
9.47861e-05
9.37844e-05
9.37817e-05
8.35307e-05
8.36585e-05
8.48094e-05
9.34975e-05
9.34828e-05
9.28702e-05
9.28577e-05
8.36633e-05
8.48122e-05
9.35103e-05
9.34762e-05
9.28813e-05
9.28587e-05
9.34987e-05
9.28949e-05
9.2874e-05
8.36633e-05
8.48046e-05
9.3514e-05
9.2894e-05
9.28881e-05
8.48118e-05
8.50113e-05
8.64251e-05
9.27282e-05
9.27156e-05
9.24688e-05
9.24542e-05
8.50152e-05
8.64249e-05
9.27397e-05
9.27153e-05
9.24786e-05
9.24512e-05
9.27319e-05
9.24892e-05
9.24691e-05
8.5016e-05
8.64083e-05
9.27456e-05
9.24843e-05
9.24815e-05
8.64226e-05
8.66953e-05
8.83125e-05
9.24434e-05
9.24311e-05
9.25411e-05
9.25258e-05
8.66909e-05
8.83217e-05
9.24534e-05
9.24334e-05
9.25496e-05
9.25164e-05
9.24427e-05
9.25585e-05
9.25428e-05
8.66778e-05
8.83186e-05
9.24547e-05
9.25472e-05
9.25535e-05
8.83182e-05
8.86398e-05
9.04083e-05
9.26176e-05
9.26067e-05
9.30389e-05
9.30176e-05
8.86396e-05
9.04235e-05
9.26265e-05
9.26016e-05
9.30463e-05
9.30236e-05
9.2625e-05
9.30483e-05
9.30365e-05
8.8632e-05
9.04335e-05
9.26356e-05
9.30525e-05
9.3046e-05
9.04159e-05
9.07841e-05
9.26921e-05
9.32349e-05
9.321e-05
9.39121e-05
9.39113e-05
9.0789e-05
9.27161e-05
9.32429e-05
9.32075e-05
9.39176e-05
9.39168e-05
9.32274e-05
9.394e-05
9.39318e-05
9.08033e-05
9.27038e-05
9.32366e-05
9.39439e-05
9.39399e-05
9.27039e-05
9.30792e-05
9.51522e-05
9.42035e-05
9.41916e-05
9.51915e-05
9.51832e-05
9.3118e-05
9.51273e-05
9.42094e-05
9.41992e-05
9.51967e-05
9.51699e-05
9.4217e-05
9.52103e-05
9.51864e-05
9.31124e-05
9.51174e-05
9.42248e-05
9.5195e-05
9.5193e-05
9.5135e-05
9.55742e-05
9.76514e-05
9.55503e-05
9.55405e-05
9.67884e-05
9.67748e-05
9.55676e-05
9.76422e-05
9.55556e-05
9.55389e-05
9.67922e-05
9.67795e-05
9.55554e-05
9.68006e-05
9.67884e-05
9.55517e-05
9.76575e-05
9.55618e-05
9.68033e-05
9.67943e-05
9.76677e-05
9.81029e-05
0.000100248
9.72247e-05
9.72302e-05
9.86376e-05
9.86034e-05
9.80933e-05
0.000100248
9.72287e-05
9.72155e-05
9.86402e-05
9.86099e-05
9.72285e-05
9.86271e-05
9.86432e-05
9.81014e-05
0.000100241
9.72338e-05
9.86316e-05
9.86472e-05
0.000100239
0.000100708
0.000102923
9.91744e-05
9.91227e-05
0.000100773
0.000100809
0.000100695
0.000102931
9.91777e-05
9.91534e-05
0.000100776
0.000100802
9.91532e-05
0.000100835
0.000100825
0.000100706
0.000102932
9.91575e-05
0.000100826
0.000100829
0.000102915
0.000103389
0.000105602
0.000101304
0.00010134
0.000103198
0.000103091
0.000103409
0.000105556
0.000101305
0.000101305
0.000103201
0.000103116
0.000101386
0.000103111
0.00010306
0.000103388
0.000105568
0.000101388
0.000103131
0.000103064
0.000105576
0.000106111
0.000108239
0.000103838
0.000103772
0.000105547
0.000105686
0.000106049
0.000108361
0.000103843
0.00010383
0.000105544
0.000105636
0.000103725
0.000105715
0.000105783
0.000106079
0.000108342
0.00010373
0.000105665
0.000105783
0.000108397
0.000108702
0.000111165
0.000106226
0.000106279
0.000108585
0.000108345
0.000108807
0.000110996
0.000106222
0.000106201
0.000108592
0.000108448
0.000106365
0.000108357
0.000108327
0.000108773
0.00011102
0.000106363
0.000108456
0.000108333
0.000110948
0.000111659
0.000113575
0.00010923
0.000109108
0.000110947
0.000111251
0.000111535
0.000113797
0.000109238
0.000109204
0.000110937
0.000111078
0.000109111
0.000111285
0.000111232
0.000111572
0.000113738
0.000109118
0.00011111
0.000111225
0.000113822
0.000114056
0.000116728
0.000111756
0.000111906
0.000114454
0.000114068
0.000114247
0.000116423
0.000111749
0.000111823
0.000114474
0.000114362
0.000111887
0.000114077
0.000114171
0.000114179
0.000116594
0.000111883
0.000114371
0.000114189
0.000116439
0.000117227
0.000118927
0.000115114
0.00011491
0.000116939
0.000117289
0.000116939
0.000119281
0.000115129
0.000115007
0.000116913
0.000116861
0.000114949
0.000117318
0.000117185
0.000117087
0.000118952
0.000114961
0.000116887
0.000117162
0.000119207
0.000119399
0.000122028
0.00011777
0.000117946
0.000120404
0.000120089
0.000119721
0.000121697
0.000117754
0.000117784
0.000120439
0.00012065
0.000118002
0.00012011
0.000120374
0.000119461
0.000122171
0.000117987
0.000120672
0.000120407
0.000121935
0.000122508
0.00012444
0.000121157
0.000120964
0.000123384
0.000123602
0.000122213
0.000124703
0.000121185
0.000121288
0.000123357
0.000123037
0.000121047
0.000123612
0.000123245
0.000122612
0.000124175
0.000121073
0.000123045
0.000123218
0.000124345
0.000124913
0.000127201
0.000124198
0.000124369
0.000126634
0.000126528
0.000125162
0.000127066
0.000124172
0.000123912
0.000126654
0.000126882
0.00012413
0.000126555
0.000126787
0.000124652
0.000127435
0.000124103
0.000126911
0.000126806
0.000127336
0.000127653
0.000129739
0.000127418
0.000127295
0.000129794
0.000129769
0.000127501
0.000129746
0.000127445
0.000127689
0.000129797
0.000129703
0.000127571
0.000129787
0.000129787
0.000127928
0.00012963
0.000127597
0.000129722
0.000129789
0.000129708
0.000130191
0.000132312
0.000130599
0.000130603
0.000132987
0.000133015
0.00013022
0.00013234
0.000130594
0.000130445
0.000132984
0.000132966
0.000130553
0.00013303
0.00013296
0.000130026
0.000132319
0.000130547
0.000132983
0.000132958
0.000132288
0.000132748
0.000134837
0.000133779
0.000133798
0.000136178
0.000136165
0.000132767
0.000134831
0.000133782
0.000133809
0.000136186
0.000136207
0.000133774
0.000136183
0.000136195
0.000132797
0.000134862
0.000133777
0.000136227
0.000136203
0.000134858
0.000135271
0.000137329
0.000136978
0.000136962
0.000139354
0.000139353
0.000135264
0.000137332
0.000136986
0.000136986
0.000139356
0.000139314
0.000137
0.000139373
0.000139385
0.000135273
0.000137297
0.000137007
0.000139336
0.000139387
0.000137344
0.000137745
0.000139764
0.000140143
0.00014014
0.000142492
0.000142471
0.00013775
0.00013975
0.000140145
0.0001401
0.000142498
0.000142486
0.000140161
0.000142486
0.000142466
0.000137714
0.000139764
0.000140162
0.000142504
0.000142471
0.000139737
0.000140166
0.000142132
0.000143266
0.000143248
0.00014557
0.000145578
0.000140153
0.000142146
0.000143273
0.000143272
0.000145577
0.000145585
0.000143241
0.000145597
0.000145601
0.000140176
0.000142147
0.000143248
0.000145607
0.000145608
0.000142157
0.000142522
0.000144471
0.000146337
0.000146347
0.000148629
0.000148627
0.000142539
0.000144473
0.000146344
0.000146348
0.000148634
0.00014862
0.000146381
0.000148647
0.000148656
0.000142535
0.000144465
0.000146387
0.000148643
0.000148662
0.000144487
0.000144852
0.000146756
0.000149388
0.000149384
0.000151641
0.000151632
0.000144851
0.000146754
0.000149394
0.000149375
0.000151647
0.000151629
0.000149403
0.000151647
0.000151636
0.000144843
0.00014675
0.000149408
0.000151649
0.000151643
0.000146749
0.000147121
0.000148983
0.000152382
0.000152374
0.000154595
0.000154594
0.00014712
0.000148987
0.00015239
0.000152374
0.000154601
0.000154589
0.00015238
0.000154612
0.000154607
0.000147117
0.000148984
0.000152388
0.000154611
0.000154614
0.000148992
0.000149337
0.000151153
0.000155326
0.000155325
0.000157484
0.000157481
0.000149341
0.000151156
0.000155333
0.000155319
0.000157492
0.000157479
0.000155337
0.000157499
0.000157495
0.000149337
0.000151151
0.000155344
0.000157502
0.000157504
0.000151159
0.000151491
0.000153273
0.000158196
0.000158196
0.000160326
0.000160322
0.000151494
0.000153276
0.000158204
0.000158192
0.000160333
0.000160315
0.000158212
0.00016034
0.000160332
0.00015149
0.000153268
0.000158221
0.000160336
0.00016034
0.000153276
0.000153599
0.000155326
0.000161025
0.000161017
0.000163086
0.000163089
0.0001536
0.000155331
0.000161033
0.000161014
0.000163094
0.000163082
0.000161023
0.000163108
0.000163099
0.000153593
0.000155325
0.000161031
0.000163105
0.000163107
0.000155331
0.000155636
0.000157331
0.00016377
0.000163778
0.000165801
0.000165791
0.000155645
0.00015733
0.000163778
0.000163764
0.00016581
0.000165789
0.000163793
0.000165808
0.000165801
0.000155636
0.000157325
0.000163801
0.000165811
0.000165811
0.000157333
0.000157629
0.000159261
0.000166464
0.000166448
0.000168424
0.000168435
0.000157623
0.000159273
0.000166474
0.000166455
0.000168432
0.000168423
0.000166454
0.000168455
0.000168446
0.000157623
0.000159265
0.000166464
0.000168449
0.000168455
0.000159273
0.000159545
0.000161161
0.000169076
0.000169093
0.000171014
0.000170998
0.000159563
0.000161153
0.000169083
0.00016907
0.000171024
0.000170998
0.000169108
0.000171016
0.000171006
0.000159549
0.000161148
0.000169117
0.00017102
0.000171015
0.000161154
0.000161431
0.000162955
0.000171644
0.000171622
0.000173482
0.000173499
0.000161416
0.000162974
0.000171656
0.000171633
0.000173491
0.000173481
0.000171625
0.000173519
0.000173509
0.000161419
0.000162962
0.000171636
0.000173508
0.00017352
0.000162974
0.000163208
0.000164744
0.000174093
0.000174115
0.000175934
0.000175917
0.000163235
0.000164734
0.000174101
0.000174088
0.000175946
0.000175925
0.000174131
0.000175938
0.000175928
0.000163215
0.000164735
0.000174141
0.000175949
0.000175939
0.000164734
0.000164992
0.000166427
0.000176539
0.000176515
0.000178281
0.000178294
0.000164973
0.000166446
0.000176553
0.000176531
0.000178288
0.000178264
0.00017652
0.000178315
0.000178298
0.000164983
0.000166423
0.000176532
0.000178292
0.000178309
0.000166442
0.000166645
0.000168063
0.000178837
0.000178858
0.000180537
0.000180525
0.000166672
0.000168058
0.000178844
0.000178822
0.000180553
0.000180543
0.000178867
0.000180548
0.000180543
0.000166641
0.000168069
0.000178877
0.000180568
0.000180557
0.000168064
0.000168292
0.000169663
0.000181127
0.000181108
0.000182775
0.000182785
0.000168278
0.000169677
0.000181145
0.000181132
0.000182779
0.000182749
0.000181123
0.000182806
0.000182781
0.000168297
0.000169648
0.000181137
0.000182776
0.000182787
0.000169665
0.000169845
0.00017117
0.000183271
0.000183287
0.000184902
0.000184889
0.000169867
0.000171165
0.000183275
0.000183244
0.00018492
0.000184905
0.000183283
0.000184912
0.000184912
0.000169829
0.000171176
0.00018329
0.000184935
0.000184933
0.000171177
0.000171378
0.000172585
0.000185467
0.000185451
0.000186852
0.000186868
0.000171368
0.000172606
0.000185487
0.000185474
0.000186859
0.00018684
0.000185475
0.000186894
0.000186866
0.000171387
0.000172579
0.000185497
0.000186865
0.000186869
0.00017259
0.000172734
0.000174109
0.000187323
0.000187338
0.000189064
0.000189046
0.000172759
0.000174099
0.000187328
0.000187304
0.000189078
0.000189045
0.000187331
0.000189069
0.000189059
0.000172723
0.000174101
0.000187331
0.000189076
0.000189077
0.000174105
0.000174285
0.000175226
0.00018954
0.000189524
0.000190593
0.000190603
0.000174272
0.000175244
0.000189558
0.000189529
0.000190606
0.000190599
0.000189543
0.000190628
0.000190611
0.000174281
0.000175234
0.000189568
0.000190627
0.000190627
0.000175242
0.000175353
0.000176754
0.000191107
0.000191119
0.000192825
0.000192825
0.000175378
0.000176755
0.000191118
0.000191109
0.000192833
0.000192796
0.000191124
0.000192853
0.000192837
0.000175361
0.000176737
0.000191131
0.000192827
0.000192839
0.000176751
0.000176854
0.000177713
0.000193135
0.000193128
0.00019419
0.000194178
0.000176851
0.000177712
0.000193147
0.000193106
0.00019421
0.000194194
0.000193137
0.000194197
0.000194173
0.000176837
0.000177717
0.000193146
0.000194216
0.000194199
0.000177706
0.000177899
0.000179039
0.000194843
0.00019484
0.000196099
0.000196119
0.000177904
0.00017906
0.000194861
0.00019485
0.000196108
0.000196085
0.000194844
0.000196156
0.000196153
0.00017791
0.000179035
0.000194868
0.000196133
0.000196161
0.000179065
0.000179024
0.000180026
0.000196183
0.000196193
0.000197492
0.000197462
0.000179041
0.000180009
0.000196192
0.000196164
0.000197505
0.00019747
0.000196215
0.000197476
0.000197436
0.000179016
0.000180011
0.000196221
0.000197476
0.000197451
0.000179985
0.000180315
0.000181207
0.000198243
0.000198223
0.000199364
0.000199406
0.000180304
0.000181244
0.000198257
0.000198227
0.000199382
0.000199373
0.000198207
0.00019945
0.000199451
0.000180305
0.000181223
0.000198223
0.000199436
0.000199466
0.000181258
0.000181094
0.000181812
0.000199334
0.000199381
0.000199923
0.000199834
0.000181136
0.000181756
0.000199353
0.000199345
0.000199932
0.00019987
0.000199434
0.000199834
0.000199782
0.000181114
0.000181768
0.000199448
0.000199847
0.000199801
0.000181724
0.000182187
0.000183448
0.000200844
0.000200778
0.000202577
0.000202602
0.000182136
0.000183485
0.000200854
0.0002008
0.000202593
0.000202578
0.000200732
0.000202639
0.000202622
0.000182145
0.000183461
0.000200749
0.000202621
0.000202635
0.000183484
0.000183348
0.000183073
0.000202654
0.000202694
0.000202357
0.00020241
0.000183394
0.000183084
0.000202671
0.000202663
0.000202375
0.000202373
0.000202726
0.00020246
0.000202457
0.000183367
0.000183071
0.000202738
0.000202433
0.000202468
0.000183087
0.00018322
0.000185186
0.000202393
0.000202397
0.000204875
0.000204838
0.000183188
0.000185159
0.000202408
0.000202382
0.000204889
0.000204842
0.000202421
0.000204852
0.00020482
0.00018319
0.000185159
0.000202436
0.000204858
0.000204837
0.000185141
0.000185148
0.000184866
0.000205221
0.000205216
0.000205263
0.0002053
0.000185142
0.000184924
0.000205238
0.000205205
0.000205283
0.000205273
0.000205215
0.000205341
0.000205321
0.000185134
0.000184894
0.000205232
0.000205321
0.000205337
0.000184924
0.000184942
0.000187144
0.000205396
0.00020543
0.000207025
0.000207007
0.000184982
0.000187112
0.000205416
0.000205411
0.000207039
0.000207007
0.000205455
0.000207035
0.000207017
0.000184961
0.000187124
0.000205473
0.000207036
0.000207032
0.000187111
0.000186963
0.000183879
0.000207247
0.000207228
0.000205822
0.000205825
0.000186936
0.000183904
0.000207261
0.000207225
0.000205835
0.000205792
0.000207239
0.000205851
0.00020583
0.000186944
0.000183863
0.000207253
0.000205829
0.000205846
0.000183901
0.000183209
0.00019243
0.000205101
0.000205106
0.00021181
0.000211802
0.000183237
0.000192425
0.000205113
0.000205067
0.000211832
0.000211812
0.000205108
0.000211837
0.000211802
0.000183192
0.000192438
0.000205123
0.000211841
0.000211821
0.000192403
0.000193481
0.00018796
0.000213638
0.000213626
0.000213648
0.000213643
0.000193473
0.000187966
0.000213661
0.000213644
0.000213668
0.000213641
0.000213634
0.000213676
0.000213692
0.000193492
0.000187965
0.000213654
0.000213697
0.000213715
0.000188009
0.000184141
0.000169779
0.00020634
0.000206342
0.000194478
0.000194491
0.000184151
0.000169814
0.000206356
0.000206321
0.000194487
0.000194447
0.000206377
0.000194531
0.0001945
0.00018414
0.000169765
0.000206396
0.000194493
0.000194513
0.000169784
0.000169876
0.000205347
0.000191752
0.000191768
0.000223969
0.000223969
0.000169922
0.000205352
0.000191759
0.000191723
0.000223983
0.000223963
0.00019177
0.000223996
0.000223965
0.000169865
0.000205344
0.00019178
0.000223984
0.000223977
0.00020534
0.00020998
0.000226915
0.000234119
0.000234105
0.000255888
0.00025585
0.000209976
0.000226863
0.000234138
0.000234113
0.000255911
0.000255879
0.000234109
0.000255867
0.000255857
0.000209975
0.000226901
0.000234125
0.000255897
0.000255875
0.000226874
0.000220284
0.000167907
0.000256774
0.000256726
0.000197441
0.000197437
0.000220235
0.000167933
0.000256804
0.000256759
0.000197469
0.000197426
0.000256737
0.000197497
0.000197451
0.000220271
0.000167914
0.00025676
0.000197485
0.000197482
0.000167923
0.000161796
0.000144288
0.000182704
0.000182714
0.000162073
0.000162094
0.000161829
0.000144325
0.000182729
0.000182694
0.000162093
0.000162069
0.000182728
0.000162143
0.000162109
0.000161805
0.0001443
0.000182756
0.000162122
0.000162135
0.000144315
0.000145661
0.000185958
0.000157926
0.000157946
0.000196724
0.000196719
0.000145687
0.000185954
0.000157942
0.000157924
0.000196724
0.000196717
0.000157962
0.000196718
0.000196724
0.00014567
0.00018595
0.000157985
0.00019672
0.000196724
0.000185956
0.00019293
0.000226858
0.000215224
0.000215214
0.000256304
0.000256288
0.000192927
0.000226855
0.000215228
0.00021521
0.000256317
0.000256276
0.000215215
0.000256316
0.000256284
0.00019292
0.00022684
0.000215219
0.000256302
0.000256296
0.000226837
0.000229767
0.000237858
0.000263906
0.00026389
0.00028131
0.000281297
0.000229764
0.00023787
0.000263921
0.000263876
0.00028133
0.000281278
0.000263887
0.000281339
0.000281294
0.000229748
0.00023785
0.0002639
0.000281318
0.000281311
0.000237849
0.000231789
0.000198197
0.000278058
0.000278056
0.000233782
0.000233784
0.000231802
0.000198216
0.000278094
0.000278034
0.000233817
0.000233774
0.000278065
0.00023385
0.000233809
0.000231786
0.000198205
0.000278096
0.000233842
0.000233844
0.000198213
0.000192647
0.000173457
0.000221417
0.000221417
0.000196617
0.000196613
0.000192665
0.000173467
0.000221449
0.00022141
0.000196639
0.000196609
0.000221441
0.00019666
0.000196628
0.000192655
0.00017346
0.000221475
0.000196653
0.000196654
0.000173464
0.000171924
0.000169212
0.00019241
0.000192404
0.000188081
0.000188075
0.000171933
0.000169217
0.000192429
0.0001924
0.000188094
0.000188066
0.000192417
0.000188108
0.000188082
0.000171924
0.000169207
0.00019244
0.000188099
0.000188098
0.000169209
0.000169595
0.000176022
0.000187937
0.000187932
0.000195073
0.000195076
0.000169599
0.000176034
0.00018795
0.000187923
0.000195089
0.000195062
0.000187938
0.000195106
0.000195079
0.000169589
0.00017602
0.000187954
0.000195093
0.000195092
0.000176024
0.000176953
0.000181441
0.000197694
0.000197696
0.00020472
0.000204721
0.000176965
0.00018145
0.000197708
0.000197686
0.000204734
0.000204715
0.000197701
0.000204749
0.00020473
0.000176951
0.000181442
0.000197715
0.000204743
0.000204745
0.000181448
0.000183555
0.000204314
0.000204315
0.000183562
0.000204327
0.000204309
0.000225798
0.000225789
0.000225799
0.000204323
0.000183555
0.000204338
0.00023473
0.000234746
0.000234729
0.000234729
0.000235117
0.000234798
0.000234701
0.000234727
0.000235118
0.000234798
0.000234727
0.000234701
0.000234867
0.000233566
0.000233566
0.000104651
3.87411e-05
0.000129118
3.98249e-05
2.16834e-05
2.28313e-05
0.000104643
3.87371e-05
0.000129114
3.98214e-05
0.000233973
0.000233973
0.000233973
0.000232935
0.000232935
0.000232935
0.000232935
0.000206196
9.36752e-05
0.000233969
0.000231994
0.000222614
8.72226e-05
0.000233611
2.16823e-05
2.28307e-05
0.00020619
0.000233969
9.36747e-05
0.000231994
0.000222622
0.000233611
8.72282e-05
4.78013e-05
4.77895e-05
0.000231345
4.40184e-05
4.40089e-05
7.25677e-05
4.2434e-05
8.14027e-05
4.37634e-05
2.47749e-05
2.54634e-05
7.25581e-05
4.24305e-05
8.13974e-05
4.37596e-05
0.000232532