/*--------------------------------*- C++ -*----------------------------------*\
| =========                 |                                                 |
| \\      /  F ield         | OpenFOAM: The Open Source CFD Toolbox           |
|  \\    /   O peration     | Version:  v2012                                 |
|   \\  /    A nd           | Website:  www.openfoam.com                      |
|    \\/     M anipulation  |                                                 |
\*---------------------------------------------------------------------------*/
FoamFile
{
    version     2.0;
    format      ascii;
    class       volScalarField;
    location    "375";
    object      p;
}
// * * * * * * * * * * * * * * * * * * * * * * * * * * * * * * * * * * * * * //

dimensions      [0 2 -2 0 0 0 0];


internalField   nonuniform List<scalar> 
171728
(
0.00360143
0.00360176
0.00360176
0.00360481
0.00354607
0.00354649
0.00354649
0.00354948
0.00349532
0.00349529
0.00349529
0.00349804
0.00344293
0.00344295
0.00344295
0.00344572
0.00339158
0.00339159
0.00339159
0.00339434
0.0033416
0.00334161
0.00334161
0.00334433
0.00329307
0.00329309
0.00329309
0.00329576
0.00324583
0.00324586
0.00324586
0.00324851
0.0031997
0.00319973
0.00319972
0.00320234
0.00315446
0.00315449
0.00315449
0.00315708
0.00310995
0.00310998
0.00310997
0.00311254
0.00306603
0.00306605
0.00306605
0.00306859
0.00302263
0.00302265
0.00302265
0.00302516
0.0029797
0.00297972
0.00297972
0.00298222
0.00293719
0.0029372
0.00293719
0.0029397
0.00289509
0.0028951
0.00289511
0.00289759
0.00285338
0.00285337
0.00285337
0.00285586
0.00281203
0.00281203
0.00281203
0.0028145
0.00277101
0.00277099
0.00277099
0.00277345
0.0027303
0.00273027
0.00273027
0.00273274
0.00268989
0.00268985
0.00268985
0.00269231
0.00264974
0.0026497
0.0026497
0.00265214
0.00260984
0.00260979
0.00260979
0.00261223
0.00257018
0.00257012
0.00257012
0.00257255
0.00253074
0.00253068
0.00253068
0.0025331
0.00249152
0.00249146
0.00249146
0.00249387
0.0024525
0.00245245
0.00245245
0.00245484
0.00241368
0.00241364
0.00241364
0.002416
0.00237506
0.00237502
0.00237502
0.00237737
0.00233662
0.00233659
0.00233659
0.00233891
0.00229837
0.00229833
0.00229833
0.00230064
0.00226029
0.00226025
0.00226026
0.00226254
0.00222237
0.00222235
0.00222235
0.00222461
0.00218462
0.0021846
0.0021846
0.00218684
0.00214703
0.00214701
0.00214701
0.00214924
0.00210959
0.00210958
0.00210957
0.00211177
0.0020723
0.00207228
0.00207228
0.00207447
0.00203513
0.00203513
0.00203513
0.0020373
0.00199813
0.0019981
0.0019981
0.00200026
0.00196122
0.00196121
0.00196121
0.00196336
0.00192448
0.00192444
0.00192445
0.00192657
0.00188782
0.00188779
0.00188778
0.00188991
0.0018513
0.00185124
0.00185126
0.00185336
0.00181486
0.00181481
0.0018148
0.00181691
0.00177853
0.00177847
0.00177847
0.00178057
0.0017423
0.00174222
0.00174222
0.00174432
0.00170615
0.00170607
0.00170607
0.00170815
0.00167007
0.00166999
0.00166999
0.00167207
0.00163408
0.00163399
0.00163399
0.00163606
0.00159816
0.00159806
0.00159806
0.00160012
0.0015623
0.00156219
0.00156219
0.00156425
0.0015265
0.00152639
0.00152639
0.00152844
0.00149076
0.00149064
0.00149064
0.00149268
0.00145506
0.00145494
0.00145494
0.00145698
0.00141941
0.00141929
0.00141929
0.00142133
0.00138381
0.00138368
0.00138368
0.00138571
0.00134824
0.00134812
0.00134812
0.00135014
0.00131271
0.00131258
0.00131258
0.0013146
0.0012772
0.00127708
0.00127708
0.0012791
0.00124173
0.0012416
0.0012416
0.00124362
0.00120627
0.00120615
0.00120615
0.00120816
0.00117082
0.00117071
0.00117071
0.00117272
0.0011354
0.00113529
0.00113528
0.00113729
0.00109998
0.00109987
0.00109987
0.00110188
0.00106457
0.00106446
0.00106446
0.00106647
0.00102916
0.00102906
0.00102906
0.00103107
0.000993738
0.000993645
0.000993644
0.000995652
0.000958349
0.000958244
0.000958244
0.000960247
0.000922894
0.000922816
0.000922816
0.000924826
0.000887498
0.000887393
0.000887391
0.000889395
0.000852014
0.00085195
0.000851951
0.000853962
0.000816594
0.000816483
0.000816483
0.000818488
0.000781059
0.000781014
0.000781014
0.000783029
0.000745631
0.00074552
0.000745519
0.000747525
0.000710049
0.000709983
0.000709984
0.000711989
0.000674541
0.000674505
0.000674503
0.000676538
0.000638953
0.000638852
0.000638852
0.000640848
0.00060344
0.0006034
0.000603401
0.000605437
0.000567583
0.000567501
0.0005675
0.000569511
0.000532586
0.000532583
0.000532584
0.000534585
0.000496052
0.000495957
0.000495953
0.000498016
0.000460232
0.000460359
0.000460356
0.00046235
0.000427511
0.000427909
0.000427904
0.000429909
0.000390939
0.000390255
0.000390252
0.00039217
0.000350547
0.000350232
0.000350228
0.000352491
0.000314501
0.00031563
0.000315631
0.000318021
0.000283282
0.000283895
0.000283892
0.000285887
0.000253824
0.000252067
0.000252069
0.000253259
0.000218222
0.000217456
0.000217456
0.000219143
0.000176607
0.000176829
0.00017683
0.000179352
0.000135014
0.000136215
0.000136212
0.000138963
9.74152e-05
9.79442e-05
9.79464e-05
0.000100264
6.34788e-05
6.35143e-05
6.35128e-05
6.53561e-05
3.18393e-05
3.09925e-05
3.09896e-05
3.2481e-05
5.63986e-06
6.39959e-06
6.39811e-06
4.81222e-06
0.00361484
0.00361506
0.00361506
0.00361484
0.00361506
0.00361506
0.00361582
0.00361582
0.00361583
0.00361583
0.00361506
0.00361506
0.00361484
0.00361506
0.00361506
0.00361484
0.00360481
0.00355605
0.00360175
0.00360176
0.00355833
0.00355833
0.00360481
0.00355605
0.00360176
0.00360176
0.00355833
0.00355833
0.00360176
0.00355833
0.00355833
0.00360481
0.00355605
0.00360176
0.00355833
0.00355833
0.00355605
0.00354948
0.00350497
0.00354649
0.00354649
0.00350842
0.00350842
0.00354948
0.00350497
0.00354649
0.00354649
0.00350842
0.00350842
0.00354649
0.00350842
0.00350842
0.00354948
0.00350497
0.00354649
0.00350842
0.00350842
0.00350497
0.00349805
0.0034526
0.00349529
0.00349529
0.00345596
0.00345596
0.00349805
0.0034526
0.00349529
0.00349529
0.00345596
0.00345596
0.00349529
0.00345596
0.00345596
0.00349804
0.0034526
0.00349529
0.00345596
0.00345596
0.0034526
0.00344572
0.00340105
0.00344295
0.00344295
0.00340431
0.00340431
0.00344572
0.00340105
0.00344295
0.00344295
0.00340431
0.00340431
0.00344295
0.00340431
0.00340431
0.00344572
0.00340105
0.00344295
0.00340431
0.00340431
0.00340105
0.00339434
0.00335083
0.00339159
0.00339159
0.00335397
0.00335396
0.00339434
0.00335083
0.00339159
0.00339159
0.00335397
0.00335396
0.00339159
0.00335396
0.00335397
0.00339434
0.00335083
0.00339159
0.00335396
0.00335397
0.00335083
0.00334433
0.00330207
0.00334161
0.00334161
0.00330509
0.00330509
0.00334433
0.00330207
0.00334161
0.00334161
0.00330509
0.00330509
0.00334161
0.00330509
0.00330509
0.00334433
0.00330207
0.00334161
0.00330508
0.00330509
0.00330207
0.00329577
0.00325464
0.00329308
0.00329309
0.00325756
0.00325755
0.00329577
0.00325464
0.00329308
0.00329309
0.00325756
0.00325755
0.00329308
0.00325755
0.00325756
0.00329577
0.00325464
0.00329308
0.00325755
0.00325756
0.00325464
0.00324851
0.00320833
0.00324586
0.00324586
0.00321117
0.00321116
0.00324851
0.00320834
0.00324584
0.00324586
0.00321117
0.00321116
0.00324585
0.00321116
0.00321117
0.00324851
0.00320834
0.00324586
0.00321117
0.00321117
0.00320833
0.00320235
0.00316295
0.00319972
0.00319973
0.00316573
0.00316572
0.00320235
0.00316295
0.00319972
0.00319972
0.00316573
0.00316572
0.00319972
0.00316572
0.00316572
0.00320234
0.00316296
0.00319972
0.00316572
0.00316572
0.00316296
0.00315707
0.00311832
0.00315448
0.00315449
0.00312104
0.00312104
0.00315708
0.00311832
0.00315448
0.00315449
0.00312104
0.00312105
0.00315449
0.00312104
0.00312105
0.00315708
0.00311832
0.00315449
0.00312105
0.00312105
0.00311832
0.00311254
0.0030743
0.00310997
0.00310998
0.00307698
0.00307698
0.00311254
0.0030743
0.00310997
0.00310997
0.00307698
0.00307698
0.00310997
0.00307698
0.00307699
0.00311254
0.0030743
0.00310997
0.00307698
0.00307699
0.0030743
0.0030686
0.0030308
0.00306606
0.00306605
0.00303346
0.00303346
0.0030686
0.0030308
0.00306606
0.00306605
0.00303346
0.00303346
0.00306605
0.00303346
0.00303346
0.0030686
0.0030308
0.00306605
0.00303346
0.00303346
0.0030308
0.00302517
0.00298778
0.00302265
0.00302265
0.00299041
0.0029904
0.00302516
0.00298778
0.00302265
0.00302265
0.00299041
0.0029904
0.00302266
0.0029904
0.0029904
0.00302516
0.00298778
0.00302265
0.0029904
0.0029904
0.00298778
0.00298221
0.00294522
0.00297971
0.00297972
0.00294779
0.0029478
0.00298222
0.00294522
0.00297971
0.00297972
0.00294779
0.00294779
0.00297971
0.0029478
0.0029478
0.00298222
0.00294521
0.00297971
0.0029478
0.0029478
0.00294522
0.0029397
0.00290305
0.0029372
0.0029372
0.00290559
0.00290558
0.0029397
0.00290305
0.0029372
0.00293719
0.00290559
0.00290558
0.0029372
0.00290558
0.00290559
0.0029397
0.00290305
0.0029372
0.00290558
0.00290559
0.00290305
0.00289758
0.00286127
0.00289509
0.0028951
0.00286377
0.00286378
0.00289759
0.00286127
0.00289509
0.00289511
0.00286377
0.00286378
0.0028951
0.00286378
0.00286377
0.00289759
0.00286127
0.0028951
0.00286378
0.00286377
0.00286128
0.00285586
0.00281987
0.00285338
0.00285338
0.00282233
0.00282233
0.00285586
0.00281987
0.00285338
0.00285337
0.00282233
0.00282232
0.00285338
0.00282233
0.00282233
0.00285586
0.00281987
0.00285338
0.00282232
0.00282233
0.00281987
0.0028145
0.00277879
0.00281203
0.00281203
0.00278123
0.00278123
0.0028145
0.00277879
0.00281203
0.00281203
0.00278123
0.00278123
0.00281203
0.00278123
0.00278123
0.0028145
0.00277879
0.00281203
0.00278123
0.00278123
0.00277879
0.00277345
0.00273803
0.00277099
0.00277099
0.00274042
0.00274042
0.00277345
0.00273803
0.00277099
0.00277099
0.00274042
0.00274043
0.00277099
0.00274042
0.00274042
0.00277346
0.00273803
0.00277099
0.00274043
0.00274042
0.00273803
0.00273274
0.00269756
0.00273028
0.00273027
0.00269993
0.00269993
0.00273273
0.00269757
0.00273028
0.00273027
0.00269993
0.00269993
0.00273028
0.00269993
0.00269993
0.00273273
0.00269756
0.00273028
0.00269993
0.00269993
0.00269757
0.00269231
0.00265737
0.00268985
0.00268986
0.00265971
0.00265971
0.00269231
0.00265737
0.00268985
0.00268985
0.00265971
0.00265971
0.00268986
0.00265971
0.00265971
0.00269231
0.00265737
0.00268986
0.00265971
0.00265971
0.00265737
0.00265214
0.00261743
0.0026497
0.00264969
0.00261974
0.00261974
0.00265214
0.00261743
0.00264969
0.0026497
0.00261974
0.00261974
0.00264969
0.00261974
0.00261975
0.00265214
0.00261743
0.0026497
0.00261974
0.00261975
0.00261743
0.00261223
0.00257773
0.00260979
0.00260979
0.00258002
0.00258002
0.00261223
0.00257773
0.00260979
0.00260979
0.00258002
0.00258002
0.00260979
0.00258002
0.00258002
0.00261223
0.00257773
0.00260979
0.00258002
0.00258002
0.00257773
0.00257255
0.00253825
0.00257012
0.00257012
0.00254052
0.00254052
0.00257255
0.00253825
0.00257012
0.00257012
0.00254052
0.00254052
0.00257012
0.00254052
0.00254052
0.00257255
0.00253825
0.00257012
0.00254052
0.00254052
0.00253825
0.0025331
0.00249899
0.00253068
0.00253068
0.00250125
0.00250125
0.0025331
0.00249899
0.00253068
0.00253068
0.00250125
0.00250125
0.00253068
0.00250125
0.00250125
0.0025331
0.00249899
0.00253068
0.00250125
0.00250125
0.00249899
0.00249386
0.00245994
0.00249146
0.00249146
0.00246218
0.00246218
0.00249386
0.00245994
0.00249146
0.00249146
0.00246218
0.00246218
0.00249146
0.00246218
0.00246218
0.00249386
0.00245994
0.00249146
0.00246218
0.00246218
0.00245994
0.00245483
0.00242109
0.00245245
0.00245245
0.00242332
0.00242332
0.00245483
0.00242109
0.00245245
0.00245245
0.00242332
0.00242332
0.00245245
0.00242332
0.00242332
0.00245483
0.00242109
0.00245245
0.00242332
0.00242332
0.00242109
0.002416
0.00238243
0.00241364
0.00241364
0.00238466
0.00238465
0.002416
0.00238243
0.00241364
0.00241364
0.00238466
0.00238465
0.00241364
0.00238465
0.00238466
0.00241601
0.00238243
0.00241364
0.00238465
0.00238465
0.00238243
0.00237736
0.00234396
0.00237502
0.00237502
0.00234618
0.00234618
0.00237737
0.00234396
0.00237502
0.00237502
0.00234618
0.00234618
0.00237502
0.00234618
0.00234618
0.00237737
0.00234396
0.00237502
0.00234618
0.00234618
0.00234396
0.00233891
0.00230567
0.00233659
0.00233659
0.00230788
0.00230788
0.00233891
0.00230567
0.00233659
0.00233659
0.00230788
0.00230788
0.00233659
0.00230788
0.00230788
0.00233891
0.00230567
0.00233659
0.00230788
0.00230788
0.00230567
0.00230064
0.00226755
0.00229834
0.00229833
0.00226976
0.00226976
0.00230064
0.00226755
0.00229834
0.00229833
0.00226976
0.00226976
0.00229834
0.00226976
0.00226976
0.00230064
0.00226755
0.00229834
0.00226976
0.00226976
0.00226755
0.00226254
0.00222961
0.00226025
0.00226025
0.00223181
0.00223181
0.00226254
0.00222961
0.00226025
0.00226026
0.00223181
0.00223181
0.00226025
0.00223181
0.00223181
0.00226254
0.00222961
0.00226025
0.00223181
0.00223181
0.0022296
0.00222461
0.00219182
0.00222235
0.00222235
0.00219402
0.00219402
0.00222461
0.00219182
0.00222235
0.00222235
0.00219402
0.00219402
0.00222235
0.00219402
0.00219403
0.00222461
0.00219182
0.00222235
0.00219402
0.00219402
0.00219182
0.00218684
0.0021542
0.0021846
0.0021846
0.0021564
0.0021564
0.00218684
0.0021542
0.0021846
0.0021846
0.0021564
0.0021564
0.0021846
0.0021564
0.00215639
0.00218684
0.0021542
0.0021846
0.0021564
0.00215639
0.0021542
0.00214923
0.00211673
0.00214701
0.00214701
0.00211892
0.00211892
0.00214923
0.00211673
0.00214701
0.00214701
0.00211892
0.00211892
0.00214701
0.00211892
0.00211892
0.00214924
0.00211673
0.00214701
0.00211892
0.00211892
0.00211673
0.00211178
0.0020794
0.00210957
0.00210958
0.00208159
0.00208159
0.00211178
0.0020794
0.00210957
0.00210957
0.00208159
0.00208159
0.00210957
0.00208159
0.00208159
0.00211178
0.0020794
0.00210957
0.00208159
0.00208159
0.00207941
0.00207447
0.00204222
0.00207228
0.00207228
0.0020444
0.0020444
0.00207446
0.00204222
0.00207228
0.00207228
0.0020444
0.0020444
0.00207228
0.0020444
0.0020444
0.00207446
0.00204222
0.00207228
0.0020444
0.0020444
0.00204222
0.0020373
0.00200517
0.00203512
0.00203512
0.00200735
0.00200734
0.0020373
0.00200517
0.00203512
0.00203513
0.00200735
0.00200734
0.00203513
0.00200734
0.00200734
0.0020373
0.00200517
0.00203513
0.00200734
0.00200734
0.00200517
0.00200026
0.00196825
0.00199811
0.0019981
0.00197042
0.00197042
0.00200026
0.00196826
0.00199811
0.0019981
0.00197042
0.00197042
0.0019981
0.00197042
0.00197043
0.00200026
0.00196826
0.0019981
0.00197042
0.00197043
0.00196826
0.00196335
0.00193147
0.0019612
0.00196121
0.00193362
0.00193362
0.00196335
0.00193146
0.0019612
0.00196121
0.00193363
0.00193363
0.00196121
0.00193362
0.00193362
0.00196336
0.00193146
0.00196121
0.00193363
0.00193362
0.00193146
0.00192658
0.00189479
0.00192445
0.00192444
0.00189694
0.00189695
0.00192657
0.0018948
0.00192445
0.00192445
0.00189694
0.00189693
0.00192444
0.00189695
0.00189694
0.00192657
0.00189479
0.00192444
0.00189693
0.00189694
0.00189479
0.00188991
0.00185823
0.00188778
0.00188779
0.00186037
0.00186036
0.00188991
0.00185822
0.00188778
0.00188778
0.00186037
0.00186038
0.00188779
0.00186036
0.00186038
0.00188991
0.00185824
0.00188778
0.00186038
0.00186038
0.00185823
0.00185336
0.00182178
0.00185125
0.00185124
0.00182391
0.00182391
0.00185335
0.00182178
0.00185125
0.00185126
0.00182391
0.0018239
0.00185125
0.00182391
0.0018239
0.00185337
0.00182177
0.00185125
0.0018239
0.0018239
0.00182177
0.00181691
0.00178542
0.00181481
0.00181481
0.00178754
0.00178754
0.00181692
0.00178542
0.00181481
0.0018148
0.00178754
0.00178754
0.0018148
0.00178754
0.00178754
0.00181691
0.00178542
0.0018148
0.00178754
0.00178754
0.00178542
0.00178056
0.00174916
0.00177847
0.00177847
0.00175128
0.00175127
0.00178056
0.00174916
0.00177847
0.00177847
0.00175128
0.00175128
0.00177847
0.00175128
0.00175128
0.00178057
0.00174916
0.00177847
0.00175128
0.00175128
0.00174916
0.00174431
0.00171299
0.00174222
0.00174222
0.0017151
0.0017151
0.00174431
0.00171299
0.00174223
0.00174222
0.0017151
0.0017151
0.00174223
0.0017151
0.0017151
0.00174431
0.00171299
0.00174223
0.0017151
0.0017151
0.00171299
0.00170815
0.0016769
0.00170607
0.00170607
0.001679
0.001679
0.00170815
0.0016769
0.00170607
0.00170607
0.001679
0.001679
0.00170607
0.001679
0.001679
0.00170815
0.0016769
0.00170607
0.001679
0.001679
0.0016769
0.00167207
0.00164088
0.00166999
0.00166999
0.00164298
0.00164298
0.00167207
0.00164088
0.00166999
0.00166999
0.00164298
0.00164298
0.00166999
0.00164298
0.00164299
0.00167207
0.00164088
0.00166999
0.00164298
0.00164299
0.00164088
0.00163606
0.00160494
0.00163399
0.00163399
0.00160704
0.00160704
0.00163606
0.00160494
0.00163399
0.00163399
0.00160704
0.00160704
0.00163399
0.00160704
0.00160704
0.00163606
0.00160494
0.00163399
0.00160704
0.00160704
0.00160494
0.00160012
0.00156906
0.00159806
0.00159806
0.00157115
0.00157115
0.00160012
0.00156906
0.00159806
0.00159806
0.00157115
0.00157115
0.00159806
0.00157115
0.00157115
0.00160012
0.00156906
0.00159806
0.00157115
0.00157115
0.00156906
0.00156425
0.00153325
0.00156219
0.00156219
0.00153533
0.00153533
0.00156425
0.00153325
0.00156219
0.00156219
0.00153533
0.00153533
0.00156219
0.00153533
0.00153533
0.00156425
0.00153325
0.00156219
0.00153533
0.00153533
0.00153325
0.00152844
0.00149749
0.00152639
0.00152639
0.00149957
0.00149957
0.00152844
0.00149749
0.00152639
0.00152639
0.00149957
0.00149957
0.00152639
0.00149957
0.00149957
0.00152844
0.00149749
0.00152639
0.00149957
0.00149957
0.00149749
0.00149268
0.00146179
0.00149064
0.00149064
0.00146386
0.00146386
0.00149268
0.00146179
0.00149064
0.00149064
0.00146386
0.00146386
0.00149064
0.00146386
0.00146386
0.00149268
0.00146179
0.00149064
0.00146386
0.00146386
0.00146179
0.00145698
0.00142613
0.00145494
0.00145494
0.0014282
0.0014282
0.00145698
0.00142613
0.00145494
0.00145494
0.0014282
0.0014282
0.00145494
0.0014282
0.0014282
0.00145698
0.00142613
0.00145494
0.0014282
0.0014282
0.00142613
0.00142133
0.00139051
0.00141929
0.00141929
0.00139258
0.00139258
0.00142133
0.00139051
0.00141929
0.00141929
0.00139258
0.00139258
0.00141929
0.00139258
0.00139258
0.00142133
0.00139051
0.00141929
0.00139258
0.00139258
0.00139051
0.00138571
0.00135494
0.00138369
0.00138369
0.00135701
0.00135701
0.00138571
0.00135494
0.00138369
0.00138369
0.001357
0.001357
0.00138368
0.00135701
0.00135701
0.00138571
0.00135494
0.00138368
0.00135701
0.00135701
0.00135494
0.00135014
0.0013194
0.00134812
0.00134812
0.00132146
0.00132146
0.00135014
0.0013194
0.00134812
0.00134812
0.00132146
0.00132146
0.00134812
0.00132146
0.00132146
0.00135014
0.0013194
0.00134812
0.00132146
0.00132146
0.0013194
0.00131461
0.00128389
0.00131258
0.00131258
0.00128595
0.00128595
0.0013146
0.00128389
0.00131258
0.00131258
0.00128595
0.00128595
0.00131258
0.00128595
0.00128595
0.00131461
0.00128389
0.00131258
0.00128595
0.00128595
0.00128389
0.0012791
0.00124841
0.00127708
0.00127708
0.00125047
0.00125047
0.0012791
0.00124841
0.00127708
0.00127708
0.00125047
0.00125047
0.00127708
0.00125047
0.00125047
0.0012791
0.00124841
0.00127708
0.00125047
0.00125047
0.00124841
0.00124362
0.00121295
0.0012416
0.0012416
0.00121501
0.00121501
0.00124362
0.00121295
0.0012416
0.0012416
0.00121501
0.00121501
0.0012416
0.00121501
0.00121501
0.00124362
0.00121295
0.0012416
0.00121501
0.00121501
0.00121295
0.00120816
0.00117751
0.00120615
0.00120615
0.00117957
0.00117957
0.00120816
0.00117751
0.00120615
0.00120615
0.00117957
0.00117957
0.00120615
0.00117957
0.00117957
0.00120816
0.00117751
0.00120615
0.00117957
0.00117957
0.00117751
0.00117272
0.00114209
0.00117071
0.00117071
0.00114414
0.00114414
0.00117272
0.00114209
0.00117071
0.00117071
0.00114414
0.00114414
0.00117071
0.00114414
0.00114414
0.00117272
0.00114209
0.00117071
0.00114414
0.00114414
0.00114209
0.00113729
0.00110667
0.00113529
0.00113529
0.00110872
0.00110872
0.00113729
0.00110667
0.00113528
0.00113528
0.00110872
0.00110872
0.00113529
0.00110872
0.00110872
0.00113729
0.00110667
0.00113529
0.00110872
0.00110872
0.00110667
0.00110188
0.00107126
0.00109987
0.00109987
0.00107331
0.00107332
0.00110188
0.00107126
0.00109987
0.00109987
0.00107331
0.00107331
0.00109987
0.00107332
0.00107331
0.00110188
0.00107126
0.00109987
0.00107331
0.00107331
0.00107126
0.00106647
0.00103586
0.00106446
0.00106446
0.00103791
0.00103791
0.00106647
0.00103586
0.00106446
0.00106446
0.00103791
0.00103791
0.00106446
0.00103791
0.00103791
0.00106647
0.00103586
0.00106446
0.00103791
0.00103791
0.00103586
0.00103107
0.00100045
0.00102906
0.00102906
0.0010025
0.0010025
0.00103107
0.00100045
0.00102906
0.00102906
0.0010025
0.0010025
0.00102906
0.0010025
0.0010025
0.00103107
0.00100045
0.00102906
0.0010025
0.0010025
0.00100045
0.000995652
0.00096505
0.000993644
0.000993645
0.000967097
0.000967097
0.000995653
0.00096505
0.000993644
0.000993644
0.000967097
0.000967096
0.000993645
0.000967097
0.000967097
0.000995652
0.000965049
0.000993644
0.000967096
0.000967097
0.000965049
0.000960247
0.000929628
0.000958245
0.000958245
0.00093167
0.000931669
0.000960247
0.000929628
0.000958245
0.000958244
0.00093167
0.000931671
0.000958244
0.000931669
0.000931669
0.000960247
0.000929628
0.000958245
0.00093167
0.00093167
0.000929628
0.000924826
0.000894205
0.000922816
0.000922816
0.000896255
0.000896255
0.000924826
0.000894206
0.000922816
0.000922817
0.000896254
0.000896254
0.000922816
0.000896256
0.000896256
0.000924827
0.000894204
0.000922816
0.000896254
0.000896255
0.000894205
0.000889395
0.000858768
0.000887393
0.000887393
0.000860804
0.000860803
0.000889395
0.000858768
0.000887392
0.000887391
0.000860805
0.000860805
0.000887393
0.000860802
0.000860802
0.000889394
0.000858769
0.000887392
0.000860804
0.000860803
0.000858767
0.000853962
0.000823309
0.00085195
0.00085195
0.000825366
0.000825368
0.000853962
0.00082331
0.000851951
0.000851951
0.000825366
0.000825367
0.00085195
0.000825369
0.00082537
0.000853963
0.00082331
0.00085195
0.000825369
0.00082537
0.000823312
0.000818485
0.00078784
0.000816481
0.000816482
0.000789873
0.000789871
0.000818486
0.000787838
0.000816481
0.000816482
0.000789873
0.000789872
0.000816484
0.00078987
0.000789869
0.000818486
0.000787838
0.000816484
0.00078987
0.000789869
0.000787836
0.000783032
0.000752358
0.000781016
0.000781015
0.000754419
0.000754422
0.00078303
0.000752362
0.000781016
0.000781016
0.000754419
0.00075442
0.000781013
0.000754424
0.000754425
0.00078303
0.000752361
0.000781014
0.000754423
0.000754425
0.000752365
0.000747519
0.000716806
0.000745515
0.000745518
0.000718848
0.000718846
0.000747523
0.000716803
0.000745515
0.000745516
0.000718848
0.000718847
0.000745521
0.000718844
0.000718844
0.000747522
0.000716803
0.000745521
0.000718845
0.000718844
0.000716801
0.000711995
0.000681377
0.000709988
0.000709985
0.000683405
0.000683404
0.00071199
0.000681379
0.000709989
0.000709987
0.000683404
0.000683404
0.000709982
0.000683404
0.000683404
0.000711992
0.000681378
0.000709983
0.000683404
0.000683403
0.000681379
0.000676531
0.000645666
0.000674499
0.000674503
0.000647722
0.000647723
0.000676536
0.000645667
0.000674498
0.0006745
0.000647722
0.000647723
0.000674505
0.000647723
0.000647724
0.000676534
0.000645666
0.000674505
0.000647723
0.000647724
0.000645667
0.000640848
0.000610288
0.000638854
0.000638853
0.000612317
0.000612314
0.000640848
0.000610284
0.000638854
0.000638854
0.000612317
0.000612315
0.000638852
0.000612313
0.000612312
0.000640848
0.000610285
0.000638852
0.000612314
0.000612312
0.000610282
0.000605441
0.000574362
0.000603403
0.000603401
0.000576425
0.000576427
0.000605438
0.000574366
0.000603402
0.000603401
0.000576425
0.000576426
0.0006034
0.000576428
0.000576429
0.000605439
0.000574363
0.0006034
0.000576427
0.000576428
0.000574366
0.000569507
0.000539317
0.000567498
0.0005675
0.000541295
0.000541294
0.00056951
0.000539316
0.000567498
0.000567499
0.000541295
0.000541295
0.000567501
0.000541293
0.000541293
0.000569509
0.000539317
0.000567501
0.000541295
0.000541294
0.000539314
0.000534589
0.000503089
0.000532585
0.000532583
0.000505265
0.000505266
0.000534587
0.000503091
0.000532584
0.000532585
0.000505264
0.000505263
0.000532583
0.000505266
0.000505266
0.000534588
0.000503088
0.000532583
0.000505263
0.000505265
0.000503091
0.000498014
0.000466865
0.000495955
0.000495957
0.000468669
0.00046867
0.000498015
0.000466867
0.000495955
0.000495954
0.00046867
0.000468669
0.000495956
0.00046867
0.000468668
0.000498013
0.000466863
0.000495955
0.000468667
0.000468667
0.000466863
0.00046235
0.000434397
0.000460357
0.000460359
0.000436093
0.000436095
0.000462352
0.0004344
0.000460358
0.000460357
0.000436089
0.00043609
0.000460358
0.000436096
0.000436099
0.000462349
0.000434395
0.000460357
0.000436089
0.000436093
0.000434401
0.000429905
0.000397476
0.000427908
0.000427909
0.000400027
0.000400025
0.000429907
0.000397477
0.000427904
0.000427905
0.000400025
0.000400023
0.000427912
0.000400027
0.000400026
0.000429903
0.000397474
0.000427908
0.000400025
0.000400026
0.000397475
0.000392172
0.00035762
0.000390256
0.000390253
0.000359988
0.000359992
0.000392171
0.000357625
0.000390255
0.000390253
0.000359988
0.000359987
0.000390256
0.000359991
0.00035999
0.000392169
0.000357619
0.000390253
0.000359988
0.000359992
0.000357625
0.000352486
0.000322627
0.000350229
0.000350238
0.000323985
0.000323985
0.000352491
0.000322626
0.000350231
0.000350232
0.000323986
0.000323987
0.000350232
0.000323983
0.000323985
0.000352486
0.000322626
0.000350235
0.000323984
0.000323985
0.000322624
0.000318024
0.000290106
0.000315632
0.000315634
0.000291546
0.000291537
0.000318023
0.000290105
0.000315634
0.000315635
0.000291536
0.000291536
0.000315633
0.000291542
0.000291544
0.000318023
0.000290104
0.000315633
0.000291533
0.000291535
0.000290104
0.000285882
0.000257611
0.000283901
0.000283897
0.000260149
0.00026015
0.000285886
0.000257612
0.000283894
0.000283898
0.00026015
0.00026015
0.000283897
0.000260151
0.00026015
0.000285889
0.000257613
0.000283893
0.000260151
0.000260152
0.000257612
0.000253257
0.000224162
0.000252065
0.000252066
0.000226656
0.000226655
0.000253258
0.000224166
0.000252066
0.000252068
0.000226653
0.000226656
0.000252067
0.000226657
0.000226655
0.000253261
0.000224166
0.000252068
0.00022666
0.000226656
0.000224162
0.000219143
0.000184916
0.000217454
0.000217455
0.00018723
0.000187234
0.000219147
0.000184917
0.000217455
0.000217455
0.000187234
0.000187233
0.000217453
0.000187231
0.00018723
0.000219147
0.000184915
0.000217455
0.000187234
0.000187234
0.000184916
0.000179352
0.000144477
0.000176829
0.00017683
0.000146259
0.000146259
0.000179351
0.000144479
0.00017683
0.000176829
0.000146257
0.000146259
0.000176829
0.00014626
0.000146259
0.000179351
0.000144477
0.00017683
0.000146257
0.000146258
0.000144478
0.000138962
0.00010531
0.000136215
0.000136214
0.000107146
0.000107146
0.000138963
0.000105309
0.000136212
0.000136213
0.000107146
0.000107146
0.000136214
0.000107145
0.000107147
0.000138963
0.000105309
0.000136213
0.000107145
0.000107146
0.00010531
0.000100265
6.99175e-05
9.79499e-05
9.79465e-05
7.17882e-05
7.17892e-05
0.00010026
6.99183e-05
9.79506e-05
9.795e-05
7.17865e-05
7.1788e-05
9.79501e-05
7.17876e-05
7.17879e-05
0.000100264
6.99175e-05
9.79468e-05
7.17861e-05
7.17844e-05
6.99168e-05
6.53572e-05
3.69706e-05
6.35154e-05
6.35128e-05
3.89984e-05
3.89986e-05
6.53558e-05
3.69712e-05
6.35136e-05
6.35139e-05
3.89962e-05
3.89942e-05
6.35137e-05
3.89965e-05
3.89945e-05
6.53572e-05
3.69681e-05
6.3511e-05
3.89942e-05
3.8994e-05
3.69671e-05
3.24858e-05
7.63518e-06
3.09955e-05
3.0995e-05
1.0397e-05
1.03964e-05
3.24846e-05
7.63463e-06
3.09927e-05
3.09902e-05
1.0398e-05
1.03913e-05
3.09899e-05
1.0396e-05
1.03893e-05
3.24831e-05
7.6305e-06
3.09887e-05
1.03939e-05
1.03938e-05
7.62922e-06
4.81661e-06
6.39945e-06
6.399e-06
4.81685e-06
6.40026e-06
6.39504e-06
5.63892e-06
5.63834e-06
5.63717e-06
6.39398e-06
4.81381e-06
6.39725e-06
0.00362321
0.00363297
0.00362777
0.00362778
0.00365016
0.00363694
0.00366554
0.00363098
0.00365016
0.00363694
0.00363099
0.00366554
0.00364151
0.00366928
0.00366929
0.00357857
0.00359772
0.00360691
0.00357065
0.00357139
0.00357416
0.00357855
0.00359769
0.0036069
0.00357063
0.00360143
0.00360143
0.00360143
0.00355803
0.00355803
0.00355802
0.00355802
0.00357607
0.00360189
0.00360183
0.0035849
0.00360492
0.00357497
0.00358578
0.00357149
0.00357416
0.00357608
0.00360183
0.00360191
0.0035849
0.00360492
0.00358578
0.00357497
0.00360777
0.00360776
0.0035793
0.00357461
0.00357461
0.00353194
0.00355122
0.00355258
0.00353048
0.00355012
0.00353003
0.00353194
0.00355121
0.00355258
0.00353047
0.00354607
0.00354607
0.00354607
0.00350848
0.00350848
0.00350848
0.00350848
0.00353052
0.00355129
0.00354607
0.0035342
0.00355008
0.00353107
0.00353393
0.00355012
0.00353003
0.00353052
0.00354607
0.00355129
0.0035342
0.00355008
0.00353393
0.00353106
0.00355231
0.00355231
0.00353075
0.0035314
0.0035314
0.00347967
0.00349848
0.00349955
0.00347865
0.00349811
0.00347837
0.00347967
0.00349848
0.00349955
0.00347865
0.00349532
0.00349532
0.00349532
0.00345594
0.00345594
0.00345594
0.00345594
0.00347877
0.00349888
0.0034952
0.00348215
0.00349832
0.00347914
0.00348206
0.00349811
0.00347837
0.00347877
0.0034952
0.00349888
0.00348215
0.00349832
0.00348206
0.00347914
0.00349912
0.00349912
0.00347876
0.0034792
0.0034792
0.00342715
0.0034458
0.00344666
0.00342638
0.0034456
0.0034262
0.00342715
0.0034458
0.00344666
0.00342638
0.00344293
0.00344293
0.00344293
0.0034043
0.0034043
0.0034043
0.0034043
0.00342664
0.00344621
0.0034429
0.00343
0.00344592
0.00342682
0.00342996
0.0034456
0.0034262
0.00342664
0.0034429
0.00344621
0.00342999
0.00344592
0.00342996
0.00342682
0.00344625
0.00344625
0.00342668
0.00342676
0.00342676
0.00337595
0.0033943
0.00339493
0.00337539
0.00339416
0.00337525
0.00337595
0.0033943
0.00339493
0.00337539
0.00339158
0.00339158
0.00339158
0.00335395
0.00335395
0.00335395
0.00335395
0.00337567
0.00339465
0.00339156
0.00337895
0.00339448
0.00337578
0.00337893
0.00339416
0.00337525
0.00337567
0.00339156
0.00339465
0.00337895
0.00339448
0.00337893
0.00337578
0.00339464
0.00339464
0.00337575
0.00337569
0.00337569
0.0033263
0.00334425
0.0033447
0.0033259
0.00334414
0.00332578
0.0033263
0.00334425
0.0033447
0.0033259
0.0033416
0.0033416
0.0033416
0.00330507
0.00330507
0.00330507
0.00330507
0.00332618
0.00334455
0.00334158
0.00332934
0.00334443
0.00332625
0.00332932