/*--------------------------------*- C++ -*----------------------------------*\
| =========                 |                                                 |
| \\      /  F ield         | OpenFOAM: The Open Source CFD Toolbox           |
|  \\    /   O peration     | Version:  v2012                                 |
|   \\  /    A nd           | Website:  www.openfoam.com                      |
|    \\/     M anipulation  |                                                 |
\*---------------------------------------------------------------------------*/
FoamFile
{
    version     2.0;
    format      ascii;
    class       volScalarField;
    location    "275";
    object      epsilon;
}
// * * * * * * * * * * * * * * * * * * * * * * * * * * * * * * * * * * * * * //

dimensions      [0 2 -3 0 0 0 0];


internalField   nonuniform List<scalar> 
171728
(
4.92603e-09
4.53531e-09
6.29339e-09
4.97817e-09
4.91428e-09
4.2956e-09
5.67273e-09
4.50404e-09
4.90779e-09
4.08147e-09
5.08246e-09
4.08246e-09
4.90455e-09
3.89525e-09
4.44196e-09
3.72033e-09
4.90749e-09
3.71144e-09
3.82824e-09
3.4108e-09
4.91778e-09
3.54545e-09
3.34099e-09
3.14886e-09
4.93467e-09
3.41395e-09
2.97282e-09
2.92788e-09
4.95787e-09
3.32882e-09
2.69317e-09
2.74513e-09
4.98885e-09
3.29632e-09
2.49889e-09
2.59835e-09
5.02818e-09
3.31253e-09
2.39321e-09
2.48573e-09
5.07674e-09
3.41021e-09
2.38899e-09
2.40967e-09
5.12916e-09
3.58312e-09
2.45396e-09
2.37322e-09
5.18766e-09
3.84218e-09
2.58191e-09
2.38067e-09
5.24836e-09
4.11445e-09
2.77708e-09
2.4406e-09
5.29595e-09
4.42151e-09
3.03737e-09
2.57869e-09
5.34127e-09
5.05922e-09
3.41387e-09
2.83728e-09
5.40191e-09
6.06123e-09
4.03452e-09
3.2848e-09
5.47986e-09
7.28322e-09
5.02606e-09
4.13632e-09
5.57196e-09
8.58466e-09
6.51826e-09
5.47392e-09
5.67657e-09
1.06822e-08
8.7884e-09
7.9392e-09
5.79436e-09
1.121e-08
1.18322e-08
1.18056e-08
5.92715e-09
1.52248e-08
1.48225e-08
1.90803e-08
6.09056e-09
2.01145e-08
2.0936e-08
2.89274e-08
6.27552e-09
2.3641e-08
2.53028e-08
4.95506e-08
6.55379e-09
3.53653e-08
3.58715e-08
7.51494e-08
6.88542e-09
4.47556e-08
4.70212e-08
1.17779e-07
7.29322e-09
6.17473e-08
6.04199e-08
1.64857e-07
7.922e-09
7.42035e-08
7.62529e-08
2.25832e-07
8.58386e-09
9.72507e-08
9.71385e-08
2.92348e-07
9.63743e-09
1.21673e-07
1.20634e-07
3.93014e-07
1.07766e-08
1.43946e-07
1.4626e-07
4.42435e-07
1.24303e-08
1.7731e-07
1.75729e-07
5.57873e-07
1.46042e-08
2.08835e-07
2.08702e-07
6.11038e-07
1.67162e-08
2.44995e-07
2.44616e-07
6.54656e-07
2.04859e-08
2.85251e-07
2.83411e-07
7.24373e-07
2.40185e-08
3.23218e-07
3.23581e-07
7.69202e-07
2.99997e-08
3.68852e-07
3.75836e-07
8.25363e-07
3.42811e-08
4.21343e-07
4.11876e-07
8.48923e-07
4.22895e-08
4.53808e-07
4.60993e-07
8.99595e-07
5.08447e-08
5.1544e-07
5.17257e-07
9.37109e-07
5.94099e-08
5.61252e-07
5.5457e-07
9.6379e-07
7.07087e-08
6.04984e-07
6.1098e-07
9.98017e-07
8.49596e-08
6.56065e-07
6.53576e-07
1.02508e-06
9.90657e-08
7.07112e-07
7.06517e-07
1.05998e-06
1.17418e-07
7.45796e-07
7.5015e-07
1.08398e-06
1.33952e-07
7.95253e-07
7.92166e-07
1.11489e-06
1.5791e-07
8.3548e-07
8.3512e-07
1.14061e-06
1.78205e-07
8.72539e-07
8.75682e-07
1.16176e-06
2.04875e-07
9.12169e-07
9.07138e-07
1.18986e-06
2.27945e-07
9.4366e-07
9.48918e-07
1.21064e-06
2.59427e-07
9.76725e-07
9.74345e-07
1.23609e-06
2.85528e-07
9.9991e-07
9.99399e-07
1.25157e-06
3.11766e-07
1.03096e-06
1.03493e-06
1.27164e-06
3.44837e-07
1.05271e-06
1.05146e-06
1.29035e-06
3.75064e-07
1.07425e-06
1.07484e-06
1.3102e-06
4.01379e-07
1.08492e-06
1.08701e-06
1.31696e-06
4.27992e-07
1.1073e-06
1.10687e-06
1.33495e-06
4.58526e-07
1.11815e-06
1.1176e-06
1.34854e-06
4.66304e-07
1.10111e-06
1.10054e-06
1.32154e-06
4.74282e-07
1.09638e-06
1.09578e-06
1.31137e-06
5.11361e-07
1.13594e-06
1.13522e-06
1.35804e-06
5.6455e-07
1.18587e-06
1.18518e-06
1.42162e-06
5.87589e-07
1.20397e-06
1.20348e-06
1.44588e-06
5.85077e-07
1.19216e-06
1.19203e-06
1.42869e-06
5.55767e-07
1.14334e-06
1.14351e-06
1.36436e-06
5.20339e-07
1.08435e-06
1.08453e-06
1.28469e-06
5.07435e-07
1.0589e-06
1.05902e-06
1.25089e-06
5.29693e-07
1.07686e-06
1.07692e-06
1.2796e-06
5.79921e-07
1.11423e-06
1.11428e-06
1.33081e-06
6.15068e-07
1.14074e-06
1.14081e-06
1.37082e-06
6.31773e-07
1.15544e-06
1.15552e-06
1.39509e-06
6.37827e-07
1.16208e-06
1.16215e-06
1.40766e-06
6.39818e-07
1.16479e-06
1.16487e-06
1.41341e-06
6.40343e-07
1.16566e-06
1.16573e-06
1.41566e-06
6.40292e-07
1.16575e-06
1.16583e-06
1.41618e-06
6.40215e-07
1.16572e-06
1.16579e-06
1.41613e-06
6.40276e-07
1.16586e-06
1.16593e-06
1.41653e-06
6.40231e-07
1.16577e-06
1.16585e-06
1.41638e-06
6.40231e-07
1.16578e-06
1.16586e-06
1.41631e-06
6.4024e-07
1.16581e-06
1.16589e-06
1.4165e-06
6.40222e-07
1.16577e-06
1.16585e-06
1.41624e-06
6.40229e-07
1.1658e-06
1.16588e-06
1.41645e-06
6.40222e-07
1.16578e-06
1.16586e-06
1.41631e-06
6.40222e-07
1.16579e-06
1.16587e-06
1.41644e-06
6.40217e-07
1.16578e-06
1.16586e-06
1.41629e-06
6.40217e-07
1.16579e-06
1.16587e-06
1.41643e-06
6.40216e-07
1.16579e-06
1.16586e-06
1.41626e-06
6.40217e-07
1.16579e-06
1.16587e-06
1.41643e-06
6.40218e-07
1.1658e-06
1.16588e-06
1.41628e-06
6.40221e-07
1.16581e-06
1.16589e-06
1.41633e-06
6.40225e-07
1.16583e-06
1.1659e-06
1.41642e-06
6.40233e-07
1.16585e-06
1.16593e-06
1.41631e-06
6.40233e-07
1.16589e-06
1.16596e-06
1.41631e-06
6.39979e-07
1.16559e-06
1.16566e-06
1.416e-06
6.20802e-07
1.10795e-06
1.10794e-06
1.37392e-06
5.18937e-09
4.22483e-09
4.0144e-09
4.8754e-09
4.16274e-09
4.295e-09
4.93081e-09
5.25605e-09
4.98726e-09
4.85608e-09
4.28939e-09
4.28722e-09
4.94606e-09
4.24359e-09
4.26218e-09
5.00928e-09
5.16069e-09
4.70421e-09
4.93755e-09
4.8687e-09
4.66061e-09
4.59253e-09
4.84411e-09
4.42456e-09
4.79569e-09
5.0849e-09
4.4733e-09
4.83222e-09
4.72615e-09
4.356e-09
4.40898e-09
4.89319e-09
4.53498e-09
5.12584e-09
5.8286e-09
4.67494e-09
4.5397e-09
4.66841e-09
4.26436e-09
4.56876e-09
4.50158e-09
4.31542e-09
4.25511e-09
4.35857e-09
4.03152e-09
4.36236e-09
4.74626e-09
4.05224e-09
4.50834e-09
4.3031e-09
4.13175e-09
4.01258e-09
4.46508e-09
4.16625e-09
4.52199e-09
5.2291e-09
4.12168e-09
4.11256e-09
4.23366e-09
3.8904e-09
4.23561e-09
4.17942e-09
4.00507e-09
3.95571e-09
3.97303e-09
3.71721e-09
3.95681e-09
4.43537e-09
3.68785e-09
4.23205e-09
3.92288e-09
3.94128e-09
3.67179e-09
4.10447e-09
3.83631e-09
4.00836e-09
4.6075e-09
3.70402e-09
3.74607e-09
3.86387e-09
3.56617e-09
3.93111e-09
3.88711e-09
3.72088e-09
3.71046e-09
3.66927e-09
3.45949e-09
3.60495e-09
4.16909e-09
3.3789e-09
3.99125e-09
3.59415e-09
3.75668e-09
3.38014e-09
3.7813e-09
3.54541e-09
3.61202e-09
3.97095e-09
3.35834e-09
3.43227e-09
3.54337e-09
3.29115e-09
3.65515e-09
3.66146e-09
3.4704e-09
3.54011e-09
3.41942e-09
3.24517e-09
3.31109e-09
3.93618e-09
3.13286e-09
3.78e-09
3.31453e-09
3.58447e-09
3.1364e-09
3.49973e-09
3.28925e-09
3.28169e-09
3.45075e-09
3.08026e-09
3.16611e-09
3.27246e-09
3.05591e-09
3.41196e-09
3.5067e-09
3.25533e-09
3.42475e-09
3.21771e-09
3.06295e-09
3.08047e-09
3.73237e-09
2.94676e-09
3.60446e-09
3.08183e-09
3.44276e-09
2.93337e-09
3.2667e-09
3.05689e-09
3.02151e-09
3.05536e-09
2.87039e-09
2.94104e-09
3.04163e-09
2.86664e-09
3.20763e-09
3.40199e-09
3.0716e-09
3.34717e-09
3.05039e-09
2.92179e-09
2.9078e-09
3.56636e-09
2.81187e-09
3.46846e-09
2.88941e-09
3.34634e-09
2.77294e-09
3.04e-09
2.85075e-09
2.82655e-09
2.75546e-09
2.71709e-09
2.75445e-09
2.85694e-09
2.72008e-09
3.02998e-09
3.33288e-09
2.92109e-09
3.29805e-09
2.91284e-09
2.81169e-09
2.7853e-09
3.44233e-09
2.72514e-09
3.37803e-09
2.74048e-09
3.297e-09
2.65802e-09
2.83828e-09
2.68347e-09
2.68661e-09
2.53875e-09
2.61235e-09
2.60362e-09
2.71473e-09
2.60993e-09
2.88997e-09
3.28805e-09
2.81352e-09
3.26185e-09
2.80636e-09
2.73262e-09
2.70982e-09
3.36055e-09
2.68066e-09
3.32594e-09
2.63682e-09
3.30317e-09
2.58553e-09
2.67645e-09
2.5658e-09
2.59255e-09
2.40851e-09
2.54606e-09
2.48652e-09
2.6092e-09
2.53429e-09
2.7938e-09
3.25568e-09
2.74844e-09
3.24587e-09
2.73168e-09
2.69904e-09
2.67781e-09
3.32166e-09
2.6844e-09
3.32318e-09
2.57408e-09
3.37908e-09
2.55126e-09
2.56463e-09
2.49727e-09
2.53533e-09
2.38637e-09
2.51678e-09
2.40625e-09
2.53734e-09
2.48747e-09
2.73731e-09
3.24383e-09
2.71736e-09
3.24343e-09
2.70544e-09
2.70426e-09
2.69224e-09
3.32708e-09
2.73153e-09
3.33416e-09
2.55014e-09
3.53182e-09
2.55973e-09
2.50051e-09
2.46503e-09
2.51693e-09
2.43112e-09
2.52867e-09
2.36301e-09
2.49634e-09
2.47542e-09
2.71715e-09
3.2443e-09
2.73096e-09
3.24646e-09
2.71701e-09
2.73492e-09
2.75105e-09
3.3337e-09
2.83583e-09
3.34699e-09
2.56881e-09
3.77006e-09
2.61657e-09
2.47526e-09
2.47158e-09
2.53848e-09
2.5435e-09
2.58621e-09
2.36042e-09
2.49421e-09
2.51646e-09
2.74153e-09
3.24782e-09
2.80455e-09
3.26452e-09
2.75411e-09
2.79184e-09
2.87278e-09
3.36092e-09
3.00976e-09
3.44983e-09
2.63874e-09
4.05082e-09
2.72624e-09
2.49248e-09
2.54546e-09
2.60903e-09
2.72187e-09
2.69817e-09
2.40657e-09
2.54914e-09
2.63032e-09
2.8346e-09
3.2732e-09
2.96419e-09
3.35129e-09
2.82279e-09
2.93547e-09
3.06582e-09
3.49651e-09
3.26361e-09
3.68509e-09
2.76521e-09
4.32407e-09
2.91175e-09
2.5837e-09
2.69622e-09
2.73613e-09
2.96231e-09
2.88468e-09
2.51953e-09
2.68632e-09
2.8569e-09
3.02026e-09
3.40705e-09
3.24066e-09
3.62763e-09
3.00839e-09
3.28256e-09
3.33974e-09
3.76734e-09
3.6152e-09
4.0616e-09
2.97321e-09
4.85779e-09
3.20275e-09
2.75802e-09
2.95998e-09
2.9467e-09
3.30133e-09
3.17936e-09
2.73945e-09
2.9528e-09
3.27272e-09
3.33038e-09
3.73713e-09
3.6873e-09
4.2298e-09
3.41127e-09
3.94756e-09
3.72627e-09
4.17555e-09
4.16743e-09
4.59963e-09
3.29971e-09
5.79846e-09
3.66086e-09
3.05932e-09
3.41754e-09
3.27671e-09
3.85198e-09
3.63568e-09
3.13428e-09
3.45124e-09
4.03854e-09
3.84238e-09
4.44372e-09
4.38553e-09
5.3163e-09
4.15098e-09
5.06138e-09
4.35988e-09
4.75935e-09
5.06809e-09
5.33364e-09
3.80699e-09
7.00159e-09
4.37011e-09
3.59124e-09
4.16858e-09
3.77837e-09
4.72607e-09
4.34718e-09
3.85986e-09
4.32001e-09
5.37555e-09
4.61496e-09
5.64538e-09
5.4407e-09
6.72729e-09
5.37909e-09
6.37824e-09
5.3721e-09
5.58149e-09
6.43185e-09
6.32901e-09
4.59028e-09
8.24359e-09
5.41993e-09
4.46789e-09
5.43886e-09
4.56707e-09
6.11061e-09
5.37693e-09
5.01845e-09
5.80564e-09
7.73998e-09
5.75883e-09
7.17597e-09
7.04798e-09
9.27153e-09
6.75974e-09
9.77079e-09
6.83831e-09
6.66855e-09
8.42476e-09
7.79883e-09
5.75589e-09
1.01769e-08
6.99932e-09
5.91391e-09
7.64685e-09
5.71165e-09
8.21517e-09
6.93601e-09
7.05969e-09
8.43813e-09
1.17763e-08
7.5206e-09
1.00314e-08
9.33433e-09
1.19101e-08
1.10445e-08
1.22287e-08
8.99824e-09
8.26615e-09
1.11381e-08
9.75535e-09
7.55342e-09
1.09992e-08
9.26989e-09
8.53444e-09
1.08749e-08
7.47482e-09
1.06094e-08
9.20038e-09
1.06047e-08
1.28248e-08
1.90388e-08
9.96274e-09
1.28117e-08
1.29574e-08
1.64267e-08
1.3017e-08
2.03197e-08
1.18291e-08
1.05037e-08
1.51494e-08
1.29383e-08
1.00232e-08
1.41742e-08
1.25942e-08
1.21595e-08
1.78131e-08
9.90368e-09
1.4128e-08
1.25432e-08
1.69714e-08
2.13036e-08
2.81956e-08
1.38002e-08
1.73814e-08
1.74077e-08
2.1984e-08
2.20497e-08
3.35452e-08
1.61239e-08
1.35638e-08
1.9531e-08
1.77791e-08
1.36462e-08
1.9298e-08
1.70214e-08
1.87817e-08
2.96852e-08
1.35706e-08
1.96981e-08
1.67565e-08
2.61e-08
3.30445e-08
4.51015e-08
1.94852e-08
2.3126e-08
2.30534e-08
2.50922e-08
3.64896e-08
3.69987e-08
2.16111e-08
1.97586e-08
2.48905e-08
2.30189e-08
1.85075e-08
2.18113e-08
2.34766e-08
3.51346e-08
4.21843e-08
1.83364e-08
2.36248e-08
2.35347e-08
4.58559e-08
4.62602e-08
7.54419e-08
2.41985e-08
2.65401e-08
3.3089e-08
3.64171e-08
3.9763e-08
8.12298e-08
2.57222e-08
2.43794e-08
3.33688e-08
3.14026e-08
2.53976e-08
3.26516e-08
3.15678e-08
4.39687e-08
7.10639e-08
2.52157e-08
3.29241e-08
3.1423e-08
6.97996e-08
8.76788e-08
1.04073e-07
3.58885e-08
4.05777e-08
4.21586e-08
4.77111e-08
9.02982e-08
1.10927e-07
3.63716e-08
3.43375e-08
4.32867e-08
4.32707e-08
3.38204e-08
4.29284e-08
4.28199e-08
8.09385e-08
1.09206e-07
3.37363e-08
4.47312e-08
4.28782e-08
1.06594e-07
1.10198e-07
1.60747e-07
4.55748e-08
4.9204e-08
5.59946e-08
5.94998e-08
1.16482e-07
1.44931e-07
4.69506e-08
4.54663e-08
5.69016e-08
5.60036e-08
4.58022e-08
5.51167e-08
5.67115e-08
1.15369e-07
1.48249e-07
4.62342e-08
5.62277e-08
5.62005e-08
1.54916e-07
1.66956e-07
2.06402e-07
5.86962e-08
6.48907e-08
7.24934e-08
7.45004e-08
1.63316e-07
2.31331e-07
5.90928e-08
6.03076e-08
7.19379e-08
7.14249e-08
6.06362e-08
7.30155e-08
7.13988e-08
1.60379e-07
2.18179e-07
5.94447e-08
7.14048e-08
7.21721e-08
2.11945e-07
2.27679e-07
2.89747e-07
7.84645e-08
7.63225e-08
9.1821e-08
9.0096e-08
2.33321e-07
2.51501e-07
7.77119e-08
7.64618e-08
9.12064e-08
9.35815e-08
7.63107e-08
8.80845e-08
9.10542e-08
2.28323e-07
2.91728e-07
7.73274e-08
9.33055e-08
8.99178e-08
2.79785e-07
2.98839e-07
3.52356e-07
9.56399e-08
9.85594e-08
1.13807e-07
1.21241e-07
2.80195e-07
3.90175e-07
9.52977e-08
9.76466e-08
1.1335e-07
1.11497e-07
9.56607e-08
1.18402e-07
1.18123e-07
3.0917e-07
3.49378e-07
9.46649e-08
1.12037e-07
1.17791e-07
3.70617e-07
3.71013e-07
4.44258e-07
1.21148e-07
1.25417e-07
1.39086e-07
1.38666e-07
3.97749e-07
4.19e-07
1.20856e-07
1.19713e-07
1.38249e-07
1.43772e-07
1.25392e-07
1.35459e-07
1.36802e-07
3.65822e-07
4.54611e-07
1.24766e-07
1.42118e-07
1.37195e-07
4.33993e-07
4.57172e-07
5.07997e-07
1.45242e-07
1.46297e-07
1.67489e-07
1.71906e-07
4.35091e-07
5.29481e-07
1.43769e-07
1.48242e-07
1.67164e-07
1.65874e-07
1.41549e-07
1.71203e-07
1.73987e-07
4.66534e-07
4.99763e-07
1.42468e-07
1.65909e-07
1.74091e-07
5.24711e-07
5.27749e-07
5.91843e-07
1.75364e-07
1.77543e-07
2.02727e-07
1.98089e-07
5.43957e-07
5.78131e-07
1.76069e-07
1.75528e-07
2.02934e-07
1.99768e-07
1.87063e-07
1.99529e-07
2.08651e-07
5.16519e-07
5.9496e-07
1.86197e-07
1.997e-07
2.0747e-07
6.05631e-07
6.04547e-07
6.47071e-07
2.12071e-07
2.08655e-07
2.3382e-07
2.37705e-07
5.93987e-07
6.5724e-07
2.10871e-07
2.07605e-07
2.31278e-07
2.36245e-07
2.12798e-07
2.36608e-07
2.28409e-07
6.08202e-07
6.50074e-07
2.11712e-07
2.37326e-07
2.2832e-07
6.38347e-07
6.61746e-07
7.05165e-07
2.41296e-07
2.44707e-07
2.74759e-07
2.72881e-07
6.68873e-07
7.10699e-07
2.39974e-07
2.44067e-07
2.75543e-07
2.72179e-07
2.37597e-07
2.73507e-07
2.78627e-07
6.65166e-07
7.06161e-07
2.38157e-07
2.70796e-07
2.7926e-07
7.11353e-07
7.18211e-07
7.62913e-07
2.85929e-07
2.85581e-07
3.12702e-07
3.17176e-07
7.25705e-07
7.56724e-07
2.86492e-07
2.84931e-07
3.12175e-07
3.15999e-07
2.90609e-07
3.15931e-07
3.13222e-07
7.18905e-07
7.60679e-07
2.90338e-07
3.14975e-07
3.11952e-07
7.56912e-07
7.77494e-07
8.09934e-07
3.23972e-07
3.24414e-07
3.66119e-07
3.5394e-07
7.67083e-07
8.08705e-07
3.22814e-07
3.24229e-07
3.6488e-07
3.60471e-07
3.21541e-07
3.53018e-07
3.61835e-07
7.74015e-07
8.12557e-07
3.20665e-07
3.61613e-07
3.6288e-07
8.14595e-07
8.18952e-07
8.41391e-07
3.77349e-07
3.69539e-07
4.00633e-07
4.13755e-07
8.24e-07
8.52498e-07
3.76584e-07
3.75065e-07
4.00159e-07
4.05326e-07
3.76609e-07
4.12951e-07
4.03266e-07
8.22848e-07
8.44285e-07
3.77535e-07
4.04698e-07
4.02813e-07
8.40912e-07
8.5181e-07
8.90852e-07
4.09177e-07
4.22276e-07
4.49713e-07
4.43717e-07
8.59148e-07
8.76945e-07
4.08512e-07
4.12649e-07
4.49189e-07
4.46274e-07
4.10014e-07
4.42944e-07
4.42303e-07
8.53172e-07
8.86375e-07
4.09351e-07
4.45102e-07
4.41987e-07
8.85474e-07
9.0291e-07
9.26303e-07
4.66179e-07
4.5439e-07
5.04681e-07
5.01843e-07
8.88361e-07
9.29814e-07
4.66225e-07
4.62317e-07
5.03478e-07
5.04147e-07
4.58841e-07
5.00941e-07
5.06714e-07
8.99535e-07
9.29335e-07
4.5908e-07
5.04965e-07
5.07325e-07
9.30078e-07
9.3369e-07
9.54275e-07
5.14128e-07
5.16716e-07
5.44848e-07
5.49175e-07
9.40132e-07
9.5763e-07
5.12353e-07
5.15744e-07
5.44581e-07
5.46413e-07
5.17009e-07
5.4987e-07
5.43877e-07
9.36896e-07
9.54318e-07
5.16944e-07
5.45575e-07
5.43337e-07
9.54625e-07
9.63336e-07
9.87943e-07
5.57645e-07
5.5996e-07
5.95186e-07
5.94409e-07
9.64994e-07
9.865e-07
5.57918e-07
5.55688e-07
5.94313e-07
5.95204e-07
5.56718e-07
5.94169e-07
5.99568e-07
9.62572e-07
9.88368e-07
5.56402e-07
5.95262e-07
5.9946e-07
9.90128e-07
9.9617e-07
1.01874e-06
6.06992e-07
6.06331e-07
6.45478e-07
6.43153e-07
9.94747e-07
1.01777e-06
6.05573e-07
6.11238e-07
6.44882e-07
6.45886e-07
6.09632e-07
6.42214e-07
6.4034e-07
9.98156e-07
1.01907e-06
6.09434e-07
6.44736e-07
6.40056e-07
1.01641e-06
1.02739e-06
1.04902e-06
6.57807e-07
6.55474e-07
6.91609e-07
6.93827e-07
1.02673e-06
1.05045e-06
6.57942e-07
6.54338e-07
6.91014e-07
6.91015e-07
6.54975e-07
6.95783e-07
6.95812e-07
1.02564e-06
1.04771e-06
6.54516e-07
6.91304e-07
6.95982e-07
1.05256e-06
1.05644e-06
1.07807e-06
7.04349e-07
7.06468e-07
7.41087e-07
7.37719e-07
1.05785e-06
1.07573e-06
7.029e-07
7.06195e-07
7.39764e-07
7.41035e-07
7.06511e-07
7.35716e-07
7.38998e-07
1.0575e-06
1.07998e-06
7.06967e-07
7.41712e-07
7.37761e-07
1.07659e-06
1.08535e-06
1.1031e-06
7.50152e-07
7.47407e-07
7.79587e-07
7.82805e-07
1.08272e-06
1.10492e-06
7.49594e-07
7.5028e-07
7.79488e-07
7.81917e-07
7.49884e-07
7.82736e-07
7.8244e-07
1.08575e-06
1.1022e-06
7.48714e-07
7.80106e-07
7.85204e-07
1.10723e-06
1.11068e-06
1.135e-06
7.92782e-07
7.95136e-07
8.28202e-07
8.26043e-07
1.11322e-06
1.13352e-06
7.9229e-07
7.93029e-07
8.27591e-07
8.24698e-07
7.94662e-07
8.2647e-07
8.29533e-07
1.11009e-06
1.13293e-06
7.9755e-07
8.25168e-07
8.2808e-07
1.13468e-06
1.14136e-06
1.15629e-06
8.36335e-07
8.35212e-07
8.63209e-07
8.63963e-07
1.13946e-06
1.15644e-06
8.36017e-07
8.35692e-07
8.6253e-07
8.67436e-07
8.38012e-07
8.63037e-07
8.61393e-07
1.13979e-06
1.1592e-06
8.36522e-07
8.66347e-07
8.64504e-07
1.15502e-06
1.16332e-06
1.18496e-06
8.74619e-07
8.7356e-07
9.04787e-07
9.02375e-07
1.16337e-06
1.18305e-06
8.7343e-07
8.75509e-07
9.02994e-07
8.9807e-07
8.71436e-07
9.02531e-07
9.04804e-07
1.1657e-06
1.1801e-06
8.74404e-07
8.9865e-07
9.01556e-07
1.18353e-06
1.19044e-06
1.20331e-06
9.11894e-07
9.11688e-07
9.33654e-07
9.36023e-07
1.18963e-06
1.20664e-06
9.10375e-07
9.07786e-07
9.33011e-07
9.40305e-07
9.13865e-07
9.36262e-07
9.35035e-07
1.18614e-06
1.21022e-06
9.09995e-07
9.38898e-07
9.36259e-07
1.20469e-06
1.20976e-06
1.23259e-06
9.43081e-07
9.43552e-07
9.71789e-07
9.68098e-07
1.2122e-06
1.2282e-06
9.42634e-07
9.49411e-07
9.72353e-07
9.68992e-07
9.43052e-07
9.68471e-07
9.71764e-07
1.2174e-06
1.22982e-06
9.45275e-07
9.69337e-07
9.69765e-07
1.2299e-06
1.23856e-06
1.24723e-06
9.79383e-07
9.76442e-07
9.94841e-07
9.96096e-07
1.23439e-06
1.24816e-06
9.80239e-07
9.74571e-07
9.94644e-07
9.92241e-07
9.80355e-07
9.94848e-07
9.96489e-07
1.23355e-06
1.24382e-06
9.76562e-07
9.91705e-07
9.92501e-07
1.24759e-06
1.25078e-06
1.26462e-06
9.9944e-07
1.00153e-06
1.02062e-06
1.02303e-06
1.25258e-06
1.26805e-06
9.98687e-07
9.99325e-07
1.01938e-06
1.02635e-06
1.00075e-06
1.02229e-06
1.0205e-06
1.2497e-06
1.27254e-06
9.97826e-07
1.02699e-06
1.02052e-06
1.26518e-06
1.27193e-06
1.28892e-06
1.02902e-06
1.03103e-06
1.04715e-06
1.04784e-06
1.27506e-06
1.28986e-06
1.02873e-06
1.03485e-06
1.049e-06
1.04949e-06
1.02827e-06
1.04863e-06
1.04463e-06
1.27941e-06
1.29014e-06
1.02878e-06
1.04822e-06
1.04677e-06
1.28605e-06
1.29292e-06
1.30292e-06
1.05153e-06
1.05198e-06
1.06886e-06
1.06888e-06
1.29353e-06
1.30315e-06
1.05317e-06
1.05249e-06
1.06857e-06
1.06729e-06
1.0494e-06
1.069e-06
1.06874e-06
1.29299e-06
1.30147e-06
1.05203e-06
1.06821e-06
1.07126e-06
1.30473e-06
1.30801e-06
1.31447e-06
1.07462e-06
1.07439e-06
1.08392e-06
1.08317e-06
1.30807e-06
1.31325e-06
1.07392e-06
1.07338e-06
1.08295e-06
1.0837e-06
1.07449e-06
1.08266e-06
1.08285e-06
1.30697e-06
1.31447e-06
1.07659e-06
1.08512e-06
1.08397e-06
1.31492e-06
1.31695e-06
1.32828e-06
1.08606e-06
1.08534e-06
1.10007e-06
1.09983e-06
1.31562e-06
1.32762e-06
1.08519e-06
1.08599e-06
1.0997e-06
1.10047e-06
1.08485e-06
1.09988e-06
1.09894e-06
1.31682e-06
1.3275e-06
1.08572e-06
1.09996e-06
1.09865e-06
1.32729e-06
1.33571e-06
1.34719e-06
1.10715e-06
1.1071e-06
1.11819e-06
1.11835e-06
1.33536e-06
1.34723e-06
1.1069e-06
1.10759e-06
1.11795e-06
1.11814e-06
1.10635e-06
1.11846e-06
1.11852e-06
1.33489e-06
1.34642e-06
1.10568e-06
1.11788e-06
1.11766e-06
1.34759e-06
1.34812e-06
1.32154e-06
1.11794e-06
1.11808e-06
1.1061e-06
1.10617e-06
1.34816e-06
1.32157e-06
1.1177e-06
1.11779e-06
1.10598e-06
1.10547e-06
1.11832e-06
1.10601e-06
1.10667e-06
1.34733e-06
1.32052e-06
1.11747e-06
1.10546e-06
1.10599e-06
1.32209e-06
1.32097e-06
1.30681e-06
1.10122e-06
1.10128e-06
1.09501e-06
1.09494e-06
1.32101e-06
1.30674e-06
1.10114e-06
1.10054e-06
1.09504e-06
1.09441e-06
1.10182e-06
1.09491e-06
1.09561e-06
1.31996e-06
1.30613e-06
1.10122e-06
1.09433e-06
1.09522e-06
1.30734e-06
1.31089e-06
1.34507e-06
1.09646e-06
1.09632e-06
1.12243e-06
1.12209e-06
1.31077e-06
1.34472e-06
1.09652e-06
1.09594e-06
1.12255e-06
1.12218e-06
1.09703e-06
1.12237e-06
1.12283e-06
1.31029e-06
1.34474e-06
1.09672e-06
1.12171e-06
1.12262e-06
1.34518e-06
1.35801e-06
1.4104e-06
1.13599e-06
1.13566e-06
1.17566e-06
1.17557e-06
1.35767e-06
1.41025e-06
1.13609e-06
1.13579e-06
1.17562e-06
1.17544e-06
1.13633e-06
1.17564e-06
1.17591e-06
1.35769e-06
1.41012e-06
1.13609e-06
1.17491e-06
1.17561e-06
1.41041e-06
1.42159e-06
1.44282e-06
1.18587e-06
1.18587e-06
1.20249e-06
1.20266e-06
1.42149e-06
1.44293e-06
1.1858e-06
1.18565e-06
1.20237e-06
1.20227e-06
1.18613e-06
1.20257e-06
1.20276e-06
1.42131e-06
1.44259e-06
1.18584e-06
1.20202e-06
1.20256e-06
1.44301e-06
1.44567e-06
1.42963e-06
1.20388e-06
1.20408e-06
1.19847e-06
1.19873e-06
1.44581e-06
1.42985e-06
1.20375e-06
1.20366e-06
1.19834e-06
1.19829e-06
1.20414e-06
1.19855e-06
1.1987e-06
1.44544e-06
1.42955e-06
1.20398e-06
1.19835e-06
1.19864e-06
1.4299e-06
1.42842e-06
1.36932e-06
1.19211e-06
1.19234e-06
1.15851e-06
1.15865e-06
1.42865e-06
1.36937e-06
1.19197e-06
1.19193e-06
1.15837e-06
1.15842e-06
1.19231e-06
1.15845e-06
1.1586e-06
1.42836e-06
1.36942e-06
1.19225e-06
1.15858e-06
1.1586e-06
1.36945e-06
1.36424e-06
1.28834e-06
1.14341e-06
1.14351e-06
1.09737e-06
1.0974e-06
1.36428e-06
1.28829e-06
1.14328e-06
1.14336e-06
1.09725e-06
1.09741e-06
1.14347e-06
1.09726e-06
1.09738e-06
1.36435e-06
1.28854e-06
1.14347e-06
1.09746e-06
1.09737e-06
1.28837e-06
1.28467e-06
1.2498e-06
1.08445e-06
1.08447e-06
1.06116e-06
1.06116e-06
1.28462e-06
1.24972e-06
1.08433e-06
1.08451e-06
1.06103e-06
1.06125e-06
1.08445e-06
1.06104e-06
1.06117e-06
1.28486e-06
1.24998e-06
1.08444e-06
1.06118e-06
1.06112e-06
1.24982e-06
1.25086e-06
1.2694e-06
1.05901e-06
1.05901e-06
1.06798e-06
1.06799e-06
1.25079e-06
1.26932e-06
1.05888e-06
1.05911e-06
1.06785e-06
1.06807e-06
1.05903e-06
1.06787e-06
1.06803e-06
1.25104e-06
1.2695e-06
1.05898e-06
1.06794e-06
1.06792e-06
1.26945e-06
1.27954e-06
1.32062e-06
1.07698e-06
1.07699e-06
1.10584e-06
1.10588e-06
1.27948e-06
1.32056e-06
1.07685e-06
1.07705e-06
1.10573e-06
1.1059e-06
1.07703e-06
1.10575e-06
1.1059e-06
1.27963e-06
1.32067e-06
1.07692e-06
1.1058e-06
1.10579e-06
1.32068e-06
1.33076e-06
1.36298e-06
1.11433e-06
1.11437e-06
1.13537e-06
1.13541e-06
1.33071e-06
1.36293e-06
1.11422e-06
1.11438e-06
1.13527e-06
1.13543e-06
1.11439e-06
1.13528e-06
1.13544e-06
1.33081e-06
1.36302e-06
1.11428e-06
1.13534e-06
1.13534e-06
1.36305e-06
1.37076e-06
1.38982e-06
1.14084e-06
1.14088e-06
1.15281e-06
1.15285e-06
1.37071e-06
1.38976e-06
1.14074e-06
1.14089e-06
1.15272e-06
1.15287e-06
1.14091e-06
1.15272e-06
1.15289e-06
1.37079e-06
1.38985e-06
1.14081e-06
1.15279e-06
1.15279e-06
1.38989e-06
1.39502e-06
1.40414e-06
1.15554e-06
1.15557e-06
1.161e-06
1.16103e-06
1.39496e-06
1.40409e-06
1.15545e-06
1.1556e-06
1.1609e-06
1.16106e-06
1.15562e-06
1.16091e-06
1.16108e-06
1.39505e-06
1.40418e-06
1.15553e-06
1.16098e-06
1.16099e-06
1.40422e-06
1.40758e-06
1.41086e-06
1.16216e-06
1.1622e-06
1.16442e-06
1.16446e-06
1.40753e-06
1.4108e-06
1.16207e-06
1.16223e-06
1.16433e-06
1.16449e-06
1.16225e-06
1.16434e-06
1.16451e-06
1.40762e-06
1.41089e-06
1.16216e-06
1.16441e-06
1.16442e-06
1.41093e-06
1.41333e-06
1.41355e-06
1.16488e-06
1.16491e-06
1.16564e-06
1.16567e-06
1.41328e-06
1.4135e-06
1.16479e-06
1.16495e-06
1.16554e-06
1.1657e-06
1.16497e-06
1.16555e-06
1.16572e-06
1.41337e-06
1.41358e-06
1.16488e-06
1.16562e-06
1.16563e-06
1.41363e-06
1.41558e-06
1.41421e-06
1.16575e-06
1.16578e-06
1.16584e-06
1.16587e-06
1.41553e-06
1.41415e-06
1.16565e-06
1.16581e-06
1.16575e-06
1.16591e-06
1.16583e-06
1.16575e-06
1.16593e-06
1.41561e-06
1.41424e-06
1.16574e-06
1.16583e-06
1.16584e-06
1.41429e-06
1.4161e-06
1.41422e-06
1.16584e-06
1.16587e-06
1.1658e-06
1.16583e-06
1.41605e-06
1.41416e-06
1.16574e-06
1.1659e-06
1.16571e-06
1.16587e-06
1.16592e-06
1.16571e-06
1.16589e-06
1.41613e-06
1.41425e-06
1.16583e-06
1.16579e-06
1.16579e-06
1.4143e-06
1.41605e-06
1.41456e-06
1.1658e-06
1.16584e-06
1.16592e-06
1.16596e-06
1.416e-06
1.41452e-06
1.16571e-06
1.16587e-06
1.16583e-06
1.16599e-06
1.16589e-06
1.16584e-06
1.16601e-06
1.41608e-06
1.4146e-06
1.1658e-06
1.16591e-06
1.16592e-06
1.41464e-06
1.41645e-06
1.4145e-06
1.16594e-06
1.16598e-06
1.16589e-06
1.16592e-06
1.41641e-06
1.41445e-06
1.16585e-06
1.16601e-06
1.1658e-06
1.16596e-06
1.16603e-06
1.1658e-06
1.16598e-06
1.41649e-06
1.41454e-06
1.16594e-06
1.16588e-06
1.16588e-06
1.41458e-06
1.4163e-06
1.41435e-06
1.16586e-06
1.1659e-06
1.16584e-06
1.16588e-06
1.41625e-06
1.41431e-06
1.16577e-06
1.16593e-06
1.16575e-06
1.16591e-06
1.16595e-06
1.16576e-06
1.16593e-06
1.41633e-06
1.4144e-06
1.16586e-06
1.16584e-06
1.16584e-06
1.41443e-06
1.41623e-06
1.4146e-06
1.16587e-06
1.1659e-06
1.16591e-06
1.16594e-06
1.41618e-06
1.41454e-06
1.16578e-06
1.16594e-06
1.16582e-06
1.16598e-06
1.16596e-06
1.16582e-06
1.16599e-06
1.41627e-06
1.41463e-06
1.16587e-06
1.1659e-06
1.1659e-06
1.41467e-06
1.41643e-06
1.41435e-06
1.1659e-06
1.16594e-06
1.16585e-06
1.16589e-06
1.41637e-06
1.41429e-06
1.16581e-06
1.16597e-06
1.16576e-06
1.16592e-06
1.16599e-06
1.16576e-06
1.16594e-06
1.41646e-06
1.41438e-06
1.1659e-06
1.16584e-06
1.16585e-06
1.41442e-06
1.41617e-06
1.4145e-06
1.16586e-06
1.16589e-06
1.16588e-06
1.16591e-06
1.41612e-06
1.41445e-06
1.16577e-06
1.16592e-06
1.16579e-06
1.16595e-06
1.16594e-06
1.16579e-06
1.16597e-06
1.41621e-06
1.41454e-06
1.16585e-06
1.16587e-06
1.16588e-06
1.41458e-06
1.41636e-06
1.41444e-06
1.16589e-06
1.16592e-06
1.16587e-06
1.1659e-06
1.41632e-06
1.41438e-06
1.16579e-06
1.16595e-06
1.16578e-06
1.16594e-06
1.16597e-06
1.16578e-06
1.16595e-06
1.41641e-06
1.41447e-06
1.16588e-06
1.16586e-06
1.16586e-06
1.41451e-06
1.41624e-06
1.41446e-06
1.16587e-06
1.1659e-06
1.16586e-06
1.1659e-06
1.41618e-06
1.41442e-06
1.16578e-06
1.16594e-06
1.16577e-06
1.16593e-06
1.16596e-06
1.16578e-06
1.16595e-06
1.41627e-06
1.41451e-06
1.16586e-06
1.16585e-06
1.16586e-06
1.41455e-06
1.41635e-06
1.4144e-06
1.16588e-06
1.16592e-06
1.16586e-06
1.1659e-06
1.41631e-06
1.41433e-06
1.16579e-06
1.16595e-06
1.16577e-06
1.16593e-06
1.16597e-06
1.16577e-06
1.16595e-06
1.4164e-06
1.41443e-06
1.16588e-06
1.16585e-06
1.16586e-06
1.41447e-06
1.41621e-06
1.41446e-06
1.16587e-06
1.1659e-06
1.16586e-06
1.1659e-06
1.41615e-06
1.41443e-06
1.16577e-06
1.16594e-06
1.16577e-06
1.16593e-06
1.16595e-06
1.16577e-06
1.16595e-06
1.41625e-06
1.41451e-06
1.16586e-06
1.16585e-06
1.16585e-06
1.41454e-06
1.41634e-06
1.41437e-06
1.16588e-06
1.16592e-06
1.16585e-06
1.16588e-06
1.41631e-06
1.41429e-06
1.16579e-06
1.16595e-06
1.16576e-06
1.16592e-06
1.16597e-06
1.16576e-06
1.16594e-06
1.41639e-06
1.4144e-06
1.16587e-06
1.16584e-06
1.16584e-06
1.41444e-06
1.41619e-06
1.41449e-06
1.16587e-06
1.16591e-06
1.16585e-06
1.16588e-06
1.41613e-06
1.41445e-06
1.16578e-06
1.16594e-06
1.16576e-06
1.16592e-06
1.16596e-06
1.16576e-06
1.16593e-06
1.41622e-06
1.41454e-06
1.16587e-06
1.16584e-06
1.16584e-06
1.41457e-06
1.41636e-06
1.41432e-06
1.16588e-06
1.16592e-06
1.16584e-06
1.16587e-06
1.4163e-06
1.41429e-06
1.16579e-06
1.16595e-06
1.16574e-06
1.16591e-06
1.16597e-06
1.16575e-06
1.16592e-06
1.41639e-06
1.41438e-06
1.16588e-06
1.16583e-06
1.16583e-06
1.41441e-06
1.41619e-06
1.41446e-06
1.16588e-06
1.16592e-06
1.16583e-06
1.16586e-06
1.41617e-06
1.41437e-06
1.16579e-06
1.16596e-06
1.16574e-06
1.1659e-06
1.16598e-06
1.16574e-06
1.16592e-06
1.41625e-06
1.41447e-06
1.16588e-06
1.16582e-06
1.16582e-06
1.41452e-06
1.41627e-06
1.41444e-06
1.16589e-06
1.16593e-06
1.16581e-06
1.16585e-06
1.41619e-06
1.41441e-06
1.16581e-06
1.16597e-06
1.16572e-06
1.16588e-06
1.16599e-06
1.16573e-06
1.16591e-06
1.41628e-06
1.41451e-06
1.16589e-06
1.16581e-06
1.16581e-06
1.41454e-06
1.41632e-06
1.41434e-06
1.16591e-06
1.16595e-06
1.1658e-06
1.16584e-06
1.41629e-06
1.4143e-06
1.16582e-06
1.16598e-06
1.16571e-06
1.16587e-06
1.166e-06
1.16571e-06
1.16589e-06
1.41637e-06
1.41439e-06
1.16591e-06
1.16579e-06
1.1658e-06
1.41443e-06
1.41622e-06
1.41439e-06
1.16594e-06
1.16597e-06
1.16578e-06
1.16582e-06
1.41619e-06
1.41432e-06
1.16585e-06
1.16601e-06
1.1657e-06
1.16586e-06
1.16603e-06
1.1657e-06
1.16587e-06
1.41628e-06
1.41442e-06
1.16593e-06
1.16578e-06
1.16578e-06
1.41448e-06
1.41622e-06
1.41422e-06
1.16597e-06
1.16601e-06
1.16539e-06
1.16543e-06
1.41617e-06
1.41416e-06
1.16588e-06
1.16604e-06
1.1653e-06
1.16545e-06
1.16606e-06
1.1653e-06
1.16548e-06
1.41625e-06
1.41426e-06
1.16597e-06
1.16537e-06
1.16537e-06
1.41427e-06
1.41595e-06
1.39524e-06
1.16568e-06
1.16571e-06
1.14459e-06
1.14462e-06
1.4159e-06
1.39523e-06
1.16558e-06
1.16575e-06
1.14456e-06
1.14458e-06
1.16577e-06
1.14462e-06
1.14465e-06
1.41597e-06
1.39527e-06
1.16566e-06
1.14462e-06
1.14462e-06
1.3953e-06
1.37386e-06
1.10788e-06
1.1079e-06
1.37387e-06
1.10788e-06
1.10786e-06
6.20832e-07
6.20804e-07
6.20851e-07
1.10794e-06
1.37389e-06
1.10793e-06
1.30561e-08
3.02123e-09
8.20912e-09
8.19901e-09
1.61109e-09
4.33465e-09
3.41463e-08
4.76733e-09
1.51249e-09
4.51721e-09
4.58242e-09
1.76873e-08
5.18443e-09
3.7441e-09
8.27003e-09
7.4632e-09
1.67656e-07
6.14759e-09
2.65378e-07
1.53176e-06
3.13213e-06
7.25414e-09
1.74218e-07
6.11314e-09
2.7333e-07
5.23559e-09
4.9927e-09
4.85202e-09
4.91638e-09
5.22352e-09
4.98656e-09
4.83865e-09
1.76533e-09
1.11891e-07
3.07985e-09
4.48396e-09
1.73608e-09
8.22988e-08
3.04452e-09
1.55482e-06
3.08155e-06
1.51534e-09
3.57424e-09
1.0279e-07
6.14874e-09
1.52476e-09
3.50592e-09
7.92707e-08
2.15599e-07
2.19076e-07
4.77583e-09
1.84139e-07
1.88137e-07
1.64331e-08
4.79693e-07
1.27179e-08
6.80295e-07
7.03126e-06
1.02074e-05
1.58728e-08
4.91649e-07
1.2571e-08
6.97923e-07
5.22655e-09
4.98362e-09
4.83212e-09