/*--------------------------------*- C++ -*----------------------------------*\
| =========                 |                                                 |
| \\      /  F ield         | OpenFOAM: The Open Source CFD Toolbox           |
|  \\    /   O peration     | Version:  v2012                                 |
|   \\  /    A nd           | Website:  www.openfoam.com                      |
|    \\/     M anipulation  |                                                 |
\*---------------------------------------------------------------------------*/
FoamFile
{
    version     2.0;
    format      ascii;
    class       volScalarField;
    location    "275";
    object      k;
}
// * * * * * * * * * * * * * * * * * * * * * * * * * * * * * * * * * * * * * //

dimensions      [0 2 -2 0 0 0 0];


internalField   nonuniform List<scalar> 
171728
(
6.98254e-07
2.97721e-07
4.35368e-07
3.4839e-07
6.9023e-07
2.88083e-07
4.22659e-07
3.30119e-07
6.9749e-07
2.80225e-07
4.1253e-07
3.14176e-07
7.05182e-07
2.72442e-07
4.058e-07
2.99736e-07
7.13206e-07
2.62355e-07
4.00928e-07
2.86304e-07
7.21603e-07
2.50636e-07
3.97327e-07
2.73845e-07
7.30554e-07
2.39418e-07
3.78618e-07
2.62683e-07
7.40033e-07
2.30307e-07
3.28688e-07
2.53112e-07
7.50802e-07
2.23486e-07
2.73537e-07
2.44559e-07
7.61885e-07
2.16872e-07
2.34265e-07
2.37189e-07
7.73476e-07
2.14137e-07
2.10676e-07
2.30122e-07
7.85807e-07
2.14489e-07
2.01094e-07
2.24379e-07
7.98308e-07
2.17828e-07
1.9745e-07
2.20183e-07
8.11763e-07
2.39064e-07
1.97245e-07
2.17592e-07
8.25099e-07
2.9167e-07
2.00489e-07
2.16531e-07
8.40073e-07
3.98079e-07
2.11691e-07
2.19171e-07
8.54779e-07
5.7963e-07
2.40437e-07
2.29017e-07
8.72396e-07
7.50639e-07
2.88769e-07
2.50131e-07
8.89243e-07
8.4794e-07
3.7771e-07
2.87538e-07
9.05748e-07
8.53759e-07
5.14208e-07
3.50344e-07
9.21347e-07
6.55394e-07
6.01635e-07
4.80687e-07
9.31739e-07
6.62484e-07
7.36265e-07
7.22715e-07
9.39474e-07
8.89129e-07
9.20645e-07
1.04517e-06
9.46808e-07
8.94007e-07
1.0103e-06
1.89474e-06
9.65591e-07
1.29097e-06
1.30871e-06
2.80527e-06
9.8733e-07
1.80479e-06
1.87768e-06
4.00002e-06
1.01406e-06
2.01114e-06
2.24822e-06
5.88878e-06
1.04398e-06
3.06812e-06
2.7408e-06
7.76236e-06
1.08519e-06
3.15007e-06
3.8417e-06
1.02247e-05
1.13961e-06
4.97747e-06
4.18952e-06
1.2795e-05
1.19441e-06
5.14011e-06
5.84221e-06
1.55434e-05
1.27409e-06
6.91459e-06
6.37552e-06
1.69643e-05
1.40665e-06
7.77566e-06
7.7289e-06
2.14884e-05
1.50772e-06
9.39054e-06
9.54792e-06
2.12189e-05
1.69074e-06
1.0622e-05
1.03877e-05
2.39695e-05
1.87325e-06
1.26796e-05
1.24197e-05
2.52427e-05
2.20358e-06
1.32822e-05
1.40879e-05
2.7405e-05
2.51115e-06
1.65872e-05
1.61229e-05
2.82949e-05
2.63449e-06
1.71862e-05
1.68189e-05
2.91272e-05
3.43195e-06
1.93274e-05
1.97152e-05
3.14868e-05
3.68102e-06
2.13583e-05
2.11849e-05
3.20055e-05
4.35786e-06
2.29295e-05
2.27831e-05
3.35518e-05
5.0292e-06
2.45133e-05
2.49203e-05
3.42022e-05
5.77463e-06
2.68322e-05
2.63191e-05
3.5887e-05
6.91752e-06
2.81832e-05
2.86419e-05
3.66449e-05
7.48374e-06
2.98875e-05
2.97904e-05
3.78276e-05
9.02041e-06
3.1763e-05
3.15885e-05
3.91474e-05
9.86683e-06
3.30369e-05
3.33102e-05
3.97359e-05
1.1364e-05
3.46017e-05
3.44041e-05
4.10053e-05
1.25056e-05
3.60228e-05
3.60235e-05
4.18274e-05
1.39356e-05
3.73278e-05
3.7602e-05
4.29417e-05
1.58672e-05
3.84809e-05
3.80874e-05
4.37406e-05
1.64902e-05
3.94869e-05
3.97282e-05
4.4327e-05
1.85847e-05
4.09726e-05
4.10415e-05
4.53726e-05
1.9939e-05
4.19772e-05
4.17557e-05
4.62918e-05
2.18886e-05
4.28455e-05
4.29492e-05
4.70113e-05
2.2649e-05
4.33025e-05
4.33578e-05
4.72068e-05
2.49669e-05
4.5415e-05
4.53885e-05
4.91119e-05
2.6242e-05
4.53251e-05
4.53148e-05
4.85585e-05
2.56176e-05
4.38449e-05
4.38561e-05
4.69906e-05
2.54766e-05
4.44505e-05
4.4462e-05
4.79884e-05
3.01252e-05
4.84366e-05
4.84186e-05
5.14632e-05
3.41593e-05
5.1172e-05
5.11466e-05
5.40068e-05
3.58053e-05
5.19476e-05
5.19236e-05
5.44908e-05
3.53224e-05
5.03724e-05
5.03729e-05
5.26819e-05
3.09195e-05
4.62678e-05
4.62802e-05
4.87451e-05
2.70717e-05
4.32162e-05
4.32273e-05
4.58524e-05
2.5869e-05
4.29318e-05
4.29386e-05
4.599e-05
2.92593e-05
4.59669e-05
4.59683e-05
4.86599e-05
3.40328e-05
4.8631e-05
4.86318e-05
5.10618e-05
3.72354e-05
5.03671e-05
5.03679e-05
5.26437e-05
3.88666e-05
5.12268e-05
5.12277e-05
5.34492e-05
3.95811e-05
5.16003e-05
5.1601e-05
5.38087e-05
3.98797e-05
5.17487e-05
5.17493e-05
5.39525e-05
3.99668e-05
5.17818e-05
5.17825e-05
5.39936e-05
3.99724e-05
5.1777e-05
5.17777e-05
5.39939e-05
3.99849e-05
5.17873e-05
5.17878e-05
5.39993e-05
3.99872e-05
5.17887e-05
5.17893e-05
5.40105e-05
3.99826e-05
5.17814e-05
5.17821e-05
5.39887e-05
3.99852e-05
5.17878e-05
5.17884e-05
5.40077e-05
3.99833e-05
5.1783e-05
5.17837e-05
5.39961e-05
3.99841e-05
5.17858e-05
5.17865e-05
5.39983e-05
3.99838e-05
5.1785e-05
5.17855e-05
5.40041e-05
3.99837e-05
5.17849e-05
5.17856e-05
5.39948e-05
3.99835e-05
5.17848e-05
5.17855e-05
5.40039e-05
3.99833e-05
5.1785e-05
5.17855e-05
5.3997e-05
3.99832e-05
5.17845e-05
5.17851e-05
5.40002e-05
3.99832e-05
5.17851e-05
5.17856e-05
5.40021e-05
3.99832e-05
5.1785e-05
5.17856e-05
5.3993e-05
3.99833e-05
5.17854e-05
5.1786e-05
5.40068e-05
3.99835e-05
5.17861e-05
5.17867e-05
5.3998e-05
3.99838e-05
5.17868e-05
5.17874e-05
5.39943e-05
3.99839e-05
5.17883e-05
5.17888e-05
5.40047e-05
3.99729e-05
5.17712e-05
5.17715e-05
5.39976e-05
3.95229e-05
5.06083e-05
5.06073e-05
5.36463e-05
3.65512e-07
3.308e-07
3.19583e-07
3.54076e-07
3.11817e-07
3.32381e-07
7.15051e-07
7.17835e-07
7.25229e-07
7.11705e-07
2.98478e-07
3.41166e-07
3.55251e-07
3.74266e-07
3.33646e-07
3.51059e-07
3.64256e-07
3.45614e-07
3.33289e-07
3.27601e-07
3.25455e-07
3.14024e-07
3.52968e-07
3.35237e-07
3.2854e-07
3.32401e-07
3.17751e-07
3.25609e-07
3.47149e-07
2.90049e-07
3.34986e-07
3.52712e-07
3.40017e-07
3.71533e-07
4.25642e-07
3.58125e-07
3.33021e-07
3.44235e-07
3.27919e-07
3.23416e-07
3.09733e-07
3.18399e-07
2.97568e-07
3.33975e-07
3.17686e-07
3.13789e-07
3.23314e-07
3.02352e-07
3.16191e-07
3.30898e-07
2.82248e-07
3.18976e-07
3.37308e-07
3.27233e-07
3.53518e-07
4.14633e-07
3.40753e-07
3.16916e-07
3.26061e-07
3.12445e-07
3.16882e-07
2.93743e-07
3.12503e-07
2.8336e-07
3.16557e-07
3.02729e-07
2.98955e-07
3.1391e-07
2.89985e-07
3.07178e-07
3.15174e-07
2.74481e-07
3.04586e-07
3.24772e-07
3.15545e-07
3.36776e-07
4.06774e-07
3.22296e-07
3.02296e-07
3.10161e-07
2.98572e-07
3.10999e-07
2.80297e-07
3.06304e-07
2.72528e-07
3.01314e-07
2.88894e-07
2.87172e-07
3.05084e-07
2.78801e-07
2.99424e-07
3.01336e-07
2.65224e-07
2.92275e-07
3.13346e-07
3.05532e-07
3.17127e-07
4.02609e-07
3.02879e-07
2.88588e-07
2.96441e-07
2.86617e-07
3.04795e-07
2.70148e-07
3.00198e-07
2.63938e-07
2.87431e-07
2.75277e-07
2.75905e-07
2.9766e-07
2.67015e-07
2.93179e-07
2.89397e-07
2.53393e-07
2.81739e-07
3.03414e-07
2.96665e-07
2.98092e-07
3.98037e-07
2.8361e-07
2.75936e-07
2.84655e-07
2.76009e-07
2.98626e-07
2.61928e-07
2.9434e-07
2.56658e-07
2.73813e-07
2.61463e-07
2.64209e-07
2.91597e-07
2.55818e-07
2.87278e-07
2.79368e-07
2.42299e-07
2.72482e-07
2.94719e-07
2.88764e-07
2.79093e-07
3.86379e-07
2.67723e-07
2.64459e-07
2.74247e-07
2.66372e-07
2.93005e-07
2.54895e-07
2.89169e-07
2.49262e-07
2.6051e-07
2.49357e-07
2.52922e-07
2.85527e-07
2.43683e-07
2.81085e-07
2.7022e-07
2.32135e-07
2.6374e-07
2.8653e-07
2.76067e-07
2.64687e-07
3.43231e-07
2.57274e-07
2.54678e-07
2.64819e-07
2.57139e-07
2.88053e-07
2.47893e-07
2.8545e-07
2.44019e-07
2.48532e-07
2.39139e-07
2.40613e-07
2.79695e-07
2.32601e-07
2.76523e-07
2.61738e-07
2.25338e-07
2.56128e-07
2.73032e-07
2.59026e-07
2.55269e-07
2.85903e-07
2.50029e-07
2.45997e-07
2.56449e-07
2.48591e-07
2.84428e-07
2.43233e-07
2.8097e-07
2.4303e-07
2.38439e-07
2.3005e-07
2.30254e-07
2.75693e-07
2.23588e-07
2.75125e-07
2.54555e-07
2.1825e-07
2.50396e-07
2.5631e-07
2.44986e-07
2.48473e-07
2.42602e-07
2.44334e-07
2.37998e-07
2.47995e-07
2.40654e-07
2.79962e-07
2.43247e-07
2.7733e-07
2.46623e-07
2.29449e-07
2.22436e-07
2.21656e-07
2.75229e-07
2.17373e-07
2.76532e-07
2.49131e-07
2.14336e-07
2.45566e-07
2.4413e-07
2.35021e-07
2.43034e-07
2.15112e-07
2.3975e-07
2.30644e-07
2.4017e-07
2.33276e-07
2.76611e-07
2.48287e-07
2.74067e-07
2.53029e-07
2.21997e-07
2.16567e-07
2.16287e-07
2.77272e-07
2.12717e-07
2.80845e-07
2.4454e-07
2.14248e-07
2.42072e-07
2.34389e-07
2.27226e-07
2.38784e-07
2.0257e-07
2.36757e-07
2.24699e-07
2.32784e-07
2.24371e-07
2.72931e-07
2.54329e-07
2.67277e-07
2.55902e-07
2.16137e-07
2.10375e-07
2.11629e-07
2.82663e-07
2.1084e-07
2.8984e-07
2.41597e-07
2.15958e-07
2.41196e-07
2.2684e-07
2.22344e-07
2.36277e-07
1.98299e-07
2.35433e-07
2.20271e-07
2.23836e-07
2.1608e-07
2.65068e-07
2.55684e-07
2.57911e-07
2.42949e-07
2.09934e-07
2.05234e-07
2.10947e-07
2.9292e-07
2.1218e-07
3.06939e-07
2.41283e-07
2.31717e-07
2.42181e-07
2.22453e-07
2.22673e-07
2.35448e-07
1.97031e-07
2.36086e-07
2.17473e-07
2.15966e-07
2.13301e-07
2.56125e-07
2.36234e-07
2.52314e-07
2.16682e-07
2.05646e-07
2.09097e-07
2.13089e-07
3.13549e-07
2.1959e-07
3.39158e-07
2.42672e-07
2.7462e-07
2.4471e-07
2.23466e-07
2.27371e-07
2.36513e-07
1.99667e-07
2.38577e-07
2.15963e-07
2.14014e-07
2.17178e-07
2.52206e-07
2.12091e-07
2.53748e-07
2.08048e-07
2.11557e-07
2.3103e-07
2.23126e-07
3.4916e-07
2.38667e-07
3.81971e-07
2.45764e-07
3.64413e-07
2.50282e-07
2.29365e-07
2.38498e-07
2.39622e-07
2.07421e-07
2.44473e-07
2.17727e-07
2.19455e-07
2.28925e-07
2.55399e-07
2.08102e-07
2.61834e-07
2.13831e-07
2.37494e-07
2.88757e-07
2.4537e-07
3.93065e-07
2.71347e-07
4.24946e-07
2.52108e-07
5.31817e-07
2.60821e-07
2.42354e-07
2.56731e-07
2.46593e-07
2.31468e-07
2.56032e-07
2.25536e-07
2.33244e-07
2.58057e-07
2.65774e-07
2.22048e-07
2.80038e-07
2.71248e-07
3.0381e-07
3.82219e-07
2.83072e-07
4.35472e-07
3.25725e-07
4.59077e-07
2.6386e-07
7.13628e-07
2.78608e-07
2.63799e-07
2.85077e-07
2.59257e-07
2.74201e-07
2.73936e-07
2.41074e-07
2.64941e-07
3.11295e-07
2.86182e-07
2.93349e-07
3.10806e-07
3.7391e-07
4.07315e-07
4.68864e-07
3.42938e-07
4.68596e-07
4.07607e-07
4.8127e-07
2.85105e-07
8.36942e-07
3.07932e-07
2.95506e-07
3.28973e-07
2.80855e-07
3.56674e-07
3.03169e-07
2.73586e-07
3.22763e-07
3.99637e-07
3.18125e-07
3.99362e-07
3.55902e-07
5.35887e-07
4.80829e-07
5.34223e-07
4.3016e-07
4.83775e-07
5.11976e-07
4.82404e-07
3.18549e-07
8.52937e-07
3.50329e-07
3.42279e-07
3.90666e-07
3.13358e-07
4.72884e-07
3.44445e-07
3.26683e-07
4.23302e-07
5.4838e-07
3.6867e-07
6.02893e-07
4.34182e-07
7.08885e-07
6.05049e-07
6.8257e-07
5.39932e-07
4.84764e-07
6.46337e-07
4.99424e-07
3.69976e-07
7.08518e-07
4.21255e-07
4.15535e-07
5.0635e-07
3.62569e-07
5.62344e-07
4.16676e-07
4.54184e-07
5.96149e-07
7.51404e-07
4.4503e-07
7.37992e-07
5.54632e-07
9.27592e-07
6.78816e-07
9.00287e-07
6.62302e-07
5.01443e-07
7.97833e-07
5.89966e-07
4.44436e-07
6.49135e-07
5.28032e-07
5.17403e-07
8.10342e-07
4.36221e-07
7.322e-07
5.20952e-07
6.64003e-07
8.82173e-07
1.00736e-06
6.00222e-07
9.51597e-07
6.47914e-07
1.05358e-06
9.86025e-07
1.3426e-06
8.52448e-07
6.05133e-07
8.89302e-07
6.50394e-07
5.67245e-07
8.24647e-07
6.69313e-07
8.36356e-07
9.44668e-07
5.64278e-07
8.36657e-07
6.47889e-07
1.00686e-06
1.05728e-06
1.9966e-06
7.14824e-07
1.14457e-06
9.71213e-07
1.16639e-06
1.58369e-06
1.49019e-06
9.23872e-07
7.53208e-07
1.14436e-06
9.36386e-07
7.21762e-07
9.00084e-07
8.93857e-07
1.19475e-06
1.7777e-06
6.96435e-07
1.00216e-06
9.05548e-07
1.75015e-06
1.99994e-06
2.20553e-06
9.76723e-07
1.14365e-06
1.14292e-06
1.26472e-06
1.45286e-06
2.68094e-06
1.14354e-06
9.50763e-07
1.19327e-06
1.13476e-06
9.6472e-07
1.17115e-06
1.20038e-06
1.78103e-06
2.21552e-06
9.6501e-07
1.20224e-06
1.18631e-06
2.577e-06
2.93726e-06
4.02097e-06
1.37184e-06
1.49955e-06
1.58655e-06
2.04326e-06
3.26635e-06
4.30719e-06
1.37683e-06
1.22928e-06
1.62566e-06
1.69187e-06
1.25662e-06
1.71201e-06
1.60952e-06
2.67042e-06
4.15007e-06
1.25298e-06
1.77077e-06
1.57535e-06
3.56611e-06
4.03305e-06
6.05382e-06
1.63791e-06
2.09777e-06
2.17387e-06
2.15011e-06
4.51006e-06
4.68441e-06
1.69496e-06
1.77444e-06
2.28408e-06
1.99785e-06
1.71082e-06
1.88747e-06
2.10082e-06
4.33094e-06
5.11923e-06
1.70566e-06
2.05563e-06
2.14364e-06
5.60695e-06
6.40072e-06
6.53654e-06
2.24914e-06
2.27777e-06
2.53606e-06
3.10711e-06
4.7632e-06
9.48403e-06
2.34592e-06
2.24143e-06
2.50557e-06
2.62756e-06
2.30654e-06
3.01944e-06
2.62954e-06
5.35809e-06
7.87734e-06
2.25864e-06
2.66845e-06
2.60305e-06
7.32856e-06
6.98153e-06
1.06372e-05
2.82716e-06
3.16236e-06
3.58797e-06
3.16802e-06
9.66225e-06
7.70903e-06
2.78052e-06
2.71753e-06
3.52464e-06
3.59318e-06
2.74506e-06
3.0471e-06
3.51197e-06
8.26397e-06
9.73838e-06
2.84799e-06
3.60069e-06
3.47481e-06
9.83248e-06
1.08754e-05
1.17115e-05
3.68397e-06
3.25367e-06
4.09162e-06
4.77521e-06
7.80227e-06
1.43101e-05
3.63204e-06
3.84761e-06
4.08499e-06
4.08208e-06
3.61015e-06
4.7323e-06
4.1689e-06
1.06875e-05
1.20047e-05
3.53489e-06
4.04857e-06
4.20265e-06
1.18082e-05
1.21875e-05
1.52217e-05
4.47789e-06
5.10381e-06
5.29487e-06
5.32523e-06
1.47938e-05
1.42609e-05
4.45643e-06
4.18543e-06
5.33425e-06
5.64834e-06
4.75317e-06
5.09101e-06
5.5377e-06
1.20861e-05
1.5713e-05
4.74649e-06
5.63735e-06
5.48998e-06
1.54779e-05
1.57905e-05
1.65789e-05
5.46936e-06
5.3767e-06
6.30269e-06
6.65534e-06
1.42761e-05
1.77798e-05
5.43886e-06
5.94406e-06
6.17653e-06
6.15852e-06
5.54218e-06
6.59493e-06
5.80153e-06
1.64355e-05
1.67183e-05
5.50735e-06
6.05328e-06
5.90246e-06
1.55712e-05
1.70507e-05
1.98673e-05
6.56981e-06
6.99672e-06
7.55117e-06
7.31729e-06
1.86492e-05
1.9218e-05
6.5163e-06
6.33387e-06
7.70335e-06
7.62346e-06
6.6e-06
7.44019e-06
8.42815e-06
1.68351e-05
1.97975e-05
6.72545e-06
7.48643e-06
8.35795e-06
2.13682e-05
2.03551e-05
2.13854e-05
8.0508e-06
7.55175e-06
9.1082e-06
9.20715e-06
1.93968e-05
2.19383e-05
8.14764e-06
7.77326e-06
8.86104e-06
9.05841e-06
8.6504e-06
9.02192e-06
8.83536e-06
2.04182e-05
2.14575e-05
8.57868e-06
9.18096e-06
8.75731e-06
2.10431e-05
2.17473e-05
2.32575e-05
9.21382e-06
9.50599e-06
1.01807e-05
1.00592e-05
2.24383e-05
2.31935e-05
8.96927e-06
9.43434e-06
1.02728e-05
9.99041e-06
8.87599e-06
1.01988e-05
1.01073e-05
2.19431e-05
2.3266e-05
8.81176e-06
1.00042e-05
1.02855e-05
2.33376e-05
2.36879e-05
2.48767e-05
1.08617e-05
1.05374e-05
1.1897e-05
1.24001e-05
2.3691e-05
2.5283e-05
1.09353e-05
1.05022e-05
1.19647e-05
1.22951e-05
1.10517e-05
1.23364e-05
1.23357e-05
2.3614e-05
2.50194e-05
1.11496e-05
1.21945e-05
1.22526e-05
2.50714e-05
2.53038e-05
2.70271e-05
1.20428e-05
1.27454e-05
1.38091e-05
1.30851e-05
2.55049e-05
2.61263e-05
1.2087e-05
1.25368e-05
1.36857e-05
1.31908e-05
1.24061e-05
1.30289e-05
1.30737e-05
2.53822e-05
2.68297e-05
1.2309e-05
1.33005e-05
1.30914e-05
2.67674e-05
2.73924e-05
2.78815e-05
1.45843e-05
1.33227e-05
1.56923e-05
1.59635e-05
2.66585e-05
2.86886e-05
1.44896e-05
1.39599e-05
1.56816e-05
1.59274e-05
1.40585e-05
1.59423e-05
1.59688e-05
2.73003e-05
2.81859e-05
1.41457e-05
1.59336e-05
1.59964e-05
2.82324e-05
2.80311e-05
2.90824e-05
1.5757e-05
1.66311e-05
1.63236e-05
1.72212e-05
2.89544e-05
2.89483e-05
1.57542e-05
1.61412e-05
1.62746e-05
1.64453e-05
1.61113e-05
1.71445e-05
1.62812e-05
2.83475e-05
2.88659e-05
1.6121e-05
1.64023e-05
1.62501e-05
2.86525e-05
2.96328e-05
3.10948e-05
1.71668e-05
1.72545e-05
1.94247e-05
1.82994e-05
2.90864e-05
3.06457e-05
1.71276e-05
1.68788e-05
1.94521e-05
1.91305e-05
1.65304e-05
1.83916e-05
1.92734e-05
2.93015e-05
3.10927e-05
1.64655e-05
1.90741e-05
1.9377e-05
3.12099e-05
3.13068e-05
3.17624e-05
1.98513e-05
1.93613e-05
2.0584e-05
2.09839e-05
3.12251e-05
3.21464e-05
1.97904e-05
1.96563e-05
2.04964e-05
2.0995e-05
1.99542e-05
2.09342e-05
2.06624e-05
3.13742e-05
3.19383e-05
2.003e-05
2.10491e-05
2.06255e-05
3.18134e-05
3.20132e-05
3.30733e-05
2.09681e-05
2.13228e-05
2.24969e-05
2.24842e-05
3.23293e-05
3.30278e-05
2.09616e-05
2.12188e-05
2.25436e-05
2.20301e-05
2.08203e-05
2.26094e-05
2.27711e-05
3.21305e-05
3.28182e-05
2.07821e-05
2.20306e-05
2.27777e-05
3.31999e-05
3.33521e-05
3.41274e-05
2.29001e-05
2.2883e-05
2.42881e-05
2.422e-05
3.32887e-05
3.40442e-05
2.28875e-05
2.27394e-05
2.41817e-05
2.47874e-05
2.33613e-05
2.40168e-05
2.3967e-05
3.31948e-05
3.44461e-05
2.33567e-05
2.47004e-05
2.39579e-05
3.40219e-05
3.44343e-05
3.54183e-05
2.48495e-05
2.4659e-05
2.60304e-05
2.6043e-05
3.43386e-05
3.54754e-05
2.47998e-05
2.50315e-05
2.61188e-05
2.56336e-05
2.42818e-05
2.62666e-05
2.63271e-05
3.46183e-05
3.50481e-05
2.42978e-05
2.56914e-05
2.62912e-05
3.55597e-05
3.56371e-05
3.65548e-05
2.64075e-05
2.66137e-05
2.81702e-05
2.80605e-05
3.57635e-05
3.65011e-05
2.64406e-05
2.63037e-05
2.80303e-05
2.81947e-05
2.67851e-05
2.79673e-05
2.79222e-05
3.53786e-05
3.68087e-05
2.68137e-05
2.8296e-05
2.79081e-05
3.64589e-05
3.68487e-05
3.74124e-05
2.86207e-05
2.8315e-05
2.92247e-05
2.93484e-05
3.66871e-05
3.74092e-05
2.85143e-05
2.8515e-05
2.92711e-05
2.94994e-05
2.83508e-05
2.93164e-05
2.93972e-05
3.70039e-05
3.73999e-05
2.82274e-05
2.9368e-05
2.94259e-05
3.75524e-05
3.75924e-05
3.8855e-05
2.96086e-05
2.98971e-05
3.14863e-05
3.13636e-05
3.77244e-05
3.88524e-05
2.96449e-05
2.99467e-05
3.14433e-05
3.1111e-05
2.97783e-05
3.14093e-05
3.15085e-05
3.76158e-05
3.86857e-05
2.9966e-05
3.12295e-05
3.15075e-05
3.89024e-05
3.91436e-05
3.9561e-05
3.19058e-05
3.16978e-05
3.25396e-05
3.27283e-05
3.90461e-05
3.95977e-05
3.18784e-05
3.14739e-05
3.25797e-05
3.29842e-05
3.20042e-05
3.27167e-05
3.2675e-05
3.89214e-05
3.97837e-05
3.18217e-05
3.28201e-05
3.26995e-05
3.95848e-05
3.97194e-05
4.09054e-05
3.29092e-05
3.30956e-05
3.4487e-05
3.41907e-05
3.98212e-05
4.06956e-05
3.29267e-05
3.34415e-05
3.43857e-05
3.40743e-05
3.28768e-05
3.41436e-05
3.42151e-05
4.00558e-05
4.06353e-05
3.30988e-05
3.42378e-05
3.42485e-05
4.07327e-05
4.1155e-05
4.15144e-05
3.48818e-05
3.46064e-05
3.54611e-05
3.5732e-05
4.09314e-05
4.17828e-05
3.47764e-05
3.42753e-05
3.54197e-05
3.5599e-05
3.47545e-05
3.57618e-05
3.56707e-05
4.07535e-05
4.16693e-05
3.45699e-05
3.5458e-05
3.55549e-05
4.16707e-05
4.16405e-05
4.27495e-05
3.57109e-05
3.60115e-05
3.70238e-05
3.68786e-05
4.19689e-05
4.25705e-05
3.56761e-05
3.61466e-05
3.7004e-05
3.72988e-05
3.58435e-05
3.69123e-05
3.69285e-05
4.20249e-05
4.29535e-05
3.59441e-05
3.73813e-05
3.71644e-05
4.26713e-05
4.30657e-05
4.36946e-05
3.75074e-05
3.7265e-05
3.84585e-05
3.83369e-05
4.27958e-05
4.35861e-05
3.75305e-05
3.75249e-05
3.8536e-05
3.80254e-05
3.74648e-05
3.83593e-05
3.85785e-05
4.30561e-05
4.31937e-05
3.75439e-05
3.79577e-05
3.83043e-05
4.36492e-05
4.37567e-05
4.3955e-05
3.85538e-05
3.85177e-05
3.9007e-05
3.91453e-05
4.37041e-05
4.41363e-05
3.86166e-05
3.81468e-05
3.88327e-05
3.90704e-05
3.86768e-05
3.90254e-05
3.90555e-05
4.32967e-05
4.42614e-05
3.83956e-05
3.91538e-05
3.8981e-05
4.40819e-05
4.41946e-05
4.53925e-05
3.94218e-05
3.95718e-05
4.0651e-05
4.07425e-05
4.44001e-05
4.5479e-05
3.92071e-05
3.96412e-05
4.07118e-05
4.1e-05
3.94867e-05
4.07969e-05
4.05683e-05
4.46181e-05
4.56233e-05
3.94275e-05
4.09344e-05
4.05617e-05
4.52543e-05
4.55549e-05
4.5958e-05
4.08352e-05
4.08989e-05
4.14858e-05
4.15136e-05
4.56062e-05
4.59862e-05
4.09552e-05
4.11471e-05
4.15604e-05
4.14197e-05
4.07021e-05
4.15889e-05
4.14695e-05
4.56971e-05
4.5822e-05
4.07392e-05
4.13291e-05
4.16217e-05
4.59923e-05
4.61867e-05
4.68778e-05
4.1901e-05
4.19153e-05
4.28439e-05
4.27922e-05
4.622e-05
4.68344e-05
4.19309e-05
4.17863e-05
4.27943e-05
4.27629e-05
4.19325e-05
4.27915e-05
4.2877e-05
4.60374e-05
4.68674e-05
4.20826e-05
4.28519e-05
4.29777e-05
4.69808e-05
4.69257e-05
4.70257e-05
4.29234e-05
4.28584e-05
4.30789e-05
4.30065e-05
4.68706e-05
4.69492e-05
4.28665e-05
4.28481e-05
4.30376e-05
4.30414e-05
4.29414e-05
4.29808e-05
4.30294e-05
4.69211e-05
4.70057e-05
4.30341e-05
4.30912e-05
4.3088e-05
4.69618e-05
4.73004e-05
4.89329e-05
4.33834e-05
4.3323e-05
4.51105e-05
4.51029e-05
4.72414e-05
4.89421e-05
4.33744e-05
4.34014e-05
4.50995e-05
4.51227e-05
4.32613e-05
4.51208e-05
4.50902e-05
4.72726e-05
4.89225e-05
4.32745e-05
4.5091e-05
4.50587e-05
4.89296e-05
4.91097e-05
4.86707e-05
4.54019e-05
4.5403e-05
4.54976e-05
4.55078e-05
4.91208e-05
4.86836e-05
4.53881e-05
4.54075e-05
4.54809e-05
4.54937e-05
4.53984e-05
4.55076e-05
4.55034e-05
4.91008e-05
4.86579e-05
4.53675e-05
4.54893e-05
4.54731e-05
4.86797e-05
4.85482e-05
4.69973e-05
4.53208e-05
4.53373e-05
4.40676e-05
4.40869e-05
4.85615e-05
4.70067e-05
4.53036e-05
4.53081e-05
4.40601e-05
4.40491e-05
4.53297e-05
4.40638e-05
4.40843e-05
4.8534e-05
4.69836e-05
4.52995e-05
4.40716e-05
4.40692e-05
4.70192e-05
4.69683e-05
4.7519e-05
4.38488e-05
4.38645e-05
4.3891e-05
4.3892e-05
4.69766e-05
4.75043e-05
4.38447e-05
4.38326e-05
4.38963e-05
4.38829e-05
4.38667e-05
4.38875e-05
4.39095e-05
4.69554e-05
4.75135e-05
4.38567e-05
4.39018e-05
4.39112e-05
4.75303e-05
4.79816e-05
5.08415e-05
4.44521e-05
4.44301e-05
4.74698e-05
4.74506e-05
4.79631e-05
5.08258e-05
4.44705e-05
4.44563e-05
4.74803e-05
4.7475e-05
4.44698e-05
4.74684e-05
4.74751e-05
4.79758e-05
5.08325e-05
4.44845e-05
4.74545e-05
4.74699e-05
5.08325e-05
5.14723e-05
5.37135e-05
4.84378e-05
4.84223e-05
5.06925e-05
5.06895e-05
5.14586e-05
5.37121e-05
4.84461e-05
4.84405e-05
5.06962e-05
5.06876e-05
4.84417e-05
5.06959e-05
5.06974e-05
5.14624e-05
5.37002e-05
4.84345e-05
5.06716e-05
5.06906e-05
5.37131e-05
5.40054e-05
5.44736e-05
5.11665e-05
5.11674e-05
5.18908e-05
5.19015e-05
5.40067e-05
5.44857e-05
5.11694e-05
5.11599e-05
5.18923e-05
5.18809e-05
5.11727e-05
5.19027e-05
5.19011e-05
5.39918e-05
5.44617e-05
5.11668e-05
5.18773e-05
5.18984e-05
5.44831e-05
5.44803e-05
5.30138e-05
5.1935e-05
5.19473e-05
5.12004e-05
5.12199e-05
5.44937e-05
5.30257e-05
5.1936e-05
5.19244e-05
5.11958e-05
5.11856e-05
5.19459e-05
5.12122e-05
5.12116e-05
5.44691e-05
5.30125e-05
5.19441e-05
5.12077e-05
5.12173e-05
5.30249e-05
5.2672e-05
4.91888e-05
5.0364e-05
5.03787e-05
4.73338e-05
4.73394e-05
5.26822e-05
4.91905e-05
5.03602e-05
5.03524e-05
4.73313e-05
4.73307e-05
5.03718e-05
4.73346e-05
4.73342e-05
5.26719e-05
4.91958e-05
5.03774e-05
4.73456e-05
4.73397e-05
4.91903e-05
4.87436e-05
4.59857e-05
4.62677e-05
4.62713e-05
4.37174e-05
4.37173e-05
4.87449e-05
4.59843e-05
4.62654e-05
4.6267e-05
4.37148e-05
4.37216e-05
4.62668e-05
4.37151e-05
4.37151e-05
4.8751e-05
4.59946e-05
4.62721e-05
4.37271e-05
4.3719e-05
4.59853e-05
4.58525e-05
4.56869e-05
4.32186e-05
4.32179e-05
4.2796e-05
4.27945e-05
4.58512e-05
4.5685e-05
4.32159e-05
4.32237e-05
4.2793e-05
4.28016e-05
4.32166e-05
4.27932e-05
4.27951e-05
4.58612e-05
4.56928e-05
4.32197e-05
4.28018e-05
4.27963e-05
4.56878e-05
4.59888e-05
4.81822e-05
4.29345e-05
4.2933e-05
4.51983e-05
4.51985e-05
4.5987e-05
4.81815e-05
4.29315e-05
4.29399e-05
4.5196e-05
4.52008e-05
4.29344e-05
4.51973e-05
4.52e-05
4.59937e-05
4.81842e-05
4.29345e-05
4.51991e-05
4.51981e-05
4.81836e-05
4.86588e-05
5.06811e-05
4.59679e-05
4.59685e-05
4.80399e-05
4.80409e-05
4.86583e-05
5.06808e-05
4.5966e-05
4.59697e-05
4.80387e-05
4.80403e-05
4.59696e-05
4.80401e-05
4.80416e-05
4.86604e-05
5.06815e-05
4.59679e-05
4.80408e-05
4.80403e-05
5.06822e-05
5.10608e-05
5.24162e-05
4.86309e-05
4.86318e-05
5.00266e-05
5.00275e-05
5.10606e-05
5.2416e-05
4.863e-05
4.8631e-05
5.00263e-05
5.00265e-05
4.86328e-05
5.00276e-05
5.00289e-05
5.10611e-05
5.24162e-05
4.86316e-05
5.00284e-05
5.00283e-05
5.24177e-05
5.26423e-05
5.33302e-05
5.03661e-05
5.03669e-05
5.1071e-05
5.10716e-05
5.26422e-05
5.33301e-05
5.03659e-05
5.0366e-05
5.10709e-05
5.10709e-05
5.03685e-05
5.10725e-05
5.10737e-05
5.26423e-05
5.33302e-05
5.03682e-05
5.10734e-05
5.10737e-05
5.3332e-05
5.34474e-05
5.37467e-05
5.12253e-05
5.12257e-05
5.15324e-05
5.15328e-05
5.34473e-05
5.37468e-05
5.12253e-05
5.12252e-05
5.15323e-05
5.15323e-05
5.12281e-05
5.15343e-05
5.15352e-05
5.34474e-05
5.37469e-05
5.12282e-05
5.15351e-05
5.15354e-05
5.37486e-05
5.38067e-05
5.39193e-05
5.15984e-05
5.15988e-05
5.17234e-05
5.17239e-05
5.38069e-05
5.39196e-05
5.15984e-05
5.15983e-05
5.17234e-05
5.17232e-05
5.16012e-05
5.17255e-05
5.17262e-05
5.3807e-05
5.39195e-05
5.16014e-05
5.17261e-05
5.17265e-05
5.39213e-05
5.39505e-05
5.39725e-05
5.17465e-05
5.1747e-05
5.17776e-05
5.17782e-05
5.39508e-05
5.39727e-05
5.17466e-05
5.17464e-05
5.17777e-05
5.17774e-05
5.17494e-05
5.17797e-05
5.17806e-05
5.39507e-05
5.39726e-05
5.17497e-05
5.17804e-05
5.17808e-05
5.39745e-05
5.39915e-05
5.39779e-05
5.17798e-05
5.17803e-05
5.17767e-05
5.17772e-05
5.39918e-05
5.39779e-05
5.17799e-05
5.17795e-05
5.17769e-05
5.17765e-05
5.17827e-05
5.17788e-05
5.17798e-05
5.39916e-05
5.3978e-05
5.1783e-05
5.17795e-05
5.178e-05
5.398e-05
5.39917e-05
5.39749e-05
5.17748e-05
5.17753e-05
5.17793e-05
5.178e-05
5.39917e-05
5.39757e-05
5.1775e-05
5.17747e-05
5.17795e-05
5.17792e-05
5.17779e-05
5.17817e-05
5.17822e-05
5.39918e-05
5.39752e-05
5.17781e-05
5.17822e-05
5.17825e-05
5.39767e-05
5.39974e-05
5.39942e-05
5.17849e-05
5.17856e-05
5.17886e-05
5.17892e-05
5.39981e-05
5.39943e-05
5.17852e-05
5.17848e-05
5.17888e-05
5.17883e-05
5.17879e-05
5.17908e-05
5.17914e-05
5.39976e-05
5.39941e-05
5.17881e-05
5.17913e-05
5.17917e-05
5.3996e-05
5.40087e-05
5.39712e-05
5.17866e-05
5.17871e-05
5.1779e-05
5.17796e-05
5.40087e-05
5.39712e-05
5.17868e-05
5.17863e-05
5.17792e-05
5.17789e-05
5.17894e-05
5.17812e-05
5.1782e-05
5.40085e-05
5.39713e-05
5.17897e-05
5.17819e-05
5.17823e-05
5.39731e-05
5.39867e-05
5.39871e-05
5.17792e-05
5.17798e-05
5.17851e-05
5.17857e-05
5.39868e-05
5.39877e-05
5.17794e-05
5.17791e-05
5.17853e-05
5.1785e-05
5.17822e-05
5.17873e-05
5.1788e-05
5.39868e-05
5.39876e-05
5.17825e-05
5.1788e-05
5.17883e-05
5.39894e-05
5.40055e-05
5.39816e-05
5.17856e-05
5.17861e-05
5.17815e-05
5.17819e-05
5.4006e-05
5.3981e-05
5.17858e-05
5.17854e-05
5.17818e-05
5.17813e-05
5.17885e-05
5.17836e-05
5.17843e-05
5.40058e-05
5.3981e-05
5.17887e-05
5.17842e-05
5.17845e-05
5.39826e-05
5.3995e-05
5.39761e-05
5.17809e-05
5.17813e-05
5.17819e-05
5.17827e-05
5.39945e-05
5.3977e-05
5.17812e-05
5.17807e-05
5.17821e-05
5.1782e-05
5.17837e-05
5.17843e-05
5.17851e-05
5.39945e-05
5.3977e-05
5.17839e-05
5.17851e-05
5.17854e-05
5.39789e-05
5.39953e-05
5.39891e-05
5.17835e-05
5.17842e-05
5.17833e-05
5.17838e-05
5.39964e-05
5.39888e-05
5.17837e-05
5.17835e-05
5.17836e-05
5.17832e-05
5.17866e-05
5.17854e-05
5.17861e-05
5.39964e-05
5.39887e-05
5.17868e-05
5.1786e-05
5.17863e-05
5.39905e-05
5.4003e-05
5.39728e-05
5.17828e-05
5.17833e-05
5.17811e-05
5.17818e-05
5.40024e-05
5.39736e-05
5.17831e-05
5.17826e-05
5.17813e-05
5.17811e-05
5.17856e-05
5.17835e-05
5.17842e-05
5.40023e-05
5.39735e-05
5.17858e-05
5.17841e-05
5.17844e-05
5.39752e-05
5.3992e-05
5.3989e-05
5.17825e-05
5.17832e-05
5.1783e-05
5.17835e-05
5.39934e-05
5.39884e-05
5.17828e-05
5.17825e-05
5.17832e-05
5.17829e-05
5.17855e-05
5.17851e-05
5.1786e-05
5.39932e-05
5.39886e-05
5.17858e-05
5.17858e-05
5.17862e-05
5.39906e-05
5.40025e-05
5.39742e-05
5.17826e-05
5.17831e-05
5.17815e-05
5.17823e-05
5.40015e-05
5.39759e-05
5.17828e-05
5.17825e-05
5.17817e-05
5.17815e-05
5.17856e-05
5.17839e-05
5.17846e-05
5.40018e-05
5.39753e-05
5.17858e-05
5.17844e-05
5.17847e-05
5.39767e-05
5.39944e-05
5.39859e-05
5.17826e-05
5.17834e-05
5.17818e-05
5.17823e-05
5.39967e-05
5.39839e-05
5.17828e-05
5.17826e-05
5.1782e-05
5.17817e-05
5.17856e-05
5.17839e-05
5.17848e-05
5.39958e-05
5.39847e-05
5.17857e-05
5.17845e-05
5.17848e-05
5.39873e-05
5.39988e-05
5.39787e-05
5.17823e-05
5.17829e-05
5.17815e-05
5.17823e-05
5.39969e-05
5.39817e-05
5.17825e-05
5.17821e-05
5.17817e-05
5.17815e-05
5.17853e-05
5.17839e-05
5.17845e-05
5.39976e-05
5.39807e-05
5.17854e-05
5.17844e-05
5.17846e-05
5.39816e-05
5.39994e-05
5.39781e-05
5.17827e-05
5.17834e-05
5.17812e-05
5.17818e-05
5.40017e-05
5.39762e-05
5.1783e-05
5.17827e-05
5.17814e-05
5.17811e-05
5.17857e-05
5.17834e-05
5.17842e-05
5.40009e-05
5.39767e-05
5.17858e-05
5.17841e-05
5.17843e-05
5.39789e-05
5.39919e-05
5.39871e-05
5.17827e-05
5.17833e-05
5.17811e-05
5.17817e-05
5.39906e-05
5.39884e-05
5.17829e-05
5.17826e-05
5.17813e-05
5.1781e-05
5.17856e-05
5.17833e-05
5.17841e-05
5.39909e-05
5.39882e-05
5.17858e-05
5.17839e-05
5.17842e-05
5.39898e-05
5.40049e-05
5.39736e-05
5.17832e-05
5.17837e-05
5.17806e-05
5.17813e-05
5.40048e-05
5.39759e-05
5.17835e-05
5.17831e-05
5.17808e-05
5.17806e-05
5.17862e-05
5.1783e-05
5.17838e-05
5.40047e-05
5.39759e-05
5.17863e-05
5.17836e-05
5.17839e-05
5.39769e-05
5.39931e-05
5.39797e-05
5.17836e-05
5.17844e-05
5.17802e-05
5.17809e-05
5.39973e-05
5.39774e-05
5.17838e-05
5.17836e-05
5.17806e-05
5.17802e-05
5.17869e-05
5.17826e-05
5.17835e-05
5.39971e-05
5.39771e-05
5.17869e-05
5.17831e-05
5.17835e-05
5.398e-05
5.39936e-05
5.39867e-05
5.17844e-05
5.17851e-05
5.17802e-05
5.17808e-05
5.3992e-05
5.39872e-05
5.17847e-05
5.17844e-05
5.17804e-05
5.17802e-05
5.17876e-05
5.17825e-05
5.17834e-05
5.39917e-05
5.39869e-05
5.17877e-05
5.17831e-05
5.17834e-05
5.39889e-05
5.40031e-05
5.39763e-05
5.17859e-05
5.17866e-05
5.17777e-05
5.17784e-05
5.40024e-05
5.39788e-05
5.17862e-05
5.17859e-05
5.17779e-05
5.17777e-05
5.17892e-05
5.17801e-05
5.17809e-05
5.40016e-05
5.39796e-05
5.17892e-05
5.17806e-05
5.17809e-05
5.39804e-05
5.39939e-05
5.37992e-05
5.17689e-05
5.17695e-05
5.16164e-05
5.16174e-05
5.39963e-05
5.38007e-05
5.17691e-05
5.17687e-05
5.16181e-05
5.16156e-05
5.17717e-05
5.16207e-05
5.16191e-05
5.39967e-05
5.38007e-05
5.17718e-05
5.16199e-05
5.16205e-05
5.38023e-05
5.36425e-05
5.06034e-05
5.06043e-05
5.36445e-05
5.06053e-05
5.06024e-05
3.95244e-05
3.95234e-05
3.95257e-05
5.0606e-05
5.36442e-05
5.06079e-05
2.09865e-06
3.27087e-07
1.31349e-06
1.31488e-06
9.63656e-08
2.97076e-07
2.25678e-06
7.13746e-07
1.03841e-07
3.78656e-07
7.07141e-07
6.02655e-07
3.57637e-07
2.6721e-07
4.00477e-07
2.96965e-07
5.0318e-06
2.60672e-07
6.73406e-06
1.35288e-05
2.13467e-05
2.9857e-07
5.16206e-06
2.69992e-07
6.86818e-06
7.00489e-07
7.10461e-07
6.95853e-07
6.88913e-07
6.9095e-07
7.02255e-07
6.86641e-07
9.27473e-08
1.50843e-06
3.48201e-07
2.94702e-07
9.51819e-08
1.13598e-06
3.44268e-07
1.36671e-05
2.11161e-05
1.03791e-07
4.02066e-07
9.43606e-07
4.31919e-07
1.04553e-07
3.96691e-07
9.10294e-07
1.8951e-06
1.91688e-06
3.42151e-07
1.87056e-06
1.89705e-06
4.91569e-07
9.98344e-06
4.09055e-07
1.2604e-05
3.65805e-05
4.68956e-05
4.86125e-07
1.01513e-05
4.14094e-07
1.28182e-05
6.92534e-07
7.03628e-07
6.87873e-07