/*--------------------------------*- C++ -*----------------------------------*\
| =========                 |                                                 |
| \\      /  F ield         | OpenFOAM: The Open Source CFD Toolbox           |
|  \\    /   O peration     | Version:  v2012                                 |
|   \\  /    A nd           | Website:  www.openfoam.com                      |
|    \\/     M anipulation  |                                                 |
\*---------------------------------------------------------------------------*/
FoamFile
{
    version     2.0;
    format      ascii;
    class       volScalarField;
    location    "275";
    object      nut;
}
// * * * * * * * * * * * * * * * * * * * * * * * * * * * * * * * * * * * * * //

dimensions      [0 2 -1 0 0 0 0];


internalField   nonuniform List<scalar> 
171728
(
8.90784e-06
1.75896e-06
2.71063e-06
2.19435e-06
8.72509e-06
1.73883e-06
2.83421e-06
2.17761e-06
8.92141e-06
1.73156e-06
3.01356e-06
2.17604e-06
9.12527e-06
1.71496e-06
3.33651e-06
2.1734e-06
9.32852e-06
1.66909e-06
3.77899e-06
2.16292e-06
9.5295e-06
1.59463e-06
4.25269e-06
2.14337e-06
9.73394e-06
1.51112e-06
4.33987e-06
2.12106e-06
9.94144e-06
1.43406e-06
3.61032e-06
2.10042e-06
1.01693e-05
1.36369e-06
2.6948e-06
2.07163e-06
1.03899e-05
1.27787e-06
2.06384e-06
2.03694e-06
1.0606e-05
1.21016e-06
1.67209e-06
1.97788e-06
1.0835e-05
1.15555e-06
1.48311e-06
1.90928e-06
1.10564e-05
1.11146e-06
1.35898e-06
1.83278e-06
1.13e-05
1.25014e-06
1.26086e-06
1.74595e-06
1.15694e-05
1.73163e-06
1.19104e-06
1.63637e-06
1.18914e-05
2.81901e-06
1.18141e-06
1.52373e-06
1.21731e-05
4.98866e-06
1.28959e-06
1.43704e-06
1.24997e-05
6.96277e-06
1.4932e-06
1.36133e-06
1.27725e-05
7.53789e-06
1.96982e-06
1.35936e-06
1.30068e-05
6.1412e-06
2.70776e-06
1.39141e-06
1.31851e-05
3.44861e-06
2.75324e-06
1.76148e-06
1.31821e-05
2.59443e-06
3.29146e-06
2.46371e-06
1.30423e-05
3.53723e-06
3.64362e-06
3.39866e-06
1.28563e-05
3.04269e-06
3.63059e-06
6.52071e-06
1.28037e-05
4.2413e-06
4.29716e-06
9.42467e-06
1.2742e-05
6.55008e-06
6.74824e-06
1.22264e-05
1.26896e-05
5.89535e-06
7.52905e-06
1.89315e-05
1.23819e-05
1.14173e-05
8.86627e-06
2.40128e-05
1.23472e-05
9.18314e-06
1.36741e-05
3.2184e-05
1.2128e-05
1.83259e-05
1.30948e-05
3.74899e-05
1.19143e-05
1.65191e-05
2.10024e-05
4.91459e-05
1.17533e-05
2.42684e-05
2.08175e-05
4.64277e-05
1.21937e-05
2.60564e-05
2.57604e-05
6.80118e-05
1.2239e-05
3.23941e-05
3.35409e-05
6.18979e-05
1.25586e-05
3.55985e-05
3.42662e-05
7.13838e-05
1.31489e-05
4.47674e-05
4.29023e-05
7.45548e-05
1.45675e-05
4.30456e-05
4.75264e-05
8.1895e-05
1.65551e-05
5.87693e-05
5.68019e-05
8.4877e-05
1.47708e-05
5.85772e-05
5.52259e-05
8.48773e-05
2.08487e-05
6.52245e-05
6.76299e-05
9.52156e-05
2.05268e-05
7.31503e-05
7.28348e-05
9.56556e-05
2.41722e-05
7.82149e-05
7.64613e-05
0.000101517
2.67934e-05
8.24327e-05
8.55168e-05
0.000102705
3.02948e-05
9.16362e-05
8.82391e-05
0.00010935
3.66782e-05
9.58526e-05
9.8423e-05
0.000111493
3.76297e-05
0.000101092
0.000100827
0.000115512
4.63753e-05
0.00010868
0.000107535
0.000120923
4.91675e-05
0.000112579
0.000114038
0.000122319
5.67303e-05
0.00011813
0.000117433
0.000127182
6.17475e-05
0.000123761
0.000123079
0.000130062
6.73716e-05
0.000128391
0.000130603
0.000134261
7.93584e-05
0.000133282
0.000130637
0.00013758
7.84994e-05
0.000136115
0.000137255
0.000139064
9.01447e-05
0.000143522
0.000144177
0.000143589
9.53988e-05
0.000147626
0.000145993
0.000147201
0.00010743
0.000152284
0.000152729
0.000151034
0.000107871
0.000152407
0.000152855
0.00015024
0.000122351
0.000166013
0.000165901
0.000160972
0.000132912
0.000167916
0.000167925
0.000160581
0.000124533
0.000157805
0.000157971
0.000151544
0.000114235
0.000156546
0.000156726
0.000152617
0.000144677
0.000178053
0.000178026
0.000167669
0.000178726
0.000195746
0.000195631
0.000181555
0.000197208
0.000203722
0.000203556
0.000187047
0.000202046
0.000199734
0.000199708
0.000183078
0.000165356
0.000177677
0.000177742
0.000166458
0.000129985
0.000158738
0.000158801
0.000151268
0.000113704
0.000154042
0.000154083
0.000148764
0.000132863
0.000170671
0.000170673
0.000160128
0.000169479
0.000186587
0.000186582
0.000171181
0.000197512
0.0001976
0.000197594
0.000178786
0.000213153
0.000203237
0.000203231
0.000182654
0.000220374
0.00020573
0.000205723
0.000184365
0.000223529
0.000206762
0.000206753
0.000185058
0.000224525
0.000207011
0.000207003
0.000185272
0.000224614
0.000206977
0.00020697
0.00018528
0.000224733
0.000207035
0.000207025
0.000185265
0.000224775
0.000207061
0.000207052
0.000185362
0.000224724
0.000207001
0.000206993
0.00018522
0.000224749
0.000207046
0.000207038
0.000185326
0.000224734
0.000207016
0.000207008
0.000185281
0.000224741
0.000207033
0.000207025
0.000185268
0.00022474
0.00020703
0.00020702
0.000185327
0.000224738
0.000207027
0.000207018
0.000185246
0.000224738
0.000207029
0.00020702
0.000185328
0.000224736
0.000207028
0.000207018
0.000185262
0.000224735
0.000207025
0.000207016
0.000185306
0.000224735
0.000207028
0.000207018
0.000185297
0.000224735
0.000207026
0.000207017
0.000185254
0.000224735
0.000207028
0.000207019
0.000185342
0.000224735
0.00020703
0.000207022
0.00018527
0.000224736
0.000207032
0.000207023
0.000185259
0.000224738
0.000207038
0.000207028
0.000185331
0.000224703
0.000206954
0.000206944
0.000185323
0.000226458
0.000208049
0.000208043
0.000188521
2.31703e-06
2.33112e-06
2.28975e-06
2.31433e-06
2.10214e-06
2.315e-06
9.3325e-06
8.82333e-06
9.49142e-06
9.38764e-06
1.86927e-06
2.44343e-06
2.29643e-06
2.97078e-06
2.35062e-06
2.21425e-06
2.31392e-06
2.28527e-06
2.02475e-06
1.9839e-06
2.04542e-06
1.93248e-06
2.31473e-06
2.286e-06
2.02567e-06
1.95562e-06
2.03137e-06
1.97464e-06
2.29491e-06
1.73819e-06
2.29065e-06
2.28819e-06
2.2944e-06
2.42367e-06
2.79748e-06
2.46908e-06
2.19866e-06
2.28447e-06
2.26945e-06
2.06048e-06
1.91802e-06
2.11428e-06
1.87285e-06
2.30316e-06
2.25305e-06
2.0314e-06
1.98217e-06
2.03036e-06
1.99583e-06
2.29008e-06
1.73528e-06
2.2821e-06
2.29334e-06
2.31319e-06
2.48734e-06
2.95898e-06
2.53541e-06
2.19796e-06
2.26008e-06
2.25838e-06
2.13365e-06
1.85807e-06
2.19452e-06
1.82681e-06
2.26999e-06
2.21888e-06
2.03286e-06
1.99951e-06
2.0522e-06
2.00665e-06
2.27897e-06
1.7204e-06
2.27397e-06
2.31282e-06
2.33589e-06
2.54658e-06
3.2321e-06
2.52394e-06
2.19549e-06
2.24076e-06
2.24978e-06
2.21434e-06
1.81909e-06
2.26935e-06
1.8015e-06
2.2269e-06
2.17124e-06
2.05886e-06
2.00927e-06
2.07041e-06
2.02166e-06
2.27379e-06
1.68524e-06
2.27453e-06
2.33696e-06
2.36967e-06
2.50588e-06
3.6738e-06
2.45843e-06
2.18383e-06
2.23204e-06
2.24647e-06
2.28745e-06
1.79387e-06
2.33711e-06
1.77105e-06
2.17448e-06
2.10158e-06
2.06914e-06
2.02586e-06
2.0482e-06
2.04652e-06
2.27409e-06
1.61215e-06
2.27775e-06
2.36743e-06
2.40812e-06
2.43694e-06
4.13215e-06
2.35016e-06
2.16438e-06
2.22846e-06
2.24361e-06
2.3523e-06
1.7608e-06
2.39523e-06
1.7311e-06
2.09703e-06
2.00874e-06
2.03948e-06
2.05033e-06
1.99876e-06
2.06067e-06
2.27922e-06
1.53476e-06
2.278e-06
2.39304e-06
2.45497e-06
2.32016e-06
4.39752e-06
2.24737e-06
2.14023e-06
2.22546e-06
2.22765e-06
2.40885e-06
1.71883e-06
2.45008e-06
1.67062e-06
2.00234e-06
1.9153e-06
1.97994e-06
2.05736e-06
1.90063e-06
2.05013e-06
2.2744e-06
1.44929e-06
2.25763e-06
2.43057e-06
2.40608e-06
2.23075e-06
3.84787e-06
2.19244e-06
2.11929e-06
2.20923e-06
2.18774e-06
2.46461e-06
1.6594e-06
2.51049e-06
1.62492e-06
1.90849e-06
1.83053e-06
1.87072e-06
2.04532e-06
1.78681e-06
2.03723e-06
2.24984e-06
1.3861e-06
2.22126e-06
2.36383e-06
2.25027e-06
2.1829e-06
2.89775e-06
2.15373e-06
2.09182e-06
2.1803e-06
2.13101e-06
2.51938e-06
1.61938e-06
2.52529e-06
1.62967e-06
1.82329e-06
1.74305e-06
1.76082e-06
2.03555e-06
1.6784e-06
2.04828e-06
2.21169e-06
1.29783e-06
2.18247e-06
2.20909e-06
2.10524e-06
2.14325e-06
2.19929e-06
2.11029e-06
2.05021e-06
2.12139e-06
2.0567e-06
2.5249e-06
1.63567e-06
2.51855e-06
1.68647e-06
1.73454e-06
1.64985e-06
1.65129e-06
2.05246e-06
1.58419e-06
2.071e-06
2.17007e-06
1.22359e-06
2.12729e-06
2.09152e-06
1.99063e-06
2.09673e-06
1.74517e-06
2.05549e-06
1.98969e-06
2.04599e-06
1.96891e-06
2.5157e-06
1.71038e-06
2.48776e-06
1.77656e-06
1.63946e-06
1.56091e-06
1.56383e-06
2.07966e-06
1.49087e-06
2.12907e-06
2.11048e-06
1.16971e-06
2.06034e-06
1.97737e-06
1.88511e-06
2.03883e-06
1.5191e-06
1.99506e-06
1.923e-06
1.95364e-06
1.83032e-06
2.46738e-06
1.79438e-06
2.35425e-06
1.81543e-06
1.54743e-06
1.45641e-06
1.46519e-06
2.15702e-06
1.41081e-06
2.25894e-06
2.045e-06
1.11335e-06
2.00102e-06
1.87094e-06
1.80019e-06
1.97929e-06
1.3914e-06
1.92893e-06
1.84999e-06
1.80788e-06
1.66986e-06
2.30656e-06
1.81158e-06
2.13461e-06
1.62725e-06
1.44021e-06
1.35785e-06
1.39407e-06
2.29765e-06
1.34623e-06
2.45782e-06
1.98564e-06
1.19293e-06
1.93624e-06
1.78684e-06
1.75311e-06
1.9123e-06
1.28364e-06
1.85915e-06
1.7687e-06
1.64672e-06
1.55676e-06
2.08284e-06
1.53446e-06
1.93294e-06
1.26089e-06
1.34835e-06
1.34048e-06
1.33296e-06
2.53057e-06
1.32974e-06
2.8093e-06
1.91669e-06
1.56969e-06
1.85094e-06
1.7395e-06
1.72566e-06
1.83999e-06
1.21123e-06
1.77582e-06
1.66603e-06
1.5345e-06
1.48587e-06
1.89544e-06
1.18825e-06
1.78819e-06
1.07386e-06
1.33895e-06
1.46341e-06
1.34163e-06
2.91243e-06
1.41806e-06
3.233e-06
1.82832e-06
2.46033e-06
1.76026e-06
1.71672e-06
1.72951e-06
1.75372e-06
1.17289e-06
1.69186e-06
1.55741e-06
1.4679e-06
1.44119e-06
1.76274e-06
1.04293e-06
1.67335e-06
9.72886e-07
1.4881e-06
1.90099e-06
1.45416e-06
3.33009e-06
1.5901e-06
3.53335e-06
1.73356e-06
4.3899e-06
1.67241e-06
1.7279e-06
1.73575e-06
1.6702e-06
1.25182e-06
1.62273e-06
1.46062e-06
1.41869e-06
1.48405e-06
1.6545e-06
9.98593e-07
1.60936e-06
1.24557e-06
2.00123e-06
2.59775e-06
1.65409e-06
3.58604e-06
1.88408e-06
3.55624e-06
1.64591e-06
6.5462e-06
1.59858e-06
1.74399e-06
1.75461e-06
1.60102e-06
1.4318e-06
1.55358e-06
1.35511e-06
1.46236e-06
1.62242e-06
1.59719e-06
1.37188e-06
1.59796e-06
1.8704e-06
2.77584e-06
3.10195e-06
1.97029e-06
3.5407e-06
2.32483e-06
3.2937e-06
1.59372e-06
7.64746e-06
1.57456e-06
1.75903e-06
1.79083e-06
1.55442e-06
1.8737e-06
1.53843e-06
1.34234e-06
1.61495e-06
1.85709e-06
1.58163e-06
2.0003e-06
1.61748e-06
2.78765e-06
3.07818e-06
2.6288e-06
2.43531e-06
3.15862e-06
2.80017e-06
2.68556e-06
1.58666e-06
6.43372e-06
1.57811e-06
1.78291e-06
1.79627e-06
1.54725e-06
2.44983e-06
1.53947e-06
1.36053e-06
1.91116e-06
2.29824e-06
1.62655e-06
3.26108e-06
1.81762e-06
3.79734e-06
2.98315e-06
3.42891e-06
2.91584e-06
2.55859e-06
3.37558e-06
2.30112e-06
1.63097e-06
4.10755e-06
1.72289e-06
1.82089e-06
2.12188e-06
1.58279e-06
2.68259e-06
1.69837e-06
1.75068e-06
2.49403e-06
2.66901e-06
1.78913e-06
3.82596e-06
2.13666e-06
4.71417e-06
3.18592e-06
3.58995e-06
3.33734e-06
2.15449e-06
3.78155e-06
2.42114e-06
1.7736e-06
2.67556e-06
1.99247e-06
1.98146e-06
3.31772e-06
1.72926e-06
3.41524e-06
1.94728e-06
2.33811e-06
3.28774e-06
3.23912e-06
2.34953e-06
4.68883e-06
2.17038e-06
4.54433e-06
3.9684e-06
4.83617e-06
4.0561e-06
2.42975e-06
3.64432e-06
2.14134e-06
2.12213e-06
3.17152e-06
2.36868e-06
3.35189e-06
2.70558e-06
2.1117e-06
3.19825e-06
2.25455e-06
3.49572e-06
3.04457e-06
7.95491e-06
2.36013e-06
5.09835e-06
3.68244e-06
4.87965e-06
6.18604e-06
5.4018e-06
3.55459e-06
2.58413e-06
4.73512e-06
3.42821e-06
2.53328e-06
3.34293e-06
3.06298e-06
3.65644e-06
6.74229e-06
2.38061e-06
3.82606e-06
3.13586e-06
6.01173e-06
7.7816e-06
5.80303e-06
3.54812e-06
4.43531e-06
3.55294e-06
3.95301e-06
4.77764e-06
7.96347e-06
4.57548e-06
3.33706e-06
3.84044e-06
3.69049e-06
3.298e-06
3.78065e-06
4.10808e-06
6.49291e-06
6.21648e-06
3.3238e-06
3.95103e-06
4.03081e-06
8.56287e-06
8.85587e-06
1.39819e-05
4.71951e-06
4.98743e-06
5.3736e-06
7.87536e-06
1.06338e-05
1.50519e-05
4.6907e-06
3.9607e-06
5.49476e-06
5.95362e-06
4.20213e-06
6.14481e-06
5.44493e-06
7.92951e-06
1.41941e-05
4.18824e-06
6.30894e-06
5.20906e-06
1.07374e-05
1.32842e-05
2.05192e-05
5.2978e-06
8.04931e-06
7.5956e-06
6.99278e-06
1.57162e-05
1.36267e-05
5.50706e-06
6.23271e-06
8.25162e-06
6.41433e-06
5.75128e-06
5.81728e-06
7.00406e-06
1.46325e-05
1.59096e-05
5.66325e-06
6.76367e-06
7.35875e-06
1.82641e-05
2.2085e-05
1.86305e-05
7.75651e-06
7.19583e-06
7.98479e-06
1.16626e-05
1.25029e-05
3.49941e-05
8.38171e-06
7.49756e-06
7.85411e-06
8.6996e-06
7.8965e-06
1.12378e-05
8.71589e-06
1.61108e-05
2.5597e-05
7.7237e-06
8.97498e-06
8.44967e-06
2.28064e-05
1.92673e-05
3.51461e-05
9.16787e-06
1.17927e-05
1.26182e-05
1.00257e-05
3.60118e-05
2.12668e-05
8.95376e-06
8.69253e-06
1.22588e-05
1.24169e-05
8.88713e-06
9.48672e-06
1.21912e-05
2.69198e-05
2.92575e-05
9.4403e-06
1.25056e-05
1.20853e-05
3.10988e-05
3.562e-05
3.50337e-05
1.27713e-05
9.66702e-06
1.32392e-05
1.69269e-05
1.95535e-05
4.72357e-05
1.24583e-05
1.36448e-05
1.32496e-05
1.34506e-05
1.22619e-05
1.70227e-05
1.32419e-05
3.32506e-05
3.71238e-05
1.18797e-05
1.3167e-05
1.34952e-05
3.38598e-05
3.60317e-05
4.69391e-05
1.4896e-05
1.86927e-05
1.81414e-05
1.84056e-05
4.95214e-05
4.36839e-05
1.47893e-05
1.31699e-05
1.85236e-05
1.99715e-05
1.62158e-05
1.72204e-05
2.01747e-05
3.59374e-05
4.88785e-05
1.62514e-05
2.01253e-05
1.97718e-05
4.96803e-05
4.90856e-05
4.86957e-05
1.85364e-05
1.77844e-05
2.13456e-05
2.31895e-05
4.21583e-05
5.37333e-05
1.85179e-05
2.14505e-05
2.05395e-05
2.05786e-05
1.95297e-05
2.2864e-05
1.74105e-05
5.21104e-05
5.0334e-05
1.91607e-05
1.98771e-05
1.80108e-05
4.15876e-05
4.95792e-05
6.00226e-05
2.21517e-05
2.48158e-05
2.53139e-05
2.43266e-05
5.75436e-05
5.74951e-05
2.17051e-05
2.057e-05
2.63176e-05
2.61831e-05
2.09576e-05
2.49692e-05
3.06398e-05
4.93844e-05
5.92892e-05
2.18631e-05
2.52589e-05
3.0303e-05
6.78529e-05
6.16818e-05
6.36097e-05
2.75067e-05
2.45985e-05
3.1932e-05
3.20963e-05
5.70069e-05
6.59057e-05
2.83328e-05
2.61946e-05
3.05547e-05
3.12596e-05
3.1648e-05
3.09607e-05
3.07594e-05
6.16921e-05
6.37438e-05
3.12851e-05
3.19649e-05
3.02301e-05
6.24314e-05
6.43221e-05
6.90362e-05
3.16645e-05
3.32346e-05
3.39505e-05
3.33732e-05
6.7745e-05
6.81224e-05
3.01713e-05
3.28213e-05
3.44692e-05
3.3003e-05
2.98426e-05
3.42273e-05
3.29984e-05
6.51494e-05
6.89894e-05
2.9343e-05
3.32631e-05
3.40946e-05
6.89079e-05
7.03143e-05
7.30052e-05
3.71348e-05
3.49931e-05
4.07365e-05
4.36306e-05
6.96063e-05
7.60259e-05
3.7566e-05
3.48389e-05
4.12714e-05
4.30547e-05
3.78264e-05
4.33539e-05
4.37237e-05
6.98085e-05
7.40616e-05
3.85355e-05
4.24906e-05
4.33123e-05
7.47402e-05
7.4117e-05
8.11693e-05
4.0289e-05
4.50659e-05
4.68757e-05
4.35378e-05
7.63215e-05
7.59643e-05
4.07314e-05
4.36278e-05
4.61986e-05
4.34427e-05
4.308e-05
4.32772e-05
4.25137e-05
7.49123e-05
7.97295e-05
4.25242e-05
4.40283e-05
4.2506e-05
7.91613e-05
8.24599e-05
8.31526e-05
5.07307e-05
4.32284e-05
5.53182e-05
5.54317e-05
7.76226e-05
8.68897e-05
5.01759e-05
4.67626e-05
5.53085e-05
5.63284e-05
4.72314e-05
5.5392e-05
5.69107e-05
8.15188e-05
8.46872e-05
4.77016e-05
5.64601e-05
5.71723e-05
8.53074e-05
8.30192e-05
8.54474e-05
5.46109e-05
5.89504e-05
5.33263e-05
6.01537e-05
8.78222e-05
8.60034e-05
5.46803e-05
5.68244e-05
5.30684e-05
5.45409e-05
5.69776e-05
5.97234e-05
5.39384e-05
8.47687e-05
8.46049e-05
5.71385e-05
5.43994e-05
5.37706e-05
8.34432e-05
8.75271e-05
9.39433e-05
5.68945e-05
5.89685e-05
6.72877e-05
6.00551e-05
8.57105e-05
9.09044e-05
5.66292e-05
5.54608e-05
6.76385e-05
6.53338e-05
5.35976e-05
6.0771e-05
6.59779e-05
8.59022e-05
9.36239e-05
5.31502e-05
6.48442e-05
6.66081e-05
9.42558e-05
9.4475e-05
9.51468e-05
6.89843e-05
6.52919e-05
6.99882e-05
7.21614e-05
9.33386e-05
9.71204e-05
6.87992e-05
6.74237e-05
6.94278e-05
7.26029e-05
6.9313e-05
7.17292e-05
7.06485e-05
9.45576e-05
9.61993e-05
6.98494e-05
7.30894e-05
7.04663e-05
9.5418e-05
9.57466e-05
9.96471e-05
7.09584e-05
7.30757e-05
7.65306e-05
7.65439e-05
9.74789e-05
9.95188e-05
7.08799e-05
7.29208e-05
7.69618e-05
7.33854e-05
7.00781e-05
7.74305e-05
7.78347e-05
9.65262e-05
9.80738e-05
6.98605e-05
7.33817e-05
7.78936e-05
0.00010019
0.000100497
0.000102893
7.77557e-05
7.77245e-05
8.22526e-05
8.2087e-05
0.000100259
0.000102489
7.78526e-05
7.61361e-05
8.16086e-05
8.56146e-05
8.05689e-05
8.08336e-05
8.07348e-05
9.93535e-05
0.000104789
8.05637e-05
8.51668e-05
8.07091e-05
0.000102492
0.00010387
0.000107626
8.44847e-05
8.34908e-05
8.81748e-05
8.7978e-05
0.00010336
0.000107826
8.41303e-05
8.61817e-05
8.88506e-05
8.55804e-05
8.10176e-05
8.92435e-05
8.96513e-05
0.000105162
0.000105519
8.11816e-05
8.59311e-05
8.93854e-05
0.000108121
0.000108194
0.000111554
8.91065e-05
9.02317e-05
9.63723e-05
9.60597e-05
0.000108817
0.000111468
8.95138e-05
8.81763e-05
9.55883e-05
9.65473e-05
9.13923e-05
9.56824e-05
9.49511e-05
0.000106523
0.000112909
9.15284e-05
9.71531e-05
9.50139e-05
0.000111122
0.000112595
0.000114198
9.82776e-05
9.65422e-05
9.86e-05
9.90277e-05
0.00011188
0.00011399
9.76205e-05
9.7536e-05
9.89263e-05
0.000100163
9.6467e-05
9.88207e-05
9.94037e-05
0.000113503
0.000114215
9.57786e-05
9.9503e-05
9.92473e-05
0.000114625
0.000114512
0.000119713
9.95233e-05
0.000101172
0.000107733
0.000107174
0.000115055
0.000119853
9.98295e-05
0.000101777
0.000107519
0.000105627
0.000100429
0.000107431
0.000107712
0.000114717
0.000118888
0.000101331
0.000106373
0.000107894
0.000120039
0.00012082
0.000121818
0.000109548
0.000108269
0.000110395
0.000111582
0.00012042
0.000122027
0.000109401
0.000106684
0.000110755
0.00011288
0.000110003
0.000111623
0.00011155
0.000119617
0.000122884
0.000108946
0.0001119
0.000111316
0.000122099
0.000122053
0.000127087
0.000111445
0.000112847
0.000118306
0.000116593
0.000122674
0.00012599
0.000111715
0.000114962
0.000117846
0.000116356
0.000111632
0.000116251
0.000116446
0.000123876
0.00012593
0.00011276
0.000117399
0.000117094
0.000126168
0.00012805
0.000128902
0.000120087
0.000118225
0.000121217
0.000122764
0.000126748
0.000130214
0.000119561
0.000116472
0.000121017
0.000121297
0.000118955
0.000122938
0.000122472
0.000126019
0.000129124
0.000118195
0.000120518
0.00012152
0.000129726
0.000128995
0.00013344
0.000121701
0.000123697
0.00012695
0.000126436
0.000130774
0.000132797
0.000121522
0.000123858
0.000126741
0.000129214
0.00012261
0.000126619
0.000126301
0.000130564
0.00013502
0.00012301
0.000129741
0.000128183
0.000133243
0.000134768
0.000137769
0.000129278
0.000127997
0.000133805
0.000132793
0.000133534
0.000136983
0.000129324
0.000130037
0.000134372
0.000131152
0.000128857
0.000133115
0.000134419
0.000135255
0.000134997
0.000129903
0.000130755
0.000133048
0.000137443
0.000137769
0.000137498
0.000133851
0.000133321
0.000134173
0.000134808
0.00013724
0.00013826
0.000134388
0.000131055
0.000133138
0.000133858
0.00013453
0.000134079
0.000134522
0.000135004
0.000138555
0.000132969
0.000134345
0.000134007
0.000138233
0.000138203
0.000143875
0.000135922
0.000136691
0.000142029
0.000142575
0.000139148
0.000144319
0.000134483
0.000136666
0.000142202
0.000144156
0.00013647
0.000142848
0.000141793
0.000140041
0.000145204
0.000135994
0.000143869
0.000141457
0.000143319
0.000144458
0.000145898
0.000142721
0.000143106
0.000144918
0.000145109
0.000144715
0.000146051
0.000143337
0.000144778
0.000145479
0.000144669
0.00014208
0.000145619
0.00014482
0.000145353
0.000145196
0.000141985
0.000143911
0.000145541
0.000145912
0.000146779
0.000150462
0.00014704
0.000147171
0.000152413
0.000152151
0.000146984
0.000150323
0.000147347
0.000146405
0.000152197
0.000151869
0.000147279
0.000152218
0.0001528
0.000145948
0.000150395
0.000148046
0.000152302
0.00015336
0.000151072
0.000150486
0.000149839
0.000152677
0.000152316
0.000151828
0.000151351
0.000150284
0.000149426
0.000152396
0.000152153
0.000151588
0.000151508
0.000152977
0.000151162
0.000151634
0.000150471
0.000149799
0.000153515
0.000151929
0.000152089
0.000149543
0.00015075
0.000159962
0.000152997
0.000152578
0.000163788
0.00016371
0.000150414
0.000160017
0.000152969
0.000153063
0.000163744
0.000163884
0.000152246
0.000163823
0.000163592
0.000150666
0.000159985
0.000152433
0.000163692
0.000163489
0.000159893
0.000161008
0.000161323
0.000165949
0.000165935
0.000168433
0.000168497
0.000161076
0.000161405
0.000165883
0.000166011
0.000168327
0.000168499
0.000165865
0.000168521
0.000168389
0.000161044
0.000161363
0.000165766
0.000168468
0.000168267
0.000161315
0.000160581
0.000152116
0.000167867
0.00016798
0.000159612
0.00015976
0.000160665
0.000152186
0.000167751
0.000167876
0.000159553
0.000159564
0.000167841
0.000159598
0.000159645
0.000160611
0.000152107
0.000167709
0.00015974
0.000159592
0.000152197
0.000151455
0.000151089
0.000157822
0.000157954
0.000154467
0.00015452
0.000151523
0.000151035
0.000157783
0.00015778
0.000154487
0.000154444
0.000157868
0.000154449
0.000154542
0.000151442
0.000151091
0.000157841
0.000154642
0.000154583
0.000151148
0.000152577
0.000164944
0.00015655
0.00015644
0.000172503
0.000172376
0.000152498
0.00016486
0.000156665
0.000156608
0.000172585
0.000172572
0.000156627
0.000172495
0.000172504
0.000152576
0.000164919
0.000156764
0.000172502
0.00017251
0.000164885
0.000167732
0.000179968
0.000178064
0.00017795
0.000192331
0.00019228
0.000167654
0.000179946
0.000178135
0.000178117
0.000192377
0.000192329
0.000178054
0.000192344
0.000192325
0.0001677
0.000179909
0.000178043
0.000192248
0.000192305
0.000179943
0.000181572
0.000186806
0.000195719
0.000195692
0.000202206
0.000202246
0.000181563
0.00018686
0.000195761
0.000195703
0.000202241
0.00020216
0.000195723
0.000202286
0.000202248
0.000181508
0.000186735
0.000195705
0.000202122
0.000202238
0.000186836
0.00018701
0.000184721
0.000203633
0.00020369
0.000203652
0.000203783
0.000187073
0.000184797
0.000203664
0.000203579
0.000203641
0.00020355
0.000203684
0.000203756
0.000203725
0.000186942
0.000184698
0.000203679
0.000203698
0.000203772
0.00018478
0.000183026
0.000169022
0.000199655
0.000199754
0.000183751
0.00018379
0.00018309
0.000169041
0.000199648
0.000199572
0.000183753
0.000183722
0.000199706
0.000183777
0.000183754
0.00018301
0.000169045
0.000199751
0.000183829
0.000183798
0.00016903
0.000166452
0.000152282
0.000177659
0.000177684
0.000162096
0.000162095
0.000166467
0.000152282
0.000177662
0.000177645
0.000162097
0.000162114
0.000177652
0.000162096
0.000162077
0.000166477
0.000152319
0.000177695
0.000162164
0.000162113
0.000152276
0.000151272
0.000147989
0.000158738
0.000158733
0.000154342
0.00015433
0.000151272
0.000147985
0.000158738
0.000158762
0.00015434
0.000154371
0.000158721
0.000154338
0.000154329
0.000151308
0.000148015
0.000158753
0.00015439
0.000154353
0.000147988
0.000148762
0.000158211
0.000154046
0.000154032
0.000166262
0.000166257
0.000148758
0.000158214
0.000154042
0.000154074
0.000166262
0.000166272
0.000154038
0.000166269
0.000166266
0.000148783
0.000158219
0.000154054
0.000166275
0.000166269
0.000158214
0.000160127
0.000169607
0.000170663
0.000170661
0.00018294
0.000182941
0.00016013
0.000169612
0.000170665
0.000170668
0.000182947
0.000182934
0.000170666
0.000182956
0.000182943
0.000160132
0.000169606
0.00017067
0.000182952
0.000182949
0.000169607
0.000171181
0.000177917
0.00018657
0.000186571
0.000195384
0.000195384
0.000171187
0.000177923
0.000186579
0.000186563
0.000195396
0.000195372
0.000186573
0.000195406
0.000195388
0.000171179
0.000177912
0.000186581
0.000195401
0.0001954
0.000177917
0.000178785
0.000182296
0.000197577
0.000197576
0.00020219
0.000202189
0.000178792
0.000182303
0.000197591
0.000197565
0.000202207
0.000202178
0.000197582
0.000202218
0.000202198
0.000178781
0.000182292
0.000197595
0.000202212
0.000202214
0.000182298
0.000182651
0.000184274
0.000203209
0.000203207
0.000205254
0.000205252
0.000182657
0.000184281
0.000203226
0.000203197
0.000205271
0.000205242
0.000203217
0.000205285
0.000205262
0.000182647
0.00018427
0.000203233
0.000205278
0.000205279
0.000184277
0.000184362
0.000185106
0.000205699
0.000205697
0.000206564
0.000206561
0.00018437
0.000185115
0.000205716
0.000205687
0.00020658
0.000206551
0.000205707
0.000206596
0.000206571
0.000184359
0.000185103
0.000205724
0.000206587
0.000206589
0.000185109
0.000185055
0.000185385
0.000206729
0.000206727
0.000206961
0.000206959
0.000185063
0.000185394
0.000206746
0.000206716
0.000206978
0.000206947
0.000206737
0.000206993
0.000206969
0.000185051
0.000185381
0.000206755
0.000206985
0.000206987
0.000185389
0.000185268
0.000185421
0.000206978
0.000206976
0.000206961
0.000206958
0.000185276
0.000185428
0.000206996
0.000206965
0.000206978
0.000206947
0.000206987
0.000206993
0.00020697
0.000185264
0.000185416
0.000207005
0.000206985
0.000206988
0.000185425
0.000185276
0.000185355
0.000206945
0.000206942
0.00020696
0.000206959
0.000185282
0.000185366
0.000206963
0.000206932
0.000206977
0.000206947
0.000206954
0.000206994
0.000206968
0.000185272
0.000185352
0.000206972
0.000206984
0.000206986
0.000185358
0.000185262
0.000185495
0.000207001
0.000207
0.00020704
0.000207038
0.000185273
0.000185503
0.000207019
0.000206988
0.000207058
0.000207026
0.000207009
0.000207073
0.000207047
0.000185259
0.00018549
0.000207027
0.000207063
0.000207065
0.000185498
0.000185359
0.000185357
0.000207029
0.000207026
0.000206971
0.000206969
0.000185366
0.000185363
0.000207047
0.000207014
0.000206989
0.000206958
0.000207036
0.000207004
0.000206979
0.000185354
0.000185352
0.000207054
0.000206996
0.000206998
0.00018536
0.000185217
0.000185434
0.000206968
0.000206966
0.000207008
0.000207007
0.000185224
0.000185445
0.000206986
0.000206955
0.000207026
0.000206995
0.000206977
0.000207042
0.000207017
0.000185213
0.000185433
0.000206995
0.000207033
0.000207035
0.00018544
0.00018532
0.000185429
0.000207013
0.000207012
0.00020699
0.000206987
0.000185331
0.000185432
0.000207031
0.000207
0.000207008
0.000206976
0.000207021
0.000207022
0.000206996
0.000185319
0.000185421
0.000207039
0.000207013
0.000207014
0.000185427
0.000185282
0.000185372
0.000206984
0.000206981
0.000206989
0.000206988
0.000185286
0.000185384
0.000207002
0.00020697
0.000207006
0.000206977
0.000206991
0.000207023
0.000206998
0.000185274
0.000185372
0.000207009
0.000207015
0.000207016
0.00018538
0.000185259
0.000185468
0.000207
0.000206998
0.000207001
0.000206999
0.000185273
0.000185474
0.000207017
0.000206987
0.00020702
0.000206988
0.000207008
0.000207034
0.000207008
0.000185261
0.000185462
0.000207027
0.000207025
0.000207026
0.000185469
0.000185328
0.000185354
0.000206997
0.000206995
0.000206985
0.000206983
0.000185332
0.000185365
0.000207015
0.000206983
0.000207003
0.000206972
0.000207004
0.000207019
0.000206993
0.00018532
0.000185352
0.000207022
0.00020701
0.000207011
0.000185359
0.000185238
0.000185473
0.000206992
0.000206992
0.000207
0.000206998
0.000185253
0.000185477
0.000207011
0.00020698
0.000207018
0.000206987
0.000207001
0.000207033
0.000207008
0.00018524
0.000185466
0.00020702
0.000207025
0.000207026
0.000185474
0.000185328
0.000185364
0.000206996
0.000206993
0.000206989
0.000206988
0.000185329
0.00018538
0.000207014
0.000206982
0.000207007
0.000206976
0.000207004
0.000207023
0.000206997
0.000185319
0.000185365
0.000207022
0.000207013
0.000207015
0.00018537
0.000185255
0.000185456
0.000206993
0.000206993
0.000206992
0.000206991
0.000185276
0.000185452
0.000207012
0.000206981
0.000207011
0.000206979
0.000207002
0.000207025
0.000207001
0.000185259
0.000185444
0.000207019
0.000207016
0.000207018
0.000185456
0.000185306
0.00018539
0.000206992
0.00020699
0.000206991
0.00020699
0.000185301
0.000185416
0.00020701
0.000206979
0.000207009
0.000206978
0.000207
0.000207025
0.000206999
0.000185294
0.000185398
0.000207018
0.000207015
0.000207016
0.000185399
0.000185288
0.000185408
0.000206994
0.000206993
0.00020699
0.000206988
0.000185311
0.0001854
0.000207012
0.000206982
0.000207008
0.000206977
0.000207002
0.000207023
0.000206998
0.000185294
0.000185391
0.00020702
0.000207014
0.000207016
0.000185402
0.000185259
0.000185452
0.000206993
0.000206992
0.000206991
0.000206989
0.000185252
0.000185472
0.000207011
0.00020698
0.000207009
0.000206978
0.000207001
0.000207024
0.000206999
0.000185244
0.000185458
0.000207018
0.000207015
0.000207016
0.000185463
0.000185337
0.000185363
0.000206995
0.000206993
0.000206989
0.000206988
0.000185347
0.000185381
0.000207014
0.000206982
0.000207006
0.000206976
0.000207003
0.000207023
0.000206998
0.000185335
0.000185369
0.000207021
0.000207014
0.000207015
0.000185371
0.00018525
0.000185417
0.000206996
0.000206996
0.000206989
0.000206987
0.000185282
0.000185407
0.000207014
0.000206984
0.000207007
0.000206976
0.000207005
0.000207023
0.000206998
0.000185271
0.000185392
0.000207023
0.000207013
0.000207015
0.000185407
0.000185267
0.000185459
0.000206998
0.000206997
0.000206991
0.00020699
0.000185259
0.00018547
0.000207016
0.000206985
0.000207009
0.000206978
0.000207007
0.000207025
0.000207001
0.000185246
0.000185456
0.000207024
0.000207015
0.000207018
0.000185462
0.000185332
0.000185409
0.000207003
0.000207002
0.000207041
0.000207041
0.000185334
0.000185434
0.000207021
0.000206991
0.000207059
0.00020703
0.000207013
0.000207076
0.000207052
0.000185318
0.000185427
0.000207031
0.000207067
0.00020707
0.000185431
0.000185304
0.0001867
0.000206919
0.000206918
0.000209492
0.000209495
0.000185327
0.000186712
0.000206938
0.000206906
0.000209511
0.000209487
0.000206927
0.000209521
0.000209502
0.00018532
0.000186707
0.000206946
0.000209515
0.00020952
0.000186714
0.000188502
0.000208022
0.000208025
0.000188515
0.000208039
0.000208018
0.000226463
0.000226463
0.000226472
0.000208033
0.000188511
0.000208049
3.03604e-05
3.18702e-06
1.89148e-05
1.89781e-05
5.18761e-07
1.83241e-06
1.34238e-05
9.61734e-06
6.41633e-07
2.85668e-06
9.82109e-06
1.84807e-06
2.22037e-06
1.71633e-06
1.74538e-06
1.06348e-06
1.35916e-05
9.9478e-07
1.53791e-05
1.0754e-05
1.30937e-05
1.10599e-06
1.37656e-05
1.0732e-06
1.55324e-05
8.4349e-06
9.09887e-06
8.98162e-06
8.68811e-06
8.2257e-06
8.90084e-06
8.76956e-06
4.38549e-07
1.83021e-06
3.543e-06
1.74319e-06
4.69658e-07
1.41121e-06
3.50363e-06
1.08122e-05
1.30227e-05
6.39812e-07
4.07055e-06
7.79599e-07
2.73061e-06
6.45235e-07
4.03966e-06
9.40791e-07
1.4992e-06
1.50952e-06
2.20611e-06
1.71017e-06
1.72158e-06
1.3234e-06
1.86999e-05
1.1841e-06
2.10167e-05
1.71281e-05
1.93906e-05
1.33994e-06
1.88637e-05
1.22764e-06
2.1188e-05
8.25865e-06
8.94094e-06
8.81295e-06
8.87521e-06
8.37963e-06
9.08021e-06