/*--------------------------------*- C++ -*----------------------------------*\
| =========                 |                                                 |
| \\      /  F ield         | OpenFOAM: The Open Source CFD Toolbox           |
|  \\    /   O peration     | Version:  v2012                                 |
|   \\  /    A nd           | Website:  www.openfoam.com                      |
|    \\/     M anipulation  |                                                 |
\*---------------------------------------------------------------------------*/
FoamFile
{
    version     2.0;
    format      ascii;
    class       volScalarField;
    location    "275";
    object      p;
}
// * * * * * * * * * * * * * * * * * * * * * * * * * * * * * * * * * * * * * //

dimensions      [0 2 -2 0 0 0 0];


internalField   nonuniform List<scalar> 
171728
(
0.00352842
0.00352745
0.00352742
0.0035281
0.00349278
0.0034914
0.0034914
0.0034943
0.00345475
0.00345276
0.00345278
0.00345503
0.00341055
0.00340885
0.00340886
0.00341109
0.00336215
0.00336069
0.00336067
0.00336302
0.00331344
0.00331203
0.00331204
0.00331439
0.00326545
0.00326424
0.00326419
0.00326655
0.00321814
0.00321703
0.00321698
0.00321939
0.00317175
0.00317076
0.00317072
0.00317314
0.00312648
0.00312558
0.00312558
0.00312796
0.00308206
0.00308123
0.00308126
0.00308368
0.00303839
0.00303773
0.00303772
0.0030401
0.0029953
0.00299464
0.00299468
0.0029971
0.00295258
0.00295207
0.00295206
0.00295449
0.00291019
0.00290984
0.00290965
0.00291214
0.00286813
0.00286776
0.00286775
0.00287008
0.00282644
0.00282613
0.00282624
0.00282837
0.00278509
0.0027849
0.00278503
0.0027871
0.00274408
0.00274368
0.00274394
0.00274602
0.00270348
0.00270339
0.0027032
0.00270538
0.00266311
0.00266269
0.00266289
0.00266486
0.00262317
0.00262303
0.00262298
0.00262487
0.00258349
0.00258343
0.00258364
0.00258497
0.00254386
0.00254365
0.00254369
0.00254553
0.00250482
0.00250493
0.0025049
0.00250652
0.00246575
0.00246581
0.00246583
0.00246788
0.00242693
0.00242719
0.0024271
0.00242888
0.00238843
0.00238838
0.00238853
0.0023906
0.00235
0.0023504
0.00235022
0.00235214
0.00231191
0.00231207
0.00231225
0.00231461
0.00227391
0.00227425
0.00227405
0.00227582
0.00223612
0.00223642
0.00223661
0.00223919
0.00219843
0.00219875
0.0021987
0.00220046
0.0021608
0.00216116
0.00216116
0.00216325
0.0021236
0.00212394
0.00212392
0.0021257
0.00208627
0.00208651
0.00208662
0.00208858
0.00204937
0.00204984
0.0020496
0.00205141
0.00201216
0.00201229
0.00201243
0.00201441
0.00197573
0.00197595
0.00197595
0.00197801
0.00193892
0.00193915
0.00193905
0.00194096
0.00190242
0.00190244
0.0019025
0.00190463
0.00186606
0.00186615
0.00186621
0.00186809
0.00182998
0.00183
0.00182987
0.00183202
0.0017939
0.00179379
0.00179397
0.00179587
0.00175796
0.00175792
0.00175779
0.00175995
0.00172224
0.00172211
0.00172214
0.00172415
0.00168659
0.00168641
0.00168645
0.00168845
0.00165109
0.00165089
0.0016508
0.00165295
0.00161566
0.00161546
0.00161549
0.00161747
0.00158044
0.00158017
0.00158025
0.00158227
0.00154543
0.00154507
0.00154492
0.00154702
0.00151004
0.00150989
0.00151005
0.00151193
0.00147551
0.00147518
0.00147511
0.00147716
0.00144077
0.00144044
0.00144042
0.00144244
0.00140635
0.00140596
0.00140605
0.00140789
0.0013717
0.00137151
0.00137147
0.00137338
0.00133791
0.00133768
0.00133766
0.0013396
0.00130344
0.00130295
0.00130297
0.00130487
0.00126843
0.00126833
0.00126832
0.00127027
0.00123441
0.00123465
0.00123464
0.00123665
0.00120244
0.00120204
0.00120204
0.00120376
0.00117014
0.00116926
0.00116927
0.00117087
0.00113531
0.00113476
0.00113476
0.00113657
0.00109829
0.00109806
0.00109806
0.0011001
0.00105868
0.00105922
0.00105922
0.00106164
0.00101974
0.00102051
0.0010205
0.00102301
0.000984216
0.000984742
0.000984741
0.000986972
0.000953009
0.000952985
0.000952984
0.00095467
0.000923981
0.000923237
0.000923236
0.000924566
0.000894621
0.000894086
0.000894087
0.000895517
0.000863884
0.000863585
0.000863586
0.00086525
0.000830979
0.00083083
0.00083083
0.000832688
0.000796324
0.000796244
0.000796244
0.000798222
0.000760686
0.000760642
0.000760642
0.000762682
0.000724591
0.000724566
0.000724566
0.000726636
0.000688322
0.000688296
0.000688296
0.000690375
0.000652001
0.000651974
0.000651975
0.000654056
0.000615647
0.00061562
0.00061562
0.000617704
0.000579291
0.000579264
0.000579264
0.000581347
0.000542931
0.000542904
0.000542904
0.000544987
0.000506568
0.00050654
0.00050654
0.000508623
0.000470208
0.000470181
0.000470181
0.000472265
0.000433846
0.000433819
0.000433819
0.000435901
0.000397485
0.000397459
0.000397459
0.000399542
0.000361122
0.000361093
0.000361093
0.000363175
0.00032476
0.000324734
0.000324734
0.000326816
0.0002884
0.000288372
0.000288372
0.000290452
0.000252042
0.000252014
0.000252014
0.000254095
0.000215686
0.00021566
0.000215659
0.000217737
0.000179331
0.000179305
0.000179305
0.000181379
0.000142975
0.000142951
0.00014295
0.000145018
0.000106613
0.000106593
0.000106593
0.000108643
7.02543e-05
7.02279e-05
7.02267e-05
7.22433e-05
3.46594e-05
3.4087e-05
3.40839e-05
3.59497e-05
6.10407e-06
6.97138e-06
6.97043e-06
5.23452e-06
0.00353288
0.00353047
0.0035306
0.003533
0.00353049
0.00353051
0.00353681
0.00353683
0.00353681
0.00353681
0.00353063
0.00353039
0.00353292
0.00353053
0.00353039
0.00353286
0.00352813
0.00349899
0.0035274
0.00352738
0.00350076
0.00350083
0.00352817
0.00349897
0.00352741
0.0035274
0.00350076
0.00350073
0.00352739
0.0035009
0.00350079
0.00352814
0.00349898
0.00352739
0.00350079
0.00350078
0.00349909
0.00349427
0.00346058
0.00349144
0.00349145
0.00346279
0.00346287
0.00349419
0.00346061
0.00349142
0.00349143
0.00346281
0.00346283
0.00349142
0.00346286
0.00346281
0.00349426
0.00346059
0.00349144
0.00346289
0.00346282
0.00346051
0.0034551
0.00341734
0.00345281
0.00345278
0.00342042
0.00342052
0.00345505
0.00341726
0.00345282
0.00345281
0.00342042
0.00342044
0.00345282
0.00342053
0.00342044
0.0034551
0.00341732
0.00345278
0.00342047
0.00342046
0.0034173
0.00341114
0.00336954
0.0034089
0.0034089
0.00337289
0.00337292
0.00341105
0.00336952
0.00340888
0.00340886
0.00337289
0.00337289
0.00340888
0.00337292
0.00337287
0.00341111
0.00336953
0.00340885
0.0033729
0.00337288
0.00336951
0.00336305
0.00332083
0.00336065
0.00336069
0.00332414
0.00332411
0.00336305
0.00332082
0.00336065
0.00336067
0.00332412
0.00332413
0.00336065
0.0033241
0.00332412
0.00336305
0.00332083
0.00336063
0.0033241
0.00332412
0.00332082
0.00331442
0.00327286
0.00331201
0.00331202
0.00327608
0.0032761
0.00331442
0.00327287
0.00331201
0.00331201
0.00327607
0.00327609
0.00331199
0.00327608
0.00327606
0.00331442
0.00327285
0.003312
0.0032761
0.00327604
0.00327285
0.00326656
0.00322559
0.00326419
0.0032642
0.00322875
0.00322873
0.00326657
0.0032256
0.00326419
0.00326422
0.00322874
0.00322875
0.0032642
0.00322874
0.00322872
0.00326656
0.00322559
0.00326418
0.00322874
0.00322871
0.00322558
0.00321939
0.0031792
0.00321699
0.00321701
0.00318218
0.00318222
0.00321941
0.00317921
0.00321699
0.00321702
0.00318218
0.00318221
0.003217
0.0031822
0.00318219
0.0032194
0.0031792
0.00321698
0.0031822
0.00318218
0.00317918
0.00317316
0.00313388
0.00317074
0.00317074
0.00313676
0.0031368
0.00317317
0.00313389
0.00317073
0.00317073
0.00313677
0.00313679
0.00317074
0.00313679
0.00313678
0.00317314
0.00313389
0.00317074
0.00313677
0.00313677
0.00313387
0.00312798
0.00308946
0.00312559
0.00312556
0.00309228
0.00309226
0.00312799
0.00308946
0.00312557
0.00312558
0.00309228
0.00309227
0.00312556
0.0030923
0.00309223
0.00312798
0.00308949
0.00312557
0.00309229
0.00309222
0.00308945
0.00308366
0.00304577
0.00308125
0.00308123
0.00304852
0.00304849
0.00308367
0.00304577
0.00308123
0.0030813
0.00304849
0.00304854
0.00308127
0.00304856
0.0030485
0.0030837
0.00304581
0.00308128
0.00304853
0.00304849
0.00304578
0.0030401
0.0030027
0.00303768
0.00303776
0.00300539
0.00300549
0.0030401
0.0030027
0.0030377
0.00303773
0.0030054
0.0030054
0.00303771
0.00300552
0.00300539
0.00304015
0.00300265
0.00303772
0.00300537
0.00300539
0.00300269
0.0029971
0.00295999
0.00299472
0.00299467
0.00296273
0.00296274
0.00299705
0.00295999
0.0029947
0.00299464
0.00296275
0.00296273
0.00299469
0.00296268
0.0029626
0.00299703
0.00295999
0.00299467
0.00296282
0.00296263
0.00296
0.0029544
0.00291757
0.00295197
0.00295199
0.0029203
0.00292033
0.00295441
0.00291764
0.00295198
0.0029521
0.0029203
0.00292043
0.00295213
0.00292026
0.00292026
0.00295445
0.00291767
0.00295214
0.00292043
0.00292025
0.0029176
0.00291207
0.00287552
0.00290973
0.00290986
0.00287824
0.00287823
0.00291218
0.00287539
0.00290973
0.00290978
0.00287822
0.00287844
0.00290983
0.00287819
0.00287823
0.00291214
0.00287565
0.00290982
0.00287832
0.00287822
0.0028755
0.00287012
0.00283379
0.0028678
0.0028678
0.00283638
0.00283645
0.00286997
0.00283367
0.00286778
0.00286779
0.00283638
0.00283667
0.0028677
0.00283652
0.00283655
0.00287016
0.00283387
0.00286775
0.00283661
0.00283658
0.00283379
0.00282848
0.00279239
0.00282617
0.00282598
0.00279506
0.00279513
0.00282827
0.0027923
0.00282615
0.00282615
0.00279502
0.00279521
0.00282604
0.00279514
0.00279523
0.00282845
0.00279239
0.00282605
0.00279512
0.00279525
0.00279245
0.00278711
0.00275132
0.00278481
0.00278479
0.00275405
0.00275399
0.002787
0.00275108
0.00278479
0.00278488
0.002754
0.00275422
0.00278489
0.00275396
0.00275411
0.00278708
0.00275132
0.00278491
0.00275392
0.00275407
0.00275123
0.00274607
0.00271061
0.00274381
0.00274371
0.00271342
0.00271363
0.00274584
0.00271067
0.0027438
0.00274387
0.00271339
0.00271344
0.0027439
0.00271362
0.00271343
0.00274608
0.0027106
0.00274392
0.00271326
0.00271336
0.0027105
0.0027054
0.00266998
0.00270323
0.0027036
0.00267303
0.00267279
0.00270554
0.00267029
0.00270328
0.00270342
0.002673
0.00267282
0.0027033
0.00267293
0.00267305
0.00270541
0.00267025
0.00270333
0.00267296
0.00267302
0.00267
0.00266489
0.00262992
0.0026629
0.00266277
0.00263312
0.00263304
0.00266494
0.00263
0.0026629
0.00266299
0.00263321
0.0026331
0.002663
0.0026333
0.00263298
0.00266491
0.00262996
0.00266307
0.00263315
0.00263298
0.00262987
0.00262495
0.00259008
0.00262317
0.00262303
0.0025931
0.00259333
0.00262485
0.00259026
0.00262312
0.00262286
0.0025932
0.00259354
0.00262314
0.00259348
0.00259312
0.00262483
0.00259021
0.00262321
0.00259347
0.00259304
0.00259009
0.00258526
0.00255057
0.00258353
0.00258346
0.00255364
0.00255332
0.0025853
0.00255034
0.00258349
0.00258358
0.00255374
0.00255372
0.00258328
0.0025535
0.0025537
0.00258548
0.0025506
0.00258332
0.0025536
0.00255369
0.00255064
0.0025453
0.00251219
0.00254359
0.00254355
0.0025148
0.0025148
0.00254513
0.00251213
0.00254364
0.00254377
0.00251481
0.00251472
0.00254382
0.00251476
0.00251448
0.00254539
0.00251175
0.00254381
0.00251475
0.00251449
0.00251158
0.00250727
0.00247203
0.00250501
0.00250489
0.00247537
0.00247555
0.00250702
0.00247264
0.00250511
0.00250496
0.00247538
0.00247557
0.0025047
0.0024756
0.00247553
0.00250687
0.00247256
0.00250475
0.00247555
0.00247551
0.00247279
0.00246717
0.00243423
0.00246574
0.00246577
0.00243679
0.00243682
0.00246762
0.00243346
0.0024658
0.00246592
0.00243673
0.00243667
0.00246581
0.00243671
0.00243673
0.00246756
0.00243374
0.00246582
0.0024367
0.00243672
0.00243387
0.00242899
0.0023956
0.00242698
0.00242725
0.00239827
0.00239804
0.00242907
0.00239571
0.00242693
0.00242715
0.00239827
0.00239805
0.00242703
0.00239811
0.00239813
0.00242895
0.00239553
0.00242698
0.0023981
0.00239818
0.00239548
0.0023909
0.00235708
0.00238859
0.00238835
0.00235978
0.00236002
0.0023903
0.00235676
0.00238862
0.00238849
0.00235979
0.00235985
0.00238849
0.00235996
0.00235979
0.00239041
0.00235755
0.00238854
0.00235982
0.00235975
0.00235721
0.00235206
0.00231899
0.00235022
0.00235041
0.00232168
0.00232165
0.0023523
0.00231938
0.00235019
0.00235018
0.00232167
0.00232167
0.00235025
0.0023216
0.00232174
0.00235265
0.00231857
0.00235023
0.00232168
0.00232169
0.00231946
0.00231416
0.00228126
0.0023122
0.00231211
0.00228361
0.00228367
0.00231427
0.00228046
0.00231221
0.00231223
0.00228361
0.00228369
0.0023122
0.00228368
0.00228344
0.00231385
0.00228139
0.00231217
0.00228364
0.00228349
0.00228094
0.00227624
0.00224329
0.00227411
0.00227422
0.0022459
0.00224587
0.00227577
0.00224374
0.0022741
0.00227409
0.0022459
0.0022459
0.00227406
0.00224591
0.00224614
0.00227638
0.00224303
0.00227407
0.00224597
0.00224608
0.00224396
0.00223848
0.00220564
0.00223648
0.00223637
0.00220817
0.00220822
0.00223878
0.00220538
0.00223652
0.00223657
0.00220815
0.00220813
0.00223672
0.00220821
0.002208
0.00223828
0.00220581
0.00223667
0.00220814
0.00220801
0.00220543
0.0022007
0.00216809
0.00219875
0.00219881
0.00217054
0.00217055
0.00220052
0.00216807
0.0021987
0.00219869
0.00217053
0.00217058
0.00219856
0.00217052
0.00217052
0.00220076
0.00216802
0.00219856
0.00217054
0.00217055
0.00216804
0.00216321
0.00213056
0.0021612
0.00216115
0.0021332
0.00213327
0.00216313
0.00213083
0.00216124
0.00216121
0.00213322
0.00213324
0.00216131
0.00213328
0.00213325
0.00216317
0.00213071
0.00216134
0.00213323
0.00213322
0.00213056
0.0021257
0.00209365
0.00212387
0.00212395
0.00209599
0.0020958
0.00212592
0.00209328
0.00212386
0.00212391
0.00209597
0.00209588
0.00212383
0.0020958
0.00209586
0.0021258
0.00209344
0.0021238
0.00209589
0.00209587
0.00209345
0.0020888
0.00205617
0.00208678
0.00208652
0.0020588
0.00205909
0.00208845
0.00205675
0.00208676
0.00208662
0.00205881
0.00205895
0.00208668
0.00205907
0.00205895
0.0020886
0.00205637
0.0020867
0.00205895
0.00205897
0.00205636
0.00205132
0.00201941
0.00204946
0.00204985
0.00202173
0.0020216
0.00205181
0.00201906
0.00204947
0.00204961
0.00202172
0.00202164
0.00204957
0.00202162
0.00202162
0.00205143
0.00201928
0.00204957
0.00202164
0.00202158
0.00201924
0.00201457
0.00198264
0.00201259
0.00201228
0.00198506
0.00198496
0.00201421
0.00198273
0.00201257
0.00201244
0.00198509
0.00198512
0.00201244
0.00198495
0.00198514
0.00201445
0.00198281
0.00201242
0.00198511
0.00198518
0.0019829
0.00197773
0.00194587
0.00197584
0.00197597
0.00194823
0.00194843
0.00197798
0.00194594
0.00197587
0.00197595
0.0019482
0.00194825
0.00197598
0.00194844
0.00194823
0.00197792
0.00194585
0.00197601
0.00194828
0.0019482
0.00194577
0.00194107
0.00190941
0.00193907
0.00193913
0.00191167
0.00191153
0.00194103
0.00190926
0.00193905
0.00193904
0.00191169
0.00191159
0.00193901
0.00191155
0.00191168
0.00194099
0.00190938
0.00193899
0.00191157
0.00191168
0.00190948
0.00190455
0.00187298
0.00190254
0.00190244
0.00187522
0.00187525
0.00190444
0.001873
0.00190255
0.0019025
0.00187521
0.00187534
0.0019026
0.00187521
0.00187516
0.00190459
0.00187301
0.0019026
0.00187535
0.00187517
0.00187286
0.00186819
0.00183674
0.00186616
0.00186617
0.00183898
0.00183899
0.0018682
0.0018368
0.00186615
0.00186621
0.001839
0.00183885
0.00186605
0.00183903
0.00183903
0.00186815
0.00183671
0.00186606
0.00183885
0.00183903
0.00183684
0.00183193
0.00180071
0.00182991
0.00182996
0.00180289
0.00180288
0.001832
0.00180064
0.00182992
0.00182986
0.00180286
0.00180299
0.00183003
0.00180284
0.00180285
0.00183196
0.00180077
0.00183003
0.001803
0.00180285
0.00180065
0.00179592
0.00176468
0.0017939
0.00179384
0.00176682
0.00176683
0.00179584
0.00176474
0.00179389
0.00179395
0.00176685
0.0017668
0.00179384
0.00176685
0.00176684
0.00179594
0.00176466
0.00179382
0.00176677
0.00176685
0.00176472
0.00175991
0.00172895
0.00175782
0.00175789
0.00173109
0.00173106
0.00175998
0.00172891
0.00175784
0.00175783
0.00173107
0.00173101
0.00175787
0.00173107
0.00173108
0.0017599
0.00172892
0.00175791
0.00173105
0.00173107
0.00172893
0.00172418
0.0016932
0.00172219
0.00172211
0.00169529
0.00169534
0.00172414
0.00169323
0.00172217
0.00172211
0.0016953
0.0016954
0.00172215
0.00169532
0.00169528
0.00172417
0.00169328
0.00172211
0.00169536
0.0016953
0.00169319
0.00168846
0.00165771
0.00168636
0.00168642
0.00165981
0.00165976
0.00168847
0.00165769
0.00168637
0.00168649
0.0016598
0.00165968
0.00168634
0.00165976
0.00165977
0.00168851
0.00165761
0.00168641
0.00165972
0.00165977
0.0016577
0.00165296
0.00162216
0.00165096
0.00165089
0.00162423
0.00162431
0.00165295
0.00162223
0.00165094
0.00165077
0.00162423
0.00162432
0.00165094
0.00162433
0.00162432
0.00165286
0.00162226
0.00165089
0.00162426
0.00162427
0.00162221
0.00161744
0.00158701
0.00161535
0.00161545
0.00158903
0.00158896
0.00161748
0.00158692
0.00161536
0.00161553
0.00158906
0.00158906
0.00161541
0.00158894
0.00158896
0.00161754
0.00158698
0.00161543
0.00158912
0.00158904
0.00158697
0.0015823
0.00155176
0.00158029
0.00158018
0.00155386
0.00155387
0.00158222
0.0015518
0.00158031
0.00158018
0.00155385
0.00155375
0.00158023
0.00155388
0.0015539
0.00158224
0.00155169
0.00158024
0.00155368
0.00155378
0.00155175
0.00154702
0.0015166
0.00154501
0.00154508
0.00151859
0.00151864
0.00154708
0.00151662
0.00154499
0.00154498
0.00151855
0.00151872
0.00154505
0.00151861
0.00151857
0.00154699
0.00151671
0.00154496
0.00151874
0.00151863
0.00151661
0.00151191
0.00148187
0.00150988
0.00150989
0.00148388
0.00148384
0.00151192
0.00148182
0.00150986
0.00151001
0.00148395
0.00148389
0.00150986
0.00148388
0.00148388
0.00151202
0.00148182
0.00150993
0.00148388
0.00148389
0.00148184
0.00147719
0.00144706
0.00147519
0.00147515
0.0014491
0.00144908
0.00147714
0.00144706
0.00147527
0.00147515
0.00144905
0.00144899
0.00147518
0.00144906
0.0014491
0.00147713
0.00144702
0.00147518
0.001449
0.00144911
0.00144709
0.00144241
0.00141256
0.00144046
0.00144046
0.00141464
0.00141465
0.00144242
0.00141258
0.00144041
0.00144039
0.0014146
0.00141466
0.00144049
0.00141463
0.00141465
0.00144238
0.00141262
0.00144049
0.0014147
0.00141464
0.00141257
0.0014079
0.00137804
0.00140597
0.00140598
0.00138002
0.00138003
0.00140791
0.00137803
0.00140595
0.00140602
0.00138004
0.00138005
0.00140595
0.00138003
0.00137998
0.00140795
0.00137803
0.00140594
0.00138001
0.00137998
0.00137799
0.00137343
0.00134415
0.00137149
0.0013715
0.00134615
0.00134615
0.00137342
0.00134417
0.00137151
0.00137151
0.00134615
0.00134614
0.00137147
0.00134617
0.00134618
0.00137342
0.00134414
0.00137146
0.00134613
0.00134616
0.00134419
0.00133955
0.00130958
0.00133766
0.00133766
0.00131169
0.00131167
0.00133956
0.00130957
0.00133766
0.00133765
0.00131169
0.00131167
0.0013377
0.00131167
0.00131169
0.00133955
0.00130958
0.00133769
0.00131168
0.00131169
0.00130958
0.00130487
0.00127489
0.00130297
0.00130296
0.00127693
0.00127692
0.00130486
0.00127489
0.00130297
0.00130296
0.00127693
0.00127692
0.00130297
0.00127692
0.00127693
0.00130487
0.00127489
0.00130298
0.00127692
0.00127694
0.00127489
0.00127027
0.00124115
0.00126833
0.00126832
0.00124298
0.00124298
0.00127027
0.00124115
0.00126833
0.00126833
0.00124299
0.00124299
0.00126833
0.00124298
0.00124298
0.00127027
0.00124115
0.00126834
0.00124298
0.00124298
0.00124115
0.00123665
0.0012082
0.00123465
0.00123464
0.00121015
0.00121015
0.00123665
0.0012082
0.00123465
0.00123465
0.00121015
0.00121015
0.00123465
0.00121015
0.00121015
0.00123665
0.00120819
0.00123464
0.00121015
0.00121014
0.00120819
0.00120377
0.00117536
0.00120205
0.00120205
0.00117755
0.00117755
0.00120378
0.00117536
0.00120204
0.00120204
0.00117754
0.00117754
0.00120204
0.00117755
0.00117754
0.00120377
0.00117536
0.00120203
0.00117755
0.00117755
0.00117536
0.00117087
0.00114134
0.00116926
0.00116927
0.00114359
0.00114359
0.00117087
0.00114135
0.00116926
0.00116926
0.00114358
0.00114358
0.00116926
0.00114359
0.00114358
0.00117087
0.00114134
0.00116927
0.00114359
0.00114359
0.00114134
0.00113656
0.00110521
0.00113476
0.00113476
0.00110748
0.00110748
0.00113657
0.00110521
0.00113476
0.00113476
0.00110747
0.00110747
0.00113476
0.00110748
0.00110748
0.00113657
0.00110521
0.00113476
0.00110748
0.00110748
0.00110521
0.0011001
0.00106693
0.00109806
0.00109806
0.00106899
0.00106899
0.0011001
0.00106693
0.00109806
0.00109806
0.00106899
0.00106899
0.00109806
0.00106899
0.00106899
0.0011001
0.00106693
0.00109806
0.00106899
0.00106899
0.00106693
0.00106164
0.00102815
0.00105922
0.00105922
0.00103002
0.00103002
0.00106164
0.00102815
0.00105922
0.00105922
0.00103002
0.00103002
0.00105922
0.00103002
0.00103002
0.00106164
0.00102815
0.00105922
0.00103002
0.00103002
0.00102815
0.00102301
0.000991616
0.00102051
0.00102051
0.000993306
0.000993306
0.00102301
0.000991618
0.0010205
0.00102051
0.000993303
0.000993304
0.00102051
0.000993307
0.000993308
0.00102301
0.000991617
0.00102051
0.000993306
0.000993307
0.00099162
0.000986968
0.000958851
0.000984739
0.000984742
0.000960607
0.000960606
0.000986971
0.000958851
0.000984738
0.000984738
0.000960605
0.000960604
0.000984743
0.000960607
0.000960607
0.000986969
0.00095885
0.000984743
0.000960605
0.000960606
0.000958851
0.000954669
0.000928537
0.000952985
0.000952985
0.000930547
0.000930547
0.00095467
0.000928537
0.000952984
0.000952983
0.000930547
0.000930546
0.000952984
0.000930547
0.000930546
0.000954669
0.000928537
0.000952984
0.000930547
0.000930547
0.000928536
0.000924567
0.00089949
0.000923236
0.000923236
0.000901433
0.000901433
0.000924566
0.00089949
0.000923237
0.000923236
0.000901434
0.000901433
0.000923235
0.000901434
0.000901433
0.000924567
0.00089949
0.000923236
0.000901434
0.000901433
0.000899489
0.000895517
0.000869499
0.000894085
0.000894083
0.000871416
0.000871415
0.000895517
0.000869498
0.000894084
0.000894084
0.000871416
0.000871416
0.000894083
0.000871415
0.000871416
0.000895518
0.000869499
0.000894086
0.000871416
0.000871416
0.000869498
0.000865251
0.000837251
0.000863588
0.000863585
0.000839224
0.000839224
0.000865248
0.000837252
0.000863588
0.000863589
0.000839223
0.000839224
0.000863589
0.000839224
0.000839224
0.00086525
0.000837251
0.000863586
0.000839224
0.000839224
0.000837251
0.000832688
0.000802989
0.000830831
0.000830831
0.000805015
0.000805015
0.000832687
0.000802989
0.00083083
0.00083083
0.000805014
0.000805015
0.000830831
0.000805015
0.000805015
0.000832687
0.000802989
0.000830831
0.000805015
0.000805015
0.000802989
0.000798222
0.000767549
0.000796244
0.000796244
0.000769602
0.000769602
0.000798222
0.00076755
0.000796244
0.000796244
0.000769602
0.000769603
0.000796244
0.000769602
0.000769603
0.000798222
0.000767549
0.000796244
0.000769602
0.000769602
0.000767549
0.000762682
0.000731548
0.000760642
0.000760642
0.000733611
0.000733611
0.000762682
0.000731548
0.000760642
0.000760642
0.000733611
0.000733611
0.000760642
0.000733611
0.000733611
0.000762682
0.000731547
0.000760642
0.000733611
0.000733611
0.000731547
0.000726636
0.000695303
0.000724566
0.000724566
0.000697371
0.000697371
0.000726635
0.000695304
0.000724566
0.000724566
0.000697371
0.000697371
0.000724566
0.000697371
0.000697371
0.000726636
0.000695303
0.000724566
0.000697371
0.000697371
0.000695303
0.000690375
0.000658988
0.000688296
0.000688296
0.000661058
0.000661058
0.000690375
0.000658988
0.000688296
0.000688296
0.000661058
0.000661058
0.000688296
0.000661058
0.000661059
0.000690375
0.000658988
0.000688296
0.000661058
0.000661059
0.000658988
0.000654056
0.000622639
0.000651975
0.000651974
0.00062471
0.00062471
0.000654055
0.00062264
0.000651974
0.000651975
0.00062471
0.00062471
0.000651975
0.00062471
0.00062471
0.000654056
0.000622639
0.000651975
0.00062471
0.00062471
0.000622639
0.000617704
0.000586281
0.00061562
0.00061562
0.000588352
0.000588352
0.000617704
0.000586282
0.00061562
0.00061562
0.000588352
0.000588352
0.00061562
0.000588352
0.000588352
0.000617704
0.000586281
0.00061562
0.000588352
0.000588352
0.000586281
0.000581347
0.000549923
0.000579264
0.000579264
0.000551995
0.000551995
0.000581347
0.000549924
0.000579264
0.000579264
0.000551995
0.000551995
0.000579265
0.000551995
0.000551995
0.000581347
0.000549923
0.000579264
0.000551995
0.000551995
0.000549923
0.000544987
0.000513558
0.000542904
0.000542904
0.000515629
0.000515629
0.000544987
0.000513559
0.000542904
0.000542904
0.000515629
0.000515629
0.000542904
0.000515629
0.00051563
0.000544987
0.000513558
0.000542904
0.000515629
0.000515629
0.000513558
0.000508623
0.0004772
0.00050654
0.00050654
0.000479271
0.000479271
0.000508623
0.000477201
0.00050654
0.00050654
0.000479271
0.000479271
0.00050654
0.000479271
0.000479272
0.000508623
0.0004772
0.00050654
0.000479271
0.000479271
0.0004772
0.000472265
0.000440837
0.000470181
0.000470181
0.000442909
0.000442909
0.000472264
0.000440837
0.000470181
0.000470181
0.000442909
0.000442909
0.000470181
0.000442909
0.000442909
0.000472265
0.000440837
0.000470181
0.000442909
0.000442909
0.000440837
0.000435901
0.000404477
0.000433819
0.000433819
0.000406547
0.000406547
0.000435901
0.000404477
0.000433819
0.000433819
0.000406547
0.000406547
0.000433819
0.000406547
0.000406547
0.000435901
0.000404477
0.000433819
0.000406547
0.000406547
0.000404477
0.000399542
0.000368112
0.000397459
0.000397459
0.000370184
0.000370184
0.000399541
0.000368112
0.000397459
0.000397459
0.000370184
0.000370184
0.000397459
0.000370184
0.000370184
0.000399542
0.000368112
0.000397459
0.000370184
0.000370184
0.000368112
0.000363175
0.000331752
0.000361093
0.000361093
0.000333823
0.000333823
0.000363175
0.000331753
0.000361093
0.000361093
0.000333823
0.000333823
0.000361093
0.000333823
0.000333823
0.000363175
0.000331752
0.000361093
0.000333823
0.000333823
0.000331752
0.000326816
0.000295388
0.000324734
0.000324734
0.000297459
0.000297459
0.000326816
0.000295389
0.000324734
0.000324734
0.000297459
0.000297459
0.000324734
0.000297459
0.000297459
0.000326816
0.000295388
0.000324734
0.000297459
0.000297459
0.000295388
0.000290452
0.000259033
0.000288372
0.000288371
0.000261102
0.000261102
0.000290452
0.000259033
0.000288371
0.000288371
0.000261102
0.000261102
0.000288372
0.000261102
0.000261102
0.000290452
0.000259033
0.000288372
0.000261102
0.000261102
0.000259033
0.000254096
0.000222676
0.000252015
0.000252014
0.000224745
0.000224745
0.000254095
0.000222676
0.000252015
0.000252014
0.000224745
0.000224745
0.000252015
0.000224745
0.000224745
0.000254095
0.000222676
0.000252014
0.000224745
0.000224745
0.000222676
0.000217737
0.000186322
0.00021566
0.00021566
0.00018839
0.000188389
0.000217737
0.000186322
0.000215659
0.00021566
0.00018839
0.00018839
0.00021566
0.000188389
0.00018839
0.000217738
0.000186322
0.000215659
0.000188389
0.000188389
0.000186322
0.000181379
0.00014997
0.000179305
0.000179305
0.000152034
0.000152034
0.000181378
0.000149971
0.000179305
0.000179305
0.000152033
0.000152034
0.000179305
0.000152034
0.000152034
0.000181379
0.00014997
0.000179305
0.000152034
0.000152034
0.00014997
0.000145018
0.000113614
0.000142951
0.000142951
0.000115674
0.000115674
0.000145018
0.000113615
0.00014295
0.00014295
0.000115674
0.000115674
0.000142951
0.000115674
0.000115674
0.000145018
0.000113614
0.000142951
0.000115674
0.000115674
0.000113614
0.000108643
7.7252e-05
0.000106593
0.000106593
7.93072e-05
7.93069e-05
0.000108643
7.72528e-05
0.000106592
0.000106593
7.9307e-05
7.93064e-05
0.000106593
7.93072e-05
7.93067e-05
0.000108643
7.7251e-05
0.000106593
7.93064e-05
7.93067e-05
7.72514e-05
7.22438e-05
4.09324e-05
7.0228e-05
7.02277e-05
4.29841e-05
4.29849e-05
7.22436e-05
4.09336e-05
7.02273e-05
7.02267e-05
4.29823e-05
4.29816e-05
7.02274e-05
4.29835e-05
4.29813e-05
7.22436e-05
4.09296e-05
7.02271e-05
4.29811e-05
4.29801e-05
4.09295e-05
3.59535e-05
8.46656e-06
3.40883e-05
3.40886e-05
1.14938e-05
1.14935e-05
3.59537e-05
8.4665e-06
3.40869e-05
3.40848e-05
1.14949e-05
1.14885e-05
3.4084e-05
1.1494e-05
1.14871e-05
3.59505e-05
8.46307e-06
3.40833e-05
1.14923e-05
1.14923e-05
8.46184e-06
5.23768e-06
6.97052e-06
6.97021e-06
5.23848e-06
6.97096e-06
6.96659e-06
6.10363e-06
6.10318e-06
6.10228e-06
6.96604e-06
5.23617e-06
6.96972e-06
0.00353997
0.00354252
0.00354133
0.00354133
0.00356873
0.00354261
0.00357185
0.00354278
0.00356869
0.00354257
0.00354277
0.00357206
0.00355346
0.00357515
0.00357519
0.00351251
0.00352614
0.00353008
0.00350474
0.00350291
0.0035082
0.00351247
0.00352607
0.00353009
0.00350473
0.00352841
0.00352841
0.00352843
0.00350183
0.00350175
0.00350182
0.00350184
0.00351217
0.00352417
0.00352902
0.00351966
0.00353121
0.00350923
0.00351995
0.00350289
0.00350809
0.00351215
0.00352899
0.00352389
0.0035196
0.00353113
0.00351993
0.00350923
0.00352995
0.00352997
0.003517
0.00350916
0.00350925
0.00348496
0.00349911
0.00349903
0.00348297
0.00349633
0.00348187
0.00348492
0.0034991
0.00349899
0.00348296
0.00349269
0.00349276
0.0034928
0.00346476
0.00346471
0.00346474
0.00346478
0.00348266
0.00349756
0.00349124
0.00348175
0.00349603
0.003483
0.00348189
0.00349628
0.00348201
0.00348274
0.00349126
0.00349768
0.00348203
0.00349607
0.00348196
0.00348324
0.00349924
0.00349912
0.00348039
0.00348363
0.00348371
0.00344269
0.00345735
0.00345832
0.00344136
0.00345609
0.00344063
0.00344259
0.00345733
0.00345829
0.00344136
0.00345472
0.00345471
0.00345475
0.00342218
0.00342217
0.00342214
0.00342218
0.00344144
0.00345669
0.00345282
0.00344242
0.00345587
0.00344202
0.0034424
0.00345614
0.00344047
0.00344139
0.0034528
0.0034569
0.00344243
0.00345586
0.00344236
0.00344178
0.0034576
0.00345756
0.00343967
0.00344167
0.00344158
0.00339611
0.00341272
0.00341429
0.00339471
0.00341199
0.00339423
0.00339619
0.00341272
0.00341416
0.00339475
0.00341051
0.00341052
0.00341056
0.00337439
0.00337437
0.00337437
0.00337439
0.00339532
0.00341248
0.00340883
0.00339709
0.00341194
0.00339536
0.00339703
0.00341198
0.00339424
0.00339532
0.00340887
0.00341251
0.00339707
0.00341195
0.003397
0.00339539
0.00341276
0.00341271
0.00339375
0.00339492
0.00339495
0.00334704
0.00336423
0.00336559
0.00334588
0.00336382
0.00334554
0.00334707
0.00336421
0.00336553
0.00334587
0.00336214
0.00336213
0.00336215
0.00332555
0.00332552
0.00332552
0.00332556
0.00334668
0.0033642
0.00336065
0.00334849
0.00336389
0.0033466
0.00334851
0.00336382
0.00334554
0.00334665
0.00336065
0.00336419
0.00334846
0.00336385
0.00334847
0.00334658
0.00336427
0.00336424
0.00334514
0.00334601
0.00334599
0.00329809
0.00331533
0.00331632
0.00329727
0.00331505
0.00329704
0.00329814
0.00331535
0.00331634
0.00329726
0.00331341
0.00331341
0.00331344
0.00327738
0.00327737
0.00327737
0.00327739
0.00329808
0.00331537
0.00331204
0.00330003
0.00331513