/*--------------------------------*- C++ -*----------------------------------*\
| =========                 |                                                 |
| \\      /  F ield         | OpenFOAM: The Open Source CFD Toolbox           |
|  \\    /   O peration     | Version:  v2012                                 |
|   \\  /    A nd           | Website:  www.openfoam.com                      |
|    \\/     M anipulation  |                                                 |
\*---------------------------------------------------------------------------*/
FoamFile
{
    version     2.0;
    format      ascii;
    class       volScalarField;
    location    "62.5";
    object      epsilon;
}
// * * * * * * * * * * * * * * * * * * * * * * * * * * * * * * * * * * * * * //

dimensions      [0 2 -3 0 0 0 0];


internalField   nonuniform List<scalar> 
171728
(
2.41284e-07
3.59553e-08
4.13586e-08
1.14099e-08
2.4644e-07
4.21939e-08
4.77759e-08
1.29789e-08
2.56302e-07
5.17011e-08
5.80199e-08
1.69288e-08
2.65865e-07
6.45702e-08
7.08776e-08
2.41289e-08
2.75337e-07
8.0884e-08
8.67128e-08
3.44987e-08
2.84833e-07
1.00387e-07
1.05492e-07
4.83767e-08
2.93697e-07
1.23547e-07
1.28017e-07
6.62765e-08
3.03425e-07
1.51547e-07
1.54573e-07
9.01175e-08
3.15278e-07
1.84527e-07
1.86123e-07
1.22173e-07
3.28862e-07
2.20604e-07
2.21564e-07
1.64286e-07
3.46562e-07
2.63082e-07
2.63659e-07
2.17697e-07
3.66411e-07
3.12636e-07
3.13132e-07
2.86476e-07
3.90444e-07
3.7367e-07
3.73866e-07
3.79422e-07
4.10419e-07
4.32805e-07
4.32855e-07
4.80836e-07
4.26972e-07
4.85529e-07
4.8556e-07
5.6329e-07
4.37168e-07
5.14362e-07
5.14393e-07
6.04958e-07
4.40336e-07
5.21472e-07
5.21503e-07
6.12465e-07
4.40911e-07
5.22501e-07
5.22531e-07
6.13406e-07
4.41001e-07
5.22642e-07
5.22672e-07
6.13551e-07
4.41025e-07
5.22673e-07
5.22704e-07
6.13557e-07
4.41038e-07
5.2269e-07
5.22721e-07
6.13571e-07
4.41049e-07
5.22706e-07
5.22735e-07
6.13578e-07
4.41057e-07
5.22711e-07
5.22737e-07
6.13576e-07
4.4106e-07
5.22711e-07
5.22738e-07
6.13579e-07
4.4106e-07
5.22711e-07
5.22739e-07
6.13582e-07
4.4106e-07
5.22711e-07
5.2274e-07
6.13583e-07
4.41063e-07
5.22712e-07
5.22739e-07
6.13584e-07
4.41064e-07
5.22712e-07
5.22739e-07
6.13585e-07
4.41063e-07
5.22711e-07
5.22738e-07
6.13586e-07
4.41062e-07
5.22711e-07
5.22737e-07
6.13586e-07
4.41061e-07
5.22711e-07
5.22737e-07
6.13588e-07
4.41061e-07
5.22712e-07
5.22737e-07
6.13588e-07
4.41061e-07
5.22712e-07
5.22737e-07
6.13586e-07
4.4106e-07
5.22712e-07
5.22736e-07
6.13587e-07
4.41059e-07
5.22712e-07
5.22736e-07
6.13588e-07
4.4106e-07
5.22711e-07
5.22736e-07
6.13588e-07
4.4106e-07
5.22711e-07
5.22737e-07
6.13588e-07
4.4106e-07
5.22711e-07
5.22737e-07
6.13586e-07
4.4106e-07
5.22711e-07
5.22737e-07
6.13585e-07
4.41061e-07
5.22711e-07
5.22737e-07
6.13586e-07
4.4106e-07
5.22711e-07
5.22738e-07
6.13587e-07
4.4106e-07
5.22709e-07
5.22738e-07
6.13587e-07
4.41059e-07
5.22708e-07
5.22738e-07
6.13585e-07
4.41063e-07
5.22708e-07
5.22738e-07
6.13586e-07
4.41063e-07
5.22708e-07
5.22738e-07
6.13587e-07
4.41062e-07
5.22708e-07
5.22737e-07
6.13587e-07
4.41062e-07
5.22709e-07
5.22738e-07
6.13586e-07
4.41062e-07
5.2271e-07
5.22738e-07
6.13585e-07
4.41062e-07
5.2271e-07
5.22738e-07
6.13585e-07
4.41061e-07
5.2271e-07
5.22738e-07
6.13587e-07
4.41061e-07
5.22711e-07
5.22737e-07
6.13586e-07
4.4106e-07
5.2271e-07
5.22738e-07
6.13585e-07
4.4106e-07
5.22709e-07
5.2274e-07
6.13587e-07
4.41059e-07
5.22709e-07
5.2274e-07
6.13588e-07
4.41059e-07
5.22709e-07
5.22739e-07
6.13587e-07
4.4106e-07
5.2271e-07
5.22738e-07
6.13586e-07
4.41062e-07
5.22711e-07
5.22738e-07
6.13584e-07
4.41064e-07
5.22711e-07
5.22738e-07
6.13585e-07
4.41063e-07
5.2271e-07
5.22738e-07
6.13585e-07
4.41062e-07
5.2271e-07
5.22739e-07
6.13584e-07
4.41061e-07
5.2271e-07
5.22739e-07
6.13583e-07
4.41061e-07
5.2271e-07
5.22738e-07
6.13585e-07
4.41061e-07
5.2271e-07
5.22737e-07
6.13584e-07
4.41061e-07
5.22709e-07
5.22738e-07
6.13584e-07
4.41061e-07
5.22709e-07
5.22737e-07
6.13587e-07
4.4106e-07
5.22709e-07
5.22737e-07
6.13587e-07
4.4106e-07
5.22709e-07
5.22738e-07
6.13584e-07
4.41061e-07
5.2271e-07
5.22739e-07
6.13584e-07
4.41064e-07
5.2271e-07
5.22738e-07
6.13586e-07
4.41064e-07
5.2271e-07
5.22738e-07
6.13588e-07
4.41062e-07
5.22711e-07
5.22738e-07
6.13587e-07
4.41061e-07
5.2271e-07
5.22737e-07
6.13584e-07
4.41061e-07
5.2271e-07
5.22738e-07
6.13584e-07
4.41061e-07
5.2271e-07
5.22737e-07
6.13585e-07
4.4106e-07
5.22712e-07
5.22737e-07
6.13587e-07
4.4106e-07
5.22712e-07
5.22737e-07
6.13586e-07
4.4106e-07
5.22712e-07
5.22737e-07
6.13583e-07
4.4106e-07
5.22711e-07
5.22737e-07
6.13586e-07
4.41059e-07
5.22711e-07
5.22738e-07
6.13588e-07
4.41061e-07
5.22711e-07
5.22738e-07
6.13587e-07
4.41063e-07
5.22712e-07
5.2274e-07
6.13584e-07
4.41063e-07
5.22715e-07
5.22743e-07
6.13584e-07
4.41064e-07
5.22716e-07
5.22746e-07
6.13585e-07
4.41067e-07
5.22717e-07
5.22747e-07
6.13588e-07
4.41068e-07
5.22719e-07
5.22748e-07
6.13587e-07
4.41068e-07
5.22721e-07
5.22749e-07
6.13586e-07
4.41072e-07
5.22723e-07
5.22751e-07
6.13586e-07
4.41075e-07
5.22725e-07
5.22753e-07
6.13587e-07
4.41078e-07
5.22727e-07
5.22754e-07
6.13586e-07
4.41079e-07
5.22727e-07
5.22753e-07
6.13584e-07
4.4108e-07
5.22724e-07
5.2275e-07
6.13579e-07
4.41082e-07
5.22716e-07
5.22742e-07
6.13569e-07
4.41083e-07
5.22695e-07
5.2272e-07
6.13547e-07
4.41073e-07
5.2267e-07
5.22694e-07
6.13415e-07
4.39243e-07
5.10792e-07
5.10796e-07
5.97857e-07
1.37888e-08
3.05773e-08
3.057e-08
1.19372e-08
3.08373e-08
2.92403e-08
2.43761e-07
2.43933e-07
2.44409e-07
2.43608e-07
2.92411e-08
3.35515e-08
1.15862e-08
3.18028e-08
2.90833e-08
1.14533e-08
1.37174e-08
1.50522e-08
3.86997e-08
3.92316e-08
4.1361e-08
4.3413e-08
1.18933e-08
1.34873e-08
3.66413e-08
3.59611e-08
4.07217e-08
3.99772e-08
4.74834e-08
4.01672e-08
4.88464e-08
1.1545e-08
1.33526e-08
3.76942e-08
4.56385e-08
4.20486e-08
1.29649e-08
1.50785e-08
1.83682e-08
4.29964e-08
4.55193e-08
4.94295e-08
5.27705e-08
1.35318e-08
1.74206e-08
4.27984e-08
4.20443e-08
4.98502e-08
4.92695e-08
4.93474e-08
4.91024e-08
5.18872e-08
1.34001e-08
1.74069e-08
4.42014e-08
5.5293e-08
5.14426e-08
1.67142e-08
1.8538e-08
2.47296e-08
5.20294e-08
5.5442e-08
6.13146e-08
6.45755e-08
1.76391e-08
2.45015e-08
5.25284e-08
5.20092e-08
6.18013e-08
6.16656e-08
5.34604e-08
6.11211e-08
6.0806e-08
1.76162e-08
2.44886e-08
5.41066e-08
6.74591e-08
6.30626e-08
2.36597e-08
2.51417e-08
3.44412e-08
6.47359e-08
6.7848e-08
7.64104e-08
7.89291e-08
2.49666e-08
3.45972e-08
6.51172e-08
6.50618e-08
7.66584e-08
7.70094e-08
6.37947e-08
7.64912e-08
7.54758e-08
2.49371e-08
3.48213e-08
6.62756e-08
8.249e-08
7.73967e-08
3.38192e-08
3.50954e-08
4.77034e-08
8.07743e-08
8.3069e-08
9.51132e-08
9.65532e-08
3.52651e-08
4.79686e-08
8.09879e-08
8.14722e-08
9.50823e-08
9.55634e-08
7.98986e-08
9.5179e-08
9.39551e-08
3.54818e-08
4.82434e-08
8.16438e-08
1.00456e-07
9.54494e-08
4.7419e-08
4.862e-08
6.5246e-08
1.00402e-07
1.01654e-07
1.17363e-07
1.18287e-07
4.88828e-08
6.54577e-08
1.00351e-07
1.00764e-07
1.17401e-07
1.17698e-07
9.92554e-08
1.1733e-07
1.16388e-07
4.91668e-08
6.59458e-08
1.00479e-07
1.21988e-07
1.17145e-07
6.49987e-08
6.65505e-08
8.86104e-08
1.23684e-07
1.2445e-07
1.44228e-07
1.44775e-07
6.67451e-08
8.86663e-08
1.23845e-07
1.24041e-07
1.44743e-07
1.44717e-07
1.22781e-07
1.44354e-07
1.43802e-07
6.72497e-08
8.93869e-08
1.23523e-07
1.47727e-07
1.44394e-07
8.82295e-08
9.04737e-08
1.19617e-07
1.51439e-07
1.51876e-07
1.75696e-07
1.75702e-07
9.05143e-08
1.19555e-07
1.51932e-07
1.51892e-07
1.75756e-07
1.75782e-07
1.5113e-07
1.75739e-07
1.75417e-07
9.12508e-08
1.20212e-07
1.51612e-07
1.77751e-07
1.75698e-07
1.19561e-07
1.22206e-07
1.58728e-07
1.84481e-07
1.84468e-07
2.11098e-07
2.11235e-07
1.22147e-07
1.58716e-07
1.84614e-07
1.84616e-07
2.11381e-07
2.11253e-07
1.84217e-07
2.11204e-07
2.10992e-07
1.22778e-07
1.59011e-07
1.84539e-07
2.12229e-07
2.1123e-07
1.58786e-07
1.64234e-07
2.08528e-07
2.20534e-07
2.20707e-07
2.51922e-07
2.52e-07
1.64235e-07
2.08621e-07
2.2071e-07
2.20621e-07
2.51957e-07
2.51947e-07
2.20468e-07
2.52003e-07
2.51818e-07
1.64515e-07
2.08743e-07
2.20653e-07
2.52607e-07
2.51958e-07
2.08563e-07
2.17715e-07
2.7401e-07
2.63056e-07
2.63081e-07
2.99253e-07
2.99178e-07
2.17778e-07
2.73836e-07
2.63131e-07
2.6312e-07
2.99345e-07
2.99388e-07
2.62913e-07
2.99257e-07
2.99062e-07
2.17908e-07
2.74235e-07
2.63058e-07
2.99802e-07
2.99188e-07
2.73708e-07
2.86794e-07
3.62224e-07
3.12666e-07
3.12588e-07
3.57812e-07
3.57765e-07
2.86606e-07
3.62123e-07
3.12743e-07
3.12808e-07
3.57843e-07
3.57915e-07
3.12491e-07
3.57807e-07
3.57714e-07
2.87067e-07
3.6248e-07
3.12602e-07
3.58072e-07
3.57768e-07
3.62049e-07
3.79567e-07
4.64707e-07
3.737e-07
3.7367e-07
4.18658e-07
4.18657e-07
3.7949e-07
4.64682e-07
3.73723e-07
3.73786e-07
4.18658e-07
4.18699e-07
3.7363e-07
4.18651e-07
4.18637e-07
3.79783e-07
4.64767e-07
3.73668e-07
4.1872e-07
4.1864e-07
4.64675e-07
4.80863e-07
5.5045e-07
4.32833e-07
4.32841e-07
4.73737e-07
4.7375e-07
4.80845e-07
5.50432e-07
4.32829e-07
4.32872e-07
4.73709e-07
4.73765e-07
4.32826e-07
4.73704e-07
4.73737e-07
4.8091e-07
5.50482e-07
4.32821e-07
4.73734e-07
4.73711e-07
5.50463e-07
5.63283e-07
6.00307e-07
4.85586e-07
4.85605e-07
5.09987e-07
5.10006e-07
5.63265e-07
6.00278e-07
4.85558e-07
4.85618e-07
5.09953e-07
5.10015e-07
4.85589e-07
5.09932e-07
5.0999e-07
5.63308e-07
6.00325e-07
4.85558e-07
5.09963e-07
5.09953e-07
6.00328e-07
6.04944e-07
6.11175e-07
5.14433e-07
5.14452e-07
5.20763e-07
5.20776e-07
6.04913e-07
6.11136e-07
5.14399e-07
5.14461e-07
5.20727e-07
5.20784e-07
5.14438e-07
5.20697e-07
5.20766e-07
6.04957e-07
6.11182e-07
5.144e-07
5.20727e-07
5.20728e-07
6.112e-07
6.12452e-07
6.12574e-07
5.2155e-07
5.21562e-07
5.22479e-07
5.22486e-07
6.12413e-07
6.12531e-07
5.21514e-07
5.21571e-07
5.22442e-07
5.22497e-07
5.21552e-07
5.22405e-07
5.22476e-07
6.12455e-07
6.12575e-07
5.21515e-07
5.22435e-07
5.22439e-07
6.12592e-07
6.13396e-07
6.12783e-07
5.22583e-07
5.22589e-07
5.22707e-07
5.22709e-07
6.13352e-07
6.12738e-07
5.22547e-07
5.22601e-07
5.22668e-07
5.22722e-07
5.22579e-07
5.22628e-07
5.22695e-07
6.13394e-07
6.12782e-07
5.22542e-07
5.22658e-07
5.22658e-07
6.12788e-07
6.13557e-07
6.12804e-07
5.22725e-07
5.22727e-07
5.22751e-07
5.22752e-07
6.1351e-07
6.12758e-07
5.22686e-07
5.2274e-07
5.22711e-07
5.22764e-07
5.22711e-07
5.22668e-07
5.22731e-07
6.13552e-07
6.12802e-07
5.22674e-07
5.22699e-07
5.22694e-07
6.12791e-07
6.13577e-07
6.12823e-07
5.22759e-07
5.22761e-07
5.22769e-07
5.22774e-07
6.13531e-07
6.12775e-07
5.22719e-07
5.22772e-07
5.2273e-07
5.22784e-07
5.22739e-07
5.22687e-07
5.2275e-07
6.13573e-07
6.12819e-07
5.22702e-07
5.22717e-07
5.22713e-07
6.12807e-07
6.13592e-07
6.12828e-07
5.22776e-07
5.22782e-07
5.22782e-07
5.22793e-07
6.13546e-07
6.12783e-07
5.22739e-07
5.22792e-07
5.22744e-07
5.22801e-07
5.22758e-07
5.22703e-07
5.22765e-07
6.13587e-07
6.12827e-07
5.22721e-07
5.22733e-07
5.22727e-07
6.12815e-07
6.13599e-07
6.12829e-07
5.22788e-07
5.22801e-07
5.22782e-07
5.22801e-07
6.13556e-07
6.12791e-07
5.2275e-07
5.22808e-07
5.22745e-07
5.22805e-07
5.22771e-07
5.22711e-07
5.22766e-07
6.13595e-07
6.1283e-07
5.22733e-07
5.22737e-07
5.22729e-07
6.12811e-07
6.13599e-07
6.12829e-07
5.22786e-07
5.22805e-07
5.22781e-07
5.22801e-07
6.13563e-07
6.12791e-07
5.2275e-07
5.22809e-07
5.22745e-07
5.22805e-07
5.22772e-07
5.22711e-07
5.22766e-07
6.13597e-07
6.12829e-07
5.22735e-07
5.22738e-07
5.22731e-07
6.12815e-07
6.13601e-07
6.12823e-07
5.22784e-07
5.22806e-07
5.22779e-07
5.228e-07
6.13564e-07
6.12786e-07
5.22748e-07
5.22809e-07
5.22745e-07
5.22805e-07
5.22769e-07
5.22711e-07
5.22766e-07
6.13598e-07
6.12825e-07
5.22738e-07
5.22739e-07
5.22736e-07
6.12815e-07
6.13595e-07
6.12823e-07
5.22783e-07
5.22804e-07
5.22778e-07
5.228e-07
6.13558e-07
6.12787e-07
5.2275e-07
5.2281e-07
5.22745e-07
5.22805e-07
5.2277e-07
5.22711e-07
5.22766e-07
6.13594e-07
6.12826e-07
5.22743e-07
5.22741e-07
5.22738e-07
6.12812e-07
6.13594e-07
6.12826e-07
5.22783e-07
5.22806e-07
5.22777e-07
5.228e-07
6.13557e-07
6.1279e-07
5.2275e-07
5.22809e-07
5.22746e-07
5.22805e-07
5.22772e-07
5.22712e-07
5.22766e-07
6.13593e-07
6.12829e-07
5.22741e-07
5.22739e-07
5.22736e-07
6.12811e-07
6.13596e-07
6.12825e-07
5.22781e-07
5.22804e-07
5.22777e-07
5.228e-07
6.13559e-07
6.12788e-07
5.22751e-07
5.22809e-07
5.22747e-07
5.22805e-07
5.2277e-07
5.22712e-07
5.22766e-07
6.13595e-07
6.12828e-07
5.2274e-07
5.22739e-07
5.22736e-07
6.1281e-07
6.13595e-07
6.12824e-07
5.22781e-07
5.22806e-07
5.22776e-07
5.22801e-07
6.13559e-07
6.12789e-07
5.22751e-07
5.22811e-07
5.22746e-07
5.22806e-07
5.22772e-07
5.22711e-07
5.22766e-07
6.13596e-07
6.12829e-07
5.22742e-07
5.22738e-07
5.22737e-07
6.12808e-07
6.13594e-07
6.12825e-07
5.2278e-07
5.22805e-07
5.22776e-07
5.22801e-07
6.13559e-07
6.12789e-07
5.22752e-07
5.2281e-07
5.22748e-07
5.22805e-07
5.2277e-07
5.22711e-07
5.22767e-07
6.13596e-07
6.12829e-07
5.22741e-07
5.22737e-07
5.22736e-07
6.12808e-07
6.13595e-07
6.12824e-07
5.2278e-07
5.22807e-07
5.22776e-07
5.22802e-07
6.1356e-07
6.12789e-07
5.22752e-07
5.2281e-07
5.22748e-07
5.22805e-07
5.22773e-07
5.22711e-07
5.22766e-07
6.13596e-07
6.12828e-07
5.22741e-07
5.22737e-07
5.22736e-07
6.1281e-07
6.13595e-07
6.12825e-07
5.2278e-07
5.22805e-07
5.22775e-07
5.22802e-07
6.13561e-07
6.12789e-07
5.22755e-07
5.22809e-07
5.2275e-07
5.22805e-07
5.22771e-07
5.22712e-07
5.22767e-07
6.13595e-07
6.12828e-07
5.22741e-07
5.22737e-07
5.22736e-07
6.12809e-07
6.13595e-07
6.12827e-07
5.2278e-07
5.22809e-07
5.22775e-07
5.22805e-07
6.1356e-07
6.12786e-07
5.22754e-07
5.2281e-07
5.22749e-07
5.22805e-07
5.22771e-07
5.22713e-07
5.22767e-07
6.13594e-07
6.12828e-07
5.22741e-07
5.22737e-07
5.22737e-07
6.12808e-07
6.13597e-07
6.12826e-07
5.22779e-07
5.2281e-07
5.22774e-07
5.22805e-07
6.13558e-07
6.12786e-07
5.22753e-07
5.22809e-07
5.22748e-07
5.22805e-07
5.22773e-07
5.22712e-07
5.22767e-07
6.13595e-07
6.12828e-07
5.22743e-07
5.22736e-07
5.22737e-07
6.1281e-07
6.13597e-07
6.12824e-07
5.22779e-07
5.22809e-07
5.22774e-07
5.22804e-07
6.13557e-07
6.12787e-07
5.22752e-07
5.22811e-07
5.22748e-07
5.22805e-07
5.22771e-07
5.22712e-07
5.22767e-07
6.13595e-07
6.12829e-07
5.22741e-07
5.22736e-07
5.22737e-07
6.1281e-07
6.13595e-07
6.12825e-07
5.22778e-07
5.22809e-07
5.22774e-07
5.22804e-07
6.13558e-07
6.12786e-07
5.22752e-07
5.22808e-07
5.22748e-07
5.22804e-07
5.22773e-07
5.22711e-07
5.22766e-07
6.13595e-07
6.12828e-07
5.22743e-07
5.22736e-07
5.22737e-07
6.1281e-07
6.13595e-07
6.12825e-07
5.22779e-07
5.22809e-07
5.22774e-07
5.22805e-07
6.13558e-07
6.12786e-07
5.22753e-07
5.2281e-07
5.22748e-07
5.22804e-07
5.2277e-07
5.22711e-07
5.22766e-07
6.13594e-07
6.12828e-07
5.22741e-07
5.22737e-07
5.22736e-07
6.1281e-07
6.13596e-07
6.12824e-07
5.22779e-07
5.22809e-07
5.22774e-07
5.22805e-07
6.13557e-07
6.12786e-07
5.22752e-07
5.22808e-07
5.22748e-07
5.22804e-07
5.2277e-07
5.22711e-07
5.22765e-07
6.13595e-07
6.12827e-07
5.22741e-07
5.22737e-07
5.22735e-07
6.12808e-07
6.13595e-07
6.12825e-07
5.22779e-07
5.22811e-07
5.22774e-07
5.22806e-07
6.13557e-07
6.12786e-07
5.22753e-07
5.22808e-07
5.22748e-07
5.22805e-07
5.2277e-07
5.22711e-07
5.22765e-07
6.13594e-07
6.12828e-07
5.22739e-07
5.22737e-07
5.22735e-07
6.12807e-07
6.13595e-07
6.12825e-07
5.22778e-07
5.22809e-07
5.22774e-07
5.22805e-07
6.13557e-07
6.12786e-07
5.22753e-07
5.22811e-07
5.22749e-07
5.22805e-07
5.2277e-07
5.22711e-07
5.22766e-07
6.13595e-07
6.12828e-07
5.22741e-07
5.22737e-07
5.22736e-07
6.12807e-07
6.13595e-07
6.12827e-07
5.22779e-07
5.2281e-07
5.22772e-07
5.22804e-07
6.13557e-07
6.12788e-07
5.22752e-07
5.22809e-07
5.22748e-07
5.22806e-07
5.22772e-07
5.22711e-07
5.22767e-07
6.13594e-07
6.12829e-07
5.22742e-07
5.22738e-07
5.22737e-07
6.12809e-07
6.13594e-07
6.12826e-07
5.22776e-07
5.22807e-07
5.22773e-07
5.22802e-07
6.13559e-07
6.1279e-07
5.22754e-07
5.22811e-07
5.22748e-07
5.22806e-07
5.2277e-07
5.2271e-07
5.22766e-07
6.13595e-07
6.12829e-07
5.22741e-07
5.22738e-07
5.22736e-07
6.12808e-07
6.13594e-07
6.12826e-07
5.22778e-07
5.22806e-07
5.22773e-07
5.22801e-07
6.13559e-07
6.12789e-07
5.22752e-07
5.22812e-07
5.22749e-07
5.22807e-07
5.22772e-07
5.22709e-07
5.22766e-07
6.13596e-07
6.1283e-07
5.22741e-07
5.22738e-07
5.22736e-07
6.12807e-07
6.13594e-07
6.12827e-07
5.22778e-07
5.22805e-07
5.22774e-07
5.228e-07
6.13558e-07
6.12789e-07
5.22753e-07
5.22811e-07
5.22749e-07
5.22806e-07
5.2277e-07
5.22708e-07
5.22766e-07
6.13597e-07
6.12829e-07
5.22741e-07
5.22739e-07
5.22736e-07
6.12809e-07
6.13595e-07
6.12828e-07
5.22781e-07
5.22806e-07
5.22776e-07
5.228e-07
6.13558e-07
6.12789e-07
5.22756e-07
5.22809e-07
5.2275e-07
5.22805e-07
5.22771e-07
5.22708e-07
5.22766e-07
6.13596e-07
6.12829e-07
5.2274e-07
5.22738e-07
5.22736e-07
6.12809e-07
6.13596e-07
6.12828e-07
5.2278e-07
5.22804e-07
5.22777e-07
5.228e-07
6.13558e-07
6.1279e-07
5.22753e-07
5.2281e-07
5.22749e-07
5.22805e-07
5.2277e-07
5.22708e-07
5.22765e-07
6.13596e-07
6.12828e-07
5.2274e-07
5.22737e-07
5.22735e-07
6.12809e-07
6.13596e-07
6.1283e-07
5.22783e-07
5.22807e-07
5.22778e-07
5.22801e-07
6.13559e-07
6.1279e-07
5.22755e-07
5.2281e-07
5.22749e-07
5.22805e-07
5.22769e-07
5.22709e-07
5.22765e-07
6.13595e-07
6.12828e-07
5.2274e-07
5.22738e-07
5.22735e-07
6.12808e-07
6.13597e-07
6.1283e-07
5.22782e-07
5.22805e-07
5.22779e-07
5.22801e-07
6.13559e-07
6.12791e-07
5.22753e-07
5.22809e-07
5.22749e-07
5.22805e-07
5.2277e-07
5.2271e-07
5.22766e-07
6.13595e-07
6.12828e-07
5.2274e-07
5.22739e-07
5.22736e-07
6.12806e-07
6.13598e-07
6.1283e-07
5.22786e-07
5.22807e-07
5.2278e-07
5.22802e-07
6.1356e-07
6.12792e-07
5.22754e-07
5.22811e-07
5.22749e-07
5.22806e-07
5.22771e-07
5.2271e-07
5.22765e-07
6.13595e-07
6.12829e-07
5.22741e-07
5.22738e-07
5.22736e-07
6.12807e-07
6.13598e-07
6.12831e-07
5.22784e-07
5.22806e-07
5.22781e-07
5.22802e-07
6.13562e-07
6.12793e-07
5.22753e-07
5.22809e-07
5.22748e-07
5.22805e-07
5.2277e-07
5.2271e-07
5.22766e-07
6.13595e-07
6.12828e-07
5.2274e-07
5.22738e-07
5.22736e-07
6.12809e-07
6.13599e-07
6.12832e-07
5.22787e-07
5.22807e-07
5.22782e-07
5.22802e-07
6.13562e-07
6.12794e-07
5.22753e-07
5.2281e-07
5.22748e-07
5.22805e-07
5.2277e-07
5.22711e-07
5.22766e-07
6.13595e-07
6.12828e-07
5.22742e-07
5.22738e-07
5.22736e-07
6.12807e-07
6.136e-07
6.12832e-07
5.22785e-07
5.22806e-07
5.22781e-07
5.22802e-07
6.13563e-07
6.12794e-07
5.22752e-07
5.22809e-07
5.22747e-07
5.22804e-07
5.22771e-07
5.2271e-07
5.22766e-07
6.13595e-07
6.12828e-07
5.22741e-07
5.22739e-07
5.22736e-07
6.12808e-07
6.136e-07
6.12832e-07
5.22787e-07
5.22808e-07
5.22781e-07
5.22803e-07
6.13563e-07
6.12794e-07
5.22751e-07
5.2281e-07
5.22747e-07
5.22805e-07
5.22772e-07
5.2271e-07
5.22767e-07
6.13595e-07
6.12828e-07
5.22741e-07
5.2274e-07
5.22736e-07
6.1281e-07
6.13599e-07
6.12831e-07
5.22785e-07
5.22808e-07
5.22781e-07
5.22803e-07
6.13563e-07
6.12795e-07
5.22752e-07
5.22809e-07
5.22747e-07
5.22805e-07
5.22771e-07
5.22709e-07
5.22766e-07
6.13595e-07
6.12829e-07
5.2274e-07
5.2274e-07
5.22735e-07
6.1281e-07
6.13599e-07
6.12831e-07
5.22787e-07
5.22808e-07
5.22781e-07
5.22803e-07
6.13564e-07
6.12795e-07
5.22751e-07
5.22811e-07
5.22747e-07
5.22806e-07
5.22771e-07
5.22709e-07
5.22765e-07
6.13595e-07
6.12829e-07
5.2274e-07
5.22739e-07
5.22734e-07
6.1281e-07
6.13599e-07
6.12832e-07
5.22785e-07
5.22807e-07
5.22781e-07
5.22803e-07
6.13563e-07
6.12794e-07
5.22753e-07
5.22809e-07
5.22747e-07
5.22806e-07
5.22769e-07
5.2271e-07
5.22764e-07
6.13596e-07
6.12829e-07
5.22738e-07
5.22738e-07
5.22732e-07
6.12808e-07
6.136e-07
6.12831e-07
5.22786e-07
5.22808e-07
5.22781e-07
5.22803e-07
6.13563e-07
6.12795e-07
5.22751e-07
5.22812e-07
5.22747e-07
5.22805e-07
5.22768e-07
5.22711e-07
5.22764e-07
6.13596e-07
6.12829e-07
5.22736e-07
5.22738e-07
5.22732e-07
6.12805e-07
6.13599e-07
6.12831e-07
5.22786e-07
5.22807e-07
5.22781e-07
5.22802e-07
6.13563e-07
6.12794e-07
5.22753e-07
5.22809e-07
5.22748e-07
5.22804e-07
5.2277e-07
5.22712e-07
5.22764e-07
6.13596e-07
6.12828e-07
5.22738e-07
5.22739e-07
5.22733e-07
6.12806e-07
6.13599e-07
6.12831e-07
5.22785e-07
5.22807e-07
5.22781e-07
5.22802e-07
6.13563e-07
6.12793e-07
5.22752e-07
5.22809e-07
5.22747e-07
5.22804e-07
5.22769e-07
5.22711e-07
5.22765e-07
6.13595e-07
6.12828e-07
5.22737e-07
5.22738e-07
5.22733e-07
6.12807e-07
6.13599e-07
6.12832e-07
5.22787e-07
5.22806e-07
5.22782e-07
5.22802e-07
6.13562e-07
6.12794e-07
5.22752e-07
5.22808e-07
5.22747e-07
5.22804e-07
5.22771e-07
5.2271e-07
5.22765e-07
6.13594e-07
6.12828e-07
5.2274e-07
5.22739e-07
5.22734e-07
6.12805e-07
6.136e-07
6.12831e-07
5.22786e-07
5.22808e-07
5.22781e-07
5.22803e-07
6.13563e-07
6.12794e-07
5.22751e-07
5.22809e-07
5.22746e-07
5.22804e-07
5.22769e-07
5.2271e-07
5.22765e-07
6.13594e-07
6.12828e-07
5.22738e-07
5.22739e-07
5.22733e-07
6.12805e-07
6.13599e-07
6.12831e-07
5.22786e-07
5.22807e-07
5.22781e-07
5.22802e-07
6.13563e-07
6.12794e-07
5.22751e-07
5.22809e-07
5.22746e-07
5.22805e-07
5.22771e-07
5.2271e-07
5.22765e-07
6.13595e-07
6.12828e-07
5.22738e-07
5.22738e-07
5.22733e-07
6.12808e-07
6.13599e-07
6.12831e-07
5.22786e-07
5.22808e-07
5.22781e-07
5.22803e-07
6.13562e-07
6.12794e-07
5.2275e-07
5.22809e-07
5.22746e-07
5.22805e-07
5.22769e-07
5.2271e-07
5.22766e-07
6.13595e-07
6.12827e-07
5.22737e-07
5.22738e-07
5.22733e-07
6.12806e-07
6.13599e-07
6.12831e-07
5.22786e-07
5.22807e-07
5.22781e-07
5.22802e-07
6.13563e-07
6.12794e-07
5.22752e-07
5.22811e-07
5.22746e-07
5.22806e-07
5.22771e-07
5.2271e-07
5.22766e-07
6.13594e-07
6.12829e-07
5.22739e-07
5.22738e-07
5.22733e-07
6.12806e-07
6.13599e-07
6.12831e-07
5.22785e-07
5.22808e-07
5.22781e-07
5.22802e-07
6.13563e-07
6.12794e-07
5.2275e-07
5.2281e-07
5.22746e-07
5.22805e-07
5.2277e-07
5.22709e-07
5.22766e-07
6.13596e-07
6.12829e-07
5.22737e-07
5.22737e-07
5.22734e-07
6.1281e-07
6.13599e-07
6.12831e-07
5.22787e-07
5.22806e-07
5.22781e-07
5.22802e-07
6.13563e-07
6.12793e-07
5.22751e-07
5.22809e-07
5.22746e-07
5.22805e-07
5.22771e-07
5.22709e-07
5.22765e-07
6.13596e-07
6.12828e-07
5.22739e-07
5.22737e-07
5.22733e-07
6.12809e-07
6.13599e-07
6.12831e-07
5.22785e-07
5.22807e-07
5.22781e-07
5.22802e-07
6.13562e-07
6.12793e-07
5.2275e-07
5.22809e-07
5.22745e-07
5.22804e-07
5.2277e-07
5.22709e-07
5.22765e-07
6.13595e-07
6.12828e-07
5.22737e-07
5.22738e-07
5.22733e-07
6.12806e-07
6.13599e-07
6.12831e-07
5.22786e-07
5.22806e-07
5.22781e-07
5.22802e-07
6.13562e-07
6.12794e-07
5.2275e-07
5.22809e-07
5.22745e-07
5.22805e-07
5.2277e-07
5.2271e-07
5.22766e-07
6.13595e-07
6.12828e-07
5.22738e-07
5.22739e-07
5.22734e-07
6.12807e-07
6.13598e-07
6.1283e-07
5.22785e-07
5.22807e-07
5.22781e-07
5.22803e-07
6.13563e-07
6.12794e-07
5.2275e-07
5.22809e-07
5.22746e-07
5.22805e-07
5.2277e-07
5.22711e-07
5.22765e-07
6.13595e-07
6.12828e-07
5.22739e-07
5.22738e-07
5.22733e-07
6.12808e-07
6.13598e-07
6.12831e-07
5.22788e-07
5.22808e-07
5.22782e-07
5.22803e-07
6.13563e-07
6.12795e-07
5.22752e-07
5.22811e-07
5.22746e-07
5.22805e-07
5.22772e-07
5.2271e-07
5.22766e-07
6.13595e-07
6.12828e-07
5.22738e-07
5.22738e-07
5.22733e-07
6.1281e-07
6.13599e-07
6.12831e-07
5.22786e-07
5.22807e-07
5.22782e-07
5.22803e-07
6.13563e-07
6.12794e-07
5.2275e-07
5.22809e-07
5.22747e-07
5.22805e-07
5.2277e-07
5.22711e-07
5.22765e-07
6.13595e-07
6.12828e-07
5.22737e-07
5.22738e-07
5.22733e-07
6.12808e-07
6.13599e-07
6.12832e-07
5.22788e-07
5.22808e-07
5.22782e-07
5.22803e-07
6.13563e-07
6.12794e-07
5.22753e-07
5.2281e-07
5.22746e-07
5.22805e-07
5.22769e-07
5.2271e-07
5.22765e-07
6.13595e-07
6.12828e-07
5.22738e-07
5.22738e-07
5.22733e-07
6.12806e-07
6.13599e-07
6.12832e-07
5.22786e-07
5.22807e-07
5.22782e-07
5.22803e-07
6.13563e-07
6.12794e-07
5.2275e-07
5.22809e-07
5.22746e-07
5.22805e-07
5.2277e-07
5.2271e-07
5.22766e-07
6.13595e-07
6.12829e-07
5.22737e-07
5.22738e-07
5.22733e-07
6.12806e-07
6.136e-07
6.12832e-07
5.22787e-07
5.22807e-07
5.22782e-07
5.22802e-07
6.13563e-07
6.12795e-07
5.22751e-07
5.22811e-07
5.22746e-07
5.22806e-07
5.2277e-07
5.22711e-07
5.22765e-07
6.13595e-07
6.12828e-07
5.22739e-07
5.22738e-07
5.22733e-07
6.12808e-07
6.136e-07
6.12831e-07
5.22786e-07
5.22808e-07
5.22781e-07
5.22803e-07
6.13563e-07
6.12794e-07
5.22751e-07
5.2281e-07
5.22746e-07
5.22805e-07
5.22771e-07
5.22712e-07
5.22766e-07
6.13595e-07
6.12829e-07
5.22737e-07
5.22737e-07
5.22733e-07
6.12809e-07
6.13599e-07
6.12831e-07
5.22787e-07
5.22806e-07
5.22781e-07
5.22802e-07
6.13563e-07
6.12794e-07
5.2275e-07
5.22809e-07
5.22746e-07
5.22805e-07
5.22769e-07
5.22713e-07
5.22765e-07
6.13596e-07
6.12828e-07
5.22739e-07
5.22737e-07
5.22733e-07
6.12807e-07
6.13599e-07
6.12831e-07
5.22785e-07
5.22808e-07
5.22781e-07
5.22803e-07
6.13563e-07
6.12795e-07
5.22751e-07
5.22809e-07
5.22746e-07
5.22804e-07
5.22772e-07
5.22712e-07
5.22767e-07
6.13594e-07
6.12828e-07
5.22737e-07
5.22737e-07
5.22734e-07
6.12805e-07
6.13599e-07
6.12831e-07
5.22786e-07
5.22807e-07
5.2278e-07
5.22802e-07
6.13564e-07
6.12794e-07
5.2275e-07
5.22809e-07
5.22745e-07
5.22804e-07
5.22771e-07
5.22711e-07
5.22766e-07
6.13595e-07
6.12828e-07
5.2274e-07
5.22737e-07
5.22734e-07
6.12808e-07
6.13599e-07
6.1283e-07
5.22784e-07
5.22807e-07
5.2278e-07
5.22802e-07
6.13563e-07
6.12795e-07
5.2275e-07
5.22808e-07
5.22745e-07
5.22804e-07
5.22771e-07
5.22711e-07
5.22766e-07
6.13595e-07
6.12828e-07
5.22738e-07
5.22738e-07
5.22734e-07
6.12811e-07
6.13598e-07
6.1283e-07
5.22784e-07
5.22806e-07
5.2278e-07
5.22802e-07
6.13563e-07
6.12794e-07
5.22749e-07
5.2281e-07
5.22745e-07
5.22804e-07
5.2277e-07
5.22711e-07
5.22766e-07
6.13595e-07
6.12828e-07
5.22739e-07
5.22738e-07
5.22733e-07
6.12808e-07
6.13597e-07
6.12831e-07
5.22785e-07
5.22807e-07
5.2278e-07
5.22802e-07
6.13563e-07
6.12794e-07
5.2275e-07
5.22809e-07
5.22745e-07
5.22804e-07
5.2277e-07
5.22711e-07
5.22764e-07
6.13595e-07
6.12828e-07
5.22737e-07
5.2274e-07
5.22731e-07
6.12806e-07
6.13599e-07
6.12831e-07
5.22785e-07
5.22806e-07
5.22779e-07
5.22801e-07
6.13563e-07
6.12794e-07
5.2275e-07
5.22809e-07
5.22744e-07
5.22804e-07
5.22769e-07
5.22714e-07
5.22763e-07
6.13595e-07
6.12829e-07
5.22736e-07
5.22742e-07
5.22731e-07
6.12807e-07
6.13599e-07
6.1283e-07
5.22785e-07
5.22806e-07
5.2278e-07
5.22801e-07
6.13563e-07
6.12793e-07
5.2275e-07
5.22809e-07
5.22745e-07
5.22804e-07
5.22768e-07
5.22715e-07
5.22764e-07
6.13596e-07
6.12829e-07
5.22736e-07
5.22744e-07
5.22732e-07
6.12807e-07
6.13598e-07
6.12832e-07
5.22786e-07
5.22807e-07
5.22784e-07
5.22804e-07
6.13562e-07
6.12794e-07
5.22751e-07
5.2281e-07
5.22748e-07
5.22807e-07
5.2277e-07
5.22716e-07
5.22768e-07
6.13595e-07
6.1283e-07
5.22738e-07
5.22745e-07
5.22735e-07
6.12809e-07
6.13599e-07
6.12832e-07
5.22792e-07
5.22813e-07
5.22782e-07
5.22803e-07
6.13563e-07
6.12794e-07
5.22757e-07
5.22816e-07
5.22747e-07
5.22806e-07
5.22777e-07
5.22717e-07
5.22769e-07
6.13596e-07
6.1283e-07
5.22744e-07
5.22746e-07
5.22736e-07
6.12809e-07
6.136e-07
6.12831e-07
5.22788e-07
5.22808e-07
5.22783e-07
5.22804e-07
6.13563e-07
6.12795e-07
5.22753e-07
5.22811e-07
5.22748e-07
5.22807e-07
5.22776e-07
5.22718e-07
5.22769e-07
6.13597e-07
6.1283e-07
5.22743e-07
5.22747e-07
5.22736e-07
6.12808e-07
6.13599e-07
6.12831e-07
5.22793e-07
5.22815e-07
5.22785e-07
5.22806e-07
6.13564e-07
6.12795e-07
5.22758e-07
5.22817e-07
5.2275e-07
5.22808e-07
5.22778e-07
5.22719e-07
5.22768e-07
6.13597e-07
6.1283e-07
5.22745e-07
5.22747e-07
5.22735e-07
6.12809e-07
6.13599e-07
6.1283e-07
5.22795e-07
5.22817e-07
5.22786e-07
5.22808e-07
6.13564e-07
6.12796e-07
5.2276e-07
5.22819e-07
5.22751e-07
5.22809e-07
5.2278e-07
5.2272e-07
5.22771e-07
6.13595e-07
6.1283e-07
5.22746e-07
5.22748e-07
5.22737e-07
6.12809e-07
6.13598e-07
6.1283e-07
5.22798e-07
5.2282e-07
5.22785e-07
5.22807e-07
6.13565e-07
6.12795e-07
5.22763e-07
5.22821e-07
5.2275e-07
5.22808e-07
5.22783e-07
5.2272e-07
5.2277e-07
6.13595e-07
6.12828e-07
5.22749e-07
5.22747e-07
5.22736e-07
6.12808e-07
6.13597e-07
6.12828e-07
5.228e-07
5.22821e-07
5.22783e-07
5.22804e-07
6.13564e-07
6.12793e-07
5.22764e-07
5.22822e-07
5.22748e-07
5.22805e-07
5.22784e-07
5.22717e-07
5.22766e-07
6.13593e-07
6.12827e-07
5.22751e-07
5.22744e-07
5.22733e-07
6.12806e-07
6.13596e-07
6.12825e-07
5.228e-07
5.22821e-07
5.22776e-07
5.22797e-07
6.13562e-07
6.1279e-07
5.22765e-07
5.22822e-07
5.22741e-07
5.22799e-07
5.22783e-07
5.2271e-07
5.22759e-07
6.13591e-07
6.12822e-07
5.2275e-07
5.22737e-07
5.22726e-07
6.12802e-07
6.13591e-07
6.12818e-07
5.22797e-07
5.22818e-07
5.22764e-07
5.22785e-07
6.13558e-07
6.12784e-07
5.22762e-07
5.22819e-07
5.22729e-07
5.22786e-07
5.2278e-07
5.22698e-07
5.22746e-07
6.13586e-07
6.12816e-07
5.22746e-07
5.22724e-07
5.22713e-07
6.12795e-07
6.13583e-07
6.12808e-07
5.22789e-07
5.2281e-07
5.2274e-07
5.22759e-07
6.13549e-07
6.12774e-07
5.22754e-07
5.22811e-07
5.22706e-07
5.22762e-07
5.22772e-07
5.22673e-07
5.22722e-07
6.13579e-07
6.12808e-07
5.22738e-07
5.22699e-07
5.22686e-07
6.12784e-07
6.13564e-07
6.12714e-07
5.22769e-07
5.22786e-07
5.2259e-07
5.22604e-07
6.13532e-07
6.12681e-07
5.22734e-07
5.22789e-07
5.22552e-07
5.22607e-07
5.2275e-07
5.22523e-07
5.22572e-07
6.13561e-07
6.12716e-07
5.22714e-07
5.22545e-07
5.2253e-07
6.12696e-07
6.13431e-07
6.05916e-07
5.2274e-07
5.22755e-07
5.16709e-07
5.16723e-07
6.13401e-07
6.05895e-07
5.22702e-07
5.2276e-07
5.16687e-07
5.16712e-07
5.22725e-07
5.16666e-07
5.16687e-07
6.13429e-07
6.05909e-07
5.22681e-07
5.16672e-07
5.16662e-07
6.05881e-07
5.97892e-07
5.10824e-07
5.10836e-07
5.97878e-07
5.1081e-07
5.10825e-07
4.39237e-07
4.39235e-07
4.39229e-07
5.10802e-07
5.97887e-07
5.10786e-07
4.10072e-07
1.56648e-07
3.33458e-07
3.33401e-07
7.908e-10
3.0768e-08
1.86685e-08
2.39429e-07
1.1591e-09
3.34163e-08
2.40568e-07
3.23021e-08
1.1337e-08
1.98883e-08
1.14954e-07
6.49233e-09
2.26329e-07
4.51871e-09
3.40956e-07
1.63654e-06
3.21265e-06
7.25553e-09
1.85614e-07
5.18221e-09
2.79908e-07
2.41582e-07
2.4205e-07
2.40963e-07
2.44042e-07
2.44332e-07
2.44767e-07
2.43443e-07
8.66775e-10
1.10909e-07
1.25527e-07
3.64749e-08
8.13726e-10
8.5425e-08
1.26033e-07
1.59704e-06
3.12648e-06
1.18095e-09
1.29342e-07
1.09343e-07
4.19278e-08
1.15277e-09
1.2926e-07
8.87621e-08
2.22257e-07
2.89276e-07
1.18683e-08
1.84544e-07
2.60131e-07
1.65137e-08
6.28742e-07
1.04494e-08
8.63077e-07
7.22954e-06
1.02726e-05
1.60549e-08
5.0786e-07
1.14905e-08
7.33422e-07
2.46716e-07
2.47161e-07
2.45824e-07
2.53916e-07
2.54064e-07
2.54497e-07
2.53286e-07