/*--------------------------------*- C++ -*----------------------------------*\
| =========                 |                                                 |
| \\      /  F ield         | OpenFOAM: The Open Source CFD Toolbox           |
|  \\    /   O peration     | Version:  v2012                                 |
|   \\  /    A nd           | Website:  www.openfoam.com                      |
|    \\/     M anipulation  |                                                 |
\*---------------------------------------------------------------------------*/
FoamFile
{
    version     2.0;
    format      ascii;
    class       volScalarField;
    location    "62.5";
    object      k;
}
// * * * * * * * * * * * * * * * * * * * * * * * * * * * * * * * * * * * * * //

dimensions      [0 2 -2 0 0 0 0];


internalField   nonuniform List<scalar> 
171728
(
1.36606e-05
2.20945e-06
2.36078e-06
5.18173e-07
1.39697e-05
2.58328e-06
2.7694e-06
6.31997e-07
1.45191e-05
3.16838e-06
3.40212e-06
9.34259e-07
1.50497e-05
3.96399e-06
4.17935e-06
1.41634e-06
1.5574e-05
4.91996e-06
5.10505e-06
2.00185e-06
1.60868e-05
6.02435e-06
6.18755e-06
2.75534e-06
1.65888e-05
7.3305e-06
7.50184e-06
3.79617e-06
1.71536e-05
8.88979e-06
9.0226e-06
5.18263e-06
1.78529e-05
1.07093e-05
1.07818e-05
7.00173e-06
1.8664e-05
1.26706e-05
1.27128e-05
9.2516e-06
1.97232e-05
1.49353e-05
1.49574e-05
1.19786e-05
2.0929e-05
1.73591e-05
1.738e-05
1.52079e-05
2.22799e-05
2.01271e-05
2.01367e-05
1.90064e-05
2.32871e-05
2.25057e-05
2.25078e-05
2.25277e-05
2.41924e-05
2.47366e-05
2.47373e-05
2.56129e-05
2.47728e-05
2.60431e-05
2.60436e-05
2.73346e-05
2.49575e-05
2.63891e-05
2.63896e-05
2.7703e-05
2.49908e-05
2.64405e-05
2.6441e-05
2.77445e-05
2.49957e-05
2.64476e-05
2.64481e-05
2.77521e-05
2.49967e-05
2.6449e-05
2.64495e-05
2.77522e-05
2.49972e-05
2.64494e-05
2.64499e-05
2.77526e-05
2.49976e-05
2.64498e-05
2.64503e-05
2.7753e-05
2.49979e-05
2.64501e-05
2.64507e-05
2.7753e-05
2.49982e-05
2.64505e-05
2.64509e-05
2.77531e-05
2.49984e-05
2.64505e-05
2.64509e-05
2.77533e-05
2.49983e-05
2.64505e-05
2.6451e-05
2.77532e-05
2.49984e-05
2.64506e-05
2.6451e-05
2.77533e-05
2.49985e-05
2.64505e-05
2.6451e-05
2.77534e-05
2.49984e-05
2.64505e-05
2.64509e-05
2.77534e-05
2.49984e-05
2.64505e-05
2.64509e-05
2.77534e-05
2.49984e-05
2.64505e-05
2.64508e-05
2.77535e-05
2.49985e-05
2.64505e-05
2.64508e-05
2.77535e-05
2.49984e-05
2.64506e-05
2.64508e-05
2.77534e-05
2.49983e-05
2.64505e-05
2.64508e-05
2.77535e-05
2.49983e-05
2.64506e-05
2.64508e-05
2.77535e-05
2.49984e-05
2.64505e-05
2.64508e-05
2.77535e-05
2.49984e-05
2.64504e-05
2.64509e-05
2.77535e-05
2.49983e-05
2.64505e-05
2.64509e-05
2.77534e-05
2.49985e-05
2.64505e-05
2.64508e-05
2.77534e-05
2.49984e-05
2.64505e-05
2.64508e-05
2.77534e-05
2.49984e-05
2.64504e-05
2.64509e-05
2.77535e-05
2.49983e-05
2.64504e-05
2.64509e-05
2.77535e-05
2.49983e-05
2.64504e-05
2.64509e-05
2.77534e-05
2.49984e-05
2.64504e-05
2.6451e-05
2.77534e-05
2.49984e-05
2.64505e-05
2.64509e-05
2.77535e-05
2.49983e-05
2.64505e-05
2.64508e-05
2.77535e-05
2.49984e-05
2.64505e-05
2.64509e-05
2.77534e-05
2.49985e-05
2.64506e-05
2.64509e-05
2.77534e-05
2.49985e-05
2.64506e-05
2.64509e-05
2.77534e-05
2.49984e-05
2.64505e-05
2.64509e-05
2.77535e-05
2.49983e-05
2.64506e-05
2.64508e-05
2.77534e-05
2.49984e-05
2.64506e-05
2.64509e-05
2.77534e-05
2.49983e-05
2.64505e-05
2.6451e-05
2.77535e-05
2.49983e-05
2.64505e-05
2.6451e-05
2.77535e-05
2.49984e-05
2.64505e-05
2.64509e-05
2.77535e-05
2.49984e-05
2.64505e-05
2.64509e-05
2.77534e-05
2.49984e-05
2.64506e-05
2.64509e-05
2.77533e-05
2.49985e-05
2.64506e-05
2.64509e-05
2.77534e-05
2.49984e-05
2.64506e-05
2.64509e-05
2.77534e-05
2.49984e-05
2.64505e-05
2.6451e-05
2.77533e-05
2.49984e-05
2.64506e-05
2.64509e-05
2.77533e-05
2.49985e-05
2.64506e-05
2.64509e-05
2.77534e-05
2.49985e-05
2.64505e-05
2.64508e-05
2.77534e-05
2.49984e-05
2.64505e-05
2.64508e-05
2.77534e-05
2.49983e-05
2.64505e-05
2.64508e-05
2.77535e-05
2.49983e-05
2.64505e-05
2.64508e-05
2.77535e-05
2.49984e-05
2.64505e-05
2.64509e-05
2.77534e-05
2.49984e-05
2.64506e-05
2.64509e-05
2.77533e-05
2.49985e-05
2.64506e-05
2.64509e-05
2.77534e-05
2.49985e-05
2.64505e-05
2.64509e-05
2.77535e-05
2.49984e-05
2.64505e-05
2.64509e-05
2.77535e-05
2.49984e-05
2.64505e-05
2.64509e-05
2.77533e-05
2.49985e-05
2.64505e-05
2.64509e-05
2.77533e-05
2.49984e-05
2.64505e-05
2.64509e-05
2.77534e-05
2.49983e-05
2.64506e-05
2.64508e-05
2.77535e-05
2.49984e-05
2.64506e-05
2.64509e-05
2.77534e-05
2.49984e-05
2.64506e-05
2.64508e-05
2.77533e-05
2.49983e-05
2.64506e-05
2.64508e-05
2.77534e-05
2.49983e-05
2.64506e-05
2.64509e-05
2.77535e-05
2.49984e-05
2.64506e-05
2.64509e-05
2.77535e-05
2.49984e-05
2.64506e-05
2.64509e-05
2.77533e-05
2.49984e-05
2.64507e-05
2.6451e-05
2.77534e-05
2.49984e-05
2.64508e-05
2.64511e-05
2.77534e-05
2.49986e-05
2.64508e-05
2.64511e-05
2.77535e-05
2.49987e-05
2.64508e-05
2.64512e-05
2.77535e-05
2.49986e-05
2.64508e-05
2.64512e-05
2.77534e-05
2.49986e-05
2.64509e-05
2.64512e-05
2.77535e-05
2.49987e-05
2.6451e-05
2.64513e-05
2.77535e-05
2.49987e-05
2.64511e-05
2.64514e-05
2.77536e-05
2.49988e-05
2.64512e-05
2.64515e-05
2.77536e-05
2.49989e-05
2.64514e-05
2.64517e-05
2.77537e-05
2.4999e-05
2.64516e-05
2.64519e-05
2.77538e-05
2.49991e-05
2.64519e-05
2.64522e-05
2.77538e-05
2.49989e-05
2.64508e-05
2.6451e-05
2.7752e-05
2.49661e-05
2.62221e-05
2.62219e-05
2.7533e-05
6.65825e-07
1.8526e-06
1.7981e-06
5.60021e-07
1.89461e-06
1.80611e-06
1.37866e-05
1.37965e-05
1.38139e-05
1.37806e-05
1.80849e-06
1.85155e-06
5.34156e-07
1.84763e-06
1.78727e-06
5.2083e-07
6.63367e-07
7.75333e-07
2.33579e-06
2.27674e-06
2.51517e-06
2.54827e-06
5.57053e-07
6.75798e-07
2.25984e-06
2.22727e-06
2.51722e-06
2.47664e-06
2.48167e-06
2.45918e-06
2.66783e-06
5.30737e-07
6.61492e-07
2.25441e-06
2.63409e-06
2.51905e-06
6.28005e-07
7.7905e-07
1.02212e-06
2.61806e-06
2.68766e-06
3.01635e-06
3.15662e-06
6.81315e-07
9.71865e-07
2.64672e-06
2.6049e-06
3.08455e-06
3.05296e-06
2.75153e-06
3.00645e-06
3.04991e-06
6.66752e-07
9.51315e-07
2.65293e-06
3.23405e-06
3.10704e-06
9.15566e-07
1.03669e-06
1.45986e-06
3.17614e-06
3.32562e-06
3.7442e-06
3.88928e-06
9.90968e-07
1.4471e-06
3.25011e-06
3.22165e-06
3.81754e-06
3.81303e-06
3.18015e-06
3.75077e-06
3.6886e-06
9.68345e-07
1.41824e-06
3.27288e-06
3.97331e-06
3.82466e-06
1.38737e-06
1.48526e-06
2.00964e-06
3.95425e-06
4.08555e-06
4.64439e-06
4.73943e-06
1.47482e-06
2.01578e-06
4.01723e-06
4.01846e-06
4.68407e-06
4.71315e-06
3.88124e-06
4.66689e-06
4.58323e-06
1.44514e-06
2.00918e-06
4.02289e-06
4.86189e-06
4.68905e-06
1.96889e-06
2.04051e-06
2.72143e-06
4.89444e-06
4.98246e-06
5.71091e-06
5.77791e-06
2.04826e-06
2.74347e-06
4.92928e-06
4.96771e-06
5.72413e-06
5.7624e-06
4.83936e-06
5.72935e-06
5.63685e-06
2.04179e-06
2.74084e-06
4.93442e-06
5.89411e-06
5.7257e-06
2.70284e-06
2.77145e-06
3.74012e-06
6.01326e-06
6.07591e-06
6.97729e-06
7.03139e-06
2.79373e-06
3.76047e-06
6.02125e-06
6.05463e-06
6.98152e-06
7.00617e-06
5.93794e-06
6.9795e-06
6.91196e-06
2.79209e-06
3.77632e-06
6.01268e-06
7.14892e-06
6.96088e-06
3.72302e-06
3.81454e-06
5.09794e-06
7.33483e-06
7.38148e-06
8.47915e-06
8.5147e-06
3.83405e-06
5.10667e-06
7.34459e-06
7.36277e-06
8.50741e-06
8.51109e-06
7.27467e-06
8.48817e-06
8.45057e-06
3.85201e-06
5.14668e-06
7.3227e-06
8.63262e-06
8.48728e-06
5.0754e-06
5.20341e-06
6.86092e-06
8.88078e-06
8.9099e-06
1.02184e-05
1.02207e-05
5.21101e-06
6.86055e-06
8.90754e-06
8.91036e-06
1.02197e-05
1.02261e-05
8.85975e-06
1.02227e-05
1.02011e-05
5.25209e-06
6.89597e-06
8.88969e-06
1.03154e-05
1.02182e-05
6.85894e-06
7.0022e-06
9.06602e-06
1.07039e-05
1.07044e-05
1.21553e-05
1.21638e-05
7.00194e-06
9.06566e-06
1.07087e-05
1.07136e-05
1.21723e-05
1.21672e-05
1.06877e-05
1.21633e-05
1.21489e-05
7.03596e-06
9.07991e-06
1.07071e-05
1.22067e-05
1.21638e-05
9.07065e-06
9.24642e-06
1.16621e-05
1.26648e-05
1.26756e-05
1.43467e-05
1.43527e-05
9.24651e-06
1.16661e-05
1.26757e-05
1.2672e-05
1.43429e-05
1.43461e-05
1.2661e-05
1.4351e-05
1.43422e-05
9.25891e-06
1.16673e-05
1.2672e-05
1.4378e-05
1.43483e-05
1.16654e-05
1.19801e-05
1.47591e-05
1.49335e-05
1.4936e-05
1.67189e-05
1.67145e-05
1.19812e-05
1.47451e-05
1.49297e-05
1.49338e-05
1.67201e-05
1.67249e-05
1.49269e-05
1.67186e-05
1.67082e-05
1.19832e-05
1.47711e-05
1.49331e-05
1.67399e-05
1.67149e-05
1.4739e-05
1.52293e-05
1.84367e-05
1.73607e-05
1.7356e-05
1.94393e-05
1.94364e-05
1.52153e-05
1.8431e-05
1.73628e-05
1.73676e-05
1.94415e-05
1.94449e-05
1.73505e-05
1.94394e-05
1.94335e-05
1.52442e-05
1.84498e-05
1.73568e-05
1.94523e-05
1.94373e-05
1.84277e-05
1.90152e-05
2.20296e-05
2.01277e-05
2.01256e-05
2.19408e-05
2.19403e-05
1.90108e-05
2.20288e-05
2.01295e-05
2.01321e-05
2.19418e-05
2.19424e-05
2.01234e-05
2.19416e-05
2.19395e-05
1.90266e-05
2.20323e-05
2.01263e-05
2.19447e-05
2.19406e-05
2.20283e-05
2.25297e-05
2.51703e-05
2.25057e-05
2.25055e-05
2.42195e-05
2.42196e-05
2.25291e-05
2.51702e-05
2.25064e-05
2.25068e-05
2.42194e-05
2.42199e-05
2.25049e-05
2.42198e-05
2.42194e-05
2.25317e-05
2.51711e-05
2.25057e-05
2.42206e-05
2.42194e-05
2.51706e-05
2.56135e-05
2.71611e-05
2.47371e-05
2.47373e-05
2.58342e-05
2.58344e-05
2.56133e-05
2.71607e-05
2.47369e-05
2.47374e-05
2.58339e-05
2.58344e-05
2.47371e-05
2.58339e-05
2.58344e-05
2.5614e-05
2.71612e-05
2.4737e-05
2.58345e-05
2.58342e-05
2.71614e-05
2.73347e-05
2.76723e-05
2.60439e-05
2.60441e-05
2.63513e-05
2.63513e-05
2.73342e-05
2.76716e-05
2.60436e-05
2.6044e-05
2.6351e-05
2.63512e-05
2.60442e-05
2.63506e-05
2.63516e-05
2.73345e-05
2.7672e-05
2.60439e-05
2.63511e-05
2.63514e-05
2.76728e-05
2.77028e-05
2.77318e-05
2.63902e-05
2.63902e-05
2.64366e-05
2.64364e-05
2.7702e-05
2.77309e-05
2.63898e-05
2.639e-05
2.64362e-05
2.64363e-05
2.63904e-05
2.64356e-05
2.64366e-05
2.77024e-05
2.77313e-05
2.63902e-05
2.64361e-05
2.64364e-05
2.77319e-05
2.77448e-05
2.7742e-05
2.64417e-05
2.64416e-05
2.6448e-05
2.64478e-05
2.77438e-05
2.7741e-05
2.64414e-05
2.64415e-05
2.64476e-05
2.64477e-05
2.64417e-05
2.64469e-05
2.64477e-05
2.77442e-05
2.77413e-05
2.64415e-05
2.64474e-05
2.64475e-05
2.77417e-05
2.77527e-05
2.77431e-05
2.64489e-05
2.64487e-05
2.645e-05
2.64498e-05
2.77517e-05
2.77422e-05
2.64485e-05
2.64485e-05
2.64496e-05
2.64496e-05
2.64485e-05
2.64488e-05
2.64493e-05
2.7752e-05
2.77425e-05
2.64483e-05
2.64493e-05
2.64491e-05
2.77421e-05
2.77534e-05
2.77436e-05
2.64502e-05
2.645e-05
2.64505e-05
2.64503e-05
2.77525e-05
2.77426e-05
2.64498e-05
2.64498e-05
2.64501e-05
2.64501e-05
2.64495e-05
2.64493e-05
2.64498e-05
2.77527e-05
2.77429e-05
2.64493e-05
2.64498e-05
2.64496e-05
2.77424e-05
2.77539e-05
2.77439e-05
2.64507e-05
2.64505e-05
2.6451e-05
2.64508e-05
2.77529e-05
2.7743e-05
2.64503e-05
2.64503e-05
2.64505e-05
2.64506e-05
2.645e-05
2.64497e-05
2.64503e-05
2.77532e-05
2.77432e-05
2.64497e-05
2.64502e-05
2.645e-05
2.77429e-05
2.77542e-05
2.77442e-05
2.64512e-05
2.6451e-05
2.64514e-05
2.64513e-05
2.77533e-05
2.77434e-05
2.64508e-05
2.64508e-05
2.6451e-05
2.64511e-05
2.64505e-05
2.64501e-05
2.64507e-05
2.77535e-05
2.77436e-05
2.64503e-05
2.64506e-05
2.64505e-05
2.77429e-05
2.77544e-05
2.77441e-05
2.64516e-05
2.64515e-05
2.64516e-05
2.64516e-05
2.77537e-05
2.77434e-05
2.64512e-05
2.64513e-05
2.64512e-05
2.64513e-05
2.64509e-05
2.64504e-05
2.64507e-05
2.77538e-05
2.77435e-05
2.64506e-05
2.64509e-05
2.64505e-05
2.7743e-05
2.77545e-05
2.77439e-05
2.64517e-05
2.64518e-05
2.64516e-05
2.64516e-05
2.77538e-05
2.77432e-05
2.64513e-05
2.64514e-05
2.64512e-05
2.64513e-05
2.64508e-05
2.64505e-05
2.64507e-05
2.77538e-05
2.77434e-05
2.64506e-05
2.64509e-05
2.64505e-05
2.7743e-05
2.77542e-05
2.77439e-05
2.64517e-05
2.64517e-05
2.64516e-05
2.64516e-05
2.77535e-05
2.77433e-05
2.64513e-05
2.64514e-05
2.64512e-05
2.64513e-05
2.64508e-05
2.64505e-05
2.64507e-05
2.77537e-05
2.77434e-05
2.64506e-05
2.6451e-05
2.64505e-05
2.77428e-05
2.77542e-05
2.77441e-05
2.64517e-05
2.64517e-05
2.64515e-05
2.64516e-05
2.77535e-05
2.77434e-05
2.64513e-05
2.64514e-05
2.64512e-05
2.64513e-05
2.64508e-05
2.64506e-05
2.64507e-05
2.77536e-05
2.77435e-05
2.64506e-05
2.6451e-05
2.64505e-05
2.77427e-05
2.77543e-05
2.7744e-05
2.64517e-05
2.64517e-05
2.64515e-05
2.64516e-05
2.77536e-05
2.77434e-05
2.64513e-05
2.64514e-05
2.64512e-05
2.64513e-05
2.64509e-05
2.64506e-05
2.64507e-05
2.77537e-05
2.77435e-05
2.64507e-05
2.6451e-05
2.64505e-05
2.77427e-05
2.77543e-05
2.7744e-05
2.64516e-05
2.64517e-05
2.64515e-05
2.64516e-05
2.77536e-05
2.77433e-05
2.64514e-05
2.64514e-05
2.64513e-05
2.64513e-05
2.64508e-05
2.64505e-05
2.64507e-05
2.77537e-05
2.77435e-05
2.64506e-05
2.64509e-05
2.64505e-05
2.77427e-05
2.77542e-05
2.7744e-05
2.64516e-05
2.64517e-05
2.64515e-05
2.64516e-05
2.77536e-05
2.77433e-05
2.64514e-05
2.64515e-05
2.64513e-05
2.64513e-05
2.64508e-05
2.64505e-05
2.64507e-05
2.77537e-05
2.77435e-05
2.64506e-05
2.64509e-05
2.64505e-05
2.77427e-05
2.77543e-05
2.7744e-05
2.64516e-05
2.64517e-05
2.64515e-05
2.64516e-05
2.77536e-05
2.77433e-05
2.64514e-05
2.64515e-05
2.64513e-05
2.64513e-05
2.64509e-05
2.64506e-05
2.64507e-05
2.77537e-05
2.77435e-05
2.64507e-05
2.64509e-05
2.64506e-05
2.77428e-05
2.77543e-05
2.7744e-05
2.64516e-05
2.64517e-05
2.64515e-05
2.64516e-05
2.77536e-05
2.77433e-05
2.64515e-05
2.64515e-05
2.64514e-05
2.64513e-05
2.64509e-05
2.64505e-05
2.64508e-05
2.77537e-05
2.77435e-05
2.64507e-05
2.64508e-05
2.64505e-05
2.77428e-05
2.77543e-05
2.77441e-05
2.64516e-05
2.64517e-05
2.64515e-05
2.64516e-05
2.77536e-05
2.77433e-05
2.64515e-05
2.64514e-05
2.64514e-05
2.64513e-05
2.64509e-05
2.64506e-05
2.64508e-05
2.77537e-05
2.77435e-05
2.64507e-05
2.64508e-05
2.64505e-05
2.77427e-05
2.77544e-05
2.77441e-05
2.64516e-05
2.64517e-05
2.64515e-05
2.64516e-05
2.77535e-05
2.77433e-05
2.64515e-05
2.64514e-05
2.64514e-05
2.64513e-05
2.64509e-05
2.64505e-05
2.64508e-05
2.77537e-05
2.77435e-05
2.64506e-05
2.64508e-05
2.64505e-05
2.77428e-05
2.77544e-05
2.7744e-05
2.64516e-05
2.64517e-05
2.64514e-05
2.64516e-05
2.77535e-05
2.77433e-05
2.64515e-05
2.64514e-05
2.64514e-05
2.64513e-05
2.64509e-05
2.64506e-05
2.64508e-05
2.77537e-05
2.77435e-05
2.64507e-05
2.64508e-05
2.64506e-05
2.77428e-05
2.77543e-05
2.7744e-05
2.64515e-05
2.64518e-05
2.64514e-05
2.64517e-05
2.77536e-05
2.77433e-05
2.64515e-05
2.64514e-05
2.64514e-05
2.64513e-05
2.64509e-05
2.64505e-05
2.64508e-05
2.77537e-05
2.77435e-05
2.64507e-05
2.64508e-05
2.64506e-05
2.77428e-05
2.77543e-05
2.7744e-05
2.64515e-05
2.64518e-05
2.64514e-05
2.64517e-05
2.77536e-05
2.77433e-05
2.64515e-05
2.64514e-05
2.64513e-05
2.64513e-05
2.64509e-05
2.64504e-05
2.64508e-05
2.77537e-05
2.77435e-05
2.64507e-05
2.64509e-05
2.64506e-05
2.77428e-05
2.77543e-05
2.7744e-05
2.64515e-05
2.64518e-05
2.64514e-05
2.64517e-05
2.77536e-05
2.77433e-05
2.64515e-05
2.64514e-05
2.64513e-05
2.64513e-05
2.64509e-05
2.64505e-05
2.64507e-05
2.77537e-05
2.77434e-05
2.64507e-05
2.64509e-05
2.64505e-05
2.77427e-05
2.77543e-05
2.7744e-05
2.64515e-05
2.64518e-05
2.64514e-05
2.64517e-05
2.77536e-05
2.77433e-05
2.64515e-05
2.64514e-05
2.64514e-05
2.64513e-05
2.64508e-05
2.64505e-05
2.64507e-05
2.77537e-05
2.77435e-05
2.64506e-05
2.64508e-05
2.64505e-05
2.77427e-05
2.77543e-05
2.7744e-05
2.64515e-05
2.64518e-05
2.64514e-05
2.64517e-05
2.77536e-05
2.77433e-05
2.64515e-05
2.64514e-05
2.64514e-05
2.64513e-05
2.64508e-05
2.64505e-05
2.64507e-05
2.77537e-05
2.77435e-05
2.64506e-05
2.64508e-05
2.64505e-05
2.77427e-05
2.77543e-05
2.77441e-05
2.64515e-05
2.64518e-05
2.64514e-05
2.64517e-05
2.77536e-05
2.77433e-05
2.64515e-05
2.64514e-05
2.64514e-05
2.64513e-05
2.64508e-05
2.64505e-05
2.64507e-05
2.77537e-05
2.77435e-05
2.64507e-05
2.64509e-05
2.64505e-05
2.77427e-05
2.77543e-05
2.77441e-05
2.64515e-05
2.64518e-05
2.64514e-05
2.64517e-05
2.77536e-05
2.77433e-05
2.64515e-05
2.64515e-05
2.64514e-05
2.64514e-05
2.64508e-05
2.64504e-05
2.64507e-05
2.77537e-05
2.77435e-05
2.64506e-05
2.64509e-05
2.64505e-05
2.77427e-05
2.77543e-05
2.7744e-05
2.64515e-05
2.64518e-05
2.64514e-05
2.64516e-05
2.77536e-05
2.77433e-05
2.64515e-05
2.64515e-05
2.64514e-05
2.64514e-05
2.64509e-05
2.64504e-05
2.64507e-05
2.77537e-05
2.77435e-05
2.64507e-05
2.64509e-05
2.64505e-05
2.77427e-05
2.77542e-05
2.7744e-05
2.64515e-05
2.64517e-05
2.64514e-05
2.64516e-05
2.77535e-05
2.77433e-05
2.64515e-05
2.64515e-05
2.64513e-05
2.64514e-05
2.64509e-05
2.64504e-05
2.64507e-05
2.77537e-05
2.77435e-05
2.64506e-05
2.6451e-05
2.64505e-05
2.77428e-05
2.77542e-05
2.7744e-05
2.64515e-05
2.64517e-05
2.64514e-05
2.64516e-05
2.77535e-05
2.77433e-05
2.64514e-05
2.64515e-05
2.64513e-05
2.64514e-05
2.64508e-05
2.64505e-05
2.64507e-05
2.77537e-05
2.77435e-05
2.64506e-05
2.64509e-05
2.64505e-05
2.77428e-05
2.77543e-05
2.7744e-05
2.64516e-05
2.64517e-05
2.64515e-05
2.64516e-05
2.77535e-05
2.77433e-05
2.64514e-05
2.64515e-05
2.64513e-05
2.64514e-05
2.64508e-05
2.64505e-05
2.64507e-05
2.77537e-05
2.77435e-05
2.64506e-05
2.64508e-05
2.64505e-05
2.77427e-05
2.77543e-05
2.77441e-05
2.64516e-05
2.64517e-05
2.64515e-05
2.64516e-05
2.77536e-05
2.77433e-05
2.64514e-05
2.64515e-05
2.64513e-05
2.64513e-05
2.64508e-05
2.64505e-05
2.64507e-05
2.77537e-05
2.77435e-05
2.64506e-05
2.64509e-05
2.64505e-05
2.77427e-05
2.77543e-05
2.77441e-05
2.64517e-05
2.64517e-05
2.64516e-05
2.64516e-05
2.77536e-05
2.77434e-05
2.64515e-05
2.64514e-05
2.64514e-05
2.64513e-05
2.64508e-05
2.64506e-05
2.64507e-05
2.77537e-05
2.77435e-05
2.64506e-05
2.6451e-05
2.64504e-05
2.77426e-05
2.77543e-05
2.77441e-05
2.64517e-05
2.64518e-05
2.64516e-05
2.64516e-05
2.77536e-05
2.77434e-05
2.64515e-05
2.64514e-05
2.64514e-05
2.64513e-05
2.64508e-05
2.64506e-05
2.64507e-05
2.77537e-05
2.77435e-05
2.64506e-05
2.64509e-05
2.64505e-05
2.77427e-05
2.77543e-05
2.77442e-05
2.64517e-05
2.64518e-05
2.64516e-05
2.64516e-05
2.77537e-05
2.77434e-05
2.64515e-05
2.64514e-05
2.64514e-05
2.64513e-05
2.64509e-05
2.64505e-05
2.64507e-05
2.77537e-05
2.77435e-05
2.64506e-05
2.64509e-05
2.64505e-05
2.77428e-05
2.77544e-05
2.77442e-05
2.64517e-05
2.64518e-05
2.64516e-05
2.64516e-05
2.77537e-05
2.77435e-05
2.64515e-05
2.64515e-05
2.64514e-05
2.64513e-05
2.64508e-05
2.64506e-05
2.64507e-05
2.77537e-05
2.77435e-05
2.64506e-05
2.64509e-05
2.64505e-05
2.77427e-05
2.77544e-05
2.77442e-05
2.64518e-05
2.64517e-05
2.64517e-05
2.64516e-05
2.77537e-05
2.77435e-05
2.64515e-05
2.64515e-05
2.64513e-05
2.64513e-05
2.64508e-05
2.64506e-05
2.64507e-05
2.77537e-05
2.77435e-05
2.64507e-05
2.64509e-05
2.64505e-05
2.77427e-05
2.77544e-05
2.77442e-05
2.64518e-05
2.64518e-05
2.64517e-05
2.64517e-05
2.77537e-05
2.77435e-05
2.64514e-05
2.64514e-05
2.64513e-05
2.64513e-05
2.64508e-05
2.64505e-05
2.64507e-05
2.77537e-05
2.77435e-05
2.64506e-05
2.6451e-05
2.64505e-05
2.77428e-05
2.77544e-05
2.77441e-05
2.64518e-05
2.64518e-05
2.64517e-05
2.64517e-05
2.77537e-05
2.77435e-05
2.64514e-05
2.64514e-05
2.64513e-05
2.64513e-05
2.64509e-05
2.64505e-05
2.64508e-05
2.77537e-05
2.77435e-05
2.64506e-05
2.6451e-05
2.64505e-05
2.77428e-05
2.77544e-05
2.77441e-05
2.64518e-05
2.64518e-05
2.64517e-05
2.64517e-05
2.77537e-05
2.77435e-05
2.64514e-05
2.64514e-05
2.64513e-05
2.64513e-05
2.64509e-05
2.64505e-05
2.64507e-05
2.77537e-05
2.77435e-05
2.64506e-05
2.64509e-05
2.64505e-05
2.77428e-05
2.77544e-05
2.77442e-05
2.64518e-05
2.64518e-05
2.64517e-05
2.64517e-05
2.77537e-05
2.77435e-05
2.64514e-05
2.64514e-05
2.64513e-05
2.64513e-05
2.64508e-05
2.64505e-05
2.64507e-05
2.77537e-05
2.77435e-05
2.64506e-05
2.64509e-05
2.64504e-05
2.77427e-05
2.77544e-05
2.77442e-05
2.64518e-05
2.64518e-05
2.64517e-05
2.64517e-05
2.77537e-05
2.77435e-05
2.64514e-05
2.64514e-05
2.64513e-05
2.64513e-05
2.64508e-05
2.64506e-05
2.64506e-05
2.77537e-05
2.77435e-05
2.64505e-05
2.64509e-05
2.64503e-05
2.77426e-05
2.77544e-05
2.77442e-05
2.64518e-05
2.64518e-05
2.64517e-05
2.64517e-05
2.77537e-05
2.77435e-05
2.64514e-05
2.64515e-05
2.64513e-05
2.64513e-05
2.64507e-05
2.64506e-05
2.64506e-05
2.77537e-05
2.77435e-05
2.64504e-05
2.64509e-05
2.64503e-05
2.77426e-05
2.77544e-05
2.77442e-05
2.64518e-05
2.64518e-05
2.64517e-05
2.64517e-05
2.77538e-05
2.77435e-05
2.64514e-05
2.64514e-05
2.64513e-05
2.64513e-05
2.64508e-05
2.64506e-05
2.64506e-05
2.77537e-05
2.77435e-05
2.64504e-05
2.64509e-05
2.64503e-05
2.77427e-05
2.77544e-05
2.77442e-05
2.64518e-05
2.64518e-05
2.64517e-05
2.64517e-05
2.77537e-05
2.77435e-05
2.64514e-05
2.64514e-05
2.64513e-05
2.64513e-05
2.64508e-05
2.64505e-05
2.64507e-05
2.77537e-05
2.77435e-05
2.64504e-05
2.6451e-05
2.64503e-05
2.77426e-05
2.77544e-05
2.77442e-05
2.64518e-05
2.64518e-05
2.64517e-05
2.64517e-05
2.77537e-05
2.77435e-05
2.64514e-05
2.64514e-05
2.64513e-05
2.64513e-05
2.64508e-05
2.64506e-05
2.64507e-05
2.77537e-05
2.77435e-05
2.64505e-05
2.6451e-05
2.64504e-05
2.77426e-05
2.77544e-05
2.77442e-05
2.64518e-05
2.64518e-05
2.64517e-05
2.64517e-05
2.77537e-05
2.77435e-05
2.64514e-05
2.64514e-05
2.64513e-05
2.64513e-05
2.64508e-05
2.64506e-05
2.64507e-05
2.77537e-05
2.77435e-05
2.64505e-05
2.64509e-05
2.64504e-05
2.77427e-05
2.77544e-05
2.77442e-05
2.64518e-05
2.64518e-05
2.64517e-05
2.64517e-05
2.77537e-05
2.77435e-05
2.64514e-05
2.64514e-05
2.64513e-05
2.64513e-05
2.64508e-05
2.64505e-05
2.64506e-05
2.77537e-05
2.77434e-05
2.64505e-05
2.64509e-05
2.64504e-05
2.77426e-05
2.77544e-05
2.77442e-05
2.64518e-05
2.64518e-05
2.64517e-05
2.64517e-05
2.77537e-05
2.77435e-05
2.64514e-05
2.64514e-05
2.64512e-05
2.64513e-05
2.64508e-05
2.64505e-05
2.64507e-05
2.77536e-05
2.77435e-05
2.64505e-05
2.64509e-05
2.64504e-05
2.77426e-05
2.77544e-05
2.77442e-05
2.64518e-05
2.64518e-05
2.64517e-05
2.64517e-05
2.77537e-05
2.77435e-05
2.64513e-05
2.64514e-05
2.64512e-05
2.64513e-05
2.64509e-05
2.64505e-05
2.64507e-05
2.77537e-05
2.77435e-05
2.64505e-05
2.64509e-05
2.64504e-05
2.77428e-05
2.77544e-05
2.77442e-05
2.64518e-05
2.64518e-05
2.64517e-05
2.64517e-05
2.77537e-05
2.77435e-05
2.64513e-05
2.64515e-05
2.64512e-05
2.64513e-05
2.64508e-05
2.64505e-05
2.64507e-05
2.77537e-05
2.77435e-05
2.64505e-05
2.64508e-05
2.64504e-05
2.77427e-05
2.77544e-05
2.77442e-05
2.64518e-05
2.64518e-05
2.64517e-05
2.64517e-05
2.77537e-05
2.77435e-05
2.64513e-05
2.64514e-05
2.64512e-05
2.64513e-05
2.64508e-05
2.64505e-05
2.64507e-05
2.77537e-05
2.77435e-05
2.64505e-05
2.64509e-05
2.64504e-05
2.77426e-05
2.77544e-05
2.77441e-05
2.64518e-05
2.64518e-05
2.64517e-05
2.64517e-05
2.77537e-05
2.77435e-05
2.64513e-05
2.64514e-05
2.64512e-05
2.64513e-05
2.64508e-05
2.64506e-05
2.64507e-05
2.77537e-05
2.77435e-05
2.64505e-05
2.6451e-05
2.64504e-05
2.77426e-05
2.77543e-05
2.77441e-05
2.64518e-05
2.64518e-05
2.64517e-05
2.64517e-05
2.77537e-05
2.77435e-05
2.64513e-05
2.64514e-05
2.64512e-05
2.64513e-05
2.64508e-05
2.64506e-05
2.64507e-05
2.77537e-05
2.77435e-05
2.64505e-05
2.64509e-05
2.64504e-05
2.77427e-05
2.77543e-05
2.77441e-05
2.64518e-05
2.64518e-05
2.64517e-05
2.64517e-05
2.77537e-05
2.77435e-05
2.64513e-05
2.64514e-05
2.64512e-05
2.64513e-05
2.64508e-05
2.64506e-05
2.64507e-05
2.77537e-05
2.77435e-05
2.64505e-05
2.64509e-05
2.64504e-05
2.77428e-05
2.77544e-05
2.77441e-05
2.64518e-05
2.64518e-05
2.64517e-05
2.64517e-05
2.77537e-05
2.77435e-05
2.64513e-05
2.64514e-05
2.64512e-05
2.64513e-05
2.64508e-05
2.64505e-05
2.64507e-05
2.77537e-05
2.77435e-05
2.64505e-05
2.6451e-05
2.64504e-05
2.77427e-05
2.77544e-05
2.77442e-05
2.64518e-05
2.64518e-05
2.64517e-05
2.64517e-05
2.77537e-05
2.77435e-05
2.64513e-05
2.64514e-05
2.64512e-05
2.64513e-05
2.64508e-05
2.64505e-05
2.64507e-05
2.77537e-05
2.77435e-05
2.64505e-05
2.64509e-05
2.64504e-05
2.77426e-05
2.77544e-05
2.77442e-05
2.64518e-05
2.64518e-05
2.64517e-05
2.64517e-05
2.77537e-05
2.77435e-05
2.64513e-05
2.64514e-05
2.64512e-05
2.64513e-05
2.64508e-05
2.64505e-05
2.64507e-05
2.77537e-05
2.77435e-05
2.64505e-05
2.64509e-05
2.64503e-05
2.77426e-05
2.77544e-05
2.77442e-05
2.64518e-05
2.64518e-05
2.64517e-05
2.64517e-05
2.77537e-05
2.77435e-05
2.64514e-05
2.64514e-05
2.64513e-05
2.64513e-05
2.64508e-05
2.64505e-05
2.64507e-05
2.77537e-05
2.77435e-05
2.64505e-05
2.64509e-05
2.64504e-05
2.77427e-05
2.77544e-05
2.77442e-05
2.64518e-05
2.64518e-05
2.64517e-05
2.64517e-05
2.77537e-05
2.77435e-05
2.64514e-05
2.64515e-05
2.64512e-05
2.64513e-05
2.64509e-05
2.64506e-05
2.64507e-05
2.77537e-05
2.77435e-05
2.64505e-05
2.64508e-05
2.64504e-05
2.77427e-05
2.77544e-05
2.77442e-05
2.64518e-05
2.64518e-05
2.64517e-05
2.64517e-05
2.77537e-05
2.77435e-05
2.64513e-05
2.64515e-05
2.64512e-05
2.64513e-05
2.64508e-05
2.64507e-05
2.64507e-05
2.77537e-05
2.77435e-05
2.64505e-05
2.64509e-05
2.64504e-05
2.77426e-05
2.77544e-05
2.77442e-05
2.64518e-05
2.64518e-05
2.64517e-05
2.64517e-05
2.77537e-05
2.77435e-05
2.64513e-05
2.64514e-05
2.64512e-05
2.64513e-05
2.64508e-05
2.64506e-05
2.64507e-05
2.77537e-05
2.77435e-05
2.64505e-05
2.64509e-05
2.64504e-05
2.77426e-05
2.77544e-05
2.77441e-05
2.64518e-05
2.64518e-05
2.64517e-05
2.64517e-05
2.77538e-05
2.77435e-05
2.64513e-05
2.64514e-05
2.64512e-05
2.64513e-05
2.64508e-05
2.64506e-05
2.64508e-05
2.77537e-05
2.77435e-05
2.64506e-05
2.64508e-05
2.64505e-05
2.77427e-05
2.77544e-05
2.77441e-05
2.64518e-05
2.64518e-05
2.64517e-05
2.64517e-05
2.77538e-05
2.77435e-05
2.64513e-05
2.64514e-05
2.64512e-05
2.64513e-05
2.64509e-05
2.64506e-05
2.64508e-05
2.77537e-05
2.77435e-05
2.64506e-05
2.64509e-05
2.64504e-05
2.77428e-05
2.77543e-05
2.77441e-05
2.64518e-05
2.64518e-05
2.64516e-05
2.64517e-05
2.77537e-05
2.77435e-05
2.64513e-05
2.64514e-05
2.64512e-05
2.64513e-05
2.64509e-05
2.64507e-05
2.64507e-05
2.77537e-05
2.77435e-05
2.64506e-05
2.64509e-05
2.64504e-05
2.77427e-05
2.77543e-05
2.77441e-05
2.64518e-05
2.64518e-05
2.64516e-05
2.64517e-05
2.77538e-05
2.77435e-05
2.64513e-05
2.64514e-05
2.64512e-05
2.64513e-05
2.64509e-05
2.64506e-05
2.64507e-05
2.77537e-05
2.77435e-05
2.64506e-05
2.64509e-05
2.64504e-05
2.77426e-05
2.77544e-05
2.77441e-05
2.64518e-05
2.64518e-05
2.64516e-05
2.64517e-05
2.77538e-05
2.77435e-05
2.64513e-05
2.64514e-05
2.64512e-05
2.64513e-05
2.64508e-05
2.64507e-05
2.64506e-05
2.77537e-05
2.77435e-05
2.64505e-05
2.6451e-05
2.64504e-05
2.77427e-05
2.77544e-05
2.77441e-05
2.64518e-05
2.64518e-05
2.64517e-05
2.64517e-05
2.77538e-05
2.77435e-05
2.64513e-05
2.64515e-05
2.64512e-05
2.64513e-05
2.64508e-05
2.64507e-05
2.64507e-05
2.77537e-05
2.77435e-05
2.64505e-05
2.64511e-05
2.64504e-05
2.77427e-05
2.77544e-05
2.77442e-05
2.64519e-05
2.64519e-05
2.64518e-05
2.64516e-05
2.77537e-05
2.77435e-05
2.64514e-05
2.64515e-05
2.64513e-05
2.64514e-05
2.64509e-05
2.64507e-05
2.64508e-05
2.77537e-05
2.77435e-05
2.64506e-05
2.64511e-05
2.64505e-05
2.77428e-05
2.77544e-05
2.77442e-05
2.6452e-05
2.64519e-05
2.64517e-05
2.64517e-05
2.77537e-05
2.77435e-05
2.64515e-05
2.64516e-05
2.64512e-05
2.64513e-05
2.6451e-05
2.64507e-05
2.64508e-05
2.77537e-05
2.77436e-05
2.64507e-05
2.64511e-05
2.64504e-05
2.77427e-05
2.77544e-05
2.77442e-05
2.64519e-05
2.64519e-05
2.64518e-05
2.64518e-05
2.77537e-05
2.77435e-05
2.64515e-05
2.64515e-05
2.64513e-05
2.64514e-05
2.6451e-05
2.64507e-05
2.64508e-05
2.77538e-05
2.77435e-05
2.64506e-05
2.64511e-05
2.64505e-05
2.77427e-05
2.77544e-05
2.77441e-05
2.64521e-05
2.64521e-05
2.64518e-05
2.64518e-05
2.77538e-05
2.77436e-05
2.64516e-05
2.64517e-05
2.64513e-05
2.64514e-05
2.64511e-05
2.64507e-05
2.64509e-05
2.77537e-05
2.77435e-05
2.64508e-05
2.64511e-05
2.64505e-05
2.77428e-05
2.77544e-05
2.77441e-05
2.64521e-05
2.64522e-05
2.64518e-05
2.64519e-05
2.77538e-05
2.77436e-05
2.64517e-05
2.64517e-05
2.64514e-05
2.64514e-05
2.64512e-05
2.64508e-05
2.64509e-05
2.77537e-05
2.77436e-05
2.64508e-05
2.64511e-05
2.64505e-05
2.77428e-05
2.77544e-05
2.77442e-05
2.64522e-05
2.64523e-05
2.64518e-05
2.64519e-05
2.77538e-05
2.77436e-05
2.64517e-05
2.64518e-05
2.64514e-05
2.64514e-05
2.64513e-05
2.64508e-05
2.64509e-05
2.77537e-05
2.77436e-05
2.64509e-05
2.64511e-05
2.64505e-05
2.77428e-05
2.77544e-05
2.77442e-05
2.64523e-05
2.64524e-05
2.64519e-05
2.64519e-05
2.77539e-05
2.77436e-05
2.64519e-05
2.64519e-05
2.64514e-05
2.64515e-05
2.64513e-05
2.64508e-05
2.64509e-05
2.77538e-05
2.77436e-05
2.6451e-05
2.64511e-05
2.64505e-05
2.77428e-05
2.77545e-05
2.77443e-05
2.64525e-05
2.64525e-05
2.64519e-05
2.64519e-05
2.77539e-05
2.77437e-05
2.6452e-05
2.64521e-05
2.64514e-05
2.64515e-05
2.64515e-05
2.64508e-05
2.64509e-05
2.77538e-05
2.77437e-05
2.64511e-05
2.64511e-05
2.64505e-05
2.77429e-05
2.77546e-05
2.77445e-05
2.64526e-05
2.64526e-05
2.64519e-05
2.6452e-05
2.7754e-05
2.77439e-05
2.64522e-05
2.64522e-05
2.64515e-05
2.64515e-05
2.64516e-05
2.64509e-05
2.64509e-05
2.77539e-05
2.77438e-05
2.64512e-05
2.64512e-05
2.64505e-05
2.7743e-05
2.77547e-05
2.77447e-05
2.64529e-05
2.64529e-05
2.6452e-05
2.6452e-05
2.77541e-05
2.77441e-05
2.64524e-05
2.64525e-05
2.64516e-05
2.64516e-05
2.64519e-05
2.6451e-05
2.6451e-05
2.77541e-05
2.77441e-05
2.64515e-05
2.64512e-05
2.64506e-05
2.77432e-05
2.77548e-05
2.77438e-05
2.64532e-05
2.64532e-05
2.64501e-05
2.645e-05
2.77543e-05
2.77433e-05
2.64528e-05
2.64528e-05
2.64496e-05
2.64497e-05
2.64522e-05
2.64491e-05
2.64491e-05
2.77542e-05
2.77433e-05
2.64518e-05
2.64493e-05
2.64486e-05
2.77423e-05
2.7753e-05
2.76496e-05
2.64519e-05
2.64519e-05
2.63541e-05
2.63541e-05
2.77524e-05
2.76492e-05
2.64515e-05
2.64516e-05
2.63539e-05
2.63535e-05
2.64509e-05
2.63534e-05
2.6353e-05
2.77523e-05
2.7649e-05
2.64505e-05
2.63534e-05
2.63528e-05
2.76481e-05
2.75345e-05
2.62226e-05
2.62226e-05
2.75342e-05
2.62225e-05
2.6222e-05
2.49659e-05
2.49658e-05
2.49654e-05
2.62215e-05
2.75339e-05
2.62214e-05
2.34898e-05
9.08919e-06
1.86936e-05
1.86902e-05
6.66334e-08
1.89994e-06
9.54015e-07
1.3339e-05
8.73414e-08
1.93789e-06
1.33898e-05
9.77355e-07
5.10959e-07
3.6595e-07
1.95944e-06
2.68618e-07
6.14507e-06
2.10115e-07
7.95392e-06
1.4128e-05
2.17099e-05
2.81071e-07
5.3853e-06
2.21869e-07
6.97859e-06
1.36729e-05
1.36899e-05
1.36526e-05
1.38334e-05
1.38495e-05
1.38644e-05
1.38149e-05
7.22813e-08
1.1174e-06
7.31247e-06
2.23515e-06
6.99141e-08
1.0164e-06
7.38208e-06
1.39075e-05
2.13227e-05
8.80396e-08
7.3526e-06
1.15899e-06
2.39733e-06
8.85192e-08
7.38189e-06
1.13043e-06
1.87782e-06
2.60152e-06
5.50608e-07
1.82974e-06
2.53392e-06
4.71418e-07
1.19582e-05
3.58198e-07
1.4764e-05