/*--------------------------------*- C++ -*----------------------------------*\
| =========                 |                                                 |
| \\      /  F ield         | OpenFOAM: The Open Source CFD Toolbox           |
|  \\    /   O peration     | Version:  v2012                                 |
|   \\  /    A nd           | Website:  www.openfoam.com                      |
|    \\/     M anipulation  |                                                 |
\*---------------------------------------------------------------------------*/
FoamFile
{
    version     2.0;
    format      ascii;
    class       volScalarField;
    location    "62.5";
    object      nut;
}
// * * * * * * * * * * * * * * * * * * * * * * * * * * * * * * * * * * * * * //

dimensions      [0 2 -1 0 0 0 0];


internalField   nonuniform List<scalar> 
171728
(
6.96074e-05
1.22193e-05
1.21279e-05
2.11793e-06
7.12702e-05
1.42343e-05
1.44479e-05
2.7697e-06
7.40238e-05
1.7475e-05
1.79542e-05
4.64036e-06
7.66723e-05
2.19016e-05
2.21794e-05
7.48244e-06
7.92829e-05
2.69341e-05
2.70495e-05
1.04545e-05
8.17692e-05
3.25377e-05
3.26632e-05
1.4124e-05
8.43283e-05
3.9145e-05
3.9565e-05
1.95692e-05
8.72777e-05
4.6933e-05
4.73994e-05
2.68247e-05
9.09838e-05
5.59376e-05
5.62116e-05
3.61142e-05
9.53314e-05
6.54971e-05
6.56484e-05
4.68895e-05
0.000101023
7.63096e-05
7.63682e-05
5.93199e-05
0.00010759
8.67482e-05
8.68196e-05
7.26595e-05
0.000114422
9.75699e-05
9.76122e-05
8.56883e-05
0.000118918
0.000105326
0.000105334
9.49899e-05
0.000123367
0.000113424
0.000113424
0.000104816
0.000126341
0.000118675
0.000118673
0.000111158
0.000127309
0.000120188
0.000120185
0.000112775
0.000127483
0.000120419
0.000120416
0.00011294
0.000127507
0.000120451
0.000120449
0.000112976
0.000127511
0.000120456
0.000120454
0.000112975
0.000127512
0.000120456
0.000120454
0.000112976
0.000127513
0.000120456
0.000120454
0.000112978
0.000127513
0.000120459
0.000120457
0.000112978
0.000127515
0.000120461
0.00012046
0.000112979
0.000127517
0.000120461
0.000120459
0.000112979
0.000127517
0.000120462
0.00012046
0.000112979
0.000127516
0.000120462
0.00012046
0.000112979
0.000127517
0.000120462
0.000120459
0.000112979
0.000127517
0.000120461
0.000120459
0.00011298
0.000127516
0.000120461
0.000120459
0.00011298
0.000127517
0.000120462
0.000120459
0.00011298
0.000127518
0.000120462
0.000120459
0.00011298
0.000127517
0.000120462
0.000120459
0.00011298
0.000127517
0.000120462
0.000120459
0.00011298
0.000127517
0.000120462
0.000120459
0.00011298
0.000127518
0.000120461
0.000120459
0.00011298
0.000127517
0.000120461
0.000120459
0.00011298
0.000127517
0.000120461
0.000120459
0.00011298
0.000127518
0.000120461
0.000120459
0.00011298
0.000127518
0.000120461
0.000120459
0.00011298
0.000127517
0.000120461
0.000120459
0.00011298
0.000127516
0.000120461
0.000120459
0.00011298
0.000127516
0.000120461
0.000120459
0.00011298
0.000127516
0.000120462
0.000120459
0.00011298
0.000127516
0.000120462
0.000120459
0.00011298
0.000127516
0.000120462
0.000120458
0.00011298
0.000127517
0.000120462
0.000120459
0.00011298
0.000127518
0.000120463
0.000120459
0.000112979
0.000127518
0.000120462
0.000120459
0.00011298
0.000127517
0.000120462
0.000120459
0.00011298
0.000127517
0.000120463
0.000120459
0.00011298
0.000127517
0.000120462
0.000120459
0.00011298
0.000127517
0.000120462
0.00012046
0.00011298
0.000127516
0.000120462
0.000120459
0.00011298
0.000127517
0.000120462
0.000120459
0.00011298
0.000127517
0.000120462
0.000120459
0.00011298
0.000127517
0.000120462
0.000120459
0.000112979
0.000127517
0.000120463
0.000120459
0.000112979
0.000127517
0.000120462
0.000120459
0.00011298
0.000127517
0.000120462
0.000120459
0.000112979
0.000127517
0.000120463
0.000120459
0.000112979
0.000127518
0.000120462
0.000120459
0.00011298
0.000127518
0.000120462
0.000120459
0.000112979
0.000127517
0.000120462
0.000120459
0.000112979
0.000127516
0.000120462
0.000120459
0.00011298
0.000127516
0.000120462
0.000120459
0.00011298
0.000127517
0.000120462
0.000120459
0.000112979
0.000127517
0.000120462
0.000120459
0.000112979
0.000127517
0.000120462
0.000120459
0.00011298
0.000127517
0.000120462
0.000120459
0.00011298
0.000127517
0.000120462
0.000120459
0.00011298
0.000127517
0.000120462
0.000120459
0.000112979
0.000127518
0.000120462
0.000120459
0.000112979
0.000127517
0.000120462
0.000120459
0.00011298
0.000127516
0.000120463
0.000120459
0.00011298
0.000127518
0.000120463
0.000120459
0.00011298
0.000127517
0.000120462
0.000120459
0.000112979
0.000127517
0.000120462
0.000120459
0.00011298
0.000127516
0.000120463
0.000120459
0.00011298
0.000127517
0.000120463
0.000120459
0.00011298
0.000127517
0.000120462
0.000120459
0.000112979
0.000127517
0.000120462
0.000120459
0.00011298
0.000127517
0.000120463
0.000120459
0.00011298
0.000127517
0.000120463
0.000120459
0.00011298
0.000127518
0.000120462
0.000120459
0.00011298
0.000127517
0.000120462
0.000120459
0.00011298
0.000127516
0.000120462
0.000120459
0.00011298
0.000127516
0.000120462
0.000120459
0.00011298
0.000127516
0.000120463
0.00012046
0.000112981
0.000127516
0.000120464
0.000120461
0.000112981
0.000127516
0.000120467
0.000120463
0.000112983
0.000127517
0.000120471
0.000120467
0.000112986
0.000127518
0.000120478
0.000120475
0.00011299
0.000127519
0.000120474
0.00012047
0.000112999
0.000127714
0.000121152
0.00012115
0.000114117
2.89358e-06
1.0102e-05
9.51865e-06
2.36456e-06
1.04762e-05
1.00403e-05
7.01766e-05
7.02278e-05
7.02685e-05
7.01602e-05
1.00666e-05
9.19605e-06
2.21634e-06
9.66072e-06
9.88503e-06
2.13159e-06
2.8872e-06
3.59433e-06
1.26883e-05
1.18914e-05
1.37653e-05
1.34621e-05
2.34819e-06
3.04755e-06
1.25438e-05
1.24152e-05
1.40042e-05
1.38088e-05
1.16731e-05
1.35504e-05
1.31137e-05
2.19589e-06
2.94934e-06
1.21348e-05
1.36828e-05
1.3582e-05
2.73779e-06
3.62256e-06
5.11896e-06
1.43473e-05
1.42822e-05
1.6566e-05
1.6994e-05
3.08733e-06
4.87969e-06
1.47309e-05
1.4525e-05
1.71774e-05
1.70258e-05
1.38079e-05
1.65671e-05
1.61345e-05
2.98581e-06
4.67917e-06
1.43304e-05
1.70242e-05
1.68894e-05
4.51373e-06
5.21765e-06
7.75618e-06
1.74499e-05
1.79535e-05
2.05777e-05
2.10821e-05
5.01054e-06
7.69213e-06
1.80986e-05
1.79605e-05
2.12232e-05
2.12197e-05
1.70257e-05
2.07153e-05
2.01381e-05
4.79061e-06
7.3923e-06
1.78177e-05
2.10624e-05
2.08765e-05
7.3218e-06
7.89682e-06
1.05536e-05
2.17383e-05
2.21415e-05
2.54067e-05
2.56128e-05
7.84078e-06
1.05703e-05
2.2305e-05
2.23375e-05
2.5759e-05
2.5961e-05
2.12519e-05
2.56263e-05
2.50483e-05
7.53733e-06
1.04337e-05
2.19768e-05
2.579e-05
2.55676e-05
1.03162e-05
1.06775e-05
1.39729e-05
2.66916e-05
2.68962e-05
3.08612e-05
3.11184e-05
1.0707e-05
1.41216e-05
2.70016e-05
2.72612e-05
3.10143e-05
3.12721e-05
2.63803e-05
3.10393e-05
3.04365e-05
1.05745e-05
1.40143e-05
2.68405e-05
3.11247e-05
3.0912e-05
1.38653e-05
1.42181e-05
1.92957e-05
3.24129e-05
3.26844e-05
3.73324e-05
3.76172e-05
1.437e-05
1.94431e-05
3.25158e-05
3.27424e-05
3.73654e-05
3.75348e-05
3.19713e-05
3.73666e-05
3.69434e-05
1.42702e-05
1.94623e-05
3.23821e-05
3.77055e-05
3.72261e-05
1.91924e-05
1.96778e-05
2.63966e-05
3.91481e-05
3.94034e-05
4.4864e-05
4.50702e-05
1.98216e-05
2.64704e-05
3.92011e-05
3.93331e-05
4.50028e-05
4.505e-05
3.87915e-05
4.49201e-05
4.46941e-05
1.98576e-05
2.667e-05
3.90694e-05
4.54012e-05
4.48984e-05
2.62766e-05
2.69337e-05
3.54171e-05
4.68713e-05
4.70435e-05
5.34868e-05
5.35095e-05
2.70003e-05
3.54318e-05
4.70011e-05
4.70434e-05
5.34826e-05
5.35411e-05
4.6745e-05
5.35189e-05
5.33902e-05
2.72064e-05
3.56029e-05
4.69117e-05
5.38765e-05
5.34843e-05
3.54134e-05
3.61093e-05
4.6604e-05
5.58952e-05
5.59049e-05
6.29925e-05
6.30396e-05
3.6124e-05
4.66037e-05
5.59048e-05
5.59562e-05
6.30838e-05
6.30691e-05
5.5806e-05
6.30442e-05
6.29573e-05
3.62884e-05
4.66637e-05
5.59108e-05
6.31882e-05
6.30416e-05
4.66344e-05
4.68519e-05
5.86992e-05
6.54584e-05
6.55183e-05
7.35329e-05
7.35716e-05
4.68525e-05
5.87132e-05
6.55187e-05
6.5507e-05
7.34838e-05
7.3519e-05
6.54386e-05
7.35527e-05
7.3517e-05
4.68982e-05
5.86905e-05
6.54972e-05
7.36539e-05
7.35383e-05
5.87225e-05
5.93299e-05
7.1548e-05
7.62991e-05
7.63168e-05
8.40662e-05
8.40427e-05
5.93234e-05
7.14575e-05
7.62378e-05
7.62832e-05
8.40525e-05
8.40878e-05
7.62729e-05
8.40618e-05
8.40121e-05
5.93081e-05
7.1605e-05
7.62937e-05
8.41226e-05
8.40436e-05
7.14314e-05
7.27836e-05
8.44559e-05
8.67556e-05
8.67295e-05
9.50495e-05
9.50332e-05
7.26976e-05
8.44271e-05
8.67551e-05
8.6785e-05
9.50627e-05
9.50765e-05
8.67025e-05
9.50511e-05
9.50188e-05
7.28564e-05
8.45163e-05
8.67338e-05
9.51077e-05
9.50411e-05
8.44148e-05
8.57347e-05
9.3989e-05
9.75677e-05
9.75553e-05
0.000103488
0.000103483
8.57121e-05
9.39873e-05
9.758e-05
9.75882e-05
0.000103497
0.000103493
9.75446e-05
0.000103496
0.00010348
8.57885e-05
9.39995e-05
9.75629e-05
0.000103509
0.00010349
9.39846e-05
9.50019e-05
0.000103586
0.000105319
0.000105315
0.000111438
0.000111436
9.50007e-05
0.000103589
0.000105326
0.00010532
0.000111445
0.000111436
0.000105313
0.000111449
0.000111437
9.5009e-05
0.000103587
0.000105322
0.000111449
0.000111444
0.000103586
0.000104822
0.000110602
0.000113415
0.000113413
0.000117781
0.000117778
0.000104825
0.000110604
0.000113421
0.000113411
0.000117786
0.000117776
0.000113415
0.000117791
0.000117782
0.000104822
0.0001106
0.000113421
0.000117789
0.000117788
0.000110601
0.000111162
0.000112764
0.000118666
0.000118664
0.000120007
0.000120004
0.000111163
0.000112765
0.000118671
0.00011866
0.000120012
0.000120001
0.000118667
0.000120016
0.000120009
0.000111158
0.00011276
0.000118674
0.000120014
0.000120015
0.000112763
0.000112776
0.00011299
0.00012018
0.000120177
0.000120388
0.000120385
0.000112777
0.000112991
0.000120185
0.000120173
0.000120393
0.000120382
0.000120182
0.000120396
0.000120389
0.000112773
0.000112985
0.000120188
0.000120394
0.000120396
0.000112988
0.000112944
0.000113034
0.000120411
0.000120409
0.00012044
0.000120438
0.000112945
0.000113035
0.000120416
0.000120405
0.000120445
0.000120433
0.000120412
0.000120448
0.00012044
0.00011294
0.000113029
0.000120418
0.000120446
0.000120446
0.000113031
0.000112979
0.00011304
0.000120444
0.000120441
0.000120448
0.000120446
0.00011298
0.000113041
0.000120449
0.000120437
0.000120453
0.000120441
0.000120443
0.000120456
0.000120446
0.000112974
0.000113035
0.00012045
0.000120454
0.000120453
0.000113034
0.000112981
0.00011304
0.000120448
0.000120446
0.000120448
0.000120446
0.000112982
0.000113041
0.000120453
0.000120442
0.000120453
0.000120441
0.000120446
0.000120456
0.000120446
0.000112976
0.000113035
0.000120453
0.000120454
0.000120453
0.000113034
0.000112982
0.000113042
0.000120448
0.000120446
0.00012045
0.000120446
0.000112983
0.000113042
0.000120453
0.000120441
0.000120454
0.000120442
0.000120446
0.000120456
0.000120447
0.000112978
0.000113036
0.000120452
0.000120454
0.000120454
0.000113036
0.000112984
0.000113044
0.00012045
0.000120446
0.000120454
0.000120448
0.000112984
0.000113044
0.000120455
0.000120442
0.000120459
0.000120445
0.000120448
0.000120458
0.000120451
0.000112978
0.000113039
0.000120454
0.000120456
0.000120457
0.000113036
0.000112986
0.000113044
0.000120455
0.000120449
0.000120456
0.000120451
0.000112986
0.000113045
0.000120459
0.000120446
0.00012046
0.000120448
0.000120451
0.000120461
0.000120451
0.000112981
0.000113038
0.000120457
0.000120459
0.000120457
0.000113037
0.000112986
0.000113043
0.000120456
0.000120451
0.000120456
0.000120451
0.000112987
0.000113044
0.00012046
0.000120448
0.00012046
0.000120448
0.000120451
0.000120462
0.000120451
0.000112981
0.000113038
0.000120456
0.000120459
0.000120456
0.000113037
0.000112985
0.000113043
0.000120456
0.000120451
0.000120456
0.000120451
0.000112985
0.000113044
0.00012046
0.000120447
0.00012046
0.000120448
0.000120451
0.000120462
0.000120451
0.00011298
0.000113038
0.000120455
0.00012046
0.000120455
0.000113036
0.000112985
0.000113044
0.000120456
0.000120451
0.000120456
0.000120451
0.000112986
0.000113045
0.00012046
0.000120447
0.00012046
0.000120447
0.00012045
0.000120462
0.000120451
0.00011298
0.000113039
0.000120455
0.00012046
0.000120456
0.000113035
0.000112985
0.000113043
0.000120456
0.000120451
0.000120456
0.000120451
0.000112986
0.000113045
0.00012046
0.000120447
0.00012046
0.000120447
0.000120451
0.000120462
0.000120451
0.00011298
0.000113039
0.000120456
0.00012046
0.000120456
0.000113036
0.000112985
0.000113043
0.000120456
0.000120451
0.000120456
0.000120451
0.000112986
0.000113044
0.00012046
0.000120447
0.00012046
0.000120447
0.000120451
0.000120462
0.000120451
0.000112981
0.000113038
0.000120456
0.000120459
0.000120456
0.000113035
0.000112985
0.000113043
0.000120456
0.000120451
0.000120456
0.000120451
0.000112986
0.000113044
0.00012046
0.000120448
0.00012046
0.000120448
0.000120451
0.000120461
0.000120451
0.00011298
0.000113038
0.000120456
0.000120459
0.000120456
0.000113036
0.000112985
0.000113043
0.000120456
0.00012045
0.000120456
0.000120451
0.000112986
0.000113044
0.00012046
0.000120448
0.000120461
0.000120448
0.000120451
0.000120462
0.000120451
0.00011298
0.000113038
0.000120456
0.000120459
0.000120456
0.000113036
0.000112985
0.000113043
0.000120455
0.000120451
0.000120456
0.000120451
0.000112986
0.000113044
0.000120461
0.000120448
0.000120461
0.000120448
0.000120451
0.000120462
0.000120451
0.00011298
0.000113038
0.000120456
0.000120459
0.000120456
0.000113036
0.000112985
0.000113044
0.000120456
0.00012045
0.000120456
0.00012045
0.000112986
0.000113044
0.000120461
0.000120447
0.000120461
0.000120447
0.000120451
0.000120462
0.000120451
0.00011298
0.000113038
0.000120456
0.000120459
0.000120456
0.000113036
0.000112985
0.000113044
0.000120456
0.00012045
0.000120456
0.00012045
0.000112986
0.000113044
0.000120461
0.000120448
0.000120461
0.000120448
0.000120451
0.000120462
0.000120451
0.00011298
0.000113038
0.000120456
0.000120459
0.000120456
0.000113036
0.000112985
0.000113043
0.000120456
0.00012045
0.000120456
0.00012045
0.000112986
0.000113045
0.000120461
0.000120447
0.000120461
0.000120448
0.000120451
0.000120462
0.000120451
0.00011298
0.000113038
0.000120456
0.000120459
0.000120456
0.000113036
0.000112985
0.000113043
0.000120456
0.000120451
0.000120455
0.000120451
0.000112986
0.000113045
0.000120461
0.000120448
0.000120461
0.000120448
0.000120451
0.000120462
0.000120451
0.00011298
0.000113038
0.000120456
0.000120459
0.000120456
0.000113036
0.000112985
0.000113043
0.000120455
0.000120451
0.000120455
0.000120451
0.000112986
0.000113045
0.000120461
0.000120447
0.000120461
0.000120447
0.000120451
0.000120461
0.000120451
0.00011298
0.000113038
0.000120456
0.000120459
0.000120456
0.000113036
0.000112985
0.000113043
0.000120455
0.000120451
0.000120455
0.000120451
0.000112986
0.000113045
0.000120461
0.000120447
0.000120461
0.000120447
0.000120451
0.000120461
0.000120451
0.00011298
0.000113038
0.000120456
0.000120459
0.000120456
0.000113036
0.000112985
0.000113043
0.000120455
0.00012045
0.000120455
0.00012045
0.000112986
0.000113045
0.000120461
0.000120447
0.000120461
0.000120447
0.000120451
0.000120461
0.000120451
0.00011298
0.000113038
0.000120456
0.000120459
0.000120456
0.000113036
0.000112985
0.000113043
0.000120455
0.000120451
0.000120455
0.000120451
0.000112986
0.000113045
0.000120461
0.000120447
0.000120461
0.000120447
0.000120451
0.000120461
0.000120451
0.00011298
0.000113038
0.000120456
0.000120459
0.000120456
0.000113036
0.000112985
0.000113043
0.000120455
0.000120451
0.000120455
0.000120451
0.000112986
0.000113045
0.000120461
0.000120447
0.000120461
0.000120447
0.00012045
0.000120461
0.000120451
0.00011298
0.000113038
0.000120456
0.000120459
0.000120456
0.000113036
0.000112985
0.000113043
0.000120456
0.000120451
0.000120455
0.000120451
0.000112986
0.000113044
0.000120461
0.000120447
0.000120461
0.000120448
0.000120451
0.000120461
0.000120451
0.00011298
0.000113038
0.000120456
0.000120459
0.000120456
0.000113036
0.000112985
0.000113043
0.000120455
0.000120451
0.000120455
0.000120451
0.000112986
0.000113044
0.000120461
0.000120448
0.000120461
0.000120447
0.000120451
0.000120461
0.000120451
0.00011298
0.000113038
0.000120456
0.000120459
0.000120456
0.000113036
0.000112985
0.000113043
0.000120455
0.000120451
0.000120455
0.000120451
0.000112986
0.000113044
0.000120461
0.000120448
0.00012046
0.000120448
0.000120451
0.000120462
0.000120451
0.00011298
0.000113039
0.000120456
0.00012046
0.000120456
0.000113036
0.000112985
0.000113043
0.000120454
0.000120451
0.000120455
0.000120451
0.000112986
0.000113044
0.00012046
0.000120448
0.00012046
0.000120448
0.000120451
0.000120462
0.000120451
0.00011298
0.000113039
0.000120456
0.000120459
0.000120456
0.000113036
0.000112985
0.000113043
0.000120456
0.000120451
0.000120456
0.000120451
0.000112986
0.000113044
0.00012046
0.000120448
0.00012046
0.000120448
0.000120451
0.000120462
0.000120451
0.00011298
0.000113038
0.000120456
0.000120459
0.000120456
0.000113036
0.000112985
0.000113043
0.000120455
0.00012045
0.000120455
0.000120451
0.000112986
0.000113044
0.00012046
0.000120447
0.00012046
0.000120447
0.000120451
0.000120462
0.000120451
0.00011298
0.000113038
0.000120456
0.000120459
0.000120456
0.000113036
0.000112985
0.000113043
0.000120456
0.000120451
0.000120456
0.000120451
0.000112986
0.000113044
0.000120461
0.000120447
0.000120461
0.000120447
0.000120451
0.000120463
0.00012045
0.00011298
0.000113038
0.000120456
0.000120459
0.000120455
0.000113035
0.000112985
0.000113043
0.000120456
0.000120451
0.000120456
0.000120451
0.000112986
0.000113045
0.00012046
0.000120447
0.000120461
0.000120447
0.00012045
0.000120463
0.000120451
0.00011298
0.000113038
0.000120455
0.000120459
0.000120456
0.000113036
0.000112985
0.000113043
0.000120456
0.000120451
0.000120456
0.000120451
0.000112986
0.000113045
0.000120461
0.000120448
0.000120461
0.000120448
0.000120451
0.000120462
0.000120451
0.00011298
0.000113038
0.000120456
0.000120459
0.000120456
0.000113036
0.000112985
0.000113043
0.000120455
0.000120451
0.000120456
0.000120451
0.000112986
0.000113045
0.000120461
0.000120447
0.000120461
0.000120448
0.000120451
0.000120463
0.000120451
0.00011298
0.000113038
0.000120455
0.000120459
0.000120456
0.000113035
0.000112985
0.000113043
0.000120456
0.000120451
0.000120456
0.000120451
0.000112986
0.000113045
0.000120461
0.000120448
0.000120461
0.000120448
0.000120451
0.000120463
0.000120451
0.00011298
0.000113038
0.000120456
0.000120459
0.000120456
0.000113036
0.000112985
0.000113043
0.000120456
0.000120451
0.000120456
0.000120451
0.000112986
0.000113045
0.000120461
0.000120447
0.000120461
0.000120447
0.000120451
0.000120462
0.000120451
0.00011298
0.000113038
0.000120456
0.00012046
0.000120456
0.000113036
0.000112985
0.000113043
0.000120456
0.000120451
0.000120456
0.000120451
0.000112986
0.000113045
0.00012046
0.000120448
0.00012046
0.000120447
0.000120451
0.000120462
0.000120451
0.00011298
0.000113038
0.000120456
0.00012046
0.000120456
0.000113036
0.000112985
0.000113043
0.000120456
0.000120451
0.000120456
0.000120451
0.000112986
0.000113045
0.00012046
0.000120447
0.00012046
0.000120447
0.000120451
0.000120462
0.000120451
0.00011298
0.000113038
0.000120456
0.000120459
0.000120456
0.000113036
0.000112985
0.000113043
0.000120456
0.000120452
0.000120456
0.000120451
0.000112986
0.000113045
0.00012046
0.000120447
0.00012046
0.000120447
0.000120451
0.000120462
0.000120451
0.00011298
0.000113038
0.000120456
0.000120459
0.000120456
0.000113035
0.000112985
0.000113043
0.000120456
0.000120451
0.000120456
0.000120451
0.000112986
0.000113045
0.00012046
0.000120447
0.00012046
0.000120447
0.000120451
0.000120462
0.00012045
0.00011298
0.000113039
0.000120456
0.000120459
0.000120455
0.000113035
0.000112985
0.000113043
0.000120456
0.000120452
0.000120456
0.000120452
0.000112986
0.000113045
0.00012046
0.000120448
0.00012046
0.000120448
0.00012045
0.000120463
0.000120451
0.00011298
0.000113038
0.000120455
0.000120459
0.000120455
0.000113035
0.000112985
0.000113043
0.000120456
0.000120451
0.000120456
0.000120451
0.000112987
0.000113045
0.00012046
0.000120448
0.00012046
0.000120448
0.000120451
0.000120463
0.000120451
0.00011298
0.000113038
0.000120455
0.000120459
0.000120455
0.000113035
0.000112985
0.000113043
0.000120456
0.000120452
0.000120456
0.000120451
0.000112986
0.000113045
0.00012046
0.000120448
0.00012046
0.000120447
0.00012045
0.000120462
0.000120451
0.00011298
0.000113038
0.000120454
0.000120459
0.000120455
0.000113035
0.000112985
0.000113043
0.000120456
0.000120451
0.000120456
0.000120451
0.000112986
0.000113045
0.00012046
0.000120447
0.00012046
0.000120447
0.000120451
0.000120463
0.000120451
0.00011298
0.000113038
0.000120455
0.000120459
0.000120456
0.000113035
0.000112985
0.000113043
0.000120456
0.000120451
0.000120456
0.000120451
0.000112986
0.000113045
0.00012046
0.000120447
0.00012046
0.000120447
0.000120451
0.000120463
0.000120451
0.00011298
0.000113038
0.000120456
0.000120459
0.000120455
0.000113036
0.000112985
0.000113043
0.000120456
0.000120451
0.000120456
0.000120451
0.000112986
0.000113045
0.00012046
0.000120447
0.00012046
0.000120447
0.000120451
0.000120462
0.00012045
0.00011298
0.000113038
0.000120455
0.000120459
0.000120455
0.000113035
0.000112985
0.000113043
0.000120456
0.000120451
0.000120456
0.000120451
0.000112986
0.000113045
0.00012046
0.000120447
0.00012046
0.000120447
0.00012045
0.000120462
0.000120451
0.00011298
0.000113038
0.000120455
0.000120459
0.000120455
0.000113035
0.000112985
0.000113043
0.000120456
0.000120451
0.000120456
0.000120451
0.000112986
0.000113045
0.00012046
0.000120447
0.00012046
0.000120448
0.000120452
0.000120462
0.000120451
0.00011298
0.000113038
0.000120456
0.000120459
0.000120455
0.000113036
0.000112985
0.000113043
0.000120456
0.000120452
0.000120456
0.000120451
0.000112986
0.000113045
0.00012046
0.000120448
0.00012046
0.000120448
0.000120451
0.000120462
0.000120451
0.00011298
0.000113038
0.000120455
0.000120459
0.000120456
0.000113036
0.000112985
0.000113043
0.000120456
0.000120451
0.000120456
0.000120451
0.000112986
0.000113045
0.00012046
0.000120448
0.00012046
0.000120448
0.000120451
0.000120462
0.000120451
0.00011298
0.000113038
0.000120456
0.000120459
0.000120455
0.000113035
0.000112985
0.000113043
0.000120456
0.000120451
0.000120456
0.000120451
0.000112986
0.000113045
0.00012046
0.000120447
0.00012046
0.000120447
0.000120451
0.000120462
0.000120451
0.00011298
0.000113038
0.000120455
0.000120459
0.000120455
0.000113035
0.000112985
0.000113043
0.000120456
0.000120451
0.000120456
0.000120451
0.000112986
0.000113045
0.00012046
0.000120447
0.00012046
0.000120447
0.000120451
0.000120463
0.000120451
0.00011298
0.000113038
0.000120455
0.000120459
0.000120455
0.000113036
0.000112985
0.000113043
0.000120456
0.000120451
0.000120456
0.000120451
0.000112986
0.000113045
0.000120459
0.000120447
0.00012046
0.000120447
0.000120451
0.000120462
0.000120451
0.00011298
0.000113038
0.000120456
0.000120459
0.000120456
0.000113036
0.000112985
0.000113043
0.000120456
0.000120452
0.000120456
0.000120451
0.000112986
0.000113045
0.00012046
0.000120447
0.00012046
0.000120447
0.000120451
0.000120462
0.000120451
0.00011298
0.000113038
0.000120456
0.00012046
0.000120456
0.000113036
0.000112985
0.000113043
0.000120456
0.000120451
0.000120456
0.000120451
0.000112986
0.000113045
0.00012046
0.000120447
0.00012046
0.000120447
0.000120451
0.000120462
0.000120451
0.00011298
0.000113038
0.000120455
0.000120459
0.000120455
0.000113035
0.000112985
0.000113043
0.000120456
0.000120451
0.000120456
0.000120451
0.000112986
0.000113045
0.00012046
0.000120448
0.00012046
0.000120447
0.000120451
0.000120462
0.000120451
0.00011298
0.000113038
0.000120455
0.000120459
0.000120455
0.000113035
0.000112985
0.000113043
0.000120456
0.000120452
0.000120456
0.000120452
0.000112986
0.000113045
0.00012046
0.000120447
0.00012046
0.000120447
0.00012045
0.000120462
0.000120451
0.00011298
0.000113038
0.000120455
0.000120459
0.000120455
0.000113036
0.000112985
0.000113043
0.000120457
0.000120451
0.000120456
0.000120451
0.000112986
0.000113045
0.00012046
0.000120448
0.00012046
0.000120448
0.000120451
0.000120463
0.000120451
0.00011298
0.000113038
0.000120456
0.000120459
0.000120456
0.000113036
0.000112985
0.000113043
0.000120456
0.000120452
0.000120456
0.000120451
0.000112986
0.000113045
0.00012046
0.000120448
0.00012046
0.000120448
0.000120451
0.000120463
0.000120451
0.00011298
0.000113038
0.000120455
0.000120459
0.000120455
0.000113035
0.000112985
0.000113043
0.000120457
0.000120451
0.000120456
0.000120451
0.000112987
0.000113045
0.00012046
0.000120448
0.00012046
0.000120448
0.00012045
0.000120463
0.000120451
0.00011298
0.000113038
0.000120455
0.000120459
0.000120455
0.000113035
0.000112985
0.000113043
0.000120456
0.000120451
0.000120456
0.000120451
0.000112987
0.000113045
0.00012046
0.000120448
0.00012046
0.000120447
0.000120451
0.000120462
0.000120451
0.00011298
0.000113038
0.000120455
0.000120459
0.000120456
0.000113036
0.000112985
0.000113043
0.000120456
0.000120451
0.000120456
0.000120451
0.000112987
0.000113045
0.00012046
0.000120448
0.00012046
0.000120447
0.000120452
0.000120463
0.000120451
0.00011298
0.000113038
0.000120456
0.000120459
0.000120456
0.000113036
0.000112985
0.000113043
0.000120456
0.000120452
0.000120456
0.000120452
0.000112986
0.000113045
0.00012046
0.000120447
0.00012046
0.000120447
0.000120451
0.000120463
0.000120451
0.00011298
0.000113038
0.000120456
0.000120459
0.000120456
0.000113036
0.000112985
0.000113043
0.000120456
0.000120452
0.000120456
0.000120451
0.000112987
0.000113045
0.00012046
0.000120447
0.00012046
0.000120447
0.000120451
0.000120462
0.000120451
0.00011298
0.000113038
0.000120456
0.000120458
0.000120456
0.000113035
0.000112985
0.000113043
0.000120456
0.000120452
0.000120456
0.000120452
0.000112987
0.000113045
0.00012046
0.000120448
0.00012046
0.000120448
0.000120451
0.000120462
0.000120451
0.00011298
0.000113038
0.000120456
0.000120459
0.000120456
0.000113036
0.000112985
0.000113043
0.000120457
0.000120452
0.000120456
0.000120452
0.000112987
0.000113045
0.00012046
0.000120448
0.00012046
0.000120448
0.000120451
0.000120463
0.000120451
0.00011298
0.000113038
0.000120456
0.000120459
0.000120456
0.000113036
0.000112985
0.000113043
0.000120457
0.000120452
0.000120456
0.000120451
0.000112986
0.000113045
0.000120461
0.000120448
0.00012046
0.000120447
0.000120452
0.000120463
0.000120451
0.00011298
0.000113038
0.000120456
0.000120459
0.000120456
0.000113036
0.000112985
0.000113043
0.000120457
0.000120451
0.000120456
0.000120451
0.000112986
0.000113045
0.00012046
0.000120448
0.00012046
0.000120447
0.000120451
0.000120462
0.000120451
0.00011298
0.000113039
0.000120456
0.000120459
0.000120455
0.000113036
0.000112985
0.000113043
0.000120457
0.000120452
0.000120456
0.000120451
0.000112986
0.000113045
0.000120461
0.000120448
0.00012046
0.000120448
0.000120451
0.000120462
0.000120451
0.00011298
0.000113038
0.000120455
0.000120459
0.000120455
0.000113035
0.000112985
0.000113043
0.000120457
0.000120452
0.000120456
0.000120452
0.000112986
0.000113045
0.000120461
0.000120448
0.00012046
0.000120448
0.000120452
0.000120462
0.000120452
0.00011298
0.000113038
0.000120456
0.000120459
0.000120456
0.000113036
0.000112985
0.000113043
0.000120457
0.000120452
0.000120456
0.000120452
0.000112987
0.000113045
0.000120461
0.000120448
0.00012046
0.000120447
0.000120452
0.000120462
0.000120451
0.00011298
0.000113039
0.000120456
0.000120459
0.000120456
0.000113036
0.000112985
0.000113044
0.000120457
0.000120453
0.000120457
0.000120452
0.000112987
0.000113046
0.000120461
0.000120448
0.000120461
0.000120448
0.000120452
0.000120462
0.000120452
0.000112981
0.000113039
0.000120456
0.000120459
0.000120456
0.000113036
0.000112986
0.000113044
0.000120458
0.000120453
0.000120458
0.000120453
0.000112987
0.000113046
0.000120462
0.000120449
0.000120461
0.000120449
0.000120453
0.000120463
0.000120452
0.000112981
0.000113039
0.000120457
0.00012046
0.000120457
0.000113037
0.000112986
0.000113046
0.000120459
0.000120454
0.000120459
0.000120455
0.000112988
0.000113047
0.000120463
0.00012045
0.000120463
0.00012045
0.000120454
0.000120465
0.000120454
0.000112982
0.000113041
0.000120458
0.000120461
0.000120458
0.000113038
0.000112988
0.000113048
0.000120461
0.000120457
0.000120463
0.000120458
0.00011299
0.00011305
0.000120465
0.000120452
0.000120467
0.000120454
0.000120456
0.000120468
0.000120457
0.000112984
0.000113043
0.00012046
0.000120465
0.000120462
0.00011304
0.000112991
0.000113052
0.000120465
0.000120461
0.000120469
0.000120464
0.000112992
0.000113054
0.000120469
0.000120457
0.000120473
0.00012046
0.00012046
0.000120474
0.000120464
0.000112986
0.000113047
0.000120464
0.000120471
0.000120468
0.000113044
0.000112995
0.000113062
0.000120473
0.000120469
0.000120486
0.000120482
0.000112996
0.000113064
0.000120477
0.000120464
0.000120491
0.000120478
0.000120468
0.000120492
0.000120481
0.00011299
0.000113057
0.000120472
0.000120489
0.000120486
0.000113054
0.000113004
0.000113556
0.000120468
0.000120464
0.000120975
0.000120971
0.000113006
0.000113556
0.000120473
0.00012046
0.000120978
0.000120968
0.000120462
0.000120978
0.000120969
0.000113
0.000113552
0.000120468
0.000120976
0.000120974
0.00011355
0.000114123
0.00012115
0.000121147
0.000114123
0.000121152
0.000121144
0.000127714
0.000127713
0.000127711
0.000121145
0.000114119
0.000121148
0.000121099
4.74644e-05
9.43159e-05
9.42981e-05
5.05312e-07
1.0559e-05
4.38778e-06
6.68827e-05
5.92327e-07
1.01145e-05
6.70742e-05
2.66144e-06
2.07261e-06
6.0602e-07
3.00597e-06
1.00026e-06
1.50161e-05
8.79313e-07
1.66996e-05
1.09769e-05
1.32037e-05
9.79955e-07
1.40622e-05
8.54909e-07
1.56589e-05
6.96463e-05
6.96846e-05
6.96187e-05
7.05725e-05
7.06532e-05
7.06789e-05
7.05575e-05
5.42485e-07
1.0132e-06
3.83384e-05
1.23272e-05
5.40623e-07
1.0884e-06
3.89149e-05
1.09e-05
1.3088e-05
5.90699e-07
3.76171e-05
1.10564e-06
1.23366e-05
6.11751e-07
3.79415e-05
1.29571e-06
1.42789e-06
2.10564e-06
2.299e-06
1.63276e-06
2.22146e-06
1.21118e-06
2.04694e-05
1.10509e-06
2.27301e-05
1.72866e-05
1.94315e-05
1.2397e-06
1.90706e-05
1.13162e-06
2.15877e-05
7.13497e-05
7.13762e-05
7.12398e-05
7.33595e-05
7.34305e-05
7.34593e-05
7.33492e-05
4.99227e-07
1.12728e-06
4.04775e-05