/*--------------------------------*- C++ -*----------------------------------*\
| =========                 |                                                 |
| \\      /  F ield         | OpenFOAM: The Open Source CFD Toolbox           |
|  \\    /   O peration     | Version:  v2012                                 |
|   \\  /    A nd           | Website:  www.openfoam.com                      |
|    \\/     M anipulation  |                                                 |
\*---------------------------------------------------------------------------*/
FoamFile
{
    version     2.0;
    format      ascii;
    class       volScalarField;
    location    "62.5";
    object      p;
}
// * * * * * * * * * * * * * * * * * * * * * * * * * * * * * * * * * * * * * //

dimensions      [0 2 -2 0 0 0 0];


internalField   nonuniform List<scalar> 
171728
(
0.00365718
0.00365732
0.00365728
0.00365961
0.00361891
0.00361861
0.00361862
0.00362148
0.00358286
0.00358229
0.0035824
0.00358434
0.00353687
0.00353647
0.00353652
0.00353914
0.0034893
0.00348893
0.00348894
0.00349165
0.00344098
0.00344067
0.00344072
0.00344349
0.00339316
0.00339286
0.00339291
0.00339566
0.0033462
0.00334598
0.00334596
0.00334869
0.00330051
0.00330037
0.00330032
0.00330304
0.00325649
0.00325637
0.00325633
0.00325893
0.00321372
0.00321375
0.00321373
0.00321634
0.00317127
0.00317134
0.00317135
0.00317403
0.00312789
0.00312777
0.00312778
0.00313054
0.00308442
0.0030841
0.0030841
0.00308674
0.00304281
0.00304258
0.00304257
0.00304508
0.00300328
0.00300317
0.00300317
0.0030055
0.00296487
0.00296481
0.00296481
0.00296708
0.00292679
0.00292675
0.00292675
0.002929
0.00288876
0.00288871
0.00288871
0.00289097
0.00285073
0.00285068
0.00285068
0.00285294
0.00281269
0.00281265
0.00281265
0.00281491
0.00277466
0.00277462
0.00277462
0.00277687
0.00273662
0.00273658
0.00273658
0.00273883
0.00269859
0.00269854
0.00269854
0.0027008
0.00266055
0.00266051
0.00266051
0.00266276
0.00262251
0.00262247
0.00262247
0.00262473
0.00258448
0.00258443
0.00258443
0.00258669
0.00254644
0.0025464
0.0025464
0.00254865
0.00250841
0.00250836
0.00250836
0.00251062
0.00247037
0.00247033
0.00247033
0.00247258
0.00243234
0.00243229
0.00243229
0.00243455
0.0023943
0.00239426
0.00239426
0.00239652
0.00235627
0.00235623
0.00235623
0.00235848
0.00231824
0.0023182
0.0023182
0.00232046
0.00228021
0.00228017
0.00228017
0.00228243
0.00224219
0.00224214
0.00224214
0.0022444
0.00220416
0.00220412
0.00220412
0.00220637
0.00216613
0.00216609
0.00216609
0.00216834
0.00212811
0.00212806
0.00212806
0.00213032
0.00209008
0.00209004
0.00209004
0.00209229
0.00205206
0.00205201
0.00205201
0.00205427
0.00201403
0.00201399
0.00201399
0.00201624
0.001976
0.00197596
0.00197596
0.00197822
0.00193798
0.00193794
0.00193794
0.00194019
0.00189995
0.00189991
0.00189991
0.00190216
0.00186193
0.00186188
0.00186188
0.00186414
0.0018239
0.00182386
0.00182386
0.00182611
0.00178587
0.00178583
0.00178583
0.00178809
0.00174785
0.0017478
0.0017478
0.00175006
0.00170982
0.00170978
0.00170978
0.00171203
0.00167179
0.00167175
0.00167175
0.001674
0.00163376
0.00163372
0.00163372
0.00163597
0.00159573
0.00159569
0.00159569
0.00159794
0.0015577
0.00155766
0.00155766
0.00155991
0.00151967
0.00151963
0.00151963
0.00152188
0.00148164
0.0014816
0.0014816
0.00148385
0.00144361
0.00144357
0.00144357
0.00144582
0.00140558
0.00140554
0.00140554
0.00140779
0.00136755
0.0013675
0.0013675
0.00136976
0.00132951
0.00132947
0.00132947
0.00133173
0.00129148
0.00129144
0.00129144
0.00129369
0.00125345
0.00125341
0.00125341
0.00125566
0.00121542
0.00121538
0.00121538
0.00121763
0.00117739
0.00117735
0.00117735
0.0011796
0.00113936
0.00113932
0.00113932
0.00114157
0.00110133
0.00110129
0.00110129
0.00110354
0.0010633
0.00106326
0.00106326
0.00106551
0.00102527
0.00102523
0.00102523
0.00102748
0.000987247
0.000987204
0.000987203
0.000989458
0.000949221
0.000949179
0.000949178
0.000951433
0.000911197
0.000911154
0.000911154
0.000913408
0.000873172
0.00087313
0.00087313
0.000875384
0.000835148
0.000835105
0.000835105
0.000837359
0.000797124
0.000797081
0.000797081
0.000799336
0.000759101
0.000759058
0.000759058
0.000761312
0.000721078
0.000721035
0.000721035
0.000723289
0.000683056
0.000683013
0.000683013
0.000685267
0.000645033
0.00064499
0.00064499
0.000647244
0.00060701
0.000606968
0.000606968
0.000609222
0.000568988
0.000568945
0.000568945
0.000571199
0.000530966
0.000530923
0.000530923
0.000533177
0.000492944
0.000492901
0.000492901
0.000495154
0.000454923
0.000454879
0.000454879
0.000457133
0.000416902
0.00041686
0.00041686
0.000419114
0.00037888
0.000378837
0.000378837
0.00038109
0.000340857
0.000340814
0.000340814
0.000343066
0.000302835
0.000302792
0.000302792
0.000305044
0.000264811
0.000264767
0.000264767
0.000267016
0.000226785
0.000226743
0.000226743
0.00022899
0.000188758
0.000188717
0.000188717
0.000190957
0.000150722
0.000150684
0.000150684
0.000152914
0.000112673
0.000112643
0.000112642
0.000114855
7.46289e-05
7.45894e-05
7.45879e-05
7.67731e-05
3.74157e-05
3.68606e-05
3.68573e-05
3.88448e-05
6.24948e-06
6.2501e-06
6.24966e-06
6.10473e-06
0.00366532
0.00366484
0.00366487
0.00366536
0.00366482
0.00366485
0.00366679
0.00366682
0.00366681
0.00366691
0.00366487
0.00366499
0.00366535
0.00366489
0.00366506
0.00366552
0.00365934
0.00362551
0.00365727
0.00365726
0.00362692
0.00362689
0.00365939
0.00362545
0.00365727
0.00365725
0.00362682
0.00362684
0.00365731
0.00362696
0.00362706
0.00365937
0.00362544
0.00365751
0.00362683
0.00362719
0.00362553
0.00362156
0.0035898
0.00361858
0.00361857
0.00359255
0.00359247
0.00362157
0.00358976
0.0036186
0.00361866
0.00359264
0.00359251
0.00361853
0.00359248
0.00359255
0.00362154
0.00358977
0.00361836
0.00359245
0.00359245
0.00358967
0.0035844
0.00354522
0.0035824
0.00358231
0.00354833
0.00354821
0.00358442
0.00354525
0.00358228
0.00358211
0.00354831
0.00354812
0.00358243
0.00354825
0.00354839
0.00358439
0.0035453
0.00358236
0.00354822
0.00354826
0.00354523
0.00353917
0.00349778
0.00353652
0.0035365
0.00350095
0.00350095
0.00353919
0.00349779
0.00353645
0.00353636
0.00350086
0.00350095
0.00353626
0.00350093
0.003501
0.00353921
0.00349778
0.00353644
0.00350101
0.0035009
0.00349777
0.00349165
0.00344962
0.00348889
0.00348895
0.0034527
0.00345273
0.00349167
0.00344959
0.00348897
0.0034889
0.00345261
0.00345267
0.00348875
0.00345272
0.00345269
0.00349166
0.00344962
0.00348906
0.00345269
0.00345282
0.00344962
0.00344347
0.00340171
0.00344067
0.00344071
0.00340475
0.00340479
0.00344347
0.00340171
0.00344069
0.00344075
0.00340466
0.00340479
0.00344063
0.0034048
0.00340466
0.00344347
0.0034017
0.00344069
0.00340482
0.00340488
0.00340172
0.00339563
0.00335465
0.0033929
0.00339289
0.00335761
0.00335762
0.00339564
0.00335467
0.00339301
0.00339298
0.00335758
0.00335765
0.00339287
0.00335765
0.00335757
0.00339564
0.00335466
0.00339288
0.00335768
0.00335766
0.00335464
0.0033487
0.00330879
0.00334599
0.00334597
0.0033116
0.0033116
0.00334872
0.00330879
0.00334608
0.00334605
0.00331155
0.00331156
0.00334599
0.00331162
0.0033116
0.00334872
0.00330879
0.003346
0.00331163
0.00331158
0.00330882
0.003303
0.00326449
0.00330035
0.00330033
0.0032672
0.00326719
0.00330302
0.00326449
0.00330035
0.00330035
0.00326718
0.00326718
0.00330037
0.00326722
0.00326722
0.00330301
0.00326449
0.00330035
0.00326718
0.0032672
0.00326449
0.00325892
0.00322178
0.00325635
0.00325634
0.00322432
0.00322432
0.00325893
0.00322178
0.00325636
0.00325635
0.00322433
0.00322432
0.00325636
0.00322432
0.00322432
0.00325893
0.00322177
0.00325636
0.00322429
0.00322432
0.00322177
0.00321635
0.00317953
0.00321373
0.00321376
0.00318195
0.00318196
0.00321634
0.00317954
0.00321373
0.00321373
0.00318194
0.00318195
0.00321375
0.00318195
0.00318195
0.00321634
0.00317955
0.00321374
0.00318195
0.00318195
0.00317953
0.00317403
0.00313629
0.00317134
0.00317134
0.00313881
0.00313881
0.00317404
0.00313629
0.00317133
0.00317134
0.00313881
0.00313882
0.00317134
0.00313881
0.00313881
0.00317405
0.0031363
0.00317134
0.00313882
0.00313881
0.00313629
0.00313054
0.00309241
0.00312778
0.00312777
0.00309487
0.00309486
0.00313054
0.0030924
0.00312778
0.00312778
0.00309487
0.00309487
0.00312777
0.00309486
0.00309486
0.00313055
0.00309241
0.00312778
0.00309487
0.00309486
0.0030924
0.00308674
0.00305037
0.0030841
0.0030841
0.00305271
0.00305271
0.00308674
0.00305037
0.0030841
0.0030841
0.00305271
0.00305271
0.0030841
0.00305271
0.00305271
0.00308674
0.00305037
0.0030841
0.00305271
0.00305271
0.00305037
0.00304507
0.00301059
0.00304257
0.00304258
0.00301287
0.00301287
0.00304508
0.00301059
0.00304257
0.00304258
0.00301287
0.00301287
0.00304258
0.00301287
0.00301287
0.00304508
0.00301059
0.00304257
0.00301287
0.00301287
0.00301059
0.0030055
0.00297209
0.00300317
0.00300317
0.00297436
0.00297435
0.0030055
0.00297209
0.00300317
0.00300317
0.00297435
0.00297435
0.00300317
0.00297435
0.00297435
0.0030055
0.00297209
0.00300317
0.00297435
0.00297435
0.00297209
0.00296708
0.002934
0.00296481
0.00296481
0.00293626
0.00293626
0.00296708
0.002934
0.00296481
0.00296481
0.00293626
0.00293626
0.00296481
0.00293626
0.00293626
0.00296708
0.002934
0.00296481
0.00293626
0.00293626
0.002934
0.002929
0.00289597
0.00292675
0.00292675
0.00289822
0.00289822
0.002929
0.00289597
0.00292675
0.00292675
0.00289822
0.00289822
0.00292675
0.00289822
0.00289822
0.002929
0.00289597
0.00292675
0.00289822
0.00289822
0.00289597
0.00289097
0.00285794
0.00288872
0.00288872
0.00286019
0.00286019
0.00289097
0.00285794
0.00288872
0.00288872
0.00286019
0.00286019
0.00288872
0.00286019
0.00286019
0.00289097
0.00285794
0.00288872
0.00286019
0.00286019
0.00285794
0.00285294
0.00281991
0.00285068
0.00285068
0.00282216
0.00282216
0.00285294
0.00281991
0.00285068
0.00285068
0.00282216
0.00282216
0.00285068
0.00282216
0.00282216
0.00285294
0.00281991
0.00285068
0.00282216
0.00282216
0.00281991
0.00281491
0.00278187
0.00281265
0.00281265
0.00278413
0.00278413
0.00281491
0.00278187
0.00281265
0.00281265
0.00278412
0.00278413
0.00281265
0.00278413
0.00278413
0.00281491
0.00278187
0.00281265
0.00278413
0.00278413
0.00278187
0.00277687
0.00274384
0.00277462
0.00277462
0.00274609
0.00274609
0.00277687
0.00274384
0.00277462
0.00277462
0.00274609
0.00274609
0.00277462
0.00274609
0.00274609
0.00277687
0.00274384
0.00277462
0.00274609
0.00274609
0.00274384
0.00273883
0.0027058
0.00273658
0.00273658
0.00270805
0.00270805
0.00273883
0.0027058
0.00273658
0.00273658
0.00270805
0.00270805
0.00273658
0.00270805
0.00270805
0.00273883
0.0027058
0.00273658
0.00270805
0.00270805
0.0027058
0.0027008
0.00266776
0.00269854
0.00269854
0.00267002
0.00267002
0.0027008
0.00266776
0.00269854
0.00269854
0.00267002
0.00267002
0.00269854
0.00267002
0.00267002
0.0027008
0.00266776
0.00269854
0.00267002
0.00267002
0.00266776
0.00266276
0.00262973
0.00266051
0.00266051
0.00263198
0.00263198
0.00266276
0.00262973
0.00266051
0.00266051
0.00263198
0.00263198
0.00266051
0.00263198
0.00263198
0.00266276
0.00262973
0.00266051
0.00263198
0.00263198
0.00262973
0.00262473
0.00259169
0.00262247
0.00262247
0.00259394
0.00259394
0.00262473
0.00259169
0.00262247
0.00262247
0.00259394
0.00259394
0.00262247
0.00259394
0.00259394
0.00262473
0.00259169
0.00262247
0.00259394
0.00259394
0.00259169
0.00258669
0.00255366
0.00258443
0.00258443
0.00255591
0.00255591
0.00258669
0.00255366
0.00258443
0.00258443
0.00255591
0.00255591
0.00258443
0.00255591
0.00255591
0.00258669
0.00255366
0.00258443
0.00255591
0.00255591
0.00255366
0.00254865
0.00251562
0.0025464
0.0025464
0.00251787
0.00251787
0.00254865
0.00251562
0.0025464
0.0025464
0.00251787
0.00251787
0.0025464
0.00251787
0.00251787
0.00254865
0.00251562
0.0025464
0.00251787
0.00251787
0.00251562
0.00251062
0.00247758
0.00250836
0.00250836
0.00247984
0.00247984
0.00251062
0.00247758
0.00250836
0.00250836
0.00247984
0.00247984
0.00250836
0.00247984
0.00247984
0.00251062
0.00247758
0.00250836
0.00247984
0.00247984
0.00247758
0.00247258
0.00243955
0.00247033
0.00247033
0.0024418
0.0024418
0.00247258
0.00243955
0.00247033
0.00247033
0.0024418
0.0024418
0.00247033
0.0024418
0.0024418
0.00247258
0.00243955
0.00247033
0.0024418
0.0024418
0.00243955
0.00243455
0.00240152
0.00243229
0.00243229
0.00240377
0.00240377
0.00243455
0.00240152
0.00243229
0.00243229
0.00240377
0.00240377
0.00243229
0.00240377
0.00240377
0.00243455
0.00240152
0.00243229
0.00240377
0.00240377
0.00240152
0.00239652
0.00236349
0.00239426
0.00239426
0.00236574
0.00236574
0.00239652
0.00236349
0.00239426
0.00239426
0.00236574
0.00236574
0.00239426
0.00236574
0.00236574
0.00239652
0.00236349
0.00239426
0.00236574
0.00236574
0.00236349
0.00235848
0.00232546
0.00235623
0.00235623
0.00232771
0.00232771
0.00235848
0.00232546
0.00235623
0.00235623
0.00232771
0.00232771
0.00235623
0.00232771
0.00232771
0.00235849
0.00232546
0.00235623
0.00232771
0.00232771
0.00232546
0.00232045
0.00228743
0.0023182
0.0023182
0.00228968
0.00228968
0.00232045
0.00228743
0.0023182
0.0023182
0.00228968
0.00228968
0.0023182
0.00228968
0.00228968
0.00232046
0.00228743
0.0023182
0.00228968
0.00228968
0.00228743
0.00228243
0.0022494
0.00228017
0.00228017
0.00225165
0.00225165
0.00228243
0.0022494
0.00228017
0.00228017
0.00225165
0.00225165
0.00228017
0.00225165
0.00225165
0.00228243
0.0022494
0.00228017
0.00225165
0.00225165
0.0022494
0.0022444
0.00221137
0.00224214
0.00224214
0.00221362
0.00221362
0.0022444
0.00221137
0.00224214
0.00224214
0.00221362
0.00221362
0.00224214
0.00221362
0.00221362
0.0022444
0.00221137
0.00224214
0.00221362
0.00221362
0.00221137
0.00220637
0.00217335
0.00220412
0.00220412
0.0021756
0.0021756
0.00220637
0.00217335
0.00220412
0.00220412
0.0021756
0.0021756
0.00220412
0.0021756
0.0021756
0.00220637
0.00217335
0.00220412
0.0021756
0.0021756
0.00217335
0.00216834
0.00213532
0.00216609
0.00216609
0.00213757
0.00213757
0.00216834
0.00213532
0.00216609
0.00216609
0.00213757
0.00213757
0.00216609
0.00213757
0.00213757
0.00216834
0.00213532
0.00216609
0.00213757
0.00213757
0.00213532
0.00213032
0.00209729
0.00212806
0.00212806
0.00209954
0.00209954
0.00213032
0.00209729
0.00212806
0.00212806
0.00209954
0.00209954
0.00212806
0.00209954
0.00209954
0.00213032
0.00209729
0.00212806
0.00209954
0.00209954
0.00209729
0.00209229
0.00205927
0.00209004
0.00209004
0.00206152
0.00206152
0.00209229
0.00205927
0.00209004
0.00209004
0.00206152
0.00206152
0.00209004
0.00206152
0.00206152
0.00209229
0.00205927
0.00209004
0.00206152
0.00206152
0.00205927
0.00205427
0.00202124
0.00205201
0.00205201
0.00202349
0.00202349
0.00205427
0.00202124
0.00205201
0.00205201
0.00202349
0.00202349
0.00205201
0.00202349
0.00202349
0.00205427
0.00202124
0.00205201
0.00202349
0.00202349
0.00202124
0.00201624
0.00198322
0.00201399
0.00201399
0.00198547
0.00198547
0.00201624
0.00198322
0.00201399
0.00201399
0.00198547
0.00198547
0.00201399
0.00198547
0.00198547
0.00201624
0.00198322
0.00201399
0.00198547
0.00198547
0.00198322
0.00197822
0.00194519
0.00197596
0.00197596
0.00194744
0.00194744
0.00197821
0.00194519
0.00197596
0.00197596
0.00194744
0.00194744
0.00197596
0.00194744
0.00194744
0.00197822
0.00194519
0.00197596
0.00194744
0.00194744
0.00194519
0.00194019
0.00190716
0.00193793
0.00193793
0.00190942
0.00190942
0.00194019
0.00190716
0.00193793
0.00193794
0.00190942
0.00190942
0.00193794
0.00190942
0.00190942
0.00194019
0.00190716
0.00193794
0.00190942
0.00190942
0.00190716
0.00190216
0.00186914
0.00189991
0.00189991
0.00187139
0.00187139
0.00190216
0.00186914
0.00189991
0.00189991
0.00187139
0.00187139
0.00189991
0.00187139
0.00187139
0.00190216
0.00186914
0.00189991
0.00187139
0.00187139
0.00186914
0.00186414
0.00183111
0.00186188
0.00186188
0.00183336
0.00183336
0.00186414
0.00183111
0.00186188
0.00186188
0.00183336
0.00183336
0.00186188
0.00183336
0.00183336
0.00186414
0.00183111
0.00186188
0.00183336
0.00183336
0.00183111
0.00182611
0.00179309
0.00182386
0.00182386
0.00179534
0.00179534
0.00182611
0.00179309
0.00182386
0.00182386
0.00179534
0.00179534
0.00182386
0.00179534
0.00179534
0.00182611
0.00179309
0.00182386
0.00179534
0.00179534
0.00179309
0.00178809
0.00175506
0.00178583
0.00178583
0.00175731
0.00175731
0.00178809
0.00175506
0.00178583
0.00178583
0.00175731
0.00175731
0.00178583
0.00175731
0.00175731
0.00178809
0.00175506
0.00178583
0.00175731
0.00175731
0.00175506
0.00175006
0.00171703
0.00174781
0.0017478
0.00171928
0.00171928
0.00175006
0.00171703
0.0017478
0.0017478
0.00171928
0.00171928
0.00174781
0.00171928
0.00171928
0.00175006
0.00171703
0.0017478
0.00171928
0.00171928
0.00171703
0.00171203
0.001679
0.00170978
0.00170978
0.00168126
0.00168126
0.00171203
0.001679
0.00170978
0.00170978
0.00168126
0.00168126
0.00170978
0.00168126
0.00168126
0.00171203
0.001679
0.00170978
0.00168126
0.00168126
0.001679
0.001674
0.00164098
0.00167175
0.00167175
0.00164323
0.00164323
0.001674
0.00164098
0.00167175
0.00167175
0.00164323
0.00164323
0.00167175
0.00164323
0.00164323
0.001674
0.00164097
0.00167175
0.00164323
0.00164323
0.00164098
0.00163597
0.00160295
0.00163372
0.00163372
0.0016052
0.0016052
0.00163597
0.00160295
0.00163372
0.00163372
0.0016052
0.0016052
0.00163372
0.0016052
0.0016052
0.00163597
0.00160295
0.00163372
0.0016052
0.0016052
0.00160295
0.00159794
0.00156492
0.00159569
0.00159569
0.00156717
0.00156717
0.00159794
0.00156492
0.00159569
0.00159569
0.00156717
0.00156717
0.00159569
0.00156717
0.00156717
0.00159794
0.00156492
0.00159569
0.00156717
0.00156717
0.00156492
0.00155991
0.00152689
0.00155766
0.00155766
0.00152914
0.00152914
0.00155991
0.00152689
0.00155766
0.00155766
0.00152914
0.00152914
0.00155766
0.00152914
0.00152914
0.00155991
0.00152689
0.00155766
0.00152914
0.00152914
0.00152689
0.00152188
0.00148885
0.00151963
0.00151963
0.00149111
0.00149111
0.00152188
0.00148886
0.00151963
0.00151963
0.00149111
0.00149111
0.00151963
0.00149111
0.00149111
0.00152188
0.00148886
0.00151963
0.00149111
0.00149111
0.00148886
0.00148385
0.00145082
0.0014816
0.0014816
0.00145308
0.00145308
0.00148385
0.00145082
0.0014816
0.0014816
0.00145308
0.00145308
0.0014816
0.00145308
0.00145308
0.00148385
0.00145082
0.0014816
0.00145308
0.00145308
0.00145082
0.00144582
0.00141279
0.00144357
0.00144357
0.00141504
0.00141504
0.00144582
0.00141279
0.00144357
0.00144357
0.00141504
0.00141504
0.00144357
0.00141504
0.00141504
0.00144582
0.00141279
0.00144357
0.00141504
0.00141504
0.00141279
0.00140779
0.00137476
0.00140554
0.00140554
0.00137701
0.00137701
0.00140779
0.00137476
0.00140554
0.00140554
0.00137701
0.00137701
0.00140554
0.00137701
0.00137701
0.00140779
0.00137476
0.00140554
0.00137701
0.00137701
0.00137476
0.00136976
0.00133673
0.0013675
0.0013675
0.00133898
0.00133898
0.00136976
0.00133673
0.0013675
0.0013675
0.00133898
0.00133898
0.0013675
0.00133898
0.00133898
0.00136976
0.00133673
0.0013675
0.00133898
0.00133898
0.00133673
0.00133172
0.00129869
0.00132947
0.00132947
0.00130095
0.00130095
0.00133172
0.00129869
0.00132947
0.00132947
0.00130095
0.00130095
0.00132947
0.00130095
0.00130095
0.00133172
0.00129869
0.00132947
0.00130095
0.00130095
0.00129869
0.00129369
0.00126066
0.00129144
0.00129144
0.00126291
0.00126291
0.00129369
0.00126066
0.00129144
0.00129144
0.00126291
0.00126291
0.00129144
0.00126291
0.00126291
0.00129369
0.00126066
0.00129144
0.00126291
0.00126291
0.00126066
0.00125566
0.00122263
0.00125341
0.00125341
0.00122488
0.00122488
0.00125566
0.00122263
0.00125341
0.00125341
0.00122488
0.00122488
0.00125341
0.00122488
0.00122488
0.00125566
0.00122263
0.00125341
0.00122488
0.00122488
0.00122263
0.00121763
0.0011846
0.00121538
0.00121538
0.00118685
0.00118685
0.00121763
0.0011846
0.00121538
0.00121538
0.00118685
0.00118685
0.00121538
0.00118685
0.00118685
0.00121763
0.0011846
0.00121538
0.00118685
0.00118685
0.0011846
0.0011796
0.00114657
0.00117735
0.00117735
0.00114882
0.00114882
0.0011796
0.00114657
0.00117735
0.00117735
0.00114882
0.00114882
0.00117735
0.00114882
0.00114882
0.0011796
0.00114657
0.00117735
0.00114882
0.00114882
0.00114657
0.00114157
0.00110854
0.00113932
0.00113932
0.00111079
0.00111079
0.00114157
0.00110854
0.00113932
0.00113932
0.00111079
0.00111079
0.00113932
0.00111079
0.00111079
0.00114157
0.00110854
0.00113932
0.00111079
0.00111079
0.00110854
0.00110354
0.00107051
0.00110129
0.00110129
0.00107276
0.00107276
0.00110354
0.00107051
0.00110129
0.00110129
0.00107276
0.00107276
0.00110129
0.00107276
0.00107276
0.00110354
0.00107051
0.00110129
0.00107276
0.00107276
0.00107051
0.00106551
0.00103249
0.00106326
0.00106326
0.00103474
0.00103474
0.00106551
0.00103249
0.00106326
0.00106326
0.00103474
0.00103474
0.00106326
0.00103474
0.00103474
0.00106551
0.00103249
0.00106326
0.00103474
0.00103474
0.00103249
0.00102748
0.000994459
0.00102523
0.00102523
0.000996711
0.00099671
0.00102748
0.000994459
0.00102523
0.00102523
0.000996711
0.00099671
0.00102523
0.00099671
0.00099671
0.00102748
0.000994459
0.00102523
0.00099671
0.00099671
0.000994458
0.000989458
0.000956433
0.000987204
0.000987204
0.000958685
0.000958685
0.000989458
0.000956434
0.000987204
0.000987204
0.000958684
0.000958685
0.000987204
0.000958685
0.000958685
0.000989458
0.000956433
0.000987203
0.000958685
0.000958685
0.000956433
0.000951432
0.000918409
0.000949178
0.000949178
0.00092066
0.00092066
0.000951433
0.000918409
0.000949178
0.000949178
0.00092066
0.00092066
0.000949179
0.00092066
0.00092066
0.000951433
0.000918409
0.000949179
0.000920661
0.000920661
0.000918409
0.000913408
0.000880384
0.000911154
0.000911154
0.000882636
0.000882636
0.000913408
0.000880385
0.000911154
0.000911154
0.000882636
0.000882636
0.000911154
0.000882636
0.000882636
0.000913408
0.000880385
0.000911154
0.000882636
0.000882636
0.000880385
0.000875384
0.00084236
0.00087313
0.00087313
0.000844612
0.000844611
0.000875384
0.00084236
0.00087313
0.00087313
0.000844611
0.000844612
0.00087313
0.000844611
0.000844612
0.000875384
0.00084236
0.00087313
0.000844611
0.000844611
0.00084236
0.000837359
0.000804336
0.000835105
0.000835105
0.000806587
0.000806587
0.000837359
0.000804336
0.000835105
0.000835105
0.000806587
0.000806587
0.000835105
0.000806587
0.000806587
0.000837359
0.000804336
0.000835105
0.000806587
0.000806587
0.000804336
0.000799335
0.000766312
0.000797081
0.000797081
0.000768564
0.000768564
0.000799335
0.000766312
0.000797081
0.000797081
0.000768564
0.000768564
0.000797082
0.000768564
0.000768564
0.000799335
0.000766312
0.000797081
0.000768564
0.000768564
0.000766312
0.000761312
0.000728289
0.000759058
0.000759058
0.000730541
0.000730541
0.000761312
0.000728289
0.000759058
0.000759058
0.00073054
0.000730541
0.000759058
0.000730541
0.000730541
0.000761312
0.000728289
0.000759058
0.000730541
0.000730541
0.000728289
0.000723289
0.000690267
0.000721035
0.000721035
0.000692518
0.000692518
0.000723289
0.000690267
0.000721035
0.000721035
0.000692518
0.000692518
0.000721035
0.000692518
0.000692519
0.000723289
0.000690267
0.000721035
0.000692518
0.000692518
0.000690267
0.000685267
0.000652245
0.000683013
0.000683013
0.000654496
0.000654496
0.000685267
0.000652245
0.000683013
0.000683013
0.000654496
0.000654496
0.000683013
0.000654496
0.000654496
0.000685267
0.000652245
0.000683013
0.000654496
0.000654496
0.000652245
0.000647244
0.000614222
0.00064499
0.00064499
0.000616473
0.000616473
0.000647244
0.000614222
0.00064499
0.00064499
0.000616473
0.000616473
0.00064499
0.000616473
0.000616473
0.000647244
0.000614222
0.00064499
0.000616473
0.000616473
0.000614222
0.000609222
0.000576199
0.000606968
0.000606968
0.00057845
0.00057845
0.000609222
0.000576199
0.000606968
0.000606968
0.00057845
0.00057845
0.000606968
0.00057845
0.00057845
0.000609222
0.000576199
0.000606968
0.00057845
0.00057845
0.000576199
0.000571199
0.000538177
0.000568945
0.000568945
0.000540428
0.000540428
0.000571199
0.000538177
0.000568945
0.000568945
0.000540428
0.000540428
0.000568945
0.000540428
0.000540428
0.000571199
0.000538176
0.000568945
0.000540428
0.000540428
0.000538176
0.000533177
0.000500155
0.000530923
0.000530923
0.000502407
0.000502407
0.000533176
0.000500156
0.000530923
0.000530923
0.000502407
0.000502407
0.000530923
0.000502407
0.000502407
0.000533177
0.000500155
0.000530923
0.000502407
0.000502407
0.000500155
0.000495154
0.000462135
0.000492901
0.0004929
0.000464386
0.000464386
0.000495154
0.000462135
0.0004929
0.000492901
0.000464386
0.000464386
0.000492901
0.000464386
0.000464386
0.000495154
0.000462135
0.000492901
0.000464386
0.000464386
0.000462135
0.000457133
0.000424114
0.00045488
0.000454879
0.000426364
0.000426364
0.000457133
0.000424114
0.000454879
0.00045488
0.000426364
0.000426364
0.00045488
0.000426364
0.000426364
0.000457133
0.000424114
0.00045488
0.000426364
0.000426364
0.000424114
0.000419114
0.000386091
0.00041686
0.00041686
0.000388342
0.000388342
0.000419114
0.000386091
0.00041686
0.00041686
0.000388342
0.000388342
0.00041686
0.000388342
0.000388342
0.000419114
0.000386091
0.00041686
0.000388342
0.000388342
0.000386091
0.00038109
0.00034807
0.000378837
0.000378837
0.000350321
0.00035032
0.00038109
0.00034807
0.000378837
0.000378837
0.00035032
0.000350321
0.000378838
0.00035032
0.000350321
0.00038109
0.00034807
0.000378837
0.00035032
0.00035032
0.00034807
0.000343066
0.000310047
0.000340814
0.000340814
0.000312297
0.000312297
0.000343066
0.000310047
0.000340813
0.000340814
0.000312297
0.000312297
0.000340814
0.000312297
0.000312297
0.000343066
0.000310047
0.000340814
0.000312297
0.000312297
0.000310047
0.000305044
0.000272023
0.000302792
0.000302792
0.000274273
0.000274273
0.000305044
0.000272023
0.000302792
0.000302792
0.000274273
0.000274273
0.000302792
0.000274273
0.000274273
0.000305044
0.000272023
0.000302792
0.000274273
0.000274273
0.000272023
0.000267016
0.000234002
0.000264767
0.000264767
0.00023625
0.000236249
0.000267016
0.000234002
0.000264767
0.000264767
0.000236249
0.00023625
0.000264767
0.000236249
0.00023625
0.000267016
0.000234002
0.000264767
0.000236249
0.000236249
0.000234002
0.00022899
0.000195977
0.000226743
0.000226743
0.000198222
0.000198222
0.00022899
0.000195977
0.000226743
0.000226743
0.000198222
0.000198222
0.000226743
0.000198222
0.000198223
0.00022899
0.000195977
0.000226743
0.000198222
0.000198222
0.000195977
0.000190957
0.00015795
0.000188717
0.000188717
0.000160192
0.000160192
0.000190957
0.00015795
0.000188717
0.000188717
0.000160192
0.000160192
0.000188717
0.000160192
0.000160193
0.000190957
0.00015795
0.000188717
0.000160192
0.000160192
0.00015795
0.000152914
0.000119915
0.000150684
0.000150684
0.000122152
0.000122152
0.000152914
0.000119915
0.000150684
0.000150684
0.000122152
0.000122152
0.000150684
0.000122152
0.000122152
0.000152914
0.000119915
0.000150684
0.000122151
0.000122152
0.000119915
0.000114855
8.18689e-05
0.000112643
0.000112643
8.40999e-05
8.41002e-05
0.000114855
8.18698e-05
0.000112643
0.000112643
8.40994e-05
8.40992e-05
0.000112643
8.41e-05
8.40994e-05
0.000114855
8.18681e-05
0.000112643
8.4099e-05
8.40992e-05
8.18683e-05
7.67742e-05
4.39034e-05
7.45893e-05
7.45896e-05
4.6147e-05
4.61476e-05
7.67743e-05
4.39045e-05
7.45885e-05
7.4588e-05
4.61451e-05
4.61442e-05
7.45886e-05
4.61462e-05
4.61441e-05
7.67735e-05
4.39009e-05
7.45881e-05
4.61435e-05
4.61429e-05
4.39006e-05
3.88485e-05
9.47415e-06
3.6862e-05
3.68625e-05
1.18074e-05
1.18068e-05
3.88491e-05
9.47323e-06
3.68603e-05
3.68583e-05
1.18067e-05
1.18026e-05
3.68576e-05
1.18048e-05
1.18007e-05
3.88454e-05
9.46997e-06
3.68568e-05
1.18028e-05
1.18026e-05
9.46863e-06
6.10881e-06
6.25333e-06
6.25202e-06
6.10871e-06
6.25069e-06
6.2491e-06
6.24863e-06
6.24712e-06
6.2463e-06
6.24777e-06
6.10624e-06
6.24806e-06
0.00367154
0.00367699
0.00367428
0.00367426
0.00369385
0.00367925
0.00370391
0.00367608
0.00369385
0.00367921
0.00367609
0.00370381
0.00368548
0.00370718
0.00370727
0.00363995
0.00365534
0.00365898
0.00363196
0.00363236
0.00363527
0.00363994
0.00365527
0.0036589
0.00363185
0.00365721
0.00365719
0.00365727
0.00362755
0.0036275
0.00362753
0.00362757
0.00364
0.00365404
0.00365787
0.00364656
0.00366029
0.00363624
0.00364742
0.00363229
0.00363525
0.00363985
0.00365783
0.00365395
0.00364649
0.00366023
0.00364722
0.00363641
0.00365958
0.00366005
0.00364317
0.00363611
0.00363601
0.00361314
0.00362598
0.00362562
0.00361106
0.00362334
0.00361015
0.00361307
0.00362609
0.00362571
0.00361105
0.00361888
0.00361887
0.00361875
0.00359304
0.00359303
0.00359301
0.00359289
0.00361066
0.00362503
0.00361858
0.00361039
0.00362283
0.00361146
0.00361009
0.00362339
0.0036102
0.00361057
0.0036183
0.00362515
0.00361031
0.00362276
0.00360995
0.00361145
0.00362655
0.00362574
0.00360916
0.00361173
0.00361081
0.00357063
0.00358535
0.00358622
0.00356942
0.00358432
0.00356845
0.00357058
0.00358558
0.00358618
0.00356919
0.00358287
0.00358285
0.0035828
0.00354865
0.0035486
0.00354863
0.00354858
0.00356877
0.00358535
0.00358187
0.00357129
0.00358429
0.00356956
0.00357093
0.00358449
0.00356826
0.00356882
0.00358188
0.0035855
0.00357134
0.00358425
0.00357096
0.00356955
0.00358569
0.00358579
0.00356829
0.0035698
0.00356976
0.00352318
0.00353995
0.00354144
0.00352184
0.00353947
0.00352141
0.0035232
0.00354028
0.00354151
0.00352201
0.00353683
0.00353683
0.00353681
0.00350131
0.0035013
0.00350129
0.00350128
0.00352183
0.00354012
0.00353612
0.00352467
0.0035397
0.00352229
0.00352436
0.00353974
0.00352081
0.00352189
0.00353619
0.00354024
0.00352474
0.00353973
0.00352443
0.0035223
0.00354037
0.0035403
0.00352153
0.00352184
0.00352205
0.00347475
0.00349208
0.00349329
0.0034737
0.00349169
0.00347339
0.00347479
0.00349212
0.00349331
0.00347366
0.0034893
0.0034893
0.0034893
0.00345304
0.00345304
0.00345303
0.00345306
0.00347383
0.00349223
0.00348867
0.00347687
0.00349199
0.00347407
0.00347667
0.00349184
0.00347373
0.00347386
0.00348872
0.00349231
0.00347693
0.00349204
0.00347668
0.00347423
0.00349216
0.00349207
0.00347371
0.00347365
0.00347388
0.00342608
0.00344361
0.00344457
0.00342539
0.00344327
0.00342515
0.00342621
0.0034436
0.00344459
0.00342524
0.00344099
0.00344098
0.003441
0.00340504
0.00340505
0.00340504
0.00340506
0.00342561
0.00344377
0.00344049
0.00342864
0.00344361
0.00342585
0.00342849
0.00344323
0.00342522