/*--------------------------------*- C++ -*----------------------------------*\
| =========                 |                                                 |
| \\      /  F ield         | OpenFOAM: The Open Source CFD Toolbox           |
|  \\    /   O peration     | Version:  v2012                                 |
|   \\  /    A nd           | Website:  www.openfoam.com                      |
|    \\/     M anipulation  |                                                 |
\*---------------------------------------------------------------------------*/
FoamFile
{
    version     2.0;
    format      ascii;
    class       volScalarField;
    location    "50";
    object      epsilon;
}
// * * * * * * * * * * * * * * * * * * * * * * * * * * * * * * * * * * * * * //

dimensions      [0 2 -3 0 0 0 0];


internalField   nonuniform List<scalar> 
171728
(
4.49335e-07
9.14523e-08
1.0406e-07
3.22885e-08
4.60166e-07
1.1333e-07
1.25498e-07
4.70819e-08
4.77475e-07
1.46878e-07
1.57419e-07
6.95531e-08
4.93226e-07
1.86798e-07
1.95377e-07
9.80405e-08
5.08891e-07
2.36227e-07
2.4144e-07
1.36466e-07
5.259e-07
2.94112e-07
2.96356e-07
1.89635e-07
5.46407e-07
3.5894e-07
3.59504e-07
2.57556e-07
5.71691e-07
4.29218e-07
4.29775e-07
3.39897e-07
6.01068e-07
5.03259e-07
5.03738e-07
4.39164e-07
6.315e-07
5.82174e-07
5.82343e-07
5.51865e-07
6.53931e-07
6.47867e-07
6.47908e-07
6.62609e-07
6.6974e-07
7.01456e-07
7.01477e-07
7.50124e-07
6.78939e-07
7.31503e-07
7.31524e-07
7.97976e-07
6.81403e-07
7.38e-07
7.3802e-07
8.05448e-07
6.81776e-07
7.3878e-07
7.38801e-07
8.06228e-07
6.8184e-07
7.38889e-07
7.3891e-07
8.06354e-07
6.81867e-07
7.38924e-07
7.38945e-07
8.0637e-07
6.81886e-07
7.38947e-07
7.38969e-07
8.06382e-07
6.81897e-07
7.38959e-07
7.38979e-07
8.06378e-07
6.81897e-07
7.38958e-07
7.38978e-07
8.06382e-07
6.81897e-07
7.38958e-07
7.38977e-07
8.06382e-07
6.81897e-07
7.38959e-07
7.38977e-07
8.06382e-07
6.81898e-07
7.3896e-07
7.38977e-07
8.06383e-07
6.81898e-07
7.3896e-07
7.38979e-07
8.06383e-07
6.81898e-07
7.3896e-07
7.38981e-07
8.06385e-07
6.81903e-07
7.3896e-07
7.3898e-07
8.06382e-07
6.81904e-07
7.3896e-07
7.38979e-07
8.06385e-07
6.81903e-07
7.38959e-07
7.38978e-07
8.06386e-07
6.819e-07
7.38959e-07
7.38977e-07
8.06385e-07
6.81899e-07
7.38959e-07
7.38978e-07
8.06385e-07
6.819e-07
7.3896e-07
7.38978e-07
8.06385e-07
6.81898e-07
7.38961e-07
7.38977e-07
8.06386e-07
6.81897e-07
7.38961e-07
7.38977e-07
8.06386e-07
6.81896e-07
7.3896e-07
7.38976e-07
8.06386e-07
6.81898e-07
7.3896e-07
7.38977e-07
8.06384e-07
6.81898e-07
7.3896e-07
7.38977e-07
8.06381e-07
6.81897e-07
7.38961e-07
7.38978e-07
8.06384e-07
6.81898e-07
7.38961e-07
7.38978e-07
8.06384e-07
6.81898e-07
7.3896e-07
7.38979e-07
8.06384e-07
6.81897e-07
7.3896e-07
7.38979e-07
8.06385e-07
6.81896e-07
7.38959e-07
7.38979e-07
8.06385e-07
6.81896e-07
7.38958e-07
7.38979e-07
8.06384e-07
6.81901e-07
7.38958e-07
7.38978e-07
8.06385e-07
6.81902e-07
7.38958e-07
7.38978e-07
8.06383e-07
6.81902e-07
7.38958e-07
7.38978e-07
8.06379e-07
6.81901e-07
7.38959e-07
7.38978e-07
8.06385e-07
6.81901e-07
7.38959e-07
7.38979e-07
8.06384e-07
6.819e-07
7.38959e-07
7.38979e-07
8.06384e-07
6.81898e-07
7.3896e-07
7.38979e-07
8.06385e-07
6.81898e-07
7.3896e-07
7.38979e-07
8.06386e-07
6.81898e-07
7.38959e-07
7.38979e-07
8.06386e-07
6.81897e-07
7.38959e-07
7.3898e-07
8.06385e-07
6.81896e-07
7.38959e-07
7.3898e-07
8.06382e-07
6.81897e-07
7.38959e-07
7.38979e-07
8.06378e-07
6.81898e-07
7.38959e-07
7.38979e-07
8.06382e-07
6.819e-07
7.3896e-07
7.38978e-07
8.06382e-07
6.81904e-07
7.3896e-07
7.38978e-07
8.0638e-07
6.81901e-07
7.38959e-07
7.38978e-07
8.06384e-07
6.81899e-07
7.38959e-07
7.38979e-07
8.06383e-07
6.81898e-07
7.38959e-07
7.38978e-07
8.06379e-07
6.81899e-07
7.3896e-07
7.38979e-07
8.06383e-07
6.81899e-07
7.38959e-07
7.38979e-07
8.06384e-07
6.81899e-07
7.38959e-07
7.38978e-07
8.06385e-07
6.81898e-07
7.38959e-07
7.38978e-07
8.06383e-07
6.81897e-07
7.38958e-07
7.38978e-07
8.0638e-07
6.81898e-07
7.38958e-07
7.38979e-07
8.06384e-07
6.81899e-07
7.38959e-07
7.38979e-07
8.06384e-07
6.81903e-07
7.3896e-07
7.38979e-07
8.06385e-07
6.81901e-07
7.38961e-07
7.38979e-07
8.06383e-07
6.81899e-07
7.38961e-07
7.38978e-07
8.0638e-07
6.81899e-07
7.3896e-07
7.38979e-07
8.06383e-07
6.81899e-07
7.3896e-07
7.38979e-07
8.06384e-07
6.81898e-07
7.3896e-07
7.38978e-07
8.06383e-07
6.81897e-07
7.38962e-07
7.38978e-07
8.0638e-07
6.81898e-07
7.38961e-07
7.38978e-07
8.06385e-07
6.81898e-07
7.3896e-07
7.38978e-07
8.06385e-07
6.81897e-07
7.3896e-07
7.38978e-07
8.06385e-07
6.81896e-07
7.3896e-07
7.38979e-07
8.06384e-07
6.81898e-07
7.38959e-07
7.38979e-07
8.0638e-07
6.81901e-07
7.38958e-07
7.38979e-07
8.06383e-07
6.819e-07
7.38958e-07
7.3898e-07
8.06384e-07
6.81899e-07
7.38958e-07
7.3898e-07
8.06384e-07
6.819e-07
7.3896e-07
7.3898e-07
8.06385e-07
6.81901e-07
7.38963e-07
7.38983e-07
8.06385e-07
6.819e-07
7.38969e-07
7.38987e-07
8.06385e-07
6.81902e-07
7.38975e-07
7.38993e-07
8.06385e-07
6.8191e-07
7.38978e-07
7.38996e-07
8.06384e-07
6.81909e-07
7.38982e-07
7.39e-07
8.06382e-07
6.81915e-07
7.38985e-07
7.39002e-07
8.06378e-07
6.8192e-07
7.38985e-07
7.39002e-07
8.06379e-07
6.81922e-07
7.38984e-07
7.39001e-07
8.06374e-07
6.81929e-07
7.3898e-07
7.38997e-07
8.06363e-07
6.81931e-07
7.38965e-07
7.38983e-07
8.06345e-07
6.81932e-07
7.38952e-07
7.38971e-07
8.06224e-07
6.80782e-07
7.2933e-07
7.29332e-07
7.94277e-07
3.33651e-08
8.84428e-08
9.0365e-08
3.25853e-08
8.9863e-08
9.0069e-08
4.52261e-07
4.5217e-07
4.52765e-07
4.52164e-07
8.95215e-08
8.77398e-08
3.25689e-08
9.4167e-08
8.9042e-08
3.1942e-08
3.36429e-08
4.66009e-08
9.17399e-08
9.75561e-08
1.06093e-07
1.11129e-07
3.29333e-08
4.66309e-08
9.20902e-08
9.21343e-08
1.06285e-07
1.06691e-07
9.0194e-08
1.06029e-07
1.0426e-07
3.28676e-08
4.65365e-08
9.41992e-08
1.18501e-07
1.07699e-07
4.59239e-08
4.77175e-08
6.8271e-08
1.1331e-07
1.17848e-07
1.38038e-07
1.40688e-07
4.77662e-08
6.85281e-08
1.13509e-07
1.14078e-07
1.38049e-07
1.38718e-07
1.11724e-07
1.38148e-07
1.36337e-07
4.76513e-08
6.85991e-08
1.14638e-07
1.49021e-07
1.3844e-07
6.79606e-08
6.98216e-08
9.62374e-08
1.46931e-07
1.4908e-07
1.7616e-07
1.77522e-07
7.00734e-08
9.6422e-08
1.468e-07
1.47417e-07
1.76291e-07
1.76609e-07
1.45066e-07
1.76027e-07
1.74641e-07
7.01631e-08
9.69693e-08
1.46995e-07
1.85211e-07
1.75583e-07
9.59908e-08
9.83238e-08
1.33934e-07
1.86954e-07
1.88181e-07
2.2296e-07
2.23478e-07
9.84899e-08
1.33848e-07
1.87304e-07
1.87536e-07
2.23788e-07
2.23719e-07
1.85648e-07
2.22925e-07
2.22209e-07
9.9051e-08
1.34797e-07
1.86467e-07
2.2914e-07
2.23044e-07
1.33405e-07
1.36989e-07
1.85332e-07
2.3617e-07
2.36516e-07
2.78564e-07
2.78386e-07
1.36881e-07
1.8502e-07
2.37014e-07
2.36892e-07
2.78855e-07
2.7881e-07
2.35622e-07
2.78701e-07
2.78302e-07
1.37826e-07
1.85913e-07
2.36351e-07
2.81564e-07
2.78519e-07
1.85368e-07
1.89551e-07
2.51766e-07
2.94131e-07
2.93771e-07
3.42598e-07
3.42498e-07
1.89241e-07
2.51684e-07
2.94102e-07
2.94125e-07
3.42956e-07
3.42824e-07
2.93814e-07
3.42797e-07
3.42425e-07
1.90086e-07
2.51957e-07
2.93973e-07
3.43415e-07
3.42797e-07
2.52007e-07
2.57317e-07
3.29986e-07
3.58789e-07
3.58882e-07
4.10762e-07
4.1099e-07
2.57235e-07
3.30094e-07
3.59215e-07
3.5901e-07
4.1077e-07
4.10732e-07
3.58729e-07
4.10919e-07
4.10744e-07
2.57458e-07
3.30058e-07
3.59037e-07
4.11552e-07
4.10867e-07
3.30139e-07
3.39882e-07
4.24633e-07
4.2916e-07
4.29291e-07
4.84496e-07
4.84401e-07
3.39944e-07
4.24323e-07
4.29115e-07
4.29134e-07
4.84491e-07
4.84612e-07
4.2907e-07
4.84516e-07
4.8426e-07
3.39927e-07
4.24884e-07
4.2919e-07
4.85033e-07
4.844e-07
4.24165e-07
4.39666e-07
5.33841e-07
5.0329e-07
5.03183e-07
5.62478e-07
5.62417e-07
4.39371e-07
5.33734e-07
5.03298e-07
5.03435e-07
5.62502e-07
5.62586e-07
5.03067e-07
5.62506e-07
5.62358e-07
4.39986e-07
5.34118e-07
5.03201e-07
5.62745e-07
5.62433e-07
5.33635e-07
5.52071e-07
6.46232e-07
5.82189e-07
5.8215e-07
6.33461e-07
6.33456e-07
5.51992e-07
6.46213e-07
5.82213e-07
5.82274e-07
6.33473e-07
6.33492e-07
5.82104e-07
6.33486e-07
6.33438e-07
5.5231e-07
6.46283e-07
5.82159e-07
6.33543e-07
6.33452e-07
6.46193e-07
6.62652e-07
7.36116e-07
6.4788e-07
6.47881e-07
6.89114e-07
6.8912e-07
6.62645e-07
7.36107e-07
6.47887e-07
6.47905e-07
6.89099e-07
6.89131e-07
6.47869e-07
6.89115e-07
6.89115e-07
6.62698e-07
7.36143e-07
6.47876e-07
6.89137e-07
6.89102e-07
7.36119e-07
7.50125e-07
7.93099e-07
7.01495e-07
7.01506e-07
7.27107e-07
7.27122e-07
7.50116e-07
7.93082e-07
7.01476e-07
7.01515e-07
7.27081e-07
7.27129e-07
7.01498e-07
7.27079e-07
7.27112e-07
7.50151e-07
7.93116e-07
7.01479e-07
7.271e-07
7.27085e-07
7.9311e-07
7.97969e-07
8.04403e-07
7.31558e-07
7.31574e-07
7.37412e-07
7.37424e-07
7.97954e-07
8.04375e-07
7.31532e-07
7.3158e-07
7.37385e-07
7.37429e-07
7.31565e-07
7.37369e-07
7.37418e-07
7.97985e-07
8.04409e-07
7.31536e-07
7.3739e-07
7.37388e-07
8.04424e-07
8.05448e-07
8.05587e-07
7.38061e-07
7.38075e-07
7.38769e-07
7.38778e-07
8.05423e-07
8.05554e-07
7.38037e-07
7.3808e-07
7.38742e-07
7.38783e-07
7.38069e-07
7.38715e-07
7.38768e-07
8.05453e-07
8.05587e-07
7.38039e-07
7.38735e-07
7.38739e-07
8.056e-07
8.06236e-07
8.05772e-07
7.38846e-07
7.38856e-07
7.38937e-07
7.38945e-07
8.06203e-07
8.05736e-07
7.3882e-07
7.38861e-07
7.38908e-07
7.38948e-07
7.38844e-07
7.38878e-07
7.38924e-07
8.06232e-07
8.05768e-07
7.38814e-07
7.38899e-07
7.38895e-07
8.05764e-07
8.06382e-07
8.05818e-07
7.38956e-07
7.38962e-07
7.38983e-07
7.38988e-07
8.06345e-07
8.05778e-07
7.38927e-07
7.38966e-07
7.38952e-07
7.38993e-07
7.38941e-07
7.38917e-07
7.38964e-07
8.06375e-07
8.05812e-07
7.38911e-07
7.38939e-07
7.38935e-07
8.0578e-07
8.06424e-07
8.05833e-07
7.38997e-07
7.39003e-07
7.39014e-07
7.39018e-07
8.06384e-07
8.05793e-07
7.38967e-07
7.39007e-07
7.38983e-07
7.39024e-07
7.38979e-07
7.38942e-07
7.38993e-07
8.06415e-07
8.05827e-07
7.3895e-07
7.38964e-07
7.38964e-07
8.05795e-07
8.06435e-07
8.05839e-07
7.3903e-07
7.39034e-07
7.39028e-07
7.39027e-07
8.06394e-07
8.05799e-07
7.38999e-07
7.3904e-07
7.38995e-07
7.39038e-07
7.39008e-07
7.38959e-07
7.38998e-07
8.06427e-07
8.05834e-07
7.38979e-07
7.3898e-07
7.38969e-07
8.05792e-07
8.0644e-07
8.05837e-07
7.39036e-07
7.39035e-07
7.39028e-07
7.39032e-07
8.064e-07
8.05799e-07
7.39003e-07
7.39046e-07
7.38995e-07
7.39037e-07
7.39006e-07
7.38959e-07
7.38998e-07
8.06433e-07
8.0583e-07
7.38977e-07
7.38978e-07
7.38969e-07
8.05796e-07
8.06439e-07
8.05837e-07
7.39036e-07
7.39043e-07
7.39026e-07
7.39034e-07
8.06401e-07
8.05802e-07
7.39003e-07
7.39045e-07
7.38994e-07
7.39037e-07
7.39006e-07
7.38959e-07
7.38998e-07
8.06431e-07
8.0583e-07
7.38977e-07
7.38978e-07
7.38969e-07
8.05799e-07
8.06438e-07
8.05834e-07
7.39033e-07
7.39042e-07
7.39024e-07
7.39033e-07
8.06404e-07
8.05799e-07
7.39002e-07
7.39045e-07
7.38993e-07
7.39037e-07
7.39006e-07
7.38959e-07
7.38998e-07
8.06431e-07
8.05831e-07
7.38977e-07
7.38978e-07
7.38969e-07
8.05799e-07
8.06435e-07
8.05834e-07
7.39031e-07
7.39042e-07
7.39022e-07
7.39033e-07
8.06402e-07
8.05801e-07
7.39001e-07
7.39045e-07
7.38992e-07
7.39037e-07
7.39006e-07
7.3896e-07
7.38998e-07
8.0643e-07
8.0583e-07
7.38977e-07
7.38977e-07
7.38969e-07
8.058e-07
8.06437e-07
8.05834e-07
7.3903e-07
7.39042e-07
7.39021e-07
7.39033e-07
8.06405e-07
8.058e-07
7.39e-07
7.39045e-07
7.38992e-07
7.39037e-07
7.39006e-07
7.3896e-07
7.38998e-07
8.0643e-07
8.0583e-07
7.38977e-07
7.38979e-07
7.38971e-07
8.05801e-07
8.06436e-07
8.05833e-07
7.39029e-07
7.39041e-07
7.3902e-07
7.39033e-07
8.06403e-07
8.05801e-07
7.39e-07
7.39045e-07
7.38992e-07
7.39037e-07
7.39007e-07
7.3896e-07
7.38999e-07
8.0643e-07
8.05831e-07
7.38984e-07
7.38982e-07
7.38974e-07
8.05802e-07
8.06435e-07
8.05832e-07
7.39028e-07
7.39041e-07
7.39019e-07
7.39033e-07
8.06404e-07
8.05801e-07
7.39e-07
7.39045e-07
7.38991e-07
7.39037e-07
7.39007e-07
7.38961e-07
7.38999e-07
8.06431e-07
8.05831e-07
7.38982e-07
7.3898e-07
7.38973e-07
8.058e-07
8.06434e-07
8.05832e-07
7.39027e-07
7.39041e-07
7.39018e-07
7.39033e-07
8.06404e-07
8.05801e-07
7.39e-07
7.39045e-07
7.38992e-07
7.39037e-07
7.39007e-07
7.3896e-07
7.38999e-07
8.06431e-07
8.05831e-07
7.38981e-07
7.3898e-07
7.38974e-07
8.05802e-07
8.06434e-07
8.05832e-07
7.39026e-07
7.39041e-07
7.39018e-07
7.39033e-07
8.06404e-07
8.05802e-07
7.39e-07
7.39046e-07
7.38992e-07
7.39037e-07
7.39008e-07
7.38959e-07
7.39e-07
8.06431e-07
8.05831e-07
7.38983e-07
7.38979e-07
7.38975e-07
8.05803e-07
8.06434e-07
8.05833e-07
7.39026e-07
7.39042e-07
7.39018e-07
7.39034e-07
8.06405e-07
8.05801e-07
7.39001e-07
7.39045e-07
7.38993e-07
7.39037e-07
7.39008e-07
7.38959e-07
7.39e-07
8.06431e-07
8.0583e-07
7.38984e-07
7.38977e-07
7.38975e-07
8.05803e-07
8.06436e-07
8.05836e-07
7.39026e-07
7.39042e-07
7.39018e-07
7.39034e-07
8.06404e-07
8.058e-07
7.39002e-07
7.39045e-07
7.38995e-07
7.39037e-07
7.39008e-07
7.38959e-07
7.39e-07
8.06429e-07
8.05829e-07
7.38984e-07
7.38978e-07
7.38975e-07
8.05802e-07
8.06438e-07
8.05836e-07
7.39026e-07
7.39042e-07
7.39018e-07
7.39034e-07
8.06403e-07
8.058e-07
7.39004e-07
7.39045e-07
7.38995e-07
7.39037e-07
7.39008e-07
7.3896e-07
7.39e-07
8.06429e-07
8.05831e-07
7.38984e-07
7.38978e-07
7.38976e-07
8.05803e-07
8.06437e-07
8.05834e-07
7.39026e-07
7.39042e-07
7.39017e-07
7.39034e-07
8.06403e-07
8.058e-07
7.39003e-07
7.39045e-07
7.38995e-07
7.39037e-07
7.39008e-07
7.38961e-07
7.39e-07
8.06431e-07
8.05831e-07
7.38984e-07
7.38978e-07
7.38976e-07
8.05803e-07
8.06436e-07
8.05834e-07
7.39025e-07
7.39046e-07
7.39016e-07
7.39036e-07
8.06404e-07
8.058e-07
7.39003e-07
7.39045e-07
7.38994e-07
7.39037e-07
7.39008e-07
7.38961e-07
7.39e-07
8.0643e-07
8.0583e-07
7.38984e-07
7.38977e-07
7.38976e-07
8.05804e-07
8.06436e-07
8.05834e-07
7.39025e-07
7.39044e-07
7.39016e-07
7.39035e-07
8.06403e-07
8.05799e-07
7.39002e-07
7.39045e-07
7.38994e-07
7.39036e-07
7.39008e-07
7.3896e-07
7.39e-07
8.0643e-07
8.0583e-07
7.38985e-07
7.38977e-07
7.38976e-07
8.05804e-07
8.06436e-07
8.05834e-07
7.39025e-07
7.39044e-07
7.39016e-07
7.39036e-07
8.06403e-07
8.05798e-07
7.39002e-07
7.39045e-07
7.38994e-07
7.39036e-07
7.39008e-07
7.3896e-07
7.38999e-07
8.06429e-07
8.05829e-07
7.38984e-07
7.38977e-07
7.38975e-07
8.05802e-07
8.06436e-07
8.05834e-07
7.39025e-07
7.39044e-07
7.39016e-07
7.39036e-07
8.06402e-07
8.05799e-07
7.39002e-07
7.39045e-07
7.38994e-07
7.39036e-07
7.39007e-07
7.3896e-07
7.38998e-07
8.06429e-07
8.0583e-07
7.38983e-07
7.38977e-07
7.38974e-07
8.05799e-07
8.06435e-07
8.05834e-07
7.39024e-07
7.39045e-07
7.39016e-07
7.39037e-07
8.06402e-07
8.05799e-07
7.39002e-07
7.39045e-07
7.38994e-07
7.39036e-07
7.39006e-07
7.38961e-07
7.38998e-07
8.06429e-07
8.0583e-07
7.38982e-07
7.38978e-07
7.38974e-07
8.05801e-07
8.06436e-07
8.05834e-07
7.39024e-07
7.39045e-07
7.39016e-07
7.39037e-07
8.06402e-07
8.058e-07
7.39003e-07
7.39045e-07
7.38995e-07
7.39037e-07
7.39006e-07
7.38961e-07
7.38998e-07
8.0643e-07
8.0583e-07
7.38982e-07
7.38978e-07
7.38975e-07
8.05801e-07
8.06436e-07
8.05834e-07
7.39024e-07
7.39046e-07
7.39016e-07
7.39037e-07
8.06403e-07
8.05799e-07
7.39003e-07
7.39045e-07
7.38994e-07
7.39038e-07
7.39007e-07
7.38961e-07
7.38999e-07
8.0643e-07
8.05831e-07
7.38983e-07
7.38979e-07
7.38975e-07
8.05802e-07
8.06436e-07
8.05833e-07
7.39024e-07
7.39045e-07
7.39016e-07
7.39037e-07
8.06402e-07
8.05799e-07
7.39002e-07
7.39047e-07
7.38994e-07
7.39039e-07
7.39007e-07
7.3896e-07
7.38999e-07
8.06432e-07
8.05833e-07
7.38983e-07
7.38979e-07
7.38975e-07
8.05803e-07
8.06435e-07
8.05834e-07
7.39024e-07
7.39045e-07
7.39014e-07
7.39035e-07
8.06402e-07
8.058e-07
7.39002e-07
7.39047e-07
7.38993e-07
7.39039e-07
7.39008e-07
7.38959e-07
7.38999e-07
8.06432e-07
8.05833e-07
7.38984e-07
7.38979e-07
7.38976e-07
8.05802e-07
8.06434e-07
8.05834e-07
7.39023e-07
7.39043e-07
7.39014e-07
7.39035e-07
8.06403e-07
8.05802e-07
7.39002e-07
7.39047e-07
7.38994e-07
7.39039e-07
7.39007e-07
7.38959e-07
7.38999e-07
8.06433e-07
8.05832e-07
7.38984e-07
7.38979e-07
7.38975e-07
8.05802e-07
8.06434e-07
8.05835e-07
7.39022e-07
7.39043e-07
7.39015e-07
7.39034e-07
8.06403e-07
8.05801e-07
7.39002e-07
7.39047e-07
7.38995e-07
7.39038e-07
7.39007e-07
7.38958e-07
7.38998e-07
8.06431e-07
8.05831e-07
7.38984e-07
7.38979e-07
7.38975e-07
8.05802e-07
8.06435e-07
8.05836e-07
7.39024e-07
7.39042e-07
7.39016e-07
7.39033e-07
8.06402e-07
8.058e-07
7.39004e-07
7.39046e-07
7.38996e-07
7.39037e-07
7.39006e-07
7.38958e-07
7.38997e-07
8.06431e-07
8.0583e-07
7.38983e-07
7.38978e-07
7.38974e-07
8.05801e-07
8.06437e-07
8.05836e-07
7.39025e-07
7.39041e-07
7.39017e-07
7.39033e-07
8.06401e-07
8.058e-07
7.39004e-07
7.39045e-07
7.38996e-07
7.39037e-07
7.39005e-07
7.38958e-07
7.38997e-07
8.0643e-07
8.0583e-07
7.38982e-07
7.38978e-07
7.38973e-07
8.05797e-07
8.06436e-07
8.05837e-07
7.39026e-07
7.39041e-07
7.39018e-07
7.39034e-07
8.06402e-07
8.05802e-07
7.39004e-07
7.39045e-07
7.38996e-07
7.39037e-07
7.39005e-07
7.38959e-07
7.38997e-07
8.0643e-07
8.05831e-07
7.38981e-07
7.38978e-07
7.38973e-07
8.05801e-07
8.06437e-07
8.05837e-07
7.39027e-07
7.39042e-07
7.39019e-07
7.39034e-07
8.06404e-07
8.05804e-07
7.39004e-07
7.39045e-07
7.38996e-07
7.39037e-07
7.39006e-07
7.38959e-07
7.38998e-07
8.0643e-07
8.0583e-07
7.38982e-07
7.38979e-07
7.38974e-07
8.05801e-07
8.06437e-07
8.05838e-07
7.39027e-07
7.39043e-07
7.3902e-07
7.39034e-07
8.06405e-07
8.05804e-07
7.39004e-07
7.39045e-07
7.38996e-07
7.39037e-07
7.39006e-07
7.3896e-07
7.38998e-07
8.0643e-07
8.0583e-07
7.38982e-07
7.38979e-07
7.38975e-07
8.05801e-07
8.06438e-07
8.0584e-07
7.39029e-07
7.39043e-07
7.39021e-07
7.39034e-07
8.06405e-07
8.05804e-07
7.39004e-07
7.39045e-07
7.38995e-07
7.39037e-07
7.39006e-07
7.3896e-07
7.38998e-07
8.0643e-07
8.05829e-07
7.38983e-07
7.38979e-07
7.38976e-07
8.05802e-07
8.0644e-07
8.05839e-07
7.3903e-07
7.39043e-07
7.39022e-07
7.39035e-07
8.06406e-07
8.05805e-07
7.39003e-07
7.39045e-07
7.38994e-07
7.39036e-07
7.39007e-07
7.3896e-07
7.38999e-07
8.06428e-07
8.05831e-07
7.38985e-07
7.3898e-07
7.38976e-07
8.05803e-07
8.06439e-07
8.05838e-07
7.3903e-07
7.39044e-07
7.39021e-07
7.39036e-07
8.06406e-07
8.05807e-07
7.39002e-07
7.39045e-07
7.38993e-07
7.39036e-07
7.39008e-07
7.3896e-07
7.39e-07
8.0643e-07
8.0583e-07
7.38985e-07
7.38979e-07
7.38977e-07
8.05804e-07
8.06438e-07
8.05838e-07
7.39029e-07
7.39045e-07
7.39021e-07
7.39037e-07
8.06408e-07
8.05807e-07
7.39002e-07
7.39045e-07
7.38993e-07
7.39036e-07
7.39008e-07
7.38959e-07
7.38999e-07
8.06429e-07
8.0583e-07
7.38985e-07
7.38981e-07
7.38976e-07
8.05803e-07
8.06438e-07
8.05839e-07
7.3903e-07
7.39045e-07
7.39022e-07
7.39037e-07
8.06408e-07
8.05807e-07
7.39001e-07
7.39045e-07
7.38993e-07
7.39037e-07
7.39007e-07
7.38959e-07
7.38997e-07
8.0643e-07
8.05831e-07
7.38984e-07
7.3898e-07
7.38974e-07
8.058e-07
8.06439e-07
8.05839e-07
7.3903e-07
7.39045e-07
7.39022e-07
7.39037e-07
8.06409e-07
8.05807e-07
7.39002e-07
7.39045e-07
7.38993e-07
7.39037e-07
7.39005e-07
7.3896e-07
7.38995e-07
8.06431e-07
8.05832e-07
7.38981e-07
7.3898e-07
7.38971e-07
8.05796e-07
8.06439e-07
8.05839e-07
7.3903e-07
7.39045e-07
7.39022e-07
7.39036e-07
8.06408e-07
8.05806e-07
7.39002e-07
7.39046e-07
7.38993e-07
7.39037e-07
7.39003e-07
7.38959e-07
7.38995e-07
8.06431e-07
8.05832e-07
7.38979e-07
7.38979e-07
7.38971e-07
8.05799e-07
8.06439e-07
8.05838e-07
7.3903e-07
7.39045e-07
7.39021e-07
7.39036e-07
8.06407e-07
8.05805e-07
7.39002e-07
7.39045e-07
7.38993e-07
7.39036e-07
7.39004e-07
7.3896e-07
7.38996e-07
8.06431e-07
8.0583e-07
7.3898e-07
7.38979e-07
7.38971e-07
8.05799e-07
8.06438e-07
8.05839e-07
7.3903e-07
7.39044e-07
7.39022e-07
7.39036e-07
8.06406e-07
8.05805e-07
7.39002e-07
7.39044e-07
7.38994e-07
7.39036e-07
7.39004e-07
7.3896e-07
7.38996e-07
8.06429e-07
8.05829e-07
7.3898e-07
7.38979e-07
7.38972e-07
8.05797e-07
8.06439e-07
8.05839e-07
7.3903e-07
7.39044e-07
7.39022e-07
7.39036e-07
8.06406e-07
8.05806e-07
7.39002e-07
7.39044e-07
7.38994e-07
7.39036e-07
7.39005e-07
7.3896e-07
7.38997e-07
8.06429e-07
8.05829e-07
7.3898e-07
7.38978e-07
7.38973e-07
8.05801e-07
8.06439e-07
8.05838e-07
7.3903e-07
7.39044e-07
7.39022e-07
7.39036e-07
8.06407e-07
8.05805e-07
7.39002e-07
7.39044e-07
7.38993e-07
7.39036e-07
7.39006e-07
7.3896e-07
7.38997e-07
8.06429e-07
8.0583e-07
7.38982e-07
7.38979e-07
7.38973e-07
8.058e-07
8.06438e-07
8.05838e-07
7.3903e-07
7.39044e-07
7.39022e-07
7.39036e-07
8.06406e-07
8.05805e-07
7.39002e-07
7.39044e-07
7.38993e-07
7.39036e-07
7.39005e-07
7.3896e-07
7.38996e-07
8.0643e-07
8.05829e-07
7.38981e-07
7.38979e-07
7.38973e-07
8.05797e-07
8.06438e-07
8.05838e-07
7.3903e-07
7.39044e-07
7.39022e-07
7.39036e-07
8.06407e-07
8.05806e-07
7.39001e-07
7.39044e-07
7.38993e-07
7.39036e-07
7.39004e-07
7.3896e-07
7.38997e-07
8.06429e-07
8.0583e-07
7.38981e-07
7.38979e-07
7.38973e-07
8.058e-07
8.06438e-07
8.05839e-07
7.3903e-07
7.39044e-07
7.39022e-07
7.39036e-07
8.06408e-07
8.05806e-07
7.39001e-07
7.39045e-07
7.38993e-07
7.39037e-07
7.39005e-07
7.38959e-07
7.38998e-07
8.0643e-07
8.05831e-07
7.38981e-07
7.38979e-07
7.38973e-07
8.05801e-07
8.06439e-07
8.05839e-07
7.3903e-07
7.39044e-07
7.39022e-07
7.39035e-07
8.06407e-07
8.05805e-07
7.39002e-07
7.39045e-07
7.38993e-07
7.39037e-07
7.39007e-07
7.38959e-07
7.38999e-07
8.0643e-07
8.05831e-07
7.38982e-07
7.38979e-07
7.38974e-07
8.05802e-07
8.06439e-07
8.05839e-07
7.39031e-07
7.39044e-07
7.39022e-07
7.39035e-07
8.06406e-07
8.05805e-07
7.39002e-07
7.39045e-07
7.38993e-07
7.39037e-07
7.39007e-07
7.38959e-07
7.38998e-07
8.06431e-07
8.05831e-07
7.38982e-07
7.38979e-07
7.38973e-07
8.05801e-07
8.06439e-07
8.05838e-07
7.3903e-07
7.39043e-07
7.39022e-07
7.39035e-07
8.06407e-07
8.05805e-07
7.39001e-07
7.39045e-07
7.38992e-07
7.39036e-07
7.39006e-07
7.38959e-07
7.38997e-07
8.0643e-07
8.0583e-07
7.38981e-07
7.38978e-07
7.38973e-07
8.05798e-07
8.06438e-07
8.05837e-07
7.3903e-07
7.39043e-07
7.39021e-07
7.39036e-07
8.06406e-07
8.05806e-07
7.39e-07
7.39045e-07
7.38992e-07
7.39036e-07
7.39005e-07
7.38959e-07
7.38997e-07
8.0643e-07
8.05829e-07
7.38981e-07
7.38979e-07
7.38973e-07
8.05801e-07
8.06437e-07
8.05837e-07
7.3903e-07
7.39045e-07
7.39022e-07
7.39037e-07
8.06408e-07
8.05806e-07
7.39e-07
7.39045e-07
7.38992e-07
7.39037e-07
7.39006e-07
7.38959e-07
7.38998e-07
8.06429e-07
8.0583e-07
7.38981e-07
7.38979e-07
7.38973e-07
8.05801e-07
8.06437e-07
8.05838e-07
7.3903e-07
7.39045e-07
7.39022e-07
7.39037e-07
8.06407e-07
8.05806e-07
7.39e-07
7.39045e-07
7.38992e-07
7.39037e-07
7.39007e-07
7.3896e-07
7.38999e-07
8.0643e-07
8.0583e-07
7.38982e-07
7.38979e-07
7.38973e-07
8.05802e-07
8.06438e-07
8.05839e-07
7.3903e-07
7.39045e-07
7.39022e-07
7.39037e-07
8.06408e-07
8.05807e-07
7.39001e-07
7.39045e-07
7.38993e-07
7.39037e-07
7.39007e-07
7.38961e-07
7.38998e-07
8.0643e-07
8.05831e-07
7.38981e-07
7.38979e-07
7.38973e-07
8.05801e-07
8.06439e-07
8.05839e-07
7.39031e-07
7.39045e-07
7.39023e-07
7.39036e-07
8.06408e-07
8.05807e-07
7.39001e-07
7.39045e-07
7.38993e-07
7.39037e-07
7.39006e-07
7.38961e-07
7.38997e-07
8.06431e-07
8.05829e-07
7.38981e-07
7.38978e-07
7.38972e-07
8.05798e-07
8.06439e-07
8.05839e-07
7.39031e-07
7.39045e-07
7.39023e-07
7.39036e-07
8.06408e-07
8.05806e-07
7.39002e-07
7.39045e-07
7.38994e-07
7.39037e-07
7.39005e-07
7.38961e-07
7.38997e-07
8.06429e-07
8.05831e-07
7.3898e-07
7.38979e-07
7.38973e-07
8.058e-07
8.06439e-07
8.05839e-07
7.39031e-07
7.39045e-07
7.39023e-07
7.39036e-07
8.06408e-07
8.05805e-07
7.39002e-07
7.39046e-07
7.38993e-07
7.39038e-07
7.39006e-07
7.3896e-07
7.38998e-07
8.06431e-07
8.05832e-07
7.38981e-07
7.38979e-07
7.38973e-07
8.05801e-07
8.06439e-07
8.05838e-07
7.39031e-07
7.39044e-07
7.39023e-07
7.39036e-07
8.06406e-07
8.05806e-07
7.39001e-07
7.39046e-07
7.38993e-07
7.39037e-07
7.39007e-07
7.3896e-07
7.38998e-07
8.06431e-07
8.05831e-07
7.38981e-07
7.38979e-07
7.38973e-07
8.058e-07
8.06438e-07
8.05839e-07
7.39031e-07
7.39044e-07
7.39022e-07
7.39036e-07
8.06408e-07
8.05805e-07
7.39001e-07
7.39046e-07
7.38993e-07
7.39037e-07
7.39006e-07
7.38962e-07
7.38997e-07
8.06431e-07
8.0583e-07
7.38981e-07
7.38979e-07
7.38973e-07
8.05798e-07
8.06439e-07
8.05838e-07
7.3903e-07
7.39044e-07
7.39022e-07
7.39036e-07
8.06406e-07
8.05807e-07
7.39001e-07
7.39045e-07
7.38993e-07
7.39036e-07
7.39005e-07
7.38962e-07
7.38998e-07
8.06429e-07
8.0583e-07
7.38981e-07
7.38979e-07
7.38973e-07
8.05802e-07
8.06438e-07
8.05838e-07
7.3903e-07
7.39044e-07
7.39021e-07
7.39036e-07
8.06408e-07
8.05806e-07
7.39001e-07
7.39044e-07
7.38992e-07
7.39036e-07
7.39007e-07
7.38961e-07
7.38999e-07
8.0643e-07
8.0583e-07
7.38983e-07
7.38978e-07
7.38974e-07
8.05803e-07
8.06437e-07
8.05836e-07
7.3903e-07
7.39044e-07
7.39021e-07
7.39036e-07
8.06407e-07
8.05806e-07
7.39e-07
7.39044e-07
7.38991e-07
7.39036e-07
7.39008e-07
7.3896e-07
7.39e-07
8.0643e-07
8.0583e-07
7.38983e-07
7.38978e-07
7.38974e-07
8.05803e-07
8.06436e-07
8.05837e-07
7.39029e-07
7.39044e-07
7.39021e-07
7.39036e-07
8.06407e-07
8.05806e-07
7.39e-07
7.39044e-07
7.38992e-07
7.39036e-07
7.39008e-07
7.3896e-07
7.38999e-07
8.06429e-07
8.0583e-07
7.38982e-07
7.38979e-07
7.38974e-07
8.05801e-07
8.06438e-07
8.05838e-07
7.39029e-07
7.39044e-07
7.39021e-07
7.39036e-07
8.06408e-07
8.05806e-07
7.39e-07
7.39045e-07
7.38992e-07
7.39037e-07
7.39006e-07
7.38959e-07
7.38997e-07
8.0643e-07
8.0583e-07
7.38982e-07
7.38979e-07
7.38973e-07
8.05798e-07
8.06438e-07
8.05839e-07
7.3903e-07
7.39044e-07
7.39022e-07
7.39036e-07
8.06407e-07
8.05805e-07
7.39001e-07
7.39045e-07
7.38993e-07
7.39037e-07
7.39005e-07
7.38959e-07
7.38997e-07
8.0643e-07
8.05831e-07
7.38981e-07
7.3898e-07
7.38973e-07
8.058e-07
8.06439e-07
8.05839e-07
7.3903e-07
7.39044e-07
7.39022e-07
7.39036e-07
8.06406e-07
8.05804e-07
7.39001e-07
7.39045e-07
7.38993e-07
7.39037e-07
7.39006e-07
7.38958e-07
7.38998e-07
8.06431e-07
8.05831e-07
7.38981e-07
7.3898e-07
7.38973e-07
8.05801e-07
8.06439e-07
8.05839e-07
7.39031e-07
7.39044e-07
7.39022e-07
7.39036e-07
8.06405e-07
8.05805e-07
7.39001e-07
7.39045e-07
7.38993e-07
7.39037e-07
7.39007e-07
7.38958e-07
7.38999e-07
8.06431e-07
8.05831e-07
7.38982e-07
7.3898e-07
7.38974e-07
8.05801e-07
8.06439e-07
8.05838e-07
7.39031e-07
7.39044e-07
7.39022e-07
7.39035e-07
8.06407e-07
8.05805e-07
7.39001e-07
7.39045e-07
7.38993e-07
7.39037e-07
7.39007e-07
7.3896e-07
7.38999e-07
8.06431e-07
8.05831e-07
7.38982e-07
7.3898e-07
7.38974e-07
8.05802e-07
8.06438e-07
8.05838e-07
7.39031e-07
7.39044e-07
7.39021e-07
7.39035e-07
8.06406e-07
8.05807e-07
7.39001e-07
7.39045e-07
7.38992e-07
7.39036e-07
7.39008e-07
7.38963e-07
7.38999e-07
8.06431e-07
8.05831e-07
7.38983e-07
7.38983e-07
7.38973e-07
8.05803e-07
8.06438e-07
8.05837e-07
7.39031e-07
7.39045e-07
7.3902e-07
7.39035e-07
8.06408e-07
8.05806e-07
7.39001e-07
7.39046e-07
7.3899e-07
7.39035e-07
7.39008e-07
7.38968e-07
7.38998e-07
8.06431e-07
8.05831e-07
7.38983e-07
7.38987e-07
7.38972e-07
8.05802e-07
8.06437e-07
8.05837e-07
7.39031e-07
7.39046e-07
7.39018e-07
7.39033e-07
8.06408e-07
8.05807e-07
7.39001e-07
7.39046e-07
7.38988e-07
7.39033e-07
7.39009e-07
7.38973e-07
7.38996e-07
8.06431e-07
8.05831e-07
7.38983e-07
7.38991e-07
7.38971e-07
8.05802e-07
8.06437e-07
8.05837e-07
7.3903e-07
7.39046e-07
7.39018e-07
7.39034e-07
8.06409e-07
8.05808e-07
7.39e-07
7.39045e-07
7.38988e-07
7.39032e-07
7.39008e-07
7.38977e-07
7.38995e-07
8.06431e-07
8.05832e-07
7.38983e-07
7.38995e-07
7.3897e-07
8.05802e-07
8.06437e-07
8.05836e-07
7.39031e-07
7.39046e-07
7.39016e-07
7.39031e-07
8.06409e-07
8.05808e-07
7.39001e-07
7.39045e-07
7.38986e-07
7.3903e-07
7.39007e-07
7.3898e-07
7.38992e-07
8.0643e-07
8.05832e-07
7.38983e-07
7.38998e-07
7.38966e-07
8.058e-07
8.06436e-07
8.05835e-07
7.39029e-07
7.39044e-07
7.39017e-07
7.39033e-07
8.06409e-07
8.05807e-07
7.38998e-07
7.39043e-07
7.38988e-07
7.39032e-07
7.39004e-07
7.3898e-07
7.38992e-07
8.0643e-07
8.0583e-07
7.38979e-07
7.38998e-07
7.38966e-07
8.05796e-07
8.06434e-07
8.05833e-07
7.39036e-07
7.39051e-07
7.39018e-07
7.39032e-07
8.06409e-07
8.05805e-07
7.39007e-07
7.39051e-07
7.38989e-07
7.39032e-07
7.39011e-07
7.38979e-07
7.38993e-07
8.06428e-07
8.05829e-07
7.38985e-07
7.38996e-07
7.38967e-07
8.05796e-07
8.06433e-07
8.0583e-07
7.39039e-07
7.39053e-07
7.39017e-07
7.3903e-07
8.06406e-07
8.05802e-07
7.39011e-07
7.39053e-07
7.38989e-07
7.3903e-07
7.39014e-07
7.38976e-07
7.38992e-07
8.06427e-07
8.05825e-07
7.38989e-07
7.38993e-07
7.38966e-07
8.05792e-07
8.06429e-07
8.05825e-07
7.39041e-07
7.39054e-07
7.39011e-07
7.39022e-07
8.06402e-07
8.05796e-07
7.39013e-07
7.39054e-07
7.38982e-07
7.39024e-07
7.39015e-07
7.38969e-07
7.38982e-07
8.06422e-07
8.05818e-07
7.3899e-07
7.38986e-07
7.38958e-07
8.05783e-07
8.06422e-07
8.05812e-07
7.39038e-07
7.39049e-07
7.38995e-07
7.39004e-07
8.06394e-07
8.05783e-07
7.39009e-07
7.39051e-07
7.38966e-07
7.39008e-07
7.39009e-07
7.38951e-07
7.38966e-07
8.06415e-07
8.05809e-07
7.38985e-07
7.38969e-07
7.3894e-07
8.05773e-07
8.06404e-07
8.0572e-07
7.39025e-07
7.39033e-07
7.38876e-07
7.38883e-07
8.06377e-07
8.05693e-07
7.38996e-07
7.39036e-07
7.38844e-07
7.38884e-07
7.38996e-07
7.38832e-07
7.38847e-07
8.06399e-07
8.05719e-07
7.38969e-07
7.38848e-07
7.38814e-07
8.05675e-07
8.06285e-07
8.00365e-07
7.39004e-07
7.3901e-07
7.34258e-07
7.34264e-07
8.0626e-07
8.00348e-07
7.38972e-07
7.39015e-07
7.34239e-07
7.34254e-07
7.38977e-07
7.34226e-07
7.34225e-07
8.06282e-07
8.00358e-07
7.38942e-07
7.34231e-07
7.34205e-07
8.00297e-07
7.94345e-07
7.29356e-07
7.2936e-07
7.94331e-07
7.29343e-07
7.2935e-07
6.80769e-07
6.80766e-07
6.80759e-07
7.29323e-07
7.94336e-07
7.2931e-07
6.63611e-07
3.29093e-07
5.73483e-07
5.73466e-07
1.11602e-09
8.92943e-08
1.58391e-08
4.37122e-07
1.46251e-09
9.44623e-08
4.38211e-07
5.87845e-08
2.84834e-08
7.13194e-08
2.38207e-08
6.57666e-09
2.51494e-07
4.77768e-09
3.58541e-07
1.76234e-06
3.40716e-06
6.6311e-09
1.85782e-07
5.37069e-09
2.83418e-07
4.49229e-07
4.49859e-07
4.49043e-07
4.5596e-07
4.55847e-07
4.56391e-07
4.55636e-07
1.50859e-09
9.51907e-08
2.49526e-07
9.3576e-08
1.31819e-09
7.44658e-08
2.52728e-07
1.57667e-06
3.02662e-06
1.66312e-09
2.54256e-07
1.35099e-07
1.06177e-07
1.57734e-09
2.57256e-07
1.15268e-07
2.51795e-07
2.21888e-07
3.75859e-08
2.24965e-07
1.91224e-07
1.49186e-08
5.79685e-07
1.14516e-08
7.66215e-07
7.63822e-06
1.07736e-05
1.51276e-08
5.64353e-07
1.08971e-08
7.65908e-07
4.60122e-07
4.60675e-07
4.59966e-07
4.73335e-07
4.73159e-07
4.73657e-07
4.73188e-07
2.60337e-09
5.74611e-08
2.72052e-07
1.21247e-07
2.164e-09
5.27634e-08
2.79384e-07