/*--------------------------------*- C++ -*----------------------------------*\
| =========                 |                                                 |
| \\      /  F ield         | OpenFOAM: The Open Source CFD Toolbox           |
|  \\    /   O peration     | Version:  v2012                                 |
|   \\  /    A nd           | Website:  www.openfoam.com                      |
|    \\/     M anipulation  |                                                 |
\*---------------------------------------------------------------------------*/
FoamFile
{
    version     2.0;
    format      ascii;
    class       volScalarField;
    location    "50";
    object      k;
}
// * * * * * * * * * * * * * * * * * * * * * * * * * * * * * * * * * * * * * //

dimensions      [0 2 -2 0 0 0 0];


internalField   nonuniform List<scalar> 
171728
(
2.03244e-05
4.39129e-06
4.72536e-06
1.45195e-06
2.08321e-05
5.42792e-06
5.73346e-06
2.0669e-06
2.16174e-05
6.93951e-06
7.20607e-06
2.98765e-06
2.2335e-05
8.75367e-06
9.01337e-06
4.31889e-06
2.30696e-05
1.09836e-05
1.11733e-05
6.13586e-06
2.38871e-05
1.35839e-05
1.36767e-05
8.61083e-06
2.48941e-05
1.64922e-05
1.65139e-05
1.17181e-05
2.61442e-05
1.964e-05
1.9661e-05
1.53487e-05
2.75879e-05
2.28922e-05
2.29077e-05
1.95615e-05
2.90983e-05
2.61217e-05
2.6129e-05
2.38964e-05
3.00953e-05
2.85052e-05
2.85067e-05
2.7608e-05
3.08361e-05
3.05651e-05
3.05654e-05
3.0573e-05
3.12996e-05
3.17923e-05
3.17925e-05
3.24007e-05
3.14238e-05
3.20702e-05
3.20704e-05
3.27345e-05
3.14418e-05
3.21034e-05
3.21036e-05
3.27627e-05
3.14444e-05
3.21081e-05
3.21083e-05
3.27684e-05
3.14453e-05
3.21093e-05
3.21095e-05
3.27688e-05
3.14459e-05
3.21098e-05
3.211e-05
3.27693e-05
3.14462e-05
3.21103e-05
3.21105e-05
3.27691e-05
3.14463e-05
3.21106e-05
3.21107e-05
3.27694e-05
3.14465e-05
3.21106e-05
3.21107e-05
3.27694e-05
3.14464e-05
3.21106e-05
3.21108e-05
3.27694e-05
3.14464e-05
3.21106e-05
3.21107e-05
3.27693e-05
3.14466e-05
3.21106e-05
3.21108e-05
3.27694e-05
3.14465e-05
3.21106e-05
3.21109e-05
3.27694e-05
3.14466e-05
3.21107e-05
3.21108e-05
3.27693e-05
3.14467e-05
3.21106e-05
3.21108e-05
3.27695e-05
3.14466e-05
3.21105e-05
3.21107e-05
3.27694e-05
3.14465e-05
3.21106e-05
3.21107e-05
3.27694e-05
3.14467e-05
3.21106e-05
3.21107e-05
3.27694e-05
3.14466e-05
3.21107e-05
3.21107e-05
3.27694e-05
3.14465e-05
3.21107e-05
3.21107e-05
3.27694e-05
3.14463e-05
3.21107e-05
3.21106e-05
3.27694e-05
3.14465e-05
3.21106e-05
3.21107e-05
3.27694e-05
3.14466e-05
3.21106e-05
3.21107e-05
3.27694e-05
3.14465e-05
3.21106e-05
3.21107e-05
3.27692e-05
3.14465e-05
3.21106e-05
3.21107e-05
3.27694e-05
3.14467e-05
3.21106e-05
3.21107e-05
3.27694e-05
3.14466e-05
3.21106e-05
3.21108e-05
3.27694e-05
3.14464e-05
3.21105e-05
3.21108e-05
3.27694e-05
3.14463e-05
3.21105e-05
3.21107e-05
3.27694e-05
3.14464e-05
3.21105e-05
3.21108e-05
3.27694e-05
3.14466e-05
3.21106e-05
3.21107e-05
3.27694e-05
3.14466e-05
3.21106e-05
3.21107e-05
3.27693e-05
3.14466e-05
3.21106e-05
3.21107e-05
3.27692e-05
3.14466e-05
3.21106e-05
3.21108e-05
3.27695e-05
3.14467e-05
3.21108e-05
3.21108e-05
3.27693e-05
3.14466e-05
3.21106e-05
3.21108e-05
3.27694e-05
3.14464e-05
3.21107e-05
3.21108e-05
3.27694e-05
3.14466e-05
3.21107e-05
3.21107e-05
3.27694e-05
3.14465e-05
3.21106e-05
3.21108e-05
3.27694e-05
3.14464e-05
3.21106e-05
3.21109e-05
3.27694e-05
3.14464e-05
3.21106e-05
3.21108e-05
3.27692e-05
3.14465e-05
3.21106e-05
3.21108e-05
3.27691e-05
3.14465e-05
3.21106e-05
3.21108e-05
3.27693e-05
3.14466e-05
3.21107e-05
3.21108e-05
3.27693e-05
3.14467e-05
3.21107e-05
3.21107e-05
3.27692e-05
3.14466e-05
3.21106e-05
3.21107e-05
3.27694e-05
3.14465e-05
3.21107e-05
3.21108e-05
3.27693e-05
3.14466e-05
3.21106e-05
3.21108e-05
3.27691e-05
3.14467e-05
3.21107e-05
3.21107e-05
3.27694e-05
3.14466e-05
3.21106e-05
3.21107e-05
3.27694e-05
3.14465e-05
3.21106e-05
3.21107e-05
3.27694e-05
3.14464e-05
3.21106e-05
3.21107e-05
3.27693e-05
3.14465e-05
3.21106e-05
3.21107e-05
3.27692e-05
3.14466e-05
3.21106e-05
3.21108e-05
3.27694e-05
3.14466e-05
3.21107e-05
3.21107e-05
3.27693e-05
3.14468e-05
3.21107e-05
3.21107e-05
3.27694e-05
3.14466e-05
3.21107e-05
3.21108e-05
3.27693e-05
3.14465e-05
3.21107e-05
3.21108e-05
3.27692e-05
3.14466e-05
3.21107e-05
3.21108e-05
3.27694e-05
3.14466e-05
3.21107e-05
3.21107e-05
3.27693e-05
3.14464e-05
3.21107e-05
3.21107e-05
3.27693e-05
3.14464e-05
3.21108e-05
3.21108e-05
3.27692e-05
3.14466e-05
3.21107e-05
3.21107e-05
3.27695e-05
3.14464e-05
3.21107e-05
3.21107e-05
3.27694e-05
3.14463e-05
3.21107e-05
3.21107e-05
3.27694e-05
3.14463e-05
3.21107e-05
3.21107e-05
3.27693e-05
3.14465e-05
3.21106e-05
3.21107e-05
3.27692e-05
3.14466e-05
3.21106e-05
3.21108e-05
3.27694e-05
3.14466e-05
3.21107e-05
3.21108e-05
3.27694e-05
3.14465e-05
3.21106e-05
3.21108e-05
3.27693e-05
3.14467e-05
3.21107e-05
3.21108e-05
3.27694e-05
3.14467e-05
3.21107e-05
3.21109e-05
3.27694e-05
3.14465e-05
3.21109e-05
3.21109e-05
3.27694e-05
3.14466e-05
3.2111e-05
3.2111e-05
3.27694e-05
3.14468e-05
3.2111e-05
3.21111e-05
3.27693e-05
3.14467e-05
3.21111e-05
3.21112e-05
3.27693e-05
3.14468e-05
3.21112e-05
3.21112e-05
3.27692e-05
3.1447e-05
3.21113e-05
3.21113e-05
3.27694e-05
3.14471e-05
3.21115e-05
3.21115e-05
3.27694e-05
3.14471e-05
3.21117e-05
3.21117e-05
3.27694e-05
3.14472e-05
3.2112e-05
3.2112e-05
3.27696e-05
3.14472e-05
3.21113e-05
3.21113e-05
3.2768e-05
3.14357e-05
3.19701e-05
3.197e-05
3.26537e-05
1.51656e-06
4.26783e-06
4.3288e-06
1.48509e-06
4.37294e-06
4.39208e-06
2.04404e-05
2.04438e-05
2.04609e-05
2.04408e-05
4.37571e-06
4.24868e-06
1.43718e-06
4.40398e-06
4.31567e-06
1.43384e-06
1.53046e-06
2.06217e-06
4.37097e-06
4.56208e-06
5.05887e-06
5.20509e-06
1.5013e-06
2.06463e-06
4.44782e-06
4.46271e-06
5.10756e-06
5.14841e-06
4.28382e-06
5.0892e-06
4.96473e-06
1.4515e-06
2.03361e-06
4.46334e-06
5.40673e-06
5.11931e-06
2.02747e-06
2.09861e-06
2.9328e-06
5.39497e-06
5.52309e-06
6.5123e-06
6.61208e-06
2.10341e-06
2.95872e-06
5.43412e-06
5.48565e-06
6.53541e-06
6.58745e-06
5.31273e-06
6.54409e-06
6.42331e-06
2.07282e-06
2.94468e-06
5.44844e-06
6.81455e-06
6.53311e-06
2.91823e-06
3.00094e-06
4.23762e-06
6.91898e-06
7.00931e-06
8.26503e-06
8.33296e-06
3.02683e-06
4.25976e-06
6.93226e-06
6.97893e-06
8.27092e-06
8.29934e-06
6.81929e-06
8.26361e-06
8.17714e-06
3.01414e-06
4.27545e-06
6.92288e-06
8.52707e-06
8.23311e-06
4.22218e-06
4.33594e-06
6.01561e-06
8.75809e-06
8.82098e-06
1.03845e-05
1.0419e-05
4.35689e-06
6.02199e-06
8.77166e-06
8.79404e-06
1.04224e-05
1.04285e-05
8.68173e-06
1.03867e-05
1.0342e-05
4.37469e-06
6.06487e-06
8.73046e-06
1.06034e-05
1.03914e-05
5.98988e-06
6.16086e-06
8.41496e-06
1.09767e-05
1.1002e-05
1.28807e-05
1.28779e-05
6.16603e-06
8.40956e-06
1.10152e-05
1.10174e-05
1.28928e-05
1.28983e-05
1.09454e-05
1.28907e-05
1.2865e-05
6.20898e-06
8.45176e-06
1.09875e-05
1.30053e-05
1.28812e-05
8.41367e-06
8.60996e-06
1.14563e-05
1.35811e-05
1.35681e-05
1.57548e-05
1.5751e-05
8.60429e-06
1.14551e-05
1.35783e-05
1.35856e-05
1.57691e-05
1.57676e-05
1.35634e-05
1.57661e-05
1.57454e-05
8.64503e-06
1.14712e-05
1.35754e-05
1.57911e-05
1.57649e-05
1.14653e-05
1.1709e-05
1.50262e-05
1.64828e-05
1.64871e-05
1.88054e-05
1.88156e-05
1.17073e-05
1.50332e-05
1.65016e-05
1.6495e-05
1.88032e-05
1.88038e-05
1.64788e-05
1.88124e-05
1.88045e-05
1.17208e-05
1.50296e-05
1.64946e-05
1.88388e-05
1.88096e-05
1.50357e-05
1.53465e-05
1.91328e-05
1.96365e-05
1.96425e-05
2.20825e-05
2.20782e-05
1.53491e-05
1.91154e-05
1.96307e-05
1.96343e-05
2.20798e-05
2.20866e-05
1.96328e-05
2.2083e-05
2.20718e-05
1.53461e-05
1.91419e-05
1.96375e-05
2.20986e-05
2.20779e-05
1.91077e-05
1.95877e-05
2.33493e-05
2.28933e-05
2.28884e-05
2.53436e-05
2.53407e-05
1.95704e-05
2.33437e-05
2.28922e-05
2.2899e-05
2.53449e-05
2.53485e-05
2.28828e-05
2.53446e-05
2.53376e-05
1.96012e-05
2.33635e-05
2.28887e-05
2.53544e-05
2.53414e-05
2.33393e-05
2.39062e-05
2.71858e-05
2.61217e-05
2.61197e-05
2.79884e-05
2.79879e-05
2.39017e-05
2.71853e-05
2.61232e-05
2.61255e-05
2.79897e-05
2.79895e-05
2.61174e-05
2.79902e-05
2.79872e-05
2.39183e-05
2.71878e-05
2.61204e-05
2.79924e-05
2.79886e-05
2.71842e-05
2.76103e-05
3.01615e-05
2.85044e-05
2.85041e-05
3.0071e-05
3.0071e-05
2.76103e-05
3.01616e-05
2.85054e-05
2.8505e-05
3.00713e-05
3.00711e-05
2.85036e-05
3.00722e-05
3.00709e-05
2.76121e-05
3.01621e-05
2.85048e-05
3.00727e-05
3.00713e-05
3.01615e-05
3.05738e-05
3.22518e-05
3.0565e-05
3.05651e-05
3.1607e-05
3.16072e-05
3.05741e-05
3.22516e-05
3.05651e-05
3.05651e-05
3.16068e-05
3.1607e-05
3.0565e-05
3.16073e-05
3.16072e-05
3.05745e-05
3.22519e-05
3.05652e-05
3.16075e-05
3.16071e-05
3.2252e-05
3.24011e-05
3.27131e-05
3.17928e-05
3.1793e-05
3.20432e-05
3.20433e-05
3.2401e-05
3.27126e-05
3.17926e-05
3.17928e-05
3.20431e-05
3.20431e-05
3.1793e-05
3.2043e-05
3.20435e-05
3.24011e-05
3.27127e-05
3.17929e-05
3.20432e-05
3.20434e-05
3.27134e-05
3.27344e-05
3.27556e-05
3.2071e-05
3.20711e-05
3.21012e-05
3.21011e-05
3.27339e-05
3.27549e-05
3.20709e-05
3.20708e-05
3.2101e-05
3.21009e-05
3.20713e-05
3.21006e-05
3.21012e-05
3.2734e-05
3.2755e-05
3.20712e-05
3.21007e-05
3.21011e-05
3.27556e-05
3.27632e-05
3.27633e-05
3.21044e-05
3.21043e-05
3.21084e-05
3.21082e-05
3.27625e-05
3.27626e-05
3.21043e-05
3.21041e-05
3.21081e-05
3.21079e-05
3.21043e-05
3.21076e-05
3.21078e-05
3.27626e-05
3.27627e-05
3.21042e-05
3.21078e-05
3.21077e-05
3.27627e-05
3.27695e-05
3.27652e-05
3.21091e-05
3.21089e-05
3.211e-05
3.21098e-05
3.27687e-05
3.27644e-05
3.21088e-05
3.21086e-05
3.21097e-05
3.21095e-05
3.21084e-05
3.21091e-05
3.21091e-05
3.27688e-05
3.27645e-05
3.21083e-05
3.21093e-05
3.2109e-05
3.27634e-05
3.2771e-05
3.27657e-05
3.21102e-05
3.211e-05
3.21107e-05
3.21105e-05
3.27702e-05
3.27648e-05
3.211e-05
3.21098e-05
3.21104e-05
3.21102e-05
3.21093e-05
3.21097e-05
3.21098e-05
3.27702e-05
3.2765e-05
3.21093e-05
3.21099e-05
3.21097e-05
3.27638e-05
3.27714e-05
3.27661e-05
3.2111e-05
3.21108e-05
3.21113e-05
3.21112e-05
3.27705e-05
3.27653e-05
3.21108e-05
3.21106e-05
3.2111e-05
3.21109e-05
3.21101e-05
3.21102e-05
3.21102e-05
3.27706e-05
3.27654e-05
3.211e-05
3.21104e-05
3.21101e-05
3.27638e-05
3.27718e-05
3.2766e-05
3.21117e-05
3.21115e-05
3.21115e-05
3.21115e-05
3.2771e-05
3.27653e-05
3.21114e-05
3.21113e-05
3.21112e-05
3.21111e-05
3.21105e-05
3.21106e-05
3.21103e-05
3.27711e-05
3.27653e-05
3.21104e-05
3.21108e-05
3.21102e-05
3.27642e-05
3.27717e-05
3.27659e-05
3.21117e-05
3.21116e-05
3.21115e-05
3.21115e-05
3.2771e-05
3.27654e-05
3.21114e-05
3.21113e-05
3.21112e-05
3.21111e-05
3.21105e-05
3.21106e-05
3.21103e-05
3.2771e-05
3.27653e-05
3.21104e-05
3.21107e-05
3.21102e-05
3.27642e-05
3.27716e-05
3.27658e-05
3.21116e-05
3.21117e-05
3.21115e-05
3.21115e-05
3.27711e-05
3.27653e-05
3.21114e-05
3.21113e-05
3.21112e-05
3.21111e-05
3.21105e-05
3.21106e-05
3.21103e-05
3.2771e-05
3.27653e-05
3.21104e-05
3.21108e-05
3.21102e-05
3.27643e-05
3.27715e-05
3.27659e-05
3.21116e-05
3.21116e-05
3.21115e-05
3.21115e-05
3.2771e-05
3.27654e-05
3.21114e-05
3.21113e-05
3.21112e-05
3.21111e-05
3.21105e-05
3.21106e-05
3.21103e-05
3.27709e-05
3.27653e-05
3.21104e-05
3.21108e-05
3.21102e-05
3.27643e-05
3.27716e-05
3.27659e-05
3.21117e-05
3.21116e-05
3.21115e-05
3.21114e-05
3.27711e-05
3.27653e-05
3.21114e-05
3.21113e-05
3.21112e-05
3.21111e-05
3.21105e-05
3.21106e-05
3.21103e-05
3.2771e-05
3.27653e-05
3.21104e-05
3.21108e-05
3.21102e-05
3.27643e-05
3.27716e-05
3.27659e-05
3.21116e-05
3.21116e-05
3.21114e-05
3.21114e-05
3.2771e-05
3.27653e-05
3.21114e-05
3.21113e-05
3.21112e-05
3.21111e-05
3.21105e-05
3.21106e-05
3.21103e-05
3.27709e-05
3.27653e-05
3.21104e-05
3.2111e-05
3.21102e-05
3.27643e-05
3.27715e-05
3.27658e-05
3.21116e-05
3.21116e-05
3.21114e-05
3.21114e-05
3.2771e-05
3.27653e-05
3.21114e-05
3.21113e-05
3.21112e-05
3.21111e-05
3.21105e-05
3.21108e-05
3.21103e-05
3.2771e-05
3.27653e-05
3.21104e-05
3.21109e-05
3.21102e-05
3.27642e-05
3.27716e-05
3.27658e-05
3.21116e-05
3.21116e-05
3.21114e-05
3.21114e-05
3.27711e-05
3.27653e-05
3.21114e-05
3.21113e-05
3.21113e-05
3.21112e-05
3.21105e-05
3.21106e-05
3.21103e-05
3.2771e-05
3.27653e-05
3.21104e-05
3.21108e-05
3.21102e-05
3.27643e-05
3.27715e-05
3.27658e-05
3.21116e-05
3.21116e-05
3.21114e-05
3.21115e-05
3.2771e-05
3.27654e-05
3.21114e-05
3.21113e-05
3.21113e-05
3.21111e-05
3.21105e-05
3.21105e-05
3.21103e-05
3.2771e-05
3.27653e-05
3.21104e-05
3.21108e-05
3.21103e-05
3.27643e-05
3.27715e-05
3.27659e-05
3.21116e-05
3.21116e-05
3.21114e-05
3.21114e-05
3.27711e-05
3.27653e-05
3.21115e-05
3.21113e-05
3.21113e-05
3.21111e-05
3.21105e-05
3.21106e-05
3.21103e-05
3.2771e-05
3.27652e-05
3.21104e-05
3.21107e-05
3.21102e-05
3.27643e-05
3.27716e-05
3.2766e-05
3.21116e-05
3.21116e-05
3.21114e-05
3.21114e-05
3.2771e-05
3.27653e-05
3.21115e-05
3.21113e-05
3.21114e-05
3.21111e-05
3.21105e-05
3.21106e-05
3.21103e-05
3.27709e-05
3.27652e-05
3.21104e-05
3.21107e-05
3.21102e-05
3.27643e-05
3.27717e-05
3.27659e-05
3.21116e-05
3.21116e-05
3.21114e-05
3.21115e-05
3.2771e-05
3.27653e-05
3.21116e-05
3.21113e-05
3.21114e-05
3.21111e-05
3.21105e-05
3.21107e-05
3.21103e-05
3.27709e-05
3.27653e-05
3.21104e-05
3.21107e-05
3.21103e-05
3.27643e-05
3.27716e-05
3.27659e-05
3.21116e-05
3.21116e-05
3.21114e-05
3.21115e-05
3.2771e-05
3.27653e-05
3.21116e-05
3.21113e-05
3.21113e-05
3.21111e-05
3.21105e-05
3.21107e-05
3.21104e-05
3.2771e-05
3.27653e-05
3.21104e-05
3.21107e-05
3.21103e-05
3.27644e-05
3.27716e-05
3.27659e-05
3.21115e-05
3.21117e-05
3.21114e-05
3.21115e-05
3.2771e-05
3.27654e-05
3.21115e-05
3.21113e-05
3.21113e-05
3.21111e-05
3.21105e-05
3.21107e-05
3.21104e-05
3.2771e-05
3.27653e-05
3.21105e-05
3.21107e-05
3.21103e-05
3.27644e-05
3.27716e-05
3.27659e-05
3.21116e-05
3.21117e-05
3.21113e-05
3.21115e-05
3.27711e-05
3.27653e-05
3.21115e-05
3.21113e-05
3.21113e-05
3.21111e-05
3.21105e-05
3.21106e-05
3.21103e-05
3.2771e-05
3.27652e-05
3.21105e-05
3.21107e-05
3.21103e-05
3.27643e-05
3.27716e-05
3.27659e-05
3.21115e-05
3.21117e-05
3.21114e-05
3.21115e-05
3.2771e-05
3.27653e-05
3.21115e-05
3.21113e-05
3.21113e-05
3.21111e-05
3.21105e-05
3.21106e-05
3.21103e-05
3.27709e-05
3.27652e-05
3.21104e-05
3.21107e-05
3.21102e-05
3.27643e-05
3.27716e-05
3.27659e-05
3.21115e-05
3.21117e-05
3.21113e-05
3.21115e-05
3.2771e-05
3.27653e-05
3.21115e-05
3.21113e-05
3.21113e-05
3.21111e-05
3.21104e-05
3.21106e-05
3.21102e-05
3.27709e-05
3.27652e-05
3.21103e-05
3.21107e-05
3.21101e-05
3.27641e-05
3.27716e-05
3.27659e-05
3.21115e-05
3.21117e-05
3.21113e-05
3.21115e-05
3.2771e-05
3.27653e-05
3.21115e-05
3.21113e-05
3.21114e-05
3.21111e-05
3.21104e-05
3.21106e-05
3.21103e-05
3.27709e-05
3.27653e-05
3.21103e-05
3.21107e-05
3.21102e-05
3.27643e-05
3.27716e-05
3.27659e-05
3.21115e-05
3.21117e-05
3.21114e-05
3.21115e-05
3.2771e-05
3.27654e-05
3.21116e-05
3.21113e-05
3.21114e-05
3.21111e-05
3.21105e-05
3.21106e-05
3.21103e-05
3.2771e-05
3.27653e-05
3.21104e-05
3.21108e-05
3.21102e-05
3.27642e-05
3.27716e-05
3.27659e-05
3.21115e-05
3.21117e-05
3.21114e-05
3.21115e-05
3.27711e-05
3.27653e-05
3.21115e-05
3.21113e-05
3.21113e-05
3.21112e-05
3.21105e-05
3.21106e-05
3.21103e-05
3.27709e-05
3.27653e-05
3.21104e-05
3.21108e-05
3.21102e-05
3.27643e-05
3.27716e-05
3.27659e-05
3.21115e-05
3.21117e-05
3.21113e-05
3.21114e-05
3.2771e-05
3.27653e-05
3.21115e-05
3.21114e-05
3.21113e-05
3.21112e-05
3.21105e-05
3.21106e-05
3.21103e-05
3.2771e-05
3.27654e-05
3.21104e-05
3.21108e-05
3.21102e-05
3.27643e-05
3.27716e-05
3.27659e-05
3.21115e-05
3.21116e-05
3.21113e-05
3.21114e-05
3.2771e-05
3.27653e-05
3.21115e-05
3.21114e-05
3.21113e-05
3.21112e-05
3.21105e-05
3.21105e-05
3.21103e-05
3.2771e-05
3.27654e-05
3.21104e-05
3.21108e-05
3.21102e-05
3.27643e-05
3.27716e-05
3.27659e-05
3.21115e-05
3.21116e-05
3.21113e-05
3.21114e-05
3.2771e-05
3.27653e-05
3.21115e-05
3.21114e-05
3.21113e-05
3.21112e-05
3.21105e-05
3.21106e-05
3.21103e-05
3.27711e-05
3.27653e-05
3.21104e-05
3.21108e-05
3.21102e-05
3.27643e-05
3.27715e-05
3.27659e-05
3.21115e-05
3.21116e-05
3.21113e-05
3.21114e-05
3.2771e-05
3.27653e-05
3.21115e-05
3.21113e-05
3.21113e-05
3.21111e-05
3.21105e-05
3.21106e-05
3.21103e-05
3.2771e-05
3.27653e-05
3.21104e-05
3.21108e-05
3.21102e-05
3.27643e-05
3.27716e-05
3.27659e-05
3.21115e-05
3.21116e-05
3.21114e-05
3.21114e-05
3.2771e-05
3.27653e-05
3.21115e-05
3.21113e-05
3.21114e-05
3.21111e-05
3.21104e-05
3.21106e-05
3.21102e-05
3.2771e-05
3.27653e-05
3.21103e-05
3.21107e-05
3.21101e-05
3.27642e-05
3.27716e-05
3.27659e-05
3.21116e-05
3.21116e-05
3.21114e-05
3.21114e-05
3.2771e-05
3.27653e-05
3.21116e-05
3.21113e-05
3.21114e-05
3.21111e-05
3.21104e-05
3.21106e-05
3.21102e-05
3.27709e-05
3.27653e-05
3.21103e-05
3.21107e-05
3.21101e-05
3.27641e-05
3.27716e-05
3.27659e-05
3.21116e-05
3.21116e-05
3.21114e-05
3.21115e-05
3.2771e-05
3.27653e-05
3.21116e-05
3.21113e-05
3.21114e-05
3.21111e-05
3.21104e-05
3.21106e-05
3.21102e-05
3.2771e-05
3.27653e-05
3.21103e-05
3.21108e-05
3.21101e-05
3.27643e-05
3.27716e-05
3.2766e-05
3.21116e-05
3.21117e-05
3.21115e-05
3.21115e-05
3.2771e-05
3.27654e-05
3.21116e-05
3.21113e-05
3.21114e-05
3.21111e-05
3.21104e-05
3.21108e-05
3.21103e-05
3.2771e-05
3.27653e-05
3.21103e-05
3.21109e-05
3.21102e-05
3.27642e-05
3.27717e-05
3.2766e-05
3.21117e-05
3.21117e-05
3.21115e-05
3.21114e-05
3.27711e-05
3.27654e-05
3.21116e-05
3.21113e-05
3.21114e-05
3.21111e-05
3.21105e-05
3.21107e-05
3.21103e-05
3.2771e-05
3.27653e-05
3.21104e-05
3.21108e-05
3.21102e-05
3.27643e-05
3.27717e-05
3.27661e-05
3.21117e-05
3.21116e-05
3.21116e-05
3.21115e-05
3.27711e-05
3.27654e-05
3.21115e-05
3.21113e-05
3.21113e-05
3.21111e-05
3.21105e-05
3.21107e-05
3.21103e-05
3.2771e-05
3.27652e-05
3.21104e-05
3.21108e-05
3.21102e-05
3.27643e-05
3.27717e-05
3.2766e-05
3.21118e-05
3.21117e-05
3.21115e-05
3.21115e-05
3.27711e-05
3.27655e-05
3.21115e-05
3.21113e-05
3.21112e-05
3.21111e-05
3.21105e-05
3.21107e-05
3.21103e-05
3.27709e-05
3.27653e-05
3.21104e-05
3.21108e-05
3.21103e-05
3.27644e-05
3.27717e-05
3.2766e-05
3.21117e-05
3.21117e-05
3.21115e-05
3.21115e-05
3.27712e-05
3.27655e-05
3.21114e-05
3.21113e-05
3.21112e-05
3.21111e-05
3.21105e-05
3.21106e-05
3.21103e-05
3.2771e-05
3.27652e-05
3.21105e-05
3.21108e-05
3.21103e-05
3.27643e-05
3.27716e-05
3.2766e-05
3.21117e-05
3.21117e-05
3.21115e-05
3.21115e-05
3.27712e-05
3.27655e-05
3.21114e-05
3.21113e-05
3.21113e-05
3.21111e-05
3.21105e-05
3.21106e-05
3.21103e-05
3.27709e-05
3.27653e-05
3.21104e-05
3.2111e-05
3.21102e-05
3.27643e-05
3.27717e-05
3.2766e-05
3.21117e-05
3.21117e-05
3.21116e-05
3.21116e-05
3.27712e-05
3.27655e-05
3.21114e-05
3.21113e-05
3.21112e-05
3.21112e-05
3.21104e-05
3.21106e-05
3.21101e-05
3.2771e-05
3.27653e-05
3.21103e-05
3.21108e-05
3.211e-05
3.27642e-05
3.27717e-05
3.2766e-05
3.21118e-05
3.21117e-05
3.21116e-05
3.21116e-05
3.27712e-05
3.27655e-05
3.21114e-05
3.21113e-05
3.21113e-05
3.21112e-05
3.21103e-05
3.21106e-05
3.21101e-05
3.2771e-05
3.27653e-05
3.21102e-05
3.21108e-05
3.211e-05
3.2764e-05
3.27717e-05
3.2766e-05
3.21117e-05
3.21117e-05
3.21115e-05
3.21115e-05
3.27712e-05
3.27655e-05
3.21114e-05
3.21114e-05
3.21113e-05
3.21111e-05
3.21103e-05
3.21106e-05
3.21102e-05
3.2771e-05
3.27653e-05
3.21102e-05
3.21108e-05
3.211e-05
3.27642e-05
3.27717e-05
3.2766e-05
3.21117e-05
3.21117e-05
3.21115e-05
3.21115e-05
3.27712e-05
3.27655e-05
3.21114e-05
3.21113e-05
3.21113e-05
3.21111e-05
3.21104e-05
3.21107e-05
3.21102e-05
3.2771e-05
3.27653e-05
3.21102e-05
3.21108e-05
3.211e-05
3.27641e-05
3.27717e-05
3.2766e-05
3.21117e-05
3.21117e-05
3.21116e-05
3.21115e-05
3.27712e-05
3.27655e-05
3.21115e-05
3.21112e-05
3.21113e-05
3.21111e-05
3.21104e-05
3.21107e-05
3.21102e-05
3.27709e-05
3.27653e-05
3.21102e-05
3.21107e-05
3.211e-05
3.27641e-05
3.27717e-05
3.2766e-05
3.21118e-05
3.21117e-05
3.21116e-05
3.21115e-05
3.27712e-05
3.27655e-05
3.21115e-05
3.21113e-05
3.21113e-05
3.21111e-05
3.21104e-05
3.21106e-05
3.21103e-05
3.27709e-05
3.27652e-05
3.21103e-05
3.21107e-05
3.21101e-05
3.27643e-05
3.27717e-05
3.2766e-05
3.21118e-05
3.21117e-05
3.21116e-05
3.21115e-05
3.27712e-05
3.27655e-05
3.21115e-05
3.21113e-05
3.21112e-05
3.21111e-05
3.21104e-05
3.21107e-05
3.21102e-05
3.27709e-05
3.27653e-05
3.21103e-05
3.21109e-05
3.21101e-05
3.27642e-05
3.27716e-05
3.2766e-05
3.21117e-05
3.21117e-05
3.21116e-05
3.21115e-05
3.27711e-05
3.27655e-05
3.21114e-05
3.21113e-05
3.21112e-05
3.21111e-05
3.21104e-05
3.21107e-05
3.21102e-05
3.27709e-05
3.27652e-05
3.21103e-05
3.21108e-05
3.21101e-05
3.27641e-05
3.27717e-05
3.2766e-05
3.21118e-05
3.21117e-05
3.21116e-05
3.21115e-05
3.27712e-05
3.27655e-05
3.21114e-05
3.21113e-05
3.21112e-05
3.21111e-05
3.21104e-05
3.21107e-05
3.21102e-05
3.27709e-05
3.27653e-05
3.21102e-05
3.21108e-05
3.21101e-05
3.27643e-05
3.27717e-05
3.2766e-05
3.21118e-05
3.21117e-05
3.21116e-05
3.21115e-05
3.27712e-05
3.27655e-05
3.21114e-05
3.21113e-05
3.21113e-05
3.21111e-05
3.21104e-05
3.21106e-05
3.21103e-05
3.2771e-05
3.27653e-05
3.21103e-05
3.21107e-05
3.21101e-05
3.27642e-05
3.27717e-05
3.2766e-05
3.21118e-05
3.21117e-05
3.21116e-05
3.21115e-05
3.27712e-05
3.27654e-05
3.21115e-05
3.21113e-05
3.21113e-05
3.21111e-05
3.21105e-05
3.21106e-05
3.21103e-05
3.2771e-05
3.27653e-05
3.21103e-05
3.21107e-05
3.21101e-05
3.27643e-05
3.27717e-05
3.2766e-05
3.21118e-05
3.21117e-05
3.21116e-05
3.21115e-05
3.27711e-05
3.27655e-05
3.21114e-05
3.21113e-05
3.21112e-05
3.21111e-05
3.21105e-05
3.21106e-05
3.21102e-05
3.2771e-05
3.27653e-05
3.21103e-05
3.21107e-05
3.21101e-05
3.27642e-05
3.27717e-05
3.27659e-05
3.21117e-05
3.21117e-05
3.21115e-05
3.21115e-05
3.27712e-05
3.27654e-05
3.21114e-05
3.21113e-05
3.21111e-05
3.21111e-05
3.21104e-05
3.21106e-05
3.21102e-05
3.2771e-05
3.27653e-05
3.21102e-05
3.21107e-05
3.21101e-05
3.27641e-05
3.27716e-05
3.27659e-05
3.21117e-05
3.21117e-05
3.21115e-05
3.21115e-05
3.27711e-05
3.27655e-05
3.21113e-05
3.21113e-05
3.21112e-05
3.21111e-05
3.21104e-05
3.21106e-05
3.21103e-05
3.27709e-05
3.27652e-05
3.21103e-05
3.21108e-05
3.21101e-05
3.27643e-05
3.27716e-05
3.27659e-05
3.21117e-05
3.21117e-05
3.21116e-05
3.21116e-05
3.27712e-05
3.27655e-05
3.21114e-05
3.21113e-05
3.21112e-05
3.21111e-05
3.21105e-05
3.21107e-05
3.21103e-05
3.27709e-05
3.27653e-05
3.21103e-05
3.21108e-05
3.21101e-05
3.27642e-05
3.27716e-05
3.2766e-05
3.21118e-05
3.21117e-05
3.21116e-05
3.21115e-05
3.27712e-05
3.27655e-05
3.21114e-05
3.21113e-05
3.21112e-05
3.21111e-05
3.21105e-05
3.21107e-05
3.21103e-05
3.2771e-05
3.27653e-05
3.21103e-05
3.21107e-05
3.21101e-05
3.27643e-05
3.27717e-05
3.2766e-05
3.21118e-05
3.21117e-05
3.21116e-05
3.21115e-05
3.27712e-05
3.27655e-05
3.21114e-05
3.21113e-05
3.21113e-05
3.21111e-05
3.21104e-05
3.21107e-05
3.21102e-05
3.27709e-05
3.27653e-05
3.21103e-05
3.21108e-05
3.211e-05
3.27642e-05
3.27717e-05
3.2766e-05
3.21118e-05
3.21117e-05
3.21116e-05
3.21116e-05
3.27712e-05
3.27655e-05
3.21115e-05
3.21113e-05
3.21113e-05
3.21111e-05
3.21104e-05
3.21107e-05
3.21102e-05
3.2771e-05
3.27652e-05
3.21102e-05
3.21108e-05
3.211e-05
3.27641e-05
3.27717e-05
3.2766e-05
3.21118e-05
3.21117e-05
3.21116e-05
3.21115e-05
3.27712e-05
3.27655e-05
3.21115e-05
3.21113e-05
3.21112e-05
3.21112e-05
3.21104e-05
3.21107e-05
3.21102e-05
3.27709e-05
3.27653e-05
3.21102e-05
3.21108e-05
3.21101e-05
3.27643e-05
3.27717e-05
3.2766e-05
3.21118e-05
3.21117e-05
3.21116e-05
3.21115e-05
3.27712e-05
3.27654e-05
3.21114e-05
3.21114e-05
3.21112e-05
3.21112e-05
3.21104e-05
3.21107e-05
3.21103e-05
3.2771e-05
3.27653e-05
3.21103e-05
3.21108e-05
3.21101e-05
3.27642e-05
3.27717e-05
3.2766e-05
3.21118e-05
3.21117e-05
3.21116e-05
3.21115e-05
3.27711e-05
3.27655e-05
3.21114e-05
3.21113e-05
3.21113e-05
3.21111e-05
3.21105e-05
3.21107e-05
3.21102e-05
3.2771e-05
3.27653e-05
3.21103e-05
3.21107e-05
3.21101e-05
3.27642e-05
3.27717e-05
3.2766e-05
3.21118e-05
3.21117e-05
3.21116e-05
3.21115e-05
3.27712e-05
3.27655e-05
3.21114e-05
3.21113e-05
3.21112e-05
3.21111e-05
3.21104e-05
3.21108e-05
3.21102e-05
3.2771e-05
3.27652e-05
3.21102e-05
3.21108e-05
3.21101e-05
3.27641e-05
3.27717e-05
3.27659e-05
3.21117e-05
3.21117e-05
3.21115e-05
3.21115e-05
3.27711e-05
3.27655e-05
3.21114e-05
3.21113e-05
3.21112e-05
3.21111e-05
3.21104e-05
3.21108e-05
3.21103e-05
3.27709e-05
3.27653e-05
3.21103e-05
3.21108e-05
3.21101e-05
3.27644e-05
3.27716e-05
3.27659e-05
3.21117e-05
3.21117e-05
3.21115e-05
3.21115e-05
3.27712e-05
3.27655e-05
3.21114e-05
3.21112e-05
3.21112e-05
3.21111e-05
3.21105e-05
3.21107e-05
3.21103e-05
3.27709e-05
3.27653e-05
3.21104e-05
3.21107e-05
3.21102e-05
3.27643e-05
3.27716e-05
3.27659e-05
3.21117e-05
3.21117e-05
3.21115e-05
3.21115e-05
3.27712e-05
3.27655e-05
3.21113e-05
3.21112e-05
3.21112e-05
3.21111e-05
3.21105e-05
3.21107e-05
3.21103e-05
3.27709e-05
3.27652e-05
3.21104e-05
3.21107e-05
3.21102e-05
3.27643e-05
3.27716e-05
3.27659e-05
3.21117e-05
3.21117e-05
3.21115e-05
3.21115e-05
3.27712e-05
3.27655e-05
3.21114e-05
3.21113e-05
3.21112e-05
3.21111e-05
3.21105e-05
3.21108e-05
3.21102e-05
3.27709e-05
3.27653e-05
3.21103e-05
3.21108e-05
3.21101e-05
3.27643e-05
3.27716e-05
3.2766e-05
3.21117e-05
3.21117e-05
3.21115e-05
3.21115e-05
3.27712e-05
3.27655e-05
3.21114e-05
3.21113e-05
3.21112e-05
3.21111e-05
3.21104e-05
3.21106e-05
3.21102e-05
3.2771e-05
3.27653e-05
3.21103e-05
3.21107e-05
3.21101e-05
3.27641e-05
3.27716e-05
3.2766e-05
3.21117e-05
3.21117e-05
3.21116e-05
3.21115e-05
3.27712e-05
3.27654e-05
3.21114e-05
3.21113e-05
3.21112e-05
3.21111e-05
3.21104e-05
3.21106e-05
3.21103e-05
3.2771e-05
3.27653e-05
3.21103e-05
3.21108e-05
3.21101e-05
3.27642e-05
3.27717e-05
3.2766e-05
3.21118e-05
3.21117e-05
3.21116e-05
3.21115e-05
3.27711e-05
3.27654e-05
3.21114e-05
3.21113e-05
3.21112e-05
3.21111e-05
3.21105e-05
3.21107e-05
3.21103e-05
3.2771e-05
3.27653e-05
3.21103e-05
3.21108e-05
3.21102e-05
3.27642e-05
3.27717e-05
3.2766e-05
3.21118e-05
3.21117e-05
3.21116e-05
3.21115e-05
3.27711e-05
3.27655e-05
3.21114e-05
3.21113e-05
3.21112e-05
3.21111e-05
3.21105e-05
3.21106e-05
3.21103e-05
3.2771e-05
3.27653e-05
3.21103e-05
3.21109e-05
3.21102e-05
3.27643e-05
3.27717e-05
3.2766e-05
3.21118e-05
3.21117e-05
3.21116e-05
3.21115e-05
3.27712e-05
3.27655e-05
3.21114e-05
3.21113e-05
3.21112e-05
3.21111e-05
3.21105e-05
3.21107e-05
3.21103e-05
3.2771e-05
3.27653e-05
3.21104e-05
3.21108e-05
3.21102e-05
3.27643e-05
3.27717e-05
3.2766e-05
3.21118e-05
3.21117e-05
3.21115e-05
3.21115e-05
3.27712e-05
3.27655e-05
3.21114e-05
3.21113e-05
3.21112e-05
3.21111e-05
3.21105e-05
3.21107e-05
3.21103e-05
3.2771e-05
3.27653e-05
3.21104e-05
3.21109e-05
3.21101e-05
3.27643e-05
3.27716e-05
3.27659e-05
3.21118e-05
3.21118e-05
3.21115e-05
3.21115e-05
3.27712e-05
3.27655e-05
3.21114e-05
3.21113e-05
3.21111e-05
3.2111e-05
3.21105e-05
3.21109e-05
3.21102e-05
3.2771e-05
3.27653e-05
3.21103e-05
3.21109e-05
3.211e-05
3.27643e-05
3.27716e-05
3.27659e-05
3.21117e-05
3.21117e-05
3.21114e-05
3.21114e-05
3.27712e-05
3.27655e-05
3.21114e-05
3.21112e-05
3.2111e-05
3.21109e-05
3.21105e-05
3.2111e-05
3.21102e-05
3.2771e-05
3.27653e-05
3.21103e-05
3.2111e-05
3.211e-05
3.27643e-05
3.27716e-05
3.27659e-05
3.21117e-05
3.21118e-05
3.21114e-05
3.21114e-05
3.27712e-05
3.27655e-05
3.21113e-05
3.21113e-05
3.2111e-05
3.21109e-05
3.21105e-05
3.2111e-05
3.21101e-05
3.2771e-05
3.27653e-05
3.21104e-05
3.21111e-05
3.211e-05
3.27643e-05
3.27716e-05
3.27659e-05
3.21118e-05
3.21118e-05
3.21114e-05
3.21114e-05
3.27712e-05
3.27655e-05
3.21114e-05
3.21113e-05
3.2111e-05
3.21109e-05
3.21105e-05
3.2111e-05
3.21101e-05
3.27709e-05
3.27653e-05
3.21103e-05
3.21111e-05
3.21099e-05
3.27642e-05
3.27716e-05
3.27659e-05
3.21118e-05
3.21118e-05
3.21115e-05
3.21115e-05
3.27712e-05
3.27656e-05
3.21114e-05
3.21113e-05
3.21112e-05
3.2111e-05
3.21104e-05
3.2111e-05
3.21102e-05
3.2771e-05
3.27653e-05
3.21102e-05
3.21111e-05
3.211e-05
3.27641e-05
3.27716e-05
3.2766e-05
3.2112e-05
3.2112e-05
3.21116e-05
3.21115e-05
3.27713e-05
3.27656e-05
3.21117e-05
3.21115e-05
3.21113e-05
3.21111e-05
3.21107e-05
3.21111e-05
3.21103e-05
3.2771e-05
3.27653e-05
3.21105e-05
3.21111e-05
3.21101e-05
3.27643e-05
3.27717e-05
3.2766e-05
3.21122e-05
3.21121e-05
3.21117e-05
3.21116e-05
3.27713e-05
3.27656e-05
3.21119e-05
3.21117e-05
3.21114e-05
3.21112e-05
3.21108e-05
3.21112e-05
3.21104e-05
3.2771e-05
3.27654e-05
3.21106e-05
3.21112e-05
3.21102e-05
3.27642e-05
3.27718e-05
3.27662e-05
3.21124e-05
3.21123e-05
3.21118e-05
3.21117e-05
3.27714e-05
3.27657e-05
3.21121e-05
3.21119e-05
3.21115e-05
3.21113e-05
3.2111e-05
3.21113e-05
3.21105e-05
3.27711e-05
3.27655e-05
3.21108e-05
3.21113e-05
3.21103e-05
3.27643e-05
3.27719e-05
3.27663e-05
3.21126e-05
3.21126e-05
3.2112e-05
3.21119e-05
3.27715e-05
3.27659e-05
3.21123e-05
3.21121e-05
3.21117e-05
3.21115e-05
3.21113e-05
3.21114e-05
3.21106e-05
3.27712e-05
3.27657e-05
3.21111e-05
3.21114e-05
3.21104e-05
3.27646e-05
3.2772e-05
3.27656e-05
3.2113e-05
3.21128e-05
3.21109e-05
3.21107e-05
3.27716e-05
3.27652e-05
3.21127e-05
3.21125e-05
3.21106e-05
3.21104e-05
3.21116e-05
3.21103e-05
3.21094e-05
3.27713e-05
3.2765e-05
3.21114e-05
3.21103e-05
3.21092e-05
3.27637e-05
3.27706e-05
3.27153e-05
3.21121e-05
3.2112e-05
3.20569e-05
3.20568e-05
3.27702e-05
3.2715e-05
3.21118e-05
3.21116e-05
3.20567e-05
3.20563e-05
3.21107e-05
3.20562e-05
3.20553e-05
3.277e-05
3.27147e-05
3.21104e-05
3.20561e-05
3.20553e-05
3.27128e-05
3.26563e-05
3.19707e-05
3.19706e-05
3.2656e-05
3.19706e-05
3.19701e-05
3.14354e-05
3.14353e-05
3.14349e-05
3.19692e-05
3.26557e-05
3.19692e-05
3.07136e-05
1.49587e-05
2.59564e-05
2.59553e-05
7.8086e-08
4.32063e-06
7.16157e-07
1.96942e-05
9.3069e-08
4.37911e-06
1.97438e-05
1.50936e-06
1.25444e-06
1.20567e-06
6.81399e-07
2.67246e-07
6.59557e-06
2.11836e-07
8.23138e-06
1.48424e-05
2.25775e-05
2.66135e-07
5.39029e-06
2.3133e-07
7.04188e-06
2.0328e-05
2.03469e-05
2.0319e-05
2.06399e-05
2.06425e-05
2.06594e-05
2.06298e-05
9.71447e-08
8.99374e-07
1.15692e-05
4.49359e-06
8.68016e-08
8.31772e-07
1.17185e-05
1.37806e-05
2.08613e-05
1.08264e-07
1.17516e-05
1.66995e-06
4.82406e-06
1.00273e-07
1.18979e-05
1.66266e-06
2.22289e-06
1.97275e-06
1.69441e-06
2.25221e-06
1.95473e-06
4.56751e-07
1.134e-05
3.88223e-07
1.36604e-05
3.86505e-05
4.86113e-05
4.49027e-07
1.11315e-05
3.64876e-07
1.36327e-05
2.08367e-05