/*--------------------------------*- C++ -*----------------------------------*\
| =========                 |                                                 |
| \\      /  F ield         | OpenFOAM: The Open Source CFD Toolbox           |
|  \\    /   O peration     | Version:  v2012                                 |
|   \\  /    A nd           | Website:  www.openfoam.com                      |
|    \\/     M anipulation  |                                                 |
\*---------------------------------------------------------------------------*/
FoamFile
{
    version     2.0;
    format      ascii;
    class       volScalarField;
    location    "50";
    object      nut;
}
// * * * * * * * * * * * * * * * * * * * * * * * * * * * * * * * * * * * * * //

dimensions      [0 2 -1 0 0 0 0];


internalField   nonuniform List<scalar> 
171728
(
8.27384e-05
1.89772e-05
1.93121e-05
5.87626e-06
8.48777e-05
2.33973e-05
2.35743e-05
8.16634e-06
8.80842e-05
2.95083e-05
2.96881e-05
1.15501e-05
9.10266e-05
3.6919e-05
3.74233e-05
1.71231e-05
9.41235e-05
4.59623e-05
4.65368e-05
2.48295e-05
9.76487e-05
5.64653e-05
5.68056e-05
3.51896e-05
0.000102075
6.81992e-05
6.8271e-05
4.79828e-05
0.000107605
8.08813e-05
8.09493e-05
6.23793e-05
0.000113961
9.37189e-05
9.37563e-05
7.8419e-05
0.000120671
0.000105486
0.000105514
9.31267e-05
0.000124655
0.000112877
0.000112881
0.000103527
0.000127778
0.000119865
0.000119865
0.000112147
0.000129864
0.000124357
0.000124355
0.000118403
0.000130423
0.000125427
0.000125425
0.000119734
0.000130501
0.000125553
0.000125552
0.000119824
0.000130511
0.000125572
0.00012557
0.000119847
0.000130513
0.000125575
0.000125573
0.000119847
0.000130514
0.000125575
0.000125573
0.000119849
0.000130515
0.000125577
0.000125575
0.000119849
0.000130516
0.00012558
0.000125577
0.00011985
0.000130517
0.000125579
0.000125577
0.00011985
0.000130517
0.00012558
0.000125578
0.00011985
0.000130517
0.000125579
0.000125578
0.00011985
0.000130518
0.000125579
0.000125578
0.00011985
0.000130517
0.00012558
0.000125579
0.00011985
0.000130517
0.00012558
0.000125578
0.000119849
0.000130518
0.000125579
0.000125577
0.00011985
0.000130517
0.000125579
0.000125577
0.00011985
0.000130517
0.00012558
0.000125577
0.00011985
0.000130518
0.000125579
0.000125577
0.00011985
0.000130518
0.00012558
0.000125577
0.00011985
0.000130517
0.00012558
0.000125577
0.00011985
0.000130516
0.00012558
0.000125577
0.00011985
0.000130517
0.000125579
0.000125577
0.00011985
0.000130518
0.000125579
0.000125577
0.000119849
0.000130517
0.000125579
0.000125577
0.000119849
0.000130517
0.000125579
0.000125577
0.00011985
0.000130519
0.000125579
0.000125577
0.000119849
0.000130518
0.000125579
0.000125577
0.00011985
0.000130517
0.000125579
0.000125578
0.00011985
0.000130516
0.000125579
0.000125577
0.000119849
0.000130516
0.000125579
0.000125578
0.00011985
0.000130517
0.000125579
0.000125577
0.00011985
0.000130517
0.000125579
0.000125577
0.000119849
0.000130517
0.000125579
0.000125577
0.000119849
0.000130518
0.00012558
0.000125578
0.00011985
0.000130519
0.000125581
0.000125578
0.000119849
0.000130518
0.00012558
0.000125578
0.00011985
0.000130517
0.00012558
0.000125577
0.00011985
0.000130518
0.00012558
0.000125577
0.00011985
0.000130517
0.00012558
0.000125578
0.00011985
0.000130516
0.00012558
0.000125578
0.00011985
0.000130516
0.00012558
0.000125578
0.000119849
0.000130518
0.00012558
0.000125577
0.000119849
0.000130517
0.00012558
0.000125577
0.00011985
0.000130518
0.00012558
0.000125578
0.000119849
0.000130518
0.00012558
0.000125577
0.000119849
0.000130518
0.00012558
0.000125577
0.00011985
0.000130517
0.00012558
0.000125578
0.000119849
0.000130518
0.00012558
0.000125577
0.000119849
0.000130518
0.00012558
0.000125577
0.00011985
0.000130517
0.00012558
0.000125577
0.000119849
0.000130517
0.00012558
0.000125577
0.000119849
0.000130516
0.00012558
0.000125577
0.000119849
0.000130517
0.000125579
0.000125577
0.000119849
0.000130518
0.00012558
0.000125578
0.00011985
0.000130518
0.00012558
0.000125577
0.000119849
0.000130519
0.00012558
0.000125577
0.000119849
0.000130518
0.00012558
0.000125578
0.000119849
0.000130517
0.00012558
0.000125577
0.000119849
0.000130518
0.00012558
0.000125578
0.00011985
0.000130518
0.00012558
0.000125577
0.000119849
0.000130517
0.00012558
0.000125577
0.000119849
0.000130517
0.000125581
0.000125578
0.000119849
0.000130518
0.00012558
0.000125577
0.00011985
0.000130517
0.00012558
0.000125577
0.00011985
0.000130516
0.00012558
0.000125577
0.000119849
0.000130516
0.00012558
0.000125577
0.000119849
0.000130518
0.00012558
0.000125577
0.000119849
0.000130517
0.00012558
0.000125577
0.00011985
0.000130517
0.00012558
0.000125578
0.00011985
0.000130517
0.00012558
0.000125578
0.000119849
0.000130519
0.00012558
0.000125577
0.00011985
0.000130518
0.00012558
0.000125578
0.000119849
0.000130517
0.000125581
0.000125577
0.00011985
0.000130517
0.00012558
0.000125577
0.000119849
0.000130517
0.00012558
0.000125577
0.000119849
0.000130517
0.00012558
0.000125577
0.000119849
0.000130517
0.00012558
0.000125577
0.000119849
0.000130517
0.000125581
0.000125578
0.000119851
0.000130517
0.000125582
0.000125579
0.000119851
0.000130516
0.000125584
0.000125582
0.000119853
0.000130517
0.000125589
0.000125587
0.000119857
0.000130516
0.000125586
0.000125583
0.000119864
0.000130641
0.000126127
0.000126126
0.000120819
6.20399e-06
1.8535e-05
1.86628e-05
6.09153e-06
1.91518e-05
1.92756e-05
8.31444e-05
8.31886e-05
8.32184e-05
8.31653e-05
1.92491e-05
1.85163e-05
5.70769e-06
1.85368e-05
1.88254e-05
5.79274e-06
6.26603e-06
8.2129e-06
1.87431e-05
1.92006e-05
2.17102e-05
2.19418e-05
6.15942e-06
8.22723e-06
1.93341e-05
1.94544e-05
2.209e-05
2.23594e-05
1.83117e-05
2.19845e-05
2.12773e-05
5.76913e-06
7.99804e-06
1.90333e-05
2.2202e-05
2.19004e-05
8.05586e-06
8.30671e-06
1.13389e-05
2.31181e-05
2.32962e-05
2.76512e-05
2.7968e-05
8.33626e-06
1.14969e-05
2.34138e-05
2.37408e-05
2.78454e-05
2.81543e-05
2.27369e-05
2.78995e-05
2.72362e-05
8.11503e-06
1.13763e-05
2.33055e-05
2.80458e-05
2.77473e-05
1.12778e-05
1.16082e-05
1.67935e-05
2.93234e-05
2.96602e-05
3.48999e-05
3.52038e-05
1.1767e-05
1.6937e-05
2.94622e-05
2.97353e-05
3.49237e-05
3.51008e-05
2.88506e-05
3.49143e-05
3.44588e-05
1.16536e-05
1.69657e-05
2.93436e-05
3.53326e-05
3.47446e-05
1.67143e-05
1.72088e-05
2.43171e-05
3.69254e-05
3.72134e-05
4.35298e-05
4.37183e-05
1.73462e-05
2.43844e-05
3.69709e-05
3.71137e-05
4.36862e-05
4.37501e-05
3.65397e-05
4.35554e-05
4.33198e-05
1.73891e-05
2.45587e-05
3.67887e-05
4.41606e-05
4.35715e-05
2.42051e-05
2.49367e-05
3.43872e-05
4.59157e-05
4.60605e-05
5.36038e-05
5.36148e-05
2.49984e-05
3.4401e-05
4.60736e-05
4.61158e-05
5.36483e-05
5.37033e-05
4.57603e-05
5.36608e-05
5.35237e-05
2.5174e-05
3.45801e-05
4.59707e-05
5.40636e-05
5.36167e-05
3.43699e-05
3.51979e-05
4.69175e-05
5.64379e-05
5.63989e-05
6.5205e-05
6.51927e-05
3.52094e-05
4.69227e-05
5.642e-05
5.64763e-05
6.52557e-05
6.52683e-05
5.63521e-05
6.52613e-05
6.51608e-05
3.53855e-05
4.70044e-05
5.6421e-05
6.53503e-05
6.52511e-05
4.69463e-05
4.79531e-05
6.15811e-05
6.81503e-05
6.8168e-05
7.74851e-05
7.75262e-05
4.79546e-05
6.16178e-05
6.82242e-05
6.8209e-05
7.74653e-05
7.74774e-05
6.81285e-05
7.75135e-05
7.7481e-05
4.80233e-05
6.15955e-05
6.82e-05
7.76114e-05
7.74996e-05
6.16299e-05
6.23637e-05
7.75863e-05
8.08629e-05
8.08879e-05
9.05832e-05
9.05662e-05
6.23739e-05
7.75017e-05
8.0824e-05
8.085e-05
9.05623e-05
9.05953e-05
8.08495e-05
9.05837e-05
9.05396e-05
6.23522e-05
7.76147e-05
8.08658e-05
9.06149e-05
9.05633e-05
7.74687e-05
7.85389e-05
9.19136e-05
9.37218e-05
9.3702e-05
0.000102772
0.000102759
7.84528e-05
9.18874e-05
9.37116e-05
9.37419e-05
0.000102778
0.000102792
9.36776e-05
0.000102775
0.000102745
7.859e-05
9.19771e-05
9.37012e-05
0.000102811
0.000102762
9.18699e-05
9.31687e-05
0.000102929
0.000105483
0.000105474
0.000111296
0.000111293
9.3147e-05
0.000102929
0.000105491
0.000105498
0.000111304
0.000111299
0.000105463
0.000111305
0.00011129
9.32225e-05
0.000102936
0.000105478
0.000111313
0.000111299
0.000102923
0.000103538
0.000111225
0.000112868
0.000112866
0.000118099
0.000118098
0.000103539
0.000111227
0.000112875
0.000112869
0.000118104
0.000118097
0.000112864
0.000118108
0.000118098
0.000103544
0.000111225
0.000112872
0.000118109
0.000118104
0.000111225
0.000112153
0.000118038
0.000119858
0.000119857
0.000123655
0.000123653
0.000112156
0.00011804
0.000119862
0.000119855
0.000123658
0.000123651
0.000119857
0.000123662
0.000123655
0.000112153
0.000118036
0.000119862
0.00012366
0.000123659
0.000118038
0.000118406
0.000119732
0.000124352
0.00012435
0.000125316
0.000125314
0.000118408
0.000119733
0.000124355
0.000124348
0.000125319
0.000125311
0.000124352
0.000125321
0.000125317
0.000118404
0.000119729
0.000124356
0.000125319
0.000125321
0.000119731
0.000119733
0.000119867
0.000125423
0.000125421
0.000125538
0.000125536
0.000119733
0.000119867
0.000125426
0.000125418
0.000125542
0.000125533
0.000125423
0.000125542
0.000125538
0.00011973
0.000119863
0.000125427
0.000125541
0.000125543
0.000119866
0.000119827
0.000119897
0.00012555
0.000125548
0.000125566
0.000125563
0.000119827
0.000119897
0.000125554
0.000125545
0.000125569
0.00012556
0.00012555
0.00012557
0.000125564
0.000119823
0.000119892
0.000125554
0.000125568
0.000125568
0.000119893
0.000119851
0.000119903
0.000125568
0.000125566
0.00012557
0.000125568
0.000119851
0.000119903
0.000125571
0.000125563
0.000125573
0.000125565
0.000125565
0.000125575
0.000125567
0.000119847
0.000119899
0.00012557
0.000125573
0.000125571
0.000119895
0.000119855
0.000119904
0.00012557
0.000125568
0.000125571
0.000125569
0.000119855
0.000119904
0.000125573
0.000125565
0.000125574
0.000125566
0.000125566
0.000125575
0.000125567
0.000119851
0.0001199
0.000125571
0.000125573
0.000125571
0.000119896
0.000119857
0.000119907
0.000125571
0.000125569
0.000125574
0.000125572
0.000119856
0.000119907
0.000125574
0.000125566
0.000125577
0.000125569
0.000125568
0.000125576
0.00012557
0.000119853
0.000119902
0.000125572
0.000125575
0.000125574
0.000119897
0.000119859
0.000119906
0.000125575
0.000125574
0.000125575
0.000125574
0.000119859
0.000119907
0.000125578
0.00012557
0.000125578
0.00012557
0.000125571
0.00012558
0.00012557
0.000119855
0.000119902
0.000125575
0.000125578
0.000125575
0.000119899
0.000119858
0.000119906
0.000125575
0.000125573
0.000125575
0.000125574
0.000119859
0.000119907
0.000125578
0.00012557
0.000125578
0.000125571
0.000125571
0.000125579
0.00012557
0.000119854
0.000119902
0.000125575
0.000125577
0.000125575
0.000119899
0.000119858
0.000119906
0.000125575
0.000125574
0.000125575
0.000125574
0.000119859
0.000119907
0.000125578
0.000125571
0.000125578
0.00012557
0.00012557
0.00012558
0.00012557
0.000119854
0.000119902
0.000125575
0.000125578
0.000125575
0.000119899
0.000119858
0.000119906
0.000125575
0.000125574
0.000125576
0.000125574
0.000119859
0.000119907
0.000125578
0.00012557
0.000125579
0.00012557
0.00012557
0.000125579
0.00012557
0.000119854
0.000119902
0.000125575
0.000125578
0.000125575
0.000119899
0.000119858
0.000119906
0.000125576
0.000125574
0.000125576
0.000125573
0.000119859
0.000119907
0.000125579
0.00012557
0.000125579
0.00012557
0.00012557
0.000125579
0.000125571
0.000119854
0.000119902
0.000125575
0.000125578
0.000125574
0.000119899
0.000119858
0.000119906
0.000125576
0.000125573
0.000125576
0.000125573
0.000119859
0.000119907
0.000125579
0.000125571
0.000125579
0.000125571
0.000125571
0.00012558
0.000125571
0.000119854
0.000119902
0.000125574
0.000125579
0.000125574
0.000119899
0.000119858
0.000119906
0.000125576
0.000125573
0.000125576
0.000125573
0.000119859
0.000119907
0.000125579
0.000125571
0.000125579
0.000125571
0.000125571
0.000125581
0.00012557
0.000119855
0.000119902
0.000125574
0.000125578
0.000125574
0.000119899
0.000119858
0.000119906
0.000125576
0.000125573
0.000125576
0.000125573
0.000119859
0.000119907
0.000125579
0.000125571
0.000125579
0.000125571
0.000125571
0.000125579
0.000125571
0.000119855
0.000119902
0.000125574
0.000125578
0.000125574
0.0001199
0.000119858
0.000119906
0.000125576
0.000125574
0.000125576
0.000125574
0.000119859
0.000119907
0.000125579
0.000125571
0.000125579
0.00012557
0.000125571
0.000125579
0.000125571
0.000119855
0.000119902
0.000125574
0.000125577
0.000125574
0.000119899
0.000119858
0.000119906
0.000125576
0.000125574
0.000125576
0.000125573
0.000119859
0.000119907
0.000125579
0.00012557
0.000125579
0.00012557
0.000125571
0.00012558
0.000125571
0.000119854
0.000119902
0.000125574
0.000125577
0.000125574
0.000119899
0.000119858
0.000119907
0.000125576
0.000125573
0.000125576
0.000125573
0.000119859
0.000119907
0.00012558
0.00012557
0.00012558
0.00012557
0.000125571
0.000125579
0.000125571
0.000119854
0.000119902
0.000125574
0.000125577
0.000125574
0.000119899
0.000119859
0.000119906
0.000125576
0.000125573
0.000125576
0.000125574
0.000119859
0.000119907
0.00012558
0.000125571
0.00012558
0.000125571
0.000125571
0.00012558
0.000125571
0.000119854
0.000119902
0.000125574
0.000125577
0.000125574
0.000119899
0.000119858
0.000119906
0.000125576
0.000125574
0.000125576
0.000125574
0.000119859
0.000119907
0.00012558
0.000125571
0.000125579
0.000125571
0.000125571
0.00012558
0.000125571
0.000119855
0.000119902
0.000125574
0.000125577
0.000125574
0.000119899
0.000119858
0.000119906
0.000125576
0.000125573
0.000125576
0.000125573
0.000119859
0.000119907
0.000125579
0.000125571
0.000125579
0.00012557
0.000125571
0.00012558
0.000125571
0.000119854
0.000119902
0.000125574
0.000125577
0.000125574
0.000119899
0.000119858
0.000119906
0.000125576
0.000125574
0.000125576
0.000125574
0.000119859
0.000119907
0.000125579
0.00012557
0.000125579
0.00012557
0.000125571
0.000125579
0.00012557
0.000119854
0.000119902
0.000125574
0.000125577
0.000125574
0.000119899
0.000119858
0.000119906
0.000125576
0.000125574
0.000125576
0.000125573
0.000119859
0.000119907
0.000125579
0.00012557
0.000125579
0.00012557
0.00012557
0.000125579
0.00012557
0.000119854
0.000119902
0.000125574
0.000125577
0.000125573
0.000119899
0.000119858
0.000119906
0.000125576
0.000125573
0.000125576
0.000125573
0.000119859
0.000119907
0.000125579
0.00012557
0.000125579
0.00012557
0.00012557
0.000125579
0.00012557
0.000119854
0.000119902
0.000125573
0.000125577
0.000125573
0.000119898
0.000119858
0.000119906
0.000125576
0.000125573
0.000125576
0.000125573
0.000119859
0.000119907
0.000125579
0.000125571
0.00012558
0.00012557
0.00012557
0.000125579
0.00012557
0.000119854
0.000119902
0.000125573
0.000125577
0.000125574
0.000119899
0.000119858
0.000119906
0.000125576
0.000125574
0.000125576
0.000125573
0.000119859
0.000119907
0.00012558
0.000125571
0.00012558
0.000125571
0.00012557
0.000125579
0.00012557
0.000119854
0.000119902
0.000125574
0.000125578
0.000125574
0.000119899
0.000119858
0.000119906
0.000125576
0.000125573
0.000125576
0.000125573
0.000119859
0.000119907
0.00012558
0.000125571
0.000125579
0.000125571
0.000125571
0.000125579
0.000125571
0.000119854
0.000119902
0.000125574
0.000125578
0.000125574
0.000119899
0.000119858
0.000119906
0.000125576
0.000125573
0.000125576
0.000125573
0.000119859
0.000119907
0.000125579
0.000125571
0.000125579
0.000125571
0.000125571
0.000125579
0.000125571
0.000119855
0.000119902
0.000125574
0.000125578
0.000125574
0.000119899
0.000119858
0.000119906
0.000125576
0.000125573
0.000125576
0.000125573
0.000119859
0.000119907
0.000125579
0.000125571
0.000125579
0.000125571
0.000125571
0.000125579
0.00012557
0.000119855
0.000119902
0.000125574
0.000125577
0.000125574
0.000119899
0.000119858
0.000119906
0.000125576
0.000125573
0.000125576
0.000125573
0.000119859
0.000119907
0.000125579
0.000125571
0.000125579
0.000125571
0.00012557
0.000125579
0.00012557
0.000119855
0.000119902
0.000125574
0.000125578
0.000125574
0.000119899
0.000119858
0.000119906
0.000125576
0.000125573
0.000125576
0.000125573
0.000119859
0.000119906
0.000125579
0.00012557
0.000125579
0.00012557
0.00012557
0.000125579
0.00012557
0.000119855
0.000119902
0.000125574
0.000125577
0.000125574
0.000119899
0.000119858
0.000119906
0.000125576
0.000125573
0.000125576
0.000125573
0.000119859
0.000119907
0.000125579
0.00012557
0.000125579
0.00012557
0.00012557
0.00012558
0.00012557
0.000119854
0.000119902
0.000125573
0.000125577
0.000125573
0.000119899
0.000119858
0.000119906
0.000125576
0.000125573
0.000125576
0.000125573
0.000119859
0.000119907
0.000125579
0.00012557
0.000125579
0.000125571
0.00012557
0.000125579
0.00012557
0.000119854
0.000119902
0.000125573
0.000125577
0.000125573
0.000119898
0.000119858
0.000119906
0.000125576
0.000125573
0.000125576
0.000125574
0.000119859
0.000119907
0.000125579
0.000125571
0.000125579
0.000125571
0.00012557
0.00012558
0.00012557
0.000119854
0.000119902
0.000125573
0.000125578
0.000125574
0.000119899
0.000119858
0.000119906
0.000125576
0.000125574
0.000125576
0.000125574
0.000119859
0.000119907
0.000125579
0.000125571
0.000125579
0.000125571
0.00012557
0.000125581
0.00012557
0.000119854
0.000119902
0.000125574
0.000125578
0.000125574
0.000119899
0.000119858
0.000119906
0.000125576
0.000125574
0.000125576
0.000125573
0.000119859
0.000119907
0.000125579
0.000125571
0.000125579
0.000125571
0.00012557
0.00012558
0.00012557
0.000119855
0.000119902
0.000125574
0.000125578
0.000125574
0.000119899
0.000119858
0.000119906
0.000125576
0.000125573
0.000125577
0.000125574
0.000119859
0.000119907
0.000125579
0.000125571
0.000125579
0.00012557
0.00012557
0.00012558
0.000125571
0.000119855
0.000119902
0.000125574
0.000125578
0.000125574
0.000119899
0.000119859
0.000119906
0.000125577
0.000125574
0.000125576
0.000125574
0.000119859
0.000119907
0.000125579
0.00012557
0.000125579
0.00012557
0.000125571
0.00012558
0.000125571
0.000119854
0.000119902
0.000125574
0.000125577
0.000125574
0.000119899
0.000119858
0.000119906
0.000125576
0.000125574
0.000125576
0.000125574
0.00011986
0.000119907
0.000125579
0.00012557
0.000125579
0.00012557
0.000125571
0.00012558
0.000125571
0.000119854
0.000119902
0.000125574
0.000125578
0.000125574
0.000119899
0.000119858
0.000119906
0.000125576
0.000125574
0.000125576
0.000125574
0.00011986
0.000119907
0.000125579
0.00012557
0.000125579
0.00012557
0.000125571
0.00012558
0.00012557
0.000119854
0.000119902
0.000125574
0.000125579
0.000125574
0.000119899
0.000119858
0.000119906
0.000125576
0.000125574
0.000125576
0.000125574
0.000119859
0.000119907
0.000125579
0.000125571
0.000125579
0.000125571
0.00012557
0.00012558
0.000125569
0.000119855
0.000119902
0.000125573
0.000125578
0.000125573
0.000119898
0.000119858
0.000119906
0.000125576
0.000125574
0.000125576
0.000125574
0.000119859
0.000119907
0.000125579
0.000125571
0.000125579
0.000125571
0.000125569
0.00012558
0.00012557
0.000119855
0.000119902
0.000125573
0.000125577
0.000125573
0.000119898
0.000119858
0.000119906
0.000125576
0.000125574
0.000125576
0.000125574
0.000119859
0.000119907
0.000125579
0.000125571
0.000125579
0.00012557
0.00012557
0.00012558
0.00012557
0.000119855
0.000119902
0.000125573
0.000125577
0.000125573
0.000119899
0.000119858
0.000119906
0.000125576
0.000125574
0.000125576
0.000125574
0.000119859
0.000119907
0.000125579
0.00012557
0.000125579
0.00012557
0.00012557
0.00012558
0.00012557
0.000119854
0.000119902
0.000125573
0.000125578
0.000125573
0.000119898
0.000119858
0.000119906
0.000125576
0.000125574
0.000125577
0.000125574
0.000119859
0.000119907
0.000125579
0.00012557
0.000125579
0.00012557
0.00012557
0.00012558
0.00012557
0.000119854
0.000119902
0.000125573
0.000125577
0.000125573
0.000119898
0.000119858
0.000119906
0.000125577
0.000125574
0.000125577
0.000125574
0.00011986
0.000119907
0.000125579
0.00012557
0.000125579
0.00012557
0.00012557
0.00012558
0.00012557
0.000119854
0.000119902
0.000125573
0.000125577
0.000125573
0.000119899
0.000119858
0.000119906
0.000125577
0.000125574
0.000125576
0.000125574
0.000119859
0.000119907
0.000125579
0.00012557
0.000125579
0.00012557
0.00012557
0.00012558
0.00012557
0.000119854
0.000119902
0.000125573
0.000125578
0.000125573
0.000119899
0.000119858
0.000119906
0.000125576
0.000125574
0.000125576
0.000125574
0.000119859
0.000119907
0.000125579
0.00012557
0.000125579
0.00012557
0.00012557
0.00012558
0.00012557
0.000119854
0.000119902
0.000125573
0.000125578
0.000125573
0.000119898
0.000119858
0.000119906
0.000125577
0.000125574
0.000125577
0.000125574
0.000119859
0.000119907
0.000125579
0.00012557
0.000125579
0.000125571
0.00012557
0.00012558
0.00012557
0.000119854
0.000119902
0.000125573
0.000125577
0.000125573
0.000119899
0.000119858
0.000119906
0.000125577
0.000125574
0.000125577
0.000125574
0.00011986
0.000119907
0.000125579
0.000125571
0.000125579
0.000125571
0.00012557
0.00012558
0.000125571
0.000119855
0.000119902
0.000125573
0.000125577
0.000125574
0.000119899
0.000119858
0.000119906
0.000125577
0.000125574
0.000125577
0.000125574
0.000119859
0.000119907
0.000125579
0.000125571
0.000125579
0.000125571
0.000125571
0.00012558
0.000125571
0.000119854
0.000119902
0.000125574
0.000125577
0.000125573
0.000119899
0.000119858
0.000119906
0.000125577
0.000125574
0.000125576
0.000125574
0.000119859
0.000119907
0.000125579
0.000125571
0.000125578
0.00012557
0.000125571
0.00012558
0.00012557
0.000119855
0.000119902
0.000125573
0.000125577
0.000125573
0.000119899
0.000119858
0.000119906
0.000125576
0.000125574
0.000125576
0.000125574
0.000119859
0.000119907
0.000125578
0.00012557
0.000125578
0.00012557
0.00012557
0.000125579
0.00012557
0.000119854
0.000119902
0.000125573
0.000125577
0.000125573
0.000119898
0.000119858
0.000119906
0.000125576
0.000125574
0.000125576
0.000125574
0.000119859
0.000119907
0.000125578
0.00012557
0.000125578
0.00012557
0.00012557
0.000125579
0.00012557
0.000119854
0.000119902
0.000125573
0.000125578
0.000125573
0.000119899
0.000119858
0.000119906
0.000125576
0.000125574
0.000125576
0.000125574
0.00011986
0.000119907
0.000125579
0.00012557
0.000125579
0.00012557
0.00012557
0.00012558
0.000125571
0.000119854
0.000119902
0.000125573
0.000125578
0.000125573
0.000119899
0.000119858
0.000119906
0.000125577
0.000125574
0.000125577
0.000125574
0.00011986
0.000119907
0.000125579
0.000125571
0.000125579
0.00012557
0.000125571
0.00012558
0.00012557
0.000119854
0.000119902
0.000125573
0.000125577
0.000125573
0.000119899
0.000119858
0.000119906
0.000125577
0.000125574
0.000125577
0.000125574
0.00011986
0.000119907
0.000125579
0.000125571
0.000125579
0.00012557
0.00012557
0.00012558
0.00012557
0.000119854
0.000119902
0.000125573
0.000125578
0.000125573
0.000119899
0.000119858
0.000119906
0.000125577
0.000125574
0.000125577
0.000125574
0.00011986
0.000119907
0.000125579
0.00012557
0.000125579
0.00012557
0.00012557
0.00012558
0.00012557
0.000119855
0.000119902
0.000125573
0.000125577
0.000125573
0.000119898
0.000119858
0.000119906
0.000125577
0.000125574
0.000125577
0.000125574
0.00011986
0.000119907
0.000125579
0.000125571
0.000125579
0.000125571
0.00012557
0.00012558
0.00012557
0.000119854
0.000119902
0.000125573
0.000125578
0.000125573
0.000119899
0.000119858
0.000119906
0.000125577
0.000125574
0.000125577
0.000125574
0.00011986
0.000119907
0.000125579
0.000125571
0.000125579
0.000125571
0.00012557
0.00012558
0.000125571
0.000119855
0.000119902
0.000125573
0.000125577
0.000125573
0.000119899
0.000119858
0.000119906
0.000125577
0.000125574
0.000125577
0.000125574
0.000119859
0.000119907
0.000125579
0.000125571
0.000125579
0.00012557
0.000125571
0.00012558
0.00012557
0.000119854
0.000119902
0.000125573
0.000125577
0.000125573
0.000119899
0.000119858
0.000119906
0.000125577
0.000125574
0.000125576
0.000125574
0.00011986
0.000119907
0.000125579
0.00012557
0.000125579
0.00012557
0.00012557
0.000125581
0.00012557
0.000119854
0.000119902
0.000125573
0.000125578
0.000125573
0.000119898
0.000119858
0.000119906
0.000125576
0.000125574
0.000125576
0.000125574
0.000119859
0.000119907
0.000125579
0.00012557
0.000125578
0.00012557
0.00012557
0.000125581
0.00012557
0.000119854
0.000119902
0.000125573
0.000125577
0.000125574
0.0001199
0.000119858
0.000119906
0.000125576
0.000125574
0.000125576
0.000125574
0.00011986
0.000119907
0.000125578
0.00012557
0.000125578
0.00012557
0.000125571
0.00012558
0.000125571
0.000119854
0.000119902
0.000125574
0.000125577
0.000125574
0.000119899
0.000119858
0.000119906
0.000125576
0.000125574
0.000125576
0.000125574
0.000119859
0.000119907
0.000125578
0.00012557
0.000125578
0.00012557
0.000125571
0.00012558
0.000125571
0.000119854
0.000119902
0.000125574
0.000125577
0.000125573
0.000119899
0.000119858
0.000119906
0.000125576
0.000125574
0.000125576
0.000125574
0.000119859
0.000119907
0.000125579
0.00012557
0.000125579
0.00012557
0.00012557
0.000125581
0.00012557
0.000119854
0.000119902
0.000125573
0.000125578
0.000125573
0.000119899
0.000119858
0.000119906
0.000125576
0.000125574
0.000125576
0.000125574
0.00011986
0.000119907
0.000125579
0.000125571
0.000125579
0.000125571
0.00012557
0.00012558
0.00012557
0.000119854
0.000119902
0.000125573
0.000125577
0.000125573
0.000119898
0.000119858
0.000119906
0.000125576
0.000125574
0.000125576
0.000125574
0.000119859
0.000119907
0.000125579
0.000125571
0.000125579
0.00012557
0.00012557
0.00012558
0.00012557
0.000119854
0.000119902
0.000125573
0.000125578
0.000125573
0.000119899
0.000119858
0.000119906
0.000125577
0.000125574
0.000125577
0.000125574
0.000119859
0.000119907
0.000125579
0.00012557
0.000125579
0.00012557
0.00012557
0.000125581
0.000125571
0.000119854
0.000119902
0.000125574
0.000125578
0.000125574
0.000119899
0.000119858
0.000119906
0.000125577
0.000125574
0.000125577
0.000125574
0.000119859
0.000119907
0.000125579
0.00012557
0.000125579
0.00012557
0.000125571
0.00012558
0.000125571
0.000119854
0.000119902
0.000125574
0.000125578
0.000125574
0.000119899
0.000119858
0.000119906
0.000125577
0.000125574
0.000125576
0.000125574
0.000119859
0.000119907
0.000125579
0.000125571
0.000125579
0.00012557
0.000125571
0.00012558
0.000125571
0.000119855
0.000119902
0.000125574
0.000125577
0.000125574
0.000119899
0.000119858
0.000119906
0.000125576
0.000125574
0.000125576
0.000125574
0.000119859
0.000119907
0.000125579
0.000125571
0.000125578
0.00012557
0.000125571
0.00012558
0.00012557
0.000119855
0.000119902
0.000125574
0.000125578
0.000125573
0.000119899
0.000119858
0.000119906
0.000125576
0.000125574
0.000125576
0.000125573
0.00011986
0.000119907
0.000125579
0.00012557
0.000125578
0.00012557
0.000125571
0.00012558
0.00012557
0.000119855
0.000119902
0.000125573
0.000125577
0.000125573
0.000119899
0.000119858
0.000119906
0.000125576
0.000125574
0.000125576
0.000125573
0.00011986
0.000119907
0.000125578
0.00012557
0.000125578
0.00012557
0.00012557
0.00012558
0.00012557
0.000119854
0.000119902
0.000125573
0.000125577
0.000125573
0.000119899
0.000119858
0.000119906
0.000125576
0.000125574
0.000125576
0.000125573
0.00011986
0.000119907
0.000125578
0.00012557
0.000125578
0.00012557
0.00012557
0.00012558
0.00012557
0.000119854
0.000119902
0.000125574
0.000125577
0.000125573
0.000119899
0.000119858
0.000119906
0.000125577
0.000125574
0.000125576
0.000125574
0.00011986
0.000119907
0.000125579
0.00012557
0.000125578
0.00012557
0.00012557
0.000125579
0.00012557
0.000119854
0.000119902
0.000125573
0.000125577
0.000125573
0.000119899
0.000119858
0.000119906
0.000125577
0.000125574
0.000125577
0.000125574
0.00011986
0.000119908
0.000125579
0.000125571
0.000125579
0.00012557
0.00012557
0.000125579
0.00012557
0.000119855
0.000119902
0.000125573
0.000125577
0.000125573
0.000119899
0.000119858
0.000119907
0.000125578
0.000125575
0.000125577
0.000125574
0.00011986
0.000119908
0.00012558
0.000125571
0.00012558
0.000125571
0.000125571
0.00012558
0.000125571
0.000119855
0.000119903
0.000125574
0.000125577
0.000125574
0.0001199
0.000119859
0.000119908
0.000125578
0.000125575
0.000125578
0.000125576
0.00011986
0.000119909
0.000125581
0.000125572
0.000125581
0.000125572
0.000125572
0.000125581
0.000125572
0.000119855
0.000119904
0.000125575
0.000125578
0.000125575
0.0001199
0.00011986
0.000119909
0.00012558
0.000125577
0.00012558
0.000125578
0.000119861
0.000119911
0.000125582
0.000125573
0.000125583
0.000125574
0.000125573
0.000125583
0.000125574
0.000119857
0.000119906
0.000125576
0.000125581
0.000125577
0.000119902
0.000119862
0.000119912
0.000125582
0.00012558
0.000125584
0.000125582
0.000119864
0.000119914
0.000125585
0.000125576
0.000125587
0.000125578
0.000125576
0.000125587
0.000125578
0.000119859
0.000119908
0.000125579
0.000125584
0.000125581
0.000119905
0.000119866
0.000119921
0.000125587
0.000125584
0.000125596
0.000125594
0.000119867
0.000119922
0.000125589
0.000125581
0.000125599
0.000125591
0.000125581
0.000125599
0.000125589
0.000119862
0.000119917
0.000125584
0.000125596
0.000125593
0.000119914
0.000119873
0.000120353
0.000125584
0.000125582
0.000125961
0.000125959
0.000119874
0.000120353
0.000125587
0.000125578
0.000125963
0.000125957
0.000125577
0.000125962
0.000125955
0.00011987
0.00012035
0.000125581
0.00012596
0.000125957
0.000120345
0.000120828
0.000126127
0.000126125
0.000120828
0.000126128
0.000126123
0.000130642
0.000130641
0.000130639
0.000126121
0.000120825
0.000126123
0.000127935
6.11943e-05
0.000105733
0.000105727
4.9172e-07
1.88154e-05
2.91427e-06
7.98575e-05
5.33031e-07
1.82707e-05
8.00612e-05
3.4879e-06
4.97222e-06
1.8344e-06
1.75425e-06
9.77369e-07
1.55675e-05
8.45324e-07
1.70078e-05
1.12502e-05
1.34648e-05
9.61303e-07
1.40755e-05
8.96761e-07
1.57468e-05
8.27871e-05
8.2825e-05
8.27488e-05
8.40874e-05
8.41296e-05
8.41665e-05
8.40651e-05
5.63001e-07
7.64766e-07
4.82767e-05
1.94207e-05
5.14421e-07
8.36169e-07
4.89028e-05
1.08403e-05
1.2941e-05
6.34289e-07
4.88834e-05
1.85779e-06
1.9726e-05
5.73699e-07
4.95239e-05
2.15845e-06
1.76617e-06
1.57853e-06
6.8747e-06
2.02928e-06
1.79835e-06
1.25856e-06
1.99654e-05
1.18451e-06
2.19191e-05
1.7602e-05
1.97403e-05
1.19954e-06
1.97606e-05
1.09957e-06
2.1839e-05
8.49232e-05
8.49601e-05
8.48658e-05
8.73288e-05
8.73583e-05
8.73849e-05
8.73256e-05
8.65135e-07
1.06634e-06
5.24603e-05
2.48393e-05
6.38675e-07
1.34858e-06
5.37857e-05
1.7426e-05
1.93467e-05