/*--------------------------------*- C++ -*----------------------------------*\
| =========                 |                                                 |
| \\      /  F ield         | OpenFOAM: The Open Source CFD Toolbox           |
|  \\    /   O peration     | Version:  v2012                                 |
|   \\  /    A nd           | Website:  www.openfoam.com                      |
|    \\/     M anipulation  |                                                 |
\*---------------------------------------------------------------------------*/
FoamFile
{
    version     2.0;
    format      ascii;
    class       volScalarField;
    location    "50";
    object      p;
}
// * * * * * * * * * * * * * * * * * * * * * * * * * * * * * * * * * * * * * //

dimensions      [0 2 -2 0 0 0 0];


internalField   nonuniform List<scalar> 
171728
(
0.00375466
0.00375496
0.00375485
0.00375714
0.00371618
0.00371602
0.00371596
0.00371906
0.00368016
0.00367973
0.00367968
0.00368174
0.0036342
0.00363395
0.00363399
0.00363664
0.00358655
0.00358629
0.00358622
0.00358897
0.00353813
0.00353793
0.00353796
0.00354058
0.00349025
0.00349012
0.00349006
0.0034927
0.00344359
0.00344355
0.00344349
0.00344618
0.00339809
0.00339809
0.00339809
0.00340079
0.00335235
0.00335239
0.0033524
0.00335527
0.00330583
0.00330553
0.00330553
0.00330829
0.00326186
0.00326156
0.00326156
0.00326414
0.00322085
0.00322072
0.00322072
0.00322313
0.0031812
0.00318114
0.00318114
0.00318347
0.00314188
0.00314184
0.00314184
0.00314416
0.00310261
0.00310256
0.00310256
0.00310489
0.00306333
0.00306329
0.00306329
0.00306562
0.00302406
0.00302401
0.00302401
0.00302634
0.00298478
0.00298474
0.00298474
0.00298706
0.00294549
0.00294545
0.00294545
0.00294778
0.00290621
0.00290617
0.00290617
0.0029085
0.00286693
0.00286689
0.00286689
0.00286922
0.00282765
0.00282761
0.00282761
0.00282994
0.00278837
0.00278833
0.00278833
0.00279065
0.00274908
0.00274904
0.00274904
0.00275137
0.0027098
0.00270976
0.00270976
0.00271209
0.00267052
0.00267048
0.00267048
0.00267281
0.00263124
0.0026312
0.0026312
0.00263352
0.00259195
0.00259191
0.00259191
0.00259424
0.00255267
0.00255263
0.00255263
0.00255495
0.00251338
0.00251334
0.00251334
0.00251567
0.0024741
0.00247406
0.00247406
0.00247639
0.00243482
0.00243478
0.00243478
0.0024371
0.00239553
0.00239549
0.00239549
0.00239782
0.00235625
0.00235621
0.00235621
0.00235853
0.00231696
0.00231692
0.00231692
0.00231925
0.00227768
0.00227764
0.00227764
0.00227997
0.0022384
0.00223836
0.00223836
0.00224068
0.00219911
0.00219907
0.00219907
0.0022014
0.00215983
0.00215979
0.00215979
0.00216211
0.00212054
0.0021205
0.0021205
0.00212283
0.00208126
0.00208122
0.00208122
0.00208355
0.00204197
0.00204193
0.00204193
0.00204426
0.00200269
0.00200265
0.00200265
0.00200498
0.00196341
0.00196337
0.00196337
0.00196569
0.00192412
0.00192408
0.00192408
0.00192641
0.00188484
0.0018848
0.0018848
0.00188713
0.00184556
0.00184552
0.00184552
0.00184785
0.00180628
0.00180624
0.00180624
0.00180856
0.00176699
0.00176695
0.00176695
0.00176928
0.00172771
0.00172767
0.00172767
0.00173
0.00168843
0.00168839
0.00168839
0.00169071
0.00164914
0.0016491
0.0016491
0.00165143
0.00160986
0.00160982
0.00160982
0.00161215
0.00157058
0.00157054
0.00157054
0.00157287
0.0015313
0.00153126
0.00153126
0.00153358
0.00149201
0.00149197
0.00149197
0.0014943
0.00145273
0.00145269
0.00145269
0.00145502
0.00141345
0.00141341
0.00141341
0.00141573
0.00137416
0.00137412
0.00137412
0.00137645
0.00133488
0.00133484
0.00133484
0.00133716
0.00129559
0.00129555
0.00129555
0.00129788
0.00125631
0.00125627
0.00125627
0.0012586
0.00121703
0.00121699
0.00121699
0.00121932
0.00117775
0.00117771
0.00117771
0.00118003
0.00113846
0.00113842
0.00113842
0.00114075
0.00109918
0.00109914
0.00109914
0.00110146
0.00105989
0.00105985
0.00105985
0.00106218
0.00102061
0.00102057
0.00102057
0.0010229
0.000981327
0.000981287
0.000981287
0.000983613
0.000942045
0.000942004
0.000942005
0.000944331
0.000902762
0.000902721
0.000902722
0.000905048
0.000863479
0.000863438
0.000863438
0.000865765
0.000824195
0.000824155
0.000824155
0.000826482
0.000784912
0.000784872
0.000784872
0.000787198
0.000745629
0.000745588
0.000745588
0.000747915
0.000706346
0.000706306
0.000706306
0.000708632
0.000667064
0.000667024
0.000667024
0.00066935
0.000627783
0.000627742
0.000627742
0.000630069
0.000588502
0.000588461
0.000588461
0.000590788
0.000549221
0.000549181
0.000549181
0.000551507
0.000509939
0.000509899
0.000509899
0.000512226
0.000470657
0.000470617
0.000470617
0.000472944
0.000431374
0.000431334
0.000431334
0.00043366
0.000392089
0.000392048
0.000392048
0.000394373
0.000352806
0.000352763
0.000352763
0.000355089
0.000313522
0.000313484
0.000313484
0.000315809
0.000274238
0.000274197
0.000274197
0.000276518
0.00023495
0.000234911
0.000234911
0.000237231
0.000195665
0.000195626
0.000195626
0.000197941
0.000156369
0.000156332
0.000156332
0.000158636
0.000117064
0.000117035
0.000117035
0.000119321
7.77624e-05
7.77223e-05
7.77208e-05
7.99794e-05
3.92739e-05
3.87097e-05
3.87065e-05
4.07792e-05
7.02858e-06
7.0489e-06
7.04778e-06
6.90234e-06
0.00376327
0.00376293
0.00376301
0.0037634
0.00376305
0.003763
0.00376452
0.00376456
0.00376452
0.00376454
0.00376312
0.00376303
0.0037633
0.00376297
0.00376299
0.00376336
0.00375704
0.00372283
0.00375479
0.00375484
0.00372419
0.00372424
0.00375709
0.00372282
0.00375477
0.00375487
0.00372441
0.00372469
0.00375495
0.00372428
0.00372398
0.00375708
0.0037228
0.00375487
0.00372425
0.00372425
0.00372275
0.00371901
0.00368709
0.00371603
0.00371596
0.0036902
0.00369018
0.003719
0.00368709
0.00371605
0.00371631
0.00369025
0.00369021
0.0037162
0.00369017
0.00368994
0.00371908
0.0036871
0.003716
0.00369023
0.00369023
0.00368702
0.00368179
0.00364263
0.00367973
0.00367974
0.00364562
0.00364561
0.00368178
0.00364263
0.00367976
0.00367964
0.00364565
0.00364561
0.00367978
0.00364557
0.00364561
0.00368176
0.00364262
0.00367963
0.00364567
0.00364551
0.0036426
0.00363666
0.00359516
0.00363402
0.00363395
0.00359834
0.00359828
0.00363664
0.00359517
0.00363398
0.00363394
0.00359844
0.00359831
0.00363396
0.00359826
0.00359836
0.00363666
0.00359516
0.00363394
0.00359827
0.00359817
0.00359516
0.00358899
0.00354677
0.00358627
0.00358625
0.00354997
0.00354992
0.00358898
0.00354676
0.00358614
0.00358618
0.00354998
0.00354989
0.00358623
0.00354991
0.00354998
0.00358898
0.00354675
0.00358626
0.00354985
0.00354984
0.00354676
0.00354058
0.00349878
0.00353791
0.0035379
0.00350199
0.00350193
0.00354058
0.0034988
0.00353778
0.00353781
0.00350198
0.00350195
0.0035379
0.00350198
0.00350203
0.00354057
0.00349877
0.00353784
0.00350185
0.00350195
0.00349879
0.00349269
0.00345209
0.0034901
0.00349008
0.00345503
0.00345503
0.00349271
0.00345212
0.00349005
0.00349004
0.00345508
0.00345506
0.00349013
0.00345506
0.00345505
0.00349267
0.00345211
0.00349008
0.00345495
0.00345505
0.00345209
0.00344618
0.00340665
0.00344354
0.00344354
0.00340941
0.00340942
0.0034462
0.00340666
0.00344357
0.00344356
0.0034094
0.00340941
0.00344355
0.00340941
0.00340942
0.00344619
0.00340667
0.00344355
0.00340941
0.00340941
0.00340665
0.00340079
0.00336132
0.0033981
0.0033981
0.00336404
0.00336404
0.00340079
0.00336132
0.00339808
0.00339809
0.00336404
0.00336404
0.0033981
0.00336403
0.00336403
0.00340081
0.00336133
0.00339809
0.00336404
0.00336404
0.00336132
0.00335528
0.00331442
0.00335239
0.00335239
0.00331711
0.0033171
0.00335527
0.00331441
0.00335239
0.0033524
0.00331711
0.00331711
0.00335239
0.0033171
0.0033171
0.00335528
0.00331442
0.00335239
0.00331711
0.0033171
0.00331441
0.0033083
0.00326974
0.00330553
0.00330553
0.00327218
0.00327218
0.00330829
0.00326974
0.00330553
0.00330554
0.00327218
0.00327218
0.00330553
0.00327218
0.00327218
0.0033083
0.00326974
0.00330553
0.00327218
0.00327218
0.00326974
0.00326413
0.00322839
0.00326156
0.00326156
0.00323074
0.00323074
0.00326414
0.00322839
0.00326156
0.00326156
0.00323074
0.00323074
0.00326156
0.00323074
0.00323074
0.00326414
0.00322839
0.00326156
0.00323074
0.00323074
0.00322839
0.00322313
0.00318865
0.00322072
0.00322072
0.00319099
0.00319099
0.00322313
0.00318865
0.00322072
0.00322072
0.00319099
0.00319099
0.00322072
0.00319099
0.00319099
0.00322313
0.00318865
0.00322072
0.00319099
0.00319099
0.00318865
0.00318347
0.00314933
0.00318114
0.00318114
0.00315166
0.00315166
0.00318347
0.00314933
0.00318114
0.00318114
0.00315166
0.00315166
0.00318114
0.00315166
0.00315166
0.00318347
0.00314933
0.00318114
0.00315166
0.00315166
0.00314933
0.00314416
0.00311006
0.00314184
0.00314184
0.00311238
0.00311238
0.00314416
0.00311006
0.00314184
0.00314184
0.00311238
0.00311238
0.00314184
0.00311238
0.00311238
0.00314416
0.00311006
0.00314184
0.00311238
0.00311238
0.00311006
0.00310489
0.00307078
0.00310257
0.00310256
0.00307311
0.00307311
0.00310489
0.00307079
0.00310256
0.00310257
0.00307311
0.00307311
0.00310257
0.00307311
0.00307311
0.00310489
0.00307078
0.00310257
0.00307311
0.00307311
0.00307078
0.00306562
0.00303151
0.00306329
0.00306329
0.00303383
0.00303383
0.00306562
0.00303151
0.00306329
0.00306329
0.00303383
0.00303383
0.00306329
0.00303383
0.00303383
0.00306562
0.00303151
0.00306329
0.00303383
0.00303383
0.00303151
0.00302634
0.00299223
0.00302402
0.00302402
0.00299456
0.00299456
0.00302634
0.00299223
0.00302401
0.00302401
0.00299456
0.00299456
0.00302401
0.00299456
0.00299456
0.00302634
0.00299223
0.00302401
0.00299456
0.00299456
0.00299223
0.00298706
0.00295295
0.00298474
0.00298474
0.00295527
0.00295527
0.00298706
0.00295295
0.00298474
0.00298474
0.00295528
0.00295528
0.00298474
0.00295527
0.00295528
0.00298706
0.00295295
0.00298474
0.00295528
0.00295528
0.00295295
0.00294778
0.00291367
0.00294545
0.00294545
0.00291599
0.00291599
0.00294778
0.00291367
0.00294545
0.00294545
0.00291599
0.00291599
0.00294545
0.00291599
0.00291599
0.00294778
0.00291367
0.00294545
0.00291599
0.00291599
0.00291367
0.0029085
0.00287439
0.00290617
0.00290617
0.00287671
0.00287671
0.0029085
0.00287439
0.00290617
0.00290617
0.00287671
0.00287671
0.00290617
0.00287671
0.00287671
0.0029085
0.00287439
0.00290617
0.00287671
0.00287671
0.00287439
0.00286922
0.0028351
0.00286689
0.00286689
0.00283743
0.00283743
0.00286922
0.0028351
0.00286689
0.00286689
0.00283743
0.00283743
0.00286689
0.00283743
0.00283743
0.00286922
0.0028351
0.00286689
0.00283743
0.00283743
0.0028351
0.00282993
0.00279582
0.00282761
0.00282761
0.00279815
0.00279815
0.00282993
0.00279582
0.00282761
0.00282761
0.00279815
0.00279815
0.00282761
0.00279815
0.00279815
0.00282994
0.00279582
0.00282761
0.00279815
0.00279815
0.00279582
0.00279065
0.00275654
0.00278833
0.00278833
0.00275886
0.00275886
0.00279065
0.00275654
0.00278833
0.00278833
0.00275886
0.00275886
0.00278833
0.00275886
0.00275886
0.00279065
0.00275654
0.00278833
0.00275886
0.00275886
0.00275654
0.00275137
0.00271726
0.00274904
0.00274904
0.00271958
0.00271958
0.00275137
0.00271726
0.00274904
0.00274904
0.00271958
0.00271958
0.00274904
0.00271958
0.00271958
0.00275137
0.00271726
0.00274904
0.00271958
0.00271958
0.00271726
0.00271209
0.00267797
0.00270976
0.00270976
0.0026803
0.0026803
0.00271209
0.00267797
0.00270976
0.00270976
0.0026803
0.0026803
0.00270976
0.0026803
0.0026803
0.00271209
0.00267797
0.00270976
0.0026803
0.0026803
0.00267797
0.0026728
0.00263869
0.00267048
0.00267048
0.00264102
0.00264102
0.0026728
0.00263869
0.00267048
0.00267048
0.00264102
0.00264102
0.00267048
0.00264102
0.00264102
0.0026728
0.00263869
0.00267048
0.00264102
0.00264102
0.00263869
0.00263352
0.00259941
0.0026312
0.0026312
0.00260173
0.00260173
0.00263352
0.00259941
0.0026312
0.0026312
0.00260173
0.00260173
0.0026312
0.00260173
0.00260173
0.00263352
0.00259941
0.0026312
0.00260173
0.00260173
0.00259941
0.00259424
0.00256012
0.00259191
0.00259191
0.00256245
0.00256245
0.00259424
0.00256012
0.00259191
0.00259191
0.00256245
0.00256245
0.00259191
0.00256245
0.00256245
0.00259424
0.00256012
0.00259191
0.00256245
0.00256245
0.00256012
0.00255495
0.00252084
0.00255263
0.00255263
0.00252317
0.00252317
0.00255495
0.00252084
0.00255263
0.00255263
0.00252317
0.00252317
0.00255263
0.00252317
0.00252317
0.00255495
0.00252084
0.00255263
0.00252317
0.00252317
0.00252084
0.00251567
0.00248156
0.00251334
0.00251334
0.00248388
0.00248388
0.00251567
0.00248156
0.00251334
0.00251334
0.00248388
0.00248388
0.00251334
0.00248388
0.00248388
0.00251567
0.00248156
0.00251334
0.00248388
0.00248388
0.00248156
0.00247639
0.00244227
0.00247406
0.00247406
0.0024446
0.0024446
0.00247639
0.00244227
0.00247406
0.00247406
0.0024446
0.0024446
0.00247406
0.0024446
0.0024446
0.00247639
0.00244227
0.00247406
0.0024446
0.0024446
0.00244227
0.0024371
0.00240299
0.00243478
0.00243478
0.00240531
0.00240531
0.0024371
0.00240299
0.00243478
0.00243478
0.00240531
0.00240531
0.00243478
0.00240531
0.00240531
0.0024371
0.00240299
0.00243478
0.00240531
0.00240531
0.00240299
0.00239782
0.0023637
0.00239549
0.00239549
0.00236603
0.00236603
0.00239782
0.0023637
0.00239549
0.00239549
0.00236603
0.00236603
0.00239549
0.00236603
0.00236603
0.00239782
0.0023637
0.00239549
0.00236603
0.00236603
0.0023637
0.00235853
0.00232442
0.00235621
0.00235621
0.00232675
0.00232675
0.00235853
0.00232442
0.00235621
0.00235621
0.00232675
0.00232675
0.00235621
0.00232675
0.00232675
0.00235853
0.00232442
0.00235621
0.00232675
0.00232675
0.00232442
0.00231925
0.00228514
0.00231692
0.00231692
0.00228746
0.00228746
0.00231925
0.00228514
0.00231692
0.00231692
0.00228746
0.00228746
0.00231692
0.00228746
0.00228746
0.00231925
0.00228514
0.00231692
0.00228746
0.00228746
0.00228514
0.00227997
0.00224585
0.00227764
0.00227764
0.00224818
0.00224818
0.00227997
0.00224585
0.00227764
0.00227764
0.00224818
0.00224818
0.00227764
0.00224818
0.00224818
0.00227997
0.00224585
0.00227764
0.00224818
0.00224818
0.00224585
0.00224068
0.00220657
0.00223836
0.00223836
0.00220889
0.00220889
0.00224068
0.00220657
0.00223836
0.00223836
0.00220889
0.00220889
0.00223836
0.00220889
0.00220889
0.00224068
0.00220657
0.00223836
0.00220889
0.00220889
0.00220657
0.0022014
0.00216728
0.00219907
0.00219907
0.00216961
0.00216961
0.0022014
0.00216728
0.00219907
0.00219907
0.00216961
0.00216961
0.00219907
0.00216961
0.00216961
0.0022014
0.00216728
0.00219907
0.00216961
0.00216961
0.00216728
0.00216211
0.002128
0.00215979
0.00215979
0.00213033
0.00213032
0.00216211
0.002128
0.00215979
0.00215979
0.00213032
0.00213032
0.00215979
0.00213032
0.00213032
0.00216211
0.002128
0.00215979
0.00213032
0.00213032
0.002128
0.00212283
0.00208871
0.0021205
0.0021205
0.00209104
0.00209104
0.00212283
0.00208872
0.0021205
0.0021205
0.00209104
0.00209104
0.0021205
0.00209104
0.00209104
0.00212283
0.00208871
0.0021205
0.00209104
0.00209104
0.00208871
0.00208355
0.00204943
0.00208122
0.00208122
0.00205176
0.00205175
0.00208355
0.00204943
0.00208122
0.00208122
0.00205176
0.00205176
0.00208122
0.00205176
0.00205176
0.00208355
0.00204943
0.00208122
0.00205176
0.00205176
0.00204943
0.00204426
0.00201015
0.00204193
0.00204193
0.00201247
0.00201247
0.00204426
0.00201015
0.00204193
0.00204193
0.00201247
0.00201247
0.00204193
0.00201247
0.00201247
0.00204426
0.00201015
0.00204193
0.00201247
0.00201247
0.00201015
0.00200498
0.00197086
0.00200265
0.00200265
0.00197319
0.00197319
0.00200498
0.00197086
0.00200265
0.00200265
0.00197319
0.00197319
0.00200265
0.00197319
0.00197319
0.00200498
0.00197086
0.00200265
0.00197319
0.00197319
0.00197086
0.00196569
0.00193158
0.00196337
0.00196337
0.0019339
0.0019339
0.00196569
0.00193158
0.00196337
0.00196337
0.0019339
0.0019339
0.00196337
0.0019339
0.0019339
0.00196569
0.00193158
0.00196337
0.0019339
0.0019339
0.00193158
0.00192641
0.0018923
0.00192408
0.00192408
0.00189462
0.00189462
0.00192641
0.0018923
0.00192408
0.00192408
0.00189462
0.00189462
0.00192408
0.00189462
0.00189462
0.00192641
0.0018923
0.00192408
0.00189462
0.00189462
0.0018923
0.00188713
0.00185301
0.0018848
0.0018848
0.00185534
0.00185534
0.00188713
0.00185301
0.0018848
0.0018848
0.00185534
0.00185534
0.0018848
0.00185534
0.00185534
0.00188713
0.00185301
0.0018848
0.00185534
0.00185534
0.00185301
0.00184785
0.00181373
0.00184552
0.00184552
0.00181606
0.00181606
0.00184784
0.00181373
0.00184552
0.00184552
0.00181606
0.00181606
0.00184552
0.00181606
0.00181606
0.00184785
0.00181373
0.00184552
0.00181606
0.00181606
0.00181373
0.00180856
0.00177445
0.00180624
0.00180624
0.00177677
0.00177677
0.00180856
0.00177445
0.00180624
0.00180624
0.00177677
0.00177677
0.00180624
0.00177677
0.00177677
0.00180856
0.00177445
0.00180624
0.00177677
0.00177677
0.00177445
0.00176928
0.00173517
0.00176695
0.00176695
0.00173749
0.00173749
0.00176928
0.00173517
0.00176695
0.00176695
0.00173749
0.00173749
0.00176695
0.00173749
0.00173749
0.00176928
0.00173517
0.00176695
0.00173749
0.00173749
0.00173517
0.00173
0.00169588
0.00172767
0.00172767
0.00169821
0.00169821
0.00173
0.00169588
0.00172767
0.00172767
0.00169821
0.00169821
0.00172767
0.00169821
0.00169821
0.00173
0.00169588
0.00172767
0.00169821
0.00169821
0.00169588
0.00169071
0.0016566
0.00168839
0.00168839
0.00165893
0.00165892
0.00169071
0.0016566
0.00168839
0.00168839
0.00165892
0.00165893
0.00168839
0.00165892
0.00165893
0.00169071
0.0016566
0.00168839
0.00165893
0.00165893
0.0016566
0.00165143
0.00161732
0.0016491
0.0016491
0.00161964
0.00161964
0.00165143
0.00161732
0.0016491
0.0016491
0.00161964
0.00161964
0.0016491
0.00161964
0.00161964
0.00165143
0.00161732
0.0016491
0.00161964
0.00161964
0.00161732
0.00161215
0.00157803
0.00160982
0.00160982
0.00158036
0.00158036
0.00161215
0.00157803
0.00160982
0.00160982
0.00158036
0.00158036
0.00160982
0.00158036
0.00158036
0.00161215
0.00157803
0.00160982
0.00158036
0.00158036
0.00157803
0.00157287
0.00153875
0.00157054
0.00157054
0.00154108
0.00154108
0.00157287
0.00153875
0.00157054
0.00157054
0.00154108
0.00154108
0.00157054
0.00154108
0.00154108
0.00157287
0.00153875
0.00157054
0.00154108
0.00154108
0.00153875
0.00153358
0.00149947
0.00153126
0.00153126
0.00150179
0.00150179
0.00153358
0.00149947
0.00153126
0.00153126
0.00150179
0.00150179
0.00153126
0.00150179
0.00150179
0.00153358
0.00149947
0.00153126
0.00150179
0.00150179
0.00149947
0.0014943
0.00146019
0.00149197
0.00149197
0.00146251
0.00146251
0.0014943
0.00146019
0.00149197
0.00149197
0.00146251
0.00146251
0.00149197
0.00146251
0.00146251
0.0014943
0.00146019
0.00149197
0.00146251
0.00146251
0.00146019
0.00145502
0.0014209
0.00145269
0.00145269
0.00142323
0.00142323
0.00145502
0.0014209
0.00145269
0.00145269
0.00142323
0.00142323
0.00145269
0.00142323
0.00142323
0.00145502
0.0014209
0.00145269
0.00142323
0.00142323
0.0014209
0.00141573
0.00138162
0.00141341
0.00141341
0.00138394
0.00138394
0.00141573
0.00138162
0.00141341
0.00141341
0.00138394
0.00138394
0.00141341
0.00138394
0.00138394
0.00141573
0.00138162
0.00141341
0.00138394
0.00138394
0.00138162
0.00137645
0.00134233
0.00137412
0.00137412
0.00134466
0.00134466
0.00137645
0.00134233
0.00137412
0.00137412
0.00134466
0.00134466
0.00137412
0.00134466
0.00134466
0.00137645
0.00134233
0.00137412
0.00134466
0.00134466
0.00134233
0.00133716
0.00130305
0.00133484
0.00133484
0.00130538
0.00130538
0.00133716
0.00130305
0.00133484
0.00133484
0.00130538
0.00130538
0.00133484
0.00130538
0.00130538
0.00133716
0.00130305
0.00133484
0.00130538
0.00130538
0.00130305
0.00129788
0.00126377
0.00129555
0.00129555
0.00126609
0.00126609
0.00129788
0.00126377
0.00129555
0.00129555
0.00126609
0.00126609
0.00129555
0.00126609
0.00126609
0.00129788
0.00126377
0.00129555
0.00126609
0.00126609
0.00126377
0.0012586
0.00122448
0.00125627
0.00125627
0.00122681
0.00122681
0.0012586
0.00122448
0.00125627
0.00125627
0.00122681
0.00122681
0.00125627
0.00122681
0.00122681
0.0012586
0.00122448
0.00125627
0.00122681
0.00122681
0.00122448
0.00121931
0.0011852
0.00121699
0.00121699
0.00118753
0.00118753
0.00121931
0.0011852
0.00121699
0.00121699
0.00118753
0.00118753
0.00121699
0.00118753
0.00118753
0.00121931
0.0011852
0.00121699
0.00118753
0.00118753
0.0011852
0.00118003
0.00114592
0.00117771
0.00117771
0.00114824
0.00114824
0.00118003
0.00114592
0.00117771
0.00117771
0.00114824
0.00114824
0.00117771
0.00114824
0.00114824
0.00118003
0.00114592
0.00117771
0.00114824
0.00114824
0.00114592
0.00114075
0.00110663
0.00113842
0.00113842
0.00110896
0.00110896
0.00114075
0.00110663
0.00113842
0.00113842
0.00110896
0.00110896
0.00113842
0.00110896
0.00110896
0.00114075
0.00110663
0.00113842
0.00110896
0.00110896
0.00110663
0.00110146
0.00106735
0.00109914
0.00109914
0.00106968
0.00106968
0.00110146
0.00106735
0.00109914
0.00109914
0.00106968
0.00106968
0.00109914
0.00106968
0.00106968
0.00110146
0.00106735
0.00109914
0.00106968
0.00106968
0.00106735
0.00106218
0.00102807
0.00105985
0.00105985
0.00103039
0.00103039
0.00106218
0.00102807
0.00105985
0.00105985
0.00103039
0.00103039
0.00105985
0.00103039
0.00103039
0.00106218
0.00102807
0.00105985
0.00103039
0.00103039
0.00102807
0.0010229
0.000988783
0.00102057
0.00102057
0.000991108
0.000991108
0.0010229
0.000988783
0.00102057
0.00102057
0.000991108
0.000991108
0.00102057
0.000991108
0.000991108
0.0010229
0.000988782
0.00102057
0.000991108
0.000991108
0.000988782
0.000983614
0.0009495
0.000981287
0.000981287
0.000951825
0.000951825
0.000983613
0.0009495
0.000981287
0.000981287
0.000951825
0.000951825
0.000981287
0.000951825
0.000951825
0.000983613
0.0009495
0.000981287
0.000951826
0.000951826
0.0009495
0.000944331
0.000910217
0.000942004
0.000942004
0.000912542
0.000912542
0.000944331
0.000910217
0.000942004
0.000942005
0.000912542
0.000912542
0.000942005
0.000912542
0.000912542
0.000944331
0.000910217
0.000942005
0.000912542
0.000912542
0.000910217
0.000905048
0.000870934
0.000902722
0.000902721
0.000873259
0.000873259
0.000905048
0.000870934
0.000902721
0.000902722
0.000873259
0.000873259
0.000902722
0.000873259
0.000873259
0.000905048
0.000870934
0.000902721
0.000873259
0.000873259
0.000870934
0.000865765
0.00083165
0.000863438
0.000863438
0.000833976
0.000833976
0.000865765
0.000831651
0.000863438
0.000863438
0.000833976
0.000833976
0.000863438
0.000833976
0.000833976
0.000865765
0.00083165
0.000863438
0.000833976
0.000833976
0.00083165
0.000826481
0.000792367
0.000824155
0.000824155
0.000794693
0.000794692
0.000826481
0.000792367
0.000824155
0.000824155
0.000794692
0.000794693
0.000824155
0.000794692
0.000794693
0.000826481
0.000792367
0.000824155
0.000794692
0.000794692
0.000792367
0.000787198
0.000753084
0.000784872
0.000784872
0.000755409
0.000755409
0.000787198
0.000753084
0.000784872
0.000784872
0.000755409
0.000755409
0.000784872
0.000755409
0.000755409
0.000787198
0.000753084
0.000784872
0.000755409
0.000755409
0.000753084
0.000747915
0.000713801
0.000745588
0.000745588
0.000716126
0.000716126
0.000747915
0.000713801
0.000745588
0.000745588
0.000716126
0.000716126
0.000745589
0.000716126
0.000716126
0.000747915
0.000713801
0.000745588
0.000716126
0.000716126
0.000713801
0.000708632
0.000674519
0.000706306
0.000706306
0.000676844
0.000676844
0.000708632
0.000674519
0.000706306
0.000706306
0.000676844
0.000676844
0.000706306
0.000676844
0.000676844
0.000708632
0.000674519
0.000706306
0.000676844
0.000676844
0.000674519
0.00066935
0.000635237
0.000667024
0.000667024
0.000637563
0.000637563
0.00066935
0.000635237
0.000667024
0.000667024
0.000637562
0.000637563
0.000667024
0.000637563
0.000637563
0.00066935
0.000635237
0.000667024
0.000637563
0.000637563
0.000635237
0.000630069
0.000595956
0.000627742
0.000627742
0.000598282
0.000598282
0.000630068
0.000595957
0.000627742
0.000627742
0.000598282
0.000598282
0.000627742
0.000598282
0.000598282
0.000630069
0.000595956
0.000627742
0.000598282
0.000598282
0.000595956
0.000590788
0.000556675
0.000588462
0.000588461
0.000559001
0.000559001
0.000590788
0.000556676
0.000588461
0.000588462
0.000559001
0.000559001
0.000588462
0.000559001
0.000559001
0.000590788
0.000556675
0.000588461
0.000559001
0.000559001
0.000556675
0.000551507
0.000517394
0.000549181
0.000549181
0.000519719
0.000519719
0.000551507
0.000517394
0.000549181
0.000549181
0.000519719
0.000519719
0.000549181
0.000519719
0.000519719
0.000551507
0.000517394
0.000549181
0.000519719
0.000519719
0.000517394
0.000512226
0.000478111
0.000509899
0.000509899
0.000480437
0.000480436
0.000512226
0.000478112
0.000509899
0.000509899
0.000480436
0.000480437
0.000509899
0.000480437
0.000480437
0.000512226
0.000478111
0.000509899
0.000480437
0.000480437
0.000478111
0.000472944
0.000438828
0.000470617
0.000470617
0.000441154
0.000441154
0.000472943
0.000438828
0.000470617
0.000470617
0.000441153
0.000441154
0.000470617
0.000441154
0.000441154
0.000472944
0.000438828
0.000470617
0.000441154
0.000441154
0.000438828
0.00043366
0.000399545
0.000431334
0.000431334
0.000401871
0.000401871
0.00043366
0.000399545
0.000431334
0.000431334
0.000401871
0.000401871
0.000431334
0.000401872
0.000401872
0.00043366
0.000399545
0.000431334
0.000401871
0.000401872
0.000399545
0.000394373
0.000360263
0.000392048
0.000392048
0.000362588
0.000362588
0.000394373
0.000360263
0.000392047
0.000392048
0.000362588
0.000362588
0.000392048
0.000362588
0.000362588
0.000394373
0.000360263
0.000392048
0.000362588
0.000362588
0.000360263
0.000355089
0.000320978
0.000352764
0.000352763
0.000323301
0.000323301
0.000355089
0.000320978
0.000352763
0.000352764
0.000323301
0.000323301
0.000352764
0.000323301
0.000323301
0.000355089
0.000320978
0.000352763
0.000323301
0.000323301
0.000320978
0.000315809
0.000281692
0.000313484
0.000313484
0.000284017
0.000284017
0.000315809
0.000281692
0.000313484
0.000313484
0.000284017
0.000284017
0.000313484
0.000284017
0.000284017
0.000315809
0.000281692
0.000313484
0.000284017
0.000284017
0.000281692
0.000276518
0.000242412
0.000274197
0.000274197
0.000244735
0.000244735
0.000276518
0.000242412
0.000274197
0.000274197
0.000244735
0.000244735
0.000274197
0.000244735
0.000244735
0.000276518
0.000242411
0.000274197
0.000244735
0.000244735
0.000242412
0.000237231
0.000203126
0.000234911
0.00023491
0.000205445
0.000205445
0.000237231
0.000203126
0.00023491
0.000234911
0.000205445
0.000205445
0.000234911
0.000205445
0.000205445
0.000237231
0.000203125
0.000234911
0.000205445
0.000205445
0.000203125
0.000197941
0.00016384
0.000195626
0.000195626
0.000166158
0.000166158
0.000197941
0.00016384
0.000195626
0.000195626
0.000166158
0.000166158
0.000195626
0.000166158
0.000166158
0.000197941
0.00016384
0.000195626
0.000166158
0.000166158
0.00016384
0.000158636
0.000124547
0.000156332
0.000156332
0.000126858
0.000126858
0.000158636
0.000124547
0.000156332
0.000156332
0.000126858
0.000126858
0.000156332
0.000126858
0.000126858
0.000158636
0.000124547
0.000156332
0.000126858
0.000126858
0.000124547
0.000119321
8.52453e-05
0.000117035
0.000117035
8.75513e-05
8.75516e-05
0.000119321
8.52462e-05
0.000117035
0.000117035
8.75508e-05
8.75504e-05
0.000117035
8.75514e-05
8.75507e-05
0.000119321
8.52445e-05
0.000117035
8.75503e-05
8.75504e-05
8.52447e-05
7.99805e-05
4.60147e-05
7.77223e-05
7.77225e-05
4.83308e-05
4.83313e-05
7.99806e-05
4.60158e-05
7.77214e-05
7.77208e-05
4.83288e-05
4.83279e-05
7.77215e-05
4.83298e-05
4.83276e-05
7.99798e-05
4.60121e-05
7.77209e-05
4.83271e-05
4.83263e-05
4.60117e-05
4.0783e-05
1.03701e-05
3.87114e-05
3.87118e-05
1.26947e-05
1.26944e-05
4.07835e-05
1.037e-05
3.87094e-05
3.87076e-05
1.26934e-05
1.269e-05
3.87069e-05
1.26921e-05
1.2688e-05
4.07798e-05
1.03662e-05
3.87058e-05
1.26899e-05
1.26898e-05
1.03652e-05
6.90548e-06
7.05119e-06
7.05074e-06
6.90647e-06
7.04878e-06
7.04733e-06
7.02816e-06
7.02634e-06
7.02579e-06
7.04617e-06
6.90335e-06
7.04669e-06
0.00376938
0.00377524
0.00377225
0.00377224
0.00379089
0.00377786
0.00380061
0.00377411
0.00379088
0.00377778
0.00377409
0.00380175
0.00378309
0.00380489
0.00380485
0.00373741
0.00375269
0.00375645
0.00372953
0.00372981
0.00373277
0.00373739
0.0037529
0.00375656
0.00372947
0.00375476
0.00375472
0.00375477
0.00372476
0.00372478
0.00372475
0.0037248
0.00373715
0.00375248
0.00375526
0.00374396
0.00375762
0.00373375
0.00374464
0.00372986
0.00373261
0.00373712
0.00375525
0.00375148
0.00374386
0.0037576
0.00374457
0.00373363
0.00375711
0.00375683
0.00374029
0.00373365
0.00373341
0.0037106
0.00372351
0.00372351
0.0037086
0.00372082
0.00370771
0.00371069
0.00372366
0.00372342
0.00370873
0.00371622
0.00371621
0.00371632
0.00369057
0.00369057
0.00369059
0.00369055
0.00370848
0.00372257
0.00371567
0.00370817
0.00372011
0.00370883
0.00370755
0.00372067
0.00370801
0.00370853
0.00371573
0.00372268
0.00370812
0.0037202
0.00370758
0.0037088
0.00372435
0.00372418
0.00370692
0.00370887
0.00370936
0.0036685
0.00368287
0.00368349
0.00366682
0.00368177
0.00366599
0.00366841
0.00368281
0.00368349
0.00366683
0.00368016
0.00368016
0.00368013
0.00364584
0.00364583
0.00364584
0.00364582
0.00366656
0.00368274
0.00367928
0.00366854
0.00368143
0.00366714
0.0036681
0.00368177
0.00366595
0.00366654
0.00367926
0.00368279
0.00366865
0.00368156
0.00366815
0.00366713
0.00368256
0.0036833
0.00366561
0.00366728
0.00366714
0.003621
0.00363713
0.00363819
0.00361954
0.00363655
0.00361896
0.00362081
0.00363708
0.00363832
0.00361954
0.00363419
0.00363419
0.00363418
0.00359863
0.00359861
0.00359861
0.00359861
0.00361953
0.00363741
0.0036336
0.00362223
0.0036367
0.00361988
0.00362185
0.00363664
0.0036189
0.00361949
0.00363363
0.00363742
0.00362215
0.00363675
0.00362184
0.00361995
0.00363758
0.00363741
0.00361903
0.00361972
0.00361969
0.00357236
0.00358905
0.00359033
0.00357112
0.00358875
0.00357065
0.0035724
0.0035889
0.00359036
0.0035713
0.00358656
0.00358653
0.00358656
0.0035502
0.0035502
0.00355018
0.00355021
0.00357121
0.00358946
0.003586
0.00357418
0.0035891
0.00357139
0.00357392
0.00358876
0.00357054
0.00357121
0.00358597
0.00358941
0.00357427
0.00358906
0.00357393
0.00357153
0.00358928
0.00358918
0.00357092
0.00357116
0.00357083
0.00352351
0.00354045
0.00354174
0.00352258
0.00354025
0.0035221
0.00352353
0.00354038
0.00354168
0.00352252
0.00353815
0.00353812
0.00353815
0.00350211
0.00350211
0.00350208
0.00350212
0.00352275
0.00354106
0.00353768
0.00352591
0.00354073
0.00352303