/*--------------------------------*- C++ -*----------------------------------*\
| =========                 |                                                 |
| \\      /  F ield         | OpenFOAM: The Open Source CFD Toolbox           |
|  \\    /   O peration     | Version:  v2012                                 |
|   \\  /    A nd           | Website:  www.openfoam.com                      |
|    \\/     M anipulation  |                                                 |
\*---------------------------------------------------------------------------*/
FoamFile
{
    version     2.0;
    format      ascii;
    class       volScalarField;
    location    "0.235";
    object      p;
}
// * * * * * * * * * * * * * * * * * * * * * * * * * * * * * * * * * * * * * //

dimensions      [0 2 -2 0 0 0 0];


internalField   nonuniform List<scalar> 
247104
(
1.88372e-06
1.88381e-06
1.88391e-06
1.88383e-06
1.88369e-06
1.88386e-06
1.88391e-06
1.88374e-06
1.8838e-06
1.88386e-06
1.88391e-06
1.88373e-06
1.88362e-06
1.88376e-06
1.88393e-06
1.88383e-06
1.88391e-06
1.88391e-06
1.8836e-06
1.88323e-06
1.88308e-06
1.88327e-06
1.88366e-06
1.88393e-06
1.88391e-06
1.88383e-06
1.88373e-06
1.88322e-06
1.88273e-06
1.88256e-06
1.88278e-06
1.8833e-06
1.88378e-06
1.88381e-06
1.8837e-06
1.88368e-06
1.88361e-06
1.88307e-06
1.88255e-06
1.88237e-06
1.88261e-06
1.88315e-06
1.88366e-06
1.88365e-06
1.88384e-06
1.88375e-06
1.88326e-06
1.88278e-06
1.88261e-06
1.88283e-06
1.88333e-06
1.8838e-06
1.88384e-06
1.88389e-06
1.88391e-06
1.88365e-06
1.88329e-06
1.88315e-06
1.88333e-06
1.8837e-06
1.88393e-06
1.8839e-06
1.88372e-06
1.88382e-06
1.88392e-06
1.88377e-06
1.88366e-06
1.8838e-06
1.88393e-06
1.88379e-06
1.8839e-06
1.88381e-06
1.88365e-06
1.88385e-06
1.8839e-06
1.85002e-06
1.84798e-06
1.8477e-06
1.84653e-06
1.84647e-06
1.8464e-06
1.84641e-06
1.84775e-06
1.84811e-06
1.84769e-06
1.84564e-06
1.84278e-06
1.84271e-06
1.84271e-06
1.84279e-06
1.84604e-06
1.84625e-06
1.84653e-06
1.84278e-06
1.84272e-06
1.84277e-06
1.84277e-06
1.84272e-06
1.84279e-06
1.84645e-06
1.84744e-06
1.85003e-06
1.84647e-06
1.84271e-06
1.84277e-06
1.84287e-06
1.84287e-06
1.84277e-06
1.84271e-06
1.84637e-06
1.84801e-06
1.84798e-06
1.84639e-06
1.84271e-06
1.84277e-06
1.84287e-06
1.84287e-06
1.84277e-06
1.84271e-06
1.84653e-06
1.84639e-06
1.8464e-06
1.84278e-06
1.84272e-06
1.84277e-06
1.84277e-06
1.84272e-06
1.84278e-06
1.84633e-06
1.84728e-06
1.84773e-06
1.84603e-06
1.84278e-06
1.84271e-06
1.84271e-06
1.84278e-06
1.84619e-06
1.84644e-06
1.84784e-06
1.84809e-06
1.84624e-06
1.84645e-06
1.84636e-06
1.84653e-06
1.84633e-06
1.84644e-06
1.84853e-06
1.84743e-06
1.848e-06
1.84638e-06
1.84728e-06
1.84784e-06
1.82992e-06
1.82973e-06
1.82957e-06
1.8274e-06
1.82733e-06
1.82731e-06
1.82738e-06
1.8296e-06
1.82981e-06
1.82957e-06
1.82668e-06
1.82369e-06
1.82355e-06
1.82355e-06
1.82369e-06
1.82734e-06
1.82785e-06
1.8274e-06
1.8237e-06
1.82332e-06
1.82333e-06
1.82333e-06
1.82332e-06
1.82371e-06
1.82815e-06
1.83013e-06
1.82992e-06
1.82733e-06
1.82356e-06
1.82333e-06
1.82335e-06
1.82335e-06
1.82333e-06
1.82356e-06
1.82819e-06
1.82983e-06
1.82972e-06
1.82731e-06
1.82356e-06
1.82333e-06
1.82335e-06
1.82335e-06
1.82333e-06
1.82356e-06
1.82812e-06
1.82791e-06
1.82738e-06
1.82371e-06
1.82333e-06
1.82333e-06
1.82333e-06
1.82332e-06
1.82371e-06
1.82821e-06
1.83018e-06
1.8296e-06
1.82734e-06
1.82372e-06
1.82356e-06
1.82355e-06
1.82369e-06
1.82783e-06
1.82804e-06
1.83008e-06
1.82981e-06
1.82785e-06
1.82815e-06
1.82818e-06
1.82812e-06
1.82821e-06
1.82804e-06
1.83003e-06
1.83012e-06
1.82983e-06
1.82791e-06
1.83018e-06
1.83008e-06
1.8106e-06
1.81042e-06
1.8103e-06
1.80805e-06
1.80799e-06
1.80788e-06
1.80808e-06
1.8103e-06
1.81053e-06
1.81029e-06
1.80722e-06
1.80429e-06
1.80424e-06
1.80424e-06
1.80429e-06
1.80791e-06
1.80863e-06
1.80804e-06
1.80429e-06
1.80413e-06
1.80413e-06
1.80413e-06
1.80413e-06
1.80429e-06
1.80885e-06
1.8108e-06
1.81059e-06
1.80798e-06
1.80424e-06
1.80413e-06
1.80413e-06
1.80413e-06
1.80413e-06
1.80424e-06
1.80895e-06
1.81048e-06
1.81042e-06
1.80788e-06
1.80424e-06
1.80413e-06
1.80413e-06
1.80413e-06
1.80413e-06
1.80424e-06
1.80891e-06
1.80867e-06
1.80807e-06
1.80429e-06
1.80413e-06
1.80413e-06
1.80413e-06
1.80413e-06
1.80429e-06
1.80892e-06
1.81083e-06
1.81029e-06
1.80791e-06
1.80429e-06
1.80424e-06
1.80424e-06
1.80429e-06
1.8087e-06
1.80879e-06
1.8108e-06
1.81052e-06
1.80863e-06
1.80885e-06
1.80895e-06
1.80892e-06
1.80893e-06
1.8088e-06
1.81079e-06
1.81081e-06
1.81049e-06
1.80869e-06
1.81084e-06
1.81081e-06
1.79126e-06
1.79109e-06
1.79092e-06
1.78866e-06
1.78858e-06
1.78845e-06
1.78868e-06
1.79094e-06
1.79116e-06
1.79091e-06
1.78781e-06
1.78488e-06
1.78486e-06
1.78486e-06
1.78488e-06
1.78847e-06
1.78928e-06
1.78866e-06
1.78488e-06
1.78483e-06
1.78483e-06
1.78483e-06
1.78483e-06
1.78488e-06
1.78952e-06
1.79147e-06
1.79126e-06
1.78858e-06
1.78486e-06
1.78483e-06
1.78483e-06
1.78483e-06
1.78483e-06
1.78486e-06
1.78966e-06
1.79119e-06
1.79109e-06
1.78845e-06
1.78486e-06
1.78483e-06
1.78483e-06
1.78483e-06
1.78483e-06
1.78486e-06
1.78964e-06
1.78939e-06
1.78868e-06
1.78488e-06
1.78483e-06
1.78483e-06
1.78483e-06
1.78483e-06
1.78488e-06
1.78961e-06
1.79153e-06
1.79094e-06
1.78847e-06
1.78488e-06
1.78486e-06
1.78486e-06
1.78488e-06
1.78944e-06
1.78948e-06
1.79146e-06
1.79116e-06
1.78928e-06
1.78952e-06
1.78966e-06
1.78964e-06
1.78961e-06
1.78948e-06
1.79141e-06
1.79147e-06
1.79119e-06
1.78939e-06
1.79154e-06
1.79146e-06
1.77189e-06
1.77172e-06
1.77153e-06
1.76927e-06
1.7692e-06
1.76906e-06
1.76929e-06
1.77156e-06
1.77178e-06
1.77153e-06
1.76842e-06
1.76549e-06
1.76548e-06
1.76548e-06
1.76549e-06
1.76907e-06
1.76991e-06
1.76927e-06
1.76549e-06
1.76548e-06
1.76548e-06
1.76548e-06
1.76548e-06
1.76549e-06
1.77015e-06
1.7721e-06
1.7719e-06
1.7692e-06
1.76548e-06
1.76548e-06
1.76548e-06
1.76548e-06
1.76548e-06
1.76549e-06
1.77031e-06
1.77184e-06
1.77172e-06
1.76906e-06
1.76548e-06
1.76548e-06
1.76548e-06
1.76548e-06
1.76548e-06
1.76549e-06
1.7703e-06
1.77004e-06
1.76929e-06
1.76549e-06
1.76548e-06
1.76548e-06
1.76548e-06
1.76548e-06
1.76549e-06
1.77024e-06
1.77218e-06
1.77156e-06
1.76906e-06
1.76549e-06
1.76548e-06
1.76548e-06
1.76549e-06
1.7701e-06
1.77012e-06
1.77208e-06
1.77178e-06
1.7699e-06
1.77015e-06
1.7703e-06
1.77029e-06
1.77024e-06
1.77011e-06
1.77206e-06
1.7721e-06
1.77184e-06
1.77004e-06
1.77218e-06
1.77208e-06
1.75252e-06
1.75235e-06
1.75216e-06
1.7499e-06
1.74982e-06
1.74968e-06
1.74991e-06
1.75218e-06
1.75241e-06
1.75215e-06
1.74905e-06
1.74611e-06
1.74611e-06
1.74611e-06
1.74611e-06
1.74968e-06
1.7505e-06
1.7499e-06
1.74611e-06
1.74611e-06
1.74611e-06
1.74611e-06
1.74611e-06
1.74611e-06
1.75077e-06
1.75272e-06
1.75252e-06
1.74982e-06
1.74611e-06
1.74611e-06
1.74611e-06
1.74611e-06
1.74611e-06
1.74611e-06
1.75093e-06
1.75247e-06
1.75235e-06
1.74968e-06
1.74611e-06
1.74611e-06
1.74611e-06
1.74611e-06
1.74611e-06
1.74611e-06
1.75092e-06
1.75067e-06
1.74991e-06
1.74611e-06
1.74611e-06
1.74611e-06
1.74611e-06
1.74611e-06
1.74611e-06
1.75087e-06
1.75281e-06
1.75218e-06
1.74968e-06
1.74611e-06
1.74611e-06
1.74611e-06
1.74611e-06
1.75073e-06
1.75075e-06
1.75271e-06
1.7524e-06
1.75053e-06
1.75077e-06
1.75093e-06
1.75092e-06
1.75086e-06
1.75074e-06
1.75269e-06
1.75272e-06
1.75247e-06
1.75067e-06
1.75281e-06
1.75271e-06
1.73314e-06
1.73297e-06
1.73278e-06
1.73052e-06
1.73044e-06
1.7303e-06
1.73054e-06
1.7328e-06
1.73303e-06
1.73278e-06
1.72967e-06
1.72673e-06
1.72673e-06
1.72673e-06
1.72673e-06
1.7303e-06
1.73112e-06
1.73052e-06
1.72673e-06
1.72673e-06
1.72673e-06
1.72673e-06
1.72673e-06
1.72673e-06
1.73139e-06
1.73334e-06
1.73315e-06
1.73044e-06
1.72673e-06
1.72673e-06
1.72673e-06
1.72673e-06
1.72673e-06
1.72673e-06
1.73155e-06
1.7331e-06
1.73297e-06
1.7303e-06
1.72673e-06
1.72673e-06
1.72673e-06
1.72673e-06
1.72673e-06
1.72673e-06
1.73155e-06
1.73129e-06
1.73053e-06
1.72673e-06
1.72673e-06
1.72673e-06
1.72673e-06
1.72673e-06
1.72673e-06
1.73149e-06
1.73343e-06
1.7328e-06
1.7303e-06
1.72673e-06
1.72673e-06
1.72673e-06
1.72673e-06
1.73135e-06
1.73137e-06
1.73333e-06
1.73302e-06
1.73115e-06
1.73139e-06
1.73155e-06
1.73155e-06
1.73149e-06
1.73136e-06
1.73331e-06
1.73335e-06
1.7331e-06
1.73129e-06
1.73343e-06
1.73333e-06
1.71376e-06
1.7136e-06
1.7134e-06
1.71114e-06
1.71106e-06
1.71092e-06
1.71116e-06
1.71343e-06
1.71366e-06
1.7134e-06
1.71029e-06
1.70735e-06
1.70735e-06
1.70735e-06
1.70735e-06
1.71092e-06
1.71174e-06
1.71114e-06
1.70735e-06
1.70735e-06
1.70735e-06
1.70735e-06
1.70735e-06
1.70735e-06
1.71201e-06
1.71397e-06
1.71377e-06
1.71106e-06
1.70735e-06
1.70735e-06
1.70735e-06
1.70735e-06
1.70735e-06
1.70735e-06
1.71218e-06
1.71372e-06
1.7136e-06
1.71092e-06
1.70735e-06
1.70735e-06
1.70735e-06
1.70735e-06
1.70735e-06
1.70735e-06
1.71217e-06
1.71191e-06
1.71116e-06
1.70735e-06
1.70735e-06
1.70735e-06
1.70735e-06
1.70735e-06
1.70735e-06
1.71211e-06
1.71406e-06
1.71343e-06
1.71092e-06
1.70735e-06
1.70735e-06
1.70735e-06
1.70735e-06
1.71198e-06
1.71199e-06
1.71395e-06
1.71364e-06
1.71177e-06
1.71201e-06
1.71218e-06
1.71217e-06
1.71211e-06
1.71198e-06
1.71394e-06
1.71397e-06
1.71372e-06
1.71191e-06
1.71406e-06
1.71395e-06
1.69439e-06
1.69422e-06
1.69403e-06
1.69176e-06
1.69169e-06
1.69155e-06
1.69178e-06
1.69405e-06
1.69428e-06
1.69402e-06
1.69092e-06
1.68798e-06
1.68798e-06
1.68798e-06
1.68798e-06
1.69154e-06
1.69237e-06
1.69176e-06
1.68798e-06
1.68798e-06
1.68798e-06
1.68798e-06
1.68798e-06
1.68798e-06
1.69264e-06
1.69459e-06
1.69439e-06
1.69169e-06
1.68798e-06
1.68798e-06
1.68798e-06
1.68798e-06
1.68798e-06
1.68798e-06
1.6928e-06
1.69434e-06
1.69422e-06
1.69154e-06
1.68798e-06
1.68798e-06
1.68798e-06
1.68798e-06
1.68798e-06
1.68798e-06
1.6928e-06
1.69254e-06
1.69178e-06
1.68798e-06
1.68798e-06
1.68798e-06
1.68798e-06
1.68798e-06
1.68798e-06
1.69274e-06
1.69468e-06
1.69405e-06
1.69155e-06
1.68798e-06
1.68798e-06
1.68798e-06
1.68798e-06
1.6926e-06
1.69262e-06
1.69458e-06
1.69427e-06
1.6924e-06
1.69264e-06
1.6928e-06
1.69279e-06
1.69274e-06
1.69261e-06
1.69456e-06
1.69459e-06
1.69434e-06
1.69254e-06
1.69468e-06
1.69457e-06
1.67501e-06
1.67484e-06
1.67465e-06
1.67239e-06
1.67231e-06
1.67217e-06
1.67241e-06
1.67467e-06
1.6749e-06
1.67465e-06
1.67154e-06
1.6686e-06
1.6686e-06
1.6686e-06
1.6686e-06
1.67216e-06
1.67299e-06
1.67239e-06
1.6686e-06
1.6686e-06
1.6686e-06
1.6686e-06
1.6686e-06
1.6686e-06
1.67326e-06
1.67521e-06
1.67502e-06
1.67231e-06
1.6686e-06
1.6686e-06
1.6686e-06
1.6686e-06
1.6686e-06
1.6686e-06
1.67342e-06
1.67497e-06
1.67484e-06
1.67217e-06
1.6686e-06
1.6686e-06
1.6686e-06
1.6686e-06
1.6686e-06
1.6686e-06
1.67342e-06
1.67316e-06
1.6724e-06
1.6686e-06
1.6686e-06
1.6686e-06
1.6686e-06
1.6686e-06
1.6686e-06
1.67336e-06
1.6753e-06
1.67467e-06
1.67217e-06
1.6686e-06
1.6686e-06
1.6686e-06
1.6686e-06
1.67322e-06
1.67324e-06
1.6752e-06
1.67489e-06
1.67302e-06
1.67326e-06
1.67342e-06
1.67342e-06
1.67336e-06
1.67323e-06
1.67518e-06
1.67522e-06
1.67497e-06
1.67316e-06
1.6753e-06
1.6752e-06
1.65563e-06
1.65547e-06
1.65526e-06
1.65301e-06
1.65293e-06
1.65279e-06
1.65303e-06
1.6553e-06
1.65553e-06
1.65527e-06
1.65216e-06
1.64922e-06
1.64922e-06
1.64922e-06
1.64922e-06
1.65279e-06
1.65361e-06
1.65301e-06
1.64922e-06
1.64922e-06
1.64922e-06
1.64922e-06
1.64922e-06
1.64922e-06
1.65388e-06
1.65584e-06
1.65564e-06
1.65293e-06
1.64922e-06
1.64922e-06
1.64922e-06
1.64922e-06
1.64922e-06
1.64922e-06
1.65405e-06
1.65559e-06
1.65547e-06
1.65279e-06
1.64922e-06
1.64922e-06
1.64922e-06
1.64922e-06
1.64922e-06
1.64922e-06
1.65404e-06
1.65378e-06
1.65303e-06
1.64922e-06
1.64922e-06
1.64922e-06
1.64922e-06
1.64922e-06
1.64922e-06
1.65398e-06
1.65593e-06
1.65529e-06
1.65279e-06
1.64922e-06
1.64922e-06
1.64922e-06
1.64922e-06
1.65385e-06
1.65386e-06
1.65582e-06
1.65551e-06
1.65364e-06
1.65388e-06
1.65405e-06
1.65404e-06
1.65398e-06
1.65385e-06
1.65581e-06
1.65584e-06
1.65559e-06
1.65378e-06
1.65592e-06
1.65582e-06
1.63625e-06
1.63609e-06
1.63589e-06
1.63363e-06
1.63355e-06
1.63341e-06
1.63365e-06
1.63592e-06
1.63615e-06
1.63589e-06
1.63278e-06
1.62985e-06
1.62985e-06
1.62985e-06
1.62985e-06
1.63341e-06
1.63423e-06
1.63363e-06
1.62985e-06
1.62985e-06
1.62985e-06
1.62985e-06
1.62985e-06
1.62985e-06
1.63451e-06
1.63646e-06
1.63626e-06
1.63355e-06
1.62985e-06
1.62985e-06
1.62985e-06
1.62985e-06
1.62985e-06
1.62985e-06
1.63467e-06
1.63621e-06
1.63609e-06
1.63341e-06
1.62985e-06
1.62985e-06
1.62985e-06
1.62985e-06
1.62985e-06
1.62985e-06
1.63466e-06
1.6344e-06
1.63365e-06
1.62985e-06
1.62985e-06
1.62985e-06
1.62985e-06
1.62985e-06
1.62985e-06
1.63461e-06
1.63655e-06
1.63592e-06
1.63341e-06
1.62985e-06
1.62985e-06
1.62985e-06
1.62985e-06
1.63447e-06
1.63448e-06
1.63644e-06
1.63613e-06
1.63427e-06
1.63451e-06
1.63467e-06
1.63466e-06
1.6346e-06
1.63448e-06
1.63643e-06
1.63646e-06
1.63621e-06
1.63441e-06
1.63655e-06
1.63644e-06
1.61688e-06
1.61671e-06
1.61651e-06
1.61426e-06
1.61418e-06
1.61404e-06
1.61427e-06
1.61654e-06
1.61677e-06
1.61652e-06
1.61341e-06
1.61047e-06
1.61047e-06
1.61047e-06
1.61047e-06
1.61404e-06
1.61486e-06
1.61425e-06
1.61047e-06
1.61047e-06
1.61047e-06
1.61047e-06
1.61047e-06
1.61047e-06
1.61513e-06
1.61708e-06
1.61688e-06
1.61418e-06
1.61047e-06
1.61047e-06
1.61047e-06
1.61047e-06
1.61047e-06
1.61047e-06
1.61529e-06
1.61683e-06
1.61671e-06
1.61404e-06
1.61047e-06
1.61047e-06
1.61047e-06
1.61047e-06
1.61047e-06
1.61047e-06
1.61529e-06
1.61503e-06
1.61427e-06
1.61047e-06
1.61047e-06
1.61047e-06
1.61047e-06
1.61047e-06
1.61047e-06
1.61523e-06
1.61717e-06
1.61654e-06
1.61404e-06
1.61047e-06
1.61047e-06
1.61047e-06
1.61047e-06
1.61509e-06
1.61511e-06
1.61707e-06
1.61676e-06
1.61489e-06
1.61513e-06
1.61529e-06
1.61529e-06
1.61523e-06
1.6151e-06
1.61705e-06
1.61708e-06
1.61684e-06
1.61503e-06
1.61717e-06
1.61707e-06
1.5975e-06
1.59734e-06
1.59713e-06
1.59488e-06
1.5948e-06
1.59466e-06
1.5949e-06
1.59717e-06
1.5974e-06
1.59714e-06
1.59403e-06
1.59109e-06
1.59109e-06
1.59109e-06
1.59109e-06
1.59466e-06
1.59548e-06
1.59488e-06
1.59109e-06
1.59109e-06
1.59109e-06
1.59109e-06
1.59109e-06
1.59109e-06
1.59575e-06
1.59771e-06
1.59751e-06
1.5948e-06
1.59109e-06
1.59109e-06
1.59109e-06
1.59109e-06
1.59109e-06
1.59109e-06
1.59592e-06
1.59746e-06
1.59734e-06
1.59466e-06
1.59109e-06
1.59109e-06
1.59109e-06
1.59109e-06
1.59109e-06
1.59109e-06
1.59591e-06
1.59565e-06
1.5949e-06
1.59109e-06
1.59109e-06
1.59109e-06
1.59109e-06
1.59109e-06
1.59109e-06
1.59585e-06
1.5978e-06
1.59716e-06
1.59466e-06
1.59109e-06
1.59109e-06
1.59109e-06
1.59109e-06
1.59572e-06
1.59573e-06
1.59769e-06
1.59738e-06
1.59551e-06
1.59576e-06
1.59592e-06
1.59591e-06
1.59585e-06
1.59573e-06
1.59768e-06
1.59771e-06
1.59746e-06
1.59565e-06
1.5978e-06
1.59769e-06
1.57813e-06
1.57796e-06
1.57776e-06
1.57551e-06
1.57543e-06
1.57529e-06
1.57553e-06
1.57779e-06
1.57802e-06
1.57776e-06
1.57466e-06
1.57172e-06
1.57172e-06
1.57172e-06
1.57172e-06
1.57529e-06
1.57611e-06
1.57551e-06
1.57172e-06
1.57172e-06
1.57172e-06
1.57172e-06
1.57172e-06
1.57172e-06
1.57638e-06
1.57833e-06
1.57813e-06
1.57543e-06
1.57172e-06
1.57172e-06
1.57172e-06
1.57172e-06
1.57172e-06
1.57172e-06
1.57654e-06
1.57808e-06
1.57796e-06
1.57529e-06
1.57172e-06
1.57172e-06
1.57172e-06
1.57172e-06
1.57172e-06
1.57172e-06
1.57654e-06
1.57628e-06
1.57552e-06
1.57172e-06
1.57172e-06
1.57172e-06
1.57172e-06
1.57172e-06
1.57172e-06
1.57648e-06
1.57842e-06
1.57779e-06
1.57529e-06
1.57172e-06
1.57172e-06
1.57172e-06
1.57172e-06
1.57634e-06
1.57636e-06
1.57832e-06
1.57801e-06
1.57614e-06
1.57638e-06
1.57654e-06
1.57653e-06
1.57648e-06
1.57635e-06
1.5783e-06
1.57833e-06
1.57809e-06
1.57628e-06
1.57842e-06
1.57832e-06
1.55875e-06
1.55859e-06
1.55839e-06
1.55613e-06
1.55605e-06
1.55591e-06
1.55615e-06
1.55842e-06
1.55864e-06
1.55839e-06
1.55528e-06
1.55234e-06
1.55234e-06
1.55234e-06
1.55234e-06
1.55591e-06
1.55673e-06
1.55613e-06
1.55234e-06
1.55234e-06
1.55234e-06
1.55234e-06
1.55234e-06
1.55234e-06
1.557e-06
1.55896e-06
1.55876e-06
1.55605e-06
1.55234e-06
1.55234e-06
1.55234e-06
1.55234e-06
1.55234e-06
1.55234e-06
1.55717e-06
1.55871e-06
1.55859e-06
1.55591e-06
1.55234e-06
1.55234e-06
1.55234e-06
1.55234e-06
1.55234e-06
1.55234e-06
1.55716e-06
1.5569e-06
1.55615e-06
1.55234e-06
1.55234e-06
1.55234e-06
1.55234e-06
1.55234e-06
1.55234e-06
1.5571e-06
1.55905e-06
1.55841e-06
1.55591e-06
1.55234e-06
1.55234e-06
1.55234e-06
1.55234e-06
1.55697e-06
1.55698e-06
1.55894e-06
1.55863e-06
1.55676e-06
1.557e-06
1.55717e-06
1.55716e-06
1.5571e-06
1.55697e-06
1.55892e-06
1.55896e-06
1.55871e-06
1.5569e-06
1.55904e-06
1.55894e-06
1.53937e-06
1.53921e-06
1.53901e-06
1.53675e-06
1.53667e-06
1.53653e-06
1.53677e-06
1.53904e-06
1.53927e-06
1.53901e-06
1.53591e-06
1.53296e-06
1.53296e-06
1.53296e-06
1.53296e-06
1.53653e-06
1.53735e-06
1.53675e-06
1.53296e-06
1.53296e-06
1.53296e-06
1.53296e-06
1.53296e-06
1.53296e-06
1.53762e-06
1.53958e-06
1.53938e-06
1.53667e-06
1.53296e-06
1.53296e-06
1.53296e-06
1.53296e-06
1.53296e-06
1.53296e-06
1.53779e-06
1.53933e-06
1.53921e-06
1.53653e-06
1.53296e-06
1.53296e-06
1.53296e-06
1.53296e-06
1.53296e-06
1.53296e-06
1.53778e-06
1.53752e-06
1.53677e-06
1.53296e-06
1.53296e-06
1.53296e-06
1.53296e-06
1.53296e-06
1.53296e-06
1.53773e-06
1.53967e-06
1.53904e-06
1.53653e-06
1.53296e-06
1.53296e-06
1.53296e-06
1.53296e-06
1.53759e-06
1.5376e-06
1.53956e-06
1.53925e-06
1.53738e-06
1.53763e-06
1.53779e-06
1.53778e-06
1.53772e-06
1.5376e-06
1.53955e-06
1.53958e-06
1.53933e-06
1.53752e-06
1.53967e-06
1.53956e-06
1.52e-06
1.51983e-06
1.51963e-06
1.51737e-06
1.5173e-06
1.51715e-06
1.51739e-06
1.51966e-06
1.51989e-06
1.51963e-06
1.51653e-06
1.51359e-06
1.51359e-06
1.51359e-06
1.51359e-06
1.51715e-06
1.51798e-06
1.51737e-06
1.51359e-06
1.51359e-06
1.51359e-06
1.51359e-06
1.51359e-06
1.51359e-06
1.51825e-06
1.5202e-06
1.52e-06
1.5173e-06
1.51359e-06
1.51359e-06
1.51359e-06
1.51359e-06
1.51359e-06
1.51359e-06
1.51841e-06
1.51995e-06
1.51983e-06
1.51715e-06
1.51359e-06
1.51359e-06
1.51359e-06
1.51359e-06
1.51359e-06
1.51359e-06
1.5184e-06
1.51815e-06
1.51739e-06
1.51359e-06
1.51359e-06
1.51359e-06
1.51359e-06
1.51359e-06
1.51359e-06
1.51835e-06
1.52029e-06
1.51966e-06
1.51715e-06
1.51359e-06
1.51359e-06
1.51359e-06
1.51359e-06
1.51821e-06
1.51823e-06
1.52019e-06
1.51988e-06
1.51801e-06
1.51825e-06
1.51841e-06
1.5184e-06
1.51835e-06
1.51822e-06
1.52017e-06
1.5202e-06
1.51995e-06
1.51815e-06
1.52029e-06
1.52018e-06
1.50062e-06
1.50045e-06
1.50025e-06
1.498e-06
1.49792e-06
1.49778e-06
1.49802e-06
1.50028e-06
1.50051e-06
1.50025e-06
1.49715e-06
1.49421e-06
1.49421e-06
1.49421e-06
1.49421e-06
1.49777e-06
1.4986e-06
1.49799e-06
1.49421e-06
1.49421e-06
1.49421e-06
1.49421e-06
1.49421e-06
1.49421e-06
1.49887e-06
1.50082e-06
1.50062e-06
1.49792e-06
1.49421e-06
1.49421e-06
1.49421e-06
1.49421e-06
1.49421e-06
1.49421e-06
1.49903e-06
1.50057e-06
1.50045e-06
1.49777e-06
1.49421e-06
1.49421e-06
1.49421e-06
1.49421e-06
1.49421e-06
1.49421e-06
1.49903e-06
1.49877e-06
1.49801e-06
1.49421e-06
1.49421e-06
1.49421e-06
1.49421e-06
1.49421e-06
1.49421e-06
1.49897e-06
1.50091e-06
1.50028e-06
1.49778e-06
1.49421e-06
1.49421e-06
1.49421e-06
1.49421e-06
1.49883e-06
1.49885e-06
1.50081e-06
1.5005e-06
1.49863e-06
1.49887e-06
1.49903e-06
1.49903e-06
1.49897e-06
1.49884e-06
1.50079e-06
1.50082e-06
1.50057e-06
1.49877e-06
1.50091e-06
1.50081e-06
1.48124e-06
1.48107e-06
1.48087e-06
1.47862e-06
1.47854e-06
1.4784e-06
1.47864e-06
1.4809e-06
1.48113e-06
1.48087e-06
1.47777e-06
1.47483e-06
1.47483e-06
1.47483e-06
1.47483e-06
1.4784e-06
1.47922e-06
1.47862e-06
1.47483e-06
1.47483e-06
1.47483e-06
1.47483e-06
1.47483e-06
1.47483e-06
1.47949e-06
1.48144e-06
1.48124e-06
1.47854e-06
1.47483e-06
1.47483e-06
1.47483e-06
1.47483e-06
1.47483e-06
1.47483e-06
1.47965e-06
1.48119e-06
1.48107e-06
1.4784e-06
1.47483e-06
1.47483e-06
1.47483e-06
1.47483e-06
1.47483e-06
1.47483e-06
1.47965e-06
1.47939e-06
1.47863e-06
1.47483e-06
1.47483e-06
1.47483e-06
1.47483e-06
1.47483e-06
1.47483e-06
1.47959e-06
1.48153e-06
1.4809e-06
1.4784e-06
1.47483e-06
1.47483e-06
1.47483e-06
1.47483e-06
1.47945e-06
1.47947e-06
1.48143e-06
1.48112e-06
1.47925e-06
1.47949e-06
1.47965e-06
1.47965e-06
1.47959e-06
1.47946e-06
1.48141e-06
1.48145e-06
1.4812e-06
1.47939e-06
1.48153e-06
1.48143e-06
1.46186e-06
1.4617e-06
1.46149e-06
1.45924e-06
1.45916e-06
1.45902e-06
1.45926e-06
1.46153e-06
1.46175e-06
1.4615e-06
1.45839e-06
1.45545e-06
1.45545e-06
1.45545e-06
1.45545e-06
1.45902e-06
1.45984e-06
1.45924e-06
1.45545e-06
1.45545e-06
1.45545e-06
1.45545e-06
1.45545e-06
1.45545e-06
1.46011e-06
1.46206e-06
1.46187e-06
1.45916e-06
1.45545e-06
1.45545e-06
1.45545e-06
1.45545e-06
1.45545e-06
1.45545e-06
1.46028e-06
1.46182e-06
1.4617e-06
1.45902e-06
1.45545e-06
1.45545e-06
1.45545e-06
1.45545e-06
1.45545e-06
1.45545e-06
1.46027e-06
1.46001e-06
1.45926e-06
1.45545e-06
1.45545e-06
1.45545e-06
1.45545e-06
1.45545e-06
1.45545e-06
1.46021e-06
1.46215e-06
1.46152e-06
1.45902e-06
1.45545e-06
1.45545e-06
1.45545e-06
1.45545e-06
1.46007e-06
1.46009e-06
1.46205e-06
1.46174e-06
1.45987e-06
1.46011e-06
1.46028e-06
1.46027e-06
1.46021e-06
1.46008e-06
1.46203e-06
1.46207e-06
1.46182e-06
1.46001e-06
1.46215e-06
1.46205e-06
1.44248e-06
1.44232e-06
1.44212e-06
1.43986e-06
1.43978e-06
1.43964e-06
1.43988e-06
1.44215e-06
1.44238e-06
1.44212e-06
1.43901e-06
1.43607e-06
1.43607e-06
1.43607e-06
1.43607e-06
1.43964e-06
1.44046e-06
1.43986e-06
1.43607e-06
1.43607e-06
1.43607e-06
1.43607e-06
1.43607e-06
1.43607e-06
1.44073e-06
1.44269e-06
1.44249e-06
1.43978e-06
1.43607e-06
1.43607e-06
1.43607e-06
1.43607e-06
1.43607e-06
1.43607e-06
1.4409e-06
1.44244e-06
1.44232e-06
1.43964e-06
1.43607e-06
1.43607e-06
1.43607e-06
1.43607e-06
1.43607e-06
1.43607e-06
1.44089e-06
1.44063e-06
1.43988e-06
1.43607e-06
1.43607e-06
1.43607e-06
1.43607e-06
1.43607e-06
1.43607e-06
1.44083e-06
1.44278e-06
1.44214e-06
1.43964e-06
1.43607e-06
1.43607e-06
1.43607e-06
1.43607e-06
1.4407e-06
1.44071e-06
1.44267e-06
1.44236e-06
1.44049e-06
1.44074e-06
1.4409e-06
1.44089e-06
1.44083e-06
1.4407e-06
1.44266e-06
1.44269e-06
1.44244e-06
1.44063e-06
1.44277e-06
1.44267e-06
1.4231e-06
1.42294e-06
1.42274e-06
1.42048e-06
1.42041e-06
1.42026e-06
1.4205e-06
1.42277e-06
1.423e-06
1.42274e-06
1.41964e-06
1.4167e-06
1.4167e-06
1.4167e-06
1.4167e-06
1.42026e-06
1.42108e-06
1.42048e-06
1.4167e-06
1.4167e-06
1.4167e-06
1.4167e-06
1.4167e-06
1.4167e-06
1.42136e-06
1.42331e-06
1.42311e-06
1.4204e-06
1.4167e-06
1.4167e-06
1.4167e-06
1.4167e-06
1.4167e-06
1.4167e-06
1.42152e-06
1.42306e-06
1.42294e-06
1.42026e-06
1.4167e-06
1.4167e-06
1.4167e-06
1.4167e-06
1.4167e-06
1.4167e-06
1.42151e-06
1.42126e-06
1.4205e-06
1.4167e-06
1.4167e-06
1.4167e-06
1.4167e-06
1.4167e-06
1.4167e-06
1.42146e-06
1.4234e-06
1.42277e-06
1.42026e-06
1.4167e-06
1.4167e-06
1.4167e-06
1.4167e-06
1.42132e-06
1.42133e-06
1.42329e-06
1.42298e-06
1.42112e-06
1.42136e-06
1.42152e-06
1.42151e-06
1.42146e-06
1.42133e-06
1.42328e-06
1.42331e-06
1.42306e-06
1.42126e-06
1.4234e-06
1.42329e-06
1.40373e-06
1.40356e-06
1.40336e-06
1.40111e-06
1.40103e-06
1.40089e-06
1.40113e-06
1.40339e-06
1.40362e-06
1.40336e-06
1.40026e-06
1.39732e-06
1.39732e-06
1.39732e-06
1.39732e-06
1.40089e-06
1.40171e-06
1.40111e-06
1.39732e-06
1.39732e-06
1.39732e-06
1.39732e-06
1.39732e-06
1.39732e-06
1.40198e-06
1.40393e-06
1.40373e-06
1.40103e-06
1.39732e-06
1.39732e-06
1.39732e-06
1.39732e-06
1.39732e-06
1.39732e-06
1.40214e-06
1.40368e-06
1.40356e-06
1.40089e-06
1.39732e-06
1.39732e-06
1.39732e-06
1.39732e-06
1.39732e-06
1.39732e-06
1.40214e-06
1.40188e-06
1.40112e-06
1.39732e-06
1.39732e-06
1.39732e-06
1.39732e-06
1.39732e-06
1.39732e-06
1.40208e-06
1.40402e-06
1.40339e-06
1.40089e-06
1.39732e-06
1.39732e-06
1.39732e-06
1.39732e-06
1.40194e-06
1.40196e-06
1.40392e-06
1.40361e-06
1.40174e-06
1.40198e-06
1.40214e-06
1.40214e-06
1.40208e-06
1.40195e-06
1.4039e-06
1.40393e-06
1.40369e-06
1.40188e-06
1.40402e-06
1.40392e-06
1.38435e-06
1.38418e-06
1.38398e-06
1.38173e-06
1.38165e-06
1.38151e-06
1.38175e-06
1.38402e-06
1.38424e-06
1.38399e-06
1.38088e-06
1.37794e-06
1.37794e-06
1.37794e-06
1.37794e-06
1.38151e-06
1.38233e-06
1.38173e-06
1.37794e-06
1.37794e-06
1.37794e-06
1.37794e-06
1.37794e-06
1.37794e-06
1.3826e-06
1.38455e-06
1.38436e-06
1.38165e-06
1.37794e-06
1.37794e-06
1.37794e-06
1.37794e-06
1.37794e-06
1.37794e-06
1.38277e-06
1.38431e-06
1.38419e-06
1.38151e-06
1.37794e-06
1.37794e-06
1.37794e-06
1.37794e-06
1.37794e-06
1.37794e-06
1.38276e-06
1.3825e-06
1.38175e-06
1.37794e-06
1.37794e-06
1.37794e-06
1.37794e-06
1.37794e-06
1.37794e-06
1.3827e-06
1.38464e-06
1.38401e-06
1.38151e-06
1.37794e-06
1.37794e-06
1.37794e-06
1.37794e-06
1.38256e-06
1.38258e-06
1.38454e-06
1.38423e-06
1.38236e-06
1.3826e-06
1.38276e-06
1.38276e-06
1.3827e-06
1.38257e-06
1.38452e-06
1.38456e-06
1.38431e-06
1.3825e-06
1.38464e-06
1.38454e-06
1.36497e-06
1.36481e-06
1.36461e-06
1.36235e-06
1.36227e-06
1.36213e-06
1.36237e-06
1.36464e-06
1.36487e-06
1.36461e-06
1.3615e-06
1.35856e-06
1.35856e-06
1.35856e-06
1.35856e-06
1.36213e-06
1.36295e-06
1.36235e-06
1.35856e-06
1.35856e-06
1.35856e-06
1.35856e-06
1.35856e-06
1.35856e-06
1.36322e-06
1.36518e-06
1.36498e-06
1.36227e-06
1.35856e-06
1.35856e-06
1.35856e-06
1.35856e-06
1.35856e-06
1.35856e-06
1.36339e-06
1.36493e-06
1.36481e-06
1.36213e-06
1.35856e-06
1.35856e-06
1.35856e-06
1.35856e-06
1.35856e-06
1.35856e-06
1.36338e-06
1.36312e-06
1.36237e-06
1.35856e-06
1.35856e-06
1.35856e-06
1.35856e-06
1.35856e-06
1.35856e-06
1.36332e-06
1.36527e-06
1.36463e-06
1.36213e-06
1.35856e-06
1.35856e-06
1.35856e-06
1.35856e-06
1.36319e-06
1.3632e-06
1.36516e-06
1.36485e-06
1.36298e-06
1.36322e-06
1.36339e-06
1.36338e-06
1.36332e-06
1.36319e-06
1.36514e-06
1.36518e-06
1.36493e-06
1.36312e-06
1.36526e-06
1.36516e-06
1.34559e-06
1.34543e-06
1.34523e-06
1.34297e-06
1.34289e-06
1.34275e-06
1.34299e-06
1.34526e-06
1.34549e-06
1.34523e-06
1.34212e-06
1.33918e-06
1.33918e-06
1.33918e-06
1.33918e-06
1.34275e-06
1.34357e-06
1.34297e-06
1.33918e-06
1.33918e-06
1.33918e-06
1.33918e-06
1.33918e-06
1.33918e-06
1.34385e-06
1.3458e-06
1.3456e-06
1.34289e-06
1.33918e-06
1.33918e-06
1.33918e-06
1.33918e-06
1.33918e-06
1.33918e-06
1.34401e-06
1.34555e-06
1.34543e-06
1.34275e-06
1.33918e-06
1.33918e-06
1.33918e-06
1.33918e-06
1.33918e-06
1.33918e-06
1.344e-06
1.34374e-06
1.34299e-06
1.33918e-06
1.33918e-06
1.33918e-06
1.33918e-06
1.33918e-06
1.33918e-06
1.34395e-06
1.34589e-06
1.34526e-06
1.34275e-06
1.33918e-06
1.33918e-06
1.33918e-06
1.33918e-06
1.34381e-06
1.34382e-06
1.34578e-06
1.34547e-06
1.34361e-06
1.34385e-06
1.34401e-06
1.344e-06
1.34394e-06
1.34382e-06
1.34577e-06
1.3458e-06
1.34555e-06
1.34374e-06
1.34589e-06
1.34578e-06
1.32622e-06
1.32605e-06
1.32585e-06
1.32359e-06
1.32352e-06
1.32337e-06
1.32361e-06
1.32588e-06
1.32611e-06
1.32585e-06
1.32275e-06
1.31981e-06
1.31981e-06
1.31981e-06
1.31981e-06
1.32337e-06
1.3242e-06
1.32359e-06
1.31981e-06
1.31981e-06
1.31981e-06
1.31981e-06
1.31981e-06
1.31981e-06
1.32447e-06
1.32642e-06
1.32622e-06
1.32352e-06
1.31981e-06
1.31981e-06
1.31981e-06
1.31981e-06
1.31981e-06
1.31981e-06
1.32463e-06
1.32617e-06
1.32605e-06
1.32337e-06
1.31981e-06
1.31981e-06
1.31981e-06
1.31981e-06
1.31981e-06
1.31981e-06
1.32462e-06
1.32437e-06
1.32361e-06
1.31981e-06
1.31981e-06
1.31981e-06
1.31981e-06
1.31981e-06
1.31981e-06
1.32457e-06
1.32651e-06
1.32588e-06
1.32338e-06
1.31981e-06
1.31981e-06
1.31981e-06
1.31981e-06
1.32443e-06
1.32445e-06
1.32641e-06
1.3261e-06
1.32423e-06
1.32447e-06
1.32463e-06
1.32462e-06
1.32457e-06
1.32444e-06
1.32639e-06
1.32642e-06
1.32617e-06
1.32437e-06
1.32651e-06
1.32641e-06
1.30684e-06
1.30667e-06
1.30647e-06
1.30422e-06
1.30414e-06
1.304e-06
1.30424e-06
1.3065e-06
1.30673e-06
1.30647e-06
1.30337e-06
1.30043e-06
1.30043e-06
1.30043e-06
1.30043e-06
1.304e-06
1.30482e-06
1.30422e-06
1.30043e-06
1.30043e-06
1.30043e-06
1.30043e-06
1.30043e-06
1.30043e-06
1.30509e-06
1.30704e-06
1.30684e-06
1.30414e-06
1.30043e-06
1.30043e-06
1.30043e-06
1.30043e-06
1.30043e-06
1.30043e-06
1.30525e-06
1.30679e-06
1.30667e-06
1.304e-06
1.30043e-06
1.30043e-06
1.30043e-06
1.30043e-06
1.30043e-06
1.30043e-06
1.30525e-06
1.30499e-06
1.30423e-06
1.30043e-06
1.30043e-06
1.30043e-06
1.30043e-06
1.30043e-06
1.30043e-06
1.30519e-06
1.30713e-06
1.3065e-06
1.304e-06
1.30043e-06
1.30043e-06
1.30043e-06
1.30043e-06
1.30505e-06
1.30507e-06
1.30703e-06
1.30672e-06
1.30485e-06
1.30509e-06
1.30525e-06
1.30525e-06
1.30519e-06
1.30506e-06
1.30701e-06
1.30704e-06
1.3068e-06
1.30499e-06
1.30713e-06
1.30703e-06
1.28746e-06
1.28729e-06
1.28709e-06
1.28484e-06
1.28476e-06
1.28462e-06
1.28486e-06
1.28713e-06
1.28735e-06
1.2871e-06
1.28399e-06
1.28105e-06
1.28105e-06
1.28105e-06
1.28105e-06
1.28462e-06
1.28544e-06
1.28484e-06
1.28105e-06
1.28105e-06
1.28105e-06
1.28105e-06
1.28105e-06
1.28105e-06
1.28571e-06
1.28766e-06
1.28747e-06
1.28476e-06
1.28105e-06
1.28105e-06
1.28105e-06
1.28105e-06
1.28105e-06
1.28105e-06
1.28588e-06
1.28742e-06
1.2873e-06
1.28462e-06
1.28105e-06
1.28105e-06
1.28105e-06
1.28105e-06
1.28105e-06
1.28105e-06
1.28587e-06
1.28561e-06
1.28486e-06
1.28105e-06
1.28105e-06
1.28105e-06
1.28105e-06
1.28105e-06
1.28105e-06
1.28581e-06
1.28775e-06
1.28712e-06
1.28462e-06
1.28105e-06
1.28105e-06
1.28105e-06
1.28105e-06
1.28568e-06
1.28569e-06
1.28765e-06
1.28734e-06
1.28547e-06
1.28571e-06
1.28587e-06
1.28587e-06
1.28581e-06
1.28568e-06
1.28763e-06
1.28767e-06
1.28742e-06
1.28561e-06
1.28775e-06
1.28765e-06
1.26808e-06
1.26792e-06
1.26772e-06
1.26546e-06
1.26538e-06
1.26524e-06
1.26548e-06
1.26775e-06
1.26798e-06
1.26772e-06
1.26461e-06
1.26167e-06
1.26167e-06
1.26167e-06
1.26167e-06
1.26524e-06
1.26606e-06
1.26546e-06
1.26167e-06
1.26167e-06
1.26167e-06
1.26167e-06
1.26167e-06
1.26167e-06
1.26633e-06
1.26829e-06
1.26809e-06
1.26538e-06
1.26167e-06
1.26167e-06
1.26167e-06
1.26167e-06
1.26167e-06
1.26167e-06
1.2665e-06
1.26804e-06
1.26792e-06
1.26524e-06
1.26167e-06
1.26167e-06
1.26167e-06
1.26167e-06
1.26167e-06
1.26167e-06
1.26649e-06
1.26623e-06
1.26548e-06
1.26167e-06
1.26167e-06
1.26167e-06
1.26167e-06
1.26167e-06
1.26167e-06
1.26644e-06
1.26838e-06
1.26775e-06
1.26524e-06
1.26167e-06
1.26167e-06
1.26167e-06
1.26167e-06