/*--------------------------------*- C++ -*----------------------------------*\
| =========                 |                                                 |
| \\      /  F ield         | OpenFOAM: The Open Source CFD Toolbox           |
|  \\    /   O peration     | Version:  v2012                                 |
|   \\  /    A nd           | Website:  www.openfoam.com                      |
|    \\/     M anipulation  |                                                 |
\*---------------------------------------------------------------------------*/
FoamFile
{
    version     2.0;
    format      ascii;
    class       volScalarField;
    location    "12500";
    object      p;
}
// * * * * * * * * * * * * * * * * * * * * * * * * * * * * * * * * * * * * * //

dimensions      [0 2 -2 0 0 0 0];


internalField   nonuniform List<scalar> 
171728
(
1.45227e-07
1.45162e-07
1.45162e-07
1.45309e-07
1.42317e-07
1.4224e-07
1.4224e-07
1.42371e-07
1.40162e-07
1.40135e-07
1.40135e-07
1.40241e-07
1.38402e-07
1.384e-07
1.384e-07
1.38489e-07
1.36859e-07
1.36859e-07
1.36859e-07
1.36945e-07
1.35347e-07
1.35347e-07
1.35347e-07
1.35433e-07
1.33835e-07
1.33835e-07
1.33835e-07
1.33921e-07
1.32323e-07
1.32323e-07
1.32323e-07
1.32409e-07
1.30811e-07
1.30811e-07
1.30811e-07
1.30897e-07
1.29299e-07
1.29299e-07
1.29299e-07
1.29385e-07
1.27788e-07
1.27787e-07
1.27787e-07
1.27873e-07
1.26276e-07
1.26275e-07
1.26275e-07
1.26362e-07
1.24764e-07
1.24764e-07
1.24764e-07
1.2485e-07
1.23252e-07
1.23252e-07
1.23252e-07
1.23338e-07
1.2174e-07
1.2174e-07
1.2174e-07
1.21826e-07
1.20228e-07
1.20228e-07
1.20228e-07
1.20314e-07
1.18716e-07
1.18716e-07
1.18716e-07
1.18802e-07
1.17204e-07
1.17204e-07
1.17204e-07
1.1729e-07
1.15692e-07
1.15692e-07
1.15692e-07
1.15778e-07
1.14181e-07
1.1418e-07
1.1418e-07
1.14266e-07
1.12669e-07
1.12668e-07
1.12668e-07
1.12754e-07
1.11157e-07
1.11157e-07
1.11157e-07
1.11243e-07
1.09645e-07
1.09645e-07
1.09645e-07
1.09731e-07
1.08133e-07
1.08133e-07
1.08133e-07
1.08219e-07
1.06621e-07
1.06621e-07
1.06621e-07
1.06707e-07
1.05109e-07
1.05109e-07
1.05109e-07
1.05195e-07
1.03597e-07
1.03597e-07
1.03597e-07
1.03683e-07
1.02085e-07
1.02085e-07
1.02085e-07
1.02171e-07
1.00573e-07
1.00573e-07
1.00573e-07
1.00659e-07
9.90615e-08
9.90612e-08
9.90612e-08
9.91473e-08
9.75496e-08
9.75493e-08
9.75493e-08
9.76354e-08
9.60376e-08
9.60374e-08
9.60374e-08
9.61234e-08
9.45257e-08
9.45254e-08
9.45254e-08
9.46115e-08
9.30138e-08
9.30135e-08
9.30135e-08
9.30996e-08
9.15019e-08
9.15016e-08
9.15016e-08
9.15877e-08
8.999e-08
8.99897e-08
8.99897e-08
9.00758e-08
8.84781e-08
8.84778e-08
8.84778e-08
8.85639e-08
8.69662e-08
8.6966e-08
8.6966e-08
8.7052e-08
8.54544e-08
8.54541e-08
8.54541e-08
8.55402e-08
8.39426e-08
8.39423e-08
8.39423e-08
8.40284e-08
8.24308e-08
8.24305e-08
8.24305e-08
8.25166e-08
8.0919e-08
8.09187e-08
8.09187e-08
8.10048e-08
7.94073e-08
7.9407e-08
7.9407e-08
7.94931e-08
7.78955e-08
7.78952e-08
7.78952e-08
7.79813e-08
7.63838e-08
7.63835e-08
7.63835e-08
7.64696e-08
7.48721e-08
7.48718e-08
7.48718e-08
7.49579e-08
7.33604e-08
7.33601e-08
7.33601e-08
7.34462e-08
7.18488e-08
7.18485e-08
7.18485e-08
7.19346e-08
7.03371e-08
7.03369e-08
7.03369e-08
7.04229e-08
6.88255e-08
6.88252e-08
6.88252e-08
6.89113e-08
6.73139e-08
6.73136e-08
6.73136e-08
6.73997e-08
6.58022e-08
6.5802e-08
6.5802e-08
6.5888e-08
6.42906e-08
6.42904e-08
6.42904e-08
6.43764e-08
6.27791e-08
6.27788e-08
6.27788e-08
6.28649e-08
6.12675e-08
6.12672e-08
6.12672e-08
6.13533e-08
5.97559e-08
5.97556e-08
5.97556e-08
5.98417e-08
5.82443e-08
5.8244e-08
5.8244e-08
5.83301e-08
5.67327e-08
5.67324e-08
5.67324e-08
5.68185e-08
5.52211e-08
5.52208e-08
5.52208e-08
5.53069e-08
5.37095e-08
5.37092e-08
5.37092e-08
5.37953e-08
5.21978e-08
5.21976e-08
5.21975e-08
5.22836e-08
5.06862e-08
5.06859e-08
5.06859e-08
5.0772e-08
4.91745e-08
4.91742e-08
4.91742e-08
4.92603e-08
4.76628e-08
4.76625e-08
4.76625e-08
4.77486e-08
4.6151e-08
4.61508e-08
4.61508e-08
4.62368e-08
4.46393e-08
4.4639e-08
4.4639e-08
4.47251e-08
4.31275e-08
4.31272e-08
4.31272e-08
4.32133e-08
4.16157e-08
4.16154e-08
4.16154e-08
4.17015e-08
4.01038e-08
4.01036e-08
4.01036e-08
4.01897e-08
3.8592e-08
3.85917e-08
3.85917e-08
3.86778e-08
3.70801e-08
3.70798e-08
3.70798e-08
3.71659e-08
3.55682e-08
3.55679e-08
3.55679e-08
3.5654e-08
3.40563e-08
3.4056e-08
3.4056e-08
3.41421e-08
3.25444e-08
3.25441e-08
3.25441e-08
3.26302e-08
3.10324e-08
3.10322e-08
3.10322e-08
3.11182e-08
2.95204e-08
2.95202e-08
2.95202e-08
2.96063e-08
2.80085e-08
2.80082e-08
2.80082e-08
2.80943e-08
2.64965e-08
2.64962e-08
2.64962e-08
2.65823e-08
2.49845e-08
2.49842e-08
2.49842e-08
2.50703e-08
2.34725e-08
2.34722e-08
2.34722e-08
2.35583e-08
2.19605e-08
2.19602e-08
2.19602e-08
2.20463e-08
2.04484e-08
2.04482e-08
2.04482e-08
2.05343e-08
1.89364e-08
1.89361e-08
1.89361e-08
1.90222e-08
1.74243e-08
1.7424e-08
1.7424e-08
1.75101e-08
1.59122e-08
1.5912e-08
1.5912e-08
1.59981e-08
1.44001e-08
1.43999e-08
1.43999e-08
1.4486e-08
1.2888e-08
1.28877e-08
1.28877e-08
1.29738e-08
1.13759e-08
1.13756e-08
1.13756e-08
1.14617e-08
9.86368e-09
9.86342e-09
9.86341e-09
9.94952e-09
8.35146e-09
8.35119e-09
8.35119e-09
8.4373e-09
6.83916e-09
6.8389e-09
6.83889e-09
6.92501e-09
5.32682e-09
5.32654e-09
5.32654e-09
5.41268e-09
3.81452e-09
3.81413e-09
3.81412e-09
3.90043e-09
2.30527e-09
2.3012e-09
2.30115e-09
2.38955e-09
7.78655e-10
8.83244e-10
8.83202e-10
8.39861e-10
1.45819e-07
1.45894e-07
1.45894e-07
1.45819e-07
1.45894e-07
1.45894e-07
1.46061e-07
1.46061e-07
1.46061e-07
1.46061e-07
1.45894e-07
1.45894e-07
1.45819e-07
1.45894e-07
1.45894e-07
1.45819e-07
1.45309e-07
1.42711e-07
1.45162e-07
1.45162e-07
1.42854e-07
1.42854e-07
1.45309e-07
1.42711e-07
1.45161e-07
1.45162e-07
1.42854e-07
1.42854e-07
1.45162e-07
1.42854e-07
1.42854e-07
1.45309e-07
1.42711e-07
1.45161e-07
1.42854e-07
1.42854e-07
1.42711e-07
1.42371e-07
1.40511e-07
1.4224e-07
1.4224e-07
1.40624e-07
1.40624e-07
1.42371e-07
1.40511e-07
1.4224e-07
1.4224e-07
1.40624e-07
1.40624e-07
1.4224e-07
1.40624e-07
1.40624e-07
1.42371e-07
1.40511e-07
1.4224e-07
1.40624e-07
1.40624e-07
1.40511e-07
1.40241e-07
1.38708e-07
1.40135e-07
1.40135e-07
1.38805e-07
1.38805e-07
1.40241e-07
1.38708e-07
1.40135e-07
1.40135e-07
1.38805e-07
1.38805e-07
1.40135e-07
1.38805e-07
1.38805e-07
1.40241e-07
1.38708e-07
1.40135e-07
1.38805e-07
1.38805e-07
1.38708e-07
1.38489e-07
1.37151e-07
1.384e-07
1.384e-07
1.37238e-07
1.37238e-07
1.38489e-07
1.37151e-07
1.384e-07
1.384e-07
1.37238e-07
1.37238e-07
1.384e-07
1.37238e-07
1.37238e-07
1.38489e-07
1.37151e-07
1.384e-07
1.37238e-07
1.37238e-07
1.37151e-07
1.36945e-07
1.35639e-07
1.36859e-07
1.36859e-07
1.35725e-07
1.35725e-07
1.36945e-07
1.35639e-07
1.36859e-07
1.36859e-07
1.35725e-07
1.35725e-07
1.36859e-07
1.35725e-07
1.35725e-07
1.36945e-07
1.35639e-07
1.36859e-07
1.35725e-07
1.35725e-07
1.35639e-07
1.35433e-07
1.34127e-07
1.35347e-07
1.35347e-07
1.34213e-07
1.34213e-07
1.35433e-07
1.34127e-07
1.35347e-07
1.35347e-07
1.34213e-07
1.34213e-07
1.35347e-07
1.34213e-07
1.34213e-07
1.35433e-07
1.34127e-07
1.35347e-07
1.34213e-07
1.34213e-07
1.34127e-07
1.33921e-07
1.32615e-07
1.33835e-07
1.33835e-07
1.32701e-07
1.32701e-07
1.33921e-07
1.32615e-07
1.33835e-07
1.33835e-07
1.32701e-07
1.32701e-07
1.33835e-07
1.32701e-07
1.32701e-07
1.33921e-07
1.32615e-07
1.33835e-07
1.32701e-07
1.32701e-07
1.32615e-07
1.32409e-07
1.31103e-07
1.32323e-07
1.32323e-07
1.31189e-07
1.31189e-07
1.32409e-07
1.31103e-07
1.32323e-07
1.32323e-07
1.31189e-07
1.31189e-07
1.32323e-07
1.31189e-07
1.31189e-07
1.32409e-07
1.31103e-07
1.32323e-07
1.31189e-07
1.31189e-07
1.31103e-07
1.30897e-07
1.29591e-07
1.30811e-07
1.30811e-07
1.29677e-07
1.29677e-07
1.30897e-07
1.29591e-07
1.30811e-07
1.30811e-07
1.29677e-07
1.29677e-07
1.30811e-07
1.29677e-07
1.29677e-07
1.30897e-07
1.29591e-07
1.30811e-07
1.29677e-07
1.29677e-07
1.29591e-07
1.29385e-07
1.28079e-07
1.29299e-07
1.29299e-07
1.28165e-07
1.28165e-07
1.29385e-07
1.28079e-07
1.29299e-07
1.29299e-07
1.28165e-07
1.28165e-07
1.29299e-07
1.28165e-07
1.28165e-07
1.29385e-07
1.28079e-07
1.29299e-07
1.28165e-07
1.28165e-07
1.28079e-07
1.27873e-07
1.26567e-07
1.27787e-07
1.27787e-07
1.26653e-07
1.26653e-07
1.27873e-07
1.26567e-07
1.27787e-07
1.27787e-07
1.26653e-07
1.26653e-07
1.27787e-07
1.26653e-07
1.26653e-07
1.27873e-07
1.26567e-07
1.27787e-07
1.26653e-07
1.26653e-07
1.26567e-07
1.26362e-07
1.25055e-07
1.26275e-07
1.26275e-07
1.25142e-07
1.25142e-07
1.26362e-07
1.25056e-07
1.26275e-07
1.26275e-07
1.25142e-07
1.25142e-07
1.26275e-07
1.25142e-07
1.25142e-07
1.26362e-07
1.25055e-07
1.26275e-07
1.25142e-07
1.25142e-07
1.25055e-07
1.2485e-07
1.23544e-07
1.24764e-07
1.24764e-07
1.2363e-07
1.2363e-07
1.2485e-07
1.23544e-07
1.24764e-07
1.24764e-07
1.2363e-07
1.2363e-07
1.24764e-07
1.2363e-07
1.2363e-07
1.2485e-07
1.23544e-07
1.24764e-07
1.2363e-07
1.2363e-07
1.23544e-07
1.23338e-07
1.22032e-07
1.23252e-07
1.23252e-07
1.22118e-07
1.22118e-07
1.23338e-07
1.22032e-07
1.23252e-07
1.23252e-07
1.22118e-07
1.22118e-07
1.23252e-07
1.22118e-07
1.22118e-07
1.23338e-07
1.22032e-07
1.23252e-07
1.22118e-07
1.22118e-07
1.22032e-07
1.21826e-07
1.2052e-07
1.2174e-07
1.2174e-07
1.20606e-07
1.20606e-07
1.21826e-07
1.2052e-07
1.2174e-07
1.2174e-07
1.20606e-07
1.20606e-07
1.2174e-07
1.20606e-07
1.20606e-07
1.21826e-07
1.2052e-07
1.2174e-07
1.20606e-07
1.20606e-07
1.2052e-07
1.20314e-07
1.19008e-07
1.20228e-07
1.20228e-07
1.19094e-07
1.19094e-07
1.20314e-07
1.19008e-07
1.20228e-07
1.20228e-07
1.19094e-07
1.19094e-07
1.20228e-07
1.19094e-07
1.19094e-07
1.20314e-07
1.19008e-07
1.20228e-07
1.19094e-07
1.19094e-07
1.19008e-07
1.18802e-07
1.17496e-07
1.18716e-07
1.18716e-07
1.17582e-07
1.17582e-07
1.18802e-07
1.17496e-07
1.18716e-07
1.18716e-07
1.17582e-07
1.17582e-07
1.18716e-07
1.17582e-07
1.17582e-07
1.18802e-07
1.17496e-07
1.18716e-07
1.17582e-07
1.17582e-07
1.17496e-07
1.1729e-07
1.15984e-07
1.17204e-07
1.17204e-07
1.1607e-07
1.1607e-07
1.1729e-07
1.15984e-07
1.17204e-07
1.17204e-07
1.1607e-07
1.1607e-07
1.17204e-07
1.1607e-07
1.1607e-07
1.1729e-07
1.15984e-07
1.17204e-07
1.1607e-07
1.1607e-07
1.15984e-07
1.15778e-07
1.14472e-07
1.15692e-07
1.15692e-07
1.14558e-07
1.14558e-07
1.15778e-07
1.14472e-07
1.15692e-07
1.15692e-07
1.14558e-07
1.14558e-07
1.15692e-07
1.14558e-07
1.14558e-07
1.15778e-07
1.14472e-07
1.15692e-07
1.14558e-07
1.14558e-07
1.14472e-07
1.14266e-07
1.1296e-07
1.1418e-07
1.1418e-07
1.13046e-07
1.13046e-07
1.14266e-07
1.1296e-07
1.1418e-07
1.1418e-07
1.13046e-07
1.13046e-07
1.1418e-07
1.13046e-07
1.13046e-07
1.14266e-07
1.1296e-07
1.1418e-07
1.13046e-07
1.13046e-07
1.1296e-07
1.12754e-07
1.11448e-07
1.12668e-07
1.12668e-07
1.11534e-07
1.11534e-07
1.12754e-07
1.11448e-07
1.12668e-07
1.12668e-07
1.11534e-07
1.11534e-07
1.12668e-07
1.11534e-07
1.11534e-07
1.12754e-07
1.11448e-07
1.12668e-07
1.11534e-07
1.11534e-07
1.11448e-07
1.11243e-07
1.09937e-07
1.11157e-07
1.11157e-07
1.10023e-07
1.10023e-07
1.11243e-07
1.09937e-07
1.11157e-07
1.11157e-07
1.10023e-07
1.10023e-07
1.11157e-07
1.10023e-07
1.10023e-07
1.11243e-07
1.09937e-07
1.11157e-07
1.10023e-07
1.10023e-07
1.09937e-07
1.09731e-07
1.08425e-07
1.09645e-07
1.09645e-07
1.08511e-07
1.08511e-07
1.09731e-07
1.08425e-07
1.09645e-07
1.09645e-07
1.08511e-07
1.08511e-07
1.09645e-07
1.08511e-07
1.08511e-07
1.09731e-07
1.08425e-07
1.09645e-07
1.08511e-07
1.08511e-07
1.08425e-07
1.08219e-07
1.06913e-07
1.08133e-07
1.08133e-07
1.06999e-07
1.06999e-07
1.08219e-07
1.06913e-07
1.08133e-07
1.08133e-07
1.06999e-07
1.06999e-07
1.08133e-07
1.06999e-07
1.06999e-07
1.08219e-07
1.06913e-07
1.08133e-07
1.06999e-07
1.06999e-07
1.06913e-07
1.06707e-07
1.05401e-07
1.06621e-07
1.06621e-07
1.05487e-07
1.05487e-07
1.06707e-07
1.05401e-07
1.06621e-07
1.06621e-07
1.05487e-07
1.05487e-07
1.06621e-07
1.05487e-07
1.05487e-07
1.06707e-07
1.05401e-07
1.06621e-07
1.05487e-07
1.05487e-07
1.05401e-07
1.05195e-07
1.03889e-07
1.05109e-07
1.05109e-07
1.03975e-07
1.03975e-07
1.05195e-07
1.03889e-07
1.05109e-07
1.05109e-07
1.03975e-07
1.03975e-07
1.05109e-07
1.03975e-07
1.03975e-07
1.05195e-07
1.03889e-07
1.05109e-07
1.03975e-07
1.03975e-07
1.03889e-07
1.03683e-07
1.02377e-07
1.03597e-07
1.03597e-07
1.02463e-07
1.02463e-07
1.03683e-07
1.02377e-07
1.03597e-07
1.03597e-07
1.02463e-07
1.02463e-07
1.03597e-07
1.02463e-07
1.02463e-07
1.03683e-07
1.02377e-07
1.03597e-07
1.02463e-07
1.02463e-07
1.02377e-07
1.02171e-07
1.00865e-07
1.02085e-07
1.02085e-07
1.00951e-07
1.00951e-07
1.02171e-07
1.00865e-07
1.02085e-07
1.02085e-07
1.00951e-07
1.00951e-07
1.02085e-07
1.00951e-07
1.00951e-07
1.02171e-07
1.00865e-07
1.02085e-07
1.00951e-07
1.00951e-07
1.00865e-07
1.00659e-07
9.93532e-08
1.00573e-07
1.00573e-07
9.94392e-08
9.94392e-08
1.00659e-07
9.93532e-08
1.00573e-07
1.00573e-07
9.94392e-08
9.94392e-08
1.00573e-07
9.94392e-08
9.94392e-08
1.00659e-07
9.93532e-08
1.00573e-07
9.94392e-08
9.94392e-08
9.93532e-08
9.91473e-08
9.78413e-08
9.90612e-08
9.90612e-08
9.79273e-08
9.79273e-08
9.91473e-08
9.78413e-08
9.90612e-08
9.90612e-08
9.79273e-08
9.79273e-08
9.90612e-08
9.79273e-08
9.79273e-08
9.91473e-08
9.78412e-08
9.90612e-08
9.79273e-08
9.79273e-08
9.78412e-08
9.76354e-08
9.63293e-08
9.75493e-08
9.75493e-08
9.64153e-08
9.64153e-08
9.76354e-08
9.63293e-08
9.75493e-08
9.75493e-08
9.64153e-08
9.64153e-08
9.75493e-08
9.64153e-08
9.64153e-08
9.76354e-08
9.63293e-08
9.75493e-08
9.64153e-08
9.64153e-08
9.63293e-08
9.61234e-08
9.48174e-08
9.60374e-08
9.60374e-08
9.49034e-08
9.49034e-08
9.61234e-08
9.48174e-08
9.60374e-08
9.60374e-08
9.49034e-08
9.49034e-08
9.60374e-08
9.49034e-08
9.49034e-08
9.61234e-08
9.48174e-08
9.60374e-08
9.49034e-08
9.49034e-08
9.48174e-08
9.46115e-08
9.33055e-08
9.45254e-08
9.45254e-08
9.33915e-08
9.33915e-08
9.46115e-08
9.33055e-08
9.45254e-08
9.45254e-08
9.33915e-08
9.33915e-08
9.45254e-08
9.33915e-08
9.33915e-08
9.46115e-08
9.33055e-08
9.45254e-08
9.33915e-08
9.33915e-08
9.33055e-08
9.30996e-08
9.17936e-08
9.30135e-08
9.30135e-08
9.18796e-08
9.18796e-08
9.30996e-08
9.17936e-08
9.30135e-08
9.30135e-08
9.18796e-08
9.18796e-08
9.30135e-08
9.18796e-08
9.18796e-08
9.30996e-08
9.17936e-08
9.30135e-08
9.18796e-08
9.18796e-08
9.17936e-08
9.15877e-08
9.02817e-08
9.15016e-08
9.15016e-08
9.03677e-08
9.03677e-08
9.15877e-08
9.02817e-08
9.15016e-08
9.15016e-08
9.03677e-08
9.03677e-08
9.15016e-08
9.03677e-08
9.03677e-08
9.15877e-08
9.02817e-08
9.15016e-08
9.03677e-08
9.03677e-08
9.02817e-08
9.00758e-08
8.87698e-08
8.99897e-08
8.99897e-08
8.88558e-08
8.88558e-08
9.00758e-08
8.87698e-08
8.99897e-08
8.99897e-08
8.88558e-08
8.88558e-08
8.99897e-08
8.88558e-08
8.88558e-08
9.00758e-08
8.87698e-08
8.99897e-08
8.88558e-08
8.88558e-08
8.87698e-08
8.85639e-08
8.72579e-08
8.84778e-08
8.84778e-08
8.73439e-08
8.73439e-08
8.85639e-08
8.72579e-08
8.84778e-08
8.84778e-08
8.73439e-08
8.73439e-08
8.84778e-08
8.73439e-08
8.73439e-08
8.85639e-08
8.72579e-08
8.84778e-08
8.73439e-08
8.73439e-08
8.72579e-08
8.7052e-08
8.57461e-08
8.6966e-08
8.6966e-08
8.58321e-08
8.58321e-08
8.7052e-08
8.57461e-08
8.6966e-08
8.6966e-08
8.58321e-08
8.58321e-08
8.6966e-08
8.58321e-08
8.58321e-08
8.7052e-08
8.5746e-08
8.6966e-08
8.58321e-08
8.58321e-08
8.5746e-08
8.55402e-08
8.42342e-08
8.54541e-08
8.54541e-08
8.43203e-08
8.43203e-08
8.55402e-08
8.42342e-08
8.54541e-08
8.54541e-08
8.43203e-08
8.43203e-08
8.54541e-08
8.43203e-08
8.43203e-08
8.55402e-08
8.42342e-08
8.54541e-08
8.43203e-08
8.43203e-08
8.42342e-08
8.40284e-08
8.27224e-08
8.39423e-08
8.39423e-08
8.28085e-08
8.28085e-08
8.40284e-08
8.27225e-08
8.39423e-08
8.39423e-08
8.28085e-08
8.28085e-08
8.39423e-08
8.28085e-08
8.28085e-08
8.40284e-08
8.27224e-08
8.39423e-08
8.28085e-08
8.28085e-08
8.27224e-08
8.25166e-08
8.12107e-08
8.24305e-08
8.24305e-08
8.12967e-08
8.12967e-08
8.25166e-08
8.12107e-08
8.24305e-08
8.24305e-08
8.12967e-08
8.12967e-08
8.24305e-08
8.12967e-08
8.12967e-08
8.25166e-08
8.12107e-08
8.24305e-08
8.12967e-08
8.12967e-08
8.12107e-08
8.10048e-08
7.96989e-08
8.09187e-08
8.09187e-08
7.97849e-08
7.97849e-08
8.10048e-08
7.96989e-08
8.09187e-08
8.09187e-08
7.97849e-08
7.97849e-08
8.09187e-08
7.97849e-08
7.97849e-08
8.10048e-08
7.96989e-08
8.09187e-08
7.97849e-08
7.97849e-08
7.96989e-08
7.94931e-08
7.81872e-08
7.9407e-08
7.9407e-08
7.82732e-08
7.82732e-08
7.94931e-08
7.81872e-08
7.9407e-08
7.9407e-08
7.82732e-08
7.82732e-08
7.9407e-08
7.82732e-08
7.82732e-08
7.94931e-08
7.81872e-08
7.9407e-08
7.82732e-08
7.82732e-08
7.81872e-08
7.79813e-08
7.66754e-08
7.78952e-08
7.78952e-08
7.67614e-08
7.67614e-08
7.79813e-08
7.66754e-08
7.78952e-08
7.78952e-08
7.67614e-08
7.67614e-08
7.78952e-08
7.67614e-08
7.67614e-08
7.79813e-08
7.66754e-08
7.78952e-08
7.67614e-08
7.67614e-08
7.66754e-08
7.64696e-08
7.51637e-08
7.63835e-08
7.63835e-08
7.52497e-08
7.52497e-08
7.64696e-08
7.51637e-08
7.63835e-08
7.63835e-08
7.52497e-08
7.52497e-08
7.63835e-08
7.52497e-08
7.52497e-08
7.64696e-08
7.51637e-08
7.63835e-08
7.52497e-08
7.52497e-08
7.51637e-08
7.49579e-08
7.36521e-08
7.48718e-08
7.48718e-08
7.37381e-08
7.37381e-08
7.49579e-08
7.36521e-08
7.48718e-08
7.48718e-08
7.37381e-08
7.37381e-08
7.48718e-08
7.37381e-08
7.37381e-08
7.49579e-08
7.3652e-08
7.48718e-08
7.37381e-08
7.37381e-08
7.3652e-08
7.34462e-08
7.21404e-08
7.33601e-08
7.33601e-08
7.22264e-08
7.22264e-08
7.34462e-08
7.21404e-08
7.33601e-08
7.33601e-08
7.22264e-08
7.22264e-08
7.33601e-08
7.22264e-08
7.22264e-08
7.34462e-08
7.21404e-08
7.33601e-08
7.22264e-08
7.22264e-08
7.21404e-08
7.19346e-08
7.06288e-08
7.18485e-08
7.18485e-08
7.07148e-08
7.07148e-08
7.19346e-08
7.06288e-08
7.18485e-08
7.18485e-08
7.07148e-08
7.07148e-08
7.18485e-08
7.07148e-08
7.07148e-08
7.19346e-08
7.06288e-08
7.18485e-08
7.07148e-08
7.07148e-08
7.06287e-08
7.04229e-08
6.91171e-08
7.03369e-08
7.03369e-08
6.92031e-08
6.92031e-08
7.04229e-08
6.91171e-08
7.03369e-08
7.03369e-08
6.92031e-08
6.92031e-08
7.03369e-08
6.92031e-08
6.92031e-08
7.04229e-08
6.91171e-08
7.03369e-08
6.92031e-08
6.92031e-08
6.91171e-08
6.89113e-08
6.76055e-08
6.88252e-08
6.88252e-08
6.76915e-08
6.76915e-08
6.89113e-08
6.76055e-08
6.88252e-08
6.88252e-08
6.76915e-08
6.76915e-08
6.88252e-08
6.76915e-08
6.76915e-08
6.89113e-08
6.76055e-08
6.88252e-08
6.76915e-08
6.76915e-08
6.76055e-08
6.73997e-08
6.60939e-08
6.73136e-08
6.73136e-08
6.61799e-08
6.61799e-08
6.73997e-08
6.60939e-08
6.73136e-08
6.73136e-08
6.61799e-08
6.61799e-08
6.73136e-08
6.61799e-08
6.61799e-08
6.73997e-08
6.60939e-08
6.73136e-08
6.61799e-08
6.61799e-08
6.60939e-08
6.5888e-08
6.45823e-08
6.5802e-08
6.5802e-08
6.46683e-08
6.46683e-08
6.5888e-08
6.45823e-08
6.5802e-08
6.5802e-08
6.46683e-08
6.46683e-08
6.5802e-08
6.46683e-08
6.46683e-08
6.5888e-08
6.45823e-08
6.5802e-08
6.46683e-08
6.46683e-08
6.45823e-08
6.43764e-08
6.30707e-08
6.42904e-08
6.42904e-08
6.31567e-08
6.31567e-08
6.43764e-08
6.30707e-08
6.42904e-08
6.42904e-08
6.31567e-08
6.31567e-08
6.42904e-08
6.31567e-08
6.31567e-08
6.43764e-08
6.30707e-08
6.42904e-08
6.31567e-08
6.31567e-08
6.30707e-08
6.28649e-08
6.15591e-08
6.27788e-08
6.27788e-08
6.16451e-08
6.16451e-08
6.28648e-08
6.15591e-08
6.27788e-08
6.27788e-08
6.16451e-08
6.16451e-08
6.27788e-08
6.16451e-08
6.16451e-08
6.28649e-08
6.15591e-08
6.27788e-08
6.16451e-08
6.16451e-08
6.15591e-08
6.13533e-08
6.00475e-08
6.12672e-08
6.12672e-08
6.01335e-08
6.01335e-08
6.13533e-08
6.00475e-08
6.12672e-08
6.12672e-08
6.01335e-08
6.01335e-08
6.12672e-08
6.01335e-08
6.01335e-08
6.13533e-08
6.00475e-08
6.12672e-08
6.01335e-08
6.01335e-08
6.00475e-08
5.98417e-08
5.85359e-08
5.97556e-08
5.97556e-08
5.86219e-08
5.86219e-08
5.98417e-08
5.85359e-08
5.97556e-08
5.97556e-08
5.86219e-08
5.86219e-08
5.97556e-08
5.86219e-08
5.86219e-08
5.98417e-08
5.85359e-08
5.97556e-08
5.86219e-08
5.86219e-08
5.85359e-08
5.83301e-08
5.70243e-08
5.8244e-08
5.8244e-08
5.71103e-08
5.71103e-08
5.83301e-08
5.70243e-08
5.8244e-08
5.8244e-08
5.71103e-08
5.71103e-08
5.8244e-08
5.71103e-08
5.71103e-08
5.83301e-08
5.70243e-08
5.8244e-08
5.71103e-08
5.71103e-08
5.70243e-08
5.68185e-08
5.55127e-08
5.67324e-08
5.67324e-08
5.55987e-08
5.55987e-08
5.68185e-08
5.55127e-08
5.67324e-08
5.67324e-08
5.55987e-08
5.55987e-08
5.67324e-08
5.55987e-08
5.55987e-08
5.68185e-08
5.55127e-08
5.67324e-08
5.55987e-08
5.55987e-08
5.55127e-08
5.53069e-08
5.40011e-08
5.52208e-08
5.52208e-08
5.40871e-08
5.40871e-08
5.53069e-08
5.40011e-08
5.52208e-08
5.52208e-08
5.40871e-08
5.40871e-08
5.52208e-08
5.40871e-08
5.40871e-08
5.53069e-08
5.40011e-08
5.52208e-08
5.40871e-08
5.40871e-08
5.40011e-08
5.37953e-08
5.24894e-08
5.37092e-08
5.37092e-08
5.25755e-08
5.25755e-08
5.37953e-08
5.24895e-08
5.37092e-08
5.37092e-08
5.25755e-08
5.25755e-08
5.37092e-08
5.25755e-08
5.25755e-08
5.37953e-08
5.24894e-08
5.37092e-08
5.25755e-08
5.25755e-08
5.24894e-08
5.22836e-08
5.09778e-08
5.21975e-08
5.21975e-08
5.10638e-08
5.10638e-08
5.22836e-08
5.09778e-08
5.21975e-08
5.21975e-08
5.10638e-08
5.10638e-08
5.21976e-08
5.10638e-08
5.10638e-08
5.22836e-08
5.09778e-08
5.21975e-08
5.10638e-08
5.10638e-08
5.09778e-08
5.0772e-08
4.94661e-08
5.06859e-08
5.06859e-08
4.95521e-08
4.95521e-08
5.07719e-08
4.94661e-08
5.06859e-08
5.06859e-08
4.95521e-08
4.95521e-08
5.06859e-08
4.95521e-08
4.95521e-08
5.0772e-08
4.94661e-08
5.06859e-08
4.95521e-08
4.95521e-08
4.94661e-08
4.92603e-08
4.79544e-08
4.91742e-08
4.91742e-08
4.80404e-08
4.80404e-08
4.92603e-08
4.79544e-08
4.91742e-08
4.91742e-08
4.80404e-08
4.80404e-08
4.91742e-08
4.80404e-08
4.80404e-08
4.92603e-08
4.79544e-08
4.91742e-08
4.80404e-08
4.80404e-08
4.79544e-08
4.77486e-08
4.64427e-08
4.76625e-08
4.76625e-08
4.65287e-08
4.65287e-08
4.77486e-08
4.64427e-08
4.76625e-08
4.76625e-08
4.65287e-08
4.65287e-08
4.76625e-08
4.65287e-08
4.65287e-08
4.77486e-08
4.64427e-08
4.76625e-08
4.65287e-08
4.65287e-08
4.64427e-08
4.62368e-08
4.49309e-08
4.61508e-08
4.61508e-08
4.5017e-08
4.5017e-08
4.62368e-08
4.49309e-08
4.61508e-08
4.61508e-08
4.5017e-08
4.5017e-08
4.61508e-08
4.5017e-08
4.5017e-08
4.62368e-08
4.49309e-08
4.61508e-08
4.5017e-08
4.5017e-08
4.49309e-08
4.47251e-08
4.34192e-08
4.4639e-08
4.4639e-08
4.35052e-08
4.35052e-08
4.47251e-08
4.34192e-08
4.4639e-08
4.4639e-08
4.35052e-08
4.35052e-08
4.4639e-08
4.35052e-08
4.35052e-08
4.47251e-08
4.34192e-08
4.4639e-08
4.35052e-08
4.35052e-08
4.34192e-08
4.32133e-08
4.19074e-08
4.31272e-08
4.31272e-08
4.19934e-08
4.19934e-08
4.32133e-08
4.19074e-08
4.31272e-08
4.31272e-08
4.19934e-08
4.19934e-08
4.31272e-08
4.19934e-08
4.19934e-08
4.32133e-08
4.19074e-08
4.31272e-08
4.19934e-08
4.19934e-08
4.19074e-08
4.17015e-08
4.03955e-08
4.16154e-08
4.16154e-08
4.04815e-08
4.04815e-08
4.17015e-08
4.03955e-08
4.16154e-08
4.16154e-08
4.04815e-08
4.04815e-08
4.16154e-08
4.04815e-08
4.04815e-08
4.17015e-08
4.03955e-08
4.16154e-08
4.04815e-08
4.04815e-08
4.03955e-08
4.01897e-08
3.88837e-08
4.01036e-08
4.01036e-08
3.89697e-08
3.89697e-08
4.01897e-08
3.88837e-08
4.01036e-08
4.01036e-08
3.89697e-08
3.89697e-08
4.01036e-08
3.89697e-08
3.89697e-08
4.01897e-08
3.88837e-08
4.01036e-08
3.89697e-08
3.89697e-08
3.88837e-08
3.86778e-08
3.73718e-08
3.85917e-08
3.85917e-08
3.74578e-08
3.74578e-08
3.86778e-08
3.73718e-08
3.85917e-08
3.85917e-08
3.74578e-08
3.74578e-08
3.85917e-08
3.74578e-08
3.74578e-08
3.86778e-08
3.73718e-08
3.85917e-08
3.74578e-08
3.74578e-08
3.73718e-08
3.71659e-08
3.58599e-08
3.70798e-08
3.70798e-08
3.59459e-08
3.59459e-08
3.71659e-08
3.58599e-08
3.70798e-08
3.70798e-08
3.59459e-08
3.59459e-08
3.70798e-08
3.59459e-08
3.59459e-08
3.71659e-08
3.58599e-08
3.70798e-08
3.59459e-08
3.59459e-08
3.58599e-08
3.5654e-08
3.4348e-08
3.55679e-08
3.55679e-08
3.4434e-08
3.4434e-08
3.5654e-08
3.4348e-08
3.55679e-08
3.55679e-08
3.4434e-08
3.4434e-08
3.55679e-08
3.4434e-08
3.4434e-08
3.5654e-08
3.4348e-08
3.55679e-08
3.4434e-08
3.4434e-08
3.4348e-08
3.41421e-08
3.28361e-08
3.4056e-08
3.4056e-08
3.29221e-08
3.29221e-08
3.41421e-08
3.28361e-08
3.4056e-08
3.4056e-08
3.29221e-08
3.29221e-08
3.4056e-08
3.29221e-08
3.29221e-08
3.41421e-08
3.28361e-08
3.4056e-08
3.29221e-08
3.29221e-08
3.28361e-08
3.26302e-08
3.13241e-08
3.25441e-08
3.25441e-08
3.14101e-08
3.14101e-08
3.26302e-08
3.13241e-08
3.25441e-08
3.25441e-08
3.14101e-08
3.14101e-08
3.25441e-08
3.14101e-08
3.14101e-08
3.26302e-08
3.13241e-08
3.25441e-08
3.14101e-08
3.14101e-08
3.13241e-08
3.11182e-08
2.98121e-08
3.10322e-08
3.10322e-08
2.98982e-08
2.98982e-08
3.11182e-08
2.98122e-08
3.10322e-08
3.10322e-08
2.98982e-08
2.98982e-08
3.10322e-08
2.98982e-08
2.98982e-08
3.11182e-08
2.98121e-08
3.10322e-08
2.98982e-08
2.98982e-08
2.98121e-08
2.96063e-08
2.83002e-08
2.95202e-08
2.95202e-08
2.83862e-08
2.83862e-08
2.96063e-08
2.83002e-08
2.95202e-08
2.95202e-08
2.83862e-08
2.83862e-08
2.95202e-08
2.83862e-08
2.83862e-08
2.96063e-08
2.83002e-08
2.95202e-08
2.83862e-08
2.83862e-08
2.83002e-08
2.80943e-08
2.67882e-08
2.80082e-08
2.80082e-08
2.68742e-08
2.68742e-08
2.80943e-08
2.67882e-08
2.80082e-08
2.80082e-08
2.68742e-08
2.68742e-08
2.80082e-08
2.68742e-08
2.68742e-08
2.80943e-08
2.67882e-08
2.80082e-08
2.68742e-08
2.68742e-08
2.67882e-08
2.65823e-08
2.52762e-08
2.64962e-08
2.64962e-08
2.53622e-08
2.53622e-08
2.65823e-08
2.52762e-08
2.64962e-08
2.64962e-08
2.53622e-08
2.53622e-08
2.64962e-08
2.53622e-08
2.53622e-08
2.65823e-08
2.52762e-08
2.64962e-08
2.53622e-08
2.53622e-08
2.52762e-08
2.50703e-08
2.37642e-08
2.49842e-08
2.49842e-08
2.38502e-08
2.38502e-08
2.50703e-08
2.37642e-08
2.49842e-08
2.49842e-08
2.38502e-08
2.38502e-08
2.49842e-08
2.38502e-08
2.38503e-08
2.50703e-08
2.37642e-08
2.49842e-08
2.38502e-08
2.38502e-08
2.37642e-08
2.35583e-08
2.22522e-08
2.34722e-08
2.34722e-08
2.23382e-08
2.23382e-08
2.35583e-08
2.22522e-08
2.34722e-08
2.34722e-08
2.23382e-08
2.23382e-08
2.34723e-08
2.23382e-08
2.23382e-08
2.35583e-08
2.22522e-08
2.34722e-08
2.23382e-08
2.23382e-08
2.22522e-08
2.20463e-08
2.07401e-08
2.19602e-08
2.19602e-08
2.08262e-08
2.08262e-08
2.20463e-08
2.07401e-08
2.19602e-08
2.19602e-08
2.08262e-08
2.08262e-08
2.19602e-08
2.08262e-08
2.08262e-08
2.20463e-08
2.07401e-08
2.19602e-08
2.08262e-08
2.08262e-08
2.07401e-08
2.05342e-08
1.92281e-08
2.04482e-08
2.04482e-08
1.93141e-08
1.93141e-08
2.05342e-08
1.92281e-08
2.04482e-08
2.04482e-08
1.93141e-08
1.93141e-08
2.04482e-08
1.93141e-08
1.93141e-08
2.05342e-08
1.92281e-08
2.04482e-08
1.93141e-08
1.93141e-08
1.92281e-08
1.90222e-08
1.7716e-08
1.89361e-08
1.89361e-08
1.7802e-08
1.7802e-08
1.90222e-08
1.7716e-08
1.89361e-08
1.89361e-08
1.7802e-08
1.7802e-08
1.89361e-08
1.7802e-08
1.7802e-08
1.90222e-08
1.7716e-08
1.89361e-08
1.7802e-08
1.7802e-08
1.7716e-08
1.75101e-08
1.6204e-08
1.7424e-08
1.7424e-08
1.629e-08
1.629e-08
1.75101e-08
1.6204e-08
1.7424e-08
1.7424e-08
1.629e-08
1.629e-08
1.7424e-08
1.629e-08
1.629e-08
1.75101e-08
1.6204e-08
1.7424e-08
1.629e-08
1.629e-08
1.62039e-08
1.59981e-08
1.46919e-08
1.5912e-08
1.5912e-08
1.47779e-08
1.47779e-08
1.5998e-08
1.46919e-08
1.5912e-08
1.5912e-08
1.47779e-08
1.47779e-08
1.5912e-08
1.47779e-08
1.47779e-08
1.59981e-08
1.46919e-08
1.5912e-08
1.47779e-08
1.47779e-08
1.46919e-08
1.4486e-08
1.31797e-08
1.43999e-08
1.43999e-08
1.32658e-08
1.32658e-08
1.4486e-08
1.31798e-08
1.43999e-08
1.43999e-08
1.32658e-08
1.32658e-08
1.43999e-08
1.32658e-08
1.32658e-08
1.4486e-08
1.31797e-08
1.43999e-08
1.32658e-08
1.32658e-08
1.31797e-08
1.29738e-08
1.16676e-08
1.28877e-08
1.28877e-08
1.17536e-08
1.17536e-08
1.29738e-08
1.16676e-08
1.28877e-08
1.28877e-08
1.17536e-08
1.17536e-08
1.28877e-08
1.17536e-08
1.17536e-08
1.29738e-08
1.16676e-08
1.28877e-08
1.17536e-08
1.17536e-08
1.16676e-08
1.14617e-08
1.01554e-08
1.13756e-08
1.13756e-08
1.02415e-08
1.02415e-08
1.14617e-08
1.01554e-08
1.13756e-08
1.13756e-08
1.02415e-08
1.02415e-08
1.13756e-08
1.02415e-08
1.02415e-08
1.14617e-08
1.01554e-08
1.13756e-08
1.02415e-08
1.02415e-08
1.01554e-08
9.94951e-09
8.64321e-09
9.86341e-09
9.86341e-09
8.72925e-09
8.72925e-09
9.94951e-09
8.64322e-09
9.86341e-09
9.86341e-09
8.72925e-09
8.72925e-09
9.86342e-09
8.72925e-09
8.72926e-09
9.94952e-09
8.6432e-09
9.86342e-09
8.72925e-09
8.72925e-09
8.64321e-09
8.43729e-09
7.13093e-09
8.35119e-09
8.35119e-09
7.21697e-09
7.21698e-09
8.43729e-09
7.13094e-09
8.35119e-09
8.35119e-09
7.21697e-09
7.21697e-09
8.35119e-09
7.21698e-09
7.21698e-09
8.43729e-09
7.13093e-09
8.35119e-09
7.21697e-09
7.21698e-09
7.13093e-09
6.925e-09
5.61861e-09
6.83889e-09
6.83889e-09
5.70466e-09
5.70466e-09
6.925e-09
5.61862e-09
6.83889e-09
6.83889e-09
5.70466e-09
5.70466e-09
6.8389e-09
5.70466e-09
5.70466e-09
6.925e-09
5.61861e-09
6.8389e-09
5.70466e-09
5.70466e-09
5.61861e-09
5.41267e-09
4.10633e-09
5.32654e-09
5.32654e-09
4.19233e-09
4.19234e-09
5.41266e-09
4.10634e-09
5.32654e-09
5.32654e-09
4.19233e-09
4.19233e-09
5.32654e-09
4.19234e-09
4.19233e-09
5.41267e-09
4.10632e-09
5.32654e-09
4.19233e-09
4.19233e-09
4.10632e-09
3.90043e-09
2.59526e-09
3.81413e-09
3.81412e-09
2.67996e-09
2.67996e-09
3.90041e-09
2.59526e-09
3.81412e-09
3.81412e-09
2.67995e-09
2.67993e-09
3.81412e-09
2.67997e-09
2.67997e-09
3.90043e-09
2.59523e-09
3.81413e-09
2.67994e-09
2.67996e-09
2.59526e-09
2.38953e-09
1.0683e-09
2.30117e-09
2.30116e-09
1.21419e-09
1.21413e-09
2.38951e-09
1.0683e-09
2.30114e-09
2.30111e-09
1.21421e-09
1.21403e-09
2.30119e-09
1.21437e-09
1.21421e-09
2.38951e-09
1.06828e-09
2.30116e-09
1.21433e-09
1.21423e-09
1.06832e-09
8.3986e-10
8.83138e-10
8.83125e-10
8.39863e-10
8.83195e-10
8.83068e-10
7.78679e-10
7.78659e-10
7.78679e-10
8.83137e-10
8.39848e-10
8.83191e-10
1.4656e-07
1.4717e-07
1.46843e-07
1.46843e-07
1.48571e-07
1.47428e-07
1.49957e-07
1.47064e-07
1.48571e-07
1.47428e-07
1.47064e-07
1.49957e-07
1.47725e-07
1.50391e-07
1.50391e-07
1.43925e-07
1.45177e-07
1.45192e-07
1.43887e-07
1.45115e-07
1.43871e-07
1.43925e-07
1.45177e-07
1.45192e-07
1.43887e-07
1.45227e-07
1.45227e-07
1.45227e-07
1.42949e-07
1.42949e-07
1.42949e-07
1.42949e-07
1.43986e-07
1.45232e-07
1.45204e-07
1.44301e-07
1.45267e-07
1.43936e-07
1.44352e-07
1.45115e-07
1.43871e-07
1.43986e-07
1.45204e-07
1.45232e-07
1.44301e-07
1.45267e-07
1.44352e-07
1.43936e-07
1.45248e-07
1.45248e-07
1.44106e-07
1.4392e-07
1.4392e-07
1.41491e-07
1.42297e-07
1.42317e-07
1.41476e-07
1.42291e-07
1.41472e-07
1.41491e-07
1.42297e-07
1.42317e-07
1.41476e-07
1.42317e-07
1.42317e-07
1.42317e-07