/*--------------------------------*- C++ -*----------------------------------*\
| =========                 |                                                 |
| \\      /  F ield         | OpenFOAM: The Open Source CFD Toolbox           |
|  \\    /   O peration     | Version:  v2012                                 |
|   \\  /    A nd           | Website:  www.openfoam.com                      |
|    \\/     M anipulation  |                                                 |
\*---------------------------------------------------------------------------*/
FoamFile
{
    version     2.0;
    format      ascii;
    class       volScalarField;
    location    "0.12";
    object      p;
}
// * * * * * * * * * * * * * * * * * * * * * * * * * * * * * * * * * * * * * //

dimensions      [0 2 -2 0 0 0 0];


internalField   nonuniform List<scalar> 
247104
(
1.97258e-06
1.97331e-06
1.97324e-06
1.97301e-06
1.97275e-06
1.97306e-06
1.97326e-06
1.97323e-06
1.9733e-06
1.97338e-06
1.97341e-06
1.97317e-06
1.973e-06
1.9732e-06
1.97343e-06
1.97335e-06
1.97324e-06
1.97341e-06
1.97313e-06
1.97273e-06
1.97256e-06
1.97277e-06
1.97318e-06
1.97342e-06
1.9732e-06
1.97301e-06
1.97317e-06
1.97273e-06
1.97224e-06
1.97206e-06
1.97229e-06
1.9728e-06
1.9732e-06
1.97295e-06
1.97258e-06
1.97275e-06
1.973e-06
1.97256e-06
1.97206e-06
1.97188e-06
1.97212e-06
1.97263e-06
1.97303e-06
1.97267e-06
1.97306e-06
1.9732e-06
1.97277e-06
1.97229e-06
1.97211e-06
1.97234e-06
1.97284e-06
1.97323e-06
1.973e-06
1.97325e-06
1.97342e-06
1.97318e-06
1.9728e-06
1.97263e-06
1.97284e-06
1.97323e-06
1.97343e-06
1.97322e-06
1.97322e-06
1.97334e-06
1.97341e-06
1.97319e-06
1.97302e-06
1.97323e-06
1.97343e-06
1.97331e-06
1.9732e-06
1.97294e-06
1.97267e-06
1.973e-06
1.97322e-06
1.93885e-06
1.93671e-06
1.9371e-06
1.93592e-06
1.93543e-06
1.93543e-06
1.93538e-06
1.93747e-06
1.93767e-06
1.93709e-06
1.9349e-06
1.93152e-06
1.9313e-06
1.9313e-06
1.93152e-06
1.93529e-06
1.93553e-06
1.93592e-06
1.93152e-06
1.93141e-06
1.93141e-06
1.93141e-06
1.93141e-06
1.93152e-06
1.93585e-06
1.93695e-06
1.93884e-06
1.93541e-06
1.9313e-06
1.93141e-06
1.93153e-06
1.93153e-06
1.93141e-06
1.9313e-06
1.9355e-06
1.93758e-06
1.93674e-06
1.93543e-06
1.9313e-06
1.93141e-06
1.93154e-06
1.93153e-06
1.93141e-06
1.9313e-06
1.9356e-06
1.93519e-06
1.93539e-06
1.93152e-06
1.93141e-06
1.93141e-06
1.93141e-06
1.93141e-06
1.93152e-06
1.93557e-06
1.93651e-06
1.93746e-06
1.9353e-06
1.93152e-06
1.9313e-06
1.9313e-06
1.93152e-06
1.93528e-06
1.93581e-06
1.9375e-06
1.93769e-06
1.93554e-06
1.93586e-06
1.93551e-06
1.9356e-06
1.93557e-06
1.9358e-06
1.93874e-06
1.93696e-06
1.93759e-06
1.93519e-06
1.93651e-06
1.9375e-06
1.91869e-06
1.91849e-06
1.91829e-06
1.91605e-06
1.91603e-06
1.91604e-06
1.91605e-06
1.91857e-06
1.91862e-06
1.9183e-06
1.91548e-06
1.91227e-06
1.91204e-06
1.91204e-06
1.91226e-06
1.91646e-06
1.91652e-06
1.91605e-06
1.91226e-06
1.91175e-06
1.91172e-06
1.91172e-06
1.91175e-06
1.91226e-06
1.91721e-06
1.91915e-06
1.91869e-06
1.91603e-06
1.91204e-06
1.91172e-06
1.91172e-06
1.91172e-06
1.91172e-06
1.91204e-06
1.91712e-06
1.91862e-06
1.91849e-06
1.91603e-06
1.91204e-06
1.91172e-06
1.91172e-06
1.91172e-06
1.91172e-06
1.91204e-06
1.917e-06
1.91638e-06
1.91605e-06
1.91226e-06
1.91175e-06
1.91172e-06
1.91172e-06
1.91175e-06
1.91226e-06
1.91723e-06
1.91905e-06
1.91856e-06
1.91646e-06
1.91227e-06
1.91204e-06
1.91204e-06
1.91226e-06
1.91695e-06
1.91691e-06
1.919e-06
1.91861e-06
1.91652e-06
1.9172e-06
1.91712e-06
1.917e-06
1.91723e-06
1.91691e-06
1.91913e-06
1.91915e-06
1.91862e-06
1.91638e-06
1.91906e-06
1.91901e-06
1.89842e-06
1.89825e-06
1.89821e-06
1.89581e-06
1.89582e-06
1.8957e-06
1.8959e-06
1.89846e-06
1.89851e-06
1.89821e-06
1.89488e-06
1.8919e-06
1.89182e-06
1.89182e-06
1.8919e-06
1.89615e-06
1.89654e-06
1.89581e-06
1.8919e-06
1.89171e-06
1.8917e-06
1.8917e-06
1.89171e-06
1.8919e-06
1.89715e-06
1.89897e-06
1.89841e-06
1.89582e-06
1.89182e-06
1.89169e-06
1.89169e-06
1.89169e-06
1.8917e-06
1.89183e-06
1.89726e-06
1.89834e-06
1.89825e-06
1.8957e-06
1.89182e-06
1.89169e-06
1.89169e-06
1.89169e-06
1.8917e-06
1.89182e-06
1.89717e-06
1.8963e-06
1.8959e-06
1.8919e-06
1.8917e-06
1.89169e-06
1.89169e-06
1.89171e-06
1.8919e-06
1.89727e-06
1.89878e-06
1.89845e-06
1.89614e-06
1.89189e-06
1.89182e-06
1.89182e-06
1.8919e-06
1.89714e-06
1.8969e-06
1.8989e-06
1.89851e-06
1.89651e-06
1.89715e-06
1.89725e-06
1.89716e-06
1.89727e-06
1.8969e-06
1.89881e-06
1.89896e-06
1.89833e-06
1.8963e-06
1.89878e-06
1.8989e-06
1.87823e-06
1.87808e-06
1.87793e-06
1.87548e-06
1.87549e-06
1.87529e-06
1.87559e-06
1.87818e-06
1.87827e-06
1.87793e-06
1.87432e-06
1.87147e-06
1.87145e-06
1.87145e-06
1.87147e-06
1.87568e-06
1.87631e-06
1.87548e-06
1.87146e-06
1.87142e-06
1.87141e-06
1.87141e-06
1.87142e-06
1.87147e-06
1.87695e-06
1.87876e-06
1.87824e-06
1.87549e-06
1.87145e-06
1.87141e-06
1.87141e-06
1.87141e-06
1.87141e-06
1.87145e-06
1.8772e-06
1.87821e-06
1.87808e-06
1.87529e-06
1.87145e-06
1.87141e-06
1.87141e-06
1.87141e-06
1.87141e-06
1.87145e-06
1.87713e-06
1.87622e-06
1.87559e-06
1.87147e-06
1.87141e-06
1.87141e-06
1.87141e-06
1.87142e-06
1.87147e-06
1.87713e-06
1.87864e-06
1.87818e-06
1.87568e-06
1.87147e-06
1.87144e-06
1.87144e-06
1.87147e-06
1.87705e-06
1.8767e-06
1.87868e-06
1.87826e-06
1.87631e-06
1.87695e-06
1.87719e-06
1.87712e-06
1.87713e-06
1.8767e-06
1.87861e-06
1.87876e-06
1.87821e-06
1.87621e-06
1.87865e-06
1.87868e-06
1.85795e-06
1.8578e-06
1.85761e-06
1.85514e-06
1.85516e-06
1.85491e-06
1.85525e-06
1.85786e-06
1.85794e-06
1.8576e-06
1.85392e-06
1.85109e-06
1.85109e-06
1.85109e-06
1.85109e-06
1.85529e-06
1.856e-06
1.85514e-06
1.85109e-06
1.85108e-06
1.85108e-06
1.85108e-06
1.85108e-06
1.85109e-06
1.85665e-06
1.85846e-06
1.85795e-06
1.85515e-06
1.85109e-06
1.85108e-06
1.85108e-06
1.85108e-06
1.85108e-06
1.85109e-06
1.85693e-06
1.85795e-06
1.8578e-06
1.85491e-06
1.85109e-06
1.85108e-06
1.85108e-06
1.85108e-06
1.85108e-06
1.85109e-06
1.85688e-06
1.85596e-06
1.85525e-06
1.85109e-06
1.85108e-06
1.85108e-06
1.85108e-06
1.85108e-06
1.85109e-06
1.85685e-06
1.85837e-06
1.85786e-06
1.85528e-06
1.85109e-06
1.85109e-06
1.85109e-06
1.85109e-06
1.85679e-06
1.8564e-06
1.85837e-06
1.85794e-06
1.856e-06
1.85664e-06
1.85695e-06
1.85688e-06
1.85685e-06
1.8564e-06
1.85829e-06
1.85846e-06
1.85796e-06
1.85597e-06
1.85838e-06
1.85837e-06
1.83762e-06
1.83748e-06
1.83726e-06
1.8348e-06
1.83481e-06
1.83456e-06
1.83491e-06
1.83752e-06
1.8376e-06
1.83726e-06
1.83356e-06
1.83074e-06
1.83074e-06
1.83074e-06
1.83074e-06
1.83492e-06
1.83566e-06
1.83479e-06
1.83074e-06
1.83074e-06
1.83074e-06
1.83074e-06
1.83074e-06
1.83074e-06
1.83631e-06
1.83813e-06
1.83762e-06
1.83481e-06
1.83074e-06
1.83074e-06
1.83074e-06
1.83074e-06
1.83074e-06
1.83074e-06
1.83662e-06
1.83763e-06
1.83748e-06
1.83456e-06
1.83074e-06
1.83074e-06
1.83074e-06
1.83074e-06
1.83074e-06
1.83074e-06
1.83656e-06
1.83565e-06
1.83491e-06
1.83074e-06
1.83074e-06
1.83074e-06
1.83074e-06
1.83074e-06
1.83074e-06
1.83652e-06
1.83805e-06
1.83752e-06
1.83492e-06
1.83074e-06
1.83074e-06
1.83074e-06
1.83074e-06
1.83647e-06
1.83607e-06
1.83803e-06
1.8376e-06
1.83566e-06
1.83631e-06
1.83662e-06
1.83656e-06
1.83652e-06
1.83607e-06
1.83795e-06
1.83812e-06
1.83763e-06
1.83564e-06
1.83805e-06
1.83803e-06
1.81728e-06
1.81714e-06
1.81692e-06
1.81445e-06
1.81447e-06
1.81421e-06
1.81456e-06
1.81717e-06
1.81725e-06
1.81692e-06
1.81321e-06
1.81039e-06
1.81039e-06
1.81039e-06
1.81039e-06
1.81457e-06
1.81532e-06
1.81445e-06
1.81039e-06
1.81039e-06
1.81039e-06
1.81039e-06
1.81039e-06
1.81039e-06
1.81596e-06
1.81779e-06
1.81728e-06
1.81447e-06
1.81039e-06
1.81039e-06
1.81039e-06
1.81039e-06
1.81039e-06
1.81039e-06
1.81628e-06
1.81729e-06
1.81714e-06
1.81421e-06
1.81039e-06
1.81039e-06
1.81039e-06
1.81039e-06
1.81039e-06
1.81039e-06
1.81623e-06
1.81531e-06
1.81456e-06
1.81039e-06
1.81039e-06
1.81039e-06
1.81039e-06
1.81039e-06
1.81039e-06
1.81618e-06
1.81771e-06
1.81717e-06
1.81457e-06
1.81039e-06
1.81039e-06
1.81039e-06
1.81039e-06
1.81613e-06
1.81572e-06
1.81769e-06
1.81725e-06
1.81532e-06
1.81596e-06
1.81628e-06
1.81623e-06
1.81617e-06
1.81572e-06
1.81761e-06
1.81778e-06
1.81729e-06
1.81531e-06
1.8177e-06
1.81769e-06
1.79693e-06
1.79679e-06
1.79658e-06
1.79411e-06
1.79412e-06
1.79387e-06
1.79422e-06
1.79683e-06
1.79691e-06
1.79658e-06
1.79287e-06
1.79005e-06
1.79005e-06
1.79005e-06
1.79005e-06
1.79423e-06
1.79497e-06
1.7941e-06
1.79005e-06
1.79005e-06
1.79005e-06
1.79005e-06
1.79005e-06
1.79005e-06
1.79562e-06
1.79744e-06
1.79694e-06
1.79412e-06
1.79005e-06
1.79005e-06
1.79005e-06
1.79005e-06
1.79005e-06
1.79005e-06
1.79594e-06
1.79694e-06
1.79679e-06
1.79386e-06
1.79005e-06
1.79005e-06
1.79005e-06
1.79005e-06
1.79005e-06
1.79005e-06
1.79588e-06
1.79496e-06
1.79422e-06
1.79005e-06
1.79005e-06
1.79005e-06
1.79005e-06
1.79005e-06
1.79005e-06
1.79583e-06
1.79736e-06
1.79683e-06
1.79422e-06
1.79005e-06
1.79005e-06
1.79005e-06
1.79005e-06
1.79579e-06
1.79538e-06
1.79735e-06
1.79691e-06
1.79497e-06
1.79562e-06
1.79594e-06
1.79588e-06
1.79583e-06
1.79538e-06
1.79726e-06
1.79744e-06
1.79694e-06
1.79496e-06
1.79736e-06
1.79735e-06
1.77659e-06
1.77645e-06
1.77623e-06
1.77377e-06
1.77378e-06
1.77352e-06
1.77387e-06
1.77648e-06
1.77656e-06
1.77623e-06
1.77252e-06
1.7697e-06
1.7697e-06
1.7697e-06
1.7697e-06
1.77388e-06
1.77463e-06
1.77376e-06
1.7697e-06
1.7697e-06
1.7697e-06
1.7697e-06
1.7697e-06
1.7697e-06
1.77528e-06
1.7771e-06
1.7766e-06
1.77378e-06
1.7697e-06
1.7697e-06
1.7697e-06
1.7697e-06
1.7697e-06
1.7697e-06
1.77559e-06
1.7766e-06
1.77645e-06
1.77352e-06
1.7697e-06
1.7697e-06
1.7697e-06
1.7697e-06
1.7697e-06
1.7697e-06
1.77554e-06
1.77462e-06
1.77387e-06
1.7697e-06
1.7697e-06
1.7697e-06
1.7697e-06
1.7697e-06
1.7697e-06
1.77549e-06
1.77702e-06
1.77648e-06
1.77388e-06
1.7697e-06
1.7697e-06
1.7697e-06
1.7697e-06
1.77544e-06
1.77504e-06
1.777e-06
1.77656e-06
1.77463e-06
1.77528e-06
1.77559e-06
1.77554e-06
1.77548e-06
1.77504e-06
1.77692e-06
1.77709e-06
1.7766e-06
1.77462e-06
1.77702e-06
1.777e-06
1.75625e-06
1.75611e-06
1.75588e-06
1.75342e-06
1.75343e-06
1.75318e-06
1.75353e-06
1.75614e-06
1.75622e-06
1.75589e-06
1.75218e-06
1.74935e-06
1.74936e-06
1.74936e-06
1.74936e-06
1.75353e-06
1.75429e-06
1.75341e-06
1.74936e-06
1.74936e-06
1.74936e-06
1.74936e-06
1.74936e-06
1.74936e-06
1.75493e-06
1.75675e-06
1.75625e-06
1.75343e-06
1.74936e-06
1.74936e-06
1.74936e-06
1.74936e-06
1.74936e-06
1.74936e-06
1.75525e-06
1.75625e-06
1.75611e-06
1.75317e-06
1.74936e-06
1.74936e-06
1.74936e-06
1.74936e-06
1.74936e-06
1.74936e-06
1.75519e-06
1.75427e-06
1.75353e-06
1.74936e-06
1.74936e-06
1.74936e-06
1.74936e-06
1.74936e-06
1.74936e-06
1.75514e-06
1.75667e-06
1.75614e-06
1.75353e-06
1.74936e-06
1.74936e-06
1.74936e-06
1.74936e-06
1.7551e-06
1.75469e-06
1.75666e-06
1.75622e-06
1.75428e-06
1.75493e-06
1.75525e-06
1.7552e-06
1.75513e-06
1.75469e-06
1.75657e-06
1.75675e-06
1.75626e-06
1.75428e-06
1.75667e-06
1.75666e-06
1.7359e-06
1.73576e-06
1.73553e-06
1.73307e-06
1.73309e-06
1.73283e-06
1.73318e-06
1.73579e-06
1.73587e-06
1.73554e-06
1.73183e-06
1.72901e-06
1.72901e-06
1.72901e-06
1.72901e-06
1.73319e-06
1.73394e-06
1.73307e-06
1.72901e-06
1.72901e-06
1.72901e-06
1.72901e-06
1.72901e-06
1.72901e-06
1.73459e-06
1.73641e-06
1.73591e-06
1.73309e-06
1.72901e-06
1.72901e-06
1.72901e-06
1.72901e-06
1.72901e-06
1.72901e-06
1.7349e-06
1.73591e-06
1.73576e-06
1.73283e-06
1.72901e-06
1.72901e-06
1.72901e-06
1.72901e-06
1.72901e-06
1.72901e-06
1.73485e-06
1.73393e-06
1.73318e-06
1.72901e-06
1.72901e-06
1.72901e-06
1.72901e-06
1.72901e-06
1.72901e-06
1.7348e-06
1.73633e-06
1.73579e-06
1.73319e-06
1.72901e-06
1.72901e-06
1.72901e-06
1.72901e-06
1.73475e-06
1.73435e-06
1.73631e-06
1.73587e-06
1.73393e-06
1.73458e-06
1.7349e-06
1.73485e-06
1.73479e-06
1.73435e-06
1.73623e-06
1.7364e-06
1.73591e-06
1.73393e-06
1.73633e-06
1.73631e-06
1.71555e-06
1.71541e-06
1.71518e-06
1.71273e-06
1.71274e-06
1.71248e-06
1.71283e-06
1.71545e-06
1.71552e-06
1.7152e-06
1.71148e-06
1.70866e-06
1.70866e-06
1.70866e-06
1.70866e-06
1.71284e-06
1.71359e-06
1.71272e-06
1.70866e-06
1.70866e-06
1.70866e-06
1.70866e-06
1.70866e-06
1.70866e-06
1.71424e-06
1.71606e-06
1.71556e-06
1.71274e-06
1.70866e-06
1.70866e-06
1.70866e-06
1.70866e-06
1.70866e-06
1.70866e-06
1.71455e-06
1.71556e-06
1.71541e-06
1.71248e-06
1.70866e-06
1.70866e-06
1.70866e-06
1.70866e-06
1.70866e-06
1.70866e-06
1.7145e-06
1.71358e-06
1.71283e-06
1.70866e-06
1.70866e-06
1.70866e-06
1.70866e-06
1.70866e-06
1.70866e-06
1.71445e-06
1.71598e-06
1.71544e-06
1.71284e-06
1.70866e-06
1.70866e-06
1.70866e-06
1.70866e-06
1.71441e-06
1.714e-06
1.71596e-06
1.71552e-06
1.71359e-06
1.71424e-06
1.71456e-06
1.71451e-06
1.71444e-06
1.714e-06
1.71588e-06
1.71606e-06
1.71557e-06
1.71359e-06
1.71598e-06
1.71597e-06
1.69521e-06
1.69507e-06
1.69484e-06
1.69238e-06
1.6924e-06
1.69214e-06
1.69249e-06
1.6951e-06
1.69518e-06
1.69485e-06
1.69114e-06
1.68832e-06
1.68832e-06
1.68832e-06
1.68832e-06
1.6925e-06
1.69325e-06
1.69238e-06
1.68832e-06
1.68832e-06
1.68832e-06
1.68832e-06
1.68832e-06
1.68832e-06
1.69389e-06
1.69571e-06
1.69521e-06
1.6924e-06
1.68832e-06
1.68832e-06
1.68832e-06
1.68832e-06
1.68832e-06
1.68832e-06
1.69421e-06
1.69521e-06
1.69507e-06
1.69213e-06
1.68832e-06
1.68832e-06
1.68832e-06
1.68832e-06
1.68832e-06
1.68832e-06
1.69415e-06
1.69323e-06
1.69249e-06
1.68832e-06
1.68832e-06
1.68832e-06
1.68832e-06
1.68832e-06
1.68832e-06
1.6941e-06
1.69563e-06
1.6951e-06
1.69249e-06
1.68832e-06
1.68832e-06
1.68832e-06
1.68832e-06
1.69406e-06
1.69366e-06
1.69562e-06
1.69518e-06
1.69324e-06
1.69389e-06
1.69421e-06
1.69416e-06
1.6941e-06
1.69365e-06
1.69554e-06
1.69571e-06
1.69522e-06
1.69324e-06
1.69563e-06
1.69562e-06
1.67486e-06
1.67472e-06
1.67449e-06
1.67204e-06
1.67205e-06
1.67179e-06
1.67215e-06
1.67476e-06
1.67483e-06
1.67451e-06
1.67079e-06
1.66797e-06
1.66797e-06
1.66797e-06
1.66797e-06
1.67216e-06
1.6729e-06
1.67203e-06
1.66797e-06
1.66797e-06
1.66797e-06
1.66797e-06
1.66797e-06
1.66797e-06
1.67355e-06
1.67537e-06
1.67487e-06
1.67205e-06
1.66797e-06
1.66797e-06
1.66797e-06
1.66797e-06
1.66797e-06
1.66797e-06
1.67386e-06
1.67487e-06
1.67472e-06
1.67179e-06
1.66797e-06
1.66797e-06
1.66797e-06
1.66797e-06
1.66797e-06
1.66797e-06
1.67381e-06
1.67289e-06
1.67214e-06
1.66797e-06
1.66797e-06
1.66797e-06
1.66797e-06
1.66797e-06
1.66797e-06
1.67376e-06
1.67529e-06
1.67475e-06
1.67215e-06
1.66797e-06
1.66797e-06
1.66797e-06
1.66797e-06
1.67372e-06
1.67331e-06
1.67527e-06
1.67483e-06
1.6729e-06
1.67355e-06
1.67387e-06
1.67382e-06
1.67375e-06
1.67331e-06
1.67519e-06
1.67537e-06
1.67488e-06
1.6729e-06
1.67529e-06
1.67528e-06
1.65452e-06
1.65438e-06
1.65415e-06
1.65169e-06
1.65171e-06
1.65145e-06
1.6518e-06
1.65441e-06
1.65449e-06
1.65416e-06
1.65045e-06
1.64763e-06
1.64763e-06
1.64763e-06
1.64763e-06
1.65181e-06
1.65256e-06
1.65169e-06
1.64763e-06
1.64763e-06
1.64763e-06
1.64763e-06
1.64763e-06
1.64763e-06
1.6532e-06
1.65502e-06
1.65452e-06
1.65171e-06
1.64763e-06
1.64763e-06
1.64763e-06
1.64763e-06
1.64763e-06
1.64763e-06
1.65352e-06
1.65453e-06
1.65438e-06
1.65144e-06
1.64763e-06
1.64763e-06
1.64763e-06
1.64763e-06
1.64763e-06
1.64763e-06
1.65347e-06
1.65254e-06
1.6518e-06
1.64763e-06
1.64763e-06
1.64763e-06
1.64763e-06
1.64763e-06
1.64763e-06
1.65342e-06
1.65494e-06
1.65441e-06
1.6518e-06
1.64763e-06
1.64763e-06
1.64763e-06
1.64763e-06
1.65337e-06
1.65297e-06
1.65493e-06
1.65449e-06
1.65255e-06
1.6532e-06
1.65352e-06
1.65347e-06
1.65341e-06
1.65296e-06
1.65485e-06
1.65502e-06
1.65453e-06
1.65255e-06
1.65495e-06
1.65493e-06
1.63417e-06
1.63403e-06
1.63381e-06
1.63135e-06
1.63136e-06
1.6311e-06
1.63146e-06
1.63407e-06
1.63414e-06
1.63382e-06
1.6301e-06
1.62728e-06
1.62728e-06
1.62728e-06
1.62728e-06
1.63146e-06
1.63221e-06
1.63134e-06
1.62728e-06
1.62728e-06
1.62728e-06
1.62728e-06
1.62728e-06
1.62728e-06
1.63286e-06
1.63468e-06
1.63418e-06
1.63136e-06
1.62728e-06
1.62728e-06
1.62728e-06
1.62728e-06
1.62728e-06
1.62728e-06
1.63317e-06
1.63418e-06
1.63403e-06
1.6311e-06
1.62728e-06
1.62728e-06
1.62728e-06
1.62728e-06
1.62728e-06
1.62728e-06
1.63312e-06
1.6322e-06
1.63145e-06
1.62728e-06
1.62728e-06
1.62728e-06
1.62728e-06
1.62728e-06
1.62728e-06
1.63307e-06
1.6346e-06
1.63406e-06
1.63146e-06
1.62728e-06
1.62728e-06
1.62728e-06
1.62728e-06
1.63303e-06
1.63262e-06
1.63458e-06
1.63414e-06
1.63221e-06
1.63286e-06
1.63318e-06
1.63313e-06
1.63306e-06
1.63262e-06
1.6345e-06
1.63468e-06
1.63419e-06
1.63221e-06
1.6346e-06
1.63459e-06
1.61383e-06
1.61369e-06
1.61346e-06
1.611e-06
1.61102e-06
1.61076e-06
1.61111e-06
1.61372e-06
1.61379e-06
1.61347e-06
1.60976e-06
1.60694e-06
1.60694e-06
1.60694e-06
1.60694e-06
1.61112e-06
1.61187e-06
1.611e-06
1.60694e-06
1.60694e-06
1.60694e-06
1.60694e-06
1.60694e-06
1.60694e-06
1.61251e-06
1.61433e-06
1.61383e-06
1.61101e-06
1.60694e-06
1.60694e-06
1.60694e-06
1.60694e-06
1.60694e-06
1.60694e-06
1.61283e-06
1.61384e-06
1.61369e-06
1.61075e-06
1.60694e-06
1.60694e-06
1.60694e-06
1.60694e-06
1.60694e-06
1.60694e-06
1.61277e-06
1.61185e-06
1.61111e-06
1.60694e-06
1.60694e-06
1.60694e-06
1.60694e-06
1.60694e-06
1.60694e-06
1.61272e-06
1.61425e-06
1.61372e-06
1.61111e-06
1.60694e-06
1.60694e-06
1.60694e-06
1.60694e-06
1.61268e-06
1.61228e-06
1.61424e-06
1.6138e-06
1.61186e-06
1.61251e-06
1.61283e-06
1.61278e-06
1.61272e-06
1.61227e-06
1.61416e-06
1.61433e-06
1.61384e-06
1.61186e-06
1.61426e-06
1.61424e-06
1.59348e-06
1.59334e-06
1.59311e-06
1.59066e-06
1.59067e-06
1.59041e-06
1.59077e-06
1.59337e-06
1.59345e-06
1.59312e-06
1.58941e-06
1.58659e-06
1.58659e-06
1.58659e-06
1.58659e-06
1.59077e-06
1.59152e-06
1.59065e-06
1.58659e-06
1.58659e-06
1.58659e-06
1.58659e-06
1.58659e-06
1.58659e-06
1.59217e-06
1.59399e-06
1.59349e-06
1.59067e-06
1.58659e-06
1.58659e-06
1.58659e-06
1.58659e-06
1.58659e-06
1.58659e-06
1.59248e-06
1.59349e-06
1.59334e-06
1.59041e-06
1.58659e-06
1.58659e-06
1.58659e-06
1.58659e-06
1.58659e-06
1.58659e-06
1.59243e-06
1.59151e-06
1.59076e-06
1.58659e-06
1.58659e-06
1.58659e-06
1.58659e-06
1.58659e-06
1.58659e-06
1.59238e-06
1.59391e-06
1.59337e-06
1.59077e-06
1.58659e-06
1.58659e-06
1.58659e-06
1.58659e-06
1.59233e-06
1.59193e-06
1.59389e-06
1.59345e-06
1.59152e-06
1.59217e-06
1.59248e-06
1.59243e-06
1.59237e-06
1.59193e-06
1.59381e-06
1.59398e-06
1.59349e-06
1.59151e-06
1.59391e-06
1.5939e-06
1.57313e-06
1.57299e-06
1.57277e-06
1.57031e-06
1.57032e-06
1.57006e-06
1.57042e-06
1.57303e-06
1.5731e-06
1.57278e-06
1.56907e-06
1.56625e-06
1.56625e-06
1.56625e-06
1.56625e-06
1.57043e-06
1.57117e-06
1.5703e-06
1.56625e-06
1.56625e-06
1.56625e-06
1.56625e-06
1.56625e-06
1.56625e-06
1.57182e-06
1.57364e-06
1.57314e-06
1.57032e-06
1.56625e-06
1.56625e-06
1.56625e-06
1.56625e-06
1.56625e-06
1.56625e-06
1.57214e-06
1.57314e-06
1.573e-06
1.57006e-06
1.56625e-06
1.56625e-06
1.56625e-06
1.56625e-06
1.56625e-06
1.56625e-06
1.57208e-06
1.57116e-06
1.57042e-06
1.56625e-06
1.56625e-06
1.56625e-06
1.56625e-06
1.56625e-06
1.56625e-06
1.57203e-06
1.57356e-06
1.57303e-06
1.57042e-06
1.56625e-06
1.56625e-06
1.56625e-06
1.56625e-06
1.57199e-06
1.57158e-06
1.57355e-06
1.57311e-06
1.57117e-06
1.57182e-06
1.57214e-06
1.57209e-06
1.57202e-06
1.57158e-06
1.57346e-06
1.57364e-06
1.57315e-06
1.57117e-06
1.57356e-06
1.57355e-06
1.55279e-06
1.55265e-06
1.55242e-06
1.54996e-06
1.54998e-06
1.54972e-06
1.55007e-06
1.55268e-06
1.55276e-06
1.55243e-06
1.54872e-06
1.5459e-06
1.5459e-06
1.5459e-06
1.5459e-06
1.55008e-06
1.55083e-06
1.54996e-06
1.5459e-06
1.5459e-06
1.5459e-06
1.5459e-06
1.5459e-06
1.5459e-06
1.55148e-06
1.5533e-06
1.5528e-06
1.54998e-06
1.5459e-06
1.5459e-06
1.5459e-06
1.5459e-06
1.5459e-06
1.5459e-06
1.55179e-06
1.5528e-06
1.55265e-06
1.54972e-06
1.5459e-06
1.5459e-06
1.5459e-06
1.5459e-06
1.5459e-06
1.5459e-06
1.55174e-06
1.55082e-06
1.55007e-06
1.5459e-06
1.5459e-06
1.5459e-06
1.5459e-06
1.5459e-06
1.5459e-06
1.55169e-06
1.55322e-06
1.55268e-06
1.55008e-06
1.5459e-06
1.5459e-06
1.5459e-06
1.5459e-06
1.55164e-06
1.55124e-06
1.5532e-06
1.55276e-06
1.55083e-06
1.55147e-06
1.55179e-06
1.55174e-06
1.55168e-06
1.55124e-06
1.55312e-06
1.55329e-06
1.5528e-06
1.55082e-06
1.55322e-06
1.5532e-06
1.53244e-06
1.5323e-06
1.53208e-06
1.52962e-06
1.52963e-06
1.52937e-06
1.52973e-06
1.53234e-06
1.53241e-06
1.53209e-06
1.52837e-06
1.52555e-06
1.52555e-06
1.52555e-06
1.52555e-06
1.52974e-06
1.53048e-06
1.52961e-06
1.52555e-06
1.52555e-06
1.52555e-06
1.52555e-06
1.52555e-06
1.52555e-06
1.53113e-06
1.53295e-06
1.53245e-06
1.52963e-06
1.52555e-06
1.52555e-06
1.52555e-06
1.52555e-06
1.52555e-06
1.52555e-06
1.53144e-06
1.53245e-06
1.5323e-06
1.52937e-06
1.52555e-06
1.52555e-06
1.52555e-06
1.52555e-06
1.52555e-06
1.52555e-06
1.53139e-06
1.53047e-06
1.52972e-06
1.52555e-06
1.52555e-06
1.52555e-06
1.52555e-06
1.52555e-06
1.52555e-06
1.53134e-06
1.53287e-06
1.53233e-06
1.52973e-06
1.52555e-06
1.52555e-06
1.52555e-06
1.52555e-06
1.5313e-06
1.53089e-06
1.53285e-06
1.53241e-06
1.53048e-06
1.53113e-06
1.53145e-06
1.5314e-06
1.53133e-06
1.53089e-06
1.53277e-06
1.53295e-06
1.53246e-06
1.53047e-06
1.53287e-06
1.53286e-06
1.5121e-06
1.51196e-06
1.51173e-06
1.50927e-06
1.50928e-06
1.50903e-06
1.50938e-06
1.51199e-06
1.51207e-06
1.51174e-06
1.50803e-06
1.50521e-06
1.50521e-06
1.50521e-06
1.50521e-06
1.50939e-06
1.51014e-06
1.50927e-06
1.50521e-06
1.50521e-06
1.50521e-06
1.50521e-06
1.50521e-06
1.50521e-06
1.51078e-06
1.5126e-06
1.5121e-06
1.50928e-06
1.50521e-06
1.50521e-06
1.50521e-06
1.50521e-06
1.50521e-06
1.50521e-06
1.5111e-06
1.5121e-06
1.51196e-06
1.50902e-06
1.50521e-06
1.50521e-06
1.50521e-06
1.50521e-06
1.50521e-06
1.50521e-06
1.51104e-06
1.51012e-06
1.50938e-06
1.50521e-06
1.50521e-06
1.50521e-06
1.50521e-06
1.50521e-06
1.50521e-06
1.51099e-06
1.51252e-06
1.51199e-06
1.50938e-06
1.50521e-06
1.50521e-06
1.50521e-06
1.50521e-06
1.51095e-06
1.51055e-06
1.51251e-06
1.51207e-06
1.51013e-06
1.51078e-06
1.5111e-06
1.51105e-06
1.51099e-06
1.51054e-06
1.51243e-06
1.5126e-06
1.51211e-06
1.51013e-06
1.51253e-06
1.51251e-06
1.49175e-06
1.49161e-06
1.49138e-06
1.48892e-06
1.48894e-06
1.48868e-06
1.48903e-06
1.49164e-06
1.49172e-06
1.49139e-06
1.48768e-06
1.48486e-06
1.48486e-06
1.48486e-06
1.48486e-06
1.48904e-06
1.48979e-06
1.48892e-06
1.48486e-06
1.48486e-06
1.48486e-06
1.48486e-06
1.48486e-06
1.48486e-06
1.49044e-06
1.49226e-06
1.49176e-06
1.48894e-06
1.48486e-06
1.48486e-06
1.48486e-06
1.48486e-06
1.48486e-06
1.48486e-06
1.49075e-06
1.49176e-06
1.49161e-06
1.48868e-06
1.48486e-06
1.48486e-06
1.48486e-06
1.48486e-06
1.48486e-06
1.48486e-06
1.4907e-06
1.48978e-06
1.48903e-06
1.48486e-06
1.48486e-06
1.48486e-06
1.48486e-06
1.48486e-06
1.48486e-06
1.49065e-06
1.49218e-06
1.49164e-06
1.48904e-06
1.48486e-06
1.48486e-06
1.48486e-06
1.48486e-06
1.4906e-06
1.4902e-06
1.49216e-06
1.49172e-06
1.48979e-06
1.49044e-06
1.49075e-06
1.4907e-06
1.49064e-06
1.4902e-06
1.49208e-06
1.49225e-06
1.49176e-06
1.48978e-06
1.49218e-06
1.49216e-06
1.4714e-06
1.47126e-06
1.47104e-06
1.46858e-06
1.46859e-06
1.46833e-06
1.46869e-06
1.4713e-06
1.47137e-06
1.47105e-06
1.46733e-06
1.46451e-06
1.46451e-06
1.46451e-06
1.46451e-06
1.4687e-06
1.46944e-06
1.46857e-06
1.46451e-06
1.46451e-06
1.46451e-06
1.46451e-06
1.46451e-06
1.46452e-06
1.47009e-06
1.47191e-06
1.47141e-06
1.46859e-06
1.46451e-06
1.46451e-06
1.46451e-06
1.46451e-06
1.46451e-06
1.46451e-06
1.47041e-06
1.47141e-06
1.47126e-06
1.46833e-06
1.46451e-06
1.46451e-06
1.46451e-06
1.46451e-06
1.46451e-06
1.46451e-06
1.47035e-06
1.46943e-06
1.46869e-06
1.46451e-06
1.46451e-06
1.46451e-06
1.46451e-06
1.46451e-06
1.46451e-06
1.4703e-06
1.47183e-06
1.47129e-06
1.46869e-06
1.46451e-06
1.46451e-06
1.46451e-06
1.46451e-06
1.47026e-06
1.46985e-06
1.47182e-06
1.47138e-06
1.46944e-06
1.47009e-06
1.47041e-06
1.47036e-06
1.47029e-06
1.46985e-06
1.47173e-06
1.47191e-06
1.47142e-06
1.46944e-06
1.47183e-06
1.47182e-06
1.45106e-06
1.45092e-06
1.45069e-06
1.44823e-06
1.44825e-06
1.44799e-06
1.44834e-06
1.45095e-06
1.45103e-06
1.4507e-06
1.44699e-06
1.44417e-06
1.44417e-06
1.44417e-06
1.44417e-06
1.44835e-06
1.4491e-06
1.44823e-06
1.44417e-06
1.44417e-06
1.44417e-06
1.44417e-06
1.44417e-06
1.44417e-06
1.44975e-06
1.45157e-06
1.45107e-06
1.44825e-06
1.44417e-06
1.44417e-06
1.44417e-06
1.44417e-06
1.44417e-06
1.44417e-06
1.45006e-06
1.45107e-06
1.45092e-06
1.44799e-06
1.44417e-06
1.44417e-06
1.44417e-06
1.44417e-06
1.44417e-06
1.44417e-06
1.45001e-06
1.44909e-06
1.44834e-06
1.44417e-06
1.44417e-06
1.44417e-06
1.44417e-06
1.44417e-06
1.44417e-06
1.44996e-06
1.45149e-06
1.45095e-06
1.44835e-06
1.44417e-06
1.44417e-06
1.44417e-06
1.44417e-06
1.44991e-06
1.44951e-06
1.45147e-06
1.45103e-06
1.44909e-06
1.44974e-06
1.45006e-06
1.45001e-06
1.44995e-06
1.4495e-06
1.45139e-06
1.45156e-06
1.45107e-06
1.44909e-06
1.45149e-06
1.45147e-06
1.43071e-06
1.43057e-06
1.43035e-06
1.42789e-06
1.4279e-06
1.42764e-06
1.428e-06
1.43061e-06
1.43068e-06
1.43036e-06
1.42664e-06
1.42382e-06
1.42382e-06
1.42382e-06
1.42382e-06
1.42801e-06
1.42875e-06
1.42788e-06
1.42382e-06
1.42382e-06
1.42382e-06
1.42382e-06
1.42382e-06
1.42382e-06
1.4294e-06
1.43122e-06
1.43072e-06
1.4279e-06
1.42382e-06
1.42382e-06
1.42382e-06
1.42382e-06
1.42382e-06
1.42382e-06
1.42972e-06
1.43072e-06
1.43057e-06
1.42764e-06
1.42382e-06
1.42382e-06
1.42382e-06
1.42382e-06
1.42382e-06
1.42382e-06
1.42966e-06
1.42874e-06
1.42799e-06
1.42382e-06
1.42382e-06
1.42382e-06
1.42382e-06
1.42382e-06
1.42382e-06
1.42961e-06
1.43114e-06
1.4306e-06
1.428e-06
1.42382e-06
1.42382e-06
1.42382e-06
1.42382e-06
1.42957e-06
1.42916e-06
1.43112e-06
1.43068e-06
1.42875e-06
1.4294e-06
1.42972e-06
1.42967e-06
1.4296e-06
1.42916e-06
1.43104e-06
1.43122e-06
1.43073e-06
1.42875e-06
1.43114e-06
1.43113e-06
1.41037e-06
1.41023e-06
1.41e-06
1.40754e-06
1.40755e-06
1.4073e-06
1.40765e-06
1.41026e-06
1.41034e-06
1.41001e-06
1.4063e-06
1.40348e-06
1.40348e-06
1.40348e-06
1.40348e-06
1.40766e-06
1.40841e-06
1.40754e-06
1.40348e-06
1.40348e-06
1.40348e-06
1.40348e-06
1.40348e-06
1.40348e-06
1.40905e-06
1.41087e-06
1.41037e-06
1.40756e-06
1.40348e-06
1.40348e-06
1.40348e-06
1.40348e-06
1.40348e-06
1.40348e-06
1.40937e-06
1.41038e-06
1.41023e-06
1.40729e-06
1.40348e-06
1.40348e-06
1.40348e-06
1.40348e-06
1.40348e-06
1.40348e-06
1.40932e-06
1.40839e-06
1.40765e-06
1.40348e-06
1.40348e-06
1.40348e-06
1.40348e-06
1.40348e-06
1.40348e-06
1.40927e-06
1.4108e-06
1.41026e-06
1.40765e-06
1.40348e-06
1.40348e-06
1.40348e-06
1.40348e-06
1.40922e-06
1.40882e-06
1.41078e-06
1.41034e-06
1.4084e-06
1.40905e-06
1.40937e-06
1.40932e-06
1.40926e-06
1.40881e-06
1.4107e-06
1.41087e-06
1.41038e-06
1.4084e-06
1.4108e-06
1.41078e-06
1.39002e-06
1.38988e-06
1.38966e-06
1.3872e-06
1.38721e-06
1.38695e-06
1.38731e-06
1.38992e-06
1.38999e-06
1.38966e-06
1.38595e-06
1.38313e-06
1.38313e-06
1.38313e-06
1.38313e-06
1.38731e-06
1.38806e-06
1.38719e-06
1.38313e-06
1.38313e-06
1.38313e-06
1.38313e-06
1.38313e-06
1.38313e-06
1.38871e-06
1.39053e-06
1.39003e-06
1.38721e-06
1.38313e-06
1.38313e-06
1.38313e-06
1.38313e-06
1.38313e-06
1.38313e-06
1.38902e-06
1.39003e-06
1.38988e-06
1.38695e-06
1.38313e-06
1.38313e-06
1.38313e-06
1.38313e-06
1.38313e-06
1.38313e-06
1.38897e-06
1.38805e-06
1.3873e-06
1.38313e-06
1.38313e-06
1.38313e-06
1.38313e-06
1.38313e-06
1.38313e-06
1.38892e-06
1.39045e-06
1.38991e-06
1.38731e-06
1.38313e-06
1.38313e-06
1.38313e-06
1.38313e-06
1.38888e-06
1.38847e-06
1.39043e-06
1.38999e-06
1.38806e-06
1.38871e-06
1.38903e-06
1.38898e-06
1.38891e-06
1.38847e-06
1.39035e-06
1.39053e-06
1.39003e-06
1.38805e-06
1.39045e-06
1.39044e-06
1.36967e-06
1.36953e-06
1.36931e-06
1.36685e-06
1.36686e-06
1.36661e-06
1.36696e-06
1.36957e-06
1.36965e-06
1.36932e-06
1.36561e-06
1.36279e-06
1.36279e-06
1.36279e-06
1.36279e-06
1.36697e-06
1.36771e-06
1.36684e-06
1.36279e-06
1.36279e-06
1.36279e-06
1.36279e-06
1.36279e-06
1.36279e-06
1.36836e-06
1.37018e-06
1.36968e-06
1.36686e-06
1.36279e-06
1.36279e-06
1.36279e-06
1.36279e-06
1.36279e-06
1.36279e-06
1.36868e-06
1.36968e-06
1.36954e-06
1.3666e-06
1.36279e-06
1.36279e-06
1.36279e-06
1.36279e-06
1.36279e-06
1.36279e-06
1.36862e-06
1.3677e-06
1.36696e-06
1.36279e-06
1.36279e-06
1.36279e-06
1.36279e-06
1.36279e-06
1.36279e-06
1.36857e-06
1.3701e-06
1.36957e-06
1.36696e-06
1.36279e-06
1.36279e-06
1.36279e-06
1.36279e-06
1.36853e-06
1.36812e-06
1.37009e-06
1.36965e-06
1.36771e-06
1.36836e-06
1.36868e-06
1.36863e-06
1.36856e-06
1.36812e-06
1.37e-06
1.37018e-06
1.36969e-06
1.3677e-06
1.3701e-06
1.37009e-06
1.34933e-06
1.34919e-06
1.34897e-06
1.34651e-06
1.34652e-06
1.34626e-06
1.34661e-06
1.34923e-06
1.3493e-06
1.34897e-06
1.34526e-06
1.34244e-06
1.34244e-06
1.34244e-06
1.34244e-06
1.34662e-06
1.34737e-06
1.3465e-06
1.34244e-06
1.34244e-06
1.34244e-06
1.34244e-06
1.34244e-06
1.34244e-06
1.34802e-06
1.34984e-06
1.34934e-06
1.34652e-06
1.34244e-06
1.34244e-06
1.34244e-06
1.34244e-06
1.34244e-06
1.34244e-06
1.34833e-06
1.34934e-06
1.34919e-06
1.34626e-06
1.34244e-06
1.34244e-06
1.34244e-06
1.34244e-06
1.34244e-06
1.34244e-06
1.34828e-06
1.34736e-06
1.34661e-06
1.34244e-06
1.34244e-06
1.34244e-06
1.34244e-06
1.34244e-06
1.34244e-06
1.34823e-06
1.34976e-06
1.34922e-06
1.34662e-06
1.34244e-06
1.34244e-06
1.34244e-06
1.34244e-06
1.34818e-06
1.34778e-06
1.34974e-06
1.3493e-06
1.34737e-06
1.34802e-06
1.34833e-06
1.34828e-06
1.34822e-06
1.34778e-06
1.34966e-06
1.34983e-06
1.34934e-06
1.34736e-06
1.34976e-06
1.34974e-06
1.32898e-06
1.32884e-06
1.32862e-06
1.32616e-06
1.32617e-06
1.32591e-06
1.32627e-06
1.32888e-06
1.32895e-06
1.32863e-06
1.32491e-06
1.32209e-06
1.32209e-06
1.32209e-06
1.32209e-06
1.32628e-06
1.32702e-06
1.32615e-06
1.32209e-06
1.32209e-06
1.32209e-06
1.32209e-06
1.32209e-06
1.32209e-06
1.32767e-06
1.32949e-06
1.32899e-06
1.32617e-06
1.32209e-06
1.32209e-06
1.32209e-06
1.32209e-06
1.32209e-06
1.32209e-06
1.32799e-06
1.32899e-06
1.32884e-06
1.32591e-06
1.32209e-06
1.32209e-06
1.32209e-06
1.32209e-06
1.32209e-06
1.32209e-06
1.32793e-06
1.32701e-06
1.32627e-06
1.32209e-06
1.32209e-06
1.32209e-06
1.32209e-06
1.32209e-06
1.32209e-06
1.32788e-06
1.32941e-06
1.32888e-06
1.32627e-06
1.32209e-06
1.32209e-06
1.32209e-06
1.32209e-06
1.32784e-06
1.32743e-06
1.3294e-06
1.32896e-06