/*--------------------------------*- C++ -*----------------------------------*\
| =========                 |                                                 |
| \\      /  F ield         | OpenFOAM: The Open Source CFD Toolbox           |
|  \\    /   O peration     | Version:  v2012                                 |
|   \\  /    A nd           | Website:  www.openfoam.com                      |
|    \\/     M anipulation  |                                                 |
\*---------------------------------------------------------------------------*/
FoamFile
{
    version     2.0;
    format      ascii;
    class       volScalarField;
    location    "150";
    object      epsilon;
}
// * * * * * * * * * * * * * * * * * * * * * * * * * * * * * * * * * * * * * //

dimensions      [0 2 -3 0 0 0 0];


internalField   nonuniform List<scalar> 
171728
(
1.48358e-07
4.43154e-07
7.11926e-07
4.43396e-07
4.43393e-07
4.42812e-07
7.115e-07
8.89292e-06
8.89615e-06
3.9538e-06
1.482e-07
1.81028e-05
3.206e-06
1.81047e-05
1.81058e-05
5.28366e-06
5.28738e-06
3.20536e-06
3.20611e-06
2.44749e-07
1.73394e-06
8.88864e-06
3.95254e-06
2.44209e-07
3.20369e-06
1.73422e-06
5.28477e-06
5.28419e-06
1.81043e-05
8.89602e-06
8.89329e-06
7.08421e-06
2.18689e-05
2.18754e-05
8.8963e-06
7.08885e-06
7.08792e-06
2.18699e-05
1.19992e-05
3.95344e-06
4.64766e-06
1.06126e-05
4.64727e-06
1.06135e-05
1.19982e-05
1.81063e-05
1.8108e-05
1.81088e-05
4.28746e-06
2.467e-06
5.28297e-06
9.13657e-06
9.13715e-06
2.46643e-06
4.28835e-06
4.29386e-06
2.46937e-06
5.28672e-06
9.14173e-06
9.14239e-06
2.46912e-06
4.29455e-06
9.62714e-06
2.14656e-05
2.14636e-05
2.14711e-05
2.14689e-05
9.62866e-06
2.18644e-05
8.88899e-06
7.0825e-06
7.08128e-06
2.18582e-05
1.1996e-05
3.95205e-06
1.0612e-05
4.64471e-06
1.06128e-05
4.64389e-06
1.19948e-05
4.29365e-06
2.46782e-06
5.28406e-06
9.14046e-06
9.14114e-06
2.46728e-06
4.29465e-06
4.28745e-06
2.46675e-06
5.28341e-06
9.1365e-06
2.4663e-06
9.13705e-06
4.28843e-06
9.62779e-06
2.14668e-05
2.14661e-05
2.14722e-05
2.14713e-05
9.62965e-06
1.81074e-05
8.89636e-06
9.29871e-08
2.30247e-06
1.32894e-06
1.32927e-06
7.10201e-07
1.32786e-06
1.32823e-06
2.30406e-06
2.30409e-06
1.32948e-06
1.3295e-06
7.09675e-07
1.32834e-06
1.32835e-06
2.30475e-06
9.29021e-08
1.16285e-06
1.60318e-06
3.20533e-06
2.56885e-06
1.60207e-06
2.56804e-06
1.16461e-06
1.16311e-06
1.60289e-06
3.20475e-06
2.57021e-06
2.56959e-06
1.60185e-06
1.1647e-06
1.16031e-06
1.60354e-06
3.20522e-06
2.56967e-06
2.56877e-06
1.60244e-06
1.16438e-06
9.20729e-07
1.7311e-06
2.02371e-06
7.84144e-07
2.02348e-06
7.82897e-07
9.22838e-07
1.15809e-06
1.60201e-06
3.2029e-06
2.56707e-06
2.5664e-06
1.60089e-06
1.16238e-06
9.18165e-07
1.73362e-06
7.83145e-07
2.02095e-06
7.8194e-07
2.02082e-06
9.2007e-07
4.95569e-07
4.97421e-07
4.97421e-07
4.99627e-07
4.45584e-07
4.53898e-07
4.53899e-07
4.63995e-07
4.03779e-07
4.18695e-07
4.18692e-07
4.39647e-07
3.68397e-07
3.8869e-07
3.8869e-07
4.17733e-07
3.38045e-07
3.62185e-07
3.62182e-07
3.95895e-07
3.11671e-07
3.38292e-07
3.38296e-07
3.74378e-07
2.88486e-07
3.16593e-07
3.16603e-07
3.53403e-07
2.67915e-07
2.96922e-07
2.9693e-07
3.33547e-07
2.49547e-07
2.79226e-07
2.79225e-07
3.15741e-07
2.33081e-07
2.63494e-07
2.63485e-07
3.00379e-07
2.18288e-07
2.49732e-07
2.49711e-07
2.87886e-07
2.04992e-07
2.37939e-07
2.37906e-07
2.77683e-07
1.93055e-07
2.28115e-07
2.28076e-07
2.71014e-07
1.82365e-07
2.20271e-07
2.20228e-07
2.67435e-07
1.72833e-07
2.14406e-07
2.14365e-07
2.669e-07
1.64382e-07
2.10532e-07
2.10498e-07
2.69692e-07
1.56949e-07
2.08653e-07
2.08628e-07
2.75794e-07
1.50481e-07
2.0878e-07
2.08771e-07
2.851e-07
1.44934e-07
2.10976e-07
2.10982e-07
2.98323e-07
1.40271e-07
2.15247e-07
2.15268e-07
3.14355e-07
1.36462e-07
2.21619e-07
2.21653e-07
3.33997e-07
1.33484e-07
2.30098e-07
2.30142e-07
3.56867e-07
1.31316e-07
2.4065e-07
2.40701e-07
3.82889e-07
1.29937e-07
2.53205e-07
2.53261e-07
4.11783e-07
1.2932e-07
2.6759e-07
2.67643e-07
4.41818e-07
1.29436e-07
2.83509e-07
2.83554e-07
4.71968e-07
1.30199e-07
3.005e-07
3.00565e-07
5.02649e-07
1.31505e-07
3.18053e-07
3.18107e-07
5.32014e-07
1.33208e-07
3.35542e-07
3.35551e-07
5.59722e-07
1.35131e-07
3.52387e-07
3.52302e-07
5.83935e-07
1.37112e-07
3.68133e-07
3.67938e-07
6.05825e-07
1.3904e-07
3.82399e-07
3.82245e-07
6.25805e-07
1.40865e-07
3.95057e-07
3.95285e-07
6.4473e-07
1.42594e-07
4.06537e-07
4.07243e-07
6.62537e-07
1.44202e-07
4.16898e-07
4.17796e-07
6.78258e-07
1.455e-07
4.2561e-07
4.2626e-07
6.9016e-07
1.46401e-07
4.31945e-07
4.32288e-07
6.98311e-07
1.46928e-07
4.35644e-07
4.3595e-07
7.02722e-07
1.47182e-07
4.38179e-07
4.38186e-07
7.06663e-07
1.47273e-07
4.396e-07
4.39335e-07
7.09071e-07
1.47362e-07
4.40072e-07
4.398e-07
7.09095e-07
1.47484e-07
4.40518e-07
4.40094e-07
7.08983e-07
1.47595e-07
4.41146e-07
4.40658e-07
7.09142e-07
1.47712e-07
4.4171e-07
4.41409e-07
7.09711e-07
1.4785e-07
4.42044e-07
4.42068e-07
7.10288e-07
1.48031e-07
4.42587e-07
4.42516e-07
7.10698e-07
1.48196e-07
4.43029e-07
4.42898e-07
7.11616e-07
5.06386e-07
5.05557e-07
5.05557e-07
5.06398e-07
5.05556e-07
5.05556e-07
5.09644e-07
5.09644e-07
5.09644e-07
5.09644e-07
5.05553e-07
5.05556e-07
5.06398e-07
5.05557e-07
5.05556e-07
5.06395e-07
4.99644e-07
4.67491e-07
4.97426e-07
4.97416e-07
4.63857e-07
4.6385e-07
4.99616e-07
4.67452e-07
4.97423e-07
4.97416e-07
4.63862e-07
4.63856e-07
4.9742e-07
4.63852e-07
4.63855e-07
4.99616e-07
4.67455e-07
4.97425e-07
4.63854e-07
4.63862e-07
4.67486e-07
4.64016e-07
4.41665e-07
4.53906e-07
4.53899e-07
4.26947e-07
4.26918e-07
4.63967e-07
4.41638e-07
4.53912e-07
4.53901e-07
4.26923e-07
4.26914e-07
4.53901e-07
4.26914e-07
4.26913e-07
4.63965e-07
4.41608e-07
4.53909e-07
4.26911e-07
4.26917e-07
4.41653e-07
4.39662e-07
4.19356e-07
4.18743e-07
4.18699e-07
3.95873e-07
3.95828e-07
4.39627e-07
4.19327e-07
4.18704e-07
4.18696e-07
3.95827e-07
3.95821e-07
4.18698e-07
3.95814e-07
3.95831e-07
4.39605e-07
4.19299e-07
4.18697e-07
3.95815e-07
3.95826e-07
4.19374e-07
4.17742e-07
3.97609e-07
3.88741e-07
3.88706e-07
3.68575e-07
3.68562e-07
4.1772e-07
3.97591e-07
3.88702e-07
3.88694e-07
3.68552e-07
3.68544e-07
3.88708e-07
3.68541e-07
3.68563e-07
4.17669e-07
3.97489e-07
3.88702e-07
3.68538e-07
3.68551e-07
3.97595e-07
3.95911e-07
3.75955e-07
3.62217e-07
3.62205e-07
3.44091e-07
3.44067e-07
3.95884e-07
3.75878e-07
3.62194e-07
3.62189e-07
3.44063e-07
3.44068e-07
3.62209e-07
3.44048e-07
3.44081e-07
3.95957e-07
3.75805e-07
3.62194e-07
3.44051e-07
3.44058e-07
3.75822e-07
3.74221e-07
3.54814e-07
3.38337e-07
3.38308e-07
3.21871e-07
3.21837e-07
3.74277e-07
3.54785e-07
3.38307e-07
3.38315e-07
3.21844e-07
3.21856e-07
3.38327e-07
3.21824e-07
3.21857e-07
3.74372e-07
3.54863e-07
3.38301e-07
3.21834e-07
3.21837e-07
3.54732e-07
3.53247e-07
3.35058e-07
3.16635e-07
3.16606e-07
3.01675e-07
3.01665e-07
3.53281e-07
3.35006e-07
3.16613e-07
3.16625e-07
3.01665e-07
3.01682e-07
3.16621e-07
3.01654e-07
3.01659e-07
3.53223e-07
3.3498e-07
3.16607e-07
3.01662e-07
3.01665e-07
3.35034e-07
3.33557e-07
3.17007e-07
2.96934e-07
2.96933e-07
2.83456e-07
2.83474e-07
3.33602e-07
3.17105e-07
2.96928e-07
2.96949e-07
2.83452e-07
2.83485e-07
2.9692e-07
2.83466e-07
2.83439e-07
3.33777e-07
3.17046e-07
2.96934e-07
2.83467e-07
2.83469e-07
3.17095e-07
3.16024e-07
3.01364e-07
2.7921e-07
2.79234e-07
2.67213e-07
2.67247e-07
3.15733e-07
3.01282e-07
2.79206e-07
2.79246e-07
2.67203e-07
2.6726e-07
2.79195e-07
2.67242e-07
2.67207e-07
3.16013e-07
3.01351e-07
2.79227e-07
2.67235e-07
2.67239e-07
3.01428e-07
3.00304e-07
2.88132e-07
2.63461e-07
2.63498e-07
2.52947e-07
2.52994e-07
3.00304e-07
2.88393e-07
2.63451e-07
2.63514e-07
2.52933e-07
2.5301e-07
2.6346e-07
2.52987e-07
2.52964e-07
3.00644e-07
2.8821e-07
2.63491e-07
2.52969e-07
2.52988e-07
2.88242e-07
2.87751e-07
2.78057e-07
2.4969e-07
2.49739e-07
2.40657e-07
2.40716e-07
2.87621e-07
2.78084e-07
2.49674e-07
2.49757e-07
2.40637e-07
2.4073e-07
2.49713e-07
2.40701e-07
2.40694e-07
2.87853e-07
2.77928e-07
2.49735e-07
2.40672e-07
2.40708e-07
2.78217e-07
2.77682e-07
2.71064e-07
2.37894e-07
2.37957e-07
2.30344e-07
2.30412e-07
2.77774e-07
2.7111e-07
2.37873e-07
2.37969e-07
2.30319e-07
2.30418e-07
2.37936e-07
2.30383e-07
2.30389e-07
2.77906e-07
2.70909e-07
2.37949e-07
2.30344e-07
2.30399e-07
2.71143e-07
2.70944e-07
2.67122e-07
2.28076e-07
2.28146e-07
2.22014e-07
2.22082e-07
2.70994e-07
2.67159e-07
2.28051e-07
2.28151e-07
2.21986e-07
2.22081e-07
2.28125e-07
2.22042e-07
2.22056e-07
2.71232e-07
2.67112e-07
2.28131e-07
2.22001e-07
2.22062e-07
2.67183e-07
2.67341e-07
2.66178e-07
2.20238e-07
2.20313e-07
2.15659e-07
2.15726e-07
2.67413e-07
2.66223e-07
2.20213e-07
2.20308e-07
2.15628e-07
2.15718e-07
2.20283e-07
2.15679e-07
2.1569e-07
2.67395e-07
2.66229e-07
2.2029e-07
2.15638e-07
2.15697e-07
2.6624e-07
2.66839e-07
2.68324e-07
2.14385e-07
2.14454e-07
2.11293e-07
2.11353e-07
2.66892e-07
2.68378e-07
2.14356e-07
2.14445e-07
2.11264e-07
2.11344e-07
2.14415e-07
2.11301e-07
2.11307e-07
2.66857e-07
2.68349e-07
2.14423e-07
2.11267e-07
2.11319e-07
2.68371e-07
2.69652e-07
2.73748e-07
2.10525e-07
2.10583e-07
2.08924e-07
2.08967e-07
2.69666e-07
2.73793e-07
2.10499e-07
2.10574e-07
2.089e-07
2.08964e-07
2.10536e-07
2.08913e-07
2.08918e-07
2.69666e-07
2.73826e-07
2.10548e-07
2.08887e-07
2.08932e-07
2.73849e-07
2.75837e-07
2.82307e-07
2.08664e-07
2.08707e-07
2.08597e-07
2.08638e-07
2.75805e-07
2.82764e-07
2.08642e-07
2.08704e-07
2.08576e-07
2.08635e-07
2.08658e-07
2.08574e-07
2.08586e-07
2.75784e-07
2.8232e-07
2.08668e-07
2.08563e-07
2.08588e-07
2.82718e-07
2.85544e-07
2.9479e-07
2.08816e-07
2.08843e-07
2.10273e-07
2.10287e-07
2.85246e-07
2.94926e-07
2.08802e-07
2.08846e-07
2.10253e-07
2.10297e-07
2.08791e-07
2.10218e-07
2.10239e-07
2.85556e-07
2.94785e-07
2.08802e-07
2.10221e-07
2.10243e-07
2.94571e-07
2.98069e-07
3.10513e-07
2.11029e-07
2.11048e-07
2.14038e-07
2.14048e-07
2.97985e-07
3.10408e-07
2.11011e-07
2.11056e-07
2.14014e-07
2.1406e-07
2.10996e-07
2.13965e-07
2.13997e-07
2.98172e-07
3.10612e-07
2.11001e-07
2.13983e-07
2.14e-07
3.10541e-07
3.14374e-07
3.29553e-07
2.15319e-07
2.15331e-07
2.19897e-07
2.19908e-07
3.14242e-07
3.29441e-07
2.15295e-07
2.15344e-07
2.19874e-07
2.19925e-07
2.15277e-07
2.19813e-07
2.19857e-07
3.14529e-07
3.29204e-07
2.15282e-07
2.1984e-07
2.19858e-07
3.29599e-07
3.34082e-07
3.51536e-07
2.217e-07
2.2171e-07
2.2786e-07
2.27877e-07
3.33973e-07
3.51612e-07
2.21675e-07
2.21731e-07
2.27835e-07
2.279e-07
2.21657e-07
2.27762e-07
2.27824e-07
3.34287e-07
3.51084e-07
2.21659e-07
2.27803e-07
2.27822e-07
3.52043e-07
3.57262e-07
3.77333e-07
2.30184e-07
2.30202e-07
2.37899e-07
2.37929e-07
3.56782e-07
3.77152e-07
2.30157e-07
2.30229e-07
2.37879e-07
2.37947e-07
2.30145e-07
2.37792e-07
2.37864e-07
3.57716e-07
3.77284e-07
2.30139e-07
2.37837e-07
2.37859e-07
3.77095e-07
3.82869e-07
4.04991e-07
2.40743e-07
2.4077e-07
2.49961e-07
2.49999e-07
3.82532e-07
4.0436e-07
2.40718e-07
2.40798e-07
2.49937e-07
2.50024e-07
2.40701e-07
2.49842e-07
2.49921e-07
3.82859e-07
4.04124e-07
2.40693e-07
2.49897e-07
2.49913e-07
4.04127e-07
4.10998e-07
4.34992e-07
2.53296e-07
2.53334e-07
2.63898e-07
2.63942e-07
4.11453e-07
4.34815e-07
2.5327e-07
2.53366e-07
2.6388e-07
2.63973e-07
2.53256e-07
2.63772e-07
2.63859e-07
4.12084e-07
4.35037e-07
2.53246e-07
2.63824e-07
2.63843e-07
4.33756e-07
4.4109e-07
4.6569e-07
2.67684e-07
2.67724e-07
2.79464e-07
2.79502e-07
4.41243e-07
4.65455e-07
2.67659e-07
2.67759e-07
2.79444e-07
2.79529e-07
2.67634e-07
2.79317e-07
2.79407e-07
4.41789e-07
4.65166e-07
2.67617e-07
2.79365e-07
2.79375e-07
4.65286e-07
4.72526e-07
4.96822e-07
2.83613e-07
2.8365e-07
2.96251e-07
2.96265e-07
4.71973e-07
4.95891e-07
2.83591e-07
2.83671e-07
2.96225e-07
2.9628e-07
2.83543e-07
2.96057e-07
2.96162e-07
4.72753e-07
4.95706e-07
2.83514e-07
2.96118e-07
2.96126e-07
4.95769e-07
5.03143e-07
5.26572e-07
3.00649e-07
3.00649e-07
3.13736e-07
3.13713e-07
5.02485e-07
5.24386e-07
3.00627e-07
3.00667e-07
3.13717e-07
3.13712e-07
3.0054e-07
3.13478e-07
3.13603e-07
5.03333e-07
5.26218e-07
3.005e-07
3.13539e-07
3.13551e-07
5.25661e-07
5.32627e-07
5.54197e-07
3.18251e-07
3.18207e-07
3.31308e-07
3.31261e-07
5.33318e-07
5.51596e-07
3.18232e-07
3.18203e-07
3.31333e-07
3.31223e-07
3.181e-07
3.30988e-07
3.31148e-07
5.32121e-07
5.53415e-07
3.18045e-07
3.3102e-07
3.31091e-07
5.54072e-07
5.59784e-07
5.78935e-07
3.35772e-07
3.35703e-07
3.48358e-07
3.48279e-07
5.60288e-07
5.77717e-07
3.35807e-07
3.35667e-07
3.48463e-07
3.48231e-07
3.35599e-07
3.48004e-07
3.48192e-07
5.58955e-07
5.77911e-07
3.35541e-07
3.47949e-07
3.48134e-07
5.78676e-07
5.84211e-07
6.0117e-07
3.52626e-07
3.5252e-07
3.64401e-07
3.64271e-07
5.844e-07
6.01055e-07
3.52755e-07
3.52481e-07
3.64624e-07
3.64222e-07
3.52435e-07
3.6401e-07
3.64231e-07
5.8311e-07
5.9976e-07
3.52388e-07
3.63842e-07
3.64173e-07
6.00871e-07
6.06016e-07
6.20913e-07
3.68376e-07
3.68191e-07
3.79123e-07
3.78825e-07
6.05893e-07
6.20683e-07
3.68638e-07
3.68176e-07
3.79509e-07
3.78887e-07
3.68207e-07
3.78639e-07
3.79071e-07
6.04627e-07
6.19593e-07
3.68118e-07
3.78457e-07
3.78853e-07
6.21039e-07
6.25622e-07
6.40119e-07
3.82774e-07
3.82407e-07
3.92592e-07
3.9189e-07
6.25379e-07
6.39133e-07
3.83191e-07
3.825e-07
3.92978e-07
3.92218e-07
3.82726e-07
3.91662e-07
3.92554e-07
6.24155e-07
6.3878e-07
3.82468e-07
3.91775e-07
3.92133e-07
6.39907e-07
6.44654e-07
6.57436e-07
3.9592e-07
3.95095e-07
4.04816e-07
4.03675e-07
6.43466e-07
6.55956e-07
3.96306e-07
3.95523e-07
4.05153e-07
4.04304e-07
3.95855e-07
4.03387e-07
4.0456e-07
6.43434e-07
6.55884e-07
3.95386e-07
4.03972e-07
4.03995e-07
6.57567e-07
6.6179e-07
6.7352e-07
4.07834e-07
4.06639e-07
4.1571e-07
4.1445e-07
6.61002e-07
6.721e-07
4.08162e-07
4.07299e-07
4.16163e-07
4.15158e-07
4.07493e-07
4.14043e-07
4.15277e-07
6.60202e-07
6.72219e-07
4.06921e-07
4.14929e-07
4.14752e-07
6.73611e-07
6.78097e-07
6.87229e-07
4.1832e-07
4.1707e-07
4.24712e-07
4.23649e-07
6.76738e-07
6.85236e-07
4.18771e-07
4.17749e-07
4.2514e-07
4.24108e-07
4.17856e-07
4.23259e-07
4.24285e-07
6.76264e-07
6.85577e-07
4.17374e-07
4.23998e-07
4.2396e-07
6.86243e-07
6.91181e-07
6.96488e-07
4.26675e-07
4.25723e-07
4.31436e-07
4.30717e-07
6.8919e-07
6.94703e-07
4.2709e-07
4.26079e-07
4.31671e-07
4.30788e-07
4.26277e-07
4.30298e-07
4.31148e-07
6.89479e-07
6.95144e-07
4.25967e-07
4.30686e-07
4.30672e-07
6.95147e-07
6.99692e-07
7.02212e-07
4.32808e-07
4.32107e-07
4.35986e-07
4.35376e-07
6.97938e-07
6.994e-07
4.32978e-07
4.32116e-07
4.36114e-07
4.35126e-07
4.32557e-07
4.34679e-07
4.35675e-07
6.98314e-07
6.99777e-07
4.31991e-07
4.35009e-07
4.35228e-07
7.00099e-07
7.05267e-07
7.06611e-07
4.36721e-07
4.36046e-07
4.38808e-07
4.38024e-07
7.02002e-07
7.03292e-07
4.36806e-07
4.35716e-07
4.38664e-07
4.37593e-07
4.3627e-07
4.37466e-07
4.38105e-07
7.02329e-07
7.03251e-07
4.35985e-07
4.37541e-07
4.38118e-07
7.03984e-07
7.09426e-07
7.0805e-07
4.3904e-07
4.38286e-07
4.39922e-07
4.39292e-07
7.06034e-07
7.06886e-07
4.38777e-07
4.37859e-07
4.39637e-07
4.38997e-07
4.38372e-07
4.39313e-07
4.39597e-07
7.05914e-07
7.07032e-07
4.38415e-07
4.39041e-07
4.39495e-07
7.06482e-07
7.10687e-07
7.08105e-07
4.39927e-07
4.39334e-07
4.40215e-07
4.39845e-07
7.09456e-07
7.08e-07
4.39792e-07
4.39015e-07
4.40635e-07
4.39498e-07
4.39656e-07
4.3994e-07
4.40667e-07
7.09206e-07
7.08177e-07
4.3946e-07
4.39659e-07
4.4025e-07
7.06705e-07
7.10609e-07
7.07978e-07
4.40278e-07
4.39861e-07
4.40721e-07
4.40505e-07
7.10536e-07
7.08117e-07
4.40681e-07
4.39491e-07
4.41304e-07
4.39762e-07
4.40765e-07
4.40299e-07
4.4132e-07
7.10648e-07
7.08471e-07
4.40331e-07
4.39989e-07
4.41044e-07
7.07083e-07
7.10531e-07
7.07989e-07
4.40658e-07
4.40668e-07
4.4115e-07
4.41458e-07
7.10711e-07
7.08106e-07
4.41187e-07
4.3985e-07
4.41532e-07
4.40507e-07
4.41359e-07
4.40838e-07
4.41637e-07
7.11038e-07
7.08635e-07
4.41137e-07
4.40451e-07
4.41754e-07
7.0726e-07
7.10541e-07
7.08104e-07
4.41126e-07
4.41551e-07
4.41451e-07
4.42023e-07
7.10643e-07
7.08017e-07
4.41531e-07
4.40663e-07
4.41808e-07
4.41339e-07
4.41705e-07
4.41491e-07
4.42051e-07
7.11189e-07
7.08677e-07
4.41777e-07
4.41121e-07
4.42189e-07
7.0722e-07
7.10669e-07
7.08364e-07
4.41561e-07
4.41975e-07
4.41936e-07
4.42244e-07
7.10554e-07
7.07807e-07
4.41814e-07
4.41386e-07
4.42153e-07
4.41727e-07
4.42053e-07
4.41881e-07
4.42485e-07
7.11226e-07
7.08894e-07
4.42235e-07
4.4184e-07
4.42677e-07
7.07719e-07
7.10959e-07
7.09161e-07
4.41975e-07
4.4226e-07
4.42458e-07
4.42516e-07
7.09637e-07
7.08012e-07
4.4217e-07
4.41735e-07
4.4264e-07
4.41998e-07
4.42485e-07
4.42346e-07
4.42967e-07
7.1145e-07
7.09564e-07
4.42728e-07
4.42326e-07
4.43208e-07
7.08714e-07
7.11153e-07
7.09461e-07
4.42492e-07
4.42546e-07
4.42818e-07
4.42909e-07
7.09933e-07
7.08696e-07
4.42563e-07
4.4198e-07
4.42888e-07
4.42247e-07
4.43005e-07
4.42804e-07
4.43538e-07
7.11445e-07
7.09385e-07
4.43097e-07
4.42772e-07
4.43613e-07
7.0938e-07
7.11349e-07
7.09906e-07
4.42864e-07
4.4293e-07
4.43264e-07
4.43011e-07
7.10651e-07
7.0874e-07
4.4297e-07
4.42265e-07
4.43103e-07
4.42559e-07
4.43552e-07
4.43256e-07
4.4374e-07
7.11249e-07
7.09575e-07
4.43668e-07
4.43045e-07
4.44056e-07
7.10397e-07
5.35663e-07
5.35601e-07
5.35656e-07
5.35656e-07
5.34547e-07
5.3551e-07
5.33113e-07
5.35656e-07
5.34552e-07
5.35509e-07
5.35656e-07
5.33487e-07
5.35253e-07
5.36232e-07
5.36378e-07
1.10631e-06
3.85409e-06
9.40208e-07
4.60566e-06
1.27639e-05
1.67107e-05
1.10559e-06
3.85099e-06
9.39064e-07
4.59278e-06
4.95569e-07
4.95569e-07
4.9557e-07
4.57238e-07
4.57237e-07
4.57237e-07
4.57238e-07
5.43589e-07
1.2334e-06
4.9558e-07
4.8559e-07
5.26084e-07
1.21445e-06
4.82316e-07
1.27514e-05
1.66725e-05
5.43395e-07
4.95578e-07
1.22993e-06
4.85587e-07
5.25944e-07
4.82312e-07
1.21438e-06
2.53882e-06
2.54785e-06
4.84336e-07
2.38469e-06
2.39041e-06
1.42719e-06
5.60084e-06
1.32955e-06
6.14796e-06
2.13705e-05
2.3179e-05
1.42758e-06
5.58447e-06
1.32958e-06
6.13427e-06
4.45583e-07
4.45584e-07
4.45585e-07
4.13566e-07
4.13563e-07
4.13563e-07
4.13564e-07
5.87475e-07
1.20031e-06
4.46481e-07
4.44464e-07
5.74462e-07
1.20994e-06
4.35746e-07
2.13391e-05
2.31581e-05
5.87446e-07
4.46479e-07
1.20062e-06
4.44463e-07
5.74394e-07
4.35749e-07
1.20865e-06
2.30595e-06
2.3095e-06
4.53748e-07
2.34528e-06
2.34805e-06
1.65858e-06
6.92582e-06
1.59169e-06
7.3312e-06
2.46689e-05
2.49527e-05
1.65857e-06
6.91675e-06
1.59143e-06
7.32377e-06
4.03775e-07
4.03775e-07
4.03776e-07
3.76723e-07
3.76716e-07
3.76717e-07
3.76718e-07
6.15384e-07
1.24725e-06
4.06616e-07
4.10791e-07
6.08199e-07
1.27109e-06
3.978e-07
2.4659e-05
2.49489e-05
6.15387e-07
4.06623e-07
1.24806e-06
4.1079e-07
6.08346e-07
3.97809e-07
1.26994e-06
2.46112e-06
2.46239e-06
4.30341e-07
2.52004e-06
2.52081e-06
1.80684e-06
7.85428e-06
1.76722e-06
8.1114e-06
2.47349e-05
2.44328e-05
1.80779e-06
7.84714e-06
1.7675e-06
8.10403e-06
3.6839e-07
3.68391e-07
3.68393e-07
3.45223e-07
3.45219e-07
3.45218e-07
3.45222e-07
6.25604e-07
1.31818e-06
3.73548e-07
3.8178e-07
6.2425e-07
1.33734e-06
3.66096e-07
2.47379e-05
2.44338e-05
6.25659e-07
3.73552e-07
1.31846e-06
3.8178e-07
6.24294e-07
3.66101e-07
1.33776e-06
2.62466e-06
2.62426e-06
4.08456e-07
2.66905e-06
2.66901e-06
1.88955e-06
8.40386e-06
1.869e-06
8.53989e-06
2.36815e-05
2.32637e-05
1.8894e-06
8.39594e-06
1.86801e-06
8.53311e-06
3.3804e-07
3.38039e-07
3.38044e-07
3.17938e-07
3.17931e-07
3.17931e-07
3.17938e-07
6.21211e-07
1.37708e-06
3.45297e-07
3.55989e-07
6.24487e-07
1.38998e-06
3.38817e-07
2.36831e-05
2.32677e-05
6.21251e-07
3.45295e-07
1.37739e-06
3.55989e-07
6.24524e-07
3.38816e-07
1.39046e-06
2.75572e-06
2.7576e-06
3.86705e-07
2.79957e-06
2.80152e-06
1.92582e-06
8.66864e-06
1.91831e-06
8.72369e-06
2.24913e-05
2.21194e-05
1.9258e-06
8.66393e-06
1.91787e-06
8.72046e-06
3.11662e-07
3.11663e-07
3.1167e-07
2.94018e-07
2.94006e-07
2.94009e-07
2.94015e-07
6.07772e-07
1.42067e-06
3.20525e-07
3.32672e-07
6.13997e-07
1.43025e-06
3.14771e-07
2.24944e-05
2.21237e-05
6.07796e-07
3.20521e-07
1.42088e-06
3.32677e-07
6.14046e-07
3.14769e-07
1.43029e-06
2.89244e-06
2.89444e-06
3.6517e-07
2.94021e-06
2.9412e-06
1.94362e-06
8.76134e-06
1.93969e-06
8.77156e-06
2.14696e-05
2.11787e-05
1.94403e-06
8.75995e-06
1.93982e-06
8.7713e-06
2.88474e-07
2.88478e-07
2.88484e-07
2.72837e-07
2.72827e-07
2.72832e-07
2.72835e-07
5.90704e-07
1.45533e-06
2.98412e-07
3.11491e-07
5.97861e-07
1.46595e-06
2.93237e-07
2.14721e-05
2.11815e-05
5.9072e-07
2.9841e-07
1.45653e-06
3.11497e-07
5.97872e-07
2.93238e-07
1.46558e-06
3.04751e-06
3.05088e-06
3.44646e-07
3.10506e-06
3.10573e-06
1.96172e-06
8.7663e-06
1.95591e-06
8.76073e-06
2.06704e-05
2.04518e-05
1.96241e-06
8.76726e-06
1.95629e-06
8.76221e-06
2.67907e-07
2.67911e-07
2.67914e-07
2.5395e-07
2.53948e-07
2.53951e-07
2.5395e-07
5.7431e-07
1.49505e-06
2.78474e-07
2.92315e-07
5.80769e-07
1.50678e-06
2.73792e-07
2.06726e-05
2.04542e-05
5.74319e-07
2.78472e-07
1.49392e-06
2.9232e-07
5.80793e-07
2.73793e-07
1.50622e-06
3.22598e-06
3.23011e-06
3.25797e-07
3.29133e-06
3.2912e-06
1.9918e-06
8.74405e-06
1.98178e-06
8.73859e-06
2.0071e-05
1.99107e-05
1.99383e-06
8.74592e-06
1.9824e-06
8.74034e-06
2.49547e-07
2.4955e-07
2.49548e-07
2.37032e-07
2.37038e-07
2.3704e-07
2.37035e-07
5.6161e-07
1.54144e-06
2.6042e-07
2.75107e-07
5.66403e-07
1.56102e-06
2.56179e-07
2.00733e-05
1.99128e-05
5.61744e-07
2.6042e-07
1.54314e-06
2.75106e-07
5.66399e-07
2.56181e-07
1.55883e-06
3.42518e-06
3.4265e-06
3.08941e-07
3.49178e-06
3.49385e-06
2.04442e-06
8.72853e-06
2.0243e-06
8.72698e-06
1.96316e-05
1.95176e-05
2.04258e-06
8.72956e-06
2.02532e-06
8.72822e-06
2.33088e-07
2.3309e-07
2.33085e-07
2.21839e-07
2.2185e-07
2.21852e-07
2.21847e-07
5.5554e-07
1.60281e-06
2.44077e-07
2.59868e-07
5.57537e-07
1.62729e-06
2.40243e-07
1.96341e-05
1.95188e-05
5.55499e-07
2.44073e-07
1.60439e-06
2.59856e-07
5.57587e-07
2.40241e-07
1.62517e-06
3.63163e-06
3.63478e-06
2.94388e-07
3.70242e-06
3.70217e-06
2.11915e-06
8.7269e-06
2.09064e-06
8.73023e-06
1.93185e-05
1.92391e-05
2.11924e-06
8.72803e-06
2.09248e-06
8.73141e-06
2.183e-07
2.18302e-07
2.18298e-07
2.08183e-07
2.08198e-07
2.08199e-07
2.08198e-07
5.56767e-07
1.68028e-06
2.2933e-07
2.46599e-07
5.55944e-07
1.70566e-06
2.25882e-07
1.93228e-05
1.92394e-05
5.56706e-07
2.2932e-07
1.67803e-06
2.46574e-07
5.55905e-07
2.25873e-07
1.70708e-06
3.84282e-06
3.84369e-06
2.82866e-07
3.90902e-06
3.91276e-06
2.21939e-06
8.73677e-06
2.18217e-06
8.74517e-06
1.91012e-05
1.90433e-05
2.21951e-06
8.73857e-06
2.1818e-06
8.74607e-06
2.05009e-07
2.05009e-07
2.05009e-07
1.95918e-07
1.95937e-07
1.95935e-07
1.95938e-07
5.66509e-07
1.76725e-06
2.16103e-07
2.35296e-07
5.62295e-07
1.80029e-06
2.13026e-07
1.91023e-05
1.9044e-05
5.6641e-07
2.16088e-07
1.76693e-06
2.3526e-07
5.62252e-07
2.13012e-07
1.8002e-06
4.04661e-06
4.04793e-06
2.74284e-07
4.1096e-06
4.11111e-06
2.3445e-06
8.75652e-06
2.29816e-06
8.76534e-06
1.89479e-05
1.89072e-05
2.34186e-06
8.75838e-06
2.2986e-06
8.76729e-06
1.93076e-07
1.93073e-07
1.93077e-07
1.84925e-07
1.84947e-07
1.84941e-07
1.84948e-07
5.85741e-07
1.86932e-06
2.04339e-07
2.25967e-07
5.78055e-07
1.90147e-06
2.01618e-07
1.89485e-05
1.89077e-05
5.85047e-07
2.04318e-07
1.86743e-06
2.25925e-07
5.78097e-07
2.01599e-07
1.90124e-06
4.23633e-06
4.23924e-06
2.68852e-07
4.29673e-06
4.29779e-06
2.49069e-06
8.7786e-06
2.43865e-06
8.78743e-06
1.88397e-05
1.88109e-05
2.48894e-06
8.7808e-06
2.44047e-06
8.78972e-06
1.82389e-07
1.82382e-07
1.8239e-07
1.7511e-07
1.75132e-07
1.75124e-07
1.75133e-07
6.14615e-07
1.9774e-06
1.93983e-07
2.18613e-07
6.03616e-07
2.01479e-06
1.91607e-07
1.88405e-05
1.88119e-05
6.14013e-07
1.93958e-07
1.97808e-06
2.18571e-07
6.04087e-07
1.91585e-07
2.01519e-06
4.41149e-06
4.41217e-06
2.66337e-07
4.46339e-06
4.46664e-06
2.65514e-06
8.80005e-06
2.59833e-06
8.8082e-06
1.87614e-05
1.87402e-05
2.65338e-06
8.80173e-06
2.5993e-06
8.811e-06
1.72856e-07
1.72848e-07
1.72856e-07
1.66393e-07
1.66415e-07
1.66405e-07
1.66413e-07
6.53382e-07
2.09229e-06
1.84991e-07
2.13241e-07
6.39708e-07
2.12997e-06
1.82949e-07
1.87607e-05
1.87434e-05
6.54031e-07
1.84964e-07
2.09045e-06
2.132e-07
6.3989e-07
1.82925e-07
2.12995e-06
4.56584e-06
4.56641e-06
2.66892e-07
4.61035e-06
4.61175e-06
2.82707e-06
8.81962e-06
2.76969e-06
8.82702e-06
1.87014e-05
1.86854e-05
2.82737e-06
8.82136e-06
2.77043e-06
8.82968e-06
1.64404e-07
1.64394e-07
1.64401e-07
1.5871e-07
1.58728e-07
1.58719e-07
1.58724e-07
7.03569e-07
2.20624e-06
1.77322e-07
2.09855e-07
6.86314e-07
2.24509e-06
1.75604e-07
1.87014e-05
1.86873e-05
7.03809e-07
1.77297e-07
2.20827e-06
2.09825e-07
6.86132e-07
1.75583e-07
2.24389e-06
4.69888e-06
4.70054e-06
2.70681e-07
4.73625e-06
4.73815e-06
3.00377e-06
8.83739e-06
2.94655e-06
8.84414e-06
1.8652e-05
1.86391e-05
3.00331e-06
8.839e-06
2.94663e-06
8.84662e-06
1.56967e-07
1.56957e-07
1.56962e-07
1.52006e-07
1.52018e-07
1.5201e-07
1.52013e-07
7.63401e-07
2.3219e-06
1.70947e-07
2.08469e-07
7.42076e-07
2.35929e-06
1.69548e-07
1.86534e-05
1.86409e-05
7.63287e-07
1.70925e-07
2.32278e-06
2.08453e-07
7.42626e-07
1.69532e-07
2.35745e-06
4.81078e-06
4.81142e-06
2.77986e-07
4.84375e-06
4.84515e-06
3.1739e-06
8.85374e-06
3.11821e-06
8.86022e-06
1.86093e-05
1.85978e-05
3.17366e-06
8.85523e-06
3.11815e-06
8.86236e-06
1.50494e-07
1.50486e-07
1.50488e-07
1.4623e-07
1.46237e-07
1.46232e-07
1.46232e-07
8.31177e-07
2.43139e-06
1.65849e-07
2.09122e-07
8.07668e-07
2.46534e-06
1.64766e-07
1.8611e-05
1.85998e-05
8.31167e-07
1.65834e-07
2.43308e-06
2.09121e-07
8.07849e-07
1.64757e-07
2.46614e-06
4.90454e-06
4.90597e-06
2.88129e-07
4.92976e-06
4.93104e-06
3.33017e-06
8.8685e-06
3.27932e-06
8.87532e-06
1.85705e-05
1.85606e-05
3.32942e-06
8.87051e-06
3.28044e-06
8.87728e-06
1.4494e-07
1.44936e-07
1.44934e-07
1.41349e-07
1.41349e-07
1.41349e-07
1.41346e-07
9.07125e-07
2.53657e-06
1.62024e-07
2.11831e-07
8.81449e-07
2.56924e-06
1.61257e-07
1.85724e-05
1.85623e-05
9.06561e-07
1.62016e-07
2.53588e-06
2.11844e-07
8.81878e-07
1.61255e-07
2.56741e-06
4.97988e-06
4.98157e-06
3.01992e-07
5.00275e-06
5.00441e-06
3.46734e-06
8.88294e-06
3.42474e-06
8.88937e-06
1.85351e-05
1.85258e-05
3.46752e-06
8.88497e-06
3.42454e-06
8.89138e-06
1.40272e-07
1.40272e-07
1.40267e-07
1.37329e-07
1.37325e-07
1.37328e-07
1.37324e-07
9.87797e-07
2.63183e-06
1.59478e-07
2.16626e-07
9.60713e-07
2.66251e-06
1.59024e-07
1.85366e-05
1.85273e-05
9.87881e-07
1.59474e-07
2.63338e-06
2.16648e-07
9.61495e-07
1.59025e-07
2.66128e-06
5.04258e-06
5.04433e-06
3.19684e-07
5.06127e-06
5.06303e-06
3.58445e-06
8.89646e-06
3.54901e-06
8.90201e-06
1.85016e-05
1.84927e-05
3.58562e-06
8.8984e-06
3.549e-06
8.9043e-06
1.36459e-07
1.36464e-07
1.36456e-07
1.34147e-07
1.34139e-07
1.34146e-07
1.3414e-07
1.07241e-06
2.71945e-06
1.5822e-07
2.23525e-07
1.04497e-06
2.74689e-06
1.58074e-07
1.85031e-05
1.84944e-05
1.07224e-06
1.5822e-07
2.72091e-06
2.23561e-07
1.04514e-06
1.58078e-07
2.74584e-06
5.09374e-06
5.09688e-06
3.40342e-07
5.10892e-06
5.10915e-06
3.68085e-06
8.90897e-06
3.65138e-06
8.91336e-06
1.84693e-05
1.84607e-05
3.68113e-06
8.91049e-06
3.65114e-06
8.91568e-06
1.33478e-07
1.33487e-07
1.33476e-07
1.31779e-07
1.31769e-07
1.3178e-07
1.31772e-07
1.15733e-06
2.79933e-06
1.58239e-07
2.3252e-07
1.12975e-06
2.82256e-06
1.58435e-07
1.84708e-05
1.84622e-05
1.15808e-06
1.58245e-07
2.79941e-06
2.32564e-07
1.13004e-06
1.5845e-07
2.82268e-06
5.13516e-06
5.13783e-06
3.64124e-07
5.14736e-06
5.14911e-06
3.75409e-06
8.91904e-06
3.73233e-06
8.92282e-06
1.84372e-05
1.84283e-05
3.75457e-06
8.92066e-06
3.73305e-06
8.92478e-06
1.31306e-07
1.31319e-07
1.31306e-07
1.30206e-07
1.30194e-07
1.30209e-07
1.30198e-07
1.2414e-06
2.86728e-06
1.59599e-07
2.43571e-07
1.21427e-06
2.88873e-06
1.60113e-07
1.84385e-05
1.84297e-05
1.24061e-06
1.59602e-07
2.86738e-06
2.43622e-07
1.21434e-06
1.60129e-07
2.88887e-06
5.16834e-06
5.17031e-06
3.90499e-07
5.1778e-06
5.17964e-06
3.80997e-06
8.9266e-06
3.7942e-06
8.92919e-06
1.84039e-05
1.83945e-05
3.81069e-06
8.92862e-06
3.79516e-06
8.93119e-06
1.29926e-07
1.29942e-07
1.29927e-07
1.29404e-07
1.29392e-07
1.29409e-07
1.29395e-07
1.3197e-06
2.92903e-06
1.6228e-07
2.56586e-07
1.29392e-06
2.94496e-06
1.63113e-07
1.84054e-05
1.8396e-05
1.31928e-06
1.62279e-07
2.92781e-06
2.56638e-07
1.29466e-06
1.63129e-07
2.94633e-06
5.19514e-06
5.19702e-06
4.18859e-07
5.20186e-06
5.20403e-06
3.85155e-06
8.93131e-06
3.84012e-06
8.93233e-06
1.83684e-05
1.83578e-05
3.85233e-06
8.93333e-06
3.84037e-06
8.93431e-06
1.29308e-07
1.29325e-07
1.2931e-07
1.29337e-07
1.29325e-07
1.29343e-07
1.29329e-07
1.38987e-06
2.98103e-06
1.66252e-07
2.71369e-07
1.36791e-06
2.9957e-06
1.67382e-07
1.83697e-05
1.83589e-05
1.39018e-06
1.66246e-07
2.98107e-06
2.71411e-07
1.36759e-06
1.67385e-07
2.99477e-06
5.21686e-06
5.21821e-06
4.50128e-07
5.22181e-06
5.22389e-06
3.88335e-06
8.93123e-06
3.87531e-06
8.93041e-06
1.83289e-05
1.83169e-05
3.88413e-06
8.93315e-06
3.87508e-06
8.93209e-06
1.29424e-07
1.2944e-07
1.2942e-07
1.29925e-07
1.29906e-07
1.29923e-07
1.29909e-07
1.45192e-06
3.02433e-06
1.71395e-07
2.87562e-07
1.43259e-06
3.03593e-06
1.72767e-07
1.83297e-05
1.83176e-05
1.45183e-06
1.71377e-07
3.02429e-06
2.87611e-07
1.43238e-06
1.7276e-07
3.03771e-06
5.23362e-06
5.23523e-06
4.80925e-07
5.23739e-06
5.23929e-06
3.90713e-06
8.92641e-06
3.90176e-06
8.92429e-06
1.82852e-05
1.82716e-05
3.90815e-06
8.92807e-06
3.90069e-06
8.92599e-06
1.30179e-07
1.30197e-07
1.30175e-07
1.31094e-07
1.31066e-07
1.31082e-07
1.3107e-07
1.50439e-06
3.06215e-06
1.77484e-07
3.047e-07
1.48831e-06
3.0722e-06
1.79022e-07
1.82853e-05
1.82715e-05
1.50449e-06
1.77458e-07
3.0621e-06
3.04767e-07
1.48812e-06
1.79013e-07
3.07128e-06
5.24654e-06
5.2484e-06
5.11327e-07
5.24919e-06
5.25127e-06
3.92424e-06
8.91768e-06
3.92057e-06
8.91435e-06
1.82371e-05
1.82227e-05
3.92526e-06
8.91965e-06
3.92022e-06
8.91634e-06
1.3147e-07
1.31487e-07
1.31467e-07
1.32698e-07
1.3265e-07
1.3266e-07
1.32656e-07
1.54848e-06
3.09162e-06
1.84248e-07
3.22236e-07
1.53584e-06
3.10065e-06
1.85881e-07
1.82372e-05
1.82231e-05
1.54981e-06
1.84214e-07
3.09287e-06
3.2229e-07
1.53565e-06
1.85853e-07
3.10097e-06
5.25565e-06
5.25796e-06
5.39559e-07
5.25706e-06
5.25943e-06
3.93525e-06
8.9066e-06
3.93289e-06
8.90282e-06
1.81883e-05
1.81747e-05
3.93616e-06
8.90873e-06
3.93374e-06
8.90528e-06
1.33145e-07
1.33154e-07
1.33144e-07
1.34567e-07
1.3449e-07
1.34487e-07
1.34501e-07
1.5857e-06
3.11659e-06
1.91406e-07