/*--------------------------------*- C++ -*----------------------------------*\
| =========                 |                                                 |
| \\      /  F ield         | OpenFOAM: The Open Source CFD Toolbox           |
|  \\    /   O peration     | Version:  v2012                                 |
|   \\  /    A nd           | Website:  www.openfoam.com                      |
|    \\/     M anipulation  |                                                 |
\*---------------------------------------------------------------------------*/
FoamFile
{
    version     2.0;
    format      ascii;
    class       volScalarField;
    location    "150";
    object      k;
}
// * * * * * * * * * * * * * * * * * * * * * * * * * * * * * * * * * * * * * //

dimensions      [0 2 -2 0 0 0 0];


internalField   nonuniform List<scalar> 
171728
(
1.34878e-05
2.18104e-05
2.76689e-05
2.18139e-05
2.18166e-05
2.17836e-05
2.75681e-05
6.99634e-05
6.9976e-05
5.98604e-05
1.34826e-05
6.87048e-05
5.34941e-05
6.87158e-05
6.87158e-05
6.30579e-05
6.30819e-05
5.35031e-05
5.34699e-05
1.65469e-05
4.21356e-05
6.99349e-05
5.98266e-05
1.65181e-05
5.34405e-05
4.20944e-05
6.30366e-05
6.30475e-05
6.87132e-05
6.99755e-05
6.99649e-05
7.54607e-05
6.97824e-05
6.97999e-05
6.99768e-05
7.5519e-05
7.55214e-05
6.97883e-05
6.93447e-05
5.98679e-05
6.42893e-05
6.89122e-05
6.42914e-05
6.89155e-05
6.93411e-05
6.87139e-05
6.87241e-05
6.87236e-05
6.40107e-05
5.01585e-05
6.30588e-05
6.93305e-05
6.93336e-05
5.01502e-05
6.4011e-05
6.40428e-05
5.01367e-05
6.3084e-05
6.93418e-05
6.93453e-05
5.01583e-05
6.40286e-05
8.95395e-05
7.14461e-05
7.14368e-05
7.14581e-05
7.14486e-05
8.95443e-05
6.9773e-05
6.99368e-05
7.54415e-05
7.54422e-05
6.97599e-05
6.93285e-05
5.98418e-05
6.89087e-05
6.42118e-05
6.89122e-05
6.4217e-05
6.93241e-05
6.40382e-05
5.01378e-05
6.30493e-05
6.93352e-05
6.93388e-05
5.0143e-05
6.40351e-05
6.39879e-05
5.01294e-05
6.30445e-05
6.93297e-05
5.01342e-05
6.93327e-05
6.39721e-05
8.95457e-05
7.1443e-05
7.14471e-05
7.14549e-05
7.14586e-05
8.95495e-05
6.87209e-05
6.99772e-05
1.16732e-05
4.96009e-05
3.7833e-05
3.78378e-05
2.76302e-05
3.78195e-05
3.78247e-05
4.96059e-05
4.96491e-05
3.78319e-05
3.78379e-05
2.75311e-05
3.78207e-05
3.7817e-05
4.96559e-05
1.16695e-05
3.48064e-05
4.08629e-05
5.34969e-05
5.00628e-05
4.08504e-05
5.0069e-05
3.48342e-05
3.48139e-05
4.08599e-05
5.35059e-05
5.00562e-05
5.00573e-05
4.08497e-05
3.48401e-05
3.47984e-05
4.08622e-05
5.34371e-05
5.00266e-05
5.00172e-05
4.08507e-05
3.48268e-05
3.09608e-05
4.21148e-05
4.54411e-05
2.84959e-05
4.54447e-05
2.84724e-05
3.09979e-05
3.47328e-05
4.08197e-05
5.34255e-05
4.99517e-05
4.99617e-05
4.0809e-05
3.47585e-05
3.08761e-05
4.20546e-05
2.84614e-05
4.53561e-05
2.84381e-05
4.53289e-05
3.09096e-05
3.58933e-05
3.58913e-05
3.58914e-05
3.59957e-05
3.39293e-05
3.38873e-05
3.38873e-05
3.39596e-05
3.21568e-05
3.20039e-05
3.20039e-05
3.19445e-05
3.05327e-05
3.02223e-05
3.02228e-05
2.99766e-05
2.90297e-05
2.85446e-05
2.85455e-05
2.81077e-05
2.76307e-05
2.69761e-05
2.69768e-05
2.63743e-05
2.6325e-05
2.55188e-05
2.55193e-05
2.47902e-05
2.51047e-05
2.4172e-05
2.41721e-05
2.33592e-05
2.39635e-05
2.2937e-05
2.29367e-05
2.20851e-05
2.28974e-05
2.18125e-05
2.18115e-05
2.09661e-05
2.19026e-05
2.07962e-05
2.07943e-05
1.99937e-05
2.09761e-05
1.9885e-05
1.98823e-05
1.91615e-05
2.0113e-05
1.90769e-05
1.90737e-05
1.8468e-05
1.93119e-05
1.83687e-05
1.83653e-05
1.79077e-05
1.8572e-05
1.77572e-05
1.77538e-05
1.74762e-05
1.78906e-05
1.72406e-05
1.72375e-05
1.71645e-05
1.72654e-05
1.68181e-05
1.68156e-05
1.6984e-05
1.66943e-05
1.6489e-05
1.64871e-05
1.69358e-05
1.61758e-05
1.62533e-05
1.6252e-05
1.70298e-05
1.57074e-05
1.61113e-05
1.61106e-05
1.72562e-05
1.52877e-05
1.60625e-05
1.60623e-05
1.76089e-05
1.49159e-05
1.61031e-05
1.61034e-05
1.80736e-05
1.45911e-05
1.62356e-05
1.6236e-05
1.86585e-05
1.43124e-05
1.64547e-05
1.64553e-05
1.93484e-05
1.40788e-05
1.67538e-05
1.67542e-05
2.0076e-05
1.38887e-05
1.71218e-05
1.71225e-05
2.08546e-05
1.37393e-05
1.75435e-05
1.75445e-05
2.1654e-05
1.36267e-05
1.80016e-05
1.80027e-05
2.24097e-05
1.35456e-05
1.84772e-05
1.84761e-05
2.31532e-05
1.34895e-05
1.89494e-05
1.89443e-05
2.3806e-05
1.34522e-05
1.94025e-05
1.93925e-05
2.43988e-05
1.34289e-05
1.98199e-05
1.98144e-05
2.49805e-05
1.34161e-05
2.01916e-05
2.02021e-05
2.54792e-05
1.34144e-05
2.05436e-05
2.05715e-05
2.59163e-05
1.34212e-05
2.08768e-05
2.091e-05
2.65037e-05
1.34315e-05
2.11596e-05
2.11854e-05
2.68831e-05
1.34388e-05
2.13648e-05
2.13775e-05
2.71228e-05
1.34433e-05
2.14915e-05
2.15014e-05
2.72506e-05
1.34438e-05
2.15892e-05
2.15893e-05
2.73095e-05
1.34424e-05
2.16568e-05
2.16508e-05
2.74044e-05
1.34426e-05
2.16831e-05
2.16741e-05
2.74087e-05
1.34453e-05
2.16981e-05
2.16841e-05
2.74779e-05
1.34503e-05
2.17207e-05
2.16995e-05
2.7456e-05
1.3456e-05
2.17486e-05
2.17305e-05
2.75173e-05
1.34634e-05
2.17655e-05
2.17626e-05
2.75664e-05
1.34723e-05
2.17834e-05
2.17851e-05
2.76051e-05
1.34811e-05
2.18042e-05
2.1801e-05
2.76436e-05
3.63062e-05
3.62907e-05
3.62907e-05
3.63061e-05
3.62907e-05
3.62907e-05
3.6423e-05
3.6423e-05
3.6423e-05
3.6423e-05
3.62907e-05
3.62907e-05
3.63062e-05
3.62907e-05
3.62908e-05
3.63062e-05
3.59957e-05
3.42663e-05
3.58914e-05
3.58914e-05
3.43756e-05
3.43754e-05
3.59957e-05
3.42665e-05
3.58914e-05
3.58914e-05
3.43753e-05
3.43754e-05
3.58914e-05
3.43754e-05
3.43754e-05
3.59958e-05
3.42665e-05
3.58913e-05
3.43754e-05
3.43753e-05
3.42665e-05
3.39594e-05
3.22562e-05
3.38876e-05
3.38873e-05
3.24646e-05
3.24649e-05
3.39596e-05
3.22566e-05
3.38872e-05
3.38873e-05
3.24648e-05
3.2465e-05
3.38873e-05
3.2465e-05
3.24651e-05
3.39597e-05
3.22572e-05
3.38873e-05
3.24649e-05
3.2465e-05
3.22565e-05
3.19442e-05
3.0288e-05
3.20033e-05
3.20038e-05
3.06574e-05
3.0658e-05
3.19445e-05
3.02878e-05
3.20038e-05
3.20041e-05
3.06583e-05
3.06585e-05
3.20041e-05
3.06582e-05
3.06583e-05
3.19453e-05
3.02888e-05
3.20039e-05
3.06586e-05
3.06583e-05
3.0288e-05
2.99766e-05
2.84102e-05
3.02213e-05
3.0222e-05
2.89515e-05
2.89535e-05
2.99764e-05
2.84112e-05
3.02224e-05
3.02224e-05
2.89542e-05
2.89538e-05
3.02221e-05
2.89539e-05
2.89521e-05
2.99774e-05
2.84116e-05
3.02223e-05
2.89547e-05
2.89539e-05
2.84107e-05
2.81072e-05
2.66566e-05
2.85415e-05
2.85442e-05
2.73533e-05
2.73572e-05
2.81084e-05
2.66583e-05
2.8545e-05
2.85444e-05
2.73581e-05
2.73576e-05
2.85421e-05
2.73577e-05
2.73537e-05
2.81088e-05
2.66593e-05
2.85446e-05
2.73586e-05
2.73577e-05
2.66568e-05
2.63743e-05
2.50496e-05
2.69714e-05
2.69755e-05
2.5868e-05
2.5872e-05
2.63761e-05
2.50491e-05
2.69764e-05
2.69759e-05
2.5873e-05
2.58724e-05
2.69717e-05
2.58727e-05
2.58679e-05
2.63763e-05
2.50494e-05
2.6976e-05
2.58733e-05
2.58725e-05
2.50469e-05
2.47894e-05
2.3594e-05
2.55141e-05
2.55179e-05
2.44935e-05
2.4497e-05
2.47928e-05
2.35944e-05
2.55189e-05
2.55184e-05
2.44977e-05
2.44974e-05
2.55138e-05
2.44982e-05
2.44926e-05
2.47931e-05
2.35955e-05
2.55185e-05
2.44984e-05
2.44977e-05
2.35921e-05
2.33589e-05
2.2293e-05
2.41673e-05
2.41707e-05
2.32303e-05
2.32335e-05
2.33635e-05
2.22942e-05
2.41713e-05
2.41711e-05
2.32334e-05
2.32338e-05
2.41662e-05
2.32352e-05
2.32289e-05
2.33622e-05
2.22945e-05
2.41715e-05
2.3235e-05
2.32344e-05
2.22908e-05
2.20837e-05
2.11467e-05
2.2932e-05
2.29352e-05
2.20781e-05
2.20812e-05
2.20893e-05
2.11496e-05
2.29349e-05
2.29355e-05
2.20802e-05
2.20815e-05
2.29306e-05
2.20834e-05
2.2077e-05
2.20878e-05
2.11485e-05
2.29361e-05
2.20826e-05
2.20823e-05
2.11474e-05
2.09642e-05
2.01479e-05
2.18072e-05
2.18103e-05
2.10345e-05
2.1038e-05
2.09701e-05
2.01525e-05
2.18091e-05
2.18106e-05
2.1036e-05
2.10381e-05
2.18063e-05
2.10403e-05
2.10346e-05
2.09688e-05
2.01506e-05
2.18114e-05
2.10386e-05
2.10392e-05
2.01503e-05
1.99905e-05
1.92907e-05
2.07903e-05
2.0794e-05
2.00971e-05
2.01011e-05
1.99965e-05
1.92961e-05
2.07917e-05
2.0794e-05
2.00982e-05
2.01008e-05
2.07907e-05
2.01031e-05
2.00984e-05
1.99943e-05
1.92933e-05
2.07952e-05
2.01006e-05
2.01023e-05
1.92942e-05
1.91577e-05
1.85646e-05
1.9879e-05
1.98831e-05
1.92635e-05
1.92677e-05
1.91631e-05
1.85698e-05
1.988e-05
1.98827e-05
1.92644e-05
1.92669e-05
1.98805e-05
1.92694e-05
1.92655e-05
1.91604e-05
1.85666e-05
1.98842e-05
1.92663e-05
1.92687e-05
1.85682e-05
1.84642e-05
1.79687e-05
1.90711e-05
1.90753e-05
1.8531e-05
1.85351e-05
1.84693e-05
1.79735e-05
1.9072e-05
1.90744e-05
1.85319e-05
1.85339e-05
1.90732e-05
1.85366e-05
1.85333e-05
1.84662e-05
1.79702e-05
1.90763e-05
1.85333e-05
1.85361e-05
1.7972e-05
1.79045e-05
1.75065e-05
1.83632e-05
1.83673e-05
1.7896e-05
1.78999e-05
1.79092e-05
1.75107e-05
1.83641e-05
1.8366e-05
1.78969e-05
1.78983e-05
1.83654e-05
1.79013e-05
1.78982e-05
1.79058e-05
1.75076e-05
1.83681e-05
1.78978e-05
1.79008e-05
1.7509e-05
1.74737e-05
1.71817e-05
1.7752e-05
1.77558e-05
1.73563e-05
1.73596e-05
1.74775e-05
1.71843e-05
1.77529e-05
1.77542e-05
1.7357e-05
1.73579e-05
1.77541e-05
1.7361e-05
1.73579e-05
1.74745e-05
1.71829e-05
1.77566e-05
1.73578e-05
1.73605e-05
1.71832e-05
1.71632e-05
1.69843e-05
1.72362e-05
1.72394e-05
1.6911e-05
1.69136e-05
1.71659e-05
1.69873e-05
1.72369e-05
1.72377e-05
1.69117e-05
1.69121e-05
1.72377e-05
1.69148e-05
1.6912e-05
1.71634e-05
1.69842e-05
1.72402e-05
1.69121e-05
1.69146e-05
1.69842e-05
1.69798e-05
1.69278e-05
1.68147e-05
1.68171e-05
1.65593e-05
1.65611e-05
1.69801e-05
1.69283e-05
1.68154e-05
1.68156e-05
1.656e-05
1.65598e-05
1.68154e-05
1.65621e-05
1.65595e-05
1.69795e-05
1.69271e-05
1.68179e-05
1.65599e-05
1.65621e-05
1.69264e-05
1.69361e-05
1.69943e-05
1.64866e-05
1.64882e-05
1.63009e-05
1.63019e-05
1.69367e-05
1.69933e-05
1.64873e-05
1.6487e-05
1.63016e-05
1.63009e-05
1.64866e-05
1.63027e-05
1.63005e-05
1.69355e-05
1.69933e-05
1.64891e-05
1.63011e-05
1.6303e-05
1.69938e-05
1.703e-05
1.71862e-05
1.62519e-05
1.62528e-05
1.61357e-05
1.61362e-05
1.70303e-05
1.71875e-05
1.62526e-05
1.62518e-05
1.61363e-05
1.61354e-05
1.62513e-05
1.61367e-05
1.61348e-05
1.70293e-05
1.71882e-05
1.62537e-05
1.61358e-05
1.61373e-05
1.71867e-05
1.72576e-05
1.75149e-05
1.61105e-05
1.6111e-05
1.60634e-05
1.60638e-05
1.72543e-05
1.75157e-05
1.61111e-05
1.61102e-05
1.6064e-05
1.60632e-05
1.61095e-05
1.60641e-05
1.60623e-05
1.72542e-05
1.75138e-05
1.6112e-05
1.60637e-05
1.60649e-05
1.75144e-05
1.76095e-05
1.79677e-05
1.6062e-05
1.60624e-05
1.60859e-05
1.60862e-05
1.76094e-05
1.79802e-05
1.60626e-05
1.60619e-05
1.60864e-05
1.60857e-05
1.60609e-05
1.6086e-05
1.60855e-05
1.76096e-05
1.79669e-05
1.60634e-05
1.60859e-05
1.6088e-05
1.79794e-05
1.80879e-05
1.85315e-05
1.61026e-05
1.61027e-05
1.61973e-05
1.61976e-05
1.80735e-05
1.85476e-05
1.61031e-05
1.61024e-05
1.61977e-05
1.61973e-05
1.61009e-05
1.61965e-05
1.61964e-05
1.80865e-05
1.85324e-05
1.61031e-05
1.61966e-05
1.61986e-05
1.85471e-05
1.86741e-05
1.92102e-05
1.62353e-05
1.62354e-05
1.6396e-05
1.63964e-05
1.86602e-05
1.91901e-05
1.62357e-05
1.62353e-05
1.63964e-05
1.63964e-05
1.62334e-05
1.63947e-05
1.63953e-05
1.86744e-05
1.921e-05
1.62353e-05
1.63951e-05
1.6397e-05
1.9182e-05
1.93399e-05
1.99469e-05
1.64543e-05
1.64546e-05
1.6677e-05
1.66772e-05
1.93523e-05
1.99199e-05
1.64547e-05
1.64547e-05
1.66776e-05
1.66775e-05
1.64523e-05
1.66748e-05
1.6676e-05
1.93368e-05
1.99425e-05
1.64539e-05
1.66751e-05
1.66776e-05
1.99397e-05
2.00869e-05
2.07288e-05
1.67537e-05
1.67536e-05
1.70311e-05
1.70306e-05
2.00969e-05
2.07149e-05
1.67541e-05
1.67539e-05
1.70318e-05
1.70309e-05
1.67509e-05
1.70273e-05
1.70296e-05
2.00803e-05
2.06911e-05
1.67522e-05
1.70276e-05
1.70305e-05
2.07167e-05
2.0871e-05
2.15131e-05
1.71226e-05
1.71218e-05
1.74439e-05
1.74424e-05
2.08669e-05
2.14987e-05
1.7123e-05
1.71221e-05
1.74444e-05
1.74425e-05
1.71189e-05
1.74376e-05
1.74416e-05
2.08788e-05
2.1481e-05
1.71198e-05
1.74385e-05
1.74421e-05
2.15155e-05
2.16558e-05
2.22604e-05
1.75464e-05
1.75443e-05
1.78987e-05
1.78958e-05
2.16536e-05
2.2263e-05
1.75468e-05
1.75443e-05
1.78995e-05
1.78954e-05
1.7542e-05
1.7889e-05
1.7895e-05
2.16639e-05
2.22572e-05
1.75421e-05
1.789e-05
1.78948e-05
2.22374e-05
2.24637e-05
2.30312e-05
1.80078e-05
1.8004e-05
1.83768e-05
1.83721e-05
2.24118e-05
2.29629e-05
1.80088e-05
1.80034e-05
1.8379e-05
1.837e-05
1.80015e-05
1.83621e-05
1.83707e-05
2.24153e-05
2.29611e-05
1.80009e-05
1.83617e-05
1.83706e-05
2.30091e-05
2.31769e-05
2.36849e-05
1.84873e-05
1.8482e-05
1.88554e-05
1.88499e-05
2.31459e-05
2.36406e-05
1.849e-05
1.84793e-05
1.88617e-05
1.88464e-05
1.84791e-05
1.88371e-05
1.88491e-05
2.31294e-05
2.36167e-05
1.84783e-05
1.88331e-05
1.88484e-05
2.36404e-05
2.38425e-05
2.42631e-05
1.89629e-05
1.89557e-05
1.93191e-05
1.93109e-05
2.37956e-05
2.42726e-05
1.897e-05
1.89529e-05
1.93303e-05
1.93061e-05
1.89541e-05
1.92961e-05
1.93125e-05
2.37894e-05
2.42011e-05
1.89532e-05
1.92878e-05
1.93112e-05
2.42798e-05
2.44225e-05
2.48285e-05
1.94198e-05
1.94093e-05
1.97556e-05
1.9737e-05
2.43943e-05
2.48022e-05
1.94319e-05
1.94053e-05
1.97718e-05
1.97363e-05
1.94116e-05
1.97252e-05
1.97549e-05
2.43806e-05
2.47346e-05
1.94084e-05
1.97169e-05
1.97449e-05
2.48052e-05
2.49583e-05
2.53659e-05
1.9849e-05
1.98254e-05
2.01599e-05
2.01216e-05
2.49241e-05
2.52853e-05
1.98644e-05
1.98276e-05
2.01737e-05
2.01315e-05
1.98465e-05
2.01062e-05
2.01596e-05
2.49066e-05
2.52927e-05
1.98342e-05
2.01122e-05
2.01422e-05
2.53691e-05
2.5464e-05
2.58621e-05
2.02443e-05
2.02017e-05
2.05323e-05
2.0479e-05
2.54191e-05
2.57145e-05
2.02573e-05
2.02148e-05
2.05442e-05
2.05015e-05
2.02406e-05
2.04603e-05
2.05225e-05
2.53996e-05
2.57279e-05
2.02217e-05
2.04851e-05
2.05016e-05
2.58339e-05
2.59723e-05
2.64249e-05
2.06111e-05
2.05569e-05
2.08776e-05
2.0824e-05
2.58793e-05
2.63325e-05
2.06229e-05
2.05805e-05
2.08945e-05
2.08502e-05
2.05962e-05
2.07997e-05
2.08601e-05
2.58817e-05
2.63713e-05
2.05757e-05
2.08345e-05
2.0842e-05
2.63684e-05
2.65656e-05
2.68536e-05
2.09473e-05
2.08944e-05
2.11667e-05
2.11201e-05
2.64654e-05
2.67618e-05
2.09637e-05
2.09198e-05
2.11823e-05
2.11407e-05
2.09262e-05
2.10992e-05
2.11478e-05
2.65173e-05
2.68305e-05
2.09112e-05
2.11296e-05
2.11411e-05
2.67891e-05
2.69488e-05
2.71027e-05
2.12175e-05
2.11751e-05
2.138e-05
2.13463e-05
2.68649e-05
2.7039e-05
2.12321e-05
2.11911e-05
2.13871e-05
2.1351e-05
2.11986e-05
2.13237e-05
2.13683e-05
2.69248e-05
2.70745e-05
2.11915e-05
2.13405e-05
2.13528e-05
2.70469e-05
2.71778e-05
2.72691e-05
2.14169e-05
2.13846e-05
2.15291e-05
2.14988e-05
2.71144e-05
2.71658e-05
2.14219e-05
2.13858e-05
2.15328e-05
2.14869e-05
2.1405e-05
2.14678e-05
2.15136e-05
2.71452e-05
2.71863e-05
2.13875e-05
2.14785e-05
2.15014e-05
2.71927e-05
2.73444e-05
2.74055e-05
2.15526e-05
2.15212e-05
2.16271e-05
2.15916e-05
2.7219e-05
2.72791e-05
2.15564e-05
2.15061e-05
2.16245e-05
2.15701e-05
2.15322e-05
2.15679e-05
2.15972e-05
2.7241e-05
2.72852e-05
2.15244e-05
2.15726e-05
2.15994e-05
2.7251e-05
2.74711e-05
2.7505e-05
2.16431e-05
2.1607e-05
2.16761e-05
2.16471e-05
2.73548e-05
2.74584e-05
2.16355e-05
2.15844e-05
2.16646e-05
2.16283e-05
2.1609e-05
2.16469e-05
2.16549e-05
2.73557e-05
2.74574e-05
2.16144e-05
2.16428e-05
2.16554e-05
2.74079e-05
2.75547e-05
2.74698e-05
2.16837e-05
2.16556e-05
2.16896e-05
2.16698e-05
2.7519e-05
2.74665e-05
2.16714e-05
2.16376e-05
2.16949e-05
2.16536e-05
2.16635e-05
2.168e-05
2.16958e-05
2.75199e-05
2.75322e-05
2.16627e-05
2.16715e-05
2.16821e-05
2.73529e-05
2.75165e-05
2.75075e-05
2.169e-05
2.16729e-05
2.17002e-05
2.16908e-05
2.75104e-05
2.75109e-05
2.17017e-05
2.16562e-05
2.17254e-05
2.1663e-05
2.17037e-05
2.16953e-05
2.17267e-05
2.75815e-05
2.75578e-05
2.16878e-05
2.16823e-05
2.1714e-05
2.74276e-05
2.75536e-05
2.75324e-05
2.17043e-05
2.16975e-05
2.17229e-05
2.17276e-05
2.75596e-05
2.74858e-05
2.17313e-05
2.1665e-05
2.17398e-05
2.1686e-05
2.17328e-05
2.17162e-05
2.17428e-05
2.75967e-05
2.75675e-05
2.17208e-05
2.1696e-05
2.17436e-05
2.74126e-05
2.75759e-05
2.75501e-05
2.17279e-05
2.17367e-05
2.17392e-05
2.17588e-05
2.75345e-05
2.75296e-05
2.17412e-05
2.16934e-05
2.17495e-05
2.17252e-05
2.1745e-05
2.17447e-05
2.17561e-05
2.76093e-05
2.75727e-05
2.17484e-05
2.17241e-05
2.17634e-05
2.74676e-05
2.75939e-05
2.75681e-05
2.17435e-05
2.17639e-05
2.17567e-05
2.17687e-05
2.75216e-05
2.74315e-05
2.17536e-05
2.17343e-05
2.17647e-05
2.17495e-05
2.17605e-05
2.17629e-05
2.17744e-05
2.76179e-05
2.75878e-05
2.17676e-05
2.17581e-05
2.17836e-05
2.75178e-05
2.76118e-05
2.75886e-05
2.17611e-05
2.17699e-05
2.17769e-05
2.1778e-05
2.74828e-05
2.74995e-05
2.17673e-05
2.17516e-05
2.1783e-05
2.17585e-05
2.17783e-05
2.17803e-05
2.17962e-05
2.76297e-05
2.76026e-05
2.1788e-05
2.17822e-05
2.18039e-05
2.75581e-05
2.76334e-05
2.76047e-05
2.17818e-05
2.17823e-05
2.1797e-05
2.1793e-05
2.75501e-05
2.75531e-05
2.17881e-05
2.17618e-05
2.18008e-05
2.17704e-05
2.18011e-05
2.18007e-05
2.18186e-05
2.75932e-05
2.75566e-05
2.18088e-05
2.17985e-05
2.18247e-05
2.75962e-05
2.76481e-05
2.76244e-05
2.18e-05
2.17972e-05
2.18108e-05
2.18092e-05
2.76016e-05
2.74864e-05
2.18045e-05
2.17736e-05
2.18161e-05
2.17822e-05
2.18237e-05
2.1816e-05
2.18387e-05
2.76032e-05
2.75253e-05
2.18281e-05
2.18116e-05
2.18417e-05
2.76315e-05
3.73774e-05
3.73766e-05
3.7377e-05
3.7377e-05
3.73703e-05
3.73777e-05
3.73045e-05
3.73769e-05
3.73703e-05
3.73777e-05
3.73769e-05
3.73047e-05
3.73741e-05
3.7297e-05
3.7297e-05
3.58585e-05
4.07764e-05
3.66023e-05
4.51221e-05
5.51745e-05
6.51922e-05
3.58646e-05
4.0766e-05
3.66053e-05
4.50571e-05
3.58933e-05
3.58933e-05
3.58933e-05
3.44001e-05
3.44001e-05
3.44001e-05
3.44001e-05
3.52703e-05
3.55983e-05
3.58931e-05
3.53765e-05
3.60484e-05
3.41753e-05
3.53821e-05
5.51559e-05
6.50851e-05
3.52715e-05
3.58931e-05
3.56015e-05
3.53765e-05
3.60486e-05
3.53821e-05
3.41743e-05
3.65746e-05
3.6537e-05
3.52783e-05
3.40095e-05
3.39887e-05
3.39368e-05
5.13991e-05
3.46677e-05
5.46972e-05
7.67464e-05
8.10208e-05
3.39356e-05
5.12959e-05
3.46648e-05
5.46091e-05
3.39293e-05
3.39293e-05
3.39293e-05
3.25847e-05
3.25847e-05
3.25847e-05
3.25847e-05
3.30411e-05
3.24304e-05
3.3929e-05
3.34065e-05
3.38883e-05
3.15222e-05
3.34671e-05
7.66703e-05
8.09669e-05
3.3038e-05
3.3929e-05
3.24275e-05
3.34064e-05
3.38868e-05
3.3467e-05
3.15232e-05
3.16437e-05
3.1634e-05
3.32592e-05
3.08319e-05
3.08233e-05
3.22263e-05
5.92173e-05
3.29063e-05
6.15038e-05
8.44569e-05
8.51035e-05
3.22197e-05
5.91595e-05
3.28997e-05
6.14578e-05
3.21568e-05
3.21569e-05
3.21569e-05
3.09265e-05
3.09265e-05
3.09266e-05
3.09266e-05
3.07737e-05
3.04728e-05
3.21361e-05
3.15491e-05
3.16259e-05
2.9845e-05
3.17083e-05
8.44286e-05
8.50893e-05
3.07712e-05
3.21358e-05
3.04756e-05
3.15492e-05
3.16215e-05
3.1708e-05
2.98522e-05
3.01606e-05
3.01466e-05
3.12638e-05
2.99456e-05
2.99274e-05
3.07382e-05
6.43926e-05
3.13348e-05
6.57891e-05
8.46155e-05
8.39182e-05
3.07312e-05
6.43518e-05
3.13248e-05
6.57483e-05
3.05328e-05
3.05329e-05
3.05328e-05
2.93952e-05
2.93953e-05
2.93954e-05
2.93952e-05
2.85788e-05
2.91067e-05
3.04665e-05
2.97928e-05
2.93986e-05
2.86373e-05
3.00654e-05
8.46011e-05
8.39146e-05
2.85814e-05
3.04665e-05
2.91129e-05
2.97934e-05
2.93997e-05
3.00655e-05
2.86524e-05
2.99065e-05
2.98945e-05
2.93353e-05
3.00053e-05
3.0008e-05
2.95026e-05
6.73622e-05
2.9985e-05
6.80877e-05
8.2188e-05
8.12185e-05
2.94939e-05
6.73178e-05
2.99765e-05
6.80484e-05
2.903e-05
2.90301e-05
2.90297e-05
2.79713e-05
2.79719e-05
2.79721e-05
2.79713e-05
2.6541e-05
2.80949e-05
2.88979e-05
2.8142e-05
2.73e-05
2.77526e-05
2.85204e-05
8.21858e-05
8.1222e-05
2.65437e-05
2.88984e-05
2.80948e-05
2.81429e-05
2.73026e-05
2.85209e-05
2.77619e-05
3.04382e-05
3.04417e-05
2.75172e-05
3.07597e-05
3.07755e-05
2.85775e-05
6.87719e-05
2.89295e-05
6.90627e-05
7.94104e-05
7.85327e-05
2.85781e-05
6.87423e-05
2.89281e-05
6.9041e-05
2.76314e-05
2.76316e-05
2.76307e-05
2.66431e-05
2.66439e-05
2.66441e-05
2.66431e-05
2.47171e-05
2.73706e-05
2.74221e-05
2.66013e-05
2.53987e-05
2.71617e-05
2.70673e-05
7.94126e-05
7.85386e-05
2.47184e-05
2.74228e-05
2.73774e-05
2.6602e-05
2.53999e-05
2.70679e-05
2.71664e-05
3.16035e-05
3.16107e-05
2.5833e-05
3.21031e-05
3.21238e-05
2.80254e-05
6.92646e-05
2.82226e-05
6.93144e-05
7.69867e-05
7.62894e-05
2.8033e-05
6.92525e-05
2.82266e-05
6.93076e-05
2.63259e-05
2.6326e-05
2.6325e-05
2.54021e-05
2.54029e-05
2.5403e-05
2.54019e-05
2.31407e-05
2.69688e-05
2.60368e-05
2.51716e-05
2.37362e-05
2.68935e-05
2.57044e-05
7.69883e-05
7.62925e-05
2.31416e-05
2.60373e-05
2.69676e-05
2.5172e-05
2.37364e-05
2.57048e-05
2.68948e-05
3.32531e-05
3.32647e-05
2.43e-05
3.38842e-05
3.39081e-05
2.78889e-05
6.92904e-05
2.79004e-05
6.92552e-05
7.50649e-05
7.45344e-05
2.78973e-05
6.92898e-05
2.79081e-05
6.92578e-05
2.51055e-05
2.51056e-05
2.51045e-05
2.42416e-05
2.42425e-05
2.42425e-05
2.42413e-05
2.18281e-05
2.69144e-05
2.47407e-05
2.38527e-05
2.23306e-05
2.69591e-05
2.44304e-05
7.50657e-05
7.45341e-05
2.18286e-05
2.4741e-05
2.69148e-05
2.38527e-05
2.23307e-05
2.44306e-05
2.69652e-05
3.52609e-05
3.52768e-05
2.29216e-05
3.59937e-05
3.60109e-05
2.81412e-05
6.91748e-05
2.80192e-05
6.91378e-05
7.3604e-05
7.32091e-05
2.81478e-05
6.91806e-05
2.8026e-05
6.91433e-05
2.39645e-05
2.39645e-05
2.39633e-05
2.3157e-05
2.31582e-05
2.31581e-05
2.31569e-05
2.07885e-05
2.71942e-05
2.35324e-05
2.26456e-05
2.11892e-05
2.73397e-05
2.32435e-05
7.36072e-05
7.32133e-05
2.07876e-05
2.35326e-05
2.71808e-05
2.26451e-05
2.11887e-05
2.32436e-05
2.73466e-05
3.7524e-05
3.75339e-05
2.16999e-05
3.83149e-05
3.83206e-05
2.88118e-05
6.90887e-05
2.85537e-05
6.90805e-05
7.25298e-05
7.22434e-05
2.88144e-05
6.90933e-05
2.85562e-05
6.9083e-05
2.28987e-05
2.28986e-05
2.28973e-05
2.21447e-05
2.21463e-05
2.2146e-05
2.21449e-05
2.00175e-05
2.7781e-05
2.2408e-05
2.15484e-05
2.031e-05
2.80282e-05
2.21399e-05
7.25338e-05
7.2251e-05
2.00156e-05
2.2408e-05
2.77635e-05
2.15472e-05
2.03086e-05
2.21397e-05
2.80318e-05
3.99191e-05
3.9926e-05
2.06308e-05
4.07306e-05
4.07368e-05
2.98976e-05
6.90804e-05
2.94991e-05
6.90976e-05
7.17589e-05
7.15575e-05
2.98977e-05
6.90821e-05
2.9499e-05
6.90994e-05
2.19043e-05
2.1904e-05
2.1903e-05
2.12014e-05
2.12033e-05
2.12028e-05
2.12021e-05
1.95117e-05
2.86522e-05
2.13672e-05
2.05587e-05
1.96917e-05
2.89885e-05
2.11201e-05
7.17556e-05
7.15599e-05
1.95089e-05
2.13668e-05
2.86307e-05
2.05565e-05
1.96889e-05
2.11194e-05
2.89873e-05
4.2348e-05
4.23556e-05
1.97054e-05
4.31532e-05
4.31563e-05
3.13837e-05
6.91366e-05
3.0854e-05
6.91735e-05
7.12093e-05
7.10771e-05
3.13843e-05
6.91381e-05
3.08495e-05
6.91792e-05
2.09782e-05
2.09776e-05
2.09771e-05
2.03231e-05
2.03254e-05
2.03246e-05
2.03244e-05
1.92626e-05
2.97789e-05
2.04096e-05
1.96733e-05
1.93412e-05
3.01856e-05
2.01828e-05
7.12079e-05
7.10752e-05
1.92617e-05
2.04086e-05
2.97632e-05
1.96705e-05
1.9334e-05
2.01816e-05
3.01895e-05
4.47247e-05
4.47326e-05
1.8915e-05
4.54902e-05
4.55007e-05
3.32402e-05
6.92328e-05
3.25925e-05
6.92858e-05
7.08275e-05
7.07388e-05
3.32462e-05
6.92382e-05
3.25929e-05
6.92921e-05
2.01154e-05
2.01145e-05
2.01144e-05
1.95063e-05
1.95088e-05
1.95076e-05
1.9508e-05
1.92767e-05
3.11069e-05
1.95322e-05
1.88907e-05
1.92523e-05
3.15993e-05
1.9325e-05
7.08247e-05
7.07363e-05
1.92783e-05
1.95308e-05
3.11054e-05
1.88874e-05
1.92475e-05
1.93234e-05
3.15812e-05
4.69785e-05
4.69917e-05
1.82537e-05
4.76939e-05
4.77043e-05
3.54294e-05
6.93495e-05
3.46772e-05
6.94022e-05
7.05574e-05
7.04986e-05
3.54361e-05
6.93565e-05
3.46779e-05
6.94098e-05
1.93145e-05
1.93132e-05
1.93137e-05
1.87514e-05
1.87539e-05
1.87525e-05
1.87532e-05
1.95439e-05
3.26101e-05
1.8732e-05
1.82071e-05
1.94355e-05
3.31445e-05
1.85437e-05
7.05547e-05
7.04968e-05
1.95446e-05
1.87302e-05
3.26183e-05
1.82036e-05
1.94259e-05
1.85418e-05
3.31349e-05
4.9065e-05
4.90783e-05
1.77236e-05
4.97154e-05
4.97272e-05
3.78581e-05
6.94627e-05
3.70341e-05
6.95114e-05
7.03616e-05
7.03208e-05
3.78635e-05
6.94732e-05
3.70361e-05
6.95164e-05
1.85746e-05
1.85731e-05
1.85739e-05
1.80556e-05
1.8058e-05
1.80564e-05
1.80574e-05
2.00652e-05
3.42264e-05
1.80064e-05
1.76193e-05
1.98718e-05
3.47891e-05
1.78364e-05
7.0365e-05
7.03144e-05
2.00705e-05
1.80044e-05
3.42423e-05
1.76159e-05
1.98646e-05
1.78344e-05
3.47931e-05
5.09539e-05
5.09661e-05
1.73295e-05
5.15342e-05
5.15458e-05
4.04348e-05
6.9566e-05
3.9571e-05
6.96099e-05
7.02145e-05
7.01792e-05
4.04442e-05
6.95765e-05
3.95747e-05
6.96148e-05
1.78931e-05
1.78914e-05
1.78924e-05
1.74166e-05
1.74187e-05
1.74171e-05
1.74181e-05
2.08318e-05
3.59182e-05
1.7353e-05
1.71262e-05
2.05603e-05
3.64749e-05
1.72007e-05
7.0217e-05
7.01774e-05
2.08395e-05
1.73511e-05
3.59195e-05
1.71232e-05
2.05524e-05
1.71989e-05
3.64919e-05
5.26329e-05
5.26426e-05
1.70691e-05
5.31443e-05
5.31525e-05
4.30516e-05
6.96594e-05
4.21751e-05
6.96999e-05
7.00931e-05
7.00619e-05
4.30709e-05
6.9669e-05
4.21635e-05
6.97041e-05
1.72676e-05
1.7266e-05
1.72669e-05
1.68322e-05
1.68339e-05
1.68323e-05
1.68333e-05
2.18366e-05
3.76217e-05
1.67709e-05
1.67268e-05
2.14872e-05
3.81742e-05
1.66363e-05
7.00941e-05
7.00621e-05
2.18365e-05
1.67693e-05
3.76212e-05
1.67244e-05
2.14829e-05
1.66348e-05
3.81784e-05
5.41054e-05
5.41136e-05
1.69375e-05
5.45519e-05
5.45575e-05
4.55938e-05
6.97455e-05
4.47267e-05
6.97827e-05
6.99867e-05
6.99587e-05
4.56102e-05
6.97538e-05
4.47178e-05
6.9787e-05
1.6696e-05
1.66945e-05
1.66954e-05
1.63007e-05
1.63019e-05
1.63006e-05
1.63014e-05
2.30558e-05
3.92989e-05
1.62579e-05
1.64207e-05
2.26381e-05
3.98366e-05
1.61405e-05
6.99874e-05
6.99597e-05
2.3058e-05
1.62567e-05
3.93022e-05
1.64188e-05
2.26382e-05
1.61394e-05
3.984e-05
5.53887e-05
5.53955e-05
1.6944e-05
5.57748e-05
5.57821e-05
4.79575e-05
6.98282e-05
4.71418e-05
6.98593e-05
6.98899e-05
6.98646e-05
4.79718e-05
6.98342e-05
4.71356e-05
6.98653e-05
1.6177e-05
1.61758e-05
1.61764e-05
1.58203e-05
1.5821e-05
1.582e-05
1.58206e-05
2.44636e-05
4.09114e-05
1.58128e-05
1.6208e-05
2.3983e-05
4.14309e-05
1.57124e-05
6.98905e-05
6.98653e-05
2.44626e-05
1.58119e-05
4.09193e-05
1.62067e-05
2.39855e-05
1.57117e-05
4.14326e-05
5.65021e-05
5.65089e-05
1.70743e-05
5.68373e-05
5.68462e-05
5.00809e-05
6.99036e-05
4.93429e-05
6.99329e-05
6.98006e-05
6.97774e-05
5.00936e-05
6.991e-05
4.93388e-05
6.99391e-05
1.57083e-05
1.57073e-05
1.57077e-05
1.5389e-05
1.53893e-05
1.53885e-05
1.5389e-05
2.60098e-05
4.24497e-05
1.54351e-05
1.60888e-05
2.5489e-05
4.29364e-05
1.53518e-05
6.98008e-05
6.97775e-05
2.60157e-05
1.54345e-05
4.24532e-05
1.60882e-05
2.54864e-05
1.53514e-05
4.29361e-05
5.74707e-05
5.74792e-05
1.73329e-05
5.77644e-05
5.77737e-05
5.19299e-05
6.99737e-05
5.12842e-05
7.0002e-05
6.97169e-05
6.9695e-05
5.19412e-05
6.99806e-05
5.12827e-05
7.00075e-05
1.52883e-05
1.52876e-05
1.52877e-05
1.50057e-05
1.50058e-05
1.50052e-05
1.50056e-05
2.76597e-05
4.38817e-05
1.51247e-05
1.60651e-05
2.71105e-05
4.43335e-05
1.50586e-05
6.97168e-05
6.9695e-05
2.76641e-05
1.51244e-05
4.38827e-05
1.60648e-05
2.71063e-05
1.50584e-05
4.43347e-05
5.83153e-05
5.83253e-05
1.77363e-05
5.85716e-05
5.85814e-05
5.34914e-05
7.00355e-05
5.29443e-05
7.00627e-05
6.96368e-05
6.96155e-05
5.35026e-05
7.00443e-05
5.29452e-05
7.00675e-05
1.49163e-05
1.49158e-05
1.49157e-05
1.46694e-05
1.46693e-05
1.46689e-05
1.46693e-05
2.93602e-05
4.52017e-05
1.4882e-05
1.613e-05
2.88004e-05
4.56162e-05
1.4833e-05
6.96361e-05
6.96149e-05
2.93586e-05
1.4882e-05
4.52051e-05
1.613e-05
2.87971e-05
1.4833e-05
4.5622e-05
5.90502e-05
5.90607e-05
1.82511e-05
5.92721e-05
5.92819e-05
5.47686e-05
7.009e-05
5.43189e-05
7.01105e-05
6.9557e-05
6.95353e-05
5.47808e-05
7.00982e-05
5.43222e-05
7.01169e-05
1.45913e-05
1.45911e-05
1.45908e-05
1.43796e-05
1.43791e-05
1.43791e-05
1.43793e-05
3.10483e-05
4.641e-05
1.47079e-05
1.62849e-05
3.04968e-05
4.67862e-05
1.4676e-05
6.95559e-05
6.95343e-05
3.10498e-05
1.47079e-05
4.64091e-05
1.62851e-05
3.04971e-05
1.4676e-05
4.67849e-05
5.96878e-05
5.9697e-05
1.8868e-05
5.98786e-05
5.98895e-05
5.57883e-05
7.01323e-05
5.54243e-05
7.0146e-05
6.9475e-05
6.9452e-05
5.58018e-05
7.01387e-05
5.54304e-05
7.0153e-05
1.43125e-05
1.43125e-05
1.4312e-05
1.41353e-05
1.41346e-05
1.41348e-05
1.41349e-05
3.26557e-05
4.74971e-05
1.46022e-05
1.6525e-05
3.21384e-05
4.78244e-05
1.45873e-05
6.94741e-05
6.94512e-05
3.26515e-05
1.46022e-05
4.7494e-05
1.65254e-05
3.21343e-05
1.45873e-05
4.78222e-05
6.02416e-05
6.02487e-05
1.95443e-05
6.04072e-05
6.04146e-05
5.66034e-05
7.01585e-05
5.63042e-05
7.01651e-05
6.93878e-05
6.93621e-05
5.66128e-05
7.01655e-05
5.6309e-05
7.01718e-05
1.40787e-05
1.4079e-05
1.40782e-05
1.3935e-05
1.39341e-05
1.39344e-05
1.39345e-05
3.412e-05
4.84524e-05
1.45648e-05
1.68429e-05
3.36519e-05
4.87441e-05
1.45661e-05
6.93867e-05
6.93606e-05
3.41108e-05
1.45647e-05
4.84536e-05
1.6843e-05
3.36487e-05
1.45659e-05
4.87413e-05
6.07155e-05
6.07249e-05
2.03257e-05
6.08564e-05
6.08668e-05
5.72646e-05
7.01623e-05
5.70153e-05
7.01591e-05
6.92913e-05
6.92619e-05
5.72654e-05
7.01685e-05
5.70128e-05
7.01641e-05
1.38884e-05
1.38887e-05
1.38878e-05
1.37761e-05
1.3775e-05
1.37754e-05
1.37755e-05
3.54055e-05
4.92873e-05
1.45872e-05
1.72263e-05
3.49971e-05
4.9536e-05
1.46049e-05
6.9289e-05
6.92594e-05
3.53982e-05
1.45868e-05
4.92869e-05
1.72267e-05
3.49915e-05
1.46045e-05
4.95418e-05
6.11181e-05
6.11267e-05
2.11134e-05
6.12394e-05
6.12474e-05
5.77945e-05
7.01403e-05
5.75915e-05
7.01299e-05
6.9184e-05
6.91507e-05
5.77976e-05
7.01451e-05
5.75887e-05
7.01353e-05
1.37386e-05
1.3739e-05
1.37381e-05
1.36551e-05
1.36535e-05
1.36539e-05
1.36542e-05
3.65095e-05
5.00006e-05
1.46636e-05
1.76594e-05
3.61626e-05
5.02079e-05
1.46936e-05
6.918e-05
6.91463e-05
3.65018e-05
1.46628e-05
5.0003e-05
1.76601e-05
3.61532e-05
1.46928e-05
5.02142e-05
6.14548e-05
6.1466e-05
2.18975e-05
6.15521e-05
6.15668e-05
5.81974e-05
7.00975e-05
5.80407e-05
7.00823e-05
6.90653e-05
6.90294e-05
5.82126e-05
7.01038e-05
5.80529e-05
7.00894e-05
1.36254e-05
1.36257e-05
1.3625e-05
1.35671e-05
1.35646e-05
1.35647e-05
1.35656e-05
3.74402e-05
5.05956e-05
1.47828e-05
1.81238e-05
3.71442e-05
5.07714e-05
1.4822e-05
6.90611e-05
6.90259e-05
3.74343e-05
1.47817e-05
5.0599e-05
1.81244e-05
3.71379e-05
1.48206e-05
5.07774e-05
6.17213e-05
6.17376e-05
2.26435e-05
6.18041e-05
6.1822e-05
5.85027e-05
7.00404e-05
5.83882e-05
7.00238e-05
6.8943e-05
6.89084e-05
5.85311e-05
7.00481e-05
5.841e-05
7.0031e-05
1.35433e-05
1.35432e-05
1.35432e-05
1.35056e-05
1.35018e-05
1.3501e-05
1.35032e-05
3.823e-05
5.10878e-05
1.49345e-05
1.86006e-05
3.79745e-05