/*--------------------------------*- C++ -*----------------------------------*\
| =========                 |                                                 |
| \\      /  F ield         | OpenFOAM: The Open Source CFD Toolbox           |
|  \\    /   O peration     | Version:  v2012                                 |
|   \\  /    A nd           | Website:  www.openfoam.com                      |
|    \\/     M anipulation  |                                                 |
\*---------------------------------------------------------------------------*/
FoamFile
{
    version     2.0;
    format      ascii;
    class       volScalarField;
    location    "150";
    object      nut;
}
// * * * * * * * * * * * * * * * * * * * * * * * * * * * * * * * * * * * * * //

dimensions      [0 2 -1 0 0 0 0];


internalField   nonuniform List<scalar> 
171728
(
0.00011036
9.66086e-05
9.67814e-05
9.65864e-05
9.66115e-05
9.64458e-05
9.61352e-05
4.95382e-05
4.9538e-05
8.15656e-05
0.000110393
2.34677e-05
8.03326e-05
2.34728e-05
2.34714e-05
6.77308e-05
6.77349e-05
8.03755e-05
8.02569e-05
0.000100683
9.21523e-05
4.95217e-05
8.14994e-05
0.000100555
8.02293e-05
9.19575e-05
6.7671e-05
6.77017e-05
2.34715e-05
4.9538e-05
4.95382e-05
7.23424e-05
2.00404e-05
2.00446e-05
4.95383e-05
7.24067e-05
7.24209e-05
2.00429e-05
3.60677e-05
8.15935e-05
8.00361e-05
4.02728e-05
8.00479e-05
4.02735e-05
3.60668e-05
2.34694e-05
2.34742e-05
2.34728e-05
8.60098e-05
9.17831e-05
6.77417e-05
4.73488e-05
4.73499e-05
9.17737e-05
8.59928e-05
8.59677e-05
9.16154e-05
6.77476e-05
4.73373e-05
4.73388e-05
9.17035e-05
8.59156e-05
7.49505e-05
2.14021e-05
2.13986e-05
2.14038e-05
2.14003e-05
7.49467e-05
2.00392e-05
4.95224e-05
7.2323e-05
7.23369e-05
2.00373e-05
3.60604e-05
8.15511e-05
4.0271e-05
7.98939e-05
4.0272e-05
7.99209e-05
3.60593e-05
8.59596e-05
9.16769e-05
6.77073e-05
4.73349e-05
4.73364e-05
9.17159e-05
8.59312e-05
8.59485e-05
9.16856e-05
6.77053e-05
4.7348e-05
9.17202e-05
4.73492e-05
8.58867e-05
7.49558e-05
2.1399e-05
2.14022e-05
2.14008e-05
2.14039e-05
7.49476e-05
2.34728e-05
4.95385e-05
0.000131887
9.61676e-05
9.6935e-05
9.69348e-05
9.6745e-05
9.6944e-05
9.69439e-05
9.61205e-05
9.62866e-05
9.68898e-05
9.69189e-05
9.61236e-05
9.69153e-05
9.68955e-05
9.62854e-05
0.000131923
9.37638e-05
9.37386e-05
8.03578e-05
8.7808e-05
9.37463e-05
8.78574e-05
9.37725e-05
9.37833e-05
9.37417e-05
8.03992e-05
8.77382e-05
8.77634e-05
9.37557e-05
9.37966e-05
9.39266e-05
9.37143e-05
8.01805e-05
8.76532e-05
8.7651e-05
9.3726e-05
9.37513e-05
9.36988e-05
9.22125e-05
9.18316e-05
9.31993e-05
9.18569e-05
9.31936e-05
9.3709e-05
9.37518e-05
9.36092e-05
8.0204e-05
8.74794e-05
8.75369e-05
9.36252e-05
9.35446e-05
9.34474e-05
9.18155e-05
9.30922e-05
9.16131e-05
9.30827e-05
9.15095e-05
9.34565e-05
0.000233972
0.000233076
0.000233077
0.000233398
0.000232521
0.000227698
0.000227697
0.000223694
0.000230486
0.000220166
0.000220168
0.000208896
0.000227749
0.000211492
0.000211499
0.000193602
0.000224365
0.000202469
0.000202484
0.000179603
0.00022046
0.000193601
0.00019361
0.000167222
0.0002162
0.000185123
0.000185124
0.000156506
0.000211716
0.000177102
0.0001771
0.000147232
0.000207106
0.000169574
0.00016957
0.00013903
0.000202445
0.000162512
0.000162502
0.000131707
0.000197789
0.00015586
0.000155845
0.000124971
0.000193177
0.000149564
0.000149545
0.000119001
0.000188588
0.000143583
0.00014356
0.000113264
0.000184056
0.000137861
0.000137837
0.000107921
0.000179611
0.000132359
0.000132334
0.000102988
0.000175242
0.000127066
0.000127041
9.83191e-05
0.000170938
0.000122004
0.000121983
9.41324e-05
0.000166684
0.000117205
0.000117182
9.05434e-05
0.000162481
0.000112692
0.000112671
8.74935e-05
0.000158302
0.000108535
0.000108514
8.52538e-05
0.00015414
0.000104776
0.000104757
8.35532e-05
0.000150008
0.000101426
0.00010141
8.23803e-05
0.000145916
9.85813e-05
9.85655e-05
8.18318e-05
0.000141885
9.62384e-05
9.62251e-05
8.18206e-05
0.000137947
9.44055e-05
9.43915e-05
8.21015e-05
0.000134125
9.30627e-05
9.3055e-05
8.29339e-05
0.000130487
9.21784e-05
9.21696e-05
8.39562e-05
0.000127081
9.16997e-05
9.16953e-05
8.49553e-05
0.000123968
9.15734e-05
9.15594e-05
8.61971e-05
0.000121193
9.17093e-05
9.16819e-05
8.73473e-05
0.000118782
9.20349e-05
9.19891e-05
8.84368e-05
0.00011673
9.24543e-05
9.244e-05
8.9744e-05
0.000114999
9.28807e-05
9.29238e-05
9.06228e-05
0.000113574
9.34317e-05
9.35231e-05
9.12387e-05
0.000112424
9.40897e-05
9.41858e-05
9.32095e-05
0.000111592
9.46774e-05
9.47635e-05
9.42438e-05
0.000111025
9.51066e-05
9.51447e-05
9.48116e-05
0.0001107
9.54211e-05
9.54419e-05
9.51067e-05
0.000110517
9.57338e-05
9.57329e-05
9.49858e-05
0.000110427
9.6023e-05
9.60276e-05
9.53219e-05
0.000110363
9.61531e-05
9.6132e-05
9.53485e-05
0.000110317
9.61881e-05
9.61569e-05
9.58462e-05
0.000110314
9.62513e-05
9.61701e-05
9.56721e-05
0.000110321
9.6376e-05
9.62807e-05
9.60221e-05
0.00011034
9.64529e-05
9.64219e-05
9.62868e-05
0.00011035
9.64932e-05
9.65238e-05
9.65018e-05
0.000110371
9.65805e-05
9.65813e-05
9.66466e-05
0.000234273
0.000234457
0.000234457
0.000234267
0.000234458
0.000234458
0.000234275
0.000234275
0.000234275
0.000234276
0.000234459
0.000234458
0.000234267
0.000234458
0.000234458
0.000234269
0.000233391
0.00022605
0.000233074
0.000233079
0.000229276
0.000229277
0.000233403
0.000226071
0.000233075
0.00023308
0.00022927
0.000229274
0.000233077
0.000229276
0.000229274
0.000233404
0.00022607
0.000233074
0.000229274
0.00022927
0.000226054
0.000223681
0.00021202
0.000227698
0.000227697
0.000222172
0.000222191
0.000223708
0.000212037
0.00022769
0.000227696
0.000222187
0.000222195
0.000227696
0.000222194
0.000222196
0.00022371
0.000212059
0.000227692
0.000222195
0.000222193
0.000212029
0.000208886
0.00019688
0.000220133
0.000220163
0.000213677
0.00021371
0.000208905
0.000196891
0.00022016
0.000220168
0.000213714
0.00021372
0.000220167
0.00021372
0.000213712
0.000208927
0.000196917
0.000220165
0.000213724
0.000213714
0.000196871
0.000193597
0.000182699
0.000211451
0.000211479
0.000204672
0.000204709
0.000193605
0.00018272
0.000211487
0.000211492
0.000204724
0.000204722
0.00021148
0.000204724
0.000204687
0.000193642
0.000182771
0.000211486
0.000204738
0.00020472
0.000182711
0.00017959
0.000170104
0.000202408
0.000202453
0.000195699
0.000195769
0.000179616
0.000170161
0.00020247
0.000202465
0.000195783
0.000195774
0.000202421
0.000195787
0.000195711
0.000179589
0.000170207
0.000202465
0.000195797
0.000195781
0.000170167
0.000167293
0.000159164
0.000193509
0.000193584
0.000187106
0.000187182
0.00016729
0.00015917
0.000193597
0.000193586
0.000187193
0.000187178
0.000193519
0.000187201
0.000187112
0.00016725
0.000159139
0.000193595
0.000187203
0.00018719
0.000159166
0.000156565
0.000149529
0.000185031
0.000185103
0.000178979
0.000179037
0.000156593
0.000149558
0.000185114
0.000185099
0.000179048
0.000179033
0.000185035
0.000179061
0.000178976
0.000156623
0.000149583
0.000185112
0.000179059
0.000179047
0.000149516
0.000147223
0.000141095
0.000177026
0.000177077
0.000171344
0.000171379
0.000147262
0.000141066
0.000177088
0.000177073
0.000171392
0.000171377
0.000177019
0.000171409
0.000171333
0.000147168
0.000141096
0.000177088
0.000171406
0.000171396
0.000141028
0.000138888
0.000133548
0.000169511
0.000169542
0.000164176
0.0001642
0.000139087
0.000133621
0.000169555
0.00016954
0.000164213
0.000164197
0.000169499
0.000164236
0.000164163
0.000138945
0.000133577
0.00016956
0.000164229
0.000164221
0.000133528
0.000131716
0.000126798
0.000162452
0.000162476
0.000157427
0.000157449
0.00013179
0.00012674
0.000162486
0.00016247
0.000157457
0.000157442
0.00016244
0.000157488
0.000157417
0.000131624
0.000126797
0.000162497
0.000157474
0.000157471
0.00012678
0.000124989
0.000120449
0.000155799
0.000155823
0.000151047
0.000151069
0.000125121
0.000120505
0.000155829
0.000155812
0.000151076
0.000151056
0.00015579
0.00015111
0.000151042
0.000124993
0.000120538
0.000155843
0.00015109
0.000151092
0.000120424
0.000118954
0.000114431
0.000149503
0.000149524
0.000144989
0.000145009
0.000118982
0.000114475
0.000149531
0.00014951
0.000145019
0.000144994
0.000149498
0.000145053
0.000144991
0.000118893
0.000114521
0.000149546
0.000145031
0.000145034
0.000114442
0.000113246
0.000108784
0.00014352
0.00014354
0.000139207
0.000139226
0.000113288
0.000108828
0.00014355
0.000143523
0.000139238
0.000139208
0.000143521
0.000139274
0.000139215
0.00011315
0.000108806
0.000143564
0.000139248
0.000139253
0.000108799
0.00010792
0.000103626
0.000137799
0.000137814
0.000133656
0.000133672
0.000107947
0.000103658
0.000137828
0.000137797
0.000133688
0.000133653
0.000137805
0.000133723
0.000133669
0.000107914
0.00010362
0.000137841
0.000133696
0.000133703
0.000103632
0.000102982
9.90178e-05
0.000132295
0.00013231
0.000128313
0.000128326
0.000103007
9.90284e-05
0.000132326
0.000132291
0.000128341
0.000128306
0.000132308
0.000128377
0.000128329
0.000102985
9.9023e-05
0.000132341
0.000128351
0.00012836
9.90182e-05
9.83181e-05
9.48392e-05
0.000127005
0.000127017
0.000123195
0.000123208
9.83447e-05
9.4857e-05
0.000127032
0.000126998
0.00012322
0.000123187
0.000127021
0.000123257
0.000123213
9.83158e-05
9.4811e-05
0.00012705
0.000123233
0.000123243
9.48029e-05
9.40708e-05
9.13526e-05
0.000121947
0.000121957
0.000118309
0.000118311
9.40849e-05
9.121e-05
0.00012197
0.000121937
0.000118331
0.000118294
0.000121961
0.000118362
0.000118318
9.40853e-05
9.13417e-05
0.000121992
0.000118337
0.000118354
9.1205e-05
9.04057e-05
8.81735e-05
0.00011715
0.000117158
0.000113732
0.000113738
9.05067e-05
8.8122e-05
0.000117167
0.000117139
0.000113752
0.000113719
0.000117164
0.000113786
0.000113744
9.03951e-05
8.81644e-05
0.000117194
0.000113763
0.000113777
8.82331e-05
8.75697e-05
8.561e-05
0.000112644
0.000112646
0.000109478
0.000109479
8.75978e-05
8.56517e-05
0.000112663
0.000112629
0.000109499
0.000109463
0.000112654
0.000109529
0.000109486
8.75323e-05
8.56025e-05
0.000112685
0.000109507
0.00010952
8.5607e-05
8.52623e-05
8.37787e-05
0.000108487
0.000108487
0.000105609
0.000105609
8.5266e-05
8.38143e-05
0.000108508
0.00010847
0.000105628
0.000105592
0.000108495
0.000105658
0.000105614
8.51868e-05
8.38573e-05
0.000108527
0.000105639
0.000105647
8.37619e-05
8.35378e-05
8.26526e-05
0.000104731
0.000104731
0.000102203
0.000102199
8.35642e-05
8.27495e-05
0.000104751
0.000104715
0.000102221
0.000102184
0.000104737
0.000102248
0.000102215
8.34874e-05
8.27514e-05
0.000104768
0.000102229
0.000102247
8.26409e-05
8.24197e-05
8.19101e-05
0.000101382
0.000101375
9.92504e-05
9.92418e-05
8.2399e-05
8.2092e-05
0.0001014
0.000101359
9.9264e-05
9.92306e-05
0.000101377
9.92854e-05
9.92551e-05
8.23023e-05
8.19288e-05
0.000101408
9.92683e-05
9.92836e-05
8.21005e-05
8.19729e-05
8.20087e-05
9.85393e-05
9.85298e-05
9.67932e-05
9.67836e-05
8.1923e-05
8.1965e-05
9.8555e-05
9.85165e-05
9.68077e-05
9.67737e-05
9.85332e-05
9.68237e-05
9.67999e-05
8.19781e-05
8.21833e-05
9.85599e-05
9.68073e-05
9.68245e-05
8.19432e-05
8.19047e-05
8.23209e-05
9.61995e-05
9.61889e-05
9.48509e-05
9.48381e-05
8.19195e-05
8.21317e-05
9.62143e-05
9.61774e-05
9.48646e-05
9.48301e-05
9.6191e-05
9.48716e-05
9.48539e-05
8.1663e-05
8.22763e-05
9.62136e-05
9.48567e-05
9.48779e-05
8.24959e-05
8.23268e-05
8.30416e-05
9.43711e-05
9.43565e-05
9.3412e-05
9.3394e-05
8.23804e-05
8.2972e-05
9.43845e-05
9.43474e-05
9.34262e-05
9.33878e-05
9.43577e-05
9.34196e-05
9.3414e-05
8.21428e-05
8.28323e-05
9.43786e-05
9.34064e-05
9.34353e-05
8.30163e-05
8.29664e-05
8.38393e-05
9.30367e-05
9.3016e-05
9.24421e-05
9.24214e-05
8.30311e-05
8.38844e-05
9.30485e-05
9.30126e-05
9.24558e-05
9.24182e-05
9.30202e-05
9.24359e-05
9.24454e-05
8.29889e-05
8.37774e-05
9.30393e-05
9.24262e-05
9.24617e-05
8.40362e-05
8.38875e-05
8.46933e-05
9.21632e-05
9.21414e-05
9.1901e-05
9.18777e-05
8.39811e-05
8.50667e-05
9.21739e-05
9.21364e-05
9.19147e-05
9.18742e-05
9.2151e-05
9.18768e-05
9.1902e-05
8.39193e-05
8.47262e-05
9.21635e-05
9.18695e-05
9.19152e-05
8.46651e-05
8.52671e-05
8.61411e-05
9.1705e-05
9.16791e-05
9.17378e-05
9.17046e-05
8.47634e-05
8.60349e-05
9.17212e-05
9.16744e-05
9.1753e-05
9.16938e-05
9.1685e-05
9.16796e-05
9.17221e-05
8.49808e-05
8.57384e-05
9.16948e-05
9.16669e-05
9.17368e-05
8.59958e-05
8.63638e-05
8.72076e-05
9.16108e-05
9.15768e-05
9.18518e-05
9.1819e-05
8.60555e-05
8.70651e-05
9.16281e-05
9.15603e-05
9.1886e-05
9.17982e-05
9.15767e-05
9.17667e-05
9.18341e-05
8.6138e-05
8.68603e-05
9.15843e-05
9.17421e-05
9.18432e-05
8.69193e-05
8.75744e-05
8.81327e-05
9.17782e-05
9.17352e-05
9.21801e-05
9.2135e-05
8.72018e-05
8.82188e-05
9.18134e-05
9.17184e-05
9.22303e-05
9.2101e-05
9.17426e-05
9.20591e-05
9.21603e-05
8.73494e-05
8.78893e-05
9.17462e-05
9.20223e-05
9.21626e-05
8.82982e-05
8.85805e-05
8.93538e-05
9.21382e-05
9.2085e-05
9.26495e-05
9.25475e-05
8.83943e-05
8.91978e-05
9.21882e-05
9.2051e-05
9.27068e-05
9.25264e-05
9.21029e-05
9.24828e-05
9.26557e-05
8.848e-05
8.88677e-05
9.20948e-05
9.24495e-05
9.26155e-05
8.91683e-05
8.9611e-05
9.0465e-05
9.2635e-05
9.25044e-05
9.317e-05
9.29828e-05
8.94e-05
9.00302e-05
9.26779e-05
9.25025e-05
9.32062e-05
9.29972e-05
9.26239e-05
9.28949e-05
9.31763e-05
8.94495e-05
9.01324e-05
9.25718e-05
9.29231e-05
9.31156e-05
9.0518e-05
9.05254e-05
9.1562e-05
9.31623e-05
9.29644e-05
9.37262e-05
9.35036e-05
9.03725e-05
9.07246e-05
9.31913e-05
9.29842e-05
9.37563e-05
9.35635e-05
9.3144e-05
9.33995e-05
9.36954e-05
9.02384e-05
9.08287e-05
9.30803e-05
9.34903e-05
9.36357e-05
9.13447e-05
9.17368e-05
9.33077e-05
9.37484e-05
9.35296e-05
9.4365e-05
9.41669e-05
9.11897e-05
9.28522e-05
9.378e-05
9.35923e-05
9.44156e-05
9.42432e-05
9.36906e-05
9.40399e-05
9.43057e-05
9.1317e-05
9.31096e-05
9.36354e-05
9.41533e-05
9.42609e-05
9.28967e-05
9.36677e-05
9.44378e-05
9.44039e-05
9.42088e-05
9.49415e-05
9.47605e-05
9.31489e-05
9.40664e-05
9.44495e-05
9.42851e-05
9.49853e-05
9.48431e-05
9.43188e-05
9.46608e-05
9.4867e-05
9.35807e-05
9.45026e-05
9.42922e-05
9.47682e-05
9.48794e-05
9.41194e-05
9.45646e-05
9.49193e-05
9.49585e-05
9.47912e-05
9.53549e-05
9.5213e-05
9.42482e-05
9.47162e-05
9.49967e-05
9.4855e-05
9.5366e-05
9.5239e-05
9.4878e-05
9.51039e-05
9.53139e-05
9.46295e-05
9.49051e-05
9.48837e-05
9.51681e-05
9.5281e-05
9.47114e-05
9.50092e-05
9.53049e-05
9.53809e-05
9.52472e-05
9.56801e-05
9.55444e-05
9.48038e-05
9.49645e-05
9.53881e-05
9.52561e-05
9.56848e-05
9.54933e-05
9.533e-05
9.54224e-05
9.56108e-05
9.49683e-05
9.5057e-05
9.52988e-05
9.54449e-05
9.55999e-05
9.5058e-05
9.54169e-05
9.56618e-05
9.57277e-05
9.5597e-05
9.59321e-05
9.57884e-05
9.49838e-05
9.52283e-05
9.5743e-05
9.5535e-05
9.59404e-05
9.5692e-05
9.56449e-05
9.57008e-05
9.58204e-05
9.50926e-05
9.52769e-05
9.56386e-05
9.57262e-05
9.58374e-05
9.4939e-05
9.57388e-05
9.61616e-05
9.60238e-05
9.58681e-05
9.61236e-05
9.60039e-05
9.53856e-05
9.59939e-05
9.60135e-05
9.57608e-05
9.60833e-05
9.5902e-05
9.58673e-05
9.59975e-05
9.60063e-05
9.54085e-05
9.59667e-05
9.5906e-05
9.60202e-05
9.60331e-05
9.56956e-05
9.61511e-05
9.59081e-05
9.61896e-05
9.60701e-05
9.61792e-05
9.60843e-05
9.6069e-05
9.5899e-05
9.61102e-05
9.59803e-05
9.61341e-05
9.60167e-05
9.60694e-05
9.61539e-05
9.61354e-05
9.61092e-05
9.63349e-05
9.61055e-05
9.61405e-05
9.61046e-05
9.52819e-05
9.58956e-05
9.61892e-05
9.6169e-05
9.61081e-05
9.61627e-05
9.61263e-05
9.58626e-05
9.6194e-05
9.61843e-05
9.60414e-05
9.62591e-05
9.60423e-05
9.61838e-05
9.62114e-05
9.62669e-05
9.6344e-05
9.6474e-05
9.6138e-05
9.61638e-05
9.6214e-05
9.57519e-05
9.61644e-05
9.63616e-05
9.6213e-05
9.61503e-05
9.627e-05
9.62447e-05
9.61826e-05
9.60197e-05
9.6337e-05
9.60405e-05
9.63369e-05
9.60833e-05
9.63125e-05
9.62786e-05
9.63399e-05
9.63975e-05
9.65197e-05
9.62548e-05
9.61846e-05
9.63216e-05
9.56234e-05
9.63195e-05
9.64698e-05
9.63199e-05
9.63054e-05
9.63493e-05
9.63982e-05
9.60164e-05
9.63384e-05
9.63496e-05
9.61151e-05
9.63621e-05
9.62494e-05
9.63445e-05
9.63891e-05
9.63677e-05
9.64651e-05
9.65505e-05
9.63592e-05
9.62871e-05
9.64026e-05
9.60129e-05
9.64276e-05
9.65602e-05
9.63627e-05
9.64535e-05
9.63985e-05
9.64377e-05
9.59383e-05
9.56813e-05
9.63975e-05
9.63193e-05
9.64222e-05
9.63802e-05
9.6406e-05
9.64651e-05
9.64356e-05
9.65196e-05
9.66262e-05
9.64297e-05
9.64319e-05
9.64749e-05
9.62964e-05
9.65136e-05
9.65953e-05
9.64288e-05
9.64446e-05
9.64633e-05
9.64602e-05
9.57916e-05
9.61285e-05
9.64417e-05
9.6397e-05
9.64774e-05
9.64003e-05
9.64695e-05
9.65181e-05
9.65235e-05
9.65716e-05
9.66388e-05
9.65026e-05
9.65391e-05
9.65387e-05
9.64431e-05
9.66379e-05
9.66675e-05
9.64994e-05
9.64918e-05
9.65632e-05
9.65078e-05
9.62212e-05
9.64106e-05
9.654e-05
9.64343e-05
9.65815e-05
9.64513e-05
9.65588e-05
9.65987e-05
9.65971e-05
9.63173e-05
9.6341e-05
9.66067e-05
9.65866e-05
9.66353e-05
9.66187e-05
9.67143e-05
9.67447e-05
9.658e-05
9.65399e-05
9.65877e-05
9.66295e-05
9.64836e-05
9.59381e-05
9.65959e-05
9.64765e-05
9.66696e-05
9.64881e-05
9.66392e-05
9.66354e-05
9.67315e-05
9.64139e-05
9.60968e-05
9.66528e-05
9.66431e-05
9.6689e-05
9.67273e-05
0.00023473
0.000234747
0.000234729
0.000234729
0.00023513
0.000234801
0.000234934
0.000234727
0.000235128
0.000234802
0.000234727
0.000234772
0.000234869
0.000233473
0.00023341
0.000104604
3.88274e-05
0.000128243
3.9786e-05
2.14652e-05
2.28896e-05
0.000104708
3.88389e-05
0.000128421
3.97826e-05
0.000233972
0.000233972
0.000233972
0.000232928
0.000232928
0.000232928
0.000232927
0.000205964
9.24695e-05
0.000233965
0.000231954
0.00022231
8.65541e-05
0.000233603
2.14717e-05
2.28669e-05
0.000206051
0.000233967
9.27473e-05
0.000231957
0.000222372
0.000233605
8.65541e-05
4.74209e-05
4.71558e-05
0.000231266
4.36528e-05
4.34949e-05
7.26279e-05
4.24523e-05
8.13555e-05
4.37967e-05
2.48052e-05
2.54883e-05
7.26027e-05
4.24058e-05
8.13402e-05
4.37532e-05
0.000232521
0.000232521
0.000232521
0.00023106
0.000231062
0.000231062
0.000231062
0.000167249
7.88591e-05
0.00023205
0.000225979
0.00017992
7.39111e-05
0.000231337
2.47925e-05
2.54774e-05
0.000167226
0.000232051
7.88247e-05
0.000225978
0.000179925
0.000231334
7.3995e-05
3.90811e-05
3.89971e-05
0.000219408
3.64795e-05
3.64162e-05
5.63543e-05
4.55689e-05
6.12267e-05
4.64378e-05
2.60234e-05
2.61228e-05
5.63313e-05
4.55396e-05
6.12122e-05
4.64153e-05
0.000230489
0.000230489
0.000230489
0.000228497
0.000228503
0.000228503
0.000228502
0.000138502
6.70059e-05
0.000228583
0.00021807
0.000148007
6.30682e-05
0.000227471
2.60163e-05
2.61181e-05
0.000138479
0.000228575
6.69748e-05
0.000218072
0.00014793
0.00022746
6.31555e-05
3.32652e-05
3.32171e-05
0.000204416
3.20259e-05
3.19772e-05
4.70633e-05
4.75125e-05
5.0004e-05
4.80236e-05
2.60515e-05
2.59406e-05
4.70166e-05
4.74955e-05
4.99644e-05
4.80077e-05
0.000227754
0.000227756
0.000227753
0.000225265
0.00022527
0.000225273
0.000225266
0.000117498
5.78435e-05
0.000223637
0.000209243
0.000124606
5.51906e-05
0.000222219
2.60394e-05
2.59374e-05
0.000117509
0.000223634
5.78557e-05
0.000209253
0.000124606
0.000222217
5.52317e-05
3.06691e-05
3.06492e-05
0.000189618
3.03585e-05
3.03645e-05
4.14575e-05
4.85954e-05
4.32954e-05
4.8857e-05
2.56714e-05
2.55196e-05
4.14365e-05
4.85772e-05
4.32938e-05
4.88394e-05
0.000224371
0.000224374
0.000224365
0.000221475
0.00022149
0.000221492
0.000221476
0.000102056
5.15868e-05
0.000217662
0.000200225
0.00010741
4.98702e-05
0.000216067
2.56683e-05
2.55174e-05
0.00010207
0.000217671
5.15746e-05
0.000200237
0.000107424
0.000216076
4.98865e-05
3.02583e-05
3.02448e-05
0.000176227
3.04169e-05
3.04271e-05
3.8166e-05
4.91036e-05
3.9265e-05
4.92073e-05
2.52338e-05
2.5094e-05
3.81679e-05
4.90881e-05
3.92702e-05
4.91946e-05
0.000220477
0.000220479
0.000220461
0.00021729
0.000217312
0.000217312
0.000217291
9.04687e-05
4.74591e-05
0.000211146
0.000191439
9.45584e-05
4.64241e-05
0.000209478
2.52317e-05
2.50929e-05
9.04747e-05
0.000211159
4.74755e-05
0.000191446
9.45599e-05
0.000209488
4.6439e-05
3.10776e-05
3.10704e-05
0.000164474
3.1547e-05
3.15771e-05
3.63693e-05
4.92827e-05
3.69575e-05
4.9296e-05
2.48456e-05
2.47327e-05
3.63814e-05
4.92734e-05
3.69658e-05
4.92879e-05
0.000216223
0.000216223
0.0002162
0.000212852
0.000212873
0.000212871
0.00021285
8.15881e-05
4.49782e-05
0.000204457
0.000183071
8.48135e-05
4.44036e-05
0.000202786
2.48438e-05
2.47315e-05
8.15923e-05
0.000204465
4.49374e-05
0.000183073
8.48137e-05
0.000202791
4.44192e-05
3.26559e-05
3.26427e-05
0.000154199
3.32787e-05
3.33185e-05
3.56837e-05
4.92916e-05
3.5819e-05
4.92728e-05
2.45339e-05
2.44469e-05
3.56925e-05
4.92853e-05
3.58319e-05
4.92681e-05
0.000211736
0.000211735
0.000211714
0.000208265
0.000208282
0.00020828
0.00020826
7.46666e-05
4.36072e-05
0.000197825
0.000175172
7.7275e-05
4.34111e-05
0.000196193
2.45318e-05
2.44439e-05
7.46691e-05
0.000197831
4.36411e-05
0.00017517
7.7273e-05
0.000196195
4.3447e-05
3.46871e-05
3.46739e-05
0.00014514
3.54261e-05
3.54615e-05
3.57833e-05
4.92523e-05
3.56534e-05
4.92303e-05
2.42927e-05
2.42262e-05
3.57637e-05
4.92499e-05
3.56595e-05
4.92283e-05
0.000207123
0.00020712
0.000207101
0.00020361
0.000203627
0.000203624
0.000203605
6.92554e-05
4.31787e-05
0.000191381
0.000167767
7.13421e-05
4.30946e-05
0.000189802
2.42921e-05
2.42265e-05
6.92328e-05
0.000191386
4.30886e-05
0.000167761
7.1339e-05
0.000189802
4.31768e-05
3.6998e-05
3.70033e-05
0.000137177
3.78382e-05
3.78271e-05
3.65437e-05
4.92171e-05
3.62488e-05
4.92142e-05
2.41168e-05
2.40664e-05
3.65832e-05
4.92177e-05
3.62368e-05
4.92107e-05
0.000202462
0.000202458
0.00020244
0.000198949
0.000198969
0.000198962
0.000198946
6.49153e-05
4.33366e-05
0.00018515
0.000160813
6.65867e-05
4.34478e-05
0.00018363
2.41164e-05
2.40701e-05
6.49079e-05
0.000185152
4.32396e-05
0.000160801
6.65718e-05
0.000183628
4.35158e-05
3.94915e-05
3.94708e-05
0.000130123
4.03273e-05
4.03423e-05
3.79624e-05
4.92144e-05
3.74613e-05
4.92202e-05
2.39895e-05
2.39535e-05
3.79609e-05
4.92105e-05
3.7428e-05
4.92161e-05
0.00019781
0.000197803
0.000197788
0.000194323
0.000194345
0.000194336
0.000194324
6.15402e-05
4.3972e-05
0.000179175
0.000154256
6.27739e-05
4.43406e-05
0.000177726
2.39819e-05
2.39547e-05
6.15293e-05
0.000179175
4.39649e-05
0.000154239
6.27606e-05
0.000177722
4.43e-05
4.20009e-05
4.20064e-05
0.000123547
4.28746e-05
4.28399e-05
3.99409e-05
4.92387e-05
3.92625e-05
4.9244e-05
2.38922e-05
2.38759e-05
3.994e-05
4.92308e-05
3.92577e-05
4.92472e-05
0.0001932
0.000193189
0.000193179
0.000189736
0.000189759
0.000189746
0.00018974
5.89476e-05
4.51608e-05
0.00017348
0.000148042
5.98751e-05
4.55512e-05
0.000172096
2.38899e-05
2.38737e-05
5.89521e-05
0.000173476
4.51211e-05
0.000148022
5.98351e-05
0.000172088
4.55652e-05
4.44883e-05
4.44895e-05
0.000117396
4.53189e-05
4.53231e-05
4.24149e-05
4.92645e-05
4.16004e-05
4.92904e-05
2.38279e-05
2.38193e-05
4.24781e-05
4.92618e-05
4.15935e-05
4.92884e-05
0.000188612
0.000188598
0.000188593
0.000185182
0.000185207
0.00018519
0.00018519
5.70956e-05
4.65879e-05
0.000168032
0.000142132
5.77082e-05
4.72614e-05
0.000166707
2.38253e-05
2.38171e-05
5.71728e-05
0.000168025
4.66304e-05
0.00014211
5.76752e-05
0.000166694
4.7213e-05
4.68869e-05
4.68809e-05
0.000111541
4.76464e-05
4.76553e-05
4.53577e-05
4.93064e-05
4.43795e-05
4.93318e-05
2.37822e-05
2.3779e-05
4.54067e-05
4.93041e-05
4.43482e-05
4.93297e-05
0.000184082
0.000184064
0.000184065
0.000180717
0.000180743
0.000180723
0.000180729
5.5932e-05
4.84008e-05
0.000162798
0.000136473
5.63216e-05
4.90721e-05
0.000161519
2.37795e-05
2.37765e-05
5.59909e-05
0.000162787
4.84086e-05
0.000136448
5.62217e-05
0.000161504
4.90343e-05
4.91134e-05
4.91326e-05
0.000106149
4.98379e-05
4.98253e-05
4.85816e-05
4.9347e-05
4.75064e-05
4.93705e-05
2.37491e-05
2.37484e-05
4.86278e-05
4.93526e-05
4.74937e-05
4.93619e-05
0.000179637
0.000179617
0.000179624
0.000176332
0.000176356
0.000176334
0.000176346
5.54578e-05
5.03898e-05
0.000157742
0.000131024
5.55566e-05
5.11395e-05
0.000156505
2.37524e-05
2.374e-05
5.5432e-05
0.00015773
5.04809e-05
0.000130998
5.55004e-05
0.00015649
5.11518e-05
5.11772e-05
5.11954e-05
0.000101269
5.18441e-05
5.18518e-05
5.20495e-05
4.9384e-05
5.08823e-05
4.9405e-05
2.37258e-05
2.37224e-05
5.20683e-05
4.93893e-05
5.08781e-05
4.93969e-05
0.000175268
0.000175246
0.000175258
0.000172014
0.000172037
0.000172014
0.000172028
5.55126e-05
5.26283e-05
0.000152836
0.000125789
5.54343e-05
5.33332e-05
0.000151636
2.37275e-05
2.37186e-05
5.55344e-05
0.000152825
5.25836e-05
0.000125763
5.54063e-05
0.000151622
5.34114e-05
5.30594e-05
5.30603e-05
9.68731e-05
5.36687e-05
5.36637e-05
5.55333e-05
4.94171e-05
5.43302e-05
4.9437e-05
2.37066e-05
2.37019e-05
5.55916e-05
4.94218e-05
5.42988e-05
4.94289e-05
0.000170962
0.00017094
0.000170954
0.00016775
0.00016777
0.000167748
0.000167763
5.62161e-05
5.48624e-05
0.000148079
0.000120789
5.59956e-05
5.55905e-05
0.000146914
2.37054e-05
2.36997e-05
5.62238e-05
0.00014807
5.48403e-05
0.000120763
5.59316e-05
0.000146902
5.56462e-05
5.47655e-05
5.4775e-05
9.28792e-05
5.52943e-05
5.52897e-05
5.89468e-05
4.9448e-05
5.77391e-05
4.94644e-05
2.36888e-05
2.36845e-05
5.89938e-05
4.94514e-05
5.77173e-05
4.94586e-05
0.000166705
0.000166684
0.000166699
0.000163538
0.000163554
0.000163533
0.000163549
5.75585e-05
5.71674e-05
0.000143437
0.000116045
5.71071e-05
5.79333e-05
0.000142301
2.36871e-05
2.36826e-05
5.757e-05
0.000143428
5.71373e-05
0.000116019
5.70945e-05
0.000142289
5.79245e-05
5.62971e-05
5.62945e-05
8.96782e-05
5.67927e-05
5.67928e-05
6.21569e-05
4.94827e-05
6.09917e-05
4.94888e-05
2.36726e-05
2.36681e-05
6.22079e-05
4.948e-05
6.0955e-05
4.94863e-05
0.000162499
0.000162478
0.000162494
0.000159361
0.000159374
0.000159353
0.000159369
5.93765e-05
5.93859e-05
0.000138893
0.000111612
5.87289e-05
6.01293e-05
0.000137788
2.36706e-05
2.36666e-05
5.94088e-05
0.000138883
5.94249e-05
0.000111588
5.87126e-05
0.000137776
6.01772e-05
5.7697e-05
5.76911e-05
8.68824e-05
5.81167e-05
5.81154e-05
6.51014e-05
4.95091e-05
6.39831e-05
4.95147e-05
2.36573e-05
2.36535e-05
6.51311e-05
4.95068e-05
6.39761e-05
4.95123e-05
0.000158318
0.000158298
0.000158312
0.000155202
0.000155214
0.000155194
0.00015521
6.16381e-05
6.16217e-05
0.000134449
0.000107542
6.08632e-05
6.23164e-05
0.000133383
2.36556e-05
2.36516e-05
6.16606e-05
0.000134443
6.15958e-05
0.000107523
6.0801e-05
0.000133375
6.23444e-05
5.89498e-05
5.89468e-05
8.45789e-05
5.9334e-05
5.93325e-05
6.77102e-05
4.95331e-05
6.66963e-05
4.95422e-05
2.36435e-05
2.36399e-05
6.77177e-05
4.9532e-05
6.66926e-05
4.95372e-05
0.000154155
0.000154135
0.000154148
0.000151069
0.000151079
0.000151059
0.000151075
6.42061e-05
6.37275e-05
0.000130123
0.000103916
6.33016e-05
6.43969e-05
0.000129107
2.36414e-05
2.36377e-05
6.42367e-05
0.000130119
6.36964e-05
0.000103896
6.32718e-05
0.000129101
6.44252e-05
6.00857e-05
6.00693e-05
8.31866e-05
6.04348e-05
6.04524e-05
6.99619e-05
4.95509e-05
6.90914e-05
4.9565e-05
2.36304e-05
2.36269e-05
6.9986e-05
4.95548e-05
6.90983e-05
4.95589e-05
0.000150022
0.000150002
0.000150013
0.000146968
0.000146976
0.000146956
0.000146972
6.70352e-05
6.56899e-05
0.000125966
0.000100705
6.60783e-05
6.63495e-05
0.000124983
2.36279e-05
2.36245e-05
6.69845e-05
0.000125961
6.56979e-05
0.000100686
6.60457e-05
0.000124972
6.63635e-05
6.11127e-05
6.11026e-05
8.23328e-05
6.14269e-05
6.14263e-05
7.1912e-05
4.95721e-05
7.11483e-05
4.95799e-05
2.36173e-05
2.36139e-05
7.19347e-05
4.95746e-05
7.11431e-05
4.95782e-05
0.00014593
0.000145912
0.00014592
0.000142923
0.000142928
0.00014291
0.000142927
6.98886e-05
6.76078e-05
0.000121987
9.79908e-05
6.89343e-05
6.81978e-05
0.000121068
2.36148e-05
2.36114e-05
6.99401e-05
0.000121985
6.76027e-05
9.79737e-05
6.89317e-05
0.000121056
6.81908e-05
6.20387e-05
6.2034e-05
8.20492e-05
6.23219e-05
6.23225e-05
7.35204e-05
4.95899e-05
7.28655e-05
4.95948e-05
2.36042e-05
2.36006e-05
7.35421e-05
4.95877e-05
7.28632e-05
4.95935e-05
0.000141898
0.000141882
0.000141886
0.000138963
0.000138964
0.000138949
0.000138967
7.2725e-05
6.93193e-05
0.000118254
9.57837e-05
7.18427e-05
6.98976e-05
0.000117409
2.36017e-05
2.35982e-05
7.27301e-05
0.000118255
6.9339e-05
9.57693e-05
7.17837e-05
0.000117399
6.98586e-05
6.28694e-05
6.28614e-05
8.20755e-05
6.31337e-05
6.31228e-05
7.48673e-05
4.96007e-05
7.42983e-05
4.96044e-05
2.35905e-05
2.35866e-05
7.48771e-05
4.95993e-05
7.4306e-05
4.96028e-05
0.000137957
0.000137944
0.000137945
0.000135124
0.000135119
0.000135106
0.000135123
7.5385e-05
7.08772e-05
0.000114838
9.40843e-05
7.45081e-05
7.13818e-05
0.000114082
2.35881e-05
2.35842e-05
7.53279e-05
0.00011484
7.08799e-05
9.40708e-05
7.45112e-05
0.000114078
7.13958e-05
6.35963e-05
6.35997e-05
8.26037e-05
6.38313e-05
6.38277e-05
7.5999e-05
4.96066e-05
7.54951e-05
4.96065e-05
2.35756e-05
2.35711e-05
7.5986e-05
4.96047e-05
7.54932e-05
4.96043e-05
0.000134132
0.000134121
0.000134125
0.000131464
0.00013146
0.000131451
0.000131467
7.77037e-05
7.22909e-05
0.000111734
9.28743e-05
7.69456e-05
7.27433e-05
0.000111117
2.3573e-05
2.35685e-05
7.76762e-05
0.00011174
7.22905e-05
9.28632e-05
7.69326e-05
0.000111115
7.27175e-05
6.42361e-05
6.42345e-05
8.34223e-05
6.4445e-05
6.44384e-05
7.6941e-05
4.96021e-05
7.65067e-05
4.95992e-05
2.35588e-05
2.35538e-05
7.69291e-05
4.95998e-05
7.652e-05
4.95975e-05
0.000130493
0.000130483
0.000130487
0.000128012
0.000128009
0.000128
0.000128019
7.97428e-05
7.34794e-05
0.000109035
9.21127e-05
7.90802e-05
7.38479e-05
0.000108541
2.35561e-05
2.35508e-05
7.97044e-05
0.000109039
7.34877e-05
9.21005e-05
7.90494e-05
0.000108534
7.38883e-05
6.47861e-05
6.47867e-05
8.43984e-05
6.49585e-05
6.49638e-05
7.76774e-05
4.95903e-05
7.73319e-05
4.95872e-05
2.354e-05
2.35342e-05
7.76977e-05
4.95882e-05
7.73714e-05
4.95862e-05
0.000127091
0.000127081
0.000127086
0.000124839
0.000124839
0.00012483
0.000124852
8.14729e-05
7.45217e-05
0.000106746
9.17421e-05
8.08497e-05
7.48217e-05
0.00010637
2.3537e-05
2.35312e-05
8.13773e-05
0.000106751
7.45015e-05
9.1732e-05
8.0832e-05
0.000106366
7.48318e-05
6.52358e-05
6.52416e-05
8.55242e-05
6.53934e-05
6.54018e-05
7.82748e-05
4.9571e-05
7.80155e-05
4.95685e-05
2.35196e-05
2.35136e-05
7.83326e-05
4.957e-05
7.80568e-05
4.9565e-05
0.000123985
0.000123974
0.000123983
0.000121992
0.000121994
0.000121982
0.000122009
8.29528e-05
7.53699e-05
0.000104875
9.17045e-05
8.24319e-05
7.56455e-05