/*--------------------------------*- C++ -*----------------------------------*\
| =========                 |                                                 |
| \\      /  F ield         | OpenFOAM: The Open Source CFD Toolbox           |
|  \\    /   O peration     | Version:  v2012                                 |
|   \\  /    A nd           | Website:  www.openfoam.com                      |
|    \\/     M anipulation  |                                                 |
\*---------------------------------------------------------------------------*/
FoamFile
{
    version     2.0;
    format      ascii;
    class       volScalarField;
    location    "150";
    object      epsilon;
}
// * * * * * * * * * * * * * * * * * * * * * * * * * * * * * * * * * * * * * //

dimensions      [0 2 -3 0 0 0 0];


internalField   nonuniform List<scalar> 
171728
(
2.14831e-08
5.53004e-09
5.54743e-09
4.9836e-09
2.14585e-08
5.35537e-09
5.33234e-09
4.57156e-09
2.19848e-08
5.22318e-09
5.17657e-09
4.22563e-09
2.2546e-08
5.15397e-09
5.07815e-09
3.94379e-09
2.31355e-08
5.15148e-09
5.04004e-09
3.72114e-09
2.3751e-08
5.21301e-09
5.06702e-09
3.53727e-09
2.43812e-08
5.33984e-09
5.1687e-09
3.3673e-09
2.50231e-08
5.52013e-09
5.3431e-09
3.24055e-09
2.56706e-08
5.76605e-09
5.58791e-09
3.18062e-09
2.63236e-08
6.08922e-09
5.90766e-09
3.19592e-09
2.69748e-08
6.50172e-09
6.30326e-09
3.32876e-09
2.76238e-08
7.00099e-09
6.77278e-09
3.53916e-09
2.82689e-08
7.60492e-09
7.32043e-09
3.83574e-09
2.8911e-08
8.33597e-09
7.94633e-09
4.23745e-09
2.95448e-08
9.19415e-09
8.71314e-09
4.75669e-09
3.01764e-08
1.02266e-08
9.67861e-09
5.44955e-09
3.08224e-08
1.15198e-08
1.09241e-08
6.44179e-09
3.14718e-08
1.31673e-08
1.25407e-08
7.89839e-09
3.21656e-08
1.53057e-08
1.47219e-08
1.02621e-08
3.29062e-08
1.81818e-08
1.77099e-08
1.40827e-08
3.36971e-08
2.21845e-08
2.18364e-08
1.98926e-08
3.46443e-08
2.75611e-08
2.76087e-08
2.99256e-08
3.5756e-08
3.5116e-08
3.54001e-08
4.64119e-08
3.71749e-08
4.54812e-08
4.60079e-08
7.05458e-08
3.88775e-08
5.92713e-08
6.03334e-08
1.0528e-07
4.10573e-08
7.66859e-08
7.82686e-08
1.55494e-07
4.37797e-08
9.84921e-08
1.00382e-07
2.1729e-07
4.72687e-08
1.23297e-07
1.2648e-07
2.86376e-07
5.16523e-08
1.51288e-07
1.55752e-07
3.59535e-07
5.75693e-08
1.83787e-07
1.87159e-07
4.31272e-07
6.62351e-08
2.23945e-07
2.25697e-07
5.0104e-07
7.93795e-08
2.75696e-07
2.76768e-07
5.68521e-07
9.90632e-08
3.4188e-07
3.42553e-07
6.36966e-07
1.25242e-07
4.16605e-07
4.16941e-07
7.0708e-07
1.5511e-07
4.85621e-07
4.85806e-07
7.681e-07
1.8371e-07
5.38212e-07
5.38341e-07
8.12975e-07
2.04589e-07
5.69114e-07
5.6923e-07
8.39184e-07
2.15384e-07
5.81697e-07
5.81808e-07
8.49139e-07
2.19592e-07
5.85809e-07
5.85913e-07
8.524e-07
2.20911e-07
5.86956e-07
5.87057e-07
8.53444e-07
2.21248e-07
5.87238e-07
5.87338e-07
8.53764e-07
2.21305e-07
5.87237e-07
5.87341e-07
8.5366e-07
2.21316e-07
5.8723e-07
5.87334e-07
8.53583e-07
2.21319e-07
5.87256e-07
5.87359e-07
8.53767e-07
2.21318e-07
5.87235e-07
5.87339e-07
8.53546e-07
2.21322e-07
5.87246e-07
5.87349e-07
8.53793e-07
2.21322e-07
5.87244e-07
5.87347e-07
8.53565e-07
2.21324e-07
5.87244e-07
5.87347e-07
8.53657e-07
2.21324e-07
5.87246e-07
5.87349e-07
8.53745e-07
2.21325e-07
5.87252e-07
5.87353e-07
8.53719e-07
2.21326e-07
5.87247e-07
5.87349e-07
8.53623e-07
2.21327e-07
5.87247e-07
5.87351e-07
8.53617e-07
2.21327e-07
5.87251e-07
5.87352e-07
8.53638e-07
2.21327e-07
5.87247e-07
5.87349e-07
8.53672e-07
2.21327e-07
5.87248e-07
5.87349e-07
8.53622e-07
2.21328e-07
5.87254e-07
5.87354e-07
8.5367e-07
2.21328e-07
5.8725e-07
5.87351e-07
8.53756e-07
2.21328e-07
5.87247e-07
5.87348e-07
8.5358e-07
2.21328e-07
5.87253e-07
5.87349e-07
8.53607e-07
2.21329e-07
5.87252e-07
5.87349e-07
8.53735e-07
2.21329e-07
5.87246e-07
5.87349e-07
8.53641e-07
2.21329e-07
5.87251e-07
5.87351e-07
8.53616e-07
2.21329e-07
5.87254e-07
5.87353e-07
8.53677e-07
2.2133e-07
5.87252e-07
5.87351e-07
8.53757e-07
2.21329e-07
5.8725e-07
5.87347e-07
8.53806e-07
2.2133e-07
5.87248e-07
5.8735e-07
8.5379e-07
2.21329e-07
5.8725e-07
5.87351e-07
8.53734e-07
2.21329e-07
5.87251e-07
5.87352e-07
8.53704e-07
2.21329e-07
5.87252e-07
5.87352e-07
8.53721e-07
2.21329e-07
5.87251e-07
5.8735e-07
8.53695e-07
2.21328e-07
5.87249e-07
5.87348e-07
8.53646e-07
2.21328e-07
5.87249e-07
5.87347e-07
8.53647e-07
2.21327e-07
5.87249e-07
5.87345e-07
8.53673e-07
2.21327e-07
5.87249e-07
5.87347e-07
8.5369e-07
2.21327e-07
5.87248e-07
5.87347e-07
8.5369e-07
2.21327e-07
5.87247e-07
5.87344e-07
8.53686e-07
2.21327e-07
5.87246e-07
5.87343e-07
8.53689e-07
2.21327e-07
5.87244e-07
5.87343e-07
8.53706e-07
2.21327e-07
5.87243e-07
5.87343e-07
8.53713e-07
2.21327e-07
5.87243e-07
5.87341e-07
8.53698e-07
2.21326e-07
5.87244e-07
5.8734e-07
8.53684e-07
2.21326e-07
5.87244e-07
5.87342e-07
8.53693e-07
2.21326e-07
5.87246e-07
5.87343e-07
8.53711e-07
2.21326e-07
5.87248e-07
5.87344e-07
8.53703e-07
2.21326e-07
5.8725e-07
5.87347e-07
8.53682e-07
2.21326e-07
5.87253e-07
5.87351e-07
8.53678e-07
2.21326e-07
5.87259e-07
5.87355e-07
8.53692e-07
2.21326e-07
5.87265e-07
5.87359e-07
8.53694e-07
2.21326e-07
5.8727e-07
5.87369e-07
8.53689e-07
2.21327e-07
5.87279e-07
5.87376e-07
8.53682e-07
2.21326e-07
5.87291e-07
5.87384e-07
8.53671e-07
2.21328e-07
5.87305e-07
5.87403e-07
8.53669e-07
2.21323e-07
5.87317e-07
5.87413e-07
8.53634e-07
2.20996e-07
5.87125e-07
5.87212e-07
8.53302e-07
2.10391e-07
5.46604e-07
5.46621e-07
8.11019e-07
5.48432e-09
4.74808e-09
4.08826e-09
5.02176e-09
4.33697e-09
4.30608e-09
2.20769e-08
2.21236e-08
2.21193e-08
2.232e-08
4.54076e-09
4.15554e-09
5.4328e-09
4.75137e-09
4.82167e-09
5.04803e-09
5.45702e-09
5.01121e-09
5.59353e-09
4.7522e-09
5.38807e-09
4.62786e-09
4.96299e-09
4.59997e-09
4.4465e-09
4.35908e-09
4.35421e-09
4.26682e-09
4.94105e-09
5.39777e-09
4.80669e-09
5.40858e-09
4.98621e-09
5.77383e-09
5.3812e-09
5.59511e-09
4.63744e-09
4.95321e-09
4.58627e-09
5.3273e-09
4.59243e-09
5.18783e-09
4.51899e-09
4.52912e-09
4.22487e-09
4.32961e-09
4.24347e-09
4.27691e-09
4.2021e-09
4.76776e-09
5.25153e-09
4.67866e-09
4.93318e-09
4.58003e-09
5.54458e-09
5.2094e-09
5.41735e-09
4.28422e-09
4.52027e-09
4.21756e-09
5.1521e-09
4.50594e-09
5.07047e-09
4.48439e-09
4.16704e-09
3.94606e-09
4.2657e-09
4.19607e-09
4.25081e-09
4.19765e-09
4.65423e-09
5.16766e-09
4.60387e-09
4.51852e-09
4.23789e-09
5.38197e-09
5.09605e-09
5.29872e-09
3.99304e-09
4.15858e-09
3.91625e-09
5.04749e-09
4.48487e-09
4.99852e-09
4.49865e-09
3.90079e-09
3.74152e-09
4.25147e-09
4.20179e-09
4.26625e-09
4.2419e-09
4.59027e-09
5.14787e-09
4.57961e-09
4.18379e-09
3.96258e-09
5.28093e-09
5.04045e-09
5.2383e-09
3.76314e-09
3.86674e-09
3.66381e-09
4.98656e-09
4.51035e-09
4.98693e-09
4.5591e-09
3.70496e-09
3.58063e-09
4.27638e-09
4.26315e-09
4.32137e-09
4.34818e-09
4.58185e-09
5.19408e-09
4.6111e-09
3.91839e-09
3.7479e-09
5.23763e-09
5.05621e-09
5.25134e-09
3.57513e-09
3.62095e-09
3.45365e-09
4.99307e-09
4.58056e-09
5.04606e-09
4.66968e-09
3.54695e-09
3.43199e-09
4.34266e-09
4.38403e-09
4.42867e-09
4.51727e-09
4.63015e-09
5.30893e-09
4.72029e-09
3.71103e-09
3.57112e-09
5.26627e-09
5.14179e-09
5.3406e-09
3.40181e-09
3.41593e-09
3.27341e-09
5.07172e-09
4.70817e-09
5.17668e-09
4.84479e-09
3.40236e-09
3.30043e-09
4.46422e-09
4.56897e-09
4.59079e-09
4.74687e-09
4.7597e-09
5.4741e-09
4.91274e-09
3.53988e-09
3.43547e-09
5.37736e-09
5.29688e-09
5.53209e-09
3.26434e-09
3.24131e-09
3.13293e-09
5.22105e-09
4.90148e-09
5.38811e-09
5.09207e-09
3.27262e-09
3.20164e-09
4.63979e-09
4.81426e-09
4.80746e-09
5.03737e-09
4.97363e-09
5.70106e-09
5.18526e-09
3.41163e-09
3.35061e-09
5.59692e-09
5.52428e-09
5.82581e-09
3.19204e-09
3.1068e-09
3.03896e-09
5.45417e-09
5.16513e-09
5.68429e-09
5.41645e-09
3.18395e-09
3.1648e-09
4.87006e-09
5.12151e-09
5.08394e-09
5.39477e-09
5.26537e-09
6.00549e-09
5.53189e-09
3.34029e-09
3.34095e-09
5.91332e-09
5.82596e-09
6.20803e-09
3.19718e-09
3.02822e-09
3.01961e-09
5.76988e-09
5.50988e-09
6.05998e-09
5.81835e-09
3.15729e-09
3.20638e-09
5.16708e-09
5.49483e-09
5.44915e-09
5.82228e-09
5.63326e-09
6.39895e-09
5.96431e-09
3.34036e-09
3.40734e-09
6.31866e-09
6.20178e-09
6.69379e-09
3.31134e-09
3.0196e-09
3.09558e-09
6.16749e-09
5.93646e-09
6.53665e-09
6.31962e-09
3.21509e-09
3.33574e-09
5.55608e-09
5.94115e-09
5.92176e-09
6.33722e-09
6.08732e-09
6.87105e-09
6.49929e-09
3.41929e-09
3.54416e-09
6.83226e-09
6.65562e-09
7.28858e-09
3.50614e-09
3.11397e-09
3.28595e-09
6.67391e-09
6.45284e-09
7.13396e-09
6.90184e-09
3.35893e-09
3.55057e-09
6.05731e-09
6.47962e-09
6.51009e-09
6.93889e-09
6.64713e-09
7.4507e-09
7.12766e-09
3.56865e-09
3.7441e-09
7.45475e-09
7.18349e-09
7.98964e-09
3.78624e-09
3.3243e-09
3.58953e-09
7.30088e-09
7.06818e-09
7.8575e-09
7.58424e-09
3.59071e-09
3.86587e-09
6.67463e-09
7.10569e-09
7.21827e-09
7.63553e-09
7.30246e-09
8.14701e-09
7.86735e-09
3.78151e-09
4.00302e-09
8.18007e-09
7.78514e-09
8.79893e-09
4.16349e-09
3.6539e-09
4.03725e-09
8.05818e-09
7.76729e-09
8.71029e-09
8.37122e-09
3.93098e-09
4.30734e-09
7.41808e-09
7.82762e-09
8.0699e-09
8.45382e-09
8.07175e-09
8.97414e-09
8.73226e-09
4.05748e-09
4.35171e-09
9.02478e-09
8.5152e-09
9.75696e-09
4.65277e-09
4.13915e-09
4.68791e-09
8.94794e-09
8.59996e-09
9.73716e-09
9.3571e-09
4.40755e-09
4.92593e-09
8.30749e-09
8.67386e-09
9.11524e-09
9.43051e-09
8.96844e-09
9.95517e-09
9.76542e-09
4.43561e-09
4.85666e-09
1.00153e-08
9.41906e-09
1.08676e-08
5.29683e-09
4.84879e-09
5.63426e-09
1.00197e-08
9.62931e-09
1.09676e-08
1.05351e-08
5.07966e-09
5.83263e-09
9.4108e-09
9.71409e-09
1.03845e-08
1.06232e-08
1.00583e-08
1.11768e-08
1.10191e-08
4.98957e-09
5.62556e-09
1.11826e-08
1.05898e-08
1.2234e-08
6.20061e-09
5.88313e-09
7.03615e-09
1.13301e-08
1.08796e-08
1.25576e-08
1.20557e-08
6.07708e-09
7.19797e-09
1.07573e-08
1.09742e-08
1.20083e-08
1.21858e-08
1.1384e-08
1.27191e-08
1.25948e-08
5.84824e-09
6.84926e-09
1.26144e-08
1.20999e-08
1.3884e-08
7.52011e-09
7.4345e-09
9.23309e-09
1.3018e-08
1.25013e-08
1.46318e-08
1.40614e-08
7.59067e-09
9.33231e-09
1.24776e-08
1.26361e-08
1.40929e-08
1.42373e-08
1.30484e-08
1.47339e-08
1.46357e-08
7.21227e-09
8.86427e-09
1.43879e-08
1.41234e-08
1.61304e-08
9.64695e-09
9.87621e-09
1.28324e-08
1.52636e-08
1.4667e-08
1.74846e-08
1.68097e-08
9.9555e-09
1.27619e-08
1.47089e-08
1.48494e-08
1.68897e-08
1.69694e-08
1.52405e-08
1.73866e-08
1.73953e-08
9.47259e-09
1.21983e-08
1.6759e-08
1.68916e-08
1.89898e-08
1.30711e-08
1.38895e-08
1.88321e-08
1.83531e-08
1.76471e-08
2.14171e-08
2.0609e-08
1.37782e-08
1.85031e-08
1.77469e-08
1.78468e-08
2.07648e-08
2.07663e-08
1.82393e-08
2.1075e-08
2.11871e-08
1.32008e-08
1.78539e-08
1.98449e-08
2.06792e-08
2.25501e-08
1.83724e-08
2.05434e-08
2.85091e-08
2.25727e-08
2.17605e-08
2.66683e-08
2.58256e-08
2.01705e-08
2.78341e-08
2.19315e-08
2.18732e-08
2.60465e-08
2.60411e-08
2.23792e-08
2.60628e-08
2.66465e-08
1.94547e-08
2.73257e-08
2.35099e-08
2.59978e-08
2.69151e-08
2.73644e-08
3.11443e-08
4.36821e-08
2.83187e-08
2.74208e-08
3.39424e-08
3.30307e-08
3.03885e-08
4.25402e-08
2.76524e-08
2.76265e-08
3.32262e-08
3.29872e-08
2.82871e-08
3.30055e-08
3.42351e-08
2.99675e-08
4.22751e-08
2.83447e-08
3.32412e-08
3.34956e-08
4.24325e-08
4.76495e-08
6.6606e-08
3.60131e-08
3.52068e-08
4.30939e-08
4.28546e-08
4.644e-08
6.54356e-08
3.53473e-08
3.51402e-08
4.28286e-08
4.29643e-08
3.65733e-08
4.25906e-08
4.41392e-08
4.61463e-08
6.48139e-08
3.54951e-08
4.3048e-08
4.27019e-08
6.49813e-08
7.23621e-08
1.00198e-07
4.58206e-08
4.5815e-08
5.54684e-08
5.60728e-08
7.12347e-08
9.9426e-08
4.57812e-08
4.59846e-08
5.60676e-08
5.61481e-08
4.68437e-08
5.55282e-08
5.61381e-08
7.05417e-08
9.90901e-08
4.55333e-08
5.64214e-08
5.55283e-08
9.73757e-08
1.08277e-07
1.47194e-07
5.92098e-08
5.99468e-08
7.19323e-08
7.29789e-08
1.07566e-07
1.46506e-07
5.99487e-08
5.98997e-08
7.28987e-08
7.24691e-08
5.97477e-08
7.19435e-08
7.21668e-08
1.07356e-07
1.46689e-07
5.94548e-08
7.34295e-08
7.28772e-08
1.44644e-07
1.57827e-07
2.06708e-07
7.66866e-08
7.7827e-08
9.26838e-08
9.39998e-08
1.57165e-07
2.06686e-07
7.76554e-08
7.71927e-08
9.34078e-08
9.32291e-08
7.6815e-08
9.27053e-08
9.22721e-08
1.57327e-07
2.06496e-07
7.77745e-08
9.4492e-08
9.36329e-08
2.0468e-07
2.19469e-07
2.75367e-07
9.85219e-08
9.98554e-08
1.17148e-07
1.18553e-07
2.19627e-07
2.76012e-07
9.91482e-08
9.91113e-08
1.17639e-07
1.17912e-07
9.78713e-08
1.16863e-07
1.15895e-07
2.19351e-07
2.762e-07
9.93067e-08
1.19585e-07
1.17447e-07
2.72491e-07
2.89286e-07
3.46646e-07
1.23699e-07
1.25147e-07
1.44473e-07
1.45974e-07
2.89947e-07
3.47472e-07
1.24182e-07
1.24506e-07
1.44861e-07
1.4517e-07
1.22373e-07
1.43945e-07
1.43333e-07
2.90416e-07
3.49338e-07
1.23897e-07
1.48289e-07
1.44589e-07
3.45061e-07
3.60708e-07
4.16561e-07
1.51807e-07
1.53233e-07
1.75424e-07
1.7641e-07
3.61616e-07
4.17716e-07
1.52154e-07
1.52392e-07
1.7574e-07
1.75679e-07
1.508e-07
1.7513e-07
1.74811e-07
3.63528e-07
4.18482e-07
1.51938e-07
1.7894e-07
1.75604e-07
4.16965e-07
4.30725e-07
4.86143e-07
1.84006e-07
1.84815e-07
2.12942e-07
2.13413e-07
4.31862e-07
4.86867e-07
1.84364e-07
1.84212e-07
2.13454e-07
2.13211e-07
1.83508e-07
2.12967e-07
2.12745e-07
4.32267e-07
4.86411e-07
1.84203e-07
2.15035e-07
2.13185e-07
4.86828e-07
5.00389e-07
5.54258e-07
2.23901e-07
2.24298e-07
2.61472e-07
2.61762e-07
5.01034e-07
5.54473e-07
2.24437e-07
2.24218e-07
2.61922e-07
2.61856e-07
2.23774e-07
2.61481e-07
2.61434e-07
5.00549e-07
5.54404e-07
2.24136e-07
2.62661e-07
2.61594e-07
5.54596e-07
5.68263e-07
6.22417e-07
2.75746e-07
2.75999e-07
3.24241e-07
3.24379e-07
5.6841e-07
6.22307e-07
2.76138e-07
2.76126e-07
3.24408e-07
3.24572e-07
2.75708e-07
3.24071e-07
3.24186e-07
5.68407e-07
6.22611e-07
2.75819e-07
3.24841e-07
3.24181e-07
6.22453e-07
6.36959e-07
6.92919e-07
3.42086e-07
3.42192e-07
3.98116e-07
3.98174e-07
6.3683e-07
6.92772e-07
3.42187e-07
3.42395e-07
3.9807e-07
3.98354e-07
3.42032e-07
3.97893e-07
3.98095e-07
6.37142e-07
6.93097e-07
3.41998e-07
3.98294e-07
3.98004e-07
6.92954e-07
7.07046e-07
7.56161e-07
4.16832e-07
4.16887e-07
4.69825e-07
4.69881e-07
7.06912e-07
7.56045e-07
4.16763e-07
4.17048e-07
4.69718e-07
4.69985e-07
4.16826e-07
4.69615e-07
4.69861e-07
7.07205e-07
7.5628e-07
4.16724e-07
4.6982e-07
4.6974e-07
7.56237e-07
7.68034e-07
8.04079e-07
4.85826e-07
4.85883e-07
5.27137e-07
5.27195e-07
7.67926e-07
8.03974e-07
4.85721e-07
4.85974e-07
5.27033e-07
5.27258e-07
4.85872e-07
5.26953e-07
5.27198e-07
7.68134e-07
8.04159e-07
4.8575e-07
5.27088e-07
5.27081e-07
8.04163e-07
8.12899e-07
8.33672e-07
5.3839e-07
5.38448e-07
5.63641e-07
5.63701e-07
8.12801e-07
8.33581e-07
5.38291e-07
5.38506e-07
5.63543e-07
5.63743e-07
5.38452e-07
5.63468e-07
5.63708e-07
8.12967e-07
8.3373e-07
5.38339e-07
5.63583e-07
5.63599e-07
8.33755e-07
8.39103e-07
8.46057e-07
5.69281e-07
5.69342e-07
5.79836e-07
5.79898e-07
8.39017e-07
8.45969e-07
5.69188e-07
5.6938e-07
5.79746e-07
5.7993e-07
5.69349e-07
5.79672e-07
5.79908e-07
8.39153e-07
8.46112e-07
5.69241e-07
5.79782e-07
5.79803e-07
8.46145e-07
8.49053e-07
8.50033e-07
5.81853e-07
5.81917e-07
5.85349e-07
5.85412e-07
8.4897e-07
8.49949e-07
5.81768e-07
5.81947e-07
5.85264e-07
5.85441e-07
5.81925e-07
5.85194e-07
5.8542e-07
8.491e-07
8.50083e-07
5.81821e-07
5.85297e-07
5.85318e-07
8.50116e-07
8.52316e-07
8.51341e-07
5.85959e-07
5.86022e-07
5.86942e-07
5.87005e-07
8.52237e-07
8.51257e-07
5.85876e-07
5.86051e-07
5.86859e-07
5.87035e-07
5.86029e-07
5.86791e-07
5.87012e-07
8.52358e-07
8.51389e-07
5.8593e-07
5.86891e-07
5.8691e-07
8.51424e-07
8.53363e-07
8.51655e-07
5.87107e-07
5.87169e-07
5.87357e-07
5.87422e-07
8.53283e-07
8.51575e-07
5.87023e-07
5.87197e-07
5.87273e-07
5.87451e-07
5.87173e-07
5.87207e-07
5.87427e-07
8.53403e-07
8.51698e-07
5.87078e-07
5.87307e-07
5.87329e-07
8.51732e-07
8.53683e-07
8.51621e-07
5.87384e-07
5.87447e-07
5.87396e-07
5.87457e-07
8.53611e-07
8.51542e-07
5.87307e-07
5.87479e-07
5.87318e-07
5.8749e-07
5.87454e-07
5.87244e-07
5.87466e-07
8.53724e-07
8.51666e-07
5.87356e-07
5.87347e-07
5.87368e-07
8.517e-07
8.53577e-07
8.51512e-07
5.87387e-07
5.87449e-07
5.87379e-07
5.8744e-07
8.53502e-07
8.5143e-07
5.8731e-07
5.87482e-07
5.87303e-07
5.87475e-07
5.87458e-07
5.87228e-07
5.8745e-07
8.53621e-07
8.51552e-07
5.8736e-07
5.87331e-07
5.87352e-07
8.51586e-07
8.53504e-07
8.51678e-07
5.87378e-07
5.8744e-07
5.87402e-07
5.87465e-07
8.53426e-07
8.51601e-07
5.87303e-07
5.87474e-07
5.87329e-07
5.875e-07
5.8745e-07
5.87253e-07
5.87475e-07
8.53543e-07
8.51725e-07
5.87352e-07
5.87357e-07
5.87378e-07
8.51761e-07
8.53683e-07
8.51518e-07
5.87403e-07
5.87465e-07
5.87388e-07
5.87449e-07
8.53609e-07
8.51428e-07
5.8733e-07
5.875e-07
5.87313e-07
5.87484e-07
5.87475e-07
5.87236e-07
5.8746e-07
8.53725e-07
8.5155e-07
5.87378e-07
5.8734e-07
5.87362e-07
8.51582e-07
8.5347e-07
8.51702e-07
5.87385e-07
5.87446e-07
5.87396e-07
5.87456e-07
8.53387e-07
8.51624e-07
5.8731e-07
5.87481e-07
5.87318e-07
5.8749e-07
5.87457e-07
5.87243e-07
5.87466e-07
8.53506e-07
8.51748e-07
5.87359e-07
5.87347e-07
5.87369e-07
8.51783e-07
8.53718e-07
8.51476e-07
5.87394e-07
5.87454e-07
5.87395e-07
5.87454e-07
8.53639e-07
8.51396e-07
5.87318e-07
5.87489e-07
5.87318e-07
5.8749e-07
5.87464e-07
5.87242e-07
5.87465e-07
8.53752e-07
8.51525e-07
5.87367e-07
5.87345e-07
5.87368e-07
8.51557e-07
8.53471e-07
8.5168e-07
5.87395e-07
5.87453e-07
5.87398e-07
5.87454e-07
8.53405e-07
8.51566e-07
5.87317e-07
5.87488e-07
5.87317e-07
5.87489e-07
5.87464e-07
5.87243e-07
5.87465e-07
8.53531e-07
8.51673e-07
5.87366e-07
5.87346e-07
5.87368e-07
8.5172e-07
8.53611e-07
8.51656e-07
5.87396e-07
5.87452e-07
5.87403e-07
5.87459e-07
8.53501e-07
8.51589e-07
5.87317e-07
5.87488e-07
5.8732e-07
5.87495e-07
5.87463e-07
5.87249e-07
5.87471e-07
8.53606e-07
8.51706e-07
5.87367e-07
5.87352e-07
5.87374e-07
8.51751e-07
8.53674e-07
8.51551e-07
5.87401e-07
5.87455e-07
5.87402e-07
5.87458e-07
8.53579e-07
8.51549e-07
5.87319e-07
5.87491e-07
5.87319e-07
5.87495e-07
5.87466e-07
5.87247e-07
5.87468e-07
8.53679e-07
8.51685e-07
5.8737e-07
5.87349e-07
5.8737e-07
8.51677e-07
8.5359e-07
8.51532e-07
5.87402e-07
5.87458e-07
5.87406e-07
5.87457e-07
8.53584e-07
8.51466e-07
5.87319e-07
5.87494e-07
5.87319e-07
5.87495e-07
5.87469e-07
5.87244e-07
5.87466e-07
8.53693e-07
8.5164e-07
5.87371e-07
5.87347e-07
5.87369e-07
8.51603e-07
8.53514e-07
8.51624e-07
5.87405e-07
5.87457e-07
5.87407e-07
5.87457e-07
8.53506e-07
8.51459e-07
5.87319e-07
5.87495e-07
5.8732e-07
5.87494e-07
5.87466e-07
5.87248e-07
5.8747e-07
8.5366e-07
8.51621e-07
5.87369e-07
5.8735e-07
5.87373e-07
8.51642e-07
8.53575e-07
8.51654e-07
5.87407e-07
5.87457e-07
5.87411e-07
5.87458e-07
8.53454e-07
8.51504e-07
5.8732e-07
5.87494e-07
5.8732e-07
5.87493e-07
5.87468e-07
5.87249e-07
5.8747e-07
8.5364e-07
8.51597e-07
5.87371e-07
5.87349e-07
5.87371e-07
8.51679e-07
8.53622e-07
8.51645e-07
5.87408e-07
5.87456e-07
5.87414e-07
5.8746e-07
8.53474e-07
8.51506e-07
5.87318e-07
5.87492e-07
5.87323e-07
5.87497e-07
5.87468e-07
5.87247e-07
5.8747e-07
8.53616e-07
8.5158e-07
5.8737e-07
5.87348e-07
5.87373e-07
8.51708e-07
8.53636e-07
8.51628e-07
5.87411e-07
5.87457e-07
5.87414e-07
5.87463e-07
8.53462e-07
8.5157e-07
5.87319e-07
5.87494e-07
5.87322e-07
5.87497e-07
5.87467e-07
5.87253e-07
5.87472e-07
8.53574e-07
8.51619e-07
5.87369e-07
5.87352e-07
5.87373e-07
8.5166e-07
8.53625e-07
8.51643e-07
5.87412e-07
5.87458e-07
5.87414e-07
5.87461e-07
8.53505e-07
8.51606e-07
5.87321e-07
5.87495e-07
5.87319e-07
5.87495e-07
5.8747e-07
5.87251e-07
5.87474e-07
8.53585e-07
8.51642e-07
5.8737e-07
5.87352e-07
5.87375e-07
8.51741e-07
8.53652e-07
8.5159e-07
5.87414e-07
5.8746e-07
5.87412e-07
5.87457e-07
8.53597e-07
8.51501e-07
5.87319e-07
5.87495e-07
5.87319e-07
5.87493e-07
5.87471e-07
5.87247e-07
5.87469e-07
8.53628e-07
8.51593e-07
5.87371e-07
5.87347e-07
5.87369e-07
8.51725e-07
8.5363e-07
8.51518e-07
5.87412e-07
5.87456e-07
5.87412e-07
5.87459e-07
8.53514e-07
8.51558e-07
5.87319e-07
5.87493e-07
5.87317e-07
5.87494e-07
5.8747e-07
5.87249e-07
5.87467e-07
8.53598e-07
8.51612e-07
5.8737e-07
5.87347e-07
5.87366e-07
8.5157e-07
8.5352e-07
8.5162e-07
5.87411e-07
5.87456e-07
5.87419e-07
5.8746e-07
8.5351e-07
8.51553e-07
5.87316e-07
5.87492e-07
5.87323e-07
5.87495e-07
5.87466e-07
5.87254e-07
5.87475e-07
8.53589e-07
8.51618e-07
5.87365e-07
5.87349e-07
5.87372e-07
8.5168e-07
8.53603e-07
8.51542e-07
5.87415e-07
5.87457e-07
5.87415e-07
5.87459e-07
8.53549e-07
8.51503e-07
5.8732e-07
5.87492e-07
5.87319e-07
5.87494e-07
5.87468e-07
5.87247e-07
5.87471e-07
8.53622e-07
8.51553e-07
5.87365e-07
5.87348e-07
5.87372e-07
8.51748e-07
8.53563e-07
8.51596e-07
5.87414e-07
5.87456e-07
5.87416e-07
5.87459e-07
8.53492e-07
8.51525e-07
5.87319e-07
5.87492e-07
5.8732e-07
5.87495e-07
5.87472e-07
5.87247e-07
5.87467e-07
8.53547e-07
8.51639e-07
5.87371e-07
5.87349e-07
5.87367e-07
8.51637e-07
8.53549e-07
8.51668e-07
5.87414e-07
5.87457e-07
5.87417e-07
5.87458e-07
8.53486e-07
8.51566e-07
5.87319e-07
5.87493e-07
5.87319e-07
5.87494e-07
5.87466e-07
5.87253e-07
5.87472e-07
8.53582e-07
8.51709e-07
5.87367e-07
5.8735e-07
5.87367e-07
8.51659e-07
8.53631e-07
8.51655e-07
5.87415e-07
5.87457e-07
5.87417e-07
5.87458e-07
8.53537e-07
8.51559e-07
5.87319e-07
5.87494e-07
5.87319e-07
5.87495e-07
5.8747e-07
5.87251e-07
5.8747e-07
8.53663e-07
8.51703e-07
5.87366e-07
5.8735e-07
5.87368e-07
8.51734e-07
8.53654e-07
8.51602e-07
5.87417e-07
5.87458e-07
5.87418e-07
5.87458e-07
8.53565e-07
8.51518e-07
5.87317e-07
5.87493e-07
5.87321e-07
5.87497e-07
5.8747e-07
5.87249e-07
5.8747e-07
8.53712e-07
8.51599e-07
5.87364e-07
5.87347e-07
5.87373e-07
8.51784e-07
8.53633e-07
8.51547e-07
5.87418e-07
5.87457e-07
5.87422e-07
5.8746e-07
8.53552e-07
8.51428e-07
5.87319e-07
5.87495e-07
5.87319e-07
5.87495e-07
5.87468e-07
5.87248e-07
5.87472e-07
8.53644e-07
8.51551e-07
5.87368e-07
5.87347e-07
5.87368e-07
8.51773e-07
8.53566e-07
8.51563e-07
5.87419e-07
5.87459e-07
5.87418e-07
5.87459e-07
8.53462e-07
8.51446e-07
5.8732e-07
5.87495e-07
5.87316e-07
5.87494e-07
5.87469e-07
5.87249e-07
5.87471e-07
8.53544e-07
8.5162e-07
5.87368e-07
5.8735e-07
5.87369e-07
8.51706e-07
8.53556e-07
8.5156e-07
5.87419e-07
5.87459e-07
5.87418e-07
5.87459e-07
8.5339e-07
8.51596e-07
5.87316e-07
5.87493e-07
5.87319e-07
5.87496e-07
5.87471e-07
5.87251e-07
5.8747e-07
8.53582e-07
8.51619e-07
5.87367e-07
5.8735e-07
5.8737e-07
8.51636e-07
8.53558e-07
8.51525e-07
5.87417e-07
5.87458e-07
5.8742e-07
5.87461e-07
8.5353e-07
8.51578e-07
5.87319e-07
5.87495e-07
5.87318e-07
5.87496e-07
5.8747e-07
5.8725e-07
5.87471e-07
8.5359e-07
8.51614e-07
5.87369e-07
5.8735e-07
5.87368e-07
8.5162e-07
8.53484e-07
8.51658e-07
5.87417e-07
5.87459e-07
5.87423e-07
5.87459e-07
8.53567e-07
8.51531e-07
5.87316e-07
5.87496e-07
5.87322e-07
5.87496e-07
5.87471e-07
5.87249e-07
5.87471e-07
8.53609e-07
8.51611e-07
5.87369e-07
5.87348e-07
5.87367e-07
8.51633e-07
8.53584e-07
8.51659e-07
5.8742e-07
5.8746e-07
5.87419e-07
5.87457e-07
8.53539e-07
8.515e-07
5.87319e-07
5.87496e-07
5.87316e-07
5.87496e-07
5.87472e-07
5.87248e-07
5.87469e-07
8.5361e-07
8.51602e-07
5.87368e-07
5.87346e-07
5.87365e-07
8.51593e-07
8.53644e-07
8.51598e-07
5.87419e-07
5.87457e-07
5.87418e-07
5.87456e-07
8.53507e-07
8.51481e-07
5.87317e-07
5.87496e-07
5.87315e-07
5.87494e-07
5.8747e-07
5.87246e-07
5.87469e-07
8.53595e-07
8.51595e-07
5.87366e-07
5.87345e-07
5.87365e-07
8.5156e-07
8.53588e-07
8.516e-07
5.87418e-07
5.87456e-07
5.87418e-07
5.87456e-07
8.53477e-07
8.51482e-07
5.87315e-07
5.87494e-07
5.87316e-07
5.87494e-07
5.87469e-07
5.87246e-07
5.87471e-07
8.53577e-07
8.51594e-07
5.87365e-07
5.87345e-07
5.87368e-07
8.51576e-07
8.53557e-07
8.51612e-07
5.87417e-07
5.87456e-07
5.8742e-07
5.87457e-07
8.53461e-07
8.51489e-07
5.87315e-07
5.87494e-07
5.87317e-07
5.87494e-07
5.87471e-07
5.87247e-07
5.87471e-07
8.53561e-07
8.51603e-07
5.87368e-07
5.87344e-07
5.87369e-07
8.51591e-07
8.53556e-07
8.51609e-07
5.87418e-07
5.87456e-07
5.87419e-07
5.87457e-07
8.53459e-07
8.51493e-07
5.87315e-07
5.87494e-07
5.87317e-07
5.87495e-07
5.87472e-07
5.87246e-07
5.87471e-07
8.5355e-07
8.51637e-07
5.87369e-07
5.87345e-07
5.87369e-07
8.51593e-07
8.53563e-07
8.51601e-07
5.87419e-07
5.87456e-07
5.87419e-07
5.87458e-07
8.53451e-07
8.51515e-07
5.87317e-07
5.87494e-07
5.87316e-07
5.87495e-07
5.87473e-07
5.87245e-07
5.8747e-07
8.53571e-07
8.51648e-07
5.8737e-07
5.87343e-07
5.87367e-07
8.5159e-07
8.53555e-07
8.51614e-07
5.87418e-07
5.87457e-07
5.87418e-07
5.87457e-07
8.5346e-07
8.51532e-07
5.87316e-07
5.87495e-07
5.87315e-07
5.87494e-07
5.87471e-07
5.87244e-07
5.87468e-07
8.53593e-07
8.51626e-07
5.87369e-07
5.8734e-07
5.87365e-07
8.51588e-07
8.53559e-07
8.5163e-07
5.87418e-07
5.87457e-07
5.87417e-07
5.87455e-07
8.5348e-07
8.51522e-07
5.87315e-07
5.87494e-07
5.87313e-07
5.87493e-07
5.8747e-07
5.87241e-07
5.87467e-07
8.53571e-07
8.51648e-07
5.87367e-07
5.8734e-07
5.87363e-07
8.51593e-07
8.53573e-07
8.51633e-07
5.87417e-07
5.87456e-07
5.87415e-07
5.87453e-07
8.53476e-07
8.51517e-07
5.87315e-07
5.87493e-07
5.87311e-07
5.87491e-07
5.87469e-07
5.87239e-07
5.87464e-07
8.53577e-07
8.51688e-07
5.87365e-07
5.87338e-07
5.87361e-07
8.51607e-07
8.53576e-07
8.51633e-07
5.87416e-07
5.87454e-07
5.87412e-07
5.87451e-07
8.53469e-07
8.51526e-07
5.87313e-07
5.87492e-07
5.87309e-07
5.87488e-07
5.87468e-07
5.87236e-07
5.87462e-07
8.53622e-07
8.5168e-07
5.87364e-07
5.87335e-07
5.87358e-07
8.51608e-07
8.53575e-07
8.51622e-07
5.87415e-07
5.87453e-07
5.87409e-07
5.87448e-07
8.53471e-07
8.51543e-07
5.87312e-07
5.87491e-07
5.87307e-07
5.87485e-07
5.87466e-07
5.87235e-07
5.87459e-07
8.53637e-07
8.51646e-07
5.87362e-07
5.87332e-07
5.87355e-07
8.51592e-07
8.53565e-07
8.51615e-07
5.87414e-07
5.87452e-07
5.87407e-07
5.87445e-07
8.53485e-07
8.51545e-07
5.87311e-07
5.87489e-07
5.87303e-07
5.87481e-07
5.87464e-07
5.87233e-07
5.87456e-07
8.53608e-07
8.51638e-07
5.8736e-07
5.8733e-07
5.87354e-07
8.51583e-07
8.53558e-07
8.51612e-07
5.87413e-07
5.87451e-07
5.87404e-07
5.87442e-07
8.53495e-07
8.51531e-07
5.8731e-07
5.87488e-07
5.873e-07
5.87479e-07
5.87464e-07
5.8723e-07
5.87453e-07
8.53581e-07
8.51645e-07
5.8736e-07
5.87328e-07
5.87351e-07
8.51594e-07
8.53555e-07
8.51616e-07
5.87412e-07
5.87451e-07
5.87401e-07
5.87439e-07
8.53484e-07
8.5152e-07
5.87309e-07
5.87487e-07
5.87299e-07
5.87477e-07
5.87463e-07
5.87229e-07
5.87452e-07
8.53588e-07
8.51628e-07
5.87361e-07
5.87325e-07
5.87346e-07
8.51609e-07
8.53553e-07
8.51634e-07
5.87413e-07
5.87452e-07
5.87399e-07
5.87437e-07
8.53473e-07
8.51515e-07
5.8731e-07
5.87488e-07
5.87296e-07
5.87474e-07
5.87465e-07
5.87226e-07
5.87448e-07
8.53571e-07
8.51649e-07
5.87361e-07
5.87323e-07
5.87343e-07
8.51598e-07
8.53572e-07
8.51634e-07
5.87415e-07
5.87453e-07
5.87396e-07
5.87433e-07
8.53465e-07
8.51525e-07
5.87314e-07
5.87491e-07
5.87291e-07
5.8747e-07
5.87467e-07
5.87222e-07
5.87444e-07
8.53582e-07
8.51674e-07
5.87362e-07
5.8732e-07
5.8734e-07
8.5158e-07
8.53582e-07
8.51623e-07
5.87418e-07
5.87455e-07
5.87391e-07
5.87429e-07
8.53472e-07
8.51528e-07
5.87315e-07
5.87494e-07
5.87288e-07
5.87466e-07
5.87469e-07
5.87219e-07
5.87441e-07
8.53618e-07
8.51659e-07
5.87364e-07
5.87317e-07
5.87336e-07
8.51581e-07
8.53576e-07
8.51611e-07
5.87422e-07
5.87459e-07
5.87385e-07
5.87423e-07
8.53481e-07
8.51517e-07
5.87318e-07
5.87496e-07
5.87284e-07
5.87462e-07
5.87472e-07
5.87216e-07
5.87436e-07
8.53616e-07
8.51636e-07
5.87367e-07
5.8731e-07
5.87331e-07
8.51589e-07
8.53559e-07
8.51621e-07
5.87424e-07
5.87461e-07
5.87383e-07
5.8742e-07
8.53473e-07
8.51521e-07
5.87322e-07
5.875e-07
5.87279e-07
5.87457e-07
5.87477e-07
5.8721e-07
5.87429e-07
8.53586e-07
8.51637e-07
5.87371e-07
5.87306e-07
5.87325e-07
8.51584e-07
8.53564e-07
8.51614e-07
5.87431e-07
5.87469e-07
5.87374e-07
5.87412e-07
8.53476e-07
8.51521e-07
5.87329e-07
5.87507e-07
5.87271e-07
5.87449e-07
5.87481e-07
5.87202e-07
5.87424e-07
8.5357e-07
8.51656e-07
5.87376e-07
5.873e-07
5.87319e-07
8.5158e-07
8.5357e-07
8.51584e-07
5.87439e-07
5.87477e-07
5.87364e-07
5.87403e-07
8.53478e-07
8.5152e-07
5.87336e-07
5.87513e-07
5.87263e-07
5.8744e-07
5.87488e-07
5.87194e-07
5.87417e-07
8.53601e-07
8.51608e-07
5.87384e-07
5.87288e-07
5.87308e-07
8.51573e-07
8.53547e-07
8.51576e-07
5.87446e-07
5.87485e-07
5.87353e-07
5.87392e-07
8.53477e-07
8.51507e-07
5.87343e-07
5.8752e-07
5.87253e-07
5.87429e-07
5.87499e-07
5.87182e-07
5.87403e-07
8.53571e-07
8.516e-07
5.87392e-07
5.87278e-07
5.87297e-07
8.51569e-07
8.53526e-07
8.51603e-07
5.87456e-07
5.87495e-07
5.87341e-07
5.87379e-07
8.53468e-07
8.51503e-07
5.87355e-07
5.87532e-07
5.87238e-07
5.87415e-07
5.87509e-07
5.87167e-07
5.87388e-07
8.53537e-07
8.51658e-07
5.874e-07
5.87267e-07
5.87284e-07
8.51576e-07
8.5354e-07
8.51612e-07
5.87471e-07
5.8751e-07
5.87322e-07
5.87358e-07
8.53454e-07
8.51522e-07
5.8737e-07
5.87548e-07
5.8722e-07
5.87398e-07
5.87522e-07
5.87149e-07
5.87368e-07
8.53597e-07
8.51654e-07
5.87417e-07
5.87245e-07
5.87259e-07
8.5157e-07
8.53545e-07
8.51407e-07
5.87486e-07
5.8752e-07
5.86964e-07
5.86997e-07
8.53464e-07
8.51336e-07
5.87383e-07
5.87559e-07
5.86857e-07
5.87031e-07
5.87532e-07
5.86795e-07
5.87011e-07
8.53594e-07
8.51453e-07
5.87422e-07
5.86879e-07
5.86893e-07
8.51372e-07
8.5323e-07
8.32775e-07
5.87297e-07
5.87329e-07
5.68498e-07
5.6853e-07
8.5317e-07
8.32727e-07
5.87187e-07
5.87368e-07
5.68452e-07
5.68505e-07
5.87347e-07
5.6843e-07
5.68526e-07
8.53271e-07
8.32791e-07
5.87223e-07
5.68454e-07
5.68469e-07
8.3282e-07
8.10961e-07
5.46641e-07
5.4667e-07
8.10932e-07
5.46613e-07
5.46643e-07
2.10391e-07
2.1038e-07
2.10393e-07
5.46666e-07
8.10976e-07
5.46632e-07
5.5315e-08
8.98469e-09
3.74642e-08
3.73757e-08
1.32751e-09
4.54394e-09
7.52587e-09
2.2423e-08
1.50333e-09
4.75859e-09
2.23191e-08
1.05294e-08
5.2126e-09
3.19888e-09
5.07284e-09
7.47315e-09
1.66493e-07
5.6123e-09
2.63424e-07
1.60466e-06
3.14993e-06
7.15335e-09
1.5644e-07
5.45986e-09
2.45528e-07
2.1533e-08
2.15217e-08
2.173e-08
2.13401e-08
2.14057e-08
2.13749e-08
2.16017e-08
1.3549e-09
8.29068e-08
1.02649e-08
5.48026e-09
1.33121e-09
6.09191e-08
1.01702e-08
1.53591e-06
3.03954e-06
1.40769e-09
9.94905e-09
8.45938e-08
5.48769e-09
1.41415e-09
9.85927e-09
6.32256e-08
2.09591e-07
2.18261e-07
4.8343e-09
1.78649e-07
1.86964e-07
1.71069e-08
4.73851e-07
1.18243e-08
6.91578e-07
7.08632e-06
1.00771e-05
1.62426e-08
4.49085e-07
1.21123e-08
6.31342e-07
2.15319e-08
2.14979e-08
2.17293e-08
2.18556e-08
2.19359e-08