/*--------------------------------*- C++ -*----------------------------------*\
| =========                 |                                                 |
| \\      /  F ield         | OpenFOAM: The Open Source CFD Toolbox           |
|  \\    /   O peration     | Version:  v2012                                 |
|   \\  /    A nd           | Website:  www.openfoam.com                      |
|    \\/     M anipulation  |                                                 |
\*---------------------------------------------------------------------------*/
FoamFile
{
    version     2.0;
    format      ascii;
    class       volScalarField;
    location    "150";
    object      k;
}
// * * * * * * * * * * * * * * * * * * * * * * * * * * * * * * * * * * * * * //

dimensions      [0 2 -2 0 0 0 0];


internalField   nonuniform List<scalar> 
171728
(
2.62301e-06
4.11024e-07
4.43522e-07
3.52146e-07
2.64025e-06
4.18778e-07
4.4753e-07
3.34175e-07
2.72202e-06
4.32404e-07
4.58646e-07
3.22355e-07
2.80355e-06
4.49069e-07
4.73333e-07
3.13623e-07
2.88454e-06
4.70804e-07
4.92284e-07
3.06828e-07
2.96514e-06
4.98205e-07
5.1462e-07
3.01125e-07
3.04545e-06
5.31651e-07
5.43153e-07
2.93583e-07
3.12486e-06
5.67491e-07
5.7756e-07
2.88496e-07
3.20291e-06
6.07916e-07
6.17567e-07
2.86578e-07
3.28051e-06
6.52629e-07
6.63018e-07
2.91303e-07
3.35743e-06
7.04291e-07
7.15461e-07
3.07015e-07
3.43305e-06
7.64918e-07
7.74866e-07
3.29996e-07
3.50659e-06
8.33379e-07
8.36776e-07
3.58986e-07
3.57932e-06
9.10931e-07
9.04338e-07
3.94631e-07
3.65187e-06
9.99515e-07
9.71817e-07
4.37112e-07
3.72182e-06
1.09588e-06
1.05094e-06
4.87603e-07
3.7931e-06
1.2029e-06
1.14559e-06
5.4845e-07
3.86462e-06
1.32217e-06
1.25837e-06
6.25978e-07
3.93501e-06
1.46071e-06
1.38894e-06
7.34445e-07
4.01279e-06
1.62174e-06
1.55831e-06
9.07745e-07
4.09444e-06
1.80533e-06
1.76117e-06
1.14872e-06
4.17877e-06
2.05073e-06
2.0202e-06
1.5049e-06
4.27609e-06
2.36731e-06
2.37152e-06
2.11201e-06
4.38359e-06
2.7856e-06
2.80746e-06
2.97611e-06
4.52389e-06
3.36505e-06
3.39908e-06
4.17825e-06
4.67559e-06
4.07745e-06
4.13355e-06
5.87161e-06
4.87524e-06
4.95969e-06
5.03398e-06
8.09835e-06
5.10329e-06
6.01922e-06
6.09928e-06
1.05405e-05
5.40566e-06
7.24159e-06
7.38798e-06
1.31458e-05
5.77147e-06
8.62041e-06
8.83193e-06
1.57132e-05
6.2354e-06
1.01525e-05
1.0298e-05
1.81057e-05
6.83816e-06
1.20037e-05
1.20805e-05
2.04529e-05
7.68808e-06
1.43984e-05
1.44492e-05
2.28155e-05
9.04392e-06
1.75588e-05
1.75868e-05
2.55253e-05
1.08468e-05
2.09753e-05
2.09875e-05
2.82887e-05
1.29111e-05
2.4074e-05
2.40797e-05
3.06818e-05
1.49e-05
2.64453e-05
2.64488e-05
3.24675e-05
1.62431e-05
2.76995e-05
2.77027e-05
3.33089e-05
1.68872e-05
2.8195e-05
2.81979e-05
3.36192e-05
1.71216e-05
2.83532e-05
2.83558e-05
3.37213e-05
1.71905e-05
2.83978e-05
2.84003e-05
3.3754e-05
1.72058e-05
2.84049e-05
2.84074e-05
3.37616e-05
1.72081e-05
2.84042e-05
2.84068e-05
3.37507e-05
1.72091e-05
2.84063e-05
2.84087e-05
3.3758e-05
1.7209e-05
2.8405e-05
2.84074e-05
3.37571e-05
1.72091e-05
2.84058e-05
2.84081e-05
3.37586e-05
1.72092e-05
2.84055e-05
2.84079e-05
3.37505e-05
1.72093e-05
2.84056e-05
2.84079e-05
3.37651e-05
1.72093e-05
2.84061e-05
2.84084e-05
3.37581e-05
1.72094e-05
2.84061e-05
2.84083e-05
3.37492e-05
1.72095e-05
2.84055e-05
2.84079e-05
3.37509e-05
1.72096e-05
2.84058e-05
2.84081e-05
3.37586e-05
1.72096e-05
2.84059e-05
2.8408e-05
3.37625e-05
1.72096e-05
2.84057e-05
2.84079e-05
3.37623e-05
1.72096e-05
2.84063e-05
2.84082e-05
3.37614e-05
1.72096e-05
2.84064e-05
2.84083e-05
3.37655e-05
1.72097e-05
2.84059e-05
2.8408e-05
3.37538e-05
1.72096e-05
2.84059e-05
2.8408e-05
3.37524e-05
1.72097e-05
2.84066e-05
2.84081e-05
3.37655e-05
1.72097e-05
2.84059e-05
2.8408e-05
3.37589e-05
1.72098e-05
2.84057e-05
2.84081e-05
3.37484e-05
1.72098e-05
2.84064e-05
2.84083e-05
3.37551e-05
1.72098e-05
2.84063e-05
2.84083e-05
3.37623e-05
1.72098e-05
2.8406e-05
2.84079e-05
3.37632e-05
1.72098e-05
2.84058e-05
2.84078e-05
3.37602e-05
1.72098e-05
2.84059e-05
2.84082e-05
3.37552e-05
1.72098e-05
2.84062e-05
2.84082e-05
3.37521e-05
1.72097e-05
2.84061e-05
2.84082e-05
3.37516e-05
1.72098e-05
2.84061e-05
2.84081e-05
3.37504e-05
1.72098e-05
2.8406e-05
2.84079e-05
3.37498e-05
1.72097e-05
2.84059e-05
2.84079e-05
3.37525e-05
1.72097e-05
2.84058e-05
2.84079e-05
3.3755e-05
1.72097e-05
2.84059e-05
2.84078e-05
3.37534e-05
1.72097e-05
2.84059e-05
2.8408e-05
3.37513e-05
1.72097e-05
2.84059e-05
2.84079e-05
3.3751e-05
1.72097e-05
2.84058e-05
2.84078e-05
3.37512e-05
1.72097e-05
2.84058e-05
2.84078e-05
3.37513e-05
1.72097e-05
2.84057e-05
2.84079e-05
3.3751e-05
1.72097e-05
2.84057e-05
2.84078e-05
3.37502e-05
1.72097e-05
2.84058e-05
2.84077e-05
3.37504e-05
1.72097e-05
2.84058e-05
2.84077e-05
3.37518e-05
1.72096e-05
2.84057e-05
2.84078e-05
3.3752e-05
1.72096e-05
2.84059e-05
2.84078e-05
3.37513e-05
1.72096e-05
2.8406e-05
2.84079e-05
3.37502e-05
1.72096e-05
2.8406e-05
2.8408e-05
3.37501e-05
1.72096e-05
2.84062e-05
2.84082e-05
3.3751e-05
1.72097e-05
2.84064e-05
2.84082e-05
3.3751e-05
1.72097e-05
2.84067e-05
2.84085e-05
3.37503e-05
1.72097e-05
2.8407e-05
2.8409e-05
3.37504e-05
1.72097e-05
2.84076e-05
2.84093e-05
3.3751e-05
1.72098e-05
2.84084e-05
2.84102e-05
3.37516e-05
1.721e-05
2.84097e-05
2.84118e-05
3.37518e-05
1.72099e-05
2.84117e-05
2.84136e-05
3.3751e-05
1.71939e-05
2.84045e-05
2.8406e-05
3.37452e-05
1.68154e-05
2.73069e-05
2.73067e-05
3.29252e-05
3.78849e-07
3.89385e-07
3.23378e-07
3.54765e-07
3.81857e-07
3.82191e-07
2.68843e-06
2.68525e-06
2.69617e-06
2.69155e-06
3.5711e-07
3.29053e-07
3.77244e-07
3.86253e-07
3.7849e-07
3.55611e-07
3.75938e-07
3.63361e-07
4.47284e-07
3.77586e-07
4.47835e-07
3.81415e-07
3.51224e-07
3.34955e-07
4.09272e-07
4.05229e-07
4.12128e-07
4.07941e-07
3.88857e-07
4.16124e-07
3.93152e-07
3.7444e-07
3.61689e-07
4.4869e-07
4.45662e-07
4.49263e-07
3.37388e-07
3.60737e-07
3.51698e-07
4.49104e-07
3.83975e-07
4.53886e-07
3.92455e-07
3.3151e-07
3.19418e-07
4.14867e-07
4.10387e-07
4.23015e-07
4.18999e-07
3.96031e-07
4.29125e-07
4.05913e-07
3.5884e-07
3.49167e-07
4.50665e-07
4.55699e-07
4.56636e-07
3.24936e-07
3.49081e-07
3.39846e-07
4.56589e-07
3.9603e-07
4.67586e-07
4.08624e-07
3.16249e-07
3.07213e-07
4.25902e-07
4.22251e-07
4.35528e-07
4.34227e-07
4.09926e-07
4.44675e-07
4.22322e-07
3.46418e-07
3.38655e-07
4.59101e-07
4.69307e-07
4.66869e-07
3.15842e-07
3.36962e-07
3.28654e-07
4.71599e-07
4.13946e-07
4.84249e-07
4.30729e-07
3.04862e-07
3.01018e-07
4.39579e-07
4.38699e-07
4.54658e-07
4.53268e-07
4.26745e-07
4.65391e-07
4.39797e-07
3.36188e-07
3.28909e-07
4.70405e-07
4.8753e-07
4.81774e-07
3.08755e-07
3.25998e-07
3.19283e-07
4.88602e-07
4.37381e-07
5.03271e-07
4.56436e-07
2.99726e-07
3.00389e-07
4.60145e-07
4.58745e-07
4.77843e-07
4.77062e-07
4.44453e-07
4.91022e-07
4.59687e-07
3.2626e-07
3.20822e-07
4.86269e-07
5.08998e-07
5.01714e-07
3.03323e-07
3.16771e-07
3.11461e-07
5.08651e-07
4.63114e-07
5.26692e-07
4.84774e-07
2.99398e-07
2.99792e-07
4.84039e-07
4.839e-07
5.04217e-07
5.07415e-07
4.65236e-07
5.23722e-07
4.85315e-07
3.18826e-07
3.16721e-07
5.07324e-07
5.36122e-07
5.26448e-07
2.96018e-07
3.09211e-07
3.0582e-07
5.3318e-07
4.91874e-07
5.5541e-07
5.17212e-07
2.985e-07
2.98843e-07
5.11715e-07
5.15183e-07
5.35091e-07
5.41621e-07
4.92222e-07
5.59154e-07
5.17963e-07
3.15178e-07
3.15313e-07
5.33391e-07
5.6896e-07
5.55112e-07
2.90294e-07
3.0378e-07
3.0134e-07
5.62884e-07
5.25682e-07
5.87332e-07
5.53927e-07
2.97534e-07
2.98364e-07
5.42766e-07
5.50718e-07
5.6678e-07
5.81794e-07
5.27327e-07
5.97769e-07
5.58785e-07
3.14026e-07
3.17707e-07
5.63756e-07
6.07359e-07
5.93453e-07
2.88152e-07
2.99337e-07
2.98239e-07
5.96339e-07
5.64571e-07
6.26456e-07
5.96288e-07
2.96977e-07
2.99843e-07
5.75018e-07
5.92705e-07
6.02142e-07
6.27651e-07
5.69459e-07
6.40524e-07
6.04046e-07
3.1674e-07
3.26929e-07
6.04079e-07
6.50947e-07
6.35984e-07
2.92075e-07
2.96511e-07
2.97978e-07
6.37499e-07
6.07848e-07
6.73544e-07
6.48022e-07
2.98753e-07
3.08991e-07
6.11454e-07
6.40513e-07
6.41405e-07
6.8006e-07
6.15547e-07
6.91023e-07
6.53455e-07
3.26294e-07
3.43156e-07
6.47438e-07
7.02749e-07
6.84897e-07
3.07398e-07
2.96664e-07
3.06795e-07
6.86207e-07
6.61463e-07
7.27048e-07
7.04656e-07
3.08278e-07
3.25942e-07
6.52994e-07
6.94326e-07
6.9061e-07
7.39049e-07
6.67511e-07
7.50091e-07
7.11402e-07
3.42846e-07
3.65739e-07
6.98478e-07
7.59573e-07
7.45349e-07
3.30053e-07
3.06045e-07
3.25396e-07
7.41944e-07
7.2208e-07
7.89641e-07
7.72751e-07
3.2562e-07
3.5052e-07
7.04719e-07
7.54848e-07
7.51353e-07
8.06819e-07
7.27563e-07
8.16283e-07
7.80376e-07
3.658e-07
3.94123e-07
7.61301e-07
8.21478e-07
8.13296e-07
3.58582e-07
3.252e-07
3.53586e-07
8.07289e-07
7.88881e-07
8.63685e-07
8.46584e-07
3.50617e-07
3.81932e-07
7.67995e-07
8.24283e-07
8.22348e-07
8.799e-07
7.97665e-07
8.91001e-07
8.54319e-07
3.94491e-07
4.24827e-07
8.31771e-07
8.88226e-07
8.91031e-07
3.93691e-07
3.54024e-07
3.91244e-07
8.83499e-07
8.67549e-07
9.47731e-07
9.24912e-07
3.82571e-07
4.21431e-07
8.40577e-07
8.99769e-07
9.02461e-07
9.59624e-07
8.75041e-07
9.769e-07
9.39178e-07
4.25225e-07
4.55639e-07
9.10987e-07
9.53415e-07
9.73629e-07
4.35494e-07
3.92623e-07
4.39348e-07
9.69622e-07
9.44715e-07
1.03969e-06
1.01368e-06
4.22953e-07
4.70185e-07
9.24517e-07
9.79312e-07
9.94798e-07
1.04661e-06
9.61509e-07
1.07197e-06
1.03074e-06
4.56164e-07
4.89603e-07
9.97683e-07
1.03199e-06
1.06829e-06
4.83638e-07
4.43761e-07
5.00781e-07
1.06425e-06
1.03727e-06
1.14357e-06
1.11483e-06
4.74617e-07
5.27607e-07
1.01962e-06
1.06862e-06
1.10258e-06
1.14233e-06
1.05384e-06
1.17506e-06
1.13406e-06
4.91816e-07
5.30624e-07
1.09054e-06
1.12029e-06
1.17435e-06
5.38795e-07
5.11687e-07
5.80785e-07
1.16979e-06
1.14141e-06
1.25301e-06
1.2222e-06
5.37929e-07
6.06609e-07
1.13204e-06
1.17111e-06
1.21816e-06
1.24844e-06
1.16303e-06
1.28903e-06
1.24582e-06
5.37392e-07
5.87944e-07
1.20566e-06
1.22651e-06
1.29642e-06
6.12562e-07
5.95517e-07
6.90201e-07
1.28835e-06
1.255e-06
1.39078e-06
1.35261e-06
6.21294e-07
7.11712e-07
1.25374e-06
1.27964e-06
1.36467e-06
1.38285e-06
1.27782e-06
1.42763e-06
1.37293e-06
5.99042e-07
6.76687e-07
1.32931e-06
1.35556e-06
1.44467e-06
7.11728e-07
7.12965e-07
8.53604e-07
1.42467e-06
1.38613e-06
1.55047e-06
1.50815e-06
7.33379e-07
8.64724e-07
1.4004e-06
1.41766e-06
1.52531e-06
1.53426e-06
1.40717e-06
1.58055e-06
1.52694e-06
6.9651e-07
8.2314e-07
1.49304e-06
1.51533e-06
1.64759e-06
8.73791e-07
8.90946e-07
1.11039e-06
1.5952e-06
1.55165e-06
1.75108e-06
1.69774e-06
8.99281e-07
1.0993e-06
1.56934e-06
1.57603e-06
1.71835e-06
1.72871e-06
1.56593e-06
1.75417e-06
1.70933e-06
8.56859e-07
1.05767e-06
1.69389e-06
1.7045e-06
1.84352e-06
1.09837e-06
1.16918e-06
1.49391e-06
1.81345e-06
1.75504e-06
2.01266e-06
1.94376e-06
1.15331e-06
1.45915e-06
1.77764e-06
1.78495e-06
1.97098e-06
1.96206e-06
1.76762e-06
1.98486e-06
1.95846e-06
1.11231e-06
1.41819e-06
1.89839e-06
1.94957e-06
2.05785e-06
1.42366e-06
1.58278e-06
2.0507e-06
2.08319e-06
2.01281e-06
2.32682e-06
2.25695e-06
1.54499e-06
1.99502e-06
2.04107e-06
2.03501e-06
2.28969e-06
2.29299e-06
2.03458e-06
2.27986e-06
2.30442e-06
1.50385e-06
1.9816e-06
2.11444e-06
2.27545e-06
2.32203e-06
1.97956e-06
2.18007e-06
2.86204e-06
2.42096e-06
2.35308e-06
2.72884e-06
2.67569e-06
2.12063e-06
2.79687e-06
2.38605e-06
2.38127e-06
2.69297e-06
2.66678e-06
2.40334e-06
2.66967e-06
2.73314e-06
2.11298e-06
2.77882e-06
2.40528e-06
2.68854e-06
2.6966e-06
2.79082e-06
3.04904e-06
4.0251e-06
2.84115e-06
2.79708e-06
3.2286e-06
3.22412e-06
2.9847e-06
3.97628e-06
2.80676e-06
2.78497e-06
3.22453e-06
3.2312e-06
2.85748e-06
3.20607e-06
3.26813e-06
2.96033e-06
3.95316e-06
2.80909e-06
3.23702e-06
3.20632e-06
3.92842e-06
4.28739e-06
5.6499e-06
3.37636e-06
3.38551e-06
3.88051e-06
3.9149e-06
4.2444e-06
5.62233e-06
3.38752e-06
3.39808e-06
3.91949e-06
3.91793e-06
3.41434e-06
3.88614e-06
3.89692e-06
4.22581e-06
5.62652e-06
3.36065e-06
3.9358e-06
3.8925e-06
5.50999e-06
6.00532e-06
7.74221e-06
4.07301e-06
4.11118e-06
4.72095e-06
4.76912e-06
5.97613e-06
7.71444e-06
4.11437e-06
4.10526e-06
4.76273e-06
4.74056e-06
4.08355e-06
4.72231e-06
4.72283e-06
5.98348e-06
7.72134e-06
4.09619e-06
4.79386e-06
4.77031e-06
7.66785e-06
8.16769e-06
1.01608e-05
4.9581e-06
5.01026e-06
5.7356e-06
5.79409e-06
8.14464e-06
1.01782e-05
4.99851e-06
4.97805e-06
5.76453e-06
5.76278e-06
4.95645e-06
5.74138e-06
5.70616e-06
8.14773e-06
1.01639e-05
5.01084e-06
5.81742e-06
5.77726e-06
1.00724e-05
1.06391e-05
1.27521e-05
6.01616e-06
6.07494e-06
6.93109e-06
6.99376e-06
1.0662e-05
1.27757e-05
6.04153e-06
6.04613e-06
6.94793e-06
6.96298e-06
5.97497e-06
6.91881e-06
6.86718e-06
1.06481e-05
1.28122e-05
6.04954e-06
7.04106e-06
6.9401e-06
1.26475e-05
1.3241e-05
1.52551e-05
7.26019e-06
7.32564e-06
8.29158e-06
8.35897e-06
1.32641e-05
1.52915e-05
7.27511e-06
7.29174e-06
8.30315e-06
8.31866e-06
7.19492e-06
8.26741e-06
8.23633e-06
1.3314e-05
1.53706e-05
7.26434e-06
8.47472e-06
8.28977e-06
1.52301e-05
1.5727e-05
1.76253e-05
8.64389e-06
8.70652e-06
9.75345e-06
9.79422e-06
1.57665e-05
1.76601e-05
8.65519e-06
8.66743e-06
9.768e-06
9.76784e-06
8.59464e-06
9.74374e-06
9.72633e-06
1.58396e-05
1.76776e-05
8.64196e-06
9.91239e-06
9.75864e-06
1.76414e-05
1.80869e-05
1.99718e-05
1.01577e-05
1.01913e-05
1.15035e-05
1.15226e-05
1.81193e-05
1.99888e-05
1.01745e-05
1.01714e-05
1.15243e-05
1.15187e-05
1.01379e-05
1.15077e-05
1.14973e-05
1.81269e-05
1.99874e-05
1.01662e-05
1.15959e-05
1.15147e-05
1.99898e-05
2.0438e-05
2.23306e-05
1.20004e-05
1.20162e-05
1.3726e-05
1.37334e-05
2.04516e-05
2.23284e-05
1.20215e-05
1.20161e-05
1.3743e-05
1.37419e-05
1.19956e-05
1.37239e-05
1.37207e-05
2.04516e-05
2.23427e-05
1.20101e-05
1.378e-05
1.37281e-05
2.23303e-05
2.28181e-05
2.49889e-05
1.44034e-05
1.44083e-05
1.67254e-05
1.67256e-05
2.28139e-05
2.49816e-05
1.44177e-05
1.44189e-05
1.67305e-05
1.6738e-05
1.43976e-05
1.67177e-05
1.67204e-05
2.28296e-05
2.49992e-05
1.4403e-05
1.67511e-05
1.6721e-05
2.4985e-05
2.55288e-05
2.77821e-05
1.75671e-05
1.75667e-05
2.01419e-05
2.01413e-05
2.55223e-05
2.77781e-05
1.75699e-05
1.75785e-05
2.01402e-05
2.01492e-05
1.75629e-05
2.01348e-05
2.01405e-05
2.55383e-05
2.77881e-05
1.75624e-05
2.01497e-05
2.01379e-05
2.77821e-05
2.82886e-05
3.02572e-05
2.09822e-05
2.09818e-05
2.33521e-05
2.33518e-05
2.8285e-05
3.02544e-05
2.09799e-05
2.09884e-05
2.33491e-05
2.33557e-05
2.09817e-05
2.33469e-05
2.33536e-05
2.82937e-05
3.026e-05
2.09788e-05
2.33536e-05
2.33502e-05
3.02588e-05
3.06805e-05
3.21725e-05
2.40787e-05
2.40786e-05
2.59578e-05
2.59578e-05
3.0678e-05
3.21704e-05
2.40761e-05
2.40818e-05
2.59554e-05
2.59598e-05
2.40805e-05
2.59542e-05
2.596e-05
3.06827e-05
3.21736e-05
2.40774e-05
2.59578e-05
2.59574e-05
3.21741e-05
3.24661e-05
3.31724e-05
2.64487e-05
2.64487e-05
2.74808e-05
2.74808e-05
3.24641e-05
3.31704e-05
2.64465e-05
2.64504e-05
2.74789e-05
2.74819e-05
2.64511e-05
2.74778e-05
2.74837e-05
3.24669e-05
3.31734e-05
2.64485e-05
2.74811e-05
2.74813e-05
3.31749e-05
3.33066e-05
3.35443e-05
2.77022e-05
2.77022e-05
2.8118e-05
2.8118e-05
3.33048e-05
3.35426e-05
2.77006e-05
2.77032e-05
2.81166e-05
2.81188e-05
2.77051e-05
2.81156e-05
2.81209e-05
3.33074e-05
3.3545e-05
2.77029e-05
2.81185e-05
2.81189e-05
3.35465e-05
3.36171e-05
3.36721e-05
2.81972e-05
2.81971e-05
2.83318e-05
2.83317e-05
3.36155e-05
3.36704e-05
2.81958e-05
2.8198e-05
2.83306e-05
2.83326e-05
2.82001e-05
2.83298e-05
2.83347e-05
3.36176e-05
3.36726e-05
2.81982e-05
2.83324e-05
2.83328e-05
3.36742e-05
3.37191e-05
3.37122e-05
2.83552e-05
2.83551e-05
2.83934e-05
2.83934e-05
3.37176e-05
3.37105e-05
2.8354e-05
2.83559e-05
2.83922e-05
2.83942e-05
2.8358e-05
2.83916e-05
2.83962e-05
3.37195e-05
3.37125e-05
2.83563e-05
2.8394e-05
2.83946e-05
3.3714e-05
3.3752e-05
3.37234e-05
2.83996e-05
2.83995e-05
2.84067e-05
2.84066e-05
3.37506e-05
3.37217e-05
2.83986e-05
2.84003e-05
2.84057e-05
2.84074e-05
2.84024e-05
2.84048e-05
2.84094e-05
3.37523e-05
3.37236e-05
2.84007e-05
2.84073e-05
2.84077e-05
3.37251e-05
3.37597e-05
3.37128e-05
2.84068e-05
2.84068e-05
2.84062e-05
2.84062e-05
3.37581e-05
3.3711e-05
2.84058e-05
2.84076e-05
2.84052e-05
2.8407e-05
2.84095e-05
2.84042e-05
2.84089e-05
3.376e-05
3.3713e-05
2.84078e-05
2.84068e-05
2.84072e-05
3.37143e-05
3.37492e-05
3.37166e-05
2.84061e-05
2.84061e-05
2.84074e-05
2.84075e-05
3.37473e-05
3.37151e-05
2.84051e-05
2.84069e-05
2.84064e-05
2.84083e-05
2.84088e-05
2.84056e-05
2.84102e-05
3.37492e-05
3.37175e-05
2.84071e-05
2.84081e-05
2.84085e-05
3.3719e-05
3.37554e-05
3.37229e-05
2.84081e-05
2.84082e-05
2.84076e-05
2.84076e-05
3.37541e-05
3.37209e-05
2.84071e-05
2.84089e-05
2.84066e-05
2.84083e-05
2.84108e-05
2.84056e-05
2.84101e-05
3.37563e-05
3.37222e-05
2.84091e-05
2.8408e-05
2.84084e-05
3.37234e-05
3.37568e-05
3.37125e-05
2.84069e-05
2.84069e-05
2.84073e-05
2.84074e-05
3.37546e-05
3.37117e-05
2.84059e-05
2.84076e-05
2.84062e-05
2.8408e-05
2.84096e-05
2.84054e-05
2.841e-05
3.37559e-05
3.37144e-05
2.84078e-05
2.84078e-05
2.84083e-05
3.37163e-05
3.37553e-05
3.37169e-05
2.84077e-05
2.84077e-05
2.84076e-05
2.84074e-05
3.37544e-05
3.3714e-05
2.84066e-05
2.84083e-05
2.84065e-05
2.84082e-05
2.84101e-05
2.84056e-05
2.84101e-05
3.37567e-05
3.37153e-05
2.84086e-05
2.8408e-05
2.84085e-05
3.37168e-05
3.37501e-05
3.37242e-05
2.84074e-05
2.84074e-05
2.84076e-05
2.84075e-05
3.37475e-05
3.37233e-05
2.84063e-05
2.84081e-05
2.84063e-05
2.84082e-05
2.841e-05
2.84056e-05
2.84101e-05
3.37489e-05
3.37255e-05
2.84083e-05
2.84079e-05
2.84084e-05
3.37268e-05
3.37633e-05
3.371e-05
2.84075e-05
2.84074e-05
2.84077e-05
2.84077e-05
3.37618e-05
3.37114e-05
2.84063e-05
2.84081e-05
2.84064e-05
2.84084e-05
2.841e-05
2.84061e-05
2.84105e-05
3.37633e-05
3.37156e-05
2.84083e-05
2.84083e-05
2.84087e-05
3.3715e-05
3.37519e-05
3.37119e-05
2.84079e-05
2.84078e-05
2.84075e-05
2.84075e-05
3.37545e-05
3.37085e-05
2.84064e-05
2.84084e-05
2.84063e-05
2.84082e-05
2.84105e-05
2.84055e-05
2.84099e-05
3.37581e-05
3.37111e-05
2.84088e-05
2.84078e-05
2.84082e-05
3.37117e-05
3.37467e-05
3.37215e-05
2.84077e-05
2.84078e-05
2.84079e-05
2.84075e-05
3.37471e-05
3.37115e-05
2.84063e-05
2.84085e-05
2.84064e-05
2.84082e-05
2.84104e-05
2.84055e-05
2.841e-05
3.37522e-05
3.37115e-05
2.84086e-05
2.84078e-05
2.84083e-05
3.37174e-05
3.37539e-05
3.3725e-05
2.84079e-05
2.84075e-05
2.8408e-05
2.84077e-05
3.37459e-05
3.37196e-05
2.84064e-05
2.84084e-05
2.84064e-05
2.84081e-05
2.84099e-05
2.84061e-05
2.84104e-05
3.37483e-05
3.37138e-05
2.84082e-05
2.84081e-05
2.84086e-05
3.37253e-05
3.37623e-05
3.37192e-05
2.84079e-05
2.84076e-05
2.84084e-05
2.84079e-05
3.37521e-05
3.37229e-05
2.84064e-05
2.84083e-05
2.84065e-05
2.84082e-05
2.84101e-05
2.84059e-05
2.84103e-05
3.37487e-05
3.37153e-05
2.84084e-05
2.8408e-05
2.84086e-05
3.37259e-05
3.37601e-05
3.37141e-05
2.84081e-05
2.84076e-05
2.84083e-05
2.84081e-05
3.3758e-05
3.37222e-05
2.84064e-05
2.84081e-05
2.84067e-05
2.84086e-05
2.84102e-05
2.8406e-05
2.84105e-05
3.37492e-05
3.37185e-05
2.84084e-05
2.84081e-05
2.84088e-05
3.37239e-05
3.37565e-05
3.37123e-05
2.84083e-05
2.84077e-05
2.84082e-05
2.84082e-05
3.37592e-05
3.37213e-05
2.84066e-05
2.84083e-05
2.84065e-05
2.84084e-05
2.84102e-05
2.84065e-05
2.84105e-05
3.37514e-05
3.37216e-05
2.84085e-05
2.84084e-05
2.84087e-05
3.37239e-05
3.37537e-05
3.37112e-05
2.84083e-05
2.84081e-05
2.84081e-05
2.84078e-05
3.37607e-05
3.37136e-05
2.84067e-05
2.84084e-05
2.84062e-05
2.84082e-05
2.84103e-05
2.84059e-05
2.84106e-05
3.37546e-05
3.37195e-05
2.84085e-05
2.84081e-05
2.84089e-05
3.37263e-05
3.37512e-05
3.37113e-05
2.84084e-05
2.84082e-05
2.8408e-05
2.84077e-05
3.37559e-05
3.37131e-05
2.84064e-05
2.84083e-05
2.84062e-05
2.84083e-05
2.84106e-05
2.84058e-05
2.841e-05
3.37525e-05
3.37187e-05
2.84089e-05
2.84079e-05
2.84082e-05
3.37115e-05
3.37471e-05
3.37189e-05
2.84081e-05
2.84076e-05
2.84083e-05
2.84082e-05
3.37525e-05
3.3721e-05
2.84063e-05
2.84081e-05
2.84065e-05
2.84085e-05
2.84103e-05
2.84064e-05
2.84103e-05
3.37515e-05
3.37225e-05
2.84085e-05
2.84082e-05
2.84084e-05
3.3719e-05
3.3752e-05
3.37197e-05
2.8408e-05
2.84079e-05
2.84087e-05
2.84079e-05
3.37612e-05
3.37098e-05
2.84062e-05
2.84082e-05
2.84068e-05
2.84084e-05
2.84099e-05
2.84064e-05
2.8411e-05
3.37556e-05
3.37192e-05
2.84081e-05
2.84081e-05
2.8409e-05
3.37278e-05
3.3755e-05
3.37114e-05
2.84086e-05
2.84079e-05
2.84082e-05
2.84079e-05
3.37522e-05
3.37138e-05
2.84067e-05
2.84083e-05
2.84063e-05
2.84085e-05
2.84107e-05
2.84056e-05
2.84101e-05
3.37519e-05
3.37211e-05
2.84086e-05
2.84081e-05
2.84085e-05
3.37155e-05
3.37461e-05
3.3724e-05
2.84082e-05
2.84078e-05
2.84084e-05
2.84079e-05
3.37485e-05
3.37233e-05
2.84063e-05
2.84083e-05
2.84065e-05
2.84085e-05
2.84107e-05
2.84063e-05
2.84101e-05
3.37532e-05
3.37259e-05
2.84089e-05
2.84081e-05
2.84081e-05
3.37128e-05
3.37567e-05
3.37239e-05
2.84083e-05
2.84079e-05
2.84084e-05
2.8408e-05
3.37584e-05
3.37214e-05
2.84065e-05
2.84085e-05
2.84064e-05
2.84083e-05
2.841e-05
2.84064e-05
2.84106e-05
3.37623e-05
3.372e-05
2.84083e-05
2.84081e-05
2.84083e-05
3.37224e-05
3.37622e-05
3.37177e-05
2.84084e-05
2.84079e-05
2.84084e-05
2.84079e-05
3.37608e-05
3.37127e-05
2.84064e-05
2.84083e-05
2.84065e-05
2.84084e-05
2.84104e-05
2.84059e-05
2.84103e-05
3.3761e-05
3.37116e-05
2.84082e-05
2.8408e-05
2.84086e-05
3.37265e-05
3.37596e-05
3.37111e-05
2.84085e-05
2.84079e-05
2.84084e-05
2.84079e-05
3.37559e-05
3.37083e-05
2.84063e-05
2.84084e-05
2.84066e-05
2.84084e-05
2.84103e-05
2.84058e-05
2.84103e-05
3.37541e-05
3.37112e-05
2.84081e-05
2.84078e-05
2.84089e-05
3.37237e-05
3.37524e-05
3.37124e-05
2.84084e-05
2.84079e-05
2.84087e-05
2.8408e-05
3.37467e-05
3.37127e-05
2.84067e-05
2.84084e-05
2.84062e-05
2.84083e-05
2.84101e-05
2.84059e-05
2.84105e-05
3.37469e-05
3.37202e-05
2.84087e-05
2.84081e-05
2.84083e-05
3.37181e-05
3.37481e-05
3.37165e-05
2.84087e-05
2.8408e-05
2.84082e-05
2.8408e-05
3.37465e-05
3.37247e-05
2.84065e-05
2.84083e-05
2.84062e-05
2.84084e-05
2.84104e-05
2.84064e-05
2.84103e-05
3.3753e-05
3.37237e-05
2.84084e-05
2.84083e-05
2.84084e-05
3.37137e-05
3.37502e-05
3.37194e-05
2.84084e-05
2.84079e-05
2.84084e-05
2.8408e-05
3.37588e-05
3.37194e-05
2.84061e-05
2.84082e-05
2.84065e-05
2.84085e-05
2.84104e-05
2.84062e-05
2.84102e-05
3.37598e-05
3.3719e-05
2.84084e-05
2.84081e-05
2.84085e-05
3.37135e-05
3.37521e-05
3.37247e-05
2.84082e-05
2.84079e-05
2.84088e-05
2.84081e-05
3.37601e-05
3.37091e-05
2.84063e-05
2.84084e-05
2.84065e-05
2.84084e-05
2.84102e-05
2.8406e-05
2.84103e-05
3.37547e-05
3.37148e-05
2.84085e-05
2.8408e-05
2.84082e-05
3.37141e-05
3.37578e-05
3.37246e-05
2.84084e-05
2.84081e-05
2.84088e-05
2.84078e-05
3.37512e-05
3.37097e-05
2.84063e-05
2.84084e-05
2.84067e-05
2.84085e-05
2.84104e-05
2.84059e-05
2.84102e-05
3.37494e-05
3.37144e-05
2.84084e-05
2.84079e-05
2.84082e-05
3.37138e-05
3.37633e-05
3.37145e-05
2.84088e-05
2.8408e-05
2.84083e-05
2.84077e-05
3.37462e-05
3.37127e-05
2.84067e-05
2.84085e-05
2.84061e-05
2.84084e-05
2.84104e-05
2.84058e-05
2.84101e-05
3.37489e-05
3.37169e-05
2.84084e-05
2.84078e-05
2.84081e-05
3.37151e-05
3.37569e-05
3.37138e-05
2.84086e-05
2.84078e-05
2.84083e-05
2.84077e-05
3.37471e-05
3.37163e-05
2.84064e-05
2.84084e-05
2.84063e-05
2.84082e-05
2.84102e-05
2.84059e-05
2.84102e-05
3.37504e-05
3.372e-05
2.84082e-05
2.84079e-05
2.84083e-05
3.37193e-05
3.37526e-05
3.37202e-05
2.84083e-05
2.84077e-05
2.84086e-05
2.84078e-05
3.37494e-05
3.37191e-05
2.84062e-05
2.84082e-05
2.84064e-05
2.84083e-05
2.84101e-05
2.84059e-05
2.84104e-05
3.37527e-05
3.37224e-05
2.84081e-05
2.8408e-05
2.84086e-05
3.37221e-05
3.37583e-05
3.37233e-05
2.84083e-05
2.84076e-05
2.84086e-05
2.84079e-05
3.37518e-05
3.37208e-05
2.84062e-05
2.84082e-05
2.84065e-05
2.84083e-05
2.84103e-05
2.84059e-05
2.84103e-05
3.37552e-05
3.37237e-05
2.84083e-05
2.8408e-05
2.84084e-05
3.37199e-05
3.37589e-05
3.37236e-05
2.84084e-05
2.84077e-05
2.84085e-05
2.84079e-05
3.37538e-05
3.37218e-05
2.84062e-05
2.84082e-05
2.84063e-05
2.84084e-05
2.84103e-05
2.84059e-05
2.84103e-05
3.37576e-05
3.37239e-05
2.84084e-05
2.8408e-05
2.84084e-05
3.37168e-05
3.37585e-05
3.37242e-05
2.84084e-05
2.84077e-05
2.84086e-05
2.8408e-05
3.37558e-05
3.37222e-05
2.84063e-05
2.84083e-05
2.84062e-05
2.84083e-05
2.84103e-05
2.84058e-05
2.84102e-05
3.37592e-05
3.37232e-05
2.84084e-05
2.84078e-05
2.84083e-05
3.37163e-05
3.37597e-05
3.37239e-05
2.84084e-05
2.84078e-05
2.84085e-05
2.84079e-05
3.37576e-05
3.37215e-05
2.84063e-05
2.84083e-05
2.84063e-05
2.84084e-05
2.84102e-05
2.84058e-05
2.84102e-05
3.37589e-05
3.37238e-05
2.84083e-05
2.84077e-05
2.84082e-05
3.37165e-05
3.37612e-05
3.3722e-05
2.84085e-05
2.84078e-05
2.84085e-05
2.84078e-05
3.37577e-05
3.37215e-05
2.84063e-05
2.84083e-05
2.84062e-05
2.84083e-05
2.84102e-05
2.84057e-05
2.84102e-05
3.37592e-05
3.37242e-05
2.84082e-05
2.84078e-05
2.84082e-05
3.37164e-05
3.3761e-05
3.37203e-05
2.84085e-05
2.84078e-05
2.84085e-05
2.84079e-05
3.37575e-05
3.3722e-05
2.84063e-05
2.84083e-05
2.84062e-05
2.84083e-05
2.84102e-05
2.84057e-05
2.84101e-05
3.37613e-05
3.37215e-05
2.84082e-05
2.84077e-05
2.84081e-05
3.37154e-05
3.376e-05
3.37205e-05
2.84085e-05
2.84078e-05
2.84083e-05
2.84078e-05
3.37582e-05
3.37216e-05
2.84062e-05
2.84083e-05
2.84062e-05
2.84081e-05
2.84102e-05
2.84056e-05
2.841e-05
3.3761e-05
3.37176e-05
2.84082e-05
2.84075e-05
2.84079e-05
3.37146e-05
3.37596e-05
3.37222e-05
2.84084e-05
2.84078e-05
2.84082e-05
2.84076e-05
3.3759e-05
3.37205e-05
2.84062e-05
2.84082e-05
2.84061e-05
2.8408e-05
2.84101e-05
2.84056e-05
2.84099e-05
3.37583e-05
3.37179e-05
2.84081e-05
2.84074e-05
2.84079e-05
3.37156e-05
3.37598e-05
3.37231e-05
2.84083e-05
2.84077e-05
2.84081e-05
2.84075e-05
3.3759e-05
3.37193e-05
2.84062e-05
2.84082e-05
2.8406e-05
2.84079e-05
2.84101e-05
2.84055e-05
2.84098e-05
3.37576e-05
3.37218e-05
2.8408e-05
2.84074e-05
2.84079e-05
3.37176e-05
3.37599e-05
3.37231e-05
2.84083e-05
2.84077e-05
2.84081e-05
2.84074e-05
3.37583e-05
3.37197e-05
2.84061e-05
2.84081e-05
2.84059e-05
2.84079e-05
2.841e-05
2.84054e-05
2.84097e-05
3.37594e-05
3.37227e-05
2.84081e-05
2.84074e-05
2.84077e-05
3.3717e-05
3.376e-05
3.37232e-05
2.84083e-05
2.84077e-05
2.8408e-05
2.84073e-05
3.37578e-05
3.37209e-05
2.84061e-05
2.84081e-05
2.84058e-05
2.84078e-05
2.841e-05
2.84054e-05
2.84097e-05
3.37593e-05
3.37234e-05
2.84081e-05
2.84073e-05
2.84075e-05
3.37141e-05
3.37605e-05
3.37225e-05
2.84083e-05
2.84077e-05
2.84079e-05
2.84073e-05
3.37578e-05
3.37214e-05
2.84062e-05
2.84081e-05
2.84057e-05
2.84077e-05
2.84102e-05
2.84053e-05
2.84095e-05
3.37593e-05
3.37237e-05
2.84081e-05
2.84072e-05
2.84074e-05
3.37136e-05
3.37608e-05
3.37214e-05
2.84084e-05
2.84078e-05
2.84078e-05
2.84072e-05
3.3758e-05
3.37211e-05
2.84063e-05
2.84083e-05
2.84055e-05
2.84075e-05
2.84102e-05
2.84052e-05
2.84094e-05
3.3761e-05
3.37213e-05
2.84081e-05
2.84071e-05
2.84074e-05
3.37147e-05
3.37604e-05
3.37208e-05
2.84086e-05
2.84079e-05
2.84076e-05
2.8407e-05
3.37582e-05
3.37208e-05
2.84063e-05
2.84084e-05
2.84054e-05
2.84075e-05
2.84103e-05
2.84051e-05
2.84094e-05
3.37606e-05
3.37189e-05
2.84082e-05
2.8407e-05
2.84073e-05
3.37161e-05
3.37601e-05
3.37207e-05
2.84087e-05
2.8408e-05
2.84075e-05
2.84069e-05
3.37579e-05
3.37212e-05
2.84064e-05
2.84085e-05
2.84054e-05
2.84074e-05
2.84104e-05
2.8405e-05
2.84092e-05
3.37591e-05
3.3719e-05
2.84083e-05
2.84068e-05
2.84071e-05
3.37156e-05
3.37599e-05
3.37213e-05
2.84088e-05
2.84081e-05
2.84075e-05
2.84069e-05
3.37582e-05
3.37209e-05
2.84067e-05
2.84087e-05
2.84053e-05
2.84073e-05
2.84107e-05
2.84049e-05
2.8409e-05
3.37588e-05
3.3721e-05
2.84085e-05
2.84068e-05
2.8407e-05
3.37145e-05
3.376e-05
3.37217e-05
2.84092e-05
2.84085e-05
2.84072e-05
2.84066e-05
3.37587e-05
3.372e-05
2.8407e-05
2.8409e-05
2.84051e-05
2.84071e-05
2.84108e-05
2.84048e-05
2.84091e-05
3.37595e-05
3.37215e-05
2.84087e-05
2.84066e-05
2.84069e-05
3.37149e-05
3.37596e-05
3.37226e-05
2.84095e-05
2.84088e-05
2.84072e-05
2.84066e-05
3.37585e-05
3.372e-05
2.84073e-05
2.84092e-05
2.84052e-05
2.84071e-05
2.84112e-05
2.84048e-05
2.8409e-05
3.3759e-05
3.37224e-05
2.84092e-05
2.84065e-05
2.84068e-05
3.37157e-05
3.37596e-05
3.37233e-05
2.84099e-05
2.84094e-05
2.84074e-05
2.84067e-05
3.37583e-05
3.37206e-05
2.84078e-05
2.84097e-05
2.84052e-05
2.84072e-05
2.84119e-05
2.84047e-05
2.84089e-05
3.37579e-05
3.37246e-05
2.84096e-05
2.84067e-05
2.84069e-05
3.37159e-05
3.37607e-05
3.37225e-05
2.84108e-05
2.84101e-05
2.84077e-05
2.8407e-05
3.37582e-05
3.37215e-05
2.84087e-05
2.84106e-05
2.84054e-05
2.84074e-05
2.84126e-05
2.84049e-05
2.84092e-05
3.37609e-05
3.37216e-05
2.84104e-05
2.8407e-05
2.84071e-05
3.37153e-05
3.37614e-05
3.37202e-05
2.84122e-05
2.84116e-05
2.84083e-05
2.84077e-05
3.37593e-05
3.372e-05
2.841e-05
2.84121e-05
2.84062e-05
2.84082e-05
2.84138e-05
2.84058e-05
2.841e-05
3.37617e-05
3.37157e-05
2.84118e-05
2.84075e-05
2.84078e-05
3.37152e-05
3.37602e-05
3.37164e-05
2.84142e-05
2.84136e-05
2.84016e-05
2.84011e-05
3.37596e-05
3.3713e-05
2.8412e-05
2.84141e-05
2.83995e-05
2.84014e-05
2.84158e-05
2.83992e-05
2.84033e-05
3.37565e-05
3.3714e-05
2.84136e-05
2.84008e-05
2.84011e-05
3.37117e-05
3.37527e-05
3.33415e-05
2.8407e-05
2.84064e-05
2.79734e-05
2.79729e-05
3.37504e-05
3.33399e-05
2.84047e-05
2.84068e-05
2.7973e-05
2.79717e-05
2.84085e-05
2.79737e-05
2.79745e-05
3.37494e-05
3.33415e-05
2.84063e-05
2.79739e-05
2.7974e-05
3.3341e-05
3.29242e-05
2.73058e-05
2.73053e-05
3.29236e-05
2.73058e-05
2.7304e-05
1.68153e-05
1.68146e-05
1.68156e-05
2.73068e-05
3.29234e-05
2.73069e-05
6.65477e-06
1.10889e-06
4.52041e-06
4.51399e-06
9.50213e-08
3.59309e-07
2.80638e-07
2.76425e-06
9.8703e-08
3.89232e-07
2.76182e-06
4.3935e-07
3.63817e-07
1.86558e-07
3.99592e-07
2.85355e-07
5.01011e-06
2.33823e-07
6.70436e-06
1.39551e-05
2.14324e-05
2.84557e-07
4.80473e-06
2.36041e-07
6.39523e-06
2.61929e-06
2.63077e-06
2.6253e-06
2.62118e-06
2.61752e-06
2.62918e-06
2.62281e-06
8.68866e-08
6.30448e-07
1.23181e-06
4.11423e-07
8.92913e-08
6.09295e-07
1.22197e-06
1.35582e-05
2.09267e-05
9.67307e-08
1.23093e-06
6.91113e-07
4.43059e-07
9.87607e-08
1.2211e-06
6.6413e-07
1.76305e-06
1.91476e-06
3.45653e-07
1.74412e-06
1.89444e-06
4.6796e-07
9.91539e-06
3.96424e-07
1.27416e-05
3.67743e-05
4.65004e-05
4.54245e-07
9.5506e-06
3.96786e-07
1.19945e-05
2.63722e-06
2.64863e-06
2.64285e-06
2.70171e-06