/*--------------------------------*- C++ -*----------------------------------*\
| =========                 |                                                 |
| \\      /  F ield         | OpenFOAM: The Open Source CFD Toolbox           |
|  \\    /   O peration     | Version:  v2012                                 |
|   \\  /    A nd           | Website:  www.openfoam.com                      |
|    \\/     M anipulation  |                                                 |
\*---------------------------------------------------------------------------*/
FoamFile
{
    version     2.0;
    format      ascii;
    class       volScalarField;
    location    "150";
    object      nut;
}
// * * * * * * * * * * * * * * * * * * * * * * * * * * * * * * * * * * * * * //

dimensions      [0 2 -1 0 0 0 0];


internalField   nonuniform List<scalar> 
171728
(
2.88234e-05
2.74946e-06
3.19141e-06
2.23947e-06
2.92371e-05
2.94727e-06
3.38041e-06
2.1985e-06
3.03321e-05
3.22172e-06
3.65726e-06
2.2132e-06
3.13755e-05
3.5215e-06
3.97074e-06
2.24463e-06
3.23681e-05
3.87249e-06
4.32753e-06
2.27696e-06
3.3316e-05
4.28519e-06
4.70394e-06
2.30711e-06
3.42367e-05
4.76395e-06
5.13696e-06
2.30368e-06
3.51206e-05
5.25063e-06
5.61879e-06
2.31156e-06
3.59663e-05
5.76834e-06
6.14273e-06
2.3239e-06
3.67944e-05
6.29526e-06
6.69697e-06
2.38966e-06
3.76096e-05
6.86623e-06
7.30886e-06
2.54847e-06
3.8399e-05
7.52164e-06
7.97863e-06
2.76923e-06
3.91474e-05
8.21927e-06
8.60843e-06
3.02378e-06
3.98823e-05
8.95895e-06
9.26269e-06
3.30766e-06
4.06249e-05
9.77935e-06
9.75521e-06
3.61512e-06
4.13128e-05
1.05691e-05
1.02703e-05
3.92659e-06
4.20113e-05
1.13046e-05
1.08122e-05
4.20252e-06
4.27103e-05
1.19486e-05
1.13641e-05
4.465e-06
4.33254e-05
1.25464e-05
1.17935e-05
4.73068e-06
4.40411e-05
1.30187e-05
1.23405e-05
5.26606e-06
4.47754e-05
1.32224e-05
1.27839e-05
5.97008e-06
4.53635e-05
1.3733e-05
1.33041e-05
6.8111e-06
4.60244e-05
1.43631e-05
1.42985e-05
8.64978e-06
4.65213e-05
1.5355e-05
1.54183e-05
1.12997e-05
4.73771e-05
1.71941e-05
1.72349e-05
1.4924e-05
4.7921e-05
1.95121e-05
1.96473e-05
1.99546e-05
4.88608e-05
2.24776e-05
2.272e-05
2.71641e-05
4.95872e-05
2.64466e-05
2.64715e-05
3.49165e-05
5.09156e-05
3.11966e-05
3.15399e-05
4.32592e-05
5.20744e-05
3.63901e-05
3.75096e-05
5.1525e-05
5.28304e-05
4.14235e-05
4.22888e-05
5.88846e-05
5.30166e-05
4.70369e-05
4.74569e-05
6.62224e-05
5.36989e-05
5.45753e-05
5.48536e-05
7.35506e-05
5.87767e-05
6.66053e-05
6.67639e-05
8.29311e-05
6.8266e-05
8.15379e-05
8.16019e-05
9.3767e-05
8.16651e-05
9.69138e-05
9.69362e-05
0.000104214
9.76637e-05
0.000110596
0.000110603
0.000113054
0.000110247
0.000118711
0.000118716
0.000117594
0.00011688
0.000122133
0.000122136
0.000119337
0.00011943
0.000123265
0.000123267
0.000119916
0.00012021
0.000123594
0.000123595
0.000120103
0.000120393
0.000123656
0.000123656
0.000120172
0.000120419
0.000123652
0.000123652
0.000120105
0.000120431
0.000123664
0.000123664
0.000120131
0.00012043
0.000123658
0.000123657
0.000120156
0.00012043
0.000123662
0.000123661
0.000120132
0.000120431
0.00012366
0.000123659
0.000120107
0.000120432
0.00012366
0.000123659
0.000120198
0.000120432
0.000123665
0.000123663
0.000120135
0.000120433
0.000123664
0.000123662
0.000120076
0.000120434
0.000123659
0.000123658
0.000120102
0.000120434
0.000123661
0.00012366
0.000120157
0.000120434
0.000123662
0.000123659
0.000120181
0.000120435
0.000123661
0.000123659
0.000120176
0.000120434
0.000123666
0.000123661
0.000120176
0.000120434
0.000123665
0.000123661
0.000120198
0.000120434
0.000123662
0.000123659
0.000120103
0.000120434
0.000123663
0.000123659
0.000120118
0.000120435
0.000123668
0.00012366
0.000120207
0.000120435
0.000123661
0.00012366
0.000120143
0.000120435
0.000123661
0.00012366
0.000120081
0.000120435
0.000123666
0.000123661
0.000120132
0.000120435
0.000123665
0.000123661
0.000120175
0.000120435
0.000123662
0.000123659
0.000120169
0.000120435
0.000123661
0.000123658
0.000120141
0.000120435
0.000123663
0.000123661
0.000120108
0.000120435
0.000123665
0.000123661
0.000120094
0.000120435
0.000123664
0.00012366
0.000120094
0.000120435
0.000123663
0.00012366
0.000120084
0.000120435
0.000123662
0.000123659
0.000120083
0.000120435
0.000123662
0.000123659
0.000120109
0.000120435
0.000123662
0.000123659
0.000120127
0.000120435
0.000123662
0.000123659
0.000120112
0.000120435
0.000123662
0.00012366
0.000120095
0.000120435
0.000123662
0.000123659
0.000120092
0.000120435
0.000123662
0.000123658
0.000120094
0.000120435
0.000123662
0.000123659
0.000120095
0.000120435
0.000123662
0.00012366
0.00012009
0.000120435
0.000123662
0.000123659
0.000120084
0.000120435
0.000123663
0.000123658
0.000120087
0.000120435
0.000123663
0.000123659
0.000120099
0.000120435
0.000123662
0.000123659
0.000120099
0.000120435
0.000123663
0.000123659
0.000120091
0.000120435
0.000123663
0.000123659
0.000120085
0.000120435
0.000123663
0.00012366
0.000120087
0.000120435
0.000123664
0.000123661
0.000120094
0.000120435
0.000123665
0.00012366
0.000120092
0.000120436
0.000123666
0.000123662
0.000120087
0.000120436
0.000123667
0.000123664
0.000120088
0.000120436
0.000123671
0.000123665
0.000120094
0.000120437
0.000123676
0.000123671
0.0001201
0.000120439
0.000123683
0.000123681
0.000120101
0.000120441
0.000123699
0.000123695
0.0001201
0.000120395
0.000123677
0.000123671
0.000120105
0.000120957
0.000122776
0.000122771
0.000120301
2.35533e-06
2.87397e-06
2.3021e-06
2.25563e-06
3.02593e-06
3.05296e-06
2.94646e-05
2.93329e-05
2.95777e-05
2.92114e-05
2.52766e-06
2.34502e-06
2.35757e-06
2.82597e-06
2.67396e-06
2.25461e-06
2.33087e-06
2.37125e-06
3.21901e-06
2.70009e-06
3.35e-06
2.82916e-06
2.23701e-06
2.19514e-06
3.39038e-06
3.39038e-06
3.51072e-06
3.51021e-06
2.75425e-06
2.88719e-06
2.89412e-06
2.33305e-06
2.36125e-06
3.13813e-06
3.32181e-06
3.24665e-06
2.20914e-06
2.36449e-06
2.42729e-06
3.40745e-06
2.88939e-06
3.57396e-06
3.06747e-06
2.18384e-06
2.17344e-06
3.57777e-06
3.57197e-06
3.76551e-06
3.76012e-06
2.96065e-06
3.1559e-06
3.16947e-06
2.34919e-06
2.39574e-06
3.29672e-06
3.58765e-06
3.46414e-06
2.21803e-06
2.42623e-06
2.46459e-06
3.64173e-06
3.13267e-06
3.88076e-06
3.3511e-06
2.1601e-06
2.15257e-06
3.82712e-06
3.8242e-06
4.01607e-06
4.04268e-06
3.24941e-06
3.44376e-06
3.48664e-06
2.39027e-06
2.43561e-06
3.52466e-06
3.88976e-06
3.70222e-06
2.24842e-06
2.45731e-06
2.48228e-06
3.96564e-06
3.43858e-06
4.22219e-06
3.71166e-06
2.14435e-06
2.17961e-06
4.09051e-06
4.12233e-06
4.3608e-06
4.35905e-06
3.57059e-06
3.78662e-06
3.80118e-06
2.4313e-06
2.45706e-06
3.77117e-06
4.244e-06
3.98785e-06
2.27992e-06
2.47359e-06
2.50416e-06
4.30875e-06
3.81727e-06
4.57102e-06
4.11266e-06
2.18227e-06
2.26804e-06
4.4561e-06
4.44278e-06
4.75545e-06
4.71069e-06
3.88019e-06
4.17769e-06
4.12441e-06
2.44491e-06
2.47163e-06
4.06312e-06
4.61158e-06
4.31404e-06
2.31612e-06
2.49408e-06
2.52797e-06
4.66354e-06
4.21406e-06
4.9477e-06
4.52933e-06
2.2745e-06
2.35688e-06
4.85566e-06
4.80706e-06
5.16659e-06
5.12973e-06
4.2072e-06
4.64984e-06
4.49077e-06
2.46522e-06
2.52808e-06
4.39856e-06
5.03102e-06
4.6705e-06
2.31829e-06
2.5191e-06
2.57142e-06
5.04469e-06
4.62485e-06
5.36313e-06
4.9694e-06
2.35695e-06
2.43533e-06
5.27902e-06
5.22814e-06
5.6132e-06
5.56194e-06
4.58125e-06
5.14034e-06
4.91491e-06
2.5256e-06
2.6046e-06
4.76174e-06
5.50029e-06
5.01319e-06
2.3234e-06
2.56236e-06
2.60859e-06
5.46163e-06
5.07413e-06
5.762e-06
5.42317e-06
2.43456e-06
2.50243e-06
5.71439e-06
5.66986e-06
6.0139e-06
6.04752e-06
5.03187e-06
5.64097e-06
5.41953e-06
2.60143e-06
2.71126e-06
5.11064e-06
6.00976e-06
5.44075e-06
2.34108e-06
2.59568e-06
2.63418e-06
5.86814e-06
5.5539e-06
6.21367e-06
5.908e-06
2.493e-06
2.55673e-06
6.11042e-06
6.17335e-06
6.41859e-06
6.57213e-06
5.54291e-06
6.14844e-06
5.93621e-06
2.70311e-06
2.87925e-06
5.55389e-06
6.54586e-06
5.86382e-06
2.40139e-06
2.61299e-06
2.64642e-06
6.33921e-06
6.03518e-06
6.73758e-06
6.49564e-06
2.54422e-06
2.67991e-06
6.51215e-06
6.71962e-06
6.79483e-06
7.14899e-06
6.05349e-06
6.71612e-06
6.44337e-06
2.86858e-06
3.11034e-06
5.97054e-06
7.16682e-06
6.30697e-06
2.56827e-06
2.62315e-06
2.73652e-06
6.87138e-06
6.63325e-06
7.27802e-06
7.0714e-06
2.66032e-06
2.86637e-06
6.90706e-06
7.30296e-06
7.24865e-06
7.75694e-06
6.58769e-06
7.36967e-06
7.00821e-06
3.0939e-06
3.3968e-06
6.42664e-06
7.80177e-06
6.85992e-06
2.79628e-06
2.70707e-06
2.90006e-06
7.42342e-06
7.27213e-06
7.86631e-06
7.78676e-06
2.84095e-06
3.11436e-06
7.37894e-06
7.91429e-06
7.80447e-06
8.44316e-06
7.16721e-06
8.04872e-06
7.68958e-06
3.37462e-06
3.73387e-06
6.99716e-06
8.45471e-06
7.45097e-06
3.05641e-06
2.86315e-06
3.13468e-06
8.03389e-06
7.92425e-06
8.54415e-06
8.50493e-06
3.08125e-06
3.39599e-06
7.95301e-06
8.60575e-06
8.43181e-06
9.12578e-06
7.84178e-06
8.77003e-06
8.34937e-06
3.70384e-06
4.05769e-06
7.61189e-06
9.12058e-06
8.1208e-06
3.3504e-06
3.0871e-06
3.41233e-06
8.71801e-06
8.7209e-06
9.28068e-06
9.19716e-06
3.35094e-06
3.71097e-06
8.57247e-06
9.30838e-06
9.08305e-06
9.80374e-06
8.53752e-06
9.57085e-06
9.091e-06
4.01073e-06
4.29363e-06
8.27619e-06
9.60753e-06
8.74411e-06
3.66856e-06
3.35183e-06
3.70578e-06
9.45637e-06
9.34001e-06
9.99122e-06
9.88323e-06
3.65282e-06
4.03916e-06
9.25982e-06
9.95114e-06
9.77112e-06
1.04538e-05
9.27752e-06
1.03886e-05
9.79155e-06
4.22213e-06
4.44214e-06
8.94466e-06
1.01763e-05
9.45122e-06
3.97437e-06
3.65516e-06
4.00591e-06
1.01736e-05
1.00562e-05
1.07314e-05
1.06175e-05
3.99112e-06
4.29536e-06
9.94241e-06
1.05801e-05
1.05361e-05
1.10553e-05
9.93732e-06
1.11184e-05
1.05043e-05
4.36299e-06
4.50454e-06
9.57163e-06
1.06663e-05
1.01454e-05
4.21363e-06
4.00537e-06
4.31457e-06
1.08699e-05
1.07774e-05
1.12523e-05
1.11516e-05
4.28546e-06
4.60098e-06
1.07217e-05
1.12478e-05
1.11216e-05
1.15113e-05
1.06938e-05
1.17574e-05
1.10908e-05
4.44426e-06
4.54225e-06
1.03711e-05
1.11894e-05
1.08949e-05
4.49075e-06
4.29318e-06
4.64351e-06
1.14754e-05
1.1339e-05
1.18976e-05
1.17101e-05
4.57674e-06
4.88497e-06
1.13376e-05
1.16628e-05
1.18932e-05
1.20883e-05
1.12622e-05
1.24495e-05
1.15911e-05
4.47802e-06
4.64916e-06
1.10535e-05
1.17096e-05
1.16449e-05
4.72585e-06
4.63222e-06
5.11031e-06
1.19678e-05
1.17899e-05
1.23741e-05
1.21779e-05
4.86224e-06
5.27329e-06
1.19996e-05
1.21809e-05
1.23976e-05
1.24846e-05
1.16933e-05
1.29314e-05
1.20631e-05
4.60923e-06
4.99908e-06
1.19712e-05
1.22345e-05
1.28653e-05
5.25708e-06
5.14351e-06
5.89245e-06
1.24785e-05
1.22788e-05
1.28852e-05
1.25872e-05
5.28251e-06
5.87802e-06
1.24898e-05
1.2526e-05
1.27978e-05
1.29517e-05
1.20998e-05
1.31407e-05
1.24115e-05
5.00564e-06
5.63916e-06
1.30125e-05
1.26445e-05
1.35641e-05
5.90979e-06
5.98867e-06
7.04541e-06
1.31121e-05
1.27394e-05
1.36706e-05
1.31666e-05
5.93497e-06
6.88436e-06
1.29678e-05
1.31094e-05
1.34232e-05
1.33047e-05
1.25654e-05
1.36044e-05
1.29548e-05
5.72365e-06
6.62429e-06
1.37963e-05
1.31578e-05
1.41603e-05
6.66602e-06
7.23948e-06
8.66446e-06
1.3792e-05
1.32974e-05
1.43557e-05
1.38793e-05
7.06943e-06
8.42047e-06
1.3559e-05
1.34912e-05
1.42009e-05
1.43451e-05
1.31706e-05
1.41734e-05
1.39603e-05
6.79206e-06
8.35972e-06
1.41959e-05
1.40185e-05
1.44873e-05
8.31157e-06
8.9769e-06
1.10683e-05
1.46473e-05
1.41543e-05
1.55518e-05
1.50355e-05
8.71527e-06
1.0759e-05
1.44959e-05
1.45229e-05
1.52396e-05
1.48974e-05
1.42137e-05
1.50607e-05
1.52315e-05
8.70753e-06
1.07225e-05
1.46692e-05
1.51121e-05
1.53259e-05
1.07874e-05
1.15626e-05
1.45525e-05
1.58552e-05
1.5369e-05
1.69132e-05
1.66844e-05
1.12552e-05
1.43119e-05
1.54869e-05
1.518e-05
1.66903e-05
1.67354e-05
1.56877e-05
1.666e-05
1.71231e-05
1.11809e-05
1.41939e-05
1.55972e-05
1.67144e-05
1.66626e-05
1.42635e-05
1.52789e-05
1.9518e-05
1.73279e-05
1.72078e-05
1.88407e-05
1.89011e-05
1.5073e-05
1.94187e-05
1.72277e-05
1.73494e-05
1.89663e-05
1.90635e-05
1.75604e-05
1.88924e-05
1.89387e-05
1.49705e-05
1.94233e-05
1.70963e-05
1.89862e-05
1.87115e-05
1.88905e-05
2.05653e-05
2.60984e-05
1.94695e-05
1.95455e-05
2.1642e-05
2.17767e-05
2.04516e-05
2.59143e-05
1.9619e-05
1.96494e-05
2.1856e-05
2.16946e-05
1.95377e-05
2.16495e-05
2.17559e-05
2.04808e-05
2.59846e-05
1.94163e-05
2.18886e-05
2.1873e-05
2.58531e-05
2.7357e-05
3.37433e-05
2.24564e-05
2.26251e-05
2.52736e-05
2.5486e-05
2.71833e-05
3.37799e-05
2.26798e-05
2.25029e-05
2.54225e-05
2.53483e-05
2.25906e-05
2.53862e-05
2.52852e-05
2.72381e-05
3.3662e-05
2.27555e-05
2.547e-05
2.55767e-05
3.35087e-05
3.52149e-05
4.22204e-05
2.63339e-05
2.65402e-05
2.99268e-05
3.01571e-05
3.52856e-05
4.22755e-05
2.64532e-05
2.64245e-05
2.99919e-05
3.00577e-05
2.6256e-05
2.99302e-05
2.9611e-05
3.51371e-05
4.22906e-05
2.65843e-05
3.00892e-05
2.99806e-05
4.17211e-05
4.37447e-05
5.02799e-05
3.12497e-05
3.15196e-05
3.52717e-05
3.56472e-05
4.37875e-05
5.03806e-05
3.13068e-05
3.14008e-05
3.53068e-05
3.54511e-05
3.08953e-05
3.51254e-05
3.49255e-05
4.38856e-05
5.081e-05
3.12585e-05
3.61232e-05
3.52202e-05
5.00665e-05
5.16816e-05
5.75109e-05
3.65451e-05
3.69142e-05
4.02067e-05
4.04541e-05
5.18043e-05
5.76528e-05
3.65697e-05
3.67034e-05
4.023e-05
4.02744e-05
3.62278e-05
4.0122e-05
4.00203e-05
5.22368e-05
5.78213e-05
3.64897e-05
4.11235e-05
4.02035e-05
5.75351e-05
5.88385e-05
6.47688e-05
4.14741e-05
4.16752e-05
4.55488e-05
4.56495e-05
5.89734e-05
6.48541e-05
4.15119e-05
4.15275e-05
4.56348e-05
4.56024e-05
4.1336e-05
4.55802e-05
4.55063e-05
5.90806e-05
6.48525e-05
4.15003e-05
4.60744e-05
4.56164e-05
6.48459e-05
6.61563e-05
7.21045e-05
4.70029e-05
4.70834e-05
5.22957e-05
5.23296e-05
6.62267e-05
7.21028e-05
4.71011e-05
4.70611e-05
5.23981e-05
5.23632e-05
4.69719e-05
5.23067e-05
5.22641e-05
6.62276e-05
7.21602e-05
4.70666e-05
5.26104e-05
5.23211e-05
7.2098e-05
7.35682e-05
8.1106e-05
5.45803e-05
5.46006e-05
6.32391e-05
6.32311e-05
7.3556e-05
8.10762e-05
5.46727e-05
5.46482e-05
6.32854e-05
6.3297e-05
5.45456e-05
6.3216e-05
6.3205e-05
7.36213e-05
8.11523e-05
5.45917e-05
6.34056e-05
6.3224e-05
8.10769e-05
8.29576e-05
9.18669e-05
6.66317e-05
6.66199e-05
7.77153e-05
7.77019e-05
8.29309e-05
9.18541e-05
6.66644e-05
6.66835e-05
7.77198e-05
7.77453e-05
6.66011e-05
7.76955e-05
7.76984e-05
8.30009e-05
9.18922e-05
6.66137e-05
7.77766e-05
7.76986e-05
9.18578e-05
9.37746e-05
0.000102471
8.15577e-05
8.15447e-05
9.31041e-05
9.30921e-05
9.3764e-05
0.000102466
8.15575e-05
8.15809e-05
9.30992e-05
9.31116e-05
8.15459e-05
9.30957e-05
9.31053e-05
9.3796e-05
0.00010248
8.15434e-05
9.31255e-05
9.30993e-05
0.000102471
0.000104215
0.000111742
9.69199e-05
9.69082e-05
0.000107591
0.000107579
0.000104211
0.00011174
9.69161e-05
9.6924e-05
0.00010759
0.000107588
9.69232e-05
0.000107594
0.000107597
0.000104221
0.000111742
9.69181e-05
0.000107602
0.000107595
0.000111742
0.000113054
0.000117057
0.000110592
0.00011058
0.000117219
0.000117206
0.000113052
0.000117055
0.000110592
0.000110587
0.000117221
0.000117209
0.000110599
0.000117226
0.000117228
0.000113053
0.000117057
0.000110599
0.000117232
0.000117229
0.000117062
0.00011759
0.000119137
0.000118702
0.000118689
0.000121562
0.000121548
0.000117588
0.000119136
0.000118705
0.000118691
0.000121567
0.00012155
0.000118712
0.000121574
0.000121572
0.000117589
0.000119134
0.000118714
0.000121577
0.000121576
0.00011914
0.000119334
0.000119861
0.00012212
0.000122106
0.000123082
0.000123068
0.000119333
0.000119861
0.000122126
0.000122107
0.000123089
0.00012307
0.00012213
0.000123096
0.000123093
0.000119331
0.000119858
0.000122135
0.000123098
0.000123098
0.000119865
0.000119912
0.000120102
0.000123251
0.000123237
0.000123531
0.000123517
0.000119912
0.000120102
0.000123258
0.000123238
0.000123538
0.000123518
0.000123261
0.000123546
0.000123541
0.000119909
0.000120099
0.000123267
0.000123547
0.000123547
0.000120105
0.000120101
0.000120187
0.000123579
0.000123565
0.000123638
0.000123625
0.0001201
0.000120187
0.000123586
0.000123566
0.000123646
0.000123625
0.000123588
0.000123653
0.000123647
0.000120097
0.000120183
0.000123594
0.000123653
0.000123653
0.000120189
0.00012017
0.000120127
0.000123641
0.000123628
0.000123638
0.000123624
0.00012017
0.000120126
0.000123648
0.000123628
0.000123645
0.000123624
0.00012365
0.000123652
0.000123646
0.000120166
0.000120123
0.000123656
0.000123652
0.000123652
0.000120128
0.000120106
0.000120131
0.000123637
0.000123624
0.000123643
0.000123631
0.000120104
0.000120131
0.000123644
0.000123624
0.00012365
0.00012363
0.000123646
0.000123659
0.000123652
0.0001201
0.00012013
0.000123651
0.000123659
0.000123658
0.000120136
0.000120125
0.000120198
0.000123649
0.000123637
0.000123648
0.000123635
0.000120126
0.000120197
0.000123656
0.000123636
0.000123655
0.000123633
0.000123657
0.000123663
0.000123655
0.000120125
0.000120189
0.000123663
0.000123661
0.00012366
0.000120193
0.000120165
0.000120098
0.000123643
0.00012363
0.000123644
0.000123632
0.000120161
0.000120104
0.00012365
0.000123629
0.00012365
0.00012363
0.000123651
0.000123659
0.000123652
0.000120153
0.000120106
0.000123656
0.000123658
0.000123658
0.000120114
0.000120119
0.000120162
0.000123647
0.000123635
0.000123646
0.000123633
0.000120124
0.000120152
0.000123654
0.000123633
0.000123653
0.000123632
0.000123654
0.000123661
0.000123653
0.000120124
0.000120144
0.000123661
0.00012366
0.00012366
0.00012015
0.000120117
0.000120184
0.000123645
0.000123632
0.000123646
0.000123633
0.000120108
0.000120194
0.000123652
0.000123631
0.000123652
0.000123631
0.000123653
0.000123661
0.000123653
0.0001201
0.000120195
0.000123659
0.000123659
0.000123659
0.000120198
0.000120191
0.000120087
0.000123646
0.000123633
0.000123646
0.000123634
0.000120196
0.000120106
0.000123652
0.000123631
0.000123652
0.000123633
0.000123653
0.000123664
0.000123656
0.000120192
0.00012012
0.000123658
0.000123662
0.000123661
0.000120109
0.000120101
0.000120115
0.000123648
0.000123635
0.000123644
0.000123632
0.000120133
0.000120092
0.000123652
0.000123633
0.000123651
0.00012363
0.000123657
0.000123659
0.000123651
0.000120144
0.000120091
0.000123662
0.000123657
0.000123657
0.000120096
0.000120076
0.000120187
0.000123646
0.000123635
0.000123647
0.000123632
0.000120079
0.000120124
0.000123651
0.000123633
0.000123652
0.000123631
0.000123655
0.00012366
0.000123652
0.000120101
0.0001201
0.00012366
0.000123658
0.000123658
0.000120147
0.000120138
0.000120198
0.000123646
0.000123633
0.000123647
0.000123634
0.000120082
0.000120183
0.000123652
0.000123632
0.000123652
0.00012363
0.000123651
0.000123664
0.000123655
0.000120078
0.000120119
0.000123657
0.00012366
0.00012366
0.000120198
0.000120189
0.000120153
0.000123647
0.000123633
0.00012365
0.000123636
0.000120134
0.0001202
0.000123652
0.000123631
0.000123653
0.000123631
0.000123653
0.000123663
0.000123654
0.000120083
0.000120133
0.000123659
0.000123659
0.00012366
0.000120197
0.000120167
0.000120118
0.000123648
0.000123633
0.000123649
0.000123637
0.000120172
0.000120195
0.000123652
0.00012363
0.000123654
0.000123634
0.000123653
0.000123664
0.000123656
0.00012009
0.000120158
0.000123658
0.000123661
0.000123661
0.000120178
0.000120139
0.000120108
0.000123649
0.000123635
0.000123647
0.000123637
0.000120183
0.000120179
0.000123654
0.000123632
0.000123652
0.000123632
0.000123654
0.000123667
0.000123655
0.000120112
0.000120175
0.000123659
0.000123662
0.00012366
0.000120185
0.000120121
0.000120097
0.000123649
0.000123637
0.000123647
0.000123634
0.000120187
0.00012012
0.000123654
0.000123632
0.00012365
0.000123631
0.000123654
0.000123662
0.000123656
0.000120133
0.000120157
0.000123659
0.00012366
0.000123662
0.000120191
0.000120099
0.000120105
0.000123649
0.000123637
0.000123646
0.000123634
0.00012014
0.000120131
0.000123652
0.000123631
0.000123651
0.000123631
0.000123657
0.000123662
0.000123652
0.000120112
0.000120158
0.000123663
0.000123659
0.000123657
0.000120088
0.000120073
0.000120169
0.000123647
0.000123634
0.000123649
0.000123638
0.000120128
0.000120179
0.000123651
0.00012363
0.000123653
0.000123633
0.000123654
0.000123666
0.000123655
0.000120109
0.000120182
0.00012366
0.000123661
0.000123659
0.000120163
0.000120123
0.000120161
0.000123646
0.000123636
0.000123651
0.000123635
0.000120191
0.0001201
0.00012365
0.000123631
0.000123655
0.000123633
0.000123652
0.000123666
0.000123659
0.000120139
0.000120158
0.000123657
0.000123661
0.000123664
0.00012021
0.000120133
0.000120113
0.000123651
0.000123636
0.000123648
0.000123636
0.000120121
0.000120136
0.000123654
0.000123632
0.000123651
0.000123633
0.000123658
0.00012366
0.000123652
0.000120109
0.00012018
0.000123662
0.000123661
0.000123659
0.000120113
0.000120076
0.000120195
0.000123648
0.000123636
0.000123649
0.000123636
0.000120102
0.0001202
0.000123651
0.000123632
0.000123652
0.000123633
0.000123657
0.000123666
0.000123653
0.000120128
0.000120202
0.000123663
0.000123661
0.000123657
0.00012011
0.000120153
0.000120184
0.000123649
0.000123636
0.000123649
0.000123636
0.000120174
0.000120181
0.000123652
0.000123633
0.000123652
0.000123632
0.000123652
0.000123666
0.000123656
0.000120188
0.000120151
0.000123658
0.00012366
0.000123659
0.000120175
0.00012018
0.000120142
0.000123649
0.000123636
0.000123649
0.000123636
0.000120184
0.00012012
0.000123652
0.000123632
0.000123653
0.000123632
0.000123655
0.000123662
0.000123654
0.000120167
0.000120092
0.000123657
0.000123659
0.000123661
0.000120193
0.000120158
0.000120103
0.000123649
0.000123636
0.000123648
0.000123636
0.000120145
0.000120095
0.000123652
0.000123632
0.000123653
0.000123632
0.000123654
0.000123661
0.000123654
0.000120111
0.000120103
0.000123658
0.000123658
0.000123662
0.000120167
0.000120111
0.000120119
0.000123648
0.000123636
0.000123651
0.000123636
0.000120081
0.000120138
0.000123654
0.000123632
0.00012365
0.000123631
0.000123653
0.000123663
0.000123655
0.00012007
0.000120175
0.000123662
0.000123661
0.000123658
0.000120128
0.000120089
0.000120146
0.000123651
0.000123636
0.000123647
0.000123636
0.000120092
0.000120221
0.000123653
0.000123631
0.000123651
0.000123633
0.000123655
0.000123666
0.000123654
0.000120127
0.00012019
0.000123659
0.000123662
0.000123659
0.000120106
0.000120106
0.000120168
0.000123649
0.000123636
0.000123649
0.000123637
0.00012019
0.000120162
0.00012365
0.000123631
0.000123653
0.000123633
0.000123655
0.000123665
0.000123653
0.00012017
0.000120156
0.000123659
0.00012366
0.000123659
0.000120115
0.000120119
0.00012021
0.000123647
0.000123636
0.000123652
0.000123637
0.00012018
0.000120091
0.000123651
0.000123632
0.000123653
0.000123632
0.000123654
0.000123663
0.000123654
0.000120133
0.000120127
0.00012366
0.000123659
0.000123658
0.000120121
0.00012017
0.000120191
0.000123649
0.000123637
0.000123651
0.000123634
0.000120111
0.000120102
0.000123651
0.000123632
0.000123654
0.000123633
0.000123654
0.000123662
0.000123653
0.000120093
0.000120125
0.000123659
0.000123659
0.000123658
0.000120118
0.000120195
0.000120119
0.000123652
0.000123637
0.000123648
0.000123634
0.00012008
0.000120128
0.000123655
0.000123633
0.00012365
0.000123632
0.000123655
0.000123662
0.000123653
0.000120089
0.000120144
0.000123659
0.000123659
0.000123657
0.000120132
0.000120141
0.000120122
0.00012365
0.000123635
0.000123648
0.000123635
0.00012009
0.000120156
0.000123652
0.000123632
0.000123651
0.000123631
0.000123653
0.000123662
0.000123654
0.000120101
0.000120167
0.000123658
0.00012366
0.000123659
0.000120167
0.000120118
0.000120168
0.000123648
0.000123634
0.00012365
0.000123636
0.000120111
0.000120177
0.000123651
0.000123631
0.000123652
0.000123632
0.000123653
0.000123663
0.000123655
0.00012012
0.000120184
0.000123657
0.000123661
0.00012366
0.000120185
0.000120163
0.000120188
0.000123648
0.000123634
0.00012365
0.000123636
0.00012013
0.000120187
0.000123651
0.000123631
0.000123653
0.000123632
0.000123654
0.000123663
0.000123654
0.000120141
0.000120192
0.000123658
0.000123661
0.000123659
0.000120167
0.000120168
0.00012019
0.000123649
0.000123634
0.000123649
0.000123636
0.000120145
0.000120194
0.000123651
0.000123631
0.000123652
0.000123632
0.000123654
0.000123662
0.000123654
0.000120159
0.000120188
0.000123659
0.000123661
0.000123659
0.000120144
0.000120164
0.000120196
0.000123648
0.000123635
0.00012365
0.000123636
0.00012016
0.000120194
0.000123652
0.000123631
0.000123651
0.000123632
0.000123654
0.000123663
0.000123654
0.000120167
0.000120182
0.000123658
0.000123659
0.000123658
0.000120141
0.000120174
0.000120192
0.000123648
0.000123635
0.00012365
0.000123636
0.000120172
0.000120186
0.000123651
0.000123631
0.000123652
0.000123632
0.000123653
0.000123663
0.000123654
0.000120162
0.00012019
0.000123658
0.000123659
0.000123658
0.000120143
0.000120183
0.000120176
0.000123649
0.000123635
0.000123649
0.000123636
0.00012017
0.000120188
0.000123652
0.000123631
0.000123652
0.000123632
0.000123653
0.000123662
0.000123654
0.000120167
0.000120189
0.000123658
0.00012366
0.000123658
0.000120142
0.00012018
0.000120163
0.000123649
0.000123635
0.00012365
0.000123636
0.000120168
0.000120192
0.000123652
0.000123632
0.000123652
0.000123632
0.000123653
0.000123662
0.000123653
0.000120181
0.000120165
0.000123658
0.000123659
0.000123658
0.000120132
0.000120173
0.000120165
0.00012365
0.000123636
0.000123649
0.000123636
0.000120174
0.000120188
0.000123652
0.000123632
0.000123652
0.000123632
0.000123653
0.000123662
0.000123653
0.000120173
0.000120138
0.000123658
0.000123658
0.000123657
0.000120126
0.00012017
0.000120178
0.000123649
0.000123636
0.000123649
0.000123635
0.00012018
0.000120178
0.000123652
0.000123632
0.000123652
0.000123631
0.000123653
0.000123663
0.000123653
0.000120152
0.000120145
0.000123657
0.000123658
0.000123657
0.000120136
0.000120172
0.000120186
0.000123649
0.000123636
0.000123649
0.000123635
0.000120178
0.000120169
0.000123652
0.000123632
0.000123651
0.000123631
0.000123653
0.000123662
0.000123653
0.000120151
0.000120173
0.000123657
0.000123659
0.000123658
0.000120152
0.000120174
0.000120186
0.000123649
0.000123635
0.000123649
0.000123635
0.000120172
0.000120174
0.000123651
0.000123631
0.000123652
0.000123631
0.000123653
0.000123662
0.000123653
0.000120168
0.000120179
0.000123658
0.000123658
0.000123657
0.000120145
0.000120176
0.000120186
0.000123649
0.000123635
0.000123649
0.000123635
0.00012017
0.000120184
0.000123651
0.000123631
0.000123651
0.000123631
0.000123653
0.000123662
0.000123653
0.000120166
0.000120186
0.000123658
0.000123658
0.000123656
0.000120123
0.000120179
0.000120179
0.000123649
0.000123635
0.000123648
0.000123635
0.000120171
0.000120188
0.000123652
0.000123631
0.00012365
0.000123631
0.000123654
0.000123662
0.000123652
0.000120168
0.000120186
0.000123658
0.000123658
0.000123656
0.000120121
0.000120179
0.000120171
0.000123649
0.000123636
0.000123648
0.000123635
0.000120174
0.000120185
0.000123652
0.000123632
0.00012365
0.00012363
0.000123654
0.000123662
0.000123652
0.000120178
0.000120165
0.000123658
0.000123658
0.000123656
0.000120131
0.000120175
0.000120168
0.00012365
0.000123636
0.000123647
0.000123634
0.000120174
0.000120182
0.000123652
0.000123632
0.00012365
0.00012363
0.000123654
0.000123662
0.000123652
0.000120171
0.00012015
0.000123658
0.000123658
0.000123656
0.000120141
0.000120173
0.00012017
0.00012365
0.000123636
0.000123648
0.000123634
0.000120171
0.000120186
0.000123653
0.000123633
0.00012365
0.00012363
0.000123655
0.000123662
0.000123652
0.00012016
0.000120154
0.000123659
0.000123657
0.000123656
0.000120137
0.000120174
0.000120173
0.00012365
0.000123637
0.000123648
0.000123635
0.000120174
0.000120184
0.000123654
0.000123633
0.000123651
0.000123631
0.000123656
0.000123662
0.000123652
0.000120162
0.000120168
0.000123659
0.000123659
0.000123656
0.000120129
0.000120174
0.000120176
0.000123653
0.000123639
0.000123648
0.000123634
0.000120177
0.000120177
0.000123655
0.000123635
0.000123651
0.000123631
0.000123656
0.000123662
0.000123653
0.00012017
0.000120169
0.00012366
0.000123658
0.000123657
0.000120133
0.000120171
0.000120187
0.000123653
0.00012364
0.000123649
0.000123636
0.000120176
0.000120177
0.000123656
0.000123636
0.000123653
0.000123632
0.000123658
0.000123664
0.000123654
0.000120162
0.000120182
0.000123662
0.000123659
0.000123657
0.000120139
0.000120174
0.000120193
0.000123656
0.000123643
0.000123653
0.000123639
0.000120174
0.000120183
0.000123659
0.000123639
0.000123655
0.000123635
0.000123662
0.000123666
0.000123656
0.000120158
0.000120199
0.000123664
0.000123663
0.000123661
0.000120141
0.000120184
0.000120184
0.000123661
0.000123648
0.000123658
0.000123645
0.000120175
0.000120191
0.000123665
0.000123644
0.00012366
0.00012364
0.000123666
0.000123671
0.000123662
0.000120185
0.000120169
0.00012367
0.000123668
0.000123666
0.000120136
0.000120188
0.000120166
0.000123671
0.000123657
0.000123668
0.000123655
0.000120184
0.000120177
0.000123673
0.000123653
0.000123671
0.000123651
0.000123674
0.000123683
0.000123673
0.000120182
0.000120128
0.000123679
0.000123677
0.000123676
0.000120136
0.000120178
0.000120168
0.000123685
0.000123672
0.000123685
0.000123673
0.000120186
0.000120153
0.000123687
0.000123668
0.000123689
0.000123669
0.000123689
0.0001237
0.000123689
0.000120145
0.000120144
0.000123693
0.000123696
0.000123695
0.000120139
0.000120169
0.00012014
0.000123661
0.00012365
0.000123881
0.000123869
0.000120162
0.000120135
0.000123665
0.000123645
0.000123887
0.000123864
0.000123665
0.000123899
0.000123884
0.00012014
0.000120137
0.000123671
0.000123894
0.000123892
0.00012013
0.000120302
0.000122758
0.000122747
0.000120302
0.000122764
0.000122741
0.000120955
0.000120952
0.000120959
0.000122761
0.000120294
0.00012277
7.20552e-05
1.23173e-05
4.90886e-05
4.90653e-05
6.12134e-07
2.55709e-06
9.41843e-07
3.06692e-05
5.83243e-07
2.86538e-06
3.0758e-05
1.6499e-06
2.28536e-06
9.79205e-07
2.83286e-06
9.80642e-07
1.35688e-05
8.76751e-07
1.53568e-05
1.09226e-05
1.31245e-05
1.01876e-06
1.32811e-05
9.18409e-07
1.49918e-05
2.8675e-05
2.89422e-05
2.85458e-05
2.8976e-05
2.88068e-05
2.91057e-05
2.86608e-05
5.01465e-07
4.3147e-07
1.33037e-05
2.77983e-06
5.3903e-07
5.48458e-07
1.32139e-05
1.07717e-05
1.29669e-05
5.98226e-07
1.37066e-05
5.08162e-07
3.2194e-06
6.2075e-07
1.36114e-05
6.2785e-07
1.33475e-06
1.5118e-06
2.22429e-06
1.53248e-06
1.72761e-06
1.15209e-06
1.86733e-05
1.19615e-06
2.11276e-05
1.71756e-05
1.93117e-05
1.14332e-06
1.828e-05
1.16984e-06
2.05088e-05
2.90705e-05
2.93691e-05
2.89296e-05
3.00578e-05