/*--------------------------------*- C++ -*----------------------------------*\
| =========                 |                                                 |
| \\      /  F ield         | OpenFOAM: The Open Source CFD Toolbox           |
|  \\    /   O peration     | Version:  v2012                                 |
|   \\  /    A nd           | Website:  www.openfoam.com                      |
|    \\/     M anipulation  |                                                 |
\*---------------------------------------------------------------------------*/
FoamFile
{
    version     2.0;
    format      ascii;
    class       volScalarField;
    location    "150";
    object      p;
}
// * * * * * * * * * * * * * * * * * * * * * * * * * * * * * * * * * * * * * //

dimensions      [0 2 -2 0 0 0 0];


internalField   nonuniform List<scalar> 
171728
(
0.00352024
0.00351958
0.00351958
0.00352092
0.00348405
0.00348298
0.00348291
0.00348603
0.00344713
0.00344568
0.00344564
0.00344792
0.00340238
0.00340115
0.00340111
0.00340363
0.00335417
0.00335289
0.0033529
0.00335555
0.00330597
0.0033048
0.00330482
0.00330743
0.003258
0.00325696
0.00325695
0.0032596
0.00321082
0.00320986
0.00320988
0.00321252
0.00316468
0.00316381
0.00316381
0.00316648
0.00311948
0.00311868
0.0031187
0.00312139
0.00307522
0.00307451
0.00307453
0.00307718
0.00303166
0.00303106
0.00303106
0.0030337
0.00298867
0.00298813
0.00298815
0.00299079
0.00294606
0.00294559
0.00294559
0.00294824
0.00290376
0.00290336
0.00290337
0.00290598
0.00286179
0.00286143
0.00286145
0.00286404
0.00282013
0.00281981
0.00281981
0.0028224
0.00277883
0.00277855
0.00277853
0.00278105
0.00273788
0.00273757
0.00273758
0.00274003
0.00269728
0.00269699
0.00269698
0.00269933
0.00265703
0.00265672
0.00265671
0.00265901
0.00261713
0.00261682
0.00261683
0.00261916
0.00257751
0.00257726
0.00257725
0.00257958
0.00253828
0.002538
0.00253802
0.0025403
0.0024994
0.00249911
0.00249911
0.00250157
0.00246092
0.00246067
0.00246066
0.00246312
0.00242296
0.00242269
0.00242271
0.00242519
0.00238571
0.00238545
0.00238547
0.00238793
0.00234959
0.00234939
0.00234936
0.00235177
0.0023143
0.0023142
0.00231418
0.00231645
0.00227918
0.00227922
0.00227922
0.00228136
0.0022436
0.00224363
0.00224364
0.00224578
0.00220723
0.00220722
0.00220723
0.00220936
0.00217052
0.00217048
0.00217049
0.00217257
0.00213399
0.00213387
0.00213387
0.00213591
0.00209786
0.00209764
0.00209764
0.00209965
0.00206198
0.00206173
0.00206173
0.00206374
0.00202621
0.00202601
0.00202601
0.00202805
0.00199054
0.00199043
0.00199043
0.00199249
0.00195493
0.00195487
0.00195487
0.00195694
0.00191932
0.00191928
0.00191928
0.00192136
0.00188372
0.00188368
0.00188368
0.00188577
0.00184812
0.00184808
0.00184808
0.00185016
0.00181251
0.00181247
0.00181247
0.00181456
0.0017769
0.00177687
0.00177687
0.00177895
0.0017413
0.00174126
0.00174126
0.00174334
0.00170569
0.00170565
0.00170565
0.00170774
0.00167008
0.00167005
0.00167005
0.00167213
0.00163448
0.00163444
0.00163444
0.00163652
0.00159887
0.00159884
0.00159884
0.00160092
0.00156328
0.00156324
0.00156324
0.00156532
0.00152768
0.00152764
0.00152764
0.00152972
0.00149208
0.00149204
0.00149204
0.00149412
0.00145647
0.00145643
0.00145644
0.00145852
0.00142087
0.00142084
0.00142084
0.00142292
0.00138527
0.00138524
0.00138524
0.00138732
0.00134968
0.00134964
0.00134964
0.00135172
0.00131408
0.00131404
0.00131404
0.00131613
0.00127849
0.00127845
0.00127845
0.00128053
0.00124289
0.00124286
0.00124286
0.00124494
0.0012073
0.00120726
0.00120726
0.00120934
0.0011717
0.00117167
0.00117167
0.00117375
0.00113611
0.00113607
0.00113607
0.00113815
0.00110051
0.00110048
0.00110048
0.00110256
0.00106492
0.00106488
0.00106488
0.00106696
0.00102932
0.00102928
0.00102928
0.00103137
0.000993724
0.000993688
0.000993689
0.000995772
0.000958127
0.000958092
0.000958093
0.000960176
0.00092253
0.000922496
0.000922495
0.000924579
0.000886933
0.000886899
0.000886898
0.000888982
0.000851337
0.000851301
0.000851301
0.000853384
0.000815741
0.000815704
0.000815704
0.000817788
0.000780145
0.000780108
0.000780108
0.000782192
0.00074455
0.000744513
0.000744513
0.000746598
0.000708955
0.000708918
0.000708919
0.000711002
0.00067336
0.000673323
0.000673324
0.000675407
0.000637765
0.000637728
0.000637728
0.000639812
0.00060217
0.000602133
0.000602134
0.000604218
0.000566575
0.000566538
0.000566539
0.000568623
0.000530981
0.000530944
0.000530944
0.000533028
0.000495388
0.000495351
0.000495351
0.000497434
0.000459796
0.000459759
0.000459759
0.000461843
0.000424206
0.000424169
0.000424169
0.000426253
0.000388618
0.000388581
0.000388581
0.000390664
0.000353031
0.000352994
0.000352994
0.000355076
0.000317446
0.000317409
0.00031741
0.00031949
0.000281862
0.000281826
0.000281826
0.000283905
0.000246279
0.000246244
0.000246243
0.000248319
0.000210697
0.000210661
0.000210663
0.000212733
0.000175113
0.00017508
0.000175079
0.000177143
0.000139525
0.000139496
0.000139494
0.000141547
0.000103926
0.000103906
0.000103906
0.000105937
6.83431e-05
6.83094e-05
6.83092e-05
7.03112e-05
3.36342e-05
3.32119e-05
3.32081e-05
3.49103e-05
4.67505e-06
4.15007e-06
4.15125e-06
3.92832e-06
0.00352597
0.00352427
0.00352424
0.00352597
0.00352425
0.0035243
0.00352907
0.00352908
0.00352908
0.00352907
0.00352428
0.00352424
0.00352601
0.00352432
0.00352428
0.00352599
0.00352092
0.00349046
0.00351956
0.00351956
0.00349218
0.00349215
0.00352091
0.00349047
0.00351958
0.00351958
0.00349211
0.00349216
0.00351958
0.0034921
0.00349212
0.00352092
0.00349044
0.00351959
0.00349217
0.00349206
0.00349057
0.00348598
0.00345329
0.0034829
0.00348292
0.00345548
0.00345542
0.00348597
0.00345332
0.00348299
0.00348291
0.00345539
0.00345551
0.00348299
0.00345543
0.00345543
0.00348595
0.0034533
0.00348298
0.00345548
0.00345546
0.00345326
0.00344793
0.00340984
0.00344563
0.00344564
0.00341282
0.00341285
0.00344795
0.00340984
0.00344568
0.0034456
0.0034128
0.00341283
0.00344577
0.0034128
0.0034128
0.00344793
0.00340982
0.00344574
0.00341283
0.0034128
0.00340982
0.00340364
0.00336192
0.00340112
0.00340109
0.003365
0.00336502
0.00340364
0.00336191
0.00340112
0.0034011
0.00336501
0.00336502
0.00340112
0.00336501
0.00336499
0.00340362
0.00336193
0.00340113
0.00336503
0.003365
0.00336191
0.00335556
0.00331373
0.00335291
0.00335289
0.00331682
0.0033168
0.00335554
0.00331373
0.0033529
0.00335291
0.00331681
0.00331682
0.00335289
0.00331683
0.00331681
0.00335557
0.00331373
0.00335291
0.00331682
0.00331682
0.00331374
0.00330743
0.00326584
0.00330481
0.00330482
0.00326889
0.00326888
0.00330742
0.00326584
0.00330482
0.00330481
0.00326888
0.00326889
0.0033048
0.00326888
0.0032689
0.00330743
0.00326584
0.00330481
0.00326889
0.0032689
0.00326584
0.0032596
0.00321862
0.00325694
0.00325695
0.00322153
0.00322152
0.00325961
0.00321861
0.00325695
0.00325696
0.00322153
0.00322154
0.00325694
0.00322153
0.00322152
0.00325961
0.00321863
0.00325696
0.00322153
0.00322153
0.00321861
0.00321253
0.00317243
0.00320986
0.00320984
0.00317523
0.00317523
0.00321252
0.00317244
0.00320987
0.00320988
0.00317524
0.00317526
0.00320985
0.00317526
0.00317523
0.00321254
0.00317244
0.00320987
0.00317525
0.00317524
0.00317244
0.00316648
0.00312721
0.00316381
0.00316381
0.00312989
0.00312988
0.00316649
0.0031272
0.0031638
0.00316381
0.00312987
0.00312988
0.00316381
0.00312989
0.00312988
0.00316648
0.00312721
0.0031638
0.00312988
0.00312987
0.00312721
0.00312138
0.0030829
0.0031187
0.0031187
0.00308549
0.00308548
0.00312138
0.00308292
0.00311869
0.0031187
0.00308548
0.0030855
0.00311869
0.0030855
0.00308549
0.00312139
0.0030829
0.0031187
0.00308549
0.00308549
0.00308289
0.00307719
0.00303933
0.00307452
0.00307451
0.00304186
0.00304185
0.00307721
0.00303934
0.00307452
0.00307453
0.00304185
0.00304185
0.00307451
0.00304186
0.00304185
0.00307719
0.00303933
0.00307452
0.00304185
0.00304186
0.00303933
0.00303372
0.00299633
0.00303103
0.00303104
0.0029988
0.00299882
0.00303373
0.00299631
0.00303104
0.00303106
0.00299881
0.00299883
0.00303104
0.00299882
0.00299881
0.00303372
0.00299632
0.00303105
0.00299882
0.00299881
0.00299635
0.00299078
0.00295373
0.00298813
0.00298813
0.0029562
0.00295619
0.00299077
0.00295374
0.00298813
0.00298814
0.00295619
0.00295619
0.00298813
0.00295619
0.0029562
0.00299079
0.00295372
0.00298813
0.00295619
0.00295619
0.00295373
0.00294823
0.00291145
0.00294559
0.00294558
0.00291388
0.00291388
0.00294824
0.00291146
0.00294558
0.00294559
0.00291389
0.00291389
0.0029456
0.00291388
0.00291389
0.00294823
0.00291141
0.0029456
0.00291389
0.00291389
0.00291142
0.002906
0.00286945
0.00290336
0.00290336
0.00287189
0.00287189
0.00290602
0.00286944
0.00290336
0.00290337
0.00287189
0.0028719
0.00290336
0.00287188
0.00287188
0.00290596
0.00286944
0.00290337
0.0028719
0.0028719
0.00286945
0.00286404
0.00282775
0.00286143
0.00286143
0.00283018
0.00283019
0.00286404
0.00282775
0.00286144
0.00286145
0.00283019
0.00283019
0.00286144
0.00283019
0.00283019
0.00286403
0.00282776
0.00286144
0.0028302
0.0028302
0.00282776
0.00282239
0.00278637
0.00281981
0.00281981
0.00278882
0.00278883
0.00282238
0.00278637
0.00281981
0.00281981
0.00278882
0.00278883
0.00281983
0.00278883
0.00278883
0.00282241
0.00278637
0.00281983
0.00278883
0.00278884
0.00278634
0.00278106
0.00274529
0.00277853
0.00277854
0.00274778
0.00274777
0.00278106
0.00274527
0.00277853
0.00277852
0.00274779
0.0027478
0.00277854
0.00274777
0.00274778
0.00278108
0.00274529
0.00277857
0.0027478
0.00274778
0.00274527
0.00274004
0.0027046
0.00273758
0.00273757
0.0027071
0.0027071
0.00274002
0.00270459
0.00273758
0.00273757
0.00270711
0.00270713
0.00273759
0.00270709
0.00270708
0.00274004
0.00270456
0.00273759
0.00270711
0.00270711
0.00270457
0.00269939
0.00266422
0.00269699
0.00269699
0.00266676
0.00266676
0.00269939
0.00266424
0.002697
0.002697
0.00266675
0.00266673
0.00269697
0.00266676
0.00266673
0.00269937
0.00266416
0.00269697
0.00266673
0.00266666
0.00266412
0.00265906
0.00262424
0.00265673
0.00265673
0.00262679
0.00262677
0.00265908
0.00262421
0.00265672
0.00265672
0.00262678
0.0026268
0.00265674
0.00262676
0.00262677
0.00265904
0.00262426
0.00265664
0.00262677
0.0026268
0.00262426
0.00261915
0.00258456
0.00261685
0.00261682
0.00258707
0.0025871
0.00261913
0.00258458
0.00261683
0.00261684
0.0025871
0.0025871
0.00261683
0.00258712
0.00258716
0.00261914
0.00258457
0.00261688
0.00258711
0.00258714
0.00258465
0.00257951
0.00254535
0.0025772
0.00257724
0.00254778
0.00254778
0.00257954
0.00254535
0.00257723
0.00257725
0.00254778
0.00254779
0.00257728
0.00254777
0.00254772
0.00257955
0.00254536
0.00257725
0.0025478
0.00254779
0.00254528
0.00254036
0.0025065
0.00253802
0.00253801
0.00250882
0.00250881
0.00254035
0.00250648
0.00253801
0.00253799
0.00250881
0.00250879
0.00253795
0.0025088
0.00250883
0.00254035
0.00250648
0.00253801
0.00250881
0.00250881
0.00250652
0.00250154
0.00246803
0.00249913
0.00249912
0.00247022
0.00247023
0.00250153
0.00246805
0.00249912
0.00249911
0.00247023
0.00247023
0.00249915
0.00247024
0.00247024
0.00250153
0.00246804
0.00249913
0.00247022
0.00247023
0.00246804
0.00246313
0.00243007
0.00246066
0.00246067
0.00243215
0.00243215
0.00246315
0.00243005
0.00246066
0.00246067
0.00243214
0.00243216
0.00246066
0.00243214
0.00243212
0.00246314
0.00243007
0.00246065
0.00243215
0.00243212
0.00243004
0.0024252
0.00239266
0.0024227
0.00242269
0.00239465
0.00239465
0.00242518
0.00239266
0.0024227
0.00242271
0.00239466
0.00239466
0.00242268
0.00239465
0.00239466
0.0024252
0.00239268
0.00242269
0.00239467
0.00239467
0.00239268
0.0023879
0.00235635
0.00238544
0.00238544
0.00235829
0.0023583
0.00238791
0.00235637
0.00238544
0.00238545
0.00235828
0.00235826
0.00238547
0.00235831
0.00235832
0.00238792
0.00235633
0.00238547
0.00235828
0.00235831
0.0023564
0.00235173
0.00232102
0.00234938
0.00234939
0.00232295
0.00232295
0.00235175
0.00232102
0.00234937
0.00234934
0.00232295
0.00232292
0.0023494
0.00232295
0.00232294
0.0023517
0.002321
0.00234939
0.00232292
0.00232294
0.00232101
0.00231646
0.00228596
0.0023142
0.0023142
0.00228799
0.00228799
0.00231646
0.00228596
0.0023142
0.00231418
0.00228799
0.002288
0.00231419
0.00228799
0.00228799
0.00231645
0.00228597
0.00231419
0.00228799
0.00228799
0.00228595
0.00228137
0.00225047
0.00227922
0.00227922
0.00225262
0.00225262
0.00228137
0.00225047
0.00227922
0.00227923
0.00225262
0.00225263
0.00227922
0.00225262
0.00225262
0.00228137
0.00225048
0.00227922
0.00225262
0.00225262
0.00225048
0.00224577
0.00221416
0.00224363
0.00224364
0.00221638
0.00221638
0.00224577
0.00221416
0.00224363
0.00224364
0.00221638
0.00221639
0.00224364
0.00221638
0.00221638
0.00224578
0.00221416
0.00224364
0.00221638
0.00221638
0.00221416
0.00220935
0.0021774
0.00220722
0.00220722
0.00217967
0.00217967
0.00220935
0.0021774
0.00220722
0.00220723
0.00217967
0.00217967
0.00220723
0.00217967
0.00217967
0.00220936
0.0021774
0.00220723
0.00217967
0.00217967
0.0021774
0.00217257
0.00214072
0.00217048
0.00217048
0.00214299
0.00214299
0.00217257
0.00214072
0.00217048
0.00217049
0.00214299
0.002143
0.00217048
0.00214299
0.00214299
0.00217257
0.00214072
0.00217048
0.002143
0.00214299
0.00214072
0.00213591
0.00210442
0.00213387
0.00213387
0.00210666
0.00210666
0.00213591
0.00210442
0.00213387
0.00213387
0.00210666
0.00210666
0.00213387
0.00210666
0.00210666
0.00213591
0.00210442
0.00213387
0.00210666
0.00210666
0.00210442
0.00209965
0.00206849
0.00209764
0.00209764
0.00207069
0.00207069
0.00209965
0.00206849
0.00209764
0.00209764
0.00207069
0.00207069
0.00209764
0.00207069
0.00207068
0.00209965
0.00206849
0.00209764
0.00207069
0.00207069
0.00206849
0.00206374
0.00203278
0.00206173
0.00206173
0.00203492
0.00203492
0.00206374
0.00203278
0.00206173
0.00206173
0.00203492
0.00203492
0.00206172
0.00203492
0.00203492
0.00206374
0.00203278
0.00206173
0.00203492
0.00203492
0.00203278
0.00202805
0.00199722
0.00202601
0.00202601
0.00199932
0.00199932
0.00202805
0.00199722
0.00202601
0.00202601
0.00199932
0.00199932
0.00202601
0.00199932
0.00199932
0.00202805
0.00199722
0.00202601
0.00199932
0.00199932
0.00199722
0.00199249
0.00196167
0.00199043
0.00199043
0.00196376
0.00196376
0.00199249
0.00196167
0.00199043
0.00199043
0.00196376
0.00196376
0.00199043
0.00196376
0.00196376
0.00199249
0.00196167
0.00199043
0.00196376
0.00196376
0.00196167
0.00195694
0.0019261
0.00195487
0.00195487
0.00192818
0.00192818
0.00195694
0.0019261
0.00195487
0.00195487
0.00192818
0.00192818
0.00195487
0.00192818
0.00192818
0.00195694
0.0019261
0.00195487
0.00192818
0.00192818
0.0019261
0.00192136
0.0018905
0.00191928
0.00191928
0.00189258
0.00189258
0.00192136
0.0018905
0.00191928
0.00191928
0.00189258
0.00189258
0.00191928
0.00189258
0.00189258
0.00192136
0.0018905
0.00191928
0.00189258
0.00189258
0.0018905
0.00188577
0.0018549
0.00188368
0.00188368
0.00185698
0.00185698
0.00188577
0.0018549
0.00188368
0.00188368
0.00185698
0.00185698
0.00188368
0.00185698
0.00185698
0.00188577
0.0018549
0.00188368
0.00185698
0.00185698
0.0018549
0.00185016
0.0018193
0.00184808
0.00184808
0.00182138
0.00182138
0.00185016
0.0018193
0.00184808
0.00184808
0.00182138
0.00182138
0.00184808
0.00182138
0.00182138
0.00185016
0.0018193
0.00184808
0.00182138
0.00182138
0.0018193
0.00181456
0.00178369
0.00181247
0.00181247
0.00178577
0.00178577
0.00181456
0.00178369
0.00181247
0.00181247
0.00178577
0.00178577
0.00181247
0.00178577
0.00178577
0.00181456
0.00178369
0.00181247
0.00178577
0.00178577
0.00178369
0.00177895
0.00174808
0.00177687
0.00177687
0.00175016
0.00175016
0.00177895
0.00174808
0.00177687
0.00177687
0.00175016
0.00175016
0.00177687
0.00175016
0.00175016
0.00177895
0.00174808
0.00177687
0.00175016
0.00175016
0.00174808
0.00174334
0.00171247
0.00174126
0.00174126
0.00171456
0.00171456
0.00174334
0.00171247
0.00174126
0.00174126
0.00171456
0.00171456
0.00174126
0.00171456
0.00171456
0.00174334
0.00171247
0.00174126
0.00171456
0.00171456
0.00171247
0.00170774
0.00167687
0.00170565
0.00170565
0.00167895
0.00167895
0.00170774
0.00167687
0.00170565
0.00170565
0.00167895
0.00167895
0.00170565
0.00167895
0.00167895
0.00170774
0.00167687
0.00170565
0.00167895
0.00167895
0.00167687
0.00167213
0.00164126
0.00167005
0.00167005
0.00164334
0.00164334
0.00167213
0.00164126
0.00167005
0.00167005
0.00164334
0.00164334
0.00167005
0.00164334
0.00164334
0.00167213
0.00164126
0.00167005
0.00164334
0.00164334
0.00164126
0.00163653
0.00160566
0.00163444
0.00163444
0.00160774
0.00160774
0.00163652
0.00160566
0.00163444
0.00163444
0.00160774
0.00160774
0.00163444
0.00160774
0.00160774
0.00163652
0.00160566
0.00163444
0.00160774
0.00160774
0.00160566
0.00160092
0.00157006
0.00159884
0.00159884
0.00157214
0.00157214
0.00160092
0.00157006
0.00159884
0.00159884
0.00157214
0.00157214
0.00159884
0.00157214
0.00157214
0.00160092
0.00157006
0.00159884
0.00157214
0.00157214
0.00157006
0.00156532
0.00153446
0.00156324
0.00156324
0.00153654
0.00153654
0.00156532
0.00153446
0.00156324
0.00156324
0.00153654
0.00153654
0.00156324
0.00153654
0.00153654
0.00156532
0.00153446
0.00156324
0.00153654
0.00153654
0.00153446
0.00152972
0.00149886
0.00152764
0.00152764
0.00150094
0.00150094
0.00152972
0.00149886
0.00152764
0.00152764
0.00150094
0.00150094
0.00152764
0.00150094
0.00150094
0.00152973
0.00149886
0.00152764
0.00150094
0.00150094
0.00149886
0.00149412
0.00146326
0.00149204
0.00149204
0.00146534
0.00146534
0.00149412
0.00146326
0.00149204
0.00149204
0.00146534
0.00146534
0.00149204
0.00146534
0.00146534
0.00149412
0.00146326
0.00149204
0.00146534
0.00146534
0.00146326
0.00145852
0.00142766
0.00145644
0.00145643
0.00142974
0.00142974
0.00145852
0.00142766
0.00145644
0.00145644
0.00142974
0.00142974
0.00145644
0.00142974
0.00142974
0.00145852
0.00142766
0.00145644
0.00142974
0.00142974
0.00142766
0.00142292
0.00139206
0.00142084
0.00142084
0.00139414
0.00139414
0.00142292
0.00139206
0.00142084
0.00142084
0.00139414
0.00139414
0.00142084
0.00139414
0.00139414
0.00142292
0.00139206
0.00142084
0.00139414
0.00139414
0.00139206
0.00138732
0.00135646
0.00138524
0.00138524
0.00135854
0.00135854
0.00138732
0.00135646
0.00138524
0.00138524
0.00135854
0.00135854
0.00138524
0.00135854
0.00135854
0.00138732
0.00135646
0.00138524
0.00135854
0.00135854
0.00135646
0.00135172
0.00132086
0.00134964
0.00134964
0.00132294
0.00132294
0.00135172
0.00132086
0.00134964
0.00134964
0.00132294
0.00132294
0.00134964
0.00132294
0.00132294
0.00135172
0.00132086
0.00134964
0.00132294
0.00132294
0.00132086
0.00131613
0.00128527
0.00131404
0.00131404
0.00128735
0.00128735
0.00131613
0.00128527
0.00131404
0.00131404
0.00128735
0.00128735
0.00131404
0.00128735
0.00128735
0.00131613
0.00128527
0.00131404
0.00128735
0.00128735
0.00128527
0.00128053
0.00124968
0.00127845
0.00127845
0.00125175
0.00125175
0.00128053
0.00124967
0.00127845
0.00127845
0.00125175
0.00125175
0.00127845
0.00125175
0.00125175
0.00128053
0.00124967
0.00127845
0.00125175
0.00125176
0.00124968
0.00124494
0.00121408
0.00124286
0.00124286
0.00121616
0.00121616
0.00124494
0.00121408
0.00124286
0.00124286
0.00121616
0.00121616
0.00124286
0.00121616
0.00121616
0.00124494
0.00121408
0.00124286
0.00121616
0.00121616
0.00121408
0.00120934
0.00117848
0.00120726
0.00120726
0.00118056
0.00118056
0.00120934
0.00117849
0.00120726
0.00120726
0.00118056
0.00118056
0.00120726
0.00118057
0.00118057
0.00120934
0.00117849
0.00120726
0.00118057
0.00118056
0.00117848
0.00117375
0.00114289
0.00117167
0.00117167
0.00114497
0.00114497
0.00117375
0.00114289
0.00117167
0.00117167
0.00114497
0.00114497
0.00117167
0.00114497
0.00114497
0.00117375
0.00114289
0.00117167
0.00114497
0.00114497
0.00114289
0.00113815
0.0011073
0.00113607
0.00113607
0.00110937
0.00110937
0.00113815
0.0011073
0.00113607
0.00113607
0.00110938
0.00110938
0.00113607
0.00110937
0.00110937
0.00113816
0.0011073
0.00113607
0.00110937
0.00110938
0.0011073
0.00110256
0.0010717
0.00110048
0.00110048
0.00107378
0.00107378
0.00110256
0.0010717
0.00110048
0.00110048
0.00107378
0.00107378
0.00110048
0.00107378
0.00107378
0.00110256
0.0010717
0.00110048
0.00107378
0.00107378
0.0010717
0.00106697
0.0010361
0.00106488
0.00106488
0.00103818
0.00103818
0.00106696
0.0010361
0.00106488
0.00106488
0.00103818
0.00103818
0.00106488
0.00103818
0.00103819
0.00106696
0.0010361
0.00106488
0.00103819
0.00103818
0.00103611
0.00103137
0.00100051
0.00102929
0.00102929
0.00100259
0.00100259
0.00103137
0.00100051
0.00102928
0.00102928
0.00100259
0.00100259
0.00102929
0.00100259
0.00100259
0.00103137
0.00100051
0.00102929
0.00100259
0.00100259
0.00100051
0.000995771
0.00096491
0.000993687
0.000993688
0.000966991
0.000966992
0.00099577
0.000964913
0.000993687
0.000993688
0.000966991
0.000966991
0.000993689
0.000966992
0.000966992
0.000995771
0.000964912
0.000993689
0.000966991
0.000966991
0.000964912
0.000960173
0.000929314
0.00095809
0.000958092
0.000931395
0.000931394
0.000960175
0.000929316
0.000958091
0.000958092
0.000931395
0.000931394
0.000958092
0.000931394
0.000931394
0.000960175
0.000929314
0.000958093
0.000931392
0.000931392
0.000929315
0.000924577
0.000893718
0.000922495
0.000922496
0.000895797
0.000895795
0.000924579
0.000893717
0.000922495
0.000922495
0.000895797
0.000895797
0.000922496
0.000895796
0.000895796
0.000924578
0.000893717
0.000922495
0.000895795
0.000895795
0.000893717
0.000888982
0.000858121
0.000886899
0.000886899
0.000860199
0.000860199
0.000888982
0.00085812
0.000886899
0.000886899
0.000860199
0.0008602
0.000886899
0.0008602
0.000860199
0.000888981
0.00085812
0.000886898
0.000860199
0.000860199
0.00085812
0.000853384
0.000822524
0.000851302
0.000851301
0.000824604
0.000824603
0.000853384
0.000822524
0.000851301
0.000851302
0.000824604
0.000824604
0.000851302
0.000824604
0.000824604
0.000853384
0.000822524
0.000851301
0.000824604
0.000824604
0.000822524
0.000817787
0.000786928
0.000815704
0.000815704
0.000789009
0.000789008
0.000817787
0.000786928
0.000815704
0.000815705
0.000789009
0.000789009
0.000815705
0.000789009
0.000789009
0.000817787
0.000786928
0.000815704
0.000789008
0.000789008
0.000786929
0.000782191
0.000751332
0.000780108
0.000780108
0.000753413
0.000753413
0.000782191
0.000751332
0.000780108
0.000780108
0.000753414
0.000753414
0.000780109
0.000753413
0.000753413
0.000782191
0.000751333
0.000780109
0.000753414
0.000753413
0.000751333
0.000746595
0.000715737
0.000744513
0.000744512
0.000717818
0.000717818
0.000746595
0.000715737
0.000744513
0.000744513
0.000717818
0.000717818
0.000744514
0.000717818
0.000717818
0.000746595
0.000715737
0.000744514
0.000717819
0.000717818
0.000715738
0.000711
0.000680142
0.000708918
0.000708917
0.000682223
0.000682223
0.000711
0.000680143
0.000708919
0.000708918
0.000682224
0.000682223
0.000708919
0.000682223
0.000682222
0.000711001
0.000680142
0.000708919
0.000682223
0.000682222
0.000680143
0.000675405
0.000644548
0.000673323
0.000673323
0.000646629
0.000646628
0.000675405
0.000644547
0.000673324
0.000673323
0.000646629
0.000646629
0.000673324
0.000646628
0.000646628
0.000675405
0.000644547
0.000673324
0.000646629
0.000646628
0.000644549
0.00063981
0.000608953
0.000637728
0.000637728
0.000611034
0.000611033
0.00063981
0.000608952
0.000637729
0.000637728
0.000611034
0.000611034
0.000637729
0.000611033
0.000611033
0.00063981
0.000608954
0.000637729
0.000611034
0.000611033
0.000608954
0.000604215
0.000573358
0.000602133
0.000602133
0.000575439
0.000575439
0.000604215
0.000573358
0.000602133
0.000602133
0.000575439
0.000575439
0.000602134
0.000575438
0.000575438
0.000604216
0.000573359
0.000602134
0.000575439
0.000575438
0.000573359
0.000568621
0.000537764
0.000566539
0.000566538
0.000539845
0.000539845
0.00056862
0.000537764
0.000566538
0.000566539
0.000539844
0.000539845
0.000566539
0.000539844
0.000539843
0.000568621
0.000537763
0.000566539
0.000539843
0.000539843
0.000537764
0.000533026
0.00050217
0.000530945
0.000530945
0.000504251
0.000504251
0.000533026
0.00050217
0.000530944
0.000530945
0.00050425
0.00050425
0.000530945
0.00050425
0.000504249
0.000533026
0.000502169
0.000530944
0.00050425
0.00050425
0.00050217
0.000497432
0.000466578
0.000495351
0.000495351
0.000468658
0.000468658
0.000497433
0.000466578
0.00049535
0.000495351
0.000468658
0.000468658
0.000495352
0.000468657
0.000468657
0.000497432
0.000466578
0.000495352
0.000468658
0.000468658
0.000466579
0.00046184
0.000430987
0.000459759
0.000459759
0.000433068
0.000433067
0.00046184
0.000430987
0.000459758
0.000459759
0.000433068
0.000433068
0.00045976
0.000433067
0.000433067
0.000461841
0.000430987
0.000459761
0.000433067
0.000433066
0.000430989
0.00042625
0.000395399
0.000424169
0.000424169
0.000397479
0.000397479
0.00042625
0.000395399
0.000424169
0.000424169
0.000397479
0.000397479
0.00042417
0.000397478
0.000397478
0.00042625
0.000395399
0.000424171
0.000397478
0.000397477
0.0003954
0.000390662
0.000359813
0.000388581
0.000388581
0.000361892
0.000361892
0.000390661
0.000359812
0.000388583
0.000388582
0.000361891
0.000361891
0.000388583
0.000361891
0.00036189
0.000390661
0.000359812
0.000388582
0.000361891
0.00036189
0.000359813
0.000355075
0.000324227
0.000352996
0.000352995
0.000326306
0.000326305
0.000355074
0.000324227
0.000352996
0.000352996
0.000326305
0.000326306
0.000352996
0.000326305
0.000326305
0.000355074
0.000324227
0.000352995
0.000326306
0.000326305
0.000324228
0.000319488
0.000288643
0.00031741
0.00031741
0.000290721
0.00029072
0.000319488
0.000288643
0.00031741
0.00031741
0.000290721
0.000290721
0.000317411
0.000290721
0.000290721
0.000319488
0.000288643
0.00031741
0.00029072
0.00029072
0.000288644
0.000283902
0.000253061
0.000281825
0.000281825
0.000255138
0.000255138
0.000283902
0.000253061
0.000281826
0.000281826
0.000255138
0.000255138
0.000281828
0.000255137
0.000255136
0.000283903
0.000253061
0.000281827
0.000255137
0.000255136
0.000253062
0.000248318
0.00021748
0.000246244
0.000246244
0.000219554
0.000219554
0.000248317
0.00021748
0.000246244
0.000246244
0.000219554
0.000219554
0.000246244
0.000219554
0.000219553
0.000248317
0.00021748
0.000246244
0.000219554
0.000219553
0.000217481
0.000212731
0.000181899
0.000210663
0.000210663
0.000183969
0.00018397
0.000212731
0.0001819
0.000210662
0.000210661
0.00018397
0.00018397
0.000210662
0.000183971
0.00018397
0.000212732
0.000181898
0.000210663
0.000183969
0.000183969
0.0001819
0.000177141
0.000146318
0.000175079
0.00017508
0.000148385
0.000148385
0.000177141
0.000146319
0.000175079
0.000175079
0.000148385
0.000148385
0.000175081
0.000148385
0.000148384
0.000177141
0.000146318
0.00017508
0.000148384
0.000148384
0.00014632
0.000141545
0.000110735
0.000139495
0.000139495
0.000112795
0.000112795
0.000141545
0.000110735
0.000139496
0.000139496
0.000112794
0.000112794
0.000139497
0.000112793
0.000112792
0.000141544
0.000110735
0.000139495
0.000112794
0.000112793
0.000110736
0.000105936
7.51435e-05
0.000103907
0.000103906
7.71927e-05
7.71928e-05
0.000105936
7.51441e-05
0.000103907
0.000103906
7.71915e-05
7.71913e-05
0.000103906
7.71918e-05
7.71898e-05
0.000105936
7.51426e-05
0.000103907
7.71905e-05
7.71897e-05
7.51427e-05
7.03122e-05
3.96867e-05
6.8311e-05
6.83105e-05
4.17731e-05
4.17743e-05
7.03118e-05
3.96879e-05
6.83095e-05
6.83088e-05
4.17724e-05
4.17706e-05
6.83081e-05
4.17733e-05
4.17695e-05
7.03115e-05
3.96842e-05
6.83089e-05
4.17693e-05
4.17683e-05
3.9684e-05
3.49139e-05
7.14393e-06
3.32128e-05
3.32139e-05
9.80579e-06
9.80482e-06
3.49143e-05
7.14365e-06
3.32117e-05
3.3209e-05
9.80495e-06
9.80113e-06
3.32076e-05
9.80415e-06
9.79931e-06
3.49109e-05
7.1408e-06
3.32077e-05
9.80269e-06
9.80195e-06
7.13951e-06
3.93118e-06
4.15507e-06
4.15111e-06
3.93183e-06
4.14632e-06
4.14641e-06
4.67448e-06
4.67342e-06
4.67293e-06
4.14912e-06
3.92955e-06
4.14709e-06
0.00353284
0.00353623
0.0035348
0.0035348
0.00355867
0.00353713
0.00356473
0.00353624
0.00355868
0.00353719
0.00353625
0.00356475
0.00354678
0.00356809
0.00356784
0.00350413
0.00351817
0.00352187
0.00349629
0.00349505
0.0034998
0.003504
0.00351819
0.00352188
0.00349623
0.00352024
0.00352024
0.00352025
0.0034929
0.00349291
0.00349289
0.00349288
0.00350352
0.00351612
0.00352083
0.00351108
0.0035231
0.00350069
0.00351131
0.00349512
0.00349975
0.00350352
0.00352083
0.0035162
0.00351111
0.00352308
0.00351133
0.00350062
0.00352198
0.00352202
0.00350812
0.00350056
0.00350065
0.00347706
0.00349078
0.00349043
0.00347499
0.00348808
0.0034741
0.00347693
0.00349076
0.00349051
0.00347506
0.00348404
0.00348404
0.00348405
0.00345701
0.00345701
0.00345701
0.00345704
0.00347454
0.00348938
0.00348294
0.00347395
0.00348783
0.00347528
0.00347392
0.00348799
0.00347408
0.00347451
0.00348293
0.00348929
0.003474
0.00348781
0.00347392
0.00347534
0.00349087
0.00349072
0.00347266
0.00347577
0.00347582
0.003435
0.00344964
0.00345049
0.00343367
0.00344842
0.00343276
0.00343503
0.00344972
0.00345054
0.00343374
0.00344712
0.00344712
0.00344714
0.00341415
0.00341415
0.00341413
0.00341414
0.00343353
0.00344933
0.00344558
0.00343513
0.00344845
0.00343418
0.00343509
0.00344841
0.00343278
0.00343353
0.00344553
0.00344929
0.00343515
0.00344842
0.00343511
0.00343419
0.00344994
0.00344991
0.0034324
0.00343396
0.00343385
0.00338818
0.00340489
0.00340638
0.00338684
0.0034042
0.00338635
0.00338829
0.00340489
0.00340632
0.00338688
0.00340237
0.00340236
0.00340236
0.00336626
0.00336626
0.00336625
0.00336625
0.00338712
0.00340486
0.00340106
0.00338913
0.00340433
0.00338747
0.00338907
0.00340414
0.00338635
0.00338711
0.00340104
0.00340482
0.00338917
0.00340432
0.00338909
0.00338746
0.00340497
0.00340493
0.00338607
0.00338699
0.00338697
0.00333935
0.00335647
0.00335774
0.00333823
0.00335601
0.00333791
0.00333933
0.00335644
0.0033578
0.00333822
0.00335416
0.00335416
0.00335415
0.003318
0.00331801
0.003318
0.003318
0.0033387
0.00335645
0.0033529
0.00334085
0.00335617
0.00333885
0.0033408
0.00335601
0.00333794
0.0033387
0.00335289
0.00335646
0.00334085
0.00335617
0.00334082
0.00333887
0.00335646
0.00335646
0.00333777
0.0033383
0.0033383
0.00329074
0.00330794
0.00330888
0.00328995
0.0033077
0.00328968
0.00329069
0.00330796
0.00330893
0.00328994
0.00330597
0.00330597
0.00330597
0.00326995
0.00326995
0.00326994
0.00326995
0.00329049