/*--------------------------------*- C++ -*----------------------------------*\
| =========                 |                                                 |
| \\      /  F ield         | OpenFOAM: The Open Source CFD Toolbox           |
|  \\    /   O peration     | Version:  v2012                                 |
|   \\  /    A nd           | Website:  www.openfoam.com                      |
|    \\/     M anipulation  |                                                 |
\*---------------------------------------------------------------------------*/
FoamFile
{
    version     2.0;
    format      ascii;
    class       volScalarField;
    location    "0.35";
    object      p;
}
// * * * * * * * * * * * * * * * * * * * * * * * * * * * * * * * * * * * * * //

dimensions      [0 2 -2 0 0 0 0];


internalField   nonuniform List<scalar> 
247104
(
1.84971e-06
1.84961e-06
1.84975e-06
1.84973e-06
1.84964e-06
1.84974e-06
1.84974e-06
1.84954e-06
1.84961e-06
1.84967e-06
1.84973e-06
1.84957e-06
1.84948e-06
1.84959e-06
1.84974e-06
1.84964e-06
1.84976e-06
1.84973e-06
1.84942e-06
1.84906e-06
1.84891e-06
1.84909e-06
1.84947e-06
1.84975e-06
1.84976e-06
1.84973e-06
1.84957e-06
1.84906e-06
1.84857e-06
1.8484e-06
1.84862e-06
1.84913e-06
1.84962e-06
1.84973e-06
1.8497e-06
1.84964e-06
1.84948e-06
1.84891e-06
1.8484e-06
1.84822e-06
1.84845e-06
1.84899e-06
1.84953e-06
1.84962e-06
1.84975e-06
1.8496e-06
1.84909e-06
1.84862e-06
1.84845e-06
1.84867e-06
1.84916e-06
1.84964e-06
1.84975e-06
1.84974e-06
1.84974e-06
1.84947e-06
1.84913e-06
1.84899e-06
1.84916e-06
1.84951e-06
1.84975e-06
1.84974e-06
1.84954e-06
1.84964e-06
1.84975e-06
1.84962e-06
1.84953e-06
1.84964e-06
1.84975e-06
1.8496e-06
1.84976e-06
1.84973e-06
1.84962e-06
1.84975e-06
1.84974e-06
1.81662e-06
1.81461e-06
1.81406e-06
1.81284e-06
1.81286e-06
1.81279e-06
1.81279e-06
1.8141e-06
1.81436e-06
1.81406e-06
1.812e-06
1.80934e-06
1.80932e-06
1.80931e-06
1.80934e-06
1.81238e-06
1.81264e-06
1.81284e-06
1.80934e-06
1.80928e-06
1.80935e-06
1.80935e-06
1.80928e-06
1.80934e-06
1.81276e-06
1.81401e-06
1.81662e-06
1.81285e-06
1.80931e-06
1.80935e-06
1.80944e-06
1.80944e-06
1.80935e-06
1.80932e-06
1.81275e-06
1.81438e-06
1.81462e-06
1.81279e-06
1.80932e-06
1.80935e-06
1.80944e-06
1.80944e-06
1.80935e-06
1.80932e-06
1.81292e-06
1.81296e-06
1.81279e-06
1.80934e-06
1.80928e-06
1.80935e-06
1.80935e-06
1.80928e-06
1.80934e-06
1.8127e-06
1.81391e-06
1.8141e-06
1.81239e-06
1.80934e-06
1.80932e-06
1.80932e-06
1.80934e-06
1.81261e-06
1.81279e-06
1.81424e-06
1.81436e-06
1.81264e-06
1.81276e-06
1.81275e-06
1.81293e-06
1.81269e-06
1.81279e-06
1.81444e-06
1.81402e-06
1.81439e-06
1.81297e-06
1.81391e-06
1.81424e-06
1.79651e-06
1.79633e-06
1.79616e-06
1.79404e-06
1.79395e-06
1.7939e-06
1.79402e-06
1.79612e-06
1.79638e-06
1.79615e-06
1.79333e-06
1.79038e-06
1.79032e-06
1.79032e-06
1.79039e-06
1.79384e-06
1.79448e-06
1.79404e-06
1.79038e-06
1.79012e-06
1.79015e-06
1.79015e-06
1.79012e-06
1.79039e-06
1.79464e-06
1.7966e-06
1.7965e-06
1.79394e-06
1.79032e-06
1.79015e-06
1.79018e-06
1.79018e-06
1.79015e-06
1.79032e-06
1.79469e-06
1.79635e-06
1.79632e-06
1.7939e-06
1.79032e-06
1.79015e-06
1.79018e-06
1.79018e-06
1.79015e-06
1.79032e-06
1.79464e-06
1.79461e-06
1.79401e-06
1.79038e-06
1.79012e-06
1.79015e-06
1.79015e-06
1.79012e-06
1.79039e-06
1.79469e-06
1.79669e-06
1.79611e-06
1.79383e-06
1.79039e-06
1.79032e-06
1.79031e-06
1.79037e-06
1.79431e-06
1.7946e-06
1.7966e-06
1.79637e-06
1.79448e-06
1.79464e-06
1.79469e-06
1.79464e-06
1.79468e-06
1.7946e-06
1.79649e-06
1.7966e-06
1.79635e-06
1.79462e-06
1.79669e-06
1.7966e-06
1.77752e-06
1.77735e-06
1.7772e-06
1.77504e-06
1.77494e-06
1.77485e-06
1.77504e-06
1.77715e-06
1.77742e-06
1.7772e-06
1.77429e-06
1.77134e-06
1.77131e-06
1.77131e-06
1.77134e-06
1.77478e-06
1.77555e-06
1.77503e-06
1.77134e-06
1.77122e-06
1.77123e-06
1.77123e-06
1.77122e-06
1.77134e-06
1.77566e-06
1.77761e-06
1.77751e-06
1.77493e-06
1.77131e-06
1.77123e-06
1.77124e-06
1.77124e-06
1.77123e-06
1.77131e-06
1.77572e-06
1.77735e-06
1.77733e-06
1.77484e-06
1.77131e-06
1.77123e-06
1.77124e-06
1.77124e-06
1.77123e-06
1.77131e-06
1.77569e-06
1.77566e-06
1.77503e-06
1.77134e-06
1.77122e-06
1.77123e-06
1.77123e-06
1.77122e-06
1.77134e-06
1.7757e-06
1.77768e-06
1.77714e-06
1.77478e-06
1.77134e-06
1.77131e-06
1.77131e-06
1.77134e-06
1.77545e-06
1.77566e-06
1.77764e-06
1.77741e-06
1.77555e-06
1.77566e-06
1.77572e-06
1.77569e-06
1.7757e-06
1.77566e-06
1.77765e-06
1.77762e-06
1.77736e-06
1.77567e-06
1.77769e-06
1.77765e-06
1.75851e-06
1.75834e-06
1.75817e-06
1.756e-06
1.75589e-06
1.7558e-06
1.756e-06
1.75813e-06
1.75839e-06
1.75817e-06
1.75527e-06
1.7523e-06
1.75228e-06
1.75228e-06
1.75229e-06
1.75571e-06
1.75653e-06
1.756e-06
1.75229e-06
1.75226e-06
1.75226e-06
1.75226e-06
1.75226e-06
1.75229e-06
1.75665e-06
1.7586e-06
1.75851e-06
1.75589e-06
1.75228e-06
1.75226e-06
1.75226e-06
1.75226e-06
1.75226e-06
1.75228e-06
1.75673e-06
1.75838e-06
1.75834e-06
1.7558e-06
1.75228e-06
1.75226e-06
1.75226e-06
1.75226e-06
1.75226e-06
1.75228e-06
1.75671e-06
1.75668e-06
1.75599e-06
1.75229e-06
1.75226e-06
1.75226e-06
1.75226e-06
1.75226e-06
1.75229e-06
1.7567e-06
1.7587e-06
1.75813e-06
1.75571e-06
1.7523e-06
1.75228e-06
1.75228e-06
1.75229e-06
1.75647e-06
1.75667e-06
1.75863e-06
1.75839e-06
1.75653e-06
1.75665e-06
1.75673e-06
1.75671e-06
1.7567e-06
1.75667e-06
1.75862e-06
1.7586e-06
1.75838e-06
1.75668e-06
1.7587e-06
1.75862e-06
1.73949e-06
1.73932e-06
1.73914e-06
1.73697e-06
1.73686e-06
1.73677e-06
1.73696e-06
1.7391e-06
1.73936e-06
1.73914e-06
1.73624e-06
1.73326e-06
1.73326e-06
1.73326e-06
1.73326e-06
1.73666e-06
1.73749e-06
1.73697e-06
1.73326e-06
1.73325e-06
1.73325e-06
1.73325e-06
1.73325e-06
1.73326e-06
1.73761e-06
1.73957e-06
1.73949e-06
1.73686e-06
1.73326e-06
1.73325e-06
1.73325e-06
1.73325e-06
1.73325e-06
1.73326e-06
1.73771e-06
1.73936e-06
1.73931e-06
1.73677e-06
1.73326e-06
1.73325e-06
1.73325e-06
1.73325e-06
1.73325e-06
1.73326e-06
1.73769e-06
1.73766e-06
1.73696e-06
1.73326e-06
1.73325e-06
1.73325e-06
1.73325e-06
1.73325e-06
1.73326e-06
1.73768e-06
1.73968e-06
1.7391e-06
1.73666e-06
1.73326e-06
1.73326e-06
1.73326e-06
1.73326e-06
1.73746e-06
1.73765e-06
1.73959e-06
1.73936e-06
1.73749e-06
1.73761e-06
1.73771e-06
1.73769e-06
1.73768e-06
1.73765e-06
1.73958e-06
1.73957e-06
1.73936e-06
1.73766e-06
1.73968e-06
1.73959e-06
1.72046e-06
1.72029e-06
1.72011e-06
1.71794e-06
1.71783e-06
1.71774e-06
1.71793e-06
1.72007e-06
1.72033e-06
1.72011e-06
1.71722e-06
1.71423e-06
1.71423e-06
1.71423e-06
1.71423e-06
1.71763e-06
1.71846e-06
1.71794e-06
1.71423e-06
1.71423e-06
1.71423e-06
1.71423e-06
1.71423e-06
1.71423e-06
1.71858e-06
1.72054e-06
1.72046e-06
1.71783e-06
1.71423e-06
1.71423e-06
1.71423e-06
1.71423e-06
1.71423e-06
1.71423e-06
1.71868e-06
1.72033e-06
1.72029e-06
1.71774e-06
1.71423e-06
1.71423e-06
1.71423e-06
1.71423e-06
1.71423e-06
1.71423e-06
1.71867e-06
1.71863e-06
1.71793e-06
1.71423e-06
1.71423e-06
1.71423e-06
1.71423e-06
1.71423e-06
1.71423e-06
1.71865e-06
1.72066e-06
1.72007e-06
1.71763e-06
1.71423e-06
1.71423e-06
1.71423e-06
1.71423e-06
1.71844e-06
1.71862e-06
1.72057e-06
1.72033e-06
1.71847e-06
1.71858e-06
1.71868e-06
1.71867e-06
1.71865e-06
1.71862e-06
1.72055e-06
1.72055e-06
1.72034e-06
1.71863e-06
1.72065e-06
1.72057e-06
1.70143e-06
1.70126e-06
1.70109e-06
1.69891e-06
1.6988e-06
1.69871e-06
1.6989e-06
1.70104e-06
1.7013e-06
1.70108e-06
1.69819e-06
1.6952e-06
1.6952e-06
1.6952e-06
1.6952e-06
1.6986e-06
1.69944e-06
1.69891e-06
1.6952e-06
1.6952e-06
1.6952e-06
1.6952e-06
1.6952e-06
1.6952e-06
1.69955e-06
1.70152e-06
1.70143e-06
1.6988e-06
1.6952e-06
1.6952e-06
1.6952e-06
1.6952e-06
1.6952e-06
1.6952e-06
1.69966e-06
1.70131e-06
1.70126e-06
1.69871e-06
1.6952e-06
1.6952e-06
1.6952e-06
1.6952e-06
1.6952e-06
1.6952e-06
1.69964e-06
1.69961e-06
1.6989e-06
1.6952e-06
1.6952e-06
1.6952e-06
1.6952e-06
1.6952e-06
1.6952e-06
1.69963e-06
1.70163e-06
1.70104e-06
1.6986e-06
1.6952e-06
1.6952e-06
1.6952e-06
1.6952e-06
1.69941e-06
1.6996e-06
1.70154e-06
1.7013e-06
1.69944e-06
1.69956e-06
1.69966e-06
1.69964e-06
1.69962e-06
1.6996e-06
1.70152e-06
1.70152e-06
1.70131e-06
1.69961e-06
1.70163e-06
1.70154e-06
1.68241e-06
1.68224e-06
1.68206e-06
1.67989e-06
1.67978e-06
1.67969e-06
1.67988e-06
1.68201e-06
1.68227e-06
1.68206e-06
1.67916e-06
1.67618e-06
1.67618e-06
1.67618e-06
1.67618e-06
1.67957e-06
1.68041e-06
1.67989e-06
1.67618e-06
1.67618e-06
1.67618e-06
1.67618e-06
1.67618e-06
1.67618e-06
1.68053e-06
1.68249e-06
1.68241e-06
1.67978e-06
1.67618e-06
1.67618e-06
1.67618e-06
1.67618e-06
1.67618e-06
1.67618e-06
1.68063e-06
1.68228e-06
1.68224e-06
1.67969e-06
1.67618e-06
1.67618e-06
1.67618e-06
1.67618e-06
1.67618e-06
1.67618e-06
1.68062e-06
1.68058e-06
1.67988e-06
1.67618e-06
1.67618e-06
1.67618e-06
1.67618e-06
1.67618e-06
1.67618e-06
1.6806e-06
1.6826e-06
1.68201e-06
1.67958e-06
1.67618e-06
1.67618e-06
1.67618e-06
1.67618e-06
1.68039e-06
1.68057e-06
1.68251e-06
1.68227e-06
1.68041e-06
1.68053e-06
1.68063e-06
1.68062e-06
1.6806e-06
1.68057e-06
1.6825e-06
1.68249e-06
1.68228e-06
1.68058e-06
1.6826e-06
1.68251e-06
1.66338e-06
1.66321e-06
1.66303e-06
1.66086e-06
1.66075e-06
1.66066e-06
1.66085e-06
1.66299e-06
1.66325e-06
1.66303e-06
1.66014e-06
1.65715e-06
1.65715e-06
1.65715e-06
1.65715e-06
1.66055e-06
1.66138e-06
1.66086e-06
1.65715e-06
1.65715e-06
1.65715e-06
1.65715e-06
1.65715e-06
1.65715e-06
1.6615e-06
1.66346e-06
1.66338e-06
1.66075e-06
1.65715e-06
1.65715e-06
1.65715e-06
1.65715e-06
1.65715e-06
1.65715e-06
1.66161e-06
1.66326e-06
1.66321e-06
1.66066e-06
1.65715e-06
1.65715e-06
1.65715e-06
1.65715e-06
1.65715e-06
1.65715e-06
1.66159e-06
1.66155e-06
1.66085e-06
1.65715e-06
1.65715e-06
1.65715e-06
1.65715e-06
1.65715e-06
1.65715e-06
1.66157e-06
1.66358e-06
1.66299e-06
1.66055e-06
1.65715e-06
1.65715e-06
1.65715e-06
1.65715e-06
1.66136e-06
1.66154e-06
1.66349e-06
1.66325e-06
1.66139e-06
1.6615e-06
1.66161e-06
1.66159e-06
1.66157e-06
1.66155e-06
1.66347e-06
1.66347e-06
1.66326e-06
1.66156e-06
1.66358e-06
1.66349e-06
1.64435e-06
1.64418e-06
1.64401e-06
1.64184e-06
1.64173e-06
1.64163e-06
1.64183e-06
1.64396e-06
1.64422e-06
1.64401e-06
1.64111e-06
1.63813e-06
1.63813e-06
1.63813e-06
1.63813e-06
1.64152e-06
1.64236e-06
1.64184e-06
1.63813e-06
1.63813e-06
1.63813e-06
1.63813e-06
1.63813e-06
1.63813e-06
1.64248e-06
1.64444e-06
1.64435e-06
1.64173e-06
1.63813e-06
1.63813e-06
1.63813e-06
1.63813e-06
1.63813e-06
1.63813e-06
1.64258e-06
1.64423e-06
1.64418e-06
1.64163e-06
1.63813e-06
1.63813e-06
1.63813e-06
1.63813e-06
1.63813e-06
1.63813e-06
1.64256e-06
1.64253e-06
1.64183e-06
1.63813e-06
1.63813e-06
1.63813e-06
1.63813e-06
1.63813e-06
1.63813e-06
1.64255e-06
1.64455e-06
1.64396e-06
1.64152e-06
1.63813e-06
1.63813e-06
1.63813e-06
1.63813e-06
1.64233e-06
1.64252e-06
1.64446e-06
1.64422e-06
1.64236e-06
1.64248e-06
1.64258e-06
1.64256e-06
1.64255e-06
1.64252e-06
1.64444e-06
1.64444e-06
1.64423e-06
1.64253e-06
1.64455e-06
1.64446e-06
1.62533e-06
1.62516e-06
1.62498e-06
1.62281e-06
1.6227e-06
1.62261e-06
1.6228e-06
1.62494e-06
1.6252e-06
1.62498e-06
1.62209e-06
1.6191e-06
1.6191e-06
1.6191e-06
1.6191e-06
1.6225e-06
1.62333e-06
1.62281e-06
1.6191e-06
1.6191e-06
1.6191e-06
1.6191e-06
1.6191e-06
1.6191e-06
1.62345e-06
1.62541e-06
1.62533e-06
1.6227e-06
1.6191e-06
1.6191e-06
1.6191e-06
1.6191e-06
1.6191e-06
1.6191e-06
1.62355e-06
1.62521e-06
1.62516e-06
1.62261e-06
1.6191e-06
1.6191e-06
1.6191e-06
1.6191e-06
1.6191e-06
1.6191e-06
1.62354e-06
1.6235e-06
1.6228e-06
1.6191e-06
1.6191e-06
1.6191e-06
1.6191e-06
1.6191e-06
1.6191e-06
1.62352e-06
1.62553e-06
1.62494e-06
1.6225e-06
1.6191e-06
1.6191e-06
1.6191e-06
1.6191e-06
1.62331e-06
1.62349e-06
1.62543e-06
1.6252e-06
1.62333e-06
1.62345e-06
1.62355e-06
1.62354e-06
1.62352e-06
1.6235e-06
1.62542e-06
1.62541e-06
1.62521e-06
1.6235e-06
1.62552e-06
1.62543e-06
1.6063e-06
1.60613e-06
1.60595e-06
1.60379e-06
1.60368e-06
1.60358e-06
1.60378e-06
1.60591e-06
1.60617e-06
1.60596e-06
1.60306e-06
1.60008e-06
1.60008e-06
1.60008e-06
1.60008e-06
1.60347e-06
1.60431e-06
1.60379e-06
1.60008e-06
1.60008e-06
1.60008e-06
1.60008e-06
1.60008e-06
1.60008e-06
1.60443e-06
1.60639e-06
1.6063e-06
1.60368e-06
1.60008e-06
1.60008e-06
1.60008e-06
1.60008e-06
1.60008e-06
1.60008e-06
1.60453e-06
1.60618e-06
1.60613e-06
1.60358e-06
1.60008e-06
1.60008e-06
1.60008e-06
1.60008e-06
1.60008e-06
1.60008e-06
1.60451e-06
1.60448e-06
1.60378e-06
1.60008e-06
1.60008e-06
1.60008e-06
1.60008e-06
1.60008e-06
1.60008e-06
1.6045e-06
1.6065e-06
1.60591e-06
1.60347e-06
1.60008e-06
1.60008e-06
1.60008e-06
1.60008e-06
1.60428e-06
1.60447e-06
1.60641e-06
1.60617e-06
1.60431e-06
1.60443e-06
1.60453e-06
1.60451e-06
1.6045e-06
1.60447e-06
1.60639e-06
1.60639e-06
1.60618e-06
1.60448e-06
1.6065e-06
1.60641e-06
1.58728e-06
1.58711e-06
1.58693e-06
1.58476e-06
1.58465e-06
1.58456e-06
1.58475e-06
1.58689e-06
1.58715e-06
1.58693e-06
1.58404e-06
1.58105e-06
1.58105e-06
1.58105e-06
1.58105e-06
1.58445e-06
1.58528e-06
1.58476e-06
1.58105e-06
1.58105e-06
1.58105e-06
1.58105e-06
1.58105e-06
1.58105e-06
1.5854e-06
1.58736e-06
1.58728e-06
1.58465e-06
1.58105e-06
1.58105e-06
1.58105e-06
1.58105e-06
1.58105e-06
1.58105e-06
1.58551e-06
1.58716e-06
1.58711e-06
1.58456e-06
1.58105e-06
1.58105e-06
1.58105e-06
1.58105e-06
1.58105e-06
1.58105e-06
1.58549e-06
1.58545e-06
1.58475e-06
1.58105e-06
1.58105e-06
1.58105e-06
1.58105e-06
1.58105e-06
1.58105e-06
1.58547e-06
1.58748e-06
1.58689e-06
1.58445e-06
1.58105e-06
1.58105e-06
1.58105e-06
1.58105e-06
1.58526e-06
1.58544e-06
1.58738e-06
1.58715e-06
1.58528e-06
1.5854e-06
1.5855e-06
1.58549e-06
1.58547e-06
1.58545e-06
1.58737e-06
1.58737e-06
1.58716e-06
1.58545e-06
1.58747e-06
1.58739e-06
1.56826e-06
1.56808e-06
1.5679e-06
1.56574e-06
1.56563e-06
1.56554e-06
1.56573e-06
1.56786e-06
1.56812e-06
1.56791e-06
1.56501e-06
1.56203e-06
1.56203e-06
1.56203e-06
1.56203e-06
1.56542e-06
1.56626e-06
1.56574e-06
1.56203e-06
1.56203e-06
1.56203e-06
1.56203e-06
1.56203e-06
1.56203e-06
1.56638e-06
1.56834e-06
1.56825e-06
1.56563e-06
1.56203e-06
1.56203e-06
1.56203e-06
1.56203e-06
1.56203e-06
1.56203e-06
1.56648e-06
1.56813e-06
1.56808e-06
1.56553e-06
1.56203e-06
1.56203e-06
1.56203e-06
1.56203e-06
1.56203e-06
1.56203e-06
1.56646e-06
1.56643e-06
1.56573e-06
1.56203e-06
1.56203e-06
1.56203e-06
1.56203e-06
1.56203e-06
1.56203e-06
1.56645e-06
1.56845e-06
1.56786e-06
1.56542e-06
1.56203e-06
1.56203e-06
1.56203e-06
1.56203e-06
1.56623e-06
1.56642e-06
1.56836e-06
1.56812e-06
1.56626e-06
1.56638e-06
1.56648e-06
1.56646e-06
1.56645e-06
1.56642e-06
1.56835e-06
1.56834e-06
1.56813e-06
1.56643e-06
1.56845e-06
1.56836e-06
1.54923e-06
1.54906e-06
1.54888e-06
1.54671e-06
1.5466e-06
1.54651e-06
1.5467e-06
1.54884e-06
1.5491e-06
1.54888e-06
1.54599e-06
1.543e-06
1.543e-06
1.543e-06
1.543e-06
1.5464e-06
1.54723e-06
1.54671e-06
1.543e-06
1.543e-06
1.543e-06
1.543e-06
1.543e-06
1.543e-06
1.54735e-06
1.54931e-06
1.54923e-06
1.5466e-06
1.543e-06
1.543e-06
1.543e-06
1.543e-06
1.543e-06
1.543e-06
1.54745e-06
1.54911e-06
1.54906e-06
1.54651e-06
1.543e-06
1.543e-06
1.543e-06
1.543e-06
1.543e-06
1.543e-06
1.54744e-06
1.5474e-06
1.5467e-06
1.543e-06
1.543e-06
1.543e-06
1.543e-06
1.543e-06
1.543e-06
1.54742e-06
1.54943e-06
1.54884e-06
1.5464e-06
1.543e-06
1.543e-06
1.543e-06
1.543e-06
1.54721e-06
1.54739e-06
1.54933e-06
1.5491e-06
1.54723e-06
1.54735e-06
1.54745e-06
1.54744e-06
1.54742e-06
1.54739e-06
1.54932e-06
1.54932e-06
1.54911e-06
1.5474e-06
1.54943e-06
1.54933e-06
1.5302e-06
1.53003e-06
1.52985e-06
1.52768e-06
1.52758e-06
1.52748e-06
1.52767e-06
1.52981e-06
1.53007e-06
1.52985e-06
1.52696e-06
1.52397e-06
1.52397e-06
1.52397e-06
1.52397e-06
1.52737e-06
1.52821e-06
1.52768e-06
1.52397e-06
1.52397e-06
1.52397e-06
1.52397e-06
1.52397e-06
1.52397e-06
1.52833e-06
1.53029e-06
1.5302e-06
1.52757e-06
1.52397e-06
1.52397e-06
1.52397e-06
1.52397e-06
1.52397e-06
1.52397e-06
1.52843e-06
1.53008e-06
1.53003e-06
1.52748e-06
1.52397e-06
1.52397e-06
1.52397e-06
1.52397e-06
1.52397e-06
1.52397e-06
1.52841e-06
1.52838e-06
1.52767e-06
1.52397e-06
1.52397e-06
1.52397e-06
1.52397e-06
1.52397e-06
1.52397e-06
1.5284e-06
1.5304e-06
1.52981e-06
1.52737e-06
1.52397e-06
1.52397e-06
1.52397e-06
1.52397e-06
1.52818e-06
1.52837e-06
1.53031e-06
1.53007e-06
1.52821e-06
1.52833e-06
1.52843e-06
1.52841e-06
1.5284e-06
1.52837e-06
1.53029e-06
1.53029e-06
1.53008e-06
1.52838e-06
1.5304e-06
1.53031e-06
1.51118e-06
1.51101e-06
1.51083e-06
1.50866e-06
1.50855e-06
1.50846e-06
1.50865e-06
1.51078e-06
1.51104e-06
1.51083e-06
1.50793e-06
1.50495e-06
1.50495e-06
1.50495e-06
1.50495e-06
1.50835e-06
1.50918e-06
1.50866e-06
1.50495e-06
1.50495e-06
1.50495e-06
1.50495e-06
1.50495e-06
1.50495e-06
1.5093e-06
1.51126e-06
1.51118e-06
1.50855e-06
1.50495e-06
1.50495e-06
1.50495e-06
1.50495e-06
1.50495e-06
1.50495e-06
1.5094e-06
1.51105e-06
1.51101e-06
1.50846e-06
1.50495e-06
1.50495e-06
1.50495e-06
1.50495e-06
1.50495e-06
1.50495e-06
1.50939e-06
1.50935e-06
1.50865e-06
1.50495e-06
1.50495e-06
1.50495e-06
1.50495e-06
1.50495e-06
1.50495e-06
1.50937e-06
1.51137e-06
1.51078e-06
1.50835e-06
1.50495e-06
1.50495e-06
1.50495e-06
1.50495e-06
1.50916e-06
1.50934e-06
1.51128e-06
1.51105e-06
1.50918e-06
1.5093e-06
1.5094e-06
1.50939e-06
1.50937e-06
1.50934e-06
1.51127e-06
1.51126e-06
1.51105e-06
1.50935e-06
1.51137e-06
1.51128e-06
1.49215e-06
1.49198e-06
1.4918e-06
1.48963e-06
1.48952e-06
1.48943e-06
1.48962e-06
1.49176e-06
1.49202e-06
1.4918e-06
1.48891e-06
1.48592e-06
1.48592e-06
1.48592e-06
1.48592e-06
1.48932e-06
1.49015e-06
1.48963e-06
1.48592e-06
1.48592e-06
1.48592e-06
1.48592e-06
1.48592e-06
1.48592e-06
1.49027e-06
1.49223e-06
1.49215e-06
1.48952e-06
1.48592e-06
1.48592e-06
1.48592e-06
1.48592e-06
1.48592e-06
1.48592e-06
1.49038e-06
1.49203e-06
1.49198e-06
1.48943e-06
1.48592e-06
1.48592e-06
1.48592e-06
1.48592e-06
1.48592e-06
1.48592e-06
1.49036e-06
1.49033e-06
1.48962e-06
1.48592e-06
1.48592e-06
1.48592e-06
1.48592e-06
1.48592e-06
1.48592e-06
1.49034e-06
1.49235e-06
1.49176e-06
1.48932e-06
1.48592e-06
1.48592e-06
1.48592e-06
1.48592e-06
1.49013e-06
1.49031e-06
1.49226e-06
1.49202e-06
1.49016e-06
1.49027e-06
1.49038e-06
1.49036e-06
1.49034e-06
1.49032e-06
1.49224e-06
1.49224e-06
1.49203e-06
1.49033e-06
1.49235e-06
1.49226e-06
1.47312e-06
1.47295e-06
1.47277e-06
1.4706e-06
1.4705e-06
1.4704e-06
1.4706e-06
1.47273e-06
1.47299e-06
1.47277e-06
1.46988e-06
1.46689e-06
1.46689e-06
1.46689e-06
1.46689e-06
1.47029e-06
1.47113e-06
1.4706e-06
1.46689e-06
1.46689e-06
1.46689e-06
1.46689e-06
1.46689e-06
1.46689e-06
1.47125e-06
1.47321e-06
1.47312e-06
1.4705e-06
1.46689e-06
1.46689e-06
1.46689e-06
1.46689e-06
1.46689e-06
1.46689e-06
1.47135e-06
1.473e-06
1.47295e-06
1.4704e-06
1.46689e-06
1.46689e-06
1.46689e-06
1.46689e-06
1.46689e-06
1.46689e-06
1.47133e-06
1.4713e-06
1.47059e-06
1.46689e-06
1.46689e-06
1.46689e-06
1.46689e-06
1.46689e-06
1.46689e-06
1.47132e-06
1.47332e-06
1.47273e-06
1.47029e-06
1.46689e-06
1.46689e-06
1.46689e-06
1.46689e-06
1.4711e-06
1.47129e-06
1.47323e-06
1.47299e-06
1.47113e-06
1.47125e-06
1.47135e-06
1.47133e-06
1.47132e-06
1.47129e-06
1.47321e-06
1.47321e-06
1.473e-06
1.4713e-06
1.47332e-06
1.47323e-06
1.4541e-06
1.45393e-06
1.45375e-06
1.45158e-06
1.45147e-06
1.45138e-06
1.45157e-06
1.4537e-06
1.45397e-06
1.45375e-06
1.45085e-06
1.44787e-06
1.44787e-06
1.44787e-06
1.44787e-06
1.45127e-06
1.4521e-06
1.45158e-06
1.44787e-06
1.44787e-06
1.44787e-06
1.44787e-06
1.44787e-06
1.44787e-06
1.45222e-06
1.45418e-06
1.4541e-06
1.45147e-06
1.44787e-06
1.44787e-06
1.44787e-06
1.44787e-06
1.44787e-06
1.44787e-06
1.45232e-06
1.45397e-06
1.45393e-06
1.45138e-06
1.44787e-06
1.44787e-06
1.44787e-06
1.44787e-06
1.44787e-06
1.44787e-06
1.45231e-06
1.45227e-06
1.45157e-06
1.44787e-06
1.44787e-06
1.44787e-06
1.44787e-06
1.44787e-06
1.44787e-06
1.45229e-06
1.45429e-06
1.4537e-06
1.45127e-06
1.44787e-06
1.44787e-06
1.44787e-06
1.44787e-06
1.45208e-06
1.45226e-06
1.4542e-06
1.45397e-06
1.4521e-06
1.45222e-06
1.45232e-06
1.45231e-06
1.45229e-06
1.45226e-06
1.45419e-06
1.45418e-06
1.45397e-06
1.45227e-06
1.45429e-06
1.4542e-06
1.43507e-06
1.4349e-06
1.43472e-06
1.43255e-06
1.43244e-06
1.43235e-06
1.43254e-06
1.43468e-06
1.43494e-06
1.43472e-06
1.43183e-06
1.42884e-06
1.42884e-06
1.42884e-06
1.42884e-06
1.43224e-06
1.43308e-06
1.43255e-06
1.42884e-06
1.42884e-06
1.42884e-06
1.42884e-06
1.42884e-06
1.42884e-06
1.43319e-06
1.43516e-06
1.43507e-06
1.43244e-06
1.42884e-06
1.42884e-06
1.42884e-06
1.42884e-06
1.42884e-06
1.42884e-06
1.4333e-06
1.43495e-06
1.4349e-06
1.43235e-06
1.42884e-06
1.42884e-06
1.42884e-06
1.42884e-06
1.42884e-06
1.42884e-06
1.43328e-06
1.43325e-06
1.43254e-06
1.42884e-06
1.42884e-06
1.42884e-06
1.42884e-06
1.42884e-06
1.42884e-06
1.43327e-06
1.43527e-06
1.43468e-06
1.43224e-06
1.42884e-06
1.42884e-06
1.42884e-06
1.42884e-06
1.43305e-06
1.43324e-06
1.43518e-06
1.43494e-06
1.43308e-06
1.43319e-06
1.4333e-06
1.43328e-06
1.43327e-06
1.43324e-06
1.43516e-06
1.43516e-06
1.43495e-06
1.43325e-06
1.43527e-06
1.43518e-06
1.41605e-06
1.41588e-06
1.4157e-06
1.41353e-06
1.41342e-06
1.41333e-06
1.41352e-06
1.41566e-06
1.41592e-06
1.4157e-06
1.4128e-06
1.40982e-06
1.40982e-06
1.40982e-06
1.40982e-06
1.41322e-06
1.41405e-06
1.41353e-06
1.40982e-06
1.40982e-06
1.40982e-06
1.40982e-06
1.40982e-06
1.40982e-06
1.41417e-06
1.41613e-06
1.41605e-06
1.41342e-06
1.40982e-06
1.40982e-06
1.40982e-06
1.40982e-06
1.40982e-06
1.40982e-06
1.41427e-06
1.41592e-06
1.41588e-06
1.41333e-06
1.40982e-06
1.40982e-06
1.40982e-06
1.40982e-06
1.40982e-06
1.40982e-06
1.41426e-06
1.41422e-06
1.41352e-06
1.40982e-06
1.40982e-06
1.40982e-06
1.40982e-06
1.40982e-06
1.40982e-06
1.41424e-06
1.41624e-06
1.41565e-06
1.41322e-06
1.40982e-06
1.40982e-06
1.40982e-06
1.40982e-06
1.41403e-06
1.41421e-06
1.41615e-06
1.41592e-06
1.41405e-06
1.41417e-06
1.41427e-06
1.41426e-06
1.41424e-06
1.41421e-06
1.41614e-06
1.41613e-06
1.41592e-06
1.41422e-06
1.41624e-06
1.41615e-06
1.39702e-06
1.39685e-06
1.39667e-06
1.3945e-06
1.39439e-06
1.3943e-06
1.39449e-06
1.39663e-06
1.39689e-06
1.39667e-06
1.39378e-06
1.39079e-06
1.39079e-06
1.39079e-06
1.39079e-06
1.39419e-06
1.39503e-06
1.3945e-06
1.39079e-06
1.39079e-06
1.39079e-06
1.39079e-06
1.39079e-06
1.39079e-06
1.39514e-06
1.3971e-06
1.39702e-06
1.39439e-06
1.39079e-06
1.39079e-06
1.39079e-06
1.39079e-06
1.39079e-06
1.39079e-06
1.39525e-06
1.3969e-06
1.39685e-06
1.3943e-06
1.39079e-06
1.39079e-06
1.39079e-06
1.39079e-06
1.39079e-06
1.39079e-06
1.39523e-06
1.3952e-06
1.39449e-06
1.39079e-06
1.39079e-06
1.39079e-06
1.39079e-06
1.39079e-06
1.39079e-06
1.39522e-06
1.39722e-06
1.39663e-06
1.39419e-06
1.39079e-06
1.39079e-06
1.39079e-06
1.39079e-06
1.395e-06
1.39519e-06
1.39713e-06
1.39689e-06
1.39503e-06
1.39514e-06
1.39525e-06
1.39523e-06
1.39521e-06
1.39519e-06
1.39711e-06
1.39711e-06
1.3969e-06
1.3952e-06
1.39722e-06
1.39713e-06
1.378e-06
1.37783e-06
1.37765e-06
1.37548e-06
1.37537e-06
1.37528e-06
1.37547e-06
1.3776e-06
1.37786e-06
1.37765e-06
1.37475e-06
1.37177e-06
1.37177e-06
1.37177e-06
1.37177e-06
1.37517e-06
1.376e-06
1.37548e-06
1.37177e-06
1.37177e-06
1.37177e-06
1.37177e-06
1.37177e-06
1.37177e-06
1.37612e-06
1.37808e-06
1.378e-06
1.37537e-06
1.37177e-06
1.37177e-06
1.37177e-06
1.37177e-06
1.37177e-06
1.37177e-06
1.37622e-06
1.37787e-06
1.37783e-06
1.37528e-06
1.37177e-06
1.37177e-06
1.37177e-06
1.37177e-06
1.37177e-06
1.37177e-06
1.37621e-06
1.37617e-06
1.37547e-06
1.37177e-06
1.37177e-06
1.37177e-06
1.37177e-06
1.37177e-06
1.37177e-06
1.37619e-06
1.37819e-06
1.3776e-06
1.37517e-06
1.37177e-06
1.37177e-06
1.37177e-06
1.37177e-06
1.37598e-06
1.37616e-06
1.3781e-06
1.37786e-06
1.376e-06
1.37612e-06
1.37622e-06
1.3762e-06
1.37619e-06
1.37616e-06
1.37809e-06
1.37808e-06
1.37787e-06
1.37617e-06
1.37819e-06
1.3781e-06
1.35897e-06
1.3588e-06
1.35862e-06
1.35645e-06
1.35634e-06
1.35625e-06
1.35644e-06
1.35858e-06
1.35884e-06
1.35862e-06
1.35573e-06
1.35274e-06
1.35274e-06
1.35274e-06
1.35274e-06
1.35614e-06
1.35698e-06
1.35645e-06
1.35274e-06
1.35274e-06
1.35274e-06
1.35274e-06
1.35274e-06
1.35274e-06
1.35709e-06
1.35905e-06
1.35897e-06
1.35634e-06
1.35274e-06
1.35274e-06
1.35274e-06
1.35274e-06
1.35274e-06
1.35274e-06
1.3572e-06
1.35885e-06
1.3588e-06
1.35625e-06
1.35274e-06
1.35274e-06
1.35274e-06
1.35274e-06
1.35274e-06
1.35274e-06
1.35718e-06
1.35715e-06
1.35644e-06
1.35274e-06
1.35274e-06
1.35274e-06
1.35274e-06
1.35274e-06
1.35274e-06
1.35716e-06
1.35917e-06
1.35858e-06
1.35614e-06
1.35274e-06
1.35274e-06
1.35274e-06
1.35274e-06
1.35695e-06
1.35714e-06
1.35908e-06
1.35884e-06
1.35698e-06
1.35709e-06
1.3572e-06
1.35718e-06
1.35716e-06
1.35714e-06
1.35906e-06
1.35906e-06
1.35885e-06
1.35715e-06
1.35917e-06
1.35908e-06
1.33995e-06
1.33978e-06
1.3396e-06
1.33743e-06
1.33732e-06
1.33723e-06
1.33742e-06
1.33955e-06
1.33981e-06
1.3396e-06
1.3367e-06
1.33372e-06
1.33372e-06
1.33372e-06
1.33372e-06
1.33711e-06
1.33795e-06
1.33743e-06
1.33372e-06
1.33372e-06
1.33372e-06
1.33372e-06
1.33372e-06
1.33372e-06
1.33807e-06
1.34003e-06
1.33995e-06
1.33732e-06
1.33372e-06
1.33372e-06
1.33372e-06
1.33372e-06
1.33372e-06
1.33372e-06
1.33817e-06
1.33982e-06
1.33978e-06
1.33723e-06
1.33372e-06
1.33372e-06
1.33372e-06
1.33372e-06
1.33372e-06
1.33372e-06
1.33816e-06
1.33812e-06
1.33742e-06
1.33372e-06
1.33372e-06
1.33372e-06
1.33372e-06
1.33372e-06
1.33372e-06
1.33814e-06
1.34014e-06
1.33955e-06
1.33711e-06
1.33372e-06
1.33372e-06
1.33372e-06
1.33372e-06
1.33793e-06
1.33811e-06
1.34005e-06
1.33981e-06
1.33795e-06
1.33807e-06
1.33817e-06
1.33815e-06
1.33814e-06
1.33811e-06
1.34004e-06
1.34003e-06
1.33982e-06
1.33812e-06
1.34014e-06
1.34005e-06
1.32092e-06
1.32075e-06
1.32057e-06
1.3184e-06
1.31829e-06
1.3182e-06
1.31839e-06
1.32053e-06
1.32079e-06
1.32057e-06
1.31768e-06
1.31469e-06
1.31469e-06
1.31469e-06
1.31469e-06
1.31809e-06
1.31892e-06
1.3184e-06
1.31469e-06
1.31469e-06
1.31469e-06
1.31469e-06
1.31469e-06
1.31469e-06
1.31904e-06
1.321e-06
1.32092e-06
1.31829e-06
1.31469e-06
1.31469e-06
1.31469e-06
1.31469e-06
1.31469e-06
1.31469e-06
1.31915e-06
1.3208e-06
1.32075e-06
1.3182e-06
1.31469e-06
1.31469e-06
1.31469e-06
1.31469e-06
1.31469e-06
1.31469e-06
1.31913e-06
1.31909e-06
1.31839e-06
1.31469e-06
1.31469e-06
1.31469e-06
1.31469e-06
1.31469e-06
1.31469e-06
1.31911e-06
1.32112e-06
1.32053e-06
1.31809e-06
1.31469e-06
1.31469e-06
1.31469e-06
1.31469e-06
1.3189e-06
1.31908e-06
1.32102e-06
1.32079e-06
1.31892e-06
1.31904e-06
1.31914e-06
1.31913e-06
1.31911e-06
1.31909e-06
1.32101e-06
1.32101e-06
1.3208e-06
1.31909e-06
1.32111e-06
1.32103e-06
1.30189e-06
1.30172e-06
1.30154e-06
1.29937e-06
1.29927e-06
1.29917e-06
1.29936e-06
1.3015e-06
1.30176e-06
1.30154e-06
1.29865e-06
1.29566e-06
1.29566e-06
1.29566e-06
1.29566e-06
1.29906e-06
1.2999e-06
1.29937e-06
1.29566e-06
1.29566e-06
1.29566e-06
1.29566e-06
1.29566e-06
1.29566e-06
1.30002e-06
1.30198e-06
1.30189e-06
1.29926e-06
1.29566e-06
1.29566e-06
1.29566e-06
1.29566e-06
1.29566e-06
1.29566e-06
1.30012e-06
1.30177e-06
1.30172e-06
1.29917e-06
1.29566e-06
1.29566e-06
1.29566e-06
1.29566e-06
1.29566e-06
1.29566e-06
1.3001e-06
1.30007e-06
1.29936e-06
1.29566e-06
1.29566e-06
1.29566e-06
1.29566e-06
1.29566e-06
1.29566e-06
1.30009e-06
1.30209e-06
1.3015e-06
1.29906e-06
1.29566e-06
1.29566e-06
1.29566e-06
1.29566e-06
1.29987e-06
1.30006e-06
1.302e-06
1.30176e-06
1.2999e-06
1.30002e-06
1.30012e-06
1.3001e-06
1.30009e-06
1.30006e-06
1.30198e-06
1.30198e-06
1.30177e-06
1.30007e-06
1.30209e-06
1.302e-06
1.28287e-06
1.2827e-06
1.28252e-06
1.28035e-06
1.28024e-06
1.28015e-06
1.28034e-06
1.28248e-06
1.28274e-06
1.28252e-06
1.27962e-06
1.27664e-06
1.27664e-06
1.27664e-06
1.27664e-06
1.28004e-06
1.28087e-06
1.28035e-06
1.27664e-06
1.27664e-06
1.27664e-06
1.27664e-06
1.27664e-06
1.27664e-06
1.28099e-06
1.28295e-06
1.28287e-06
1.28024e-06
1.27664e-06
1.27664e-06
1.27664e-06
1.27664e-06
1.27664e-06
1.27664e-06
1.28109e-06
1.28274e-06
1.2827e-06
1.28015e-06
1.27664e-06
1.27664e-06
1.27664e-06
1.27664e-06
1.27664e-06
1.27664e-06
1.28108e-06
1.28104e-06
1.28034e-06
1.27664e-06
1.27664e-06
1.27664e-06
1.27664e-06
1.27664e-06
1.27664e-06
1.28106e-06
1.28306e-06
1.28247e-06
1.28004e-06
1.27664e-06
1.27664e-06
1.27664e-06
1.27664e-06
1.28085e-06
1.28103e-06
1.28297e-06
1.28274e-06
1.28087e-06
1.28099e-06
1.28109e-06
1.28108e-06
1.28106e-06
1.28103e-06
1.28296e-06
1.28295e-06
1.28274e-06
1.28104e-06
1.28306e-06
1.28297e-06
1.26384e-06
1.26367e-06
1.26349e-06
1.26132e-06
1.26121e-06
1.26112e-06
1.26131e-06
1.26345e-06
1.26371e-06
1.26349e-06
1.2606e-06
1.25761e-06
1.25761e-06
1.25761e-06
1.25761e-06
1.26101e-06
1.26185e-06
1.26132e-06
1.25761e-06
1.25761e-06
1.25761e-06
1.25761e-06
1.25761e-06
1.25761e-06
1.26196e-06
1.26392e-06
1.26384e-06
1.26121e-06
1.25761e-06
1.25761e-06
1.25761e-06
1.25761e-06
1.25761e-06
1.25761e-06
1.26207e-06
1.26372e-06
1.26367e-06
1.26112e-06
1.25761e-06
1.25761e-06
1.25761e-06
1.25761e-06
1.25761e-06
1.25761e-06
1.26205e-06
1.26202e-06
1.26131e-06
1.25761e-06
1.25761e-06
1.25761e-06
1.25761e-06
1.25761e-06
1.25761e-06
1.26203e-06
1.26404e-06
1.26345e-06
1.26101e-06
1.25761e-06
1.25761e-06
1.25761e-06
1.25761e-06
1.26182e-06
1.26201e-06
1.26395e-06
1.26371e-06
1.26185e-06
1.26196e-06
1.26207e-06
1.26205e-06
1.26203e-06
1.26201e-06
1.26393e-06
1.26393e-06
1.26372e-06
1.26202e-06
1.26404e-06
1.26395e-06
1.24482e-06
1.24465e-06
1.24447e-06
1.2423e-06
1.24219e-06
1.2421e-06
1.24229e-06
1.24442e-06
1.24468e-06
1.24447e-06
1.24157e-06
1.23859e-06
1.23859e-06
1.23859e-06
1.23859e-06
1.24199e-06
1.24282e-06
1.2423e-06
1.23859e-06
1.23859e-06
1.23859e-06
1.23859e-06
1.23859e-06
1.23859e-06
1.24294e-06
1.2449e-06
1.24482e-06
1.24219e-06
1.23859e-06
1.23859e-06
1.23859e-06
1.23859e-06
1.23859e-06
1.23859e-06
1.24304e-06
1.24469e-06
1.24465e-06
1.2421e-06
1.23859e-06
1.23859e-06
1.23859e-06
1.23859e-06
1.23859e-06
1.23859e-06
1.24303e-06
1.24299e-06
1.24229e-06
1.23859e-06
1.23859e-06
1.23859e-06
1.23859e-06
1.23859e-06
1.23859e-06
1.24301e-06
1.24501e-06
1.24442e-06
1.24198e-06
1.23859e-06
1.23859e-06
1.23859e-06
1.23859e-06
1.2428e-06
1.24298e-06
1.24492e-06
1.24468e-06
1.24282e-06
1.24294e-06
1.24304e-06
1.24302e-06