/*--------------------------------*- C++ -*----------------------------------*\
| =========                 |                                                 |
| \\      /  F ield         | OpenFOAM: The Open Source CFD Toolbox           |
|  \\    /   O peration     | Version:  v2012                                 |
|   \\  /    A nd           | Website:  www.openfoam.com                      |
|    \\/     M anipulation  |                                                 |
\*---------------------------------------------------------------------------*/
FoamFile
{
    version     2.0;
    format      ascii;
    class       volScalarField;
    location    "50";
    object      nut;
}
// * * * * * * * * * * * * * * * * * * * * * * * * * * * * * * * * * * * * * //

dimensions      [0 2 -1 0 0 0 0];


internalField   nonuniform List<scalar> 
171728
(
0.000198447
0.000157981
0.000130927
0.000158035
0.000157993
0.000157901
0.000131477
4.90619e-05
4.90506e-05
4.03334e-05
0.00019852
2.40489e-05
4.6562e-05
2.40331e-05
2.40305e-05
4.13187e-05
4.14529e-05
4.65412e-05
4.65508e-05
0.000180699
6.98584e-05
4.91208e-05
4.03502e-05
0.000180704
4.66623e-05
6.99124e-05
4.2216e-05
4.13245e-05
2.4033e-05
4.90668e-05
4.90614e-05
4.6844e-05
2.02495e-05
2.02432e-05
4.90497e-05
4.64396e-05
4.64079e-05
2.02427e-05
3.7118e-05
4.03318e-05
4.06053e-05
4.19341e-05
4.06147e-05
4.19336e-05
3.71307e-05
2.40494e-05
2.40332e-05
2.40313e-05
4.71565e-05
5.72429e-05
4.13165e-05
4.6567e-05
4.65657e-05
5.72518e-05
4.69914e-05
4.71382e-05
5.72333e-05
4.14662e-05
4.65543e-05
4.65544e-05
5.72461e-05
4.7002e-05
4.55955e-05
2.15303e-05
2.15272e-05
2.15316e-05
2.15285e-05
4.53333e-05
2.02893e-05
4.91191e-05
4.80621e-05
4.78319e-05
2.02888e-05
3.71223e-05
4.03526e-05
4.19333e-05
4.13185e-05
4.1933e-05
4.12297e-05
3.71228e-05
4.72216e-05
5.7318e-05
4.22183e-05
4.65864e-05
4.65861e-05
5.73296e-05
4.70723e-05
4.71449e-05
5.72458e-05
4.1207e-05
4.65673e-05
5.72501e-05
4.65731e-05
4.70447e-05
4.58355e-05
2.15391e-05
2.15408e-05
2.15401e-05
2.15418e-05
4.58624e-05
2.4033e-05
4.90577e-05
0.000211959
6.58656e-05
9.76709e-05
9.74279e-05
0.000131097
9.74174e-05
9.73746e-05
6.56856e-05
6.57715e-05
9.72942e-05
9.763e-05
0.00013219
9.75067e-05
9.75628e-05
6.56875e-05
0.000211899
9.47182e-05
7.66923e-05
4.65626e-05
5.24683e-05
7.66581e-05
5.24776e-05
9.46787e-05
9.49076e-05
7.66055e-05
4.65452e-05
5.24248e-05
5.24398e-05
7.68383e-05
9.46834e-05
9.51099e-05
7.66853e-05
4.65566e-05
5.24444e-05
5.24503e-05
7.67722e-05
9.48634e-05
0.000111954
6.98106e-05
6.36809e-05
0.000120006
6.3699e-05
0.000119914
0.00011192
9.45678e-05
7.64404e-05
4.66672e-05
5.25316e-05
5.25382e-05
7.64935e-05
9.42751e-05
0.000111867
6.98111e-05
0.000120165
6.37224e-05
0.000119807
6.37494e-05
0.000111844
0.000233977
0.000233087
0.000233044
0.000233406
0.000232526
0.000227643
0.000227667
0.000223676
0.0002305
0.000220063
0.000220074
0.000208875
0.000227769
0.000211431
0.000211438
0.000193614
0.000224381
0.000202451
0.000202452
0.000179638
0.00022049
0.000193615
0.000193611
0.00016732
0.000216263
0.000185181
0.000185174
0.000156591
0.000211822
0.000177241
0.000177232
0.000147436
0.000207316
0.000170134
0.000170122
0.000140605
0.000203195
0.000164529
0.000164497
0.000136651
0.000200215
0.000160715
0.000160615
0.000134175
0.000198757
0.000158527
0.000158444
0.000131932
0.000198461
0.000157794
0.000157761
0.000130438
0.000198477
0.000157826
0.00015775
0.000130292
0.000198447
0.000157917
0.000157832
0.000131005
0.00019844
0.000157943
0.000157875
0.000131429
0.000198428
0.000157955
0.000157907
0.000130871
0.000198426
0.000157957
0.000157912
0.000130938
0.000198434
0.000157962
0.000157915
0.000130311
0.000198437
0.000157919
0.000157912
0.000131359
0.000198433
0.000157938
0.000157961
0.000131151
0.000198431
0.000157979
0.000157992
0.000130427
0.000198431
0.00015801
0.000157972
0.000131624
0.000198439
0.00015798
0.000157929
0.000131
0.000198441
0.00015794
0.000157927
0.000131185
0.000198453
0.000157953
0.000157942
0.000131498
0.000198436
0.000157944
0.00015798
0.000131962
0.000198426
0.00015795
0.000158005
0.000131467
0.000198422
0.000157967
0.000158004
0.000130821
0.000198416
0.000157993
0.000158016
0.000131013
0.000198414
0.000158033
0.000157978
0.000130876
0.000198424
0.000158048
0.000157959
0.000131054
0.000198416
0.000158026
0.000157975
0.000131178
0.000198426
0.000157994
0.000157957
0.000131144
0.00019842
0.000157941
0.000157963
0.000130969
0.000198416
0.000157962
0.000157983
0.000131554
0.000198416
0.00015797
0.000157955
0.00013102
0.000198431
0.000157982
0.000157935
0.00013135
0.000198442
0.000157975
0.000157934
0.000130981
0.000198436
0.00015796
0.000157969
0.000131122
0.000198432
0.000157926
0.00015799
0.000131384
0.000198435
0.000157903
0.000157967
0.000130938
0.000198427
0.000157891
0.000157941
0.000131179
0.000198423
0.000157925
0.000157948
0.000130952
0.000198424
0.000157939
0.000157978
0.000131203
0.000198431
0.000157942
0.000157972
0.000130536
0.00019844
0.000157976
0.000157986
0.000131001
0.00023428
0.000234455
0.000234508
0.000234283
0.000234464
0.000234482
0.000234271
0.000234274
0.000234273
0.000234272
0.00023446
0.000234459
0.000234283
0.000234464
0.000234457
0.000234274
0.000233392
0.000226089
0.000233072
0.000232936
0.000229231
0.000229174
0.000233392
0.000226061
0.000233066
0.000233014
0.000229264
0.00022926
0.000233086
0.000229218
0.000229046
0.000233391
0.000226087
0.000233079
0.000229246
0.000229267
0.000226046
0.000223722
0.00021207
0.000227657
0.000227613
0.000222174
0.000222105
0.000223691
0.000211997
0.000227705
0.000227692
0.000222209
0.000222136
0.000227447
0.00022209
0.000222019
0.000223718
0.000212025
0.000227693
0.000222101
0.000222176
0.00021201
0.000208933
0.000196933
0.000220167
0.000220073
0.000213716
0.000213596
0.000208853
0.000196883
0.000220188
0.000220105
0.000213713
0.000213652
0.00022002
0.000213628
0.000213586
0.000208885
0.000196906
0.000220155
0.000213636
0.000213698
0.000196881
0.00019366
0.000182769
0.000211498
0.000211382
0.000204698
0.000204628
0.000193597
0.000182755
0.000211493
0.000211439
0.00020469
0.000204669
0.000211376
0.000204677
0.000204631
0.000193632
0.000182768
0.000211479
0.00020468
0.000204692
0.000182761
0.00017964
0.000170207
0.000202458
0.000202401
0.000195761
0.00019574
0.000179637
0.000170231
0.000202447
0.000202433
0.000195745
0.000195752
0.000202404
0.000195761
0.000195745
0.000179657
0.000170255
0.000202454
0.000195758
0.000195772
0.000170264
0.000167374
0.000159208
0.000193605
0.000193588
0.000187199
0.000187199
0.000167305
0.000159218
0.00019359
0.000193594
0.000187193
0.000187195
0.000193591
0.000187208
0.000187202
0.000167314
0.00015926
0.000193615
0.000187202
0.000187221
0.000159266
0.000156637
0.000149723
0.000185162
0.000185155
0.000179102
0.000179105
0.000156644
0.000149743
0.000185157
0.00018515
0.000179109
0.000179096
0.000185158
0.000179116
0.000179107
0.000156586
0.000149692
0.000185177
0.000179108
0.000179127
0.000149726
0.000147445
0.000142422
0.000177212
0.000177205
0.00017171
0.000171713
0.000147429
0.000142445
0.00017722
0.000177196
0.000171727
0.0001717
0.000177207
0.000171727
0.000171711
0.00014749
0.000142444
0.000177227
0.000171716
0.000171731
0.000142401
0.000140739
0.000137915
0.000170093
0.000170084
0.000165646
0.000165642
0.000140747
0.000138015
0.000170108
0.000170076
0.000165664
0.000165627
0.00017008
0.000165676
0.000165629
0.000140722
0.000137931
0.000170103
0.00016565
0.000165654
0.000137797
0.00013683
0.000134882
0.000164454
0.000164444
0.000161301
0.000161307
0.000136896
0.000135109
0.000164469
0.000164421
0.000161307
0.000161243
0.00016442
0.000161397
0.000161266
0.000136695
0.000134912
0.000164451
0.00016132
0.000161296
0.000134856
0.000133936
0.000132339
0.00016055
0.000160551
0.000158689
0.000158675
0.000134274
0.000132355
0.00016055
0.00016047
0.000158664
0.000158595
0.000160509
0.000158823
0.00015864
0.00013392
0.000132274
0.00016054
0.000158734
0.000158665
0.000132414
0.000131492
0.000130646
0.000158331
0.000158308
0.00015762
0.000157593
0.000131812
0.000130262
0.000158304
0.00015823
0.000157613
0.000157524
0.000158285
0.000157764
0.00015759
0.000131739
0.00013035
0.000158304
0.000157705
0.000157588
0.00013043
0.000130284
0.000130642
0.000157559
0.000157541
0.000157595
0.000157586
0.000129978
0.000130583
0.000157572
0.00015747
0.000157627
0.00015749
0.000157542
0.000157739
0.000157563
0.000130278
0.000130469
0.000157541
0.000157686
0.000157556
0.000130736
0.000130725
0.000131025
0.00015761
0.000157617
0.000157782
0.000157789
0.000130939
0.000131354
0.000157653
0.000157502
0.000157818
0.000157704
0.000157585
0.000157866
0.000157776
0.000130625
0.000131401
0.000157566
0.000157775
0.000157753
0.000130708
0.000131377
0.000131062
0.000157769
0.000157783
0.000157861
0.000157876
0.00013146
0.000130862
0.000157813
0.000157696
0.000157896
0.000157807
0.000157772
0.000157912
0.000157886
0.000130888
0.000131107
0.000157762
0.000157856
0.000157866
0.000131629
0.000130971
0.000131351
0.000157859
0.000157882
0.000157915
0.000157942
0.000131161
0.000131331
0.000157894
0.000157805
0.000157938
0.00015785
0.000157892
0.000157945
0.000157932
0.000131299
0.000131526
0.000157871
0.000157898
0.000157929
0.000131214
0.000131372
0.000131075
0.000157933
0.000157927
0.000157965
0.000157913
0.000131009
0.000130908
0.00015793
0.000157842
0.000157951
0.00015787
0.000157911
0.000157949
0.000157937
0.000131196
0.000131447
0.00015792
0.00015791
0.000157936
0.000131265
0.000130752
0.000131144
0.000157942
0.0001579
0.000157948
0.000157929
0.000130767
0.000131243
0.000157944
0.000157875
0.000157997
0.000157897
0.000157936
0.000157958
0.000157914
0.000131023
0.000130877
0.000157943
0.000157916
0.000157942
0.000130492
0.000131079
0.000131445
0.000157945
0.000157941
0.000157959
0.000157929
0.000131165
0.000131518
0.000158006
0.000157902
0.000158003
0.000157899
0.00015791
0.000157928
0.000157898
0.000130917
0.000130751
0.000157929
0.000157908
0.00015792
0.000131394
0.000131217
0.000131545
0.000157961
0.000157915
0.000157971
0.000157935
0.00013076
0.000131621
0.000157978
0.000157902
0.000157994
0.000157901
0.000157903
0.000157925
0.000157896
0.000130437
0.000131401
0.000157914
0.000157957
0.000157935
0.000131899
0.000131209
0.000131248
0.000157956
0.00015794
0.000157962
0.000157948
0.000131394
0.000131342
0.00015799
0.000157889
0.000157971
0.000157927
0.000157883
0.000157979
0.000157876
0.000131547
0.000131403
0.000157931
0.000157991
0.000157921
0.000130743
0.000131325
0.000131379
0.000157945
0.000157937
0.000157939
0.00015795
0.000131042
0.000131485
0.000157974
0.000157915
0.000157989
0.000157894
0.00015786
0.000158003
0.000157902
0.000131183
0.000131293
0.000157909
0.000157974
0.000157903
0.000131471
0.000131067
0.000131215
0.00015794
0.000157936
0.00015794
0.000157952
0.000131203
0.000131852
0.000157993
0.000157885
0.000158001
0.000157893
0.000157915
0.000157991
0.000157913
0.00013085
0.00013104
0.000157899
0.000157935
0.000157896
0.000130892
0.000131049
0.000131142
0.000157949
0.000157941
0.000157966
0.000157922
0.000131218
0.000131314
0.000158004
0.000157885
0.000158013
0.000157898
0.000157876
0.000157933
0.000157882
0.000130695
0.000131297
0.000157884
0.00015793
0.000157871
0.000130959
0.000131478
0.000131296
0.00015796
0.000157928
0.000157971
0.000157946
0.00013157
0.000131269
0.000158003
0.00015789
0.000158003
0.000157897
0.000157879
0.000157964
0.000157895
0.000130869
0.000131164
0.000157857
0.000157935
0.000157905
0.000131318
0.000131003
0.000131812
0.000157971
0.000157929
0.000157965
0.000157921
0.000130972
0.000131222
0.000157993
0.000157899
0.000157997
0.000157939
0.000157903
0.000157944
0.000157946
0.000131343
0.000131157
0.000157887
0.000157976
0.000157962
0.000132152
0.000131066
0.000131523
0.000157963
0.000157897
0.000157952
0.000157901
0.000131435
0.000131679
0.000157979
0.000157933
0.000157966
0.000157969
0.000157942
0.000157947
0.00015793
0.000130873
0.000131998
0.00015795
0.000158005
0.000157966
0.000131558
0.000131093
0.000131912
0.000157934
0.000157904
0.00015794
0.000157897
0.000131479
0.000131788
0.00015795
0.00015796
0.000157958
0.00015796
0.000157921
0.000157967
0.00015792
0.000131952
0.000131282
0.000157934
0.000158004
0.000157933
0.000131322
0.000131161
0.000131456
0.000157922
0.000157893
0.000157905
0.000157916
0.000131006
0.000131632
0.000157949
0.000157956
0.000157934
0.000157949
0.000157904
0.000157985
0.000157915
0.000130894
0.000130874
0.000157916
0.000158018
0.000157919
0.000131151
0.000131249
0.00013098
0.0001579
0.000157908
0.000157895
0.000157959
0.00013105
0.000131199
0.000157923
0.000157943
0.000157914
0.000157914
0.00015791
0.000158034
0.000157892
0.000131128
0.000131011
0.000157919
0.000157984
0.000157922
0.000130926
0.000130683
0.000131217
0.00015789
0.00015795
0.000157904
0.000157971
0.000131363
0.000131547
0.000157921
0.000157904
0.00015795
0.000157897
0.000157887
0.000158046
0.000157894
0.000131184
0.000131297
0.000157919
0.000157953
0.000157935
0.000131578
0.00013093
0.000130988
0.000157897
0.000157967
0.000157905
0.000157994
0.000131616
0.000131489
0.000157934
0.000157894
0.000157955
0.000157916
0.000157892
0.000158037
0.000157906
0.000130937
0.000130932
0.000157912
0.000157964
0.000157947
0.000131445
0.000130934
0.000131151
0.000157904
0.000157982
0.000157905
0.000157977
0.000131169
0.000131371
0.000157935
0.00015789
0.000157929
0.000157907
0.000157908
0.000157998
0.000157927
0.00013073
0.000131382
0.000157954
0.000157975
0.00015797
0.000131762
0.000131073
0.000130807
0.000157909
0.000157962
0.000157901
0.000157918
0.000131426
0.000130974
0.000157925
0.000157876
0.000157948
0.000157883
0.000157921
0.000157943
0.000157922
0.000131067
0.00013082
0.000157955
0.000157948
0.000157942
0.000131253
0.000130517
0.000130951
0.000157898
0.000157915
0.000157896
0.000157915
0.000130767
0.000131071
0.00015792
0.00015787
0.000157915
0.000157871
0.000157911
0.000157948
0.000157934
0.000130622
0.000131378
0.000157943
0.000157985
0.000157972
0.000131369
0.000130602
0.000131656
0.000157892
0.000157902
0.000157897
0.000157911
0.000131077
0.000131307
0.000157901
0.000157863
0.000157917
0.000157877
0.000157954
0.000157973
0.000157947
0.000131486
0.000130773
0.000157973
0.000157946
0.000157993
0.000131174
0.000131095
0.000131122
0.000157896
0.000157912
0.000157933
0.000157935
0.000131037
0.000131801
0.000157929
0.000157876
0.000157972
0.000157887
0.000157943
0.00015798
0.000157938
0.000130865
0.000131072
0.000157987
0.000157943
0.000157966
0.000131093
0.00013126
0.000131498
0.000157933
0.000157918
0.000157953
0.000157908
0.000131166
0.000131036
0.000157967
0.000157897
0.000158012
0.000157923
0.000157928
0.000157974
0.000157916
0.000130885
0.000131709
0.000157963
0.000157931
0.000157943
0.000130999
0.000131277
0.000131275
0.000157952
0.000157901
0.000157964
0.000157904
0.000130928
0.000131201
0.000158001
0.000157917
0.000158036
0.000157946
0.000157908
0.000157966
0.000157936
0.000131201
0.000131505
0.000157937
0.000157964
0.00015795
0.000131581
0.000131149
0.000130947
0.000157964
0.000157904
0.000157961
0.000157902
0.000131008
0.000131369
0.000158016
0.000157938
0.000157988
0.000157929
0.000157929
0.000157934
0.000157915
0.00013121
0.000131607
0.00015794
0.000157987
0.00015794
0.000131093
0.000130686
0.000131062
0.00015794
0.000157896
0.000157936
0.0001579
0.000130871
0.000130964
0.000157979
0.000157924
0.000157969
0.000157911
0.000157914
0.000157896
0.000157922
0.000131743
0.000131723
0.000157945
0.000157974
0.000157945
0.000131482
0.00013076
0.000131134
0.000157926
0.000157891
0.00015794
0.000157898
0.000130836
0.000130824
0.000157942
0.000157911
0.000157933
0.000157898
0.000157909
0.0001579
0.000157877
0.000131189
0.000131491
0.000157928
0.000157941
0.000157887
0.000130993
0.000130811
0.000131361
0.000157938
0.000157886
0.00015793
0.000157907
0.000130843
0.000131749
0.000157923
0.000157884
0.000157931
0.000157913
0.000157874
0.000157906
0.000157862
0.000131087
0.00013118
0.000157875
0.000157944
0.000157865
0.000131072
0.00013093
0.00013157
0.000157924
0.000157926
0.00015793
0.000157922
0.000131761
0.000131184
0.000157932
0.0001579
0.00015794
0.000157925
0.000157868
0.000157938
0.000157875
0.000130872
0.000131209
0.000157852
0.000157974
0.000157868
0.00013155
0.000130882
0.000131193
0.000157925
0.00015792
0.000157958
0.000157926
0.000131081
0.000131013
0.00015796
0.000157917
0.000157988
0.000157927
0.000157868
0.000157941
0.000157863
0.000131089
0.000131219
0.000157889
0.000157974
0.000157889
0.000130793
0.000130997
0.000131688
0.000157958
0.000157928
0.000157986
0.000157931
0.000130801
0.000131225
0.000157953
0.000157923
0.00015799
0.000157926
0.000157861
0.000157975
0.000157871
0.000130959
0.000131486
0.000157881
0.00015798
0.000157884
0.000131198
0.000131395
0.000131654
0.000157983
0.000157944
0.000157903
0.000157968
0.000131486
0.000131654
0.000157997
0.000157907
0.000157991
0.000157899
0.000157886
0.000157972
0.000157905
0.000131606
0.000131423
0.000157904
0.000157981
0.000157916
0.000131217
0.00023473
0.000234748
0.00023473
0.00023473
0.000235094
0.000234802
0.000234561
0.000234727
0.000235094
0.000234802
0.000234727
0.000234895
0.000234867
0.000233652
0.000233936
0.000104723
3.88614e-05
0.000128364
3.97934e-05
2.15873e-05
2.28273e-05
0.000104724
3.8949e-05
0.000128363
3.98348e-05
0.000233974
0.000233974
0.000233977
0.000232919
0.000232916
0.000232921
0.000232912
0.000206012
9.19587e-05
0.000233972
0.00023193
0.000222345
8.52111e-05
0.000233601
2.167e-05
2.28309e-05
0.000206054
0.00023397
8.90995e-05
0.000231922
0.000222351
0.000233601
8.50887e-05
4.72285e-05
4.72612e-05
0.000231288
4.35983e-05
4.36808e-05
7.2658e-05
4.24374e-05
8.13706e-05
4.37785e-05
2.48103e-05
2.54784e-05
7.26532e-05
4.24374e-05
8.13616e-05
4.3766e-05
0.000232519
0.000232525
0.00023251
0.000231053
0.000231041
0.000231044
0.000231039
0.000167269
7.79825e-05
0.000232048
0.000225906
0.000179875
7.32127e-05
0.000231325
2.48123e-05
2.54793e-05
0.000167344
0.00023206
7.81546e-05
0.000225924
0.000180001
0.000231336
7.33347e-05
3.88983e-05
3.90305e-05
0.000219382
3.64259e-05
3.64648e-05
5.63896e-05
4.55757e-05
6.12506e-05
4.6439e-05
2.60213e-05
2.61212e-05
5.63918e-05
4.55584e-05
6.12563e-05
4.64232e-05
0.000230477
0.00023048
0.000230479
0.000228493
0.000228467
0.000228474
0.000228476
0.000138541
6.65433e-05
0.000228579
0.000217955
0.000148006
6.27782e-05
0.00022745
2.60204e-05
2.61194e-05
0.000138563
0.000228585
6.65076e-05
0.000217965
0.00014799
0.000227454
6.28485e-05
3.3248e-05
3.3227e-05
0.000204409
3.20168e-05
3.20012e-05
4.70724e-05
4.75155e-05
4.99974e-05
4.80143e-05
2.60479e-05
2.59359e-05
4.70511e-05
4.75065e-05
4.99981e-05
4.80111e-05
0.000227737
0.000227746
0.000227743
0.00022525
0.000225235
0.000225244
0.000225239
0.000117592
5.7697e-05
0.000223639
0.000209179
0.000124619
5.50814e-05
0.000222205
2.60447e-05
2.59339e-05
0.000117594
0.000223645
5.76879e-05
0.000209185
0.000124627
0.000222209
5.50968e-05
3.06968e-05
3.0662e-05
0.000189628
3.0404e-05
3.03812e-05
4.14796e-05
4.85924e-05
4.33135e-05
4.88456e-05
2.56751e-05
2.5517e-05
4.14861e-05
4.85933e-05
4.3347e-05
4.88476e-05
0.000224363
0.00022437
0.000224363
0.000221456
0.00022146
0.000221462
0.000221464
0.000102206
5.14881e-05
0.000217686
0.000200187
0.000107447
4.98595e-05
0.000216067
2.56728e-05
2.55153e-05
0.000102213
0.000217689
5.15295e-05
0.000200187
0.000107443
0.000216067
4.98054e-05
3.03049e-05
3.03085e-05
0.000176312
3.05038e-05
3.04987e-05
3.82135e-05
4.90976e-05
3.93245e-05
4.91985e-05
2.52397e-05
2.50921e-05
3.82189e-05
4.90976e-05
3.93113e-05
4.91987e-05
0.000220484
0.000220485
0.000220484
0.000217286
0.000217301
0.000217297
0.000217305
9.06274e-05
4.75344e-05
0.000211197
0.00019143
9.45823e-05
4.64651e-05
0.000209498
2.5237e-05
2.50902e-05
9.06327e-05
0.000211196
4.75593e-05
0.000191425
9.45733e-05
0.000209495
4.65168e-05
3.1122e-05
3.11091e-05
0.000164547
3.15715e-05
3.15751e-05
3.64003e-05
4.92707e-05
3.69759e-05
4.92921e-05
2.48504e-05
2.47294e-05
3.64154e-05
4.92716e-05
3.69682e-05
4.92886e-05
0.000216258
0.000216255
0.000216258
0.00021287
0.000212889
0.000212882
0.000212891
8.17264e-05
4.50997e-05
0.000204538
0.000183099
8.47731e-05
4.4505e-05
0.000202825
2.48479e-05
2.47276e-05
8.17391e-05
0.000204535
4.50309e-05
0.000183091
8.47525e-05
0.00020282
4.45091e-05
3.26352e-05
3.26077e-05
0.000154296
3.32707e-05
3.32619e-05
3.57874e-05
4.92863e-05
3.58623e-05
4.928e-05
2.45336e-05
2.4441e-05
3.57836e-05
4.9285e-05
3.58604e-05
4.92745e-05
0.000211813
0.000211808
0.00021181
0.000208337
0.000208358
0.000208351
0.000208358
7.5365e-05
4.37936e-05
0.000197954
0.000175301
7.7372e-05
4.36071e-05
0.000196286
2.45313e-05
2.44391e-05
7.53653e-05
0.000197951
4.3764e-05
0.000175291
7.73661e-05
0.000196281
4.36646e-05
3.46863e-05
3.46881e-05
0.000145661
3.5662e-05
3.56589e-05
3.64181e-05
4.92634e-05
3.605e-05
4.9251e-05
2.43009e-05
2.42464e-05
3.64482e-05
4.92614e-05
3.60706e-05
4.92427e-05
0.000207301
0.000207295
0.000207295
0.000204025
0.00020404
0.00020403
0.000204033
7.26475e-05
4.38532e-05
0.000191798
0.00016849
7.32679e-05
4.41976e-05
0.000190307
2.42986e-05
2.42442e-05
7.26669e-05
0.000191792
4.38483e-05
0.000168472
7.3275e-05
0.000190301
4.42308e-05
3.74078e-05
3.74063e-05
0.000139772
3.82094e-05
3.82132e-05
3.78245e-05
4.92e-05
3.73992e-05
4.91734e-05
2.41653e-05
2.41326e-05
3.78541e-05
4.91982e-05
3.74402e-05
4.91689e-05
0.000203152
0.000203142
0.000203137
0.000200666
0.000200641
0.000200621
0.000200616
7.19352e-05
4.48599e-05
0.000186695
0.000163308
7.21099e-05
4.51889e-05
0.000185539
2.41611e-05
2.41302e-05
7.18995e-05
0.000186684
4.48505e-05
0.000163261
7.20855e-05
0.000185523
4.51655e-05
3.91359e-05
3.91756e-05
0.000136137
3.94135e-05
3.94554e-05
3.88755e-05
4.91227e-05
3.85492e-05
4.90944e-05
2.40835e-05
2.40648e-05
3.891e-05
4.91254e-05
3.85536e-05
4.90981e-05
0.000200116
0.00020009
0.000200081
0.000198813
0.000198738
0.000198711
0.000198695
7.11757e-05
4.54917e-05
0.000183157
0.000159889
7.14657e-05
4.56027e-05
0.000182365
2.40814e-05
2.4062e-05
7.10198e-05
0.00018314
4.54211e-05
0.000159787
7.13518e-05
0.000182347
4.54648e-05
3.99217e-05
3.98964e-05
0.000133767
4.02415e-05
4.02892e-05
3.95843e-05
4.9087e-05
3.938e-05
4.90922e-05
2.40531e-05
2.40496e-05
3.95761e-05
4.90969e-05
3.94636e-05
4.91091e-05
0.000198562
0.000198533
0.000198516
0.00019828
0.00019815
0.000198134
0.000198105
6.9976e-05
4.57334e-05
0.000181163
0.000158087
7.03031e-05
4.58883e-05
0.000180713
2.40499e-05
2.40463e-05
7.02629e-05
0.000181161
4.57311e-05
0.000158011
7.04751e-05
0.000180712
4.58982e-05
4.0806e-05
4.08339e-05
0.000131447
4.11612e-05
4.11762e-05
3.98333e-05
4.90899e-05
3.98744e-05
4.90925e-05
2.40462e-05
2.40414e-05
3.99686e-05
4.9093e-05
3.98907e-05
4.90912e-05
0.000198182
0.000198153
0.000198135
0.00019839
0.000198268
0.000198237
0.000198218
6.94438e-05
4.61444e-05
0.00018049
0.000157619
6.9614e-05
4.63399e-05
0.000180237
2.4041e-05
2.40403e-05
6.96178e-05
0.000180475
4.61552e-05
0.000157581
6.9644e-05
0.000180229
4.63485e-05
4.15287e-05
4.14017e-05
0.000130772
4.15194e-05
4.14608e-05
4.00748e-05
4.909e-05
4.00501e-05
4.90819e-05
2.40379e-05
2.40384e-05
4.00933e-05
4.90688e-05
4.00624e-05
4.90681e-05
0.000198232
0.000198196
0.000198186
0.000198421
0.000198358
0.000198318
0.000198319
6.97747e-05
4.65271e-05
0.000180441
0.000157773
6.97727e-05
4.65598e-05
0.000180356
2.40369e-05
2.40349e-05
6.9699e-05
0.000180421
4.65292e-05
0.000157687
6.95739e-05
0.000180317
4.65655e-05
4.15726e-05
4.13827e-05
0.000130499
4.18035e-05
4.12479e-05
4.03487e-05
4.9067e-05
4.03231e-05
4.90643e-05
2.40369e-05
2.40372e-05
4.0304e-05
4.90557e-05
4.03002e-05
4.90525e-05
0.00019829
0.000198235
0.000198259
0.000198432
0.000198353
0.000198328
0.000198338
6.97112e-05
4.65649e-05
0.000180519
0.0001579
6.96118e-05
4.65746e-05
0.000180449
2.40349e-05
2.40362e-05
6.97089e-05
0.000180442
4.65705e-05
0.000157817
6.96568e-05
0.00018041
4.65668e-05
4.15168e-05
4.1435e-05
0.00013072
4.14934e-05
4.13676e-05
4.03657e-05
4.90735e-05
4.03562e-05
4.90728e-05
2.40356e-05
2.40363e-05
4.03127e-05
4.90506e-05
4.03019e-05
4.90517e-05
0.000198354
0.000198303
0.000198335
0.000198437
0.000198402
0.000198373
0.000198399
6.98368e-05
4.6558e-05
0.00018056
0.00015794
6.96466e-05
4.65529e-05
0.00018051
2.40368e-05
2.40378e-05
6.97741e-05
0.00018051
4.65426e-05
0.000157876
6.96354e-05
0.000180465
4.6548e-05
4.14009e-05
4.13677e-05
0.000131387
4.12978e-05
4.14695e-05
4.02545e-05
4.90611e-05
4.03628e-05
4.9059e-05
2.40338e-05
2.40333e-05
4.03225e-05
4.90551e-05
4.03177e-05
4.90493e-05
0.000198387
0.000198354
0.000198375
0.000198422
0.000198418
0.000198391
0.000198412
6.97948e-05
4.65412e-05
0.00018056
0.000157952
6.98223e-05
4.65498e-05
0.00018055
2.40376e-05
2.40383e-05
6.96364e-05
0.000180582
4.65531e-05
0.000157905
6.97627e-05
0.000180512
4.65672e-05
4.14317e-05
4.1285e-05
0.000131412
4.13316e-05
4.12971e-05
4.00364e-05
4.9047e-05
3.99889e-05
4.90539e-05
2.40322e-05
2.40335e-05
4.0062e-05
4.90515e-05
4.00224e-05
4.90495e-05
0.000198412
0.000198386
0.000198413
0.000198431
0.000198429
0.000198403
0.000198416
6.98845e-05
4.65484e-05
0.0001806
0.000157948
6.98109e-05
4.65591e-05
0.000180604
2.40388e-05
2.40399e-05
6.9756e-05
0.000180588
4.65646e-05
0.000157912
6.98194e-05
0.000180571
4.65698e-05
4.12452e-05
4.13099e-05
0.000130595
4.11563e-05
4.11915e-05
4.01479e-05
4.90586e-05
3.9984e-05
4.90582e-05
2.40358e-05
2.40358e-05
4.01856e-05
4.90472e-05
4.01814e-05
4.90462e-05
0.00019841
0.000198387
0.000198413
0.000198435
0.00019842
0.000198406
0.000198407
6.98006e-05
4.6559e-05
0.000180635
0.000157958
6.98838e-05
4.65727e-05
0.000180628
2.40407e-05
2.40414e-05
6.9548e-05
0.000180594
4.65637e-05
0.000157909
6.97739e-05
0.000180589
4.65633e-05
4.13485e-05
4.11736e-05
0.000130774
4.15088e-05
4.12541e-05
4.03461e-05
4.90641e-05
4.01525e-05
4.90608e-05
2.40338e-05
2.40347e-05
3.99842e-05
4.90514e-05
4.01211e-05
4.90561e-05
0.000198422
0.000198409
0.000198406
0.000198433
0.000198423
0.000198417
0.000198409
6.98738e-05
4.65646e-05
0.000180585
0.000157912
6.96793e-05
4.65705e-05
0.000180565
2.40438e-05
2.40452e-05
6.96215e-05
0.000180571
4.65541e-05
0.000157914
6.96054e-05
0.000180568
4.65519e-05
4.13694e-05
4.14803e-05
0.000131451
4.13763e-05
4.15065e-05
4.0393e-05
4.90658e-05
4.03835e-05
4.90642e-05
2.40336e-05
2.40339e-05
4.00696e-05
4.90609e-05
4.00898e-05
4.90636e-05
0.000198413
0.00019842
0.000198405
0.00019843
0.000198437
0.000198425
0.000198406
6.98114e-05
4.65552e-05
0.000180604
0.000157946
6.96961e-05
4.65646e-05
0.000180606
2.40446e-05
2.40464e-05
6.98242e-05
0.000180565
4.65416e-05
0.000157962
6.95746e-05
0.000180569
4.6556e-05
4.12813e-05
4.14296e-05
0.000130566
4.12651e-05
4.13592e-05
4.04018e-05
4.90645e-05
4.03921e-05
4.90615e-05
2.40332e-05
2.40334e-05
4.00125e-05
4.90628e-05
3.99538e-05
4.9061e-05
0.000198428
0.000198432
0.000198401
0.000198429
0.00019844
0.000198435
0.000198412
6.97305e-05
4.65574e-05
0.00018061
0.000157975
6.98178e-05
4.65591e-05
0.000180608
2.40473e-05
2.40481e-05
6.9653e-05
0.000180597
4.6555e-05
0.000157968
6.96956e-05
0.000180587
4.65627e-05
4.13564e-05
4.12578e-05
0.000131031
4.13118e-05
4.13172e-05
4.03978e-05
4.90572e-05
4.03956e-05
4.90555e-05
2.40318e-05
2.40332e-05
4.02544e-05
4.90671e-05
4.01059e-05
4.90661e-05
0.000198416
0.000198418
0.000198397
0.000198442
0.00019843
0.000198419
0.000198408
6.96477e-05
4.65547e-05
0.000180603
0.000158008
6.96594e-05
4.65673e-05
0.000180608
2.4048e-05
2.40485e-05
6.97375e-05
0.000180574
4.65557e-05
0.000157962
6.95326e-05
0.000180563
4.65611e-05
4.15655e-05
4.13141e-05
0.000130964
4.15806e-05
4.1304e-05
4.03691e-05
4.90529e-05
4.03756e-05
4.90515e-05
2.40346e-05
2.40354e-05
4.03517e-05
4.9066e-05
4.03437e-05
4.90606e-05
0.000198427
0.000198428
0.000198392
0.000198439
0.000198426
0.00019843
0.000198401
6.98803e-05
4.65707e-05
0.000180598
0.000157963
6.95764e-05
4.65816e-05
0.000180589
2.40482e-05
2.40488e-05
6.97425e-05
0.000180561
4.65602e-05
0.000157929
6.96274e-05
0.000180546
4.65666e-05
4.14648e-05
4.15043e-05
0.000131096
4.15702e-05
4.15077e-05
4.03432e-05
4.90614e-05
4.03456e-05
4.90548e-05
2.40346e-05
2.40352e-05
4.03469e-05
4.90609e-05
4.0344e-05
4.90542e-05
0.000198408
0.000198408
0.000198382
0.000198453
0.000198422
0.000198421
0.0001984
6.97822e-05
4.65768e-05
0.000180575
0.000157951
6.96252e-05
4.6587e-05
0.000180565
2.40484e-05
2.4049e-05
6.96224e-05
0.000180571
4.65547e-05
0.000157926
6.96709e-05
0.000180562
4.65642e-05
4.15569e-05
4.13836e-05
0.000131507
4.1481e-05
4.13881e-05
4.03242e-05
4.90606e-05
4.03243e-05
4.90603e-05
2.40347e-05
2.40355e-05
4.03342e-05
4.90603e-05
4.03358e-05
4.90608e-05
0.000198398
0.000198405
0.000198396
0.000198443
0.00019841
0.000198431
0.000198409
6.97949e-05
4.6575e-05
0.000180574
0.00015795
6.96174e-05
4.65752e-05
0.000180562
2.40486e-05
2.40491e-05
6.9824e-05
0.000180614
4.65596e-05
0.000157953
6.98514e-05
0.000180635
4.65656e-05
4.14449e-05
4.12904e-05
0.00013206
4.13755e-05
4.13634e-05
4.03209e-05
4.90603e-05
4.03162e-05
4.90561e-05
2.40318e-05
2.40309e-05
3.9992e-05
4.90629e-05
4.02041e-05
4.90702e-05
0.000198411
0.000198412
0.000198401
0.00019843
0.000198408
0.000198428
0.000198427
6.97845e-05
4.65635e-05
0.000180594
0.00015794
6.97818e-05
4.65661e-05
0.000180594
2.40488e-05
2.40493e-05
6.99246e-05
0.00018067
4.65536e-05
0.000157982
6.98319e-05
0.000180665
4.6552e-05
4.13163e-05
4.1376e-05
0.00013149
4.10843e-05
4.15439e-05
4.0286e-05
4.90568e-05
4.03116e-05
4.90553e-05
2.4031e-05
2.40314e-05
4.00385e-05
4.90651e-05
3.99814e-05
4.90615e-05
0.000198406
0.000198428
0.000198391
0.000198426
0.00019841
0.000198429
0.000198419
6.9732e-05
4.65571e-05
0.00018059
0.000157951
6.97466e-05
4.6567e-05
0.000180578
2.40488e-05
2.40492e-05
6.97388e-05
0.000180671
4.65347e-05
0.000157993
6.97791e-05
0.000180653
4.65413e-05
4.14305e-05
4.13137e-05
0.000130963
4.13885e-05
4.16029e-05
4.01582e-05
4.90556e-05
4.02322e-05
4.90529e-05
2.40307e-05
2.40328e-05
3.99765e-05
4.90673e-05
4.00606e-05
4.90696e-05
0.000198406
0.000198435
0.000198396
0.000198416
0.000198425
0.00019844
0.000198409
6.9779e-05
4.65624e-05
0.000180576
0.00015796
6.96858e-05