/*--------------------------------*- C++ -*----------------------------------*\
| =========                 |                                                 |
| \\      /  F ield         | OpenFOAM: The Open Source CFD Toolbox           |
|  \\    /   O peration     | Version:  v2012                                 |
|   \\  /    A nd           | Website:  www.openfoam.com                      |
|    \\/     M anipulation  |                                                 |
\*---------------------------------------------------------------------------*/
FoamFile
{
    version     2.0;
    format      ascii;
    class       volScalarField;
    location    "0.425";
    object      p;
}
// * * * * * * * * * * * * * * * * * * * * * * * * * * * * * * * * * * * * * //

dimensions      [0 2 -2 0 0 0 0];


internalField   nonuniform List<scalar> 
247104
(
1.83715e-06
1.83702e-06
1.83718e-06
1.83716e-06
1.83708e-06
1.83718e-06
1.83716e-06
1.83695e-06
1.83702e-06
1.83709e-06
1.83715e-06
1.837e-06
1.83691e-06
1.83702e-06
1.83716e-06
1.83706e-06
1.83718e-06
1.83715e-06
1.83685e-06
1.83649e-06
1.83635e-06
1.83652e-06
1.83689e-06
1.83717e-06
1.83718e-06
1.83716e-06
1.837e-06
1.83649e-06
1.83601e-06
1.83583e-06
1.83605e-06
1.83656e-06
1.83705e-06
1.83716e-06
1.83715e-06
1.83708e-06
1.83691e-06
1.83635e-06
1.83584e-06
1.83566e-06
1.83588e-06
1.83642e-06
1.83696e-06
1.83707e-06
1.83718e-06
1.83702e-06
1.83652e-06
1.83605e-06
1.83588e-06
1.8361e-06
1.83659e-06
1.83706e-06
1.83718e-06
1.83716e-06
1.83716e-06
1.83689e-06
1.83656e-06
1.83642e-06
1.83659e-06
1.83694e-06
1.83717e-06
1.83716e-06
1.83696e-06
1.83706e-06
1.83717e-06
1.83705e-06
1.83696e-06
1.83706e-06
1.83717e-06
1.83702e-06
1.83718e-06
1.83716e-06
1.83707e-06
1.83718e-06
1.83716e-06
1.80443e-06
1.80244e-06
1.80179e-06
1.80057e-06
1.80058e-06
1.80052e-06
1.80051e-06
1.80185e-06
1.80205e-06
1.8018e-06
1.79974e-06
1.79716e-06
1.79715e-06
1.79714e-06
1.79716e-06
1.80011e-06
1.80039e-06
1.80057e-06
1.79716e-06
1.7971e-06
1.79717e-06
1.79717e-06
1.7971e-06
1.79716e-06
1.8005e-06
1.80185e-06
1.80443e-06
1.80058e-06
1.79715e-06
1.79717e-06
1.79726e-06
1.79726e-06
1.79717e-06
1.79714e-06
1.80052e-06
1.80216e-06
1.80245e-06
1.80052e-06
1.79715e-06
1.79717e-06
1.79726e-06
1.79726e-06
1.79717e-06
1.79714e-06
1.80068e-06
1.80077e-06
1.80052e-06
1.79716e-06
1.7971e-06
1.79717e-06
1.79717e-06
1.7971e-06
1.79716e-06
1.80047e-06
1.80178e-06
1.80185e-06
1.80012e-06
1.79716e-06
1.79714e-06
1.79714e-06
1.79716e-06
1.80037e-06
1.80053e-06
1.802e-06
1.80206e-06
1.80039e-06
1.8005e-06
1.80052e-06
1.80068e-06
1.80047e-06
1.80053e-06
1.80207e-06
1.80186e-06
1.80216e-06
1.80077e-06
1.80178e-06
1.802e-06
1.78432e-06
1.78415e-06
1.78398e-06
1.78189e-06
1.78178e-06
1.78173e-06
1.78187e-06
1.78392e-06
1.78419e-06
1.78398e-06
1.78119e-06
1.77825e-06
1.77821e-06
1.77821e-06
1.77827e-06
1.78164e-06
1.78232e-06
1.78189e-06
1.77826e-06
1.77803e-06
1.77807e-06
1.77807e-06
1.77803e-06
1.77823e-06
1.78243e-06
1.78438e-06
1.78432e-06
1.78178e-06
1.77821e-06
1.77807e-06
1.77811e-06
1.77811e-06
1.77807e-06
1.7782e-06
1.78247e-06
1.78414e-06
1.78415e-06
1.78173e-06
1.77821e-06
1.77807e-06
1.77811e-06
1.7781e-06
1.77807e-06
1.7782e-06
1.78243e-06
1.78247e-06
1.78187e-06
1.77826e-06
1.77803e-06
1.77807e-06
1.77807e-06
1.77802e-06
1.77824e-06
1.78247e-06
1.78447e-06
1.78392e-06
1.78164e-06
1.77824e-06
1.7782e-06
1.77821e-06
1.77825e-06
1.7821e-06
1.78242e-06
1.7844e-06
1.78419e-06
1.78232e-06
1.78243e-06
1.78248e-06
1.78243e-06
1.78247e-06
1.78242e-06
1.78426e-06
1.78438e-06
1.78414e-06
1.78247e-06
1.78447e-06
1.78439e-06
1.76546e-06
1.76529e-06
1.76515e-06
1.76301e-06
1.7629e-06
1.76282e-06
1.763e-06
1.76507e-06
1.76535e-06
1.76515e-06
1.76231e-06
1.75934e-06
1.75932e-06
1.75932e-06
1.75934e-06
1.76271e-06
1.76349e-06
1.76301e-06
1.75934e-06
1.75924e-06
1.75925e-06
1.75925e-06
1.75924e-06
1.75934e-06
1.76357e-06
1.76552e-06
1.76546e-06
1.7629e-06
1.75932e-06
1.75925e-06
1.75926e-06
1.75926e-06
1.75925e-06
1.75932e-06
1.76362e-06
1.76527e-06
1.76529e-06
1.76282e-06
1.75932e-06
1.75925e-06
1.75926e-06
1.75926e-06
1.75925e-06
1.75932e-06
1.76359e-06
1.76363e-06
1.763e-06
1.75934e-06
1.75924e-06
1.75925e-06
1.75925e-06
1.75924e-06
1.75934e-06
1.76361e-06
1.76559e-06
1.76507e-06
1.76272e-06
1.75934e-06
1.75932e-06
1.75931e-06
1.75934e-06
1.76333e-06
1.7636e-06
1.76556e-06
1.76535e-06
1.76349e-06
1.76357e-06
1.76362e-06
1.76359e-06
1.7636e-06
1.7636e-06
1.76558e-06
1.76552e-06
1.76527e-06
1.76363e-06
1.76559e-06
1.76556e-06
1.74657e-06
1.7464e-06
1.74624e-06
1.74411e-06
1.74399e-06
1.74391e-06
1.74409e-06
1.74618e-06
1.74645e-06
1.74624e-06
1.74341e-06
1.74042e-06
1.74041e-06
1.74041e-06
1.74042e-06
1.74378e-06
1.74459e-06
1.74411e-06
1.74042e-06
1.74039e-06
1.74039e-06
1.74039e-06
1.74039e-06
1.74042e-06
1.74467e-06
1.74663e-06
1.74657e-06
1.74399e-06
1.74041e-06
1.74039e-06
1.7404e-06
1.7404e-06
1.74039e-06
1.74041e-06
1.74474e-06
1.74641e-06
1.7464e-06
1.74391e-06
1.74041e-06
1.74039e-06
1.7404e-06
1.7404e-06
1.74039e-06
1.74041e-06
1.74472e-06
1.74475e-06
1.74409e-06
1.74042e-06
1.74039e-06
1.74039e-06
1.74039e-06
1.74039e-06
1.74042e-06
1.74472e-06
1.74672e-06
1.74618e-06
1.74378e-06
1.74042e-06
1.74041e-06
1.74041e-06
1.74042e-06
1.74447e-06
1.74472e-06
1.74666e-06
1.74645e-06
1.74459e-06
1.74467e-06
1.74474e-06
1.74472e-06
1.74472e-06
1.74472e-06
1.74666e-06
1.74663e-06
1.74641e-06
1.74475e-06
1.74672e-06
1.74666e-06
1.72767e-06
1.7275e-06
1.72733e-06
1.7252e-06
1.72508e-06
1.725e-06
1.72518e-06
1.72727e-06
1.72754e-06
1.72733e-06
1.72451e-06
1.72152e-06
1.72151e-06
1.72151e-06
1.72152e-06
1.72486e-06
1.72568e-06
1.7252e-06
1.72152e-06
1.72151e-06
1.72151e-06
1.72151e-06
1.72151e-06
1.72152e-06
1.72577e-06
1.72772e-06
1.72767e-06
1.72508e-06
1.72151e-06
1.72151e-06
1.72151e-06
1.72151e-06
1.72151e-06
1.72151e-06
1.72585e-06
1.72751e-06
1.7275e-06
1.725e-06
1.72151e-06
1.72151e-06
1.72151e-06
1.72151e-06
1.72151e-06
1.72151e-06
1.72582e-06
1.72586e-06
1.72518e-06
1.72152e-06
1.72151e-06
1.72151e-06
1.72151e-06
1.72151e-06
1.72152e-06
1.72582e-06
1.72783e-06
1.72727e-06
1.72486e-06
1.72152e-06
1.72151e-06
1.72151e-06
1.72152e-06
1.72557e-06
1.72582e-06
1.72776e-06
1.72754e-06
1.72568e-06
1.72576e-06
1.72584e-06
1.72582e-06
1.72582e-06
1.72582e-06
1.72775e-06
1.72772e-06
1.72751e-06
1.72586e-06
1.72783e-06
1.72776e-06
1.70877e-06
1.70861e-06
1.70843e-06
1.7063e-06
1.70618e-06
1.70611e-06
1.70628e-06
1.70837e-06
1.70864e-06
1.70843e-06
1.70561e-06
1.70262e-06
1.70261e-06
1.70261e-06
1.70262e-06
1.70596e-06
1.70678e-06
1.7063e-06
1.70262e-06
1.70261e-06
1.70261e-06
1.70261e-06
1.70261e-06
1.70262e-06
1.70686e-06
1.70882e-06
1.70877e-06
1.70618e-06
1.70261e-06
1.70261e-06
1.70261e-06
1.70261e-06
1.70261e-06
1.70261e-06
1.70694e-06
1.70861e-06
1.70861e-06
1.70611e-06
1.70261e-06
1.70261e-06
1.70261e-06
1.70261e-06
1.70261e-06
1.70261e-06
1.70692e-06
1.70696e-06
1.70628e-06
1.70262e-06
1.70261e-06
1.70261e-06
1.70261e-06
1.70261e-06
1.70262e-06
1.70692e-06
1.70893e-06
1.70837e-06
1.70596e-06
1.70262e-06
1.70261e-06
1.70261e-06
1.70262e-06
1.70668e-06
1.70693e-06
1.70886e-06
1.70864e-06
1.70678e-06
1.70686e-06
1.70694e-06
1.70692e-06
1.70692e-06
1.70693e-06
1.70885e-06
1.70882e-06
1.70861e-06
1.70696e-06
1.70893e-06
1.70886e-06
1.68988e-06
1.68971e-06
1.68954e-06
1.6874e-06
1.68728e-06
1.68721e-06
1.68738e-06
1.68947e-06
1.68974e-06
1.68953e-06
1.68671e-06
1.68372e-06
1.68372e-06
1.68372e-06
1.68372e-06
1.68706e-06
1.68789e-06
1.6874e-06
1.68372e-06
1.68372e-06
1.68372e-06
1.68372e-06
1.68372e-06
1.68372e-06
1.68796e-06
1.68992e-06
1.68988e-06
1.68728e-06
1.68372e-06
1.68372e-06
1.68372e-06
1.68372e-06
1.68372e-06
1.68372e-06
1.68805e-06
1.68972e-06
1.68971e-06
1.68721e-06
1.68372e-06
1.68372e-06
1.68372e-06
1.68372e-06
1.68372e-06
1.68372e-06
1.68802e-06
1.68806e-06
1.68738e-06
1.68372e-06
1.68372e-06
1.68372e-06
1.68372e-06
1.68372e-06
1.68372e-06
1.68803e-06
1.69003e-06
1.68947e-06
1.68706e-06
1.68372e-06
1.68372e-06
1.68372e-06
1.68372e-06
1.68778e-06
1.68803e-06
1.68996e-06
1.68974e-06
1.68789e-06
1.68796e-06
1.68805e-06
1.68802e-06
1.68803e-06
1.68803e-06
1.68995e-06
1.68992e-06
1.68972e-06
1.68806e-06
1.69003e-06
1.68996e-06
1.67098e-06
1.67081e-06
1.67064e-06
1.6685e-06
1.66838e-06
1.66831e-06
1.66848e-06
1.67058e-06
1.67084e-06
1.67064e-06
1.66782e-06
1.66482e-06
1.66482e-06
1.66482e-06
1.66482e-06
1.66816e-06
1.66899e-06
1.6685e-06
1.66482e-06
1.66482e-06
1.66482e-06
1.66482e-06
1.66482e-06
1.66482e-06
1.66906e-06
1.67102e-06
1.67098e-06
1.66838e-06
1.66482e-06
1.66482e-06
1.66482e-06
1.66482e-06
1.66482e-06
1.66482e-06
1.66915e-06
1.67082e-06
1.67081e-06
1.66831e-06
1.66482e-06
1.66482e-06
1.66482e-06
1.66482e-06
1.66482e-06
1.66482e-06
1.66912e-06
1.66916e-06
1.66848e-06
1.66482e-06
1.66482e-06
1.66482e-06
1.66482e-06
1.66482e-06
1.66482e-06
1.66913e-06
1.67114e-06
1.67058e-06
1.66816e-06
1.66482e-06
1.66482e-06
1.66482e-06
1.66482e-06
1.66888e-06
1.66913e-06
1.67106e-06
1.67084e-06
1.66899e-06
1.66906e-06
1.66915e-06
1.66912e-06
1.66913e-06
1.66913e-06
1.67105e-06
1.67102e-06
1.67082e-06
1.66916e-06
1.67113e-06
1.67106e-06
1.65208e-06
1.65191e-06
1.65174e-06
1.6496e-06
1.64948e-06
1.64941e-06
1.64958e-06
1.65168e-06
1.65194e-06
1.65174e-06
1.64892e-06
1.64592e-06
1.64592e-06
1.64592e-06
1.64592e-06
1.64926e-06
1.65009e-06
1.6496e-06
1.64592e-06
1.64592e-06
1.64592e-06
1.64592e-06
1.64592e-06
1.64592e-06
1.65016e-06
1.65212e-06
1.65208e-06
1.64948e-06
1.64592e-06
1.64592e-06
1.64592e-06
1.64592e-06
1.64592e-06
1.64592e-06
1.65025e-06
1.65192e-06
1.65191e-06
1.64941e-06
1.64592e-06
1.64592e-06
1.64592e-06
1.64592e-06
1.64592e-06
1.64592e-06
1.65022e-06
1.65026e-06
1.64959e-06
1.64592e-06
1.64592e-06
1.64592e-06
1.64592e-06
1.64592e-06
1.64592e-06
1.65023e-06
1.65224e-06
1.65168e-06
1.64926e-06
1.64592e-06
1.64592e-06
1.64592e-06
1.64592e-06
1.64998e-06
1.65023e-06
1.65216e-06
1.65194e-06
1.65009e-06
1.65016e-06
1.65025e-06
1.65022e-06
1.65023e-06
1.65023e-06
1.65215e-06
1.65213e-06
1.65192e-06
1.65026e-06
1.65223e-06
1.65216e-06
1.63318e-06
1.63301e-06
1.63284e-06
1.6307e-06
1.63058e-06
1.63051e-06
1.63068e-06
1.63278e-06
1.63304e-06
1.63284e-06
1.63002e-06
1.62702e-06
1.62702e-06
1.62702e-06
1.62702e-06
1.63036e-06
1.63119e-06
1.6307e-06
1.62702e-06
1.62702e-06
1.62702e-06
1.62702e-06
1.62702e-06
1.62702e-06
1.63126e-06
1.63322e-06
1.63318e-06
1.63058e-06
1.62702e-06
1.62702e-06
1.62702e-06
1.62702e-06
1.62702e-06
1.62702e-06
1.63135e-06
1.63302e-06
1.63301e-06
1.63051e-06
1.62702e-06
1.62702e-06
1.62702e-06
1.62702e-06
1.62702e-06
1.62702e-06
1.63132e-06
1.63136e-06
1.63068e-06
1.62702e-06
1.62702e-06
1.62702e-06
1.62702e-06
1.62702e-06
1.62702e-06
1.63133e-06
1.63334e-06
1.63278e-06
1.63036e-06
1.62702e-06
1.62702e-06
1.62702e-06
1.62702e-06
1.63108e-06
1.63133e-06
1.63326e-06
1.63304e-06
1.63119e-06
1.63126e-06
1.63135e-06
1.63132e-06
1.63133e-06
1.63133e-06
1.63325e-06
1.63323e-06
1.63302e-06
1.63136e-06
1.63333e-06
1.63326e-06
1.61428e-06
1.61411e-06
1.61393e-06
1.6118e-06
1.61168e-06
1.61161e-06
1.61178e-06
1.61388e-06
1.61414e-06
1.61394e-06
1.61111e-06
1.60812e-06
1.60812e-06
1.60812e-06
1.60812e-06
1.61146e-06
1.61229e-06
1.6118e-06
1.60812e-06
1.60812e-06
1.60812e-06
1.60812e-06
1.60812e-06
1.60812e-06
1.61236e-06
1.61432e-06
1.61428e-06
1.61168e-06
1.60812e-06
1.60812e-06
1.60812e-06
1.60812e-06
1.60812e-06
1.60812e-06
1.61245e-06
1.61412e-06
1.61411e-06
1.61161e-06
1.60812e-06
1.60812e-06
1.60812e-06
1.60812e-06
1.60812e-06
1.60812e-06
1.61242e-06
1.61246e-06
1.61178e-06
1.60812e-06
1.60812e-06
1.60812e-06
1.60812e-06
1.60812e-06
1.60812e-06
1.61243e-06
1.61443e-06
1.61388e-06
1.61146e-06
1.60812e-06
1.60812e-06
1.60812e-06
1.60812e-06
1.61218e-06
1.61243e-06
1.61436e-06
1.61414e-06
1.61229e-06
1.61236e-06
1.61245e-06
1.61242e-06
1.61243e-06
1.61243e-06
1.61435e-06
1.61432e-06
1.61412e-06
1.61246e-06
1.61443e-06
1.61436e-06
1.59538e-06
1.59521e-06
1.59503e-06
1.5929e-06
1.59278e-06
1.59271e-06
1.59288e-06
1.59497e-06
1.59524e-06
1.59503e-06
1.59221e-06
1.58922e-06
1.58922e-06
1.58922e-06
1.58922e-06
1.59256e-06
1.59338e-06
1.5929e-06
1.58922e-06
1.58922e-06
1.58922e-06
1.58922e-06
1.58922e-06
1.58922e-06
1.59346e-06
1.59542e-06
1.59538e-06
1.59278e-06
1.58922e-06
1.58922e-06
1.58922e-06
1.58922e-06
1.58922e-06
1.58922e-06
1.59355e-06
1.59522e-06
1.59521e-06
1.59271e-06
1.58922e-06
1.58922e-06
1.58922e-06
1.58922e-06
1.58922e-06
1.58922e-06
1.59352e-06
1.59356e-06
1.59288e-06
1.58922e-06
1.58922e-06
1.58922e-06
1.58922e-06
1.58922e-06
1.58922e-06
1.59353e-06
1.59553e-06
1.59497e-06
1.59256e-06
1.58922e-06
1.58922e-06
1.58922e-06
1.58922e-06
1.59328e-06
1.59353e-06
1.59546e-06
1.59524e-06
1.59339e-06
1.59346e-06
1.59354e-06
1.59352e-06
1.59353e-06
1.59353e-06
1.59545e-06
1.59542e-06
1.59522e-06
1.59356e-06
1.59553e-06
1.59546e-06
1.57647e-06
1.57631e-06
1.57613e-06
1.574e-06
1.57388e-06
1.57381e-06
1.57398e-06
1.57607e-06
1.57634e-06
1.57613e-06
1.57331e-06
1.57031e-06
1.57031e-06
1.57031e-06
1.57031e-06
1.57366e-06
1.57448e-06
1.574e-06
1.57031e-06
1.57031e-06
1.57031e-06
1.57031e-06
1.57031e-06
1.57031e-06
1.57456e-06
1.57652e-06
1.57647e-06
1.57388e-06
1.57031e-06
1.57031e-06
1.57031e-06
1.57031e-06
1.57031e-06
1.57031e-06
1.57464e-06
1.57631e-06
1.57631e-06
1.57381e-06
1.57031e-06
1.57031e-06
1.57031e-06
1.57031e-06
1.57031e-06
1.57031e-06
1.57462e-06
1.57466e-06
1.57398e-06
1.57031e-06
1.57031e-06
1.57031e-06
1.57031e-06
1.57031e-06
1.57031e-06
1.57463e-06
1.57663e-06
1.57607e-06
1.57366e-06
1.57031e-06
1.57031e-06
1.57031e-06
1.57031e-06
1.57438e-06
1.57463e-06
1.57656e-06
1.57634e-06
1.57448e-06
1.57456e-06
1.57464e-06
1.57462e-06
1.57462e-06
1.57463e-06
1.57655e-06
1.57652e-06
1.57631e-06
1.57466e-06
1.57663e-06
1.57656e-06
1.55757e-06
1.55741e-06
1.55723e-06
1.5551e-06
1.55498e-06
1.55491e-06
1.55508e-06
1.55717e-06
1.55744e-06
1.55723e-06
1.55441e-06
1.55141e-06
1.55141e-06
1.55141e-06
1.55141e-06
1.55476e-06
1.55558e-06
1.5551e-06
1.55141e-06
1.55141e-06
1.55141e-06
1.55141e-06
1.55141e-06
1.55141e-06
1.55566e-06
1.55762e-06
1.55757e-06
1.55498e-06
1.55141e-06
1.55141e-06
1.55141e-06
1.55141e-06
1.55141e-06
1.55141e-06
1.55574e-06
1.55741e-06
1.55741e-06
1.55491e-06
1.55141e-06
1.55141e-06
1.55141e-06
1.55141e-06
1.55141e-06
1.55141e-06
1.55572e-06
1.55576e-06
1.55508e-06
1.55141e-06
1.55141e-06
1.55141e-06
1.55141e-06
1.55141e-06
1.55141e-06
1.55572e-06
1.55773e-06
1.55717e-06
1.55476e-06
1.55141e-06
1.55141e-06
1.55141e-06
1.55141e-06
1.55548e-06
1.55573e-06
1.55766e-06
1.55744e-06
1.55558e-06
1.55566e-06
1.55574e-06
1.55572e-06
1.55572e-06
1.55573e-06
1.55765e-06
1.55762e-06
1.55741e-06
1.55576e-06
1.55773e-06
1.55766e-06
1.53867e-06
1.5385e-06
1.53833e-06
1.5362e-06
1.53608e-06
1.536e-06
1.53618e-06
1.53827e-06
1.53854e-06
1.53833e-06
1.53551e-06
1.53251e-06
1.53251e-06
1.53251e-06
1.53251e-06
1.53586e-06
1.53668e-06
1.5362e-06
1.53251e-06
1.53251e-06
1.53251e-06
1.53251e-06
1.53251e-06
1.53251e-06
1.53676e-06
1.53872e-06
1.53867e-06
1.53608e-06
1.53251e-06
1.53251e-06
1.53251e-06
1.53251e-06
1.53251e-06
1.53251e-06
1.53684e-06
1.53851e-06
1.5385e-06
1.536e-06
1.53251e-06
1.53251e-06
1.53251e-06
1.53251e-06
1.53251e-06
1.53251e-06
1.53682e-06
1.53686e-06
1.53618e-06
1.53251e-06
1.53251e-06
1.53251e-06
1.53251e-06
1.53251e-06
1.53251e-06
1.53682e-06
1.53883e-06
1.53827e-06
1.53586e-06
1.53251e-06
1.53251e-06
1.53251e-06
1.53251e-06
1.53657e-06
1.53682e-06
1.53875e-06
1.53854e-06
1.53668e-06
1.53676e-06
1.53684e-06
1.53682e-06
1.53682e-06
1.53682e-06
1.53875e-06
1.53872e-06
1.53851e-06
1.53686e-06
1.53883e-06
1.53875e-06
1.51977e-06
1.5196e-06
1.51943e-06
1.5173e-06
1.51718e-06
1.5171e-06
1.51728e-06
1.51937e-06
1.51964e-06
1.51943e-06
1.51661e-06
1.51361e-06
1.51361e-06
1.51361e-06
1.51361e-06
1.51696e-06
1.51778e-06
1.5173e-06
1.51361e-06
1.51361e-06
1.51361e-06
1.51361e-06
1.51361e-06
1.51361e-06
1.51786e-06
1.51982e-06
1.51977e-06
1.51718e-06
1.51361e-06
1.51361e-06
1.51361e-06
1.51361e-06
1.51361e-06
1.51361e-06
1.51794e-06
1.51961e-06
1.5196e-06
1.5171e-06
1.51361e-06
1.51361e-06
1.51361e-06
1.51361e-06
1.51361e-06
1.51361e-06
1.51792e-06
1.51795e-06
1.51728e-06
1.51361e-06
1.51361e-06
1.51361e-06
1.51361e-06
1.51361e-06
1.51361e-06
1.51792e-06
1.51993e-06
1.51937e-06
1.51696e-06
1.51361e-06
1.51361e-06
1.51361e-06
1.51361e-06
1.51767e-06
1.51792e-06
1.51985e-06
1.51964e-06
1.51778e-06
1.51786e-06
1.51794e-06
1.51792e-06
1.51792e-06
1.51792e-06
1.51985e-06
1.51982e-06
1.51961e-06
1.51795e-06
1.51993e-06
1.51985e-06
1.50087e-06
1.5007e-06
1.50053e-06
1.49839e-06
1.49828e-06
1.4982e-06
1.49838e-06
1.50047e-06
1.50074e-06
1.50053e-06
1.49771e-06
1.49471e-06
1.49471e-06
1.49471e-06
1.49471e-06
1.49806e-06
1.49888e-06
1.49839e-06
1.49471e-06
1.49471e-06
1.49471e-06
1.49471e-06
1.49471e-06
1.49471e-06
1.49896e-06
1.50092e-06
1.50087e-06
1.49828e-06
1.49471e-06
1.49471e-06
1.49471e-06
1.49471e-06
1.49471e-06
1.49471e-06
1.49904e-06
1.50071e-06
1.5007e-06
1.4982e-06
1.49471e-06
1.49471e-06
1.49471e-06
1.49471e-06
1.49471e-06
1.49471e-06
1.49902e-06
1.49905e-06
1.49838e-06
1.49471e-06
1.49471e-06
1.49471e-06
1.49471e-06
1.49471e-06
1.49471e-06
1.49902e-06
1.50103e-06
1.50047e-06
1.49805e-06
1.49471e-06
1.49471e-06
1.49471e-06
1.49471e-06
1.49877e-06
1.49902e-06
1.50095e-06
1.50074e-06
1.49888e-06
1.49896e-06
1.49904e-06
1.49902e-06
1.49902e-06
1.49902e-06
1.50095e-06
1.50092e-06
1.50071e-06
1.49905e-06
1.50103e-06
1.50095e-06
1.48197e-06
1.4818e-06
1.48162e-06
1.47949e-06
1.47937e-06
1.4793e-06
1.47948e-06
1.48157e-06
1.48183e-06
1.48163e-06
1.47881e-06
1.47581e-06
1.47581e-06
1.47581e-06
1.47581e-06
1.47915e-06
1.47998e-06
1.47949e-06
1.47581e-06
1.47581e-06
1.47581e-06
1.47581e-06
1.47581e-06
1.47581e-06
1.48005e-06
1.48201e-06
1.48197e-06
1.47937e-06
1.47581e-06
1.47581e-06
1.47581e-06
1.47581e-06
1.47581e-06
1.47581e-06
1.48014e-06
1.48181e-06
1.4818e-06
1.4793e-06
1.47581e-06
1.47581e-06
1.47581e-06
1.47581e-06
1.47581e-06
1.47581e-06
1.48011e-06
1.48015e-06
1.47948e-06
1.47581e-06
1.47581e-06
1.47581e-06
1.47581e-06
1.47581e-06
1.47581e-06
1.48012e-06
1.48213e-06
1.48157e-06
1.47915e-06
1.47581e-06
1.47581e-06
1.47581e-06
1.47581e-06
1.47987e-06
1.48012e-06
1.48205e-06
1.48183e-06
1.47998e-06
1.48005e-06
1.48014e-06
1.48011e-06
1.48012e-06
1.48012e-06
1.48204e-06
1.48202e-06
1.48181e-06
1.48015e-06
1.48212e-06
1.48205e-06
1.46307e-06
1.4629e-06
1.46272e-06
1.46059e-06
1.46047e-06
1.4604e-06
1.46057e-06
1.46266e-06
1.46293e-06
1.46272e-06
1.4599e-06
1.45691e-06
1.45691e-06
1.45691e-06
1.45691e-06
1.46025e-06
1.46108e-06
1.46059e-06
1.45691e-06
1.45691e-06
1.45691e-06
1.45691e-06
1.45691e-06
1.45691e-06
1.46115e-06
1.46311e-06
1.46307e-06
1.46047e-06
1.45691e-06
1.45691e-06
1.45691e-06
1.45691e-06
1.45691e-06
1.45691e-06
1.46124e-06
1.46291e-06
1.4629e-06
1.4604e-06
1.45691e-06
1.45691e-06
1.45691e-06
1.45691e-06
1.45691e-06
1.45691e-06
1.46121e-06
1.46125e-06
1.46057e-06
1.45691e-06
1.45691e-06
1.45691e-06
1.45691e-06
1.45691e-06
1.45691e-06
1.46122e-06
1.46322e-06
1.46267e-06
1.46025e-06
1.45691e-06
1.45691e-06
1.45691e-06
1.45691e-06
1.46097e-06
1.46122e-06
1.46315e-06
1.46293e-06
1.46108e-06
1.46115e-06
1.46124e-06
1.46121e-06
1.46122e-06
1.46122e-06
1.46314e-06
1.46311e-06
1.46291e-06
1.46125e-06
1.46322e-06
1.46315e-06
1.44416e-06
1.444e-06
1.44382e-06
1.44169e-06
1.44157e-06
1.4415e-06
1.44167e-06
1.44376e-06
1.44403e-06
1.44382e-06
1.441e-06
1.438e-06
1.438e-06
1.438e-06
1.438e-06
1.44135e-06
1.44217e-06
1.44169e-06
1.438e-06
1.438e-06
1.438e-06
1.438e-06
1.438e-06
1.438e-06
1.44225e-06
1.44421e-06
1.44416e-06
1.44157e-06
1.438e-06
1.438e-06
1.438e-06
1.438e-06
1.438e-06
1.438e-06
1.44233e-06
1.444e-06
1.444e-06
1.4415e-06
1.438e-06
1.438e-06
1.438e-06
1.438e-06
1.438e-06
1.438e-06
1.44231e-06
1.44235e-06
1.44167e-06
1.438e-06
1.438e-06
1.438e-06
1.438e-06
1.438e-06
1.438e-06
1.44232e-06
1.44432e-06
1.44376e-06
1.44135e-06
1.438e-06
1.438e-06
1.438e-06
1.438e-06
1.44207e-06
1.44232e-06
1.44425e-06
1.44403e-06
1.44217e-06
1.44225e-06
1.44233e-06
1.44231e-06
1.44232e-06
1.44232e-06
1.44424e-06
1.44421e-06
1.44401e-06
1.44235e-06
1.44432e-06
1.44425e-06
1.42526e-06
1.4251e-06
1.42492e-06
1.42279e-06
1.42267e-06
1.4226e-06
1.42277e-06
1.42486e-06
1.42513e-06
1.42492e-06
1.4221e-06
1.4191e-06
1.4191e-06
1.4191e-06
1.4191e-06
1.42245e-06
1.42327e-06
1.42279e-06
1.4191e-06
1.4191e-06
1.4191e-06
1.4191e-06
1.4191e-06
1.4191e-06
1.42335e-06
1.42531e-06
1.42526e-06
1.42267e-06
1.4191e-06
1.4191e-06
1.4191e-06
1.4191e-06
1.4191e-06
1.4191e-06
1.42343e-06
1.4251e-06
1.4251e-06
1.4226e-06
1.4191e-06
1.4191e-06
1.4191e-06
1.4191e-06
1.4191e-06
1.4191e-06
1.42341e-06
1.42345e-06
1.42277e-06
1.4191e-06
1.4191e-06
1.4191e-06
1.4191e-06
1.4191e-06
1.4191e-06
1.42341e-06
1.42542e-06
1.42486e-06
1.42245e-06
1.4191e-06
1.4191e-06
1.4191e-06
1.4191e-06
1.42317e-06
1.42342e-06
1.42535e-06
1.42513e-06
1.42327e-06
1.42335e-06
1.42343e-06
1.42341e-06
1.42341e-06
1.42342e-06
1.42534e-06
1.42531e-06
1.4251e-06
1.42345e-06
1.42542e-06
1.42535e-06
1.40636e-06
1.40619e-06
1.40602e-06
1.40389e-06
1.40377e-06
1.40369e-06
1.40387e-06
1.40596e-06
1.40623e-06
1.40602e-06
1.4032e-06
1.4002e-06
1.4002e-06
1.4002e-06
1.4002e-06
1.40355e-06
1.40437e-06
1.40389e-06
1.4002e-06
1.4002e-06
1.4002e-06
1.4002e-06
1.4002e-06
1.4002e-06
1.40445e-06
1.40641e-06
1.40636e-06
1.40377e-06
1.4002e-06
1.4002e-06
1.4002e-06
1.4002e-06
1.4002e-06
1.4002e-06
1.40453e-06
1.4062e-06
1.40619e-06
1.40369e-06
1.4002e-06
1.4002e-06
1.4002e-06
1.4002e-06
1.4002e-06
1.4002e-06
1.40451e-06
1.40455e-06
1.40387e-06
1.4002e-06
1.4002e-06
1.4002e-06
1.4002e-06
1.4002e-06
1.4002e-06
1.40451e-06
1.40652e-06
1.40596e-06
1.40355e-06
1.4002e-06
1.4002e-06
1.4002e-06
1.4002e-06
1.40427e-06
1.40452e-06
1.40645e-06
1.40623e-06
1.40437e-06
1.40445e-06
1.40453e-06
1.40451e-06
1.40451e-06
1.40452e-06
1.40644e-06
1.40641e-06
1.4062e-06
1.40455e-06
1.40652e-06
1.40645e-06
1.38746e-06
1.38729e-06
1.38712e-06
1.38499e-06
1.38487e-06
1.38479e-06
1.38497e-06
1.38706e-06
1.38733e-06
1.38712e-06
1.3843e-06
1.3813e-06
1.3813e-06
1.3813e-06
1.3813e-06
1.38465e-06
1.38547e-06
1.38499e-06
1.3813e-06
1.3813e-06
1.3813e-06
1.3813e-06
1.3813e-06
1.3813e-06
1.38555e-06
1.38751e-06
1.38746e-06
1.38487e-06
1.3813e-06
1.3813e-06
1.3813e-06
1.3813e-06
1.3813e-06
1.3813e-06
1.38563e-06
1.3873e-06
1.38729e-06
1.38479e-06
1.3813e-06
1.3813e-06
1.3813e-06
1.3813e-06
1.3813e-06
1.3813e-06
1.38561e-06
1.38565e-06
1.38497e-06
1.3813e-06
1.3813e-06
1.3813e-06
1.3813e-06
1.3813e-06
1.3813e-06
1.38561e-06
1.38762e-06
1.38706e-06
1.38465e-06
1.3813e-06
1.3813e-06
1.3813e-06
1.3813e-06
1.38536e-06
1.38561e-06
1.38754e-06
1.38733e-06
1.38547e-06
1.38555e-06
1.38563e-06
1.38561e-06
1.38561e-06
1.38561e-06
1.38754e-06
1.38751e-06
1.3873e-06
1.38565e-06
1.38762e-06
1.38754e-06
1.36856e-06
1.36839e-06
1.36822e-06
1.36609e-06
1.36597e-06
1.36589e-06
1.36607e-06
1.36816e-06
1.36843e-06
1.36822e-06
1.3654e-06
1.3624e-06
1.3624e-06
1.3624e-06
1.3624e-06
1.36575e-06
1.36657e-06
1.36609e-06
1.3624e-06
1.3624e-06
1.3624e-06
1.3624e-06
1.3624e-06
1.3624e-06
1.36665e-06
1.36861e-06
1.36856e-06
1.36597e-06
1.3624e-06
1.3624e-06
1.3624e-06
1.3624e-06
1.3624e-06
1.3624e-06
1.36673e-06
1.3684e-06
1.36839e-06
1.36589e-06
1.3624e-06
1.3624e-06
1.3624e-06
1.3624e-06
1.3624e-06
1.3624e-06
1.36671e-06
1.36674e-06
1.36607e-06
1.3624e-06
1.3624e-06
1.3624e-06
1.3624e-06
1.3624e-06
1.3624e-06
1.36671e-06
1.36872e-06
1.36816e-06
1.36575e-06
1.3624e-06
1.3624e-06
1.3624e-06
1.3624e-06
1.36646e-06
1.36671e-06
1.36864e-06
1.36843e-06
1.36657e-06
1.36665e-06
1.36673e-06
1.36671e-06
1.36671e-06
1.36671e-06
1.36864e-06
1.36861e-06
1.3684e-06
1.36674e-06
1.36872e-06
1.36864e-06
1.34966e-06
1.34949e-06
1.34932e-06
1.34718e-06
1.34707e-06
1.34699e-06
1.34717e-06
1.34926e-06
1.34953e-06
1.34932e-06
1.3465e-06
1.3435e-06
1.3435e-06
1.3435e-06
1.3435e-06
1.34684e-06
1.34767e-06
1.34718e-06
1.3435e-06
1.3435e-06
1.3435e-06
1.3435e-06
1.3435e-06
1.3435e-06
1.34775e-06
1.3497e-06
1.34966e-06
1.34707e-06
1.3435e-06
1.3435e-06
1.3435e-06
1.3435e-06
1.3435e-06
1.3435e-06
1.34783e-06
1.3495e-06
1.34949e-06
1.34699e-06
1.3435e-06
1.3435e-06
1.3435e-06
1.3435e-06
1.3435e-06
1.3435e-06
1.34781e-06
1.34784e-06
1.34717e-06
1.3435e-06
1.3435e-06
1.3435e-06
1.3435e-06
1.3435e-06
1.3435e-06
1.34781e-06
1.34982e-06
1.34926e-06
1.34684e-06
1.3435e-06
1.3435e-06
1.3435e-06
1.3435e-06
1.34756e-06
1.34781e-06
1.34974e-06
1.34953e-06
1.34767e-06
1.34775e-06
1.34783e-06
1.3478e-06
1.34781e-06
1.34781e-06
1.34974e-06
1.34971e-06
1.3495e-06
1.34784e-06
1.34982e-06
1.34974e-06
1.33076e-06
1.33059e-06
1.33041e-06
1.32828e-06
1.32816e-06
1.32809e-06
1.32826e-06
1.33036e-06
1.33062e-06
1.33041e-06
1.32759e-06
1.3246e-06
1.3246e-06
1.3246e-06
1.3246e-06
1.32794e-06
1.32876e-06
1.32828e-06
1.3246e-06
1.3246e-06
1.3246e-06
1.3246e-06
1.3246e-06
1.3246e-06
1.32884e-06
1.3308e-06
1.33076e-06
1.32816e-06
1.3246e-06
1.3246e-06
1.3246e-06
1.3246e-06
1.3246e-06
1.3246e-06
1.32893e-06
1.3306e-06
1.33059e-06
1.32809e-06
1.3246e-06
1.3246e-06
1.3246e-06
1.3246e-06
1.3246e-06
1.3246e-06
1.3289e-06
1.32894e-06
1.32826e-06
1.3246e-06
1.3246e-06
1.3246e-06
1.3246e-06
1.3246e-06
1.3246e-06
1.32891e-06
1.33091e-06
1.33036e-06
1.32794e-06
1.3246e-06
1.3246e-06
1.3246e-06
1.3246e-06
1.32866e-06
1.32891e-06
1.33084e-06
1.33062e-06
1.32877e-06
1.32884e-06
1.32892e-06
1.3289e-06
1.32891e-06
1.32891e-06
1.33083e-06
1.3308e-06
1.3306e-06
1.32894e-06
1.33091e-06
1.33084e-06
1.31185e-06
1.31168e-06
1.31151e-06
1.30938e-06
1.30926e-06
1.30918e-06
1.30936e-06
1.31145e-06
1.31172e-06
1.31151e-06
1.30869e-06
1.30569e-06
1.30569e-06
1.30569e-06
1.30569e-06
1.30904e-06
1.30986e-06
1.30938e-06
1.30569e-06
1.30569e-06
1.30569e-06
1.30569e-06
1.30569e-06
1.30569e-06
1.30994e-06
1.3119e-06
1.31185e-06
1.30926e-06
1.30569e-06
1.30569e-06
1.30569e-06
1.30569e-06
1.30569e-06
1.30569e-06
1.31002e-06
1.31169e-06
1.31168e-06
1.30918e-06
1.30569e-06
1.30569e-06
1.30569e-06
1.30569e-06
1.30569e-06
1.30569e-06
1.31e-06
1.31004e-06
1.30936e-06
1.30569e-06
1.30569e-06
1.30569e-06
1.30569e-06
1.30569e-06
1.30569e-06
1.31e-06
1.31201e-06
1.31145e-06
1.30904e-06
1.30569e-06
1.30569e-06
1.30569e-06
1.30569e-06
1.30975e-06
1.31e-06
1.31194e-06
1.31172e-06
1.30986e-06
1.30994e-06
1.31002e-06
1.31e-06
1.31e-06
1.31e-06
1.31193e-06
1.3119e-06
1.31169e-06
1.31004e-06
1.31201e-06
1.31193e-06
1.29295e-06
1.29278e-06
1.29261e-06
1.29047e-06
1.29035e-06
1.29028e-06
1.29046e-06
1.29255e-06
1.29281e-06
1.29261e-06
1.28979e-06
1.28679e-06
1.28679e-06
1.28679e-06
1.28679e-06
1.29013e-06
1.29096e-06
1.29047e-06
1.28679e-06
1.28679e-06
1.28679e-06
1.28679e-06
1.28679e-06
1.28679e-06
1.29103e-06
1.29299e-06
1.29295e-06
1.29035e-06
1.28679e-06
1.28679e-06
1.28679e-06
1.28679e-06
1.28679e-06
1.28679e-06
1.29112e-06
1.29279e-06
1.29278e-06
1.29028e-06
1.28679e-06
1.28679e-06
1.28679e-06
1.28679e-06
1.28679e-06
1.28679e-06
1.29109e-06
1.29113e-06
1.29046e-06
1.28679e-06
1.28679e-06
1.28679e-06
1.28679e-06
1.28679e-06
1.28679e-06
1.2911e-06
1.29311e-06
1.29255e-06
1.29013e-06
1.28679e-06
1.28679e-06
1.28679e-06
1.28679e-06
1.29085e-06
1.2911e-06
1.29303e-06
1.29281e-06
1.29096e-06
1.29103e-06
1.29112e-06
1.29109e-06
1.2911e-06
1.2911e-06
1.29303e-06
1.293e-06
1.29279e-06
1.29113e-06
1.29311e-06
1.29303e-06
1.27404e-06
1.27387e-06
1.2737e-06
1.27157e-06
1.27145e-06
1.27137e-06
1.27155e-06
1.27364e-06
1.27391e-06
1.2737e-06
1.27088e-06
1.26788e-06
1.26788e-06
1.26788e-06
1.26788e-06
1.27123e-06
1.27205e-06
1.27157e-06
1.26788e-06
1.26788e-06
1.26788e-06
1.26788e-06
1.26788e-06
1.26788e-06
1.27213e-06
1.27409e-06
1.27404e-06
1.27145e-06
1.26788e-06
1.26788e-06
1.26788e-06
1.26788e-06
1.26788e-06
1.26788e-06
1.27221e-06
1.27388e-06
1.27387e-06
1.27137e-06
1.26788e-06
1.26788e-06
1.26788e-06
1.26788e-06
1.26788e-06
1.26788e-06
1.27219e-06
1.27223e-06
1.27155e-06
1.26788e-06
1.26788e-06
1.26788e-06
1.26788e-06
1.26788e-06
1.26788e-06
1.27219e-06
1.2742e-06
1.27364e-06
1.27123e-06
1.26788e-06
1.26788e-06
1.26788e-06
1.26788e-06
1.27194e-06
1.27219e-06
1.27413e-06
1.27391e-06
1.27205e-06
1.27213e-06
1.27221e-06
1.27219e-06
1.27219e-06
1.27219e-06
1.27412e-06
1.27409e-06
1.27388e-06
1.27223e-06
1.2742e-06
1.27413e-06
1.25514e-06
1.25497e-06
1.2548e-06
1.25266e-06
1.25254e-06
1.25247e-06
1.25265e-06
1.25474e-06
1.255e-06
1.2548e-06
1.25197e-06
1.24898e-06
1.24898e-06
1.24898e-06
1.24898e-06
1.25232e-06
1.25315e-06
1.25266e-06
1.24898e-06
1.24898e-06
1.24898e-06
1.24898e-06
1.24898e-06
1.24898e-06
1.25322e-06
1.25518e-06
1.25514e-06
1.25254e-06
1.24898e-06
1.24898e-06
1.24898e-06
1.24898e-06
1.24898e-06
1.24898e-06
1.25331e-06
1.25498e-06
1.25497e-06
1.25247e-06
1.24898e-06
1.24898e-06
1.24898e-06
1.24898e-06
1.24898e-06
1.24898e-06
1.25328e-06
1.25332e-06
1.25264e-06
1.24898e-06
1.24898e-06
1.24898e-06
1.24898e-06
1.24898e-06
1.24898e-06
1.25329e-06
1.2553e-06
1.25474e-06
1.25232e-06
1.24898e-06
1.24898e-06
1.24898e-06
1.24898e-06
1.25304e-06
1.25329e-06
1.25522e-06
1.255e-06
1.25315e-06
1.25322e-06
1.25331e-06
1.25328e-06
1.25329e-06
1.25329e-06
1.25522e-06
1.25519e-06
1.25498e-06
1.25332e-06
1.2553e-06
1.25522e-06
1.23623e-06
1.23606e-06
1.23589e-06
1.23376e-06
1.23364e-06
1.23356e-06
1.23374e-06
1.23583e-06
1.2361e-06
1.23589e-06
1.23307e-06
1.23007e-06
1.23007e-06
1.23007e-06
1.23007e-06
1.23342e-06
1.23424e-06
1.23376e-06
1.23007e-06
1.23007e-06
1.23007e-06
1.23007e-06
1.23007e-06
1.23007e-06
1.23432e-06
1.23628e-06
1.23623e-06
1.23364e-06
1.23007e-06
1.23007e-06
1.23007e-06
1.23007e-06
1.23007e-06
1.23007e-06
1.2344e-06
1.23607e-06
1.23606e-06
1.23356e-06
1.23007e-06
1.23007e-06
1.23007e-06
1.23007e-06
1.23007e-06
1.23007e-06
1.23438e-06
1.23442e-06
1.23374e-06
1.23007e-06
1.23007e-06
1.23007e-06
1.23007e-06
1.23007e-06
1.23007e-06
1.23438e-06
1.23639e-06
1.23583e-06
1.23342e-06
1.23007e-06
1.23007e-06
1.23007e-06
1.23007e-06
1.23413e-06
1.23438e-06
1.23632e-06
1.2361e-06
1.23424e-06
1.23432e-06
1.2344e-06
1.23438e-06
1.23438e-06
1.23438e-06
1.23631e-06
1.23628e-06
1.23607e-06
1.23442e-06
1.23639e-06
1.23632e-06
1.21733e-06