/*--------------------------------*- C++ -*----------------------------------*\
| =========                 |                                                 |
| \\      /  F ield         | OpenFOAM: The Open Source CFD Toolbox           |
|  \\    /   O peration     | Version:  v2012                                 |
|   \\  /    A nd           | Website:  www.openfoam.com                      |
|    \\/     M anipulation  |                                                 |
\*---------------------------------------------------------------------------*/
FoamFile
{
    version     2.0;
    format      ascii;
    class       volScalarField;
    location    "1000";
    object      epsilon;
}
// * * * * * * * * * * * * * * * * * * * * * * * * * * * * * * * * * * * * * //

dimensions      [0 2 -3 0 0 0 0];


internalField   nonuniform List<scalar> 
85864
(
4.19936e-07
8.85584e-07
8.71008e-07
1.13267e-06
3.70844e-07
8.45433e-07
8.52494e-07
1.27899e-06
3.37924e-07
9.11784e-07
9.77003e-07
1.27037e-06
3.87354e-07
9.7933e-07
1.00699e-06
1.15641e-06
4.28815e-07
9.93392e-07
9.56942e-07
1.18908e-06
4.18703e-07
9.91628e-07
9.42462e-07
1.26356e-06
4.13841e-07
9.85631e-07
9.84734e-07
1.27657e-06
4.35467e-07
1.00137e-06
1.03289e-06
1.27913e-06
4.61298e-07
1.0372e-06
1.04355e-06
1.29177e-06
4.77889e-07
1.05452e-06
1.04536e-06
1.305e-06
4.8978e-07
1.06373e-06
1.06041e-06
1.31299e-06
5.0105e-07
1.07921e-06
1.07973e-06
1.3241e-06
5.17593e-07
1.09064e-06
1.09118e-06
1.33604e-06
5.31647e-07
1.09993e-06
1.10027e-06
1.3448e-06
5.45904e-07
1.11318e-06
1.11338e-06
1.35567e-06
5.59513e-07
1.12382e-06
1.12349e-06
1.36339e-06
5.72178e-07
1.13315e-06
1.13359e-06
1.37205e-06
5.84341e-07
1.14239e-06
1.14257e-06
1.37931e-06
5.95167e-07
1.15035e-06
1.15008e-06
1.38636e-06
6.06102e-07
1.15803e-06
1.1581e-06
1.39341e-06
6.15583e-07
1.16322e-06
1.16345e-06
1.39799e-06
6.25168e-07
1.17051e-06
1.17056e-06
1.40442e-06
6.34335e-07
1.17637e-06
1.17644e-06
1.40933e-06
6.4107e-07
1.17898e-06
1.17914e-06
1.41184e-06
6.48504e-07
1.18379e-06
1.18367e-06
1.41607e-06
6.56904e-07
1.18947e-06
1.18955e-06
1.42198e-06
6.61343e-07
1.18992e-06
1.1901e-06
1.42183e-06
6.66368e-07
1.19182e-06
1.19188e-06
1.42379e-06
6.73398e-07
1.1969e-06
1.19685e-06
1.42968e-06
6.76531e-07
1.19625e-06
1.19632e-06
1.42855e-06
6.79167e-07
1.19529e-06
1.19544e-06
1.42779e-06
6.83831e-07
1.19872e-06
1.19879e-06
1.43178e-06
6.8665e-07
1.19869e-06
1.19866e-06
1.43172e-06
6.88015e-07
1.19654e-06
1.19664e-06
1.42962e-06
6.90199e-07
1.19657e-06
1.19661e-06
1.43081e-06
6.91438e-07
1.19576e-06
1.19588e-06
1.4299e-06
6.92776e-07
1.19433e-06
1.19442e-06
1.42896e-06
6.93451e-07
1.19321e-06
1.19313e-06
1.42904e-06
6.92671e-07
1.1896e-06
1.18972e-06
1.42516e-06
6.93541e-07
1.18898e-06
1.18901e-06
1.42528e-06
6.93473e-07
1.18636e-06
1.18661e-06
1.42418e-06
6.89794e-07
1.17927e-06
1.1792e-06
1.41557e-06
6.90764e-07
1.18092e-06
1.18093e-06
1.41809e-06
6.92579e-07
1.1812e-06
1.18163e-06
1.42099e-06
6.8809e-07
1.17296e-06
1.17284e-06
1.41225e-06
6.84748e-07
1.16823e-06
1.16805e-06
1.40642e-06
6.83912e-07
1.16575e-06
1.1659e-06
1.40531e-06
6.66127e-07
1.11005e-06
1.11041e-06
1.36371e-06
1.28626e-06
1.1738e-06
9.81551e-07
8.94574e-07
9.04329e-07
8.49092e-07
1.18982e-06
1.10723e-06
9.81246e-07
8.79624e-07
9.02133e-07
8.4924e-07
8.75685e-07
8.45452e-07
9.60743e-07
1.16094e-06
1.0965e-06
8.75069e-07
8.44113e-07
9.57917e-07
1.2539e-06
1.16615e-06
1.11739e-06
8.82396e-07
8.46319e-07
8.55045e-07
8.77331e-07
1.10931e-06
1.15381e-06
8.8024e-07
8.53466e-07
8.5503e-07
9.381e-07
9.81265e-07
8.91699e-07
9.90906e-07
1.10892e-06
1.23038e-06
9.78216e-07
9.51168e-07
9.89848e-07
1.27872e-06
1.12718e-06
1.22116e-06
8.59632e-07
8.97874e-07
9.43368e-07
9.61002e-07
1.1704e-06
1.24193e-06
8.60996e-07
9.63114e-07
9.47299e-07
1.00381e-06
9.6629e-07
9.66824e-07
9.01919e-07
1.25743e-06
1.2992e-06
9.67777e-07
1.01013e-06
9.03974e-07
1.15929e-06
1.24494e-06
1.28793e-06
9.68612e-07
9.78955e-07
1.00822e-06
1.00181e-06
1.2559e-06
1.27659e-06
9.72149e-07
1.00417e-06
1.00928e-06
9.74372e-07
8.93608e-07
9.92714e-07
9.12479e-07
1.29946e-06
1.24487e-06
8.95242e-07
9.6707e-07
9.10969e-07
1.17156e-06
1.28715e-06
1.24098e-06
1.00704e-06
1.00227e-06
9.80482e-07
9.94327e-07
1.2787e-06
1.26488e-06
1.00736e-06
9.63227e-07
9.77992e-07
9.423e-07
9.36035e-07
9.9294e-07
9.88804e-07
1.24189e-06
1.19986e-06
9.33966e-07
9.4182e-07
9.8518e-07
1.25307e-06
1.24084e-06
1.23751e-06
9.75832e-07
9.90975e-07
9.75842e-07
9.82913e-07
1.26557e-06
1.24608e-06
9.72962e-07
9.41712e-07
9.7336e-07
9.67173e-07
1.00102e-06
9.8636e-07
1.01277e-06
1.2014e-06
1.22449e-06
9.97077e-07
9.71481e-07
1.00983e-06
1.27484e-06
1.24421e-06
1.26723e-06
9.8312e-07
9.82334e-07
1.00681e-06
9.92556e-07
1.24707e-06
1.24937e-06
9.81831e-07
9.8139e-07
1.00877e-06
1.02203e-06
1.01232e-06
9.92542e-07
1.0115e-06
1.23582e-06
1.28248e-06
1.01005e-06
1.02331e-06
1.01257e-06
1.27561e-06
1.27472e-06
1.29311e-06
1.01457e-06
1.00173e-06
1.0355e-06
1.02993e-06
1.25604e-06
1.28355e-06
1.01726e-06
1.03256e-06
1.03759e-06
1.04434e-06
1.01341e-06
1.02874e-06
1.02828e-06
1.2921e-06
1.30267e-06
1.01634e-06
1.04319e-06
1.02974e-06
1.28737e-06
1.29779e-06
1.30445e-06
1.04049e-06
1.03847e-06
1.05174e-06
1.05279e-06
1.29172e-06
1.30525e-06
1.04161e-06
1.04464e-06
1.05055e-06
1.04467e-06
1.03375e-06
1.05236e-06
1.04891e-06
1.30424e-06
1.29825e-06
1.03454e-06
1.04408e-06
1.0481e-06
1.30112e-06
1.30776e-06
1.31206e-06
1.05474e-06
1.05476e-06
1.06202e-06
1.06095e-06
1.30814e-06
1.31105e-06
1.05333e-06
1.04558e-06
1.0611e-06
1.05615e-06
1.05275e-06
1.06075e-06
1.06044e-06
1.30018e-06
1.30552e-06
1.05159e-06
1.05593e-06
1.05957e-06
1.30972e-06
1.31512e-06
1.31959e-06
1.06406e-06
1.06397e-06
1.07156e-06
1.07523e-06
1.3144e-06
1.32268e-06
1.06344e-06
1.06065e-06
1.07158e-06
1.07497e-06
1.06289e-06
1.07516e-06
1.07288e-06
1.3098e-06
1.32179e-06
1.06231e-06
1.07503e-06
1.07293e-06
1.31997e-06
1.32315e-06
1.33125e-06
1.07508e-06
1.07918e-06
1.08725e-06
1.08844e-06
1.32711e-06
1.33389e-06
1.07516e-06
1.07955e-06
1.08726e-06
1.08904e-06
1.07688e-06
1.08846e-06
1.08775e-06
1.32673e-06
1.33418e-06
1.07699e-06
1.08915e-06
1.08777e-06
1.33242e-06
1.33543e-06
1.34155e-06
1.09087e-06
1.09075e-06
1.09886e-06
1.09742e-06
1.33685e-06
1.34011e-06
1.09084e-06
1.0912e-06
1.09873e-06
1.09768e-06
1.09066e-06
1.09719e-06
1.09896e-06
1.33717e-06
1.34051e-06
1.09064e-06
1.09751e-06
1.09884e-06
1.34131e-06
1.3446e-06
1.35036e-06
1.10126e-06
1.10007e-06
1.11005e-06
1.10978e-06
1.34328e-06
1.35013e-06
1.10114e-06
1.10036e-06
1.10997e-06
1.11006e-06
1.102e-06
1.10984e-06
1.11115e-06
1.34371e-06
1.35058e-06
1.10189e-06
1.11017e-06
1.11108e-06
1.35205e-06
1.35423e-06
1.36083e-06
1.11324e-06
1.11318e-06
1.12146e-06
1.12174e-06
1.35413e-06
1.36073e-06
1.11318e-06
1.11331e-06
1.12132e-06
1.12137e-06
1.11382e-06
1.12151e-06
1.121e-06
1.3545e-06
1.36052e-06
1.11376e-06
1.12121e-06
1.12087e-06
1.36033e-06
1.36395e-06
1.36843e-06
1.12378e-06
1.12405e-06
1.13099e-06
1.13081e-06
1.36389e-06
1.36828e-06
1.12362e-06
1.12366e-06
1.13086e-06
1.13099e-06
1.12347e-06
1.13072e-06
1.13122e-06
1.3636e-06
1.36841e-06
1.12331e-06
1.13094e-06
1.13109e-06
1.36868e-06
1.37176e-06
1.377e-06
1.13355e-06
1.13322e-06
1.14052e-06
1.14043e-06
1.3715e-06
1.37657e-06
1.13346e-06
1.13362e-06
1.14049e-06
1.14076e-06
1.13366e-06
1.14027e-06
1.14003e-06
1.3718e-06
1.37713e-06
1.13357e-06
1.14066e-06
1.13999e-06
1.37642e-06
1.38e-06
1.38319e-06
1.14248e-06
1.14259e-06
1.1481e-06
1.14845e-06
1.37971e-06
1.38363e-06
1.14243e-06
1.14269e-06
1.14796e-06
1.14813e-06
1.14201e-06
1.14831e-06
1.14832e-06
1.38011e-06
1.38329e-06
1.14196e-06
1.14803e-06
1.14819e-06
1.38327e-06
1.38607e-06
1.39022e-06
1.15012e-06
1.15045e-06
1.1562e-06
1.15642e-06
1.38654e-06
1.39035e-06
1.14998e-06
1.15015e-06
1.15608e-06
1.15637e-06
1.15055e-06
1.15638e-06
1.15656e-06
1.38618e-06
1.39034e-06
1.15042e-06
1.15638e-06
1.15644e-06
1.39062e-06
1.39314e-06
1.39554e-06
1.15796e-06
1.15809e-06
1.16233e-06
1.16203e-06
1.39318e-06
1.39524e-06
1.15785e-06
1.15811e-06
1.16223e-06
1.16219e-06
1.15813e-06
1.16187e-06
1.1622e-06
1.39324e-06
1.39545e-06
1.15802e-06
1.16208e-06
1.16211e-06
1.39545e-06
1.39807e-06
1.40119e-06
1.16375e-06
1.16338e-06
1.16872e-06
1.16861e-06
1.39771e-06
1.40081e-06
1.16367e-06
1.16356e-06
1.16865e-06
1.1687e-06
1.1637e-06
1.16853e-06
1.169e-06
1.39792e-06
1.40098e-06
1.16362e-06
1.16866e-06
1.16893e-06
1.40141e-06
1.40415e-06
1.4071e-06
1.17054e-06
1.17057e-06
1.17524e-06
1.17544e-06
1.40386e-06
1.40731e-06
1.17046e-06
1.17059e-06
1.17511e-06
1.17539e-06
1.1708e-06
1.17531e-06
1.17515e-06
1.40401e-06
1.40734e-06
1.17072e-06
1.17532e-06
1.17503e-06
1.40709e-06
1.40944e-06
1.40962e-06
1.17631e-06
1.17651e-06
1.17833e-06
1.1785e-06
1.40965e-06
1.40966e-06
1.17619e-06
1.17653e-06
1.17826e-06
1.17864e-06
1.17619e-06
1.17837e-06
1.17846e-06
1.40969e-06
1.40987e-06
1.17608e-06
1.17858e-06
1.17838e-06
1.40969e-06
1.41171e-06
1.41323e-06
1.17897e-06
1.17909e-06
1.1824e-06
1.18226e-06
1.41173e-06
1.41311e-06
1.17891e-06
1.17919e-06
1.1823e-06
1.18215e-06
1.17916e-06
1.18217e-06
1.18248e-06
1.41191e-06
1.41307e-06
1.17909e-06
1.1821e-06
1.18238e-06
1.41334e-06
1.41602e-06
1.41959e-06
1.18406e-06
1.18389e-06
1.18862e-06
1.18865e-06
1.41586e-06
1.41945e-06
1.18394e-06
1.18374e-06
1.1885e-06
1.18862e-06
1.18408e-06
1.18853e-06
1.18864e-06
1.41576e-06
1.41942e-06
1.18398e-06
1.18853e-06
1.18854e-06
1.41956e-06
1.42196e-06
1.42008e-06
1.18946e-06
1.1896e-06
1.18995e-06
1.19023e-06
1.42192e-06
1.42032e-06
1.18936e-06
1.18963e-06
1.18988e-06
1.19034e-06
1.18953e-06
1.19012e-06
1.19013e-06
1.42195e-06
1.42053e-06
1.18944e-06
1.19029e-06
1.19005e-06
1.42028e-06
1.42163e-06
1.42126e-06
1.18978e-06
1.19002e-06
1.19082e-06
1.19049e-06
1.42186e-06
1.42098e-06
1.18971e-06
1.19014e-06
1.19074e-06
1.19058e-06
1.18996e-06
1.19039e-06
1.19071e-06
1.42206e-06
1.42112e-06
1.18988e-06
1.19051e-06
1.19063e-06
1.42122e-06
1.42386e-06
1.42721e-06
1.19234e-06
1.19194e-06
1.19615e-06
1.19612e-06
1.42351e-06
1.42694e-06
1.19226e-06
1.19199e-06
1.19605e-06
1.19604e-06
1.19223e-06
1.19599e-06
1.19624e-06
1.42362e-06
1.42691e-06
1.19215e-06
1.19595e-06
1.19615e-06
1.42723e-06
1.42957e-06
1.42683e-06
1.19685e-06
1.19702e-06
1.1966e-06
1.19709e-06
1.42946e-06
1.42719e-06
1.19675e-06
1.19692e-06
1.1965e-06
1.19703e-06
1.19705e-06
1.19702e-06
1.19691e-06
1.4294e-06
1.4272e-06
1.19695e-06
1.19703e-06
1.19679e-06
1.4271e-06
1.4283e-06
1.42588e-06
1.19603e-06
1.19632e-06
1.19554e-06
1.19529e-06
1.42864e-06
1.42526e-06
1.19594e-06
1.19632e-06
1.19546e-06
1.19538e-06
1.1962e-06
1.19516e-06
1.19542e-06
1.42866e-06
1.42546e-06
1.1961e-06
1.1953e-06
1.19534e-06
1.42556e-06
1.42805e-06
1.4293e-06
1.19589e-06
1.19543e-06
1.19806e-06
1.19811e-06
1.42744e-06
1.42909e-06
1.19582e-06
1.19556e-06
1.19798e-06
1.19818e-06
1.19567e-06
1.19799e-06
1.19822e-06
1.42765e-06
1.42924e-06
1.19559e-06
1.19808e-06
1.19815e-06
1.4294e-06
1.43155e-06
1.42987e-06
1.19858e-06
1.19883e-06
1.19878e-06
1.19931e-06
1.43153e-06
1.43045e-06
1.1985e-06
1.19886e-06
1.19868e-06
1.19924e-06
1.19885e-06
1.19925e-06
1.19913e-06
1.43165e-06
1.4304e-06
1.19878e-06
1.19924e-06
1.19903e-06
1.43024e-06
1.43139e-06
1.42808e-06
1.19829e-06
1.19875e-06
1.19707e-06
1.19693e-06
1.43191e-06
1.42798e-06
1.19819e-06
1.19865e-06
1.19698e-06
1.19696e-06
1.19853e-06
1.19681e-06
1.197e-06
1.43187e-06
1.42804e-06
1.19842e-06
1.19688e-06
1.19691e-06
1.42799e-06
1.42978e-06
1.42897e-06
1.19692e-06
1.19667e-06
1.19683e-06
1.19665e-06
1.42954e-06
1.4285e-06
1.19684e-06
1.19673e-06
1.19676e-06
1.19669e-06
1.19681e-06
1.19652e-06
1.19686e-06
1.42961e-06
1.42859e-06
1.19673e-06
1.1966e-06
1.19679e-06
1.4289e-06
1.43083e-06
1.42813e-06
1.19681e-06
1.19669e-06
1.19594e-06
1.19633e-06
1.43039e-06
1.42843e-06
1.19673e-06
1.19669e-06
1.19584e-06
1.19631e-06
1.19686e-06
1.19625e-06
1.19618e-06
1.43047e-06
1.42852e-06
1.19679e-06
1.19629e-06
1.19607e-06
1.42836e-06
1.42969e-06
1.42737e-06
1.19552e-06
1.19585e-06
1.19473e-06
1.19466e-06
1.42996e-06
1.42718e-06
1.19544e-06
1.19591e-06
1.19466e-06
1.19474e-06
1.19566e-06
1.19453e-06
1.19465e-06
1.43005e-06
1.42743e-06
1.19557e-06
1.19465e-06
1.19458e-06
1.4271e-06
1.42925e-06
1.4272e-06
1.19463e-06
1.19447e-06
1.19405e-06
1.1939e-06
1.42894e-06
1.4271e-06
1.19456e-06
1.19453e-06
1.19394e-06
1.19379e-06
1.19454e-06
1.19378e-06
1.19417e-06
1.42916e-06
1.42693e-06
1.19447e-06
1.19371e-06
1.19407e-06
1.4276e-06
1.42864e-06
1.42348e-06
1.1932e-06
1.19329e-06
1.19009e-06
1.19037e-06
1.42857e-06
1.42372e-06
1.19308e-06
1.19316e-06
1.19002e-06
1.19044e-06
1.19363e-06
1.1903e-06
1.19028e-06
1.42842e-06
1.42385e-06
1.19351e-06
1.19041e-06
1.1902e-06
1.42375e-06
1.42491e-06
1.42343e-06
1.18946e-06
1.18969e-06
1.1891e-06
1.18899e-06
1.42515e-06
1.42321e-06
1.1894e-06
1.18977e-06
1.18901e-06
1.18901e-06
1.18953e-06
1.18884e-06
1.18889e-06
1.42529e-06
1.42327e-06
1.18946e-06
1.18889e-06
1.18881e-06
1.42313e-06
1.42557e-06
1.42277e-06
1.18937e-06
1.18915e-06
1.18851e-06
1.18838e-06
1.4253e-06
1.42257e-06
1.18927e-06
1.18914e-06
1.18843e-06
1.18848e-06
1.18917e-06
1.18825e-06
1.18864e-06
1.42535e-06
1.42275e-06
1.18908e-06
1.18839e-06
1.18854e-06
1.42297e-06
1.42395e-06
1.41382e-06
1.18641e-06
1.18645e-06
1.18e-06
1.18037e-06
1.42378e-06
1.41416e-06
1.18636e-06
1.18664e-06
1.17995e-06
1.18035e-06
1.18682e-06
1.18032e-06
1.1804e-06
1.42396e-06
1.4142e-06
1.18674e-06
1.18033e-06
1.18033e-06
1.41433e-06
1.41508e-06
1.41535e-06
1.17891e-06
1.17932e-06
1.17958e-06
1.17971e-06
1.41545e-06
1.41549e-06
1.17884e-06
1.17921e-06
1.17942e-06
1.17951e-06
1.17924e-06
1.17961e-06
1.17936e-06
1.41545e-06
1.41533e-06
1.17917e-06
1.17944e-06
1.17923e-06
1.41516e-06
1.41845e-06
1.42009e-06
1.1812e-06
1.18107e-06
1.1826e-06
1.18206e-06
1.41841e-06
1.41917e-06
1.18106e-06
1.18104e-06
1.18253e-06
1.18235e-06
1.18083e-06
1.18185e-06
1.18217e-06
1.41833e-06
1.41971e-06
1.1807e-06
1.18218e-06
1.1821e-06
1.41964e-06
1.42138e-06
1.41038e-06
1.182e-06
1.18141e-06
1.17389e-06
1.17422e-06
1.42047e-06
1.41059e-06
1.18197e-06
1.1818e-06
1.17384e-06
1.17421e-06
1.18177e-06
1.17419e-06
1.1746e-06
1.42102e-06
1.41066e-06
1.18173e-06
1.17421e-06
1.17454e-06
1.41118e-06
1.41139e-06
1.40455e-06
1.17233e-06
1.17294e-06
1.16807e-06
1.16857e-06
1.4117e-06
1.40533e-06
1.17226e-06
1.17279e-06
1.16795e-06
1.16831e-06
1.17318e-06
1.16853e-06
1.16816e-06
1.41172e-06
1.40501e-06
1.17309e-06
1.1683e-06
1.16804e-06
1.40488e-06
1.40626e-06
1.40432e-06
1.16796e-06
1.16831e-06
1.16644e-06
1.16599e-06
1.40694e-06
1.40352e-06
1.16783e-06
1.16809e-06
1.16633e-06
1.16605e-06
1.16785e-06
1.16577e-06
1.166e-06
1.40663e-06
1.40362e-06
1.16773e-06
1.16588e-06
1.1659e-06
1.40374e-06
1.40585e-06
1.38448e-06
1.16645e-06
1.16597e-06
1.1447e-06
1.14452e-06
1.40508e-06
1.38426e-06
1.16635e-06
1.16607e-06
1.1447e-06
1.1448e-06
1.16609e-06
1.14452e-06
1.14493e-06
1.40518e-06
1.3847e-06
1.16598e-06
1.14482e-06
1.14492e-06
1.38468e-06
1.36345e-06
1.11001e-06
1.10999e-06
1.36336e-06
1.11005e-06
1.11034e-06
6.65956e-07
6.66268e-07
6.66277e-07
1.11029e-06
1.36387e-06
1.11033e-06
4.13226e-06
9.34049e-06
4.1662e-06
9.28922e-06
1.84995e-05
1.83387e-05
4.12425e-06
9.34965e-06
4.16882e-06
9.28566e-06
3.78044e-07
3.62891e-07
3.62808e-07
3.87839e-07
3.36413e-07
3.37538e-07
4.01224e-07
2.1108e-06
3.53637e-06
6.0572e-07
8.65655e-07
2.1187e-06
3.48331e-06
5.9461e-07
1.85041e-05
1.82518e-05
2.09881e-06
5.99347e-07
3.50977e-06
8.54119e-07
2.11446e-06
5.89506e-07
3.43617e-06
5.2264e-06
5.23397e-06
1.1712e-06
5.28642e-06
5.28705e-06
4.09146e-06
9.19715e-06
4.09972e-06
9.16195e-06
1.82742e-05
1.82821e-05
4.09316e-06
9.18645e-06
4.09113e-06
9.15993e-06
3.28856e-07
3.36663e-07
4.14258e-07
3.39537e-07
3.291e-07
3.74464e-07
4.27553e-07
2.1524e-06
3.46467e-06
5.83273e-07
8.52071e-07
2.13633e-06
3.46501e-06
5.87074e-07
1.81872e-05
1.83438e-05
2.15107e-06
5.83197e-07
3.41427e-06
8.84137e-07
2.12427e-06
5.93585e-07
3.45379e-06
5.60303e-06
5.59942e-06
1.30565e-06
5.7351e-06
5.73452e-06
4.10677e-06
9.13238e-06
4.092e-06
9.1547e-06
1.83773e-05
1.85095e-05
4.12478e-06
9.14212e-06
4.10988e-06
9.16493e-06
3.41488e-07
3.92849e-07
4.23402e-07
3.69707e-07
3.87952e-07
4.30224e-07
3.77913e-07
2.14998e-06
3.46223e-06
6.22043e-07
9.3128e-07
2.1552e-06
3.4762e-06
6.32465e-07
1.8601e-05
1.87137e-05
2.17262e-06
6.50309e-07
3.53924e-06
9.96999e-07
2.17596e-06
6.6342e-07
3.56849e-06
5.75838e-06
5.77187e-06
1.21365e-06
5.63648e-06
5.65147e-06
4.16021e-06
9.26566e-06
4.14678e-06
9.31218e-06
1.86618e-05
1.87003e-05
4.15873e-06
9.26336e-06
4.15091e-06
9.30703e-06
4.01688e-07
4.33972e-07
3.67656e-07
4.24147e-07
4.26652e-07
4.20714e-07
3.57879e-07
2.16006e-06
3.52838e-06
6.58246e-07
9.86896e-07
2.15119e-06
3.55028e-06
6.636e-07
1.87835e-05
1.87492e-05
2.16486e-06
6.76655e-07
3.5958e-06
9.94113e-07
2.16456e-06
6.7464e-07
3.59415e-06
5.43025e-06
5.42933e-06
1.14355e-06
5.37404e-06
5.36337e-06
4.14816e-06
9.31317e-06
4.15891e-06
9.28309e-06
1.86556e-05
1.86118e-05
4.13966e-06
9.31266e-06
4.15197e-06
9.28384e-06
4.29174e-07
4.10933e-07
3.61818e-07
4.23174e-07
4.2824e-07
3.89075e-07
4.01711e-07
2.18635e-06
3.57248e-06
6.76225e-07
9.9357e-07
2.17815e-06
3.57357e-06
6.80385e-07
1.85526e-05
1.84603e-05
2.17612e-06
6.6467e-07
3.56607e-06
9.48917e-07
2.17277e-06
6.63115e-07
3.54328e-06
5.40684e-06
5.39464e-06
1.21667e-06
5.45598e-06
5.44925e-06
4.13256e-06
9.2387e-06
4.13644e-06
9.22993e-06
1.85727e-05
1.8566e-05
4.12368e-06
9.24055e-06
4.12633e-06
9.2328e-06
4.25354e-07
3.85593e-07
4.13495e-07
4.13472e-07
4.17845e-07
3.89184e-07
4.38126e-07
2.1884e-06
3.56623e-06
6.91972e-07
9.89899e-07
2.19063e-06
3.55396e-06
6.94607e-07
1.83839e-05
1.83941e-05
2.17539e-06
6.64166e-07
3.50811e-06
9.4731e-07
2.17694e-06
6.69582e-07
3.4923e-06
5.52225e-06
5.52235e-06
1.27092e-06
5.53977e-06
5.54061e-06
4.12856e-06
9.23327e-06
4.12863e-06
9.24771e-06
1.85275e-05
1.85149e-05
4.13469e-06
9.23971e-06
4.1271e-06
9.25598e-06
4.16407e-07
3.99784e-07
4.41528e-07
4.28802e-07
4.17688e-07
4.34608e-07
4.45112e-07
2.18119e-06
3.52854e-06
6.98084e-07
9.85677e-07
2.18246e-06
3.51667e-06
6.99279e-07
1.84825e-05
1.85716e-05
2.18395e-06
6.92511e-07
3.49446e-06
9.98097e-07
2.17736e-06
7.0156e-07
3.51417e-06
5.54565e-06
5.54818e-06
1.27373e-06
5.54096e-06
5.54788e-06
4.14615e-06
9.27898e-06
4.13644e-06
9.29826e-06
1.85392e-05
1.85941e-05
4.15489e-06
9.28611e-06
4.14846e-06
9.30144e-06
4.22868e-07
4.45453e-07
4.46358e-07
4.55481e-07
4.45645e-07
4.66794e-07
4.53711e-07
2.19429e-06
3.51637e-06
7.10756e-07
1.01049e-06
2.18631e-06
3.52893e-06
7.17405e-07
1.86573e-05
1.86834e-05
2.20524e-06
7.29462e-07
3.55613e-06
1.03886e-06
2.19812e-06
7.36573e-07
3.56852e-06
5.53653e-06
5.54519e-06
1.28079e-06
5.53592e-06
5.5423e-06
4.1629e-06
9.31263e-06
4.15953e-06
9.3166e-06
1.86517e-05
1.86686e-05
4.16028e-06
9.31156e-06
4.15973e-06
9.31485e-06
4.53703e-07
4.69707e-07
4.57285e-07
4.74362e-07
4.73917e-07
4.73387e-07
4.69599e-07
2.21553e-06
3.55998e-06
7.41255e-07
1.04427e-06
2.20936e-06
3.56765e-06
7.4902e-07
1.86767e-05
1.8664e-05
2.21479e-06
7.49537e-07
3.57622e-06
1.04363e-06
2.21259e-06
7.52096e-07
3.57344e-06
5.54009e-06
5.53881e-06
1.29441e-06
5.54304e-06
5.5393e-06
4.1631e-06
9.32005e-06
4.1638e-06
9.32419e-06
1.86681e-05
1.86664e-05
4.16071e-06
9.31957e-06
4.16053e-06
9.32551e-06
4.78105e-07
4.7449e-07
4.73755e-07
4.87147e-07
4.86805e-07
4.81269e-07
4.84554e-07
2.21989e-06
3.57104e-06
7.64769e-07
1.05635e-06
2.21953e-06
3.56882e-06
7.67883e-07
1.86449e-05
1.86448e-05
2.21723e-06
7.5895e-07
3.56619e-06
1.04832e-06
2.2166e-06
7.61798e-07
3.56164e-06
5.54618e-06
5.54537e-06
1.30605e-06
5.54627e-06
5.54708e-06
4.16602e-06
9.33188e-06
4.16403e-06
9.33675e-06
1.86714e-05
1.86897e-05
4.16707e-06
9.3355e-06
4.16389e-06
9.34028e-06
4.89703e-07
4.84855e-07
4.87703e-07
4.97723e-07
5.00593e-07
4.98225e-07
4.98175e-07
2.2244e-06
3.56749e-06
7.76804e-07
1.06722e-06
2.22162e-06
3.56996e-06
7.80545e-07
1.86608e-05
1.86853e-05
2.22426e-06
7.73592e-07
3.56203e-06
1.06516e-06
2.22046e-06
7.78535e-07
3.56657e-06
5.547e-06
5.55005e-06
1.31418e-06
5.5486e-06
5.5519e-06
4.17374e-06
9.34216e-06
4.17093e-06
9.34951e-06
1.87171e-05
1.87319e-05
4.17417e-06
9.34482e-06
4.1713e-06
9.35141e-06
5.04744e-07
5.03131e-07
5.02202e-07
5.13392e-07
5.161e-07
5.16337e-07
5.14438e-07
2.23586e-06
3.58124e-06
7.94206e-07
1.08286e-06
2.23165e-06
3.58483e-06
7.98862e-07
1.87163e-05
1.87326e-05
2.23583e-06
7.94826e-07
3.57992e-06
1.08366e-06
2.23183e-06
7.99784e-07
3.58421e-06
5.55788e-06
5.56036e-06
1.32644e-06
5.56234e-06
5.56463e-06
4.18057e-06
9.36497e-06
4.17905e-06
9.37184e-06
1.874e-05
1.87439e-05
4.18071e-06
9.36658e-06
4.17896e-06
9.37362e-06
5.19241e-07
5.19701e-07
5.18133e-07
5.28386e-07
5.27781e-07
5.28332e-07
5.28689e-07
2.24148e-06
3.58783e-06
8.10405e-07
1.09268e-06
2.24015e-06
3.58733e-06
8.13482e-07
1.8741e-05
1.87449e-05
2.24144e-06
8.11145e-07
3.58785e-06
1.0931e-06
2.24013e-06
8.14046e-07
3.58751e-06
5.56525e-06
5.5672e-06
1.33707e-06
5.56412e-06
5.56592e-06
4.18266e-06
9.3764e-06
4.18165e-06
9.3815e-06
1.87508e-05
1.87654e-05
4.18301e-06
9.37835e-06
4.18168e-06
9.38349e-06
5.30826e-07
5.31374e-07
5.32316e-07
5.42185e-07
5.41492e-07
5.41991e-07
5.43288e-07
2.24664e-06
3.5879e-06
8.22818e-07
1.10303e-06
2.24409e-06
3.5897e-06
8.26417e-07
1.87524e-05
1.87686e-05
2.24671e-06
8.23065e-07
3.58813e-06
1.1034e-06
2.24417e-06
8.26652e-07
3.59027e-06
5.56868e-06
5.57047e-06
1.3464e-06
5.57574e-06
5.57771e-06
4.19197e-06
9.39635e-06
4.18834e-06
9.4066e-06
1.87899e-05
1.88051e-05
4.19238e-06
9.39836e-06
4.18849e-06
9.40862e-06
5.45346e-07
5.45752e-07
5.46678e-07
5.56346e-07
5.563e-07
5.56235e-07
5.56193e-07
2.2551e-06
3.59744e-06
8.38084e-07
1.11626e-06
2.25215e-06
3.60013e-06
8.41784e-07
1.8793e-05
1.88062e-05
2.25514e-06
8.38279e-07
3.59823e-06
1.11627e-06
2.25239e-06
8.4189e-07
3.60056e-06
5.5843e-06
5.58628e-06
1.35671e-06
5.58475e-06
5.58671e-06
4.19646e-06
9.41395e-06
4.19572e-06
9.41837e-06
1.88182e-05
1.88286e-05
4.19646e-06
9.41587e-06
4.19545e-06
9.42027e-06
5.59589e-07
5.5943e-07
5.59335e-07
5.68944e-07
5.68863e-07
5.68969e-07
5.69025e-07
2.26034e-06
3.60396e-06
8.51512e-07
1.12607e-06
2.25852e-06
3.60507e-06
8.54484e-07
1.88164e-05
1.88271e-05
2.26004e-06
8.51312e-07
3.60325e-06
1.12584e-06
2.25835e-06
8.54288e-07
3.60428e-06
5.58541e-06
5.58719e-06
1.36419e-06
5.58854e-06
5.59031e-06
4.20234e-06
9.42846e-06
4.19982e-06
9.43759e-06
1.88442e-05
1.88583e-05
4.20293e-06
9.43047e-06
4.19979e-06
9.43977e-06
5.71962e-07
5.72245e-07
5.72181e-07
5.81507e-07
5.81332e-07
5.81727e-07
5.81145e-07
2.26655e-06
3.60942e-06
8.63466e-07
1.1356e-06
2.2642e-06
3.61142e-06
8.66481e-07
1.88468e-05
1.88627e-05
2.26675e-06
8.63666e-07
3.60966e-06
1.13616e-06
2.26428e-06
8.66805e-07
3.61237e-06
5.59691e-06
5.59894e-06
1.37294e-06
5.599e-06
5.60114e-06
4.20768e-06
9.44715e-06
4.20658e-06
9.45169e-06
1.88745e-05
1.88848e-05
4.20788e-06
9.44932e-06
4.20678e-06
9.45365e-06
5.84312e-07
5.84581e-07
5.83958e-07
5.92425e-07
5.92635e-07
5.9253e-07
5.92469e-07
2.27147e-06
3.61584e-06
8.74941e-07
1.14439e-06
2.26992e-06
3.61697e-06
8.7749e-07
1.8876e-05
1.88841e-05
2.2714e-06
8.75167e-07
3.61647e-06
1.14435e-06
2.27019e-06
8.77578e-07
3.61702e-06
5.60083e-06
5.60285e-06
1.37969e-06
5.60168e-06
5.60357e-06
4.21169e-06
9.45873e-06
4.20993e-06
9.46641e-06
1.88977e-05
1.89123e-05
4.21185e-06
9.46061e-06
4.20971e-06
9.46831e-06
5.95384e-07
5.9525e-07
5.95375e-07
6.03473e-07
6.03742e-07
6.0372e-07
6.03882e-07
2.27634e-06
3.62021e-06
8.85046e-07
1.15243e-06
2.27442e-06
3.62209e-06
8.87688e-07
1.88971e-05
1.89131e-05
2.27609e-06
8.84911e-07
3.61953e-06
1.15225e-06
2.2742e-06
8.87575e-07
3.6217e-06
5.60814e-06
5.60992e-06
1.3871e-06
5.61243e-06
5.61432e-06
4.21755e-06
9.47762e-06
4.21622e-06
9.48257e-06
1.89293e-05
1.89381e-05
4.21779e-06
9.4796e-06
4.21624e-06
9.48464e-06
6.06337e-07
6.06365e-07
6.06404e-07
6.13296e-07
6.13081e-07
6.1326e-07
6.13281e-07
2.28096e-06
3.62691e-06
8.95138e-07
1.15942e-06
2.27983e-06
3.62746e-06
8.97156e-07
1.89301e-05
1.89386e-05
2.28093e-06
8.95177e-07
3.62689e-06
1.15956e-06
2.27983e-06
8.97233e-07
3.62752e-06
5.61736e-06
5.61934e-06
1.3933e-06
5.61706e-06
5.61905e-06
4.2191e-06
9.48764e-06
4.2186e-06
9.4929e-06
1.89455e-05
1.89561e-05
4.21942e-06
9.48971e-06
4.21866e-06
9.49493e-06
6.15241e-07
6.15464e-07
6.15568e-07
6.22696e-07
6.22496e-07
6.22702e-07
6.22942e-07
2.283e-06
3.62793e-06
9.02422e-07
1.16478e-06
2.2822e-06
3.62833e-06
9.04334e-07
1.89465e-05
1.89581e-05
2.28299e-06
9.02592e-07
3.62804e-06
1.16501e-06
2.28228e-06
9.0452e-07
3.6286e-06
5.6167e-06
5.61863e-06
1.39803e-06
5.6195e-06
5.62149e-06
4.22543e-06
9.50361e-06
4.22279e-06
9.51196e-06
1.89772e-05
1.89924e-05
4.2257e-06
9.5057e-06
4.22288e-06
9.51395e-06
6.25095e-07
6.25242e-07
6.25403e-07
6.32254e-07
6.32362e-07
6.32404e-07
6.32256e-07
2.28847e-06
3.63373e-06
9.10982e-07
1.17236e-06
2.28631e-06
3.63642e-06
9.13224e-07
1.89786e-05
1.89927e-05
2.2884e-06
9.11081e-07
3.63386e-06
1.17236e-06
2.28639e-06
9.13266e-07
3.6364e-06
5.6291e-06
5.63106e-06
1.40481e-06
5.63178e-06
5.63372e-06
4.22985e-06
9.52089e-06
4.2293e-06
9.52478e-06
1.90052e-05
1.90132e-05
4.23e-06
9.52278e-06
4.22924e-06
9.52666e-06
6.3446e-07
6.34531e-07
6.34282e-07
6.39518e-07
6.39684e-07
6.3987e-07
6.39615e-07
2.29135e-06
3.63976e-06
9.18881e-07
1.17717e-06
2.29107e-06
3.63969e-06
9.20296e-07
1.90055e-05
1.90144e-05
2.29131e-06
9.18893e-07
3.63959e-06
1.17732e-06
2.29098e-06
9.20356e-07
3.63978e-06
5.63443e-06
5.63627e-06
1.40848e-06
5.63471e-06
5.63665e-06
4.22935e-06
9.52787e-06
4.22976e-06
9.53012e-06
1.90199e-05
1.90263e-05
4.22959e-06
9.52999e-06
4.22992e-06
9.53244e-06
6.41206e-07
6.4138e-07
6.41206e-07
6.46392e-07
6.46296e-07
6.46308e-07
6.46521e-07
2.29131e-06
3.63942e-06
9.23461e-07
1.17975e-06
2.29151e-06
3.63878e-06
9.24445e-07
1.90219e-05
1.90275e-05
2.2913e-06
9.23602e-07
3.63979e-06
1.17983e-06
2.2916e-06
9.24551e-07
3.6391e-06
5.63408e-06
5.63613e-06
1.41114e-06
5.63266e-06
5.63466e-06
4.23375e-06
9.53809e-06
4.23077e-06
9.54969e-06
1.90431e-05
1.90632e-05
4.23385e-06
9.5402e-06
4.23077e-06
9.5513e-06
6.48359e-07
6.48332e-07
6.48589e-07
6.55044e-07
6.54971e-07
6.54994e-07
6.55107e-07
2.29502e-06
3.64156e-06
9.28795e-07
1.18552e-06
2.29308e-06
3.64496e-06
9.30763e-07
1.90428e-05
1.90634e-05
2.29483e-06
9.28749e-07
3.64119e-06
1.1854e-06
2.29299e-06
9.30705e-07
3.6445e-06
5.63896e-06
5.64077e-06
1.41649e-06
5.64606e-06
5.64795e-06
4.24046e-06
9.56225e-06
4.23971e-06
9.56557e-06
1.90817e-05
1.90878e-05
4.24065e-06
9.56402e-06
4.23972e-06
9.5675e-06
6.56918e-07
6.5699e-07
6.56985e-07
6.60527e-07
6.60781e-07
6.60952e-07
6.60742e-07
2.29905e-06
3.65097e-06
9.36164e-07
1.18999e-06
2.29883e-06
3.65088e-06
9.37249e-07
1.90827e-05
1.90889e-05
2.29907e-06
9.36212e-07
3.65095e-06
1.19012e-06
2.29879e-06
9.3734e-07
3.65103e-06
5.65417e-06
5.65615e-06
1.42098e-06
5.65361e-06
5.65563e-06
4.23753e-06
9.56468e-06
4.23956e-06
9.56378e-06
1.90871e-05
1.909e-05
4.23777e-06
9.56697e-06
4.2396e-06
9.56612e-06
6.61573e-07
6.61756e-07
6.61536e-07
6.64733e-07
6.64562e-07
6.64718e-07
6.64754e-07
2.29644e-06
3.64858e-06
9.38351e-07
1.1898e-06
2.29767e-06
3.64588e-06
9.38415e-07
1.90878e-05
1.90908e-05
2.29642e-06
9.38487e-07
3.64872e-06
1.18997e-06
2.2977e-06
9.38544e-07
3.64605e-06
5.64732e-06
5.64926e-06
1.41973e-06
5.64373e-06
5.64565e-06
4.24018e-06
9.57036e-06
4.23692e-06
9.58311e-06
1.91071e-05
1.91289e-05
4.24045e-06
9.57247e-06
4.237e-06
9.58494e-06
6.66093e-07
6.66223e-07
6.66343e-07
6.71822e-07
6.71647e-07
6.71673e-07
6.71899e-07
2.29853e-06
3.64738e-06
9.40459e-07
1.19333e-06
2.29672e-06
3.65099e-06
9.42137e-07
1.91086e-05
1.91304e-05
2.29849e-06
9.40514e-07
3.64748e-06
1.19335e-06
2.29673e-06
9.42184e-07
3.65111e-06
5.64935e-06
5.65129e-06
1.42406e-06
5.65756e-06
5.65955e-06
4.2479e-06
9.59692e-06
4.24692e-06
9.60005e-06
1.91479e-05
1.91537e-05
4.248e-06
9.59862e-06
4.2469e-06
9.60188e-06
6.73398e-07
6.73404e-07
6.73553e-07
6.76084e-07
6.7649e-07
6.76509e-07
6.76367e-07
2.30296e-06
3.65808e-06
9.46688e-07
1.19731e-06
2.30277e-06
3.65821e-06
9.47547e-07
1.91482e-05
1.91538e-05
2.30286e-06
9.46679e-07
3.65791e-06
1.19727e-06
2.3027e-06
9.47532e-07
3.65804e-06
5.66807e-06
5.66999e-06
1.42853e-06
5.66801e-06
5.66994e-06
4.24425e-06
9.5978e-06
4.24683e-06
9.5965e-06
1.91528e-05
1.91548e-05
4.24447e-06
9.60011e-06
4.24679e-06
9.59884e-06
6.76862e-07
6.76917e-07
6.76735e-07
6.7823e-07
6.77963e-07
6.78127e-07
6.78153e-07
2.2991e-06
3.65575e-06
9.47834e-07
1.19563e-06
2.30107e-06
3.6525e-06
9.47367e-07
1.9153e-05
1.91557e-05
2.29903e-06
9.47847e-07
3.65563e-06
1.19573e-06
2.30103e-06
9.47414e-07
3.65258e-06
5.66111e-06
5.66306e-06
1.4257e-06
5.65633e-06
5.65828e-06
4.24348e-06
9.60028e-06
4.24217e-06
9.60914e-06
1.91648e-05
1.91812e-05
4.24385e-06
9.60249e-06
4.24231e-06
9.61104e-06
6.78775e-07
6.78954e-07
6.79057e-07
6.82631e-07
6.82476e-07
6.82622e-07
6.82725e-07
2.29834e-06
3.65166e-06
9.47012e-07
1.196e-06
2.29776e-06
3.65315e-06
9.4759e-07
1.91663e-05
1.91829e-05
2.29834e-06
9.47112e-07
3.65181e-06
1.19617e-06
2.29776e-06
9.47729e-07
3.6534e-06
5.65806e-06
5.65999e-06
1.42722e-06
5.66379e-06
5.66579e-06
4.25031e-06
9.62146e-06
4.24916e-06
9.62573e-06
1.92011e-05
1.92102e-05
4.25047e-06
9.62332e-06
4.24921e-06
9.62758e-06
6.83854e-07
6.83976e-07
6.84017e-07
6.86237e-07
6.86717e-07
6.86729e-07
6.86589e-07
2.30211e-06
3.65952e-06
9.50844e-07
1.19921e-06
2.30153e-06
3.66041e-06
9.5156e-07
1.92022e-05
1.92109e-05
2.30206e-06
9.50919e-07
3.65959e-06
1.19924e-06
2.30155e-06
9.51612e-07
3.66044e-06
5.67421e-06
5.67614e-06
1.43093e-06
5.67542e-06
5.67739e-06
4.24932e-06
9.6269e-06
4.25045e-06
9.62709e-06
1.92137e-05
1.92165e-05
4.24944e-06
9.62895e-06
4.25052e-06
9.62924e-06
6.87088e-07
6.8709e-07
6.86922e-07
6.87582e-07
6.87519e-07
6.87601e-07
6.87571e-07
2.29954e-06
3.65997e-06
9.52e-07
1.1979e-06
2.30114e-06
3.65785e-06
9.51556e-07
1.92138e-05
1.92166e-05
2.2994e-06
9.51999e-07
3.65987e-06
1.1979e-06
2.30104e-06
9.51543e-07
3.65776e-06
5.67276e-06
5.67468e-06
1.42898e-06
5.66951e-06
5.67142e-06
4.24759e-06
9.62937e-06
4.24777e-06
9.63418e-06
1.92224e-05
1.92328e-05