/*--------------------------------*- C++ -*----------------------------------*\
| =========                 |                                                 |
| \\      /  F ield         | OpenFOAM: The Open Source CFD Toolbox           |
|  \\    /   O peration     | Version:  v2012                                 |
|   \\  /    A nd           | Website:  www.openfoam.com                      |
|    \\/     M anipulation  |                                                 |
\*---------------------------------------------------------------------------*/
FoamFile
{
    version     2.0;
    format      ascii;
    class       volScalarField;
    location    "1000";
    object      k;
}
// * * * * * * * * * * * * * * * * * * * * * * * * * * * * * * * * * * * * * //

dimensions      [0 2 -2 0 0 0 0];


internalField   nonuniform List<scalar> 
85864
(
2.49937e-05
4.52427e-05
4.32343e-05
4.43768e-05
2.90882e-05
3.89422e-05
3.75854e-05
3.91652e-05
2.51854e-05
3.59235e-05
3.57355e-05
5.07255e-05
2.18742e-05
3.88514e-05
4.31842e-05
4.86307e-05
2.47643e-05
4.26237e-05
4.46953e-05
4.0746e-05
2.79637e-05
4.31422e-05
4.13368e-05
4.37446e-05
2.69704e-05
4.26417e-05
3.96428e-05
4.73007e-05
2.5965e-05
4.18621e-05
4.13707e-05
4.74245e-05
2.69164e-05
4.19959e-05
4.43868e-05
4.72888e-05
2.86825e-05
4.4392e-05
4.47536e-05
4.77769e-05
2.94803e-05
4.49498e-05
4.45527e-05
4.83364e-05
3.00044e-05
4.51337e-05
4.48501e-05
4.85906e-05
3.044e-05
4.6093e-05
4.61038e-05
4.92287e-05
3.14205e-05
4.64756e-05
4.64935e-05
4.9578e-05
3.20264e-05
4.6854e-05
4.68847e-05
5.0071e-05
3.286e-05
4.75521e-05
4.75675e-05
5.05156e-05
3.35418e-05
4.80121e-05
4.79714e-05
5.08262e-05
3.42495e-05
4.85012e-05
4.85464e-05
5.12792e-05
3.49013e-05
4.8943e-05
4.89366e-05
5.15329e-05
3.54797e-05
4.9365e-05
4.93515e-05
5.19552e-05
3.61139e-05
4.97914e-05
4.97874e-05
5.22366e-05
3.65997e-05
5.00004e-05
5.0016e-05
5.24359e-05
3.7173e-05
5.04881e-05
5.04832e-05
5.28497e-05
3.77466e-05
5.08346e-05
5.08377e-05
5.3061e-05
3.8071e-05
5.09171e-05
5.09287e-05
5.31195e-05
3.85259e-05
5.12976e-05
5.12835e-05
5.34972e-05
3.91382e-05
5.17075e-05
5.17102e-05
5.38014e-05
3.93447e-05
5.16804e-05
5.16878e-05
5.36851e-05
3.96401e-05
5.18692e-05
5.187e-05
5.39715e-05
4.02155e-05
5.23225e-05
5.23164e-05
5.4318e-05
4.04095e-05
5.22877e-05
5.22844e-05
5.41785e-05
4.05159e-05
5.2264e-05
5.22707e-05
5.42473e-05
4.09749e-05
5.26778e-05
5.26783e-05
5.4592e-05
4.11967e-05
5.27144e-05
5.27085e-05
5.45472e-05
4.12937e-05
5.26626e-05
5.26632e-05
5.45328e-05
4.15478e-05
5.28293e-05
5.28244e-05
5.4693e-05
4.16746e-05
5.2852e-05
5.28556e-05
5.46616e-05
4.18458e-05
5.29119e-05
5.29147e-05
5.4743e-05
4.20072e-05
5.29646e-05
5.29577e-05
5.48194e-05
4.19881e-05
5.28178e-05
5.2821e-05
5.4567e-05
4.21588e-05
5.30223e-05
5.3019e-05
5.48957e-05
4.22841e-05
5.29736e-05
5.29866e-05
5.47769e-05
4.20547e-05
5.25695e-05
5.25588e-05
5.42855e-05
4.2176e-05
5.29155e-05
5.29076e-05
5.47877e-05
4.25349e-05
5.30361e-05
5.30571e-05
5.4882e-05
4.23089e-05
5.26153e-05
5.26058e-05
5.44033e-05
4.21158e-05
5.24763e-05
5.2464e-05
5.4286e-05
4.17824e-05
5.14085e-05
5.14056e-05
5.40377e-05
4.82298e-05
4.99753e-05
4.25648e-05
4.47917e-05
4.45887e-05
4.16589e-05
5.13824e-05
4.35895e-05
4.24885e-05
4.28831e-05
4.45577e-05
4.03851e-05
4.08374e-05
4.10379e-05
3.72579e-05
4.95792e-05
4.22222e-05
4.06907e-05
3.98148e-05
3.72054e-05
3.85264e-05
4.97412e-05
4.3117e-05
4.44797e-05
3.95036e-05
3.99808e-05
3.61494e-05
4.26034e-05
3.98335e-05
4.44281e-05
3.8103e-05
3.98461e-05
3.56076e-05
3.73565e-05
3.61014e-05
4.27333e-05
4.08636e-05
3.82791e-05
3.72932e-05
3.54791e-05
4.25155e-05
4.97222e-05
4.23563e-05
3.93231e-05
3.83227e-05
3.57871e-05
3.61093e-05
3.61681e-05
3.98502e-05
4.20724e-05
3.82325e-05
3.5744e-05
3.61809e-05
4.07936e-05
4.42789e-05
3.70723e-05
4.49143e-05
3.94885e-05
4.73006e-05
4.41254e-05
4.17242e-05
4.4929e-05
4.98446e-05
3.95307e-05
4.71258e-05
3.61709e-05
3.76387e-05
4.09213e-05
4.21436e-05
4.32005e-05
4.71343e-05
3.6263e-05
4.23598e-05
4.11872e-05
4.46108e-05
4.41024e-05
4.21602e-05
3.87567e-05
4.81433e-05
4.99027e-05
4.42333e-05
4.47203e-05
3.88794e-05
4.09982e-05
4.79814e-05
4.84486e-05
4.25935e-05
4.28916e-05
4.39503e-05
4.36011e-05
4.74958e-05
4.77071e-05
4.27892e-05
4.46684e-05
4.39999e-05
4.27776e-05
3.80108e-05
4.31119e-05
3.79669e-05
4.98657e-05
4.57213e-05
3.80788e-05
4.22352e-05
3.79736e-05
4.27714e-05
4.81377e-05
4.54409e-05
4.38669e-05
4.36038e-05
4.21733e-05
4.29191e-05
4.76946e-05
4.6885e-05
4.38853e-05
4.16992e-05
4.20052e-05
3.98186e-05
3.88296e-05
4.28791e-05
4.25633e-05
4.53176e-05
4.32906e-05
3.87682e-05
3.98091e-05
4.22994e-05
4.70365e-05
4.53668e-05
4.5351e-05
4.17775e-05
4.25902e-05
4.1452e-05
4.18612e-05
4.68004e-05
4.56515e-05
4.15981e-05
3.96026e-05
4.12928e-05
3.99502e-05
4.30817e-05
4.2038e-05
4.34863e-05
4.32736e-05
4.47515e-05
4.28081e-05
4.01627e-05
4.33508e-05
4.74139e-05
4.55703e-05
4.71308e-05
4.14883e-05
4.16899e-05
4.27808e-05
4.16601e-05
4.56071e-05
4.5671e-05
4.13522e-05
4.10388e-05
4.2971e-05
4.3946e-05
4.34834e-05
4.17879e-05
4.33892e-05
4.55675e-05
4.82247e-05
4.33943e-05
4.39939e-05
4.3455e-05
4.72639e-05
4.74174e-05
4.80048e-05
4.32639e-05
4.19501e-05
4.42199e-05
4.4029e-05
4.60636e-05
4.7995e-05
4.34859e-05
4.43953e-05
4.43285e-05
4.47939e-05
4.33889e-05
4.39571e-05
4.36679e-05
4.84641e-05
4.84489e-05
4.34789e-05
4.47519e-05
4.38736e-05
4.75951e-05
4.80951e-05
4.83703e-05
4.44061e-05
4.44455e-05
4.48342e-05
4.49336e-05
4.82207e-05
4.84335e-05
4.44534e-05
4.47937e-05
4.47643e-05
4.46134e-05
4.4003e-05
4.49305e-05
4.47135e-05
4.84343e-05
4.7993e-05
4.41089e-05
4.45971e-05
4.46515e-05
4.82556e-05
4.84763e-05
4.8697e-05
4.49761e-05
4.49497e-05
4.52619e-05
4.50138e-05
4.84488e-05
4.84591e-05
4.49005e-05
4.45689e-05
4.52285e-05
4.46256e-05
4.48371e-05
4.50011e-05
4.50443e-05
4.7999e-05
4.81758e-05
4.47654e-05
4.46096e-05
4.50132e-05
4.8508e-05
4.87396e-05
4.888e-05
4.52892e-05
4.51642e-05
4.55241e-05
4.58682e-05
4.85968e-05
4.92866e-05
4.5268e-05
4.48635e-05
4.55325e-05
4.584e-05
4.51407e-05
4.58844e-05
4.57122e-05
4.83912e-05
4.92809e-05
4.51247e-05
4.58624e-05
4.57174e-05
4.90775e-05
4.90187e-05
4.96125e-05
4.57447e-05
4.60674e-05
4.64087e-05
4.64393e-05
4.94152e-05
4.96114e-05
4.57515e-05
4.60736e-05
4.64125e-05
4.64605e-05
4.59348e-05
4.64377e-05
4.63349e-05
4.94235e-05
4.96288e-05
4.59418e-05
4.64629e-05
4.63392e-05
4.95201e-05
4.96936e-05
4.98297e-05
4.65228e-05
4.64896e-05
4.67409e-05
4.66969e-05
4.96484e-05
4.97773e-05
4.65246e-05
4.65039e-05
4.67393e-05
4.67168e-05
4.64082e-05
4.66974e-05
4.68198e-05
4.96629e-05
4.98017e-05
4.64102e-05
4.67183e-05
4.68186e-05
4.99216e-05
4.99206e-05
5.04332e-05
4.68776e-05
4.68411e-05
4.74263e-05
4.73867e-05
4.989e-05
5.03994e-05
4.68774e-05
4.68711e-05
4.74305e-05
4.74174e-05
4.70149e-05
4.73978e-05
4.74622e-05
4.99232e-05
5.04251e-05
4.70146e-05
4.74307e-05
4.74667e-05
5.04526e-05
5.05422e-05
5.07431e-05
4.75781e-05
4.75511e-05
4.78825e-05
4.79173e-05
5.05125e-05
5.07747e-05
4.75818e-05
4.7564e-05
4.78768e-05
4.78715e-05
4.75539e-05
4.79086e-05
4.78646e-05
5.05231e-05
5.07285e-05
4.75578e-05
4.78652e-05
4.78592e-05
5.07205e-05
5.08141e-05
5.1181e-05
4.79817e-05
4.80154e-05
4.83951e-05
4.83591e-05
5.08507e-05
5.1137e-05
4.79745e-05
4.79728e-05
4.83951e-05
4.83889e-05
4.80013e-05
4.83652e-05
4.84121e-05
5.08052e-05
5.11782e-05
4.79942e-05
4.83956e-05
4.84124e-05
5.11982e-05
5.1291e-05
5.15226e-05
4.85432e-05
4.84977e-05
4.88558e-05
4.88634e-05
5.12352e-05
5.15281e-05
4.85467e-05
4.85418e-05
4.88588e-05
4.88722e-05
4.85293e-05
4.88577e-05
4.88075e-05
5.12882e-05
5.15317e-05
4.85329e-05
4.88699e-05
4.88107e-05
5.14659e-05
5.1578e-05
5.18156e-05
4.89269e-05
4.89493e-05
4.92236e-05
4.923e-05
5.15972e-05
5.18312e-05
4.89275e-05
4.89399e-05
4.92203e-05
4.92106e-05
4.88922e-05
4.92301e-05
4.92415e-05
5.15871e-05
5.18088e-05
4.88928e-05
4.92107e-05
4.92386e-05
5.18485e-05
5.19178e-05
5.21858e-05
4.93572e-05
4.93614e-05
4.96929e-05
4.9724e-05
5.19276e-05
5.22091e-05
4.93547e-05
4.9348e-05
4.96915e-05
4.97166e-05
4.93882e-05
4.97304e-05
4.97155e-05
5.19114e-05
5.22065e-05
4.9386e-05
4.97256e-05
4.97141e-05
5.2196e-05
5.22373e-05
5.23703e-05
4.97629e-05
4.97884e-05
4.99546e-05
4.99183e-05
5.22577e-05
5.23347e-05
4.97612e-05
4.97813e-05
4.99547e-05
4.99272e-05
4.9764e-05
4.99137e-05
4.99339e-05
5.22556e-05
5.23444e-05
4.97623e-05
4.99241e-05
4.99344e-05
5.23504e-05
5.24421e-05
5.27481e-05
5.0042e-05
5.00026e-05
5.0363e-05
5.03673e-05
5.2396e-05
5.27547e-05
5.00437e-05
5.00176e-05
5.03646e-05
5.03707e-05
5.00421e-05
5.03731e-05
5.03928e-05
5.24095e-05
5.27561e-05
5.0044e-05
5.03777e-05
5.03945e-05
5.2779e-05
5.28313e-05
5.30348e-05
5.04736e-05
5.04831e-05
5.07702e-05
5.07698e-05
5.28455e-05
5.30383e-05
5.04736e-05
5.04769e-05
5.0767e-05
5.07618e-05
5.04881e-05
5.07681e-05
5.07502e-05
5.28409e-05
5.30337e-05
5.04881e-05
5.07614e-05
5.07474e-05
5.30147e-05
5.30777e-05
5.30787e-05
5.08329e-05
5.0837e-05
5.08843e-05
5.0902e-05
5.30813e-05
5.3098e-05
5.0831e-05
5.08382e-05
5.08862e-05
5.09155e-05
5.08192e-05
5.09022e-05
5.08933e-05
5.30827e-05
5.31129e-05
5.08176e-05
5.09187e-05
5.08955e-05
5.30937e-05
5.31021e-05
5.33913e-05
5.09008e-05
5.09158e-05
5.11727e-05
5.1156e-05
5.31208e-05
5.33693e-05
5.09031e-05
5.0925e-05
5.11706e-05
5.11397e-05
5.09125e-05
5.11587e-05
5.11712e-05
5.31303e-05
5.33497e-05
5.09145e-05
5.11425e-05
5.11695e-05
5.33847e-05
5.35055e-05
5.37703e-05
5.13135e-05
5.12958e-05
5.16546e-05
5.16535e-05
5.34828e-05
5.37689e-05
5.13108e-05
5.12819e-05
5.16535e-05
5.1651e-05
5.13091e-05
5.16536e-05
5.1654e-05
5.34656e-05
5.37696e-05
5.13071e-05
5.16526e-05
5.16535e-05
5.37684e-05
5.38006e-05
5.36649e-05
5.16993e-05
5.1707e-05
5.16857e-05
5.17071e-05
5.38042e-05
5.36923e-05
5.16992e-05
5.17076e-05
5.16866e-05
5.1711e-05
5.17033e-05
5.17088e-05
5.16979e-05
5.38063e-05
5.36983e-05
5.17034e-05
5.17155e-05
5.16984e-05
5.36803e-05
5.367e-05
5.38635e-05
5.16601e-05
5.16781e-05
5.17376e-05
5.17206e-05
5.36969e-05
5.38281e-05
5.16612e-05
5.16832e-05
5.17383e-05
5.17256e-05
5.16707e-05
5.17224e-05
5.17294e-05
5.3703e-05
5.38333e-05
5.16713e-05
5.17276e-05
5.17303e-05
5.38437e-05
5.39952e-05
5.42804e-05
5.19114e-05
5.18689e-05
5.22728e-05
5.22702e-05
5.39497e-05
5.42769e-05
5.19116e-05
5.1871e-05
5.22719e-05
5.22629e-05
5.18922e-05
5.22706e-05
5.22783e-05
5.39522e-05
5.42673e-05
5.18932e-05
5.22647e-05
5.2278e-05
5.42892e-05
5.43034e-05
5.41621e-05
5.23084e-05
5.23205e-05
5.22932e-05
5.23212e-05
5.43106e-05
5.41991e-05
5.23075e-05
5.23123e-05
5.22926e-05
5.23135e-05
5.23217e-05
5.23249e-05
5.23127e-05
5.43006e-05
5.41947e-05
5.2321e-05
5.23199e-05
5.23115e-05
5.4178e-05
5.41655e-05
5.42032e-05
5.22583e-05
5.22834e-05
5.22457e-05
5.22387e-05
5.41999e-05
5.41596e-05
5.2258e-05
5.22776e-05
5.22462e-05
5.22403e-05
5.22716e-05
5.22399e-05
5.22379e-05
5.41962e-05
5.4168e-05
5.22704e-05
5.22427e-05
5.2238e-05
5.41708e-05
5.42805e-05
5.45303e-05
5.22986e-05
5.22647e-05
5.26087e-05
5.26029e-05
5.4224e-05
5.45377e-05
5.23002e-05
5.22714e-05
5.26095e-05
5.26068e-05
5.22744e-05
5.26036e-05
5.2617e-05
5.42346e-05
5.45387e-05
5.22757e-05
5.26082e-05
5.26185e-05
5.45516e-05
5.45669e-05
5.45255e-05
5.2663e-05
5.26749e-05
5.2689e-05
5.27199e-05
5.45849e-05
5.45659e-05
5.26633e-05
5.2674e-05
5.26883e-05
5.27127e-05
5.26801e-05
5.27247e-05
5.27108e-05
5.45836e-05
5.45576e-05
5.26807e-05
5.27199e-05
5.271e-05
5.45424e-05
5.45319e-05
5.45127e-05
5.26754e-05
5.27094e-05
5.2655e-05
5.26589e-05
5.4571e-05
5.44943e-05
5.26745e-05
5.27008e-05
5.26548e-05
5.26568e-05
5.26952e-05
5.2661e-05
5.26536e-05
5.45628e-05
5.4496e-05
5.2694e-05
5.26603e-05
5.26533e-05
5.4494e-05
5.45534e-05
5.46593e-05
5.26703e-05
5.26612e-05
5.28135e-05
5.27876e-05
5.45227e-05
5.46365e-05
5.26709e-05
5.26608e-05
5.2814e-05
5.27856e-05
5.26597e-05
5.27863e-05
5.2811e-05
5.45276e-05
5.46336e-05
5.26599e-05
5.27851e-05
5.28118e-05
5.46624e-05
5.4684e-05
5.46409e-05
5.2836e-05
5.28281e-05
5.28336e-05
5.28526e-05
5.46705e-05
5.46739e-05
5.28357e-05
5.28222e-05
5.28333e-05
5.28506e-05
5.28444e-05
5.28566e-05
5.28497e-05
5.46652e-05
5.46751e-05
5.28443e-05
5.28567e-05
5.28489e-05
5.46548e-05
5.46496e-05
5.47146e-05
5.28284e-05
5.28483e-05
5.28767e-05
5.2868e-05
5.46828e-05
5.4701e-05
5.28287e-05
5.285e-05
5.28795e-05
5.2879e-05
5.28378e-05
5.28668e-05
5.28533e-05
5.46865e-05
5.47084e-05
5.28377e-05
5.28764e-05
5.28551e-05
5.46882e-05
5.47656e-05
5.47979e-05
5.29319e-05
5.29148e-05
5.2979e-05
5.29684e-05
5.47443e-05
5.4787e-05
5.29328e-05
5.29163e-05
5.29779e-05
5.29591e-05
5.29092e-05
5.29704e-05
5.29867e-05
5.47435e-05
5.47748e-05
5.29114e-05
5.29625e-05
5.29858e-05
5.48169e-05
5.47963e-05
5.45474e-05
5.29678e-05
5.29619e-05
5.28115e-05
5.28272e-05
5.47897e-05
5.45731e-05
5.29669e-05
5.29535e-05
5.28128e-05
5.28295e-05
5.29806e-05
5.28318e-05
5.28259e-05
5.47787e-05
5.45814e-05
5.29797e-05
5.28355e-05
5.28268e-05
5.45612e-05
5.4556e-05
5.4834e-05
5.27997e-05
5.28141e-05
5.29348e-05
5.2928e-05
5.45812e-05
5.48203e-05
5.28011e-05
5.28163e-05
5.29339e-05
5.29228e-05
5.2807e-05
5.29264e-05
5.29087e-05
5.45892e-05
5.48113e-05
5.28081e-05
5.29214e-05
5.29085e-05
5.48015e-05
5.49249e-05
5.48116e-05
5.30369e-05
5.30242e-05
5.30657e-05
5.30509e-05
5.49048e-05
5.47918e-05
5.30357e-05
5.30201e-05
5.3066e-05
5.30542e-05
5.30159e-05
5.30503e-05
5.30602e-05
5.48958e-05
5.48073e-05
5.30152e-05
5.30552e-05
5.30602e-05
5.48207e-05
5.47624e-05
5.42402e-05
5.29832e-05
5.2972e-05
5.25635e-05
5.25827e-05
5.47463e-05
5.42705e-05
5.29859e-05
5.29833e-05
5.25652e-05
5.25775e-05
5.29934e-05
5.25894e-05
5.25914e-05
5.47639e-05
5.42602e-05
5.29949e-05
5.25847e-05
5.25924e-05
5.42771e-05
5.42485e-05
5.46857e-05
5.25383e-05
5.25624e-05
5.27283e-05
5.2751e-05
5.42824e-05
5.47078e-05
5.25387e-05
5.25515e-05
5.27227e-05
5.27277e-05
5.25645e-05
5.27548e-05
5.27204e-05
5.42686e-05
5.46871e-05
5.25643e-05
5.27318e-05
5.2716e-05
5.46653e-05
5.48242e-05
5.49445e-05
5.29153e-05
5.29161e-05
5.30935e-05
5.3058e-05
5.48287e-05
5.48724e-05
5.29114e-05
5.2907e-05
5.30953e-05
5.30745e-05
5.28879e-05
5.30525e-05
5.30577e-05
5.4819e-05
5.49091e-05
5.28852e-05
5.3071e-05
5.30597e-05
5.48947e-05
5.49214e-05
5.43445e-05
5.30789e-05
5.30413e-05
5.26559e-05
5.26684e-05
5.48497e-05
5.43818e-05
5.30817e-05
5.30602e-05
5.26587e-05
5.26677e-05
5.30498e-05
5.26771e-05
5.27057e-05
5.48861e-05
5.43689e-05
5.30523e-05
5.26767e-05
5.27074e-05
5.44109e-05
5.43375e-05
5.4275e-05
5.25733e-05
5.26036e-05
5.24555e-05
5.24853e-05
5.43814e-05
5.431e-05
5.25737e-05
5.25942e-05
5.24535e-05
5.2469e-05
5.26284e-05
5.24916e-05
5.24636e-05
5.4366e-05
5.42933e-05
5.26282e-05
5.24757e-05
5.24619e-05
5.42772e-05
5.42997e-05
5.41951e-05
5.24557e-05
5.2474e-05
5.2351e-05
5.23397e-05
5.43264e-05
5.41754e-05
5.24536e-05
5.24606e-05
5.23512e-05
5.23319e-05
5.2449e-05
5.23387e-05
5.23227e-05
5.43114e-05
5.41686e-05
5.24474e-05
5.23321e-05
5.23226e-05
5.4159e-05
5.40697e-05
5.14291e-05
5.14086e-05
5.40427e-05
5.14299e-05
5.14047e-05
4.17676e-05
4.17627e-05
4.1762e-05
5.14034e-05
5.40385e-05
5.14041e-05
6.63855e-05
7.22873e-05
6.71528e-05
7.20232e-05
6.97226e-05
6.93121e-05
6.65283e-05
7.23306e-05
6.7393e-05
7.2001e-05
2.93252e-05
2.71233e-05
2.60111e-05
2.89636e-05
2.86908e-05
2.66442e-05
2.44934e-05
5.44638e-05
6.4122e-05
3.60969e-05
4.49693e-05
5.64513e-05
6.15217e-05
3.60614e-05
6.97345e-05
6.90923e-05
5.45828e-05
3.47121e-05
6.45466e-05
4.3072e-05
5.65655e-05
3.47193e-05
6.12543e-05
6.25906e-05
6.28048e-05
3.97775e-05
6.09045e-05
6.09812e-05
6.50466e-05
7.15457e-05
6.53572e-05
7.13612e-05
6.91445e-05
6.91631e-05
6.46609e-05
7.14847e-05
6.4975e-05
7.13449e-05
2.6883e-05
2.51957e-05
2.43456e-05
2.69654e-05
2.22929e-05
2.19262e-05
2.59625e-05
5.35269e-05
5.97016e-05
3.27504e-05
3.74942e-05
5.30989e-05
5.97661e-05
3.16467e-05
6.89166e-05
6.9308e-05
5.26333e-05
3.20784e-05
5.77656e-05
3.61307e-05
5.25897e-05
3.10127e-05
5.75927e-05
6.58905e-05
6.56824e-05
4.4139e-05
6.96799e-05
6.95041e-05
6.43868e-05
7.12045e-05
6.45032e-05
7.13155e-05
6.9399e-05
6.97311e-05
6.47862e-05
7.125e-05
6.46421e-05
7.13642e-05
2.15076e-05
2.17602e-05
2.73776e-05
2.20932e-05
2.10115e-05
2.36273e-05
2.87596e-05
5.52119e-05
5.96412e-05
3.07801e-05
3.59225e-05
5.49887e-05
5.96113e-05
3.08164e-05
6.99566e-05
7.02414e-05
5.58836e-05
3.0445e-05
6.02825e-05
3.70253e-05
5.49742e-05
3.08674e-05
6.16375e-05
7.32021e-05
7.32445e-05
5.17392e-05
7.22842e-05
7.25458e-05
6.60041e-05
7.18899e-05
6.52612e-05
7.21337e-05
7.01159e-05
7.02147e-05
6.61758e-05
7.18736e-05
6.55931e-05
7.21021e-05
2.13083e-05
2.55183e-05
2.86606e-05
2.29381e-05
2.54192e-05
2.85915e-05
2.53635e-05
5.50032e-05
6.07398e-05
3.2632e-05
4.03216e-05
5.5047e-05
6.15766e-05
3.33706e-05
7.04202e-05
7.03379e-05
5.57937e-05
3.4934e-05
6.31626e-05
4.41153e-05
5.6053e-05
3.55612e-05
6.36405e-05
6.75615e-05
6.76731e-05
4.44898e-05
6.56595e-05
6.55566e-05
6.66056e-05
7.2144e-05
6.66267e-05
7.19893e-05
7.01053e-05
6.99955e-05
6.65314e-05
7.21362e-05
6.66366e-05
7.19881e-05
2.6415e-05
2.88441e-05
2.42027e-05
2.77989e-05
2.77506e-05
2.83282e-05
2.28055e-05
5.5591e-05
6.24309e-05
3.44759e-05
4.28903e-05
5.52131e-05
6.26185e-05
3.45888e-05
6.98472e-05
6.96135e-05
5.5599e-05
3.58798e-05
6.3268e-05
4.44323e-05
5.55818e-05
3.57622e-05
6.26086e-05
6.51348e-05
6.4769e-05
4.07108e-05
6.60932e-05
6.5735e-05
6.60568e-05
7.17578e-05
6.61774e-05
7.17114e-05
6.9896e-05
6.98795e-05
6.57476e-05
7.17624e-05
6.59584e-05
7.17212e-05
2.78585e-05
2.72267e-05
2.28317e-05
2.75015e-05
2.77323e-05
2.47859e-05
2.51547e-05
5.63173e-05
6.26819e-05
3.49557e-05
4.31408e-05
5.60939e-05
6.26951e-05
3.51796e-05
6.94179e-05
6.94415e-05
5.56926e-05
3.43544e-05
6.15655e-05
4.06621e-05
5.56864e-05
3.41162e-05
6.10223e-05
6.76059e-05
6.73898e-05
4.55378e-05
6.82073e-05
6.80683e-05
6.58496e-05
7.17273e-05
6.58988e-05
7.18013e-05
6.97829e-05
6.97505e-05
6.57125e-05
7.17557e-05
6.55998e-05
7.18392e-05
2.73697e-05
2.43373e-05
2.62137e-05
2.60261e-05
2.65088e-05
2.40307e-05
2.7792e-05
5.62816e-05
6.22178e-05
3.57402e-05
4.24465e-05
5.63641e-05
6.18014e-05
3.58065e-05
6.96617e-05
6.98859e-05
5.56616e-05
3.38962e-05
6.04216e-05
3.9618e-05
5.56175e-05
3.39004e-05
6.06032e-05
6.85085e-05
6.84532e-05
4.74413e-05
6.84492e-05
6.84584e-05
6.60397e-05
7.19627e-05
6.58483e-05
7.2063e-05
6.98098e-05
6.99471e-05
6.63877e-05
7.19952e-05
6.60932e-05
7.2075e-05
2.63069e-05
2.42171e-05
2.7961e-05
2.63206e-05
2.60565e-05
2.7223e-05
2.8081e-05
5.59727e-05
6.11745e-05
3.57613e-05
4.17672e-05
5.60143e-05
6.11722e-05
3.57018e-05
7.01025e-05
7.0169e-05
5.65213e-05
3.49599e-05
6.18203e-05
4.25061e-05
5.61316e-05
3.56853e-05
6.24592e-05
6.82727e-05
6.83841e-05
4.73158e-05
6.82309e-05
6.83524e-05
6.66642e-05
7.21381e-05
6.64599e-05
7.21588e-05
7.00929e-05
7.0136e-05
6.67003e-05
7.2128e-05
6.66385e-05
7.21451e-05
2.60787e-05
2.80343e-05
2.80844e-05
2.83663e-05
2.7459e-05
2.9232e-05
2.81416e-05
5.68476e-05
6.20747e-05
3.57385e-05
4.26419e-05
5.64047e-05
6.25471e-05
3.5973e-05
7.01534e-05
7.01216e-05
5.71723e-05
3.72522e-05
6.29612e-05
4.46096e-05
5.6972e-05
3.75769e-05
6.29988e-05
6.82655e-05
6.82862e-05
4.73155e-05
6.83583e-05
6.82764e-05
6.677e-05
7.21766e-05
6.67681e-05
7.21978e-05
7.01349e-05
7.01306e-05
6.66759e-05
7.21693e-05
6.66964e-05
7.21998e-05
2.81416e-05
2.93631e-05
2.82412e-05
2.93085e-05
2.94079e-05
2.94264e-05
2.89917e-05
5.7415e-05
6.28367e-05
3.7639e-05
4.46864e-05
5.7306e-05
6.28319e-05
3.80375e-05
7.00733e-05
7.00727e-05
5.72744e-05
3.81505e-05
6.28001e-05
4.47356e-05
5.72771e-05
3.823e-05
6.26461e-05
6.8473e-05
6.83636e-05
4.80119e-05
6.84962e-05
6.8439e-05
6.67821e-05
7.22375e-05
6.67524e-05
7.22627e-05
7.01425e-05
7.0188e-05
6.6785e-05
7.22514e-05
6.66935e-05
7.22763e-05
2.95645e-05
2.94084e-05
2.92095e-05
2.992e-05
2.97257e-05
2.93697e-05
2.96621e-05
5.73938e-05
6.26627e-05
3.85887e-05
4.49538e-05
5.74025e-05
6.26343e-05
3.86443e-05
7.01119e-05
7.01732e-05
5.72853e-05
3.82827e-05
6.24498e-05
4.45388e-05
5.72406e-05
3.82972e-05
6.24793e-05
6.84793e-05
6.84897e-05
4.83888e-05
6.8465e-05
6.84964e-05
6.69551e-05
7.22905e-05
6.68797e-05
7.23281e-05
7.0257e-05
7.02941e-05
6.69668e-05
7.22995e-05
6.68985e-05
7.23332e-05
2.98521e-05
2.94059e-05
2.97836e-05
3.0257e-05
3.05221e-05
3.02929e-05
3.03311e-05
5.77691e-05
6.28797e-05
3.89483e-05
4.53892e-05
5.75447e-05
6.30858e-05
3.91447e-05
7.02511e-05
7.0292e-05
5.7775e-05
3.8724e-05
6.28281e-05
4.52282e-05
5.75434e-05
3.90119e-05
6.3062e-05
6.85616e-05
6.85949e-05
4.87229e-05
6.86888e-05
6.8714e-05
6.72008e-05
7.24079e-05
6.7101e-05
7.24436e-05
7.03146e-05
7.03245e-05
6.72058e-05
7.24114e-05
6.71065e-05
7.2448e-05
3.07737e-05
3.06484e-05
3.0581e-05
3.12058e-05
3.13863e-05
3.14014e-05
3.12378e-05
5.81796e-05
6.32523e-05
3.98905e-05
4.62578e-05
5.80582e-05
6.32653e-05
4.01256e-05
7.03134e-05
7.03233e-05
5.81855e-05
3.99051e-05
6.32541e-05
4.62843e-05
5.80632e-05
4.01567e-05
6.32713e-05
6.8792e-05
6.88084e-05
4.9384e-05
6.87655e-05
6.87776e-05
6.72296e-05
7.24672e-05
6.72326e-05
7.24931e-05
7.03414e-05
7.03776e-05
6.72315e-05
7.24724e-05
6.72336e-05
7.24986e-05
3.15129e-05
3.15387e-05
3.13912e-05
3.18669e-05
3.18362e-05
3.18699e-05
3.18961e-05
5.82586e-05
6.32142e-05
4.05605e-05
4.65144e-05
5.82306e-05
6.32121e-05
4.06453e-05
7.03416e-05
7.03819e-05
5.82568e-05
4.05874e-05
6.32147e-05
4.65276e-05
5.82318e-05
4.06646e-05
6.32136e-05
6.87129e-05
6.87216e-05
4.96381e-05
6.88414e-05
6.88519e-05
6.74242e-05
7.25693e-05
6.72943e-05
7.26223e-05
7.04389e-05
7.0477e-05
6.74368e-05
7.25749e-05
6.73034e-05
7.2628e-05
3.19882e-05
3.2026e-05
3.21127e-05
3.26473e-05
3.25948e-05
3.26396e-05
3.27314e-05
5.86092e-05
6.33673e-05
4.10487e-05
4.70362e-05
5.84248e-05
6.35091e-05
4.12478e-05
7.04431e-05
7.04761e-05
5.86232e-05
4.10648e-05
6.33973e-05
4.70751e-05
5.8431e-05
4.12692e-05
6.35391e-05
6.90515e-05
6.90649e-05
5.0262e-05
6.90867e-05
6.90998e-05
6.75873e-05
7.26605e-05
6.75576e-05
7.26831e-05
7.051e-05
7.05358e-05
6.7582e-05
7.26656e-05
6.75612e-05
7.26881e-05
3.28122e-05
3.28479e-05
3.28969e-05
3.33886e-05
3.33958e-05
3.33755e-05
3.33699e-05
5.88666e-05
6.36243e-05
4.18361e-05
4.76854e-05
5.87961e-05
6.36621e-05
4.2e-05
7.05018e-05
7.05283e-05
5.88571e-05
4.18568e-05
6.36229e-05
4.76773e-05
5.88017e-05
4.20082e-05
6.36328e-05
6.90432e-05
6.90521e-05
5.05605e-05
6.90537e-05
6.90601e-05
6.76845e-05
7.27347e-05
6.76169e-05
7.27817e-05
7.05748e-05
7.06098e-05
6.76893e-05
7.27402e-05
6.7612e-05
7.27881e-05
3.35616e-05
3.35326e-05
3.35403e-05
3.40571e-05
3.40441e-05
3.40541e-05
3.40732e-05
5.90903e-05
6.37291e-05
4.24284e-05
4.81195e-05
5.89765e-05
6.3803e-05
4.25678e-05
7.05774e-05
7.06172e-05
5.90825e-05
4.2401e-05
6.37043e-05
4.80972e-05
5.89569e-05
4.25454e-05
6.38119e-05
6.92044e-05
6.92153e-05
5.09758e-05
6.92756e-05
6.92907e-05
6.78601e-05
7.28311e-05
6.78029e-05
7.28545e-05
7.06505e-05
7.06762e-05
6.7871e-05
7.28375e-05
6.78187e-05
7.28598e-05
3.422e-05
3.42474e-05
3.42469e-05
3.47637e-05
3.47526e-05
3.47784e-05
3.47246e-05
5.93488e-05
6.39155e-05
4.30247e-05
4.86352e-05
5.92551e-05
6.39777e-05
4.31831e-05
7.06506e-05
7.06706e-05
5.93662e-05
4.3048e-05
6.3956e-05
4.868e-05
5.92728e-05
4.32131e-05
6.39997e-05
6.92996e-05
6.93154e-05
5.13455e-05
6.92887e-05
6.93016e-05
6.79171e-05
7.28904e-05
6.78881e-05
7.29297e-05
7.07084e-05
7.07446e-05
6.79141e-05
7.28953e-05
6.78866e-05
7.29347e-05
3.49062e-05
3.49184e-05
3.48656e-05
3.53176e-05
3.53246e-05
3.53116e-05
3.53146e-05
5.95078e-05
6.40218e-05
4.35811e-05
4.90238e-05
5.94413e-05
6.40696e-05
4.36868e-05
7.0703e-05
7.07428e-05
5.94938e-05
4.35873e-05
6.40056e-05
4.90053e-05
5.94376e-05
4.3682e-05
6.40501e-05
6.93269e-05
6.93336e-05
5.16194e-05
6.94241e-05
6.94334e-05
6.81037e-05
7.29875e-05
6.8022e-05
7.30131e-05
7.07872e-05
7.08093e-05
6.81089e-05
7.29928e-05
6.80243e-05
7.30189e-05
3.54848e-05
3.54726e-05
3.54916e-05
3.59735e-05
3.60058e-05
3.59997e-05
3.60069e-05
5.97935e-05
6.42129e-05
4.40747e-05
4.95065e-05
5.9663e-05
6.42897e-05
4.42389e-05
7.07853e-05
7.08067e-05
5.97915e-05
4.40645e-05
6.42076e-05
4.94983e-05
5.96548e-05
4.42325e-05
6.42889e-05
6.95522e-05
6.95638e-05
5.20763e-05
6.95642e-05
6.95762e-05
6.81336e-05
7.30391e-05
6.81339e-05
7.30658e-05
7.08276e-05
7.08539e-05
6.81364e-05
7.30449e-05
6.81362e-05
7.30715e-05
3.61459e-05
3.61408e-05
3.61342e-05
3.64758e-05
3.64515e-05
3.64587e-05
3.64602e-05
5.98939e-05
6.42921e-05
4.46404e-05
4.98274e-05
5.98836e-05
6.42736e-05
4.47144e-05
7.08263e-05
7.0855e-05
5.98921e-05
4.4638e-05
6.42915e-05
4.98261e-05
5.98818e-05
4.47128e-05
6.42776e-05
6.94949e-05
6.95068e-05
5.22501e-05
6.94924e-05
6.95048e-05
6.82336e-05
7.31206e-05
6.8157e-05
7.31635e-05
7.09063e-05
7.09442e-05
6.8242e-05
7.31266e-05
6.81653e-05
7.3169e-05
3.65647e-05
3.65782e-05
3.65923e-05
3.70226e-05
3.70152e-05
3.70282e-05
3.7049e-05
6.00446e-05
6.43223e-05
4.49353e-05
5.01166e-05
5.99344e-05
6.44445e-05
4.50547e-05
7.0906e-05
7.09412e-05
6.00502e-05
4.49455e-05
6.43342e-05
5.01333e-05
5.9938e-05
4.5068e-05
6.44495e-05
6.9642e-05
6.96549e-05
5.25739e-05
6.97232e-05
6.97354e-05
6.84103e-05
7.32096e-05
6.83541e-05
7.32296e-05
7.09764e-05
7.09962e-05
6.841e-05
7.32144e-05
6.83542e-05
7.32345e-05
3.71748e-05
3.71803e-05
3.71938e-05
3.76184e-05
3.76196e-05
3.76146e-05
3.76072e-05
6.03203e-05
6.45797e-05
4.54658e-05
5.05911e-05
6.02341e-05
6.46254e-05
4.55903e-05
7.09733e-05
7.09954e-05
6.03121e-05
4.54682e-05
6.45713e-05
5.05795e-05
6.0231e-05
4.55865e-05
6.46155e-05
6.97779e-05
6.97861e-05
5.29094e-05
6.97996e-05
6.98099e-05
6.84166e-05
7.32455e-05
6.84254e-05
7.32569e-05
7.1013e-05
7.10289e-05
6.84227e-05
7.32516e-05
6.84295e-05
7.3264e-05
3.77499e-05
3.77502e-05
3.77347e-05
3.80045e-05
3.80215e-05
3.80358e-05
3.80119e-05
6.0387e-05
6.46287e-05
4.59213e-05
5.0876e-05
6.03796e-05
6.46047e-05
4.60019e-05
7.10141e-05
7.10279e-05
6.03905e-05
4.59188e-05
6.46368e-05
5.08882e-05
6.03778e-05
4.60061e-05
6.46218e-05
6.97936e-05
6.98077e-05
5.30782e-05
6.97287e-05
6.97432e-05
6.83877e-05
7.32973e-05
6.83668e-05
7.33565e-05
7.10703e-05
7.11203e-05
6.83893e-05
7.33033e-05
6.83735e-05
7.33599e-05
3.80856e-05
3.80973e-05
3.80813e-05
3.83793e-05
3.83702e-05
3.83646e-05
3.83825e-05
6.03804e-05
6.45546e-05
4.61195e-05
5.09528e-05
6.03678e-05
6.46149e-05
4.61589e-05
7.10656e-05
7.11169e-05
6.03774e-05
4.61294e-05
6.45576e-05
5.09533e-05
6.0371e-05
4.61629e-05
6.45959e-05
6.96921e-05
6.97025e-05
5.31567e-05
6.98279e-05
6.98368e-05
6.8665e-05
7.34213e-05
6.85711e-05
7.34387e-05
7.11666e-05
7.11819e-05
6.86679e-05
7.34256e-05
6.85688e-05
7.34437e-05
3.85131e-05
3.85047e-05
3.85266e-05
3.90021e-05
3.89951e-05
3.89917e-05
3.90025e-05
6.07325e-05
6.48493e-05
4.64643e-05
5.14364e-05
6.05747e-05
6.49412e-05
4.6615e-05
7.11654e-05
7.1181e-05
6.07284e-05
4.64555e-05
6.48402e-05
5.14262e-05
6.05652e-05
4.66071e-05
6.49413e-05
7.00443e-05
7.00556e-05
5.36372e-05
7.00945e-05
7.01072e-05
6.8659e-05
7.34343e-05
6.8688e-05
7.34296e-05
7.11804e-05
7.11872e-05
6.8663e-05
7.34412e-05
6.8692e-05
7.34367e-05
3.91364e-05
3.9137e-05
3.914e-05
3.93326e-05
3.93549e-05
3.93634e-05
3.93454e-05
6.07996e-05
6.49367e-05
4.70021e-05
5.17238e-05
6.08058e-05
6.48537e-05
4.70695e-05
7.11783e-05
7.11856e-05
6.08002e-05
4.70029e-05
6.49416e-05
5.17287e-05
6.08069e-05
4.70728e-05
6.48591e-05
7.00016e-05
7.00141e-05
5.37695e-05
6.9881e-05
6.98926e-05
6.85154e-05
7.34624e-05
6.85116e-05
7.35273e-05
7.12292e-05
7.12835e-05
6.85212e-05
7.34684e-05
6.85166e-05
7.35319e-05
3.93674e-05
3.93766e-05
3.93578e-05
3.94993e-05
3.94814e-05
3.94889e-05
3.94962e-05
6.06381e-05
6.47219e-05
4.70903e-05
5.16709e-05
6.06668e-05
6.47571e-05
4.7079e-05
7.12291e-05
7.12834e-05
6.06372e-05
4.70965e-05
6.4726e-05
5.16783e-05
6.06655e-05
4.70852e-05
6.47636e-05
6.97989e-05
6.981e-05
5.36546e-05
6.99313e-05
6.99437e-05
6.88285e-05
7.35986e-05
6.87246e-05
7.3615e-05
7.1331e-05
7.13457e-05
6.88303e-05
7.36025e-05
6.87273e-05
7.36195e-05
3.96144e-05
3.96199e-05
3.96335e-05
4.0092e-05
4.00776e-05
4.00771e-05
4.00907e-05
6.10055e-05
6.50237e-05
4.72009e-05
5.20393e-05
6.08333e-05
6.5131e-05
4.73803e-05
7.13281e-05
7.13421e-05
6.1003e-05
4.72026e-05
6.50233e-05
5.20368e-05
6.08348e-05
4.73806e-05
6.51264e-05
7.01978e-05
7.0209e-05
5.41485e-05
7.02719e-05
7.02827e-05
6.88256e-05
7.36038e-05
6.88626e-05
7.35969e-05
7.13437e-05
7.13485e-05
6.88276e-05
7.36108e-05
6.88638e-05
7.36041e-05
4.02115e-05
4.02095e-05
4.0219e-05
4.04012e-05
4.0431e-05
4.04258e-05
4.04225e-05
6.10844e-05
6.51415e-05
4.77755e-05
5.23376e-05
6.10934e-05
6.50676e-05
4.78333e-05
7.13403e-05
7.13469e-05
6.10789e-05
4.77726e-05
6.51338e-05
5.23318e-05
6.10887e-05
4.783e-05
6.50662e-05
7.01861e-05
7.0197e-05
5.42752e-05
7.00627e-05
7.00746e-05
6.86511e-05
7.36156e-05
6.8675e-05
7.36606e-05
7.13728e-05
7.14134e-05
6.86563e-05
7.36221e-05
6.86787e-05
7.36655e-05
4.04414e-05
4.04365e-05
4.04312e-05
4.04447e-05
4.04472e-05
4.04497e-05
4.04447e-05
6.08772e-05
6.49172e-05
4.78484e-05
5.22522e-05
6.09376e-05
6.48987e-05
4.78232e-05
7.13726e-05
7.14138e-05
6.08746e-05
4.78452e-05
6.492e-05
5.22517e-05
6.09328e-05
4.78209e-05
6.49041e-05
6.99448e-05
6.99567e-05
5.4114e-05
7.0001e-05
7.00134e-05
6.88632e-05
7.37239e-05
6.87722e-05
7.3746e-05
7.14629e-05
7.14857e-05
6.88675e-05
7.37286e-05
6.87775e-05
7.37506e-05
4.04772e-05
4.04884e-05
4.04871e-05
4.08677e-05
4.08461e-05
4.0855e-05
4.08645e-05
6.10902e-05
6.50555e-05
4.78081e-05
5.2359e-05
6.09406e-05
6.51653e-05
4.78602e-05
7.1462e-05
7.14837e-05
6.1092e-05
4.7811e-05
6.50601e-05
5.23727e-05
6.09442e-05
4.78695e-05
6.51691e-05
7.02186e-05
7.02302e-05
5.43879e-05
7.02977e-05
7.03094e-05
6.88977e-05
7.37522e-05
6.88999e-05
7.37531e-05
7.14947e-05
7.15014e-05
6.89006e-05
7.37578e-05
6.89025e-05
7.37593e-05
4.09701e-05
4.09751e-05
4.0982e-05
4.11729e-05
4.12118e-05
4.12088e-05
4.12024e-05
6.11996e-05
6.52162e-05
4.82357e-05
5.27157e-05
6.11919e-05
6.51943e-05
4.83087e-05
7.1491e-05
7.14979e-05
6.11953e-05
4.8239e-05
6.52156e-05
5.2713e-05
6.11892e-05
4.8309e-05
6.51915e-05
7.02851e-05
7.0296e-05
5.45941e-05
7.02112e-05
7.02217e-05
6.88011e-05
7.37645e-05
6.88249e-05
7.37889e-05
7.15159e-05
7.15416e-05
6.88051e-05
7.37709e-05