/*--------------------------------*- C++ -*----------------------------------*\
| =========                 |                                                 |
| \\      /  F ield         | OpenFOAM: The Open Source CFD Toolbox           |
|  \\    /   O peration     | Version:  v2012                                 |
|   \\  /    A nd           | Website:  www.openfoam.com                      |
|    \\/     M anipulation  |                                                 |
\*---------------------------------------------------------------------------*/
FoamFile
{
    version     2.0;
    format      ascii;
    class       volScalarField;
    location    "1000";
    object      nut;
}
// * * * * * * * * * * * * * * * * * * * * * * * * * * * * * * * * * * * * * //

dimensions      [0 2 -1 0 0 0 0];


internalField   nonuniform List<scalar> 
85864
(
0.000133881
0.000208022
0.000193142
0.000156477
0.000205346
0.000161438
0.000149138
0.000107938
0.000168936
0.000127382
0.000117638
0.000182291
0.000111173
0.000138716
0.000166674
0.000184057
0.000128713
0.000164598
0.00018788
0.000125662
0.000168083
0.000168927
0.000163175
0.0001363
0.000158192
0.000166034
0.000143632
0.000157737
0.000139337
0.000157504
0.000149133
0.000158245
0.00014135
0.000153036
0.000169917
0.000155803
0.000154935
0.000168188
0.000172437
0.000157424
0.000159701
0.000170949
0.000168468
0.000160151
0.000161708
0.000169878
0.00016767
0.000160482
0.000161117
0.00017532
0.000175315
0.000163252
0.000167126
0.000176737
0.000176818
0.000164499
0.000169099
0.000177489
0.00017769
0.000166441
0.000173687
0.000181086
0.000181256
0.000168451
0.000176963
0.000183086
0.000182705
0.000169453
0.000180669
0.000185324
0.000185641
0.000171578
0.000184199
0.000187411
0.000187405
0.000172399
0.000186921
0.000189392
0.000189276
0.00017435
0.00019068
0.000191818
0.000191749
0.000175666
0.000192841
0.000192228
0.000192338
0.000176199
0.000196056
0.000195019
0.00019497
0.000178367
0.000200029
0.000197267
0.000197265
0.000179477
0.00020115
0.000197104
0.000197213
0.000179335
0.000203351
0.000199105
0.000198982
0.000181139
0.000208457
0.000202224
0.000202215
0.000183225
0.000209075
0.00020169
0.000201737
0.000182181
0.00021001
0.000202303
0.000202319
0.000183373
0.00021515
0.000205966
0.000205907
0.000185881
0.000216388
0.000205859
0.000205806
0.000185026
0.000216045
0.000205082
0.000205123
0.000184979
0.000220061
0.000208348
0.000208358
0.000187344
0.000222009
0.000209013
0.000208949
0.000187312
0.000222349
0.000208598
0.000208595
0.000187058
0.000224691
0.000210061
0.000210003
0.000188278
0.000225627
0.000210495
0.000210508
0.000188186
0.000227264
0.000211169
0.000211207
0.000188736
0.000229278
0.000212234
0.000212157
0.000189779
0.000228782
0.000211168
0.000211189
0.00018802
0.00023067
0.000213276
0.000213205
0.000190439
0.00023328
0.000214165
0.000214283
0.000190768
0.000230431
0.000210615
0.000210528
0.000187027
0.000231155
0.000213346
0.000213204
0.000190116
0.00023664
0.000215826
0.000216019
0.000191952
0.000235275
0.000213274
0.000213231
0.000189398
0.000233417
0.0002126
0.000212472
0.000188733
0.00023587
0.000214274
0.00021418
0.000192713
0.000162759
0.000191497
0.000166123
0.000201847
0.000197863
0.000183951
0.000199706
0.000154443
0.000165579
0.000188156
0.000198069
0.000172844
0.0001714
0.000179277
0.000130038
0.000190561
0.000146324
0.00017029
0.000169018
0.000130055
0.000106536
0.000190951
0.000149739
0.000201791
0.000165952
0.00016825
0.000134055
0.000147258
0.000123767
0.000201816
0.0001531
0.000167121
0.000121641
0.000127994
0.000131544
0.000165861
0.000135523
0.000107184
0.000127958
0.000119105
0.00016435
0.000174007
0.000143246
0.000113963
0.000153759
0.000128375
0.000124394
0.000122509
0.000122115
0.000128274
0.000152794
0.000119391
0.00012437
0.000149202
0.000182612
0.000127936
0.0002013
0.000111609
0.000154988
0.000181069
0.00015511
0.000200974
0.000192881
0.00011297
0.000155191
0.000121566
0.000130241
0.000149481
0.000159559
0.000133742
0.000156627
0.000121741
0.000160821
0.00015127
0.000183822
0.000195894
0.000161148
0.000148154
0.000160528
0.000180039
0.000196698
0.00018612
0.00014934
0.000129124
0.000160975
0.000170232
0.000162137
0.000165197
0.000177307
0.000172071
0.000158776
0.000161941
0.000163579
0.00018643
0.00017816
0.000174778
0.00013892
0.000168466
0.000131202
0.000180203
0.000156801
0.000139727
0.00017046
0.000131732
0.000131393
0.000168073
0.000150172
0.000177477
0.000172674
0.000164036
0.000168666
0.000161768
0.000158768
0.00017815
0.000166181
0.000163145
0.00014754
0.000135558
0.000167764
0.00016099
0.000153847
0.000137745
0.000135664
0.000146816
0.000159465
0.000156191
0.000148875
0.00014607
0.000159779
0.000166189
0.000153598
0.000158895
0.00015807
0.000150128
0.000158618
0.000143829
0.000152125
0.000140545
0.00016501
0.000160243
0.000168261
0.000136374
0.000140543
0.000163287
0.000141867
0.000167037
0.000158612
0.000146619
0.000154603
0.00015269
0.000156155
0.000159072
0.000151661
0.000149041
0.000146255
0.00015129
0.000146797
0.000160165
0.000166433
0.00016792
0.000152769
0.000164776
0.00014463
0.000160674
0.000166751
0.00016698
0.000165042
0.000156171
0.000155925
0.000158995
0.000161903
0.000152516
0.000167329
0.000165722
0.000147839
0.000158833
0.000163394
0.000169805
0.000168342
0.000172862
0.000163903
0.000165249
0.000163617
0.000162079
0.000162725
0.000164456
0.000172636
0.000165289
0.000156693
0.00015919
0.00016049
0.000168261
0.000168557
0.000170344
0.000171273
0.000159976
0.000161033
0.000168844
0.000172712
0.000169961
0.000169608
0.000165532
0.000171282
0.000169682
0.000162385
0.000158787
0.000166513
0.00016952
0.00016935
0.000160014
0.000160818
0.000161737
0.000171095
0.00017091
0.000172065
0.000169603
0.000160724
0.000159786
0.00017062
0.000168551
0.000171808
0.000166731
0.000170227
0.000169517
0.000170204
0.000158308
0.000158029
0.000169776
0.000166601
0.000169963
0.000160437
0.000161583
0.000161527
0.000171709
0.000170113
0.000171553
0.000173965
0.000160158
0.000163901
0.000171535
0.000167798
0.000171613
0.000173656
0.000170299
0.000174085
0.000172893
0.000158852
0.000163827
0.000170161
0.000173807
0.000172929
0.000162693
0.000161936
0.000165127
0.000172644
0.000175108
0.000176401
0.000176865
0.000164392
0.000165297
0.0001727
0.000175082
0.000176449
0.000176984
0.000174115
0.00017689
0.000175824
0.000164409
0.000165363
0.000174172
0.00017703
0.000175875
0.000164542
0.000165292
0.000165489
0.000176883
0.000176821
0.000177131
0.00017684
0.000165153
0.000165169
0.000176915
0.000176883
0.000177131
0.000176947
0.000175893
0.000176835
0.000177554
0.000165197
0.000165276
0.000175926
0.00017694
0.000177555
0.000165893
0.000165619
0.000168217
0.000177657
0.000177391
0.000180508
0.000180161
0.000165428
0.000168005
0.000177666
0.000177597
0.000180562
0.000180455
0.000178607
0.000180283
0.000180856
0.000165603
0.000168202
0.000178615
0.000180582
0.000180911
0.00016841
0.000168559
0.000169345
0.000181291
0.000181041
0.000182447
0.000182741
0.000168369
0.000169575
0.000181344
0.000181202
0.000182424
0.000182364
0.000181156
0.00018269
0.000182274
0.000168475
0.000169251
0.000181211
0.000182323
0.000182253
0.000169164
0.000169408
0.000171208
0.00018279
0.0001831
0.000184816
0.000184557
0.000169684
0.000170968
0.00018275
0.000182712
0.000184822
0.000184731
0.000182922
0.00018463
0.000185027
0.000169343
0.000171174
0.000182882
0.000184798
0.000185034
0.000171396
0.000171572
0.000172726
0.000185631
0.000185266
0.000187109
0.00018711
0.000171235
0.000172707
0.000185666
0.000185585
0.000187154
0.00018723
0.000185602
0.000187091
0.000186704
0.000171539
0.000172774
0.000185637
0.000187229
0.000186749
0.000172336
0.000172738
0.000173813
0.000187325
0.000187442
0.000188607
0.00018862
0.000172808
0.000173901
0.000187352
0.000187419
0.000188601
0.000188479
0.000186989
0.000188627
0.000188685
0.000172784
0.000173752
0.000187015
0.000188478
0.000188682
0.000173983
0.000174133
0.000175633
0.000189343
0.000189354
0.000191207
0.000191494
0.000174194
0.000175827
0.000189342
0.000189248
0.000191211
0.000191413
0.000189553
0.00019157
0.000191402
0.000174078
0.000175784
0.000189554
0.000191498
0.000191405
0.000175712
0.000175662
0.000176163
0.000191512
0.000191768
0.000192169
0.000191908
0.000175844
0.000175972
0.000191512
0.000191684
0.000192181
0.000191961
0.000191528
0.000191886
0.000191964
0.000175803
0.000176015
0.000191527
0.000191944
0.000191978
0.000176002
0.000176275
0.000177963
0.000192541
0.000192234
0.000194241
0.00019424
0.000176
0.000177981
0.000192568
0.000192345
0.000194274
0.000194274
0.0001925
0.000194306
0.000194486
0.000176073
0.000177987
0.000192528
0.000194341
0.000194519
0.000178174
0.000178228
0.000179582
0.000194917
0.000194956
0.000196876
0.000196844
0.000178299
0.0001796
0.000194936
0.000194906
0.000196863
0.000196759
0.000195048
0.000196853
0.0001967
0.000178262
0.000179543
0.000195067
0.000196767
0.000196691
0.000179437
0.000179607
0.00017942
0.000197255
0.000197268
0.000197081
0.000197242
0.000179628
0.000179566
0.000197251
0.000197261
0.000197113
0.000197365
0.000197118
0.000197258
0.000197138
0.000179615
0.000179671
0.000197117
0.000197399
0.000197171
0.000179508
0.000179224
0.000180726
0.000196933
0.000197078
0.000198278
0.000198145
0.000179371
0.000180594
0.00019697
0.000197172
0.000198282
0.000198023
0.00019702
0.000198186
0.000198263
0.000179448
0.000180465
0.000197053
0.000198059
0.000198267
0.000180685
0.000181197
0.000183238
0.00019923
0.00019907
0.000201804
0.000201749
0.000181049
0.000183197
0.000199227
0.000198957
0.000201809
0.000201711
0.000199184
0.000201769
0.000201769
0.000180929
0.000183175
0.000199184
0.000201731
0.000201779
0.000183199
0.000183245
0.000182368
0.000202183
0.000202203
0.0002019
0.000202123
0.000183239
0.000182591
0.000202194
0.000202188
0.000201922
0.000202139
0.000202184
0.000202154
0.000202015
0.000183228
0.000182614
0.000202198
0.000202187
0.000202032
0.000182478
0.00018207
0.000182956
0.000201443
0.000201652
0.000201405
0.000201278
0.000182297
0.000182749
0.000201466
0.000201683
0.000201428
0.00020133
0.000201546
0.000201313
0.000201325
0.000182325
0.000182788
0.000201563
0.000201361
0.000201347
0.000182818
0.000183548
0.000185847
0.000202641
0.000202281
0.000205517
0.000205411
0.000183252
0.000185776
0.00020266
0.000202315
0.000205527
0.000205364
0.000202458
0.000205426
0.000205506
0.000183277
0.000185709
0.000202482
0.000205377
0.000205523
0.000185872
0.000185814
0.000185161
0.000205894
0.000205939
0.000205858
0.000206123
0.000185818
0.000185495
0.000205902
0.000205875
0.000205867
0.000206045
0.000205969
0.000206174
0.000206033
0.000185748
0.000185439
0.000205981
0.00020611
0.000206038
0.000185311
0.000184903
0.000184999
0.000205523
0.0002058
0.000205052
0.000204989
0.000185218
0.000184729
0.000205533
0.000205733
0.00020507
0.00020499
0.000205667
0.00020502
0.000204963
0.000185165
0.000184767
0.00020567
0.000205025
0.000204976
0.000184765
0.000185236
0.000187164
0.000205378
0.00020507
0.000207788
0.00020765
0.000184853
0.000187138
0.000205406
0.000205118
0.000207811
0.000207693
0.000205142
0.000207665
0.000207791
0.000184909
0.000187152
0.000205165
0.000207703
0.000207821
0.000187262
0.000187216
0.000187366
0.000208301
0.000208316
0.000208719
0.000208988
0.000187271
0.000187656
0.00020832
0.000208326
0.000208729
0.000208927
0.000208395
0.000209048
0.000208905
0.000187269
0.000187591
0.000208419
0.000208997
0.000208915
0.000187494
0.000187186
0.000187161
0.000208639
0.00020895
0.000208492
0.000208553
0.000187486
0.000187097
0.000208646
0.000208872
0.000208502
0.000208531
0.000208814
0.000208593
0.000208475
0.000187421
0.000187095
0.000208818
0.000208575
0.000208486
0.000187042
0.000187197
0.000188279
0.000208617
0.000208566
0.000209905
0.000209632
0.000187043
0.000188083
0.000208636
0.000208561
0.000209927
0.000209618
0.000208523
0.000209636
0.000209842
0.000187066
0.000188052
0.000208539
0.000209618
0.000209869
0.00018827
0.000188244
0.000188253
0.000210157
0.000210037
0.000210278
0.000210441
0.000188115
0.000188505
0.00021017
0.00020998
0.000210288
0.00021041
0.000210199
0.000210496
0.00021042
0.000188067
0.000188481
0.000210216
0.000210475
0.000210426
0.000188384
0.000188066
0.000188783
0.000210254
0.000210441
0.000210742
0.000210698
0.000188335
0.000188703
0.000210268
0.000210444
0.000210783
0.000210805
0.000210344
0.00021071
0.000210534
0.000188331
0.000188777
0.000210356
0.000210798
0.000210565
0.000188549
0.000188945
0.000189853
0.000211332
0.00021118
0.000212261
0.000212126
0.000188807
0.000189746
0.00021136
0.000211214
0.000212265
0.000212039
0.000211075
0.000212155
0.000212289
0.000188822
0.000189644
0.000211114
0.000212072
0.000212296
0.000189949
0.000189652
0.000188129
0.000212284
0.000212196
0.000211097
0.000211242
0.000189574
0.000188335
0.000212288
0.000212114
0.000211124
0.000211257
0.000212373
0.000211305
0.000211249
0.00018948
0.000188384
0.000212379
0.000211326
0.00021127
0.000188263
0.000187905
0.000190198
0.000210954
0.000211109
0.000212189
0.000212158
0.000188114
0.000190131
0.000210983
0.000211128
0.000212196
0.000212098
0.000211048
0.000212168
0.000211957
0.000188162
0.000190043
0.000211073
0.000212102
0.000211973
0.000189947
0.000190673
0.000191246
0.000213385
0.000213275
0.000214777
0.000214589
0.000190556
0.000191062
0.000213385
0.000213208
0.000214789
0.00021462
0.000213144
0.000214594
0.00021466
0.000190468
0.000191165
0.000213151
0.000214631
0.000214672
0.00019124
0.000190734
0.000187078
0.000214308
0.000214144
0.000210807
0.000210937
0.000190572
0.000187268
0.000214343
0.000214253
0.000210849
0.000210931
0.00021433
0.000211008
0.000211069
0.000190694
0.000187218
0.000214356
0.000211001
0.000211102
0.000187357
0.000186726
0.000189529
0.000210315
0.000210532
0.000211589
0.000211867
0.000186964
0.000189805
0.000210343
0.00021045
0.000211556
0.00021163
0.000210591
0.000211936
0.000211602
0.00018688
0.000189589
0.000210612
0.000211692
0.00021158
0.000189447
0.000190317
0.000192644
0.000213201
0.000213312
0.000216122
0.000215772
0.00019047
0.00019211
0.000213174
0.00021317
0.000216146
0.000215908
0.000213021
0.000215733
0.000215699
0.000190329
0.000192357
0.000213007
0.00021588
0.000215728
0.000192185
0.000192344
0.000189242
0.000216289
0.000215872
0.000213632
0.000213643
0.000191801
0.000189396
0.000216326
0.000216052
0.000213677
0.000213684
0.000215896
0.00021372
0.00021402
0.000192052
0.00018935
0.000215933
0.000213759
0.000214056
0.00018966
0.000188963
0.000188789
0.000212984
0.000213165
0.000212307
0.000212629
0.000189176
0.00018914
0.00021301
0.000213129
0.000212309
0.000212486
0.000213449
0.000212719
0.000212452
0.000189111
0.000189011
0.00021347
0.000212571
0.000212457
0.000188881
0.000188756
0.000190931
0.000212305
0.000212542
0.000215477
0.000215418
0.000189044
0.000190822
0.000212307
0.000212414
0.000215478
0.000215301
0.000212317
0.000215409
0.000215201
0.000188926
0.000190713
0.000212323
0.000215298
0.000215201
0.00019065
0.000192979
0.000214453
0.000214287
0.0001928
0.000214452
0.000214187
0.000235763
0.000235597
0.000235586
0.000214185
0.000192697
0.000214184
9.59844e-05
5.03498e-05
9.74161e-05
5.02583e-05
2.36499e-05
2.35772e-05
9.65851e-05
5.03606e-05
9.80524e-05
5.02466e-05
0.00020473
0.000182453
0.000167835
0.000194669
0.000220219
0.000189289
0.000134571
0.000126477
0.00010464
0.000193602
0.000210247
0.00013537
9.7793e-05
0.000196832
2.36521e-05
2.35394e-05
0.000127756
0.000180936
0.000106834
0.000195486
0.00013619
0.000184033
9.82744e-05
6.74618e-05
6.78262e-05
0.000121587
6.3151e-05
6.33024e-05
9.30708e-05
5.00906e-05
9.37725e-05
5.0024e-05
2.35461e-05
2.35485e-05
9.19322e-05
5.00634e-05
9.28734e-05
5.00122e-05
0.000197785
0.000169707
0.000128769
0.000192739
0.000135909
0.000115547
0.000141888
0.000119802
9.25876e-05
0.000165502
0.00014849
0.00011878
9.27786e-05
0.000153535
2.35031e-05
2.35679e-05
0.000115907
0.000158801
8.79598e-05
0.000132885
0.000117175
0.000145827
8.64334e-05
6.97374e-05
6.93421e-05
0.000134295
7.61932e-05
7.58171e-05
9.08524e-05
4.99658e-05
9.15102e-05
4.99995e-05
2.35867e-05
2.36429e-05
9.15814e-05
4.99765e-05
9.1505e-05
5.0012e-05
0.000121913
0.000108478
0.000159324
0.000118823
0.000102419
0.000116782
0.000196977
0.000127607
9.24653e-05
0.000137076
0.000124708
0.00012627
9.20015e-05
0.000135136
2.36791e-05
2.37284e-05
0.000129368
0.000128279
9.2409e-05
0.00012375
0.000125
0.000129257
9.58182e-05
8.3751e-05
8.3652e-05
0.000198512
8.34298e-05
8.38118e-05
9.42474e-05
5.01998e-05
9.24359e-05
5.02883e-05
2.37095e-05
2.37274e-05
9.4772e-05
5.01895e-05
9.32856e-05
5.02721e-05
0.00010173
0.000135046
0.000201081
0.000111645
0.000136299
0.000174876
0.000161781
0.000126053
9.41054e-05
0.000145593
0.000148267
0.000126774
9.61195e-05
0.00015103
2.37608e-05
2.37486e-05
0.000129414
0.00016232
9.98546e-05
0.000176191
0.000130639
0.000168703
0.000101418
7.56522e-05
7.59151e-05
0.00015578
7.21999e-05
7.21171e-05
9.62519e-05
5.02975e-05
9.60638e-05
5.02441e-05
2.37102e-05
2.36916e-05
9.62348e-05
5.02892e-05
9.62528e-05
5.02385e-05
0.000146322
0.000182216
0.000145707
0.000164353
0.000161845
0.00018563
0.000116522
0.000127213
9.81911e-05
0.000158192
0.000166633
0.000125962
9.87521e-05
0.000158256
2.36666e-05
2.36261e-05
0.000127848
0.000174315
0.000101023
0.000187246
0.000127966
0.000173581
9.95647e-05
7.06197e-05
6.99866e-05
0.0001226
7.20582e-05
7.13672e-05
9.50296e-05
5.01614e-05
9.52873e-05
5.01442e-05
2.3674e-05
2.36714e-05
9.43446e-05
5.01578e-05
9.48895e-05
5.01423e-05
0.000164212
0.000173023
0.000113462
0.000164631
0.000165653
0.000142068
0.000129982
0.000130437
9.91556e-05
0.000158925
0.000169211
0.000129272
9.95397e-05
0.000160356
2.35911e-05
2.35941e-05
0.000128322
0.00015993
9.72397e-05
0.000157083
0.000128202
0.000156444
9.59637e-05
7.44897e-05
7.40128e-05
0.000146849
7.55811e-05
7.52617e-05
9.45259e-05
5.01482e-05
9.46656e-05
5.01733e-05
2.3655e-05
2.36492e-05
9.39932e-05
5.0153e-05
9.38433e-05
5.01814e-05
0.000161907
0.00013334
0.000140068
0.000142169
0.000151416
0.000119585
0.000156175
0.000130702
9.87363e-05
0.000164683
0.00016451
0.000131009
9.77479e-05
0.000165012
2.36303e-05
2.36685e-05
0.000127677
0.00014932
9.40257e-05
0.000141532
0.00012786
0.00014743
9.40611e-05
7.61692e-05
7.60115e-05
0.00015903
7.61016e-05
7.60272e-05
9.46689e-05
5.02293e-05
9.43421e-05
5.02649e-05
2.36584e-05
2.36814e-05
9.54681e-05
5.0236e-05
9.47697e-05
5.02645e-05
0.000147291
0.000118491
0.00015764
0.000136888
0.000137115
0.000142886
0.000156418
0.000128499
9.57832e-05
0.000161938
0.000155375
0.00012916
9.54351e-05
0.000159903
2.37061e-05
2.3718e-05
0.00013038
0.000150793
9.67224e-05
0.000156526
0.000129005
0.000155598
9.83891e-05
7.57702e-05
7.5899e-05
0.000157317
7.56858e-05
7.58682e-05
9.60798e-05
5.0292e-05
9.5569e-05
5.02995e-05
2.37067e-05
2.37144e-05
9.62443e-05
5.02837e-05
9.60788e-05
5.02898e-05
0.000134909
0.00015059
0.000155234
0.000152665
0.000143189
0.000162459
0.00015178
0.000131277
9.74148e-05
0.000155077
0.000156712
0.0001296
9.86903e-05
0.00015549
2.37159e-05
2.37105e-05
0.000132826
0.00016663
9.97616e-05
0.000171614
0.000132027
0.000168971
9.99587e-05
7.57056e-05
7.57691e-05
0.000155661
7.58711e-05
7.57405e-05
9.63804e-05
5.03057e-05
9.63587e-05
5.0313e-05
2.37144e-05
2.37136e-05
9.61639e-05
5.02981e-05
9.62273e-05
5.03085e-05
0.000149079
0.000163538
0.000151515
0.000158697
0.000159888
0.00016193
0.000156117
0.000133648
9.95118e-05
0.00016672
0.000170132
0.000133163
9.95585e-05
0.000169579
2.37021e-05
2.37018e-05
0.000133154
0.000172596
9.9531e-05
0.000171812
0.000133204
0.000172668
9.91699e-05
7.6083e-05
7.5851e-05
0.000158847
7.61332e-05
7.59951e-05
9.63477e-05
5.03267e-05
9.63078e-05
5.03356e-05
2.37153e-05
2.37228e-05
9.6332e-05
5.03266e-05
9.61412e-05
5.03354e-05
0.000160639
0.000160536
0.000157447
0.000161874
0.000158863
0.000155818
0.000158951
0.000133278
9.90597e-05
0.000172525
0.000170421
0.000133486
9.89014e-05
0.000172193
2.37081e-05
2.37183e-05
0.000132783
0.000170504
9.85389e-05
0.000167612
0.000132803
0.00016955
9.85062e-05
7.60856e-05
7.6067e-05
0.000160353
7.60321e-05
7.60565e-05
9.66682e-05
5.03452e-05
9.65157e-05
5.03579e-05
2.37346e-05
2.3741e-05
9.66921e-05
5.03434e-05
9.65613e-05
5.03547e-05
0.000158899
0.000154679
0.000158971
0.000160489
0.000162457
0.000159953
0.000160948
0.000134335
9.93643e-05
0.000171904
0.000171228
0.000133545
9.99164e-05
0.00017263
2.37317e-05
2.37387e-05
0.000134364
0.000169797
9.9238e-05
0.00016989
0.000133528
0.000171264
9.98583e-05
7.61194e-05
7.61593e-05
0.000161072
7.63409e-05
7.63654e-05
9.722e-05
5.03857e-05
9.69667e-05
5.03985e-05
2.37446e-05
2.37463e-05
9.72313e-05
5.0382e-05
9.69848e-05
5.03951e-05
0.000164147
0.000162669
0.000162444
0.000165868
0.000167984
0.00016797
0.000166113
0.000135909
0.000100361
0.000176717
0.000176245
0.000135423
0.000100416
0.000178131
2.37425e-05
2.37442e-05
0.000135939
0.000176685
0.000100366
0.000176381
0.000135448
0.000178283
0.00010043
7.65303e-05
7.65402e-05
0.000164157
7.64869e-05
7.64891e-05
9.72548e-05
5.04068e-05
9.72869e-05
5.04154e-05
2.3749e-05
2.3755e-05
9.72519e-05
5.04036e-05
9.72892e-05
5.04124e-05
0.000168371
0.000168473
0.000166606
0.000168568
0.000168458
0.00016866
0.000168534
0.000135966
0.000100238
0.000179948
0.000176535
0.000135989
0.000100181
0.000179913
2.37471e-05
2.37537e-05
0.000135953
0.000180132
0.000100233
0.000176575
0.00013599
0.000180033
0.00010017
7.63075e-05
7.63023e-05
0.000164701
7.64962e-05
7.64923e-05
9.76015e-05
5.04416e-05
9.73099e-05
5.04603e-05
2.37653e-05
2.37718e-05
9.76284e-05
5.04386e-05
9.73327e-05
5.04574e-05
0.000168869
0.000169143
0.000169771
0.000172421
0.000171882
0.000172375
0.000173359
0.000137091
0.000100457
0.000180948
0.000178378
0.000136408
0.000100831
0.000181905
2.37641e-05
2.37698e-05
0.000137154
0.000181048
0.00010053
0.000178671
0.000136422
0.000182071
0.000100915
7.68459e-05
7.68484e-05
0.000167585
7.6918e-05
7.69201e-05
9.79694e-05
5.04739e-05
9.79004e-05
5.04816e-05
2.37775e-05
2.37818e-05
9.79539e-05
5.04707e-05
9.79173e-05
5.04784e-05
0.000173159
0.000173585
0.000174133
0.000176348
0.000176449
0.000176202
0.000176125
0.000137977
0.00010109
0.000184992
0.000181739
0.000137757
0.000101179
0.000185796
2.37742e-05
2.37786e-05
0.000137951
0.000185219
0.000101106
0.000181714
0.000137794
0.000185911
0.000101108
7.68122e-05
7.68074e-05
0.000168652
7.67924e-05
7.67823e-05
9.81138e-05
5.04992e-05
9.79766e-05
5.05156e-05
2.37883e-05
2.37942e-05
9.81138e-05
5.04962e-05
9.79631e-05
5.05128e-05
0.000177239
0.000176846
0.000176946
0.000179515
0.000179433
0.000179416
0.000179798
0.000138647
0.00010127
0.000187633
0.00018351
0.000138256
0.000101449
0.000188212
2.37868e-05
2.37935e-05
0.000138598
0.000187348
0.000101184
0.000183249
0.00013816
0.000187943
0.00010145
7.70126e-05
7.70088e-05
0.000170341
7.71422e-05
7.71466e-05
9.84984e-05
5.0533e-05
9.83581e-05
5.05412e-05
2.38011e-05
2.38055e-05
9.85254e-05
5.05303e-05
9.83994e-05
5.05381e-05
0.000180367
0.000180573
0.000180761
0.000183595
0.000183412
0.000183718
0.000183169
0.00013956
0.000101683
0.000190414
0.000186024
0.000139214
0.000101849
0.000191262
2.37992e-05
2.38026e-05
0.000139645
0.000190571
0.000101794
0.000186374
0.000139281
0.000191508
0.000101917
7.71706e-05
7.71778e-05
0.000171976
7.71346e-05
7.71371e-05
9.857e-05
5.05535e-05
9.85268e-05
5.05669e-05
2.38108e-05
2.38169e-05
9.85576e-05
5.05502e-05
9.85278e-05
5.05637e-05
0.000184183
0.000184353
0.000183758
0.000186023
0.000186014
0.000185884
0.000185866
0.000140008
0.000101898
0.00019314
0.00018769
0.000139814
0.000101997
0.000193501
2.3808e-05
2.38146e-05
0.000139958
0.000193225
0.000101866
0.000187578
0.000139809
0.000193483
0.000101946
7.71307e-05
7.71211e-05
0.000172887
7.72881e-05
7.72826e-05
9.89746e-05
5.05871e-05
9.87683e-05
5.05962e-05
2.38241e-05
2.38279e-05
9.89841e-05
5.0584e-05
9.87745e-05
5.05933e-05
0.000186902
0.000186764
0.000186952
0.000189906
0.000190313
0.000190193
0.000190263
0.000141069
0.000102318
0.000195313
0.00019025
0.000140524
0.000102547
0.000196329
2.38219e-05
2.38256e-05
0.000141062
0.000195214
0.000102301
0.000190165
0.000140485
0.000196255
0.000102543
7.75054e-05
7.75039e-05
0.000175177
7.75362e-05
7.75357e-05
9.90251e-05
5.06051e-05
9.90378e-05
5.06142e-05
2.3831e-05
2.38353e-05
9.90256e-05
5.06022e-05
9.9043e-05
5.06112e-05
0.000191124
0.000191001
0.000190898
0.000192298
0.000192104
0.000192117
0.000192058
0.000141417
0.000102541
0.000198742
0.000191837
0.000141418
0.000102471
0.00019898
2.38288e-05
2.38335e-05
0.000141409
0.000198683
0.000102536
0.00019179
0.000141405
0.000198924
0.000102476
7.7387e-05
7.73867e-05
0.000175753
7.73429e-05
7.7343e-05
9.91672e-05
5.0633e-05
9.90067e-05
5.06479e-05
2.3844e-05
2.38505e-05
9.91852e-05
5.06301e-05
9.90287e-05
5.06449e-05
0.000192496
0.000192592
0.000192691
0.000195112
0.000195001
0.000195125
0.00019539
0.00014179
0.000102474
0.000199484
0.000192817
0.000141403
0.000102787
0.000200053
2.38421e-05
2.38481e-05
0.000141821
0.000199552
0.000102508
0.000192946
0.000141415
0.000200162
0.000102804
7.75435e-05
7.75453e-05
0.000177078
7.76875e-05
7.76879e-05
9.95773e-05
5.06641e-05
9.94267e-05
5.06712e-05
2.3856e-05
2.38593e-05
9.95729e-05
5.06608e-05
9.94284e-05
5.06679e-05
0.000196035
0.000196071
0.000196291
0.000199154
0.000199116
0.000199005
0.000199006
0.000142915
0.000103125
0.000202467
0.000195682
0.000142524
0.000103272
0.000203263
2.38535e-05
2.38573e-05
0.000142879
0.000202485
0.000103102
0.000195568
0.000142515
0.000203216
0.000103238
7.77729e-05
7.77658e-05
0.000178877
7.78175e-05
7.78135e-05
9.96073e-05
5.06768e-05
9.96236e-05
5.06806e-05
2.38622e-05
2.38648e-05
9.96195e-05
5.06739e-05
9.96318e-05
5.06781e-05
0.000200021
0.000199971
0.00019986
0.000201102
0.000201312
0.00020146
0.000201141
0.000143234
0.000103291
0.000205519
0.000197459
0.000143186
0.000103232
0.000206021
2.38604e-05
2.38627e-05
0.000143251
0.000205466
0.000103306
0.000197541
0.000143172
0.000206035
0.000103278
7.78128e-05
7.78159e-05
0.000179682
7.76877e-05
7.76924e-05
9.94197e-05
5.0694e-05
9.9429e-05
5.07143e-05
2.38715e-05
2.38799e-05
9.9422e-05
5.06911e-05
9.94486e-05
5.07104e-05
0.000201348
0.00020148
0.000201232
0.000202379
0.000202306
0.000202239
0.000202393
0.000142971
0.000102993
0.000206107
0.000197092
0.000143033
0.00010309
0.000206022
2.38688e-05
2.38774e-05
0.000142969
0.000206205
0.000103013
0.000197116
0.000143053
0.000206071
0.000103042
7.75195e-05
7.75177e-05
0.000179533
7.77239e-05
7.77176e-05
0.000100069
5.07372e-05
9.98134e-05
5.07436e-05
2.38879e-05
2.38906e-05
0.000100073
5.07337e-05
9.98065e-05
5.07404e-05
0.000203212
0.000203101
0.000203334
0.000207266
0.000207111
0.000207022
0.000207203
0.00014439
0.000103668
0.000207553
0.000200098
0.000143654
0.000103965
0.00020866
2.38858e-05
2.38885e-05
0.000144369
0.000207463
0.000103639
0.000199996
0.000143612
0.000208569
0.000103961
7.80944e-05
7.80922e-05
0.000182216
7.82139e-05
7.82144e-05
0.000100121
5.07423e-05
0.000100158
5.07405e-05
2.38904e-05
2.38914e-05
0.000100127
5.07397e-05
0.000100168
5.0738e-05
0.000208366
0.000208315
0.000208416
0.00020946
0.000209751
0.000209792
0.00020959
0.000144874
0.000104016
0.00021189
0.000202371
0.000144825
0.000103827
0.000212484
2.38881e-05
2.38892e-05
0.000144877
0.000211867
0.000104027
0.000202381
0.000144829
0.000212485
0.00010384
7.80936e-05
7.80947e-05
0.000183278
7.78744e-05
7.78736e-05
9.96402e-05
5.0751e-05
9.97058e-05
5.07731e-05
2.38982e-05
2.39073e-05
9.96507e-05
5.07481e-05
9.97185e-05
5.07697e-05
0.000209402
0.000209459
0.000209222
0.00020901
0.000208875
0.000208947
0.000208953
0.000143974
0.000103363
0.000212209
0.000201361
0.000144224
0.000103373
0.00021173
2.38962e-05
2.39053e-05
0.000143972
0.000212253
0.000103373
0.000201415
0.000144217
0.000211775
0.000103391
7.76141e-05
7.76123e-05
0.000181941
7.7796e-05
7.77962e-05
0.00010037
5.07984e-05
0.00010009
5.08045e-05
2.39155e-05
2.3918e-05
0.000100373
5.07947e-05
0.000100099
5.0801e-05
0.000209738
0.000209795
0.000209892
0.000213973
0.00021369
0.000213679
0.000213869
0.000145444
0.000104024
0.000211805
0.000203562
0.000144636
0.000104364
0.000213225
2.39131e-05
2.39155e-05
0.000145438
0.000211822
0.000104027
0.000203551
0.000144647
0.00021323
0.000104354
7.82444e-05
7.8243e-05
0.000184726
7.84108e-05
7.84081e-05
0.000100448
5.08009e-05
0.000100495
5.07983e-05
2.39177e-05
2.39185e-05
0.000100449
5.07983e-05
0.000100499
5.07958e-05
0.000215002
0.000214963
0.000215122
0.000216598
0.000217003
0.000216895
0.00021685
0.000146065
0.000104467
0.000216731
0.000206193
0.000145983
0.000104324
0.000217363
2.39152e-05
2.39163e-05
0.000146042
0.000216702
0.000104446
0.00020613
0.000145963
0.000217321
0.000104317
7.83146e-05
7.8312e-05
0.000185959
7.81055e-05
7.8105e-05
9.99575e-05
5.08041e-05
0.000100058
5.08193e-05
2.39223e-05
2.3929e-05
9.9964e-05
5.08014e-05
0.000100066
5.0816e-05
0.000216855
0.000216745
0.000216656
0.000215665
0.000215741
0.000215721
0.000215635
0.000145124
0.000103866
0.000217581
0.000205456
0.000145448
0.000103764
0.00021722
2.39204e-05
2.39272e-05
0.000145111
0.000217529
0.00010387
0.000205423
0.000145425
0.000217167
0.000103774
7.78192e-05
7.78191e-05
0.000184659
7.78652e-05
7.78654e-05
0.000100414
5.08415e-05
0.000100177
5.08494e-05
2.39375e-05
2.39414e-05
0.000100423
5.08381e-05
0.000100191
5.0846e-05
0.000215625
0.000215706
0.000215679
0.000219042
0.000218658
0.00021875
0.000218896
0.000145901
0.000104085
0.00021634
0.000205746
0.000145224
0.000104411
0.000216649
2.39354e-05
2.39391e-05
0.000145913
0.000216349
0.000104097
0.000205848
0.00014524
0.00021672
0.000104422
7.82063e-05
7.82055e-05
0.000186049
7.83659e-05
7.83649e-05
0.000100539
5.08517e-05
0.000100518
5.0852e-05
2.3943e-05
2.39441e-05
0.000100544
5.08487e-05
0.000100524
5.08492e-05
0.000219869
0.000219922
0.00022005
0.000221892
0.000222331
0.000222273
0.000222213
0.000146588
0.000104586
0.00021996
0.000208786
0.000146449
0.000104577
0.000220728
2.39404e-05
2.39416e-05
0.000146576
0.00021999
0.000104587
0.000208764
0.000146443
0.000220735
0.00010457
7.83745e-05
7.83723e-05
0.000187718
7.82546e-05
7.82517e-05
0.000100298
5.08557e-05
0.000100363
5.08639e-05
2.39464e-05
2.39506e-05
0.000100304