/*--------------------------------*- C++ -*----------------------------------*\
| =========                 |                                                 |
| \\      /  F ield         | OpenFOAM: The Open Source CFD Toolbox           |
|  \\    /   O peration     | Version:  v2012                                 |
|   \\  /    A nd           | Website:  www.openfoam.com                      |
|    \\/     M anipulation  |                                                 |
\*---------------------------------------------------------------------------*/
FoamFile
{
    version     2.0;
    format      ascii;
    class       volScalarField;
    location    "1000";
    object      p;
}
// * * * * * * * * * * * * * * * * * * * * * * * * * * * * * * * * * * * * * //

dimensions      [0 2 -2 0 0 0 0];


internalField   nonuniform List<scalar> 
85864
(
0.00167959
0.00167655
0.0016768
0.00167931
0.0016393
0.00164167
0.00164159
0.00164542
0.00160349
0.00160479
0.0016056
0.00160525
0.00156913
0.00156776
0.00156624
0.00156837
0.0015318
0.0015313
0.00153072
0.00153493
0.00149419
0.00149493
0.00149556
0.0014977
0.00145874
0.00145849
0.00145942
0.00146024
0.00142343
0.00142323
0.00142325
0.00142498
0.001388
0.0013882
0.00138719
0.0013899
0.00135226
0.00135201
0.00135208
0.00135425
0.00131664
0.00131646
0.00131673
0.00131856
0.00128104
0.00128108
0.00128116
0.00128311
0.00124584
0.00124554
0.00124546
0.00124756
0.00121021
0.00121014
0.00121012
0.00121214
0.00117492
0.00117483
0.00117482
0.00117679
0.00113953
0.0011394
0.00113939
0.0011414
0.00110417
0.00110406
0.00110408
0.00110608
0.00106883
0.00106871
0.0010687
0.0010707
0.00103341
0.00103333
0.00103332
0.00103535
0.000998086
0.00099797
0.000997978
0.000999963
0.000962628
0.00096253
0.000962532
0.000964545
0.00092727
0.000927202
0.000927196
0.0009292
0.000891895
0.000891775
0.000891777
0.000893775
0.000856378
0.000856295
0.000856297
0.000858313
0.000820948
0.000820901
0.000820894
0.000822911
0.000785604
0.00078549
0.000785496
0.000787488
0.000749996
0.000749904
0.000749903
0.000751916
0.000714482
0.000714459
0.000714457
0.000716486
0.000679099
0.000678999
0.000678997
0.000680999
0.000643417
0.000643319
0.000643323
0.000645331
0.000607798
0.000607763
0.000607765
0.000609796
0.000572268
0.000572232
0.000572227
0.000574253
0.000536592
0.000536491
0.000536491
0.000538505
0.00050087
0.000500824
0.000500828
0.000502857
0.000465171
0.000465139
0.000465135
0.000467176
0.0004294
0.000429343
0.000429347
0.000431369
0.000393631
0.00039358
0.000393579
0.000395619
0.00035782
0.000357767
0.000357764
0.000359804
0.000321852
0.000321813
0.00032182
0.000323845
0.000286075
0.000286044
0.000286036
0.000288086
0.000250094
0.000250017
0.000250024
0.000252067
0.000213906
0.000213885
0.000213878
0.000215923
0.000178197
0.000178204
0.000178204
0.000180254
0.000142222
0.000142097
0.00014211
0.000144136
0.00010586
0.000105819
0.000105801
0.000107821
6.97808e-05
6.97811e-05
6.97878e-05
7.17951e-05
3.43787e-05
3.38079e-05
3.38101e-05
3.56661e-05
6.03822e-06
6.94972e-06
6.95401e-06
5.21142e-06
0.00167935
0.00164572
0.0016774
0.00167686
0.00164779
0.00164927
0.00167877
0.00164848
0.00167753
0.00167721
0.00164777
0.00164906
0.00167744
0.00165057
0.00165249
0.0016794
0.001648
0.00167755
0.00164985
0.0016524
0.00165048
0.00164082
0.00161175
0.0016384
0.00164074
0.0016131
0.00161398
0.00164368
0.00161199
0.00163844
0.00164074
0.00161321
0.00161502
0.00164326
0.00161408
0.00161266
0.00164346
0.001613
0.0016432
0.00161518
0.00161278
0.00161032
0.00160717
0.00157697
0.00160471
0.00160494
0.00157913
0.00157793
0.00160702
0.00157512
0.00160478
0.0016057
0.00157903
0.00157663
0.00160261
0.00157712
0.0015748
0.00160782
0.00157384
0.00160272
0.00157573
0.00157454
0.0015729
0.0015721
0.00153771
0.00157017
0.00156866
0.00154048
0.00154026
0.00157015
0.00153819
0.00156998
0.0015672
0.00154028
0.00153953
0.00156636
0.00154029
0.00154176
0.0015689
0.00153757
0.001566
0.00153957
0.00154164
0.00153974
0.00153253
0.0015007
0.00153043
0.00153095
0.00150264
0.00150347
0.00153332
0.00150172
0.00153037
0.00153037
0.00150267
0.00150379
0.00153314
0.0015041
0.00150528
0.00153272
0.00150232
0.00153302
0.00150445
0.00150534
0.00150288
0.00149603
0.00146618
0.00149386
0.00149445
0.00146792
0.00146758
0.00149681
0.00146552
0.00149396
0.00149508
0.00146816
0.0014685
0.00149565
0.00146749
0.00146697
0.00149747
0.0014664
0.00149576
0.00146843
0.00146719
0.00146507
0.0014614
0.00143058
0.00145919
0.00145871
0.00143257
0.00143221
0.0014607
0.0014301
0.00145939
0.00145963
0.00143266
0.00143272
0.00145789
0.00143193
0.00143156
0.00146156
0.00143026
0.00145812
0.00143242
0.00143166
0.00142969
0.00142574
0.00139443
0.00142363
0.00142346
0.00139671
0.00139712
0.00142538
0.00139501
0.00142367
0.00142354
0.00139649
0.00139606
0.0014229
0.00139709
0.00139681
0.00142533
0.001394
0.00142293
0.00139604
0.0013966
0.00139467
0.0013896
0.00135881
0.00138772
0.00138816
0.00136094
0.0013609
0.00139017
0.00135883
0.00138747
0.00138714
0.00136086
0.00136076
0.00138801
0.00136102
0.00136131
0.00138923
0.0013588
0.00138779
0.00136086
0.00136122
0.00135909
0.00135402
0.00132336
0.00135205
0.00135192
0.00132538
0.0013253
0.001354
0.00132327
0.00135204
0.00135201
0.00132547
0.00132559
0.0013523
0.0013253
0.00132536
0.00135406
0.00132356
0.00135228
0.00132559
0.00132546
0.00132335
0.00131857
0.00128787
0.00131648
0.00131647
0.00128986
0.00128994
0.00131849
0.0012879
0.00131657
0.00131673
0.00128991
0.00129009
0.00131645
0.00128995
0.0012899
0.00131876
0.00128799
0.00131655
0.00129009
0.00128994
0.00128789
0.00128309
0.00125244
0.00128103
0.00128107
0.00125454
0.00125443
0.0012831
0.00125235
0.00128106
0.00128116
0.00125452
0.00125436
0.00128107
0.00125441
0.00125446
0.00128316
0.00125229
0.00128109
0.00125435
0.00125445
0.00125237
0.00124764
0.0012169
0.00124567
0.00124556
0.00121896
0.00121898
0.00124756
0.00121694
0.00124565
0.00124548
0.00121895
0.00121894
0.00124557
0.00121898
0.00121897
0.00124749
0.00121691
0.00124555
0.00121894
0.00121896
0.00121692
0.00121211
0.00118158
0.0012101
0.00121013
0.00118362
0.00118366
0.00121215
0.00118161
0.00121009
0.00121011
0.00118362
0.00118366
0.00121014
0.00118366
0.00118363
0.00121213
0.00118161
0.00121013
0.00118366
0.00118363
0.00118158
0.00117681
0.0011462
0.00117481
0.00117483
0.00114826
0.00114827
0.00117683
0.0011462
0.00117481
0.00117483
0.00114826
0.00114825
0.00117478
0.00114826
0.00114824
0.00117682
0.00114619
0.00117478
0.00114825
0.00114823
0.00114619
0.00114141
0.00111085
0.0011394
0.0011394
0.00111289
0.00111287
0.0011414
0.00111084
0.0011394
0.00113939
0.00111289
0.00111289
0.0011394
0.00111288
0.00111292
0.0011414
0.00111086
0.0011394
0.0011129
0.00111292
0.00111087
0.00110607
0.0010755
0.00110407
0.00110405
0.00107756
0.00107756
0.00110606
0.00107551
0.00110407
0.00110407
0.00107756
0.00107756
0.00110408
0.00107756
0.00107754
0.00110608
0.0010755
0.00110408
0.00107756
0.00107754
0.00107549
0.00107071
0.00104012
0.00106871
0.00106872
0.00104216
0.00104216
0.00107071
0.00104012
0.0010687
0.0010687
0.00104216
0.00104215
0.0010687
0.00104216
0.00104218
0.0010707
0.00104011
0.00106869
0.00104215
0.00104218
0.00104014
0.00103533
0.00100477
0.00103332
0.00103332
0.00100682
0.00100682
0.00103533
0.00100477
0.00103332
0.00103332
0.00100682
0.00100683
0.00103334
0.00100682
0.00100682
0.00103533
0.00100478
0.00103334
0.00100683
0.00100682
0.00100476
0.000999976
0.000969349
0.000997973
0.000997973
0.000971395
0.000971383
0.000999969
0.00096934
0.000997976
0.00099798
0.000971395
0.000971386
0.00099796
0.000971379
0.000971383
0.000999976
0.000969342
0.000997962
0.000971381
0.000971384
0.000969343
0.000964547
0.000933985
0.00096254
0.000962532
0.00093602
0.000936028
0.000964543
0.000933995
0.000962541
0.000962534
0.000936019
0.000936026
0.000962538
0.000936032
0.000936032
0.000964544
0.000933991
0.000962538
0.000936029
0.000936032
0.000933994
0.000929194
0.000898593
0.000927188
0.000927199
0.000900648
0.000900647
0.000929203
0.00089859
0.000927187
0.000927194
0.000900647
0.000900645
0.000927196
0.000900644
0.000900636
0.000929198
0.00089859
0.000927195
0.000900642
0.000900635
0.000898584
0.000893783
0.000863117
0.000891782
0.000891778
0.000865163
0.000865162
0.000893778
0.000863116
0.000891782
0.00089178
0.000865165
0.000865167
0.000891773
0.000865163
0.000865172
0.00089378
0.000863119
0.000891772
0.000865169
0.000865174
0.000863125
0.000858306
0.000827714
0.000856294
0.000856293
0.000829739
0.000829736
0.000858304
0.000827714
0.000856295
0.000856295
0.000829737
0.00082973
0.000856303
0.000829736
0.000829737
0.000858306
0.000827707
0.000856304
0.00082973
0.000829736
0.000827711
0.000822916
0.000792309
0.000820904
0.000820901
0.000794367
0.000794372
0.000822915
0.000792312
0.000820902
0.000820896
0.000794368
0.000794378
0.000820899
0.000794371
0.000794365
0.00082291
0.000792318
0.000820898
0.000794377
0.000794367
0.000792308
0.000787487
0.00075674
0.000785484
0.00078549
0.000758791
0.000758794
0.000787489
0.00075674
0.000785485
0.000785496
0.000758792
0.000758794
0.000785485
0.000758795
0.000758796
0.000787496
0.000756739
0.000785487
0.000758795
0.000758796
0.000756743
0.000751913
0.000721295
0.000749902
0.000749903
0.000723313
0.000723303
0.000751913
0.000721287
0.000749902
0.000749902
0.000723313
0.000723302
0.000749906
0.000723302
0.000723306
0.000751912
0.000721285
0.000749905
0.000723301
0.000723306
0.000721288
0.000716492
0.000685832
0.000714471
0.000714461
0.000687892
0.0006879
0.000716485
0.000685845
0.00071447
0.00071446
0.000687891
0.000687897
0.000714462
0.000687901
0.000687898
0.000716484
0.000685843
0.000714462
0.000687898
0.000687898
0.00068584
0.00068099
0.000650171
0.000678983
0.000678997
0.000652227
0.000652233
0.000681002
0.000650172
0.000678982
0.000678995
0.000652228
0.000652235
0.000678994
0.000652234
0.000652231
0.000681001
0.000650174
0.000678993
0.000652237
0.000652231
0.000650172
0.000645332
0.000614632
0.000643321
0.00064332
0.00061666
0.000616641
0.00064533
0.000614613
0.000643322
0.000643323
0.000616661
0.000616645
0.000643319
0.000616637
0.000616646
0.000645333
0.000614615
0.000643319
0.000616641
0.000616647
0.000614617
0.000609808
0.000579079
0.000607782
0.000607766
0.000581118
0.000581135
0.000609793
0.000579104
0.000607782
0.000607769
0.000581117
0.000581132
0.000607771
0.000581138
0.000581134
0.000609796
0.000579098
0.000607772
0.000581134
0.000581133
0.000579099
0.000574231
0.000543362
0.000572203
0.000572228
0.000545423
0.000545424
0.000574257
0.000543357
0.000572201
0.000572222
0.000545423
0.000545422
0.000572223
0.000545424
0.000545421
0.000574251
0.000543356
0.000572222
0.000545422
0.000545421
0.000543356
0.000538513
0.00050771
0.000536502
0.000536494
0.000509751
0.000509736
0.000538505
0.000507696
0.000536502
0.000536493
0.000509752
0.000509741
0.000536492
0.000509733
0.00050974
0.000538506
0.0005077
0.000536492
0.000509737
0.000509741
0.000507699
0.000502865
0.000472022
0.000500836
0.000500826
0.000474063
0.000474069
0.000502854
0.000472034
0.000500837
0.000500831
0.000474063
0.000474067
0.00050083
0.000474072
0.000474073
0.000502859
0.000472031
0.000500831
0.00047407
0.000474073
0.000472034
0.000467162
0.000436233
0.000465125
0.000465137
0.000438285
0.000438291
0.000467176
0.000436232
0.000465123
0.000465132
0.000438285
0.000438292
0.000465136
0.000438291
0.000438286
0.000467173
0.000436234
0.000465135
0.000438292
0.000438285
0.00043623
0.000431374
0.000400484
0.000429343
0.000429344
0.000402529
0.00040252
0.000431369
0.000400476
0.000429344
0.000429348
0.00040253
0.000402522
0.000429339
0.000402518
0.000402522
0.000431372
0.000400477
0.000429339
0.00040252
0.000402522
0.000400476
0.000395624
0.000364674
0.000393591
0.000393582
0.000366735
0.000366738
0.000395617
0.000364682
0.000393591
0.00039358
0.000366733
0.000366732
0.000393587
0.00036674
0.000366744
0.000395618
0.000364674
0.000393587
0.000366734
0.000366743
0.000364686
0.000359794
0.000328731
0.000357755
0.000357764
0.000330788
0.000330795
0.000359802
0.000328733
0.000357754
0.000357761
0.000330791
0.000330802
0.000357768
0.000330794
0.000330787
0.000359798
0.000328741
0.000357766
0.000330802
0.000330789
0.000328728
0.000323851
0.000292954
0.000321814
0.000321815
0.000294992
0.000294981
0.000323849
0.000292945
0.000321816
0.000321822
0.00029499
0.000294975
0.000321806
0.000294978
0.000294981
0.000323857
0.000292938
0.000321808
0.000294971
0.00029498
0.000292946
0.000288093
0.000256979
0.000286054
0.000286045
0.000259067
0.000259073
0.000288088
0.000256989
0.000286051
0.000286038
0.000259067
0.000259075
0.000286049
0.000259077
0.000259083
0.000288081
0.000256992
0.000286047
0.00025908
0.000259083
0.000256995
0.000252054
0.000220804
0.000250005
0.000250013
0.000222855
0.000222861
0.000252061
0.000220806
0.000250007
0.00025002
0.000222856
0.000222861
0.000250019
0.000222862
0.000222857
0.000252066
0.000220803
0.000250021
0.000222861
0.000222858
0.0002208
0.000215928
0.00018512
0.000213881
0.000213886
0.000187134
0.000187129
0.000215929
0.000185115
0.00021388
0.000213879
0.000187132
0.000187124
0.000213878
0.000187126
0.000187121
0.000215925
0.00018511
0.000213878
0.000187121
0.00018712
0.000185109
0.000180266
0.000149094
0.000178215
0.000178208
0.000151198
0.000151183
0.00018026
0.000149083
0.000178214
0.000178208
0.000151202
0.0001512
0.0001782
0.000151182
0.000151194
0.000180258
0.000149097
0.0001782
0.000151199
0.000151198
0.000149094
0.000144131
0.000112735
0.000142103
0.000142096
0.000114818
0.000114842
0.000144125
0.000112765
0.000142107
0.000142108
0.000114816
0.000114828
0.000142111
0.000114849
0.00011485
0.000144137
0.000112748
0.000142114
0.000114835
0.000114847
0.000112765
0.000107794
7.67914e-05
0.000105784
0.000105813
7.88052e-05
7.87976e-05
0.000107825
7.67738e-05
0.00010578
0.000105794
7.88036e-05
7.87949e-05
0.000105811
7.87918e-05
7.87753e-05
0.000107806
7.67749e-05
0.000105807
7.87896e-05
7.87746e-05
7.67603e-05
7.18259e-05
4.0637e-05
6.98081e-05
6.97892e-05
4.26872e-05
4.26728e-05
7.18029e-05
4.06232e-05
6.98087e-05
6.97958e-05
4.26894e-05
4.26785e-05
6.97738e-05
4.26687e-05
4.2677e-05
7.18095e-05
4.06275e-05
6.97747e-05
4.26756e-05
4.26792e-05
4.06316e-05
3.5666e-05
8.37364e-06
3.38204e-05
3.38093e-05
1.1364e-05
1.13761e-05
3.5658e-05
8.39182e-06
3.38198e-05
3.381e-05
1.13642e-05
1.13783e-05
3.38221e-05
1.13816e-05
1.1382e-05
3.56603e-05
8.39215e-06
3.38223e-05
1.13866e-05
1.13854e-05
8.38969e-06
5.20117e-06
6.93215e-06
6.94395e-06
5.21677e-06
6.93557e-06
6.94586e-06
6.05075e-06
6.05974e-06
6.04993e-06
6.94329e-06
5.21885e-06
6.94814e-06
0.00166529
0.00167868
0.00167912
0.00166472
0.00167995
0.00166696
0.00166524
0.00167865
0.00167914
0.0016647
0.00167791
0.00167799
0.00167773
0.00164892
0.00164858
0.00164899
0.0016514
0.00166747
0.00167997
0.00167726
0.00166736
0.00167993
0.00166754
0.00166805
0.00167993
0.00166743
0.0016673
0.00167778
0.00167983
0.00166725
0.00167996
0.00166814
0.00166755
0.00168314
0.00168316
0.00166775
0.00166894
0.00166897
0.00162957
0.00164223
0.00164266
0.0016295
0.00164431
0.00163057
0.00162983
0.00164244
0.00164293
0.00162968
0.00163984
0.00164005
0.0016424
0.00161199
0.00161282
0.00161368
0.00161369
0.00163032
0.0016449
0.00164155
0.00163262
0.0016447
0.00163061
0.00163239
0.00164506
0.00163091
0.00163076
0.0016415
0.00164532
0.00163308
0.0016448
0.00163259
0.0016312
0.00164299
0.00164303
0.0016306
0.0016276
0.00162766
0.00159419
0.00160811
0.00160759
0.00159474
0.00160743
0.00159329
0.00159381
0.00160811
0.00160754
0.00159454
0.0016039
0.00160488
0.00160367
0.00157794
0.00157758
0.00157747
0.00157537
0.00159202
0.00160662
0.00160418
0.00159555
0.00160579
0.00159265
0.00159486
0.0016065
0.00159189
0.00159156
0.00160483
0.00160618
0.00159567
0.00160589
0.00159524
0.00159151
0.00160388
0.00160389
0.00159108
0.00159124
0.00159111
0.00155641
0.00157087
0.00157082
0.00155619
0.00156961
0.00155559
0.00155579
0.00157049
0.00157014
0.00155581
0.00156879
0.00156807
0.00156642
0.0015416
0.00154103
0.00154012
0.00154052
0.00155652
0.00156934
0.00156768
0.00155846
0.00156952
0.00155597
0.00155864
0.00156822
0.00155478
0.00155581
0.00156642
0.0015681
0.00155723
0.00156862
0.00155763
0.00155506
0.00157102
0.00157084
0.00155658
0.00155814
0.00155801
0.00151891
0.00153226
0.00153257
0.00151872
0.00153288
0.00151947
0.00151907
0.00153215
0.00153246
0.00151877
0.00153168
0.00153094
0.00153185
0.00150327
0.00150397
0.00150352
0.0015049
0.00152064
0.00153353
0.00153184
0.00152226
0.00153418
0.00152011
0.00152283
0.00153314
0.00152028
0.00152082
0.00153143
0.00153359
0.00152192
0.00153403
0.00152255
0.00152068
0.00153519
0.00153514
0.00152193
0.00152092
0.00152095
0.00148347
0.00149672
0.00149668
0.00148363
0.00149687
0.00148344
0.00148401
0.00149701
0.00149715
0.00148396
0.00149481
0.00149457
0.00149579
0.00146751
0.00146743
0.00146784
0.00146788
0.0014834
0.00149709
0.00149523
0.00148576
0.00149721
0.00148342
0.00148593
0.00149823
0.00148463
0.00148398
0.00149548
0.00149808
0.00148652
0.00149772
0.0014863
0.00148442
0.00149695
0.00149705
0.00148359
0.00148284
0.00148297
0.00144798
0.00146149
0.0014613
0.00144809
0.00146124
0.00144797
0.00144822
0.00146174
0.00146172
0.00144824
0.00145845
0.00145895
0.0014586
0.00143223
0.00143184
0.00143261
0.00143173
0.00144729
0.00146081
0.00145836
0.00144956
0.00146047
0.00144758
0.00144939
0.0014618
0.00144797
0.00144767
0.00145899
0.0014615
0.00145044
0.00146102
0.00145003
0.00144789
0.00146022
0.0014603
0.00144721
0.00144706
0.0014471
0.00141229
0.00142561
0.00142567
0.00141215
0.00142577
0.00141236
0.00141183
0.0014255
0.00142545
0.00141189
0.00142308
0.00142383
0.00142296
0.00139695
0.00139694
0.00139669
0.00139667
0.00141234
0.00142553
0.00142306
0.00141454
0.00142529
0.00141242
0.00141436
0.0014249
0.00141136
0.00141183
0.00142333
0.00142489
0.00141406
0.00142507
0.00141431
0.00141148
0.00142523
0.00142517
0.00141223
0.00141214
0.00141204
0.0013764
0.00138973
0.0013898
0.00137638
0.0013898
0.00137635
0.00137621
0.00138947
0.0013894
0.00137624
0.00138822
0.00138766
0.00138787
0.00136117
0.00136145
0.00136098
0.00136137
0.00137677
0.00138995
0.00138818
0.00137918
0.00139008
0.00137654
0.00137931
0.00138925
0.00137622
0.00137646
0.00138749
0.00138932
0.0013784
0.00138954
0.00137865
0.00137629
0.00139008
0.00138997
0.00137697
0.00137673
0.00137667
0.00134087
0.00135416
0.00135412
0.00134088
0.00135409
0.00134085
0.00134103
0.00135421
0.00135422
0.00134098
0.00135241
0.00135213
0.00135245
0.00132557
0.00132544
0.00132554
0.00132558
0.00134095
0.00135411
0.00135225
0.00134306
0.00135418
0.00134088
0.00134324
0.00135435
0.00134118
0.00134114
0.00135215
0.0013543
0.00134327
0.00135426
0.00134329
0.00134118
0.00135431
0.00135433
0.00134118
0.00134093
0.00134098
0.0013054
0.00131866
0.00131868
0.00130538
0.00131872
0.00130543
0.0013055
0.00131875
0.00131883
0.00130543
0.00131653
0.00131666
0.00131662
0.00128991
0.00128997
0.00129008
0.00128996
0.00130547
0.00131867
0.00131647
0.00130762
0.00131862
0.00130546
0.0013076
0.00131896
0.00130556
0.00130561
0.00131667
0.00131891
0.00130786
0.00131881
0.00130781
0.00130562
0.00131869
0.00131873
0.00130561
0.00130541
0.00130543
0.00126991
0.00128322
0.00128318
0.00126996
0.00128312
0.00126982
0.0012699
0.00128323
0.00128319
0.00126995
0.00128116
0.00128125
0.00128113
0.00125464
0.0012546
0.0012546
0.00125462
0.00126996
0.00128312
0.0012811
0.00127219
0.00128315
0.00126986
0.00127225
0.00128313
0.00126978
0.00126994
0.00128119
0.00128313
0.00127221
0.00128316
0.00127229
0.00126983
0.00128319
0.0012832
0.00127015
0.00126988
0.00126987
0.00123443
0.0012477
0.0012477
0.00123442
0.00124768
0.00123446
0.00123441
0.00124768
0.00124767
0.0012344
0.00124574
0.00124571
0.00124574
0.00121911
0.00121906
0.00121904
0.00121907
0.00123449
0.00124763
0.00124562
0.00123667
0.00124763
0.00123447
0.00123673
0.00124762
0.00123442
0.00123446
0.00124557
0.00124757
0.00123661
0.00124759
0.00123668
0.00123442
0.00124768
0.00124767
0.00123461
0.00123444
0.00123443
0.00119908
0.0012123
0.0012123
0.00119908
0.00121235
0.00119911
0.00119907
0.00121229
0.00121228
0.00119907
0.0012102
0.00121018
0.00121023
0.00118371
0.00118374
0.00118375
0.00118376
0.00119915
0.00121231
0.00121015
0.00120131
0.00121226
0.00119913
0.00120132
0.00121233
0.00119909
0.00119914
0.00121013
0.00121229
0.0012013
0.00121224
0.00120131
0.00119912
0.00121231
0.00121231
0.00119926
0.00119903
0.00119903
0.00116368
0.00117692
0.00117693
0.00116366
0.00117692
0.00116367
0.00116368
0.00117691
0.00117693
0.00116366
0.00117493
0.00117494
0.00117492
0.0011484
0.00114841
0.00114839
0.00114835
0.00116375
0.00117689
0.00117486
0.00116598
0.00117689
0.0011637
0.00116601
0.00117691
0.00116367
0.00116374
0.00117486
0.00117688
0.00116597
0.00117688
0.00116601
0.00116369
0.00117687
0.00117687
0.00116388
0.00116366
0.00116366
0.00112833
0.00114156
0.00114154
0.00112834
0.00114155
0.00112833
0.00112833
0.00114156
0.00114154
0.00112834
0.00113954
0.00113952
0.0011395
0.00111299
0.00111299
0.001113
0.00111302
0.00112839
0.00114151
0.00113944
0.00113055
0.0011415
0.00112835
0.0011306
0.00114156
0.00112834
0.0011284
0.00113944
0.00114152
0.00113055
0.0011415
0.00113059
0.00112837
0.00114159
0.00114159
0.00112852
0.00112834
0.00112835
0.00109299
0.00110622
0.00110621
0.00109297
0.00110622
0.00109299
0.00109299
0.00110622
0.00110622
0.00109297
0.00110415
0.00110418
0.00110419
0.00107769
0.00107768
0.00107769
0.00107766
0.00109305
0.00110618
0.0011041
0.00109523
0.00110617
0.00109301
0.00109527
0.00110622
0.00109297
0.00109306
0.00110411
0.00110619
0.00109525
0.00110618
0.00109528
0.00109301
0.0011062
0.0011062
0.00109318
0.00109296
0.00109296
0.00105762
0.00107085
0.00107085
0.00105762
0.00107086
0.00105762
0.00105761
0.00107084
0.00107084
0.00105762
0.00106883
0.00106883
0.00106881
0.00104225
0.00104226
0.00104224
0.00104227
0.00105768
0.00107082
0.00106875
0.00105986
0.00107081
0.00105765
0.0010599
0.00107085
0.00105762
0.00105767
0.00106875
0.00107081
0.00105984
0.0010708
0.00105989
0.00105764
0.00107087
0.00107087
0.0010578
0.00105764
0.00105764
0.00102227
0.00103551
0.0010355
0.00102226
0.0010355
0.00102226
0.00102227
0.00103551
0.0010355
0.00102227
0.00103341
0.0010334
0.00103343
0.00100693
0.00100693
0.00100694
0.00100694
0.00102233
0.00103547
0.00103336
0.00102449
0.00103545
0.00102229
0.00102453
0.00103551
0.00102227
0.00102233
0.00103335
0.00103547
0.0010245
0.00103545
0.00102452
0.0010223
0.0010355
0.0010355
0.00102246
0.00102224
0.00102224
0.000986864
0.00100011
0.00100011
0.00098687
0.0010001
0.000986866
0.000986865
0.00100011
0.00100011
0.000986871
0.000998093
0.0009981
0.000998088
0.000971495
0.000971483
0.000971485
0.000971474
0.000986918
0.00100007
0.000998014
0.000989107
0.00100007
0.000986881
0.000989154
0.00100011
0.000986869
0.00098692
0.000998022
0.00100007
0.000989112
0.00100007
0.000989159
0.000986882
0.0010001
0.0010001
0.000987044
0.000986862
0.000986862
0.000951505
0.00096475
0.000964731
0.000951507
0.000964757
0.000951524
0.000951503
0.00096475
0.000964732
0.000951506
0.00096261
0.000962613
0.000962611
0.000936097
0.0009361
0.000936103
0.000936114
0.000951552
0.000964701
0.000962555
0.000953692
0.000964667
0.000951536
0.00095371
0.000964756
0.00095152
0.000951551
0.000962557
0.000964701
0.000953692
0.000964667
0.000953712
0.000951533
0.000964756
0.000964756
0.000951663
0.000951502
0.000951501
0.000916107
0.000929354
0.000929359
0.000916098
0.000929354
0.000916089
0.000916103
0.000929351
0.000929355
0.000916096
0.000927283
0.000927282
0.000927287
0.000900753
0.000900756
0.000900747
0.000900739
0.000916171
0.000929327
0.000927227
0.000918362
0.000929315
0.000916121
0.000918393
0.000929349
0.00091609
0.000916165
0.000927224
0.000929321
0.000918355
0.000929311
0.000918388
0.000916117
0.000929331
0.00092933
0.0009163
0.000916076
0.000916075
0.00088067
0.000893936
0.000893927
0.000880675
0.00089393
0.000880678
0.000880674
0.000893938
0.000893931
0.000880678
0.000891891
0.000891886
0.000891878
0.000865267
0.000865268
0.000865277
0.000865273
0.000880731
0.000893893
0.000891816
0.000882905
0.000893882
0.000880698
0.000882946
0.000893937
0.000880681
0.000880736
0.000891815
0.000893899
0.00088291
0.000893884
0.000882948
0.000880704
0.00089394
0.00089394
0.000880856
0.000880676
0.000880677
0.000845266
0.000858522
0.000858504
0.000845284
0.000858528
0.00084529
0.000845263
0.000858521
0.000858503
0.000845281
0.000856382
0.00085639
0.00085639
0.000829778
0.000829774
0.000829767
0.000829779
0.0008453
0.000858475
0.000856328
0.000847432
0.000858442
0.000845288
0.000847456
0.000858522
0.000845285
0.000845297
0.000856332
0.000858472
0.00084743
0.000858444
0.000847458
0.000845282
0.000858526
0.000858527
0.000845405
0.000845276
0.000845276
0.000809856
0.00082313
0.000823121
0.00080983
0.000823128
0.000809828
0.000809858
0.000823129
0.00082312
0.000809832
0.000820941
0.000820933
0.000820945
0.000794469
0.000794469
0.000794471
0.000794464
0.000809912
0.000823081
0.00082091
0.00081207
0.000823045
0.000809869
0.000812081
0.000823133
0.000809833
0.000809912
0.000820904
0.000823083
0.000812066
0.000823043
0.000812076
0.000809876
0.000823113
0.000823113
0.000810035
0.000809807
0.000809808
0.000774317
0.000787607
0.000787605
0.000774323
0.000787599
0.000774326
0.000774318
0.000787604
0.000787609
0.000774324
0.000785607
0.000785612
0.000785602
0.000758907
0.000758914
0.000758917
0.000758913
0.000774387
0.000787576
0.000785536
0.000776594
0.000787584
0.000774348
0.000776646
0.0007876
0.000774325
0.000774389
0.000785541
0.000787579
0.000776599
0.000787588
0.000776651
0.000774348
0.000787597
0.000787598
0.000774528
0.00077432
0.00077432
0.00073888
0.000752157
0.000752128
0.000738912
0.000752167
0.00073892
0.00073888
0.000752155
0.000752127
0.00073891
0.000750002
0.000750003
0.000750001
0.000723333
0.000723326
0.000723326
0.000723327
0.000738898
0.000752098
0.000749938
0.000741023
0.000752058
0.000738904
0.000741048
0.000752166
0.000738917
0.000738896
0.000749937
0.000752096
0.000741021
0.000752057
0.000741047
0.000738901
0.000752162
0.000752161
0.000738985
0.000738906
0.000738905
0.000703437
0.000716737
0.000716727
0.00070341
0.000716729
0.000703406
0.000703436
0.000716736
0.000716726
0.000703409
0.000714469
0.000714469
0.000714473
0.000687967
0.000687961
0.000687957
0.000687967
0.000703489
0.000716681
0.000714455
0.000705618
0.000716637
0.000703452
0.000705614
0.000716724
0.000703402
0.000703489
0.000714453
0.000716679
0.000705616
0.000716636
0.000705613
0.00070345
0.000716721
0.000716721
0.000703608
0.000703391
0.000703391
0.00066778
0.000681101
0.000681107
0.000667784
0.000681104
0.000667791
0.000667781
0.000681098
0.000681107
0.000667785
0.000679107
0.000679102
0.000679106
0.000652342
0.000652357
0.000652357
0.00065235
0.000667856
0.000681084
0.000679045
0.00067008
0.000681095
0.000667815
0.000670135
0.000681107
0.000667795
0.000667856
0.000679043
0.000681085
0.000670079
0.000681094
0.000670133
0.000667817
0.000681093
0.000681093
0.000668
0.000667779
0.000667779
0.000632271
0.00064558
0.000645547
0.000632302
0.000645578
0.000632297
0.000632273
0.000645581
0.00064555
0.000632305
0.000643424
0.000643426
0.000643418
0.00061669
0.000616674
0.000616677
0.000616678
0.000632283
0.000645512
0.000643354
0.000634413
0.000645475
0.000632285
0.00063444
0.000645581
0.000632299
0.000632285
0.000643356
0.000645515
0.000634417
0.000645477
0.000634443
0.000632287
0.000645578
0.000645579
0.000632372
0.000632291
0.000632292
0.000596734
0.000610063
0.000610049
0.000596722
0.000610063
0.000596733
0.000596732
0.000610063
0.00061005
0.000596721
0.00060778
0.000607782
0.000607786
0.000581148
0.000581149
0.000581149
0.000581152
0.000596777
0.000610006
0.000607765
0.000598893
0.000609956
0.000596758
0.00059889
0.000610061
0.000596728
0.000596776
0.000607767
0.000610006
0.000598893
0.000609957
0.000598891
0.000596756
0.000610053
0.000610054
0.00059688
0.000596713
0.000596712
0.000561018
0.000574377
0.000574385
0.000561019
0.000574386
0.000561019
0.000561016
0.000574375
0.000574382
0.000561017
0.000572275
0.000572274
0.000572277
0.000545525
0.000545539
0.000545535
0.000545532
0.000561089
0.000574366
0.000572246
0.000563303
0.000574368
0.000561046
0.000563336
0.000574381
0.000561017
0.000561085
0.000572244
0.000574361
0.000563298
0.000574364
0.000563333
0.000561043
0.000574373
0.000574372
0.000561224
0.000561007
0.000561006
0.000525388
0.000538732
0.00053871
0.000525409
0.000538723
0.000525402
0.000525391
0.000538733
0.000538712
0.00052541
0.000536598
0.000536595
0.000536592
0.000509795
0.000509784
0.000509787
0.000509785
0.000525413
0.000538669
0.000536528
0.000527566
0.00053864
0.000525399
0.000527595
0.000538727
0.000525408
0.000525415
0.000536526
0.000538671
0.000527567
0.00053864
0.000527595
0.000525403
0.000538725
0.000538725
0.000525517
0.000525397
0.000525397
0.000489741
0.00050311
0.000503094
0.00048974
0.000503109
0.000489748
0.000489741
0.000503111
0.000503097
0.00048974
0.000500857
0.000500861
0.000500861
0.000474097
0.000474094
0.000474094
0.000474099
0.000489782
0.000503055
0.000500832
0.000491911
0.000503012
0.000489765
0.000491917
0.00050311
0.000489745
0.000489784
0.000500836
0.000503059
0.000491915
0.000503015
0.00049192
0.000489766
0.000503102
0.000503103
0.000489883
0.000489732
0.000489732
0.000453956
0.000467352
0.000467353
0.000453959
0.000467365
0.000453969
0.000453954
0.00046735
0.00046735
0.000453958
0.000465169
0.000465168
0.000465175
0.000438351
0.000438365
0.000438363
0.000438359
0.000454014
0.000467332
0.000465147
0.000456195
0.000467312
0.000453988
0.000456212
0.000467362
0.000453969
0.000454011
0.000465145
0.000467328
0.00045619
0.000467308
0.000456209
0.000453986
0.000467352
0.000467351
0.000454132
0.000453949
0.000453948
0.000418212
0.000431598
0.00043158
0.000418228
0.000431592
0.000418221
0.000418215
0.0004316
0.000431583
0.000418229
0.000429412
0.000429413
0.000429403
0.000402568
0.000402561
0.000402565
0.000402559
0.000418241
0.000431541
0.000429366
0.000420399
0.000431509
0.000418225
0.000420417
0.000431597
0.000418221
0.000418244
0.000429367
0.000431545
0.000420403
0.000431511
0.00042042