/*--------------------------------*- C++ -*----------------------------------*\
| =========                 |                                                 |
| \\      /  F ield         | OpenFOAM: The Open Source CFD Toolbox           |
|  \\    /   O peration     | Version:  v2012                                 |
|   \\  /    A nd           | Website:  www.openfoam.com                      |
|    \\/     M anipulation  |                                                 |
\*---------------------------------------------------------------------------*/
FoamFile
{
    version     2.0;
    format      ascii;
    class       surfaceScalarField;
    location    "1000";
    object      phi;
}
// * * * * * * * * * * * * * * * * * * * * * * * * * * * * * * * * * * * * * //

dimensions      [0 3 -1 0 0 0 0];
oriented        oriented;


internalField   nonuniform List<scalar> 
248808
(
-1.13532e-06
-1.43541e-06
2.64299e-06
2.28258e-06
0.00118705
-1.23652e-06
-1.81259e-06
-1.31895e-07
0.0011376
-2.25818e-07
1.25481e-06
2.78488e-07
8.86806e-07
-1.74501e-07
-8.47503e-07
2.4321e-07
-1.21835e-06
-1.50574e-06
4.83009e-08
0.0011381
-1.79181e-07
1.2899e-06
3.43249e-07
8.47598e-07
-2.1817e-07
-8.97637e-07
2.23208e-07
1.22845e-06
1.09135e-06
-1.67608e-07
-2.47554e-07
0.000270891
4.07823e-08
5.52917e-08
-0.00118299
-1.06945e-07
-2.03422e-07
0.00118321
-0.00114352
-9.15245e-07
7.6732e-07
-2.31441e-06
0.0011446
6.90164e-08
1.57633e-06
5.56787e-07
6.83456e-07
-4.36901e-07
-1.09204e-06
2.09767e-08
-0.00114399
-9.2116e-07
5.04954e-07
-2.16968e-06
0.00114495
2.17087e-08
1.53263e-06
4.82273e-07
7.92633e-07
-3.41041e-07
-9.91511e-07
1.28335e-07
-0.000271264
1.76693e-06
1.74555e-06
-5.51144e-07
-5.44881e-07
0.000268847
1.28879e-06
6.11184e-07
-0.00118813
-1.47268e-06
-2.5841e-06
0.00119028
-0.00114353
-1.32607e-06
1.22747e-06
6.43896e-07
0.00114204
-3.85887e-07
1.09461e-06
4.14522e-08
9.26704e-07
-1.71757e-07
-8.44796e-07
2.80887e-07
-0.00114071
-1.48192e-06
2.18211e-06
1.85749e-06
0.001138
-5.09839e-07
9.30599e-07
-6.71347e-08
8.26564e-07
-2.70698e-07
-9.13877e-07
1.63617e-07
-0.000269759
1.1998e-06
9.86521e-07
-1.0896e-07
-2.32423e-07
0.000267914
-1.08841e-06
-9.29057e-07
-0.0011946
1.05564e-06
9.1198e-07
0.00119465
-0.00113724
-1.68515e-06
-1.91039e-07
2.7091e-06
0.00113629
-6.40088e-07
7.82013e-07
-1.44027e-07
8.9886e-07
-1.83493e-07
-8.21979e-07
2.27352e-07
-0.00113268
-1.58663e-06
-2.64669e-07
1.95848e-06
0.00113248
-5.48424e-07
8.6029e-07
-6.29065e-08
8.19934e-07
-2.48165e-07
-9.02739e-07
1.73555e-07
-0.000271798
8.8054e-07
9.96624e-07
-1.2083e-07
1.92729e-09
0.00027004
-1.13068e-06
-4.54861e-07
-0.00119103
9.26639e-07
2.06088e-06
0.00118963
-0.00113607
-1.10889e-06
7.70926e-08
-5.43973e-07
0.00113648
-8.21931e-08
1.36994e-06
4.05711e-07
7.35113e-07
-3.47689e-07
-1.00359e-06
8.19578e-08
-0.00113564
-9.64442e-07
-7.32629e-07
-1.68589e-06
0.00113727
3.74904e-08
1.50165e-06
5.19138e-07
7.86876e-07
-2.88387e-07
-9.57952e-07
1.52701e-07
-0.000272441
1.36208e-06
1.50738e-06
-3.72466e-07
-2.6138e-07
0.000270205
2.06442e-07
4.09258e-07
-0.0011879
-8.19504e-07
-8.23675e-08
0.00118818
-0.00113747
-1.02385e-06
7.91181e-07
-1.23065e-06
0.00113757
-5.25545e-08
1.40689e-06
3.90067e-07
7.72867e-07
-3.11638e-07
-9.73814e-07
1.26001e-07
-0.0011408
-1.00692e-06
3.52993e-07
-1.33145e-06
0.00114112
-5.44778e-08
1.42553e-06
3.93344e-07
8.5236e-07
-2.48262e-07
-9.06838e-07
2.04701e-07
-0.000270704
1.39979e-06
1.33417e-06
-2.72751e-07
-3.23398e-07
0.000268566
2.02718e-07
-2.34035e-07
-0.00119022
-9.08612e-08
-5.33157e-07
0.00119087
-0.00113759
-1.2528e-06
3.01675e-08
-5.22932e-08
0.00113762
-2.77476e-07
1.18391e-06
1.77848e-07
9.0599e-07
-1.71293e-07
-8.35813e-07
2.60112e-07
-0.0011398
-1.35226e-06
4.37508e-07
8.61819e-07
0.00113884
-3.79005e-07
1.07793e-06
7.86475e-08
9.33124e-07
-1.60228e-07
-8.05531e-07
2.71953e-07
-0.000270338
1.31274e-06
1.1073e-06
-1.55888e-07
-2.84312e-07
0.000268358
-5.6342e-08
-5.45398e-07
-0.00119191
8.26405e-07
-2.15185e-07
0.0011919
-0.00113782
-1.31142e-06
-2.89706e-07
4.60125e-07
0.00113777
-3.18766e-07
1.13952e-06
1.5099e-07
9.2579e-07
-1.60864e-07
-8.06952e-07
2.62866e-07
-0.00113583
-1.34293e-06
3.32029e-07
8.71407e-07
0.00113516
-3.36817e-07
1.09732e-06
1.33373e-07
8.45705e-07
-2.36512e-07
-8.77017e-07
1.86752e-07
-0.000270625
1.2316e-06
1.13195e-06
-1.72464e-07
-2.07292e-07
0.000268642
-1.60449e-07
7.81561e-08
-0.00119117
1.731e-07
1.97586e-07
0.00119088
-0.0011369
-1.22065e-06
1.41006e-07
2.57406e-07
0.00113651
-2.2046e-07
1.2286e-06
2.4602e-07
8.56038e-07
-2.24987e-07
-8.7283e-07
1.98215e-07
-0.00113464
-1.16002e-06
-4.85849e-08
-2.99476e-07
0.00113483
-1.69174e-07
1.27088e-06
2.92126e-07
8.44412e-07
-2.32791e-07
-8.87135e-07
1.99354e-07
-0.000270714
1.16734e-06
1.26882e-06
-2.52812e-07
-1.53308e-07
0.000268684
-9.49675e-08
1.72801e-07
-0.0011903
-2.44833e-07
2.81073e-07
0.00119018
-0.0011358
-1.18291e-06
1.19919e-07
-1.43092e-07
0.00113572
-1.95669e-07
1.25164e-06
2.59579e-07
8.56345e-07
-2.19896e-07
-8.73845e-07
2.04635e-07
-0.00113566
-1.15832e-06
-1.40192e-07
-3.34511e-07
0.00113586
-1.8321e-07
1.26402e-06
2.71041e-07
8.84602e-07
-1.95871e-07
-8.46568e-07
2.34411e-07
-0.000270537
1.23386e-06
1.23973e-06
-2.26682e-07
-2.13217e-07
0.000268503
-3.05791e-08
-9.10187e-08
-0.00118993
5.69464e-08
1.31623e-07
0.00118986
-0.00113565
-1.21293e-06
-2.59868e-09
-5.12494e-09
0.00113559
-2.27293e-07
1.22116e-06
2.29386e-07
8.77839e-07
-1.9894e-07
-8.4982e-07
2.23114e-07
-0.00113593
-1.22e-06
1.51678e-08
1.15073e-07
0.00113576
-2.39835e-07
1.20518e-06
2.18328e-07
8.83294e-07
-1.97012e-07
-8.43986e-07
2.30097e-07
-0.000270434
1.26191e-06
1.17952e-06
-1.92164e-07
-2.35892e-07
0.00026842
8.11386e-08
4.28779e-10
-0.00118982
3.07163e-09
-1.17833e-07
0.00118985
-0.00113524
-1.20783e-06
6.04424e-08
1.65469e-08
0.0011351
-2.18683e-07
1.22639e-06
2.38335e-07
8.68938e-07
-2.05533e-07
-8.55654e-07
2.14809e-07
-0.00113498
-1.20802e-06
1.22202e-07
9.13339e-08
0.00113474
-2.23392e-07
1.21578e-06
2.34017e-07
8.64925e-07
-2.12284e-07
-8.58899e-07
2.1289e-07
-0.000270404
1.24065e-06
1.18901e-06
-1.98111e-07
-2.13269e-07
0.000268386
2.21034e-08
1.94982e-08
-0.00118984
4.83685e-08
-1.48192e-09
0.00118976
-0.00113484
-1.19945e-06
-4.77861e-08
-5.11233e-08
0.00113481
-2.13592e-07
1.23084e-06
2.40286e-07
8.80622e-07
-1.91933e-07
-8.43194e-07
2.27636e-07
-0.00113438
-1.19386e-06
-3.33485e-08
-6.02773e-08
0.00113435
-2.13007e-07
1.22529e-06
2.40842e-07
8.77619e-07
-1.97485e-07
-8.46142e-07
2.27746e-07
-0.000270333
1.22758e-06
1.20072e-06
-2.05838e-07
-2.04603e-07
0.000268315
2.18467e-08
3.47969e-08
-0.00118933
3.60723e-08
4.36218e-08
0.0011892
-0.00113474
-1.19803e-06
-7.05327e-08
-3.15213e-08
0.0011347
-2.13028e-07
1.23162e-06
2.40879e-07
8.83521e-07
-1.88958e-07
-8.38313e-07
2.28987e-07
-0.00113432
-1.19199e-06
-7.65698e-08
-4.00117e-08
0.00113429
-2.12471e-07
1.22631e-06
2.41269e-07
8.83807e-07
-1.91047e-07
-8.37657e-07
2.32125e-07
-0.000270269
1.23267e-06
1.20267e-06
-2.08459e-07
-2.10676e-07
0.000268253
3.71683e-08
3.92479e-08
-0.00118888
8.2427e-09
1.16395e-08
0.00118878
-0.00113445
-1.19991e-06
-3.735e-08
4.69131e-09
0.00113434
-2.14614e-07
1.22716e-06
2.37445e-07
8.83783e-07
-1.87063e-07
-8.36596e-07
2.29999e-07
-0.00113406
-1.19372e-06
-3.69575e-08
5.28524e-10
0.00113395
-2.13685e-07
1.22234e-06
2.38384e-07
8.82679e-07
-1.90419e-07
-8.37307e-07
2.31928e-07
-0.000270214
1.22355e-06
1.18953e-06
-1.98489e-07
-2.03586e-07
0.000268203
6.89476e-08
7.75791e-08
-0.00118846
-2.60098e-08
-1.23314e-08
0.00118836
-0.00113405
-1.19749e-06
-6.93012e-08
-6.26568e-09
0.00113398
-2.1215e-07
1.22832e-06
2.39366e-07
8.82065e-07
-1.8728e-07
-8.36233e-07
2.28109e-07
-0.00113369
-1.19073e-06
-7.87704e-08
-1.65829e-08
0.00113364
-2.11353e-07
1.22393e-06
2.40037e-07
8.83198e-07
-1.88741e-07
-8.35041e-07
2.32172e-07
-0.000270195
1.22163e-06
1.18907e-06
-1.9841e-07
-2.02572e-07
0.000268186
7.61248e-08
7.01962e-08
-0.00118805
-2.12239e-08
-2.43177e-08
0.00118795
-0.00113383
-1.19163e-06
-7.2444e-08
-4.56674e-08
0.00113378
-2.07431e-07
1.23209e-06
2.42506e-07
8.83242e-07
-1.85479e-07
-8.3461e-07
2.29782e-07
-0.00113348
-1.18778e-06
-6.79694e-08
-3.16281e-08
0.00113341
-2.08891e-07
1.22485e-06
2.41139e-07
8.83075e-07
-1.88146e-07
-8.34177e-07
2.32144e-07
-0.000270161
1.22595e-06
1.18863e-06
-1.97849e-07
-2.05378e-07
0.000268149
8.30414e-08
8.04825e-08
-0.00118763
-2.45178e-08
-3.35049e-08
0.00118753
-0.00113361
-1.19374e-06
-8.57694e-08
-1.86756e-08
0.00113354
-2.09627e-07
1.22873e-06
2.39656e-07
8.84219e-07
-1.83211e-07
-8.31936e-07
2.30556e-07
-0.00113321
-1.18747e-06
-8.20333e-08
-2.3995e-08
0.00113316
-2.08762e-07
1.22399e-06
2.40483e-07
8.82932e-07
-1.86842e-07
-8.33024e-07
2.3237e-07
-0.000270135
1.21849e-06
1.18501e-06
-1.96019e-07
-2.00478e-07
0.000268128
8.74965e-08
9.58534e-08
-0.00118723
-4.99499e-08
-3.73787e-08
0.00118713
-0.00113338
-1.19041e-06
-8.32057e-08
-4.13218e-08
0.00113334
-2.06775e-07
1.23072e-06
2.41651e-07
8.83317e-07
-1.83619e-07
-8.32087e-07
2.29677e-07
-0.00113303
-1.18458e-06
-9.01796e-08
-4.62336e-08
0.00113299
-2.06597e-07
1.22543e-06
2.41811e-07
8.84058e-07
-1.85486e-07
-8.31156e-07
2.33127e-07
-0.000270114
1.22263e-06
1.1899e-06
-1.99225e-07
-2.03473e-07
0.000268105
9.34423e-08
9.08517e-08
-0.00118684
-4.22542e-08
-4.41698e-08
0.00118674
-0.00113319
-1.19002e-06
-8.83322e-08
-3.54986e-08
0.00113314
-2.06493e-07
1.22977e-06
2.40967e-07
8.8325e-07
-1.82345e-07
-8.31109e-07
2.30183e-07
-0.00113283
-1.18462e-06
-8.67524e-08
-3.22453e-08
0.00113278
-2.06538e-07
1.22419e-06
2.40919e-07
8.8316e-07
-1.84897e-07
-8.30899e-07
2.32945e-07
-0.000270088
1.21781e-06
1.18228e-06
-1.94247e-07
-2.00483e-07
0.000268082
1.03313e-07
1.01086e-07
-0.00118644
-4.80596e-08
-5.20347e-08
0.00118634
-0.00113302
-1.18961e-06
-1.15072e-07
-3.99562e-08
0.00113299
-2.06974e-07
1.22937e-06
2.40129e-07
8.85866e-07
-1.79597e-07
-8.27915e-07
2.32366e-07
-0.00113265
-1.18464e-06
-1.13066e-07
-3.6161e-08
0.00113262
-2.07489e-07
1.22321e-06
2.39615e-07
8.85512e-07
-1.82377e-07
-8.27898e-07
2.34838e-07
-0.000270083
1.21958e-06
1.18468e-06
-1.96101e-07
-2.01721e-07
0.000268076
1.01773e-07
1.01914e-07
-0.00118602
-4.96034e-08
-5.2253e-08
0.00118592
-0.00113288
-1.18817e-06
-9.68998e-08
-3.59149e-08
0.00113282
-2.05183e-07
1.22969e-06
2.41181e-07
8.84972e-07
-1.79953e-07
-8.27645e-07
2.31368e-07
-0.0011325
-1.18217e-06
-9.61609e-08
-3.9455e-08
0.00113245
-2.04546e-07
1.22469e-06
2.41794e-07
8.84385e-07
-1.82978e-07
-8.28029e-07
2.33753e-07
-0.000270064
1.21665e-06
1.18315e-06
-1.94836e-07
-1.99446e-07
0.000268059
1.08198e-07
1.12397e-07
-0.00118562
-6.33424e-08
-5.69678e-08
0.00118552
-0.00113267
-1.18796e-06
-1.11117e-07
-3.86866e-08
0.00113264
-2.05134e-07
1.2289e-06
2.40515e-07
8.84217e-07
-1.79476e-07
-8.27672e-07
2.30954e-07
-0.00113231
-1.18243e-06
-1.14378e-07
-3.89667e-08
0.00113228
-2.05286e-07
1.2233e-06
2.40361e-07
8.8468e-07
-1.81466e-07
-8.26871e-07
2.34185e-07
-0.000270058
1.21476e-06
1.18093e-06
-1.93835e-07
-1.98816e-07
0.000268055
1.28697e-07
1.24821e-07
-0.00118523
-7.83703e-08
-8.37522e-08
0.00118514
-0.00113257
-1.18516e-06
-1.21716e-07
-5.2717e-08
0.00113255
-2.03234e-07
1.23098e-06
2.4184e-07
8.84529e-07
-1.79259e-07
-8.27369e-07
2.31285e-07
-0.0011322
-1.17999e-06
-1.17548e-07
-5.01258e-08
0.00113218
-2.0345e-07
1.22519e-06
2.41752e-07
8.83474e-07
-1.82678e-07
-8.28046e-07
2.33202e-07
-0.000270067
1.21563e-06
1.18044e-06
-1.93564e-07
-1.99477e-07
0.000268064
1.07148e-07
1.1182e-07
-0.00118485
-6.01677e-08
-5.55046e-08
0.00118475
-0.00113247
-1.18793e-06
-1.15138e-07
-3.73028e-08
0.00113243
-2.05978e-07
1.22727e-06
2.38783e-07
8.87059e-07
-1.76781e-07
-8.23818e-07
2.32749e-07
-0.00113211
-1.1818e-06
-1.19691e-07
-4.24389e-08
0.00113207
-2.05479e-07
1.22226e-06
2.39187e-07
8.87572e-07
-1.78751e-07
-8.23114e-07
2.36184e-07
-0.000270059
1.21715e-06
1.18417e-06
-1.9589e-07
-2.00172e-07
0.000268054
1.13755e-07
1.12572e-07
-0.00118443
-6.2263e-08
-6.22707e-08
0.00118433
-0.0011323
-1.18428e-06
-1.14686e-07
-4.98378e-08
0.00113227
-2.01293e-07
1.23067e-06
2.42903e-07
8.83618e-07
-1.78518e-07
-8.26725e-07
2.30791e-07
-0.00113195
-1.17905e-06
-1.13414e-07
-4.67432e-08
0.00113191
-2.01463e-07
1.22493e-06
2.42804e-07
8.83341e-07
-1.81311e-07
-8.26691e-07
2.33287e-07
-0.000270052
1.21234e-06
1.17707e-06
-1.91112e-07
-1.97181e-07
0.000268051
1.52797e-07
1.51481e-07
-0.00118404
-1.04832e-07
-1.08367e-07
0.00118395
-0.00113223
-1.1828e-06
-1.43928e-07
-5.78754e-08
0.00113222
-2.02089e-07
1.23098e-06
2.41347e-07
8.86333e-07
-1.75931e-07
-8.23923e-07
2.33226e-07
-0.00113186
-1.1773e-06
-1.42893e-07
-5.71362e-08
0.00113185
-2.02156e-07
1.22535e-06
2.41214e-07
8.86143e-07
-1.78591e-07
-8.23833e-07
2.3592e-07
-0.000270074
1.21196e-06
1.17776e-06
-1.92172e-07
-1.97277e-07
0.000268073
1.1285e-07
1.13317e-07
-0.00118368
-6.6533e-08
-6.69676e-08
0.00118359
-0.00113218
-1.18804e-06
-1.21632e-07
-3.66766e-08
0.00113216
-2.06276e-07
1.22557e-06
2.37627e-07
8.8617e-07
-1.77147e-07
-8.23574e-07
2.3167e-07
-0.00113181
-1.18275e-06
-1.20961e-07
-3.64846e-08
0.00113179
-2.06365e-07
1.21985e-06
2.37627e-07
8.85703e-07
-1.80109e-07
-8.23677e-07
2.33989e-07
-0.000270085
1.21714e-06
1.18294e-06
-1.95407e-07
-2.00629e-07
0.000268081
1.10664e-07
1.1361e-07
-0.0011833
-6.29205e-08
-5.96731e-08
0.00118319
-0.00113205
-1.18243e-06
-1.15944e-07
-5.61161e-08
0.00113202
-1.99649e-07
1.23137e-06
2.43701e-07
8.83524e-07
-1.77931e-07
-8.26116e-07
2.30728e-07
-0.00113168
-1.17628e-06
-1.17834e-07
-6.0093e-08
0.00113166
-1.99084e-07
1.22648e-06
2.44223e-07
8.83549e-07
-1.80408e-07
-8.25899e-07
2.3363e-07
-0.000270074
1.21156e-06
1.17796e-06
-1.91856e-07
-1.96623e-07
0.000268073
1.6428e-07
1.63986e-07
-0.00118291
-1.20779e-07
-1.19881e-07
0.00118282
-0.00113197
-1.18257e-06
-1.45947e-07
-5.48397e-08
0.00113197
-2.02283e-07
1.2296e-06
2.40075e-07
8.8559e-07
-1.75939e-07
-8.23746e-07
2.32293e-07
-0.00113161
-1.17743e-06
-1.46069e-07
-5.20012e-08
0.00113161
-2.02713e-07
1.22364e-06
2.39641e-07
8.85625e-07
-1.78427e-07
-8.23367e-07
2.35088e-07
-0.000270102
1.20992e-06
1.17522e-06
-1.90874e-07
-1.96503e-07
0.000268104
1.18346e-07
1.15496e-07
-0.00118256
-7.03759e-08
-7.49327e-08
0.00118247
-0.00113198
-1.18646e-06
-1.37283e-07
-4.76094e-08
0.00113197
-2.05061e-07
1.22633e-06
2.38174e-07
8.85883e-07
-1.77045e-07
-8.23704e-07
2.31474e-07
-0.00113161
-1.18122e-06
-1.35109e-07
-4.56835e-08
0.0011316
-2.05204e-07
1.22052e-06
2.38048e-07
8.85421e-07
-1.79965e-07
-8.2385e-07
2.33863e-07
-0.000270129
1.21711e-06
1.18212e-06
-1.95447e-07
-2.01211e-07
0.000268126
1.10019e-07
1.12135e-07
-0.0011822
-6.54123e-08
-6.51823e-08
0.00118211
-0.0011319
-1.18379e-06
-1.07318e-07
-4.9021e-08
0.00113186
-2.01325e-07
1.22927e-06
2.41615e-07
8.82436e-07
-1.79224e-07
-8.26982e-07
2.29049e-07
-0.00113153
-1.17802e-06
-1.07622e-07
-5.11178e-08
0.0011315
-2.01054e-07
1.22401e-06
2.41903e-07
8.8213e-07
-1.82031e-07
-8.27027e-07
2.31587e-07
-0.000270122
1.2126e-06
1.17917e-06
-1.92995e-07
-1.97549e-07
0.000268121
1.5616e-07
1.58947e-07
-0.00118184
-1.16508e-07
-1.12017e-07
0.00118176
-0.00113179
-1.1827e-06
-1.42527e-07
-5.44623e-08
0.00113179
-2.02072e-07
1.22889e-06
2.39888e-07
8.85188e-07
-1.75896e-07
-8.23881e-07
2.32011e-07
-0.00113143
-1.17675e-06
-1.44646e-07
-5.69635e-08
0.00113143
-2.01723e-07
1.22378e-06
2.40208e-07
8.85334e-07
-1.78278e-07
-8.235e-07
2.35023e-07
-0.000270147
1.2097e-06
1.17585e-06
-1.91217e-07
-1.96237e-07
0.000268149
1.26293e-07
1.24223e-07
-0.0011815
-8.19009e-08
-8.34812e-08
0.00118141
-0.00113181
-1.18538e-06
-1.40018e-07
-5.19378e-08
0.00113181
-2.04122e-07
1.22683e-06
2.38602e-07
8.83986e-07
-1.78084e-07
-8.25272e-07
2.29927e-07
-0.00113145
-1.18061e-06
-1.39032e-07
-4.77235e-08
0.00113145
-2.04845e-07
1.22051e-06
2.37898e-07
8.83804e-07
-1.80759e-07
-8.25073e-07
2.32471e-07
-0.000270177
1.21542e-06
1.18021e-06
-1.94782e-07
-2.00771e-07
0.000268177
1.12545e-07
1.12259e-07
-0.00118116
-6.90201e-08
-7.18459e-08
0.00118108
-0.0011318
-1.18507e-06
-1.15011e-07
-5.06031e-08
0.00113178
-2.03156e-07
1.22755e-06
2.39531e-07
8.81495e-07
-1.80471e-07
-8.28184e-07
2.27934e-07
-0.00113143
-1.17894e-06
-1.14461e-07
-5.36166e-08
0.00113142
-2.02451e-07
1.2227e-06
2.40234e-07
8.81089e-07
-1.83397e-07
-8.28431e-07
2.30487e-07
-0.000270189
1.21497e-06
1.18115e-06
-1.95198e-07
-2.00025e-07
0.000268188
1.39927e-07
1.42004e-07
-0.00118083
-1.02981e-07
-1.00133e-07
0.00118075
-0.00113174
-1.18455e-06
-1.2908e-07
-4.76664e-08
0.00113173
-2.03558e-07
1.22739e-06
2.38771e-07
8.83655e-07
-1.78056e-07
-8.25834e-07
2.30111e-07
-0.00113138
-1.17938e-06
-1.30011e-07
-4.54328e-08
0.00113136
-2.04024e-07
1.22138e-06
2.38214e-07
8.83849e-07
-1.80363e-07
-8.25237e-07
2.33012e-07
-0.000270209
1.21139e-06
1.17725e-06
-1.92421e-07
-1.9759e-07
0.000268211
1.26405e-07
1.2372e-07
-0.00118051
-8.11591e-08
-8.5473e-08
0.00118043
-0.00113171
-1.18622e-06
-1.31041e-07
-4.78415e-08
0.00113171
-2.04923e-07
1.22561e-06
2.37443e-07
8.82828e-07
-1.79027e-07
-8.26429e-07
2.28691e-07
-0.00113134
-1.18081e-06
-1.28084e-07
-4.8186e-08
0.00113134
-2.04746e-07
1.22014e-06
2.37738e-07
8.81879e-07
-1.82426e-07
-8.27126e-07
2.30706e-07
-0.000270239
1.21538e-06
1.18062e-06
-1.94993e-07
-2.00638e-07
0.000268238
1.02612e-07
1.08753e-07
-0.00118019
-7.36179e-08
-6.62622e-08
0.00118012
-0.00113172
-1.18514e-06
-1.10953e-07
-5.75028e-08
0.00113172
-2.0298e-07
1.22745e-06
2.39652e-07
8.77855e-07
-1.83633e-07
-8.32025e-07
2.24803e-07
-0.00113136
-1.17889e-06
-1.16392e-07
-6.16001e-08
0.00113137
-2.02531e-07
1.2225e-06
2.3994e-07
8.78784e-07
-1.85273e-07
-8.30882e-07
2.28484e-07
-0.000270253
1.21658e-06
1.18362e-06
-1.97907e-07
-2.02206e-07
0.000268253
1.57442e-07
1.50172e-07
-0.00117991
-1.09182e-07
-1.16405e-07
0.00117983
-0.00113171
-1.18546e-06
-1.39576e-07
-4.15484e-08
0.0011317
-2.05776e-07
1.22636e-06
2.36266e-07
8.86549e-07
-1.76534e-07
-8.24151e-07
2.32279e-07
-0.00113135
-1.18115e-06
-1.33945e-07
-3.39381e-08
0.00113133
-2.06758e-07
1.21968e-06
2.35422e-07
8.85298e-07
-1.80146e-07
-8.24953e-07
2.33932e-07
-0.000270284
1.21144e-06
1.17495e-06
-1.90873e-07
-1.97888e-07
0.000268286
8.77518e-08
9.28121e-08
-0.00117958
-5.68925e-08
-5.42242e-08
0.00117951
-0.00113169
-1.19158e-06
-1.04736e-07
-3.46543e-08
0.00113169
-2.08494e-07
1.22083e-06
2.34643e-07
8.76271e-07
-1.84887e-07
-8.32302e-07
2.22266e-07
-0.00113132
-1.18502e-06
-1.07758e-07
-4.17827e-08
0.00113132
-2.07459e-07
1.21641e-06
2.35627e-07
8.767e-07
-1.8708e-07
-8.31779e-07
2.25556e-07
-0.000270312
1.21994e-06
1.1875e-06
-2.0099e-07
-2.04726e-07
0.000268311
9.4655e-08
9.32188e-08
-0.00117936
-6.68789e-08
-6.69117e-08
0.0011793
-0.00113169
-1.18422e-06
-9.21363e-08
-6.62108e-08
0.00113169
-2.01623e-07
1.229e-06
2.40652e-07
8.73195e-07
-1.87372e-07
-8.37961e-07
2.21293e-07
-0.00113133
-1.17967e-06
-9.08346e-08
-5.97058e-08
0.00113133
-2.02616e-07
1.22234e-06
2.39604e-07
8.72877e-07
-1.90076e-07
-8.37743e-07
2.23698e-07
-0.000270322
1.2168e-06
1.18163e-06
-1.96396e-07
-2.02404e-07
0.000268322
1.75666e-07
1.73993e-07
-0.00117906
-1.25312e-07
-1.28838e-07
0.00117897
-0.00113172
-1.18656e-06
-1.65103e-07
-4.14036e-08
0.00113174
-2.08448e-07
1.22502e-06
2.33492e-07
8.89748e-07
-1.74549e-07
-8.19981e-07
2.32501e-07
-0.00113135
-1.18036e-06
-1.63544e-07
-4.67406e-08
0.00113137
-2.0742e-07
1.2204e-06
2.34642e-07
8.8882e-07
-1.77873e-07
-8.20803e-07
2.34703e-07
-0.000270363
1.21391e-06
1.17983e-06
-1.9543e-07
-2.005e-07
0.000268365
6.93987e-08
7.95116e-08
-0.00117875
-5.57757e-08
-4.33774e-08
0.0011787
-0.00113171
-1.19437e-06
-7.33567e-08
-1.81595e-08
0.00113168
-2.09507e-07
1.21826e-06
2.33069e-07
8.72606e-07
-1.85697e-07
-8.3486e-07
2.19292e-07
-0.00113136
-1.18829e-06
-8.15141e-08
-2.13659e-08
0.00113134
-2.09411e-07
1.21303e-06
2.32878e-07
8.74252e-07
-1.86684e-07
-8.32909e-07
2.23508e-07
-0.000270387
1.21893e-06
1.1863e-06
-1.98467e-07
-2.02555e-07
0.000268383
8.02778e-08
6.52225e-08
-0.00117854
-2.90684e-08
-4.59538e-08
0.00117847
-0.00113161
-1.18501e-06
-1.0104e-07
-6.44062e-08
0.00113162
-2.01783e-07
1.22666e-06
2.38004e-07
8.72472e-07
-1.82043e-07
-8.3356e-07
2.18923e-07
-0.00113124
-1.1816e-06
-8.87952e-08
-4.94362e-08
0.00113124
-2.03469e-07
1.21907e-06
2.36377e-07
8.70442e-07
-1.86274e-07
-8.35077e-07
2.19838e-07
-0.000270388
1.21903e-06
1.18076e-06
-1.93899e-07
-2.02185e-07
0.000268384
1.60772e-07
1.67427e-07
-0.00117822
-1.33599e-07
-1.30887e-07
0.00117816
-0.00113172
-1.18478e-06
-1.37646e-07
-5.14216e-08
0.00113176
-2.05129e-07
1.22212e-06
2.29537e-07
8.72626e-07
-1.76821e-07
-8.25912e-07
2.14294e-07
-0.00113133
-1.17753e-06
-1.42594e-07
-6.40267e-08
0.00113139
-2.03373e-07
1.21842e-06
2.31316e-07
8.7275e-07
-1.79242e-07
-8.2567e-07
2.17427e-07
-0.000270428
1.21564e-06
1.18497e-06
-1.98711e-07
-2.00956e-07
0.000268427
8.56444e-08
9.51082e-08
-0.00117806
-9.01721e-08
-8.0591e-08
0.00117805
-0.00113179
-1.19591e-06
-7.39323e-08
-6.75272e-09
0.00113181
-2.09622e-07
1.20665e-06
2.19229e-07
8.58092e-07
-1.79177e-07
-8.32967e-07
1.9604e-07
-0.00113146
-1.18725e-06
-8.6024e-08
-4.46701e-09
0.00113148
-2.09379e-07
1.1987e-06
2.16599e-07
8.56167e-07
-1.78298e-07
-8.29149e-07
1.99532e-07
-0.000270488
1.21999e-06
1.18332e-06
-1.8853e-07
-1.93801e-07
0.000268467
9.60476e-07
9.59675e-07
-0.0011778
-8.08526e-07
-8.05796e-07
0.0011775
-0.00113206
-1.09207e-06
-9.87522e-07
-4.32117e-07
0.00113247
-1.17964e-07
1.3806e-06
3.17064e-07
1.01455e-06
-7.20398e-08
-7.22818e-07
3.04842e-07
-0.00113173
-1.08435e-06
-9.95333e-07
-4.37947e-07
0.00113215
-1.18405e-07
1.37463e-06
3.19412e-07
1.01135e-06
-7.76592e-08
-7.20112e-07
3.07432e-07
-0.000270581
1.12954e-06
1.08477e-06
-9.77036e-08
-1.01884e-07
0.000268566
5.45821e-06
5.45021e-06
-0.00116428
-1.17063e-05
-1.16077e-05
0.000283624
0.000285471
0.000285375
0.000285376
4.49788e-06
6.752e-06
7.16533e-06
4.50098e-06
6.75178e-06
7.16784e-06
-0.000280665
5.40577e-06
-5.44664e-06
5.94757e-06
-3.41932e-06
0.000278177
-0.000280637
-5.44815e-06
5.41016e-06
-3.42633e-06
5.9442e-06
0.000278157
-0.000271512
-5.39686e-06
-5.40907e-06
5.74948e-06
5.73729e-06
0.000270831
1.47395e-06
1.35227e-06
-3.18041e-07
-3.87273e-07
0.000268555
-1.30426e-06
-1.23573e-06
0.00027077
-0.000268633
1.86178e-07
2.17053e-07
1.67944e-06
0.00113418
-4.29635e-07
1.03847e-06
3.93838e-08
6.71316e-07
-3.87361e-07
-1.05155e-06
1.96487e-08
-9.00175e-07
3.08774e-07
-2.5641e-06
0.00113788
4.94647e-08
1.58108e-06
4.67473e-07
7.98529e-07
-2.69335e-07
-9.90406e-07
2.03401e-07
0.00113434
4.70818e-07
-0.00113358
-4.81749e-07
-1.23559e-06
3.15851e-07
-1.87677e-07
-1.12083e-06
-6.99642e-09
-4.46721e-07
6.27197e-07
9.31746e-07
0.00114218
-1.15972e-06
-0.00114096
7.2909e-07
-1.57918e-06
-1.17126e-07
-6.01202e-07
-7.5253e-07
3.74707e-07
-7.14616e-08
1.02663e-06
-2.59507e-07
-4.11137e-08
0.000269431
-1.56105e-06
0.000272588
-0.00027045
4.52155e-07
-9.65987e-08
1.30277e-06
0.00113546
-3.59554e-07
1.06795e-06
8.95422e-08
6.5928e-07
-4.1018e-07
-1.07953e-06
1.05357e-08
-8.72377e-07
6.13709e-07
-2.45433e-06
0.00113846
9.85278e-08
1.626e-06
5.40699e-07
7.64532e-07
-3.0526e-07
-1.02449e-06
1.82119e-07
0.00113535
3.77831e-07
-0.00113463
-3.50691e-07
-1.23367e-06
2.94797e-07
-2.12361e-07
-1.08845e-06
1.76687e-08
-4.21913e-07
6.59413e-07
9.84771e-07
0.00114265
-1.45629e-06
-0.00114133
4.16333e-07
-1.4965e-06
-1.0344e-07
-5.65093e-07
-6.79285e-07
4.64542e-07
1.20294e-08
1.10762e-06
-1.87702e-06
-4.02886e-07
0.0011426
-3.43585e-07
1.22387e-06
8.01176e-08
1.12169e-06
2.92685e-08
4.65269e-07
-6.52002e-07
-1.7889e-08
-0.00114179
-2.20703e-06
-9.32303e-07
5.48037e-07
5.23432e-08
-1.06228e-06
3.78794e-08
7.00846e-07
-4.07627e-07
7.25412e-07
0.00113924
1.47917e-06
-0.00114159
3.3544e-06
-1.79533e-06
-2.33746e-07
-7.46324e-07
-9.20633e-07
4.62337e-08
-3.46303e-07
7.87276e-07
-2.22226e-07
-9.81087e-09
0.000269468
-1.61312e-06
0.000272787
-0.00027062
4.86111e-07
-5.51171e-08
-1.50514e-06
-8.95975e-07
0.00114396
-2.55385e-07
1.27447e-06
1.4371e-07
1.10115e-06
5.05845e-09
4.54077e-07
-6.8409e-07
-3.57749e-07
-0.00114214
-2.5227e-06
-8.5419e-07
5.62517e-07
8.54789e-08
-9.85319e-07
1.42025e-07
7.93075e-07
-3.21242e-07
6.47337e-07
0.00114028
1.38315e-06
-0.00114267
3.52887e-06
-1.80687e-06
-2.64336e-07
-7.81336e-07
-8.8523e-07
6.91587e-08
-3.20501e-07
8.1738e-07
-0.000269656
-1.3549e-07
-9.93742e-08
1.13198e-06
1.09551e-06
-2.00614e-07
-2.04529e-07
0.000268948
-1.4111e-06
-1.54997e-06
0.00027243
-0.000270208
4.27174e-07
3.11856e-07
-1.26775e-06
0.00113571
-8.84582e-08
1.40458e-06
3.99624e-07
7.02699e-07
-3.73707e-07
-1.06571e-06
9.075e-08
-1.70987e-06
-1.27052e-06
1.66144e-06
0.00114294
-6.87147e-07
8.36027e-07
-1.70704e-07
1.03133e-06
-7.72881e-08
-7.4028e-07
3.64246e-07
0.00114137
-1.30274e-06
-0.0011395
-1.5963e-06
-1.12003e-06
3.48758e-07
-1.22244e-07
-7.82849e-07
3.77507e-07
-8.98637e-08
1.00552e-06
1.01888e-06
0.00114252
-5.90557e-07
-0.00114307
2.05917e-06
-1.58238e-06
3.53656e-08
-4.98324e-07
-8.39298e-07
2.34416e-07
-2.00807e-07
9.18751e-07
-1.66285e-08
-5.89396e-07
0.000270569
-1.28997e-06
0.000272031
-0.00027013
2.5351e-07
1.54286e-07
-1.34256e-06
0.00113676
-7.1328e-08
1.38261e-06
4.27602e-07
7.03964e-07
-3.76523e-07
-1.05881e-06
8.13327e-08
-1.71698e-06
-1.48286e-06
1.81372e-06
0.00114329
-7.45332e-07
7.87508e-07
-2.45813e-07
1.1283e-06
1.53328e-08
-6.45474e-07
4.5301e-07
0.00114272
-7.03605e-07
-0.00114077
-2.63877e-06
-9.14438e-07
5.1063e-07
4.74778e-08
-8.67511e-07
3.04179e-07
-1.75238e-07
9.29353e-07
8.15778e-07
0.00113979
2.22138e-07
-0.00114171
3.4908e-06
-1.76952e-06
-1.2003e-07
-6.6798e-07
-8.42013e-07
1.62297e-07
-2.46503e-07
8.80037e-07
2.2144e-06
3.38404e-06
0.00113643
-6.72936e-07
7.68356e-07
-1.63702e-07
6.40419e-07
-4.7003e-07
-5.69453e-08
-1.06568e-06
1.46878e-06
-0.00114455
-5.08669e-07
-1.14915e-06
2.31978e-07
-2.02934e-07
-9.29948e-07
2.19076e-07
8.55362e-07
-2.51479e-07
1.14236e-06
0.00113122
1.58658e-06
-0.00113201
7.13877e-07
-1.38033e-06
2.10408e-07
-2.84964e-07
-1.18015e-06
-6.7916e-08
-5.03859e-07
5.58579e-07
-9.85931e-09
-5.97502e-07
0.000270756
-1.07956e-06
0.000271295
-0.000269581
1.31206e-07
5.02909e-08
2.16797e-06
3.35872e-06
0.00113753
-6.66282e-07
7.38113e-07
-1.45131e-07
6.41605e-07
-4.74046e-07
-6.51023e-08
-1.05421e-06
2.30163e-06
-0.00114313
9.49677e-07
-1.34023e-06
5.54978e-08
-3.84786e-07
-9.31412e-07
1.55516e-07
8.23665e-07
-2.93938e-07
1.29834e-06
0.00113256
2.21378e-06
-0.00113331
-4.12579e-07
-1.16193e-06
3.89742e-07
-1.00164e-07
-1.25582e-06
-1.31433e-07
-5.82485e-07
4.84761e-07
-0.000267749
2.81589e-07
1.49496e-07
1.2048e-06
9.99616e-07
-6.68666e-08
-1.92412e-07
0.000270485
-1.09824e-06
-9.83979e-07
0.000271788
-0.000269987
9.24799e-08
1.88401e-07
-9.9609e-07
0.0011428
-2.19908e-07
1.32279e-06
2.51752e-07
1.0608e-06
-4.24903e-08
-7.2101e-07
4.10389e-07
-1.44192e-06
-5.87317e-08
1.57263e-06
0.00114164
-3.6611e-07
1.15542e-06
1.70201e-07
8.51963e-07
-2.66509e-07
-8.99497e-07
1.62013e-07
0.00114189
4.33909e-07
-0.00114314
1.28938e-06
-1.44648e-06
7.9892e-08
-4.19942e-07
-7.83603e-07
2.33869e-07
-1.77458e-07
9.4646e-07
1.51772e-06
0.00113818
1.74746e-06
-0.00113933
-6.62904e-07
-1.0401e-06
5.05694e-07
9.59432e-09
-1.09507e-06
-2.49485e-08
-4.60701e-07
6.53252e-07
-2.82564e-07
-2.5839e-07
0.000269804
-7.33921e-07
0.000270796
-0.000268867
-1.19755e-07
4.41924e-07
-2.04177e-06
0.00114416
-6.06089e-08
1.44878e-06
3.89512e-07
9.97644e-07
-1.16377e-07
-7.97973e-07
3.55297e-07
-1.58693e-06
9.43282e-07
2.77642e-06
0.00113765
-4.7954e-07
1.00169e-06
5.85198e-08
7.42089e-07
-3.71759e-07
-9.73285e-07
3.03996e-08
0.00114282
5.77437e-07
-0.00114425
1.44206e-06
-1.45778e-06
-2.40756e-08
-4.94098e-07
-7.50746e-07
2.92384e-07
-1.30623e-07
9.91347e-07
1.52862e-06
0.00113361
2.04086e-06
-0.00113437
-1.05064e-06
-1.00328e-06
5.45579e-07
4.92718e-08
-1.21129e-06
-1.13874e-07
-5.59251e-07
5.29368e-07
7.61616e-07
-6.09772e-07
0.00113155
-1.17632e-07
1.33075e-06
3.7801e-07
6.37099e-07
-4.21962e-07
1.78939e-08
-1.11346e-06
1.03259e-07
-0.00113865
2.89874e-06
-1.71363e-06
-2.09181e-07
-6.94961e-07
-7.81825e-07
2.70025e-07
9.4307e-07
-1.42588e-07
1.6718e-06
0.00113769
-1.47452e-06
-0.0011351
-3.0237e-06
-8.35757e-07
5.91338e-07
1.31989e-07
-8.21282e-07
3.33725e-07
-1.19379e-07
9.4685e-07
-3.81391e-07
-3.4931e-07
0.000268957
-7.63202e-07
0.00026997
-0.000267994
-1.18097e-07
4.3455e-07
1.48413e-06
-1.71565e-06
0.00113288
4.72558e-08
1.46571e-06
5.24858e-07
5.73213e-07
-4.89336e-07
-3.47377e-08
-1.18338e-06
3.5474e-07
-0.00113371
2.5081e-06
-1.66199e-06
-1.62042e-07
-6.37478e-07
-8.96247e-07
1.75496e-07
8.24783e-07
-2.43222e-07
1.54248e-06
0.00113862
-1.35556e-06
-0.00113617
-2.78379e-06
-8.68692e-07
4.73157e-07
5.01081e-08
-7.94276e-07
3.83425e-07
-8.14472e-08
9.82242e-07
-0.000269468
3.91342e-07
4.93306e-07
1.43579e-06
1.53395e-06
-3.83735e-07
-2.74377e-07
0.000269476
-1.26021e-06
-1.02003e-06
0.00027029
-0.00026835
9.80176e-08
2.42082e-07
1.53329e-06
0.00114
-3.88346e-07
1.11416e-06
1.15275e-07
8.47957e-07
-2.67279e-07
-8.73974e-07
1.47501e-07
-9.87098e-07
1.98347e-06
-1.20468e-06
0.00113722
4.35146e-08
1.54643e-06
5.19787e-07
6.44497e-07
-4.60042e-07
-1.11244e-06
-1.71167e-08
0.00113486
1.44386e-06
-0.00113614
5.136e-07
-1.26002e-06
2.58424e-07
-2.19911e-07
-1.04238e-06
3.21689e-08
-3.8817e-07
6.85158e-07
1.30053e-06
0.00113582
1.05383e-06
-0.00113606
-7.94131e-07
-1.18777e-06
2.54517e-07
-1.89e-07
-9.47341e-07
1.90574e-07
-2.63079e-07
8.20714e-07
-5.44145e-07
-2.67999e-08
0.000268695
-1.23212e-06
0.000270691
-0.000268629
2.77166e-07
1.94266e-07
2.15461e-06
0.0011408
-5.38567e-07
9.18727e-07
-5.58716e-08
9.20839e-07
-1.91454e-07
-8.10137e-07
2.30277e-07
-9.04375e-07
1.9238e-06
-1.95258e-06
0.00113342
1.2247e-07
1.60922e-06
6.0289e-07
5.63224e-07
-5.1906e-07
-1.18877e-06
-6.6911e-08
0.0011356
7.73599e-07
-0.00113685
1.66095e-06
-1.43251e-06
6.38649e-08
-4.13924e-07
-9.70113e-07
1.04725e-07
-3.17977e-07
7.57099e-07
1.44108e-06
0.00113538
3.61588e-07
-0.00113439
-1.96803e-06
-1.03283e-06
3.83947e-07
-4.8816e-08
-9.35464e-07
2.23393e-07
-2.37337e-07
8.31236e-07
-1.65487e-06
-2.77457e-06
0.00114026
6.721e-08
1.61572e-06
5.15107e-07