/*--------------------------------*- C++ -*----------------------------------*\
| =========                 |                                                 |
| \\      /  F ield         | OpenFOAM: The Open Source CFD Toolbox           |
|  \\    /   O peration     | Version:  v2012                                 |
|   \\  /    A nd           | Website:  www.openfoam.com                      |
|    \\/     M anipulation  |                                                 |
\*---------------------------------------------------------------------------*/
FoamFile
{
    version     2.0;
    format      ascii;
    class       volVectorField;
    location    "1000";
    object      U;
}
// * * * * * * * * * * * * * * * * * * * * * * * * * * * * * * * * * * * * * //

dimensions      [0 1 -1 0 0 0 0];


internalField   nonuniform List<vector> 
85864
(
(0.000191848 0.000156329 0.112876)
(8.53769e-05 -2.02831e-05 0.107909)
(-2.62211e-05 6.85864e-05 0.108007)
(-3.87594e-06 -4.10335e-05 0.105255)
(-3.29317e-05 -3.5099e-05 0.112374)
(-0.000110897 -0.00016801 0.108633)
(-0.00014624 -7.98328e-05 0.108716)
(-0.000196006 -0.000188042 0.104559)
(-0.000100221 -0.000184611 0.112977)
(-4.77573e-05 7.17577e-05 0.108504)
(0.000156939 -9.56818e-05 0.108202)
(2.06201e-05 -3.72275e-05 0.104098)
(0.000132758 0.000134664 0.11351)
(3.5011e-05 0.000216133 0.107911)
(0.000154708 2.54538e-05 0.107542)
(1.17293e-05 6.16991e-05 0.104895)
(6.47364e-05 0.000153125 0.113075)
(-3.91824e-05 -5.46529e-05 0.107875)
(-0.000134107 4.35868e-07 0.107928)
(-0.000123396 -6.44799e-05 0.105044)
(-7.08649e-05 -2.87333e-05 0.112856)
(-6.17752e-05 -9.02038e-05 0.107998)
(-9.56015e-05 -4.22432e-05 0.108366)
(-6.42789e-05 -7.79312e-05 0.104395)
(1.27284e-05 -3.13159e-05 0.113105)
(8.02351e-06 8.67406e-06 0.108002)
(7.68394e-05 -4.27802e-06 0.108204)
(-7.99803e-06 -6.44491e-05 0.104291)
(7.6733e-05 2.83044e-06 0.113235)
(2.11886e-05 4.54293e-05 0.108024)
(6.68842e-05 -7.32577e-06 0.10783)
(-1.54305e-05 -3.58046e-05 0.104401)
(5.03149e-06 2.20851e-05 0.113147)
(-1.01693e-05 1.18223e-05 0.107917)
(-2.52483e-05 -3.86491e-08 0.107762)
(-5.61596e-05 -1.00867e-05 0.104426)
(-2.09018e-05 1.82776e-05 0.113073)
(-4.31091e-06 -1.24917e-05 0.107827)
(-2.32894e-05 6.1962e-06 0.107864)
(-4.48224e-05 -3.21671e-05 0.104358)
(7.86363e-06 6.595e-06 0.11304)
(2.60264e-06 1.93163e-06 0.107816)
(1.01701e-05 9.83385e-07 0.107872)
(-2.70912e-05 -4.39678e-05 0.104323)
(3.07755e-06 -8.0528e-06 0.113035)
(-1.54382e-06 8.35332e-07 0.107772)
(4.99177e-06 -4.23616e-06 0.107776)
(-2.98336e-05 -3.54462e-05 0.104312)
(2.6043e-06 6.70537e-07 0.113032)
(6.43642e-06 -3.5956e-06 0.107739)
(-4.10006e-06 6.06552e-06 0.107729)
(-3.33347e-05 -3.06476e-05 0.104285)
(-2.49721e-07 1.07454e-06 0.11298)
(7.09307e-06 -2.8856e-06 0.10773)
(-3.29693e-06 7.45128e-06 0.107725)
(-3.42155e-05 -3.27382e-05 0.104262)
(-1.07553e-06 -7.86392e-07 0.112939)
(6.58472e-06 -6.85309e-07 0.107699)
(-1.10197e-06 6.37376e-06 0.107695)
(-2.99357e-05 -2.98827e-05 0.104243)
(-4.93534e-06 -3.86992e-06 0.112899)
(8.22739e-06 -2.13971e-06 0.107663)
(-2.78925e-06 8.76983e-06 0.107663)
(-2.97362e-05 -2.91963e-05 0.104237)
(-4.55357e-06 -5.05991e-06 0.11286)
(8.14169e-06 -4.70876e-06 0.107642)
(-3.71435e-06 7.93287e-06 0.107642)
(-2.94305e-05 -3.04315e-05 0.104224)
(-5.44407e-06 -6.01679e-06 0.11282)
(9.2149e-06 -3.14489e-06 0.107621)
(-3.61096e-06 8.95083e-06 0.107617)
(-2.83853e-05 -2.81479e-05 0.104215)
(-7.55098e-06 -6.51245e-06 0.112783)
(8.96816e-06 -4.71521e-06 0.1076)
(-4.96408e-06 9.34955e-06 0.107601)
(-2.98358e-05 -2.93138e-05 0.104208)
(-6.94282e-06 -7.19464e-06 0.112746)
(9.33183e-06 -4.58166e-06 0.107581)
(-4.41223e-06 9.26095e-06 0.107582)
(-2.74489e-05 -2.78985e-05 0.104199)
(-8.02073e-06 -8.33686e-06 0.112708)
(1.10958e-05 -4.80955e-06 0.107567)
(-4.52876e-06 1.10222e-05 0.107565)
(-2.81924e-05 -2.83875e-05 0.104198)
(-8.00152e-06 -8.12151e-06 0.112668)
(9.97951e-06 -4.78439e-06 0.107552)
(-5.07328e-06 9.89161e-06 0.10755)
(-2.7641e-05 -2.74038e-05 0.104191)
(-9.473e-06 -8.94676e-06 0.11263)
(1.08758e-05 -5.15426e-06 0.107533)
(-5.12896e-06 1.11176e-05 0.107533)
(-2.70143e-05 -2.68513e-05 0.10419)
(-1.09742e-05 -1.1436e-05 0.112593)
(1.1263e-05 -6.33294e-06 0.107525)
(-6.19492e-06 1.09285e-05 0.107523)
(-2.68126e-05 -2.71485e-05 0.104194)
(-9.18036e-06 -8.72425e-06 0.112557)
(1.12764e-05 -4.64095e-06 0.107514)
(-4.97228e-06 1.16201e-05 0.107514)
(-2.79016e-05 -2.74715e-05 0.104191)
(-9.60103e-06 -9.65969e-06 0.112517)
(1.09564e-05 -6.42906e-06 0.107498)
(-6.247e-06 1.08485e-05 0.107498)
(-2.56277e-05 -2.59802e-05 0.10419)
(-1.39252e-05 -1.41773e-05 0.112481)
(1.30063e-05 -7.09157e-06 0.107492)
(-7.0479e-06 1.29919e-05 0.107491)
(-2.59659e-05 -2.59433e-05 0.104199)
(-9.71573e-06 -9.69845e-06 0.112446)
(1.13582e-05 -4.59168e-06 0.107487)
(-4.56162e-06 1.12892e-05 0.107486)
(-2.75047e-05 -2.74934e-05 0.104203)
(-9.76854e-06 -9.47028e-06 0.112409)
(1.09185e-05 -6.9995e-06 0.107474)
(-7.30616e-06 1.10116e-05 0.107473)
(-2.58068e-05 -2.56021e-05 0.1042)
(-1.54329e-05 -1.54062e-05 0.112373)
(1.31692e-05 -7.02912e-06 0.107468)
(-6.80071e-06 1.31931e-05 0.107468)
(-2.51483e-05 -2.52924e-05 0.104212)
(-1.03951e-05 -1.0775e-05 0.11234)
(1.19974e-05 -5.49856e-06 0.107469)
(-5.3777e-06 1.18801e-05 0.107468)
(-2.72147e-05 -2.74777e-05 0.104221)
(-9.77233e-06 -9.64449e-06 0.112306)
(1.01845e-05 -6.29345e-06 0.10746)
(-6.44475e-06 1.01765e-05 0.107459)
(-2.62486e-05 -2.59597e-05 0.104219)
(-1.48791e-05 -1.45257e-05 0.112272)
(1.29943e-05 -6.95869e-06 0.107451)
(-7.15496e-06 1.31256e-05 0.107451)
(-2.5205e-05 -2.508e-05 0.10423)
(-1.16396e-05 -1.1822e-05 0.112239)
(1.19369e-05 -6.14549e-06 0.107454)
(-5.78939e-06 1.18874e-05 0.107453)
(-2.66974e-05 -2.70194e-05 0.104241)
(-1.01426e-05 -1.03153e-05 0.112208)
(1.03025e-05 -6.16415e-06 0.107452)
(-6.45467e-06 1.02599e-05 0.107451)
(-2.69572e-05 -2.68218e-05 0.104246)
(-1.33419e-05 -1.30848e-05 0.112177)
(1.1734e-05 -6.23038e-06 0.107446)
(-6.00276e-06 1.18115e-05 0.107445)
(-2.57207e-05 -2.565e-05 0.104255)
(-1.13893e-05 -1.17416e-05 0.112147)
(1.14319e-05 -5.74393e-06 0.107444)
(-5.81582e-06 1.11865e-05 0.107442)
(-2.66864e-05 -2.69011e-05 0.104266)
(-1.04164e-05 -9.75091e-06 0.112117)
(9.37442e-06 -6.68469e-06 0.107446)
(-6.95119e-06 9.80972e-06 0.107446)
(-2.79248e-05 -2.74688e-05 0.104272)
(-1.40349e-05 -1.47494e-05 0.112091)
(1.27766e-05 -5.59915e-06 0.107444)
(-5.06154e-06 1.2323e-05 0.107443)
(-2.48747e-05 -2.56504e-05 0.104285)
(-8.57425e-06 -8.21395e-06 0.11206)
(8.8149e-06 -4.23766e-06 0.107443)
(-4.7761e-06 9.07993e-06 0.107442)
(-2.91641e-05 -2.8564e-05 0.104295)
(-9.14627e-06 -9.16887e-06 0.112042)
(7.6254e-06 -7.50848e-06 0.107444)
(-6.9771e-06 7.52043e-06 0.107443)
(-2.73e-05 -2.75641e-05 0.104299)
(-1.63379e-05 -1.66409e-05 0.112014)
(1.48449e-05 -5.29844e-06 0.107449)
(-5.78991e-06 1.46493e-05 0.107447)
(-2.65488e-05 -2.65617e-05 0.104316)
(-7.62639e-06 -6.48302e-06 0.111989)
(6.4453e-06 -2.84206e-06 0.107447)
(-2.97246e-06 7.10491e-06 0.107448)
(-2.86993e-05 -2.80968e-05 0.104324)
(-5.65647e-06 -7.2103e-06 0.111972)
(8.42532e-06 -6.80255e-06 0.10744)
(-5.75799e-06 7.54929e-06 0.107439)
(-2.6444e-05 -2.78195e-05 0.104325)
(-1.7329e-05 -1.69456e-05 0.111947)
(1.08046e-05 -5.58484e-06 0.107456)
(-6.5576e-06 1.11495e-05 0.107453)
(-2.80298e-05 -2.68145e-05 0.104343)
(-1.07341e-05 -9.41019e-06 0.111944)
(3.03658e-06 1.21138e-06 0.107463)
(1.05744e-06 3.41364e-06 0.107465)
(-2.61303e-05 -2.60025e-05 0.10437)
(-1.31966e-05 -1.40065e-05 0.111939)
(6.21358e-06 -1.0612e-06 0.107466)
(-7.26125e-07 6.06028e-06 0.107467)
(-1.39998e-05 -1.4765e-05 0.104412)
(-3.4842e-05 -3.53521e-05 0.112022)
(8.96374e-05 -5.54742e-05 0.10774)
(-5.5133e-05 8.94848e-05 0.107738)
(4.29495e-05 4.28275e-05 0.104757)
(0.000104627 7.33583e-05 0.104394)
(-4.80809e-05 -3.6929e-05 0.104561)
(0.000108974 6.32213e-05 0.107802)
(0.000189202 2.32506e-05 0.107994)
(-4.30594e-05 6.12159e-05 0.107719)
(-0.000105206 -7.03039e-05 0.108424)
(6.59683e-05 6.0847e-05 0.104664)
(-9.32853e-05 -0.000139954 0.10528)
(8.32084e-05 7.73936e-05 0.107826)
(3.64956e-05 0.00019878 0.108099)
(4.687e-05 -3.05499e-05 0.107711)
(-0.000100161 -8.13016e-05 0.108499)
(0.000111566 6.75931e-06 0.108518)
(-6.76249e-05 -0.000164772 0.108495)
(-0.00010022 -0.000280861 0.108376)
(5.30751e-05 7.63647e-05 0.104697)
(-0.00015777 -7.49932e-05 0.105373)
(4.78842e-05 8.71174e-05 0.10855)
(-0.000188474 -3.35797e-05 0.108571)
(-0.000297727 -8.42724e-05 0.10837)
(-0.000126002 -0.000110833 0.104868)
(1.86121e-05 2.18919e-05 0.104482)
(-7.33216e-05 -0.00013049 0.105211)
(-9.46113e-05 2.94195e-05 0.107824)
(-0.000172527 -6.84646e-05 0.108519)
(-9.7137e-05 -5.67971e-05 0.108356)
(-0.000162153 -1.2099e-05 0.108539)
(-0.000200951 -4.71084e-05 0.105126)
(-1.85263e-05 -6.56097e-05 0.105108)
(2.47297e-05 -0.000100236 0.107816)
(-9.65644e-05 -0.000195179 0.1086)
(-1.42732e-05 -0.00017815 0.108377)
(2.21992e-05 -0.000271125 0.108379)
(-0.000146296 -0.000265521 0.108113)
(-8.39637e-05 -1.82418e-05 0.108628)
(-0.000121401 -4.1635e-05 0.107494)
(-4.92601e-05 -0.000199722 0.105222)
(-1.04078e-05 -7.00802e-05 0.104867)
(-0.00026378 -0.00013966 0.108109)
(9.22645e-05 -0.000118475 0.10846)
(4.53514e-05 -0.000163809 0.107518)
(7.25778e-05 1.00855e-05 0.104185)
(3.29885e-05 -2.20856e-05 0.105093)
(-7.46725e-06 2.32245e-05 0.105039)
(-4.16552e-05 -6.07366e-05 0.108522)
(-0.00011055 2.38942e-05 0.108469)
(0.000117834 2.69229e-05 0.108567)
(7.80819e-05 0.000129052 0.108143)
(-8.44036e-05 5.91417e-05 0.104871)
(0.000142415 0.000109308 0.104608)
(-1.73308e-05 -0.000119673 0.108548)
(7.51289e-05 -0.000192766 0.108174)
(1.9042e-05 0.000140323 0.108559)
(0.000154253 0.000111191 0.107713)
(-6.91362e-05 5.65181e-05 0.107473)
(2.96181e-05 0.000238381 0.108026)
(7.30167e-05 0.0002221 0.107971)
(0.000103835 -0.000124228 0.104587)
(0.0001038 0.000140516 0.104285)
(0.000139119 -0.000112525 0.107499)
(0.000202163 8.09637e-06 0.107599)
(0.000191481 7.93748e-05 0.107962)
(0.000122995 0.0001596 0.104938)
(7.80459e-05 0.000122934 0.104775)
(-5.38947e-05 1.21177e-05 0.104412)
(0.000117331 6.03237e-05 0.108407)
(0.000111143 0.000133982 0.10804)
(1.69951e-05 8.1016e-05 0.107867)
(4.52644e-05 4.32235e-05 0.107875)
(5.77394e-05 0.00018683 0.104426)
(4.28514e-05 -5.25397e-05 0.104539)
(3.31313e-05 0.000176444 0.108383)
(0.000140941 0.000170174 0.10767)
(3.50569e-05 0.000111044 0.107831)
(1.74907e-05 0.000130431 0.107806)
(8.42876e-05 0.000197761 0.108228)
(-1.62092e-05 1.03121e-05 0.10784)
(1.10033e-05 -1.70158e-05 0.108684)
(0.000166684 7.03113e-05 0.104157)
(-8.88691e-05 8.0716e-05 0.104605)
(0.000131624 0.000112775 0.108206)
(-7.71647e-05 1.62486e-05 0.107773)
(-0.000112174 6.0624e-05 0.108653)
(-2.77314e-05 4.00579e-05 0.105284)
(2.35585e-05 8.08722e-05 0.104256)
(-5.82255e-05 -6.2265e-05 0.10457)
(-2.12234e-05 6.3024e-05 0.107774)
(-6.91662e-06 5.58215e-06 0.107862)
(-6.21787e-05 4.08343e-06 0.107818)
(-0.000103968 -4.10546e-05 0.107891)
(-6.14835e-05 5.40628e-06 0.104411)
(-4.49104e-05 -0.000117132 0.104634)
(2.38111e-05 6.11781e-05 0.107744)
(-2.72558e-05 6.83094e-05 0.107911)
(-2.81319e-06 -4.73511e-05 0.107817)
(-7.35891e-05 -8.25236e-05 0.10822)
(-2.04822e-05 -7.44399e-05 0.108649)
(-6.98689e-05 -0.00010899 0.107983)
(-7.13426e-05 -0.000103983 0.108173)
(-3.05682e-05 -2.5674e-05 0.10453)
(-0.000130235 -3.64646e-05 0.104967)
(-0.00015707 2.0279e-05 0.108621)
(-0.000136244 -4.38783e-05 0.108315)
(-0.000120504 -6.74047e-05 0.108176)
(1.12128e-05 6.74485e-06 0.104602)
(3.08186e-05 1.71912e-05 0.104467)
(-1.15163e-05 -6.53753e-05 0.104752)
(-4.68098e-05 -7.70933e-06 0.107896)
(-9.53777e-05 -3.55558e-05 0.107913)
(3.21932e-05 -1.12771e-05 0.108078)
(2.62542e-07 3.19783e-06 0.107988)
(-0.000119268 -2.40063e-05 0.104492)
(5.76855e-05 -3.76785e-05 0.104644)
(-3.46789e-06 -5.63952e-05 0.107906)
(-5.7984e-05 -9.53095e-05 0.108278)
(1.98637e-05 -3.3154e-05 0.10811)
(7.53747e-06 -6.12197e-05 0.108275)
(-6.94925e-05 -8.57188e-05 0.108008)
(-7.08328e-06 -1.31435e-05 0.108002)
(-2.15989e-05 -3.07319e-05 0.107759)
(-2.78772e-05 -0.000118924 0.104809)
(-2.03796e-05 3.72519e-05 0.104801)
(-7.95961e-05 -7.64154e-05 0.10802)
(4.44255e-05 -1.06669e-05 0.108288)
(3.46563e-05 -5.39123e-05 0.107789)
(6.76647e-05 1.31061e-05 0.104423)
(7.56388e-05 2.05047e-05 0.104589)
(-2.40916e-05 -5.75786e-05 0.104594)
(5.24726e-05 -7.89463e-06 0.108089)
(2.69999e-05 1.36483e-05 0.108012)
(5.237e-05 2.87414e-06 0.108009)
(4.24264e-05 1.76904e-05 0.108064)
(-1.54547e-05 5.36474e-05 0.104496)
(7.91975e-05 -1.29799e-05 0.104657)
(2.80667e-05 -2.36447e-05 0.108125)
(2.64167e-05 -4.47204e-05 0.108217)
(3.04673e-05 -8.09767e-06 0.108034)
(5.07758e-05 -2.29486e-06 0.107946)
(-5.34042e-06 -2.04731e-05 0.107749)
(2.60932e-05 4.24015e-05 0.108024)
(1.89092e-05 3.80734e-08 0.107824)
(7.70235e-05 -4.14077e-05 0.104598)
(1.70634e-06 6.64038e-05 0.104472)
(5.58351e-05 -4.28114e-05 0.107782)
(8.73996e-05 -6.86408e-06 0.107907)
(5.77243e-05 -7.71763e-06 0.107849)
(7.15587e-05 4.02462e-05 0.104532)
(5.12376e-05 2.90713e-05 0.104425)
(-7.09762e-05 -2.649e-05 0.104503)
(3.38833e-05 6.9463e-06 0.107969)
(2.88652e-05 1.5979e-05 0.10806)
(-2.43569e-05 1.02151e-05 0.107886)
(-1.15888e-05 9.08543e-06 0.107961)
(-9.97265e-06 6.8471e-05 0.104498)
(4.16288e-05 -4.29894e-05 0.104541)
(2.32707e-05 -1.48183e-06 0.107983)
(4.45889e-05 7.71317e-06 0.107865)
(-1.07969e-05 2.26011e-05 0.107864)
(6.64306e-06 1.94856e-05 0.107756)
(1.79352e-05 8.41994e-06 0.107862)
(-4.46986e-06 2.44222e-05 0.107956)
(1.12375e-06 2.85753e-05 0.107941)
(7.69793e-05 -1.74607e-05 0.104307)
(-5.04077e-05 4.88172e-05 0.104417)
(4.13727e-05 2.45709e-06 0.107876)
(-8.33334e-06 -2.78252e-06 0.107749)
(-1.68152e-05 2.18734e-05 0.107919)
(2.78781e-05 7.09075e-05 0.104575)
(8.94146e-06 5.56153e-05 0.104358)
(-5.27325e-05 -3.31401e-05 0.104483)
(-3.14452e-05 8.59252e-06 0.107873)
(-1.66472e-05 6.20703e-06 0.107914)
(-1.45145e-05 1.6036e-06 0.107845)
(-1.00683e-05 -3.45447e-06 0.107823)
(-4.27214e-05 3.44254e-05 0.10438)
(3.67992e-05 -5.45946e-05 0.104472)
(-1.81731e-05 2.70369e-05 0.107846)
(-4.14914e-06 1.91551e-05 0.10776)
(-1.6539e-05 2.03601e-05 0.107829)
(-1.60738e-05 9.68396e-06 0.107827)
(-3.15909e-06 2.85076e-05 0.107944)
(-7.45067e-06 -1.21772e-05 0.107837)
(-6.60581e-06 7.21714e-06 0.107891)
(2.32918e-05 -3.16394e-05 0.10429)
(-6.07929e-05 4.34508e-05 0.104517)
(-2.92496e-05 2.30705e-05 0.107917)
(-3.14573e-05 5.67013e-06 0.107841)
(-2.92822e-05 1.17968e-05 0.107876)
(3.19275e-05 5.24278e-05 0.104507)
(3.14524e-05 4.35263e-05 0.10434)
(-3.50088e-05 -5.11244e-05 0.104459)
(-4.68398e-06 5.0118e-08 0.107834)
(-5.72025e-06 -4.40065e-06 0.107814)
(8.74341e-06 -2.60979e-07 0.107803)
(-1.29427e-07 -3.31974e-06 0.107814)
(-4.16238e-05 2.63563e-05 0.104332)
(4.32545e-05 -4.34964e-05 0.104475)
(-1.02781e-05 1.41987e-05 0.107827)
(-1.46102e-05 5.33215e-06 0.107851)
(7.71824e-06 -6.53683e-06 0.107812)
(-3.98039e-06 -7.27706e-06 0.107879)
(-4.89945e-06 -4.94254e-07 0.107866)
(2.43982e-06 -1.98062e-06 0.107819)
(4.69592e-07 -9.11092e-06 0.107813)
(2.18064e-05 -3.68141e-05 0.104386)
(-4.19907e-05 4.13157e-05 0.104524)
(-2.04299e-05 5.74115e-06 0.107859)
(4.67344e-06 2.86516e-06 0.107884)
(6.42437e-06 -7.56495e-06 0.107823)
(5.12271e-05 3.47862e-05 0.104463)
(4.33391e-05 2.67272e-05 0.104319)
(-4.35893e-05 -5.15117e-05 0.104457)
(7.21404e-06 -4.76477e-07 0.107796)
(-1.9022e-06 -2.32605e-06 0.107812)
(-3.93288e-07 -5.7647e-06 0.107792)
(-6.63308e-06 1.1526e-07 0.107781)
(-3.58503e-05 3.63855e-05 0.104333)
(4.12965e-05 -4.34461e-05 0.104435)
(9.40735e-06 -1.17331e-05 0.107807)
(-9.73334e-07 -1.04837e-05 0.107869)
(3.71884e-07 -1.31143e-05 0.1078)
(3.16919e-06 -1.18278e-05 0.107797)
(1.73752e-06 -8.10945e-06 0.107805)
(-1.1623e-06 3.3391e-06 0.107786)
(4.25336e-06 -3.73778e-06 0.107792)
(3.90086e-05 -3.87348e-05 0.104374)
(-4.26076e-05 4.09434e-05 0.104433)
(1.11252e-05 -8.1608e-06 0.107816)
(8.98055e-06 -4.21395e-06 0.107801)
(8.99269e-06 -1.64553e-06 0.1078)
(4.97009e-05 4.19262e-05 0.104451)
(3.4017e-05 2.82274e-05 0.104319)
(-4.56583e-05 -4.32059e-05 0.104431)
(-7.0588e-07 -7.03504e-06 0.107792)
(-4.65575e-06 -6.61983e-08 0.107768)
(1.65744e-06 -5.34337e-06 0.107773)
(6.65004e-06 -3.29047e-06 0.107741)
(-3.62926e-05 3.39798e-05 0.104293)
(4.86092e-05 -4.56158e-05 0.104412)
(-3.22795e-06 -8.94124e-06 0.107798)
(2.74677e-06 -8.41892e-06 0.107771)
(-6.18702e-06 3.19919e-06 0.107774)
(-2.57055e-06 6.37172e-06 0.107731)
(4.48011e-06 -2.51113e-06 0.107787)
(4.14877e-06 -3.86631e-06 0.107743)
(5.03997e-06 1.14429e-06 0.10776)
(3.49588e-05 -3.68947e-05 0.104288)
(-4.5167e-05 4.79361e-05 0.104402)
(5.66803e-06 8.30076e-07 0.107793)
(-3.69903e-06 3.32692e-06 0.107733)
(-3.4002e-07 5.81929e-06 0.107761)
(4.44581e-05 4.68367e-05 0.104423)
(3.19573e-05 3.46978e-05 0.104291)
(-4.5187e-05 -4.33266e-05 0.104396)
(1.40378e-06 -4.4726e-06 0.10776)
(8.39327e-06 -4.39081e-06 0.107738)
(-1.39401e-06 -4.40189e-06 0.107725)
(3.72173e-06 -7.03728e-06 0.107731)
(-2.8256e-05 3.18686e-05 0.104278)
(4.56103e-05 -4.55219e-05 0.104409)
(-5.90359e-06 4.2071e-06 0.107761)
(-4.18336e-06 8.75464e-06 0.107729)
(-5.74246e-06 1.13861e-06 0.107725)
(-7.40874e-06 4.35713e-06 0.107725)
(5.57531e-06 1.82365e-06 0.10775)
(8.10111e-06 -2.78954e-06 0.107733)
(5.48305e-06 4.0485e-07 0.107726)
(3.20716e-05 -2.86999e-05 0.104269)
(-4.55612e-05 4.56894e-05 0.104405)
(-9.09783e-07 6.96687e-06 0.107751)
(-3.48236e-06 8.51319e-06 0.107727)
(-2.1001e-06 6.84244e-06 0.107726)
(4.25097e-05 4.43728e-05 0.104397)
(3.16411e-05 3.31248e-05 0.104261)
(-4.51769e-05 -4.51061e-05 0.104381)
(-2.01281e-06 -4.85134e-06 0.107716)
(1.27887e-06 -7.43256e-06 0.107727)
(-2.48272e-06 -5.37428e-06 0.107697)
(-5.98891e-09 -6.95522e-06 0.107705)
(-3.2028e-05 3.10646e-05 0.104274)
(4.47519e-05 -4.53818e-05 0.104387)
(-5.84347e-06 -2.29719e-07 0.107717)
(-7.70915e-06 1.66429e-06 0.107722)
(-5.50283e-06 -2.33145e-06 0.107698)
(-6.75851e-06 1.29137e-07 0.107702)
(4.52129e-06 -2.13274e-07 0.107717)
(5.86144e-06 -1.48394e-06 0.107709)
(3.97397e-06 2.71782e-06 0.10769)
(3.10205e-05 -3.19371e-05 0.104271)
(-4.54327e-05 4.47711e-05 0.104385)
(-1.98584e-06 5.51755e-06 0.107718)
(-1.64262e-06 5.67212e-06 0.107705)
(2.56109e-06 4.08781e-06 0.107691)
(4.55112e-05 4.55627e-05 0.104375)
(3.05754e-05 3.06313e-05 0.104248)
(-4.64398e-05 -4.58123e-05 0.104365)
(-2.99505e-06 -5.75427e-06 0.10769)
(1.29351e-06 -6.62853e-06 0.107696)
(-4.36275e-06 -7.81715e-06 0.107669)
(3.47332e-06 -6.74946e-06 0.107668)
(-3.07881e-05 3.10087e-05 0.104253)
(4.60926e-05 -4.44225e-05 0.104363)
(-5.83747e-06 -2.84728e-06 0.107691)
(-6.46293e-06 1.69136e-06 0.107693)
(-8.26518e-06 -3.44769e-06 0.10767)
(-7.12696e-06 4.32665e-06 0.107667)
(5.22287e-06 4.32422e-06 0.107682)
(8.31343e-06 -9.60986e-07 0.10767)
(9.0299e-06 5.35304e-06 0.107668)
(3.08391e-05 -3.06769e-05 0.104251)
(-4.48162e-05 4.64684e-05 0.104363)
(4.16911e-06 5.29494e-06 0.107684)
(-1.84916e-06 8.64275e-06 0.107669)
(4.4667e-06 9.46116e-06 0.107669)
(4.59093e-05 4.65167e-05 0.104366)
(2.91064e-05 2.9657e-05 0.104235)
(-4.42382e-05 -4.50848e-05 0.104353)
(-4.16303e-06 -8.44639e-06 0.107663)
(3.28955e-06 -7.22238e-06 0.10766)
(-2.04622e-06 -8.82319e-06 0.107646)
(3.19967e-06 -8.71426e-06 0.107643)
(-2.96036e-05 3.06181e-05 0.104232)
(4.46678e-05 -4.59833e-05 0.104352)
(-8.93681e-06 -3.33125e-06 0.107664)
(-7.78736e-06 3.91702e-06 0.107661)
(-8.56739e-06 -2.98314e-06 0.107648)
(-8.8228e-06 2.43601e-06 0.107644)
(9.24536e-06 4.27616e-06 0.107664)
(7.86032e-06 -4.81231e-06 0.107647)
(8.12827e-06 1.57653e-06 0.107647)
(3.0289e-05 -2.93021e-05 0.104233)
(-4.56247e-05 4.43723e-05 0.104352)
(3.46605e-06 9.72642e-06 0.107666)
(-4.02478e-06 8.04062e-06 0.107648)
(2.49489e-06 7.87019e-06 0.107649)
(4.50556e-05 4.42091e-05 0.104353)
(3.05686e-05 2.95555e-05 0.104224)
(-4.56207e-05 -4.5673e-05 0.10434)
(-1.86283e-06 -8.58542e-06 0.10764)
(3.60996e-06 -8.87355e-06 0.107639)
(-4.16516e-06 -8.57134e-06 0.107622)
(4.09348e-06 -8.62432e-06 0.107624)
(-2.98787e-05 2.8795e-05 0.104224)
(4.56403e-05 -4.48957e-05 0.104342)
(-8.01391e-06 -3.27595e-06 0.107642)
(-8.57526e-06 2.6239e-06 0.107639)
(-8.24987e-06 -4.55998e-06 0.107623)
(-8.17503e-06 4.083e-06 0.107621)
(8.05071e-06 1.96641e-06 0.10764)
(9.15768e-06 -3.21704e-06 0.107626)
(9.21163e-06 4.94582e-06 0.107623)
(2.92274e-05 -3.02721e-05 0.104224)
(-4.49602e-05 4.56022e-05 0.104339)
(3.35984e-06 7.48581e-06 0.107642)
(-3.24287e-06 8.61933e-06 0.107623)
(5.36217e-06 8.88043e-06 0.107624)
(4.60035e-05 4.59379e-05 0.104341)
(2.83474e-05 2.85874e-05 0.104214)
(-4.50354e-05 -4.43063e-05 0.104333)
(-4.85274e-06 -8.883e-06 0.107617)
(3.84199e-06 -8.65432e-06 0.107618)
(-4.36694e-06 -9.48386e-06 0.107604)
(3.38914e-06 -9.41621e-06 0.107601)
(-2.86805e-05 2.92909e-05 0.104215)
(4.43104e-05 -4.52069e-05 0.104331)
(-8.9567e-06 -4.47626e-06 0.107618)
(-8.51658e-06 4.27076e-06 0.107615)
(-1.01274e-05 -3.34871e-06 0.107605)
(-9.78257e-06 3.94485e-06 0.107601)
(9.58914e-06 5.30861e-06 0.107619)
(9.03751e-06 -4.3967e-06 0.107605)
(9.34126e-06 3.31833e-06 0.107606)
(2.90933e-05 -2.86064e-05 0.104213)
(-4.52989e-05 4.45161e-05 0.104331)
(4.97058e-06 9.65112e-06 0.10762)
(-4.9274e-06 9.45827e-06 0.107604)
(2.29186e-06 9.97933e-06 0.107607)
(4.38462e-05 4.45761e-05 0.104333)
(2.88146e-05 2.93228e-05 0.104208)
(-4.50002e-05 -4.54508e-05 0.104324)
(-3.90174e-06 -9.25271e-06 0.1076)
(3.39958e-06 -9.58157e-06 0.107597)
(-4.56497e-06 -9.11808e-06 0.107585)
(4.21046e-06 -9.38701e-06 0.107583)
(-2.93498e-05 2.83468e-05 0.104206)
(4.49812e-05 -4.50757e-05 0.104324)
(-9.72711e-06 -3.29135e-06 0.107601)
(-9.83809e-06 3.68746e-06 0.107597)
(-8.9321e-06 -5.05528e-06 0.107587)
(-9.38797e-06 4.01561e-06 0.107584)
(8.91557e-06 2.83017e-06 0.1076)
(9.02987e-06 -4.73805e-06 0.107586)
(8.69064e-06 4.59472e-06 0.107582)
(2.83301e-05 -2.92258e-05 0.104207)
(-4.51163e-05 4.49471e-05 0.104324)
(2.19145e-06 9.38125e-06 0.107601)
(-4.56934e-06 9.02822e-06 0.107587)
(5.07726e-06 8.50304e-06 0.107583)
(4.5491e-05 4.50415e-05 0.104321)
(2.80169e-05 2.75588e-05 0.104201)
(-4.43631e-05 -4.45628e-05 0.104319)
(-4.92445e-06 -9.62405e-06 0.10758)
(4.78705e-06 -9.33992e-06 0.107579)
(-4.09425e-06 -1.05558e-05 0.107568)
(5.92524e-06 -1.00814e-05 0.107567)
(-2.79383e-05 2.81127e-05 0.104201)
(4.54299e-05 -4.44431e-05 0.104319)
(-9.38785e-06 -5.44986e-06 0.107582)
(-9.37373e-06 4.57222e-06 0.107579)
(-1.04469e-05 -4.44189e-06 0.10757)
(-1.00814e-05 5.68525e-06 0.107566)
(9.30769e-06 5.32991e-06 0.107577)
(1.08719e-05 -4.5976e-06 0.107569)
(1.11178e-05 4.60229e-06 0.107568)
(2.80782e-05 -2.80283e-05 0.104201)
(-4.43081e-05 4.53296e-05 0.104318)
(5.86955e-06 9.0681e-06 0.107579)
(-4.35401e-06 1.08252e-05 0.107568)
(4.97364e-06 1.10028e-05 0.107569)
(4.47526e-05 4.4545e-05 0.104319)
(2.84789e-05 2.82747e-05 0.104197)
(-4.47802e-05 -4.46551e-05 0.104313)
(-3.81123e-06 -1.03172e-05 0.107564)
(5.63399e-06 -1.04448e-05 0.107564)
(-4.91628e-06 -1.00396e-05 0.107552)
(3.84641e-06 -1.0699e-05 0.107554)
(-2.7448e-05 2.8159e-05 0.104198)
(4.40525e-05 -4.49156e-05 0.104315)
(-1.02074e-05 -4.16791e-06 0.107566)
(-1.03235e-05 5.37996e-06 0.107563)
(-1.00073e-05 -4.89408e-06 0.107553)
(-1.0459e-05 3.96999e-06 0.107552)
(1.09348e-05 3.88549e-06 0.107564)
(1.019e-05 -4.89125e-06 0.107557)
(9.56601e-06 4.3804e-06 0.107551)
(2.83294e-05 -2.75617e-05 0.104197)
(-4.49625e-05 4.41155e-05 0.104314)
(4.24187e-06 1.08189e-05 0.107566)
(-5.0064e-06 1.00202e-05 0.107555)
(4.33547e-06 9.53223e-06 0.107552)
(4.43669e-05 4.45062e-05 0.104311)
(2.72733e-05 2.74881e-05 0.104192)
(-4.49313e-05 -4.46216e-05 0.104308)
(-5.42174e-06 -1.02804e-05 0.107548)
(3.89222e-06 -1.05365e-05 0.107549)
(-5.72404e-06 -1.05626e-05 0.107536)
(5.6463e-06 -1.02549e-05 0.107534)
(-2.81633e-05 2.73688e-05 0.104194)
(4.50773e-05 -4.43398e-05 0.104308)
(-1.03957e-05 -5.11079e-06 0.107549)
(-1.045e-05 4.17817e-06 0.107547)
(-1.09129e-05 -5.26509e-06 0.107537)
(-1.05464e-05 5.80092e-06 0.107534)
(9.71409e-06 5.29365e-06 0.107546)
(1.06494e-05 -4.85801e-06 0.107537)
(1.09036e-05 6.23806e-06 0.107535)
(2.72397e-05 -2.80633e-05 0.104193)
(-4.43874e-05 4.5129e-05 0.104307)
(4.97069e-06 9.83348e-06 0.107548)
(-5.02479e-06 1.09406e-05 0.107536)
(5.79696e-06 1.12589e-05 0.107536)
(4.48678e-05 4.51798e-05 0.104308)
(2.70352e-05 2.71863e-05 0.10419)
(-4.45494e-05 -4.49889e-05 0.104311)
(-5.71735e-06 -1.05451e-05 0.107532)
(5.97559e-06 -1.03273e-05 0.107531)
(-5.95941e-06 -1.14534e-05 0.107525)
(5.81756e-06 -1.11489e-05 0.107523)
(-2.67823e-05 2.74829e-05 0.104189)
(4.43854e-05 -4.48195e-05 0.10431)
(-1.07667e-05 -5.57915e-06 0.107534)
(-1.0544e-05 5.94316e-06 0.10753)
(-1.11721e-05 -6.52989e-06 0.107527)
(-1.08848e-05 5.48598e-06 0.107522)
(1.10173e-05 6.0418e-06 0.107532)
(1.1074e-05 -6.268e-06 0.107526)
(1.13711e-05 5.63328e-06 0.107525)
(2.74833e-05 -2.67863e-05 0.104189)
(-4.46575e-05 4.41735e-05 0.104309)
(5.9157e-06 1.12394e-05 0.107533)
(-5.93813e-06 1.07554e-05 0.107525)
(6.19068e-06 1.10902e-05 0.107527)
(4.47907e-05 4.43744e-05 0.104311)
(2.69703e-05 2.65923e-05 0.104194)
(-4.3747e-05 -4.32904e-05 0.104309)
(-5.85181e-06 -1.19179e-05 0.107524)
(5.67138e-06 -1.15559e-05 0.107521)
(-4.39331e-06 -1.14053e-05 0.107516)
(4.95932e-06 -1.1729e-05 0.107515)
(-2.71752e-05 2.66297e-05 0.104193)
(4.40117e-05 -4.39943e-05 0.10431)
(-1.16403e-05 -6.27243e-06 0.107525)
(-1.12903e-05 5.53834e-06 0.10752)
(-1.16673e-05 -3.89552e-06 0.107517)
(-1.1884e-05 5.4144e-06 0.107514)
(1.16657e-05 5.50516e-06 0.107524)
(1.16016e-05 -5.05524e-06 0.107518)
(1.13153e-05 4.47804e-06 0.107515)
(2.67399e-05 -2.73435e-05 0.104192)
(-4.41929e-05 4.43064e-05 0.104309)
(5.9117e-06 1.14163e-05 0.107525)
(-5.48091e-06 1.18333e-05 0.107516)
(3.98634e-06 1.15892e-05 0.107516)
(4.33734e-05 4.38151e-05 0.104308)
(2.75607e-05 2.80097e-05 0.104192)
(-4.46415e-05 -4.49133e-05 0.104304)
(-4.23641e-06 -1.06998e-05 0.107512)
(4.7991e-06 -1.12434e-05 0.107511)
(-6.20072e-06 -1.0206e-05 0.107498)
(6.02861e-06 -1.03957e-05 0.107499)
(-2.72544e-05 2.73562e-05 0.104193)
(4.47111e-05 -4.4512e-05 0.104305)
(-1.10709e-05 -3.68766e-06 0.107513)
(-1.14718e-05 5.15449e-06 0.107511)
(-1.01895e-05 -6.44761e-06 0.1075)
(-1.03928e-05 5.80328e-06 0.107499)
(1.07214e-05 4.39591e-06 0.107511)
(1.06116e-05 -5.78143e-06 0.107502)
(1.03809e-05 6.34452e-06 0.107498)
(2.71931e-05 -2.70129e-05 0.104193)
(-4.44412e-05 4.45726e-05 0.104305)
(3.86638e-06 1.10668e-05 0.107512)
(-5.59472e-06 1.06154e-05 0.107502)
(6.60099e-06 1.03199e-05 0.107499)
(4.4987e-05 4.47082e-05 0.104304)
(2.60277e-05 2.56597e-05 0.10419)
(-4.49454e-05 -4.50354e-05 0.104312)
(-6.90882e-06 -1.08431e-05 0.107495)
(6.54154e-06 -1.0798e-05 0.107495)
(-7.65857e-06 -1.33016e-05 0.107492)
(6.93758e-06 -1.29887e-05 0.10749)
(-2.60258e-05 2.61319e-05 0.104191)
(4.45283e-05 -4.48113e-05 0.104311)
(-1.06665e-05 -7.35982e-06 0.107497)
(-1.07447e-05 6.31349e-06 0.107495)
(-1.31767e-05 -7.85808e-06 0.107493)
(-1.29948e-05 6.90483e-06 0.107489)
(1.09923e-05 6.9401e-06 0.107495)
(1.2849e-05 -7.35812e-06 0.107493)
(1.31638e-05 7.24904e-06 0.107491)
(2.61978e-05 -2.61937e-05 0.104191)
(-4.48356e-05 4.45208e-05 0.10431)
(7.39474e-06 1.08042e-05 0.107496)
(-7.329e-06 1.27599e-05 0.107492)
(7.43562e-06 1.30794e-05 0.107492)
(4.47831e-05 4.47313e-05 0.104311)
(2.5718e-05 2.56921e-05 0.1042)
(-4.27977e-05 -4.27347e-05 0.104317)
(-7.27389e-06 -1.35741e-05 0.107492)
(6.61408e-06 -1.32063e-05 0.107489)
(-4.14182e-06 -1.21092e-05 0.107489)
(5.33096e-06 -1.18478e-05 0.107487)
(-2.61461e-05 2.58231e-05 0.104198)
(4.34687e-05 -4.30973e-05 0.104317)
(-1.3546e-05 -7.32426e-06 0.107493)
(-1.32359e-05 6.59315e-06 0.107489)
(-1.21536e-05 -4.12434e-06 0.107491)
(-1.17079e-05 5.25478e-06 0.107486)
(1.32794e-05 6.89764e-06 0.107491)
(1.19733e-05 -4.91005e-06 0.10749)
(1.20481e-05 4.72717e-06 0.107488)
(2.58139e-05 -2.6155e-05 0.104197)
(-4.2946e-05 4.34161e-05 0.104316)
(6.92256e-06 1.32991e-05 0.107492)
(-4.78022e-06 1.19339e-05 0.107488)
(4.70247e-06 1.2103e-05 0.107489)
(4.30887e-05 4.3136e-05 0.104316)
(2.79128e-05 2.79474e-05 0.104203)
(-4.43464e-05 -4.41287e-05 0.10431)
(-3.54201e-06 -1.08518e-05 0.107486)
(5.34908e-06 -1.10061e-05 0.107485)
(-6.28952e-06 -9.37359e-06 0.107472)
(6.24173e-06 -1.02127e-05 0.107474)
(-2.69866e-05 2.74623e-05 0.104203)
(4.42628e-05 -4.43654e-05 0.104314)
(-1.08917e-05 -3.52616e-06 0.107487)
(-1.08321e-05 5.33786e-06 0.107484)
(-9.54678e-06 -6.02698e-06 0.107473)
(-1.02731e-05 6.49079e-06 0.107474)
(1.11513e-05 4.28228e-06 0.107485)
(1.04158e-05 -6.23274e-06 0.107477)
(9.76402e-06 5.94958e-06 0.107473)
(2.75749e-05 -2.70402e-05 0.104202)
(-4.45615e-05 4.4363e-05 0.104313)
(4.28522e-06 1.11619e-05 0.107487)
(-6.55904e-06 1.0453e-05 0.107476)
(5.72975e-06 9.85991e-06 0.107474)
(4.39474e-05 4.41265e-05 0.104311)
(2.52414e-05 2.54566e-05 0.104199)
(-4.49474e-05 -4.50739e-05 0.104323)
(-7.80214e-06 -1.04741e-05 0.107469)
(6.38839e-06 -1.10711e-05 0.107471)
(-8.66617e-06 -1.41991e-05 0.107468)
(6.41192e-06 -1.35483e-05 0.107465)
(-2.57939e-05 2.54081e-05 0.104202)
(4.37339e-05 -4.43751e-05 0.10432)
(-1.06871e-05 -7.48901e-06 0.10747)
(-1.12411e-05 6.63218e-06 0.107471)
(-1.4214e-05 -8.74317e-06 0.107469)
(-1.37114e-05 6.33001e-06 0.107466)
(1.04917e-05 7.05449e-06 0.107469)
(1.29281e-05 -7.40147e-06 0.107468)
(1.35578e-05 8.32523e-06 0.107466)
(2.52158e-05 -2.57164e-05 0.104202)
(-4.43348e-05 4.36917e-05 0.10432)
(6.76585e-06 1.06644e-05 0.10747)
(-7.29146e-06 1.30207e-05 0.107468)
(8.35741e-06 1.36549e-05 0.107468)
(4.48359e-05 4.47879e-05 0.10432)
(2.53096e-05 2.50832e-05 0.104214)
(-4.20302e-05 -4.23243e-05 0.104331)
(-7.62684e-06 -1.44321e-05 0.10747)
(6.64069e-06 -1.35015e-05 0.107465)
(-3.91718e-06 -1.20461e-05 0.107469)
(7.23681e-06 -1.16575e-05 0.107467)
(-2.6075e-05 2.5687e-05 0.10421)
(4.40323e-05 -4.27751e-05 0.104331)
(-1.43188e-05 -7.91425e-06 0.107471)
(-1.35499e-05 6.45908e-06 0.107465)
(-1.18073e-05 -4.35712e-06 0.107471)
(-1.14991e-05 7.07798e-06 0.107466)
(1.39304e-05 7.79985e-06 0.107467)