/*--------------------------------*- C++ -*----------------------------------*\
| =========                 |                                                 |
| \\      /  F ield         | OpenFOAM: The Open Source CFD Toolbox           |
|  \\    /   O peration     | Version:  v2012                                 |
|   \\  /    A nd           | Website:  www.openfoam.com                      |
|    \\/     M anipulation  |                                                 |
\*---------------------------------------------------------------------------*/
FoamFile
{
    version     2.0;
    format      ascii;
    class       volScalarField;
    location    "0.46";
    object      p;
}
// * * * * * * * * * * * * * * * * * * * * * * * * * * * * * * * * * * * * * //

dimensions      [0 2 -2 0 0 0 0];


internalField   nonuniform List<scalar> 
247104
(
1.83292e-06
1.83278e-06
1.83294e-06
1.83292e-06
1.83285e-06
1.83294e-06
1.83292e-06
1.83272e-06
1.83278e-06
1.83285e-06
1.83291e-06
1.83276e-06
1.83268e-06
1.83278e-06
1.83292e-06
1.83282e-06
1.83294e-06
1.83291e-06
1.83261e-06
1.83225e-06
1.83211e-06
1.83229e-06
1.83266e-06
1.83293e-06
1.83294e-06
1.83292e-06
1.83276e-06
1.83225e-06
1.83177e-06
1.8316e-06
1.83182e-06
1.83232e-06
1.83281e-06
1.83293e-06
1.83291e-06
1.83285e-06
1.83268e-06
1.83211e-06
1.8316e-06
1.83142e-06
1.83165e-06
1.83219e-06
1.83273e-06
1.83284e-06
1.83294e-06
1.83278e-06
1.83229e-06
1.83182e-06
1.83165e-06
1.83187e-06
1.83236e-06
1.83283e-06
1.83295e-06
1.83292e-06
1.83292e-06
1.83266e-06
1.83232e-06
1.83219e-06
1.83236e-06
1.8327e-06
1.83293e-06
1.83292e-06
1.83272e-06
1.83282e-06
1.83293e-06
1.83281e-06
1.83273e-06
1.83283e-06
1.83293e-06
1.83279e-06
1.83294e-06
1.83293e-06
1.83284e-06
1.83295e-06
1.83292e-06
1.80033e-06
1.79836e-06
1.79769e-06
1.79646e-06
1.79646e-06
1.79641e-06
1.7964e-06
1.79774e-06
1.79793e-06
1.79768e-06
1.79563e-06
1.79308e-06
1.79307e-06
1.79306e-06
1.79307e-06
1.796e-06
1.79629e-06
1.79646e-06
1.79308e-06
1.79302e-06
1.79309e-06
1.79309e-06
1.79301e-06
1.79308e-06
1.79639e-06
1.79778e-06
1.80033e-06
1.79646e-06
1.79307e-06
1.79309e-06
1.79318e-06
1.79318e-06
1.79309e-06
1.79307e-06
1.79643e-06
1.79806e-06
1.79836e-06
1.79641e-06
1.79307e-06
1.79309e-06
1.79318e-06
1.79318e-06
1.79309e-06
1.79307e-06
1.79658e-06
1.79668e-06
1.79641e-06
1.79308e-06
1.79302e-06
1.79309e-06
1.79309e-06
1.79302e-06
1.79308e-06
1.79638e-06
1.79772e-06
1.79774e-06
1.79601e-06
1.79308e-06
1.79307e-06
1.79307e-06
1.79308e-06
1.79627e-06
1.79643e-06
1.7979e-06
1.79793e-06
1.79629e-06
1.7964e-06
1.79643e-06
1.79658e-06
1.79638e-06
1.79643e-06
1.79793e-06
1.79779e-06
1.79806e-06
1.79668e-06
1.79772e-06
1.7979e-06
1.78023e-06
1.78006e-06
1.77989e-06
1.77781e-06
1.77769e-06
1.77764e-06
1.77778e-06
1.77983e-06
1.7801e-06
1.7799e-06
1.77712e-06
1.77415e-06
1.77413e-06
1.77413e-06
1.77415e-06
1.77754e-06
1.77825e-06
1.77782e-06
1.77421e-06
1.77397e-06
1.77401e-06
1.77401e-06
1.77396e-06
1.77415e-06
1.77833e-06
1.78028e-06
1.78024e-06
1.77771e-06
1.77415e-06
1.77402e-06
1.77405e-06
1.77405e-06
1.77401e-06
1.77413e-06
1.77838e-06
1.78004e-06
1.78007e-06
1.77766e-06
1.77415e-06
1.77402e-06
1.77406e-06
1.77405e-06
1.77401e-06
1.77413e-06
1.77833e-06
1.77839e-06
1.77779e-06
1.77418e-06
1.77397e-06
1.77402e-06
1.77402e-06
1.77397e-06
1.77415e-06
1.77837e-06
1.78037e-06
1.77984e-06
1.77755e-06
1.77416e-06
1.77414e-06
1.77415e-06
1.77421e-06
1.77801e-06
1.77833e-06
1.7803e-06
1.78011e-06
1.77826e-06
1.77834e-06
1.77838e-06
1.77835e-06
1.77838e-06
1.77834e-06
1.78016e-06
1.78029e-06
1.78005e-06
1.7784e-06
1.78038e-06
1.78031e-06
1.76141e-06
1.76125e-06
1.7611e-06
1.75898e-06
1.75886e-06
1.75879e-06
1.75897e-06
1.76104e-06
1.76132e-06
1.7611e-06
1.75828e-06
1.75531e-06
1.75529e-06
1.75529e-06
1.75531e-06
1.75868e-06
1.75946e-06
1.75898e-06
1.75531e-06
1.75522e-06
1.75523e-06
1.75523e-06
1.75522e-06
1.75531e-06
1.75953e-06
1.76147e-06
1.76142e-06
1.75887e-06
1.75529e-06
1.75523e-06
1.75524e-06
1.75524e-06
1.75523e-06
1.75529e-06
1.75956e-06
1.76122e-06
1.76125e-06
1.75879e-06
1.7553e-06
1.75523e-06
1.75524e-06
1.75524e-06
1.75523e-06
1.75529e-06
1.75953e-06
1.75959e-06
1.75897e-06
1.75532e-06
1.75522e-06
1.75523e-06
1.75523e-06
1.75522e-06
1.75531e-06
1.75955e-06
1.76154e-06
1.76104e-06
1.75868e-06
1.75531e-06
1.75529e-06
1.75529e-06
1.75531e-06
1.75927e-06
1.75955e-06
1.76151e-06
1.76132e-06
1.75946e-06
1.75953e-06
1.75957e-06
1.75953e-06
1.75955e-06
1.75955e-06
1.76153e-06
1.76147e-06
1.76123e-06
1.75959e-06
1.76154e-06
1.76151e-06
1.74257e-06
1.7424e-06
1.74223e-06
1.74011e-06
1.73999e-06
1.73992e-06
1.74009e-06
1.74217e-06
1.74244e-06
1.74223e-06
1.73943e-06
1.73643e-06
1.73643e-06
1.73643e-06
1.73643e-06
1.73978e-06
1.74059e-06
1.74011e-06
1.73643e-06
1.73641e-06
1.73641e-06
1.73641e-06
1.73641e-06
1.73643e-06
1.74066e-06
1.74261e-06
1.74257e-06
1.73999e-06
1.73643e-06
1.73641e-06
1.73641e-06
1.73641e-06
1.73641e-06
1.73643e-06
1.74072e-06
1.74238e-06
1.7424e-06
1.73992e-06
1.73643e-06
1.73641e-06
1.73641e-06
1.73641e-06
1.73641e-06
1.73643e-06
1.74069e-06
1.74075e-06
1.74009e-06
1.73643e-06
1.73641e-06
1.73641e-06
1.73641e-06
1.73641e-06
1.73643e-06
1.7407e-06
1.7427e-06
1.74217e-06
1.73978e-06
1.73643e-06
1.73643e-06
1.73643e-06
1.73643e-06
1.74043e-06
1.74071e-06
1.74265e-06
1.74244e-06
1.74059e-06
1.74066e-06
1.74072e-06
1.74069e-06
1.7407e-06
1.74071e-06
1.74265e-06
1.74261e-06
1.74239e-06
1.74075e-06
1.7427e-06
1.74265e-06
1.7237e-06
1.72353e-06
1.72336e-06
1.72124e-06
1.72112e-06
1.72105e-06
1.72122e-06
1.7233e-06
1.72357e-06
1.72336e-06
1.72056e-06
1.71756e-06
1.71756e-06
1.71756e-06
1.71756e-06
1.7209e-06
1.72171e-06
1.72124e-06
1.71756e-06
1.71755e-06
1.71756e-06
1.71756e-06
1.71755e-06
1.71756e-06
1.72178e-06
1.72373e-06
1.7237e-06
1.72112e-06
1.71756e-06
1.71756e-06
1.71756e-06
1.71756e-06
1.71756e-06
1.71756e-06
1.72185e-06
1.72352e-06
1.72353e-06
1.72105e-06
1.71756e-06
1.71756e-06
1.71756e-06
1.71756e-06
1.71756e-06
1.71756e-06
1.72182e-06
1.72188e-06
1.72122e-06
1.71756e-06
1.71755e-06
1.71756e-06
1.71756e-06
1.71755e-06
1.71756e-06
1.72183e-06
1.72384e-06
1.7233e-06
1.72089e-06
1.71756e-06
1.71756e-06
1.71756e-06
1.71756e-06
1.72157e-06
1.72184e-06
1.72378e-06
1.72357e-06
1.72171e-06
1.72178e-06
1.72185e-06
1.72182e-06
1.72183e-06
1.72184e-06
1.72377e-06
1.72374e-06
1.72352e-06
1.72188e-06
1.72384e-06
1.72377e-06
1.70483e-06
1.70467e-06
1.7045e-06
1.70237e-06
1.70225e-06
1.70218e-06
1.70235e-06
1.70443e-06
1.7047e-06
1.70449e-06
1.7017e-06
1.6987e-06
1.6987e-06
1.6987e-06
1.6987e-06
1.70203e-06
1.70284e-06
1.70237e-06
1.6987e-06
1.69869e-06
1.69869e-06
1.69869e-06
1.69869e-06
1.6987e-06
1.70291e-06
1.70487e-06
1.70483e-06
1.70225e-06
1.6987e-06
1.69869e-06
1.69869e-06
1.69869e-06
1.69869e-06
1.6987e-06
1.70298e-06
1.70466e-06
1.70467e-06
1.70218e-06
1.6987e-06
1.69869e-06
1.69869e-06
1.69869e-06
1.69869e-06
1.6987e-06
1.70296e-06
1.70302e-06
1.70235e-06
1.6987e-06
1.69869e-06
1.69869e-06
1.69869e-06
1.69869e-06
1.6987e-06
1.70297e-06
1.70498e-06
1.70443e-06
1.70203e-06
1.6987e-06
1.6987e-06
1.6987e-06
1.6987e-06
1.70271e-06
1.70298e-06
1.70491e-06
1.7047e-06
1.70285e-06
1.70291e-06
1.70298e-06
1.70296e-06
1.70297e-06
1.70298e-06
1.70491e-06
1.70487e-06
1.70466e-06
1.70302e-06
1.70498e-06
1.70491e-06
1.68597e-06
1.6858e-06
1.68563e-06
1.68351e-06
1.68339e-06
1.68332e-06
1.68349e-06
1.68557e-06
1.68584e-06
1.68563e-06
1.68283e-06
1.67983e-06
1.67983e-06
1.67983e-06
1.67983e-06
1.68316e-06
1.68398e-06
1.68351e-06
1.67983e-06
1.67983e-06
1.67983e-06
1.67983e-06
1.67983e-06
1.67983e-06
1.68404e-06
1.686e-06
1.68597e-06
1.68339e-06
1.67983e-06
1.67983e-06
1.67983e-06
1.67983e-06
1.67983e-06
1.67983e-06
1.68412e-06
1.68579e-06
1.6858e-06
1.68332e-06
1.67983e-06
1.67983e-06
1.67983e-06
1.67983e-06
1.67983e-06
1.67983e-06
1.68409e-06
1.68415e-06
1.68349e-06
1.67983e-06
1.67983e-06
1.67983e-06
1.67983e-06
1.67983e-06
1.67983e-06
1.6841e-06
1.68611e-06
1.68557e-06
1.68316e-06
1.67983e-06
1.67983e-06
1.67983e-06
1.67983e-06
1.68384e-06
1.68412e-06
1.68604e-06
1.68584e-06
1.68398e-06
1.68405e-06
1.68412e-06
1.68409e-06
1.68411e-06
1.68412e-06
1.68604e-06
1.686e-06
1.68579e-06
1.68416e-06
1.68611e-06
1.68604e-06
1.66711e-06
1.66694e-06
1.66677e-06
1.66465e-06
1.66453e-06
1.66446e-06
1.66463e-06
1.6667e-06
1.66697e-06
1.66677e-06
1.66397e-06
1.66097e-06
1.66097e-06
1.66097e-06
1.66097e-06
1.6643e-06
1.66512e-06
1.66465e-06
1.66097e-06
1.66097e-06
1.66097e-06
1.66097e-06
1.66097e-06
1.66097e-06
1.66518e-06
1.66714e-06
1.66711e-06
1.66453e-06
1.66097e-06
1.66097e-06
1.66097e-06
1.66097e-06
1.66097e-06
1.66097e-06
1.66526e-06
1.66693e-06
1.66694e-06
1.66446e-06
1.66097e-06
1.66097e-06
1.66097e-06
1.66097e-06
1.66097e-06
1.66097e-06
1.66523e-06
1.66529e-06
1.66463e-06
1.66097e-06
1.66097e-06
1.66097e-06
1.66097e-06
1.66097e-06
1.66097e-06
1.66524e-06
1.66725e-06
1.6667e-06
1.6643e-06
1.66097e-06
1.66097e-06
1.66097e-06
1.66097e-06
1.66498e-06
1.66525e-06
1.66718e-06
1.66697e-06
1.66512e-06
1.66518e-06
1.66526e-06
1.66523e-06
1.66524e-06
1.66525e-06
1.66718e-06
1.66714e-06
1.66693e-06
1.66529e-06
1.66725e-06
1.66718e-06
1.64824e-06
1.64807e-06
1.6479e-06
1.64578e-06
1.64566e-06
1.64559e-06
1.64576e-06
1.64784e-06
1.64811e-06
1.6479e-06
1.64511e-06
1.6421e-06
1.6421e-06
1.6421e-06
1.6421e-06
1.64543e-06
1.64625e-06
1.64578e-06
1.6421e-06
1.6421e-06
1.6421e-06
1.6421e-06
1.6421e-06
1.6421e-06
1.64632e-06
1.64828e-06
1.64824e-06
1.64566e-06
1.6421e-06
1.6421e-06
1.6421e-06
1.6421e-06
1.6421e-06
1.6421e-06
1.64639e-06
1.64807e-06
1.64808e-06
1.64559e-06
1.6421e-06
1.6421e-06
1.6421e-06
1.6421e-06
1.6421e-06
1.6421e-06
1.64637e-06
1.64643e-06
1.64576e-06
1.6421e-06
1.6421e-06
1.6421e-06
1.6421e-06
1.6421e-06
1.6421e-06
1.64638e-06
1.64839e-06
1.64784e-06
1.64543e-06
1.6421e-06
1.6421e-06
1.6421e-06
1.6421e-06
1.64612e-06
1.64639e-06
1.64832e-06
1.64811e-06
1.64625e-06
1.64632e-06
1.64639e-06
1.64637e-06
1.64638e-06
1.64639e-06
1.64832e-06
1.64828e-06
1.64807e-06
1.64643e-06
1.64839e-06
1.64832e-06
1.62938e-06
1.62921e-06
1.62904e-06
1.62692e-06
1.6268e-06
1.62673e-06
1.6269e-06
1.62897e-06
1.62924e-06
1.62904e-06
1.62624e-06
1.62324e-06
1.62324e-06
1.62324e-06
1.62324e-06
1.62657e-06
1.62739e-06
1.62692e-06
1.62324e-06
1.62324e-06
1.62324e-06
1.62324e-06
1.62324e-06
1.62324e-06
1.62745e-06
1.62941e-06
1.62938e-06
1.6268e-06
1.62324e-06
1.62324e-06
1.62324e-06
1.62324e-06
1.62324e-06
1.62324e-06
1.62753e-06
1.6292e-06
1.62921e-06
1.62673e-06
1.62324e-06
1.62324e-06
1.62324e-06
1.62324e-06
1.62324e-06
1.62324e-06
1.6275e-06
1.62756e-06
1.6269e-06
1.62324e-06
1.62324e-06
1.62324e-06
1.62324e-06
1.62324e-06
1.62324e-06
1.62751e-06
1.62952e-06
1.62897e-06
1.62657e-06
1.62324e-06
1.62324e-06
1.62324e-06
1.62324e-06
1.62725e-06
1.62753e-06
1.62945e-06
1.62924e-06
1.62739e-06
1.62745e-06
1.62753e-06
1.6275e-06
1.62751e-06
1.62753e-06
1.62945e-06
1.62941e-06
1.6292e-06
1.62756e-06
1.62952e-06
1.62945e-06
1.61051e-06
1.61034e-06
1.61017e-06
1.60805e-06
1.60793e-06
1.60786e-06
1.60803e-06
1.61011e-06
1.61038e-06
1.61017e-06
1.60738e-06
1.60437e-06
1.60437e-06
1.60437e-06
1.60437e-06
1.6077e-06
1.60852e-06
1.60805e-06
1.60437e-06
1.60437e-06
1.60437e-06
1.60437e-06
1.60437e-06
1.60437e-06
1.60859e-06
1.61055e-06
1.61051e-06
1.60793e-06
1.60437e-06
1.60437e-06
1.60437e-06
1.60437e-06
1.60437e-06
1.60437e-06
1.60866e-06
1.61034e-06
1.61034e-06
1.60786e-06
1.60437e-06
1.60437e-06
1.60437e-06
1.60437e-06
1.60437e-06
1.60437e-06
1.60864e-06
1.6087e-06
1.60803e-06
1.60437e-06
1.60437e-06
1.60437e-06
1.60437e-06
1.60437e-06
1.60437e-06
1.60865e-06
1.61066e-06
1.61011e-06
1.6077e-06
1.60437e-06
1.60437e-06
1.60437e-06
1.60437e-06
1.60839e-06
1.60866e-06
1.61059e-06
1.61038e-06
1.60852e-06
1.60859e-06
1.60866e-06
1.60864e-06
1.60865e-06
1.60866e-06
1.61058e-06
1.61055e-06
1.61034e-06
1.6087e-06
1.61066e-06
1.61059e-06
1.59165e-06
1.59148e-06
1.59131e-06
1.58919e-06
1.58907e-06
1.589e-06
1.58917e-06
1.59124e-06
1.59151e-06
1.59131e-06
1.58851e-06
1.58551e-06
1.58551e-06
1.58551e-06
1.58551e-06
1.58884e-06
1.58966e-06
1.58919e-06
1.58551e-06
1.58551e-06
1.58551e-06
1.58551e-06
1.58551e-06
1.58551e-06
1.58972e-06
1.59168e-06
1.59165e-06
1.58907e-06
1.58551e-06
1.58551e-06
1.58551e-06
1.58551e-06
1.58551e-06
1.58551e-06
1.5898e-06
1.59147e-06
1.59148e-06
1.589e-06
1.58551e-06
1.58551e-06
1.58551e-06
1.58551e-06
1.58551e-06
1.58551e-06
1.58977e-06
1.58983e-06
1.58917e-06
1.58551e-06
1.58551e-06
1.58551e-06
1.58551e-06
1.58551e-06
1.58551e-06
1.58978e-06
1.59179e-06
1.59124e-06
1.58884e-06
1.58551e-06
1.58551e-06
1.58551e-06
1.58551e-06
1.58952e-06
1.5898e-06
1.59172e-06
1.59151e-06
1.58966e-06
1.58972e-06
1.5898e-06
1.58977e-06
1.58978e-06
1.5898e-06
1.59172e-06
1.59168e-06
1.59147e-06
1.58983e-06
1.59179e-06
1.59172e-06
1.57278e-06
1.57262e-06
1.57244e-06
1.57032e-06
1.5702e-06
1.57013e-06
1.5703e-06
1.57238e-06
1.57265e-06
1.57244e-06
1.56965e-06
1.56665e-06
1.56665e-06
1.56665e-06
1.56665e-06
1.56998e-06
1.57079e-06
1.57032e-06
1.56665e-06
1.56665e-06
1.56665e-06
1.56665e-06
1.56665e-06
1.56665e-06
1.57086e-06
1.57282e-06
1.57278e-06
1.5702e-06
1.56665e-06
1.56665e-06
1.56665e-06
1.56665e-06
1.56665e-06
1.56665e-06
1.57093e-06
1.57261e-06
1.57262e-06
1.57013e-06
1.56665e-06
1.56665e-06
1.56665e-06
1.56665e-06
1.56665e-06
1.56665e-06
1.57091e-06
1.57097e-06
1.5703e-06
1.56665e-06
1.56665e-06
1.56665e-06
1.56665e-06
1.56665e-06
1.56665e-06
1.57092e-06
1.57293e-06
1.57238e-06
1.56998e-06
1.56665e-06
1.56665e-06
1.56665e-06
1.56665e-06
1.57066e-06
1.57093e-06
1.57286e-06
1.57265e-06
1.57079e-06
1.57086e-06
1.57093e-06
1.57091e-06
1.57092e-06
1.57093e-06
1.57286e-06
1.57282e-06
1.57261e-06
1.57097e-06
1.57293e-06
1.57286e-06
1.55392e-06
1.55375e-06
1.55358e-06
1.55146e-06
1.55134e-06
1.55127e-06
1.55144e-06
1.55352e-06
1.55379e-06
1.55358e-06
1.55078e-06
1.54778e-06
1.54778e-06
1.54778e-06
1.54778e-06
1.55111e-06
1.55193e-06
1.55146e-06
1.54778e-06
1.54778e-06
1.54778e-06
1.54778e-06
1.54778e-06
1.54778e-06
1.552e-06
1.55395e-06
1.55392e-06
1.55134e-06
1.54778e-06
1.54778e-06
1.54778e-06
1.54778e-06
1.54778e-06
1.54778e-06
1.55207e-06
1.55375e-06
1.55375e-06
1.55127e-06
1.54778e-06
1.54778e-06
1.54778e-06
1.54778e-06
1.54778e-06
1.54778e-06
1.55205e-06
1.55211e-06
1.55144e-06
1.54778e-06
1.54778e-06
1.54778e-06
1.54778e-06
1.54778e-06
1.54778e-06
1.55206e-06
1.55406e-06
1.55352e-06
1.55111e-06
1.54778e-06
1.54778e-06
1.54778e-06
1.54778e-06
1.5518e-06
1.55207e-06
1.554e-06
1.55379e-06
1.55193e-06
1.552e-06
1.55207e-06
1.55204e-06
1.55206e-06
1.55207e-06
1.55399e-06
1.55395e-06
1.55375e-06
1.55211e-06
1.55406e-06
1.55399e-06
1.53506e-06
1.53489e-06
1.53472e-06
1.5326e-06
1.53248e-06
1.53241e-06
1.53258e-06
1.53465e-06
1.53492e-06
1.53472e-06
1.53192e-06
1.52892e-06
1.52892e-06
1.52892e-06
1.52892e-06
1.53225e-06
1.53307e-06
1.5326e-06
1.52892e-06
1.52892e-06
1.52892e-06
1.52892e-06
1.52892e-06
1.52892e-06
1.53313e-06
1.53509e-06
1.53506e-06
1.53248e-06
1.52892e-06
1.52892e-06
1.52892e-06
1.52892e-06
1.52892e-06
1.52892e-06
1.53321e-06
1.53488e-06
1.53489e-06
1.53241e-06
1.52892e-06
1.52892e-06
1.52892e-06
1.52892e-06
1.52892e-06
1.52892e-06
1.53318e-06
1.53324e-06
1.53258e-06
1.52892e-06
1.52892e-06
1.52892e-06
1.52892e-06
1.52892e-06
1.52892e-06
1.53319e-06
1.5352e-06
1.53465e-06
1.53225e-06
1.52892e-06
1.52892e-06
1.52892e-06
1.52892e-06
1.53293e-06
1.53321e-06
1.53513e-06
1.53492e-06
1.53307e-06
1.53313e-06
1.53321e-06
1.53318e-06
1.53319e-06
1.53321e-06
1.53513e-06
1.53509e-06
1.53488e-06
1.53324e-06
1.5352e-06
1.53513e-06
1.5162e-06
1.51603e-06
1.51586e-06
1.51374e-06
1.51362e-06
1.51354e-06
1.51372e-06
1.51579e-06
1.51606e-06
1.51586e-06
1.51306e-06
1.51006e-06
1.51006e-06
1.51006e-06
1.51006e-06
1.51339e-06
1.51421e-06
1.51374e-06
1.51006e-06
1.51006e-06
1.51006e-06
1.51006e-06
1.51006e-06
1.51006e-06
1.51427e-06
1.51623e-06
1.51619e-06
1.51361e-06
1.51006e-06
1.51006e-06
1.51006e-06
1.51006e-06
1.51006e-06
1.51006e-06
1.51435e-06
1.51602e-06
1.51603e-06
1.51354e-06
1.51006e-06
1.51006e-06
1.51006e-06
1.51006e-06
1.51006e-06
1.51006e-06
1.51432e-06
1.51438e-06
1.51372e-06
1.51006e-06
1.51006e-06
1.51006e-06
1.51006e-06
1.51006e-06
1.51006e-06
1.51433e-06
1.51634e-06
1.51579e-06
1.51339e-06
1.51006e-06
1.51006e-06
1.51006e-06
1.51006e-06
1.51407e-06
1.51434e-06
1.51627e-06
1.51606e-06
1.51421e-06
1.51427e-06
1.51435e-06
1.51432e-06
1.51433e-06
1.51434e-06
1.51627e-06
1.51623e-06
1.51602e-06
1.51438e-06
1.51634e-06
1.51627e-06
1.49733e-06
1.49717e-06
1.49699e-06
1.49487e-06
1.49475e-06
1.49468e-06
1.49485e-06
1.49693e-06
1.4972e-06
1.49699e-06
1.4942e-06
1.4912e-06
1.4912e-06
1.4912e-06
1.4912e-06
1.49453e-06
1.49534e-06
1.49487e-06
1.4912e-06
1.4912e-06
1.4912e-06
1.4912e-06
1.4912e-06
1.4912e-06
1.49541e-06
1.49737e-06
1.49733e-06
1.49475e-06
1.4912e-06
1.4912e-06
1.4912e-06
1.4912e-06
1.4912e-06
1.4912e-06
1.49548e-06
1.49716e-06
1.49717e-06
1.49468e-06
1.4912e-06
1.4912e-06
1.4912e-06
1.4912e-06
1.4912e-06
1.4912e-06
1.49546e-06
1.49552e-06
1.49485e-06
1.4912e-06
1.4912e-06
1.4912e-06
1.4912e-06
1.4912e-06
1.4912e-06
1.49547e-06
1.49748e-06
1.49693e-06
1.49453e-06
1.4912e-06
1.4912e-06
1.4912e-06
1.4912e-06
1.49521e-06
1.49548e-06
1.49741e-06
1.4972e-06
1.49534e-06
1.49541e-06
1.49548e-06
1.49546e-06
1.49547e-06
1.49548e-06
1.49741e-06
1.49737e-06
1.49716e-06
1.49552e-06
1.49748e-06
1.49741e-06
1.47847e-06
1.4783e-06
1.47813e-06
1.47601e-06
1.47589e-06
1.47582e-06
1.47599e-06
1.47807e-06
1.47834e-06
1.47813e-06
1.47533e-06
1.47233e-06
1.47233e-06
1.47233e-06
1.47233e-06
1.47566e-06
1.47648e-06
1.47601e-06
1.47233e-06
1.47233e-06
1.47233e-06
1.47233e-06
1.47233e-06
1.47233e-06
1.47655e-06
1.4785e-06
1.47847e-06
1.47589e-06
1.47233e-06
1.47233e-06
1.47233e-06
1.47233e-06
1.47233e-06
1.47233e-06
1.47662e-06
1.4783e-06
1.4783e-06
1.47582e-06
1.47233e-06
1.47233e-06
1.47233e-06
1.47233e-06
1.47233e-06
1.47233e-06
1.4766e-06
1.47666e-06
1.47599e-06
1.47233e-06
1.47233e-06
1.47233e-06
1.47233e-06
1.47233e-06
1.47233e-06
1.47661e-06
1.47862e-06
1.47807e-06
1.47566e-06
1.47233e-06
1.47233e-06
1.47233e-06
1.47233e-06
1.47635e-06
1.47662e-06
1.47855e-06
1.47834e-06
1.47648e-06
1.47655e-06
1.47662e-06
1.4766e-06
1.47661e-06
1.47662e-06
1.47854e-06
1.47851e-06
1.4783e-06
1.47666e-06
1.47861e-06
1.47855e-06
1.45961e-06
1.45944e-06
1.45927e-06
1.45715e-06
1.45703e-06
1.45696e-06
1.45713e-06
1.45921e-06
1.45947e-06
1.45927e-06
1.45647e-06
1.45347e-06
1.45347e-06
1.45347e-06
1.45347e-06
1.4568e-06
1.45762e-06
1.45715e-06
1.45347e-06
1.45347e-06
1.45347e-06
1.45347e-06
1.45347e-06
1.45347e-06
1.45768e-06
1.45964e-06
1.45961e-06
1.45703e-06
1.45347e-06
1.45347e-06
1.45347e-06
1.45347e-06
1.45347e-06
1.45347e-06
1.45776e-06
1.45943e-06
1.45944e-06
1.45696e-06
1.45347e-06
1.45347e-06
1.45347e-06
1.45347e-06
1.45347e-06
1.45347e-06
1.45773e-06
1.45779e-06
1.45713e-06
1.45347e-06
1.45347e-06
1.45347e-06
1.45347e-06
1.45347e-06
1.45347e-06
1.45775e-06
1.45975e-06
1.45921e-06
1.4568e-06
1.45347e-06
1.45347e-06
1.45347e-06
1.45347e-06
1.45748e-06
1.45776e-06
1.45968e-06
1.45947e-06
1.45762e-06
1.45768e-06
1.45776e-06
1.45773e-06
1.45774e-06
1.45776e-06
1.45968e-06
1.45964e-06
1.45943e-06
1.45779e-06
1.45975e-06
1.45968e-06
1.44075e-06
1.44058e-06
1.44041e-06
1.43829e-06
1.43817e-06
1.4381e-06
1.43827e-06
1.44034e-06
1.44061e-06
1.44041e-06
1.43761e-06
1.43461e-06
1.43461e-06
1.43461e-06
1.43461e-06
1.43794e-06
1.43876e-06
1.43829e-06
1.43461e-06
1.43461e-06
1.43461e-06
1.43461e-06
1.43461e-06
1.43461e-06
1.43882e-06
1.44078e-06
1.44075e-06
1.43817e-06
1.43461e-06
1.43461e-06
1.43461e-06
1.43461e-06
1.43461e-06
1.43461e-06
1.4389e-06
1.44057e-06
1.44058e-06
1.4381e-06
1.43461e-06
1.43461e-06
1.43461e-06
1.43461e-06
1.43461e-06
1.43461e-06
1.43887e-06
1.43893e-06
1.43827e-06
1.43461e-06
1.43461e-06
1.43461e-06
1.43461e-06
1.43461e-06
1.43461e-06
1.43888e-06
1.44089e-06
1.44034e-06
1.43794e-06
1.43461e-06
1.43461e-06
1.43461e-06
1.43461e-06
1.43862e-06
1.43889e-06
1.44082e-06
1.44061e-06
1.43876e-06
1.43882e-06
1.4389e-06
1.43887e-06
1.43888e-06
1.43889e-06
1.44082e-06
1.44078e-06
1.44057e-06
1.43893e-06
1.44089e-06
1.44082e-06
1.42188e-06
1.42172e-06
1.42154e-06
1.41942e-06
1.4193e-06
1.41923e-06
1.4194e-06
1.42148e-06
1.42175e-06
1.42154e-06
1.41875e-06
1.41575e-06
1.41575e-06
1.41575e-06
1.41575e-06
1.41908e-06
1.41989e-06
1.41943e-06
1.41575e-06
1.41575e-06
1.41575e-06
1.41575e-06
1.41575e-06
1.41575e-06
1.41996e-06
1.42192e-06
1.42188e-06
1.4193e-06
1.41575e-06
1.41575e-06
1.41575e-06
1.41575e-06
1.41575e-06
1.41575e-06
1.42004e-06
1.42171e-06
1.42172e-06
1.41923e-06
1.41575e-06
1.41575e-06
1.41575e-06
1.41575e-06
1.41575e-06
1.41575e-06
1.42001e-06
1.42007e-06
1.4194e-06
1.41575e-06
1.41575e-06
1.41575e-06
1.41575e-06
1.41575e-06
1.41575e-06
1.42002e-06
1.42203e-06
1.42148e-06
1.41908e-06
1.41575e-06
1.41575e-06
1.41575e-06
1.41575e-06
1.41976e-06
1.42003e-06
1.42196e-06
1.42175e-06
1.4199e-06
1.41996e-06
1.42003e-06
1.42001e-06
1.42002e-06
1.42003e-06
1.42196e-06
1.42192e-06
1.42171e-06
1.42007e-06
1.42203e-06
1.42196e-06
1.40302e-06
1.40285e-06
1.40268e-06
1.40056e-06
1.40044e-06
1.40037e-06
1.40054e-06
1.40262e-06
1.40289e-06
1.40268e-06
1.39989e-06
1.39688e-06
1.39688e-06
1.39688e-06
1.39688e-06
1.40021e-06
1.40103e-06
1.40056e-06
1.39688e-06
1.39688e-06
1.39688e-06
1.39688e-06
1.39688e-06
1.39688e-06
1.4011e-06
1.40306e-06
1.40302e-06
1.40044e-06
1.39688e-06
1.39688e-06
1.39688e-06
1.39688e-06
1.39688e-06
1.39688e-06
1.40117e-06
1.40285e-06
1.40285e-06
1.40037e-06
1.39688e-06
1.39688e-06
1.39688e-06
1.39688e-06
1.39688e-06
1.39688e-06
1.40115e-06
1.40121e-06
1.40054e-06
1.39688e-06
1.39688e-06
1.39688e-06
1.39688e-06
1.39688e-06
1.39688e-06
1.40116e-06
1.40317e-06
1.40262e-06
1.40021e-06
1.39688e-06
1.39688e-06
1.39688e-06
1.39688e-06
1.4009e-06
1.40117e-06
1.4031e-06
1.40289e-06
1.40103e-06
1.4011e-06
1.40117e-06
1.40115e-06
1.40116e-06
1.40117e-06
1.40309e-06
1.40306e-06
1.40285e-06
1.40121e-06
1.40317e-06
1.4031e-06
1.38416e-06
1.38399e-06
1.38382e-06
1.3817e-06
1.38158e-06
1.38151e-06
1.38168e-06
1.38376e-06
1.38403e-06
1.38382e-06
1.38102e-06
1.37802e-06
1.37802e-06
1.37802e-06
1.37802e-06
1.38135e-06
1.38217e-06
1.3817e-06
1.37802e-06
1.37802e-06
1.37802e-06
1.37802e-06
1.37802e-06
1.37802e-06
1.38224e-06
1.38419e-06
1.38416e-06
1.38158e-06
1.37802e-06
1.37802e-06
1.37802e-06
1.37802e-06
1.37802e-06
1.37802e-06
1.38231e-06
1.38398e-06
1.38399e-06
1.38151e-06
1.37802e-06
1.37802e-06
1.37802e-06
1.37802e-06
1.37802e-06
1.37802e-06
1.38229e-06
1.38235e-06
1.38168e-06
1.37802e-06
1.37802e-06
1.37802e-06
1.37802e-06
1.37802e-06
1.37802e-06
1.3823e-06
1.3843e-06
1.38376e-06
1.38135e-06
1.37802e-06
1.37802e-06
1.37802e-06
1.37802e-06
1.38204e-06
1.38231e-06
1.38423e-06
1.38403e-06
1.38217e-06
1.38224e-06
1.38231e-06
1.38228e-06
1.3823e-06
1.38231e-06
1.38423e-06
1.38419e-06
1.38399e-06
1.38235e-06
1.3843e-06
1.38423e-06
1.3653e-06
1.36513e-06
1.36496e-06
1.36284e-06
1.36272e-06
1.36265e-06
1.36282e-06
1.36489e-06
1.36516e-06
1.36496e-06
1.36216e-06
1.35916e-06
1.35916e-06
1.35916e-06
1.35916e-06
1.36249e-06
1.36331e-06
1.36284e-06
1.35916e-06
1.35916e-06
1.35916e-06
1.35916e-06
1.35916e-06
1.35916e-06
1.36337e-06
1.36533e-06
1.3653e-06
1.36272e-06
1.35916e-06
1.35916e-06
1.35916e-06
1.35916e-06
1.35916e-06
1.35916e-06
1.36345e-06
1.36512e-06
1.36513e-06
1.36265e-06
1.35916e-06
1.35916e-06
1.35916e-06
1.35916e-06
1.35916e-06
1.35916e-06
1.36342e-06
1.36348e-06
1.36282e-06
1.35916e-06
1.35916e-06
1.35916e-06
1.35916e-06
1.35916e-06
1.35916e-06
1.36343e-06
1.36544e-06
1.36489e-06
1.36249e-06
1.35916e-06
1.35916e-06
1.35916e-06
1.35916e-06
1.36317e-06
1.36345e-06
1.36537e-06
1.36516e-06
1.36331e-06
1.36337e-06
1.36345e-06
1.36342e-06
1.36343e-06
1.36344e-06
1.36537e-06
1.36533e-06
1.36512e-06
1.36348e-06
1.36544e-06
1.36537e-06
1.34643e-06
1.34627e-06
1.34609e-06
1.34398e-06
1.34385e-06
1.34378e-06
1.34395e-06
1.34603e-06
1.3463e-06
1.3461e-06
1.3433e-06
1.3403e-06
1.3403e-06
1.3403e-06
1.3403e-06
1.34363e-06
1.34445e-06
1.34398e-06
1.3403e-06
1.3403e-06
1.3403e-06
1.3403e-06
1.3403e-06
1.3403e-06
1.34451e-06
1.34647e-06
1.34643e-06
1.34385e-06
1.3403e-06
1.3403e-06
1.3403e-06
1.3403e-06
1.3403e-06
1.3403e-06
1.34459e-06
1.34626e-06
1.34627e-06
1.34378e-06
1.3403e-06
1.3403e-06
1.3403e-06
1.3403e-06
1.3403e-06
1.3403e-06
1.34456e-06
1.34462e-06
1.34395e-06
1.3403e-06
1.3403e-06
1.3403e-06
1.3403e-06
1.3403e-06
1.3403e-06
1.34457e-06
1.34658e-06
1.34603e-06
1.34363e-06
1.3403e-06
1.3403e-06
1.3403e-06
1.3403e-06
1.34431e-06
1.34458e-06
1.34651e-06
1.3463e-06
1.34445e-06
1.34451e-06
1.34458e-06
1.34456e-06
1.34457e-06
1.34458e-06
1.34651e-06
1.34647e-06
1.34626e-06
1.34462e-06
1.34658e-06
1.34651e-06
1.32757e-06
1.3274e-06
1.32723e-06
1.32511e-06
1.32499e-06
1.32492e-06
1.32509e-06
1.32717e-06
1.32744e-06
1.32723e-06
1.32444e-06
1.32143e-06
1.32143e-06
1.32143e-06
1.32143e-06
1.32476e-06
1.32558e-06
1.32511e-06
1.32143e-06
1.32143e-06
1.32143e-06
1.32143e-06
1.32143e-06
1.32143e-06
1.32565e-06
1.32761e-06
1.32757e-06
1.32499e-06
1.32143e-06
1.32143e-06
1.32143e-06
1.32143e-06
1.32143e-06
1.32143e-06
1.32572e-06
1.3274e-06
1.3274e-06
1.32492e-06
1.32143e-06
1.32143e-06
1.32143e-06
1.32143e-06
1.32143e-06
1.32143e-06
1.3257e-06
1.32576e-06
1.32509e-06
1.32143e-06
1.32143e-06
1.32143e-06
1.32143e-06
1.32143e-06
1.32143e-06
1.32571e-06
1.32772e-06
1.32717e-06
1.32476e-06
1.32143e-06
1.32143e-06
1.32143e-06
1.32143e-06
1.32545e-06
1.32572e-06
1.32765e-06
1.32744e-06
1.32558e-06
1.32565e-06
1.32572e-06
1.3257e-06
1.32571e-06
1.32572e-06
1.32765e-06
1.32761e-06
1.3274e-06
1.32576e-06
1.32772e-06
1.32765e-06
1.30871e-06
1.30854e-06
1.30837e-06
1.30625e-06
1.30613e-06
1.30606e-06
1.30623e-06
1.30831e-06
1.30858e-06
1.30837e-06
1.30557e-06
1.30257e-06
1.30257e-06
1.30257e-06
1.30257e-06
1.3059e-06
1.30672e-06
1.30625e-06
1.30257e-06
1.30257e-06
1.30257e-06
1.30257e-06
1.30257e-06
1.30257e-06
1.30679e-06
1.30874e-06
1.30871e-06
1.30613e-06
1.30257e-06
1.30257e-06
1.30257e-06
1.30257e-06
1.30257e-06
1.30257e-06
1.30686e-06
1.30854e-06
1.30854e-06
1.30606e-06
1.30257e-06
1.30257e-06
1.30257e-06
1.30257e-06
1.30257e-06
1.30257e-06
1.30684e-06
1.3069e-06
1.30623e-06
1.30257e-06
1.30257e-06
1.30257e-06
1.30257e-06
1.30257e-06
1.30257e-06
1.30685e-06
1.30886e-06
1.30831e-06
1.3059e-06
1.30257e-06
1.30257e-06
1.30257e-06
1.30257e-06
1.30659e-06
1.30686e-06
1.30879e-06
1.30858e-06
1.30672e-06
1.30679e-06
1.30686e-06
1.30684e-06
1.30685e-06
1.30686e-06
1.30878e-06
1.30875e-06
1.30854e-06
1.3069e-06
1.30885e-06
1.30879e-06
1.28985e-06
1.28968e-06
1.28951e-06
1.28739e-06
1.28727e-06
1.2872e-06
1.28737e-06
1.28945e-06
1.28971e-06
1.28951e-06
1.28671e-06
1.28371e-06
1.28371e-06
1.28371e-06
1.28371e-06
1.28704e-06
1.28786e-06
1.28739e-06
1.28371e-06
1.28371e-06
1.28371e-06
1.28371e-06
1.28371e-06
1.28371e-06
1.28793e-06
1.28988e-06
1.28985e-06
1.28727e-06
1.28371e-06
1.28371e-06
1.28371e-06
1.28371e-06
1.28371e-06
1.28371e-06
1.288e-06
1.28967e-06
1.28968e-06
1.2872e-06
1.28371e-06
1.28371e-06
1.28371e-06
1.28371e-06
1.28371e-06
1.28371e-06
1.28798e-06
1.28804e-06
1.28737e-06
1.28371e-06
1.28371e-06
1.28371e-06
1.28371e-06
1.28371e-06
1.28371e-06
1.28799e-06
1.28999e-06
1.28945e-06
1.28704e-06
1.28371e-06
1.28371e-06
1.28371e-06
1.28371e-06
1.28773e-06
1.288e-06
1.28992e-06
1.28972e-06
1.28786e-06
1.28793e-06
1.288e-06
1.28797e-06
1.28799e-06
1.288e-06
1.28992e-06
1.28988e-06
1.28968e-06
1.28804e-06
1.28999e-06
1.28992e-06
1.27099e-06
1.27082e-06
1.27065e-06
1.26853e-06
1.26841e-06
1.26834e-06
1.26851e-06
1.27059e-06
1.27085e-06
1.27065e-06
1.26785e-06
1.26485e-06
1.26485e-06
1.26485e-06
1.26485e-06
1.26818e-06
1.269e-06
1.26853e-06
1.26485e-06
1.26485e-06
1.26485e-06
1.26485e-06
1.26485e-06
1.26485e-06
1.26906e-06
1.27102e-06
1.27099e-06
1.26841e-06
1.26485e-06
1.26485e-06
1.26485e-06
1.26485e-06
1.26485e-06
1.26485e-06
1.26914e-06
1.27081e-06
1.27082e-06
1.26834e-06
1.26485e-06
1.26485e-06
1.26485e-06
1.26485e-06
1.26485e-06
1.26485e-06
1.26911e-06
1.26917e-06
1.26851e-06
1.26485e-06
1.26485e-06
1.26485e-06
1.26485e-06
1.26485e-06
1.26485e-06
1.26912e-06
1.27113e-06
1.27058e-06
1.26818e-06
1.26485e-06
1.26485e-06
1.26485e-06
1.26485e-06
1.26886e-06
1.26914e-06
1.27106e-06
1.27085e-06
1.269e-06
1.26906e-06
1.26914e-06
1.26911e-06
1.26912e-06
1.26914e-06
1.27106e-06
1.27102e-06
1.27081e-06
1.26917e-06
1.27113e-06
1.27106e-06
1.25213e-06
1.25196e-06
1.25179e-06
1.24967e-06
1.24955e-06
1.24948e-06
1.24965e-06
1.25172e-06
1.25199e-06
1.25179e-06
1.24899e-06
1.24599e-06
1.24599e-06
1.24599e-06
1.24599e-06
1.24932e-06
1.25014e-06
1.24967e-06
1.24599e-06
1.24599e-06
1.24599e-06
1.24599e-06
1.24599e-06
1.24599e-06
1.2502e-06
1.25216e-06
1.25213e-06
1.24955e-06
1.24599e-06
1.24599e-06
1.24599e-06
1.24599e-06
1.24599e-06
1.24599e-06
1.25028e-06
1.25195e-06
1.25196e-06
1.24948e-06
1.24599e-06
1.24599e-06
1.24599e-06
1.24599e-06
1.24599e-06
1.24599e-06
1.25025e-06
1.25031e-06
1.24965e-06
1.24599e-06
1.24599e-06
1.24599e-06
1.24599e-06
1.24599e-06
1.24599e-06
1.25026e-06
1.25227e-06
1.25172e-06
1.24932e-06
1.24599e-06
1.24599e-06
1.24599e-06
1.24599e-06
1.25e-06
1.25028e-06
1.2522e-06
1.25199e-06
1.25014e-06
1.2502e-06
1.25028e-06
1.25025e-06
1.25026e-06
1.25027e-06
1.2522e-06
1.25216e-06
1.25195e-06
1.25031e-06
1.25227e-06
1.2522e-06
1.23327e-06
1.2331e-06
1.23293e-06
1.23081e-06
1.23069e-06
1.23062e-06
1.23079e-06
1.23286e-06
1.23313e-06
1.23293e-06
1.23013e-06
1.22713e-06
1.22713e-06
1.22713e-06
1.22713e-06
1.23046e-06
1.23128e-06
1.23081e-06
1.22713e-06
1.22713e-06
1.22713e-06
1.22713e-06
1.22713e-06
1.22713e-06
1.23134e-06
1.2333e-06
1.23326e-06
1.23069e-06
1.22713e-06
1.22713e-06
1.22713e-06
1.22713e-06
1.22713e-06
1.22713e-06
1.23142e-06
1.23309e-06
1.2331e-06
1.23062e-06
1.22713e-06
1.22713e-06
1.22713e-06
1.22713e-06
1.22713e-06
1.22713e-06
1.23139e-06
1.23145e-06
1.23079e-06
1.22713e-06
1.22713e-06
1.22713e-06
1.22713e-06
1.22713e-06
1.22713e-06
1.2314e-06
1.23341e-06
1.23286e-06
1.23046e-06
1.22713e-06
1.22713e-06
1.22713e-06
1.22713e-06
1.23114e-06
1.23141e-06
1.23334e-06
1.23313e-06