/*--------------------------------*- C++ -*----------------------------------*\
| =========                 |                                                 |
| \\      /  F ield         | OpenFOAM: The Open Source CFD Toolbox           |
|  \\    /   O peration     | Version:  v2012                                 |
|   \\  /    A nd           | Website:  www.openfoam.com                      |
|    \\/     M anipulation  |                                                 |
\*---------------------------------------------------------------------------*/
FoamFile
{
    version     2.0;
    format      ascii;
    class       volScalarField;
    location    "0.295";
    object      p;
}
// * * * * * * * * * * * * * * * * * * * * * * * * * * * * * * * * * * * * * //

dimensions      [0 2 -2 0 0 0 0];


internalField   nonuniform List<scalar> 
247104
(
1.86268e-06
1.86265e-06
1.86278e-06
1.86273e-06
1.86262e-06
1.86275e-06
1.86277e-06
1.86257e-06
1.86264e-06
1.8627e-06
1.86276e-06
1.8626e-06
1.86249e-06
1.86262e-06
1.86277e-06
1.86267e-06
1.86278e-06
1.86276e-06
1.86245e-06
1.86208e-06
1.86193e-06
1.86212e-06
1.8625e-06
1.86277e-06
1.86278e-06
1.86273e-06
1.86259e-06
1.86208e-06
1.86159e-06
1.86141e-06
1.86164e-06
1.86215e-06
1.86264e-06
1.86272e-06
1.86268e-06
1.86262e-06
1.86249e-06
1.86193e-06
1.86141e-06
1.86123e-06
1.86146e-06
1.86201e-06
1.86254e-06
1.8626e-06
1.86275e-06
1.86262e-06
1.86212e-06
1.86164e-06
1.86146e-06
1.86168e-06
1.86219e-06
1.86266e-06
1.86275e-06
1.86277e-06
1.86277e-06
1.8625e-06
1.86215e-06
1.86201e-06
1.86219e-06
1.86254e-06
1.86278e-06
1.86277e-06
1.86257e-06
1.86267e-06
1.86278e-06
1.86264e-06
1.86254e-06
1.86266e-06
1.86278e-06
1.86264e-06
1.86278e-06
1.86273e-06
1.8626e-06
1.86275e-06
1.86276e-06
1.8293e-06
1.82728e-06
1.82681e-06
1.82562e-06
1.82563e-06
1.82555e-06
1.82556e-06
1.82684e-06
1.82716e-06
1.82681e-06
1.82476e-06
1.82203e-06
1.82198e-06
1.82198e-06
1.82203e-06
1.82515e-06
1.82538e-06
1.82562e-06
1.82203e-06
1.82197e-06
1.82203e-06
1.82203e-06
1.82197e-06
1.82203e-06
1.82554e-06
1.82667e-06
1.82929e-06
1.82562e-06
1.82198e-06
1.82203e-06
1.82212e-06
1.82212e-06
1.82203e-06
1.82198e-06
1.8255e-06
1.82713e-06
1.82728e-06
1.82555e-06
1.82198e-06
1.82203e-06
1.82212e-06
1.82212e-06
1.82203e-06
1.82199e-06
1.82568e-06
1.82565e-06
1.82556e-06
1.82203e-06
1.82197e-06
1.82203e-06
1.82203e-06
1.82197e-06
1.82203e-06
1.82545e-06
1.82654e-06
1.82684e-06
1.82515e-06
1.82203e-06
1.82199e-06
1.82198e-06
1.82203e-06
1.82534e-06
1.82555e-06
1.82698e-06
1.82715e-06
1.82538e-06
1.82554e-06
1.8255e-06
1.82568e-06
1.82545e-06
1.82555e-06
1.82739e-06
1.82668e-06
1.82713e-06
1.82565e-06
1.82654e-06
1.82697e-06
1.80918e-06
1.809e-06
1.80883e-06
1.80669e-06
1.80661e-06
1.80657e-06
1.80667e-06
1.80882e-06
1.80906e-06
1.80883e-06
1.80597e-06
1.80299e-06
1.80291e-06
1.80291e-06
1.80299e-06
1.80653e-06
1.80714e-06
1.8067e-06
1.80298e-06
1.80268e-06
1.80271e-06
1.80271e-06
1.80269e-06
1.80299e-06
1.80735e-06
1.80932e-06
1.80919e-06
1.80661e-06
1.8029e-06
1.80271e-06
1.80274e-06
1.80274e-06
1.80271e-06
1.80291e-06
1.80739e-06
1.80906e-06
1.809e-06
1.80658e-06
1.8029e-06
1.80271e-06
1.80274e-06
1.80274e-06
1.80271e-06
1.80291e-06
1.80734e-06
1.80725e-06
1.80667e-06
1.80299e-06
1.80268e-06
1.80271e-06
1.80271e-06
1.80269e-06
1.803e-06
1.8074e-06
1.8094e-06
1.80882e-06
1.80653e-06
1.80299e-06
1.80291e-06
1.80291e-06
1.80299e-06
1.807e-06
1.80728e-06
1.8093e-06
1.80906e-06
1.80714e-06
1.80735e-06
1.80739e-06
1.80733e-06
1.8074e-06
1.80728e-06
1.80921e-06
1.80932e-06
1.80906e-06
1.80725e-06
1.8094e-06
1.8093e-06
1.79009e-06
1.78991e-06
1.78978e-06
1.78758e-06
1.78749e-06
1.7874e-06
1.78759e-06
1.78975e-06
1.79001e-06
1.78978e-06
1.7868e-06
1.78386e-06
1.78381e-06
1.78381e-06
1.78385e-06
1.78736e-06
1.78813e-06
1.78758e-06
1.78386e-06
1.78372e-06
1.78372e-06
1.78372e-06
1.78372e-06
1.78386e-06
1.78828e-06
1.79024e-06
1.79009e-06
1.78749e-06
1.78381e-06
1.78372e-06
1.78372e-06
1.78373e-06
1.78372e-06
1.78382e-06
1.78834e-06
1.78996e-06
1.78992e-06
1.7874e-06
1.78381e-06
1.78372e-06
1.78373e-06
1.78373e-06
1.78372e-06
1.78382e-06
1.78831e-06
1.78822e-06
1.78759e-06
1.78385e-06
1.78372e-06
1.78372e-06
1.78372e-06
1.78372e-06
1.78386e-06
1.78833e-06
1.79029e-06
1.78975e-06
1.78736e-06
1.78386e-06
1.78382e-06
1.78382e-06
1.78386e-06
1.78808e-06
1.78826e-06
1.79025e-06
1.79001e-06
1.78813e-06
1.78828e-06
1.78834e-06
1.78831e-06
1.78833e-06
1.78826e-06
1.79026e-06
1.79024e-06
1.78996e-06
1.78822e-06
1.79029e-06
1.79025e-06
1.77095e-06
1.77078e-06
1.77061e-06
1.76841e-06
1.76831e-06
1.7682e-06
1.76841e-06
1.77059e-06
1.77084e-06
1.77061e-06
1.76763e-06
1.76467e-06
1.76466e-06
1.76466e-06
1.76467e-06
1.76815e-06
1.76897e-06
1.76841e-06
1.76467e-06
1.76463e-06
1.76463e-06
1.76463e-06
1.76463e-06
1.76467e-06
1.76913e-06
1.77109e-06
1.77095e-06
1.76831e-06
1.76466e-06
1.76463e-06
1.76463e-06
1.76463e-06
1.76463e-06
1.76466e-06
1.76924e-06
1.77085e-06
1.77078e-06
1.7682e-06
1.76466e-06
1.76463e-06
1.76463e-06
1.76463e-06
1.76463e-06
1.76466e-06
1.76922e-06
1.76911e-06
1.76841e-06
1.76467e-06
1.76463e-06
1.76463e-06
1.76463e-06
1.76463e-06
1.76467e-06
1.7692e-06
1.77118e-06
1.77059e-06
1.76815e-06
1.76467e-06
1.76466e-06
1.76466e-06
1.76467e-06
1.769e-06
1.76913e-06
1.7711e-06
1.77084e-06
1.76897e-06
1.76913e-06
1.76924e-06
1.76922e-06
1.7692e-06
1.76913e-06
1.77108e-06
1.77109e-06
1.77085e-06
1.76911e-06
1.77118e-06
1.7711e-06
1.7518e-06
1.75163e-06
1.75145e-06
1.74924e-06
1.74914e-06
1.74903e-06
1.74924e-06
1.75142e-06
1.75167e-06
1.75145e-06
1.74847e-06
1.7455e-06
1.7455e-06
1.7455e-06
1.7455e-06
1.74897e-06
1.7498e-06
1.74924e-06
1.7455e-06
1.74549e-06
1.74549e-06
1.74549e-06
1.74549e-06
1.7455e-06
1.74997e-06
1.75193e-06
1.7518e-06
1.74914e-06
1.7455e-06
1.74549e-06
1.74549e-06
1.74549e-06
1.74549e-06
1.7455e-06
1.75009e-06
1.7517e-06
1.75163e-06
1.74903e-06
1.7455e-06
1.74549e-06
1.74549e-06
1.74549e-06
1.74549e-06
1.7455e-06
1.75008e-06
1.74996e-06
1.74924e-06
1.7455e-06
1.74549e-06
1.74549e-06
1.74549e-06
1.74549e-06
1.7455e-06
1.75004e-06
1.75203e-06
1.75142e-06
1.74897e-06
1.7455e-06
1.7455e-06
1.7455e-06
1.7455e-06
1.74986e-06
1.74998e-06
1.75193e-06
1.75167e-06
1.7498e-06
1.74997e-06
1.75009e-06
1.75008e-06
1.75005e-06
1.74998e-06
1.7519e-06
1.75193e-06
1.75171e-06
1.74996e-06
1.75203e-06
1.75193e-06
1.73264e-06
1.73247e-06
1.73229e-06
1.73008e-06
1.72998e-06
1.72987e-06
1.73008e-06
1.73226e-06
1.73251e-06
1.73229e-06
1.72931e-06
1.72634e-06
1.72634e-06
1.72634e-06
1.72634e-06
1.7298e-06
1.73064e-06
1.73008e-06
1.72634e-06
1.72634e-06
1.72634e-06
1.72634e-06
1.72634e-06
1.72634e-06
1.73081e-06
1.73277e-06
1.73264e-06
1.72998e-06
1.72634e-06
1.72634e-06
1.72634e-06
1.72634e-06
1.72634e-06
1.72634e-06
1.73093e-06
1.73255e-06
1.73247e-06
1.72987e-06
1.72634e-06
1.72634e-06
1.72634e-06
1.72634e-06
1.72634e-06
1.72634e-06
1.73092e-06
1.7308e-06
1.73008e-06
1.72634e-06
1.72634e-06
1.72634e-06
1.72634e-06
1.72634e-06
1.72634e-06
1.73088e-06
1.73287e-06
1.73226e-06
1.7298e-06
1.72634e-06
1.72634e-06
1.72634e-06
1.72634e-06
1.73071e-06
1.73082e-06
1.73277e-06
1.73251e-06
1.73064e-06
1.73081e-06
1.73093e-06
1.73092e-06
1.73088e-06
1.73082e-06
1.73274e-06
1.73277e-06
1.73255e-06
1.7308e-06
1.73287e-06
1.73277e-06
1.71348e-06
1.71331e-06
1.71313e-06
1.71092e-06
1.71082e-06
1.71071e-06
1.71092e-06
1.7131e-06
1.71335e-06
1.71313e-06
1.71015e-06
1.70718e-06
1.70718e-06
1.70718e-06
1.70718e-06
1.71064e-06
1.71148e-06
1.71092e-06
1.70718e-06
1.70718e-06
1.70718e-06
1.70718e-06
1.70718e-06
1.70718e-06
1.71165e-06
1.71361e-06
1.71348e-06
1.71082e-06
1.70718e-06
1.70718e-06
1.70718e-06
1.70718e-06
1.70718e-06
1.70718e-06
1.71177e-06
1.71339e-06
1.71331e-06
1.71071e-06
1.70718e-06
1.70718e-06
1.70718e-06
1.70718e-06
1.70718e-06
1.70718e-06
1.71176e-06
1.71164e-06
1.71092e-06
1.70718e-06
1.70718e-06
1.70718e-06
1.70718e-06
1.70718e-06
1.70718e-06
1.71173e-06
1.71372e-06
1.7131e-06
1.71064e-06
1.70718e-06
1.70718e-06
1.70718e-06
1.70718e-06
1.71155e-06
1.71166e-06
1.71361e-06
1.71335e-06
1.71149e-06
1.71165e-06
1.71177e-06
1.71176e-06
1.71173e-06
1.71167e-06
1.71359e-06
1.71361e-06
1.71339e-06
1.71165e-06
1.71371e-06
1.71362e-06
1.69432e-06
1.69415e-06
1.69397e-06
1.69176e-06
1.69166e-06
1.69155e-06
1.69176e-06
1.69394e-06
1.69419e-06
1.69397e-06
1.69099e-06
1.68802e-06
1.68802e-06
1.68802e-06
1.68802e-06
1.69148e-06
1.69232e-06
1.69176e-06
1.68802e-06
1.68802e-06
1.68802e-06
1.68802e-06
1.68802e-06
1.68802e-06
1.69249e-06
1.69445e-06
1.69432e-06
1.69166e-06
1.68802e-06
1.68802e-06
1.68802e-06
1.68802e-06
1.68802e-06
1.68802e-06
1.69262e-06
1.69423e-06
1.69415e-06
1.69155e-06
1.68802e-06
1.68802e-06
1.68802e-06
1.68802e-06
1.68802e-06
1.68802e-06
1.6926e-06
1.69249e-06
1.69176e-06
1.68802e-06
1.68802e-06
1.68802e-06
1.68802e-06
1.68802e-06
1.68802e-06
1.69257e-06
1.69456e-06
1.69395e-06
1.69148e-06
1.68802e-06
1.68802e-06
1.68802e-06
1.68802e-06
1.69239e-06
1.69251e-06
1.69446e-06
1.69419e-06
1.69233e-06
1.69249e-06
1.69261e-06
1.6926e-06
1.69257e-06
1.69251e-06
1.69443e-06
1.69445e-06
1.69423e-06
1.69249e-06
1.69456e-06
1.69446e-06
1.67516e-06
1.67499e-06
1.67481e-06
1.6726e-06
1.6725e-06
1.67239e-06
1.6726e-06
1.67479e-06
1.67504e-06
1.67481e-06
1.67183e-06
1.66886e-06
1.66886e-06
1.66886e-06
1.66886e-06
1.67232e-06
1.67317e-06
1.6726e-06
1.66886e-06
1.66886e-06
1.66886e-06
1.66886e-06
1.66886e-06
1.66886e-06
1.67333e-06
1.67529e-06
1.67516e-06
1.6725e-06
1.66886e-06
1.66886e-06
1.66886e-06
1.66886e-06
1.66886e-06
1.66886e-06
1.67346e-06
1.67507e-06
1.67499e-06
1.67239e-06
1.66886e-06
1.66886e-06
1.66886e-06
1.66886e-06
1.66886e-06
1.66886e-06
1.67345e-06
1.67333e-06
1.6726e-06
1.66886e-06
1.66886e-06
1.66886e-06
1.66886e-06
1.66886e-06
1.66886e-06
1.67341e-06
1.6754e-06
1.67479e-06
1.67232e-06
1.66886e-06
1.66886e-06
1.66886e-06
1.66886e-06
1.67323e-06
1.67335e-06
1.6753e-06
1.67504e-06
1.67317e-06
1.67333e-06
1.67346e-06
1.67345e-06
1.67341e-06
1.67335e-06
1.67527e-06
1.67529e-06
1.67508e-06
1.67333e-06
1.6754e-06
1.6753e-06
1.656e-06
1.65583e-06
1.65565e-06
1.65344e-06
1.65334e-06
1.65323e-06
1.65344e-06
1.65563e-06
1.65588e-06
1.65565e-06
1.65268e-06
1.6497e-06
1.6497e-06
1.6497e-06
1.64971e-06
1.65316e-06
1.65401e-06
1.65344e-06
1.6497e-06
1.6497e-06
1.6497e-06
1.6497e-06
1.6497e-06
1.6497e-06
1.65417e-06
1.65613e-06
1.65601e-06
1.65334e-06
1.6497e-06
1.6497e-06
1.6497e-06
1.6497e-06
1.6497e-06
1.6497e-06
1.6543e-06
1.65591e-06
1.65583e-06
1.65323e-06
1.6497e-06
1.6497e-06
1.6497e-06
1.6497e-06
1.6497e-06
1.6497e-06
1.65429e-06
1.65417e-06
1.65344e-06
1.6497e-06
1.6497e-06
1.6497e-06
1.6497e-06
1.6497e-06
1.6497e-06
1.65425e-06
1.65624e-06
1.65563e-06
1.65316e-06
1.6497e-06
1.6497e-06
1.6497e-06
1.6497e-06
1.65407e-06
1.65419e-06
1.65614e-06
1.65588e-06
1.65401e-06
1.65417e-06
1.6543e-06
1.65429e-06
1.65425e-06
1.65419e-06
1.65611e-06
1.65613e-06
1.65592e-06
1.65417e-06
1.65624e-06
1.65614e-06
1.63684e-06
1.63667e-06
1.63649e-06
1.63428e-06
1.63419e-06
1.63407e-06
1.63428e-06
1.63647e-06
1.63672e-06
1.63649e-06
1.63351e-06
1.63055e-06
1.63055e-06
1.63055e-06
1.63055e-06
1.634e-06
1.63485e-06
1.63428e-06
1.63055e-06
1.63055e-06
1.63055e-06
1.63055e-06
1.63055e-06
1.63055e-06
1.63501e-06
1.63697e-06
1.63685e-06
1.63418e-06
1.63055e-06
1.63055e-06
1.63055e-06
1.63055e-06
1.63055e-06
1.63055e-06
1.63514e-06
1.63676e-06
1.63667e-06
1.63407e-06
1.63055e-06
1.63055e-06
1.63055e-06
1.63055e-06
1.63055e-06
1.63055e-06
1.63513e-06
1.63501e-06
1.63428e-06
1.63055e-06
1.63055e-06
1.63055e-06
1.63055e-06
1.63055e-06
1.63055e-06
1.63509e-06
1.63708e-06
1.63647e-06
1.634e-06
1.63055e-06
1.63055e-06
1.63055e-06
1.63055e-06
1.63491e-06
1.63503e-06
1.63698e-06
1.63672e-06
1.63485e-06
1.63501e-06
1.63514e-06
1.63513e-06
1.63509e-06
1.63503e-06
1.63695e-06
1.63698e-06
1.63676e-06
1.63501e-06
1.63708e-06
1.63698e-06
1.61768e-06
1.61752e-06
1.61733e-06
1.61512e-06
1.61503e-06
1.61492e-06
1.61512e-06
1.61731e-06
1.61756e-06
1.61733e-06
1.61436e-06
1.61139e-06
1.61139e-06
1.61139e-06
1.61139e-06
1.61485e-06
1.61569e-06
1.61512e-06
1.61139e-06
1.61139e-06
1.61139e-06
1.61139e-06
1.61139e-06
1.61139e-06
1.61585e-06
1.61781e-06
1.61769e-06
1.61503e-06
1.61139e-06
1.61139e-06
1.61139e-06
1.61139e-06
1.61139e-06
1.61139e-06
1.61598e-06
1.6176e-06
1.61752e-06
1.61492e-06
1.61139e-06
1.61139e-06
1.61139e-06
1.61139e-06
1.61139e-06
1.61139e-06
1.61597e-06
1.61585e-06
1.61512e-06
1.61139e-06
1.61139e-06
1.61139e-06
1.61139e-06
1.61139e-06
1.61139e-06
1.61593e-06
1.61792e-06
1.61731e-06
1.61484e-06
1.61139e-06
1.61139e-06
1.61139e-06
1.61139e-06
1.61575e-06
1.61587e-06
1.61782e-06
1.61756e-06
1.61569e-06
1.61585e-06
1.61598e-06
1.61597e-06
1.61593e-06
1.61587e-06
1.61779e-06
1.61782e-06
1.6176e-06
1.61585e-06
1.61792e-06
1.61782e-06
1.59853e-06
1.59836e-06
1.59817e-06
1.59597e-06
1.59587e-06
1.59576e-06
1.59597e-06
1.59815e-06
1.5984e-06
1.59817e-06
1.5952e-06
1.59223e-06
1.59223e-06
1.59223e-06
1.59223e-06
1.59569e-06
1.59653e-06
1.59597e-06
1.59223e-06
1.59223e-06
1.59223e-06
1.59223e-06
1.59223e-06
1.59223e-06
1.5967e-06
1.59866e-06
1.59853e-06
1.59587e-06
1.59223e-06
1.59223e-06
1.59223e-06
1.59223e-06
1.59223e-06
1.59223e-06
1.59682e-06
1.59844e-06
1.59836e-06
1.59576e-06
1.59223e-06
1.59223e-06
1.59223e-06
1.59223e-06
1.59223e-06
1.59223e-06
1.59681e-06
1.59669e-06
1.59597e-06
1.59223e-06
1.59223e-06
1.59223e-06
1.59223e-06
1.59223e-06
1.59223e-06
1.59678e-06
1.59876e-06
1.59815e-06
1.59569e-06
1.59223e-06
1.59223e-06
1.59223e-06
1.59223e-06
1.5966e-06
1.59671e-06
1.59866e-06
1.5984e-06
1.59653e-06
1.5967e-06
1.59682e-06
1.59681e-06
1.59677e-06
1.59672e-06
1.59863e-06
1.59866e-06
1.59844e-06
1.59669e-06
1.59876e-06
1.59866e-06
1.57937e-06
1.5792e-06
1.57901e-06
1.57681e-06
1.57671e-06
1.5766e-06
1.57681e-06
1.57899e-06
1.57924e-06
1.57901e-06
1.57604e-06
1.57307e-06
1.57307e-06
1.57307e-06
1.57307e-06
1.57653e-06
1.57737e-06
1.57681e-06
1.57307e-06
1.57307e-06
1.57307e-06
1.57307e-06
1.57307e-06
1.57307e-06
1.57754e-06
1.5795e-06
1.57937e-06
1.57671e-06
1.57307e-06
1.57307e-06
1.57307e-06
1.57307e-06
1.57307e-06
1.57307e-06
1.57766e-06
1.57928e-06
1.5792e-06
1.5766e-06
1.57307e-06
1.57307e-06
1.57307e-06
1.57307e-06
1.57307e-06
1.57307e-06
1.57765e-06
1.57753e-06
1.57681e-06
1.57307e-06
1.57307e-06
1.57307e-06
1.57307e-06
1.57307e-06
1.57307e-06
1.57762e-06
1.5796e-06
1.57899e-06
1.57653e-06
1.57307e-06
1.57307e-06
1.57307e-06
1.57307e-06
1.57744e-06
1.57755e-06
1.5795e-06
1.57924e-06
1.57737e-06
1.57754e-06
1.57766e-06
1.57765e-06
1.57762e-06
1.57756e-06
1.57948e-06
1.5795e-06
1.57928e-06
1.57754e-06
1.5796e-06
1.5795e-06
1.56021e-06
1.56004e-06
1.55986e-06
1.55765e-06
1.55755e-06
1.55744e-06
1.55765e-06
1.55984e-06
1.56008e-06
1.55986e-06
1.55688e-06
1.55391e-06
1.55391e-06
1.55391e-06
1.55391e-06
1.55737e-06
1.55822e-06
1.55765e-06
1.55391e-06
1.55391e-06
1.55391e-06
1.55391e-06
1.55391e-06
1.55391e-06
1.55838e-06
1.56034e-06
1.56021e-06
1.55755e-06
1.55391e-06
1.55391e-06
1.55391e-06
1.55391e-06
1.55391e-06
1.55391e-06
1.55851e-06
1.56012e-06
1.56004e-06
1.55744e-06
1.55391e-06
1.55391e-06
1.55391e-06
1.55391e-06
1.55391e-06
1.55391e-06
1.5585e-06
1.55838e-06
1.55765e-06
1.55391e-06
1.55391e-06
1.55391e-06
1.55391e-06
1.55391e-06
1.55391e-06
1.55846e-06
1.56045e-06
1.55984e-06
1.55737e-06
1.55391e-06
1.55391e-06
1.55391e-06
1.55391e-06
1.55828e-06
1.5584e-06
1.56035e-06
1.56008e-06
1.55822e-06
1.55838e-06
1.5585e-06
1.55849e-06
1.55846e-06
1.5584e-06
1.56032e-06
1.56034e-06
1.56012e-06
1.55838e-06
1.56045e-06
1.56035e-06
1.54105e-06
1.54089e-06
1.5407e-06
1.53849e-06
1.5384e-06
1.53829e-06
1.53849e-06
1.54068e-06
1.54093e-06
1.5407e-06
1.53773e-06
1.53476e-06
1.53476e-06
1.53476e-06
1.53476e-06
1.53822e-06
1.53906e-06
1.53849e-06
1.53476e-06
1.53476e-06
1.53476e-06
1.53476e-06
1.53476e-06
1.53476e-06
1.53922e-06
1.54118e-06
1.54106e-06
1.5384e-06
1.53476e-06
1.53476e-06
1.53476e-06
1.53476e-06
1.53476e-06
1.53476e-06
1.53935e-06
1.54097e-06
1.54089e-06
1.53829e-06
1.53476e-06
1.53476e-06
1.53476e-06
1.53476e-06
1.53476e-06
1.53476e-06
1.53934e-06
1.53922e-06
1.53849e-06
1.53476e-06
1.53476e-06
1.53476e-06
1.53476e-06
1.53476e-06
1.53476e-06
1.5393e-06
1.54129e-06
1.54068e-06
1.53821e-06
1.53476e-06
1.53476e-06
1.53476e-06
1.53476e-06
1.53912e-06
1.53924e-06
1.54119e-06
1.54093e-06
1.53906e-06
1.53922e-06
1.53935e-06
1.53934e-06
1.5393e-06
1.53924e-06
1.54116e-06
1.54119e-06
1.54097e-06
1.53922e-06
1.54129e-06
1.54119e-06
1.5219e-06
1.52173e-06
1.52154e-06
1.51934e-06
1.51924e-06
1.51913e-06
1.51934e-06
1.52152e-06
1.52177e-06
1.52154e-06
1.51857e-06
1.5156e-06
1.5156e-06
1.5156e-06
1.5156e-06
1.51906e-06
1.5199e-06
1.51934e-06
1.5156e-06
1.5156e-06
1.5156e-06
1.5156e-06
1.5156e-06
1.5156e-06
1.52007e-06
1.52203e-06
1.5219e-06
1.51924e-06
1.5156e-06
1.5156e-06
1.5156e-06
1.5156e-06
1.5156e-06
1.5156e-06
1.52019e-06
1.52181e-06
1.52173e-06
1.51913e-06
1.5156e-06
1.5156e-06
1.5156e-06
1.5156e-06
1.5156e-06
1.5156e-06
1.52018e-06
1.52006e-06
1.51934e-06
1.5156e-06
1.5156e-06
1.5156e-06
1.5156e-06
1.5156e-06
1.5156e-06
1.52015e-06
1.52213e-06
1.52152e-06
1.51906e-06
1.5156e-06
1.5156e-06
1.5156e-06
1.5156e-06
1.51997e-06
1.52008e-06
1.52203e-06
1.52177e-06
1.5199e-06
1.52007e-06
1.52019e-06
1.52018e-06
1.52015e-06
1.52009e-06
1.52201e-06
1.52203e-06
1.52181e-06
1.52007e-06
1.52213e-06
1.52203e-06
1.50274e-06
1.50257e-06
1.50239e-06
1.50018e-06
1.50008e-06
1.49997e-06
1.50018e-06
1.50237e-06
1.50261e-06
1.50239e-06
1.49941e-06
1.49644e-06
1.49644e-06
1.49644e-06
1.49644e-06
1.4999e-06
1.50075e-06
1.50018e-06
1.49644e-06
1.49644e-06
1.49644e-06
1.49644e-06
1.49644e-06
1.49644e-06
1.50091e-06
1.50287e-06
1.50274e-06
1.50008e-06
1.49644e-06
1.49644e-06
1.49644e-06
1.49644e-06
1.49644e-06
1.49644e-06
1.50104e-06
1.50265e-06
1.50257e-06
1.49997e-06
1.49644e-06
1.49644e-06
1.49644e-06
1.49644e-06
1.49644e-06
1.49644e-06
1.50103e-06
1.50091e-06
1.50018e-06
1.49644e-06
1.49644e-06
1.49644e-06
1.49644e-06
1.49644e-06
1.49644e-06
1.50099e-06
1.50298e-06
1.50237e-06
1.4999e-06
1.49644e-06
1.49644e-06
1.49644e-06
1.49644e-06
1.50081e-06
1.50093e-06
1.50288e-06
1.50262e-06
1.50075e-06
1.50091e-06
1.50104e-06
1.50102e-06
1.50099e-06
1.50093e-06
1.50285e-06
1.50287e-06
1.50265e-06
1.50091e-06
1.50298e-06
1.50288e-06
1.48359e-06
1.48342e-06
1.48323e-06
1.48103e-06
1.48093e-06
1.48082e-06
1.48103e-06
1.48321e-06
1.48346e-06
1.48323e-06
1.48026e-06
1.47729e-06
1.47729e-06
1.47729e-06
1.47729e-06
1.48075e-06
1.48159e-06
1.48102e-06
1.47729e-06
1.47729e-06
1.47729e-06
1.47729e-06
1.47729e-06
1.47729e-06
1.48176e-06
1.48371e-06
1.48359e-06
1.48093e-06
1.47729e-06
1.47729e-06
1.47729e-06
1.47729e-06
1.47729e-06
1.47729e-06
1.48188e-06
1.4835e-06
1.48342e-06
1.48082e-06
1.47729e-06
1.47729e-06
1.47729e-06
1.47729e-06
1.47729e-06
1.47729e-06
1.48187e-06
1.48175e-06
1.48102e-06
1.47729e-06
1.47729e-06
1.47729e-06
1.47729e-06
1.47729e-06
1.47729e-06
1.48183e-06
1.48382e-06
1.48321e-06
1.48075e-06
1.47729e-06
1.47729e-06
1.47729e-06
1.47729e-06
1.48165e-06
1.48177e-06
1.48372e-06
1.48346e-06
1.48159e-06
1.48175e-06
1.48188e-06
1.48187e-06
1.48183e-06
1.48177e-06
1.48369e-06
1.48372e-06
1.4835e-06
1.48175e-06
1.48382e-06
1.48372e-06
1.46443e-06
1.46426e-06
1.46407e-06
1.46187e-06
1.46177e-06
1.46166e-06
1.46187e-06
1.46405e-06
1.4643e-06
1.46407e-06
1.4611e-06
1.45813e-06
1.45813e-06
1.45813e-06
1.45813e-06
1.46159e-06
1.46243e-06
1.46187e-06
1.45813e-06
1.45813e-06
1.45813e-06
1.45813e-06
1.45813e-06
1.45813e-06
1.4626e-06
1.46456e-06
1.46443e-06
1.46177e-06
1.45813e-06
1.45813e-06
1.45813e-06
1.45813e-06
1.45813e-06
1.45813e-06
1.46272e-06
1.46434e-06
1.46426e-06
1.46166e-06
1.45813e-06
1.45813e-06
1.45813e-06
1.45813e-06
1.45813e-06
1.45813e-06
1.46271e-06
1.46259e-06
1.46187e-06
1.45813e-06
1.45813e-06
1.45813e-06
1.45813e-06
1.45813e-06
1.45813e-06
1.46268e-06
1.46466e-06
1.46405e-06
1.46159e-06
1.45813e-06
1.45813e-06
1.45813e-06
1.45813e-06
1.4625e-06
1.46261e-06
1.46456e-06
1.4643e-06
1.46243e-06
1.4626e-06
1.46272e-06
1.46271e-06
1.46268e-06
1.46262e-06
1.46454e-06
1.46456e-06
1.46434e-06
1.4626e-06
1.46466e-06
1.46457e-06
1.44527e-06
1.4451e-06
1.44492e-06
1.44271e-06
1.44261e-06
1.4425e-06
1.44271e-06
1.4449e-06
1.44514e-06
1.44492e-06
1.44194e-06
1.43897e-06
1.43897e-06
1.43897e-06
1.43897e-06
1.44243e-06
1.44328e-06
1.44271e-06
1.43897e-06
1.43897e-06
1.43897e-06
1.43897e-06
1.43897e-06
1.43897e-06
1.44344e-06
1.4454e-06
1.44527e-06
1.44261e-06
1.43897e-06
1.43897e-06
1.43897e-06
1.43897e-06
1.43897e-06
1.43897e-06
1.44357e-06
1.44518e-06
1.4451e-06
1.4425e-06
1.43897e-06
1.43897e-06
1.43897e-06
1.43897e-06
1.43897e-06
1.43897e-06
1.44356e-06
1.44344e-06
1.44271e-06
1.43897e-06
1.43897e-06
1.43897e-06
1.43897e-06
1.43897e-06
1.43897e-06
1.44352e-06
1.44551e-06
1.4449e-06
1.44243e-06
1.43897e-06
1.43897e-06
1.43897e-06
1.43897e-06
1.44334e-06
1.44346e-06
1.44541e-06
1.44515e-06
1.44328e-06
1.44344e-06
1.44357e-06
1.44356e-06
1.44352e-06
1.44346e-06
1.44538e-06
1.4454e-06
1.44518e-06
1.44344e-06
1.44551e-06
1.44541e-06
1.42612e-06
1.42595e-06
1.42576e-06
1.42356e-06
1.42346e-06
1.42335e-06
1.42356e-06
1.42574e-06
1.42599e-06
1.42576e-06
1.42279e-06
1.41982e-06
1.41982e-06
1.41982e-06
1.41982e-06
1.42328e-06
1.42412e-06
1.42355e-06
1.41982e-06
1.41982e-06
1.41982e-06
1.41982e-06
1.41982e-06
1.41982e-06
1.42429e-06
1.42624e-06
1.42612e-06
1.42346e-06
1.41982e-06
1.41982e-06
1.41982e-06
1.41982e-06
1.41982e-06
1.41982e-06
1.42441e-06
1.42603e-06
1.42595e-06
1.42335e-06
1.41982e-06
1.41982e-06
1.41982e-06
1.41982e-06
1.41982e-06
1.41982e-06
1.4244e-06
1.42428e-06
1.42355e-06
1.41982e-06
1.41982e-06
1.41982e-06
1.41982e-06
1.41982e-06
1.41982e-06
1.42436e-06
1.42635e-06
1.42574e-06
1.42328e-06
1.41982e-06
1.41982e-06
1.41982e-06
1.41982e-06
1.42419e-06
1.4243e-06
1.42625e-06
1.42599e-06
1.42412e-06
1.42428e-06
1.42441e-06
1.4244e-06
1.42436e-06
1.4243e-06
1.42622e-06
1.42625e-06
1.42603e-06
1.42428e-06
1.42635e-06
1.42625e-06
1.40696e-06
1.40679e-06
1.4066e-06
1.4044e-06
1.4043e-06
1.40419e-06
1.4044e-06
1.40659e-06
1.40683e-06
1.40661e-06
1.40363e-06
1.40066e-06
1.40066e-06
1.40066e-06
1.40066e-06
1.40412e-06
1.40496e-06
1.4044e-06
1.40066e-06
1.40066e-06
1.40066e-06
1.40066e-06
1.40066e-06
1.40066e-06
1.40513e-06
1.40709e-06
1.40696e-06
1.4043e-06
1.40066e-06
1.40066e-06
1.40066e-06
1.40066e-06
1.40066e-06
1.40066e-06
1.40525e-06
1.40687e-06
1.40679e-06
1.40419e-06
1.40066e-06
1.40066e-06
1.40066e-06
1.40066e-06
1.40066e-06
1.40066e-06
1.40524e-06
1.40513e-06
1.4044e-06
1.40066e-06
1.40066e-06
1.40066e-06
1.40066e-06
1.40066e-06
1.40066e-06
1.40521e-06
1.4072e-06
1.40659e-06
1.40412e-06
1.40066e-06
1.40066e-06
1.40066e-06
1.40066e-06
1.40503e-06
1.40515e-06
1.4071e-06
1.40683e-06
1.40497e-06
1.40513e-06
1.40525e-06
1.40524e-06
1.40521e-06
1.40515e-06
1.40707e-06
1.40709e-06
1.40687e-06
1.40513e-06
1.4072e-06
1.4071e-06
1.3878e-06
1.38763e-06
1.38745e-06
1.38524e-06
1.38515e-06
1.38504e-06
1.38524e-06
1.38743e-06
1.38768e-06
1.38745e-06
1.38448e-06
1.38151e-06
1.38151e-06
1.38151e-06
1.38151e-06
1.38496e-06
1.38581e-06
1.38524e-06
1.38151e-06
1.38151e-06
1.38151e-06
1.38151e-06
1.38151e-06
1.38151e-06
1.38597e-06
1.38793e-06
1.38781e-06
1.38515e-06
1.38151e-06
1.38151e-06
1.38151e-06
1.38151e-06
1.38151e-06
1.38151e-06
1.3861e-06
1.38772e-06
1.38763e-06
1.38503e-06
1.38151e-06
1.38151e-06
1.38151e-06
1.38151e-06
1.38151e-06
1.38151e-06
1.38609e-06
1.38597e-06
1.38524e-06
1.38151e-06
1.38151e-06
1.38151e-06
1.38151e-06
1.38151e-06
1.38151e-06
1.38605e-06
1.38804e-06
1.38743e-06
1.38496e-06
1.38151e-06
1.38151e-06
1.38151e-06
1.38151e-06
1.38587e-06
1.38599e-06
1.38794e-06
1.38768e-06
1.38581e-06
1.38597e-06
1.3861e-06
1.38609e-06
1.38605e-06
1.38599e-06
1.38791e-06
1.38794e-06
1.38772e-06
1.38597e-06
1.38804e-06
1.38794e-06
1.36865e-06
1.36848e-06
1.36829e-06
1.36609e-06
1.36599e-06
1.36588e-06
1.36609e-06
1.36827e-06
1.36852e-06
1.36829e-06
1.36532e-06
1.36235e-06
1.36235e-06
1.36235e-06
1.36235e-06
1.36581e-06
1.36665e-06
1.36609e-06
1.36235e-06
1.36235e-06
1.36235e-06
1.36235e-06
1.36235e-06
1.36235e-06
1.36682e-06
1.36878e-06
1.36865e-06
1.36599e-06
1.36235e-06
1.36235e-06
1.36235e-06
1.36235e-06
1.36235e-06
1.36235e-06
1.36694e-06
1.36856e-06
1.36848e-06
1.36588e-06
1.36235e-06
1.36235e-06
1.36235e-06
1.36235e-06
1.36235e-06
1.36235e-06
1.36693e-06
1.36681e-06
1.36609e-06
1.36235e-06
1.36235e-06
1.36235e-06
1.36235e-06
1.36235e-06
1.36235e-06
1.3669e-06
1.36888e-06
1.36827e-06
1.36581e-06
1.36235e-06
1.36235e-06
1.36235e-06
1.36235e-06
1.36672e-06
1.36683e-06
1.36878e-06
1.36852e-06
1.36665e-06
1.36682e-06
1.36694e-06
1.36693e-06
1.3669e-06
1.36684e-06
1.36875e-06
1.36878e-06
1.36856e-06
1.36681e-06
1.36888e-06
1.36878e-06
1.34949e-06
1.34932e-06
1.34914e-06
1.34693e-06
1.34683e-06
1.34672e-06
1.34693e-06
1.34912e-06
1.34936e-06
1.34914e-06
1.34616e-06
1.34319e-06
1.34319e-06
1.34319e-06
1.34319e-06
1.34665e-06
1.3475e-06
1.34693e-06
1.3432e-06
1.3432e-06
1.34319e-06
1.34319e-06
1.34319e-06
1.34319e-06
1.34766e-06
1.34962e-06
1.34949e-06
1.34683e-06
1.3432e-06
1.34319e-06
1.34319e-06
1.34319e-06
1.34319e-06
1.34319e-06
1.34779e-06
1.3494e-06
1.34932e-06
1.34672e-06
1.3432e-06
1.34319e-06
1.34319e-06
1.34319e-06
1.34319e-06
1.34319e-06
1.34778e-06
1.34766e-06
1.34693e-06
1.3432e-06
1.34319e-06
1.34319e-06
1.34319e-06
1.34319e-06
1.34319e-06
1.34774e-06
1.34973e-06
1.34912e-06
1.34665e-06
1.34319e-06
1.34319e-06
1.34319e-06
1.34319e-06
1.34756e-06
1.34768e-06
1.34963e-06
1.34937e-06
1.3475e-06
1.34766e-06
1.34779e-06
1.34778e-06
1.34774e-06
1.34768e-06
1.3496e-06
1.34962e-06
1.3494e-06
1.34766e-06
1.34973e-06
1.34963e-06
1.33034e-06
1.33017e-06
1.32998e-06
1.32778e-06
1.32768e-06
1.32757e-06
1.32778e-06
1.32996e-06
1.33021e-06
1.32998e-06
1.32701e-06
1.32404e-06
1.32404e-06
1.32404e-06
1.32404e-06
1.3275e-06
1.32834e-06
1.32778e-06
1.32404e-06
1.32404e-06
1.32404e-06
1.32404e-06
1.32404e-06
1.32404e-06
1.32851e-06
1.33047e-06
1.33034e-06
1.32768e-06
1.32404e-06
1.32404e-06
1.32404e-06
1.32404e-06
1.32404e-06
1.32404e-06
1.32863e-06
1.33025e-06
1.33017e-06
1.32757e-06
1.32404e-06
1.32404e-06
1.32404e-06
1.32404e-06
1.32404e-06
1.32404e-06
1.32862e-06
1.3285e-06
1.32778e-06
1.32404e-06
1.32404e-06
1.32404e-06
1.32404e-06
1.32404e-06
1.32404e-06
1.32859e-06
1.33057e-06
1.32996e-06
1.3275e-06
1.32404e-06
1.32404e-06
1.32404e-06
1.32404e-06
1.32841e-06
1.32852e-06
1.33047e-06
1.33021e-06
1.32834e-06
1.32851e-06
1.32863e-06
1.32862e-06
1.32859e-06
1.32853e-06
1.33044e-06
1.33047e-06
1.33025e-06
1.3285e-06
1.33057e-06
1.33047e-06
1.31118e-06
1.31101e-06
1.31082e-06
1.30862e-06
1.30852e-06
1.30841e-06
1.30862e-06
1.31081e-06
1.31105e-06
1.31083e-06
1.30785e-06
1.30488e-06
1.30488e-06
1.30488e-06
1.30488e-06
1.30834e-06
1.30918e-06
1.30862e-06
1.30488e-06
1.30488e-06
1.30488e-06
1.30488e-06
1.30488e-06
1.30488e-06
1.30935e-06
1.31131e-06
1.31118e-06
1.30852e-06
1.30488e-06
1.30488e-06
1.30488e-06
1.30488e-06
1.30488e-06
1.30488e-06
1.30947e-06
1.31109e-06
1.31101e-06
1.30841e-06
1.30488e-06
1.30488e-06
1.30488e-06
1.30488e-06
1.30488e-06
1.30488e-06
1.30946e-06
1.30935e-06
1.30862e-06
1.30488e-06
1.30488e-06
1.30488e-06
1.30488e-06
1.30488e-06
1.30488e-06
1.30943e-06
1.31142e-06
1.31081e-06
1.30834e-06
1.30488e-06
1.30488e-06
1.30488e-06
1.30488e-06
1.30925e-06
1.30937e-06
1.31132e-06
1.31105e-06
1.30919e-06
1.30935e-06
1.30947e-06
1.30946e-06
1.30943e-06
1.30937e-06
1.31129e-06
1.31131e-06
1.31109e-06
1.30935e-06
1.31142e-06
1.31132e-06
1.29202e-06
1.29185e-06
1.29167e-06
1.28946e-06
1.28936e-06
1.28926e-06
1.28946e-06
1.29165e-06
1.2919e-06
1.29167e-06
1.28869e-06
1.28573e-06
1.28573e-06
1.28573e-06
1.28573e-06
1.28918e-06
1.29003e-06
1.28946e-06
1.28573e-06
1.28573e-06
1.28573e-06
1.28573e-06
1.28573e-06
1.28573e-06
1.29019e-06
1.29215e-06
1.29203e-06
1.28936e-06
1.28573e-06
1.28573e-06
1.28573e-06
1.28573e-06
1.28573e-06
1.28573e-06
1.29032e-06
1.29194e-06
1.29185e-06
1.28925e-06
1.28573e-06
1.28573e-06
1.28573e-06
1.28573e-06
1.28573e-06
1.28573e-06
1.29031e-06
1.29019e-06
1.28946e-06
1.28573e-06
1.28573e-06
1.28573e-06
1.28573e-06
1.28573e-06
1.28573e-06
1.29027e-06
1.29226e-06
1.29165e-06
1.28918e-06
1.28573e-06
1.28573e-06
1.28573e-06
1.28573e-06
1.29009e-06
1.29021e-06
1.29216e-06
1.2919e-06
1.29003e-06
1.29019e-06
1.29032e-06
1.29031e-06
1.29027e-06
1.29021e-06
1.29213e-06
1.29215e-06
1.29194e-06
1.29019e-06
1.29226e-06
1.29216e-06
1.27287e-06
1.2727e-06
1.27251e-06
1.27031e-06
1.27021e-06
1.2701e-06
1.27031e-06
1.27249e-06
1.27274e-06
1.27251e-06
1.26954e-06
1.26657e-06
1.26657e-06
1.26657e-06
1.26657e-06
1.27003e-06
1.27087e-06
1.27031e-06
1.26657e-06
1.26657e-06
1.26657e-06
1.26657e-06
1.26657e-06
1.26657e-06
1.27104e-06
1.273e-06
1.27287e-06
1.27021e-06
1.26657e-06
1.26657e-06
1.26657e-06
1.26657e-06
1.26657e-06
1.26657e-06
1.27116e-06
1.27278e-06
1.2727e-06
1.2701e-06
1.26657e-06
1.26657e-06
1.26657e-06
1.26657e-06
1.26657e-06
1.26657e-06
1.27115e-06
1.27103e-06
1.27031e-06
1.26657e-06
1.26657e-06
1.26657e-06
1.26657e-06
1.26657e-06
1.26657e-06
1.27112e-06
1.2731e-06
1.27249e-06
1.27003e-06
1.26657e-06
1.26657e-06
1.26657e-06
1.26657e-06
1.27094e-06
1.27105e-06
1.273e-06
1.27274e-06
1.27087e-06
1.27103e-06
1.27116e-06
1.27115e-06
1.27111e-06
1.27105e-06
1.27297e-06
1.273e-06
1.27278e-06
1.27103e-06
1.2731e-06
1.273e-06
1.25371e-06
1.25354e-06
1.25335e-06
1.25115e-06
1.25105e-06
1.25094e-06
1.25115e-06
1.25333e-06
1.25358e-06
1.25335e-06
1.25038e-06
1.24741e-06
1.24741e-06
1.24741e-06
1.24741e-06
1.25087e-06
1.25171e-06
1.25115e-06
1.24741e-06
1.24741e-06
1.24741e-06
1.24741e-06
1.24741e-06
1.24741e-06
1.25188e-06
1.25384e-06
1.25371e-06
1.25105e-06
1.24741e-06
1.24741e-06
1.24741e-06
1.24741e-06
1.24741e-06
1.24741e-06
1.252e-06
1.25362e-06
1.25354e-06
1.25094e-06
1.24741e-06
1.24741e-06
1.24741e-06
1.24741e-06
1.24741e-06
1.24741e-06
1.25199e-06
1.25187e-06
1.25115e-06
1.24741e-06
1.24741e-06
1.24741e-06
1.24741e-06
1.24741e-06
1.24741e-06
1.25196e-06
1.25394e-06
1.25333e-06
1.25087e-06
1.24741e-06
1.24741e-06
1.24741e-06
1.24741e-06
1.25178e-06
1.25189e-06
1.25384e-06