/*--------------------------------*- C++ -*----------------------------------*\
| =========                 |                                                 |
| \\      /  F ield         | OpenFOAM: The Open Source CFD Toolbox           |
|  \\    /   O peration     | Version:  v2012                                 |
|   \\  /    A nd           | Website:  www.openfoam.com                      |
|    \\/     M anipulation  |                                                 |
\*---------------------------------------------------------------------------*/
FoamFile
{
    version     2.0;
    format      ascii;
    class       volScalarField;
    location    "0.135";
    object      p;
}
// * * * * * * * * * * * * * * * * * * * * * * * * * * * * * * * * * * * * * //

dimensions      [0 2 -2 0 0 0 0];


internalField   nonuniform List<scalar> 
247104
(
1.95402e-06
1.95465e-06
1.95461e-06
1.9544e-06
1.95415e-06
1.95444e-06
1.95462e-06
1.95457e-06
1.95464e-06
1.95471e-06
1.95474e-06
1.95451e-06
1.95435e-06
1.95455e-06
1.95476e-06
1.95468e-06
1.95461e-06
1.95474e-06
1.95446e-06
1.95406e-06
1.95389e-06
1.9541e-06
1.95451e-06
1.95475e-06
1.95458e-06
1.9544e-06
1.95451e-06
1.95406e-06
1.95357e-06
1.95339e-06
1.95362e-06
1.95413e-06
1.95454e-06
1.95434e-06
1.95402e-06
1.95416e-06
1.95435e-06
1.9539e-06
1.9534e-06
1.95321e-06
1.95344e-06
1.95396e-06
1.95438e-06
1.95408e-06
1.95444e-06
1.95455e-06
1.9541e-06
1.95362e-06
1.95344e-06
1.95367e-06
1.95417e-06
1.95457e-06
1.95439e-06
1.95462e-06
1.95476e-06
1.95451e-06
1.95413e-06
1.95396e-06
1.95417e-06
1.95456e-06
1.95476e-06
1.95459e-06
1.95457e-06
1.95468e-06
1.95475e-06
1.95454e-06
1.95438e-06
1.95457e-06
1.95476e-06
1.95464e-06
1.95458e-06
1.95434e-06
1.95408e-06
1.95439e-06
1.95459e-06
1.92019e-06
1.91808e-06
1.91836e-06
1.91721e-06
1.91679e-06
1.91677e-06
1.91674e-06
1.91863e-06
1.9189e-06
1.91835e-06
1.91621e-06
1.91295e-06
1.91276e-06
1.91276e-06
1.91295e-06
1.91661e-06
1.91683e-06
1.9172e-06
1.91294e-06
1.91285e-06
1.91286e-06
1.91286e-06
1.91285e-06
1.91295e-06
1.91713e-06
1.9181e-06
1.9202e-06
1.91678e-06
1.91276e-06
1.91286e-06
1.91298e-06
1.91298e-06
1.91286e-06
1.91276e-06
1.91685e-06
1.91877e-06
1.91811e-06
1.91677e-06
1.91276e-06
1.91286e-06
1.91298e-06
1.91298e-06
1.91286e-06
1.91276e-06
1.91696e-06
1.91656e-06
1.91675e-06
1.91295e-06
1.91285e-06
1.91286e-06
1.91286e-06
1.91285e-06
1.91295e-06
1.91691e-06
1.91775e-06
1.91863e-06
1.91661e-06
1.91295e-06
1.91276e-06
1.91276e-06
1.91294e-06
1.91663e-06
1.91709e-06
1.91866e-06
1.91892e-06
1.91683e-06
1.91714e-06
1.91685e-06
1.91695e-06
1.9169e-06
1.91709e-06
1.91982e-06
1.91811e-06
1.91877e-06
1.91656e-06
1.91774e-06
1.91866e-06
1.9001e-06
1.89989e-06
1.89971e-06
1.89749e-06
1.89745e-06
1.89746e-06
1.89747e-06
1.89993e-06
1.90002e-06
1.89972e-06
1.89686e-06
1.89369e-06
1.89348e-06
1.89348e-06
1.89369e-06
1.89778e-06
1.89795e-06
1.89748e-06
1.89369e-06
1.8932e-06
1.89318e-06
1.89318e-06
1.8932e-06
1.8937e-06
1.89855e-06
1.90051e-06
1.9001e-06
1.89745e-06
1.89348e-06
1.89317e-06
1.89318e-06
1.89318e-06
1.89317e-06
1.89348e-06
1.8985e-06
1.90003e-06
1.89989e-06
1.89746e-06
1.89348e-06
1.89317e-06
1.89318e-06
1.89318e-06
1.89317e-06
1.89348e-06
1.89839e-06
1.89784e-06
1.89748e-06
1.89369e-06
1.8932e-06
1.89317e-06
1.89317e-06
1.89319e-06
1.89369e-06
1.89858e-06
1.90045e-06
1.89993e-06
1.89778e-06
1.89369e-06
1.89348e-06
1.89348e-06
1.89369e-06
1.89827e-06
1.89829e-06
1.90038e-06
1.90002e-06
1.89794e-06
1.89855e-06
1.8985e-06
1.89839e-06
1.89858e-06
1.89829e-06
1.9005e-06
1.9005e-06
1.90003e-06
1.89784e-06
1.90045e-06
1.90039e-06
1.88004e-06
1.87987e-06
1.87982e-06
1.87744e-06
1.87744e-06
1.87732e-06
1.87752e-06
1.88e-06
1.8801e-06
1.87982e-06
1.8765e-06
1.87355e-06
1.87347e-06
1.87347e-06
1.87355e-06
1.87766e-06
1.87814e-06
1.87743e-06
1.87355e-06
1.87336e-06
1.87335e-06
1.87335e-06
1.87336e-06
1.87355e-06
1.87866e-06
1.88052e-06
1.88004e-06
1.87744e-06
1.87347e-06
1.87334e-06
1.87334e-06
1.87334e-06
1.87335e-06
1.87348e-06
1.87877e-06
1.87996e-06
1.87987e-06
1.87732e-06
1.87347e-06
1.87334e-06
1.87334e-06
1.87334e-06
1.87335e-06
1.87347e-06
1.8787e-06
1.87797e-06
1.87751e-06
1.87355e-06
1.87336e-06
1.87334e-06
1.87334e-06
1.87336e-06
1.87355e-06
1.87878e-06
1.88039e-06
1.88001e-06
1.87765e-06
1.87355e-06
1.87347e-06
1.87347e-06
1.87355e-06
1.87861e-06
1.87845e-06
1.88047e-06
1.8801e-06
1.87813e-06
1.87866e-06
1.87877e-06
1.8787e-06
1.87877e-06
1.87845e-06
1.88041e-06
1.88051e-06
1.87996e-06
1.87797e-06
1.88039e-06
1.88047e-06
1.86003e-06
1.85987e-06
1.85972e-06
1.8573e-06
1.85729e-06
1.8571e-06
1.85739e-06
1.85991e-06
1.86002e-06
1.85972e-06
1.85619e-06
1.85334e-06
1.85331e-06
1.85332e-06
1.85334e-06
1.85741e-06
1.85808e-06
1.8573e-06
1.85333e-06
1.85328e-06
1.85328e-06
1.85328e-06
1.85328e-06
1.85334e-06
1.85863e-06
1.86049e-06
1.86004e-06
1.85729e-06
1.85331e-06
1.85328e-06
1.85328e-06
1.85328e-06
1.85328e-06
1.85331e-06
1.85887e-06
1.86001e-06
1.85987e-06
1.8571e-06
1.85331e-06
1.85328e-06
1.85328e-06
1.85328e-06
1.85328e-06
1.85331e-06
1.85881e-06
1.85805e-06
1.85739e-06
1.85333e-06
1.85328e-06
1.85328e-06
1.85328e-06
1.85328e-06
1.85333e-06
1.8588e-06
1.86042e-06
1.85991e-06
1.8574e-06
1.85334e-06
1.85331e-06
1.85331e-06
1.85333e-06
1.8587e-06
1.85843e-06
1.86042e-06
1.86003e-06
1.85808e-06
1.85863e-06
1.85886e-06
1.85881e-06
1.8588e-06
1.85843e-06
1.86037e-06
1.86049e-06
1.86001e-06
1.85805e-06
1.86042e-06
1.86042e-06
1.83994e-06
1.83979e-06
1.83959e-06
1.83716e-06
1.83716e-06
1.83693e-06
1.83725e-06
1.83978e-06
1.83991e-06
1.83959e-06
1.83601e-06
1.83317e-06
1.83317e-06
1.83317e-06
1.83317e-06
1.83721e-06
1.83797e-06
1.83716e-06
1.83317e-06
1.83316e-06
1.83316e-06
1.83316e-06
1.83316e-06
1.83317e-06
1.83852e-06
1.84038e-06
1.83994e-06
1.83716e-06
1.83316e-06
1.83316e-06
1.83316e-06
1.83316e-06
1.83316e-06
1.83316e-06
1.83879e-06
1.83994e-06
1.83978e-06
1.83692e-06
1.83316e-06
1.83316e-06
1.83316e-06
1.83316e-06
1.83316e-06
1.83317e-06
1.83875e-06
1.83798e-06
1.83725e-06
1.83317e-06
1.83316e-06
1.83316e-06
1.83316e-06
1.83316e-06
1.83317e-06
1.83871e-06
1.84034e-06
1.83978e-06
1.83721e-06
1.83317e-06
1.83316e-06
1.83316e-06
1.83317e-06
1.83863e-06
1.83833e-06
1.8403e-06
1.8399e-06
1.83797e-06
1.83852e-06
1.8388e-06
1.83875e-06
1.83871e-06
1.83833e-06
1.84024e-06
1.84038e-06
1.83994e-06
1.83799e-06
1.84034e-06
1.84031e-06
1.81981e-06
1.81966e-06
1.81945e-06
1.81702e-06
1.81702e-06
1.81678e-06
1.81711e-06
1.81964e-06
1.81977e-06
1.81945e-06
1.81586e-06
1.81302e-06
1.81302e-06
1.81302e-06
1.81302e-06
1.81706e-06
1.81783e-06
1.81702e-06
1.81302e-06
1.81302e-06
1.81302e-06
1.81302e-06
1.81302e-06
1.81302e-06
1.81839e-06
1.82025e-06
1.81981e-06
1.81702e-06
1.81302e-06
1.81302e-06
1.81302e-06
1.81302e-06
1.81302e-06
1.81302e-06
1.81868e-06
1.81982e-06
1.81966e-06
1.81678e-06
1.81302e-06
1.81302e-06
1.81302e-06
1.81302e-06
1.81302e-06
1.81302e-06
1.81864e-06
1.81787e-06
1.81711e-06
1.81302e-06
1.81302e-06
1.81302e-06
1.81302e-06
1.81302e-06
1.81302e-06
1.81858e-06
1.82022e-06
1.81965e-06
1.81705e-06
1.81302e-06
1.81302e-06
1.81302e-06
1.81302e-06
1.81852e-06
1.8182e-06
1.82017e-06
1.81976e-06
1.81783e-06
1.81839e-06
1.81867e-06
1.81863e-06
1.81858e-06
1.8182e-06
1.8201e-06
1.82025e-06
1.81982e-06
1.81786e-06
1.82021e-06
1.82017e-06
1.79967e-06
1.79952e-06
1.79931e-06
1.79688e-06
1.79688e-06
1.79664e-06
1.79697e-06
1.7995e-06
1.79963e-06
1.79931e-06
1.79571e-06
1.79288e-06
1.79288e-06
1.79288e-06
1.79288e-06
1.79691e-06
1.7977e-06
1.79687e-06
1.79288e-06
1.79288e-06
1.79288e-06
1.79288e-06
1.79288e-06
1.79288e-06
1.79825e-06
1.80011e-06
1.79968e-06
1.79687e-06
1.79288e-06
1.79288e-06
1.79288e-06
1.79288e-06
1.79288e-06
1.79288e-06
1.79854e-06
1.79968e-06
1.79952e-06
1.79664e-06
1.79288e-06
1.79288e-06
1.79288e-06
1.79288e-06
1.79288e-06
1.79288e-06
1.7985e-06
1.79773e-06
1.79697e-06
1.79288e-06
1.79288e-06
1.79288e-06
1.79288e-06
1.79288e-06
1.79288e-06
1.79844e-06
1.80008e-06
1.7995e-06
1.79691e-06
1.79288e-06
1.79288e-06
1.79288e-06
1.79288e-06
1.79838e-06
1.79806e-06
1.80003e-06
1.79962e-06
1.79769e-06
1.79825e-06
1.79854e-06
1.7985e-06
1.79844e-06
1.79806e-06
1.79997e-06
1.80011e-06
1.79968e-06
1.79773e-06
1.80008e-06
1.80004e-06
1.77953e-06
1.77938e-06
1.77917e-06
1.77674e-06
1.77674e-06
1.7765e-06
1.77683e-06
1.77936e-06
1.77949e-06
1.77917e-06
1.77557e-06
1.77274e-06
1.77274e-06
1.77274e-06
1.77274e-06
1.77677e-06
1.77756e-06
1.77673e-06
1.77274e-06
1.77274e-06
1.77274e-06
1.77274e-06
1.77274e-06
1.77274e-06
1.77811e-06
1.77997e-06
1.77954e-06
1.77674e-06
1.77274e-06
1.77274e-06
1.77274e-06
1.77274e-06
1.77274e-06
1.77274e-06
1.7784e-06
1.77954e-06
1.77938e-06
1.7765e-06
1.77274e-06
1.77274e-06
1.77274e-06
1.77274e-06
1.77274e-06
1.77274e-06
1.77836e-06
1.77759e-06
1.77683e-06
1.77274e-06
1.77274e-06
1.77274e-06
1.77274e-06
1.77274e-06
1.77274e-06
1.7783e-06
1.77994e-06
1.77936e-06
1.77677e-06
1.77274e-06
1.77274e-06
1.77274e-06
1.77274e-06
1.77824e-06
1.77792e-06
1.77989e-06
1.77948e-06
1.77755e-06
1.77811e-06
1.7784e-06
1.77837e-06
1.77829e-06
1.77792e-06
1.77983e-06
1.77997e-06
1.77954e-06
1.77759e-06
1.77994e-06
1.7799e-06
1.75939e-06
1.75924e-06
1.75903e-06
1.7566e-06
1.7566e-06
1.75636e-06
1.75669e-06
1.75922e-06
1.75934e-06
1.75903e-06
1.75543e-06
1.7526e-06
1.7526e-06
1.7526e-06
1.7526e-06
1.75663e-06
1.75742e-06
1.75659e-06
1.7526e-06
1.7526e-06
1.7526e-06
1.7526e-06
1.7526e-06
1.7526e-06
1.75797e-06
1.75983e-06
1.7594e-06
1.75659e-06
1.7526e-06
1.7526e-06
1.7526e-06
1.7526e-06
1.7526e-06
1.7526e-06
1.75826e-06
1.7594e-06
1.75924e-06
1.75635e-06
1.7526e-06
1.7526e-06
1.7526e-06
1.7526e-06
1.7526e-06
1.7526e-06
1.75822e-06
1.75745e-06
1.75669e-06
1.7526e-06
1.7526e-06
1.7526e-06
1.7526e-06
1.7526e-06
1.7526e-06
1.75816e-06
1.7598e-06
1.75922e-06
1.75663e-06
1.7526e-06
1.7526e-06
1.7526e-06
1.7526e-06
1.7581e-06
1.75778e-06
1.75975e-06
1.75934e-06
1.75741e-06
1.75797e-06
1.75826e-06
1.75822e-06
1.75816e-06
1.75778e-06
1.75969e-06
1.75983e-06
1.7594e-06
1.75745e-06
1.7598e-06
1.75976e-06
1.73925e-06
1.7391e-06
1.73889e-06
1.73645e-06
1.73645e-06
1.73621e-06
1.73655e-06
1.73909e-06
1.7392e-06
1.73889e-06
1.73529e-06
1.73246e-06
1.73246e-06
1.73246e-06
1.73246e-06
1.73649e-06
1.73727e-06
1.73645e-06
1.73246e-06
1.73246e-06
1.73246e-06
1.73246e-06
1.73246e-06
1.73246e-06
1.73783e-06
1.73969e-06
1.73926e-06
1.73645e-06
1.73246e-06
1.73246e-06
1.73246e-06
1.73246e-06
1.73246e-06
1.73246e-06
1.73812e-06
1.73926e-06
1.7391e-06
1.73621e-06
1.73246e-06
1.73246e-06
1.73246e-06
1.73246e-06
1.73246e-06
1.73246e-06
1.73808e-06
1.73731e-06
1.73655e-06
1.73246e-06
1.73246e-06
1.73246e-06
1.73246e-06
1.73246e-06
1.73246e-06
1.73802e-06
1.73966e-06
1.73908e-06
1.73649e-06
1.73246e-06
1.73246e-06
1.73246e-06
1.73246e-06
1.73796e-06
1.73764e-06
1.73961e-06
1.7392e-06
1.73727e-06
1.73783e-06
1.73812e-06
1.73808e-06
1.73802e-06
1.73764e-06
1.73955e-06
1.73969e-06
1.73926e-06
1.73731e-06
1.73966e-06
1.73962e-06
1.71911e-06
1.71896e-06
1.71874e-06
1.71631e-06
1.71631e-06
1.71607e-06
1.7164e-06
1.71895e-06
1.71906e-06
1.71875e-06
1.71515e-06
1.71232e-06
1.71232e-06
1.71232e-06
1.71232e-06
1.71635e-06
1.71713e-06
1.71631e-06
1.71232e-06
1.71232e-06
1.71232e-06
1.71232e-06
1.71232e-06
1.71232e-06
1.71769e-06
1.71955e-06
1.71911e-06
1.71631e-06
1.71232e-06
1.71232e-06
1.71232e-06
1.71232e-06
1.71232e-06
1.71232e-06
1.71798e-06
1.71912e-06
1.71896e-06
1.71607e-06
1.71232e-06
1.71232e-06
1.71232e-06
1.71232e-06
1.71232e-06
1.71232e-06
1.71794e-06
1.71717e-06
1.7164e-06
1.71232e-06
1.71232e-06
1.71232e-06
1.71232e-06
1.71232e-06
1.71232e-06
1.71788e-06
1.71952e-06
1.71894e-06
1.71634e-06
1.71232e-06
1.71232e-06
1.71232e-06
1.71232e-06
1.71782e-06
1.7175e-06
1.71947e-06
1.71906e-06
1.71713e-06
1.71769e-06
1.71798e-06
1.71794e-06
1.71788e-06
1.7175e-06
1.7194e-06
1.71955e-06
1.71912e-06
1.71717e-06
1.71952e-06
1.71947e-06
1.69897e-06
1.69882e-06
1.6986e-06
1.69617e-06
1.69617e-06
1.69593e-06
1.69626e-06
1.6988e-06
1.69892e-06
1.69861e-06
1.69501e-06
1.69217e-06
1.69217e-06
1.69217e-06
1.69217e-06
1.69621e-06
1.69699e-06
1.69617e-06
1.69217e-06
1.69217e-06
1.69217e-06
1.69217e-06
1.69217e-06
1.69217e-06
1.69755e-06
1.69941e-06
1.69897e-06
1.69617e-06
1.69217e-06
1.69217e-06
1.69217e-06
1.69217e-06
1.69217e-06
1.69217e-06
1.69784e-06
1.69898e-06
1.69882e-06
1.69593e-06
1.69217e-06
1.69217e-06
1.69217e-06
1.69217e-06
1.69217e-06
1.69217e-06
1.6978e-06
1.69702e-06
1.69626e-06
1.69217e-06
1.69217e-06
1.69217e-06
1.69217e-06
1.69217e-06
1.69217e-06
1.69774e-06
1.69937e-06
1.6988e-06
1.6962e-06
1.69217e-06
1.69217e-06
1.69217e-06
1.69217e-06
1.69768e-06
1.69736e-06
1.69933e-06
1.69892e-06
1.69699e-06
1.69754e-06
1.69784e-06
1.6978e-06
1.69774e-06
1.69736e-06
1.69926e-06
1.69941e-06
1.69898e-06
1.69703e-06
1.69938e-06
1.69933e-06
1.67882e-06
1.67868e-06
1.67846e-06
1.67603e-06
1.67603e-06
1.67579e-06
1.67612e-06
1.67866e-06
1.67878e-06
1.67847e-06
1.67486e-06
1.67203e-06
1.67203e-06
1.67203e-06
1.67203e-06
1.67607e-06
1.67685e-06
1.67603e-06
1.67203e-06
1.67203e-06
1.67203e-06
1.67203e-06
1.67203e-06
1.67203e-06
1.6774e-06
1.67926e-06
1.67883e-06
1.67603e-06
1.67203e-06
1.67203e-06
1.67203e-06
1.67203e-06
1.67203e-06
1.67203e-06
1.67769e-06
1.67883e-06
1.67868e-06
1.67579e-06
1.67203e-06
1.67203e-06
1.67203e-06
1.67203e-06
1.67203e-06
1.67203e-06
1.67766e-06
1.67688e-06
1.67612e-06
1.67203e-06
1.67203e-06
1.67203e-06
1.67203e-06
1.67203e-06
1.67203e-06
1.67759e-06
1.67923e-06
1.67866e-06
1.67606e-06
1.67203e-06
1.67203e-06
1.67203e-06
1.67203e-06
1.67754e-06
1.67722e-06
1.67919e-06
1.67878e-06
1.67685e-06
1.6774e-06
1.6777e-06
1.67766e-06
1.6776e-06
1.67722e-06
1.67912e-06
1.67926e-06
1.67884e-06
1.67689e-06
1.67923e-06
1.67919e-06
1.65868e-06
1.65854e-06
1.65832e-06
1.65589e-06
1.65589e-06
1.65565e-06
1.65598e-06
1.65852e-06
1.65863e-06
1.65832e-06
1.65472e-06
1.65189e-06
1.65189e-06
1.65189e-06
1.65189e-06
1.65592e-06
1.65671e-06
1.65589e-06
1.65189e-06
1.65189e-06
1.65189e-06
1.65189e-06
1.65189e-06
1.65189e-06
1.65726e-06
1.65912e-06
1.65869e-06
1.65589e-06
1.65189e-06
1.65189e-06
1.65189e-06
1.65189e-06
1.65189e-06
1.65189e-06
1.65755e-06
1.65869e-06
1.65854e-06
1.65565e-06
1.65189e-06
1.65189e-06
1.65189e-06
1.65189e-06
1.65189e-06
1.65189e-06
1.65752e-06
1.65674e-06
1.65598e-06
1.65189e-06
1.65189e-06
1.65189e-06
1.65189e-06
1.65189e-06
1.65189e-06
1.65745e-06
1.65909e-06
1.65852e-06
1.65592e-06
1.65189e-06
1.65189e-06
1.65189e-06
1.65189e-06
1.6574e-06
1.65708e-06
1.65905e-06
1.65864e-06
1.6567e-06
1.65726e-06
1.65756e-06
1.65752e-06
1.65746e-06
1.65708e-06
1.65898e-06
1.65912e-06
1.6587e-06
1.65675e-06
1.65909e-06
1.65905e-06
1.63854e-06
1.63839e-06
1.63817e-06
1.63575e-06
1.63575e-06
1.63551e-06
1.63584e-06
1.63838e-06
1.63849e-06
1.63818e-06
1.63458e-06
1.63175e-06
1.63175e-06
1.63175e-06
1.63175e-06
1.63578e-06
1.63657e-06
1.63574e-06
1.63175e-06
1.63175e-06
1.63175e-06
1.63175e-06
1.63175e-06
1.63175e-06
1.63712e-06
1.63898e-06
1.63855e-06
1.63575e-06
1.63175e-06
1.63175e-06
1.63175e-06
1.63175e-06
1.63175e-06
1.63175e-06
1.63741e-06
1.63855e-06
1.63839e-06
1.6355e-06
1.63175e-06
1.63175e-06
1.63175e-06
1.63175e-06
1.63175e-06
1.63175e-06
1.63738e-06
1.6366e-06
1.63584e-06
1.63175e-06
1.63175e-06
1.63175e-06
1.63175e-06
1.63175e-06
1.63175e-06
1.63731e-06
1.63895e-06
1.63838e-06
1.63578e-06
1.63175e-06
1.63175e-06
1.63175e-06
1.63175e-06
1.63725e-06
1.63693e-06
1.6389e-06
1.63849e-06
1.63656e-06
1.63712e-06
1.63741e-06
1.63738e-06
1.63731e-06
1.63693e-06
1.63884e-06
1.63898e-06
1.63856e-06
1.6366e-06
1.63895e-06
1.63891e-06
1.6184e-06
1.61825e-06
1.61804e-06
1.61561e-06
1.61561e-06
1.61537e-06
1.6157e-06
1.61824e-06
1.61835e-06
1.61804e-06
1.61444e-06
1.61161e-06
1.61161e-06
1.61161e-06
1.61161e-06
1.61564e-06
1.61643e-06
1.6156e-06
1.61161e-06
1.61161e-06
1.61161e-06
1.61161e-06
1.61161e-06
1.61161e-06
1.61698e-06
1.61884e-06
1.61841e-06
1.61561e-06
1.61161e-06
1.61161e-06
1.61161e-06
1.61161e-06
1.61161e-06
1.61161e-06
1.61727e-06
1.61841e-06
1.61825e-06
1.61536e-06
1.61161e-06
1.61161e-06
1.61161e-06
1.61161e-06
1.61161e-06
1.61161e-06
1.61723e-06
1.61646e-06
1.6157e-06
1.61161e-06
1.61161e-06
1.61161e-06
1.61161e-06
1.61161e-06
1.61161e-06
1.61717e-06
1.61881e-06
1.61824e-06
1.61564e-06
1.61161e-06
1.61161e-06
1.61161e-06
1.61161e-06
1.61711e-06
1.61679e-06
1.61876e-06
1.61835e-06
1.61642e-06
1.61698e-06
1.61727e-06
1.61724e-06
1.61717e-06
1.61679e-06
1.6187e-06
1.61884e-06
1.61841e-06
1.61646e-06
1.61881e-06
1.61877e-06
1.59826e-06
1.59811e-06
1.59789e-06
1.59547e-06
1.59547e-06
1.59523e-06
1.59556e-06
1.59809e-06
1.59821e-06
1.5979e-06
1.5943e-06
1.59147e-06
1.59147e-06
1.59147e-06
1.59147e-06
1.5955e-06
1.59629e-06
1.59546e-06
1.59147e-06
1.59147e-06
1.59147e-06
1.59147e-06
1.59147e-06
1.59147e-06
1.59684e-06
1.5987e-06
1.59827e-06
1.59546e-06
1.59147e-06
1.59147e-06
1.59147e-06
1.59147e-06
1.59147e-06
1.59147e-06
1.59713e-06
1.59827e-06
1.59811e-06
1.59522e-06
1.59147e-06
1.59147e-06
1.59147e-06
1.59147e-06
1.59147e-06
1.59147e-06
1.59709e-06
1.59632e-06
1.59556e-06
1.59147e-06
1.59147e-06
1.59147e-06
1.59147e-06
1.59147e-06
1.59147e-06
1.59703e-06
1.59867e-06
1.59809e-06
1.5955e-06
1.59147e-06
1.59147e-06
1.59147e-06
1.59147e-06
1.59697e-06
1.59665e-06
1.59862e-06
1.59821e-06
1.59628e-06
1.59684e-06
1.59713e-06
1.59709e-06
1.59703e-06
1.59665e-06
1.59856e-06
1.5987e-06
1.59827e-06
1.59632e-06
1.59867e-06
1.59863e-06
1.57812e-06
1.57797e-06
1.57775e-06
1.57533e-06
1.57532e-06
1.57508e-06
1.57542e-06
1.57795e-06
1.57807e-06
1.57776e-06
1.57416e-06
1.57133e-06
1.57133e-06
1.57133e-06
1.57133e-06
1.57536e-06
1.57615e-06
1.57532e-06
1.57133e-06
1.57133e-06
1.57133e-06
1.57133e-06
1.57133e-06
1.57133e-06
1.5767e-06
1.57856e-06
1.57813e-06
1.57532e-06
1.57133e-06
1.57133e-06
1.57133e-06
1.57133e-06
1.57133e-06
1.57133e-06
1.57699e-06
1.57813e-06
1.57797e-06
1.57508e-06
1.57133e-06
1.57133e-06
1.57133e-06
1.57133e-06
1.57133e-06
1.57133e-06
1.57695e-06
1.57618e-06
1.57542e-06
1.57133e-06
1.57133e-06
1.57133e-06
1.57133e-06
1.57133e-06
1.57133e-06
1.57689e-06
1.57853e-06
1.57795e-06
1.57535e-06
1.57133e-06
1.57133e-06
1.57133e-06
1.57133e-06
1.57683e-06
1.57651e-06
1.57848e-06
1.57807e-06
1.57614e-06
1.5767e-06
1.57699e-06
1.57695e-06
1.57689e-06
1.57651e-06
1.57842e-06
1.57856e-06
1.57813e-06
1.57618e-06
1.57853e-06
1.57849e-06
1.55798e-06
1.55783e-06
1.55761e-06
1.55519e-06
1.55518e-06
1.55494e-06
1.55528e-06
1.55781e-06
1.55793e-06
1.55762e-06
1.55402e-06
1.55119e-06
1.55119e-06
1.55119e-06
1.55119e-06
1.55522e-06
1.55601e-06
1.55518e-06
1.55119e-06
1.55119e-06
1.55119e-06
1.55119e-06
1.55119e-06
1.55119e-06
1.55656e-06
1.55842e-06
1.55799e-06
1.55518e-06
1.55119e-06
1.55119e-06
1.55119e-06
1.55119e-06
1.55119e-06
1.55119e-06
1.55685e-06
1.55799e-06
1.55783e-06
1.55494e-06
1.55119e-06
1.55119e-06
1.55119e-06
1.55119e-06
1.55119e-06
1.55119e-06
1.55681e-06
1.55604e-06
1.55528e-06
1.55119e-06
1.55119e-06
1.55119e-06
1.55119e-06
1.55119e-06
1.55119e-06
1.55675e-06
1.55839e-06
1.55781e-06
1.55522e-06
1.55119e-06
1.55119e-06
1.55119e-06
1.55119e-06
1.55669e-06
1.55637e-06
1.55834e-06
1.55793e-06
1.556e-06
1.55656e-06
1.55685e-06
1.55681e-06
1.55675e-06
1.55637e-06
1.55828e-06
1.55842e-06
1.55799e-06
1.55604e-06
1.55839e-06
1.55835e-06
1.53784e-06
1.53769e-06
1.53747e-06
1.53505e-06
1.53504e-06
1.53481e-06
1.53514e-06
1.53767e-06
1.53779e-06
1.53748e-06
1.53388e-06
1.53105e-06
1.53105e-06
1.53105e-06
1.53105e-06
1.53508e-06
1.53586e-06
1.53504e-06
1.53105e-06
1.53105e-06
1.53105e-06
1.53105e-06
1.53105e-06
1.53105e-06
1.53642e-06
1.53828e-06
1.53785e-06
1.53504e-06
1.53105e-06
1.53105e-06
1.53105e-06
1.53105e-06
1.53105e-06
1.53105e-06
1.53671e-06
1.53785e-06
1.53769e-06
1.5348e-06
1.53105e-06
1.53105e-06
1.53105e-06
1.53105e-06
1.53105e-06
1.53105e-06
1.53667e-06
1.5359e-06
1.53514e-06
1.53105e-06
1.53105e-06
1.53105e-06
1.53105e-06
1.53105e-06
1.53105e-06
1.53661e-06
1.53825e-06
1.53767e-06
1.53508e-06
1.53105e-06
1.53105e-06
1.53105e-06
1.53105e-06
1.53655e-06
1.53623e-06
1.5382e-06
1.53779e-06
1.53586e-06
1.53642e-06
1.53671e-06
1.53667e-06
1.53661e-06
1.53623e-06
1.53814e-06
1.53828e-06
1.53785e-06
1.5359e-06
1.53825e-06
1.53821e-06
1.5177e-06
1.51755e-06
1.51733e-06
1.51491e-06
1.5149e-06
1.51467e-06
1.515e-06
1.51754e-06
1.51765e-06
1.51734e-06
1.51374e-06
1.51091e-06
1.51091e-06
1.51091e-06
1.51091e-06
1.51494e-06
1.51572e-06
1.5149e-06
1.51091e-06
1.51091e-06
1.51091e-06
1.51091e-06
1.51091e-06
1.51091e-06
1.51628e-06
1.51814e-06
1.51771e-06
1.5149e-06
1.51091e-06
1.51091e-06
1.51091e-06
1.51091e-06
1.51091e-06
1.51091e-06
1.51657e-06
1.51771e-06
1.51755e-06
1.51466e-06
1.51091e-06
1.51091e-06
1.51091e-06
1.51091e-06
1.51091e-06
1.51091e-06
1.51653e-06
1.51576e-06
1.515e-06
1.51091e-06
1.51091e-06
1.51091e-06
1.51091e-06
1.51091e-06
1.51091e-06
1.51647e-06
1.51811e-06
1.51753e-06
1.51494e-06
1.51091e-06
1.51091e-06
1.51091e-06
1.51091e-06
1.51641e-06
1.51609e-06
1.51806e-06
1.51765e-06
1.51572e-06
1.51628e-06
1.51657e-06
1.51653e-06
1.51647e-06
1.51609e-06
1.518e-06
1.51814e-06
1.51771e-06
1.51576e-06
1.51811e-06
1.51807e-06
1.49756e-06
1.49741e-06
1.49719e-06
1.49477e-06
1.49476e-06
1.49452e-06
1.49486e-06
1.4974e-06
1.49751e-06
1.4972e-06
1.4936e-06
1.49077e-06
1.49077e-06
1.49077e-06
1.49077e-06
1.4948e-06
1.49558e-06
1.49476e-06
1.49077e-06
1.49077e-06
1.49077e-06
1.49077e-06
1.49077e-06
1.49077e-06
1.49614e-06
1.498e-06
1.49757e-06
1.49476e-06
1.49077e-06
1.49077e-06
1.49077e-06
1.49077e-06
1.49077e-06
1.49077e-06
1.49643e-06
1.49757e-06
1.49741e-06
1.49452e-06
1.49077e-06
1.49077e-06
1.49077e-06
1.49077e-06
1.49077e-06
1.49077e-06
1.49639e-06
1.49562e-06
1.49486e-06
1.49077e-06
1.49077e-06
1.49077e-06
1.49077e-06
1.49077e-06
1.49077e-06
1.49633e-06
1.49797e-06
1.49739e-06
1.4948e-06
1.49077e-06
1.49077e-06
1.49077e-06
1.49077e-06
1.49627e-06
1.49595e-06
1.49792e-06
1.49751e-06
1.49558e-06
1.49614e-06
1.49643e-06
1.49639e-06
1.49633e-06
1.49595e-06
1.49786e-06
1.498e-06
1.49757e-06
1.49562e-06
1.49797e-06
1.49793e-06
1.47742e-06
1.47727e-06
1.47705e-06
1.47462e-06
1.47462e-06
1.47438e-06
1.47472e-06
1.47726e-06
1.47737e-06
1.47706e-06
1.47346e-06
1.47063e-06
1.47063e-06
1.47063e-06
1.47063e-06
1.47466e-06
1.47544e-06
1.47462e-06
1.47063e-06
1.47063e-06
1.47063e-06
1.47063e-06
1.47063e-06
1.47063e-06
1.476e-06
1.47786e-06
1.47743e-06
1.47462e-06
1.47063e-06
1.47063e-06
1.47063e-06
1.47063e-06
1.47063e-06
1.47063e-06
1.47629e-06
1.47743e-06
1.47727e-06
1.47438e-06
1.47063e-06
1.47063e-06
1.47063e-06
1.47063e-06
1.47063e-06
1.47063e-06
1.47625e-06
1.47548e-06
1.47471e-06
1.47063e-06
1.47063e-06
1.47063e-06
1.47063e-06
1.47063e-06
1.47063e-06
1.47619e-06
1.47783e-06
1.47725e-06
1.47465e-06
1.47063e-06
1.47063e-06
1.47063e-06
1.47063e-06
1.47613e-06
1.47581e-06
1.47778e-06
1.47737e-06
1.47544e-06
1.476e-06
1.47629e-06
1.47625e-06
1.47619e-06
1.47581e-06
1.47772e-06
1.47786e-06
1.47743e-06
1.47548e-06
1.47783e-06
1.47778e-06
1.45728e-06
1.45713e-06
1.45691e-06
1.45448e-06
1.45448e-06
1.45424e-06
1.45458e-06
1.45712e-06
1.45723e-06
1.45692e-06
1.45332e-06
1.45049e-06
1.45049e-06
1.45049e-06
1.45049e-06
1.45452e-06
1.4553e-06
1.45448e-06
1.45049e-06
1.45049e-06
1.45049e-06
1.45049e-06
1.45049e-06
1.45049e-06
1.45586e-06
1.45772e-06
1.45729e-06
1.45448e-06
1.45049e-06
1.45049e-06
1.45049e-06
1.45049e-06
1.45049e-06
1.45049e-06
1.45615e-06
1.45729e-06
1.45713e-06
1.45424e-06
1.45049e-06
1.45049e-06
1.45049e-06
1.45049e-06
1.45049e-06
1.45049e-06
1.45611e-06
1.45534e-06
1.45457e-06
1.45049e-06
1.45049e-06
1.45049e-06
1.45049e-06
1.45049e-06
1.45049e-06
1.45605e-06
1.45769e-06
1.45711e-06
1.45451e-06
1.45049e-06
1.45049e-06
1.45049e-06
1.45049e-06
1.45599e-06
1.45567e-06
1.45764e-06
1.45723e-06
1.4553e-06
1.45586e-06
1.45615e-06
1.45611e-06
1.45605e-06
1.45567e-06
1.45758e-06
1.45772e-06
1.45729e-06
1.45534e-06
1.45769e-06
1.45764e-06
1.43714e-06
1.43699e-06
1.43677e-06
1.43435e-06
1.43434e-06
1.4341e-06
1.43444e-06
1.43698e-06
1.43709e-06
1.43678e-06
1.43318e-06
1.43035e-06
1.43035e-06
1.43035e-06
1.43035e-06
1.43438e-06
1.43516e-06
1.43434e-06
1.43035e-06
1.43035e-06
1.43035e-06
1.43035e-06
1.43035e-06
1.43035e-06
1.43572e-06
1.43758e-06
1.43714e-06
1.43434e-06
1.43035e-06
1.43035e-06
1.43035e-06
1.43035e-06
1.43035e-06
1.43035e-06
1.43601e-06
1.43715e-06
1.43699e-06
1.4341e-06
1.43035e-06
1.43035e-06
1.43035e-06
1.43035e-06
1.43035e-06
1.43035e-06
1.43597e-06
1.4352e-06
1.43443e-06
1.43035e-06
1.43035e-06
1.43035e-06
1.43035e-06
1.43035e-06
1.43035e-06
1.43591e-06
1.43755e-06
1.43697e-06
1.43437e-06
1.43035e-06
1.43035e-06
1.43035e-06
1.43035e-06
1.43585e-06
1.43553e-06
1.4375e-06
1.43709e-06
1.43516e-06
1.43572e-06
1.43601e-06
1.43597e-06
1.43591e-06
1.43553e-06
1.43744e-06
1.43758e-06
1.43715e-06
1.4352e-06
1.43755e-06
1.4375e-06
1.417e-06
1.41685e-06
1.41663e-06
1.4142e-06
1.4142e-06
1.41396e-06
1.4143e-06
1.41684e-06
1.41695e-06
1.41664e-06
1.41304e-06
1.41021e-06
1.41021e-06
1.41021e-06
1.41021e-06
1.41424e-06
1.41502e-06
1.4142e-06
1.41021e-06
1.41021e-06
1.41021e-06
1.41021e-06
1.41021e-06
1.41021e-06
1.41558e-06
1.41744e-06
1.417e-06
1.4142e-06
1.41021e-06
1.41021e-06
1.41021e-06
1.41021e-06
1.41021e-06
1.41021e-06
1.41587e-06
1.41701e-06
1.41685e-06
1.41396e-06
1.41021e-06
1.41021e-06
1.41021e-06
1.41021e-06
1.41021e-06
1.41021e-06
1.41583e-06
1.41506e-06
1.41429e-06
1.41021e-06
1.41021e-06
1.41021e-06
1.41021e-06
1.41021e-06
1.41021e-06
1.41577e-06
1.41741e-06
1.41683e-06
1.41423e-06
1.41021e-06
1.41021e-06
1.41021e-06
1.41021e-06
1.41571e-06
1.41539e-06
1.41736e-06
1.41695e-06
1.41502e-06
1.41558e-06
1.41587e-06
1.41583e-06
1.41577e-06
1.41539e-06
1.41729e-06
1.41744e-06
1.41701e-06
1.41506e-06
1.41741e-06
1.41736e-06
1.39686e-06
1.39671e-06
1.39649e-06
1.39406e-06
1.39406e-06
1.39382e-06
1.39416e-06
1.39669e-06
1.39681e-06
1.3965e-06
1.3929e-06
1.39006e-06
1.39006e-06
1.39006e-06
1.39006e-06
1.3941e-06
1.39488e-06
1.39406e-06
1.39006e-06
1.39006e-06
1.39006e-06
1.39006e-06
1.39006e-06
1.39006e-06
1.39544e-06
1.3973e-06
1.39686e-06
1.39406e-06
1.39006e-06
1.39006e-06
1.39006e-06
1.39006e-06
1.39006e-06
1.39006e-06
1.39573e-06
1.39687e-06
1.39671e-06
1.39382e-06
1.39006e-06
1.39006e-06
1.39006e-06
1.39006e-06
1.39006e-06
1.39006e-06
1.39569e-06
1.39491e-06
1.39415e-06
1.39006e-06
1.39006e-06
1.39006e-06
1.39006e-06
1.39006e-06
1.39006e-06
1.39563e-06
1.39727e-06
1.39669e-06
1.39409e-06
1.39006e-06
1.39006e-06
1.39006e-06
1.39006e-06
1.39557e-06
1.39525e-06
1.39722e-06
1.39681e-06
1.39488e-06
1.39544e-06
1.39573e-06
1.39569e-06
1.39563e-06
1.39525e-06
1.39715e-06
1.3973e-06
1.39687e-06
1.39492e-06
1.39727e-06
1.39722e-06
1.37671e-06
1.37657e-06
1.37635e-06
1.37392e-06
1.37392e-06
1.37368e-06
1.37401e-06
1.37655e-06
1.37667e-06
1.37636e-06
1.37275e-06
1.36992e-06
1.36992e-06
1.36992e-06
1.36992e-06
1.37395e-06
1.37474e-06
1.37392e-06
1.36992e-06
1.36992e-06
1.36992e-06
1.36992e-06
1.36992e-06
1.36992e-06
1.3753e-06
1.37716e-06
1.37672e-06
1.37392e-06
1.36992e-06
1.36992e-06
1.36992e-06
1.36992e-06
1.36992e-06
1.36992e-06
1.37559e-06
1.37672e-06
1.37657e-06
1.37368e-06
1.36992e-06
1.36992e-06
1.36992e-06
1.36992e-06
1.36992e-06
1.36992e-06
1.37555e-06
1.37477e-06
1.37401e-06
1.36992e-06
1.36992e-06
1.36992e-06
1.36992e-06
1.36992e-06
1.36992e-06
1.37548e-06
1.37712e-06
1.37655e-06
1.37395e-06
1.36992e-06
1.36992e-06
1.36992e-06
1.36992e-06
1.37543e-06
1.37511e-06
1.37708e-06
1.37667e-06
1.37474e-06
1.37529e-06
1.37559e-06
1.37555e-06
1.37549e-06
1.37511e-06
1.37701e-06
1.37716e-06
1.37673e-06
1.37478e-06
1.37713e-06
1.37708e-06
1.35657e-06
1.35643e-06
1.35621e-06
1.35378e-06
1.35378e-06
1.35354e-06
1.35387e-06
1.35641e-06
1.35653e-06
1.35621e-06
1.35261e-06
1.34978e-06
1.34978e-06
1.34978e-06
1.34978e-06
1.35381e-06
1.3546e-06
1.35378e-06
1.34978e-06
1.34978e-06
1.34978e-06
1.34978e-06
1.34978e-06
1.34978e-06
1.35515e-06
1.35702e-06
1.35658e-06
1.35378e-06
1.34978e-06
1.34978e-06
1.34978e-06
1.34978e-06
1.34978e-06
1.34978e-06
1.35544e-06
1.35658e-06
1.35643e-06
1.35354e-06
1.34978e-06
1.34978e-06
1.34978e-06
1.34978e-06
1.34978e-06
1.34978e-06
1.35541e-06
1.35463e-06
1.35387e-06
1.34978e-06
1.34978e-06
1.34978e-06
1.34978e-06
1.34978e-06
1.34978e-06
1.35534e-06
1.35698e-06
1.35641e-06
1.35381e-06
1.34978e-06
1.34978e-06
1.34978e-06
1.34978e-06
1.35529e-06
1.35497e-06
1.35694e-06
1.35653e-06
1.35459e-06
1.35515e-06
1.35544e-06
1.35541e-06
1.35535e-06
1.35497e-06
1.35687e-06
1.35701e-06
1.35659e-06
1.35463e-06
1.35698e-06
1.35694e-06
1.33643e-06
1.33628e-06
1.33607e-06
1.33364e-06
1.33364e-06
1.3334e-06
1.33373e-06
1.33627e-06
1.33639e-06
1.33607e-06
1.33247e-06
1.32964e-06
1.32964e-06
1.32964e-06
1.32964e-06
1.33367e-06
1.33446e-06
1.33363e-06
1.32964e-06
1.32964e-06
1.32964e-06
1.32964e-06
1.32964e-06
1.32964e-06
1.33501e-06
1.33687e-06
1.33644e-06
1.33364e-06
1.32964e-06
1.32964e-06
1.32964e-06
1.32964e-06
1.32964e-06
1.32964e-06
1.3353e-06
1.33644e-06
1.33629e-06
1.33339e-06
1.32964e-06
1.32964e-06
1.32964e-06
1.32964e-06
1.32964e-06
1.32964e-06
1.33527e-06
1.33449e-06
1.33373e-06
1.32964e-06
1.32964e-06
1.32964e-06
1.32964e-06
1.32964e-06
1.32964e-06
1.3352e-06
1.33684e-06
1.33627e-06
1.33367e-06
1.32964e-06
1.32964e-06
1.32964e-06
1.32964e-06
1.33515e-06
1.33483e-06
1.3368e-06
1.33639e-06
1.33445e-06
1.33501e-06
1.3353e-06
1.33527e-06
1.33521e-06
1.33482e-06
1.33673e-06
1.33687e-06
1.33644e-06
1.33449e-06
1.33684e-06
1.3368e-06
1.31629e-06
1.31614e-06
1.31592e-06
1.3135e-06
1.31349e-06
1.31326e-06
1.31359e-06
1.31613e-06
1.31624e-06
1.31593e-06
1.31233e-06
1.3095e-06
1.3095e-06
1.3095e-06
1.3095e-06
1.31353e-06
1.31432e-06
1.31349e-06
1.3095e-06
1.3095e-06
1.3095e-06
1.3095e-06
1.3095e-06
1.3095e-06
1.31487e-06
1.31673e-06
1.3163e-06
1.3135e-06
1.3095e-06
1.3095e-06
1.3095e-06
1.3095e-06
1.3095e-06
1.3095e-06
1.31516e-06
1.3163e-06
1.31614e-06
1.31325e-06
1.3095e-06
1.3095e-06
1.3095e-06
1.3095e-06
1.3095e-06
1.3095e-06
1.31513e-06
1.31435e-06
1.31359e-06
1.3095e-06
1.3095e-06
1.3095e-06
1.3095e-06
1.3095e-06
1.3095e-06
1.31506e-06
1.3167e-06
1.31613e-06
1.31353e-06
1.3095e-06
1.3095e-06
1.3095e-06
1.3095e-06
1.315e-06