/*--------------------------------*- C++ -*----------------------------------*\
| =========                 |                                                 |
| \\      /  F ield         | OpenFOAM: The Open Source CFD Toolbox           |
|  \\    /   O peration     | Version:  v2012                                 |
|   \\  /    A nd           | Website:  www.openfoam.com                      |
|    \\/     M anipulation  |                                                 |
\*---------------------------------------------------------------------------*/
FoamFile
{
    version     2.0;
    format      ascii;
    class       volScalarField;
    location    "0.28";
    object      p;
}
// * * * * * * * * * * * * * * * * * * * * * * * * * * * * * * * * * * * * * //

dimensions      [0 2 -2 0 0 0 0];


internalField   nonuniform List<scalar> 
247104
(
1.86706e-06
1.86705e-06
1.86718e-06
1.86712e-06
1.867e-06
1.86714e-06
1.86716e-06
1.86698e-06
1.86704e-06
1.8671e-06
1.86716e-06
1.86699e-06
1.86689e-06
1.86702e-06
1.86717e-06
1.86707e-06
1.86718e-06
1.86716e-06
1.86685e-06
1.86648e-06
1.86633e-06
1.86652e-06
1.8669e-06
1.86718e-06
1.86718e-06
1.86712e-06
1.86699e-06
1.86648e-06
1.86599e-06
1.86581e-06
1.86603e-06
1.86655e-06
1.86704e-06
1.86711e-06
1.86705e-06
1.867e-06
1.86689e-06
1.86633e-06
1.86581e-06
1.86563e-06
1.86586e-06
1.86641e-06
1.86694e-06
1.86698e-06
1.86715e-06
1.86702e-06
1.86652e-06
1.86604e-06
1.86586e-06
1.86608e-06
1.86659e-06
1.86706e-06
1.86714e-06
1.86717e-06
1.86717e-06
1.8669e-06
1.86655e-06
1.86641e-06
1.86659e-06
1.86694e-06
1.86718e-06
1.86717e-06
1.86698e-06
1.86708e-06
1.86718e-06
1.86704e-06
1.86694e-06
1.86706e-06
1.86718e-06
1.86704e-06
1.86718e-06
1.86712e-06
1.86698e-06
1.86714e-06
1.86716e-06
1.83361e-06
1.83158e-06
1.83116e-06
1.82997e-06
1.82997e-06
1.82989e-06
1.82989e-06
1.83118e-06
1.83151e-06
1.83115e-06
1.8291e-06
1.82634e-06
1.82629e-06
1.82629e-06
1.82634e-06
1.82949e-06
1.82971e-06
1.82997e-06
1.82634e-06
1.82628e-06
1.82634e-06
1.82634e-06
1.82628e-06
1.82634e-06
1.82988e-06
1.83098e-06
1.8336e-06
1.82996e-06
1.82629e-06
1.82634e-06
1.82643e-06
1.82643e-06
1.82634e-06
1.82629e-06
1.82983e-06
1.83147e-06
1.83159e-06
1.82989e-06
1.82629e-06
1.82634e-06
1.82643e-06
1.82643e-06
1.82634e-06
1.82629e-06
1.83001e-06
1.82996e-06
1.82989e-06
1.82634e-06
1.82628e-06
1.82634e-06
1.82634e-06
1.82628e-06
1.82634e-06
1.82979e-06
1.83085e-06
1.83118e-06
1.82949e-06
1.82634e-06
1.82629e-06
1.82629e-06
1.82634e-06
1.82968e-06
1.82989e-06
1.83131e-06
1.83151e-06
1.82972e-06
1.82988e-06
1.82984e-06
1.83001e-06
1.82979e-06
1.82989e-06
1.83182e-06
1.83099e-06
1.83147e-06
1.82996e-06
1.83084e-06
1.83131e-06
1.81349e-06
1.81331e-06
1.81315e-06
1.811e-06
1.81091e-06
1.81089e-06
1.81098e-06
1.81314e-06
1.81338e-06
1.81315e-06
1.81028e-06
1.80729e-06
1.8072e-06
1.8072e-06
1.80728e-06
1.81085e-06
1.81145e-06
1.811e-06
1.80729e-06
1.80697e-06
1.80699e-06
1.80699e-06
1.80697e-06
1.80729e-06
1.81167e-06
1.81365e-06
1.8135e-06
1.81092e-06
1.80719e-06
1.80699e-06
1.80702e-06
1.80702e-06
1.80699e-06
1.8072e-06
1.81172e-06
1.81338e-06
1.81331e-06
1.81089e-06
1.80719e-06
1.80699e-06
1.80702e-06
1.80702e-06
1.80699e-06
1.8072e-06
1.81166e-06
1.81155e-06
1.81098e-06
1.80728e-06
1.80696e-06
1.80699e-06
1.80699e-06
1.80697e-06
1.80729e-06
1.81173e-06
1.81372e-06
1.81314e-06
1.81085e-06
1.80728e-06
1.80719e-06
1.8072e-06
1.80728e-06
1.81133e-06
1.8116e-06
1.81363e-06
1.81338e-06
1.81145e-06
1.81167e-06
1.81172e-06
1.81166e-06
1.81173e-06
1.8116e-06
1.81354e-06
1.81365e-06
1.81338e-06
1.81155e-06
1.81372e-06
1.81362e-06
1.79436e-06
1.79419e-06
1.79406e-06
1.79184e-06
1.79176e-06
1.79167e-06
1.79186e-06
1.79403e-06
1.79429e-06
1.79406e-06
1.79106e-06
1.78811e-06
1.78807e-06
1.78807e-06
1.78811e-06
1.79165e-06
1.7924e-06
1.79185e-06
1.78812e-06
1.78797e-06
1.78797e-06
1.78797e-06
1.78797e-06
1.78812e-06
1.79257e-06
1.79453e-06
1.79437e-06
1.79177e-06
1.78807e-06
1.78797e-06
1.78798e-06
1.78798e-06
1.78797e-06
1.78807e-06
1.79264e-06
1.79424e-06
1.79419e-06
1.79167e-06
1.78807e-06
1.78797e-06
1.78798e-06
1.78798e-06
1.78797e-06
1.78807e-06
1.79261e-06
1.79249e-06
1.79187e-06
1.78812e-06
1.78797e-06
1.78797e-06
1.78797e-06
1.78797e-06
1.78812e-06
1.79263e-06
1.79458e-06
1.79404e-06
1.79165e-06
1.78812e-06
1.78807e-06
1.78807e-06
1.78812e-06
1.79238e-06
1.79254e-06
1.79454e-06
1.79429e-06
1.79241e-06
1.79257e-06
1.79264e-06
1.79261e-06
1.79263e-06
1.79254e-06
1.79454e-06
1.79453e-06
1.79425e-06
1.79249e-06
1.79458e-06
1.79454e-06
1.77519e-06
1.77502e-06
1.77485e-06
1.77263e-06
1.77254e-06
1.77242e-06
1.77264e-06
1.77483e-06
1.77508e-06
1.77485e-06
1.77184e-06
1.76889e-06
1.76887e-06
1.76887e-06
1.76889e-06
1.77239e-06
1.77321e-06
1.77263e-06
1.76889e-06
1.76884e-06
1.76884e-06
1.76884e-06
1.76884e-06
1.76889e-06
1.77339e-06
1.77534e-06
1.77519e-06
1.77254e-06
1.76887e-06
1.76884e-06
1.76885e-06
1.76885e-06
1.76884e-06
1.76887e-06
1.7735e-06
1.77509e-06
1.77502e-06
1.77242e-06
1.76887e-06
1.76884e-06
1.76885e-06
1.76885e-06
1.76884e-06
1.76887e-06
1.77348e-06
1.77334e-06
1.77264e-06
1.76889e-06
1.76885e-06
1.76884e-06
1.76884e-06
1.76885e-06
1.76889e-06
1.77346e-06
1.77542e-06
1.77483e-06
1.77239e-06
1.76889e-06
1.76887e-06
1.76887e-06
1.76889e-06
1.77326e-06
1.77337e-06
1.77535e-06
1.77508e-06
1.77321e-06
1.77339e-06
1.7735e-06
1.77348e-06
1.77346e-06
1.77337e-06
1.77532e-06
1.77534e-06
1.7751e-06
1.77334e-06
1.77543e-06
1.77535e-06
1.75599e-06
1.75582e-06
1.75564e-06
1.75342e-06
1.75333e-06
1.75321e-06
1.75343e-06
1.75563e-06
1.75587e-06
1.75564e-06
1.75263e-06
1.74967e-06
1.74967e-06
1.74967e-06
1.74967e-06
1.75316e-06
1.754e-06
1.75342e-06
1.74968e-06
1.74966e-06
1.74966e-06
1.74966e-06
1.74966e-06
1.74967e-06
1.75418e-06
1.75614e-06
1.75599e-06
1.75333e-06
1.74967e-06
1.74966e-06
1.74966e-06
1.74966e-06
1.74966e-06
1.74967e-06
1.75431e-06
1.75591e-06
1.75582e-06
1.75321e-06
1.74967e-06
1.74966e-06
1.74966e-06
1.74966e-06
1.74966e-06
1.74967e-06
1.7543e-06
1.75415e-06
1.75343e-06
1.74967e-06
1.74966e-06
1.74966e-06
1.74966e-06
1.74966e-06
1.74967e-06
1.75426e-06
1.75624e-06
1.75563e-06
1.75316e-06
1.74967e-06
1.74967e-06
1.74967e-06
1.74967e-06
1.75408e-06
1.75418e-06
1.75614e-06
1.75587e-06
1.754e-06
1.75418e-06
1.75431e-06
1.7543e-06
1.75426e-06
1.75418e-06
1.7561e-06
1.75614e-06
1.75591e-06
1.75415e-06
1.75624e-06
1.75614e-06
1.73679e-06
1.73662e-06
1.73644e-06
1.73422e-06
1.73412e-06
1.73401e-06
1.73422e-06
1.73642e-06
1.73666e-06
1.73644e-06
1.73343e-06
1.73047e-06
1.73047e-06
1.73047e-06
1.73047e-06
1.73395e-06
1.73479e-06
1.73422e-06
1.73047e-06
1.73047e-06
1.73047e-06
1.73047e-06
1.73047e-06
1.73047e-06
1.73498e-06
1.73693e-06
1.73679e-06
1.73412e-06
1.73047e-06
1.73047e-06
1.73047e-06
1.73047e-06
1.73047e-06
1.73047e-06
1.73511e-06
1.73671e-06
1.73662e-06
1.73401e-06
1.73047e-06
1.73047e-06
1.73047e-06
1.73047e-06
1.73047e-06
1.73047e-06
1.7351e-06
1.73495e-06
1.73422e-06
1.73047e-06
1.73047e-06
1.73047e-06
1.73047e-06
1.73047e-06
1.73047e-06
1.73506e-06
1.73704e-06
1.73642e-06
1.73395e-06
1.73047e-06
1.73047e-06
1.73047e-06
1.73047e-06
1.73489e-06
1.73498e-06
1.73694e-06
1.73667e-06
1.7348e-06
1.73498e-06
1.73511e-06
1.7351e-06
1.73506e-06
1.73499e-06
1.7369e-06
1.73694e-06
1.73671e-06
1.73495e-06
1.73704e-06
1.73694e-06
1.71759e-06
1.71742e-06
1.71723e-06
1.71501e-06
1.71492e-06
1.7148e-06
1.71502e-06
1.71722e-06
1.71746e-06
1.71723e-06
1.71423e-06
1.71127e-06
1.71127e-06
1.71127e-06
1.71127e-06
1.71475e-06
1.71559e-06
1.71501e-06
1.71127e-06
1.71127e-06
1.71127e-06
1.71127e-06
1.71127e-06
1.71127e-06
1.71577e-06
1.71773e-06
1.71759e-06
1.71492e-06
1.71127e-06
1.71127e-06
1.71127e-06
1.71127e-06
1.71127e-06
1.71127e-06
1.71591e-06
1.71751e-06
1.71742e-06
1.7148e-06
1.71127e-06
1.71127e-06
1.71127e-06
1.71127e-06
1.71127e-06
1.71127e-06
1.7159e-06
1.71575e-06
1.71502e-06
1.71127e-06
1.71127e-06
1.71127e-06
1.71127e-06
1.71127e-06
1.71127e-06
1.71586e-06
1.71784e-06
1.71722e-06
1.71475e-06
1.71127e-06
1.71127e-06
1.71127e-06
1.71127e-06
1.71569e-06
1.71578e-06
1.71773e-06
1.71746e-06
1.71559e-06
1.71577e-06
1.71591e-06
1.7159e-06
1.71586e-06
1.71578e-06
1.7177e-06
1.71773e-06
1.71751e-06
1.71575e-06
1.71783e-06
1.71773e-06
1.69839e-06
1.69822e-06
1.69803e-06
1.69581e-06
1.69572e-06
1.6956e-06
1.69581e-06
1.69802e-06
1.69826e-06
1.69803e-06
1.69503e-06
1.69206e-06
1.69206e-06
1.69206e-06
1.69206e-06
1.69554e-06
1.69639e-06
1.69581e-06
1.69206e-06
1.69206e-06
1.69206e-06
1.69206e-06
1.69206e-06
1.69206e-06
1.69657e-06
1.69853e-06
1.69839e-06
1.69572e-06
1.69206e-06
1.69206e-06
1.69206e-06
1.69206e-06
1.69206e-06
1.69206e-06
1.6967e-06
1.69831e-06
1.69822e-06
1.6956e-06
1.69206e-06
1.69206e-06
1.69206e-06
1.69206e-06
1.69206e-06
1.69206e-06
1.69669e-06
1.69655e-06
1.69581e-06
1.69206e-06
1.69206e-06
1.69206e-06
1.69206e-06
1.69206e-06
1.69206e-06
1.69665e-06
1.69863e-06
1.69802e-06
1.69554e-06
1.69206e-06
1.69206e-06
1.69206e-06
1.69206e-06
1.69649e-06
1.69658e-06
1.69853e-06
1.69826e-06
1.69639e-06
1.69657e-06
1.6967e-06
1.69669e-06
1.69665e-06
1.69658e-06
1.6985e-06
1.69853e-06
1.69831e-06
1.69655e-06
1.69863e-06
1.69853e-06
1.67918e-06
1.67901e-06
1.67883e-06
1.67661e-06
1.67652e-06
1.6764e-06
1.67661e-06
1.67881e-06
1.67906e-06
1.67883e-06
1.67582e-06
1.67286e-06
1.67286e-06
1.67286e-06
1.67286e-06
1.67634e-06
1.67719e-06
1.67661e-06
1.67286e-06
1.67286e-06
1.67286e-06
1.67286e-06
1.67286e-06
1.67286e-06
1.67737e-06
1.67933e-06
1.67919e-06
1.67651e-06
1.67286e-06
1.67286e-06
1.67286e-06
1.67286e-06
1.67286e-06
1.67286e-06
1.6775e-06
1.67911e-06
1.67901e-06
1.6764e-06
1.67286e-06
1.67286e-06
1.67286e-06
1.67286e-06
1.67286e-06
1.67286e-06
1.67749e-06
1.67735e-06
1.67661e-06
1.67286e-06
1.67286e-06
1.67286e-06
1.67286e-06
1.67286e-06
1.67286e-06
1.67745e-06
1.67943e-06
1.67881e-06
1.67634e-06
1.67286e-06
1.67286e-06
1.67286e-06
1.67286e-06
1.67728e-06
1.67738e-06
1.67933e-06
1.67906e-06
1.67719e-06
1.67737e-06
1.6775e-06
1.67749e-06
1.67745e-06
1.67738e-06
1.67929e-06
1.67933e-06
1.67911e-06
1.67735e-06
1.67943e-06
1.67933e-06
1.65998e-06
1.65981e-06
1.65963e-06
1.65741e-06
1.65731e-06
1.6572e-06
1.65741e-06
1.65961e-06
1.65985e-06
1.65962e-06
1.65662e-06
1.65366e-06
1.65366e-06
1.65366e-06
1.65366e-06
1.65714e-06
1.65798e-06
1.65741e-06
1.65366e-06
1.65366e-06
1.65366e-06
1.65366e-06
1.65366e-06
1.65366e-06
1.65817e-06
1.66012e-06
1.65998e-06
1.65731e-06
1.65366e-06
1.65366e-06
1.65366e-06
1.65366e-06
1.65366e-06
1.65366e-06
1.6583e-06
1.6599e-06
1.65981e-06
1.65719e-06
1.65366e-06
1.65366e-06
1.65366e-06
1.65366e-06
1.65366e-06
1.65366e-06
1.65829e-06
1.65814e-06
1.65741e-06
1.65366e-06
1.65366e-06
1.65366e-06
1.65366e-06
1.65366e-06
1.65366e-06
1.65825e-06
1.66023e-06
1.65961e-06
1.65714e-06
1.65366e-06
1.65366e-06
1.65366e-06
1.65366e-06
1.65808e-06
1.65817e-06
1.66013e-06
1.65986e-06
1.65799e-06
1.65817e-06
1.6583e-06
1.65829e-06
1.65825e-06
1.65818e-06
1.66009e-06
1.66013e-06
1.6599e-06
1.65814e-06
1.66023e-06
1.66013e-06
1.64078e-06
1.64061e-06
1.64042e-06
1.6382e-06
1.63811e-06
1.63799e-06
1.63821e-06
1.64041e-06
1.64065e-06
1.64042e-06
1.63742e-06
1.63445e-06
1.63445e-06
1.63445e-06
1.63446e-06
1.63793e-06
1.63878e-06
1.6382e-06
1.63445e-06
1.63445e-06
1.63445e-06
1.63445e-06
1.63445e-06
1.63445e-06
1.63896e-06
1.64092e-06
1.64078e-06
1.63811e-06
1.63445e-06
1.63445e-06
1.63445e-06
1.63445e-06
1.63445e-06
1.63445e-06
1.6391e-06
1.6407e-06
1.64061e-06
1.63799e-06
1.63445e-06
1.63445e-06
1.63445e-06
1.63445e-06
1.63445e-06
1.63445e-06
1.63909e-06
1.63894e-06
1.63821e-06
1.63445e-06
1.63445e-06
1.63445e-06
1.63445e-06
1.63445e-06
1.63445e-06
1.63905e-06
1.64103e-06
1.64041e-06
1.63793e-06
1.63445e-06
1.63445e-06
1.63445e-06
1.63445e-06
1.63888e-06
1.63897e-06
1.64092e-06
1.64065e-06
1.63878e-06
1.63896e-06
1.63909e-06
1.63909e-06
1.63904e-06
1.63897e-06
1.64089e-06
1.64092e-06
1.6407e-06
1.63894e-06
1.64102e-06
1.64092e-06
1.62157e-06
1.6214e-06
1.62121e-06
1.619e-06
1.6189e-06
1.61879e-06
1.619e-06
1.6212e-06
1.62145e-06
1.62122e-06
1.61821e-06
1.61525e-06
1.61525e-06
1.61525e-06
1.61525e-06
1.61873e-06
1.61958e-06
1.619e-06
1.61525e-06
1.61525e-06
1.61525e-06
1.61525e-06
1.61525e-06
1.61525e-06
1.61976e-06
1.62172e-06
1.62158e-06
1.6189e-06
1.61525e-06
1.61525e-06
1.61525e-06
1.61525e-06
1.61525e-06
1.61525e-06
1.61989e-06
1.62149e-06
1.6214e-06
1.61879e-06
1.61525e-06
1.61525e-06
1.61525e-06
1.61525e-06
1.61525e-06
1.61525e-06
1.61988e-06
1.61974e-06
1.619e-06
1.61525e-06
1.61525e-06
1.61525e-06
1.61525e-06
1.61525e-06
1.61525e-06
1.61984e-06
1.62182e-06
1.6212e-06
1.61873e-06
1.61525e-06
1.61525e-06
1.61525e-06
1.61525e-06
1.61967e-06
1.61977e-06
1.62172e-06
1.62145e-06
1.61958e-06
1.61976e-06
1.61989e-06
1.61988e-06
1.61984e-06
1.61977e-06
1.62168e-06
1.62172e-06
1.6215e-06
1.61974e-06
1.62182e-06
1.62172e-06
1.60237e-06
1.6022e-06
1.60201e-06
1.59979e-06
1.5997e-06
1.59958e-06
1.5998e-06
1.602e-06
1.60224e-06
1.60201e-06
1.59901e-06
1.59605e-06
1.59605e-06
1.59605e-06
1.59605e-06
1.59953e-06
1.60037e-06
1.59979e-06
1.59605e-06
1.59605e-06
1.59605e-06
1.59605e-06
1.59605e-06
1.59605e-06
1.60055e-06
1.60251e-06
1.60237e-06
1.5997e-06
1.59605e-06
1.59605e-06
1.59605e-06
1.59605e-06
1.59605e-06
1.59605e-06
1.60069e-06
1.60229e-06
1.6022e-06
1.59958e-06
1.59605e-06
1.59605e-06
1.59605e-06
1.59605e-06
1.59605e-06
1.59605e-06
1.60068e-06
1.60053e-06
1.5998e-06
1.59605e-06
1.59605e-06
1.59605e-06
1.59605e-06
1.59605e-06
1.59605e-06
1.60064e-06
1.60262e-06
1.602e-06
1.59953e-06
1.59605e-06
1.59605e-06
1.59605e-06
1.59605e-06
1.60047e-06
1.60056e-06
1.60251e-06
1.60224e-06
1.60037e-06
1.60055e-06
1.60069e-06
1.60068e-06
1.60064e-06
1.60057e-06
1.60248e-06
1.60251e-06
1.60229e-06
1.60053e-06
1.60262e-06
1.60251e-06
1.58316e-06
1.58299e-06
1.58281e-06
1.58059e-06
1.5805e-06
1.58038e-06
1.58059e-06
1.58279e-06
1.58304e-06
1.58281e-06
1.57981e-06
1.57684e-06
1.57684e-06
1.57684e-06
1.57684e-06
1.58032e-06
1.58117e-06
1.58059e-06
1.57684e-06
1.57684e-06
1.57684e-06
1.57684e-06
1.57684e-06
1.57684e-06
1.58135e-06
1.58331e-06
1.58317e-06
1.58049e-06
1.57684e-06
1.57684e-06
1.57684e-06
1.57684e-06
1.57684e-06
1.57684e-06
1.58148e-06
1.58309e-06
1.58299e-06
1.58038e-06
1.57684e-06
1.57684e-06
1.57684e-06
1.57684e-06
1.57684e-06
1.57684e-06
1.58147e-06
1.58133e-06
1.58059e-06
1.57684e-06
1.57684e-06
1.57684e-06
1.57684e-06
1.57684e-06
1.57684e-06
1.58143e-06
1.58341e-06
1.5828e-06
1.58032e-06
1.57684e-06
1.57684e-06
1.57684e-06
1.57684e-06
1.58126e-06
1.58136e-06
1.58331e-06
1.58304e-06
1.58117e-06
1.58135e-06
1.58148e-06
1.58147e-06
1.58143e-06
1.58136e-06
1.58327e-06
1.58331e-06
1.58309e-06
1.58133e-06
1.58341e-06
1.58331e-06
1.56396e-06
1.56379e-06
1.5636e-06
1.56139e-06
1.56129e-06
1.56117e-06
1.56139e-06
1.56359e-06
1.56383e-06
1.5636e-06
1.5606e-06
1.55764e-06
1.55764e-06
1.55764e-06
1.55764e-06
1.56112e-06
1.56196e-06
1.56139e-06
1.55764e-06
1.55764e-06
1.55764e-06
1.55764e-06
1.55764e-06
1.55764e-06
1.56215e-06
1.5641e-06
1.56396e-06
1.56129e-06
1.55764e-06
1.55764e-06
1.55764e-06
1.55764e-06
1.55764e-06
1.55764e-06
1.56228e-06
1.56388e-06
1.56379e-06
1.56117e-06
1.55764e-06
1.55764e-06
1.55764e-06
1.55764e-06
1.55764e-06
1.55764e-06
1.56227e-06
1.56212e-06
1.56139e-06
1.55764e-06
1.55764e-06
1.55764e-06
1.55764e-06
1.55764e-06
1.55764e-06
1.56223e-06
1.56421e-06
1.56359e-06
1.56112e-06
1.55764e-06
1.55764e-06
1.55764e-06
1.55764e-06
1.56206e-06
1.56215e-06
1.56411e-06
1.56384e-06
1.56197e-06
1.56214e-06
1.56228e-06
1.56227e-06
1.56223e-06
1.56216e-06
1.56407e-06
1.56411e-06
1.56388e-06
1.56212e-06
1.56421e-06
1.56411e-06
1.54476e-06
1.54459e-06
1.5444e-06
1.54218e-06
1.54209e-06
1.54197e-06
1.54219e-06
1.54439e-06
1.54463e-06
1.5444e-06
1.5414e-06
1.53843e-06
1.53843e-06
1.53843e-06
1.53843e-06
1.54191e-06
1.54276e-06
1.54218e-06
1.53843e-06
1.53843e-06
1.53843e-06
1.53843e-06
1.53843e-06
1.53843e-06
1.54294e-06
1.5449e-06
1.54476e-06
1.54209e-06
1.53843e-06
1.53843e-06
1.53843e-06
1.53843e-06
1.53843e-06
1.53843e-06
1.54307e-06
1.54468e-06
1.54459e-06
1.54197e-06
1.53843e-06
1.53843e-06
1.53843e-06
1.53843e-06
1.53843e-06
1.53843e-06
1.54307e-06
1.54292e-06
1.54218e-06
1.53843e-06
1.53843e-06
1.53843e-06
1.53843e-06
1.53843e-06
1.53843e-06
1.54302e-06
1.54501e-06
1.54439e-06
1.54191e-06
1.53843e-06
1.53843e-06
1.53843e-06
1.53843e-06
1.54286e-06
1.54295e-06
1.5449e-06
1.54463e-06
1.54276e-06
1.54294e-06
1.54307e-06
1.54306e-06
1.54303e-06
1.54295e-06
1.54487e-06
1.5449e-06
1.54468e-06
1.54292e-06
1.545e-06
1.5449e-06
1.52555e-06
1.52538e-06
1.52519e-06
1.52298e-06
1.52288e-06
1.52277e-06
1.52298e-06
1.52518e-06
1.52543e-06
1.5252e-06
1.52219e-06
1.51923e-06
1.51923e-06
1.51923e-06
1.51923e-06
1.52271e-06
1.52356e-06
1.52298e-06
1.51923e-06
1.51923e-06
1.51923e-06
1.51923e-06
1.51923e-06
1.51923e-06
1.52374e-06
1.5257e-06
1.52555e-06
1.52288e-06
1.51923e-06
1.51923e-06
1.51923e-06
1.51923e-06
1.51923e-06
1.51923e-06
1.52387e-06
1.52547e-06
1.52538e-06
1.52277e-06
1.51923e-06
1.51923e-06
1.51923e-06
1.51923e-06
1.51923e-06
1.51923e-06
1.52386e-06
1.52371e-06
1.52298e-06
1.51923e-06
1.51923e-06
1.51923e-06
1.51923e-06
1.51923e-06
1.51923e-06
1.52382e-06
1.5258e-06
1.52518e-06
1.52271e-06
1.51923e-06
1.51923e-06
1.51923e-06
1.51923e-06
1.52365e-06
1.52375e-06
1.5257e-06
1.52543e-06
1.52356e-06
1.52374e-06
1.52387e-06
1.52386e-06
1.52382e-06
1.52375e-06
1.52566e-06
1.5257e-06
1.52548e-06
1.52372e-06
1.5258e-06
1.5257e-06
1.50635e-06
1.50618e-06
1.50599e-06
1.50377e-06
1.50368e-06
1.50356e-06
1.50378e-06
1.50598e-06
1.50622e-06
1.50599e-06
1.50299e-06
1.50003e-06
1.50003e-06
1.50003e-06
1.50003e-06
1.50351e-06
1.50435e-06
1.50377e-06
1.50003e-06
1.50003e-06
1.50003e-06
1.50003e-06
1.50003e-06
1.50003e-06
1.50453e-06
1.50649e-06
1.50635e-06
1.50368e-06
1.50003e-06
1.50003e-06
1.50003e-06
1.50003e-06
1.50003e-06
1.50003e-06
1.50467e-06
1.50627e-06
1.50618e-06
1.50356e-06
1.50003e-06
1.50003e-06
1.50003e-06
1.50003e-06
1.50003e-06
1.50003e-06
1.50466e-06
1.50451e-06
1.50378e-06
1.50003e-06
1.50003e-06
1.50003e-06
1.50003e-06
1.50003e-06
1.50003e-06
1.50462e-06
1.5066e-06
1.50598e-06
1.50351e-06
1.50003e-06
1.50003e-06
1.50003e-06
1.50003e-06
1.50445e-06
1.50454e-06
1.50649e-06
1.50622e-06
1.50435e-06
1.50453e-06
1.50467e-06
1.50466e-06
1.50462e-06
1.50454e-06
1.50646e-06
1.50649e-06
1.50627e-06
1.50451e-06
1.5066e-06
1.50649e-06
1.48714e-06
1.48697e-06
1.48679e-06
1.48457e-06
1.48447e-06
1.48436e-06
1.48457e-06
1.48677e-06
1.48702e-06
1.48679e-06
1.48378e-06
1.48082e-06
1.48082e-06
1.48082e-06
1.48082e-06
1.4843e-06
1.48515e-06
1.48457e-06
1.48082e-06
1.48082e-06
1.48082e-06
1.48082e-06
1.48082e-06
1.48082e-06
1.48533e-06
1.48729e-06
1.48715e-06
1.48447e-06
1.48082e-06
1.48082e-06
1.48082e-06
1.48082e-06
1.48082e-06
1.48082e-06
1.48546e-06
1.48707e-06
1.48697e-06
1.48436e-06
1.48082e-06
1.48082e-06
1.48082e-06
1.48082e-06
1.48082e-06
1.48082e-06
1.48545e-06
1.48531e-06
1.48457e-06
1.48082e-06
1.48082e-06
1.48082e-06
1.48082e-06
1.48082e-06
1.48082e-06
1.48541e-06
1.48739e-06
1.48677e-06
1.4843e-06
1.48082e-06
1.48082e-06
1.48082e-06
1.48082e-06
1.48524e-06
1.48534e-06
1.48729e-06
1.48702e-06
1.48515e-06
1.48533e-06
1.48546e-06
1.48545e-06
1.48541e-06
1.48534e-06
1.48725e-06
1.48729e-06
1.48707e-06
1.48531e-06
1.48739e-06
1.48729e-06
1.46794e-06
1.46777e-06
1.46758e-06
1.46536e-06
1.46527e-06
1.46515e-06
1.46537e-06
1.46757e-06
1.46781e-06
1.46758e-06
1.46458e-06
1.46162e-06
1.46162e-06
1.46162e-06
1.46162e-06
1.4651e-06
1.46594e-06
1.46536e-06
1.46162e-06
1.46162e-06
1.46162e-06
1.46162e-06
1.46162e-06
1.46162e-06
1.46612e-06
1.46808e-06
1.46794e-06
1.46527e-06
1.46162e-06
1.46162e-06
1.46162e-06
1.46162e-06
1.46162e-06
1.46162e-06
1.46626e-06
1.46786e-06
1.46777e-06
1.46515e-06
1.46162e-06
1.46162e-06
1.46162e-06
1.46162e-06
1.46162e-06
1.46162e-06
1.46625e-06
1.4661e-06
1.46537e-06
1.46162e-06
1.46162e-06
1.46162e-06
1.46162e-06
1.46162e-06
1.46162e-06
1.46621e-06
1.46819e-06
1.46757e-06
1.4651e-06
1.46162e-06
1.46162e-06
1.46162e-06
1.46162e-06
1.46604e-06
1.46613e-06
1.46808e-06
1.46781e-06
1.46594e-06
1.46612e-06
1.46626e-06
1.46625e-06
1.46621e-06
1.46614e-06
1.46805e-06
1.46808e-06
1.46786e-06
1.4661e-06
1.46819e-06
1.46809e-06
1.44873e-06
1.44856e-06
1.44838e-06
1.44616e-06
1.44606e-06
1.44595e-06
1.44616e-06
1.44837e-06
1.44861e-06
1.44838e-06
1.44537e-06
1.44241e-06
1.44241e-06
1.44241e-06
1.44241e-06
1.44589e-06
1.44674e-06
1.44616e-06
1.44241e-06
1.44241e-06
1.44241e-06
1.44241e-06
1.44241e-06
1.44241e-06
1.44692e-06
1.44888e-06
1.44874e-06
1.44606e-06
1.44241e-06
1.44241e-06
1.44241e-06
1.44241e-06
1.44241e-06
1.44241e-06
1.44705e-06
1.44866e-06
1.44856e-06
1.44595e-06
1.44241e-06
1.44241e-06
1.44241e-06
1.44241e-06
1.44241e-06
1.44241e-06
1.44704e-06
1.4469e-06
1.44616e-06
1.44241e-06
1.44241e-06
1.44241e-06
1.44241e-06
1.44241e-06
1.44241e-06
1.447e-06
1.44898e-06
1.44836e-06
1.44589e-06
1.44241e-06
1.44241e-06
1.44241e-06
1.44241e-06
1.44683e-06
1.44693e-06
1.44888e-06
1.44861e-06
1.44674e-06
1.44692e-06
1.44705e-06
1.44704e-06
1.447e-06
1.44693e-06
1.44884e-06
1.44888e-06
1.44866e-06
1.4469e-06
1.44898e-06
1.44888e-06
1.42953e-06
1.42936e-06
1.42917e-06
1.42695e-06
1.42686e-06
1.42674e-06
1.42696e-06
1.42916e-06
1.4294e-06
1.42917e-06
1.42617e-06
1.42321e-06
1.42321e-06
1.42321e-06
1.42321e-06
1.42669e-06
1.42753e-06
1.42695e-06
1.42321e-06
1.42321e-06
1.42321e-06
1.42321e-06
1.42321e-06
1.42321e-06
1.42771e-06
1.42967e-06
1.42953e-06
1.42686e-06
1.42321e-06
1.42321e-06
1.42321e-06
1.42321e-06
1.42321e-06
1.42321e-06
1.42785e-06
1.42945e-06
1.42936e-06
1.42674e-06
1.42321e-06
1.42321e-06
1.42321e-06
1.42321e-06
1.42321e-06
1.42321e-06
1.42784e-06
1.42769e-06
1.42696e-06
1.42321e-06
1.42321e-06
1.42321e-06
1.42321e-06
1.42321e-06
1.42321e-06
1.4278e-06
1.42978e-06
1.42916e-06
1.42669e-06
1.42321e-06
1.42321e-06
1.42321e-06
1.42321e-06
1.42763e-06
1.42772e-06
1.42967e-06
1.4294e-06
1.42753e-06
1.42771e-06
1.42785e-06
1.42784e-06
1.4278e-06
1.42772e-06
1.42964e-06
1.42967e-06
1.42945e-06
1.42769e-06
1.42978e-06
1.42967e-06
1.41032e-06
1.41015e-06
1.40996e-06
1.40775e-06
1.40765e-06
1.40754e-06
1.40775e-06
1.40996e-06
1.4102e-06
1.40997e-06
1.40696e-06
1.404e-06
1.404e-06
1.404e-06
1.404e-06
1.40748e-06
1.40833e-06
1.40775e-06
1.404e-06
1.404e-06
1.404e-06
1.404e-06
1.404e-06
1.404e-06
1.40851e-06
1.41047e-06
1.41033e-06
1.40765e-06
1.404e-06
1.404e-06
1.404e-06
1.404e-06
1.404e-06
1.404e-06
1.40864e-06
1.41024e-06
1.41015e-06
1.40754e-06
1.404e-06
1.404e-06
1.404e-06
1.404e-06
1.404e-06
1.404e-06
1.40863e-06
1.40849e-06
1.40775e-06
1.404e-06
1.404e-06
1.404e-06
1.404e-06
1.404e-06
1.404e-06
1.40859e-06
1.41057e-06
1.40995e-06
1.40748e-06
1.404e-06
1.404e-06
1.404e-06
1.404e-06
1.40842e-06
1.40852e-06
1.41047e-06
1.4102e-06
1.40833e-06
1.40851e-06
1.40864e-06
1.40863e-06
1.40859e-06
1.40852e-06
1.41043e-06
1.41047e-06
1.41025e-06
1.40849e-06
1.41057e-06
1.41047e-06
1.39112e-06
1.39095e-06
1.39076e-06
1.38854e-06
1.38845e-06
1.38833e-06
1.38855e-06
1.39075e-06
1.39099e-06
1.39076e-06
1.38776e-06
1.3848e-06
1.3848e-06
1.3848e-06
1.3848e-06
1.38828e-06
1.38912e-06
1.38854e-06
1.3848e-06
1.3848e-06
1.3848e-06
1.3848e-06
1.3848e-06
1.3848e-06
1.3893e-06
1.39126e-06
1.39112e-06
1.38845e-06
1.3848e-06
1.3848e-06
1.3848e-06
1.3848e-06
1.3848e-06
1.3848e-06
1.38944e-06
1.39104e-06
1.39095e-06
1.38833e-06
1.3848e-06
1.3848e-06
1.3848e-06
1.3848e-06
1.3848e-06
1.3848e-06
1.38943e-06
1.38928e-06
1.38855e-06
1.3848e-06
1.3848e-06
1.3848e-06
1.3848e-06
1.3848e-06
1.3848e-06
1.38939e-06
1.39137e-06
1.39075e-06
1.38828e-06
1.3848e-06
1.3848e-06
1.3848e-06
1.3848e-06
1.38922e-06
1.38931e-06
1.39126e-06
1.39099e-06
1.38912e-06
1.3893e-06
1.38944e-06
1.38943e-06
1.38939e-06
1.38932e-06
1.39123e-06
1.39126e-06
1.39104e-06
1.38928e-06
1.39137e-06
1.39127e-06
1.37191e-06
1.37174e-06
1.37156e-06
1.36934e-06
1.36924e-06
1.36913e-06
1.36934e-06
1.37155e-06
1.37179e-06
1.37156e-06
1.36855e-06
1.36559e-06
1.36559e-06
1.36559e-06
1.36559e-06
1.36907e-06
1.36992e-06
1.36934e-06
1.36559e-06
1.36559e-06
1.36559e-06
1.36559e-06
1.36559e-06
1.36559e-06
1.3701e-06
1.37206e-06
1.37192e-06
1.36924e-06
1.36559e-06
1.36559e-06
1.36559e-06
1.36559e-06
1.36559e-06
1.36559e-06
1.37023e-06
1.37184e-06
1.37174e-06
1.36913e-06
1.36559e-06
1.36559e-06
1.36559e-06
1.36559e-06
1.36559e-06
1.36559e-06
1.37022e-06
1.37008e-06
1.36934e-06
1.36559e-06
1.36559e-06
1.36559e-06
1.36559e-06
1.36559e-06
1.36559e-06
1.37018e-06
1.37216e-06
1.37154e-06
1.36907e-06
1.36559e-06
1.36559e-06
1.36559e-06
1.36559e-06
1.37001e-06
1.37011e-06
1.37206e-06
1.37179e-06
1.36992e-06
1.3701e-06
1.37023e-06
1.37022e-06
1.37018e-06
1.37011e-06
1.37202e-06
1.37206e-06
1.37184e-06
1.37008e-06
1.37216e-06
1.37206e-06
1.35271e-06
1.35254e-06
1.35235e-06
1.35014e-06
1.35004e-06
1.34993e-06
1.35014e-06
1.35234e-06
1.35258e-06
1.35235e-06
1.34935e-06
1.34639e-06
1.34639e-06
1.34639e-06
1.34639e-06
1.34987e-06
1.35071e-06
1.35014e-06
1.34639e-06
1.34639e-06
1.34639e-06
1.34639e-06
1.34639e-06
1.34639e-06
1.3509e-06
1.35285e-06
1.35271e-06
1.35004e-06
1.34639e-06
1.34639e-06
1.34639e-06
1.34639e-06
1.34639e-06
1.34639e-06
1.35103e-06
1.35263e-06
1.35254e-06
1.34992e-06
1.34639e-06
1.34639e-06
1.34639e-06
1.34639e-06
1.34639e-06
1.34639e-06
1.35102e-06
1.35087e-06
1.35014e-06
1.34639e-06
1.34639e-06
1.34639e-06
1.34639e-06
1.34639e-06
1.34639e-06
1.35098e-06
1.35296e-06
1.35234e-06
1.34987e-06
1.34639e-06
1.34639e-06
1.34639e-06
1.34639e-06
1.35081e-06
1.3509e-06
1.35286e-06
1.35259e-06
1.35072e-06
1.3509e-06
1.35103e-06
1.35102e-06
1.35098e-06
1.35091e-06
1.35282e-06
1.35286e-06
1.35263e-06
1.35087e-06
1.35296e-06
1.35286e-06
1.33351e-06
1.33334e-06
1.33315e-06
1.33093e-06
1.33084e-06
1.33072e-06
1.33094e-06
1.33314e-06
1.33338e-06
1.33315e-06
1.33015e-06
1.32718e-06
1.32718e-06
1.32718e-06
1.32718e-06
1.33066e-06
1.33151e-06
1.33093e-06
1.32718e-06
1.32718e-06
1.32718e-06
1.32718e-06
1.32718e-06
1.32718e-06
1.33169e-06
1.33365e-06
1.33351e-06
1.33084e-06
1.32718e-06
1.32718e-06
1.32718e-06
1.32718e-06
1.32718e-06
1.32718e-06
1.33183e-06
1.33343e-06
1.33334e-06
1.33072e-06
1.32718e-06
1.32718e-06
1.32718e-06
1.32718e-06
1.32718e-06
1.32718e-06
1.33182e-06
1.33167e-06
1.33093e-06
1.32718e-06
1.32718e-06
1.32718e-06
1.32718e-06
1.32718e-06
1.32718e-06
1.33178e-06
1.33376e-06
1.33314e-06
1.33066e-06
1.32718e-06
1.32718e-06
1.32718e-06
1.32718e-06
1.33161e-06
1.3317e-06
1.33365e-06
1.33338e-06
1.33151e-06
1.33169e-06
1.33182e-06
1.33182e-06
1.33177e-06
1.3317e-06
1.33362e-06
1.33365e-06
1.33343e-06
1.33167e-06
1.33375e-06
1.33365e-06
1.3143e-06
1.31413e-06
1.31394e-06
1.31173e-06
1.31163e-06
1.31152e-06
1.31173e-06
1.31394e-06
1.31418e-06
1.31395e-06
1.31094e-06
1.30798e-06
1.30798e-06
1.30798e-06
1.30798e-06
1.31146e-06
1.31231e-06
1.31173e-06
1.30798e-06
1.30798e-06
1.30798e-06
1.30798e-06
1.30798e-06
1.30798e-06
1.31249e-06
1.31445e-06
1.31431e-06
1.31163e-06
1.30798e-06
1.30798e-06
1.30798e-06
1.30798e-06
1.30798e-06
1.30798e-06
1.31262e-06
1.31422e-06
1.31413e-06
1.31152e-06
1.30798e-06
1.30798e-06
1.30798e-06
1.30798e-06
1.30798e-06
1.30798e-06
1.31261e-06
1.31247e-06
1.31173e-06
1.30798e-06
1.30798e-06
1.30798e-06
1.30798e-06
1.30798e-06
1.30798e-06
1.31257e-06
1.31455e-06
1.31393e-06
1.31146e-06
1.30798e-06
1.30798e-06
1.30798e-06
1.30798e-06
1.3124e-06
1.3125e-06
1.31445e-06
1.31418e-06
1.31231e-06
1.31249e-06
1.31262e-06
1.31261e-06
1.31257e-06
1.3125e-06
1.31441e-06
1.31445e-06
1.31423e-06
1.31247e-06
1.31455e-06
1.31445e-06
1.2951e-06
1.29493e-06
1.29474e-06
1.29252e-06
1.29243e-06
1.29231e-06
1.29253e-06
1.29473e-06
1.29497e-06
1.29474e-06
1.29174e-06
1.28878e-06
1.28878e-06
1.28878e-06
1.28878e-06
1.29226e-06
1.2931e-06
1.29252e-06
1.28878e-06
1.28878e-06
1.28878e-06
1.28878e-06
1.28878e-06
1.28878e-06
1.29329e-06
1.29524e-06
1.2951e-06
1.29243e-06
1.28878e-06
1.28878e-06
1.28878e-06
1.28878e-06
1.28878e-06
1.28878e-06
1.29342e-06
1.29502e-06
1.29493e-06
1.29231e-06
1.28878e-06
1.28878e-06
1.28878e-06
1.28878e-06
1.28878e-06
1.28878e-06
1.29341e-06
1.29326e-06
1.29253e-06
1.28878e-06
1.28878e-06
1.28878e-06
1.28878e-06
1.28878e-06
1.28878e-06
1.29337e-06
1.29535e-06
1.29473e-06
1.29226e-06
1.28878e-06
1.28878e-06
1.28878e-06
1.28878e-06
1.2932e-06
1.29329e-06
1.29524e-06
1.29497e-06
1.2931e-06
1.29328e-06
1.29342e-06
1.29341e-06
1.29337e-06
1.2933e-06
1.29521e-06
1.29525e-06
1.29502e-06
1.29326e-06
1.29535e-06
1.29525e-06
1.27589e-06
1.27573e-06
1.27554e-06
1.27332e-06
1.27323e-06
1.27311e-06
1.27333e-06
1.27553e-06
1.27577e-06
1.27554e-06
1.27254e-06
1.26957e-06
1.26957e-06
1.26957e-06
1.26957e-06
1.27305e-06
1.2739e-06
1.27332e-06
1.26957e-06
1.26957e-06
1.26957e-06
1.26957e-06
1.26957e-06
1.26957e-06
1.27408e-06
1.27604e-06
1.2759e-06
1.27323e-06
1.26957e-06
1.26957e-06
1.26957e-06
1.26957e-06
1.26957e-06
1.26957e-06
1.27421e-06
1.27582e-06
1.27573e-06
1.27311e-06
1.26957e-06
1.26957e-06
1.26957e-06
1.26957e-06
1.26957e-06
1.26957e-06
1.27421e-06
1.27406e-06
1.27332e-06
1.26957e-06
1.26957e-06
1.26957e-06
1.26957e-06
1.26957e-06
1.26957e-06
1.27416e-06
1.27614e-06
1.27553e-06
1.27305e-06
1.26957e-06
1.26957e-06
1.26957e-06
1.26957e-06
1.274e-06
1.27409e-06
1.27604e-06
1.27577e-06
1.2739e-06
1.27408e-06
1.27421e-06
1.2742e-06
1.27416e-06
1.27409e-06
1.27601e-06
1.27604e-06
1.27582e-06
1.27406e-06
1.27614e-06
1.27604e-06
1.25669e-06
1.25652e-06
1.25633e-06
1.25412e-06
1.25402e-06
1.25391e-06
1.25412e-06
1.25633e-06
1.25657e-06
1.25634e-06
1.25333e-06
1.25037e-06
1.25037e-06
1.25037e-06
1.25037e-06
1.25385e-06
1.2547e-06
1.25412e-06
1.25037e-06
1.25037e-06
1.25037e-06
1.25037e-06
1.25037e-06
1.25037e-06
1.25488e-06
1.25684e-06
1.25669e-06
1.25402e-06
1.25037e-06
1.25037e-06
1.25037e-06
1.25037e-06
1.25037e-06
1.25037e-06
1.25501e-06
1.25661e-06
1.25652e-06
1.25391e-06
1.25037e-06
1.25037e-06
1.25037e-06
1.25037e-06
1.25037e-06
1.25037e-06
1.255e-06
1.25486e-06
1.25412e-06
1.25037e-06
1.25037e-06
1.25037e-06
1.25037e-06
1.25037e-06
1.25037e-06
1.25496e-06
1.25694e-06
1.25632e-06
1.25385e-06
1.25037e-06
1.25037e-06
1.25037e-06
1.25037e-06
1.25479e-06
1.25489e-06
1.25684e-06