/*--------------------------------*- C++ -*----------------------------------*\
| =========                 |                                                 |
| \\      /  F ield         | OpenFOAM: The Open Source CFD Toolbox           |
|  \\    /   O peration     | Version:  v2012                                 |
|   \\  /    A nd           | Website:  www.openfoam.com                      |
|    \\/     M anipulation  |                                                 |
\*---------------------------------------------------------------------------*/
FoamFile
{
    version     2.0;
    format      ascii;
    class       volScalarField;
    location    "200";
    object      k;
}
// * * * * * * * * * * * * * * * * * * * * * * * * * * * * * * * * * * * * * //

dimensions      [0 2 -2 0 0 0 0];


internalField   nonuniform List<scalar> 
85864
(
3.58933e-05
3.58914e-05
3.58914e-05
3.59957e-05
3.39293e-05
3.38874e-05
3.38874e-05
3.39598e-05
3.21569e-05
3.20041e-05
3.20038e-05
3.19452e-05
3.05328e-05
3.02229e-05
3.02226e-05
2.9978e-05
2.90301e-05
2.85457e-05
2.85455e-05
2.81096e-05
2.76316e-05
2.69773e-05
2.69772e-05
2.63762e-05
2.6326e-05
2.55198e-05
2.55197e-05
2.47919e-05
2.51055e-05
2.41726e-05
2.41725e-05
2.33624e-05
2.39645e-05
2.29373e-05
2.29373e-05
2.20885e-05
2.28987e-05
2.18127e-05
2.18128e-05
2.09693e-05
2.19044e-05
2.07962e-05
2.07964e-05
1.99958e-05
2.09782e-05
1.98849e-05
1.98852e-05
1.91626e-05
2.01153e-05
1.90767e-05
1.90771e-05
1.84676e-05
1.93142e-05
1.83684e-05
1.83689e-05
1.79067e-05
1.85741e-05
1.77569e-05
1.77574e-05
1.74753e-05
1.78924e-05
1.72405e-05
1.7241e-05
1.7165e-05
1.72667e-05
1.68183e-05
1.68188e-05
1.69833e-05
1.66951e-05
1.64896e-05
1.64899e-05
1.69359e-05
1.61761e-05
1.62542e-05
1.62542e-05
1.70293e-05
1.57075e-05
1.61121e-05
1.61119e-05
1.72483e-05
1.52876e-05
1.60629e-05
1.60625e-05
1.75987e-05
1.49156e-05
1.61045e-05
1.61042e-05
1.80797e-05
1.45906e-05
1.62379e-05
1.62378e-05
1.86814e-05
1.43118e-05
1.64607e-05
1.64609e-05
1.93781e-05
1.4079e-05
1.67707e-05
1.67711e-05
2.01593e-05
1.38916e-05
1.71651e-05
1.71655e-05
2.10477e-05
1.37494e-05
1.76404e-05
1.76406e-05
2.19903e-05
1.36521e-05
1.81923e-05
1.81925e-05
2.29861e-05
1.35996e-05
1.88158e-05
1.88163e-05
2.40183e-05
1.35929e-05
1.95055e-05
1.95063e-05
2.50847e-05
1.36324e-05
2.02555e-05
2.02558e-05
2.61293e-05
1.37172e-05
2.10579e-05
2.10577e-05
2.71759e-05
1.38456e-05
2.19044e-05
2.19048e-05
2.82392e-05
1.40177e-05
2.27869e-05
2.27881e-05
2.92552e-05
1.42326e-05
2.36959e-05
2.3698e-05
3.02491e-05
1.44882e-05
2.46227e-05
2.4625e-05
3.12008e-05
1.47812e-05
2.55581e-05
2.55602e-05
3.21247e-05
1.51075e-05
2.64913e-05
2.64933e-05
3.3008e-05
1.54611e-05
2.74072e-05
2.7412e-05
3.38368e-05
1.58343e-05
2.8288e-05
2.82991e-05
3.4583e-05
1.62156e-05
2.91168e-05
2.91335e-05
3.52861e-05
1.65938e-05
2.98844e-05
2.99047e-05
3.59349e-05
1.6962e-05
3.05874e-05
3.06104e-05
3.64938e-05
1.73142e-05
3.12284e-05
3.12579e-05
3.71196e-05
1.7647e-05
3.1797e-05
3.18325e-05
3.76012e-05
1.79582e-05
3.23087e-05
3.23398e-05
3.80177e-05
1.82397e-05
3.27515e-05
3.27783e-05
3.84045e-05
3.63062e-05
3.62907e-05
3.62907e-05
3.63062e-05
3.62907e-05
3.62907e-05
3.6423e-05
3.6423e-05
3.6423e-05
3.6423e-05
3.62907e-05
3.62907e-05
3.63062e-05
3.62907e-05
3.62908e-05
3.63062e-05
3.59957e-05
3.42667e-05
3.58914e-05
3.58914e-05
3.43755e-05
3.43755e-05
3.59958e-05
3.42667e-05
3.58914e-05
3.58914e-05
3.43754e-05
3.43755e-05
3.58914e-05
3.43755e-05
3.43754e-05
3.59958e-05
3.42668e-05
3.58914e-05
3.43755e-05
3.43754e-05
3.42666e-05
3.39598e-05
3.22565e-05
3.38874e-05
3.38875e-05
3.24649e-05
3.24652e-05
3.39599e-05
3.22573e-05
3.38874e-05
3.38874e-05
3.2465e-05
3.24646e-05
3.38874e-05
3.24652e-05
3.2465e-05
3.39597e-05
3.22555e-05
3.38873e-05
3.24649e-05
3.24651e-05
3.22571e-05
3.19446e-05
3.02885e-05
3.20038e-05
3.20042e-05
3.06582e-05
3.06588e-05
3.19455e-05
3.02894e-05
3.2004e-05
3.20033e-05
3.06586e-05
3.06578e-05
3.2004e-05
3.06587e-05
3.06586e-05
3.19436e-05
3.02883e-05
3.2004e-05
3.06585e-05
3.06586e-05
3.02892e-05
2.99772e-05
2.84119e-05
3.02223e-05
3.02229e-05
2.89539e-05
2.89548e-05
2.99782e-05
2.84131e-05
3.02227e-05
3.02219e-05
2.89546e-05
2.8954e-05
3.02227e-05
2.89549e-05
2.89544e-05
2.99773e-05
2.84126e-05
3.02227e-05
2.89547e-05
2.89543e-05
2.84124e-05
2.8109e-05
2.66594e-05
2.85445e-05
2.85455e-05
2.73576e-05
2.73587e-05
2.81102e-05
2.66609e-05
2.85453e-05
2.85447e-05
2.73585e-05
2.7358e-05
2.85451e-05
2.7359e-05
2.73582e-05
2.81099e-05
2.66605e-05
2.85449e-05
2.73588e-05
2.73579e-05
2.66599e-05
2.63754e-05
2.50508e-05
2.69759e-05
2.6977e-05
2.58723e-05
2.58734e-05
2.63769e-05
2.50526e-05
2.69767e-05
2.69763e-05
2.58731e-05
2.58729e-05
2.69765e-05
2.58739e-05
2.58731e-05
2.63766e-05
2.50524e-05
2.69761e-05
2.58737e-05
2.58726e-05
2.50516e-05
2.47909e-05
2.3597e-05
2.55182e-05
2.55193e-05
2.44973e-05
2.44983e-05
2.47924e-05
2.35976e-05
2.5519e-05
2.55189e-05
2.44981e-05
2.4498e-05
2.55191e-05
2.44989e-05
2.44984e-05
2.47918e-05
2.35971e-05
2.55186e-05
2.44988e-05
2.44979e-05
2.35969e-05
2.33613e-05
2.22944e-05
2.4171e-05
2.4172e-05
2.3234e-05
2.32349e-05
2.33628e-05
2.22973e-05
2.41717e-05
2.41717e-05
2.32348e-05
2.32346e-05
2.41721e-05
2.32356e-05
2.32352e-05
2.33626e-05
2.22976e-05
2.41716e-05
2.32356e-05
2.32349e-05
2.22963e-05
2.20895e-05
2.11501e-05
2.29357e-05
2.29365e-05
2.2082e-05
2.20827e-05
2.20889e-05
2.11524e-05
2.29365e-05
2.29362e-05
2.20829e-05
2.20825e-05
2.29369e-05
2.20836e-05
2.20832e-05
2.20883e-05
2.11525e-05
2.29367e-05
2.20836e-05
2.20832e-05
2.11519e-05
2.097e-05
2.0152e-05
2.18111e-05
2.18117e-05
2.10387e-05
2.10393e-05
2.09697e-05
2.0154e-05
2.1812e-05
2.18115e-05
2.10398e-05
2.10392e-05
2.18123e-05
2.10404e-05
2.10398e-05
2.09698e-05
2.01541e-05
2.18124e-05
2.10405e-05
2.10402e-05
2.01534e-05
1.9996e-05
1.92947e-05
2.07945e-05
2.07951e-05
2.01012e-05
2.01018e-05
1.99961e-05
1.9296e-05
2.07957e-05
2.07951e-05
2.01026e-05
2.01019e-05
2.07956e-05
2.01031e-05
2.01022e-05
1.99964e-05
1.92964e-05
2.07961e-05
2.01033e-05
2.01029e-05
1.92951e-05
1.9162e-05
1.8568e-05
1.98829e-05
1.98837e-05
1.92669e-05
1.92679e-05
1.91628e-05
1.85691e-05
1.98845e-05
1.98838e-05
1.92688e-05
1.92681e-05
1.98839e-05
1.92691e-05
1.92677e-05
1.91634e-05
1.85694e-05
1.98848e-05
1.92695e-05
1.92689e-05
1.85679e-05
1.84675e-05
1.79713e-05
1.90744e-05
1.90755e-05
1.85337e-05
1.8535e-05
1.84686e-05
1.79727e-05
1.90764e-05
1.90757e-05
1.85359e-05
1.85353e-05
1.90751e-05
1.85362e-05
1.85342e-05
1.84691e-05
1.7973e-05
1.90765e-05
1.85366e-05
1.85359e-05
1.7971e-05
1.7907e-05
1.75083e-05
1.83658e-05
1.83673e-05
1.7898e-05
1.78996e-05
1.79083e-05
1.75099e-05
1.83681e-05
1.83676e-05
1.79004e-05
1.79e-05
1.83664e-05
1.79008e-05
1.78984e-05
1.79086e-05
1.75102e-05
1.83682e-05
1.79012e-05
1.79004e-05
1.75082e-05
1.74754e-05
1.7182e-05
1.77541e-05
1.77558e-05
1.73575e-05
1.73594e-05
1.7477e-05
1.71839e-05
1.77566e-05
1.77562e-05
1.736e-05
1.73598e-05
1.77545e-05
1.73605e-05
1.73579e-05
1.74773e-05
1.71836e-05
1.77566e-05
1.7361e-05
1.73601e-05
1.71822e-05
1.71647e-05
1.69827e-05
1.72376e-05
1.72395e-05
1.69116e-05
1.69136e-05
1.71668e-05
1.69843e-05
1.724e-05
1.72399e-05
1.6914e-05
1.69141e-05
1.72379e-05
1.69146e-05
1.6912e-05
1.71676e-05
1.69849e-05
1.72402e-05
1.69151e-05
1.69144e-05
1.69832e-05
1.69831e-05
1.6926e-05
1.68153e-05
1.68174e-05
1.65591e-05
1.65613e-05
1.69834e-05
1.6928e-05
1.68177e-05
1.68179e-05
1.65615e-05
1.65619e-05
1.68157e-05
1.65622e-05
1.65596e-05
1.69852e-05
1.6928e-05
1.68182e-05
1.65625e-05
1.6562e-05
1.69272e-05
1.69351e-05
1.69918e-05
1.64864e-05
1.64889e-05
1.63e-05
1.63025e-05
1.69371e-05
1.69957e-05
1.64889e-05
1.64894e-05
1.63022e-05
1.6303e-05
1.64871e-05
1.63032e-05
1.63008e-05
1.6937e-05
1.69938e-05
1.64895e-05
1.63032e-05
1.63031e-05
1.69961e-05
1.70296e-05
1.71928e-05
1.62511e-05
1.62537e-05
1.61344e-05
1.61371e-05
1.70306e-05
1.71941e-05
1.62533e-05
1.62542e-05
1.61364e-05
1.61375e-05
1.6252e-05
1.61374e-05
1.61353e-05
1.70308e-05
1.71942e-05
1.62543e-05
1.61372e-05
1.61376e-05
1.71962e-05
1.72472e-05
1.75224e-05
1.61092e-05
1.61121e-05
1.60618e-05
1.60648e-05
1.72502e-05
1.75256e-05
1.61111e-05
1.61124e-05
1.60635e-05
1.60649e-05
1.61103e-05
1.60646e-05
1.60629e-05
1.72506e-05
1.75256e-05
1.61124e-05
1.60643e-05
1.6065e-05
1.75261e-05
1.75969e-05
1.7979e-05
1.60603e-05
1.60632e-05
1.60834e-05
1.60863e-05
1.75985e-05
1.79803e-05
1.60618e-05
1.60633e-05
1.60847e-05
1.60863e-05
1.60614e-05
1.60849e-05
1.60844e-05
1.75987e-05
1.79806e-05
1.60634e-05
1.60844e-05
1.60863e-05
1.79798e-05
1.80738e-05
1.85526e-05
1.61014e-05
1.61043e-05
1.61942e-05
1.61969e-05
1.80775e-05
1.85347e-05
1.61027e-05
1.61045e-05
1.61951e-05
1.6197e-05
1.61025e-05
1.61949e-05
1.61953e-05
1.8075e-05
1.85547e-05
1.61044e-05
1.61946e-05
1.6197e-05
1.85368e-05
1.86673e-05
1.92322e-05
1.62349e-05
1.62377e-05
1.63948e-05
1.63974e-05
1.868e-05
1.92119e-05
1.62358e-05
1.62379e-05
1.63952e-05
1.63976e-05
1.6236e-05
1.63943e-05
1.63957e-05
1.86679e-05
1.92315e-05
1.62377e-05
1.63944e-05
1.63972e-05
1.9212e-05
1.93636e-05
1.99812e-05
1.64578e-05
1.64605e-05
1.66829e-05
1.66854e-05
1.93765e-05
2.00072e-05
1.64582e-05
1.64607e-05
1.66828e-05
1.66855e-05
1.64589e-05
1.66812e-05
1.66838e-05
1.9371e-05
1.99848e-05
1.64604e-05
1.66814e-05
1.66851e-05
2.0004e-05
2.01708e-05
2.08387e-05
1.67679e-05
1.67704e-05
1.70558e-05
1.70581e-05
2.01546e-05
2.08636e-05
1.67677e-05
1.67704e-05
1.70553e-05
1.7058e-05
1.67689e-05
1.70526e-05
1.70567e-05
2.01729e-05
2.084e-05
1.67702e-05
1.70528e-05
1.70577e-05
2.08379e-05
2.10463e-05
2.1765e-05
1.71622e-05
1.71644e-05
1.75101e-05
1.75121e-05
2.10255e-05
2.17836e-05
1.71616e-05
1.71643e-05
1.75092e-05
1.7512e-05
1.71632e-05
1.75053e-05
1.75109e-05
2.1047e-05
2.17918e-05
1.71641e-05
1.75055e-05
1.75114e-05
2.17655e-05
2.19891e-05
2.27466e-05
1.76371e-05
1.7639e-05
1.80415e-05
1.80434e-05
2.19745e-05
2.2744e-05
1.76362e-05
1.76388e-05
1.80404e-05
1.80431e-05
1.7638e-05
1.80354e-05
1.80423e-05
2.19649e-05
2.2776e-05
1.76386e-05
1.80357e-05
1.80425e-05
2.27474e-05
2.2983e-05
2.38015e-05
1.81884e-05
1.819e-05
1.86458e-05
1.86475e-05
2.29832e-05
2.37678e-05
1.81873e-05
1.81897e-05
1.86446e-05
1.86473e-05
1.81893e-05
1.86383e-05
1.86465e-05
2.29604e-05
2.38029e-05
1.81894e-05
1.86389e-05
1.86465e-05
2.3769e-05
2.39941e-05
2.48131e-05
1.88112e-05
1.88128e-05
1.93176e-05
1.93192e-05
2.40173e-05
2.4849e-05
1.88102e-05
1.88125e-05
1.93163e-05
1.93191e-05
1.88121e-05
1.93088e-05
1.93182e-05
2.39933e-05
2.48544e-05
1.8812e-05
1.93096e-05
1.93179e-05
2.48147e-05
2.50771e-05
2.58712e-05
1.95004e-05
1.95017e-05
2.00513e-05
2.00525e-05
2.50447e-05
2.59059e-05
1.94991e-05
1.95017e-05
2.00496e-05
2.00527e-05
1.9501e-05
2.00415e-05
2.00516e-05
2.50656e-05
2.59078e-05
1.95007e-05
2.00421e-05
2.0051e-05
2.58874e-05
2.61476e-05
2.69491e-05
2.02498e-05
2.02506e-05
2.08398e-05
2.08407e-05
2.61098e-05
2.69647e-05
2.0248e-05
2.02508e-05
2.08378e-05
2.08409e-05
2.02499e-05
2.08294e-05
2.08399e-05
2.61083e-05
2.69662e-05
2.02494e-05
2.08294e-05
2.08391e-05
2.69691e-05
2.71937e-05
2.80029e-05
2.10516e-05
2.10522e-05
2.16752e-05
2.16753e-05
2.71644e-05
2.79726e-05
2.10496e-05
2.10524e-05
2.16733e-05
2.16766e-05
2.10515e-05
2.16635e-05
2.16753e-05
2.71672e-05
2.8011e-05
2.10509e-05
2.16639e-05
2.16744e-05
2.79891e-05
2.82164e-05
2.90249e-05
2.18978e-05
2.18979e-05
2.25492e-05
2.25492e-05
2.82271e-05
2.90197e-05
2.1896e-05
2.1899e-05
2.25475e-05
2.25506e-05
2.18978e-05
2.25363e-05
2.25497e-05
2.82081e-05
2.9008e-05
2.18969e-05
2.25372e-05
2.25484e-05
2.90228e-05
2.9225e-05
2.99976e-05
2.27802e-05
2.278e-05
2.34523e-05
2.34523e-05
2.9251e-05
3.00042e-05
2.27786e-05
2.27811e-05
2.34507e-05
2.34537e-05
2.27805e-05
2.34381e-05
2.34531e-05
2.92492e-05
3.00032e-05
2.27793e-05
2.34403e-05
2.34515e-05
2.99977e-05
3.02604e-05
3.09724e-05
2.36892e-05
2.36888e-05
2.43756e-05
2.43752e-05
3.02518e-05
3.09897e-05
2.36876e-05
2.36898e-05
2.43742e-05
2.43766e-05
2.36893e-05
2.43602e-05
2.43761e-05
3.02568e-05
3.09886e-05
2.36879e-05
2.43629e-05
2.43743e-05
3.09874e-05
3.12117e-05
3.19031e-05
2.46156e-05
2.46149e-05
2.53093e-05
2.53088e-05
3.11922e-05
3.19335e-05
2.46144e-05
2.46162e-05
2.53083e-05
2.53108e-05
2.46153e-05
2.52939e-05
2.53098e-05
3.11935e-05
3.18985e-05
2.46137e-05
2.52962e-05
2.53076e-05
3.19341e-05
3.21422e-05
3.27968e-05
2.55498e-05
2.55489e-05
2.62436e-05
2.62427e-05
3.21181e-05
3.28192e-05
2.55491e-05
2.5551e-05
2.62434e-05
2.62457e-05
2.55501e-05
2.62284e-05
2.62448e-05
3.2132e-05
3.28278e-05
2.55476e-05
2.62305e-05
2.62418e-05
3.28243e-05
3.30161e-05
3.36281e-05
2.64813e-05
2.64803e-05
2.71649e-05
2.71637e-05
3.30031e-05
3.36425e-05
2.64814e-05
2.64835e-05
2.71662e-05
2.71687e-05
2.64827e-05
2.71504e-05
2.71686e-05
3.30113e-05
3.36639e-05
2.64792e-05
2.71539e-05
2.7164e-05
3.36497e-05
3.38472e-05
3.44569e-05
2.73965e-05
2.73941e-05
2.80602e-05
2.80544e-05
3.38238e-05
3.43962e-05
2.73979e-05
2.74006e-05
2.80622e-05
2.80645e-05
2.73998e-05
2.80418e-05
2.80616e-05
3.38613e-05
3.44296e-05
2.73944e-05
2.80515e-05
2.80537e-05
3.43959e-05
3.4614e-05
3.51415e-05
2.82806e-05
2.82736e-05
2.89073e-05
2.88978e-05
3.45752e-05
3.51238e-05
2.82829e-05
2.8285e-05
2.89112e-05
2.8912e-05
2.82813e-05
2.88859e-05
2.89061e-05
3.46349e-05
3.5159e-05
2.82718e-05
2.89018e-05
2.88944e-05
3.51289e-05
3.53144e-05
3.58061e-05
2.91121e-05
2.91017e-05
2.96942e-05
2.96802e-05
3.52863e-05
3.57831e-05
2.91168e-05
2.91172e-05
2.97011e-05
2.97011e-05
2.91098e-05
2.96723e-05
2.96898e-05
3.53412e-05
3.58103e-05
2.9098e-05
2.96926e-05
2.96795e-05
3.57864e-05
3.59417e-05
3.64362e-05
2.98823e-05
2.98667e-05
3.04236e-05
3.03986e-05
3.59336e-05
3.63411e-05
2.98903e-05
2.98889e-05
3.04337e-05
3.04227e-05
2.98763e-05
3.03948e-05
3.04097e-05
3.59658e-05
3.63783e-05
2.9866e-05
3.04173e-05
3.03985e-05
3.63508e-05
3.65944e-05
3.70411e-05
3.05966e-05
3.05685e-05
3.1089e-05
3.10541e-05
3.64958e-05
3.69665e-05
3.06071e-05
3.05936e-05
3.11008e-05
3.10857e-05
3.05801e-05
3.10575e-05
3.10709e-05
3.6514e-05
3.70001e-05
3.05678e-05
3.10847e-05
3.10567e-05
3.69786e-05
3.71751e-05
3.752e-05
3.12427e-05
3.12053e-05
3.16815e-05
3.16368e-05
3.71014e-05
3.74494e-05
3.12553e-05
3.12394e-05
3.16966e-05
3.16775e-05
3.12237e-05
3.16463e-05
3.16612e-05
3.7141e-05
3.75011e-05
3.12104e-05
3.16813e-05
3.16509e-05
3.74796e-05
3.76402e-05
3.79453e-05
3.18177e-05
3.17703e-05
3.22111e-05
3.21597e-05
3.75699e-05
3.78914e-05
3.18332e-05
3.18113e-05
3.22259e-05
3.21941e-05
3.17963e-05
3.21751e-05
3.21864e-05
3.76202e-05
3.79191e-05
3.17867e-05
3.22089e-05
3.21815e-05
3.79061e-05
3.80582e-05
3.83382e-05
3.23315e-05
3.22788e-05
3.26798e-05
3.26275e-05
3.80103e-05
3.83011e-05
3.23452e-05
3.23102e-05
3.26908e-05
3.26474e-05
3.23046e-05
3.26426e-05
3.2649e-05
3.80267e-05
3.82855e-05
3.23018e-05
3.26698e-05
3.26507e-05
3.82975e-05
3.84421e-05
3.86774e-05
3.27804e-05
3.27268e-05
3.30699e-05
3.30217e-05
3.84047e-05
3.86368e-05
3.27892e-05
3.27452e-05
3.30754e-05
3.30378e-05
3.27488e-05
3.30298e-05
3.30398e-05
3.83885e-05
3.86331e-05
3.27507e-05
3.30551e-05
3.30441e-05
3.86467e-05
3.73774e-05
3.73766e-05
3.7377e-05
3.7377e-05
3.73702e-05
3.73777e-05
3.73042e-05
3.73768e-05
3.73702e-05
3.73777e-05
3.73769e-05
3.73047e-05
3.73742e-05
3.72975e-05
3.72971e-05
3.58661e-05
4.06688e-05
3.65945e-05
4.50648e-05
5.54934e-05
6.51222e-05
3.58656e-05
4.06609e-05
3.65924e-05
4.50601e-05
3.58933e-05
3.58933e-05
3.58933e-05
3.44002e-05
3.44001e-05
3.44002e-05
3.44002e-05
3.52726e-05
3.5602e-05
3.58931e-05
3.53766e-05
3.60489e-05
3.41753e-05
3.53822e-05
5.55655e-05
6.51171e-05
3.52722e-05
3.58931e-05
3.5605e-05
3.53766e-05
3.60488e-05
3.53822e-05
3.41781e-05
3.65911e-05
3.65477e-05
3.52783e-05
3.4022e-05
3.39842e-05
3.39378e-05
5.13055e-05
3.46683e-05
5.46198e-05
7.66923e-05
8.09775e-05
3.39447e-05
5.12993e-05
3.46721e-05
5.46135e-05
3.39293e-05
3.39293e-05
3.39293e-05
3.25847e-05
3.25847e-05
3.25847e-05
3.25847e-05
3.30455e-05
3.243e-05
3.39292e-05
3.34066e-05
3.38926e-05
3.15223e-05
3.34674e-05
7.66892e-05
8.09761e-05
3.30445e-05
3.39292e-05
3.24269e-05
3.34065e-05
3.38913e-05
3.34673e-05
3.15219e-05
3.16603e-05
3.16503e-05
3.32596e-05
3.08487e-05
3.08441e-05
3.22267e-05
5.91693e-05
3.29095e-05
6.14673e-05
8.44329e-05
8.50899e-05
3.22308e-05
5.91646e-05
3.29111e-05
6.14637e-05
3.21569e-05
3.21568e-05
3.21569e-05
3.09266e-05
3.09267e-05
3.09265e-05
3.09267e-05
3.07765e-05
3.04742e-05
3.21364e-05
3.15494e-05
3.16289e-05
2.98511e-05
3.17086e-05
8.44284e-05
8.50874e-05
3.07767e-05
3.21363e-05
3.04753e-05
3.15491e-05
3.16283e-05
3.17086e-05
2.98505e-05
3.01729e-05
3.01722e-05
3.12647e-05
2.99571e-05
2.99543e-05
3.0731e-05
6.43599e-05
3.13276e-05
6.57538e-05
8.46031e-05
8.39175e-05
3.07375e-05
6.43574e-05
3.13359e-05
6.57542e-05
3.05329e-05
3.05328e-05
3.05329e-05
2.93955e-05
2.93956e-05
2.93955e-05
2.93955e-05
2.85855e-05
2.91109e-05
3.0467e-05
2.97935e-05
2.94037e-05
2.86479e-05
3.00659e-05
8.46088e-05
8.39162e-05
2.85852e-05
3.0467e-05
2.91126e-05
2.97933e-05
2.94036e-05
3.00659e-05
2.86473e-05
2.99212e-05
2.99119e-05
2.93367e-05
3.00297e-05
3.00126e-05
2.94925e-05
6.73204e-05
2.99825e-05
6.80474e-05
8.2192e-05
8.12248e-05
2.95042e-05
6.73208e-05
2.9988e-05
6.80496e-05
2.90303e-05
2.90301e-05
2.90301e-05
2.79721e-05
2.79724e-05
2.79722e-05
2.79721e-05
2.65502e-05
2.80965e-05
2.8899e-05
2.81432e-05
2.73093e-05
2.77554e-05
2.85217e-05
8.21895e-05
8.12257e-05
2.65493e-05
2.88989e-05
2.81015e-05
2.8143e-05
2.73079e-05
2.85215e-05
2.77557e-05
3.04591e-05
3.04473e-05
2.75194e-05
3.07905e-05
3.07722e-05
2.85788e-05
6.87364e-05
2.89276e-05
6.90328e-05
7.9418e-05
7.85409e-05
2.85879e-05
6.87382e-05
2.8925e-05
6.90336e-05
2.76318e-05
2.76317e-05
2.76316e-05
2.66442e-05
2.66445e-05
2.66443e-05
2.66442e-05
2.47226e-05
2.73834e-05
2.74237e-05
2.66025e-05
2.54061e-05
2.7157e-05
2.7069e-05
7.94153e-05
7.85419e-05
2.47219e-05
2.74235e-05
2.73838e-05
2.66024e-05
2.54047e-05
2.70687e-05
2.71585e-05
3.16203e-05
3.16178e-05
2.58367e-05
3.21324e-05
3.21177e-05
2.80339e-05
6.92387e-05
2.82169e-05
6.92997e-05
7.69948e-05
7.62979e-05
2.80374e-05
6.92374e-05
2.8221e-05
6.92966e-05
2.63264e-05
2.63262e-05
2.6326e-05
2.5403e-05
2.54034e-05
2.54032e-05
2.54031e-05
2.31415e-05
2.6971e-05
2.60382e-05
2.51726e-05
2.37385e-05
2.68919e-05
2.57057e-05
7.69933e-05
7.62979e-05
2.31416e-05
2.60379e-05
2.69767e-05
2.51725e-05
2.37374e-05
2.57054e-05
2.68898e-05
3.32734e-05
3.32719e-05
2.43051e-05
3.39155e-05
3.39056e-05
2.78924e-05
6.92811e-05
2.79025e-05
6.92578e-05
7.50721e-05
7.45418e-05
2.78942e-05
6.92764e-05
2.79045e-05
6.92524e-05
2.51059e-05
2.51058e-05
2.51056e-05
2.42425e-05
2.42429e-05
2.42428e-05
2.42427e-05
2.18266e-05
2.69126e-05
2.47415e-05
2.38533e-05
2.23295e-05
2.69601e-05
2.44311e-05
7.50717e-05
7.45398e-05
2.18276e-05
2.47413e-05
2.69122e-05
2.38532e-05
2.23299e-05
2.44309e-05
2.69551e-05
3.52845e-05
3.52839e-05
2.2927e-05
3.60189e-05
3.60084e-05
2.81545e-05
6.91779e-05
2.80169e-05
6.91511e-05
7.36121e-05
7.32161e-05
2.81509e-05
6.91727e-05
2.80168e-05
6.91467e-05
2.39649e-05
2.39648e-05
2.39647e-05
2.31583e-05
2.31586e-05
2.31585e-05
2.31585e-05
2.0787e-05
2.71797e-05
2.35328e-05
2.26459e-05
2.11876e-05
2.73485e-05
2.32439e-05
7.36126e-05
7.32195e-05
2.07869e-05
2.35327e-05
2.71886e-05
2.26459e-05
2.11879e-05
2.32437e-05
2.7335e-05
3.75375e-05
3.75382e-05
2.17052e-05
3.8324e-05
3.83198e-05
2.88264e-05
6.90984e-05
2.85521e-05
6.90896e-05
7.25329e-05
7.22529e-05
2.88256e-05
6.90953e-05
2.85485e-05
6.90894e-05
2.2899e-05
2.28989e-05
2.2899e-05
2.21464e-05
2.21467e-05
2.21466e-05
2.21467e-05
2.00187e-05
2.77678e-05
2.24083e-05
2.15486e-05
2.03084e-05
2.80396e-05
2.21402e-05
7.2533e-05
7.22528e-05
2.00171e-05
2.24083e-05
2.77746e-05
2.15486e-05
2.03076e-05
2.21401e-05
2.80198e-05
3.99242e-05
3.99253e-05
2.06346e-05
4.07274e-05
4.07288e-05
2.99082e-05
6.90879e-05
2.94973e-05
6.91049e-05
7.17563e-05
7.15609e-05
2.99024e-05
6.90892e-05
2.9495e-05
6.91073e-05
2.19047e-05
2.19046e-05
2.19047e-05
2.12035e-05
2.12038e-05
2.12037e-05
2.12038e-05
1.95096e-05
2.8638e-05
2.13675e-05
2.05587e-05
1.96921e-05
2.8996e-05
2.11204e-05
7.17563e-05
7.15611e-05
1.95083e-05
2.13675e-05
2.86472e-05
2.05589e-05
1.96931e-05
2.11203e-05
2.89862e-05
4.23458e-05
4.23507e-05
1.97064e-05
4.3142e-05
4.31505e-05
3.1399e-05
6.9137e-05
3.08486e-05
6.91799e-05
7.12084e-05
7.10759e-05
3.13886e-05
6.91413e-05
3.08481e-05
6.91857e-05
2.09785e-05
2.09785e-05
2.09785e-05
2.03254e-05
2.03257e-05
2.03257e-05
2.03257e-05
1.92639e-05
2.97698e-05
2.04098e-05
1.96732e-05
1.93369e-05
3.01973e-05
2.01831e-05
7.12138e-05
7.10699e-05
1.92612e-05
2.04099e-05
2.97759e-05
1.96735e-05
1.93397e-05
2.0183e-05
3.019e-05
4.47199e-05
4.473e-05
1.89153e-05
4.54854e-05
4.5497e-05
3.32545e-05
6.92341e-05
3.25885e-05
6.92859e-05
7.08261e-05
7.07369e-05
3.32521e-05
6.92421e-05
3.25844e-05
6.9295e-05
2.01156e-05
2.01156e-05
2.01155e-05
1.95086e-05
1.9509e-05
1.9509e-05
1.95088e-05
1.92811e-05
3.11082e-05
1.95323e-05
1.88903e-05
1.925e-05
3.15965e-05
1.93251e-05
7.08325e-05
7.07313e-05
1.92751e-05
1.95324e-05
3.1118e-05
1.88908e-05
1.92507e-05
1.93252e-05
3.15874e-05
4.69795e-05
4.69904e-05
1.82531e-05
4.76938e-05
4.77046e-05
3.54325e-05
6.93478e-05
3.46717e-05
6.93982e-05
7.05637e-05
7.04922e-05
3.54388e-05
6.9361e-05
3.46709e-05
6.94072e-05
1.93146e-05
1.93146e-05
1.93144e-05
1.87535e-05
1.8754e-05
1.87541e-05
1.87536e-05
1.95516e-05
3.26166e-05
1.87319e-05
1.82066e-05
1.94275e-05
3.31367e-05
1.85436e-05
7.05639e-05
7.04921e-05
1.95439e-05
1.87321e-05
3.26232e-05
1.8207e-05
1.94346e-05
1.85438e-05
3.31377e-05
4.90693e-05
4.90777e-05
1.77226e-05
4.97191e-05
4.97294e-05
3.78616e-05
6.94632e-05
3.70293e-05
6.95064e-05
7.03691e-05
7.03162e-05
3.78674e-05
6.94733e-05
3.70313e-05
6.95153e-05
1.85746e-05
1.85747e-05
1.85742e-05
1.80575e-05
1.8058e-05
1.80581e-05
1.80575e-05
2.00698e-05
3.4245e-05
1.80061e-05
1.76188e-05
1.98671e-05
3.47843e-05
1.78362e-05
7.03692e-05
7.03166e-05
2.0068e-05
1.80065e-05
3.42369e-05
1.76192e-05
1.98726e-05
1.78365e-05
3.47939e-05
5.09588e-05
5.09669e-05
1.73289e-05
5.1539e-05
5.15477e-05
4.04348e-05
6.95672e-05
3.95674e-05
6.96063e-05
7.02191e-05
7.0179e-05
4.0447e-05
6.95752e-05
3.95683e-05
6.96135e-05
1.7893e-05
1.78931e-05
1.78924e-05
1.7418e-05
1.74187e-05
1.74189e-05
1.74181e-05
2.08434e-05
3.59282e-05
1.73527e-05
1.71258e-05
2.05549e-05
3.64808e-05
1.72005e-05
7.0219e-05
7.01791e-05
2.08369e-05
1.73531e-05
3.59171e-05
1.71263e-05
2.05608e-05
1.7201e-05
3.64898e-05
5.26376e-05
5.26447e-05
1.70674e-05
5.31471e-05
5.3157e-05
4.30543e-05
6.96614e-05
4.21695e-05
6.96972e-05
7.00959e-05
7.00635e-05
4.30716e-05
6.96645e-05
4.21577e-05
6.97051e-05
1.72675e-05
1.72676e-05
1.72668e-05
1.68332e-05
1.68339e-05
1.68341e-05
1.68333e-05
2.1847e-05
3.76278e-05
1.67707e-05
1.67268e-05
2.14822e-05
3.81851e-05
1.66361e-05
7.00956e-05
7.00631e-05
2.1839e-05
1.67712e-05
3.76249e-05
1.67272e-05
2.1489e-05
1.66366e-05
3.81785e-05
5.41087e-05
5.41174e-05
1.69376e-05
5.45531e-05
5.45621e-05
4.5595e-05
6.97479e-05
4.47228e-05
6.97809e-05
6.99886e-05
6.99601e-05
4.56112e-05
6.97506e-05
4.47142e-05
6.97882e-05
1.66959e-05
1.66961e-05
1.66952e-05
1.63012e-05
1.63021e-05
1.63022e-05
1.63014e-05
2.30635e-05
3.92947e-05
1.62579e-05
1.64211e-05
2.26316e-05
3.98474e-05
1.61403e-05
6.99882e-05
6.99597e-05
2.30574e-05
1.62584e-05
3.93025e-05
1.64213e-05
2.26365e-05
1.61407e-05
3.98351e-05
5.53886e-05
5.53978e-05
1.69447e-05
5.57752e-05
5.57851e-05
4.79578e-05
6.98283e-05
4.71394e-05
6.98596e-05
6.9891e-05
6.98649e-05
4.79726e-05
6.98313e-05
4.7134e-05
6.98669e-05
1.61771e-05
1.61772e-05
1.61764e-05
1.58204e-05
1.58214e-05
1.58214e-05
1.58208e-05
2.44677e-05
4.09129e-05
1.5813e-05
1.62087e-05
2.3979e-05
4.14348e-05
1.57122e-05
6.98903e-05
6.98643e-05
2.44649e-05
1.58132e-05
4.09167e-05
1.62086e-05
2.39823e-05
1.57124e-05
4.14339e-05
5.65018e-05
5.65105e-05
1.7079e-05
5.68372e-05
5.68474e-05
5.00802e-05
6.99042e-05
4.93416e-05
6.99349e-05
6.98003e-05
6.97762e-05
5.00933e-05
6.99076e-05
4.93381e-05
6.99409e-05
1.57086e-05
1.57086e-05
1.57079e-05
1.53886e-05
1.53896e-05
1.53896e-05
1.53892e-05
2.60083e-05
4.24496e-05
1.54354e-05
1.60894e-05
2.54814e-05
4.29309e-05
1.53513e-05
6.97994e-05
6.97754e-05
2.60103e-05
1.54354e-05
4.24443e-05
1.60892e-05
2.54821e-05
1.53513e-05
4.29354e-05
5.747e-05
5.74796e-05
1.73429e-05
5.77614e-05
5.77717e-05
5.1931e-05
6.99726e-05
5.12846e-05
7.00038e-05
6.97153e-05
6.96931e-05
5.19418e-05
6.99783e-05
5.12825e-05
7.00093e-05
1.52888e-05
1.52888e-05
1.52881e-05
1.50049e-05
1.50059e-05
1.50057e-05
1.50055e-05
2.76557e-05
4.38809e-05
1.51251e-05
1.60652e-05
2.70978e-05
4.43262e-05
1.50574e-05
6.97143e-05
6.96924e-05
2.76533e-05
1.51249e-05
4.38804e-05
1.60649e-05
2.70999e-05
1.50572e-05
4.43331e-05
5.83138e-05
5.8325e-05
1.77392e-05
5.85711e-05
5.85807e-05
5.35085e-05
7.00377e-05
5.29556e-05
7.0066e-05
6.96362e-05
6.96161e-05
5.35173e-05
7.00433e-05
5.29539e-05
7.0072e-05
1.4917e-05
1.49168e-05
1.49162e-05
1.46681e-05
1.4669e-05
1.46688e-05
1.46688e-05
2.93489e-05
4.5208e-05
1.48819e-05
1.61286e-05
2.87828e-05
4.56172e-05
1.48307e-05
6.96352e-05
6.96153e-05
2.9351e-05
1.48816e-05
4.52075e-05
1.61282e-05
2.87852e-05
1.48303e-05
4.5623e-05
5.90561e-05
5.90671e-05
1.82357e-05
5.9282e-05
5.92929e-05
5.48328e-05
7.00962e-05
5.43654e-05
7.01216e-05
6.95632e-05
6.95451e-05
5.48401e-05
7.01022e-05
5.43645e-05
7.01281e-05
1.45921e-05
1.45918e-05
1.45913e-05
1.43776e-05
1.43785e-05
1.43783e-05
1.43785e-05
3.10544e-05
4.64258e-05
1.47062e-05
1.62836e-05
3.04884e-05
4.68046e-05
1.46719e-05
6.95621e-05
6.9544e-05
3.10512e-05
1.4706e-05
4.64283e-05
1.62835e-05
3.04942e-05
1.46716e-05
4.68066e-05
5.97109e-05
5.97229e-05
1.88624e-05
5.99109e-05
5.99229e-05
5.59347e-05
7.01495e-05
5.55421e-05
7.01687e-05
6.94961e-05
6.94798e-05
5.59425e-05
7.01542e-05
5.55418e-05
7.01775e-05
1.43134e-05
1.43132e-05
1.43127e-05
1.41331e-05
1.4134e-05
1.41337e-05
1.41341e-05
3.27203e-05
4.75436e-05
1.45993e-05
1.6527e-05
3.21768e-05
4.7891e-05
1.4582e-05
6.94948e-05
6.94786e-05
3.27253e-05
1.45991e-05
4.75464e-05
1.65271e-05
3.21806e-05
1.45819e-05
4.7893e-05
6.02944e-05
6.03036e-05
1.96057e-05
6.04731e-05
6.04832e-05
5.68522e-05
7.01946e-05
5.65207e-05
7.0212e-05
6.94347e-05
6.94203e-05
5.68609e-05
7.01999e-05
5.65217e-05
7.02199e-05
1.40806e-05
1.40804e-05
1.408e-05
1.3934e-05
1.39349e-05
1.39345e-05
1.39351e-05
3.43319e-05
4.85674e-05
1.45615e-05
1.68565e-05
3.38109e-05
4.88834e-05
1.45632e-05
6.94333e-05
6.94192e-05
3.43337e-05
1.45614e-05
4.85701e-05
1.68567e-05
3.38099e-05
1.45631e-05
4.88868e-05
6.08157e-05
6.08244e-05
2.03976e-05
6.0976e-05
6.09861e-05
5.76221e-05
7.02337e-05
5.73382e-05
7.02487e-05
6.9379e-05
6.93665e-05
5.76304e-05
7.02396e-05
5.73398e-05
7.02564e-05
1.38932e-05
1.38929e-05
1.38927e-05
1.37803e-05
1.3781e-05
1.37807e-05
1.37814e-05
3.58557e-05
4.95048e-05
1.45946e-05
1.7269e-05
3.5366e-05
4.9793e-05
1.46082e-05
6.93774e-05
6.93653e-05
3.58615e-05
1.4594e-05
4.95066e-05
1.72692e-05
3.53661e-05
1.46082e-05
4.97955e-05
6.12845e-05
6.12945e-05
2.12953e-05
6.1429e-05
6.14391e-05
5.82753e-05
7.02677e-05
5.80284e-05
7.02811e-05
6.93286e-05
6.9318e-05
5.82835e-05
7.0273e-05
5.80309e-05
7.02888e-05
1.37509e-05
1.37506e-05
1.37505e-05
1.36717e-05
1.36724e-05
1.36721e-05
1.36729e-05
3.72854e-05
5.03608e-05
1.46957e-05
1.7761e-05
3.6828e-05
5.06256e-05
1.47233e-05
6.93272e-05
6.93171e-05
3.72861e-05
1.46957e-05
5.03637e-05
1.77611e-05
3.68282e-05
1.47234e-05
5.06306e-05
6.17083e-05
6.17183e-05
2.22513e-05
6.184e-05
6.18506e-05
5.88376e-05
7.02981e-05
5.86196e-05
7.03106e-05
6.92835e-05
6.92749e-05
5.88449e-05
7.03037e-05
5.86233e-05
7.03177e-05
1.36534e-05
1.36531e-05
1.36532e-05
1.36083e-05
1.3609e-05
1.36088e-05
1.36095e-05
3.86151e-05
5.11475e-05
1.48656e-05
1.83281e-05
3.81908e-05
5.13906e-05
1.49072e-05
6.92823e-05
6.92739e-05
3.86148e-05
1.48654e-05
5.11486e-05
1.83286e-05
3.81907e-05
1.49072e-05
5.13962e-05
6.2093e-05
6.21039e-05
2.32547e-05
6.2214e-05
6.22245e-05
5.93273e-05
7.03255e-05
5.91336e-05
7.03382e-05
6.92437e-05
6.92368e-05
5.93331e-05
7.03319e-05
5.9138e-05
7.03447e-05
1.36007e-05
1.36004e-05
1.36008e-05
1.35907e-05
1.35914e-05
1.35913e-05
1.35918e-05
3.98416e-05
5.18702e-05
1.5103e-05
1.89655e-05
3.94504e-05
5.20978e-05
1.51584e-05
6.92423e-05
6.92356e-05
3.98443e-05
1.51029e-05
5.18743e-05
1.89662e-05
3.94496e-05
1.51584e-05
5.2099e-05
6.24469e-05
6.2457e-05
2.42925e-05
6.25568e-05
6.2568e-05
5.97595e-05
7.03521e-05
5.95864e-05
7.03639e-05
6.92085e-05
6.92031e-05
5.97643e-05
7.03587e-05
5.95907e-05
7.03704e-05
1.35936e-05
1.35935e-05
1.35939e-05
1.36154e-05
1.36161e-05
1.3616e-05
1.36164e-05
4.09716e-05
5.25392e-05
1.54066e-05
1.96678e-05
4.06094e-05
5.27477e-05
1.54753e-05
6.92069e-05
6.92018e-05
4.09722e-05
1.54063e-05
5.25413e-05
1.96686e-05
4.06101e-05
1.54756e-05
5.27512e-05
6.2772e-05
6.27828e-05
2.53449e-05
6.28736e-05
6.2886e-05
6.01462e-05
7.03775e-05
5.99904e-05
7.03888e-05
6.91773e-05
6.91732e-05
6.01508e-05
7.03843e-05
5.99942e-05
7.03953e-05
1.36329e-05
1.36328e-05
1.36332e-05
1.36852e-05
1.36857e-05
1.36857e-05
1.36865e-05
4.20108e-05
5.31575e-05
1.57743e-05
2.04292e-05
4.16687e-05
5.33516e-05
1.58562e-05
6.91755e-05
6.91716e-05
4.20104e-05
1.57736e-05
5.31571e-05
2.04294e-05
4.16685e-05
1.58558e-05
5.33509e-05
6.30736e-05
6.3085e-05
2.6407e-05
6.31685e-05
6.31802e-05
6.04985e-05
7.04023e-05
6.03552e-05
7.04133e-05
6.91494e-05
6.91461e-05
6.05018e-05
7.04087e-05
6.03585e-05
7.04198e-05
1.37176e-05
1.37176e-05
1.37164e-05
1.38001e-05
1.38003e-05
1.38005e-05
1.38029e-05
4.29622e-05
5.37284e-05
1.6203e-05
2.1241e-05
4.26392e-05
5.39078e-05
1.62974e-05
6.91473e-05
6.91443e-05
4.29619e-05
1.62017e-05
5.3729e-05
2.12412e-05
4.26386e-05
1.62964e-05
5.39085e-05
6.33548e-05
6.33663e-05
2.74729e-05
6.34429e-05
6.34549e-05
6.08251e-05
7.04266e-05
6.06912e-05
7.04373e-05
6.91234e-05
6.91205e-05
6.08278e-05
7.04327e-05
6.06938e-05
7.04438e-05
1.38458e-05
1.38459e-05
1.38442e-05
1.39604e-05
1.39607e-05
1.39612e-05
1.39637e-05
4.38347e-05
5.42602e-05
1.66885e-05
2.20956e-05
4.35288e-05
5.44274e-05
1.67944e-05
6.91214e-05
6.91189e-05
4.38355e-05