/*--------------------------------*- C++ -*----------------------------------*\
| =========                 |                                                 |
| \\      /  F ield         | OpenFOAM: The Open Source CFD Toolbox           |
|  \\    /   O peration     | Version:  v2012                                 |
|   \\  /    A nd           | Website:  www.openfoam.com                      |
|    \\/     M anipulation  |                                                 |
\*---------------------------------------------------------------------------*/
FoamFile
{
    version     2.0;
    format      ascii;
    class       volScalarField;
    location    "200";
    object      nut;
}
// * * * * * * * * * * * * * * * * * * * * * * * * * * * * * * * * * * * * * //

dimensions      [0 2 -1 0 0 0 0];


internalField   nonuniform List<scalar> 
85864
(
0.000233972
0.000233078
0.000233081
0.000233398
0.000232521
0.000227699
0.000227696
0.000223701
0.000230488
0.000220171
0.000220163
0.00020891
0.000227754
0.000211495
0.00021149
0.000193622
0.000224372
0.000202482
0.000202477
0.000179587
0.000220479
0.000193619
0.000193611
0.00016729
0.000216224
0.000185137
0.000185128
0.000156589
0.000211736
0.000177111
0.000177103
0.000147241
0.000207121
0.000169578
0.000169573
0.000138923
0.00020246
0.000162513
0.000162508
0.000131622
0.000197807
0.00015586
0.000155854
0.000125114
0.000193196
0.000149562
0.000149556
0.000118999
0.000188608
0.000143578
0.000143571
0.000113231
0.000184077
0.000137856
0.000137847
0.000107906
0.000179631
0.000132355
0.000132346
0.000102982
0.000175262
0.000127065
0.000127057
9.83312e-05
0.000170956
0.000122006
0.000121998
9.41185e-05
0.000166701
0.00011721
0.0001172
9.03816e-05
0.000162497
0.000112704
0.000112693
8.74751e-05
0.000158319
0.000108547
0.000108536
8.51085e-05
0.000154162
0.000104789
0.000104776
8.33748e-05
0.000150033
0.000101457
0.000101444
8.2248e-05
0.000145944
9.86174e-05
9.86041e-05
8.18833e-05
0.000141914
9.62864e-05
9.62745e-05
8.18427e-05
0.000137972
9.44738e-05
9.44636e-05
8.2382e-05
0.000134149
9.31814e-05
9.31711e-05
8.354e-05
0.000130472
9.23983e-05
9.23866e-05
8.49529e-05
0.000126977
9.21031e-05
9.20922e-05
8.66192e-05
0.000123701
9.22658e-05
9.22559e-05
8.85691e-05
0.000120692
9.28521e-05
9.28456e-05
9.08395e-05
0.000117991
9.38301e-05
9.38187e-05
9.30067e-05
0.000115609
9.51516e-05
9.51362e-05
9.52346e-05
0.000113541
9.67682e-05
9.6754e-05
9.76985e-05
0.000111814
9.86371e-05
9.86258e-05
0.000100038
0.000110439
0.000100709
0.000100703
0.000102463
0.000109415
0.000102939
0.000102934
0.000104798
0.000108728
0.000105288
0.000105282
0.000107138
0.000108365
0.000107715
0.000107708
0.000109455
0.000108301
0.000110156
0.000110169
0.000111663
0.00010851
0.000112551
0.000112601
0.000113531
0.000108937
0.00011485
0.000114922
0.000115408
0.000109525
0.000117034
0.000117117
0.000117231
0.00011023
0.000119097
0.000119182
0.00011874
0.000111009
0.000121056
0.000121155
0.000120849
0.000111834
0.000122819
0.000122942
0.00012233
0.000112673
0.000124449
0.000124547
0.000123643
0.000113457
0.00012589
0.000125968
0.000124924
0.00023426
0.000234459
0.000234458
0.000234261
0.00023446
0.000234458
0.000234275
0.000234275
0.000234275
0.000234275
0.000234459
0.000234462
0.000234258
0.000234457
0.000234464
0.000234267
0.000233387
0.000226062
0.000233078
0.000233082
0.000229278
0.00022928
0.000233404
0.000226077
0.000233076
0.00023308
0.000229271
0.000229277
0.00023308
0.000229275
0.000229273
0.000233399
0.000226071
0.000233075
0.000229274
0.000229266
0.000226062
0.000223697
0.000212026
0.000227699
0.000227702
0.000222188
0.000222197
0.000223714
0.000212058
0.000227691
0.000227697
0.000222188
0.000222182
0.000227692
0.000222198
0.000222187
0.000223705
0.000212018
0.000227687
0.000222191
0.000222188
0.000212043
0.000208893
0.000196871
0.000220158
0.000220168
0.000213707
0.000213718
0.000208921
0.000196895
0.00022016
0.00022015
0.000213715
0.000213697
0.000220159
0.000213722
0.00021371
0.000208885
0.000196873
0.000220162
0.000213716
0.000213718
0.000196896
0.000193614
0.000182736
0.000211477
0.00021149
0.000204709
0.000204725
0.000193644
0.000182753
0.000211488
0.000211469
0.000204725
0.000204708
0.000211481
0.000204734
0.000204715
0.000193626
0.000182732
0.00021149
0.000204729
0.000204725
0.000182761
0.000179565
0.000170209
0.000202454
0.000202471
0.000195771
0.000195787
0.000179624
0.00017019
0.000202471
0.000202455
0.00019579
0.000195774
0.00020246
0.000195804
0.000195775
0.000179623
0.000170176
0.00020247
0.000195796
0.000195785
0.000170197
0.000167234
0.000159225
0.000193585
0.000193601
0.000187182
0.000187196
0.000167306
0.000159244
0.000193604
0.000193587
0.000187203
0.000187184
0.000193589
0.000187216
0.000187184
0.000167299
0.000159234
0.000193599
0.000187207
0.000187194
0.00015917
0.000156519
0.000149632
0.000185102
0.000185116
0.000179036
0.000179047
0.000156544
0.000149656
0.000185124
0.000185104
0.000179059
0.000179037
0.000185105
0.00017907
0.00017904
0.000156513
0.00014963
0.000185116
0.000179062
0.000179052
0.000149571
0.000147196
0.000141138
0.000177076
0.000177087
0.00017138
0.00017139
0.000147191
0.000141185
0.0001771
0.000177077
0.000171406
0.00017138
0.00017708
0.000171415
0.000171386
0.000147186
0.000141113
0.000177093
0.000171409
0.000171403
0.00014116
0.000138977
0.000133634
0.000169543
0.000169554
0.000164202
0.000164211
0.000138961
0.000133583
0.000169569
0.000169543
0.000164229
0.000164202
0.00016955
0.000164239
0.000164209
0.00013901
0.000133588
0.000169568
0.000164233
0.000164231
0.000133655
0.000131654
0.000126718
0.000162476
0.000162486
0.000157446
0.000157455
0.000131753
0.000126827
0.000162504
0.000162477
0.000157477
0.000157449
0.000162484
0.000157488
0.000157456
0.000131722
0.000126737
0.000162506
0.000157482
0.000157481
0.000126737
0.000125119
0.000120426
0.000155819
0.000155828
0.000151062
0.00015107
0.000125003
0.000120543
0.000155849
0.000155821
0.000151095
0.000151065
0.000155828
0.000151106
0.000151072
0.000125104
0.000120468
0.000155854
0.0001511
0.0001511
0.000120431
0.000118979
0.000114511
0.000149518
0.000149525
0.000145
0.000145008
0.000118923
0.000114493
0.000149551
0.00014952
0.000145036
0.000145003
0.000149526
0.000145047
0.000145009
0.000118947
0.000114432
0.000149556
0.000145039
0.00014504
0.000114421
0.000113157
0.000108825
0.000143533
0.000143539
0.000139217
0.000139224
0.000113164
0.00010881
0.000143567
0.000143534
0.000139253
0.000139218
0.000143541
0.000139265
0.000139225
0.00011322
0.000108803
0.000143571
0.000139256
0.000139257
0.000108792
0.000107919
0.000103624
0.000137811
0.000137815
0.000133666
0.000133673
0.000107919
0.000103628
0.000137845
0.00013781
0.0001337
0.000133665
0.000137816
0.000133714
0.000133672
0.000107905
0.000103627
0.000137848
0.000133705
0.000133703
0.000103618
0.000102982
9.90065e-05
0.000132309
0.000132313
0.000128323
0.000128328
0.000102994
9.9026e-05
0.000132341
0.000132306
0.000128354
0.00012832
0.000132314
0.00012837
0.000128328
0.000102987
9.90057e-05
0.000132345
0.000128362
0.00012836
9.90094e-05
9.83251e-05
9.47963e-05
0.000127018
0.000127021
0.000123207
0.00012321
9.83415e-05
9.48163e-05
0.000127049
0.000127015
0.000123238
0.000123202
0.000127024
0.000123253
0.000123213
9.83416e-05
9.48068e-05
0.000127056
0.000123247
0.000123242
9.48049e-05
9.41261e-05
9.118e-05
0.000121959
0.000121963
0.000118314
0.000118321
9.41171e-05
9.1265e-05
0.000121988
0.000121955
0.000118344
0.000118313
0.000121965
0.000118362
0.000118322
9.41255e-05
9.1173e-05
0.000121995
0.000118353
0.000118348
9.13472e-05
9.05134e-05
8.81396e-05
0.000117162
0.000117166
0.000113737
0.000113742
9.04823e-05
8.82244e-05
0.000117191
0.000117158
0.000113765
0.000113731
0.000117168
0.000113785
0.000113743
9.05062e-05
8.81198e-05
0.000117199
0.000113775
0.000113769
8.82673e-05
8.75777e-05
8.5764e-05
0.000112656
0.000112662
0.000109479
0.000109487
8.75251e-05
8.57672e-05
0.000112684
0.000112652
0.000109508
0.000109476
0.000112663
0.00010953
0.000109487
8.75677e-05
8.56591e-05
0.000112693
0.000109519
0.000109518
8.57884e-05
8.51088e-05
8.39078e-05
0.000108499
0.000108508
0.000105611
0.000105615
8.51256e-05
8.39427e-05
0.000108525
0.000108498
0.000105637
0.000105608
0.00010851
0.00010566
0.000105618
8.51853e-05
8.40307e-05
0.00010854
0.000105649
0.000105648
8.39536e-05
8.33402e-05
8.27265e-05
0.000104744
0.000104749
0.000102198
0.000102198
8.33601e-05
8.28545e-05
0.000104767
0.000104743
0.00010222
0.00010219
0.000104755
0.000102235
0.000102206
8.33043e-05
8.28624e-05
0.000104783
0.00010222
0.00010223
8.28924e-05
8.2271e-05
8.22682e-05
0.000101406
0.000101407
9.92326e-05
9.92299e-05
8.22289e-05
8.20538e-05
0.000101427
0.000101401
9.92519e-05
9.92239e-05
0.000101417
9.92654e-05
9.92399e-05
8.21931e-05
8.22627e-05
0.000101442
9.92505e-05
9.92656e-05
8.20946e-05
8.17388e-05
8.21092e-05
9.85661e-05
9.85646e-05
9.6769e-05
9.67656e-05
8.1899e-05
8.19407e-05
9.85843e-05
9.85601e-05
9.67848e-05
9.67621e-05
9.85771e-05
9.67953e-05
9.67759e-05
8.1747e-05
8.19993e-05
9.86013e-05
9.67831e-05
9.67978e-05
8.20189e-05
8.18085e-05
8.24428e-05
9.62327e-05
9.62311e-05
9.48218e-05
9.48162e-05
8.19207e-05
8.27128e-05
9.62479e-05
9.62276e-05
9.48354e-05
9.48119e-05
9.62436e-05
9.484e-05
9.4828e-05
8.19917e-05
8.22911e-05
9.62654e-05
9.48281e-05
9.48498e-05
8.25321e-05
8.24958e-05
8.33448e-05
9.44202e-05
9.44182e-05
9.33935e-05
9.33881e-05
8.22901e-05
8.34722e-05
9.44336e-05
9.44127e-05
9.34046e-05
9.33822e-05
9.44305e-05
9.34009e-05
9.34004e-05
8.25643e-05
8.31709e-05
9.44521e-05
9.33898e-05
9.34187e-05
8.33322e-05
8.34768e-05
8.46679e-05
9.31288e-05
9.31231e-05
9.24759e-05
9.24677e-05
8.33238e-05
8.47771e-05
9.31388e-05
9.31172e-05
9.24839e-05
9.24613e-05
9.31385e-05
9.24706e-05
9.24821e-05
8.35795e-05
8.48412e-05
9.31566e-05
9.24601e-05
9.24977e-05
8.44784e-05
8.48144e-05
8.61338e-05
9.23449e-05
9.23369e-05
9.20475e-05
9.20388e-05
8.47822e-05
8.61861e-05
9.23517e-05
9.23285e-05
9.2053e-05
9.20311e-05
9.23526e-05
9.20328e-05
9.20518e-05
8.45978e-05
8.64637e-05
9.23688e-05
9.20229e-05
9.2067e-05
8.62626e-05
8.6573e-05
8.83622e-05
9.20459e-05
9.20361e-05
9.20837e-05
9.20745e-05
8.66039e-05
8.79995e-05
9.20508e-05
9.20275e-05
9.20887e-05
9.20692e-05
9.20534e-05
9.20595e-05
9.20879e-05
8.63877e-05
8.83285e-05
9.20661e-05
9.20526e-05
9.20992e-05
8.80044e-05
8.83716e-05
9.02179e-05
9.22031e-05
9.21944e-05
9.25527e-05
9.25428e-05
8.85917e-05
9.03637e-05
9.22076e-05
9.21877e-05
9.2556e-05
9.25391e-05
9.22102e-05
9.25192e-05
9.25563e-05
8.83625e-05
9.04436e-05
9.22221e-05
9.25137e-05
9.25673e-05
9.00949e-05
9.06929e-05
9.24132e-05
9.27861e-05
9.27767e-05
9.3419e-05
9.34078e-05
9.06067e-05
9.26086e-05
9.27894e-05
9.27722e-05
9.34208e-05
9.34056e-05
9.2791e-05
9.33792e-05
9.3421e-05
9.06155e-05
9.26772e-05
9.28024e-05
9.3372e-05
9.34294e-05
9.248e-05
9.30875e-05
9.48944e-05
9.37581e-05
9.37474e-05
9.46407e-05
9.46297e-05
9.2844e-05
9.50162e-05
9.37592e-05
9.37424e-05
9.46413e-05
9.46254e-05
9.37596e-05
9.4599e-05
9.46431e-05
9.27696e-05
9.50792e-05
9.37689e-05
9.45865e-05
9.46504e-05
9.50855e-05
9.53423e-05
9.74247e-05
9.50707e-05
9.50595e-05
9.61734e-05
9.61594e-05
9.51455e-05
9.72167e-05
9.50711e-05
9.5054e-05
9.61745e-05
9.61595e-05
9.50724e-05
9.6124e-05
9.61752e-05
9.50741e-05
9.74801e-05
9.50815e-05
9.61119e-05
9.61824e-05
9.73298e-05
9.75106e-05
9.98277e-05
9.66803e-05
9.66674e-05
9.79693e-05
9.79581e-05
9.76528e-05
9.9817e-05
9.66816e-05
9.66654e-05
9.79725e-05
9.79562e-05
9.66819e-05
9.79151e-05
9.79755e-05
9.74261e-05
9.97095e-05
9.66898e-05
9.79035e-05
9.79812e-05
9.9851e-05
9.98206e-05
0.000102066
9.85415e-05
9.85283e-05
9.99814e-05
9.99688e-05
0.000100047
0.000102136
9.85441e-05
9.85249e-05
9.99851e-05
9.99678e-05
9.85457e-05
9.99193e-05
9.99895e-05
9.99882e-05
0.0001021
9.85522e-05
9.99145e-05
9.99928e-05
0.000102116
0.000102523
0.00010451
0.000100606
0.00010059
0.000102162
0.000102147
0.000102483
0.000104645
0.000100609
0.000100586
0.000102168
0.000102145
0.000100609
0.000102092
0.000102168
0.000102496
0.000104618
0.000100614
0.00010209
0.000102172
0.00010467
0.000104847
0.000106866
0.000102826
0.000102807
0.000104468
0.000104452
0.000104726
0.000107078
0.000102831
0.000102805
0.000104475
0.000104451
0.000102825
0.000104393
0.000104472
0.000104722
0.000106829
0.00010283
0.00010439
0.000104473
0.000107128
0.000107241
0.000109201
0.00010516
0.000105137
0.000106858
0.000106836
0.000107083
0.000109292
0.000105166
0.000105139
0.000106866
0.00010684
0.00010516
0.000106781
0.000106861
0.000107163
0.000109386
0.00010516
0.000106778
0.000106859
0.000109427
0.000109492
0.000111362
0.000107566
0.000107539
0.00010928
0.000109254
0.000109501
0.000111248
0.000107573
0.000107545
0.000109295
0.000109268
0.000107567
0.000109204
0.000109292
0.00010943
0.000111569
0.000107561
0.00010921
0.000109283
0.000111319
0.000111722
0.000113541
0.000109993
0.000109952
0.000111695
0.000111633
0.00011159
0.00011311
0.000110004
0.000109976
0.000111709
0.000111681
0.000109998
0.000111593
0.000111685
0.000111763
0.000113393
0.000109983
0.000111636
0.000111658
0.000113097
0.00011375
0.000115169
0.000112387
0.000112314
0.00011401
0.000113928
0.000113494
0.000115098
0.0001124
0.000112369
0.000114033
0.000113996
0.000112371
0.000113904
0.000113985
0.000113867
0.000115258
0.000112335
0.000113977
0.00011394
0.000115117
0.000115559
0.000117007
0.000114669
0.000114582
0.000116209
0.00011611
0.000115412
0.000116924
0.000114693
0.000114654
0.000116241
0.000116206
0.000114638
0.000116121
0.000116176
0.000115704
0.000116992
0.000114592
0.00011621
0.000116139
0.000116932
0.000117199
0.000118831
0.000116831
0.000116727
0.000118323
0.000118181
0.000117228
0.00011839
0.000116867
0.000116825
0.000118365
0.00011828
0.000116794
0.00011823
0.000118252
0.000117339
0.000118535
0.000116754
0.000118315
0.000118214
0.000118444
0.000119213
0.000120772
0.000118922
0.000118766
0.000120329
0.000120158
0.000118757
0.000120477
0.000118962
0.000118862
0.000120373
0.000120268
0.000118837
0.000120254
0.000120246
0.000118785
0.000120575
0.00011879
0.000120347
0.000120188
0.000120523
0.000121061
0.000122201
0.000120872
0.000120692
0.000122156
0.00012196
0.000120771
0.000121931
0.000120918
0.000120811
0.000122214
0.000122097
0.000120787
0.000122097
0.000122073
0.000120902
0.000122111
0.000120733
0.000122218
0.000122035
0.00012207
0.000122463
0.000123538
0.000122646
0.000122437
0.000123848
0.000123629
0.000122199
0.000123386
0.000122707
0.00012258
0.000123903
0.000123743
0.00012256
0.000123806
0.000123747
0.000122382
0.000123501
0.000122521
0.000123924
0.000123727
0.000123409
0.000123886
0.000124952
0.000124286
0.000124062
0.000125402
0.000125185
0.000123757
0.000124848
0.000124336
0.000124164
0.000125448
0.000125237
0.000124173
0.000125371
0.000125269
0.000123818
0.000124763
0.000124161
0.00012545
0.000125271
0.000124688
0.000125258
0.000126131
0.000125762
0.000125539
0.000126624
0.000126418
0.000125149
0.000125986
0.000125797
0.000125582
0.000126648
0.000126457
0.00012562
0.00012651
0.000126476
0.000125064
0.000125962
0.000125625
0.000126587
0.000126496
0.000125844
0.00023473
0.000234747
0.000234729
0.000234729
0.000235097
0.000234799
0.000234736
0.000234726
0.0002351
0.000234799
0.000234726
0.000234823
0.000234871
0.000233689
0.000233694
0.000104734
3.85006e-05
0.000128425
3.97893e-05
2.19094e-05
2.2872e-05
0.000104717
3.84796e-05
0.000128339
3.97831e-05
0.000233972
0.000233972
0.000233972
0.000232928
0.000232928
0.000232928
0.000232928
0.00020611
9.26502e-05
0.000233967
0.000231955
0.000222368
8.61652e-05
0.000233608
2.19714e-05
2.28649e-05
0.000206076
0.000233968
9.27199e-05
0.000231959
0.000222385
0.000233607
8.63513e-05
4.76261e-05
4.7261e-05
0.000231271
4.37191e-05
4.34964e-05
7.26167e-05
4.24142e-05
8.13518e-05
4.37621e-05
2.47996e-05
2.54813e-05
7.26394e-05
4.24077e-05
8.13775e-05
4.3755e-05
0.000232522
0.000232521
0.000232521
0.000231061
0.000231063
0.000231061
0.000231061
0.00016737
7.88102e-05
0.000232061
0.00022598
0.00018005
7.39619e-05
0.000231349
2.47975e-05
2.54795e-05
0.000167322
0.000232059
7.87922e-05
0.000225976
0.000180019
0.000231346
7.3882e-05
3.90955e-05
3.9047e-05
0.000219416
3.65354e-05
3.65183e-05
5.6341e-05
4.55464e-05
6.12348e-05
4.64226e-05
2.60198e-05
2.61208e-05
5.63724e-05
4.55413e-05
6.12402e-05
4.64176e-05
0.00023049
0.000230488
0.000230488
0.000228502
0.000228504
0.0002285
0.000228502
0.00013856
6.69571e-05
0.000228594
0.000218073
0.00014802
6.3145e-05
0.00022748
2.60167e-05
2.61179e-05
0.000138527
0.000228592
6.70081e-05
0.000218065
0.000148042
0.000227477
6.30752e-05
3.32688e-05
3.32658e-05
0.000204432
3.20439e-05
3.20361e-05
4.70408e-05
4.75023e-05
4.99659e-05
4.80143e-05
2.6042e-05
2.59397e-05
4.70543e-05
4.74972e-05
5.00052e-05
4.80103e-05
0.000227756
0.000227752
0.000227754
0.000225271
0.000225275
0.00022527
0.000225272
0.000117527
5.78916e-05
0.000223644
0.000209248
0.000124596
5.51506e-05
0.000222228
2.60474e-05
2.59372e-05
0.000117528
0.000223645
5.79041e-05
0.000209242
0.000124635
0.000222227
5.51428e-05
3.06947e-05
3.06793e-05
0.000189641
3.03826e-05
3.03514e-05
4.14296e-05
4.85826e-05
4.33091e-05
4.88447e-05
2.56721e-05
2.55204e-05
4.14931e-05
4.85786e-05
4.32912e-05
4.88414e-05
0.000224376
0.000224372
0.000224372
0.000221492
0.000221497
0.000221492
0.000221491
0.000102131
5.16364e-05
0.000217678
0.000200238
0.00010742
4.97981e-05
0.000216086
2.56693e-05
2.55181e-05
0.000102128
0.000217678
5.16535e-05
0.000200232
0.000107403
0.000216083
4.97948e-05
3.02696e-05
3.02654e-05
0.000176283
3.04704e-05
3.04175e-05
3.81696e-05
4.90908e-05
3.92724e-05
4.91975e-05
2.52351e-05
2.5095e-05
3.81976e-05
4.90878e-05
3.92519e-05
4.91947e-05
0.000220485
0.00022048
0.000220478
0.000217314
0.000217321
0.000217315
0.000217312
9.05195e-05
4.75346e-05
0.00021117
0.000191456
9.45368e-05
4.63874e-05
0.000209503
2.52324e-05
2.5093e-05
9.05166e-05
0.000211167
4.75213e-05
0.000191448
9.45338e-05
0.000209497
4.63812e-05
3.11068e-05
3.11055e-05
0.000164475
3.15734e-05
3.15444e-05
3.63903e-05
4.92668e-05
3.6941e-05
4.92941e-05
2.48469e-05
2.47342e-05
3.63974e-05
4.92626e-05
3.695e-05
4.9289e-05
0.000216231
0.000216225
0.000216222
0.000212874
0.000212881
0.000212875
0.000212872
8.16224e-05
4.49892e-05
0.000204477
0.000183084
8.47719e-05
4.43689e-05
0.000202806
2.48446e-05
2.4732e-05
8.16255e-05
0.000204474
4.49955e-05
0.000183075
8.47674e-05
0.000202801
4.43697e-05
3.26696e-05
3.26739e-05
0.000154209
3.3331e-05
3.3294e-05
3.56915e-05
4.92837e-05
3.58207e-05
4.92814e-05
2.45346e-05
2.44486e-05
3.56973e-05
4.92782e-05
3.58252e-05
4.92755e-05
0.000211743
0.000211737
0.000211734
0.000208282
0.000208289
0.000208283
0.000208281
7.46968e-05
4.36304e-05
0.000197839
0.000175181
7.72244e-05
4.33675e-05
0.000196206
2.45327e-05
2.44446e-05
7.47035e-05
0.000197837
4.36416e-05
0.000175173
7.72289e-05
0.000196202
4.33399e-05
3.46965e-05
3.47138e-05
0.000145228
3.54762e-05
3.54267e-05
3.58174e-05
4.92441e-05
3.56404e-05
4.92431e-05
2.42947e-05
2.42272e-05
3.58015e-05
4.92378e-05
3.56456e-05
4.92369e-05
0.000207128
0.000207122
0.000207121
0.000203626
0.000203633
0.000203627
0.000203628
6.92637e-05
4.3101e-05
0.00019139
0.00016777
7.1295e-05
4.31793e-05
0.000189811
2.42933e-05
2.42297e-05
6.9266e-05
0.00019139
4.31548e-05
0.000167765
7.12984e-05
0.000189808
4.30692e-05
3.70273e-05
3.70224e-05
0.000137299
3.78303e-05
3.78203e-05
3.66018e-05
4.9219e-05
3.62133e-05
4.92172e-05
2.41146e-05
2.40718e-05
3.66019e-05
4.92132e-05
3.62059e-05
4.92129e-05
0.000202467
0.000202461
0.000202462
0.000198967
0.000198974
0.000198968
0.00019897
6.49308e-05
4.32462e-05
0.000185157
0.000160814
6.65833e-05
4.35392e-05
0.000183637
2.41122e-05
2.40698e-05
6.49227e-05
0.000185158
4.33194e-05
0.000160808
6.65671e-05
0.000183634
4.34153e-05
3.94856e-05
3.94937e-05
0.000130154
4.03375e-05
4.03034e-05
3.80098e-05
4.92169e-05
3.74265e-05
4.92239e-05
2.39844e-05
2.39567e-05
3.79998e-05
4.92126e-05
3.74268e-05
4.92202e-05
0.000197814
0.000197808
0.00019781
0.000194343
0.000194349
0.000194343
0.000194346
6.15231e-05
4.39315e-05
0.000179181
0.000154254
6.27798e-05
4.43669e-05
0.000177732
2.39822e-05
2.39549e-05
6.15157e-05
0.000179181
4.40131e-05
0.000154248
6.27897e-05
0.000177727
4.42812e-05
4.20156e-05
4.20141e-05
0.000123487
4.28295e-05
4.28385e-05
4.00084e-05
4.92302e-05
3.92224e-05
4.92537e-05
2.38922e-05
2.38757e-05
3.99823e-05
4.92269e-05
3.92294e-05
4.92509e-05
0.000193203
0.000193197
0.000193199
0.000189756
0.000189762
0.000189756
0.000189758
5.89994e-05
4.50905e-05
0.000173483
0.000148037
5.98213e-05
4.56332e-05
0.000172099
2.38965e-05
2.38667e-05
5.89859e-05
0.000173484
4.51152e-05
0.00014803
5.98459e-05
0.000172095
4.5604e-05
4.45038e-05
4.45013e-05
0.0001174
4.52948e-05
4.53018e-05
4.24824e-05
4.92653e-05
4.15554e-05
4.9291e-05
2.38277e-05
2.38177e-05
4.24845e-05
4.92631e-05
4.15455e-05
4.92896e-05
0.000188614
0.000188608
0.00018861
0.000185202
0.000185209
0.000185202
0.000185204
5.71805e-05
4.66291e-05
0.000168033
0.000142125
5.76649e-05
4.71854e-05
0.000166707
2.38331e-05
2.38094e-05
5.71423e-05
0.000168033
4.66231e-05
0.000142118
5.76677e-05
0.000166702
4.71637e-05
4.68787e-05
4.68936e-05
0.000111548
4.7659e-05
4.76444e-05
4.53874e-05
4.93064e-05
4.43433e-05
4.93268e-05
2.37898e-05
2.37712e-05
4.53929e-05
4.93135e-05
4.43622e-05
4.93232e-05
0.000184083
0.000184077
0.000184078
0.000180736
0.000180744
0.000180737
0.000180737
5.60159e-05
4.84467e-05
0.000162796
0.000136463
5.6232e-05
4.9036e-05
0.000161518
2.37881e-05
2.37689e-05
5.59466e-05
0.000162796
4.84583e-05
0.000136455
5.63074e-05
0.000161514
4.90958e-05
4.91299e-05
4.91179e-05
0.000106138
4.98292e-05
4.98433e-05
4.86293e-05
4.93536e-05
4.74832e-05
4.93627e-05
2.37572e-05
2.37421e-05
4.86229e-05
4.93533e-05
4.74977e-05
4.93613e-05
0.000179639
0.000179632
0.000179633
0.000176349
0.000176357
0.00017635
0.000176349
5.54788e-05
5.04918e-05
0.000157739
0.000131015
5.54979e-05
5.11212e-05
0.000156503
2.37551e-05
2.37405e-05
5.54047e-05
0.00015774
5.0418e-05
0.000131006
5.55728e-05
0.0001565
5.1194e-05
5.11967e-05
5.11821e-05
0.000101256
5.18348e-05
5.1851e-05
5.20435e-05
4.93902e-05
5.08615e-05
4.93984e-05
2.373e-05
2.37205e-05
5.20621e-05
4.93888e-05
5.0871e-05
4.93968e-05
0.00017527
0.000175263
0.000175262
0.000172028
0.000172036
0.000172029
0.000172028
5.55708e-05
5.26393e-05
0.000152833
0.000125782
5.54356e-05
5.33795e-05
0.000151633
2.37279e-05
2.37188e-05
5.55028e-05
0.000152836
5.26137e-05
0.000125773
5.54631e-05
0.000151632
5.33551e-05
5.30804e-05
5.30759e-05
9.68566e-05
5.36533e-05
5.36529e-05
5.55241e-05
4.94233e-05
5.43384e-05
4.94309e-05
2.37078e-05
2.37018e-05
5.55813e-05
4.94142e-05
5.42969e-05
4.94343e-05
0.000170964
0.000170957
0.000170956
0.00016776
0.000167768
0.00016776
0.000167759
5.6313e-05
5.48723e-05
0.000148076
0.000120786
5.59292e-05
5.56638e-05
0.000146909
2.3706e-05
2.36998e-05
5.62571e-05
0.00014808
5.48975e-05
0.000120776
5.60006e-05
0.00014691
5.55988e-05
5.47811e-05
5.47662e-05
9.30083e-05
5.53176e-05
5.53116e-05
5.89743e-05
4.94542e-05
5.7719e-05
4.94607e-05
2.36893e-05
2.36847e-05
5.90042e-05
4.94454e-05
5.76961e-05
4.94632e-05
0.000166709
0.000166702
0.000166701
0.000163543
0.000163551
0.000163543
0.000163542
5.76019e-05
5.71238e-05
0.000143434
0.000116042
5.70412e-05
5.79543e-05
0.000142293
2.36875e-05
2.36825e-05
5.75511e-05
0.000143438
5.71824e-05
0.00011603
5.70853e-05
0.000142294
5.78742e-05
5.63102e-05
5.631e-05
8.97513e-05
5.67772e-05
5.6778e-05
6.21727e-05
4.94827e-05
6.09677e-05
4.94891e-05
2.3673e-05
2.36681e-05
6.21895e-05
4.94741e-05
6.09652e-05
4.9491e-05
0.000162506
0.000162498
0.000162497
0.000159362
0.00015937
0.000159361
0.000159361
5.94259e-05
5.94138e-05
0.00013889
0.000111612
5.86997e-05
6.01396e-05
0.000137779
2.36709e-05
2.36663e-05
5.93607e-05
0.000138894
5.94281e-05
0.000111601
5.87551e-05
0.000137778
6.01353e-05
5.76879e-05
5.76801e-05
8.69424e-05
5.81341e-05
5.81329e-05
6.51018e-05
4.95092e-05
6.39775e-05
4.95188e-05
2.36575e-05
2.36533e-05
6.51101e-05
4.95014e-05
6.39816e-05
4.95171e-05
0.000158328
0.00015832
0.000158319
0.0001552
0.000155207
0.000155198
0.0001552
6.1625e-05
6.16271e-05
0.000134452
0.000107543
6.07951e-05
6.23429e-05
0.000133372
2.36555e-05
2.36513e-05
6.15887e-05
0.000134452
6.16078e-05
0.000107533
6.08364e-05
0.000133371
6.23073e-05
5.89327e-05
5.89316e-05
8.47979e-05
5.93441e-05
5.93439e-05
6.76977e-05
4.95286e-05
6.6707e-05
4.95437e-05
2.36433e-05
2.36396e-05
6.773e-05
4.95266e-05
6.66854e-05
4.95417e-05
0.00015417
0.000154161
0.000154162
0.000151063
0.000151069
0.000151058
0.000151064
6.41855e-05
6.37009e-05
0.000130133
0.000103916
6.32843e-05
6.44081e-05
0.000129093
2.3641e-05
2.36373e-05
6.41494e-05
0.000130135
6.37237e-05
0.000103903
6.3305e-05
0.000129093
6.43841e-05
6.00658e-05
6.0068e-05
8.34177e-05
6.04485e-05
6.04464e-05
7.00022e-05
4.95516e-05
6.9102e-05
4.95656e-05
2.363e-05
2.36266e-05
7.00171e-05
4.95494e-05
6.90954e-05
4.95639e-05
0.000150043
0.000150033
0.000150034
0.000146959
0.000146964
0.000146952
0.000146961
6.69902e-05
6.5739e-05
0.000125978
0.00010069
6.59963e-05
6.63475e-05
0.000124949
2.36276e-05
2.36242e-05
6.69582e-05
0.000125983
6.57354e-05
0.000100673
6.60278e-05
0.000124942
6.63563e-05
6.11016e-05
6.11037e-05
8.22191e-05
6.14534e-05
6.1438e-05
7.19925e-05
4.95723e-05
7.12087e-05
4.9585e-05
2.36176e-05
2.36146e-05
7.20237e-05
4.95703e-05
7.12053e-05
4.95837e-05
0.000145955
0.000145944
0.000145945
0.000142908
0.000142911
0.0001429
0.000142911
6.99073e-05
6.76422e-05
0.000122007
9.79661e-05
6.89179e-05
6.82213e-05
0.000121024
2.36152e-05
2.36121e-05
6.98876e-05
0.000122011
6.76412e-05
9.7952e-05
6.8944e-05
0.000121019
6.82493e-05
6.20469e-05
6.20671e-05
8.2013e-05
6.23706e-05
6.2365e-05
7.37395e-05
4.95953e-05
7.30485e-05
4.95981e-05
2.36062e-05
2.36035e-05
7.37587e-05
4.95888e-05
7.30584e-05
4.9601e-05
0.000141928
0.000141916
0.000141917
0.000138934
0.000138936
0.000138924
0.000138938
7.29028e-05
6.94405e-05
0.000118275
9.57519e-05
7.19064e-05
6.99911e-05
0.000117359
2.36037e-05
2.36009e-05
7.28793e-05
0.000118282
6.94127e-05
9.57395e-05
7.19152e-05
0.000117355
7.00231e-05
6.2921e-05
6.29302e-05
8.23459e-05
6.32226e-05
6.32126e-05
7.52806e-05
4.96104e-05
7.46598e-05
4.96148e-05
2.35958e-05
2.35934e-05
7.53081e-05
4.96052e-05
7.46621e-05
4.96155e-05
0.000137988
0.000137976
0.000137976
0.000135067
0.000135074
0.000135061
0.000135073
7.58915e-05
7.11389e-05
0.000114837
9.4055e-05
7.48794e-05
7.16547e-05
0.000114028
2.35933e-05
2.35909e-05
7.58557e-05
0.000114844
7.11285e-05
9.40434e-05
7.48898e-05
0.000114025
7.16627e-05
6.37293e-05
6.37326e-05
8.28037e-05
6.39995e-05
6.39915e-05
7.66372e-05
4.96243e-05
7.60946e-05
4.96272e-05
2.35863e-05
2.35842e-05
7.66559e-05
4.96204e-05
7.6094e-05
4.9628e-05
0.000134157
0.000134144
0.000134154
0.000131339
0.000131349
0.000131337
0.000131348
7.87939e-05
7.27388e-05
0.000111754
9.28723e-05
7.78186e-05
7.32245e-05
0.00011096
2.35838e-05
2.35817e-05
7.8822e-05
0.000111754
7.27425e-05
9.28616e-05
7.78159e-05
0.000110957
7.32282e-05
6.44707e-05
6.44726e-05
8.37842e-05
6.47159e-05
6.47161e-05
7.78588e-05
4.96363e-05
7.73626e-05
4.96386e-05
2.35778e-05
2.3576e-05
7.78892e-05
4.96315e-05
7.73573e-05
4.96397e-05
0.000130477
0.000130464
0.000130477
0.000127792
0.000127804
0.000127791
0.000127802
8.15944e-05
7.42388e-05
0.000109032
9.21909e-05
8.06975e-05
7.46992e-05
0.000108296
2.35752e-05
2.35735e-05
8.16207e-05
0.000109038
7.42333e-05
9.21799e-05
8.06757e-05
0.000108295
7.47401e-05
6.51571e-05
6.51545e-05
8.52879e-05
6.53875e-05
6.5385e-05
7.89648e-05
4.96464e-05
7.85056e-05
4.96499e-05
2.35701e-05
2.35686e-05
7.89914e-05
4.96429e-05
7.85e-05
4.96497e-05
0.00012698
0.000126966
0.000126983
0.00012446
0.000124476
0.000124463
0.000124471
8.43178e-05
7.56559e-05
0.000106716
9.19897e-05
8.34571e-05
7.60906e-05
0.000106051
2.35676e-05
2.35662e-05
8.43144e-05
0.000106724
7.56331e-05
9.19812e-05
8.34501e-05
0.000106049
7.61256e-05
6.57909e-05
6.57905e-05
8.7169e-05
6.6004e-05
6.60035e-05
7.99756e-05
4.96548e-05
7.95455e-05
4.96605e-05
2.35634e-05
2.35622e-05
7.99888e-05
4.96532e-05
7.95438e-05
4.96588e-05
0.000123699
0.000123685
0.000123707
0.000121389
0.000121409
0.000121396
0.000121399
8.69315e-05
7.69766e-05
0.00010483
9.22374e-05
8.60711e-05
7.74377e-05
0.00010424
2.35609e-05
2.35598e-05
8.6917e-05
0.000104838
7.69983e-05
9.22312e-05
8.60846e-05
0.000104236
7.74088e-05
6.6386e-05
6.63833e-05
8.90452e-05
6.65808e-05
6.65812e-05
8.0901e-05
4.96647e-05
8.05042e-05
4.96695e-05
2.35575e-05
2.35566e-05
8.0912e-05
4.96635e-05
8.05015e-05
4.96676e-05
0.000120685
0.000120672
0.000120697
0.000118548
0.000118571
0.000118558
0.000118558
8.93913e-05
7.82262e-05
0.00010339
9.29005e-05
8.85896e-05
7.8651e-05
0.000102875
2.35549e-05
2.35541e-05
8.94089e-05
0.000103394
7.8248e-05
9.28952e-05
8.85736e-05
0.000102872
7.86784e-05
6.69393e-05
6.69375e-05
9.12289e-05
6.71215e-05
6.71238e-05
8.17559e-05
4.96741e-05
8.13833e-05
4.96785e-05
2.35524e-05
2.35518e-05
8.17643e-05
4.96732e-05
8.13873e-05
4.96766e-05
0.00011798
0.000117967
0.000117993
0.000116012
0.000116036
0.000116022
0.000116029
9.17605e-05
7.94368e-05
0.000102397
9.3947e-05
9.09338e-05
7.98102e-05
0.000101959
2.35498e-05
2.35492e-05
9.17596e-05
0.000102396
7.94131e-05
9.39369e-05
9.09244e-05
0.000101949
7.98303e-05
6.74571e-05
6.74569e-05
9.35735e-05
6.76296e-05
6.76299e-05
8.25455e-05
4.96833e-05
8.21956e-05
4.96876e-05
2.35479e-05
2.35475e-05
8.25527e-05
4.96818e-05
8.22047e-05
4.96861e-05
0.000115595
0.000115582
0.000115585
0.00011381
0.000113832
0.000113818
0.000113851
9.39754e-05
8.0541e-05
0.00010184
9.53238e-05
9.31562e-05
8.09094e-05
0.000101477
2.35453e-05
2.35449e-05
9.39533e-05
0.000101833
8.05291e-05
9.53115e-05
9.31615e-05
0.000101463
8.09196e-05
6.79433e-05
6.79435e-05
9.61273e-05
6.81043e-05
6.81053e-05
8.32846e-05
4.96925e-05
8.29559e-05
4.96966e-05
2.35439e-05
2.35436e-05
8.32898e-05
4.96906e-05
8.29639e-05
4.96954e-05
0.000113523
0.00011351
0.000113505
0.000111966
0.000111994
0.000111981
0.000112016
9.60349e-05
8.15865e-05
0.000101701
9.69877e-05
9.52525e-05
8.19401e-05
0.000101405
2.35413e-05
2.3541e-05
9.6039e-05
0.000101691
8.1594e-05