/*--------------------------------*- C++ -*----------------------------------*\
| =========                 |                                                 |
| \\      /  F ield         | OpenFOAM: The Open Source CFD Toolbox           |
|  \\    /   O peration     | Version:  v2012                                 |
|   \\  /    A nd           | Website:  www.openfoam.com                      |
|    \\/     M anipulation  |                                                 |
\*---------------------------------------------------------------------------*/
FoamFile
{
    version     2.0;
    format      ascii;
    class       surfaceScalarField;
    location    "200";
    object      phi;
}
// * * * * * * * * * * * * * * * * * * * * * * * * * * * * * * * * * * * * * //

dimensions      [0 3 -1 0 0 0 0];
oriented        oriented;


internalField   nonuniform List<scalar> 
248808
(
-0.00104218
-1.46333e-05
-1.45297e-05
9.38315e-06
9.21376e-06
0.00105274
-0.000261491
-5.68475e-06
1.45105e-05
6.89105e-06
0.00105926
-4.59373e-06
-1.59783e-06
-2.12119e-06
-2.49038e-06
-6.62455e-06
-7.11538e-06
-2.98547e-06
-0.000263334
-0.000259762
-0.000262858
-0.000261468
-5.68985e-06
1.45392e-05
6.98023e-06
0.00105905
-4.59935e-06
-1.6081e-06
-2.12907e-06
-2.49471e-06
-6.61828e-06
-7.11125e-06
-2.98741e-06
-0.000259734
-0.000263305
-0.000262821
-0.000260564
5.66027e-06
5.70045e-06
-4.95424e-06
-4.94796e-06
0.000259106
-1.65103e-06
-1.65303e-06
-0.0010608
9.32747e-07
9.33704e-07
0.00106224
-0.00106275
-1.61846e-06
1.64687e-06
8.29771e-07
0.00106394
-6.8003e-07
8.35215e-07
-9.8972e-08
4.23805e-07
-8.50221e-07
-1.43135e-06
-2.54476e-07
-0.00106243
-1.61337e-06
1.65784e-06
8.25185e-07
0.00106362
-6.79939e-07
8.29835e-07
-9.89374e-08
4.20955e-07
-8.5277e-07
-1.43123e-06
-2.52055e-07
-0.000261567
1.6508e-06
1.61372e-06
-6.98319e-07
-7.01224e-07
0.000259702
-1.37513e-06
-1.3769e-06
-0.00106636
6.96518e-07
6.97164e-07
0.00106772
-0.00106788
-1.57248e-06
1.38102e-06
6.90411e-07
0.00106923
-6.57126e-07
8.78607e-07
-7.30931e-08
4.61699e-07
-8.37464e-07
-1.39906e-06
-2.21467e-07
-0.00106756
-1.56721e-06
1.37597e-06
6.95804e-07
0.0010689
-6.57054e-07
8.73314e-07
-7.30281e-08
4.61572e-07
-8.37432e-07
-1.39366e-06
-2.19023e-07
-0.000262803
1.60236e-06
1.56759e-06
-6.63622e-07
-6.7158e-07
0.000260969
-1.34952e-06
-1.35128e-06
-0.00107181
6.75719e-07
6.76395e-07
0.00107316
-0.00107323
-1.57212e-06
1.35055e-06
6.66012e-07
0.00107455
-6.53219e-07
9.01048e-07
-5.28667e-08
4.75706e-07
-8.28228e-07
-1.40456e-06
-1.94678e-07
-0.0010729
-1.56697e-06
1.35032e-06
6.66472e-07
0.00107421
-6.5069e-07
8.95497e-07
-5.50371e-08
4.75694e-07
-8.30699e-07
-1.40432e-06
-1.92212e-07
-0.00026408
1.59969e-06
1.56731e-06
-6.55707e-07
-6.61272e-07
0.00026223
-1.30283e-06
-1.30455e-06
-0.00107715
6.51193e-07
6.51915e-07
0.00107845
-0.0010784
-1.56382e-06
1.3041e-06
6.34995e-07
0.00107966
-6.38351e-07
9.25258e-07
-3.45395e-08
4.94998e-07
-8.09732e-07
-1.40332e-06
-1.64787e-07
-0.00107806
-1.5587e-06
1.30401e-06
6.35661e-07
0.00107932
-6.35857e-07
9.19658e-07
-3.66554e-08
4.9492e-07
-8.12245e-07
-1.40313e-06
-1.62366e-07
-0.000265299
1.59162e-06
1.55903e-06
-6.40171e-07
-6.45815e-07
0.000263434
-1.25258e-06
-1.25385e-06
-0.00108229
6.26101e-07
6.27167e-07
0.00108354
-0.00108333
-1.55487e-06
1.25398e-06
6.0573e-07
0.00108452
-6.24035e-07
9.47189e-07
-1.37319e-08
5.16151e-07
-7.89106e-07
-1.39699e-06
-1.36881e-07
-0.00108299
-1.54959e-06
1.254e-06
6.06212e-07
0.00108418
-6.21383e-07
9.41712e-07
-1.64779e-08
5.1612e-07
-7.91561e-07
-1.39676e-06
-1.34429e-07
-0.000266443
1.58265e-06
1.54988e-06
-6.24128e-07
-6.29738e-07
0.000264565
-1.20627e-06
-1.20693e-06
-0.00108722
6.03969e-07
6.05242e-07
0.00108843
-0.00108801
-1.5473e-06
1.20742e-06
5.82087e-07
0.00108914
-6.11928e-07
9.66642e-07
3.69557e-09
5.37598e-07
-7.69698e-07
-1.3889e-06
-1.12224e-07
-0.00108766
-1.54198e-06
1.20721e-06
5.82417e-07
0.0010888
-6.09269e-07
9.61148e-07
9.2437e-10
5.37698e-07
-7.72081e-07
-1.38857e-06
-1.09721e-07
-0.000267514
1.57524e-06
1.5423e-06
-6.09994e-07
-6.1567e-07
0.000265622
-1.1659e-06
-1.16626e-06
-0.00109197
5.85597e-07
5.86853e-07
0.00109313
-0.00109245
-1.5417e-06
1.16672e-06
5.63607e-07
0.00109353
-6.02599e-07
9.83762e-07
1.80724e-08
5.58509e-07
-7.52663e-07
-1.3808e-06
-9.09464e-08
-0.00109211
-1.53639e-06
1.16627e-06
5.63945e-07
0.00109319
-5.99962e-07
9.78223e-07
1.52485e-08
5.58728e-07
-7.54966e-07
-1.38036e-06
-8.84096e-08
-0.000268516
1.56974e-06
1.53667e-06
-5.98236e-07
-6.0389e-07
0.000266612
-1.1309e-06
-1.13242e-06
-0.00109655
5.70564e-07
5.71621e-07
0.00109767
-0.00109669
-1.53791e-06
1.1323e-06
5.49188e-07
0.00109772
-5.9589e-07
9.9877e-07
2.98761e-08
5.78554e-07
-7.38099e-07
-1.37341e-06
-7.28068e-08
-0.00109635
-1.53256e-06
1.13191e-06
5.49571e-07
0.00109737
-5.93205e-07
9.93232e-07
2.70551e-08
5.78752e-07
-7.40382e-07
-1.37297e-06
-7.03339e-08
-0.000269456
1.5661e-06
1.53285e-06
-5.8862e-07
-5.94302e-07
0.000267539
-1.10091e-06
-1.10272e-06
-0.00110098
5.57579e-07
5.58621e-07
0.00110207
-0.00110074
-1.53628e-06
1.1021e-06
5.37221e-07
0.00110173
-5.9185e-07
1.01173e-06
4.37496e-08
5.97546e-07
-7.25538e-07
-1.36681e-06
-5.75256e-08
-0.0011004
-1.53073e-06
1.10224e-06
5.37622e-07
0.00110138
-5.88949e-07
1.00637e-06
3.99137e-08
5.97701e-07
-7.27873e-07
-1.36641e-06
-5.51885e-08
-0.000270337
1.56433e-06
1.53086e-06
-5.81048e-07
-5.86758e-07
0.000268409
-1.07487e-06
-1.07615e-06
-0.00110529
5.46117e-07
5.47241e-07
0.00110635
-0.00110462
-1.53555e-06
1.07568e-06
5.28227e-07
0.00110557
-5.86146e-07
1.02395e-06
5.17115e-08
6.15513e-07
-7.13857e-07
-1.36052e-06
-4.45732e-08
-0.00110428
-1.53e-06
1.07566e-06
5.2818e-07
0.00110522
-5.86044e-07
1.01853e-06
5.17323e-08
6.156e-07
-7.1634e-07
-1.36021e-06
-4.23892e-08
-0.000271164
1.56382e-06
1.53018e-06
-5.74887e-07
-5.80718e-07
0.000269226
-1.05063e-06
-1.05178e-06
-0.00110948
5.35398e-07
5.36408e-07
0.00111051
-0.00110835
-1.53513e-06
1.0515e-06
5.19467e-07
0.00110926
-5.83631e-07
1.03572e-06
6.16088e-08
6.3242e-07
-7.02193e-07
-1.35395e-06
-3.34501e-08
-0.001108
-1.52963e-06
1.05138e-06
5.19614e-07
0.00110891
-5.83569e-07
1.03023e-06
6.15626e-08
6.3255e-07
-7.04686e-07
-1.35362e-06
-3.12473e-08
-0.00027194
1.56355e-06
1.5298e-06
-5.69261e-07
-5.75143e-07
0.000269991
-1.02687e-06
-1.02798e-06
-0.00111356
5.24691e-07
5.25393e-07
0.00111457
-0.00111192
-1.53478e-06
1.02787e-06
5.10003e-07
0.00111279
-5.80766e-07
1.04734e-06
7.04769e-08
6.47868e-07
-6.90346e-07
-1.347e-06
-2.10159e-08
-0.00111157
-1.52938e-06
1.02756e-06
5.10319e-07
0.00111244
-5.80806e-07
1.04162e-06
7.03094e-08
6.47966e-07
-6.92913e-07
-1.34672e-06
-1.81106e-08
-0.000272663
1.56341e-06
1.5295e-06
-5.64087e-07
-5.70015e-07
0.000270704
-1.00407e-06
-1.00548e-06
-0.00111754
5.14555e-07
5.14935e-07
0.00111852
-0.00111535
-1.53468e-06
1.00528e-06
4.9967e-07
0.00111618
-5.76835e-07
1.05803e-06
7.907e-08
6.62103e-07
-6.77605e-07
-1.3392e-06
-8.89794e-09
-0.001115
-1.52927e-06
1.00496e-06
5.00296e-07
0.00111583
-5.76924e-07
1.05233e-06
7.88349e-08
6.62146e-07
-6.80189e-07
-1.33896e-06
-6.03936e-09
-0.000273334
1.56338e-06
1.52939e-06
-5.58637e-07
-5.64498e-07
0.000271364
-9.81793e-07
-9.83401e-07
-0.00112143
5.04508e-07
5.0468e-07
0.00112238
-0.00111863
-1.53422e-06
9.83103e-07
4.88866e-07
0.00111942
-5.71704e-07
1.06795e-06
8.75397e-08
6.75121e-07
-6.63792e-07
-1.33029e-06
2.31116e-09
-0.00111827
-1.52885e-06
9.82861e-07
4.89601e-07
0.00111907
-5.71807e-07
1.06225e-06
8.72998e-08
6.75143e-07
-6.66419e-07
-1.33011e-06
5.18866e-09
-0.000273949
1.56297e-06
1.52888e-06
-5.52083e-07
-5.57936e-07
0.000271967
-9.59684e-07
-9.61478e-07
-0.00112521
4.94403e-07
4.94441e-07
0.00112615
-0.00112175
-1.53294e-06
9.61123e-07
4.77954e-07
0.0011225
-5.65457e-07
1.07774e-06
9.55712e-08
6.87008e-07
-6.49187e-07
-1.32047e-06
1.26693e-08
-0.00112139
-1.52759e-06
9.60954e-07
4.78568e-07
0.00112215
-5.65541e-07
1.07199e-06
9.53668e-08
6.87032e-07
-6.51809e-07
-1.32028e-06
1.55587e-08
-0.000274506
1.5618e-06
1.52754e-06
-5.44704e-07
-5.50691e-07
0.000272512
-9.38195e-07
-9.39863e-07
-0.00112891
4.84459e-07
4.84569e-07
0.00112982
-0.00112471
-1.53107e-06
9.39667e-07
4.66935e-07
0.00112543
-5.5792e-07
1.08702e-06
1.0331e-07
6.97781e-07
-6.33991e-07
-1.30966e-06
2.22337e-08
-0.00112436
-1.52573e-06
9.39486e-07
4.67537e-07
0.00112507
-5.5805e-07
1.08126e-06
1.03181e-07
6.97846e-07
-6.36682e-07
-1.3095e-06
2.51165e-08
-0.000275001
1.56005e-06
1.52566e-06
-5.369e-07
-5.42975e-07
0.000272995
-9.17227e-07
-9.18184e-07
-0.00113251
4.7443e-07
4.74908e-07
0.0011334
-0.00112751
-1.52864e-06
9.18493e-07
4.55887e-07
0.00112819
-5.49364e-07
1.09556e-06
1.10766e-07
7.07779e-07
-6.18594e-07
-1.29797e-06
3.22195e-08
-0.00112716
-1.52331e-06
9.18017e-07
4.55995e-07
0.00112783
-5.49535e-07
1.08974e-06
1.10626e-07
7.07525e-07
-6.21492e-07
-1.29797e-06
3.65165e-08
-0.000275431
1.55763e-06
1.52321e-06
-5.28602e-07
-5.3462e-07
0.000273413
-8.96826e-07
-8.97285e-07
-0.00113602
4.6502e-07
4.65837e-07
0.00113688
-0.00113014
-1.52564e-06
8.97438e-07
4.44802e-07
0.00113078
-5.40002e-07
1.10331e-06
1.17813e-07
7.16504e-07
-6.03322e-07
-1.28608e-06
4.43497e-08
-0.00112979
-1.52018e-06
8.97267e-07
4.44718e-07
0.00113042
-5.40049e-07
1.09758e-06
1.17803e-07
7.16245e-07
-6.06147e-07
-1.28606e-06
4.8102e-08
-0.000275793
1.55455e-06
1.52007e-06
-5.19694e-07
-5.25677e-07
0.000273764
-8.77001e-07
-8.76907e-07
-0.00113944
4.56313e-07
4.5721e-07
0.00114028
-0.0011326
-1.52161e-06
8.77258e-07
4.34597e-07
0.00113319
-5.29602e-07
1.11055e-06
1.24737e-07
7.24544e-07
-5.87853e-07
-1.27324e-06
5.4855e-08
-0.00113224
-1.51619e-06
8.77151e-07
4.34461e-07
0.00113283
-5.29697e-07
1.10482e-06
1.24753e-07
7.24354e-07
-5.90705e-07
-1.27323e-06
5.83965e-08
-0.000276085
1.55056e-06
1.51611e-06
-5.10064e-07
-5.15973e-07
0.000274044
-8.57497e-07
-8.57323e-07
-0.00114276
4.48132e-07
4.49211e-07
0.00114357
-0.00113488
-1.51659e-06
8.57685e-07
4.24347e-07
0.00113542
-5.21494e-07
1.11724e-06
1.34318e-07
7.32283e-07
-5.72536e-07
-1.25934e-06
6.43213e-08
-0.00113452
-1.5111e-06
8.57673e-07
4.2433e-07
0.00113506
-5.18706e-07
1.11155e-06
1.31417e-07
7.32084e-07
-5.75319e-07
-1.25933e-06
6.77347e-08
-0.000276306
1.54554e-06
1.51109e-06
-4.99611e-07
-5.05468e-07
0.000274254
-8.38066e-07
-8.38148e-07
-0.001146
4.40513e-07
4.4148e-07
0.00114679
-0.00113697
-1.51043e-06
8.38388e-07
4.14601e-07
0.00113746
-5.10162e-07
1.12356e-06
1.40809e-07
7.39792e-07
-5.57242e-07
-1.24469e-06
7.30955e-08
-0.00113661
-1.50487e-06
8.38471e-07
4.14382e-07
0.0011371
-5.07343e-07
1.11789e-06
1.37782e-07
7.39612e-07
-5.59971e-07
-1.24466e-06
7.64858e-08
-0.000276456
1.53934e-06
1.5049e-06
-4.88371e-07
-4.94143e-07
0.000274394
-8.18845e-07
-8.18871e-07
-0.00114914
4.33071e-07
4.34029e-07
0.00114991
-0.00113886
-1.50291e-06
8.19241e-07
4.04958e-07
0.00113931
-4.98959e-07
1.12951e-06
1.4717e-07
7.47247e-07
-5.42129e-07
-1.22936e-06
8.15535e-08
-0.0011385
-1.49737e-06
8.19228e-07
4.04835e-07
0.00113895
-4.96078e-07
1.12392e-06
1.44188e-07
7.47028e-07
-5.44847e-07
-1.22934e-06
8.48298e-08
-0.000276536
1.53181e-06
1.49741e-06
-4.76219e-07
-4.81931e-07
0.000274465
-7.99162e-07
-7.99281e-07
-0.00115218
4.25488e-07
4.26337e-07
0.00115293
-0.00114056
-1.49435e-06
7.99318e-07
3.95736e-07
0.00114096
-4.87407e-07
1.13517e-06
1.53655e-07
7.54552e-07
-5.27372e-07
-1.21362e-06
8.97564e-08
-0.0011402
-1.4888e-06
7.99361e-07
3.95349e-07
0.0011406
-4.84512e-07
1.12964e-06
1.50605e-07
7.54442e-07
-5.30021e-07
-1.21354e-06
9.30167e-08
-0.000276551
1.52333e-06
1.48891e-06
-4.63613e-07
-4.69217e-07
0.000274472
-7.7918e-07
-7.79567e-07
-0.00115513
4.18005e-07
4.18811e-07
0.00115586
-0.00114207
-1.48491e-06
7.79501e-07
3.85967e-07
0.00114241
-4.75887e-07
1.14061e-06
1.60044e-07
7.6183e-07
-5.12729e-07
-1.19759e-06
9.79845e-08
-0.00114171
-1.47933e-06
7.79264e-07
3.85828e-07
0.00114205
-4.73064e-07
1.13501e-06
1.56993e-07
7.61722e-07
-5.15305e-07
-1.19745e-06
1.01191e-07
-0.000276506
1.51385e-06
1.47949e-06
-4.50604e-07
-4.56132e-07
0.000274419
-7.58252e-07
-7.58987e-07
-0.00115798
4.09962e-07
4.10729e-07
0.00115868
-0.00114338
-1.47472e-06
7.58497e-07
3.76846e-07
0.00114367
-4.64267e-07
1.14585e-06
1.66305e-07
7.69124e-07
-4.98442e-07
-1.1814e-06
1.0615e-07
-0.00114301
-1.46914e-06
7.58268e-07
3.76579e-07
0.00114331
-4.61464e-07
1.14021e-06
1.63273e-07
7.69095e-07
-5.0098e-07
-1.18121e-06
1.09312e-07
-0.000276406
1.50364e-06
1.46931e-06
-4.37509e-07
-4.43023e-07
0.000274314
-7.36786e-07
-7.37785e-07
-0.00116073
4.01727e-07
4.02396e-07
0.0011614
-0.00114449
-1.46385e-06
7.37244e-07
3.6732e-07
0.00114473
-4.52878e-07
1.15114e-06
1.72207e-07
7.76377e-07
-4.84285e-07
-1.16518e-06
1.14192e-07
-0.00114413
-1.45824e-06
7.36787e-07
3.6715e-07
0.00114437
-4.50054e-07
1.14552e-06
1.6931e-07
7.76331e-07
-4.86824e-07
-1.16496e-06
1.17335e-07
-0.00027626
1.49272e-06
1.45836e-06
-4.24417e-07
-4.29891e-07
0.000274163
-7.14587e-07
-7.15697e-07
-0.00116337
3.93157e-07
3.93553e-07
0.00116402
-0.00114541
-1.45235e-06
7.15027e-07
3.57597e-07
0.00114561
-4.41693e-07
1.1565e-06
1.7821e-07
7.8351e-07
-4.70461e-07
-1.14915e-06
1.22055e-07
-0.00114505
-1.44671e-06
7.14776e-07
3.57443e-07
0.00114525
-4.38821e-07
1.15088e-06
1.75226e-07
7.83457e-07
-4.73063e-07
-1.14897e-06
1.2519e-07
-0.000276075
1.48126e-06
1.44685e-06
-4.11359e-07
-4.16903e-07
0.000273975
-6.91894e-07
-6.93137e-07
-0.00116591
3.84445e-07
3.84585e-07
0.00116652
-0.00114614
-1.4404e-06
6.92344e-07
3.4689e-07
0.0011463
-4.30751e-07
1.16192e-06
1.84107e-07
7.90584e-07
-4.57083e-07
-1.13347e-06
1.29865e-07
-0.00114578
-1.43477e-06
6.92261e-07
3.46762e-07
0.00114593
-4.27931e-07
1.15635e-06
1.81201e-07
7.90381e-07
-4.59659e-07
-1.13331e-06
1.32854e-07
-0.000275859
1.46947e-06
1.43494e-06
-3.9861e-07
-4.04255e-07
0.000273758
-6.68738e-07
-6.70226e-07
-0.00116833
3.75564e-07
3.75577e-07
0.00116892
-0.0011467
-1.42834e-06
6.6933e-07
3.35622e-07
0.00114681
-4.20165e-07
1.16734e-06
1.89835e-07
7.97414e-07
-4.44088e-07
-1.11821e-06
1.37451e-07
-0.00114634
-1.42274e-06
6.69374e-07
3.3553e-07
0.00114645
-4.17353e-07
1.16174e-06
1.86915e-07
7.97351e-07
-4.46781e-07
-1.11811e-06
1.40346e-07
-0.000275621
1.45747e-06
1.42286e-06
-3.86258e-07
-3.92018e-07
0.000273519
-6.45586e-07
-6.47081e-07
-0.00117064
3.6666e-07
3.66593e-07
0.0011712
-0.0011471
-1.41647e-06
6.46141e-07
3.23934e-07
0.00114717
-4.10009e-07
1.17266e-06
1.9532e-07
8.03886e-07
-4.31731e-07
-1.10363e-06
1.44749e-07
-0.00114673
-1.41088e-06
6.46547e-07
3.2412e-07
0.00114681
-4.07242e-07
1.16707e-06
1.92364e-07
8.03712e-07
-4.34583e-07
-1.10372e-06
1.47572e-07
-0.000275368
1.44551e-06
1.41084e-06
-3.74546e-07
-3.80347e-07
0.000273266
-6.22675e-07
-6.24183e-07
-0.00117283
3.57965e-07
3.57747e-07
0.00117336
-0.00114734
-1.40477e-06
6.23255e-07
3.11955e-07
0.00114738
-4.00547e-07
1.17777e-06
2.00409e-07
8.09929e-07
-4.20361e-07
-1.09004e-06
1.51361e-07
-0.00114698
-1.39924e-06
6.23728e-07
3.12152e-07
0.00114702
-3.97729e-07
1.17219e-06
1.97523e-07
8.0971e-07
-4.23117e-07
-1.09015e-06
1.54189e-07
-0.000275107
1.43401e-06
1.39934e-06
-3.63766e-07
-3.69484e-07
0.000273007
-6.0065e-07
-6.02091e-07
-0.00117492
3.49725e-07
3.49598e-07
0.00117542
-0.00114746
-1.39379e-06
6.01538e-07
2.99845e-07
0.00114747
-3.91692e-07
1.18238e-06
2.05262e-07
8.15276e-07
-4.1003e-07
-1.07775e-06
1.57283e-07
-0.00114709
-1.38814e-06
6.01949e-07
2.99792e-07
0.00114711
-3.88891e-07
1.17689e-06
2.02317e-07
8.15061e-07
-4.12687e-07
-1.07771e-06
1.60154e-07
-0.000274844
1.42295e-06
1.38836e-06
-3.53891e-07
-3.59532e-07
0.000272746
-5.79956e-07
-5.81365e-07
-0.00117689
3.42317e-07
3.42203e-07
0.00117737
-0.00114747
-1.38353e-06
5.81271e-07
2.87558e-07
0.00114746
-3.83649e-07
1.18652e-06
2.09418e-07
8.19716e-07
-4.00876e-07
-1.06683e-06
1.62352e-07
-0.0011471
-1.37795e-06
5.81754e-07
2.87637e-07
0.00114709
-3.80806e-07
1.18101e-06
2.06612e-07
8.19503e-07
-4.0353e-07
-1.06682e-06
1.65189e-07
-0.000274585
1.41273e-06
1.37816e-06
-3.45088e-07
-3.50698e-07
0.00027249
-5.60782e-07
-5.62118e-07
-0.00117876
3.3572e-07
3.3558e-07
0.00117921
-0.00114739
-1.37426e-06
5.62556e-07
2.75539e-07
0.00114736
-3.76456e-07
1.18999e-06
2.13119e-07
8.23212e-07
-3.92986e-07
-1.05711e-06
1.66405e-07
-0.00114702
-1.36867e-06
5.63161e-07
2.75611e-07
0.00114699
-3.73645e-07
1.18447e-06
2.10265e-07
8.23026e-07
-3.95715e-07
-1.05722e-06
1.69144e-07
-0.000274334
1.40354e-06
1.36894e-06
-3.37458e-07
-3.4315e-07
0.000272242
-5.42568e-07
-5.4382e-07
-0.00118053
3.29465e-07
3.29381e-07
0.00118096
-0.00114725
-1.36589e-06
5.44919e-07
2.63905e-07
0.00114721
-3.69983e-07
1.19277e-06
2.16256e-07
8.25959e-07
-3.86098e-07
-1.04875e-06
1.69637e-07
-0.00114688
-1.36027e-06
5.45604e-07
2.64035e-07
0.00114684
-3.67105e-07
1.18726e-06
2.13422e-07
8.25567e-07
-3.88966e-07
-1.04887e-06
1.72247e-07
-0.000274095
1.39508e-06
1.36046e-06
-3.3073e-07
-3.36512e-07
0.000272006
-5.24147e-07
-5.25251e-07
-0.0011822
3.22912e-07
3.22999e-07
0.00118261
-0.00114707
-1.35798e-06
5.26848e-07
2.51989e-07
0.00114702
-3.6406e-07
1.19532e-06
2.19092e-07
8.28406e-07
-3.79803e-07
-1.04111e-06
1.72563e-07
-0.0011467
-1.35231e-06
5.27599e-07
2.51989e-07
0.00114664
-3.61062e-07
1.18973e-06
2.16265e-07
8.27815e-07
-3.82734e-07
-1.04133e-06
1.75154e-07
-0.00027387
1.38723e-06
1.35263e-06
-3.24727e-07
-3.30492e-07
0.000271785
-5.03794e-07
-5.04507e-07
-0.00118378
3.14878e-07
3.15442e-07
0.00118416
-0.00114685
-1.35049e-06
5.06537e-07
2.398e-07
0.0011468
-3.58342e-07
1.1978e-06
2.21592e-07
8.30874e-07
-3.73514e-07
-1.03348e-06
1.75578e-07
-0.00114648
-1.34467e-06
5.06998e-07
2.39106e-07
0.00114643
-3.55202e-07
1.19228e-06
2.19049e-07
8.30473e-07
-3.7633e-07
-1.03358e-06
1.78283e-07
-0.000273661
1.3795e-06
1.34503e-06
-3.18999e-07
-3.24636e-07
0.00027158
-4.79531e-07
-4.7928e-07
-0.00118525
3.04082e-07
3.05659e-07
0.0011856
-0.00114663
-1.34298e-06
4.81725e-07
2.26764e-07
0.00114657
-3.52661e-07
1.20025e-06
2.24265e-07
8.34124e-07
-3.66738e-07
-1.02536e-06
1.7932e-07
-0.00114625
-1.33688e-06
4.81249e-07
2.25373e-07
0.00114619
-3.49154e-07
1.19497e-06
2.22107e-07
8.34018e-07
-3.69067e-07
-1.02511e-06
1.8237e-07
-0.000273468
1.37125e-06
1.33727e-06
-3.13129e-07
-3.18415e-07
0.000271391
-4.48546e-07
-4.472e-07
-0.0011866
2.88576e-07
2.91495e-07
0.00118692
-0.00114639
-1.33504e-06
4.49889e-07
2.11141e-07
0.00114633
-3.46509e-07
1.20315e-06
2.27363e-07
8.38951e-07
-3.58369e-07
-1.01555e-06
1.8459e-07
-0.00114601
-1.32853e-06
4.47667e-07
2.08955e-07
0.00114595
-3.42799e-07
1.19829e-06
2.25236e-07
8.39227e-07
-3.60346e-07
-1.01498e-06
1.8805e-07
-0.000273292
1.36242e-06
1.32918e-06
-3.06836e-07
-3.11463e-07
0.000271219
-4.08625e-07
-4.1825e-07
-0.0011878
2.67674e-07
2.70904e-07
0.00118809
-0.00114615
-1.3254e-06
4.09485e-07
1.90955e-07
0.00114609
-3.38185e-07
1.20785e-06
2.32418e-07
8.45492e-07
-3.47788e-07
-1.00398e-06
1.92044e-07
-0.00114577
-1.31911e-06
4.05542e-07
1.88608e-07
0.00114571
-3.34836e-07
1.20268e-06
2.3004e-07
8.46674e-07
-3.4941e-07
-1.00261e-06
1.95802e-07
-0.00027313
1.35265e-06
1.31975e-06
-2.99253e-07
-3.03174e-07
0.00027106
-3.60638e-07
-3.59542e-07
-0.00118886
2.4266e-07
2.44842e-07
0.00118909
-0.00114589
-1.31361e-06
3.59712e-07
1.65054e-07
0.00114582
-3.25498e-07
1.21464e-06
2.36315e-07
8.54952e-07
-3.34784e-07
-9.8965e-07
2.01821e-07
-0.00114551
-1.30782e-06
3.55761e-07
1.65244e-07
0.00114544
-3.25553e-07
1.20911e-06
2.36169e-07
8.55826e-07
-3.36148e-07
-9.88343e-07
2.05682e-07
-0.000272979
1.34098e-06
1.30842e-06
-2.89512e-07
-2.93196e-07
0.000270912
-3.07146e-07
-3.09028e-07
-0.00118972
2.16004e-07
2.15245e-07
0.0011899
-0.00114561
-1.30107e-06
3.05319e-07
1.37743e-07
0.00114553
-3.14227e-07
1.22212e-06
2.44267e-07
8.65747e-07
-3.20256e-07
-9.7407e-07
2.12896e-07
-0.00114522
-1.29579e-06
3.0222e-07
1.39391e-07
0.00114513
-3.14752e-07
1.21609e-06
2.43747e-07
8.66944e-07
-3.21655e-07
-9.72304e-07
2.16919e-07
-0.000272837
1.3289e-06
1.29577e-06
-2.78495e-07
-2.82637e-07
0.000270774
-2.53316e-07
-2.58894e-07
-0.00119039
1.89012e-07
1.83703e-07
0.00119053
-0.00114528
-1.28862e-06
2.50311e-07
1.11337e-07
0.0011452
-3.04004e-07
1.22999e-06
2.51496e-07
8.7617e-07
-3.06573e-07
-9.59138e-07
2.23604e-07
-0.00114488
-1.28404e-06
2.50799e-07
1.16318e-07
0.00114479
-3.04833e-07
1.22325e-06
2.50549e-07
8.76508e-07
-3.08457e-07
-9.58067e-07
2.26883e-07
-0.000272704
1.31768e-06
1.28259e-06
-2.67029e-07
-2.72936e-07
0.000270643
-2.04196e-07
-2.12714e-07
-0.00119089
1.62888e-07
1.54121e-07
0.00119099
-0.00114494
-1.27778e-06
2.00037e-07
8.76961e-08
0.00114485
-2.94804e-07
1.23687e-06
2.57936e-07
8.8601e-07
-2.93687e-07
-9.45159e-07
2.33591e-07
-0.00114452
-1.27346e-06
2.04665e-07
9.35329e-08
0.00114442
-2.96404e-07
1.23003e-06
2.56413e-07
8.85018e-07
-2.96871e-07
-9.4561e-07
2.35775e-07
-0.00027258
1.30775e-06
1.27116e-06
-2.56993e-07
-2.64488e-07
0.000270522
-1.6185e-07
-1.69723e-07
-0.00119124
1.35436e-07
1.2783e-07
0.00119131
-0.00114457
-1.26867e-06
1.57845e-07
6.75841e-08
0.00114447
-2.8735e-07
1.24234e-06
2.62916e-07
8.93767e-07
-2.83105e-07
-9.33747e-07
2.41789e-07
-0.00114414
-1.26385e-06
1.63927e-07
7.05956e-08
0.00114405
-2.8856e-07
1.23616e-06
2.61892e-07
8.91883e-07
-2.8708e-07
-9.35042e-07
2.43332e-07
-0.000272465
1.2992e-06
1.26227e-06
-2.49333e-07
-2.57223e-07
0.00027041
-1.2594e-07
-1.28279e-07
-0.00119148
1.05823e-07
1.02889e-07
0.00119153
-0.0011442
-1.26191e-06
1.23657e-07
4.92074e-08
0.00114411
-2.8195e-07
1.24622e-06
2.66397e-07
8.99227e-07
-2.75667e-07
-9.25499e-07
2.47363e-07
-0.00114378
-1.2566e-06
1.27422e-07
4.97825e-08
0.00114369
-2.81653e-07
1.24042e-06
2.66864e-07
8.97578e-07
-2.79309e-07
-9.26538e-07
2.49052e-07
-0.000272358
1.29174e-06
1.25626e-06
-2.44574e-07
-2.50925e-07
0.000270305
5.22626e-06
5.23742e-06
0.000260567
-0.000259154
-5.94535e-06
-5.93091e-06
5.05378e-06
0.00026144
-0.000258685
-5.96386e-06
3.38096e-06
-5.22645e-06
5.04863e-06
0.000261473
-0.0002587
-5.97167e-06
3.37612e-06
5.22698e-06
0.000260579
-0.000259157
-5.91652e-06
-5.95974e-06
5.04666e-06
0.000261504
-0.000258715
-5.96895e-06
3.37094e-06
5.05346e-06
-5.22864e-06
0.000261447
-0.000258684
3.386e-06
-5.97396e-06
1.06913e-05
1.05979e-05
-0.000252646
-0.000256096
-0.000255126
-0.000255126
-6.41774e-06
-4.1107e-06
-6.65359e-06
-6.41789e-06
-4.11142e-06
-6.65883e-06
-5.04169e-06
0.0010422
1.06509e-05
1.06029e-05
-0.000252649
-0.000256094
-0.000255129
-0.000255129
-6.42026e-06
-4.11089e-06
-6.65617e-06
-6.41558e-06
-4.10626e-06
-6.65148e-06
-5.04127e-06
0.00104207
1.07112e-05
1.06632e-05
-0.000252641
-0.000256088
-0.000255126
-0.000255121
-6.41995e-06
-4.11825e-06
-6.65598e-06
-6.42027e-06
-4.10845e-06
-6.65369e-06
-5.05618e-06
-5.04422e-06
0.00104214
1.07069e-05
1.0608e-05
-0.000252644
-0.000256091
-0.000255126
-0.000255126
-6.4151e-06
-4.11325e-06
-6.65117e-06
-6.42048e-06
-4.11144e-06
-6.6565e-06
-0.00025871
-5.96165e-06
3.36579e-06
-5.22631e-06
0.000261435
-0.000258682
3.38105e-06
-5.96389e-06
5.22946e-06
0.000260559
-0.000259141
-5.91919e-06
-5.95687e-06
-0.000258695
3.37319e-06
-5.95844e-06
-5.23741e-06
0.000261502
-0.00025871
3.36831e-06
-5.96661e-06
-0.000259152
-5.94537e-06
-5.93083e-06
5.66061e-06
5.69792e-06
-4.95457e-06
-4.94829e-06
0.000259111
-8.126e-07
-7.769e-07
0.000261577
-0.000259444
-2.75754e-07
-2.68411e-07
7.14223e-06
0.00105866
-4.59143e-06
-1.55088e-06
-2.11604e-06
-2.49148e-06
-6.63819e-06
-7.12091e-06
-2.99177e-06
-0.000263295
-0.000259719
-0.000262822
-5.67086e-06
1.46062e-05
7.08121e-06
0.00105903
-4.60988e-06
-1.54317e-06
-2.11881e-06
-2.50255e-06
-6.66938e-06
-7.13787e-06
-3.00764e-06
-0.000263369
-0.000259749
-0.000262863
0.00106199
2.11998e-06
-0.00106095
1.04267e-06
-1.75836e-06
-1.31765e-07
-7.46193e-07
-1.54133e-06
-2.91299e-07
-9.11548e-07
3.6446e-07
8.20887e-07
0.00106241
2.12031e-06
-0.00106137
1.03726e-06
-1.76844e-06
-1.24387e-07
-7.51184e-07
-1.54712e-06
-2.91661e-07
-9.12058e-07
3.69793e-07
-4.95247e-06
-4.9448e-06
0.000259121
-7.79816e-07
0.000261603
-0.000259464
-2.72782e-07
-2.65273e-07
6.86492e-06
0.0010595
-4.6158e-06
-1.61088e-06
-2.13237e-06
-2.501e-06
-6.65192e-06
-7.13317e-06
-3.00275e-06
-0.000263389
-0.000259777
-0.000262875
-5.67074e-06
1.46411e-05
7.17616e-06
0.00105881
-4.61032e-06
-1.5534e-06
-2.12418e-06
-2.50459e-06
-6.66927e-06
-7.137e-06
-3.00768e-06
-0.000259719
-0.000263346
-0.000262834
0.00106301
2.12772e-06
-0.00106196
1.03132e-06
-1.72877e-06
-1.3419e-07
-7.4665e-07
-1.54462e-06
-2.91383e-07
-9.094e-07
3.66787e-07
8.1009e-07
0.0010621
2.13034e-06
-0.00106108
1.05313e-06
-1.75838e-06
-1.29333e-07
-7.46256e-07
-1.54398e-06
-2.88656e-07
-9.1405e-07
3.64644e-07
1.4638e-05
7.163e-06
0.00105861
-4.59127e-06
-1.55056e-06
-2.11295e-06
-2.49143e-06
-6.63885e-06
-2.99215e-06
-7.11879e-06
-0.000259714
-0.00026329
-0.000262817
2.12632e-06
-0.0010617
1.03585e-06
-1.72842e-06
-1.31316e-07
-7.43251e-07
-1.54169e-06
-2.93812e-07
3.61593e-07
-9.09177e-07
8.10203e-07
0.00106189
2.13031e-06
-0.00106087
1.0527e-06
-1.75817e-06
-1.29174e-07
-7.45864e-07
-1.54399e-06
-2.91518e-07
-9.11644e-07
3.66855e-07
-4.95758e-06
-4.94484e-06
0.000259101
-7.71742e-07
0.000261554
-0.000259426
-2.75812e-07
-2.70773e-07
1.45392e-05
6.88243e-06
0.00105945
-4.6158e-06
-1.61067e-06
-2.13196e-06
-2.50028e-06
-6.65227e-06
-3.00262e-06
-7.13041e-06
-0.000259767
-0.000263387
-0.000262871
2.13225e-06
-0.0010614
1.05184e-06
-1.72599e-06
-1.33812e-07
-7.46092e-07
-1.53887e-06
-2.89113e-07
3.61407e-07
-9.11891e-07
7.7172e-07
0.00106291
2.13185e-06
-0.00106188
1.04069e-06
-1.72358e-06
-1.34085e-07
-7.4394e-07
-1.54141e-06
-2.9102e-07
-9.11654e-07
3.62122e-07
-0.000259441
-2.73142e-07
-2.70858e-07
1.65107e-06
1.61624e-06
-6.95705e-07
-7.0398e-07
0.00025971
-9.07091e-07
-8.68697e-07
0.000262816
-0.000260651
-1.98637e-07
-1.91402e-07
8.31364e-07
0.00106319
-6.82746e-07
8.68038e-07
-9.47505e-08
4.23972e-07
-8.49861e-07
-1.43357e-06
-2.54137e-07
-1.65601e-06
1.6516e-06
8.25717e-07
0.00106361
-6.85213e-07
8.76227e-07
-9.45068e-08
4.29278e-07
-8.52993e-07
-1.43928e-06
-2.52185e-07
0.00106712
1.39011e-06
-0.00106578
7.0019e-07
-1.60534e-06
-7.01694e-08
-6.63429e-07
-1.39352e-06
-2.26118e-07
-8.3477e-07
4.59459e-07
9.1255e-07
0.00106756
1.39057e-06
-0.00106621
6.94724e-07
-1.61041e-06
-7.00977e-08
-6.63423e-07
-1.39658e-06
-2.26485e-07
-8.35337e-07
4.62155e-07
-6.959e-07
-7.03075e-07
0.000259727
-8.7405e-07
0.000262842
-0.000260663
-1.98525e-07
-1.93734e-07
8.25252e-07
0.00106421
-6.80567e-07
8.32356e-07
-9.70442e-08
4.26431e-07
-8.52866e-07
-1.43667e-06
-2.51884e-07
-1.65103e-06
1.65614e-06
8.31148e-07
0.00106329
-6.85428e-07
8.68166e-07
-9.46387e-08
4.24164e-07
-8.52264e-07
-1.43354e-06
-2.51648e-07
0.00106815
1.39172e-06
-0.00106682
6.99127e-07
-1.56779e-06
-7.45143e-08
-6.58589e-07
-1.39135e-06
-2.24003e-07
-8.35298e-07
4.62016e-07
9.02029e-07
0.00106723
1.38987e-06
-0.00106589
6.99569e-07
-1.60262e-06
-7.22672e-08
-6.6343e-07
-1.39354e-06
-2.262e-07
-8.3484e-07
4.62341e-07
1.6516e-06
8.31227e-07
0.00106309
-6.85108e-07
8.65681e-07
-9.67424e-08
4.2367e-07
-8.52799e-07
-2.52001e-07
-1.4339e-06
1.39074e-06
-0.00106656
7.03964e-07
-1.57536e-06
-7.64868e-08
-6.58208e-07
-1.39112e-06
-2.24024e-07
4.61996e-07
-8.35101e-07
9.04646e-07
0.00106703
1.3852e-06
-0.00106568
6.99977e-07
-1.60248e-06
-7.21722e-08
-6.63209e-07
-1.39387e-06
-2.26461e-07
-8.35127e-07
4.59207e-07
-6.98574e-07
-7.00785e-07
0.000259689
-8.66173e-07
0.00026279
-0.00026063
-1.98662e-07
-1.93699e-07
1.65184e-06
8.19307e-07
0.00106413
-6.80559e-07
8.27046e-07
-1.01602e-07
4.21603e-07
-8.4992e-07
-2.56368e-07
-1.43092e-06
1.39099e-06
-0.00106623
6.98871e-07
-1.5648e-06
-7.64098e-08
-6.58055e-07
-1.38579e-06
-2.2641e-07
4.53793e-07
-8.35151e-07
8.68539e-07
0.00106806
1.39092e-06
-0.00106672
6.98689e-07
-1.56524e-06
-7.67595e-08
-6.58669e-07
-1.39361e-06
-2.26162e-07
-8.37678e-07
4.59622e-07
-0.000260638
-1.98814e-07
-1.93727e-07
1.60511e-06
1.5727e-06
-6.60906e-07
-6.69257e-07
0.000260969
-9.28037e-07
-8.92099e-07
0.000264096
-0.000261921
-1.7975e-07
-1.74847e-07
6.91786e-07
0.00106847
-6.65048e-07
9.11655e-07
-6.68572e-08
4.61865e-07
-8.34522e-07
-1.39357e-06
-2.23549e-07
-1.61024e-06
1.3757e-06
7.02059e-07
0.00106889
-6.65036e-07
9.17138e-07
-6.67524e-08
4.67341e-07
-8.37605e-07
-1.39919e-06
-2.19086e-07
0.00107247
1.35903e-06
-0.00107115
6.74781e-07
-1.60621e-06
-5.59301e-08
-6.58984e-07
-1.40304e-06
-2.04108e-07
-8.28692e-07
4.71799e-07
9.33653e-07
0.00107289
1.35945e-06
-0.00107157
6.74628e-07
-1.61127e-06
-5.36908e-08
-6.61519e-07
-1.41124e-06
-1.9954e-07
-8.34239e-07
4.80027e-07
-6.63786e-07
-6.65995e-07
0.000260989
-8.95029e-07
0.000264125
-0.000261947
-1.76787e-07
-1.71973e-07
6.907e-07
0.0010695
-6.62858e-07
8.75823e-07
-7.11751e-08
4.64429e-07
-8.37589e-07
-1.39918e-06
-2.1904e-07
-1.60239e-06
1.37518e-06
6.96657e-07
0.00106857
-6.65048e-07
9.09214e-07
-6.676e-08
4.64773e-07
-8.37136e-07
-1.39618e-06
-2.18813e-07
0.0010735
1.36083e-06
-0.00107217
6.73762e-07
-1.57105e-06
-5.80416e-08
-6.56741e-07
-1.40595e-06
-1.99548e-07
-8.34306e-07
4.74447e-07
9.28223e-07
0.00107257
1.35939e-06
-0.00107125
6.74722e-07
-1.60609e-06
-5.38053e-08
-6.61662e-07
-1.40556e-06
-1.99311e-07
-8.33795e-07
4.74608e-07
1.38064e-06
6.91574e-07
0.00106838
-6.62249e-07
9.06567e-07
-7.1015e-08
4.64289e-07
-8.37428e-07
-2.21463e-07
-1.3965e-06
1.36001e-06
-0.00107191
6.73445e-07
-1.57335e-06
-5.76876e-08
-6.56192e-07
-1.40336e-06
-2.02007e-07
4.71546e-07
-8.31637e-07
9.22874e-07
0.00107237
1.35931e-06
-0.00107105
6.7474e-07
-1.60085e-06
-5.79045e-08
-6.56184e-07
-1.40326e-06
-2.01959e-07
-8.31507e-07
4.71616e-07
-6.63762e-07
-6.68566e-07
0.000260953
-8.89528e-07
0.000264075
-0.000261906
-1.796e-07
-1.72096e-07
1.37602e-06
6.9562e-07
0.00106941
-6.57674e-07
8.67846e-07
-7.55403e-08
4.62028e-07
-8.3482e-07
-2.21239e-07
-1.39377e-06
1.35977e-06
-0.00107157
6.7377e-07
-1.56817e-06
-5.98606e-08
-6.53633e-07
-1.40305e-06
-1.99541e-07
4.71591e-07
-8.34115e-07
8.89355e-07
0.00107341
1.36025e-06
-0.00107208
6.73689e-07
-1.56852e-06
-6.01296e-08
-6.54159e-07
-1.40072e-06
-2.0182e-07
-8.31632e-07
4.69225e-07
-0.000261919
-1.77291e-07
-1.72175e-07
1.60503e-06
1.56982e-06
-6.53069e-07
-6.58773e-07
0.000262233