/*--------------------------------*- C++ -*----------------------------------*\
| =========                 |                                                 |
| \\      /  F ield         | OpenFOAM: The Open Source CFD Toolbox           |
|  \\    /   O peration     | Version:  v2012                                 |
|   \\  /    A nd           | Website:  www.openfoam.com                      |
|    \\/     M anipulation  |                                                 |
\*---------------------------------------------------------------------------*/
FoamFile
{
    version     2.0;
    format      ascii;
    class       volVectorField;
    location    "200";
    object      U;
}
// * * * * * * * * * * * * * * * * * * * * * * * * * * * * * * * * * * * * * //

dimensions      [0 1 -1 0 0 0 0];


internalField   nonuniform List<vector> 
85864
(
(0.000106172 0.000106161 0.100295)
(-0.000184955 0.000115407 0.10039)
(0.000115504 -0.000184935 0.10039)
(-0.000248166 -0.000248071 0.100398)
(9.70985e-05 9.70667e-05 0.100854)
(-0.000151383 9.35345e-05 0.100939)
(9.35316e-05 -0.000151399 0.100939)
(-0.000194338 -0.000194299 0.100971)
(9.70844e-05 9.70597e-05 0.101369)
(-0.000152307 9.0962e-05 0.101448)
(9.09494e-05 -0.000152302 0.101448)
(-0.00019485 -0.000194798 0.101475)
(9.48286e-05 9.47965e-05 0.101887)
(-0.000149268 8.71336e-05 0.101954)
(8.72196e-05 -0.000149248 0.101954)
(-0.000192214 -0.000192186 0.101968)
(9.14263e-05 9.13976e-05 0.102391)
(-0.000143634 8.2402e-05 0.102442)
(8.25154e-05 -0.000143633 0.102442)
(-0.00018697 -0.000186969 0.102436)
(8.79406e-05 8.79401e-05 0.102877)
(-0.000137764 7.83481e-05 0.102907)
(7.83916e-05 -0.000137741 0.102907)
(-0.000181571 -0.000181559 0.102875)
(8.47628e-05 8.47986e-05 0.103344)
(-0.000132356 7.50733e-05 0.103349)
(7.51071e-05 -0.000132298 0.103349)
(-0.000176925 -0.000176929 0.103285)
(8.20513e-05 8.20902e-05 0.103793)
(-0.000127612 7.25107e-05 0.103768)
(7.25475e-05 -0.000127524 0.103768)
(-0.000173164 -0.000173163 0.103668)
(7.98153e-05 7.98188e-05 0.104226)
(-0.000123521 7.05299e-05 0.104168)
(7.05649e-05 -0.000123425 0.104168)
(-0.000170221 -0.00017024 0.104027)
(7.79107e-05 7.78702e-05 0.104646)
(-0.000120014 6.9208e-05 0.104551)
(6.91475e-05 -0.000119921 0.104551)
(-0.00016808 -0.000168101 0.104363)
(7.61765e-05 7.61459e-05 0.105053)
(-0.000116861 6.81341e-05 0.104917)
(6.81e-05 -0.00011678 0.104917)
(-0.000166546 -0.000166596 0.104678)
(7.45956e-05 7.45608e-05 0.10545)
(-0.000113904 6.71246e-05 0.105269)
(6.71193e-05 -0.000113808 0.105269)
(-0.000165223 -0.000165283 0.104972)
(7.312e-05 7.30703e-05 0.105836)
(-0.000111226 6.61091e-05 0.105607)
(6.61536e-05 -0.000111169 0.105607)
(-0.000164074 -0.000164187 0.105246)
(7.16664e-05 7.15991e-05 0.106214)
(-0.000108739 6.50266e-05 0.10593)
(6.5086e-05 -0.000108699 0.10593)
(-0.000163017 -0.000163097 0.105498)
(7.02413e-05 7.0158e-05 0.106581)
(-0.000106295 6.39785e-05 0.106239)
(6.40301e-05 -0.000106274 0.106239)
(-0.000161755 -0.000161812 0.105728)
(6.88247e-05 6.87323e-05 0.10694)
(-0.000103911 6.298e-05 0.106534)
(6.30248e-05 -0.000103896 0.106534)
(-0.000160236 -0.000160336 0.105935)
(6.74217e-05 6.73414e-05 0.10729)
(-0.000101581 6.1977e-05 0.106813)
(6.20163e-05 -0.00010157 0.106813)
(-0.000158597 -0.00015873 0.106118)
(6.60749e-05 6.60341e-05 0.107631)
(-9.93064e-05 6.09834e-05 0.107077)
(6.10363e-05 -9.94024e-05 0.107077)
(-0.000156777 -0.0001569 0.106275)
(6.47668e-05 6.47749e-05 0.107964)
(-9.73212e-05 6.00591e-05 0.107325)
(6.00869e-05 -9.74397e-05 0.107325)
(-0.000154704 -0.000154826 0.106405)
(6.34896e-05 6.35157e-05 0.108287)
(-9.54603e-05 5.90857e-05 0.107556)
(5.9122e-05 -9.55717e-05 0.107556)
(-0.000152295 -0.000152385 0.106509)
(6.22385e-05 6.22784e-05 0.108602)
(-9.36278e-05 5.80795e-05 0.10777)
(5.80865e-05 -9.37306e-05 0.10777)
(-0.000149457 -0.000149527 0.106585)
(6.10095e-05 6.10446e-05 0.108908)
(-9.16902e-05 5.69312e-05 0.107966)
(5.69526e-05 -9.17981e-05 0.107966)
(-0.000146147 -0.000146195 0.106635)
(5.97583e-05 5.98095e-05 0.109206)
(-8.95825e-05 5.57561e-05 0.108144)
(5.57439e-05 -8.97034e-05 0.108144)
(-0.00014227 -0.00014229 0.106658)
(5.85155e-05 5.856e-05 0.109494)
(-8.73297e-05 5.45394e-05 0.108303)
(5.45105e-05 -8.7414e-05 0.108303)
(-0.000138008 -0.000138027 0.106657)
(5.72804e-05 5.73106e-05 0.109773)
(-8.49408e-05 5.32744e-05 0.108444)
(5.32271e-05 -8.50055e-05 0.108444)
(-0.00013341 -0.000133391 0.106633)
(5.59906e-05 5.60039e-05 0.110042)
(-8.24098e-05 5.19574e-05 0.108565)
(5.19046e-05 -8.24362e-05 0.108565)
(-0.00012857 -0.000128533 0.10659)
(5.46431e-05 5.46432e-05 0.110302)
(-7.97475e-05 5.05448e-05 0.108669)
(5.04873e-05 -7.97571e-05 0.108668)
(-0.000123482 -0.000123456 0.106529)
(5.3253e-05 5.32247e-05 0.110552)
(-7.69171e-05 4.89771e-05 0.108754)
(4.89342e-05 -7.6934e-05 0.108754)
(-0.00011829 -0.000118275 0.106454)
(5.18307e-05 5.17733e-05 0.110791)
(-7.39724e-05 4.72662e-05 0.108821)
(4.72268e-05 -7.39952e-05 0.108821)
(-0.00011303 -0.00011307 0.106369)
(5.03864e-05 5.03299e-05 0.11102)
(-7.09108e-05 4.54856e-05 0.108872)
(4.54526e-05 -7.09745e-05 0.108872)
(-0.000107833 -0.000107914 0.106275)
(4.89726e-05 4.89063e-05 0.111238)
(-6.7824e-05 4.36031e-05 0.108908)
(4.36147e-05 -6.79082e-05 0.108908)
(-0.00010277 -0.000102872 0.106177)
(4.76043e-05 4.75289e-05 0.111445)
(-6.47982e-05 4.1751e-05 0.10893)
(4.17323e-05 -6.48661e-05 0.108929)
(-9.80285e-05 -9.81296e-05 0.106076)
(4.63082e-05 4.62432e-05 0.111641)
(-6.18929e-05 3.98371e-05 0.10894)
(3.98264e-05 -6.19393e-05 0.108939)
(-9.3601e-05 -9.3678e-05 0.105975)
(4.51554e-05 4.5088e-05 0.111827)
(-5.91701e-05 3.79922e-05 0.108939)
(3.79442e-05 -5.92273e-05 0.108939)
(-8.95732e-05 -8.96443e-05 0.105875)
(4.41251e-05 4.40581e-05 0.112004)
(-5.66913e-05 3.61991e-05 0.108931)
(3.61545e-05 -5.67675e-05 0.10893)
(-8.60326e-05 -8.61253e-05 0.105779)
(4.31742e-05 4.31089e-05 0.112171)
(-5.4421e-05 3.44846e-05 0.108917)
(3.44649e-05 -5.45169e-05 0.108916)
(-8.28334e-05 -8.29444e-05 0.105688)
(4.21949e-05 4.21509e-05 0.112329)
(-5.22247e-05 3.28166e-05 0.108899)
(3.27748e-05 -5.23244e-05 0.108898)
(-7.99683e-05 -8.00823e-05 0.105603)
(4.10355e-05 4.10394e-05 0.112477)
(-4.99412e-05 3.11542e-05 0.108879)
(3.10467e-05 -4.99951e-05 0.108878)
(-7.7261e-05 -7.73278e-05 0.105523)
(3.95334e-05 3.96143e-05 0.112616)
(-4.73455e-05 2.94285e-05 0.108857)
(2.91829e-05 -4.7283e-05 0.108856)
(-7.44438e-05 -7.43597e-05 0.105451)
(3.73546e-05 3.75339e-05 0.112742)
(-4.40564e-05 2.7443e-05 0.108835)
(2.71379e-05 -4.38797e-05 0.108833)
(-7.15847e-05 -7.12277e-05 0.105384)
(3.44198e-05 3.46543e-05 0.112855)
(-3.98931e-05 2.49101e-05 0.108812)
(2.4643e-05 -3.95481e-05 0.10881)
(-6.82573e-05 -6.77429e-05 0.105323)
(3.08969e-05 3.10415e-05 0.112953)
(-3.48485e-05 2.16834e-05 0.108787)
(2.17133e-05 -3.44404e-05 0.108785)
(-6.41122e-05 -6.34795e-05 0.105266)
(2.71529e-05 2.70587e-05 0.113032)
(-2.92863e-05 1.8018e-05 0.108759)
(1.82734e-05 -2.89365e-05 0.108756)
(-5.95699e-05 -5.90858e-05 0.105213)
(2.33335e-05 2.27768e-05 0.113094)
(-2.37561e-05 1.46926e-05 0.108728)
(1.51611e-05 -2.36684e-05 0.108724)
(-5.4728e-05 -5.49906e-05 0.105163)
(1.97019e-05 1.88442e-05 0.11314)
(-1.85302e-05 1.16331e-05 0.108695)
(1.22102e-05 -1.88784e-05 0.108689)
(-5.05605e-05 -5.14032e-05 0.105116)
(1.61935e-05 1.54354e-05 0.113172)
(-1.42295e-05 9.12421e-06 0.10866)
(9.29871e-06 -1.47424e-05 0.108654)
(-4.73949e-05 -4.84119e-05 0.105073)
(1.25924e-05 1.23454e-05 0.113193)
(-1.08861e-05 6.95202e-06 0.108626)
(6.86777e-06 -1.1177e-05 0.108619)
(-4.53996e-05 -4.59145e-05 0.105033)
(0.000138179 0.000138298 0.100282)
(0.000126617 0.000160139 0.10023)
(-0.000126621 0.000160048 0.10023)
(-0.00013822 0.00013814 0.100282)
(0.000160068 0.000126644 0.10023)
(0.000160075 -0.000126583 0.10023)
(9.36709e-05 9.36826e-05 0.100152)
(-9.36838e-05 9.36415e-05 0.100152)
(9.36389e-05 -9.36705e-05 0.100152)
(-9.36819e-05 -9.37151e-05 0.100152)
(-0.000160097 0.000126562 0.10023)
(-0.000160133 -0.000126623 0.10023)
(0.000138225 -0.000138214 0.100282)
(0.000126567 -0.000160056 0.10023)
(-0.000126614 -0.000160101 0.10023)
(-0.000138269 -0.000138128 0.100282)
(0.000248153 0.000248224 0.100398)
(0.000112694 0.000112631 0.100897)
(0.000115538 0.000184854 0.100391)
(-0.000115467 0.000184862 0.100391)
(9.30768e-05 0.000148921 0.100817)
(-9.29394e-05 0.000148943 0.100817)
(-0.00024806 0.000248034 0.100398)
(-0.000112542 0.000112458 0.100897)
(0.000184922 0.00011548 0.10039)
(0.000184951 -0.000115546 0.100391)
(0.000148893 9.30672e-05 0.100817)
(0.000148865 -9.30341e-05 0.100817)
(-0.000184892 -0.000115563 0.100391)
(-0.000148831 9.29779e-05 0.100817)
(-0.000148903 -9.29661e-05 0.100817)
(0.000248128 -0.000248171 0.100398)
(0.000112583 -0.000112685 0.100897)
(-0.000115489 -0.000184925 0.100391)
(9.30073e-05 -0.000148854 0.100817)
(-9.29941e-05 -0.000148756 0.100817)
(-0.000112641 -0.000112637 0.100897)
(0.000194395 0.000194302 0.100971)
(0.000105488 0.000105417 0.1014)
(9.3574e-05 0.000151461 0.100938)
(-9.34795e-05 0.000151482 0.100938)
(9.14987e-05 0.000152259 0.10132)
(-9.14468e-05 0.000152295 0.10132)
(-0.000194237 0.000194147 0.100971)
(-0.000105442 0.000105335 0.101399)
(0.000151427 9.35774e-05 0.100939)
(0.000151378 -9.35246e-05 0.100938)
(0.000152258 9.15153e-05 0.10132)
(0.000152215 -9.14393e-05 0.10132)
(-0.000151446 -9.34934e-05 0.100938)
(-0.000152199 9.15004e-05 0.10132)
(-0.000152287 -9.1455e-05 0.10132)
(0.000194238 -0.000194369 0.100971)
(0.000105346 -0.000105452 0.101399)
(-9.35464e-05 -0.000151306 0.100939)
(9.14779e-05 -0.000152212 0.10132)
(-9.15123e-05 -0.000152185 0.10132)
(-0.000105491 -0.000105414 0.101399)
(0.000194891 0.000194802 0.101475)
(9.77736e-05 9.77277e-05 0.101897)
(9.09465e-05 0.00015236 0.101448)
(-9.09065e-05 0.000152379 0.101448)
(8.83316e-05 0.00015048 0.101829)
(-8.82357e-05 0.000150455 0.101829)
(-0.000194813 0.000194712 0.101475)
(-9.76842e-05 9.75862e-05 0.101897)
(0.000152361 9.09741e-05 0.101448)
(0.000152316 -9.08957e-05 0.101448)
(0.000150461 8.83549e-05 0.101829)
(0.000150446 -8.82587e-05 0.101829)
(-0.000152394 -9.09425e-05 0.101448)
(-0.000150428 8.82746e-05 0.101829)
(-0.000150501 -8.83371e-05 0.101829)
(0.000194728 -0.000194842 0.101475)
(9.76457e-05 -9.77577e-05 0.101897)
(-9.10083e-05 -0.0001523 0.101448)
(8.83397e-05 -0.000150402 0.101829)
(-8.83824e-05 -0.000150429 0.101829)
(-9.77982e-05 -9.7742e-05 0.101897)
(0.000192239 0.000192166 0.101968)
(8.84556e-05 8.84215e-05 0.102371)
(8.72033e-05 0.000149323 0.101954)
(-8.71013e-05 0.000149293 0.101954)
(8.3652e-05 0.00014518 0.102323)
(-8.35357e-05 0.000145157 0.102322)
(-0.000192121 0.000192035 0.101968)
(-8.83802e-05 8.83004e-05 0.102371)
(0.0001493 8.72188e-05 0.101954)
(0.000149301 -8.71329e-05 0.101954)
(0.000145142 8.36678e-05 0.102323)
(0.000145176 -8.35636e-05 0.102322)
(-0.000149341 -8.72117e-05 0.101954)
(-0.000145128 8.35849e-05 0.102322)
(-0.000145205 -8.3682e-05 0.102323)
(0.000192102 -0.000192197 0.101968)
(8.8392e-05 -8.84443e-05 0.102371)
(-8.72565e-05 -0.000149278 0.101954)
(8.36905e-05 -0.000145124 0.102322)
(-8.37201e-05 -0.000145147 0.102323)
(-8.85044e-05 -8.84678e-05 0.102371)
(0.000186977 0.0001869 0.102436)
(7.96508e-05 7.96767e-05 0.102817)
(8.24647e-05 0.000143681 0.102442)
(-8.23775e-05 0.000143667 0.102442)
(7.93386e-05 0.00013924 0.102793)
(-7.9309e-05 0.00013922 0.102793)
(-0.000186882 0.000186774 0.102436)
(-7.96437e-05 7.96248e-05 0.102817)
(0.000143637 8.24721e-05 0.102442)
(0.000143671 -8.24016e-05 0.102442)
(0.000139154 7.93506e-05 0.102793)
(0.000139182 -7.93144e-05 0.102793)
(-0.000143705 -8.24826e-05 0.102442)
(-0.000139203 7.92879e-05 0.102793)
(-0.000139255 -7.93437e-05 0.102793)
(0.00018686 -0.000186953 0.102436)
(7.96674e-05 -7.96499e-05 0.102817)
(-8.25303e-05 -0.000143645 0.102442)
(7.93456e-05 -0.000139187 0.102793)
(-7.93699e-05 -0.000139183 0.102793)
(-7.97171e-05 -7.96459e-05 0.102817)
(0.000181561 0.000181535 0.102875)
(7.18708e-05 7.1937e-05 0.103234)
(7.83909e-05 0.000137799 0.102907)
(-7.83788e-05 0.000137781 0.102907)
(7.58693e-05 0.000133709 0.10324)
(-7.58731e-05 0.00013364 0.10324)
(-0.000181525 0.000181455 0.102875)
(-7.19038e-05 7.18602e-05 0.103234)
(0.000137701 7.84079e-05 0.102907)
(0.000137726 -7.83765e-05 0.102907)
(0.000133555 7.5903e-05 0.10324)
(0.000133595 -7.58715e-05 0.10324)
(-0.000137811 -7.84008e-05 0.102907)
(-0.000133654 7.58284e-05 0.10324)
(-0.000133703 -7.5891e-05 0.10324)
(0.000181495 -0.000181561 0.102875)
(7.1896e-05 -7.189e-05 0.103234)
(-7.84258e-05 -0.000137739 0.102907)
(7.58634e-05 -0.000133606 0.10324)
(-7.59181e-05 -0.000133626 0.10324)
(-7.19616e-05 -7.1906e-05 0.103234)
(0.000176899 0.000176914 0.103285)
(6.50425e-05 6.51274e-05 0.103626)
(7.51191e-05 0.000132419 0.103349)
(-7.51217e-05 0.000132337 0.103349)
(7.31471e-05 0.000128815 0.103665)
(-7.31449e-05 0.000128711 0.103665)
(-0.000176892 0.000176804 0.103285)
(-6.50833e-05 6.50435e-05 0.103626)
(0.000132252 7.51549e-05 0.103349)
(0.000132298 -7.51186e-05 0.103349)
(0.000128626 7.31847e-05 0.103665)
(0.000128688 -7.3134e-05 0.103665)
(-0.000132407 -7.51376e-05 0.103349)
(-0.000128735 7.31009e-05 0.103665)
(-0.000128795 -7.31537e-05 0.103665)
(0.000176841 -0.000176911 0.103285)
(6.509e-05 -6.50509e-05 0.103626)
(-7.51642e-05 -0.000132324 0.103349)
(7.3135e-05 -0.000128653 0.103665)
(-7.31834e-05 -0.000128693 0.103665)
(-6.51365e-05 -6.50794e-05 0.103626)
(0.000173142 0.00017315 0.103668)
(5.91222e-05 5.92078e-05 0.103993)
(7.25608e-05 0.000127678 0.103768)
(-7.25565e-05 0.000127583 0.103768)
(7.10428e-05 0.000124541 0.10407)
(-7.10111e-05 0.000124454 0.10407)
(-0.000173133 0.000173044 0.103668)
(-5.91251e-05 5.91532e-05 0.103993)
(0.000127506 7.2594e-05 0.103768)
(0.000127563 -7.2544e-05 0.103768)
(0.000124411 7.10555e-05 0.10407)
(0.000124438 -7.09957e-05 0.10407)
(-0.00012767 -7.25632e-05 0.103768)
(-0.000124481 7.09742e-05 0.10407)
(-0.000124531 -7.10044e-05 0.10407)
(0.000173093 -0.000173139 0.103668)
(5.92016e-05 -5.90905e-05 0.103993)
(-7.25911e-05 -0.000127565 0.103768)
(7.1011e-05 -0.000124386 0.10407)
(-7.10245e-05 -0.000124424 0.10407)
(-5.91732e-05 -5.91073e-05 0.103993)
(0.000170271 0.000170185 0.104027)
(5.41923e-05 5.43344e-05 0.104338)
(7.0637e-05 0.000123581 0.104168)
(-7.05968e-05 0.000123491 0.104168)
(6.97055e-05 0.000120937 0.104456)
(-6.96358e-05 0.000120838 0.104456)
(-0.000170211 0.0001701 0.104027)
(-5.41505e-05 5.42965e-05 0.104338)
(0.000123461 7.06193e-05 0.104168)
(0.00012347 -7.05804e-05 0.104168)
(0.000120824 6.95876e-05 0.104456)
(0.00012079 -6.96045e-05 0.104456)
(-0.000123556 -7.05429e-05 0.104168)
(-0.000120847 6.95064e-05 0.104457)
(-0.000120858 -6.94803e-05 0.104456)
(0.00017014 -0.00017024 0.104027)
(5.42923e-05 -5.40463e-05 0.104338)
(-7.05548e-05 -0.000123455 0.104168)
(6.94498e-05 -0.000120751 0.104456)
(-6.94202e-05 -0.000120778 0.104457)
(-5.41497e-05 -5.40508e-05 0.104338)
(0.000168211 0.000168177 0.104363)
(4.97782e-05 4.99036e-05 0.104663)
(6.94201e-05 0.000120114 0.104551)
(-6.93461e-05 0.000120006 0.10455)
(6.867e-05 0.000117778 0.104827)
(-6.85592e-05 0.000117643 0.104827)
(-0.000168112 0.000168096 0.104363)
(-4.96588e-05 4.98302e-05 0.104663)
(0.000119998 6.92984e-05 0.104551)
(0.000119952 -6.93224e-05 0.10455)
(0.000117628 6.8541e-05 0.104827)
(0.000117569 -6.85579e-05 0.104827)
(-0.000120026 -6.91987e-05 0.10455)
(-0.000117627 6.8399e-05 0.104827)
(-0.000117655 -6.84393e-05 0.104827)
(0.000168091 -0.000168099 0.104363)
(4.98046e-05 -4.96505e-05 0.104663)
(-6.91241e-05 -0.000119953 0.104551)
(6.83597e-05 -0.000117548 0.104827)
(-6.83467e-05 -0.0001176 0.104827)
(-4.97169e-05 -4.96778e-05 0.104663)
(0.000166677 0.000166654 0.104678)
(4.55677e-05 4.56482e-05 0.104968)
(6.8401e-05 0.000117004 0.104917)
(-6.83005e-05 0.000116872 0.104917)
(6.76491e-05 0.000114769 0.105182)
(-6.75587e-05 0.000114635 0.105182)
(-0.000166537 0.000166543 0.104678)
(-4.54807e-05 4.55976e-05 0.104968)
(0.000116852 6.82775e-05 0.104917)
(0.000116797 -6.83003e-05 0.104917)
(0.000114609 6.75261e-05 0.105182)
(0.000114566 -6.75554e-05 0.105182)
(-0.000116891 -6.81882e-05 0.104917)
(-0.000114625 6.73776e-05 0.105182)
(-0.000114662 -6.74444e-05 0.105182)
(0.000166525 -0.00016657 0.104678)
(4.5574e-05 -4.54803e-05 0.104968)
(-6.80924e-05 -0.000116839 0.104917)
(6.73648e-05 -0.00011454 0.105182)
(-6.7356e-05 -0.000114607 0.105182)
(-4.55215e-05 -4.55236e-05 0.104968)
(0.000165331 0.00016529 0.104972)
(4.16127e-05 4.16212e-05 0.105254)
(6.73922e-05 0.000114038 0.105269)
(-6.73064e-05 0.000113895 0.105269)
(6.66441e-05 0.000111973 0.105523)
(-6.65523e-05 0.000111866 0.105523)
(-0.000165209 0.000165195 0.104972)
(-4.15668e-05 4.15985e-05 0.105254)
(0.000113871 6.72757e-05 0.105269)
(0.000113834 -6.73027e-05 0.105269)
(0.000111858 6.65362e-05 0.105524)
(0.000111842 -6.6544e-05 0.105523)
(-0.000113937 -6.7193e-05 0.105269)
(-0.000111862 6.6376e-05 0.105524)
(-0.000111891 -6.64273e-05 0.105523)
(0.000165194 -0.000165249 0.104972)
(4.15857e-05 -4.15482e-05 0.105254)
(-6.71089e-05 -0.000113883 0.105269)
(6.64096e-05 -0.0001118 0.105523)
(-6.63727e-05 -0.000111833 0.105524)
(-4.15463e-05 -4.15832e-05 0.105254)
(0.000164188 0.000164088 0.105246)
(3.76559e-05 3.77347e-05 0.10552)
(6.63743e-05 0.000111323 0.105607)
(-6.62875e-05 0.000111226 0.105606)
(6.55998e-05 0.000109444 0.105851)
(-6.55244e-05 0.00010935 0.10585)
(-0.000164133 0.00016402 0.105246)
(-3.75564e-05 3.76661e-05 0.105519)
(0.000111224 6.62796e-05 0.105607)
(0.000111207 -6.62764e-05 0.105606)
(0.000109377 6.54591e-05 0.105851)
(0.000109372 -6.55074e-05 0.10585)
(-0.000111253 -6.61648e-05 0.105606)
(-0.000109351 6.5298e-05 0.105851)
(-0.000109385 -6.53869e-05 0.10585)
(0.000164042 -0.000164155 0.105246)
(3.77336e-05 -3.75321e-05 0.105519)
(-6.61149e-05 -0.000111193 0.105607)
(6.53573e-05 -0.000109307 0.10585)
(-6.52971e-05 -0.000109325 0.105851)
(-3.76214e-05 -3.75656e-05 0.105519)
(0.000163144 0.000163048 0.105498)
(3.35188e-05 3.35918e-05 0.105764)
(6.53311e-05 0.000108816 0.10593)
(-6.5259e-05 0.000108735 0.10593)
(6.45859e-05 0.000106979 0.106163)
(-6.45195e-05 0.000106905 0.106163)
(-0.000163053 0.000162963 0.105498)
(-3.3366e-05 3.352e-05 0.105764)
(0.000108768 6.51857e-05 0.10593)
(0.00010876 -6.52407e-05 0.10593)
(0.00010696 6.43929e-05 0.106163)
(0.000106958 -6.45015e-05 0.106163)
(-0.000108767 -6.51267e-05 0.10593)
(-0.000106896 6.42349e-05 0.106163)
(-0.000106938 -6.4381e-05 0.106163)
(0.000163011 -0.000163058 0.105498)
(3.36538e-05 -3.33562e-05 0.105764)
(-6.50314e-05 -0.000108708 0.10593)
(6.42923e-05 -0.000106873 0.106163)
(-6.42301e-05 -0.000106883 0.106163)
(-3.34622e-05 -3.33749e-05 0.105764)
(0.000161886 0.000161796 0.105728)
(2.94233e-05 2.94242e-05 0.105987)
(6.43302e-05 0.000106355 0.106239)
(-6.42695e-05 0.000106299 0.106239)
(6.35797e-05 0.000104562 0.106462)
(-6.3546e-05 0.000104512 0.106461)
(-0.000161767 0.000161717 0.105728)
(-2.92938e-05 2.93935e-05 0.105987)
(0.000106354 6.41308e-05 0.106239)
(0.00010635 -6.42492e-05 0.106239)
(0.000104578 6.33773e-05 0.106462)
(0.000104579 -6.35158e-05 0.106461)
(-0.000106326 -6.4133e-05 0.106239)
(-0.000104498 6.32423e-05 0.106462)
(-0.000104537 -6.33958e-05 0.106462)
(0.000161811 -0.000161788 0.105728)
(2.95153e-05 -2.92797e-05 0.105987)
(-6.39726e-05 -0.000106279 0.106239)
(6.3282e-05 -0.000104485 0.106461)
(-6.32216e-05 -0.000104499 0.106462)
(-2.9306e-05 -2.92849e-05 0.105987)
(0.000160398 0.000160257 0.105935)
(2.55514e-05 2.5536e-05 0.106186)
(6.33183e-05 0.000103941 0.106534)
(-6.32829e-05 0.00010391 0.106534)
(6.25537e-05 0.000102205 0.106745)
(-6.25333e-05 0.000102161 0.106745)
(-0.000160285 0.000160214 0.105935)
(-2.54487e-05 2.54825e-05 0.106186)
(0.000103982 6.31178e-05 0.106534)
(0.00010398 -6.32599e-05 0.106533)
(0.000102235 6.23684e-05 0.106745)
(0.000102241 -6.25156e-05 0.106744)
(-0.000103942 -6.31491e-05 0.106534)
(-0.000102152 6.22312e-05 0.106745)
(-0.000102189 -6.23929e-05 0.106745)
(0.000160316 -0.000160323 0.105935)
(2.56123e-05 -2.54295e-05 0.106186)
(-6.29695e-05 -0.000103908 0.106534)
(6.22763e-05 -0.00010215 0.106745)
(-6.22106e-05 -0.000102158 0.106745)
(-2.54171e-05 -2.54383e-05 0.106186)
(0.000158765 0.000158623 0.106117)
(2.19787e-05 2.20048e-05 0.106361)
(6.22866e-05 0.000101594 0.106813)
(-6.22653e-05 0.000101585 0.106813)
(6.15285e-05 9.9957e-05 0.107013)
(-6.14993e-05 9.98737e-05 0.107012)
(-0.000158675 0.000158578 0.106117)
(-2.18784e-05 2.18975e-05 0.106361)
(0.000101638 6.21098e-05 0.106813)
(0.000101651 -6.22536e-05 0.106813)
(9.99586e-05 6.13834e-05 0.107013)
(9.99812e-05 -6.15194e-05 0.107012)
(-0.000101611 -6.21358e-05 0.106813)
(-9.98433e-05 6.12284e-05 0.107013)
(-9.98883e-05 -6.13731e-05 0.107013)
(0.000158679 -0.000158709 0.106117)
(2.20403e-05 -2.18944e-05 0.106361)
(-6.19533e-05 -0.000101577 0.106813)
(6.1281e-05 -9.98967e-05 0.107013)
(-6.12015e-05 -9.98459e-05 0.107013)
(-2.18532e-05 -2.18796e-05 0.106361)
(0.000156931 0.000156839 0.106274)
(1.86397e-05 1.87372e-05 0.10651)
(6.12783e-05 9.94471e-05 0.107077)
(-6.12426e-05 9.93431e-05 0.107077)
(6.0556e-05 9.8003e-05 0.107265)
(-6.05275e-05 9.78619e-05 0.107264)
(-0.00015685 0.000156769 0.106274)
(-1.85719e-05 1.86028e-05 0.10651)
(9.9445e-05 6.11453e-05 0.107077)
(9.94731e-05 -6.12758e-05 0.107077)
(9.79479e-05 6.04592e-05 0.107265)
(9.79893e-05 -6.05683e-05 0.107264)
(-9.93496e-05 -6.11238e-05 0.107077)
(-9.7797e-05 6.02983e-05 0.107265)
(-9.78436e-05 -6.04012e-05 0.107265)
(0.000156866 -0.00015692 0.106274)
(1.87262e-05 -1.86079e-05 0.106509)
(-6.09552e-05 -9.92948e-05 0.107077)
(6.03376e-05 -9.791e-05 0.107265)
(-6.02374e-05 -9.77766e-05 0.107265)
(-1.85375e-05 -1.8572e-05 0.10651)
(0.00015485 0.000154831 0.106405)
(1.54865e-05 1.56399e-05 0.106632)
(6.03009e-05 9.7546e-05 0.107325)
(-6.02778e-05 9.73922e-05 0.107325)
(5.95721e-05 9.61033e-05 0.1075)
(-5.95561e-05 9.60147e-05 0.1075)
(-0.000154787 0.000154736 0.106405)
(-1.54501e-05 1.55256e-05 0.106632)
(9.74614e-05 6.02245e-05 0.107325)
(9.75079e-05 -6.03196e-05 0.107325)
(9.60256e-05 5.95029e-05 0.1075)
(9.60886e-05 -5.95982e-05 0.107499)
(-9.73637e-05 -6.0152e-05 0.107325)
(-9.5911e-05 5.93383e-05 0.1075)
(-9.59452e-05 -5.94223e-05 0.1075)
(0.000154794 -0.000154863 0.106405)
(1.56058e-05 -1.55011e-05 0.106631)
(-5.99897e-05 -9.72943e-05 0.107325)
(5.93733e-05 -9.60272e-05 0.1075)
(-5.92815e-05 -9.58854e-05 0.1075)
(-1.54417e-05 -1.54491e-05 0.106631)
(0.000152392 0.000152429 0.106509)
(1.25439e-05 1.26947e-05 0.106726)
(5.9308e-05 9.56322e-05 0.107556)
(-5.93057e-05 9.55632e-05 0.107556)
(5.85368e-05 9.41907e-05 0.107718)
(-5.85522e-05 9.42174e-05 0.107718)
(-0.000152335 0.000152322 0.106509)
(-1.25514e-05 1.25698e-05 0.106726)
(9.55606e-05 5.92456e-05 0.107556)
(9.56248e-05 -5.93544e-05 0.107556)
(9.4147e-05 5.84706e-05 0.107718)
(9.42301e-05 -5.85875e-05 0.107718)
(-9.54943e-05 -5.91826e-05 0.107556)
(-9.40854e-05 5.83464e-05 0.107718)
(-9.41082e-05 -5.84092e-05 0.107718)
(0.000152375 -0.000152443 0.106509)
(1.26434e-05 -1.25604e-05 0.106725)
(-5.90441e-05 -9.54275e-05 0.107556)
(5.83606e-05 -9.41827e-05 0.107718)
(-5.82758e-05 -9.40394e-05 0.107718)
(-1.25127e-05 -1.25096e-05 0.106725)
(0.000149513 0.000149571 0.106585)
(9.69723e-06 9.77376e-06 0.106792)
(5.8261e-05 9.37232e-05 0.10777)
(-5.82767e-05 9.37707e-05 0.10777)
(5.73583e-05 9.22474e-05 0.107919)
(-5.74338e-05 9.23564e-05 0.107918)
(-0.000149494 0.000149457 0.106585)
(-9.66231e-06 9.72195e-06 0.106792)
(9.36971e-05 5.8204e-05 0.10777)
(9.37738e-05 -5.83204e-05 0.107769)
(9.22456e-05 5.73446e-05 0.107919)
(9.23272e-05 -5.74668e-05 0.107918)
(-9.36564e-05 -5.81468e-05 0.10777)
(-9.21895e-05 5.72514e-05 0.107919)
(-9.22277e-05 -5.72945e-05 0.107919)
(0.000149505 -0.00014958 0.106585)
(9.78115e-06 -9.72394e-06 0.106791)
(-5.80187e-05 -9.35801e-05 0.10777)
(5.72586e-05 -9.2294e-05 0.107919)
(-5.71733e-05 -9.21411e-05 0.107919)
(-9.65251e-06 -9.63283e-06 0.106792)
(0.00014617 0.000146144 0.106635)
(6.86492e-06 7.07117e-06 0.106831)
(5.70439e-05 9.17502e-05 0.107966)
(-5.71206e-05 9.1876e-05 0.107965)
(5.6171e-05 9.02077e-05 0.108101)
(-5.62343e-05 9.03514e-05 0.1081)
(-0.000146162 0.000146164 0.106634)
(-6.92873e-06 6.99845e-06 0.106831)
(9.17614e-05 5.70408e-05 0.107966)
(9.18362e-05 -5.71575e-05 0.107965)
(9.02104e-05 5.61443e-05 0.108101)
(9.0302e-05 -5.62427e-05 0.1081)
(-9.17435e-05 -5.69882e-05 0.107966)
(-9.01458e-05 5.60584e-05 0.108101)
(-9.02098e-05 -5.60835e-05 0.108101)
(0.000146153 -0.000146255 0.106634)
(7.022e-06 -6.89536e-06 0.10683)
(-5.68733e-05 -9.16413e-05 0.107966)
(5.60602e-05 -9.02586e-05 0.108101)
(-5.59949e-05 -9.00936e-05 0.108101)
(-6.91401e-06 -6.86868e-06 0.10683)
(0.000142253 0.000142297 0.106658)
(4.23365e-06 4.45279e-06 0.106844)
(5.58765e-05 8.96646e-05 0.108144)
(-5.59436e-05 8.98137e-05 0.108143)
(5.49608e-05 8.7956e-05 0.108265)
(-5.50408e-05 8.81272e-05 0.108264)
(-0.000142266 0.000142276 0.106658)
(-4.30953e-06 4.37899e-06 0.106844)
(8.96769e-05 5.58376e-05 0.108144)
(8.97652e-05 -5.5944e-05 0.108143)
(8.79777e-05 5.49309e-05 0.108265)
(8.80729e-05 -5.50385e-05 0.108264)
(-8.96725e-05 -5.57984e-05 0.108144)
(-8.79181e-05 5.48738e-05 0.108265)
(-8.79822e-05 -5.48879e-05 0.108265)
(0.000142296 -0.000142361 0.106658)
(4.38317e-06 -4.232e-06 0.106843)
(-5.5709e-05 -8.95281e-05 0.108144)
(5.48492e-05 -8.80097e-05 0.108265)
(-5.47961e-05 -8.78572e-05 0.108265)
(-4.27698e-06 -4.2445e-06 0.106843)
(0.000137995 0.000138012 0.106657)
(1.66193e-06 1.91568e-06 0.106832)
(5.4648e-05 8.7372e-05 0.108303)
(-5.47301e-05 8.75477e-05 0.108302)
(5.37347e-05 8.56021e-05 0.10841)
(-5.3784e-05 8.57803e-05 0.108409)
(-0.00013798 0.000137991 0.106657)
(-1.74876e-06 1.81392e-06 0.106832)
(8.74012e-05 5.46045e-05 0.108303)
(8.74945e-05 -5.47205e-05 0.108302)
(8.56437e-05 5.36509e-05 0.10841)
(8.57308e-05 -5.37574e-05 0.108409)
(-8.74072e-05 -5.45835e-05 0.108303)
(-8.55847e-05 5.36263e-05 0.10841)
(-8.56448e-05 -5.36308e-05 0.10841)
(0.000138011 -0.000138066 0.106657)
(1.85036e-06 -1.61966e-06 0.106831)
(-5.44913e-05 -8.72904e-05 0.108303)
(5.35732e-05 -8.56546e-05 0.10841)
(-5.35451e-05 -8.55355e-05 0.10841)
(-1.75321e-06 -1.6871e-06 0.106831)
(0.000133359 0.000133398 0.106633)
(-7.79041e-07 -6.0063e-07 0.106799)
(5.34158e-05 8.49815e-05 0.108443)
(-5.34668e-05 8.51619e-05 0.108442)
(5.24601e-05 8.30836e-05 0.108536)
(-5.25067e-05 8.32646e-05 0.108535)
(-0.000133363 0.000133377 0.106633)
(7.22555e-07 -6.89805e-07 0.106799)
(8.50299e-05 5.33156e-05 0.108444)
(8.51101e-05 -5.34289e-05 0.108442)
(8.31509e-05 5.23466e-05 0.108537)
(8.3222e-05 -5.24501e-05 0.108535)
(-8.50202e-05 -5.33118e-05 0.108443)
(-8.30956e-05 5.23407e-05 0.108537)
(-8.31311e-05 -5.23307e-05 0.108536)
(0.000133394 -0.000133386 0.106633)
(-6.30787e-07 8.6642e-07 0.106798)
(-5.3228e-05 -8.4917e-05 0.108443)
(5.22863e-05 -8.31311e-05 0.108537)
(-5.22606e-05 -8.30559e-05 0.108536)
(7.26496e-07 8.04097e-07 0.106798)
(0.000128545 0.000128537 0.10659)
(-3.26042e-06 -3.14838e-06 0.106746)
(5.2113e-05 8.24191e-05 0.108565)
(-5.21561e-05 8.25998e-05 0.108564)
(5.11031e-05 8.04494e-05 0.108644)
(-5.11175e-05 8.0632e-05 0.108643)
(-0.000128543 0.00012853 0.10659)
(3.22153e-06 -3.20457e-06 0.106747)
(8.24948e-05 5.19926e-05 0.108566)
(8.25601e-05 -5.20902e-05 0.108564)
(8.05342e-05 5.09746e-05 0.108644)
(8.05977e-05 -5.10572e-05 0.108643)
(-8.24674e-05 -5.19784e-05 0.108565)
(-8.04915e-05 5.09587e-05 0.108645)
(-8.04989e-05 -5.09397e-05 0.108644)
(0.000128549 -0.000128528 0.10659)
(-3.17471e-06 3.38527e-06 0.106746)
(-5.1913e-05 -8.23954e-05 0.108565)
(5.0912e-05 -8.05026e-05 0.108645)
(-5.0884e-05 -8.04361e-05 0.108644)
(3.24743e-06 3.30784e-06 0.106746)
(0.000123526 0.000123471 0.106529)
(-5.75114e-06 -5.66855e-06 0.106678)
(5.07214e-05 7.97425e-05 0.108668)
(-5.07438e-05 7.99237e-05 0.108667)
(4.96187e-05 7.76574e-05 0.108733)
(-4.96111e-05 7.78294e-05 0.108732)
(-0.000123519 0.000123489 0.106529)
(5.74098e-06 -5.71596e-06 0.106678)
(7.98334e-05 5.05809e-05 0.108669)
(7.98888e-05 -5.06748e-05 0.108667)
(7.77637e-05 4.94624e-05 0.108734)
(7.78006e-05 -4.95479e-05 0.108732)
(-7.97911e-05 -5.05584e-05 0.108668)
(-7.77133e-05 4.94618e-05 0.108734)
(-7.7703e-05 -4.94463e-05 0.108733)
(0.00012349 -0.000123485 0.106529)
(-5.71669e-06 5.85769e-06 0.106677)
(-5.0498e-05 -7.97326e-05 0.108668)
(4.94175e-05 -7.77269e-05 0.108734)
(-4.9377e-05 -7.76641e-05 0.108734)
(5.78131e-06 5.85049e-06 0.106677)
(0.000118346 0.000118275 0.106454)
(-8.35862e-06 -8.31264e-06 0.106597)
(4.91771e-05 7.69087e-05 0.108753)
(-4.91803e-05 7.70773e-05 0.108752)
(4.79706e-05 7.47478e-05 0.108805)
(-4.79515e-05 7.49025e-05 0.108804)
(-0.000118332 0.000118299 0.106454)
(8.36097e-06 -8.35163e-06 0.106597)
(7.70147e-05 4.90132e-05 0.108754)
(7.7048e-05 -4.91137e-05 0.108752)
(7.4867e-05 4.77935e-05 0.108806)
(7.48793e-05 -4.78995e-05 0.108804)
(-7.69466e-05 -4.90351e-05 0.108753)
(-7.48107e-05 4.7789e-05 0.108806)
(-7.47767e-05 -4.78096e-05 0.108805)
(0.000118282 -0.000118316 0.106454)
(-8.32901e-06 8.4374e-06 0.106597)
(-4.89511e-05 -7.69188e-05 0.108753)
(4.77496e-05 -7.483e-05 0.108806)
(-4.77019e-05 -7.47757e-05 0.108805)
(8.42242e-06 8.42152e-06 0.106597)
(0.000113134 0.000113043 0.106369)
(-1.09057e-05 -1.08561e-05 0.106507)
(4.74978e-05 7.39615e-05 0.10882)
(-4.74817e-05 7.41172e-05 0.10882)
(4.62141e-05 7.17293e-05 0.10886)
(-4.61765e-05 7.18756e-05 0.108859)
(-0.00011307 0.000113027 0.106369)
(1.09288e-05 -1.08999e-05 0.106507)
(7.40805e-05 4.73137e-05 0.108821)
(7.40918e-05 -4.7425e-05 0.108819)
(7.1856e-05 4.60321e-05 0.108861)
(7.18505e-05 -4.61595e-05 0.108859)
(-7.39825e-05 -4.7352e-05 0.10882)
(-7.17881e-05 4.60314e-05 0.108861)
(-7.17417e-05 -4.60691e-05 0.10886)
(0.000113006 -0.000113071 0.106369)
(-1.08859e-05 1.09504e-05 0.106506)
(-4.72337e-05 -7.39929e-05 0.108821)
(4.6e-05 -7.18323e-05 0.108861)
(-4.59393e-05 -7.17819e-05 0.10886)
(1.09624e-05 1.09225e-05 0.106506)
(0.000107918 0.000107841 0.106275)
(-1.33897e-05 -1.33511e-05 0.10641)
(4.56994e-05 7.09108e-05 0.108871)
(-4.56848e-05 7.10613e-05 0.108871)
(4.43823e-05 6.86588e-05 0.108899)
(-4.4335e-05 6.87937e-05 0.108899)