/*--------------------------------*- C++ -*----------------------------------*\
| =========                 |                                                 |
| \\      /  F ield         | OpenFOAM: The Open Source CFD Toolbox           |
|  \\    /   O peration     | Version:  v2012                                 |
|   \\  /    A nd           | Website:  www.openfoam.com                      |
|    \\/     M anipulation  |                                                 |
\*---------------------------------------------------------------------------*/
FoamFile
{
    version     2.0;
    format      ascii;
    class       volScalarField;
    location    "0.385";
    object      p;
}
// * * * * * * * * * * * * * * * * * * * * * * * * * * * * * * * * * * * * * //

dimensions      [0 2 -2 0 0 0 0];


internalField   nonuniform List<scalar> 
247104
(
1.84331e-06
1.8432e-06
1.84335e-06
1.84332e-06
1.84324e-06
1.84334e-06
1.84333e-06
1.84313e-06
1.84319e-06
1.84326e-06
1.84332e-06
1.84317e-06
1.84308e-06
1.84319e-06
1.84333e-06
1.84323e-06
1.84335e-06
1.84332e-06
1.84301e-06
1.84265e-06
1.84251e-06
1.84269e-06
1.84306e-06
1.84334e-06
1.84335e-06
1.84333e-06
1.84317e-06
1.84265e-06
1.84217e-06
1.842e-06
1.84222e-06
1.84272e-06
1.84321e-06
1.84333e-06
1.84331e-06
1.84324e-06
1.84308e-06
1.84251e-06
1.842e-06
1.84182e-06
1.84205e-06
1.84259e-06
1.84313e-06
1.84323e-06
1.84335e-06
1.84319e-06
1.84269e-06
1.84222e-06
1.84205e-06
1.84226e-06
1.84276e-06
1.84323e-06
1.84335e-06
1.84334e-06
1.84333e-06
1.84306e-06
1.84272e-06
1.84259e-06
1.84276e-06
1.84311e-06
1.84334e-06
1.84333e-06
1.84313e-06
1.84323e-06
1.84334e-06
1.84321e-06
1.84313e-06
1.84323e-06
1.84334e-06
1.8432e-06
1.84335e-06
1.84333e-06
1.84322e-06
1.84335e-06
1.84333e-06
1.8104e-06
1.8084e-06
1.8078e-06
1.80657e-06
1.80659e-06
1.80653e-06
1.80652e-06
1.80784e-06
1.80807e-06
1.80779e-06
1.80573e-06
1.80312e-06
1.8031e-06
1.8031e-06
1.80312e-06
1.80612e-06
1.80638e-06
1.80657e-06
1.80312e-06
1.80306e-06
1.80313e-06
1.80313e-06
1.80306e-06
1.80312e-06
1.80649e-06
1.8078e-06
1.8104e-06
1.80658e-06
1.8031e-06
1.80313e-06
1.80322e-06
1.80322e-06
1.80313e-06
1.8031e-06
1.8065e-06
1.80814e-06
1.8084e-06
1.80652e-06
1.8031e-06
1.80313e-06
1.80322e-06
1.80322e-06
1.80313e-06
1.8031e-06
1.80667e-06
1.80674e-06
1.80652e-06
1.80312e-06
1.80306e-06
1.80313e-06
1.80313e-06
1.80306e-06
1.80312e-06
1.80645e-06
1.80772e-06
1.80784e-06
1.80612e-06
1.80312e-06
1.8031e-06
1.8031e-06
1.80312e-06
1.80636e-06
1.80652e-06
1.80799e-06
1.80808e-06
1.80638e-06
1.8065e-06
1.8065e-06
1.80667e-06
1.80644e-06
1.80652e-06
1.80812e-06
1.80781e-06
1.80814e-06
1.80674e-06
1.80772e-06
1.80799e-06
1.79027e-06
1.7901e-06
1.78993e-06
1.78783e-06
1.78772e-06
1.78768e-06
1.78781e-06
1.78988e-06
1.79014e-06
1.78993e-06
1.78712e-06
1.78419e-06
1.78414e-06
1.78414e-06
1.78419e-06
1.7876e-06
1.78827e-06
1.78783e-06
1.78418e-06
1.78394e-06
1.78398e-06
1.78398e-06
1.78394e-06
1.78419e-06
1.7884e-06
1.79036e-06
1.79027e-06
1.78772e-06
1.78413e-06
1.78398e-06
1.78401e-06
1.78401e-06
1.78398e-06
1.78413e-06
1.78845e-06
1.79011e-06
1.7901e-06
1.78768e-06
1.78413e-06
1.78398e-06
1.78401e-06
1.78401e-06
1.78398e-06
1.78414e-06
1.7884e-06
1.78841e-06
1.7878e-06
1.78418e-06
1.78394e-06
1.78398e-06
1.78398e-06
1.78394e-06
1.78419e-06
1.78845e-06
1.79044e-06
1.78988e-06
1.7876e-06
1.78419e-06
1.78413e-06
1.78414e-06
1.78418e-06
1.78807e-06
1.78838e-06
1.79036e-06
1.79015e-06
1.78827e-06
1.7884e-06
1.78845e-06
1.7884e-06
1.78844e-06
1.78837e-06
1.79023e-06
1.79036e-06
1.79011e-06
1.7884e-06
1.79044e-06
1.79036e-06
1.77134e-06
1.77117e-06
1.77103e-06
1.76888e-06
1.76878e-06
1.76869e-06
1.76888e-06
1.77097e-06
1.77124e-06
1.77103e-06
1.76816e-06
1.7652e-06
1.76518e-06
1.76518e-06
1.7652e-06
1.76861e-06
1.76938e-06
1.76888e-06
1.7652e-06
1.76509e-06
1.7651e-06
1.7651e-06
1.76509e-06
1.7652e-06
1.76948e-06
1.77143e-06
1.77134e-06
1.76878e-06
1.76517e-06
1.7651e-06
1.76511e-06
1.76511e-06
1.7651e-06
1.76518e-06
1.76953e-06
1.77118e-06
1.77117e-06
1.76869e-06
1.76518e-06
1.7651e-06
1.76511e-06
1.76511e-06
1.7651e-06
1.76518e-06
1.7695e-06
1.76951e-06
1.76888e-06
1.7652e-06
1.76509e-06
1.7651e-06
1.7651e-06
1.76509e-06
1.7652e-06
1.76951e-06
1.7715e-06
1.77097e-06
1.76861e-06
1.7652e-06
1.76517e-06
1.76517e-06
1.7652e-06
1.76925e-06
1.76949e-06
1.77146e-06
1.77124e-06
1.76938e-06
1.76948e-06
1.76953e-06
1.7695e-06
1.76951e-06
1.76949e-06
1.77147e-06
1.77143e-06
1.77117e-06
1.7695e-06
1.77149e-06
1.77146e-06
1.7524e-06
1.75223e-06
1.75207e-06
1.74992e-06
1.7498e-06
1.74971e-06
1.7499e-06
1.75201e-06
1.75228e-06
1.75207e-06
1.7492e-06
1.74622e-06
1.74621e-06
1.74621e-06
1.74622e-06
1.74961e-06
1.75042e-06
1.74992e-06
1.74622e-06
1.74619e-06
1.74619e-06
1.74619e-06
1.74619e-06
1.74622e-06
1.75052e-06
1.75248e-06
1.7524e-06
1.7498e-06
1.74621e-06
1.74619e-06
1.74619e-06
1.74619e-06
1.74619e-06
1.74621e-06
1.7506e-06
1.75225e-06
1.75223e-06
1.74971e-06
1.74621e-06
1.74619e-06
1.74619e-06
1.74619e-06
1.74619e-06
1.74621e-06
1.75058e-06
1.75058e-06
1.7499e-06
1.74622e-06
1.74619e-06
1.74619e-06
1.74619e-06
1.74619e-06
1.74622e-06
1.75057e-06
1.75257e-06
1.75201e-06
1.74961e-06
1.74622e-06
1.74621e-06
1.74621e-06
1.74622e-06
1.75033e-06
1.75055e-06
1.7525e-06
1.75228e-06
1.75042e-06
1.75052e-06
1.7506e-06
1.75057e-06
1.75057e-06
1.75055e-06
1.7525e-06
1.75247e-06
1.75225e-06
1.75058e-06
1.75257e-06
1.7525e-06
1.73344e-06
1.73327e-06
1.7331e-06
1.73095e-06
1.73083e-06
1.73075e-06
1.73093e-06
1.73304e-06
1.73331e-06
1.7331e-06
1.73024e-06
1.72725e-06
1.72725e-06
1.72725e-06
1.72725e-06
1.73062e-06
1.73145e-06
1.73095e-06
1.72725e-06
1.72724e-06
1.72724e-06
1.72724e-06
1.72724e-06
1.72725e-06
1.73155e-06
1.73351e-06
1.73344e-06
1.73083e-06
1.72725e-06
1.72724e-06
1.72724e-06
1.72724e-06
1.72724e-06
1.72725e-06
1.73164e-06
1.7333e-06
1.73327e-06
1.73075e-06
1.72725e-06
1.72724e-06
1.72724e-06
1.72724e-06
1.72724e-06
1.72725e-06
1.73162e-06
1.73162e-06
1.73093e-06
1.72725e-06
1.72724e-06
1.72724e-06
1.72724e-06
1.72724e-06
1.72725e-06
1.73161e-06
1.73361e-06
1.73304e-06
1.73062e-06
1.72725e-06
1.72725e-06
1.72725e-06
1.72725e-06
1.73137e-06
1.73159e-06
1.73353e-06
1.73331e-06
1.73145e-06
1.73155e-06
1.73163e-06
1.73162e-06
1.73161e-06
1.7316e-06
1.73352e-06
1.73351e-06
1.7333e-06
1.73162e-06
1.73361e-06
1.73353e-06
1.71448e-06
1.71431e-06
1.71413e-06
1.71198e-06
1.71187e-06
1.71178e-06
1.71197e-06
1.71408e-06
1.71434e-06
1.71413e-06
1.71127e-06
1.70828e-06
1.70828e-06
1.70828e-06
1.70828e-06
1.71165e-06
1.71248e-06
1.71198e-06
1.70828e-06
1.70828e-06
1.70828e-06
1.70828e-06
1.70828e-06
1.70828e-06
1.71258e-06
1.71454e-06
1.71448e-06
1.71187e-06
1.70828e-06
1.70828e-06
1.70828e-06
1.70828e-06
1.70828e-06
1.70828e-06
1.71267e-06
1.71433e-06
1.71431e-06
1.71178e-06
1.70828e-06
1.70828e-06
1.70828e-06
1.70828e-06
1.70828e-06
1.70828e-06
1.71265e-06
1.71265e-06
1.71197e-06
1.70828e-06
1.70828e-06
1.70828e-06
1.70828e-06
1.70828e-06
1.70828e-06
1.71264e-06
1.71465e-06
1.71408e-06
1.71165e-06
1.70828e-06
1.70828e-06
1.70828e-06
1.70828e-06
1.71242e-06
1.71263e-06
1.71457e-06
1.71434e-06
1.71248e-06
1.71258e-06
1.71267e-06
1.71265e-06
1.71265e-06
1.71263e-06
1.71456e-06
1.71454e-06
1.71433e-06
1.71266e-06
1.71465e-06
1.71457e-06
1.69551e-06
1.69534e-06
1.69517e-06
1.69302e-06
1.6929e-06
1.69282e-06
1.693e-06
1.69511e-06
1.69538e-06
1.69517e-06
1.69231e-06
1.68932e-06
1.68932e-06
1.68932e-06
1.68932e-06
1.69269e-06
1.69352e-06
1.69302e-06
1.68932e-06
1.68932e-06
1.68932e-06
1.68932e-06
1.68932e-06
1.68932e-06
1.69361e-06
1.69558e-06
1.69551e-06
1.6929e-06
1.68932e-06
1.68932e-06
1.68932e-06
1.68932e-06
1.68932e-06
1.68932e-06
1.69371e-06
1.69537e-06
1.69534e-06
1.69282e-06
1.68932e-06
1.68932e-06
1.68932e-06
1.68932e-06
1.68932e-06
1.68932e-06
1.69369e-06
1.69369e-06
1.693e-06
1.68932e-06
1.68932e-06
1.68932e-06
1.68932e-06
1.68932e-06
1.68932e-06
1.69368e-06
1.69569e-06
1.69511e-06
1.69269e-06
1.68932e-06
1.68932e-06
1.68932e-06
1.68932e-06
1.69345e-06
1.69367e-06
1.69561e-06
1.69538e-06
1.69352e-06
1.69362e-06
1.69371e-06
1.69369e-06
1.69368e-06
1.69367e-06
1.6956e-06
1.69558e-06
1.69537e-06
1.69369e-06
1.69569e-06
1.69561e-06
1.67655e-06
1.67638e-06
1.6762e-06
1.67405e-06
1.67394e-06
1.67385e-06
1.67404e-06
1.67615e-06
1.67642e-06
1.6762e-06
1.67335e-06
1.67035e-06
1.67035e-06
1.67035e-06
1.67035e-06
1.67372e-06
1.67455e-06
1.67405e-06
1.67035e-06
1.67035e-06
1.67035e-06
1.67035e-06
1.67035e-06
1.67035e-06
1.67465e-06
1.67661e-06
1.67655e-06
1.67394e-06
1.67035e-06
1.67035e-06
1.67035e-06
1.67035e-06
1.67035e-06
1.67035e-06
1.67474e-06
1.67641e-06
1.67638e-06
1.67385e-06
1.67035e-06
1.67035e-06
1.67035e-06
1.67035e-06
1.67035e-06
1.67035e-06
1.67472e-06
1.67473e-06
1.67404e-06
1.67035e-06
1.67035e-06
1.67035e-06
1.67035e-06
1.67035e-06
1.67035e-06
1.67472e-06
1.67673e-06
1.67615e-06
1.67373e-06
1.67035e-06
1.67035e-06
1.67035e-06
1.67035e-06
1.67449e-06
1.67471e-06
1.67664e-06
1.67642e-06
1.67456e-06
1.67465e-06
1.67474e-06
1.67472e-06
1.67472e-06
1.67471e-06
1.67663e-06
1.67661e-06
1.67641e-06
1.67473e-06
1.67672e-06
1.67664e-06
1.65758e-06
1.65741e-06
1.65724e-06
1.65509e-06
1.65497e-06
1.65489e-06
1.65507e-06
1.65719e-06
1.65745e-06
1.65724e-06
1.65438e-06
1.65139e-06
1.65139e-06
1.65139e-06
1.65139e-06
1.65476e-06
1.65559e-06
1.65509e-06
1.65139e-06
1.65139e-06
1.65139e-06
1.65139e-06
1.65139e-06
1.65139e-06
1.65569e-06
1.65765e-06
1.65758e-06
1.65497e-06
1.65139e-06
1.65139e-06
1.65139e-06
1.65139e-06
1.65139e-06
1.65139e-06
1.65578e-06
1.65744e-06
1.65741e-06
1.65489e-06
1.65139e-06
1.65139e-06
1.65139e-06
1.65139e-06
1.65139e-06
1.65139e-06
1.65576e-06
1.65576e-06
1.65507e-06
1.65139e-06
1.65139e-06
1.65139e-06
1.65139e-06
1.65139e-06
1.65139e-06
1.65575e-06
1.65776e-06
1.65719e-06
1.65476e-06
1.65139e-06
1.65139e-06
1.65139e-06
1.65139e-06
1.65552e-06
1.65574e-06
1.65768e-06
1.65745e-06
1.65559e-06
1.65569e-06
1.65578e-06
1.65576e-06
1.65575e-06
1.65574e-06
1.65767e-06
1.65765e-06
1.65744e-06
1.65576e-06
1.65776e-06
1.65768e-06
1.63862e-06
1.63845e-06
1.63827e-06
1.63612e-06
1.63601e-06
1.63593e-06
1.63611e-06
1.63822e-06
1.63849e-06
1.63827e-06
1.63542e-06
1.63242e-06
1.63242e-06
1.63242e-06
1.63242e-06
1.63579e-06
1.63662e-06
1.63612e-06
1.63242e-06
1.63242e-06
1.63242e-06
1.63242e-06
1.63242e-06
1.63242e-06
1.63672e-06
1.63868e-06
1.63862e-06
1.63601e-06
1.63242e-06
1.63242e-06
1.63242e-06
1.63242e-06
1.63242e-06
1.63242e-06
1.63681e-06
1.63848e-06
1.63845e-06
1.63593e-06
1.63242e-06
1.63242e-06
1.63242e-06
1.63242e-06
1.63242e-06
1.63242e-06
1.63679e-06
1.6368e-06
1.63611e-06
1.63242e-06
1.63242e-06
1.63242e-06
1.63242e-06
1.63242e-06
1.63242e-06
1.63679e-06
1.6388e-06
1.63822e-06
1.6358e-06
1.63242e-06
1.63242e-06
1.63242e-06
1.63242e-06
1.63656e-06
1.63678e-06
1.63871e-06
1.63849e-06
1.63663e-06
1.63672e-06
1.63681e-06
1.63679e-06
1.63679e-06
1.63678e-06
1.6387e-06
1.63868e-06
1.63848e-06
1.6368e-06
1.6388e-06
1.63871e-06
1.61965e-06
1.61948e-06
1.61931e-06
1.61716e-06
1.61704e-06
1.61696e-06
1.61714e-06
1.61926e-06
1.61952e-06
1.61931e-06
1.61645e-06
1.61346e-06
1.61346e-06
1.61346e-06
1.61346e-06
1.61683e-06
1.61766e-06
1.61716e-06
1.61346e-06
1.61346e-06
1.61346e-06
1.61346e-06
1.61346e-06
1.61346e-06
1.61776e-06
1.61972e-06
1.61965e-06
1.61704e-06
1.61346e-06
1.61346e-06
1.61346e-06
1.61346e-06
1.61346e-06
1.61346e-06
1.61785e-06
1.61951e-06
1.61948e-06
1.61696e-06
1.61346e-06
1.61346e-06
1.61346e-06
1.61346e-06
1.61346e-06
1.61346e-06
1.61783e-06
1.61783e-06
1.61714e-06
1.61346e-06
1.61346e-06
1.61346e-06
1.61346e-06
1.61346e-06
1.61346e-06
1.61782e-06
1.61983e-06
1.61926e-06
1.61683e-06
1.61346e-06
1.61346e-06
1.61346e-06
1.61346e-06
1.61759e-06
1.61781e-06
1.61975e-06
1.61952e-06
1.61766e-06
1.61776e-06
1.61785e-06
1.61783e-06
1.61782e-06
1.61781e-06
1.61974e-06
1.61972e-06
1.61951e-06
1.61783e-06
1.61983e-06
1.61975e-06
1.60069e-06
1.60052e-06
1.60034e-06
1.59819e-06
1.59808e-06
1.598e-06
1.59818e-06
1.60029e-06
1.60056e-06
1.60034e-06
1.59749e-06
1.5945e-06
1.5945e-06
1.5945e-06
1.5945e-06
1.59787e-06
1.5987e-06
1.59819e-06
1.5945e-06
1.5945e-06
1.5945e-06
1.5945e-06
1.5945e-06
1.5945e-06
1.59879e-06
1.60075e-06
1.60069e-06
1.59808e-06
1.5945e-06
1.5945e-06
1.5945e-06
1.5945e-06
1.5945e-06
1.5945e-06
1.59889e-06
1.60055e-06
1.60052e-06
1.598e-06
1.5945e-06
1.5945e-06
1.5945e-06
1.5945e-06
1.5945e-06
1.5945e-06
1.59887e-06
1.59887e-06
1.59818e-06
1.5945e-06
1.5945e-06
1.5945e-06
1.5945e-06
1.5945e-06
1.5945e-06
1.59886e-06
1.60087e-06
1.60029e-06
1.59787e-06
1.5945e-06
1.5945e-06
1.5945e-06
1.5945e-06
1.59863e-06
1.59885e-06
1.60078e-06
1.60056e-06
1.5987e-06
1.59879e-06
1.59888e-06
1.59886e-06
1.59886e-06
1.59885e-06
1.60077e-06
1.60076e-06
1.60055e-06
1.59887e-06
1.60087e-06
1.60078e-06
1.58173e-06
1.58156e-06
1.58138e-06
1.57923e-06
1.57912e-06
1.57903e-06
1.57922e-06
1.58133e-06
1.58159e-06
1.58138e-06
1.57853e-06
1.57553e-06
1.57553e-06
1.57553e-06
1.57553e-06
1.5789e-06
1.57973e-06
1.57923e-06
1.57553e-06
1.57553e-06
1.57553e-06
1.57553e-06
1.57553e-06
1.57553e-06
1.57983e-06
1.58179e-06
1.58173e-06
1.57912e-06
1.57553e-06
1.57553e-06
1.57553e-06
1.57553e-06
1.57553e-06
1.57553e-06
1.57992e-06
1.58158e-06
1.58156e-06
1.57903e-06
1.57553e-06
1.57553e-06
1.57553e-06
1.57553e-06
1.57553e-06
1.57553e-06
1.5799e-06
1.57991e-06
1.57922e-06
1.57553e-06
1.57553e-06
1.57553e-06
1.57553e-06
1.57553e-06
1.57553e-06
1.5799e-06
1.5819e-06
1.58133e-06
1.5789e-06
1.57553e-06
1.57553e-06
1.57553e-06
1.57553e-06
1.57966e-06
1.57988e-06
1.58182e-06
1.58159e-06
1.57973e-06
1.57983e-06
1.57992e-06
1.5799e-06
1.5799e-06
1.57988e-06
1.58181e-06
1.58179e-06
1.58158e-06
1.57991e-06
1.5819e-06
1.58182e-06
1.56276e-06
1.56259e-06
1.56242e-06
1.56027e-06
1.56015e-06
1.56007e-06
1.56025e-06
1.56237e-06
1.56263e-06
1.56242e-06
1.55956e-06
1.55657e-06
1.55657e-06
1.55657e-06
1.55657e-06
1.55994e-06
1.56077e-06
1.56027e-06
1.55657e-06
1.55657e-06
1.55657e-06
1.55657e-06
1.55657e-06
1.55657e-06
1.56087e-06
1.56283e-06
1.56276e-06
1.56015e-06
1.55657e-06
1.55657e-06
1.55657e-06
1.55657e-06
1.55657e-06
1.55657e-06
1.56096e-06
1.56262e-06
1.56259e-06
1.56007e-06
1.55657e-06
1.55657e-06
1.55657e-06
1.55657e-06
1.55657e-06
1.55657e-06
1.56094e-06
1.56094e-06
1.56025e-06
1.55657e-06
1.55657e-06
1.55657e-06
1.55657e-06
1.55657e-06
1.55657e-06
1.56093e-06
1.56294e-06
1.56237e-06
1.55994e-06
1.55657e-06
1.55657e-06
1.55657e-06
1.55657e-06
1.5607e-06
1.56092e-06
1.56286e-06
1.56263e-06
1.56077e-06
1.56087e-06
1.56096e-06
1.56094e-06
1.56093e-06
1.56092e-06
1.56285e-06
1.56283e-06
1.56262e-06
1.56094e-06
1.56294e-06
1.56286e-06
1.5438e-06
1.54363e-06
1.54345e-06
1.5413e-06
1.54119e-06
1.54111e-06
1.54129e-06
1.5434e-06
1.54367e-06
1.54346e-06
1.5406e-06
1.53761e-06
1.53761e-06
1.53761e-06
1.53761e-06
1.54098e-06
1.54181e-06
1.5413e-06
1.53761e-06
1.53761e-06
1.53761e-06
1.53761e-06
1.53761e-06
1.53761e-06
1.5419e-06
1.54386e-06
1.5438e-06
1.54119e-06
1.53761e-06
1.53761e-06
1.53761e-06
1.53761e-06
1.53761e-06
1.53761e-06
1.542e-06
1.54366e-06
1.54363e-06
1.54111e-06
1.53761e-06
1.53761e-06
1.53761e-06
1.53761e-06
1.53761e-06
1.53761e-06
1.54198e-06
1.54198e-06
1.54129e-06
1.53761e-06
1.53761e-06
1.53761e-06
1.53761e-06
1.53761e-06
1.53761e-06
1.54197e-06
1.54398e-06
1.5434e-06
1.54098e-06
1.53761e-06
1.53761e-06
1.53761e-06
1.53761e-06
1.54174e-06
1.54196e-06
1.54389e-06
1.54367e-06
1.54181e-06
1.5419e-06
1.542e-06
1.54198e-06
1.54197e-06
1.54196e-06
1.54388e-06
1.54387e-06
1.54366e-06
1.54198e-06
1.54398e-06
1.54389e-06
1.52484e-06
1.52467e-06
1.52449e-06
1.52234e-06
1.52223e-06
1.52215e-06
1.52233e-06
1.52444e-06
1.52471e-06
1.52449e-06
1.52164e-06
1.51865e-06
1.51865e-06
1.51865e-06
1.51865e-06
1.52202e-06
1.52285e-06
1.52234e-06
1.51865e-06
1.51865e-06
1.51865e-06
1.51865e-06
1.51865e-06
1.51865e-06
1.52294e-06
1.5249e-06
1.52484e-06
1.52223e-06
1.51865e-06
1.51865e-06
1.51865e-06
1.51865e-06
1.51865e-06
1.51865e-06
1.52303e-06
1.5247e-06
1.52467e-06
1.52215e-06
1.51865e-06
1.51865e-06
1.51865e-06
1.51865e-06
1.51865e-06
1.51865e-06
1.52302e-06
1.52302e-06
1.52233e-06
1.51865e-06
1.51865e-06
1.51865e-06
1.51865e-06
1.51865e-06
1.51865e-06
1.52301e-06
1.52502e-06
1.52444e-06
1.52202e-06
1.51865e-06
1.51865e-06
1.51865e-06
1.51865e-06
1.52278e-06
1.523e-06
1.52493e-06
1.52471e-06
1.52285e-06
1.52294e-06
1.52303e-06
1.52301e-06
1.52301e-06
1.523e-06
1.52492e-06
1.52491e-06
1.5247e-06
1.52302e-06
1.52502e-06
1.52493e-06
1.50588e-06
1.50571e-06
1.50553e-06
1.50338e-06
1.50327e-06
1.50318e-06
1.50337e-06
1.50548e-06
1.50574e-06
1.50553e-06
1.50268e-06
1.49968e-06
1.49968e-06
1.49968e-06
1.49968e-06
1.50305e-06
1.50388e-06
1.50338e-06
1.49968e-06
1.49968e-06
1.49968e-06
1.49968e-06
1.49968e-06
1.49968e-06
1.50398e-06
1.50594e-06
1.50588e-06
1.50327e-06
1.49968e-06
1.49968e-06
1.49968e-06
1.49968e-06
1.49968e-06
1.49968e-06
1.50407e-06
1.50574e-06
1.50571e-06
1.50318e-06
1.49968e-06
1.49968e-06
1.49968e-06
1.49968e-06
1.49968e-06
1.49968e-06
1.50405e-06
1.50406e-06
1.50337e-06
1.49968e-06
1.49968e-06
1.49968e-06
1.49968e-06
1.49968e-06
1.49968e-06
1.50405e-06
1.50605e-06
1.50548e-06
1.50305e-06
1.49968e-06
1.49968e-06
1.49968e-06
1.49968e-06
1.50382e-06
1.50403e-06
1.50597e-06
1.50574e-06
1.50388e-06
1.50398e-06
1.50407e-06
1.50405e-06
1.50405e-06
1.50403e-06
1.50596e-06
1.50594e-06
1.50574e-06
1.50406e-06
1.50605e-06
1.50597e-06
1.48691e-06
1.48674e-06
1.48657e-06
1.48442e-06
1.4843e-06
1.48422e-06
1.4844e-06
1.48652e-06
1.48678e-06
1.48657e-06
1.48371e-06
1.48072e-06
1.48072e-06
1.48072e-06
1.48072e-06
1.48409e-06
1.48492e-06
1.48442e-06
1.48072e-06
1.48072e-06
1.48072e-06
1.48072e-06
1.48072e-06
1.48072e-06
1.48502e-06
1.48698e-06
1.48691e-06
1.4843e-06
1.48072e-06
1.48072e-06
1.48072e-06
1.48072e-06
1.48072e-06
1.48072e-06
1.48511e-06
1.48677e-06
1.48674e-06
1.48422e-06
1.48072e-06
1.48072e-06
1.48072e-06
1.48072e-06
1.48072e-06
1.48072e-06
1.48509e-06
1.48509e-06
1.4844e-06
1.48072e-06
1.48072e-06
1.48072e-06
1.48072e-06
1.48072e-06
1.48072e-06
1.48508e-06
1.48709e-06
1.48652e-06
1.48409e-06
1.48072e-06
1.48072e-06
1.48072e-06
1.48072e-06
1.48485e-06
1.48507e-06
1.48701e-06
1.48678e-06
1.48492e-06
1.48502e-06
1.48511e-06
1.48509e-06
1.48508e-06
1.48507e-06
1.487e-06
1.48698e-06
1.48677e-06
1.48509e-06
1.48709e-06
1.48701e-06
1.46795e-06
1.46778e-06
1.4676e-06
1.46545e-06
1.46534e-06
1.46526e-06
1.46544e-06
1.46755e-06
1.46782e-06
1.46761e-06
1.46475e-06
1.46176e-06
1.46176e-06
1.46176e-06
1.46176e-06
1.46513e-06
1.46596e-06
1.46545e-06
1.46176e-06
1.46176e-06
1.46176e-06
1.46176e-06
1.46176e-06
1.46176e-06
1.46605e-06
1.46801e-06
1.46795e-06
1.46534e-06
1.46176e-06
1.46176e-06
1.46176e-06
1.46176e-06
1.46176e-06
1.46176e-06
1.46615e-06
1.46781e-06
1.46778e-06
1.46526e-06
1.46176e-06
1.46176e-06
1.46176e-06
1.46176e-06
1.46176e-06
1.46176e-06
1.46613e-06
1.46613e-06
1.46544e-06
1.46176e-06
1.46176e-06
1.46176e-06
1.46176e-06
1.46176e-06
1.46176e-06
1.46612e-06
1.46813e-06
1.46755e-06
1.46513e-06
1.46176e-06
1.46176e-06
1.46176e-06
1.46176e-06
1.46589e-06
1.46611e-06
1.46804e-06
1.46782e-06
1.46596e-06
1.46605e-06
1.46615e-06
1.46613e-06
1.46612e-06
1.46611e-06
1.46803e-06
1.46802e-06
1.46781e-06
1.46613e-06
1.46813e-06
1.46804e-06
1.44899e-06
1.44882e-06
1.44864e-06
1.44649e-06
1.44638e-06
1.44629e-06
1.44648e-06
1.44859e-06
1.44885e-06
1.44864e-06
1.44579e-06
1.44279e-06
1.44279e-06
1.44279e-06
1.44279e-06
1.44616e-06
1.44699e-06
1.44649e-06
1.44279e-06
1.44279e-06
1.44279e-06
1.44279e-06
1.44279e-06
1.44279e-06
1.44709e-06
1.44905e-06
1.44899e-06
1.44638e-06
1.44279e-06
1.44279e-06
1.44279e-06
1.44279e-06
1.44279e-06
1.44279e-06
1.44718e-06
1.44884e-06
1.44882e-06
1.44629e-06
1.44279e-06
1.44279e-06
1.44279e-06
1.44279e-06
1.44279e-06
1.44279e-06
1.44716e-06
1.44717e-06
1.44648e-06
1.44279e-06
1.44279e-06
1.44279e-06
1.44279e-06
1.44279e-06
1.44279e-06
1.44716e-06
1.44916e-06
1.44859e-06
1.44616e-06
1.44279e-06
1.44279e-06
1.44279e-06
1.44279e-06
1.44692e-06
1.44714e-06
1.44908e-06
1.44885e-06
1.44699e-06
1.44709e-06
1.44718e-06
1.44716e-06
1.44716e-06
1.44714e-06
1.44907e-06
1.44905e-06
1.44884e-06
1.44717e-06
1.44916e-06
1.44908e-06
1.43002e-06
1.42985e-06
1.42968e-06
1.42752e-06
1.42741e-06
1.42733e-06
1.42751e-06
1.42962e-06
1.42989e-06
1.42968e-06
1.42682e-06
1.42383e-06
1.42383e-06
1.42383e-06
1.42383e-06
1.4272e-06
1.42803e-06
1.42753e-06
1.42383e-06
1.42383e-06
1.42383e-06
1.42383e-06
1.42383e-06
1.42383e-06
1.42812e-06
1.43009e-06
1.43002e-06
1.42741e-06
1.42383e-06
1.42383e-06
1.42383e-06
1.42383e-06
1.42383e-06
1.42383e-06
1.42822e-06
1.42988e-06
1.42985e-06
1.42733e-06
1.42383e-06
1.42383e-06
1.42383e-06
1.42383e-06
1.42383e-06
1.42383e-06
1.4282e-06
1.4282e-06
1.42751e-06
1.42383e-06
1.42383e-06
1.42383e-06
1.42383e-06
1.42383e-06
1.42383e-06
1.42819e-06
1.4302e-06
1.42962e-06
1.4272e-06
1.42383e-06
1.42383e-06
1.42383e-06
1.42383e-06
1.42796e-06
1.42818e-06
1.43011e-06
1.42989e-06
1.42803e-06
1.42812e-06
1.42822e-06
1.4282e-06
1.42819e-06
1.42818e-06
1.43011e-06
1.43009e-06
1.42988e-06
1.4282e-06
1.4302e-06
1.43012e-06
1.41106e-06
1.41089e-06
1.41071e-06
1.40856e-06
1.40845e-06
1.40836e-06
1.40855e-06
1.41066e-06
1.41092e-06
1.41071e-06
1.40786e-06
1.40486e-06
1.40486e-06
1.40486e-06
1.40486e-06
1.40823e-06
1.40906e-06
1.40856e-06
1.40486e-06
1.40486e-06
1.40486e-06
1.40486e-06
1.40486e-06
1.40486e-06
1.40916e-06
1.41112e-06
1.41106e-06
1.40845e-06
1.40486e-06
1.40486e-06
1.40486e-06
1.40486e-06
1.40486e-06
1.40486e-06
1.40925e-06
1.41091e-06
1.41089e-06
1.40836e-06
1.40486e-06
1.40486e-06
1.40486e-06
1.40486e-06
1.40486e-06
1.40486e-06
1.40923e-06
1.40924e-06
1.40855e-06
1.40486e-06
1.40486e-06
1.40486e-06
1.40486e-06
1.40486e-06
1.40486e-06
1.40923e-06
1.41123e-06
1.41066e-06
1.40823e-06
1.40486e-06
1.40486e-06
1.40486e-06
1.40486e-06
1.40899e-06
1.40921e-06
1.41115e-06
1.41092e-06
1.40906e-06
1.40916e-06
1.40925e-06
1.40923e-06
1.40923e-06
1.40921e-06
1.41114e-06
1.41112e-06
1.41091e-06
1.40924e-06
1.41123e-06
1.41115e-06
1.39209e-06
1.39192e-06
1.39174e-06
1.38959e-06
1.38948e-06
1.3894e-06
1.38958e-06
1.39169e-06
1.39196e-06
1.39175e-06
1.38889e-06
1.3859e-06
1.3859e-06
1.3859e-06
1.3859e-06
1.38927e-06
1.3901e-06
1.38959e-06
1.3859e-06
1.3859e-06
1.3859e-06
1.3859e-06
1.3859e-06
1.3859e-06
1.39019e-06
1.39215e-06
1.39209e-06
1.38948e-06
1.3859e-06
1.3859e-06
1.3859e-06
1.3859e-06
1.3859e-06
1.3859e-06
1.39029e-06
1.39195e-06
1.39192e-06
1.3894e-06
1.3859e-06
1.3859e-06
1.3859e-06
1.3859e-06
1.3859e-06
1.3859e-06
1.39027e-06
1.39027e-06
1.38958e-06
1.3859e-06
1.3859e-06
1.3859e-06
1.3859e-06
1.3859e-06
1.3859e-06
1.39026e-06
1.39227e-06
1.39169e-06
1.38927e-06
1.3859e-06
1.3859e-06
1.3859e-06
1.3859e-06
1.39003e-06
1.39025e-06
1.39218e-06
1.39196e-06
1.3901e-06
1.39019e-06
1.39029e-06
1.39027e-06
1.39026e-06
1.39025e-06
1.39217e-06
1.39216e-06
1.39195e-06
1.39027e-06
1.39227e-06
1.39218e-06
1.37313e-06
1.37296e-06
1.37278e-06
1.37063e-06
1.37052e-06
1.37043e-06
1.37062e-06
1.37273e-06
1.37299e-06
1.37278e-06
1.36992e-06
1.36693e-06
1.36693e-06
1.36693e-06
1.36693e-06
1.3703e-06
1.37113e-06
1.37063e-06
1.36693e-06
1.36693e-06
1.36693e-06
1.36693e-06
1.36693e-06
1.36693e-06
1.37123e-06
1.37319e-06
1.37313e-06
1.37052e-06
1.36693e-06
1.36693e-06
1.36693e-06
1.36693e-06
1.36693e-06
1.36693e-06
1.37132e-06
1.37298e-06
1.37296e-06
1.37043e-06
1.36693e-06
1.36693e-06
1.36693e-06
1.36693e-06
1.36693e-06
1.36693e-06
1.3713e-06
1.37131e-06
1.37062e-06
1.36693e-06
1.36693e-06
1.36693e-06
1.36693e-06
1.36693e-06
1.36693e-06
1.3713e-06
1.3733e-06
1.37273e-06
1.3703e-06
1.36693e-06
1.36693e-06
1.36693e-06
1.36693e-06
1.37106e-06
1.37128e-06
1.37322e-06
1.37299e-06
1.37113e-06
1.37123e-06
1.37132e-06
1.3713e-06
1.3713e-06
1.37128e-06
1.37321e-06
1.37319e-06
1.37298e-06
1.37131e-06
1.3733e-06
1.37322e-06
1.35416e-06
1.35399e-06
1.35382e-06
1.35166e-06
1.35155e-06
1.35147e-06
1.35165e-06
1.35376e-06
1.35403e-06
1.35382e-06
1.35096e-06
1.34797e-06
1.34797e-06
1.34797e-06
1.34797e-06
1.35134e-06
1.35217e-06
1.35167e-06
1.34797e-06
1.34797e-06
1.34797e-06
1.34797e-06
1.34797e-06
1.34797e-06
1.35226e-06
1.35422e-06
1.35416e-06
1.35155e-06
1.34797e-06
1.34797e-06
1.34797e-06
1.34797e-06
1.34797e-06
1.34797e-06
1.35236e-06
1.35402e-06
1.35399e-06
1.35147e-06
1.34797e-06
1.34797e-06
1.34797e-06
1.34797e-06
1.34797e-06
1.34797e-06
1.35234e-06
1.35234e-06
1.35165e-06
1.34797e-06
1.34797e-06
1.34797e-06
1.34797e-06
1.34797e-06
1.34797e-06
1.35233e-06
1.35434e-06
1.35376e-06
1.35134e-06
1.34797e-06
1.34797e-06
1.34797e-06
1.34797e-06
1.3521e-06
1.35232e-06
1.35425e-06
1.35403e-06
1.35217e-06
1.35226e-06
1.35236e-06
1.35234e-06
1.35233e-06
1.35232e-06
1.35424e-06
1.35423e-06
1.35402e-06
1.35234e-06
1.35434e-06
1.35425e-06
1.3352e-06
1.33503e-06
1.33485e-06
1.3327e-06
1.33259e-06
1.3325e-06
1.33269e-06
1.3348e-06
1.33506e-06
1.33485e-06
1.332e-06
1.329e-06
1.329e-06
1.329e-06
1.329e-06
1.33237e-06
1.3332e-06
1.3327e-06
1.329e-06
1.329e-06
1.329e-06
1.329e-06
1.329e-06
1.329e-06
1.3333e-06
1.33526e-06
1.3352e-06
1.33259e-06
1.329e-06
1.329e-06
1.329e-06
1.329e-06
1.329e-06
1.329e-06
1.33339e-06
1.33506e-06
1.33503e-06
1.3325e-06
1.329e-06
1.329e-06
1.329e-06
1.329e-06
1.329e-06
1.329e-06
1.33337e-06
1.33338e-06
1.33269e-06
1.329e-06
1.329e-06
1.329e-06
1.329e-06
1.329e-06
1.329e-06
1.33337e-06
1.33537e-06
1.3348e-06
1.33237e-06
1.329e-06
1.329e-06
1.329e-06
1.329e-06
1.33314e-06
1.33335e-06
1.33529e-06
1.33506e-06
1.3332e-06
1.3333e-06
1.33339e-06
1.33337e-06
1.33337e-06
1.33335e-06
1.33528e-06
1.33526e-06
1.33506e-06
1.33338e-06
1.33537e-06
1.33529e-06
1.31623e-06
1.31606e-06
1.31589e-06
1.31374e-06
1.31362e-06
1.31354e-06
1.31372e-06
1.31584e-06
1.3161e-06
1.31589e-06
1.31303e-06
1.31004e-06
1.31004e-06
1.31004e-06
1.31004e-06
1.31341e-06
1.31424e-06
1.31374e-06
1.31004e-06
1.31004e-06
1.31004e-06
1.31004e-06
1.31004e-06
1.31004e-06
1.31433e-06
1.3163e-06
1.31623e-06
1.31362e-06
1.31004e-06
1.31004e-06
1.31004e-06
1.31004e-06
1.31004e-06
1.31004e-06
1.31443e-06
1.31609e-06
1.31606e-06
1.31354e-06
1.31004e-06
1.31004e-06
1.31004e-06
1.31004e-06
1.31004e-06
1.31004e-06
1.31441e-06
1.31441e-06
1.31372e-06
1.31004e-06
1.31004e-06
1.31004e-06
1.31004e-06
1.31004e-06
1.31004e-06
1.3144e-06
1.31641e-06
1.31583e-06
1.31341e-06
1.31004e-06
1.31004e-06
1.31004e-06
1.31004e-06
1.31417e-06
1.31439e-06
1.31633e-06
1.3161e-06
1.31424e-06
1.31433e-06
1.31443e-06
1.31441e-06
1.3144e-06
1.31439e-06
1.31632e-06
1.3163e-06
1.31609e-06
1.31441e-06
1.31641e-06
1.31633e-06
1.29727e-06
1.2971e-06
1.29692e-06
1.29477e-06
1.29466e-06
1.29457e-06
1.29476e-06
1.29687e-06
1.29713e-06
1.29692e-06
1.29407e-06
1.29107e-06
1.29107e-06
1.29107e-06
1.29107e-06
1.29444e-06
1.29527e-06
1.29477e-06
1.29107e-06
1.29107e-06
1.29107e-06
1.29107e-06
1.29107e-06
1.29107e-06
1.29537e-06
1.29733e-06
1.29727e-06
1.29466e-06
1.29107e-06
1.29107e-06
1.29107e-06
1.29107e-06
1.29107e-06
1.29107e-06
1.29546e-06
1.29712e-06
1.2971e-06
1.29457e-06
1.29107e-06
1.29107e-06
1.29107e-06
1.29107e-06
1.29107e-06
1.29107e-06
1.29544e-06
1.29545e-06
1.29476e-06
1.29107e-06
1.29107e-06
1.29107e-06
1.29107e-06
1.29107e-06
1.29107e-06
1.29544e-06
1.29744e-06
1.29687e-06
1.29444e-06
1.29107e-06
1.29107e-06
1.29107e-06
1.29107e-06
1.29521e-06
1.29542e-06
1.29736e-06
1.29713e-06
1.29527e-06
1.29537e-06
1.29546e-06
1.29544e-06
1.29544e-06
1.29542e-06
1.29735e-06
1.29733e-06
1.29713e-06
1.29545e-06
1.29744e-06
1.29736e-06
1.2783e-06
1.27813e-06
1.27795e-06
1.2758e-06
1.27569e-06
1.27561e-06
1.27579e-06
1.2779e-06
1.27817e-06
1.27796e-06
1.2751e-06
1.27211e-06
1.27211e-06
1.27211e-06
1.27211e-06
1.27548e-06
1.27631e-06
1.2758e-06
1.27211e-06
1.27211e-06
1.27211e-06
1.27211e-06
1.27211e-06
1.27211e-06
1.2764e-06
1.27836e-06
1.2783e-06
1.27569e-06
1.27211e-06
1.27211e-06
1.27211e-06
1.27211e-06
1.27211e-06
1.27211e-06
1.2765e-06
1.27816e-06
1.27813e-06
1.27561e-06
1.27211e-06
1.27211e-06
1.27211e-06
1.27211e-06
1.27211e-06
1.27211e-06
1.27648e-06
1.27648e-06
1.27579e-06
1.27211e-06
1.27211e-06
1.27211e-06
1.27211e-06
1.27211e-06
1.27211e-06
1.27647e-06
1.27848e-06
1.2779e-06
1.27548e-06
1.27211e-06
1.27211e-06
1.27211e-06
1.27211e-06
1.27624e-06
1.27646e-06
1.27839e-06
1.27817e-06
1.27631e-06
1.2764e-06
1.2765e-06
1.27648e-06
1.27647e-06
1.27646e-06
1.27838e-06
1.27837e-06
1.27816e-06
1.27648e-06
1.27848e-06
1.27839e-06
1.25934e-06
1.25917e-06
1.25899e-06
1.25684e-06
1.25673e-06
1.25664e-06
1.25683e-06
1.25894e-06
1.2592e-06
1.25899e-06
1.25613e-06
1.25314e-06
1.25314e-06
1.25314e-06
1.25314e-06
1.25651e-06
1.25734e-06
1.25684e-06
1.25314e-06
1.25314e-06
1.25314e-06
1.25314e-06
1.25314e-06
1.25314e-06
1.25744e-06
1.2594e-06
1.25934e-06
1.25672e-06
1.25314e-06
1.25314e-06
1.25314e-06
1.25314e-06
1.25314e-06
1.25314e-06
1.25753e-06
1.25919e-06
1.25917e-06
1.25664e-06
1.25314e-06
1.25314e-06
1.25314e-06
1.25314e-06
1.25314e-06
1.25314e-06
1.25751e-06
1.25751e-06
1.25682e-06
1.25314e-06
1.25314e-06
1.25314e-06
1.25314e-06
1.25314e-06
1.25314e-06
1.25751e-06
1.25951e-06
1.25894e-06
1.25651e-06
1.25314e-06
1.25314e-06
1.25314e-06
1.25314e-06
1.25727e-06
1.25749e-06
1.25943e-06
1.2592e-06
1.25734e-06
1.25744e-06
1.25753e-06
1.25751e-06
1.25751e-06
1.25749e-06
1.25942e-06
1.2594e-06
1.25919e-06
1.25752e-06
1.25951e-06
1.25943e-06
1.24037e-06
1.2402e-06
1.24002e-06
1.23787e-06
1.23776e-06
1.23768e-06
1.23786e-06
1.23997e-06
1.24024e-06
1.24003e-06
1.23717e-06
1.23418e-06
1.23418e-06
1.23418e-06
1.23418e-06
1.23755e-06
1.23838e-06
1.23787e-06
1.23418e-06
1.23418e-06
1.23418e-06
1.23418e-06
1.23418e-06
1.23418e-06
1.23847e-06
1.24043e-06
1.24037e-06
1.23776e-06
1.23418e-06
1.23418e-06
1.23418e-06
1.23418e-06
1.23418e-06
1.23418e-06
1.23857e-06
1.24023e-06
1.2402e-06
1.23768e-06
1.23418e-06
1.23418e-06
1.23418e-06
1.23418e-06
1.23418e-06
1.23418e-06
1.23855e-06
1.23855e-06
1.23786e-06
1.23418e-06
1.23418e-06
1.23418e-06
1.23418e-06
1.23418e-06
1.23418e-06
1.23854e-06
1.24055e-06
1.23997e-06
1.23755e-06
1.23418e-06
1.23418e-06
1.23418e-06
1.23418e-06
1.23831e-06
1.23853e-06
1.24046e-06
1.24024e-06
1.23838e-06
1.23847e-06
1.23856e-06
1.23855e-06