/*--------------------------------*- C++ -*----------------------------------*\
| =========                 |                                                 |
| \\      /  F ield         | OpenFOAM: The Open Source CFD Toolbox           |
|  \\    /   O peration     | Version:  v2012                                 |
|   \\  /    A nd           | Website:  www.openfoam.com                      |
|    \\/     M anipulation  |                                                 |
\*---------------------------------------------------------------------------*/
FoamFile
{
    version     2.0;
    format      ascii;
    class       volScalarField;
    location    "625";
    object      epsilon;
}
// * * * * * * * * * * * * * * * * * * * * * * * * * * * * * * * * * * * * * //

dimensions      [0 2 -3 0 0 0 0];


internalField   nonuniform List<scalar> 
171728
(
4.95567e-07
4.9733e-07
4.9733e-07
4.99575e-07
4.45573e-07
4.53735e-07
4.53737e-07
4.6371e-07
4.03752e-07
4.18513e-07
4.18517e-07
4.39411e-07
3.68363e-07
3.88552e-07
3.88558e-07
4.17667e-07
3.38015e-07
3.62102e-07
3.6211e-07
3.96081e-07
3.11646e-07
3.38273e-07
3.38281e-07
3.74581e-07
2.88473e-07
3.16638e-07
3.16646e-07
3.5371e-07
2.67923e-07
2.97021e-07
2.97031e-07
3.34148e-07
2.4958e-07
2.7937e-07
2.79379e-07
3.16484e-07
2.33137e-07
2.63679e-07
2.63688e-07
3.01161e-07
2.18366e-07
2.49955e-07
2.49964e-07
2.88493e-07
2.0509e-07
2.38198e-07
2.38208e-07
2.78695e-07
1.93172e-07
2.28411e-07
2.28421e-07
2.71875e-07
1.82498e-07
2.206e-07
2.20611e-07
2.68162e-07
1.72979e-07
2.14773e-07
2.14786e-07
2.67644e-07
1.64541e-07
2.10938e-07
2.10954e-07
2.70497e-07
1.57122e-07
2.09108e-07
2.09127e-07
2.76702e-07
1.50668e-07
2.09296e-07
2.09318e-07
2.86283e-07
1.45137e-07
2.11549e-07
2.11576e-07
2.9923e-07
1.40492e-07
2.15885e-07
2.15916e-07
3.15606e-07
1.36703e-07
2.22325e-07
2.22359e-07
3.35361e-07
1.33748e-07
2.30887e-07
2.30924e-07
3.58394e-07
1.31605e-07
2.41553e-07
2.41593e-07
3.84531e-07
1.30257e-07
2.54303e-07
2.54348e-07
4.1352e-07
1.29693e-07
2.69086e-07
2.69138e-07
4.45007e-07
1.29922e-07
2.85861e-07
2.85917e-07
4.78654e-07
1.30912e-07
3.04529e-07
3.04585e-07
5.14026e-07
1.32664e-07
3.24974e-07
3.25039e-07
5.50616e-07
1.3519e-07
3.47101e-07
3.47172e-07
5.88026e-07
1.3849e-07
3.70759e-07
3.70832e-07
6.25847e-07
1.42558e-07
3.95785e-07
3.95866e-07
6.63672e-07
1.4738e-07
4.22052e-07
4.22151e-07
7.01131e-07
1.53022e-07
4.49378e-07
4.4949e-07
7.38e-07
1.59419e-07
4.77513e-07
4.77597e-07
7.73964e-07
1.66525e-07
5.06325e-07
5.06351e-07
8.08764e-07
1.74482e-07
5.35618e-07
5.35683e-07
8.42515e-07
1.83224e-07
5.65354e-07
5.65607e-07
8.75337e-07
1.93103e-07
5.95749e-07
5.95923e-07
9.07378e-07
2.03625e-07
6.25911e-07
6.2599e-07
9.37799e-07
2.1403e-07
6.54877e-07
6.54729e-07
9.65424e-07
2.25819e-07
6.83845e-07
6.83982e-07
9.92257e-07
2.38382e-07
7.11277e-07
7.13218e-07
1.01797e-06
2.50252e-07
7.36677e-07
7.3534e-07
1.03613e-06
2.60419e-07
7.59017e-07
7.56552e-07
1.0519e-06
2.73546e-07
7.75303e-07
7.80347e-07
1.08358e-06
3.09482e-07
8.3907e-07
8.45712e-07
1.14828e-06
3.46196e-07
9.20359e-07
9.14766e-07
1.19929e-06
3.51592e-07
9.20962e-07
9.08365e-07
1.19351e-06
3.22478e-07
8.60532e-07
8.61608e-07
1.15074e-06
3.15579e-07
8.72077e-07
8.76622e-07
1.16086e-06
3.65956e-07
9.25765e-07
9.29965e-07
1.21707e-06
3.9987e-07
9.43373e-07
9.63166e-07
1.2224e-06
3.99529e-07
9.4935e-07
9.69945e-07
1.19527e-06
4.16181e-07
1.0038e-06
9.72938e-07
1.23329e-06
4.56216e-07
1.04055e-06
1.02267e-06
1.30769e-06
4.91413e-07
1.06439e-06
1.06131e-06
1.3474e-06
5.0142e-07
1.05929e-06
1.05006e-06
1.31869e-06
4.64968e-07
1.02428e-06
1.05747e-06
1.2759e-06
4.55164e-07
1.05109e-06
1.08182e-06
1.31105e-06
5.24735e-07
1.12526e-06
1.09809e-06
1.36513e-06
5.69751e-07
1.15377e-06
1.10897e-06
1.37449e-06
5.65004e-07
1.10323e-06
1.10221e-06
1.33897e-06
5.48987e-07
1.0782e-06
1.1075e-06
1.33348e-06
5.50879e-07
1.11686e-06
1.13542e-06
1.37318e-06
5.75634e-07
1.15281e-06
1.1511e-06
1.39488e-06
5.93534e-07
1.15901e-06
1.14932e-06
1.38805e-06
6.05136e-07
1.15511e-06
1.14816e-06
1.38137e-06
6.1834e-07
1.16059e-06
1.16095e-06
1.39132e-06
6.28237e-07
1.17134e-06
1.17466e-06
1.40804e-06
6.33193e-07
1.17843e-06
1.17934e-06
1.41602e-06
6.39427e-07
1.17959e-06
1.17942e-06
1.41464e-06
6.49047e-07
1.18199e-06
1.18292e-06
1.41342e-06
6.57064e-07
1.18793e-06
1.18718e-06
1.41768e-06
6.61506e-07
1.19189e-06
1.19074e-06
1.42408e-06
6.67454e-07
1.19279e-06
1.19392e-06
1.42674e-06
6.73221e-07
1.19484e-06
1.19576e-06
1.42624e-06
6.75876e-07
1.19699e-06
1.19614e-06
1.42875e-06
6.79168e-07
1.19685e-06
1.19612e-06
1.43099e-06
6.83496e-07
1.1965e-06
1.19656e-06
1.4291e-06
6.86174e-07
1.1983e-06
1.19941e-06
1.43011e-06
6.88697e-07
1.19871e-06
1.20058e-06
1.43299e-06
6.90474e-07
1.19591e-06
1.19506e-06
1.43073e-06
6.91099e-07
1.19443e-06
1.19179e-06
1.42732e-06
6.92753e-07
1.1953e-06
1.19508e-06
1.4299e-06
6.93929e-07
1.19445e-06
1.19686e-06
1.43185e-06
6.93478e-07
1.18948e-06
1.19082e-06
1.42508e-06
6.91927e-07
1.18613e-06
1.18465e-06
1.41999e-06
6.92596e-07
1.18648e-06
1.18332e-06
1.42514e-06
6.9235e-07
1.18577e-06
1.18555e-06
1.42315e-06
6.91097e-07
1.17795e-06
1.18403e-06
1.41254e-06
6.91098e-07
1.17606e-06
1.17543e-06
1.41128e-06
6.83297e-07
1.17749e-06
1.17701e-06
1.42998e-06
6.84746e-07
1.16593e-06
1.17324e-06
1.41584e-06
6.87082e-07
1.15791e-06
1.13818e-06
1.3712e-06
6.60835e-07
1.10013e-06
1.10358e-06
1.35325e-06
5.06417e-07
5.05584e-07
5.05582e-07
5.06417e-07
5.05583e-07
5.05582e-07
5.09649e-07
5.09649e-07
5.09649e-07
5.09649e-07
5.05584e-07
5.05584e-07
5.06418e-07
5.05584e-07
5.05583e-07
5.06418e-07
4.99575e-07
4.67237e-07
4.97331e-07
4.97335e-07
4.63713e-07
4.63721e-07
4.99575e-07
4.67235e-07
4.97335e-07
4.97336e-07
4.63718e-07
4.63724e-07
4.97332e-07
4.63709e-07
4.63714e-07
4.99575e-07
4.67241e-07
4.97334e-07
4.6371e-07
4.63719e-07
4.6724e-07
4.63709e-07
4.41426e-07
4.5374e-07
4.53748e-07
4.26739e-07
4.26747e-07
4.63708e-07
4.4142e-07
4.53744e-07
4.53751e-07
4.26739e-07
4.26751e-07
4.53741e-07
4.26729e-07
4.26741e-07
4.63711e-07
4.41431e-07
4.53744e-07
4.26734e-07
4.26741e-07
4.41429e-07
4.39407e-07
4.19283e-07
4.18522e-07
4.1853e-07
3.95676e-07
3.95682e-07
4.39405e-07
4.19275e-07
4.18522e-07
4.18535e-07
3.95672e-07
3.95689e-07
4.18525e-07
3.95663e-07
3.95679e-07
4.39413e-07
4.19289e-07
4.18523e-07
3.95669e-07
3.95673e-07
4.19287e-07
4.17662e-07
3.97645e-07
3.88566e-07
3.88571e-07
3.68461e-07
3.68466e-07
4.17656e-07
3.97636e-07
3.8856e-07
3.88578e-07
3.68452e-07
3.68473e-07
3.88569e-07
3.68444e-07
3.68464e-07
4.17669e-07
3.97651e-07
3.88562e-07
3.68452e-07
3.68454e-07
3.97649e-07
3.96076e-07
3.76086e-07
3.6212e-07
3.62124e-07
3.44033e-07
3.44036e-07
3.96069e-07
3.76076e-07
3.62109e-07
3.62131e-07
3.4402e-07
3.44043e-07
3.62123e-07
3.44013e-07
3.44036e-07
3.96082e-07
3.76091e-07
3.62111e-07
3.44022e-07
3.44021e-07
3.7609e-07
3.74575e-07
3.55112e-07
3.38293e-07
3.38295e-07
3.21875e-07
3.21876e-07
3.74568e-07
3.55101e-07
3.38279e-07
3.38303e-07
3.21858e-07
3.21884e-07
3.38296e-07
3.21853e-07
3.21877e-07
3.74581e-07
3.55117e-07
3.3828e-07
3.21862e-07
3.2186e-07
3.55116e-07
3.53704e-07
3.35395e-07
3.16659e-07
3.16661e-07
3.01763e-07
3.01764e-07
3.53696e-07
3.35385e-07
3.16643e-07
3.16669e-07
3.01745e-07
3.01771e-07
3.16662e-07
3.0174e-07
3.01765e-07
3.5371e-07
3.354e-07
3.16644e-07
3.01749e-07
3.01746e-07
3.35401e-07
3.34141e-07
3.17533e-07
2.97044e-07
2.97045e-07
2.83623e-07
2.83623e-07
3.34133e-07
3.17523e-07
2.97026e-07
2.97053e-07
2.83603e-07
2.83631e-07
2.97047e-07
2.83599e-07
2.83625e-07
3.34148e-07
3.17538e-07
2.97027e-07
2.83608e-07
2.83604e-07
3.17539e-07
3.16478e-07
3.01975e-07
2.79394e-07
2.79394e-07
2.67442e-07
2.67442e-07
3.16469e-07
3.01964e-07
2.79374e-07
2.79402e-07
2.67421e-07
2.67449e-07
2.79396e-07
2.67417e-07
2.67443e-07
3.16484e-07
3.01981e-07
2.79375e-07
2.67426e-07
2.67421e-07
3.01981e-07
3.01154e-07
2.89041e-07
2.63704e-07
2.63704e-07
2.53227e-07
2.53227e-07
3.01146e-07
2.89029e-07
2.63682e-07
2.63711e-07
2.53204e-07
2.53234e-07
2.63705e-07
2.532e-07
2.53227e-07
3.01161e-07
2.89046e-07
2.63683e-07
2.53209e-07
2.53205e-07
2.89046e-07
2.88486e-07
2.7895e-07
2.49981e-07
2.49981e-07
2.40981e-07
2.4098e-07
2.88476e-07
2.78937e-07
2.49958e-07
2.49989e-07
2.40956e-07
2.40988e-07
2.49982e-07
2.40952e-07
2.4098e-07
2.88492e-07
2.78957e-07
2.49959e-07
2.40961e-07
2.40957e-07
2.78955e-07
2.78688e-07
2.71829e-07
2.38227e-07
2.38227e-07
2.30702e-07
2.30702e-07
2.78678e-07
2.71817e-07
2.38203e-07
2.38235e-07
2.30676e-07
2.3071e-07
2.38227e-07
2.3067e-07
2.30701e-07
2.78695e-07
2.71837e-07
2.38204e-07
2.30681e-07
2.30676e-07
2.71835e-07
2.71868e-07
2.67861e-07
2.28441e-07
2.28443e-07
2.22398e-07
2.224e-07
2.71858e-07
2.67848e-07
2.28417e-07
2.28451e-07
2.22372e-07
2.22408e-07
2.28442e-07
2.22364e-07
2.22397e-07
2.71877e-07
2.67872e-07
2.28417e-07
2.22375e-07
2.22371e-07
2.6787e-07
2.68153e-07
2.6698e-07
2.20632e-07
2.20637e-07
2.16076e-07
2.1608e-07
2.68142e-07
2.66965e-07
2.20608e-07
2.20645e-07
2.16048e-07
2.16089e-07
2.20634e-07
2.16038e-07
2.16075e-07
2.68164e-07
2.66991e-07
2.20608e-07
2.1605e-07
2.16048e-07
2.66989e-07
2.67634e-07
2.69157e-07
2.1481e-07
2.14816e-07
2.11745e-07
2.11753e-07
2.67619e-07
2.6914e-07
2.14784e-07
2.14825e-07
2.11718e-07
2.11762e-07
2.1481e-07
2.11702e-07
2.11743e-07
2.67644e-07
2.6917e-07
2.14783e-07
2.11717e-07
2.11715e-07
2.69169e-07
2.70487e-07
2.74668e-07
2.10983e-07
2.1099e-07
2.09415e-07
2.09424e-07
2.7047e-07
2.74645e-07
2.10956e-07
2.11e-07
2.09388e-07
2.09436e-07
2.1098e-07
2.09364e-07
2.0941e-07
2.70499e-07
2.74682e-07
2.10952e-07
2.09383e-07
2.09382e-07
2.7468e-07
2.76691e-07
2.83548e-07
2.09159e-07
2.09168e-07
2.09128e-07
2.09137e-07
2.7667e-07
2.83523e-07
2.09131e-07
2.0918e-07
2.091e-07
2.09153e-07
2.09153e-07
2.09071e-07
2.09121e-07
2.76705e-07
2.83565e-07
2.09125e-07
2.09093e-07
2.09092e-07
2.83561e-07
2.86273e-07
2.95812e-07
2.09355e-07
2.09364e-07
2.10851e-07
2.10857e-07
2.86245e-07
2.95781e-07
2.09327e-07
2.09382e-07
2.10821e-07
2.1088e-07
2.09348e-07
2.10784e-07
2.10841e-07
2.86285e-07
2.9583e-07
2.09318e-07
2.1081e-07
2.10811e-07
2.95826e-07
2.99218e-07
3.11495e-07
2.11616e-07
2.11626e-07
2.14674e-07
2.14683e-07
2.99185e-07
3.11462e-07
2.11588e-07
2.11648e-07
2.14642e-07
2.14708e-07
2.11607e-07
2.14598e-07
2.14661e-07
2.99233e-07
3.11518e-07
2.11577e-07
2.14627e-07
2.14631e-07
3.11512e-07
3.1559e-07
3.30559e-07
2.1596e-07
2.15974e-07
2.20593e-07
2.20614e-07
3.15556e-07
3.30521e-07
2.15932e-07
2.15998e-07
2.20564e-07
2.20639e-07
2.1595e-07
2.20515e-07
2.20585e-07
3.15611e-07
3.30584e-07
2.15919e-07
2.20547e-07
2.20554e-07
3.30579e-07
3.35341e-07
3.52914e-07
2.22402e-07
2.22427e-07
2.28629e-07
2.28662e-07
3.35303e-07
3.52869e-07
2.22376e-07
2.22453e-07
2.28601e-07
2.28687e-07
2.22397e-07
2.28549e-07
2.28626e-07
3.35365e-07
3.52944e-07
2.22364e-07
2.28584e-07
2.28592e-07
3.52939e-07
3.58373e-07
3.784e-07
2.30967e-07
2.31003e-07
2.38774e-07
2.38816e-07
3.5833e-07
3.78355e-07
2.30941e-07
2.31029e-07
2.38746e-07
2.38843e-07
2.30965e-07
2.38689e-07
2.38774e-07
3.58399e-07
3.78436e-07
2.3093e-07
2.38727e-07
2.38738e-07
3.7843e-07
3.84505e-07
4.06783e-07
2.41638e-07
2.41683e-07
2.51015e-07
2.51066e-07
3.84461e-07
4.0674e-07
2.41612e-07
2.41712e-07
2.50986e-07
2.51095e-07
2.41638e-07
2.50926e-07
2.51019e-07
3.84535e-07
4.06827e-07
2.416e-07
2.50966e-07
2.5098e-07
4.06818e-07
4.13487e-07
4.37722e-07
2.54394e-07
2.54447e-07
2.65298e-07
2.6536e-07
4.13444e-07
4.37678e-07
2.54366e-07
2.54477e-07
2.65266e-07
2.65389e-07
2.544e-07
2.65203e-07
2.65306e-07
4.13524e-07
4.37776e-07
2.54361e-07
2.65251e-07
2.65268e-07
4.37766e-07
4.44967e-07
4.70882e-07
2.69184e-07
2.69245e-07
2.81594e-07
2.81655e-07
4.44925e-07
4.70831e-07
2.69153e-07
2.69278e-07
2.81556e-07
2.81691e-07
2.69193e-07
2.81486e-07
2.81601e-07
4.45013e-07
4.70937e-07
2.69156e-07
2.81539e-07
2.81564e-07
4.70935e-07
4.78607e-07
5.05854e-07
2.85972e-07
2.86033e-07
2.99813e-07
2.99875e-07
4.78557e-07
5.058e-07
2.85935e-07
2.86073e-07
2.99766e-07
2.99912e-07
2.85979e-07
2.99692e-07
2.9982e-07
4.78655e-07
5.05914e-07
2.85943e-07
2.99744e-07
2.99778e-07
5.05914e-07
5.13975e-07
5.42138e-07
3.04654e-07
3.04715e-07
3.1983e-07
3.199e-07
5.13921e-07
5.42077e-07
3.04608e-07
3.04754e-07
3.19776e-07
3.1994e-07
3.04658e-07
3.19702e-07
3.19842e-07
5.14026e-07
5.42202e-07
3.04616e-07
3.19764e-07
3.1979e-07
5.42195e-07
5.50562e-07
5.79292e-07
3.25097e-07
3.25172e-07
3.41542e-07
3.41626e-07
5.50506e-07
5.79247e-07
3.25048e-07
3.25216e-07
3.41488e-07
3.41672e-07
3.25115e-07
3.41418e-07
3.41569e-07
5.50621e-07
5.79378e-07
3.25063e-07
3.41487e-07
3.41513e-07
5.79372e-07
5.87952e-07
6.1697e-07
3.47224e-07
3.47308e-07
3.64854e-07
3.64921e-07
5.87913e-07
6.16904e-07
3.47172e-07
3.47358e-07
3.64786e-07
3.64957e-07
3.47251e-07
3.64708e-07
3.64871e-07
5.88031e-07
6.17028e-07
3.47197e-07
3.64767e-07
3.64812e-07
6.17049e-07
6.25784e-07
6.54734e-07
3.70911e-07
3.7097e-07
3.89589e-07
3.8965e-07
6.25714e-07
6.54641e-07
3.70843e-07
3.71023e-07
3.89505e-07
3.8969e-07
3.7092e-07
3.89416e-07
3.89599e-07
6.25828e-07
6.54788e-07
3.70861e-07
3.89485e-07
3.8952e-07
6.54797e-07
6.63615e-07
6.9215e-07
3.95969e-07
3.96016e-07
4.15529e-07
4.15623e-07
6.63521e-07
6.92073e-07
3.95888e-07
3.96067e-07
4.1545e-07
4.1569e-07
3.95983e-07
4.1538e-07
4.15575e-07
6.63657e-07
6.92253e-07
3.95901e-07
4.15481e-07
4.15497e-07
6.92251e-07
7.01028e-07
7.29042e-07
4.22181e-07
4.22291e-07
4.42631e-07
4.42699e-07
7.00971e-07
7.28978e-07
4.22108e-07
4.22351e-07
4.42537e-07
4.42726e-07
4.22237e-07
4.42452e-07
4.4267e-07
7.01144e-07
7.29107e-07
4.22157e-07
4.4253e-07
4.42595e-07
7.29153e-07
7.37902e-07
7.65186e-07
4.49569e-07
4.49633e-07
4.70647e-07
4.70691e-07
7.3783e-07
7.65099e-07
4.49472e-07
4.49678e-07
4.70526e-07
4.70705e-07
4.49601e-07
4.70429e-07
4.70647e-07
7.37947e-07
7.6525e-07
4.49526e-07
4.70499e-07
4.70543e-07
7.65253e-07
7.73918e-07
8.00147e-07
4.77764e-07
4.77774e-07
4.99208e-07
4.99253e-07
7.73819e-07
8.00014e-07
4.77648e-07
4.7782e-07
4.99102e-07
4.99412e-07
4.77763e-07
4.99034e-07
4.99262e-07
7.73942e-07
8.00262e-07
4.7765e-07
4.99141e-07
4.99126e-07
8.00234e-07
8.08677e-07
8.34007e-07
5.06423e-07
5.06537e-07
5.28395e-07
5.28456e-07
8.08608e-07
8.33941e-07
5.06321e-07
5.06623e-07
5.28289e-07
5.28513e-07
5.06474e-07
5.28248e-07
5.28457e-07
8.0881e-07
8.34028e-07
5.0633e-07
5.28244e-07
5.28324e-07
8.341e-07
8.42417e-07
8.66911e-07
5.35756e-07
5.35834e-07
5.58e-07
5.58145e-07
8.42333e-07
8.66925e-07
5.35651e-07
5.35929e-07
5.57834e-07
5.58168e-07
5.35802e-07
5.5785e-07
5.58093e-07
8.42447e-07
8.67102e-07
5.35694e-07
5.5802e-07
5.5803e-07
8.67076e-07
8.75184e-07
8.9924e-07
5.65549e-07
5.65679e-07
5.88451e-07
5.88453e-07
8.75175e-07
8.99014e-07
5.65386e-07
5.65737e-07
5.88297e-07
5.88455e-07
5.65647e-07
5.88125e-07
5.88454e-07
8.75343e-07
8.99301e-07
5.65599e-07
5.88366e-07
5.88373e-07
8.99324e-07
9.07332e-07
9.30252e-07
5.96146e-07
5.9604e-07
6.19019e-07
6.18694e-07
9.07088e-07
9.29848e-07
5.96006e-07
5.96035e-07
6.18905e-07
6.18825e-07
5.96102e-07
6.18494e-07
6.18972e-07
9.07331e-07
9.29908e-07
5.96007e-07
6.1854e-07
6.18777e-07
9.30149e-07
9.37916e-07
9.5819e-07
6.26374e-07
6.26073e-07
6.47597e-07
6.47876e-07
9.37516e-07
9.5813e-07
6.26278e-07
6.26306e-07
6.4751e-07
6.47868e-07
6.26284e-07
6.47753e-07
6.47706e-07
9.37592e-07
9.58199e-07
6.26076e-07
6.4757e-07
6.47545e-07
9.58204e-07
9.65373e-07
9.84931e-07
6.54783e-07
6.55011e-07
6.76711e-07
6.7699e-07
9.65373e-07
9.84782e-07
6.54669e-07
6.54983e-07
6.76423e-07
6.76777e-07
6.54935e-07
6.76642e-07
6.76798e-07
9.65382e-07
9.85002e-07
6.54757e-07
6.7669e-07
6.76612e-07
9.85158e-07
9.91987e-07
1.01111e-06
6.83989e-07
6.84233e-07
7.05784e-07
7.04752e-07
9.91734e-07
1.00961e-06
6.83704e-07
6.8399e-07
7.05742e-07
7.05962e-07
6.84103e-07
7.04489e-07
7.06331e-07
9.92045e-07
1.01081e-06
6.83987e-07
7.06019e-07
7.06383e-07
1.01138e-06
1.01776e-06
1.03214e-06
7.12629e-07
7.11443e-07
7.31115e-07
7.3072e-07
1.01605e-06
1.03117e-06
7.12727e-07
7.13201e-07
7.31573e-07
7.31e-07
7.13348e-07
7.30626e-07
7.30862e-07
1.01746e-06
1.03148e-06
7.13432e-07
7.30476e-07
7.30493e-07
1.03128e-06
1.03756e-06
1.04929e-06
7.36997e-07
7.37003e-07
7.52992e-07
7.55254e-07
1.03685e-06
1.04921e-06
7.37442e-07
7.36136e-07
7.52862e-07
7.52355e-07
7.36004e-07
7.54204e-07
7.50647e-07
1.03639e-06
1.04641e-06
7.35284e-07
7.5154e-07
7.49546e-07
1.04641e-06
1.05432e-06
1.07057e-06
7.57613e-07
7.6017e-07
7.75296e-07
7.70301e-07
1.05417e-06
1.06395e-06
7.57251e-07
7.56987e-07
7.74525e-07
7.70749e-07
7.5559e-07
7.69631e-07
7.77798e-07
1.05149e-06
1.0657e-06
7.54758e-07
7.71619e-07
7.78417e-07
1.07315e-06
1.07979e-06
1.12853e-06
7.85092e-07
7.74293e-07
8.30007e-07
8.16273e-07
1.06991e-06
1.11232e-06
7.84346e-07
7.79057e-07
8.29613e-07
8.25398e-07
7.89239e-07
8.18037e-07
8.33607e-07
1.07373e-06
1.12285e-06
7.90515e-07
8.26219e-07
8.36249e-07
1.13417e-06
1.14374e-06
1.19915e-06
8.47716e-07
8.37901e-07
8.9643e-07
9.03665e-07
1.1294e-06
1.20679e-06
8.47491e-07
8.45378e-07
8.967e-07
9.02705e-07
8.49451e-07
9.03041e-07
8.89223e-07
1.13913e-06
1.20516e-06
8.52112e-07
9.01439e-07
8.90096e-07
1.1915e-06
1.20947e-06
1.20476e-06
9.07305e-07
9.21591e-07
9.14388e-07
9.36803e-07
1.2239e-06
1.22748e-06
9.07656e-07
9.16747e-07
9.14518e-07
9.236e-07
8.97667e-07
9.34059e-07
9.04868e-07
1.21815e-06
1.2123e-06
8.97546e-07
9.21141e-07
9.02023e-07
1.19391e-06
1.20282e-06
1.1429e-06
9.05125e-07
9.23431e-07
8.6819e-07
8.70567e-07
1.22403e-06
1.15064e-06
9.05073e-07
9.09991e-07
8.6858e-07
8.68347e-07
9.00371e-07
8.70685e-07
8.77209e-07
1.20959e-06
1.14642e-06
8.96309e-07
8.69451e-07
8.75441e-07
1.15127e-06
1.14083e-06
1.13071e-06
8.59399e-07
8.5982e-07
8.55757e-07
8.55624e-07
1.14779e-06
1.13395e-06
8.59984e-07
8.59926e-07
8.56598e-07
8.59931e-07
8.71372e-07
8.57393e-07
8.71833e-07
1.14454e-06
1.13747e-06
8.70389e-07
8.62296e-07
8.74134e-07
1.14995e-06
1.14167e-06
1.19519e-06
8.70298e-07
8.70053e-07
9.24533e-07
9.13981e-07
1.14422e-06
1.18584e-06
8.71026e-07
8.74479e-07
9.23697e-07
9.16736e-07
8.86243e-07
9.15101e-07
9.30059e-07
1.14743e-06
1.1893e-06
8.89455e-07
9.17582e-07
9.31175e-07
1.20625e-06
1.20871e-06
1.23399e-06
9.39537e-07
9.24986e-07
9.6605e-07
9.43909e-07
1.19565e-06
1.2056e-06
9.38296e-07
9.29571e-07
9.64767e-07
9.59608e-07
9.41249e-07
9.4316e-07
9.55363e-07
1.20045e-06
1.22543e-06
9.41993e-07
9.58373e-07
9.549e-07
1.2224e-06
1.23531e-06
1.21385e-06
9.66007e-07
9.44474e-07
9.52918e-07
9.44704e-07
1.20677e-06
1.19884e-06
9.65174e-07
9.64826e-07
9.54965e-07
9.71005e-07
9.52176e-07
9.43497e-07
9.38575e-07
1.22987e-06
1.23169e-06
9.51846e-07
9.69627e-07
9.40355e-07
1.1942e-06
1.21486e-06
1.23413e-06
9.51924e-07
9.50106e-07
9.76013e-07
9.92244e-07
1.20526e-06
1.24798e-06
9.54198e-07
9.711e-07
9.74675e-07
9.71338e-07
9.38109e-07
9.91645e-07
9.67072e-07
1.23358e-06
1.23417e-06
9.39997e-07
9.70738e-07
9.64874e-07
1.22028e-06
1.24539e-06
1.28973e-06
9.91106e-07
1.00469e-06
1.0277e-06
1.03245e-06
1.26044e-06
1.30231e-06
9.87493e-07
9.73504e-07
1.02408e-06
1.00748e-06
9.84745e-07
1.03263e-06
1.03469e-06
1.2384e-06
1.26799e-06
9.80768e-07
1.00798e-06
1.03074e-06
1.29338e-06
1.30079e-06
1.33048e-06
1.03918e-06
1.0395e-06
1.06638e-06
1.0577e-06
1.30958e-06
1.32404e-06
1.03659e-06
1.02149e-06
1.06726e-06
1.05365e-06
1.04932e-06
1.05971e-06
1.07524e-06
1.27898e-06
1.31167e-06
1.04634e-06
1.05586e-06
1.07657e-06
1.34276e-06
1.33763e-06
1.33929e-06
1.07328e-06
1.06264e-06
1.08138e-06
1.06737e-06
1.3286e-06
1.32062e-06
1.07463e-06
1.05929e-06
1.0806e-06
1.05555e-06
1.07745e-06
1.06692e-06
1.06392e-06
1.31806e-06
1.30485e-06
1.07932e-06
1.05448e-06
1.06244e-06
1.32074e-06
1.33748e-06
1.27279e-06
1.07693e-06
1.06237e-06
1.02944e-06
1.03164e-06
1.31946e-06
1.27102e-06
1.07282e-06
1.05207e-06
1.02775e-06
1.05206e-06
1.05398e-06
1.03011e-06
1.03266e-06
1.30512e-06
1.29543e-06
1.05191e-06
1.04996e-06
1.03252e-06
1.27512e-06
1.2698e-06
1.25397e-06
1.01772e-06
1.02469e-06
1.01037e-06
1.02622e-06
1.26953e-06
1.27191e-06
1.0177e-06
1.05763e-06
1.01477e-06
1.07269e-06
1.03032e-06
1.03131e-06
1.05207e-06
1.30118e-06
1.32471e-06
1.03164e-06
1.0775e-06
1.05942e-06
1.29956e-06
1.26639e-06
1.33245e-06
1.02602e-06
1.04489e-06
1.094e-06
1.10675e-06
1.28544e-06
1.3555e-06
1.03279e-06
1.07713e-06
1.09447e-06
1.09219e-06
1.06595e-06
1.1086e-06
1.10399e-06
1.33271e-06
1.35096e-06
1.07228e-06
1.09421e-06
1.10551e-06
1.35542e-06
1.34872e-06
1.39005e-06
1.1115e-06
1.1244e-06
1.14396e-06
1.1559e-06
1.37249e-06
1.41143e-06
1.11032e-06
1.09744e-06
1.13914e-06
1.10957e-06
1.11449e-06
1.15426e-06
1.12745e-06
1.35568e-06
1.35738e-06
1.11404e-06
1.10777e-06
1.12246e-06
1.37402e-06
1.39319e-06
1.37423e-06
1.145e-06
1.15556e-06
1.12803e-06
1.11836e-06
1.41296e-06
1.36437e-06
1.13995e-06
1.11087e-06
1.12608e-06
1.10671e-06
1.12524e-06
1.11612e-06
1.10283e-06
1.35859e-06
1.33878e-06
1.1197e-06
1.10454e-06
1.10132e-06
1.33977e-06
1.37413e-06
1.34925e-06
1.12143e-06
1.10558e-06
1.10637e-06
1.0811e-06
1.3613e-06
1.3147e-06
1.1208e-06
1.10464e-06
1.10881e-06
1.10411e-06
1.0974e-06
1.07931e-06
1.09343e-06
1.33912e-06
1.33485e-06
1.09719e-06
1.10173e-06
1.09645e-06
1.32692e-06
1.35009e-06
1.35137e-06
1.10405e-06
1.07943e-06
1.1101e-06
1.10242e-06
1.31539e-06
1.33249e-06
1.10718e-06
1.10881e-06
1.11362e-06
1.12724e-06
1.10004e-06
1.10478e-06
1.12803e-06
1.3405e-06
1.36453e-06
1.10495e-06
1.12888e-06
1.13126e-06
1.36415e-06
1.3562e-06
1.37018e-06
1.11688e-06
1.11432e-06
1.13588e-06
1.144e-06
1.34179e-06
1.37597e-06
1.11928e-06
1.13332e-06
1.13579e-06
1.14746e-06
1.1354e-06
1.14588e-06
1.15022e-06
1.37227e-06
1.38899e-06
1.13807e-06
1.14944e-06
1.15055e-06
1.39221e-06
1.37518e-06
1.3811e-06
1.14107e-06
1.15138e-06
1.15014e-06
1.15998e-06
1.38408e-06
1.39557e-06
1.14043e-06
1.14971e-06
1.14833e-06
1.15067e-06
1.15156e-06
1.1597e-06
1.14942e-06
1.39224e-06
1.38796e-06
1.15112e-06
1.15042e-06
1.14811e-06
1.38701e-06
1.38303e-06
1.38423e-06
1.15089e-06
1.15958e-06
1.15292e-06
1.15594e-06
1.39752e-06
1.39275e-06
1.14908e-06
1.14965e-06
1.15219e-06
1.14833e-06
1.14833e-06
1.15541e-06
1.14719e-06
1.38916e-06
1.38165e-06
1.14712e-06
1.14787e-06
1.14624e-06
1.37944e-06
1.38759e-06
1.39646e-06
1.1554e-06
1.15564e-06
1.16343e-06
1.1589e-06
1.39428e-06
1.3942e-06
1.15483e-06
1.14869e-06
1.16333e-06
1.15799e-06
1.14782e-06
1.15797e-06
1.15662e-06
1.38343e-06
1.38871e-06
1.14713e-06
1.1571e-06
1.15651e-06
1.38694e-06
1.40081e-06
1.40714e-06
1.16597e-06
1.16146e-06
1.17165e-06
1.16892e-06
1.39699e-06
1.40143e-06
1.16604e-06
1.16182e-06
1.17211e-06
1.17207e-06
1.16031e-06
1.16873e-06
1.17163e-06
1.39287e-06
1.40337e-06
1.16036e-06
1.17174e-06
1.17202e-06
1.40352e-06
1.40955e-06
1.40758e-06
1.17268e-06
1.17123e-06
1.17421e-06
1.17665e-06
1.40468e-06
1.4086e-06
1.17315e-06
1.17471e-06
1.17448e-06
1.1783e-06
1.17491e-06
1.1774e-06
1.18044e-06
1.40747e-06
1.41133e-06
1.17533e-06
1.17902e-06
1.18059e-06
1.4138e-06
1.40916e-06
1.40771e-06
1.17464e-06
1.17763e-06
1.17713e-06
1.17892e-06
1.41097e-06
1.41041e-06
1.1747e-06
1.17855e-06
1.17686e-06
1.1787e-06
1.18101e-06
1.17952e-06
1.1807e-06
1.4133e-06
1.41097e-06
1.18104e-06
1.17937e-06
1.18048e-06
1.41314e-06
1.40991e-06
1.41257e-06
1.17839e-06
1.17918e-06
1.18301e-06
1.18148e-06
1.41211e-06
1.41201e-06
1.17818e-06
1.17896e-06
1.18298e-06
1.18228e-06
1.18035e-06
1.18074e-06
1.18015e-06
1.41273e-06
1.41307e-06
1.18015e-06
1.18178e-06
1.18008e-06
1.41135e-06
1.41555e-06
1.41917e-06
1.18456e-06
1.18278e-06
1.18819e-06
1.18723e-06
1.41434e-06
1.41695e-06
1.18457e-06
1.18361e-06
1.18818e-06
1.18699e-06
1.18063e-06
1.18641e-06
1.18486e-06
1.41542e-06
1.41726e-06
1.18072e-06
1.18619e-06
1.1848e-06
1.41492e-06
1.42151e-06
1.42055e-06
1.1888e-06
1.18861e-06
1.18968e-06
1.19116e-06
1.41976e-06
1.42192e-06
1.18875e-06
1.18781e-06
1.18943e-06
1.18967e-06
1.18663e-06
1.19133e-06
1.19164e-06
1.41964e-06
1.4203e-06
1.18646e-06
1.18986e-06
1.19129e-06
1.4214e-06
1.42251e-06
1.42318e-06
1.1902e-06
1.19152e-06
1.19276e-06
1.19224e-06
1.42402e-06
1.42293e-06
1.18979e-06
1.19035e-06
1.19268e-06
1.19282e-06
1.1928e-06
1.19257e-06
1.19413e-06
1.42244e-06
1.42326e-06
1.19246e-06
1.19321e-06
1.19401e-06
1.42492e-06
1.42549e-06
1.42671e-06
1.19372e-06
1.19266e-06
1.1959e-06
1.19468e-06
1.42483e-06
1.42479e-06
1.19371e-06
1.19375e-06
1.19598e-06
1.19592e-06
1.19412e-06
1.19416e-06
1.19382e-06
1.42555e-06
1.42626e-06
1.19407e-06
1.19545e-06
1.19394e-06
1.42441e-06
1.42879e-06
1.42667e-06
1.19622e-06
1.19543e-06
1.19606e-06
1.19688e-06
1.42687e-06
1.42722e-06
1.19629e-06
1.19626e-06
1.19598e-06
1.19642e-06
1.19391e-06
1.19665e-06
1.19637e-06
1.42822e-06
1.42693e-06
1.19401e-06
1.19613e-06
1.19625e-06
1.42655e-06
1.42827e-06
1.42608e-06
1.19583e-06
1.19703e-06
1.19579e-06
1.19667e-06
1.42924e-06
1.42745e-06
1.19569e-06
1.19622e-06
1.19557e-06
1.19573e-06
1.19714e-06
1.1971e-06
1.19829e-06
1.42864e-06
1.42637e-06
1.19698e-06
1.19612e-06
1.19807e-06
1.42918e-06
1.42808e-06
1.42801e-06
1.19624e-06
1.19649e-06
1.19751e-06
1.19654e-06
1.42903e-06
1.42726e-06
1.19604e-06
1.19572e-06
1.19736e-06
1.19644e-06
1.19826e-06
1.19644e-06
1.19665e-06
1.42808e-06
1.427e-06
1.19804e-06
1.19625e-06
1.19652e-06
1.42757e-06
1.43009e-06
1.4294e-06
1.19777e-06
1.197e-06
1.198e-06
1.19835e-06
1.42921e-06
1.42912e-06
1.19761e-06
1.19695e-06
1.19789e-06
1.19904e-06
1.19627e-06
1.19789e-06
1.19664e-06
1.42897e-06
1.42976e-06
1.19615e-06
1.19865e-06
1.19653e-06
1.42795e-06
1.43108e-06
1.42985e-06
1.19796e-06
1.19866e-06
1.1979e-06
1.19883e-06
1.43122e-06
1.43079e-06
1.19788e-06
1.1997e-06
1.19806e-06
1.20058e-06
1.19755e-06
1.19883e-06
1.19922e-06
1.4321e-06
1.43307e-06
1.19752e-06
1.20065e-06
1.19939e-06
1.43093e-06
1.43163e-06
1.4287e-06
1.19787e-06
1.19851e-06
1.19723e-06
1.19653e-06
1.43236e-06
1.42833e-06
1.19807e-06
1.20043e-06
1.19735e-06
1.19646e-06
1.19937e-06
1.19663e-06
1.19766e-06
1.43489e-06
1.42886e-06
1.19957e-06
1.19658e-06
1.19767e-06
1.42936e-06
1.43021e-06
1.42697e-06
1.19668e-06
1.19593e-06
1.19529e-06
1.19486e-06
1.42979e-06
1.42627e-06
1.19661e-06
1.19507e-06
1.19481e-06
1.19233e-06
1.19655e-06
1.19452e-06
1.19408e-06
1.43011e-06
1.4236e-06
1.1964e-06
1.19204e-06
1.19362e-06
1.42573e-06
1.42874e-06
1.42827e-06
1.1951e-06
1.19484e-06
1.19512e-06
1.19535e-06
1.42815e-06
1.42807e-06
1.19455e-06
1.19212e-06
1.19471e-06
1.19418e-06
1.1938e-06
1.1951e-06
1.19496e-06
1.42515e-06
1.42582e-06
1.1933e-06
1.19403e-06
1.19464e-06
1.42756e-06
1.43028e-06
1.4282e-06
1.19516e-06
1.19543e-06
1.19461e-06
1.19487e-06
1.43017e-06
1.4285e-06
1.19491e-06
1.19508e-06
1.19483e-06
1.19658e-06
1.1956e-06
1.19516e-06
1.1962e-06
1.42839e-06
1.43046e-06
1.19543e-06
1.19683e-06
1.1963e-06
1.43033e-06
1.4297e-06
1.42486e-06
1.19394e-06
1.1941e-06
1.19122e-06
1.19089e-06
1.43e-06
1.42431e-06
1.19433e-06
1.19658e-06
1.19146e-06
1.19287e-06
1.19585e-06
1.19068e-06
1.19e-06
1.43245e-06
1.42689e-06
1.19607e-06
1.19269e-06
1.19021e-06
1.42395e-06
1.42627e-06
1.42142e-06
1.19032e-06
1.18988e-06
1.18752e-06
1.18711e-06
1.42563e-06
1.4202e-06
1.19053e-06
1.19124e-06
1.18751e-06
1.18637e-06
1.18818e-06
1.18654e-06
1.1852e-06
1.42811e-06
1.42006e-06
1.18832e-06
1.18578e-06
1.18521e-06
1.41814e-06
1.4229e-06
1.42049e-06
1.18694e-06
1.18663e-06
1.18624e-06
1.18604e-06
1.42177e-06
1.42102e-06
1.18683e-06
1.18518e-06
1.18557e-06
1.18322e-06
1.18529e-06
1.1862e-06
1.1889e-06
1.42137e-06
1.418e-06
1.18526e-06
1.18318e-06
1.18832e-06
1.42256e-06
1.42241e-06
1.41978e-06
1.18622e-06
1.18607e-06
1.18472e-06
1.18579e-06
1.42307e-06
1.42118e-06
1.18546e-06
1.18325e-06
1.18403e-06
1.18488e-06
1.18939e-06
1.18641e-06
1.18676e-06
1.42e-06
1.41952e-06
1.18867e-06
1.1851e-06
1.1859e-06
1.42198e-06
1.42122e-06
1.41637e-06
1.18329e-06
1.18508e-06
1.18012e-06
1.18041e-06
1.42264e-06
1.41537e-06
1.18315e-06
1.18543e-06
1.18099e-06
1.18569e-06
1.18361e-06
1.17959e-06
1.17479e-06
1.42138e-06
1.42072e-06
1.18332e-06
1.18524e-06
1.17555e-06
1.41154e-06
1.41793e-06
1.41603e-06
1.17997e-06
1.17942e-06
1.17965e-06
1.17794e-06
1.41661e-06
1.41291e-06
1.18082e-06
1.18545e-06
1.17982e-06
1.17876e-06
1.17313e-06
1.17551e-06
1.17281e-06
1.42257e-06
1.41618e-06
1.17393e-06
1.17664e-06
1.17258e-06
1.40734e-06
1.41744e-06
1.40685e-06
1.1793e-06
1.17813e-06
1.16969e-06
1.17592e-06
1.41542e-06
1.41419e-06
1.17853e-06
1.17662e-06
1.16901e-06
1.17253e-06
1.17735e-06
1.17795e-06
1.18981e-06
1.41745e-06
1.41156e-06
1.17521e-06
1.17512e-06
1.18819e-06
1.42507e-06
1.40792e-06
1.40199e-06
1.16723e-06
1.17289e-06
1.16526e-06
1.16647e-06
1.41536e-06
1.40245e-06
1.16771e-06
1.17253e-06
1.16777e-06
1.17245e-06
1.19113e-06
1.16754e-06
1.1767e-06
1.41327e-06
1.41024e-06
1.19037e-06
1.1773e-06
1.18211e-06
1.41772e-06
1.40438e-06
1.40257e-06
1.1674e-06
1.16637e-06
1.17028e-06
1.1664e-06
1.40343e-06
1.39631e-06
1.16943e-06
1.17107e-06
1.16673e-06
1.14911e-06
1.1646e-06
1.15868e-06
1.13872e-06
1.4108e-06
1.37946e-06
1.16779e-06
1.14298e-06
1.13484e-06
1.37152e-06
1.40363e-06
1.37569e-06
1.16917e-06
1.16609e-06
1.13773e-06
1.13553e-06
1.39789e-06
1.3744e-06
1.1634e-06
1.1447e-06
1.13475e-06
1.12534e-06
1.13623e-06
1.13389e-06
1.13191e-06
1.37958e-06
1.3636e-06
1.13108e-06
1.12367e-06
1.12731e-06
1.36434e-06
1.35486e-06
1.10251e-06
1.09942e-06
1.35304e-06
1.10158e-06
1.10226e-06
6.57726e-07
6.58267e-07
6.61946e-07
1.11026e-06
1.35077e-06
1.10848e-06
5.35663e-07
5.35601e-07
5.35655e-07
5.35655e-07
5.34573e-07
5.35516e-07
5.33634e-07
5.35654e-07
5.34573e-07
5.35517e-07
5.35654e-07
5.33634e-07
5.35256e-07
5.35986e-07
5.35987e-07
1.10713e-06
3.88082e-06
9.33891e-07
4.60617e-06
1.26081e-05
1.66011e-05
1.10725e-06
3.88106e-06
9.33925e-07
4.60653e-06
4.95567e-07
4.95567e-07
4.95567e-07
4.57231e-07
4.57231e-07
4.57232e-07
4.57232e-07
5.43144e-07
1.22026e-06
4.95565e-07
4.85522e-07
5.25341e-07
1.20946e-06
4.82301e-07
1.26097e-05
1.66037e-05
5.43162e-07
4.95565e-07
1.22025e-06
4.85523e-07
5.2532e-07
4.82302e-07
1.20945e-06
2.52172e-06
2.52242e-06
4.8419e-07
2.37248e-06
2.37288e-06
1.4308e-06
5.59328e-06
1.32967e-06
6.13637e-06
2.12844e-05
2.31105e-05
1.4312e-06
5.59395e-06
1.32973e-06
6.13703e-06
4.45572e-07
4.45573e-07
4.45573e-07
4.13542e-07
4.13542e-07
4.13543e-07
4.13543e-07