/*--------------------------------*- C++ -*----------------------------------*\
| =========                 |                                                 |
| \\      /  F ield         | OpenFOAM: The Open Source CFD Toolbox           |
|  \\    /   O peration     | Version:  v2012                                 |
|   \\  /    A nd           | Website:  www.openfoam.com                      |
|    \\/     M anipulation  |                                                 |
\*---------------------------------------------------------------------------*/
FoamFile
{
    version     2.0;
    format      ascii;
    class       volScalarField;
    location    "625";
    object      k;
}
// * * * * * * * * * * * * * * * * * * * * * * * * * * * * * * * * * * * * * //

dimensions      [0 2 -2 0 0 0 0];


internalField   nonuniform List<scalar> 
171728
(
3.58932e-05
3.58912e-05
3.58912e-05
3.59957e-05
3.39296e-05
3.3889e-05
3.3889e-05
3.39622e-05
3.21578e-05
3.20081e-05
3.20081e-05
3.19522e-05
3.05346e-05
3.02293e-05
3.02292e-05
2.99884e-05
2.90329e-05
2.8554e-05
2.85539e-05
2.81226e-05
2.76353e-05
2.69872e-05
2.69871e-05
2.63907e-05
2.63308e-05
2.5531e-05
2.55309e-05
2.48073e-05
2.51112e-05
2.4185e-05
2.41848e-05
2.33782e-05
2.39709e-05
2.29506e-05
2.29504e-05
2.21047e-05
2.29058e-05
2.18269e-05
2.18267e-05
2.0986e-05
2.1912e-05
2.08114e-05
2.08112e-05
2.00133e-05
2.09865e-05
1.99013e-05
1.99011e-05
1.91814e-05
2.01241e-05
1.90947e-05
1.90946e-05
1.84895e-05
1.93239e-05
1.83885e-05
1.83884e-05
1.79329e-05
1.85847e-05
1.77793e-05
1.77792e-05
1.75062e-05
1.79042e-05
1.72656e-05
1.72656e-05
1.72e-05
1.72798e-05
1.68465e-05
1.68466e-05
1.70226e-05
1.67097e-05
1.65212e-05
1.65214e-05
1.69822e-05
1.61923e-05
1.62895e-05
1.62898e-05
1.7079e-05
1.57254e-05
1.61516e-05
1.6152e-05
1.73039e-05
1.53073e-05
1.61072e-05
1.61077e-05
1.76568e-05
1.49374e-05
1.61533e-05
1.61538e-05
1.81339e-05
1.46145e-05
1.62917e-05
1.62925e-05
1.87289e-05
1.43381e-05
1.652e-05
1.65209e-05
1.94284e-05
1.41081e-05
1.68355e-05
1.68366e-05
2.02211e-05
1.3923e-05
1.7234e-05
1.72357e-05
2.10936e-05
1.37842e-05
1.77143e-05
1.7716e-05
2.20337e-05
1.36906e-05
1.82726e-05
1.82739e-05
2.30317e-05
1.36421e-05
1.89007e-05
1.89028e-05
2.40633e-05
1.36386e-05
1.95972e-05
1.96008e-05
2.51256e-05
1.36822e-05
2.03561e-05
2.03564e-05
2.62039e-05
1.37711e-05
2.11726e-05
2.1175e-05
2.7285e-05
1.39068e-05
2.20326e-05
2.20388e-05
2.83635e-05
1.40871e-05
2.29436e-05
2.2939e-05
2.94309e-05
1.43183e-05
2.38923e-05
2.38955e-05
3.05012e-05
1.45873e-05
2.48413e-05
2.48591e-05
3.15131e-05
1.49018e-05
2.58551e-05
2.58335e-05
3.25175e-05
1.5249e-05
2.68246e-05
2.68487e-05
3.35022e-05
1.56912e-05
2.79038e-05
2.79182e-05
3.45096e-05
1.61964e-05
2.89697e-05
2.89772e-05
3.5523e-05
1.66236e-05
2.99593e-05
2.99256e-05
3.63052e-05
1.71614e-05
3.10009e-05
3.09529e-05
3.72067e-05
1.77627e-05
3.19564e-05
3.21016e-05
3.82762e-05
1.83769e-05
3.29158e-05
3.30284e-05
3.89005e-05
1.87602e-05
3.38375e-05
3.33878e-05
3.87061e-05
1.86512e-05
3.34215e-05
3.33363e-05
3.87178e-05
2.0227e-05
3.38614e-05
3.52405e-05
4.23352e-05
2.40783e-05
4.13876e-05
4.12221e-05
4.61163e-05
2.55205e-05
4.3175e-05
4.22776e-05
4.56072e-05
2.24551e-05
3.70826e-05
3.68441e-05
4.13146e-05
1.98072e-05
3.55993e-05
3.57818e-05
4.11731e-05
2.22922e-05
4.02815e-05
3.99386e-05
4.65541e-05
2.64137e-05
4.10476e-05
4.16696e-05
4.66441e-05
2.58465e-05
3.94274e-05
4.17107e-05
4.28982e-05
2.52108e-05
4.24515e-05
4.12662e-05
4.37981e-05
2.7598e-05
4.46969e-05
4.21953e-05
4.8498e-05
3.08054e-05
4.65504e-05
4.66417e-05
5.22718e-05
3.25575e-05
4.71847e-05
4.53015e-05
4.9956e-05
3.0019e-05
4.30639e-05
4.40097e-05
4.56476e-05
2.67346e-05
4.19804e-05
4.62085e-05
4.7406e-05
2.92835e-05
4.79264e-05
4.77188e-05
5.17232e-05
3.52193e-05
5.13902e-05
4.81997e-05
5.31452e-05
3.5702e-05
4.89565e-05
4.67057e-05
4.91458e-05
3.35238e-05
4.52303e-05
4.61345e-05
4.80605e-05
3.26906e-05
4.58016e-05
4.86005e-05
5.17693e-05
3.39117e-05
4.958e-05
4.99677e-05
5.29786e-05
3.54521e-05
5.02605e-05
4.98276e-05
5.21475e-05
3.57906e-05
4.98943e-05
4.91588e-05
5.14112e-05
3.6686e-05
4.97438e-05
4.93102e-05
5.18713e-05
3.75576e-05
5.04448e-05
5.07138e-05
5.30806e-05
3.79141e-05
5.1002e-05
5.11489e-05
5.35054e-05
3.79153e-05
5.10878e-05
5.10832e-05
5.34148e-05
3.84141e-05
5.1055e-05
5.1122e-05
5.32342e-05
3.91578e-05
5.15226e-05
5.15376e-05
5.3452e-05
3.94095e-05
5.18894e-05
5.17188e-05
5.39315e-05
3.97083e-05
5.19832e-05
5.20161e-05
5.41267e-05
4.01809e-05
5.20855e-05
5.2199e-05
5.40445e-05
4.04323e-05
5.23661e-05
5.23422e-05
5.42461e-05
4.05288e-05
5.24668e-05
5.24034e-05
5.44893e-05
4.08848e-05
5.24422e-05
5.24073e-05
5.43881e-05
4.11473e-05
5.26561e-05
5.26453e-05
5.43824e-05
4.13796e-05
5.2883e-05
5.30442e-05
5.47962e-05
4.15944e-05
5.28119e-05
5.29091e-05
5.47279e-05
4.16111e-05
5.26792e-05
5.25168e-05
5.44489e-05
4.18053e-05
5.29391e-05
5.27163e-05
5.46995e-05
4.20622e-05
5.31053e-05
5.32165e-05
5.50935e-05
4.21356e-05
5.29239e-05
5.31664e-05
5.47937e-05
4.20148e-05
5.26779e-05
5.27246e-05
5.41399e-05
4.20832e-05
5.28816e-05
5.26441e-05
5.49118e-05
4.22976e-05
5.30558e-05
5.28369e-05
5.52544e-05
4.22696e-05
5.27154e-05
5.30637e-05
5.43689e-05
4.24448e-05
5.25392e-05
5.27795e-05
5.32825e-05
4.21789e-05
5.3128e-05
5.26229e-05
5.56524e-05
4.19515e-05
5.25146e-05
5.35406e-05
5.71073e-05
4.19637e-05
5.10179e-05
5.02276e-05
5.12755e-05
3.63068e-05
3.6291e-05
3.6291e-05
3.63068e-05
3.6291e-05
3.6291e-05
3.6423e-05
3.6423e-05
3.6423e-05
3.6423e-05
3.6291e-05
3.6291e-05
3.63068e-05
3.6291e-05
3.6291e-05
3.63068e-05
3.59957e-05
3.42687e-05
3.58912e-05
3.58912e-05
3.43767e-05
3.43766e-05
3.59957e-05
3.42687e-05
3.58911e-05
3.58912e-05
3.43767e-05
3.43766e-05
3.58912e-05
3.43767e-05
3.43767e-05
3.59957e-05
3.42687e-05
3.58912e-05
3.43767e-05
3.43767e-05
3.42687e-05
3.39623e-05
3.22635e-05
3.38889e-05
3.38889e-05
3.24684e-05
3.24683e-05
3.39623e-05
3.22635e-05
3.38889e-05
3.38889e-05
3.24684e-05
3.24683e-05
3.38889e-05
3.24685e-05
3.24684e-05
3.39623e-05
3.22634e-05
3.38889e-05
3.24685e-05
3.24684e-05
3.22634e-05
3.19522e-05
3.02993e-05
3.20079e-05
3.20078e-05
3.06643e-05
3.06642e-05
3.19522e-05
3.02994e-05
3.2008e-05
3.20078e-05
3.06644e-05
3.06641e-05
3.20079e-05
3.06646e-05
3.06643e-05
3.19522e-05
3.02992e-05
3.2008e-05
3.06645e-05
3.06644e-05
3.02992e-05
2.99885e-05
2.84253e-05
3.0229e-05
3.02288e-05
2.89624e-05
2.89622e-05
2.99886e-05
2.84255e-05
3.02291e-05
3.02287e-05
2.89626e-05
2.89621e-05
3.02289e-05
2.89628e-05
2.89623e-05
2.99884e-05
2.84252e-05
3.02291e-05
2.89627e-05
2.89626e-05
2.84252e-05
2.81227e-05
2.6674e-05
2.85536e-05
2.85534e-05
2.7368e-05
2.73678e-05
2.81228e-05
2.66741e-05
2.85538e-05
2.85533e-05
2.73683e-05
2.73676e-05
2.85535e-05
2.73685e-05
2.73679e-05
2.81226e-05
2.66739e-05
2.85538e-05
2.73684e-05
2.73683e-05
2.66738e-05
2.63908e-05
2.50663e-05
2.69866e-05
2.69864e-05
2.58841e-05
2.58838e-05
2.6391e-05
2.50665e-05
2.6987e-05
2.69862e-05
2.58845e-05
2.58836e-05
2.69865e-05
2.58848e-05
2.5884e-05
2.63907e-05
2.50661e-05
2.69869e-05
2.58846e-05
2.58844e-05
2.50661e-05
2.48075e-05
2.36125e-05
2.55304e-05
2.55301e-05
2.45102e-05
2.45099e-05
2.48077e-05
2.36127e-05
2.55308e-05
2.55299e-05
2.45107e-05
2.45097e-05
2.55302e-05
2.4511e-05
2.45102e-05
2.48073e-05
2.36123e-05
2.55307e-05
2.45108e-05
2.45107e-05
2.36123e-05
2.33784e-05
2.23125e-05
2.41842e-05
2.41838e-05
2.32478e-05
2.32475e-05
2.33785e-05
2.23126e-05
2.41847e-05
2.41836e-05
2.32484e-05
2.32473e-05
2.41841e-05
2.32487e-05
2.32478e-05
2.33782e-05
2.23122e-05
2.41846e-05
2.32485e-05
2.32484e-05
2.23122e-05
2.21049e-05
2.11681e-05
2.29497e-05
2.29494e-05
2.20965e-05
2.20962e-05
2.21051e-05
2.11683e-05
2.29503e-05
2.29491e-05
2.20972e-05
2.2096e-05
2.29496e-05
2.20976e-05
2.20965e-05
2.21047e-05
2.11678e-05
2.29503e-05
2.20973e-05
2.20972e-05
2.11678e-05
2.09863e-05
2.01707e-05
2.18259e-05
2.18255e-05
2.10542e-05
2.10538e-05
2.09865e-05
2.01709e-05
2.18266e-05
2.18253e-05
2.10549e-05
2.10536e-05
2.18258e-05
2.10552e-05
2.10541e-05
2.09861e-05
2.01705e-05
2.18265e-05
2.1055e-05
2.10549e-05
2.01704e-05
2.00137e-05
1.93146e-05
2.08103e-05
2.081e-05
2.0118e-05
2.01176e-05
2.00138e-05
1.93148e-05
2.08111e-05
2.08097e-05
2.01188e-05
2.01174e-05
2.08102e-05
2.01191e-05
2.01179e-05
2.00134e-05
1.93144e-05
2.08111e-05
2.01189e-05
2.01188e-05
1.93142e-05
1.91817e-05
1.85904e-05
1.99002e-05
1.98999e-05
1.92855e-05
1.92852e-05
1.91818e-05
1.85906e-05
1.9901e-05
1.98997e-05
1.92863e-05
1.9285e-05
1.99001e-05
1.92866e-05
1.92855e-05
1.91814e-05
1.85902e-05
1.9901e-05
1.92865e-05
1.92864e-05
1.85899e-05
1.84898e-05
1.79977e-05
1.90936e-05
1.90933e-05
1.85545e-05
1.85542e-05
1.84899e-05
1.79979e-05
1.90945e-05
1.90931e-05
1.85553e-05
1.8554e-05
1.90936e-05
1.85555e-05
1.85544e-05
1.84895e-05
1.79976e-05
1.90945e-05
1.85554e-05
1.85553e-05
1.79974e-05
1.79333e-05
1.75392e-05
1.83874e-05
1.83871e-05
1.79214e-05
1.79211e-05
1.79333e-05
1.75392e-05
1.83883e-05
1.8387e-05
1.79221e-05
1.79209e-05
1.83874e-05
1.79223e-05
1.79213e-05
1.79331e-05
1.7539e-05
1.83883e-05
1.79222e-05
1.79222e-05
1.75389e-05
1.75064e-05
1.72176e-05
1.77783e-05
1.77781e-05
1.73838e-05
1.73836e-05
1.75065e-05
1.72175e-05
1.77791e-05
1.77779e-05
1.73845e-05
1.73834e-05
1.77783e-05
1.73846e-05
1.73837e-05
1.75063e-05
1.72175e-05
1.77792e-05
1.73846e-05
1.73845e-05
1.72173e-05
1.72003e-05
1.70262e-05
1.72648e-05
1.72646e-05
1.69411e-05
1.69409e-05
1.72002e-05
1.7026e-05
1.72656e-05
1.72645e-05
1.69418e-05
1.69409e-05
1.72647e-05
1.69418e-05
1.69411e-05
1.72001e-05
1.70261e-05
1.72655e-05
1.69419e-05
1.69418e-05
1.70259e-05
1.70229e-05
1.69729e-05
1.68459e-05
1.68457e-05
1.65922e-05
1.6592e-05
1.70227e-05
1.69726e-05
1.68466e-05
1.68457e-05
1.65928e-05
1.65921e-05
1.68458e-05
1.65927e-05
1.65921e-05
1.70227e-05
1.69729e-05
1.68466e-05
1.65928e-05
1.65929e-05
1.69728e-05
1.69822e-05
1.70437e-05
1.65207e-05
1.65206e-05
1.63369e-05
1.63369e-05
1.69819e-05
1.70435e-05
1.65214e-05
1.65206e-05
1.63375e-05
1.6337e-05
1.65207e-05
1.63373e-05
1.63369e-05
1.69823e-05
1.70439e-05
1.65214e-05
1.63376e-05
1.63376e-05
1.70436e-05
1.70791e-05
1.72435e-05
1.62891e-05
1.62891e-05
1.61753e-05
1.61752e-05
1.70788e-05
1.7243e-05
1.62897e-05
1.62892e-05
1.61759e-05
1.61754e-05
1.62891e-05
1.61754e-05
1.61753e-05
1.70793e-05
1.72435e-05
1.62898e-05
1.61757e-05
1.61759e-05
1.72436e-05
1.73039e-05
1.75719e-05
1.61516e-05
1.61515e-05
1.6107e-05
1.61072e-05
1.73033e-05
1.75716e-05
1.61521e-05
1.61517e-05
1.61076e-05
1.61075e-05
1.61515e-05
1.61071e-05
1.61071e-05
1.73038e-05
1.75724e-05
1.61521e-05
1.61076e-05
1.61077e-05
1.75722e-05
1.76565e-05
1.8025e-05
1.61071e-05
1.61074e-05
1.61327e-05
1.61331e-05
1.76562e-05
1.80247e-05
1.61077e-05
1.61076e-05
1.61332e-05
1.61333e-05
1.61072e-05
1.61327e-05
1.61329e-05
1.76569e-05
1.80255e-05
1.61078e-05
1.61331e-05
1.61334e-05
1.80254e-05
1.81336e-05
1.85971e-05
1.61534e-05
1.61538e-05
1.62489e-05
1.62492e-05
1.81332e-05
1.85962e-05
1.6154e-05
1.6154e-05
1.62493e-05
1.62494e-05
1.61535e-05
1.62485e-05
1.62492e-05
1.81338e-05
1.85977e-05
1.6154e-05
1.6249e-05
1.62496e-05
1.85977e-05
1.87283e-05
1.9276e-05
1.62921e-05
1.62924e-05
1.64552e-05
1.64562e-05
1.87272e-05
1.9276e-05
1.62926e-05
1.62928e-05
1.64554e-05
1.64563e-05
1.62923e-05
1.64551e-05
1.64556e-05
1.87285e-05
1.92772e-05
1.62927e-05
1.64556e-05
1.6456e-05
1.92765e-05
1.94277e-05
2.00499e-05
1.65204e-05
1.65211e-05
1.67493e-05
1.67499e-05
1.94278e-05
2.00488e-05
1.65208e-05
1.65215e-05
1.67495e-05
1.67508e-05
1.65209e-05
1.67487e-05
1.67494e-05
1.94288e-05
2.00508e-05
1.65213e-05
1.67496e-05
1.67498e-05
2.00504e-05
2.02207e-05
2.0906e-05
1.68363e-05
1.68367e-05
1.71281e-05
1.71289e-05
2.02199e-05
2.09053e-05
1.68367e-05
1.68377e-05
1.71282e-05
1.71296e-05
1.68365e-05
1.71272e-05
1.71289e-05
2.02217e-05
2.09074e-05
1.68369e-05
1.71285e-05
1.7129e-05
2.09075e-05
2.10923e-05
2.18307e-05
1.72348e-05
1.72358e-05
1.7588e-05
1.75883e-05
2.10918e-05
2.18295e-05
1.72351e-05
1.72367e-05
1.75877e-05
1.7589e-05
1.72357e-05
1.75863e-05
1.75883e-05
2.10939e-05
2.18315e-05
1.72358e-05
1.75877e-05
1.75885e-05
2.18319e-05
2.20326e-05
2.28169e-05
1.7716e-05
1.77161e-05
1.81283e-05
1.81284e-05
2.20313e-05
2.28162e-05
1.77158e-05
1.77175e-05
1.81277e-05
1.813e-05
1.77162e-05
1.81263e-05
1.81289e-05
2.20332e-05
2.28188e-05
1.77166e-05
1.81277e-05
1.81288e-05
2.28191e-05
2.30298e-05
2.38423e-05
1.82743e-05
1.82748e-05
1.87403e-05
1.87399e-05
2.30291e-05
2.38394e-05
1.82739e-05
1.82762e-05
1.8739e-05
1.87408e-05
1.82749e-05
1.87372e-05
1.87399e-05
2.30315e-05
2.3842e-05
1.82748e-05
1.87389e-05
1.8739e-05
2.38424e-05
2.40636e-05
2.48937e-05
1.89035e-05
1.89035e-05
1.9418e-05
1.94191e-05
2.40605e-05
2.48945e-05
1.89023e-05
1.89047e-05
1.94173e-05
1.94211e-05
1.89028e-05
1.94165e-05
1.94206e-05
2.40632e-05
2.48977e-05
1.89021e-05
1.9419e-05
1.94193e-05
2.48978e-05
2.51212e-05
2.59689e-05
1.95971e-05
1.95997e-05
2.01641e-05
2.01647e-05
2.51223e-05
2.59687e-05
1.95969e-05
1.96029e-05
2.01629e-05
2.01639e-05
1.96e-05
2.0162e-05
2.01653e-05
2.51256e-05
2.59694e-05
1.95989e-05
2.01616e-05
2.01643e-05
2.5971e-05
2.62023e-05
2.70501e-05
2.03597e-05
2.03586e-05
2.09658e-05
2.09667e-05
2.62008e-05
2.70476e-05
2.03584e-05
2.03581e-05
2.09633e-05
2.09687e-05
2.03601e-05
2.09645e-05
2.09654e-05
2.62008e-05
2.70505e-05
2.03595e-05
2.09664e-05
2.09647e-05
2.70497e-05
2.72852e-05
2.8128e-05
2.11747e-05
2.11754e-05
2.18203e-05
2.18172e-05
2.72835e-05
2.81236e-05
2.11722e-05
2.11776e-05
2.18181e-05
2.18182e-05
2.11748e-05
2.18123e-05
2.18208e-05
2.72867e-05
2.81274e-05
2.11723e-05
2.18144e-05
2.18188e-05
2.81299e-05
2.8361e-05
2.91898e-05
2.20375e-05
2.2037e-05
2.27068e-05
2.27138e-05
2.83578e-05
2.91948e-05
2.20359e-05
2.20414e-05
2.27061e-05
2.27106e-05
2.20401e-05
2.27116e-05
2.27114e-05
2.83606e-05
2.91998e-05
2.2039e-05
2.27082e-05
2.27092e-05
2.91963e-05
2.94254e-05
3.02706e-05
2.29434e-05
2.29458e-05
2.36604e-05
2.3656e-05
2.94316e-05
3.02593e-05
2.29423e-05
2.29419e-05
2.3656e-05
2.3658e-05
2.29461e-05
2.36504e-05
2.3658e-05
2.94325e-05
3.02635e-05
2.2944e-05
2.366e-05
2.36579e-05
3.02695e-05
3.05028e-05
3.12852e-05
2.3898e-05
2.38993e-05
2.46167e-05
2.45988e-05
3.04912e-05
3.128e-05
2.38929e-05
2.38939e-05
2.46149e-05
2.46168e-05
2.38923e-05
2.45967e-05
2.46189e-05
3.0499e-05
3.12867e-05
2.3891e-05
2.46099e-05
2.46145e-05
3.12861e-05
3.15119e-05
3.22915e-05
2.48544e-05
2.48409e-05
2.559e-05
2.56014e-05
3.15029e-05
3.2304e-05
2.48541e-05
2.48671e-05
2.55882e-05
2.5587e-05
2.48566e-05
2.56041e-05
2.55975e-05
3.15116e-05
3.22938e-05
2.48525e-05
2.55805e-05
2.55895e-05
3.22947e-05
3.25166e-05
3.32779e-05
2.58503e-05
2.58526e-05
2.65849e-05
2.65825e-05
3.25307e-05
3.32696e-05
2.58494e-05
2.58417e-05
2.6581e-05
2.65922e-05
2.58514e-05
2.65797e-05
2.65856e-05
3.25137e-05
3.32838e-05
2.58441e-05
2.65915e-05
2.65859e-05
3.32831e-05
3.34899e-05
3.42677e-05
2.68239e-05
2.68271e-05
2.7631e-05
2.76521e-05
3.34854e-05
3.4286e-05
2.68195e-05
2.68457e-05
2.76223e-05
2.76411e-05
2.68345e-05
2.76345e-05
2.76393e-05
3.35099e-05
3.42868e-05
2.68388e-05
2.76501e-05
2.76412e-05
3.42789e-05
3.45083e-05
3.53237e-05
2.79143e-05
2.79214e-05
2.87467e-05
2.87073e-05
3.45187e-05
3.5273e-05
2.79055e-05
2.79069e-05
2.87472e-05
2.86991e-05
2.79042e-05
2.87086e-05
2.87493e-05
3.45089e-05
3.52773e-05
2.7904e-05
2.87009e-05
2.87485e-05
3.53102e-05
3.55345e-05
3.61407e-05
2.9027e-05
2.89587e-05
2.9703e-05
2.9737e-05
3.54795e-05
3.61618e-05
2.90297e-05
2.8983e-05
2.97035e-05
2.97428e-05
2.90293e-05
2.97378e-05
2.96953e-05
3.54908e-05
3.61643e-05
2.90212e-05
2.97198e-05
2.9687e-05
3.61322e-05
3.63078e-05
3.69756e-05
2.98888e-05
2.99521e-05
3.0679e-05
3.0684e-05
3.63538e-05
3.70136e-05
2.98905e-05
2.994e-05
3.06799e-05
3.06585e-05
2.99027e-05
3.06905e-05
3.06759e-05
3.63442e-05
3.69585e-05
2.99033e-05
3.06545e-05
3.06572e-05
3.69764e-05
3.72117e-05
3.79967e-05
3.09836e-05
3.10064e-05
3.17924e-05
3.17941e-05
3.72358e-05
3.79324e-05
3.09692e-05
3.09557e-05
3.17532e-05
3.17663e-05
3.09719e-05
3.17509e-05
3.18019e-05
3.71783e-05
3.80219e-05
3.09479e-05
3.1803e-05
3.18265e-05
3.8059e-05
3.8189e-05
3.87602e-05
3.20594e-05
3.19839e-05
3.27668e-05
3.26078e-05
3.8094e-05
3.86153e-05
3.20415e-05
3.20639e-05
3.28254e-05
3.29069e-05
3.20963e-05
3.26839e-05
3.29226e-05
3.82433e-05
3.88024e-05
3.21299e-05
3.29105e-05
3.29455e-05
3.88118e-05
3.88988e-05
3.90944e-05
3.29369e-05
3.2864e-05
3.34853e-05
3.36867e-05
3.87999e-05
3.93719e-05
3.29963e-05
3.30337e-05
3.3493e-05
3.33182e-05
3.30486e-05
3.3635e-05
3.3159e-05
3.89001e-05
3.89377e-05
3.3077e-05
3.31864e-05
3.30823e-05
3.86977e-05
3.91269e-05
3.85359e-05
3.35203e-05
3.39286e-05
3.33171e-05
3.38625e-05
3.94864e-05
3.893e-05
3.35148e-05
3.35375e-05
3.32884e-05
3.34918e-05
3.31564e-05
3.37434e-05
3.31691e-05
3.90013e-05
3.87317e-05
3.30218e-05
3.34719e-05
3.30386e-05
3.85489e-05
3.85452e-05
4.06507e-05
3.32839e-05
3.35185e-05
3.46513e-05
3.31503e-05
3.88098e-05
3.83465e-05
3.32507e-05
3.3288e-05
3.46041e-05
3.35944e-05
3.33106e-05
3.32229e-05
3.54941e-05
3.86921e-05
3.95406e-05
3.32803e-05
3.3796e-05
3.57282e-05
4.14799e-05
4.16057e-05
4.5955e-05
3.601e-05
3.3628e-05
3.97885e-05
3.96781e-05
3.91459e-05
4.60851e-05
3.60038e-05
3.49213e-05
3.97995e-05
4.00417e-05
3.65793e-05
3.97394e-05
3.95565e-05
4.06135e-05
4.62252e-05
3.68277e-05
3.99944e-05
3.97212e-05
4.56844e-05
4.66286e-05
4.73739e-05
4.08686e-05
4.14617e-05
4.20608e-05
4.35202e-05
4.7155e-05
4.93804e-05
4.0858e-05
4.13607e-05
4.20196e-05
4.2692e-05
4.0314e-05
4.32881e-05
4.10751e-05
4.70412e-05
4.81636e-05
4.04065e-05
4.24419e-05
4.09806e-05
4.58803e-05
4.6974e-05
4.13811e-05
4.19224e-05
4.34057e-05
3.80862e-05
3.87622e-05
4.90793e-05
4.1565e-05
4.18864e-05
4.25254e-05
3.81109e-05
3.81272e-05
4.09477e-05
3.86965e-05
3.81203e-05
4.76707e-05
4.13327e-05
4.07875e-05
3.81158e-05
3.7861e-05
4.16392e-05
4.09128e-05
3.96594e-05
3.67827e-05
3.70802e-05
3.51919e-05
3.54238e-05
4.08837e-05
4.00105e-05
3.68171e-05
3.67708e-05
3.52623e-05
3.55271e-05
3.71397e-05
3.55141e-05
3.60804e-05
4.0824e-05
4.02938e-05
3.69396e-05
3.56862e-05
3.60613e-05
4.06226e-05
4.00398e-05
4.47817e-05
3.52319e-05
3.54971e-05
3.8927e-05
3.89971e-05
4.06259e-05
4.50306e-05
3.53053e-05
3.56149e-05
3.89387e-05
3.87884e-05
3.61896e-05
3.91631e-05
3.99969e-05
4.0893e-05
4.4464e-05
3.62301e-05
3.89395e-05
4.02276e-05
4.59136e-05
4.56295e-05
4.73244e-05
4.05965e-05
4.01824e-05
4.26134e-05
4.11866e-05
4.55896e-05
4.54721e-05
4.05303e-05
3.98454e-05
4.24926e-05
4.15871e-05
4.12368e-05
4.11456e-05
4.22869e-05
4.495e-05
4.57037e-05
4.13366e-05
4.14975e-05
4.22422e-05
4.69135e-05
4.72676e-05
4.41767e-05
4.25992e-05
4.11068e-05
4.08982e-05
3.9629e-05
4.52516e-05
4.24851e-05
4.24912e-05
4.17917e-05
4.10822e-05
4.18661e-05
4.21812e-05
3.95421e-05
3.99601e-05
4.57649e-05
4.57108e-05
4.214e-05
4.17328e-05
4.012e-05
4.31476e-05
4.38956e-05
4.42029e-05
4.02945e-05
3.95023e-05
4.01398e-05
4.09842e-05
4.24706e-05
4.62249e-05
4.05298e-05
4.18335e-05
4.02971e-05
4.14582e-05
3.93691e-05
4.09711e-05
3.91101e-05
4.57445e-05
4.55491e-05
3.95642e-05
4.14317e-05
3.92054e-05
4.31148e-05
4.49507e-05
4.7655e-05
4.06732e-05
4.25068e-05
4.35385e-05
4.45202e-05
4.71237e-05
4.86578e-05
4.06541e-05
4.13034e-05
4.30101e-05
4.14585e-05
3.954e-05
4.44265e-05
4.36798e-05
4.5504e-05
4.5412e-05
3.947e-05
4.14082e-05
4.31767e-05
4.7787e-05
4.79141e-05
4.96746e-05
4.4027e-05
4.47041e-05
4.56678e-05
4.56583e-05
4.86953e-05
4.95722e-05
4.36929e-05
4.22396e-05
4.58733e-05
4.59632e-05
4.46838e-05
4.5898e-05
4.72845e-05
4.61208e-05
5.05406e-05
4.43403e-05
4.61949e-05
4.74861e-05
5.18552e-05
5.02498e-05
5.2428e-05
4.64746e-05
4.63018e-05
4.82148e-05
4.7291e-05
5.01048e-05
5.13866e-05
4.67292e-05
4.64176e-05
4.81313e-05
4.62011e-05
4.78508e-05
4.73263e-05
4.78856e-05
5.08224e-05
4.8705e-05
4.80439e-05
4.62581e-05
4.78805e-05
5.07209e-05
5.24315e-05
4.72595e-05
4.82094e-05
4.72091e-05
4.52729e-05
4.433e-05
5.1198e-05
4.62358e-05
4.80859e-05
4.54265e-05
4.49686e-05
4.41678e-05
4.70807e-05
4.40769e-05
4.35716e-05
4.81087e-05
4.64138e-05
4.6835e-05
4.39849e-05
4.34525e-05
4.57824e-05
4.64619e-05
4.36461e-05
4.359e-05
4.31999e-05
4.11859e-05
4.17434e-05
4.57447e-05
4.45346e-05
4.34725e-05
4.41681e-05
4.14413e-05
4.52817e-05
4.29899e-05
4.18956e-05
4.27549e-05
4.67171e-05
4.96136e-05
4.30183e-05
4.56461e-05
4.30721e-05
4.67193e-05
4.37646e-05
4.97428e-05
4.11937e-05
4.17984e-05
4.50523e-05
4.59876e-05
4.49275e-05
5.05755e-05
4.14666e-05
4.57405e-05
4.53274e-05
4.71838e-05
4.31814e-05
4.62593e-05
4.70266e-05
5.00212e-05
5.10898e-05
4.38512e-05
4.73805e-05
4.72612e-05
5.1118e-05
5.07574e-05
5.32944e-05
4.70316e-05
4.78275e-05
5.01154e-05
5.11848e-05
5.15478e-05
5.48839e-05
4.7092e-05
4.7644e-05
4.97905e-05
4.82688e-05
4.81183e-05
5.11217e-05
4.97664e-05
5.12852e-05
5.1362e-05
4.81433e-05
4.82214e-05
4.94328e-05
5.31846e-05
5.33548e-05
5.19038e-05
5.0346e-05
5.14601e-05
4.99654e-05
5.0619e-05
5.50334e-05
5.23509e-05
4.99833e-05
4.82524e-05
4.95749e-05
4.73019e-05
4.97717e-05
5.04702e-05
4.79491e-05
5.12755e-05
4.93835e-05
4.94236e-05
4.71615e-05
4.76181e-05
4.96075e-05
5.16445e-05
5.00899e-05
4.91834e-05
4.91538e-05
4.74436e-05
4.58996e-05
5.16146e-05
4.79337e-05
4.89086e-05
4.68897e-05
4.74948e-05
4.63452e-05
4.69638e-05
4.56863e-05
4.56033e-05
4.92065e-05
4.87528e-05
4.67486e-05
4.61001e-05
4.56433e-05
4.78392e-05
5.00479e-05
4.99612e-05
4.71074e-05
4.53911e-05
4.68432e-05
4.52173e-05
4.77706e-05
4.83006e-05
4.72358e-05
4.63698e-05
4.70722e-05
4.77925e-05
4.56041e-05
4.51936e-05
4.74233e-05
4.89976e-05
5.1137e-05
4.56701e-05
4.79159e-05
4.78312e-05
5.12262e-05
5.01424e-05
5.14821e-05
4.69144e-05
4.5621e-05
4.84615e-05
4.87635e-05
4.88963e-05
5.18748e-05
4.71832e-05
4.83952e-05
4.85988e-05
4.96405e-05
4.83702e-05
4.89759e-05
4.99627e-05
5.15465e-05
5.25678e-05
4.87079e-05
4.982e-05
5.00442e-05
5.29444e-05
5.169e-05
5.17352e-05
4.89148e-05
4.94336e-05
4.93946e-05
5.0211e-05
5.22296e-05
5.27625e-05
4.89628e-05
4.98257e-05
4.93122e-05
4.98856e-05
5.01021e-05
5.02507e-05
5.00001e-05
5.26504e-05
5.23337e-05
5.01367e-05
4.99745e-05
4.99422e-05
5.22264e-05
5.1716e-05
5.1516e-05
4.93873e-05
5.02259e-05
4.92964e-05
5.00178e-05
5.27754e-05
5.23785e-05
4.92976e-05
4.97857e-05
4.91806e-05
4.92618e-05
4.97701e-05
5.00191e-05
4.922e-05
5.22786e-05
5.15686e-05
4.96931e-05
4.92712e-05
4.91279e-05
5.14145e-05
5.16277e-05
5.25909e-05
4.93198e-05
4.99081e-05
4.99985e-05
4.97956e-05
5.23668e-05
5.2192e-05
4.92044e-05
4.91645e-05
4.99566e-05
4.91912e-05
4.91265e-05
4.97376e-05
4.91392e-05
5.15584e-05
5.17145e-05
4.90339e-05
4.91381e-05
4.90629e-05
5.16544e-05
5.27861e-05
5.32031e-05
5.02507e-05
4.98097e-05
5.07554e-05
5.03101e-05
5.22345e-05
5.27124e-05
5.02379e-05
4.94362e-05
5.07845e-05
5.05251e-05
4.93458e-05
5.02255e-05
5.04024e-05
5.19314e-05
5.29439e-05
4.93089e-05
5.04512e-05
5.04356e-05
5.29008e-05
5.32444e-05
5.31027e-05
5.08342e-05
5.04894e-05
5.08759e-05
5.08526e-05
5.28378e-05
5.31412e-05
5.08686e-05
5.07535e-05
5.09141e-05
5.10724e-05
5.06771e-05
5.0906e-05
5.11732e-05
5.30963e-05
5.3337e-05
5.07181e-05
5.11179e-05
5.1205e-05
5.34653e-05
5.30974e-05
5.28672e-05
5.08561e-05
5.09332e-05
5.07425e-05
5.10178e-05
5.31996e-05
5.32438e-05
5.08929e-05
5.10867e-05
5.07498e-05
5.1032e-05
5.12347e-05
5.10945e-05
5.12539e-05
5.33596e-05
5.32222e-05
5.12569e-05
5.11203e-05
5.12624e-05
5.34127e-05
5.28834e-05
5.32953e-05
5.07417e-05
5.10135e-05
5.10604e-05
5.10131e-05
5.3253e-05
5.31792e-05
5.07447e-05
5.10044e-05
5.10456e-05
5.10386e-05
5.12297e-05
5.10435e-05
5.10937e-05
5.32279e-05
5.3264e-05
5.12264e-05
5.10706e-05
5.10933e-05
5.32254e-05
5.34377e-05
5.37857e-05
5.12416e-05
5.1067e-05
5.16449e-05
5.14703e-05
5.32249e-05
5.35861e-05
5.12446e-05
5.11616e-05
5.16578e-05
5.15428e-05
5.1077e-05
5.1392e-05
5.11774e-05
5.33465e-05
5.3636e-05
5.10811e-05
5.14703e-05
5.12052e-05
5.33513e-05
5.38299e-05
5.37826e-05
5.1715e-05
5.15903e-05
5.17554e-05
5.1834e-05
5.36834e-05
5.38985e-05
5.17243e-05
5.16065e-05
5.17469e-05
5.16688e-05
5.13326e-05
5.18226e-05
5.17586e-05
5.36825e-05
5.3731e-05
5.13468e-05
5.16593e-05
5.17343e-05
5.38459e-05
5.37902e-05
5.38751e-05
5.17529e-05
5.18776e-05
5.18404e-05
5.1922e-05
5.39401e-05
5.39656e-05
5.17389e-05
5.17002e-05
5.1814e-05
5.18946e-05
5.18711e-05
5.19796e-05
5.20885e-05
5.37662e-05
5.3954e-05
5.18445e-05
5.1952e-05
5.20781e-05
5.40996e-05
5.39639e-05
5.42293e-05
5.1942e-05
5.19302e-05
5.22072e-05
5.2052e-05
5.39794e-05
5.40229e-05
5.19322e-05
5.19683e-05
5.2225e-05
5.21713e-05
5.21079e-05
5.20268e-05
5.20796e-05
5.4016e-05
5.41536e-05
5.21079e-05
5.21539e-05
5.20942e-05
5.40376e-05
5.42774e-05
5.42708e-05
5.22714e-05
5.21282e-05
5.23293e-05
5.23381e-05
5.40795e-05
5.42858e-05
5.22892e-05
5.22326e-05
5.2338e-05
5.23515e-05
5.20693e-05
5.23052e-05
5.2165e-05
5.41981e-05
5.42828e-05
5.20858e-05
5.23212e-05
5.2178e-05
5.41527e-05
5.42742e-05
5.41681e-05
5.23235e-05
5.23808e-05
5.22897e-05
5.24216e-05
5.43307e-05
5.43646e-05
5.23294e-05
5.23592e-05
5.22823e-05
5.23461e-05
5.22883e-05
5.24649e-05
5.25361e-05
5.43058e-05
5.42776e-05
5.22897e-05
5.23819e-05
5.2524e-05
5.44604e-05
5.41985e-05
5.44134e-05
5.22982e-05
5.24188e-05
5.24919e-05
5.24119e-05
5.43735e-05
5.42957e-05
5.22881e-05
5.2344e-05
5.24882e-05
5.23772e-05
5.25601e-05
5.24431e-05
5.25402e-05
5.42884e-05
5.42712e-05
5.25505e-05
5.2411e-05
5.25358e-05
5.43885e-05
5.44646e-05
5.45418e-05
5.25511e-05
5.24291e-05
5.26537e-05
5.26196e-05
5.43169e-05
5.45016e-05
5.25515e-05
5.23929e-05
5.2642e-05
5.25802e-05
5.24965e-05
5.25686e-05
5.2459e-05
5.42857e-05
5.44378e-05
5.24934e-05
5.25166e-05
5.24524e-05
5.43207e-05
5.45674e-05
5.46206e-05
5.26753e-05
5.26916e-05
5.27582e-05
5.28499e-05
5.45745e-05
5.47321e-05
5.26633e-05
5.26826e-05
5.2775e-05
5.29824e-05
5.24875e-05
5.28601e-05
5.28398e-05
5.45399e-05
5.49068e-05
5.24815e-05
5.29944e-05
5.28583e-05
5.4745e-05
5.46498e-05
5.46361e-05
5.27953e-05
5.28649e-05
5.28207e-05
5.28365e-05
5.47558e-05
5.46227e-05
5.28198e-05
5.30245e-05
5.28489e-05
5.29894e-05
5.29093e-05
5.28639e-05
5.29338e-05
5.49561e-05
5.4769e-05
5.29333e-05
5.30154e-05
5.29579e-05
5.4736e-05
5.46408e-05
5.4539e-05
5.28102e-05
5.27822e-05
5.27455e-05
5.26827e-05
5.46159e-05
5.44589e-05
5.28377e-05
5.28828e-05
5.27348e-05
5.25671e-05
5.29041e-05
5.26817e-05
5.26883e-05
5.47315e-05
5.4292e-05
5.29228e-05
5.25628e-05
5.26725e-05
5.44446e-05
5.45627e-05
5.47465e-05
5.27468e-05
5.26846e-05
5.28939e-05
5.2884e-05
5.44832e-05
5.4748e-05
5.27285e-05
5.25284e-05
5.28274e-05
5.2588e-05
5.26589e-05
5.28471e-05
5.27153e-05
5.42944e-05
5.44768e-05
5.26342e-05
5.25642e-05
5.26718e-05
5.45956e-05
5.48037e-05
5.48689e-05
5.29545e-05
5.29627e-05
5.30368e-05
5.30748e-05
5.48192e-05
5.4924e-05
5.291e-05
5.2742e-05
5.30472e-05
5.3122e-05
5.2842e-05
5.30949e-05
5.31672e-05
5.45981e-05
5.49828e-05
5.27959e-05
5.31438e-05
5.31789e-05
5.50404e-05
5.48779e-05
5.47322e-05
5.30399e-05
5.30784e-05
5.29892e-05
5.29903e-05
5.49385e-05
5.47205e-05
5.30571e-05
5.3183e-05
5.30231e-05
5.31951e-05
5.32088e-05
5.30336e-05
5.31424e-05
5.50384e-05
5.4968e-05
5.32296e-05
5.32304e-05
5.31698e-05
5.48661e-05
5.47295e-05
5.45528e-05
5.29301e-05
5.29083e-05
5.27607e-05
5.27279e-05
5.46987e-05
5.44574e-05
5.29659e-05
5.31463e-05
5.27877e-05
5.2826e-05
5.29638e-05
5.26875e-05
5.25063e-05
5.49417e-05
5.45515e-05
5.29934e-05
5.27812e-05
5.25268e-05
5.41341e-05
5.45592e-05
5.46066e-05
5.2741e-05
5.27173e-05
5.27807e-05
5.27898e-05
5.44762e-05
5.46934e-05
5.27601e-05
5.27639e-05
5.27663e-05
5.26513e-05
5.24918e-05
5.2794e-05
5.27991e-05
5.4555e-05
5.4492e-05
5.25112e-05
5.26474e-05
5.27921e-05
5.47392e-05
5.46695e-05
5.48421e-05
5.28786e-05
5.28691e-05
5.29998e-05
5.30047e-05
5.47509e-05
5.48226e-05
5.28303e-05
5.26422e-05
5.29388e-05
5.26869e-05
5.30264e-05
5.30458e-05
5.33176e-05
5.45009e-05
5.44721e-05
5.29988e-05
5.27261e-05
5.32508e-05
5.52397e-05
5.48552e-05
5.43929e-05
5.29928e-05
5.30055e-05
5.27128e-05
5.27864e-05
5.48334e-05
5.45237e-05
5.29332e-05
5.27902e-05
5.27644e-05
5.29882e-05
5.33181e-05
5.29031e-05
5.28099e-05
5.45284e-05
5.47732e-05
5.32504e-05
5.30411e-05
5.28351e-05
5.45014e-05
5.43923e-05
5.48812e-05
5.26801e-05
5.26871e-05
5.28812e-05
5.26666e-05
5.44798e-05
5.43486e-05
5.27615e-05
5.30727e-05
5.29746e-05
5.31242e-05
5.24673e-05
5.2506e-05
5.18549e-05
5.48558e-05
5.50032e-05
5.25738e-05
5.29649e-05
5.19386e-05
5.32769e-05
5.50236e-05
5.4608e-05
5.30292e-05
5.27931e-05
5.29629e-05
5.30588e-05
5.44754e-05
5.51676e-05
5.30235e-05
5.30784e-05
5.27444e-05
5.2562e-05
5.18679e-05
5.30821e-05
5.31783e-05
5.4965e-05
5.42232e-05
5.19301e-05
5.25672e-05
5.28786e-05
5.51445e-05
5.44023e-05
5.37626e-05
5.26613e-05
5.30236e-05
5.21109e-05
5.22723e-05
5.51759e-05
5.39234e-05
5.24568e-05
5.25577e-05
5.22835e-05
5.3025e-05
5.38678e-05
5.2772e-05
5.45059e-05
5.42394e-05
5.54185e-05
5.3643e-05
5.34917e-05
5.46418e-05
5.71917e-05
5.38484e-05
5.44084e-05
5.21438e-05
5.22091e-05
5.25372e-05
5.23008e-05
5.38315e-05
5.38915e-05
5.24037e-05
5.31158e-05
5.25183e-05
5.21416e-05
5.43673e-05
5.20165e-05
5.10309e-05
5.55348e-05
5.33968e-05
5.45718e-05
5.1897e-05
5.11036e-05
5.20343e-05
5.42174e-05
5.15805e-05
5.14066e-05
5.38362e-05
5.14246e-05
5.05614e-05
4.18604e-05
4.12354e-05
4.05952e-05
4.95184e-05
5.25547e-05
4.94206e-05
3.73773e-05
3.73765e-05
3.7377e-05
3.7377e-05
3.73701e-05
3.73777e-05
3.73043e-05
3.73768e-05
3.73702e-05
3.73777e-05
3.73768e-05
3.73043e-05
3.73741e-05
3.72959e-05
3.72959e-05
3.58798e-05
4.08721e-05
3.66033e-05
4.51467e-05
5.51147e-05
6.48951e-05
3.58803e-05
4.08712e-05
3.66034e-05
4.51465e-05
3.58932e-05
3.58933e-05
3.58932e-05
3.44005e-05
3.44005e-05
3.44005e-05
3.44005e-05
3.52758e-05
3.56384e-05
3.58929e-05
3.53771e-05
3.60475e-05
3.42365e-05
3.53822e-05
5.51168e-05
6.48994e-05
3.52758e-05
3.58929e-05
3.5638e-05
3.53771e-05
3.60475e-05
3.53822e-05
3.42375e-05
3.65971e-05
3.65977e-05
3.5279e-05
3.40642e-05
3.40633e-05
3.39657e-05
5.13534e-05
3.46793e-05
5.46248e-05
7.65447e-05
8.08614e-05
3.39682e-05
5.13543e-05
3.46789e-05
5.46254e-05
3.39296e-05
3.39297e-05
3.39297e-05
3.25855e-05
3.25854e-05
3.25855e-05