/*--------------------------------*- C++ -*----------------------------------*\
| =========                 |                                                 |
| \\      /  F ield         | OpenFOAM: The Open Source CFD Toolbox           |
|  \\    /   O peration     | Version:  v2012                                 |
|   \\  /    A nd           | Website:  www.openfoam.com                      |
|    \\/     M anipulation  |                                                 |
\*---------------------------------------------------------------------------*/
FoamFile
{
    version     2.0;
    format      ascii;
    class       volScalarField;
    location    "625";
    object      nut;
}
// * * * * * * * * * * * * * * * * * * * * * * * * * * * * * * * * * * * * * //

dimensions      [0 2 -1 0 0 0 0];


internalField   nonuniform List<scalar> 
171728
(
0.000233973
0.000233116
0.000233116
0.000233423
0.000232532
0.000227802
0.000227801
0.000223866
0.000230516
0.00022032
0.000220318
0.000209109
0.000227799
0.000211665
0.000211661
0.000193785
0.000224433
0.00020265
0.000202644
0.000179709
0.000220552
0.000193772
0.000193765
0.000167339
0.000216304
0.000185275
0.000185267
0.000156587
0.00021182
0.000177234
0.000177226
0.000147206
0.000207207
0.000169688
0.00016968
0.00013895
0.000202545
0.000162611
0.000162603
0.000131615
0.000197889
0.000155949
0.000155941
0.000124953
0.000193275
0.000149647
0.000149638
0.000118816
0.000188683
0.000143665
0.000143657
0.000113168
0.000184151
0.000137952
0.000137943
0.000107932
0.000179706
0.000132462
0.000132454
0.000103055
0.000175338
0.000127189
0.00012718
9.84317e-05
0.000171035
0.00012215
0.00012214
9.42505e-05
0.000166785
0.000117372
0.000117362
9.06637e-05
0.000162586
0.000112888
0.000112877
8.77328e-05
0.000158415
0.000108756
0.000108745
8.5386e-05
0.000154264
0.000105026
0.000105015
8.36672e-05
0.000150142
0.00010171
0.000101701
8.25783e-05
0.000146063
9.88923e-05
9.88852e-05
8.20986e-05
0.000142045
9.65855e-05
9.6579e-05
8.21525e-05
0.000138122
9.47992e-05
9.47925e-05
8.26962e-05
0.000134285
9.35105e-05
9.35105e-05
8.3661e-05
0.000130626
9.27384e-05
9.27395e-05
8.50023e-05
0.000127156
9.24688e-05
9.24629e-05
8.6705e-05
0.000123897
9.2628e-05
9.26298e-05
8.86249e-05
0.000120883
9.32265e-05
9.32422e-05
9.07839e-05
0.000118186
9.42266e-05
9.42101e-05
9.31152e-05
0.000115809
9.55929e-05
9.55917e-05
9.55636e-05
0.000113747
9.72216e-05
9.72521e-05
9.81083e-05
0.000112032
9.92157e-05
9.91584e-05
0.000100723
0.000110802
0.000101468
0.00010149
0.000103527
0.00010976
0.00010369
0.000103826
0.000106083
0.000109078
0.000106418
0.000106192
0.000108718
0.000108376
0.000108704
0.000108867
0.000111327
0.000108823
0.000111959
0.00011206
0.000114291
0.000110307
0.000115338
0.000115423
0.000117637
0.000110136
0.000118127
0.000117838
0.000119552
0.000111192
0.000121606
0.000120899
0.000122391
0.00011347
0.000124762
0.000126127
0.000127258
0.000116711
0.00012847
0.000129772
0.000129473
0.000115794
0.000132913
0.000128567
0.000124434
0.000101163
0.000119811
0.000118265
0.000117494
0.000106361
0.000112123
0.000122185
0.0001345
0.000148407
0.000167394
0.000168361
0.000160371
0.00018177
0.000194957
0.000186704
0.000162679
0.000143802
0.000141915
0.000139369
0.000132334
9.6485e-05
0.000123204
0.000123909
0.000125359
0.000111848
0.000154799
0.000149048
0.000159567
0.000157163
0.000159732
0.000161115
0.000163822
0.000144466
0.000139378
0.000160936
0.000134293
0.000125385
0.00015587
0.000149864
0.000132023
0.000139492
0.000168926
0.000150984
0.000157106
0.000170331
0.000184109
0.000186455
0.000186481
0.000205173
0.000195626
0.000174662
0.000176037
0.000178183
0.000158792
0.000161133
0.00014304
0.000122589
0.000140955
0.000175004
0.000148161
0.000135458
0.000179173
0.0001848
0.000175175
0.000197584
0.000215445
0.000189701
0.000189845
0.000208961
0.000200062
0.000177272
0.000163015
0.000183608
0.000164855
0.000168709
0.000151388
0.000167087
0.000163775
0.000184676
0.000172922
0.000174379
0.000190884
0.000195516
0.000181987
0.000186927
0.000196822
0.000194616
0.000177174
0.000186446
0.000193048
0.00018734
0.000170974
0.000192806
0.000190125
0.000186296
0.000171981
0.000200494
0.000194344
0.00019627
0.000179079
0.000202326
0.000198466
0.000199639
0.000182135
0.00019934
0.000198731
0.000198538
0.000181674
0.000202124
0.000197483
0.000198127
0.000179907
0.000208615
0.000200448
0.000200759
0.000180566
0.000209422
0.000203159
0.000201635
0.000183477
0.000210788
0.000203544
0.000203645
0.000184873
0.000214989
0.000203979
0.000205014
0.000183988
0.000216632
0.000206207
0.000206145
0.000185072
0.000216289
0.000207061
0.000206551
0.000186982
0.000219246
0.000206556
0.000206091
0.000186157
0.000221257
0.000208173
0.000207764
0.000185744
0.000223186
0.000210463
0.000211898
0.00018888
0.000225306
0.000210158
0.000211399
0.00018886
0.000224948
0.000208951
0.000207702
0.000186602
0.000226668
0.000211168
0.000208972
0.000188067
0.000229611
0.000213385
0.000214038
0.000191692
0.00023093
0.000212527
0.000214747
0.000190291
0.000229386
0.000210494
0.00021143
0.000185106
0.000230216
0.000212253
0.000210389
0.000190688
0.000232988
0.000215071
0.000212204
0.000194525
0.000232681
0.00021266
0.000215597
0.000188509
0.000237291
0.000210985
0.000213007
0.000178683
0.000233831
0.000217879
0.000212425
0.000196877
0.000230531
0.000214352
0.000226672
0.000214055
0.000239827
0.000212934
0.000205742
0.000174857
0.000234266
0.000234448
0.000234449
0.000234267
0.000234448
0.000234449
0.000234274
0.000234274
0.000234274
0.000234274
0.000234448
0.000234448
0.000234266
0.000234448
0.000234448
0.000234266
0.000233423
0.000226204
0.000233116
0.000233114
0.000229361
0.000229357
0.000233423
0.000226205
0.000233114
0.000233114
0.000229359
0.000229356
0.000233116
0.000229364
0.000229361
0.000233423
0.000226202
0.000233114
0.000229363
0.000229359
0.000226202
0.000223867
0.00021223
0.000227799
0.000227794
0.000222332
0.000222326
0.000223868
0.000212234
0.000227797
0.000227792
0.000222332
0.000222323
0.000227798
0.000222339
0.000222331
0.000223866
0.000212227
0.000227797
0.000222336
0.000222331
0.000212228
0.000209111
0.000197061
0.000220313
0.000220307
0.000213879
0.000213874
0.000209112
0.000197066
0.000220314
0.000220304
0.000213883
0.000213869
0.000220311
0.00021389
0.000213877
0.000209107
0.000197057
0.000220313
0.000213886
0.000213882
0.000197058
0.000193788
0.000182876
0.000211654
0.000211648
0.00020489
0.000204884
0.000193792
0.000182883
0.000211658
0.000211643
0.000204897
0.000204879
0.000211651
0.000204905
0.000204887
0.000193784
0.000182872
0.000211657
0.000204899
0.000204896
0.000182873
0.000179713
0.000170268
0.000202634
0.000202628
0.000195943
0.000195937
0.000179717
0.000170274
0.000202643
0.000202622
0.000195954
0.000195931
0.000202631
0.000195962
0.00019594
0.000179708
0.000170263
0.000202641
0.000195955
0.000195953
0.000170264
0.000167344
0.000159242
0.000193753
0.000193747
0.000187336
0.000187331
0.000167349
0.000159249
0.000193765
0.00019374
0.000187351
0.000187324
0.00019375
0.000187359
0.000187333
0.000167339
0.000159238
0.000193764
0.000187351
0.00018735
0.000159238
0.000156592
0.000149613
0.000185253
0.000185247
0.000179173
0.000179168
0.000156597
0.00014962
0.000185268
0.00018524
0.000179191
0.00017916
0.000185249
0.000179198
0.00017917
0.000156587
0.000149608
0.000185267
0.000179189
0.00017919
0.000149608
0.000147211
0.000141107
0.000177208
0.000177203
0.000171501
0.000171496
0.000147217
0.000141114
0.000177227
0.000177195
0.000171521
0.000171488
0.000177205
0.000171529
0.000171498
0.000147206
0.000141102
0.000177225
0.00017152
0.000171521
0.000141101
0.000138956
0.000133547
0.00016966
0.000169655
0.000164309
0.000164304
0.000138961
0.000133554
0.000169682
0.000169647
0.000164332
0.000164296
0.000169658
0.000164339
0.000164307
0.000138951
0.000133542
0.00016968
0.000164331
0.000164332
0.000133541
0.000131621
0.000126686
0.000162581
0.000162576
0.000157546
0.000157541
0.000131627
0.000126693
0.000162605
0.000162567
0.000157572
0.000157533
0.000162578
0.000157579
0.000157545
0.000131615
0.00012668
0.000162604
0.00015757
0.000157571
0.000126679
0.00012496
0.000120362
0.000155916
0.000155912
0.000151157
0.000151152
0.000124966
0.000120369
0.000155942
0.000155903
0.000151184
0.000151144
0.000155915
0.000151192
0.000151156
0.000124954
0.000120356
0.000155942
0.000151183
0.000151184
0.000120355
0.000118822
0.000114426
0.000149612
0.000149607
0.000145096
0.000145091
0.000118828
0.000114433
0.000149639
0.000149599
0.000145124
0.000145083
0.000149611
0.000145132
0.000145095
0.000118816
0.000114419
0.000149639
0.000145123
0.000145124
0.000114418
0.000113175
0.000108835
0.00014363
0.000143624
0.000139318
0.000139313
0.000113179
0.000108842
0.000143658
0.000143616
0.000139347
0.000139305
0.000143629
0.000139356
0.000139319
0.000113168
0.000108829
0.000143658
0.000139347
0.000139348
0.000108828
0.000107939
0.000103701
0.000137916
0.000137909
0.000133776
0.000133769
0.000107944
0.000103707
0.000137944
0.000137901
0.000133805
0.000133762
0.000137915
0.000133814
0.000133776
0.000107933
0.000103695
0.000137944
0.000133805
0.000133806
0.000103694
0.000103061
9.91242e-05
0.000132425
0.000132418
0.000128445
0.000128437
0.000103068
9.91303e-05
0.000132453
0.00013241
0.000128472
0.000128429
0.000132424
0.000128484
0.000128445
0.000103056
9.91183e-05
0.000132454
0.000128474
0.000128475
9.91164e-05
9.8439e-05
9.4988e-05
0.00012715
0.000127143
0.000123344
0.000123336
9.84444e-05
9.49936e-05
0.000127178
0.000127135
0.00012337
0.000123328
0.000127151
0.000123384
0.000123346
9.84331e-05
9.49817e-05
0.00012718
0.000123374
0.000123374
9.4981e-05
9.42571e-05
9.14379e-05
0.000122111
0.000122103
0.000118478
0.000118471
9.42621e-05
9.14427e-05
0.000122137
0.000122095
0.000118503
0.000118462
0.000122113
0.000118517
0.000118481
9.42506e-05
9.14326e-05
0.000122141
0.000118507
0.000118508
9.14325e-05
9.06676e-05
8.838e-05
0.000117332
0.000117325
0.000113922
0.000113918
9.06731e-05
8.83868e-05
0.000117357
0.000117316
0.000113946
0.000113907
0.000117336
0.000113963
0.000113927
9.06639e-05
8.83767e-05
0.000117363
0.000113953
0.000113952
8.83748e-05
8.7737e-05
8.59094e-05
0.000112847
0.000112841
0.000109691
0.000109685
8.77443e-05
8.59135e-05
0.00011287
0.000112831
0.000109714
0.000109674
0.000112851
0.00010973
0.000109696
8.77345e-05
8.5903e-05
0.000112876
0.000109719
0.00010972
8.59063e-05
8.53901e-05
8.40684e-05
0.000108718
0.000108709
0.000105848
0.00010584
8.53929e-05
8.40749e-05
0.000108739
0.0001087
0.000105869
0.000105831
0.000108721
0.000105886
0.000105853
8.53834e-05
8.40663e-05
0.000108745
0.000105876
0.000105876
8.40661e-05
8.36689e-05
8.28559e-05
0.000104988
0.000104979
0.000102453
0.000102444
8.36759e-05
8.2864e-05
0.000105007
0.00010497
0.000102472
0.000102434
0.000104992
0.000102489
0.000102457
8.3667e-05
8.28538e-05
0.000105015
0.000102479
0.000102479
8.28538e-05
8.25797e-05
8.22589e-05
0.000101676
0.000101665
9.9518e-05
9.9504e-05
8.25859e-05
8.22604e-05
0.000101695
0.000101657
9.95347e-05
9.94961e-05
0.000101679
9.9549e-05
9.95217e-05
8.25757e-05
8.22559e-05
0.000101701
9.95392e-05
9.95424e-05
8.22572e-05
8.2099e-05
8.22081e-05
9.88626e-05
9.88481e-05
9.70842e-05
9.70759e-05
8.20987e-05
8.22163e-05
9.88792e-05
9.88413e-05
9.70984e-05
9.7066e-05
9.88653e-05
9.71182e-05
9.70876e-05
8.20946e-05
8.22097e-05
9.88852e-05
9.71086e-05
9.7107e-05
8.22054e-05
8.21531e-05
8.26549e-05
9.65552e-05
9.65433e-05
9.51702e-05
9.51554e-05
8.21624e-05
8.26542e-05
9.65702e-05
9.65369e-05
9.51843e-05
9.51542e-05
9.65589e-05
9.51973e-05
9.51686e-05
8.21552e-05
8.26519e-05
9.65779e-05
9.51905e-05
9.51868e-05
8.26505e-05
8.27003e-05
8.35357e-05
9.47739e-05
9.4756e-05
9.37642e-05
9.3753e-05
8.27016e-05
8.35392e-05
9.47889e-05
9.47562e-05
9.37784e-05
9.37482e-05
9.47725e-05
9.37904e-05
9.37706e-05
8.26996e-05
8.35372e-05
9.47905e-05
9.37876e-05
9.37847e-05
8.35382e-05
8.3659e-05
8.47917e-05
9.34832e-05
9.34742e-05
9.28592e-05
9.28428e-05
8.36634e-05
8.47916e-05
9.34986e-05
9.34699e-05
9.28707e-05
9.28388e-05
9.349e-05
9.2879e-05
9.28605e-05
8.36628e-05
8.47877e-05
9.35036e-05
9.28778e-05
9.2875e-05
8.47907e-05
8.5003e-05
8.64266e-05
9.27189e-05
9.27005e-05
9.2478e-05
9.24589e-05
8.50017e-05
8.64307e-05
9.2731e-05
9.27039e-05
9.24872e-05
9.2463e-05
9.27191e-05
9.24944e-05
9.24802e-05
8.4999e-05
8.64304e-05
9.27361e-05
9.24911e-05
9.24946e-05
8.64341e-05
8.66992e-05
8.83165e-05
9.24509e-05
9.24348e-05
9.25451e-05
9.25182e-05
8.67027e-05
8.83022e-05
9.2461e-05
9.24359e-05
9.25469e-05
9.25147e-05
9.24517e-05
9.25477e-05
9.25329e-05
8.67031e-05
8.83009e-05
9.2466e-05
9.25462e-05
9.25401e-05
8.83053e-05
8.86385e-05
9.03975e-05
9.26229e-05
9.26004e-05
9.30109e-05
9.30039e-05
8.86214e-05
9.04131e-05
9.26246e-05
9.25986e-05
9.30211e-05
9.30144e-05
9.26087e-05
9.3034e-05
9.30316e-05
8.86234e-05
9.04181e-05
9.2616e-05
9.30427e-05
9.30339e-05
9.04162e-05
9.07607e-05
9.27014e-05
9.31872e-05
9.31966e-05
9.39274e-05
9.39182e-05
9.07788e-05
9.27131e-05
9.32028e-05
9.32147e-05
9.39372e-05
9.39013e-05
9.32129e-05
9.39502e-05
9.39364e-05
9.07861e-05
9.26971e-05
9.32173e-05
9.39296e-05
9.39464e-05
9.27069e-05
9.31119e-05
9.51435e-05
9.42159e-05
9.41948e-05
9.52062e-05
9.51923e-05
9.31148e-05
9.51367e-05
9.42232e-05
9.41774e-05
9.52014e-05
9.51959e-05
9.4216e-05
9.5228e-05
9.51922e-05
9.30954e-05
9.51321e-05
9.42306e-05
9.52223e-05
9.52033e-05
9.5127e-05
9.55791e-05
9.76712e-05
9.55823e-05
9.5564e-05
9.68109e-05
9.67682e-05
9.55749e-05
9.76494e-05
9.55762e-05
9.55702e-05
9.68117e-05
9.67709e-05
9.55703e-05
9.67789e-05
9.68063e-05
9.55737e-05
9.76586e-05
9.5566e-05
9.67804e-05
9.68048e-05
9.76699e-05
9.81044e-05
0.000100216
9.72232e-05
9.72049e-05
9.85955e-05
9.86478e-05
9.80915e-05
0.000100262
9.72306e-05
9.72341e-05
9.86154e-05
9.86168e-05
9.72394e-05
9.86833e-05
9.86363e-05
9.80956e-05
0.000100277
9.72455e-05
9.8639e-05
9.86386e-05
0.000100252
0.000100691
0.000103066
9.91616e-05
9.91808e-05
0.000100926
0.00010088
0.000100747
0.000103006
9.91767e-05
9.9137e-05
0.00010091
0.000100864
9.91853e-05
0.000100876
0.000100895
0.000100737
0.000103003
9.91905e-05
0.000100937
0.000100922
0.000103047
0.000103549
0.000105621
0.000101497
0.000101485
0.000103215
0.000103053
0.000103479
0.000105595
0.000101474
0.000101422
0.000103221
0.000103193
0.000101438
0.000103076
0.000103221
0.000103507
0.000105629
0.000101456
0.000103188
0.00010321
0.000105615
0.000106087
0.000108254
0.000103773
0.000103645
0.00010562
0.000105687
0.000106038
0.000108336
0.000103791
0.000103845
0.000105637
0.000105564
0.000103782
0.000105765
0.000105665
0.000106082
0.000108246
0.000103768
0.000105539
0.000105611
0.000108255
0.000108731
0.000110836
0.000106342
0.000106336
0.000108094
0.000108074
0.000108826
0.000110808
0.000106365
0.000106235
0.000108091
0.000108153
0.000106332
0.000108112
0.0001081
0.000108692
0.000110867
0.000106281
0.000108164
0.000108117
0.00011086
0.000111251
0.000113609
0.000108626
0.000108671
0.000111002
0.00011123
0.000111251
0.000113779
0.000108616
0.000108823
0.000110953
0.000111119
0.00010872
0.000111125
0.000111078
0.000111384
0.000113777
0.000108772
0.000111242
0.000111128
0.000113696
0.000114269
0.000117199
0.00011196
0.000112071
0.000114845
0.000114481
0.000114386
0.00011687
0.000111906
0.000111913
0.000114865
0.000114418
0.000111894
0.000114514
0.000114847
0.000114312
0.00011689
0.000111931
0.000114485
0.000114869
0.000117107
0.00011772
0.000119352
0.000115811
0.000115226
0.000117339
0.000117559
0.000117355
0.000119509
0.000115853
0.000115425
0.000117392
0.000117642
0.000115802
0.000117626
0.000117262
0.000117429
0.000119499
0.000115769
0.000117474
0.000117229
0.000119268
0.000119601
0.000121696
0.000117546
0.000118003
0.00012002
0.000120235
0.000119935
0.000122127
0.000117609
0.00011795
0.000120034
0.000119829
0.000117636
0.000120331
0.000119903
0.000119835
0.000121619
0.000117661
0.000119788
0.000119748
0.000121668
0.00012245
0.000125891
0.000121239
0.00012162
0.000124424
0.000124504
0.000122814
0.000125584
0.00012111
0.000120923
0.000124039
0.000124239
0.000121025
0.000124183
0.000124542
0.000122266
0.000126139
0.000120824
0.000124616
0.000124797
0.00012641
0.000126504
0.00012886
0.000125512
0.000124921
0.000128327
0.000126705
0.000125962
0.000127909
0.000125297
0.000125695
0.000128809
0.000129537
0.000125971
0.000127474
0.000129956
0.000127008
0.000129496
0.000126359
0.000129706
0.000130328
0.000129559
0.000129164
0.000128485
0.000128872
0.000127871
0.000130161
0.000132587
0.000128526
0.000131128
0.0001294
0.000129738
0.000130351
0.000129626
0.000130096
0.000132295
0.000127227
0.00012952
0.000128041
0.000130463
0.000128458
0.000126538
0.000125589
0.0001276
0.00011843
0.000128806
0.000133804
0.000120363
0.000126428
0.000131157
0.000122626
0.000128887
0.000129937
0.000120213
0.000122308
0.000125363
0.00012527
0.000118781
0.000127499
0.000120241
0.000124146
0.000122041
0.000117476
0.00011792
0.000116911
0.000124023
0.000117614
0.000120675
0.00012055
0.000109448
0.000120026
0.000109664
0.000117411
0.000117969
0.000120185
0.00011252
0.000117563
0.000110004
0.00012751
0.000118281
0.000116757
0.000116982
0.000114035
0.000129071
0.000129965
0.000128812
0.000157764
0.000128628
0.000110435
0.000155821
0.000151251
0.000112686
0.000155722
0.000128534
0.000119722
0.000155885
0.000156237
0.000134152
0.000152163
0.00015563
0.000121866
0.000158631
0.000135999
0.000156284
0.000157423
0.000157328
0.000162684
0.000176731
0.000166078
0.000167545
0.000183393
0.000195804
0.000163495
0.000190726
0.000166002
0.000169192
0.000182952
0.000188904
0.000162455
0.000193695
0.0001731
0.00016465
0.000182111
0.000163941
0.00018646
0.000172652
0.000164558
0.000174075
0.000136301
0.000184052
0.00019721
0.000152555
0.000158043
0.000188875
0.000137121
0.00018361
0.000189269
0.000152603
0.000152142
0.00017318
0.000157183
0.000150011
0.000178695
0.000135174
0.000172022
0.000151634
0.000147587
0.000135696
0.000131953
0.00011844
0.000139914
0.000142227
0.000120561
0.000123565
0.000131472
0.000121496
0.000140059
0.000139155
0.000121153
0.000123913
0.000140077
0.000124044
0.000125973
0.000130722
0.000122865
0.000138071
0.00012491
0.000125688
0.000123124
0.000119372
0.000146262
0.000118905
0.0001226
0.000141171
0.000145003
0.000124235
0.000151375
0.000119559
0.000122807
0.000141444
0.000141108
0.000125229
0.000146356
0.000150705
0.000125371
0.000145201
0.00012541
0.000142393
0.000152522
0.000155207
0.000151691
0.000166053
0.000153546
0.000153859
0.000171506
0.000161607
0.000155006
0.000155229
0.000153178
0.000148098
0.000170169
0.000160302
0.000160729
0.000161491
0.000171469
0.000147857
0.000152631
0.000161564
0.000159839
0.000170783
0.000165867
0.000165517
0.000142321
0.00017157
0.000160066
0.000154239
0.000142446
0.000152908
0.000130169
0.000170295
0.000161867
0.000155844
0.000162404
0.000170697
0.000141908
0.000148606
0.000152806
0.000152372
0.000170022
0.000161471
0.000150139
0.000137309
0.000139245
0.000136346
0.00014744
0.000139784
0.0001411
0.000146422
0.000128794
0.000147666
0.000149713
0.00016179
0.00014271
0.000153541
0.000141654
0.000146303
0.000133048
0.000152076
0.000147261
0.000143642
0.00015327
0.000134209
0.000129351
0.0001398
0.000153621
0.000143275
0.000156436
0.000159984
0.000168653
0.000152612
0.000160933
0.000143498
0.000150307
0.000155996
0.000146816
0.000134093
0.000167625
0.000159698
0.000145706
0.000141501
0.000133999
0.000146153
0.000155846
0.00015306
0.000154466
0.00016582
0.000162543
0.000169259
0.000173573
0.000175779
0.000160628
0.000167471
0.000159884
0.000151589
0.000175267
0.000180129
0.00016678
0.000177704
0.000189135
0.000145245
0.000176183
0.000163942
0.000182135
0.000191016
0.000183237
0.000169912
0.000194363
0.000180504
0.000181619
0.000203237
0.000195106
0.00017124
0.000186978
0.000183186
0.000184315
0.000202867
0.000182602
0.000195518
0.000195689
0.000199845
0.000178116
0.000164807
0.000197487
0.000183419
0.000199832
0.000181579
0.000194846
0.0001603
0.000205531
0.000195751
0.000182573
0.000172344
0.000185825
0.000151267
0.000204485
0.000175601
0.000179346
0.000163674
0.000193622
0.000169541
0.000162408
0.000160086
0.000146358
0.000191362
0.000161597
0.0001604
0.000145158
0.000153415
0.000128671
0.000166671
0.000160745
0.000139548
0.000141699
0.000146512
0.000131686
0.000164687
0.000163002
0.000141222
0.000168962
0.000156041
0.000142496
0.000149022
0.000147386
0.000163983
0.000155324
0.000171376
0.000151033
0.00014493
0.000127811
0.000160203
0.000137403
0.000139843
0.000159686
0.000164666
0.00013236
0.000163103
0.000139377
0.000171579
0.000162326
0.000180582
0.000150578
0.000166853
0.000176535
0.000166109
0.000173065
0.000155347
0.000182386
0.000179094
0.000171158
0.000166429
0.000186015
0.000173866
0.000178158
0.000200384
0.000210835
0.000169252
0.000198701
0.000175085
0.000183905
0.000198136
0.000189471
0.000185191
0.000210737
0.000202118
0.000174236
0.000177345
0.000186301
0.00018947
0.000199691
0.000190014
0.00018645
0.0001797
0.000203424
0.000215572
0.000203086
0.000213307
0.000200235
0.000187614
0.000200615
0.000189696
0.000199484
0.000182384
0.000203163
0.000212405
0.00018924
0.000176702
0.000164427
0.000200369
0.000181695
0.000186121
0.000166914
0.000177799
0.000167097
0.000197193
0.000201448
0.000182488
0.000171994
0.000182277
0.000155189
0.000194444
0.00017846
0.000182305
0.000171489
0.000180451
0.000170035
0.000165926
0.000162562
0.000156769
0.000178007
0.000169433
0.000165743
0.000150989
0.000166223
0.000163956
0.000178819
0.000166407
0.000173861
0.000160851
0.000153066
0.000152594
0.000179409
0.00017075
0.000175579
0.000179153
0.000164855
0.00016042
0.000175972
0.000157454
0.000169439
0.000164945
0.000179769
0.000178962
0.000169638
0.000164548
0.000172715
0.000173597
0.000162688
0.000183775
0.000184494
0.000155465
0.000173541
0.000175691
0.000183341
0.000185108
0.000192736
0.000182856
0.00018615
0.000195459
0.000171762
0.000179186
0.000185491
0.000194176
0.000196322
0.000181887
0.00017387
0.000174023
0.000187106
0.000189664
0.000190459
0.000196293
0.000175678
0.000179895
0.00018777
0.000194349
0.000189945
0.000195041
0.000196739
0.000196693
0.000196132
0.000179595
0.000178406
0.000197217
0.000195815
0.00019584
0.000177958
0.000173473
0.000171041
0.000189993
0.000196459
0.000187989
0.000194288
0.000179786
0.000177102
0.000189399
0.0001942
0.000187123
0.000188606
0.000194225
0.000194454
0.000188511
0.0001778
0.000172346
0.000193741
0.000188824
0.000187823
0.000171536
0.000171249
0.000176899
0.000187758
0.00019301
0.000192025
0.000190914
0.000176669
0.000174936
0.000186868
0.000187244
0.000191629
0.000185807
0.000187197
0.0001905
0.000185485
0.000171764
0.000171512
0.000186484
0.000185459
0.000184848
0.000171096
0.000177911
0.000180985
0.000193798
0.000190647
0.000197452
0.000193599
0.000174815
0.000177533
0.000193621
0.000187241
0.000197632
0.000194985
0.000186525
0.000192827
0.000193687
0.00017245
0.00017875
0.00018618
0.000194296
0.000193919
0.000178147
0.000181063
0.000180287
0.000197993
0.00019482
0.000197899
0.000197418
0.00017808
0.000180202
0.000198251
0.00019671
0.000198241
0.000199164
0.00019571
0.000197732
0.000199613
0.00017953
0.000181461
0.000196022
0.000199406
0.000199898
0.000182055
0.000179969
0.000178075
0.000197533
0.000197999
0.000195884
0.000198271
0.00018038
0.000180693
0.000197854
0.000199232
0.000195944
0.000198247
0.000200152
0.000198993
0.000200336
0.000181388
0.000180412
0.00020036
0.000199019
0.000200414
0.000181926
0.00017781
0.000180131
0.00019562
0.00019802
0.00019748
0.000197275
0.000180458
0.000179627
0.000195643
0.000197811
0.000197368
0.000197512
0.000200066
0.000197647
0.000198294
0.000180151
0.000180161
0.000200025
0.000197894
0.000198301
0.000180198
0.000180797
0.000183282
0.000198782
0.000197462
0.000201774
0.000200163
0.00017958
0.000181749
0.000198815
0.000198328
0.000201918
0.00020098
0.00019787
0.000199527
0.000197814
0.000180416
0.000182296
0.000197929
0.000200382
0.000198085
0.000180225
0.00018333
0.000182922
0.000202235
0.000201037
0.000202116
0.000202819
0.00018214
0.000183744
0.000202377
0.000201361
0.000202064
0.00020143
0.000198821
0.000202673
0.000201909
0.000182337
0.000182561
0.000198987
0.000201291
0.000201739
0.000183129
0.000182678
0.000183098
0.000201934
0.000203089
0.000202248
0.000203091
0.000183783
0.000183961
0.000201826
0.000201518
0.000202029
0.000202668
0.000202789
0.000203632
0.000204544
0.000182507
0.000183693
0.00020259
0.000203196
0.000204443
0.000184926
0.000183435
0.000185518
0.000202988
0.000203029
0.000205093
0.000203735
0.000183786
0.000184038
0.000202899
0.000203185
0.000205247
0.000204749
0.000204681
0.000203578
0.000204039
0.000183862
0.000184967
0.000204663
0.000204662
0.000204173
0.000184225
0.000185639
0.00018588
0.000205636
0.000204308
0.0002061
0.000206017
0.000184164
0.000185803
0.000205801
0.000205264
0.000206206
0.000206286
0.000203827
0.000205686
0.00020438
0.00018505
0.000185924
0.000203983
0.000205979
0.000204521
0.000184669
0.000185643
0.000184927
0.000205976
0.000206384
0.000205492
0.000206698
0.000185905
0.000186369
0.000206058
0.000206347
0.00020546
0.000206121
0.000205352
0.000207056
0.000207582
0.000185858
0.000185806
0.000205402
0.000206434
0.00020751
0.000186985
0.000184864
0.000186423
0.000205514
0.000206596
0.000206999
0.000206309
0.000186175
0.000185654
0.000205462
0.000206015
0.00020699
0.000205917
0.000207837
0.000206635
0.000207617
0.000185623
0.000185404
0.000207783
0.00020625
0.0002076
0.000186442
0.000186556
0.000187245
0.000207474
0.000206391
0.000208296
0.000207865
0.000185526
0.000186846
0.000207491
0.000205928
0.000208175
0.00020725
0.000207114
0.000207462
0.00020653
0.0001852
0.000186113
0.000207094
0.000206738
0.000206449
0.000185591
0.000187187
0.000187938
0.000208471
0.00020849
0.000209241
0.000210091
0.000187141
0.000188755
0.000208343
0.000208085
0.000209352
0.000211158
0.00020673
0.000210155
0.000209813
0.000186575
0.000189891
0.000206648
0.000211233
0.000209958
0.000188708
0.000187941
0.000188273
0.000209631
0.000210316
0.000210076
0.000210278
0.000188726
0.000188273
0.000209837
0.000211739
0.000210385
0.000211946
0.000210561
0.000210556
0.000211191
0.000190066
0.000189637
0.000210778
0.000212205
0.000211465
0.000189125
0.000188072
0.000187433
0.000210027
0.000209849
0.000209509
0.00020897
0.000187978
0.00018691
0.000210343
0.00021113
0.000209495
0.000208258
0.000211002
0.000209006
0.000209082
0.000189173
0.000186058
0.000211242
0.00020825
0.000209012
0.000186878
0.000187333
0.000188871
0.000209511
0.000208971
0.000210779
0.000210653
0.000186801
0.000188841
0.000209411
0.000207794
0.00021021
0.000208006
0.000208737
0.000210309
0.000209079
0.00018574
0.00018672
0.00020857
0.000207774
0.000208717
0.000187552
0.000189068
0.000190161
0.00021138
0.000211418
0.000212522
0.000212886
0.000189135
0.000190617
0.000210957
0.000209224
0.000212563
0.000212912
0.000210148
0.000213086
0.000213788
0.000187291
0.00019068
0.000209743
0.000213118
0.000213844
0.000191475
0.000190036
0.000189673
0.000212707
0.000213096
0.000212801
0.000212884
0.000190541
0.000189755
0.000212809
0.000213692
0.000213076
0.000214667
0.000214451
0.000213335
0.000214455
0.000190903
0.000191493
0.000214592
0.00021506
0.000214673
0.000191044
0.000189457
0.000188555
0.000212431
0.000212312
0.000211199
0.000210972
0.000189394
0.000187826
0.00021274
0.000214489
0.000211535
0.000212261
0.000212998
0.00021062
0.000208698
0.000191135
0.000188877
0.000213242
0.000211911
0.000208964
0.000185402
0.000188345
0.000189021
0.000211045
0.000210881
0.000211629
0.000211512
0.000187685
0.000189436
0.000211332
0.000211758
0.000211638
0.000210565
0.000208498
0.000211435
0.000211413
0.000188635
0.000188263
0.000208778
0.000210495
0.000211511
0.000189647
0.000189266
0.000191115
0.000212672
0.000212275
0.000214222
0.00021421
0.00018964
0.000191114
0.000212309
0.000210394
0.000213572
0.000210706
0.000213805
0.00021469
0.000217782
0.000188078
0.000187968
0.000213636
0.000211099
0.000217096
0.00019456
0.000190995
0.000188042
0.000214193
0.000214396
0.000211994
0.000212894
0.000191021
0.000189364
0.000213558
0.000211576
0.000212378
0.000214376
0.000218095
0.000214279
0.000214016
0.000188111
0.00019066
0.000217393
0.000215191
0.000214262
0.000189958
0.000187851
0.000192683
0.000211793
0.00021206
0.000215167
0.000212292
0.000188724
0.000187981
0.000212587
0.000215452
0.000216052
0.000216622
0.000210432
0.000210637
0.000203396
0.000191065
0.000192894
0.000211673
0.000214851
0.000204333
0.00017926
0.000193537
0.000191431
0.000216828
0.000213865
0.000216652
0.000217213
0.000188702
0.000195309
0.000216693
0.00021625
0.000214406
0.000212077
0.000203274
0.000217204
0.000216295
0.000192394
0.000187638
0.000203892
0.000211243
0.000212886
0.000193044
0.000189667
0.000185471
0.000213799
0.000216943
0.000208838
0.000210833
0.000195232
0.00018742
0.000211774
0.000212292
0.000210863
0.000220212
0.000224246
0.000216316
0.000234807
0.000187676
0.000200374
0.000221771
0.000225308
0.000236786
0.000214639
0.000185924
0.000193666
0.000209301
0.00021038
0.000218342
0.000216802
0.00018657
0.000190182
0.000212441
0.00022182
0.000218758
0.000217434
0.000234128
0.00021476
0.00020706
0.000201198
0.000188185
0.000236965
0.000215719
0.000208499
0.000178608
0.000195266
0.000217186
0.00021633
0.000192788
0.000216057
0.000208735
0.000239775
0.000232478
0.000224063
0.000198769
0.000184028
0.000198302
0.00023473
0.000234746
0.000234729
0.000234729
0.000235117
0.000234798
0.000234701
0.000234727
0.000235118
0.000234798
0.000234727
0.000234701
0.000234867
0.000233566
0.000233566
0.000104651
3.87411e-05
0.000129118
3.98249e-05
2.16834e-05
2.28313e-05
0.000104643
3.87371e-05
0.000129114
3.98214e-05
0.000233973
0.000233973
0.000233973
0.000232935
0.000232935
0.000232935
0.000232935
0.000206196
9.36752e-05
0.000233969
0.000231994
0.000222614
8.72226e-05
0.000233611
2.16823e-05
2.28307e-05
0.00020619
0.000233969
9.36747e-05
0.000231994
0.000222622
0.000233611
8.72283e-05
4.78012e-05
4.77894e-05
0.000231345
4.40185e-05
4.4009e-05
7.25677e-05
4.2434e-05
8.14027e-05
4.37634e-05
2.47749e-05
2.54634e-05
7.25581e-05
4.24305e-05
8.13974e-05
4.37596e-05
0.000232532
0.000232532
0.000232532
0.000231084