/*--------------------------------*- C++ -*----------------------------------*\
| =========                 |                                                 |
| \\      /  F ield         | OpenFOAM: The Open Source CFD Toolbox           |
|  \\    /   O peration     | Version:  v2012                                 |
|   \\  /    A nd           | Website:  www.openfoam.com                      |
|    \\/     M anipulation  |                                                 |
\*---------------------------------------------------------------------------*/
FoamFile
{
    version     2.0;
    format      ascii;
    class       volScalarField;
    location    "625";
    object      p;
}
// * * * * * * * * * * * * * * * * * * * * * * * * * * * * * * * * * * * * * //

dimensions      [0 2 -2 0 0 0 0];


internalField   nonuniform List<scalar> 
171728
(
0.00360467
0.003605
0.003605
0.00360805
0.00354931
0.00354973
0.00354973
0.00355272
0.00349856
0.00349853
0.00349853
0.00350128
0.00344617
0.00344618
0.00344618
0.00344896
0.00339482
0.00339483
0.00339482
0.00339758
0.00334484
0.00334485
0.00334485
0.00334757
0.00329631
0.00329633
0.00329632
0.00329901
0.00324908
0.0032491
0.0032491
0.00325175
0.00320295
0.00320297
0.00320297
0.0032056
0.00315772
0.00315774
0.00315774
0.00316034
0.00311321
0.00311323
0.00311323
0.0031158
0.0030693
0.00306932
0.00306932
0.00307186
0.0030259
0.00302593
0.00302593
0.00302844
0.00298298
0.00298299
0.00298299
0.0029855
0.00294048
0.00294049
0.00294049
0.00294299
0.00289839
0.00289839
0.00289839
0.00290088
0.00285668
0.00285668
0.00285668
0.00285916
0.00281534
0.00281533
0.00281533
0.0028178
0.00277432
0.00277431
0.00277431
0.00277677
0.00273363
0.0027336
0.0027336
0.00273606
0.00269322
0.00269318
0.00269318
0.00269564
0.00265308
0.00265304
0.00265304
0.00265548
0.00261319
0.00261314
0.00261314
0.00261558
0.00257354
0.00257349
0.00257349
0.00257592
0.00253412
0.00253406
0.00253406
0.00253648
0.00249491
0.00249486
0.00249486
0.00249726
0.00245591
0.00245586
0.00245586
0.00245825
0.00241711
0.00241707
0.00241707
0.00241943
0.00237851
0.00237847
0.00237847
0.00238081
0.00234009
0.00234006
0.00234006
0.00234238
0.00230186
0.00230182
0.00230182
0.00230413
0.0022638
0.00226377
0.00226377
0.00226605
0.0022259
0.00222588
0.00222588
0.00222814
0.00218818
0.00218816
0.00218815
0.00219039
0.00215059
0.00215058
0.00215058
0.0021528
0.00211316
0.00211315
0.00211315
0.00211536
0.00207589
0.00207587
0.00207587
0.00207806
0.00203876
0.00203875
0.00203876
0.00204092
0.00200181
0.00200178
0.00200177
0.00200394
0.00196491
0.00196489
0.00196488
0.00196702
0.00192813
0.00192812
0.00192813
0.00193026
0.00189158
0.00189152
0.00189153
0.00189365
0.00185501
0.00185493
0.00185494
0.00185705
0.00181842
0.00181839
0.00181832
0.00182046
0.00178165
0.00178183
0.00178189
0.00178405
0.0017461
0.00174603
0.00174618
0.00174835
0.00171259
0.00171241
0.00171204
0.00171358
0.0016763
0.0016754
0.00167529
0.00167743
0.00163635
0.00163548
0.00163588
0.00163863
0.00159876
0.00160025
0.00160025
0.00160212
0.00156512
0.00156577
0.00156545
0.00156771
0.00153118
0.00152966
0.00152978
0.0015316
0.00149379
0.00149362
0.00149411
0.0014957
0.00145886
0.00145982
0.00145872
0.00146154
0.00142466
0.00142399
0.00142429
0.00142668
0.00138988
0.00138909
0.00139049
0.00139119
0.00135487
0.00135419
0.00135294
0.00135538
0.00131575
0.0013156
0.0013164
0.00131812
0.00127891
0.00128048
0.00128076
0.00128315
0.00124649
0.00124663
0.00124499
0.00124777
0.00121242
0.00121105
0.00121129
0.00121278
0.00117512
0.00117433
0.00117548
0.00117674
0.00113823
0.00113844
0.00113899
0.00114115
0.00110291
0.00110408
0.00110344
0.00110602
0.00106858
0.00106868
0.00106778
0.00106985
0.0010336
0.00103266
0.00103289
0.00103465
0.000997828
0.000997618
0.000997943
0.000999909
0.000962562
0.000962528
0.000962725
0.000964743
0.000927202
0.00092727
0.000927304
0.00092928
0.000891817
0.000891765
0.000891582
0.000893623
0.000856385
0.000856253
0.000856196
0.000858201
0.000820864
0.000820726
0.000820784
0.000822769
0.000785376
0.000785307
0.000785305
0.000787337
0.00074979
0.000749801
0.000749777
0.00075184
0.00071436
0.000714256
0.000714319
0.000716282
0.000678932
0.000678778
0.000678778
0.000680755
0.000643266
0.000643261
0.000643205
0.000645272
0.000607615
0.000607586
0.000607602
0.000609639
0.000572053
0.000571928
0.000571959
0.000573934
0.000536383
0.000536347
0.000536333
0.000538356
0.000500744
0.000500715
0.000500737
0.000502792
0.000465042
0.000464947
0.000464907
0.000466948
0.000429164
0.000429136
0.000429088
0.000431137
0.000393405
0.000393397
0.000393458
0.000395464
0.000357686
0.000357594
0.000357666
0.000359658
0.000321798
0.000321714
0.000321649
0.000323732
0.000285736
0.000285712
0.000285653
0.000287712
0.000249786
0.000249864
0.000249856
0.000251965
0.000213982
0.000213847
0.000213888
0.000215829
0.000177778
0.000177746
0.000177836
0.000179854
0.000141983
0.000141693
0.000141699
0.000143717
0.000105611
0.000106152
0.000105678
0.000108049
6.95684e-05
6.92632e-05
7.00313e-05
7.16873e-05
3.44684e-05
3.36007e-05
3.25582e-05
3.42718e-05
4.84002e-06
6.48764e-06
6.09738e-06
5.0617e-06
0.00361808
0.0036183
0.0036183
0.00361808
0.0036183
0.0036183
0.00361907
0.00361907
0.00361907
0.00361907
0.0036183
0.0036183
0.00361808
0.00361831
0.00361831
0.00361808
0.00360805
0.00355929
0.003605
0.003605
0.00356157
0.00356158
0.00360805
0.00355929
0.003605
0.003605
0.00356157
0.00356157
0.003605
0.00356157
0.00356157
0.00360805
0.0035593
0.003605
0.00356157
0.00356157
0.00355929
0.00355272
0.00350821
0.00354973
0.00354974
0.00351166
0.00351166
0.00355273
0.00350821
0.00354973
0.00354973
0.00351166
0.00351166
0.00354973
0.00351166
0.00351166
0.00355272
0.00350821
0.00354973
0.00351166
0.00351166
0.00350821
0.00350129
0.00345584
0.00349853
0.00349853
0.0034592
0.0034592
0.00350128
0.00345584
0.00349853
0.00349853
0.0034592
0.0034592
0.00349853
0.0034592
0.0034592
0.00350128
0.00345584
0.00349853
0.0034592
0.0034592
0.00345584
0.00344896
0.00340428
0.00344618
0.00344619
0.00340755
0.00340755
0.00344896
0.00340428
0.00344618
0.00344618
0.00340755
0.00340755
0.00344618
0.00340755
0.00340755
0.00344896
0.00340428
0.00344618
0.00340755
0.00340755
0.00340428
0.00339758
0.00335407
0.00339483
0.00339483
0.0033572
0.0033572
0.00339758
0.00335407
0.00339483
0.00339483
0.0033572
0.00335721
0.00339483
0.0033572
0.0033572
0.00339758
0.00335407
0.00339483
0.0033572
0.0033572
0.00335407
0.00334757
0.00330531
0.00334485
0.00334485
0.00330833
0.00330833
0.00334757
0.00330531
0.00334485
0.00334485
0.00330833
0.00330833
0.00334485
0.00330833
0.00330833
0.00334757
0.00330531
0.00334485
0.00330833
0.00330833
0.00330531
0.00329901
0.00325789
0.00329633
0.00329633
0.0032608
0.0032608
0.00329901
0.00325788
0.00329633
0.00329633
0.0032608
0.0032608
0.00329633
0.0032608
0.0032608
0.00329901
0.00325788
0.00329633
0.0032608
0.0032608
0.00325788
0.00325175
0.00321159
0.0032491
0.0032491
0.00321441
0.00321442
0.00325175
0.00321158
0.0032491
0.0032491
0.00321441
0.00321441
0.00324911
0.00321442
0.00321441
0.00325175
0.00321158
0.00324911
0.00321442
0.00321441
0.00321159
0.00320559
0.00316621
0.00320297
0.00320297
0.00316897
0.00316898
0.00320559
0.00316621
0.00320297
0.00320297
0.00316897
0.00316898
0.00320297
0.00316898
0.00316897
0.00320559
0.00316621
0.00320298
0.00316898
0.00316897
0.00316621
0.00316033
0.00312158
0.00315774
0.00315774
0.00312429
0.0031243
0.00316033
0.00312158
0.00315774
0.00315774
0.0031243
0.0031243
0.00315774
0.0031243
0.0031243
0.00316033
0.00312158
0.00315774
0.00312431
0.0031243
0.00312158
0.0031158
0.00307757
0.00311324
0.00311323
0.00308024
0.00308025
0.00311579
0.00307756
0.00311324
0.00311323
0.00308024
0.00308025
0.00311323
0.00308025
0.00308025
0.00311579
0.00307756
0.00311324
0.00308025
0.00308025
0.00307756
0.00307186
0.00303407
0.00306932
0.00306932
0.00303672
0.00303672
0.00307186
0.00303407
0.00306932
0.00306932
0.00303672
0.00303673
0.00306932
0.00303672
0.00303673
0.00307186
0.00303407
0.00306932
0.00303673
0.00303673
0.00303407
0.00302844
0.00299106
0.00302592
0.00302593
0.00299369
0.00299368
0.00302844
0.00299106
0.00302592
0.00302593
0.00299369
0.00299368
0.00302592
0.00299368
0.00299369
0.00302844
0.00299106
0.00302592
0.00299368
0.00299369
0.00299106
0.00298549
0.0029485
0.00298299
0.00298299
0.00295107
0.00295108
0.0029855
0.0029485
0.00298299
0.00298299
0.00295107
0.00295108
0.00298299
0.00295108
0.00295107
0.00298549
0.0029485
0.00298299
0.00295108
0.00295107
0.0029485
0.00294299
0.00290634
0.00294049
0.00294049
0.00290888
0.00290888
0.00294299
0.00290634
0.00294049
0.00294049
0.00290888
0.00290888
0.00294049
0.00290888
0.00290888
0.00294299
0.00290634
0.00294049
0.00290888
0.00290888
0.00290635
0.00290088
0.00286457
0.00289839
0.00289839
0.00286707
0.00286707
0.00290088
0.00286458
0.00289839
0.00289839
0.00286707
0.00286707
0.00289839
0.00286707
0.00286707
0.00290088
0.00286457
0.00289839
0.00286707
0.00286707
0.00286458
0.00285916
0.00282317
0.00285668
0.00285668
0.00282563
0.00282563
0.00285916
0.00282317
0.00285668
0.00285668
0.00282563
0.00282563
0.00285668
0.00282564
0.00282564
0.00285916
0.00282317
0.00285668
0.00282563
0.00282564
0.00282317
0.0028178
0.0027821
0.00281533
0.00281533
0.00278454
0.00278454
0.0028178
0.0027821
0.00281533
0.00281533
0.00278454
0.00278454
0.00281533
0.00278454
0.00278454
0.0028178
0.0027821
0.00281533
0.00278454
0.00278454
0.0027821
0.00277677
0.00274135
0.00277431
0.00277431
0.00274375
0.00274375
0.00277677
0.00274135
0.00277431
0.00277431
0.00274375
0.00274375
0.00277431
0.00274375
0.00274375
0.00277677
0.00274135
0.00277431
0.00274375
0.00274375
0.00274135
0.00273606
0.00270089
0.0027336
0.0027336
0.00270326
0.00270326
0.00273606
0.0027009
0.0027336
0.0027336
0.00270326
0.00270326
0.0027336
0.00270326
0.00270326
0.00273606
0.00270089
0.0027336
0.00270326
0.00270326
0.00270089
0.00269564
0.00266071
0.00269319
0.00269319
0.00266305
0.00266305
0.00269564
0.00266071
0.00269318
0.00269318
0.00266305
0.00266305
0.00269318
0.00266305
0.00266305
0.00269564
0.00266071
0.00269318
0.00266305
0.00266305
0.00266071
0.00265548
0.00262078
0.00265304
0.00265304
0.00262309
0.00262309
0.00265548
0.00262078
0.00265304
0.00265304
0.00262309
0.00262309
0.00265304
0.00262309
0.00262309
0.00265548
0.00262078
0.00265304
0.00262309
0.00262309
0.00262078
0.00261558
0.00258109
0.00261314
0.00261314
0.00258338
0.00258338
0.00261558
0.00258109
0.00261314
0.00261314
0.00258338
0.00258338
0.00261314
0.00258338
0.00258338
0.00261558
0.00258109
0.00261314
0.00258338
0.00258338
0.00258109
0.00257592
0.00254163
0.00257349
0.00257349
0.0025439
0.0025439
0.00257592
0.00254163
0.00257349
0.00257349
0.0025439
0.0025439
0.00257349
0.0025439
0.0025439
0.00257592
0.00254163
0.00257349
0.0025439
0.0025439
0.00254163
0.00253648
0.00250238
0.00253406
0.00253406
0.00250464
0.00250464
0.00253648
0.00250238
0.00253406
0.00253406
0.00250464
0.00250464
0.00253406
0.00250464
0.00250464
0.00253648
0.00250238
0.00253406
0.00250464
0.00250464
0.00250238
0.00249726
0.00246335
0.00249486
0.00249486
0.00246559
0.00246559
0.00249726
0.00246335
0.00249486
0.00249486
0.00246559
0.00246559
0.00249486
0.00246559
0.00246559
0.00249726
0.00246335
0.00249485
0.00246559
0.00246559
0.00246335
0.00245825
0.00242451
0.00245586
0.00245586
0.00242675
0.00242675
0.00245825
0.00242451
0.00245586
0.00245586
0.00242675
0.00242675
0.00245586
0.00242675
0.00242675
0.00245825
0.00242451
0.00245586
0.00242675
0.00242675
0.00242451
0.00241943
0.00238587
0.00241707
0.00241707
0.0023881
0.0023881
0.00241943
0.00238587
0.00241707
0.00241707
0.0023881
0.0023881
0.00241707
0.0023881
0.0023881
0.00241943
0.00238588
0.00241707
0.0023881
0.0023881
0.00238587
0.00238081
0.00234742
0.00237847
0.00237847
0.00234964
0.00234964
0.00238081
0.00234742
0.00237847
0.00237847
0.00234964
0.00234964
0.00237847
0.00234964
0.00234964
0.00238082
0.00234742
0.00237847
0.00234964
0.00234964
0.00234742
0.00234238
0.00230915
0.00234006
0.00234006
0.00231137
0.00231136
0.00234238
0.00230915
0.00234006
0.00234006
0.00231137
0.00231137
0.00234006
0.00231136
0.00231137
0.00234238
0.00230915
0.00234006
0.00231137
0.00231137
0.00230915
0.00230413
0.00227106
0.00230182
0.00230182
0.00227326
0.00227326
0.00230413
0.00227106
0.00230182
0.00230182
0.00227326
0.00227327
0.00230182
0.00227326
0.00227327
0.00230413
0.00227106
0.00230182
0.00227327
0.00227327
0.00227106
0.00226605
0.00223313
0.00226377
0.00226377
0.00223533
0.00223533
0.00226605
0.00223313
0.00226377
0.00226377
0.00223533
0.00223533
0.00226377
0.00223533
0.00223533
0.00226605
0.00223313
0.00226377
0.00223533
0.00223533
0.00223313
0.00222814
0.00219537
0.00222588
0.00222588
0.00219757
0.00219757
0.00222814
0.00219537
0.00222588
0.00222588
0.00219757
0.00219757
0.00222588
0.00219757
0.00219757
0.00222814
0.00219537
0.00222588
0.00219757
0.00219757
0.00219537
0.0021904
0.00215776
0.00218816
0.00218815
0.00215996
0.00215996
0.00219039
0.00215776
0.00218816
0.00218815
0.00215996
0.00215996
0.00218816
0.00215996
0.00215996
0.00219039
0.00215777
0.00218815
0.00215996
0.00215996
0.00215776
0.00215279
0.00212031
0.00215057
0.00215058
0.0021225
0.0021225
0.0021528
0.00212031
0.00215057
0.00215058
0.0021225
0.00212249
0.00215058
0.0021225
0.00212249
0.0021528
0.0021203
0.00215057
0.00212249
0.00212249
0.00212031
0.00211536
0.00208299
0.00211316
0.00211316
0.00208518
0.00208518
0.00211535
0.00208299
0.00211316
0.00211315
0.00208518
0.00208518
0.00211315
0.00208518
0.00208518
0.00211535
0.00208299
0.00211315
0.00208518
0.00208518
0.00208299
0.00207806
0.00204584
0.00207587
0.00207587
0.00204802
0.00204802
0.00207806
0.00204585
0.00207587
0.00207587
0.00204801
0.00204802
0.00207587
0.00204802
0.00204802
0.00207806
0.00204584
0.00207587
0.00204803
0.00204802
0.00204584
0.00204092
0.00200884
0.00203875
0.00203875
0.00201102
0.00201101
0.00204092
0.00200884
0.00203875
0.00203875
0.00201102
0.00201101
0.00203875
0.00201101
0.00201101
0.00204092
0.00200883
0.00203875
0.002011
0.00201101
0.00200884
0.00200393
0.00197191
0.00200179
0.00200178
0.00197408
0.00197409
0.00200393
0.00197193
0.00200179
0.00200178
0.00197408
0.0019741
0.00200179
0.00197409
0.00197408
0.00200393
0.00197193
0.00200179
0.0019741
0.00197408
0.00197192
0.00196701
0.00193516
0.00196487
0.00196489
0.0019373
0.00193729
0.00196703
0.00193515
0.00196487
0.00196488
0.0019373
0.00193729
0.00196487
0.00193729
0.00193731
0.00196702
0.00193515
0.00196487
0.00193729
0.00193731
0.00193515
0.00193026
0.00189852
0.00192813
0.00192812
0.00190067
0.00190068
0.00193027
0.00189852
0.00192812
0.00192812
0.00190067
0.00190067
0.00192813
0.00190068
0.00190066
0.00193027
0.00189851
0.00192813
0.00190066
0.00190066
0.00189851
0.00189365
0.00186191
0.00189153
0.00189152
0.00186406
0.00186406
0.00189363
0.00186191
0.00189154
0.00189153
0.00186407
0.00186412
0.00189153
0.00186407
0.00186411
0.00189365
0.00186195
0.00189154
0.00186413
0.00186412
0.00186195
0.00185703
0.00182541
0.00185491
0.00185492
0.00182753
0.00182754
0.00185703
0.00182538
0.00185492
0.00185494
0.00182752
0.00182743
0.00185494
0.00182751
0.00182745
0.00185703
0.00182531
0.00185494
0.00182741
0.00182743
0.00182533
0.00182051
0.00178884
0.00181839
0.00181842
0.00179091
0.00179098
0.00182051
0.0017889
0.00181837
0.00181834
0.00179091
0.001791
0.00181831
0.00179099
0.00179097
0.00182047
0.00178895
0.0018183
0.00179103
0.00179099
0.00178891
0.00178398
0.00175301
0.00178179
0.0017818
0.00175496
0.00175466
0.00178403
0.00175276
0.0017818
0.00178185
0.00175498
0.00175481
0.00178187
0.00175472
0.00175505
0.00178407
0.00175287
0.00178191
0.00175484
0.00175509
0.00175304
0.00174834
0.00171838
0.00174628
0.00174597
0.00172061
0.00172094
0.00174812
0.00171884
0.0017463
0.00174618
0.0017206
0.00172089
0.00174634
0.00172089
0.00172041
0.00174824
0.00171856
0.00174637
0.00172079
0.00172037
0.00171822
0.00171374
0.0016825
0.0017119
0.00171254
0.00168496
0.00168509
0.00171425
0.00168252
0.00171186
0.00171216
0.00168491
0.00168487
0.00171169
0.00168506
0.00168483
0.00171384
0.00168239
0.00171162
0.00168484
0.00168477
0.00168244
0.00167742
0.00164338
0.00167547
0.00167538
0.00164572
0.00164526
0.00167735
0.00164297
0.00167544
0.00167527
0.00164582
0.00164555
0.00167548
0.00164541
0.00164624
0.00167728
0.00164329
0.00167542
0.00164569
0.0016463
0.00164391
0.00163811
0.00160708
0.0016359
0.00163535
0.00160866
0.00160876
0.00163766
0.00160727
0.00163596
0.00163575
0.00160867
0.00160886
0.00163642
0.00160876
0.0016085
0.00163807
0.00160728
0.00163652
0.00160889
0.00160858
0.00160683
0.00160239
0.00157249
0.0016
0.00160033
0.00157431
0.00157453
0.00160257
0.0015726
0.0016
0.0016003
0.00157428
0.00157431
0.00159973
0.00157444
0.00157415
0.00160255
0.0015724
0.00159979
0.00157422
0.00157412
0.00157232
0.00156792
0.00153671
0.00156578
0.00156585
0.00153917
0.00153899
0.00156797
0.00153659
0.00156572
0.00156553
0.00153909
0.00153871
0.00156563
0.00153876
0.00153886
0.00156771
0.0015364
0.00156554
0.00153871
0.0015387
0.00153648
0.00153178
0.00150026
0.00152993
0.00152976
0.00150233
0.0015024
0.0015317
0.00150027
0.00152988
0.00152982
0.00150243
0.001503
0.00152967
0.00150245
0.00150251
0.00153162
0.00150083
0.00152965
0.00150306
0.00150263
0.00150045
0.0014954
0.00146592
0.0014933
0.00149354
0.00146773
0.00146819
0.00149551
0.00146635
0.00149341
0.00149403
0.00146761
0.00146744
0.00149361
0.00146826
0.00146798
0.00149599
0.00146558
0.00149374
0.00146752
0.00146789
0.00146613
0.0014614
0.0014316
0.00145953
0.00145978
0.00143382
0.00143326
0.00146181
0.00143103
0.00145929
0.00145864
0.0014336
0.00143276
0.00145962
0.00143325
0.00143371
0.00146089
0.00143086
0.00145941
0.00143275
0.00143351
0.00143149
0.00142669
0.00139563
0.0014247
0.00142399
0.00139754
0.00139751
0.00142612
0.00139547
0.00142468
0.00142431
0.00139796
0.0013992
0.00142476
0.00139754
0.00139777
0.00142631
0.00139696
0.00142474
0.0013992
0.00139821
0.00139583
0.00139103
0.00136105
0.00138897
0.0013891
0.00136343
0.00136354
0.00139089
0.00136116
0.00138932
0.0013904
0.00136326
0.00136255
0.0013891
0.00136339
0.00136276
0.00139215
0.00136019
0.00138948
0.00136242
0.00136258
0.00136042
0.00135609
0.00132299
0.00135444
0.00135438
0.00132526
0.00132531
0.00135619
0.00132296
0.00135412
0.00135313
0.00132516
0.00132523
0.00135345
0.00132522
0.00132494
0.00135519
0.00132319
0.00135317
0.00132518
0.00132489
0.00132295
0.00131772
0.00128699
0.0013154
0.00131552
0.00128832
0.00128867
0.00131773
0.00128722
0.0013154
0.00131629
0.00128857
0.0012895
0.00131582
0.00128898
0.00128966
0.00131836
0.00128777
0.00131596
0.0012898
0.00128985
0.00128792
0.00128246
0.00125353
0.00128009
0.00128024
0.00125558
0.0012553
0.00128262
0.0012534
0.00128021
0.00128051
0.0012553
0.00125389
0.00128096
0.0012551
0.00125473
0.00128292
0.00125193
0.00128103
0.00125367
0.00125443
0.00125252
0.001249
0.00121764
0.00124724
0.00124692
0.00122026
0.00122032
0.00124885
0.00121772
0.00124688
0.00124535
0.00122007
0.00121997
0.00124605
0.00122009
0.00121974
0.00124736
0.00121774
0.00124561
0.00121978
0.00121959
0.00121749
0.00121273
0.00118142
0.00121088
0.00121112
0.00118343
0.0011834
0.00121281
0.00118122
0.00121088
0.00121131
0.00118375
0.00118449
0.00121094
0.00118356
0.00118373
0.00121302
0.00118223
0.00121097
0.00118467
0.00118417
0.00118175
0.00117652
0.00114561
0.0011744
0.0011742
0.00114736
0.00114696
0.00117626
0.00114539
0.00117473
0.00117534
0.00114758
0.00114791
0.00117462
0.00114704
0.00114766
0.00117727
0.00114597
0.00117499
0.00114799
0.00114787
0.00114593
0.00114079
0.00111027
0.00113849
0.00113833
0.00111218
0.00111265
0.00114073
0.00111087
0.00113862
0.00113889
0.00111203
0.00111213
0.00113894
0.00111278
0.00111271
0.00114112
0.00111034
0.00113906
0.00111228
0.00111259
0.00111078
0.00110554
0.00107531
0.00110348
0.00110399
0.00107745
0.00107776
0.00110612
0.00107555
0.00110327
0.0011033
0.00107717
0.00107678
0.0011039
0.00107765
0.00107702
0.00110557
0.0010746
0.00110374
0.00107666
0.00107668
0.00107468
0.00107055
0.0010398
0.00106873
0.00106888
0.00104202
0.00104172
0.00107067
0.00103943
0.00106848
0.00106799
0.00104203
0.00104172
0.00106801
0.00104153
0.00104144
0.00106982
0.00103957
0.00106772
0.00104157
0.00104147
0.00103937
0.00103497
0.0010045
0.00103306
0.00103277
0.00100649
0.00100631
0.00103463
0.00100435
0.00103315
0.00103298
0.00100663
0.00100668
0.00103272
0.00100636
0.0010066
0.00103484
0.00100469
0.00103281
0.00100672
0.00100672
0.00100466
0.000999742
0.000969407
0.000997704
0.000997552
0.000971338
0.000971257
0.000999606
0.000969341
0.000997827
0.000997892
0.000971411
0.000971498
0.000997861
0.000971316
0.000971482
0.000999941
0.000969544
0.000997971
0.000971547
0.000971547
0.000969529
0.000964625
0.000933861
0.000962513
0.000962474
0.000935908
0.000936039
0.00096456
0.000934039
0.000962572
0.000962673
0.000935905
0.000936139
0.000962649
0.000936091
0.00093615
0.000964753
0.000934085
0.000962704
0.000936202
0.000936162
0.000934105
0.00092905
0.00089845
0.000927045
0.000927217
0.000900533
0.00090065
0.000929244
0.000898543
0.000927014
0.00092723
0.000900477
0.000900463
0.000927285
0.000900662
0.000900576
0.000929237
0.000898367
0.000927272
0.000900468
0.000900517
0.000898441
0.00089366
0.000863163
0.000891711
0.000891778
0.000865224
0.000865191
0.00089373
0.000863106
0.000891661
0.000891602
0.000865198
0.000865092
0.00089169
0.000865132
0.000865068
0.000893563
0.000863035
0.000891633
0.000865037
0.000865045
0.000863007
0.000858358
0.00082771
0.000856372
0.000856312
0.000829737
0.00082964
0.000858293
0.000827604
0.000856354
0.000856251
0.000829753
0.000829684
0.000856202
0.000829602
0.000829592
0.000858238
0.000827651
0.000856189
0.000829643
0.000829603
0.000827581
0.000822884
0.000792062
0.000820845
0.000820754
0.000794114
0.00079414
0.000822782
0.000792118
0.000820866
0.000820815
0.000794128
0.000794168
0.000820721
0.000794156
0.000794153
0.000822836
0.000792133
0.000820737
0.00079419
0.000794164
0.000792143
0.000787231
0.000756516
0.000785216
0.000785275
0.000758561
0.000758638
0.000787304
0.0007566
0.000785214
0.000785264
0.000758551
0.000758598
0.00078531
0.00075869
0.000758739
0.000787298
0.000756574
0.000785313
0.000758647
0.000758727
0.000756666
0.000751707
0.000721139
0.000749699
0.000749758
0.000723163
0.00072314
0.000751777
0.000721097
0.000749694
0.000749736
0.000723175
0.000723189
0.000749854
0.000723136
0.000723162
0.000751762
0.000721147
0.000749847
0.000723186
0.000723177
0.00072111
0.000716335
0.000685682
0.000714321
0.000714276
0.000687736
0.000687683
0.00071628
0.000685628
0.000714337
0.000714337
0.000687742
0.000687711
0.000714264
0.000687645
0.000687606
0.000716333
0.000685638
0.000714282
0.000687672
0.00068761
0.000685576
0.000680845
0.000650041
0.000678836
0.00067881
0.000652098
0.000652143
0.000680807
0.0006501
0.000678837
0.000678811
0.000652083
0.000652085
0.000678731
0.000652154
0.000652133
0.000680805
0.000650046
0.000678729
0.0006521
0.000652119
0.000650093
0.000645201
0.000614434
0.000643185
0.000643232
0.000616476
0.000616489
0.000645261
0.000614451
0.000643171
0.000643178
0.000616473
0.000616484
0.000643265
0.000616511
0.000616565
0.000645211
0.000614459
0.000643251
0.000616505
0.000616564
0.000614497
0.000609603
0.000578877
0.000607584
0.000607579
0.000580906
0.000580861
0.000609607
0.000578809
0.000607587
0.000607593
0.000580918
0.0005809
0.000607624
0.000580835
0.000580811
0.000609625
0.000578847
0.00060763
0.000580874
0.000580821
0.000578775
0.000574036
0.000543182
0.000572002
0.000571957
0.000545231
0.000545248
0.000573968
0.000543205
0.000572012
0.00057199
0.000545228
0.000545239
0.000571894
0.00054524
0.000545204
0.000574002
0.000543188
0.000571902
0.000545231
0.000545202
0.00054318
0.000538337
0.000507551
0.000536309
0.000536342
0.00050959
0.000509606
0.000538366
0.000507569
0.000536304
0.000536326
0.000509593
0.000509624
0.000536329
0.000509638
0.000509689
0.000538349
0.000507581
0.000536326
0.000509655
0.00050969
0.000507642
0.00050271
0.000471849
0.000500688
0.000500689
0.000473923
0.000473905
0.000502722
0.000471845
0.000500693
0.000500714
0.000473916
0.000473883
0.000500775
0.000473896
0.0004739
0.000502736
0.000471821
0.000500778
0.000473876
0.000473895
0.00047182
0.000466983
0.000436037
0.000464976
0.000464961
0.000438091
0.0004381
0.00046698
0.000436048
0.00046496
0.000464921
0.000438074
0.000438032
0.000464932
0.000438085
0.000438041
0.000466951
0.000435996
0.00046492
0.000438017
0.000438022
0.000435994
0.000431172
0.000400294
0.000429133
0.000429149
0.000402307
0.000402319
0.000431182
0.000400292
0.00042912
0.000429101
0.000402322
0.000402365
0.000429092
0.000402327
0.000402327
0.000431143
0.000400341
0.000429079
0.00040237
0.000402341
0.000400313
0.000395443
0.000364493
0.000393377
0.000393382
0.000366547
0.000366534
0.000395437
0.000364478
0.000393399
0.000393447
0.000366575
0.000366635
0.00039341
0.000366551
0.000366605
0.000395493
0.000364561
0.00039343
0.000366653
0.000366631
0.000364537
0.00035962
0.000328635
0.000357595
0.000357585
0.000330715
0.000330709
0.000359613
0.000328635
0.000357612
0.000357654
0.000330702
0.000330668
0.000357641
0.000330702
0.000330705
0.000359675
0.000328582
0.000357662
0.00033066
0.000330691
0.000328629
0.000323755
0.00029269
0.000321739
0.000321727
0.000294747
0.000294727
0.000323746
0.000292666
0.000321721
0.000321665
0.000294727
0.000294652
0.000321699
0.000294696
0.000294615
0.000323688
0.000292588
0.000321677
0.00029462
0.000294594
0.00029258
0.000287788
0.00025669
0.000285729
0.000285733
0.000258735
0.000258786
0.00028778
0.000256786
0.000285716
0.000285674
0.00025873
0.000258771
0.000285641
0.000258828
0.000258891
0.000287717
0.000256797
0.00028563
0.00025882
0.00025889
0.000256842
0.000251824
0.000220846
0.000249774
0.000249814
0.000222895
0.000222867
0.000251913
0.000220782
0.000249769
0.000249804
0.00022291
0.000222902
0.000249947
0.000222857
0.000222849
0.000251925
0.000220818
0.000249944
0.000222887
0.00022286
0.000220738
0.000215946
0.000184704
0.000213894
0.000213876
0.00018676
0.000186807
0.000215883
0.000184706
0.000213917
0.000213921
0.000186788
0.000186867
0.000213774
0.000186801
0.000186762
0.000215913
0.000184747
0.000213796
0.000186859
0.000186783
0.000184755
0.00017979
0.000148813
0.00017773
0.000177743
0.000150867
0.000150669
0.000179762
0.000148627
0.000177757
0.000177845
0.000150881
0.000150784
0.000177762
0.0001506
0.000150642
0.000179838
0.000148752
0.000177779
0.000150735
0.000150677
0.000148643
0.000143912
0.000112668
0.000141945
0.000141765
0.000114812
0.000115038
0.000143797
0.000113074
0.000141911
0.000141751
0.000114664
0.000114507
0.000141675
0.000115114
0.000115016
0.000143826
0.000112511
0.000141664
0.000114598
0.000114881
0.000112881
0.000107671
7.64263e-05
0.000105618
0.000105975
7.8331e-05
7.83881e-05
0.000108113
7.63058e-05
0.00010552
0.000105526
7.85187e-05
7.89611e-05
0.000106166
7.84996e-05
7.88191e-05
0.000107615
7.68785e-05
0.000106038
7.90778e-05
7.90215e-05
7.6781e-05
7.1576e-05
4.08081e-05
6.95259e-05
6.93017e-05
4.29634e-05
4.26123e-05
7.12589e-05
4.0376e-05
6.9726e-05
7.0068e-05
4.28399e-05
4.23683e-05
6.95534e-05
4.22308e-05
4.1592e-05
7.18962e-05
4.00301e-05
6.97631e-05
4.20357e-05
4.15374e-05
3.94282e-05
3.57419e-05
7.45598e-06
3.40657e-05
3.40173e-05
1.06631e-05
1.09613e-05
3.54716e-05
7.90571e-06
3.38095e-05
3.29773e-05
1.03023e-05
9.86991e-06
3.2359e-05
1.08563e-05
1.09154e-05
3.47916e-05
7.21419e-06
3.21005e-05
9.78985e-06
1.04593e-05
8.02302e-06
4.21366e-06
5.88451e-06
6.07711e-06
4.60699e-06
6.00016e-06
5.67327e-06
5.08901e-06
5.04118e-06
5.72958e-06
6.51952e-06
4.42214e-06
6.54473e-06
0.00362646
0.00363622
0.00363102
0.00363102
0.0036534
0.00364018
0.00366879
0.00363423
0.0036534
0.00364019
0.00363423
0.00366879
0.00364475
0.00367253
0.00367253
0.00358181
0.00360096
0.00361015
0.00357389
0.00357463
0.0035774
0.00358179
0.00360094
0.00361014
0.00357387
0.00360467
0.00360467
0.00360467
0.00356127
0.00356127
0.00356127
0.00356126
0.00357931
0.00360514
0.00360507
0.00358814
0.00360816
0.00357822
0.00358902
0.00357473
0.0035774
0.00357932
0.00360507
0.00360515
0.00358814
0.00360816
0.00358902
0.00357821
0.00361101
0.003611
0.00358254
0.00357785
0.00357785
0.00353518
0.00355446
0.00355582
0.00353372
0.00355337
0.00353327
0.00353518
0.00355445
0.00355582
0.00353371
0.00354931
0.00354931
0.00354931
0.00351172
0.00351172
0.00351172
0.00351172
0.00353376
0.00355453
0.00354931
0.00353744
0.00355332
0.00353431
0.00353717
0.00355336
0.00353327
0.00353377
0.00354931
0.00355453
0.00353744
0.00355332
0.00353717
0.0035343
0.00355555
0.00355555
0.00353399
0.00353464
0.00353464
0.00348291
0.00350172
0.00350279
0.00348189
0.00350135
0.00348161
0.00348291
0.00350172
0.00350279
0.00348189
0.00349856
0.00349856
0.00349856
0.00345918
0.00345918
0.00345918
0.00345918
0.00348201
0.00350212
0.00349843
0.00348539
0.00350156
0.00348237
0.0034853
0.00350135
0.0034816
0.00348201
0.00349843
0.00350212
0.00348539
0.00350156
0.0034853
0.00348237
0.00350236
0.00350236
0.003482
0.00348244
0.00348244
0.00343038
0.00344904
0.0034499
0.00342961
0.00344883
0.00342944
0.00343038
0.00344904
0.0034499
0.00342961
0.00344617
0.00344617
0.00344617
0.00340754
0.00340754
0.00340754
0.00340754
0.00342988
0.00344945
0.00344614
0.00343323
0.00344916
0.00343006
0.00343319
0.00344883
0.00342943
0.00342987
0.00344614
0.00344945
0.00343323
0.00344916
0.00343319
0.00343006
0.00344948
0.00344948
0.00342992
0.00343
0.00343
0.00337919
0.00339754
0.00339817
0.00337863
0.0033974
0.00337849
0.00337918
0.00339754
0.00339817
0.00337863
0.00339482
0.00339482
0.00339482
0.00335719
0.00335719
0.00335719
0.00335719
0.00337891
0.00339789
0.0033948
0.00338219
0.00339772
0.00337902
0.00338216
0.00339739
0.0033785
0.00337891
0.0033948
0.00339789
0.00338219
0.00339772
0.00338216
0.00337902
0.00339788
0.00339788
0.00337899
0.00337893
0.00337893
0.00332954
0.00334749
0.00334794
0.00332914
0.00334738
0.00332902
0.00332954
0.00334749
0.00334794
0.00332914
0.00334484
0.00334484
0.00334484
0.00330832
0.00330832
0.00330832
0.00330831
0.00332942
0.00334779
0.00334482
0.00333259
0.00334767
0.00332949