/*--------------------------------*- C++ -*----------------------------------*\
| =========                 |                                                 |
| \\      /  F ield         | OpenFOAM: The Open Source CFD Toolbox           |
|  \\    /   O peration     | Version:  v2012                                 |
|   \\  /    A nd           | Website:  www.openfoam.com                      |
|    \\/     M anipulation  |                                                 |
\*---------------------------------------------------------------------------*/
FoamFile
{
    version     2.0;
    format      ascii;
    class       volScalarField;
    location    "0.05";
    object      p;
}
// * * * * * * * * * * * * * * * * * * * * * * * * * * * * * * * * * * * * * //

dimensions      [0 2 -2 0 0 0 0];


internalField   nonuniform List<scalar> 
247104
(
2.13789e-06
2.13944e-06
2.13907e-06
2.13883e-06
2.13842e-06
2.13887e-06
2.13911e-06
2.13931e-06
2.1394e-06
2.13955e-06
2.13959e-06
2.13932e-06
2.1391e-06
2.13936e-06
2.1396e-06
2.13951e-06
2.13906e-06
2.13958e-06
2.13936e-06
2.13894e-06
2.13875e-06
2.13898e-06
2.13941e-06
2.13957e-06
2.13895e-06
2.13881e-06
2.13931e-06
2.13893e-06
2.13845e-06
2.13826e-06
2.1385e-06
2.139e-06
2.13932e-06
2.13865e-06
2.13785e-06
2.1384e-06
2.13909e-06
2.13875e-06
2.13826e-06
2.13808e-06
2.13831e-06
2.13881e-06
2.13909e-06
2.13823e-06
2.13887e-06
2.13935e-06
2.13898e-06
2.1385e-06
2.13831e-06
2.13855e-06
2.13905e-06
2.13936e-06
2.13871e-06
2.13911e-06
2.1396e-06
2.13941e-06
2.139e-06
2.13881e-06
2.13904e-06
2.13945e-06
2.13959e-06
2.13901e-06
2.13932e-06
2.13951e-06
2.13957e-06
2.13932e-06
2.13908e-06
2.13936e-06
2.13959e-06
2.13948e-06
2.13895e-06
2.13865e-06
2.13822e-06
2.1387e-06
2.13901e-06
2.10503e-06
2.10243e-06
2.10535e-06
2.10336e-06
2.10187e-06
2.10207e-06
2.10193e-06
2.1066e-06
2.10589e-06
2.10532e-06
2.10204e-06
2.09728e-06
2.09685e-06
2.09685e-06
2.09727e-06
2.10218e-06
2.10292e-06
2.10329e-06
2.09727e-06
2.09711e-06
2.09704e-06
2.09704e-06
2.09711e-06
2.09728e-06
2.10298e-06
2.10726e-06
2.105e-06
2.10181e-06
2.09685e-06
2.09704e-06
2.0972e-06
2.0972e-06
2.09705e-06
2.09686e-06
2.10187e-06
2.10597e-06
2.10251e-06
2.10207e-06
2.09685e-06
2.09704e-06
2.0972e-06
2.0972e-06
2.09705e-06
2.09686e-06
2.10208e-06
2.10164e-06
2.10199e-06
2.09727e-06
2.09711e-06
2.09705e-06
2.09705e-06
2.09711e-06
2.09729e-06
2.10213e-06
2.10435e-06
2.10662e-06
2.10218e-06
2.09728e-06
2.09686e-06
2.09685e-06
2.09727e-06
2.1018e-06
2.10316e-06
2.10744e-06
2.10594e-06
2.10293e-06
2.10298e-06
2.10189e-06
2.10206e-06
2.10209e-06
2.10316e-06
2.10877e-06
2.10725e-06
2.10602e-06
2.10164e-06
2.1043e-06
2.10739e-06
2.08479e-06
2.08478e-06
2.0842e-06
2.08199e-06
2.08193e-06
2.08187e-06
2.08199e-06
2.08498e-06
2.08483e-06
2.08421e-06
2.08173e-06
2.07864e-06
2.07842e-06
2.07841e-06
2.07863e-06
2.08347e-06
2.08261e-06
2.08199e-06
2.07861e-06
2.07807e-06
2.07801e-06
2.07801e-06
2.07808e-06
2.07865e-06
2.08403e-06
2.08566e-06
2.08482e-06
2.08194e-06
2.07841e-06
2.07801e-06
2.07793e-06
2.07793e-06
2.07802e-06
2.07844e-06
2.08351e-06
2.08466e-06
2.08478e-06
2.08188e-06
2.07841e-06
2.07801e-06
2.07793e-06
2.07793e-06
2.07802e-06
2.07843e-06
2.08317e-06
2.08206e-06
2.082e-06
2.07862e-06
2.07807e-06
2.07801e-06
2.07801e-06
2.07808e-06
2.07864e-06
2.08384e-06
2.08521e-06
2.08498e-06
2.08346e-06
2.07863e-06
2.07842e-06
2.07842e-06
2.07863e-06
2.08401e-06
2.08341e-06
2.0853e-06
2.08483e-06
2.0826e-06
2.08401e-06
2.08349e-06
2.08316e-06
2.08383e-06
2.08342e-06
2.08563e-06
2.08566e-06
2.08466e-06
2.08205e-06
2.08521e-06
2.0853e-06
2.06209e-06
2.06208e-06
2.06203e-06
2.05974e-06
2.05964e-06
2.05949e-06
2.05982e-06
2.06293e-06
2.06272e-06
2.06205e-06
2.05927e-06
2.056e-06
2.05591e-06
2.0559e-06
2.05601e-06
2.06172e-06
2.06068e-06
2.05974e-06
2.05601e-06
2.05587e-06
2.05585e-06
2.05585e-06
2.05587e-06
2.056e-06
2.06246e-06
2.06339e-06
2.06212e-06
2.05965e-06
2.05591e-06
2.05585e-06
2.05584e-06
2.05584e-06
2.05585e-06
2.05591e-06
2.06215e-06
2.06215e-06
2.06209e-06
2.0595e-06
2.05591e-06
2.05585e-06
2.05584e-06
2.05584e-06
2.05585e-06
2.05591e-06
2.06183e-06
2.05969e-06
2.05983e-06
2.05601e-06
2.05588e-06
2.05585e-06
2.05585e-06
2.05588e-06
2.05601e-06
2.06243e-06
2.06272e-06
2.06296e-06
2.06172e-06
2.05601e-06
2.05592e-06
2.05591e-06
2.05602e-06
2.06301e-06
2.06172e-06
2.06318e-06
2.06272e-06
2.0607e-06
2.06247e-06
2.06216e-06
2.06183e-06
2.06242e-06
2.0617e-06
2.06333e-06
2.06339e-06
2.06214e-06
2.05969e-06
2.06272e-06
2.06319e-06
2.04044e-06
2.04044e-06
2.04025e-06
2.03781e-06
2.03774e-06
2.03754e-06
2.03794e-06
2.04118e-06
2.04089e-06
2.04025e-06
2.03668e-06
2.03343e-06
2.03342e-06
2.03342e-06
2.03343e-06
2.03951e-06
2.03887e-06
2.03781e-06
2.03343e-06
2.03341e-06
2.03341e-06
2.03341e-06
2.03341e-06
2.03343e-06
2.04082e-06
2.0417e-06
2.04047e-06
2.03773e-06
2.03342e-06
2.03341e-06
2.03342e-06
2.03342e-06
2.03341e-06
2.03341e-06
2.04084e-06
2.04048e-06
2.04043e-06
2.03754e-06
2.03342e-06
2.03342e-06
2.03342e-06
2.03342e-06
2.03341e-06
2.03342e-06
2.04054e-06
2.03804e-06
2.03795e-06
2.03343e-06
2.03341e-06
2.03342e-06
2.03341e-06
2.03341e-06
2.03343e-06
2.04095e-06
2.04106e-06
2.04117e-06
2.03951e-06
2.03343e-06
2.03342e-06
2.03342e-06
2.03343e-06
2.04134e-06
2.03993e-06
2.04145e-06
2.04088e-06
2.03887e-06
2.04082e-06
2.04084e-06
2.04055e-06
2.04096e-06
2.03992e-06
2.04151e-06
2.04171e-06
2.04049e-06
2.03805e-06
2.04107e-06
2.04147e-06
2.01851e-06
2.01853e-06
2.01826e-06
2.01577e-06
2.01568e-06
2.01545e-06
2.01591e-06
2.01921e-06
2.01891e-06
2.01828e-06
2.01439e-06
2.01112e-06
2.01112e-06
2.01112e-06
2.01112e-06
2.01731e-06
2.01688e-06
2.01577e-06
2.01113e-06
2.01112e-06
2.01112e-06
2.01112e-06
2.01112e-06
2.01113e-06
2.01884e-06
2.01977e-06
2.01854e-06
2.01569e-06
2.01112e-06
2.01112e-06
2.01113e-06
2.01112e-06
2.01112e-06
2.01112e-06
2.01898e-06
2.01855e-06
2.01854e-06
2.01544e-06
2.01112e-06
2.01112e-06
2.01113e-06
2.01113e-06
2.01112e-06
2.01112e-06
2.01867e-06
2.01614e-06
2.01593e-06
2.01113e-06
2.01112e-06
2.01112e-06
2.01112e-06
2.01112e-06
2.01112e-06
2.01905e-06
2.01914e-06
2.01921e-06
2.01731e-06
2.01113e-06
2.01112e-06
2.01112e-06
2.01112e-06
2.01935e-06
2.01795e-06
2.01951e-06
2.01893e-06
2.0169e-06
2.01885e-06
2.019e-06
2.01868e-06
2.01906e-06
2.01794e-06
2.01954e-06
2.01979e-06
2.01856e-06
2.01615e-06
2.01915e-06
2.0195e-06
1.99641e-06
1.99644e-06
1.99607e-06
1.99364e-06
1.99355e-06
1.99329e-06
1.99378e-06
1.99709e-06
1.99679e-06
1.99614e-06
1.99218e-06
1.9889e-06
1.9889e-06
1.9889e-06
1.9889e-06
1.99512e-06
1.99477e-06
1.99362e-06
1.9889e-06
1.9889e-06
1.9889e-06
1.9889e-06
1.9889e-06
1.98891e-06
1.99672e-06
1.99766e-06
1.99644e-06
1.99354e-06
1.98891e-06
1.98891e-06
1.98891e-06
1.9889e-06
1.9889e-06
1.9889e-06
1.99691e-06
1.99645e-06
1.99643e-06
1.99329e-06
1.98891e-06
1.9889e-06
1.98891e-06
1.9889e-06
1.9889e-06
1.9889e-06
1.9966e-06
1.99405e-06
1.99378e-06
1.9889e-06
1.9889e-06
1.9889e-06
1.9889e-06
1.9889e-06
1.98891e-06
1.99694e-06
1.99703e-06
1.99709e-06
1.99511e-06
1.9889e-06
1.9889e-06
1.9889e-06
1.9889e-06
1.99722e-06
1.99581e-06
1.99738e-06
1.9968e-06
1.99476e-06
1.99673e-06
1.9969e-06
1.99658e-06
1.99695e-06
1.99581e-06
1.99741e-06
1.99766e-06
1.99645e-06
1.99405e-06
1.99703e-06
1.99738e-06
1.97425e-06
1.97428e-06
1.97391e-06
1.97146e-06
1.97137e-06
1.97111e-06
1.9716e-06
1.97492e-06
1.97462e-06
1.97397e-06
1.96998e-06
1.96671e-06
1.96671e-06
1.96671e-06
1.96671e-06
1.97293e-06
1.9726e-06
1.97145e-06
1.96671e-06
1.96671e-06
1.96671e-06
1.96671e-06
1.96671e-06
1.9667e-06
1.97455e-06
1.9755e-06
1.97428e-06
1.97137e-06
1.96671e-06
1.96671e-06
1.96671e-06
1.96671e-06
1.96671e-06
1.96671e-06
1.97475e-06
1.97428e-06
1.97427e-06
1.97112e-06
1.96671e-06
1.96671e-06
1.96671e-06
1.96671e-06
1.96671e-06
1.9667e-06
1.97443e-06
1.97188e-06
1.97161e-06
1.96671e-06
1.96671e-06
1.96671e-06
1.96671e-06
1.96671e-06
1.9667e-06
1.97477e-06
1.97487e-06
1.97494e-06
1.97294e-06
1.96671e-06
1.9667e-06
1.96671e-06
1.96671e-06
1.97506e-06
1.97364e-06
1.97522e-06
1.9746e-06
1.9726e-06
1.97455e-06
1.97476e-06
1.97444e-06
1.97479e-06
1.97364e-06
1.97524e-06
1.9755e-06
1.97429e-06
1.97189e-06
1.97487e-06
1.97522e-06
1.95207e-06
1.9521e-06
1.95172e-06
1.94928e-06
1.94919e-06
1.94893e-06
1.94943e-06
1.95274e-06
1.95244e-06
1.9518e-06
1.94779e-06
1.94452e-06
1.94452e-06
1.94452e-06
1.94452e-06
1.95074e-06
1.95042e-06
1.94927e-06
1.94452e-06
1.94452e-06
1.94452e-06
1.94452e-06
1.94452e-06
1.94452e-06
1.95237e-06
1.95331e-06
1.9521e-06
1.9492e-06
1.94452e-06
1.94452e-06
1.94452e-06
1.94452e-06
1.94452e-06
1.94451e-06
1.95257e-06
1.9521e-06
1.9521e-06
1.94894e-06
1.94452e-06
1.94452e-06
1.94452e-06
1.94452e-06
1.94452e-06
1.94451e-06
1.95226e-06
1.9497e-06
1.94943e-06
1.94452e-06
1.94452e-06
1.94452e-06
1.94452e-06
1.94452e-06
1.94451e-06
1.95259e-06
1.95269e-06
1.95275e-06
1.95074e-06
1.94452e-06
1.94452e-06
1.94452e-06
1.94452e-06
1.95288e-06
1.95147e-06
1.95304e-06
1.95243e-06
1.95041e-06
1.95237e-06
1.95258e-06
1.95226e-06
1.95261e-06
1.95146e-06
1.95307e-06
1.95331e-06
1.95211e-06
1.94971e-06
1.95269e-06
1.95304e-06
1.92989e-06
1.92991e-06
1.92953e-06
1.92709e-06
1.927e-06
1.92675e-06
1.92724e-06
1.93056e-06
1.93026e-06
1.92962e-06
1.92561e-06
1.92233e-06
1.92233e-06
1.92233e-06
1.92233e-06
1.92856e-06
1.92824e-06
1.92708e-06
1.92233e-06
1.92233e-06
1.92233e-06
1.92233e-06
1.92233e-06
1.92233e-06
1.93018e-06
1.93113e-06
1.92991e-06
1.92701e-06
1.92233e-06
1.92233e-06
1.92233e-06
1.92233e-06
1.92233e-06
1.92233e-06
1.93039e-06
1.92992e-06
1.92991e-06
1.92675e-06
1.92233e-06
1.92233e-06
1.92233e-06
1.92233e-06
1.92233e-06
1.92233e-06
1.93007e-06
1.92751e-06
1.92724e-06
1.92233e-06
1.92233e-06
1.92233e-06
1.92233e-06
1.92233e-06
1.92233e-06
1.9304e-06
1.9305e-06
1.93057e-06
1.92855e-06
1.92233e-06
1.92233e-06
1.92233e-06
1.92233e-06
1.9307e-06
1.92928e-06
1.93086e-06
1.93024e-06
1.92822e-06
1.93019e-06
1.9304e-06
1.93008e-06
1.93043e-06
1.92927e-06
1.93088e-06
1.93113e-06
1.92993e-06
1.92753e-06
1.93051e-06
1.93086e-06
1.9077e-06
1.90772e-06
1.90734e-06
1.90489e-06
1.90481e-06
1.90456e-06
1.90505e-06
1.90836e-06
1.90807e-06
1.9074e-06
1.90341e-06
1.90013e-06
1.90014e-06
1.90014e-06
1.90014e-06
1.90637e-06
1.90605e-06
1.90489e-06
1.90014e-06
1.90014e-06
1.90014e-06
1.90014e-06
1.90014e-06
1.90014e-06
1.908e-06
1.90894e-06
1.90772e-06
1.90482e-06
1.90014e-06
1.90014e-06
1.90014e-06
1.90014e-06
1.90014e-06
1.90014e-06
1.9082e-06
1.90773e-06
1.90772e-06
1.90456e-06
1.90014e-06
1.90014e-06
1.90014e-06
1.90014e-06
1.90014e-06
1.90014e-06
1.90788e-06
1.90532e-06
1.90505e-06
1.90014e-06
1.90014e-06
1.90014e-06
1.90014e-06
1.90014e-06
1.90014e-06
1.90822e-06
1.90831e-06
1.90838e-06
1.90636e-06
1.90014e-06
1.90014e-06
1.90014e-06
1.90014e-06
1.90851e-06
1.90709e-06
1.90867e-06
1.90805e-06
1.90603e-06
1.908e-06
1.90821e-06
1.90789e-06
1.90824e-06
1.90708e-06
1.90869e-06
1.90894e-06
1.90774e-06
1.90534e-06
1.90832e-06
1.90867e-06
1.88551e-06
1.88553e-06
1.88521e-06
1.88271e-06
1.88262e-06
1.88237e-06
1.88286e-06
1.88618e-06
1.88587e-06
1.88523e-06
1.88122e-06
1.87795e-06
1.87795e-06
1.87795e-06
1.87795e-06
1.88418e-06
1.88385e-06
1.8827e-06
1.87795e-06
1.87795e-06
1.87795e-06
1.87795e-06
1.87795e-06
1.87795e-06
1.8858e-06
1.88675e-06
1.88553e-06
1.88263e-06
1.87795e-06
1.87795e-06
1.87795e-06
1.87795e-06
1.87795e-06
1.87795e-06
1.88601e-06
1.88554e-06
1.88553e-06
1.88237e-06
1.87795e-06
1.87795e-06
1.87795e-06
1.87795e-06
1.87795e-06
1.87795e-06
1.88569e-06
1.88313e-06
1.88286e-06
1.87795e-06
1.87795e-06
1.87795e-06
1.87795e-06
1.87795e-06
1.87795e-06
1.88603e-06
1.88612e-06
1.88619e-06
1.88417e-06
1.87795e-06
1.87795e-06
1.87795e-06
1.87795e-06
1.88632e-06
1.8849e-06
1.88648e-06
1.88586e-06
1.88384e-06
1.88581e-06
1.88602e-06
1.8857e-06
1.88605e-06
1.88489e-06
1.8865e-06
1.88675e-06
1.88555e-06
1.88315e-06
1.88613e-06
1.88648e-06
1.86332e-06
1.86335e-06
1.86302e-06
1.86052e-06
1.86043e-06
1.86018e-06
1.86067e-06
1.86399e-06
1.86369e-06
1.86304e-06
1.85903e-06
1.85576e-06
1.85576e-06
1.85576e-06
1.85576e-06
1.86199e-06
1.86166e-06
1.86051e-06
1.85576e-06
1.85576e-06
1.85576e-06
1.85576e-06
1.85576e-06
1.85576e-06
1.86362e-06
1.86456e-06
1.86334e-06
1.86044e-06
1.85576e-06
1.85576e-06
1.85576e-06
1.85576e-06
1.85576e-06
1.85576e-06
1.86382e-06
1.86335e-06
1.86334e-06
1.86018e-06
1.85576e-06
1.85576e-06
1.85576e-06
1.85576e-06
1.85576e-06
1.85576e-06
1.86351e-06
1.86095e-06
1.86067e-06
1.85576e-06
1.85576e-06
1.85576e-06
1.85576e-06
1.85576e-06
1.85576e-06
1.86384e-06
1.86393e-06
1.864e-06
1.86198e-06
1.85576e-06
1.85576e-06
1.85576e-06
1.85576e-06
1.86413e-06
1.86271e-06
1.86429e-06
1.86367e-06
1.86166e-06
1.86362e-06
1.86383e-06
1.86352e-06
1.86386e-06
1.8627e-06
1.86431e-06
1.86456e-06
1.86336e-06
1.86096e-06
1.86394e-06
1.86429e-06
1.84113e-06
1.84116e-06
1.84083e-06
1.83833e-06
1.83824e-06
1.83799e-06
1.83848e-06
1.8418e-06
1.84151e-06
1.84086e-06
1.83684e-06
1.83357e-06
1.83357e-06
1.83357e-06
1.83357e-06
1.8398e-06
1.83948e-06
1.83833e-06
1.83357e-06
1.83357e-06
1.83357e-06
1.83357e-06
1.83357e-06
1.83357e-06
1.84143e-06
1.84237e-06
1.84116e-06
1.83825e-06
1.83357e-06
1.83357e-06
1.83357e-06
1.83357e-06
1.83357e-06
1.83357e-06
1.84163e-06
1.84116e-06
1.84116e-06
1.83799e-06
1.83357e-06
1.83357e-06
1.83357e-06
1.83357e-06
1.83357e-06
1.83357e-06
1.84132e-06
1.83876e-06
1.83849e-06
1.83357e-06
1.83357e-06
1.83357e-06
1.83357e-06
1.83357e-06
1.83357e-06
1.84165e-06
1.84175e-06
1.84181e-06
1.83979e-06
1.83357e-06
1.83357e-06
1.83357e-06
1.83357e-06
1.84194e-06
1.84053e-06
1.8421e-06
1.84148e-06
1.83947e-06
1.84144e-06
1.84165e-06
1.84133e-06
1.84167e-06
1.84052e-06
1.84213e-06
1.84238e-06
1.84117e-06
1.83878e-06
1.84175e-06
1.8421e-06
1.81894e-06
1.81897e-06
1.81865e-06
1.81615e-06
1.81606e-06
1.8158e-06
1.8163e-06
1.81961e-06
1.81932e-06
1.81867e-06
1.81466e-06
1.81139e-06
1.81139e-06
1.81139e-06
1.81139e-06
1.81762e-06
1.81729e-06
1.81614e-06
1.81139e-06
1.81139e-06
1.81139e-06
1.81139e-06
1.81139e-06
1.81139e-06
1.81924e-06
1.82018e-06
1.81897e-06
1.81607e-06
1.81139e-06
1.81139e-06
1.81139e-06
1.81139e-06
1.81139e-06
1.81139e-06
1.81944e-06
1.81898e-06
1.81897e-06
1.81581e-06
1.81139e-06
1.81139e-06
1.81139e-06
1.81139e-06
1.81139e-06
1.81139e-06
1.81913e-06
1.81657e-06
1.8163e-06
1.81139e-06
1.81139e-06
1.81139e-06
1.81139e-06
1.81139e-06
1.81139e-06
1.81946e-06
1.81956e-06
1.81962e-06
1.81761e-06
1.81139e-06
1.81139e-06
1.81139e-06
1.81139e-06
1.81976e-06
1.81834e-06
1.81992e-06
1.8193e-06
1.81728e-06
1.81925e-06
1.81946e-06
1.81915e-06
1.81949e-06
1.81833e-06
1.81994e-06
1.82019e-06
1.81898e-06
1.81659e-06
1.81957e-06
1.81991e-06
1.79676e-06
1.79678e-06
1.79646e-06
1.79396e-06
1.79387e-06
1.79362e-06
1.79411e-06
1.79742e-06
1.79713e-06
1.79648e-06
1.79247e-06
1.7892e-06
1.7892e-06
1.7892e-06
1.7892e-06
1.79543e-06
1.7951e-06
1.79395e-06
1.7892e-06
1.7892e-06
1.7892e-06
1.7892e-06
1.7892e-06
1.7892e-06
1.79706e-06
1.798e-06
1.79678e-06
1.79388e-06
1.7892e-06
1.7892e-06
1.7892e-06
1.7892e-06
1.7892e-06
1.7892e-06
1.79726e-06
1.79679e-06
1.79678e-06
1.79362e-06
1.7892e-06
1.7892e-06
1.7892e-06
1.7892e-06
1.7892e-06
1.7892e-06
1.79695e-06
1.79438e-06
1.79411e-06
1.7892e-06
1.7892e-06
1.7892e-06
1.7892e-06
1.7892e-06
1.7892e-06
1.79728e-06
1.79737e-06
1.79744e-06
1.79542e-06
1.7892e-06
1.7892e-06
1.7892e-06
1.7892e-06
1.79757e-06
1.79615e-06
1.79773e-06
1.79711e-06
1.7951e-06
1.79706e-06
1.79727e-06
1.79696e-06
1.7973e-06
1.79614e-06
1.79775e-06
1.798e-06
1.7968e-06
1.79439e-06
1.79738e-06
1.79773e-06
1.77457e-06
1.7746e-06
1.77427e-06
1.77178e-06
1.77168e-06
1.77143e-06
1.77192e-06
1.77523e-06
1.77495e-06
1.7743e-06
1.77028e-06
1.76701e-06
1.76701e-06
1.76701e-06
1.76701e-06
1.77324e-06
1.77292e-06
1.77176e-06
1.76701e-06
1.76701e-06
1.76701e-06
1.76701e-06
1.76701e-06
1.76701e-06
1.77487e-06
1.77581e-06
1.7746e-06
1.77169e-06
1.76701e-06
1.76701e-06
1.76701e-06
1.76701e-06
1.76701e-06
1.76701e-06
1.77507e-06
1.7746e-06
1.7746e-06
1.77143e-06
1.76701e-06
1.76701e-06
1.76701e-06
1.76701e-06
1.76701e-06
1.76701e-06
1.77476e-06
1.7722e-06
1.77193e-06
1.76701e-06
1.76701e-06
1.76701e-06
1.76701e-06
1.76701e-06
1.76701e-06
1.77509e-06
1.77519e-06
1.77525e-06
1.77323e-06
1.76701e-06
1.76701e-06
1.76701e-06
1.76701e-06
1.77538e-06
1.77397e-06
1.77554e-06
1.77492e-06
1.77291e-06
1.77488e-06
1.77509e-06
1.77477e-06
1.77511e-06
1.77396e-06
1.77557e-06
1.77582e-06
1.77461e-06
1.77222e-06
1.77519e-06
1.77554e-06
1.75238e-06
1.75241e-06
1.75208e-06
1.74959e-06
1.7495e-06
1.74924e-06
1.74974e-06
1.75304e-06
1.75276e-06
1.75211e-06
1.74809e-06
1.74482e-06
1.74482e-06
1.74482e-06
1.74482e-06
1.75105e-06
1.75073e-06
1.74958e-06
1.74482e-06
1.74482e-06
1.74482e-06
1.74482e-06
1.74482e-06
1.74482e-06
1.75268e-06
1.75362e-06
1.75241e-06
1.7495e-06
1.74482e-06
1.74482e-06
1.74482e-06
1.74482e-06
1.74482e-06
1.74482e-06
1.75288e-06
1.75241e-06
1.75241e-06
1.74924e-06
1.74482e-06
1.74482e-06
1.74482e-06
1.74482e-06
1.74482e-06
1.74482e-06
1.75257e-06
1.75001e-06
1.74974e-06
1.74482e-06
1.74482e-06
1.74482e-06
1.74482e-06
1.74482e-06
1.74482e-06
1.7529e-06
1.753e-06
1.75306e-06
1.75105e-06
1.74482e-06
1.74482e-06
1.74482e-06
1.74482e-06
1.7532e-06
1.75178e-06
1.75336e-06
1.75273e-06
1.75072e-06
1.75269e-06
1.7529e-06
1.75258e-06
1.75292e-06
1.75177e-06
1.75338e-06
1.75363e-06
1.75242e-06
1.75003e-06
1.75301e-06
1.75335e-06
1.73019e-06
1.73022e-06
1.7299e-06
1.7274e-06
1.72731e-06
1.72705e-06
1.72755e-06
1.73085e-06
1.73057e-06
1.72992e-06
1.72591e-06
1.72264e-06
1.72264e-06
1.72264e-06
1.72264e-06
1.72886e-06
1.72854e-06
1.72739e-06
1.72264e-06
1.72264e-06
1.72264e-06
1.72264e-06
1.72264e-06
1.72264e-06
1.73049e-06
1.73144e-06
1.73022e-06
1.72732e-06
1.72264e-06
1.72264e-06
1.72264e-06
1.72264e-06
1.72264e-06
1.72264e-06
1.7307e-06
1.73023e-06
1.73022e-06
1.72706e-06
1.72264e-06
1.72264e-06
1.72264e-06
1.72264e-06
1.72264e-06
1.72264e-06
1.73038e-06
1.72782e-06
1.72755e-06
1.72264e-06
1.72264e-06
1.72264e-06
1.72264e-06
1.72264e-06
1.72264e-06
1.73071e-06
1.73081e-06
1.73087e-06
1.72886e-06
1.72264e-06
1.72264e-06
1.72264e-06
1.72264e-06
1.73101e-06
1.72959e-06
1.73117e-06
1.73055e-06
1.72853e-06
1.7305e-06
1.73071e-06
1.73039e-06
1.73074e-06
1.72958e-06
1.73119e-06
1.73144e-06
1.73024e-06
1.72784e-06
1.73082e-06
1.73116e-06
1.70801e-06
1.70803e-06
1.70771e-06
1.70521e-06
1.70512e-06
1.70487e-06
1.70536e-06
1.70866e-06
1.70838e-06
1.70773e-06
1.70372e-06
1.70045e-06
1.70045e-06
1.70045e-06
1.70045e-06
1.70668e-06
1.70635e-06
1.7052e-06
1.70045e-06
1.70045e-06
1.70045e-06
1.70045e-06
1.70045e-06
1.70045e-06
1.70831e-06
1.70925e-06
1.70803e-06
1.70513e-06
1.70045e-06
1.70045e-06
1.70045e-06
1.70045e-06
1.70045e-06
1.70045e-06
1.70851e-06
1.70804e-06
1.70803e-06
1.70487e-06
1.70045e-06
1.70045e-06
1.70045e-06
1.70045e-06
1.70045e-06
1.70045e-06
1.70819e-06
1.70563e-06
1.70536e-06
1.70045e-06
1.70045e-06
1.70045e-06
1.70045e-06
1.70045e-06
1.70045e-06
1.70853e-06
1.70862e-06
1.70869e-06
1.70667e-06
1.70045e-06
1.70045e-06
1.70045e-06
1.70045e-06
1.70882e-06
1.7074e-06
1.70898e-06
1.70836e-06
1.70635e-06
1.70831e-06
1.70852e-06
1.7082e-06
1.70855e-06
1.70739e-06
1.709e-06
1.70925e-06
1.70805e-06
1.70565e-06
1.70863e-06
1.70897e-06
1.68582e-06
1.68585e-06
1.68552e-06
1.68302e-06
1.68293e-06
1.68268e-06
1.68317e-06
1.68648e-06
1.68619e-06
1.68554e-06
1.68153e-06
1.67826e-06
1.67826e-06
1.67826e-06
1.67826e-06
1.68449e-06
1.68416e-06
1.68301e-06
1.67826e-06
1.67826e-06
1.67826e-06
1.67826e-06
1.67826e-06
1.67826e-06
1.68612e-06
1.68706e-06
1.68584e-06
1.68294e-06
1.67826e-06
1.67826e-06
1.67826e-06
1.67826e-06
1.67826e-06
1.67826e-06
1.68632e-06
1.68585e-06
1.68585e-06
1.68268e-06
1.67826e-06
1.67826e-06
1.67826e-06
1.67826e-06
1.67826e-06
1.67826e-06
1.68601e-06
1.68345e-06
1.68318e-06
1.67826e-06
1.67826e-06
1.67826e-06
1.67826e-06
1.67826e-06
1.67826e-06
1.68634e-06
1.68643e-06
1.6865e-06
1.68448e-06
1.67826e-06
1.67826e-06
1.67826e-06
1.67826e-06
1.68663e-06
1.68522e-06
1.68679e-06
1.68617e-06
1.68416e-06
1.68612e-06
1.68633e-06
1.68601e-06
1.68636e-06
1.68521e-06
1.68681e-06
1.68706e-06
1.68586e-06
1.68346e-06
1.68644e-06
1.68679e-06
1.66363e-06
1.66366e-06
1.66334e-06
1.66083e-06
1.66074e-06
1.66049e-06
1.66099e-06
1.66428e-06
1.664e-06
1.66336e-06
1.65935e-06
1.65607e-06
1.65607e-06
1.65607e-06
1.65607e-06
1.6623e-06
1.66198e-06
1.66083e-06
1.65607e-06
1.65607e-06
1.65607e-06
1.65607e-06
1.65607e-06
1.65607e-06
1.66393e-06
1.66487e-06
1.66366e-06
1.66075e-06
1.65607e-06
1.65607e-06
1.65607e-06
1.65607e-06
1.65607e-06
1.65607e-06
1.66413e-06
1.66366e-06
1.66366e-06
1.66049e-06
1.65607e-06
1.65607e-06
1.65607e-06
1.65607e-06
1.65607e-06
1.65607e-06
1.66382e-06
1.66126e-06
1.66099e-06
1.65607e-06
1.65607e-06
1.65607e-06
1.65607e-06
1.65607e-06
1.65607e-06
1.66415e-06
1.66425e-06
1.66431e-06
1.66229e-06
1.65607e-06
1.65607e-06
1.65607e-06
1.65607e-06
1.66444e-06
1.66303e-06
1.6646e-06
1.66398e-06
1.66197e-06
1.66394e-06
1.66414e-06
1.66383e-06
1.66417e-06
1.66302e-06
1.66463e-06
1.66488e-06
1.66367e-06
1.66127e-06
1.66425e-06
1.6646e-06
1.64144e-06
1.64147e-06
1.64115e-06
1.63865e-06
1.63856e-06
1.6383e-06
1.6388e-06
1.6421e-06
1.64182e-06
1.64117e-06
1.63716e-06
1.63389e-06
1.63389e-06
1.63389e-06
1.63389e-06
1.64011e-06
1.63979e-06
1.63864e-06
1.63389e-06
1.63389e-06
1.63389e-06
1.63389e-06
1.63389e-06
1.63389e-06
1.64174e-06
1.64269e-06
1.64147e-06
1.63857e-06
1.63389e-06
1.63389e-06
1.63389e-06
1.63389e-06
1.63389e-06
1.63389e-06
1.64194e-06
1.64147e-06
1.64147e-06
1.63831e-06
1.63389e-06
1.63389e-06
1.63389e-06
1.63389e-06
1.63389e-06
1.63389e-06
1.64163e-06
1.63907e-06
1.6388e-06
1.63389e-06
1.63389e-06
1.63389e-06
1.63389e-06
1.63389e-06
1.63389e-06
1.64196e-06
1.64206e-06
1.64212e-06
1.64011e-06
1.63389e-06
1.63389e-06
1.63389e-06
1.63389e-06
1.64226e-06
1.64084e-06
1.64242e-06
1.6418e-06
1.63978e-06
1.64175e-06
1.64196e-06
1.64164e-06
1.64198e-06
1.64083e-06
1.64244e-06
1.64269e-06
1.64148e-06
1.63909e-06
1.64206e-06
1.64241e-06
1.61926e-06
1.61928e-06
1.61896e-06
1.61646e-06
1.61637e-06
1.61612e-06
1.61661e-06
1.61992e-06
1.61963e-06
1.61898e-06
1.61497e-06
1.6117e-06
1.6117e-06
1.6117e-06
1.6117e-06
1.61793e-06
1.6176e-06
1.61645e-06
1.6117e-06
1.6117e-06
1.6117e-06
1.6117e-06
1.6117e-06
1.6117e-06
1.61955e-06
1.6205e-06
1.61928e-06
1.61638e-06
1.6117e-06
1.6117e-06
1.6117e-06
1.6117e-06
1.6117e-06
1.6117e-06
1.61976e-06
1.61929e-06
1.61928e-06
1.61612e-06
1.6117e-06
1.6117e-06
1.6117e-06
1.6117e-06
1.6117e-06
1.6117e-06
1.61944e-06
1.61688e-06
1.61661e-06
1.6117e-06
1.6117e-06
1.6117e-06
1.6117e-06
1.6117e-06
1.6117e-06
1.61978e-06
1.61987e-06
1.61994e-06
1.61792e-06
1.6117e-06
1.6117e-06
1.6117e-06
1.6117e-06
1.62007e-06
1.61865e-06
1.62023e-06
1.61961e-06
1.6176e-06
1.61956e-06
1.61977e-06
1.61945e-06
1.6198e-06
1.61864e-06
1.62025e-06
1.6205e-06
1.6193e-06
1.6169e-06
1.61988e-06
1.62023e-06
1.59707e-06
1.5971e-06
1.59678e-06
1.59427e-06
1.59418e-06
1.59393e-06
1.59443e-06
1.59773e-06
1.5974e-06
1.59679e-06
1.59278e-06
1.58951e-06
1.58951e-06
1.58951e-06
1.58951e-06
1.59574e-06
1.59541e-06
1.59426e-06
1.58951e-06
1.58951e-06
1.58951e-06
1.58951e-06
1.58951e-06
1.58951e-06
1.59737e-06
1.59831e-06
1.5971e-06
1.59419e-06
1.58951e-06
1.58951e-06
1.58951e-06
1.58951e-06
1.58951e-06
1.58951e-06
1.59757e-06
1.5971e-06
1.5971e-06
1.59393e-06
1.58951e-06
1.58951e-06
1.58951e-06
1.58951e-06
1.58951e-06
1.58951e-06
1.59726e-06
1.5947e-06
1.59443e-06
1.58951e-06
1.58951e-06
1.58951e-06
1.58951e-06
1.58951e-06
1.58951e-06
1.59759e-06
1.59769e-06
1.59775e-06
1.59573e-06
1.58951e-06
1.58951e-06
1.58951e-06
1.58951e-06
1.59788e-06
1.59647e-06
1.59804e-06
1.59742e-06
1.59541e-06
1.59738e-06
1.59758e-06
1.59727e-06
1.59761e-06
1.59646e-06
1.59807e-06
1.59832e-06
1.59711e-06
1.59471e-06
1.59769e-06
1.59804e-06
1.57488e-06
1.57491e-06
1.57459e-06
1.57209e-06
1.572e-06
1.57174e-06
1.57224e-06
1.57554e-06
1.57526e-06
1.57456e-06
1.57059e-06
1.56732e-06
1.56732e-06
1.56732e-06
1.56732e-06
1.57355e-06
1.57323e-06
1.57208e-06
1.56733e-06
1.56732e-06
1.56732e-06
1.56732e-06
1.56732e-06
1.56732e-06
1.57518e-06
1.57612e-06
1.57491e-06
1.57201e-06
1.56733e-06
1.56733e-06
1.56732e-06
1.56732e-06
1.56732e-06
1.56732e-06
1.57538e-06
1.57491e-06
1.57491e-06
1.57175e-06
1.56733e-06
1.56733e-06
1.56733e-06
1.56733e-06
1.56733e-06
1.56733e-06
1.57507e-06
1.57251e-06
1.57224e-06
1.56733e-06
1.56733e-06
1.56733e-06
1.56733e-06
1.56733e-06
1.56733e-06
1.5754e-06
1.5755e-06
1.57556e-06
1.57355e-06
1.56733e-06
1.56733e-06
1.56733e-06
1.56733e-06
1.5757e-06
1.57428e-06
1.57585e-06
1.57523e-06
1.57322e-06
1.57519e-06
1.5754e-06
1.57508e-06
1.57542e-06
1.57427e-06
1.57588e-06
1.57613e-06
1.57492e-06
1.57253e-06
1.5755e-06
1.57585e-06
1.55269e-06
1.55272e-06
1.5524e-06
1.5499e-06
1.54981e-06
1.54955e-06
1.55005e-06
1.55336e-06
1.55307e-06
1.55242e-06
1.54841e-06
1.54514e-06
1.54514e-06
1.54514e-06
1.54514e-06
1.55136e-06
1.55104e-06
1.54989e-06
1.54514e-06
1.54514e-06
1.54514e-06
1.54514e-06
1.54514e-06
1.54514e-06
1.55299e-06
1.55394e-06
1.55272e-06
1.54982e-06
1.54514e-06
1.54514e-06
1.54514e-06
1.54514e-06
1.54514e-06
1.54514e-06
1.5532e-06
1.55273e-06
1.55272e-06
1.54956e-06
1.54514e-06
1.54514e-06
1.54514e-06
1.54514e-06
1.54514e-06
1.54514e-06
1.55288e-06
1.55032e-06
1.55005e-06
1.54514e-06
1.54514e-06
1.54514e-06
1.54514e-06
1.54514e-06
1.54514e-06
1.55322e-06
1.55331e-06
1.55338e-06
1.55136e-06
1.54514e-06
1.54514e-06
1.54514e-06
1.54514e-06
1.55351e-06
1.55209e-06
1.55367e-06
1.55305e-06
1.55103e-06
1.553e-06
1.55321e-06
1.55289e-06
1.55324e-06
1.55208e-06
1.55369e-06
1.55394e-06
1.55274e-06
1.55034e-06
1.55332e-06
1.55366e-06
1.53051e-06
1.53054e-06
1.5302e-06
1.52771e-06
1.52762e-06
1.52737e-06
1.52786e-06
1.53117e-06
1.53088e-06
1.53022e-06
1.52622e-06
1.52295e-06
1.52295e-06
1.52295e-06
1.52295e-06
1.52918e-06
1.52885e-06
1.5277e-06
1.52295e-06
1.52295e-06
1.52295e-06
1.52295e-06
1.52295e-06
1.52295e-06
1.53081e-06
1.53175e-06
1.53053e-06
1.52763e-06
1.52295e-06
1.52295e-06
1.52295e-06
1.52295e-06
1.52295e-06
1.52295e-06
1.53101e-06
1.53054e-06
1.53053e-06
1.52737e-06
1.52295e-06
1.52295e-06
1.52295e-06
1.52295e-06
1.52295e-06
1.52295e-06
1.5307e-06
1.52814e-06
1.52786e-06
1.52295e-06
1.52295e-06
1.52295e-06
1.52295e-06
1.52295e-06
1.52295e-06
1.53103e-06
1.53112e-06
1.53119e-06
1.52917e-06
1.52295e-06
1.52295e-06
1.52295e-06
1.52295e-06
1.53132e-06
1.52991e-06
1.53148e-06
1.53086e-06
1.52885e-06
1.53081e-06
1.53102e-06
1.5307e-06
1.53105e-06
1.52989e-06
1.5315e-06
1.53175e-06
1.53055e-06
1.52815e-06
1.53113e-06
1.53148e-06
1.50832e-06
1.50835e-06
1.50802e-06
1.50553e-06
1.50543e-06
1.50518e-06
1.50567e-06
1.50899e-06
1.50869e-06
1.50804e-06
1.50403e-06
1.50076e-06
1.50076e-06
1.50076e-06
1.50076e-06
1.50699e-06
1.50666e-06
1.50551e-06
1.50076e-06
1.50076e-06
1.50076e-06
1.50076e-06
1.50076e-06
1.50076e-06
1.50862e-06
1.50956e-06
1.50834e-06
1.50544e-06
1.50076e-06
1.50076e-06
1.50076e-06
1.50076e-06
1.50076e-06
1.50076e-06
1.50882e-06
1.50835e-06
1.50835e-06
1.50518e-06
1.50076e-06
1.50076e-06
1.50076e-06
1.50076e-06
1.50076e-06
1.50076e-06
1.50851e-06
1.50595e-06
1.50568e-06
1.50076e-06
1.50076e-06
1.50076e-06
1.50076e-06
1.50076e-06
1.50076e-06
1.50884e-06
1.50893e-06
1.509e-06
1.50698e-06
1.50076e-06
1.50076e-06
1.50076e-06
1.50076e-06
1.50913e-06
1.50772e-06
1.50929e-06
1.50867e-06
1.50666e-06
1.50862e-06
1.50883e-06
1.50851e-06
1.50886e-06
1.50771e-06
1.50931e-06
1.50956e-06
1.50836e-06
1.50596e-06
1.50894e-06
1.50929e-06
1.48613e-06
1.48616e-06
1.48583e-06
1.48333e-06
1.48324e-06
1.48299e-06
1.48349e-06
1.4868e-06
1.4865e-06
1.48585e-06
1.48184e-06
1.47857e-06
1.47857e-06
1.47857e-06
1.47857e-06
1.4848e-06
1.48448e-06
1.48332e-06
1.47857e-06
1.47857e-06
1.47857e-06
1.47857e-06
1.47857e-06
1.47857e-06
1.48643e-06
1.48738e-06
1.48616e-06
1.48325e-06
1.47857e-06
1.47857e-06
1.47857e-06
1.47857e-06
1.47857e-06
1.47857e-06
1.48664e-06
1.48616e-06
1.48616e-06
1.48299e-06
1.47857e-06
1.47857e-06
1.47857e-06
1.47857e-06
1.47857e-06
1.47857e-06
1.48632e-06
1.48376e-06
1.48349e-06
1.47857e-06
1.47857e-06
1.47857e-06
1.47857e-06
1.47857e-06
1.47857e-06
1.48665e-06
1.48675e-06
1.48681e-06
1.4848e-06
1.47857e-06
1.47857e-06
1.47857e-06
1.47857e-06
1.48695e-06
1.48553e-06
1.4871e-06
1.48648e-06
1.48447e-06
1.48644e-06
1.48665e-06
1.48633e-06
1.48667e-06
1.48552e-06
1.48713e-06
1.48738e-06
1.48617e-06
1.48377e-06
1.48675e-06
1.4871e-06
1.46394e-06
1.46397e-06
1.46364e-06
1.46115e-06
1.46106e-06
1.4608e-06
1.4613e-06
1.46461e-06
1.46431e-06
1.46369e-06
1.45966e-06
1.45639e-06
1.45639e-06
1.45639e-06
1.45639e-06
1.46261e-06
1.46229e-06
1.46114e-06
1.45639e-06
1.45639e-06
1.45639e-06
1.45639e-06
1.45639e-06
1.45639e-06
1.46424e-06
1.46519e-06
1.46397e-06
1.46107e-06
1.45639e-06
1.45639e-06
1.45639e-06
1.45639e-06
1.45639e-06
1.45639e-06
1.46445e-06
1.46398e-06
1.46397e-06
1.46081e-06
1.45639e-06
1.45639e-06
1.45639e-06
1.45639e-06
1.45639e-06
1.45639e-06
1.46413e-06
1.46157e-06
1.4613e-06
1.45639e-06
1.45639e-06
1.45639e-06
1.45639e-06
1.45639e-06
1.45639e-06
1.46446e-06
1.46456e-06
1.46462e-06
1.46261e-06
1.45639e-06
1.45639e-06
1.45639e-06
1.45639e-06
1.46476e-06
1.46334e-06
1.46492e-06
1.4643e-06
1.46228e-06
1.46425e-06
1.46446e-06
1.46414e-06
1.46449e-06
1.46333e-06
1.46494e-06
1.46519e-06
1.46398e-06
1.46158e-06
1.46456e-06
1.46491e-06
1.44175e-06
1.44178e-06
1.44145e-06
1.43896e-06
1.43887e-06
1.43861e-06
1.43911e-06
1.44242e-06
1.44213e-06
1.44148e-06
1.43747e-06
1.4342e-06
1.4342e-06
1.4342e-06
1.4342e-06
1.44042e-06
1.4401e-06
1.43895e-06
1.4342e-06
1.4342e-06
1.4342e-06
1.4342e-06
1.4342e-06
1.4342e-06
1.44205e-06
1.443e-06
1.44178e-06
1.43888e-06
1.4342e-06
1.4342e-06
1.4342e-06
1.4342e-06
1.4342e-06
1.4342e-06
1.44226e-06
1.44179e-06
1.44178e-06
1.43862e-06
1.4342e-06
1.4342e-06
1.4342e-06
1.4342e-06
1.4342e-06
1.4342e-06
1.44195e-06
1.43938e-06
1.43911e-06
1.4342e-06
1.4342e-06
1.4342e-06
1.4342e-06
1.4342e-06
1.4342e-06
1.44228e-06
1.44237e-06
1.44244e-06
1.44042e-06
1.4342e-06
1.4342e-06
1.4342e-06
1.4342e-06
1.44257e-06
1.44115e-06
1.44273e-06
1.44211e-06
1.44009e-06
1.44206e-06
1.44227e-06