/*--------------------------------*- C++ -*----------------------------------*\
| =========                 |                                                 |
| \\      /  F ield         | OpenFOAM: The Open Source CFD Toolbox           |
|  \\    /   O peration     | Version:  v2012                                 |
|   \\  /    A nd           | Website:  www.openfoam.com                      |
|    \\/     M anipulation  |                                                 |
\*---------------------------------------------------------------------------*/
FoamFile
{
    version     2.0;
    format      ascii;
    class       volScalarField;
    location    "250";
    object      k;
}
// * * * * * * * * * * * * * * * * * * * * * * * * * * * * * * * * * * * * * //

dimensions      [0 2 -2 0 0 0 0];


internalField   nonuniform List<scalar> 
171728
(
3.58932e-05
3.58912e-05
3.58912e-05
3.59957e-05
3.39296e-05
3.3889e-05
3.3889e-05
3.39622e-05
3.21578e-05
3.20081e-05
3.20081e-05
3.19522e-05
3.05346e-05
3.02293e-05
3.02292e-05
2.99884e-05
2.90329e-05
2.8554e-05
2.85539e-05
2.81226e-05
2.76353e-05
2.69872e-05
2.69871e-05
2.63907e-05
2.63308e-05
2.5531e-05
2.55309e-05
2.48073e-05
2.51112e-05
2.4185e-05
2.41848e-05
2.33782e-05
2.39709e-05
2.29506e-05
2.29504e-05
2.21046e-05
2.29058e-05
2.18269e-05
2.18267e-05
2.09861e-05
2.1912e-05
2.08114e-05
2.08112e-05
2.00134e-05
2.09865e-05
1.99014e-05
1.99012e-05
1.91817e-05
2.01241e-05
1.90947e-05
1.90948e-05
1.84881e-05
1.93239e-05
1.83885e-05
1.83886e-05
1.7933e-05
1.85848e-05
1.77794e-05
1.77794e-05
1.75055e-05
1.79042e-05
1.72655e-05
1.72656e-05
1.72029e-05
1.72798e-05
1.68464e-05
1.68461e-05
1.70244e-05
1.67097e-05
1.65209e-05
1.65212e-05
1.69807e-05
1.61923e-05
1.62894e-05
1.62897e-05
1.70773e-05
1.57254e-05
1.61515e-05
1.61521e-05
1.73011e-05
1.53073e-05
1.61072e-05
1.61076e-05
1.76539e-05
1.49374e-05
1.61534e-05
1.61535e-05
1.81334e-05
1.46145e-05
1.62918e-05
1.62922e-05
1.87286e-05
1.43382e-05
1.65201e-05
1.65208e-05
1.94289e-05
1.4108e-05
1.68356e-05
1.68365e-05
2.02214e-05
1.39235e-05
1.72351e-05
1.72363e-05
2.1094e-05
1.37844e-05
1.77153e-05
1.77167e-05
2.20348e-05
1.36906e-05
1.82725e-05
1.82737e-05
2.30304e-05
1.36422e-05
1.89015e-05
1.89029e-05
2.4065e-05
1.36391e-05
1.95975e-05
1.95995e-05
2.51255e-05
1.36814e-05
2.03557e-05
2.03573e-05
2.6202e-05
1.37697e-05
2.11684e-05
2.11706e-05
2.72816e-05
1.39043e-05
2.20319e-05
2.20339e-05
2.8362e-05
1.40851e-05
2.29389e-05
2.29406e-05
2.94294e-05
1.43145e-05
2.38822e-05
2.38853e-05
3.04832e-05
1.45903e-05
2.48584e-05
2.486e-05
3.15219e-05
1.49098e-05
2.58554e-05
2.58578e-05
3.25371e-05
1.52756e-05
2.6871e-05
2.68737e-05
3.35327e-05
1.56882e-05
2.78986e-05
2.79017e-05
3.45039e-05
1.61469e-05
2.89334e-05
2.89348e-05
3.54506e-05
1.66477e-05
2.99684e-05
2.99721e-05
3.63735e-05
1.71897e-05
3.09987e-05
3.1001e-05
3.72695e-05
1.77751e-05
3.20282e-05
3.2031e-05
3.81436e-05
1.83893e-05
3.30286e-05
3.30314e-05
3.89838e-05
1.90565e-05
3.40438e-05
3.40467e-05
3.98212e-05
1.97354e-05
3.50049e-05
3.5008e-05
4.05985e-05
2.04632e-05
3.59777e-05
3.5979e-05
4.13933e-05
2.12e-05
3.68933e-05
3.68988e-05
4.21196e-05
2.19891e-05
3.78713e-05
3.78686e-05
4.29078e-05
2.27299e-05
3.86129e-05
3.86174e-05
4.345e-05
2.36329e-05
3.97897e-05
3.97937e-05
4.44885e-05
2.42761e-05
4.01397e-05
4.01413e-05
4.44799e-05
2.54336e-05
4.18324e-05
4.18446e-05
4.64982e-05
2.60121e-05
4.15708e-05
4.15739e-05
4.48541e-05
2.72874e-05
4.42219e-05
4.41953e-05
4.84722e-05
3.04065e-05
4.78922e-05
4.79054e-05
5.35666e-05
2.89427e-05
4.3063e-05
4.30691e-05
4.61073e-05
2.61357e-05
3.92774e-05
3.9272e-05
4.12677e-05
2.67058e-05
4.13424e-05
4.13435e-05
4.41874e-05
3.31977e-05
4.74532e-05
4.74568e-05
5.01657e-05
3.80167e-05
5.1421e-05
5.1419e-05
5.41686e-05
4.0343e-05
5.30472e-05
5.30466e-05
5.5752e-05
4.09309e-05
5.32735e-05
5.32749e-05
5.59098e-05
4.09186e-05
5.31427e-05
5.31449e-05
5.57288e-05
4.08195e-05
5.30704e-05
5.30718e-05
5.56419e-05
4.08239e-05
5.30988e-05
5.30996e-05
5.56803e-05
4.08756e-05
5.31411e-05
5.31417e-05
5.57205e-05
4.09015e-05
5.31566e-05
5.31572e-05
5.57401e-05
4.09052e-05
5.31568e-05
5.31578e-05
5.57322e-05
4.09057e-05
5.31593e-05
5.31597e-05
5.57456e-05
4.09055e-05
5.31578e-05
5.31584e-05
5.5731e-05
4.09051e-05
5.31569e-05
5.31579e-05
5.57338e-05
4.09048e-05
5.31565e-05
5.31566e-05
5.57442e-05
4.09045e-05
5.31558e-05
5.31557e-05
5.57274e-05
4.09064e-05
5.3159e-05
5.31601e-05
5.57418e-05
4.09099e-05
5.31641e-05
5.31656e-05
5.57488e-05
4.09094e-05
5.31604e-05
5.31614e-05
5.57337e-05
4.09039e-05
5.31545e-05
5.31558e-05
5.57421e-05
4.09019e-05
5.31545e-05
5.31544e-05
5.57325e-05
4.09035e-05
5.31555e-05
5.31569e-05
5.57278e-05
4.09044e-05
5.31567e-05
5.3157e-05
5.57317e-05
4.09047e-05
5.3156e-05
5.31574e-05
5.57425e-05
4.09055e-05
5.3158e-05
5.31579e-05
5.57403e-05
4.09061e-05
5.31566e-05
5.31576e-05
5.57273e-05
4.09073e-05
5.31599e-05
5.31606e-05
5.57441e-05
4.09084e-05
5.31607e-05
5.31617e-05
5.57408e-05
4.09079e-05
5.31591e-05
5.31598e-05
5.57332e-05
4.09071e-05
5.31583e-05
5.31591e-05
5.57443e-05
4.09064e-05
5.31581e-05
5.31588e-05
5.5739e-05
4.09062e-05
5.31577e-05
5.31584e-05
5.57296e-05
4.09065e-05
5.31588e-05
5.31595e-05
5.57439e-05
4.0907e-05
5.31598e-05
5.31603e-05
5.57376e-05
4.09071e-05
5.31611e-05
5.31616e-05
5.57321e-05
4.08955e-05
5.31418e-05
5.31422e-05
5.57286e-05
4.04333e-05
5.19222e-05
5.19212e-05
5.53334e-05
3.63068e-05
3.6291e-05
3.6291e-05
3.63068e-05
3.6291e-05
3.6291e-05
3.6423e-05
3.6423e-05
3.6423e-05
3.6423e-05
3.6291e-05
3.6291e-05
3.63068e-05
3.6291e-05
3.6291e-05
3.63068e-05
3.59957e-05
3.42687e-05
3.58912e-05
3.58912e-05
3.43767e-05
3.43766e-05
3.59957e-05
3.42687e-05
3.58911e-05
3.58912e-05
3.43767e-05
3.43766e-05
3.58912e-05
3.43767e-05
3.43767e-05
3.59957e-05
3.42687e-05
3.58912e-05
3.43767e-05
3.43767e-05
3.42687e-05
3.39623e-05
3.22635e-05
3.38889e-05
3.38889e-05
3.24684e-05
3.24683e-05
3.39623e-05
3.22635e-05
3.38889e-05
3.38889e-05
3.24684e-05
3.24683e-05
3.38889e-05
3.24685e-05
3.24684e-05
3.39623e-05
3.22634e-05
3.38889e-05
3.24685e-05
3.24684e-05
3.22634e-05
3.19522e-05
3.02993e-05
3.20079e-05
3.20078e-05
3.06643e-05
3.06642e-05
3.19522e-05
3.02994e-05
3.2008e-05
3.20078e-05
3.06644e-05
3.06641e-05
3.20079e-05
3.06646e-05
3.06643e-05
3.19522e-05
3.02992e-05
3.2008e-05
3.06645e-05
3.06644e-05
3.02992e-05
2.99885e-05
2.84253e-05
3.0229e-05
3.02288e-05
2.89624e-05
2.89622e-05
2.99886e-05
2.84255e-05
3.02291e-05
3.02287e-05
2.89626e-05
2.89621e-05
3.02289e-05
2.89628e-05
2.89623e-05
2.99884e-05
2.84252e-05
3.02291e-05
2.89627e-05
2.89626e-05
2.84252e-05
2.81227e-05
2.6674e-05
2.85536e-05
2.85534e-05
2.7368e-05
2.73678e-05
2.81228e-05
2.66742e-05
2.85538e-05
2.85533e-05
2.73683e-05
2.73676e-05
2.85535e-05
2.73685e-05
2.73679e-05
2.81226e-05
2.66739e-05
2.85538e-05
2.73684e-05
2.73683e-05
2.66738e-05
2.63908e-05
2.50663e-05
2.69866e-05
2.69864e-05
2.58841e-05
2.58838e-05
2.63909e-05
2.50665e-05
2.6987e-05
2.69862e-05
2.58845e-05
2.58836e-05
2.69865e-05
2.58848e-05
2.5884e-05
2.63907e-05
2.50661e-05
2.69869e-05
2.58846e-05
2.58844e-05
2.50661e-05
2.48075e-05
2.36125e-05
2.55304e-05
2.55301e-05
2.45103e-05
2.45099e-05
2.48077e-05
2.36127e-05
2.55308e-05
2.55299e-05
2.45107e-05
2.45097e-05
2.55302e-05
2.45111e-05
2.45102e-05
2.48074e-05
2.36123e-05
2.55307e-05
2.45108e-05
2.45107e-05
2.36123e-05
2.33784e-05
2.23125e-05
2.41842e-05
2.41838e-05
2.32479e-05
2.32475e-05
2.33786e-05
2.23126e-05
2.41847e-05
2.41836e-05
2.32484e-05
2.32473e-05
2.41841e-05
2.32488e-05
2.32477e-05
2.33783e-05
2.23122e-05
2.41846e-05
2.32485e-05
2.32484e-05
2.23122e-05
2.2105e-05
2.11681e-05
2.29497e-05
2.29494e-05
2.20965e-05
2.20962e-05
2.21051e-05
2.11683e-05
2.29503e-05
2.29491e-05
2.20972e-05
2.2096e-05
2.29496e-05
2.20976e-05
2.20965e-05
2.21047e-05
2.1168e-05
2.29503e-05
2.20973e-05
2.20972e-05
2.11678e-05
2.09863e-05
2.01708e-05
2.18259e-05
2.18255e-05
2.10542e-05
2.10538e-05
2.09865e-05
2.0171e-05
2.18266e-05
2.18253e-05
2.10549e-05
2.10536e-05
2.18258e-05
2.10552e-05
2.10541e-05
2.09861e-05
2.01705e-05
2.18265e-05
2.1055e-05
2.10549e-05
2.01704e-05
2.00136e-05
1.93148e-05
2.08103e-05
2.081e-05
2.0118e-05
2.01177e-05
2.00136e-05
1.93147e-05
2.08111e-05
2.08097e-05
2.01188e-05
2.01174e-05
2.08103e-05
2.01191e-05
2.01179e-05
2.00135e-05
1.93145e-05
2.08111e-05
2.01189e-05
2.01188e-05
1.93145e-05
1.91825e-05
1.85906e-05
1.99003e-05
1.99e-05
1.92855e-05
1.92852e-05
1.91824e-05
1.85903e-05
1.99011e-05
1.98997e-05
1.92864e-05
1.92849e-05
1.99002e-05
1.92866e-05
1.92854e-05
1.91811e-05
1.85888e-05
1.99011e-05
1.92864e-05
1.92863e-05
1.85885e-05
1.84901e-05
1.79989e-05
1.90937e-05
1.90933e-05
1.85547e-05
1.85543e-05
1.84897e-05
1.79985e-05
1.90945e-05
1.90933e-05
1.85555e-05
1.85542e-05
1.90936e-05
1.85556e-05
1.85544e-05
1.84896e-05
1.79987e-05
1.90945e-05
1.85556e-05
1.85553e-05
1.79971e-05
1.79352e-05
1.75374e-05
1.83877e-05
1.83872e-05
1.79211e-05
1.79212e-05
1.79338e-05
1.754e-05
1.83886e-05
1.83872e-05
1.79219e-05
1.79208e-05
1.83874e-05
1.79225e-05
1.79212e-05
1.79352e-05
1.75375e-05
1.83883e-05
1.79221e-05
1.79221e-05
1.7538e-05
1.75051e-05
1.72188e-05
1.77783e-05
1.77782e-05
1.73841e-05
1.73835e-05
1.7507e-05
1.72168e-05
1.77791e-05
1.77781e-05
1.73848e-05
1.73838e-05
1.77783e-05
1.73845e-05
1.73843e-05
1.75058e-05
1.72197e-05
1.77791e-05
1.7385e-05
1.73851e-05
1.72208e-05
1.72009e-05
1.70264e-05
1.72647e-05
1.72645e-05
1.69411e-05
1.69409e-05
1.71998e-05
1.70264e-05
1.72654e-05
1.72645e-05
1.69418e-05
1.69404e-05
1.72647e-05
1.69418e-05
1.69411e-05
1.72021e-05
1.70254e-05
1.72655e-05
1.69414e-05
1.69418e-05
1.70285e-05
1.70233e-05
1.6972e-05
1.68458e-05
1.68455e-05
1.6592e-05
1.65918e-05
1.70227e-05
1.69721e-05
1.68465e-05
1.68451e-05
1.65927e-05
1.6592e-05
1.68455e-05
1.65924e-05
1.65918e-05
1.70212e-05
1.69742e-05
1.68463e-05
1.65928e-05
1.65925e-05
1.69724e-05
1.69814e-05
1.70436e-05
1.65204e-05
1.65202e-05
1.63369e-05
1.63366e-05
1.69807e-05
1.70431e-05
1.6521e-05
1.65205e-05
1.63375e-05
1.63363e-05
1.65204e-05
1.6337e-05
1.63364e-05
1.69819e-05
1.70419e-05
1.65211e-05
1.63369e-05
1.63371e-05
1.70428e-05
1.70791e-05
1.72441e-05
1.62891e-05
1.62889e-05
1.61754e-05
1.61751e-05
1.70779e-05
1.72433e-05
1.62897e-05
1.62891e-05
1.61759e-05
1.6175e-05
1.62892e-05
1.61753e-05
1.61748e-05
1.70767e-05
1.72423e-05
1.62899e-05
1.61754e-05
1.61754e-05
1.72417e-05
1.73042e-05
1.75727e-05
1.61514e-05
1.61514e-05
1.61072e-05
1.61072e-05
1.73027e-05
1.75724e-05
1.6152e-05
1.61518e-05
1.61077e-05
1.61074e-05
1.61516e-05
1.61071e-05
1.61069e-05
1.73016e-05
1.75715e-05
1.61522e-05
1.61074e-05
1.61074e-05
1.7571e-05
1.76575e-05
1.80251e-05
1.61072e-05
1.61073e-05
1.61328e-05
1.61334e-05
1.76562e-05
1.80258e-05
1.61078e-05
1.61076e-05
1.61333e-05
1.61333e-05
1.6107e-05
1.6133e-05
1.6133e-05
1.7655e-05
1.80259e-05
1.61076e-05
1.61331e-05
1.61335e-05
1.80267e-05
1.8134e-05
1.8597e-05
1.61534e-05
1.61538e-05
1.62489e-05
1.62494e-05
1.81343e-05
1.85965e-05
1.61539e-05
1.61536e-05
1.62493e-05
1.62496e-05
1.61534e-05
1.62487e-05
1.62491e-05
1.81321e-05
1.85992e-05
1.61539e-05
1.62492e-05
1.62495e-05
1.85988e-05
1.87286e-05
1.92755e-05
1.62921e-05
1.62925e-05
1.6455e-05
1.64556e-05
1.8728e-05
1.92748e-05
1.62926e-05
1.62926e-05
1.64553e-05
1.64562e-05
1.62919e-05
1.64547e-05
1.64554e-05
1.87289e-05
1.92775e-05
1.62924e-05
1.64555e-05
1.64558e-05
1.92768e-05
1.94276e-05
2.00493e-05
1.65205e-05
1.65211e-05
1.67491e-05
1.67497e-05
1.94272e-05
2.00481e-05
1.65209e-05
1.65214e-05
1.67493e-05
1.67505e-05
1.65207e-05
1.67485e-05
1.67497e-05
1.94292e-05
2.00505e-05
1.65211e-05
1.67495e-05
1.675e-05
2.00501e-05
2.02201e-05
2.0906e-05
1.68362e-05
1.68369e-05
1.71282e-05
1.71288e-05
2.02192e-05
2.0905e-05
1.68365e-05
1.68375e-05
1.71282e-05
1.71296e-05
1.68367e-05
1.71273e-05
1.71286e-05
2.02215e-05
2.09069e-05
1.68371e-05
1.71284e-05
1.71289e-05
2.09066e-05
2.10932e-05
2.18335e-05
1.7236e-05
1.72367e-05
1.75891e-05
1.75897e-05
2.10921e-05
2.18325e-05
1.72361e-05
1.72375e-05
1.75889e-05
1.75905e-05
1.72367e-05
1.75879e-05
1.75895e-05
2.10944e-05
2.18342e-05
1.72369e-05
1.7589e-05
1.75896e-05
2.18342e-05
2.20344e-05
2.28167e-05
1.77166e-05
1.77172e-05
1.81278e-05
1.81285e-05
2.20333e-05
2.28158e-05
1.77164e-05
1.77182e-05
1.81273e-05
1.81291e-05
1.77171e-05
1.81264e-05
1.81283e-05
2.20352e-05
2.28178e-05
1.77172e-05
1.81274e-05
1.81282e-05
2.28184e-05
2.30294e-05
2.38413e-05
1.8274e-05
1.82747e-05
1.87393e-05
1.87399e-05
2.30285e-05
2.38401e-05
1.82736e-05
1.82754e-05
1.87386e-05
1.87411e-05
1.82745e-05
1.87376e-05
1.87402e-05
2.30299e-05
2.38435e-05
1.82743e-05
1.87391e-05
1.87398e-05
2.38436e-05
2.4063e-05
2.48962e-05
1.89033e-05
1.89039e-05
1.94196e-05
1.94203e-05
2.40618e-05
2.4895e-05
1.89026e-05
1.89048e-05
1.94185e-05
1.94215e-05
1.89041e-05
1.94176e-05
1.94205e-05
2.40647e-05
2.48978e-05
1.89036e-05
1.94193e-05
1.94198e-05
2.48977e-05
2.51238e-05
2.59678e-05
1.95996e-05
1.96001e-05
2.01626e-05
2.01635e-05
2.51228e-05
2.59665e-05
1.95987e-05
1.96016e-05
2.01613e-05
2.01642e-05
1.96005e-05
2.01607e-05
2.01639e-05
2.51259e-05
2.59685e-05
1.95998e-05
2.01619e-05
2.01629e-05
2.59698e-05
2.62001e-05
2.70463e-05
2.03577e-05
2.03584e-05
2.09632e-05
2.09632e-05
2.61991e-05
2.70439e-05
2.03565e-05
2.03596e-05
2.09615e-05
2.09647e-05
2.03589e-05
2.09601e-05
2.09638e-05
2.62008e-05
2.70479e-05
2.03579e-05
2.09623e-05
2.09625e-05
2.70475e-05
2.72803e-05
2.81246e-05
2.1171e-05
2.11715e-05
2.18154e-05
2.1816e-05
2.72783e-05
2.8124e-05
2.11695e-05
2.11729e-05
2.18134e-05
2.18168e-05
2.11722e-05
2.1813e-05
2.1817e-05
2.72816e-05
2.81261e-05
2.11709e-05
2.18143e-05
2.18154e-05
2.81276e-05
2.83603e-05
2.91923e-05
2.20354e-05
2.2035e-05
2.27114e-05
2.27119e-05
2.83585e-05
2.9191e-05
2.20335e-05
2.20364e-05
2.27092e-05
2.27138e-05
2.20361e-05
2.27088e-05
2.27129e-05
2.83609e-05
2.9195e-05
2.20344e-05
2.2711e-05
2.27111e-05
2.91944e-05
2.94259e-05
3.02507e-05
2.29409e-05
2.29421e-05
2.36466e-05
2.36463e-05
2.94263e-05
3.0248e-05
2.29388e-05
2.29432e-05
2.3644e-05
2.36479e-05
2.29432e-05
2.36431e-05
2.36478e-05
2.94291e-05
3.02512e-05
2.29414e-05
2.36453e-05
2.36458e-05
3.02522e-05
3.0483e-05
3.12899e-05
2.3886e-05
2.38854e-05
2.46128e-05
2.46131e-05
3.04795e-05
3.1289e-05
2.38836e-05
2.38878e-05
2.46101e-05
2.46141e-05
2.3887e-05
2.46099e-05
2.46147e-05
3.04837e-05
3.12915e-05
2.38848e-05
2.46115e-05
2.46122e-05
3.12926e-05
3.1519e-05
3.23095e-05
2.48614e-05
2.48616e-05
2.56049e-05
2.56049e-05
3.15186e-05
3.23077e-05
2.48587e-05
2.48624e-05
2.56022e-05
2.56069e-05
2.48633e-05
2.56019e-05
2.56071e-05
3.15196e-05
3.23115e-05
2.4861e-05
2.56042e-05
2.56046e-05
3.23119e-05
3.25351e-05
3.33097e-05
2.58584e-05
2.58584e-05
2.66188e-05
2.66183e-05
3.25333e-05
3.33078e-05
2.58558e-05
2.58605e-05
2.66158e-05
2.66204e-05
2.58607e-05
2.66152e-05
2.66206e-05
3.25374e-05
3.33108e-05
2.58578e-05
2.66181e-05
2.66182e-05
3.33117e-05
3.3531e-05
3.42846e-05
2.68744e-05
2.6874e-05
2.76449e-05
2.76451e-05
3.35292e-05
3.42836e-05
2.68715e-05
2.68759e-05
2.7642e-05
2.76462e-05
2.68763e-05
2.76424e-05
2.76475e-05
3.35317e-05
3.4286e-05
2.68739e-05
2.7644e-05
2.76443e-05
3.42871e-05
3.45017e-05
3.52368e-05
2.79019e-05
2.79017e-05
2.86759e-05
2.86755e-05
3.45005e-05
3.52348e-05
2.78995e-05
2.79035e-05
2.86727e-05
2.86774e-05
2.79043e-05
2.86727e-05
2.86786e-05
3.45029e-05
3.52381e-05
2.79019e-05
2.86753e-05
2.86758e-05
3.52394e-05
3.54479e-05
3.61652e-05
2.89357e-05
2.89361e-05
2.97111e-05
2.97105e-05
3.5447e-05
3.61629e-05
2.89325e-05
2.89371e-05
2.97084e-05
2.97128e-05
2.89387e-05
2.9708e-05
2.97139e-05
3.54492e-05
3.61664e-05
2.89352e-05
2.9711e-05
2.97109e-05
3.61671e-05
3.63722e-05
3.70671e-05
2.99723e-05
2.9971e-05
3.07461e-05
3.07466e-05
3.63689e-05
3.70667e-05
2.99701e-05
2.99736e-05
3.07436e-05
3.07474e-05
2.99747e-05
3.07438e-05
3.07491e-05
3.63727e-05
3.70679e-05
2.99722e-05
3.07463e-05
3.07466e-05
3.70693e-05
3.72668e-05
3.79443e-05
3.10005e-05
3.10012e-05
3.17694e-05
3.17688e-05
3.72672e-05
3.79418e-05
3.0998e-05
3.10024e-05
3.17666e-05
3.1771e-05
3.10039e-05
3.17666e-05
3.17727e-05
3.72683e-05
3.79452e-05
3.10012e-05
3.17695e-05
3.17699e-05
3.79469e-05
3.81416e-05
3.87952e-05
3.20311e-05
3.20305e-05
3.27853e-05
3.27855e-05
3.81391e-05
3.87936e-05
3.20286e-05
3.20323e-05
3.27833e-05
3.27866e-05
3.20342e-05
3.27833e-05
3.27888e-05
3.81419e-05
3.87957e-05
3.20313e-05
3.27858e-05
3.27859e-05
3.87969e-05
3.8982e-05
3.96336e-05
3.30309e-05
3.30306e-05
3.37953e-05
3.37951e-05
3.89804e-05
3.96323e-05
3.30289e-05
3.30326e-05
3.37931e-05
3.37969e-05
3.30341e-05
3.3793e-05
3.37984e-05
3.89827e-05
3.96346e-05
3.30314e-05
3.37961e-05
3.37962e-05
3.96361e-05
3.98186e-05
4.04136e-05
3.40451e-05
3.40461e-05
3.47557e-05
3.47548e-05
3.98176e-05
4.04109e-05
3.40437e-05
3.40465e-05
3.47531e-05
3.47565e-05
3.40496e-05
3.4753e-05
3.47586e-05
3.98194e-05
4.0413e-05
3.40474e-05
3.47556e-05
3.47559e-05
4.04148e-05
4.0598e-05
4.12295e-05
3.50096e-05
3.50068e-05
3.57527e-05
3.57555e-05
4.0595e-05
4.12303e-05
3.50061e-05
3.50105e-05
3.57522e-05
3.57541e-05
3.50101e-05
3.57536e-05
3.57587e-05
4.05975e-05
4.12315e-05
3.50075e-05
3.57559e-05
3.5757e-05
4.12339e-05
4.13871e-05
4.19288e-05
3.5974e-05
3.5979e-05
3.66497e-05
3.66451e-05
4.13895e-05
4.19223e-05
3.59745e-05
3.5976e-05
3.66457e-05
3.66503e-05
3.59827e-05
3.66427e-05
3.66491e-05
4.13894e-05
4.19268e-05
3.59807e-05
3.66474e-05
3.66464e-05
4.19264e-05
4.21249e-05
4.2775e-05
3.69035e-05
3.6897e-05
3.76478e-05
3.76494e-05
4.21159e-05
4.27803e-05
3.6899e-05
3.69012e-05
3.7646e-05
3.7651e-05
3.69001e-05
3.7652e-05
3.76519e-05
4.21213e-05
4.27794e-05
3.68985e-05
3.76496e-05
3.76489e-05
4.27816e-05
4.28981e-05
4.32475e-05
3.78624e-05
3.78675e-05
3.8403e-05
3.84085e-05
4.29067e-05
4.32418e-05
3.78623e-05
3.78693e-05
3.84053e-05
3.84008e-05
3.78709e-05
3.84004e-05
3.84139e-05
4.29053e-05
4.32436e-05
3.78668e-05
3.84098e-05
3.84163e-05
4.32518e-05
4.34532e-05
4.43698e-05
3.86231e-05
3.86171e-05
3.95264e-05
3.95156e-05
4.34399e-05
4.43682e-05
3.86185e-05
3.86165e-05
3.952e-05
3.953e-05
3.86203e-05
3.95176e-05
3.95167e-05
4.3443e-05
4.43735e-05
3.86214e-05
3.95181e-05
3.95095e-05
4.43668e-05
4.44821e-05
4.44113e-05
3.97897e-05
3.97925e-05
4.0049e-05
4.00688e-05
4.44861e-05
4.44219e-05
3.97902e-05
3.97944e-05
4.00561e-05
4.00494e-05
3.9796e-05
4.00615e-05
4.00754e-05
4.44887e-05
4.44121e-05
3.97915e-05
4.00665e-05
4.0078e-05
4.44317e-05
4.44663e-05
4.62794e-05
4.01299e-05
4.01428e-05
4.14914e-05
4.14746e-05
4.4474e-05
4.62681e-05
4.01333e-05
4.01291e-05
4.14868e-05
4.14979e-05
4.01475e-05
4.14808e-05
4.14753e-05
4.44637e-05
4.62855e-05
4.01497e-05
4.14849e-05
4.14727e-05
4.62708e-05
4.64922e-05
4.505e-05
4.18389e-05
4.18376e-05
4.17194e-05
4.17313e-05
4.64856e-05
4.50566e-05
4.18411e-05
4.1844e-05
4.17225e-05
4.17171e-05
4.18437e-05
4.17196e-05
4.17395e-05
4.65008e-05
4.50505e-05
4.1843e-05
4.17295e-05
4.17398e-05
4.50755e-05
4.48369e-05
4.68816e-05
4.15693e-05
4.15778e-05
4.23244e-05
4.23185e-05
4.48429e-05
4.68822e-05
4.15687e-05
4.15653e-05
4.23146e-05
4.23215e-05
4.15827e-05
4.23293e-05
4.23121e-05
4.48345e-05
4.68732e-05
4.15818e-05
4.23127e-05
4.23076e-05
4.6841e-05
4.85038e-05
5.35168e-05
4.42154e-05
4.42006e-05
4.78477e-05
4.78457e-05
4.85055e-05
5.35079e-05
4.42011e-05
4.42145e-05
4.78484e-05
4.78471e-05
4.41882e-05
4.78401e-05
4.78542e-05
4.84983e-05
5.35175e-05
4.4182e-05
4.78515e-05
4.7854e-05
5.35302e-05
5.35536e-05
4.72458e-05
4.79013e-05
4.7899e-05
4.49999e-05
4.49943e-05
5.35439e-05
4.72389e-05
4.79024e-05
4.79008e-05
4.50012e-05
4.50024e-05
4.79082e-05
4.49905e-05
4.50013e-05
5.35541e-05
4.72497e-05
4.79079e-05
4.50035e-05
4.49998e-05
4.72453e-05
4.61054e-05
4.13845e-05
4.30641e-05
4.30623e-05
3.95864e-05
3.9593e-05
4.61028e-05
4.13969e-05
4.30651e-05
4.30675e-05
3.95886e-05
3.959e-05
4.30664e-05
3.95985e-05
3.95934e-05
4.61099e-05
4.13886e-05
4.30658e-05
3.95936e-05
3.95961e-05
4.13923e-05
4.12593e-05
4.31699e-05
3.92642e-05
3.92716e-05
3.98295e-05
3.98361e-05
4.12719e-05
4.31723e-05
3.92668e-05
3.92675e-05
3.98323e-05
3.98317e-05
3.9272e-05
3.98395e-05
3.98374e-05
4.1263e-05
4.317e-05
3.92752e-05
3.98368e-05
3.98406e-05
4.31742e-05
4.41849e-05
4.92841e-05
4.13384e-05
4.13425e-05
4.61078e-05
4.61053e-05
4.41844e-05
4.92783e-05
4.13408e-05
4.13392e-05
4.61059e-05
4.61057e-05
4.13447e-05
4.61022e-05
4.61074e-05
4.41843e-05
4.92823e-05
4.13469e-05
4.61068e-05
4.61045e-05
4.92823e-05
5.01689e-05
5.36644e-05
4.74597e-05
4.74565e-05
5.06622e-05
5.06594e-05
5.01641e-05
5.36636e-05
4.74568e-05
4.74575e-05
5.06579e-05
5.06611e-05
4.74582e-05
5.066e-05
5.06604e-05
5.01672e-05
5.36637e-05
4.74548e-05
5.06588e-05
5.0658e-05
5.3663e-05
5.41702e-05
5.55991e-05
5.14219e-05
5.14197e-05
5.28218e-05
5.28217e-05
5.41702e-05
5.56006e-05
5.1418e-05
5.14213e-05
5.28201e-05
5.28227e-05
5.1421e-05
5.28245e-05
5.28244e-05
5.41696e-05
5.56003e-05
5.14193e-05
5.28231e-05
5.28244e-05
5.56019e-05
5.57484e-05
5.58947e-05
5.3044e-05
5.30446e-05
5.32684e-05
5.327e-05
5.57502e-05
5.58962e-05
5.30432e-05
5.30453e-05
5.32693e-05
5.32698e-05
5.30477e-05
5.32718e-05
5.32735e-05
5.575e-05
5.58966e-05
5.30481e-05
5.3273e-05
5.32743e-05
5.58995e-05
5.5905e-05
5.57216e-05
5.32702e-05
5.32718e-05
5.31841e-05
5.31848e-05
5.59064e-05
5.57204e-05
5.32712e-05
5.32715e-05
5.31855e-05
5.31838e-05
5.32753e-05
5.31857e-05
5.31881e-05
5.59067e-05
5.57208e-05
5.32761e-05
5.31881e-05
5.31889e-05
5.57236e-05
5.5727e-05
5.56262e-05
5.31414e-05
5.31416e-05
5.30736e-05
5.30735e-05
5.57256e-05
5.56246e-05
5.31426e-05
5.31408e-05
5.30742e-05
5.30732e-05
5.31448e-05
5.3075e-05
5.30763e-05
5.5726e-05
5.56251e-05
5.31456e-05
5.30766e-05
5.3077e-05
5.56271e-05
5.56408e-05
5.56498e-05
5.30687e-05
5.30688e-05
5.308e-05
5.30811e-05
5.56393e-05
5.56516e-05
5.30692e-05
5.30686e-05
5.30802e-05
5.30811e-05
5.30715e-05
5.30832e-05
5.30835e-05
5.56398e-05
5.56518e-05
5.30722e-05
5.30841e-05
5.30842e-05
5.56531e-05
5.56768e-05
5.56946e-05
5.30951e-05
5.30965e-05
5.31293e-05
5.31311e-05
5.56789e-05
5.56967e-05
5.30953e-05
5.30964e-05
5.31295e-05
5.31305e-05
5.3099e-05
5.31331e-05
5.31335e-05
5.5679e-05
5.56963e-05
5.30997e-05
5.31338e-05
5.31342e-05
5.56982e-05
5.57171e-05
5.57186e-05
5.31375e-05
5.31391e-05
5.31528e-05
5.31533e-05
5.57189e-05
5.5719e-05
5.31377e-05
5.31384e-05
5.3153e-05
5.31525e-05
5.31416e-05
5.3155e-05
5.31559e-05
5.57185e-05
5.57185e-05
5.31422e-05
5.31556e-05
5.31564e-05
5.57208e-05
5.57381e-05
5.57145e-05
5.31547e-05
5.31549e-05
5.31552e-05
5.31553e-05
5.57383e-05
5.57131e-05
5.31549e-05
5.31542e-05
5.31555e-05
5.31549e-05
5.31576e-05
5.3157e-05
5.31582e-05
5.57377e-05
5.57135e-05
5.31581e-05
5.31579e-05
5.31587e-05
5.57158e-05
5.57306e-05
5.57212e-05
5.31546e-05
5.31551e-05
5.31553e-05
5.31568e-05
5.57294e-05
5.57234e-05
5.31549e-05
5.31547e-05
5.31555e-05
5.3156e-05
5.3158e-05
5.31585e-05
5.31594e-05
5.57299e-05
5.57233e-05
5.31586e-05
5.31591e-05
5.316e-05
5.57252e-05
5.57417e-05
5.57098e-05
5.3156e-05
5.31575e-05
5.31556e-05
5.31565e-05
5.57437e-05
5.57108e-05
5.31562e-05
5.31566e-05
5.31558e-05
5.31557e-05
5.31601e-05
5.31583e-05
5.3159e-05
5.57434e-05
5.571e-05
5.31607e-05
5.31586e-05
5.31595e-05
5.57124e-05
5.57299e-05
5.57145e-05
5.31554e-05
5.3156e-05
5.31544e-05
5.31552e-05
5.57296e-05
5.57158e-05
5.31556e-05
5.31554e-05
5.31548e-05
5.31551e-05
5.31586e-05
5.31569e-05
5.3158e-05
5.57292e-05
5.57175e-05
5.31592e-05
5.31581e-05
5.31586e-05
5.57197e-05
5.57292e-05
5.57231e-05
5.31544e-05
5.31551e-05
5.31549e-05
5.31553e-05
5.57303e-05
5.57236e-05
5.31547e-05
5.31549e-05
5.31551e-05
5.31546e-05
5.31578e-05
5.3157e-05
5.31578e-05
5.57318e-05
5.57233e-05
5.31584e-05
5.31576e-05
5.31583e-05
5.57247e-05
5.57426e-05
5.57054e-05
5.31547e-05
5.31548e-05
5.31528e-05
5.31534e-05
5.57424e-05
5.5706e-05
5.31549e-05
5.31535e-05
5.31529e-05
5.3152e-05
5.31575e-05
5.31554e-05
5.31562e-05
5.57417e-05
5.57045e-05
5.31579e-05
5.31551e-05
5.31564e-05
5.57076e-05
5.57245e-05
5.57218e-05
5.3153e-05
5.31538e-05
5.31555e-05
5.31567e-05
5.57267e-05
5.57227e-05
5.31531e-05
5.31524e-05
5.31558e-05
5.31565e-05
5.31565e-05
5.31588e-05
5.31599e-05
5.57251e-05
5.57239e-05
5.31568e-05
5.31596e-05
5.31603e-05
5.5726e-05
5.57371e-05
5.57256e-05
5.31556e-05
5.31569e-05
5.31605e-05
5.31617e-05
5.57378e-05
5.57266e-05
5.3156e-05
5.31569e-05
5.3161e-05
5.31619e-05
5.31601e-05
5.31634e-05
5.31638e-05
5.57401e-05
5.57264e-05
5.31606e-05
5.31649e-05
5.31648e-05
5.57271e-05
5.57469e-05
5.57168e-05
5.31616e-05
5.31625e-05
5.31594e-05
5.31598e-05
5.57479e-05
5.57163e-05
5.3162e-05
5.31626e-05
5.31596e-05
5.31592e-05
5.31646e-05
5.3161e-05
5.31613e-05
5.57481e-05
5.57167e-05
5.31655e-05
5.31621e-05
5.31622e-05
5.57179e-05
5.57326e-05
5.57222e-05
5.31588e-05
5.31592e-05
5.31542e-05
5.31551e-05
5.57323e-05
5.57233e-05
5.3159e-05
5.31584e-05
5.31546e-05
5.31548e-05
5.31607e-05
5.31569e-05
5.31579e-05
5.57324e-05
5.5723e-05
5.31614e-05
5.31583e-05
5.31583e-05
5.5725e-05
5.57369e-05
5.57108e-05
5.31518e-05
5.31526e-05
5.31509e-05
5.31514e-05
5.57389e-05
5.5709e-05
5.31523e-05
5.31523e-05
5.31513e-05
5.31504e-05
5.31557e-05
5.31536e-05
5.31544e-05
5.57403e-05
5.57057e-05
5.31561e-05
5.31537e-05
5.31547e-05
5.571e-05
5.57331e-05
5.57065e-05
5.31516e-05
5.31522e-05
5.31517e-05
5.31525e-05
5.57317e-05
5.57083e-05
5.3152e-05
5.31512e-05
5.3152e-05
5.31525e-05
5.31551e-05
5.31547e-05
5.31552e-05
5.57273e-05
5.571e-05
5.31555e-05
5.31557e-05
5.31559e-05
5.57097e-05
5.57256e-05
5.57127e-05
5.31526e-05
5.31533e-05
5.31533e-05
5.31542e-05
5.57261e-05
5.57141e-05
5.3153e-05
5.31539e-05
5.31536e-05
5.3154e-05
5.31561e-05
5.31563e-05
5.31568e-05
5.57269e-05
5.57171e-05
5.31569e-05
5.3157e-05
5.31572e-05
5.57172e-05
5.57278e-05
5.57218e-05
5.31532e-05
5.31542e-05
5.31534e-05
5.31545e-05
5.57291e-05
5.57231e-05
5.31537e-05
5.31537e-05
5.31541e-05
5.31544e-05
5.31569e-05
5.31569e-05
5.31575e-05
5.57312e-05
5.57235e-05
5.31573e-05
5.31578e-05
5.3158e-05
5.5726e-05
5.57361e-05
5.57196e-05
5.31531e-05
5.3154e-05
5.31551e-05
5.31558e-05
5.57375e-05
5.57192e-05
5.31536e-05
5.31541e-05
5.31549e-05
5.31542e-05
5.31567e-05
5.31575e-05
5.31582e-05
5.5742e-05
5.57117e-05
5.31574e-05
5.31577e-05
5.31584e-05
5.57177e-05
5.57407e-05
5.57059e-05
5.31552e-05
5.31559e-05
5.31525e-05
5.31534e-05
5.57406e-05
5.57069e-05
5.31549e-05
5.31544e-05
5.3153e-05
5.3153e-05
5.31587e-05
5.3156e-05
5.31564e-05
5.57344e-05
5.57082e-05
5.31587e-05
5.31564e-05
5.31565e-05
5.57095e-05
5.57251e-05
5.57245e-05
5.31534e-05
5.31545e-05
5.31566e-05
5.31579e-05
5.57257e-05
5.57261e-05
5.31545e-05
5.31544e-05
5.31568e-05
5.31572e-05
5.31569e-05
5.31598e-05
5.31601e-05
5.57258e-05
5.57261e-05
5.31574e-05
5.31608e-05
5.31606e-05
5.57275e-05
5.57406e-05
5.57153e-05
5.31566e-05
5.31578e-05
5.31561e-05
5.31574e-05
5.57427e-05
5.57155e-05
5.31565e-05
5.3157e-05
5.31568e-05
5.31571e-05
5.31602e-05
5.31596e-05
5.31599e-05
5.57423e-05
5.57159e-05
5.31605e-05
5.31601e-05
5.31602e-05
5.57172e-05
5.57387e-05
5.57143e-05
5.31574e-05
5.31586e-05
5.31565e-05
5.31574e-05
5.57391e-05
5.57153e-05
5.31583e-05
5.31585e-05
5.31569e-05
5.3157e-05
5.31614e-05
5.31595e-05
5.31604e-05
5.57393e-05
5.57155e-05
5.31619e-05
5.31602e-05
5.31607e-05
5.57179e-05
5.57297e-05
5.5724e-05
5.31563e-05
5.31571e-05
5.31551e-05
5.3156e-05
5.57306e-05
5.57246e-05
5.31565e-05
5.31566e-05
5.31555e-05
5.31554e-05
5.31601e-05
5.31579e-05
5.31589e-05
5.57307e-05
5.57244e-05
5.31604e-05
5.31587e-05
5.31592e-05
5.57267e-05
5.57409e-05
5.57143e-05
5.31555e-05
5.31563e-05
5.31542e-05
5.3155e-05
5.5742e-05
5.57138e-05
5.31558e-05
5.31558e-05
5.31546e-05
5.31545e-05
5.31593e-05
5.31569e-05
5.31579e-05
5.57419e-05
5.57141e-05
5.31595e-05
5.31576e-05
5.31581e-05
5.57157e-05
5.57372e-05
5.57103e-05
5.31554e-05
5.31562e-05
5.31538e-05
5.31546e-05
5.57369e-05
5.57113e-05
5.31557e-05
5.31557e-05
5.31542e-05
5.31541e-05
5.3159e-05
5.31564e-05
5.31571e-05
5.57371e-05
5.57113e-05
5.31592e-05
5.3157e-05
5.31574e-05
5.57136e-05
5.57268e-05
5.57231e-05
5.31551e-05
5.31559e-05
5.31542e-05
5.31551e-05
5.57275e-05
5.57244e-05
5.31555e-05
5.31553e-05
5.31546e-05
5.31546e-05
5.31583e-05
5.31568e-05
5.31574e-05
5.57273e-05
5.57246e-05
5.31586e-05
5.31575e-05
5.31576e-05
5.57259e-05
5.57392e-05
5.57193e-05
5.31562e-05
5.31571e-05
5.31539e-05
5.31547e-05
5.57414e-05
5.5717e-05
5.31566e-05
5.31566e-05
5.31542e-05
5.3154e-05
5.31593e-05
5.31563e-05
5.31566e-05
5.57422e-05
5.57142e-05
5.31596e-05
5.31567e-05
5.31569e-05
5.57143e-05
5.57399e-05
5.57185e-05
5.31573e-05
5.31581e-05
5.31542e-05
5.31548e-05
5.57394e-05
5.57128e-05
5.31575e-05
5.31574e-05
5.31543e-05
5.31542e-05
5.31602e-05
5.31563e-05
5.31568e-05
5.5737e-05
5.57131e-05
5.31604e-05
5.31568e-05
5.3157e-05
5.57145e-05
5.57404e-05
5.57104e-05
5.31588e-05
5.31595e-05
5.31521e-05
5.31529e-05
5.57342e-05
5.57097e-05
5.31589e-05
5.31589e-05
5.31523e-05
5.31524e-05
5.31615e-05
5.31545e-05
5.31552e-05
5.57328e-05
5.57098e-05
5.31617e-05
5.3155e-05
5.31554e-05
5.57147e-05
5.57286e-05
5.55157e-05
5.31392e-05
5.314e-05
5.29705e-05
5.29717e-05
5.57252e-05
5.55162e-05
5.31395e-05
5.31395e-05
5.29725e-05
5.297e-05
5.31422e-05
5.29751e-05
5.29731e-05
5.57256e-05
5.55157e-05
5.31424e-05
5.29743e-05
5.29749e-05
5.55177e-05
5.5333e-05
5.19173e-05
5.19182e-05
5.5333e-05
5.19195e-05
5.19165e-05
4.04348e-05
4.04339e-05
4.04359e-05
5.19194e-05
5.53325e-05
5.19216e-05
3.73773e-05
3.73765e-05
3.7377e-05
3.7377e-05
3.73701e-05
3.73777e-05
3.73043e-05
3.73768e-05
3.73702e-05
3.73777e-05
3.73768e-05
3.73043e-05
3.73741e-05
3.72959e-05
3.72959e-05
3.58798e-05
4.08721e-05
3.66033e-05
4.51467e-05
5.51147e-05
6.48951e-05
3.58803e-05
4.08712e-05
3.66034e-05
4.51466e-05
3.58932e-05
3.58933e-05
3.58932e-05
3.44005e-05
3.44005e-05
3.44005e-05
3.44005e-05
3.52758e-05
3.56384e-05
3.58929e-05
3.53771e-05
3.60475e-05
3.42365e-05
3.53822e-05
5.51168e-05
6.48994e-05
3.52758e-05
3.58929e-05
3.5638e-05
3.53771e-05
3.60475e-05
3.53822e-05
3.42375e-05
3.65971e-05
3.65977e-05
3.5279e-05
3.40641e-05
3.40633e-05
3.39657e-05
5.13534e-05
3.46793e-05
5.46248e-05
7.65447e-05
8.08614e-05
3.39682e-05
5.13543e-05
3.46789e-05
5.46254e-05
3.39296e-05
3.39297e-05
3.39297e-05
3.25854e-05