/*--------------------------------*- C++ -*----------------------------------*\
| =========                 |                                                 |
| \\      /  F ield         | OpenFOAM: The Open Source CFD Toolbox           |
|  \\    /   O peration     | Version:  v2012                                 |
|   \\  /    A nd           | Website:  www.openfoam.com                      |
|    \\/     M anipulation  |                                                 |
\*---------------------------------------------------------------------------*/
FoamFile
{
    version     2.0;
    format      ascii;
    class       volScalarField;
    location    "250";
    object      nut;
}
// * * * * * * * * * * * * * * * * * * * * * * * * * * * * * * * * * * * * * //

dimensions      [0 2 -1 0 0 0 0];


internalField   nonuniform List<scalar> 
171728
(
0.000233973
0.000233116
0.000233116
0.000233423
0.000232532
0.000227802
0.000227801
0.000223867
0.000230516
0.00022032
0.000220318
0.000209109
0.000227799
0.000211665
0.000211661
0.000193785
0.000224433
0.00020265
0.000202644
0.000179709
0.000220552
0.000193772
0.000193765
0.000167339
0.000216304
0.000185275
0.000185267
0.000156587
0.00021182
0.000177234
0.000177226
0.000147206
0.000207207
0.000169688
0.00016968
0.000138949
0.000202545
0.000162611
0.000162603
0.000131615
0.000197889
0.000155949
0.00015594
0.000124954
0.000193275
0.000149648
0.000149639
0.000118817
0.000188683
0.000143665
0.000143659
0.000113152
0.000184151
0.000137952
0.000137946
0.00010793
0.000179706
0.000132465
0.000132455
0.000103045
0.000175338
0.000127188
0.000127182
9.84719e-05
0.000171035
0.000122149
0.000122133
9.4272e-05
0.000166784
0.000117368
0.000117361
9.06467e-05
0.000162586
0.000112885
0.000112876
8.7715e-05
0.000158414
0.000108754
0.000108746
8.53558e-05
0.000154264
0.000105024
0.000105014
8.3638e-05
0.000150142
0.000101712
0.000101697
8.25732e-05
0.000146063
9.88939e-05
9.88825e-05
8.2098e-05
0.000142045
9.65855e-05
9.65767e-05
8.21563e-05
0.000138117
9.47949e-05
9.47886e-05
8.26924e-05
0.000134294
9.3519e-05
9.35154e-05
8.36587e-05
0.00013063
9.2749e-05
9.27463e-05
8.50121e-05
0.000127154
9.24671e-05
9.24616e-05
8.66962e-05
0.000123901
9.26389e-05
9.26349e-05
8.86391e-05
0.000120901
9.32364e-05
9.32374e-05
9.07905e-05
0.000118186
9.42297e-05
9.42257e-05
9.31149e-05
0.000115787
9.55651e-05
9.55662e-05
9.55522e-05
0.000113726
9.72292e-05
9.72275e-05
9.81137e-05
0.000112015
9.91735e-05
9.91701e-05
0.000100716
0.000110695
0.00010136
0.000101367
0.000103376
0.000109735
0.00010378
0.000103775
0.000106087
0.000109101
0.000106353
0.000106354
0.000108796
0.000108838
0.000109087
0.000109091
0.000111529
0.00010895
0.00011195
0.000111955
0.000114252
0.000109428
0.00011492
0.000114913
0.000116965
0.000110222
0.000117965
0.000117974
0.000119668
0.000111335
0.000121066
0.000121065
0.00012234
0.000112778
0.000124261
0.000124263
0.000125004
0.000114409
0.000127357
0.000127358
0.000127585
0.00011652
0.0001307
0.000130703
0.000130278
0.000118617
0.000133752
0.000133757
0.000132685
0.000121208
0.000137093
0.000137084
0.000135387
0.000123753
0.000140068
0.000140093
0.000137635
0.000126878
0.000143819
0.000143779
0.000140647
0.000129301
0.000145781
0.000145801
0.000141802
0.000133541
0.000151432
0.000151444
0.000146829
0.000134845
0.000150856
0.000150853
0.000144676
0.000141722
0.000160869
0.000160937
0.000156176
0.000142499
0.000156435
0.000156458
0.000144746
0.000148431
0.000170583
0.000170355
0.000160858
0.000181573
0.000202817
0.000202897
0.00020057
0.000166173
0.000169655
0.000169698
0.000157225
0.000131824
0.000139291
0.000139246
0.000124456
0.000129311
0.000147604
0.000147597
0.000134857
0.000189338
0.000188004
0.000188019
0.000166336
0.000242474
0.00021759
0.000217559
0.000189978
0.000271391
0.000230898
0.000230872
0.000200236
0.000279343
0.000233025
0.000233016
0.000201539
0.000279336
0.000232023
0.000232022
0.000200419
0.000277959
0.000231375
0.000231368
0.000199786
0.000277917
0.000231564
0.000231553
0.000199989
0.000278562
0.000231906
0.000231893
0.000200241
0.000278905
0.000232035
0.000232023
0.000200372
0.000278955
0.000232037
0.000232027
0.000200317
0.000278961
0.000232056
0.000232042
0.000200408
0.000278958
0.000232045
0.000232032
0.000200306
0.000278952
0.000232038
0.000232028
0.00020033
0.000278949
0.000232035
0.000232018
0.000200402
0.00027894
0.000232025
0.000232004
0.000200277
0.000278961
0.000232049
0.000232038
0.000200379
0.000279008
0.000232092
0.000232086
0.000200422
0.000279009
0.000232069
0.000232059
0.00020033
0.000278943
0.000232024
0.000232016
0.000200401
0.000278912
0.000232022
0.000232002
0.000200325
0.000278931
0.000232029
0.000232022
0.000200281
0.000278945
0.000232038
0.000232022
0.000200306
0.000278949
0.000232034
0.000232027
0.000200389
0.000278961
0.000232051
0.000232032
0.000200379
0.000278967
0.000232038
0.000232027
0.000200295
0.000278986
0.000232066
0.000232053
0.000200415
0.000279002
0.000232073
0.000232063
0.000200374
0.000278999
0.000232063
0.00023205
0.000200318
0.00027899
0.000232056
0.000232044
0.000200395
0.000278982
0.000232053
0.000232041
0.000200359
0.000278981
0.00023205
0.000232037
0.000200308
0.000278984
0.000232057
0.000232044
0.000200415
0.000278987
0.000232061
0.000232046
0.000200364
0.000278992
0.000232068
0.000232054
0.000200326
0.000279078
0.000231966
0.000231952
0.00020035
0.000283556
0.000234296
0.000234289
0.000204802
0.000234266
0.000234448
0.000234449
0.000234267
0.000234448
0.000234449
0.000234274
0.000234274
0.000234274
0.000234274
0.000234448
0.000234448
0.000234266
0.000234448
0.000234448
0.000234266
0.000233423
0.000226204
0.000233116
0.000233114
0.000229361
0.000229357
0.000233423
0.000226205
0.000233114
0.000233114
0.000229359
0.000229356
0.000233116
0.000229364
0.000229361
0.000233423
0.000226202
0.000233114
0.000229363
0.000229359
0.000226202
0.000223867
0.00021223
0.000227799
0.000227794
0.000222332
0.000222326
0.000223868
0.000212234
0.000227797
0.000227792
0.000222332
0.000222323
0.000227798
0.000222339
0.000222331
0.000223866
0.000212227
0.000227797
0.000222336
0.000222331
0.000212228
0.000209111
0.00019706
0.000220313
0.000220307
0.000213879
0.000213874
0.000209112
0.000197066
0.000220314
0.000220304
0.000213883
0.000213869
0.000220311
0.00021389
0.000213877
0.000209107
0.000197057
0.000220313
0.000213886
0.000213882
0.000197057
0.000193788
0.000182876
0.000211654
0.000211648
0.00020489
0.000204884
0.000193792
0.000182883
0.000211658
0.000211643
0.000204897
0.000204879
0.000211651
0.000204905
0.000204887
0.000193784
0.000182872
0.000211657
0.000204899
0.000204896
0.000182872
0.000179713
0.000170268
0.000202634
0.000202628
0.000195943
0.000195937
0.000179717
0.000170274
0.000202643
0.000202622
0.000195954
0.000195931
0.000202631
0.000195962
0.00019594
0.000179708
0.000170263
0.000202641
0.000195955
0.000195953
0.000170264
0.000167344
0.000159242
0.000193753
0.000193747
0.000187336
0.000187331
0.000167349
0.000159249
0.000193765
0.00019374
0.000187351
0.000187324
0.00019375
0.000187359
0.000187333
0.000167339
0.000159238
0.000193764
0.000187351
0.00018735
0.000159238
0.000156592
0.000149613
0.000185253
0.000185247
0.000179173
0.000179168
0.000156597
0.00014962
0.000185268
0.00018524
0.000179191
0.00017916
0.000185249
0.000179198
0.00017917
0.000156587
0.000149608
0.000185267
0.00017919
0.00017919
0.000149608
0.000147211
0.000141107
0.000177208
0.000177203
0.000171501
0.000171496
0.000147217
0.000141114
0.000177227
0.000177195
0.000171521
0.000171488
0.000177205
0.000171529
0.000171498
0.000147207
0.000141101
0.000177225
0.00017152
0.00017152
0.000141101
0.000138956
0.000133548
0.00016966
0.000169655
0.000164309
0.000164304
0.000138961
0.000133555
0.000169681
0.000169647
0.000164332
0.000164296
0.000169658
0.000164339
0.000164307
0.00013895
0.000133542
0.00016968
0.000164331
0.000164332
0.00013354
0.000131621
0.000126684
0.000162581
0.000162576
0.000157546
0.000157541
0.000131627
0.000126692
0.000162605
0.000162568
0.000157571
0.000157533
0.000162578
0.000157579
0.000157545
0.000131615
0.000126679
0.000162604
0.00015757
0.000157571
0.000126679
0.000124958
0.000120366
0.000155917
0.000155912
0.000151158
0.000151152
0.000124963
0.000120367
0.000155943
0.000155903
0.000151186
0.000151144
0.000155915
0.000151192
0.000151157
0.000124954
0.000120354
0.000155942
0.000151182
0.000151184
0.000120356
0.000118833
0.000114427
0.000149613
0.000149608
0.000145096
0.00014509
0.000118834
0.00011443
0.00014964
0.000149599
0.000145124
0.000145082
0.000149612
0.000145132
0.000145094
0.00011881
0.000114402
0.00014964
0.000145122
0.000145123
0.0001144
0.000113178
0.000108848
0.000143631
0.000143624
0.000139321
0.000139314
0.000113178
0.000108848
0.000143658
0.000143618
0.00013935
0.000139308
0.000143629
0.000139357
0.000139318
0.000113168
0.000108842
0.000143658
0.00013935
0.000139347
0.000108822
0.000107961
0.000103679
0.000137921
0.000137909
0.000133772
0.000133772
0.000107947
0.000103718
0.000137948
0.000137904
0.000133801
0.000133758
0.000137914
0.000133817
0.000133774
0.000107956
0.000103672
0.000137944
0.000133802
0.000133803
0.00010368
0.000103044
9.91457e-05
0.000132425
0.000132421
0.000128451
0.000128437
0.000103078
9.91259e-05
0.000132453
0.000132412
0.000128479
0.000128437
0.000132423
0.000128484
0.000128455
0.000103047
9.91499e-05
0.000132453
0.000128482
0.000128484
9.91631e-05
9.84538e-05
9.4995e-05
0.000127151
0.000127142
0.000123345
0.000123337
9.84427e-05
9.50018e-05
0.000127178
0.000127137
0.000123372
0.000123322
0.000127152
0.000123385
0.000123348
9.84625e-05
9.49788e-05
0.000127181
0.000123368
0.000123376
9.50146e-05
9.42653e-05
9.14318e-05
0.000122111
0.000122102
0.000118476
0.000118468
9.42652e-05
9.14388e-05
0.000122137
0.000122088
0.000118501
0.000118461
0.00012211
0.000118514
0.000118476
9.42348e-05
9.14481e-05
0.000122138
0.000118507
0.000118503
9.14297e-05
9.06597e-05
8.83794e-05
0.000117328
0.000117321
0.000113921
0.000113913
9.06601e-05
8.83812e-05
0.000117353
0.000117314
0.000113945
0.000113898
0.000117332
0.000113959
0.00011392
9.06614e-05
8.83554e-05
0.000117359
0.000113944
0.000113946
8.83647e-05
8.77366e-05
8.5914e-05
0.000112846
0.000112839
0.00010969
0.000109683
8.7733e-05
8.59157e-05
0.000112869
0.00011283
0.000109714
0.000109669
0.000112853
0.000109729
0.000109689
8.77071e-05
8.58903e-05
0.000112879
0.000109715
0.000109713
8.58853e-05
8.53913e-05
8.40751e-05
0.000108715
0.000108707
0.000105849
0.00010584
8.53852e-05
8.40811e-05
0.000108736
0.0001087
0.00010587
0.000105829
0.000108722
0.000105885
0.000105849
8.53597e-05
8.40552e-05
0.000108746
0.000105874
0.000105872
8.40536e-05
8.36782e-05
8.28579e-05
0.000104989
0.000104978
0.000102455
0.000102447
8.36745e-05
8.28731e-05
0.000105009
0.000104969
0.000102473
0.000102435
0.000104988
0.000102493
0.000102459
8.36461e-05
8.28588e-05
0.000105011
0.000102479
0.000102481
8.2866e-05
8.25845e-05
8.22575e-05
0.000101677
0.000101666
9.95181e-05
9.95063e-05
8.25962e-05
8.22629e-05
0.000101695
0.000101653
9.95347e-05
9.94986e-05
0.000101678
9.95511e-05
9.9521e-05
8.25606e-05
8.22701e-05
0.0001017
9.95416e-05
9.95417e-05
8.22688e-05
8.21015e-05
8.2203e-05
9.8863e-05
9.88496e-05
9.70823e-05
9.70698e-05
8.21059e-05
8.22061e-05
9.88799e-05
9.88392e-05
9.70974e-05
9.70652e-05
9.88608e-05
9.71131e-05
9.70861e-05
8.20986e-05
8.22111e-05
9.88817e-05
9.71066e-05
9.71058e-05
8.2207e-05
8.21507e-05
8.26442e-05
9.65552e-05
9.65429e-05
9.5164e-05
9.51499e-05
8.21562e-05
8.26436e-05
9.65706e-05
9.65352e-05
9.51779e-05
9.51473e-05
9.65565e-05
9.51914e-05
9.51676e-05
8.2158e-05
8.2645e-05
9.65757e-05
9.51868e-05
9.51854e-05
8.26423e-05
8.26893e-05
8.353e-05
9.47669e-05
9.47542e-05
9.37627e-05
9.37482e-05
8.26902e-05
8.35311e-05
9.47811e-05
9.47491e-05
9.3775e-05
9.37458e-05
9.47707e-05
9.37875e-05
9.37646e-05
8.26935e-05
8.3528e-05
9.4788e-05
9.37833e-05
9.37802e-05
8.35254e-05
8.36611e-05
8.48132e-05
9.34943e-05
9.34806e-05
9.28723e-05
9.28583e-05
8.36606e-05
8.48155e-05
9.35072e-05
9.34779e-05
9.28834e-05
9.28547e-05
9.3498e-05
9.28955e-05
9.2873e-05
8.36621e-05
8.48087e-05
9.35134e-05
9.28899e-05
9.28871e-05
8.48099e-05
8.50175e-05
8.64263e-05
9.27267e-05
9.27128e-05
9.24729e-05
9.24596e-05
8.50181e-05
8.64287e-05
9.2738e-05
9.27113e-05
9.24829e-05
9.24547e-05
9.27287e-05
9.24946e-05
9.24747e-05
8.50147e-05
8.64244e-05
9.27423e-05
9.24878e-05
9.24869e-05
8.64286e-05
8.66977e-05
8.83085e-05
9.24461e-05
9.24332e-05
9.2534e-05
9.25202e-05
8.66997e-05
8.83091e-05
9.24562e-05
9.24285e-05
9.25428e-05
9.25207e-05
9.24473e-05
9.2553e-05
9.25383e-05
8.66926e-05
8.83149e-05
9.24594e-05
9.25515e-05
9.25493e-05
8.83144e-05
8.86339e-05
9.04229e-05
9.26204e-05
9.26071e-05
9.3033e-05
9.30201e-05
8.86343e-05
9.04242e-05
9.26295e-05
9.26043e-05
9.304e-05
9.30205e-05
9.26234e-05
9.30506e-05
9.30357e-05
8.86381e-05
9.04233e-05
9.26339e-05
9.30494e-05
9.30451e-05
9.04225e-05
9.07887e-05
9.27079e-05
9.32204e-05
9.32072e-05
9.3928e-05
9.39172e-05
9.07901e-05
9.27089e-05
9.32278e-05
9.32085e-05
9.39344e-05
9.39138e-05
9.32234e-05
9.39464e-05
9.39338e-05
9.07942e-05
9.27023e-05
9.32325e-05
9.39407e-05
9.39418e-05
9.27113e-05
9.31113e-05
9.51289e-05
9.42116e-05
9.42015e-05
9.51891e-05
9.51716e-05
9.31139e-05
9.51216e-05
9.42179e-05
9.4199e-05
9.51939e-05
9.51751e-05
9.42171e-05
9.51979e-05
9.51884e-05
9.31068e-05
9.51296e-05
9.42249e-05
9.52003e-05
9.51951e-05
9.51247e-05
9.55548e-05
9.76567e-05
9.55519e-05
9.55393e-05
9.67797e-05
9.67697e-05
9.55489e-05
9.76646e-05
9.55574e-05
9.5541e-05
9.67836e-05
9.67657e-05
9.55557e-05
9.67959e-05
9.67877e-05
9.55545e-05
9.76576e-05
9.55623e-05
9.67897e-05
9.67931e-05
9.76675e-05
9.81112e-05
0.000100246
9.72219e-05
9.72036e-05
9.86515e-05
9.86402e-05
9.81102e-05
0.000100246
9.72255e-05
9.72037e-05
9.86547e-05
9.86456e-05
9.7222e-05
9.86647e-05
9.86563e-05
9.81065e-05
0.000100253
9.72269e-05
9.86674e-05
9.86612e-05
0.000100246
0.000100705
0.00010291
9.91541e-05
9.91492e-05
0.000100783
0.000100766
0.000100716
0.000102904
9.91578e-05
9.91483e-05
0.000100784
0.000100768
9.91662e-05
0.00010079
0.000100786
0.000100717
0.000102903
9.91708e-05
0.000100791
0.00010079
0.00010291
0.000103384
0.000105598
0.000101356
0.000101337
0.000103128
0.000103117
0.000103371
0.000105602
0.000101358
0.000101346
0.00010313
0.000103116
0.000101356
0.00010314
0.000103135
0.000103379
0.0001056
0.000101359
0.000103136
0.000103136
0.000105604
0.000106079
0.000108308
0.000103768
0.000103757
0.000105666
0.000105653
0.000106086
0.000108306
0.000103769
0.000103753
0.000105668
0.000105659
0.000103775
0.000105676
0.000105674
0.000106075
0.00010831
0.000103778
0.000105678
0.000105677
0.000108312
0.000108793
0.00011104
0.000106342
0.00010633
0.000108383
0.000108367
0.000108792
0.000111038
0.000106344
0.000106336
0.000108383
0.000108373
0.000106351
0.000108388
0.000108387
0.000108799
0.000111038
0.000106351
0.000108394
0.000108391
0.000111041
0.000111528
0.000113758
0.00010908
0.000109066
0.000111222
0.000111214
0.000111526
0.000113762
0.000109081
0.000109071
0.000111224
0.000111211
0.000109085
0.000111236
0.000111232
0.000111525
0.000113757
0.000109089
0.00011123
0.000111229
0.000113762
0.000114248
0.000116476
0.000111941
0.00011193
0.000114149
0.000114136
0.000114251
0.000116473
0.000111946
0.000111933
0.000114149
0.00011414
0.00011195
0.000114156
0.000114158
0.000114248
0.000116476
0.000111953
0.00011416
0.000114161
0.000116482
0.000116958
0.000119183
0.000114905
0.000114898
0.000117176
0.000117163
0.000116961
0.00011918
0.000114904
0.000114897
0.000117179
0.00011717
0.000114917
0.000117185
0.000117186
0.000116959
0.000119185
0.000114914
0.000117189
0.000117185
0.000119186
0.000119669
0.000121866
0.000117964
0.000117945
0.000120291
0.000120285
0.000119658
0.000121872
0.000117968
0.000117955
0.000120294
0.000120281
0.00011797
0.000120303
0.000120299
0.000119666
0.000121863
0.000117973
0.000120304
0.000120304
0.000121869
0.000122333
0.000124519
0.00012105
0.000121047
0.00012341
0.000123397
0.000122345
0.000124514
0.000121053
0.000121045
0.00012341
0.000123404
0.000121062
0.000123418
0.000123421
0.000122335
0.000124519
0.000121065
0.000123422
0.000123423
0.000124526
0.000125
0.000127144
0.000124253
0.000124241
0.000126599
0.000126593
0.000124994
0.000127144
0.000124254
0.000124244
0.000126604
0.000126591
0.000124263
0.000126612
0.000126611
0.000124997
0.000127141
0.000124264
0.000126612
0.000126611
0.000127145
0.000127582
0.000129811
0.000127346
0.000127337
0.000129859
0.00012985
0.000127582
0.000129813
0.00012735
0.000127341
0.000129862
0.000129855
0.000127355
0.000129868
0.000129867
0.000127581
0.000129812
0.000127357
0.000129873
0.000129871
0.000129818
0.00013027
0.000132219
0.000130682
0.000130683
0.000132883
0.000132872
0.000130274
0.000132212
0.000130691
0.000130677
0.000132884
0.000132873
0.000130701
0.00013289
0.000132892
0.000130271
0.00013221
0.000130706
0.000132891
0.000132892
0.000132218
0.000132691
0.000135018
0.000133761
0.000133734
0.000136354
0.000136368
0.000132682
0.000135033
0.000133754
0.000133752
0.000136369
0.000136349
0.00013375
0.000136385
0.000136382
0.000132683
0.000135026
0.000133751
0.000136384
0.000136391
0.000135036
0.000135358
0.000137088
0.00013704
0.000137072
0.000139172
0.000139137
0.000135382
0.00013706
0.000137063
0.00013704
0.000139163
0.000139165
0.00013709
0.000139149
0.000139158
0.000135368
0.000137073
0.000137096
0.000139166
0.000139157
0.000137067
0.000137676
0.000140406
0.000140121
0.000140067
0.00014299
0.00014299
0.000137628
0.000140443
0.000140105
0.00014009
0.000142992
0.000142996
0.000140081
0.000143038
0.000142998
0.000137649
0.000140425
0.000140089
0.000143003
0.000142996
0.000140432
0.000140599
0.000141179
0.000143732
0.00014376
0.000145095
0.000145143
0.00014066
0.000141164
0.000143746
0.000143769
0.000145137
0.000145071
0.000143775
0.00014511
0.000145175
0.000140638
0.000141158
0.000143763
0.000145164
0.000145213
0.000141209
0.000141821
0.000146551
0.000145825
0.000145788
0.000150131
0.000150032
0.000141753
0.000146539
0.000145816
0.000145765
0.000150095
0.000150144
0.000145804
0.000150078
0.000150028
0.000141757
0.000146565
0.000145834
0.000150063
0.000149992
0.000146508
0.000146812
0.000144977
0.000151423
0.000151423
0.000151083
0.000151236
0.000146836
0.00014506
0.000151437
0.000151445
0.000151158
0.000151074
0.000151437
0.0001512
0.000151277
0.000146847
0.000144982
0.000151419
0.000151225
0.000151314
0.000145114
0.000144577
0.000154966
0.000150754
0.000150861
0.000158612
0.000158471
0.000144645
0.000154897
0.000150802
0.000150734
0.00015859
0.000158648
0.000150889
0.000158555
0.00015846
0.00014456
0.000154991
0.000150924
0.000158557
0.000158457
0.000154874
0.000156175
0.000146899
0.0001609
0.000160872
0.00015858
0.000158668
0.000156135
0.000146946
0.00016093
0.000160929
0.000158629
0.000158556
0.000160902
0.000158597
0.000158726
0.00015622
0.000146906
0.000160914
0.000158671
0.000158749
0.000147067
0.000144624
0.000151751
0.000156408
0.000156474
0.000157435
0.000157394
0.000144668
0.000151766
0.00015643
0.00015637
0.000157382
0.000157402
0.000156508
0.000157491
0.000157339
0.000144614
0.000151692
0.000156522
0.000157357
0.000157323
0.000151484
0.000161082
0.000199558
0.000170507
0.000170392
0.000200514
0.000200497
0.000161106
0.000199517
0.000170415
0.000170488
0.000200537
0.000200493
0.000170282
0.000200488
0.000200547
0.000161038
0.000199552
0.000170252
0.000200546
0.000200566
0.000199637
0.000200492
0.000164977
0.000202862
0.000202842
0.000184334
0.000184278
0.000200443
0.000164923
0.00020289
0.000202839
0.000184361
0.000184334
0.000202903
0.000184264
0.000184327
0.000200485
0.000164992
0.000202921
0.000184362
0.00018433
0.000164959
0.000157227
0.000126209
0.000169662
0.000169635
0.0001426
0.000142636
0.000157202
0.000126283
0.000169684
0.000169671
0.000142626
0.000142613
0.000169661
0.00014269
0.000142632
0.000157246
0.000126229
0.000169669
0.000142649
0.000142661
0.000126244
0.000124416
0.000130206
0.000139191
0.000139234
0.000138631
0.000138674
0.000124491
0.000130232
0.00013922
0.000139203
0.000138665
0.000138638
0.00013923
0.00013872
0.000138676
0.000124435
0.000130204
0.000139263
0.000138687
0.000138713
0.000130227
0.000134845
0.000161756
0.000147551
0.000147579
0.000178604
0.000178584
0.000134854
0.000161729
0.000147585
0.000147548
0.000178614
0.000178576
0.000147587
0.000178588
0.000178593
0.000134839
0.000161741
0.00014762
0.00017861
0.000178592
0.000161739
0.000166362
0.000187179
0.000188028
0.000188001
0.000211654
0.000211625
0.000166339
0.00018718
0.00018803
0.000187997
0.000211644
0.000211628
0.000188007
0.00021166
0.000211625
0.000166346
0.000187168
0.000188002
0.000211637
0.000211627
0.000187158
0.00019
0.000199499
0.000217575
0.000217548
0.000228946
0.000228935
0.000190006
0.000199516
0.000217566
0.000217551
0.000228954
0.000228934
0.00021755
0.000228994
0.000228948
0.00018999
0.000199498
0.000217557
0.000228963
0.00022897
0.000199503
0.000200228
0.000201719
0.000230845
0.00023084
0.000232902
0.000232906
0.000200246
0.00020174
0.000230861
0.000230837
0.000232932
0.000232897
0.000230856
0.000232959
0.000232927
0.000200231
0.000201727
0.000230881
0.000232948
0.000232956
0.00020174
0.000201518
0.000200674
0.000232969
0.000232973
0.000232339
0.000232337
0.000201538
0.000200676
0.000233
0.000232963
0.000232375
0.000232321
0.000232994
0.000232382
0.000232357
0.000201526
0.000200664
0.000233024
0.000232382
0.000232387
0.000200678
0.000200417
0.0002
0.000231985
0.000231978
0.000231392
0.000231381
0.000200418
0.000199995
0.000232019
0.000231963
0.000231421
0.000231369
0.000231997
0.000231429
0.000231397
0.000200406
0.000199984
0.000232026
0.000231424
0.000231425
0.000199994
0.000199792
0.000200098
0.000231336
0.000231326
0.000231389
0.000231387
0.000199788
0.000200116
0.000231364
0.000231315
0.000231414
0.000231379
0.000231341
0.00023144
0.000231399
0.000199777
0.000200103
0.00023137
0.00023143
0.000231428
0.000200107
0.000199979
0.000200377
0.000231508
0.00023151
0.000231781
0.000231787
0.000199998
0.0002004
0.000231533
0.0002315
0.000231807
0.000231774
0.000231522
0.000231841
0.000231799
0.000199986
0.000200383
0.000231551
0.000231828
0.000231828
0.00020039
0.000200229
0.000200535
0.000231849
0.000231853
0.000231976
0.000231972
0.00020025
0.000200548
0.000231874
0.000231839
0.000232001
0.000231956
0.000231866
0.000232022
0.000231985
0.000200233
0.000200529
0.000231894
0.000232009
0.000232013
0.000200539
0.00020037
0.000200511
0.000231993
0.000231985
0.000231997
0.000231988
0.00020038
0.000200509
0.000232018
0.000231971
0.000232023
0.000231976
0.000231999
0.000232039
0.000232004
0.000200361
0.000200496
0.000232027
0.000232028
0.000232031
0.000200507
0.00020032
0.000200552
0.000231992
0.000231987
0.000231996
0.000231998
0.000200318
0.000200574
0.000232019
0.000231975
0.000232022
0.000231984
0.000232002
0.000232049
0.000232012
0.000200308
0.000200559
0.00023203
0.000232037
0.00023204
0.000200567
0.000200394
0.000200472
0.000232002
0.000232005
0.000231999
0.000231998
0.000200415
0.000200489
0.000232028
0.000231989
0.000232025
0.000231981
0.000232019
0.000232049
0.00023201
0.000200399
0.000200468
0.000232046
0.000232034
0.000232038
0.000200479
0.00020031
0.000200511
0.000231998
0.000231994
0.00023199
0.000231987
0.000200317
0.000200528
0.000232023
0.00023198
0.000232016
0.000231977
0.000232007
0.000232038
0.000232002
0.000200299
0.000200526
0.000232035
0.000232029
0.00023203
0.000200535
0.00020031
0.000200568
0.000231989
0.000231987
0.000231994
0.000231988
0.000200325
0.000200581
0.000232015
0.000231976
0.000232019
0.000231974
0.000232001
0.000232039
0.000232001
0.000200323
0.000200566
0.000232028
0.000232027
0.000232028
0.000200567
0.000200403
0.000200444
0.000231993
0.000231985
0.000231975
0.00023197
0.00020041
0.000200454
0.000232018
0.000231965
0.000232
0.000231948
0.000231998
0.000232023
0.000231984
0.000200394
0.000200428
0.000232025
0.000232002
0.00023201
0.000200444
0.000200272
0.000200555
0.000231975
0.000231972
0.000231993
0.000231994
0.000200292
0.00020057
0.000232
0.00023195
0.000232019
0.000231982
0.000231986
0.000232048
0.000232012
0.000200267
0.00020056
0.000232011
0.000232036
0.000232038
0.000200571
0.000200359
0.000200573
0.000231994
0.000231995
0.000232033
0.000232034
0.000200372
0.000200589
0.000232021
0.000231986
0.000232061
0.000232027
0.000232013
0.000232086
0.000232045
0.000200372
0.000200572
0.00023204
0.000232079
0.000232075
0.000200572
0.00020042
0.000200529
0.000232044
0.000232043
0.000232033
0.000232027
0.000200435
0.000200535
0.000232071
0.000232034
0.000232057
0.000232012
0.000232052
0.000232073
0.000232031
0.000200422
0.000200523
0.000232083
0.000232064
0.000232061
0.000200526
0.000200334
0.000200577
0.000232029
0.000232023
0.000231994
0.000231993
0.00020034
0.000200593
0.000232053
0.000232007
0.000232021
0.000231981
0.000232026
0.000232044
0.000232007
0.000200327
0.000200574
0.000232056
0.000232038
0.000232034
0.000200582
0.000200379
0.000200485
0.000231975
0.000231972
0.000231965
0.00023196
0.0002004
0.000200481
0.000232002
0.000231961
0.000231992
0.000231942
0.000231989
0.000232015
0.000231976
0.000200395
0.000200444
0.000232016
0.000231998
0.000232002
0.000200468
0.000200342
0.000200447
0.00023197
0.000231967
0.00023197
0.000231967
0.00020034
0.000200468
0.000231997
0.000231948
0.000231996
0.000231957
0.000231982
0.000232023
0.000231982
0.000200295
0.000200464
0.000232009
0.000232012
0.00023201
0.000200457
0.000200278
0.000200492
0.000231977
0.000231975
0.000231983
0.000231982
0.00020029
0.00020051
0.000232004
0.000231969
0.000232009
0.000231971
0.000231988
0.000232036
0.000231995
0.000200281
0.000200518
0.000232018
0.000232024
0.000232021
0.000200512
0.00020029
0.000200569
0.000231983
0.000231981
0.000231986
0.000231986
0.000200305
0.000200586
0.000232009
0.000231968
0.000232015
0.000231976
0.000231995
0.000232043
0.000232002
0.00020031
0.00020057
0.000232021
0.000232031
0.00023203
0.000200584
0.000200357
0.000200558
0.000231982
0.000231981
0.000232
0.000231997
0.000200374
0.000200562
0.00023201
0.000231972
0.000232022
0.000231974
0.000231995
0.000232048
0.000232007
0.00020039
0.000200495
0.000232023
0.000232031
0.000232033
0.00020053
0.000200397
0.000200463
0.000232
0.000231997
0.000231978
0.000231976
0.000200403
0.000200478
0.000232022
0.000231975
0.000232006
0.000231964
0.000232011
0.000232035
0.000231993
0.000200344
0.000200472
0.000232035
0.000232019
0.000232017
0.000200477
0.000200292
0.000200586
0.000231984
0.000231983
0.000232013
0.000232014
0.000200303
0.000200605
0.000232017
0.000231973
0.000232038
0.000231999
0.000231995
0.000232066
0.000232023
0.000200289
0.00020059
0.000232022
0.000232056
0.000232051
0.000200594
0.000200405
0.000200503
0.000232012
0.000232013
0.00023201
0.00023201
0.000200426
0.000200514
0.000232035
0.000231997
0.000232038
0.000231998
0.000232023
0.000232065
0.000232022
0.000200409
0.000200501
0.00023205
0.000232051
0.000232049
0.000200502
0.000200374
0.0002005
0.00023202
0.00023202
0.000232016
0.000232015
0.000200385
0.000200515
0.000232051
0.00023201
0.000232043
0.000232002
0.000232034
0.000232068
0.00023203
0.000200372
0.000200501
0.000232062
0.000232056
0.000232057
0.000200512
0.000200309
0.000200568
0.000232013
0.000232011
0.000232007
0.000232004
0.000200323
0.00020058
0.000232039
0.000231997
0.000232033
0.00023199
0.000232026
0.000232057
0.00023202
0.00020031
0.000200564
0.000232053
0.000232044
0.000232046
0.000200578
0.000200384
0.000200502
0.000232006
0.000232004
0.000232
0.000231998
0.000200399
0.000200508
0.000232033
0.00023199
0.000232027
0.000231984
0.00023202
0.000232049
0.000232013
0.000200384
0.000200495
0.000232046
0.000232037
0.000232039
0.000200508
0.000200352
0.00020049
0.000232005
0.000232002
0.000231999
0.000231996
0.000200358
0.000200507
0.000232031
0.000231988
0.000232026
0.000231982
0.000232017
0.000232047
0.000232009
0.000200346
0.000200492
0.000232043
0.000232035
0.000232036
0.000200509
0.000200288
0.000200588
0.000232002
0.000231999
0.000232004
0.000232003
0.000200303
0.000200605
0.000232028
0.000231984
0.000232031
0.000231989
0.000232011
0.000232053
0.000232013
0.000200289
0.000200591
0.000232037
0.00023204
0.000232039
0.000200592
0.000200388
0.000200561
0.000232009
0.000232007
0.000232004
0.000232001
0.000200413
0.00020055
0.000232036
0.000231993
0.00023203
0.000231986
0.000232017
0.000232051
0.000232009
0.000200405
0.000200515
0.000232044
0.000232037
0.000232036
0.000200502
0.000200398
0.000200554
0.000232014
0.000232011
0.000232011
0.000232006
0.000200401
0.000200518
0.000232039
0.000231996
0.000232035
0.000231991
0.00023202
0.000232056
0.000232014
0.00020037
0.000200503
0.000232047
0.000232041
0.000232041
0.000200503
0.000200408
0.000200526
0.000232023
0.00023202
0.000232085
0.000232083
0.000200366
0.000200528
0.000232047
0.000232004
0.00023211
0.000232069
0.000232027
0.000232131
0.000232093
0.000200343
0.00020051
0.000232054
0.00023212
0.000232121
0.000200537
0.00020037
0.000202351
0.000231917
0.000231915
0.0002356
0.000235602
0.000200351
0.000202357
0.000231944
0.0002319
0.000235626
0.000235594
0.000231924
0.000235641
0.00023561
0.000200338
0.000202347
0.000231953
0.000235632
0.000235637
0.000202358
0.000204808
0.000234262
0.000234263
0.000204807
0.000234285
0.000234256
0.000283562
0.000283566
0.000283571
0.000234269
0.0002048
0.000234293
0.00023473
0.000234746
0.000234729
0.000234729
0.000235117
0.000234798
0.000234701
0.000234727
0.000235118
0.000234798
0.000234727
0.000234701
0.000234867
0.000233566
0.000233566
0.000104651
3.87411e-05
0.000129118
3.98249e-05
2.16834e-05
2.28313e-05
0.000104643
3.87371e-05
0.000129114
3.98215e-05
0.000233973
0.000233973
0.000233973
0.000232935
0.000232935
0.000232935
0.000232935
0.000206196
9.36752e-05
0.000233969
0.000231994
0.000222614
8.72226e-05
0.000233611
2.16823e-05
2.28307e-05
0.00020619
0.000233969
9.36747e-05
0.000231994
0.000222622
0.000233611
8.72282e-05
4.78012e-05
4.77893e-05
0.000231345
4.40184e-05
4.40089e-05
7.25677e-05
4.2434e-05
8.14027e-05
4.37634e-05
2.47749e-05
2.54634e-05
7.25581e-05
4.24305e-05
8.13974e-05
4.37596e-05
0.000232532
0.000232532
0.000232532
0.000231084
0.000231084
0.000231083
0.000231084