/*--------------------------------*- C++ -*----------------------------------*\
| =========                 |                                                 |
| \\      /  F ield         | OpenFOAM: The Open Source CFD Toolbox           |
|  \\    /   O peration     | Version:  v2012                                 |
|   \\  /    A nd           | Website:  www.openfoam.com                      |
|    \\/     M anipulation  |                                                 |
\*---------------------------------------------------------------------------*/
FoamFile
{
    version     2.0;
    format      ascii;
    class       volScalarField;
    location    "250";
    object      p;
}
// * * * * * * * * * * * * * * * * * * * * * * * * * * * * * * * * * * * * * //

dimensions      [0 2 -2 0 0 0 0];


internalField   nonuniform List<scalar> 
171728
(
0.00361705
0.00361738
0.00361738
0.00362043
0.00356169
0.00356211
0.00356211
0.0035651
0.00351094
0.00351091
0.00351091
0.00351367
0.00345856
0.00345857
0.00345857
0.00346135
0.00340721
0.00340722
0.00340722
0.00340997
0.00335723
0.00335724
0.00335724
0.00335996
0.00330871
0.00330872
0.00330872
0.00331141
0.00326148
0.00326148
0.0032615
0.00326415
0.00321535
0.00321537
0.00321537
0.00321799
0.00317012
0.00317014
0.00317016
0.00317274
0.00312562
0.00312566
0.00312561
0.00312819
0.00308169
0.00308171
0.00308175
0.00308428
0.00303831
0.00303832
0.00303835
0.00304085
0.00299537
0.00299539
0.00299538
0.0029979
0.00295288
0.0029529
0.00295292
0.00295539
0.00291078
0.00291077
0.00291075
0.00291323
0.00286907
0.00286906
0.00286906
0.00287154
0.00282773
0.00282773
0.00282774
0.00283022
0.00278671
0.00278671
0.00278672
0.00278919
0.00274601
0.00274599
0.00274601
0.00274847
0.0027056
0.00270557
0.00270558
0.00270804
0.00266546
0.00266542
0.00266542
0.00266787
0.00262557
0.00262552
0.00262552
0.00262796
0.00258591
0.00258586
0.00258586
0.00258829
0.00254649
0.00254643
0.00254643
0.00254885
0.00250728
0.00250722
0.00250722
0.00250962
0.00246827
0.00246822
0.00246822
0.00247061
0.00242947
0.00242942
0.00242942
0.00243179
0.00239086
0.00239082
0.00239082
0.00239316
0.00235244
0.0023524
0.0023524
0.00235473
0.0023142
0.00231417
0.00231417
0.00231647
0.00227614
0.00227611
0.00227611
0.00227839
0.00223824
0.00223822
0.00223822
0.00224048
0.00220051
0.00220049
0.00220049
0.00220273
0.00216293
0.00216292
0.00216292
0.00216514
0.00212551
0.0021255
0.0021255
0.0021277
0.00208824
0.00208823
0.00208823
0.00209041
0.00205111
0.00205109
0.00205109
0.00205326
0.00201411
0.00201409
0.00201409
0.00201625
0.00197724
0.00197722
0.00197722
0.00197936
0.0019405
0.00194046
0.00194046
0.00194259
0.00190386
0.00190383
0.00190383
0.00190595
0.00186735
0.0018673
0.0018673
0.00186941
0.00183094
0.00183088
0.00183088
0.00183299
0.00179462
0.00179455
0.00179455
0.00179665
0.00175843
0.00175836
0.00175836
0.00176045
0.00172226
0.00172217
0.00172217
0.00172425
0.00168628
0.00168622
0.00168622
0.00168829
0.00165022
0.0016501
0.0016501
0.00165216
0.00161452
0.00161447
0.00161447
0.00161656
0.00157851
0.00157831
0.00157831
0.00158035
0.00154323
0.0015432
0.0015432
0.00154522
0.00150705
0.00150685
0.00150685
0.00150895
0.00147257
0.00147227
0.00147226
0.00147391
0.00144165
0.00144137
0.00144138
0.0014433
0.00140027
0.00140008
0.00140007
0.00140243
0.00135912
0.00135966
0.00135965
0.00136203
0.00132746
0.00132757
0.00132757
0.00132941
0.00130008
0.00129926
0.00129927
0.00130056
0.0012713
0.00127026
0.00127025
0.00127155
0.00123934
0.00123868
0.00123868
0.0012403
0.0012045
0.00120425
0.00120425
0.00120616
0.00116827
0.0011682
0.0011682
0.00117026
0.00113165
0.00113164
0.00113164
0.00113374
0.00109506
0.00109504
0.00109504
0.00109713
0.00105852
0.00105848
0.00105848
0.00106057
0.00102198
0.00102194
0.00102194
0.00102402
0.000985417
0.000985388
0.000985388
0.000987474
0.000948845
0.000948818
0.000948818
0.000950905
0.000912268
0.000912241
0.000912241
0.000914328
0.000875685
0.000875657
0.000875658
0.000877746
0.000839099
0.000839072
0.000839071
0.000841159
0.000802511
0.000802484
0.000802484
0.000804571
0.000765927
0.0007659
0.0007659
0.000767988
0.000729344
0.000729315
0.000729315
0.000731402
0.000692753
0.000692726
0.000692726
0.000694814
0.000656158
0.00065613
0.00065613
0.000658218
0.000619567
0.000619538
0.000619538
0.000621626
0.000582982
0.000582956
0.000582956
0.000585043
0.000546397
0.000546371
0.000546371
0.000548458
0.000509812
0.000509784
0.000509783
0.000511871
0.000473226
0.000473196
0.000473197
0.000475284
0.000436642
0.000436615
0.000436615
0.000438702
0.000400059
0.000400031
0.000400032
0.000402118
0.000363474
0.000363446
0.000363445
0.000365533
0.00032689
0.000326864
0.000326864
0.000328951
0.000290303
0.000290275
0.000290275
0.000292361
0.000253719
0.000253692
0.000253692
0.000255776
0.000217136
0.00021711
0.00021711
0.000219194
0.000180554
0.000180527
0.000180527
0.000182608
0.000143971
0.000143945
0.000143945
0.000146019
0.000107384
0.000107362
0.000107362
0.000109422
7.08019e-05
7.07693e-05
7.07682e-05
7.27969e-05
3.49603e-05
3.43773e-05
3.43746e-05
3.62561e-05
6.15457e-06
7.31736e-06
7.31689e-06
5.30965e-06
0.00363046
0.00363068
0.00363068
0.00363046
0.00363068
0.00363068
0.00363145
0.00363144
0.00363145
0.00363145
0.00363068
0.00363068
0.00363046
0.00363068
0.00363068
0.00363046
0.00362043
0.00357167
0.00361738
0.00361738
0.00357395
0.00357395
0.00362043
0.00357167
0.00361738
0.00361738
0.00357395
0.00357395
0.00361738
0.00357395
0.00357395
0.00362043
0.00357167
0.00361738
0.00357395
0.00357395
0.00357167
0.0035651
0.00352059
0.00356211
0.00356212
0.00352404
0.00352404
0.00356511
0.0035206
0.00356211
0.00356211
0.00352404
0.00352404
0.00356211
0.00352404
0.00352404
0.0035651
0.00352059
0.00356211
0.00352404
0.00352404
0.0035206
0.00351367
0.00346823
0.00351092
0.00351092
0.00347159
0.00347159
0.00351367
0.00346823
0.00351091
0.00351092
0.00347159
0.00347159
0.00351092
0.00347158
0.00347158
0.00351367
0.00346823
0.00351091
0.00347159
0.00347158
0.00346823
0.00346134
0.00341668
0.00345857
0.00345857
0.00341994
0.00341994
0.00346135
0.00341667
0.00345857
0.00345857
0.00341994
0.00341994
0.00345857
0.00341994
0.00341994
0.00346135
0.00341668
0.00345857
0.00341994
0.00341994
0.00341667
0.00340997
0.00336646
0.00340722
0.00340722
0.0033696
0.0033696
0.00340997
0.00336646
0.00340722
0.00340722
0.0033696
0.0033696
0.00340722
0.0033696
0.0033696
0.00340997
0.00336646
0.00340722
0.0033696
0.0033696
0.00336646
0.00335996
0.00331771
0.00335724
0.00335724
0.00332073
0.00332073
0.00335996
0.0033177
0.00335724
0.00335724
0.00332073
0.00332073
0.00335724
0.00332073
0.00332072
0.00335996
0.00331771
0.00335724
0.00332073
0.00332072
0.0033177
0.00331141
0.00327028
0.00330873
0.00330872
0.00327319
0.0032732
0.0033114
0.00327028
0.00330872
0.00330872
0.00327319
0.0032732
0.00330873
0.0032732
0.0032732
0.0033114
0.00327028
0.00330872
0.0032732
0.0032732
0.00327027
0.00326416
0.00322398
0.00326151
0.0032615
0.0032268
0.00322682
0.00326416
0.00322398
0.00326151
0.0032615
0.00322681
0.00322682
0.00326152
0.00322682
0.00322681
0.00326415
0.00322398
0.0032615
0.00322682
0.00322682
0.00322399
0.003218
0.00317861
0.00321537
0.00321537
0.00318139
0.00318139
0.00321799
0.00317861
0.00321537
0.00321537
0.00318139
0.00318137
0.00321537
0.00318138
0.00318137
0.00321799
0.00317862
0.00321537
0.00318137
0.00318137
0.00317861
0.00317273
0.003134
0.00317014
0.00317014
0.00313668
0.00313668
0.00317273
0.00313399
0.00317014
0.00317016
0.00313668
0.0031367
0.00317014
0.00313668
0.00313672
0.00317274
0.00313397
0.00317014
0.0031367
0.00313672
0.00313399
0.00312822
0.00308996
0.00312566
0.00312566
0.00309268
0.00309267
0.00312822
0.00308997
0.00312566
0.00312561
0.00309268
0.00309262
0.00312564
0.00309267
0.00309263
0.00312819
0.00308999
0.00312564
0.00309262
0.00309263
0.00308996
0.00308425
0.00304649
0.0030817
0.00308171
0.00304914
0.00304915
0.00308426
0.00304648
0.00308169
0.00308175
0.00304914
0.00304916
0.00308173
0.00304915
0.00304914
0.00308429
0.0030465
0.00308172
0.00304916
0.00304914
0.00304649
0.00304083
0.00300345
0.00303834
0.00303832
0.0030061
0.00300606
0.00304082
0.00300347
0.00303834
0.00303835
0.0030061
0.00300609
0.00303835
0.00300606
0.00300607
0.00304084
0.00300346
0.00303835
0.00300609
0.00300607
0.00300347
0.00299789
0.00296092
0.00299538
0.00299539
0.00296347
0.00296348
0.0029979
0.00296091
0.00299538
0.00299537
0.00296347
0.00296347
0.00299539
0.00296348
0.00296348
0.00299789
0.00296092
0.00299539
0.00296349
0.00296348
0.00296091
0.0029554
0.00291873
0.00295291
0.00295289
0.00292129
0.00292129
0.00295539
0.00291873
0.00295291
0.00295292
0.00292129
0.0029213
0.00295291
0.00292129
0.0029213
0.00295541
0.00291872
0.00295291
0.0029213
0.0029213
0.00291871
0.00291326
0.00287696
0.00291077
0.00291077
0.00287947
0.00287945
0.00291326
0.00287696
0.00291077
0.00291075
0.00287947
0.00287944
0.00291074
0.00287945
0.00287945
0.00291324
0.00287696
0.00291074
0.00287944
0.00287945
0.00287695
0.00287154
0.00283556
0.00286906
0.00286906
0.00283802
0.00283801
0.00287155
0.00283557
0.00286906
0.00286906
0.00283802
0.00283799
0.00286905
0.00283801
0.00283799
0.00287156
0.00283557
0.00286905
0.00283799
0.00283799
0.00283557
0.00283019
0.00279449
0.00282772
0.00282773
0.00279692
0.00279692
0.0028302
0.0027945
0.00282772
0.00282773
0.00279692
0.00279691
0.00282774
0.00279692
0.00279691
0.00283021
0.00279451
0.00282774
0.00279691
0.00279691
0.00279451
0.00278916
0.00275373
0.0027867
0.00278671
0.00275614
0.00275613
0.00278917
0.00275374
0.0027867
0.00278672
0.00275614
0.00275613
0.00278672
0.00275613
0.00275613
0.00278919
0.00275376
0.00278672
0.00275613
0.00275614
0.00275376
0.00274844
0.00271327
0.00274599
0.00274599
0.00271565
0.00271564
0.00274845
0.00271328
0.00274599
0.002746
0.00271565
0.00271564
0.00274601
0.00271564
0.00271564
0.00274847
0.00271329
0.00274601
0.00271564
0.00271564
0.00271329
0.00270802
0.00267309
0.00270557
0.00270557
0.00267543
0.00267543
0.00270802
0.00267309
0.00270556
0.00270558
0.00267543
0.00267542
0.00270558
0.00267543
0.00267542
0.00270804
0.00267309
0.00270558
0.00267542
0.00267542
0.00267309
0.00266786
0.00263316
0.00266542
0.00266541
0.00263547
0.00263547
0.00266786
0.00263316
0.00266541
0.00266542
0.00263547
0.00263546
0.00266542
0.00263547
0.00263546
0.00266787
0.00263315
0.00266542
0.00263546
0.00263546
0.00263315
0.00262796
0.00259346
0.00262552
0.00262552
0.00259575
0.00259575
0.00262796
0.00259346
0.00262552
0.00262552
0.00259575
0.00259575
0.00262552
0.00259575
0.00259575
0.00262796
0.00259346
0.00262552
0.00259575
0.00259575
0.00259346
0.00258829
0.00255399
0.00258586
0.00258586
0.00255627
0.00255627
0.00258829
0.002554
0.00258586
0.00258586
0.00255627
0.00255627
0.00258586
0.00255627
0.00255627
0.00258829
0.00255399
0.00258586
0.00255627
0.00255627
0.00255399
0.00254885
0.00251475
0.00254643
0.00254643
0.002517
0.002517
0.00254885
0.00251475
0.00254643
0.00254643
0.002517
0.002517
0.00254643
0.002517
0.002517
0.00254885
0.00251475
0.00254643
0.002517
0.002517
0.00251475
0.00250962
0.00247571
0.00250722
0.00250722
0.00247795
0.00247795
0.00250962
0.00247571
0.00250722
0.00250722
0.00247795
0.00247795
0.00250722
0.00247795
0.00247795
0.00250962
0.00247571
0.00250722
0.00247795
0.00247795
0.00247571
0.0024706
0.00243687
0.00246822
0.00246822
0.0024391
0.0024391
0.0024706
0.00243687
0.00246822
0.00246822
0.0024391
0.0024391
0.00246822
0.0024391
0.0024391
0.00247061
0.00243687
0.00246822
0.0024391
0.0024391
0.00243687
0.00243179
0.00239823
0.00242942
0.00242942
0.00240045
0.00240045
0.00243179
0.00239823
0.00242942
0.00242942
0.00240045
0.00240045
0.00242942
0.00240045
0.00240045
0.00243179
0.00239822
0.00242942
0.00240045
0.00240045
0.00239822
0.00239316
0.00235977
0.00239082
0.00239082
0.00236199
0.00236199
0.00239316
0.00235977
0.00239082
0.00239082
0.00236199
0.00236199
0.00239082
0.00236199
0.00236199
0.00239316
0.00235977
0.00239082
0.00236199
0.00236199
0.00235977
0.00235473
0.0023215
0.0023524
0.0023524
0.00232371
0.00232371
0.00235473
0.0023215
0.0023524
0.0023524
0.00232371
0.00232371
0.0023524
0.00232371
0.00232371
0.00235473
0.0023215
0.0023524
0.00232371
0.00232371
0.0023215
0.00231647
0.0022834
0.00231417
0.00231417
0.0022856
0.0022856
0.00231647
0.0022834
0.00231417
0.00231417
0.0022856
0.0022856
0.00231417
0.0022856
0.0022856
0.00231647
0.0022834
0.00231417
0.0022856
0.0022856
0.0022834
0.00227839
0.00224547
0.00227611
0.00227611
0.00224767
0.00224767
0.00227839
0.00224547
0.00227611
0.00227611
0.00224767
0.00224767
0.00227611
0.00224767
0.00224767
0.00227839
0.00224547
0.00227611
0.00224767
0.00224767
0.00224547
0.00224048
0.00220771
0.00223822
0.00223822
0.00220991
0.00220991
0.00224048
0.00220771
0.00223822
0.00223822
0.00220991
0.00220991
0.00223822
0.00220991
0.00220991
0.00224048
0.00220771
0.00223822
0.00220991
0.00220991
0.00220771
0.00220273
0.0021701
0.00220049
0.00220049
0.0021723
0.0021723
0.00220273
0.0021701
0.00220049
0.00220049
0.0021723
0.0021723
0.00220049
0.0021723
0.0021723
0.00220273
0.0021701
0.00220049
0.0021723
0.0021723
0.0021701
0.00216514
0.00213265
0.00216292
0.00216292
0.00213484
0.00213484
0.00216514
0.00213265
0.00216292
0.00216292
0.00213484
0.00213484
0.00216292
0.00213484
0.00213484
0.00216514
0.00213265
0.00216292
0.00213484
0.00213484
0.00213265
0.0021277
0.00209535
0.0021255
0.0021255
0.00209753
0.00209753
0.0021277
0.00209535
0.0021255
0.0021255
0.00209753
0.00209753
0.0021255
0.00209753
0.00209753
0.0021277
0.00209535
0.0021255
0.00209753
0.00209753
0.00209535
0.00209041
0.00205818
0.00208823
0.00208823
0.00206036
0.00206036
0.00209041
0.00205818
0.00208823
0.00208823
0.00206036
0.00206036
0.00208823
0.00206036
0.00206036
0.00209041
0.00205818
0.00208823
0.00206036
0.00206036
0.00205818
0.00205326
0.00202116
0.00205109
0.00205109
0.00202333
0.00202333
0.00205326
0.00202116
0.00205109
0.00205109
0.00202333
0.00202333
0.00205109
0.00202333
0.00202333
0.00205326
0.00202116
0.00205109
0.00202333
0.00202333
0.00202116
0.00201625
0.00198426
0.00201409
0.00201409
0.00198642
0.00198642
0.00201624
0.00198426
0.00201409
0.00201409
0.00198642
0.00198642
0.00201409
0.00198642
0.00198642
0.00201625
0.00198426
0.00201409
0.00198642
0.00198642
0.00198426
0.00197936
0.00194748
0.00197722
0.00197722
0.00194964
0.00194964
0.00197936
0.00194748
0.00197722
0.00197722
0.00194964
0.00194964
0.00197722
0.00194964
0.00194964
0.00197936
0.00194748
0.00197721
0.00194964
0.00194964
0.00194748
0.00194259
0.00191083
0.00194046
0.00194046
0.00191297
0.00191297
0.00194259
0.00191083
0.00194046
0.00194046
0.00191297
0.00191297
0.00194046
0.00191297
0.00191297
0.00194259
0.00191083
0.00194046
0.00191297
0.00191297
0.00191083
0.00190595
0.00187428
0.00190383
0.00190383
0.00187642
0.00187642
0.00190595
0.00187428
0.00190383
0.00190383
0.00187642
0.00187642
0.00190383
0.00187642
0.00187642
0.00190595
0.00187428
0.00190383
0.00187642
0.00187642
0.00187428
0.00186941
0.00183784
0.0018673
0.0018673
0.00183997
0.00183997
0.00186941
0.00183784
0.0018673
0.0018673
0.00183997
0.00183998
0.0018673
0.00183997
0.00183997
0.00186941
0.00183785
0.0018673
0.00183997
0.00183997
0.00183785
0.00183299
0.0018015
0.00183088
0.00183088
0.00180363
0.00180363
0.00183299
0.0018015
0.00183088
0.00183088
0.00180363
0.00180363
0.00183088
0.00180363
0.00180363
0.00183299
0.0018015
0.00183088
0.00180363
0.00180363
0.0018015
0.00179665
0.00176529
0.00179455
0.00179455
0.0017674
0.0017674
0.00179665
0.00176529
0.00179455
0.00179455
0.0017674
0.0017674
0.00179455
0.0017674
0.0017674
0.00179665
0.00176529
0.00179455
0.0017674
0.0017674
0.00176529
0.00176045
0.00172908
0.00175836
0.00175836
0.0017312
0.0017312
0.00176045
0.00172908
0.00175836
0.00175836
0.0017312
0.0017312
0.00175836
0.0017312
0.0017312
0.00176045
0.00172908
0.00175836
0.0017312
0.0017312
0.00172908
0.00172425
0.00169312
0.00172217
0.00172217
0.00169521
0.00169521
0.00172425
0.00169312
0.00172217
0.00172217
0.00169521
0.00169521
0.00172217
0.00169521
0.00169521
0.00172425
0.00169312
0.00172217
0.00169521
0.00169521
0.00169312
0.00168829
0.00165698
0.00168621
0.00168622
0.00165912
0.00165912
0.00168829
0.00165698
0.00168621
0.00168621
0.00165912
0.00165912
0.00168622
0.00165912
0.00165912
0.00168829
0.00165698
0.00168622
0.00165912
0.00165912
0.00165699
0.00165216
0.00162135
0.0016501
0.0016501
0.00162335
0.00162334
0.00165216
0.00162134
0.0016501
0.0016501
0.00162335
0.00162335
0.0016501
0.00162334
0.00162334
0.00165216
0.00162134
0.0016501
0.00162334
0.00162334
0.00162133
0.00161657
0.0015852
0.00161448
0.00161447
0.0015874
0.00158742
0.00161656
0.00158521
0.00161447
0.00161448
0.0015874
0.00158739
0.00161447
0.00158741
0.00158743
0.00161657
0.0015852
0.00161447
0.00158741
0.00158743
0.00158523
0.00158033
0.00154986
0.0015783
0.00157831
0.0015518
0.00155179
0.00158034
0.00154984
0.0015783
0.0015783
0.0015518
0.0015518
0.00157831
0.00155179
0.00155178
0.00158033
0.00154985
0.00157832
0.00155179
0.00155178
0.00154983
0.00154524
0.00151404
0.00154321
0.0015432
0.00151631
0.00151633
0.00154523
0.00151405
0.00154321
0.00154321
0.00151631
0.00151631
0.00154319
0.00151632
0.00151634
0.00154524
0.00151404
0.00154319
0.00151633
0.00151634
0.00151406
0.00150893
0.00147806
0.00150684
0.00150685
0.00148001
0.00148
0.00150894
0.00147806
0.00150684
0.00150684
0.00148001
0.00148001
0.00150686
0.00148001
0.00147999
0.00150894
0.00147805
0.00150686
0.00148
0.00147999
0.00147804
0.00147393
0.00144804
0.00147227
0.00147226
0.00145008
0.00145008
0.00147393
0.00144804
0.00147227
0.00147227
0.00145007
0.00145007
0.00147226
0.00145007
0.0014501
0.00147393
0.00144804
0.00147226
0.00145009
0.0014501
0.00144807
0.00144328
0.00140845
0.00144137
0.00144137
0.00141111
0.00141111
0.00144328
0.00140844
0.00144137
0.00144136
0.00141111
0.00141111
0.00144139
0.00141111
0.00141111
0.00144328
0.00140845
0.00144139
0.00141111
0.00141111
0.00140844
0.00140244
0.00136696
0.00140008
0.00140007
0.00136876
0.00136877
0.00140244
0.00136696
0.00140008
0.00140008
0.00136876
0.00136876
0.00140007
0.00136877
0.00136877
0.00140244
0.00136696
0.00140007
0.00136877
0.00136877
0.00136696
0.00136202
0.00133346
0.00135965
0.00135965
0.00133505
0.00133505
0.00136203
0.00133346
0.00135965
0.00135965
0.00133505
0.00133505
0.00135965
0.00133505
0.00133505
0.00136202
0.00133346
0.00135965
0.00133505
0.00133505
0.00133346
0.00132941
0.00130444
0.00132757
0.00132757
0.00130639
0.00130639
0.00132941
0.00130444
0.00132757
0.00132757
0.00130639
0.00130639
0.00132757
0.00130639
0.00130639
0.00132941
0.00130444
0.00132757
0.00130639
0.00130639
0.00130444
0.00130056
0.00127554
0.00129927
0.00129927
0.00127766
0.00127766
0.00130055
0.00127555
0.00129927
0.00129927
0.00127766
0.00127766
0.00129926
0.00127766
0.00127766
0.00130056
0.00127554
0.00129926
0.00127766
0.00127766
0.00127554
0.00127155
0.00124474
0.00127025
0.00127025
0.00124687
0.00124687
0.00127155
0.00124474
0.00127025
0.00127025
0.00124688
0.00124687
0.00127025
0.00124687
0.00124687
0.00127155
0.00124474
0.00127025
0.00124688
0.00124687
0.00124474
0.0012403
0.00121096
0.00123868
0.00123868
0.00121306
0.00121306
0.0012403
0.00121096
0.00123868
0.00123868
0.00121306
0.00121306
0.00123868
0.00121306
0.00121306
0.0012403
0.00121096
0.00123868
0.00121306
0.00121306
0.00121096
0.00120616
0.00117521
0.00120425
0.00120425
0.0011773
0.0011773
0.00120616
0.00117521
0.00120425
0.00120425
0.0011773
0.0011773
0.00120425
0.0011773
0.0011773
0.00120616
0.00117521
0.00120425
0.0011773
0.0011773
0.00117521
0.00117026
0.00113873
0.0011682
0.0011682
0.00114079
0.00114079
0.00117026
0.00113873
0.0011682
0.0011682
0.00114079
0.00114079
0.0011682
0.00114079
0.00114079
0.00117026
0.00113873
0.0011682
0.00114079
0.00114079
0.00113873
0.00113374
0.00110211
0.00113164
0.00113164
0.00110419
0.00110419
0.00113374
0.00110211
0.00113164
0.00113164
0.00110418
0.00110419
0.00113164
0.00110419
0.00110419
0.00113374
0.00110211
0.00113164
0.00110419
0.00110419
0.00110211
0.00109713
0.00106554
0.00109504
0.00109504
0.00106762
0.00106762
0.00109713
0.00106554
0.00109504
0.00109504
0.00106762
0.00106762
0.00109504
0.00106762
0.00106762
0.00109713
0.00106554
0.00109504
0.00106762
0.00106762
0.00106554
0.00106057
0.001029
0.00105848
0.00105848
0.00103108
0.00103108
0.00106057
0.001029
0.00105848
0.00105848
0.00103108
0.00103108
0.00105848
0.00103108
0.00103108
0.00106057
0.001029
0.00105848
0.00103108
0.00103108
0.001029
0.00102403
0.000992454
0.00102194
0.00102194
0.000994529
0.000994529
0.00102402
0.000992455
0.00102194
0.00102194
0.000994529
0.000994529
0.00102194
0.000994529
0.000994529
0.00102402
0.000992454
0.00102194
0.000994529
0.000994529
0.000992454
0.000987474
0.000955887
0.000985388
0.000985388
0.000957962
0.000957962
0.000987474
0.000955887
0.000985388
0.000985388
0.000957962
0.000957962
0.000985388
0.000957962
0.000957962
0.000987474
0.000955886
0.000985388
0.000957961
0.000957962
0.000955886
0.000950905
0.000919311
0.000948818
0.000948818
0.000921386
0.000921386
0.000950905
0.000919311
0.000948818
0.000948818
0.000921386
0.000921386
0.000948818
0.000921386
0.000921386
0.000950904
0.00091931
0.000948818
0.000921386
0.000921386
0.000919311
0.000914328
0.000882729
0.000912241
0.000912241
0.000884802
0.000884802
0.000914328
0.000882729
0.000912241
0.000912241
0.000884802
0.000884803
0.000912241
0.000884802
0.000884803
0.000914328
0.000882729
0.000912241
0.000884803
0.000884803
0.000882729
0.000877745
0.000846143
0.000875657
0.000875657
0.000848218
0.000848218
0.000877745
0.000846143
0.000875657
0.000875657
0.000848218
0.000848218
0.000875657
0.000848218
0.000848218
0.000877746
0.000846142
0.000875657
0.000848218
0.000848218
0.000846142
0.000841159
0.000809556
0.000839072
0.000839072
0.000811631
0.000811631
0.000841159
0.000809556
0.000839072
0.000839071
0.000811631
0.00081163
0.000839072
0.000811631
0.000811631
0.000841159
0.000809555
0.000839071
0.00081163
0.000811631
0.000809555
0.000804571
0.00077297
0.000802484
0.000802484
0.000775044
0.000775045
0.000804571
0.000772971
0.000802484
0.000802484
0.000775044
0.000775045
0.000802484
0.000775045
0.000775046
0.000804571
0.000772972
0.000802484
0.000775045
0.000775045
0.000772971
0.000767988
0.000736386
0.0007659
0.0007659
0.000738462
0.000738462
0.000767988
0.000736386
0.000765899
0.0007659
0.000738462
0.000738462
0.0007659
0.000738462
0.000738462
0.000767988
0.000736386
0.0007659
0.000738462
0.000738462
0.000736386
0.000731402
0.000699799
0.000729315
0.000729315
0.000701875
0.000701875
0.000731401
0.000699799
0.000729315
0.000729315
0.000701875
0.000701875
0.000729315
0.000701875
0.000701875
0.000731402
0.000699799
0.000729314
0.000701875
0.000701875
0.000699799
0.000694814
0.000663202
0.000692727
0.000692726
0.000665277
0.000665277
0.000694814
0.000663203
0.000692726
0.000692726
0.000665277
0.000665277
0.000692726
0.000665277
0.000665277
0.000694814
0.000663202
0.000692726
0.000665277
0.000665277
0.000663202
0.000658218
0.000626611
0.000656129
0.000656129
0.000628687
0.000628687
0.000658218
0.000626612
0.000656129
0.000656129
0.000628687
0.000628687
0.00065613
0.000628687
0.000628687
0.000658218
0.000626612
0.00065613
0.000628687
0.000628687
0.000626612
0.000621626
0.000590027
0.000619538
0.000619538
0.000592102
0.000592102
0.000621626
0.000590027
0.000619538
0.000619538
0.000592102
0.000592102
0.000619538
0.000592102
0.000592102
0.000621626
0.000590027
0.000619538
0.000592102
0.000592102
0.000590027
0.000585043
0.000553441
0.000582956
0.000582956
0.000555515
0.000555515
0.000585043
0.000553441
0.000582956
0.000582956
0.000555515
0.000555515
0.000582956
0.000555515
0.000555515
0.000585043
0.000553441
0.000582956
0.000555515
0.000555515
0.000553441
0.000548458
0.000516854
0.000546371
0.00054637
0.000518929
0.000518929
0.000548458
0.000516854
0.000546371
0.000546371
0.000518928
0.000518928
0.000546371
0.000518929
0.000518929
0.000548458
0.000516853
0.000546371
0.000518928
0.000518929
0.000516854
0.000511871
0.000480268
0.000509783
0.000509783
0.000482344
0.000482344
0.000511871
0.000480268
0.000509783
0.000509783
0.000482344
0.000482344
0.000509784
0.000482343
0.000482344
0.00051187
0.000480269
0.000509784
0.000482344
0.000482344
0.000480268
0.000475284
0.000443686
0.000473197
0.000473196
0.000445762
0.000445762
0.000475283
0.000443687
0.000473197
0.000473197
0.000445762
0.000445762
0.000473197
0.000445762
0.000445762
0.000475284
0.000443686
0.000473197
0.000445762
0.000445762
0.000443687
0.000438701
0.000407102
0.000436614
0.000436614
0.000409176
0.000409176
0.000438701
0.000407102
0.000436614
0.000436615
0.000409176
0.000409176
0.000436615
0.000409175
0.000409175
0.000438702
0.000407101
0.000436615
0.000409176
0.000409176
0.000407101
0.000402119
0.000370517
0.000400032
0.000400032
0.000372593
0.000372593
0.000402118
0.000370518
0.000400032
0.000400032
0.000372592
0.000372592
0.000400031
0.000372593
0.000372593
0.000402119
0.000370517
0.000400032
0.000372593
0.000372593
0.000370518
0.000365532
0.000333935
0.000363446
0.000363446
0.000336009
0.000336009
0.000365532
0.000333935
0.000363445
0.000363445
0.000336009
0.000336009
0.000363446
0.000336008
0.000336009
0.000365532
0.000333935
0.000363446
0.000336009
0.000336009
0.000333935
0.00032895
0.000297346
0.000326864
0.000326864
0.00029942
0.00029942
0.00032895
0.000297346
0.000326863
0.000326863
0.00029942
0.00029942
0.000326864
0.00029942
0.00029942
0.000328951
0.000297346
0.000326864
0.00029942
0.00029942
0.000297346
0.000292362
0.000260762
0.000290275
0.000290275
0.000262837
0.000262837
0.000292361
0.000260762
0.000290275
0.000290275
0.000262837
0.000262837
0.000290275
0.000262837
0.000262837
0.000292362
0.000260762
0.000290275
0.000262837
0.000262837
0.000260762
0.000255776
0.00022418
0.000253692
0.000253692
0.000226253
0.000226253
0.000255776
0.000224181
0.000253692
0.000253692
0.000226253
0.000226253
0.000253692
0.000226253
0.000226253
0.000255777
0.00022418
0.000253692
0.000226253
0.000226253
0.00022418
0.000219194
0.000187597
0.000217111
0.00021711
0.000189668
0.000189668
0.000219194
0.000187597
0.00021711
0.00021711
0.000189668
0.000189669
0.000217111
0.000189669
0.000189669
0.000219194
0.000187597
0.00021711
0.000189669
0.000189669
0.000187597
0.000182608
0.000151017
0.000180527
0.000180527
0.000153088
0.000153088
0.000182608
0.000151017
0.000180527
0.000180527
0.000153087
0.000153088
0.000180527
0.000153088
0.000153088
0.000182608
0.000151017
0.000180527
0.000153088
0.000153088
0.000151017
0.000146019
0.000114435
0.000143945
0.000143945
0.000116502
0.000116502
0.000146019
0.000114436
0.000143945
0.000143945
0.000116501
0.000116501
0.000143945
0.000116502
0.000116502
0.000146019
0.000114436
0.000143945
0.000116501
0.000116502
0.000114436
0.000109421
7.78462e-05
0.000107362
0.000107362
7.99086e-05
7.99084e-05
0.000109421
7.78478e-05
0.000107361
0.000107362
7.99085e-05
7.99073e-05
0.000107362
7.99082e-05
7.9907e-05
0.000109422
7.78459e-05
0.000107362
7.99074e-05
7.9907e-05
7.7846e-05
7.27964e-05
4.1284e-05
7.07691e-05
7.07694e-05
4.33466e-05
4.33468e-05
7.27969e-05
4.12854e-05
7.07684e-05
7.07683e-05
4.33449e-05
4.33438e-05
7.07687e-05
4.33453e-05
4.33429e-05
7.27968e-05
4.12817e-05
7.07686e-05
4.33431e-05
4.33416e-05
4.12812e-05
3.62594e-05
8.60556e-06
3.43789e-05
3.4379e-05
1.17827e-05
1.17815e-05
3.62598e-05
8.60386e-06
3.43775e-05
3.43755e-05
1.17849e-05
1.17767e-05
3.43741e-05
1.17815e-05
1.17742e-05
3.62569e-05
8.60093e-06
3.43734e-05
1.17804e-05
1.17802e-05
8.59915e-06
5.31468e-06
7.31768e-06
7.31646e-06
5.31361e-06
7.3193e-06
7.31319e-06
6.15323e-06
6.15347e-06
6.15222e-06
7.31162e-06
5.31183e-06
7.31577e-06
0.00363883
0.0036486
0.00364339
0.0036434
0.00366578
0.00365256
0.00368117
0.0036466
0.00366578
0.00365256
0.00364661
0.00368117
0.00365713
0.00368491
0.00368491
0.00359419
0.00361334
0.00362253
0.00358627
0.00358701
0.00358978
0.00359417
0.00361331
0.00362252
0.00358625
0.00361705
0.00361705
0.00361705
0.00357365
0.00357365
0.00357364
0.00357364
0.00359169
0.00361751
0.00361745
0.00360052
0.00362054
0.00359059
0.0036014
0.00358711
0.00358978
0.0035917
0.00361745
0.00361753
0.00360052
0.00362054
0.0036014
0.00359059
0.00362339
0.00362338
0.00359492
0.00359023
0.00359023
0.00354756
0.00356684
0.0035682
0.0035461
0.00356575
0.00354566
0.00354756
0.00356683
0.0035682
0.00354609
0.00356169
0.00356169
0.00356169
0.0035241
0.00352411
0.0035241
0.0035241
0.00354615
0.00356691
0.00356169
0.00354982
0.0035657
0.00354669
0.00354955
0.00356574
0.00354565
0.00354615
0.00356169
0.00356691
0.00354982
0.0035657
0.00354955
0.00354669
0.00356793
0.00356793
0.00354637
0.00354702
0.00354702
0.0034953
0.0035141
0.00351517
0.00349427
0.00351374
0.00349399
0.0034953
0.0035141
0.00351517
0.00349427
0.00351094
0.00351094
0.00351094
0.00347156
0.00347156
0.00347156
0.00347156
0.0034944
0.0035145
0.00351082
0.00349777
0.00351394
0.00349476
0.00349768
0.00351374
0.00349399
0.0034944
0.00351082
0.0035145
0.00349777
0.00351394
0.00349768
0.00349476
0.00351474
0.00351474
0.00349439
0.00349483
0.00349483
0.00344277
0.00346143
0.00346229
0.003442
0.00346122
0.00344182
0.00344277
0.00346143
0.00346229
0.003442
0.00345856
0.00345856
0.00345856
0.00341993
0.00341993
0.00341993
0.00341993
0.00344226
0.00346183
0.00345852
0.00344562
0.00346155
0.00344245
0.00344558
0.00346122
0.00344182
0.00344226
0.00345852
0.00346183
0.00344562
0.00346155
0.00344558
0.00344245
0.00346187
0.00346187
0.00344231
0.00344239
0.00344239
0.00339158
0.00340993
0.00341056
0.00339102
0.00340979
0.00339089
0.00339158
0.00340993
0.00341056
0.00339102
0.00340721
0.00340721
0.00340721
0.00336959
0.00336959
0.00336959
0.00336959
0.00339131
0.00341028
0.00340719
0.00339458
0.00341011
0.00339141
0.00339456
0.00340979
0.00339089
0.00339131
0.00340719
0.00341028
0.00339458
0.00341011
0.00339456
0.00339141
0.00341027
0.00341027
0.00339139
0.00339132
0.00339132
0.00334193
0.00335988
0.00336034
0.00334154
0.00335977
0.00334141
0.00334193
0.00335988
0.00336034
0.00334154
0.00335723
0.00335723
0.00335723
0.00332071
0.00332071
0.00332071
0.00332071
0.00334182
0.00336018
0.00335722
0.00334498
0.00336007
0.00334189
0.00334496
0.00335976