/*--------------------------------*- C++ -*----------------------------------*\
| =========                 |                                                 |
| \\      /  F ield         | OpenFOAM: The Open Source CFD Toolbox           |
|  \\    /   O peration     | Version:  v2012                                 |
|   \\  /    A nd           | Website:  www.openfoam.com                      |
|    \\/     M anipulation  |                                                 |
\*---------------------------------------------------------------------------*/
FoamFile
{
    version     2.0;
    format      ascii;
    class       volScalarField;
    location    "25000";
    object      p;
}
// * * * * * * * * * * * * * * * * * * * * * * * * * * * * * * * * * * * * * //

dimensions      [0 2 -2 0 0 0 0];


internalField   nonuniform List<scalar> 
171728
(
1.31163e-07
1.31097e-07
1.31097e-07
1.31244e-07
1.28252e-07
1.28175e-07
1.28175e-07
1.28307e-07
1.26093e-07
1.26068e-07
1.26068e-07
1.26176e-07
1.24265e-07
1.24257e-07
1.24257e-07
1.24352e-07
1.22609e-07
1.22609e-07
1.22609e-07
1.22698e-07
1.21057e-07
1.21059e-07
1.21059e-07
1.21143e-07
1.19574e-07
1.19576e-07
1.19576e-07
1.19658e-07
1.18152e-07
1.18153e-07
1.18153e-07
1.18233e-07
1.16777e-07
1.16777e-07
1.16777e-07
1.16854e-07
1.15421e-07
1.15421e-07
1.15421e-07
1.15498e-07
1.14071e-07
1.14071e-07
1.14071e-07
1.14147e-07
1.12721e-07
1.12721e-07
1.12721e-07
1.12798e-07
1.11372e-07
1.11372e-07
1.11372e-07
1.11448e-07
1.10022e-07
1.10022e-07
1.10022e-07
1.10098e-07
1.08673e-07
1.08672e-07
1.08672e-07
1.08749e-07
1.07323e-07
1.07323e-07
1.07323e-07
1.07399e-07
1.05973e-07
1.05973e-07
1.05973e-07
1.06049e-07
1.04623e-07
1.04623e-07
1.04623e-07
1.047e-07
1.03274e-07
1.03273e-07
1.03273e-07
1.0335e-07
1.01924e-07
1.01924e-07
1.01924e-07
1.02e-07
1.00574e-07
1.00574e-07
1.00574e-07
1.0065e-07
9.92243e-08
9.92241e-08
9.92241e-08
9.93005e-08
9.78746e-08
9.78744e-08
9.78743e-08
9.79508e-08
9.65249e-08
9.65246e-08
9.65246e-08
9.66011e-08
9.51752e-08
9.51749e-08
9.51749e-08
9.52513e-08
9.38254e-08
9.38252e-08
9.38252e-08
9.39016e-08
9.24757e-08
9.24755e-08
9.24755e-08
9.25519e-08
9.11259e-08
9.11257e-08
9.11257e-08
9.12021e-08
8.97761e-08
8.97758e-08
8.97758e-08
8.98523e-08
8.84262e-08
8.8426e-08
8.8426e-08
8.85024e-08
8.70765e-08
8.70762e-08
8.70762e-08
8.71526e-08
8.57267e-08
8.57265e-08
8.57265e-08
8.58029e-08
8.4377e-08
8.43768e-08
8.43768e-08
8.44532e-08
8.30273e-08
8.3027e-08
8.3027e-08
8.31034e-08
8.16775e-08
8.16773e-08
8.16773e-08
8.17537e-08
8.03277e-08
8.03275e-08
8.03275e-08
8.04039e-08
7.89779e-08
7.89777e-08
7.89777e-08
7.90541e-08
7.76282e-08
7.7628e-08
7.7628e-08
7.77044e-08
7.62784e-08
7.62782e-08
7.62782e-08
7.63546e-08
7.49286e-08
7.49284e-08
7.49284e-08
7.50048e-08
7.35788e-08
7.35786e-08
7.35786e-08
7.3655e-08
7.22291e-08
7.22288e-08
7.22288e-08
7.23052e-08
7.08793e-08
7.0879e-08
7.0879e-08
7.09555e-08
6.95295e-08
6.95293e-08
6.95293e-08
6.96057e-08
6.81797e-08
6.81795e-08
6.81795e-08
6.82559e-08
6.68299e-08
6.68297e-08
6.68297e-08
6.69061e-08
6.54801e-08
6.54798e-08
6.54798e-08
6.55563e-08
6.41302e-08
6.413e-08
6.413e-08
6.42064e-08
6.27803e-08
6.27801e-08
6.27801e-08
6.28565e-08
6.14304e-08
6.14302e-08
6.14302e-08
6.15066e-08
6.00805e-08
6.00803e-08
6.00803e-08
6.01567e-08
5.87306e-08
5.87304e-08
5.87304e-08
5.88068e-08
5.73807e-08
5.73805e-08
5.73805e-08
5.74569e-08
5.60309e-08
5.60306e-08
5.60306e-08
5.61071e-08
5.4681e-08
5.46808e-08
5.46808e-08
5.47572e-08
5.33312e-08
5.3331e-08
5.3331e-08
5.34074e-08
5.19814e-08
5.19812e-08
5.19812e-08
5.20576e-08
5.06316e-08
5.06314e-08
5.06314e-08
5.07078e-08
4.92818e-08
4.92816e-08
4.92816e-08
4.9358e-08
4.7932e-08
4.79318e-08
4.79318e-08
4.80082e-08
4.65822e-08
4.6582e-08
4.6582e-08
4.66584e-08
4.52324e-08
4.52322e-08
4.52322e-08
4.53086e-08
4.38826e-08
4.38824e-08
4.38824e-08
4.39588e-08
4.25329e-08
4.25326e-08
4.25326e-08
4.26091e-08
4.11831e-08
4.11829e-08
4.11829e-08
4.12593e-08
3.98333e-08
3.98331e-08
3.98331e-08
3.99095e-08
3.84835e-08
3.84833e-08
3.84832e-08
3.85597e-08
3.71336e-08
3.71334e-08
3.71334e-08
3.72098e-08
3.57838e-08
3.57836e-08
3.57836e-08
3.586e-08
3.4434e-08
3.44337e-08
3.44337e-08
3.45101e-08
3.30841e-08
3.30839e-08
3.30839e-08
3.31603e-08
3.17343e-08
3.1734e-08
3.1734e-08
3.18104e-08
3.03844e-08
3.03841e-08
3.03841e-08
3.04606e-08
2.90345e-08
2.90343e-08
2.90343e-08
2.91107e-08
2.76846e-08
2.76844e-08
2.76844e-08
2.77608e-08
2.63347e-08
2.63345e-08
2.63345e-08
2.64109e-08
2.49848e-08
2.49846e-08
2.49845e-08
2.5061e-08
2.36349e-08
2.36347e-08
2.36347e-08
2.37111e-08
2.2285e-08
2.22848e-08
2.22848e-08
2.23612e-08
2.09352e-08
2.09349e-08
2.09349e-08
2.10113e-08
1.95853e-08
1.95851e-08
1.95851e-08
1.96615e-08
1.82354e-08
1.82352e-08
1.82352e-08
1.83116e-08
1.68856e-08
1.68854e-08
1.68854e-08
1.69618e-08
1.55357e-08
1.55355e-08
1.55355e-08
1.56119e-08
1.41859e-08
1.41856e-08
1.41856e-08
1.42621e-08
1.2836e-08
1.28358e-08
1.28358e-08
1.29122e-08
1.14861e-08
1.14859e-08
1.14859e-08
1.15623e-08
1.01362e-08
1.0136e-08
1.0136e-08
1.02124e-08
8.7863e-09
8.78606e-09
8.78606e-09
8.86249e-09
7.43634e-09
7.43609e-09
7.43611e-09
7.51253e-09
6.08632e-09
6.08609e-09
6.0861e-09
6.16251e-09
4.73625e-09
4.73605e-09
4.73606e-09
4.81247e-09
3.38624e-09
3.38594e-09
3.38593e-09
3.46244e-09
2.03982e-09
2.03558e-09
2.03556e-09
2.11363e-09
6.93214e-10
7.69228e-10
7.69206e-10
7.0657e-10
1.31755e-07
1.31829e-07
1.31829e-07
1.31755e-07
1.31829e-07
1.31829e-07
1.31997e-07
1.31997e-07
1.31997e-07
1.31997e-07
1.31829e-07
1.31829e-07
1.31755e-07
1.31829e-07
1.31829e-07
1.31755e-07
1.31244e-07
1.28647e-07
1.31097e-07
1.31097e-07
1.2879e-07
1.2879e-07
1.31244e-07
1.28647e-07
1.31097e-07
1.31097e-07
1.28789e-07
1.28789e-07
1.31097e-07
1.28789e-07
1.28789e-07
1.31244e-07
1.28647e-07
1.31097e-07
1.28789e-07
1.28789e-07
1.28647e-07
1.28307e-07
1.26447e-07
1.28175e-07
1.28175e-07
1.26559e-07
1.26559e-07
1.28307e-07
1.26447e-07
1.28175e-07
1.28175e-07
1.26559e-07
1.26559e-07
1.28175e-07
1.26558e-07
1.26558e-07
1.28307e-07
1.26447e-07
1.28175e-07
1.26558e-07
1.26558e-07
1.26447e-07
1.26176e-07
1.24588e-07
1.26068e-07
1.26068e-07
1.24691e-07
1.24691e-07
1.26176e-07
1.24588e-07
1.26068e-07
1.26068e-07
1.24691e-07
1.24691e-07
1.26068e-07
1.24691e-07
1.24691e-07
1.26176e-07
1.24588e-07
1.26068e-07
1.24691e-07
1.24691e-07
1.24588e-07
1.24352e-07
1.22916e-07
1.24257e-07
1.24257e-07
1.2301e-07
1.2301e-07
1.24352e-07
1.22916e-07
1.24258e-07
1.24257e-07
1.2301e-07
1.2301e-07
1.24257e-07
1.2301e-07
1.2301e-07
1.24352e-07
1.22916e-07
1.24257e-07
1.2301e-07
1.2301e-07
1.22916e-07
1.22698e-07
1.2135e-07
1.22609e-07
1.22609e-07
1.21439e-07
1.21439e-07
1.22698e-07
1.2135e-07
1.22609e-07
1.22609e-07
1.21439e-07
1.21439e-07
1.22609e-07
1.21439e-07
1.21439e-07
1.22698e-07
1.2135e-07
1.22609e-07
1.21439e-07
1.21439e-07
1.2135e-07
1.21143e-07
1.19857e-07
1.21059e-07
1.21059e-07
1.19941e-07
1.19941e-07
1.21143e-07
1.19857e-07
1.21059e-07
1.21059e-07
1.19942e-07
1.19941e-07
1.21059e-07
1.19941e-07
1.19941e-07
1.21143e-07
1.19857e-07
1.21059e-07
1.19941e-07
1.19941e-07
1.19856e-07
1.19658e-07
1.18424e-07
1.19576e-07
1.19576e-07
1.18504e-07
1.18504e-07
1.19658e-07
1.18424e-07
1.19576e-07
1.19576e-07
1.18504e-07
1.18504e-07
1.19576e-07
1.18504e-07
1.18504e-07
1.19658e-07
1.18424e-07
1.19576e-07
1.18504e-07
1.18504e-07
1.18424e-07
1.18233e-07
1.17041e-07
1.18154e-07
1.18153e-07
1.17118e-07
1.17118e-07
1.18233e-07
1.17041e-07
1.18154e-07
1.18153e-07
1.17118e-07
1.17118e-07
1.18153e-07
1.17118e-07
1.17118e-07
1.18233e-07
1.17041e-07
1.18153e-07
1.17118e-07
1.17118e-07
1.17041e-07
1.16854e-07
1.15683e-07
1.16777e-07
1.16777e-07
1.15759e-07
1.15759e-07
1.16854e-07
1.15683e-07
1.16777e-07
1.16777e-07
1.15759e-07
1.15759e-07
1.16777e-07
1.15759e-07
1.15759e-07
1.16854e-07
1.15683e-07
1.16777e-07
1.15759e-07
1.15759e-07
1.15683e-07
1.15498e-07
1.14332e-07
1.15421e-07
1.15421e-07
1.14408e-07
1.14408e-07
1.15498e-07
1.14332e-07
1.15421e-07
1.15421e-07
1.14408e-07
1.14408e-07
1.15421e-07
1.14408e-07
1.14408e-07
1.15498e-07
1.14332e-07
1.15421e-07
1.14408e-07
1.14408e-07
1.14332e-07
1.14147e-07
1.12982e-07
1.14071e-07
1.14071e-07
1.13059e-07
1.13059e-07
1.14147e-07
1.12982e-07
1.14071e-07
1.14071e-07
1.13059e-07
1.13059e-07
1.14071e-07
1.13059e-07
1.13059e-07
1.14147e-07
1.12982e-07
1.14071e-07
1.13059e-07
1.13059e-07
1.12982e-07
1.12798e-07
1.11633e-07
1.12721e-07
1.12721e-07
1.11709e-07
1.11709e-07
1.12798e-07
1.11633e-07
1.12721e-07
1.12721e-07
1.11709e-07
1.11709e-07
1.12721e-07
1.11709e-07
1.11709e-07
1.12798e-07
1.11633e-07
1.12721e-07
1.11709e-07
1.11709e-07
1.11633e-07
1.11448e-07
1.10283e-07
1.11372e-07
1.11372e-07
1.10359e-07
1.10359e-07
1.11448e-07
1.10283e-07
1.11372e-07
1.11372e-07
1.10359e-07
1.10359e-07
1.11372e-07
1.10359e-07
1.10359e-07
1.11448e-07
1.10283e-07
1.11372e-07
1.10359e-07
1.10359e-07
1.10283e-07
1.10098e-07
1.08933e-07
1.10022e-07
1.10022e-07
1.0901e-07
1.0901e-07
1.10098e-07
1.08933e-07
1.10022e-07
1.10022e-07
1.0901e-07
1.0901e-07
1.10022e-07
1.0901e-07
1.0901e-07
1.10098e-07
1.08933e-07
1.10022e-07
1.0901e-07
1.0901e-07
1.08933e-07
1.08749e-07
1.07584e-07
1.08672e-07
1.08672e-07
1.0766e-07
1.0766e-07
1.08749e-07
1.07584e-07
1.08672e-07
1.08672e-07
1.0766e-07
1.0766e-07
1.08672e-07
1.0766e-07
1.0766e-07
1.08749e-07
1.07584e-07
1.08672e-07
1.0766e-07
1.0766e-07
1.07584e-07
1.07399e-07
1.06234e-07
1.07323e-07
1.07323e-07
1.0631e-07
1.0631e-07
1.07399e-07
1.06234e-07
1.07323e-07
1.07323e-07
1.0631e-07
1.0631e-07
1.07323e-07
1.0631e-07
1.0631e-07
1.07399e-07
1.06234e-07
1.07323e-07
1.0631e-07
1.0631e-07
1.06234e-07
1.06049e-07
1.04884e-07
1.05973e-07
1.05973e-07
1.04961e-07
1.04961e-07
1.06049e-07
1.04884e-07
1.05973e-07
1.05973e-07
1.04961e-07
1.04961e-07
1.05973e-07
1.04961e-07
1.04961e-07
1.06049e-07
1.04884e-07
1.05973e-07
1.04961e-07
1.04961e-07
1.04884e-07
1.047e-07
1.03534e-07
1.04623e-07
1.04623e-07
1.03611e-07
1.03611e-07
1.047e-07
1.03534e-07
1.04623e-07
1.04623e-07
1.03611e-07
1.03611e-07
1.04623e-07
1.03611e-07
1.03611e-07
1.047e-07
1.03534e-07
1.04623e-07
1.03611e-07
1.03611e-07
1.03534e-07
1.0335e-07
1.02185e-07
1.03273e-07
1.03273e-07
1.02261e-07
1.02261e-07
1.0335e-07
1.02185e-07
1.03273e-07
1.03273e-07
1.02261e-07
1.02261e-07
1.03273e-07
1.02261e-07
1.02261e-07
1.0335e-07
1.02185e-07
1.03273e-07
1.02261e-07
1.02261e-07
1.02185e-07
1.02e-07
1.00835e-07
1.01924e-07
1.01924e-07
1.00911e-07
1.00911e-07
1.02e-07
1.00835e-07
1.01924e-07
1.01924e-07
1.00911e-07
1.00911e-07
1.01924e-07
1.00911e-07
1.00911e-07
1.02e-07
1.00835e-07
1.01924e-07
1.00911e-07
1.00911e-07
1.00835e-07
1.0065e-07
9.94852e-08
1.00574e-07
1.00574e-07
9.95615e-08
9.95615e-08
1.0065e-07
9.94852e-08
1.00574e-07
1.00574e-07
9.95615e-08
9.95615e-08
1.00574e-07
9.95615e-08
9.95615e-08
1.0065e-07
9.94852e-08
1.00574e-07
9.95615e-08
9.95615e-08
9.94852e-08
9.93005e-08
9.81354e-08
9.92241e-08
9.92241e-08
9.82118e-08
9.82118e-08
9.93005e-08
9.81355e-08
9.92241e-08
9.92241e-08
9.82118e-08
9.82118e-08
9.92241e-08
9.82118e-08
9.82118e-08
9.93005e-08
9.81354e-08
9.92241e-08
9.82118e-08
9.82118e-08
9.81354e-08
9.79508e-08
9.67857e-08
9.78743e-08
9.78743e-08
9.68621e-08
9.68621e-08
9.79508e-08
9.67857e-08
9.78743e-08
9.78743e-08
9.68621e-08
9.68621e-08
9.78744e-08
9.68621e-08
9.68621e-08
9.79508e-08
9.67857e-08
9.78744e-08
9.68621e-08
9.68621e-08
9.67857e-08
9.6601e-08
9.5436e-08
9.65246e-08
9.65246e-08
9.55124e-08
9.55123e-08
9.6601e-08
9.5436e-08
9.65246e-08
9.65246e-08
9.55124e-08
9.55124e-08
9.65246e-08
9.55123e-08
9.55123e-08
9.6601e-08
9.5436e-08
9.65246e-08
9.55123e-08
9.55123e-08
9.5436e-08
9.52513e-08
9.40863e-08
9.51749e-08
9.51749e-08
9.41626e-08
9.41626e-08
9.52513e-08
9.40863e-08
9.51749e-08
9.51749e-08
9.41626e-08
9.41626e-08
9.51749e-08
9.41626e-08
9.41626e-08
9.52513e-08
9.40863e-08
9.51749e-08
9.41626e-08
9.41626e-08
9.40863e-08
9.39016e-08
9.27366e-08
9.38252e-08
9.38252e-08
9.28129e-08
9.28129e-08
9.39016e-08
9.27366e-08
9.38252e-08
9.38252e-08
9.28129e-08
9.28129e-08
9.38252e-08
9.28129e-08
9.28129e-08
9.39016e-08
9.27366e-08
9.38252e-08
9.28129e-08
9.28129e-08
9.27366e-08
9.25519e-08
9.13868e-08
9.24755e-08
9.24755e-08
9.14631e-08
9.14631e-08
9.25519e-08
9.13868e-08
9.24755e-08
9.24755e-08
9.14631e-08
9.14631e-08
9.24755e-08
9.14631e-08
9.14631e-08
9.25519e-08
9.13868e-08
9.24755e-08
9.14631e-08
9.14631e-08
9.13868e-08
9.12021e-08
9.0037e-08
9.11257e-08
9.11257e-08
9.01133e-08
9.01133e-08
9.12021e-08
9.0037e-08
9.11257e-08
9.11257e-08
9.01133e-08
9.01133e-08
9.11257e-08
9.01133e-08
9.01133e-08
9.12021e-08
9.0037e-08
9.11257e-08
9.01133e-08
9.01133e-08
9.0037e-08
8.98523e-08
8.86871e-08
8.97759e-08
8.97758e-08
8.87635e-08
8.87635e-08
8.98523e-08
8.86871e-08
8.97759e-08
8.97759e-08
8.87635e-08
8.87635e-08
8.97758e-08
8.87635e-08
8.87635e-08
8.98523e-08
8.86871e-08
8.97758e-08
8.87635e-08
8.87635e-08
8.86871e-08
8.85024e-08
8.73373e-08
8.8426e-08
8.8426e-08
8.74137e-08
8.74137e-08
8.85024e-08
8.73373e-08
8.8426e-08
8.8426e-08
8.74137e-08
8.74137e-08
8.8426e-08
8.74137e-08
8.74137e-08
8.85024e-08
8.73373e-08
8.8426e-08
8.74137e-08
8.74137e-08
8.73373e-08
8.71526e-08
8.59876e-08
8.70762e-08
8.70762e-08
8.60639e-08
8.60639e-08
8.71526e-08
8.59876e-08
8.70762e-08
8.70762e-08
8.60639e-08
8.60639e-08
8.70762e-08
8.60639e-08
8.60639e-08
8.71526e-08
8.59876e-08
8.70762e-08
8.60639e-08
8.60639e-08
8.59876e-08
8.58029e-08
8.46379e-08
8.57265e-08
8.57265e-08
8.47142e-08
8.47142e-08
8.58029e-08
8.46379e-08
8.57265e-08
8.57265e-08
8.47142e-08
8.47142e-08
8.57265e-08
8.47142e-08
8.47142e-08
8.58029e-08
8.46379e-08
8.57265e-08
8.47142e-08
8.47142e-08
8.46378e-08
8.44532e-08
8.32881e-08
8.43768e-08
8.43768e-08
8.33645e-08
8.33645e-08
8.44532e-08
8.32881e-08
8.43768e-08
8.43768e-08
8.33645e-08
8.33645e-08
8.43768e-08
8.33645e-08
8.33645e-08
8.44532e-08
8.32881e-08
8.43768e-08
8.33645e-08
8.33645e-08
8.32881e-08
8.31034e-08
8.19384e-08
8.3027e-08
8.3027e-08
8.20147e-08
8.20147e-08
8.31034e-08
8.19384e-08
8.3027e-08
8.3027e-08
8.20147e-08
8.20147e-08
8.3027e-08
8.20147e-08
8.20147e-08
8.31034e-08
8.19384e-08
8.3027e-08
8.20147e-08
8.20147e-08
8.19384e-08
8.17537e-08
8.05886e-08
8.16773e-08
8.16773e-08
8.06649e-08
8.06649e-08
8.17537e-08
8.05886e-08
8.16773e-08
8.16773e-08
8.06649e-08
8.06649e-08
8.16773e-08
8.06649e-08
8.06649e-08
8.17537e-08
8.05886e-08
8.16773e-08
8.06649e-08
8.06649e-08
8.05886e-08
8.04039e-08
7.92388e-08
8.03275e-08
8.03275e-08
7.93152e-08
7.93152e-08
8.04039e-08
7.92388e-08
8.03275e-08
8.03275e-08
7.93152e-08
7.93152e-08
8.03275e-08
7.93152e-08
7.93152e-08
8.04039e-08
7.92388e-08
8.03275e-08
7.93152e-08
7.93152e-08
7.92388e-08
7.90541e-08
7.78891e-08
7.89777e-08
7.89777e-08
7.79654e-08
7.79654e-08
7.90541e-08
7.78891e-08
7.89777e-08
7.89777e-08
7.79654e-08
7.79654e-08
7.89777e-08
7.79654e-08
7.79654e-08
7.90541e-08
7.78891e-08
7.89777e-08
7.79654e-08
7.79654e-08
7.78891e-08
7.77044e-08
7.65393e-08
7.7628e-08
7.7628e-08
7.66156e-08
7.66156e-08
7.77044e-08
7.65393e-08
7.7628e-08
7.7628e-08
7.66156e-08
7.66156e-08
7.7628e-08
7.66156e-08
7.66156e-08
7.77044e-08
7.65393e-08
7.7628e-08
7.66156e-08
7.66156e-08
7.65393e-08
7.63546e-08
7.51895e-08
7.62782e-08
7.62782e-08
7.52659e-08
7.52659e-08
7.63546e-08
7.51895e-08
7.62782e-08
7.62782e-08
7.52659e-08
7.52659e-08
7.62782e-08
7.52659e-08
7.52659e-08
7.63546e-08
7.51895e-08
7.62782e-08
7.52659e-08
7.52659e-08
7.51895e-08
7.50048e-08
7.38397e-08
7.49284e-08
7.49284e-08
7.39161e-08
7.39161e-08
7.50048e-08
7.38397e-08
7.49284e-08
7.49284e-08
7.39161e-08
7.39161e-08
7.49284e-08
7.39161e-08
7.39161e-08
7.50048e-08
7.38397e-08
7.49284e-08
7.39161e-08
7.39161e-08
7.38397e-08
7.3655e-08
7.24899e-08
7.35786e-08
7.35786e-08
7.25663e-08
7.25663e-08
7.3655e-08
7.24899e-08
7.35786e-08
7.35786e-08
7.25663e-08
7.25663e-08
7.35786e-08
7.25663e-08
7.25663e-08
7.3655e-08
7.24899e-08
7.35786e-08
7.25663e-08
7.25663e-08
7.24899e-08
7.23052e-08
7.11402e-08
7.22288e-08
7.22288e-08
7.12165e-08
7.12165e-08
7.23052e-08
7.11402e-08
7.22288e-08
7.22288e-08
7.12165e-08
7.12165e-08
7.22288e-08
7.12165e-08
7.12165e-08
7.23052e-08
7.11401e-08
7.22288e-08
7.12165e-08
7.12165e-08
7.11401e-08
7.09555e-08
6.97904e-08
7.0879e-08
7.0879e-08
6.98667e-08
6.98667e-08
7.09555e-08
6.97904e-08
7.0879e-08
7.0879e-08
6.98667e-08
6.98667e-08
7.0879e-08
6.98667e-08
6.98667e-08
7.09555e-08
6.97904e-08
7.0879e-08
6.98667e-08
6.98667e-08
6.97904e-08
6.96057e-08
6.84406e-08
6.95293e-08
6.95293e-08
6.85169e-08
6.85169e-08
6.96057e-08
6.84406e-08
6.95293e-08
6.95293e-08
6.85169e-08
6.85169e-08
6.95293e-08
6.85169e-08
6.85169e-08
6.96057e-08
6.84406e-08
6.95293e-08
6.85169e-08
6.85169e-08
6.84406e-08
6.82559e-08
6.70908e-08
6.81795e-08
6.81795e-08
6.71671e-08
6.71671e-08
6.82559e-08
6.70908e-08
6.81795e-08
6.81795e-08
6.71671e-08
6.71671e-08
6.81795e-08
6.71671e-08
6.71671e-08
6.82559e-08
6.70908e-08
6.81795e-08
6.71671e-08
6.71671e-08
6.70908e-08
6.69061e-08
6.5741e-08
6.68297e-08
6.68297e-08
6.58173e-08
6.58173e-08
6.69061e-08
6.5741e-08
6.68297e-08
6.68297e-08
6.58173e-08
6.58173e-08
6.68297e-08
6.58173e-08
6.58173e-08
6.69061e-08
6.5741e-08
6.68297e-08
6.58173e-08
6.58173e-08
6.5741e-08
6.55563e-08
6.43911e-08
6.54799e-08
6.54798e-08
6.44674e-08
6.44674e-08
6.55563e-08
6.43911e-08
6.54798e-08
6.54798e-08
6.44674e-08
6.44674e-08
6.54798e-08
6.44674e-08
6.44674e-08
6.55563e-08
6.43911e-08
6.54798e-08
6.44674e-08
6.44674e-08
6.43911e-08
6.42064e-08
6.30412e-08
6.413e-08
6.413e-08
6.31175e-08
6.31175e-08
6.42064e-08
6.30412e-08
6.413e-08
6.413e-08
6.31175e-08
6.31175e-08
6.413e-08
6.31175e-08
6.31175e-08
6.42064e-08
6.30412e-08
6.413e-08
6.31175e-08
6.31175e-08
6.30412e-08
6.28565e-08
6.16913e-08
6.27801e-08
6.27801e-08
6.17676e-08
6.17676e-08
6.28565e-08
6.16913e-08
6.27801e-08
6.27801e-08
6.17676e-08
6.17676e-08
6.27801e-08
6.17676e-08
6.17676e-08
6.28565e-08
6.16913e-08
6.27801e-08
6.17676e-08
6.17676e-08
6.16913e-08
6.15066e-08
6.03414e-08
6.14302e-08
6.14302e-08
6.04178e-08
6.04178e-08
6.15066e-08
6.03414e-08
6.14302e-08
6.14302e-08
6.04178e-08
6.04178e-08
6.14302e-08
6.04178e-08
6.04178e-08
6.15066e-08
6.03414e-08
6.14302e-08
6.04178e-08
6.04178e-08
6.03414e-08
6.01567e-08
5.89915e-08
6.00803e-08
6.00803e-08
5.90679e-08
5.90679e-08
6.01567e-08
5.89915e-08
6.00803e-08
6.00803e-08
5.90679e-08
5.90679e-08
6.00803e-08
5.90679e-08
5.90679e-08
6.01567e-08
5.89915e-08
6.00803e-08
5.90679e-08
5.90679e-08
5.89915e-08
5.88068e-08
5.76416e-08
5.87304e-08
5.87304e-08
5.7718e-08
5.7718e-08
5.88068e-08
5.76416e-08
5.87304e-08
5.87304e-08
5.7718e-08
5.7718e-08
5.87304e-08
5.7718e-08
5.7718e-08
5.88068e-08
5.76416e-08
5.87304e-08
5.7718e-08
5.7718e-08
5.76416e-08
5.74569e-08
5.62918e-08
5.73805e-08
5.73805e-08
5.63681e-08
5.63681e-08
5.74569e-08
5.62918e-08
5.73805e-08
5.73805e-08
5.63681e-08
5.63681e-08
5.73805e-08
5.63681e-08
5.63681e-08
5.74569e-08
5.62918e-08
5.73805e-08
5.63681e-08
5.63681e-08
5.62918e-08
5.61071e-08
5.49419e-08
5.60306e-08
5.60306e-08
5.50183e-08
5.50183e-08
5.61071e-08
5.49419e-08
5.60306e-08
5.60306e-08
5.50183e-08
5.50183e-08
5.60306e-08
5.50183e-08
5.50183e-08
5.61071e-08
5.49419e-08
5.60306e-08
5.50183e-08
5.50183e-08
5.49419e-08
5.47572e-08
5.35921e-08
5.46808e-08
5.46808e-08
5.36685e-08
5.36685e-08
5.47572e-08
5.35921e-08
5.46808e-08
5.46808e-08
5.36684e-08
5.36684e-08
5.46808e-08
5.36685e-08
5.36685e-08
5.47572e-08
5.35921e-08
5.46808e-08
5.36684e-08
5.36684e-08
5.35921e-08
5.34074e-08
5.22423e-08
5.3331e-08
5.3331e-08
5.23186e-08
5.23186e-08
5.34074e-08
5.22423e-08
5.3331e-08
5.3331e-08
5.23186e-08
5.23186e-08
5.3331e-08
5.23187e-08
5.23186e-08
5.34074e-08
5.22423e-08
5.3331e-08
5.23186e-08
5.23186e-08
5.22423e-08
5.20576e-08
5.08925e-08
5.19812e-08
5.19812e-08
5.09688e-08
5.09688e-08
5.20576e-08
5.08925e-08
5.19812e-08
5.19812e-08
5.09688e-08
5.09688e-08
5.19812e-08
5.09688e-08
5.09688e-08
5.20576e-08
5.08925e-08
5.19812e-08
5.09688e-08
5.09688e-08
5.08925e-08
5.07078e-08
4.95427e-08
5.06314e-08
5.06314e-08
4.9619e-08
4.9619e-08
5.07078e-08
4.95427e-08
5.06314e-08
5.06314e-08
4.9619e-08
4.9619e-08
5.06314e-08
4.9619e-08
4.9619e-08
5.07078e-08
4.95427e-08
5.06314e-08
4.9619e-08
4.9619e-08
4.95427e-08
4.9358e-08
4.81929e-08
4.92816e-08
4.92816e-08
4.82692e-08
4.82692e-08
4.9358e-08
4.81929e-08
4.92816e-08
4.92816e-08
4.82692e-08
4.82692e-08
4.92816e-08
4.82692e-08
4.82692e-08
4.9358e-08
4.81929e-08
4.92816e-08
4.82692e-08
4.82692e-08
4.81929e-08
4.80082e-08
4.68431e-08
4.79318e-08
4.79318e-08
4.69194e-08
4.69194e-08
4.80082e-08
4.68431e-08
4.79318e-08
4.79318e-08
4.69194e-08
4.69194e-08
4.79318e-08
4.69194e-08
4.69194e-08
4.80082e-08
4.68431e-08
4.79318e-08
4.69194e-08
4.69194e-08
4.68431e-08
4.66584e-08
4.54933e-08
4.6582e-08
4.6582e-08
4.55696e-08
4.55696e-08
4.66584e-08
4.54933e-08
4.6582e-08
4.6582e-08
4.55696e-08
4.55696e-08
4.6582e-08
4.55696e-08
4.55696e-08
4.66584e-08
4.54933e-08
4.6582e-08
4.55696e-08
4.55696e-08
4.54933e-08
4.53086e-08
4.41435e-08
4.52322e-08
4.52322e-08
4.42198e-08
4.42198e-08
4.53086e-08
4.41435e-08
4.52322e-08
4.52322e-08
4.42198e-08
4.42198e-08
4.52322e-08
4.42198e-08
4.42198e-08
4.53086e-08
4.41435e-08
4.52322e-08
4.42198e-08
4.42198e-08
4.41435e-08
4.39588e-08
4.27937e-08
4.38824e-08
4.38824e-08
4.28701e-08
4.28701e-08
4.39588e-08
4.27938e-08
4.38824e-08
4.38824e-08
4.28701e-08
4.28701e-08
4.38824e-08
4.28701e-08
4.28701e-08
4.39588e-08
4.27937e-08
4.38824e-08
4.28701e-08
4.28701e-08
4.27937e-08
4.26091e-08
4.1444e-08
4.25326e-08
4.25326e-08
4.15203e-08
4.15203e-08
4.26091e-08
4.1444e-08
4.25326e-08
4.25326e-08
4.15203e-08
4.15203e-08
4.25326e-08
4.15203e-08
4.15203e-08
4.26091e-08
4.1444e-08
4.25326e-08
4.15203e-08
4.15203e-08
4.1444e-08
4.12593e-08
4.00942e-08
4.11829e-08
4.11829e-08
4.01705e-08
4.01705e-08
4.12593e-08
4.00942e-08
4.11829e-08
4.11829e-08
4.01705e-08
4.01705e-08
4.11829e-08
4.01705e-08
4.01705e-08
4.12593e-08
4.00942e-08
4.11829e-08
4.01705e-08
4.01705e-08
4.00942e-08
3.99095e-08
3.87444e-08
3.98331e-08
3.98331e-08
3.88207e-08
3.88207e-08
3.99095e-08
3.87444e-08
3.98331e-08
3.98331e-08
3.88207e-08
3.88207e-08
3.98331e-08
3.88207e-08
3.88207e-08
3.99095e-08
3.87444e-08
3.98331e-08
3.88207e-08
3.88207e-08
3.87444e-08
3.85597e-08
3.73945e-08
3.84833e-08
3.84833e-08
3.74709e-08
3.74709e-08
3.85597e-08
3.73945e-08
3.84832e-08
3.84832e-08
3.74709e-08
3.74709e-08
3.84832e-08
3.74709e-08
3.74709e-08
3.85597e-08
3.73945e-08
3.84832e-08
3.74709e-08
3.74709e-08
3.73945e-08
3.72098e-08
3.60447e-08
3.71334e-08
3.71334e-08
3.6121e-08
3.6121e-08
3.72098e-08
3.60447e-08
3.71334e-08
3.71334e-08
3.6121e-08
3.6121e-08
3.71334e-08
3.6121e-08
3.6121e-08
3.72098e-08
3.60447e-08
3.71334e-08
3.6121e-08
3.6121e-08
3.60447e-08
3.586e-08
3.46948e-08
3.57836e-08
3.57836e-08
3.47712e-08
3.47712e-08
3.586e-08
3.46949e-08
3.57836e-08
3.57836e-08
3.47712e-08
3.47712e-08
3.57836e-08
3.47712e-08
3.47712e-08
3.586e-08
3.46948e-08
3.57836e-08
3.47712e-08
3.47712e-08
3.46948e-08
3.45101e-08
3.3345e-08
3.44337e-08
3.44337e-08
3.34213e-08
3.34213e-08
3.45101e-08
3.3345e-08
3.44337e-08
3.44337e-08
3.34213e-08
3.34213e-08
3.44337e-08
3.34213e-08
3.34213e-08
3.45101e-08
3.3345e-08
3.44337e-08
3.34213e-08
3.34213e-08
3.3345e-08
3.31603e-08
3.19952e-08
3.30839e-08
3.30839e-08
3.20715e-08
3.20715e-08
3.31603e-08
3.19952e-08
3.30839e-08
3.30839e-08
3.20715e-08
3.20715e-08
3.30839e-08
3.20715e-08
3.20715e-08
3.31603e-08
3.19952e-08
3.30839e-08
3.20715e-08
3.20715e-08
3.19951e-08
3.18104e-08
3.06453e-08
3.1734e-08
3.1734e-08
3.07216e-08
3.07216e-08
3.18104e-08
3.06453e-08
3.1734e-08
3.1734e-08
3.07216e-08
3.07216e-08
3.1734e-08
3.07216e-08
3.07216e-08
3.18105e-08
3.06453e-08
3.1734e-08
3.07216e-08
3.07216e-08
3.06453e-08
3.04606e-08
2.92954e-08
3.03841e-08
3.03841e-08
2.93717e-08
2.93717e-08
3.04606e-08
2.92954e-08
3.03841e-08
3.03841e-08
2.93717e-08
2.93717e-08
3.03842e-08
2.93717e-08
2.93717e-08
3.04606e-08
2.92954e-08
3.03841e-08
2.93717e-08
2.93717e-08
2.92954e-08
2.91107e-08
2.79455e-08
2.90343e-08
2.90343e-08
2.80218e-08
2.80218e-08
2.91107e-08
2.79455e-08
2.90343e-08
2.90343e-08
2.80218e-08
2.80218e-08
2.90343e-08
2.80218e-08
2.80218e-08
2.91107e-08
2.79455e-08
2.90343e-08
2.80218e-08
2.80218e-08
2.79455e-08
2.77608e-08
2.65956e-08
2.76844e-08
2.76844e-08
2.66719e-08
2.66719e-08
2.77608e-08
2.65956e-08
2.76844e-08
2.76844e-08
2.66719e-08
2.66719e-08
2.76844e-08
2.66719e-08
2.66719e-08
2.77608e-08
2.65956e-08
2.76844e-08
2.66719e-08
2.66719e-08
2.65956e-08
2.64109e-08
2.52457e-08
2.63345e-08
2.63345e-08
2.5322e-08
2.5322e-08
2.64109e-08
2.52457e-08
2.63345e-08
2.63345e-08
2.5322e-08
2.5322e-08
2.63345e-08
2.5322e-08
2.5322e-08
2.64109e-08
2.52457e-08
2.63344e-08
2.5322e-08
2.5322e-08
2.52457e-08
2.5061e-08
2.38958e-08
2.49846e-08
2.49846e-08
2.39721e-08
2.39721e-08
2.5061e-08
2.38958e-08
2.49845e-08
2.49845e-08
2.39721e-08
2.39721e-08
2.49846e-08
2.39721e-08
2.39721e-08
2.5061e-08
2.38958e-08
2.49846e-08
2.39721e-08
2.39721e-08
2.38958e-08
2.37111e-08
2.25459e-08
2.36347e-08
2.36347e-08
2.26223e-08
2.26223e-08
2.37111e-08
2.25459e-08
2.36347e-08
2.36347e-08
2.26223e-08
2.26223e-08
2.36347e-08
2.26223e-08
2.26223e-08
2.37111e-08
2.25459e-08
2.36347e-08
2.26223e-08
2.26223e-08
2.25459e-08
2.23612e-08
2.11961e-08
2.22848e-08
2.22848e-08
2.12724e-08
2.12724e-08
2.23612e-08
2.11961e-08
2.22848e-08
2.22848e-08
2.12724e-08
2.12724e-08
2.22848e-08
2.12724e-08
2.12724e-08
2.23612e-08
2.11961e-08
2.22848e-08
2.12724e-08
2.12724e-08
2.1196e-08
2.10113e-08
1.98462e-08
2.09349e-08
2.09349e-08
1.99225e-08
1.99225e-08
2.10113e-08
1.98462e-08
2.09349e-08
2.09349e-08
1.99225e-08
1.99225e-08
2.09349e-08
1.99225e-08
1.99225e-08
2.10113e-08
1.98462e-08
2.09349e-08
1.99225e-08
1.99225e-08
1.98462e-08
1.96615e-08
1.84963e-08
1.95851e-08
1.95851e-08
1.85727e-08
1.85727e-08
1.96615e-08
1.84963e-08
1.95851e-08
1.95851e-08
1.85727e-08
1.85727e-08
1.95851e-08
1.85727e-08
1.85727e-08
1.96615e-08
1.84963e-08
1.95851e-08
1.85727e-08
1.85727e-08
1.84963e-08
1.83116e-08
1.71465e-08
1.82352e-08
1.82352e-08
1.72228e-08
1.72228e-08
1.83116e-08
1.71465e-08
1.82352e-08
1.82352e-08
1.72228e-08
1.72228e-08
1.82352e-08
1.72228e-08
1.72228e-08
1.83116e-08
1.71465e-08
1.82352e-08
1.72228e-08
1.72228e-08
1.71465e-08
1.69618e-08
1.57966e-08
1.68854e-08
1.68854e-08
1.5873e-08
1.5873e-08
1.69618e-08
1.57966e-08
1.68854e-08
1.68854e-08
1.5873e-08
1.5873e-08
1.68854e-08
1.5873e-08
1.5873e-08
1.69618e-08
1.57966e-08
1.68854e-08
1.5873e-08
1.5873e-08
1.57966e-08
1.56119e-08
1.44468e-08
1.55355e-08
1.55355e-08
1.45231e-08
1.45231e-08
1.56119e-08
1.44468e-08
1.55355e-08
1.55355e-08
1.45231e-08
1.45231e-08
1.55355e-08
1.45231e-08
1.45231e-08
1.56119e-08
1.44468e-08
1.55355e-08
1.45231e-08
1.45231e-08
1.44468e-08
1.42621e-08
1.30969e-08
1.41856e-08
1.41856e-08
1.31732e-08
1.31732e-08
1.42621e-08
1.30969e-08
1.41856e-08
1.41856e-08
1.31732e-08
1.31732e-08
1.41856e-08
1.31732e-08
1.31732e-08
1.42621e-08
1.30969e-08
1.41856e-08
1.31732e-08
1.31732e-08
1.30969e-08
1.29122e-08
1.1747e-08
1.28358e-08
1.28358e-08
1.18233e-08
1.18233e-08
1.29122e-08
1.1747e-08
1.28358e-08
1.28358e-08
1.18233e-08
1.18233e-08
1.28358e-08
1.18233e-08
1.18233e-08
1.29122e-08
1.1747e-08
1.28358e-08
1.18234e-08
1.18233e-08
1.1747e-08
1.15623e-08
1.03971e-08
1.14859e-08
1.14859e-08
1.04735e-08
1.04735e-08
1.15623e-08
1.03971e-08
1.14859e-08
1.14859e-08
1.04734e-08
1.04734e-08
1.14859e-08
1.04735e-08
1.04735e-08
1.15623e-08
1.03971e-08
1.14859e-08
1.04734e-08
1.04735e-08
1.03971e-08
1.02124e-08
9.0472e-09
1.0136e-08
1.0136e-08
9.12355e-09
9.12354e-09
1.02124e-08
9.04721e-09
1.0136e-08
1.0136e-08
9.12354e-09
9.12354e-09
1.0136e-08
9.12355e-09
9.12355e-09
1.02124e-08
9.04719e-09
1.0136e-08
9.12354e-09
9.12354e-09
9.0472e-09
8.86249e-09
7.69725e-09
8.78607e-09
8.78606e-09
7.77359e-09
7.77358e-09
8.86248e-09
7.69725e-09
8.78607e-09
8.78606e-09
7.77359e-09
7.7736e-09
8.78607e-09
7.77359e-09
7.77359e-09
8.86249e-09
7.69725e-09
8.78606e-09
7.7736e-09
7.77359e-09
7.69724e-09
7.51253e-09
6.34724e-09
7.4361e-09
7.4361e-09
6.42358e-09
6.42358e-09
7.51251e-09
6.34724e-09
7.43611e-09
7.43611e-09
6.42358e-09
6.42359e-09
7.4361e-09
6.42357e-09
6.42358e-09
7.51254e-09
6.34723e-09
7.4361e-09
6.42358e-09
6.42358e-09
6.34723e-09
6.16252e-09
4.99717e-09
6.0861e-09
6.0861e-09
5.07352e-09
5.07352e-09
6.1625e-09
4.99718e-09
6.0861e-09
6.0861e-09
5.07352e-09
5.07352e-09
6.08609e-09
5.07351e-09
5.07352e-09
6.16252e-09
4.99717e-09
6.08609e-09
5.07352e-09
5.07352e-09
4.99717e-09
4.81246e-09
3.64709e-09
4.73606e-09
4.73606e-09
3.7234e-09
3.7234e-09
4.81245e-09
3.6471e-09
4.73605e-09
4.73606e-09
3.7234e-09
3.7234e-09
4.73606e-09
3.7234e-09
3.7234e-09
4.81247e-09
3.64708e-09
4.73606e-09
3.7234e-09
3.7234e-09
3.64708e-09
3.46244e-09
2.29805e-09
3.38593e-09
3.38593e-09
2.37308e-09
2.37309e-09
3.46242e-09
2.29805e-09
3.38593e-09
3.38592e-09
2.37308e-09
2.37306e-09
3.38593e-09
2.37308e-09
2.37307e-09
3.46244e-09
2.29803e-09
3.38593e-09
2.37307e-09
2.37307e-09
2.29804e-09
2.11363e-09
9.16619e-10
2.03557e-09
2.03558e-09
1.07122e-09
1.07124e-09
2.11361e-09
9.16588e-10
2.03558e-09
2.03555e-09
1.0714e-09
1.07123e-09
2.03555e-09
1.07133e-09
1.07118e-09
2.11363e-09
9.16609e-10
2.03557e-09
1.07133e-09
1.07138e-09
9.16599e-10
7.0661e-10
7.69134e-10
7.69111e-10
7.06573e-10
7.69258e-10
7.69108e-10
6.93203e-10
6.93221e-10
6.93209e-10
7.69089e-10
7.06608e-10
7.69215e-10
1.32495e-07
1.33106e-07
1.32779e-07
1.32779e-07
1.34507e-07
1.33364e-07
1.35892e-07
1.33e-07
1.34507e-07
1.33364e-07
1.33e-07
1.35892e-07
1.3366e-07
1.36327e-07
1.36327e-07
1.29861e-07
1.31112e-07
1.31127e-07
1.29823e-07
1.31051e-07
1.29807e-07
1.29861e-07
1.31112e-07
1.31127e-07
1.29823e-07
1.31163e-07
1.31163e-07
1.31163e-07
1.28884e-07
1.28884e-07
1.28884e-07
1.28884e-07
1.29921e-07
1.31167e-07
1.3114e-07
1.30237e-07
1.31203e-07
1.29871e-07
1.30288e-07
1.31051e-07
1.29807e-07
1.29921e-07
1.3114e-07
1.31167e-07
1.30237e-07
1.31203e-07
1.30288e-07
1.29871e-07
1.31184e-07
1.31184e-07
1.30042e-07
1.29856e-07
1.29856e-07
1.27425e-07
1.28232e-07
1.28252e-07
1.27411e-07
1.28226e-07
1.27407e-07
1.27425e-07
1.28232e-07
1.28252e-07
1.27411e-07
1.28252e-07
1.28252e-07
1.28252e-07
1.26592e-07
1.26592e-07
1.26592e-07