/*--------------------------------*- C++ -*----------------------------------*\
| =========                 |                                                 |
| \\      /  F ield         | OpenFOAM: The Open Source CFD Toolbox           |
|  \\    /   O peration     | Version:  v2012                                 |
|   \\  /    A nd           | Website:  www.openfoam.com                      |
|    \\/     M anipulation  |                                                 |
\*---------------------------------------------------------------------------*/
FoamFile
{
    version     2.0;
    format      ascii;
    class       volScalarField;
    location    "0.075";
    object      p;
}
// * * * * * * * * * * * * * * * * * * * * * * * * * * * * * * * * * * * * * //

dimensions      [0 2 -2 0 0 0 0];


internalField   nonuniform List<scalar> 
247104
(
2.05751e-06
2.05862e-06
2.05841e-06
2.05815e-06
2.05782e-06
2.0582e-06
2.05844e-06
2.05852e-06
2.0586e-06
2.05871e-06
2.05874e-06
2.05847e-06
2.05827e-06
2.05851e-06
2.05876e-06
2.05868e-06
2.0584e-06
2.05874e-06
2.05849e-06
2.05807e-06
2.05789e-06
2.05812e-06
2.05854e-06
2.05874e-06
2.05834e-06
2.05815e-06
2.05847e-06
2.05807e-06
2.05759e-06
2.05741e-06
2.05764e-06
2.05814e-06
2.05849e-06
2.05804e-06
2.0575e-06
2.05782e-06
2.05828e-06
2.05789e-06
2.05741e-06
2.05722e-06
2.05746e-06
2.05796e-06
2.05828e-06
2.05769e-06
2.05821e-06
2.05852e-06
2.05812e-06
2.05764e-06
2.05746e-06
2.05769e-06
2.05818e-06
2.05853e-06
2.05809e-06
2.05845e-06
2.05876e-06
2.05854e-06
2.05814e-06
2.05796e-06
2.05818e-06
2.05859e-06
2.05875e-06
2.05838e-06
2.05853e-06
2.05868e-06
2.05874e-06
2.05849e-06
2.05828e-06
2.05853e-06
2.05875e-06
2.05865e-06
2.05834e-06
2.05803e-06
2.05769e-06
2.05809e-06
2.05838e-06
2.02405e-06
2.0216e-06
2.0233e-06
2.02179e-06
2.02078e-06
2.02086e-06
2.02083e-06
2.0241e-06
2.02388e-06
2.02328e-06
2.02062e-06
2.01659e-06
2.01624e-06
2.01624e-06
2.01659e-06
2.02092e-06
2.02136e-06
2.02181e-06
2.01658e-06
2.01644e-06
2.01639e-06
2.01639e-06
2.01644e-06
2.01659e-06
2.02162e-06
2.02402e-06
2.02411e-06
2.02078e-06
2.01624e-06
2.01639e-06
2.01653e-06
2.01653e-06
2.0164e-06
2.01624e-06
2.02088e-06
2.02397e-06
2.02166e-06
2.02086e-06
2.01624e-06
2.0164e-06
2.01653e-06
2.01653e-06
2.0164e-06
2.01624e-06
2.02099e-06
2.02052e-06
2.02082e-06
2.01659e-06
2.01644e-06
2.0164e-06
2.0164e-06
2.01644e-06
2.01659e-06
2.02105e-06
2.02261e-06
2.0241e-06
2.02092e-06
2.01659e-06
2.01624e-06
2.01624e-06
2.01659e-06
2.02073e-06
2.02165e-06
2.02442e-06
2.02392e-06
2.02137e-06
2.02161e-06
2.02088e-06
2.02099e-06
2.02105e-06
2.02164e-06
2.02575e-06
2.02399e-06
2.02389e-06
2.0205e-06
2.02264e-06
2.02441e-06
2.00391e-06
2.00377e-06
2.00343e-06
2.00118e-06
2.00115e-06
2.00113e-06
2.00118e-06
2.00394e-06
2.00388e-06
2.00343e-06
2.00078e-06
1.99749e-06
1.99725e-06
1.99725e-06
1.99749e-06
2.00211e-06
2.0017e-06
2.00118e-06
1.99748e-06
1.99693e-06
1.99689e-06
1.99689e-06
1.99693e-06
1.9975e-06
2.00276e-06
2.00459e-06
2.00393e-06
2.00115e-06
1.99725e-06
1.99688e-06
1.99685e-06
1.99685e-06
1.99689e-06
1.99726e-06
2.00247e-06
2.0038e-06
2.00377e-06
2.00113e-06
1.99725e-06
1.99688e-06
1.99685e-06
1.99685e-06
1.99689e-06
1.99726e-06
2.00225e-06
2.00138e-06
2.00118e-06
1.99748e-06
1.99693e-06
1.99688e-06
1.99689e-06
1.99693e-06
1.99749e-06
2.00269e-06
2.00431e-06
2.00394e-06
2.00211e-06
1.99749e-06
1.99725e-06
1.99725e-06
1.99749e-06
2.00262e-06
2.0023e-06
2.00433e-06
2.00388e-06
2.00169e-06
2.00275e-06
2.00247e-06
2.00225e-06
2.00268e-06
2.0023e-06
2.00452e-06
2.00459e-06
2.0038e-06
2.00138e-06
2.00431e-06
2.00434e-06
1.98251e-06
1.98239e-06
1.98244e-06
1.97999e-06
1.97998e-06
1.97984e-06
1.98009e-06
1.98294e-06
1.98289e-06
1.98245e-06
1.97921e-06
1.97606e-06
1.97598e-06
1.97598e-06
1.97606e-06
1.98102e-06
1.98082e-06
1.97999e-06
1.97607e-06
1.97589e-06
1.97588e-06
1.97588e-06
1.97589e-06
1.97606e-06
1.98195e-06
1.98344e-06
1.98252e-06
1.97999e-06
1.97598e-06
1.97588e-06
1.97587e-06
1.97587e-06
1.97588e-06
1.97599e-06
1.98192e-06
1.98247e-06
1.9824e-06
1.97986e-06
1.97598e-06
1.97588e-06
1.97587e-06
1.97587e-06
1.97588e-06
1.97598e-06
1.98173e-06
1.98023e-06
1.98009e-06
1.97607e-06
1.9759e-06
1.97588e-06
1.97588e-06
1.97589e-06
1.97607e-06
1.98203e-06
1.98299e-06
1.98296e-06
1.98102e-06
1.97607e-06
1.97599e-06
1.97598e-06
1.97607e-06
1.98216e-06
1.98147e-06
1.98331e-06
1.98289e-06
1.98083e-06
1.98196e-06
1.98192e-06
1.98174e-06
1.98203e-06
1.98145e-06
1.98327e-06
1.98344e-06
1.98247e-06
1.98022e-06
1.98299e-06
1.98331e-06
1.96156e-06
1.96147e-06
1.96134e-06
1.95882e-06
1.95883e-06
1.95863e-06
1.95896e-06
1.96189e-06
1.96179e-06
1.96133e-06
1.95755e-06
1.95459e-06
1.95457e-06
1.95457e-06
1.95459e-06
1.95962e-06
1.9598e-06
1.95882e-06
1.95458e-06
1.95455e-06
1.95455e-06
1.95455e-06
1.95455e-06
1.95459e-06
1.96097e-06
1.96246e-06
1.96158e-06
1.95883e-06
1.95457e-06
1.95455e-06
1.95455e-06
1.95455e-06
1.95455e-06
1.95457e-06
1.96119e-06
1.96155e-06
1.96146e-06
1.95862e-06
1.95457e-06
1.95455e-06
1.95455e-06
1.95455e-06
1.95455e-06
1.95457e-06
1.96103e-06
1.95936e-06
1.95897e-06
1.95459e-06
1.95455e-06
1.95455e-06
1.95455e-06
1.95455e-06
1.95459e-06
1.96118e-06
1.96207e-06
1.96189e-06
1.95962e-06
1.95459e-06
1.95457e-06
1.95457e-06
1.95459e-06
1.96124e-06
1.96044e-06
1.96229e-06
1.96179e-06
1.9598e-06
1.96097e-06
1.96119e-06
1.96103e-06
1.96118e-06
1.96044e-06
1.96222e-06
1.96246e-06
1.96155e-06
1.95937e-06
1.96207e-06
1.9623e-06
1.94043e-06
1.94035e-06
1.94013e-06
1.93759e-06
1.93761e-06
1.93735e-06
1.93775e-06
1.94069e-06
1.94059e-06
1.94013e-06
1.93615e-06
1.93324e-06
1.93323e-06
1.93323e-06
1.93324e-06
1.93828e-06
1.93861e-06
1.93759e-06
1.93324e-06
1.93323e-06
1.93323e-06
1.93323e-06
1.93323e-06
1.93324e-06
1.93979e-06
1.94129e-06
1.94045e-06
1.93761e-06
1.93323e-06
1.93323e-06
1.93323e-06
1.93323e-06
1.93323e-06
1.93323e-06
1.94009e-06
1.94043e-06
1.94035e-06
1.93735e-06
1.93323e-06
1.93323e-06
1.93323e-06
1.93323e-06
1.93323e-06
1.93324e-06
1.93993e-06
1.93827e-06
1.93775e-06
1.93324e-06
1.93323e-06
1.93323e-06
1.93323e-06
1.93323e-06
1.93324e-06
1.94005e-06
1.94094e-06
1.94069e-06
1.93827e-06
1.93324e-06
1.93323e-06
1.93323e-06
1.93324e-06
1.94008e-06
1.93926e-06
1.94112e-06
1.94059e-06
1.93862e-06
1.93979e-06
1.9401e-06
1.93994e-06
1.94005e-06
1.93926e-06
1.94103e-06
1.94129e-06
1.94043e-06
1.93828e-06
1.94095e-06
1.94112e-06
1.91919e-06
1.91911e-06
1.91886e-06
1.91632e-06
1.91635e-06
1.91606e-06
1.91648e-06
1.91943e-06
1.91933e-06
1.91887e-06
1.91485e-06
1.91193e-06
1.91193e-06
1.91193e-06
1.91193e-06
1.91697e-06
1.91735e-06
1.91631e-06
1.91193e-06
1.91193e-06
1.91193e-06
1.91193e-06
1.91193e-06
1.91193e-06
1.91853e-06
1.92004e-06
1.9192e-06
1.91634e-06
1.91193e-06
1.91193e-06
1.91193e-06
1.91193e-06
1.91193e-06
1.91193e-06
1.91888e-06
1.91919e-06
1.91911e-06
1.91606e-06
1.91193e-06
1.91193e-06
1.91193e-06
1.91193e-06
1.91193e-06
1.91193e-06
1.91871e-06
1.91704e-06
1.91648e-06
1.91193e-06
1.91193e-06
1.91193e-06
1.91193e-06
1.91193e-06
1.91193e-06
1.9188e-06
1.9197e-06
1.91943e-06
1.91697e-06
1.91193e-06
1.91193e-06
1.91193e-06
1.91193e-06
1.91883e-06
1.91801e-06
1.91986e-06
1.91933e-06
1.91735e-06
1.91853e-06
1.91887e-06
1.9187e-06
1.9188e-06
1.918e-06
1.91976e-06
1.92004e-06
1.91919e-06
1.91704e-06
1.91969e-06
1.91987e-06
1.89791e-06
1.89784e-06
1.89758e-06
1.89504e-06
1.89506e-06
1.89478e-06
1.89519e-06
1.89815e-06
1.89805e-06
1.8976e-06
1.89354e-06
1.89064e-06
1.89064e-06
1.89064e-06
1.89064e-06
1.89568e-06
1.89608e-06
1.89503e-06
1.89064e-06
1.89064e-06
1.89064e-06
1.89064e-06
1.89064e-06
1.89064e-06
1.89724e-06
1.89876e-06
1.89793e-06
1.89507e-06
1.89064e-06
1.89064e-06
1.89064e-06
1.89064e-06
1.89064e-06
1.89064e-06
1.8976e-06
1.89791e-06
1.89784e-06
1.89478e-06
1.89064e-06
1.89064e-06
1.89064e-06
1.89064e-06
1.89064e-06
1.89064e-06
1.89743e-06
1.89577e-06
1.89519e-06
1.89064e-06
1.89064e-06
1.89064e-06
1.89064e-06
1.89064e-06
1.89064e-06
1.89752e-06
1.89842e-06
1.89815e-06
1.89568e-06
1.89064e-06
1.89064e-06
1.89064e-06
1.89064e-06
1.89756e-06
1.89672e-06
1.89858e-06
1.89804e-06
1.89607e-06
1.89725e-06
1.8976e-06
1.89744e-06
1.89753e-06
1.89672e-06
1.89848e-06
1.89876e-06
1.89792e-06
1.89577e-06
1.89842e-06
1.89859e-06
1.87663e-06
1.87656e-06
1.8763e-06
1.87375e-06
1.87378e-06
1.87349e-06
1.87391e-06
1.87686e-06
1.87676e-06
1.87631e-06
1.87225e-06
1.86935e-06
1.86935e-06
1.86935e-06
1.86935e-06
1.87439e-06
1.87479e-06
1.87374e-06
1.86935e-06
1.86935e-06
1.86935e-06
1.86935e-06
1.86935e-06
1.86935e-06
1.87596e-06
1.87748e-06
1.87664e-06
1.87378e-06
1.86935e-06
1.86935e-06
1.86935e-06
1.86935e-06
1.86935e-06
1.86935e-06
1.87631e-06
1.87662e-06
1.87655e-06
1.87349e-06
1.86935e-06
1.86935e-06
1.86935e-06
1.86935e-06
1.86935e-06
1.86935e-06
1.87615e-06
1.87448e-06
1.87391e-06
1.86935e-06
1.86935e-06
1.86935e-06
1.86935e-06
1.86935e-06
1.86935e-06
1.87623e-06
1.87713e-06
1.87686e-06
1.87438e-06
1.86935e-06
1.86935e-06
1.86935e-06
1.86935e-06
1.87628e-06
1.87544e-06
1.8773e-06
1.87675e-06
1.87478e-06
1.87596e-06
1.87632e-06
1.87615e-06
1.87624e-06
1.87544e-06
1.8772e-06
1.87747e-06
1.87663e-06
1.87448e-06
1.87713e-06
1.8773e-06
1.85534e-06
1.85527e-06
1.85501e-06
1.85246e-06
1.85249e-06
1.8522e-06
1.85262e-06
1.85557e-06
1.85547e-06
1.85502e-06
1.85097e-06
1.84806e-06
1.84806e-06
1.84806e-06
1.84806e-06
1.8531e-06
1.8535e-06
1.85245e-06
1.84806e-06
1.84806e-06
1.84806e-06
1.84806e-06
1.84806e-06
1.84806e-06
1.85467e-06
1.85619e-06
1.85536e-06
1.85249e-06
1.84806e-06
1.84806e-06
1.84806e-06
1.84806e-06
1.84806e-06
1.84806e-06
1.85503e-06
1.85534e-06
1.85527e-06
1.8522e-06
1.84806e-06
1.84806e-06
1.84806e-06
1.84806e-06
1.84806e-06
1.84806e-06
1.85486e-06
1.85319e-06
1.85262e-06
1.84806e-06
1.84806e-06
1.84806e-06
1.84806e-06
1.84806e-06
1.84806e-06
1.85494e-06
1.85584e-06
1.85557e-06
1.85309e-06
1.84806e-06
1.84806e-06
1.84806e-06
1.84806e-06
1.85499e-06
1.85415e-06
1.85601e-06
1.85546e-06
1.85349e-06
1.85467e-06
1.85503e-06
1.85487e-06
1.85496e-06
1.85415e-06
1.85591e-06
1.85618e-06
1.85534e-06
1.8532e-06
1.85585e-06
1.85602e-06
1.83405e-06
1.83398e-06
1.83372e-06
1.83116e-06
1.8312e-06
1.83091e-06
1.83133e-06
1.83428e-06
1.83418e-06
1.83373e-06
1.82967e-06
1.82676e-06
1.82677e-06
1.82677e-06
1.82677e-06
1.83181e-06
1.83221e-06
1.83116e-06
1.82677e-06
1.82677e-06
1.82677e-06
1.82677e-06
1.82677e-06
1.82677e-06
1.83338e-06
1.8349e-06
1.83407e-06
1.8312e-06
1.82677e-06
1.82677e-06
1.82677e-06
1.82677e-06
1.82677e-06
1.82677e-06
1.83374e-06
1.83405e-06
1.83398e-06
1.83091e-06
1.82677e-06
1.82677e-06
1.82677e-06
1.82677e-06
1.82677e-06
1.82677e-06
1.83357e-06
1.8319e-06
1.83133e-06
1.82677e-06
1.82677e-06
1.82677e-06
1.82677e-06
1.82677e-06
1.82677e-06
1.83365e-06
1.83455e-06
1.83428e-06
1.8318e-06
1.82677e-06
1.82677e-06
1.82677e-06
1.82677e-06
1.8337e-06
1.83286e-06
1.83472e-06
1.83417e-06
1.8322e-06
1.83338e-06
1.83374e-06
1.83358e-06
1.83366e-06
1.83286e-06
1.83462e-06
1.83489e-06
1.83405e-06
1.83191e-06
1.83456e-06
1.83473e-06
1.81276e-06
1.81269e-06
1.81242e-06
1.80988e-06
1.80991e-06
1.80962e-06
1.81004e-06
1.81299e-06
1.81289e-06
1.81244e-06
1.80838e-06
1.80548e-06
1.80548e-06
1.80548e-06
1.80548e-06
1.81052e-06
1.81092e-06
1.80987e-06
1.80548e-06
1.80548e-06
1.80548e-06
1.80548e-06
1.80548e-06
1.80548e-06
1.81209e-06
1.81361e-06
1.81278e-06
1.80991e-06
1.80548e-06
1.80548e-06
1.80548e-06
1.80548e-06
1.80548e-06
1.80548e-06
1.81245e-06
1.81276e-06
1.81269e-06
1.80961e-06
1.80548e-06
1.80548e-06
1.80548e-06
1.80548e-06
1.80548e-06
1.80548e-06
1.81228e-06
1.81061e-06
1.81004e-06
1.80548e-06
1.80548e-06
1.80548e-06
1.80548e-06
1.80548e-06
1.80548e-06
1.81236e-06
1.81326e-06
1.81299e-06
1.81051e-06
1.80548e-06
1.80548e-06
1.80548e-06
1.80548e-06
1.81241e-06
1.81157e-06
1.81343e-06
1.81288e-06
1.81091e-06
1.81209e-06
1.81245e-06
1.81229e-06
1.81237e-06
1.81157e-06
1.81333e-06
1.8136e-06
1.81276e-06
1.81062e-06
1.81327e-06
1.81344e-06
1.79147e-06
1.7914e-06
1.79113e-06
1.78859e-06
1.78862e-06
1.78833e-06
1.78875e-06
1.79171e-06
1.79159e-06
1.79114e-06
1.78709e-06
1.78418e-06
1.78418e-06
1.78418e-06
1.78418e-06
1.78923e-06
1.78962e-06
1.78858e-06
1.78418e-06
1.78418e-06
1.78419e-06
1.78419e-06
1.78419e-06
1.78418e-06
1.7908e-06
1.79232e-06
1.79148e-06
1.78862e-06
1.78418e-06
1.78418e-06
1.78418e-06
1.78418e-06
1.78418e-06
1.78418e-06
1.79116e-06
1.79147e-06
1.79139e-06
1.78832e-06
1.78419e-06
1.78419e-06
1.78419e-06
1.78419e-06
1.78419e-06
1.78419e-06
1.79099e-06
1.78932e-06
1.78875e-06
1.78419e-06
1.78419e-06
1.78419e-06
1.78419e-06
1.78419e-06
1.78419e-06
1.79107e-06
1.79197e-06
1.7917e-06
1.78922e-06
1.78419e-06
1.78419e-06
1.78419e-06
1.78419e-06
1.79112e-06
1.79028e-06
1.79214e-06
1.79159e-06
1.78962e-06
1.7908e-06
1.79116e-06
1.791e-06
1.79108e-06
1.79028e-06
1.79204e-06
1.79231e-06
1.79147e-06
1.78933e-06
1.79198e-06
1.79214e-06
1.77018e-06
1.7701e-06
1.76984e-06
1.7673e-06
1.76733e-06
1.76703e-06
1.76746e-06
1.77041e-06
1.7703e-06
1.76985e-06
1.7658e-06
1.76289e-06
1.76289e-06
1.76289e-06
1.76289e-06
1.76794e-06
1.76833e-06
1.76729e-06
1.76289e-06
1.76289e-06
1.76289e-06
1.76289e-06
1.76289e-06
1.76289e-06
1.76951e-06
1.77103e-06
1.77019e-06
1.76733e-06
1.76289e-06
1.76289e-06
1.76289e-06
1.76289e-06
1.76289e-06
1.76289e-06
1.76987e-06
1.77018e-06
1.7701e-06
1.76703e-06
1.76289e-06
1.76289e-06
1.76289e-06
1.76289e-06
1.76289e-06
1.76289e-06
1.7697e-06
1.76803e-06
1.76746e-06
1.76289e-06
1.76289e-06
1.76289e-06
1.76289e-06
1.76289e-06
1.76289e-06
1.76978e-06
1.77068e-06
1.77041e-06
1.76793e-06
1.76289e-06
1.76289e-06
1.76289e-06
1.76289e-06
1.76983e-06
1.76899e-06
1.77085e-06
1.7703e-06
1.76833e-06
1.76951e-06
1.76987e-06
1.76971e-06
1.76979e-06
1.76899e-06
1.77075e-06
1.77102e-06
1.77018e-06
1.76804e-06
1.77069e-06
1.77085e-06
1.74889e-06
1.74881e-06
1.74855e-06
1.74601e-06
1.74604e-06
1.74574e-06
1.74617e-06
1.74912e-06
1.74901e-06
1.74857e-06
1.74451e-06
1.7416e-06
1.7416e-06
1.7416e-06
1.7416e-06
1.74665e-06
1.74704e-06
1.746e-06
1.7416e-06
1.7416e-06
1.7416e-06
1.7416e-06
1.7416e-06
1.7416e-06
1.74822e-06
1.74974e-06
1.7489e-06
1.74604e-06
1.7416e-06
1.7416e-06
1.7416e-06
1.7416e-06
1.7416e-06
1.7416e-06
1.74858e-06
1.74888e-06
1.74881e-06
1.74574e-06
1.7416e-06
1.7416e-06
1.7416e-06
1.7416e-06
1.7416e-06
1.7416e-06
1.74841e-06
1.74674e-06
1.74617e-06
1.7416e-06
1.7416e-06
1.7416e-06
1.7416e-06
1.7416e-06
1.7416e-06
1.74849e-06
1.74939e-06
1.74912e-06
1.74664e-06
1.7416e-06
1.7416e-06
1.7416e-06
1.7416e-06
1.74854e-06
1.7477e-06
1.74956e-06
1.74901e-06
1.74704e-06
1.74822e-06
1.74858e-06
1.74842e-06
1.7485e-06
1.7477e-06
1.74946e-06
1.74973e-06
1.74889e-06
1.74675e-06
1.7494e-06
1.74956e-06
1.72759e-06
1.72752e-06
1.72726e-06
1.72472e-06
1.72475e-06
1.72445e-06
1.72488e-06
1.72783e-06
1.72772e-06
1.72728e-06
1.72322e-06
1.72031e-06
1.72031e-06
1.72031e-06
1.72031e-06
1.72535e-06
1.72575e-06
1.72471e-06
1.72031e-06
1.72031e-06
1.72031e-06
1.72031e-06
1.72031e-06
1.72031e-06
1.72693e-06
1.72845e-06
1.72761e-06
1.72475e-06
1.72031e-06
1.72031e-06
1.72031e-06
1.72031e-06
1.72031e-06
1.72031e-06
1.72729e-06
1.72759e-06
1.72752e-06
1.72445e-06
1.72031e-06
1.72031e-06
1.72031e-06
1.72031e-06
1.72031e-06
1.72031e-06
1.72712e-06
1.72544e-06
1.72488e-06
1.72031e-06
1.72031e-06
1.72031e-06
1.72031e-06
1.72031e-06
1.72031e-06
1.7272e-06
1.7281e-06
1.72783e-06
1.72535e-06
1.72031e-06
1.72031e-06
1.72031e-06
1.72031e-06
1.72725e-06
1.72641e-06
1.72827e-06
1.72772e-06
1.72575e-06
1.72693e-06
1.72729e-06
1.72713e-06
1.72721e-06
1.72641e-06
1.72817e-06
1.72844e-06
1.7276e-06
1.72545e-06
1.72811e-06
1.72827e-06
1.7063e-06
1.70623e-06
1.70597e-06
1.70343e-06
1.70346e-06
1.70316e-06
1.70359e-06
1.70654e-06
1.70643e-06
1.70598e-06
1.70193e-06
1.69902e-06
1.69902e-06
1.69902e-06
1.69902e-06
1.70406e-06
1.70446e-06
1.70342e-06
1.69902e-06
1.69902e-06
1.69902e-06
1.69902e-06
1.69902e-06
1.69902e-06
1.70564e-06
1.70716e-06
1.70632e-06
1.70346e-06
1.69902e-06
1.69902e-06
1.69902e-06
1.69902e-06
1.69902e-06
1.69902e-06
1.706e-06
1.7063e-06
1.70623e-06
1.70316e-06
1.69902e-06
1.69902e-06
1.69902e-06
1.69902e-06
1.69902e-06
1.69902e-06
1.70583e-06
1.70416e-06
1.70359e-06
1.69902e-06
1.69902e-06
1.69902e-06
1.69902e-06
1.69902e-06
1.69902e-06
1.70591e-06
1.70681e-06
1.70654e-06
1.70406e-06
1.69902e-06
1.69902e-06
1.69902e-06
1.69902e-06
1.70596e-06
1.70512e-06
1.70698e-06
1.70643e-06
1.70446e-06
1.70564e-06
1.706e-06
1.70584e-06
1.70592e-06
1.70512e-06
1.70688e-06
1.70715e-06
1.70631e-06
1.70417e-06
1.70682e-06
1.70698e-06
1.68502e-06
1.68494e-06
1.68468e-06
1.68214e-06
1.68217e-06
1.68187e-06
1.6823e-06
1.68525e-06
1.68514e-06
1.68469e-06
1.68064e-06
1.67773e-06
1.67773e-06
1.67773e-06
1.67773e-06
1.68278e-06
1.68317e-06
1.68213e-06
1.67773e-06
1.67773e-06
1.67774e-06
1.67773e-06
1.67773e-06
1.67773e-06
1.68435e-06
1.68587e-06
1.68503e-06
1.68217e-06
1.67773e-06
1.67773e-06
1.67773e-06
1.67773e-06
1.67773e-06
1.67773e-06
1.68471e-06
1.68502e-06
1.68494e-06
1.68187e-06
1.67773e-06
1.67773e-06
1.67773e-06
1.67773e-06
1.67773e-06
1.67773e-06
1.68454e-06
1.68287e-06
1.6823e-06
1.67773e-06
1.67773e-06
1.67773e-06
1.67773e-06
1.67773e-06
1.67773e-06
1.68462e-06
1.68552e-06
1.68525e-06
1.68277e-06
1.67773e-06
1.67773e-06
1.67773e-06
1.67773e-06
1.68467e-06
1.68383e-06
1.68569e-06
1.68514e-06
1.68317e-06
1.68435e-06
1.68471e-06
1.68455e-06
1.68463e-06
1.68383e-06
1.68559e-06
1.68586e-06
1.68502e-06
1.68288e-06
1.68553e-06
1.68569e-06
1.66373e-06
1.66365e-06
1.66339e-06
1.66085e-06
1.66088e-06
1.66059e-06
1.66101e-06
1.66396e-06
1.66385e-06
1.66341e-06
1.65935e-06
1.65645e-06
1.65645e-06
1.65645e-06
1.65645e-06
1.66149e-06
1.66188e-06
1.66084e-06
1.65644e-06
1.65645e-06
1.65645e-06
1.65645e-06
1.65645e-06
1.65645e-06
1.66306e-06
1.66458e-06
1.66374e-06
1.66088e-06
1.65645e-06
1.65645e-06
1.65645e-06
1.65645e-06
1.65645e-06
1.65645e-06
1.66342e-06
1.66373e-06
1.66365e-06
1.66058e-06
1.65645e-06
1.65645e-06
1.65645e-06
1.65645e-06
1.65645e-06
1.65645e-06
1.66325e-06
1.66158e-06
1.66101e-06
1.65645e-06
1.65645e-06
1.65645e-06
1.65645e-06
1.65645e-06
1.65645e-06
1.66333e-06
1.66423e-06
1.66396e-06
1.66148e-06
1.65645e-06
1.65644e-06
1.65645e-06
1.65645e-06
1.66338e-06
1.66254e-06
1.6644e-06
1.66385e-06
1.66188e-06
1.66306e-06
1.66342e-06
1.66326e-06
1.66334e-06
1.66254e-06
1.6643e-06
1.66457e-06
1.66373e-06
1.66159e-06
1.66424e-06
1.66441e-06
1.64244e-06
1.64237e-06
1.6421e-06
1.63956e-06
1.63959e-06
1.6393e-06
1.63972e-06
1.64267e-06
1.64256e-06
1.64212e-06
1.63806e-06
1.63516e-06
1.63516e-06
1.63516e-06
1.63516e-06
1.6402e-06
1.6406e-06
1.63955e-06
1.63516e-06
1.63516e-06
1.63516e-06
1.63516e-06
1.63516e-06
1.63516e-06
1.64177e-06
1.64329e-06
1.64246e-06
1.63959e-06
1.63516e-06
1.63516e-06
1.63516e-06
1.63516e-06
1.63516e-06
1.63516e-06
1.64213e-06
1.64244e-06
1.64237e-06
1.6393e-06
1.63516e-06
1.63516e-06
1.63516e-06
1.63516e-06
1.63516e-06
1.63516e-06
1.64196e-06
1.64029e-06
1.63972e-06
1.63516e-06
1.63516e-06
1.63516e-06
1.63516e-06
1.63516e-06
1.63516e-06
1.64204e-06
1.64294e-06
1.64267e-06
1.64019e-06
1.63516e-06
1.63516e-06
1.63516e-06
1.63516e-06
1.64209e-06
1.64125e-06
1.64311e-06
1.64256e-06
1.64059e-06
1.64177e-06
1.64213e-06
1.64197e-06
1.64205e-06
1.64125e-06
1.64301e-06
1.64328e-06
1.64244e-06
1.6403e-06
1.64295e-06
1.64312e-06
1.62115e-06
1.62108e-06
1.62081e-06
1.61827e-06
1.6183e-06
1.61801e-06
1.61843e-06
1.62138e-06
1.62127e-06
1.62083e-06
1.61677e-06
1.61387e-06
1.61387e-06
1.61387e-06
1.61387e-06
1.61891e-06
1.61931e-06
1.61826e-06
1.61387e-06
1.61387e-06
1.61387e-06
1.61387e-06
1.61387e-06
1.61387e-06
1.62048e-06
1.622e-06
1.62117e-06
1.6183e-06
1.61387e-06
1.61387e-06
1.61387e-06
1.61387e-06
1.61387e-06
1.61387e-06
1.62084e-06
1.62115e-06
1.62108e-06
1.61801e-06
1.61387e-06
1.61387e-06
1.61387e-06
1.61387e-06
1.61387e-06
1.61387e-06
1.62067e-06
1.619e-06
1.61843e-06
1.61387e-06
1.61387e-06
1.61387e-06
1.61387e-06
1.61387e-06
1.61387e-06
1.62075e-06
1.62165e-06
1.62138e-06
1.6189e-06
1.61387e-06
1.61387e-06
1.61387e-06
1.61387e-06
1.6208e-06
1.61996e-06
1.62182e-06
1.62127e-06
1.6193e-06
1.62048e-06
1.62084e-06
1.62068e-06
1.62076e-06
1.61996e-06
1.62172e-06
1.62199e-06
1.62115e-06
1.61901e-06
1.62166e-06
1.62183e-06
1.59986e-06
1.59979e-06
1.59952e-06
1.59698e-06
1.59701e-06
1.59672e-06
1.59714e-06
1.60009e-06
1.59998e-06
1.59954e-06
1.59548e-06
1.59258e-06
1.59258e-06
1.59258e-06
1.59258e-06
1.59762e-06
1.59802e-06
1.59697e-06
1.59258e-06
1.59258e-06
1.59258e-06
1.59258e-06
1.59258e-06
1.59258e-06
1.59919e-06
1.60071e-06
1.59988e-06
1.59701e-06
1.59258e-06
1.59258e-06
1.59258e-06
1.59258e-06
1.59258e-06
1.59258e-06
1.59955e-06
1.59986e-06
1.59979e-06
1.59672e-06
1.59258e-06
1.59258e-06
1.59258e-06
1.59258e-06
1.59258e-06
1.59258e-06
1.59938e-06
1.59771e-06
1.59714e-06
1.59258e-06
1.59258e-06
1.59258e-06
1.59258e-06
1.59258e-06
1.59258e-06
1.59946e-06
1.60036e-06
1.60009e-06
1.59761e-06
1.59258e-06
1.59258e-06
1.59258e-06
1.59258e-06
1.59951e-06
1.59867e-06
1.60053e-06
1.59998e-06
1.59801e-06
1.5992e-06
1.59955e-06
1.59939e-06
1.59948e-06
1.59867e-06
1.60043e-06
1.60071e-06
1.59986e-06
1.59772e-06
1.60037e-06
1.60054e-06
1.57857e-06
1.5785e-06
1.57823e-06
1.57569e-06
1.57572e-06
1.57543e-06
1.57585e-06
1.5788e-06
1.57869e-06
1.57825e-06
1.57419e-06
1.57129e-06
1.57129e-06
1.57129e-06
1.57129e-06
1.57633e-06
1.57673e-06
1.57568e-06
1.57129e-06
1.57129e-06
1.57129e-06
1.57129e-06
1.57129e-06
1.57129e-06
1.5779e-06
1.57942e-06
1.57859e-06
1.57572e-06
1.57129e-06
1.57129e-06
1.57129e-06
1.57129e-06
1.57129e-06
1.57129e-06
1.57826e-06
1.57857e-06
1.5785e-06
1.57543e-06
1.57129e-06
1.57129e-06
1.57129e-06
1.57129e-06
1.57129e-06
1.57129e-06
1.57809e-06
1.57642e-06
1.57585e-06
1.57129e-06
1.57129e-06
1.57129e-06
1.57129e-06
1.57129e-06
1.57129e-06
1.57818e-06
1.57907e-06
1.5788e-06
1.57632e-06
1.57129e-06
1.57129e-06
1.57129e-06
1.57129e-06
1.57822e-06
1.57738e-06
1.57924e-06
1.57869e-06
1.57672e-06
1.57791e-06
1.57827e-06
1.5781e-06
1.57819e-06
1.57738e-06
1.57914e-06
1.57942e-06
1.57857e-06
1.57643e-06
1.57908e-06
1.57925e-06
1.55728e-06
1.55721e-06
1.55694e-06
1.5544e-06
1.55443e-06
1.55414e-06
1.55456e-06
1.55751e-06
1.5574e-06
1.55696e-06
1.5529e-06
1.55e-06
1.55e-06
1.55e-06
1.55e-06
1.55504e-06
1.55544e-06
1.55439e-06
1.55e-06
1.55e-06
1.55e-06
1.55e-06
1.55e-06
1.55e-06
1.55661e-06
1.55813e-06
1.5573e-06
1.55443e-06
1.55e-06
1.55e-06
1.55e-06
1.55e-06
1.55e-06
1.55e-06
1.55697e-06
1.55728e-06
1.55721e-06
1.55414e-06
1.55e-06
1.55e-06
1.55e-06
1.55e-06
1.55e-06
1.55e-06
1.5568e-06
1.55513e-06
1.55456e-06
1.55e-06
1.55e-06
1.55e-06
1.55e-06
1.55e-06
1.55e-06
1.55689e-06
1.55779e-06
1.55751e-06
1.55503e-06
1.55e-06
1.55e-06
1.55e-06
1.55e-06
1.55693e-06
1.55609e-06
1.55795e-06
1.5574e-06
1.55543e-06
1.55662e-06
1.55698e-06
1.55681e-06
1.5569e-06
1.55609e-06
1.55785e-06
1.55813e-06
1.55728e-06
1.55514e-06
1.55779e-06
1.55796e-06
1.53599e-06
1.53592e-06
1.53565e-06
1.53311e-06
1.53314e-06
1.53285e-06
1.53327e-06
1.53621e-06
1.53612e-06
1.53567e-06
1.53161e-06
1.52871e-06
1.52871e-06
1.52871e-06
1.52871e-06
1.53375e-06
1.53415e-06
1.5331e-06
1.52871e-06
1.52871e-06
1.52871e-06
1.52871e-06
1.52871e-06
1.52871e-06
1.53533e-06
1.53684e-06
1.53601e-06
1.53314e-06
1.52871e-06
1.52871e-06
1.52871e-06
1.52871e-06
1.52871e-06
1.52871e-06
1.53568e-06
1.53599e-06
1.53592e-06
1.53285e-06
1.52871e-06
1.52871e-06
1.52871e-06
1.52871e-06
1.52871e-06
1.52871e-06
1.53551e-06
1.53384e-06
1.53327e-06
1.52871e-06
1.52871e-06
1.52871e-06
1.52871e-06
1.52871e-06
1.52871e-06
1.5356e-06
1.5365e-06
1.53622e-06
1.53374e-06
1.52871e-06
1.52871e-06
1.52871e-06
1.52871e-06
1.53564e-06
1.5348e-06
1.53666e-06
1.53611e-06
1.53414e-06
1.53533e-06
1.53569e-06
1.53552e-06
1.53561e-06
1.5348e-06
1.53656e-06
1.53684e-06
1.53599e-06
1.53385e-06
1.5365e-06
1.53667e-06
1.5147e-06
1.51463e-06
1.51436e-06
1.51182e-06
1.51185e-06
1.51156e-06
1.51198e-06
1.51494e-06
1.51482e-06
1.51438e-06
1.51032e-06
1.50742e-06
1.50742e-06
1.50742e-06
1.50742e-06
1.51246e-06
1.51286e-06
1.51182e-06
1.50742e-06
1.50742e-06
1.50742e-06
1.50742e-06
1.50742e-06
1.50742e-06
1.51404e-06
1.51555e-06
1.51472e-06
1.51185e-06
1.50742e-06
1.50742e-06
1.50742e-06
1.50742e-06
1.50742e-06
1.50742e-06
1.51439e-06
1.5147e-06
1.51463e-06
1.51156e-06
1.50742e-06
1.50742e-06
1.50742e-06
1.50742e-06
1.50742e-06
1.50742e-06
1.51422e-06
1.51255e-06
1.51198e-06
1.50742e-06
1.50742e-06
1.50742e-06
1.50742e-06
1.50742e-06
1.50742e-06
1.51431e-06
1.51521e-06
1.51493e-06
1.51245e-06
1.50742e-06
1.50742e-06
1.50742e-06
1.50742e-06
1.51435e-06
1.51351e-06
1.51537e-06
1.51482e-06
1.51285e-06
1.51404e-06
1.5144e-06
1.51423e-06
1.51432e-06
1.51351e-06
1.51527e-06
1.51555e-06
1.5147e-06
1.51256e-06
1.51521e-06
1.51538e-06
1.49341e-06
1.49334e-06
1.49307e-06
1.49053e-06
1.49056e-06
1.49027e-06
1.49069e-06
1.49365e-06
1.49353e-06
1.49309e-06
1.48903e-06
1.48613e-06
1.48613e-06
1.48613e-06
1.48613e-06
1.49117e-06
1.49157e-06
1.49052e-06
1.48613e-06
1.48613e-06
1.48613e-06
1.48613e-06
1.48613e-06
1.48613e-06
1.49274e-06
1.49426e-06
1.49343e-06
1.49056e-06
1.48613e-06
1.48613e-06
1.48613e-06
1.48613e-06
1.48613e-06
1.48613e-06
1.4931e-06
1.49341e-06
1.49334e-06
1.49027e-06
1.48613e-06
1.48613e-06
1.48613e-06
1.48613e-06
1.48613e-06
1.48613e-06
1.49293e-06
1.49126e-06
1.49069e-06
1.48613e-06
1.48613e-06
1.48613e-06
1.48613e-06
1.48613e-06
1.48613e-06
1.49302e-06
1.49392e-06
1.49364e-06
1.49116e-06
1.48613e-06
1.48613e-06
1.48613e-06
1.48613e-06
1.49306e-06
1.49222e-06
1.49408e-06
1.49353e-06
1.49156e-06
1.49275e-06
1.49311e-06
1.49294e-06
1.49303e-06
1.49222e-06
1.49398e-06
1.49426e-06
1.49341e-06
1.49127e-06
1.49392e-06
1.49409e-06
1.47212e-06
1.47205e-06
1.47178e-06
1.46924e-06
1.46927e-06
1.46898e-06
1.4694e-06
1.47235e-06
1.47224e-06
1.4718e-06
1.46774e-06
1.46484e-06
1.46484e-06
1.46484e-06
1.46484e-06
1.46988e-06
1.47028e-06
1.46923e-06
1.46484e-06
1.46484e-06
1.46484e-06
1.46484e-06
1.46484e-06
1.46484e-06
1.47145e-06
1.47297e-06
1.47214e-06
1.46927e-06
1.46484e-06
1.46484e-06
1.46484e-06
1.46484e-06
1.46484e-06
1.46484e-06
1.47181e-06
1.47212e-06
1.47205e-06
1.46898e-06
1.46484e-06
1.46484e-06
1.46484e-06
1.46484e-06
1.46484e-06
1.46484e-06
1.47164e-06
1.46997e-06
1.4694e-06
1.46484e-06
1.46484e-06
1.46484e-06
1.46484e-06
1.46484e-06
1.46484e-06
1.47173e-06
1.47263e-06
1.47235e-06
1.46987e-06
1.46484e-06
1.46484e-06
1.46484e-06
1.46484e-06
1.47177e-06
1.47093e-06
1.47279e-06
1.47224e-06
1.47027e-06
1.47146e-06
1.47182e-06
1.47165e-06
1.47174e-06
1.47093e-06
1.47269e-06
1.47297e-06
1.47212e-06
1.46998e-06
1.47263e-06
1.4728e-06
1.45083e-06
1.45076e-06
1.45049e-06
1.44795e-06
1.44798e-06
1.44769e-06
1.44811e-06
1.45107e-06
1.45095e-06
1.45051e-06
1.44645e-06
1.44355e-06
1.44355e-06
1.44355e-06
1.44355e-06
1.44859e-06
1.44899e-06
1.44794e-06
1.44355e-06
1.44355e-06
1.44355e-06
1.44355e-06
1.44355e-06
1.44355e-06
1.45016e-06
1.45168e-06
1.45085e-06
1.44798e-06
1.44355e-06
1.44355e-06
1.44355e-06
1.44355e-06
1.44355e-06
1.44355e-06
1.45052e-06
1.45083e-06
1.45076e-06
1.44769e-06
1.44355e-06
1.44355e-06
1.44355e-06
1.44355e-06
1.44355e-06
1.44355e-06
1.45035e-06
1.44868e-06
1.44811e-06
1.44355e-06
1.44355e-06
1.44355e-06
1.44355e-06
1.44355e-06
1.44355e-06
1.45044e-06
1.45134e-06
1.45106e-06
1.44858e-06
1.44355e-06
1.44355e-06
1.44355e-06
1.44355e-06
1.45048e-06
1.44964e-06
1.4515e-06
1.45095e-06
1.44898e-06
1.45017e-06
1.45053e-06
1.45036e-06
1.45045e-06
1.44964e-06
1.4514e-06
1.45168e-06
1.45083e-06
1.44869e-06
1.45134e-06
1.45151e-06
1.42954e-06
1.42947e-06
1.4292e-06
1.42666e-06
1.42669e-06
1.4264e-06
1.42682e-06
1.42978e-06
1.42966e-06
1.42922e-06
1.42516e-06
1.42226e-06
1.42226e-06
1.42226e-06
1.42226e-06
1.4273e-06
1.4277e-06
1.42665e-06
1.42226e-06
1.42226e-06
1.42226e-06
1.42226e-06
1.42226e-06
1.42226e-06
1.42887e-06
1.43039e-06
1.42956e-06
1.42669e-06
1.42226e-06
1.42226e-06
1.42226e-06
1.42226e-06
1.42226e-06
1.42226e-06
1.42923e-06
1.42954e-06
1.42947e-06
1.4264e-06
1.42226e-06
1.42226e-06
1.42226e-06
1.42226e-06
1.42226e-06
1.42226e-06
1.42906e-06
1.42739e-06
1.42682e-06
1.42226e-06
1.42226e-06
1.42226e-06
1.42226e-06
1.42226e-06
1.42226e-06
1.42915e-06
1.43005e-06
1.42977e-06
1.42729e-06
1.42226e-06
1.42226e-06
1.42226e-06
1.42226e-06
1.42919e-06
1.42835e-06
1.43021e-06
1.42966e-06
1.42769e-06
1.42888e-06
1.42924e-06
1.42907e-06
1.42916e-06
1.42835e-06
1.43011e-06
1.43039e-06
1.42954e-06
1.42739e-06
1.43005e-06
1.43022e-06
1.40825e-06
1.40818e-06
1.40791e-06
1.40537e-06
1.4054e-06
1.40511e-06
1.40553e-06
1.40849e-06
1.40837e-06
1.40793e-06
1.40387e-06
1.40097e-06
1.40097e-06
1.40097e-06
1.40097e-06
1.40601e-06
1.40641e-06
1.40536e-06
1.40097e-06
1.40097e-06
1.40097e-06
1.40097e-06
1.40097e-06
1.40097e-06
1.40758e-06
1.4091e-06
1.40827e-06
1.4054e-06
1.40097e-06
1.40097e-06
1.40097e-06
1.40097e-06
1.40097e-06
1.40097e-06
1.40794e-06
1.40825e-06
1.40818e-06
1.40511e-06
1.40097e-06
1.40097e-06
1.40097e-06
1.40097e-06
1.40097e-06
1.40097e-06
1.40777e-06
1.4061e-06
1.40553e-06
1.40097e-06
1.40097e-06
1.40097e-06
1.40097e-06
1.40097e-06
1.40097e-06
1.40786e-06
1.40875e-06
1.40848e-06
1.406e-06
1.40097e-06
1.40097e-06
1.40097e-06
1.40097e-06
1.4079e-06
1.40706e-06
1.40892e-06
1.40837e-06
1.4064e-06
1.40759e-06
1.40795e-06
1.40778e-06
1.40787e-06
1.40706e-06
1.40882e-06
1.4091e-06
1.40825e-06
1.4061e-06
1.40876e-06
1.40893e-06
1.38696e-06
1.38689e-06
1.38662e-06
1.38408e-06
1.38411e-06
1.38382e-06
1.38424e-06
1.3872e-06
1.38708e-06
1.38664e-06
1.38258e-06
1.37968e-06
1.37968e-06
1.37968e-06
1.37968e-06
1.38472e-06
1.38512e-06
1.38407e-06
1.37968e-06
1.37968e-06
1.37968e-06
1.37968e-06
1.37968e-06
1.37968e-06
1.38629e-06
1.38781e-06
1.38698e-06
1.38411e-06
1.37968e-06
1.37968e-06
1.37968e-06
1.37968e-06
1.37968e-06
1.37968e-06
1.38665e-06
1.38696e-06
1.38689e-06
1.38382e-06
1.37968e-06
1.37968e-06
1.37968e-06
1.37968e-06
1.37968e-06
1.37968e-06
1.38648e-06
1.38481e-06
1.38424e-06
1.37968e-06
1.37968e-06
1.37968e-06
1.37968e-06
1.37968e-06
1.37968e-06
1.38656e-06
1.38746e-06
1.38719e-06
1.38471e-06
1.37968e-06
1.37968e-06
1.37968e-06
1.37968e-06
1.38661e-06
1.38577e-06
1.38763e-06
1.38708e-06
1.38511e-06