/*--------------------------------*- C++ -*----------------------------------*\
| =========                 |                                                 |
| \\      /  F ield         | OpenFOAM: The Open Source CFD Toolbox           |
|  \\    /   O peration     | Version:  v2012                                 |
|   \\  /    A nd           | Website:  www.openfoam.com                      |
|    \\/     M anipulation  |                                                 |
\*---------------------------------------------------------------------------*/
FoamFile
{
    version     2.0;
    format      ascii;
    class       volScalarField;
    location    "312.5";
    object      epsilon;
}
// * * * * * * * * * * * * * * * * * * * * * * * * * * * * * * * * * * * * * //

dimensions      [0 2 -3 0 0 0 0];


internalField   nonuniform List<scalar> 
171728
(
3.51956e-09
8.47113e-09
5.17071e-09
5.00282e-09
3.49578e-09
8.06639e-09
4.80843e-09
4.53186e-09
3.46997e-09
7.68634e-09
4.4626e-09
4.11943e-09
3.44981e-09
7.27375e-09
4.15939e-09
3.76864e-09
3.43319e-09
6.51208e-09
3.88614e-09
3.46468e-09
3.41988e-09
5.178e-09
3.65045e-09
3.19852e-09
3.40998e-09
3.93659e-09
3.45954e-09
2.97034e-09
3.4021e-09
3.10337e-09
3.30904e-09
2.77966e-09
3.39836e-09
2.60477e-09
3.19332e-09
2.62255e-09
3.39865e-09
2.38209e-09
3.11851e-09
2.49826e-09
3.40355e-09
2.3458e-09
3.06549e-09
2.41436e-09
3.4134e-09
2.37576e-09
3.03467e-09
2.36322e-09
3.42819e-09
2.46104e-09
3.05861e-09
2.35237e-09
3.44821e-09
2.5913e-09
3.16167e-09
2.39594e-09
3.47302e-09
2.77836e-09
3.35428e-09
2.51387e-09
3.50255e-09
3.06868e-09
3.62028e-09
2.75668e-09
3.53796e-09
3.53913e-09
3.99401e-09
3.19646e-09
3.5811e-09
4.27792e-09
4.591e-09
3.96213e-09
3.63211e-09
5.37556e-09
5.48208e-09
5.30388e-09
3.69202e-09
7.01857e-09
7.11702e-09
7.6026e-09
3.76533e-09
9.41933e-09
9.52706e-09
1.16547e-08
3.85455e-09
1.29713e-08
1.29087e-08
1.88053e-08
3.96135e-09
1.82677e-08
1.75257e-08
2.94839e-08
4.0996e-09
2.51319e-08
2.41954e-08
4.74245e-08
4.29799e-09
3.52544e-08
3.32331e-08
7.23331e-08
4.56748e-09
4.78848e-08
4.46779e-08
1.18733e-07
4.95743e-09
6.67692e-08
6.00589e-08
1.56492e-07
5.42306e-09
8.36443e-08
7.53105e-08
2.2901e-07
6.14198e-09
1.06379e-07
9.81863e-08
2.90485e-07
6.98293e-09
1.28182e-07
1.23107e-07
3.76228e-07
8.14657e-09
1.4291e-07
1.47217e-07
4.50541e-07
9.65949e-09
1.90185e-07
1.81263e-07
5.24806e-07
1.14918e-08
2.07398e-07
2.11068e-07
6.00155e-07
1.32068e-08
2.40785e-07
2.39565e-07
6.58301e-07
1.65499e-08
2.85403e-07
2.85016e-07
7.14252e-07
2.0027e-08
3.22979e-07
3.26983e-07
7.70589e-07
2.42851e-08
3.73386e-07
3.65173e-07
8.11507e-07
2.93604e-08
4.04116e-07
4.15758e-07
8.50076e-07
3.58428e-08
4.66366e-07
4.56924e-07
8.96906e-07
4.44352e-08
5.05557e-07
5.11724e-07
9.16419e-07
5.09111e-08
5.52323e-07
5.51009e-07
9.59822e-07
6.59873e-08
6.07736e-07
6.06114e-07
9.97988e-07
7.65708e-08
6.4886e-07
6.54502e-07
1.02068e-06
9.08302e-08
7.04409e-07
7.01733e-07
1.04814e-06
1.05009e-07
7.47476e-07
7.38647e-07
1.07507e-06
1.27e-07
7.85563e-07
7.96125e-07
1.11268e-06
1.51156e-07
8.41312e-07
8.37578e-07
1.13468e-06
1.65634e-07
8.66873e-07
8.61874e-07
1.15258e-06
1.92143e-07
9.06201e-07
9.16262e-07
1.1879e-06
2.21866e-07
9.48467e-07
9.43381e-07
1.20827e-06
2.43061e-07
9.75005e-07
9.77365e-07
1.23493e-06
2.75203e-07
1.00059e-06
1.0025e-06
1.24886e-06
3.0048e-07
1.03775e-06
1.03243e-06
1.27767e-06
3.38685e-07
1.05582e-06
1.05913e-06
1.29319e-06
3.61723e-07
1.07986e-06
1.07972e-06
1.31107e-06
3.95861e-07
1.10615e-06
1.10117e-06
1.33309e-06
4.2343e-07
1.11945e-06
1.127e-06
1.34375e-06
4.56424e-07
1.14341e-06
1.13617e-06
1.36047e-06
4.77679e-07
1.15499e-06
1.1591e-06
1.36897e-06
5.0802e-07
1.17668e-06
1.179e-06
1.3917e-06
5.37932e-07
1.1874e-06
1.18459e-06
1.40111e-06
5.5223e-07
1.19666e-06
1.1995e-06
1.40453e-06
5.73107e-07
1.20713e-06
1.21048e-06
1.41226e-06
5.97013e-07
1.22314e-06
1.22131e-06
1.43054e-06
6.16285e-07
1.22465e-06
1.22547e-06
1.43359e-06
6.2636e-07
1.22561e-06
1.22615e-06
1.43359e-06
6.53263e-07
1.25286e-06
1.25215e-06
1.46876e-06
6.67076e-07
1.24997e-06
1.24876e-06
1.46616e-06
6.51686e-07
1.20558e-06
1.20467e-06
1.41124e-06
6.31775e-07
1.17651e-06
1.17605e-06
1.37084e-06
6.45338e-07
1.20316e-06
1.20286e-06
1.41076e-06
7.02886e-07
1.2669e-06
1.26649e-06
1.49058e-06
7.50999e-07
1.32119e-06
1.32081e-06
1.55965e-06
7.6941e-07
1.34367e-06
1.34345e-06
1.592e-06
7.48463e-07
1.30259e-06
1.30261e-06
1.54064e-06
6.87935e-07
1.21184e-06
1.21191e-06
1.42254e-06
6.40847e-07
1.14828e-06
1.14833e-06
1.34104e-06
6.25971e-07
1.12822e-06
1.12825e-06
1.3231e-06
6.41555e-07
1.14062e-06
1.14065e-06
1.34983e-06
6.65768e-07
1.15802e-06
1.15807e-06
1.38024e-06
6.72403e-07
1.16623e-06
1.16629e-06
1.39967e-06
6.72088e-07
1.16832e-06
1.16839e-06
1.40903e-06
6.71019e-07
1.16854e-06
1.16861e-06
1.41288e-06
6.70311e-07
1.16836e-06
1.16842e-06
1.41435e-06
6.69815e-07
1.1681e-06
1.16817e-06
1.4146e-06
6.69593e-07
1.16793e-06
1.168e-06
1.41442e-06
6.69587e-07
1.168e-06
1.16807e-06
1.41474e-06
6.69553e-07
1.16796e-06
1.16803e-06
1.41465e-06
6.69541e-07
1.16795e-06
1.16802e-06
1.41452e-06
6.69551e-07
1.16799e-06
1.16806e-06
1.41474e-06
6.69547e-07
1.16797e-06
1.16804e-06
1.41448e-06
6.69558e-07
1.16802e-06
1.16809e-06
1.41469e-06
6.69555e-07
1.16803e-06
1.1681e-06
1.41457e-06
6.69313e-07
1.16776e-06
1.16782e-06
1.4143e-06
6.51235e-07
1.11252e-06
1.11251e-06
1.3728e-06
5.22341e-09
4.01145e-09
3.98299e-09
4.80751e-09
4.01119e-09
3.83463e-09
3.51782e-09
3.83085e-09
3.60821e-09
3.56015e-09
5.403e-09
4.24451e-09
5.05225e-09
4.23499e-09
4.18246e-09
5.03114e-09
5.19966e-09
4.7057e-09
4.0066e-09
4.24346e-09
3.62216e-09
4.03163e-09
4.75796e-09
4.49351e-09
4.24996e-09
4.42064e-09
4.01776e-09
3.59807e-09
4.7101e-09
8.1735e-09
4.39082e-09
5.01915e-09
4.54058e-09
4.8302e-09
4.90265e-09
4.54303e-09
4.56632e-09
4.67845e-09
4.26799e-09
3.54974e-09
3.9575e-09
3.37816e-09
3.7442e-09
4.43508e-09
4.26182e-09
3.93669e-09
3.49825e-09
3.70526e-09
3.29741e-09
4.28473e-09
7.77501e-09
3.99165e-09
4.50955e-09
4.14946e-09
4.44456e-09
4.54482e-09
4.17063e-09
4.14875e-09
4.24201e-09
3.88001e-09
3.33027e-09
3.67887e-09
3.19377e-09
3.5001e-09
4.2134e-09
4.07136e-09
3.63157e-09
3.24887e-09
3.42169e-09
3.11527e-09
3.90141e-09
7.38606e-09
3.65191e-09
4.12161e-09
3.79836e-09
4.08501e-09
4.23166e-09
3.84279e-09
3.7938e-09
3.8584e-09
3.55177e-09
3.14927e-09
3.44517e-09
3.02256e-09
3.28686e-09
4.02704e-09
3.86498e-09
3.35606e-09
3.07404e-09
3.1717e-09
2.95639e-09
3.57444e-09
6.77019e-09
3.35326e-09
3.77475e-09
3.50647e-09
3.76744e-09
3.9516e-09
3.55401e-09
3.48644e-09
3.53294e-09
3.27113e-09
2.98262e-09
3.23522e-09
2.87046e-09
3.08203e-09
3.81242e-09
3.41595e-09
3.11426e-09
2.91931e-09
2.95388e-09
2.81629e-09
3.28433e-09
5.53123e-09
3.09615e-09
3.48549e-09
3.25691e-09
3.48723e-09
3.70559e-09
3.30212e-09
3.21658e-09
3.25578e-09
3.02449e-09
2.83541e-09
3.03283e-09
2.74052e-09
2.88499e-09
3.37264e-09
3.09515e-09
2.90497e-09
2.78391e-09
2.77262e-09
2.70023e-09
3.03915e-09
4.20791e-09
2.88466e-09
3.24045e-09
3.03361e-09
3.24794e-09
3.50301e-09
3.10422e-09
2.98436e-09
3.01268e-09
2.8208e-09
2.71203e-09
2.83659e-09
2.63459e-09
2.70386e-09
3.07463e-09
2.81387e-09
2.733e-09
2.67586e-09
2.63359e-09
2.61277e-09
2.83779e-09
3.27817e-09
2.71624e-09
3.02045e-09
2.84912e-09
3.06015e-09
3.34296e-09
2.93888e-09
2.78987e-09
2.81276e-09
2.66035e-09
2.61207e-09
2.66505e-09
2.55455e-09
2.56832e-09
2.79331e-09
2.579e-09
2.60574e-09
2.59595e-09
2.53792e-09
2.55483e-09
2.68087e-09
2.70047e-09
2.59384e-09
2.84e-09
2.70478e-09
2.90228e-09
3.21815e-09
2.79812e-09
2.62882e-09
2.65621e-09
2.53712e-09
2.53972e-09
2.54191e-09
2.51031e-09
2.48778e-09
2.57093e-09
2.43721e-09
2.5181e-09
2.54543e-09
2.47085e-09
2.52824e-09
2.56947e-09
2.41747e-09
2.51435e-09
2.69958e-09
2.59535e-09
2.76434e-09
3.13413e-09
2.68347e-09
2.50025e-09
2.53675e-09
2.44939e-09
2.50527e-09
2.47427e-09
2.50584e-09
2.44443e-09
2.43636e-09
2.35457e-09
2.4578e-09
2.52519e-09
2.42947e-09
2.52915e-09
2.5001e-09
2.34491e-09
2.47066e-09
2.59434e-09
2.5191e-09
2.66392e-09
3.07858e-09
2.61178e-09
2.41148e-09
2.45256e-09
2.3961e-09
2.50976e-09
2.43848e-09
2.53941e-09
2.43637e-09
2.35831e-09
2.31752e-09
2.42384e-09
2.53426e-09
2.42448e-09
2.56319e-09
2.46457e-09
2.36249e-09
2.46528e-09
2.52147e-09
2.47277e-09
2.59961e-09
3.03921e-09
2.5785e-09
2.35518e-09
2.40516e-09
2.38173e-09
2.55341e-09
2.43996e-09
2.6134e-09
2.48153e-09
2.32835e-09
2.31432e-09
2.42969e-09
2.57663e-09
2.46734e-09
2.63476e-09
2.47081e-09
2.43614e-09
2.50751e-09
2.48191e-09
2.4697e-09
2.57788e-09
3.0463e-09
2.5899e-09
2.33494e-09
2.40042e-09
2.41777e-09
2.63722e-09
2.50466e-09
2.73655e-09
2.60166e-09
2.33394e-09
2.35333e-09
2.48628e-09
2.6612e-09
2.56562e-09
2.76048e-09
2.5263e-09
2.55488e-09
2.60675e-09
2.48917e-09
2.51686e-09
2.60067e-09
3.12559e-09
2.65697e-09
2.36451e-09
2.44971e-09
2.52245e-09
2.77708e-09
2.64227e-09
2.92924e-09
2.7932e-09
2.38662e-09
2.45734e-09
2.60134e-09
2.80168e-09
2.73866e-09
2.95773e-09
2.64167e-09
2.72451e-09
2.78105e-09
2.5499e-09
2.62968e-09
2.68422e-09
3.29712e-09
2.7947e-09
2.46096e-09
2.57748e-09
2.73133e-09
2.99013e-09
2.85295e-09
3.2277e-09
3.08229e-09
2.51225e-09
2.65893e-09
2.79656e-09
3.0199e-09
3.01122e-09
3.25406e-09
2.83829e-09
2.98542e-09
3.05906e-09
2.68641e-09
2.83357e-09
2.84467e-09
3.54897e-09
3.04783e-09
2.66422e-09
2.82399e-09
3.10716e-09
3.32094e-09
3.17798e-09
3.68683e-09
3.52591e-09
2.75108e-09
3.02464e-09
3.09603e-09
3.34742e-09
3.42374e-09
3.70381e-09
3.15427e-09
3.40137e-09
3.50125e-09
2.9264e-09
3.18524e-09
3.13678e-09
3.90116e-09
3.4744e-09
3.0387e-09
3.26554e-09
3.77039e-09
3.83623e-09
3.67211e-09
4.38636e-09
4.204e-09
3.17851e-09
3.66926e-09
3.56401e-09
3.85362e-09
4.07195e-09
4.37774e-09
3.64857e-09
4.05344e-09
4.18697e-09
3.33101e-09
3.78374e-09
3.61659e-09
4.39675e-09
4.15604e-09
3.7038e-09
4.02909e-09
4.93236e-09
4.61339e-09
4.43736e-09
5.46556e-09
5.24478e-09
3.93823e-09
4.7766e-09
4.27818e-09
4.61067e-09
5.06166e-09
5.44932e-09
4.40532e-09
5.03703e-09
5.23132e-09
4.03503e-09
4.92053e-09
4.37066e-09
5.23527e-09
5.19424e-09
4.86318e-09
5.36807e-09
6.94577e-09
5.80038e-09
5.59884e-09
7.04136e-09
6.81594e-09
5.22918e-09
6.73225e-09
5.37916e-09
5.75273e-09
6.56323e-09
7.08438e-09
5.54984e-09
6.50882e-09
6.76754e-09
5.27748e-09
6.97686e-09
5.51939e-09
6.6673e-09
6.72019e-09
6.88137e-09
7.69604e-09
1.04795e-08
7.54054e-09
7.36043e-09
9.36724e-09
9.15792e-09
7.46446e-09
1.04974e-08
7.04229e-09
7.57777e-09
8.77578e-09
9.32951e-09
7.2417e-09
8.80318e-09
9.04145e-09
7.73048e-09
1.01338e-08
7.19437e-09
8.72931e-09
8.98185e-09
1.0479e-08
1.17425e-08
1.62522e-08
1.00899e-08
9.9048e-09
1.25345e-08
1.24653e-08
1.15082e-08
1.65772e-08
9.48869e-09
1.01982e-08
1.18922e-08
1.28093e-08
9.71294e-09
1.20469e-08
1.23313e-08
1.15375e-08
1.67789e-08
9.65148e-09
1.19895e-08
1.22591e-08
1.65889e-08
1.82636e-08
2.68966e-08
1.36446e-08
1.33794e-08
1.70509e-08
1.74508e-08
1.84726e-08
2.71166e-08
1.29701e-08
1.38156e-08
1.64114e-08
1.72411e-08
1.33613e-08
1.68578e-08
1.67668e-08
1.84333e-08
2.574e-08
1.32503e-08
1.60588e-08
1.67023e-08
2.61075e-08
2.9413e-08
4.39949e-08
1.84484e-08
1.855e-08
2.33024e-08
2.32198e-08
3.05867e-08
4.13794e-08
1.77884e-08
1.87902e-08
2.27164e-08
2.42701e-08
1.8262e-08
2.29395e-08
2.30986e-08
2.83809e-08
4.51905e-08
1.82064e-08
2.25293e-08
2.3044e-08
4.328e-08
4.81896e-08
6.81572e-08
2.49578e-08
2.57309e-08
3.18798e-08
3.14833e-08
4.57516e-08
7.26506e-08
2.44004e-08
2.60564e-08
3.13023e-08
3.3187e-08
2.50059e-08
3.26369e-08
3.0826e-08
4.91957e-08
6.87346e-08
2.49209e-08
3.0919e-08
3.06788e-08
6.72463e-08
7.59735e-08
1.02432e-07
3.44614e-08
3.3723e-08
4.17932e-08
4.22001e-08
7.76929e-08
1.06002e-07
3.39793e-08
3.57719e-08
4.18286e-08
4.42725e-08
3.34159e-08
4.52815e-08
4.28699e-08
7.64479e-08
1.03147e-07
3.33087e-08
4.18297e-08
4.28995e-08
1.09349e-07
1.09466e-07
1.53773e-07
4.48603e-08
4.42619e-08
5.58231e-08
5.61321e-08
1.14821e-07
1.48497e-07
4.50175e-08
4.7731e-08
5.58203e-08
5.79662e-08
4.54354e-08
5.99403e-08
5.48974e-08
1.11845e-07
1.52322e-07
4.53698e-08
5.55262e-08
5.4602e-08
1.45021e-07
1.65079e-07
2.14703e-07
6.00415e-08
6.24133e-08
7.21856e-08
7.47555e-08
1.65416e-07
2.29928e-07
6.01114e-08
6.21126e-08
7.3263e-08
7.52843e-08
5.92591e-08
8.10147e-08
7.278e-08
1.6247e-07
2.11682e-07
5.9033e-08
7.08283e-08
7.24391e-08
2.16115e-07
2.27951e-07
2.77709e-07
7.57017e-08
7.69755e-08
9.10973e-08
9.15195e-08
2.36186e-07
2.63746e-07
7.69136e-08
7.87477e-08
9.26009e-08
9.46247e-08
7.6985e-08
9.78869e-08
9.03034e-08
2.23896e-07
2.79242e-07
7.63879e-08
9.32525e-08
9.04744e-08
2.77805e-07
2.93834e-07
3.60846e-07
9.6883e-08
9.99869e-08
1.13083e-07
1.20534e-07
2.83709e-07
3.87435e-07
9.94361e-08
1.01178e-07
1.15662e-07
1.15265e-07
9.59885e-08
1.25764e-07
1.13604e-07
2.95412e-07
3.64046e-07
9.61815e-08
1.15663e-07
1.12235e-07
3.6033e-07
3.77843e-07
4.32838e-07
1.19377e-07
1.25578e-07
1.39625e-07
1.40576e-07
3.96238e-07
4.20316e-07
1.21493e-07
1.20783e-07
1.43394e-07
1.41882e-07
1.19138e-07
1.3594e-07
1.38625e-07
3.771e-07
4.37736e-07
1.17984e-07
1.42074e-07
1.39803e-07
4.32918e-07
4.49192e-07
5.13995e-07
1.45407e-07
1.47838e-07
1.6724e-07
1.81143e-07
4.3579e-07
5.3222e-07
1.49855e-07
1.47072e-07
1.7013e-07
1.66431e-07
1.45781e-07
1.79529e-07
1.66595e-07
4.54892e-07
5.0454e-07
1.46768e-07
1.71055e-07
1.64967e-07
5.12051e-07
5.29288e-07
5.93799e-07
1.78143e-07
1.92146e-07
2.05143e-07
2.08984e-07
5.51488e-07
5.84761e-07
1.80512e-07
1.76695e-07
2.09139e-07
2.03512e-07
1.74583e-07
2.04238e-07
1.99339e-07
5.23189e-07
5.92802e-07
1.72136e-07
2.05847e-07
2.00525e-07
5.82215e-07
6.07256e-07
6.37075e-07
2.10501e-07
2.11546e-07
2.31464e-07
2.28942e-07
5.92965e-07
6.31007e-07
2.1514e-07
2.09036e-07
2.33448e-07
2.29637e-07
2.08017e-07
2.28384e-07
2.35455e-07
6.03815e-07
6.33393e-07
2.10567e-07
2.29459e-07
2.32909e-07
6.45551e-07
6.51096e-07
7.11492e-07
2.41241e-07
2.40557e-07
2.72705e-07
2.83734e-07
6.5141e-07
7.08982e-07
2.40648e-07
2.40549e-07
2.70833e-07
2.73361e-07
2.43119e-07
2.77912e-07
2.68779e-07
6.4793e-07
7.10086e-07
2.39246e-07
2.73405e-07
2.70343e-07
7.00516e-07
7.23868e-07
7.55843e-07
2.84796e-07
2.93079e-07
3.16728e-07
3.18818e-07
7.2062e-07
7.57398e-07
2.84382e-07
2.83775e-07
3.20184e-07
3.15148e-07
2.80424e-07
3.09866e-07
3.1398e-07
7.23966e-07
7.54944e-07
2.83236e-07
3.18726e-07
3.12744e-07
7.58374e-07
7.67707e-07
7.9948e-07
3.23857e-07
3.31559e-07
3.51746e-07
3.68508e-07
7.71147e-07
8.044e-07
3.27626e-07
3.23899e-07
3.53335e-07
3.5113e-07
3.24096e-07
3.64509e-07
3.59114e-07
7.6598e-07
8.02347e-07
3.21821e-07
3.52254e-07
3.58621e-07
8.01537e-07
8.11298e-07
8.45181e-07
3.66298e-07
3.77022e-07
4.03181e-07
3.97852e-07
8.14053e-07
8.3755e-07
3.66668e-07
3.64059e-07
4.00772e-07
4.07033e-07
3.70159e-07
3.94373e-07
3.94744e-07
8.14458e-07
8.44346e-07
3.70447e-07
4.0625e-07
3.95553e-07
8.38596e-07
8.54694e-07
8.80096e-07
4.12432e-07
4.06574e-07
4.44934e-07
4.5028e-07
8.48222e-07
8.82198e-07
4.09537e-07
4.17581e-07
4.44595e-07
4.43559e-07
4.04678e-07
4.51093e-07
4.52072e-07
8.53859e-07
8.78647e-07
4.04967e-07
4.43044e-07
4.50512e-07
8.87493e-07
8.90845e-07
9.17524e-07
4.58112e-07
4.65939e-07
4.98938e-07
4.97565e-07
8.93514e-07
9.17556e-07
4.59495e-07
4.55911e-07
4.9844e-07
5.00097e-07
4.68492e-07
4.95499e-07
5.00313e-07
8.89421e-07
9.21408e-07
4.66823e-07
5.00213e-07
4.9839e-07
9.09923e-07
9.25322e-07
9.45473e-07
5.10155e-07
5.09213e-07
5.36785e-07
5.4969e-07
9.26214e-07
9.49726e-07
5.07097e-07
5.12893e-07
5.33848e-07
5.44032e-07
5.07031e-07
5.42004e-07
5.35589e-07
9.29968e-07
9.47108e-07
5.05116e-07
5.41728e-07
5.35129e-07
9.4619e-07
9.54976e-07
9.85404e-07
5.48086e-07
5.59562e-07
5.96825e-07
5.90441e-07
9.58387e-07
9.8066e-07
5.47928e-07
5.53165e-07
5.99213e-07
5.91674e-07
5.51366e-07
5.91923e-07
6.07064e-07
9.55567e-07
9.82677e-07
5.51891e-07
5.89336e-07
6.07384e-07
9.91393e-07
9.94873e-07
1.01391e-06
6.12501e-07
6.05395e-07
6.43157e-07
6.42816e-07
9.89542e-07
1.01172e-06
6.13233e-07
6.07693e-07
6.40249e-07
6.43516e-07
6.2023e-07
6.40596e-07
6.46572e-07
9.92297e-07
1.01504e-06
6.19609e-07
6.45885e-07
6.44413e-07
1.01295e-06
1.02071e-06
1.03956e-06
6.52672e-07
6.5116e-07
6.90217e-07
6.86525e-07
1.01875e-06
1.04255e-06
6.49091e-07
6.51582e-07
6.88638e-07
6.86306e-07
6.54183e-07
6.88291e-07
6.85686e-07
1.02181e-06
1.03973e-06
6.52404e-07
6.88273e-07
6.86756e-07
1.04098e-06
1.04708e-06
1.06764e-06
7.00404e-07
7.0242e-07
7.27674e-07
7.39425e-07
1.05188e-06
1.07036e-06
7.0114e-07
7.01337e-07
7.28827e-07
7.3389e-07
7.00151e-07
7.40003e-07
7.34059e-07
1.04759e-06
1.06788e-06
7.0125e-07
7.30054e-07
7.33296e-07
1.06731e-06
1.07629e-06
1.10385e-06
7.4012e-07
7.47329e-07
7.84864e-07
7.73449e-07
1.07593e-06
1.09602e-06
7.40155e-07
7.42289e-07
7.83721e-07
7.79814e-07
7.42988e-07
7.72847e-07
7.80695e-07
1.07501e-06
1.10234e-06
7.42174e-07
7.79871e-07
7.80619e-07
1.10424e-06
1.11165e-06
1.12797e-06
7.98776e-07
7.86395e-07
8.27963e-07
8.31197e-07
1.10587e-06
1.13357e-06
7.97799e-07
7.95346e-07
8.26886e-07
8.29878e-07
7.95584e-07
8.30504e-07
8.29947e-07
1.11158e-06
1.13041e-06
7.95919e-07
8.31064e-07
8.30047e-07
1.12973e-06
1.13294e-06
1.14647e-06
8.34126e-07
8.42006e-07
8.55567e-07
8.62105e-07
1.13962e-06
1.15019e-06
8.33018e-07
8.36464e-07
8.55801e-07
8.53925e-07
8.37184e-07
8.6098e-07
8.55486e-07
1.13501e-06
1.14585e-06
8.37182e-07
8.53701e-07
8.55504e-07
1.14659e-06
1.15368e-06
1.18096e-06
8.66361e-07
8.68006e-07
9.01104e-07
8.95508e-07
1.15532e-06
1.17484e-06
8.67256e-07
8.63024e-07
9.00271e-07
9.0401e-07
8.63861e-07
8.94303e-07
9.01184e-07
1.15224e-06
1.18122e-06
8.63809e-07
9.02514e-07
9.0129e-07
1.17972e-06
1.1875e-06
1.20417e-06
9.11181e-07
9.07932e-07
9.39107e-07
9.3857e-07
1.18291e-06
1.20506e-06
9.09449e-07
9.16629e-07
9.38735e-07
9.38155e-07
9.11904e-07
9.38915e-07
9.34758e-07
1.18998e-06
1.20563e-06
9.12363e-07
9.38593e-07
9.34723e-07
1.20251e-06
1.21025e-06
1.22384e-06
9.45856e-07
9.4642e-07
9.65248e-07
9.68681e-07
1.21142e-06
1.2266e-06
9.46189e-07
9.4291e-07
9.64285e-07
9.65707e-07
9.44925e-07
9.70231e-07
9.72825e-07
1.20956e-06
1.22309e-06
9.44388e-07
9.66567e-07
9.71771e-07
1.22994e-06
1.22915e-06
1.24827e-06
9.74625e-07
9.75619e-07
9.99607e-07
9.94698e-07
1.23133e-06
1.24332e-06
9.73187e-07
9.76799e-07
9.99546e-07
1.0005e-06
9.78064e-07
9.91766e-07
9.9415e-07
1.23111e-06
1.24955e-06
9.77329e-07
9.98641e-07
9.93957e-07
1.24347e-06
1.25381e-06
1.266e-06
1.00439e-06
1.0019e-06
1.02349e-06
1.02792e-06
1.24905e-06
1.27086e-06
1.00475e-06
1.00458e-06
1.02384e-06
1.02246e-06
1.00181e-06
1.03045e-06
1.02819e-06
1.25305e-06
1.26367e-06
1.00179e-06
1.02231e-06
1.02924e-06
1.27142e-06
1.27244e-06
1.2931e-06
1.03356e-06
1.03574e-06
1.05701e-06
1.05235e-06
1.27749e-06
1.28889e-06
1.03347e-06
1.03161e-06
1.05536e-06
1.05445e-06
1.0366e-06
1.05149e-06
1.05418e-06
1.27127e-06
1.29182e-06
1.03725e-06
1.05463e-06
1.05266e-06
1.28949e-06
1.29707e-06
1.30318e-06
1.06057e-06
1.05698e-06
1.07248e-06
1.07392e-06
1.29243e-06
1.30418e-06
1.05882e-06
1.06003e-06
1.0721e-06
1.07463e-06
1.05773e-06
1.07296e-06
1.0727e-06
1.29595e-06
1.30511e-06
1.05676e-06
1.07449e-06
1.07617e-06
1.30467e-06
1.30835e-06
1.32735e-06
1.07956e-06
1.08064e-06
1.09969e-06
1.09964e-06
1.31039e-06
1.32705e-06
1.07977e-06
1.07892e-06
1.09934e-06
1.09494e-06
1.08071e-06
1.10066e-06
1.10304e-06
1.30997e-06
1.32196e-06
1.08413e-06
1.09458e-06
1.10096e-06
1.32891e-06
1.33139e-06
1.33915e-06
1.10311e-06
1.10468e-06
1.11634e-06
1.1165e-06
1.33168e-06
1.33945e-06
1.10286e-06
1.10248e-06
1.11734e-06
1.12286e-06
1.10734e-06
1.11611e-06
1.11601e-06
1.32726e-06
1.34521e-06
1.10468e-06
1.12245e-06
1.11834e-06
1.33966e-06
1.34453e-06
1.35958e-06
1.12338e-06
1.12055e-06
1.14077e-06
1.13784e-06
1.34314e-06
1.35568e-06
1.1242e-06
1.1265e-06
1.13985e-06
1.13313e-06
1.12041e-06
1.13728e-06
1.13907e-06
1.34975e-06
1.35262e-06
1.12367e-06
1.13358e-06
1.13681e-06
1.35633e-06
1.36289e-06
1.36507e-06
1.14369e-06
1.1437e-06
1.1495e-06
1.15298e-06
1.3612e-06
1.36972e-06
1.14234e-06
1.13658e-06
1.14834e-06
1.15381e-06
1.14382e-06
1.15265e-06
1.15061e-06
1.35535e-06
1.36964e-06
1.13967e-06
1.15197e-06
1.14831e-06
1.36545e-06
1.36846e-06
1.38639e-06
1.15297e-06
1.15525e-06
1.17216e-06
1.17008e-06
1.37258e-06
1.38386e-06
1.15222e-06
1.15994e-06
1.17276e-06
1.1749e-06
1.15324e-06
1.17043e-06
1.17066e-06
1.37642e-06
1.39073e-06
1.15323e-06
1.17583e-06
1.1733e-06
1.38544e-06
1.39281e-06
1.4003e-06
1.17874e-06
1.17613e-06
1.18786e-06
1.18565e-06
1.3897e-06
1.39704e-06
1.17975e-06
1.17838e-06
1.18934e-06
1.18338e-06
1.17775e-06
1.18642e-06
1.18871e-06
1.39413e-06
1.3932e-06
1.17904e-06
1.18323e-06
1.18675e-06
1.39938e-06
1.40178e-06
1.40041e-06
1.18838e-06
1.18682e-06
1.1926e-06
1.19442e-06
1.3988e-06
1.40151e-06
1.18971e-06
1.18452e-06
1.19177e-06
1.19326e-06
1.18964e-06
1.19309e-06
1.1935e-06
1.39459e-06
1.40127e-06
1.18741e-06
1.19434e-06
1.1918e-06
1.40109e-06
1.40405e-06
1.41243e-06
1.19591e-06
1.19876e-06
1.20427e-06
1.20676e-06
1.40614e-06
1.41494e-06
1.19468e-06
1.19826e-06
1.20394e-06
1.2094e-06
1.19597e-06
1.20506e-06
1.20206e-06
1.40715e-06
1.41851e-06
1.19455e-06
1.20959e-06
1.20158e-06
1.40964e-06
1.41526e-06
1.42475e-06
1.20613e-06
1.20822e-06
1.21768e-06
1.21868e-06
1.41749e-06
1.42658e-06
1.20651e-06
1.21056e-06
1.2185e-06
1.2177e-06
1.2041e-06
1.21924e-06
1.21739e-06
1.42071e-06
1.42486e-06
1.20398e-06
1.21734e-06
1.21836e-06
1.42474e-06
1.42979e-06
1.43111e-06
1.22196e-06
1.22271e-06
1.22568e-06
1.22584e-06
1.43149e-06
1.43126e-06
1.22238e-06
1.2214e-06
1.22541e-06
1.22507e-06
1.22212e-06
1.22584e-06
1.22592e-06
1.42919e-06
1.43102e-06
1.22315e-06
1.22603e-06
1.22707e-06
1.43272e-06
1.43201e-06
1.42821e-06
1.22483e-06
1.22476e-06
1.22371e-06
1.22345e-06
1.43206e-06
1.42737e-06
1.22441e-06
1.22435e-06
1.22336e-06
1.2234e-06
1.22492e-06
1.22339e-06
1.22358e-06
1.43191e-06
1.42764e-06
1.22609e-06
1.22421e-06
1.2245e-06
1.42895e-06
1.43309e-06
1.46269e-06
1.22595e-06
1.22558e-06
1.24749e-06
1.247e-06
1.43219e-06
1.46177e-06
1.22573e-06
1.22579e-06
1.24751e-06
1.24735e-06
1.22568e-06
1.24716e-06
1.24696e-06
1.43242e-06
1.4616e-06
1.22628e-06
1.24672e-06
1.24657e-06
1.46193e-06
1.46942e-06
1.46672e-06
1.25309e-06
1.2527e-06
1.255e-06
1.25482e-06
1.46863e-06
1.46655e-06
1.25307e-06
1.25279e-06
1.25488e-06
1.25441e-06
1.25278e-06
1.25494e-06
1.2551e-06
1.46828e-06
1.46557e-06
1.25224e-06
1.25389e-06
1.25448e-06
1.46671e-06
1.4661e-06
1.41442e-06
1.24994e-06
1.24991e-06
1.21851e-06
1.21863e-06
1.46602e-06
1.41472e-06
1.24976e-06
1.24918e-06
1.21829e-06
1.21782e-06
1.25029e-06
1.21862e-06
1.21904e-06
1.46497e-06
1.41371e-06
1.24968e-06
1.21758e-06
1.21855e-06
1.41497e-06
1.41068e-06
1.36976e-06
1.20547e-06
1.20559e-06
1.17894e-06
1.17892e-06
1.41098e-06
1.36979e-06
1.20526e-06
1.20484e-06
1.17882e-06
1.17859e-06
1.20601e-06
1.17894e-06
1.17933e-06
1.41002e-06
1.36953e-06
1.20558e-06
1.17841e-06
1.17904e-06
1.37013e-06
1.37048e-06
1.39629e-06
1.17655e-06
1.17648e-06
1.18917e-06
1.18897e-06
1.37049e-06
1.39598e-06
1.17644e-06
1.17625e-06
1.18915e-06
1.18911e-06
1.1769e-06
1.18904e-06
1.18938e-06
1.37026e-06
1.39619e-06
1.17662e-06
1.18876e-06
1.18911e-06
1.39634e-06
1.41076e-06
1.47606e-06
1.20329e-06
1.20309e-06
1.25183e-06
1.25176e-06
1.41043e-06
1.47587e-06
1.20328e-06
1.20326e-06
1.25176e-06
1.25179e-06
1.20349e-06
1.25179e-06
1.25199e-06
1.41066e-06
1.47589e-06
1.20321e-06
1.2514e-06
1.2517e-06
1.47604e-06
1.4906e-06
1.54678e-06
1.26691e-06
1.2669e-06
1.30902e-06
1.30914e-06
1.49047e-06
1.54685e-06
1.26683e-06
1.26685e-06
1.3089e-06
1.30892e-06
1.26708e-06
1.3091e-06
1.30923e-06
1.49042e-06
1.54658e-06
1.2668e-06
1.30869e-06
1.309e-06
1.54691e-06
1.55951e-06
1.58864e-06
1.32111e-06
1.32125e-06
1.34254e-06
1.3427e-06
1.5596e-06
1.58878e-06
1.32099e-06
1.321e-06
1.34241e-06
1.34243e-06
1.32132e-06
1.34262e-06
1.34273e-06
1.55931e-06
1.58849e-06
1.32112e-06
1.34236e-06
1.34258e-06
1.58883e-06
1.59181e-06
1.54748e-06
1.3436e-06
1.34376e-06
1.32083e-06
1.32095e-06
1.59195e-06
1.54757e-06
1.34348e-06
1.3435e-06
1.32071e-06
1.32076e-06
1.34378e-06
1.32084e-06
1.32092e-06
1.59167e-06
1.54748e-06
1.34365e-06
1.32082e-06
1.32087e-06
1.54762e-06
1.54051e-06
1.43024e-06
1.30258e-06
1.30268e-06
1.23378e-06
1.23384e-06
1.5406e-06
1.43026e-06
1.30246e-06
1.30252e-06
1.23366e-06
1.23378e-06
1.30265e-06
1.23376e-06
1.23381e-06
1.54051e-06
1.43034e-06
1.30262e-06
1.23383e-06
1.2338e-06
1.43032e-06
1.42247e-06
1.34337e-06
1.21185e-06
1.2119e-06
1.16001e-06
1.16004e-06
1.42248e-06
1.34335e-06
1.21174e-06
1.21187e-06
1.15989e-06
1.16005e-06
1.21188e-06
1.15997e-06
1.16004e-06
1.42257e-06
1.34349e-06
1.21186e-06
1.16002e-06
1.15999e-06
1.34343e-06
1.34099e-06
1.32051e-06
1.14833e-06
1.14835e-06
1.12978e-06
1.12981e-06
1.34096e-06
1.32047e-06
1.14821e-06
1.14837e-06
1.12966e-06
1.12982e-06
1.14836e-06
1.12971e-06
1.12982e-06
1.3411e-06
1.32059e-06
1.1483e-06
1.12974e-06
1.12972e-06
1.32055e-06
1.32305e-06
1.34204e-06
1.12829e-06
1.12832e-06
1.13502e-06
1.13506e-06
1.32301e-06
1.34199e-06
1.12817e-06
1.12833e-06
1.13491e-06
1.13506e-06
1.12833e-06
1.13494e-06
1.13508e-06
1.32312e-06
1.34208e-06
1.12823e-06
1.13497e-06
1.13496e-06
1.34209e-06
1.34977e-06
1.37371e-06
1.1407e-06
1.14075e-06
1.15454e-06
1.15459e-06
1.34974e-06
1.37366e-06
1.1406e-06
1.14075e-06
1.15445e-06
1.1546e-06
1.14076e-06
1.15447e-06
1.15461e-06
1.34982e-06
1.37375e-06
1.14065e-06
1.15452e-06
1.15452e-06
1.37378e-06
1.38018e-06
1.39518e-06
1.1581e-06
1.15814e-06
1.16502e-06
1.16506e-06
1.38013e-06
1.39513e-06
1.15801e-06
1.15815e-06
1.16494e-06
1.16508e-06
1.15817e-06
1.16494e-06
1.16509e-06
1.38022e-06
1.39522e-06
1.15807e-06
1.165e-06
1.16501e-06
1.39526e-06
1.3996e-06
1.40605e-06
1.16631e-06
1.16635e-06
1.16814e-06
1.16818e-06
1.39955e-06
1.406e-06
1.16623e-06
1.16637e-06
1.16806e-06
1.16821e-06
1.16639e-06
1.16806e-06
1.16822e-06
1.39963e-06
1.40608e-06
1.1663e-06
1.16813e-06
1.16813e-06
1.40612e-06
1.40896e-06
1.41062e-06
1.1684e-06
1.16844e-06
1.16862e-06
1.16866e-06
1.40891e-06
1.41057e-06
1.16832e-06
1.16847e-06
1.16854e-06
1.16869e-06
1.16848e-06
1.16854e-06
1.1687e-06
1.40899e-06
1.41066e-06
1.1684e-06
1.16861e-06
1.16862e-06
1.4107e-06
1.41281e-06
1.41237e-06
1.16862e-06
1.16866e-06
1.16848e-06
1.16852e-06
1.41276e-06
1.41232e-06
1.16854e-06
1.16869e-06
1.16839e-06
1.16855e-06
1.1687e-06
1.1684e-06
1.16856e-06
1.41285e-06
1.4124e-06
1.16862e-06
1.16847e-06
1.16848e-06
1.41244e-06
1.41427e-06
1.41269e-06
1.16844e-06
1.16848e-06
1.16821e-06
1.16825e-06
1.41423e-06
1.41263e-06
1.16835e-06
1.16851e-06
1.16813e-06
1.16828e-06
1.16852e-06
1.16813e-06
1.1683e-06
1.41431e-06
1.41272e-06
1.16844e-06
1.1682e-06
1.16821e-06
1.41276e-06
1.41453e-06
1.41255e-06
1.16818e-06
1.16822e-06
1.16801e-06
1.16804e-06
1.41448e-06
1.4125e-06
1.1681e-06
1.16825e-06
1.16792e-06
1.16807e-06
1.16826e-06
1.16792e-06
1.16809e-06
1.41456e-06
1.41259e-06
1.16817e-06
1.16799e-06
1.168e-06
1.41263e-06
1.41435e-06
1.4128e-06
1.16802e-06
1.16806e-06
1.16804e-06
1.16808e-06
1.4143e-06
1.41276e-06
1.16793e-06
1.16808e-06
1.16796e-06
1.16811e-06
1.1681e-06
1.16796e-06
1.16813e-06
1.41438e-06
1.41284e-06
1.16801e-06
1.16803e-06
1.16804e-06
1.41287e-06
1.41467e-06
1.41279e-06
1.16808e-06
1.16812e-06
1.16804e-06
1.16808e-06
1.41463e-06
1.41274e-06
1.168e-06
1.16815e-06
1.16795e-06
1.16811e-06
1.16816e-06
1.16795e-06
1.16812e-06
1.4147e-06
1.41283e-06
1.16807e-06
1.16802e-06
1.16803e-06
1.41287e-06
1.41458e-06
1.41259e-06
1.16805e-06
1.16809e-06
1.16798e-06
1.16802e-06
1.41453e-06
1.41254e-06
1.16796e-06
1.16811e-06
1.1679e-06
1.16805e-06
1.16813e-06
1.1679e-06
1.16807e-06
1.41461e-06
1.41263e-06
1.16804e-06
1.16797e-06
1.16798e-06
1.41266e-06
1.41445e-06
1.41286e-06
1.16804e-06
1.16807e-06
1.16802e-06
1.16805e-06
1.4144e-06
1.4128e-06
1.16795e-06
1.1681e-06
1.16793e-06
1.16808e-06
1.16812e-06
1.16793e-06
1.1681e-06
1.41448e-06
1.41289e-06
1.16803e-06
1.168e-06
1.16801e-06
1.41293e-06
1.41467e-06
1.41263e-06
1.16807e-06
1.16811e-06
1.16798e-06
1.16801e-06
1.41462e-06
1.41256e-06
1.16799e-06
1.16814e-06
1.16789e-06
1.16804e-06
1.16815e-06
1.16789e-06
1.16806e-06
1.4147e-06
1.41265e-06
1.16806e-06
1.16796e-06
1.16797e-06
1.41269e-06
1.41442e-06
1.41276e-06
1.16806e-06
1.16809e-06
1.16798e-06
1.16801e-06
1.41436e-06
1.41272e-06
1.16797e-06
1.16812e-06
1.16789e-06
1.16804e-06
1.16814e-06
1.16789e-06
1.16806e-06
1.41444e-06
1.4128e-06
1.16805e-06
1.16796e-06
1.16797e-06
1.41284e-06
1.41461e-06
1.41274e-06
1.1681e-06
1.16814e-06
1.16796e-06
1.16799e-06
1.41457e-06
1.41267e-06
1.16802e-06
1.16817e-06
1.16787e-06
1.16803e-06
1.16818e-06
1.16787e-06
1.16803e-06
1.41465e-06
1.41277e-06
1.16809e-06
1.16794e-06
1.16794e-06
1.4128e-06
1.41451e-06
1.41249e-06
1.16812e-06
1.16816e-06
1.16757e-06
1.16761e-06
1.41445e-06
1.41244e-06
1.16804e-06
1.16819e-06
1.16748e-06
1.16763e-06
1.1682e-06
1.16748e-06
1.16764e-06
1.41454e-06
1.41254e-06
1.16811e-06
1.16754e-06
1.16755e-06
1.41257e-06
1.41422e-06
1.39391e-06
1.16785e-06
1.16788e-06
1.14742e-06
1.14745e-06
1.41419e-06
1.39389e-06
1.16776e-06
1.16791e-06
1.1474e-06
1.14741e-06
1.16793e-06
1.14745e-06
1.14747e-06
1.41426e-06
1.39392e-06
1.16782e-06
1.14744e-06
1.14744e-06
1.39394e-06
1.37276e-06
1.11246e-06
1.11249e-06
1.37276e-06
1.11246e-06
1.11244e-06
6.51265e-07
6.51235e-07
6.51277e-07
1.11251e-06
1.37277e-06
1.11251e-06
8.87845e-09
2.5479e-09
5.497e-09
5.48607e-09
1.55803e-09
6.53709e-09
2.33474e-08
3.10583e-09
1.50684e-09
4.43793e-09
3.19586e-09
9.71543e-09
5.20296e-09
3.72082e-09
7.26365e-09
7.42282e-09
3.16009e-07
6.06207e-09
4.86433e-07
1.47149e-06
2.95087e-06
7.56135e-09
1.60179e-07
6.08713e-09
2.55163e-07
3.84823e-09
3.61522e-09
3.56686e-09
3.50325e-09
3.83353e-09
3.60034e-09
3.55048e-09
1.48589e-09
1.11123e-07
3.54257e-09
8.41259e-09
1.51879e-09
8.64105e-08
3.50117e-09
2.57296e-06
4.95115e-06
1.43822e-09
2.78349e-09
8.73181e-08
5.09192e-09
1.4556e-09
2.74707e-09
6.45935e-08
2.15316e-07
2.15027e-07
4.80196e-09
1.85467e-07
1.85111e-07
1.61486e-08
8.35971e-07
1.24048e-08
1.09612e-06
6.74179e-06
9.7349e-06
1.66418e-08
4.5523e-07
1.21481e-08
6.7327e-07
3.82015e-09
3.59309e-09
3.54121e-09
3.47609e-09
3.78226e-09