/*--------------------------------*- C++ -*----------------------------------*\
| =========                 |                                                 |
| \\      /  F ield         | OpenFOAM: The Open Source CFD Toolbox           |
|  \\    /   O peration     | Version:  v2012                                 |
|   \\  /    A nd           | Website:  www.openfoam.com                      |
|    \\/     M anipulation  |                                                 |
\*---------------------------------------------------------------------------*/
FoamFile
{
    version     2.0;
    format      ascii;
    class       volScalarField;
    location    "312.5";
    object      k;
}
// * * * * * * * * * * * * * * * * * * * * * * * * * * * * * * * * * * * * * //

dimensions      [0 2 -2 0 0 0 0];


internalField   nonuniform List<scalar> 
171728
(
5.15297e-07
4.51178e-07
3.38556e-07
3.51805e-07
5.08637e-07
4.40993e-07
3.28906e-07
3.33385e-07
5.13505e-07
4.46533e-07
3.18899e-07
3.15866e-07
5.17297e-07
4.59895e-07
3.10463e-07
3.01242e-07
5.21466e-07
4.78763e-07
3.0341e-07
2.88114e-07
5.26073e-07
5.10603e-07
2.96135e-07
2.75571e-07
5.31037e-07
5.25692e-07
2.90758e-07
2.6413e-07
5.36482e-07
4.32532e-07
2.87027e-07
2.5483e-07
5.42244e-07
2.86048e-07
2.85018e-07
2.46006e-07
5.48691e-07
2.16762e-07
2.84357e-07
2.38616e-07
5.55634e-07
1.98739e-07
2.85327e-07
2.31457e-07
5.6309e-07
1.94989e-07
2.89265e-07
2.25195e-07
5.70554e-07
1.94904e-07
2.98413e-07
2.19086e-07
5.78041e-07
1.94648e-07
3.10036e-07
2.13806e-07
5.85881e-07
1.94936e-07
3.23316e-07
2.1042e-07
5.93462e-07
1.96717e-07
3.31508e-07
2.11205e-07
6.01304e-07
2.04802e-07
3.21758e-07
2.18351e-07
6.09378e-07
2.21489e-07
2.99032e-07
2.36556e-07
6.18178e-07
2.49681e-07
2.97335e-07
2.7304e-07
6.2709e-07
2.93962e-07
3.2545e-07
3.43176e-07
6.36991e-07
3.69453e-07
3.84779e-07
4.79183e-07
6.46896e-07
4.85332e-07
5.0239e-07
7.07549e-07
6.59005e-07
6.82782e-07
6.36678e-07
1.0422e-06
6.72103e-07
9.01997e-07
8.81527e-07
1.72511e-06
6.89326e-07
1.26154e-06
1.20403e-06
2.65152e-06
7.08694e-07
1.87963e-06
1.65214e-06
4.27609e-06
7.31793e-07
2.34479e-06
2.18524e-06
5.30226e-06
7.63121e-07
3.46099e-06
2.71752e-06
8.02398e-06
8.04877e-07
3.76043e-06
3.71637e-06
1.0044e-05
8.42869e-07
5.3156e-06
4.51699e-06
1.28492e-05
9.18754e-07
5.41337e-06
5.65961e-06
1.4956e-05
9.56402e-07
7.13067e-06
6.68888e-06
1.77297e-05
1.0966e-06
8.42574e-06
8.37294e-06
1.9663e-05
1.16133e-06
8.58277e-06
8.8376e-06
2.19022e-05
1.2665e-06
1.12099e-05
1.06496e-05
2.34167e-05
1.57027e-06
1.18264e-05
1.27182e-05
2.54312e-05
1.64878e-06
1.45953e-05
1.35456e-05
2.69761e-05
2.03011e-06
1.53256e-05
1.61257e-05
2.78988e-05
2.26121e-06
1.75784e-05
1.69427e-05
2.98946e-05
2.84479e-06
1.91988e-05
1.94764e-05
3.07978e-05
3.12467e-06
2.09827e-05
2.10343e-05
3.13976e-05
3.78352e-06
2.27028e-05
2.24493e-05
3.38617e-05
4.69021e-06
2.47237e-05
2.50393e-05
3.43999e-05
5.13993e-06
2.6159e-05
2.63694e-05
3.54003e-05
6.10971e-06
2.87606e-05
2.79942e-05
3.63496e-05
6.7432e-06
2.9252e-05
2.95396e-05
3.77363e-05
8.78266e-06
3.18798e-05
3.21989e-05
3.91259e-05
9.30785e-06
3.32032e-05
3.26421e-05
3.94132e-05
1.04196e-05
3.39444e-05
3.43074e-05
4.08159e-05
1.21043e-05
3.59319e-05
3.62799e-05
4.16437e-05
1.33012e-05
3.74568e-05
3.67677e-05
4.30049e-05
1.48768e-05
3.79232e-05
3.86314e-05
4.32982e-05
1.58726e-05
3.97487e-05
3.90652e-05
4.45257e-05
1.81048e-05
4.07958e-05
4.08711e-05
4.53892e-05
1.92877e-05
4.15135e-05
4.17836e-05
4.58193e-05
2.09124e-05
4.29354e-05
4.25005e-05
4.71346e-05
2.22416e-05
4.37171e-05
4.40357e-05
4.75198e-05
2.39697e-05
4.4666e-05
4.4684e-05
4.83622e-05
2.54272e-05
4.55469e-05
4.51532e-05
4.87346e-05
2.62098e-05
4.63416e-05
4.68031e-05
4.95949e-05
2.85758e-05
4.75462e-05
4.73933e-05
5.053e-05
2.93789e-05
4.76376e-05
4.74614e-05
5.05517e-05
3.02708e-05
4.84539e-05
4.87911e-05
5.10283e-05
3.13673e-05
4.93487e-05
4.91398e-05
5.17328e-05
3.31448e-05
5.01764e-05
5.01643e-05
5.25926e-05
3.38351e-05
5.00159e-05
5.00691e-05
5.21777e-05
3.4388e-05
5.12317e-05
5.12538e-05
5.36659e-05
3.71549e-05
5.27771e-05
5.27482e-05
5.49645e-05
3.76174e-05
5.20282e-05
5.19798e-05
5.36491e-05
3.54717e-05
4.9018e-05
4.90034e-05
5.07686e-05
3.4062e-05
4.84639e-05
4.84603e-05
5.06643e-05
3.64996e-05
5.19944e-05
5.19876e-05
5.42289e-05
4.17457e-05
5.57049e-05
5.56846e-05
5.75743e-05
4.53547e-05
5.85928e-05
5.85734e-05
6.03356e-05
4.65845e-05
5.91559e-05
5.91423e-05
6.04884e-05
4.36398e-05
5.44925e-05
5.44955e-05
5.5618e-05
3.77591e-05
4.96545e-05
4.96586e-05
5.11365e-05
3.43805e-05
4.77481e-05
4.77506e-05
4.95599e-05
3.40362e-05
4.83451e-05
4.83446e-05
5.05378e-05
3.76567e-05
5.04844e-05
5.04843e-05
5.24295e-05
4.00604e-05
5.17188e-05
5.17191e-05
5.36052e-05
4.10834e-05
5.2193e-05
5.21934e-05
5.41182e-05
4.14729e-05
5.23451e-05
5.23455e-05
5.43061e-05
4.16195e-05
5.23858e-05
5.23862e-05
5.43702e-05
4.16518e-05
5.23859e-05
5.23863e-05
5.43865e-05
4.1646e-05
5.23705e-05
5.23708e-05
5.43748e-05
4.16501e-05
5.23741e-05
5.23743e-05
5.43756e-05
4.16513e-05
5.23754e-05
5.23757e-05
5.4389e-05
4.16481e-05
5.23707e-05
5.2371e-05
5.43696e-05
4.16491e-05
5.23739e-05
5.23742e-05
5.43854e-05
4.16488e-05
5.23727e-05
5.2373e-05
5.43764e-05
4.16492e-05
5.23742e-05
5.23745e-05
5.4377e-05
4.16493e-05
5.23754e-05
5.23757e-05
5.43831e-05
4.16389e-05
5.23593e-05
5.23593e-05
5.43696e-05
4.12417e-05
5.1264e-05
5.12628e-05
5.4061e-05
3.67162e-07
3.11205e-07
3.13134e-07
3.43091e-07
3.07579e-07
3.04893e-07
5.25169e-07
5.45221e-07
5.3727e-07
5.33262e-07
3.70911e-07
3.39941e-07
3.64581e-07
3.3969e-07
3.32278e-07
3.52945e-07
3.65567e-07
3.44444e-07
3.03522e-07
2.78558e-07
2.57961e-07
2.73434e-07
3.41666e-07
3.30656e-07
2.81104e-07
3.38681e-07
2.74188e-07
2.5953e-07
3.41495e-07
4.41215e-07
3.27216e-07
3.63009e-07
3.39189e-07
3.21555e-07
3.31452e-07
3.11065e-07
3.34877e-07
3.43208e-07
3.24814e-07
2.5198e-07
2.72225e-07
2.44675e-07
2.69253e-07
3.28346e-07
3.20502e-07
2.71972e-07
2.49986e-07
2.6553e-07
2.37759e-07
3.22668e-07
4.43688e-07
3.11386e-07
3.38097e-07
3.20755e-07
3.07688e-07
3.21278e-07
2.98854e-07
3.1798e-07
3.23686e-07
3.0741e-07
2.43759e-07
2.68552e-07
2.41498e-07
2.66375e-07
3.18442e-07
3.13551e-07
2.6346e-07
2.35886e-07
2.57484e-07
2.32837e-07
3.08228e-07
4.5605e-07
2.99005e-07
3.19606e-07
3.05271e-07
2.96232e-07
3.12464e-07
2.89261e-07
3.03358e-07
3.06429e-07
2.92232e-07
2.40532e-07
2.65469e-07
2.37284e-07
2.6201e-07
3.12014e-07
3.10488e-07
2.55475e-07
2.32192e-07
2.49722e-07
2.30075e-07
2.95791e-07
4.73486e-07
2.86305e-07
3.03484e-07
2.92277e-07
2.87083e-07
3.05153e-07
2.81403e-07
2.90158e-07
2.91355e-07
2.78751e-07
2.3617e-07
2.60721e-07
2.32911e-07
2.56066e-07
3.09424e-07
3.12501e-07
2.47899e-07
2.29245e-07
2.42588e-07
2.26297e-07
2.83254e-07
5.01677e-07
2.74214e-07
2.90308e-07
2.80348e-07
2.79726e-07
2.97681e-07
2.73607e-07
2.77643e-07
2.77918e-07
2.66617e-07
2.31997e-07
2.54276e-07
2.29669e-07
2.48556e-07
3.11758e-07
3.13971e-07
2.40875e-07
2.25381e-07
2.35991e-07
2.22713e-07
2.71291e-07
5.25649e-07
2.6298e-07
2.78621e-07
2.70074e-07
2.71779e-07
2.91763e-07
2.68404e-07
2.65941e-07
2.65826e-07
2.55773e-07
2.28924e-07
2.46584e-07
2.26981e-07
2.40602e-07
3.12345e-07
3.02702e-07
2.34413e-07
2.21928e-07
2.29828e-07
2.20075e-07
2.604e-07
4.74699e-07
2.52816e-07
2.68501e-07
2.61495e-07
2.67863e-07
2.87809e-07
2.65674e-07
2.56359e-07
2.55139e-07
2.46564e-07
2.26416e-07
2.38335e-07
2.24498e-07
2.316e-07
2.93411e-07
2.51682e-07
2.28503e-07
2.19447e-07
2.25387e-07
2.18099e-07
2.50288e-07
3.16729e-07
2.43964e-07
2.60245e-07
2.54696e-07
2.64371e-07
2.85426e-07
2.60681e-07
2.47403e-07
2.46079e-07
2.3786e-07
2.2364e-07
2.29226e-07
2.21476e-07
2.22184e-07
2.49358e-07
2.31647e-07
2.24743e-07
2.17671e-07
2.23117e-07
2.1717e-07
2.42241e-07
2.27327e-07
2.37896e-07
2.54174e-07
2.48507e-07
2.59668e-07
2.84372e-07
2.56803e-07
2.39238e-07
2.37415e-07
2.30019e-07
2.20762e-07
2.20058e-07
2.19995e-07
2.14036e-07
2.30801e-07
2.21681e-07
2.22598e-07
2.17009e-07
2.20402e-07
2.16872e-07
2.36595e-07
2.0098e-07
2.3305e-07
2.48053e-07
2.42481e-07
2.55824e-07
2.84853e-07
2.53648e-07
2.32001e-07
2.29664e-07
2.23758e-07
2.2006e-07
2.12394e-07
2.21234e-07
2.07813e-07
2.21283e-07
2.13686e-07
2.19512e-07
2.16878e-07
2.17138e-07
2.16963e-07
2.31968e-07
1.954e-07
2.28665e-07
2.42172e-07
2.38051e-07
2.53047e-07
2.87697e-07
2.50305e-07
2.25623e-07
2.23545e-07
2.18815e-07
2.21986e-07
2.06286e-07
2.24555e-07
2.03326e-07
2.13428e-07
2.07583e-07
2.16591e-07
2.1704e-07
2.15749e-07
2.17503e-07
2.27727e-07
1.94899e-07
2.25442e-07
2.37903e-07
2.35314e-07
2.49026e-07
2.95891e-07
2.44611e-07
2.19386e-07
2.18759e-07
2.15328e-07
2.25537e-07
2.02569e-07
2.28711e-07
2.01486e-07
2.07592e-07
2.03037e-07
2.15529e-07
2.17757e-07
2.15273e-07
2.19225e-07
2.2482e-07
1.94645e-07
2.23801e-07
2.35373e-07
2.34299e-07
2.42961e-07
3.06829e-07
2.37815e-07
2.1381e-07
2.15492e-07
2.13789e-07
2.29762e-07
2.01544e-07
2.33745e-07
2.02646e-07
2.03187e-07
1.99961e-07
2.15104e-07
2.201e-07
2.15555e-07
2.23476e-07
2.23824e-07
1.9486e-07
2.24704e-07
2.34689e-07
2.35255e-07
2.36285e-07
3.20167e-07
2.31613e-07
2.10078e-07
2.14452e-07
2.1518e-07
2.35399e-07
2.03276e-07
2.4133e-07
2.06741e-07
2.00398e-07
1.99125e-07
2.15969e-07
2.24851e-07
2.18019e-07
2.29952e-07
2.25277e-07
1.96052e-07
2.2865e-07
2.36169e-07
2.38231e-07
2.30468e-07
3.30574e-07
2.29299e-07
2.09822e-07
2.16656e-07
2.20969e-07
2.43682e-07
2.08366e-07
2.53231e-07
2.15102e-07
2.00345e-07
2.03094e-07
2.18721e-07
2.32048e-07
2.22693e-07
2.39615e-07
2.30356e-07
2.01853e-07
2.3687e-07
2.39532e-07
2.40872e-07
2.29617e-07
3.27773e-07
2.33782e-07
2.14979e-07
2.24218e-07
2.35231e-07
2.5738e-07
2.18273e-07
2.7251e-07
2.31307e-07
2.06045e-07
2.15926e-07
2.24994e-07
2.43401e-07
2.34694e-07
2.55497e-07
2.39909e-07
2.15447e-07
2.52433e-07
2.4252e-07
2.45914e-07
2.36299e-07
3.02074e-07
2.48287e-07
2.29687e-07
2.41736e-07
2.65559e-07
2.78586e-07
2.37368e-07
3.02e-07
2.59969e-07
2.22476e-07
2.45504e-07
2.38801e-07
2.60947e-07
2.57055e-07
2.86993e-07
2.57777e-07
2.3946e-07
2.78957e-07
2.49688e-07
2.71791e-07
2.53532e-07
2.96853e-07
2.74283e-07
2.60017e-07
2.78271e-07
3.24418e-07
3.11554e-07
2.71421e-07
3.47532e-07
3.0566e-07
2.56915e-07
3.05179e-07
2.65449e-07
2.93569e-07
2.97798e-07
3.3562e-07
2.87884e-07
2.7913e-07
3.22019e-07
2.81093e-07
3.23162e-07
2.83507e-07
3.10321e-07
3.17208e-07
3.21084e-07
3.47079e-07
4.36261e-07
3.62498e-07
3.25729e-07
4.17848e-07
3.83752e-07
3.22595e-07
4.40984e-07
3.11913e-07
3.53077e-07
3.62873e-07
3.99216e-07
3.34829e-07
3.53359e-07
3.91924e-07
3.51301e-07
4.15164e-07
3.30378e-07
3.58181e-07
3.86706e-07
4.37768e-07
4.74986e-07
6.35541e-07
4.43304e-07
4.05993e-07
5.12929e-07
5.00073e-07
4.73035e-07
6.29807e-07
3.87461e-07
4.30247e-07
4.58384e-07
5.24872e-07
4.11924e-07
4.59467e-07
4.94632e-07
4.46898e-07
6.79413e-07
4.06547e-07
4.69155e-07
4.91125e-07
6.30736e-07
6.85508e-07
1.03678e-06
5.50985e-07
5.24162e-07
6.62051e-07
6.80603e-07
7.05386e-07
9.74008e-07
4.95765e-07
5.61871e-07
6.11355e-07
6.64301e-07
5.3183e-07
6.21686e-07
6.39403e-07
7.25517e-07
9.82538e-07
5.2625e-07
5.91689e-07
6.32982e-07
9.62589e-07
1.1119e-06
1.60702e-06
7.03896e-07
7.29153e-07
8.88795e-07
8.20813e-07
1.09614e-06
1.51874e-06
6.5302e-07
7.11679e-07
8.44978e-07
9.36316e-07
6.93319e-07
8.2105e-07
8.5994e-07
1.05262e-06
1.65837e-06
6.88013e-07
8.31531e-07
8.57609e-07
1.62003e-06
1.78291e-06
2.36079e-06
9.36094e-07
9.30325e-07
1.17578e-06
1.17069e-06
1.58685e-06
2.69901e-06
8.98071e-07
9.91679e-07
1.13439e-06
1.25721e-06
9.3889e-07
1.18709e-06
1.12787e-06
1.85519e-06
2.37202e-06
9.36336e-07
1.12893e-06
1.11802e-06
2.49882e-06
2.61745e-06
3.76643e-06
1.29087e-06
1.21443e-06
1.54121e-06
1.59725e-06
2.93136e-06
3.71888e-06
1.24855e-06
1.36395e-06
1.52511e-06
1.65309e-06
1.20082e-06
1.74684e-06
1.60614e-06
2.66382e-06
3.68315e-06
1.18964e-06
1.54238e-06
1.61065e-06
3.8045e-06
3.92015e-06
5.3678e-06
1.64418e-06
1.68052e-06
2.0211e-06
1.8615e-06
4.11309e-06
4.89126e-06
1.64215e-06
1.79938e-06
2.01918e-06
2.16107e-06
1.7093e-06
2.08887e-06
1.98507e-06
3.90627e-06
5.43973e-06
1.71554e-06
1.97231e-06
1.964e-06
5.08986e-06
5.80471e-06
7.47856e-06
2.17312e-06
2.12115e-06
2.74168e-06
2.96786e-06
5.2351e-06
8.6675e-06
2.16438e-06
2.28932e-06
2.77725e-06
2.91844e-06
2.13649e-06
3.33863e-06
2.70535e-06
5.74918e-06
7.43307e-06
2.1168e-06
2.64511e-06
2.71616e-06
7.55624e-06
7.98817e-06
9.52325e-06
2.83834e-06
3.0685e-06
3.3236e-06
3.19349e-06
8.98688e-06
8.86904e-06
2.90834e-06
3.03966e-06
3.33028e-06
3.43463e-06
2.88861e-06
3.58721e-06
3.30537e-06
7.86611e-06
9.53407e-06
2.86966e-06
3.49167e-06
3.30381e-06
9.74016e-06
9.9833e-06
1.22229e-05
3.59964e-06
3.41985e-06
4.18919e-06
4.59069e-06
8.94214e-06
1.37662e-05
3.66132e-06
3.79077e-06
4.37509e-06
4.41959e-06
3.5055e-06
5.10306e-06
4.26409e-06
9.9826e-06
1.25944e-05
3.5434e-06
4.19751e-06
4.20375e-06
1.2219e-05
1.28021e-05
1.4619e-05
4.38085e-06
4.86227e-06
5.33265e-06
5.34164e-06
1.43019e-05
1.44016e-05
4.50578e-06
4.50263e-06
5.46047e-06
5.46977e-06
4.46625e-06
5.41472e-06
5.15957e-06
1.30745e-05
1.46936e-05
4.35812e-06
5.52859e-06
5.21408e-06
1.44649e-05
1.50059e-05
1.71418e-05
5.59962e-06
5.43902e-06
6.02165e-06
6.6084e-06
1.44872e-05
1.73366e-05
5.79674e-06
5.74628e-06
6.26056e-06
6.0761e-06
5.48086e-06
6.27449e-06
6.2358e-06
1.53816e-05
1.66699e-05
5.5589e-06
6.25123e-06
6.24204e-06
1.73308e-05
1.75407e-05
1.99215e-05
6.39884e-06
7.25826e-06
8.04832e-06
8.56826e-06
1.82929e-05
2.03293e-05
6.53582e-06
6.34799e-06
8.17728e-06
7.9269e-06
6.51623e-06
8.35812e-06
7.50103e-06
1.70083e-05
2.00931e-05
6.43754e-06
8.09813e-06
7.40866e-06
1.90255e-05
2.05328e-05
2.11897e-05
8.29988e-06
8.6725e-06
8.65891e-06
8.69296e-06
2.04686e-05
2.03177e-05
8.45735e-06
8.23047e-06
9.03633e-06
8.56087e-06
7.79967e-06
8.46201e-06
9.00193e-06
2.05931e-05
2.09754e-05
7.88405e-06
8.66199e-06
9.04978e-06
2.1565e-05
2.1417e-05
2.34168e-05
9.02791e-06
8.73689e-06
1.01307e-05
1.07116e-05
2.07088e-05
2.38017e-05
9.22937e-06
8.80786e-06
9.96233e-06
1.0302e-05
9.35448e-06
1.0743e-05
1.00475e-05
2.11985e-05
2.33311e-05
9.19049e-06
1.02182e-05
9.96056e-06
2.30156e-05
2.39806e-05
2.51095e-05
1.05895e-05
1.13711e-05
1.23143e-05
1.2022e-05
2.41855e-05
2.47999e-05
1.04567e-05
1.06944e-05
1.24151e-05
1.20821e-05
1.04467e-05
1.16338e-05
1.19245e-05
2.39408e-05
2.50901e-05
1.05584e-05
1.22874e-05
1.19943e-05
2.50312e-05
2.54701e-05
2.62911e-05
1.26678e-05
1.23319e-05
1.30753e-05
1.42475e-05
2.52133e-05
2.69446e-05
1.28354e-05
1.24881e-05
1.32853e-05
1.31675e-05
1.2279e-05
1.40006e-05
1.35909e-05
2.53857e-05
2.6304e-05
1.22123e-05
1.32458e-05
1.34879e-05
2.66124e-05
2.66017e-05
2.80969e-05
1.34342e-05
1.47575e-05
1.54503e-05
1.54934e-05
2.72683e-05
2.7718e-05
1.36069e-05
1.34885e-05
1.53945e-05
1.54561e-05
1.41801e-05
1.52593e-05
1.52073e-05
2.67191e-05
2.80967e-05
1.41372e-05
1.55412e-05
1.52912e-05
2.76759e-05
2.84087e-05
2.90744e-05
1.58125e-05
1.55666e-05
1.67529e-05
1.65143e-05
2.7971e-05
2.9093e-05
1.56898e-05
1.61212e-05
1.65839e-05
1.69037e-05
1.53092e-05
1.65701e-05
1.65728e-05
2.84202e-05
2.90522e-05
1.53974e-05
1.6737e-05
1.65084e-05
2.93925e-05
2.93898e-05
3.0678e-05
1.71713e-05
1.75005e-05
1.8893e-05
1.89703e-05
2.96033e-05
3.06435e-05
1.71284e-05
1.7049e-05
1.91207e-05
1.87885e-05
1.7469e-05
1.90583e-05
1.95656e-05
2.93076e-05
3.07273e-05
1.73958e-05
1.89267e-05
1.94763e-05
3.07015e-05
3.09554e-05
3.14568e-05
1.94912e-05
1.91655e-05
2.04252e-05
2.09702e-05
3.08713e-05
3.17606e-05
1.95685e-05
1.94146e-05
2.00598e-05
2.0859e-05
1.98532e-05
2.05818e-05
2.00821e-05
3.10954e-05
3.17193e-05
1.975e-05
2.07611e-05
1.99706e-05
3.10265e-05
3.16812e-05
3.29346e-05
2.05734e-05
2.15116e-05
2.21433e-05
2.21147e-05
3.20778e-05
3.27589e-05
2.03043e-05
2.11174e-05
2.23979e-05
2.19935e-05
2.0201e-05
2.2007e-05
2.26761e-05
3.19215e-05
3.27142e-05
2.0117e-05
2.1826e-05
2.2803e-05
3.35205e-05
3.33572e-05
3.42469e-05
2.30064e-05
2.24765e-05
2.45893e-05
2.45779e-05
3.30303e-05
3.41691e-05
2.3233e-05
2.26481e-05
2.45567e-05
2.46414e-05
2.36066e-05
2.45317e-05
2.50255e-05
3.30602e-05
3.43037e-05
2.36837e-05
2.46855e-05
2.49168e-05
3.42489e-05
3.44294e-05
3.51411e-05
2.47312e-05
2.49008e-05
2.60925e-05
2.54259e-05
3.43601e-05
3.49618e-05
2.46598e-05
2.49145e-05
2.57633e-05
2.54798e-05
2.51751e-05
2.54796e-05
2.55092e-05
3.4525e-05
3.50506e-05
2.50288e-05
2.57188e-05
2.54603e-05
3.51183e-05
3.54398e-05
3.59949e-05
2.66643e-05
2.60201e-05
2.73687e-05
2.82427e-05
3.53421e-05
3.66072e-05
2.65186e-05
2.6158e-05
2.75504e-05
2.80125e-05
2.60109e-05
2.8333e-05
2.79812e-05
3.53148e-05
3.6246e-05
2.61386e-05
2.78586e-05
2.80036e-05
3.62017e-05
3.61901e-05
3.7513e-05
2.75962e-05
2.86975e-05
2.92081e-05
2.91278e-05
3.67703e-05
3.69884e-05
2.77244e-05
2.82256e-05
2.91556e-05
2.88641e-05
2.82102e-05
2.91504e-05
2.89618e-05
3.63958e-05
3.72036e-05
2.82043e-05
2.87734e-05
2.88706e-05
3.73247e-05
3.78886e-05
3.88594e-05
2.99471e-05
2.92448e-05
3.17914e-05
3.11224e-05
3.7198e-05
3.88534e-05
2.98817e-05
2.95482e-05
3.17441e-05
3.16836e-05
2.96103e-05
3.10724e-05
3.16779e-05
3.76194e-05
3.89681e-05
2.95736e-05
3.1753e-05
3.17107e-05
3.89637e-05
3.89904e-05
3.91555e-05
3.20928e-05
3.19096e-05
3.23315e-05
3.31731e-05
3.92089e-05
3.97044e-05
3.20417e-05
3.21085e-05
3.22829e-05
3.24935e-05
3.21509e-05
3.31139e-05
3.26677e-05
3.91289e-05
3.92836e-05
3.21778e-05
3.26207e-05
3.26869e-05
3.93253e-05
3.92846e-05
4.06643e-05
3.24276e-05
3.32763e-05
3.39576e-05
3.35244e-05
3.9779e-05
4.0161e-05
3.24103e-05
3.25431e-05
3.40416e-05
3.36876e-05
3.26993e-05
3.35147e-05
3.36172e-05
3.93769e-05
4.03436e-05
3.27166e-05
3.3382e-05
3.35689e-05
4.03604e-05
4.09431e-05
4.16252e-05
3.44248e-05
3.392e-05
3.57755e-05
3.55992e-05
4.04317e-05
4.16188e-05
3.44136e-05
3.44597e-05
3.56608e-05
3.60739e-05
3.44621e-05
3.54413e-05
3.53983e-05
4.07847e-05
4.19457e-05
3.44391e-05
3.60997e-05
3.54415e-05
4.1546e-05
4.18546e-05
4.24378e-05
3.6154e-05
3.59894e-05
3.66443e-05
3.69379e-05
4.18638e-05
4.26647e-05
3.61217e-05
3.6252e-05
3.66955e-05
3.64432e-05
3.56079e-05
3.72063e-05
3.71928e-05
4.20412e-05
4.21463e-05
3.56339e-05
3.6487e-05
3.71268e-05
4.27501e-05
4.25582e-05
4.34243e-05
3.68991e-05
3.72574e-05
3.82774e-05
3.8003e-05
4.28308e-05
4.3181e-05
3.68722e-05
3.66922e-05
3.82109e-05
3.84452e-05
3.75409e-05
3.77628e-05
3.79126e-05
4.23547e-05
4.36961e-05
3.74837e-05
3.84258e-05
3.79051e-05
4.32184e-05
4.36716e-05
4.4031e-05
3.85636e-05
3.81711e-05
3.88929e-05
3.91161e-05
4.33034e-05
4.42073e-05
3.8535e-05
3.86926e-05
3.89494e-05
3.89255e-05
3.81048e-05
3.92239e-05
3.91031e-05
4.38141e-05
4.38625e-05
3.80705e-05
3.88274e-05
3.9163e-05
4.42399e-05
4.41764e-05
4.54309e-05
3.91879e-05
3.95777e-05
4.07963e-05
4.06153e-05
4.4524e-05
4.52959e-05
3.92908e-05
3.91674e-05
4.07543e-05
4.04949e-05
3.95325e-05
4.06636e-05
4.07303e-05
4.40205e-05
4.53316e-05
3.96465e-05
4.0626e-05
4.06487e-05
4.52864e-05
4.56285e-05
4.5719e-05
4.11276e-05
4.0799e-05
4.13843e-05
4.13226e-05
4.53786e-05
4.56513e-05
4.10395e-05
4.0796e-05
4.12797e-05
4.16002e-05
4.09395e-05
4.12625e-05
4.11949e-05
4.55039e-05
4.58758e-05
4.07637e-05
4.15016e-05
4.12444e-05
4.56391e-05
4.57732e-05
4.68614e-05
4.14578e-05
4.15854e-05
4.26675e-05
4.25668e-05
4.58489e-05
4.67944e-05
4.14e-05
4.18183e-05
4.26738e-05
4.223e-05
4.14041e-05
4.25518e-05
4.27199e-05
4.6037e-05
4.64881e-05
4.16244e-05
4.23329e-05
4.27596e-05
4.6932e-05
4.70598e-05
4.72462e-05
4.29566e-05
4.28825e-05
4.32707e-05
4.35709e-05
4.69956e-05
4.74573e-05
4.29283e-05
4.24684e-05
4.33365e-05
4.37315e-05
4.31212e-05
4.36515e-05
4.36135e-05
4.66049e-05
4.76101e-05
4.2973e-05
4.36101e-05
4.35309e-05
4.74368e-05
4.73526e-05
4.83771e-05
4.35093e-05
4.37033e-05
4.46756e-05
4.43196e-05
4.75451e-05
4.79862e-05
4.36057e-05
4.41069e-05
4.46894e-05
4.45386e-05
4.36617e-05
4.42636e-05
4.44024e-05
4.78695e-05
4.81708e-05
4.37862e-05
4.46568e-05
4.45982e-05
4.81599e-05
4.85605e-05
4.86797e-05
4.49843e-05
4.46911e-05
4.53417e-05
4.55087e-05
4.82166e-05
4.88973e-05
4.4964e-05
4.45643e-05
4.5269e-05
4.50133e-05
4.48047e-05
4.54855e-05
4.54254e-05
4.81873e-05
4.84354e-05
4.48024e-05
4.48399e-05
4.50836e-05
4.86841e-05
4.86976e-05
4.92605e-05
4.53641e-05
4.55777e-05
4.58746e-05
4.594e-05
4.89601e-05
4.92922e-05
4.52901e-05
4.5345e-05
4.58205e-05
4.63798e-05
4.54566e-05
4.59212e-05
4.57631e-05
4.87027e-05
4.98269e-05
4.51775e-05
4.6439e-05
4.60734e-05
4.92932e-05
4.95883e-05
5.0519e-05
4.63604e-05
4.63368e-05
4.74826e-05
4.73307e-05
4.95475e-05
5.03403e-05
4.63389e-05
4.67218e-05
4.75554e-05
4.73648e-05
4.62543e-05
4.74111e-05
4.75007e-05
5.00238e-05
5.02421e-05
4.65242e-05
4.73691e-05
4.75106e-05
5.04674e-05
5.05816e-05
5.046e-05
4.76216e-05
4.74428e-05
4.76732e-05
4.75171e-05
5.03946e-05
5.03351e-05
4.77138e-05
4.74083e-05
4.77655e-05
4.74062e-05
4.76675e-05
4.7601e-05
4.7757e-05
5.02489e-05
5.01389e-05
4.76204e-05
4.73897e-05
4.76554e-05
5.04868e-05
5.04912e-05
5.10528e-05
4.76945e-05
4.76266e-05
4.83461e-05
4.85158e-05
5.04325e-05
5.11984e-05
4.77637e-05
4.74545e-05
4.81937e-05
4.8558e-05
4.7794e-05
4.83565e-05
4.83106e-05
5.0297e-05
5.13939e-05
4.768e-05
4.86101e-05
4.82122e-05
5.09893e-05
5.1139e-05
5.15244e-05
4.84446e-05
4.86051e-05
4.88301e-05
4.89075e-05
5.12645e-05
5.16169e-05
4.83477e-05
4.87612e-05
4.89268e-05
4.89973e-05
4.8367e-05
4.89852e-05
4.87256e-05
5.14939e-05
5.16096e-05
4.82761e-05
4.89616e-05
4.87646e-05
5.14256e-05
5.17783e-05
5.24862e-05
4.92022e-05
4.92773e-05
5.00787e-05
5.01093e-05
5.18715e-05
5.25316e-05
4.92828e-05
4.925e-05
5.00883e-05
5.00594e-05
4.91631e-05
5.01303e-05
5.01146e-05
5.176e-05
5.24697e-05
4.92005e-05
5.00738e-05
5.0166e-05
5.25663e-05
5.25092e-05
5.21033e-05
5.01495e-05
5.01651e-05
5.00698e-05
5.0058e-05
5.25464e-05
5.20768e-05
5.01454e-05
5.01225e-05
5.0049e-05
5.00322e-05
5.01878e-05
5.0055e-05
5.01064e-05
5.24977e-05
5.20946e-05
5.02465e-05
5.01038e-05
5.01755e-05
5.2177e-05
5.21064e-05
5.32433e-05
5.00361e-05
5.00195e-05
5.05215e-05
5.04725e-05
5.20788e-05
5.31884e-05
5.00155e-05
4.9999e-05
5.05259e-05
5.05233e-05
5.00676e-05
5.04739e-05
5.04761e-05
5.2097e-05
5.32193e-05
5.01363e-05
5.05166e-05
5.05049e-05
5.31924e-05
5.37262e-05
5.49188e-05
5.12752e-05
5.1227e-05
5.26417e-05
5.26224e-05
5.36744e-05
5.4903e-05
5.12838e-05
5.12807e-05
5.26412e-05
5.26296e-05
5.12153e-05
5.26296e-05
5.26171e-05
5.36999e-05
5.48881e-05
5.12157e-05
5.26079e-05
5.25992e-05
5.48935e-05
5.49863e-05
5.39845e-05
5.27834e-05
5.27708e-05
5.26152e-05
5.26164e-05
5.49749e-05
5.4001e-05
5.27809e-05
5.27679e-05
5.26078e-05
5.25902e-05
5.27663e-05
5.26185e-05
5.26136e-05
5.49552e-05
5.39536e-05
5.27467e-05
5.25786e-05
5.2593e-05
5.39949e-05
5.36335e-05
5.09678e-05
5.20153e-05
5.20329e-05
4.9572e-05
4.95829e-05
5.36528e-05
5.09797e-05
5.20015e-05
5.19782e-05
4.95637e-05
4.95502e-05
5.20323e-05
4.95803e-05
4.95891e-05
5.36049e-05
5.0958e-05
5.20127e-05
4.9559e-05
4.95812e-05
5.09871e-05
5.07499e-05
5.03522e-05
4.90115e-05
4.90189e-05
4.84033e-05
4.8402e-05
5.07599e-05
5.0346e-05
4.90055e-05
4.89947e-05
4.84023e-05
4.83958e-05
4.90276e-05
4.84051e-05
4.84168e-05
5.07422e-05
5.03507e-05
4.9022e-05
4.84001e-05
4.84132e-05
5.03595e-05
5.06604e-05
5.36101e-05
4.84632e-05
4.84595e-05
5.09818e-05
5.0966e-05
5.06497e-05
5.35958e-05
4.84637e-05
4.84582e-05
5.09891e-05
5.09891e-05
4.8476e-05
5.09766e-05
5.09858e-05
5.06596e-05
5.36056e-05
4.84722e-05
5.09743e-05
5.09784e-05
5.36046e-05
5.42346e-05
5.70111e-05
5.19982e-05
5.1986e-05
5.47977e-05
5.47959e-05
5.42226e-05
5.70117e-05
5.20036e-05
5.20024e-05
5.47995e-05
5.47946e-05
5.20014e-05
5.48025e-05
5.48029e-05
5.42289e-05
5.70014e-05
5.19933e-05
5.47841e-05
5.4795e-05
5.7012e-05
5.75734e-05
6.00094e-05
5.56982e-05
5.56993e-05
5.80376e-05
5.8044e-05
5.75758e-05
6.00177e-05
5.56993e-05
5.56933e-05
5.80369e-05
5.8029e-05
5.57048e-05
5.80481e-05
5.80465e-05
5.75634e-05
5.99993e-05
5.56974e-05
5.80276e-05
5.80416e-05
6.00163e-05
6.03287e-05
6.07636e-05
5.85822e-05
5.85895e-05
5.92144e-05
5.92225e-05
6.03376e-05
6.07728e-05
5.85811e-05
5.85729e-05
5.92126e-05
5.92045e-05
5.85914e-05
5.92251e-05
5.92228e-05
6.03189e-05
6.07573e-05
5.85873e-05
5.92098e-05
5.92211e-05
6.07714e-05
6.04811e-05
5.63615e-05
5.91454e-05
5.91534e-05
5.5975e-05
5.59799e-05
6.04899e-05
5.63659e-05
5.91436e-05
5.91357e-05
5.59734e-05
5.59697e-05
5.91533e-05
5.59814e-05
5.59768e-05
6.0477e-05
5.63636e-05
5.91524e-05
5.59835e-05
5.59824e-05
5.63644e-05
5.56145e-05
5.1532e-05
5.44863e-05
5.449e-05
5.06144e-05
5.06154e-05
5.56185e-05
5.15331e-05
5.44852e-05
5.44829e-05
5.06134e-05
5.06152e-05
5.44875e-05
5.06176e-05
5.06144e-05
5.56171e-05
5.1537e-05
5.44927e-05
5.06219e-05
5.06184e-05
5.15331e-05
5.11348e-05
4.95742e-05
4.96515e-05
4.9652e-05
4.79503e-05
4.79502e-05
5.11359e-05
4.95743e-05
4.96503e-05
4.9653e-05
4.79485e-05
4.79523e-05
4.96515e-05
4.79514e-05
4.79507e-05
5.11398e-05
4.95777e-05
4.96547e-05
4.79544e-05
4.79515e-05
4.95752e-05
4.95588e-05
5.01968e-05
4.77472e-05
4.77472e-05
4.78461e-05
4.78465e-05
4.9559e-05
5.01968e-05
4.77453e-05
4.7749e-05
4.7844e-05
4.78472e-05
4.77478e-05
4.78465e-05
4.78474e-05
4.95621e-05
5.01978e-05
4.7748e-05
4.78474e-05
4.78458e-05
5.01979e-05
5.05369e-05
5.21294e-05
4.83449e-05
4.83458e-05
5.00212e-05
5.00224e-05
5.05371e-05
5.21298e-05
4.8343e-05
4.83452e-05
5.00203e-05
5.00212e-05
4.83467e-05
5.00226e-05
5.00231e-05
5.05376e-05
5.213e-05
4.83442e-05
5.00225e-05
5.0022e-05
5.21307e-05
5.24283e-05
5.34422e-05
5.0483e-05
5.04841e-05
5.14954e-05
5.14964e-05
5.24287e-05
5.34426e-05
5.04824e-05
5.04829e-05
5.14954e-05
5.14952e-05
5.0485e-05
5.14974e-05
5.14978e-05
5.24287e-05
5.34424e-05
5.04842e-05
5.14976e-05
5.14976e-05
5.34439e-05
5.36036e-05
5.4043e-05
5.17169e-05
5.17178e-05
5.2116e-05
5.21167e-05
5.3604e-05
5.40431e-05
5.17172e-05
5.17167e-05
5.21163e-05
5.21157e-05
5.17194e-05
5.21182e-05
5.21186e-05
5.36038e-05
5.40429e-05
5.17194e-05
5.21185e-05
5.21189e-05
5.40447e-05
5.41166e-05
5.42677e-05
5.21908e-05
5.21915e-05
5.2318e-05
5.23185e-05
5.41168e-05
5.42681e-05
5.21912e-05
5.21906e-05
5.23182e-05
5.23178e-05
5.21935e-05
5.23203e-05
5.23206e-05
5.41165e-05
5.42679e-05
5.21938e-05
5.23206e-05
5.23209e-05
5.42695e-05
5.43044e-05
5.43485e-05
5.23428e-05
5.23433e-05
5.23786e-05
5.23791e-05
5.43048e-05
5.43488e-05
5.23431e-05
5.23426e-05
5.23789e-05
5.23783e-05
5.23455e-05
5.23809e-05
5.23813e-05
5.43045e-05
5.43486e-05
5.23458e-05
5.23812e-05
5.23816e-05
5.43503e-05
5.43684e-05
5.43695e-05
5.23836e-05
5.2384e-05
5.23848e-05
5.23853e-05
5.43687e-05
5.43697e-05
5.23838e-05
5.23832e-05
5.23851e-05
5.23845e-05
5.23862e-05
5.2387e-05
5.23875e-05
5.43685e-05
5.43695e-05
5.23866e-05
5.23874e-05
5.23878e-05
5.43713e-05
5.43847e-05
5.43604e-05
5.23837e-05
5.23841e-05
5.23696e-05
5.23701e-05
5.4385e-05
5.43605e-05
5.2384e-05
5.23833e-05
5.237e-05
5.23693e-05
5.23864e-05
5.2372e-05
5.23724e-05
5.43847e-05
5.43602e-05
5.23867e-05
5.23723e-05
5.23726e-05
5.43621e-05
5.43731e-05
5.43556e-05
5.23681e-05
5.23686e-05
5.23678e-05
5.23684e-05
5.43733e-05
5.43561e-05
5.23685e-05
5.23678e-05
5.23682e-05
5.23675e-05
5.23709e-05
5.23702e-05
5.23706e-05
5.43729e-05
5.43558e-05
5.23711e-05
5.23705e-05
5.23708e-05
5.43574e-05
5.4374e-05
5.43736e-05
5.23717e-05
5.23723e-05
5.23735e-05
5.2374e-05
5.43746e-05
5.43738e-05
5.23721e-05
5.23714e-05
5.23739e-05
5.2373e-05
5.23744e-05
5.23757e-05
5.23761e-05
5.4374e-05
5.43734e-05
5.23746e-05
5.2376e-05
5.23763e-05
5.43752e-05
5.43874e-05
5.43536e-05
5.23732e-05
5.23737e-05
5.2367e-05
5.23674e-05
5.43875e-05
5.43537e-05
5.23736e-05
5.23727e-05
5.23674e-05
5.23666e-05
5.23758e-05
5.23693e-05
5.23697e-05
5.4387e-05
5.43535e-05
5.2376e-05
5.23696e-05
5.23699e-05
5.43552e-05
5.4368e-05
5.43665e-05
5.23684e-05
5.23689e-05
5.23693e-05
5.23698e-05
5.43682e-05
5.4367e-05
5.23688e-05
5.23681e-05
5.23697e-05
5.23689e-05
5.23711e-05
5.23716e-05
5.23719e-05
5.43679e-05
5.43667e-05
5.23713e-05
5.23719e-05
5.23721e-05
5.43683e-05
5.43837e-05
5.43626e-05
5.23717e-05
5.23722e-05
5.23684e-05
5.23688e-05
5.43841e-05
5.43623e-05
5.23721e-05
5.23713e-05
5.23689e-05
5.2368e-05
5.23743e-05
5.23706e-05
5.2371e-05
5.43837e-05
5.4362e-05
5.23745e-05
5.23709e-05
5.23711e-05
5.43638e-05
5.43752e-05
5.43577e-05
5.23704e-05
5.23709e-05
5.23676e-05
5.23681e-05
5.4375e-05
5.43582e-05
5.23709e-05
5.237e-05
5.23681e-05
5.23673e-05
5.2373e-05
5.23699e-05
5.23703e-05
5.43746e-05
5.4358e-05
5.23732e-05
5.23702e-05
5.23704e-05
5.43596e-05
5.4375e-05
5.43679e-05
5.23719e-05
5.23724e-05
5.23682e-05
5.23687e-05
5.43756e-05
5.4368e-05
5.23723e-05
5.23716e-05
5.23687e-05
5.23679e-05
5.23745e-05
5.23705e-05
5.23708e-05
5.43753e-05
5.43676e-05
5.23747e-05
5.23708e-05
5.23709e-05
5.43693e-05
5.4382e-05
5.43547e-05
5.23732e-05
5.23736e-05
5.2365e-05
5.23655e-05
5.4382e-05
5.43548e-05
5.23736e-05
5.23729e-05
5.23654e-05
5.23647e-05
5.23757e-05
5.23673e-05
5.23676e-05
5.43815e-05
5.43547e-05
5.23759e-05
5.23675e-05
5.23677e-05
5.43562e-05
5.43679e-05
5.42026e-05
5.23569e-05
5.23574e-05
5.22128e-05
5.22137e-05
5.43684e-05
5.42032e-05
5.23573e-05
5.23565e-05
5.22146e-05
5.22118e-05
5.23593e-05
5.2217e-05
5.2215e-05
5.4368e-05
5.42025e-05
5.23595e-05
5.22159e-05
5.22164e-05
5.4204e-05
5.40596e-05
5.12595e-05
5.12602e-05
5.40603e-05
5.12615e-05
5.12583e-05
4.12431e-05
4.12419e-05
4.12438e-05
5.12615e-05
5.40593e-05
5.12633e-05
1.60513e-06
2.75188e-07
9.87265e-07
9.87055e-07
9.9001e-08
3.89237e-07
6.89074e-07
5.32136e-07
1.01683e-07
3.4074e-07
5.29495e-07
3.33735e-07
3.59886e-07
2.71251e-07
3.85954e-07
3.10472e-07
7.67461e-06
2.7564e-07
1.00869e-05
1.31441e-05
2.05195e-05
2.9878e-07
4.88107e-06
2.57359e-07
6.55991e-06
5.37498e-07
5.28521e-07
5.23733e-07
5.07781e-07
5.32855e-07
5.20537e-07
5.17618e-07
9.91309e-08
1.07383e-06
3.46813e-07
4.45855e-07
9.97122e-08
1.02965e-06
3.42088e-07
1.90864e-05
2.89548e-05
1.0784e-07
3.06969e-07
6.86531e-07
3.36347e-07
1.08064e-07
3.03203e-07
6.61036e-07
1.89975e-06
1.90038e-06
3.43981e-07
1.87429e-06
1.87702e-06
4.96794e-07
1.44718e-05
4.20668e-07
1.73242e-05
3.5565e-05
4.54382e-05
4.94132e-07
9.64658e-06
4.02844e-07
1.25182e-05
5.33498e-07
5.21094e-07
5.18038e-07
5.12594e-07
5.35944e-07
5.25233e-07