/*--------------------------------*- C++ -*----------------------------------*\
| =========                 |                                                 |
| \\      /  F ield         | OpenFOAM: The Open Source CFD Toolbox           |
|  \\    /   O peration     | Version:  v2012                                 |
|   \\  /    A nd           | Website:  www.openfoam.com                      |
|    \\/     M anipulation  |                                                 |
\*---------------------------------------------------------------------------*/
FoamFile
{
    version     2.0;
    format      ascii;
    class       volScalarField;
    location    "312.5";
    object      nut;
}
// * * * * * * * * * * * * * * * * * * * * * * * * * * * * * * * * * * * * * //

dimensions      [0 2 -1 0 0 0 0];


internalField   nonuniform List<scalar> 
171728
(
6.79e-06
2.1627e-06
1.99505e-06
2.22655e-06
6.66063e-06
2.16984e-06
2.02481e-06
2.20729e-06
6.83923e-06
2.33469e-06
2.05098e-06
2.17977e-06
6.98115e-06
2.61699e-06
2.08561e-06
2.16715e-06
7.12849e-06
3.16784e-06
2.13198e-06
2.15629e-06
7.28321e-06
4.53156e-06
2.16209e-06
2.13679e-06
7.44286e-06
6.31808e-06
2.19931e-06
2.11384e-06
7.61389e-06
5.42559e-06
2.24071e-06
2.10258e-06
7.78685e-06
2.82716e-06
2.28952e-06
2.07687e-06
7.97246e-06
1.7752e-06
2.33358e-06
2.05118e-06
8.16373e-06
1.51537e-06
2.39017e-06
1.99702e-06
8.36008e-06
1.44033e-06
2.48154e-06
1.93133e-06
8.54615e-06
1.3892e-06
2.62031e-06
1.8364e-06
8.72101e-06
1.3159e-06
2.7362e-06
1.71715e-06
8.89517e-06
1.23095e-06
2.80477e-06
1.58516e-06
9.04991e-06
1.13495e-06
2.73204e-06
1.45635e-06
9.19765e-06
1.06663e-06
2.33287e-06
1.34241e-06
9.33254e-06
1.03208e-06
1.75295e-06
1.2711e-06
9.46915e-06
1.04374e-06
1.4514e-06
1.26503e-06
9.58604e-06
1.10809e-06
1.33941e-06
1.39416e-06
9.69851e-06
1.30419e-06
1.39864e-06
1.77315e-06
9.77097e-06
1.63432e-06
1.75971e-06
2.39593e-06
9.86683e-06
2.2968e-06
2.08165e-06
3.31556e-06
9.91682e-06
2.91359e-06
2.89056e-06
5.64775e-06
9.95008e-06
4.06286e-06
3.92594e-06
8.74774e-06
9.89654e-06
6.64032e-06
5.49852e-06
1.38601e-05
9.72215e-06
7.41092e-06
7.15588e-06
1.61685e-05
9.66462e-06
1.28886e-05
8.82534e-06
2.53028e-05
9.49278e-06
1.19636e-05
1.26599e-05
3.12557e-05
9.15641e-06
1.9839e-05
1.49162e-05
3.9495e-05
9.32538e-06
1.84551e-05
1.95821e-05
4.46826e-05
8.52253e-06
2.40617e-05
2.22147e-05
5.39074e-05
9.41787e-06
3.08073e-05
2.98934e-05
5.798e-05
9.19094e-06
2.75339e-05
2.93419e-05
6.55831e-05
8.72275e-06
3.96264e-05
3.58128e-05
6.90946e-05
1.10808e-05
3.89737e-05
4.45216e-05
7.55359e-05
1.00746e-05
5.13467e-05
4.52213e-05
8.07064e-05
1.26333e-05
5.23083e-05
5.62907e-05
8.24053e-05
1.28387e-05
5.96311e-05
5.65408e-05
8.96769e-05
1.63914e-05
6.56174e-05
6.6715e-05
9.31514e-05
1.72599e-05
7.1742e-05
7.22667e-05
9.24367e-05
1.95242e-05
7.63284e-05
7.48334e-05
0.000103404
2.58561e-05
8.47852e-05
8.62134e-05
0.000104343
2.61775e-05
8.74302e-05
8.91809e-05
0.000107606
3.19932e-05
9.95962e-05
9.54863e-05
0.000110613
3.22234e-05
9.80329e-05
9.86436e-05
0.000115184
4.59271e-05
0.000108722
0.000111403
0.000121422
4.70751e-05
0.000114458
0.000111264
0.000121298
5.08536e-05
0.000114434
0.000115611
0.000126218
5.94333e-05
0.000122513
0.00012557
0.000129175
6.55105e-05
0.000129508
0.000124485
0.000134783
7.23778e-05
0.00012936
0.000133979
0.000135104
7.5461e-05
0.000137024
0.000133033
0.000139652
8.71029e-05
0.000141868
0.000141947
0.000143379
9.25607e-05
0.000143632
0.000145527
0.000144117
9.94275e-05
0.000149989
0.000147631
0.00014999
0.000105146
0.000153653
0.000154857
0.000151242
0.000113292
0.000157035
0.000158163
0.000154727
0.000121816
0.000161653
0.000158306
0.000156144
0.0001217
0.000164258
0.000167216
0.000159063
0.000136619
0.000171348
0.00017065
0.000164009
0.000140667
0.000170676
0.000169014
0.000163751
0.000143898
0.000175042
0.000176997
0.00016594
0.000148325
0.000179192
0.000177944
0.000168374
0.000160432
0.000185025
0.000184812
0.000173647
0.000164495
0.000183699
0.000184009
0.000170918
0.000162918
0.000188546
0.000188815
0.000176477
0.000186252
0.000200555
0.000200529
0.000185449
0.000195426
0.00020208
0.000201857
0.000183556
0.000179244
0.000183805
0.000183767
0.000169218
0.000161806
0.000175694
0.000175711
0.000163754
0.000170582
0.000192049
0.000192061
0.000177561
0.000208846
0.00021138
0.000211286
0.000191282
0.000240619
0.000229953
0.000229838
0.000205801
0.000260949
0.000241786
0.000241672
0.00021374
0.000249149
0.000220532
0.000220543
0.000195708
0.000200231
0.000193246
0.000193271
0.000175494
0.000169947
0.00018187
0.000181884
0.000167075
0.000162514
0.000184419
0.00018441
0.000170293
0.000191692
0.00019808
0.00019807
0.000179241
0.000214805
0.000206422
0.000206413
0.00018477
0.000226022
0.000209848
0.000209839
0.000187073
0.000230695
0.000211034
0.000211024
0.00018786
0.000232573
0.000211395
0.000211385
0.000188109
0.000233107
0.000211442
0.000211433
0.000188188
0.000233119
0.000211348
0.000211338
0.000188131
0.000233167
0.000211365
0.000211355
0.000188093
0.000233193
0.000211382
0.000211372
0.000188198
0.00023316
0.000211346
0.000211336
0.000188081
0.000233169
0.000211366
0.000211356
0.000188161
0.000233167
0.000211359
0.000211348
0.000188133
0.000233167
0.000211362
0.000211352
0.00018811
0.000233169
0.00021137
0.000211359
0.000188169
0.000233138
0.000211289
0.000211278
0.000188111
0.000235059
0.000212598
0.00021259
0.000191604
2.32276e-06
2.17287e-06
2.21562e-06
2.20364e-06
2.12267e-06
2.1818e-06
7.05612e-06
6.98381e-06
7.20006e-06
7.18878e-06
2.29164e-06
2.45032e-06
2.3678e-06
2.4522e-06
2.37582e-06
2.22839e-06
2.31314e-06
2.26911e-06
2.06942e-06
1.64572e-06
1.65342e-06
1.66905e-06
2.20814e-06
2.18982e-06
1.67337e-06
2.33529e-06
1.68405e-06
1.6848e-06
2.22834e-06
2.14356e-06
2.19465e-06
2.3629e-06
2.28043e-06
1.92659e-06
2.01676e-06
1.9169e-06
2.21027e-06
2.26597e-06
2.22479e-06
1.60982e-06
1.6853e-06
1.59493e-06
1.74263e-06
2.18778e-06
2.16925e-06
1.69106e-06
1.60777e-06
1.71258e-06
1.54292e-06
2.18692e-06
2.27875e-06
2.18619e-06
2.28135e-06
2.23151e-06
1.91706e-06
2.04403e-06
1.92734e-06
2.19343e-06
2.22289e-06
2.19203e-06
1.60578e-06
1.76436e-06
1.64348e-06
1.82452e-06
2.16606e-06
2.1733e-06
1.7202e-06
1.5414e-06
1.74382e-06
1.56622e-06
2.19163e-06
2.53428e-06
2.20333e-06
2.23051e-06
2.2081e-06
1.93337e-06
2.0765e-06
1.95963e-06
2.18312e-06
2.19025e-06
2.16398e-06
1.6534e-06
1.84102e-06
1.67651e-06
1.87974e-06
2.17573e-06
2.24484e-06
1.75029e-06
1.57844e-06
1.76955e-06
1.61145e-06
2.20294e-06
2.98028e-06
2.20005e-06
2.19596e-06
2.19262e-06
1.96884e-06
2.12083e-06
2.00532e-06
2.17335e-06
2.16248e-06
2.13785e-06
1.68303e-06
1.89099e-06
1.70087e-06
1.91474e-06
2.26021e-06
2.57296e-06
1.77598e-06
1.62018e-06
1.79303e-06
1.63653e-06
2.19861e-06
4.09515e-06
2.18575e-06
2.17619e-06
2.17186e-06
2.01942e-06
2.15223e-06
2.04035e-06
2.15685e-06
2.13511e-06
2.11527e-06
1.70841e-06
1.91869e-06
1.73226e-06
1.92729e-06
2.59362e-06
2.86642e-06
1.79756e-06
1.64218e-06
1.80776e-06
1.65323e-06
2.17953e-06
5.90973e-06
2.15771e-06
2.15608e-06
2.16396e-06
2.04676e-06
2.18706e-06
2.08866e-06
2.13285e-06
2.11098e-06
2.08727e-06
1.73913e-06
1.9292e-06
1.75998e-06
1.9269e-06
2.85574e-06
2.93069e-06
1.80953e-06
1.65654e-06
1.8051e-06
1.66834e-06
2.15053e-06
6.18655e-06
2.11779e-06
2.14814e-06
2.16003e-06
2.1102e-06
2.23009e-06
2.16151e-06
2.12009e-06
2.08288e-06
2.05666e-06
1.76634e-06
1.91828e-06
1.77562e-06
1.87962e-06
2.7738e-06
2.21053e-06
1.80341e-06
1.66958e-06
1.80145e-06
1.67567e-06
2.10303e-06
3.34332e-06
2.06514e-06
2.14629e-06
2.15852e-06
2.16736e-06
2.27837e-06
2.18573e-06
2.09553e-06
2.05177e-06
2.00699e-06
1.77237e-06
1.86042e-06
1.7586e-06
1.7859e-06
2.1767e-06
1.98155e-06
1.80527e-06
1.67527e-06
1.81326e-06
1.6789e-06
2.05538e-06
1.9239e-06
2.02578e-06
2.15381e-06
2.14153e-06
2.19527e-06
2.3222e-06
2.2118e-06
2.06026e-06
1.99978e-06
1.94407e-06
1.7508e-06
1.76145e-06
1.73825e-06
1.68669e-06
1.96778e-06
1.8784e-06
1.81441e-06
1.67844e-06
1.79955e-06
1.67368e-06
2.01509e-06
1.55032e-06
1.97845e-06
2.13455e-06
2.10065e-06
2.21107e-06
2.3721e-06
2.21701e-06
2.00881e-06
1.93558e-06
1.88059e-06
1.73657e-06
1.66498e-06
1.73466e-06
1.5953e-06
1.86869e-06
1.77326e-06
1.78918e-06
1.6704e-06
1.75024e-06
1.65285e-06
1.96498e-06
1.45453e-06
1.90887e-06
2.09333e-06
2.06253e-06
2.21685e-06
2.45105e-06
2.18684e-06
1.94529e-06
1.86994e-06
1.80928e-06
1.73689e-06
1.56964e-06
1.73653e-06
1.49938e-06
1.76075e-06
1.67572e-06
1.73768e-06
1.64539e-06
1.69789e-06
1.61597e-06
1.889e-06
1.40333e-06
1.82419e-06
2.05236e-06
2.01787e-06
2.16505e-06
2.58662e-06
2.07927e-06
1.85517e-06
1.79427e-06
1.72596e-06
1.73592e-06
1.47449e-06
1.72034e-06
1.40437e-06
1.66178e-06
1.57656e-06
1.68153e-06
1.60366e-06
1.62565e-06
1.56688e-06
1.80064e-06
1.33462e-06
1.72928e-06
2.0031e-06
1.96302e-06
2.04283e-06
2.71084e-06
1.91573e-06
1.74004e-06
1.70605e-06
1.63077e-06
1.71084e-06
1.38358e-06
1.67869e-06
1.32317e-06
1.55686e-06
1.46443e-06
1.60082e-06
1.5562e-06
1.52694e-06
1.51966e-06
1.70678e-06
1.2543e-06
1.634e-06
1.94405e-06
1.89416e-06
1.87197e-06
2.79808e-06
1.72756e-06
1.61398e-06
1.60586e-06
1.52571e-06
1.66787e-06
1.30353e-06
1.62395e-06
1.24802e-06
1.43869e-06
1.3421e-06
1.50107e-06
1.50675e-06
1.42066e-06
1.46249e-06
1.60923e-06
1.15872e-06
1.53814e-06
1.86859e-06
1.80262e-06
1.68047e-06
2.77126e-06
1.55258e-06
1.48721e-06
1.49596e-06
1.4143e-06
1.60926e-06
1.22955e-06
1.56539e-06
1.18103e-06
1.3131e-06
1.22733e-06
1.39065e-06
1.44774e-06
1.30363e-06
1.39515e-06
1.51406e-06
1.0781e-06
1.44224e-06
1.76455e-06
1.63935e-06
1.51274e-06
2.47853e-06
1.41575e-06
1.36882e-06
1.38557e-06
1.32082e-06
1.55413e-06
1.16769e-06
1.52371e-06
1.1454e-06
1.20211e-06
1.1436e-06
1.27833e-06
1.38362e-06
1.21743e-06
1.34203e-06
1.41976e-06
1.03062e-06
1.36973e-06
1.58914e-06
1.43843e-06
1.38952e-06
1.86783e-06
1.33496e-06
1.28194e-06
1.30532e-06
1.28679e-06
1.51406e-06
1.14278e-06
1.50183e-06
1.15973e-06
1.13112e-06
1.13564e-06
1.19965e-06
1.32918e-06
1.1749e-06
1.36032e-06
1.35754e-06
1.02455e-06
1.33877e-06
1.39057e-06
1.35114e-06
1.32361e-06
1.51491e-06
1.30352e-06
1.2512e-06
1.29825e-06
1.36374e-06
1.50609e-06
1.18422e-06
1.54374e-06
1.23366e-06
1.13602e-06
1.24507e-06
1.17893e-06
1.34831e-06
1.2161e-06
1.43099e-06
1.344e-06
1.07734e-06
1.37903e-06
1.34746e-06
1.34717e-06
1.31063e-06
1.29991e-06
1.34756e-06
1.34836e-06
1.40874e-06
1.63454e-06
1.56838e-06
1.29734e-06
1.67751e-06
1.44726e-06
1.25476e-06
1.66727e-06
1.24335e-06
1.48061e-06
1.35041e-06
1.53745e-06
1.39331e-06
1.27655e-06
1.52901e-06
1.43679e-06
1.53077e-06
1.36543e-06
1.32272e-06
1.49844e-06
1.64593e-06
1.72919e-06
2.23675e-06
1.7529e-06
1.49773e-06
1.88908e-06
1.80554e-06
1.74993e-06
2.15351e-06
1.42394e-06
1.63363e-06
1.59015e-06
1.93564e-06
1.57227e-06
1.57717e-06
1.78566e-06
1.55793e-06
2.47598e-06
1.54124e-06
1.65225e-06
1.77079e-06
2.15834e-06
2.3157e-06
3.59681e-06
2.00246e-06
1.84815e-06
2.31354e-06
2.38899e-06
2.4242e-06
3.14871e-06
1.7055e-06
2.05658e-06
2.04966e-06
2.30359e-06
1.90519e-06
2.06341e-06
2.19453e-06
2.57002e-06
3.37545e-06
1.88105e-06
1.96208e-06
2.15898e-06
3.19417e-06
3.78296e-06
5.28301e-06
2.41714e-06
2.5795e-06
3.05103e-06
2.61139e-06
3.53541e-06
5.01676e-06
2.15754e-06
2.42593e-06
2.82874e-06
3.25099e-06
2.36898e-06
2.64484e-06
2.88133e-06
3.51368e-06
5.47721e-06
2.33997e-06
2.76218e-06
2.87252e-06
5.45759e-06
5.93675e-06
7.35944e-06
3.15992e-06
3.02731e-06
3.90283e-06
3.91784e-06
4.95348e-06
9.02424e-06
2.97486e-06
3.3968e-06
3.69991e-06
4.28635e-06
3.1727e-06
3.88599e-06
3.71399e-06
6.29641e-06
7.36724e-06
3.16622e-06
3.70982e-06
3.66696e-06
8.35685e-06
8.11591e-06
1.24642e-05
4.35187e-06
3.93607e-06
5.11515e-06
5.44096e-06
9.95404e-06
1.17423e-05
4.12893e-06
4.68052e-06
5.00465e-06
5.55522e-06
3.88372e-06
6.06495e-06
5.41571e-06
8.35388e-06
1.18366e-05
3.82401e-06
5.11848e-06
5.44245e-06
1.19131e-05
1.26348e-05
1.68637e-05
5.42352e-06
5.74248e-06
6.58576e-06
5.55595e-06
1.32604e-05
1.45e-05
5.3912e-06
6.10501e-06
6.57354e-06
7.25112e-06
5.78738e-06
6.5516e-06
6.46013e-06
1.22786e-05
1.74837e-05
5.83818e-06
6.30512e-06
6.35793e-06
1.60776e-05
1.83701e-05
2.34445e-05
7.07876e-06
6.48793e-06
9.37182e-06
1.06044e-05
1.49113e-05
2.94062e-05
7.01378e-06
7.59409e-06
9.47521e-06
1.01821e-05
6.93246e-06
1.23827e-05
9.05058e-06
1.83097e-05
2.34907e-05
6.83135e-06
8.89046e-06
9.16599e-06
2.37777e-05
2.5194e-05
2.93916e-05
9.57783e-06
1.10089e-05
1.09133e-05
1.0029e-05
3.07756e-05
2.68417e-05
9.89759e-06
1.05598e-05
1.07792e-05
1.12202e-05
9.7547e-06
1.18313e-05
1.08888e-05
2.48723e-05
2.92967e-05
9.7024e-06
1.17666e-05
1.08579e-05
3.07351e-05
3.05274e-05
3.72625e-05
1.20369e-05
1.05272e-05
1.39671e-05
1.57358e-05
2.53661e-05
4.40221e-05
1.21331e-05
1.27824e-05
1.48945e-05
1.52514e-05
1.15219e-05
1.86358e-05
1.44046e-05
3.03599e-05
3.92142e-05
1.17487e-05
1.37098e-05
1.41706e-05
3.72916e-05
3.90386e-05
4.44375e-05
1.4469e-05
1.69436e-05
1.83302e-05
1.82676e-05
4.64597e-05
4.44108e-05
1.50394e-05
1.51067e-05
1.87142e-05
1.89781e-05
1.50688e-05
1.9411e-05
1.72833e-05
4.07978e-05
4.43904e-05
1.44883e-05
1.93623e-05
1.75017e-05
4.34978e-05
4.51163e-05
5.14512e-05
1.94077e-05
1.80094e-05
1.95134e-05
2.16976e-05
4.33444e-05
5.08251e-05
2.01809e-05
2.02063e-05
2.07343e-05
1.99645e-05
1.85456e-05
1.97363e-05
2.1007e-05
4.68101e-05
4.95692e-05
1.89491e-05
2.05607e-05
2.12568e-05
5.27921e-05
5.23174e-05
6.01515e-05
2.0686e-05
2.46761e-05
2.84181e-05
3.16165e-05
5.46102e-05
6.36073e-05
2.12979e-05
2.05254e-05
2.87756e-05
2.77881e-05
2.18894e-05
3.07839e-05
2.54034e-05
4.97631e-05
6.12954e-05
2.16676e-05
2.86726e-05
2.4635e-05
5.59538e-05
6.24839e-05
6.34312e-05
2.94531e-05
3.19983e-05
2.91532e-05
2.97067e-05
6.35903e-05
5.88785e-05
2.9922e-05
2.91656e-05
3.14801e-05
2.87234e-05
2.63207e-05
2.82179e-05
3.09746e-05
6.32094e-05
6.25159e-05
2.65675e-05
2.94288e-05
3.1647e-05
6.4835e-05
6.34039e-05
6.93631e-05
3.04064e-05
2.85587e-05
3.38709e-05
3.63947e-05
5.92515e-05
7.19158e-05
3.1857e-05
2.90255e-05
3.29808e-05
3.49423e-05
3.23938e-05
3.73757e-05
3.38037e-05
6.24204e-05
6.89924e-05
3.17743e-05
3.43701e-05
3.3029e-05
6.80563e-05
7.14995e-05
7.50733e-05
3.54369e-05
3.97067e-05
4.30898e-05
4.07996e-05
7.30544e-05
7.30834e-05
3.46041e-05
3.62728e-05
4.33258e-05
4.16885e-05
3.50259e-05
3.93107e-05
4.07587e-05
7.12527e-05
7.50467e-05
3.54233e-05
4.26328e-05
4.14005e-05
7.4357e-05
7.60516e-05
7.78129e-05
4.45959e-05
4.12799e-05
4.3744e-05
4.95759e-05
7.41936e-05
8.12296e-05
4.52563e-05
4.33338e-05
4.49573e-05
4.44405e-05
4.1869e-05
4.83982e-05
4.62921e-05
7.57185e-05
7.76111e-05
4.17085e-05
4.48272e-05
4.56561e-05
7.95217e-05
7.85019e-05
8.40637e-05
4.4344e-05
5.19882e-05
5.32864e-05
5.43021e-05
8.22066e-05
8.25576e-05
4.5445e-05
4.49777e-05
5.32205e-05
5.28221e-05
4.8889e-05
5.31377e-05
5.27265e-05
7.88889e-05
8.41457e-05
4.85558e-05
5.35078e-05
5.32014e-05
8.2204e-05
8.49836e-05
8.64441e-05
5.45623e-05
5.36405e-05
5.6771e-05
5.45108e-05
8.30136e-05
8.63482e-05
5.40982e-05
5.60141e-05
5.56736e-05
5.79768e-05
5.2124e-05
5.47808e-05
5.46797e-05
8.51353e-05
8.64544e-05
5.26886e-05
5.69048e-05
5.44434e-05
8.76093e-05
8.72639e-05
9.23168e-05
5.79266e-05
5.9158e-05
6.43869e-05
6.50937e-05
8.82717e-05
9.21058e-05
5.74642e-05
5.738e-05
6.60142e-05
6.35294e-05
5.86242e-05
6.5973e-05
6.88632e-05
8.6915e-05
9.22232e-05
5.83415e-05
6.44524e-05
6.84993e-05
9.32301e-05
9.32012e-05
9.41938e-05
6.70222e-05
6.49208e-05
6.99476e-05
7.19998e-05
9.26065e-05
9.5592e-05
6.79618e-05
6.61416e-05
6.7839e-05
7.19792e-05
6.99633e-05
7.03405e-05
6.77687e-05
9.35767e-05
9.56071e-05
6.94998e-05
7.1608e-05
6.7076e-05
9.15647e-05
9.45919e-05
9.9068e-05
6.95033e-05
7.44285e-05
7.39402e-05
7.45467e-05
9.66295e-05
9.84879e-05
6.77168e-05
7.25552e-05
7.53486e-05
7.35783e-05
6.66115e-05
7.36376e-05
7.62332e-05
9.59729e-05
9.80178e-05
6.59959e-05
7.27491e-05
7.70481e-05
0.000102004
0.000100659
0.000104108
7.77736e-05
7.51035e-05
8.46092e-05
8.45753e-05
9.9228e-05
0.00010386
7.92187e-05
7.59665e-05
8.47683e-05
8.49207e-05
8.08645e-05
8.455e-05
8.71747e-05
9.91314e-05
0.000104337
8.14748e-05
8.49121e-05
8.67086e-05
0.000104219
0.00010452
0.000106911
8.43405e-05
8.57004e-05
8.87749e-05
8.47497e-05
0.0001043
0.000105519
8.43173e-05
8.57391e-05
8.67473e-05
8.51368e-05
8.71936e-05
8.48899e-05
8.54106e-05
0.000104988
0.000106344
8.64181e-05
8.64935e-05
8.49505e-05
0.000106628
0.000107955
0.000109219
9.13597e-05
8.6749e-05
9.26432e-05
9.70872e-05
0.000106872
0.00011268
9.02692e-05
8.78063e-05
9.37289e-05
9.62314e-05
8.69687e-05
9.76324e-05
9.59942e-05
0.000107143
0.000110723
8.7687e-05
9.56768e-05
9.62478e-05
0.000110512
0.00010952
0.000114736
9.26057e-05
9.91789e-05
9.78262e-05
9.87249e-05
0.000113097
0.000112345
9.34642e-05
9.65956e-05
9.7617e-05
9.61538e-05
9.63989e-05
9.89549e-05
9.66967e-05
0.000110901
0.000113005
9.64646e-05
9.55437e-05
9.60984e-05
0.000113546
0.000116223
0.000120486
0.000101048
9.78814e-05
0.000109863
0.000104878
0.00011261
0.000119853
0.00010073
9.87982e-05
0.000109679
0.000108867
9.91842e-05
0.000104628
0.000108819
0.000114584
0.0001209
9.88967e-05
0.000109189
0.000109031
0.000120945
0.000120768
0.000120355
0.000111129
0.000108835
0.000109962
0.000114882
0.000121409
0.000123353
0.000110923
0.000110927
0.000109601
0.00011128
0.000111124
0.000114623
0.00011227
0.000121405
0.000121209
0.00011131
0.000112182
0.0001124
0.000121389
0.000120393
0.000126018
0.000109238
0.000114813
0.00011517
0.000112953
0.000123267
0.000123558
0.000109009
0.000110443
0.000115848
0.000112982
0.000111398
0.000113039
0.000112863
0.00012111
0.000124011
0.000111522
0.000111125
0.000112526
0.000124272
0.000127049
0.000129499
0.000117052
0.000114052
0.000122659
0.000121522
0.000124375
0.000129364
0.000117199
0.000116593
0.000121922
0.00012484
0.000117213
0.000120402
0.000120644
0.000125805
0.000131342
0.000116998
0.00012496
0.000120944
0.000129185
0.000130272
0.000132441
0.000124374
0.000123171
0.000125204
0.000126767
0.000130205
0.00013356
0.000124109
0.00012544
0.000125679
0.000123774
0.000120764
0.00012841
0.000127975
0.000131512
0.000130708
0.00012101
0.000123962
0.000127659
0.000133731
0.000132618
0.000135956
0.00012573
0.000128052
0.000131916
0.000130673
0.000134085
0.000134972
0.000125732
0.000124046
0.000131466
0.000132957
0.000129684
0.000129408
0.000130124
0.000131145
0.000137522
0.000129386
0.000133069
0.000130098
0.00013519
0.000136902
0.000137824
0.000133258
0.000130885
0.000133014
0.000133966
0.000135116
0.0001384
0.000133013
0.000134127
0.000133356
0.000133372
0.000130442
0.000134375
0.000133841
0.00013788
0.000137023
0.00013021
0.000132719
0.000134115
0.000138542
0.000138034
0.000143653
0.000133725
0.000136111
0.000141712
0.00014108
0.000139661
0.000143266
0.000134439
0.000133837
0.000141641
0.000139964
0.000135687
0.00014153
0.000141632
0.000137188
0.000143167
0.000136385
0.000140847
0.00014127
0.00014314
0.000144461
0.000144355
0.000143538
0.000141733
0.000143722
0.000143102
0.000143396
0.000143818
0.000143161
0.000141306
0.000143048
0.000144936
0.000142612
0.000142814
0.00014238
0.000143798
0.000145132
0.000141519
0.000144268
0.000142263
0.000143686
0.000144125
0.000148897
0.000143287
0.000144028
0.000148993
0.000148298
0.000144378
0.000148506
0.00014286
0.000145876
0.000149084
0.000146587
0.000142765
0.000148056
0.000148906
0.000145612
0.000147133
0.000143833
0.000147351
0.000149464
0.00014917
0.000149705
0.000150019
0.000150551
0.000149818
0.000150951
0.000153031
0.000149265
0.00015133
0.000150386
0.000147232
0.000151274
0.000153287
0.000151128
0.00015365
0.000153397
0.000147282
0.000151652
0.000150452
0.000152494
0.000152498
0.000151174
0.000150092
0.000154924
0.000151663
0.000153405
0.000157466
0.000155365
0.000151472
0.000152869
0.000152226
0.000155425
0.00015769
0.000157556
0.000153133
0.000155048
0.000155778
0.000152794
0.000154395
0.00015356
0.000158332
0.000157467
0.000153903
0.000155722
0.000156236
0.000159242
0.000157172
0.000160964
0.000161662
0.000153714
0.000157102
0.000159286
0.000157259
0.00016061
0.000158048
0.000157954
0.000161545
0.000161403
0.00015419
0.000154157
0.000158513
0.000157084
0.000159302
0.000156222
0.000155964
0.000157527
0.000160637
0.000161835
0.000161585
0.000162334
0.000157177
0.000158018
0.000160219
0.000159539
0.000161121
0.000164778
0.000161256
0.000162152
0.000161007
0.000155095
0.000160668
0.000159284
0.000165068
0.000162829
0.000157845
0.000158895
0.000164033
0.000164103
0.000164301
0.000170823
0.000170048
0.000158989
0.000163254
0.000163811
0.000166723
0.000171134
0.00017062
0.000163492
0.000170516
0.000170831
0.000161545
0.000163067
0.000165223
0.000170673
0.000171184
0.000163806
0.000164266
0.000163638
0.000171749
0.000170686
0.000171513
0.000170131
0.000163401
0.000162701
0.000172223
0.000170769
0.000172298
0.000169503
0.000171899
0.000170923
0.000171986
0.000162948
0.000161461
0.00017188
0.000169232
0.0001715
0.000163732
0.000163415
0.000166079
0.000171191
0.000170297
0.000174679
0.000175545
0.000162793
0.000166732
0.000171864
0.00016914
0.000173627
0.000175467
0.000171896
0.00017464
0.000174743
0.000161803
0.000167584
0.000171281
0.000175815
0.000174102
0.000165994
0.000166307
0.000167699
0.000175121
0.000175978
0.000176232
0.000176646
0.000166861
0.000168085
0.000174366
0.000176769
0.000176812
0.000177438
0.000174855
0.000177126
0.000175521
0.000167977
0.000168241
0.000174216
0.000177232
0.000175662
0.000167058
0.000168759
0.000173244
0.000178301
0.000178736
0.000184151
0.000184352
0.000169165
0.000173526
0.000178824
0.00017873
0.000184262
0.000184099
0.000177995
0.000184505
0.000184379
0.00016871
0.000173146
0.000178116
0.000184062
0.000184583
0.000173579
0.000173287
0.000171073
0.000184798
0.000184924
0.000184381
0.000184334
0.000173527
0.000171
0.000184832
0.000184673
0.00018428
0.000184151
0.000185068
0.00018432
0.00018467
0.000173224
0.000171084
0.000185324
0.000184556
0.00018504
0.000171468
0.00017051
0.000174429
0.000183797
0.000183729
0.000184144
0.000183859
0.000170437
0.00017418
0.000183677
0.000183548
0.000184173
0.000184178
0.000184069
0.000183846
0.000183891
0.000170528
0.000174402
0.000184483
0.000184222
0.000184159
0.000174187
0.000176795
0.00018507
0.000188832
0.000188536
0.000198727
0.000198611
0.000176549
0.000184986
0.000188898
0.000188917
0.000198743
0.000198729
0.000188438
0.000198646
0.000198527
0.000176758
0.000185008
0.000188522
0.000198648
0.00019849
0.000184901
0.000185604
0.000185439
0.000200608
0.000200517
0.000204473
0.000204463
0.000185538
0.000185513
0.000200618
0.000200613
0.000204452
0.000204395
0.000200421
0.00020448
0.000204372
0.000185537
0.000185321
0.000200371
0.000204344
0.000204293
0.000185439
0.000183521
0.000170682
0.000201998
0.000202115
0.000187595
0.000187682
0.000183614
0.000170758
0.000201926
0.000201816
0.000187553
0.000187487
0.00020204
0.000187659
0.000187663
0.000183411
0.000170646
0.000201959
0.000187582
0.00018765
0.000170765
0.000169138
0.000163419
0.000183751
0.000183816
0.000177316
0.000177337
0.000169202
0.000163415
0.000183723
0.000183671
0.000177312
0.000177271
0.000183817
0.000177349
0.000177385
0.000169113
0.000163421
0.000183818
0.000177354
0.000177398
0.000163461
0.000163729
0.00017524
0.000175669
0.000175672
0.000186864
0.00018676
0.000163699
0.000175168
0.000175674
0.000175638
0.000186928
0.000186925
0.000175734
0.000186833
0.000186871
0.000163736
0.00017523
0.000175747
0.000186874
0.000186859
0.000175207
0.000177597
0.000189118
0.000192076
0.000191988
0.000206453
0.000206421
0.000177533
0.000189114
0.000192129
0.000192116
0.000206485
0.000206446
0.000192074
0.000206476
0.00020646
0.000177581
0.000189078
0.000192056
0.000206402
0.000206435
0.000189108
0.000191293
0.000204011
0.000211343
0.000211328
0.000225806
0.000225828
0.000191297
0.000204051
0.00021137
0.000211323
0.000225821
0.000225756
0.000211358
0.000225875
0.000225843
0.000191251
0.000203963
0.000211335
0.000225757
0.00022583
0.000204034
0.000205778
0.000214736
0.000229881
0.000229911
0.000238919
0.000238963
0.000205821
0.000214788
0.000229893
0.000229825
0.000238927
0.000238851
0.000229922
0.000239003
0.000238971
0.00020573
0.000214692
0.000229913
0.000238883
0.000238965
0.000214771
0.000213707
0.000199893
0.000241702
0.000241749
0.000228557
0.000228586
0.000213756
0.000199922
0.00024171
0.000241633
0.000228565
0.000228513
0.000241754
0.000228612
0.000228566
0.000213677
0.000199895
0.000241752
0.000228617
0.000228613
0.000199904
0.000195694
0.000177909
0.00022048
0.000220501
0.00019876
0.000198763
0.00019572
0.000177921
0.000220491
0.000220449
0.000198773
0.000198759
0.000220484
0.000198793
0.000198755
0.000195698
0.000177928
0.000220529
0.000198817
0.000198795
0.00017791
0.00017549
0.000167499
0.000193215
0.000193214
0.00018316
0.000183155
0.0001755
0.000167505
0.000193226
0.000193219
0.000183166
0.000183168
0.00019321
0.00018318
0.000183157
0.000175509
0.000167513
0.000193245
0.000183197
0.000183179
0.0001675
0.000167073
0.000168978
0.000181852
0.000181846
0.000181524
0.000181519
0.000167079
0.000168984
0.000181857
0.000181859
0.000181526
0.000181525
0.00018185
0.000181538
0.000181524
0.000167087
0.000168979
0.000181867
0.000181542
0.000181531
0.000168978
0.000170294
0.000178039
0.000184405
0.000184404
0.000195047
0.000195048
0.0001703
0.000178047
0.000184407
0.0001844
0.000195056
0.000195038
0.000184409
0.00019507
0.00019505
0.000170293
0.000178037
0.000184408
0.000195061
0.000195058
0.000178039
0.000179242
0.000184239
0.000198056
0.000198057
0.000204855
0.000204855
0.000179251
0.000184247
0.000198066
0.000198045
0.00020487
0.000204842
0.000198059
0.000204885
0.00020486
0.000179239
0.000184235
0.000198069
0.000204875
0.000204874
0.00018424
0.000184768
0.000186948
0.000206392
0.000206392
0.000209262
0.00020926
0.000184777
0.000186956
0.000206409
0.00020638
0.000209279
0.000209248
0.000206399
0.000209293
0.000209268
0.000184765
0.000186943
0.000206413
0.000209285
0.000209286
0.00018695
0.000187071
0.000187895
0.000209816
0.000209814
0.0002108
0.000210797
0.000187078
0.000187904
0.000209834
0.000209802
0.000210817
0.000210786
0.000209823
0.000210833
0.000210806
0.000187066
0.000187891
0.00020984
0.000210824
0.000210824
0.000187897
0.000187858
0.000188222
0.000211
0.000210997
0.000211315
0.000211311
0.000187866
0.000188231
0.000211018
0.000210986
0.000211332
0.0002113
0.000211007
0.000211348
0.000211321
0.000187854
0.000188218
0.000211025
0.000211338
0.00021134
0.000188225
0.000188106
0.000188325
0.000211362
0.000211358
0.000211413
0.00021141
0.000188114
0.000188333
0.000211379
0.000211347
0.00021143
0.000211398
0.000211368
0.000211446
0.000211419
0.000188102
0.00018832
0.000211387
0.000211436
0.000211438
0.000188328
0.000188185
0.000188279
0.000211409
0.000211406
0.000211328
0.000211325
0.000188193
0.000188287
0.000211427
0.000211394
0.000211346
0.000211313
0.000211416
0.000211362
0.000211335
0.00018818
0.000188274
0.000211435
0.000211352
0.000211353
0.000188282
0.000188128
0.000188213
0.000211313
0.000211311
0.000211306
0.000211304
0.000188136
0.000188222
0.000211332
0.000211299
0.000211324
0.000211292
0.000211321
0.000211341
0.000211314
0.000188123
0.000188209
0.000211339
0.000211331
0.000211331
0.000188216
0.000188091
0.000188339
0.000211331
0.000211328
0.000211353
0.00021135
0.000188101
0.000188348
0.000211349
0.000211316
0.000211371
0.000211337
0.000211338
0.000211386
0.000211359
0.000188088
0.000188333
0.000211355
0.000211376
0.000211377
0.00018834
0.000188196
0.000188228
0.000211349
0.000211346
0.00021131
0.000211307
0.000188204
0.000188235
0.000211367
0.000211333
0.000211329
0.000211295
0.000211355
0.000211344
0.000211317
0.00018819
0.000188222
0.000211373
0.000211334
0.000211335
0.000188229
0.00018808
0.000188281
0.000211312
0.000211309
0.000211323
0.000211321
0.000188087
0.000188292
0.000211331
0.000211297
0.000211342
0.000211308
0.000211319
0.000211357
0.00021133
0.000188074
0.000188278
0.000211337
0.000211347
0.000211348
0.000188285
0.000188158
0.000188285
0.000211332
0.000211329
0.000211323
0.00021132
0.000188168
0.000188291
0.00021135
0.000211317
0.000211342
0.000211308
0.000211338
0.000211357
0.00021133
0.000188155
0.000188277
0.000211356
0.000211347
0.000211347
0.000188285
0.000188134
0.000188233
0.000211325
0.000211322
0.000211317
0.000211314
0.000188139
0.000188242
0.000211344
0.00021131
0.000211336
0.000211302
0.000211331
0.000211351
0.000211324
0.000188126
0.000188229
0.000211349
0.000211341
0.000211341
0.000188235
0.000188107
0.000188307
0.000211328
0.000211326
0.000211325
0.000211322
0.000188116
0.000188316
0.000211347
0.000211314
0.000211344
0.00021131
0.000211335
0.000211359
0.000211332
0.000188104
0.000188301
0.000211353
0.000211349
0.00021135
0.000188308
0.000188168
0.000188249
0.000211336
0.000211333
0.000211369
0.000211367
0.000188176
0.000188255
0.000211354
0.000211321
0.000211389
0.000211356
0.000211342
0.000211403
0.000211377
0.000188161
0.000188242
0.00021136
0.000211395
0.000211395
0.000188248
0.000188109
0.000189692
0.000211253
0.000211251
0.000213833
0.000213835
0.000188117
0.000189699
0.000211273
0.000211239
0.000213852
0.000213827
0.000211259
0.000213862
0.000213841
0.000188105
0.00018969
0.000211279
0.000213854
0.000213859
0.000189697
0.0001916
0.000212572
0.000212573
0.000191604
0.000212588
0.000212565
0.000235065
0.000235061
0.000235069
0.000212579
0.000191596
0.000212595
2.61173e-05
2.67496e-06
1.59582e-05
1.59832e-05
5.6617e-07
2.08586e-06
1.83036e-06
8.20557e-06
6.1755e-07
2.35456e-06
7.89549e-06
1.03177e-06
2.24038e-06
1.7797e-06
1.84569e-06
1.16874e-06
1.67747e-05
1.12799e-06
1.88251e-05
1.05669e-05
1.28418e-05
1.06254e-06
1.33864e-05
9.7928e-07
1.51782e-05
6.75671e-06
6.95396e-06
6.92114e-06
6.62407e-06
6.66593e-06
6.77332e-06
6.79164e-06
5.95215e-07
9.33927e-07
3.05574e-06
2.12667e-06
5.89171e-07
1.10423e-06
3.00819e-06
1.27426e-05
1.52398e-05
7.27738e-07
3.04678e-06
4.85801e-07
1.99957e-06
7.22051e-07
3.01191e-06
6.08841e-07
1.50855e-06
1.51158e-06
2.21765e-06
1.7047e-06
1.71297e-06
1.37549e-06
2.25475e-05
1.2839e-06
2.46428e-05
1.68855e-05
1.90877e-05
1.32047e-06
1.83974e-05
1.20229e-06
2.09478e-05
6.70544e-06
6.80152e-06
6.82047e-06
6.80297e-06
6.83487e-06