/*--------------------------------*- C++ -*----------------------------------*\
| =========                 |                                                 |
| \\      /  F ield         | OpenFOAM: The Open Source CFD Toolbox           |
|  \\    /   O peration     | Version:  v2012                                 |
|   \\  /    A nd           | Website:  www.openfoam.com                      |
|    \\/     M anipulation  |                                                 |
\*---------------------------------------------------------------------------*/
FoamFile
{
    version     2.0;
    format      ascii;
    class       volScalarField;
    location    "312.5";
    object      p;
}
// * * * * * * * * * * * * * * * * * * * * * * * * * * * * * * * * * * * * * //

dimensions      [0 2 -2 0 0 0 0];


internalField   nonuniform List<scalar> 
171728
(
0.00352261
0.00352144
0.00352153
0.00352214
0.00348678
0.00348535
0.00348533
0.00348821
0.00344843
0.00344655
0.00344649
0.00344881
0.00340424
0.00340257
0.00340257
0.0034048
0.00335596
0.00335454
0.00335448
0.00335683
0.00330715
0.00330569
0.00330577
0.00330812
0.0032591
0.00325786
0.00325786
0.00326018
0.00321181
0.00321074
0.00321071
0.00321304
0.00316537
0.00316439
0.0031644
0.00316677
0.00312005
0.00311916
0.00311917
0.00312153
0.00307563
0.00307484
0.0030749
0.00307724
0.00303192
0.00303123
0.00303128
0.00303362
0.00298882
0.00298828
0.00298818
0.00299058
0.0029461
0.00294562
0.00294567
0.00294796
0.00290371
0.00290333
0.00290335
0.00290558
0.00286165
0.00286136
0.00286139
0.00286367
0.00281994
0.00281976
0.00281967
0.00282197
0.00277858
0.00277846
0.00277837
0.00278057
0.00273758
0.00273739
0.00273735
0.00273952
0.00269693
0.00269678
0.00269684
0.00269881
0.00265664
0.00265653
0.00265653
0.00265837
0.00261666
0.00261665
0.00261649
0.00261837
0.00257692
0.00257705
0.0025768
0.00257859
0.00253747
0.00253754
0.00253746
0.00253914
0.00249825
0.00249827
0.00249834
0.00249993
0.00245925
0.00245932
0.00245934
0.00246137
0.00242052
0.00242071
0.00242063
0.00242246
0.00238198
0.00238218
0.00238222
0.00238423
0.00234373
0.00234409
0.00234408
0.00234577
0.00230553
0.00230571
0.00230579
0.00230795
0.00226761
0.00226795
0.00226791
0.0022699
0.00222981
0.00223024
0.00223018
0.00223204
0.00219203
0.00219234
0.00219244
0.0021945
0.00215447
0.00215498
0.00215489
0.00215676
0.00211724
0.00211756
0.00211766
0.00211951
0.00207986
0.00208042
0.00208028
0.00208226
0.00204281
0.002043
0.00204316
0.00204494
0.00200574
0.0020062
0.00200604
0.00200818
0.00196905
0.00196921
0.00196935
0.00197102
0.00193229
0.00193255
0.00193244
0.00193446
0.00189567
0.00189586
0.0018959
0.00189822
0.00185951
0.00185947
0.00185951
0.00186115
0.00182292
0.00182304
0.001823
0.00182525
0.00178689
0.00178686
0.00178682
0.00178883
0.00175091
0.00175076
0.00175094
0.00175298
0.00171517
0.0017152
0.00171498
0.00171701
0.0016794
0.001679
0.00167911
0.00168114
0.00164359
0.00164355
0.00164363
0.00164575
0.00160821
0.00160814
0.00160801
0.00160998
0.00157292
0.00157256
0.00157252
0.00157468
0.00153747
0.00153714
0.00153743
0.00153923
0.0015023
0.00150223
0.00150193
0.00150414
0.00146737
0.00146693
0.00146716
0.00146901
0.00143233
0.00143201
0.00143197
0.00143398
0.00139741
0.00139722
0.0013971
0.00139919
0.00136255
0.00136229
0.00136242
0.00136424
0.00132797
0.00132756
0.0013275
0.00132953
0.00129315
0.00129299
0.00129288
0.00129482
0.00125843
0.00125822
0.00125848
0.00126029
0.00122428
0.00122388
0.00122366
0.00122573
0.00118948
0.00118923
0.00118926
0.00119106
0.00115499
0.00115498
0.00115508
0.00115693
0.00112068
0.00112044
0.00112037
0.00112238
0.00108662
0.00108633
0.00108636
0.00108823
0.00105221
0.00105193
0.00105194
0.00105378
0.00101842
0.00101844
0.00101841
0.00102031
0.000984748
0.000984319
0.000984293
0.00098616
0.000949499
0.000949166
0.000949168
0.000951022
0.000913917
0.000913984
0.000913996
0.000916084
0.000879446
0.000879821
0.000879842
0.000881926
0.000846569
0.000846761
0.000846761
0.000848689
0.000814756
0.000813971
0.000813967
0.000815559
0.000782321
0.000781769
0.000781772
0.000783414
0.000747239
0.000746892
0.000746896
0.00074881
0.000708483
0.000708168
0.000708174
0.000710339
0.000667723
0.000668654
0.000668652
0.000671236
0.000629452
0.000630126
0.000630124
0.000632561
0.000594186
0.000594216
0.000594223
0.000596223
0.000561573
0.000561195
0.000561198
0.000562813
0.000531566
0.000531237
0.000531238
0.000532753
0.000501972
0.00050184
0.000501843
0.000503499
0.000469639
0.000469565
0.000469566
0.000471427
0.000434979
0.000434935
0.000434935
0.000436928
0.000399183
0.000399156
0.000399156
0.00040121
0.000362909
0.000362887
0.000362887
0.000364968
0.000326455
0.00032643
0.00032643
0.000328519
0.000289947
0.000289921
0.000289921
0.000292012
0.000253416
0.000253388
0.000253388
0.000255479
0.000216883
0.000216856
0.000216856
0.000218944
0.00018035
0.000180325
0.000180325
0.000182411
0.000143816
0.00014379
0.00014379
0.000145867
0.000107275
0.000107255
0.000107254
0.000109317
7.07324e-05
7.07041e-05
7.07029e-05
7.2732e-05
3.49446e-05
3.43721e-05
3.43689e-05
3.62496e-05
6.20797e-06
7.11806e-06
7.11708e-06
5.37836e-06
0.00352706
0.00352461
0.0035245
0.00352692
0.00352462
0.00352468
0.00353102
0.00353087
0.00353106
0.00353088
0.00352457
0.00352443
0.00352704
0.00352474
0.00352442
0.00352686
0.0035223
0.00349295
0.00352157
0.00352142
0.00349501
0.00349483
0.00352216
0.00349297
0.00352154
0.00352173
0.00349489
0.00349494
0.00352141
0.00349479
0.00349484
0.00352232
0.00349291
0.0035214
0.00349488
0.00349482
0.00349298
0.00348816
0.00345417
0.00348522
0.00348531
0.00345631
0.00345653
0.0034882
0.00345432
0.00348528
0.00348517
0.00345643
0.00345601
0.00348532
0.0034566
0.00345657
0.00348811
0.00345414
0.00348535
0.00345636
0.00345656
0.00345431
0.0034487
0.00341097
0.00344626
0.0034465
0.00341397
0.00341409
0.00344883
0.003411
0.00344636
0.00344629
0.00341402
0.00341401
0.0034465
0.00341412
0.00341411
0.00344869
0.00341093
0.00344649
0.00341416
0.00341411
0.003411
0.00340479
0.0033633
0.00340255
0.00340261
0.00336663
0.00336662
0.00340482
0.00336333
0.00340257
0.00340248
0.00336664
0.00336668
0.00340257
0.00336663
0.00336664
0.00340474
0.0033633
0.00340256
0.0033667
0.00336663
0.0033633
0.00335682
0.00331457
0.00335451
0.00335453
0.00331787
0.00331792
0.00335686
0.00331458
0.0033545
0.0033545
0.00331786
0.00331792
0.00335451
0.00331793
0.00331788
0.00335684
0.00331455
0.00335453
0.00331794
0.00331788
0.00331456
0.00330814
0.0032665
0.00330576
0.00330572
0.00326974
0.00326972
0.00330814
0.00326652
0.00330575
0.00330578
0.00326974
0.00326976
0.0033057
0.00326969
0.0032697
0.00330812
0.00326648
0.00330569
0.00326973
0.00326969
0.00326649
0.0032602
0.00321925
0.00325784
0.00325783
0.00322241
0.0032224
0.00326021
0.00321922
0.00325784
0.00325784
0.00322241
0.00322242
0.00325783
0.00322241
0.00322238
0.00326018
0.00321924
0.00325786
0.00322241
0.00322239
0.00321923
0.00321306
0.00317281
0.00321069
0.00321074
0.00317582
0.00317584
0.00321304
0.00317277
0.00321069
0.0032107
0.00317583
0.00317584
0.00321068
0.00317585
0.00317581
0.00321306
0.00317283
0.00321072
0.00317585
0.00317582
0.00317282
0.00316677
0.00312746
0.00316438
0.00316443
0.00313038
0.00313036
0.00316674
0.00312744
0.00316438
0.0031644
0.00313037
0.00313036
0.00316437
0.00313039
0.0031304
0.00316679
0.00312746
0.00316439
0.00313038
0.00313038
0.00312744
0.00312155
0.00308303
0.00311918
0.00311917
0.00308589
0.00308585
0.00312154
0.00308305
0.00311916
0.00311919
0.00308588
0.00308585
0.00311915
0.00308588
0.00308586
0.00312158
0.00308303
0.00311916
0.00308581
0.00308584
0.00308303
0.00307724
0.00303932
0.00307484
0.00307487
0.00304207
0.00304213
0.00307724
0.00303932
0.00307483
0.00307487
0.00304209
0.0030421
0.00307484
0.00304212
0.00304208
0.00307725
0.00303932
0.00307484
0.00304212
0.00304207
0.0030393
0.00303362
0.00299623
0.00303126
0.00303126
0.00299895
0.00299897
0.00303364
0.00299626
0.00303123
0.00303129
0.00299894
0.00299899
0.00303127
0.00299894
0.00299901
0.00303365
0.00299623
0.00303126
0.002999
0.002999
0.00299621
0.00299064
0.00295353
0.00298829
0.00298822
0.00295633
0.00295614
0.00299065
0.00295351
0.00298831
0.0029882
0.00295631
0.0029562
0.00298821
0.0029562
0.0029563
0.00299059
0.00295351
0.00298821
0.00295617
0.0029563
0.00295353
0.00294796
0.00291116
0.00294561
0.00294567
0.0029139
0.00291374
0.00294799
0.00291113
0.00294561
0.00294566
0.00291391
0.00291378
0.00294557
0.00291378
0.00291385
0.00294799
0.00291112
0.00294557
0.00291382
0.00291384
0.00291111
0.00290566
0.00286906
0.00290328
0.00290333
0.00287177
0.00287169
0.00290565
0.00286905
0.00290328
0.00290342
0.00287177
0.0028717
0.00290328
0.00287175
0.00287179
0.00290568
0.00286903
0.00290326
0.00287167
0.00287178
0.00286907
0.00286361
0.00282732
0.00286131
0.00286143
0.00283002
0.00283003
0.00286368
0.00282734
0.0028613
0.00286137
0.00283001
0.00282996
0.00286136
0.00283004
0.00283009
0.00286366
0.00282726
0.00286138
0.00283002
0.00283011
0.00282736
0.00282197
0.00278589
0.00281968
0.00281974
0.00278868
0.00278867
0.00282199
0.00278595
0.00281969
0.00281972
0.0027887
0.00278859
0.00281969
0.00278876
0.00278872
0.00282191
0.00278585
0.00281968
0.00278856
0.00278871
0.0027859
0.00278056
0.00274477
0.00277836
0.00277842
0.00274767
0.00274758
0.00278065
0.00274489
0.00277838
0.00277831
0.00274771
0.00274761
0.00277837
0.00274766
0.00274764
0.00278056
0.00274467
0.00277839
0.00274761
0.00274763
0.00274475
0.00273951
0.00270401
0.00273739
0.00273742
0.00270696
0.00270684
0.00273963
0.0027041
0.0027374
0.00273729
0.00270698
0.00270705
0.00273743
0.00270678
0.00270695
0.00273942
0.00270401
0.00273746
0.0027071
0.00270699
0.00270396
0.00269882
0.0026635
0.0026968
0.00269678
0.00266654
0.00266662
0.00269886
0.00266352
0.0026968
0.00269687
0.00266654
0.00266655
0.00269682
0.00266647
0.00266662
0.00269887
0.00266359
0.0026968
0.00266655
0.00266662
0.00266343
0.00265838
0.0026234
0.00265661
0.00265653
0.00262646
0.00262659
0.00265837
0.00262334
0.00265659
0.00265659
0.00262644
0.00262649
0.00265653
0.00262651
0.00262658
0.00265841
0.00262347
0.00265656
0.00262644
0.00262659
0.00262333
0.00261833
0.00258364
0.00261668
0.00261669
0.00258674
0.00258676
0.00261834
0.00258353
0.00261664
0.00261653
0.00258674
0.00258671
0.00261667
0.00258678
0.00258672
0.00261831
0.00258368
0.0026167
0.00258667
0.00258673
0.00258355
0.00257858
0.00254422
0.00257685
0.00257699
0.00254738
0.00254713
0.00257865
0.00254405
0.00257685
0.00257678
0.00254737
0.0025474
0.00257697
0.00254716
0.00254721
0.00257852
0.00254431
0.00257699
0.00254736
0.00254722
0.00254414
0.00253922
0.00250506
0.00253746
0.00253748
0.00250814
0.00250804
0.00253906
0.00250512
0.00253747
0.00253741
0.00250813
0.00250819
0.00253749
0.00250799
0.002508
0.00253925
0.00250515
0.00253751
0.00250812
0.00250797
0.002505
0.00250022
0.00246596
0.00249845
0.00249822
0.00246903
0.00246915
0.00250003
0.0024663
0.00249844
0.00249832
0.00246906
0.00246915
0.00249822
0.00246911
0.00246922
0.0025002
0.00246606
0.00249823
0.00246908
0.00246921
0.00246644
0.00246104
0.00242765
0.00245942
0.00245936
0.00243036
0.0024304
0.00246124
0.00242752
0.00245943
0.00245939
0.00243035
0.00243038
0.00245937
0.00243036
0.0024304
0.00246114
0.00242748
0.00245937
0.00243038
0.00243038
0.00242723
0.00242269
0.00238921
0.00242077
0.00242078
0.00239179
0.00239186
0.00242285
0.00238925
0.00242077
0.00242072
0.00239178
0.00239182
0.00242073
0.00239192
0.00239191
0.00242253
0.00238911
0.00242072
0.00239191
0.00239191
0.00238919
0.00238427
0.00235083
0.00238221
0.00238215
0.00235348
0.00235355
0.00238411
0.0023504
0.0023822
0.00238219
0.00235348
0.00235357
0.00238226
0.00235352
0.00235349
0.00238418
0.00235085
0.00238226
0.0023536
0.00235351
0.00235067
0.00234596
0.00231291
0.00234398
0.00234406
0.00231535
0.00231531
0.00234584
0.00231307
0.00234397
0.00234403
0.00231537
0.00231533
0.00234395
0.00231529
0.0023154
0.00234598
0.00231278
0.00234399
0.00231525
0.00231536
0.00231292
0.00230799
0.00227471
0.0023058
0.00230578
0.00227739
0.00227735
0.00230799
0.00227441
0.00230578
0.00230579
0.00227742
0.00227744
0.00230585
0.00227729
0.0022774
0.00230779
0.002275
0.00230584
0.00227745
0.00227745
0.00227475
0.00226989
0.00223698
0.00226791
0.00226796
0.00223964
0.00223968
0.00226963
0.00223733
0.00226795
0.00226794
0.00223957
0.00223961
0.00226794
0.00223973
0.00223964
0.0022701
0.00223689
0.00226796
0.00223964
0.00223956
0.00223702
0.00223205
0.0021995
0.00223024
0.00223024
0.0022019
0.00220178
0.00223241
0.00219929
0.00223019
0.00223022
0.00220192
0.0022019
0.00223022
0.00220176
0.00220188
0.00223203
0.00219946
0.00223016
0.00220189
0.00220198
0.0021994
0.00219455
0.0021615
0.0021924
0.00219234
0.00216419
0.0021642
0.00219428
0.00216184
0.00219243
0.00219244
0.00216418
0.00216424
0.00219246
0.00216435
0.00216424
0.00219452
0.00216157
0.00219254
0.00216422
0.00216416
0.00216164
0.00215667
0.00212449
0.00215488
0.00215491
0.00212704
0.00212704
0.00215699
0.00212438
0.00215484
0.00215488
0.00212699
0.00212695
0.00215487
0.0021269
0.00212695
0.00215669
0.00212445
0.0021548
0.00212697
0.00212697
0.00212438
0.00211955
0.00208707
0.00211769
0.00211762
0.00208957
0.00208969
0.0021195
0.00208728
0.00211768
0.00211762
0.00208961
0.00208964
0.00211765
0.00208975
0.00208964
0.00211958
0.00208704
0.00211768
0.00208963
0.00208965
0.00208715
0.00208222
0.00204996
0.00208023
0.00208036
0.00205246
0.00205229
0.00208236
0.00204977
0.00208025
0.0020803
0.00205243
0.00205243
0.00208033
0.00205232
0.0020524
0.00208215
0.00205001
0.00208034
0.00205244
0.00205237
0.00204983
0.00204504
0.00201287
0.0020432
0.00204299
0.00201529
0.0020154
0.0020449
0.00201307
0.00204316
0.00204316
0.00201529
0.00201529
0.00204306
0.00201539
0.00201533
0.00204511
0.00201276
0.00204305
0.00201528
0.00201534
0.00201297
0.00200804
0.00197611
0.00200604
0.00200619
0.0019785
0.00197847
0.00200823
0.00197594
0.00200605
0.00200604
0.00197854
0.00197851
0.00200622
0.00197848
0.00197852
0.00200793
0.00197621
0.00200621
0.00197852
0.00197851
0.00197595
0.00197123
0.00193924
0.00196932
0.00196922
0.00194164
0.00194172
0.00197107
0.00193941
0.00196932
0.00196935
0.0019416
0.00194167
0.00196917
0.00194169
0.0019415
0.00197134
0.00193923
0.00196918
0.00194165
0.00194153
0.00193922
0.00193442
0.00190283
0.00193243
0.00193256
0.00190507
0.00190496
0.00193455
0.00190268
0.00193242
0.00193245
0.0019051
0.00190498
0.00193245
0.00190499
0.00190534
0.00193439
0.00190273
0.00193247
0.00190497
0.00190534
0.00190312
0.00189799
0.00186619
0.00189598
0.00189583
0.00186855
0.00186864
0.00189788
0.00186632
0.001896
0.0018959
0.00186854
0.00186864
0.00189614
0.00186863
0.0018683
0.00189795
0.00186633
0.00189613
0.00186867
0.00186829
0.00186593
0.00186135
0.00182999
0.0018594
0.0018595
0.00183216
0.00183206
0.00186145
0.00182989
0.00185939
0.00185949
0.00183215
0.00183207
0.00185915
0.00183207
0.0018322
0.00186145
0.00182984
0.00185915
0.00183205
0.00183223
0.00183002
0.00182518
0.0017936
0.00182308
0.00182303
0.0017958
0.00179599
0.00182511
0.00179374
0.00182308
0.00182302
0.00179584
0.00179591
0.0018232
0.00179599
0.00179587
0.00182507
0.00179368
0.00182322
0.00179589
0.00179584
0.00179368
0.00178882
0.00175786
0.00178678
0.00178687
0.00176
0.00175965
0.00178887
0.00175754
0.0017868
0.00178684
0.00175996
0.00175982
0.00178679
0.00175966
0.00175985
0.00178886
0.00175773
0.00178671
0.00175985
0.00175986
0.00175772
0.00175306
0.0017217
0.00175103
0.00175076
0.00172387
0.00172418
0.00175283
0.0017221
0.001751
0.00175091
0.00172391
0.00172401
0.00175096
0.00172416
0.001724
0.00175298
0.00172182
0.00175098
0.00172403
0.00172403
0.00172183
0.00171692
0.00168598
0.00171483
0.00171522
0.00168808
0.00168801
0.0017173
0.00168581
0.00171486
0.00171498
0.00168806
0.00168802
0.00171495
0.00168804
0.00168799
0.001717
0.00168589
0.00171496
0.00168799
0.00168795
0.00168587
0.00168123
0.0016505
0.00167921
0.00167898
0.00165254
0.00165236
0.00168105
0.00165036
0.00167921
0.00167913
0.00165257
0.00165251
0.00167913
0.00165237
0.00165254
0.00168116
0.0016505
0.0016791
0.00165249
0.00165254
0.00165051
0.00164573
0.00161475
0.00164363
0.00164355
0.00161682
0.00161706
0.00164563
0.00161494
0.00164364
0.00164363
0.00161679
0.00161695
0.00164364
0.00161703
0.00161691
0.00164575
0.00161478
0.00164365
0.00161703
0.00161696
0.00161475
0.00161002
0.00157934
0.00160796
0.00160816
0.00158142
0.00158134
0.00161016
0.00157931
0.00160795
0.00160799
0.00158142
0.00158128
0.00160795
0.00158141
0.00158149
0.00161001
0.00157927
0.00160797
0.00158125
0.00158142
0.00157941
0.00157459
0.00154409
0.00157255
0.00157249
0.00154613
0.00154606
0.00157458
0.00154398
0.00157253
0.00157252
0.00154613
0.00154627
0.0015727
0.00154597
0.00154598
0.00157457
0.00154422
0.00157265
0.00154627
0.00154603
0.00154395
0.00153936
0.00150878
0.00153735
0.00153724
0.0015108
0.00151087
0.00153925
0.00150888
0.00153738
0.00153746
0.00151081
0.0015107
0.00153713
0.00151094
0.00151088
0.00153947
0.00150868
0.00153719
0.00151067
0.00151087
0.00150885
0.00150404
0.00147377
0.00150197
0.00150212
0.00147584
0.00147581
0.00150417
0.00147373
0.00150196
0.0015019
0.00147581
0.00147584
0.00150214
0.00147578
0.00147584
0.00150398
0.00147384
0.00150212
0.0014759
0.00147581
0.00147374
0.00146909
0.00143866
0.00146715
0.00146701
0.00144067
0.00144072
0.00146901
0.00143868
0.00146711
0.00146715
0.00144071
0.00144078
0.00146703
0.0014407
0.00144065
0.00146914
0.00143869
0.00146701
0.00144071
0.00144071
0.00143867
0.00143394
0.00140386
0.00143188
0.00143199
0.00140589
0.00140588
0.00143398
0.00140387
0.00143192
0.001432
0.00140589
0.00140577
0.00143193
0.00140592
0.00140594
0.00143399
0.00140379
0.00143201
0.00140583
0.00140593
0.00140389
0.00139919
0.00136894
0.00139726
0.00139719
0.00137097
0.00137103
0.00139919
0.00136898
0.00139723
0.00139708
0.00137096
0.00137111
0.00139728
0.00137105
0.00137099
0.00139911
0.00136904
0.0013972
0.00137106
0.00137095
0.00136894
0.00136425
0.00133426
0.00136222
0.0013623
0.00133632
0.00133623
0.00136426
0.00133419
0.00136225
0.00136243
0.00133633
0.00133623
0.00136222
0.00133616
0.00133622
0.00136436
0.00133418
0.00136227
0.00133628
0.00133629
0.00133421
0.00132958
0.00129946
0.0013277
0.00132759
0.00130153
0.00130166
0.00132953
0.0012996
0.00132768
0.00132748
0.00130149
0.00130153
0.00132761
0.00130171
0.00130166
0.00132946
0.00129947
0.0013276
0.00130146
0.00130152
0.00129951
0.00129477
0.0012649
0.00129281
0.00129295
0.00126687
0.00126682
0.00129489
0.00126482
0.00129279
0.00129292
0.00126693
0.00126706
0.00129291
0.00126683
0.00126685
0.00129482
0.00126505
0.00129284
0.00126714
0.001267
0.00126493
0.00126025
0.00123047
0.0012583
0.00125822
0.00123257
0.00123252
0.00126017
0.00123046
0.00125836
0.00125839
0.00123257
0.00123239
0.00125827
0.00123253
0.00123257
0.00126037
0.00123032
0.00125841
0.00123236
0.00123248
0.00123044
0.00122577
0.00119573
0.00122389
0.00122388
0.0011978
0.00119785
0.00122578
0.00119578
0.00122387
0.00122372
0.00119775
0.0011978
0.00122389
0.00119783
0.00119779
0.00122562
0.00119573
0.00122377
0.00119779
0.00119776
0.00119571
0.00119106
0.00116156
0.00118919
0.00118926
0.00116354
0.00116359
0.00119112
0.00116159
0.00118914
0.00118924
0.00116352
0.00116364
0.00118919
0.00116357
0.00116352
0.00119109
0.00116168
0.0011892
0.00116368
0.00116357
0.00116157
0.00115693
0.00112702
0.00115497
0.00115498
0.00112902
0.00112896
0.00115693
0.00112697
0.00115499
0.00115507
0.00112909
0.00112897
0.00115492
0.001129
0.00112903
0.00115704
0.00112695
0.00115498
0.00112894
0.00112904
0.00112702
0.00112236
0.00109285
0.00112046
0.0011204
0.00109493
0.00109493
0.00112233
0.00109287
0.00112048
0.00112038
0.00109489
0.00109486
0.00112049
0.00109492
0.00109497
0.00112229
0.00109286
0.00112049
0.0010949
0.00109496
0.0010929
0.0010882
0.00105845
0.00108635
0.00108635
0.00106048
0.00106049
0.00108822
0.00105845
0.00108631
0.00108632
0.00106047
0.0010605
0.00108637
0.00106048
0.00106046
0.00108822
0.00105844
0.00108637
0.00106049
0.00106047
0.00105843
0.0010538
0.00102485
0.00105194
0.00105194
0.00102676
0.00102676
0.00105379
0.00102485
0.00105193
0.00105195
0.00102677
0.00102678
0.00105191
0.00102676
0.00102673
0.0010538
0.00102484
0.00105191
0.00102674
0.00102672
0.00102482
0.00102035
0.000990897
0.00101843
0.00101843
0.000993054
0.000993065
0.00102034
0.000990921
0.00101844
0.00101844
0.000993047
0.000993035
0.00101841
0.000993076
0.000993076
0.00102033
0.000990896
0.00101839
0.00099305
0.00099307
0.00099093
0.000986121
0.000955783
0.000984292
0.000984309
0.000957931
0.000957937
0.000986147
0.000955785
0.000984283
0.00098427
0.000957933
0.000957927
0.000984331
0.000957932
0.000957939
0.000986123
0.000955785
0.000984331
0.000957931
0.000957949
0.000955791
0.000951016
0.000920804
0.000949168
0.000949171
0.000922744
0.00092274
0.000951016
0.000920797
0.00094917
0.000949167
0.000922748
0.000922752
0.000949172
0.000922741
0.000922745
0.000951018
0.000920812
0.000949181
0.00092275
0.000922749
0.0009208
0.000916088
0.000886522
0.000913989
0.000913983
0.000888271
0.000888267
0.00091608
0.000886517
0.000913993
0.000913998
0.000888273
0.000888276
0.000913987
0.000888264
0.000888268
0.000916096
0.000886526
0.000913991
0.000888277
0.000888268
0.000886518
0.00088193
0.000853163
0.000879827
0.000879822
0.000854937
0.000854935
0.000881923
0.000853162
0.000879831
0.000879834
0.000854936
0.000854937
0.000879827
0.000854933
0.000854935
0.000881936
0.000853161
0.000879823
0.000854935
0.000854932
0.00085316
0.000848691
0.000819965
0.000846764
0.000846763
0.000822097
0.000822102
0.000848691
0.00081997
0.000846761
0.000846761
0.000822096
0.000822092
0.000846761
0.000822102
0.000822097
0.000848688
0.000819965
0.000846759
0.000822096
0.000822099
0.000819968
0.000815556
0.000787849
0.000813966
0.000813971
0.000789935
0.000789936
0.000815559
0.000787848
0.000813966
0.000813963
0.000789936
0.000789937
0.000813967
0.000789936
0.000789936
0.000815556
0.000787849
0.00081397
0.000789938
0.000789939
0.000787849
0.000783413
0.000753767
0.000781769
0.000781769
0.000755988
0.000755987
0.000783412
0.000753765
0.00078177
0.000781771
0.00075599
0.00075599
0.00078177
0.000755987
0.000755989
0.000783414
0.000753767
0.000781772
0.00075599
0.00075599
0.000753767
0.000748809
0.000715755
0.000746893
0.000746894
0.000718136
0.000718134
0.000748808
0.000715751
0.000746894
0.000746897
0.000718138
0.000718142
0.000746894
0.000718133
0.000718134
0.00074881
0.000715758
0.000746895
0.000718141
0.000718139
0.000715753
0.000710341
0.000676586
0.000708171
0.000708168
0.000678464
0.000678462
0.000710337
0.000676586
0.000708172
0.000708175
0.000678463
0.000678464
0.00070817
0.000678463
0.000678464
0.000710344
0.000676586
0.000708172
0.000678462
0.000678462
0.000676586
0.000671237
0.000637705
0.000668654
0.000668653
0.000639561
0.000639561
0.000671236
0.000637707
0.000668653
0.000668654
0.00063956
0.000639561
0.000668654
0.000639563
0.000639563
0.000671237
0.000637704
0.000668653
0.000639561
0.000639562
0.000637705
0.000632561
0.000600948
0.000630125
0.000630123
0.000602878
0.00060288
0.000632563
0.000600947
0.000630122
0.000630122
0.000602885
0.000602884
0.000630127
0.000602882
0.000602879
0.000632561
0.000600952
0.000630126
0.000602886
0.000602885
0.000600949
0.000596221
0.000567202
0.00059422
0.000594215
0.00056923
0.000569241
0.000596218
0.000567201
0.000594218
0.000594223
0.000569244
0.000569245
0.00059422
0.000569232
0.000569232
0.000596225
0.000567207
0.000594222
0.000569246
0.000569245
0.000567204
0.000562817
0.000536649
0.000561193
0.000561193
0.000538446
0.000538445
0.000562812
0.000536649
0.000561196
0.000561195
0.000538446
0.000538446
0.000561192
0.000538446
0.000538446
0.00056282
0.00053665
0.000561195
0.000538447
0.000538446
0.000536649
0.000532753
0.000507624
0.000531238
0.000531237
0.000509403
0.000509408
0.000532753
0.000507624
0.000531237
0.000531238
0.000509407
0.000509409
0.000531238
0.000509402
0.000509403
0.000532754
0.000507625
0.000531238
0.000509408
0.000509407
0.000507623
0.000503501
0.000475974
0.00050184
0.000501841
0.000477909
0.000477909
0.000503499
0.000475974
0.000501842
0.000501843
0.000477908
0.000477909
0.000501841
0.000477909
0.000477909
0.000503501
0.000475974
0.000501841
0.00047791
0.000477908
0.000475974
0.000471428
0.000441718
0.000469565
0.000469565
0.000443739
0.000443738
0.000471428
0.000441718
0.000469565
0.000469566
0.000443738
0.000443738
0.000469566
0.000443739
0.000443739
0.000471428
0.000441717
0.000469565
0.000443739
0.000443739
0.000441718
0.000436928
0.000406106
0.000434935
0.000434935
0.000408163
0.000408163
0.000436928
0.000406106
0.000434935
0.000434935
0.000408163
0.000408163
0.000434935
0.000408163
0.000408163
0.000436928
0.000406106
0.000434935
0.000408163
0.000408163
0.000406105
0.00040121
0.000369907
0.000399156
0.000399156
0.00037198
0.00037198
0.00040121
0.000369907
0.000399156
0.000399156
0.00037198
0.00037198
0.000399156
0.00037198
0.00037198
0.00040121
0.000369907
0.000399156
0.00037198
0.00037198
0.000369907
0.000364968
0.000333474
0.000362887
0.000362887
0.000335551
0.000335551
0.000364968
0.000333474
0.000362887
0.000362887
0.000335551
0.000335551
0.000362887
0.000335551
0.000335551
0.000364968
0.000333474
0.000362887
0.000335551
0.000335551
0.000333474
0.000328519
0.00029697
0.00032643
0.00032643
0.00029905
0.00029905
0.000328519
0.00029697
0.00032643
0.00032643
0.00029905
0.00029905
0.00032643
0.00029905
0.00029905
0.000328519
0.00029697
0.00032643
0.00029905
0.00029905
0.00029697
0.000292012
0.000260441
0.000289921
0.000289921
0.000262521
0.000262521
0.000292011
0.000260441
0.000289921
0.000289921
0.000262521
0.000262521
0.000289921
0.000262521
0.000262521
0.000292012
0.000260441
0.000289921
0.000262521
0.000262521
0.000260441
0.000255479
0.000223906
0.000253388
0.000253388
0.000225985
0.000225985
0.000255479
0.000223907
0.000253388
0.000253388
0.000225985
0.000225985
0.000253388
0.000225985
0.000225986
0.000255479
0.000223906
0.000253388
0.000225985
0.000225985
0.000223906
0.000218944
0.000187378
0.000216856
0.000216856
0.000189455
0.000189455
0.000218944
0.000187378
0.000216856
0.000216856
0.000189455
0.000189455
0.000216856
0.000189455
0.000189455
0.000218944
0.000187377
0.000216856
0.000189455
0.000189455
0.000187378
0.000182411
0.000150842
0.000180326
0.000180325
0.000152917
0.000152917
0.000182411
0.000150843
0.000180325
0.000180325
0.000152917
0.000152917
0.000180326
0.000152918
0.000152918
0.000182411
0.000150842
0.000180325
0.000152917
0.000152917
0.000150842
0.000145867
0.000114312
0.00014379
0.00014379
0.000116382
0.000116382
0.000145867
0.000114312
0.00014379
0.00014379
0.000116382
0.000116382
0.00014379
0.000116382
0.000116382
0.000145867
0.000114311
0.00014379
0.000116382
0.000116382
0.000114312
0.000109317
7.77652e-05
0.000107255
0.000107255
7.98313e-05
7.9831e-05
0.000109317
7.7766e-05
0.000107255
0.000107254
7.98306e-05
7.98304e-05
0.000107255
7.9831e-05
7.98303e-05
0.000109317
7.77642e-05
0.000107255
7.98304e-05
7.98305e-05
7.77644e-05
7.2733e-05
4.12575e-05
7.07044e-05
7.07041e-05
4.33205e-05
4.33214e-05
7.27326e-05
4.1259e-05
7.07035e-05
7.0703e-05
4.33188e-05
4.3318e-05
7.07035e-05
4.332e-05
4.33178e-05
7.27324e-05
4.12549e-05
7.07033e-05
4.33174e-05
4.33165e-05
4.12547e-05
3.62532e-05
8.62098e-06
3.43732e-05
3.43738e-05
1.16417e-05
1.16414e-05
3.62537e-05
8.62125e-06
3.43717e-05
3.43698e-05
1.16425e-05
1.16362e-05
3.4369e-05
1.16416e-05
1.16346e-05
3.62503e-05
8.61772e-06
3.43683e-05
1.16397e-05
1.16399e-05
8.61649e-06
5.38124e-06
7.11726e-06
7.11703e-06
5.38235e-06
7.11753e-06
7.11349e-06
6.20763e-06
6.20728e-06
6.20637e-06
7.11266e-06
5.38009e-06
7.11636e-06
0.00353407
0.00353669
0.00353539
0.00353547
0.00356291
0.00353651
0.00356604
0.00353676
0.00356289
0.00353668
0.0035368
0.00356618
0.00354746
0.00356926
0.00356936
0.00350672
0.00352005
0.00352424
0.00349909
0.00349708
0.00350228
0.0035067
0.00352034
0.00352445
0.00349901
0.00352249
0.00352261
0.00352249
0.00349589
0.00349586
0.0034959
0.00349588
0.00350621
0.00351797
0.00352307
0.00351363
0.00352523
0.00350326
0.00351396
0.00349605
0.00350261
0.00350627
0.00352314
0.00351783
0.00351377
0.00352521
0.00351402
0.00350358
0.00352387
0.00352388
0.00351097
0.00350326
0.00350333
0.00347885
0.0034929
0.00349295
0.00347677
0.00349029
0.00347582
0.00347879
0.00349317
0.00349295
0.00347679
0.00348677
0.00348672
0.00348678
0.00345846
0.00345848
0.00345844
0.00345855
0.00347665
0.00349161
0.00348528
0.00347589
0.00349003
0.00347711
0.00347578
0.00349078
0.00347537
0.00347662
0.00348526
0.00349159
0.00347583
0.00349006
0.00347574
0.00347713
0.00349341
0.00349337
0.00347431
0.00347752
0.00347751
0.00343612
0.00345087
0.00345193
0.00343497
0.00344986
0.00343409
0.00343612
0.0034509
0.0034518
0.00343492
0.00344843
0.00344839
0.00344846
0.00341582
0.00341582
0.0034158
0.00341586
0.00343511
0.00345064
0.00344652
0.00343608
0.00344962
0.00343549
0.00343604
0.00345015
0.00343421
0.00343503
0.00344647
0.00345054
0.0034359
0.00344956
0.00343598
0.00343547
0.0034514
0.00345134
0.00343336
0.0034353
0.0034353
0.00338991
0.00340629
0.0034078
0.00338849
0.00340563
0.00338799
0.00338987
0.00340634
0.00340773
0.00338848
0.00340423
0.00340423
0.00340426
0.00336819
0.00336815
0.00336816
0.00336818
0.00338909
0.00340622
0.00340253
0.0033908
0.00340563
0.00338918
0.00339077
0.00340604
0.00338803
0.00338907
0.00340252
0.00340616
0.00339065
0.00340562
0.00339073
0.0033893
0.00340646
0.00340642
0.00338747
0.00338861
0.00338868
0.00334083
0.003358
0.00335935
0.00333964
0.00335759
0.00333933
0.00334092
0.00335802
0.00335933
0.00333965
0.00335593
0.00335596
0.00335596
0.0033193
0.00331927
0.00331929
0.00331929
0.00334045
0.00335807
0.00335447
0.00334225
0.00335765
0.00334049
0.00334224
0.00335761
0.00333941
0.00334048
0.00335449
0.00335796
0.00334227
0.00335765
0.00334228
0.00334064
0.00335804
0.00335804
0.00333892
0.00333979
0.00333978
0.00329186
0.00330908
0.00331005
0.00329096
0.0033088
0.00329073
0.00329184
0.00330906
0.00331002
0.00329094
0.00330711
0.00330712
0.00330713
0.00327104
0.00327101
0.00327101
0.00327103
0.00329177
0.00330903
0.00330572