/*--------------------------------*- C++ -*----------------------------------*\
| =========                 |                                                 |
| \\      /  F ield         | OpenFOAM: The Open Source CFD Toolbox           |
|  \\    /   O peration     | Version:  v2012                                 |
|   \\  /    A nd           | Website:  www.openfoam.com                      |
|    \\/     M anipulation  |                                                 |
\*---------------------------------------------------------------------------*/
FoamFile
{
    version     2.0;
    format      ascii;
    class       volScalarField;
    location    "225";
    object      epsilon;
}
// * * * * * * * * * * * * * * * * * * * * * * * * * * * * * * * * * * * * * //

dimensions      [0 2 -3 0 0 0 0];


internalField   nonuniform List<scalar> 
171728
(
8.40134e-09
1.36284e-08
4.80999e-09
4.95471e-09
8.36244e-09
1.38788e-08
4.89106e-09
4.49203e-09
8.43525e-09
1.38774e-08
5.04408e-09
4.08825e-09
8.49855e-09
1.18041e-08
5.35309e-09
3.75158e-09
8.55718e-09
7.52961e-09
5.45384e-09
3.46511e-09
8.56859e-09
4.87146e-09
5.0425e-09
3.22011e-09
8.60054e-09
3.75395e-09
4.34886e-09
3.01226e-09
8.68395e-09
3.07517e-09
3.82213e-09
2.83932e-09
8.79353e-09
2.70588e-09
3.45909e-09
2.70322e-09
8.92864e-09
2.60153e-09
3.18039e-09
2.60341e-09
9.08446e-09
2.62383e-09
3.03929e-09
2.53811e-09
9.25215e-09
2.70542e-09
3.03356e-09
2.51352e-09
9.42233e-09
2.84042e-09
3.10045e-09
2.52859e-09
9.59781e-09
3.03779e-09
3.24887e-09
2.59495e-09
9.78111e-09
3.31448e-09
3.50819e-09
2.73944e-09
9.97538e-09
3.70954e-09
3.89287e-09
3.01568e-09
1.01774e-08
4.29658e-09
4.45448e-09
3.51632e-09
1.03924e-08
5.09707e-09
5.31805e-09
4.43373e-09
1.06188e-08
6.44885e-09
6.48736e-09
5.8849e-09
1.0862e-08
8.01075e-09
8.38861e-09
8.8216e-09
1.11248e-08
1.1104e-08
1.09055e-08
1.22134e-08
1.14175e-08
1.44939e-08
1.45749e-08
1.86858e-08
1.17446e-08
1.93507e-08
1.98533e-08
3.48856e-08
1.21257e-08
2.68236e-08
2.6637e-08
4.73305e-08
1.25596e-08
3.63238e-08
3.70335e-08
8.29499e-08
1.31342e-08
4.68562e-08
4.63438e-08
1.07114e-07
1.37927e-08
6.30078e-08
6.45759e-08
1.80298e-07
1.4612e-08
8.07935e-08
7.89586e-08
2.28208e-07
1.5698e-08
9.96347e-08
1.00517e-07
2.98396e-07
1.70484e-08
1.24545e-07
1.25036e-07
3.84475e-07
1.87482e-08
1.52417e-07
1.52046e-07
4.60979e-07
2.08679e-08
1.82879e-07
1.83701e-07
5.41199e-07
2.35422e-08
2.16787e-07
2.17058e-07
6.09091e-07
2.68502e-08
2.55399e-07
2.54342e-07
6.76047e-07
3.09868e-08
2.94225e-07
2.95052e-07
7.31867e-07
3.58675e-08
3.37748e-07
3.36769e-07
7.83812e-07
4.21084e-08
3.83569e-07
3.81709e-07
8.29672e-07
4.92158e-08
4.29761e-07
4.2896e-07
8.68148e-07
5.80935e-08
4.78176e-07
4.75382e-07
9.08335e-07
6.78432e-08
5.27192e-07
5.26263e-07
9.41548e-07
8.01365e-08
5.76765e-07
5.76886e-07
9.74594e-07
9.35847e-08
6.22346e-07
6.20731e-07
1.00683e-06
1.08219e-07
6.6769e-07
6.68664e-07
1.03472e-06
1.24862e-07
7.10783e-07
7.12751e-07
1.05801e-06
1.43674e-07
7.52398e-07
7.53589e-07
1.08197e-06
1.63812e-07
7.84575e-07
7.8658e-07
1.10113e-06
1.85832e-07
8.18009e-07
8.19094e-07
1.12167e-06
2.17514e-07
8.61438e-07
8.61261e-07
1.15601e-06
2.46046e-07
8.83816e-07
8.83254e-07
1.17067e-06
2.57579e-07
8.83904e-07
8.83642e-07
1.15865e-06
2.57696e-07
8.68816e-07
8.68928e-07
1.1278e-06
2.59727e-07
8.63756e-07
8.64075e-07
1.10749e-06
2.81973e-07
8.78325e-07
8.7862e-07
1.11309e-06
3.27733e-07
9.11454e-07
9.11637e-07
1.14253e-06
3.87405e-07
9.58411e-07
9.58542e-07
1.19657e-06
4.38756e-07
9.97891e-07
9.98002e-07
1.2464e-06
4.69449e-07
1.02159e-06
1.02169e-06
1.27842e-06
4.83964e-07
1.0331e-06
1.0332e-06
1.2953e-06
4.89842e-07
1.03799e-06
1.03809e-06
1.30287e-06
4.92056e-07
1.03999e-06
1.04008e-06
1.30612e-06
4.92731e-07
1.04061e-06
1.04071e-06
1.30726e-06
4.92781e-07
1.04062e-06
1.04071e-06
1.3074e-06
4.92816e-07
1.04065e-06
1.04075e-06
1.3073e-06
4.92857e-07
1.04074e-06
1.04083e-06
1.30759e-06
4.92818e-07
1.04065e-06
1.04075e-06
1.30729e-06
4.9283e-07
1.0407e-06
1.04079e-06
1.30744e-06
4.92826e-07
1.04068e-06
1.04077e-06
1.30746e-06
4.92822e-07
1.04068e-06
1.04077e-06
1.30741e-06
4.92822e-07
1.04068e-06
1.04077e-06
1.30746e-06
4.92821e-07
1.04068e-06
1.04077e-06
1.30743e-06
4.92818e-07
1.04067e-06
1.04077e-06
1.30741e-06
4.92817e-07
1.04068e-06
1.04077e-06
1.3075e-06
4.92816e-07
1.04068e-06
1.04077e-06
1.30736e-06
4.92814e-07
1.04067e-06
1.04077e-06
1.30743e-06
4.92813e-07
1.04068e-06
1.04077e-06
1.30751e-06
4.92812e-07
1.04068e-06
1.04077e-06
1.30745e-06
4.92811e-07
1.04067e-06
1.04077e-06
1.30736e-06
4.9281e-07
1.04067e-06
1.04077e-06
1.30741e-06
4.9281e-07
1.04068e-06
1.04077e-06
1.30749e-06
4.92811e-07
1.04068e-06
1.04077e-06
1.30746e-06
4.92811e-07
1.04067e-06
1.04077e-06
1.30738e-06
4.9281e-07
1.04068e-06
1.04077e-06
1.30743e-06
4.92809e-07
1.04068e-06
1.04077e-06
1.30751e-06
4.92807e-07
1.04068e-06
1.04076e-06
1.30739e-06
4.92807e-07
1.04068e-06
1.04077e-06
1.30741e-06
4.92807e-07
1.04068e-06
1.04077e-06
1.30749e-06
4.92808e-07
1.04068e-06
1.04077e-06
1.30738e-06
4.9281e-07
1.04069e-06
1.04078e-06
1.30733e-06
4.92811e-07
1.0407e-06
1.04078e-06
1.3074e-06
4.92814e-07
1.0407e-06
1.0408e-06
1.30745e-06
4.92817e-07
1.04072e-06
1.04081e-06
1.30745e-06
4.92823e-07
1.04075e-06
1.04084e-06
1.30743e-06
4.9282e-07
1.0408e-06
1.04089e-06
1.30741e-06
4.92258e-07
1.04048e-06
1.04057e-06
1.30709e-06
4.72903e-07
9.81767e-07
9.81766e-07
1.26288e-06
5.05122e-09
4.18869e-09
5.46212e-09
4.81805e-09
5.39614e-09
4.8671e-09
8.51697e-09
9.23879e-09
8.42073e-09
8.34845e-09
6.9506e-09
4.20027e-09
4.8284e-09
4.07727e-09
4.19668e-09
4.98297e-09
5.00051e-09
4.65976e-09
4.87199e-09
8.82238e-09
4.53137e-09
8.32857e-09
4.7487e-09
4.75201e-09
6.78179e-09
7.61332e-09
6.65946e-09
7.08352e-09
4.74576e-09
1.38392e-08
4.45267e-09
4.77379e-09
4.47128e-09
4.73005e-09
4.85442e-09
4.44919e-09
4.52607e-09
4.5945e-09
4.35046e-09
4.42588e-09
8.2181e-09
4.14984e-09
8.09331e-09
4.71463e-09
4.94993e-09
6.62639e-09
6.8845e-09
6.52546e-09
6.06035e-09
4.3573e-09
1.3915e-08
4.09352e-09
4.41003e-09
4.16991e-09
4.35724e-09
4.9858e-09
4.1018e-09
4.11702e-09
4.29667e-09
4.10443e-09
4.06626e-09
8.10258e-09
3.83462e-09
8.33186e-09
4.91026e-09
4.95738e-09
6.49053e-09
5.74142e-09
6.35302e-09
4.87684e-09
4.01113e-09
1.2672e-08
3.78242e-09
4.10927e-09
3.92227e-09
4.02218e-09
5.28489e-09
3.80034e-09
3.77604e-09
4.059e-09
3.89827e-09
3.76326e-09
8.4322e-09
3.56673e-09
8.77145e-09
4.86957e-09
4.59546e-09
6.31134e-09
4.64249e-09
6.12811e-09
4.07827e-09
3.71206e-09
8.5641e-09
3.51704e-09
3.88154e-09
3.72964e-09
3.73198e-09
5.45307e-09
3.53994e-09
3.48617e-09
3.85561e-09
3.64381e-09
3.50728e-09
8.8439e-09
3.34639e-09
8.79926e-09
4.53669e-09
4.39885e-09
6.00644e-09
3.9223e-09
5.43465e-09
3.52244e-09
3.45722e-09
5.3224e-09
3.29482e-09
3.68514e-09
3.43315e-09
3.48127e-09
5.20405e-09
3.32095e-09
3.23754e-09
3.58574e-09
3.26682e-09
3.29743e-09
8.54866e-09
3.17026e-09
7.51949e-09
4.30888e-09
3.74963e-09
5.20585e-09
3.40813e-09
4.53823e-09
3.10946e-09
3.24684e-09
3.97671e-09
3.11898e-09
3.38712e-09
3.15211e-09
3.27282e-09
4.51676e-09
3.14789e-09
3.02602e-09
3.24633e-09
3.06886e-09
3.1344e-09
7.17141e-09
3.04412e-09
6.20871e-09
3.62891e-09
3.23688e-09
4.34262e-09
3.02509e-09
3.89839e-09
2.8187e-09
3.08238e-09
3.21498e-09
2.98623e-09
3.13348e-09
2.9383e-09
3.11291e-09
3.93117e-09
3.02366e-09
2.84913e-09
3.05638e-09
2.90133e-09
3.02055e-09
5.92589e-09
2.96804e-09
5.17452e-09
3.20675e-09
2.94421e-09
3.79336e-09
2.76688e-09
3.54197e-09
2.65446e-09
2.96073e-09
2.76976e-09
2.89697e-09
2.92363e-09
2.74586e-09
3.00136e-09
3.54379e-09
2.9493e-09
2.70875e-09
2.89127e-09
2.73921e-09
2.95521e-09
4.9475e-09
2.93174e-09
4.31842e-09
2.92226e-09
2.66865e-09
3.46942e-09
2.63277e-09
3.25703e-09
2.60041e-09
2.88038e-09
2.60771e-09
2.84654e-09
2.73533e-09
2.59648e-09
2.93636e-09
3.23849e-09
2.91575e-09
2.60448e-09
2.73053e-09
2.58804e-09
2.92866e-09
4.13313e-09
2.93505e-09
3.70936e-09
2.65023e-09
2.48028e-09
3.189e-09
2.60031e-09
3.00928e-09
2.61111e-09
2.84079e-09
2.61326e-09
2.83765e-09
2.59329e-09
2.51511e-09
2.91579e-09
3.06109e-09
2.92709e-09
2.53517e-09
2.58771e-09
2.52774e-09
2.94167e-09
3.6069e-09
2.98325e-09
3.39657e-09
2.47801e-09
2.42059e-09
2.96294e-09
2.62285e-09
2.88147e-09
2.6792e-09
2.84093e-09
2.68358e-09
2.86927e-09
2.51806e-09
2.48094e-09
2.93688e-09
3.02936e-09
2.98103e-09
2.50279e-09
2.53744e-09
2.52911e-09
3.00255e-09
3.35685e-09
3.0821e-09
3.29105e-09
2.42903e-09
2.41017e-09
2.87371e-09
2.70589e-09
2.88426e-09
2.80313e-09
2.88414e-09
2.80571e-09
2.94747e-09
2.49207e-09
2.49342e-09
3.00158e-09
3.07998e-09
3.07872e-09
2.50838e-09
2.54912e-09
2.59025e-09
3.11312e-09
3.28771e-09
3.23849e-09
3.29985e-09
2.42751e-09
2.45315e-09
2.91182e-09
2.84306e-09
3.0265e-09
2.98495e-09
2.97615e-09
2.98536e-09
3.08438e-09
2.51492e-09
2.55764e-09
3.11217e-09
3.2051e-09
3.23391e-09
2.56159e-09
2.62709e-09
2.72674e-09
3.28607e-09
3.30985e-09
3.47179e-09
3.42269e-09
2.4844e-09
2.58695e-09
3.07536e-09
3.04251e-09
3.26881e-09
3.24327e-09
3.13031e-09
3.23877e-09
3.29534e-09
2.59502e-09
2.6964e-09
3.28358e-09
3.43564e-09
3.46797e-09
2.68317e-09
2.79017e-09
2.988e-09
3.54538e-09
3.46201e-09
3.81781e-09
3.66632e-09
2.64194e-09
2.7888e-09
3.34843e-09
3.32437e-09
3.63901e-09
3.61226e-09
3.36556e-09
3.59501e-09
3.62404e-09
2.75994e-09
2.94452e-09
3.54117e-09
3.78465e-09
3.81617e-09
2.91799e-09
3.08927e-09
3.41463e-09
3.92533e-09
3.79039e-09
4.32081e-09
4.21725e-09
2.89818e-09
3.27612e-09
3.752e-09
3.73106e-09
4.16062e-09
4.1433e-09
3.72908e-09
4.14346e-09
4.1238e-09
3.05158e-09
3.38621e-09
3.92143e-09
4.30106e-09
4.33254e-09
3.34314e-09
3.58768e-09
4.16085e-09
4.48573e-09
4.35918e-09
5.07978e-09
4.8818e-09
3.43269e-09
3.89308e-09
4.32916e-09
4.31047e-09
4.92356e-09
4.93082e-09
4.28537e-09
4.8682e-09
4.9026e-09
3.53746e-09
4.1809e-09
4.49499e-09
5.07174e-09
5.08836e-09
4.12063e-09
4.44818e-09
5.4102e-09
5.32096e-09
5.07753e-09
6.18447e-09
5.93517e-09
4.15222e-09
5.27356e-09
5.17214e-09
5.19244e-09
6.04772e-09
6.02496e-09
5.15052e-09
6.04153e-09
5.92981e-09
4.48e-09
5.33358e-09
5.35114e-09
6.14116e-09
6.16346e-09
5.27878e-09
5.86638e-09
7.74163e-09
6.5411e-09
6.349e-09
7.86057e-09
7.50403e-09
5.8679e-09
7.21037e-09
6.40379e-09
6.36746e-09
7.74414e-09
7.73138e-09
6.39303e-09
7.57952e-09
7.88722e-09
5.7629e-09
7.68343e-09
6.60247e-09
7.83885e-09
8.01238e-09
8.47164e-09
8.52085e-09
1.1293e-08
8.37817e-09
7.93092e-09
1.01876e-08
1.02791e-08
7.72525e-09
1.24629e-08
8.26723e-09
8.30343e-09
1.00403e-08
9.98258e-09
8.19524e-09
1.03627e-08
9.78557e-09
8.59399e-09
1.10996e-08
8.3517e-09
1.00911e-08
1.00258e-08
1.05662e-08
1.26114e-08
1.77996e-08
1.09643e-08
1.10307e-08
1.35695e-08
1.31457e-08
1.40856e-08
1.67205e-08
1.08122e-08
1.07854e-08
1.34358e-08
1.35599e-08
1.07025e-08
1.3226e-08
1.31332e-08
1.23125e-08
1.85135e-08
1.09499e-08
1.36754e-08
1.33457e-08
1.69397e-08
1.98264e-08
2.90222e-08
1.46362e-08
1.43784e-08
1.84968e-08
1.81669e-08
1.8873e-08
2.96903e-08
1.4511e-08
1.451e-08
1.83357e-08
1.83397e-08
1.42458e-08
1.82612e-08
1.89199e-08
1.99458e-08
2.96357e-08
1.44546e-08
1.84275e-08
1.89914e-08
3.28648e-08
3.26671e-08
4.44279e-08
2.01061e-08
1.93735e-08
2.448e-08
2.48167e-08
3.14411e-08
4.70275e-08
1.9929e-08
1.97201e-08
2.42517e-08
2.48956e-08
1.99262e-08
2.49832e-08
2.37893e-08
3.27759e-08
4.79324e-08
1.99993e-08
2.50514e-08
2.41785e-08
4.18568e-08
4.77679e-08
8.09008e-08
2.64213e-08
2.65514e-08
3.47289e-08
3.29216e-08
5.29083e-08
6.73816e-08
2.61922e-08
2.64538e-08
3.45977e-08
3.37431e-08
2.61674e-08
3.28985e-08
3.42433e-08
5.21841e-08
7.04219e-08
2.65208e-08
3.38331e-08
3.41391e-08
7.70898e-08
8.63635e-08
9.8406e-08
3.65392e-08
3.65419e-08
4.319e-08
4.47931e-08
7.50201e-08
1.14501e-07
3.64632e-08
3.70292e-08
4.29844e-08
4.3571e-08
3.63825e-08
4.49176e-08
4.27895e-08
8.08878e-08
1.0617e-07
3.63924e-08
4.36141e-08
4.30828e-08
9.9678e-08
1.08047e-07
1.75917e-07
4.74364e-08
4.65991e-08
6.06846e-08
5.73458e-08
1.18111e-07
1.471e-07
4.71524e-08
4.62221e-08
6.03829e-08
5.99887e-08
4.60401e-08
5.75034e-08
5.96642e-08
1.10868e-07
1.65981e-07
4.62995e-08
6.02724e-08
6.00282e-08
1.64775e-07
1.85083e-07
2.10207e-07
6.38205e-08
6.27293e-08
7.4144e-08
7.69943e-08
1.6444e-07
2.33213e-07
6.35342e-08
6.43944e-08
7.3908e-08
7.47179e-08
6.42128e-08
7.71208e-08
7.46328e-08
1.83579e-07
2.19054e-07
6.45772e-08
7.49302e-08
7.49233e-08
2.20417e-07
2.21469e-07
2.86173e-07
7.87732e-08
8.09303e-08
9.47391e-08
9.3342e-08
2.43841e-07
2.80886e-07
7.85564e-08
7.87154e-08
9.44198e-08
9.4745e-08
7.82856e-08
9.3899e-08
9.43045e-08
2.27432e-07
2.83478e-07
7.85044e-08
9.47104e-08
9.43054e-08
2.80007e-07
3.02749e-07
3.67547e-07
1.0039e-07
9.88223e-08
1.18438e-07
1.182e-07
2.94469e-07
3.64767e-07
1.0011e-07
1.00616e-07
1.18123e-07
1.18332e-07
1.00305e-07
1.18293e-07
1.18046e-07
3.01176e-07
3.68311e-07
1.00455e-07
1.18402e-07
1.18413e-07
3.69189e-07
3.83722e-07
4.46333e-07
1.24763e-07
1.24587e-07
1.44662e-07
1.44376e-07
3.82791e-07
4.46299e-07
1.24276e-07
1.24823e-07
1.44213e-07
1.45221e-07
1.24318e-07
1.44894e-07
1.44079e-07
3.84451e-07
4.4764e-07
1.24478e-07
1.45434e-07
1.44209e-07
4.44144e-07
4.62715e-07
5.23076e-07
1.51856e-07
1.51745e-07
1.74894e-07
1.75028e-07
4.62441e-07
5.23849e-07
1.51607e-07
1.51979e-07
1.74231e-07
1.74742e-07
1.51209e-07
1.75311e-07
1.75479e-07
4.63382e-07
5.23659e-07
1.51541e-07
1.74952e-07
1.75746e-07
5.25212e-07
5.38806e-07
5.93386e-07
1.82758e-07
1.82857e-07
2.07691e-07
2.07774e-07
5.39762e-07
5.93546e-07
1.81902e-07
1.83389e-07
2.07099e-07
2.09421e-07
1.83545e-07
2.0765e-07
2.06954e-07
5.40432e-07
5.96205e-07
1.83737e-07
2.09015e-07
2.07171e-07
5.9391e-07
6.08753e-07
6.59499e-07
2.16649e-07
2.16626e-07
2.44303e-07
2.44617e-07
6.0886e-07
6.60424e-07
2.16146e-07
2.17588e-07
2.43663e-07
2.44106e-07
2.15991e-07
2.45609e-07
2.45635e-07
6.10641e-07
6.58452e-07
2.16152e-07
2.44149e-07
2.45854e-07
6.61511e-07
6.73912e-07
7.18206e-07
2.53934e-07
2.54543e-07
2.84948e-07
2.84399e-07
6.74831e-07
7.17485e-07
2.53157e-07
2.54396e-07
2.83528e-07
2.85278e-07
2.55022e-07
2.84473e-07
2.84364e-07
6.73241e-07
7.19921e-07
2.55303e-07
2.85061e-07
2.84202e-07
7.18669e-07
7.315e-07
7.6964e-07
2.9514e-07
2.94141e-07
3.25372e-07
3.25848e-07
7.30516e-07
7.70028e-07
2.93796e-07
2.951e-07
3.24311e-07
3.26975e-07
2.94925e-07
3.26185e-07
3.25953e-07
7.32982e-07
7.69257e-07
2.94698e-07
3.25902e-07
3.2716e-07
7.71291e-07
7.82107e-07
8.18073e-07
3.36668e-07
3.37406e-07
3.72269e-07
3.71537e-07
7.82916e-07
8.18083e-07
3.35388e-07
3.38045e-07
3.70909e-07
3.70505e-07
3.36842e-07
3.72293e-07
3.72805e-07
7.81459e-07
8.16311e-07
3.3858e-07
3.70359e-07
3.73949e-07
8.18726e-07
8.29444e-07
8.5912e-07
3.83298e-07
3.82677e-07
4.16802e-07
4.17443e-07
8.29175e-07
8.59074e-07
3.82304e-07
3.82054e-07
4.16094e-07
4.18932e-07
3.84467e-07
4.18023e-07
4.17564e-07
8.27769e-07
8.59679e-07
3.85285e-07
4.16875e-07
4.19836e-07
8.57637e-07
8.69878e-07
8.99513e-07
4.2923e-07
4.29305e-07
4.67235e-07
4.6507e-07
8.69622e-07
8.97325e-07
4.28293e-07
4.30708e-07
4.6571e-07
4.64017e-07
4.29184e-07
4.65829e-07
4.66658e-07
8.7038e-07
8.97053e-07
4.31913e-07
4.6395e-07
4.67053e-07
8.98333e-07
9.09061e-07
9.32039e-07
4.79189e-07
4.77327e-07
5.13919e-07
5.14215e-07
9.07202e-07
9.33714e-07
4.7764e-07
4.75636e-07
5.12391e-07
5.1431e-07
4.79168e-07
5.15025e-07
5.14228e-07
9.06566e-07
9.34262e-07
4.78712e-07
5.12793e-07
5.15682e-07
9.32673e-07
9.4114e-07
9.67436e-07
5.25874e-07
5.26266e-07
5.63993e-07
5.62951e-07
9.43024e-07
9.67277e-07
5.24377e-07
5.27847e-07
5.6294e-07
5.66782e-07
5.25621e-07
5.64402e-07
5.6285e-07
9.4452e-07
9.69873e-07
5.28241e-07
5.65104e-07
5.65735e-07
9.65524e-07
9.7684e-07
9.99581e-07
5.76878e-07
5.75392e-07
6.13023e-07
6.11085e-07
9.76187e-07
9.98525e-07
5.76096e-07
5.7868e-07
6.12284e-07
6.11107e-07
5.759e-07
6.11385e-07
6.12282e-07
9.77906e-07
9.96903e-07
5.78207e-07
6.09752e-07
6.1354e-07
9.98661e-07
1.00722e-06
1.02653e-06
6.24355e-07
6.22455e-07
6.58242e-07
6.56941e-07
1.00635e-06
1.02639e-06
6.23323e-07
6.21642e-07
6.56551e-07
6.5605e-07
6.23664e-07
6.56098e-07
6.58423e-07
1.00469e-06
1.02668e-06
6.24679e-07
6.56302e-07
6.58195e-07
1.02724e-06
1.03416e-06
1.05297e-06
6.69589e-07
6.68624e-07
7.01635e-07
7.01674e-07
1.03416e-06
1.05317e-06
6.68088e-07
6.68331e-07
7.01299e-07
7.02551e-07
6.6997e-07
7.00546e-07
7.01229e-07
1.03497e-06
1.0547e-06
6.69318e-07
7.02655e-07
7.00182e-07
1.05162e-06
1.05966e-06
1.07565e-06
7.116e-07
7.11953e-07
7.41852e-07
7.42867e-07
1.05989e-06
1.07627e-06
7.11504e-07
7.12678e-07
7.41692e-07
7.42754e-07
7.10875e-07
7.41904e-07
7.4129e-07
1.06119e-06
1.07647e-06
7.09956e-07
7.43137e-07
7.40934e-07
1.07505e-06
1.08208e-06
1.09558e-06
7.52178e-07
7.53253e-07
7.77886e-07
7.78836e-07
1.08276e-06
1.09583e-06
7.51994e-07
7.53075e-07
7.77968e-07
7.78802e-07
7.51872e-07
7.77855e-07
7.77967e-07
1.08287e-06
1.09594e-06
7.51595e-07
7.79665e-07
7.77574e-07
1.09635e-06
1.10042e-06
1.11382e-06
7.84783e-07
7.85644e-07
8.08369e-07
8.08848e-07
1.10051e-06
1.11358e-06
7.85e-07
7.85654e-07
8.08798e-07
8.08833e-07
7.84866e-07
8.08041e-07
8.0856e-07
1.10054e-06
1.11306e-06
7.84481e-07
8.09526e-07
8.08418e-07
1.11429e-06
1.12122e-06
1.14816e-06
8.18273e-07
8.18587e-07
8.51329e-07
8.51196e-07
1.12097e-06
1.14794e-06
8.18687e-07
8.18546e-07
8.51593e-07
8.51162e-07
8.185e-07
8.51202e-07
8.51479e-07
1.1203e-06
1.14727e-06
8.18463e-07
8.51278e-07
8.51622e-07
1.14838e-06
1.15585e-06
1.16816e-06
8.61528e-07
8.61339e-07
8.81189e-07
8.81187e-07
1.15565e-06
1.16815e-06
8.61762e-07
8.61297e-07
8.81332e-07
8.80915e-07
8.61672e-07
8.81196e-07
8.81458e-07
1.15504e-06
1.16773e-06
8.61787e-07
8.80631e-07
8.81373e-07
1.16828e-06
1.17052e-06
1.15786e-06
8.83797e-07
8.83898e-07
8.85038e-07
8.85308e-07
1.17056e-06
1.1581e-06
8.83903e-07
8.83524e-07
8.85062e-07
8.84766e-07
8.84104e-07
8.85051e-07
8.85377e-07
1.17014e-06
1.15773e-06
8.83974e-07
8.84635e-07
8.85227e-07
1.15818e-06
1.15831e-06
1.1279e-06
8.83897e-07
8.84255e-07
8.72956e-07
8.73354e-07
1.15856e-06
1.1281e-06
8.83863e-07
8.83632e-07
8.7285e-07
8.72757e-07
8.84247e-07
8.7293e-07
8.73307e-07
1.15821e-06
1.12799e-06
8.84108e-07
8.72949e-07
8.7317e-07
1.12821e-06
1.12751e-06
1.10626e-06
8.68884e-07
8.69215e-07
8.63574e-07
8.63718e-07
1.12769e-06
1.10622e-06
8.68753e-07
8.68727e-07
8.63392e-07
8.63539e-07
8.6918e-07
8.63386e-07
8.63728e-07
1.12762e-06
1.10648e-06
8.6905e-07
8.63678e-07
8.63608e-07
1.10634e-06
1.10741e-06
1.10888e-06
8.63967e-07
8.64064e-07
8.73484e-07
8.73462e-07
1.10737e-06
1.10875e-06
8.63776e-07
8.63966e-07
8.73287e-07
8.73592e-07
8.64091e-07
8.73241e-07
8.7354e-07
1.10765e-06
1.10913e-06
8.63969e-07
8.73562e-07
8.73406e-07
1.10888e-06
1.11309e-06
1.13343e-06
8.78563e-07
8.78526e-07
9.01457e-07
9.01434e-07
1.11296e-06
1.13333e-06
8.7838e-07
8.78696e-07
9.01304e-07
9.01606e-07
8.78615e-07
9.01278e-07
9.01518e-07
1.11333e-06
1.13362e-06
8.7848e-07
9.01481e-07
9.01395e-07
1.13346e-06
1.1425e-06
1.18484e-06
9.11629e-07
9.11614e-07
9.46744e-07
9.46753e-07
1.14241e-06
1.18475e-06
9.11487e-07
9.11765e-07
9.46618e-07
9.46847e-07
9.11697e-07
9.46592e-07
9.4682e-07
1.14267e-06
1.18494e-06
9.11578e-07
9.46733e-07
9.46709e-07
1.1849e-06
1.19651e-06
1.23682e-06
9.58563e-07
9.58576e-07
9.89627e-07
9.89652e-07
1.19642e-06
1.23673e-06
9.58445e-07
9.58657e-07
9.89518e-07
9.89703e-07
9.58642e-07
9.89487e-07
9.89707e-07
1.19659e-06
1.23687e-06
9.58532e-07
9.89601e-07
9.89598e-07
1.23689e-06
1.24633e-06
1.27185e-06
9.9803e-07
9.98056e-07
1.01716e-06
1.01719e-06
1.24625e-06
1.27177e-06
9.97926e-07
9.98103e-07
1.01705e-06
1.01723e-06
9.98111e-07
1.01703e-06
1.01724e-06
1.24638e-06
1.27189e-06
9.98003e-07
1.01713e-06
1.01713e-06
1.27193e-06
1.27835e-06
1.29112e-06
1.02172e-06
1.02175e-06
1.03117e-06
1.03119e-06
1.27827e-06
1.29104e-06
1.02162e-06
1.02179e-06
1.03106e-06
1.03124e-06
1.0218e-06
1.03104e-06
1.03125e-06
1.27838e-06
1.29116e-06
1.0217e-06
1.03114e-06
1.03115e-06
1.2912e-06
1.29521e-06
1.29994e-06
1.03322e-06
1.03324e-06
1.03725e-06
1.03728e-06
1.29514e-06
1.29988e-06
1.03311e-06
1.03329e-06
1.03714e-06
1.03732e-06
1.03331e-06
1.03714e-06
1.03734e-06
1.29525e-06
1.29999e-06
1.0332e-06
1.03723e-06
1.03724e-06
1.30003e-06
1.30278e-06
1.30376e-06
1.0381e-06
1.03813e-06
1.03977e-06
1.03979e-06
1.30272e-06
1.3037e-06
1.038e-06
1.03817e-06
1.03966e-06
1.03984e-06
1.03819e-06
1.03966e-06
1.03986e-06
1.30282e-06
1.3038e-06
1.03809e-06
1.03975e-06
1.03975e-06
1.30385e-06
1.30603e-06
1.30516e-06
1.0401e-06
1.04013e-06
1.04065e-06
1.04068e-06
1.30597e-06
1.3051e-06
1.04e-06
1.04017e-06
1.04055e-06
1.04072e-06
1.04019e-06
1.04054e-06
1.04074e-06
1.30607e-06
1.3052e-06
1.04009e-06
1.04063e-06
1.04064e-06
1.30525e-06
1.30717e-06
1.30536e-06
1.04072e-06
1.04075e-06
1.04075e-06
1.04078e-06
1.30712e-06
1.30529e-06
1.04062e-06
1.04079e-06
1.04065e-06
1.04082e-06
1.04081e-06
1.04064e-06
1.04085e-06
1.30721e-06
1.3054e-06
1.04071e-06
1.04074e-06
1.04074e-06
1.30545e-06
1.3073e-06
1.30519e-06
1.04073e-06
1.04076e-06
1.04072e-06
1.04075e-06
1.30724e-06
1.30513e-06
1.04062e-06
1.0408e-06
1.04062e-06
1.04079e-06
1.04082e-06
1.04061e-06
1.04081e-06
1.30734e-06
1.30524e-06
1.04072e-06
1.04071e-06
1.04071e-06
1.30528e-06
1.30721e-06
1.30556e-06
1.04076e-06
1.04079e-06
1.04086e-06
1.04088e-06
1.30715e-06
1.3055e-06
1.04066e-06
1.04083e-06
1.04075e-06
1.04092e-06
1.04085e-06
1.04075e-06
1.04095e-06
1.30725e-06
1.3056e-06
1.04075e-06
1.04084e-06
1.04084e-06
1.30565e-06
1.3075e-06
1.30532e-06
1.04085e-06
1.04088e-06
1.04077e-06
1.0408e-06
1.30744e-06
1.30525e-06
1.04075e-06
1.04092e-06
1.04067e-06
1.04084e-06
1.04094e-06
1.04066e-06
1.04086e-06
1.30754e-06
1.30536e-06
1.04084e-06
1.04076e-06
1.04076e-06
1.3054e-06
1.3072e-06
1.30535e-06
1.04076e-06
1.04079e-06
1.04078e-06
1.04082e-06
1.30714e-06
1.30529e-06
1.04066e-06
1.04083e-06
1.04068e-06
1.04085e-06
1.04085e-06
1.04068e-06
1.04088e-06
1.30724e-06
1.3054e-06
1.04075e-06
1.04077e-06
1.04078e-06
1.30545e-06
1.30734e-06
1.30545e-06
1.0408e-06
1.04083e-06
1.04081e-06
1.04083e-06
1.30728e-06
1.30537e-06
1.0407e-06
1.04087e-06
1.0407e-06
1.04087e-06
1.0409e-06
1.04069e-06
1.0409e-06
1.30739e-06
1.30548e-06
1.0408e-06
1.04079e-06
1.04079e-06
1.30552e-06
1.30738e-06
1.30529e-06
1.04079e-06
1.04082e-06
1.04077e-06
1.0408e-06
1.30731e-06
1.30524e-06
1.04069e-06
1.04086e-06
1.04067e-06
1.04084e-06
1.04088e-06
1.04066e-06
1.04087e-06
1.30741e-06
1.30535e-06
1.04078e-06
1.04076e-06
1.04077e-06
1.3054e-06
1.30731e-06
1.30544e-06
1.04078e-06
1.04081e-06
1.0408e-06
1.04083e-06
1.30726e-06
1.30537e-06
1.04068e-06
1.04085e-06
1.04069e-06
1.04087e-06
1.04088e-06
1.04069e-06
1.04089e-06
1.30736e-06
1.30548e-06
1.04078e-06
1.04078e-06
1.04079e-06
1.30552e-06
1.30737e-06
1.30534e-06
1.04079e-06
1.04081e-06
1.04078e-06
1.04081e-06
1.3073e-06
1.30529e-06
1.04068e-06
1.04085e-06
1.04067e-06
1.04085e-06
1.04088e-06
1.04067e-06
1.04087e-06
1.3074e-06
1.30539e-06
1.04078e-06
1.04076e-06
1.04077e-06
1.30543e-06
1.30734e-06
1.3054e-06
1.04079e-06
1.04082e-06
1.04079e-06
1.04081e-06
1.30729e-06
1.30532e-06
1.04068e-06
1.04086e-06
1.04068e-06
1.04085e-06
1.04088e-06
1.04067e-06
1.04088e-06
1.30739e-06
1.30543e-06
1.04078e-06
1.04077e-06
1.04078e-06
1.30548e-06
1.30733e-06
1.3054e-06
1.04079e-06
1.04081e-06
1.04079e-06
1.04082e-06
1.30725e-06
1.30536e-06
1.04068e-06
1.04085e-06
1.04068e-06
1.04085e-06
1.04088e-06
1.04067e-06
1.04088e-06
1.30735e-06
1.30546e-06
1.04078e-06
1.04077e-06
1.04078e-06
1.30551e-06
1.30739e-06
1.30531e-06
1.04079e-06
1.04082e-06
1.04078e-06
1.04081e-06
1.30735e-06
1.30524e-06
1.04068e-06
1.04085e-06
1.04068e-06
1.04085e-06
1.04088e-06
1.04067e-06
1.04088e-06
1.30745e-06
1.30535e-06
1.04078e-06
1.04077e-06
1.04078e-06
1.3054e-06
1.30726e-06
1.30544e-06
1.04079e-06
1.04082e-06
1.04078e-06
1.04081e-06
1.30721e-06
1.30535e-06
1.04068e-06
1.04085e-06
1.04068e-06
1.04085e-06
1.04088e-06
1.04067e-06
1.04088e-06
1.30731e-06
1.30546e-06
1.04078e-06
1.04076e-06
1.04077e-06
1.30551e-06
1.30737e-06
1.30541e-06
1.04078e-06
1.04081e-06
1.04078e-06
1.04082e-06
1.30728e-06
1.30537e-06
1.04068e-06
1.04085e-06
1.04067e-06
1.04085e-06
1.04088e-06
1.04067e-06
1.04088e-06
1.30738e-06
1.30548e-06
1.04077e-06
1.04077e-06
1.04078e-06
1.30553e-06
1.3074e-06
1.30531e-06
1.04079e-06
1.04082e-06
1.04078e-06
1.04081e-06
1.30735e-06
1.30527e-06
1.04068e-06
1.04085e-06
1.04067e-06
1.04085e-06
1.04088e-06
1.04067e-06
1.04088e-06
1.30745e-06
1.30539e-06
1.04078e-06
1.04076e-06
1.04077e-06
1.30544e-06
1.3073e-06
1.30533e-06
1.04078e-06
1.04082e-06
1.04077e-06
1.04081e-06
1.30728e-06
1.30525e-06
1.04068e-06
1.04086e-06
1.04067e-06
1.04085e-06
1.04088e-06
1.04066e-06
1.04087e-06
1.30739e-06
1.30536e-06
1.04078e-06
1.04076e-06
1.04077e-06
1.30539e-06
1.30727e-06
1.30544e-06
1.04078e-06
1.04081e-06
1.04078e-06
1.04081e-06
1.30721e-06
1.30533e-06
1.04067e-06
1.04085e-06
1.04067e-06
1.04085e-06
1.04088e-06
1.04067e-06
1.04088e-06
1.30733e-06
1.30543e-06
1.04078e-06
1.04077e-06
1.04078e-06
1.30549e-06
1.30737e-06
1.30541e-06
1.04078e-06
1.04081e-06
1.04077e-06
1.04081e-06
1.30726e-06
1.30536e-06
1.04067e-06
1.04085e-06
1.04067e-06
1.04085e-06
1.04088e-06
1.04067e-06
1.04087e-06
1.30736e-06
1.30547e-06
1.04078e-06
1.04076e-06
1.04077e-06
1.30551e-06
1.3074e-06
1.30532e-06
1.04078e-06
1.04081e-06
1.04077e-06
1.04081e-06
1.30732e-06
1.30533e-06
1.04067e-06
1.04085e-06
1.04067e-06
1.04085e-06
1.04088e-06
1.04067e-06
1.04087e-06
1.30743e-06
1.30542e-06
1.04078e-06
1.04076e-06
1.04077e-06
1.30547e-06
1.30731e-06
1.30534e-06
1.04078e-06
1.04082e-06
1.04078e-06
1.0408e-06
1.30733e-06
1.30522e-06
1.04067e-06
1.04085e-06
1.04067e-06
1.04084e-06
1.04088e-06
1.04066e-06
1.04087e-06
1.30742e-06
1.30536e-06
1.04077e-06
1.04076e-06
1.04077e-06
1.30539e-06
1.3073e-06
1.30536e-06
1.04078e-06
1.04081e-06
1.04077e-06
1.04081e-06
1.30718e-06
1.30539e-06
1.04068e-06
1.04085e-06
1.04066e-06
1.04084e-06
1.04088e-06
1.04067e-06
1.04087e-06
1.30734e-06
1.3054e-06
1.04077e-06
1.04076e-06
1.04077e-06
1.30551e-06
1.30728e-06
1.30546e-06
1.04078e-06
1.04081e-06
1.04077e-06
1.0408e-06
1.30732e-06
1.30531e-06
1.04067e-06
1.04085e-06
1.04066e-06
1.04084e-06
1.04088e-06
1.04066e-06
1.04087e-06
1.30733e-06
1.30543e-06
1.04078e-06
1.04075e-06
1.04076e-06
1.30552e-06
1.30744e-06
1.30531e-06
1.04078e-06
1.04081e-06
1.04076e-06
1.04079e-06
1.3073e-06
1.30532e-06
1.04068e-06
1.04085e-06
1.04065e-06
1.04083e-06
1.04088e-06
1.04066e-06
1.04086e-06
1.30739e-06
1.30538e-06
1.04078e-06
1.04074e-06
1.04076e-06
1.30541e-06
1.30727e-06
1.30541e-06
1.04077e-06
1.04081e-06
1.04076e-06
1.04079e-06
1.30728e-06
1.30534e-06
1.04067e-06
1.04085e-06
1.04065e-06
1.04083e-06
1.04088e-06
1.04066e-06
1.04086e-06
1.30731e-06
1.30548e-06
1.04077e-06
1.04074e-06
1.04075e-06
1.30547e-06
1.30739e-06
1.30528e-06
1.04078e-06
1.04081e-06
1.04075e-06
1.04078e-06
1.30733e-06
1.30523e-06
1.04068e-06
1.04085e-06
1.04065e-06
1.04082e-06
1.04088e-06
1.04065e-06
1.04085e-06
1.30744e-06
1.30535e-06
1.04077e-06
1.04073e-06
1.04075e-06
1.30551e-06
1.30728e-06
1.30533e-06
1.04078e-06
1.04081e-06
1.04075e-06
1.04078e-06
1.30721e-06
1.3053e-06
1.04068e-06
1.04085e-06
1.04064e-06
1.04082e-06
1.04088e-06
1.04064e-06
1.04084e-06
1.30735e-06
1.30539e-06
1.04078e-06
1.04073e-06
1.04074e-06
1.30538e-06
1.30724e-06
1.30546e-06
1.04079e-06
1.04082e-06
1.04074e-06
1.04077e-06
1.30722e-06
1.30538e-06
1.04068e-06
1.04086e-06
1.04064e-06
1.04082e-06
1.04088e-06
1.04064e-06
1.04084e-06
1.30731e-06
1.30548e-06
1.04078e-06
1.04073e-06
1.04073e-06
1.30539e-06
1.30738e-06
1.3054e-06
1.04079e-06
1.04082e-06
1.04074e-06
1.04076e-06
1.30733e-06
1.30532e-06
1.04069e-06
1.04087e-06
1.04063e-06
1.0408e-06
1.04088e-06
1.04062e-06
1.04083e-06
1.30744e-06
1.30537e-06
1.04078e-06
1.04071e-06
1.04072e-06
1.30548e-06
1.30741e-06
1.30531e-06
1.0408e-06
1.04083e-06
1.04072e-06
1.04075e-06
1.30733e-06
1.30523e-06
1.0407e-06
1.04087e-06
1.04062e-06
1.04079e-06
1.04089e-06
1.04061e-06
1.04081e-06
1.30736e-06
1.30538e-06
1.04078e-06
1.04071e-06
1.04071e-06
1.3055e-06
1.30731e-06
1.30532e-06
1.04081e-06
1.04084e-06
1.04071e-06
1.04074e-06
1.30724e-06
1.30525e-06
1.04071e-06
1.04088e-06
1.04061e-06
1.04078e-06
1.0409e-06
1.0406e-06
1.0408e-06
1.30733e-06
1.30541e-06
1.0408e-06
1.04069e-06
1.04069e-06
1.30548e-06
1.30729e-06
1.30535e-06
1.04083e-06
1.04086e-06
1.0407e-06
1.04073e-06
1.30722e-06
1.30528e-06
1.04073e-06
1.0409e-06
1.04059e-06
1.04077e-06
1.04092e-06
1.04059e-06
1.04079e-06
1.30735e-06
1.30543e-06
1.04082e-06
1.04068e-06
1.04068e-06
1.30545e-06
1.30731e-06
1.30537e-06
1.04086e-06
1.04089e-06
1.04069e-06
1.04072e-06
1.30723e-06
1.30531e-06
1.04076e-06
1.04093e-06
1.04059e-06
1.04076e-06
1.04095e-06
1.04057e-06
1.04078e-06
1.30739e-06
1.30542e-06
1.04084e-06
1.04067e-06
1.04067e-06
1.30545e-06
1.30733e-06
1.30514e-06
1.0409e-06
1.04093e-06
1.04028e-06
1.04031e-06
1.30727e-06
1.30507e-06
1.0408e-06
1.04098e-06
1.04017e-06
1.04035e-06
1.04099e-06
1.04017e-06
1.04037e-06
1.3074e-06
1.30515e-06
1.04088e-06
1.04025e-06
1.04025e-06
1.30524e-06
1.30699e-06
1.2853e-06
1.0406e-06
1.04062e-06
1.01819e-06
1.01821e-06
1.30693e-06
1.28527e-06
1.04049e-06
1.04067e-06
1.01815e-06
1.01817e-06
1.04069e-06
1.0182e-06
1.01825e-06
1.30701e-06
1.28532e-06
1.04057e-06
1.01821e-06
1.01821e-06
1.28537e-06
1.26281e-06
9.81712e-07
9.81731e-07
1.26281e-06
9.81702e-07
9.8169e-07
4.72924e-07
4.72898e-07
4.72941e-07
9.81767e-07
1.26283e-06
9.81758e-07
2.24712e-08
4.3143e-09
1.44983e-08
1.44363e-08
1.56659e-09
9.32061e-09
3.00272e-08
8.20367e-09
1.438e-09
4.07112e-09
8.26328e-09
3.54096e-09
5.15229e-09
3.72692e-09
8.65571e-09
7.2216e-09
1.85032e-07
5.86817e-09
2.88814e-07
1.55146e-06
3.09744e-06
7.27291e-09
1.64018e-07
5.96057e-09
2.60477e-07
9.25292e-09
8.32897e-09
8.1901e-09
8.34746e-09
9.25622e-09
8.29601e-09
8.09259e-09
1.56159e-09
1.04777e-07
6.9643e-09
1.37118e-08
1.57121e-09
8.23094e-08
6.88905e-09
1.66265e-06
3.30182e-06
1.48112e-09
5.29204e-09
8.02964e-08
4.81407e-09
1.46761e-09
5.25764e-09
5.86519e-08
2.15445e-07
2.20084e-07
4.75656e-09
1.84299e-07
1.88592e-07
1.59389e-08
5.13288e-07
1.23644e-08
7.33649e-07
7.02478e-06
1.00414e-05
1.55974e-08
4.68659e-07
1.23989e-08
6.76398e-07
9.25027e-09
8.31324e-09
8.10603e-09