/*--------------------------------*- C++ -*----------------------------------*\
| =========                 |                                                 |
| \\      /  F ield         | OpenFOAM: The Open Source CFD Toolbox           |
|  \\    /   O peration     | Version:  v2012                                 |
|   \\  /    A nd           | Website:  www.openfoam.com                      |
|    \\/     M anipulation  |                                                 |
\*---------------------------------------------------------------------------*/
FoamFile
{
    version     2.0;
    format      ascii;
    class       volScalarField;
    location    "225";
    object      k;
}
// * * * * * * * * * * * * * * * * * * * * * * * * * * * * * * * * * * * * * //

dimensions      [0 2 -2 0 0 0 0];


internalField   nonuniform List<scalar> 
171728
(
1.12105e-06
5.51048e-07
3.16602e-07
3.50529e-07
1.11307e-06
5.84889e-07
3.12421e-07
3.33608e-07
1.13135e-06
6.58596e-07
3.13472e-07
3.18231e-07
1.14933e-06
7.42141e-07
3.24931e-07
3.0565e-07
1.16835e-06
8.87214e-07
3.50171e-07
2.95208e-07
1.18863e-06
9.94552e-07
3.89848e-07
2.85686e-07
1.2103e-06
9.38279e-07
4.54298e-07
2.76661e-07
1.23078e-06
5.50486e-07
5.10217e-07
2.68396e-07
1.25026e-06
3.24653e-07
5.15094e-07
2.6117e-07
1.26545e-06
2.57555e-07
4.2581e-07
2.54835e-07
1.27948e-06
2.47795e-07
3.38554e-07
2.4898e-07
1.30099e-06
2.49435e-07
3.01099e-07
2.44761e-07
1.32749e-06
2.54751e-07
2.98859e-07
2.4241e-07
1.35221e-06
2.63297e-07
3.01136e-07
2.42513e-07
1.37603e-06
2.74463e-07
3.08021e-07
2.42185e-07
1.40024e-06
2.89711e-07
3.20784e-07
2.42047e-07
1.42586e-06
3.13491e-07
3.40698e-07
2.49095e-07
1.45201e-06
3.41484e-07
3.70155e-07
2.70519e-07
1.47955e-06
3.82843e-07
4.08748e-07
2.8919e-07
1.50743e-06
4.40119e-07
4.74961e-07
4.83263e-07
1.53694e-06
5.64213e-07
5.40283e-07
4.5076e-07
1.5656e-06
6.25541e-07
6.77559e-07
7.22597e-07
1.59916e-06
8.44387e-07
8.4519e-07
1.53503e-06
1.62428e-06
1.14143e-06
1.14796e-06
1.51321e-06
1.66971e-06
1.33221e-06
1.4613e-06
3.21143e-06
1.69517e-06
1.94973e-06
1.82298e-06
3.73535e-06
1.75414e-06
2.23959e-06
2.5315e-06
6.04778e-06
1.79551e-06
3.22832e-06
3.05553e-06
8.57896e-06
1.85495e-06
3.73246e-06
3.80592e-06
9.71533e-06
1.93419e-06
4.74852e-06
4.71286e-06
1.31672e-05
2.01969e-06
5.76001e-06
5.85514e-06
1.53218e-05
2.13604e-06
7.0153e-06
6.92434e-06
1.80098e-05
2.26658e-06
8.20443e-06
8.36999e-06
2.01109e-05
2.43534e-06
9.73364e-06
9.61842e-06
2.2285e-05
2.65697e-06
1.12724e-05
1.13046e-05
2.40651e-05
2.87472e-06
1.27821e-05
1.28436e-05
2.57417e-05
3.22474e-06
1.46336e-05
1.45509e-05
2.74722e-05
3.54856e-06
1.63543e-05
1.62993e-05
2.86962e-05
4.02368e-06
1.81462e-05
1.81025e-05
3.01258e-05
4.52054e-06
2.0045e-05
1.9811e-05
3.14095e-05
5.10896e-06
2.19618e-05
2.20436e-05
3.2555e-05
5.89831e-06
2.38014e-05
2.36758e-05
3.3872e-05
6.61161e-06
2.54204e-05
2.53212e-05
3.50344e-05
7.51875e-06
2.72334e-05
2.73055e-05
3.61074e-05
8.3889e-06
2.88975e-05
2.89033e-05
3.70704e-05
9.64904e-06
3.06649e-05
3.07039e-05
3.82255e-05
1.05186e-05
3.16007e-05
3.17192e-05
3.87214e-05
1.212e-05
3.39742e-05
3.40476e-05
4.06663e-05
1.47271e-05
3.65667e-05
3.65812e-05
4.25984e-05
1.61444e-05
3.71545e-05
3.71579e-05
4.28913e-05
1.60732e-05
3.62563e-05
3.62616e-05
4.16851e-05
1.4413e-05
3.44241e-05
3.44448e-05
3.98376e-05
1.37522e-05
3.39425e-05
3.39667e-05
3.93089e-05
1.49513e-05
3.49669e-05
3.49818e-05
3.9944e-05
1.85027e-05
3.78294e-05
3.78373e-05
4.22994e-05
2.34733e-05
4.13278e-05
4.13322e-05
4.52986e-05
2.77487e-05
4.39705e-05
4.39733e-05
4.75564e-05
3.04053e-05
4.5468e-05
4.54702e-05
4.8836e-05
3.17104e-05
4.61507e-05
4.61526e-05
4.94113e-05
3.22657e-05
4.64364e-05
4.64379e-05
4.96561e-05
3.24819e-05
4.65467e-05
4.6548e-05
4.97523e-05
3.25311e-05
4.6564e-05
4.65655e-05
4.97795e-05
3.25335e-05
4.65569e-05
4.65585e-05
4.9757e-05
3.25459e-05
4.65714e-05
4.65727e-05
4.97807e-05
3.25436e-05
4.65648e-05
4.65663e-05
4.97758e-05
3.2542e-05
4.65639e-05
4.65656e-05
4.9763e-05
3.25437e-05
4.6568e-05
4.65694e-05
4.97847e-05
3.25423e-05
4.65637e-05
4.65653e-05
4.97619e-05
3.25429e-05
4.65668e-05
4.65684e-05
4.97832e-05
3.25424e-05
4.65654e-05
4.65667e-05
4.97632e-05
3.25423e-05
4.65654e-05
4.65671e-05
4.97808e-05
3.25423e-05
4.65656e-05
4.65671e-05
4.97709e-05
3.25423e-05
4.65656e-05
4.65671e-05
4.97686e-05
3.25423e-05
4.65655e-05
4.65668e-05
4.97807e-05
3.25423e-05
4.6566e-05
4.65676e-05
4.97731e-05
3.25423e-05
4.65661e-05
4.65675e-05
4.97659e-05
3.25422e-05
4.6565e-05
4.65666e-05
4.97699e-05
3.25422e-05
4.65663e-05
4.65676e-05
4.97816e-05
3.25422e-05
4.6566e-05
4.65674e-05
4.97731e-05
3.25423e-05
4.65659e-05
4.6567e-05
4.97683e-05
3.25424e-05
4.65657e-05
4.65671e-05
4.9766e-05
3.25424e-05
4.65663e-05
4.65674e-05
4.97819e-05
3.25424e-05
4.65659e-05
4.65672e-05
4.97713e-05
3.25422e-05
4.65659e-05
4.65668e-05
4.97672e-05
3.25421e-05
4.65664e-05
4.65671e-05
4.97807e-05
3.25421e-05
4.65658e-05
4.65668e-05
4.97753e-05
3.25421e-05
4.65658e-05
4.65669e-05
4.97648e-05
3.25423e-05
4.65663e-05
4.65674e-05
4.97765e-05
3.25424e-05
4.65663e-05
4.65672e-05
4.97786e-05
3.25425e-05
4.65663e-05
4.65679e-05
4.97711e-05
3.25426e-05
4.6567e-05
4.65683e-05
4.97651e-05
3.25429e-05
4.65683e-05
4.65694e-05
4.97702e-05
3.25428e-05
4.65701e-05
4.65712e-05
4.97768e-05
3.25312e-05
4.65583e-05
4.65596e-05
4.97714e-05
3.19718e-05
4.5276e-05
4.52752e-05
4.926e-05
3.61799e-07
3.44669e-07
3.50234e-07
3.42994e-07
3.46119e-07
3.91304e-07
1.15013e-06
1.20117e-06
1.14801e-06
1.12949e-06
4.29145e-07
3.4359e-07
3.46481e-07
3.1483e-07
3.36124e-07
3.52851e-07
3.58685e-07
3.42701e-07
3.79025e-07
4.35525e-07
3.59681e-07
4.0879e-07
3.40084e-07
3.34036e-07
3.70895e-07
4.991e-07
3.68656e-07
4.98456e-07
3.59274e-07
5.73222e-07
3.48891e-07
3.44182e-07
3.34672e-07
3.51087e-07
3.12795e-07
3.40712e-07
3.36341e-07
3.39601e-07
3.27772e-07
3.5398e-07
3.97891e-07
3.39691e-07
3.67737e-07
3.32292e-07
3.36433e-07
3.69354e-07
4.99319e-07
3.7471e-07
5.06018e-07
3.45502e-07
6.39183e-07
3.35615e-07
3.32362e-07
3.2648e-07
3.37569e-07
3.12444e-07
3.28671e-07
3.20709e-07
3.2531e-07
3.17158e-07
3.35822e-07
3.62888e-07
3.25918e-07
3.60313e-07
3.35042e-07
3.45494e-07
3.77831e-07
5.09982e-07
3.90154e-07
5.2297e-07
3.32467e-07
7.17167e-07
3.23787e-07
3.24526e-07
3.22761e-07
3.25805e-07
3.21107e-07
3.18045e-07
3.07771e-07
3.15333e-07
3.11209e-07
3.2314e-07
3.62292e-07
3.16055e-07
3.90158e-07
3.44552e-07
3.71074e-07
3.94966e-07
5.2601e-07
4.14674e-07
5.29321e-07
3.21276e-07
8.4635e-07
3.1415e-07
3.21285e-07
3.23155e-07
3.15742e-07
3.43223e-07
3.09769e-07
2.97078e-07
3.10017e-07
3.10006e-07
3.13947e-07
4.04394e-07
3.08498e-07
4.53221e-07
3.70814e-07
4.11732e-07
4.22601e-07
5.2926e-07
4.51528e-07
5.1982e-07
3.11993e-07
9.81804e-07
3.06578e-07
3.21833e-07
3.2556e-07
3.07899e-07
3.77373e-07
3.02572e-07
2.87478e-07
3.09295e-07
3.14661e-07
3.0695e-07
4.72945e-07
3.02435e-07
5.51913e-07
4.11e-07
4.32478e-07
4.63801e-07
5.09296e-07
5.07037e-07
4.60373e-07
3.05139e-07
9.85443e-07
3.01573e-07
3.24096e-07
3.23967e-07
3.00892e-07
4.36918e-07
2.96621e-07
2.78363e-07
3.14132e-07
3.21186e-07
3.01009e-07
5.86112e-07
2.96816e-07
6.98405e-07
4.26971e-07
4.00401e-07
5.22339e-07
4.39441e-07
5.66302e-07
3.78776e-07
3.00588e-07
6.38616e-07
2.97579e-07
3.21625e-07
3.14027e-07
2.95206e-07
5.00373e-07
2.91091e-07
2.7001e-07
3.20285e-07
3.24346e-07
2.95819e-07
7.31677e-07
2.93589e-07
7.90932e-07
3.93549e-07
3.80996e-07
5.78678e-07
3.61216e-07
6.01187e-07
3.18617e-07
2.96849e-07
3.61944e-07
2.94774e-07
3.10555e-07
2.97561e-07
2.89751e-07
5.17615e-07
2.86815e-07
2.62557e-07
3.22715e-07
3.1987e-07
2.93318e-07
7.95562e-07
2.92291e-07
7.68156e-07
3.75893e-07
3.53065e-07
6.03232e-07
3.07553e-07
5.9628e-07
2.83804e-07
2.94229e-07
2.65888e-07
2.92944e-07
2.92825e-07
2.65242e-07
2.8601e-07
4.51376e-07
2.8487e-07
2.56096e-07
3.16226e-07
2.7754e-07
2.91875e-07
7.09086e-07
2.9017e-07
5.46424e-07
3.36926e-07
2.66709e-07
5.74741e-07
2.79096e-07
4.67696e-07
2.73132e-07
2.92808e-07
2.48266e-07
2.93155e-07
2.60836e-07
2.47478e-07
2.84696e-07
3.56537e-07
2.84853e-07
2.50039e-07
2.69521e-07
2.47595e-07
2.90044e-07
5.08248e-07
2.90363e-07
4.45008e-07
2.6062e-07
2.44674e-07
4.33632e-07
2.72882e-07
3.51853e-07
2.73307e-07
2.93585e-07
2.48403e-07
2.9524e-07
2.45123e-07
2.39566e-07
2.85142e-07
3.05533e-07
2.86377e-07
2.45185e-07
2.45854e-07
2.3888e-07
2.90903e-07
4.36526e-07
2.93857e-07
4.22118e-07
2.42224e-07
2.37585e-07
3.33284e-07
2.74301e-07
3.02224e-07
2.7845e-07
2.96083e-07
2.53412e-07
2.98757e-07
2.39094e-07
2.35371e-07
2.87344e-07
2.98692e-07
2.90656e-07
2.425e-07
2.38483e-07
2.36205e-07
2.94973e-07
4.16652e-07
3.00147e-07
3.91759e-07
2.36766e-07
2.30832e-07
2.98118e-07
2.80178e-07
2.95116e-07
2.86345e-07
2.99619e-07
2.60989e-07
3.02744e-07
2.35048e-07
2.33311e-07
2.92121e-07
3.00599e-07
2.97978e-07
2.42216e-07
2.36465e-07
2.37815e-07
3.02307e-07
3.80484e-07
3.10024e-07
3.46784e-07
2.30256e-07
2.24254e-07
2.95193e-07
2.88679e-07
2.99651e-07
2.96658e-07
3.03687e-07
2.71268e-07
3.05506e-07
2.33556e-07
2.34344e-07
3.00043e-07
3.05865e-07
3.07426e-07
2.4168e-07
2.38725e-07
2.43344e-07
3.12748e-07
3.36846e-07
3.2313e-07
3.16154e-07
2.24828e-07
2.22384e-07
3.02596e-07
2.99846e-07
3.13231e-07
3.10335e-07
3.06123e-07
2.86007e-07
3.0956e-07
2.3513e-07
2.38531e-07
3.09731e-07
3.17748e-07
3.19783e-07
2.40571e-07
2.45607e-07
2.53132e-07
3.2699e-07
3.14195e-07
3.40399e-07
3.18799e-07
2.23132e-07
2.33838e-07
3.17565e-07
3.14172e-07
3.32473e-07
3.30087e-07
3.11087e-07
3.06711e-07
3.19876e-07
2.39949e-07
2.50459e-07
3.23332e-07
3.36065e-07
3.37015e-07
2.44792e-07
2.56854e-07
2.73515e-07
3.45796e-07
3.25304e-07
3.6441e-07
3.45146e-07
2.39079e-07
2.48971e-07
3.38445e-07
3.34536e-07
3.57968e-07
3.55402e-07
3.23788e-07
3.33115e-07
3.38388e-07
2.5398e-07
2.66658e-07
3.42639e-07
3.60595e-07
3.59176e-07
2.58918e-07
2.80282e-07
3.11009e-07
3.72593e-07
3.51767e-07
4.01701e-07
3.65079e-07
2.54333e-07
2.76797e-07
3.65674e-07
3.64837e-07
3.94417e-07
3.96427e-07
3.53286e-07
3.64357e-07
3.70172e-07
2.78132e-07
3.05589e-07
3.7213e-07
3.98545e-07
3.89838e-07
2.86171e-07
3.21032e-07
3.82784e-07
4.11574e-07
3.79883e-07
4.55219e-07
4.32947e-07
2.93693e-07
3.73073e-07
4.05024e-07
4.06893e-07
4.51108e-07
4.45184e-07
3.74461e-07
4.35508e-07
4.59475e-07
3.15733e-07
3.64116e-07
3.96202e-07
4.49486e-07
4.75356e-07
4.61583e-07
4.08849e-07
4.93625e-07
4.73335e-07
4.38052e-07
5.28774e-07
5.07591e-07
3.76992e-07
4.82294e-07
4.70564e-07
4.72202e-07
5.26518e-07
5.1872e-07
4.74341e-07
5.11707e-07
4.86953e-07
3.94409e-07
4.96293e-07
4.86741e-07
5.20252e-07
5.03266e-07
4.27681e-07
5.27184e-07
7.19589e-07
5.55949e-07
5.59111e-07
6.4411e-07
6.0396e-07
6.0467e-07
6.71783e-07
5.52385e-07
5.38211e-07
6.39704e-07
6.47271e-07
5.13083e-07
6.06336e-07
6.19052e-07
5.09478e-07
8.02575e-07
5.39338e-07
6.55835e-07
6.34006e-07
7.14099e-07
7.73093e-07
1.07808e-06
6.79464e-07
6.24324e-07
7.96522e-07
8.06771e-07
6.78643e-07
1.2692e-06
6.77216e-07
6.7305e-07
7.92314e-07
8.04351e-07
6.30412e-07
8.2623e-07
8.52694e-07
8.47939e-07
1.09107e-06
6.45645e-07
8.04532e-07
8.63394e-07
1.37501e-06
1.17852e-06
1.78061e-06
8.75704e-07
8.28241e-07
1.04501e-06
1.04569e-06
1.32197e-06
1.5713e-06
8.69595e-07
8.39828e-07
1.03713e-06
1.08244e-06
9.15118e-07
1.02638e-06
9.59968e-07
1.2559e-06
1.77313e-06
9.13791e-07
1.08911e-06
9.67978e-07
1.47303e-06
1.81136e-06
3.0279e-06
1.0646e-06
1.13936e-06
1.45338e-06
1.23815e-06
1.89369e-06
2.37618e-06
1.05635e-06
1.13953e-06
1.44192e-06
1.25724e-06
9.97127e-07
1.25943e-06
1.40224e-06
2.01742e-06
2.25114e-06
1.03618e-06
1.27197e-06
1.3884e-06
2.90435e-06
3.48437e-06
3.45123e-06
1.57963e-06
1.32214e-06
1.65685e-06
1.91089e-06
2.3986e-06
4.68358e-06
1.57564e-06
1.44866e-06
1.65965e-06
1.80732e-06
1.51999e-06
1.89173e-06
1.67835e-06
2.42362e-06
4.26491e-06
1.50412e-06
1.80562e-06
1.69463e-06
3.67879e-06
3.45209e-06
6.50898e-06
1.70029e-06
1.95525e-06
2.42499e-06
2.03576e-06
4.83644e-06
4.58593e-06
1.69954e-06
1.82443e-06
2.41401e-06
2.21493e-06
1.73282e-06
2.05105e-06
2.2167e-06
4.2927e-06
5.07338e-06
1.74334e-06
2.2437e-06
2.23602e-06
5.33479e-06
7.14223e-06
7.65379e-06
2.59364e-06
2.22909e-06
2.8558e-06
3.01906e-06
4.84249e-06
8.56133e-06
2.58281e-06
2.50967e-06
2.84296e-06
2.9552e-06
2.47615e-06
3.06665e-06
2.98597e-06
6.02216e-06
8.35019e-06
2.49863e-06
2.96397e-06
3.00647e-06
8.42107e-06
7.75255e-06
9.6061e-06
2.98736e-06
3.21802e-06
3.57807e-06
3.56482e-06
9.10451e-06
9.88201e-06
2.98155e-06
3.03749e-06
3.56433e-06
3.54693e-06
3.03783e-06
3.55463e-06
3.50813e-06
8.44301e-06
9.37525e-06
3.06073e-06
3.55965e-06
3.49465e-06
9.17414e-06
1.02105e-05
1.24679e-05
3.79659e-06
3.69594e-06
4.50174e-06
4.463e-06
1.01183e-05
1.20813e-05
3.77705e-06
3.80264e-06
4.50862e-06
4.48442e-06
3.77231e-06
4.49583e-06
4.48586e-06
9.97535e-06
1.25069e-05
3.75507e-06
4.47189e-06
4.5218e-06
1.2634e-05
1.2982e-05
1.4984e-05
4.75616e-06
4.74767e-06
5.50502e-06
5.4646e-06
1.27322e-05
1.50268e-05
4.75571e-06
4.7165e-06
5.45991e-06
5.5737e-06
4.72666e-06
5.47099e-06
5.49097e-06
1.3003e-05
1.50775e-05
4.75486e-06
5.60634e-06
5.46783e-06
1.48438e-05
1.54824e-05
1.74508e-05
5.76546e-06
5.731e-06
6.67262e-06
6.67854e-06
1.54889e-05
1.7441e-05
5.74203e-06
5.83314e-06
6.67343e-06
6.58264e-06
5.7195e-06
6.72436e-06
6.64866e-06
1.55945e-05
1.73268e-05
5.71288e-06
6.57926e-06
6.66776e-06
1.74564e-05
1.79537e-05
1.96344e-05
6.98419e-06
6.98589e-06
7.89167e-06
7.90881e-06
1.7976e-05
1.96561e-05
6.95731e-06
6.90336e-06
7.85399e-06
8.05365e-06
7.0356e-06
7.87171e-06
7.87444e-06
1.78401e-05
1.98663e-05
7.04253e-06
8.06479e-06
7.88492e-06
1.97032e-05
2.00951e-05
2.17561e-05
8.2323e-06
8.24455e-06
9.3062e-06
9.27697e-06
2.00968e-05
2.17801e-05
8.20757e-06
8.39864e-06
9.29801e-06
9.23069e-06
8.13611e-06
9.33265e-06
9.36426e-06
2.03385e-05
2.16696e-05
8.1452e-06
9.24148e-06
9.35699e-06
2.17806e-05
2.22066e-05
2.36672e-05
9.64143e-06
9.65508e-06
1.08549e-05
1.09046e-05
2.22542e-05
2.37038e-05
9.64095e-06
9.59224e-06
1.07934e-05
1.09287e-05
9.76632e-06
1.09208e-05
1.07952e-05
2.20845e-05
2.37602e-05
9.77293e-06
1.09027e-05
1.07975e-05
2.36897e-05
2.40918e-05
2.5341e-05
1.13075e-05
1.12742e-05
1.23605e-05
1.23282e-05
2.40944e-05
2.52836e-05
1.12265e-05
1.12961e-05
1.23406e-05
1.24309e-05
1.12152e-05
1.2345e-05
1.24167e-05
2.4213e-05
2.53859e-05
1.11803e-05
1.24454e-05
1.23703e-05
2.53606e-05
2.56966e-05
2.69771e-05
1.27125e-05
1.2767e-05
1.41972e-05
1.41767e-05
2.56816e-05
2.70386e-05
1.26922e-05
1.28982e-05
1.4095e-05
1.41146e-05
1.27584e-05
1.41951e-05
1.41484e-05
2.57472e-05
2.69309e-05
1.27669e-05
1.41222e-05
1.42031e-05
2.70652e-05
2.73788e-05
2.83633e-05
1.46793e-05
1.45968e-05
1.5787e-05
1.58699e-05
2.74017e-05
2.84008e-05
1.45901e-05
1.44835e-05
1.57914e-05
1.59269e-05
1.46841e-05
1.59152e-05
1.59627e-05
2.72809e-05
2.83982e-05
1.46744e-05
1.58284e-05
1.59235e-05
2.84122e-05
2.86703e-05
2.98536e-05
1.62005e-05
1.63297e-05
1.77435e-05
1.76627e-05
2.87444e-05
2.97605e-05
1.62061e-05
1.64541e-05
1.76968e-05
1.77103e-05
1.63358e-05
1.76815e-05
1.76637e-05
2.87623e-05
2.97717e-05
1.64001e-05
1.77115e-05
1.78268e-05
2.97655e-05
3.02115e-05
3.10469e-05
1.8249e-05
1.81088e-05
1.95576e-05
1.95516e-05
3.00684e-05
3.10795e-05
1.81925e-05
1.80577e-05
1.95037e-05
1.93419e-05
1.81744e-05
1.95899e-05
1.96144e-05
3.00529e-05
3.09273e-05
1.82362e-05
1.93042e-05
1.95935e-05
3.11193e-05
3.13083e-05
3.22388e-05
1.99557e-05
2.00135e-05
2.13241e-05
2.13581e-05
3.13963e-05
3.23227e-05
1.98995e-05
1.98692e-05
2.12481e-05
2.15583e-05
1.99991e-05
2.1449e-05
2.12351e-05
3.12795e-05
3.25296e-05
2.00884e-05
2.15087e-05
2.1535e-05
3.22644e-05
3.25802e-05
3.36773e-05
2.18616e-05
2.1845e-05
2.34083e-05
2.32851e-05
3.26233e-05
3.35967e-05
2.17943e-05
2.21033e-05
2.33852e-05
2.34325e-05
2.17673e-05
2.33935e-05
2.33532e-05
3.28343e-05
3.35524e-05
2.2036e-05
2.33227e-05
2.34796e-05
3.35837e-05
3.39454e-05
3.46885e-05
2.3861e-05
2.37183e-05
2.5114e-05
2.49555e-05
3.38631e-05
3.46323e-05
2.38324e-05
2.37817e-05
2.49963e-05
2.48541e-05
2.37986e-05
2.4968e-05
2.50962e-05
3.37755e-05
3.45409e-05
2.39035e-05
2.48258e-05
2.51251e-05
3.47504e-05
3.49487e-05
3.58762e-05
2.55641e-05
2.54178e-05
2.69189e-05
2.68269e-05
3.49032e-05
3.58563e-05
2.54284e-05
2.53283e-05
2.68458e-05
2.68847e-05
2.55929e-05
2.68187e-05
2.69847e-05
3.48441e-05
3.59364e-05
2.55823e-05
2.68685e-05
2.68849e-05
3.58943e-05
3.61313e-05
3.68898e-05
2.73226e-05
2.72514e-05
2.84353e-05
2.84423e-05
3.6111e-05
3.68973e-05
2.72877e-05
2.73339e-05
2.8439e-05
2.84641e-05
2.73547e-05
2.84038e-05
2.84061e-05
3.61962e-05
3.69046e-05
2.72498e-05
2.84332e-05
2.83472e-05
3.6798e-05
3.71398e-05
3.80299e-05
2.89016e-05
2.8928e-05
3.03414e-05
3.03938e-05
3.71611e-05
3.80674e-05
2.88976e-05
2.89257e-05
3.03295e-05
3.03746e-05
2.88795e-05
3.03745e-05
3.03528e-05
3.71564e-05
3.80783e-05
2.88442e-05
3.03794e-05
3.03399e-05
3.80541e-05
3.82027e-05
3.85345e-05
3.06431e-05
3.06991e-05
3.1304e-05
3.13616e-05
3.82329e-05
3.8538e-05
3.06368e-05
3.06842e-05
3.13217e-05
3.13592e-05
3.06516e-05
3.12877e-05
3.12981e-05
3.82511e-05
3.85666e-05
3.06374e-05
3.14088e-05
3.12905e-05
3.85392e-05
3.8718e-05
4.02089e-05
3.16183e-05
3.16727e-05
3.32383e-05
3.32611e-05
3.87171e-05
4.02024e-05
3.16401e-05
3.16697e-05
3.32507e-05
3.32592e-05
3.16156e-05
3.32243e-05
3.32307e-05
3.87393e-05
4.01992e-05
3.16131e-05
3.33095e-05
3.32517e-05
4.02143e-05
4.06641e-05
4.23489e-05
3.39882e-05
3.39967e-05
3.61055e-05
3.60945e-05
4.06561e-05
4.23377e-05
3.39968e-05
3.39999e-05
3.61157e-05
3.61052e-05
3.39742e-05
3.60996e-05
3.60909e-05
4.06537e-05
4.23413e-05
3.40013e-05
3.61265e-05
3.61142e-05
4.23395e-05
4.26068e-05
4.28703e-05
3.6569e-05
3.6561e-05
3.71314e-05
3.71382e-05
4.25983e-05
4.28755e-05
3.65808e-05
3.65679e-05
3.71429e-05
3.71276e-05
3.65592e-05
3.71342e-05
3.71314e-05
4.25993e-05
4.28652e-05
3.65773e-05
3.71378e-05
3.71415e-05
4.28728e-05
4.28875e-05
4.18149e-05
3.71511e-05
3.716e-05
3.68006e-05
3.68324e-05
4.2894e-05
4.18346e-05
3.71626e-05
3.71467e-05
3.68121e-05
3.67916e-05
3.71522e-05
3.6814e-05
3.68186e-05
4.28828e-05
4.18141e-05
3.7162e-05
3.68159e-05
3.68238e-05
4.18328e-05
4.16674e-05
3.98894e-05
3.62434e-05
3.62768e-05
3.47627e-05
3.47821e-05
4.16867e-05
3.98957e-05
3.6252e-05
3.62341e-05
3.4763e-05
3.47577e-05
3.62627e-05
3.47647e-05
3.47719e-05
4.16674e-05
3.98972e-05
3.62662e-05
3.47827e-05
3.47742e-05
3.98959e-05
3.98322e-05
3.92785e-05
3.44249e-05
3.444e-05
3.39614e-05
3.39654e-05
3.98375e-05
3.92755e-05
3.44234e-05
3.4422e-05
3.39561e-05
3.39639e-05
3.44314e-05
3.39534e-05
3.39619e-05
3.98405e-05
3.92897e-05
3.44331e-05
3.39776e-05
3.39616e-05
3.92777e-05
3.93101e-05
3.97066e-05
3.39514e-05
3.39536e-05
3.45463e-05
3.45416e-05
3.93065e-05
3.9703e-05
3.39456e-05
3.39549e-05
3.45408e-05
3.4556e-05
3.39511e-05
3.45374e-05
3.45446e-05
3.93214e-05
3.97171e-05
3.39504e-05
3.45548e-05
3.45419e-05
3.97053e-05
3.99451e-05
4.17659e-05
3.49744e-05
3.49712e-05
3.69776e-05
3.69762e-05
3.99421e-05
4.17634e-05
3.497e-05
3.49833e-05
3.69744e-05
3.69839e-05
3.49739e-05
3.69733e-05
3.69791e-05
3.99549e-05
4.17715e-05
3.49717e-05
3.69826e-05
3.69773e-05
4.17671e-05
4.22983e-05
4.479e-05
3.78335e-05
3.78326e-05
4.05004e-05
4.05004e-05
4.22961e-05
4.47882e-05
3.78308e-05
3.7839e-05
4.04986e-05
4.05036e-05
3.78355e-05
4.04981e-05
4.05031e-05
4.23032e-05
4.47922e-05
3.78338e-05
4.0503e-05
4.05017e-05
4.47918e-05
4.5297e-05
4.72131e-05
4.13302e-05
4.13303e-05
4.34227e-05
4.34231e-05
4.52954e-05
4.72118e-05
4.13288e-05
4.13327e-05
4.34217e-05
4.34238e-05
4.1333e-05
4.34215e-05
4.34254e-05
4.52987e-05
4.72135e-05
4.13317e-05
4.34246e-05
4.34244e-05
4.72148e-05
4.75549e-05
4.86466e-05
4.39716e-05
4.3972e-05
4.51884e-05
4.51884e-05
4.75537e-05
4.86455e-05
4.39708e-05
4.39724e-05
4.51874e-05
4.51886e-05
4.39744e-05
4.51878e-05
4.51911e-05
4.75552e-05
4.86467e-05
4.39734e-05
4.51901e-05
4.51903e-05
4.86485e-05
4.8834e-05
4.93153e-05
4.54684e-05
4.54683e-05
4.60306e-05
4.60304e-05
4.88331e-05
4.93146e-05
4.54675e-05
4.54685e-05
4.60297e-05
4.60308e-05
4.54712e-05
4.60309e-05
4.60337e-05
4.88342e-05
4.93159e-05
4.54705e-05
4.60328e-05
4.60331e-05
4.93178e-05
4.94088e-05
4.96004e-05
4.61502e-05
4.615e-05
4.63854e-05
4.63854e-05
4.94082e-05
4.96e-05
4.61494e-05
4.61504e-05
4.63847e-05
4.63856e-05
4.61534e-05
4.63864e-05
4.63886e-05
4.94093e-05
4.9601e-05
4.61529e-05
4.6388e-05
4.63883e-05
4.96029e-05
4.96535e-05
4.97172e-05
4.64352e-05
4.64353e-05
4.6529e-05
4.65292e-05
4.96532e-05
4.9717e-05
4.64347e-05
4.64354e-05
4.65285e-05
4.65291e-05
4.64385e-05
4.65303e-05
4.65322e-05
4.9654e-05
4.97176e-05
4.64382e-05
4.65316e-05
4.6532e-05
4.97196e-05
4.97498e-05
4.97524e-05
4.65454e-05
4.65457e-05
4.6563e-05
4.65632e-05
4.97497e-05
4.97522e-05
4.6545e-05
4.65455e-05
4.65625e-05
4.6563e-05
4.65486e-05
4.65641e-05
4.65663e-05
4.97502e-05
4.97527e-05
4.65484e-05
4.65656e-05
4.6566e-05
4.97548e-05
4.97771e-05
4.97336e-05
4.65629e-05
4.6563e-05
4.65557e-05
4.65558e-05
4.97769e-05
4.9733e-05
4.65624e-05
4.65629e-05
4.65552e-05
4.65558e-05
4.65662e-05
4.65568e-05
4.65591e-05
4.97773e-05
4.9734e-05
4.65659e-05
4.65584e-05
4.65588e-05
4.97362e-05
4.97543e-05
4.97521e-05
4.65557e-05
4.65558e-05
4.65679e-05
4.65682e-05
4.97538e-05
4.97521e-05
4.65552e-05
4.65557e-05
4.65674e-05
4.65679e-05
4.65591e-05
4.65692e-05
4.65712e-05
4.97547e-05
4.97525e-05
4.65588e-05
4.65706e-05
4.65709e-05
4.97545e-05
4.97783e-05
4.97545e-05
4.65701e-05
4.65704e-05
4.6567e-05
4.6567e-05
4.97782e-05
4.97537e-05
4.65696e-05
4.65701e-05
4.65664e-05
4.65668e-05
4.65733e-05
4.6568e-05
4.65699e-05
4.97786e-05
4.97544e-05
4.6573e-05
4.65694e-05
4.65697e-05
4.97564e-05
4.97739e-05
4.97354e-05
4.65637e-05
4.65638e-05
4.65619e-05
4.65621e-05
4.97731e-05
4.97352e-05
4.65633e-05
4.65637e-05
4.65614e-05
4.6562e-05
4.65668e-05
4.6563e-05
4.65652e-05
4.97738e-05
4.9736e-05
4.65667e-05
4.65647e-05
4.65651e-05
4.97381e-05
4.97599e-05
4.97584e-05
4.65626e-05
4.65629e-05
4.6567e-05
4.65671e-05
4.976e-05
4.97583e-05
4.6562e-05
4.65627e-05
4.65665e-05
4.6567e-05
4.65661e-05
4.6568e-05
4.65702e-05
4.97607e-05
4.9759e-05
4.6566e-05
4.65696e-05
4.65699e-05
4.97611e-05
4.97824e-05
4.97379e-05
4.65668e-05
4.6567e-05
4.65624e-05
4.65626e-05
4.9782e-05
4.97372e-05
4.65664e-05
4.65669e-05
4.65618e-05
4.65624e-05
4.657e-05
4.65636e-05
4.65657e-05
4.97826e-05
4.97379e-05
4.65696e-05
4.6565e-05
4.65653e-05
4.97398e-05
4.97596e-05
4.97563e-05
4.65624e-05
4.65627e-05
4.6566e-05
4.65663e-05
4.97592e-05
4.97565e-05
4.65619e-05
4.65625e-05
4.65655e-05
4.65661e-05
4.65658e-05
4.65671e-05
4.65693e-05
4.97598e-05
4.97572e-05
4.65656e-05
4.65687e-05
4.65691e-05
4.97592e-05
4.97806e-05
4.9738e-05
4.65657e-05
4.65658e-05
4.65634e-05
4.65637e-05
4.97805e-05
4.97375e-05
4.65652e-05
4.65658e-05
4.65627e-05
4.65633e-05
4.65689e-05
4.65647e-05
4.65668e-05
4.97811e-05
4.97381e-05
4.65687e-05
4.65661e-05
4.65665e-05
4.97403e-05
4.97604e-05
4.97565e-05
4.65639e-05
4.65644e-05
4.65646e-05
4.65648e-05
4.97607e-05
4.9756e-05
4.65632e-05
4.65638e-05
4.65643e-05
4.65647e-05
4.65673e-05
4.65658e-05
4.65679e-05
4.97611e-05
4.97567e-05
4.65669e-05
4.65672e-05
4.65676e-05
4.97588e-05
4.9779e-05
4.97393e-05
4.65643e-05
4.65644e-05
4.65642e-05
4.65648e-05
4.97775e-05
4.9741e-05
4.65639e-05
4.65642e-05
4.65635e-05
4.65642e-05
4.65676e-05
4.65654e-05
4.65676e-05
4.97784e-05
4.97414e-05
4.65675e-05
4.65671e-05
4.65674e-05
4.97429e-05
4.97665e-05
4.97483e-05
4.65643e-05
4.65649e-05
4.65642e-05
4.65643e-05
4.97693e-05
4.97453e-05
4.65635e-05
4.65643e-05
4.65636e-05
4.65642e-05
4.65677e-05
4.65654e-05
4.65676e-05
4.97695e-05
4.97459e-05
4.65674e-05
4.65669e-05
4.65673e-05
4.97488e-05
4.97677e-05
4.97528e-05
4.65642e-05
4.65645e-05
4.65644e-05
4.65648e-05
4.97652e-05
4.97542e-05
4.65636e-05
4.65643e-05
4.65635e-05
4.65643e-05
4.65676e-05
4.65656e-05
4.65678e-05
4.97658e-05
4.97549e-05
4.65674e-05
4.65671e-05
4.65675e-05
4.97566e-05
4.97778e-05
4.97403e-05
4.65642e-05
4.65644e-05
4.65645e-05
4.65649e-05
4.97781e-05
4.97419e-05
4.65635e-05
4.65642e-05
4.65636e-05
4.65646e-05
4.65676e-05
4.65658e-05
4.65678e-05
4.97785e-05
4.97436e-05
4.65672e-05
4.65674e-05
4.65676e-05
4.97448e-05
4.97674e-05
4.97431e-05
4.65647e-05
4.65651e-05
4.65638e-05
4.65642e-05
4.97702e-05
4.97418e-05
4.65637e-05
4.65646e-05
4.65634e-05
4.65641e-05
4.65679e-05
4.65655e-05
4.65675e-05
4.97719e-05
4.97417e-05
4.65678e-05
4.65668e-05
4.65671e-05
4.97441e-05
4.97637e-05
4.9754e-05
4.65642e-05
4.65647e-05
4.65641e-05
4.65643e-05
4.97632e-05
4.97497e-05
4.65637e-05
4.65646e-05
4.65636e-05
4.65639e-05
4.6568e-05
4.6565e-05
4.65669e-05
4.97635e-05
4.97493e-05
4.65676e-05
4.65666e-05
4.65667e-05
4.97507e-05
4.97739e-05
4.97505e-05
4.65637e-05
4.65642e-05
4.65644e-05
4.65651e-05
4.97688e-05
4.97542e-05
4.65635e-05
4.65639e-05
4.65637e-05
4.65646e-05
4.65669e-05
4.65665e-05
4.65691e-05
4.97684e-05
4.97551e-05
4.65667e-05
4.6568e-05
4.65687e-05
4.97581e-05
4.97765e-05
4.97399e-05
4.65645e-05
4.65648e-05
4.65639e-05
4.65648e-05
4.9777e-05
4.97486e-05
4.65638e-05
4.65644e-05
4.65633e-05
4.65642e-05
4.65686e-05
4.65654e-05
4.65671e-05
4.97776e-05
4.97481e-05
4.65682e-05
4.65667e-05
4.65668e-05
4.97448e-05
4.97665e-05
4.97434e-05
4.65641e-05
4.6565e-05
4.6564e-05
4.65647e-05
4.97756e-05
4.97397e-05
4.65635e-05
4.65643e-05
4.65634e-05
4.65642e-05
4.65682e-05
4.65655e-05
4.65679e-05
4.97753e-05
4.97409e-05
4.65679e-05
4.65667e-05
4.65675e-05
4.97448e-05
4.9764e-05
4.97517e-05
4.65641e-05
4.65652e-05
4.65642e-05
4.65645e-05
4.97669e-05
4.97457e-05
4.65634e-05
4.65644e-05
4.65636e-05
4.65641e-05
4.6568e-05
4.65656e-05
4.65676e-05
4.97669e-05
4.97433e-05
4.65676e-05
4.65668e-05
4.65673e-05
4.97458e-05
4.97709e-05
4.97555e-05
4.65645e-05
4.65646e-05
4.65643e-05
4.65648e-05
4.97655e-05
4.97533e-05
4.65639e-05
4.65644e-05
4.65635e-05
4.65642e-05
4.65678e-05
4.65658e-05
4.6568e-05
4.97641e-05
4.9754e-05
4.65674e-05
4.65671e-05
4.65677e-05
4.97584e-05
4.97779e-05
4.97425e-05
4.65644e-05
4.65652e-05
4.65641e-05
4.65642e-05
4.97783e-05
4.97404e-05
4.65637e-05
4.65644e-05
4.65634e-05
4.65641e-05
4.65683e-05
4.65652e-05
4.65676e-05
4.97742e-05
4.97491e-05
4.6568e-05
4.65666e-05
4.65671e-05
4.97431e-05
4.97712e-05
4.97475e-05
4.65648e-05
4.65646e-05
4.6564e-05
4.65645e-05
4.97643e-05
4.97508e-05
4.6564e-05
4.65645e-05
4.65634e-05
4.65643e-05
4.65683e-05
4.65656e-05
4.65675e-05
4.97707e-05
4.97554e-05
4.65678e-05
4.65667e-05
4.6567e-05
4.9747e-05
4.97672e-05
4.97491e-05
4.6564e-05
4.65647e-05
4.65638e-05
4.6564e-05
4.97751e-05
4.97413e-05
4.65635e-05
4.65644e-05
4.65631e-05
4.65637e-05
4.65678e-05
4.65654e-05
4.65679e-05
4.97748e-05
4.97479e-05
4.65673e-05
4.65663e-05
4.65673e-05
4.97581e-05
4.97752e-05
4.97403e-05
4.65646e-05
4.65649e-05
4.65631e-05
4.65636e-05
4.97703e-05
4.97425e-05
4.65639e-05
4.65646e-05
4.65625e-05
4.65631e-05
4.65683e-05
4.65647e-05
4.6567e-05
4.97752e-05
4.97403e-05
4.65676e-05
4.65656e-05
4.65666e-05
4.97466e-05
4.97619e-05
4.97538e-05
4.65642e-05
4.65645e-05
4.65633e-05
4.65636e-05
4.97633e-05
4.9754e-05
4.65636e-05
4.65641e-05
4.65627e-05
4.65634e-05
4.65682e-05
4.65649e-05
4.65665e-05
4.97618e-05
4.97554e-05
4.65678e-05
4.65658e-05
4.65659e-05
4.97434e-05
4.9774e-05
4.97488e-05
4.65644e-05
4.65647e-05
4.65631e-05
4.65633e-05
4.97752e-05
4.97483e-05
4.65637e-05
4.65644e-05
4.65626e-05
4.65631e-05
4.65675e-05
4.65647e-05
4.65667e-05
4.97763e-05
4.97454e-05
4.65672e-05
4.65656e-05
4.65662e-05
4.97563e-05
4.97755e-05
4.97394e-05
4.65646e-05
4.65649e-05
4.65629e-05
4.6563e-05
4.97753e-05
4.9739e-05
4.65643e-05
4.65649e-05
4.65622e-05
4.65627e-05
4.6568e-05
4.65638e-05
4.65661e-05
4.97736e-05
4.97411e-05
4.65675e-05
4.65651e-05
4.65657e-05
4.97522e-05
4.97652e-05
4.97433e-05
4.65651e-05
4.65652e-05
4.65624e-05
4.65627e-05
4.97646e-05
4.97437e-05
4.65644e-05
4.65647e-05
4.65621e-05
4.65628e-05
4.65683e-05
4.65635e-05
4.65655e-05
4.97628e-05
4.9751e-05
4.65676e-05
4.65651e-05
4.65653e-05
4.97427e-05
4.97642e-05
4.9752e-05
4.65652e-05
4.65654e-05
4.65625e-05
4.65626e-05
4.97644e-05
4.97516e-05
4.65648e-05
4.65653e-05
4.65618e-05
4.65622e-05
4.65684e-05
4.65634e-05
4.65653e-05
4.97705e-05
4.9753e-05
4.65682e-05
4.65645e-05
4.65644e-05
4.97427e-05
4.97719e-05
4.97526e-05
4.6566e-05
4.65662e-05
4.6562e-05
4.65622e-05
4.97717e-05
4.97526e-05
4.65655e-05
4.65659e-05
4.65615e-05
4.65619e-05
4.65689e-05
4.65633e-05
4.65652e-05
4.97756e-05
4.97507e-05
4.65683e-05
4.65644e-05
4.65645e-05
4.975e-05
4.97763e-05
4.97482e-05
4.65671e-05
4.65673e-05
4.65621e-05
4.65622e-05
4.97765e-05
4.97463e-05
4.65664e-05
4.65669e-05
4.65617e-05
4.6562e-05
4.65701e-05
4.65631e-05
4.65652e-05
4.97766e-05
4.97432e-05
4.65693e-05
4.65643e-05
4.65646e-05
4.97551e-05
4.97754e-05
4.97378e-05
4.65688e-05
4.65689e-05
4.65548e-05
4.6555e-05
4.97744e-05
4.97369e-05
4.65683e-05
4.65687e-05
4.65542e-05
4.65546e-05
4.65719e-05
4.65557e-05
4.65578e-05
4.9771e-05
4.97378e-05
4.65712e-05
4.65567e-05
4.65571e-05
4.97484e-05
4.97602e-05
4.9496e-05
4.65581e-05
4.65581e-05
4.63284e-05
4.63289e-05
4.97589e-05
4.94961e-05
4.65569e-05
4.6558e-05
4.63297e-05
4.6327e-05
4.65609e-05
4.63322e-05
4.63311e-05
4.9759e-05
4.94972e-05
4.65597e-05
4.63314e-05
4.63322e-05
4.94994e-05
4.92554e-05
4.52718e-05
4.52723e-05
4.92552e-05
4.52734e-05
4.52703e-05
3.19727e-05
3.19718e-05
3.19742e-05
4.52742e-05
4.92551e-05
4.52759e-05
3.16564e-06
4.582e-07
2.03682e-06
2.03558e-06
1.04461e-07
4.33003e-07
6.96072e-07
1.16676e-06
1.1091e-07
3.14116e-07
1.16079e-06
2.86478e-07
3.58413e-07
2.68764e-07
4.28073e-07
3.00595e-07
5.3742e-06
2.64989e-07
7.12507e-06
1.36347e-05
2.11863e-05
2.9684e-07
4.95868e-06
2.57603e-07
6.65085e-06
1.17401e-06
1.1201e-06
1.09959e-06
1.10907e-06
1.1626e-06
1.1087e-06
1.08587e-06
1.04083e-07
9.56728e-07
6.72473e-07
5.5479e-07
1.06361e-07
9.29525e-07
6.66877e-07
1.42856e-05
2.21136e-05
9.92975e-08
5.47513e-07
5.88834e-07
3.14378e-07
1.06713e-07
5.42597e-07
5.75832e-07
1.89365e-06
1.9323e-06
3.4463e-07
1.86834e-06
1.90827e-06
4.89457e-07
1.04522e-05
4.1358e-07
1.3256e-05
3.65504e-05
4.63854e-05
4.85067e-07
9.83166e-06
4.03405e-07
1.25554e-05
1.16641e-06
1.11277e-06
1.08979e-06
1.12692e-06
1.18036e-06