/*--------------------------------*- C++ -*----------------------------------*\
| =========                 |                                                 |
| \\      /  F ield         | OpenFOAM: The Open Source CFD Toolbox           |
|  \\    /   O peration     | Version:  v2012                                 |
|   \\  /    A nd           | Website:  www.openfoam.com                      |
|    \\/     M anipulation  |                                                 |
\*---------------------------------------------------------------------------*/
FoamFile
{
    version     2.0;
    format      ascii;
    class       volScalarField;
    location    "225";
    object      nut;
}
// * * * * * * * * * * * * * * * * * * * * * * * * * * * * * * * * * * * * * //

dimensions      [0 2 -1 0 0 0 0];


internalField   nonuniform List<scalar> 
171728
(
1.34631e-05
2.00529e-06
1.87553e-06
2.23188e-06
1.33339e-05
2.21839e-06
1.79606e-06
2.22984e-06
1.36564e-05
2.81301e-06
1.7533e-06
2.22941e-06
1.39889e-05
4.19935e-06
1.77509e-06
2.24119e-06
1.43569e-05
9.40864e-06
2.02349e-06
2.26351e-06
1.48399e-05
1.82742e-05
2.7126e-06
2.28113e-06
1.53285e-05
2.11066e-05
4.27119e-06
2.28689e-06
1.56995e-05
8.86884e-06
6.12981e-06
2.2834e-06
1.59985e-05
3.50568e-06
6.90325e-06
2.27095e-06
1.61417e-05
2.29485e-06
5.1309e-06
2.24501e-06
1.62185e-05
2.10616e-06
3.39411e-06
2.19816e-06
1.64644e-05
2.06977e-06
2.68973e-06
2.1451e-06
1.68325e-05
2.05633e-06
2.59269e-06
2.09153e-06
1.71459e-05
2.0539e-06
2.51209e-06
2.03978e-06
1.74224e-05
2.04548e-06
2.43399e-06
1.92698e-06
1.76897e-05
2.03635e-06
2.37902e-06
1.74847e-06
1.79786e-05
2.05859e-06
2.34523e-06
1.58813e-06
1.82587e-05
2.05903e-06
2.31876e-06
1.48548e-06
1.85536e-05
2.04551e-06
2.31785e-06
1.279e-06
1.88279e-05
2.17626e-06
2.42029e-06
2.38266e-06
1.91102e-05
2.58017e-06
2.40901e-06
1.49726e-06
1.93212e-05
2.42979e-06
2.83486e-06
2.51491e-06
1.9597e-05
3.31612e-06
3.23831e-06
6.07897e-06
1.95818e-05
4.37145e-06
4.45253e-06
4.35413e-06
1.9978e-05
4.39738e-06
5.18951e-06
1.11898e-05
1.9691e-05
7.30173e-06
6.45375e-06
1.17236e-05
2.00782e-05
7.16451e-06
8.93157e-06
1.82576e-05
1.98569e-05
1.16096e-05
1.06418e-05
2.90255e-05
1.97272e-05
1.25841e-05
1.29695e-05
2.84686e-05
1.97495e-05
1.62942e-05
1.59874e-05
4.05844e-05
1.95818e-05
1.9591e-05
2.02928e-05
4.5833e-05
1.96781e-05
2.42199e-05
2.34903e-05
5.39392e-05
1.96399e-05
2.79452e-05
2.9048e-05
5.97619e-05
1.98799e-05
3.33867e-05
3.27364e-05
6.61137e-05
2.05041e-05
3.88682e-05
3.89813e-05
7.12172e-05
2.07364e-05
4.35367e-05
4.40845e-05
7.60861e-05
2.22261e-05
5.02463e-05
4.99218e-05
8.18698e-05
2.30273e-05
5.60119e-05
5.57393e-05
8.53682e-05
2.50819e-05
6.19764e-05
6.20408e-05
8.99238e-05
2.71093e-05
6.85939e-05
6.71203e-05
9.43024e-05
2.93142e-05
7.52629e-05
7.58084e-05
9.78712e-05
3.34575e-05
8.19251e-05
8.12736e-05
0.000102558
3.6354e-05
8.71032e-05
8.62984e-05
0.00010676
4.07478e-05
9.39095e-05
9.4147e-05
0.000110904
4.40832e-05
9.98887e-05
9.97708e-05
0.00011431
5.11522e-05
0.000107868
0.000107866
0.000119429
5.35841e-05
0.00010987
0.000110549
0.000120304
6.07803e-05
0.000120592
0.000121138
0.000128751
7.93349e-05
0.000136161
0.000136356
0.000139507
9.10707e-05
0.000140559
0.000140627
0.000142899
9.02274e-05
0.00013617
0.000136193
0.000138666
7.19842e-05
0.000123474
0.000123577
0.00012897
6.03642e-05
0.000118052
0.000118181
0.000124938
6.13875e-05
0.000120732
0.00012081
0.000125683
7.95332e-05
0.000134385
0.000134422
0.000134578
0.000113024
0.000154044
0.00015406
0.000148168
0.000147618
0.000170328
0.000170333
0.000159216
0.000171921
0.000180099
0.0001801
0.000165712
0.000184752
0.000184674
0.000184672
0.000168653
0.000190418
0.000186608
0.000186603
0.000169904
0.000192715
0.000187383
0.000187377
0.000170414
0.00019328
0.000187522
0.000187517
0.000170583
0.000193294
0.000187458
0.000187454
0.000170441
0.000193426
0.000187559
0.000187553
0.000170566
0.000193413
0.000187522
0.000187517
0.000170571
0.00019339
0.000187507
0.000187504
0.000170465
0.000193412
0.000187542
0.000187537
0.000170611
0.000193397
0.000187509
0.000187504
0.000170461
0.000193404
0.000187534
0.00018753
0.000170601
0.000193398
0.000187522
0.000187516
0.000170467
0.000193399
0.000187523
0.000187519
0.000170591
0.000193399
0.000187524
0.00018752
0.000170511
0.000193399
0.000187524
0.000187519
0.000170513
0.000193399
0.000187524
0.000187518
0.000170587
0.0001934
0.000187527
0.000187523
0.000170525
0.0001934
0.000187528
0.000187522
0.000170483
0.0001934
0.00018752
0.000187516
0.000170522
0.0001934
0.00018753
0.000187524
0.000170596
0.0001934
0.000187527
0.000187522
0.000170527
0.000193401
0.000187526
0.000187519
0.000170499
0.000193403
0.000187526
0.00018752
0.000170493
0.000193403
0.000187529
0.000187522
0.000170595
0.000193403
0.000187526
0.000187521
0.000170513
0.000193401
0.000187527
0.000187519
0.000170499
0.0001934
0.000187529
0.00018752
0.00017059
0.0001934
0.000187525
0.000187517
0.000170542
0.0001934
0.000187525
0.000187518
0.000170485
0.000193401
0.000187528
0.00018752
0.000170572
0.000193402
0.000187526
0.000187518
0.000170577
0.000193402
0.000187525
0.000187521
0.000170518
0.000193402
0.000187527
0.000187521
0.000170477
0.000193403
0.000187532
0.000187524
0.000170515
0.000193404
0.000187539
0.000187531
0.000170564
0.000193486
0.000187501
0.000187495
0.000170568
0.000194538
0.000187919
0.000187912
0.000172929
2.33228e-06
2.55252e-06
2.02115e-06
2.19758e-06
1.99807e-06
2.8314e-06
1.39783e-05
1.40551e-05
1.4086e-05
1.37532e-05
2.38467e-06
2.52956e-06
2.23768e-06
2.18789e-06
2.42289e-06
2.24873e-06
2.31555e-06
2.26835e-06
2.65382e-06
1.93501e-06
2.5695e-06
1.80582e-06
2.192e-06
2.11325e-06
1.82558e-06
2.94472e-06
1.83673e-06
3.1568e-06
2.44787e-06
2.13686e-06
2.46038e-06
2.23334e-06
2.25449e-06
2.34534e-06
1.81394e-06
2.34821e-06
2.24947e-06
2.25913e-06
2.22255e-06
2.548e-06
1.7338e-06
2.50254e-06
1.50381e-06
2.10783e-06
2.05798e-06
1.8529e-06
3.25931e-06
1.93652e-06
3.80256e-06
2.46561e-06
2.64247e-06
2.47645e-06
2.25436e-06
2.30054e-06
2.35373e-06
1.76218e-06
2.37023e-06
2.24844e-06
2.2167e-06
2.20568e-06
2.49612e-06
1.46273e-06
2.49309e-06
1.40237e-06
2.05748e-06
2.16706e-06
1.97951e-06
4.07693e-06
2.15643e-06
5.04729e-06
2.48012e-06
3.65291e-06
2.49454e-06
2.30662e-06
2.39039e-06
2.37517e-06
1.75593e-06
2.39551e-06
2.25767e-06
2.20476e-06
2.23602e-06
2.49724e-06
1.40094e-06
2.52057e-06
1.5619e-06
2.19413e-06
2.69671e-06
2.22455e-06
5.36388e-06
2.5254e-06
6.18307e-06
2.50255e-06
7.52767e-06
2.52545e-06
2.39343e-06
2.51998e-06
2.40419e-06
1.94425e-06
2.43962e-06
2.27843e-06
2.24347e-06
2.37371e-06
2.52921e-06
1.66421e-06
2.55959e-06
2.10095e-06
2.72782e-06
3.46843e-06
2.676e-06
6.42746e-06
3.3763e-06
6.90406e-06
2.534e-06
1.62999e-05
2.5674e-06
2.52959e-06
2.7785e-06
2.45087e-06
2.46288e-06
2.48106e-06
2.29741e-06
2.40109e-06
2.72774e-06
2.5716e-06
2.35486e-06
2.59664e-06
3.64582e-06
3.52826e-06
4.48933e-06
3.7189e-06
6.84962e-06
5.09842e-06
6.13446e-06
2.58094e-06
2.19777e-05
2.6243e-06
2.79099e-06
2.99669e-06
2.48967e-06
3.80377e-06
2.51551e-06
2.30458e-06
2.73574e-06
3.02538e-06
2.60163e-06
4.31121e-06
2.60468e-06
7.07059e-06
4.5213e-06
4.45765e-06
5.65451e-06
5.74521e-06
7.4038e-06
4.58098e-06
2.63816e-06
1.14168e-05
2.66885e-06
2.97109e-06
3.0205e-06
2.51957e-06
5.73204e-06
2.52212e-06
2.30297e-06
3.02071e-06
3.26333e-06
2.6074e-06
8.1307e-06
2.61368e-06
1.08805e-05
4.34685e-06
4.43727e-06
7.94498e-06
4.24411e-06
9.18367e-06
3.44194e-06
2.67864e-06
4.2568e-06
2.69946e-06
2.96891e-06
2.90212e-06
2.51753e-06
6.80437e-06
2.51031e-06
2.29046e-06
3.24184e-06
3.36174e-06
2.62019e-06
1.15134e-05
2.62269e-06
1.22975e-05
4.35163e-06
4.20398e-06
9.43962e-06
3.23346e-06
9.82475e-06
2.78764e-06
2.70498e-06
2.43994e-06
2.71328e-06
2.8213e-06
2.4386e-06
2.50724e-06
5.6621e-06
2.50487e-06
2.26635e-06
3.29603e-06
2.67869e-06
2.61799e-06
1.09487e-05
2.58185e-06
7.24443e-06
3.85504e-06
2.58117e-06
9.32251e-06
2.69602e-06
6.54195e-06
2.57136e-06
2.71625e-06
2.12272e-06
2.7257e-06
2.36117e-06
2.19158e-06
2.50178e-06
3.73745e-06
2.49487e-06
2.21947e-06
2.52646e-06
2.1827e-06
2.57381e-06
6.44555e-06
2.54353e-06
5.24733e-06
2.46693e-06
2.22586e-06
5.71166e-06
2.55517e-06
3.86679e-06
2.50923e-06
2.73056e-06
2.06938e-06
2.73414e-06
2.14756e-06
2.08198e-06
2.4916e-06
2.77336e-06
2.47602e-06
2.16176e-06
2.14388e-06
2.03065e-06
2.53659e-06
5.10892e-06
2.52155e-06
4.87277e-06
2.17393e-06
2.10781e-06
3.4788e-06
2.50258e-06
2.85014e-06
2.48939e-06
2.73559e-06
2.05994e-06
2.7254e-06
2.06452e-06
1.99964e-06
2.4757e-06
2.607e-06
2.46963e-06
2.10996e-06
2.00801e-06
1.93856e-06
2.51542e-06
4.7522e-06
2.50361e-06
4.18588e-06
2.07836e-06
1.95483e-06
2.74696e-06
2.48499e-06
2.58992e-06
2.47221e-06
2.71472e-06
2.05348e-06
2.67439e-06
1.97711e-06
1.91546e-06
2.46777e-06
2.53732e-06
2.47107e-06
2.0613e-06
1.91558e-06
1.86671e-06
2.50301e-06
3.93647e-06
2.49161e-06
3.16222e-06
1.92063e-06
1.74959e-06
2.55011e-06
2.46514e-06
2.4722e-06
2.44214e-06
2.65159e-06
2.04483e-06
2.54907e-06
1.89185e-06
1.83302e-06
2.46753e-06
2.45072e-06
2.45272e-06
1.95918e-06
1.83826e-06
1.78363e-06
2.48296e-06
2.94969e-06
2.46141e-06
2.45363e-06
1.72194e-06
1.596e-06
2.4611e-06
2.43405e-06
2.42655e-06
2.39953e-06
2.50599e-06
2.04784e-06
2.3798e-06
1.80284e-06
1.73908e-06
2.43817e-06
2.40094e-06
2.41172e-06
1.78502e-06
1.75739e-06
1.68886e-06
2.45153e-06
2.344e-06
2.41353e-06
2.16893e-06
1.54611e-06
1.50214e-06
2.41905e-06
2.38092e-06
2.39111e-06
2.36676e-06
2.33563e-06
2.04333e-06
2.2331e-06
1.69806e-06
1.66726e-06
2.39935e-06
2.36328e-06
2.35939e-06
1.61319e-06
1.65501e-06
1.61817e-06
2.3991e-06
2.18482e-06
2.35276e-06
2.19618e-06
1.49862e-06
1.43301e-06
2.38131e-06
2.33671e-06
2.34235e-06
2.30549e-06
2.20179e-06
2.05146e-06
2.10206e-06
1.64116e-06
1.53067e-06
2.35065e-06
2.30742e-06
2.28181e-06
1.46421e-06
1.58947e-06
1.60907e-06
2.34813e-06
2.19332e-06
2.34826e-06
2.02108e-06
1.40206e-06
1.30756e-06
2.3268e-06
2.30711e-06
2.31506e-06
2.34754e-06
2.18095e-06
1.97765e-06
2.07974e-06
1.55406e-06
1.57579e-06
2.32909e-06
2.3278e-06
2.21915e-06
1.39624e-06
1.58114e-06
1.7034e-06
2.3307e-06
2.04567e-06
2.37262e-06
2.24811e-06
1.32296e-06
1.73729e-06
2.30551e-06
2.34012e-06
2.365e-06
2.30709e-06
1.97401e-06
2.25213e-06
2.40903e-06
1.55683e-06
1.55298e-06
2.13978e-06
2.31965e-06
2.53816e-06
2.26347e-06
1.76557e-06
1.9419e-06
2.40675e-06
2.17756e-06
2.47008e-06
2.25587e-06
1.65575e-06
1.67976e-06
2.41057e-06
2.4168e-06
2.48498e-06
2.42586e-06
2.47094e-06
2.27411e-06
2.18087e-06
1.62907e-06
1.99715e-06
2.55308e-06
2.41397e-06
2.27363e-06
1.55799e-06
1.98337e-06
2.61819e-06
2.53706e-06
2.55056e-06
2.75168e-06
2.49734e-06
2.33616e-06
2.42914e-06
2.53988e-06
2.4172e-06
2.74118e-06
2.78072e-06
2.21377e-06
2.50174e-06
2.6262e-06
1.89735e-06
3.1313e-06
2.39087e-06
2.83069e-06
2.71075e-06
2.70928e-06
2.71307e-06
3.60426e-06
2.83888e-06
2.43978e-06
3.08704e-06
3.22449e-06
2.19626e-06
4.88299e-06
2.84446e-06
2.80977e-06
3.08134e-06
3.17499e-06
2.51076e-06
3.36445e-06
3.45867e-06
3.24429e-06
3.61518e-06
2.59552e-06
3.16127e-06
3.53266e-06
5.17755e-06
3.82651e-06
6.42281e-06
3.43264e-06
3.18675e-06
4.01486e-06
3.96552e-06
5.00251e-06
4.72508e-06
3.41501e-06
3.21895e-06
3.99181e-06
4.23574e-06
3.78244e-06
3.79498e-06
3.48638e-06
4.3311e-06
5.90331e-06
3.75769e-06
4.2614e-06
3.48775e-06
4.66555e-06
6.18178e-06
1.01993e-05
3.86066e-06
4.40024e-06
5.47404e-06
4.1909e-06
6.10012e-06
7.54154e-06
3.8343e-06
4.41778e-06
5.4085e-06
4.21591e-06
3.41966e-06
4.33924e-06
5.16788e-06
7.01938e-06
6.4765e-06
3.6436e-06
4.30385e-06
5.08184e-06
9.84792e-06
1.26521e-05
1.08935e-05
6.146e-06
4.30534e-06
5.72039e-06
7.33674e-06
6.90211e-06
1.72421e-05
6.12777e-06
5.10074e-06
5.76721e-06
6.74707e-06
5.71523e-06
7.17042e-06
5.92476e-06
6.53566e-06
1.54191e-05
5.59494e-06
6.72771e-06
5.99916e-06
1.22195e-05
9.92646e-06
2.16751e-05
5.48501e-06
7.38361e-06
8.72133e-06
6.50419e-06
1.78239e-05
1.28673e-05
5.51316e-06
6.48108e-06
8.68574e-06
7.36024e-06
5.86965e-06
6.58416e-06
7.41212e-06
1.49589e-05
1.39566e-05
5.9079e-06
7.51718e-06
7.49615e-06
1.55448e-05
2.48052e-05
2.50812e-05
9.48641e-06
7.129e-06
9.89971e-06
1.06544e-05
1.28343e-05
2.8286e-05
9.44975e-06
8.80291e-06
9.84218e-06
1.05194e-05
8.59358e-06
1.09748e-05
1.07519e-05
1.77797e-05
2.86472e-05
8.70098e-06
1.05519e-05
1.08577e-05
2.89556e-05
2.44241e-05
2.90207e-05
1.01962e-05
1.15162e-05
1.21621e-05
1.22529e-05
3.05949e-05
3.12898e-05
1.01846e-05
1.0549e-05
1.21097e-05
1.19507e-05
1.06093e-05
1.21108e-05
1.17452e-05
2.82088e-05
2.79054e-05
1.07399e-05
1.20409e-05
1.1655e-05
2.70523e-05
3.09921e-05
3.80641e-05
1.29222e-05
1.24405e-05
1.53997e-05
1.51663e-05
3.12908e-05
3.60128e-05
1.28254e-05
1.29343e-05
1.5488e-05
1.52951e-05
1.27683e-05
1.53781e-05
1.5342e-05
2.97357e-05
3.8223e-05
1.26331e-05
1.52007e-05
1.55405e-05
3.8911e-05
3.95283e-05
4.52732e-05
1.63181e-05
1.62829e-05
1.8854e-05
1.8615e-05
3.81145e-05
4.55352e-05
1.63789e-05
1.60393e-05
1.86041e-05
1.92531e-05
1.6174e-05
1.85919e-05
1.88338e-05
3.95813e-05
4.57059e-05
1.63465e-05
1.94507e-05
1.86586e-05
4.46487e-05
4.66236e-05
5.23971e-05
1.97005e-05
1.948e-05
2.29119e-05
2.2935e-05
4.66905e-05
5.22609e-05
1.95728e-05
2.01495e-05
2.30047e-05
2.23175e-05
1.94707e-05
2.32133e-05
2.26717e-05
4.72334e-05
5.15978e-05
1.9383e-05
2.22678e-05
2.27675e-05
5.22175e-05
5.38415e-05
5.84713e-05
2.40214e-05
2.402e-05
2.69874e-05
2.7094e-05
5.38798e-05
5.85846e-05
2.3949e-05
2.33879e-05
2.68067e-05
2.78745e-05
2.42718e-05
2.68565e-05
2.69655e-05
5.30026e-05
5.95771e-05
2.42943e-05
2.8006e-05
2.7009e-05
5.88293e-05
5.97008e-05
6.45935e-05
2.81532e-05
2.824e-05
3.1905e-05
3.16642e-05
5.97005e-05
6.46458e-05
2.80495e-05
2.9176e-05
3.19325e-05
3.14147e-05
2.7583e-05
3.19159e-05
3.21291e-05
6.09672e-05
6.41832e-05
2.7624e-05
3.14827e-05
3.20507e-05
6.45424e-05
6.5857e-05
7.01918e-05
3.29461e-05
3.29604e-05
3.7216e-05
3.76299e-05
6.60495e-05
7.04801e-05
3.3044e-05
3.25517e-05
3.69795e-05
3.76801e-05
3.3661e-05
3.77317e-05
3.6883e-05
6.52002e-05
7.05761e-05
3.36695e-05
3.75294e-05
3.69202e-05
7.02804e-05
7.1411e-05
7.50936e-05
3.89896e-05
3.88915e-05
4.22608e-05
4.19783e-05
7.15231e-05
7.47161e-05
3.86087e-05
3.89164e-05
4.22624e-05
4.25335e-05
3.83836e-05
4.20497e-05
4.25695e-05
7.19856e-05
7.53971e-05
3.81742e-05
4.27735e-05
4.20962e-05
7.50487e-05
7.59848e-05
8.00647e-05
4.32016e-05
4.34774e-05
4.87294e-05
4.86846e-05
7.58181e-05
8.04292e-05
4.32287e-05
4.42923e-05
4.82064e-05
4.83931e-05
4.34922e-05
4.87117e-05
4.83253e-05
7.63477e-05
7.9963e-05
4.33267e-05
4.84649e-05
4.8551e-05
8.05241e-05
8.13365e-05
8.42759e-05
5.05962e-05
5.01098e-05
5.38161e-05
5.42991e-05
8.14989e-05
8.45031e-05
5.01128e-05
4.94158e-05
5.39374e-05
5.44957e-05
5.04754e-05
5.45339e-05
5.49204e-05
8.09193e-05
8.44282e-05
5.03014e-05
5.40894e-05
5.43553e-05
8.47128e-05
8.50451e-05
8.91719e-05
5.50314e-05
5.59027e-05
6.06441e-05
6.03723e-05
8.55105e-05
8.88328e-05
5.51899e-05
5.65731e-05
6.05224e-05
6.08359e-05
5.59604e-05
6.04023e-05
6.01737e-05
8.55422e-05
8.89268e-05
5.60451e-05
6.08527e-05
6.12386e-05
8.8763e-05
9.03635e-05
9.30777e-05
6.25481e-05
6.18311e-05
6.69852e-05
6.69054e-05
8.96931e-05
9.31059e-05
6.23629e-05
6.17009e-05
6.68154e-05
6.54657e-05
6.20402e-05
6.70622e-05
6.73342e-05
8.96636e-05
9.21422e-05
6.25226e-05
6.54042e-05
6.70015e-05
9.34484e-05
9.37364e-05
9.66891e-05
6.81546e-05
6.84989e-05
7.2562e-05
7.29283e-05
9.40754e-05
9.72088e-05
6.79645e-05
6.73126e-05
7.21805e-05
7.37999e-05
6.84845e-05
7.33612e-05
7.21036e-05
9.32291e-05
9.81942e-05
6.87543e-05
7.36792e-05
7.37767e-05
9.70346e-05
9.77974e-05
0.000102117
7.4563e-05
7.46418e-05
8.04462e-05
7.98538e-05
9.81218e-05
0.000101737
7.42048e-05
7.59831e-05
8.03845e-05
8.08657e-05
7.40466e-05
8.056e-05
8.01649e-05
9.92206e-05
0.000101634
7.55833e-05
8.02874e-05
8.08685e-05
0.000101644
0.000102962
0.000105497
8.20708e-05
8.13399e-05
8.6236e-05
8.53196e-05
0.000102553
0.00010517
8.20094e-05
8.18822e-05
8.56494e-05
8.47425e-05
8.17326e-05
8.55148e-05
8.60902e-05
0.000102192
0.000104586
8.23203e-05
8.45169e-05
8.63186e-05
0.000105801
0.000106296
0.000110012
8.78409e-05
8.6963e-05
9.29493e-05
9.23096e-05
0.000106019
0.000109868
8.71058e-05
8.63902e-05
9.24893e-05
9.25927e-05
8.79889e-05
9.24022e-05
9.34586e-05
0.000105577
0.0001102
8.80017e-05
9.24669e-05
9.29067e-05
0.000110264
0.000110877
0.000113863
9.44171e-05
9.3879e-05
9.80938e-05
9.80079e-05
0.000110728
0.000113844
9.41889e-05
9.43524e-05
9.814e-05
9.81729e-05
9.47356e-05
9.78696e-05
9.79667e-05
0.000111116
0.000113868
9.41322e-05
9.79093e-05
9.76073e-05
0.000113361
0.000114726
0.000118809
9.99459e-05
9.9986e-05
0.000106512
0.00010675
0.000114786
0.000119016
9.99425e-05
9.99933e-05
0.000106417
0.000106619
9.98338e-05
0.000106749
0.000106581
0.000114744
0.000119073
9.96267e-05
0.000106535
0.000106544
0.000118877
0.000119364
0.000119985
0.000107686
0.000107961
0.000109102
0.000109439
0.000119542
0.000120032
0.000107612
0.000107855
0.000109168
0.000109424
0.000107734
0.000109032
0.000109035
0.000119654
0.000120267
0.000107687
0.000109677
0.000109001
0.000119964
0.000120331
0.000126732
0.000109956
0.000110293
0.000116794
0.000116973
0.000120353
0.000126715
0.000110052
0.000110278
0.000116845
0.000116965
0.000109908
0.000116713
0.000116721
0.000120562
0.000126769
0.000109895
0.000117303
0.000116849
0.000126741
0.000128755
0.000138173
0.000120678
0.000120765
0.000133143
0.000133063
0.000128727
0.000138102
0.000120707
0.000120793
0.000133197
0.000133183
0.000120559
0.000133099
0.000132995
0.000128779
0.000138174
0.000120735
0.000133383
0.00013318
0.000138097
0.00013958
0.000142856
0.000136181
0.000136106
0.000140205
0.000140213
0.000139519
0.000142862
0.000136253
0.000136215
0.000140288
0.000140219
0.000136061
0.000140224
0.000140151
0.000139575
0.000142838
0.000136216
0.000140317
0.000140251
0.000142834
0.000142915
0.000139519
0.000140535
0.000140546
0.000139624
0.000139801
0.000142927
0.000139627
0.000140627
0.000140544
0.000139728
0.000139587
0.000140487
0.00013973
0.000139704
0.000142897
0.000139502
0.000140584
0.000139741
0.000139766
0.0001396
0.000138585
0.00012945
0.000136063
0.000136261
0.000125942
0.000126061
0.000138691
0.000129495
0.000136148
0.000136017
0.000125971
0.000125911
0.000136161
0.000125983
0.000125986
0.000138572
0.000129474
0.000136208
0.000126071
0.00012602
0.000129482
0.000128944
0.000125218
0.00012345
0.000123544
0.000118839
0.00011887
0.000128983
0.000125214
0.000123466
0.000123429
0.000118829
0.000118842
0.000123478
0.000118816
0.000118835
0.000128971
0.000125262
0.000123508
0.000118942
0.000118851
0.000125213
0.000124945
0.000125191
0.000118082
0.000118102
0.000119152
0.000119123
0.000124937
0.000125179
0.000118067
0.000118089
0.000119134
0.000119199
0.000118073
0.000119114
0.000119132
0.00012499
0.000125236
0.000118086
0.000119207
0.00011913
0.000125179
0.000125693
0.000132503
0.00012076
0.00012074
0.000129983
0.000129972
0.000125685
0.000132498
0.000120749
0.000120804
0.000129978
0.000130013
0.000120748
0.000129974
0.000129983
0.000125736
0.000132528
0.000120748
0.00013002
0.000129986
0.000132504
0.000134577
0.000145982
0.000134393
0.000134384
0.000149173
0.000149169
0.000134573
0.00014598
0.00013439
0.000134418
0.000149176
0.000149185
0.000134395
0.000149177
0.000149181
0.000134599
0.00014599
0.000134399
0.000149196
0.000149187
0.000145985
0.000148166
0.000157736
0.00015404
0.000154037
0.000166835
0.000166834
0.000148165
0.000157737
0.000154046
0.000154048
0.000166845
0.000166833
0.000154048
0.000166848
0.000166843
0.000148171
0.000157734
0.000154055
0.000166855
0.000166853
0.000157738
0.000159215
0.000164961
0.000170316
0.000170314
0.000178224
0.00017822
0.000159216
0.000164963
0.000170327
0.000170311
0.000178235
0.000178214
0.000170324
0.000178241
0.000178231
0.000159212
0.000164957
0.000170334
0.000178242
0.000178243
0.000164963
0.000165709
0.000168376
0.000180081
0.000180077
0.000183845
0.000183839
0.000165712
0.00016838
0.000180093
0.000180071
0.000183857
0.000183834
0.000180089
0.000183868
0.000183854
0.000165706
0.000168374
0.000180101
0.000183867
0.000183868
0.000168382
0.000168648
0.000169831
0.000184649
0.000184644
0.000186238
0.000186233
0.000168652
0.000169836
0.000184662
0.000184638
0.000186252
0.000186227
0.000184659
0.000186266
0.000186249
0.000168646
0.000169829
0.000184673
0.000186263
0.000186264
0.000169836
0.000169898
0.000170448
0.000186579
0.000186574
0.000187234
0.00018723
0.000169904
0.000170455
0.000186593
0.000186568
0.000187249
0.000187222
0.000186589
0.000187264
0.000187243
0.000169896
0.000170445
0.000186605
0.000187258
0.00018726
0.000170453
0.000170409
0.000170663
0.000187353
0.00018735
0.00018749
0.000187486
0.000170415
0.00017067
0.000187369
0.000187341
0.000187505
0.000187477
0.000187363
0.000187519
0.000187499
0.000170406
0.00017066
0.000187379
0.000187514
0.000187516
0.000170668
0.000170579
0.000170556
0.000187493
0.000187489
0.000187436
0.000187432
0.000170586
0.000170561
0.000187508
0.00018748
0.000187451
0.000187424
0.000187503
0.000187465
0.000187447
0.000170575
0.000170553
0.000187519
0.000187461
0.000187463
0.000170562
0.000170435
0.000170635
0.000187429
0.000187425
0.000187511
0.000187508
0.000170439
0.000170643
0.000187444
0.000187417
0.000187526
0.000187498
0.00018744
0.000187541
0.000187521
0.000170432
0.000170633
0.000187456
0.000187535
0.000187536
0.00017064
0.000170561
0.000170684
0.000187529
0.000187526
0.000187518
0.000187513
0.000170569
0.000170687
0.000187544
0.000187517
0.000187533
0.000187504
0.000187539
0.000187546
0.000187525
0.000170558
0.000170678
0.000187554
0.00018754
0.000187541
0.000170685
0.00017057
0.000170547
0.000187494
0.000187489
0.000187475
0.000187471
0.000170574
0.000170554
0.000187509
0.000187481
0.00018749
0.000187463
0.000187502
0.000187503
0.000187485
0.000170564
0.000170545
0.000187519
0.000187499
0.000187502
0.000170553
0.000170456
0.000170694
0.000187477
0.000187474
0.000187512
0.000187508
0.000170464
0.000170702
0.000187491
0.000187465
0.000187527
0.0001875
0.000187488
0.000187541
0.000187521
0.000170456
0.000170693
0.000187506
0.000187536
0.000187537
0.000170701
0.000170605
0.000170573
0.000187514
0.000187509
0.000187481
0.000187477
0.000170612
0.000170575
0.000187529
0.000187501
0.000187495
0.000187469
0.000187523
0.00018751
0.000187491
0.000170603
0.000170565
0.000187538
0.000187505
0.000187506
0.000170572
0.000170458
0.000170679
0.000187479
0.000187476
0.000187506
0.000187502
0.000170462
0.00017069
0.000187494
0.000187468
0.000187521
0.000187494
0.00018749
0.000187535
0.000187515
0.000170453
0.000170681
0.000187506
0.000187531
0.000187532
0.000170689
0.000170594
0.000170567
0.000187505
0.000187501
0.000187488
0.000187485
0.000170602
0.000170571
0.000187521
0.000187494
0.000187501
0.000187475
0.000187514
0.000187518
0.000187498
0.000170593
0.000170562
0.000187531
0.000187513
0.000187514
0.00017057
0.00017046
0.000170686
0.00018749
0.000187488
0.000187497
0.000187493
0.000170468
0.000170694
0.000187504
0.000187477
0.000187513
0.000187485
0.000187501
0.000187526
0.000187507
0.000170458
0.000170684
0.000187517
0.00018752
0.000187522
0.000170692
0.000170588
0.000170568
0.000187494
0.00018749
0.000187493
0.000187493
0.000170589
0.000170585
0.00018751
0.000187481
0.000187507
0.000187481
0.000187504
0.000187523
0.000187504
0.000170581
0.000170574
0.000187521
0.000187519
0.000187521
0.000170579
0.000170495
0.000170642
0.000187494
0.000187493
0.000187493
0.000187489
0.000170519
0.00017063
0.000187507
0.000187482
0.000187508
0.000187481
0.000187505
0.000187523
0.000187504
0.000170508
0.00017062
0.000187521
0.000187518
0.00018752
0.000170633
0.00017052
0.000170656
0.000187493
0.00018749
0.000187496
0.000187493
0.00017051
0.000170676
0.000187508
0.000187481
0.000187507
0.000187482
0.000187504
0.000187525
0.000187506
0.0001705
0.000170668
0.00018752
0.000187521
0.000187522
0.000170673
0.000170575
0.000170574
0.000187494
0.00018749
0.000187496
0.000187493
0.000170589
0.00017059
0.000187507
0.000187481
0.000187508
0.000187484
0.000187504
0.000187526
0.000187506
0.000170579
0.000170587
0.00018752
0.000187522
0.000187522
0.000170589
0.0001705
0.000170606
0.000187497
0.000187495
0.000187491
0.000187489
0.000170525
0.000170602
0.000187509
0.000187484
0.000187507
0.00018748
0.000187506
0.000187524
0.000187503
0.000170524
0.000170586
0.000187523
0.000187518
0.000187518
0.000170596
0.000170487
0.000170678
0.000187493
0.000187492
0.000187494
0.00018749
0.000170487
0.000170659
0.000187509
0.000187484
0.000187509
0.00018748
0.000187507
0.000187522
0.000187499
0.000170475
0.000170642
0.000187522
0.000187517
0.000187516
0.000170648
0.000170562
0.00017064
0.000187491
0.000187489
0.000187496
0.000187496
0.000170533
0.00017068
0.000187508
0.000187479
0.00018751
0.000187485
0.000187498
0.000187532
0.000187515
0.000170516
0.000170672
0.000187515
0.000187528
0.00018753
0.000170685
0.000170566
0.000170571
0.000187497
0.000187493
0.000187493
0.000187494
0.000170584
0.000170637
0.00018751
0.000187484
0.000187507
0.000187482
0.000187512
0.000187524
0.000187501
0.000170575
0.000170619
0.000187527
0.000187518
0.000187516
0.000170592
0.000170494
0.000170607
0.000187494
0.000187495
0.000187493
0.000187493
0.000170566
0.00017058
0.000187508
0.000187483
0.000187508
0.000187482
0.000187508
0.000187525
0.000187507
0.00017055
0.000170576
0.000187524
0.000187518
0.000187523
0.000170597
0.000170488
0.00017066
0.000187494
0.000187496
0.000187495
0.000187493
0.000170505
0.000170635
0.000187508
0.000187483
0.000187509
0.000187482
0.000187507
0.000187527
0.000187506
0.000170494
0.000170602
0.000187523
0.00018752
0.000187521
0.000170613
0.000170537
0.000170684
0.000187496
0.000187492
0.000187497
0.000187494
0.000170515
0.000170665
0.00018751
0.000187483
0.00018751
0.000187483
0.000187506
0.000187527
0.000187508
0.000170485
0.000170669
0.000187521
0.000187522
0.000187524
0.000170685
0.000170588
0.000170582
0.000187496
0.000187496
0.000187495
0.000187491
0.000170585
0.000170588
0.00018751
0.000187483
0.000187509
0.000187483
0.000187509
0.000187524
0.000187505
0.000170556
0.000170631
0.000187525
0.000187519
0.00018752
0.000170579
0.00017052
0.000170636
0.000187498
0.000187492
0.000187496
0.000187494
0.000170492
0.000170658
0.000187512
0.000187483
0.00018751
0.000187485
0.000187509
0.000187527
0.000187506
0.000170524
0.000170681
0.000187523
0.000187521
0.000187521
0.00017062
0.000170515
0.000170634
0.000187494
0.000187493
0.000187494
0.000187491
0.000170569
0.000170591
0.000187508
0.000187483
0.000187508
0.000187481
0.000187506
0.000187526
0.000187509
0.000170562
0.000170617
0.000187521
0.000187518
0.000187523
0.000170688
0.000170554
0.000170591
0.000187497
0.000187494
0.000187491
0.000187489
0.000170529
0.000170612
0.000187511
0.000187484
0.000187504
0.000187477
0.00018751
0.000187523
0.000187504
0.000170548
0.000170582
0.000187523
0.000187514
0.000187519
0.000170604
0.000170478
0.000170677
0.000187493
0.000187491
0.000187493
0.000187489
0.000170496
0.000170682
0.000187507
0.00018748
0.000187507
0.000187481
0.000187508
0.000187525
0.000187502
0.000170469
0.000170681
0.000187523
0.000187516
0.000187516
0.0001706
0.000170565
0.000170626
0.000187495
0.000187492
0.000187492
0.000187489
0.000170576
0.000170632
0.000187509
0.000187482
0.000187507
0.000187479
0.000187503
0.000187524
0.000187504
0.000170573
0.000170599
0.000187519
0.000187515
0.00018752
0.000170686
0.000170558
0.000170568
0.000187495
0.000187492
0.000187491
0.000187488
0.000170563
0.000170576
0.000187511
0.000187484
0.000187505
0.000187478
0.000187506
0.000187519
0.000187501
0.000170537
0.000170585
0.000187521
0.000187514
0.000187517
0.000170646
0.000170484
0.000170608
0.000187497
0.000187493
0.00018749
0.000187487
0.000170489
0.00017062
0.000187511
0.000187482
0.000187506
0.00018748
0.000187507
0.000187519
0.000187499
0.000170474
0.000170652
0.000187521
0.000187515
0.000187515
0.000170578
0.000170489
0.000170666
0.000187496
0.000187493
0.000187492
0.000187488
0.0001705
0.000170673
0.000187512
0.000187485
0.000187506
0.000187478
0.000187506
0.000187521
0.000187499
0.000170531
0.000170661
0.000187523
0.000187513
0.000187512
0.000170581
0.000170545
0.000170666
0.0001875
0.000187496
0.000187491
0.000187488
0.000170553
0.000170675
0.000187514
0.000187486
0.000187506
0.000187478
0.000187507
0.000187521
0.0001875
0.000170562
0.000170642
0.000187521
0.000187514
0.000187515
0.000170635
0.000170573
0.000170633
0.000187503
0.000187499
0.000187494
0.00018749
0.000170584
0.000170628
0.000187516
0.000187489
0.000187509
0.00018748
0.00018751
0.000187522
0.000187502
0.000170564
0.000170592
0.000187524
0.000187515
0.000187518
0.00017067
0.000170564
0.000170592
0.000187509
0.000187505
0.000187508
0.000187505
0.000170565
0.000170595
0.000187524
0.000187496
0.000187523
0.000187495
0.000187517
0.000187536
0.000187517
0.000170525
0.000170591
0.000187532
0.000187529
0.000187532
0.000170651
0.000170503
0.000171545
0.000187478
0.000187473
0.000189719
0.000189719
0.000170503
0.00017155
0.000187488
0.000187465
0.000189736
0.000189711
0.000187485
0.000189746
0.000189729
0.000170493
0.000171551
0.000187497
0.000189739
0.000189746
0.00017156
0.000172906
0.000187894
0.000187895
0.000172906
0.00018791
0.000187886
0.00019454
0.00019454
0.000194551
0.000187904
0.000172902
0.00018792
4.01365e-05
4.37969e-06
2.57532e-05
2.58322e-05
6.269e-07
1.81042e-06
1.45223e-06
1.49348e-05
7.69886e-07
2.18127e-06
1.46757e-05
2.08596e-06
2.24393e-06
1.74435e-06
1.90535e-06
1.12609e-06
1.40483e-05
1.07695e-06
1.58198e-05
1.07844e-05
1.30421e-05
1.09038e-06
1.34922e-05
1.00197e-06
1.52837e-05
1.34063e-05
1.35571e-05
1.32866e-05
1.3262e-05
1.31422e-05
1.33351e-05
1.31132e-05
6.2436e-07
7.86239e-07
5.84407e-06
2.02025e-06
6.47997e-07
9.44747e-07
5.80998e-06
1.10469e-05
1.33293e-05
5.99142e-07
5.09809e-06
3.88627e-07
1.84771e-06
6.98339e-07
5.03973e-06
5.08807e-07
1.49798e-06
1.52687e-06
2.24727e-06
1.70463e-06
1.73779e-06
1.35274e-06
1.91555e-05
1.24505e-06
2.15566e-05
1.71157e-05
1.92847e-05
1.35767e-06
1.85626e-05
1.18125e-06
2.09748e-05
1.3237e-05
1.34054e-05
1.31861e-05
1.35784e-05
1.35971e-05
1.36815e-05