/*--------------------------------*- C++ -*----------------------------------*\
| =========                 |                                                 |
| \\      /  F ield         | OpenFOAM: The Open Source CFD Toolbox           |
|  \\    /   O peration     | Version:  v2012                                 |
|   \\  /    A nd           | Website:  www.openfoam.com                      |
|    \\/     M anipulation  |                                                 |
\*---------------------------------------------------------------------------*/
FoamFile
{
    version     2.0;
    format      ascii;
    class       volScalarField;
    location    "225";
    object      p;
}
// * * * * * * * * * * * * * * * * * * * * * * * * * * * * * * * * * * * * * //

dimensions      [0 2 -2 0 0 0 0];


internalField   nonuniform List<scalar> 
171728
(
0.00353357
0.00353265
0.00353269
0.00353345
0.00349779
0.00349656
0.00349657
0.00349936
0.00346002
0.00345827
0.00345821
0.00346045
0.00341566
0.00341415
0.00341407
0.00341639
0.00336725
0.00336581
0.00336573
0.0033682
0.00331869
0.00331733
0.00331736
0.00331972
0.00327073
0.00326947
0.00326945
0.00327187
0.00322336
0.00322215
0.00322218
0.00322465
0.00317706
0.00317593
0.00317598
0.00317846
0.00313179
0.00313081
0.0031308
0.00313331
0.00308742
0.00308652
0.00308657
0.003089
0.0030438
0.00304313
0.00304296
0.00304549
0.0030007
0.00300002
0.00300004
0.00300247
0.00295799
0.00295743
0.0029573
0.0029598
0.00291557
0.00291531
0.00291506
0.00291754
0.00287351
0.00287296
0.002873
0.00287558
0.0028318
0.00283149
0.00283126
0.00283382
0.00279042
0.00279012
0.00279016
0.00279257
0.00274938
0.00274923
0.00274907
0.00275141
0.00270869
0.00270806
0.00270862
0.00271034
0.00266834
0.00266822
0.00266804
0.00267027
0.0026283
0.00262801
0.00262796
0.00262994
0.00258852
0.0025882
0.0025883
0.00259032
0.00254905
0.00254903
0.00254895
0.00255071
0.0025098
0.00250976
0.00250987
0.00251181
0.00247082
0.00247058
0.00247053
0.00247242
0.0024321
0.00243222
0.00243215
0.00243469
0.00239354
0.00239343
0.00239343
0.00239531
0.00235523
0.00235523
0.00235524
0.00235756
0.00231714
0.00231717
0.00231718
0.00231942
0.00227919
0.00227931
0.00227925
0.00228147
0.00224143
0.00224155
0.00224161
0.00224375
0.00220384
0.00220403
0.00220397
0.0022061
0.00216642
0.00216664
0.00216665
0.0021687
0.00212915
0.00212934
0.00212935
0.00213137
0.00209205
0.00209228
0.00209225
0.00209424
0.00205514
0.00205532
0.00205533
0.00205731
0.00201837
0.00201852
0.00201854
0.00202053
0.00198179
0.00198191
0.00198187
0.00198387
0.00194539
0.00194548
0.00194555
0.00194749
0.00190931
0.00190932
0.00190928
0.00191133
0.00187326
0.00187325
0.00187327
0.00187527
0.00183762
0.00183757
0.0018376
0.00183955
0.00180231
0.00180222
0.00180218
0.00180421
0.00176747
0.00176731
0.00176731
0.00176928
0.00173279
0.00173262
0.00173263
0.00173461
0.00169893
0.00169883
0.00169879
0.00170073
0.00166562
0.0016651
0.00166509
0.00166693
0.00163082
0.00163022
0.00163023
0.0016322
0.00159402
0.00159388
0.00159389
0.00159604
0.00155622
0.00155655
0.00155656
0.00155888
0.00151966
0.00152014
0.00152014
0.00152239
0.00148508
0.00148522
0.00148523
0.00148728
0.00145291
0.00145244
0.00145244
0.00145422
0.00142208
0.0014212
0.0014212
0.00142276
0.00139099
0.00139004
0.00139004
0.00139154
0.00135874
0.00135808
0.00135808
0.00135971
0.00132524
0.00132489
0.00132489
0.0013267
0.00129068
0.00129051
0.00129051
0.00129246
0.0012554
0.00125532
0.00125532
0.00125733
0.00121971
0.00121967
0.00121967
0.00122171
0.00118383
0.0011838
0.0011838
0.00118586
0.0011479
0.00114787
0.00114787
0.00114994
0.00111195
0.00111192
0.00111192
0.00111399
0.00107599
0.00107596
0.00107596
0.00107803
0.00104004
0.00104001
0.00104001
0.00104208
0.00100409
0.00100406
0.00100406
0.00100613
0.000968135
0.000968107
0.000968107
0.000970174
0.000932183
0.000932154
0.000932153
0.000934222
0.000896231
0.000896204
0.000896204
0.000898272
0.000860278
0.000860249
0.00086025
0.000862316
0.000824324
0.000824295
0.000824295
0.000826364
0.000788369
0.000788341
0.000788341
0.000790408
0.000752413
0.000752384
0.000752384
0.000754452
0.000716457
0.000716428
0.000716429
0.000718497
0.0006805
0.000680473
0.000680473
0.000682541
0.000644543
0.000644514
0.000644514
0.000646581
0.000608586
0.000608556
0.000608556
0.000610624
0.000572629
0.000572602
0.000572602
0.00057467
0.000536672
0.000536644
0.000536644
0.000538712
0.000500716
0.000500687
0.000500687
0.000502755
0.000464761
0.000464734
0.000464733
0.000466799
0.000428807
0.000428779
0.000428779
0.000430847
0.000392853
0.000392823
0.000392822
0.00039489
0.000356899
0.000356872
0.000356871
0.000358936
0.000320945
0.000320919
0.000320919
0.000322985
0.000284992
0.000284962
0.000284964
0.000287029
0.000249039
0.000249011
0.000249011
0.000251073
0.000213085
0.00021306
0.000213057
0.000215119
0.000177131
0.000177104
0.000177104
0.000179162
0.000141175
0.000141148
0.000141149
0.000143198
0.000105212
0.000105192
0.000105191
0.000107222
6.92529e-05
6.92309e-05
6.92288e-05
7.1225e-05
3.40851e-05
3.35194e-05
3.35165e-05
3.53524e-05
5.8789e-06
6.57378e-06
6.57321e-06
5.01612e-06
0.00353828
0.00353597
0.00353612
0.00353835
0.00353605
0.00353603
0.00354206
0.00354202
0.00354205
0.00354204
0.00353616
0.00353588
0.00353829
0.00353602
0.00353588
0.0035382
0.00353349
0.00350404
0.00353263
0.00353266
0.00350581
0.0035057
0.00353352
0.00350401
0.00353265
0.0035326
0.00350574
0.00350574
0.0035326
0.00350565
0.00350578
0.00353344
0.00350398
0.00353261
0.00350579
0.00350576
0.00350405
0.00349936
0.00346593
0.00349648
0.00349657
0.00346806
0.0034681
0.00349939
0.00346596
0.0034965
0.00349647
0.00346807
0.00346813
0.00349649
0.00346814
0.00346803
0.00349934
0.00346593
0.00349651
0.00346807
0.00346802
0.0034659
0.00346047
0.00342261
0.00345815
0.00345821
0.00342572
0.0034256
0.00346052
0.00342261
0.00345821
0.00345817
0.00342569
0.00342571
0.00345817
0.00342576
0.00342567
0.00346048
0.00342263
0.00345816
0.00342571
0.00342564
0.00342263
0.00341637
0.0033747
0.00341401
0.00341418
0.00337798
0.00337797
0.00341642
0.00337471
0.00341408
0.0034141
0.003378
0.00337796
0.00341408
0.00337803
0.00337797
0.00341639
0.00337471
0.00341409
0.00337804
0.00337796
0.0033747
0.00336822
0.00332612
0.00336574
0.00336581
0.00332931
0.00332936
0.00336826
0.00332614
0.00336577
0.0033658
0.00332933
0.00332938
0.00336573
0.0033294
0.00332932
0.00336822
0.00332612
0.00336575
0.00332929
0.00332932
0.00332612
0.00331973
0.00327821
0.00331727
0.00331727
0.00328138
0.00328141
0.00331976
0.0032782
0.00331729
0.00331729
0.00328141
0.00328142
0.00331728
0.00328143
0.00328137
0.00331973
0.00327821
0.00331726
0.00328146
0.00328136
0.00327819
0.0032719
0.00323087
0.00326947
0.00326948
0.00323393
0.00323399
0.00327189
0.00323082
0.00326946
0.00326942
0.00323396
0.00323396
0.00326946
0.00323387
0.00323391
0.00327189
0.00323088
0.00326946
0.00323391
0.00323392
0.00323085
0.00322467
0.00318452
0.00322219
0.00322224
0.00318745
0.00318746
0.00322463
0.00318451
0.0032222
0.00322216
0.00318747
0.00318748
0.00322218
0.00318742
0.00318746
0.00322468
0.00318451
0.0032222
0.00318741
0.00318747
0.0031845
0.00317849
0.00313924
0.00317603
0.0031761
0.00314208
0.00314211
0.00317847
0.00313922
0.00317605
0.00317603
0.00314208
0.00314206
0.003176
0.00314206
0.00314208
0.00317846
0.00313922
0.00317601
0.00314202
0.00314207
0.00313922
0.00313332
0.00309486
0.00313086
0.0031309
0.00309759
0.00309752
0.00313328
0.00309477
0.00313088
0.00313089
0.00309757
0.00309753
0.00313085
0.00309756
0.00309756
0.0031333
0.00309485
0.00313086
0.00309757
0.00309757
0.0030948
0.00308906
0.00305113
0.00308658
0.00308665
0.00305386
0.0030539
0.00308899
0.00305122
0.00308657
0.00308654
0.00305385
0.00305389
0.00308652
0.00305392
0.00305385
0.00308903
0.00305114
0.00308652
0.00305382
0.00305385
0.00305117
0.00304546
0.00300815
0.00304305
0.00304319
0.00301086
0.00301085
0.00304559
0.00300801
0.00304301
0.00304299
0.0030108
0.00301076
0.00304308
0.00301079
0.00301083
0.00304548
0.0030081
0.00304306
0.00301085
0.00301081
0.00300809
0.00300249
0.00296541
0.003
0.00300012
0.00296793
0.00296804
0.00300236
0.00296526
0.003
0.00299993
0.00296796
0.00296796
0.00300004
0.0029682
0.00296819
0.00300245
0.00296535
0.00300007
0.00296791
0.00296815
0.00296542
0.00295989
0.00292294
0.00295746
0.0029574
0.00292557
0.00292564
0.00295969
0.00292323
0.00295747
0.00295738
0.00292561
0.00292558
0.00295731
0.00292573
0.00292582
0.00295981
0.00292299
0.00295737
0.00292549
0.00292579
0.00292309
0.00291745
0.00288097
0.00291496
0.00291516
0.0028836
0.00288355
0.0029177
0.00288074
0.00291505
0.0029151
0.00288364
0.00288346
0.00291504
0.00288351
0.00288373
0.0029175
0.00288085
0.0029151
0.00288343
0.00288372
0.00288109
0.00287551
0.00283915
0.00287312
0.00287301
0.0028417
0.00284198
0.0028754
0.00283928
0.0028732
0.00287306
0.0028417
0.00284177
0.00287302
0.002842
0.00284208
0.00287545
0.00283904
0.00287307
0.00284186
0.00284207
0.00283926
0.00283383
0.00279768
0.00283145
0.00283155
0.00280027
0.00280039
0.00283385
0.00279764
0.00283153
0.00283135
0.00280023
0.00280046
0.0028314
0.00280038
0.00280073
0.00283366
0.00279778
0.0028314
0.00280056
0.00280074
0.00279785
0.00279243
0.00275654
0.0027901
0.00279004
0.00275918
0.0027593
0.00279236
0.00275676
0.00279009
0.00279009
0.0027592
0.00275931
0.00279041
0.00275932
0.00275906
0.00279243
0.00275646
0.00279036
0.0027593
0.00275905
0.00275679
0.00275128
0.00271577
0.00274906
0.00274922
0.00271861
0.00271843
0.00275153
0.00271561
0.00274895
0.00274888
0.0027186
0.00271873
0.00274912
0.0027184
0.00271876
0.0027512
0.0027159
0.00274903
0.00271871
0.00271872
0.00271548
0.00271058
0.00267531
0.00270849
0.0027081
0.00267813
0.00267843
0.00271036
0.00267516
0.00270846
0.00270856
0.00267807
0.00267796
0.00270841
0.00267838
0.00267806
0.00271074
0.00267535
0.00270838
0.00267797
0.00267801
0.00267534
0.00267018
0.00263517
0.00266817
0.00266828
0.00263802
0.00263782
0.00267021
0.00263511
0.00266813
0.002668
0.00263803
0.00263811
0.0026683
0.00263783
0.00263788
0.00267009
0.00263524
0.00266825
0.0026381
0.00263792
0.00263525
0.00263007
0.00259532
0.00262814
0.00262799
0.00259819
0.00259832
0.00262988
0.00259525
0.00262815
0.00262796
0.00259819
0.00259834
0.00262792
0.00259828
0.00259846
0.00263005
0.0025954
0.00262791
0.00259835
0.00259844
0.0025954
0.00259036
0.00255577
0.0025884
0.0025882
0.00255861
0.00255887
0.0025901
0.00255603
0.0025884
0.00258831
0.00255862
0.00255885
0.00258837
0.00255883
0.00255861
0.00259029
0.00255597
0.00258838
0.00255885
0.00255861
0.00255559
0.00255053
0.00251718
0.00254872
0.00254903
0.00251965
0.00251936
0.0025511
0.00251615
0.00254871
0.00254894
0.00251967
0.00251951
0.00254892
0.00251937
0.00251956
0.00255093
0.00251658
0.00254892
0.00251951
0.00251955
0.00251683
0.00251203
0.00247699
0.00250978
0.0025098
0.00248028
0.00248042
0.00251143
0.00247779
0.00250978
0.00250986
0.00248028
0.00248029
0.00250973
0.00248045
0.00248029
0.00251203
0.00247746
0.00250973
0.00248027
0.00248029
0.0024773
0.00247233
0.00243963
0.00247079
0.00247058
0.00244177
0.00244179
0.00247256
0.00243905
0.00247078
0.00247055
0.00244178
0.00244187
0.00247065
0.00244179
0.00244182
0.00247231
0.00243986
0.00247066
0.00244188
0.00244182
0.00243963
0.00243448
0.00240018
0.00243204
0.00243219
0.00240307
0.00240311
0.00243447
0.00240084
0.00243204
0.00243214
0.00240305
0.00240301
0.00243213
0.0024031
0.00240304
0.00243494
0.00240025
0.00243213
0.00240302
0.00240302
0.00240037
0.00239534
0.00236248
0.00239348
0.00239346
0.00236476
0.0023647
0.00239576
0.00236206
0.00239347
0.00239343
0.00236477
0.00236478
0.00239339
0.00236471
0.00236479
0.00239527
0.00236246
0.00239338
0.00236477
0.0023648
0.00236239
0.00235756
0.00232434
0.00235521
0.00235521
0.00232668
0.0023267
0.00235721
0.00232445
0.00235522
0.00235525
0.00232668
0.00232666
0.00235525
0.00232668
0.00232665
0.0023576
0.00232433
0.00235526
0.00232666
0.00232665
0.00232437
0.00231942
0.00228639
0.00231718
0.00231718
0.00228873
0.00228874
0.00231955
0.00228639
0.00231717
0.00231717
0.00228874
0.00228874
0.00231716
0.00228875
0.00228874
0.00231941
0.00228637
0.00231715
0.00228873
0.00228873
0.00228636
0.00228148
0.00224862
0.00227928
0.00227929
0.00225099
0.00225099
0.00228147
0.00224863
0.00227929
0.00227926
0.00225098
0.00225101
0.00227929
0.00225098
0.002251
0.00228146
0.00224867
0.00227929
0.00225102
0.002251
0.00224866
0.00224372
0.00221101
0.00224157
0.00224156
0.00221339
0.00221339
0.00224373
0.002211
0.00224156
0.00224161
0.0022134
0.00221338
0.00224157
0.00221339
0.00221336
0.00224377
0.00221099
0.00224157
0.00221337
0.00221336
0.002211
0.00220611
0.00217357
0.00220401
0.00220402
0.00217596
0.00217597
0.00220611
0.00217358
0.00220403
0.00220398
0.00217596
0.00217596
0.00220402
0.00217598
0.00217599
0.00220609
0.00217357
0.00220402
0.00217597
0.00217599
0.00217358
0.00216869
0.00213625
0.00216664
0.00216664
0.00213868
0.00213866
0.00216868
0.00213625
0.00216663
0.00216664
0.00213867
0.00213868
0.00216664
0.00213864
0.00213866
0.00216868
0.00213626
0.00216664
0.00213867
0.00213866
0.00213626
0.00213137
0.00209913
0.00212936
0.00212935
0.00210151
0.00210153
0.00213138
0.00209914
0.00212936
0.00212935
0.00210151
0.00210151
0.00212936
0.00210153
0.00210149
0.00213138
0.0020991
0.00212936
0.0021015
0.00210151
0.0020991
0.00209427
0.00206215
0.00209227
0.00209228
0.00206455
0.00206454
0.00209427
0.00206216
0.00209227
0.00209226
0.00206456
0.00206455
0.00209224
0.00206455
0.00206456
0.00209425
0.00206219
0.00209226
0.00206455
0.00206455
0.00206215
0.00205731
0.00202538
0.00205531
0.00205531
0.00202771
0.00202771
0.0020573
0.00202536
0.00205532
0.00205534
0.00202771
0.00202772
0.00205533
0.00202771
0.00202768
0.00205734
0.00202536
0.00205533
0.00202773
0.00202772
0.00202537
0.00202054
0.00198871
0.00201856
0.00201853
0.00199105
0.00199105
0.00202052
0.00198873
0.00201855
0.00201852
0.00199105
0.00199101
0.00201852
0.00199104
0.00199106
0.00202051
0.00198871
0.00201854
0.00199101
0.00199099
0.00198871
0.00198387
0.00195229
0.00198189
0.00198191
0.00195455
0.00195457
0.0019839
0.00195229
0.00198189
0.00198189
0.00195455
0.00195463
0.00198191
0.00195456
0.00195455
0.00198389
0.00195234
0.00198184
0.00195462
0.00195456
0.00195228
0.0019475
0.00191611
0.00194549
0.00194548
0.00191836
0.00191835
0.00194748
0.0019161
0.00194549
0.00194555
0.00191838
0.00191834
0.00194549
0.00191835
0.00191839
0.00194753
0.00191606
0.00194551
0.00191834
0.00191836
0.00191612
0.00191132
0.00188002
0.00190932
0.00190932
0.00188223
0.00188226
0.00191131
0.00188005
0.00190934
0.00190929
0.00188224
0.00188222
0.00190935
0.00188225
0.00188223
0.00191127
0.00188005
0.00190933
0.00188224
0.00188226
0.00188004
0.00187525
0.00184429
0.00187324
0.00187326
0.00184646
0.00184647
0.00187528
0.00184429
0.00187324
0.00187325
0.00184645
0.00184648
0.00187323
0.00184646
0.00184645
0.00187529
0.00184432
0.00187327
0.0018465
0.00184647
0.00184428
0.00183957
0.00180889
0.00183757
0.00183758
0.00181102
0.00181101
0.00183956
0.00180889
0.00183757
0.00183759
0.00181101
0.001811
0.00183756
0.00181101
0.00181099
0.00183959
0.00180886
0.00183757
0.001811
0.001811
0.00180889
0.0018042
0.00177391
0.00180221
0.00180221
0.00177601
0.00177601
0.00180421
0.00177391
0.0018022
0.00180219
0.001776
0.001776
0.0018022
0.00177602
0.00177603
0.00180418
0.00177391
0.0018022
0.001776
0.00177602
0.00177393
0.00176926
0.00173921
0.00176731
0.00176731
0.00174125
0.00174124
0.00176927
0.0017392
0.0017673
0.00176731
0.00174125
0.00174124
0.00176733
0.00174124
0.00174125
0.00176926
0.0017392
0.00176732
0.00174125
0.00174124
0.0017392
0.00173461
0.0017052
0.00173263
0.00173262
0.00170718
0.00170717
0.00173461
0.00170521
0.00173263
0.00173262
0.00170718
0.00170717
0.00173264
0.00170719
0.00170719
0.0017346
0.00170519
0.00173263
0.00170716
0.00170719
0.00170521
0.00170072
0.0016715
0.00169882
0.00169881
0.00167361
0.00167361
0.00170072
0.0016715
0.00169882
0.00169881
0.00167362
0.00167361
0.00169883
0.00167362
0.00167362
0.00170071
0.0016715
0.00169883
0.00167359
0.00167361
0.0016715
0.00166694
0.00163692
0.0016651
0.00166511
0.00163908
0.00163908
0.00166694
0.00163693
0.00166511
0.00166511
0.00163907
0.00163908
0.0016651
0.00163907
0.00163908
0.00166694
0.00163693
0.0016651
0.00163907
0.00163908
0.00163693
0.0016322
0.001601
0.00163024
0.00163022
0.00160313
0.00160313
0.0016322
0.001601
0.00163022
0.00163024
0.00160312
0.00160313
0.00163024
0.00160312
0.00160313
0.0016322
0.00160101
0.00163023
0.00160313
0.00160312
0.001601
0.00159604
0.00156385
0.00159388
0.00159388
0.00156582
0.00156582
0.00159604
0.00156384
0.00159388
0.00159388
0.00156582
0.00156583
0.00159388
0.00156582
0.00156582
0.00159604
0.00156385
0.00159388
0.00156583
0.00156582
0.00156384
0.00155888
0.00152721
0.00155655
0.00155655
0.00152913
0.00152913
0.00155887
0.00152721
0.00155655
0.00155656
0.00152913
0.00152914
0.00155655
0.00152913
0.00152913
0.00155888
0.00152721
0.00155655
0.00152914
0.00152913
0.00152721
0.00152239
0.00149186
0.00152014
0.00152014
0.00149376
0.00149376
0.00152238
0.00149186
0.00152014
0.00152014
0.00149376
0.00149376
0.00152014
0.00149376
0.00149376
0.00152239
0.00149186
0.00152014
0.00149376
0.00149376
0.00149186
0.00148728
0.00145852
0.00148522
0.00148522
0.00146042
0.00146042
0.00148728
0.00145852
0.00148523
0.00148523
0.00146041
0.00146042
0.00148522
0.00146042
0.00146041
0.00148728
0.00145852
0.00148522
0.00146042
0.00146042
0.00145852
0.00145422
0.00142695
0.00145244
0.00145244
0.00142896
0.00142896
0.00145422
0.00142695
0.00145244
0.00145244
0.00142896
0.00142896
0.00145244
0.00142896
0.00142896
0.00145422
0.00142695
0.00145244
0.00142896
0.00142896
0.00142695
0.00142276
0.00139576
0.0014212
0.0014212
0.00139788
0.00139787
0.00142276
0.00139576
0.0014212
0.0014212
0.00139787
0.00139787
0.0014212
0.00139788
0.00139788
0.00142276
0.00139576
0.0014212
0.00139787
0.00139787
0.00139576
0.00139154
0.00136408
0.00139004
0.00139004
0.00136618
0.00136617
0.00139154
0.00136407
0.00139004
0.00139004
0.00136618
0.00136618
0.00139004
0.00136617
0.00136618
0.00139154
0.00136407
0.00139004
0.00136618
0.00136618
0.00136407
0.00135971
0.00133125
0.00135808
0.00135808
0.00133331
0.00133331
0.00135971
0.00133125
0.00135808
0.00135808
0.00133331
0.00133331
0.00135808
0.00133331
0.00133331
0.00135971
0.00133125
0.00135808
0.00133331
0.00133331
0.00133125
0.0013267
0.00129715
0.00132489
0.00132489
0.0012992
0.0012992
0.0013267
0.00129715
0.00132489
0.00132489
0.0012992
0.0012992
0.00132489
0.0012992
0.0012992
0.0013267
0.00129715
0.00132489
0.0012992
0.0012992
0.00129715
0.00129246
0.00126212
0.00129051
0.00129051
0.00126417
0.00126417
0.00129246
0.00126212
0.00129051
0.00129051
0.00126417
0.00126417
0.00129051
0.00126417
0.00126417
0.00129246
0.00126212
0.00129051
0.00126417
0.00126417
0.00126212
0.00125733
0.00122655
0.00125532
0.00125532
0.00122861
0.00122861
0.00125733
0.00122655
0.00125532
0.00125532
0.00122861
0.00122861
0.00125532
0.00122861
0.00122861
0.00125733
0.00122655
0.00125532
0.00122861
0.00122861
0.00122655
0.00122171
0.00119072
0.00121967
0.00121967
0.00119278
0.00119278
0.00122171
0.00119072
0.00121967
0.00121967
0.00119278
0.00119278
0.00121967
0.00119278
0.00119278
0.00122171
0.00119072
0.00121967
0.00119278
0.00119278
0.00119072
0.00118586
0.0011548
0.0011838
0.0011838
0.00115685
0.00115685
0.00118586
0.0011548
0.0011838
0.0011838
0.00115685
0.00115685
0.0011838
0.00115685
0.00115685
0.00118586
0.0011548
0.0011838
0.00115685
0.00115685
0.0011548
0.00114994
0.00111885
0.00114787
0.00114787
0.00112091
0.00112091
0.00114994
0.00111885
0.00114787
0.00114787
0.00112091
0.00112091
0.00114787
0.00112091
0.00112091
0.00114994
0.00111885
0.00114787
0.00112091
0.00112091
0.00111885
0.00111399
0.00108289
0.00111192
0.00111192
0.00108495
0.00108495
0.00111399
0.00108289
0.00111192
0.00111192
0.00108495
0.00108495
0.00111192
0.00108495
0.00108495
0.00111399
0.00108289
0.00111192
0.00108495
0.00108495
0.00108289
0.00107803
0.00104694
0.00107596
0.00107596
0.001049
0.001049
0.00107803
0.00104694
0.00107596
0.00107596
0.001049
0.001049
0.00107596
0.001049
0.001049
0.00107803
0.00104694
0.00107596
0.001049
0.001049
0.00104694
0.00104208
0.00101099
0.00104001
0.00104001
0.00101305
0.00101305
0.00104208
0.00101099
0.00104001
0.00104001
0.00101305
0.00101305
0.00104001
0.00101305
0.00101305
0.00104208
0.00101099
0.00104001
0.00101305
0.00101305
0.00101099
0.00100613
0.000975036
0.00100406
0.00100406
0.000977092
0.000977092
0.00100613
0.000975037
0.00100406
0.00100406
0.000977092
0.000977092
0.00100406
0.000977092
0.000977093
0.00100613
0.000975036
0.00100406
0.000977092
0.000977092
0.000975036
0.000970174
0.000939087
0.000968106
0.000968107
0.000941144
0.000941144
0.000970174
0.000939087
0.000968106
0.000968106
0.000941144
0.000941144
0.000968107
0.000941144
0.000941144
0.000970174
0.000939087
0.000968107
0.000941143
0.000941143
0.000939087
0.000934222
0.000903134
0.000932154
0.000932154
0.000905191
0.000905191
0.000934222
0.000903135
0.000932154
0.000932154
0.00090519
0.00090519
0.000932154
0.000905191
0.000905191
0.000934221
0.000903134
0.000932153
0.000905191
0.000905191
0.000903134
0.000898271
0.00086718
0.000896204
0.000896204
0.000869237
0.000869237
0.000898272
0.00086718
0.000896204
0.000896204
0.000869237
0.000869237
0.000896204
0.000869237
0.000869237
0.000898272
0.00086718
0.000896204
0.000869238
0.000869238
0.000867181
0.000862316
0.000831229
0.000860249
0.000860249
0.000833285
0.000833285
0.000862315
0.000831229
0.000860249
0.000860249
0.000833284
0.000833285
0.000860249
0.000833285
0.000833285
0.000862316
0.000831229
0.00086025
0.000833284
0.000833284
0.000831229
0.000826364
0.000795272
0.000824295
0.000824295
0.000797329
0.000797329
0.000826364
0.000795272
0.000824295
0.000824295
0.000797329
0.000797329
0.000824295
0.000797329
0.00079733
0.000826364
0.000795272
0.000824295
0.00079733
0.000797329
0.000795272
0.000790408
0.000759317
0.000788341
0.000788341
0.000761373
0.000761373
0.000790408
0.000759317
0.000788341
0.000788341
0.000761373
0.000761373
0.000788341
0.000761373
0.000761373
0.000790408
0.000759316
0.000788341
0.000761373
0.000761373
0.000759316
0.000754452
0.000723362
0.000752384
0.000752384
0.000725419
0.000725419
0.000754451
0.000723363
0.000752385
0.000752384
0.000725418
0.000725418
0.000752384
0.000725419
0.000725419
0.000754451
0.000723362
0.000752384
0.000725419
0.000725419
0.000723362
0.000718498
0.000687404
0.000716429
0.000716429
0.000689461
0.000689461
0.000718497
0.000687404
0.000716428
0.000716428
0.000689461
0.000689461
0.000716429
0.000689461
0.000689461
0.000718497
0.000687404
0.000716429
0.000689461
0.000689461
0.000687404
0.00068254
0.000651445
0.000680473
0.000680473
0.000653502
0.000653502
0.00068254
0.000651445
0.000680472
0.000680473
0.000653503
0.000653502
0.000680473
0.000653502
0.000653502
0.000682541
0.000651445
0.000680473
0.000653502
0.000653502
0.000651445
0.000646581
0.00061549
0.000644513
0.000644514
0.000617547
0.000617546
0.000646581
0.00061549
0.000644514
0.000644514
0.000617546
0.000617546
0.000644514
0.000617547
0.000617548
0.000646581
0.000615489
0.000644513
0.000617547
0.000617547
0.00061549
0.000610625
0.000579534
0.000608557
0.000608556
0.00058159
0.000581591
0.000610623
0.000579534
0.000608557
0.000608556
0.000581589
0.00058159
0.000608556
0.00058159
0.00058159
0.000610623
0.000579533
0.000608556
0.00058159
0.00058159
0.000579534
0.000574669
0.000543575
0.000572601
0.0005726
0.000545633
0.000545634
0.000574668
0.000543577
0.0005726
0.0005726
0.000545632
0.000545633
0.000572603
0.000545632
0.000545631
0.000574668
0.000543577
0.000572602
0.000545631
0.000545631
0.000543576
0.000538711
0.000507619
0.000536644
0.000536645
0.000509677
0.000509676
0.000538712
0.000507619
0.000536643
0.000536644
0.000509677
0.000509677
0.000536644
0.000509676
0.000509677
0.000538712
0.000507619
0.000536643
0.000509676
0.000509676
0.000507619
0.000502755
0.000471663
0.000500688
0.000500688
0.000473721
0.000473721
0.000502754
0.000471665
0.000500688
0.000500689
0.00047372
0.00047372
0.000500688
0.000473722
0.000473722
0.000502756
0.000471663
0.000500687
0.000473722
0.000473722
0.000471664
0.000466798
0.000435711
0.000464733
0.000464734
0.000437766
0.000437765
0.0004668
0.00043571
0.000464732
0.000464733
0.000437766
0.000437765
0.000464734
0.000437765
0.000437766
0.000466799
0.000435709
0.000464733
0.000437766
0.000437766
0.000435711
0.000430847
0.000399754
0.000428779
0.000428778
0.000401811
0.000401812
0.000430846
0.000399756
0.000428778
0.000428777
0.000401812
0.000401812
0.00042878
0.000401811
0.00040181
0.000430845
0.000399754
0.00042878
0.000401811
0.00040181
0.000399754
0.00039489
0.000363804
0.000392823
0.000392823
0.00036586
0.00036586
0.00039489
0.000363805
0.000392823
0.000392823
0.00036586
0.00036586
0.000392823
0.00036586
0.00036586
0.000394889
0.000363804
0.000392823
0.00036586
0.000365859
0.000363802
0.000358938
0.000327848
0.000356871
0.000356872
0.000329905
0.000329904
0.000358939
0.000327848
0.000356872
0.000356872
0.000329904
0.000329904
0.00035687
0.000329904
0.000329905
0.000358938
0.000327848
0.000356869
0.000329905
0.000329906
0.00032785
0.000322984
0.000291894
0.000320919
0.000320918
0.00029395
0.00029395
0.000322983
0.000291894
0.000320919
0.000320919
0.00029395
0.00029395
0.00032092
0.00029395
0.000293949
0.000322984
0.000291894
0.000320919
0.00029395
0.00029395
0.000291894
0.000287028
0.000255943
0.000284964
0.000284964
0.000257997
0.000257996
0.000287027
0.000255944
0.000284964
0.000284964
0.000257997
0.000257997
0.000284964
0.000257999
0.000257998
0.000287028
0.000255943
0.000284965
0.000257997
0.000257996
0.000255941
0.000251075
0.00021999
0.000249011
0.000249011
0.000222043
0.000222043
0.000251074
0.00021999
0.000249011
0.000249011
0.000222042
0.000222041
0.00024901
0.000222043
0.000222044
0.000251075
0.000219988
0.000249009
0.000222042
0.000222044
0.00021999
0.00021512
0.000184036
0.000213058
0.000213058
0.000186088
0.000186088
0.00021512
0.000184036
0.000213057
0.000213057
0.000186088
0.000186088
0.000213059
0.000186086
0.000186088
0.000215119
0.000184035
0.000213057
0.000186089
0.00018609
0.000184038
0.00017916
0.000148083
0.000177104
0.000177104
0.000150133
0.000150133
0.00017916
0.000148083
0.000177104
0.000177103
0.000150132
0.000150133
0.000177105
0.000150132
0.000150131
0.00017916
0.000148082
0.000177105
0.000150132
0.000150131
0.000148083
0.000143196
0.000112129
0.000141149
0.000141149
0.000114173
0.000114174
0.000143195
0.00011213
0.00014115
0.00014115
0.000114172
0.000114172
0.000141149
0.000114174
0.000114173
0.000143196
0.000112129
0.000141151
0.000114173
0.000114172
0.000112129
0.000107221
7.617e-05
0.000105192
0.000105192
7.82073e-05
7.82072e-05
0.000107221
7.61712e-05
0.000105191
0.000105191
7.8208e-05
7.82074e-05
0.000105192
7.82087e-05
7.82069e-05
0.000107221
7.61702e-05
0.000105191
7.82079e-05
7.82078e-05
7.61689e-05
7.12251e-05
4.0264e-05
6.92295e-05
6.92294e-05
4.23001e-05
4.23009e-05
7.12256e-05
4.02652e-05
6.92283e-05
6.92282e-05
4.22989e-05
4.22978e-05
6.92292e-05
4.22987e-05
4.22971e-05
7.12257e-05
4.02615e-05
6.92284e-05
4.22968e-05
4.22966e-05
4.02605e-05
3.53563e-05
8.16842e-06
3.352e-05
3.35205e-05
1.11109e-05
1.11107e-05
3.53568e-05
8.16865e-06
3.35193e-05
3.35173e-05
1.11118e-05
1.11055e-05
3.35161e-05
1.11103e-05
1.11042e-05
3.5354e-05
8.16504e-06
3.35159e-05
1.11086e-05
1.11095e-05
8.16403e-06
5.01922e-06
6.57384e-06
6.57361e-06
5.02021e-06
6.57356e-06
6.56985e-06
5.87864e-06
5.87799e-06
5.87722e-06
6.56907e-06
5.01802e-06
6.5727e-06
0.00354537
0.00354811
0.00354688
0.0035469
0.00357335
0.00354834
0.00357744
0.00354832
0.00357328
0.00354832
0.00354826
0.00357791
0.00355891
0.00358044
0.00358045
0.00351753
0.00353131
0.00353528
0.00350983
0.003508
0.00351316
0.00351746
0.00353124
0.00353528
0.00350977
0.00353353
0.00353356
0.00353357
0.00350678
0.00350673
0.00350677
0.00350681
0.00351717
0.0035291
0.00353411
0.00352446
0.00353631
0.00351417
0.00352485
0.00350803
0.00351314
0.00351717
0.00353414
0.00352946
0.00352464
0.00353629
0.00352492
0.00351431
0.00353509
0.0035353
0.00352201
0.00351422
0.00351426
0.00349011
0.00350415
0.0035041
0.00348816
0.00350132
0.00348724
0.00348999
0.00350424
0.00350413
0.00348812
0.00349774
0.00349777
0.00349782
0.00347
0.00346992
0.00346996
0.00347003
0.00348785
0.00350282
0.00349643
0.00348713
0.00350123
0.00348847
0.00348709
0.00350147
0.00348711
0.00348786
0.00349641
0.00350284
0.00348707
0.00350123
0.00348709
0.00348842
0.0035045
0.00350451
0.00348561
0.00348877
0.00348874
0.00344784
0.00346256
0.00346347
0.00344656
0.00346142
0.00344568
0.00344781
0.00346256
0.0034634
0.00344658
0.00345994
0.00345998
0.00346005
0.00342735
0.00342727
0.00342733
0.00342739
0.00344661
0.00346228
0.00345819
0.00344775
0.00346118
0.00344707
0.00344774
0.00346137
0.00344566
0.00344662
0.00345819
0.00346225
0.00344772
0.00346118
0.00344774
0.00344702
0.00346284
0.00346281
0.00344507
0.00344693
0.0034469
0.00340126
0.00341794
0.00341941
0.0033999
0.00341714
0.00339946
0.00340125
0.00341791
0.00341937
0.00339989
0.0034156
0.00341563
0.0034157
0.00337946
0.00337937
0.00337943
0.00337948
0.0034004
0.00341783
0.00341409
0.00340226
0.00341715
0.00340054
0.00340217
0.00341715
0.0033994
0.00340042
0.00341407
0.00341777
0.00340227
0.00341715
0.00340218
0.00340052
0.00341798
0.00341798
0.00339894
0.00340007
0.00340006
0.00335214
0.00336935
0.00337074
0.00335105
0.0033689
0.00335065
0.00335212
0.00336936
0.00337074
0.00335102
0.00336717
0.00336721
0.00336726
0.00333077
0.00333069
0.00333074
0.0033308
0.00335173
0.00336939
0.00336577
0.00335363
0.00336902
0.0033517
0.00335361
0.00336891
0.00335076
0.00335175
0.00336576
0.00336933
0.00335362
0.00336902
0.00335361
0.00335177
0.0033694
0.00336939
0.00335033
0.00335112
0.00335115
0.00330326
0.00332058
0.00332164
0.00330251
0.00332035
0.0033023
0.00330334
0.00332058
0.00332157
0.00330252
0.00331862
0.00331867
0.00331872
0.00328268
0.00328261
0.00328265
0.00328269
0.00330327
0.00332065
0.00331731
0.00330534
0.00332038
0.00330314
0.00330535
0.00332028
0.00330233