/*--------------------------------*- C++ -*----------------------------------*\
| =========                 |                                                 |
| \\      /  F ield         | OpenFOAM: The Open Source CFD Toolbox           |
|  \\    /   O peration     | Version:  v2012                                 |
|   \\  /    A nd           | Website:  www.openfoam.com                      |
|    \\/     M anipulation  |                                                 |
\*---------------------------------------------------------------------------*/
FoamFile
{
    version     2.0;
    format      ascii;
    class       volScalarField;
    location    "200";
    object      epsilon;
}
// * * * * * * * * * * * * * * * * * * * * * * * * * * * * * * * * * * * * * //

dimensions      [0 2 -3 0 0 0 0];


internalField   nonuniform List<scalar> 
171728
(
2.70145e-07
7.79332e-07
1.07126e-06
7.80108e-07
7.80249e-07
7.79725e-07
1.06977e-06
9.03115e-06
9.03452e-06
4.06903e-06
2.69999e-07
1.81918e-05
3.42571e-06
1.81935e-05
1.81962e-05
5.4111e-06
5.41305e-06
3.42545e-06
3.42671e-06
4.80963e-07
2.05119e-06
9.03149e-06
4.06916e-06
4.80898e-07
3.42675e-06
2.05142e-06
5.41292e-06
5.4112e-06
1.81919e-05
9.03096e-06
9.0326e-06
7.06441e-06
2.18327e-05
2.18428e-05
9.03597e-06
7.0671e-06
7.06679e-06
2.18362e-05
1.2066e-05
4.06921e-06
4.72685e-06
1.06939e-05
4.72691e-06
1.06954e-05
1.2064e-05
1.81961e-05
1.81975e-05
1.82001e-05
4.4919e-06
2.75992e-06
5.41109e-06
9.3523e-06
9.35395e-06
2.76003e-06
4.49203e-06
4.49866e-06
2.7613e-06
5.413e-06
9.35702e-06
9.35927e-06
2.76089e-06
4.49875e-06
9.67885e-06
2.15029e-05
2.15028e-05
2.15085e-05
2.15083e-05
9.67988e-06
2.1839e-05
9.03365e-06
7.0653e-06
7.06479e-06
2.18323e-05
1.20653e-05
4.06931e-06
1.06937e-05
4.72705e-06
1.06952e-05
4.72697e-06
1.20636e-05
4.49901e-06
2.76095e-06
5.41279e-06
9.355e-06
9.35751e-06
2.76104e-06
4.49905e-06
4.49289e-06
2.76038e-06
5.41122e-06
9.35138e-06
2.76021e-06
9.35337e-06
4.49297e-06
9.67936e-06
2.15008e-05
2.15013e-05
2.15067e-05
2.15072e-05
9.68011e-06
1.81959e-05
9.03237e-06
1.40047e-07
2.61734e-06
1.70469e-06
1.7054e-06
1.06993e-06
1.70412e-06
1.70473e-06
2.61816e-06
2.61655e-06
1.70479e-06
1.70438e-06
1.06874e-06
1.704e-06
1.70428e-06
2.61663e-06
1.40143e-07
1.54389e-06
1.96898e-06
3.4259e-06
2.81626e-06
1.96867e-06
2.81627e-06
1.54457e-06
1.54296e-06
1.96991e-06
3.42556e-06
2.81599e-06
2.81597e-06
1.96958e-06
1.54536e-06
1.54464e-06
1.96998e-06
3.42691e-06
2.81763e-06
2.81735e-06
1.96968e-06
1.54531e-06
1.33717e-06
2.05182e-06
2.31735e-06
1.19589e-06
2.31771e-06
1.19522e-06
1.33889e-06
1.54426e-06
1.97012e-06
3.42686e-06
2.81738e-06
2.81729e-06
1.96982e-06
1.54492e-06
1.3368e-06
2.05188e-06
1.19603e-06
2.31713e-06
1.19529e-06
2.31785e-06
1.339e-06
4.9557e-07
4.97418e-07
4.97413e-07
4.99628e-07
4.45583e-07
4.53899e-07
4.53904e-07
4.63986e-07
4.03776e-07
4.18692e-07
4.18699e-07
4.39638e-07
3.68393e-07
3.88698e-07
3.88703e-07
4.17727e-07
3.38043e-07
3.62189e-07
3.62195e-07
3.95982e-07
3.11664e-07
3.38293e-07
3.38303e-07
3.74279e-07
2.88476e-07
3.16595e-07
3.16607e-07
3.53265e-07
2.67908e-07
2.96924e-07
2.96935e-07
3.33616e-07
2.49548e-07
2.79226e-07
2.79235e-07
3.16083e-07
2.3309e-07
2.63495e-07
2.63505e-07
3.00664e-07
2.18304e-07
2.49734e-07
2.49747e-07
2.87618e-07
2.05014e-07
2.37941e-07
2.37958e-07
2.7772e-07
1.93079e-07
2.28119e-07
2.28139e-07
2.7108e-07
1.82388e-07
2.20273e-07
2.20297e-07
2.67442e-07
1.72852e-07
2.14406e-07
2.14433e-07
2.66891e-07
1.64396e-07
2.10532e-07
2.10557e-07
2.69675e-07
1.56956e-07
2.08655e-07
2.0868e-07
2.75811e-07
1.50481e-07
2.08784e-07
2.08809e-07
2.85614e-07
1.44926e-07
2.10977e-07
2.10997e-07
2.98367e-07
1.40256e-07
2.15243e-07
2.15259e-07
3.14602e-07
1.3644e-07
2.21601e-07
2.2162e-07
3.34327e-07
1.33456e-07
2.30069e-07
2.30089e-07
3.57683e-07
1.3128e-07
2.40629e-07
2.40659e-07
3.83588e-07
1.29899e-07
2.53266e-07
2.53302e-07
4.12939e-07
1.29298e-07
2.67939e-07
2.67978e-07
4.43976e-07
1.29468e-07
2.84581e-07
2.84625e-07
4.77262e-07
1.30405e-07
3.03106e-07
3.03152e-07
5.12301e-07
1.32104e-07
3.23402e-07
3.23449e-07
5.48981e-07
1.34562e-07
3.45342e-07
3.45394e-07
5.86199e-07
1.37781e-07
3.68777e-07
3.68833e-07
6.23428e-07
1.41755e-07
3.93536e-07
3.93595e-07
6.60667e-07
1.46481e-07
4.19427e-07
4.19489e-07
6.97936e-07
1.51954e-07
4.46244e-07
4.46325e-07
7.34615e-07
1.58161e-07
4.73775e-07
4.73878e-07
7.69989e-07
1.65077e-07
5.01789e-07
5.0191e-07
8.03711e-07
1.72661e-07
5.30071e-07
5.30196e-07
8.3603e-07
1.80851e-07
5.5837e-07
5.5849e-07
8.66918e-07
1.89557e-07
5.86373e-07
5.86496e-07
8.95873e-07
1.98652e-07
6.13707e-07
6.13852e-07
9.22805e-07
2.07956e-07
6.3988e-07
6.40099e-07
9.48097e-07
2.17236e-07
6.64354e-07
6.647e-07
9.70984e-07
2.26267e-07
6.86785e-07
6.87225e-07
9.91363e-07
2.34908e-07
7.07015e-07
7.07571e-07
1.00945e-06
2.43046e-07
7.25029e-07
7.25807e-07
1.02614e-06
2.50617e-07
7.40882e-07
7.41798e-07
1.04019e-06
2.57599e-07
7.54902e-07
7.55756e-07
1.05207e-06
2.63905e-07
7.66855e-07
7.6764e-07
1.06258e-06
5.06413e-07
5.05554e-07
5.05554e-07
5.0641e-07
5.05551e-07
5.05555e-07
5.09644e-07
5.09644e-07
5.09644e-07
5.09644e-07
5.05554e-07
5.05547e-07
5.06417e-07
5.05559e-07
5.05543e-07
5.06399e-07
4.99651e-07
4.67478e-07
4.97418e-07
4.9741e-07
4.63851e-07
4.63846e-07
4.99617e-07
4.67445e-07
4.97423e-07
4.97415e-07
4.63863e-07
4.63853e-07
4.97416e-07
4.63855e-07
4.63859e-07
4.99627e-07
4.67459e-07
4.97423e-07
4.63859e-07
4.63871e-07
4.67474e-07
4.63994e-07
4.41659e-07
4.539e-07
4.53895e-07
4.26923e-07
4.26915e-07
4.63962e-07
4.41616e-07
4.53913e-07
4.53902e-07
4.26926e-07
4.26927e-07
4.53911e-07
4.26911e-07
4.26929e-07
4.63976e-07
4.41648e-07
4.5392e-07
4.26919e-07
4.26928e-07
4.4164e-07
4.39655e-07
4.19387e-07
4.18706e-07
4.18698e-07
3.95838e-07
3.95832e-07
4.3962e-07
4.19364e-07
4.18707e-07
4.18712e-07
3.95832e-07
3.95846e-07
4.18711e-07
3.95823e-07
3.95841e-07
4.39644e-07
4.19378e-07
4.18707e-07
3.95828e-07
3.95829e-07
4.19354e-07
4.17724e-07
3.97574e-07
3.88716e-07
3.88709e-07
3.68568e-07
3.68563e-07
4.17686e-07
3.97571e-07
3.88708e-07
3.88722e-07
3.68559e-07
3.68572e-07
3.88719e-07
3.68549e-07
3.68572e-07
4.17699e-07
3.97602e-07
3.88704e-07
3.68554e-07
3.68551e-07
3.97533e-07
3.96014e-07
3.75803e-07
3.6221e-07
3.62206e-07
3.44073e-07
3.44072e-07
3.95921e-07
3.75889e-07
3.62201e-07
3.62215e-07
3.44061e-07
3.44078e-07
3.62214e-07
3.44051e-07
3.44081e-07
3.95911e-07
3.75907e-07
3.62192e-07
3.4406e-07
3.44055e-07
3.75844e-07
3.74383e-07
3.54713e-07
3.38315e-07
3.38315e-07
3.21847e-07
3.21851e-07
3.74264e-07
3.5472e-07
3.38303e-07
3.38322e-07
3.21831e-07
3.21857e-07
3.38325e-07
3.21827e-07
3.21862e-07
3.7427e-07
3.54736e-07
3.38298e-07
3.21839e-07
3.21833e-07
3.54857e-07
3.53396e-07
3.34913e-07
3.16615e-07
3.1662e-07
3.01675e-07
3.01681e-07
3.53381e-07
3.34876e-07
3.16597e-07
3.16628e-07
3.01654e-07
3.01691e-07
3.16632e-07
3.01657e-07
3.01694e-07
3.53433e-07
3.3492e-07
3.16601e-07
3.01668e-07
3.01661e-07
3.35048e-07
3.33688e-07
3.1695e-07
2.96942e-07
2.96948e-07
2.83486e-07
2.8349e-07
3.33744e-07
3.16926e-07
2.96921e-07
2.96958e-07
2.83462e-07
2.83501e-07
2.96962e-07
2.83467e-07
2.83505e-07
3.33746e-07
3.17096e-07
2.96928e-07
2.83477e-07
2.8347e-07
3.16953e-07
3.15989e-07
3.01265e-07
2.79246e-07
2.79248e-07
2.67266e-07
2.67266e-07
3.16009e-07
3.01449e-07
2.79222e-07
2.7926e-07
2.67242e-07
2.67275e-07
2.79263e-07
2.67242e-07
2.67281e-07
3.15877e-07
3.01439e-07
2.79228e-07
2.67252e-07
2.67247e-07
3.01272e-07
3.0061e-07
2.8843e-07
2.63517e-07
2.63516e-07
2.53017e-07
2.53016e-07
3.00378e-07
2.88239e-07
2.63494e-07
2.63527e-07
2.52994e-07
2.53024e-07
2.63533e-07
2.52989e-07
2.53028e-07
3.0045e-07
2.88446e-07
2.63498e-07
2.53002e-07
2.52996e-07
2.88428e-07
2.8761e-07
2.78227e-07
2.49759e-07
2.49759e-07
2.4073e-07
2.40734e-07
2.87878e-07
2.77993e-07
2.49738e-07
2.49769e-07
2.40711e-07
2.40744e-07
2.4977e-07
2.40705e-07
2.40739e-07
2.87657e-07
2.78178e-07
2.49739e-07
2.40721e-07
2.40711e-07
2.78224e-07
2.77751e-07
2.70972e-07
2.37964e-07
2.3797e-07
2.30408e-07
2.3042e-07
2.77902e-07
2.71047e-07
2.37948e-07
2.37981e-07
2.30395e-07
2.30433e-07
2.37973e-07
2.30387e-07
2.30412e-07
2.77863e-07
2.71202e-07
2.37947e-07
2.30408e-07
2.30394e-07
2.71183e-07
2.71255e-07
2.671e-07
2.28135e-07
2.28151e-07
2.22061e-07
2.22081e-07
2.71271e-07
2.67177e-07
2.28128e-07
2.28166e-07
2.22056e-07
2.22098e-07
2.28141e-07
2.22046e-07
2.22062e-07
2.71152e-07
2.67204e-07
2.28125e-07
2.2207e-07
2.22051e-07
2.67172e-07
2.67417e-07
2.66238e-07
2.20283e-07
2.20309e-07
2.15689e-07
2.15718e-07
2.67457e-07
2.66278e-07
2.20284e-07
2.20327e-07
2.15692e-07
2.15739e-07
2.20287e-07
2.15679e-07
2.15689e-07
2.67501e-07
2.66288e-07
2.20279e-07
2.15705e-07
2.15688e-07
2.66248e-07
2.66891e-07
2.68365e-07
2.14413e-07
2.14447e-07
2.11307e-07
2.11344e-07
2.6691e-07
2.68371e-07
2.14419e-07
2.14469e-07
2.11315e-07
2.11367e-07
2.14415e-07
2.11301e-07
2.11307e-07
2.66938e-07
2.68417e-07
2.14415e-07
2.11327e-07
2.11309e-07
2.68365e-07
2.69681e-07
2.73821e-07
2.10537e-07
2.10579e-07
2.08918e-07
2.08964e-07
2.69702e-07
2.73815e-07
2.10546e-07
2.10599e-07
2.08926e-07
2.08989e-07
2.10536e-07
2.08915e-07
2.08918e-07
2.69728e-07
2.73859e-07
2.1054e-07
2.08938e-07
2.08927e-07
2.73812e-07
2.75783e-07
2.82781e-07
2.08659e-07
2.08706e-07
2.08581e-07
2.08627e-07
2.75817e-07
2.82584e-07
2.08669e-07
2.08731e-07
2.0859e-07
2.08656e-07
2.08661e-07
2.08578e-07
2.08583e-07
2.75851e-07
2.82871e-07
2.08668e-07
2.08602e-07
2.08597e-07
2.82303e-07
2.8517e-07
2.94815e-07
2.0879e-07
2.08844e-07
2.10241e-07
2.10297e-07
2.85335e-07
2.94668e-07
2.08799e-07
2.08873e-07
2.10246e-07
2.10329e-07
2.08796e-07
2.10234e-07
2.1025e-07
2.85259e-07
2.94951e-07
2.08802e-07
2.10254e-07
2.10261e-07
2.94537e-07
2.98027e-07
3.10191e-07
2.10986e-07
2.11043e-07
2.14001e-07
2.1406e-07
2.98242e-07
3.10227e-07
2.1099e-07
2.11074e-07
2.13999e-07
2.14088e-07
2.10995e-07
2.13981e-07
2.14011e-07
2.98105e-07
3.10624e-07
2.10999e-07
2.13998e-07
2.1401e-07
3.10228e-07
3.14561e-07
3.29328e-07
2.15261e-07
2.15321e-07
2.19848e-07
2.1992e-07
3.14607e-07
3.29309e-07
2.15261e-07
2.15348e-07
2.19842e-07
2.1994e-07
2.15267e-07
2.19821e-07
2.19861e-07
3.14401e-07
3.28965e-07
2.15266e-07
2.19836e-07
2.19859e-07
3.29285e-07
3.34397e-07
3.51663e-07
2.21625e-07
2.21696e-07
2.27799e-07
2.27881e-07
3.34376e-07
3.51173e-07
2.2162e-07
2.21713e-07
2.27789e-07
2.279e-07
2.21632e-07
2.2776e-07
2.27812e-07
3.34607e-07
3.51151e-07
2.21628e-07
2.27779e-07
2.2781e-07
3.50991e-07
3.57349e-07
3.76547e-07
2.30095e-07
2.30176e-07
2.37851e-07
2.37938e-07
3.5768e-07
3.76805e-07
2.30084e-07
2.30194e-07
2.37832e-07
2.37955e-07
2.30103e-07
2.37794e-07
2.37866e-07
3.57738e-07
3.7666e-07
2.30098e-07
2.37821e-07
2.37856e-07
3.76699e-07
3.83688e-07
4.05423e-07
2.40666e-07
2.40752e-07
2.49988e-07
2.50076e-07
3.83456e-07
4.05401e-07
2.40647e-07
2.4077e-07
2.49959e-07
2.50091e-07
2.40673e-07
2.49906e-07
2.49998e-07
3.83674e-07
4.05939e-07
2.40662e-07
2.49939e-07
2.49987e-07
4.05019e-07
4.12495e-07
4.35844e-07
2.53318e-07
2.53404e-07
2.64167e-07
2.64261e-07
4.12478e-07
4.35553e-07
2.53288e-07
2.5342e-07
2.64126e-07
2.64275e-07
2.5332e-07
2.64061e-07
2.64176e-07
4.11885e-07
4.36806e-07
2.53309e-07
2.641e-07
2.64159e-07
4.36368e-07
4.43873e-07
4.68927e-07
2.67999e-07
2.68087e-07
2.80331e-07
2.80422e-07
4.44266e-07
4.69333e-07
2.67957e-07
2.68102e-07
2.8028e-07
2.80437e-07
2.68002e-07
2.80202e-07
2.80338e-07
4.43597e-07
4.69966e-07
2.67983e-07
2.80244e-07
2.80316e-07
4.68964e-07
4.77559e-07
5.03548e-07
2.84644e-07
2.84735e-07
2.98393e-07
2.98491e-07
4.77494e-07
5.03758e-07
2.84595e-07
2.84752e-07
2.98337e-07
2.98505e-07
2.84648e-07
2.98247e-07
2.98402e-07
4.77005e-07
5.03758e-07
2.84623e-07
2.9829e-07
2.9837e-07
5.04701e-07
5.13084e-07
5.40632e-07
3.03169e-07
3.03261e-07
3.18256e-07
3.18354e-07
5.12598e-07
5.40182e-07
3.03116e-07
3.03279e-07
3.18198e-07
3.18369e-07
3.03176e-07
3.18092e-07
3.18268e-07
5.13263e-07
5.39964e-07
3.03141e-07
3.18136e-07
3.18223e-07
5.39865e-07
5.49128e-07
5.7701e-07
3.23465e-07
3.23557e-07
3.39798e-07
3.39895e-07
5.48942e-07
5.77751e-07
3.2341e-07
3.23575e-07
3.39737e-07
3.39908e-07
3.23472e-07
3.39614e-07
3.39809e-07
5.49224e-07
5.77302e-07
3.23429e-07
3.39664e-07
3.39766e-07
5.77777e-07
5.86327e-07
6.14202e-07
3.45407e-07
3.45498e-07
3.62878e-07
3.62974e-07
5.86e-07
6.14986e-07
3.45354e-07
3.45513e-07
3.62816e-07
3.62987e-07
3.45413e-07
3.62679e-07
3.62884e-07
5.86344e-07
6.14713e-07
3.45363e-07
3.62732e-07
3.62833e-07
6.15123e-07
6.24056e-07
6.51843e-07
3.68848e-07
3.68933e-07
3.87341e-07
3.87433e-07
6.23037e-07
6.52214e-07
3.68786e-07
3.68951e-07
3.87268e-07
3.87449e-07
3.68849e-07
3.87127e-07
3.87342e-07
6.24016e-07
6.51824e-07
3.68794e-07
3.87178e-07
3.87286e-07
6.52184e-07
6.61019e-07
6.88794e-07
3.93619e-07
3.93695e-07
4.13001e-07
4.13084e-07
6.6084e-07
6.88709e-07
3.93545e-07
3.93722e-07
4.1292e-07
4.13112e-07
3.93614e-07
4.12772e-07
4.12994e-07
6.61292e-07
6.88329e-07
3.93558e-07
4.12827e-07
4.12933e-07
6.88433e-07
6.98059e-07
7.244e-07
4.19532e-07
4.19605e-07
4.39656e-07
4.39727e-07
6.97997e-07
7.2438e-07
4.19453e-07
4.19638e-07
4.39573e-07
4.39778e-07
4.19522e-07
4.39406e-07
4.39652e-07
6.98667e-07
7.24407e-07
4.19459e-07
4.39478e-07
4.39582e-07
7.24394e-07
7.34841e-07
7.59508e-07
4.46382e-07
4.46445e-07
4.67103e-07
4.6716e-07
7.34326e-07
7.59318e-07
4.46303e-07
4.46498e-07
4.67018e-07
4.67226e-07
4.46373e-07
4.66828e-07
4.67096e-07
7.35046e-07
7.59522e-07
4.46302e-07
4.66922e-07
4.67017e-07
7.59221e-07
7.70074e-07
7.9348e-07
4.73958e-07
4.74011e-07
4.95101e-07
4.95165e-07
7.69695e-07
7.93284e-07
4.73878e-07
4.74074e-07
4.95015e-07
4.95227e-07
4.73949e-07
4.94811e-07
4.95093e-07
7.70053e-07
7.93507e-07
4.73869e-07
4.94928e-07
4.95013e-07
7.93094e-07
8.03844e-07
8.26105e-07
5.02016e-07
5.02081e-07
5.23436e-07
5.23497e-07
8.03701e-07
8.25958e-07
5.01937e-07
5.02141e-07
5.23347e-07
5.23562e-07
5.02009e-07
5.23136e-07
5.23424e-07
8.03861e-07
8.2611e-07
5.01926e-07
5.23259e-07
5.23329e-07
8.25639e-07
8.36224e-07
8.57173e-07
5.30348e-07
5.30416e-07
5.51849e-07
5.51914e-07
8.36142e-07
8.57102e-07
5.30269e-07
5.30479e-07
5.51771e-07
5.52001e-07
5.30339e-07
5.51573e-07
5.51852e-07
8.36242e-07
8.57222e-07
5.30244e-07
5.51688e-07
5.51751e-07
8.56743e-07
8.67028e-07
8.865e-07
5.58684e-07
5.58766e-07
5.80074e-07
5.80154e-07
8.67001e-07
8.8697e-07
5.58623e-07
5.58851e-07
5.80018e-07
5.80262e-07
5.58699e-07
5.79816e-07
5.80107e-07
8.67109e-07
8.86672e-07
5.5859e-07
5.79928e-07
5.79988e-07
8.86153e-07
8.96009e-07
9.13929e-07
5.86741e-07
5.86841e-07
6.07736e-07
6.07835e-07
8.95228e-07
9.15642e-07
5.86705e-07
5.86957e-07
6.07715e-07
6.07974e-07
5.86797e-07
6.07516e-07
6.07838e-07
8.96249e-07
9.1417e-07
5.86674e-07
6.07639e-07
6.07684e-07
9.15453e-07
9.22886e-07
9.41112e-07
6.14141e-07
6.14264e-07
6.34439e-07
6.34532e-07
9.22703e-07
9.41376e-07
6.14145e-07
6.14417e-07
6.3445e-07
6.34712e-07
6.14257e-07
6.34188e-07
6.34563e-07
9.23317e-07
9.4085e-07
6.14099e-07
6.34379e-07
6.34352e-07
9.41462e-07
9.47971e-07
9.65048e-07
6.40474e-07
6.40576e-07
6.5965e-07
6.59692e-07
9.47979e-07
9.64668e-07
6.40505e-07
6.40775e-07
6.59699e-07
6.59948e-07
6.40599e-07
6.59285e-07
6.59742e-07
9.48142e-07
9.65256e-07
6.40374e-07
6.59592e-07
6.59469e-07
9.64791e-07
9.71279e-07
9.86153e-07
6.65183e-07
6.6522e-07
6.8288e-07
6.82817e-07
9.70966e-07
9.85589e-07
6.65262e-07
6.65508e-07
6.8301e-07
6.83219e-07
6.65259e-07
6.82395e-07
6.82875e-07
9.71528e-07
9.86509e-07
6.64985e-07
6.82802e-07
6.8262e-07
9.85703e-07
9.92009e-07
1.00549e-06
6.8788e-07
6.87776e-07
7.04032e-07
7.03722e-07
9.9132e-07
1.00398e-06
6.88038e-07
6.88217e-07
7.04254e-07
7.04251e-07
6.87822e-07
7.03259e-07
7.03816e-07
9.92154e-07
1.0048e-06
6.87579e-07
7.03787e-07
7.03526e-07
1.00405e-06
1.01099e-06
1.02245e-06
7.08478e-07
7.08109e-07
7.22908e-07
7.22319e-07
1.00942e-06
1.02084e-06
7.08723e-07
7.08697e-07
7.232e-07
7.23125e-07
7.08222e-07
7.21896e-07
7.2257e-07
1.01018e-06
1.02186e-06
7.0793e-07
7.22609e-07
7.22257e-07
1.02111e-06
1.02741e-06
1.0368e-06
7.26799e-07
7.26139e-07
7.39502e-07
7.38599e-07
1.02579e-06
1.03518e-06
7.27104e-07
7.27007e-07
7.39851e-07
7.39669e-07
7.26423e-07
7.38216e-07
7.39057e-07
1.02687e-06
1.03652e-06
7.26132e-07
7.39118e-07
7.38806e-07
1.03567e-06
1.04122e-06
1.04896e-06
7.42892e-07
7.41947e-07
7.53988e-07
7.52914e-07
1.03958e-06
1.04727e-06
7.43248e-07
7.42998e-07
7.54347e-07
7.5383e-07
7.42412e-07
7.52556e-07
7.53445e-07
1.0408e-06
1.04783e-06
7.42202e-07
7.53423e-07
7.53341e-07
1.04789e-06
1.05224e-06
1.05868e-06
7.56956e-07
7.55855e-07
7.66471e-07
7.65347e-07
1.05069e-06
1.05751e-06
7.57292e-07
7.56703e-07
7.66709e-07
7.65962e-07
7.56386e-07
7.64918e-07
7.65843e-07
1.05108e-06
1.05737e-06
7.56328e-07
7.65712e-07
7.65906e-07
1.05867e-06
1.06182e-06
1.06742e-06
7.68996e-07
7.67842e-07
7.77307e-07
7.76302e-07
1.06068e-06
1.06641e-06
7.69193e-07
7.68439e-07
7.77416e-07
7.76825e-07
7.68375e-07
7.76122e-07
7.76803e-07
1.0605e-06
1.0664e-06
7.68432e-07
7.76839e-07
7.76879e-07
1.06816e-06
5.35663e-07
5.35602e-07
5.35656e-07
5.35656e-07
5.34622e-07
5.35515e-07
5.33554e-07
5.35656e-07
5.34616e-07
5.35515e-07
5.35656e-07
5.33369e-07
5.35249e-07
5.35751e-07
5.35728e-07
1.10541e-06
3.86631e-06
9.3848e-07
4.59358e-06
1.26502e-05
1.66877e-05
1.10556e-06
3.86694e-06
9.39004e-07
4.59333e-06
4.95569e-07
4.95569e-07
4.95569e-07
4.57237e-07
4.57236e-07
4.57237e-07
4.57237e-07
5.43274e-07
1.23125e-06
4.95575e-07
4.85592e-07
5.2596e-07
1.21993e-06
4.82308e-07
1.26473e-05
1.66902e-05
5.4335e-07
4.95575e-07
1.23053e-06
4.85584e-07
5.25917e-07
4.82309e-07
1.2175e-06
2.53015e-06
2.54367e-06
4.84326e-07
2.38282e-06
2.3897e-06
1.42749e-06
5.58547e-06
1.32966e-06
6.13542e-06
2.13452e-05
2.31606e-05
1.42762e-06
5.58497e-06
1.32953e-06
6.13501e-06
4.45582e-07
4.45584e-07
4.45584e-07
4.13564e-07
4.13562e-07
4.13564e-07
4.13565e-07
5.87206e-07
1.20103e-06
4.46465e-07
4.44465e-07
5.74192e-07
1.20912e-06
4.3573e-07
2.13453e-05
2.31614e-05
5.87337e-07
4.46468e-07
1.20108e-06
4.44471e-07
5.74251e-07
4.35734e-07
1.2104e-06
2.30752e-06
2.30893e-06
4.5374e-07
2.34424e-06
2.34465e-06
1.65901e-06
6.91801e-06
1.59179e-06
7.32489e-06
2.46583e-05
2.49466e-05
1.65851e-06
6.91769e-06
1.59181e-06
7.32483e-06
4.03774e-07
4.03777e-07
4.03777e-07
3.76718e-07
3.76716e-07
3.7672e-07
3.76719e-07
6.15239e-07
1.24828e-06
4.06603e-07
4.10793e-07
6.08261e-07
1.27006e-06
3.9779e-07
2.46586e-05
2.49479e-05
6.15395e-07
4.06606e-07
1.24742e-06
4.10801e-07
6.08149e-07
3.97793e-07
1.27142e-06
2.46285e-06
2.46297e-06
4.30331e-07
2.52055e-06
2.5207e-06
1.80685e-06
7.848e-06
1.76776e-06
8.10426e-06
2.47366e-05
2.44333e-05
1.80709e-06
7.84822e-06
1.76731e-06
8.10504e-06
3.68391e-07
3.68394e-07
3.68393e-07
3.45222e-07
3.45219e-07
3.45222e-07
3.45222e-07
6.25748e-07
1.31746e-06
3.73545e-07
3.81791e-07
6.24511e-07
1.3393e-06
3.66095e-07
2.47349e-05
2.44349e-05
6.25724e-07
3.73544e-07
1.31733e-06
3.81796e-07
6.24316e-07
3.66095e-07
1.33944e-06
2.62504e-06
2.62474e-06
4.08445e-07
2.67128e-06
2.67098e-06
1.88954e-06
8.39567e-06
1.8681e-06
8.53195e-06
2.36832e-05
2.32666e-05
1.88814e-06
8.39646e-06
1.86955e-06
8.53308e-06
3.3804e-07
3.38043e-07
3.38043e-07
3.17933e-07
3.17931e-07
3.17934e-07
3.17934e-07
6.21185e-07
1.37591e-06
3.45297e-07
3.55994e-07
6.24852e-07
1.39227e-06
3.38817e-07
2.36843e-05
2.32692e-05
6.21157e-07
3.45295e-07
1.37595e-06
3.56002e-07
6.24884e-07
3.38818e-07
1.39239e-06
2.75849e-06
2.75673e-06
3.86643e-07
2.80025e-06
2.8018e-06
1.9258e-06
8.66194e-06
1.9177e-06
8.71787e-06
2.24944e-05
2.21232e-05
1.92562e-06
8.66293e-06
1.91836e-06
8.71857e-06
3.11661e-07
3.11665e-07
3.11665e-07
2.94008e-07
2.94006e-07
2.9401e-07
2.94011e-07
6.077e-07
1.41973e-06
3.20526e-07
3.32674e-07
6.14493e-07
1.43089e-06
3.14772e-07
2.24953e-05
2.21254e-05
6.07684e-07
3.20526e-07
1.42018e-06
3.32684e-07
6.14448e-07
3.14774e-07
1.43124e-06
2.89281e-06
2.89248e-06
3.65272e-07
2.94312e-06
2.94313e-06
1.94368e-06
8.75762e-06
1.93978e-06
8.7682e-06
2.1473e-05
2.11821e-05
1.94378e-06
8.75804e-06
1.93987e-06
8.76831e-06
2.88474e-07
2.88478e-07
2.88479e-07
2.72829e-07
2.72829e-07
2.72833e-07
2.72834e-07
5.90493e-07
1.45522e-06
2.98413e-07
3.11492e-07
5.98268e-07
1.46692e-06
2.93238e-07
2.14741e-05
2.11841e-05
5.90476e-07
2.98412e-07
1.45563e-06
3.11504e-07
5.98244e-07
2.93239e-07
1.46666e-06
3.04996e-06
3.04928e-06
3.4477e-07
3.10592e-06
3.10755e-06
1.96178e-06
8.76535e-06
1.95611e-06
8.75985e-06
2.06738e-05
2.04545e-05
1.96171e-06
8.76513e-06
1.95615e-06
8.75953e-06
2.67908e-07
2.67912e-07
2.67913e-07
2.53949e-07
2.53949e-07
2.53954e-07
2.53954e-07
5.74001e-07
1.49405e-06
2.78472e-07
2.92316e-07
5.81096e-07
1.50842e-06
2.7379e-07
2.06752e-05
2.04567e-05
5.74002e-07
2.78471e-07
1.49362e-06
2.92326e-07
5.8108e-07
2.73791e-07
1.50881e-06
3.22942e-06
3.2277e-06
3.25752e-07
3.29129e-06
3.29397e-06
1.99179e-06
8.74628e-06
1.98216e-06
8.73968e-06
2.00738e-05
1.99137e-05
1.99217e-06
8.74609e-06
1.98185e-06
8.73967e-06
2.49548e-07
2.49552e-07
2.49553e-07
2.3704e-07
2.37039e-07
2.37043e-07
2.37044e-07
5.61465e-07
1.54257e-06
2.60417e-07
2.75109e-07
5.66692e-07
1.55895e-06
2.56176e-07
2.00752e-05
1.99135e-05
5.6144e-07
2.60416e-07
1.54166e-06
2.75119e-07
5.66682e-07
2.56177e-07
1.5614e-06
3.42493e-06
3.42551e-06
3.08816e-07
3.49417e-06
3.49433e-06
2.04324e-06
8.73063e-06
2.02606e-06
8.72872e-06
1.96351e-05
1.95184e-05
2.04313e-06
8.73087e-06
2.02595e-06
8.72945e-06
2.33089e-07
2.33094e-07
2.33094e-07
2.21854e-07
2.21852e-07
2.21857e-07
2.21857e-07
5.55475e-07
1.60464e-06
2.44074e-07
2.5987e-07
5.5748e-07
1.62519e-06
2.40241e-07
1.96371e-05
1.952e-05
5.55456e-07
2.44072e-07
1.60271e-06
2.59881e-07
5.57571e-07
2.40242e-07
1.62753e-06
3.63309e-06
3.63255e-06
2.94427e-07
3.7009e-06
3.70428e-06
2.118e-06
8.72836e-06
2.09232e-06
8.73141e-06
1.93212e-05
1.92383e-05
2.11774e-06
8.72944e-06
2.09197e-06
8.73267e-06
2.18303e-07
2.18307e-07
2.18307e-07
2.08204e-07
2.08202e-07
2.08207e-07
2.08206e-07
5.56802e-07
1.68017e-06
2.29329e-07
2.46601e-07
5.55915e-07
1.70553e-06
2.25883e-07
1.9323e-05
1.92399e-05
5.56795e-07
2.29328e-07
1.67813e-06
2.46616e-07
5.55881e-07
2.25886e-07
1.70768e-06
3.84107e-06
3.8421e-06
2.83033e-07
3.91112e-06
3.91183e-06
2.2178e-06
8.7384e-06
2.18364e-06
8.74508e-06
1.91007e-05
1.90428e-05
2.21778e-06
8.74008e-06
2.18317e-06
8.74703e-06
2.05012e-07
2.05017e-07
2.05016e-07
1.95941e-07
1.9594e-07
1.95946e-07
1.95943e-07
5.66085e-07
1.76892e-06
2.16104e-07
2.353e-07
5.62546e-07
1.79845e-06
2.13029e-07
1.91002e-05
1.90468e-05
5.6606e-07
2.16105e-07
1.76868e-06
2.35318e-07
5.62483e-07
2.13033e-07
1.79873e-06
4.04432e-06
4.04639e-06
2.74284e-07
4.11091e-06
4.11237e-06
2.34279e-06
8.75671e-06
2.30009e-06
8.76524e-06
1.89473e-05
1.89076e-05
2.34234e-06
8.75914e-06
2.30005e-06
8.76782e-06
1.93078e-07
1.93085e-07
1.93081e-07
1.84948e-07
1.84948e-07
1.84956e-07
1.8495e-07
5.85136e-07
1.86782e-06
2.0434e-07
2.25971e-07
5.78353e-07
1.9042e-06
2.0162e-07
1.89464e-05
1.89111e-05
5.85164e-07
2.04343e-07
1.86923e-06
2.25992e-07
5.78367e-07
2.01627e-07
1.90398e-06
4.23726e-06
4.23786e-06
2.68816e-07
4.29557e-06
4.29885e-06
2.4895e-06
8.77818e-06
2.43986e-06
8.78731e-06
1.88371e-05
1.88137e-05
2.49008e-06
8.78025e-06
2.43871e-06
8.79023e-06
1.82389e-07
1.82397e-07
1.8239e-07
1.75131e-07
1.75132e-07
1.75141e-07
1.75132e-07
6.14181e-07
1.97631e-06
1.93982e-07
2.18617e-07
6.04079e-07
2.01533e-06
1.91606e-07
1.88385e-05
1.88154e-05
6.14458e-07
1.93988e-07
1.97664e-06
2.1864e-07
6.03709e-07
1.91616e-07
2.013e-06
4.41079e-06
4.41339e-06
2.66335e-07
4.46483e-06
4.46542e-06
2.65302e-06
8.79901e-06
2.59892e-06
8.80831e-06
1.87591e-05
1.87428e-05
2.6542e-06
8.80162e-06
2.59841e-06
8.81083e-06
1.72854e-07
1.72863e-07
1.72853e-07
1.66411e-07
1.66414e-07
1.66423e-07
1.66412e-07
6.53436e-07
2.09034e-06
1.84989e-07
2.13243e-07
6.40083e-07
2.13015e-06
1.82946e-07
1.87608e-05
1.87443e-05
6.5419e-07
1.84995e-07
2.0924e-06
2.13268e-07
6.39574e-07
1.82957e-07
2.12829e-06
4.56498e-06
4.56774e-06
2.66908e-07
4.61204e-06
4.61217e-06
2.82739e-06
8.81881e-06
2.77031e-06
8.82727e-06
1.87006e-05
1.86867e-05
2.82809e-06
8.82111e-06
2.76992e-06
8.8294e-06
1.644e-07
1.64409e-07
1.64396e-07
1.58724e-07
1.58729e-07
1.58738e-07
1.58725e-07
7.03614e-07
2.20701e-06
1.77321e-07
2.09858e-07
6.85936e-07
2.24386e-06
1.75603e-07
1.87022e-05
1.86881e-05
7.04033e-07
1.77327e-07
2.20672e-06
2.09885e-07
6.85993e-07
1.75613e-07
2.246e-06
4.69786e-06
4.69952e-06
2.70675e-07
4.73811e-06
4.73991e-06
3.00466e-06
8.83679e-06
2.94532e-06
8.84453e-06
1.86524e-05
1.864e-05
3.00397e-06
8.83921e-06
2.94592e-06
8.84591e-06
1.56962e-07
1.56971e-07
1.56957e-07
1.52015e-07
1.52021e-07
1.52031e-07
1.52017e-07
7.62809e-07
2.32223e-06
1.70947e-07
2.08474e-07
7.4261e-07
2.35754e-06
1.6955e-07
1.86538e-05
1.86413e-05
7.63013e-07
1.70952e-07
2.32081e-06
2.08501e-07
7.42137e-07
1.69559e-07
2.35947e-06
4.81002e-06
4.81286e-06
2.77603e-07
4.84193e-06
4.84404e-06
3.17259e-06
8.85323e-06
3.11876e-06
8.86044e-06
1.86099e-05
1.85984e-05
3.17324e-06
8.85549e-06
3.11879e-06
8.86184e-06
1.50489e-07
1.50499e-07
1.50483e-07
1.46235e-07
1.46243e-07
1.46253e-07
1.4624e-07
8.31108e-07
2.43273e-06
1.65852e-07
2.09138e-07
8.08134e-07
2.46579e-06
1.64772e-07
1.86111e-05
1.85999e-05
8.31399e-07
1.65857e-07
2.4312e-06
2.09163e-07
8.07864e-07
1.64779e-07
2.46768e-06
4.90339e-06
4.90502e-06
2.87919e-07
4.93118e-06
4.93287e-06
3.32936e-06
8.86854e-06
3.28028e-06
8.87534e-06
1.85709e-05
1.85608e-05
3.33052e-06
8.87085e-06
3.27967e-06
8.87685e-06
1.44936e-07
1.44945e-07
1.4493e-07
1.41349e-07
1.41359e-07
1.41368e-07
1.41356e-07
9.06679e-07
2.53558e-06
1.62031e-07
2.1185e-07
8.81594e-07
2.56928e-06
1.61262e-07
1.85722e-05
1.85619e-05
9.07464e-07
1.62032e-07
2.53543e-06
2.11867e-07
8.81009e-07
1.61267e-07
2.56936e-06
4.9806e-06
4.98281e-06
3.01951e-07
5.00124e-06
5.00312e-06
3.46723e-06
8.88306e-06
3.42485e-06
8.88915e-06
1.85348e-05
1.85253e-05
3.4686e-06
8.88534e-06
3.42415e-06
8.89097e-06
1.40268e-07
1.40277e-07
1.40263e-07
1.37325e-07
1.37337e-07
1.37344e-07
1.37335e-07
9.87896e-07
2.63159e-06
1.59483e-07
2.1664e-07
9.61214e-07
2.6607e-06
1.59026e-07
1.85359e-05
1.85265e-05
9.88626e-07
1.59482e-07
2.63175e-06
2.16656e-07
9.60613e-07
1.59026e-07
2.66278e-06
5.04392e-06
5.0457e-06
3.19229e-07
5.05987e-06
5.0617e-06
3.58528e-06
8.89699e-06
3.54851e-06
8.9022e-06
1.85008e-05
1.84919e-05
3.58506e-06
8.89879e-06
3.54936e-06
8.90396e-06
1.36455e-07
1.36462e-07
1.36449e-07
1.34137e-07
1.34149e-07
1.34156e-07
1.34148e-07
1.07245e-06
2.72049e-06
1.58215e-07
2.23529e-07
1.04428e-06
2.74552e-06
1.58067e-07
1.85021e-05
1.84934e-05
1.07286e-06
1.58209e-07
2.71947e-06
2.23548e-07
1.04409e-06
1.58063e-07
2.74739e-06
5.09516e-06
5.09693e-06
3.39509e-07
5.10769e-06
5.10952e-06
3.68109e-06
8.90942e-06
3.65237e-06
8.91409e-06
1.84692e-05
1.84613e-05
3.68151e-06
8.91122e-06
3.6525e-06
8.91591e-06
1.33472e-07
1.33478e-07
1.33466e-07
1.31762e-07
1.31775e-07
1.31781e-07
1.31775e-07
1.15721e-06
2.79802e-06
1.58221e-07
2.32516e-07
1.12977e-06
2.82277e-06
1.58429e-07
1.84706e-05
1.84627e-05
1.15794e-06
1.58208e-07
2.79811e-06
2.32542e-07
1.12942e-06
1.58429e-07
2.82312e-06
5.13713e-06
5.13885e-06
3.64011e-07
5.14687e-06
5.15004e-06
3.75869e-06
8.92056e-06
3.73556e-06
8.92473e-06
1.84402e-05
1.8433e-05
3.75806e-06
8.92245e-06
3.7356e-06
8.92665e-06
1.31298e-07
1.31304e-07
1.31293e-07
1.30185e-07
1.30199e-07
1.30204e-07
1.30198e-07
1.24155e-06
2.86777e-06
1.59537e-07
2.43594e-07
1.21389e-06
2.89002e-06
1.60083e-07
1.84415e-05
1.84343e-05
1.24165e-06
1.59526e-07
2.86811e-06
2.43626e-07
1.21389e-06
1.60083e-07
2.88908e-06
5.17165e-06
5.17206e-06
3.90441e-07
5.17933e-06
5.18188e-06
3.81861e-06
8.92999e-06
3.8008e-06
8.93439e-06
1.84135e-05
1.84071e-05
3.81868e-06
8.93237e-06
3.80025e-06
8.93608e-06
1.29916e-07
1.29922e-07
1.29912e-07
1.29393e-07
1.29407e-07
1.29413e-07
1.29407e-07
1.3217e-06
2.92963e-06
1.62185e-07
2.56734e-07
1.29586e-06
2.94921e-06
1.63065e-07
1.84147e-05
1.84084e-05
1.32253e-06
1.62173e-07
2.93115e-06
2.5677e-07
1.29601e-06
1.63068e-07
2.94812e-06
5.19996e-06
5.20079e-06
4.20111e-07
5.2059e-06
5.20844e-06
3.86414e-06
8.93875e-06
3.85097e-06
8.94239e-06
1.83891e-05
1.83834e-05
3.86392e-06
8.94103e-06
3.85099e-06
8.94429e-06
1.29314e-07
1.2932e-07
1.29313e-07
1.29374e-07
1.29383e-07
1.29389e-07
1.29388e-07
1.3978e-06
2.98419e-06
1.66178e-07
2.71891e-07
1.37402e-06
3.00138e-06
1.67396e-07
1.83903e-05
1.83847e-05
1.3986e-06
1.66166e-07
2.98495e-06
2.71932e-07
1.37375e-06
1.67399e-07
3.00147e-06
5.22318e-06
5.2244e-06
4.52221e-07
5.22858e-06
5.23096e-06
3.89925e-06
8.94623e-06
3.88845e-06
8.94951e-06
1.8367e-05
1.83621e-05
3.89942e-06
8.94843e-06
3.8887e-06
8.95133e-06
1.2949e-07
1.29496e-07
1.29483e-07
1.30126e-07
1.3013e-07
1.30137e-07
1.30139e-07
1.46847e-06
3.0323e-06
1.7154e-07
2.88994e-07
1.44654e-06
3.04735e-06
1.73089e-07
1.83682e-05
1.83634e-05
1.46842e-06
1.71526e-07
3.03236e-06
2.89037e-07
1.4466e-06
1.73094e-07
3.04751e-06
5.24303e-06
5.24458e-06
4.87134e-07
5.24781e-06
5.24953e-06
3.92559e-06
8.95271e-06
3.91735e-06
8.9557e-06
1.8347e-05
1.83428e-05
3.92515e-06
8.95494e-06
3.91796e-06
8.95747e-06
1.30428e-07
1.30435e-07
1.30421e-07
1.31639e-07
1.3164e-07
1.31647e-07
1.31651e-07
1.53341e-06
3.07465e-06
1.78268e-07
3.07955e-07
1.51265e-06
3.08792e-06
1.80154e-07
1.83482e-05
1.83442e-05
1.53298e-06
1.78255e-07
3.07525e-06
3.07998e-07
1.51308e-06
1.80157e-07
3.08684e-06
5.25979e-06
5.2617e-06
5.22477e-07
5.26365e-06
5.26564e-06
3.94565e-06
8.95865e-06
3.93937e-06
8.96119e-06
1.83291e-05
1.83256e-05
3.9453e-06
8.9607e-06
3.94015e-06
8.96305e-06
1.32127e-07
1.32135e-07
1.3212e-07
1.33913e-07
1.33909e-07
1.33919e-07
1.33924e-07
1.59161e-06
3.11206e-06
1.86371e-07
3.28652e-07
1.57288e-06
3.12376e-06
1.88591e-07
1.83304e-05
1.83271e-05
1.59165e-06
1.86353e-07
3.11313e-06
3.287e-07
1.57301e-06
1.88596e-07
3.12302e-06
5.27426e-06
5.27615e-06
5.58343e-07
5.27774e-06
5.27958e-06
3.9609e-06
8.96412e-06
3.95635e-06
8.9663e-06
1.83132e-05
1.83105e-05
3.96102e-06
8.96603e-06
3.95704e-06
8.96827e-06
1.34585e-07
1.34595e-07
1.34578e-07
1.36945e-07
1.36937e-07
1.36948e-07
1.36955e-07