/*--------------------------------*- C++ -*----------------------------------*\
| =========                 |                                                 |
| \\      /  F ield         | OpenFOAM: The Open Source CFD Toolbox           |
|  \\    /   O peration     | Version:  v2012                                 |
|   \\  /    A nd           | Website:  www.openfoam.com                      |
|    \\/     M anipulation  |                                                 |
\*---------------------------------------------------------------------------*/
FoamFile
{
    version     2.0;
    format      ascii;
    class       volScalarField;
    location    "200";
    object      p;
}
// * * * * * * * * * * * * * * * * * * * * * * * * * * * * * * * * * * * * * //

dimensions      [0 2 -2 0 0 0 0];


internalField   nonuniform List<scalar> 
171728
(
0.00164751
0.00164748
0.00164905
0.00164748
0.00164748
0.00164748
0.00164905
0.00164956
0.00164955
0.00164954
0.00164751
0.00164956
0.0016495
0.00164957
0.00164956
0.00164956
0.00164956
0.00164951
0.00164951
0.0016475
0.00164945
0.00164955
0.00164954
0.0016475
0.0016495
0.00164945
0.00164956
0.00164956
0.00164956
0.00164955
0.00164529
0.00164957
0.00164957
0.00164528
0.00164529
0.00164956
0.00164528
0.00164956
0.00164527
0.00164529
0.00164955
0.00164956
0.00164529
0.00164528
0.00164956
0.00164528
0.00164529
0.00164528
0.00164532
0.00164951
0.00164529
0.00164956
0.0016453
0.00164536
0.00164954
0.00164532
0.00164951
0.00164529
0.00164956
0.00164529
0.00164536
0.00164954
0.00164528
0.00164957
0.00164957
0.00164528
0.00164528
0.00164958
0.00164527
0.00164528
0.00164956
0.00164527
0.00164956
0.00164527
0.00164529
0.00164956
0.00164955
0.00164528
0.00164529
0.00164956
0.00164532
0.0016495
0.00164529
0.00164955
0.00164529
0.00164536
0.00164953
0.00164532
0.0016495
0.00164529
0.00164955
0.00164536
0.00164529
0.00164953
0.00164527
0.00164957
0.00164957
0.00164527
0.00164527
0.00164957
0.00164528
0.00164529
0.00164751
0.00164546
0.00164928
0.00164928
0.00164589
0.00164563
0.00164563
0.00164942
0.00164546
0.00164927
0.00164928
0.00164589
0.00164563
0.00164563
0.00164942
0.0016475
0.0016456
0.00164936
0.00164534
0.00164947
0.00164549
0.00164538
0.00164929
0.00164561
0.00164937
0.00164535
0.00164948
0.00164539
0.0016455
0.00164929
0.0016456
0.00164937
0.00164535
0.00164948
0.00164538
0.00164549
0.00164929
0.00164563
0.00164541
0.00164946
0.00164926
0.0016454
0.00164563
0.00164925
0.0016456
0.00164936
0.00164534
0.00164947
0.00164538
0.00164549
0.00164929
0.00164563
0.00164541
0.00164926
0.00164946
0.00164563
0.0016454
0.00164925
0.00356819
0.00356803
0.00356804
0.00357085
0.00351462
0.00351476
0.00351476
0.00351697
0.00346335
0.00346339
0.00346339
0.00346569
0.00341144
0.00341141
0.00341141
0.00341369
0.00336036
0.00336031
0.00336031
0.00336255
0.00331065
0.00331061
0.00331061
0.00331281
0.00326238
0.00326234
0.00326234
0.0032645
0.00321539
0.00321537
0.00321537
0.0032175
0.0031695
0.00316949
0.00316949
0.00317158
0.0031245
0.0031245
0.0031245
0.00312657
0.00308022
0.00308023
0.00308023
0.00308227
0.00303654
0.00303655
0.00303655
0.00303857
0.00299337
0.00299338
0.00299338
0.00299538
0.00295067
0.00295068
0.00295068
0.00295265
0.00290839
0.0029084
0.0029084
0.00291036
0.00286652
0.00286653
0.00286653
0.00286848
0.00282503
0.00282504
0.00282504
0.00282697
0.0027839
0.00278391
0.00278391
0.00278582
0.0027431
0.0027431
0.0027431
0.002745
0.00270261
0.00270261
0.00270261
0.0027045
0.0026624
0.0026624
0.0026624
0.00266428
0.00262246
0.00262247
0.00262247
0.00262433
0.00258278
0.00258278
0.00258278
0.00258463
0.00254333
0.00254333
0.00254333
0.00254517
0.00250411
0.0025041
0.0025041
0.00250593
0.0024651
0.00246509
0.00246509
0.00246691
0.0024263
0.00242629
0.00242629
0.00242809
0.0023877
0.00238768
0.00238768
0.00238947
0.00234928
0.00234927
0.00234927
0.00235104
0.00231105
0.00231103
0.00231103
0.00231279
0.00227299
0.00227297
0.00227297
0.00227471
0.00223509
0.00223507
0.00223507
0.00223679
0.00219733
0.0021973
0.0021973
0.00219901
0.00215969
0.00215966
0.00215966
0.00216136
0.00212215
0.00212212
0.00212212
0.00212381
0.00208469
0.00208466
0.00208466
0.00208634
0.00204731
0.00204728
0.00204728
0.00204894
0.00201
0.00200997
0.00200996
0.00201162
0.00197278
0.00197274
0.00197274
0.00197439
0.00193569
0.00193565
0.00193564
0.00193729
0.00189877
0.00189872
0.00189872
0.00190035
0.0018621
0.00186204
0.00186204
0.00186366
0.00182571
0.00182565
0.00182566
0.00182726
0.00178962
0.00178956
0.00178957
0.00179116
0.0017538
0.00175375
0.00175376
0.00175534
0.00171821
0.00171817
0.00171817
0.00171975
0.00168279
0.00168276
0.00168275
0.00168433
0.00358156
0.00358175
0.00358175
0.00358156
0.00358175
0.00358176
0.00358249
0.00358249
0.00358249
0.00358249
0.00358175
0.00358176
0.00358157
0.00358176
0.00358176
0.00358158
0.00357084
0.00352465
0.00356803
0.00356803
0.00352715
0.00352715
0.00357084
0.00352465
0.00356803
0.00356804
0.00352715
0.00352715
0.00356804
0.00352715
0.00352715
0.00357085
0.00352465
0.00356804
0.00352715
0.00352715
0.00352465
0.00351697
0.00347372
0.00351476
0.00351476
0.00347638
0.00347638
0.00351697
0.00347372
0.00351476
0.00351476
0.00347638
0.00347638
0.00351476
0.00347638
0.00347639
0.00351697
0.00347372
0.00351476
0.00347638
0.00347638
0.00347372
0.00346569
0.00342168
0.00346339
0.00346339
0.00342436
0.00342436
0.00346569
0.00342168
0.00346339
0.00346339
0.00342436
0.00342436
0.00346339
0.00342436
0.00342436
0.00346569
0.00342168
0.00346339
0.00342436
0.00342436
0.00342168
0.00341368
0.00337035
0.00341141
0.00341141
0.00337296
0.00337297
0.00341368
0.00337035
0.00341141
0.00341141
0.00337296
0.00337297
0.00341141
0.00337296
0.00337296
0.00341369
0.00337035
0.00341141
0.00337296
0.00337296
0.00337035
0.00336255
0.00332038
0.00336031
0.00336031
0.0033229
0.0033229
0.00336255
0.00332038
0.00336031
0.00336031
0.0033229
0.0033229
0.00336031
0.0033229
0.0033229
0.00336255
0.00332038
0.00336031
0.0033229
0.0033229
0.00332038
0.00331281
0.00327187
0.00331061
0.00331061
0.00327428
0.00327428
0.00331281
0.00327187
0.00331061
0.00331061
0.00327428
0.00327428
0.00331061
0.00327428
0.00327428
0.00331281
0.00327187
0.00331061
0.00327428
0.00327428
0.00327187
0.0032645
0.00322468
0.00326234
0.00326234
0.003227
0.00322701
0.0032645
0.00322468
0.00326234
0.00326234
0.00322701
0.00322701
0.00326234
0.00322701
0.00322701
0.0032645
0.00322468
0.00326234
0.00322701
0.00322701
0.00322468
0.0032175
0.00317861
0.00321537
0.00321537
0.00318087
0.00318087
0.0032175
0.00317861
0.00321537
0.00321537
0.00318087
0.00318087
0.00321537
0.00318087
0.00318087
0.0032175
0.00317861
0.00321537
0.00318087
0.00318087
0.00317861
0.00317159
0.00313348
0.00316949
0.00316949
0.00313568
0.00313567
0.00317159
0.00313348
0.00316949
0.00316949
0.00313568
0.00313567
0.00316949
0.00313568
0.00313568
0.00317159
0.00313348
0.00316949
0.00313568
0.00313568
0.00313348
0.00312657
0.00308909
0.0031245
0.0031245
0.00309124
0.00309124
0.00312657
0.00308908
0.0031245
0.0031245
0.00309124
0.00309124
0.0031245
0.00309124
0.00309124
0.00312657
0.00308909
0.0031245
0.00309124
0.00309124
0.00308908
0.00308227
0.0030453
0.00308023
0.00308023
0.00304742
0.00304742
0.00308227
0.0030453
0.00308023
0.00308023
0.00304742
0.00304742
0.00308023
0.00304742
0.00304742
0.00308227
0.0030453
0.00308023
0.00304742
0.00304742
0.0030453
0.00303857
0.00300203
0.00303655
0.00303655
0.00300413
0.00300413
0.00303857
0.00300203
0.00303655
0.00303655
0.00300413
0.00300413
0.00303655
0.00300413
0.00300413
0.00303857
0.00300203
0.00303655
0.00300413
0.00300413
0.00300203
0.00299538
0.00295924
0.00299338
0.00299338
0.00296131
0.00296131
0.00299538
0.00295924
0.00299338
0.00299338
0.00296131
0.00296131
0.00299338
0.00296131
0.00296131
0.00299538
0.00295924
0.00299338
0.00296131
0.00296131
0.00295924
0.00295265
0.0029169
0.00295068
0.00295068
0.00291893
0.00291893
0.00295265
0.0029169
0.00295068
0.00295068
0.00291893
0.00291893
0.00295068
0.00291893
0.00291893
0.00295265
0.0029169
0.00295068
0.00291893
0.00291893
0.0029169
0.00291036
0.00287498
0.0029084
0.0029084
0.00287696
0.00287696
0.00291036
0.00287498
0.0029084
0.0029084
0.00287696
0.00287696
0.0029084
0.00287696
0.00287696
0.00291036
0.00287497
0.0029084
0.00287696
0.00287696
0.00287498
0.00286848
0.00283343
0.00286653
0.00286653
0.00283538
0.00283538
0.00286848
0.00283343
0.00286653
0.00286653
0.00283538
0.00283538
0.00286653
0.00283538
0.00283538
0.00286848
0.00283343
0.00286653
0.00283538
0.00283538
0.00283343
0.00282697
0.00279224
0.00282504
0.00282504
0.00279416
0.00279416
0.00282697
0.00279224
0.00282504
0.00282504
0.00279416
0.00279416
0.00282504
0.00279416
0.00279416
0.00282697
0.00279224
0.00282504
0.00279416
0.00279416
0.00279224
0.00278582
0.00275139
0.00278391
0.00278391
0.00275327
0.00275327
0.00278582
0.00275139
0.00278391
0.0027839
0.00275327
0.00275327
0.00278391
0.00275327
0.00275327
0.00278582
0.00275139
0.00278391
0.00275327
0.00275327
0.00275139
0.00274501
0.00271085
0.0027431
0.0027431
0.00271271
0.0027127
0.00274501
0.00271085
0.0027431
0.0027431
0.00271271
0.00271271
0.0027431
0.00271271
0.00271271
0.002745
0.00271085
0.0027431
0.00271271
0.00271271
0.00271085
0.0027045
0.0026706
0.00270261
0.00270261
0.00267243
0.00267243
0.0027045
0.0026706
0.00270261
0.00270261
0.00267243
0.00267243
0.00270261
0.00267243
0.00267243
0.0027045
0.0026706
0.00270261
0.00267243
0.00267243
0.0026706
0.00266428
0.00263062
0.0026624
0.0026624
0.00263243
0.00263243
0.00266428
0.00263062
0.0026624
0.0026624
0.00263243
0.00263243
0.0026624
0.00263243
0.00263243
0.00266428
0.00263062
0.0026624
0.00263243
0.00263243
0.00263062
0.00262433
0.0025909
0.00262247
0.00262247
0.00259268
0.00259268
0.00262433
0.0025909
0.00262247
0.00262247
0.00259268
0.00259268
0.00262247
0.00259268
0.00259268
0.00262433
0.0025909
0.00262247
0.00259268
0.00259268
0.0025909
0.00258463
0.00255141
0.00258278
0.00258278
0.00255317
0.00255317
0.00258463
0.00255141
0.00258278
0.00258278
0.00255317
0.00255317
0.00258278
0.00255317
0.00255317
0.00258463
0.00255141
0.00258278
0.00255317
0.00255317
0.00255141
0.00254517
0.00251214
0.00254333
0.00254333
0.00251389
0.00251389
0.00254517
0.00251215
0.00254333
0.00254333
0.00251389
0.00251389
0.00254333
0.00251389
0.00251389
0.00254517
0.00251214
0.00254333
0.00251389
0.00251389
0.00251214
0.00250594
0.0024731
0.0025041
0.0025041
0.00247483
0.00247483
0.00250593
0.0024731
0.0025041
0.0025041
0.00247483
0.00247483
0.0025041
0.00247483
0.00247483
0.00250593
0.0024731
0.0025041
0.00247483
0.00247483
0.0024731
0.00246691
0.00243425
0.00246509
0.00246509
0.00243597
0.00243597
0.00246691
0.00243425
0.00246509
0.00246509
0.00243597
0.00243597
0.00246509
0.00243597
0.00243597
0.00246691
0.00243425
0.00246509
0.00243597
0.00243597
0.00243425
0.00242809
0.00239561
0.00242629
0.00242629
0.00239732
0.00239732
0.00242809
0.00239561
0.00242629
0.00242629
0.00239732
0.00239732
0.00242629
0.00239732
0.00239732
0.00242809
0.00239561
0.00242629
0.00239732
0.00239732
0.00239561
0.00238947
0.00235715
0.00238768
0.00238768
0.00235885
0.00235885
0.00238947
0.00235715
0.00238768
0.00238768
0.00235885
0.00235885
0.00238768
0.00235885
0.00235885
0.00238947
0.00235715
0.00238768
0.00235885
0.00235885
0.00235715
0.00235104
0.00231888
0.00234927
0.00234927
0.00232057
0.00232057
0.00235104
0.00231888
0.00234927
0.00234927
0.00232057
0.00232057
0.00234927
0.00232057
0.00232058
0.00235104
0.00231888
0.00234927
0.00232057
0.00232057
0.00231888
0.00231279
0.00228077
0.00231103
0.00231103
0.00228247
0.00228247
0.00231279
0.00228077
0.00231103
0.00231103
0.00228247
0.00228247
0.00231103
0.00228247
0.00228247
0.00231279
0.00228077
0.00231103
0.00228247
0.00228247
0.00228077
0.00227471
0.00224283
0.00227297
0.00227297
0.00224453
0.00224453
0.00227471
0.00224283
0.00227297
0.00227297
0.00224453
0.00224453
0.00227297
0.00224453
0.00224453
0.00227471
0.00224283
0.00227297
0.00224453
0.00224453
0.00224283
0.00223679
0.00220504
0.00223507
0.00223507
0.00220673
0.00220673
0.00223679
0.00220504
0.00223507
0.00223507
0.00220673
0.00220673
0.00223507
0.00220673
0.00220673
0.00223679
0.00220504
0.00223507
0.00220673
0.00220673
0.00220504
0.00219901
0.00216737
0.0021973
0.0021973
0.00216906
0.00216906
0.00219901
0.00216737
0.0021973
0.0021973
0.00216906
0.00216906
0.0021973
0.00216906
0.00216906
0.00219901
0.00216737
0.0021973
0.00216906
0.00216906
0.00216737
0.00216135
0.0021298
0.00215966
0.00215966
0.0021315
0.0021315
0.00216136
0.0021298
0.00215966
0.00215966
0.0021315
0.0021315
0.00215966
0.0021315
0.0021315
0.00216136
0.0021298
0.00215966
0.0021315
0.0021315
0.00212981
0.0021238
0.00209233
0.00212212
0.00212212
0.00209402
0.00209402
0.0021238
0.00209233
0.00212212
0.00212212
0.00209402
0.00209402
0.00212212
0.00209402
0.00209402
0.00212381
0.00209233
0.00212212
0.00209402
0.00209402
0.00209233
0.00208634
0.00205492
0.00208466
0.00208466
0.00205662
0.00205662
0.00208634
0.00205492
0.00208466
0.00208466
0.00205662
0.00205662
0.00208466
0.00205662
0.00205662
0.00208634
0.00205492
0.00208466
0.00205662
0.00205662
0.00205492
0.00204894
0.00201759
0.00204728
0.00204728
0.00201929
0.00201929
0.00204894
0.00201759
0.00204728
0.00204728
0.00201928
0.00201928
0.00204728
0.00201929
0.00201929
0.00204894
0.00201759
0.00204728
0.00201928
0.00201928
0.00201759
0.00201162
0.00198035
0.00200996
0.00200997
0.00198204
0.00198204
0.00201162
0.00198035
0.00200996
0.00200996
0.00198204
0.00198204
0.00200997
0.00198204
0.00198204
0.00201162
0.00198035
0.00200996
0.00198204
0.00198204
0.00198035
0.00197439
0.00194322
0.00197274
0.00197274
0.00194491
0.00194491
0.00197439
0.00194322
0.00197274
0.00197274
0.0019449
0.0019449
0.00197274
0.00194491
0.00194491
0.00197439
0.00194322
0.00197274
0.0019449
0.0019449
0.00194322
0.00193728
0.00190626
0.00193565
0.00193565
0.00190794
0.00190794
0.00193729
0.00190626
0.00193564
0.00193564
0.00190794
0.00190793
0.00193564
0.00190794
0.00190793
0.00193728
0.00190626
0.00193564
0.00190793
0.00190794
0.00190626
0.00190035
0.00186952
0.00189872
0.00189872
0.00187119
0.00187119
0.00190035
0.00186952
0.00189872
0.00189872
0.00187119
0.00187119
0.00189872
0.00187119
0.00187119
0.00190035
0.00186952
0.00189872
0.00187119
0.00187119
0.00186952
0.00186366
0.00183307
0.00186205
0.00186204
0.00183473
0.00183472
0.00186366
0.00183307
0.00186205
0.00186205
0.00183473
0.00183473
0.00186204
0.00183472
0.00183472
0.00186366
0.00183307
0.00186204
0.00183473
0.00183472
0.00183307
0.00182726
0.00179693
0.00182566
0.00182565
0.00179856
0.00179856
0.00182725
0.00179692
0.00182566
0.00182566
0.00179857
0.00179857
0.00182566
0.00179856
0.00179856
0.00182726
0.00179693
0.00182565
0.00179857
0.00179856
0.00179693
0.00179116
0.00176106
0.00178957
0.00178956
0.00176269
0.00176268
0.00179115
0.00176106
0.00178957
0.00178957
0.00176269
0.00176269
0.00178957
0.00176268
0.00176269
0.00179116
0.00176107
0.00178957
0.00176269
0.00176269
0.00176107
0.00175534
0.00172544
0.00175376
0.00175375
0.00172705
0.00172705
0.00175533
0.00172544
0.00175376
0.00175376
0.00172705
0.00172705
0.00175376
0.00172705
0.00172705
0.00175534
0.00172544
0.00175376
0.00172705
0.00172706
0.00172544
0.00171974
0.00168999
0.00171817
0.00171817
0.0016916
0.0016916
0.00171975
0.00169
0.00171817
0.00171817
0.00169159
0.0016916
0.00171818
0.0016916
0.0016916
0.00171974
0.00169
0.00171818
0.00169159
0.0016916
0.00169001
0.00168433
0.00165471
0.00168276
0.00168276
0.00165629
0.0016563
0.00168433
0.00165471
0.00168275
0.00168276
0.00165629
0.00165629
0.00168276
0.0016563
0.00165629
0.00168433
0.0016547
0.00168276
0.00165629
0.0016563
0.00165471
0.00359072
0.0036007
0.00359531
0.00359531
0.00361775
0.00360467
0.00363315
0.00359859
0.00361782
0.00360469
0.00359861
0.00363318
0.00360918
0.0036372
0.00363734
0.00354969
0.00354986
0.0035681
0.00354802
0.00352796
0.003547
0.00354969
0.00354989
0.00356807
0.00354801
0.00356819
0.0035682
0.0035682
0.00352704
0.00352704
0.00352704
0.00352704
0.00354837
0.00356512
0.00356827
0.00355255
0.00357047
0.00354935
0.00355318
0.00352809
0.00354704
0.00354838
0.00356828
0.00356518
0.00355256
0.00357048
0.00355319
0.00354934
0.00356178
0.0035618
0.00354941
0.00354968
0.0035497
0.00349999
0.00351786
0.00351888
0.00349908
0.00351724
0.00349862
0.00349999
0.00351785
0.00351888
0.00349908
0.00351462
0.00351462
0.00351462
0.00347633
0.00347633
0.00347633
0.00347633
0.00349908
0.00351835
0.0035147
0.00350214
0.00351764
0.00349955
0.00350208
0.00351724
0.00349862
0.00349908
0.0035147
0.00351835
0.00350214
0.00351764
0.00350208
0.00349955
0.00351862
0.00351863
0.00349951
0.00349968
0.00349968
0.00344772
0.00346632
0.00346716
0.00344695
0.00346602
0.00344671
0.00344772
0.00346632
0.00346716
0.00344695
0.00346335
0.00346335
0.00346335
0.00342438
0.00342438
0.00342438
0.00342438
0.0034472
0.00346669
0.00346336
0.00345037
0.0034664
0.00344737
0.00345035
0.00346602
0.00344671
0.0034472
0.00346336
0.00346669
0.00345037
0.0034664
0.00345035
0.00344737
0.00346677
0.00346677
0.00344769
0.00344732
0.00344732
0.0033956
0.0034141
0.00341478
0.003395
0.00341393
0.00339484
0.0033956
0.0034141
0.00341478
0.003395
0.00341144
0.00341144
0.00341144
0.00337301
0.00337302
0.00337302
0.00337302
0.00339533
0.00341441
0.00341141
0.00339852
0.0034143
0.00339537
0.00339853
0.00341393
0.00339484
0.00339533
0.00341141
0.00341441
0.00339852
0.0034143
0.00339853
0.00339537
0.0034144
0.0034144
0.00339587
0.00339526
0.00339526
0.00334473
0.00336287
0.00336337
0.00334429
0.00336276
0.00334416
0.00334473
0.00336287
0.00336337
0.00334429
0.00336036
0.00336036
0.00336036
0.00332295
0.00332295
0.00332295
0.00332295
0.00334462
0.00336311
0.00336032
0.00334775
0.00336308
0.00334462
0.00334775
0.00336275
0.00334417
0.00334462
0.00336032
0.00336311
0.00334775
0.00336308
0.00334776
0.00334462
0.0033631
0.0033631
0.00334518
0.0033445
0.0033445
0.00329538
0.00331309
0.00331345
0.00329507
0.00331301
0.00329495
0.00329538
0.00331309
0.00331345
0.00329507
0.00331065
0.00331065
0.00331065
0.00327432
0.00327432
0.00327432
0.00327432
0.00329537
0.00331328
0.00331061
0.00329841
0.00331326
0.00329537
0.00329841
0.003313
0.00329496
0.00329537
0.00331061
0.00331328
0.00329841
0.00331326
0.00329841
0.00329536
0.00331328
0.00331328
0.00329595
0.00329525
0.00329525
0.00324749
0.00326478
0.00326502
0.00324727
0.00326469
0.00324716
0.00324749
0.00326478
0.00326502
0.00324727
0.00326238
0.00326238
0.00326238
0.00322703
0.00322703
0.00322703
0.00322703
0.00324754
0.00326492
0.00326233
0.00325049
0.00326491
0.00324754
0.00325048
0.00326469
0.00324716
0.00324754
0.00326233
0.00326492
0.00325049
0.00326491
0.00325048
0.00324754
0.00326495
0.00326495
0.00324812
0.00324743
0.00324743
0.00320086
0.00321777
0.00321794
0.0032007
0.00321769
0.00320059
0.00320086
0.00321777
0.00321794
0.0032007
0.00321539
0.00321539
0.00321539
0.00318088
0.00318088
0.00318088
0.00318088
0.00320096
0.00321788
0.00321536
0.00320381
0.00321787
0.00320095
0.00320379
0.00321769
0.00320059
0.00320096
0.00321536
0.00321788
0.00320381
0.00321787
0.00320379
0.00320095
0.00321792
0.00321792
0.00320152
0.00320084
0.00320084
0.00315528
0.00317186
0.003172
0.00315514
0.00317179
0.00315504
0.00315528
0.00317186
0.003172
0.00315514
0.0031695
0.0031695
0.0031695
0.00313568
0.00313568
0.00313568
0.00313568
0.00315541
0.00317195
0.00316947
0.00315817
0.00317195
0.0031554
0.00315815
0.00317179
0.00315504
0.00315541
0.00316947
0.00317195
0.00315817
0.00317194
0.00315815
0.0031554
0.00317199
0.003172
0.00315594
0.00315528
0.00315528
0.00311053
0.00312685
0.00312696
0.00311042
0.00312678
0.00311032
0.00311053
0.00312685
0.00312696
0.00311042
0.0031245
0.0031245
0.0031245
0.00309123
0.00309123
0.00309123
0.00309123
0.00311068
0.00312693
0.00312448
0.00311337
0.00312692
0.00311067
0.00311335
0.00312678
0.00311032
0.00311068
0.00312448
0.00312693
0.00311337
0.00312692
0.00311335
0.00311067
0.00312697
0.00312697
0.0031112
0.00311054
0.00311054
0.00306646
0.00308255
0.00308265
0.00306635
0.00308248
0.00306626
0.00306646
0.00308255
0.00308265
0.00306635
0.00308022
0.00308022
0.00308022
0.00304741
0.00304741
0.00304741
0.00304741
0.00306664
0.00308262
0.00308021
0.00306926
0.00308262
0.00306661
0.00306924
0.00308248
0.00306626
0.00306664
0.00308021
0.00308262
0.00306926
0.00308262
0.00306924
0.00306661
0.00308266
0.00308266
0.00306712
0.00306647
0.00306647
0.00302296
0.00303885
0.00303894
0.00302284
0.00303878
0.00302276
0.00302296
0.00303885
0.00303894
0.00302284
0.00303654
0.00303654
0.00303654
0.00300412
0.00300412
0.00300412
0.00300412
0.00302315
0.00303891
0.00303653
0.00302571
0.00303892
0.0030231
0.00302569
0.00303878
0.00302276
0.00302315
0.00303653
0.00303891
0.00302571
0.00303892
0.00302569
0.0030231
0.00303895
0.00303895
0.0030236
0.00302295
0.00302295
0.00297995
0.00299566
0.00299576
0.00297983
0.0029956
0.00297975
0.00297995
0.00299566
0.00299576
0.00297983
0.00299337
0.00299337
0.00299337
0.0029613
0.0029613
0.0029613
0.0029613
0.00298016
0.00299571
0.00299336
0.00298266
0.00299574
0.00298009
0.00298265
0.0029956
0.00297975
0.00298016
0.00299337
0.00299571
0.00298266
0.00299574
0.00298265
0.00298009
0.00299575
0.00299575
0.00298057
0.00297993
0.00297993
0.00293739
0.00295293
0.00295303
0.00293726
0.00295288
0.00293719
0.00293739
0.00295293
0.00295303
0.00293726
0.00295067
0.00295067
0.00295067
0.00291892
0.00291892
0.00291892
0.00291892
0.00293762
0.00295298
0.00295066
0.00294007
0.00295302
0.00293752
0.00294006
0.00295288
0.00293719
0.00293762
0.00295066
0.00295298
0.00294007
0.00295302
0.00294006
0.00293752
0.00295301
0.00295301
0.00293802
0.00293735
0.00293735
0.00289525
0.00291063
0.00291074
0.00289512
0.00291059
0.00289506
0.00289525
0.00291063
0.00291074
0.00289512
0.00290839
0.00290839
0.00290839
0.00287695
0.00287695
0.00287695
0.00287695
0.0028955
0.00291067
0.00290839
0.0028979
0.00291073
0.00289537
0.00289789
0.00291059
0.00289505
0.0028955
0.00290839
0.00291067
0.0028979
0.00291073
0.00289789
0.00289537
0.0029107
0.0029107
0.00289589
0.0028952
0.0028952
0.0028535
0.00286875
0.00286885
0.00285337
0.0028687
0.00285331
0.0028535
0.00286874
0.00286885
0.00285337
0.00286652
0.00286652
0.00286652
0.00283537
0.00283537
0.00283537
0.00283537
0.00285377
0.00286878
0.00286653
0.00285612
0.00286885
0.00285362
0.00285612
0.0028687
0.00285331
0.00285377
0.00286653
0.00286878
0.00285612
0.00286885
0.00285612
0.00285362
0.00286881
0.00286881
0.00285416
0.00285344
0.00285344
0.00281213
0.00282724
0.00282734
0.002812
0.0028272
0.00281195
0.00281213
0.00282724
0.00282734
0.002812
0.00282503
0.00282503
0.00282503
0.00279415
0.00279415
0.00279415
0.00279415
0.00281241
0.00282727
0.00282504
0.00281472
0.00282734
0.00281224
0.00281472
0.0028272
0.00281195
0.00281241
0.00282504
0.00282727
0.00281472
0.00282735
0.00281472
0.00281224
0.00282729
0.00282729
0.00281279
0.00281206
0.00281206
0.00277111
0.0027861
0.0027862
0.00277099
0.00278606
0.00277093
0.00277111
0.0027861
0.0027862
0.00277098
0.0027839
0.0027839
0.0027839
0.00275327
0.00275327
0.00275327
0.00275327
0.0027714
0.00278612
0.00278391
0.00277368
0.0027862
0.00277121
0.00277368
0.00278606
0.00277093
0.0027714
0.00278391
0.00278612
0.00277367
0.0027862
0.00277368
0.00277121
0.00278614
0.00278614
0.00277177
0.00277104
0.00277104
0.00273041
0.0027453
0.00274539
0.00273028
0.00274526
0.00273025
0.00273041
0.00274529
0.00274539
0.00273029
0.0027431
0.0027431
0.0027431
0.0027127
0.0027127
0.0027127
0.0027127
0.00273071
0.0027453
0.00274311
0.00273295
0.00274538
0.00273051
0.00273295
0.00274526
0.00273024
0.00273071
0.00274311
0.0027453
0.00273295
0.00274538
0.00273295
0.00273051
0.00274533
0.00274533
0.00273108
0.00273034
0.00273034
0.00269001
0.00270479
0.00270488
0.0026899
0.00270476
0.00268987
0.00269001
0.00270479
0.00270488
0.0026899
0.0027026
0.00270261
0.00270261
0.00267243
0.00267243
0.00267243
0.00267243
0.00269031
0.0027048
0.00270261
0.00269253
0.00270488
0.00269011
0.00269253
0.00270477
0.00268985
0.00269031
0.00270261
0.0027048
0.00269253
0.00270488
0.00269254
0.00269011
0.00270483
0.00270483
0.00269069
0.00268994
0.00268994
0.00264989
0.00266458
0.00266466
0.00264978
0.00266455
0.00264975
0.00264989
0.00266458
0.00266466
0.00264978
0.0026624
0.0026624
0.0026624
0.00263242
0.00263242
0.00263243
0.00263242
0.00265019
0.00266458
0.00266241
0.0026524
0.00266465
0.00264998
0.0026524
0.00266456
0.00264974
0.00265019
0.00266241
0.00266458
0.0026524
0.00266465
0.0026524
0.00264998
0.00266461
0.00266461
0.00265058
0.00264982
0.00264982
0.00261003
0.00262464
0.00262471
0.00260993
0.00262461
0.00260989
0.00261003
0.00262464
0.00262471
0.00260993
0.00262246
0.00262247
0.00262246
0.00259268
0.00259268
0.00259268
0.00259268
0.00261033
0.00262463
0.00262247
0.00261252
0.00262469
0.00261012
0.00261252
0.00262461
0.00260989
0.00261033
0.00262247
0.00262463
0.00261252
0.0026247
0.00261252
0.00261012
0.00262466
0.00262466
0.00261073
0.00260996
0.00260996
0.00257042
0.00258494
0.00258501
0.00257032
0.00258492
0.00257028
0.00257042
0.00258494
0.00258501
0.00257032
0.00258278
0.00258278
0.00258278
0.00255317
0.00255317
0.00255317
0.00255317
0.00257071
0.00258493
0.00258278
0.00257289
0.00258499
0.00257051
0.00257289
0.00258492
0.00257028
0.00257071
0.00258278
0.00258493
0.00257289
0.00258499
0.00257289
0.00257051
0.00258497
0.00258497
0.00257112
0.00257035
0.00257035
0.00253103
0.00254548
0.00254555
0.00253094
0.00254547
0.00253091
0.00253103
0.00254548
0.00254555
0.00253094
0.00254333
0.00254333
0.00254333
0.00251389
0.00251389
0.00251389
0.00251389
0.00253131
0.00254546
0.00254333
0.0025335
0.00254551
0.00253112
0.0025335
0.00254547
0.00253091
0.00253131
0.00254333
0.00254547
0.0025335
0.00254551
0.0025335
0.00253112
0.0025455
0.0025455
0.00253175
0.00253097
0.00253097
0.00249187
0.00250625
0.00250631
0.00249178
0.00250623
0.00249175
0.00249187
0.00250625
0.00250631
0.00249178
0.00250411
0.00250411
0.00250411
0.00247483
0.00247483
0.00247483
0.00247483
0.00249213
0.00250622
0.0025041
0.00249433
0.00250626
0.00249195
0.00249433
0.00250623
0.00249175
0.00249213
0.0025041
0.00250623
0.00249433
0.00250626
0.00249433
0.00249195
0.00250627
0.00250627
0.00249259
0.0024918
0.0024918
0.00245291
0.00246723
0.00246728
0.00245283
0.00246721
0.0024528
0.00245291
0.00246723
0.00246728
0.00245283
0.0024651
0.0024651
0.0024651
0.00243598
0.00243598
0.00243598
0.00243598
0.00245316
0.0024672
0.00246509
0.00245537
0.00246723
0.00245298
0.00245537
0.00246721
0.00245281
0.00245316
0.00246509
0.0024672
0.00245537
0.00246723
0.00245537
0.00245299
0.00246724
0.00246724
0.00245365
0.00245285
0.00245285
0.00241416
0.00242841
0.00242846
0.00241409
0.0024284
0.00241406
0.00241416
0.00242841
0.00242846
0.00241409
0.0024263
0.0024263
0.0024263
0.00239733
0.00239733
0.00239733
0.00239733
0.0024144
0.00242838
0.00242629
0.00241662
0.00242841
0.00241423
0.00241662
0.0024284
0.00241406
0.0024144
0.00242629
0.00242838
0.00241662
0.00242841
0.00241662
0.00241423
0.00242843
0.00242843
0.0024149
0.00241411
0.00241411
0.00237561
0.00238979
0.00238984
0.00237554
0.00238978
0.00237552
0.00237561
0.00238979
0.00238984
0.00237554
0.0023877
0.0023877
0.0023877
0.00235887
0.00235887
0.00235887
0.00235887
0.00237584
0.00238976
0.00238768
0.00237806
0.00238978
0.00237567
0.00237806
0.00238978
0.00237552
0.00237584
0.00238768
0.00238976
0.00237806
0.00238978
0.00237806
0.00237567
0.00238981
0.00238981
0.00237635
0.00237556
0.00237556
0.00233725
0.00235137
0.00235141
0.00233718
0.00235136
0.00233716
0.00233725
0.00235137
0.00235141
0.00233718
0.00234928
0.00234928
0.00234928
0.00232059
0.00232059
0.00232059
0.00232059
0.00233747
0.00235133
0.00234927
0.00233969
0.00235135
0.00233731
0.0023397
0.00235136
0.00233716
0.00233747
0.00234927
0.00235134
0.00233969
0.00235135
0.0023397
0.00233731
0.00235138
0.00235138
0.00233799
0.0023372
0.0023372
0.00229906
0.00231312
0.00231316
0.002299
0.00231312
0.00229898
0.00229906
0.00231312
0.00231316
0.002299
0.00231105
0.00231105
0.00231105
0.00228249
0.00228249
0.00228249
0.00228249
0.00229927
0.00231309
0.00231104
0.0023015
0.0023131
0.00229912
0.00230151
0.00231312
0.00229898
0.00229927
0.00231104
0.00231309
0.0023015
0.0023131
0.00230151
0.00229912
0.00231314
0.00231314
0.0022998
0.00229901
0.00229901
0.00226105
0.00227505
0.00227509
0.00226099
0.00227505
0.00226097
0.00226105
0.00227505
0.00227509
0.00226099
0.00227299
0.00227299
0.00227299
0.00224455
0.00224455
0.00224455
0.00224455
0.00226125
0.00227502
0.00227298
0.00226348
0.00227503
0.0022611
0.00226349
0.00227505
0.00226097
0.00226125
0.00227298
0.00227502
0.00226348
0.00227503
0.00226349
0.0022611
0.00227507
0.00227507
0.00226178
0.002261
0.002261
0.00222319
0.00223714
0.00223718
0.00222313
0.00223714
0.00222311
0.00222319
0.00223714
0.00223718
0.00222313
0.00223509
0.00223509
0.00223509
0.00220675
0.00220675
0.00220675
0.00220676
0.00222338
0.00223711
0.00223507
0.00222561
0.00223711
0.00222324
0.00222562
0.00223714
0.00222311
0.00222338
0.00223507
0.00223711
0.00222561
0.00223711
0.00222562
0.00222324
0.00223716
0.00223716
0.00222392
0.00222314
0.00222314
0.00218546
0.00219937
0.00219941
0.0021854
0.00219937
0.00218539
0.00218546
0.00219937
0.00219941
0.0021854
0.00219733
0.00219733
0.00219733
0.00216909
0.00216909
0.00216909
0.00216909
0.00218565
0.00219934
0.00219731
0.00218788
0.00219934
0.00218552
0.00218789
0.00219937
0.00218539
0.00218565
0.00219731
0.00219934
0.00218788
0.00219934
0.00218789
0.00218551
0.00219939
0.00219939
0.00218619
0.00218542
0.00218542
0.00214785
0.00216173
0.00216176
0.0021478
0.00216173
0.00214778
0.00214785
0.00216173
0.00216176
0.0021478
0.00215969
0.00215969
0.00215969
0.00213152
0.00213152
0.00213152
0.00213152
0.00214804
0.0021617
0.00215967
0.00215027
0.0021617
0.00214791
0.00215028
0.00216172
0.00214778
0.00214804
0.00215968
0.0021617
0.00215027
0.0021617
0.00215028
0.00214791
0.00216174
0.00216174
0.00214857
0.00214781
0.00214781
0.00211034
0.00212419
0.00212422
0.00211029
0.00212418
0.00211027
0.00211034
0.00212419
0.00212422
0.00211029
0.00212215
0.00212215
0.00212215
0.00209405
0.00209405
0.00209405
0.00209405
0.00211052
0.00212416
0.00212214