/*--------------------------------*- C++ -*----------------------------------*\
| =========                 |                                                 |
| \\      /  F ield         | OpenFOAM: The Open Source CFD Toolbox           |
|  \\    /   O peration     | Version:  v2012                                 |
|   \\  /    A nd           | Website:  www.openfoam.com                      |
|    \\/     M anipulation  |                                                 |
\*---------------------------------------------------------------------------*/
FoamFile
{
    version     2.0;
    format      ascii;
    class       volScalarField;
    location    "137.5";
    object      epsilon;
}
// * * * * * * * * * * * * * * * * * * * * * * * * * * * * * * * * * * * * * //

dimensions      [0 2 -3 0 0 0 0];


internalField   nonuniform List<scalar> 
171728
(
2.64561e-08
6.25292e-09
6.06184e-09
5.13328e-09
2.6537e-08
6.11939e-09
5.89178e-09
4.69748e-09
2.73082e-08
6.06928e-09
5.80631e-09
4.36543e-09
2.81033e-08
6.08719e-09
5.80428e-09
4.09783e-09
2.89123e-08
6.15912e-09
5.86511e-09
3.87481e-09
2.97313e-08
6.29938e-09
6.0087e-09
3.72624e-09
3.05617e-08
6.52244e-09
6.23014e-09
3.6566e-09
3.13969e-08
6.84269e-09
6.537e-09
3.67718e-09
3.22279e-08
7.25996e-09
6.93094e-09
3.78624e-09
3.30585e-08
7.77663e-09
7.37857e-09
3.97136e-09
3.388e-08
8.38051e-09
7.90391e-09
4.22956e-09
3.46979e-08
9.09504e-09
8.51354e-09
4.56072e-09
3.54963e-08
9.89853e-09
9.25167e-09
4.9486e-09
3.62819e-08
1.08311e-08
1.01795e-08
5.40107e-09
3.7109e-08
1.19241e-08
1.12834e-08
5.95635e-09
3.78724e-08
1.31804e-08
1.26238e-08
6.71046e-09
3.87167e-08
1.4683e-08
1.43496e-08
7.69702e-09
3.95778e-08
1.66164e-08
1.64856e-08
9.20267e-09
4.04439e-08
1.9197e-08
1.93539e-08
1.19141e-08
4.14985e-08
2.2806e-08
2.32458e-08
1.66026e-08
4.26927e-08
2.79848e-08
2.85811e-08
2.45824e-08
4.41606e-08
3.52679e-08
3.61447e-08
3.75607e-08
4.58931e-08
4.50301e-08
4.63298e-08
5.95205e-08
4.80891e-08
5.82974e-08
5.98397e-08
9.12872e-08
5.0828e-08
7.52229e-08
7.76246e-08
1.34666e-07
5.44396e-08
9.59054e-08
9.99174e-08
1.90801e-07
5.90806e-08
1.21744e-07
1.25165e-07
2.58133e-07
6.60859e-08
1.57369e-07
1.59158e-07
3.39059e-07
7.67487e-08
2.06663e-07
2.07769e-07
4.30194e-07
9.38208e-08
2.72062e-07
2.72764e-07
5.2131e-07
1.17251e-07
3.47043e-07
3.47366e-07
6.08533e-07
1.44348e-07
4.17034e-07
4.17196e-07
6.79293e-07
1.70553e-07
4.70344e-07
4.70458e-07
7.28193e-07
1.89383e-07
5.00801e-07
5.00905e-07
7.5405e-07
1.98654e-07
5.12505e-07
5.12605e-07
7.62943e-07
2.02009e-07
5.1604e-07
5.16135e-07
7.65544e-07
2.02968e-07
5.16936e-07
5.17028e-07
7.66283e-07
2.03191e-07
5.17129e-07
5.17221e-07
7.66471e-07
2.03226e-07
5.17123e-07
5.17217e-07
7.66348e-07
2.03235e-07
5.17127e-07
5.1722e-07
7.66354e-07
2.03238e-07
5.17137e-07
5.17228e-07
7.66435e-07
2.03239e-07
5.17131e-07
5.17225e-07
7.66346e-07
2.03241e-07
5.17133e-07
5.17229e-07
7.66379e-07
2.03242e-07
5.17133e-07
5.17228e-07
7.66419e-07
2.03243e-07
5.17139e-07
5.17234e-07
7.66409e-07
2.03244e-07
5.17136e-07
5.17232e-07
7.66367e-07
2.03246e-07
5.17136e-07
5.17232e-07
7.66356e-07
2.03246e-07
5.17138e-07
5.17234e-07
7.66357e-07
2.03246e-07
5.17137e-07
5.17232e-07
7.66366e-07
2.03247e-07
5.17137e-07
5.17232e-07
7.66347e-07
2.03247e-07
5.17141e-07
5.17235e-07
7.66364e-07
2.03247e-07
5.17139e-07
5.17234e-07
7.6642e-07
2.03248e-07
5.17138e-07
5.17232e-07
7.66343e-07
2.03248e-07
5.17138e-07
5.17233e-07
7.66363e-07
2.03248e-07
5.17142e-07
5.17232e-07
7.66469e-07
2.03248e-07
5.17135e-07
5.17232e-07
7.66434e-07
2.03248e-07
5.17139e-07
5.17232e-07
7.66349e-07
2.03249e-07
5.17141e-07
5.17233e-07
7.66292e-07
2.03249e-07
5.17141e-07
5.17233e-07
7.66293e-07
2.03249e-07
5.17139e-07
5.1723e-07
7.66321e-07
2.03249e-07
5.17137e-07
5.17231e-07
7.6634e-07
2.03249e-07
5.1714e-07
5.17233e-07
7.6636e-07
2.03249e-07
5.1714e-07
5.17233e-07
7.66392e-07
2.0325e-07
5.17141e-07
5.17234e-07
7.66399e-07
2.0325e-07
5.17141e-07
5.17234e-07
7.66363e-07
2.03249e-07
5.17141e-07
5.17233e-07
7.66342e-07
2.03249e-07
5.1714e-07
5.17232e-07
7.66355e-07
2.03249e-07
5.1714e-07
5.17232e-07
7.66372e-07
2.03249e-07
5.1714e-07
5.17231e-07
7.66374e-07
2.03249e-07
5.1714e-07
5.17232e-07
7.66368e-07
2.03249e-07
5.17141e-07
5.17231e-07
7.66363e-07
2.03249e-07
5.17141e-07
5.17231e-07
7.66365e-07
2.03249e-07
5.1714e-07
5.17231e-07
7.66374e-07
2.03249e-07
5.1714e-07
5.17231e-07
7.66368e-07
2.03249e-07
5.17139e-07
5.1723e-07
7.66344e-07
2.03249e-07
5.17139e-07
5.17229e-07
7.66334e-07
2.03249e-07
5.17137e-07
5.17228e-07
7.66358e-07
2.03249e-07
5.17136e-07
5.17227e-07
7.66383e-07
2.03249e-07
5.17136e-07
5.17225e-07
7.66385e-07
2.03248e-07
5.17136e-07
5.17225e-07
7.66369e-07
2.03248e-07
5.17135e-07
5.17226e-07
7.66358e-07
2.03248e-07
5.17136e-07
5.17226e-07
7.66362e-07
2.03248e-07
5.17137e-07
5.17226e-07
7.66362e-07
2.03248e-07
5.17138e-07
5.17228e-07
7.6635e-07
2.03249e-07
5.17141e-07
5.1723e-07
7.66341e-07
2.03249e-07
5.17144e-07
5.17232e-07
7.6635e-07
2.03249e-07
5.17147e-07
5.17237e-07
7.66366e-07
2.03249e-07
5.17151e-07
5.17241e-07
7.66369e-07
2.03249e-07
5.17156e-07
5.17245e-07
7.66356e-07
2.03249e-07
5.17162e-07
5.17249e-07
7.6635e-07
2.0325e-07
5.17168e-07
5.17256e-07
7.66357e-07
2.0325e-07
5.17176e-07
5.17264e-07
7.66337e-07
2.03246e-07
5.17177e-07
5.17263e-07
7.6628e-07
2.02984e-07
5.17021e-07
5.17101e-07
7.65988e-07
1.94093e-07
4.81613e-07
4.81628e-07
7.26479e-07
5.54672e-09
5.07465e-09
4.52451e-09
5.15221e-09
4.50231e-09
4.48032e-09
2.7223e-08
2.73149e-08
2.7277e-08
2.75861e-08
4.98807e-09
4.55246e-09
5.57078e-09
5.17402e-09
5.22769e-09
5.2044e-09
5.51094e-09
5.05734e-09
6.02674e-09
5.25284e-09
5.88578e-09
5.19773e-09
5.09037e-09
4.75462e-09
4.79538e-09
4.70005e-09
4.75673e-09
4.69256e-09
5.41432e-09
6.14719e-09
5.31075e-09
5.5434e-09
5.12722e-09
6.41241e-09
5.92796e-09
6.27529e-09
4.76793e-09
4.97376e-09
4.61104e-09
5.84663e-09
5.18981e-09
5.7528e-09
5.17477e-09
4.68961e-09
4.43839e-09
4.752e-09
4.69651e-09
4.745e-09
4.73845e-09
5.28966e-09
6.07357e-09
5.24919e-09
5.05312e-09
4.7215e-09
6.24087e-09
5.82124e-09
6.16186e-09
4.42436e-09
4.54317e-09
4.26835e-09
5.73142e-09
5.17589e-09
5.69931e-09
5.1964e-09
4.38404e-09
4.18821e-09
4.74658e-09
4.75997e-09
4.76994e-09
4.85065e-09
5.24858e-09
6.07925e-09
5.26172e-09
4.65776e-09
4.40876e-09
6.1471e-09
5.80009e-09
6.14521e-09
4.15122e-09
4.2105e-09
3.97527e-09
5.7001e-09
5.2117e-09
5.72263e-09
5.28359e-09
4.13978e-09
3.97738e-09
4.78676e-09
4.88732e-09
4.85785e-09
5.02325e-09
5.27854e-09
6.14109e-09
5.36302e-09
4.35767e-09
4.16627e-09
6.15079e-09
5.84726e-09
6.21592e-09
3.92156e-09
3.92009e-09
3.71902e-09
5.73844e-09
5.31895e-09
5.82615e-09
5.44207e-09
3.93231e-09
3.78065e-09
4.8874e-09
5.07634e-09
5.00241e-09
5.25572e-09
5.40187e-09
6.26111e-09
5.54936e-09
4.12223e-09
3.97373e-09
6.25467e-09
5.9693e-09
6.42285e-09
3.75944e-09
3.6709e-09
3.50676e-09
5.868e-09
5.49859e-09
6.03181e-09
5.68581e-09
3.73835e-09
3.63643e-09
5.0476e-09
5.32485e-09
5.20724e-09
5.55108e-09
5.61114e-09
6.46099e-09
5.82212e-09
3.93513e-09
3.83119e-09
6.49113e-09
6.17181e-09
6.73626e-09
3.67311e-09
3.46486e-09
3.36073e-09
6.09711e-09
5.7592e-09
6.32864e-09
6.02288e-09
3.60795e-09
3.56919e-09
5.26954e-09
5.63785e-09
5.49525e-09
5.91931e-09
5.906e-09
6.76176e-09
6.18978e-09
3.80718e-09
3.77167e-09
6.83353e-09
6.46018e-09
7.16849e-09
3.68368e-09
3.33553e-09
3.30976e-09
6.41469e-09
6.11714e-09
6.72246e-09
6.44283e-09
3.55477e-09
3.57367e-09
5.58606e-09
6.02133e-09
5.89753e-09
6.36903e-09
6.29899e-09
7.16033e-09
6.66051e-09
3.75984e-09
3.77776e-09
7.29622e-09
6.83203e-09
7.72691e-09
3.7884e-09
3.29782e-09
3.37193e-09
6.83837e-09
6.56997e-09
7.24033e-09
6.95297e-09
3.56714e-09
3.67543e-09
6.01496e-09
6.49402e-09
6.4194e-09
6.90823e-09
6.79415e-09
7.64137e-09
7.23883e-09
3.77251e-09
3.84737e-09
7.88484e-09
7.26636e-09
8.38964e-09
3.96866e-09
3.36997e-09
3.53958e-09
7.38786e-09
7.08546e-09
7.87646e-09
7.5551e-09
3.6737e-09
3.84864e-09
6.56507e-09
7.05422e-09
7.04994e-09
7.52302e-09
7.39068e-09
8.22511e-09
7.89829e-09
3.84444e-09
3.95081e-09
8.57272e-09
7.77586e-09
9.14707e-09
4.22092e-09
3.5442e-09
3.79151e-09
8.05062e-09
7.71945e-09
8.61765e-09
8.19734e-09
3.85257e-09
4.08967e-09
7.22486e-09
7.69276e-09
7.79741e-09
8.21554e-09
8.08142e-09
8.91493e-09
8.65092e-09
3.94966e-09
4.08175e-09
9.34999e-09
8.35087e-09
1.00148e-08
4.53796e-09
3.83048e-09
4.15996e-09
8.81516e-09
8.37704e-09
9.45783e-09
8.99219e-09
4.12387e-09
4.41176e-09
8.00357e-09
8.40311e-09
8.66297e-09
9.0117e-09
8.85559e-09
9.69584e-09
9.50729e-09
4.09924e-09
4.28008e-09
1.02524e-08
9.06438e-09
1.09803e-08
4.89386e-09
4.22169e-09
4.65387e-09
9.68674e-09
9.20639e-09
1.04061e-08
9.8911e-09
4.46233e-09
4.83385e-09
8.90515e-09
9.22364e-09
9.68288e-09
9.93435e-09
9.73855e-09
1.05923e-08
1.04973e-08
4.31068e-09
4.5646e-09
1.1231e-08
9.93994e-09
1.20697e-08
5.32873e-09
4.73973e-09
5.27088e-09
1.06583e-08
1.01344e-08
1.15191e-08
1.09285e-08
4.9119e-09
5.39762e-09
9.95338e-09
1.01886e-08
1.08411e-08
1.09828e-08
1.07615e-08
1.16422e-08
1.16014e-08
4.61998e-09
5.00788e-09
1.23601e-08
1.09889e-08
1.32582e-08
5.85754e-09
5.39361e-09
6.11098e-09
1.18361e-08
1.12296e-08
1.28163e-08
1.21787e-08
5.50809e-09
6.12948e-09
1.11738e-08
1.12988e-08
1.22096e-08
1.2307e-08
1.19118e-08
1.2864e-08
1.28802e-08
5.10273e-09
5.69484e-09
1.35766e-08
1.22718e-08
1.45948e-08
6.55293e-09
6.29574e-09
7.29784e-09
1.31741e-08
1.25258e-08
1.44619e-08
1.37554e-08
6.29381e-09
7.15435e-09
1.2569e-08
1.26481e-08
1.38329e-08
1.3892e-08
1.32376e-08
1.42917e-08
1.44584e-08
5.85809e-09
6.75591e-09
1.49669e-08
1.3899e-08
1.59798e-08
7.46947e-09
7.59156e-09
9.08822e-09
1.49277e-08
1.42066e-08
1.65316e-08
1.57458e-08
7.41627e-09
8.74785e-09
1.42893e-08
1.43392e-08
1.58806e-08
1.58916e-08
1.48942e-08
1.60707e-08
1.64865e-08
7.01861e-09
8.42116e-09
1.62965e-08
1.58947e-08
1.73842e-08
8.82772e-09
9.55615e-09
1.18492e-08
1.71347e-08
1.63406e-08
1.90821e-08
1.83577e-08
9.18209e-09
1.1336e-08
1.64909e-08
1.64831e-08
1.8494e-08
1.84464e-08
1.70995e-08
1.85019e-08
1.91939e-08
8.8691e-09
1.10751e-08
1.77717e-08
1.85678e-08
1.9127e-08
1.11941e-08
1.25864e-08
1.62179e-08
1.98238e-08
1.91308e-08
2.25433e-08
2.19306e-08
1.20414e-08
1.5572e-08
1.92741e-08
1.924e-08
2.20051e-08
2.18448e-08
2.00489e-08
2.17756e-08
2.27951e-08
1.18247e-08
1.55459e-08
1.97293e-08
2.21767e-08
2.22091e-08
1.54388e-08
1.74427e-08
2.36032e-08
2.3554e-08
2.30217e-08
2.688e-08
2.68076e-08
1.67791e-08
2.29621e-08
2.30516e-08
2.28509e-08
2.6715e-08
2.67789e-08
2.38462e-08
2.65273e-08
2.7669e-08
1.67364e-08
2.28371e-08
2.3217e-08
2.70598e-08
2.67155e-08
2.26524e-08
2.5597e-08
3.5905e-08
2.82202e-08
2.83215e-08
3.3199e-08
3.37212e-08
2.49797e-08
3.54814e-08
2.8204e-08
2.837e-08
3.3622e-08
3.36957e-08
2.90496e-08
3.32465e-08
3.36089e-08
2.48359e-08
3.53375e-08
2.81505e-08
3.4049e-08
3.34366e-08
3.44109e-08
3.91636e-08
5.59383e-08
3.51861e-08
3.5804e-08
4.232e-08
4.3066e-08
3.87645e-08
5.55092e-08
3.57194e-08
3.5681e-08
4.29251e-08
4.26355e-08
3.54588e-08
4.23182e-08
4.23872e-08
3.86364e-08
5.55759e-08
3.55182e-08
4.3524e-08
4.29312e-08
5.44439e-08
6.09257e-08
8.55995e-08
4.50829e-08
4.58751e-08
5.46022e-08
5.56006e-08
6.04717e-08
8.54709e-08
4.5688e-08
4.53709e-08
5.52127e-08
5.50298e-08
4.51078e-08
5.46215e-08
5.43559e-08
6.0555e-08
8.53963e-08
4.58133e-08
5.60837e-08
5.54324e-08
8.43831e-08
9.26035e-08
1.2735e-07
5.82783e-08
5.93268e-08
7.08742e-08
7.19858e-08
9.26152e-08
1.27866e-07
5.88362e-08
5.87596e-08
7.12169e-08
7.13856e-08
5.78603e-08
7.07139e-08
6.98639e-08
9.24797e-08
1.278e-07
5.90018e-08
7.27695e-08
7.11242e-08
1.25359e-07
1.36754e-07
1.8078e-07
7.55116e-08
7.66612e-08
9.08059e-08
9.20982e-08
1.37289e-07
1.81365e-07
7.58378e-08
7.60313e-08
9.11449e-08
9.13576e-08
7.43829e-08
9.03257e-08
8.97359e-08
1.37343e-07
1.82715e-07
7.56487e-08
9.40389e-08
9.0835e-08
1.7925e-07
1.92087e-07
2.44571e-07
9.6393e-08
9.76809e-08
1.14919e-07
1.15889e-07
1.92743e-07
2.45585e-07
9.67292e-08
9.69184e-08
1.1524e-07
1.15203e-07
9.54394e-08
1.14629e-07
1.1435e-07
1.94334e-07
2.47023e-07
9.64464e-08
1.1843e-07
1.15069e-07
2.4449e-07
2.58035e-07
3.22034e-07
1.21967e-07
1.22769e-07
1.47267e-07
1.47668e-07
2.59077e-07
3.22888e-07
1.223e-07
1.22172e-07
1.47702e-07
1.47436e-07
1.21505e-07
1.47286e-07
1.47048e-07
2.60226e-07
3.2282e-07
1.2214e-07
1.49407e-07
1.47487e-07
3.22598e-07
3.38476e-07
4.12433e-07
1.57322e-07
1.57647e-07
1.92875e-07
1.93089e-07
3.39272e-07
4.1273e-07
1.57802e-07
1.57545e-07
1.93376e-07
1.9323e-07
1.57156e-07
1.9292e-07
1.92778e-07
3.39084e-07
4.12762e-07
1.57544e-07
1.94129e-07
1.93013e-07
4.12736e-07
4.29988e-07
5.03722e-07
2.06672e-07
2.06856e-07
2.54423e-07
2.54537e-07
4.30184e-07
5.03593e-07
2.07138e-07
2.0704e-07
2.54681e-07
2.54759e-07
2.06579e-07
2.543e-07
2.54339e-07
4.30286e-07
5.03987e-07
2.06766e-07
2.55108e-07
2.54396e-07
5.03677e-07
5.21376e-07
5.92274e-07
2.72223e-07
2.7231e-07
3.28406e-07
3.28469e-07
5.21228e-07
5.92146e-07
2.72406e-07
2.72536e-07
3.28408e-07
3.28642e-07
2.72147e-07
3.28223e-07
3.2837e-07
5.21624e-07
5.92476e-07
2.72169e-07
3.28619e-07
3.28317e-07
5.92287e-07
6.08518e-07
6.66302e-07
3.47234e-07
3.47285e-07
4.00905e-07
4.00965e-07
6.08404e-07
6.66206e-07
3.47204e-07
3.47447e-07
4.00821e-07
4.01059e-07
3.47213e-07
4.00722e-07
4.00924e-07
6.08694e-07
6.66418e-07
3.47145e-07
4.00905e-07
4.0083e-07
6.66369e-07
6.79233e-07
7.19082e-07
4.17217e-07
4.17275e-07
4.59195e-07
4.59256e-07
6.79144e-07
7.18991e-07
4.17131e-07
4.17358e-07
4.59107e-07
4.59309e-07
4.17246e-07
4.59027e-07
4.59243e-07
6.7933e-07
7.19156e-07
4.17148e-07
4.59146e-07
4.59143e-07
7.19162e-07
7.28122e-07
7.48793e-07
4.70508e-07
4.7057e-07
4.95513e-07
4.95575e-07
7.28036e-07
7.48707e-07
4.70423e-07
4.70617e-07
4.95427e-07
4.95609e-07
4.70558e-07
4.9535e-07
4.95565e-07
7.28183e-07
7.48846e-07
4.7046e-07
4.95452e-07
4.95472e-07
7.48871e-07
7.53975e-07
7.60132e-07
5.0096e-07
5.01023e-07
5.10839e-07
5.10904e-07
7.53894e-07
7.6005e-07
5.00877e-07
5.01053e-07
5.1076e-07
5.10928e-07
5.01015e-07
5.10684e-07
5.10899e-07
7.5402e-07
7.60183e-07
5.00921e-07
5.10783e-07
5.10807e-07
7.60216e-07
7.6286e-07
7.63369e-07
5.12654e-07
5.1272e-07
5.15684e-07
5.1575e-07
7.62783e-07
7.63288e-07
5.12579e-07
5.12743e-07
5.15609e-07
5.15771e-07
5.12714e-07
5.15534e-07
5.15742e-07
7.62903e-07
7.63413e-07
5.12624e-07
5.15629e-07
5.15654e-07
7.63446e-07
7.65467e-07
7.64309e-07
5.16184e-07
5.1625e-07
5.1696e-07
5.17026e-07
7.6539e-07
7.64227e-07
5.16112e-07
5.16272e-07
5.16886e-07
5.17047e-07
5.16242e-07
5.16812e-07
5.17016e-07
7.65504e-07
7.64351e-07
5.16155e-07
5.16904e-07
5.1693e-07
7.64384e-07
7.6621e-07
7.64486e-07
5.17081e-07
5.17147e-07
5.17259e-07
5.17326e-07
7.66132e-07
7.64406e-07
5.17008e-07
5.17168e-07
5.17186e-07
5.17346e-07
5.17136e-07
5.17112e-07
5.17313e-07
7.66245e-07
7.64527e-07
5.1705e-07
5.17203e-07
5.17227e-07
7.64559e-07
7.664e-07
7.64412e-07
5.17275e-07
5.17341e-07
5.17275e-07
5.17342e-07
7.66324e-07
7.6433e-07
5.17203e-07
5.17362e-07
5.17203e-07
5.17363e-07
5.17329e-07
5.17127e-07
5.1733e-07
7.66434e-07
7.64456e-07
5.17242e-07
5.1722e-07
5.17242e-07
7.64486e-07
7.66276e-07
7.64374e-07
5.1727e-07
5.17337e-07
5.1727e-07
5.17337e-07
7.66197e-07
7.64292e-07
5.17198e-07
5.17358e-07
5.17198e-07
5.17358e-07
5.17324e-07
5.17123e-07
5.17325e-07
7.66312e-07
7.64419e-07
5.17237e-07
5.17216e-07
5.17237e-07
7.64451e-07
7.66278e-07
7.645e-07
5.17271e-07
5.17339e-07
5.17281e-07
5.17352e-07
7.662e-07
7.64423e-07
5.17199e-07
5.17359e-07
5.17212e-07
5.17373e-07
5.17325e-07
5.17138e-07
5.17338e-07
7.66316e-07
7.64537e-07
5.1724e-07
5.17229e-07
5.17253e-07
7.64566e-07
7.66369e-07
7.64348e-07
5.17278e-07
5.17347e-07
5.17274e-07
5.17342e-07
7.66299e-07
7.64276e-07
5.17213e-07
5.17369e-07
5.17207e-07
5.17366e-07
5.17335e-07
5.17129e-07
5.17333e-07
7.66402e-07
7.64398e-07
5.17249e-07
5.17223e-07
5.17246e-07
7.64435e-07
7.66254e-07
7.64472e-07
5.17274e-07
5.17342e-07
5.17279e-07
5.17345e-07
7.66187e-07
7.64383e-07
5.17207e-07
5.17366e-07
5.17212e-07
5.1737e-07
5.17332e-07
5.17133e-07
5.17337e-07
7.66304e-07
7.64491e-07
5.17246e-07
5.17228e-07
5.17251e-07
7.64523e-07
7.66319e-07
7.64454e-07
5.17277e-07
5.17342e-07
5.17278e-07
5.17344e-07
7.66231e-07
7.64389e-07
5.17212e-07
5.17368e-07
5.17212e-07
5.1737e-07
5.17335e-07
5.17132e-07
5.17337e-07
7.66337e-07
7.64506e-07
5.17249e-07
5.17228e-07
5.1725e-07
7.64528e-07
7.66352e-07
7.64421e-07
5.17277e-07
5.17342e-07
5.1728e-07
5.17346e-07
7.66283e-07
7.64363e-07
5.17212e-07
5.17368e-07
5.17215e-07
5.17373e-07
5.17334e-07
5.17137e-07
5.1734e-07
7.66385e-07
7.64502e-07
5.17249e-07
5.17232e-07
5.17253e-07
7.64504e-07
7.66318e-07
7.64408e-07
5.1728e-07
5.17346e-07
5.1728e-07
5.17344e-07
7.66272e-07
7.64323e-07
5.17215e-07
5.17372e-07
5.17215e-07
5.17373e-07
5.1734e-07
5.17133e-07
5.17338e-07
7.66396e-07
7.64474e-07
5.17254e-07
5.1723e-07
5.17252e-07
7.64467e-07
7.66291e-07
7.6444e-07
5.1728e-07
5.17344e-07
5.17283e-07
5.17346e-07
7.66234e-07
7.64321e-07
5.17215e-07
5.17374e-07
5.17217e-07
5.17375e-07
5.17338e-07
5.17136e-07
5.1734e-07
7.66382e-07
7.64463e-07
5.17252e-07
5.17231e-07
5.17255e-07
7.64476e-07
7.66295e-07
7.64478e-07
5.17283e-07
5.17346e-07
5.17286e-07
5.17346e-07
7.66206e-07
7.64339e-07
5.17217e-07
5.17376e-07
5.17217e-07
5.17374e-07
5.17339e-07
5.17137e-07
5.17341e-07
7.6637e-07
7.64453e-07
5.17254e-07
5.17232e-07
5.17255e-07
7.64487e-07
7.66329e-07
7.64494e-07
5.17284e-07
5.17345e-07
5.1729e-07
5.17348e-07
7.66208e-07
7.64354e-07
5.17216e-07
5.17374e-07
5.17219e-07
5.17377e-07
5.1734e-07
5.17136e-07
5.17341e-07
7.66361e-07
7.64451e-07
5.17254e-07
5.17232e-07
5.17256e-07
7.64497e-07
7.66358e-07
7.64493e-07
5.17288e-07
5.17346e-07
5.17291e-07
5.1735e-07
7.66212e-07
7.64379e-07
5.17216e-07
5.17375e-07
5.1722e-07
5.17378e-07
5.1734e-07
5.17139e-07
5.17343e-07
7.66354e-07
7.64465e-07
5.17255e-07
5.17233e-07
5.17257e-07
7.64481e-07
7.66371e-07
7.64487e-07
5.1729e-07
5.17347e-07
5.17292e-07
5.17349e-07
7.66236e-07
7.64371e-07
5.17218e-07
5.17377e-07
5.17218e-07
5.17376e-07
5.17341e-07
5.17139e-07
5.17343e-07
7.66369e-07
7.64455e-07
5.17255e-07
5.17233e-07
5.17257e-07
7.64517e-07
7.66386e-07
7.64436e-07
5.17292e-07
5.17348e-07
5.17292e-07
5.17347e-07
7.66249e-07
7.6432e-07
5.17218e-07
5.17376e-07
5.17217e-07
5.17376e-07
5.17341e-07
5.17137e-07
5.17343e-07
7.66371e-07
7.64425e-07
5.17255e-07
5.17231e-07
5.17257e-07
7.64541e-07
7.66346e-07
7.64435e-07
5.17292e-07
5.17347e-07
5.17293e-07
5.17348e-07
7.6619e-07
7.6438e-07
5.17216e-07
5.17376e-07
5.17216e-07
5.17377e-07
5.17342e-07
5.17138e-07
5.17341e-07
7.6633e-07
7.64455e-07
5.17257e-07
5.17231e-07
5.17253e-07
7.64461e-07
7.66315e-07
7.64512e-07
5.17292e-07
5.17346e-07
5.17297e-07
5.17349e-07
7.66221e-07
7.64409e-07
5.17215e-07
5.17375e-07
5.17218e-07
5.17376e-07
5.1734e-07
5.1714e-07
5.17344e-07
7.66342e-07
7.64455e-07
5.17253e-07
5.17232e-07
5.17256e-07
7.64524e-07
7.66392e-07
7.64444e-07
5.17294e-07
5.17346e-07
5.17296e-07
5.17347e-07
7.66295e-07
7.64313e-07
5.17215e-07
5.17375e-07
5.17217e-07
5.17376e-07
5.17339e-07
5.17138e-07
5.17344e-07
7.66365e-07
7.64403e-07
5.17252e-07
5.17231e-07
5.17257e-07
7.64582e-07
7.66374e-07
7.64378e-07
5.17295e-07
5.17346e-07
5.17296e-07
5.17347e-07
7.66225e-07
7.64283e-07
5.17217e-07
5.17374e-07
5.17216e-07
5.17377e-07
5.17344e-07
5.17135e-07
5.1734e-07
7.66298e-07
7.64458e-07
5.17255e-07
5.17232e-07
5.17253e-07
7.64496e-07
7.66274e-07
7.64425e-07
5.17296e-07
5.17346e-07
5.17297e-07
5.17347e-07
7.66149e-07
7.64381e-07
5.17216e-07
5.17375e-07
5.17216e-07
5.17377e-07
5.1734e-07
5.17142e-07
5.17343e-07
7.66304e-07
7.64529e-07
5.17253e-07
5.17232e-07
5.17252e-07
7.64423e-07
7.66264e-07
7.64506e-07
5.17297e-07
5.17346e-07
5.17299e-07
5.17348e-07
7.66205e-07
7.64452e-07
5.17216e-07
5.17375e-07
5.17215e-07
5.17376e-07
5.17341e-07
5.1714e-07
5.17342e-07
7.66373e-07
7.64531e-07
5.17252e-07
5.17232e-07
5.17252e-07
7.64414e-07
7.66329e-07
7.64532e-07
5.17297e-07
5.17346e-07
5.17299e-07
5.17347e-07
7.66306e-07
7.64411e-07
5.17214e-07
5.17375e-07
5.17218e-07
5.17378e-07
5.17342e-07
5.17139e-07
5.1734e-07
7.66413e-07
7.64474e-07
5.17251e-07
5.1723e-07
5.17254e-07
7.64458e-07
7.66399e-07
7.64481e-07
5.17299e-07
5.17347e-07
5.17302e-07
5.17349e-07
7.66326e-07
7.64316e-07
5.17215e-07
5.17376e-07
5.17217e-07
5.17377e-07
5.1734e-07
5.17138e-07
5.17343e-07
7.66376e-07
7.64466e-07
5.17251e-07
5.1723e-07
5.17254e-07
7.64503e-07
7.66387e-07
7.64437e-07
5.173e-07
5.17347e-07
5.17303e-07
5.17348e-07
7.66237e-07
7.64332e-07
5.17217e-07
5.17376e-07
5.17215e-07
5.17376e-07
5.1734e-07
5.17139e-07
5.17343e-07
7.66346e-07
7.64512e-07
5.17252e-07
5.17232e-07
5.17251e-07
7.64527e-07
7.66355e-07
7.64397e-07
5.17303e-07
5.17347e-07
5.17301e-07
5.17348e-07
7.66198e-07
7.64426e-07
5.17215e-07
5.17375e-07
5.17215e-07
5.17377e-07
5.17341e-07
5.1714e-07
5.17343e-07
7.6639e-07
7.64527e-07
5.1725e-07
5.17232e-07
5.17254e-07
7.6455e-07
7.66304e-07
7.64403e-07
5.17301e-07
5.17347e-07
5.17303e-07
5.1735e-07
7.66295e-07
7.64404e-07
5.17215e-07
5.17375e-07
5.17215e-07
5.17377e-07
5.17341e-07
5.1714e-07
5.17343e-07
7.66428e-07
7.64504e-07
5.17252e-07
5.17232e-07
5.17253e-07
7.64571e-07
7.66272e-07
7.64469e-07
5.17301e-07
5.17347e-07
5.17305e-07
5.17349e-07
7.66327e-07
7.64351e-07
5.17215e-07
5.17375e-07
5.17217e-07
5.17377e-07
5.17342e-07
5.1714e-07
5.17343e-07
7.66428e-07
7.64468e-07
5.17252e-07
5.17232e-07
5.17252e-07
7.64558e-07
7.66327e-07
7.6446e-07
5.17303e-07
5.17349e-07
5.17303e-07
5.17347e-07
7.66301e-07
7.64317e-07
5.17216e-07
5.17376e-07
5.17215e-07
5.17377e-07
5.17342e-07
5.17139e-07
5.17342e-07
7.664e-07
7.64447e-07
5.17251e-07
5.17231e-07
5.17251e-07
7.64524e-07
7.66343e-07
7.64428e-07
5.17303e-07
5.17347e-07
5.17303e-07
5.17347e-07
7.66263e-07
7.6431e-07
5.17215e-07
5.17376e-07
5.17214e-07
5.17377e-07
5.17341e-07
5.17138e-07
5.17342e-07
7.66373e-07
7.64439e-07
5.17251e-07
5.17231e-07
5.17251e-07
7.64522e-07
7.6632e-07
7.6442e-07
5.17303e-07
5.17347e-07
5.17303e-07
5.17347e-07
7.6624e-07
7.64314e-07
5.17214e-07
5.17376e-07
5.17214e-07
5.17377e-07
5.17341e-07
5.17138e-07
5.17342e-07
7.66353e-07
7.64444e-07
5.17251e-07
5.17231e-07
5.17252e-07
7.64544e-07
7.66315e-07
7.64413e-07
5.17303e-07
5.17347e-07
5.17303e-07
5.17347e-07
7.66233e-07
7.64315e-07
5.17214e-07
5.17376e-07
5.17214e-07
5.17377e-07
5.17341e-07
5.17138e-07
5.17342e-07
7.66347e-07
7.64454e-07
5.17251e-07
5.1723e-07
5.17252e-07
7.64556e-07
7.66313e-07
7.64397e-07
5.17303e-07
5.17347e-07
5.17304e-07
5.17347e-07
7.66227e-07
7.6432e-07
5.17214e-07
5.17376e-07
5.17214e-07
5.17377e-07
5.17342e-07
5.17138e-07
5.17342e-07
7.66351e-07
7.64458e-07
5.17251e-07
5.1723e-07
5.17251e-07
7.64554e-07
7.66291e-07
7.64405e-07
5.17303e-07
5.17347e-07
5.17303e-07
5.17347e-07
7.66223e-07
7.64332e-07
5.17214e-07
5.17377e-07
5.17214e-07
5.17376e-07
5.17342e-07
5.17138e-07
5.17342e-07
7.66357e-07
7.64445e-07
5.17251e-07
5.1723e-07
5.17251e-07
7.6455e-07
7.66281e-07
7.64435e-07
5.17303e-07
5.17347e-07
5.17304e-07
5.17347e-07
7.66231e-07
7.64328e-07
5.17214e-07
5.17376e-07
5.17213e-07
5.17376e-07
5.17342e-07
5.17138e-07
5.17342e-07
7.66345e-07
7.6444e-07
5.17251e-07
5.17229e-07
5.17251e-07
7.64549e-07
7.66302e-07
7.64453e-07
5.17303e-07
5.17347e-07
5.17304e-07
5.17346e-07
7.66231e-07
7.64317e-07
5.17213e-07
5.17376e-07
5.17213e-07
5.17376e-07
5.17342e-07
5.17138e-07
5.17343e-07
7.66327e-07
7.64465e-07
5.17251e-07
5.17229e-07
5.17251e-07
7.64554e-07
7.66326e-07
7.6445e-07
5.17304e-07
5.17346e-07
5.17304e-07
5.17347e-07
7.66215e-07
7.64323e-07
5.17213e-07
5.17376e-07
5.17212e-07
5.17377e-07
5.17342e-07
5.17137e-07
5.17343e-07
7.66342e-07
7.64482e-07
5.17251e-07
5.17229e-07
5.17251e-07
7.64559e-07
7.66335e-07
7.64433e-07
5.17304e-07
5.17346e-07
5.17304e-07
5.17347e-07
7.66211e-07
7.6434e-07
5.17212e-07
5.17377e-07
5.17212e-07
5.17377e-07
5.17343e-07
5.17137e-07
5.17342e-07
7.66366e-07
7.64476e-07
5.17251e-07
5.17228e-07
5.1725e-07
7.64547e-07
7.66326e-07
7.64416e-07
5.17304e-07
5.17347e-07
5.17303e-07
5.17347e-07
7.66223e-07
7.64349e-07
5.17212e-07
5.17377e-07
5.17212e-07
5.17376e-07
5.17342e-07
5.17136e-07
5.17342e-07
7.6637e-07
7.64461e-07
5.1725e-07
5.17227e-07
5.17248e-07
7.64528e-07
7.6631e-07
7.64416e-07
5.17303e-07
5.17347e-07
5.17302e-07
5.17346e-07
7.66236e-07
7.64342e-07
5.17212e-07
5.17376e-07
5.17211e-07
5.17375e-07
5.17342e-07
5.17135e-07
5.17341e-07
7.66356e-07
7.64458e-07
5.17248e-07
5.17226e-07
5.17249e-07
7.64532e-07
7.66305e-07
7.64417e-07
5.17303e-07
5.17346e-07
5.17301e-07
5.17344e-07
7.66237e-07
7.64328e-07
5.17213e-07
5.17376e-07
5.1721e-07
5.17374e-07
5.17341e-07
5.17133e-07
5.17339e-07
7.66351e-07
7.64452e-07
5.17249e-07
5.17224e-07
5.17248e-07
7.6456e-07
7.66303e-07
7.64419e-07
5.17303e-07
5.17346e-07
5.173e-07
5.17343e-07
7.66226e-07
7.64322e-07
5.17212e-07
5.17376e-07
5.17209e-07
5.17373e-07
5.17341e-07
5.17132e-07
5.17338e-07
7.66348e-07
7.64439e-07
5.17249e-07
5.17222e-07
5.17247e-07
7.64574e-07
7.66301e-07
7.64428e-07
5.17302e-07
5.17345e-07
5.17299e-07
5.17342e-07
7.66218e-07
7.64325e-07
5.17211e-07
5.17375e-07
5.17207e-07
5.17371e-07
5.1734e-07
5.17131e-07
5.17337e-07
7.66328e-07
7.64459e-07
5.17249e-07
5.1722e-07
5.17244e-07
7.64564e-07
7.66308e-07
7.64431e-07
5.17301e-07
5.17344e-07
5.17297e-07
5.1734e-07
7.66218e-07
7.64328e-07
5.1721e-07
5.17374e-07
5.17205e-07
5.17369e-07
5.17339e-07
5.17128e-07
5.17334e-07
7.66337e-07
7.64474e-07
5.17247e-07
5.17219e-07
5.17242e-07
7.64548e-07
7.6631e-07
7.64436e-07
5.173e-07
5.17343e-07
5.17294e-07
5.17337e-07
7.66222e-07
7.64317e-07
5.17209e-07
5.17373e-07
5.17203e-07
5.17367e-07
5.17337e-07
5.17127e-07
5.17332e-07
7.66356e-07
7.64473e-07
5.17245e-07
5.17217e-07
5.1724e-07
7.64543e-07
7.66314e-07
7.64436e-07
5.17299e-07
5.17342e-07
5.17292e-07
5.17334e-07
7.66212e-07
7.64316e-07
5.17208e-07
5.17372e-07
5.17201e-07
5.17365e-07
5.17336e-07
5.17125e-07
5.1733e-07
7.6636e-07
7.64474e-07
5.17244e-07
5.17215e-07
5.17238e-07
7.64548e-07
7.66319e-07
7.64425e-07
5.17299e-07
5.17341e-07
5.1729e-07
5.17333e-07
7.66202e-07
7.64332e-07
5.17208e-07
5.17372e-07
5.17199e-07
5.17363e-07
5.17337e-07
5.17123e-07
5.17327e-07
7.66364e-07
7.64467e-07
5.17245e-07
5.17212e-07
5.17235e-07
7.64545e-07
7.66317e-07
7.64406e-07
5.173e-07
5.17342e-07
5.17287e-07
5.1733e-07
7.66214e-07
7.64333e-07
5.17209e-07
5.17372e-07
5.17196e-07
5.1736e-07
5.17338e-07
5.17121e-07
5.17325e-07
7.66366e-07
7.64445e-07
5.17245e-07
5.17211e-07
5.17233e-07
7.64533e-07
7.663e-07
7.64403e-07
5.17301e-07
5.17344e-07
5.17285e-07
5.17327e-07
7.6622e-07
7.64321e-07
5.1721e-07
5.17374e-07
5.17193e-07
5.17356e-07
5.17338e-07
5.17119e-07
5.17323e-07
7.66352e-07
7.64414e-07
5.17246e-07
5.17207e-07
5.17229e-07
7.64531e-07
7.66285e-07
7.64425e-07
5.17303e-07
5.17345e-07
5.17281e-07
5.17324e-07
7.66214e-07
7.64309e-07
5.17211e-07
5.17375e-07
5.17191e-07
5.17354e-07
5.17341e-07
5.17116e-07
5.17319e-07
7.66309e-07
7.64449e-07
5.17248e-07
5.17205e-07
5.17226e-07
7.64544e-07
7.66299e-07
7.64438e-07
5.17305e-07
5.17348e-07
5.17279e-07
5.17321e-07
7.66203e-07
7.64316e-07
5.17215e-07
5.17377e-07
5.17187e-07
5.17351e-07
5.17344e-07
5.17112e-07
5.17316e-07
7.66316e-07
7.64493e-07
5.1725e-07
5.17202e-07
5.17223e-07
7.64554e-07
7.66321e-07
7.64425e-07
5.1731e-07
5.17352e-07
5.17273e-07
5.17316e-07
7.662e-07
7.64338e-07
5.17219e-07
5.17381e-07
5.17182e-07
5.17345e-07
5.17347e-07
5.17106e-07
5.17311e-07
7.66367e-07
7.64469e-07
5.17254e-07
5.17195e-07
5.17217e-07
7.64548e-07
7.66322e-07
7.64402e-07
5.17315e-07
5.17356e-07
5.17265e-07
5.17308e-07
7.66222e-07
7.64336e-07
5.17223e-07
5.17386e-07
5.17174e-07
5.17337e-07
5.17351e-07
5.171e-07
5.17303e-07
7.6637e-07
7.64416e-07
5.17257e-07
5.17188e-07
5.17209e-07
7.64535e-07
7.663e-07
7.644e-07
5.17318e-07
5.17361e-07
5.17256e-07
5.17299e-07
7.66228e-07
7.64318e-07
5.17227e-07
5.1739e-07
5.17166e-07
5.17328e-07
5.17355e-07
5.1709e-07
5.17294e-07
7.66324e-07
7.64404e-07
5.17261e-07
5.17178e-07
5.172e-07
7.64535e-07
7.66291e-07
7.64412e-07
5.17323e-07
5.17366e-07
5.17243e-07
5.17287e-07
7.66215e-07
7.64305e-07
5.17232e-07
5.17395e-07
5.17154e-07
5.17317e-07
5.1736e-07
5.17078e-07
5.17282e-07
7.66284e-07
7.64456e-07
5.17266e-07
5.17166e-07
5.17187e-07
7.64539e-07
7.66301e-07
7.64404e-07
5.17329e-07
5.17372e-07
5.17228e-07
5.17271e-07
7.66206e-07
7.64293e-07
5.17239e-07
5.17402e-07
5.17138e-07
5.17301e-07
5.17367e-07
5.17062e-07
5.17266e-07
7.66315e-07
7.64475e-07
5.17272e-07
5.1715e-07
5.17171e-07
7.64517e-07
7.66295e-07
7.64392e-07
5.17337e-07
5.17381e-07
5.17205e-07
5.17245e-07
7.66186e-07
7.64305e-07
5.17247e-07
5.17411e-07
5.17116e-07
5.17279e-07
5.17375e-07
5.17038e-07
5.17241e-07
7.66351e-07
7.64456e-07
5.1728e-07
5.17127e-07
5.17144e-07
7.64493e-07
7.66256e-07
7.64248e-07
5.1734e-07
5.17378e-07
5.16872e-07
5.16909e-07
7.66168e-07
7.64179e-07
5.1725e-07
5.1741e-07
5.16776e-07
5.16934e-07
5.17374e-07
5.16707e-07
5.16907e-07
7.66321e-07
7.64279e-07
5.17276e-07
5.16784e-07
5.16799e-07
7.64288e-07
7.65976e-07
7.46908e-07
5.17189e-07
5.17224e-07
5.00283e-07
5.00317e-07
7.65912e-07
7.46856e-07
5.17091e-07
5.17256e-07
5.0024e-07
5.00291e-07
5.17227e-07
5.00205e-07
5.003e-07
7.66006e-07
7.46914e-07
5.17114e-07
5.00229e-07
5.00247e-07
7.46929e-07
7.26449e-07
4.81659e-07
4.81688e-07
7.26415e-07
4.81635e-07
4.81661e-07
1.94092e-07
1.94082e-07
1.94092e-07
4.81673e-07
7.26456e-07
4.81643e-07
6.67601e-08
1.12931e-08
4.57385e-08
4.56444e-08
1.3916e-09
4.98186e-09
9.35468e-09
2.7787e-08
1.66862e-09
5.15571e-09
2.76866e-08
1.10836e-08
5.39089e-09
3.51552e-09
3.83464e-09
6.61707e-09
1.68364e-07
5.5852e-09
2.54883e-07
1.6214e-06
3.15383e-06
6.61993e-09
1.57121e-07
5.48405e-09
2.43489e-07
2.65641e-08
2.65139e-08
2.6847e-08
2.63621e-08
2.64838e-08
2.64135e-08
2.67686e-08
1.17217e-09
8.68563e-08
1.26913e-08
6.20101e-09
1.23591e-09
6.48249e-08
1.25824e-08
1.5402e-06
3.06871e-06
1.44659e-09
1.22805e-08
8.53663e-08
6.00223e-09
1.59274e-09
1.21765e-08
6.39979e-08
2.05791e-07
2.16374e-07
4.97623e-09
1.69563e-07
1.84181e-07
1.53645e-08
4.84283e-07
1.14812e-08
6.58752e-07
7.1232e-06
1.01548e-05
1.52788e-08
4.39333e-07
1.19028e-08
6.58372e-07
2.66634e-08
2.65902e-08
2.69512e-08
2.71174e-08
2.72434e-08