/*--------------------------------*- C++ -*----------------------------------*\
| =========                 |                                                 |
| \\      /  F ield         | OpenFOAM: The Open Source CFD Toolbox           |
|  \\    /   O peration     | Version:  v2012                                 |
|   \\  /    A nd           | Website:  www.openfoam.com                      |
|    \\/     M anipulation  |                                                 |
\*---------------------------------------------------------------------------*/
FoamFile
{
    version     2.0;
    format      ascii;
    class       volScalarField;
    location    "137.5";
    object      k;
}
// * * * * * * * * * * * * * * * * * * * * * * * * * * * * * * * * * * * * * //

dimensions      [0 2 -2 0 0 0 0];


internalField   nonuniform List<scalar> 
171728
(
3.12731e-06
4.71307e-07
4.92516e-07
3.50322e-07
3.15498e-06
4.86496e-07
5.03865e-07
3.35856e-07
3.25658e-06
5.13133e-07
5.24914e-07
3.25715e-07
3.35745e-06
5.45452e-07
5.52527e-07
3.14182e-07
3.45678e-06
5.79779e-07
5.85925e-07
3.04483e-07
3.55566e-06
6.18393e-07
6.25403e-07
2.98973e-07
3.65414e-06
6.63915e-07
6.71759e-07
3.00167e-07
3.75189e-06
7.18433e-07
7.26238e-07
3.14576e-07
3.84855e-06
7.80561e-07
7.85309e-07
3.37018e-07
3.94327e-06
8.50725e-07
8.49503e-07
3.66278e-07
4.03643e-06
9.31273e-07
9.16645e-07
4.02245e-07
4.12699e-06
1.02304e-06
9.8441e-07
4.42916e-07
4.21575e-06
1.12141e-06
1.0663e-06
4.8739e-07
4.30352e-06
1.22525e-06
1.15663e-06
5.34901e-07
4.38813e-06
1.33836e-06
1.26419e-06
5.88201e-07
4.47709e-06
1.46438e-06
1.38818e-06
6.52153e-07
4.56448e-06
1.59027e-06
1.53213e-06
7.28351e-07
4.65208e-06
1.72591e-06
1.69079e-06
8.07163e-07
4.74659e-06
1.90092e-06
1.88683e-06
9.39092e-07
4.84829e-06
2.11296e-06
2.12886e-06
1.17489e-06
4.96231e-06
2.38932e-06
2.42447e-06
1.52291e-06
5.10209e-06
2.77581e-06
2.81893e-06
2.06307e-06
5.24795e-06
3.25924e-06
3.31125e-06
2.90439e-06
5.43596e-06
3.88364e-06
3.94761e-06
4.10396e-06
5.64769e-06
4.65617e-06
4.7375e-06
5.68957e-06
5.93466e-06
5.61751e-06
5.74999e-06
7.75765e-06
6.28333e-06
6.78077e-06
6.95902e-06
1.02343e-05
6.74106e-06
8.24781e-06
8.37499e-06
1.30554e-05
7.34433e-06
1.01769e-05
1.02468e-05
1.62559e-05
8.22426e-06
1.27323e-05
1.27791e-05
1.95304e-05
9.56091e-06
1.59684e-05
1.59927e-05
2.28827e-05
1.12267e-05
1.93092e-05
1.93189e-05
2.59209e-05
1.30471e-05
2.22235e-05
2.2228e-05
2.83329e-05
1.46606e-05
2.42842e-05
2.42871e-05
2.99434e-05
1.56445e-05
2.52711e-05
2.52739e-05
3.05999e-05
1.60673e-05
2.56231e-05
2.56256e-05
3.08224e-05
1.62044e-05
2.57236e-05
2.5726e-05
3.0887e-05
1.624e-05
2.57488e-05
2.57511e-05
3.09088e-05
1.62468e-05
2.57513e-05
2.57536e-05
3.09065e-05
1.6248e-05
2.57513e-05
2.57537e-05
3.09024e-05
1.62484e-05
2.57525e-05
2.57547e-05
3.09107e-05
1.62484e-05
2.57518e-05
2.57541e-05
3.09006e-05
1.62486e-05
2.57521e-05
2.57543e-05
3.09096e-05
1.62487e-05
2.57521e-05
2.57544e-05
3.09075e-05
1.62488e-05
2.57527e-05
2.57548e-05
3.09048e-05
1.62489e-05
2.57522e-05
2.57545e-05
3.09029e-05
1.6249e-05
2.57524e-05
2.57546e-05
3.09052e-05
1.6249e-05
2.57524e-05
2.57545e-05
3.09068e-05
1.6249e-05
2.57523e-05
2.57545e-05
3.09072e-05
1.62491e-05
2.57527e-05
2.57547e-05
3.0908e-05
1.62492e-05
2.57528e-05
2.57548e-05
3.09115e-05
1.62492e-05
2.57524e-05
2.57545e-05
3.09089e-05
1.62492e-05
2.57525e-05
2.57545e-05
3.09039e-05
1.62492e-05
2.57529e-05
2.57546e-05
3.09113e-05
1.62492e-05
2.57528e-05
2.57546e-05
3.09098e-05
1.62492e-05
2.57523e-05
2.57546e-05
3.09012e-05
1.62492e-05
2.5753e-05
2.57547e-05
3.09051e-05
1.62492e-05
2.57529e-05
2.57547e-05
3.09116e-05
1.62493e-05
2.57526e-05
2.57545e-05
3.09124e-05
1.62493e-05
2.57525e-05
2.57544e-05
3.09104e-05
1.62493e-05
2.57525e-05
2.57546e-05
3.09072e-05
1.62493e-05
2.57528e-05
2.57547e-05
3.09047e-05
1.62493e-05
2.57528e-05
2.57547e-05
3.09034e-05
1.62493e-05
2.57527e-05
2.57547e-05
3.0902e-05
1.62493e-05
2.57526e-05
2.57546e-05
3.09009e-05
1.62493e-05
2.57526e-05
2.57545e-05
3.09012e-05
1.62493e-05
2.57526e-05
2.57545e-05
3.09019e-05
1.62493e-05
2.57526e-05
2.57545e-05
3.09024e-05
1.62493e-05
2.57526e-05
2.57545e-05
3.09024e-05
1.62493e-05
2.57526e-05
2.57545e-05
3.09025e-05
1.62493e-05
2.57526e-05
2.57544e-05
3.09028e-05
1.62493e-05
2.57526e-05
2.57544e-05
3.09032e-05
1.62493e-05
2.57526e-05
2.57545e-05
3.09033e-05
1.62493e-05
2.57525e-05
2.57544e-05
3.09028e-05
1.62493e-05
2.57525e-05
2.57544e-05
3.09026e-05
1.62493e-05
2.57525e-05
2.57543e-05
3.09035e-05
1.62493e-05
2.57525e-05
2.57543e-05
3.09046e-05
1.62493e-05
2.57525e-05
2.57543e-05
3.09041e-05
1.62493e-05
2.57525e-05
2.57542e-05
3.09028e-05
1.62493e-05
2.57524e-05
2.57543e-05
3.09023e-05
1.62493e-05
2.57525e-05
2.57543e-05
3.09026e-05
1.62493e-05
2.57525e-05
2.57543e-05
3.09032e-05
1.62493e-05
2.57526e-05
2.57543e-05
3.0903e-05
1.62493e-05
2.57526e-05
2.57545e-05
3.09028e-05
1.62493e-05
2.57527e-05
2.57545e-05
3.09032e-05
1.62493e-05
2.57529e-05
2.57546e-05
3.09037e-05
1.62493e-05
2.57531e-05
2.57549e-05
3.09037e-05
1.62493e-05
2.57533e-05
2.57551e-05
3.09032e-05
1.62494e-05
2.57536e-05
2.57553e-05
3.09027e-05
1.62494e-05
2.57541e-05
2.57558e-05
3.0903e-05
1.62495e-05
2.57548e-05
2.57566e-05
3.09033e-05
1.62496e-05
2.57561e-05
2.57578e-05
3.09026e-05
1.62496e-05
2.5758e-05
2.57596e-05
3.0902e-05
1.62371e-05
2.57521e-05
2.57535e-05
3.08963e-05
1.59283e-05
2.47807e-05
2.47806e-05
3.0104e-05
3.84188e-07
4.07715e-07
3.46353e-07
3.46542e-07
3.98714e-07
4.03075e-07
3.20028e-06
3.20381e-06
3.21203e-06
3.21214e-06
3.82995e-07
3.50779e-07
3.81512e-07
4.09273e-07
3.99957e-07
3.53619e-07
3.8086e-07
3.65347e-07
4.89178e-07
4.21243e-07
4.94883e-07
4.32337e-07
3.43057e-07
3.32129e-07
4.4327e-07
4.42136e-07
4.51953e-07
4.50531e-07
4.34534e-07
4.8108e-07
4.41638e-07
3.78273e-07
3.64118e-07
4.93442e-07
4.99713e-07
4.98764e-07
3.38568e-07
3.61808e-07
3.49215e-07
4.98527e-07
4.38547e-07
5.1165e-07
4.57406e-07
3.30012e-07
3.26945e-07
4.57522e-07
4.55798e-07
4.74862e-07
4.74572e-07
4.45996e-07
5.06202e-07
4.60236e-07
3.60833e-07
3.506e-07
5.02954e-07
5.19198e-07
5.1717e-07
3.28559e-07
3.45765e-07
3.35241e-07
5.16776e-07
4.64253e-07
5.34043e-07
4.83947e-07
3.25351e-07
3.22689e-07
4.80969e-07
4.81715e-07
5.00534e-07
5.04925e-07
4.65903e-07
5.37423e-07
4.84735e-07
3.47804e-07
3.41097e-07
5.22839e-07
5.45183e-07
5.40017e-07
3.17332e-07
3.32094e-07
3.24192e-07
5.40372e-07
4.91818e-07
5.61176e-07
5.1513e-07
3.20818e-07
3.17967e-07
5.07772e-07
5.1348e-07
5.30707e-07
5.39818e-07
4.92315e-07
5.71263e-07
5.173e-07
3.38676e-07
3.3469e-07
5.46666e-07
5.77419e-07
5.68896e-07
3.07134e-07
3.21232e-07
3.14266e-07
5.68631e-07
5.24044e-07
5.9223e-07
5.52663e-07
3.15854e-07
3.12694e-07
5.38323e-07
5.49192e-07
5.61045e-07
5.80801e-07
5.26804e-07
6.08729e-07
5.5904e-07
3.3273e-07
3.3273e-07
5.77322e-07
6.15686e-07
6.0704e-07
3.01052e-07
3.11213e-07
3.0605e-07
6.00816e-07
5.62412e-07
6.31843e-07
5.97124e-07
3.10499e-07
3.10075e-07
5.6909e-07
5.91736e-07
5.95295e-07
6.28565e-07
5.69865e-07
6.52993e-07
6.05319e-07
3.31442e-07
3.38879e-07
6.18177e-07
6.60126e-07
6.52202e-07
3.0123e-07
3.03561e-07
3.02674e-07
6.43089e-07
6.08718e-07
6.80194e-07
6.48622e-07
3.08427e-07
3.15421e-07
6.04588e-07
6.41076e-07
6.35252e-07
6.8298e-07
6.1722e-07
7.04613e-07
6.5675e-07
3.37945e-07
3.52744e-07
6.64204e-07
7.12562e-07
7.04432e-07
3.15255e-07
3.00745e-07
3.06775e-07
6.93428e-07
6.63864e-07
7.35854e-07
7.09151e-07
3.14371e-07
3.30862e-07
6.46574e-07
6.97464e-07
6.86875e-07
7.44151e-07
6.70788e-07
7.63721e-07
7.18741e-07
3.52087e-07
3.73839e-07
7.19525e-07
7.69753e-07
7.68354e-07
3.37436e-07
3.05585e-07
3.23571e-07
7.51424e-07
7.25733e-07
8.0265e-07
7.81556e-07
3.30114e-07
3.54471e-07
7.01712e-07
7.61229e-07
7.50726e-07
8.14507e-07
7.35394e-07
8.32515e-07
7.90559e-07
3.73452e-07
4.00748e-07
7.863e-07
8.34381e-07
8.41394e-07
3.66466e-07
3.22852e-07
3.50863e-07
8.21102e-07
7.99353e-07
8.81139e-07
8.54965e-07
3.54022e-07
3.85084e-07
7.68816e-07
8.33665e-07
8.25514e-07
8.91537e-07
8.10017e-07
9.1104e-07
8.68656e-07
4.00429e-07
4.28542e-07
8.60633e-07
8.99767e-07
9.23411e-07
4.02197e-07
3.50558e-07
3.8717e-07
9.02136e-07
8.76837e-07
9.68125e-07
9.39886e-07
3.84863e-07
4.22767e-07
8.45803e-07
9.11631e-07
9.09592e-07
9.75021e-07
8.90047e-07
9.99999e-07
9.58586e-07
4.27988e-07
4.54476e-07
9.44511e-07
9.67306e-07
1.01133e-06
4.42642e-07
3.87321e-07
4.33317e-07
9.91677e-07
9.59509e-07
1.06276e-06
1.02746e-06
4.22993e-07
4.67169e-07
9.32835e-07
9.95693e-07
1.00723e-06
1.06125e-06
9.81175e-07
1.09733e-06
1.05249e-06
4.53709e-07
4.80974e-07
1.03467e-06
1.04616e-06
1.11007e-06
4.86967e-07
4.3423e-07
4.90015e-07
1.08738e-06
1.05264e-06
1.16499e-06
1.12671e-06
4.67656e-07
5.1715e-07
1.03249e-06
1.08483e-06
1.11572e-06
1.15696e-06
1.0768e-06
1.19897e-06
1.15385e-06
4.80348e-07
5.11592e-07
1.13416e-06
1.1315e-06
1.21275e-06
5.34064e-07
4.91673e-07
5.52586e-07
1.19087e-06
1.15248e-06
1.27157e-06
1.23232e-06
5.18541e-07
5.78245e-07
1.1443e-06
1.18229e-06
1.23213e-06
1.26439e-06
1.18179e-06
1.30987e-06
1.26383e-06
5.11143e-07
5.49326e-07
1.24443e-06
1.23751e-06
1.33516e-06
5.86933e-07
5.54743e-07
6.25516e-07
1.30118e-06
1.25961e-06
1.40023e-06
1.35227e-06
5.80141e-07
6.42278e-07
1.26255e-06
1.2898e-06
1.36735e-06
1.3832e-06
1.28964e-06
1.43377e-06
1.37849e-06
5.49626e-07
6.01463e-07
1.36346e-06
1.35747e-06
1.47258e-06
6.49213e-07
6.29042e-07
7.12359e-07
1.43065e-06
1.3822e-06
1.53148e-06
1.48076e-06
6.44688e-07
7.13689e-07
1.40159e-06
1.41733e-06
1.50184e-06
1.51102e-06
1.40876e-06
1.55574e-06
1.50363e-06
6.03543e-07
6.73911e-07
1.51536e-06
1.49187e-06
1.64144e-06
7.23298e-07
7.18192e-07
8.23537e-07
1.57373e-06
1.5206e-06
1.6989e-06
1.63744e-06
7.1784e-07
8.02705e-07
1.54225e-06
1.54828e-06
1.66276e-06
1.6682e-06
1.54077e-06
1.69126e-06
1.65037e-06
6.78282e-07
7.6973e-07
1.67755e-06
1.64833e-06
1.764e-06
7.94652e-07
8.43563e-07
9.78698e-07
1.74517e-06
1.68031e-06
1.89659e-06
1.82421e-06
8.18696e-07
9.37979e-07
1.70659e-06
1.71154e-06
1.85331e-06
1.84677e-06
1.69574e-06
1.85602e-06
1.85085e-06
7.87696e-07
9.16257e-07
1.79707e-06
1.8373e-06
1.9047e-06
9.12501e-07
1.00828e-06
1.19282e-06
1.9447e-06
1.87299e-06
2.10146e-06
2.04329e-06
9.65494e-07
1.14558e-06
1.90222e-06
1.8948e-06
2.06879e-06
2.06952e-06
1.9033e-06
2.05466e-06
2.08755e-06
9.44773e-07
1.1395e-06
1.94112e-06
2.06262e-06
2.08414e-06
1.12915e-06
1.23725e-06
1.51959e-06
2.15945e-06
2.10986e-06
2.35086e-06
2.32889e-06
1.19037e-06
1.47927e-06
2.13325e-06
2.13167e-06
2.33966e-06
2.32169e-06
2.15359e-06
2.31335e-06
2.35645e-06
1.18733e-06
1.47696e-06
2.14191e-06
2.34525e-06
2.33652e-06
1.4514e-06
1.59268e-06
2.0279e-06
2.42294e-06
2.40984e-06
2.68098e-06
2.69309e-06
1.55308e-06
1.99896e-06
2.41429e-06
2.39681e-06
2.68934e-06
2.68603e-06
2.43106e-06
2.66849e-06
2.69347e-06
1.54916e-06
1.99196e-06
2.41144e-06
2.70987e-06
2.67989e-06
1.95131e-06
2.14384e-06
2.80862e-06
2.78234e-06
2.8015e-06
3.1254e-06
3.15728e-06
2.11796e-06
2.78992e-06
2.7992e-06
2.79837e-06
3.15624e-06
3.15208e-06
2.79378e-06
3.12929e-06
3.12509e-06
2.11119e-06
2.79099e-06
2.78635e-06
3.17837e-06
3.14718e-06
2.7271e-06
2.98276e-06
3.91939e-06
3.25567e-06
3.28953e-06
3.71029e-06
3.74926e-06
2.96358e-06
3.90406e-06
3.28635e-06
3.2803e-06
3.73803e-06
3.72955e-06
3.25146e-06
3.71423e-06
3.69925e-06
2.96615e-06
3.90786e-06
3.28238e-06
3.77525e-06
3.74549e-06
3.86178e-06
4.15994e-06
5.43685e-06
3.88069e-06
3.92226e-06
4.44631e-06
4.49474e-06
4.14745e-06
5.45015e-06
3.90802e-06
3.90031e-06
4.4677e-06
4.46832e-06
3.86659e-06
4.44823e-06
4.41321e-06
4.14981e-06
5.44614e-06
3.9163e-06
4.52316e-06
4.47316e-06
5.36999e-06
5.76224e-06
7.4261e-06
4.65677e-06
4.70645e-06
5.3685e-06
5.42039e-06
5.77979e-06
7.44873e-06
4.6752e-06
4.67917e-06
5.37923e-06
5.38911e-06
4.61671e-06
5.3586e-06
5.31669e-06
5.77578e-06
7.4752e-06
4.67841e-06
5.47482e-06
5.37411e-06
7.35005e-06
7.8287e-06
9.79116e-06
5.63185e-06
5.6848e-06
6.48837e-06
6.54212e-06
7.85147e-06
9.82297e-06
5.6417e-06
5.65191e-06
6.50175e-06
6.50907e-06
5.57969e-06
6.47096e-06
6.44488e-06
7.88832e-06
9.89748e-06
5.63398e-06
6.6453e-06
6.4876e-06
9.76021e-06
1.02573e-05
1.25041e-05
6.7975e-06
6.8485e-06
7.84652e-06
7.88014e-06
1.02914e-05
1.25378e-05
6.81239e-06
6.81732e-06
7.86152e-06
7.85987e-06
6.75926e-06
7.84067e-06
7.82547e-06
1.03652e-05
1.25702e-05
6.79745e-06
7.98675e-06
7.85152e-06
1.25118e-05
1.30434e-05
1.56401e-05
8.25068e-06
8.27797e-06
9.64611e-06
9.65946e-06
1.30759e-05
1.56584e-05
8.26591e-06
8.26299e-06
9.66449e-06
9.65968e-06
8.23463e-06
9.64967e-06
9.63839e-06
1.30981e-05
1.56642e-05
8.25781e-06
9.72908e-06
9.65489e-06
1.56549e-05
1.62444e-05
1.89222e-05
1.01745e-05
1.01848e-05
1.202e-05
1.20237e-05
1.62583e-05
1.89181e-05
1.0194e-05
1.0189e-05
1.20369e-05
1.20352e-05
1.01676e-05
1.20179e-05
1.2013e-05
1.62652e-05
1.89366e-05
1.0182e-05
1.20698e-05
1.20212e-05
1.89183e-05
1.95363e-05
2.22734e-05
1.27367e-05
1.27388e-05
1.51314e-05
1.51312e-05
1.95302e-05
2.22667e-05
1.27512e-05
1.27515e-05
1.51371e-05
1.5143e-05
1.27298e-05
1.51252e-05
1.51264e-05
1.95497e-05
2.22845e-05
1.27361e-05
1.51548e-05
1.51279e-05
2.2269e-05
2.28864e-05
2.53933e-05
1.59751e-05
1.59745e-05
1.85015e-05
1.85013e-05
2.28806e-05
2.539e-05
1.59785e-05
1.59854e-05
1.85005e-05
1.85078e-05
1.5971e-05
1.8496e-05
1.85001e-05
2.28964e-05
2.53987e-05
1.59714e-05
1.85081e-05
1.84984e-05
2.53933e-05
2.59208e-05
2.79247e-05
1.93148e-05
1.93146e-05
2.15616e-05
2.15617e-05
2.5918e-05
2.79224e-05
1.93131e-05
1.932e-05
2.15593e-05
2.15645e-05
1.93142e-05
2.15574e-05
2.15628e-05
2.59253e-05
2.7927e-05
1.93121e-05
2.15626e-05
2.15602e-05
2.79262e-05
2.83315e-05
2.96858e-05
2.22275e-05
2.22277e-05
2.38778e-05
2.3878e-05
2.83295e-05
2.96839e-05
2.22254e-05
2.223e-05
2.38758e-05
2.38793e-05
2.22289e-05
2.38746e-05
2.38796e-05
2.83334e-05
2.96866e-05
2.22265e-05
2.38775e-05
2.38775e-05
2.96873e-05
2.9942e-05
3.04877e-05
2.42873e-05
2.42875e-05
2.51071e-05
2.51073e-05
2.99402e-05
3.04859e-05
2.42855e-05
2.42886e-05
2.51054e-05
2.51079e-05
2.42892e-05
2.51043e-05
2.51094e-05
2.99426e-05
3.04886e-05
2.42872e-05
2.5107e-05
2.51074e-05
3.049e-05
3.05978e-05
3.07608e-05
2.52737e-05
2.52739e-05
2.55721e-05
2.55722e-05
3.05961e-05
3.07591e-05
2.52723e-05
2.52745e-05
2.55708e-05
2.55727e-05
2.52761e-05
2.55697e-05
2.55744e-05
3.05985e-05
3.07613e-05
2.52742e-05
2.55722e-05
2.55727e-05
3.07627e-05
3.08205e-05
3.08434e-05
2.56253e-05
2.56255e-05
2.57116e-05
2.57117e-05
3.08189e-05
3.08417e-05
2.56241e-05
2.5626e-05
2.57104e-05
2.57122e-05
2.56277e-05
2.57094e-05
2.57139e-05
3.08208e-05
3.08437e-05
2.5626e-05
2.57117e-05
2.57123e-05
3.08452e-05
3.08851e-05
3.08694e-05
2.57258e-05
2.57259e-05
2.57479e-05
2.5748e-05
3.08835e-05
3.08677e-05
2.57247e-05
2.57264e-05
2.57467e-05
2.57484e-05
2.5728e-05
2.57457e-05
2.575e-05
3.08854e-05
3.08696e-05
2.57265e-05
2.57479e-05
2.57485e-05
3.0871e-05
3.09071e-05
3.08699e-05
2.57509e-05
2.5751e-05
2.57536e-05
2.57536e-05
3.09056e-05
3.08682e-05
2.57498e-05
2.57515e-05
2.57525e-05
2.57542e-05
2.5753e-05
2.57513e-05
2.57556e-05
3.09073e-05
3.08702e-05
2.57515e-05
2.57536e-05
2.57541e-05
3.08715e-05
3.0905e-05
3.08644e-05
2.57535e-05
2.57536e-05
2.57534e-05
2.57535e-05
3.09033e-05
3.08626e-05
2.57524e-05
2.57541e-05
2.57524e-05
2.5754e-05
2.57556e-05
2.57512e-05
2.57555e-05
3.09052e-05
3.08648e-05
2.5754e-05
2.57535e-05
2.57539e-05
3.0866e-05
3.09008e-05
3.08722e-05
2.57535e-05
2.57536e-05
2.57547e-05
2.57549e-05
3.0899e-05
3.08708e-05
2.57525e-05
2.57541e-05
2.57537e-05
2.57554e-05
2.57556e-05
2.57525e-05
2.57567e-05
3.0901e-05
3.08726e-05
2.5754e-05
2.57547e-05
2.57552e-05
3.0874e-05
3.0909e-05
3.08632e-05
2.57546e-05
2.57548e-05
2.5754e-05
2.57542e-05
3.09077e-05
3.08614e-05
2.57537e-05
2.57553e-05
2.57531e-05
2.57547e-05
2.57566e-05
2.57518e-05
2.57562e-05
3.09092e-05
3.08634e-05
2.57551e-05
2.57541e-05
2.57546e-05
3.08647e-05
3.08984e-05
3.08742e-05
2.57539e-05
2.57542e-05
2.57542e-05
2.57544e-05
3.08968e-05
3.08724e-05
2.57531e-05
2.57547e-05
2.57534e-05
2.57549e-05
2.57561e-05
2.57521e-05
2.57563e-05
3.08989e-05
3.08739e-05
2.57545e-05
2.57543e-05
2.57548e-05
3.08747e-05
3.09096e-05
3.08662e-05
2.57542e-05
2.57544e-05
2.57542e-05
2.57544e-05
3.09075e-05
3.08654e-05
2.57534e-05
2.57549e-05
2.57533e-05
2.5755e-05
2.57563e-05
2.57521e-05
2.57564e-05
3.09086e-05
3.08686e-05
2.57548e-05
2.57544e-05
2.57548e-05
3.08694e-05
3.09048e-05
3.08658e-05
2.57542e-05
2.57544e-05
2.57543e-05
2.57545e-05
3.09044e-05
3.08634e-05
2.57533e-05
2.57549e-05
2.57535e-05
2.57551e-05
2.57563e-05
2.57524e-05
2.57565e-05
3.09071e-05
3.08664e-05
2.57548e-05
2.57545e-05
2.57549e-05
3.08675e-05
3.09023e-05
3.08677e-05
2.57543e-05
2.57547e-05
2.57543e-05
2.57545e-05
3.09013e-05
3.0863e-05
2.57535e-05
2.57551e-05
2.57535e-05
2.5755e-05
2.57567e-05
2.57522e-05
2.57564e-05
3.09051e-05
3.08643e-05
2.57551e-05
2.57544e-05
2.57549e-05
3.08678e-05
3.09027e-05
3.08717e-05
2.57543e-05
2.57545e-05
2.57544e-05
2.57546e-05
3.08988e-05
3.08668e-05
2.57535e-05
2.57551e-05
2.57535e-05
2.57551e-05
2.57564e-05
2.57524e-05
2.57565e-05
3.09021e-05
3.08649e-05
2.57548e-05
2.57545e-05
2.5755e-05
3.08712e-05
3.09072e-05
3.08709e-05
2.57544e-05
2.57546e-05
2.57547e-05
2.57547e-05
3.09008e-05
3.08693e-05
2.57535e-05
2.57552e-05
2.57536e-05
2.57551e-05
2.57565e-05
2.57524e-05
2.57565e-05
3.09014e-05
3.08648e-05
2.5755e-05
2.57545e-05
2.57549e-05
3.08725e-05
3.0909e-05
3.08682e-05
2.57545e-05
2.57545e-05
2.57549e-05
2.5755e-05
3.09034e-05
3.08707e-05
2.57534e-05
2.5755e-05
2.57538e-05
2.57554e-05
2.57565e-05
2.57525e-05
2.57567e-05
3.09004e-05
3.08661e-05
2.57549e-05
2.57546e-05
2.57552e-05
3.08729e-05
3.09079e-05
3.08659e-05
2.57548e-05
2.57547e-05
2.57548e-05
2.5755e-05
3.09052e-05
3.08717e-05
2.57536e-05
2.57552e-05
2.57537e-05
2.57553e-05
2.57564e-05
2.57529e-05
2.57568e-05
3.09007e-05
3.08668e-05
2.57549e-05
2.57548e-05
2.57552e-05
3.08742e-05
3.09063e-05
3.08639e-05
2.57549e-05
2.57549e-05
2.57548e-05
2.57548e-05
3.09074e-05
3.08694e-05
2.57538e-05
2.57554e-05
2.57535e-05
2.57551e-05
2.57567e-05
2.57525e-05
2.57567e-05
3.09018e-05
3.08653e-05
2.57551e-05
2.57546e-05
2.57552e-05
3.08759e-05
3.09039e-05
3.08631e-05
2.5755e-05
2.57549e-05
2.57547e-05
2.57547e-05
3.09059e-05
3.08697e-05
2.57536e-05
2.57552e-05
2.57535e-05
2.57552e-05
2.57567e-05
2.57524e-05
2.57566e-05
3.09005e-05
3.08661e-05
2.57551e-05
2.57544e-05
2.5755e-05
3.08708e-05
3.09004e-05
3.08656e-05
2.57548e-05
2.57547e-05
2.57549e-05
2.57551e-05
3.09042e-05
3.08724e-05
2.57534e-05
2.57551e-05
2.57535e-05
2.57553e-05
2.57566e-05
2.57528e-05
2.57566e-05
3.09001e-05
3.08678e-05
2.5755e-05
2.57546e-05
2.5755e-05
3.08698e-05
3.0902e-05
3.08654e-05
2.57548e-05
2.57547e-05
2.57552e-05
2.5755e-05
3.09078e-05
3.08676e-05
2.57534e-05
2.57552e-05
2.57537e-05
2.57553e-05
2.57564e-05
2.57529e-05
2.5757e-05
3.09017e-05
3.08656e-05
2.57548e-05
2.57546e-05
2.57554e-05
3.08768e-05
3.09043e-05
3.08625e-05
2.57551e-05
2.57549e-05
2.5755e-05
2.5755e-05
3.09044e-05
3.08684e-05
2.57536e-05
2.57552e-05
2.57535e-05
2.57553e-05
2.57568e-05
2.57525e-05
2.57566e-05
3.08995e-05
3.08687e-05
2.5755e-05
2.57547e-05
2.57551e-05
3.08707e-05
3.0899e-05
3.08706e-05
2.5755e-05
2.57549e-05
2.57551e-05
2.5755e-05
3.09014e-05
3.08734e-05
2.57536e-05
2.57552e-05
2.57535e-05
2.57553e-05
2.57569e-05
2.57526e-05
2.57565e-05
3.09011e-05
3.08755e-05
2.57553e-05
2.57547e-05
2.57548e-05
3.08655e-05
3.09044e-05
3.08735e-05
2.57551e-05
2.57549e-05
2.57551e-05
2.5755e-05
3.0907e-05
3.08718e-05
2.57535e-05
2.57553e-05
2.57535e-05
2.57553e-05
2.57564e-05
2.5753e-05
2.57569e-05
3.09103e-05
3.08713e-05
2.57549e-05
2.57546e-05
2.57549e-05
3.0873e-05
3.0911e-05
3.08689e-05
2.57551e-05
2.57549e-05
2.57551e-05
2.5755e-05
3.09099e-05
3.08638e-05
2.57535e-05
2.57552e-05
2.57536e-05
2.57553e-05
2.57567e-05
2.57526e-05
2.57566e-05
3.09104e-05
3.0864e-05
2.57548e-05
2.57544e-05
2.57551e-05
3.08766e-05
3.09091e-05
3.08631e-05
2.57551e-05
2.5755e-05
2.57551e-05
2.5755e-05
3.09053e-05
3.08601e-05
2.57534e-05
2.57552e-05
2.57537e-05
2.57553e-05
2.57566e-05
2.57525e-05
2.57566e-05
3.09049e-05
3.08626e-05
2.57548e-05
2.57544e-05
2.57552e-05
3.08741e-05
3.09033e-05
3.08632e-05
2.57551e-05
2.57549e-05
2.57553e-05
2.57551e-05
3.08974e-05
3.08637e-05
2.57536e-05
2.57553e-05
2.57534e-05
2.57552e-05
2.57565e-05
2.57525e-05
2.57568e-05
3.08987e-05
3.08674e-05
2.5755e-05
2.57545e-05
2.5755e-05
3.08697e-05
3.08988e-05
3.08665e-05
2.57552e-05
2.5755e-05
2.57552e-05
2.5755e-05
3.08971e-05
3.08722e-05
2.57536e-05
2.57552e-05
2.57534e-05
2.57552e-05
2.57567e-05
2.57528e-05
2.57567e-05
3.09008e-05
3.08689e-05
2.5755e-05
2.57547e-05
2.5755e-05
3.08659e-05
3.08999e-05
3.08693e-05
2.57554e-05
2.57549e-05
2.57551e-05
2.5755e-05
3.09045e-05
3.08721e-05
2.57534e-05
2.57552e-05
2.57535e-05
2.57553e-05
2.57567e-05
2.57529e-05
2.57566e-05
3.09041e-05
3.08645e-05
2.57549e-05
2.57546e-05
2.57551e-05
3.08647e-05
3.09016e-05
3.08732e-05
2.57551e-05
2.57549e-05
2.57555e-05
2.57551e-05
3.09097e-05
3.08627e-05
2.57534e-05
2.57553e-05
2.57536e-05
2.57553e-05
2.57566e-05
2.57527e-05
2.57567e-05
3.09023e-05
3.08631e-05
2.57551e-05
2.57545e-05
2.57548e-05
3.08644e-05
3.09052e-05
3.08747e-05
2.57552e-05
2.5755e-05
2.57554e-05
2.57549e-05
3.09031e-05
3.08611e-05
2.57534e-05
2.57553e-05
2.57536e-05
2.57553e-05
2.57567e-05
2.57527e-05
2.57566e-05
3.09001e-05
3.0864e-05
2.5755e-05
2.57545e-05
2.57548e-05
3.08641e-05
3.09097e-05
3.08713e-05
2.57554e-05
2.57551e-05
2.57553e-05
2.57548e-05
3.08978e-05
3.08627e-05
2.57536e-05
2.57553e-05
2.57534e-05
2.57553e-05
2.57567e-05
2.57526e-05
2.57566e-05
3.0899e-05
3.08658e-05
2.57549e-05
2.57544e-05
2.57547e-05
3.08644e-05
3.0907e-05
3.08708e-05
2.57553e-05
2.57549e-05
2.57552e-05
2.57548e-05
3.08972e-05
3.08647e-05
2.57534e-05
2.57553e-05
2.57534e-05
2.57553e-05
2.57566e-05
2.57526e-05
2.57567e-05
3.08995e-05
3.08677e-05
2.57548e-05
2.57545e-05
2.57548e-05
3.08654e-05
3.09036e-05
3.0871e-05
2.57552e-05
2.57548e-05
2.57553e-05
2.57549e-05
3.08981e-05
3.08665e-05
2.57534e-05
2.57553e-05
2.57534e-05
2.57553e-05
2.57566e-05
2.57526e-05
2.57567e-05
3.09005e-05
3.08695e-05
2.57548e-05
2.57545e-05
2.57549e-05
3.08655e-05
3.09032e-05
3.08716e-05
2.57552e-05
2.57548e-05
2.57554e-05
2.57549e-05
3.08993e-05
3.0868e-05
2.57533e-05
2.57552e-05
2.57535e-05
2.57553e-05
2.57567e-05
2.57526e-05
2.57567e-05
3.09019e-05
3.08708e-05
2.57549e-05
2.57546e-05
2.57549e-05
3.08648e-05
3.09038e-05
3.08723e-05
2.57552e-05
2.57548e-05
2.57553e-05
2.57549e-05
3.09004e-05
3.08694e-05
2.57533e-05
2.57551e-05
2.57535e-05
2.57553e-05
2.57567e-05
2.57526e-05
2.57567e-05
3.0903e-05
3.08715e-05
2.57549e-05
2.57546e-05
2.57549e-05
3.08645e-05
3.09045e-05
3.08734e-05
2.57552e-05
2.57548e-05
2.57554e-05
2.57549e-05
3.09016e-05
3.08703e-05
2.57534e-05
2.57551e-05
2.57534e-05
2.57552e-05
2.57567e-05
2.57526e-05
2.57566e-05
3.09038e-05
3.08718e-05
2.57549e-05
2.57545e-05
2.57549e-05
3.08646e-05
3.09061e-05
3.08739e-05
2.57552e-05
2.57548e-05
2.57554e-05
2.57549e-05
3.09027e-05
3.08703e-05
2.57533e-05
2.57551e-05
2.57534e-05
2.57553e-05
2.57566e-05
2.57526e-05
2.57567e-05
3.09041e-05
3.08727e-05
2.57549e-05
2.57544e-05
2.57549e-05
3.08647e-05
3.09076e-05
3.08735e-05
2.57553e-05
2.57548e-05
2.57554e-05
2.57549e-05
3.09028e-05
3.08706e-05
2.57533e-05
2.57551e-05
2.57534e-05
2.57553e-05
2.57567e-05
2.57526e-05
2.57567e-05
3.09051e-05
3.08735e-05
2.57549e-05
2.57545e-05
2.57549e-05
3.08647e-05
3.09077e-05
3.0873e-05
2.57553e-05
2.57548e-05
2.57554e-05
2.5755e-05
3.0903e-05
3.08713e-05
2.57533e-05
2.57551e-05
2.57534e-05
2.57553e-05
2.57567e-05
2.57526e-05
2.57567e-05
3.0907e-05
3.08729e-05
2.57549e-05
2.57544e-05
2.57548e-05
3.08645e-05
3.09067e-05
3.08727e-05
2.57553e-05
2.57548e-05
2.57554e-05
2.5755e-05
3.09041e-05
3.08716e-05
2.57533e-05
2.57552e-05
2.57534e-05
2.57553e-05
2.57567e-05
2.57525e-05
2.57567e-05
3.09071e-05
3.0872e-05
2.57549e-05
2.57544e-05
2.57548e-05
3.08643e-05
3.09055e-05
3.08727e-05
2.57553e-05
2.57549e-05
2.57553e-05
2.57549e-05
3.0905e-05
3.08714e-05
2.57533e-05
2.57552e-05
2.57533e-05
2.57552e-05
2.57567e-05
2.57525e-05
2.57567e-05
3.09056e-05
3.08717e-05
2.57548e-05
2.57543e-05
2.57548e-05
3.08647e-05
3.09053e-05
3.0873e-05
2.57553e-05
2.57549e-05
2.57553e-05
2.57549e-05
3.0905e-05
3.08709e-05
2.57533e-05
2.57552e-05
2.57533e-05
2.57552e-05
2.57567e-05
2.57524e-05
2.57566e-05
3.09043e-05
3.08719e-05
2.57548e-05
2.57543e-05
2.57548e-05
3.08651e-05
3.09058e-05
3.08733e-05
2.57552e-05
2.57548e-05
2.57553e-05
2.57548e-05
3.0904e-05
3.08705e-05
2.57532e-05
2.57551e-05
2.57534e-05
2.57552e-05
2.57566e-05
2.57524e-05
2.57565e-05
3.09043e-05
3.08721e-05
2.57548e-05
2.57542e-05
2.57547e-05
3.08649e-05
3.09063e-05
3.08736e-05
2.57552e-05
2.57548e-05
2.57553e-05
2.57548e-05
3.09031e-05
3.08706e-05
2.57533e-05
2.57551e-05
2.57533e-05
2.57551e-05
2.57565e-05
2.57524e-05
2.57565e-05
3.09045e-05
3.08726e-05
2.57548e-05
2.57542e-05
2.57546e-05
3.08644e-05
3.09069e-05
3.08736e-05
2.57553e-05
2.57548e-05
2.57552e-05
2.57548e-05
3.09032e-05
3.08709e-05
2.57533e-05
2.57551e-05
2.57532e-05
2.5755e-05
2.57566e-05
2.57523e-05
2.57564e-05
3.09051e-05
3.08734e-05
2.57547e-05
2.57541e-05
2.57545e-05
3.08641e-05
3.09075e-05
3.08734e-05
2.57552e-05
2.57548e-05
2.57551e-05
2.57547e-05
3.09036e-05
3.0871e-05
2.57533e-05
2.57551e-05
2.57531e-05
2.5755e-05
2.57565e-05
2.57523e-05
2.57563e-05
3.0907e-05
3.08728e-05
2.57546e-05
2.57541e-05
2.57545e-05
3.08644e-05
3.09075e-05
3.08732e-05
2.57552e-05
2.57548e-05
2.5755e-05
2.57546e-05
3.09038e-05
3.0871e-05
2.57532e-05
2.5755e-05
2.5753e-05
2.57549e-05
2.57565e-05
2.57523e-05
2.57563e-05
3.09071e-05
3.08722e-05
2.57546e-05
2.5754e-05
2.57544e-05
3.08646e-05
3.09071e-05
3.08729e-05
2.57552e-05
2.57547e-05
2.57549e-05
2.57545e-05
3.09039e-05
3.08714e-05
2.57532e-05
2.5755e-05
2.5753e-05
2.57548e-05
2.57565e-05
2.57522e-05
2.57562e-05
3.09059e-05
3.08718e-05
2.57546e-05
2.57539e-05
2.57544e-05
3.08644e-05
3.09064e-05
3.08727e-05
2.57551e-05
2.57547e-05
2.5755e-05
2.57545e-05
3.09044e-05
3.08715e-05
2.57532e-05
2.5755e-05
2.57529e-05
2.57548e-05
2.57565e-05
2.57521e-05
2.57561e-05
3.09047e-05
3.08715e-05
2.57546e-05
2.57539e-05
2.57543e-05
3.08642e-05
3.09057e-05
3.08726e-05
2.57552e-05
2.57548e-05
2.57548e-05
2.57544e-05
3.09051e-05
3.08712e-05
2.57533e-05
2.57551e-05
2.57528e-05
2.57547e-05
2.57565e-05
2.57521e-05
2.57561e-05
3.0904e-05
3.08715e-05
2.57546e-05
2.57539e-05
2.57542e-05
3.08644e-05
3.09054e-05
3.08729e-05
2.57553e-05
2.57549e-05
2.57548e-05
2.57543e-05
3.09047e-05
3.0871e-05
2.57533e-05
2.57551e-05
2.57528e-05
2.57546e-05
2.57566e-05
2.57521e-05
2.57561e-05
3.09039e-05
3.0872e-05
2.57547e-05
2.57537e-05
2.57541e-05
3.08645e-05
3.09058e-05
3.08733e-05
2.57553e-05
2.57549e-05
2.57547e-05
2.57543e-05
3.0904e-05
3.08711e-05
2.57533e-05
2.57552e-05
2.57528e-05
2.57546e-05
2.57568e-05
2.5752e-05
2.57559e-05
3.09043e-05
3.08737e-05
2.57548e-05
2.57538e-05
2.57541e-05
3.08645e-05
3.09067e-05
3.08731e-05
2.57555e-05
2.5755e-05
2.57547e-05
2.57543e-05
3.09041e-05
3.08716e-05
2.57536e-05
2.57554e-05
2.57527e-05
2.57545e-05
2.57569e-05
2.57519e-05
2.57558e-05
3.09071e-05
3.08728e-05
2.57549e-05
2.57537e-05
2.5754e-05
3.08642e-05
3.09069e-05
3.08725e-05
2.57558e-05
2.57553e-05
2.57545e-05
2.57542e-05
3.09052e-05
3.08715e-05
2.57538e-05
2.57556e-05
2.57526e-05
2.57544e-05
2.5757e-05
2.57518e-05
2.57558e-05
3.09078e-05
3.08713e-05
2.57552e-05
2.57535e-05
2.57538e-05
3.0864e-05
3.0906e-05
3.08722e-05
2.5756e-05
2.57556e-05
2.57544e-05
2.5754e-05
3.09061e-05
3.08707e-05
2.5754e-05
2.57558e-05
2.57525e-05
2.57543e-05
2.57572e-05
2.57517e-05
2.57557e-05
3.09048e-05
3.08705e-05
2.57553e-05
2.57534e-05
2.57538e-05
3.08641e-05
3.0905e-05
3.08725e-05
2.57563e-05
2.57559e-05
2.57544e-05
2.5754e-05
3.0905e-05
3.08702e-05
2.57543e-05
2.57561e-05
2.57525e-05
2.57543e-05
2.57575e-05
2.57516e-05
2.57556e-05
3.09029e-05
3.08725e-05
2.57556e-05
2.57534e-05
2.57537e-05
3.08643e-05
3.09053e-05
3.0873e-05
2.57567e-05
2.57563e-05
2.57545e-05
2.57541e-05
3.09032e-05
3.08702e-05
2.57548e-05
2.57565e-05
2.57526e-05
2.57544e-05
2.5758e-05
2.57517e-05
2.57557e-05
3.09049e-05
3.0874e-05
2.57561e-05
2.57534e-05
2.57538e-05
3.08642e-05
3.09061e-05
3.08733e-05
2.57575e-05
2.57571e-05
2.57548e-05
2.57544e-05
3.09029e-05
3.08711e-05
2.57556e-05
2.57574e-05
2.57529e-05
2.57547e-05
2.57588e-05
2.57521e-05
2.5756e-05
3.09085e-05
3.08721e-05
2.57568e-05
2.57537e-05
2.57541e-05
3.08642e-05
3.09065e-05
3.08745e-05
2.57587e-05
2.57583e-05
2.57556e-05
2.57552e-05
3.09037e-05
3.08731e-05
2.57568e-05
2.57587e-05
2.57537e-05
2.57556e-05
2.576e-05
2.57529e-05
2.57568e-05
3.09078e-05
3.08722e-05
2.57581e-05
2.57546e-05
2.57548e-05
3.0865e-05
3.09071e-05
3.08723e-05
2.57606e-05
2.57601e-05
2.57497e-05
2.57493e-05
3.09059e-05
3.08706e-05
2.57587e-05
2.57605e-05
2.57477e-05
2.57495e-05
2.57618e-05
2.5747e-05
2.57507e-05
3.09051e-05
3.08695e-05
2.57599e-05
2.57484e-05
2.57487e-05
3.08617e-05
3.09025e-05
3.05094e-05
2.57547e-05
2.57544e-05
2.53446e-05
2.53441e-05
3.09013e-05
3.05078e-05
2.57527e-05
2.57546e-05
2.5344e-05
2.53429e-05
2.57559e-05
2.53443e-05
2.53451e-05
3.08994e-05
3.05086e-05
2.57538e-05
2.53444e-05
2.53446e-05
3.0509e-05
3.0102e-05
2.47803e-05
2.47799e-05
3.0101e-05
2.47802e-05
2.47786e-05
1.59281e-05
1.59275e-05
1.59282e-05
2.47809e-05
3.01014e-05
2.47808e-05
7.67499e-06
1.38287e-06
5.27256e-06
5.26562e-06
9.50897e-08
3.88083e-07
3.23638e-07
3.28271e-06
1.00166e-07
4.1458e-07
3.27888e-06
4.54219e-07
3.62618e-07
1.14833e-07
2.88311e-07
2.7942e-07
5.04524e-06
2.49103e-07
6.54998e-06
1.4016e-05
2.14449e-05
2.77907e-07
4.81858e-06
2.45649e-07
6.36216e-06
3.13024e-06
3.13926e-06
3.13844e-06
3.13085e-06
3.13362e-06
3.14282e-06
3.14153e-06
9.32215e-08
6.8647e-07
1.48478e-06
4.72195e-07
9.44949e-08
6.65478e-07
1.47404e-06
1.35641e-05
2.10583e-05
1.01927e-07
1.47378e-06
7.06198e-07
4.92945e-07
1.02207e-07
1.46413e-06
6.75662e-07
1.72977e-06
1.89764e-06
3.44754e-07
1.68746e-06
1.86768e-06
4.74537e-07
1.00425e-05
3.9073e-07
1.23352e-05
3.68914e-05
4.67358e-05
4.73241e-07
9.42008e-06
3.89313e-07
1.23422e-05
3.15834e-06
3.16726e-06