/*--------------------------------*- C++ -*----------------------------------*\
| =========                 |                                                 |
| \\      /  F ield         | OpenFOAM: The Open Source CFD Toolbox           |
|  \\    /   O peration     | Version:  v2012                                 |
|   \\  /    A nd           | Website:  www.openfoam.com                      |
|    \\/     M anipulation  |                                                 |
\*---------------------------------------------------------------------------*/
FoamFile
{
    version     2.0;
    format      ascii;
    class       volScalarField;
    location    "137.5";
    object      nut;
}
// * * * * * * * * * * * * * * * * * * * * * * * * * * * * * * * * * * * * * //

dimensions      [0 2 -1 0 0 0 0];


internalField   nonuniform List<scalar> 
171728
(
3.32705e-05
3.19718e-06
3.60146e-06
2.1517e-06
3.37585e-05
3.4809e-06
3.87816e-06
2.16115e-06
3.4952e-05
3.9045e-06
4.27089e-06
2.18721e-06
3.60998e-05
4.39885e-06
4.73372e-06
2.16797e-06
3.71966e-05
4.9119e-06
5.26805e-06
2.15336e-06
3.82709e-05
5.46354e-06
5.85843e-06
2.15891e-06
3.93219e-05
6.08216e-06
6.51887e-06
2.21763e-06
4.03511e-05
6.78872e-06
7.26143e-06
2.42203e-06
4.13623e-05
7.55305e-06
8.00815e-06
2.69985e-06
4.23323e-05
8.37588e-06
8.80237e-06
3.04035e-06
4.32807e-05
9.31379e-06
9.5676e-06
3.44293e-06
4.4178e-05
1.03567e-05
1.02444e-05
3.87126e-06
4.50619e-05
1.1434e-05
1.10606e-05
4.3203e-06
4.59411e-05
1.24743e-05
1.18278e-05
4.76771e-06
4.67006e-05
1.35196e-05
1.27476e-05
5.22773e-06
4.76334e-05
1.46428e-05
1.37386e-05
5.70412e-06
4.84314e-05
1.55012e-05
1.47229e-05
6.20299e-06
4.92136e-05
1.6134e-05
1.56069e-05
6.37163e-06
5.01363e-05
1.6941e-05
1.65554e-05
6.66189e-06
5.09785e-05
1.76188e-05
1.75465e-05
7.48281e-06
5.19107e-05
1.83598e-05
1.85097e-05
8.49111e-06
5.30522e-05
1.96627e-05
1.97864e-05
1.01985e-05
5.40099e-05
2.12311e-05
2.12993e-05
1.27552e-05
5.53029e-05
2.32847e-05
2.34381e-05
1.6605e-05
5.64783e-05
2.59388e-05
2.6022e-05
2.16343e-05
5.82263e-05
2.96134e-05
2.97808e-05
2.83872e-05
6.01419e-05
3.399e-05
3.4822e-05
3.65185e-05
6.18856e-05
3.89046e-05
3.96627e-05
4.52428e-05
6.32523e-05
4.51039e-05
4.54818e-05
5.52842e-05
6.48838e-05
5.36278e-05
5.38835e-05
6.58518e-05
7.01659e-05
6.61276e-05
6.62674e-05
7.74416e-05
7.85843e-05
8.04636e-05
8.05136e-05
8.90198e-05
8.98276e-05
9.45046e-05
9.45197e-05
9.9215e-05
0.000102143
0.00010598
0.000105984
0.000107015
0.000110884
0.000112149
0.000112151
0.000110457
0.000115016
0.000114504
0.000114506
0.000111688
0.000116434
0.000115205
0.000115205
0.000112048
0.000116818
0.000115387
0.000115387
0.000112179
0.000116896
0.000115411
0.000115411
0.00011218
0.000116908
0.00011541
0.000115411
0.000112149
0.000116912
0.000115419
0.000115418
0.000112198
0.000116912
0.000115414
0.000115414
0.000112137
0.000116913
0.000115416
0.000115415
0.000112198
0.000116914
0.000115416
0.000115415
0.000112177
0.000116915
0.00011542
0.000115418
0.000112159
0.000116915
0.000115416
0.000115415
0.000112152
0.000116916
0.000115418
0.000115416
0.00011217
0.000116916
0.000115418
0.000115415
0.000112181
0.000116916
0.000115417
0.000115415
0.000112183
0.000116917
0.00011542
0.000115417
0.000112191
0.000116918
0.00011542
0.000115418
0.000112214
0.000116918
0.000115418
0.000115415
0.000112187
0.000116917
0.000115418
0.000115415
0.000112162
0.000116917
0.000115422
0.000115416
0.000112213
0.000116918
0.00011542
0.000115416
0.000112186
0.000116918
0.000115417
0.000115416
0.000112129
0.000116918
0.000115422
0.000115417
0.00011217
0.000116918
0.000115421
0.000115417
0.000112225
0.000116918
0.000115419
0.000115415
0.000112231
0.000116918
0.000115418
0.000115415
0.000112212
0.000116918
0.000115419
0.000115417
0.000112186
0.000116918
0.00011542
0.000115417
0.000112165
0.000116918
0.00011542
0.000115417
0.000112151
0.000116918
0.00011542
0.000115416
0.00011214
0.000116918
0.000115419
0.000115415
0.000112137
0.000116918
0.000115418
0.000115415
0.000112143
0.000116918
0.000115419
0.000115415
0.000112146
0.000116918
0.000115419
0.000115415
0.000112147
0.000116918
0.000115419
0.000115416
0.000112147
0.000116918
0.000115418
0.000115416
0.000112148
0.000116918
0.000115419
0.000115415
0.000112151
0.000116918
0.000115419
0.000115415
0.000112154
0.000116918
0.000115418
0.000115415
0.000112153
0.000116918
0.000115418
0.000115415
0.00011215
0.000116918
0.000115419
0.000115414
0.000112153
0.000116918
0.000115418
0.000115414
0.000112161
0.000116918
0.000115418
0.000115414
0.000112165
0.000116918
0.000115419
0.000115414
0.000112158
0.000116918
0.000115419
0.000115414
0.000112148
0.000116918
0.000115418
0.000115415
0.000112146
0.000116918
0.000115419
0.000115415
0.000112151
0.000116918
0.000115419
0.000115415
0.000112154
0.000116918
0.000115419
0.000115415
0.000112153
0.000116918
0.000115419
0.000115416
0.000112153
0.000116918
0.00011542
0.000115415
0.000112157
0.000116919
0.000115421
0.000115416
0.000112159
0.000116919
0.000115421
0.000115418
0.000112157
0.000116919
0.000115423
0.000115419
0.000112153
0.000116919
0.000115425
0.00011542
0.000112151
0.00011692
0.000115427
0.000115423
0.000112154
0.000116921
0.000115433
0.000115428
0.000112156
0.000116922
0.000115442
0.000115438
0.000112154
0.000116925
0.000115459
0.000115454
0.000112158
0.000116895
0.000115441
0.000115436
0.000112159
0.000117644
0.000114755
0.000114751
0.000112271
2.39493e-06
2.94815e-06
2.38622e-06
2.09778e-06
3.17782e-06
3.26365e-06
3.38596e-05
3.38201e-05
3.40412e-05
3.3662e-05
2.64665e-06
2.43256e-06
2.35149e-06
2.91367e-06
2.75397e-06
2.16243e-06
2.36891e-06
2.37536e-06
3.5735e-06
3.04028e-06
3.74493e-06
3.23649e-06
2.08077e-06
2.08805e-06
3.6877e-06
3.74328e-06
3.86474e-06
3.89298e-06
3.13867e-06
3.38845e-06
3.30536e-06
2.32316e-06
2.32726e-06
3.41738e-06
3.79121e-06
3.56779e-06
2.16374e-06
2.36871e-06
2.38028e-06
3.82573e-06
3.33522e-06
4.09552e-06
3.63878e-06
2.0901e-06
2.16753e-06
3.96451e-06
3.98117e-06
4.27702e-06
4.27771e-06
3.38436e-06
3.79704e-06
3.63172e-06
2.31897e-06
2.34307e-06
3.64799e-06
4.16767e-06
3.90658e-06
2.19593e-06
2.36835e-06
2.36971e-06
4.19358e-06
3.74771e-06
4.50373e-06
4.05635e-06
2.17307e-06
2.23761e-06
4.38627e-06
4.38751e-06
4.72712e-06
4.73037e-06
3.72213e-06
4.27587e-06
4.01906e-06
2.33742e-06
2.3751e-06
4.00229e-06
4.61202e-06
4.27091e-06
2.1832e-06
2.35738e-06
2.37947e-06
4.61047e-06
4.17707e-06
4.95273e-06
4.52009e-06
2.23761e-06
2.28776e-06
4.84773e-06
4.85533e-06
5.21804e-06
5.22099e-06
4.13252e-06
4.78265e-06
4.49074e-06
2.36896e-06
2.41981e-06
4.37276e-06
5.13182e-06
4.68601e-06
2.16491e-06
2.36911e-06
2.39006e-06
5.07119e-06
4.64678e-06
5.41804e-06
5.05126e-06
2.28333e-06
2.32763e-06
5.33642e-06
5.34736e-06
5.66315e-06
5.77651e-06
4.62377e-06
5.32646e-06
5.06858e-06
2.4171e-06
2.50742e-06
4.79595e-06
5.71529e-06
5.16355e-06
2.16972e-06
2.37457e-06
2.40392e-06
5.53649e-06
5.17727e-06
5.9568e-06
5.6439e-06
2.32104e-06
2.37959e-06
5.77457e-06
5.91822e-06
6.12492e-06
6.4057e-06
5.20878e-06
5.93965e-06
5.6641e-06
2.51245e-06
2.69774e-06
5.29843e-06
6.35454e-06
5.68314e-06
2.22333e-06
2.39358e-06
2.45335e-06
6.10466e-06
5.79046e-06
6.57958e-06
6.28668e-06
2.37294e-06
2.50873e-06
6.24292e-06
6.56068e-06
6.60917e-06
7.09231e-06
5.80535e-06
6.60822e-06
6.27144e-06
2.6998e-06
2.96912e-06
5.81033e-06
7.07364e-06
6.23008e-06
2.4282e-06
2.44048e-06
2.55909e-06
6.74637e-06
6.48414e-06
7.24934e-06
7.02495e-06
2.50217e-06
2.75691e-06
6.73556e-06
7.27098e-06
7.19992e-06
7.82511e-06
6.42897e-06
7.33126e-06
6.98039e-06
2.96738e-06
3.32949e-06
6.38611e-06
7.8054e-06
6.87638e-06
2.70501e-06
2.54847e-06
2.7945e-06
7.43121e-06
7.21493e-06
8.00823e-06
7.90665e-06
2.74947e-06
3.07678e-06
7.36762e-06
8.03081e-06
7.90153e-06
8.64301e-06
7.16387e-06
8.16311e-06
7.77039e-06
3.32722e-06
3.75683e-06
7.0571e-06
8.62292e-06
7.59448e-06
3.04554e-06
2.78371e-06
3.13016e-06
8.21329e-06
8.11618e-06
8.87156e-06
8.70762e-06
3.07044e-06
3.46774e-06
8.10303e-06
8.867e-06
8.69974e-06
9.50887e-06
7.98999e-06
9.08187e-06
8.59815e-06
3.75372e-06
4.18353e-06
7.77605e-06
9.37031e-06
8.38979e-06
3.44917e-06
3.12064e-06
3.55823e-06
9.09823e-06
8.96384e-06
9.7885e-06
9.69884e-06
3.46022e-06
3.93329e-06
8.9115e-06
9.72296e-06
9.54961e-06
1.04144e-05
8.82227e-06
1.00954e-05
9.55966e-06
4.17393e-06
4.55425e-06
8.58708e-06
1.00841e-05
9.19146e-06
3.88585e-06
3.52477e-06
4.06223e-06
1.00404e-05
9.89123e-06
1.07479e-05
1.05659e-05
3.90485e-06
4.45224e-06
9.78517e-06
1.06183e-05
1.05399e-05
1.1248e-05
9.78403e-06
1.11771e-05
1.04864e-05
4.51954e-06
4.86445e-06
9.39769e-06
1.08667e-05
1.01003e-05
4.36104e-06
4.01973e-06
4.64352e-06
1.09856e-05
1.08321e-05
1.17381e-05
1.15511e-05
4.41097e-06
4.97947e-06
1.07739e-05
1.14832e-05
1.15704e-05
1.21267e-05
1.07157e-05
1.22143e-05
1.14147e-05
4.81736e-06
5.16046e-06
1.0308e-05
1.15922e-05
1.09669e-05
4.81731e-06
4.5903e-06
5.21386e-06
1.19752e-05
1.17954e-05
1.26329e-05
1.25064e-05
4.92673e-06
5.57524e-06
1.18401e-05
1.23473e-05
1.26032e-05
1.31006e-05
1.16802e-05
1.32635e-05
1.2391e-05
5.08964e-06
5.42312e-06
1.12762e-05
1.25426e-05
1.21011e-05
5.29304e-06
5.13508e-06
5.76246e-06
1.28739e-05
1.2716e-05
1.37683e-05
1.35136e-05
5.49932e-06
6.0571e-06
1.28391e-05
1.32512e-05
1.37817e-05
1.39915e-05
1.25662e-05
1.43821e-05
1.32778e-05
5.32814e-06
5.71714e-06
1.23236e-05
1.35143e-05
1.33722e-05
5.7887e-06
5.65659e-06
6.25815e-06
1.39826e-05
1.37272e-05
1.45962e-05
1.43464e-05
5.9433e-06
6.40753e-06
1.40665e-05
1.42942e-05
1.46751e-05
1.47916e-05
1.3493e-05
1.52417e-05
1.40735e-05
5.59632e-06
6.05012e-06
1.38083e-05
1.44118e-05
1.51747e-05
6.30357e-06
6.11494e-06
6.71631e-06
1.49317e-05
1.4648e-05
1.57132e-05
1.53254e-05
6.25334e-06
6.62907e-06
1.49809e-05
1.50458e-05
1.56688e-05
1.57605e-05
1.4345e-05
1.60187e-05
1.48689e-05
5.89945e-06
6.33209e-06
1.55416e-05
1.53842e-05
1.61096e-05
6.43795e-06
6.70185e-06
7.27528e-06
1.59971e-05
1.55509e-05
1.69654e-05
1.63144e-05
6.56972e-06
6.98503e-06
1.58948e-05
1.59947e-05
1.6715e-05
1.66401e-05
1.51349e-05
1.67569e-05
1.60628e-05
6.29622e-06
6.8223e-06
1.63549e-05
1.63622e-05
1.70706e-05
6.69455e-06
7.2695e-06
7.89587e-06
1.71697e-05
1.65036e-05
1.76305e-05
1.71337e-05
6.96733e-06
7.58486e-06
1.68963e-05
1.67944e-05
1.75047e-05
1.76454e-05
1.62618e-05
1.74482e-05
1.72059e-05
6.79373e-06
7.51714e-06
1.71885e-05
1.72657e-05
1.76021e-05
7.43253e-06
7.89849e-06
8.80492e-06
1.78183e-05
1.74026e-05
1.85041e-05
1.82088e-05
7.60048e-06
8.57682e-06
1.77675e-05
1.78969e-05
1.84414e-05
1.81157e-05
1.75044e-05
1.81565e-05
1.8062e-05
7.58094e-06
8.59683e-06
1.77843e-05
1.82935e-05
1.83915e-05
8.36953e-06
8.91893e-06
1.03082e-05
1.87226e-05
1.84546e-05
1.94852e-05
1.93572e-05
8.69043e-06
1.01357e-05
1.85999e-05
1.82243e-05
1.93603e-05
1.92704e-05
1.83102e-05
1.92764e-05
1.94272e-05
8.69677e-06
1.01057e-05
1.85913e-05
1.94105e-05
1.93309e-05
9.95859e-06
1.0562e-05
1.26916e-05
1.98012e-05
1.97284e-05
2.07734e-05
2.08321e-05
1.04146e-05
1.262e-05
1.97427e-05
1.97522e-05
2.08868e-05
2.09732e-05
1.98109e-05
2.08261e-05
2.07364e-05
1.03825e-05
1.26146e-05
1.96727e-05
2.08892e-05
2.0764e-05
1.22941e-05
1.31425e-05
1.61513e-05
2.11598e-05
2.12292e-05
2.26907e-05
2.27538e-05
1.30714e-05
1.60493e-05
2.12749e-05
2.13449e-05
2.27766e-05
2.27487e-05
2.10935e-05
2.27308e-05
2.26581e-05
1.30761e-05
1.60947e-05
2.11655e-05
2.28716e-05
2.2777e-05
1.59061e-05
1.68186e-05
2.08899e-05
2.3257e-05
2.3338e-05
2.51047e-05
2.52583e-05
1.67156e-05
2.09076e-05
2.33621e-05
2.33003e-05
2.52247e-05
2.51722e-05
2.32551e-05
2.51833e-05
2.50899e-05
1.67592e-05
2.08877e-05
2.33953e-05
2.53033e-05
2.53195e-05
2.07031e-05
2.18518e-05
2.74544e-05
2.58463e-05
2.60048e-05
2.8565e-05
2.87112e-05
2.18993e-05
2.7533e-05
2.59393e-05
2.59172e-05
2.85727e-05
2.86109e-05
2.5789e-05
2.86111e-05
2.83503e-05
2.18604e-05
2.75241e-05
2.60398e-05
2.86863e-05
2.86155e-05
2.71246e-05
2.87159e-05
3.52782e-05
2.96142e-05
2.97758e-05
3.29701e-05
3.32381e-05
2.87849e-05
3.53612e-05
2.96145e-05
2.96638e-05
3.30141e-05
3.30992e-05
2.93586e-05
3.28765e-05
3.26916e-05
2.88179e-05
3.56907e-05
2.96201e-05
3.35592e-05
3.29195e-05
3.50671e-05
3.6697e-05
4.36963e-05
3.40957e-05
3.4383e-05
3.76263e-05
3.78464e-05
3.67931e-05
4.38159e-05
3.41518e-05
3.42372e-05
3.76589e-05
3.77111e-05
3.38411e-05
3.75655e-05
3.74804e-05
3.71578e-05
4.40523e-05
3.40469e-05
3.84248e-05
3.76179e-05
4.36741e-05
4.52369e-05
5.33789e-05
3.89434e-05
3.91206e-05
4.3418e-05
4.34901e-05
4.5356e-05
5.34649e-05
3.89682e-05
3.90043e-05
4.34707e-05
4.34605e-05
3.8833e-05
4.34401e-05
4.33704e-05
4.55356e-05
5.3501e-05
3.89557e-05
4.38829e-05
4.34661e-05
5.34406e-05
5.5232e-05
6.3973e-05
4.50807e-05
4.51314e-05
5.11087e-05
5.11173e-05
5.5302e-05
6.39615e-05
4.51511e-05
4.51285e-05
5.1201e-05
5.11707e-05
4.50393e-05
5.1116e-05
5.10657e-05
5.53354e-05
6.40363e-05
4.51267e-05
5.13946e-05
5.11247e-05
6.39522e-05
6.58833e-05
7.53863e-05
5.3633e-05
5.36331e-05
6.27462e-05
6.27327e-05
6.58611e-05
7.5357e-05
5.37192e-05
5.36961e-05
6.27933e-05
6.27979e-05
5.359e-05
6.27299e-05
6.27121e-05
6.59426e-05
7.54357e-05
5.36388e-05
6.29002e-05
6.27348e-05
7.53552e-05
7.74687e-05
8.70983e-05
6.61463e-05
6.61316e-05
7.68451e-05
7.6832e-05
7.74435e-05
8.70884e-05
6.61806e-05
6.61911e-05
7.68528e-05
7.68676e-05
6.61169e-05
7.68342e-05
7.683e-05
7.75136e-05
8.71204e-05
6.61331e-05
7.68999e-05
7.6834e-05
8.70896e-05
8.9027e-05
9.75977e-05
8.04745e-05
8.04623e-05
9.11186e-05
9.11073e-05
8.90191e-05
9.75941e-05
8.04778e-05
8.04908e-05
9.11165e-05
9.11206e-05
8.04639e-05
9.11162e-05
9.1119e-05
8.90452e-05
9.76041e-05
8.04657e-05
9.1137e-05
9.1117e-05
9.7598e-05
9.92154e-05
0.00010592
9.45054e-05
9.44944e-05
0.000103556
0.000103545
9.92125e-05
0.000105918
9.45041e-05
9.45044e-05
0.000103557
0.000103549
9.45078e-05
0.000103562
0.000103561
9.92196e-05
0.000105918
9.45062e-05
0.000103567
0.000103562
0.00010592
0.000107016
0.000110053
0.000105974
0.000105962
0.000111058
0.000111046
0.000107014
0.000110052
0.000105975
0.000105965
0.000111061
0.000111046
0.000105979
0.000111067
0.000111066
0.000107013
0.000110052
0.000105981
0.00011107
0.000111068
0.000110057
0.000110453
0.000111559
0.000112139
0.000112126
0.000114128
0.000114114
0.000110452
0.000111558
0.000112143
0.000112126
0.000114133
0.000114114
0.000112147
0.000114139
0.000114136
0.000110452
0.000111556
0.00011215
0.000114141
0.00011414
0.000111561
0.000111685
0.00011202
0.000114492
0.000114479
0.000115091
0.000115078
0.000111684
0.00011202
0.000114498
0.000114479
0.000115098
0.000115078
0.0001145
0.000115104
0.000115099
0.000111682
0.000112017
0.000114505
0.000115105
0.000115105
0.000112023
0.000112045
0.000112183
0.000115192
0.000115178
0.00011535
0.000115336
0.000112045
0.000112183
0.000115198
0.000115178
0.000115356
0.000115335
0.000115199
0.000115363
0.000115357
0.000112042
0.000112179
0.000115205
0.000115363
0.000115362
0.000112185
0.000112177
0.000112198
0.000115374
0.00011536
0.000115397
0.000115383
0.000112177
0.000112197
0.00011538
0.000115359
0.000115404
0.000115383
0.00011538
0.00011541
0.000115404
0.000112173
0.000112194
0.000115386
0.00011541
0.000115409
0.000112199
0.00011218
0.000112164
0.000115398
0.000115383
0.000115397
0.000115383
0.000112179
0.000112163
0.000115404
0.000115384
0.000115404
0.000115383
0.000115404
0.00011541
0.000115403
0.000112176
0.00011216
0.000115409
0.00011541
0.000115409
0.000112164
0.000112149
0.000112202
0.000115398
0.000115384
0.000115406
0.000115392
0.000112148
0.000112203
0.000115404
0.000115384
0.000115413
0.000115392
0.000115404
0.000115418
0.000115411
0.000112145
0.000112199
0.000115409
0.000115418
0.000115417
0.000112205
0.000112195
0.000112159
0.000115406
0.000115392
0.000115401
0.000115388
0.000112196
0.000112156
0.000115412
0.000115392
0.000115408
0.000115387
0.000115411
0.000115414
0.000115408
0.000112192
0.000112153
0.000115417
0.000115414
0.000115413
0.000112157
0.000112135
0.000112221
0.000115401
0.000115388
0.000115402
0.000115389
0.000112134
0.000112221
0.000115408
0.000115387
0.00011541
0.000115388
0.000115408
0.000115416
0.000115408
0.000112131
0.000112215
0.000115413
0.000115415
0.000115414
0.000112217
0.000112207
0.000112165
0.000115402
0.000115389
0.000115402
0.00011539
0.000112205
0.000112169
0.00011541
0.000115388
0.000115409
0.000115389
0.000115408
0.000115416
0.000115409
0.000112197
0.000112175
0.000115414
0.000115415
0.000115414
0.000112177
0.000112167
0.000112167
0.000115402
0.00011539
0.000115403
0.00011539
0.000112174
0.000112158
0.000115409
0.000115388
0.00011541
0.000115389
0.000115409
0.000115417
0.000115409
0.000112179
0.00011216
0.000115414
0.000115415
0.000115414
0.000112167
0.000112154
0.000112183
0.000115403
0.000115392
0.000115403
0.00011539
0.000112153
0.000112161
0.00011541
0.00011539
0.00011541
0.000115388
0.000115411
0.000115416
0.000115408
0.000112163
0.000112148
0.000115416
0.000115415
0.000115414
0.000112174
0.000112161
0.000112207
0.000115403
0.000115391
0.000115403
0.000115391
0.000112141
0.000112189
0.00011541
0.000115389
0.00011541
0.000115388
0.000115408
0.000115418
0.000115409
0.000112143
0.000112154
0.000115414
0.000115416
0.000115415
0.000112198
0.000112193
0.000112195
0.000115403
0.000115391
0.000115405
0.000115392
0.000112159
0.000112205
0.00011541
0.00011539
0.00011541
0.000115389
0.000115409
0.000115418
0.000115409
0.00011214
0.000112155
0.000115414
0.000115415
0.000115414
0.000112206
0.000112201
0.000112174
0.000115403
0.00011539
0.000115406
0.000115394
0.000112178
0.000112212
0.000115409
0.000115388
0.000115412
0.000115391
0.000115409
0.000115419
0.000115411
0.000112134
0.000112164
0.000115414
0.000115416
0.000115416
0.000112207
0.000112189
0.000112157
0.000115406
0.000115392
0.000115405
0.000115394
0.00011219
0.000112216
0.000115411
0.00011539
0.000115411
0.00011539
0.000115409
0.000115421
0.000115411
0.000112137
0.000112168
0.000115414
0.000115417
0.000115416
0.000112219
0.000112175
0.000112144
0.000115406
0.000115394
0.000115404
0.000115392
0.000112203
0.0001122
0.000115412
0.000115391
0.000115409
0.000115388
0.00011541
0.000115418
0.00011541
0.000112143
0.000112158
0.000115415
0.000115416
0.000115416
0.000112226
0.000112156
0.000112145
0.000115406
0.000115393
0.000115404
0.000115392
0.00011219
0.00011221
0.00011541
0.000115389
0.000115409
0.000115389
0.00011541
0.000115418
0.000115409
0.000112133
0.000112169
0.000115416
0.000115415
0.000115414
0.000112186
0.000112136
0.000112163
0.000115404
0.000115392
0.000115406
0.000115394
0.000112186
0.000112221
0.000115409
0.000115389
0.00011541
0.00011539
0.000115409
0.000115421
0.00011541
0.000112136
0.000112177
0.000115415
0.000115416
0.000115415
0.00011219
0.000112152
0.000112151
0.000115405
0.000115392
0.000115407
0.000115394
0.000112208
0.000112182
0.000115409
0.00011539
0.000115411
0.00011539
0.000115408
0.000115421
0.000115413
0.000112146
0.000112161
0.000115413
0.000115416
0.000115418
0.000112232
0.000112158
0.000112139
0.000115407
0.000115393
0.000115405
0.000115394
0.000112173
0.000112202
0.000115411
0.00011539
0.00011541
0.00011539
0.000115412
0.000115418
0.000115409
0.000112127
0.000112191
0.000115416
0.000115417
0.000115415
0.000112179
0.000112122
0.000112208
0.000115406
0.000115393
0.000115406
0.000115394
0.000112161
0.000112242
0.000115411
0.00011539
0.00011541
0.00011539
0.000115412
0.00011542
0.000115409
0.000112148
0.000112232
0.000115417
0.000115417
0.000115413
0.000112154
0.000112176
0.000112222
0.000115406
0.000115394
0.000115406
0.000115394
0.000112213
0.000112217
0.00011541
0.00011539
0.00011541
0.00011539
0.000115408
0.000115422
0.000115412
0.000112214
0.000112191
0.000115414
0.000115416
0.000115414
0.000112219
0.000112225
0.000112177
0.000115406
0.000115394
0.000115406
0.000115394
0.000112226
0.000112148
0.00011541
0.00011539
0.000115411
0.00011539
0.00011541
0.000115419
0.00011541
0.000112205
0.000112138
0.000115413
0.000115415
0.000115416
0.000112247
0.000112202
0.000112131
0.000115406
0.000115394
0.000115406
0.000115394
0.000112178
0.000112127
0.000115409
0.00011539
0.000115411
0.00011539
0.00011541
0.000115418
0.00011541
0.000112159
0.000112136
0.000115414
0.000115414
0.000115417
0.000112222
0.00011215
0.000112139
0.000115406
0.000115394
0.000115407
0.000115394
0.000112117
0.000112167
0.000115411
0.00011539
0.000115409
0.000115389
0.00011541
0.000115419
0.000115411
0.00011212
0.000112172
0.000115416
0.000115416
0.000115414
0.000112183
0.000112119
0.00011217
0.000115406
0.000115394
0.000115406
0.000115394
0.000112128
0.000112227
0.000115411
0.00011539
0.000115409
0.00011539
0.00011541
0.000115421
0.00011541
0.000112139
0.000112176
0.000115415
0.000115417
0.000115415
0.000112152
0.000112131
0.000112196
0.000115407
0.000115394
0.000115406
0.000115394
0.000112187
0.000112212
0.000115409
0.00011539
0.00011541
0.00011539
0.00011541
0.000115421
0.00011541
0.000112157
0.000112142
0.000115414
0.000115416
0.000115416
0.00011214
0.000112151
0.000112223
0.000115405
0.000115393
0.000115408
0.000115395
0.000112211
0.000112147
0.00011541
0.000115391
0.000115411
0.00011539
0.00011541
0.00011542
0.00011541
0.000112138
0.000112135
0.000115416
0.000115415
0.000115414
0.000112135
0.000112182
0.000112225
0.000115406
0.000115395
0.000115408
0.000115393
0.000112159
0.000112143
0.00011541
0.00011539
0.000115411
0.00011539
0.00011541
0.000115419
0.00011541
0.000112122
0.000112147
0.000115416
0.000115415
0.000115414
0.000112134
0.000112206
0.000112201
0.000115408
0.000115395
0.000115406
0.000115392
0.000112124
0.00011216
0.000115411
0.00011539
0.00011541
0.00011539
0.000115411
0.000115419
0.00011541
0.000112118
0.000112163
0.000115415
0.000115415
0.000115413
0.000112142
0.000112184
0.000112203
0.000115406
0.000115393
0.000115406
0.000115393
0.000112125
0.000112175
0.00011541
0.00011539
0.000115409
0.00011539
0.00011541
0.000115419
0.00011541
0.000112126
0.000112178
0.000115414
0.000115415
0.000115414
0.000112149
0.000112163
0.000112205
0.000115406
0.000115393
0.000115407
0.000115393
0.000112135
0.000112188
0.000115409
0.00011539
0.00011541
0.00011539
0.00011541
0.000115419
0.00011541
0.000112136
0.00011219
0.000115414
0.000115416
0.000115415
0.000112147
0.000112161
0.00011221
0.000115406
0.000115392
0.000115407
0.000115393
0.000112145
0.000112199
0.000115409
0.000115389
0.00011541
0.00011539
0.00011541
0.000115419
0.00011541
0.000112147
0.000112198
0.000115415
0.000115416
0.000115415
0.00011214
0.000112166
0.000112218
0.000115406
0.000115392
0.000115407
0.000115393
0.000112154
0.000112208
0.000115409
0.000115389
0.00011541
0.00011539
0.00011541
0.000115419
0.00011541
0.000112154
0.000112203
0.000115415
0.000115417
0.000115415
0.000112138
0.000112174
0.000112224
0.000115406
0.000115392
0.000115407
0.000115394
0.000112163
0.000112212
0.000115409
0.000115389
0.00011541
0.00011539
0.00011541
0.000115419
0.00011541
0.000112159
0.000112207
0.000115415
0.000115416
0.000115415
0.000112139
0.000112187
0.000112224
0.000115406
0.000115393
0.000115407
0.000115394
0.000112169
0.000112214
0.000115409
0.000115389
0.00011541
0.00011539
0.00011541
0.000115419
0.000115411
0.000112163
0.000112214
0.000115415
0.000115415
0.000115415
0.00011214
0.000112195
0.000112218
0.000115406
0.000115393
0.000115407
0.000115394
0.000112171
0.000112217
0.000115409
0.000115389
0.00011541
0.00011539
0.00011541
0.000115419
0.00011541
0.000112173
0.000112217
0.000115415
0.000115416
0.000115415
0.00011214
0.000112192
0.000112215
0.000115406
0.000115393
0.000115408
0.000115394
0.000112175
0.000112221
0.000115409
0.000115389
0.000115409
0.00011539
0.000115411
0.000115419
0.00011541
0.000112185
0.000112209
0.000115415
0.000115415
0.000115414
0.000112137
0.000112183
0.000112215
0.000115406
0.000115393
0.000115407
0.000115394
0.000112183
0.000112221
0.000115409
0.000115389
0.00011541
0.00011539
0.00011541
0.000115419
0.00011541
0.000112182
0.000112204
0.000115414
0.000115415
0.000115414
0.000112138
0.000112176
0.000112218
0.000115407
0.000115393
0.000115407
0.000115394
0.000112188
0.000112218
0.000115409
0.000115389
0.000115409
0.000115389
0.00011541
0.000115419
0.00011541
0.00011217
0.000112204
0.000115414
0.000115415
0.000115414
0.000112143
0.000112177
0.00011222
0.000115406
0.000115393
0.000115407
0.000115393
0.000112186
0.000112215
0.000115409
0.000115389
0.000115409
0.000115389
0.00011541
0.000115418
0.00011541
0.000112163
0.000112206
0.000115414
0.000115415
0.000115414
0.000112145
0.000112181
0.000112222
0.000115406
0.000115393
0.000115407
0.000115393
0.000112178
0.000112215
0.000115408
0.000115388
0.00011541
0.000115389
0.00011541
0.000115419
0.00011541
0.000112164
0.000112208
0.000115415
0.000115415
0.000115413
0.00011214
0.000112185
0.000112224
0.000115406
0.000115393
0.000115407
0.000115393
0.000112174
0.000112217
0.000115409
0.000115389
0.00011541
0.00011539
0.000115409
0.000115419
0.000115409
0.000112166
0.000112214
0.000115414
0.000115414
0.000115413
0.000112134
0.00011219
0.000112223
0.000115406
0.000115393
0.000115407
0.000115393
0.000112175
0.000112218
0.000115409
0.000115389
0.000115409
0.000115389
0.00011541
0.000115418
0.000115409
0.000112173
0.000112217
0.000115414
0.000115415
0.000115413
0.000112134
0.000112193
0.000112221
0.000115406
0.000115393
0.000115406
0.000115393
0.000112178
0.000112218
0.000115409
0.000115389
0.000115409
0.000115389
0.000115409
0.000115418
0.000115409
0.000112185
0.00011221
0.000115413
0.000115415
0.000115413
0.000112138
0.000112193
0.000112219
0.000115406
0.000115393
0.000115406
0.000115393
0.000112179
0.00011222
0.000115409
0.000115389
0.000115409
0.000115389
0.000115409
0.000115419
0.000115409
0.000112184
0.000112206
0.000115413
0.000115414
0.000115413
0.000112141
0.000112189
0.000112217
0.000115406
0.000115393
0.000115406
0.000115393
0.000112181
0.000112223
0.000115409
0.000115389
0.000115409
0.000115389
0.00011541
0.000115419
0.000115409
0.000112174
0.000112203
0.000115414
0.000115414
0.000115413
0.000112139
0.000112184
0.000112217
0.000115406
0.000115392
0.000115407
0.000115393
0.000112187
0.000112222
0.000115409
0.000115389
0.000115409
0.000115388
0.00011541
0.000115418
0.000115408
0.000112165
0.000112202
0.000115414
0.000115414
0.000115413
0.000112137
0.000112179
0.000112219
0.000115407
0.000115393
0.000115406
0.000115393
0.00011219
0.000112219
0.000115409
0.000115389
0.000115408
0.000115388
0.00011541
0.000115418
0.000115409
0.000112159
0.000112205
0.000115414
0.000115414
0.000115413
0.00011214
0.000112179
0.000112221
0.000115407
0.000115394
0.000115406
0.000115392
0.000112186
0.000112219
0.000115409
0.000115389
0.000115409
0.000115389
0.00011541
0.000115419
0.000115409
0.000112161
0.000112213
0.000115414
0.000115414
0.000115412
0.000112142
0.000112184
0.000112221
0.000115407
0.000115394
0.000115406
0.000115393
0.000112182
0.000112222
0.000115409
0.000115389
0.000115409
0.000115389
0.000115411
0.000115419
0.000115408
0.00011217
0.00011222
0.000115414
0.000115415
0.000115413
0.000112139
0.000112189
0.000112218
0.000115408
0.000115394
0.000115407
0.000115393
0.000112184
0.000112225
0.000115411
0.000115391
0.000115409
0.000115389
0.000115412
0.000115419
0.000115409
0.000112189
0.000112208
0.000115415
0.000115415
0.000115413
0.000112136
0.000112187
0.000112215
0.000115409
0.000115395
0.000115406
0.000115394
0.000112192
0.00011222
0.000115412
0.000115392
0.000115409
0.000115389
0.000115412
0.000115419
0.000115409
0.000112187
0.0001122
0.000115417
0.000115414
0.000115413
0.000112135
0.00011218
0.000112216
0.000115411
0.000115397
0.000115407
0.000115394
0.000112195
0.000112215
0.000115413
0.000115392
0.00011541
0.00011539
0.000115413
0.00011542
0.00011541
0.000112164
0.000112202
0.000115417
0.000115415
0.000115414
0.000112138
0.000112176
0.000112219
0.000115412
0.000115399
0.000115409
0.000115396
0.000112187
0.000112214
0.000115414
0.000115394
0.000115412
0.000115392
0.000115415
0.000115421
0.000115412
0.000112158
0.000112218
0.000115419
0.000115417
0.000115415
0.000112139
0.00011218
0.00011222
0.000115415
0.000115402
0.000115413
0.000115399
0.000112176
0.000112216
0.000115418
0.000115397
0.000115416
0.000115395
0.000115418
0.000115425
0.000115415
0.000112178
0.000112222
0.000115422
0.00011542
0.000115419
0.000112138
0.000112184
0.000112224
0.00011542
0.000115407
0.000115419
0.000115405
0.000112175
0.000112224
0.000115423
0.000115403
0.000115422
0.000115402
0.000115423
0.000115431
0.000115421
0.0001122
0.000112205
0.000115427
0.000115427
0.000115425
0.000112142
0.000112188
0.000112235
0.00011543
0.000115416
0.000115431
0.000115418
0.000112184
0.000112237
0.000115433
0.000115413
0.000115434
0.000115414
0.000115433
0.000115444
0.000115434
0.000112189
0.000112209
0.000115436
0.000115439
0.000115438
0.00011215
0.000112198
0.000112239
0.000115446
0.000115433
0.000115452
0.000115441
0.000112202
0.000112237
0.000115449
0.00011543
0.000115456
0.000115436
0.000115449
0.000115465
0.000115454
0.000112174
0.000112215
0.000115453
0.000115461
0.00011546
0.000112157
0.000112206
0.000112161
0.000115427
0.000115416
0.000115557
0.000115545
0.000112206
0.000112158
0.000115431
0.000115411
0.000115562
0.00011554
0.000115429
0.000115573
0.000115558
0.000112179
0.000112154
0.000115435
0.000115568
0.000115565
0.000112155
0.000112261
0.000114741
0.00011473
0.000112259
0.000114745
0.000114724
0.000117642
0.000117639
0.000117644
0.000114742
0.000112255
0.000114749
7.9411e-05
1.52403e-05
5.47021e-05
5.46706e-05
5.84785e-07
2.72083e-06
1.0077e-06
3.49032e-05
5.41156e-07
3.00033e-06
3.49481e-05
1.67531e-06
2.19524e-06
3.3759e-07
1.95092e-06
1.06192e-06
1.36068e-05
9.99911e-07
1.51489e-05
1.09043e-05
1.31236e-05
1.05e-06
1.32998e-05
9.9031e-07
1.49614e-05
3.31973e-05
3.34521e-05
3.30199e-05
3.34647e-05
3.33698e-05
3.36555e-05
3.31818e-05
6.67245e-07
4.88297e-07
1.56336e-05
3.2361e-06
6.50236e-07
6.14848e-07
1.55417e-05
1.0751e-05
1.30056e-05
6.4637e-07
1.59182e-05
5.25786e-07
3.64357e-06
5.90284e-07
1.58445e-05
6.42e-07
1.30856e-06
1.49784e-06
2.14961e-06
1.5114e-06
1.70452e-06
1.31906e-06
1.87425e-05
1.19677e-06
2.0788e-05
1.71956e-05
1.93585e-05
1.31922e-06
1.81785e-05
1.14602e-06
2.08235e-05
3.36701e-05
3.39539e-05
3.34824e-05
3.4659e-05
3.45888e-05
3.48725e-05
3.43975e-05
7.14254e-07