/*--------------------------------*- C++ -*----------------------------------*\
| =========                 |                                                 |
| \\      /  F ield         | OpenFOAM: The Open Source CFD Toolbox           |
|  \\    /   O peration     | Version:  v2012                                 |
|   \\  /    A nd           | Website:  www.openfoam.com                      |
|    \\/     M anipulation  |                                                 |
\*---------------------------------------------------------------------------*/
FoamFile
{
    version     2.0;
    format      ascii;
    class       volScalarField;
    location    "137.5";
    object      p;
}
// * * * * * * * * * * * * * * * * * * * * * * * * * * * * * * * * * * * * * //

dimensions      [0 2 -2 0 0 0 0];


internalField   nonuniform List<scalar> 
171728
(
0.00352022
0.00351967
0.0035197
0.00352109
0.0034838
0.00348279
0.00348288
0.00348588
0.00344704
0.00344558
0.00344563
0.00344798
0.0034022
0.003401
0.00340103
0.0034036
0.00335405
0.0033529
0.00335291
0.00335556
0.00330591
0.00330483
0.00330485
0.00330749
0.00325792
0.00325699
0.00325697
0.00325965
0.00321076
0.00320994
0.0032099
0.00321259
0.00316461
0.00316386
0.00316383
0.00316655
0.00311943
0.00311874
0.00311873
0.00312146
0.00307517
0.00307456
0.00307454
0.00307726
0.00303163
0.0030311
0.0030311
0.0030338
0.00298866
0.0029882
0.00298818
0.00299089
0.00294605
0.00294566
0.00294564
0.00294832
0.00290376
0.00290344
0.00290342
0.00290608
0.00286179
0.0028615
0.00286152
0.00286417
0.00282015
0.00281987
0.00281989
0.00282252
0.00277888
0.00277862
0.0027786
0.00278111
0.00273799
0.00273773
0.00273773
0.00274028
0.00269747
0.00269723
0.0026972
0.00269968
0.00265733
0.00265706
0.00265709
0.00265938
0.00261762
0.00261734
0.00261733
0.00261972
0.00257828
0.00257801
0.00257801
0.00258038
0.00253951
0.00253923
0.00253924
0.00254158
0.00250139
0.00250106
0.00250109
0.00250349
0.00246446
0.00246416
0.00246413
0.00246657
0.00242879
0.00242856
0.00242853
0.00243093
0.00239361
0.00239351
0.00239353
0.00239584
0.00235794
0.00235788
0.00235789
0.00236023
0.00232127
0.00232113
0.00232114
0.00232346
0.00228395
0.00228383
0.00228384
0.00228606
0.00224667
0.00224655
0.00224655
0.00224869
0.00220985
0.00220969
0.00220969
0.00221177
0.00217349
0.00217332
0.00217332
0.00217539
0.00213747
0.00213735
0.00213735
0.00213942
0.00210169
0.00210161
0.00210161
0.0021037
0.00206599
0.00206594
0.00206594
0.00206803
0.00203032
0.00203028
0.00203028
0.00203237
0.00199464
0.0019946
0.0019946
0.0019967
0.00195897
0.00195893
0.00195893
0.00196103
0.0019233
0.00192326
0.00192326
0.00192536
0.00188763
0.00188759
0.00188759
0.00188969
0.00185196
0.00185192
0.00185192
0.00185402
0.0018163
0.00181626
0.00181626
0.00181835
0.00178063
0.00178059
0.00178059
0.00178269
0.00174496
0.00174492
0.00174492
0.00174702
0.00170929
0.00170925
0.00170925
0.00171135
0.00167362
0.00167358
0.00167358
0.00167568
0.00163795
0.00163791
0.00163791
0.00164001
0.00160228
0.00160224
0.00160224
0.00160434
0.00156661
0.00156657
0.00156657
0.00156866
0.00153093
0.0015309
0.0015309
0.00153299
0.00149526
0.00149522
0.00149522
0.00149732
0.00145959
0.00145955
0.00145955
0.00146164
0.00142391
0.00142387
0.00142387
0.00142597
0.00138824
0.0013882
0.0013882
0.00139029
0.00135256
0.00135252
0.00135253
0.00135462
0.00131689
0.00131685
0.00131685
0.00131895
0.00128122
0.00128118
0.00128118
0.00128327
0.00124555
0.00124551
0.00124551
0.0012476
0.00120988
0.00120984
0.00120984
0.00121193
0.00117421
0.00117417
0.00117417
0.00117627
0.00113854
0.0011385
0.0011385
0.0011406
0.00110287
0.00110284
0.00110284
0.00110493
0.00106721
0.00106717
0.00106717
0.00106926
0.00103154
0.0010315
0.0010315
0.0010336
0.000995873
0.000995833
0.000995833
0.000997929
0.000960205
0.000960166
0.000960165
0.000962261
0.000924537
0.000924497
0.000924497
0.000926593
0.000888868
0.000888829
0.000888829
0.000890924
0.000853199
0.00085316
0.00085316
0.000855255
0.000817529
0.00081749
0.00081749
0.000819585
0.000781859
0.00078182
0.00078182
0.000783915
0.000746188
0.000746149
0.000746149
0.000748244
0.000710518
0.000710479
0.000710479
0.000712574
0.000674848
0.000674809
0.000674809
0.000676904
0.000639179
0.000639139
0.000639139
0.000641234
0.00060351
0.00060347
0.00060347
0.000605565
0.000567842
0.000567803
0.000567802
0.000569898
0.000532175
0.000532135
0.000532135
0.00053423
0.000496508
0.000496468
0.000496469
0.000498563
0.000460843
0.000460803
0.000460804
0.000462898
0.000425179
0.000425139
0.000425139
0.000427233
0.000389516
0.000389476
0.000389477
0.00039157
0.000353854
0.000353814
0.000353815
0.000355907
0.000318193
0.000318154
0.000318153
0.000320245
0.000282532
0.000282494
0.000282494
0.000284583
0.000246873
0.000246834
0.000246835
0.000248921
0.000211214
0.000211176
0.000211176
0.000213258
0.000175553
0.000175517
0.000175517
0.000177591
0.000139887
0.000139855
0.000139855
0.000141917
0.000104209
0.000104187
0.000104187
0.00010623
6.85475e-05
6.85109e-05
6.85096e-05
7.05258e-05
3.37696e-05
3.33606e-05
3.33569e-05
3.50577e-05
4.53774e-06
3.81651e-06
3.81765e-06
3.78547e-06
0.00352623
0.00352467
0.00352466
0.00352626
0.00352463
0.00352473
0.00352914
0.00352916
0.00352917
0.00352916
0.00352469
0.00352465
0.00352629
0.00352475
0.0035247
0.00352626
0.00352107
0.00349034
0.00351968
0.00351966
0.00349184
0.00349194
0.00352108
0.00349031
0.00351965
0.00351967
0.00349186
0.00349188
0.00351967
0.00349193
0.00349193
0.0035211
0.00349031
0.0035197
0.00349186
0.00349188
0.00349034
0.0034859
0.00345338
0.00348285
0.00348279
0.00345556
0.00345562
0.00348585
0.00345335
0.00348288
0.00348294
0.00345559
0.00345556
0.00348279
0.00345562
0.00345565
0.00348591
0.00345336
0.00348282
0.00345557
0.0034556
0.00345339
0.00344798
0.00340978
0.00344561
0.00344554
0.00341281
0.00341281
0.00344796
0.00340977
0.00344558
0.00344563
0.00341281
0.00341277
0.00344554
0.00341285
0.00341285
0.00344799
0.00340977
0.00344561
0.00341278
0.00341282
0.00340979
0.00340359
0.00336188
0.00340101
0.00340103
0.00336495
0.00336494
0.00340359
0.00336188
0.00340101
0.00340103
0.00336493
0.00336494
0.00340099
0.00336496
0.00336496
0.0034036
0.00336189
0.00340103
0.00336493
0.00336497
0.00336189
0.00335556
0.00331377
0.00335288
0.00335288
0.00331684
0.00331682
0.00335556
0.00331376
0.00335288
0.00335291
0.00331685
0.00331685
0.00335287
0.00331683
0.00331682
0.00335558
0.00331376
0.00335288
0.00331686
0.00331684
0.00331376
0.00330749
0.00326586
0.00330486
0.00330486
0.00326889
0.00326889
0.00330749
0.00326587
0.00330483
0.00330485
0.00326888
0.00326889
0.00330486
0.00326887
0.00326891
0.0033075
0.00326587
0.00330486
0.00326888
0.00326891
0.00326585
0.00325966
0.00321866
0.00325697
0.00325696
0.00322156
0.00322156
0.00325966
0.00321867
0.00325695
0.00325697
0.00322155
0.00322157
0.00325696
0.00322155
0.00322156
0.00325967
0.00321866
0.00325697
0.00322158
0.00322159
0.00321866
0.00321259
0.00317247
0.0032099
0.00320989
0.00317527
0.00317527
0.00321261
0.00317246
0.00320991
0.00320992
0.00317528
0.00317529
0.00320991
0.00317527
0.00317527
0.0032126
0.00317247
0.00320991
0.00317528
0.00317528
0.00317248
0.00316654
0.00312725
0.00316384
0.00316384
0.0031299
0.00312991
0.00316654
0.00312725
0.00316381
0.00316383
0.00312991
0.00312992
0.00316384
0.00312991
0.00312993
0.00316654
0.00312724
0.00316385
0.00312992
0.00312993
0.00312725
0.00312145
0.00308295
0.00311875
0.00311874
0.00308553
0.00308553
0.00312144
0.00308296
0.00311873
0.00311874
0.00308553
0.00308553
0.00311874
0.00308554
0.00308555
0.00312145
0.00308295
0.00311874
0.00308553
0.00308555
0.00308293
0.00307727
0.00303939
0.00307456
0.00307456
0.00304189
0.00304191
0.00307728
0.00303937
0.00307454
0.00307454
0.00304189
0.00304191
0.00307456
0.0030419
0.0030419
0.00307726
0.00303939
0.00307458
0.0030419
0.00304191
0.0030394
0.0030338
0.00299639
0.0030311
0.00303111
0.00299888
0.00299889
0.00303379
0.00299639
0.00303111
0.00303113
0.00299888
0.00299891
0.00303108
0.00299888
0.00299888
0.00303379
0.00299641
0.0030311
0.0029989
0.0029989
0.00299642
0.00299087
0.0029538
0.00298822
0.00298821
0.00295627
0.00295626
0.00299086
0.00295381
0.00298821
0.00298818
0.00295627
0.00295627
0.00298819
0.00295626
0.00295627
0.00299089
0.0029538
0.00298819
0.00295626
0.00295626
0.00295379
0.00294833
0.00291151
0.00294567
0.00294565
0.00291398
0.00291397
0.00294832
0.00291152
0.00294566
0.00294564
0.00291395
0.00291394
0.00294566
0.00291396
0.00291396
0.00294832
0.0029115
0.00294566
0.00291394
0.00291393
0.00291153
0.00290608
0.00286952
0.00290344
0.00290344
0.00287196
0.00287196
0.00290608
0.00286953
0.00290343
0.00290343
0.00287194
0.00287194
0.00290341
0.00287197
0.00287196
0.00290605
0.00286951
0.00290342
0.00287195
0.00287195
0.00286959
0.00286413
0.00282784
0.00286151
0.0028615
0.00283026
0.00283026
0.00286413
0.00282784
0.00286151
0.00286153
0.00283025
0.00283024
0.00286149
0.00283024
0.00283023
0.00286411
0.00282786
0.00286149
0.00283025
0.00283026
0.00282786
0.0028225
0.00278647
0.00281989
0.00281989
0.00278892
0.00278891
0.00282249
0.00278648
0.00281989
0.00281991
0.00278891
0.00278887
0.00281986
0.00278892
0.00278886
0.00282251
0.00278651
0.00281986
0.00278889
0.00278886
0.0027864
0.00278118
0.00274546
0.00277863
0.00277863
0.00274793
0.00274792
0.00278119
0.00274543
0.00277862
0.00277861
0.00274791
0.0027479
0.00277857
0.00274792
0.00274795
0.00278119
0.0027455
0.00277854
0.00274792
0.00274788
0.00274552
0.00274023
0.00270483
0.00273775
0.00273773
0.00270732
0.0027073
0.00274019
0.00270486
0.00273773
0.00273772
0.00270733
0.00270735
0.00273772
0.00270731
0.00270735
0.00274026
0.00270479
0.00273773
0.00270732
0.00270738
0.00270484
0.00269963
0.00266455
0.00269719
0.00269721
0.00266703
0.00266706
0.00269966
0.00266459
0.00269722
0.00269721
0.00266705
0.00266708
0.00269725
0.00266706
0.00266705
0.00269962
0.00266461
0.00269725
0.00266708
0.00266708
0.00266451
0.00265944
0.00262478
0.00265706
0.00265707
0.00262727
0.00262725
0.00265946
0.00262476
0.00265707
0.00265709
0.00262724
0.0026272
0.00265703
0.00262724
0.0026272
0.00265947
0.00262475
0.00265709
0.00262724
0.00262723
0.00262478
0.00261971
0.00258537
0.00261737
0.00261734
0.0025878
0.0025878
0.00261968
0.00258537
0.00261735
0.00261731
0.0025878
0.00258781
0.00261735
0.0025878
0.00258784
0.00261968
0.00258537
0.00261734
0.0025878
0.00258782
0.00258541
0.00258036
0.00254655
0.002578
0.00257801
0.00254887
0.00254887
0.00258036
0.00254656
0.00257801
0.00257803
0.00254886
0.00254887
0.00257803
0.00254888
0.00254885
0.00258036
0.00254656
0.00257802
0.00254887
0.00254883
0.00254651
0.00254162
0.00250834
0.00253923
0.00253923
0.00251053
0.00251052
0.00254162
0.00250832
0.00253922
0.00253923
0.00251054
0.00251054
0.00253921
0.00251052
0.00251053
0.00254162
0.00250835
0.00253919
0.00251054
0.00251054
0.00250835
0.00250347
0.0024712
0.00250106
0.00250106
0.00247322
0.00247323
0.00250346
0.00247122
0.00250108
0.00250108
0.00247321
0.00247321
0.00250108
0.00247324
0.00247326
0.00250349
0.0024712
0.00250109
0.00247323
0.00247325
0.00247125
0.00246652
0.00243549
0.00246414
0.00246415
0.00243737
0.00243738
0.00246655
0.00243549
0.00246413
0.00246412
0.00243737
0.00243734
0.00246418
0.00243738
0.00243737
0.00246651
0.00243545
0.00246416
0.00243733
0.00243737
0.00243548
0.00243095
0.00240041
0.00242857
0.00242857
0.00240229
0.00240229
0.00243095
0.00240041
0.00242856
0.00242854
0.00240229
0.00240229
0.00242856
0.00240228
0.00240227
0.00243092
0.00240042
0.00242855
0.00240229
0.00240228
0.0024004
0.00239585
0.00236492
0.00239351
0.00239352
0.00236689
0.00236689
0.00239585
0.00236492
0.00239351
0.00239353
0.00236689
0.0023669
0.0023935
0.00236689
0.00236689
0.00239587
0.00236493
0.00239351
0.0023669
0.0023669
0.00236493
0.00236022
0.0023283
0.00235787
0.00235788
0.0023304
0.0023304
0.00236022
0.0023283
0.00235787
0.00235788
0.0023304
0.0023304
0.00235788
0.0023304
0.0023304
0.00236023
0.0023283
0.00235788
0.0023304
0.0023304
0.0023283
0.00232345
0.00229096
0.00232113
0.00232113
0.00229318
0.00229318
0.00232345
0.00229096
0.00232113
0.00232114
0.00229318
0.00229318
0.00232113
0.00229317
0.00229318
0.00232346
0.00229097
0.00232114
0.00229318
0.00229318
0.00229096
0.00228606
0.00225358
0.00228383
0.00228383
0.00225585
0.00225585
0.00228606
0.00225358
0.00228383
0.00228384
0.00225585
0.00225585
0.00228383
0.00225585
0.00225585
0.00228606
0.00225358
0.00228383
0.00225585
0.00225585
0.00225358
0.00224869
0.0022166
0.00224655
0.00224655
0.00221885
0.00221885
0.00224869
0.0022166
0.00224655
0.00224655
0.00221885
0.00221885
0.00224655
0.00221885
0.00221885
0.00224869
0.0022166
0.00224655
0.00221885
0.00221885
0.0022166
0.00221177
0.00218018
0.00220969
0.00220969
0.00218238
0.00218238
0.00221177
0.00218018
0.00220969
0.00220969
0.00218238
0.00218238
0.00220969
0.00218238
0.00218238
0.00221177
0.00218018
0.00220969
0.00218238
0.00218238
0.00218018
0.00217539
0.00214417
0.00217332
0.00217332
0.00214631
0.00214631
0.00217539
0.00214417
0.00217332
0.00217332
0.00214631
0.00214631
0.00217332
0.00214631
0.00214631
0.00217539
0.00214417
0.00217332
0.00214631
0.00214631
0.00214417
0.00213942
0.00210843
0.00213735
0.00213735
0.00211054
0.00211054
0.00213942
0.00210843
0.00213735
0.00213735
0.00211054
0.00211054
0.00213735
0.00211054
0.00211054
0.00213942
0.00210843
0.00213735
0.00211054
0.00211054
0.00210843
0.0021037
0.00207276
0.00210161
0.00210161
0.00207486
0.00207486
0.0021037
0.00207276
0.00210161
0.00210161
0.00207486
0.00207486
0.00210161
0.00207486
0.00207486
0.0021037
0.00207276
0.00210161
0.00207486
0.00207486
0.00207276
0.00206803
0.0020371
0.00206594
0.00206594
0.00203919
0.00203919
0.00206803
0.0020371
0.00206594
0.00206594
0.00203919
0.00203919
0.00206594
0.00203919
0.00203919
0.00206803
0.0020371
0.00206594
0.00203919
0.00203919
0.0020371
0.00203237
0.00200143
0.00203028
0.00203028
0.00200352
0.00200352
0.00203237
0.00200143
0.00203028
0.00203028
0.00200352
0.00200352
0.00203028
0.00200352
0.00200352
0.00203237
0.00200143
0.00203028
0.00200352
0.00200352
0.00200143
0.0019967
0.00196576
0.0019946
0.0019946
0.00196785
0.00196785
0.0019967
0.00196576
0.0019946
0.0019946
0.00196785
0.00196785
0.0019946
0.00196785
0.00196785
0.0019967
0.00196576
0.0019946
0.00196785
0.00196785
0.00196576
0.00196103
0.00193009
0.00195893
0.00195893
0.00193218
0.00193218
0.00196103
0.00193009
0.00195893
0.00195893
0.00193218
0.00193218
0.00195893
0.00193218
0.00193218
0.00196103
0.00193009
0.00195893
0.00193218
0.00193218
0.00193009
0.00192536
0.00189442
0.00192326
0.00192326
0.00189651
0.00189651
0.00192536
0.00189442
0.00192326
0.00192326
0.00189651
0.00189651
0.00192326
0.00189651
0.00189651
0.00192536
0.00189442
0.00192326
0.00189651
0.00189651
0.00189442
0.00188969
0.00185875
0.00188759
0.00188759
0.00186084
0.00186084
0.00188969
0.00185875
0.00188759
0.00188759
0.00186084
0.00186084
0.00188759
0.00186084
0.00186084
0.00188969
0.00185875
0.00188759
0.00186084
0.00186084
0.00185875
0.00185402
0.00182308
0.00185192
0.00185192
0.00182517
0.00182517
0.00185402
0.00182308
0.00185192
0.00185192
0.00182517
0.00182517
0.00185192
0.00182517
0.00182517
0.00185402
0.00182308
0.00185192
0.00182517
0.00182517
0.00182308
0.00181835
0.00178742
0.00181626
0.00181626
0.00178951
0.00178951
0.00181835
0.00178742
0.00181626
0.00181626
0.00178951
0.00178951
0.00181626
0.00178951
0.00178951
0.00181835
0.00178742
0.00181626
0.00178951
0.00178951
0.00178742
0.00178269
0.00175175
0.00178059
0.00178059
0.00175384
0.00175384
0.00178269
0.00175175
0.00178059
0.00178059
0.00175384
0.00175384
0.00178059
0.00175384
0.00175384
0.00178269
0.00175175
0.00178059
0.00175384
0.00175384
0.00175175
0.00174702
0.00171608
0.00174492
0.00174492
0.00171817
0.00171817
0.00174702
0.00171608
0.00174492
0.00174492
0.00171817
0.00171817
0.00174492
0.00171817
0.00171817
0.00174702
0.00171608
0.00174492
0.00171817
0.00171817
0.00171608
0.00171135
0.00168041
0.00170925
0.00170925
0.0016825
0.0016825
0.00171135
0.00168041
0.00170925
0.00170925
0.0016825
0.0016825
0.00170925
0.0016825
0.0016825
0.00171135
0.00168041
0.00170925
0.0016825
0.0016825
0.00168041
0.00167568
0.00164474
0.00167358
0.00167358
0.00164683
0.00164683
0.00167568
0.00164474
0.00167358
0.00167358
0.00164683
0.00164683
0.00167358
0.00164683
0.00164683
0.00167568
0.00164474
0.00167358
0.00164683
0.00164683
0.00164474
0.00164001
0.00160907
0.00163791
0.00163791
0.00161116
0.00161116
0.00164001
0.00160907
0.00163791
0.00163791
0.00161116
0.00161116
0.00163791
0.00161116
0.00161116
0.00164001
0.00160907
0.00163791
0.00161116
0.00161116
0.00160907
0.00160434
0.0015734
0.00160224
0.00160224
0.00157549
0.00157549
0.00160434
0.0015734
0.00160224
0.00160224
0.00157549
0.00157549
0.00160224
0.00157549
0.00157549
0.00160434
0.0015734
0.00160224
0.00157549
0.00157549
0.00157339
0.00156866
0.00153772
0.00156657
0.00156657
0.00153981
0.00153981
0.00156866
0.00153772
0.00156657
0.00156657
0.00153981
0.00153981
0.00156657
0.00153981
0.00153981
0.00156867
0.00153772
0.00156657
0.00153981
0.00153981
0.00153772
0.00153299
0.00150205
0.0015309
0.0015309
0.00150414
0.00150414
0.00153299
0.00150205
0.0015309
0.0015309
0.00150414
0.00150414
0.0015309
0.00150414
0.00150414
0.00153299
0.00150205
0.0015309
0.00150414
0.00150414
0.00150205
0.00149732
0.00146637
0.00149522
0.00149522
0.00146847
0.00146847
0.00149731
0.00146637
0.00149522
0.00149522
0.00146847
0.00146847
0.00149522
0.00146847
0.00146847
0.00149732
0.00146637
0.00149522
0.00146847
0.00146847
0.00146637
0.00146164
0.0014307
0.00145955
0.00145955
0.00143279
0.00143279
0.00146164
0.0014307
0.00145955
0.00145955
0.00143279
0.00143279
0.00145955
0.00143279
0.00143279
0.00146164
0.0014307
0.00145955
0.00143279
0.00143279
0.0014307
0.00142597
0.00139502
0.00142387
0.00142387
0.00139712
0.00139712
0.00142597
0.00139502
0.00142387
0.00142387
0.00139712
0.00139712
0.00142387
0.00139712
0.00139712
0.00142597
0.00139502
0.00142387
0.00139712
0.00139712
0.00139503
0.00139029
0.00135935
0.0013882
0.0013882
0.00136144
0.00136144
0.00139029
0.00135935
0.0013882
0.0013882
0.00136144
0.00136144
0.0013882
0.00136144
0.00136144
0.00139029
0.00135935
0.0013882
0.00136144
0.00136144
0.00135935
0.00135462
0.00132368
0.00135253
0.00135253
0.00132577
0.00132577
0.00135462
0.00132368
0.00135253
0.00135253
0.00132577
0.00132577
0.00135252
0.00132577
0.00132577
0.00135462
0.00132368
0.00135252
0.00132577
0.00132577
0.00132368
0.00131895
0.00128801
0.00131685
0.00131685
0.0012901
0.0012901
0.00131895
0.00128801
0.00131685
0.00131685
0.0012901
0.0012901
0.00131685
0.0012901
0.0012901
0.00131895
0.00128801
0.00131685
0.0012901
0.0012901
0.00128801
0.00128327
0.00125234
0.00128118
0.00128118
0.00125443
0.00125443
0.00128328
0.00125234
0.00128118
0.00128118
0.00125443
0.00125443
0.00128118
0.00125443
0.00125443
0.00128328
0.00125234
0.00128118
0.00125443
0.00125443
0.00125233
0.00124761
0.00121667
0.00124551
0.00124551
0.00121876
0.00121876
0.0012476
0.00121666
0.00124551
0.00124551
0.00121876
0.00121876
0.00124551
0.00121876
0.00121876
0.0012476
0.00121666
0.00124551
0.00121876
0.00121876
0.00121667
0.00121194
0.001181
0.00120984
0.00120984
0.00118309
0.00118309
0.00121193
0.001181
0.00120984
0.00120984
0.00118309
0.00118309
0.00120984
0.00118309
0.00118309
0.00121193
0.001181
0.00120984
0.00118309
0.00118309
0.001181
0.00117627
0.00114533
0.00117417
0.00117417
0.00114742
0.00114742
0.00117626
0.00114533
0.00117417
0.00117417
0.00114742
0.00114742
0.00117417
0.00114742
0.00114742
0.00117627
0.00114533
0.00117417
0.00114742
0.00114742
0.00114533
0.0011406
0.00110966
0.0011385
0.0011385
0.00111175
0.00111175
0.0011406
0.00110966
0.0011385
0.0011385
0.00111175
0.00111175
0.0011385
0.00111175
0.00111175
0.0011406
0.00110966
0.0011385
0.00111175
0.00111175
0.00110966
0.00110493
0.00107399
0.00110284
0.00110284
0.00107609
0.00107608
0.00110493
0.00107399
0.00110284
0.00110284
0.00107609
0.00107609
0.00110284
0.00107609
0.00107609
0.00110493
0.00107399
0.00110284
0.00107608
0.00107608
0.00107399
0.00106926
0.00103833
0.00106717
0.00106717
0.00104042
0.00104042
0.00106926
0.00103833
0.00106717
0.00106717
0.00104042
0.00104042
0.00106717
0.00104042
0.00104042
0.00106926
0.00103833
0.00106717
0.00104042
0.00104042
0.00103833
0.0010336
0.00100266
0.0010315
0.0010315
0.00100475
0.00100475
0.0010336
0.00100266
0.0010315
0.0010315
0.00100475
0.00100475
0.0010315
0.00100475
0.00100475
0.0010336
0.00100266
0.0010315
0.00100475
0.00100475
0.00100266
0.000997929
0.000966991
0.000995833
0.000995833
0.000969083
0.000969082
0.000997929
0.000966991
0.000995833
0.000995833
0.000969083
0.000969083
0.000995834
0.000969083
0.000969084
0.000997929
0.000966991
0.000995834
0.000969082
0.000969084
0.000966992
0.000962261
0.000931323
0.000960165
0.000960165
0.000933415
0.000933414
0.000962261
0.000931323
0.000960165
0.000960165
0.000933415
0.000933414
0.000960166
0.000933414
0.000933415
0.000962261
0.000931323
0.000960166
0.000933415
0.000933415
0.000931324
0.000926593
0.000895654
0.000924497
0.000924497
0.000897746
0.000897746
0.000926593
0.000895654
0.000924497
0.000924497
0.000897747
0.000897746
0.000924498
0.000897745
0.000897746
0.000926593
0.000895654
0.000924498
0.000897746
0.000897746
0.000895655
0.000890924
0.000859985
0.000888828
0.000888828
0.000862077
0.000862077
0.000890924
0.000859985
0.000888828
0.000888829
0.000862078
0.000862077
0.000888829
0.000862077
0.000862078
0.000890924
0.000859985
0.000888829
0.000862077
0.000862078
0.000859987
0.000855254
0.000824315
0.000853159
0.000853159
0.000826407
0.000826407
0.000855255
0.000824316
0.000853159
0.00085316
0.000826408
0.000826408
0.00085316
0.000826407
0.000826408
0.000855255
0.000824315
0.000853161
0.000826408
0.000826408
0.000824317
0.000819585
0.000788645
0.000817489
0.000817489
0.000790738
0.000790737
0.000819585
0.000788645
0.000817489
0.00081749
0.000790737
0.000790737
0.000817491
0.000790737
0.000790738
0.000819585
0.000788645
0.00081749
0.000790737
0.000790738
0.000788646
0.000783915
0.000752975
0.000781819
0.000781819
0.000755067
0.000755067
0.000783914
0.000752975
0.000781819
0.000781819
0.000755067
0.000755067
0.00078182
0.000755066
0.000755067
0.000783915
0.000752975
0.00078182
0.000755066
0.000755067
0.000752976
0.000748244
0.000717304
0.000746149
0.000746148
0.000719397
0.000719397
0.000748244
0.000717304
0.000746149
0.000746149
0.000719396
0.000719396
0.00074615
0.000719396
0.000719397
0.000748245
0.000717305
0.00074615
0.000719396
0.000719397
0.000717305
0.000712574
0.000681634
0.000710478
0.000710478
0.000683726
0.000683726
0.000712574
0.000681634
0.000710478
0.000710479
0.000683726
0.000683726
0.000710479
0.000683726
0.000683726
0.000712574
0.000681634
0.000710479
0.000683726
0.000683727
0.000681635
0.000676904
0.000645964
0.000674808
0.000674808
0.000648056
0.000648056
0.000676904
0.000645965
0.000674808
0.000674808
0.000648056
0.000648056
0.000674809
0.000648056
0.000648057
0.000676904
0.000645965
0.000674809
0.000648056
0.000648058
0.000645965
0.000641234
0.000610296
0.000639139
0.000639139
0.000612388
0.000612387
0.000641234
0.000610296
0.000639138
0.000639139
0.000612388
0.000612388
0.00063914
0.000612387
0.000612388
0.000641234
0.000610296
0.00063914
0.000612387
0.000612389
0.000610297
0.000605565
0.000574627
0.00060347
0.00060347
0.00057672
0.000576719
0.000605565
0.000574628
0.00060347
0.00060347
0.00057672
0.00057672
0.000603471
0.000576719
0.00057672
0.000605565
0.000574627
0.000603472
0.000576719
0.00057672
0.000574628
0.000569897
0.00053896
0.000567802
0.000567802
0.000541052
0.000541052
0.000569897
0.00053896
0.000567802
0.000567802
0.000541052
0.000541052
0.000567803
0.000541051
0.000541052
0.000569897
0.00053896
0.000567803
0.000541052
0.000541052
0.000538961
0.00053423
0.000503293
0.000532135
0.000532135
0.000505385
0.000505385
0.000534229
0.000503294
0.000532135
0.000532135
0.000505385
0.000505385
0.000532136
0.000505385
0.000505386
0.00053423
0.000503294
0.000532135
0.000505385
0.000505386
0.000503294
0.000498563
0.000467628
0.000496469
0.000496468
0.000469719
0.000469719
0.000498563
0.000467628
0.000496469
0.000496469
0.00046972
0.000469719
0.000496469
0.000469719
0.00046972
0.000498563
0.000467628
0.000496469
0.000469719
0.00046972
0.000467629
0.000462897
0.000431964
0.000460803
0.000460803
0.000434055
0.000434055
0.000462897
0.000431963
0.000460803
0.000460803
0.000434055
0.000434055
0.000460804
0.000434054
0.000434055
0.000462898
0.000431964
0.000460804
0.000434054
0.000434055
0.000431964
0.000427233
0.0003963
0.000425139
0.000425139
0.000398392
0.000398392
0.000427233
0.0003963
0.000425139
0.000425139
0.00039839
0.00039839
0.00042514
0.00039839
0.000398392
0.000427233
0.000396301
0.00042514
0.000398391
0.000398392
0.000396301
0.00039157
0.000360638
0.000389477
0.000389476
0.000362729
0.000362728
0.000391569
0.000360638
0.000389476
0.000389476
0.000362728
0.000362728
0.000389477
0.000362729
0.00036273
0.00039157
0.000360638
0.000389477
0.000362728
0.000362729
0.000360639
0.000355907
0.000324977
0.000353814
0.000353814
0.000327067
0.000327067
0.000355907
0.000324977
0.000353814
0.000353814
0.000327068
0.000327068
0.000353816
0.000327068
0.000327068
0.000355907
0.000324977
0.000353815
0.000327067
0.000327067
0.000324978
0.000320244
0.000289318
0.000318153
0.000318153
0.000291407
0.000291407
0.000320245
0.000289317
0.000318153
0.000318153
0.000291407
0.000291407
0.000318156
0.000291406
0.000291407
0.000320244
0.000289318
0.000318154
0.000291407
0.000291408
0.000289318
0.000284583
0.000253659
0.000282494
0.000282493
0.000255747
0.000255747
0.000284583
0.000253659
0.000282494
0.000282494
0.000255746
0.000255746
0.000282495
0.000255746
0.000255746
0.000284583
0.000253659
0.000282495
0.000255746
0.000255747
0.000253659
0.000248922
0.000218001
0.000246836
0.000246835
0.000220086
0.000220086
0.000248921
0.000218001
0.000246835
0.000246835
0.000220086
0.000220085
0.000246835
0.000220086
0.000220086
0.000248922
0.000218001
0.000246836
0.000220085
0.000220086
0.000218002
0.000213258
0.000182344
0.000211177
0.000211176
0.000184425
0.000184426
0.000213258
0.000182344
0.000211175
0.000211176
0.000184426
0.000184425
0.000211176
0.000184425
0.000184426
0.000213258
0.000182343
0.000211176
0.000184425
0.000184426
0.000182344
0.000177591
0.000146686
0.000175517
0.000175517
0.000148762
0.000148762
0.000177591
0.000146686
0.000175516
0.000175516
0.000148763
0.000148763
0.000175517
0.000148762
0.000148763
0.000177591
0.000146685
0.000175517
0.000148762
0.000148763
0.000146687
0.000141917
0.000111024
0.000139855
0.000139855
0.000113094
0.000113094
0.000141917
0.000111024
0.000139855
0.000139855
0.000113095
0.000113094
0.000139856
0.000113094
0.000113094
0.000141917
0.000111023
0.000139856
0.000113093
0.000113094
0.000111024
0.000106231
7.53519e-05
0.000104187
0.000104188
7.74124e-05
7.74123e-05
0.00010623
7.53526e-05
0.000104188
0.000104187
7.74129e-05
7.7412e-05
0.000104188
7.74129e-05
7.74121e-05
0.00010623
7.53513e-05
0.000104188
7.74119e-05
7.74124e-05
7.53513e-05
7.05273e-05
3.98237e-05
6.85111e-05
6.85108e-05
4.19245e-05
4.19256e-05
7.0527e-05
3.98247e-05
6.85109e-05
6.85097e-05
4.19238e-05
4.19216e-05
6.85106e-05
4.19246e-05
4.19213e-05
7.05266e-05
3.98212e-05
6.85104e-05
4.19215e-05
4.19209e-05
3.98209e-05
3.50614e-05
7.06296e-06
3.33606e-05
3.33616e-05
9.73745e-06
9.73669e-06
3.50617e-05
7.06255e-06
3.33607e-05
3.33579e-05
9.73643e-06
9.73248e-06
3.33573e-05
9.73505e-06
9.73109e-06
3.50586e-05
7.05943e-06
3.33576e-05
9.73377e-06
9.7336e-06
7.05851e-06
3.78847e-06
3.82201e-06
3.8182e-06
3.78903e-06
3.81328e-06
3.81332e-06
4.5371e-06
4.53585e-06
4.53555e-06
3.81592e-06
3.78652e-06
3.81359e-06
0.00353303
0.00353661
0.00353509
0.00353508
0.00355845
0.0035377
0.00356502
0.00353655
0.00355846
0.00353771
0.00353655
0.00356494
0.00354698
0.00356821
0.00356819
0.00350385
0.00351824
0.00352184
0.00349598
0.00349503
0.00349939
0.00350359
0.00351821
0.00352185
0.00349597
0.00352023
0.00352024
0.00352024
0.00349268
0.0034927
0.00349264
0.0034927
0.0035034
0.00351624
0.00352081
0.0035109
0.00352308
0.00350046
0.00351125
0.00349526
0.00349935
0.00350343
0.00352083
0.00351634
0.00351087
0.00352314
0.00351125
0.00350053
0.00352199
0.00352212
0.00350793
0.0035004
0.00350034
0.00347685
0.0034904
0.00349021
0.00347499
0.0034877
0.0034741
0.00347671
0.00349063
0.00349017
0.00347497
0.00348383
0.00348378
0.00348381
0.00345695
0.00345695
0.00345694
0.00345696
0.00347441
0.00348924
0.00348273
0.00347402
0.0034877
0.00347517
0.00347395
0.00348774
0.00347408
0.00347441
0.00348277
0.00348935
0.00347394
0.00348772
0.00347394
0.00347519
0.00349093
0.00349078
0.00347279
0.00347581
0.00347583
0.00343473
0.00344965
0.00345054
0.00343363
0.00344846
0.00343271
0.00343475
0.00344974
0.00345056
0.00343362
0.00344704
0.00344704
0.00344703
0.00341398
0.00341397
0.00341397
0.00341398
0.00343342
0.00344929
0.00344555
0.00343529
0.00344843
0.00343398
0.00343509
0.00344844
0.00343278
0.00343343
0.00344557
0.00344932
0.00343523
0.00344842
0.00343507
0.00343403
0.00344988
0.00344986
0.00343244
0.00343396
0.00343393
0.00338801
0.0034048
0.00340629
0.00338674
0.00340413
0.00338622
0.00338803
0.00340479
0.00340622
0.00338674
0.0034022
0.00340219
0.00340218
0.00336611
0.00336611
0.0033661
0.00336611
0.00338695
0.00340468
0.00340096
0.00338912
0.00340428
0.00338734
0.003389
0.00340412
0.00338618
0.00338697
0.00340097
0.00340471
0.00338907
0.00340426
0.00338897
0.00338732
0.00340497
0.00340498
0.00338601
0.00338688
0.00338688
0.00333929
0.00335631
0.00335762
0.00333819
0.00335595
0.00333784
0.00333936
0.00335633
0.00335757
0.00333819
0.00335405
0.00335404
0.00335404
0.00331794
0.00331793
0.00331793
0.00331792
0.00333858
0.00335641
0.00335283
0.00334081
0.00335614
0.00333881
0.00334084
0.00335594
0.00333786
0.00333859
0.00335286
0.00335642
0.00334085
0.00335615
0.00334083
0.00333881
0.00335639
0.0033564
0.00333778
0.00333825
0.00333825
0.00329066
0.00330795
0.00330892
0.00328992
0.00330767
0.00328965
0.00329083
0.00330796
0.00330881
0.00328994
0.0033059
0.0033059
0.0033059
0.00326987
0.00326987
0.00326987
0.00326986
0.00329039
0.003308