/*--------------------------------*- C++ -*----------------------------------*\
| =========                 |                                                 |
| \\      /  F ield         | OpenFOAM: The Open Source CFD Toolbox           |
|  \\    /   O peration     | Version:  v2012                                 |
|   \\  /    A nd           | Website:  www.openfoam.com                      |
|    \\/     M anipulation  |                                                 |
\*---------------------------------------------------------------------------*/
FoamFile
{
    version     2.0;
    format      ascii;
    class       volScalarField;
    location    "100.5";
    object      p;
}
// * * * * * * * * * * * * * * * * * * * * * * * * * * * * * * * * * * * * * //

dimensions      [0 2 -2 0 0 0 0];


internalField   nonuniform List<scalar> 
247104
(
8.64492e-07
8.64454e-07
8.64457e-07
8.64429e-07
8.64409e-07
8.64433e-07
8.64457e-07
8.64445e-07
8.64454e-07
8.64438e-07
8.64295e-07
8.64156e-07
8.64106e-07
8.64169e-07
8.64315e-07
8.64448e-07
8.64457e-07
8.64295e-07
8.64037e-07
8.63843e-07
8.63778e-07
8.63861e-07
8.64068e-07
8.64325e-07
8.64458e-07
8.64429e-07
8.64156e-07
8.63843e-07
8.63622e-07
8.6355e-07
8.63642e-07
8.63879e-07
8.64196e-07
8.64449e-07
8.64492e-07
8.64408e-07
8.64106e-07
8.63778e-07
8.6355e-07
8.63476e-07
8.63571e-07
8.63815e-07
8.64149e-07
8.64433e-07
8.64433e-07
8.64169e-07
8.63861e-07
8.63642e-07
8.63571e-07
8.63662e-07
8.63896e-07
8.64209e-07
8.64451e-07
8.64457e-07
8.64315e-07
8.64068e-07
8.63878e-07
8.63815e-07
8.63896e-07
8.64097e-07
8.64343e-07
8.64455e-07
8.64446e-07
8.64448e-07
8.64325e-07
8.64196e-07
8.64149e-07
8.64209e-07
8.64343e-07
8.64456e-07
8.64458e-07
8.64449e-07
8.64433e-07
8.64451e-07
8.64455e-07
8.52512e-07
8.52492e-07
8.52254e-07
8.51681e-07
8.51641e-07
8.51616e-07
8.5168e-07
8.52349e-07
8.52337e-07
8.52254e-07
8.51364e-07
8.50262e-07
8.50264e-07
8.50264e-07
8.50262e-07
8.51532e-07
8.51875e-07
8.5168e-07
8.50262e-07
8.50262e-07
8.50273e-07
8.50273e-07
8.50262e-07
8.50262e-07
8.51981e-07
8.52572e-07
8.52512e-07
8.51641e-07
8.50264e-07
8.50273e-07
8.50281e-07
8.50281e-07
8.50273e-07
8.50264e-07
8.52013e-07
8.52534e-07
8.52492e-07
8.51616e-07
8.50264e-07
8.50273e-07
8.50281e-07
8.50281e-07
8.50273e-07
8.50264e-07
8.51997e-07
8.52014e-07
8.51679e-07
8.50262e-07
8.50262e-07
8.50273e-07
8.50273e-07
8.50262e-07
8.50262e-07
8.52e-07
8.52647e-07
8.52349e-07
8.51532e-07
8.50262e-07
8.50264e-07
8.50264e-07
8.50262e-07
8.51822e-07
8.51962e-07
8.52517e-07
8.52337e-07
8.51875e-07
8.51981e-07
8.52013e-07
8.51997e-07
8.52e-07
8.51963e-07
8.52498e-07
8.52572e-07
8.52534e-07
8.52014e-07
8.52647e-07
8.52517e-07
8.43361e-07
8.43346e-07
8.43194e-07
8.42571e-07
8.42509e-07
8.42484e-07
8.42566e-07
8.43287e-07
8.43298e-07
8.43194e-07
8.42244e-07
8.41117e-07
8.4112e-07
8.4112e-07
8.41117e-07
8.42399e-07
8.42772e-07
8.42571e-07
8.41117e-07
8.41123e-07
8.41129e-07
8.41129e-07
8.41123e-07
8.41117e-07
8.42856e-07
8.4348e-07
8.43361e-07
8.42509e-07
8.4112e-07
8.41129e-07
8.41134e-07
8.41134e-07
8.41129e-07
8.4112e-07
8.42873e-07
8.43391e-07
8.43346e-07
8.42484e-07
8.4112e-07
8.41129e-07
8.41134e-07
8.41134e-07
8.41129e-07
8.4112e-07
8.4285e-07
8.42897e-07
8.42566e-07
8.41117e-07
8.41123e-07
8.41129e-07
8.41129e-07
8.41123e-07
8.41117e-07
8.4287e-07
8.43529e-07
8.43287e-07
8.42398e-07
8.41117e-07
8.4112e-07
8.4112e-07
8.41117e-07
8.42674e-07
8.42856e-07
8.43451e-07
8.43298e-07
8.42772e-07
8.42856e-07
8.42872e-07
8.4285e-07
8.4287e-07
8.42856e-07
8.43456e-07
8.4348e-07
8.43391e-07
8.42897e-07
8.43529e-07
8.43451e-07
8.34257e-07
8.34242e-07
8.34089e-07
8.33464e-07
8.33402e-07
8.33377e-07
8.3346e-07
8.34183e-07
8.34194e-07
8.34089e-07
8.33137e-07
8.32002e-07
8.32004e-07
8.32004e-07
8.32002e-07
8.3329e-07
8.33666e-07
8.33464e-07
8.32002e-07
8.32006e-07
8.32008e-07
8.32008e-07
8.32006e-07
8.32002e-07
8.33748e-07
8.34377e-07
8.34257e-07
8.33402e-07
8.32004e-07
8.32008e-07
8.3201e-07
8.3201e-07
8.32008e-07
8.32004e-07
8.33763e-07
8.34287e-07
8.34242e-07
8.33377e-07
8.32004e-07
8.32008e-07
8.3201e-07
8.3201e-07
8.32008e-07
8.32004e-07
8.3374e-07
8.33792e-07
8.3346e-07
8.32002e-07
8.32006e-07
8.32008e-07
8.32008e-07
8.32006e-07
8.32003e-07
8.33762e-07
8.34425e-07
8.34183e-07
8.3329e-07
8.32002e-07
8.32004e-07
8.32004e-07
8.32002e-07
8.33564e-07
8.3375e-07
8.34347e-07
8.34194e-07
8.33666e-07
8.33748e-07
8.33763e-07
8.3374e-07
8.33762e-07
8.3375e-07
8.34353e-07
8.34377e-07
8.34287e-07
8.33792e-07
8.34425e-07
8.34347e-07
8.25146e-07
8.2513e-07
8.24978e-07
8.24352e-07
8.2429e-07
8.24265e-07
8.24349e-07
8.25072e-07
8.25083e-07
8.24978e-07
8.24026e-07
8.22889e-07
8.2289e-07
8.2289e-07
8.22889e-07
8.24178e-07
8.24555e-07
8.24352e-07
8.2289e-07
8.22892e-07
8.22893e-07
8.22893e-07
8.22892e-07
8.2289e-07
8.24636e-07
8.25265e-07
8.25146e-07
8.2429e-07
8.2289e-07
8.22893e-07
8.22893e-07
8.22893e-07
8.22893e-07
8.2289e-07
8.2465e-07
8.25176e-07
8.2513e-07
8.24265e-07
8.2289e-07
8.22893e-07
8.22893e-07
8.22893e-07
8.22893e-07
8.2289e-07
8.24627e-07
8.2468e-07
8.24349e-07
8.2289e-07
8.22892e-07
8.22893e-07
8.22893e-07
8.22892e-07
8.2289e-07
8.2465e-07
8.25314e-07
8.25072e-07
8.24178e-07
8.2289e-07
8.2289e-07
8.2289e-07
8.2289e-07
8.24452e-07
8.24638e-07
8.25236e-07
8.25083e-07
8.24555e-07
8.24636e-07
8.2465e-07
8.24627e-07
8.2465e-07
8.24638e-07
8.25242e-07
8.25265e-07
8.25176e-07
8.2468e-07
8.25314e-07
8.25236e-07
8.16034e-07
8.16019e-07
8.15866e-07
8.1524e-07
8.15178e-07
8.15153e-07
8.15236e-07
8.1596e-07
8.15971e-07
8.15866e-07
8.14914e-07
8.13777e-07
8.13778e-07
8.13778e-07
8.13777e-07
8.15066e-07
8.15443e-07
8.1524e-07
8.13777e-07
8.13779e-07
8.13779e-07
8.13779e-07
8.13779e-07
8.13777e-07
8.15524e-07
8.16154e-07
8.16034e-07
8.15178e-07
8.13778e-07
8.13779e-07
8.13779e-07
8.13779e-07
8.13779e-07
8.13778e-07
8.15538e-07
8.16064e-07
8.16019e-07
8.15153e-07
8.13778e-07
8.13779e-07
8.13779e-07
8.13779e-07
8.13779e-07
8.13778e-07
8.15515e-07
8.15568e-07
8.15236e-07
8.13777e-07
8.13779e-07
8.13779e-07
8.13779e-07
8.13779e-07
8.13777e-07
8.15538e-07
8.16202e-07
8.1596e-07
8.15066e-07
8.13777e-07
8.13778e-07
8.13778e-07
8.13777e-07
8.1534e-07
8.15526e-07
8.16124e-07
8.15971e-07
8.15443e-07
8.15524e-07
8.15538e-07
8.15515e-07
8.15538e-07
8.15527e-07
8.1613e-07
8.16154e-07
8.16064e-07
8.15568e-07
8.16203e-07
8.16124e-07
8.06922e-07
8.06906e-07
8.06753e-07
8.06128e-07
8.06066e-07
8.06041e-07
8.06124e-07
8.06848e-07
8.06859e-07
8.06754e-07
8.05802e-07
8.04665e-07
8.04665e-07
8.04665e-07
8.04665e-07
8.05954e-07
8.06331e-07
8.06128e-07
8.04665e-07
8.04667e-07
8.04666e-07
8.04666e-07
8.04667e-07
8.04665e-07
8.06412e-07
8.07041e-07
8.06922e-07
8.06066e-07
8.04665e-07
8.04666e-07
8.04666e-07
8.04666e-07
8.04666e-07
8.04665e-07
8.06426e-07
8.06952e-07
8.06906e-07
8.06041e-07
8.04665e-07
8.04666e-07
8.04666e-07
8.04666e-07
8.04666e-07
8.04665e-07
8.06403e-07
8.06456e-07
8.06124e-07
8.04665e-07
8.04667e-07
8.04666e-07
8.04666e-07
8.04667e-07
8.04665e-07
8.06425e-07
8.0709e-07
8.06848e-07
8.05954e-07
8.04665e-07
8.04665e-07
8.04665e-07
8.04665e-07
8.06228e-07
8.06414e-07
8.07012e-07
8.06859e-07
8.06331e-07
8.06412e-07
8.06426e-07
8.06403e-07
8.06426e-07
8.06414e-07
8.07018e-07
8.07042e-07
8.06952e-07
8.06456e-07
8.0709e-07
8.07012e-07
7.9781e-07
7.97794e-07
7.97641e-07
7.97016e-07
7.96954e-07
7.96929e-07
7.97012e-07
7.97736e-07
7.97747e-07
7.97642e-07
7.9669e-07
7.95553e-07
7.95553e-07
7.95553e-07
7.95553e-07
7.96842e-07
7.97219e-07
7.97016e-07
7.95553e-07
7.95555e-07
7.95554e-07
7.95554e-07
7.95555e-07
7.95553e-07
7.973e-07
7.9793e-07
7.9781e-07
7.96954e-07
7.95553e-07
7.95554e-07
7.95554e-07
7.95554e-07
7.95554e-07
7.95553e-07
7.97314e-07
7.9784e-07
7.97794e-07
7.96929e-07
7.95553e-07
7.95554e-07
7.95554e-07
7.95554e-07
7.95554e-07
7.95553e-07
7.97291e-07
7.97344e-07
7.97012e-07
7.95553e-07
7.95555e-07
7.95554e-07
7.95554e-07
7.95555e-07
7.95553e-07
7.97313e-07
7.97978e-07
7.97736e-07
7.96842e-07
7.95553e-07
7.95553e-07
7.95553e-07
7.95553e-07
7.97116e-07
7.97302e-07
7.979e-07
7.97747e-07
7.97219e-07
7.973e-07
7.97314e-07
7.97291e-07
7.97314e-07
7.97303e-07
7.97906e-07
7.97929e-07
7.9784e-07
7.97344e-07
7.97978e-07
7.979e-07
7.88698e-07
7.88682e-07
7.88529e-07
7.87904e-07
7.87842e-07
7.87817e-07
7.879e-07
7.88624e-07
7.88635e-07
7.88529e-07
7.87577e-07
7.86441e-07
7.86441e-07
7.86441e-07
7.86441e-07
7.8773e-07
7.88107e-07
7.87904e-07
7.86441e-07
7.86442e-07
7.86442e-07
7.86442e-07
7.86443e-07
7.86441e-07
7.88188e-07
7.88817e-07
7.88698e-07
7.87842e-07
7.86441e-07
7.86442e-07
7.86441e-07
7.86441e-07
7.86442e-07
7.86441e-07
7.88202e-07
7.88728e-07
7.88682e-07
7.87817e-07
7.86441e-07
7.86442e-07
7.86441e-07
7.86441e-07
7.86442e-07
7.86441e-07
7.88179e-07
7.88232e-07
7.879e-07
7.86441e-07
7.86443e-07
7.86442e-07
7.86442e-07
7.86443e-07
7.86441e-07
7.88201e-07
7.88866e-07
7.88624e-07
7.8773e-07
7.86441e-07
7.86441e-07
7.86441e-07
7.86441e-07
7.88004e-07
7.8819e-07
7.88788e-07
7.88635e-07
7.88107e-07
7.88188e-07
7.88202e-07
7.88179e-07
7.88201e-07
7.8819e-07
7.88794e-07
7.88817e-07
7.88728e-07
7.88232e-07
7.88866e-07
7.88788e-07
7.79586e-07
7.7957e-07
7.79417e-07
7.78792e-07
7.7873e-07
7.78705e-07
7.78788e-07
7.79512e-07
7.79523e-07
7.79417e-07
7.78465e-07
7.77329e-07
7.77329e-07
7.77329e-07
7.77329e-07
7.78618e-07
7.78995e-07
7.78792e-07
7.77328e-07
7.7733e-07
7.7733e-07
7.7733e-07
7.7733e-07
7.77329e-07
7.79076e-07
7.79705e-07
7.79586e-07
7.7873e-07
7.77329e-07
7.7733e-07
7.77329e-07
7.77329e-07
7.7733e-07
7.77329e-07
7.7909e-07
7.79616e-07
7.7957e-07
7.78705e-07
7.77329e-07
7.7733e-07
7.77329e-07
7.77329e-07
7.7733e-07
7.77329e-07
7.79067e-07
7.7912e-07
7.78788e-07
7.77329e-07
7.7733e-07
7.7733e-07
7.7733e-07
7.7733e-07
7.77329e-07
7.79089e-07
7.79754e-07
7.79512e-07
7.78618e-07
7.77329e-07
7.77329e-07
7.77329e-07
7.77329e-07
7.78892e-07
7.79078e-07
7.79676e-07
7.79523e-07
7.78995e-07
7.79076e-07
7.7909e-07
7.79067e-07
7.79089e-07
7.79078e-07
7.79682e-07
7.79705e-07
7.79616e-07
7.7912e-07
7.79754e-07
7.79676e-07
7.70474e-07
7.70458e-07
7.70305e-07
7.6968e-07
7.69618e-07
7.69593e-07
7.69676e-07
7.704e-07
7.70411e-07
7.70305e-07
7.69353e-07
7.68216e-07
7.68217e-07
7.68217e-07
7.68216e-07
7.69506e-07
7.69882e-07
7.6968e-07
7.68216e-07
7.68218e-07
7.68217e-07
7.68217e-07
7.68218e-07
7.68216e-07
7.69964e-07
7.70593e-07
7.70474e-07
7.69618e-07
7.68217e-07
7.68217e-07
7.68217e-07
7.68217e-07
7.68217e-07
7.68217e-07
7.69978e-07
7.70504e-07
7.70458e-07
7.69592e-07
7.68217e-07
7.68217e-07
7.68217e-07
7.68217e-07
7.68217e-07
7.68217e-07
7.69955e-07
7.70008e-07
7.69676e-07
7.68216e-07
7.68218e-07
7.68217e-07
7.68217e-07
7.68218e-07
7.68217e-07
7.69977e-07
7.70642e-07
7.704e-07
7.69506e-07
7.68216e-07
7.68217e-07
7.68217e-07
7.68217e-07
7.6978e-07
7.69966e-07
7.70564e-07
7.70411e-07
7.69882e-07
7.69964e-07
7.69978e-07
7.69955e-07
7.69977e-07
7.69966e-07
7.7057e-07
7.70593e-07
7.70504e-07
7.70008e-07
7.70642e-07
7.70564e-07
7.61361e-07
7.61346e-07
7.61193e-07
7.60568e-07
7.60506e-07
7.6048e-07
7.60564e-07
7.61287e-07
7.61299e-07
7.61193e-07
7.60241e-07
7.59104e-07
7.59105e-07
7.59105e-07
7.59104e-07
7.60394e-07
7.6077e-07
7.60568e-07
7.59104e-07
7.59106e-07
7.59105e-07
7.59105e-07
7.59106e-07
7.59104e-07
7.60852e-07
7.61481e-07
7.61361e-07
7.60506e-07
7.59105e-07
7.59105e-07
7.59105e-07
7.59105e-07
7.59105e-07
7.59105e-07
7.60866e-07
7.61392e-07
7.61346e-07
7.6048e-07
7.59105e-07
7.59105e-07
7.59105e-07
7.59105e-07
7.59105e-07
7.59105e-07
7.60843e-07
7.60896e-07
7.60564e-07
7.59104e-07
7.59106e-07
7.59105e-07
7.59105e-07
7.59106e-07
7.59104e-07
7.60865e-07
7.6153e-07
7.61287e-07
7.60394e-07
7.59104e-07
7.59105e-07
7.59105e-07
7.59104e-07
7.60668e-07
7.60854e-07
7.61452e-07
7.61299e-07
7.6077e-07
7.60852e-07
7.60866e-07
7.60843e-07
7.60865e-07
7.60854e-07
7.61458e-07
7.61481e-07
7.61392e-07
7.60896e-07
7.6153e-07
7.61452e-07
7.52249e-07
7.52234e-07
7.52081e-07
7.51456e-07
7.51394e-07
7.51368e-07
7.51452e-07
7.52175e-07
7.52187e-07
7.52081e-07
7.51129e-07
7.49992e-07
7.49993e-07
7.49993e-07
7.49992e-07
7.51282e-07
7.51658e-07
7.51456e-07
7.49992e-07
7.49994e-07
7.49993e-07
7.49993e-07
7.49994e-07
7.49992e-07
7.5174e-07
7.52369e-07
7.52249e-07
7.51394e-07
7.49993e-07
7.49993e-07
7.49993e-07
7.49993e-07
7.49993e-07
7.49993e-07
7.51754e-07
7.5228e-07
7.52234e-07
7.51368e-07
7.49993e-07
7.49993e-07
7.49993e-07
7.49993e-07
7.49993e-07
7.49993e-07
7.51731e-07
7.51784e-07
7.51452e-07
7.49992e-07
7.49994e-07
7.49993e-07
7.49993e-07
7.49994e-07
7.49992e-07
7.51753e-07
7.52418e-07
7.52175e-07
7.51282e-07
7.49992e-07
7.49993e-07
7.49993e-07
7.49992e-07
7.51555e-07
7.51742e-07
7.5234e-07
7.52187e-07
7.51658e-07
7.5174e-07
7.51754e-07
7.51731e-07
7.51753e-07
7.51742e-07
7.52346e-07
7.52369e-07
7.5228e-07
7.51784e-07
7.52418e-07
7.5234e-07
7.43137e-07
7.43122e-07
7.42969e-07
7.42344e-07
7.42282e-07
7.42256e-07
7.4234e-07
7.43063e-07
7.43075e-07
7.42969e-07
7.42017e-07
7.4088e-07
7.40881e-07
7.40881e-07
7.4088e-07
7.4217e-07
7.42546e-07
7.42344e-07
7.4088e-07
7.40882e-07
7.40881e-07
7.40881e-07
7.40882e-07
7.4088e-07
7.42628e-07
7.43257e-07
7.43137e-07
7.42282e-07
7.40881e-07
7.40881e-07
7.40881e-07
7.40881e-07
7.40881e-07
7.40881e-07
7.42642e-07
7.43168e-07
7.43122e-07
7.42256e-07
7.40881e-07
7.40881e-07
7.40881e-07
7.40881e-07
7.40881e-07
7.40881e-07
7.42619e-07
7.42672e-07
7.4234e-07
7.4088e-07
7.40882e-07
7.40881e-07
7.40881e-07
7.40882e-07
7.4088e-07
7.42641e-07
7.43306e-07
7.43063e-07
7.4217e-07
7.4088e-07
7.40881e-07
7.40881e-07
7.4088e-07
7.42443e-07
7.4263e-07
7.43228e-07
7.43075e-07
7.42546e-07
7.42628e-07
7.42642e-07
7.42619e-07
7.42641e-07
7.4263e-07
7.43234e-07
7.43257e-07
7.43168e-07
7.42672e-07
7.43306e-07
7.43228e-07
7.34025e-07
7.3401e-07
7.33857e-07
7.33232e-07
7.33169e-07
7.33144e-07
7.33228e-07
7.33951e-07
7.33963e-07
7.33857e-07
7.32905e-07
7.31768e-07
7.31769e-07
7.31769e-07
7.31768e-07
7.33057e-07
7.33434e-07
7.33232e-07
7.31768e-07
7.3177e-07
7.31769e-07
7.31769e-07
7.3177e-07
7.31768e-07
7.33516e-07
7.34145e-07
7.34025e-07
7.33169e-07
7.31769e-07
7.31769e-07
7.31769e-07
7.31769e-07
7.31769e-07
7.31769e-07
7.3353e-07
7.34056e-07
7.3401e-07
7.33144e-07
7.31769e-07
7.31769e-07
7.31769e-07
7.31769e-07
7.31769e-07
7.31769e-07
7.33507e-07
7.3356e-07
7.33228e-07
7.31768e-07
7.3177e-07
7.31769e-07
7.31769e-07
7.3177e-07
7.31768e-07
7.33529e-07
7.34194e-07
7.33951e-07
7.33057e-07
7.31768e-07
7.31769e-07
7.31769e-07
7.31768e-07
7.33331e-07
7.33518e-07
7.34116e-07
7.33963e-07
7.33434e-07
7.33516e-07
7.3353e-07
7.33506e-07
7.33529e-07
7.33518e-07
7.34122e-07
7.34145e-07
7.34056e-07
7.3356e-07
7.34194e-07
7.34116e-07
7.24913e-07
7.24898e-07
7.24745e-07
7.2412e-07
7.24057e-07
7.24032e-07
7.24116e-07
7.24839e-07
7.24851e-07
7.24745e-07
7.23793e-07
7.22656e-07
7.22656e-07
7.22656e-07
7.22656e-07
7.23945e-07
7.24322e-07
7.2412e-07
7.22656e-07
7.22658e-07
7.22657e-07
7.22657e-07
7.22658e-07
7.22656e-07
7.24404e-07
7.25033e-07
7.24913e-07
7.24057e-07
7.22656e-07
7.22657e-07
7.22657e-07
7.22657e-07
7.22657e-07
7.22657e-07
7.24418e-07
7.24944e-07
7.24898e-07
7.24032e-07
7.22656e-07
7.22657e-07
7.22657e-07
7.22657e-07
7.22657e-07
7.22657e-07
7.24394e-07
7.24448e-07
7.24116e-07
7.22656e-07
7.22658e-07
7.22657e-07
7.22657e-07
7.22658e-07
7.22656e-07
7.24417e-07
7.25082e-07
7.24839e-07
7.23945e-07
7.22656e-07
7.22657e-07
7.22657e-07
7.22656e-07
7.24219e-07
7.24406e-07
7.25004e-07
7.2485e-07
7.24322e-07
7.24404e-07
7.24417e-07
7.24394e-07
7.24417e-07
7.24406e-07
7.2501e-07
7.25033e-07
7.24943e-07
7.24448e-07
7.25082e-07
7.25004e-07
7.15801e-07
7.15786e-07
7.15633e-07
7.15008e-07
7.14945e-07
7.1492e-07
7.15004e-07
7.15727e-07
7.15738e-07
7.15633e-07
7.14681e-07
7.13544e-07
7.13544e-07
7.13544e-07
7.13544e-07
7.14833e-07
7.1521e-07
7.15007e-07
7.13544e-07
7.13546e-07
7.13545e-07
7.13545e-07
7.13546e-07
7.13544e-07
7.15292e-07
7.15921e-07
7.15801e-07
7.14945e-07
7.13544e-07
7.13545e-07
7.13545e-07
7.13545e-07
7.13545e-07
7.13544e-07
7.15305e-07
7.15831e-07
7.15786e-07
7.1492e-07
7.13544e-07
7.13545e-07
7.13545e-07
7.13545e-07
7.13545e-07
7.13544e-07
7.15282e-07
7.15336e-07
7.15004e-07
7.13544e-07
7.13546e-07
7.13545e-07
7.13545e-07
7.13546e-07
7.13544e-07
7.15305e-07
7.1597e-07
7.15727e-07
7.14833e-07
7.13544e-07
7.13544e-07
7.13544e-07
7.13544e-07
7.15107e-07
7.15294e-07
7.15892e-07
7.15738e-07
7.1521e-07
7.15292e-07
7.15305e-07
7.15282e-07
7.15305e-07
7.15294e-07
7.15898e-07
7.15921e-07
7.15831e-07
7.15336e-07
7.1597e-07
7.15892e-07
7.06689e-07
7.06674e-07
7.06521e-07
7.05895e-07
7.05833e-07
7.05808e-07
7.05892e-07
7.06615e-07
7.06626e-07
7.06521e-07
7.05569e-07
7.04432e-07
7.04432e-07
7.04432e-07
7.04432e-07
7.05721e-07
7.06098e-07
7.05895e-07
7.04432e-07
7.04434e-07
7.04433e-07
7.04433e-07
7.04434e-07
7.04432e-07
7.0618e-07
7.06809e-07
7.06689e-07
7.05833e-07
7.04432e-07
7.04433e-07
7.04433e-07
7.04433e-07
7.04433e-07
7.04432e-07
7.06193e-07
7.06719e-07
7.06674e-07
7.05808e-07
7.04432e-07
7.04433e-07
7.04433e-07
7.04433e-07
7.04433e-07
7.04432e-07
7.0617e-07
7.06224e-07
7.05892e-07
7.04432e-07
7.04434e-07
7.04433e-07
7.04433e-07
7.04434e-07
7.04432e-07
7.06193e-07
7.06858e-07
7.06615e-07
7.05721e-07
7.04432e-07
7.04432e-07
7.04432e-07
7.04432e-07
7.05995e-07
7.06182e-07
7.0678e-07
7.06626e-07
7.06098e-07
7.0618e-07
7.06193e-07
7.0617e-07
7.06193e-07
7.06182e-07
7.06786e-07
7.06809e-07
7.06719e-07
7.06224e-07
7.06858e-07
7.0678e-07
6.97577e-07
6.97562e-07
6.97409e-07
6.96783e-07
6.96721e-07
6.96696e-07
6.9678e-07
6.97503e-07
6.97514e-07
6.97409e-07
6.96457e-07
6.9532e-07
6.9532e-07
6.9532e-07
6.9532e-07
6.96609e-07
6.96986e-07
6.96783e-07
6.9532e-07
6.95322e-07
6.95321e-07
6.95321e-07
6.95322e-07
6.9532e-07
6.97068e-07
6.97697e-07
6.97577e-07
6.96721e-07
6.9532e-07
6.95321e-07
6.95321e-07
6.95321e-07
6.95321e-07
6.9532e-07
6.97081e-07
6.97607e-07
6.97562e-07
6.96696e-07
6.9532e-07
6.95321e-07
6.95321e-07
6.95321e-07
6.95321e-07
6.9532e-07
6.97058e-07
6.97112e-07
6.9678e-07
6.9532e-07
6.95322e-07
6.95321e-07
6.95321e-07
6.95322e-07
6.9532e-07
6.97081e-07
6.97746e-07
6.97503e-07
6.96609e-07
6.9532e-07
6.9532e-07
6.9532e-07
6.9532e-07
6.96883e-07
6.9707e-07
6.97668e-07
6.97514e-07
6.96986e-07
6.97068e-07
6.97081e-07
6.97058e-07
6.97081e-07
6.9707e-07
6.97674e-07
6.97697e-07
6.97607e-07
6.97112e-07
6.97746e-07
6.97668e-07
6.88465e-07
6.8845e-07
6.88297e-07
6.87671e-07
6.87609e-07
6.87584e-07
6.87668e-07
6.88391e-07
6.88402e-07
6.88297e-07
6.87345e-07
6.86208e-07
6.86208e-07
6.86208e-07
6.86208e-07
6.87497e-07
6.87874e-07
6.87671e-07
6.86208e-07
6.8621e-07
6.86209e-07
6.86209e-07
6.8621e-07
6.86208e-07
6.87956e-07
6.88585e-07
6.88465e-07
6.87609e-07
6.86208e-07
6.86209e-07
6.86209e-07
6.86209e-07
6.86209e-07
6.86208e-07
6.87969e-07
6.88495e-07
6.8845e-07
6.87584e-07
6.86208e-07
6.86209e-07
6.86209e-07
6.86209e-07
6.86209e-07
6.86208e-07
6.87946e-07
6.88e-07
6.87668e-07
6.86208e-07
6.8621e-07
6.86209e-07
6.86209e-07
6.8621e-07
6.86208e-07
6.87969e-07
6.88634e-07
6.88391e-07
6.87497e-07
6.86208e-07
6.86208e-07
6.86208e-07
6.86208e-07
6.87771e-07
6.87958e-07
6.88556e-07
6.88402e-07
6.87874e-07
6.87956e-07
6.87969e-07
6.87946e-07
6.87969e-07
6.87958e-07
6.88562e-07
6.88585e-07
6.88495e-07
6.88e-07
6.88634e-07
6.88556e-07
6.79353e-07
6.79338e-07
6.79185e-07
6.78559e-07
6.78497e-07
6.78472e-07
6.78556e-07
6.79279e-07
6.7929e-07
6.79185e-07
6.78233e-07
6.77096e-07
6.77096e-07
6.77096e-07
6.77096e-07
6.78385e-07
6.78762e-07
6.78559e-07
6.77096e-07
6.77098e-07
6.77097e-07
6.77097e-07
6.77098e-07
6.77096e-07
6.78844e-07
6.79473e-07
6.79353e-07
6.78497e-07
6.77096e-07
6.77097e-07
6.77097e-07
6.77097e-07
6.77097e-07
6.77096e-07
6.78857e-07
6.79383e-07
6.79338e-07
6.78472e-07
6.77096e-07
6.77097e-07
6.77097e-07
6.77097e-07
6.77097e-07
6.77096e-07
6.78834e-07
6.78888e-07
6.78556e-07
6.77096e-07
6.77098e-07
6.77097e-07
6.77097e-07
6.77098e-07
6.77096e-07
6.78857e-07
6.79522e-07
6.79279e-07
6.78385e-07
6.77096e-07
6.77096e-07
6.77096e-07
6.77096e-07
6.78659e-07
6.78845e-07
6.79444e-07
6.7929e-07
6.78762e-07
6.78844e-07
6.78857e-07
6.78834e-07
6.78857e-07
6.78846e-07
6.7945e-07
6.79473e-07
6.79383e-07
6.78887e-07
6.79522e-07
6.79444e-07
6.70241e-07
6.70226e-07
6.70073e-07
6.69447e-07
6.69385e-07
6.6936e-07
6.69444e-07
6.70167e-07
6.70178e-07
6.70073e-07
6.69121e-07
6.67984e-07
6.67984e-07
6.67984e-07
6.67984e-07
6.69273e-07
6.6965e-07
6.69447e-07
6.67984e-07
6.67986e-07
6.67985e-07
6.67985e-07
6.67986e-07
6.67984e-07
6.69732e-07
6.70361e-07
6.70241e-07
6.69385e-07
6.67984e-07
6.67985e-07
6.67984e-07
6.67984e-07
6.67985e-07
6.67984e-07
6.69745e-07
6.70271e-07
6.70226e-07
6.6936e-07
6.67984e-07
6.67985e-07
6.67984e-07
6.67985e-07
6.67985e-07
6.67984e-07
6.69722e-07
6.69775e-07
6.69443e-07
6.67984e-07
6.67986e-07
6.67985e-07
6.67985e-07
6.67986e-07
6.67984e-07
6.69745e-07
6.7041e-07
6.70167e-07
6.69273e-07
6.67984e-07
6.67984e-07
6.67984e-07
6.67984e-07
6.69547e-07
6.69733e-07
6.70331e-07
6.70178e-07
6.6965e-07
6.69731e-07
6.69745e-07
6.69722e-07
6.69745e-07
6.69734e-07
6.70338e-07
6.70361e-07
6.70271e-07
6.69775e-07
6.7041e-07
6.70331e-07
6.61129e-07
6.61114e-07
6.60961e-07
6.60335e-07
6.60273e-07
6.60248e-07
6.60332e-07
6.61055e-07
6.61066e-07
6.60961e-07
6.60009e-07
6.58872e-07
6.58872e-07
6.58872e-07
6.58872e-07
6.60161e-07
6.60538e-07
6.60335e-07
6.58872e-07
6.58874e-07
6.58873e-07
6.58873e-07
6.58874e-07
6.58872e-07
6.60619e-07
6.61249e-07
6.61129e-07
6.60273e-07
6.58872e-07
6.58873e-07
6.58872e-07
6.58872e-07
6.58873e-07
6.58872e-07
6.60633e-07
6.61159e-07
6.61114e-07
6.60248e-07
6.58872e-07
6.58873e-07
6.58872e-07
6.58872e-07
6.58873e-07
6.58872e-07
6.6061e-07
6.60663e-07
6.60331e-07
6.58872e-07
6.58874e-07
6.58873e-07
6.58873e-07
6.58874e-07
6.58872e-07
6.60633e-07
6.61297e-07
6.61055e-07
6.60161e-07
6.58872e-07
6.58872e-07
6.58872e-07
6.58872e-07
6.60435e-07
6.60621e-07
6.61219e-07
6.61066e-07
6.60538e-07
6.60619e-07
6.60633e-07
6.6061e-07
6.60633e-07
6.60622e-07
6.61225e-07
6.61249e-07
6.61159e-07
6.60663e-07
6.61298e-07
6.61219e-07
6.52017e-07
6.52002e-07
6.51849e-07
6.51223e-07
6.51161e-07
6.51136e-07
6.51219e-07
6.51943e-07
6.51954e-07
6.51849e-07
6.50897e-07
6.4976e-07
6.4976e-07
6.4976e-07
6.4976e-07
6.51049e-07
6.51426e-07
6.51223e-07
6.4976e-07
6.49762e-07
6.49761e-07
6.49761e-07
6.49762e-07
6.4976e-07
6.51507e-07
6.52137e-07
6.52017e-07
6.51161e-07
6.4976e-07
6.49761e-07
6.4976e-07
6.4976e-07
6.49761e-07
6.4976e-07
6.51521e-07
6.52047e-07
6.52002e-07
6.51136e-07
6.4976e-07
6.49761e-07
6.4976e-07
6.4976e-07
6.49761e-07
6.4976e-07
6.51498e-07
6.51551e-07
6.51219e-07
6.4976e-07
6.49762e-07
6.49761e-07
6.49761e-07
6.49762e-07
6.4976e-07
6.51521e-07
6.52185e-07
6.51943e-07
6.51049e-07
6.4976e-07
6.4976e-07
6.4976e-07
6.4976e-07
6.51323e-07
6.51509e-07
6.52107e-07
6.51954e-07
6.51426e-07
6.51507e-07
6.51521e-07
6.51498e-07
6.51521e-07
6.5151e-07
6.52113e-07
6.52137e-07
6.52047e-07
6.51551e-07
6.52185e-07
6.52107e-07
6.42905e-07
6.42889e-07
6.42737e-07
6.42111e-07
6.42049e-07
6.42024e-07
6.42107e-07
6.42831e-07
6.42842e-07
6.42737e-07
6.41785e-07
6.40648e-07
6.40648e-07
6.40648e-07
6.40648e-07
6.41937e-07
6.42314e-07
6.42111e-07
6.40648e-07
6.4065e-07
6.40649e-07
6.40649e-07
6.4065e-07
6.40648e-07
6.42395e-07
6.43024e-07
6.42905e-07
6.42049e-07
6.40648e-07
6.40649e-07
6.40648e-07
6.40648e-07
6.40649e-07
6.40648e-07
6.42409e-07
6.42935e-07
6.42889e-07
6.42024e-07
6.40648e-07
6.40649e-07
6.40648e-07
6.40648e-07
6.40649e-07
6.40648e-07
6.42386e-07
6.42439e-07
6.42107e-07
6.40648e-07
6.4065e-07
6.40649e-07
6.40649e-07
6.4065e-07
6.40648e-07
6.42408e-07
6.43073e-07
6.42831e-07
6.41937e-07
6.40648e-07
6.40648e-07
6.40648e-07
6.40648e-07
6.42211e-07
6.42397e-07
6.42995e-07
6.42842e-07
6.42314e-07
6.42395e-07
6.42409e-07
6.42386e-07
6.42409e-07
6.42397e-07
6.43001e-07
6.43024e-07
6.42935e-07
6.42439e-07
6.43073e-07
6.42995e-07
6.33793e-07
6.33777e-07
6.33624e-07
6.32999e-07
6.32937e-07
6.32912e-07
6.32995e-07
6.33719e-07
6.3373e-07
6.33624e-07
6.32672e-07
6.31536e-07
6.31536e-07
6.31536e-07
6.31536e-07
6.32825e-07
6.33202e-07
6.32999e-07
6.31536e-07
6.31537e-07
6.31537e-07
6.31537e-07
6.31537e-07
6.31536e-07
6.33283e-07
6.33912e-07
6.33793e-07
6.32937e-07
6.31536e-07
6.31537e-07
6.31536e-07
6.31536e-07
6.31537e-07
6.31536e-07
6.33297e-07
6.33823e-07
6.33777e-07
6.32912e-07
6.31536e-07
6.31537e-07
6.31536e-07
6.31536e-07
6.31537e-07
6.31536e-07
6.33274e-07
6.33327e-07
6.32995e-07
6.31536e-07
6.31537e-07
6.31537e-07
6.31537e-07
6.31537e-07
6.31536e-07
6.33296e-07
6.33961e-07
6.33719e-07
6.32825e-07
6.31536e-07
6.31536e-07
6.31536e-07
6.31536e-07
6.33099e-07
6.33285e-07
6.33883e-07
6.3373e-07
6.33202e-07
6.33283e-07
6.33297e-07
6.33274e-07
6.33296e-07
6.33285e-07
6.33889e-07
6.33912e-07
6.33823e-07
6.33327e-07
6.33961e-07
6.33883e-07
6.24681e-07
6.24665e-07
6.24512e-07
6.23887e-07
6.23825e-07
6.238e-07
6.23883e-07
6.24607e-07
6.24618e-07
6.24512e-07
6.2356e-07
6.22424e-07
6.22424e-07
6.22424e-07
6.22424e-07
6.23713e-07
6.24089e-07
6.23887e-07
6.22424e-07
6.22425e-07
6.22425e-07
6.22425e-07
6.22425e-07
6.22424e-07
6.24171e-07
6.248e-07
6.24681e-07
6.23825e-07
6.22424e-07
6.22425e-07
6.22424e-07
6.22424e-07
6.22425e-07
6.22424e-07
6.24185e-07
6.24711e-07
6.24665e-07
6.238e-07
6.22424e-07
6.22425e-07
6.22424e-07
6.22424e-07
6.22425e-07
6.22424e-07
6.24162e-07
6.24215e-07
6.23883e-07
6.22424e-07
6.22425e-07
6.22425e-07
6.22425e-07
6.22425e-07
6.22424e-07
6.24184e-07
6.24849e-07
6.24607e-07
6.23713e-07
6.22424e-07
6.22424e-07
6.22424e-07
6.22424e-07
6.23987e-07
6.24173e-07
6.24771e-07
6.24618e-07
6.2409e-07
6.24171e-07
6.24185e-07
6.24162e-07
6.24184e-07
6.24173e-07
6.24777e-07
6.248e-07
6.24711e-07
6.24215e-07
6.24849e-07
6.24771e-07
6.15569e-07
6.15553e-07
6.154e-07
6.14775e-07
6.14713e-07
6.14688e-07
6.14771e-07
6.15495e-07
6.15506e-07
6.154e-07
6.14448e-07
6.13312e-07
6.13312e-07
6.13312e-07
6.13312e-07
6.14601e-07
6.14978e-07
6.14775e-07
6.13312e-07
6.13313e-07
6.13313e-07
6.13313e-07
6.13313e-07
6.13312e-07
6.15059e-07
6.15688e-07
6.15569e-07
6.14713e-07
6.13312e-07
6.13313e-07
6.13312e-07
6.13312e-07
6.13313e-07
6.13312e-07
6.15073e-07
6.15599e-07
6.15553e-07
6.14688e-07
6.13312e-07
6.13313e-07
6.13312e-07
6.13312e-07
6.13313e-07
6.13312e-07
6.1505e-07
6.15103e-07
6.14771e-07
6.13312e-07
6.13313e-07
6.13313e-07
6.13313e-07
6.13313e-07
6.13312e-07
6.15072e-07
6.15737e-07
6.15495e-07
6.14601e-07
6.13312e-07
6.13312e-07
6.13312e-07
6.13312e-07
6.14875e-07
6.15061e-07
6.15659e-07
6.15506e-07
6.14977e-07
6.15059e-07
6.15073e-07
6.1505e-07
6.15072e-07
6.15061e-07
6.15665e-07
6.15688e-07
6.15599e-07
6.15103e-07
6.15737e-07
6.15659e-07
6.06457e-07
6.06441e-07
6.06288e-07
6.05663e-07
6.05601e-07
6.05576e-07
6.05659e-07
6.06383e-07
6.06394e-07
6.06288e-07
6.05336e-07
6.042e-07
6.042e-07
6.042e-07
6.042e-07
6.05489e-07
6.05866e-07
6.05663e-07
6.042e-07
6.04201e-07
6.04201e-07
6.04201e-07
6.04201e-07
6.042e-07
6.05947e-07
6.06576e-07
6.06457e-07
6.05601e-07
6.042e-07
6.04201e-07
6.042e-07
6.042e-07
6.04201e-07
6.042e-07
6.05961e-07
6.06487e-07
6.06441e-07
6.05576e-07
6.042e-07
6.04201e-07
6.042e-07
6.042e-07
6.04201e-07
6.042e-07
6.05938e-07
6.05991e-07
6.05659e-07
6.042e-07
6.04201e-07
6.04201e-07
6.04201e-07
6.04201e-07
6.042e-07
6.0596e-07
6.06625e-07
6.06383e-07
6.05489e-07
6.042e-07
6.042e-07
6.042e-07
6.042e-07
6.05763e-07
6.05949e-07
6.06547e-07
6.06394e-07
6.05865e-07
6.05947e-07
6.05961e-07
6.05938e-07
6.0596e-07
6.05949e-07
6.06553e-07
6.06576e-07
6.06487e-07
6.05991e-07
6.06625e-07
6.06547e-07
5.97345e-07
5.97329e-07
5.97176e-07
5.96551e-07
5.96489e-07
5.96464e-07
5.96547e-07
5.97271e-07
5.97282e-07
5.97176e-07
5.96224e-07
5.95087e-07
5.95088e-07
5.95088e-07
5.95087e-07
5.96377e-07
5.96753e-07
5.96551e-07
5.95087e-07
5.95089e-07
5.95088e-07
5.95088e-07
5.95089e-07
5.95087e-07
5.96835e-07
5.97464e-07
5.97345e-07
5.96489e-07
5.95088e-07
5.95088e-07
5.95088e-07
5.95088e-07
5.95088e-07
5.95088e-07
5.96849e-07
5.97375e-07
5.97329e-07
5.96464e-07
5.95088e-07
5.95088e-07
5.95088e-07
5.95088e-07
5.95088e-07
5.95088e-07
5.96826e-07
5.96879e-07
5.96547e-07
5.95087e-07
5.95089e-07
5.95088e-07
5.95088e-07
5.95089e-07
5.95087e-07
5.96848e-07
5.97513e-07
5.97271e-07
5.96377e-07
5.95087e-07
5.95088e-07
5.95088e-07
5.95087e-07
5.96651e-07
5.96837e-07
5.97435e-07
5.97282e-07
5.96753e-07
5.96835e-07
5.96849e-07
5.96826e-07
5.96848e-07
5.96837e-07
5.97441e-07
5.97464e-07
5.97375e-07
5.96879e-07
5.97513e-07
5.97435e-07
5.88232e-07
5.88217e-07
5.88064e-07
5.87439e-07
5.87377e-07
5.87351e-07
5.87435e-07
5.88158e-07
5.8817e-07
5.88064e-07
5.87112e-07
5.85975e-07
5.85976e-07
5.85976e-07
5.85975e-07
5.87265e-07
5.87641e-07
5.87439e-07
5.85975e-07
5.85977e-07
5.85976e-07
5.85976e-07
5.85977e-07
5.85975e-07
5.87723e-07
5.88352e-07
5.88233e-07
5.87377e-07
5.85976e-07
5.85976e-07
5.85976e-07
5.85976e-07
5.85976e-07
5.85976e-07
5.87737e-07
5.88263e-07
5.88217e-07
5.87351e-07
5.85976e-07
5.85976e-07
5.85976e-07
5.85976e-07
5.85976e-07
5.85976e-07
5.87714e-07
5.87767e-07
5.87435e-07
5.85975e-07
5.85977e-07
5.85976e-07
5.85976e-07
5.85977e-07
5.85975e-07
5.87736e-07
5.88401e-07
5.88158e-07
5.87265e-07
5.85975e-07
5.85976e-07
5.85976e-07
5.85975e-07
5.87538e-07
5.87725e-07
5.88323e-07
5.8817e-07
5.87641e-07
5.87723e-07
5.87737e-07
5.87714e-07
5.87736e-07
5.87725e-07
5.88329e-07
5.88352e-07
5.88263e-07
5.87767e-07
5.88401e-07
5.88323e-07
5.7912e-07
5.79105e-07
5.78952e-07
5.78327e-07
5.78264e-07
5.78239e-07
5.78323e-07
5.79046e-07
5.79058e-07
5.78952e-07
5.78e-07
5.76863e-07
5.76864e-07
5.76864e-07
5.76863e-07
5.78152e-07
5.78529e-07
5.78327e-07
5.76863e-07
5.76865e-07
5.76864e-07
5.76864e-07
5.76865e-07
5.76863e-07
5.78611e-07
5.7924e-07
5.7912e-07
5.78264e-07
5.76864e-07
5.76864e-07
5.76864e-07
5.76864e-07
5.76864e-07
5.76864e-07
5.78624e-07
5.79151e-07
5.79105e-07
5.78239e-07
5.76864e-07
5.76864e-07
5.76864e-07
5.76864e-07
5.76864e-07
5.76864e-07
5.78601e-07
5.78655e-07
5.78323e-07
5.76863e-07
5.76865e-07
5.76864e-07
5.76864e-07
5.76865e-07
5.76863e-07
5.78624e-07
5.79289e-07
5.79046e-07
5.78152e-07
5.76863e-07
5.76864e-07
5.76864e-07
5.76863e-07
5.78426e-07
5.78613e-07
5.79211e-07
5.79058e-07
5.78529e-07
5.78611e-07
5.78624e-07