/*--------------------------------*- C++ -*----------------------------------*\
| =========                 |                                                 |
| \\      /  F ield         | OpenFOAM: The Open Source CFD Toolbox           |
|  \\    /   O peration     | Version:  v2012                                 |
|   \\  /    A nd           | Website:  www.openfoam.com                      |
|    \\/     M anipulation  |                                                 |
\*---------------------------------------------------------------------------*/
FoamFile
{
    version     2.0;
    format      ascii;
    class       volScalarField;
    location    "100";
    object      epsilon;
}
// * * * * * * * * * * * * * * * * * * * * * * * * * * * * * * * * * * * * * //

dimensions      [0 2 -3 0 0 0 0];


internalField   nonuniform List<scalar> 
171728
(
6.30162e-08
1.13423e-08
9.84928e-09
6.66605e-09
6.38083e-08
1.16625e-08
1.01773e-08
6.52789e-09
6.61058e-08
1.22227e-08
1.07695e-08
6.63276e-09
6.83725e-08
1.29154e-08
1.1568e-08
6.80689e-09
7.06042e-08
1.37567e-08
1.26029e-08
6.99277e-09
7.28147e-08
1.47579e-08
1.38611e-08
7.14914e-09
7.49892e-08
1.5902e-08
1.53786e-08
7.25e-09
7.71219e-08
1.72041e-08
1.72035e-08
7.12361e-09
7.92468e-08
1.88501e-08
1.93573e-08
7.18989e-09
8.128e-08
2.10881e-08
2.1908e-08
7.95812e-09
8.35304e-08
2.39149e-08
2.51034e-08
9.25484e-09
8.58495e-08
2.74578e-08
2.88774e-08
1.12704e-08
8.82052e-08
3.1986e-08
3.34295e-08
1.45632e-08
9.09141e-08
3.75184e-08
3.88811e-08
1.92369e-08
9.36329e-08
4.38116e-08
4.51944e-08
2.49719e-08
9.67326e-08
5.1513e-08
5.30118e-08
3.3131e-08
1.00537e-07
6.10565e-08
6.28418e-08
4.50142e-08
1.05196e-07
7.3471e-08
7.54001e-08
6.3668e-08
1.11239e-07
9.06697e-08
9.19632e-08
9.35329e-08
1.19245e-07
1.17696e-07
1.18481e-07
1.46616e-07
1.31346e-07
1.61378e-07
1.62066e-07
2.32097e-07
1.4927e-07
2.23706e-07
2.24014e-07
3.42509e-07
1.69784e-07
2.89615e-07
2.89719e-07
4.43151e-07
1.90447e-07
3.45112e-07
3.45179e-07
5.14147e-07
2.05023e-07
3.76211e-07
3.76274e-07
5.47864e-07
2.11314e-07
3.86592e-07
3.86654e-07
5.57145e-07
2.131e-07
3.88952e-07
3.89011e-07
5.58975e-07
2.13482e-07
3.89397e-07
3.89456e-07
5.59386e-07
2.13552e-07
3.8947e-07
3.89529e-07
5.59393e-07
2.13565e-07
3.89479e-07
3.89538e-07
5.59378e-07
2.1357e-07
3.89485e-07
3.89543e-07
5.59401e-07
2.13574e-07
3.89489e-07
3.89547e-07
5.59393e-07
2.13578e-07
3.89493e-07
3.8955e-07
5.59403e-07
2.1358e-07
3.89495e-07
3.89553e-07
5.59401e-07
2.13583e-07
3.89497e-07
3.89554e-07
5.59405e-07
2.13584e-07
3.89499e-07
3.89556e-07
5.59402e-07
2.13586e-07
3.89498e-07
3.89556e-07
5.59398e-07
2.13587e-07
3.89498e-07
3.89554e-07
5.59408e-07
2.13587e-07
3.89499e-07
3.89555e-07
5.59408e-07
2.13588e-07
3.895e-07
3.89556e-07
5.59412e-07
2.13589e-07
3.89498e-07
3.89555e-07
5.59432e-07
2.13589e-07
3.89495e-07
3.89555e-07
5.59434e-07
2.13588e-07
3.89495e-07
3.89555e-07
5.59414e-07
2.13588e-07
3.89495e-07
3.89554e-07
5.59386e-07
2.13588e-07
3.89494e-07
3.89555e-07
5.5936e-07
2.13588e-07
3.89494e-07
3.89555e-07
5.59333e-07
2.13588e-07
3.89494e-07
3.89555e-07
5.59315e-07
2.13588e-07
3.89494e-07
3.89555e-07
5.59304e-07
2.13588e-07
3.89494e-07
3.89555e-07
5.59289e-07
2.13588e-07
3.89494e-07
3.89554e-07
5.5928e-07
2.13588e-07
3.89494e-07
3.89554e-07
5.59283e-07
2.13588e-07
3.89494e-07
3.89554e-07
5.59288e-07
2.13588e-07
3.89495e-07
3.89555e-07
5.59289e-07
2.13588e-07
3.89495e-07
3.89555e-07
5.59287e-07
2.13588e-07
3.89495e-07
3.89555e-07
5.59287e-07
2.13588e-07
3.89495e-07
3.89555e-07
5.59286e-07
2.13588e-07
3.89495e-07
3.89555e-07
5.59289e-07
2.13588e-07
3.89495e-07
3.89555e-07
5.59293e-07
2.13589e-07
3.89495e-07
3.89555e-07
5.59286e-07
2.13589e-07
3.89495e-07
3.89555e-07
5.59277e-07
2.13589e-07
3.89495e-07
3.89555e-07
5.5928e-07
2.13589e-07
3.89495e-07
3.89555e-07
5.59289e-07
2.13589e-07
3.89495e-07
3.89555e-07
5.59293e-07
2.13589e-07
3.89495e-07
3.89555e-07
5.59292e-07
2.13589e-07
3.89495e-07
3.89555e-07
5.59285e-07
2.13589e-07
3.89495e-07
3.89555e-07
5.59286e-07
2.13589e-07
3.89495e-07
3.89555e-07
5.59289e-07
2.13589e-07
3.89495e-07
3.89555e-07
5.59284e-07
2.13588e-07
3.89495e-07
3.89554e-07
5.59278e-07
2.13588e-07
3.89495e-07
3.89554e-07
5.5928e-07
2.13589e-07
3.89495e-07
3.89553e-07
5.59286e-07
2.13589e-07
3.89495e-07
3.89553e-07
5.59289e-07
2.13589e-07
3.89495e-07
3.89554e-07
5.5929e-07
2.1359e-07
3.89496e-07
3.89553e-07
5.59288e-07
2.1359e-07
3.89495e-07
3.89553e-07
5.59289e-07
2.1359e-07
3.89496e-07
3.89554e-07
5.59291e-07
2.13591e-07
3.89496e-07
3.89554e-07
5.59282e-07
2.13591e-07
3.89496e-07
3.89554e-07
5.59275e-07
2.13591e-07
3.89496e-07
3.89554e-07
5.59284e-07
2.13591e-07
3.89497e-07
3.89554e-07
5.59286e-07
2.13592e-07
3.89497e-07
3.89554e-07
5.59286e-07
2.13592e-07
3.89498e-07
3.89555e-07
5.59291e-07
2.13592e-07
3.89499e-07
3.89556e-07
5.59287e-07
2.13593e-07
3.89499e-07
3.89556e-07
5.5928e-07
2.13594e-07
3.895e-07
3.89557e-07
5.5928e-07
2.13595e-07
3.89501e-07
3.89558e-07
5.59292e-07
2.13596e-07
3.89502e-07
3.89559e-07
5.59297e-07
2.13596e-07
3.89503e-07
3.89559e-07
5.59287e-07
2.13597e-07
3.89502e-07
3.89559e-07
5.59275e-07
2.13598e-07
3.895e-07
3.89556e-07
5.5927e-07
2.13599e-07
3.89494e-07
3.89551e-07
5.59273e-07
2.136e-07
3.89483e-07
3.89539e-07
5.59261e-07
2.13597e-07
3.89455e-07
3.8951e-07
5.59217e-07
2.13492e-07
3.8938e-07
3.89433e-07
5.59003e-07
2.08793e-07
3.68066e-07
3.68076e-07
5.31711e-07
6.17684e-09
8.10332e-09
7.62441e-09
6.61197e-09
6.24191e-09
6.89323e-09
6.43695e-08
6.42707e-08
6.42159e-08
6.51807e-08
8.15347e-09
8.11755e-09
6.79774e-09
7.73684e-09
1.02129e-08
6.7281e-09
6.10019e-09
5.83004e-09
1.04434e-08
9.57023e-09
1.07968e-08
9.85263e-09
6.54489e-09
6.29299e-09
7.84226e-09
8.59718e-09
8.27958e-09
8.98966e-09
1.05118e-08
1.15509e-08
1.09318e-08
6.71591e-09
6.31403e-09
1.48475e-08
1.00706e-08
1.54576e-08
6.56327e-09
5.77588e-09
5.71264e-09
1.0975e-08
1.00055e-08
1.15821e-08
1.04688e-08
6.23743e-09
6.14747e-09
8.48855e-09
9.17551e-09
9.19996e-09
9.76903e-09
1.11361e-08
1.20757e-08
1.1789e-08
6.22286e-09
5.91704e-09
1.57319e-08
1.06118e-08
1.66177e-08
6.66571e-09
5.68489e-09
5.75804e-09
1.18018e-08
1.06414e-08
1.2517e-08
1.12775e-08
6.10711e-09
6.11898e-09
9.4477e-09
9.98426e-09
1.02656e-08
1.06818e-08
1.20255e-08
1.27439e-08
1.28006e-08
5.83343e-09
5.60999e-09
1.6946e-08
1.13646e-08
1.79461e-08
6.84382e-09
5.7381e-09
5.95386e-09
1.27695e-08
1.14619e-08
1.35838e-08
1.21793e-08
6.08907e-09
6.09824e-09
1.05625e-08
1.09263e-08
1.14885e-08
1.17384e-08
1.3075e-08
1.35754e-08
1.3962e-08
5.54419e-09
5.43589e-09
1.82909e-08
1.23393e-08
1.93292e-08
7.03488e-09
5.93756e-09
6.22786e-09
1.38689e-08
1.24883e-08
1.47936e-08
1.33985e-08
6.06616e-09
6.24826e-09
1.1815e-08
1.20165e-08
1.28804e-08
1.29774e-08
1.42744e-08
1.44919e-08
1.53097e-08
5.38788e-09
5.41821e-09
1.96476e-08
1.35313e-08
2.05363e-08
7.1972e-09
6.21009e-09
6.59058e-09
1.51206e-08
1.36945e-08
1.61857e-08
1.47329e-08
6.22376e-09
6.40011e-09
1.32553e-08
1.3319e-08
1.44492e-08
1.44552e-08
1.56583e-08
1.5604e-08
1.6823e-08
5.38892e-09
5.63526e-09
2.08087e-08
1.4992e-08
2.13787e-08
7.30549e-09
6.57651e-09
7.07694e-09
1.65751e-08
1.51161e-08
1.77777e-08
1.63297e-08
6.36757e-09
6.63142e-09
1.48707e-08
1.48763e-08
1.62262e-08
1.61766e-08
1.72224e-08
1.68611e-08
1.85087e-08
5.61503e-09
6.09103e-09
2.14531e-08
1.67149e-08
2.1288e-08
7.2126e-09
7.06648e-09
7.7263e-09
1.81978e-08
1.68004e-08
1.96431e-08
1.83239e-08
6.61175e-09
7.15146e-09
1.66967e-08
1.66642e-08
1.81893e-08
1.81357e-08
1.89878e-08
1.83979e-08
2.04231e-08
6.08081e-09
6.79755e-09
2.10733e-08
1.87875e-08
2.08253e-08
7.21297e-09
7.72554e-09
8.59415e-09
2.01832e-08
1.88965e-08
2.17176e-08
2.07692e-08
7.14388e-09
7.96793e-09
1.87736e-08
1.86753e-08
2.062e-08
2.05722e-08
2.09713e-08
2.04997e-08
2.27899e-08
6.80074e-09
7.832e-09
2.08298e-08
2.12524e-08
2.11824e-08
7.94462e-09
8.60748e-09
9.82559e-09
2.2215e-08
2.14197e-08
2.39233e-08
2.37073e-08
7.98441e-09
9.34907e-09
2.12448e-08
2.11667e-08
2.34118e-08
2.32548e-08
2.33753e-08
2.31683e-08
2.51627e-08
7.86282e-09
9.34161e-09
2.17087e-08
2.42634e-08
2.37894e-08
9.21058e-09
9.8923e-09
1.18742e-08
2.45608e-08
2.45689e-08
2.68303e-08
2.73159e-08
9.42497e-09
1.15768e-08
2.42218e-08
2.4126e-08
2.68183e-08
2.65804e-08
2.57581e-08
2.64578e-08
2.75119e-08
9.42251e-09
1.16401e-08
2.45713e-08
2.78415e-08
2.71717e-08
1.11293e-08
1.20183e-08
1.50119e-08
2.77713e-08
2.83655e-08
3.08603e-08
3.16442e-08
1.1733e-08
1.49127e-08
2.78202e-08
2.75558e-08
3.10452e-08
3.10531e-08
2.82589e-08
3.08088e-08
3.09719e-08
1.17983e-08
1.49246e-08
2.81695e-08
3.22468e-08
3.13089e-08
1.4312e-08
1.52531e-08
1.92308e-08
3.20186e-08
3.27954e-08
3.60731e-08
3.67673e-08
1.51644e-08
1.92052e-08
3.22158e-08
3.22889e-08
3.63128e-08
3.63941e-08
3.19968e-08
3.61223e-08
3.58185e-08
1.5175e-08
1.92836e-08
3.24815e-08
3.75025e-08
3.65731e-08
1.8717e-08
1.97172e-08
2.43949e-08
3.74663e-08
3.81446e-08
4.20595e-08
4.2645e-08
1.97127e-08
2.4457e-08
3.77014e-08
3.77802e-08
4.21471e-08
4.22521e-08
3.72093e-08
4.20691e-08
4.17362e-08
1.98256e-08
2.454e-08
3.79698e-08
4.34537e-08
4.24101e-08
2.39824e-08
2.53673e-08
3.18993e-08
4.38247e-08
4.43938e-08
4.95597e-08
5.01215e-08
2.54474e-08
3.20181e-08
4.39031e-08
4.40059e-08
4.96816e-08
4.97495e-08
4.34589e-08
4.95086e-08
4.90716e-08
2.55254e-08
3.21156e-08
4.41023e-08
5.09634e-08
4.96916e-08
3.16056e-08
3.34181e-08
4.29609e-08
5.16008e-08
5.21599e-08
5.8514e-08
5.90303e-08
3.35389e-08
4.31051e-08
5.17263e-08
5.17884e-08
5.86053e-08
5.86566e-08
5.10995e-08
5.84028e-08
5.80475e-08
3.36429e-08
4.33238e-08
5.17001e-08
6.01194e-08
5.84918e-08
4.26766e-08
4.53002e-08
6.01212e-08
6.11958e-08
6.16956e-08
7.02024e-08
7.06692e-08
4.54435e-08
6.02315e-08
6.12978e-08
6.13413e-08
7.0437e-08
7.0419e-08
6.0747e-08
7.00704e-08
6.98667e-08
4.5703e-08
6.06935e-08
6.11554e-08
7.20037e-08
7.01992e-08
5.99e-08
6.38684e-08
8.72346e-08
7.35929e-08
7.40322e-08
8.57519e-08
8.59709e-08
6.39807e-08
8.74049e-08
7.38486e-08
7.3822e-08
8.59006e-08
8.58859e-08
7.33184e-08
8.57319e-08
8.55945e-08
6.44906e-08
8.79318e-08
7.36137e-08
8.72533e-08
8.57956e-08
8.7194e-08
9.352e-08
1.34997e-07
9.068e-08
9.08237e-08
1.09647e-07
1.09661e-07
9.37126e-08
1.35225e-07
9.08038e-08
9.07836e-08
1.09872e-07
1.0976e-07
9.05387e-08
1.09683e-07
1.09498e-07
9.41741e-08
1.35332e-07
9.07311e-08
1.10501e-07
1.09694e-07
1.35141e-07
1.46514e-07
2.15099e-07
1.17679e-07
1.17687e-07
1.48515e-07
1.48502e-07
1.46698e-07
2.14941e-07
1.17962e-07
1.17826e-07
1.48793e-07
1.48722e-07
1.17529e-07
1.48484e-07
1.48365e-07
1.46788e-07
2.15402e-07
1.17716e-07
1.49232e-07
1.48495e-07
2.14872e-07
2.32347e-07
3.22525e-07
1.6144e-07
1.61426e-07
2.07251e-07
2.07252e-07
2.32158e-07
3.22385e-07
1.61674e-07
1.6165e-07
2.07331e-07
2.07419e-07
1.61302e-07
2.07168e-07
2.07166e-07
2.32685e-07
3.22802e-07
1.61408e-07
2.07568e-07
2.07198e-07
3.22387e-07
3.42621e-07
4.26546e-07
2.23805e-07
2.23813e-07
2.73571e-07
2.73596e-07
3.42503e-07
4.26492e-07
2.23845e-07
2.23951e-07
2.73538e-07
2.73668e-07
2.23739e-07
2.73475e-07
2.73547e-07
3.42857e-07
4.26647e-07
2.23749e-07
2.73601e-07
2.73512e-07
4.26556e-07
4.43139e-07
5.0297e-07
2.8972e-07
2.89755e-07
3.33313e-07
3.33356e-07
4.43091e-07
5.0292e-07
2.89681e-07
2.89813e-07
3.3326e-07
3.33389e-07
2.89709e-07
3.33207e-07
3.33322e-07
4.43219e-07
5.03025e-07
2.89664e-07
3.33277e-07
3.33261e-07
5.03015e-07
5.1411e-07
5.42864e-07
3.45224e-07
3.45269e-07
3.70966e-07
3.7101e-07
5.14061e-07
5.42804e-07
3.45171e-07
3.45297e-07
3.7091e-07
3.71029e-07
3.45237e-07
3.70853e-07
3.70982e-07
5.14153e-07
5.42898e-07
3.45175e-07
3.70914e-07
3.70921e-07
5.42913e-07
5.4782e-07
5.54987e-07
3.76328e-07
3.76371e-07
3.85284e-07
3.85326e-07
5.47762e-07
5.54929e-07
3.76271e-07
3.76388e-07
3.85226e-07
3.8534e-07
3.76345e-07
3.85168e-07
3.85305e-07
5.47847e-07
5.55013e-07
3.76286e-07
3.8523e-07
3.85247e-07
5.55039e-07
5.57096e-07
5.57457e-07
3.86708e-07
3.8675e-07
3.88776e-07
3.88819e-07
5.57039e-07
5.57398e-07
3.86651e-07
3.86763e-07
3.88722e-07
3.88831e-07
3.86729e-07
3.88662e-07
3.88797e-07
5.57115e-07
5.57476e-07
3.86673e-07
3.88721e-07
3.88743e-07
5.57505e-07
5.58929e-07
5.57986e-07
3.89065e-07
3.89109e-07
3.89459e-07
3.89503e-07
5.58872e-07
5.57928e-07
3.89012e-07
3.8912e-07
3.89406e-07
3.89514e-07
3.89085e-07
3.89346e-07
3.89478e-07
5.58943e-07
5.58004e-07
3.89032e-07
3.89403e-07
3.89425e-07
5.5803e-07
5.59345e-07
5.58002e-07
3.8951e-07
3.89555e-07
3.89576e-07
3.89621e-07
5.59287e-07
5.57943e-07
3.89458e-07
3.89565e-07
3.89524e-07
3.89631e-07
3.89528e-07
3.89463e-07
3.89592e-07
5.59357e-07
5.58021e-07
3.89476e-07
3.8952e-07
3.8954e-07
5.58043e-07
5.59354e-07
5.57991e-07
3.89583e-07
3.89629e-07
3.8959e-07
3.89637e-07
5.59297e-07
5.57933e-07
3.89532e-07
3.89639e-07
3.89541e-07
3.89647e-07
3.89599e-07
3.89478e-07
3.89605e-07
5.59368e-07
5.5801e-07
3.89547e-07
3.89536e-07
3.89553e-07
5.58028e-07
5.59342e-07
5.58012e-07
3.89591e-07
3.89638e-07
3.89595e-07
3.89643e-07
5.59286e-07
5.57953e-07
3.89542e-07
3.89648e-07
3.89547e-07
3.89653e-07
3.89606e-07
3.89484e-07
3.89611e-07
5.59356e-07
5.58031e-07
3.89554e-07
3.89542e-07
3.89559e-07
5.58051e-07
5.59364e-07
5.58005e-07
3.89596e-07
3.89644e-07
3.89599e-07
3.89649e-07
5.59307e-07
5.57947e-07
3.89548e-07
3.89654e-07
3.89552e-07
3.89658e-07
3.89612e-07
3.89488e-07
3.89615e-07
5.59378e-07
5.58025e-07
3.8956e-07
3.89546e-07
3.89563e-07
5.58044e-07
5.59357e-07
5.58014e-07
3.89599e-07
3.89649e-07
3.89601e-07
3.89654e-07
5.59301e-07
5.57954e-07
3.89552e-07
3.89658e-07
3.89556e-07
3.89661e-07
3.89615e-07
3.89492e-07
3.89619e-07
5.59371e-07
5.58035e-07
3.89564e-07
3.89549e-07
3.89567e-07
5.58054e-07
5.59366e-07
5.58013e-07
3.89601e-07
3.89655e-07
3.89603e-07
3.89659e-07
5.59308e-07
5.57953e-07
3.89556e-07
3.89662e-07
3.89559e-07
3.89664e-07
3.89619e-07
3.89494e-07
3.89621e-07
5.59381e-07
5.58034e-07
3.89567e-07
3.89552e-07
3.89569e-07
5.58052e-07
5.59364e-07
5.58015e-07
3.89603e-07
3.89659e-07
3.89604e-07
3.89662e-07
5.59307e-07
5.57955e-07
3.89559e-07
3.89664e-07
3.89561e-07
3.89666e-07
3.89621e-07
3.89497e-07
3.89623e-07
5.59381e-07
5.58037e-07
3.89569e-07
3.89554e-07
3.8957e-07
5.58056e-07
5.59366e-07
5.58016e-07
3.89603e-07
3.89662e-07
3.89604e-07
3.89664e-07
5.59309e-07
5.57956e-07
3.89561e-07
3.89666e-07
3.89562e-07
3.89667e-07
3.89622e-07
3.89498e-07
3.89623e-07
5.59383e-07
5.58038e-07
3.8957e-07
3.89555e-07
3.89571e-07
5.58052e-07
5.59367e-07
5.58014e-07
3.89604e-07
3.89664e-07
3.89603e-07
3.89664e-07
5.5931e-07
5.57954e-07
3.89563e-07
3.89667e-07
3.89563e-07
3.89667e-07
3.89623e-07
3.89498e-07
3.89623e-07
5.59384e-07
5.58036e-07
3.89571e-07
3.89555e-07
3.89571e-07
5.58052e-07
5.59367e-07
5.5801e-07
3.89603e-07
3.89664e-07
3.89603e-07
3.89665e-07
5.59309e-07
5.57951e-07
3.89563e-07
3.89667e-07
3.89564e-07
3.89667e-07
3.89623e-07
3.89498e-07
3.89623e-07
5.59383e-07
5.58033e-07
3.89571e-07
3.89555e-07
3.89571e-07
5.58062e-07
5.5936e-07
5.58024e-07
3.89603e-07
3.89664e-07
3.89604e-07
3.89666e-07
5.59301e-07
5.57968e-07
3.89563e-07
3.89667e-07
3.89564e-07
3.89668e-07
3.89623e-07
3.89499e-07
3.89624e-07
5.59376e-07
5.58048e-07
3.8957e-07
3.89556e-07
3.89572e-07
5.58058e-07
5.59368e-07
5.58032e-07
3.89603e-07
3.89665e-07
3.89604e-07
3.89665e-07
5.59317e-07
5.57968e-07
3.89564e-07
3.89667e-07
3.89564e-07
3.89668e-07
3.89623e-07
3.89499e-07
3.89623e-07
5.59389e-07
5.58046e-07
3.89571e-07
3.89555e-07
3.89571e-07
5.58064e-07
5.59388e-07
5.58009e-07
3.89604e-07
3.89666e-07
3.89602e-07
3.89664e-07
5.59332e-07
5.57937e-07
3.89564e-07
3.89668e-07
3.89563e-07
3.89667e-07
3.89623e-07
3.89497e-07
3.89623e-07
5.594e-07
5.58021e-07
3.89572e-07
3.89554e-07
3.89572e-07
5.58073e-07
5.59373e-07
5.57987e-07
3.89602e-07
3.89664e-07
3.89602e-07
3.89661e-07
5.59308e-07
5.57926e-07
3.89565e-07
3.89667e-07
3.89565e-07
3.89667e-07
3.89623e-07
3.89496e-07
3.89624e-07
5.59381e-07
5.5801e-07
3.89571e-07
3.89554e-07
3.89573e-07
5.58056e-07
5.59341e-07
5.58001e-07
3.89602e-07
3.8966e-07
3.89601e-07
3.8966e-07
5.59275e-07
5.57952e-07
3.89565e-07
3.89667e-07
3.89565e-07
3.89667e-07
3.89623e-07
3.89496e-07
3.89624e-07
5.59357e-07
5.58025e-07
3.89572e-07
3.89555e-07
3.89572e-07
5.58023e-07
5.59336e-07
5.58023e-07
3.89601e-07
3.89659e-07
3.89601e-07
3.8966e-07
5.59281e-07
5.57976e-07
3.89565e-07
3.89667e-07
3.89565e-07
3.89667e-07
3.89624e-07
3.89495e-07
3.89624e-07
5.59359e-07
5.58041e-07
3.89573e-07
3.89555e-07
3.89572e-07
5.57993e-07
5.59354e-07
5.58031e-07
3.89601e-07
3.89659e-07
3.89602e-07
3.89658e-07
5.59306e-07
5.57977e-07
3.89565e-07
3.89667e-07
3.89566e-07
3.89667e-07
3.89624e-07
3.89494e-07
3.89623e-07
5.59372e-07
5.58044e-07
3.89572e-07
3.89555e-07
3.89572e-07
5.57969e-07
5.59366e-07
5.58031e-07
3.89602e-07
3.89658e-07
3.89603e-07
3.89658e-07
5.59317e-07
5.5797e-07
3.89566e-07
3.89667e-07
3.89566e-07
3.89667e-07
3.89623e-07
3.89493e-07
3.89623e-07
5.59379e-07
5.58041e-07
3.89572e-07
3.89555e-07
3.89572e-07
5.57947e-07
5.5937e-07
5.58028e-07
3.89603e-07
3.89658e-07
3.89604e-07
3.89657e-07
5.59315e-07
5.57964e-07
3.89565e-07
3.89667e-07
3.89565e-07
3.89668e-07
3.89623e-07
3.89493e-07
3.89623e-07
5.59379e-07
5.58038e-07
3.89572e-07
3.89555e-07
3.89572e-07
5.57934e-07
5.5937e-07
5.58024e-07
3.89604e-07
3.89657e-07
3.89606e-07
3.89658e-07
5.5931e-07
5.57963e-07
3.89565e-07
3.89667e-07
3.89565e-07
3.89668e-07
3.89623e-07
3.89493e-07
3.89623e-07
5.59377e-07
5.58037e-07
3.89572e-07
3.89555e-07
3.89572e-07
5.57922e-07
5.59366e-07
5.58023e-07
3.89605e-07
3.89657e-07
3.89607e-07
3.89658e-07
5.59307e-07
5.57962e-07
3.89565e-07
3.89667e-07
3.89564e-07
3.89668e-07
3.89623e-07
3.89493e-07
3.89623e-07
5.59375e-07
5.58038e-07
3.89572e-07
3.89554e-07
3.89571e-07
5.57905e-07
5.59362e-07
5.58027e-07
3.89607e-07
3.89657e-07
3.89609e-07
3.89658e-07
5.59305e-07
5.57962e-07
3.89564e-07
3.89667e-07
3.89564e-07
3.89668e-07
3.89623e-07
3.89493e-07
3.89623e-07
5.59374e-07
5.5804e-07
3.89572e-07
3.89554e-07
3.89571e-07
5.57902e-07
5.59363e-07
5.58029e-07
3.89609e-07
3.89657e-07
3.8961e-07
3.89657e-07
5.59303e-07
5.57964e-07
3.89564e-07
3.89668e-07
3.89563e-07
3.89668e-07
3.89623e-07
3.89494e-07
3.89623e-07
5.59375e-07
5.58041e-07
3.89572e-07
3.89554e-07
3.89571e-07
5.57909e-07
5.59365e-07
5.58029e-07
3.8961e-07
3.89657e-07
3.89612e-07
3.89658e-07
5.59304e-07
5.57967e-07
3.89563e-07
3.89668e-07
3.89563e-07
3.89668e-07
3.89623e-07
3.89494e-07
3.89623e-07
5.59376e-07
5.58042e-07
3.89572e-07
3.89554e-07
3.89571e-07
5.5791e-07
5.59365e-07
5.58029e-07
3.89612e-07
3.89657e-07
3.89613e-07
3.89658e-07
5.59306e-07
5.57968e-07
3.89562e-07
3.89668e-07
3.89563e-07
3.89668e-07
3.89623e-07
3.89494e-07
3.89622e-07
5.59377e-07
5.58044e-07
3.89572e-07
3.89554e-07
3.89571e-07
5.57906e-07
5.59366e-07
5.58028e-07
3.89613e-07
3.89658e-07
3.89614e-07
3.89658e-07
5.59307e-07
5.57969e-07
3.89563e-07
3.89668e-07
3.89563e-07
3.89668e-07
3.89623e-07
3.89495e-07
3.89622e-07
5.59379e-07
5.58043e-07
3.89571e-07
3.89555e-07
3.8957e-07
5.57903e-07
5.59365e-07
5.58029e-07
3.89614e-07
3.89658e-07
3.89615e-07
3.89658e-07
5.59308e-07
5.5797e-07
3.89563e-07
3.89667e-07
3.89563e-07
3.89668e-07
3.89623e-07
3.89495e-07
3.89623e-07
5.5938e-07
5.58042e-07
3.89571e-07
3.89554e-07
3.8957e-07
5.57904e-07
5.59364e-07
5.58031e-07
3.89614e-07
3.89657e-07
3.89615e-07
3.89658e-07
5.59309e-07
5.57969e-07
3.89562e-07
3.89668e-07
3.89563e-07
3.89668e-07
3.89623e-07
3.89495e-07
3.89623e-07
5.59379e-07
5.5804e-07
3.8957e-07
3.89554e-07
3.89569e-07
5.57903e-07
5.59364e-07
5.58033e-07
3.89615e-07
3.89657e-07
3.89616e-07
3.89658e-07
5.59309e-07
5.57968e-07
3.89563e-07
3.89667e-07
3.89562e-07
3.89668e-07
3.89623e-07
3.89495e-07
3.89622e-07
5.59377e-07
5.5804e-07
3.89569e-07
3.89554e-07
3.89569e-07
5.57906e-07
5.59366e-07
5.58034e-07
3.89615e-07
3.89657e-07
3.89616e-07
3.89658e-07
5.59308e-07
5.57967e-07
3.89562e-07
3.89667e-07
3.89562e-07
3.89668e-07
3.89623e-07
3.89495e-07
3.89623e-07
5.59376e-07
5.58042e-07
3.89569e-07
3.89554e-07
3.89569e-07
5.57904e-07
5.59368e-07
5.58033e-07
3.89616e-07
3.89658e-07
3.89616e-07
3.89658e-07
5.59307e-07
5.57967e-07
3.89562e-07
3.89668e-07
3.89562e-07
3.89668e-07
3.89623e-07
3.89495e-07
3.89623e-07
5.59377e-07
5.58043e-07
3.89569e-07
3.89554e-07
3.89568e-07
5.57896e-07
5.59369e-07
5.58033e-07
3.89616e-07
3.89658e-07
3.89616e-07
3.89658e-07
5.59306e-07
5.57968e-07
3.89562e-07
3.89667e-07
3.89562e-07
3.89667e-07
3.89623e-07
3.89494e-07
3.89623e-07
5.59378e-07
5.58042e-07
3.89568e-07
3.89554e-07
3.89568e-07
5.57898e-07
5.59368e-07
5.58033e-07
3.89616e-07
3.89657e-07
3.89617e-07
3.89658e-07
5.59307e-07
5.57967e-07
3.89562e-07
3.89667e-07
3.89562e-07
3.89667e-07
3.89623e-07
3.89494e-07
3.89623e-07
5.59377e-07
5.58042e-07
3.89568e-07
3.89554e-07
3.89567e-07
5.57909e-07
5.59369e-07
5.58032e-07
3.89616e-07
3.89657e-07
3.89617e-07
3.89658e-07
5.59306e-07
5.57968e-07
3.89561e-07
3.89667e-07
3.89561e-07
3.89668e-07
3.89623e-07
3.89495e-07
3.89623e-07
5.59378e-07
5.58043e-07
3.89568e-07
3.89555e-07
3.89567e-07
5.57914e-07
5.59368e-07
5.5803e-07
3.89617e-07
3.89658e-07
3.89617e-07
3.89658e-07
5.59307e-07
5.57968e-07
3.89561e-07
3.89667e-07
3.89561e-07
3.89668e-07
3.89623e-07
3.89495e-07
3.89623e-07
5.59379e-07
5.5804e-07
3.89567e-07
3.89555e-07
3.89567e-07
5.57911e-07
5.59366e-07
5.5803e-07
3.89616e-07
3.89658e-07
3.89616e-07
3.89658e-07
5.59307e-07
5.57969e-07
3.89561e-07
3.89668e-07
3.89561e-07
3.89668e-07
3.89623e-07
3.89495e-07
3.89622e-07
5.59377e-07
5.5804e-07
3.89567e-07
3.89555e-07
3.89566e-07
5.57904e-07
5.59365e-07
5.5803e-07
3.89616e-07
3.89658e-07
3.89616e-07
3.89658e-07
5.59307e-07
5.5797e-07
3.89561e-07
3.89668e-07
3.89561e-07
3.89668e-07
3.89623e-07
3.89495e-07
3.89622e-07
5.59375e-07
5.58041e-07
3.89567e-07
3.89555e-07
3.89566e-07
5.57899e-07
5.59365e-07
5.58032e-07
3.89616e-07
3.89658e-07
3.89617e-07
3.89658e-07
5.59309e-07
5.57968e-07
3.8956e-07
3.89668e-07
3.8956e-07
3.89668e-07
3.89622e-07
3.89495e-07
3.89622e-07
5.59375e-07
5.58043e-07
3.89566e-07
3.89554e-07
3.89565e-07
5.57903e-07
5.59366e-07
5.58033e-07
3.89616e-07
3.89657e-07
3.89617e-07
3.89657e-07
5.59308e-07
5.57967e-07
3.8956e-07
3.89667e-07
3.8956e-07
3.89667e-07
3.89622e-07
3.89495e-07
3.89622e-07
5.59377e-07
5.58045e-07
3.89566e-07
3.89555e-07
3.89566e-07
5.57902e-07
5.59368e-07
5.58031e-07
3.89616e-07
3.89657e-07
3.89617e-07
3.89657e-07
5.59307e-07
5.57968e-07
3.8956e-07
3.89667e-07
3.8956e-07
3.89667e-07
3.89622e-07
3.89495e-07
3.89622e-07
5.59379e-07
5.58046e-07
3.89566e-07
3.89554e-07
3.89566e-07
5.57897e-07
5.59367e-07
5.5803e-07
3.89616e-07
3.89657e-07
3.89617e-07
3.89658e-07
5.59307e-07
5.57969e-07
3.8956e-07
3.89667e-07
3.8956e-07
3.89667e-07
3.89622e-07
3.89495e-07
3.89622e-07
5.59381e-07
5.58042e-07
3.89566e-07
3.89554e-07
3.89566e-07
5.57898e-07
5.59366e-07
5.5803e-07
3.89616e-07
3.89657e-07
3.89616e-07
3.89657e-07
5.59309e-07
5.57968e-07
3.8956e-07
3.89667e-07
3.8956e-07
3.89668e-07
3.89622e-07
3.89495e-07
3.89622e-07
5.5938e-07
5.58039e-07
3.89566e-07
3.89553e-07
3.89566e-07
5.57906e-07
5.59365e-07
5.58031e-07
3.89616e-07
3.89657e-07
3.89616e-07
3.89658e-07
5.59309e-07
5.57966e-07
3.8956e-07
3.89667e-07
3.8956e-07
3.89668e-07
3.89623e-07
3.89494e-07
3.89622e-07
5.59377e-07
5.58039e-07
3.89566e-07
3.89553e-07
3.89566e-07
5.5791e-07
5.59365e-07
5.58031e-07
3.89616e-07
3.89657e-07
3.89616e-07
3.89657e-07
5.59307e-07
5.57964e-07
3.8956e-07
3.89668e-07
3.89559e-07
3.89667e-07
3.89623e-07
3.89494e-07
3.89622e-07
5.59374e-07
5.58042e-07
3.89566e-07
3.89553e-07
3.89566e-07
5.57909e-07
5.59366e-07
5.58031e-07
3.89616e-07
3.89657e-07
3.89616e-07
3.89657e-07
5.59305e-07
5.57965e-07
3.8956e-07
3.89667e-07
3.8956e-07
3.89667e-07
3.89623e-07
3.89494e-07
3.89622e-07
5.59376e-07
5.58045e-07
3.89567e-07
3.89552e-07
3.89565e-07
5.57905e-07
5.59366e-07
5.58031e-07
3.89617e-07
3.89658e-07
3.89616e-07
3.89657e-07
5.59303e-07
5.57967e-07
3.8956e-07
3.89667e-07
3.8956e-07
3.89667e-07
3.89623e-07
3.89494e-07
3.89622e-07
5.59381e-07
5.58042e-07
3.89566e-07
3.89552e-07
3.89565e-07
5.57902e-07
5.59365e-07
5.58032e-07
3.89617e-07
3.89657e-07
3.89616e-07
3.89657e-07
5.59305e-07
5.57969e-07
3.8956e-07
3.89667e-07
3.8956e-07
3.89667e-07
3.89623e-07
3.89494e-07
3.89622e-07
5.5938e-07
5.58038e-07
3.89566e-07
3.89552e-07
3.89565e-07
5.57904e-07
5.59366e-07
5.58033e-07
3.89617e-07
3.89657e-07
3.89616e-07
3.89657e-07
5.59307e-07
5.57969e-07
3.8956e-07
3.89667e-07
3.8956e-07
3.89667e-07
3.89623e-07
3.89495e-07
3.89622e-07
5.59376e-07
5.58039e-07
3.89567e-07
3.89552e-07
3.89565e-07
5.579e-07
5.59368e-07
5.58032e-07
3.89617e-07
3.89658e-07
3.89616e-07
3.89657e-07
5.59308e-07
5.57968e-07
3.8956e-07
3.89668e-07
3.89559e-07
3.89667e-07
3.89623e-07
3.89494e-07
3.89621e-07
5.59374e-07
5.58042e-07
3.89567e-07
3.89552e-07
3.89565e-07
5.57893e-07
5.59368e-07
5.5803e-07
3.89617e-07
3.89658e-07
3.89616e-07
3.89657e-07
5.59307e-07
5.57967e-07
3.89561e-07
3.89668e-07
3.89559e-07
3.89666e-07
3.89624e-07
3.89494e-07
3.89621e-07
5.59377e-07
5.58042e-07
3.89567e-07
3.89552e-07
3.89564e-07
5.579e-07
5.59366e-07
5.5803e-07
3.89617e-07
3.89658e-07
3.89616e-07
3.89657e-07
5.59306e-07
5.57968e-07
3.89561e-07
3.89668e-07
3.89559e-07
3.89666e-07
3.89623e-07
3.89494e-07
3.89621e-07
5.59379e-07
5.58037e-07
3.89567e-07
3.89552e-07
3.89564e-07
5.57912e-07
5.59366e-07
5.58031e-07
3.89618e-07
3.89658e-07
3.89616e-07
3.89656e-07
5.59306e-07
5.5797e-07
3.89561e-07
3.89668e-07
3.89559e-07
3.89666e-07
3.89623e-07
3.89494e-07
3.89621e-07
5.59374e-07
5.58041e-07
3.89567e-07
3.89551e-07
3.89564e-07
5.57908e-07
5.59367e-07
5.58031e-07
3.89618e-07
3.89658e-07
3.89615e-07
3.89656e-07
5.59308e-07
5.57969e-07
3.89561e-07
3.89668e-07
3.89559e-07
3.89666e-07
3.89623e-07
3.89494e-07
3.8962e-07
5.59373e-07
5.58047e-07
3.89567e-07
3.89551e-07
3.89564e-07
5.57907e-07
5.59367e-07
5.5803e-07
3.89618e-07
3.89658e-07
3.89615e-07
3.89656e-07
5.59309e-07
5.57967e-07
3.89561e-07
3.89668e-07
3.89558e-07
3.89666e-07
3.89624e-07
3.89494e-07
3.8962e-07
5.5938e-07
5.58046e-07
3.89567e-07
3.89551e-07
3.89564e-07
5.57908e-07
5.59366e-07
5.5803e-07
3.89618e-07
3.89659e-07
3.89615e-07
3.89655e-07
5.59307e-07
5.57966e-07
3.89561e-07
3.89669e-07
3.89558e-07
3.89665e-07
3.89624e-07
3.89494e-07
3.8962e-07
5.59383e-07
5.58042e-07
3.89567e-07
3.89551e-07
3.89563e-07
5.579e-07
5.59365e-07
5.58032e-07
3.89619e-07
3.89659e-07
3.89614e-07
3.89655e-07
5.59306e-07
5.57967e-07
3.89562e-07
3.8967e-07
3.89557e-07
3.89665e-07
3.89625e-07
3.89493e-07
3.8962e-07
5.59381e-07
5.58038e-07
3.89568e-07
3.8955e-07
3.89563e-07
5.57898e-07
5.59366e-07
5.58033e-07
3.8962e-07
3.8966e-07
3.89614e-07
3.89654e-07
5.59307e-07
5.57967e-07
3.89563e-07
3.89671e-07
3.89557e-07
3.89664e-07
3.89626e-07
3.89492e-07
3.89619e-07
5.59377e-07
5.58036e-07
3.89569e-07
3.89549e-07
3.89562e-07
5.57905e-07
5.59369e-07
5.58032e-07
3.89621e-07
3.89662e-07
3.89613e-07
3.89653e-07
5.59307e-07
5.57966e-07
3.89564e-07
3.89672e-07
3.89556e-07
3.89663e-07
3.89627e-07
3.89491e-07
3.89618e-07
5.59374e-07
5.58038e-07
3.8957e-07
3.89547e-07
3.89561e-07
5.57914e-07
5.59369e-07
5.58028e-07
3.89622e-07
3.89663e-07
3.8961e-07
3.89651e-07
5.59306e-07
5.57967e-07
3.89566e-07
3.89673e-07
3.89554e-07
3.89661e-07
3.89628e-07
3.89489e-07
3.89616e-07
5.59373e-07
5.58041e-07
3.89571e-07
3.89545e-07
3.89559e-07
5.57907e-07
5.59366e-07
5.58025e-07
3.89623e-07
3.89664e-07
3.89607e-07
3.89648e-07
5.59306e-07
5.57965e-07
3.89567e-07
3.89674e-07
3.8955e-07
3.89658e-07
3.8963e-07
3.89485e-07
3.89613e-07
5.59372e-07
5.58039e-07
3.89572e-07
3.89542e-07
3.89555e-07
5.57893e-07
5.59362e-07
5.58024e-07
3.89624e-07
3.89664e-07
3.89602e-07
3.89642e-07
5.59305e-07
5.57961e-07
3.89567e-07
3.89674e-07
3.89545e-07
3.89652e-07
3.8963e-07
3.8948e-07
3.89607e-07
5.5937e-07
5.58037e-07
3.89572e-07
3.89536e-07
3.89549e-07
5.57891e-07
5.5936e-07
5.58021e-07
3.89623e-07
3.89664e-07
3.89593e-07
3.89634e-07
5.59301e-07
5.57957e-07
3.89567e-07
3.89674e-07
3.89537e-07
3.89644e-07
3.8963e-07
3.89471e-07
3.89598e-07
5.59369e-07
5.58034e-07
3.89572e-07
3.89527e-07
3.8954e-07
5.57897e-07
5.59356e-07
5.58016e-07
3.89622e-07
3.89662e-07
3.89579e-07
3.8962e-07
5.59295e-07
5.57954e-07
3.89565e-07
3.89672e-07
3.89523e-07
3.8963e-07
3.89628e-07
3.89457e-07
3.89584e-07
5.59365e-07
5.58026e-07
3.89569e-07
3.89513e-07
3.89526e-07
5.57899e-07
5.59348e-07
5.58008e-07
3.89616e-07
3.89656e-07
3.89557e-07
3.89598e-07
5.59289e-07
5.57946e-07
3.8956e-07
3.89667e-07
3.89502e-07
3.89608e-07
3.89622e-07
3.89435e-07
3.89563e-07
5.59356e-07
5.58013e-07
3.89563e-07
3.89491e-07
3.89504e-07
5.57885e-07
5.59334e-07
5.57997e-07
3.89605e-07
3.89645e-07
3.8952e-07
3.89558e-07
5.59275e-07
5.57933e-07
3.89549e-07
3.89655e-07
3.89465e-07
3.89571e-07
3.89611e-07
3.89397e-07
3.89524e-07
5.5934e-07
5.5801e-07
3.89551e-07
3.89453e-07
3.89462e-07
5.57861e-07
5.59306e-07
5.57871e-07
3.89578e-07
3.89613e-07
3.89268e-07
3.89301e-07
5.59248e-07
5.57809e-07
3.89521e-07
3.89625e-07
3.89208e-07
3.89311e-07
3.89581e-07
3.89146e-07
3.89272e-07
5.59313e-07
5.57891e-07
3.89519e-07
3.89195e-07
3.89201e-07
5.57725e-07
5.59099e-07
5.4598e-07
3.89505e-07
3.89537e-07
3.78638e-07
3.7867e-07
5.59044e-07
5.45941e-07
3.89444e-07
3.89553e-07
3.78609e-07
3.78651e-07
3.89513e-07
3.78568e-07
3.78633e-07
5.59111e-07
5.4598e-07
3.89438e-07
3.78584e-07
3.78595e-07
5.45975e-07
5.31695e-07
3.68115e-07
3.68143e-07
5.31668e-07
3.68097e-07
3.68123e-07
2.0879e-07
2.08785e-07
2.08784e-07
3.68109e-07
5.31695e-07
3.68085e-07
1.39782e-07
3.13811e-08
1.01262e-07
1.01141e-07
1.01318e-09
8.33554e-09
1.84782e-08
6.5023e-08
1.38669e-09
7.91226e-09
6.52725e-08
1.45133e-08
6.91088e-09
4.17237e-09
6.08592e-09
6.55495e-09
1.72413e-07
4.8645e-09
2.66617e-07
1.65758e-06
3.22955e-06
6.36957e-09
1.6333e-07
4.96302e-09
2.53356e-07
6.29167e-08
6.2847e-08
6.39113e-08
6.32654e-08
6.31587e-08
6.30798e-08
6.41139e-08
1.07958e-09
1.03555e-07
3.03861e-08
1.1374e-08
1.05502e-09
8.0863e-08
3.02294e-08
1.55167e-06
3.06712e-06
1.34e-09
3.09447e-08
9.08771e-08
9.88468e-09
1.36397e-09
3.08754e-08
6.97161e-08
1.97916e-07
2.177e-07
6.5868e-09
1.74106e-07
1.88457e-07
1.46871e-08
4.93015e-07
1.1364e-08
6.99274e-07
7.19685e-06
1.02422e-05
1.44168e-08
4.55021e-07
1.13461e-08
6.85319e-07
6.37084e-08