/*--------------------------------*- C++ -*----------------------------------*\
| =========                 |                                                 |
| \\      /  F ield         | OpenFOAM: The Open Source CFD Toolbox           |
|  \\    /   O peration     | Version:  v2012                                 |
|   \\  /    A nd           | Website:  www.openfoam.com                      |
|    \\/     M anipulation  |                                                 |
\*---------------------------------------------------------------------------*/
FoamFile
{
    version     2.0;
    format      ascii;
    class       volScalarField;
    location    "100";
    object      k;
}
// * * * * * * * * * * * * * * * * * * * * * * * * * * * * * * * * * * * * * //

dimensions      [0 2 -2 0 0 0 0];


internalField   nonuniform List<scalar> 
171728
(
5.76175e-06
8.65454e-07
8.23762e-07
4.0054e-07
5.84785e-06
9.37683e-07
8.77305e-07
4.20685e-07
6.05791e-06
1.04319e-06
9.57125e-07
4.52432e-07
6.26187e-06
1.15962e-06
1.05435e-06
4.85127e-07
6.46022e-06
1.28487e-06
1.17315e-06
5.16262e-07
6.65487e-06
1.42118e-06
1.31178e-06
5.46979e-07
6.8457e-06
1.56874e-06
1.47178e-06
5.81936e-07
7.03219e-06
1.71543e-06
1.65877e-06
6.144e-07
7.22e-06
1.87975e-06
1.87006e-06
6.48908e-07
7.40067e-06
2.0924e-06
2.11591e-06
7.3923e-07
7.59684e-06
2.35503e-06
2.41506e-06
8.82781e-07
7.8039e-06
2.67539e-06
2.7586e-06
1.09574e-06
8.01461e-06
3.08677e-06
3.1631e-06
1.40792e-06
8.24566e-06
3.57315e-06
3.63426e-06
1.80824e-06
8.48184e-06
4.09577e-06
4.15703e-06
2.26854e-06
8.75962e-06
4.70247e-06
4.77589e-06
2.8809e-06
9.09305e-06
5.42502e-06
5.50793e-06
3.71259e-06
9.49626e-06
6.29435e-06
6.3791e-06
4.85383e-06
1.0006e-05
7.39625e-06
7.46417e-06
6.41787e-06
1.06335e-05
8.8865e-06
8.92818e-06
8.76194e-06
1.15031e-05
1.09941e-05
1.10287e-05
1.2099e-05
1.27067e-05
1.38061e-05
1.38225e-05
1.6279e-05
1.3985e-05
1.67367e-05
1.67417e-05
2.00735e-05
1.53035e-05
1.9351e-05
1.93531e-05
2.29468e-05
1.62896e-05
2.09484e-05
2.09499e-05
2.4501e-05
1.67392e-05
2.15297e-05
2.15312e-05
2.49621e-05
1.68723e-05
2.16726e-05
2.16741e-05
2.50642e-05
1.69014e-05
2.1701e-05
2.17024e-05
2.50866e-05
1.69066e-05
2.17056e-05
2.1707e-05
2.50902e-05
1.69074e-05
2.1706e-05
2.17075e-05
2.50885e-05
1.69077e-05
2.17064e-05
2.17078e-05
2.50898e-05
1.69079e-05
2.17065e-05
2.17079e-05
2.50894e-05
1.69082e-05
2.17067e-05
2.17082e-05
2.50899e-05
1.69084e-05
2.17069e-05
2.17083e-05
2.50899e-05
1.69085e-05
2.17071e-05
2.17085e-05
2.509e-05
1.69086e-05
2.17072e-05
2.17086e-05
2.50899e-05
1.69087e-05
2.17072e-05
2.17086e-05
2.50898e-05
1.69088e-05
2.17072e-05
2.17085e-05
2.50901e-05
1.69089e-05
2.17073e-05
2.17086e-05
2.509e-05
1.69089e-05
2.17073e-05
2.17086e-05
2.50901e-05
1.6909e-05
2.17072e-05
2.17086e-05
2.50908e-05
1.6909e-05
2.17072e-05
2.17086e-05
2.50909e-05
1.69089e-05
2.17072e-05
2.17086e-05
2.50903e-05
1.69089e-05
2.17072e-05
2.17085e-05
2.50896e-05
1.69089e-05
2.17072e-05
2.17085e-05
2.5089e-05
1.69089e-05
2.17072e-05
2.17085e-05
2.50884e-05
1.69089e-05
2.17072e-05
2.17085e-05
2.50881e-05
1.69089e-05
2.17073e-05
2.17085e-05
2.5088e-05
1.69089e-05
2.17073e-05
2.17085e-05
2.5088e-05
1.69089e-05
2.17073e-05
2.17085e-05
2.50879e-05
1.6909e-05
2.17073e-05
2.17085e-05
2.50879e-05
1.6909e-05
2.17073e-05
2.17085e-05
2.5088e-05
1.6909e-05
2.17073e-05
2.17085e-05
2.50881e-05
1.6909e-05
2.17073e-05
2.17085e-05
2.50881e-05
1.6909e-05
2.17073e-05
2.17085e-05
2.50881e-05
1.6909e-05
2.17073e-05
2.17085e-05
2.50881e-05
1.6909e-05
2.17073e-05
2.17085e-05
2.50881e-05
1.6909e-05
2.17073e-05
2.17085e-05
2.50883e-05
1.6909e-05
2.17073e-05
2.17085e-05
2.50883e-05
1.6909e-05
2.17073e-05
2.17085e-05
2.5088e-05
1.6909e-05
2.17073e-05
2.17085e-05
2.50878e-05
1.6909e-05
2.17073e-05
2.17085e-05
2.50879e-05
1.6909e-05
2.17073e-05
2.17086e-05
2.50881e-05
1.6909e-05
2.17073e-05
2.17086e-05
2.50882e-05
1.6909e-05
2.17073e-05
2.17085e-05
2.50881e-05
1.6909e-05
2.17073e-05
2.17085e-05
2.5088e-05
1.6909e-05
2.17073e-05
2.17085e-05
2.50881e-05
1.6909e-05
2.17073e-05
2.17085e-05
2.50882e-05
1.6909e-05
2.17073e-05
2.17085e-05
2.50879e-05
1.6909e-05
2.17073e-05
2.17085e-05
2.50878e-05
1.6909e-05
2.17073e-05
2.17085e-05
2.50879e-05
1.6909e-05
2.17073e-05
2.17085e-05
2.5088e-05
1.6909e-05
2.17073e-05
2.17085e-05
2.50881e-05
1.6909e-05
2.17073e-05
2.17085e-05
2.50881e-05
1.6909e-05
2.17073e-05
2.17085e-05
2.50881e-05
1.6909e-05
2.17074e-05
2.17085e-05
2.50883e-05
1.69091e-05
2.17074e-05
2.17085e-05
2.50882e-05
1.69091e-05
2.17073e-05
2.17085e-05
2.50878e-05
1.69091e-05
2.17074e-05
2.17085e-05
2.50879e-05
1.69091e-05
2.17074e-05
2.17085e-05
2.50879e-05
1.69091e-05
2.17075e-05
2.17085e-05
2.50879e-05
1.69092e-05
2.17075e-05
2.17086e-05
2.50881e-05
1.69092e-05
2.17075e-05
2.17086e-05
2.50882e-05
1.69092e-05
2.17076e-05
2.17086e-05
2.5088e-05
1.69092e-05
2.17076e-05
2.17087e-05
2.50879e-05
1.69093e-05
2.17077e-05
2.17088e-05
2.50881e-05
1.69093e-05
2.17078e-05
2.17088e-05
2.50884e-05
1.69094e-05
2.17079e-05
2.17089e-05
2.50885e-05
1.69094e-05
2.17081e-05
2.17091e-05
2.50882e-05
1.69095e-05
2.17083e-05
2.17093e-05
2.5088e-05
1.69096e-05
2.17086e-05
2.17097e-05
2.50882e-05
1.69097e-05
2.17092e-05
2.17103e-05
2.50885e-05
1.69097e-05
2.17101e-05
2.17111e-05
2.50884e-05
1.69053e-05
2.17071e-05
2.1708e-05
2.50843e-05
1.67631e-05
2.1154e-05
2.11539e-05
2.45472e-05
3.47905e-07
5.97766e-07
5.67492e-07
3.93327e-07
4.90739e-07
6.12336e-07
5.86289e-06
5.86024e-06
5.85747e-06
5.89488e-06
6.18987e-07
5.83916e-07
4.56332e-07
6.29461e-07
6.66964e-07
4.0078e-07
3.44865e-07
3.47522e-07
8.1833e-07
7.62088e-07
8.69657e-07
8.07537e-07
3.92632e-07
4.01731e-07
6.82771e-07
7.82757e-07
7.32359e-07
8.33056e-07
7.92328e-07
9.13415e-07
8.44831e-07
4.55206e-07
4.54351e-07
9.6404e-07
8.59981e-07
1.02128e-06
4.21501e-07
3.46255e-07
3.69873e-07
8.95905e-07
8.31883e-07
9.77708e-07
9.03098e-07
4.00597e-07
4.22078e-07
7.57461e-07
8.57896e-07
8.39969e-07
9.34176e-07
8.70979e-07
1.01576e-06
9.54342e-07
4.51786e-07
4.48775e-07
1.04922e-06
9.36105e-07
1.13596e-06
4.53432e-07
3.69087e-07
4.04975e-07
1.00597e-06
9.27886e-07
1.09386e-06
1.01528e-06
4.20953e-07
4.50857e-07
8.69403e-07
9.61038e-07
9.64184e-07
1.04455e-06
9.8353e-07
1.13117e-06
1.07496e-06
4.45098e-07
4.42859e-07
1.16667e-06
1.02958e-06
1.26178e-06
4.86748e-07
4.0441e-07
4.50704e-07
1.12425e-06
1.04002e-06
1.21808e-06
1.1282e-06
4.49597e-07
4.81043e-07
9.99094e-07
1.07304e-06
1.10789e-06
1.16546e-06
1.10595e-06
1.25579e-06
1.20196e-06
4.39264e-07
4.4186e-07
1.29413e-06
1.14303e-06
1.39853e-06
5.18534e-07
4.50045e-07
4.99651e-07
1.25032e-06
1.1654e-06
1.35312e-06
1.26935e-06
4.79613e-07
5.22574e-07
1.14466e-06
1.19704e-06
1.26073e-06
1.30082e-06
1.23561e-06
1.38522e-06
1.34244e-06
4.38511e-07
4.57227e-07
1.43478e-06
1.27449e-06
1.54924e-06
5.49688e-07
4.98629e-07
5.56663e-07
1.3897e-06
1.30268e-06
1.50688e-06
1.4171e-06
5.20993e-07
5.61845e-07
1.30175e-06
1.33608e-06
1.43054e-06
1.45001e-06
1.37697e-06
1.53071e-06
1.49072e-06
4.54455e-07
4.91726e-07
1.59021e-06
1.43122e-06
1.70734e-06
5.85156e-07
5.55786e-07
6.26105e-07
1.55032e-06
1.45758e-06
1.68325e-06
1.58264e-06
5.59263e-07
6.03679e-07
1.47587e-06
1.49276e-06
1.61616e-06
1.62294e-06
1.52997e-06
1.67848e-06
1.65554e-06
4.8969e-07
5.49062e-07
1.74752e-06
1.60884e-06
1.86278e-06
6.18606e-07
6.25383e-07
7.11771e-07
1.72978e-06
1.63078e-06
1.89072e-06
1.78489e-06
6.01396e-07
6.6543e-07
1.66376e-06
1.67075e-06
1.81433e-06
1.81528e-06
1.70262e-06
1.83524e-06
1.84624e-06
5.47656e-07
6.29896e-07
1.89118e-06
1.81462e-06
1.92807e-06
6.51936e-07
7.11688e-07
8.16994e-07
1.95024e-06
1.84106e-06
2.11471e-06
2.02129e-06
6.63946e-07
7.55779e-07
1.87219e-06
1.86734e-06
2.05263e-06
2.04804e-06
1.90132e-06
2.03699e-06
2.09009e-06
6.29618e-07
7.4228e-07
1.94255e-06
2.0527e-06
2.06118e-06
7.3863e-07
8.17455e-07
9.49019e-07
2.16586e-06
2.08354e-06
2.33594e-06
2.30035e-06
7.55875e-07
8.98805e-07
2.11249e-06
2.10718e-06
2.31586e-06
2.29483e-06
2.15399e-06
2.28524e-06
2.34796e-06
7.44144e-07
8.98105e-07
2.11502e-06
2.33739e-06
2.31289e-06
8.78904e-07
9.53283e-07
1.15129e-06
2.39547e-06
2.38151e-06
2.60346e-06
2.63755e-06
9.04334e-07
1.12383e-06
2.39073e-06
2.37524e-06
2.63008e-06
2.61367e-06
2.41423e-06
2.58518e-06
2.61152e-06
9.04213e-07
1.12698e-06
2.38673e-06
2.66434e-06
2.63042e-06
1.08485e-06
1.16141e-06
1.44573e-06
2.69187e-06
2.73379e-06
2.98021e-06
3.02994e-06
1.13629e-06
1.44108e-06
2.7216e-06
2.69619e-06
3.01217e-06
2.995e-06
2.68765e-06
2.98052e-06
2.95631e-06
1.13847e-06
1.44117e-06
2.72218e-06
3.05948e-06
3.00565e-06
1.38936e-06
1.46376e-06
1.83152e-06
3.08414e-06
3.13123e-06
3.44197e-06
3.48038e-06
1.45928e-06
1.82513e-06
3.11365e-06
3.10708e-06
3.46936e-06
3.47929e-06
3.05664e-06
3.45236e-06
3.41355e-06
1.45977e-06
1.82811e-06
3.10972e-06
3.51756e-06
3.47099e-06
1.78438e-06
1.85404e-06
2.26639e-06
3.56008e-06
3.59834e-06
3.94331e-06
3.9761e-06
1.84789e-06
2.27137e-06
3.58732e-06
3.59911e-06
3.95263e-06
3.96771e-06
3.53483e-06
3.95143e-06
3.91178e-06
1.85057e-06
2.27239e-06
3.58846e-06
4.01245e-06
3.9586e-06
2.23712e-06
2.29691e-06
2.85631e-06
4.09014e-06
4.12175e-06
4.54451e-06
4.57778e-06
2.30299e-06
2.86677e-06
4.09619e-06
4.11073e-06
4.55708e-06
4.56277e-06
4.05546e-06
4.54852e-06
4.51176e-06
2.30396e-06
2.87209e-06
4.10081e-06
4.61713e-06
4.54843e-06
2.83249e-06
2.90443e-06
3.62531e-06
4.70203e-06
4.73439e-06
5.22799e-06
5.25346e-06
2.91473e-06
3.63346e-06
4.71285e-06
4.71691e-06
5.22844e-06
5.23441e-06
4.67092e-06
5.22543e-06
5.20107e-06
2.92082e-06
3.65104e-06
4.70401e-06
5.30787e-06
5.225e-06
3.60559e-06
3.73209e-06
4.67154e-06
5.42798e-06
5.45119e-06
6.06803e-06
6.08999e-06
3.74006e-06
4.67732e-06
5.42922e-06
5.43512e-06
6.08258e-06
6.08249e-06
5.40248e-06
6.06718e-06
6.04836e-06
3.76101e-06
4.71066e-06
5.4251e-06
6.1508e-06
6.06951e-06
4.65622e-06
4.86748e-06
6.11991e-06
6.29555e-06
6.31776e-06
7.08478e-06
7.10161e-06
4.8732e-06
6.1272e-06
6.31257e-06
6.31122e-06
7.09389e-06
7.095e-06
6.27883e-06
7.08604e-06
7.07565e-06
4.90754e-06
6.15632e-06
6.29838e-06
7.16219e-06
7.08814e-06
6.11557e-06
6.41966e-06
8.30198e-06
7.3951e-06
7.40876e-06
8.47282e-06
8.47703e-06
6.42804e-06
8.31073e-06
7.40073e-06
7.40288e-06
8.4785e-06
8.47838e-06
7.38741e-06
8.47534e-06
8.46508e-06
6.45413e-06
8.32263e-06
7.39849e-06
8.52002e-06
8.47529e-06
8.30482e-06
8.76134e-06
1.14689e-05
8.88551e-06
8.88737e-06
1.03859e-05
1.03833e-05
8.76748e-06
1.14591e-05
8.89366e-06
8.89214e-06
1.03966e-05
1.03958e-05
8.87701e-06
1.03842e-05
1.03763e-05
8.77882e-06
1.14846e-05
8.88707e-06
1.04217e-05
1.0384e-05
1.14553e-05
1.21133e-05
1.55563e-05
1.09973e-05
1.09944e-05
1.30802e-05
1.30781e-05
1.21025e-05
1.55495e-05
1.1007e-05
1.10075e-05
1.30847e-05
1.30882e-05
1.09882e-05
1.30771e-05
1.30744e-05
1.21302e-05
1.55693e-05
1.09948e-05
1.30981e-05
1.30773e-05
1.55482e-05
1.62858e-05
1.94671e-05
1.38095e-05
1.3808e-05
1.60092e-05
1.6009e-05
1.62801e-05
1.94652e-05
1.38125e-05
1.38163e-05
1.60094e-05
1.60129e-05
1.38049e-05
1.60071e-05
1.60075e-05
1.62968e-05
1.94712e-05
1.3807e-05
1.60137e-05
1.60076e-05
1.94659e-05
2.00744e-05
2.25148e-05
1.6739e-05
1.67392e-05
1.87744e-05
1.87748e-05
2.0073e-05
2.25138e-05
1.67389e-05
1.67421e-05
1.87734e-05
1.8776e-05
1.6738e-05
1.87725e-05
1.87746e-05
2.00777e-05
2.25162e-05
1.67378e-05
1.8775e-05
1.87737e-05
2.25155e-05
2.29463e-05
2.4292e-05
1.93531e-05
1.93536e-05
2.06627e-05
2.06631e-05
2.29453e-05
2.42908e-05
1.93521e-05
1.93544e-05
2.06617e-05
2.06634e-05
1.93535e-05
2.06609e-05
2.06633e-05
2.29473e-05
2.42922e-05
1.93526e-05
2.06624e-05
2.06625e-05
2.42927e-05
2.45005e-05
2.48961e-05
2.09503e-05
2.09508e-05
2.14485e-05
2.14487e-05
2.44993e-05
2.48949e-05
2.09493e-05
2.09509e-05
2.14474e-05
2.14487e-05
2.09511e-05
2.14465e-05
2.14494e-05
2.45005e-05
2.48963e-05
2.09502e-05
2.14481e-05
2.14486e-05
2.48974e-05
2.49609e-05
2.503e-05
2.15316e-05
2.15318e-05
2.16565e-05
2.16568e-05
2.49598e-05
2.50288e-05
2.15306e-05
2.15318e-05
2.16557e-05
2.16567e-05
2.15325e-05
2.16546e-05
2.16574e-05
2.49609e-05
2.50299e-05
2.15318e-05
2.16561e-05
2.16567e-05
2.5031e-05
2.50632e-05
2.50592e-05
2.16745e-05
2.16747e-05
2.16994e-05
2.16996e-05
2.5062e-05
2.50579e-05
2.16737e-05
2.16746e-05
2.16986e-05
2.16996e-05
2.16753e-05
2.16975e-05
2.17001e-05
2.5063e-05
2.50589e-05
2.16746e-05
2.16989e-05
2.16995e-05
2.506e-05
2.50858e-05
2.50651e-05
2.17029e-05
2.17031e-05
2.17072e-05
2.17074e-05
2.50846e-05
2.50638e-05
2.17021e-05
2.1703e-05
2.17064e-05
2.17073e-05
2.17035e-05
2.17052e-05
2.17077e-05
2.50855e-05
2.50649e-05
2.17029e-05
2.17066e-05
2.1707e-05
2.50658e-05
2.50897e-05
2.50631e-05
2.17075e-05
2.17077e-05
2.17079e-05
2.17081e-05
2.50884e-05
2.50618e-05
2.17068e-05
2.17077e-05
2.17072e-05
2.1708e-05
2.1708e-05
2.1706e-05
2.17083e-05
2.50894e-05
2.50629e-05
2.17073e-05
2.17074e-05
2.17077e-05
2.50636e-05
2.50881e-05
2.50645e-05
2.1708e-05
2.17082e-05
2.17082e-05
2.17085e-05
2.50868e-05
2.50632e-05
2.17073e-05
2.17081e-05
2.17076e-05
2.17084e-05
2.17084e-05
2.17063e-05
2.17086e-05
2.50878e-05
2.50643e-05
2.17077e-05
2.17077e-05
2.1708e-05
2.5065e-05
2.50893e-05
2.50641e-05
2.17083e-05
2.17086e-05
2.17084e-05
2.17087e-05
2.50881e-05
2.50628e-05
2.17077e-05
2.17085e-05
2.17078e-05
2.17086e-05
2.17087e-05
2.17065e-05
2.17088e-05
2.5089e-05
2.50639e-05
2.1708e-05
2.17079e-05
2.17081e-05
2.50646e-05
2.5089e-05
2.50646e-05
2.17084e-05
2.17087e-05
2.17086e-05
2.17089e-05
2.50877e-05
2.50632e-05
2.17078e-05
2.17086e-05
2.1708e-05
2.17088e-05
2.17089e-05
2.17067e-05
2.1709e-05
2.50887e-05
2.50644e-05
2.17082e-05
2.17081e-05
2.17083e-05
2.50651e-05
2.50894e-05
2.50646e-05
2.17086e-05
2.1709e-05
2.17088e-05
2.17092e-05
2.50881e-05
2.50633e-05
2.17081e-05
2.17088e-05
2.17083e-05
2.1709e-05
2.17091e-05
2.17069e-05
2.17093e-05
2.50891e-05
2.50644e-05
2.17084e-05
2.17083e-05
2.17085e-05
2.50651e-05
2.50894e-05
2.50647e-05
2.17088e-05
2.17092e-05
2.17089e-05
2.17094e-05
2.50882e-05
2.50635e-05
2.17083e-05
2.17091e-05
2.17085e-05
2.17092e-05
2.17093e-05
2.17071e-05
2.17094e-05
2.50892e-05
2.50646e-05
2.17085e-05
2.17085e-05
2.17086e-05
2.50652e-05
2.50895e-05
2.50647e-05
2.17089e-05
2.17094e-05
2.17089e-05
2.17094e-05
2.50884e-05
2.50635e-05
2.17085e-05
2.17093e-05
2.17086e-05
2.17093e-05
2.17094e-05
2.17072e-05
2.17094e-05
2.50893e-05
2.50646e-05
2.17086e-05
2.17086e-05
2.17087e-05
2.50651e-05
2.50896e-05
2.50647e-05
2.17089e-05
2.17095e-05
2.17089e-05
2.17094e-05
2.50884e-05
2.50634e-05
2.17086e-05
2.17093e-05
2.17086e-05
2.17093e-05
2.17095e-05
2.17072e-05
2.17094e-05
2.50894e-05
2.50645e-05
2.17087e-05
2.17086e-05
2.17087e-05
2.50651e-05
2.50896e-05
2.50646e-05
2.17089e-05
2.17095e-05
2.17089e-05
2.17094e-05
2.50884e-05
2.50633e-05
2.17086e-05
2.17093e-05
2.17086e-05
2.17093e-05
2.17095e-05
2.17072e-05
2.17095e-05
2.50893e-05
2.50645e-05
2.17087e-05
2.17085e-05
2.17087e-05
2.50654e-05
2.50894e-05
2.50649e-05
2.17089e-05
2.17094e-05
2.1709e-05
2.17095e-05
2.50881e-05
2.50638e-05
2.17086e-05
2.17093e-05
2.17086e-05
2.17093e-05
2.17094e-05
2.17073e-05
2.17095e-05
2.50891e-05
2.50649e-05
2.17087e-05
2.17086e-05
2.17087e-05
2.50652e-05
2.50896e-05
2.50652e-05
2.17089e-05
2.17094e-05
2.1709e-05
2.17095e-05
2.50886e-05
2.50638e-05
2.17086e-05
2.17093e-05
2.17087e-05
2.17093e-05
2.17095e-05
2.17073e-05
2.17095e-05
2.50895e-05
2.50648e-05
2.17087e-05
2.17086e-05
2.17087e-05
2.50654e-05
2.50901e-05
2.50646e-05
2.1709e-05
2.17095e-05
2.17089e-05
2.17095e-05
2.5089e-05
2.5063e-05
2.17087e-05
2.17093e-05
2.17086e-05
2.17093e-05
2.17095e-05
2.17072e-05
2.17095e-05
2.50897e-05
2.50642e-05
2.17087e-05
2.17086e-05
2.17087e-05
2.50658e-05
2.50898e-05
2.5064e-05
2.17089e-05
2.17095e-05
2.17089e-05
2.17094e-05
2.50883e-05
2.50627e-05
2.17087e-05
2.17093e-05
2.17087e-05
2.17093e-05
2.17095e-05
2.17072e-05
2.17095e-05
2.50893e-05
2.5064e-05
2.17087e-05
2.17085e-05
2.17087e-05
2.50653e-05
2.5089e-05
2.50644e-05
2.17089e-05
2.17094e-05
2.17088e-05
2.17094e-05
2.50875e-05
2.50634e-05
2.17087e-05
2.17093e-05
2.17087e-05
2.17093e-05
2.17095e-05
2.17072e-05
2.17095e-05
2.50888e-05
2.50644e-05
2.17087e-05
2.17085e-05
2.17087e-05
2.50644e-05
2.50889e-05
2.50649e-05
2.17088e-05
2.17094e-05
2.17089e-05
2.17094e-05
2.50877e-05
2.5064e-05
2.17087e-05
2.17093e-05
2.17087e-05
2.17093e-05
2.17095e-05
2.17072e-05
2.17095e-05
2.50889e-05
2.50646e-05
2.17088e-05
2.17085e-05
2.17087e-05
2.50637e-05
2.50893e-05
2.50651e-05
2.17089e-05
2.17094e-05
2.17089e-05
2.17094e-05
2.50884e-05
2.50639e-05
2.17087e-05
2.17093e-05
2.17087e-05
2.17093e-05
2.17095e-05
2.17072e-05
2.17094e-05
2.50892e-05
2.50646e-05
2.17087e-05
2.17085e-05
2.17087e-05
2.50632e-05
2.50896e-05
2.5065e-05
2.17089e-05
2.17094e-05
2.17089e-05
2.17094e-05
2.50886e-05
2.50636e-05
2.17087e-05
2.17093e-05
2.17086e-05
2.17093e-05
2.17095e-05
2.17072e-05
2.17094e-05
2.50892e-05
2.50645e-05
2.17087e-05
2.17085e-05
2.17087e-05
2.50627e-05
2.50896e-05
2.5065e-05
2.17089e-05
2.17094e-05
2.1709e-05
2.17094e-05
2.50884e-05
2.50634e-05
2.17087e-05
2.17093e-05
2.17086e-05
2.17093e-05
2.17095e-05
2.17072e-05
2.17094e-05
2.50891e-05
2.50645e-05
2.17087e-05
2.17085e-05
2.17087e-05
2.50625e-05
2.50896e-05
2.50649e-05
2.1709e-05
2.17094e-05
2.17091e-05
2.17095e-05
2.50882e-05
2.50635e-05
2.17086e-05
2.17093e-05
2.17086e-05
2.17093e-05
2.17095e-05
2.17072e-05
2.17095e-05
2.50891e-05
2.50645e-05
2.17087e-05
2.17085e-05
2.17087e-05
2.50623e-05
2.50896e-05
2.50649e-05
2.17091e-05
2.17095e-05
2.17091e-05
2.17095e-05
2.50882e-05
2.50635e-05
2.17086e-05
2.17093e-05
2.17086e-05
2.17093e-05
2.17095e-05
2.17072e-05
2.17094e-05
2.50891e-05
2.50646e-05
2.17087e-05
2.17085e-05
2.17087e-05
2.50621e-05
2.50895e-05
2.5065e-05
2.17091e-05
2.17095e-05
2.17092e-05
2.17095e-05
2.50882e-05
2.50636e-05
2.17086e-05
2.17093e-05
2.17085e-05
2.17093e-05
2.17095e-05
2.17072e-05
2.17094e-05
2.50891e-05
2.50646e-05
2.17087e-05
2.17085e-05
2.17087e-05
2.50621e-05
2.50895e-05
2.50651e-05
2.17092e-05
2.17095e-05
2.17092e-05
2.17094e-05
2.50882e-05
2.50636e-05
2.17086e-05
2.17093e-05
2.17085e-05
2.17093e-05
2.17095e-05
2.17073e-05
2.17094e-05
2.50891e-05
2.50647e-05
2.17087e-05
2.17085e-05
2.17087e-05
2.50621e-05
2.50896e-05
2.50651e-05
2.17092e-05
2.17095e-05
2.17093e-05
2.17095e-05
2.50882e-05
2.50637e-05
2.17085e-05
2.17093e-05
2.17085e-05
2.17093e-05
2.17095e-05
2.17073e-05
2.17094e-05
2.50891e-05
2.50647e-05
2.17087e-05
2.17085e-05
2.17087e-05
2.50622e-05
2.50896e-05
2.50652e-05
2.17093e-05
2.17095e-05
2.17093e-05
2.17095e-05
2.50882e-05
2.50637e-05
2.17085e-05
2.17093e-05
2.17085e-05
2.17093e-05
2.17095e-05
2.17073e-05
2.17094e-05
2.50891e-05
2.50648e-05
2.17087e-05
2.17085e-05
2.17087e-05
2.50621e-05
2.50897e-05
2.50651e-05
2.17094e-05
2.17095e-05
2.17094e-05
2.17095e-05
2.50883e-05
2.50638e-05
2.17085e-05
2.17093e-05
2.17085e-05
2.17093e-05
2.17095e-05
2.17073e-05
2.17094e-05
2.50892e-05
2.50647e-05
2.17087e-05
2.17085e-05
2.17086e-05
2.50621e-05
2.50896e-05
2.50651e-05
2.17094e-05
2.17095e-05
2.17094e-05
2.17095e-05
2.50883e-05
2.50638e-05
2.17086e-05
2.17093e-05
2.17085e-05
2.17093e-05
2.17095e-05
2.17073e-05
2.17095e-05
2.50892e-05
2.50647e-05
2.17087e-05
2.17085e-05
2.17086e-05
2.50621e-05
2.50896e-05
2.50651e-05
2.17094e-05
2.17095e-05
2.17094e-05
2.17095e-05
2.50883e-05
2.50638e-05
2.17085e-05
2.17093e-05
2.17085e-05
2.17093e-05
2.17095e-05
2.17073e-05
2.17095e-05
2.50892e-05
2.50647e-05
2.17087e-05
2.17085e-05
2.17086e-05
2.50621e-05
2.50896e-05
2.50652e-05
2.17094e-05
2.17095e-05
2.17094e-05
2.17095e-05
2.50883e-05
2.50638e-05
2.17085e-05
2.17093e-05
2.17085e-05
2.17093e-05
2.17095e-05
2.17073e-05
2.17094e-05
2.50892e-05
2.50646e-05
2.17086e-05
2.17085e-05
2.17086e-05
2.50621e-05
2.50896e-05
2.50653e-05
2.17094e-05
2.17095e-05
2.17095e-05
2.17095e-05
2.50883e-05
2.50637e-05
2.17085e-05
2.17093e-05
2.17085e-05
2.17093e-05
2.17095e-05
2.17073e-05
2.17094e-05
2.50891e-05
2.50647e-05
2.17086e-05
2.17085e-05
2.17086e-05
2.50622e-05
2.50897e-05
2.50653e-05
2.17095e-05
2.17095e-05
2.17095e-05
2.17095e-05
2.50883e-05
2.50637e-05
2.17085e-05
2.17093e-05
2.17085e-05
2.17093e-05
2.17095e-05
2.17073e-05
2.17095e-05
2.50891e-05
2.50647e-05
2.17086e-05
2.17085e-05
2.17086e-05
2.50621e-05
2.50897e-05
2.50652e-05
2.17095e-05
2.17095e-05
2.17095e-05
2.17095e-05
2.50883e-05
2.50638e-05
2.17085e-05
2.17093e-05
2.17085e-05
2.17093e-05
2.17095e-05
2.17073e-05
2.17095e-05
2.50892e-05
2.50647e-05
2.17086e-05
2.17085e-05
2.17086e-05
2.5062e-05
2.50897e-05
2.50653e-05
2.17095e-05
2.17095e-05
2.17095e-05
2.17095e-05
2.50883e-05
2.50638e-05
2.17085e-05
2.17093e-05
2.17085e-05
2.17093e-05
2.17095e-05
2.17073e-05
2.17095e-05
2.50891e-05
2.50647e-05
2.17086e-05
2.17085e-05
2.17085e-05
2.50621e-05
2.50897e-05
2.50652e-05
2.17095e-05
2.17095e-05
2.17095e-05
2.17095e-05
2.50883e-05
2.50638e-05
2.17085e-05
2.17093e-05
2.17084e-05
2.17093e-05
2.17095e-05
2.17073e-05
2.17095e-05
2.50892e-05
2.50648e-05
2.17086e-05
2.17085e-05
2.17085e-05
2.50622e-05
2.50897e-05
2.50652e-05
2.17095e-05
2.17095e-05
2.17095e-05
2.17095e-05
2.50883e-05
2.50638e-05
2.17084e-05
2.17093e-05
2.17084e-05
2.17093e-05
2.17095e-05
2.17073e-05
2.17094e-05
2.50892e-05
2.50647e-05
2.17085e-05
2.17085e-05
2.17085e-05
2.50621e-05
2.50897e-05
2.50651e-05
2.17095e-05
2.17095e-05
2.17095e-05
2.17095e-05
2.50883e-05
2.50638e-05
2.17084e-05
2.17093e-05
2.17084e-05
2.17093e-05
2.17095e-05
2.17073e-05
2.17094e-05
2.50892e-05
2.50646e-05
2.17085e-05
2.17085e-05
2.17085e-05
2.50621e-05
2.50896e-05
2.50652e-05
2.17095e-05
2.17095e-05
2.17095e-05
2.17095e-05
2.50883e-05
2.50638e-05
2.17084e-05
2.17093e-05
2.17084e-05
2.17093e-05
2.17094e-05
2.17073e-05
2.17094e-05
2.50891e-05
2.50647e-05
2.17085e-05
2.17085e-05
2.17084e-05
2.5062e-05
2.50896e-05
2.50652e-05
2.17095e-05
2.17095e-05
2.17095e-05
2.17095e-05
2.50884e-05
2.50638e-05
2.17084e-05
2.17093e-05
2.17084e-05
2.17093e-05
2.17094e-05
2.17073e-05
2.17094e-05
2.50891e-05
2.50647e-05
2.17085e-05
2.17085e-05
2.17084e-05
2.50621e-05
2.50896e-05
2.50652e-05
2.17095e-05
2.17095e-05
2.17095e-05
2.17095e-05
2.50884e-05
2.50637e-05
2.17084e-05
2.17093e-05
2.17084e-05
2.17093e-05
2.17094e-05
2.17073e-05
2.17094e-05
2.50891e-05
2.50647e-05
2.17085e-05
2.17085e-05
2.17085e-05
2.50621e-05
2.50897e-05
2.50652e-05
2.17095e-05
2.17095e-05
2.17095e-05
2.17095e-05
2.50883e-05
2.50638e-05
2.17084e-05
2.17093e-05
2.17084e-05
2.17093e-05
2.17094e-05
2.17073e-05
2.17094e-05
2.50892e-05
2.50648e-05
2.17085e-05
2.17085e-05
2.17085e-05
2.5062e-05
2.50897e-05
2.50652e-05
2.17095e-05
2.17095e-05
2.17095e-05
2.17095e-05
2.50883e-05
2.50638e-05
2.17084e-05
2.17093e-05
2.17084e-05
2.17093e-05
2.17094e-05
2.17073e-05
2.17094e-05
2.50893e-05
2.50647e-05
2.17085e-05
2.17085e-05
2.17085e-05
2.5062e-05
2.50896e-05
2.50651e-05
2.17095e-05
2.17095e-05
2.17095e-05
2.17095e-05
2.50884e-05
2.50638e-05
2.17084e-05
2.17093e-05
2.17084e-05
2.17093e-05
2.17094e-05
2.17073e-05
2.17094e-05
2.50893e-05
2.50646e-05
2.17085e-05
2.17085e-05
2.17084e-05
2.50621e-05
2.50896e-05
2.50652e-05
2.17095e-05
2.17095e-05
2.17095e-05
2.17095e-05
2.50884e-05
2.50637e-05
2.17084e-05
2.17093e-05
2.17084e-05
2.17093e-05
2.17095e-05
2.17073e-05
2.17094e-05
2.50892e-05
2.50646e-05
2.17085e-05
2.17084e-05
2.17085e-05
2.50621e-05
2.50896e-05
2.50652e-05
2.17095e-05
2.17095e-05
2.17095e-05
2.17095e-05
2.50884e-05
2.50637e-05
2.17084e-05
2.17093e-05
2.17084e-05
2.17093e-05
2.17095e-05
2.17073e-05
2.17094e-05
2.50891e-05
2.50647e-05
2.17085e-05
2.17084e-05
2.17085e-05
2.50621e-05
2.50896e-05
2.50652e-05
2.17095e-05
2.17095e-05
2.17095e-05
2.17095e-05
2.50883e-05
2.50636e-05
2.17084e-05
2.17093e-05
2.17084e-05
2.17093e-05
2.17095e-05
2.17073e-05
2.17094e-05
2.50891e-05
2.50648e-05
2.17085e-05
2.17084e-05
2.17084e-05
2.5062e-05
2.50896e-05
2.50652e-05
2.17095e-05
2.17095e-05
2.17095e-05
2.17095e-05
2.50882e-05
2.50637e-05
2.17084e-05
2.17093e-05
2.17084e-05
2.17093e-05
2.17095e-05
2.17073e-05
2.17094e-05
2.50893e-05
2.50647e-05
2.17085e-05
2.17084e-05
2.17084e-05
2.5062e-05
2.50896e-05
2.50652e-05
2.17095e-05
2.17095e-05
2.17095e-05
2.17095e-05
2.50882e-05
2.50638e-05
2.17084e-05
2.17093e-05
2.17084e-05
2.17093e-05
2.17094e-05
2.17073e-05
2.17094e-05
2.50893e-05
2.50646e-05
2.17085e-05
2.17084e-05
2.17084e-05
2.50621e-05
2.50896e-05
2.50653e-05
2.17095e-05
2.17095e-05
2.17095e-05
2.17095e-05
2.50883e-05
2.50638e-05
2.17084e-05
2.17093e-05
2.17084e-05
2.17093e-05
2.17095e-05
2.17073e-05
2.17094e-05
2.50891e-05
2.50646e-05
2.17085e-05
2.17084e-05
2.17084e-05
2.50621e-05
2.50897e-05
2.50652e-05
2.17095e-05
2.17095e-05
2.17095e-05
2.17094e-05
2.50884e-05
2.50638e-05
2.17084e-05
2.17093e-05
2.17084e-05
2.17093e-05
2.17095e-05
2.17073e-05
2.17094e-05
2.5089e-05
2.50647e-05
2.17085e-05
2.17084e-05
2.17084e-05
2.5062e-05
2.50897e-05
2.50652e-05
2.17095e-05
2.17095e-05
2.17095e-05
2.17094e-05
2.50884e-05
2.50637e-05
2.17084e-05
2.17093e-05
2.17084e-05
2.17093e-05
2.17095e-05
2.17073e-05
2.17094e-05
2.50891e-05
2.50647e-05
2.17085e-05
2.17084e-05
2.17084e-05
2.5062e-05
2.50897e-05
2.50652e-05
2.17095e-05
2.17095e-05
2.17095e-05
2.17095e-05
2.50883e-05
2.50637e-05
2.17084e-05
2.17093e-05
2.17084e-05
2.17093e-05
2.17095e-05
2.17073e-05
2.17094e-05
2.50892e-05
2.50646e-05
2.17085e-05
2.17084e-05
2.17084e-05
2.50622e-05
2.50897e-05
2.50652e-05
2.17096e-05
2.17095e-05
2.17095e-05
2.17095e-05
2.50883e-05
2.50638e-05
2.17085e-05
2.17093e-05
2.17084e-05
2.17093e-05
2.17095e-05
2.17073e-05
2.17094e-05
2.50891e-05
2.50646e-05
2.17085e-05
2.17084e-05
2.17084e-05
2.5062e-05
2.50897e-05
2.50652e-05
2.17096e-05
2.17095e-05
2.17095e-05
2.17095e-05
2.50883e-05
2.50638e-05
2.17085e-05
2.17094e-05
2.17084e-05
2.17093e-05
2.17095e-05
2.17073e-05
2.17094e-05
2.5089e-05
2.50648e-05
2.17085e-05
2.17084e-05
2.17085e-05
2.5062e-05
2.50897e-05
2.50652e-05
2.17096e-05
2.17096e-05
2.17095e-05
2.17095e-05
2.50884e-05
2.50638e-05
2.17085e-05
2.17094e-05
2.17084e-05
2.17093e-05
2.17095e-05
2.17073e-05
2.17094e-05
2.50892e-05
2.50648e-05
2.17086e-05
2.17084e-05
2.17085e-05
2.50621e-05
2.50897e-05
2.50652e-05
2.17096e-05
2.17096e-05
2.17095e-05
2.17095e-05
2.50884e-05
2.50638e-05
2.17086e-05
2.17095e-05
2.17084e-05
2.17093e-05
2.17096e-05
2.17073e-05
2.17094e-05
2.50893e-05
2.50648e-05
2.17086e-05
2.17084e-05
2.17085e-05
2.50621e-05
2.50897e-05
2.50653e-05
2.17097e-05
2.17097e-05
2.17095e-05
2.17095e-05
2.50883e-05
2.50638e-05
2.17086e-05
2.17095e-05
2.17084e-05
2.17093e-05
2.17097e-05
2.17073e-05
2.17094e-05
2.50893e-05
2.50647e-05
2.17087e-05
2.17084e-05
2.17085e-05
2.5062e-05
2.50897e-05
2.50653e-05
2.17098e-05
2.17097e-05
2.17095e-05
2.17095e-05
2.50884e-05
2.50638e-05
2.17087e-05
2.17096e-05
2.17084e-05
2.17093e-05
2.17097e-05
2.17073e-05
2.17094e-05
2.50892e-05
2.50646e-05
2.17087e-05
2.17084e-05
2.17084e-05
2.50621e-05
2.50898e-05
2.50653e-05
2.17098e-05
2.17098e-05
2.17095e-05
2.17095e-05
2.50884e-05
2.50638e-05
2.17087e-05
2.17096e-05
2.17084e-05
2.17093e-05
2.17098e-05
2.17073e-05
2.17094e-05
2.50892e-05
2.50646e-05
2.17088e-05
2.17083e-05
2.17084e-05
2.50623e-05
2.50898e-05
2.50653e-05
2.17099e-05
2.17099e-05
2.17095e-05
2.17095e-05
2.50884e-05
2.50638e-05
2.17088e-05
2.17097e-05
2.17084e-05
2.17093e-05
2.17099e-05
2.17073e-05
2.17094e-05
2.50891e-05
2.50647e-05
2.17089e-05
2.17083e-05
2.17084e-05
2.50623e-05
2.50898e-05
2.50652e-05
2.171e-05
2.171e-05
2.17094e-05
2.17094e-05
2.50884e-05
2.50639e-05
2.17089e-05
2.17098e-05
2.17084e-05
2.17092e-05
2.171e-05
2.17072e-05
2.17094e-05
2.50891e-05
2.50647e-05
2.1709e-05
2.17082e-05
2.17084e-05
2.50622e-05
2.50897e-05
2.50652e-05
2.17101e-05
2.17101e-05
2.17094e-05
2.17094e-05
2.50884e-05
2.50638e-05
2.1709e-05
2.17099e-05
2.17083e-05
2.17092e-05
2.17101e-05
2.17072e-05
2.17093e-05
2.50891e-05
2.50648e-05
2.17091e-05
2.17082e-05
2.17083e-05
2.50621e-05
2.50897e-05
2.50652e-05
2.17103e-05
2.17103e-05
2.17093e-05
2.17093e-05
2.50884e-05
2.50638e-05
2.17092e-05
2.17101e-05
2.17083e-05
2.17091e-05
2.17102e-05
2.17071e-05
2.17093e-05
2.50892e-05
2.50648e-05
2.17092e-05
2.17081e-05
2.17082e-05
2.50622e-05
2.50898e-05
2.50654e-05
2.17105e-05
2.17105e-05
2.17093e-05
2.17093e-05
2.50884e-05
2.5064e-05
2.17095e-05
2.17103e-05
2.17083e-05
2.17091e-05
2.17105e-05
2.17071e-05
2.17092e-05
2.50893e-05
2.50649e-05
2.17094e-05
2.17081e-05
2.17082e-05
2.50624e-05
2.50898e-05
2.50656e-05
2.17109e-05
2.17108e-05
2.17094e-05
2.17094e-05
2.50885e-05
2.50642e-05
2.17098e-05
2.17107e-05
2.17084e-05
2.17092e-05
2.17108e-05
2.17072e-05
2.17093e-05
2.50894e-05
2.5065e-05
2.17097e-05
2.17082e-05
2.17083e-05
2.50626e-05
2.509e-05
2.5066e-05
2.17115e-05
2.17114e-05
2.17096e-05
2.17096e-05
2.50886e-05
2.50646e-05
2.17104e-05
2.17113e-05
2.17087e-05
2.17095e-05
2.17114e-05
2.17074e-05
2.17096e-05
2.50894e-05
2.50655e-05
2.17103e-05
2.17085e-05
2.17085e-05
2.50628e-05
2.509e-05
2.50644e-05
2.17123e-05
2.17122e-05
2.17055e-05
2.17055e-05
2.50886e-05
2.5063e-05
2.17113e-05
2.17121e-05
2.17045e-05
2.17053e-05
2.17122e-05
2.17034e-05
2.17054e-05
2.50894e-05
2.50641e-05
2.17111e-05
2.17043e-05
2.17043e-05
2.5061e-05
2.50863e-05
2.4832e-05
2.17093e-05
2.17092e-05
2.14588e-05
2.14587e-05
2.5085e-05
2.48311e-05
2.17082e-05
2.17091e-05
2.14586e-05
2.14578e-05
2.17092e-05
2.1458e-05
2.14584e-05
2.50858e-05
2.48313e-05
2.1708e-05
2.14581e-05
2.14581e-05
2.48316e-05
2.45472e-05
2.11544e-05
2.11543e-05
2.45465e-05
2.11544e-05
2.11534e-05
1.67627e-05
1.67624e-05
1.67625e-05
2.1154e-05
2.45465e-05
2.11539e-05
1.24677e-05
3.05913e-06
8.97491e-06
8.96729e-06
7.55432e-08
6.41019e-07
6.20132e-07
5.91263e-06
8.45859e-08
6.48611e-07
5.91985e-06
5.65818e-07
3.99822e-07
1.22548e-07
3.18241e-07
2.70074e-07
5.12672e-06
2.20619e-07
6.75351e-06
1.42608e-05
2.17883e-05
2.64113e-07
4.94556e-06
2.21091e-07
6.53516e-06
5.75847e-06
5.75608e-06
5.795e-06
5.79692e-06
5.79232e-06
5.78974e-06
5.82606e-06
8.18991e-08
9.6699e-07
2.9243e-06
8.71884e-07
7.93824e-08
9.38822e-07
2.9181e-06
1.36418e-05
2.10499e-05
8.93515e-08
2.92942e-06
8.08686e-07
8.28511e-07
8.87835e-08
2.92451e-06
7.76302e-07
1.65753e-06
1.90267e-06
4.07636e-07
1.68935e-06
1.88492e-06
4.41824e-07
1.0174e-05
3.77911e-07
1.28335e-05
3.71516e-05
4.70005e-05
4.35022e-07
9.64962e-06