/*--------------------------------*- C++ -*----------------------------------*\
| =========                 |                                                 |
| \\      /  F ield         | OpenFOAM: The Open Source CFD Toolbox           |
|  \\    /   O peration     | Version:  v2012                                 |
|   \\  /    A nd           | Website:  www.openfoam.com                      |
|    \\/     M anipulation  |                                                 |
\*---------------------------------------------------------------------------*/
FoamFile
{
    version     2.0;
    format      ascii;
    class       volScalarField;
    location    "100";
    object      nut;
}
// * * * * * * * * * * * * * * * * * * * * * * * * * * * * * * * * * * * * * //

dimensions      [0 2 -1 0 0 0 0];


internalField   nonuniform List<scalar> 
171728
(
4.74131e-05
5.94331e-06
6.20071e-06
2.16603e-06
4.82346e-05
6.78519e-06
6.8063e-06
2.43997e-06
4.9963e-05
8.01323e-06
7.65568e-06
2.77751e-06
5.16141e-05
9.37061e-06
8.64878e-06
3.11175e-06
5.31994e-05
1.08007e-05
9.8282e-06
3.43031e-06
5.47398e-05
1.23173e-05
1.11729e-05
3.76643e-06
5.62445e-05
1.39281e-05
1.26768e-05
4.20392e-06
5.77094e-05
1.53942e-05
1.43946e-05
4.76918e-06
5.92018e-05
1.68705e-05
1.62597e-05
5.27092e-06
6.06459e-05
1.8685e-05
1.83921e-05
6.18004e-06
6.21819e-05
2.08722e-05
2.09105e-05
7.57844e-06
6.38453e-05
2.34612e-05
2.37171e-05
9.58776e-06
6.5541e-05
2.68097e-05
2.69363e-05
1.22501e-05
6.73073e-05
3.06268e-05
3.05728e-05
1.52975e-05
6.91504e-05
3.44607e-05
3.44131e-05
1.85475e-05
7.13905e-05
3.86347e-05
3.87239e-05
2.25458e-05
7.40175e-05
4.33824e-05
4.34481e-05
2.75579e-05
7.71523e-05
4.85321e-05
4.85724e-05
3.33036e-05
8.10035e-05
5.43005e-05
5.45244e-05
3.96332e-05
8.53409e-05
6.03868e-05
6.05508e-05
4.71261e-05
9.06677e-05
6.74094e-05
6.75463e-05
5.67643e-05
9.73504e-05
7.6684e-05
7.67607e-05
6.96349e-05
0.000103675
8.70483e-05
8.70692e-05
8.18349e-05
0.000110675
9.76537e-05
9.76562e-05
9.21721e-05
0.000116482
0.000104981
0.000104979
9.86138e-05
0.000119339
0.00010791
0.000107909
0.000100655
0.000120229
0.000108685
0.000108683
0.000101148
0.000120428
0.000108845
0.000108843
0.000101255
0.000120462
0.000108871
0.000108869
0.000101283
0.000120467
0.000108873
0.000108871
0.000101272
0.000120468
0.000108875
0.000108873
0.000101278
0.000120469
0.000108875
0.000108873
0.000101276
0.00012047
0.000108876
0.000108874
0.000101278
0.000120472
0.000108877
0.000108875
0.000101278
0.000120472
0.000108879
0.000108877
0.000101279
0.000120473
0.000108879
0.000108877
0.000101279
0.000120473
0.000108879
0.000108877
0.000101279
0.000120474
0.000108879
0.000108877
0.000101279
0.000120475
0.00010888
0.000108877
0.000101278
0.000120475
0.00010888
0.000108877
0.000101278
0.000120476
0.00010888
0.000108877
0.00010128
0.000120476
0.00010888
0.000108877
0.000101281
0.000120475
0.00010888
0.000108877
0.00010128
0.000120475
0.00010888
0.000108877
0.000101279
0.000120475
0.00010888
0.000108876
0.000101278
0.000120475
0.000108881
0.000108876
0.000101279
0.000120475
0.000108881
0.000108876
0.000101279
0.000120475
0.000108881
0.000108877
0.000101281
0.000120475
0.000108881
0.000108877
0.000101284
0.000120475
0.000108881
0.000108877
0.000101285
0.000120476
0.000108881
0.000108877
0.000101284
0.000120476
0.000108881
0.000108877
0.000101284
0.000120476
0.000108881
0.000108877
0.000101284
0.000120476
0.000108881
0.000108877
0.000101285
0.000120476
0.000108881
0.000108877
0.000101285
0.000120476
0.000108881
0.000108877
0.000101285
0.000120476
0.000108881
0.000108877
0.000101284
0.000120476
0.000108881
0.000108877
0.000101285
0.000120476
0.000108881
0.000108877
0.000101286
0.000120476
0.000108881
0.000108877
0.000101285
0.000120476
0.000108881
0.000108877
0.000101284
0.000120476
0.000108881
0.000108877
0.000101283
0.000120476
0.000108881
0.000108877
0.000101283
0.000120476
0.000108881
0.000108877
0.000101284
0.000120476
0.000108881
0.000108877
0.000101285
0.000120476
0.000108881
0.000108877
0.000101284
0.000120476
0.000108881
0.000108877
0.000101285
0.000120476
0.000108881
0.000108877
0.000101286
0.000120476
0.000108881
0.000108877
0.000101285
0.000120476
0.000108881
0.000108877
0.000101284
0.000120476
0.000108881
0.000108876
0.000101283
0.000120476
0.000108881
0.000108876
0.000101283
0.000120476
0.000108881
0.000108876
0.000101284
0.000120476
0.000108881
0.000108876
0.000101284
0.000120476
0.000108881
0.000108876
0.000101284
0.000120476
0.000108881
0.000108876
0.000101285
0.000120476
0.000108881
0.000108876
0.000101286
0.000120476
0.000108881
0.000108876
0.000101284
0.000120476
0.000108881
0.000108876
0.000101283
0.000120476
0.000108882
0.000108877
0.000101283
0.000120476
0.000108882
0.000108877
0.000101284
0.000120476
0.000108882
0.000108877
0.000101284
0.000120476
0.000108882
0.000108877
0.000101285
0.000120476
0.000108883
0.000108877
0.000101285
0.000120476
0.000108883
0.000108878
0.000101284
0.000120476
0.000108883
0.000108878
0.000101283
0.000120477
0.000108884
0.000108879
0.000101285
0.000120477
0.000108885
0.00010888
0.000101288
0.000120477
0.000108887
0.000108881
0.000101287
0.000120477
0.00010889
0.000108884
0.000101287
0.000120478
0.000108895
0.000108889
0.000101288
0.000120479
0.000108904
0.000108899
0.000101292
0.000120481
0.00010892
0.000108915
0.0001013
0.000120478
0.000108911
0.000108906
0.000101305
0.000121125
0.000109421
0.000109418
0.000101993
1.76359e-06
3.96864e-06
3.80151e-06
2.10581e-06
3.47237e-06
4.89553e-06
4.80603e-05
4.80906e-05
4.80862e-05
4.79815e-05
4.22925e-06
3.78024e-06
2.75702e-06
4.6091e-06
3.9201e-06
2.14863e-06
1.75468e-06
1.86439e-06
5.77111e-06
5.46173e-06
6.30438e-06
5.95683e-06
2.11988e-06
2.30811e-06
5.34997e-06
6.41416e-06
5.83019e-06
6.9478e-06
5.37496e-06
6.50072e-06
5.87609e-06
2.77686e-06
2.94252e-06
5.63354e-06
6.60946e-06
6.07281e-06
2.43623e-06
1.86817e-06
2.15532e-06
6.58205e-06
6.22481e-06
7.428e-06
7.01155e-06
2.31554e-06
2.60815e-06
6.08316e-06
7.21908e-06
6.90213e-06
8.03987e-06
6.1309e-06
7.68975e-06
6.95305e-06
2.95201e-06
3.06335e-06
6.29785e-06
7.43196e-06
6.98874e-06
2.776e-06
2.15664e-06
2.56345e-06
7.71724e-06
7.28172e-06
8.60335e-06
8.22616e-06
2.6114e-06
2.9898e-06
7.20044e-06
8.32545e-06
8.15037e-06
9.19295e-06
7.2396e-06
9.0364e-06
8.12457e-06
3.05653e-06
3.14638e-06
7.22888e-06
8.3948e-06
7.98436e-06
3.11568e-06
2.56518e-06
3.07062e-06
8.9082e-06
8.4931e-06
9.83045e-06
9.40573e-06
2.98772e-06
3.41512e-06
8.50531e-06
9.48425e-06
9.61545e-06
1.04142e-05
8.41917e-06
1.0455e-05
9.31266e-06
3.13224e-06
3.23251e-06
8.24065e-06
9.52951e-06
9.10699e-06
3.43985e-06
3.07005e-06
3.60776e-06
1.01448e-05
9.78789e-06
1.11389e-05
1.0823e-05
3.41279e-06
3.93351e-06
9.98072e-06
1.0732e-05
1.1106e-05
1.17352e-05
9.62604e-06
1.19167e-05
1.05942e-05
3.21208e-06
3.47257e-06
9.42977e-06
1.08038e-05
1.05186e-05
3.77843e-06
3.6033e-06
4.23159e-06
1.14951e-05
1.11525e-05
1.26262e-05
1.22675e-05
3.92513e-06
4.43903e-06
1.15056e-05
1.20625e-05
1.27466e-05
1.30906e-05
1.0898e-05
1.35143e-05
1.18886e-05
3.44923e-06
3.86167e-06
1.09372e-05
1.22969e-05
1.22716e-05
4.21829e-06
4.2273e-06
4.9853e-06
1.30506e-05
1.26493e-05
1.43438e-05
1.38048e-05
4.4208e-06
4.94594e-06
1.31828e-05
1.34811e-05
1.44875e-05
1.46542e-05
1.22324e-05
1.50379e-05
1.33273e-05
3.84356e-06
4.45446e-06
1.28114e-05
1.39369e-05
1.46701e-05
4.77507e-06
4.98118e-06
5.90135e-06
1.47981e-05
1.42466e-05
1.63789e-05
1.56476e-05
4.9232e-06
5.57253e-06
1.49208e-05
1.50759e-05
1.62877e-05
1.63528e-05
1.37405e-05
1.64762e-05
1.5021e-05
4.43911e-06
5.25325e-06
1.52748e-05
1.57742e-05
1.60656e-05
5.3032e-06
5.90056e-06
6.99e-06
1.696e-05
1.61434e-05
1.85324e-05
1.77043e-05
5.55359e-06
6.45189e-06
1.68032e-05
1.68044e-05
1.83898e-05
1.83502e-05
1.55141e-05
1.82168e-05
1.72517e-05
5.24615e-06
6.33148e-06
1.63042e-05
1.78437e-05
1.80508e-05
6.1805e-06
6.98706e-06
8.24961e-06
1.90045e-05
1.82403e-05
2.05279e-05
2.00885e-05
6.4402e-06
7.77687e-06
1.89051e-05
1.88796e-05
2.06174e-05
2.03812e-05
1.78637e-05
2.02869e-05
1.97181e-05
6.33838e-06
7.77095e-06
1.85455e-05
2.02654e-05
2.02381e-05
7.54812e-06
8.26778e-06
1.00464e-05
2.10272e-05
2.07759e-05
2.27363e-05
2.29208e-05
7.80944e-06
9.81871e-06
2.12373e-05
2.10461e-05
2.32139e-05
2.31303e-05
2.03651e-05
2.27337e-05
2.23104e-05
7.80939e-06
9.82012e-06
2.08652e-05
2.29472e-05
2.2918e-05
9.51727e-06
1.01011e-05
1.25309e-05
2.34832e-05
2.37127e-05
2.59021e-05
2.61107e-05
9.90405e-06
1.25332e-05
2.39624e-05
2.37427e-05
2.63031e-05
2.59975e-05
2.30055e-05
2.59508e-05
2.53966e-05
9.88703e-06
1.25248e-05
2.36754e-05
2.61248e-05
2.59687e-05
1.21388e-05
1.26422e-05
1.56989e-05
2.67367e-05
2.69068e-05
2.95579e-05
2.96506e-05
1.26384e-05
1.56104e-05
2.70841e-05
2.69088e-05
2.98319e-05
2.99359e-05
2.628e-05
2.9696e-05
2.92784e-05
1.2638e-05
1.55976e-05
2.67948e-05
2.96937e-05
2.96475e-05
1.53101e-05
1.56905e-05
1.89501e-05
3.04454e-05
3.05502e-05
3.32736e-05
3.33649e-05
1.55901e-05
1.89852e-05
3.07203e-05
3.0858e-05
3.33616e-05
3.35332e-05
3.02224e-05
3.34031e-05
3.29972e-05
1.55463e-05
1.8938e-05
3.05225e-05
3.33454e-05
3.32549e-05
1.87815e-05
1.87179e-05
2.30183e-05
3.43558e-05
3.44416e-05
3.75048e-05
3.76295e-05
1.87579e-05
2.31011e-05
3.4396e-05
3.45596e-05
3.76201e-05
3.76627e-05
3.406e-05
3.761e-05
3.7334e-05
1.87163e-05
2.31166e-05
3.43179e-05
3.76468e-05
3.74699e-05
2.28463e-05
2.27186e-05
2.75334e-05
3.85618e-05
3.86754e-05
4.2039e-05
4.20783e-05
2.27976e-05
2.75647e-05
3.86456e-05
3.86656e-05
4.19808e-05
4.20399e-05
3.84265e-05
4.20778e-05
4.19415e-05
2.28223e-05
2.76917e-05
3.85201e-05
4.21763e-05
4.20069e-05
2.74161e-05
2.76724e-05
3.26689e-05
4.3331e-05
4.33483e-05
4.72047e-05
4.7233e-05
2.7703e-05
3.26899e-05
4.32786e-05
4.33418e-05
4.72735e-05
4.72841e-05
4.32418e-05
4.72804e-05
4.71246e-05
2.78553e-05
3.29052e-05
4.33135e-05
4.7288e-05
4.72299e-05
3.25749e-05
3.33861e-05
3.86405e-05
4.84701e-05
4.8523e-05
5.26807e-05
5.27965e-05
3.34057e-05
3.86572e-05
4.85638e-05
4.85605e-05
5.27248e-05
5.27504e-05
4.83934e-05
5.27118e-05
5.26417e-05
3.36104e-05
3.87917e-05
4.85e-05
5.29117e-05
5.27038e-05
3.86037e-05
3.96609e-05
4.59495e-05
5.42774e-05
5.43919e-05
5.89254e-05
5.8976e-05
3.96827e-05
4.59689e-05
5.4286e-05
5.43296e-05
5.88836e-05
5.89419e-05
5.42491e-05
5.8941e-05
5.88976e-05
3.98095e-05
4.60642e-05
5.42966e-05
5.91232e-05
5.89345e-05
4.59321e-05
4.71525e-05
5.50365e-05
6.0382e-05
6.04035e-05
6.53672e-05
6.53407e-05
4.71595e-05
5.49828e-05
6.03481e-05
6.0397e-05
6.53802e-05
6.54007e-05
6.03436e-05
6.53592e-05
6.53121e-05
4.72524e-05
5.51097e-05
6.0384e-05
6.55024e-05
6.53528e-05
5.49638e-05
5.68369e-05
6.75294e-05
6.7422e-05
6.73925e-05
7.42973e-05
7.42739e-05
5.67814e-05
6.74993e-05
6.74431e-05
6.74597e-05
7.43196e-05
7.43285e-05
6.73688e-05
7.42926e-05
7.42623e-05
5.6913e-05
6.75837e-05
6.74051e-05
7.43871e-05
7.42842e-05
6.74878e-05
6.96699e-05
7.99608e-05
7.66879e-05
7.66685e-05
8.43161e-05
8.43064e-05
6.96457e-05
7.99561e-05
7.67078e-05
7.67137e-05
8.43287e-05
8.43257e-05
7.66602e-05
8.43235e-05
8.43055e-05
6.97165e-05
7.99758e-05
7.66791e-05
8.43547e-05
8.43178e-05
7.99491e-05
8.18445e-05
9.07062e-05
8.70412e-05
8.70324e-05
9.51748e-05
9.51669e-05
8.18416e-05
9.07072e-05
8.70509e-05
8.70455e-05
9.51801e-05
9.5169e-05
8.70342e-05
9.5186e-05
9.51744e-05
8.18559e-05
9.07079e-05
8.70453e-05
9.51908e-05
9.5183e-05
9.07039e-05
9.21745e-05
9.78311e-05
9.76431e-05
9.76354e-05
0.000103581
0.000103574
9.21755e-05
9.78322e-05
9.76483e-05
9.76357e-05
0.000103587
0.000103571
9.76439e-05
0.000103595
0.000103583
9.21751e-05
9.78265e-05
9.76521e-05
0.000103593
0.000103592
9.78281e-05
9.86176e-05
0.000100513
0.000104968
0.00010496
0.000107462
0.000107453
9.86185e-05
0.000100514
0.000104974
0.000104957
0.000107468
0.000107449
0.000104971
0.000107475
0.000107465
9.86125e-05
0.00010051
0.000104979
0.000107473
0.000107473
0.000100514
0.000100655
0.000101147
0.000107898
0.000107888
0.000108573
0.000108563
0.000100656
0.000101148
0.000107904
0.000107885
0.000108579
0.000108559
0.000107901
0.000108586
0.000108576
0.000100651
0.000101143
0.000107909
0.000108584
0.000108584
0.000101147
0.000101149
0.000101287
0.000108672
0.000108662
0.000108812
0.000108802
0.000101149
0.000101287
0.000108679
0.000108658
0.000108819
0.000108798
0.000108675
0.000108825
0.000108814
0.000101144
0.000101282
0.000108683
0.000108823
0.000108822
0.000101286
0.000101256
0.000101332
0.000108832
0.000108822
0.000108857
0.000108847
0.000101256
0.000101332
0.000108839
0.000108818
0.000108864
0.000108843
0.000108834
0.000108869
0.000108858
0.000101251
0.000101327
0.000108842
0.000108867
0.000108866
0.00010133
0.000101285
0.000101318
0.000108859
0.000108848
0.00010886
0.00010885
0.000101285
0.000101318
0.000108866
0.000108844
0.000108867
0.000108846
0.000108859
0.000108872
0.000108861
0.00010128
0.000101313
0.000108867
0.00010887
0.000108868
0.000101315
0.000101274
0.000101325
0.000108861
0.00010885
0.000108862
0.000108852
0.000101275
0.000101325
0.000108868
0.000108847
0.000108869
0.000108848
0.000108861
0.000108874
0.000108862
0.00010127
0.00010132
0.000108869
0.000108872
0.00010887
0.000101322
0.000101281
0.000101323
0.000108863
0.000108852
0.000108863
0.000108852
0.000101281
0.000101323
0.00010887
0.000108849
0.00010887
0.000108849
0.000108863
0.000108875
0.000108863
0.000101276
0.000101318
0.00010887
0.000108873
0.00010887
0.00010132
0.000101279
0.000101325
0.000108863
0.000108852
0.000108864
0.000108853
0.000101279
0.000101325
0.00010887
0.000108849
0.000108871
0.000108849
0.000108863
0.000108876
0.000108864
0.000101274
0.00010132
0.000108871
0.000108874
0.000108871
0.000101322
0.000101281
0.000101326
0.000108865
0.000108853
0.000108866
0.000108854
0.000101281
0.000101326
0.000108871
0.00010885
0.000108873
0.000108851
0.000108864
0.000108877
0.000108866
0.000101276
0.00010132
0.000108872
0.000108875
0.000108873
0.000101323
0.000101281
0.000101326
0.000108866
0.000108854
0.000108866
0.000108855
0.000101282
0.000101327
0.000108874
0.000108852
0.000108874
0.000108853
0.000108866
0.000108879
0.000108866
0.000101277
0.000101321
0.000108873
0.000108877
0.000108873
0.000101323
0.000101282
0.000101326
0.000108867
0.000108855
0.000108867
0.000108855
0.000101283
0.000101327
0.000108874
0.000108853
0.000108875
0.000108853
0.000108867
0.000108879
0.000108867
0.000101277
0.000101321
0.000108874
0.000108877
0.000108874
0.000101323
0.000101282
0.000101326
0.000108867
0.000108855
0.000108867
0.000108855
0.000101283
0.000101327
0.000108875
0.000108853
0.000108875
0.000108853
0.000108867
0.000108879
0.000108867
0.000101277
0.000101321
0.000108874
0.000108877
0.000108874
0.000101323
0.000101282
0.000101326
0.000108867
0.000108855
0.000108867
0.000108855
0.000101283
0.000101327
0.000108875
0.000108853
0.000108875
0.000108853
0.000108867
0.000108879
0.000108867
0.000101277
0.000101321
0.000108874
0.000108877
0.000108874
0.000101323
0.000101282
0.000101327
0.000108867
0.000108855
0.000108867
0.000108855
0.000101282
0.000101328
0.000108875
0.000108853
0.000108875
0.000108853
0.000108867
0.00010888
0.000108867
0.000101277
0.000101322
0.000108874
0.000108877
0.000108874
0.000101323
0.000101282
0.000101327
0.000108867
0.000108855
0.000108867
0.000108855
0.000101283
0.000101328
0.000108875
0.000108853
0.000108875
0.000108853
0.000108867
0.00010888
0.000108867
0.000101277
0.000101321
0.000108874
0.000108877
0.000108874
0.000101323
0.000101283
0.000101326
0.000108867
0.000108855
0.000108867
0.000108856
0.000101283
0.000101326
0.000108875
0.000108853
0.000108875
0.000108853
0.000108867
0.000108879
0.000108867
0.000101277
0.000101321
0.000108874
0.000108877
0.000108874
0.000101324
0.000101283
0.000101326
0.000108867
0.000108856
0.000108867
0.000108856
0.000101282
0.000101326
0.000108876
0.000108853
0.000108875
0.000108853
0.000108867
0.00010888
0.000108867
0.000101277
0.000101321
0.000108874
0.000108877
0.000108874
0.000101324
0.000101282
0.000101326
0.000108867
0.000108856
0.000108867
0.000108856
0.000101282
0.000101327
0.000108875
0.000108853
0.000108875
0.000108853
0.000108867
0.00010888
0.000108867
0.000101277
0.000101322
0.000108874
0.000108877
0.000108874
0.000101323
0.000101282
0.000101326
0.000108867
0.000108856
0.000108867
0.000108856
0.000101283
0.000101327
0.000108875
0.000108853
0.000108875
0.000108853
0.000108867
0.00010888
0.000108867
0.000101278
0.000101321
0.000108874
0.000108876
0.000108874
0.000101322
0.000101282
0.000101326
0.000108867
0.000108857
0.000108867
0.000108857
0.000101283
0.000101326
0.000108875
0.000108853
0.000108875
0.000108853
0.000108867
0.00010888
0.000108867
0.000101278
0.00010132
0.000108874
0.000108876
0.000108874
0.000101322
0.000101282
0.000101326
0.000108867
0.000108857
0.000108867
0.000108857
0.000101283
0.000101325
0.000108875
0.000108853
0.000108875
0.000108853
0.000108867
0.000108881
0.000108867
0.000101277
0.00010132
0.000108874
0.000108876
0.000108874
0.000101322
0.000101282
0.000101326
0.000108867
0.000108857
0.000108867
0.000108857
0.000101282
0.000101325
0.000108875
0.000108853
0.000108875
0.000108853
0.000108867
0.000108881
0.000108867
0.000101276
0.00010132
0.000108874
0.000108877
0.000108874
0.000101323
0.000101282
0.000101326
0.000108868
0.000108857
0.000108868
0.000108857
0.000101282
0.000101326
0.000108875
0.000108853
0.000108874
0.000108853
0.000108867
0.000108881
0.000108867
0.000101276
0.000101321
0.000108874
0.000108877
0.000108874
0.000101324
0.000101282
0.000101326
0.000108868
0.000108857
0.000108868
0.000108857
0.000101281
0.000101326
0.000108875
0.000108853
0.000108874
0.000108853
0.000108867
0.000108881
0.000108867
0.000101276
0.000101321
0.000108874
0.000108877
0.000108874
0.000101325
0.000101282
0.000101327
0.000108868
0.000108857
0.000108868
0.000108857
0.000101282
0.000101327
0.000108875
0.000108853
0.000108874
0.000108853
0.000108867
0.000108881
0.000108867
0.000101277
0.000101321
0.000108874
0.000108877
0.000108874
0.000101325
0.000101282
0.000101327
0.000108868
0.000108857
0.000108868
0.000108857
0.000101282
0.000101327
0.000108874
0.000108853
0.000108874
0.000108853
0.000108867
0.000108881
0.000108867
0.000101277
0.000101321
0.000108874
0.000108877
0.000108874
0.000101325
0.000101282
0.000101327
0.000108868
0.000108857
0.000108868
0.000108857
0.000101282
0.000101327
0.000108874
0.000108853
0.000108874
0.000108853
0.000108867
0.000108881
0.000108867
0.000101277
0.000101321
0.000108874
0.000108877
0.000108874
0.000101325
0.000101282
0.000101327
0.000108868
0.000108857
0.000108868
0.000108857
0.000101282
0.000101327
0.000108874
0.000108853
0.000108874
0.000108853
0.000108867
0.000108881
0.000108867
0.000101277
0.000101321
0.000108874
0.000108877
0.000108874
0.000101325
0.000101283
0.000101327
0.000108869
0.000108857
0.000108869
0.000108857
0.000101282
0.000101327
0.000108875
0.000108853
0.000108875
0.000108853
0.000108867
0.000108881
0.000108867
0.000101277
0.000101321
0.000108874
0.000108877
0.000108873
0.000101325
0.000101283
0.000101327
0.000108869
0.000108857
0.000108869
0.000108857
0.000101282
0.000101327
0.000108875
0.000108853
0.000108874
0.000108853
0.000108867
0.000108881
0.000108867
0.000101277
0.000101322
0.000108874
0.000108877
0.000108873
0.000101326
0.000101283
0.000101327
0.000108869
0.000108857
0.000108869
0.000108857
0.000101283
0.000101327
0.000108875
0.000108853
0.000108874
0.000108853
0.000108867
0.000108881
0.000108867
0.000101277
0.000101321
0.000108874
0.000108877
0.000108873
0.000101325
0.000101283
0.000101327
0.000108869
0.000108857
0.000108869
0.000108857
0.000101283
0.000101327
0.000108875
0.000108853
0.000108874
0.000108853
0.000108867
0.000108881
0.000108867
0.000101277
0.000101321
0.000108874
0.000108877
0.000108873
0.000101325
0.000101283
0.000101327
0.000108869
0.000108857
0.000108869
0.000108857
0.000101283
0.000101327
0.000108875
0.000108853
0.000108874
0.000108853
0.000108867
0.000108881
0.000108867
0.000101277
0.000101321
0.000108874
0.000108877
0.000108873
0.000101326
0.000101283
0.000101327
0.000108869
0.000108858
0.000108869
0.000108857
0.000101283
0.000101327
0.000108875
0.000108853
0.000108874
0.000108853
0.000108867
0.000108881
0.000108867
0.000101277
0.000101321
0.000108874
0.000108877
0.000108873
0.000101327
0.000101283
0.000101327
0.000108869
0.000108858
0.000108869
0.000108857
0.000101283
0.000101327
0.000108875
0.000108853
0.000108874
0.000108853
0.000108867
0.000108881
0.000108867
0.000101277
0.000101321
0.000108873
0.000108877
0.000108873
0.000101326
0.000101283
0.000101327
0.000108869
0.000108858
0.000108869
0.000108857
0.000101283
0.000101327
0.000108874
0.000108853
0.000108874
0.000108853
0.000108867
0.000108881
0.000108867
0.000101277
0.000101321
0.000108873
0.000108877
0.000108873
0.000101325
0.000101283
0.000101327
0.000108869
0.000108858
0.000108869
0.000108857
0.000101283
0.000101327
0.000108874
0.000108853
0.000108874
0.000108853
0.000108867
0.000108881
0.000108867
0.000101277
0.000101322
0.000108873
0.000108877
0.000108873
0.000101324
0.000101283
0.000101327
0.000108869
0.000108858
0.000108869
0.000108857
0.000101283
0.000101327
0.000108874
0.000108853
0.000108874
0.000108853
0.000108867
0.000108881
0.000108867
0.000101277
0.000101321
0.000108873
0.000108877
0.000108873
0.000101324
0.000101283
0.000101327
0.000108869
0.000108858
0.000108869
0.000108857
0.000101283
0.000101327
0.000108874
0.000108853
0.000108874
0.000108853
0.000108867
0.000108881
0.000108867
0.000101277
0.000101321
0.000108873
0.000108877
0.000108873
0.000101325
0.000101283
0.000101327
0.000108869
0.000108858
0.000108869
0.000108857
0.000101283
0.000101327
0.000108874
0.000108853
0.000108874
0.000108853
0.000108867
0.000108881
0.000108867
0.000101277
0.000101321
0.000108873
0.000108877
0.000108873
0.000101325
0.000101283
0.000101327
0.000108869
0.000108858
0.000108869
0.000108857
0.000101283
0.000101327
0.000108874
0.000108853
0.000108874
0.000108853
0.000108867
0.000108881
0.000108867
0.000101277
0.000101321
0.000108873
0.000108877
0.000108873
0.000101325
0.000101283
0.000101327
0.000108869
0.000108858
0.000108869
0.000108857
0.000101283
0.000101327
0.000108874
0.000108853
0.000108874
0.000108853
0.000108867
0.000108881
0.000108867
0.000101277
0.000101321
0.000108873
0.000108877
0.000108873
0.000101326
0.000101283
0.000101327
0.000108869
0.000108858
0.000108869
0.000108857
0.000101283
0.000101327
0.000108874
0.000108853
0.000108874
0.000108853
0.000108867
0.000108881
0.000108867
0.000101277
0.000101321
0.000108873
0.000108877
0.000108873
0.000101326
0.000101283
0.000101327
0.000108869
0.000108858
0.000108869
0.000108857
0.000101283
0.000101328
0.000108874
0.000108853
0.000108874
0.000108853
0.000108867
0.000108881
0.000108867
0.000101277
0.000101321
0.000108873
0.000108877
0.000108873
0.000101325
0.000101283
0.000101327
0.000108869
0.000108858
0.000108869
0.000108857
0.000101283
0.000101328
0.000108874
0.000108853
0.000108874
0.000108853
0.000108867
0.000108881
0.000108867
0.000101277
0.000101321
0.000108873
0.000108876
0.000108873
0.000101325
0.000101283
0.000101327
0.000108869
0.000108858
0.000108869
0.000108857
0.000101283
0.000101327
0.000108874
0.000108853
0.000108874
0.000108853
0.000108867
0.000108881
0.000108867
0.000101277
0.000101321
0.000108873
0.000108876
0.000108873
0.000101324
0.000101282
0.000101327
0.000108869
0.000108858
0.000108869
0.000108857
0.000101283
0.000101327
0.000108874
0.000108853
0.000108874
0.000108853
0.000108867
0.000108881
0.000108867
0.000101277
0.000101321
0.000108873
0.000108876
0.000108873
0.000101324
0.000101282
0.000101327
0.000108869
0.000108858
0.000108869
0.000108857
0.000101283
0.000101327
0.000108874
0.000108853
0.000108874
0.000108853
0.000108867
0.000108881
0.000108867
0.000101276
0.000101322
0.000108873
0.000108876
0.000108873
0.000101325
0.000101283
0.000101327
0.000108869
0.000108858
0.000108869
0.000108857
0.000101282
0.000101327
0.000108874
0.000108853
0.000108874
0.000108853
0.000108867
0.000108881
0.000108867
0.000101277
0.000101321
0.000108873
0.000108876
0.000108873
0.000101325
0.000101283
0.000101327
0.000108869
0.000108858
0.000108869
0.000108857
0.000101283
0.000101327
0.000108874
0.000108853
0.000108874
0.000108853
0.000108867
0.000108881
0.000108867
0.000101277
0.000101321
0.000108873
0.000108876
0.000108873
0.000101325
0.000101283
0.000101327
0.000108869
0.000108858
0.000108869
0.000108857
0.000101283
0.000101327
0.000108874
0.000108853
0.000108874
0.000108853
0.000108867
0.000108881
0.000108867
0.000101277
0.000101321
0.000108873
0.000108876
0.000108873
0.000101326
0.000101283
0.000101328
0.000108869
0.000108858
0.000108869
0.000108857
0.000101283
0.000101327
0.000108874
0.000108853
0.000108874
0.000108853
0.000108867
0.000108881
0.000108867
0.000101276
0.000101321
0.000108873
0.000108876
0.000108873
0.000101326
0.000101283
0.000101327
0.000108869
0.000108857
0.000108869
0.000108857
0.000101283
0.000101327
0.000108874
0.000108853
0.000108874
0.000108853
0.000108867
0.000108881
0.000108867
0.000101276
0.000101321
0.000108873
0.000108876
0.000108873
0.000101325
0.000101283
0.000101327
0.000108869
0.000108857
0.000108869
0.000108857
0.000101283
0.000101327
0.000108874
0.000108853
0.000108874
0.000108853
0.000108867
0.000108881
0.000108867
0.000101277
0.000101321
0.000108873
0.000108876
0.000108873
0.000101324
0.000101283
0.000101327
0.000108869
0.000108858
0.000108869
0.000108858
0.000101282
0.000101327
0.000108874
0.000108853
0.000108874
0.000108853
0.000108867
0.000108881
0.000108867
0.000101277
0.000101321
0.000108873
0.000108876
0.000108873
0.000101324
0.000101283
0.000101327
0.00010887
0.000108858
0.00010887
0.000108858
0.000101283
0.000101328
0.000108875
0.000108853
0.000108874
0.000108853
0.000108867
0.000108882
0.000108867
0.000101276
0.000101321
0.000108873
0.000108876
0.000108873
0.000101324
0.000101283
0.000101327
0.00010887
0.000108858
0.00010887
0.000108858
0.000101283
0.000101328
0.000108875
0.000108854
0.000108875
0.000108854
0.000108868
0.000108882
0.000108867
0.000101277
0.000101322
0.000108874
0.000108877
0.000108874
0.000101325
0.000101283
0.000101327
0.00010887
0.000108859
0.00010887
0.000108858
0.000101283
0.000101327
0.000108875
0.000108854
0.000108875
0.000108854
0.000108868
0.000108882
0.000108868
0.000101277
0.000101322
0.000108874
0.000108877
0.000108874
0.000101326
0.000101283
0.000101328
0.00010887
0.000108859
0.00010887
0.000108858
0.000101283
0.000101328
0.000108875
0.000108854
0.000108875
0.000108854
0.000108868
0.000108882
0.000108868
0.000101278
0.000101322
0.000108874
0.000108877
0.000108874
0.000101326
0.000101283
0.000101328
0.000108871
0.000108859
0.00010887
0.000108858
0.000101283
0.000101328
0.000108876
0.000108855
0.000108875
0.000108854
0.000108869
0.000108882
0.000108868
0.000101277
0.000101321
0.000108875
0.000108877
0.000108874
0.000101325
0.000101283
0.000101328
0.000108871
0.00010886
0.00010887
0.000108859
0.000101283
0.000101328
0.000108876
0.000108855
0.000108875
0.000108854
0.000108869
0.000108882
0.000108868
0.000101277
0.000101321
0.000108875
0.000108877
0.000108874
0.000101325
0.000101284
0.000101328
0.000108872
0.00010886
0.000108871
0.000108859
0.000101283
0.000101328
0.000108877
0.000108855
0.000108876
0.000108854
0.000108869
0.000108882
0.000108868
0.000101277
0.000101322
0.000108875
0.000108877
0.000108874
0.000101326
0.000101284
0.000101328
0.000108872
0.000108861
0.000108871
0.00010886
0.000101284
0.000101328
0.000108877
0.000108856
0.000108876
0.000108855
0.00010887
0.000108883
0.000108869
0.000101278
0.000101322
0.000108876
0.000108878
0.000108875
0.000101328
0.000101284
0.000101329
0.000108873
0.000108862
0.000108872
0.000108861
0.000101284
0.000101329
0.000108878
0.000108857
0.000108877
0.000108856
0.000108871
0.000108884
0.00010887
0.000101278
0.000101323
0.000108877
0.000108879
0.000108876
0.000101328
0.000101285
0.000101329
0.000108875
0.000108863
0.000108874
0.000108862
0.000101285
0.00010133
0.00010888
0.000108859
0.000108879
0.000108858
0.000108873
0.000108886
0.000108872
0.000101279
0.000101324
0.000108879
0.000108881
0.000108878
0.000101328
0.000101286
0.000101331
0.000108878
0.000108866
0.000108878
0.000108866
0.000101286
0.000101331
0.000108883
0.000108862
0.000108883
0.000108862
0.000108876
0.000108889
0.000108876
0.00010128
0.000101326
0.000108882
0.000108884
0.000108881
0.000101329
0.000101288
0.000101335
0.000108883
0.000108871
0.000108885
0.000108873
0.000101287
0.000101334
0.000108888
0.000108867
0.00010889
0.000108869
0.000108881
0.000108896
0.000108882
0.000101282
0.000101329
0.000108887
0.000108891
0.000108888
0.000101333
0.000101291
0.00010134
0.000108892
0.00010888
0.000108898
0.000108887
0.000101291
0.00010134
0.000108897
0.000108876
0.000108903
0.000108882
0.00010889
0.00010891
0.000108896
0.000101285
0.000101334
0.000108896
0.000108904
0.000108902
0.000101339
0.000101296
0.00010135
0.000108908
0.000108897
0.000108927
0.000108917
0.000101296
0.00010135
0.000108914
0.000108893
0.000108933
0.000108913
0.000108906
0.000108939
0.000108924
0.00010129
0.000101344
0.000108912
0.000108934
0.000108933
0.000101349
0.000101304
0.000101645
0.000108898
0.000108888
0.000109453
0.000109443
0.000101304
0.000101645
0.000108905
0.000108883
0.000109459
0.00010944
0.000108895
0.000109465
0.000109451
0.000101298
0.00010164
0.000108904
0.000109461
0.000109458
0.000101643
0.000101996
0.000109411
0.000109401
0.000101996
0.000109416
0.000109398
0.000121122
0.00012112
0.000121121
0.000109408
0.000101991
0.000109415
0.000100085
2.68392e-05
7.15903e-05
7.15546e-05
5.06927e-07
4.43661e-06
1.87306e-06
4.8388e-05
4.64363e-07
4.78531e-06
4.83207e-05
1.98532e-06
2.08181e-06
3.23944e-07
1.49771e-06
1.00147e-06
1.37199e-05
9.00515e-07
1.53962e-05
1.10422e-05
1.32297e-05
9.85625e-07
1.34774e-05
8.86416e-07
1.51714e-05
4.74342e-05
4.74474e-05
4.72902e-05
4.78047e-05
4.78095e-05
4.78267e-05
4.76475e-05
5.59171e-07
8.12674e-07
2.53286e-05
6.01514e-06
5.37566e-07
9.80978e-07
2.5352e-05
1.07942e-05
1.30021e-05
5.36218e-07
2.49585e-05
6.47661e-07
6.24995e-06
5.20118e-07
2.49307e-05
7.77983e-07
1.24935e-06
1.49663e-06
2.27046e-06
1.47526e-06
1.69675e-06
1.19621e-06
1.88959e-05
1.13108e-06
2.11974e-05
1.72605e-05