/*--------------------------------*- C++ -*----------------------------------*\
| =========                 |                                                 |
| \\      /  F ield         | OpenFOAM: The Open Source CFD Toolbox           |
|  \\    /   O peration     | Version:  v2012                                 |
|   \\  /    A nd           | Website:  www.openfoam.com                      |
|    \\/     M anipulation  |                                                 |
\*---------------------------------------------------------------------------*/
FoamFile
{
    version     2.0;
    format      ascii;
    class       volScalarField;
    location    "100";
    object      p;
}
// * * * * * * * * * * * * * * * * * * * * * * * * * * * * * * * * * * * * * //

dimensions      [0 2 -2 0 0 0 0];


internalField   nonuniform List<scalar> 
171728
(
0.00354288
0.00354257
0.00354259
0.00354434
0.0035058
0.00350501
0.00350512
0.00350817
0.00346945
0.00346848
0.00346853
0.00347077
0.00342416
0.00342337
0.00342347
0.00342604
0.00337619
0.00337544
0.0033754
0.00337813
0.00332804
0.00332728
0.00332733
0.00333004
0.00327999
0.00327938
0.00327938
0.00328217
0.0032329
0.0032324
0.0032324
0.00323516
0.00318674
0.00318632
0.0031863
0.00318907
0.00314164
0.00314126
0.00314126
0.003144
0.00309747
0.00309716
0.00309716
0.00309989
0.003054
0.0030538
0.00305379
0.0030565
0.00301111
0.00301094
0.00301095
0.00301361
0.00296869
0.00296857
0.00296857
0.00297126
0.0029267
0.00292662
0.00292661
0.00292927
0.00288521
0.00288513
0.00288512
0.00288768
0.00284467
0.00284453
0.00284453
0.00284707
0.00280527
0.00280506
0.00280502
0.00280746
0.0027678
0.00276758
0.00276754
0.00276992
0.00273084
0.00273067
0.00273069
0.00273309
0.00269275
0.00269254
0.00269255
0.00269509
0.00265354
0.00265328
0.00265328
0.00265588
0.00261419
0.00261396
0.00261396
0.00261642
0.00257565
0.00257548
0.00257548
0.00257779
0.00253816
0.00253807
0.00253807
0.00254027
0.00250146
0.0025014
0.0025014
0.00250355
0.00246509
0.00246504
0.00246504
0.00246719
0.00242881
0.00242876
0.00242876
0.00243091
0.00239253
0.00239248
0.00239248
0.00239463
0.00235625
0.00235621
0.00235621
0.00235835
0.00231997
0.00231993
0.00231993
0.00232208
0.0022837
0.00228365
0.00228365
0.0022858
0.00224742
0.00224737
0.00224737
0.00224952
0.00221114
0.00221109
0.00221109
0.00221324
0.00217486
0.00217482
0.00217482
0.00217696
0.00213858
0.00213854
0.00213854
0.00214068
0.0021023
0.00210226
0.00210226
0.0021044
0.00206602
0.00206598
0.00206598
0.00206812
0.00202974
0.00202969
0.00202969
0.00203184
0.00199346
0.00199341
0.00199341
0.00199556
0.00195718
0.00195713
0.00195713
0.00195928
0.0019209
0.00192085
0.00192085
0.001923
0.00188461
0.00188457
0.00188457
0.00188672
0.00184833
0.00184829
0.00184829
0.00185043
0.00181205
0.001812
0.001812
0.00181415
0.00177576
0.00177572
0.00177572
0.00177787
0.00173948
0.00173943
0.00173943
0.00174158
0.00170319
0.00170315
0.00170315
0.0017053
0.00166691
0.00166686
0.00166686
0.00166901
0.00163062
0.00163058
0.00163058
0.00163272
0.00159434
0.00159429
0.00159429
0.00159644
0.00155805
0.001558
0.001558
0.00156015
0.00152176
0.00152172
0.00152172
0.00152387
0.00148548
0.00148543
0.00148543
0.00148758
0.00144919
0.00144914
0.00144914
0.00145129
0.0014129
0.00141285
0.00141285
0.001415
0.00137661
0.00137656
0.00137656
0.00137871
0.00134032
0.00134027
0.00134027
0.00134242
0.00130403
0.00130398
0.00130398
0.00130613
0.00126774
0.0012677
0.0012677
0.00126984
0.00123145
0.00123141
0.00123141
0.00123356
0.00119516
0.00119512
0.00119512
0.00119727
0.00115887
0.00115883
0.00115883
0.00116097
0.00112258
0.00112253
0.00112253
0.00112468
0.00108629
0.00108625
0.00108625
0.00108839
0.00105
0.00104996
0.00104996
0.0010521
0.00101371
0.00101367
0.00101367
0.00101581
0.000977421
0.000977375
0.000977375
0.000979524
0.00094113
0.000941084
0.000941084
0.000943233
0.00090484
0.000904794
0.000904794
0.000906943
0.00086855
0.000868504
0.000868504
0.000870653
0.000832261
0.000832214
0.000832215
0.000834363
0.000795971
0.000795925
0.000795925
0.000798074
0.000759682
0.000759636
0.000759636
0.000761785
0.000723394
0.000723348
0.000723348
0.000725497
0.000687106
0.00068706
0.00068706
0.000689209
0.000650818
0.000650772
0.000650772
0.000652921
0.000614531
0.000614485
0.000614485
0.000616633
0.000578244
0.000578198
0.000578198
0.000580346
0.000541956
0.00054191
0.00054191
0.000544059
0.000505668
0.000505621
0.000505621
0.00050777
0.00046938
0.000469333
0.000469333
0.000471482
0.000433093
0.000433047
0.000433047
0.000435195
0.000396806
0.00039676
0.00039676
0.000398908
0.000360519
0.000360473
0.000360472
0.00036262
0.000324232
0.000324186
0.000324186
0.000326332
0.000287946
0.0002879
0.0002879
0.000290044
0.000251661
0.000251615
0.000251615
0.000253757
0.000215375
0.00021533
0.00021533
0.000217468
0.000179086
0.000179044
0.000179044
0.000181174
0.000142791
0.000142753
0.000142753
0.000144872
0.00010648
0.000106453
0.000106452
0.000108553
7.01798e-05
7.0139e-05
7.01374e-05
7.22126e-05
3.47521e-05
3.42878e-05
3.42841e-05
3.60889e-05
4.91248e-06
4.33012e-06
4.33045e-06
4.37239e-06
0.00354986
0.00354877
0.00354879
0.00354988
0.00354874
0.00354878
0.00355211
0.00355212
0.00355211
0.00355213
0.00354879
0.00354879
0.00354988
0.0035488
0.00354883
0.00354988
0.00354434
0.00351242
0.00354256
0.00354254
0.00351394
0.00351399
0.00354433
0.00351242
0.00354253
0.00354256
0.00351395
0.00351392
0.00354255
0.00351407
0.003514
0.00354435
0.00351241
0.0035425
0.00351388
0.00351385
0.00351241
0.00350816
0.00347607
0.00350502
0.003505
0.00347837
0.00347839
0.00350815
0.00347603
0.003505
0.00350507
0.00347836
0.00347835
0.00350497
0.00347845
0.00347846
0.00350819
0.00347605
0.0035051
0.00347834
0.00347836
0.00347609
0.00347076
0.00343218
0.00346848
0.0034685
0.00343513
0.00343512
0.00347073
0.00343215
0.00346851
0.00346851
0.00343519
0.0034351
0.00346844
0.00343514
0.00343516
0.00347076
0.00343216
0.00346851
0.00343509
0.00343518
0.00343217
0.00342605
0.00338435
0.0034234
0.00342337
0.00338738
0.00338735
0.00342603
0.00338434
0.00342335
0.00342346
0.00338747
0.00338741
0.00342338
0.00338735
0.00338736
0.00342605
0.00338434
0.00342337
0.00338739
0.00338738
0.00338434
0.00337814
0.00333628
0.00337539
0.00337545
0.00333939
0.00333939
0.00337813
0.00333629
0.00337533
0.00337538
0.00333934
0.00333942
0.00337546
0.0033394
0.00333941
0.00337812
0.00333628
0.00337545
0.0033394
0.0033394
0.00333626
0.00333008
0.00328829
0.00332736
0.00332733
0.00329133
0.0032913
0.00333007
0.00328831
0.0033274
0.00332736
0.00329134
0.00329127
0.00332731
0.00329127
0.00329128
0.00333006
0.00328828
0.00332732
0.00329127
0.00329127
0.00328829
0.00328217
0.00324118
0.00327936
0.00327938
0.00324402
0.00324404
0.00328219
0.00324114
0.00327933
0.00327932
0.003244
0.00324395
0.00327942
0.00324403
0.00324406
0.00328216
0.00324116
0.00327944
0.00324404
0.003244
0.00324115
0.00323516
0.00319496
0.00323238
0.0032324
0.0031977
0.00319773
0.00323515
0.00319493
0.00323238
0.00323249
0.00319769
0.00319774
0.00323233
0.00319773
0.00319771
0.00323517
0.00319493
0.00323242
0.00319773
0.00319766
0.0031949
0.00318909
0.00314976
0.0031863
0.00318632
0.00315241
0.00315246
0.00318908
0.00314976
0.00318635
0.00318649
0.00315248
0.00315252
0.0031863
0.00315244
0.00315241
0.0031891
0.00314973
0.00318634
0.00315246
0.00315244
0.00314972
0.00314403
0.00310553
0.00314125
0.00314128
0.00310813
0.00310811
0.00314404
0.00310552
0.00314132
0.00314142
0.00310815
0.00310808
0.00314131
0.00310811
0.00310804
0.00314403
0.00310546
0.00314118
0.00310815
0.00310806
0.00310549
0.00309993
0.00306202
0.00309717
0.00309718
0.00306458
0.00306455
0.00309991
0.00306203
0.00309718
0.0030972
0.0030646
0.00306452
0.00309715
0.00306456
0.0030646
0.00309988
0.00306202
0.0030971
0.00306457
0.00306456
0.00306202
0.00305649
0.00301908
0.00305378
0.00305377
0.00302156
0.00302162
0.0030565
0.00301907
0.00305377
0.00305373
0.00302163
0.00302164
0.00305377
0.00302161
0.00302163
0.00305647
0.00301911
0.00305382
0.00302159
0.00302156
0.00301911
0.00301361
0.00297666
0.00301091
0.00301095
0.00297914
0.00297913
0.00301361
0.00297662
0.00301094
0.00301091
0.0029791
0.00297906
0.00301096
0.00297911
0.00297903
0.00301363
0.00297663
0.00301094
0.00297913
0.0029791
0.00297665
0.00297125
0.00293462
0.00296859
0.00296859
0.00293708
0.00293708
0.00297122
0.0029346
0.00296857
0.00296855
0.00293707
0.0029371
0.00296853
0.00293708
0.00293711
0.00297123
0.0029346
0.00296856
0.00293708
0.00293707
0.00293463
0.00292926
0.00289299
0.00292661
0.00292661
0.00289543
0.00289543
0.00292924
0.002893
0.00292662
0.00292665
0.00289542
0.00289543
0.00292662
0.00289543
0.00289542
0.00292925
0.00289299
0.00292661
0.00289544
0.00289543
0.00289296
0.00288771
0.00285221
0.00288511
0.00288512
0.00285459
0.00285458
0.00288771
0.0028522
0.00288512
0.00288513
0.00285457
0.00285457
0.00288511
0.00285458
0.0028546
0.00288771
0.0028522
0.00288511
0.00285459
0.00285457
0.00285224
0.00284705
0.00281243
0.00284454
0.00284453
0.00281476
0.00281475
0.00284704
0.00281244
0.00284452
0.00284452
0.00281477
0.00281476
0.00284454
0.00281477
0.00281478
0.00284704
0.00281242
0.00284454
0.00281474
0.00281478
0.00281246
0.00280743
0.00277464
0.00280504
0.00280503
0.00277677
0.00277678
0.00280744
0.00277465
0.00280504
0.00280504
0.00277676
0.00277675
0.00280506
0.00277678
0.00277678
0.00280742
0.0027746
0.00280506
0.00277673
0.00277677
0.00277464
0.00276993
0.00273793
0.00276758
0.00276759
0.00274
0.00274
0.00276994
0.00273793
0.00276757
0.00276756
0.00273999
0.00274
0.00276757
0.00273999
0.00273998
0.0027699
0.00273796
0.00276757
0.00274002
0.00273998
0.00273792
0.0027331
0.00270006
0.00273067
0.00273067
0.0027022
0.0027022
0.0027331
0.00270007
0.00273067
0.00273068
0.0027022
0.00270221
0.00273066
0.00270219
0.0027022
0.00273312
0.00270008
0.00273066
0.00270221
0.0027022
0.00270007
0.00269509
0.00266102
0.00269254
0.00269254
0.00266315
0.00266315
0.00269509
0.00266102
0.00269254
0.00269255
0.00266316
0.00266316
0.00269254
0.00266315
0.00266315
0.0026951
0.00266102
0.00269255
0.00266316
0.00266316
0.00266102
0.00265588
0.00262154
0.00265328
0.00265328
0.00262373
0.00262373
0.00265588
0.00262154
0.00265328
0.00265328
0.00262373
0.00262373
0.00265328
0.00262373
0.00262373
0.00265588
0.00262154
0.00265328
0.00262373
0.00262373
0.00262154
0.00261642
0.00258279
0.00261396
0.00261396
0.00258499
0.00258499
0.00261642
0.00258279
0.00261396
0.00261396
0.00258499
0.002585
0.00261396
0.00258499
0.00258499
0.00261642
0.00258279
0.00261396
0.00258499
0.00258499
0.00258279
0.00257779
0.00254514
0.00257548
0.00257548
0.00254733
0.00254733
0.00257779
0.00254514
0.00257548
0.00257548
0.00254733
0.00254733
0.00257548
0.00254733
0.00254733
0.00257779
0.00254514
0.00257548
0.00254733
0.00254733
0.00254514
0.00254027
0.00250835
0.00253807
0.00253807
0.00251052
0.00251052
0.00254027
0.00250835
0.00253807
0.00253807
0.00251052
0.00251052
0.00253807
0.00251052
0.00251052
0.00254027
0.00250835
0.00253807
0.00251052
0.00251052
0.00250835
0.00250355
0.00247197
0.0025014
0.0025014
0.00247412
0.00247412
0.00250355
0.00247197
0.0025014
0.0025014
0.00247412
0.00247412
0.0025014
0.00247412
0.00247412
0.00250355
0.00247197
0.0025014
0.00247412
0.00247412
0.00247197
0.00246719
0.00243568
0.00246504
0.00246504
0.00243783
0.00243783
0.00246719
0.00243568
0.00246504
0.00246504
0.00243783
0.00243783
0.00246504
0.00243783
0.00243783
0.00246719
0.00243568
0.00246504
0.00243783
0.00243783
0.00243568
0.00243091
0.00239941
0.00242876
0.00242876
0.00240155
0.00240155
0.00243091
0.00239941
0.00242876
0.00242876
0.00240155
0.00240155
0.00242876
0.00240155
0.00240155
0.00243091
0.00239941
0.00242876
0.00240155
0.00240155
0.00239941
0.00239463
0.00236313
0.00239248
0.00239248
0.00236527
0.00236527
0.00239463
0.00236313
0.00239248
0.00239248
0.00236527
0.00236527
0.00239248
0.00236527
0.00236527
0.00239463
0.00236313
0.00239248
0.00236527
0.00236527
0.00236313
0.00235835
0.00232685
0.00235621
0.00235621
0.002329
0.002329
0.00235835
0.00232685
0.00235621
0.00235621
0.002329
0.002329
0.00235621
0.002329
0.002329
0.00235835
0.00232685
0.00235621
0.002329
0.002329
0.00232685
0.00232208
0.00229058
0.00231993
0.00231993
0.00229272
0.00229272
0.00232208
0.00229058
0.00231993
0.00231993
0.00229272
0.00229272
0.00231993
0.00229272
0.00229272
0.00232208
0.00229058
0.00231993
0.00229272
0.00229272
0.00229058
0.0022858
0.0022543
0.00228365
0.00228365
0.00225644
0.00225644
0.0022858
0.0022543
0.00228365
0.00228365
0.00225644
0.00225644
0.00228365
0.00225644
0.00225644
0.0022858
0.0022543
0.00228365
0.00225644
0.00225644
0.0022543
0.00224952
0.00221802
0.00224737
0.00224737
0.00222016
0.00222016
0.00224952
0.00221802
0.00224737
0.00224737
0.00222016
0.00222016
0.00224737
0.00222016
0.00222016
0.00224952
0.00221802
0.00224737
0.00222016
0.00222016
0.00221802
0.00221324
0.00218174
0.00221109
0.00221109
0.00218389
0.00218389
0.00221324
0.00218174
0.00221109
0.00221109
0.00218389
0.00218389
0.0022111
0.00218389
0.00218389
0.00221324
0.00218174
0.0022111
0.00218389
0.00218389
0.00218174
0.00217696
0.00214546
0.00217482
0.00217482
0.00214761
0.00214761
0.00217696
0.00214546
0.00217482
0.00217482
0.00214761
0.00214761
0.00217482
0.00214761
0.00214761
0.00217696
0.00214546
0.00217482
0.00214761
0.00214761
0.00214546
0.00214068
0.00210918
0.00213854
0.00213854
0.00211133
0.00211133
0.00214068
0.00210918
0.00213854
0.00213854
0.00211133
0.00211133
0.00213854
0.00211133
0.00211133
0.00214068
0.00210918
0.00213854
0.00211133
0.00211133
0.00210918
0.0021044
0.0020729
0.00210226
0.00210226
0.00207505
0.00207505
0.0021044
0.0020729
0.00210226
0.00210226
0.00207505
0.00207505
0.00210226
0.00207505
0.00207505
0.0021044
0.0020729
0.00210226
0.00207505
0.00207505
0.0020729
0.00206812
0.00203662
0.00206598
0.00206598
0.00203876
0.00203876
0.00206812
0.00203662
0.00206598
0.00206598
0.00203876
0.00203876
0.00206598
0.00203876
0.00203877
0.00206812
0.00203662
0.00206598
0.00203876
0.00203876
0.00203662
0.00203184
0.00200034
0.00202969
0.00202969
0.00200248
0.00200248
0.00203184
0.00200034
0.00202969
0.00202969
0.00200248
0.00200248
0.00202969
0.00200248
0.00200248
0.00203184
0.00200034
0.00202969
0.00200248
0.00200248
0.00200034
0.00199556
0.00196406
0.00199341
0.00199341
0.0019662
0.0019662
0.00199556
0.00196406
0.00199341
0.00199341
0.0019662
0.0019662
0.00199341
0.0019662
0.0019662
0.00199556
0.00196406
0.00199341
0.0019662
0.0019662
0.00196406
0.00195928
0.00192778
0.00195713
0.00195713
0.00192992
0.00192992
0.00195928
0.00192778
0.00195713
0.00195713
0.00192992
0.00192992
0.00195713
0.00192992
0.00192992
0.00195928
0.00192778
0.00195713
0.00192992
0.00192992
0.00192778
0.001923
0.00189149
0.00192085
0.00192085
0.00189364
0.00189364
0.001923
0.00189149
0.00192085
0.00192085
0.00189364
0.00189364
0.00192085
0.00189364
0.00189364
0.001923
0.00189149
0.00192085
0.00189364
0.00189364
0.00189149
0.00188672
0.00185521
0.00188457
0.00188457
0.00185736
0.00185736
0.00188672
0.00185521
0.00188457
0.00188457
0.00185736
0.00185736
0.00188457
0.00185736
0.00185736
0.00188672
0.00185521
0.00188457
0.00185736
0.00185736
0.00185521
0.00185043
0.00181893
0.00184829
0.00184828
0.00182107
0.00182107
0.00185043
0.00181893
0.00184828
0.00184829
0.00182107
0.00182107
0.00184829
0.00182107
0.00182107
0.00185043
0.00181893
0.00184829
0.00182107
0.00182107
0.00181893
0.00181415
0.00178264
0.001812
0.001812
0.00178479
0.00178479
0.00181415
0.00178264
0.001812
0.001812
0.00178479
0.00178479
0.001812
0.00178479
0.00178479
0.00181415
0.00178264
0.001812
0.00178479
0.00178479
0.00178264
0.00177787
0.00174636
0.00177572
0.00177572
0.0017485
0.0017485
0.00177787
0.00174636
0.00177572
0.00177572
0.0017485
0.0017485
0.00177572
0.0017485
0.0017485
0.00177787
0.00174636
0.00177572
0.0017485
0.0017485
0.00174636
0.00174158
0.00171007
0.00173943
0.00173943
0.00171222
0.00171222
0.00174158
0.00171007
0.00173943
0.00173943
0.00171222
0.00171222
0.00173943
0.00171222
0.00171222
0.00174158
0.00171007
0.00173943
0.00171222
0.00171222
0.00171007
0.0017053
0.00167379
0.00170315
0.00170315
0.00167593
0.00167593
0.0017053
0.00167379
0.00170315
0.00170315
0.00167593
0.00167593
0.00170315
0.00167593
0.00167593
0.0017053
0.00167379
0.00170315
0.00167593
0.00167593
0.00167379
0.00166901
0.0016375
0.00166686
0.00166686
0.00163965
0.00163965
0.00166901
0.0016375
0.00166686
0.00166686
0.00163965
0.00163965
0.00166686
0.00163965
0.00163965
0.00166901
0.0016375
0.00166686
0.00163965
0.00163965
0.0016375
0.00163272
0.00160122
0.00163058
0.00163058
0.00160336
0.00160336
0.00163272
0.00160122
0.00163058
0.00163058
0.00160336
0.00160336
0.00163058
0.00160336
0.00160336
0.00163272
0.00160122
0.00163058
0.00160336
0.00160336
0.00160122
0.00159644
0.00156493
0.00159429
0.00159429
0.00156707
0.00156707
0.00159644
0.00156493
0.00159429
0.00159429
0.00156707
0.00156707
0.00159429
0.00156707
0.00156708
0.00159644
0.00156493
0.00159429
0.00156707
0.00156707
0.00156493
0.00156015
0.00152864
0.001558
0.001558
0.00153079
0.00153079
0.00156015
0.00152864
0.001558
0.001558
0.00153079
0.00153079
0.001558
0.00153079
0.00153079
0.00156015
0.00152864
0.001558
0.00153079
0.00153079
0.00152864
0.00152387
0.00149236
0.00152172
0.00152172
0.0014945
0.0014945
0.00152386
0.00149236
0.00152172
0.00152172
0.0014945
0.0014945
0.00152172
0.0014945
0.0014945
0.00152387
0.00149236
0.00152172
0.0014945
0.0014945
0.00149236
0.00148758
0.00145607
0.00148543
0.00148543
0.00145821
0.00145821
0.00148758
0.00145607
0.00148543
0.00148543
0.00145821
0.00145821
0.00148543
0.00145821
0.00145821
0.00148758
0.00145607
0.00148543
0.00145821
0.00145821
0.00145607
0.00145129
0.00141978
0.00144914
0.00144914
0.00142193
0.00142193
0.00145129
0.00141978
0.00144914
0.00144914
0.00142193
0.00142193
0.00144914
0.00142193
0.00142193
0.00145129
0.00141978
0.00144914
0.00142193
0.00142193
0.00141978
0.001415
0.00138349
0.00141285
0.00141285
0.00138564
0.00138564
0.001415
0.00138349
0.00141285
0.00141285
0.00138564
0.00138564
0.00141285
0.00138564
0.00138564
0.001415
0.00138349
0.00141285
0.00138564
0.00138564
0.00138349
0.00137871
0.0013472
0.00137656
0.00137656
0.00134935
0.00134935
0.00137871
0.0013472
0.00137656
0.00137656
0.00134935
0.00134935
0.00137656
0.00134935
0.00134935
0.00137871
0.0013472
0.00137656
0.00134935
0.00134935
0.0013472
0.00134242
0.00131091
0.00134027
0.00134027
0.00131306
0.00131306
0.00134242
0.00131091
0.00134027
0.00134027
0.00131306
0.00131306
0.00134027
0.00131306
0.00131306
0.00134242
0.00131091
0.00134027
0.00131306
0.00131306
0.00131091
0.00130613
0.00127462
0.00130398
0.00130398
0.00127677
0.00127677
0.00130613
0.00127462
0.00130398
0.00130398
0.00127677
0.00127677
0.00130398
0.00127677
0.00127677
0.00130613
0.00127462
0.00130398
0.00127677
0.00127677
0.00127462
0.00126984
0.00123833
0.0012677
0.0012677
0.00124048
0.00124048
0.00126984
0.00123833
0.0012677
0.0012677
0.00124048
0.00124048
0.0012677
0.00124048
0.00124048
0.00126984
0.00123833
0.0012677
0.00124048
0.00124048
0.00123833
0.00123356
0.00120204
0.00123141
0.00123141
0.00120419
0.00120419
0.00123356
0.00120204
0.00123141
0.00123141
0.00120419
0.00120419
0.00123141
0.00120419
0.00120419
0.00123356
0.00120204
0.00123141
0.00120419
0.00120419
0.00120204
0.00119727
0.00116575
0.00119512
0.00119512
0.0011679
0.0011679
0.00119727
0.00116575
0.00119512
0.00119512
0.0011679
0.0011679
0.00119512
0.0011679
0.0011679
0.00119727
0.00116575
0.00119512
0.0011679
0.0011679
0.00116575
0.00116097
0.00112946
0.00115883
0.00115883
0.00113161
0.00113161
0.00116097
0.00112946
0.00115883
0.00115883
0.00113161
0.00113161
0.00115883
0.00113161
0.00113161
0.00116097
0.00112946
0.00115883
0.00113161
0.00113161
0.00112946
0.00112468
0.00109317
0.00112253
0.00112253
0.00109532
0.00109532
0.00112468
0.00109317
0.00112253
0.00112253
0.00109532
0.00109532
0.00112253
0.00109532
0.00109532
0.00112468
0.00109317
0.00112253
0.00109532
0.00109532
0.00109317
0.00108839
0.00105688
0.00108625
0.00108625
0.00105903
0.00105903
0.00108839
0.00105688
0.00108625
0.00108625
0.00105903
0.00105903
0.00108625
0.00105903
0.00105903
0.00108839
0.00105688
0.00108625
0.00105903
0.00105903
0.00105688
0.0010521
0.00102059
0.00104996
0.00104996
0.00102274
0.00102274
0.0010521
0.00102059
0.00104996
0.00104996
0.00102274
0.00102274
0.00104996
0.00102274
0.00102274
0.0010521
0.00102059
0.00104996
0.00102274
0.00102274
0.00102059
0.00101581
0.000984303
0.00101367
0.00101367
0.000986447
0.000986447
0.00101581
0.000984303
0.00101367
0.00101367
0.000986447
0.000986447
0.00101367
0.000986447
0.000986447
0.00101581
0.000984303
0.00101367
0.000986447
0.000986447
0.000984303
0.000979524
0.000948012
0.000977375
0.000977375
0.000950157
0.000950157
0.000979524
0.000948012
0.000977375
0.000977375
0.000950157
0.000950157
0.000977375
0.000950157
0.000950157
0.000979524
0.000948012
0.000977375
0.000950157
0.000950156
0.000948012
0.000943233
0.000911722
0.000941084
0.000941084
0.000913866
0.000913866
0.000943233
0.000911722
0.000941084
0.000941084
0.000913866
0.000913866
0.000941084
0.000913867
0.000913866
0.000943233
0.000911721
0.000941084
0.000913866
0.000913866
0.000911722
0.000906943
0.000875432
0.000904794
0.000904794
0.000877576
0.000877576
0.000906943
0.000875432
0.000904794
0.000904794
0.000877576
0.000877577
0.000904794
0.000877576
0.000877577
0.000906943
0.000875432
0.000904794
0.000877577
0.000877577
0.000875432
0.000870653
0.000839142
0.000868504
0.000868504
0.000841287
0.000841287
0.000870653
0.000839142
0.000868504
0.000868504
0.000841287
0.000841287
0.000868504
0.000841287
0.000841287
0.000870653
0.000839142
0.000868505
0.000841287
0.000841287
0.000839142
0.000834363
0.000802853
0.000832214
0.000832214
0.000804997
0.000804997
0.000834363
0.000802853
0.000832214
0.000832215
0.000804997
0.000804997
0.000832215
0.000804998
0.000804998
0.000834363
0.000802853
0.000832215
0.000804998
0.000804997
0.000802853
0.000798074
0.000766564
0.000795925
0.000795925
0.000768708
0.000768708
0.000798074
0.000766564
0.000795925
0.000795925
0.000768708
0.000768708
0.000795925
0.000768708
0.000768708
0.000798074
0.000766564
0.000795925
0.000768708
0.000768708
0.000766564
0.000761785
0.000730275
0.000759636
0.000759636
0.00073242
0.00073242
0.000761785
0.000730276
0.000759636
0.000759636
0.00073242
0.00073242
0.000759636
0.00073242
0.00073242
0.000761785
0.000730275
0.000759636
0.00073242
0.00073242
0.000730275
0.000725497
0.000693987
0.000723348
0.000723348
0.000696132
0.000696132
0.000725497
0.000693988
0.000723348
0.000723348
0.000696132
0.000696132
0.000723348
0.000696132
0.000696132
0.000725497
0.000693987
0.000723348
0.000696132
0.000696132
0.000693987
0.000689209
0.0006577
0.00068706
0.00068706
0.000659844
0.000659844
0.000689209
0.0006577
0.00068706
0.00068706
0.000659844
0.000659844
0.00068706
0.000659844
0.000659844
0.000689209
0.000657699
0.00068706
0.000659844
0.000659844
0.000657699
0.000652921
0.000621412
0.000650772
0.000650772
0.000623556
0.000623556
0.000652921
0.000621412
0.000650772
0.000650772
0.000623556
0.000623556
0.000650772
0.000623556
0.000623556
0.000652921
0.000621412
0.000650772
0.000623556
0.000623556
0.000621412
0.000616633
0.000585125
0.000614485
0.000614485
0.000587269
0.000587269
0.000616633
0.000585125
0.000614485
0.000614485
0.000587269
0.000587269
0.000614485
0.000587269
0.000587269
0.000616633
0.000585125
0.000614485
0.000587269
0.000587269
0.000585125
0.000580346
0.000548837
0.000578198
0.000578197
0.000550982
0.000550982
0.000580346
0.000548837
0.000578197
0.000578198
0.000550981
0.000550982
0.000578198
0.000550982
0.000550982
0.000580346
0.000548837
0.000578198
0.000550982
0.000550982
0.000548837
0.000544058
0.000512549
0.00054191
0.00054191
0.000514693
0.000514693
0.000544058
0.000512549
0.00054191
0.00054191
0.000514693
0.000514693
0.00054191
0.000514693
0.000514693
0.000544058
0.000512549
0.00054191
0.000514693
0.000514693
0.000512549
0.00050777
0.000476261
0.000505622
0.000505621
0.000478405
0.000478405
0.00050777
0.000476261
0.000505621
0.000505621
0.000478405
0.000478405
0.000505621
0.000478405
0.000478405
0.00050777
0.000476261
0.000505621
0.000478405
0.000478405
0.00047626
0.000471482
0.000439974
0.000469334
0.000469333
0.000442118
0.000442118
0.000471482
0.000439974
0.000469333
0.000469334
0.000442118
0.000442118
0.000469334
0.000442118
0.000442118
0.000471482
0.000439974
0.000469333
0.000442118
0.000442118
0.000439974
0.000435195
0.000403687
0.000433047
0.000433047
0.000405831
0.000405831
0.000435194
0.000403687
0.000433046
0.000433047
0.000405831
0.000405831
0.000433047
0.000405831
0.000405831
0.000435195
0.000403687
0.000433047
0.000405831
0.000405831
0.000403687
0.000398908
0.0003674
0.00039676
0.00039676
0.000369544
0.000369543
0.000398907
0.0003674
0.00039676
0.00039676
0.000369543
0.000369544
0.00039676
0.000369544
0.000369544
0.000398908
0.0003674
0.00039676
0.000369544
0.000369544
0.0003674
0.00036262
0.000331113
0.000360473
0.000360472
0.000333256
0.000333256
0.00036262
0.000331113
0.000360472
0.000360473
0.000333256
0.000333256
0.000360473
0.000333256
0.000333256
0.00036262
0.000331113
0.000360473
0.000333256
0.000333256
0.000331113
0.000326332
0.000294828
0.000324186
0.000324186
0.00029697
0.00029697
0.000326332
0.000294828
0.000324186
0.000324186
0.00029697
0.00029697
0.000324186
0.00029697
0.00029697
0.000326332
0.000294827
0.000324186
0.00029697
0.00029697
0.000294827
0.000290044
0.000258543
0.0002879
0.0002879
0.000260684
0.000260684
0.000290044
0.000258544
0.0002879
0.0002879
0.000260684
0.000260684
0.0002879
0.000260684
0.000260684
0.000290044
0.000258543
0.0002879
0.000260684
0.000260684
0.000258543
0.000253757
0.00022226
0.000251615
0.000251615
0.000224399
0.000224399
0.000253757
0.00022226
0.000251615
0.000251615
0.000224398
0.000224399
0.000251615
0.000224399
0.000224399
0.000253757
0.00022226
0.000251615
0.000224399
0.000224399
0.00022226
0.000217468
0.000185976
0.00021533
0.00021533
0.000188112
0.000188112
0.000217467
0.000185976
0.00021533
0.00021533
0.000188112
0.000188112
0.00021533
0.000188112
0.000188112
0.000217468
0.000185975
0.00021533
0.000188112
0.000188112
0.000185976
0.000181174
0.000149689
0.000179044
0.000179044
0.000151821
0.000151821
0.000181174
0.000149689
0.000179044
0.000179044
0.000151821
0.000151821
0.000179044
0.000151821
0.000151821
0.000181174
0.000149689
0.000179044
0.000151821
0.000151821
0.000149689
0.000144871
0.000113394
0.000142753
0.000142753
0.000115521
0.000115521
0.000144871
0.000113394
0.000142753
0.000142753
0.00011552
0.00011552
0.000142754
0.00011552
0.000115521
0.000144872
0.000113394
0.000142753
0.00011552
0.00011552
0.000113394
0.000108553
7.70851e-05
0.000106453
0.000106453
7.92049e-05
7.92052e-05
0.000108553
7.7086e-05
0.000106453
0.000106453
7.92043e-05
7.9204e-05
0.000106453
7.92049e-05
7.92044e-05
0.000108553
7.70843e-05
0.000106453
7.9204e-05
7.9204e-05
7.70844e-05
7.22138e-05
4.09026e-05
7.0139e-05
7.01393e-05
4.30468e-05
4.30474e-05
7.22139e-05
4.09035e-05
7.01381e-05
7.01375e-05
4.30456e-05
4.30438e-05
7.01381e-05
4.30463e-05
4.30433e-05
7.22131e-05
4.08998e-05
7.01376e-05
4.30434e-05
4.30428e-05
4.08994e-05
3.6093e-05
7.71744e-06
3.42887e-05
3.42894e-05
1.02805e-05
1.02793e-05
3.60934e-05
7.71612e-06
3.42878e-05
3.4285e-05
1.02792e-05
1.02755e-05
3.42839e-05
1.02772e-05
1.02734e-05
3.60895e-05
7.71345e-06
3.42838e-05
1.02757e-05
1.02751e-05
7.71189e-06
4.37656e-06
4.33509e-06
4.33224e-06
4.3761e-06
4.32961e-06
4.32892e-06
4.91156e-06
4.91e-06
4.90944e-06
4.32868e-06
4.37412e-06
4.32747e-06
0.00355637
0.00356072
0.00355874
0.00355874
0.0035804
0.00356227
0.00358845
0.00356028
0.00358039
0.00356226
0.00356028
0.00358842
0.00357028
0.00359153
0.00359166
0.00352644
0.00354098
0.00354459
0.00351829
0.00351786
0.00352196
0.0035264
0.00354095
0.00354457
0.0035184
0.00354289
0.0035429
0.00354289
0.00351456
0.00351454
0.00351454
0.00351454
0.00352578
0.00353929
0.00354349
0.00353307
0.00354575
0.0035227
0.00353354
0.00351801
0.00352187
0.00352579
0.00354351
0.00353928
0.00353305
0.00354577
0.00353356
0.00352276
0.00354492
0.0035449
0.00352981
0.00352273
0.00352265
0.00349931
0.00351271
0.00351248
0.00349734
0.00350995
0.00349643
0.00349929
0.00351279
0.00351248
0.00349743
0.00350576
0.00350582
0.00350579
0.00347936
0.00347932
0.00347936
0.00347936
0.00349683
0.0035115
0.003505
0.00349662
0.00350979
0.0034978
0.00349632
0.00351005
0.00349647
0.00349681
0.00350503
0.00351164
0.00349648
0.00350977
0.00349629
0.00349771
0.00351315
0.00351307
0.00349541
0.00349836
0.00349832
0.00345714
0.00347215
0.00347313
0.00345601
0.0034709
0.00345518
0.00345722
0.00347219
0.00347305
0.00345606
0.00346946
0.00346947
0.00346944
0.00343601
0.00343599
0.00343599
0.003436
0.00345571
0.00347175
0.00346825
0.00345786
0.00347104
0.00345645
0.00345762
0.00347089
0.00345517
0.00345573
0.00346828
0.00347191
0.00345785
0.00347105
0.00345761
0.00345644
0.00347246
0.00347245
0.003455
0.00345638
0.00345642
0.00341045
0.00342703
0.00342837
0.00340903
0.00342642
0.00340841
0.00341022
0.00342706
0.00342856
0.00340899
0.00342415
0.00342416
0.00342414
0.00338819
0.00338817
0.00338819
0.00338816
0.00340907
0.00342711
0.00342317
0.00341136
0.00342662
0.0034095
0.00341121
0.00342636
0.00340852
0.00340906
0.00342321
0.00342711
0.00341128
0.00342666
0.00341119
0.00340953
0.0034272
0.0034272
0.00340832
0.00340907
0.00340904
0.00336171
0.0033787
0.00337987
0.00336054
0.00337814
0.00336032
0.00336173
0.00337861
0.00337989
0.00336058
0.00337619
0.00337618
0.00337618
0.00334011
0.00334011
0.00334012
0.0033401
0.00336089
0.0033788
0.00337532
0.00336338
0.00337853
0.00336106
0.0033633
0.00337827
0.00336023
0.00336087
0.00337528
0.00337871
0.0033634
0.00337855
0.00336332
0.00336116
0.00337872
0.00337875
0.00336033
0.00336066
0.00336061
0.003313
0.00333024
0.00333123
0.00331224
0.0033299
0.003312
0.00331303
0.00333032
0.00333122
0.00331219
0.00332803
0.00332804
0.00332801
0.00329192
0.00329192
0.0032919
0.0032919
0.00331254
0.00333037
0.00332729
0.0033153
0.00333031
0.00331271
0.00331525
0.00332998
0.00331198
0.00331255
0.00332727
0.00333044
0.0033153
0.00333031
0.00331524