/*--------------------------------*- C++ -*----------------------------------*\
| =========                 |                                                 |
| \\      /  F ield         | OpenFOAM: The Open Source CFD Toolbox           |
|  \\    /   O peration     | Version:  v2012                                 |
|   \\  /    A nd           | Website:  www.openfoam.com                      |
|    \\/     M anipulation  |                                                 |
\*---------------------------------------------------------------------------*/
FoamFile
{
    version     2.0;
    format      ascii;
    class       volScalarField;
    location    "0.285";
    object      p;
}
// * * * * * * * * * * * * * * * * * * * * * * * * * * * * * * * * * * * * * //

dimensions      [0 2 -2 0 0 0 0];


internalField   nonuniform List<scalar> 
247104
(
1.86556e-06
1.86554e-06
1.86567e-06
1.86562e-06
1.8655e-06
1.86564e-06
1.86565e-06
1.86546e-06
1.86553e-06
1.86559e-06
1.86565e-06
1.86548e-06
1.86538e-06
1.86551e-06
1.86566e-06
1.86556e-06
1.86567e-06
1.86565e-06
1.86534e-06
1.86497e-06
1.86482e-06
1.865e-06
1.86539e-06
1.86566e-06
1.86567e-06
1.86561e-06
1.86548e-06
1.86497e-06
1.86448e-06
1.8643e-06
1.86452e-06
1.86504e-06
1.86553e-06
1.86561e-06
1.86555e-06
1.8655e-06
1.86538e-06
1.86482e-06
1.8643e-06
1.86412e-06
1.86435e-06
1.8649e-06
1.86543e-06
1.86548e-06
1.86564e-06
1.86551e-06
1.86501e-06
1.86452e-06
1.86435e-06
1.86457e-06
1.86508e-06
1.86555e-06
1.86564e-06
1.86566e-06
1.86566e-06
1.86539e-06
1.86504e-06
1.8649e-06
1.86507e-06
1.86543e-06
1.86567e-06
1.86565e-06
1.86547e-06
1.86556e-06
1.86567e-06
1.86553e-06
1.86543e-06
1.86555e-06
1.86567e-06
1.86553e-06
1.86567e-06
1.86561e-06
1.86548e-06
1.86563e-06
1.86565e-06
1.83213e-06
1.8301e-06
1.82966e-06
1.82847e-06
1.82847e-06
1.8284e-06
1.8284e-06
1.82969e-06
1.83001e-06
1.82966e-06
1.82761e-06
1.82486e-06
1.82481e-06
1.82481e-06
1.82486e-06
1.828e-06
1.82822e-06
1.82847e-06
1.82486e-06
1.82479e-06
1.82485e-06
1.82485e-06
1.82479e-06
1.82486e-06
1.82839e-06
1.8295e-06
1.83212e-06
1.82847e-06
1.82481e-06
1.82485e-06
1.82495e-06
1.82495e-06
1.82485e-06
1.82481e-06
1.82834e-06
1.82997e-06
1.83011e-06
1.8284e-06
1.82481e-06
1.82485e-06
1.82495e-06
1.82495e-06
1.82485e-06
1.82481e-06
1.82852e-06
1.82848e-06
1.8284e-06
1.82486e-06
1.82479e-06
1.82485e-06
1.82485e-06
1.82479e-06
1.82486e-06
1.8283e-06
1.82937e-06
1.82969e-06
1.828e-06
1.82486e-06
1.82481e-06
1.82481e-06
1.82486e-06
1.82819e-06
1.8284e-06
1.82982e-06
1.83001e-06
1.82823e-06
1.82839e-06
1.82834e-06
1.82852e-06
1.82829e-06
1.82839e-06
1.83029e-06
1.8295e-06
1.82998e-06
1.82848e-06
1.82936e-06
1.82982e-06
1.81201e-06
1.81182e-06
1.81166e-06
1.80952e-06
1.80943e-06
1.8094e-06
1.8095e-06
1.81165e-06
1.81189e-06
1.81167e-06
1.80879e-06
1.80581e-06
1.80572e-06
1.80572e-06
1.80581e-06
1.80936e-06
1.80996e-06
1.80952e-06
1.80579e-06
1.80549e-06
1.80552e-06
1.80552e-06
1.80549e-06
1.80581e-06
1.81018e-06
1.81216e-06
1.81202e-06
1.80944e-06
1.80572e-06
1.80552e-06
1.80555e-06
1.80555e-06
1.80552e-06
1.80572e-06
1.81023e-06
1.81189e-06
1.81183e-06
1.80941e-06
1.80572e-06
1.80552e-06
1.80555e-06
1.80555e-06
1.80552e-06
1.80572e-06
1.81017e-06
1.81007e-06
1.8095e-06
1.8058e-06
1.80549e-06
1.80552e-06
1.80552e-06
1.80549e-06
1.80581e-06
1.81024e-06
1.81223e-06
1.81166e-06
1.80936e-06
1.80581e-06
1.80572e-06
1.80572e-06
1.80581e-06
1.80984e-06
1.81011e-06
1.81214e-06
1.81189e-06
1.80997e-06
1.81018e-06
1.81023e-06
1.81017e-06
1.81024e-06
1.81011e-06
1.81205e-06
1.81216e-06
1.81189e-06
1.81007e-06
1.81223e-06
1.81213e-06
1.79289e-06
1.79272e-06
1.7926e-06
1.79038e-06
1.7903e-06
1.7902e-06
1.79039e-06
1.79256e-06
1.79283e-06
1.7926e-06
1.7896e-06
1.78665e-06
1.78661e-06
1.78661e-06
1.78665e-06
1.79018e-06
1.79094e-06
1.79039e-06
1.78665e-06
1.78651e-06
1.78651e-06
1.78651e-06
1.78651e-06
1.78665e-06
1.79109e-06
1.79306e-06
1.7929e-06
1.7903e-06
1.78661e-06
1.78651e-06
1.78652e-06
1.78652e-06
1.78651e-06
1.78661e-06
1.79116e-06
1.79277e-06
1.79273e-06
1.7902e-06
1.78661e-06
1.78651e-06
1.78652e-06
1.78652e-06
1.78651e-06
1.78661e-06
1.79113e-06
1.79102e-06
1.7904e-06
1.78665e-06
1.78651e-06
1.78651e-06
1.78651e-06
1.78651e-06
1.78665e-06
1.79115e-06
1.79311e-06
1.79257e-06
1.79018e-06
1.78665e-06
1.78661e-06
1.78661e-06
1.78665e-06
1.7909e-06
1.79107e-06
1.79307e-06
1.79283e-06
1.79094e-06
1.7911e-06
1.79117e-06
1.79113e-06
1.79115e-06
1.79107e-06
1.79308e-06
1.79306e-06
1.79277e-06
1.79102e-06
1.79311e-06
1.79307e-06
1.77373e-06
1.77356e-06
1.77339e-06
1.77118e-06
1.77108e-06
1.77097e-06
1.77118e-06
1.77337e-06
1.77362e-06
1.77339e-06
1.77039e-06
1.76744e-06
1.76742e-06
1.76742e-06
1.76744e-06
1.77093e-06
1.77175e-06
1.77118e-06
1.76744e-06
1.7674e-06
1.7674e-06
1.7674e-06
1.7674e-06
1.76744e-06
1.77192e-06
1.77388e-06
1.77373e-06
1.77108e-06
1.76742e-06
1.7674e-06
1.7674e-06
1.7674e-06
1.7674e-06
1.76742e-06
1.77204e-06
1.77364e-06
1.77356e-06
1.77097e-06
1.76742e-06
1.7674e-06
1.7674e-06
1.7674e-06
1.7674e-06
1.76742e-06
1.77202e-06
1.77188e-06
1.77119e-06
1.76744e-06
1.7674e-06
1.7674e-06
1.7674e-06
1.7674e-06
1.76744e-06
1.77199e-06
1.77396e-06
1.77337e-06
1.77093e-06
1.76744e-06
1.76742e-06
1.76742e-06
1.76744e-06
1.7718e-06
1.77192e-06
1.77389e-06
1.77362e-06
1.77175e-06
1.77192e-06
1.77204e-06
1.77202e-06
1.77199e-06
1.77191e-06
1.77386e-06
1.77388e-06
1.77364e-06
1.77189e-06
1.77396e-06
1.77389e-06
1.75455e-06
1.75438e-06
1.7542e-06
1.75198e-06
1.75189e-06
1.75177e-06
1.75199e-06
1.75418e-06
1.75443e-06
1.7542e-06
1.7512e-06
1.74824e-06
1.74824e-06
1.74824e-06
1.74824e-06
1.75172e-06
1.75256e-06
1.75198e-06
1.74824e-06
1.74823e-06
1.74823e-06
1.74823e-06
1.74823e-06
1.74824e-06
1.75273e-06
1.75469e-06
1.75455e-06
1.75189e-06
1.74824e-06
1.74823e-06
1.74823e-06
1.74823e-06
1.74823e-06
1.74824e-06
1.75286e-06
1.75446e-06
1.75438e-06
1.75177e-06
1.74824e-06
1.74823e-06
1.74823e-06
1.74823e-06
1.74823e-06
1.74824e-06
1.75285e-06
1.75271e-06
1.75199e-06
1.74824e-06
1.74823e-06
1.74823e-06
1.74823e-06
1.74823e-06
1.74824e-06
1.75281e-06
1.75479e-06
1.75418e-06
1.75172e-06
1.74824e-06
1.74824e-06
1.74824e-06
1.74824e-06
1.75263e-06
1.75273e-06
1.75469e-06
1.75443e-06
1.75256e-06
1.75273e-06
1.75286e-06
1.75285e-06
1.75281e-06
1.75274e-06
1.75466e-06
1.75469e-06
1.75446e-06
1.75271e-06
1.75479e-06
1.75469e-06
1.73536e-06
1.73519e-06
1.73501e-06
1.73279e-06
1.7327e-06
1.73258e-06
1.73279e-06
1.73499e-06
1.73524e-06
1.73501e-06
1.73201e-06
1.72905e-06
1.72905e-06
1.72905e-06
1.72905e-06
1.73252e-06
1.73337e-06
1.73279e-06
1.72905e-06
1.72905e-06
1.72905e-06
1.72905e-06
1.72905e-06
1.72905e-06
1.73354e-06
1.7355e-06
1.73536e-06
1.7327e-06
1.72905e-06
1.72905e-06
1.72905e-06
1.72905e-06
1.72905e-06
1.72905e-06
1.73367e-06
1.73528e-06
1.73519e-06
1.73258e-06
1.72905e-06
1.72905e-06
1.72905e-06
1.72905e-06
1.72905e-06
1.72905e-06
1.73366e-06
1.73352e-06
1.73279e-06
1.72905e-06
1.72905e-06
1.72905e-06
1.72905e-06
1.72905e-06
1.72905e-06
1.73362e-06
1.7356e-06
1.73499e-06
1.73252e-06
1.72905e-06
1.72905e-06
1.72905e-06
1.72905e-06
1.73345e-06
1.73355e-06
1.7355e-06
1.73524e-06
1.73337e-06
1.73354e-06
1.73367e-06
1.73366e-06
1.73362e-06
1.73355e-06
1.73547e-06
1.7355e-06
1.73528e-06
1.73352e-06
1.7356e-06
1.7355e-06
1.71617e-06
1.716e-06
1.71582e-06
1.7136e-06
1.71351e-06
1.71339e-06
1.71361e-06
1.7158e-06
1.71605e-06
1.71582e-06
1.71282e-06
1.70986e-06
1.70986e-06
1.70986e-06
1.70986e-06
1.71333e-06
1.71418e-06
1.7136e-06
1.70986e-06
1.70986e-06
1.70986e-06
1.70986e-06
1.70986e-06
1.70986e-06
1.71435e-06
1.71631e-06
1.71618e-06
1.71351e-06
1.70986e-06
1.70986e-06
1.70986e-06
1.70986e-06
1.70986e-06
1.70986e-06
1.71448e-06
1.71609e-06
1.716e-06
1.71339e-06
1.70986e-06
1.70986e-06
1.70986e-06
1.70986e-06
1.70986e-06
1.70986e-06
1.71447e-06
1.71434e-06
1.7136e-06
1.70986e-06
1.70986e-06
1.70986e-06
1.70986e-06
1.70986e-06
1.70986e-06
1.71443e-06
1.71642e-06
1.7158e-06
1.71333e-06
1.70986e-06
1.70986e-06
1.70986e-06
1.70986e-06
1.71426e-06
1.71436e-06
1.71632e-06
1.71605e-06
1.71418e-06
1.71435e-06
1.71448e-06
1.71447e-06
1.71443e-06
1.71437e-06
1.71628e-06
1.71631e-06
1.71609e-06
1.71434e-06
1.71642e-06
1.71632e-06
1.69698e-06
1.69681e-06
1.69663e-06
1.69442e-06
1.69432e-06
1.6942e-06
1.69442e-06
1.69661e-06
1.69686e-06
1.69663e-06
1.69364e-06
1.69067e-06
1.69067e-06
1.69067e-06
1.69067e-06
1.69414e-06
1.69499e-06
1.69441e-06
1.69067e-06
1.69067e-06
1.69067e-06
1.69067e-06
1.69067e-06
1.69067e-06
1.69517e-06
1.69712e-06
1.69699e-06
1.69432e-06
1.69067e-06
1.69067e-06
1.69067e-06
1.69067e-06
1.69067e-06
1.69067e-06
1.69529e-06
1.6969e-06
1.69681e-06
1.6942e-06
1.69067e-06
1.69067e-06
1.69067e-06
1.69067e-06
1.69067e-06
1.69067e-06
1.69528e-06
1.69515e-06
1.69442e-06
1.69067e-06
1.69067e-06
1.69067e-06
1.69067e-06
1.69067e-06
1.69067e-06
1.69525e-06
1.69723e-06
1.69661e-06
1.69414e-06
1.69067e-06
1.69067e-06
1.69067e-06
1.69067e-06
1.69507e-06
1.69517e-06
1.69713e-06
1.69686e-06
1.69499e-06
1.69516e-06
1.69529e-06
1.69528e-06
1.69524e-06
1.69518e-06
1.69709e-06
1.69713e-06
1.6969e-06
1.69515e-06
1.69723e-06
1.69713e-06
1.6778e-06
1.67763e-06
1.67744e-06
1.67523e-06
1.67513e-06
1.67502e-06
1.67523e-06
1.67742e-06
1.67767e-06
1.67744e-06
1.67445e-06
1.67148e-06
1.67148e-06
1.67148e-06
1.67148e-06
1.67495e-06
1.6758e-06
1.67523e-06
1.67148e-06
1.67148e-06
1.67148e-06
1.67148e-06
1.67148e-06
1.67148e-06
1.67598e-06
1.67793e-06
1.6778e-06
1.67513e-06
1.67148e-06
1.67148e-06
1.67148e-06
1.67148e-06
1.67148e-06
1.67148e-06
1.67611e-06
1.67771e-06
1.67763e-06
1.67502e-06
1.67148e-06
1.67148e-06
1.67148e-06
1.67148e-06
1.67148e-06
1.67148e-06
1.6761e-06
1.67596e-06
1.67523e-06
1.67148e-06
1.67148e-06
1.67148e-06
1.67148e-06
1.67148e-06
1.67148e-06
1.67606e-06
1.67804e-06
1.67743e-06
1.67496e-06
1.67148e-06
1.67148e-06
1.67148e-06
1.67148e-06
1.67589e-06
1.67599e-06
1.67794e-06
1.67767e-06
1.6758e-06
1.67598e-06
1.67611e-06
1.6761e-06
1.67606e-06
1.67599e-06
1.67791e-06
1.67794e-06
1.67772e-06
1.67596e-06
1.67804e-06
1.67794e-06
1.65861e-06
1.65844e-06
1.65825e-06
1.65604e-06
1.65594e-06
1.65583e-06
1.65604e-06
1.65824e-06
1.65848e-06
1.65825e-06
1.65526e-06
1.65229e-06
1.65229e-06
1.65229e-06
1.6523e-06
1.65577e-06
1.65661e-06
1.65604e-06
1.65229e-06
1.65229e-06
1.65229e-06
1.65229e-06
1.65229e-06
1.65229e-06
1.65679e-06
1.65875e-06
1.65861e-06
1.65594e-06
1.65229e-06
1.65229e-06
1.6523e-06
1.65229e-06
1.65229e-06
1.65229e-06
1.65692e-06
1.65853e-06
1.65844e-06
1.65583e-06
1.65229e-06
1.65229e-06
1.65229e-06
1.65229e-06
1.65229e-06
1.65229e-06
1.65691e-06
1.65677e-06
1.65604e-06
1.65229e-06
1.65229e-06
1.65229e-06
1.65229e-06
1.65229e-06
1.65229e-06
1.65687e-06
1.65885e-06
1.65824e-06
1.65577e-06
1.65229e-06
1.65229e-06
1.65229e-06
1.65229e-06
1.6567e-06
1.6568e-06
1.65875e-06
1.65848e-06
1.65661e-06
1.65679e-06
1.65692e-06
1.65691e-06
1.65687e-06
1.6568e-06
1.65872e-06
1.65875e-06
1.65853e-06
1.65677e-06
1.65885e-06
1.65875e-06
1.63942e-06
1.63925e-06
1.63906e-06
1.63685e-06
1.63676e-06
1.63664e-06
1.63685e-06
1.63905e-06
1.63929e-06
1.63907e-06
1.63607e-06
1.63311e-06
1.63311e-06
1.63311e-06
1.63311e-06
1.63658e-06
1.63743e-06
1.63685e-06
1.63311e-06
1.63311e-06
1.63311e-06
1.63311e-06
1.63311e-06
1.63311e-06
1.6376e-06
1.63956e-06
1.63942e-06
1.63676e-06
1.63311e-06
1.63311e-06
1.63311e-06
1.63311e-06
1.63311e-06
1.63311e-06
1.63773e-06
1.63934e-06
1.63925e-06
1.63664e-06
1.63311e-06
1.63311e-06
1.63311e-06
1.63311e-06
1.63311e-06
1.63311e-06
1.63772e-06
1.63759e-06
1.63685e-06
1.63311e-06
1.63311e-06
1.63311e-06
1.63311e-06
1.63311e-06
1.63311e-06
1.63768e-06
1.63967e-06
1.63905e-06
1.63658e-06
1.63311e-06
1.63311e-06
1.63311e-06
1.63311e-06
1.63751e-06
1.63761e-06
1.63956e-06
1.6393e-06
1.63743e-06
1.6376e-06
1.63773e-06
1.63772e-06
1.63768e-06
1.63762e-06
1.63953e-06
1.63956e-06
1.63934e-06
1.63759e-06
1.63966e-06
1.63956e-06
1.62023e-06
1.62006e-06
1.61988e-06
1.61766e-06
1.61757e-06
1.61745e-06
1.61767e-06
1.61986e-06
1.62011e-06
1.61988e-06
1.61688e-06
1.61392e-06
1.61392e-06
1.61392e-06
1.61392e-06
1.61739e-06
1.61824e-06
1.61766e-06
1.61392e-06
1.61392e-06
1.61392e-06
1.61392e-06
1.61392e-06
1.61392e-06
1.61841e-06
1.62037e-06
1.62024e-06
1.61757e-06
1.61392e-06
1.61392e-06
1.61392e-06
1.61392e-06
1.61392e-06
1.61392e-06
1.61854e-06
1.62015e-06
1.62006e-06
1.61745e-06
1.61392e-06
1.61392e-06
1.61392e-06
1.61392e-06
1.61392e-06
1.61392e-06
1.61853e-06
1.6184e-06
1.61767e-06
1.61392e-06
1.61392e-06
1.61392e-06
1.61392e-06
1.61392e-06
1.61392e-06
1.6185e-06
1.62048e-06
1.61986e-06
1.61739e-06
1.61392e-06
1.61392e-06
1.61392e-06
1.61392e-06
1.61832e-06
1.61842e-06
1.62038e-06
1.62011e-06
1.61824e-06
1.61841e-06
1.61854e-06
1.61853e-06
1.61849e-06
1.61843e-06
1.62034e-06
1.62037e-06
1.62015e-06
1.6184e-06
1.62048e-06
1.62038e-06
1.60105e-06
1.60088e-06
1.60069e-06
1.59848e-06
1.59838e-06
1.59827e-06
1.59848e-06
1.60068e-06
1.60092e-06
1.60069e-06
1.5977e-06
1.59473e-06
1.59473e-06
1.59473e-06
1.59473e-06
1.59821e-06
1.59905e-06
1.59848e-06
1.59473e-06
1.59473e-06
1.59473e-06
1.59473e-06
1.59473e-06
1.59473e-06
1.59923e-06
1.60119e-06
1.60105e-06
1.59838e-06
1.59473e-06
1.59473e-06
1.59473e-06
1.59473e-06
1.59473e-06
1.59473e-06
1.59936e-06
1.60097e-06
1.60088e-06
1.59827e-06
1.59473e-06
1.59473e-06
1.59473e-06
1.59473e-06
1.59473e-06
1.59473e-06
1.59935e-06
1.59921e-06
1.59848e-06
1.59473e-06
1.59473e-06
1.59473e-06
1.59473e-06
1.59473e-06
1.59473e-06
1.59931e-06
1.60129e-06
1.60068e-06
1.5982e-06
1.59473e-06
1.59473e-06
1.59473e-06
1.59473e-06
1.59914e-06
1.59924e-06
1.60119e-06
1.60092e-06
1.59905e-06
1.59923e-06
1.59936e-06
1.59935e-06
1.59931e-06
1.59924e-06
1.60116e-06
1.60119e-06
1.60097e-06
1.59921e-06
1.60129e-06
1.60119e-06
1.58186e-06
1.58169e-06
1.5815e-06
1.57929e-06
1.57919e-06
1.57908e-06
1.57929e-06
1.58149e-06
1.58173e-06
1.5815e-06
1.57851e-06
1.57555e-06
1.57555e-06
1.57555e-06
1.57555e-06
1.57902e-06
1.57986e-06
1.57929e-06
1.57555e-06
1.57555e-06
1.57555e-06
1.57555e-06
1.57555e-06
1.57555e-06
1.58004e-06
1.582e-06
1.58186e-06
1.57919e-06
1.57555e-06
1.57555e-06
1.57555e-06
1.57555e-06
1.57555e-06
1.57555e-06
1.58017e-06
1.58178e-06
1.58169e-06
1.57908e-06
1.57555e-06
1.57555e-06
1.57555e-06
1.57555e-06
1.57555e-06
1.57555e-06
1.58016e-06
1.58002e-06
1.57929e-06
1.57555e-06
1.57555e-06
1.57555e-06
1.57555e-06
1.57555e-06
1.57555e-06
1.58012e-06
1.5821e-06
1.58149e-06
1.57902e-06
1.57555e-06
1.57555e-06
1.57555e-06
1.57555e-06
1.57995e-06
1.58005e-06
1.582e-06
1.58173e-06
1.57987e-06
1.58004e-06
1.58017e-06
1.58016e-06
1.58012e-06
1.58005e-06
1.58197e-06
1.582e-06
1.58178e-06
1.58002e-06
1.5821e-06
1.582e-06
1.56267e-06
1.5625e-06
1.56231e-06
1.5601e-06
1.56001e-06
1.55989e-06
1.5601e-06
1.5623e-06
1.56254e-06
1.56232e-06
1.55932e-06
1.55636e-06
1.55636e-06
1.55636e-06
1.55636e-06
1.55983e-06
1.56068e-06
1.5601e-06
1.55636e-06
1.55636e-06
1.55636e-06
1.55636e-06
1.55636e-06
1.55636e-06
1.56085e-06
1.56281e-06
1.56267e-06
1.56001e-06
1.55636e-06
1.55636e-06
1.55636e-06
1.55636e-06
1.55636e-06
1.55636e-06
1.56098e-06
1.56259e-06
1.5625e-06
1.55989e-06
1.55636e-06
1.55636e-06
1.55636e-06
1.55636e-06
1.55636e-06
1.55636e-06
1.56097e-06
1.56084e-06
1.5601e-06
1.55636e-06
1.55636e-06
1.55636e-06
1.55636e-06
1.55636e-06
1.55636e-06
1.56093e-06
1.56292e-06
1.5623e-06
1.55983e-06
1.55636e-06
1.55636e-06
1.55636e-06
1.55636e-06
1.56076e-06
1.56086e-06
1.56281e-06
1.56255e-06
1.56068e-06
1.56085e-06
1.56098e-06
1.56097e-06
1.56093e-06
1.56087e-06
1.56278e-06
1.56281e-06
1.56259e-06
1.56084e-06
1.56292e-06
1.56282e-06
1.54348e-06
1.54332e-06
1.54313e-06
1.54092e-06
1.54082e-06
1.54071e-06
1.54092e-06
1.54311e-06
1.54336e-06
1.54313e-06
1.54014e-06
1.53717e-06
1.53717e-06
1.53717e-06
1.53717e-06
1.54064e-06
1.54149e-06
1.54091e-06
1.53717e-06
1.53717e-06
1.53717e-06
1.53717e-06
1.53717e-06
1.53717e-06
1.54167e-06
1.54362e-06
1.54349e-06
1.54082e-06
1.53717e-06
1.53717e-06
1.53717e-06
1.53717e-06
1.53717e-06
1.53717e-06
1.5418e-06
1.5434e-06
1.54332e-06
1.5407e-06
1.53717e-06
1.53717e-06
1.53717e-06
1.53717e-06
1.53717e-06
1.53717e-06
1.54179e-06
1.54165e-06
1.54092e-06
1.53717e-06
1.53717e-06
1.53717e-06
1.53717e-06
1.53717e-06
1.53717e-06
1.54175e-06
1.54373e-06
1.54311e-06
1.54064e-06
1.53717e-06
1.53717e-06
1.53717e-06
1.53717e-06
1.54157e-06
1.54168e-06
1.54363e-06
1.54336e-06
1.54149e-06
1.54166e-06
1.54179e-06
1.54178e-06
1.54175e-06
1.54168e-06
1.54359e-06
1.54363e-06
1.5434e-06
1.54165e-06
1.54373e-06
1.54363e-06
1.5243e-06
1.52413e-06
1.52394e-06
1.52173e-06
1.52163e-06
1.52152e-06
1.52173e-06
1.52393e-06
1.52417e-06
1.52394e-06
1.52095e-06
1.51798e-06
1.51798e-06
1.51798e-06
1.51798e-06
1.52146e-06
1.5223e-06
1.52173e-06
1.51798e-06
1.51798e-06
1.51798e-06
1.51798e-06
1.51798e-06
1.51798e-06
1.52248e-06
1.52444e-06
1.5243e-06
1.52163e-06
1.51798e-06
1.51798e-06
1.51798e-06
1.51798e-06
1.51798e-06
1.51798e-06
1.52261e-06
1.52422e-06
1.52413e-06
1.52152e-06
1.51798e-06
1.51798e-06
1.51798e-06
1.51798e-06
1.51798e-06
1.51798e-06
1.5226e-06
1.52246e-06
1.52173e-06
1.51798e-06
1.51798e-06
1.51798e-06
1.51798e-06
1.51798e-06
1.51798e-06
1.52256e-06
1.52454e-06
1.52393e-06
1.52146e-06
1.51798e-06
1.51798e-06
1.51798e-06
1.51798e-06
1.52239e-06
1.52249e-06
1.52444e-06
1.52417e-06
1.5223e-06
1.52248e-06
1.52261e-06
1.5226e-06
1.52256e-06
1.52249e-06
1.52441e-06
1.52444e-06
1.52422e-06
1.52246e-06
1.52454e-06
1.52444e-06
1.50511e-06
1.50494e-06
1.50475e-06
1.50254e-06
1.50244e-06
1.50233e-06
1.50254e-06
1.50474e-06
1.50498e-06
1.50475e-06
1.50176e-06
1.4988e-06
1.4988e-06
1.4988e-06
1.4988e-06
1.50227e-06
1.50311e-06
1.50254e-06
1.4988e-06
1.4988e-06
1.4988e-06
1.4988e-06
1.4988e-06
1.4988e-06
1.50329e-06
1.50525e-06
1.50511e-06
1.50244e-06
1.4988e-06
1.4988e-06
1.4988e-06
1.4988e-06
1.4988e-06
1.4988e-06
1.50342e-06
1.50503e-06
1.50494e-06
1.50233e-06
1.4988e-06
1.4988e-06
1.4988e-06
1.4988e-06
1.4988e-06
1.4988e-06
1.50341e-06
1.50327e-06
1.50254e-06
1.4988e-06
1.4988e-06
1.4988e-06
1.4988e-06
1.4988e-06
1.4988e-06
1.50337e-06
1.50535e-06
1.50474e-06
1.50227e-06
1.4988e-06
1.4988e-06
1.4988e-06
1.4988e-06
1.5032e-06
1.5033e-06
1.50525e-06
1.50498e-06
1.50312e-06
1.50329e-06
1.50342e-06
1.50341e-06
1.50337e-06
1.5033e-06
1.50522e-06
1.50525e-06
1.50503e-06
1.50327e-06
1.50535e-06
1.50525e-06
1.48592e-06
1.48575e-06
1.48556e-06
1.48335e-06
1.48326e-06
1.48314e-06
1.48335e-06
1.48555e-06
1.48579e-06
1.48557e-06
1.48257e-06
1.47961e-06
1.47961e-06
1.47961e-06
1.47961e-06
1.48308e-06
1.48393e-06
1.48335e-06
1.47961e-06
1.47961e-06
1.47961e-06
1.47961e-06
1.47961e-06
1.47961e-06
1.4841e-06
1.48606e-06
1.48592e-06
1.48326e-06
1.47961e-06
1.47961e-06
1.47961e-06
1.47961e-06
1.47961e-06
1.47961e-06
1.48423e-06
1.48584e-06
1.48575e-06
1.48314e-06
1.47961e-06
1.47961e-06
1.47961e-06
1.47961e-06
1.47961e-06
1.47961e-06
1.48422e-06
1.48409e-06
1.48335e-06
1.47961e-06
1.47961e-06
1.47961e-06
1.47961e-06
1.47961e-06
1.47961e-06
1.48418e-06
1.48617e-06
1.48555e-06
1.48308e-06
1.47961e-06
1.47961e-06
1.47961e-06
1.47961e-06
1.48401e-06
1.48411e-06
1.48606e-06
1.4858e-06
1.48393e-06
1.4841e-06
1.48423e-06
1.48422e-06
1.48418e-06
1.48412e-06
1.48603e-06
1.48606e-06
1.48584e-06
1.48409e-06
1.48617e-06
1.48606e-06
1.46673e-06
1.46656e-06
1.46638e-06
1.46416e-06
1.46407e-06
1.46396e-06
1.46417e-06
1.46636e-06
1.46661e-06
1.46638e-06
1.46339e-06
1.46042e-06
1.46042e-06
1.46042e-06
1.46042e-06
1.46389e-06
1.46474e-06
1.46416e-06
1.46042e-06
1.46042e-06
1.46042e-06
1.46042e-06
1.46042e-06
1.46042e-06
1.46491e-06
1.46687e-06
1.46674e-06
1.46407e-06
1.46042e-06
1.46042e-06
1.46042e-06
1.46042e-06
1.46042e-06
1.46042e-06
1.46504e-06
1.46665e-06
1.46656e-06
1.46395e-06
1.46042e-06
1.46042e-06
1.46042e-06
1.46042e-06
1.46042e-06
1.46042e-06
1.46503e-06
1.4649e-06
1.46417e-06
1.46042e-06
1.46042e-06
1.46042e-06
1.46042e-06
1.46042e-06
1.46042e-06
1.465e-06
1.46698e-06
1.46636e-06
1.46389e-06
1.46042e-06
1.46042e-06
1.46042e-06
1.46042e-06
1.46482e-06
1.46493e-06
1.46688e-06
1.46661e-06
1.46474e-06
1.46491e-06
1.46504e-06
1.46503e-06
1.465e-06
1.46493e-06
1.46684e-06
1.46688e-06
1.46665e-06
1.4649e-06
1.46698e-06
1.46688e-06
1.44755e-06
1.44738e-06
1.44719e-06
1.44498e-06
1.44488e-06
1.44477e-06
1.44498e-06
1.44718e-06
1.44742e-06
1.44719e-06
1.4442e-06
1.44123e-06
1.44123e-06
1.44123e-06
1.44123e-06
1.44471e-06
1.44555e-06
1.44498e-06
1.44123e-06
1.44123e-06
1.44123e-06
1.44123e-06
1.44123e-06
1.44123e-06
1.44573e-06
1.44769e-06
1.44755e-06
1.44488e-06
1.44123e-06
1.44123e-06
1.44123e-06
1.44123e-06
1.44123e-06
1.44123e-06
1.44586e-06
1.44747e-06
1.44738e-06
1.44477e-06
1.44123e-06
1.44123e-06
1.44123e-06
1.44123e-06
1.44123e-06
1.44123e-06
1.44585e-06
1.44571e-06
1.44498e-06
1.44123e-06
1.44123e-06
1.44123e-06
1.44123e-06
1.44123e-06
1.44123e-06
1.44581e-06
1.44779e-06
1.44718e-06
1.44471e-06
1.44123e-06
1.44123e-06
1.44123e-06
1.44123e-06
1.44564e-06
1.44574e-06
1.44769e-06
1.44742e-06
1.44555e-06
1.44573e-06
1.44586e-06
1.44585e-06
1.44581e-06
1.44574e-06
1.44766e-06
1.44769e-06
1.44747e-06
1.44571e-06
1.44779e-06
1.44769e-06
1.42836e-06
1.42819e-06
1.428e-06
1.42579e-06
1.4257e-06
1.42558e-06
1.42579e-06
1.42799e-06
1.42823e-06
1.42801e-06
1.42501e-06
1.42205e-06
1.42205e-06
1.42205e-06
1.42205e-06
1.42552e-06
1.42637e-06
1.42579e-06
1.42205e-06
1.42205e-06
1.42205e-06
1.42205e-06
1.42205e-06
1.42205e-06
1.42654e-06
1.4285e-06
1.42836e-06
1.4257e-06
1.42205e-06
1.42205e-06
1.42205e-06
1.42205e-06
1.42205e-06
1.42205e-06
1.42667e-06
1.42828e-06
1.42819e-06
1.42558e-06
1.42205e-06
1.42205e-06
1.42205e-06
1.42205e-06
1.42205e-06
1.42205e-06
1.42666e-06
1.42653e-06
1.42579e-06
1.42205e-06
1.42205e-06
1.42205e-06
1.42205e-06
1.42205e-06
1.42205e-06
1.42662e-06
1.42861e-06
1.42799e-06
1.42552e-06
1.42205e-06
1.42205e-06
1.42205e-06
1.42205e-06
1.42645e-06
1.42655e-06
1.4285e-06
1.42824e-06
1.42637e-06
1.42654e-06
1.42667e-06
1.42666e-06
1.42662e-06
1.42656e-06
1.42847e-06
1.4285e-06
1.42828e-06
1.42653e-06
1.4286e-06
1.4285e-06
1.40917e-06
1.40901e-06
1.40882e-06
1.40661e-06
1.40651e-06
1.4064e-06
1.40661e-06
1.4088e-06
1.40905e-06
1.40882e-06
1.40583e-06
1.40286e-06
1.40286e-06
1.40286e-06
1.40286e-06
1.40633e-06
1.40718e-06
1.4066e-06
1.40286e-06
1.40286e-06
1.40286e-06
1.40286e-06
1.40286e-06
1.40286e-06
1.40736e-06
1.40931e-06
1.40918e-06
1.40651e-06
1.40286e-06
1.40286e-06
1.40286e-06
1.40286e-06
1.40286e-06
1.40286e-06
1.40749e-06
1.40909e-06
1.40901e-06
1.40639e-06
1.40286e-06
1.40286e-06
1.40286e-06
1.40286e-06
1.40286e-06
1.40286e-06
1.40748e-06
1.40734e-06
1.40661e-06
1.40286e-06
1.40286e-06
1.40286e-06
1.40286e-06
1.40286e-06
1.40286e-06
1.40744e-06
1.40942e-06
1.4088e-06
1.40633e-06
1.40286e-06
1.40286e-06
1.40286e-06
1.40286e-06
1.40726e-06
1.40737e-06
1.40932e-06
1.40905e-06
1.40718e-06
1.40735e-06
1.40748e-06
1.40747e-06
1.40744e-06
1.40737e-06
1.40928e-06
1.40932e-06
1.40909e-06
1.40734e-06
1.40942e-06
1.40932e-06
1.38999e-06
1.38982e-06
1.38963e-06
1.38742e-06
1.38732e-06
1.38721e-06
1.38742e-06
1.38962e-06
1.38986e-06
1.38963e-06
1.38664e-06
1.38367e-06
1.38367e-06
1.38367e-06
1.38367e-06
1.38715e-06
1.38799e-06
1.38742e-06
1.38367e-06
1.38367e-06
1.38367e-06
1.38367e-06
1.38367e-06
1.38367e-06
1.38817e-06
1.39013e-06
1.38999e-06
1.38732e-06
1.38367e-06
1.38367e-06
1.38367e-06
1.38367e-06
1.38367e-06
1.38367e-06
1.3883e-06
1.38991e-06
1.38982e-06
1.38721e-06
1.38367e-06
1.38367e-06
1.38367e-06
1.38367e-06
1.38367e-06
1.38367e-06
1.38829e-06
1.38815e-06
1.38742e-06
1.38367e-06
1.38367e-06
1.38367e-06
1.38367e-06
1.38367e-06
1.38367e-06
1.38825e-06
1.39023e-06
1.38962e-06
1.38715e-06
1.38367e-06
1.38367e-06
1.38367e-06
1.38367e-06
1.38808e-06
1.38818e-06
1.39013e-06
1.38986e-06
1.38799e-06
1.38817e-06
1.3883e-06
1.38829e-06
1.38825e-06
1.38818e-06
1.3901e-06
1.39013e-06
1.38991e-06
1.38815e-06
1.39023e-06
1.39013e-06
1.3708e-06
1.37063e-06
1.37044e-06
1.36823e-06
1.36814e-06
1.36802e-06
1.36823e-06
1.37043e-06
1.37067e-06
1.37045e-06
1.36745e-06
1.36449e-06
1.36449e-06
1.36449e-06
1.36449e-06
1.36796e-06
1.36881e-06
1.36823e-06
1.36449e-06
1.36449e-06
1.36449e-06
1.36449e-06
1.36449e-06
1.36449e-06
1.36898e-06
1.37094e-06
1.3708e-06
1.36814e-06
1.36449e-06
1.36449e-06
1.36449e-06
1.36449e-06
1.36449e-06
1.36449e-06
1.36911e-06
1.37072e-06
1.37063e-06
1.36802e-06
1.36449e-06
1.36449e-06
1.36449e-06
1.36449e-06
1.36449e-06
1.36449e-06
1.3691e-06
1.36896e-06
1.36823e-06
1.36449e-06
1.36449e-06
1.36449e-06
1.36449e-06
1.36449e-06
1.36449e-06
1.36906e-06
1.37105e-06
1.37043e-06
1.36796e-06
1.36449e-06
1.36449e-06
1.36449e-06
1.36449e-06
1.36889e-06
1.36899e-06
1.37094e-06
1.37068e-06
1.36881e-06
1.36898e-06
1.36911e-06
1.3691e-06
1.36906e-06
1.36899e-06
1.37091e-06
1.37094e-06
1.37072e-06
1.36897e-06
1.37104e-06
1.37094e-06
1.35161e-06
1.35144e-06
1.35126e-06
1.34904e-06
1.34895e-06
1.34883e-06
1.34905e-06
1.35124e-06
1.35149e-06
1.35126e-06
1.34826e-06
1.3453e-06
1.3453e-06
1.3453e-06
1.3453e-06
1.34877e-06
1.34962e-06
1.34904e-06
1.3453e-06
1.3453e-06
1.3453e-06
1.3453e-06
1.3453e-06
1.3453e-06
1.34979e-06
1.35175e-06
1.35162e-06
1.34895e-06
1.3453e-06
1.3453e-06
1.3453e-06
1.3453e-06
1.3453e-06
1.3453e-06
1.34992e-06
1.35153e-06
1.35144e-06
1.34883e-06
1.3453e-06
1.3453e-06
1.3453e-06
1.3453e-06
1.3453e-06
1.3453e-06
1.34991e-06
1.34978e-06
1.34905e-06
1.3453e-06
1.3453e-06
1.3453e-06
1.3453e-06
1.3453e-06
1.3453e-06
1.34987e-06
1.35186e-06
1.35124e-06
1.34877e-06
1.3453e-06
1.3453e-06
1.3453e-06
1.3453e-06
1.3497e-06
1.3498e-06
1.35176e-06
1.35149e-06
1.34962e-06
1.34979e-06
1.34992e-06
1.34991e-06
1.34987e-06
1.34981e-06
1.35172e-06
1.35175e-06
1.35153e-06
1.34978e-06
1.35186e-06
1.35176e-06
1.33243e-06
1.33226e-06
1.33207e-06
1.32986e-06
1.32976e-06
1.32965e-06
1.32986e-06
1.33206e-06
1.3323e-06
1.33207e-06
1.32908e-06
1.32611e-06
1.32611e-06
1.32611e-06
1.32611e-06
1.32958e-06
1.33043e-06
1.32986e-06
1.32611e-06
1.32611e-06
1.32611e-06
1.32611e-06
1.32611e-06
1.32611e-06
1.33061e-06
1.33256e-06
1.33243e-06
1.32976e-06
1.32611e-06
1.32611e-06
1.32611e-06
1.32611e-06
1.32611e-06
1.32611e-06
1.33074e-06
1.33234e-06
1.33226e-06
1.32965e-06
1.32611e-06
1.32611e-06
1.32611e-06
1.32611e-06
1.32611e-06
1.32611e-06
1.33073e-06
1.33059e-06
1.32986e-06
1.32611e-06
1.32611e-06
1.32611e-06
1.32611e-06
1.32611e-06
1.32611e-06
1.33069e-06
1.33267e-06
1.33205e-06
1.32958e-06
1.32611e-06
1.32611e-06
1.32611e-06
1.32611e-06
1.33051e-06
1.33062e-06
1.33257e-06
1.3323e-06
1.33043e-06
1.3306e-06
1.33073e-06
1.33073e-06
1.33069e-06
1.33062e-06
1.33254e-06
1.33257e-06
1.33234e-06
1.33059e-06
1.33267e-06
1.33257e-06
1.31324e-06
1.31307e-06
1.31288e-06
1.31067e-06
1.31057e-06
1.31046e-06
1.31067e-06
1.31287e-06
1.31311e-06
1.31288e-06
1.30989e-06
1.30692e-06
1.30692e-06
1.30692e-06
1.30692e-06
1.3104e-06
1.31124e-06
1.31067e-06
1.30692e-06
1.30692e-06
1.30692e-06
1.30692e-06
1.30692e-06
1.30692e-06
1.31142e-06
1.31338e-06
1.31324e-06
1.31057e-06
1.30692e-06
1.30692e-06
1.30692e-06
1.30692e-06
1.30692e-06
1.30692e-06
1.31155e-06
1.31316e-06
1.31307e-06
1.31046e-06
1.30692e-06
1.30692e-06
1.30692e-06
1.30692e-06
1.30692e-06
1.30692e-06
1.31154e-06
1.3114e-06
1.31067e-06
1.30692e-06
1.30692e-06
1.30692e-06
1.30692e-06
1.30692e-06
1.30692e-06
1.3115e-06
1.31348e-06
1.31287e-06
1.3104e-06
1.30692e-06
1.30692e-06
1.30692e-06
1.30692e-06
1.31133e-06
1.31143e-06
1.31338e-06
1.31311e-06
1.31124e-06
1.31142e-06
1.31155e-06
1.31154e-06
1.3115e-06
1.31143e-06
1.31335e-06
1.31338e-06
1.31316e-06
1.3114e-06
1.31348e-06
1.31338e-06
1.29405e-06
1.29388e-06
1.29369e-06
1.29148e-06
1.29138e-06
1.29127e-06
1.29148e-06
1.29368e-06
1.29392e-06
1.29369e-06
1.2907e-06
1.28774e-06
1.28774e-06
1.28774e-06
1.28774e-06
1.29121e-06
1.29205e-06
1.29148e-06
1.28774e-06
1.28774e-06
1.28774e-06
1.28774e-06
1.28774e-06
1.28774e-06
1.29223e-06
1.29419e-06
1.29405e-06
1.29138e-06
1.28774e-06
1.28774e-06
1.28774e-06
1.28774e-06
1.28774e-06
1.28774e-06
1.29236e-06
1.29397e-06
1.29388e-06
1.29127e-06
1.28774e-06
1.28774e-06
1.28774e-06
1.28774e-06
1.28774e-06
1.28774e-06
1.29235e-06
1.29221e-06
1.29148e-06
1.28774e-06
1.28774e-06
1.28774e-06
1.28774e-06
1.28774e-06
1.28774e-06
1.29231e-06
1.29429e-06
1.29368e-06
1.29121e-06
1.28774e-06
1.28774e-06
1.28774e-06
1.28774e-06
1.29214e-06
1.29224e-06
1.29419e-06
1.29392e-06
1.29206e-06
1.29223e-06
1.29236e-06
1.29235e-06
1.29231e-06
1.29224e-06
1.29416e-06
1.29419e-06
1.29397e-06
1.29221e-06
1.29429e-06
1.29419e-06
1.27486e-06
1.27469e-06
1.2745e-06
1.27229e-06
1.2722e-06
1.27208e-06
1.27229e-06
1.27449e-06
1.27473e-06
1.27451e-06
1.27151e-06
1.26855e-06
1.26855e-06
1.26855e-06
1.26855e-06
1.27202e-06
1.27287e-06
1.27229e-06
1.26855e-06
1.26855e-06
1.26855e-06
1.26855e-06
1.26855e-06
1.26855e-06
1.27304e-06
1.275e-06
1.27486e-06
1.2722e-06
1.26855e-06
1.26855e-06
1.26855e-06
1.26855e-06
1.26855e-06
1.26855e-06
1.27317e-06
1.27478e-06
1.27469e-06
1.27208e-06
1.26855e-06
1.26855e-06
1.26855e-06
1.26855e-06
1.26855e-06
1.26855e-06
1.27316e-06
1.27303e-06
1.27229e-06
1.26855e-06
1.26855e-06
1.26855e-06
1.26855e-06
1.26855e-06
1.26855e-06
1.27312e-06
1.27511e-06
1.27449e-06
1.27202e-06
1.26855e-06
1.26855e-06
1.26855e-06
1.26855e-06
1.27295e-06
1.27305e-06
1.275e-06
1.27474e-06
1.27287e-06
1.27304e-06
1.27317e-06
1.27316e-06
1.27312e-06
1.27306e-06
1.27497e-06
1.275e-06
1.27478e-06
1.27303e-06
1.2751e-06
1.275e-06
1.25567e-06
1.2555e-06
1.25532e-06
1.2531e-06
1.25301e-06
1.25289e-06
1.25311e-06
1.2553e-06
1.25555e-06
1.25532e-06
1.25233e-06
1.24936e-06
1.24936e-06
1.24936e-06
1.24936e-06
1.25283e-06
1.25368e-06
1.2531e-06
1.24936e-06
1.24936e-06
1.24936e-06
1.24936e-06
1.24936e-06
1.24936e-06
1.25385e-06
1.25581e-06
1.25568e-06
1.25301e-06
1.24936e-06
1.24936e-06
1.24936e-06
1.24936e-06
1.24936e-06
1.24936e-06
1.25398e-06
1.25559e-06
1.2555e-06
1.25289e-06
1.24936e-06
1.24936e-06
1.24936e-06
1.24936e-06
1.24936e-06
1.24936e-06
1.25397e-06
1.25384e-06
1.25311e-06
1.24936e-06
1.24936e-06
1.24936e-06
1.24936e-06
1.24936e-06
1.24936e-06
1.25394e-06
1.25592e-06
1.2553e-06
1.25283e-06
1.24936e-06
1.24936e-06
1.24936e-06
1.24936e-06
1.25376e-06
1.25386e-06
1.25582e-06