/*--------------------------------*- C++ -*----------------------------------*\
| =========                 |                                                 |
| \\      /  F ield         | OpenFOAM: The Open Source CFD Toolbox           |
|  \\    /   O peration     | Version:  v2012                                 |
|   \\  /    A nd           | Website:  www.openfoam.com                      |
|    \\/     M anipulation  |                                                 |
\*---------------------------------------------------------------------------*/
FoamFile
{
    version     2.0;
    format      ascii;
    class       volScalarField;
    location    "8950.5";
    object      p;
}
// * * * * * * * * * * * * * * * * * * * * * * * * * * * * * * * * * * * * * //

dimensions      [0 2 -2 0 0 0 0];


internalField   nonuniform List<scalar> 
247104
(
1.38406e-07
1.38399e-07
1.38549e-07
1.38642e-07
1.38676e-07
1.38633e-07
1.38538e-07
1.38387e-07
1.38399e-07
1.38607e-07
1.38789e-07
1.38884e-07
1.38908e-07
1.38877e-07
1.38771e-07
1.38585e-07
1.38549e-07
1.38789e-07
1.38931e-07
1.38973e-07
1.38979e-07
1.38971e-07
1.38921e-07
1.38763e-07
1.38527e-07
1.38642e-07
1.38884e-07
1.38973e-07
1.38984e-07
1.38982e-07
1.38984e-07
1.38968e-07
1.38862e-07
1.38612e-07
1.38406e-07
1.38676e-07
1.38908e-07
1.38979e-07
1.38982e-07
1.38978e-07
1.38983e-07
1.38976e-07
1.38888e-07
1.38644e-07
1.38633e-07
1.38877e-07
1.38971e-07
1.38984e-07
1.38983e-07
1.38984e-07
1.38965e-07
1.38855e-07
1.38604e-07
1.38538e-07
1.38771e-07
1.38921e-07
1.38968e-07
1.38976e-07
1.38965e-07
1.38909e-07
1.38744e-07
1.38518e-07
1.38387e-07
1.38585e-07
1.38763e-07
1.38862e-07
1.38888e-07
1.38855e-07
1.38744e-07
1.38566e-07
1.38527e-07
1.38612e-07
1.38644e-07
1.38604e-07
1.38518e-07
1.3567e-07
1.35654e-07
1.3559e-07
1.35375e-07
1.35398e-07
1.35422e-07
1.35433e-07
1.35699e-07
1.3566e-07
1.3559e-07
1.35365e-07
1.35166e-07
1.35212e-07
1.35212e-07
1.35166e-07
1.35456e-07
1.35496e-07
1.35375e-07
1.35166e-07
1.353e-07
1.35294e-07
1.35294e-07
1.353e-07
1.35166e-07
1.35685e-07
1.35738e-07
1.3567e-07
1.35398e-07
1.35212e-07
1.35294e-07
1.353e-07
1.353e-07
1.35294e-07
1.35212e-07
1.35735e-07
1.35771e-07
1.35654e-07
1.35422e-07
1.35212e-07
1.35294e-07
1.353e-07
1.353e-07
1.35294e-07
1.35212e-07
1.35735e-07
1.35555e-07
1.35433e-07
1.35166e-07
1.353e-07
1.35294e-07
1.35294e-07
1.353e-07
1.35166e-07
1.35731e-07
1.35838e-07
1.35699e-07
1.35456e-07
1.35166e-07
1.35212e-07
1.35212e-07
1.35166e-07
1.35768e-07
1.35647e-07
1.35739e-07
1.3566e-07
1.35496e-07
1.35685e-07
1.35735e-07
1.35735e-07
1.35731e-07
1.35648e-07
1.35881e-07
1.35738e-07
1.35771e-07
1.35555e-07
1.35838e-07
1.35739e-07
1.33933e-07
1.3393e-07
1.33897e-07
1.3375e-07
1.33759e-07
1.33777e-07
1.33785e-07
1.33957e-07
1.33942e-07
1.33897e-07
1.33745e-07
1.33573e-07
1.33586e-07
1.33586e-07
1.33573e-07
1.33797e-07
1.33821e-07
1.3375e-07
1.33573e-07
1.3361e-07
1.3361e-07
1.3361e-07
1.3361e-07
1.33573e-07
1.33927e-07
1.33984e-07
1.33933e-07
1.33759e-07
1.33586e-07
1.3361e-07
1.33616e-07
1.33616e-07
1.3361e-07
1.33586e-07
1.33949e-07
1.33986e-07
1.3393e-07
1.33777e-07
1.33586e-07
1.3361e-07
1.33616e-07
1.33616e-07
1.3361e-07
1.33586e-07
1.33944e-07
1.33861e-07
1.33785e-07
1.33573e-07
1.3361e-07
1.3361e-07
1.3361e-07
1.3361e-07
1.33573e-07
1.33947e-07
1.34023e-07
1.33957e-07
1.33797e-07
1.33573e-07
1.33586e-07
1.33586e-07
1.33573e-07
1.33957e-07
1.33908e-07
1.33984e-07
1.33942e-07
1.33821e-07
1.33927e-07
1.33949e-07
1.33944e-07
1.33947e-07
1.33908e-07
1.34073e-07
1.33984e-07
1.33986e-07
1.33861e-07
1.34023e-07
1.33984e-07
1.32441e-07
1.32436e-07
1.32409e-07
1.3227e-07
1.32277e-07
1.32293e-07
1.32301e-07
1.32459e-07
1.32449e-07
1.32409e-07
1.32273e-07
1.32117e-07
1.32119e-07
1.32119e-07
1.32117e-07
1.3232e-07
1.32338e-07
1.3227e-07
1.32117e-07
1.32124e-07
1.32125e-07
1.32125e-07
1.32124e-07
1.32117e-07
1.32439e-07
1.32493e-07
1.32441e-07
1.32277e-07
1.32119e-07
1.32125e-07
1.32127e-07
1.32127e-07
1.32125e-07
1.32119e-07
1.32454e-07
1.32492e-07
1.32436e-07
1.32293e-07
1.32119e-07
1.32125e-07
1.32127e-07
1.32127e-07
1.32125e-07
1.32119e-07
1.32444e-07
1.32371e-07
1.32301e-07
1.32117e-07
1.32124e-07
1.32125e-07
1.32125e-07
1.32124e-07
1.32117e-07
1.32445e-07
1.3252e-07
1.32459e-07
1.3232e-07
1.32117e-07
1.32119e-07
1.32119e-07
1.32117e-07
1.32452e-07
1.32409e-07
1.32488e-07
1.32449e-07
1.32338e-07
1.32439e-07
1.32454e-07
1.32444e-07
1.32445e-07
1.32409e-07
1.32565e-07
1.32493e-07
1.32492e-07
1.32371e-07
1.3252e-07
1.32488e-07
1.30992e-07
1.30985e-07
1.3096e-07
1.30822e-07
1.30828e-07
1.30844e-07
1.30853e-07
1.31008e-07
1.30999e-07
1.3096e-07
1.30826e-07
1.3067e-07
1.30671e-07
1.30671e-07
1.3067e-07
1.30872e-07
1.3089e-07
1.30822e-07
1.3067e-07
1.30674e-07
1.30673e-07
1.30673e-07
1.30674e-07
1.3067e-07
1.3099e-07
1.31044e-07
1.30992e-07
1.30828e-07
1.30671e-07
1.30673e-07
1.30673e-07
1.30673e-07
1.30673e-07
1.30671e-07
1.31003e-07
1.31042e-07
1.30985e-07
1.30844e-07
1.30671e-07
1.30673e-07
1.30673e-07
1.30673e-07
1.30673e-07
1.30671e-07
1.30992e-07
1.30922e-07
1.30853e-07
1.3067e-07
1.30674e-07
1.30673e-07
1.30673e-07
1.30674e-07
1.3067e-07
1.30993e-07
1.31069e-07
1.31008e-07
1.30872e-07
1.3067e-07
1.30671e-07
1.30671e-07
1.3067e-07
1.30999e-07
1.30959e-07
1.31038e-07
1.30999e-07
1.3089e-07
1.3099e-07
1.31003e-07
1.30992e-07
1.30993e-07
1.30959e-07
1.31114e-07
1.31044e-07
1.31042e-07
1.30922e-07
1.31069e-07
1.31038e-07
1.29546e-07
1.2954e-07
1.29514e-07
1.29376e-07
1.29382e-07
1.29398e-07
1.29406e-07
1.29563e-07
1.29553e-07
1.29514e-07
1.2938e-07
1.29224e-07
1.29224e-07
1.29224e-07
1.29224e-07
1.29426e-07
1.29444e-07
1.29376e-07
1.29224e-07
1.29227e-07
1.29225e-07
1.29225e-07
1.29227e-07
1.29224e-07
1.29544e-07
1.29598e-07
1.29546e-07
1.29382e-07
1.29224e-07
1.29225e-07
1.29225e-07
1.29225e-07
1.29225e-07
1.29224e-07
1.29558e-07
1.29597e-07
1.2954e-07
1.29398e-07
1.29224e-07
1.29225e-07
1.29225e-07
1.29225e-07
1.29225e-07
1.29224e-07
1.29546e-07
1.29476e-07
1.29406e-07
1.29224e-07
1.29227e-07
1.29225e-07
1.29225e-07
1.29227e-07
1.29224e-07
1.29547e-07
1.29623e-07
1.29563e-07
1.29426e-07
1.29224e-07
1.29224e-07
1.29224e-07
1.29224e-07
1.29553e-07
1.29513e-07
1.29592e-07
1.29553e-07
1.29444e-07
1.29544e-07
1.29558e-07
1.29546e-07
1.29547e-07
1.29513e-07
1.29668e-07
1.29598e-07
1.29597e-07
1.29476e-07
1.29624e-07
1.29592e-07
1.28098e-07
1.28092e-07
1.28067e-07
1.27928e-07
1.27934e-07
1.2795e-07
1.27959e-07
1.28115e-07
1.28106e-07
1.28067e-07
1.27932e-07
1.27775e-07
1.27776e-07
1.27776e-07
1.27775e-07
1.27978e-07
1.27996e-07
1.27928e-07
1.27775e-07
1.27779e-07
1.27777e-07
1.27777e-07
1.27779e-07
1.27775e-07
1.28097e-07
1.28151e-07
1.28098e-07
1.27934e-07
1.27776e-07
1.27777e-07
1.27777e-07
1.27777e-07
1.27777e-07
1.27776e-07
1.2811e-07
1.28149e-07
1.28092e-07
1.2795e-07
1.27776e-07
1.27777e-07
1.27777e-07
1.27777e-07
1.27777e-07
1.27776e-07
1.28098e-07
1.28028e-07
1.27959e-07
1.27775e-07
1.27779e-07
1.27777e-07
1.27777e-07
1.27779e-07
1.27775e-07
1.281e-07
1.28176e-07
1.28115e-07
1.27978e-07
1.27775e-07
1.27776e-07
1.27776e-07
1.27775e-07
1.28105e-07
1.28066e-07
1.28145e-07
1.28106e-07
1.27996e-07
1.28097e-07
1.2811e-07
1.28098e-07
1.281e-07
1.28066e-07
1.28221e-07
1.28151e-07
1.28149e-07
1.28028e-07
1.28176e-07
1.28145e-07
1.2665e-07
1.26644e-07
1.26618e-07
1.2648e-07
1.26485e-07
1.26502e-07
1.2651e-07
1.26667e-07
1.26657e-07
1.26618e-07
1.26484e-07
1.26327e-07
1.26327e-07
1.26327e-07
1.26327e-07
1.2653e-07
1.26548e-07
1.2648e-07
1.26327e-07
1.2633e-07
1.26329e-07
1.26329e-07
1.2633e-07
1.26327e-07
1.26648e-07
1.26702e-07
1.2665e-07
1.26485e-07
1.26327e-07
1.26329e-07
1.26328e-07
1.26328e-07
1.26329e-07
1.26327e-07
1.26662e-07
1.26701e-07
1.26644e-07
1.26502e-07
1.26327e-07
1.26329e-07
1.26328e-07
1.26328e-07
1.26329e-07
1.26327e-07
1.2665e-07
1.2658e-07
1.2651e-07
1.26327e-07
1.2633e-07
1.26329e-07
1.26329e-07
1.2633e-07
1.26327e-07
1.26651e-07
1.26728e-07
1.26667e-07
1.2653e-07
1.26327e-07
1.26327e-07
1.26327e-07
1.26327e-07
1.26657e-07
1.26617e-07
1.26697e-07
1.26657e-07
1.26548e-07
1.26648e-07
1.26662e-07
1.2665e-07
1.26651e-07
1.26617e-07
1.26772e-07
1.26702e-07
1.26701e-07
1.2658e-07
1.26728e-07
1.26697e-07
1.25201e-07
1.25195e-07
1.2517e-07
1.25031e-07
1.25036e-07
1.25053e-07
1.25061e-07
1.25218e-07
1.25209e-07
1.2517e-07
1.25035e-07
1.24878e-07
1.24879e-07
1.24879e-07
1.24878e-07
1.25081e-07
1.25099e-07
1.25031e-07
1.24878e-07
1.24881e-07
1.2488e-07
1.2488e-07
1.24881e-07
1.24878e-07
1.25199e-07
1.25254e-07
1.25201e-07
1.25036e-07
1.24879e-07
1.2488e-07
1.24879e-07
1.24879e-07
1.2488e-07
1.24879e-07
1.25213e-07
1.25252e-07
1.25195e-07
1.25053e-07
1.24879e-07
1.2488e-07
1.24879e-07
1.24879e-07
1.2488e-07
1.24879e-07
1.25201e-07
1.25131e-07
1.25061e-07
1.24878e-07
1.24881e-07
1.2488e-07
1.2488e-07
1.24881e-07
1.24878e-07
1.25202e-07
1.25279e-07
1.25218e-07
1.25081e-07
1.24878e-07
1.24879e-07
1.24879e-07
1.24878e-07
1.25208e-07
1.25168e-07
1.25248e-07
1.25209e-07
1.25099e-07
1.25199e-07
1.25213e-07
1.25201e-07
1.25202e-07
1.25168e-07
1.25324e-07
1.25254e-07
1.25252e-07
1.25131e-07
1.25279e-07
1.25248e-07
1.23752e-07
1.23746e-07
1.23721e-07
1.23582e-07
1.23588e-07
1.23604e-07
1.23613e-07
1.23769e-07
1.2376e-07
1.23721e-07
1.23586e-07
1.23429e-07
1.2343e-07
1.2343e-07
1.23429e-07
1.23632e-07
1.2365e-07
1.23582e-07
1.23429e-07
1.23432e-07
1.23431e-07
1.23431e-07
1.23432e-07
1.23429e-07
1.23751e-07
1.23805e-07
1.23752e-07
1.23588e-07
1.2343e-07
1.23431e-07
1.2343e-07
1.2343e-07
1.23431e-07
1.2343e-07
1.23764e-07
1.23803e-07
1.23746e-07
1.23604e-07
1.2343e-07
1.23431e-07
1.2343e-07
1.2343e-07
1.23431e-07
1.2343e-07
1.23752e-07
1.23682e-07
1.23613e-07
1.23429e-07
1.23432e-07
1.23431e-07
1.23431e-07
1.23432e-07
1.23429e-07
1.23754e-07
1.2383e-07
1.23769e-07
1.23632e-07
1.23429e-07
1.2343e-07
1.2343e-07
1.23429e-07
1.23759e-07
1.2372e-07
1.23799e-07
1.2376e-07
1.2365e-07
1.23751e-07
1.23764e-07
1.23752e-07
1.23754e-07
1.2372e-07
1.23875e-07
1.23805e-07
1.23803e-07
1.23682e-07
1.2383e-07
1.23799e-07
1.22304e-07
1.22297e-07
1.22272e-07
1.22133e-07
1.22139e-07
1.22155e-07
1.22164e-07
1.2232e-07
1.22311e-07
1.22272e-07
1.22137e-07
1.2198e-07
1.21981e-07
1.21981e-07
1.2198e-07
1.22183e-07
1.22201e-07
1.22133e-07
1.2198e-07
1.21984e-07
1.21982e-07
1.21982e-07
1.21984e-07
1.2198e-07
1.22302e-07
1.22356e-07
1.22304e-07
1.22139e-07
1.21981e-07
1.21982e-07
1.21982e-07
1.21982e-07
1.21982e-07
1.21981e-07
1.22315e-07
1.22354e-07
1.22297e-07
1.22155e-07
1.21981e-07
1.21982e-07
1.21982e-07
1.21982e-07
1.21982e-07
1.21981e-07
1.22303e-07
1.22233e-07
1.22164e-07
1.2198e-07
1.21984e-07
1.21982e-07
1.21982e-07
1.21984e-07
1.2198e-07
1.22305e-07
1.22381e-07
1.2232e-07
1.22183e-07
1.2198e-07
1.21981e-07
1.21981e-07
1.2198e-07
1.2231e-07
1.22271e-07
1.2235e-07
1.22311e-07
1.22201e-07
1.22302e-07
1.22315e-07
1.22303e-07
1.22305e-07
1.22271e-07
1.22426e-07
1.22356e-07
1.22354e-07
1.22233e-07
1.22381e-07
1.2235e-07
1.20855e-07
1.20849e-07
1.20823e-07
1.20685e-07
1.2069e-07
1.20707e-07
1.20715e-07
1.20872e-07
1.20862e-07
1.20823e-07
1.20689e-07
1.20532e-07
1.20532e-07
1.20532e-07
1.20532e-07
1.20735e-07
1.20752e-07
1.20685e-07
1.20532e-07
1.20535e-07
1.20533e-07
1.20533e-07
1.20535e-07
1.20532e-07
1.20853e-07
1.20907e-07
1.20855e-07
1.2069e-07
1.20532e-07
1.20533e-07
1.20533e-07
1.20533e-07
1.20533e-07
1.20532e-07
1.20866e-07
1.20905e-07
1.20849e-07
1.20707e-07
1.20532e-07
1.20533e-07
1.20533e-07
1.20533e-07
1.20533e-07
1.20532e-07
1.20854e-07
1.20785e-07
1.20715e-07
1.20532e-07
1.20535e-07
1.20533e-07
1.20533e-07
1.20535e-07
1.20532e-07
1.20856e-07
1.20933e-07
1.20872e-07
1.20735e-07
1.20532e-07
1.20532e-07
1.20532e-07
1.20532e-07
1.20862e-07
1.20822e-07
1.20901e-07
1.20862e-07
1.20752e-07
1.20853e-07
1.20866e-07
1.20854e-07
1.20856e-07
1.20822e-07
1.20977e-07
1.20907e-07
1.20905e-07
1.20785e-07
1.20933e-07
1.20901e-07
1.19406e-07
1.194e-07
1.19374e-07
1.19236e-07
1.19241e-07
1.19258e-07
1.19266e-07
1.19423e-07
1.19413e-07
1.19374e-07
1.1924e-07
1.19083e-07
1.19083e-07
1.19083e-07
1.19083e-07
1.19286e-07
1.19304e-07
1.19236e-07
1.19083e-07
1.19086e-07
1.19085e-07
1.19085e-07
1.19086e-07
1.19083e-07
1.19404e-07
1.19458e-07
1.19406e-07
1.19241e-07
1.19083e-07
1.19085e-07
1.19084e-07
1.19084e-07
1.19085e-07
1.19083e-07
1.19418e-07
1.19457e-07
1.194e-07
1.19258e-07
1.19083e-07
1.19085e-07
1.19084e-07
1.19084e-07
1.19085e-07
1.19083e-07
1.19406e-07
1.19336e-07
1.19266e-07
1.19083e-07
1.19086e-07
1.19085e-07
1.19085e-07
1.19086e-07
1.19083e-07
1.19407e-07
1.19484e-07
1.19423e-07
1.19286e-07
1.19083e-07
1.19083e-07
1.19083e-07
1.19083e-07
1.19413e-07
1.19373e-07
1.19453e-07
1.19413e-07
1.19304e-07
1.19404e-07
1.19418e-07
1.19406e-07
1.19407e-07
1.19373e-07
1.19528e-07
1.19458e-07
1.19457e-07
1.19336e-07
1.19484e-07
1.19453e-07
1.17957e-07
1.17951e-07
1.17926e-07
1.17787e-07
1.17793e-07
1.17809e-07
1.17817e-07
1.17974e-07
1.17965e-07
1.17926e-07
1.17791e-07
1.17634e-07
1.17635e-07
1.17635e-07
1.17634e-07
1.17837e-07
1.17855e-07
1.17787e-07
1.17634e-07
1.17637e-07
1.17636e-07
1.17636e-07
1.17637e-07
1.17634e-07
1.17955e-07
1.1801e-07
1.17957e-07
1.17793e-07
1.17635e-07
1.17636e-07
1.17635e-07
1.17635e-07
1.17636e-07
1.17635e-07
1.17969e-07
1.18008e-07
1.17951e-07
1.17809e-07
1.17635e-07
1.17636e-07
1.17635e-07
1.17635e-07
1.17636e-07
1.17635e-07
1.17957e-07
1.17887e-07
1.17817e-07
1.17634e-07
1.17637e-07
1.17636e-07
1.17636e-07
1.17637e-07
1.17634e-07
1.17959e-07
1.18035e-07
1.17974e-07
1.17837e-07
1.17634e-07
1.17635e-07
1.17635e-07
1.17634e-07
1.17964e-07
1.17924e-07
1.18004e-07
1.17965e-07
1.17855e-07
1.17955e-07
1.17969e-07
1.17957e-07
1.17959e-07
1.17924e-07
1.1808e-07
1.1801e-07
1.18008e-07
1.17887e-07
1.18035e-07
1.18004e-07
1.16509e-07
1.16502e-07
1.16477e-07
1.16338e-07
1.16344e-07
1.1636e-07
1.16369e-07
1.16525e-07
1.16516e-07
1.16477e-07
1.16342e-07
1.16185e-07
1.16186e-07
1.16186e-07
1.16185e-07
1.16388e-07
1.16406e-07
1.16338e-07
1.16185e-07
1.16189e-07
1.16187e-07
1.16187e-07
1.16189e-07
1.16185e-07
1.16507e-07
1.16561e-07
1.16509e-07
1.16344e-07
1.16186e-07
1.16187e-07
1.16187e-07
1.16187e-07
1.16187e-07
1.16186e-07
1.1652e-07
1.16559e-07
1.16502e-07
1.1636e-07
1.16186e-07
1.16187e-07
1.16187e-07
1.16187e-07
1.16187e-07
1.16186e-07
1.16508e-07
1.16438e-07
1.16369e-07
1.16185e-07
1.16189e-07
1.16187e-07
1.16187e-07
1.16189e-07
1.16185e-07
1.1651e-07
1.16586e-07
1.16525e-07
1.16388e-07
1.16185e-07
1.16186e-07
1.16186e-07
1.16185e-07
1.16515e-07
1.16476e-07
1.16555e-07
1.16516e-07
1.16406e-07
1.16507e-07
1.1652e-07
1.16508e-07
1.1651e-07
1.16476e-07
1.16631e-07
1.16561e-07
1.16559e-07
1.16438e-07
1.16586e-07
1.16555e-07
1.1506e-07
1.15054e-07
1.15028e-07
1.1489e-07
1.14895e-07
1.14912e-07
1.1492e-07
1.15077e-07
1.15067e-07
1.15028e-07
1.14893e-07
1.14737e-07
1.14737e-07
1.14737e-07
1.14737e-07
1.1494e-07
1.14957e-07
1.1489e-07
1.14737e-07
1.1474e-07
1.14738e-07
1.14738e-07
1.1474e-07
1.14736e-07
1.15058e-07
1.15112e-07
1.1506e-07
1.14895e-07
1.14737e-07
1.14738e-07
1.14738e-07
1.14738e-07
1.14738e-07
1.14737e-07
1.15071e-07
1.1511e-07
1.15054e-07
1.14912e-07
1.14737e-07
1.14738e-07
1.14738e-07
1.14738e-07
1.14738e-07
1.14737e-07
1.15059e-07
1.1499e-07
1.1492e-07
1.14737e-07
1.1474e-07
1.14738e-07
1.14738e-07
1.1474e-07
1.14737e-07
1.15061e-07
1.15138e-07
1.15077e-07
1.1494e-07
1.14737e-07
1.14737e-07
1.14737e-07
1.14737e-07
1.15067e-07
1.15027e-07
1.15106e-07
1.15067e-07
1.14957e-07
1.15058e-07
1.15071e-07
1.15059e-07
1.15061e-07
1.15027e-07
1.15182e-07
1.15112e-07
1.1511e-07
1.1499e-07
1.15138e-07
1.15106e-07
1.13611e-07
1.13605e-07
1.13579e-07
1.13441e-07
1.13446e-07
1.13463e-07
1.13471e-07
1.13628e-07
1.13618e-07
1.13579e-07
1.13445e-07
1.13288e-07
1.13288e-07
1.13288e-07
1.13288e-07
1.13491e-07
1.13509e-07
1.13441e-07
1.13288e-07
1.13291e-07
1.1329e-07
1.1329e-07
1.13291e-07
1.13288e-07
1.13609e-07
1.13663e-07
1.13611e-07
1.13446e-07
1.13288e-07
1.1329e-07
1.13289e-07
1.13289e-07
1.1329e-07
1.13288e-07
1.13623e-07
1.13662e-07
1.13605e-07
1.13463e-07
1.13288e-07
1.1329e-07
1.13289e-07
1.13289e-07
1.1329e-07
1.13288e-07
1.13611e-07
1.13541e-07
1.13471e-07
1.13288e-07
1.13291e-07
1.1329e-07
1.1329e-07
1.13291e-07
1.13288e-07
1.13612e-07
1.13689e-07
1.13628e-07
1.13491e-07
1.13288e-07
1.13288e-07
1.13288e-07
1.13288e-07
1.13618e-07
1.13578e-07
1.13658e-07
1.13618e-07
1.13509e-07
1.13609e-07
1.13623e-07
1.13611e-07
1.13612e-07
1.13578e-07
1.13733e-07
1.13663e-07
1.13662e-07
1.13541e-07
1.13689e-07
1.13658e-07
1.12162e-07
1.12156e-07
1.12131e-07
1.11992e-07
1.11997e-07
1.12014e-07
1.12022e-07
1.12179e-07
1.1217e-07
1.12131e-07
1.11996e-07
1.11839e-07
1.1184e-07
1.1184e-07
1.11839e-07
1.12042e-07
1.1206e-07
1.11992e-07
1.11839e-07
1.11842e-07
1.11841e-07
1.11841e-07
1.11842e-07
1.11839e-07
1.1216e-07
1.12215e-07
1.12162e-07
1.11997e-07
1.1184e-07
1.11841e-07
1.1184e-07
1.1184e-07
1.11841e-07
1.1184e-07
1.12174e-07
1.12213e-07
1.12156e-07
1.12014e-07
1.1184e-07
1.11841e-07
1.1184e-07
1.1184e-07
1.11841e-07
1.1184e-07
1.12162e-07
1.12092e-07
1.12022e-07
1.11839e-07
1.11842e-07
1.11841e-07
1.11841e-07
1.11842e-07
1.11839e-07
1.12163e-07
1.1224e-07
1.12179e-07
1.12042e-07
1.11839e-07
1.1184e-07
1.1184e-07
1.11839e-07
1.12169e-07
1.12129e-07
1.12209e-07
1.1217e-07
1.1206e-07
1.1216e-07
1.12174e-07
1.12162e-07
1.12164e-07
1.12129e-07
1.12285e-07
1.12215e-07
1.12213e-07
1.12092e-07
1.1224e-07
1.12209e-07
1.10713e-07
1.10707e-07
1.10682e-07
1.10543e-07
1.10549e-07
1.10565e-07
1.10574e-07
1.1073e-07
1.10721e-07
1.10682e-07
1.10547e-07
1.1039e-07
1.10391e-07
1.10391e-07
1.1039e-07
1.10593e-07
1.10611e-07
1.10543e-07
1.1039e-07
1.10393e-07
1.10392e-07
1.10392e-07
1.10393e-07
1.1039e-07
1.10712e-07
1.10766e-07
1.10713e-07
1.10549e-07
1.10391e-07
1.10392e-07
1.10391e-07
1.10391e-07
1.10392e-07
1.10391e-07
1.10725e-07
1.10764e-07
1.10707e-07
1.10565e-07
1.10391e-07
1.10392e-07
1.10391e-07
1.10391e-07
1.10392e-07
1.10391e-07
1.10713e-07
1.10643e-07
1.10574e-07
1.1039e-07
1.10393e-07
1.10392e-07
1.10392e-07
1.10393e-07
1.1039e-07
1.10715e-07
1.10791e-07
1.1073e-07
1.10593e-07
1.1039e-07
1.10391e-07
1.10391e-07
1.1039e-07
1.1072e-07
1.10681e-07
1.1076e-07
1.10721e-07
1.10611e-07
1.10712e-07
1.10725e-07
1.10713e-07
1.10715e-07
1.10681e-07
1.10836e-07
1.10766e-07
1.10764e-07
1.10643e-07
1.10791e-07
1.1076e-07
1.09265e-07
1.09258e-07
1.09233e-07
1.09094e-07
1.091e-07
1.09116e-07
1.09125e-07
1.09281e-07
1.09272e-07
1.09233e-07
1.09098e-07
1.08941e-07
1.08942e-07
1.08942e-07
1.08941e-07
1.09144e-07
1.09162e-07
1.09094e-07
1.08941e-07
1.08945e-07
1.08943e-07
1.08943e-07
1.08945e-07
1.08941e-07
1.09263e-07
1.09317e-07
1.09265e-07
1.091e-07
1.08942e-07
1.08943e-07
1.08943e-07
1.08943e-07
1.08943e-07
1.08942e-07
1.09276e-07
1.09315e-07
1.09258e-07
1.09116e-07
1.08942e-07
1.08943e-07
1.08943e-07
1.08943e-07
1.08943e-07
1.08942e-07
1.09264e-07
1.09194e-07
1.09125e-07
1.08941e-07
1.08945e-07
1.08943e-07
1.08943e-07
1.08945e-07
1.08941e-07
1.09266e-07
1.09342e-07
1.09281e-07
1.09144e-07
1.08941e-07
1.08942e-07
1.08942e-07
1.08941e-07
1.09271e-07
1.09232e-07
1.09311e-07
1.09272e-07
1.09162e-07
1.09263e-07
1.09276e-07
1.09264e-07
1.09266e-07
1.09232e-07
1.09387e-07
1.09317e-07
1.09315e-07
1.09195e-07
1.09342e-07
1.09311e-07
1.07816e-07
1.0781e-07
1.07784e-07
1.07646e-07
1.07651e-07
1.07668e-07
1.07676e-07
1.07833e-07
1.07823e-07
1.07784e-07
1.0765e-07
1.07493e-07
1.07493e-07
1.07493e-07
1.07493e-07
1.07696e-07
1.07713e-07
1.07646e-07
1.07493e-07
1.07496e-07
1.07495e-07
1.07495e-07
1.07496e-07
1.07493e-07
1.07814e-07
1.07868e-07
1.07816e-07
1.07651e-07
1.07493e-07
1.07495e-07
1.07494e-07
1.07494e-07
1.07495e-07
1.07493e-07
1.07827e-07
1.07867e-07
1.0781e-07
1.07668e-07
1.07493e-07
1.07495e-07
1.07494e-07
1.07494e-07
1.07495e-07
1.07493e-07
1.07815e-07
1.07746e-07
1.07676e-07
1.07493e-07
1.07496e-07
1.07495e-07
1.07495e-07
1.07496e-07
1.07493e-07
1.07817e-07
1.07894e-07
1.07833e-07
1.07696e-07
1.07493e-07
1.07493e-07
1.07493e-07
1.07493e-07
1.07823e-07
1.07783e-07
1.07862e-07
1.07823e-07
1.07713e-07
1.07814e-07
1.07828e-07
1.07816e-07
1.07817e-07
1.07783e-07
1.07938e-07
1.07868e-07
1.07867e-07
1.07746e-07
1.07894e-07
1.07862e-07
1.06367e-07
1.06361e-07
1.06335e-07
1.06197e-07
1.06202e-07
1.06219e-07
1.06227e-07
1.06384e-07
1.06375e-07
1.06336e-07
1.06201e-07
1.06044e-07
1.06044e-07
1.06044e-07
1.06044e-07
1.06247e-07
1.06265e-07
1.06197e-07
1.06044e-07
1.06047e-07
1.06046e-07
1.06046e-07
1.06047e-07
1.06044e-07
1.06365e-07
1.0642e-07
1.06367e-07
1.06202e-07
1.06044e-07
1.06046e-07
1.06045e-07
1.06045e-07
1.06046e-07
1.06044e-07
1.06379e-07
1.06418e-07
1.06361e-07
1.06219e-07
1.06044e-07
1.06046e-07
1.06045e-07
1.06045e-07
1.06046e-07
1.06044e-07
1.06367e-07
1.06297e-07
1.06227e-07
1.06044e-07
1.06047e-07
1.06046e-07
1.06046e-07
1.06047e-07
1.06044e-07
1.06368e-07
1.06445e-07
1.06384e-07
1.06247e-07
1.06044e-07
1.06044e-07
1.06044e-07
1.06044e-07
1.06374e-07
1.06334e-07
1.06414e-07
1.06375e-07
1.06265e-07
1.06365e-07
1.06379e-07
1.06367e-07
1.06368e-07
1.06334e-07
1.06489e-07
1.0642e-07
1.06418e-07
1.06297e-07
1.06445e-07
1.06414e-07
1.04918e-07
1.04912e-07
1.04887e-07
1.04748e-07
1.04754e-07
1.0477e-07
1.04779e-07
1.04935e-07
1.04926e-07
1.04887e-07
1.04752e-07
1.04595e-07
1.04596e-07
1.04596e-07
1.04595e-07
1.04798e-07
1.04816e-07
1.04748e-07
1.04595e-07
1.04598e-07
1.04597e-07
1.04597e-07
1.04598e-07
1.04595e-07
1.04916e-07
1.04971e-07
1.04918e-07
1.04754e-07
1.04596e-07
1.04597e-07
1.04596e-07
1.04596e-07
1.04597e-07
1.04596e-07
1.0493e-07
1.04969e-07
1.04912e-07
1.0477e-07
1.04596e-07
1.04597e-07
1.04596e-07
1.04596e-07
1.04597e-07
1.04596e-07
1.04918e-07
1.04848e-07
1.04779e-07
1.04595e-07
1.04598e-07
1.04597e-07
1.04597e-07
1.04598e-07
1.04595e-07
1.0492e-07
1.04996e-07
1.04935e-07
1.04798e-07
1.04595e-07
1.04596e-07
1.04596e-07
1.04595e-07
1.04925e-07
1.04885e-07
1.04965e-07
1.04926e-07
1.04816e-07
1.04916e-07
1.0493e-07
1.04918e-07
1.0492e-07
1.04886e-07
1.05041e-07
1.04971e-07
1.04969e-07
1.04848e-07
1.04996e-07
1.04965e-07
1.0347e-07
1.03463e-07
1.03438e-07
1.03299e-07
1.03305e-07
1.03321e-07
1.0333e-07
1.03486e-07
1.03477e-07
1.03438e-07
1.03303e-07
1.03146e-07
1.03147e-07
1.03147e-07
1.03146e-07
1.03349e-07
1.03367e-07
1.03299e-07
1.03146e-07
1.0315e-07
1.03148e-07
1.03148e-07
1.0315e-07
1.03146e-07
1.03468e-07
1.03522e-07
1.0347e-07
1.03305e-07
1.03147e-07
1.03148e-07
1.03148e-07
1.03148e-07
1.03148e-07
1.03147e-07
1.03481e-07
1.0352e-07
1.03463e-07
1.03321e-07
1.03147e-07
1.03148e-07
1.03148e-07
1.03148e-07
1.03148e-07
1.03147e-07
1.03469e-07
1.03399e-07
1.0333e-07
1.03146e-07
1.0315e-07
1.03148e-07
1.03148e-07
1.0315e-07
1.03146e-07
1.03471e-07
1.03547e-07
1.03486e-07
1.03349e-07
1.03146e-07
1.03147e-07
1.03147e-07
1.03146e-07
1.03476e-07
1.03437e-07
1.03516e-07
1.03477e-07
1.03367e-07
1.03468e-07
1.03481e-07
1.03469e-07
1.03471e-07
1.03437e-07
1.03592e-07
1.03522e-07
1.0352e-07
1.03399e-07
1.03547e-07
1.03516e-07
1.02021e-07
1.02015e-07
1.01989e-07
1.01851e-07
1.01856e-07
1.01873e-07
1.01881e-07
1.02038e-07
1.02028e-07
1.01989e-07
1.01855e-07
1.01698e-07
1.01698e-07
1.01698e-07
1.01698e-07
1.01901e-07
1.01918e-07
1.01851e-07
1.01698e-07
1.01701e-07
1.017e-07
1.017e-07
1.01701e-07
1.01698e-07
1.02019e-07
1.02073e-07
1.02021e-07
1.01856e-07
1.01698e-07
1.017e-07
1.01699e-07
1.01699e-07
1.017e-07
1.01698e-07
1.02032e-07
1.02072e-07
1.02015e-07
1.01873e-07
1.01698e-07
1.017e-07
1.01699e-07
1.01699e-07
1.017e-07
1.01698e-07
1.0202e-07
1.01951e-07
1.01881e-07
1.01698e-07
1.01701e-07
1.017e-07
1.017e-07
1.01701e-07
1.01698e-07
1.02022e-07
1.02099e-07
1.02038e-07
1.01901e-07
1.01698e-07
1.01698e-07
1.01698e-07
1.01698e-07
1.02028e-07
1.01988e-07
1.02067e-07
1.02028e-07
1.01918e-07
1.02019e-07
1.02033e-07
1.02021e-07
1.02022e-07
1.01988e-07
1.02143e-07
1.02073e-07
1.02072e-07
1.01951e-07
1.02099e-07
1.02067e-07
1.00572e-07
1.00566e-07
1.00541e-07
1.00402e-07
1.00407e-07
1.00424e-07
1.00432e-07
1.00589e-07
1.0058e-07
1.00541e-07
1.00406e-07
1.00249e-07
1.00249e-07
1.00249e-07
1.00249e-07
1.00452e-07
1.0047e-07
1.00402e-07
1.00249e-07
1.00252e-07
1.00251e-07
1.00251e-07
1.00252e-07
1.00249e-07
1.0057e-07
1.00625e-07
1.00572e-07
1.00407e-07
1.00249e-07
1.00251e-07
1.0025e-07
1.0025e-07
1.00251e-07
1.00249e-07
1.00584e-07
1.00623e-07
1.00566e-07
1.00424e-07
1.00249e-07
1.00251e-07
1.0025e-07
1.0025e-07
1.00251e-07
1.00249e-07
1.00572e-07
1.00502e-07
1.00432e-07
1.00249e-07
1.00252e-07
1.00251e-07
1.00251e-07
1.00252e-07
1.00249e-07
1.00573e-07
1.0065e-07
1.00589e-07
1.00452e-07
1.00249e-07
1.00249e-07
1.00249e-07
1.00249e-07
1.00579e-07
1.00539e-07
1.00619e-07
1.0058e-07
1.0047e-07
1.0057e-07
1.00584e-07
1.00572e-07
1.00573e-07
1.00539e-07
1.00694e-07
1.00625e-07
1.00623e-07
1.00502e-07
1.0065e-07
1.00619e-07
9.91234e-08
9.91171e-08
9.90918e-08
9.89532e-08
9.89586e-08
9.89752e-08
9.89836e-08
9.91402e-08
9.91308e-08
9.90918e-08
9.89571e-08
9.88001e-08
9.88007e-08
9.88007e-08
9.88001e-08
9.90032e-08
9.9021e-08
9.89532e-08
9.88001e-08
9.88034e-08
9.8802e-08
9.8802e-08
9.88034e-08
9.88001e-08
9.91215e-08
9.91758e-08
9.91234e-08
9.89586e-08
9.88007e-08
9.8802e-08
9.88014e-08
9.88014e-08
9.8802e-08
9.88007e-08
9.9135e-08
9.9174e-08
9.91171e-08
9.89752e-08
9.88007e-08
9.8802e-08
9.88014e-08
9.88014e-08
9.8802e-08
9.88007e-08
9.9123e-08
9.90532e-08
9.89836e-08
9.88001e-08
9.88034e-08
9.8802e-08
9.8802e-08
9.88034e-08
9.88001e-08
9.91247e-08
9.92012e-08
9.91402e-08
9.90032e-08
9.88001e-08
9.88007e-08
9.88007e-08
9.88001e-08
9.91302e-08
9.90905e-08
9.917e-08
9.91308e-08
9.9021e-08
9.91215e-08
9.9135e-08
9.9123e-08
9.91247e-08
9.90906e-08
9.92457e-08
9.91758e-08
9.91741e-08
9.90532e-08
9.92012e-08
9.917e-08
9.76746e-08
9.76684e-08
9.7643e-08
9.75045e-08
9.75099e-08
9.75265e-08
9.75348e-08
9.76914e-08
9.76821e-08
9.76431e-08
9.75084e-08
9.73514e-08
9.7352e-08
9.7352e-08
9.73514e-08
9.75545e-08
9.75722e-08
9.75045e-08
9.73514e-08
9.73547e-08
9.73533e-08
9.73533e-08
9.73547e-08
9.73514e-08
9.76728e-08
9.77271e-08
9.76746e-08
9.75099e-08
9.7352e-08
9.73533e-08
9.73527e-08
9.73527e-08
9.73533e-08
9.7352e-08
9.76863e-08
9.77253e-08
9.76684e-08
9.75265e-08
9.7352e-08
9.73533e-08
9.73527e-08
9.73526e-08
9.73533e-08
9.7352e-08
9.76743e-08
9.76045e-08
9.75348e-08
9.73514e-08
9.73547e-08
9.73533e-08
9.73533e-08
9.73547e-08
9.73514e-08
9.76759e-08
9.77524e-08
9.76915e-08
9.75545e-08
9.73514e-08
9.7352e-08
9.7352e-08
9.73514e-08
9.76815e-08
9.76418e-08
9.77212e-08
9.76821e-08
9.75722e-08
9.76728e-08
9.76863e-08
9.76743e-08
9.76759e-08
9.76418e-08
9.7797e-08
9.77271e-08
9.77253e-08
9.76045e-08
9.77524e-08
9.77213e-08
9.62259e-08
9.62196e-08
9.61943e-08
9.60557e-08
9.60611e-08
9.60777e-08
9.60861e-08
9.62427e-08
9.62333e-08
9.61943e-08
9.60596e-08
9.59026e-08
9.59032e-08
9.59032e-08
9.59026e-08
9.61057e-08
9.61235e-08
9.60557e-08
9.59026e-08
9.59059e-08
9.59045e-08
9.59045e-08
9.59059e-08
9.59026e-08
9.6224e-08
9.62783e-08
9.62259e-08
9.60611e-08
9.59032e-08
9.59045e-08
9.59039e-08
9.59039e-08
9.59045e-08
9.59032e-08
9.62375e-08
9.62765e-08
9.62196e-08
9.60777e-08
9.59032e-08
9.59045e-08
9.59039e-08
9.59039e-08
9.59045e-08
9.59032e-08
9.62255e-08
9.61557e-08
9.60861e-08
9.59026e-08
9.59059e-08
9.59045e-08
9.59045e-08
9.59059e-08
9.59026e-08
9.62272e-08
9.63037e-08
9.62427e-08
9.61057e-08
9.59026e-08
9.59032e-08
9.59032e-08
9.59026e-08
9.62327e-08
9.6193e-08
9.62725e-08
9.62333e-08
9.61235e-08
9.6224e-08
9.62375e-08
9.62255e-08
9.62272e-08
9.61931e-08
9.63482e-08
9.62783e-08
9.62766e-08
9.61557e-08
9.63037e-08
9.62725e-08
9.47771e-08
9.47709e-08
9.47455e-08
9.4607e-08
9.46124e-08
9.46289e-08
9.46373e-08
9.47939e-08
9.47845e-08
9.47456e-08
9.46108e-08
9.44539e-08
9.44545e-08
9.44545e-08
9.44539e-08
9.46569e-08
9.46747e-08
9.4607e-08
9.44539e-08
9.44571e-08
9.44558e-08
9.44558e-08
9.44571e-08
9.44539e-08
9.47753e-08
9.48296e-08
9.47771e-08
9.46124e-08
9.44545e-08
9.44558e-08
9.44551e-08
9.44551e-08
9.44558e-08
9.44545e-08
9.47888e-08
9.48278e-08
9.47709e-08
9.4629e-08
9.44545e-08
9.44558e-08
9.44551e-08
9.44551e-08
9.44558e-08
9.44545e-08
9.47768e-08
9.4707e-08
9.46373e-08
9.44539e-08
9.44571e-08
9.44558e-08
9.44558e-08
9.44571e-08
9.44539e-08
9.47784e-08
9.48549e-08
9.4794e-08
9.4657e-08
9.44539e-08
9.44545e-08
9.44545e-08
9.44539e-08
9.4784e-08
9.47442e-08
9.48237e-08
9.47845e-08
9.46747e-08
9.47753e-08
9.47888e-08
9.47768e-08
9.47784e-08
9.47443e-08
9.48995e-08
9.48296e-08
9.48278e-08
9.4707e-08
9.48549e-08
9.48237e-08
9.33283e-08
9.33221e-08
9.32967e-08
9.31582e-08
9.31636e-08
9.31802e-08
9.31885e-08
9.33452e-08
9.33358e-08
9.32968e-08
9.31621e-08
9.30051e-08
9.30057e-08
9.30057e-08
9.30051e-08
9.32082e-08
9.32259e-08
9.31582e-08
9.30051e-08
9.30084e-08
9.3007e-08
9.3007e-08
9.30084e-08
9.30051e-08
9.33265e-08
9.33808e-08
9.33283e-08
9.31636e-08
9.30057e-08
9.3007e-08
9.30064e-08
9.30064e-08
9.3007e-08
9.30057e-08
9.334e-08
9.3379e-08
9.33221e-08
9.31802e-08
9.30057e-08
9.3007e-08
9.30064e-08
9.30064e-08
9.3007e-08
9.30057e-08
9.3328e-08
9.32582e-08
9.31885e-08
9.30051e-08
9.30084e-08
9.3007e-08
9.3007e-08
9.30084e-08
9.30051e-08
9.33296e-08
9.34061e-08
9.33452e-08
9.32082e-08
9.30051e-08
9.30057e-08
9.30057e-08
9.30051e-08
9.33352e-08
9.32955e-08
9.33749e-08
9.33358e-08
9.3226e-08
9.33265e-08
9.334e-08
9.3328e-08
9.33297e-08
9.32955e-08
9.34507e-08
9.33808e-08
9.3379e-08
9.32582e-08
9.34061e-08
9.3375e-08
9.18795e-08
9.18733e-08
9.1848e-08
9.17094e-08
9.17148e-08
9.17314e-08
9.17397e-08
9.18964e-08
9.1887e-08
9.1848e-08
9.17133e-08
9.15563e-08
9.15569e-08
9.15569e-08
9.15563e-08
9.17594e-08
9.17772e-08
9.17094e-08
9.15563e-08
9.15596e-08
9.15582e-08
9.15582e-08
9.15596e-08
9.15563e-08
9.18777e-08
9.1932e-08
9.18796e-08
9.17148e-08
9.15569e-08
9.15582e-08
9.15576e-08
9.15576e-08
9.15582e-08
9.15569e-08
9.18912e-08
9.19302e-08
9.18733e-08
9.17314e-08
9.15569e-08
9.15582e-08
9.15576e-08
9.15576e-08
9.15582e-08
9.15569e-08
9.18792e-08
9.18094e-08
9.17397e-08
9.15563e-08
9.15596e-08
9.15582e-08
9.15582e-08
9.15596e-08
9.15563e-08
9.18809e-08
9.19574e-08
9.18964e-08
9.17594e-08
9.15563e-08
9.15569e-08
9.15569e-08
9.15563e-08
9.18864e-08
9.18467e-08
9.19262e-08
9.1887e-08
9.17772e-08
9.18777e-08
9.18912e-08
9.18792e-08