/*--------------------------------*- C++ -*----------------------------------*\
| =========                 |                                                 |
| \\      /  F ield         | OpenFOAM: The Open Source CFD Toolbox           |
|  \\    /   O peration     | Version:  v2012                                 |
|   \\  /    A nd           | Website:  www.openfoam.com                      |
|    \\/     M anipulation  |                                                 |
\*---------------------------------------------------------------------------*/
FoamFile
{
    version     2.0;
    format      ascii;
    class       volScalarField;
    location    "250";
    object      epsilon;
}
// * * * * * * * * * * * * * * * * * * * * * * * * * * * * * * * * * * * * * //

dimensions      [0 2 -3 0 0 0 0];


internalField   nonuniform List<scalar> 
85864
(
4.95567e-07
4.9733e-07
4.9733e-07
4.99575e-07
4.45573e-07
4.53735e-07
4.53737e-07
4.6371e-07
4.03752e-07
4.18513e-07
4.18517e-07
4.39411e-07
3.68363e-07
3.88552e-07
3.88558e-07
4.17667e-07
3.38015e-07
3.62102e-07
3.6211e-07
3.96081e-07
3.11646e-07
3.38273e-07
3.38281e-07
3.7458e-07
2.88473e-07
3.16638e-07
3.16646e-07
3.5371e-07
2.67923e-07
2.97021e-07
2.97031e-07
3.34148e-07
2.4958e-07
2.7937e-07
2.79379e-07
3.16483e-07
2.33137e-07
2.63679e-07
2.63688e-07
3.01163e-07
2.18366e-07
2.49955e-07
2.49964e-07
2.88491e-07
2.0509e-07
2.38199e-07
2.38208e-07
2.78701e-07
1.93172e-07
2.28411e-07
2.28422e-07
2.71875e-07
1.82498e-07
2.20601e-07
2.20611e-07
2.68169e-07
1.72979e-07
2.14771e-07
2.14787e-07
2.67648e-07
1.64541e-07
2.10937e-07
2.10951e-07
2.7048e-07
1.57122e-07
2.09105e-07
2.09126e-07
2.76695e-07
1.50668e-07
2.09295e-07
2.09317e-07
2.86286e-07
1.45137e-07
2.1155e-07
2.11576e-07
2.99233e-07
1.40492e-07
2.15886e-07
2.15917e-07
3.15614e-07
1.36703e-07
2.22326e-07
2.22361e-07
3.35369e-07
1.33748e-07
2.30885e-07
2.30922e-07
3.58394e-07
1.31605e-07
2.41552e-07
2.41592e-07
3.84521e-07
1.30258e-07
2.54305e-07
2.54349e-07
4.13522e-07
1.29696e-07
2.691e-07
2.69148e-07
4.45039e-07
1.29921e-07
2.8587e-07
2.85923e-07
4.78683e-07
1.3091e-07
3.04529e-07
3.04588e-07
5.14021e-07
1.32666e-07
3.24975e-07
3.25039e-07
5.50613e-07
1.35188e-07
3.47088e-07
3.47155e-07
5.88014e-07
1.38479e-07
3.70729e-07
3.70802e-07
6.25796e-07
1.42541e-07
3.95754e-07
3.95833e-07
6.63578e-07
1.47378e-07
4.22007e-07
4.22087e-07
7.01038e-07
1.52996e-07
4.49315e-07
4.49403e-07
7.37881e-07
1.594e-07
4.77521e-07
4.77607e-07
7.73939e-07
1.66599e-07
5.06435e-07
5.0653e-07
8.08995e-07
1.74594e-07
5.35892e-07
5.35987e-07
8.4296e-07
1.83382e-07
5.65712e-07
5.65812e-07
8.75762e-07
1.92957e-07
5.95712e-07
5.95813e-07
9.07388e-07
2.03311e-07
6.25727e-07
6.25838e-07
9.37812e-07
2.14434e-07
6.55611e-07
6.55715e-07
9.67016e-07
2.26297e-07
6.85197e-07
6.85311e-07
9.95028e-07
2.38862e-07
7.1434e-07
7.14454e-07
1.02184e-06
2.52141e-07
7.42975e-07
7.43089e-07
1.04752e-06
2.66019e-07
7.70904e-07
7.71024e-07
1.07205e-06
2.80498e-07
7.98075e-07
7.9819e-07
1.09547e-06
2.95522e-07
8.24518e-07
8.24636e-07
1.11799e-06
3.10928e-07
8.49753e-07
8.49869e-07
1.139e-06
5.06417e-07
5.05584e-07
5.05582e-07
5.06417e-07
5.05583e-07
5.05582e-07
5.09649e-07
5.09649e-07
5.09649e-07
5.09649e-07
5.05584e-07
5.05584e-07
5.06418e-07
5.05584e-07
5.05583e-07
5.06418e-07
4.99575e-07
4.67237e-07
4.97331e-07
4.97335e-07
4.63713e-07
4.63721e-07
4.99575e-07
4.67235e-07
4.97335e-07
4.97336e-07
4.63718e-07
4.63724e-07
4.97332e-07
4.63709e-07
4.63714e-07
4.99575e-07
4.67241e-07
4.97334e-07
4.6371e-07
4.63719e-07
4.6724e-07
4.63709e-07
4.41426e-07
4.5374e-07
4.53748e-07
4.26738e-07
4.26747e-07
4.63708e-07
4.4142e-07
4.53744e-07
4.53751e-07
4.26739e-07
4.26751e-07
4.53741e-07
4.26729e-07
4.26741e-07
4.63711e-07
4.41431e-07
4.53744e-07
4.26734e-07
4.26741e-07
4.41429e-07
4.39407e-07
4.19283e-07
4.18522e-07
4.1853e-07
3.95676e-07
3.95682e-07
4.39405e-07
4.19275e-07
4.18522e-07
4.18535e-07
3.95672e-07
3.95689e-07
4.18525e-07
3.95663e-07
3.95679e-07
4.39414e-07
4.19289e-07
4.18523e-07
3.95669e-07
3.95673e-07
4.19287e-07
4.17662e-07
3.97645e-07
3.88566e-07
3.88571e-07
3.68461e-07
3.68466e-07
4.17656e-07
3.97636e-07
3.8856e-07
3.88578e-07
3.68452e-07
3.68473e-07
3.88569e-07
3.68444e-07
3.68464e-07
4.17669e-07
3.97651e-07
3.88562e-07
3.68452e-07
3.68454e-07
3.97649e-07
3.96076e-07
3.76086e-07
3.6212e-07
3.62124e-07
3.44033e-07
3.44036e-07
3.96069e-07
3.76076e-07
3.62109e-07
3.62131e-07
3.4402e-07
3.44043e-07
3.62123e-07
3.44013e-07
3.44036e-07
3.96082e-07
3.76091e-07
3.62111e-07
3.44022e-07
3.44021e-07
3.7609e-07
3.74575e-07
3.55111e-07
3.38293e-07
3.38295e-07
3.21875e-07
3.21876e-07
3.74568e-07
3.55101e-07
3.38279e-07
3.38303e-07
3.21858e-07
3.21884e-07
3.38296e-07
3.21853e-07
3.21877e-07
3.74581e-07
3.55116e-07
3.3828e-07
3.21862e-07
3.2186e-07
3.55116e-07
3.53704e-07
3.35396e-07
3.16659e-07
3.16661e-07
3.01763e-07
3.01764e-07
3.53696e-07
3.35384e-07
3.16642e-07
3.16668e-07
3.01745e-07
3.01771e-07
3.16662e-07
3.0174e-07
3.01765e-07
3.5371e-07
3.35401e-07
3.16644e-07
3.01749e-07
3.01746e-07
3.354e-07
3.34142e-07
3.17533e-07
2.97044e-07
2.97045e-07
2.83623e-07
2.83624e-07
3.34134e-07
3.17522e-07
2.97026e-07
2.97053e-07
2.83603e-07
2.83631e-07
2.97047e-07
2.83599e-07
2.83625e-07
3.34148e-07
3.17538e-07
2.97027e-07
2.83608e-07
2.83604e-07
3.17538e-07
3.1648e-07
3.01974e-07
2.79394e-07
2.79394e-07
2.67442e-07
2.67442e-07
3.1647e-07
3.01965e-07
2.79374e-07
2.79402e-07
2.67421e-07
2.67449e-07
2.79396e-07
2.67417e-07
2.67444e-07
3.16484e-07
3.01984e-07
2.79375e-07
2.67426e-07
2.67422e-07
3.01983e-07
3.01154e-07
2.89046e-07
2.63704e-07
2.63704e-07
2.53228e-07
2.53227e-07
3.01146e-07
2.89034e-07
2.63682e-07
2.63711e-07
2.53205e-07
2.53234e-07
2.63705e-07
2.53201e-07
2.53228e-07
3.01162e-07
2.89049e-07
2.63683e-07
2.5321e-07
2.53205e-07
2.89046e-07
2.88488e-07
2.78946e-07
2.49981e-07
2.49981e-07
2.4098e-07
2.40981e-07
2.88479e-07
2.78939e-07
2.49959e-07
2.49989e-07
2.40956e-07
2.40988e-07
2.49982e-07
2.40952e-07
2.40981e-07
2.88497e-07
2.78965e-07
2.49959e-07
2.40962e-07
2.40957e-07
2.78961e-07
2.78687e-07
2.71832e-07
2.38227e-07
2.38228e-07
2.30702e-07
2.30702e-07
2.78681e-07
2.71816e-07
2.38204e-07
2.38235e-07
2.30677e-07
2.3071e-07
2.38227e-07
2.3067e-07
2.30701e-07
2.78701e-07
2.7184e-07
2.38204e-07
2.30681e-07
2.30676e-07
2.71836e-07
2.71869e-07
2.67864e-07
2.28442e-07
2.28444e-07
2.22399e-07
2.22401e-07
2.71857e-07
2.67853e-07
2.28418e-07
2.28452e-07
2.22372e-07
2.22409e-07
2.28442e-07
2.22365e-07
2.22397e-07
2.71877e-07
2.67875e-07
2.28418e-07
2.22376e-07
2.22372e-07
2.67874e-07
2.68154e-07
2.66982e-07
2.20632e-07
2.20638e-07
2.16076e-07
2.16079e-07
2.68149e-07
2.66962e-07
2.20608e-07
2.20645e-07
2.16049e-07
2.1609e-07
2.20634e-07
2.16037e-07
2.16076e-07
2.68167e-07
2.67002e-07
2.20608e-07
2.16052e-07
2.16049e-07
2.66997e-07
2.67637e-07
2.69139e-07
2.1481e-07
2.14814e-07
2.11742e-07
2.11751e-07
2.67609e-07
2.69128e-07
2.14784e-07
2.14826e-07
2.11715e-07
2.1176e-07
2.14811e-07
2.117e-07
2.1174e-07
2.67651e-07
2.69154e-07
2.14784e-07
2.11714e-07
2.11713e-07
2.69152e-07
2.70467e-07
2.74654e-07
2.1098e-07
2.10989e-07
2.09413e-07
2.09422e-07
2.70461e-07
2.74634e-07
2.10953e-07
2.10997e-07
2.09385e-07
2.09434e-07
2.10978e-07
2.09362e-07
2.09408e-07
2.70481e-07
2.74668e-07
2.1095e-07
2.09381e-07
2.09379e-07
2.74667e-07
2.76681e-07
2.8354e-07
2.09157e-07
2.09165e-07
2.09127e-07
2.09136e-07
2.76663e-07
2.83518e-07
2.09129e-07
2.09179e-07
2.09099e-07
2.09153e-07
2.09151e-07
2.0907e-07
2.0912e-07
2.76703e-07
2.83561e-07
2.09123e-07
2.09092e-07
2.09091e-07
2.8356e-07
2.86269e-07
2.95812e-07
2.09354e-07
2.09363e-07
2.10851e-07
2.10858e-07
2.86245e-07
2.95786e-07
2.09327e-07
2.0938e-07
2.10822e-07
2.1088e-07
2.09347e-07
2.10785e-07
2.10841e-07
2.86282e-07
2.95832e-07
2.09318e-07
2.10809e-07
2.10811e-07
2.95831e-07
2.99221e-07
3.115e-07
2.11617e-07
2.11626e-07
2.14675e-07
2.14684e-07
2.99191e-07
3.11467e-07
2.11589e-07
2.11649e-07
2.14644e-07
2.14709e-07
2.11607e-07
2.14599e-07
2.14662e-07
2.99236e-07
3.11524e-07
2.11577e-07
2.14628e-07
2.14631e-07
3.11518e-07
3.15595e-07
3.30563e-07
2.15962e-07
2.15975e-07
2.20595e-07
2.20616e-07
3.15563e-07
3.30525e-07
2.15933e-07
2.16e-07
2.20565e-07
2.20641e-07
2.15951e-07
2.20516e-07
2.20586e-07
3.15618e-07
3.30594e-07
2.1592e-07
2.20549e-07
2.20554e-07
3.30582e-07
3.35344e-07
3.52911e-07
2.22403e-07
2.22429e-07
2.28628e-07
2.28662e-07
3.35307e-07
3.52873e-07
2.22376e-07
2.22455e-07
2.286e-07
2.28686e-07
2.22398e-07
2.28549e-07
2.28625e-07
3.35378e-07
3.52938e-07
2.22365e-07
2.28582e-07
2.28591e-07
3.52937e-07
3.58369e-07
3.78401e-07
2.30966e-07
2.31002e-07
2.38774e-07
2.38816e-07
3.5833e-07
3.78355e-07
2.3094e-07
2.31028e-07
2.38746e-07
2.38843e-07
2.30964e-07
2.3869e-07
2.38772e-07
3.58396e-07
3.78432e-07
2.30929e-07
2.38727e-07
2.38736e-07
3.78421e-07
3.84506e-07
4.06786e-07
2.41638e-07
2.41682e-07
2.51014e-07
2.51066e-07
3.84461e-07
4.06741e-07
2.41611e-07
2.4171e-07
2.50985e-07
2.51094e-07
2.41637e-07
2.50925e-07
2.51017e-07
3.84531e-07
4.06829e-07
2.416e-07
2.50966e-07
2.50979e-07
4.06822e-07
4.13492e-07
4.37751e-07
2.54397e-07
2.5445e-07
2.65311e-07
2.65369e-07
4.13448e-07
4.37703e-07
2.54368e-07
2.54479e-07
2.65278e-07
2.654e-07
2.544e-07
2.65214e-07
2.65317e-07
4.13528e-07
4.378e-07
2.54363e-07
2.65259e-07
2.6528e-07
4.37796e-07
4.44999e-07
4.70914e-07
2.69199e-07
2.69258e-07
2.81602e-07
2.81666e-07
4.44954e-07
4.70861e-07
2.69167e-07
2.6929e-07
2.81565e-07
2.81699e-07
2.69205e-07
2.81497e-07
2.81611e-07
4.45041e-07
4.70968e-07
2.69168e-07
2.81547e-07
2.81572e-07
4.70965e-07
4.78636e-07
5.05852e-07
2.85978e-07
2.86042e-07
2.99807e-07
2.99875e-07
4.78586e-07
5.05796e-07
2.85942e-07
2.86077e-07
2.99764e-07
2.99911e-07
2.85987e-07
2.99693e-07
2.99819e-07
4.78683e-07
5.05913e-07
2.85948e-07
2.99748e-07
2.99776e-07
5.05909e-07
5.13968e-07
5.4213e-07
3.04647e-07
3.04715e-07
3.19828e-07
3.199e-07
5.13914e-07
5.42071e-07
3.04604e-07
3.04753e-07
3.19777e-07
3.19937e-07
3.04659e-07
3.19704e-07
3.19841e-07
5.14022e-07
5.42193e-07
3.04616e-07
3.19762e-07
3.19794e-07
5.42193e-07
5.50555e-07
5.79295e-07
3.25102e-07
3.25172e-07
3.41545e-07
3.4162e-07
5.50498e-07
5.79233e-07
3.25053e-07
3.25215e-07
3.41486e-07
3.41659e-07
3.25117e-07
3.41411e-07
3.41562e-07
5.50612e-07
5.79363e-07
3.25069e-07
3.41474e-07
3.41508e-07
5.79366e-07
5.87951e-07
6.1692e-07
3.47225e-07
3.47296e-07
3.64827e-07
3.64903e-07
5.87891e-07
6.16855e-07
3.47167e-07
3.4734e-07
3.64759e-07
3.64946e-07
3.47242e-07
3.64683e-07
3.64847e-07
5.88008e-07
6.16997e-07
3.47186e-07
3.64752e-07
3.64786e-07
6.16999e-07
6.25724e-07
6.54628e-07
3.70875e-07
3.70946e-07
3.89531e-07
3.89609e-07
6.25661e-07
6.5456e-07
3.70809e-07
3.70996e-07
3.89453e-07
3.89652e-07
3.70897e-07
3.89378e-07
3.89554e-07
6.2579e-07
6.54703e-07
3.70833e-07
3.8945e-07
3.89484e-07
6.54709e-07
6.63506e-07
6.92063e-07
3.95911e-07
3.95978e-07
4.15498e-07
4.15575e-07
6.63441e-07
6.91995e-07
3.95835e-07
3.96034e-07
4.1541e-07
4.15622e-07
3.95934e-07
4.15337e-07
4.15526e-07
6.63574e-07
6.92142e-07
3.95862e-07
4.15413e-07
4.15447e-07
6.92154e-07
7.00952e-07
7.28975e-07
4.22169e-07
4.22244e-07
4.42573e-07
4.42642e-07
7.00892e-07
7.28885e-07
4.22084e-07
4.22294e-07
4.42475e-07
4.42695e-07
4.222e-07
4.424e-07
4.426e-07
7.01021e-07
7.29048e-07
4.22119e-07
4.42481e-07
4.42512e-07
7.29053e-07
7.37812e-07
7.65091e-07
4.4949e-07
4.4956e-07
4.70573e-07
4.70649e-07
7.37727e-07
7.65025e-07
4.49395e-07
4.49615e-07
4.70465e-07
4.70699e-07
4.49518e-07
4.704e-07
4.70612e-07
7.37877e-07
7.65178e-07
4.49428e-07
4.70482e-07
4.70515e-07
7.65199e-07
7.73842e-07
8.00307e-07
4.77697e-07
4.77771e-07
4.99338e-07
4.99404e-07
7.73779e-07
8.0021e-07
4.77592e-07
4.77822e-07
4.99221e-07
4.99462e-07
4.77736e-07
4.99152e-07
4.99374e-07
7.73915e-07
8.00388e-07
4.77637e-07
4.99243e-07
4.99267e-07
8.00387e-07
8.08921e-07
8.34437e-07
5.0662e-07
5.06688e-07
5.28673e-07
5.28742e-07
8.08834e-07
8.34357e-07
5.06507e-07
5.06747e-07
5.28548e-07
5.28794e-07
5.06659e-07
5.28488e-07
5.28719e-07
8.08994e-07
8.34512e-07
5.06551e-07
5.28576e-07
5.28605e-07
8.34539e-07
8.42866e-07
8.67451e-07
5.36079e-07
5.36147e-07
5.58413e-07
5.58476e-07
8.42788e-07
8.67362e-07
5.35959e-07
5.36203e-07
5.58283e-07
5.58538e-07
5.36126e-07
5.58223e-07
5.58463e-07
8.42933e-07
8.67537e-07
5.36012e-07
5.5832e-07
5.5834e-07
8.67545e-07
8.75676e-07
8.99301e-07
5.65903e-07
5.65965e-07
5.88385e-07
5.88446e-07
8.75592e-07
8.99215e-07
5.65776e-07
5.66027e-07
5.88249e-07
5.88505e-07
5.65953e-07
5.88194e-07
5.8844e-07
8.75752e-07
8.99374e-07
5.65829e-07
5.88291e-07
5.88312e-07
8.99396e-07
9.073e-07
9.29952e-07
5.95903e-07
5.95963e-07
6.18418e-07
6.18475e-07
9.07219e-07
9.29862e-07
5.95772e-07
5.96022e-07
6.1828e-07
6.18538e-07
5.95959e-07
6.18225e-07
6.1848e-07
9.07366e-07
9.30026e-07
5.95831e-07
6.18331e-07
6.18348e-07
9.30048e-07
9.37724e-07
9.59392e-07
6.25922e-07
6.25977e-07
6.48342e-07
6.484e-07
9.37637e-07
9.59312e-07
6.25789e-07
6.26041e-07
6.482e-07
6.4846e-07
6.25984e-07
6.48157e-07
6.48413e-07
9.37789e-07
9.59468e-07
6.25855e-07
6.48257e-07
6.48269e-07
9.59491e-07
9.66926e-07
9.87663e-07
6.55799e-07
6.55855e-07
6.78015e-07
6.78066e-07
9.66851e-07
9.87563e-07
6.55664e-07
6.55914e-07
6.77877e-07
6.78129e-07
6.55868e-07
6.77825e-07
6.78088e-07
9.66993e-07
9.87718e-07
6.55729e-07
6.77939e-07
6.77954e-07
9.87745e-07
9.94947e-07
1.0147e-06
6.85383e-07
6.85434e-07
7.07277e-07
7.07332e-07
9.9486e-07
1.01463e-06
6.85256e-07
6.85498e-07
7.07144e-07
7.07395e-07
6.85459e-07
7.071e-07
7.07364e-07
9.94999e-07
1.01477e-06
6.85325e-07
7.07211e-07
7.07225e-07
1.0148e-06
1.02174e-06
1.04064e-06
7.14519e-07
7.14569e-07
7.36054e-07
7.361e-07
1.02167e-06
1.04054e-06
7.14391e-07
7.14636e-07
7.35925e-07
7.36163e-07
7.14605e-07
7.35875e-07
7.36141e-07
1.02181e-06
1.04069e-06
7.14466e-07
7.3599e-07
7.36001e-07
1.04072e-06
1.04744e-06
1.06538e-06
7.43152e-07
7.43198e-07
7.64136e-07
7.64181e-07
1.04736e-06
1.06529e-06
7.43029e-07
7.43261e-07
7.64011e-07
7.64248e-07
7.43239e-07
7.63963e-07
7.64228e-07
1.04749e-06
1.06543e-06
7.43099e-07
7.64083e-07
7.64093e-07
1.06546e-06
1.07196e-06
1.08908e-06
7.71077e-07
7.7112e-07
7.91559e-07
7.91604e-07
1.07188e-06
1.08899e-06
7.70957e-07
7.71188e-07
7.91437e-07
7.91663e-07
7.71169e-07
7.91394e-07
7.91658e-07
1.07201e-06
1.08912e-06
7.71034e-07
7.91511e-07
7.91523e-07
1.08916e-06
1.09539e-06
1.11174e-06
7.98241e-07
7.98283e-07
8.18134e-07
8.18166e-07
1.0953e-06
1.11165e-06
7.98123e-07
7.98343e-07
8.18008e-07
8.18234e-07
7.98338e-07
8.17962e-07
8.18221e-07
1.09543e-06
1.11179e-06
7.98203e-07
8.18081e-07
8.18088e-07
1.11182e-06
1.11792e-06
1.13309e-06
8.24683e-07
8.24719e-07
8.43704e-07
8.43754e-07
1.11783e-06
1.13302e-06
8.24565e-07
8.24784e-07
8.43589e-07
8.43803e-07
8.24775e-07
8.43561e-07
8.43818e-07
1.11796e-06
1.13314e-06
8.24644e-07
8.43673e-07
8.43686e-07
1.13319e-06
1.13891e-06
1.15417e-06
8.49911e-07
8.49946e-07
8.68622e-07
8.68627e-07
1.13883e-06
1.15404e-06
8.49795e-07
8.50006e-07
8.68489e-07
8.68698e-07
8.50011e-07
8.68438e-07
8.68685e-07
1.13895e-06
1.15418e-06
8.49879e-07
8.68555e-07
8.6856e-07
1.15421e-06
5.35663e-07
5.35601e-07
5.35655e-07
5.35655e-07
5.34573e-07
5.35516e-07
5.33634e-07
5.35654e-07
5.34573e-07
5.35517e-07
5.35654e-07
5.33634e-07
5.35256e-07
5.35986e-07
5.35987e-07
1.10713e-06
3.88082e-06
9.33891e-07
4.60617e-06
1.26081e-05
1.66011e-05
1.10725e-06
3.88106e-06
9.33924e-07
4.60654e-06
4.95567e-07
4.95567e-07
4.95567e-07
4.57231e-07
4.57231e-07
4.57232e-07
4.57232e-07
5.43144e-07
1.22026e-06
4.95565e-07
4.85522e-07
5.25341e-07
1.20946e-06
4.82301e-07
1.26097e-05
1.66037e-05
5.43162e-07
4.95565e-07
1.22025e-06
4.85523e-07
5.2532e-07
4.82302e-07
1.20945e-06
2.52172e-06
2.52242e-06
4.8419e-07
2.37248e-06
2.37287e-06
1.4308e-06
5.59328e-06
1.32967e-06
6.13637e-06
2.12844e-05
2.31105e-05
1.4312e-06
5.59395e-06
1.32973e-06
6.13702e-06
4.45572e-07
4.45573e-07
4.45573e-07
4.13542e-07
4.13542e-07
4.13543e-07
4.13543e-07
5.87084e-07
1.19483e-06
4.46434e-07
4.44291e-07
5.73801e-07
1.20431e-06
4.3569e-07
2.12866e-05
2.31142e-05
5.87102e-07
4.46435e-07
1.19484e-06
4.44294e-07
5.73811e-07
4.35692e-07
1.2044e-06
2.31171e-06
2.31222e-06
4.53488e-07
2.35332e-06
2.35378e-06
1.66327e-06
6.91799e-06
1.59584e-06
7.32014e-06
2.46404e-05
2.4937e-05
1.66337e-06
6.91882e-06
1.59576e-06
7.3211e-06
4.03752e-07
4.03753e-07
4.03753e-07
3.76689e-07
3.76689e-07
3.76691e-07
3.7669e-07
6.15569e-07
1.24281e-06
4.06546e-07
4.10617e-07
6.08379e-07
1.26558e-06
3.97729e-07
2.46435e-05
2.49405e-05
6.15585e-07
4.06547e-07
1.24291e-06
4.10622e-07
6.08396e-07
3.97732e-07
1.26574e-06
2.47396e-06
2.47444e-06
4.3018e-07
2.53268e-06
2.53316e-06
1.81233e-06
7.84632e-06
1.77234e-06
8.09934e-06
2.47364e-05
2.44304e-05
1.81247e-06
7.84728e-06
1.77234e-06
8.10062e-06
3.68362e-07
3.68365e-07
3.68364e-07
3.45192e-07
3.45192e-07
3.45195e-07
3.45194e-07
6.26293e-07
1.31313e-06
3.73478e-07
3.81656e-07
6.24882e-07
1.33369e-06
3.66029e-07
2.47388e-05
2.4434e-05
6.26306e-07
3.7348e-07
1.31321e-06
3.81662e-07
6.24894e-07
3.66032e-07
1.33386e-06
2.63523e-06
2.63572e-06
4.08471e-07
2.67931e-06
2.67981e-06
1.89283e-06
8.39544e-06
1.87319e-06
8.52965e-06
2.36923e-05
2.3265e-05
1.89299e-06
8.39671e-06
1.87321e-06
8.5311e-06
3.38014e-07
3.38017e-07
3.38016e-07
3.17912e-07
3.17911e-07
3.17915e-07
3.17914e-07
6.22109e-07
1.37211e-06
3.45239e-07
3.55922e-07
6.25445e-07
1.3871e-06
3.38764e-07
2.3694e-05
2.32683e-05
6.22123e-07
3.45241e-07
1.37219e-06
3.5593e-07
6.25457e-07
3.38768e-07
1.38726e-06
2.76344e-06
2.76399e-06
3.86837e-07
2.80525e-06
2.80579e-06
1.92988e-06
8.66276e-06
1.92179e-06
8.71867e-06
2.25015e-05
2.21201e-05
1.93005e-06
8.66428e-06
1.92183e-06
8.72019e-06
3.11645e-07
3.11649e-07
3.11648e-07
2.94001e-07
2.94e-07
2.94004e-07
2.94002e-07
6.08887e-07
1.41603e-06
3.20492e-07
3.32668e-07
6.15378e-07
1.42751e-06
3.14745e-07
2.25027e-05
2.21229e-05
6.08901e-07
3.20493e-07
1.4161e-06
3.32677e-07
6.15391e-07
3.14749e-07
1.42769e-06
2.89514e-06
2.89573e-06
3.65487e-07
2.94367e-06
2.9443e-06
1.94789e-06
8.75932e-06
1.94361e-06
8.77084e-06
2.14771e-05
2.11782e-05
1.94807e-06
8.76079e-06
1.94366e-06
8.77228e-06
2.88472e-07
2.88476e-07
2.88475e-07
2.72839e-07
2.72838e-07
2.72842e-07
2.72841e-07
5.91864e-07
1.45272e-06
2.98409e-07
3.11548e-07
5.99369e-07
1.46402e-06
2.93242e-07
2.14781e-05
2.11807e-05
5.91878e-07
2.98411e-07
1.45278e-06
3.11557e-07
5.99382e-07
2.93246e-07
1.46418e-06
3.04863e-06
3.04931e-06
3.45061e-07
3.10591e-06
3.10669e-06
1.96557e-06
8.7687e-06
1.95959e-06
8.76318e-06
2.0674e-05
2.04526e-05
1.96575e-06
8.7701e-06
1.95963e-06
8.76474e-06
2.67922e-07
2.67926e-07
2.67925e-07
2.53977e-07
2.53976e-07
2.5398e-07
2.53978e-07
5.75448e-07
1.49162e-06
2.785e-07
2.92425e-07
5.82272e-07
1.50549e-06
2.73825e-07
2.06754e-05
2.04547e-05
5.75465e-07
2.78501e-07
1.49169e-06
2.92434e-07
5.82287e-07
2.73829e-07
1.50564e-06
3.22584e-06
3.22665e-06
3.26205e-07
3.2914e-06
3.29235e-06
1.99554e-06
8.74913e-06
1.98437e-06
8.74313e-06
2.00716e-05
1.99105e-05
1.99569e-06
8.75075e-06
1.9844e-06
8.74451e-06
2.49579e-07
2.49583e-07
2.49581e-07
2.37082e-07
2.37081e-07
2.37086e-07
2.37084e-07
5.629e-07
1.5398e-06
2.60474e-07
2.75263e-07
5.67829e-07
1.55771e-06
2.56239e-07
2.00735e-05
1.99122e-05
5.62916e-07
2.60475e-07
1.5399e-06
2.75272e-07
5.67846e-07
2.56243e-07
1.55782e-06
3.42169e-06
3.42265e-06
3.09451e-07
3.49275e-06
3.4939e-06
2.04523e-06
8.73365e-06
2.02681e-06
8.73135e-06
1.9632e-05
1.95162e-05
2.04537e-06
8.73501e-06
2.02681e-06
8.73289e-06
2.33136e-07
2.3314e-07
2.33138e-07
2.21911e-07
2.2191e-07
2.21914e-07
2.21913e-07
5.565e-07
1.60102e-06
2.44157e-07
2.60063e-07
5.58643e-07
1.62363e-06
2.4033e-07
1.96341e-05
1.95177e-05
5.56518e-07
2.44158e-07
1.60115e-06
2.60072e-07
5.5866e-07
2.40334e-07
1.62368e-06
3.62735e-06
3.62844e-06
2.95168e-07
3.70144e-06
3.70283e-06
2.11898e-06
8.73093e-06
2.09204e-06
8.7337e-06
1.93177e-05
1.92355e-05
2.11916e-06
8.73251e-06
2.092e-06
8.73539e-06
2.18365e-07
2.18369e-07
2.18367e-07
2.08276e-07
2.08275e-07
2.08279e-07
2.08277e-07
5.57606e-07
1.67653e-06
2.29438e-07
2.46831e-07
5.56738e-07
1.70365e-06
2.25997e-07
1.93188e-05
1.92379e-05
5.57625e-07
2.29439e-07
1.67642e-06
2.4684e-07
5.56754e-07
2.26001e-07
1.70396e-06
3.83598e-06
3.83723e-06
2.83643e-07
3.90958e-06
3.91117e-06
2.21872e-06
8.7402e-06
2.18282e-06
8.74738e-06
1.90958e-05
1.90402e-05
2.21893e-06
8.74203e-06
2.18285e-06
8.74916e-06
2.05089e-07
2.05093e-07
2.05092e-07
1.9603e-07
1.96029e-07
1.96033e-07
1.96031e-07
5.66948e-07
1.76535e-06
2.16237e-07
2.35565e-07
5.63101e-07
1.79681e-06
2.13166e-07
1.90982e-05
1.90415e-05
5.66974e-07
2.16238e-07
1.7655e-06
2.35575e-07
5.63125e-07
2.1317e-07
1.79699e-06
4.03928e-06
4.04069e-06
2.75001e-07
4.10839e-06
4.11015e-06
2.34374e-06
8.75849e-06
2.29946e-06
8.76698e-06
1.89422e-05
1.89037e-05
2.34433e-06
8.76024e-06
2.29936e-06
8.7688e-06
1.93171e-07
1.93175e-07
1.93173e-07
1.85053e-07
1.85052e-07
1.85056e-07
1.85055e-07
5.85864e-07
1.86574e-06
2.04494e-07
2.2627e-07
5.78758e-07
1.90027e-06
2.01779e-07
1.89441e-05
1.89052e-05
5.85894e-07
2.04495e-07
1.86597e-06
2.26282e-07
5.7879e-07
2.01783e-07
1.9004e-06
4.22926e-06
4.23081e-06
2.69474e-07
4.296e-06
4.2979e-06
2.492e-06
8.77932e-06
2.43868e-06
8.78851e-06
1.88345e-05
1.88076e-05
2.49255e-06
8.78139e-06
2.43844e-06
8.79012e-06
1.82497e-07
1.82501e-07
1.82499e-07
1.75253e-07
1.75252e-07
1.75256e-07
1.75254e-07
6.14906e-07
1.97449e-06
1.94157e-07
2.18953e-07
6.04372e-07
2.01145e-06
1.91785e-07
1.88362e-05
1.88092e-05
6.1494e-07
1.94158e-07
1.97474e-06
2.18964e-07
6.04408e-07
1.9179e-07
2.01158e-06
4.40466e-06
4.40634e-06
2.67052e-07
4.46193e-06
4.4639e-06
2.65687e-06
8.79995e-06
2.59691e-06
8.80866e-06
1.8757e-05
1.87363e-05
2.65743e-06
8.80203e-06
2.59663e-06
8.81037e-06
1.72978e-07
1.72982e-07
1.7298e-07
1.66551e-07
1.66549e-07
1.66554e-07
1.66552e-07
6.54322e-07
2.08888e-06
1.85183e-07
2.1362e-07
6.40334e-07
2.1264e-06
1.83145e-07
1.87589e-05
1.87379e-05
6.54359e-07
1.85183e-07
2.08899e-06
2.13636e-07
6.40374e-07
1.83149e-07
2.12664e-06
4.55799e-06
4.55978e-06
2.67678e-07
4.60948e-06
4.61151e-06
2.83127e-06
8.81905e-06
2.76778e-06
8.82684e-06
1.86965e-05
1.86821e-05
2.83183e-06
8.82104e-06
2.76754e-06
8.82867e-06
1.6454e-07
1.64545e-07
1.64542e-07
1.58882e-07
1.5888e-07
1.58886e-07
1.58883e-07
7.04072e-07
2.20461e-06
1.77535e-07
2.1028e-07
6.86704e-07
2.24236e-06
1.75823e-07
1.86974e-05
1.86844e-05
7.04109e-07
1.77535e-07
2.20466e-06
2.10295e-07
6.86744e-07
1.75827e-07
2.24264e-06
4.6902e-06
4.69201e-06
2.71499e-07
4.73579e-06
4.73787e-06
3.00726e-06
8.8364e-06
2.9433e-06
8.84356e-06
1.86482e-05
1.86357e-05
3.00784e-06
8.83832e-06
2.94306e-06
8.84545e-06
1.5712e-07
1.57125e-07
1.57122e-07
1.52192e-07
1.52191e-07
1.52196e-07
1.52193e-07
7.63684e-07
2.31908e-06
1.71187e-07
2.08949e-07
7.43127e-07
2.35589e-06
1.69794e-07
1.865e-05
1.86375e-05
7.63729e-07
1.71186e-07
2.31914e-06
2.08971e-07
7.43163e-07
1.69799e-07
2.35619e-06
4.80443e-06
4.80627e-06
2.78684e-07
4.83948e-06
4.84157e-06
3.17665e-06
8.85237e-06
3.11527e-06
8.85912e-06
1.86061e-05
1.85939e-05
3.17723e-06
8.85428e-06
3.11507e-06
8.86101e-06
1.50666e-07
1.50672e-07
1.50669e-07
1.46434e-07
1.46432e-07
1.46438e-07
1.46435e-07
8.32139e-07
2.42951e-06
1.6612e-07
2.09657e-07
8.08791e-07
2.46435e-06
1.65045e-07
1.86085e-05
1.85952e-05
8.32185e-07
1.6612e-07
2.42971e-06
2.0968e-07
8.08832e-07
1.6505e-07
2.46458e-06
4.89827e-06
4.90016e-06
2.89258e-07
4.92609e-06
4.92819e-06
3.33252e-06
8.86741e-06
3.27631e-06
8.87381e-06
1.85673e-05
1.85565e-05
3.3331e-06
8.86937e-06
3.27612e-06
8.87576e-06
1.45134e-07
1.45141e-07
1.45137e-07
1.41572e-07
1.41569e-07
1.41576e-07
1.41572e-07
9.07933e-07
2.5336e-06
1.62328e-07
2.1243e-07
8.82355e-07
2.56594e-06
1.61567e-07
1.85696e-05
1.85574e-05
9.07981e-07
1.62328e-07
2.53386e-06
2.12458e-07
8.82399e-07
1.61571e-07
2.56615e-06
4.97494e-06
4.97682e-06
3.03239e-07
4.9978e-06
4.9999e-06
3.47003e-06
8.88185e-06
3.42075e-06
8.88792e-06
1.85314e-05
1.85214e-05
3.47063e-06
8.88373e-06
3.42058e-06
8.88976e-06
1.40489e-07
1.40496e-07
1.40492e-07
1.37573e-07
1.3757e-07
1.37579e-07
1.37574e-07
9.89112e-07
2.62985e-06
1.59809e-07
2.17293e-07
9.61998e-07
2.65938e-06
1.59362e-07
1.85334e-05
1.85226e-05
9.89159e-07
1.5981e-07
2.63008e-06
2.17325e-07
9.62045e-07
1.59366e-07
2.6596e-06
5.03784e-06
5.03972e-06
3.20628e-07
5.05651e-06
5.05858e-06
3.58668e-06
8.89546e-06
3.54528e-06
8.90109e-06
1.84976e-05
1.84884e-05
3.58728e-06
8.89722e-06
3.5451e-06
8.90284e-06
1.367e-07
1.36709e-07
1.36704e-07
1.34413e-07
1.3441e-07
1.3442e-07
1.34414e-07
1.07344e-06
2.71745e-06
1.58573e-07
2.2427e-07
1.04555e-06
2.74402e-06
1.5844e-07
1.84998e-05
1.84903e-05
1.07349e-06
1.58575e-07
2.71766e-06
2.24303e-07
1.0456e-06
1.58444e-07
2.74432e-06
5.08935e-06
5.09122e-06
3.41362e-07
5.1045e-06
5.10657e-06
3.68232e-06
8.90803e-06
3.64886e-06
8.91306e-06
1.84663e-05
1.8458e-05
3.6829e-06
8.90974e-06
3.64867e-06
8.91482e-06
1.33745e-07
1.33755e-07
1.33749e-07
1.32071e-07
1.32068e-07
1.32078e-07
1.32072e-07
1.1586e-06
2.79618e-06
1.58617e-07
2.33356e-07
1.13071e-06
2.81982e-06
1.58832e-07
1.84684e-05
1.84601e-05
1.15865e-06
1.58615e-07
2.79631e-06
2.33393e-07
1.13075e-06
1.58841e-07
2.82015e-06
5.13146e-06
5.13333e-06
3.65304e-07
5.14381e-06
5.14584e-06
3.75852e-06
8.9193e-06
3.73234e-06
8.92373e-06
1.84376e-05
1.84299e-05
3.75908e-06
8.92107e-06
3.73216e-06
8.92553e-06
1.31602e-07
1.31613e-07
1.31606e-07
1.3053e-07
1.30527e-07
1.30539e-07
1.30532e-07
1.24245e-06
2.86626e-06
1.59987e-07
2.44547e-07
1.21525e-06
2.88712e-06
1.60534e-07
1.84394e-05
1.8432e-05
1.24249e-06
1.59985e-07
2.86633e-06
2.44587e-07
1.21529e-06
1.60544e-07
2.88741e-06
5.16607e-06
5.16799e-06
3.92278e-07
5.1762e-06
5.17815e-06
3.81787e-06
8.92924e-06
3.79794e-06
8.93312e-06
1.84112e-05
1.84041e-05
3.81843e-06
8.93105e-06
3.79777e-06
8.93498e-06
1.30255e-07
1.30268e-07
1.3026e-07
1.29778e-07
1.29776e-07
1.29789e-07
1.29781e-07
1.32312e-06
2.92825e-06
1.62691e-07
2.57815e-07
1.29716e-06
2.94656e-06
1.63576e-07
1.84128e-05
1.8406e-05
1.32315e-06
1.62689e-07
2.9283e-06
2.57859e-07
1.2972e-06
1.63588e-07
2.94681e-06
5.19466e-06
5.1966e-06
4.22006e-07
5.20299e-06
5.20496e-06
3.86336e-06
8.93793e-06
3.8485e-06
8.94134e-06
1.8387e-05
1.83807e-05
3.8639e-06
8.93976e-06
3.84834e-06
8.94319e-06
1.29693e-07
1.29707e-07
1.29699e-07
1.29793e-07
1.29791e-07
1.29805e-07
1.29797e-07
1.39919e-06
2.98287e-06
1.6675e-07
2.7311e-07
1.37489e-06
2.99894e-06
1.67979e-07
1.83886e-05
1.83824e-05
1.39921e-06
1.66748e-07
2.98292e-06
2.73157e-07
1.37492e-06
1.67993e-07
2.99913e-06
5.21857e-06
5.22051e-06
4.54125e-07
5.22543e-06
5.22739e-06
3.89796e-06
8.94549e-06
3.88701e-06
8.94858e-06
1.8365e-05
1.83595e-05
3.89849e-06
8.94737e-06
3.88687e-06
8.95046e-06
1.29918e-07
1.29933e-07
1.29925e-07
1.30589e-07
1.30587e-07
1.30603e-07
1.30595e-07
1.46971e-06
3.03093e-06
1.72181e-07
2.90362e-07
1.44731e-06
3.04509e-06
1.73754e-07
1.83667e-05
1.83612e-05
1.46974e-06
1.72179e-07
3.03101e-06
2.90413e-07
1.44734e-06
1.7377e-07
3.04525e-06
5.23869e-06
5.24064e-06
4.88243e-07
5.24444e-06
5.2464e-06
3.92426e-06
8.95224e-06
3.91625e-06
8.95504e-06
1.83452e-05
1.83405e-05
3.92477e-06
8.95406e-06
3.91612e-06
8.95697e-06
1.30907e-07
1.30924e-07
1.30915e-07
1.32154e-07
1.32151e-07
1.32169e-07
1.3216e-07
1.53417e-06
3.0733e-06
1.78991e-07
3.09479e-07
1.5138e-06
3.08582e-06
1.8091e-07
1.83469e-05
1.83422e-05
1.5342e-06
1.7899e-07
3.07339e-06
3.09536e-07
1.51382e-06
1.80928e-07
3.08598e-06
5.25576e-06
5.25768e-06
5.23917e-07
5.26071e-06
5.26266e-06
3.94451e-06
8.95838e-06
3.93849e-06
8.96101e-06
1.83277e-05
1.83237e-05
3.94487e-06
8.96021e-06
3.93844e-06
8.96288e-06
1.32663e-07
1.32681e-07
1.32673e-07
1.34485e-07
1.34482e-07
1.34502e-07
1.34493e-07
1.59248e-06
3.11084e-06
1.87183e-07
3.30352e-07
1.57413e-06
3.12192e-06
1.89446e-07
1.83294e-05
1.83255e-05
1.5925e-06
1.87183e-07
3.11091e-06
3.30415e-07
1.57416e-06
1.89466e-07
3.12209e-06
5.27046e-06
5.27239e-06
5.60696e-07
5.27478e-06
5.27673e-06
3.96024e-06
8.9642e-06
3.9556e-06
8.96672e-06
1.83126e-05
1.83093e-05
3.96049e-06
8.96608e-06
3.95569e-06
8.96855e-06
1.35185e-07
1.35206e-07
1.35197e-07
1.37584e-07
1.37581e-07
1.37602e-07
1.37594e-07
1.64486e-06
3.14428e-06
1.96749e-07
3.52861e-07
1.62844e-06
3.15415e-06
1.99353e-07
1.83143e-05
1.83112e-05
1.64488e-06
1.9675e-07
3.14432e-06
3.52926e-07
1.62846e-06
1.99375e-07
3.1543e-06
5.28339e-06
5.2853e-06
5.98149e-07
5.28719e-06
5.28913e-06
3.97268e-06
8.96991e-06
3.96904e-06
8.97237e-06
1.82997e-05
1.82973e-05
3.97293e-06
8.97179e-06
3.9692e-06
8.97427e-06
1.38476e-07
1.38498e-07
1.38489e-07
1.41453e-07
1.4145e-07
1.41473e-07
1.41464e-07
1.69177e-06
3.17425e-06
2.07669e-07
3.76863e-07
1.67708e-06
3.18312e-06
2.10608e-07
1.83014e-05
1.82991e-05
1.69179e-06
2.07672e-07
3.1743e-06
3.76932e-07
1.67711e-06
2.10633e-07
3.18324e-06
5.29497e-06
5.29689e-06
6.35869e-07
5.29838e-06
5.30032e-06
3.98281e-06
8.97564e-06
3.97985e-06
8.9783e-06
1.82892e-05
1.82876e-05
3.98305e-06
8.97745e-06
3.97998e-06
8.98017e-06
1.42537e-07
1.42562e-07
1.42553e-07
1.46096e-07
1.46093e-07
1.46119e-07
1.4611e-07
1.73387e-06
3.20135e-06
2.19917e-07
4.02208e-07
1.72049e-06
3.20936e-06
2.23182e-07
1.82909e-05
1.82895e-05
1.73389e-06
2.19921e-07
3.20141e-06
4.02284e-07
1.72052e-06
2.23211e-07
3.20951e-06
5.30555e-06
5.30746e-06
6.73478e-07
5.30869e-06
5.31062e-06
3.99121e-06
8.98157e-06
3.98874e-06
8.98434e-06
1.82811e-05
1.82804e-05
3.99143e-06
8.98345e-06
3.9889e-06
8.9862e-06
1.47375e-07
1.47402e-07
1.47393e-07
1.51519e-07
1.51515e-07
1.51544e-07
1.51534e-07
1.77162e-06
3.22604e-06
2.33454e-07
4.28744e-07
1.75938e-06
3.2334e-06
2.37036e-07
1.82827e-05
1.82822e-05
1.77164e-06
2.33461e-07
3.22608e-06
4.28821e-07
1.75941e-06
2.37068e-07
3.23351e-06
5.31545e-06
5.31735e-06
7.10697e-07
5.31845e-06
5.32038e-06
3.99851e-06
8.988e-06
3.99638e-06
8.99089e-06
1.82752e-05
1.82754e-05
3.99868e-06
8.98983e-06
3.99649e-06
8.99279e-06
1.52992e-07
1.53022e-07
1.53012e-07
1.57728e-07
1.57725e-07
1.57756e-07
1.57746e-07
1.80566e-06
3.24872e-06
2.48236e-07
4.56291e-07
1.79438e-06
3.2555e-06
2.52122e-07
1.82769e-05
1.82772e-05
1.80568e-06
2.48245e-07