/*--------------------------------*- C++ -*----------------------------------*\
| =========                 |                                                 |
| \\      /  F ield         | OpenFOAM: The Open Source CFD Toolbox           |
|  \\    /   O peration     | Version:  v2012                                 |
|   \\  /    A nd           | Website:  www.openfoam.com                      |
|    \\/     M anipulation  |                                                 |
\*---------------------------------------------------------------------------*/
FoamFile
{
    version     2.0;
    format      ascii;
    class       volScalarField;
    location    "250";
    object      nut;
}
// * * * * * * * * * * * * * * * * * * * * * * * * * * * * * * * * * * * * * //

dimensions      [0 2 -1 0 0 0 0];


internalField   nonuniform List<scalar> 
85864
(
0.000233973
0.000233116
0.000233116
0.000233423
0.000232532
0.000227802
0.000227801
0.000223867
0.000230516
0.00022032
0.000220318
0.000209109
0.000227799
0.000211665
0.000211661
0.000193785
0.000224433
0.00020265
0.000202644
0.000179709
0.000220552
0.000193772
0.000193765
0.000167339
0.000216304
0.000185275
0.000185267
0.000156587
0.00021182
0.000177234
0.000177226
0.000147206
0.000207207
0.000169688
0.00016968
0.000138949
0.000202545
0.000162611
0.000162603
0.000131615
0.000197889
0.000155949
0.00015594
0.000124954
0.000193275
0.000149648
0.000149639
0.000118817
0.000188683
0.000143665
0.000143659
0.000113152
0.000184151
0.000137952
0.000137946
0.00010793
0.000179706
0.000132465
0.000132455
0.000103045
0.000175338
0.000127188
0.000127182
9.84719e-05
0.000171035
0.000122149
0.000122133
9.4272e-05
0.000166784
0.000117368
0.000117361
9.06467e-05
0.000162586
0.000112885
0.000112876
8.7715e-05
0.000158414
0.000108754
0.000108746
8.53558e-05
0.000154264
0.000105024
0.000105014
8.3638e-05
0.000150142
0.000101712
0.000101697
8.25732e-05
0.000146063
9.88939e-05
9.88825e-05
8.2098e-05
0.000142045
9.65855e-05
9.65767e-05
8.21563e-05
0.000138117
9.47949e-05
9.47886e-05
8.26924e-05
0.000134294
9.3519e-05
9.35154e-05
8.36587e-05
0.00013063
9.2749e-05
9.27463e-05
8.50121e-05
0.000127154
9.24671e-05
9.24616e-05
8.66962e-05
0.000123901
9.26389e-05
9.26349e-05
8.86391e-05
0.000120901
9.32364e-05
9.32374e-05
9.07905e-05
0.000118186
9.42297e-05
9.42257e-05
9.31149e-05
0.000115787
9.55651e-05
9.55662e-05
9.55522e-05
0.000113726
9.72292e-05
9.72275e-05
9.81137e-05
0.000112015
9.91735e-05
9.91701e-05
0.000100716
0.000110695
0.00010136
0.000101367
0.000103376
0.000109735
0.00010378
0.000103775
0.000106087
0.000109101
0.000106353
0.000106354
0.000108796
0.000108838
0.000109087
0.000109091
0.000111529
0.00010895
0.00011195
0.000111955
0.000114252
0.000109428
0.00011492
0.000114913
0.000116965
0.000110222
0.000117965
0.000117974
0.000119668
0.000111335
0.000121066
0.000121065
0.00012234
0.000112778
0.000124261
0.000124263
0.000125004
0.000114409
0.000127357
0.000127358
0.000127585
0.00011652
0.0001307
0.000130703
0.000130278
0.000118617
0.000133752
0.000133757
0.000132685
0.000121208
0.000137093
0.000137084
0.000135387
0.000234266
0.000234448
0.000234449
0.000234267
0.000234448
0.000234449
0.000234274
0.000234274
0.000234274
0.000234274
0.000234448
0.000234448
0.000234266
0.000234448
0.000234448
0.000234266
0.000233423
0.000226204
0.000233116
0.000233114
0.000229361
0.000229357
0.000233423
0.000226205
0.000233114
0.000233114
0.000229359
0.000229356
0.000233116
0.000229364
0.000229361
0.000233423
0.000226202
0.000233114
0.000229363
0.000229359
0.000226202
0.000223867
0.00021223
0.000227799
0.000227794
0.000222332
0.000222326
0.000223868
0.000212234
0.000227797
0.000227792
0.000222332
0.000222323
0.000227798
0.000222339
0.000222331
0.000223866
0.000212227
0.000227797
0.000222336
0.000222331
0.000212228
0.000209111
0.00019706
0.000220313
0.000220307
0.000213879
0.000213874
0.000209112
0.000197066
0.000220314
0.000220304
0.000213883
0.000213869
0.000220311
0.00021389
0.000213877
0.000209107
0.000197057
0.000220313
0.000213886
0.000213882
0.000197057
0.000193788
0.000182876
0.000211654
0.000211648
0.00020489
0.000204884
0.000193792
0.000182883
0.000211658
0.000211643
0.000204897
0.000204879
0.000211651
0.000204905
0.000204887
0.000193784
0.000182872
0.000211657
0.000204899
0.000204896
0.000182872
0.000179713
0.000170268
0.000202634
0.000202628
0.000195943
0.000195937
0.000179717
0.000170274
0.000202643
0.000202622
0.000195954
0.000195931
0.000202631
0.000195962
0.00019594
0.000179708
0.000170263
0.000202641
0.000195955
0.000195953
0.000170264
0.000167344
0.000159242
0.000193753
0.000193747
0.000187336
0.000187331
0.000167349
0.000159249
0.000193765
0.00019374
0.000187351
0.000187324
0.00019375
0.000187359
0.000187333
0.000167339
0.000159238
0.000193764
0.000187351
0.00018735
0.000159238
0.000156592
0.000149613
0.000185253
0.000185247
0.000179173
0.000179168
0.000156597
0.00014962
0.000185268
0.00018524
0.000179191
0.00017916
0.000185249
0.000179198
0.00017917
0.000156587
0.000149608
0.000185267
0.00017919
0.00017919
0.000149608
0.000147211
0.000141107
0.000177208
0.000177203
0.000171501
0.000171496
0.000147217
0.000141114
0.000177227
0.000177195
0.000171521
0.000171488
0.000177205
0.000171529
0.000171498
0.000147207
0.000141101
0.000177225
0.00017152
0.00017152
0.000141101
0.000138956
0.000133548
0.00016966
0.000169655
0.000164309
0.000164304
0.000138961
0.000133555
0.000169681
0.000169647
0.000164332
0.000164296
0.000169658
0.000164339
0.000164307
0.00013895
0.000133542
0.00016968
0.000164331
0.000164332
0.00013354
0.000131621
0.000126684
0.000162581
0.000162576
0.000157546
0.000157541
0.000131627
0.000126692
0.000162605
0.000162568
0.000157571
0.000157533
0.000162578
0.000157579
0.000157545
0.000131615
0.000126679
0.000162604
0.00015757
0.000157571
0.000126679
0.000124958
0.000120366
0.000155917
0.000155912
0.000151158
0.000151152
0.000124963
0.000120367
0.000155943
0.000155903
0.000151186
0.000151144
0.000155915
0.000151192
0.000151157
0.000124954
0.000120354
0.000155942
0.000151182
0.000151184
0.000120356
0.000118833
0.000114427
0.000149613
0.000149608
0.000145096
0.00014509
0.000118834
0.00011443
0.00014964
0.000149599
0.000145124
0.000145082
0.000149612
0.000145132
0.000145094
0.00011881
0.000114402
0.00014964
0.000145122
0.000145123
0.0001144
0.000113178
0.000108848
0.000143631
0.000143624
0.000139321
0.000139314
0.000113178
0.000108848
0.000143658
0.000143618
0.00013935
0.000139308
0.000143629
0.000139357
0.000139318
0.000113168
0.000108842
0.000143658
0.00013935
0.000139347
0.000108822
0.000107961
0.000103679
0.000137921
0.000137909
0.000133772
0.000133772
0.000107947
0.000103718
0.000137948
0.000137904
0.000133801
0.000133758
0.000137914
0.000133817
0.000133774
0.000107956
0.000103672
0.000137944
0.000133802
0.000133803
0.00010368
0.000103044
9.91457e-05
0.000132425
0.000132421
0.000128451
0.000128437
0.000103078
9.91259e-05
0.000132453
0.000132412
0.000128479
0.000128437
0.000132423
0.000128484
0.000128455
0.000103047
9.91499e-05
0.000132453
0.000128482
0.000128484
9.91631e-05
9.84538e-05
9.4995e-05
0.000127151
0.000127142
0.000123345
0.000123337
9.84427e-05
9.50018e-05
0.000127178
0.000127137
0.000123372
0.000123322
0.000127152
0.000123385
0.000123348
9.84625e-05
9.49788e-05
0.000127181
0.000123368
0.000123376
9.50146e-05
9.42653e-05
9.14318e-05
0.000122111
0.000122102
0.000118476
0.000118468
9.42652e-05
9.14388e-05
0.000122137
0.000122088
0.000118501
0.000118461
0.00012211
0.000118514
0.000118476
9.42348e-05
9.14481e-05
0.000122138
0.000118507
0.000118503
9.14297e-05
9.06597e-05
8.83794e-05
0.000117328
0.000117321
0.000113921
0.000113913
9.06601e-05
8.83812e-05
0.000117353
0.000117314
0.000113945
0.000113898
0.000117332
0.000113959
0.00011392
9.06614e-05
8.83554e-05
0.000117359
0.000113944
0.000113946
8.83647e-05
8.77366e-05
8.5914e-05
0.000112846
0.000112839
0.00010969
0.000109683
8.7733e-05
8.59157e-05
0.000112869
0.00011283
0.000109714
0.000109669
0.000112853
0.000109729
0.000109689
8.77071e-05
8.58903e-05
0.000112879
0.000109715
0.000109713
8.58853e-05
8.53913e-05
8.40751e-05
0.000108715
0.000108707
0.000105849
0.00010584
8.53852e-05
8.40811e-05
0.000108736
0.0001087
0.00010587
0.000105829
0.000108722
0.000105885
0.000105849
8.53597e-05
8.40552e-05
0.000108746
0.000105874
0.000105872
8.40536e-05
8.36782e-05
8.28579e-05
0.000104989
0.000104978
0.000102455
0.000102447
8.36745e-05
8.28731e-05
0.000105009
0.000104969
0.000102473
0.000102435
0.000104988
0.000102493
0.000102459
8.36461e-05
8.28588e-05
0.000105011
0.000102479
0.000102481
8.2866e-05
8.25845e-05
8.22575e-05
0.000101677
0.000101666
9.95181e-05
9.95063e-05
8.25962e-05
8.22629e-05
0.000101695
0.000101653
9.95347e-05
9.94986e-05
0.000101678
9.95511e-05
9.9521e-05
8.25606e-05
8.22701e-05
0.0001017
9.95416e-05
9.95417e-05
8.22688e-05
8.21015e-05
8.2203e-05
9.8863e-05
9.88496e-05
9.70823e-05
9.70698e-05
8.21059e-05
8.22061e-05
9.88799e-05
9.88392e-05
9.70974e-05
9.70652e-05
9.88608e-05
9.71131e-05
9.70861e-05
8.20986e-05
8.22111e-05
9.88817e-05
9.71066e-05
9.71058e-05
8.2207e-05
8.21507e-05
8.26442e-05
9.65552e-05
9.65429e-05
9.5164e-05
9.51499e-05
8.21562e-05
8.26436e-05
9.65706e-05
9.65352e-05
9.51779e-05
9.51473e-05
9.65565e-05
9.51914e-05
9.51676e-05
8.2158e-05
8.2645e-05
9.65757e-05
9.51868e-05
9.51854e-05
8.26423e-05
8.26893e-05
8.353e-05
9.47669e-05
9.47542e-05
9.37627e-05
9.37482e-05
8.26902e-05
8.35311e-05
9.47811e-05
9.47491e-05
9.3775e-05
9.37458e-05
9.47707e-05
9.37875e-05
9.37646e-05
8.26935e-05
8.3528e-05
9.4788e-05
9.37833e-05
9.37802e-05
8.35254e-05
8.36611e-05
8.48132e-05
9.34943e-05
9.34806e-05
9.28723e-05
9.28583e-05
8.36606e-05
8.48155e-05
9.35072e-05
9.34779e-05
9.28834e-05
9.28547e-05
9.3498e-05
9.28955e-05
9.2873e-05
8.36621e-05
8.48087e-05
9.35134e-05
9.28899e-05
9.28871e-05
8.48099e-05
8.50175e-05
8.64263e-05
9.27267e-05
9.27128e-05
9.24729e-05
9.24596e-05
8.50181e-05
8.64287e-05
9.2738e-05
9.27113e-05
9.24829e-05
9.24547e-05
9.27287e-05
9.24946e-05
9.24747e-05
8.50147e-05
8.64244e-05
9.27423e-05
9.24878e-05
9.24869e-05
8.64286e-05
8.66977e-05
8.83085e-05
9.24461e-05
9.24332e-05
9.2534e-05
9.25202e-05
8.66997e-05
8.83091e-05
9.24562e-05
9.24285e-05
9.25428e-05
9.25207e-05
9.24473e-05
9.2553e-05
9.25383e-05
8.66926e-05
8.83149e-05
9.24594e-05
9.25515e-05
9.25493e-05
8.83144e-05
8.86339e-05
9.04229e-05
9.26204e-05
9.26071e-05
9.3033e-05
9.30201e-05
8.86343e-05
9.04242e-05
9.26295e-05
9.26043e-05
9.304e-05
9.30205e-05
9.26234e-05
9.30506e-05
9.30357e-05
8.86381e-05
9.04233e-05
9.26339e-05
9.30494e-05
9.30451e-05
9.04225e-05
9.07887e-05
9.27079e-05
9.32204e-05
9.32072e-05
9.3928e-05
9.39172e-05
9.07901e-05
9.27089e-05
9.32278e-05
9.32085e-05
9.39344e-05
9.39138e-05
9.32234e-05
9.39464e-05
9.39338e-05
9.07942e-05
9.27023e-05
9.32325e-05
9.39407e-05
9.39418e-05
9.27113e-05
9.31113e-05
9.51289e-05
9.42116e-05
9.42015e-05
9.51891e-05
9.51716e-05
9.31139e-05
9.51216e-05
9.42179e-05
9.4199e-05
9.51939e-05
9.51751e-05
9.42171e-05
9.51979e-05
9.51884e-05
9.31068e-05
9.51296e-05
9.42249e-05
9.52003e-05
9.51951e-05
9.51247e-05
9.55548e-05
9.76567e-05
9.55519e-05
9.55393e-05
9.67797e-05
9.67697e-05
9.55489e-05
9.76646e-05
9.55574e-05
9.5541e-05
9.67836e-05
9.67657e-05
9.55557e-05
9.67959e-05
9.67877e-05
9.55545e-05
9.76576e-05
9.55623e-05
9.67897e-05
9.67931e-05
9.76675e-05
9.81112e-05
0.000100246
9.72219e-05
9.72036e-05
9.86515e-05
9.86402e-05
9.81102e-05
0.000100246
9.72255e-05
9.72037e-05
9.86547e-05
9.86456e-05
9.7222e-05
9.86647e-05
9.86563e-05
9.81065e-05
0.000100253
9.72269e-05
9.86674e-05
9.86612e-05
0.000100246
0.000100705
0.00010291
9.91541e-05
9.91492e-05
0.000100783
0.000100766
0.000100716
0.000102904
9.91578e-05
9.91483e-05
0.000100784
0.000100768
9.91662e-05
0.00010079
0.000100786
0.000100717
0.000102903
9.91708e-05
0.000100791
0.00010079
0.00010291
0.000103384
0.000105598
0.000101356
0.000101337
0.000103128
0.000103117
0.000103371
0.000105602
0.000101358
0.000101346
0.00010313
0.000103116
0.000101356
0.00010314
0.000103135
0.000103379
0.0001056
0.000101359
0.000103136
0.000103136
0.000105604
0.000106079
0.000108308
0.000103768
0.000103757
0.000105666
0.000105653
0.000106086
0.000108306
0.000103769
0.000103753
0.000105668
0.000105659
0.000103775
0.000105676
0.000105674
0.000106075
0.00010831
0.000103778
0.000105678
0.000105677
0.000108312
0.000108793
0.00011104
0.000106342
0.00010633
0.000108383
0.000108367
0.000108792
0.000111038
0.000106344
0.000106336
0.000108383
0.000108373
0.000106351
0.000108388
0.000108387
0.000108799
0.000111038
0.000106351
0.000108394
0.000108391
0.000111041
0.000111528
0.000113758
0.00010908
0.000109066
0.000111222
0.000111214
0.000111526
0.000113762
0.000109081
0.000109071
0.000111224
0.000111211
0.000109085
0.000111236
0.000111232
0.000111525
0.000113757
0.000109089
0.00011123
0.000111229
0.000113762
0.000114248
0.000116476
0.000111941
0.00011193
0.000114149
0.000114136
0.000114251
0.000116473
0.000111946
0.000111933
0.000114149
0.00011414
0.00011195
0.000114156
0.000114158
0.000114248
0.000116476
0.000111953
0.00011416
0.000114161
0.000116482
0.000116958
0.000119183
0.000114905
0.000114898
0.000117176
0.000117163
0.000116961
0.00011918
0.000114904
0.000114897
0.000117179
0.00011717
0.000114917
0.000117185
0.000117186
0.000116959
0.000119185
0.000114914
0.000117189
0.000117185
0.000119186
0.000119669
0.000121866
0.000117964
0.000117945
0.000120291
0.000120285
0.000119658
0.000121872
0.000117968
0.000117955
0.000120294
0.000120281
0.00011797
0.000120303
0.000120299
0.000119666
0.000121863
0.000117973
0.000120304
0.000120304
0.000121869
0.000122333
0.000124519
0.00012105
0.000121047
0.00012341
0.000123397
0.000122345
0.000124514
0.000121053
0.000121045
0.00012341
0.000123404
0.000121062
0.000123418
0.000123421
0.000122335
0.000124519
0.000121065
0.000123422
0.000123423
0.000124526
0.000125
0.000127144
0.000124253
0.000124241
0.000126599
0.000126593
0.000124994
0.000127144
0.000124254
0.000124244
0.000126604
0.000126591
0.000124263
0.000126612
0.000126611
0.000124997
0.000127141
0.000124264
0.000126612
0.000126611
0.000127145
0.000127582
0.000129811
0.000127346
0.000127337
0.000129859
0.00012985
0.000127582
0.000129813
0.00012735
0.000127341
0.000129862
0.000129855
0.000127355
0.000129868
0.000129867
0.000127581
0.000129812
0.000127357
0.000129873
0.000129871
0.000129818
0.00013027
0.000132219
0.000130682
0.000130683
0.000132883
0.000132872
0.000130274
0.000132212
0.000130691
0.000130677
0.000132884
0.000132873
0.000130701
0.00013289
0.000132892
0.000130271
0.00013221
0.000130706
0.000132891
0.000132892
0.000132218
0.000132691
0.000135018
0.000133761
0.000133734
0.000136354
0.000136368
0.000132682
0.000135033
0.000133754
0.000133752
0.000136369
0.000136349
0.00013375
0.000136385
0.000136382
0.000132683
0.000135026
0.000133751
0.000136384
0.000136391
0.000135036
0.000135358
0.000137088
0.00013704
0.000137072
0.000139172
0.000139137
0.000135382
0.00013706
0.000137063
0.00013704
0.000139163
0.000139165
0.00013709
0.000139149
0.000139158
0.000135368
0.000137073
0.000137096
0.000139166
0.000139157
0.000137067
0.00023473
0.000234746
0.000234729
0.000234729
0.000235117
0.000234798
0.000234701
0.000234727
0.000235118
0.000234798
0.000234727
0.000234701
0.000234867
0.000233566
0.000233566
0.000104651
3.87411e-05
0.000129118
3.98249e-05
2.16834e-05
2.28313e-05
0.000104643
3.87371e-05
0.000129114
3.98215e-05
0.000233973
0.000233973
0.000233973
0.000232935
0.000232935
0.000232935
0.000232935
0.000206196
9.36752e-05
0.000233969
0.000231994
0.000222614
8.72226e-05
0.000233611
2.16823e-05
2.28307e-05
0.00020619
0.000233969
9.36747e-05
0.000231994
0.000222622
0.000233611
8.72282e-05
4.78012e-05
4.77893e-05
0.000231345
4.40184e-05
4.40089e-05
7.25677e-05
4.2434e-05
8.14027e-05
4.37634e-05
2.47749e-05
2.54634e-05
7.25581e-05
4.24305e-05
8.13974e-05
4.37596e-05
0.000232532
0.000232532
0.000232532
0.000231084
0.000231084
0.000231083
0.000231084
0.000167491
7.9439e-05
0.000232081
0.000226097
0.000180211
7.4508e-05
0.000231376
2.47731e-05
2.54619e-05
0.000167487
0.000232081
7.94328e-05
0.000226096
0.000180204
0.000231375
7.4511e-05
3.91646e-05
3.91544e-05
0.000219593
3.65761e-05
3.65654e-05
5.62773e-05
4.55466e-05
6.11325e-05
4.64126e-05
2.60134e-05
2.61173e-05
5.62814e-05
4.55439e-05
6.11277e-05
4.64097e-05
0.000230516
0.000230515
0.000230515
0.000228543
0.000228543
0.000228541
0.000228542
0.000138601
6.74261e-05
0.000228643
0.000218231
0.000148065
6.35185e-05
0.000227537
2.60111e-05
2.61152e-05
0.000138596
0.000228643
6.74199e-05
0.000218228
0.000148057
0.000227534
6.35147e-05
3.3218e-05
3.32094e-05
0.000204613
3.19919e-05
3.19829e-05
4.69657e-05
4.7499e-05
4.99089e-05
4.80042e-05
2.60471e-05
2.59392e-05
4.69648e-05
4.74956e-05
4.99095e-05
4.80013e-05
0.000227799
0.000227797
0.000227798
0.000225328
0.000225329
0.000225326
0.000225327
0.000117548
5.8205e-05
0.000223721
0.00020942
0.000124602
5.5486e-05
0.00022231
2.60446e-05
2.59372e-05
0.000117545
0.000223719
5.82034e-05
0.000209415
0.000124595
0.000222306
5.54828e-05
3.06179e-05
3.06099e-05
0.000189779
3.03049e-05
3.02971e-05
4.14286e-05
4.85825e-05
4.32437e-05
4.884e-05
2.56753e-05
2.55199e-05
4.14276e-05
4.85792e-05
4.32441e-05
4.8837e-05
0.000224433
0.000224431
0.000224432
0.000221562
0.000221563
0.000221559
0.000221561
0.000102113
5.18776e-05
0.000217771
0.000200404
0.00010738
5.00764e-05
0.000216181
2.56727e-05
2.5518e-05
0.000102111
0.000217769
5.18758e-05
0.000200398
0.000107374
0.000216177
5.00738e-05
3.0175e-05
3.017e-05
0.000176368
3.03968e-05
3.03875e-05
3.8156e-05
4.90927e-05
3.92423e-05
4.91982e-05
2.52376e-05
2.5094e-05
3.81549e-05
4.90899e-05
3.92423e-05
4.91952e-05
0.000220552
0.000220549
0.00022055
0.000217392
0.000217393
0.000217389
0.000217391
9.04958e-05
4.77377e-05
0.000211269
0.000191607
9.44603e-05
4.66134e-05
0.000209603
2.5235e-05
2.50922e-05
9.04948e-05
0.000211267
4.77371e-05
0.0001916
9.44542e-05
0.000209598
4.66111e-05
3.09726e-05
3.09661e-05
0.000164561
3.15747e-05
3.15684e-05
3.63746e-05
4.92745e-05
3.69401e-05
4.92961e-05
2.48484e-05
2.47326e-05
3.63734e-05
4.92714e-05
3.69398e-05
4.9293e-05
0.000216305
0.0002163
0.000216302
0.000212957
0.000212957
0.000212952
0.000212955
8.15895e-05
4.5168e-05
0.000204579
0.000183219
8.46719e-05
4.45536e-05
0.000202907
2.4846e-05
2.47308e-05
8.15891e-05
0.000204576
4.5167e-05
0.000183211
8.4666e-05
0.000202902
4.45516e-05
3.25062e-05
3.25011e-05
0.000154267
3.33582e-05
3.33535e-05
3.56771e-05
4.9292e-05
3.58211e-05
4.92817e-05
2.45348e-05
2.44469e-05
3.56745e-05
4.92889e-05
3.58209e-05
4.92788e-05
0.000211821
0.000211816
0.000211818
0.000208367
0.000208368
0.000208362
0.000208365
7.46435e-05
4.37716e-05
0.000197938
0.000175301
7.71192e-05
4.35239e-05
0.000196304
2.45326e-05
2.4445e-05
7.46434e-05
0.000197935
4.37695e-05
0.000175292
7.71137e-05
0.000196298
4.35221e-05
3.45044e-05
3.44999e-05
0.00014522
3.54896e-05
3.54863e-05
3.57599e-05
4.92553e-05
3.56386e-05
4.92441e-05
2.42941e-05
2.42289e-05
3.57578e-05
4.92526e-05
3.56372e-05
4.92409e-05
0.000207208
0.000207202
0.000207204
0.000203711
0.000203712
0.000203705
0.000203708
6.91752e-05
4.32452e-05
0.000191483
0.000167877
7.12033e-05
4.32343e-05
0.000189901
2.42922e-05
2.42269e-05
6.91743e-05
0.00019148
4.32438e-05
0.000167868
7.11983e-05
0.000189895
4.32315e-05
3.68807e-05
3.68776e-05
0.000137218
3.78721e-05
3.78697e-05
3.65538e-05
4.92266e-05
3.62067e-05
4.92223e-05
2.41155e-05
2.40679e-05
3.65603e-05
4.92234e-05
3.62054e-05
4.92194e-05
0.000202546
0.000202539
0.000202542
0.000199049
0.00019905
0.000199043
0.000199046
6.48677e-05
4.33857e-05
0.00018524
0.000160909
6.65083e-05
4.35625e-05
0.000183717
2.41136e-05
2.40658e-05
6.48658e-05
0.000185237
4.33794e-05
0.0001609
6.65052e-05
0.000183711
4.3567e-05
3.93581e-05
3.93556e-05
0.000130035
4.0414e-05
4.04146e-05
3.80493e-05
4.92219e-05
3.73847e-05
4.9227e-05
2.3986e-05
2.3952e-05
3.80635e-05
4.92187e-05
3.73665e-05
4.92241e-05
0.000197891
0.000197883
0.000197887
0.000194421
0.000194422
0.000194414
0.000194418
6.15076e-05
4.4057e-05
0.000179254
0.000154342
6.27536e-05
4.44122e-05
0.000177803
2.39838e-05
2.39503e-05
6.1506e-05
0.000179252
4.40664e-05
0.000154333
6.27517e-05
0.000177796
4.44003e-05
4.19415e-05
4.19402e-05
0.000123457
4.28626e-05
4.28647e-05
4.01152e-05
4.92392e-05
3.9123e-05
4.92528e-05
2.38938e-05
2.38707e-05
4.01184e-05
4.92366e-05
3.91165e-05
4.925e-05
0.000193277
0.000193269
0.000193273
0.00018983
0.000189831
0.000189823
0.000189827
5.90065e-05
4.51946e-05
0.000173549
0.000148122
5.98512e-05
4.56715e-05
0.000172164
2.38921e-05
2.38686e-05
5.90051e-05
0.000173547
4.51796e-05
0.000148114
5.98491e-05
0.000172157
4.56815e-05
4.42988e-05
4.43005e-05
0.000117357
4.54285e-05
4.54291e-05
4.26442e-05
4.92736e-05
4.1426e-05
4.92894e-05
2.38297e-05
2.38134e-05
4.26378e-05
4.92707e-05
4.14262e-05
4.92868e-05
0.000188684
0.000188676
0.00018868
0.000185274
0.000185275
0.000185267
0.000185271
5.72063e-05
4.67001e-05
0.000168097
0.000142213
5.77202e-05
4.72732e-05
0.000166769
2.38278e-05
2.38114e-05
5.72051e-05
0.000168094
4.66983e-05
0.000142205
5.77178e-05
0.000166763
4.72807e-05
4.68043e-05
4.68051e-05
0.000111587
4.77375e-05
4.77402e-05
4.55866e-05
4.93126e-05
4.42018e-05
4.93297e-05
2.37843e-05
2.37731e-05
4.55711e-05
4.93104e-05
4.42156e-05
4.93267e-05
0.000184152
0.000184144
0.000184148
0.000180807
0.00018081
0.0001808
0.000180805
5.60334e-05
4.84933e-05
0.000162861
0.00013656
5.63302e-05
4.91588e-05
0.000161583
2.37823e-05
2.37711e-05
5.60323e-05
0.000162859
4.84986e-05
0.00013655
5.63287e-05
0.000161576
4.91676e-05
4.89782e-05
4.89815e-05
0.000106199
4.99469e-05
4.99464e-05
4.88373e-05
4.93512e-05
4.73425e-05
4.93675e-05
2.37518e-05
2.3743e-05
4.88293e-05
4.9349e-05
4.73468e-05
4.93645e-05
0.000179708
0.000179699
0.000179703
0.000176422
0.000176423
0.000176415
0.00017642
5.55214e-05
5.05201e-05
0.00015781
0.000131122
5.55991e-05
5.12437e-05
0.000156574
2.37499e-05
2.37409e-05
5.55205e-05
0.000157809
5.05175e-05
0.000131117
5.55966e-05
0.000156569
5.12408e-05
5.11551e-05
5.1157e-05
0.000101361
5.1838e-05
5.18385e-05
5.22609e-05
4.93869e-05
5.07243e-05
4.94014e-05
2.3726e-05
2.37198e-05
5.22523e-05
4.93845e-05
5.07324e-05
4.93986e-05
0.00017534
0.000175331
0.000175336
0.000172103
0.000172105
0.000172095
0.000172101
5.56486e-05
5.26985e-05
0.000152914
0.000125904
5.55155e-05
5.34399e-05
0.000151715
2.37238e-05
2.37183e-05
5.5647e-05
0.000152914
5.27032e-05
0.000125894
5.55153e-05
0.000151709
5.34348e-05
5.2899e-05
5.29026e-05
9.69505e-05
5.38045e-05
5.38045e-05
5.57218e-05
4.94192e-05
5.4206e-05
4.94326e-05
2.37054e-05
2.37002e-05
5.57123e-05
4.94167e-05
5.42143e-05
4.94299e-05
0.000171037
0.000171027
0.000171033
0.000167838
0.000167841
0.000167831
0.000167836
5.63852e-05
5.49448e-05
0.000148169
0.000120925
5.60566e-05
5.57121e-05
0.000147004
2.37037e-05
2.36985e-05
5.63826e-05
0.000148168
5.49368e-05
0.000120916
5.60559e-05
0.000146998
5.571e-05
5.46227e-05
5.46249e-05
9.3112e-05
5.54547e-05
5.54561e-05
5.90948e-05
4.9449e-05
5.76378e-05
4.94615e-05
2.36876e-05
2.36828e-05
5.90857e-05
4.94464e-05
5.76464e-05
4.94589e-05
0.000166786
0.000166777
0.000166783
0.000163627
0.000163629
0.000163619
0.000163625
5.76928e-05
5.72183e-05
0.00014354
0.000116208
5.71831e-05
5.79927e-05
0.000142401
2.36861e-05
2.36806e-05
5.76911e-05
0.00014354
5.72138e-05
0.000116199
5.71817e-05
0.000142396
5.79995e-05
5.62564e-05
5.62583e-05
8.98243e-05
5.68779e-05
5.68823e-05
6.22731e-05
4.94774e-05
6.0905e-05
4.94892e-05
2.36714e-05
2.36664e-05
6.22671e-05
4.94745e-05
6.0911e-05
4.94863e-05
0.000162589
0.000162579
0.000162586
0.00015945
0.000159453
0.000159442
0.000159449
5.95062e-05
5.94744e-05
0.000139013
0.000111803
5.88384e-05
6.02319e-05
0.000137902
2.36697e-05
2.36645e-05
5.9505e-05
0.000139012
5.9469e-05
0.000111795
5.88359e-05
0.000137898
6.02427e-05
5.7666e-05
5.76665e-05
8.70732e-05
5.82015e-05
5.82052e-05
6.518e-05
4.95038e-05
6.39233e-05
4.95147e-05
2.36559e-05
2.36518e-05
6.51738e-05
4.95011e-05
6.39299e-05
4.95124e-05
0.000158418
0.000158407
0.000158414
0.000155293
0.000155297
0.000155286
0.000155293
6.17416e-05
6.1671e-05
0.000134594
0.000107759
6.09449e-05
6.23994e-05
0.000133515
2.36543e-05
2.36497e-05
6.17405e-05
0.000134594
6.16629e-05
0.000107751
6.09421e-05
0.000133512
6.24188e-05
5.89049e-05
5.89067e-05
8.49194e-05
5.94233e-05
5.94257e-05
6.77759e-05
4.95287e-05
6.66498e-05
4.95388e-05
2.36418e-05
2.36382e-05
6.77709e-05
4.95265e-05
6.6654e-05
4.9537e-05
0.000154266
0.000154255
0.000154262
0.000151163
0.000151167
0.000151155
0.000151163
6.43051e-05
6.37846e-05
0.000130299
0.000104154
6.34122e-05
6.44791e-05
0.000129258
2.364e-05
2.3636e-05
6.43034e-05
0.000130298
6.37581e-05
0.000104147
6.34096e-05
0.000129257
6.45138e-05
6.00269e-05
6.00273e-05
8.33806e-05
6.05298e-05
6.05316e-05
7.00602e-05
4.95517e-05
6.9071e-05
4.9561e-05
2.36288e-05
2.36252e-05
7.00527e-05
4.95497e-05
6.90773e-05
4.95592e-05
0.000150146
0.000150134
0.000150143
0.000147068
0.000147072
0.00014706
0.000147069
6.71009e-05
6.57887e-05
0.00012617
0.000100958
6.61442e-05
6.647e-05
0.000125152
2.36266e-05
2.36231e-05
6.70983e-05
0.000126173
6.57573e-05
0.000100951
6.61426e-05
0.000125146
6.64967e-05
6.1061e-05
6.10632e-05
8.24752e-05
6.15291e-05
6.15298e-05
7.20592e-05
4.95726e-05
7.11951e-05
4.95808e-05
2.36165e-05
2.36132e-05
7.2052e-05
4.95707e-05
7.12027e-05
4.9579e-05
0.000146066
0.000146054
0.000146063
0.000143029
0.000143032
0.000143021
0.000143029
7.0045e-05
6.76869e-05
0.000122225
9.82651e-05
6.90413e-05
6.83523e-05
0.000121259
2.36142e-05
2.36111e-05
7.00407e-05
0.000122229
6.76608e-05
9.82566e-05
6.90426e-05
0.000121254
6.83699e-05
6.20189e-05
6.20207e-05
8.21492e-05
6.24359e-05
6.2438e-05
7.38091e-05
4.9591e-05
7.30492e-05
4.95982e-05
2.36052e-05
2.36022e-05
7.38017e-05
4.95892e-05
7.30565e-05
4.95965e-05
0.000142048
0.000142037
0.000142046
0.00013907
0.000139073
0.000139062
0.000139071
7.30634e-05
6.94798e-05
0.000118526
9.60858e-05
7.1997e-05
7.01306e-05
0.000117623
2.36029e-05
2.36e-05
7.30583e-05
0.000118531
6.94597e-05
9.60773e-05
7.19978e-05
0.000117619
7.01412e-05
6.29032e-05
6.29046e-05
8.23622e-05
6.32725e-05
6.3274e-05
7.53481e-05
4.96071e-05
7.46732e-05
4.96134e-05
2.35949e-05
2.35922e-05
7.53406e-05
4.96053e-05
7.46817e-05
4.96117e-05
0.00013812
0.000138109
0.000138118
0.000135232
0.000135234
0.000135224
0.000135233
7.60699e-05
7.11688e-05
0.000115125
9.44272e-05
7.49622e-05
7.18084e-05
0.00011432
2.35925e-05
2.35899e-05
7.60654e-05
0.000115131
7.11544e-05
9.44189e-05
7.49639e-05
0.000114316
7.18152e-05
6.37138e-05
6.37154e-05
8.30428e-05
6.40506e-05
6.40515e-05
7.67115e-05
4.9621e-05
7.61079e-05
4.96268e-05
2.35855e-05
2.35831e-05
7.67076e-05
4.96194e-05
7.61153e-05
4.96251e-05
0.000134296
0.000134286
0.000134295
0.000131527
0.000131528
0.000131518
0.000131527
7.90118e-05
7.27581e-05
0.000112031
9.32817e-05
7.78834e-05
7.33874e-05
0.000111318
2.35832e-05
2.35808e-05
7.90096e-05
0.000112037
7.27471e-05
9.32754e-05
7.78837e-05
0.000111315
7.33953e-05
6.44571e-05
6.44583e-05
8.41344e-05
6.47746e-05
6.47761e-05
7.79347e-05
4.96335e-05
7.73929e-05
4.96387e-05
2.3577e-05
2.3575e-05
7.79292e-05
4.96318e-05
7.73974e-05
4.96371e-05
0.000130633
0.000130622
0.000130631
0.000127999
0.000128
0.000127989
0.000127999
8.18598e-05
7.42592e-05
0.000109323
9.26341e-05
8.07293e-05
7.4873e-05
0.000108708
2.35747e-05
2.35727e-05
8.18567e-05
0.000109329
7.42468e-05
9.26313e-05
8.07277e-05
0.000108705
7.48827e-05
6.51448e-05
6.51456e-05
8.55793e-05
6.54446e-05
6.54452e-05
7.90426e-05
4.96449e-05
7.85539e-05
4.96497e-05
2.35695e-05
2.35678e-05
7.90388e-05
4.96431e-05
7.85595e-05
4.9648e-05
0.000127156
0.000127146
0.000127155
0.000124683
0.000124683
0.000124674
0.000124683
8.45971e-05
7.56786e-05
0.000107018
9.24674e-05
8.34743e-05
7.62763e-05
0.000106509
2.35672e-05
2.35655e-05
8.45955e-05
0.000107025
7.56642e-05
9.24644e-05
8.34734e-05
0.000106507
7.62846e-05
6.57895e-05
6.57905e-05
8.73346e-05
6.60666e-05
6.60677e-05
8.00607e-05
4.96556e-05
7.9615e-05
4.96603e-05
2.3563e-05
2.35616e-05
8.00601e-05
4.9654e-05
7.96189e-05
4.96585e-05
0.000123903
0.000123892
0.000123902
0.000121634
0.000121635
0.000121626
0.000121635
8.72221e-05
7.70194e-05
0.000105142
9.27515e-05
8.61078e-05
7.76051e-05
0.000104742
2.35607e-05
2.35594e-05
8.722e-05
0.000105149
7.70078e-05
9.27451e-05
8.61064e-05
0.000104741
7.76059e-05
6.63945e-05
6.6395e-05
8.93427e-05
6.66515e-05
6.66519e-05
8.10039e-05
4.96662e-05
8.05911e-05
4.96707e-05
2.35575e-05
2.35565e-05
8.10057e-05
4.96645e-05
8.05923e-05
4.96691e-05
0.000120902
0.000120893
0.000120901
0.000118836
0.000118838
0.000118829
0.000118838
8.9727e-05
7.82903e-05
0.000103707
9.34476e-05
8.86266e-05
7.88595e-05
0.000103419
2.35552e-05
2.35542e-05
8.97271e-05
0.000103715
7.82862e-05
9.34465e-05
8.86257e-05
0.000103419
7.88583e-05
6.69621e-05
6.69627e-05
9.15457e-05
6.72039e-05
6.72045e-05
8.18829e-05
4.96767e-05
8.14953e-05
4.96816e-05
2.3553e-05
2.35523e-05
8.18815e-05
4.96749e-05
8.14959e-05
4.968e-05
0.000118188
0.000118179
0.000118188
0.000116361
0.000116359
0.000116353
0.00011636
9.211e-05
7.95012e-05
0.000102717
9.45326e-05
9.10443e-05
8.00493e-05
0.00010254
2.35507e-05
2.35501e-05
9.211e-05
0.000102725
7.94966e-05
9.45312e-05
9.10415e-05
0.000102541
8.00477e-05
6.74969e-05
6.74972e-05
9.39076e-05
6.77267e-05
6.77273e-05
8.27036e-05
4.96877e-05
8.23463e-05
4.96928e-05
2.35495e-05
2.35492e-05
8.27048e-05
4.9686e-05
8.23485e-05
4.96911e-05
0.000115788
0.000115782
0.000115789
0.00011422
0.000114221
0.000114212
0.000114223
9.43899e-05
8.06519e-05
0.000102166
9.59589e-05
9.33676e-05
8.11791e-05
0.0001021
2.35471e-05
2.35469e-05
9.43896e-05
0.000102175
8.06506e-05
9.59559e-05
9.33656e-05
0.000102102
8.11744e-05
6.80017e-05
6.80021e-05
9.63814e-05
6.82247e-05
6.82252e-05
8.34825e-05
4.96995e-05
8.31424e-05
4.97049e-05
2.3547e-05
2.3547e-05
8.34832e-05
4.96978e-05
8.31434e-05
4.97032e-05
0.000113724
0.000113717
0.000113726
0.000112423
0.000112423
0.000112418
0.000112424
9.65782e-05
8.17575e-05
0.000102043
9.76892e-05
9.55918e-05
8.22485e-05
0.000102086
2.35447e-05
2.35448e-05
9.65746e-05
0.00010205