/*--------------------------------*- C++ -*----------------------------------*\
| =========                 |                                                 |
| \\      /  F ield         | OpenFOAM: The Open Source CFD Toolbox           |
|  \\    /   O peration     | Version:  v2012                                 |
|   \\  /    A nd           | Website:  www.openfoam.com                      |
|    \\/     M anipulation  |                                                 |
\*---------------------------------------------------------------------------*/
FoamFile
{
    version     2.0;
    format      ascii;
    class       volScalarField;
    location    "250";
    object      p;
}
// * * * * * * * * * * * * * * * * * * * * * * * * * * * * * * * * * * * * * //

dimensions      [0 2 -2 0 0 0 0];


internalField   nonuniform List<scalar> 
85864
(
0.00361705
0.00361738
0.00361738
0.00362043
0.00356169
0.00356211
0.00356211
0.0035651
0.00351094
0.00351091
0.00351091
0.00351367
0.00345856
0.00345857
0.00345857
0.00346135
0.00340721
0.00340722
0.00340722
0.00340997
0.00335723
0.00335724
0.00335724
0.00335996
0.00330871
0.00330872
0.00330872
0.00331141
0.00326148
0.00326148
0.0032615
0.00326415
0.00321535
0.00321537
0.00321537
0.00321799
0.00317012
0.00317014
0.00317016
0.00317274
0.00312562
0.00312566
0.00312561
0.00312819
0.00308169
0.00308171
0.00308175
0.00308428
0.00303831
0.00303832
0.00303835
0.00304085
0.00299537
0.00299539
0.00299538
0.0029979
0.00295288
0.0029529
0.00295292
0.00295539
0.00291078
0.00291077
0.00291075
0.00291323
0.00286907
0.00286906
0.00286906
0.00287154
0.00282773
0.00282773
0.00282774
0.00283022
0.00278671
0.00278671
0.00278672
0.00278919
0.00274601
0.00274599
0.00274601
0.00274847
0.0027056
0.00270557
0.00270558
0.00270804
0.00266546
0.00266542
0.00266542
0.00266787
0.00262557
0.00262552
0.00262552
0.00262796
0.00258591
0.00258586
0.00258586
0.00258829
0.00254649
0.00254643
0.00254643
0.00254885
0.00250728
0.00250722
0.00250722
0.00250962
0.00246827
0.00246822
0.00246822
0.00247061
0.00242947
0.00242942
0.00242942
0.00243179
0.00239086
0.00239082
0.00239082
0.00239316
0.00235244
0.0023524
0.0023524
0.00235473
0.0023142
0.00231417
0.00231417
0.00231647
0.00227614
0.00227611
0.00227611
0.00227839
0.00223824
0.00223822
0.00223822
0.00224048
0.00220051
0.00220049
0.00220049
0.00220273
0.00216293
0.00216292
0.00216292
0.00216514
0.00212551
0.0021255
0.0021255
0.0021277
0.00208824
0.00208823
0.00208823
0.00209041
0.00205111
0.00205109
0.00205109
0.00205326
0.00201411
0.00201409
0.00201409
0.00201625
0.00197724
0.00197722
0.00197722
0.00197936
0.0019405
0.00194046
0.00194046
0.00194259
0.00190386
0.00190383
0.00190383
0.00190595
0.00186735
0.0018673
0.0018673
0.00186941
0.00183094
0.00183088
0.00183088
0.00183299
0.00179462
0.00179455
0.00179455
0.00179665
0.00175843
0.00175836
0.00175836
0.00176045
0.00172226
0.00172217
0.00172217
0.00172425
0.00363046
0.00363068
0.00363068
0.00363046
0.00363068
0.00363068
0.00363145
0.00363144
0.00363145
0.00363145
0.00363068
0.00363068
0.00363046
0.00363068
0.00363068
0.00363046
0.00362043
0.00357167
0.00361738
0.00361738
0.00357395
0.00357395
0.00362043
0.00357167
0.00361738
0.00361738
0.00357395
0.00357395
0.00361738
0.00357395
0.00357395
0.00362043
0.00357167
0.00361738
0.00357395
0.00357395
0.00357167
0.0035651
0.00352059
0.00356211
0.00356212
0.00352404
0.00352404
0.00356511
0.0035206
0.00356211
0.00356211
0.00352404
0.00352404
0.00356211
0.00352404
0.00352404
0.0035651
0.00352059
0.00356211
0.00352404
0.00352404
0.0035206
0.00351367
0.00346823
0.00351092
0.00351092
0.00347159
0.00347159
0.00351367
0.00346823
0.00351091
0.00351092
0.00347159
0.00347159
0.00351092
0.00347158
0.00347158
0.00351367
0.00346823
0.00351091
0.00347159
0.00347158
0.00346823
0.00346134
0.00341668
0.00345857
0.00345857
0.00341994
0.00341994
0.00346135
0.00341667
0.00345857
0.00345857
0.00341994
0.00341994
0.00345857
0.00341994
0.00341994
0.00346135
0.00341668
0.00345857
0.00341994
0.00341994
0.00341667
0.00340997
0.00336646
0.00340722
0.00340722
0.0033696
0.0033696
0.00340997
0.00336646
0.00340722
0.00340722
0.0033696
0.0033696
0.00340722
0.0033696
0.0033696
0.00340997
0.00336646
0.00340722
0.0033696
0.0033696
0.00336646
0.00335996
0.00331771
0.00335724
0.00335724
0.00332073
0.00332073
0.00335996
0.0033177
0.00335724
0.00335724
0.00332073
0.00332073
0.00335724
0.00332073
0.00332072
0.00335996
0.00331771
0.00335724
0.00332073
0.00332072
0.0033177
0.00331141
0.00327028
0.00330873
0.00330872
0.00327319
0.0032732
0.0033114
0.00327028
0.00330872
0.00330872
0.00327319
0.0032732
0.00330873
0.0032732
0.0032732
0.0033114
0.00327028
0.00330872
0.0032732
0.0032732
0.00327027
0.00326416
0.00322398
0.00326151
0.0032615
0.0032268
0.00322682
0.00326416
0.00322398
0.00326151
0.0032615
0.00322681
0.00322682
0.00326152
0.00322682
0.00322681
0.00326415
0.00322398
0.0032615
0.00322682
0.00322682
0.00322399
0.003218
0.00317861
0.00321537
0.00321537
0.00318139
0.00318139
0.00321799
0.00317861
0.00321537
0.00321537
0.00318139
0.00318137
0.00321537
0.00318138
0.00318137
0.00321799
0.00317862
0.00321537
0.00318137
0.00318137
0.00317861
0.00317273
0.003134
0.00317014
0.00317014
0.00313668
0.00313668
0.00317273
0.00313399
0.00317014
0.00317016
0.00313668
0.0031367
0.00317014
0.00313668
0.00313672
0.00317274
0.00313397
0.00317014
0.0031367
0.00313672
0.00313399
0.00312822
0.00308996
0.00312566
0.00312566
0.00309268
0.00309267
0.00312822
0.00308997
0.00312566
0.00312561
0.00309268
0.00309262
0.00312564
0.00309267
0.00309263
0.00312819
0.00308999
0.00312564
0.00309262
0.00309263
0.00308996
0.00308425
0.00304649
0.0030817
0.00308171
0.00304914
0.00304915
0.00308426
0.00304648
0.00308169
0.00308175
0.00304914
0.00304916
0.00308173
0.00304915
0.00304914
0.00308429
0.0030465
0.00308172
0.00304916
0.00304914
0.00304649
0.00304083
0.00300345
0.00303834
0.00303832
0.0030061
0.00300606
0.00304082
0.00300347
0.00303834
0.00303835
0.0030061
0.00300609
0.00303835
0.00300606
0.00300607
0.00304084
0.00300346
0.00303835
0.00300609
0.00300607
0.00300347
0.00299789
0.00296092
0.00299538
0.00299539
0.00296347
0.00296348
0.0029979
0.00296091
0.00299538
0.00299537
0.00296347
0.00296347
0.00299539
0.00296348
0.00296348
0.00299789
0.00296092
0.00299539
0.00296349
0.00296348
0.00296091
0.0029554
0.00291873
0.00295291
0.00295289
0.00292129
0.00292129
0.00295539
0.00291873
0.00295291
0.00295292
0.00292129
0.0029213
0.00295291
0.00292129
0.0029213
0.00295541
0.00291872
0.00295291
0.0029213
0.0029213
0.00291871
0.00291326
0.00287696
0.00291077
0.00291077
0.00287947
0.00287945
0.00291326
0.00287696
0.00291077
0.00291075
0.00287947
0.00287944
0.00291074
0.00287945
0.00287945
0.00291324
0.00287696
0.00291074
0.00287944
0.00287945
0.00287695
0.00287154
0.00283556
0.00286906
0.00286906
0.00283802
0.00283801
0.00287155
0.00283557
0.00286906
0.00286906
0.00283802
0.00283799
0.00286905
0.00283801
0.00283799
0.00287156
0.00283557
0.00286905
0.00283799
0.00283799
0.00283557
0.00283019
0.00279449
0.00282772
0.00282773
0.00279692
0.00279692
0.0028302
0.0027945
0.00282772
0.00282773
0.00279692
0.00279691
0.00282774
0.00279692
0.00279691
0.00283021
0.00279451
0.00282774
0.00279691
0.00279691
0.00279451
0.00278916
0.00275373
0.0027867
0.00278671
0.00275614
0.00275613
0.00278917
0.00275374
0.0027867
0.00278672
0.00275614
0.00275613
0.00278672
0.00275613
0.00275613
0.00278919
0.00275376
0.00278672
0.00275613
0.00275614
0.00275376
0.00274844
0.00271327
0.00274599
0.00274599
0.00271565
0.00271564
0.00274845
0.00271328
0.00274599
0.002746
0.00271565
0.00271564
0.00274601
0.00271564
0.00271564
0.00274847
0.00271329
0.00274601
0.00271564
0.00271564
0.00271329
0.00270802
0.00267309
0.00270557
0.00270557
0.00267543
0.00267543
0.00270802
0.00267309
0.00270556
0.00270558
0.00267543
0.00267542
0.00270558
0.00267543
0.00267542
0.00270804
0.00267309
0.00270558
0.00267542
0.00267542
0.00267309
0.00266786
0.00263316
0.00266542
0.00266541
0.00263547
0.00263547
0.00266786
0.00263316
0.00266541
0.00266542
0.00263547
0.00263546
0.00266542
0.00263547
0.00263546
0.00266787
0.00263315
0.00266542
0.00263546
0.00263546
0.00263315
0.00262796
0.00259346
0.00262552
0.00262552
0.00259575
0.00259575
0.00262796
0.00259346
0.00262552
0.00262552
0.00259575
0.00259575
0.00262552
0.00259575
0.00259575
0.00262796
0.00259346
0.00262552
0.00259575
0.00259575
0.00259346
0.00258829
0.00255399
0.00258586
0.00258586
0.00255627
0.00255627
0.00258829
0.002554
0.00258586
0.00258586
0.00255627
0.00255627
0.00258586
0.00255627
0.00255627
0.00258829
0.00255399
0.00258586
0.00255627
0.00255627
0.00255399
0.00254885
0.00251475
0.00254643
0.00254643
0.002517
0.002517
0.00254885
0.00251475
0.00254643
0.00254643
0.002517
0.002517
0.00254643
0.002517
0.002517
0.00254885
0.00251475
0.00254643
0.002517
0.002517
0.00251475
0.00250962
0.00247571
0.00250722
0.00250722
0.00247795
0.00247795
0.00250962
0.00247571
0.00250722
0.00250722
0.00247795
0.00247795
0.00250722
0.00247795
0.00247795
0.00250962
0.00247571
0.00250722
0.00247795
0.00247795
0.00247571
0.0024706
0.00243687
0.00246822
0.00246822
0.0024391
0.0024391
0.0024706
0.00243687
0.00246822
0.00246822
0.0024391
0.0024391
0.00246822
0.0024391
0.0024391
0.00247061
0.00243687
0.00246822
0.0024391
0.0024391
0.00243687
0.00243179
0.00239823
0.00242942
0.00242942
0.00240045
0.00240045
0.00243179
0.00239823
0.00242942
0.00242942
0.00240045
0.00240045
0.00242942
0.00240045
0.00240045
0.00243179
0.00239822
0.00242942
0.00240045
0.00240045
0.00239822
0.00239316
0.00235977
0.00239082
0.00239082
0.00236199
0.00236199
0.00239316
0.00235977
0.00239082
0.00239082
0.00236199
0.00236199
0.00239082
0.00236199
0.00236199
0.00239316
0.00235977
0.00239082
0.00236199
0.00236199
0.00235977
0.00235473
0.0023215
0.0023524
0.0023524
0.00232371
0.00232371
0.00235473
0.0023215
0.0023524
0.0023524
0.00232371
0.00232371
0.0023524
0.00232371
0.00232371
0.00235473
0.0023215
0.0023524
0.00232371
0.00232371
0.0023215
0.00231647
0.0022834
0.00231417
0.00231417
0.0022856
0.0022856
0.00231647
0.0022834
0.00231417
0.00231417
0.0022856
0.0022856
0.00231417
0.0022856
0.0022856
0.00231647
0.0022834
0.00231417
0.0022856
0.0022856
0.0022834
0.00227839
0.00224547
0.00227611
0.00227611
0.00224767
0.00224767
0.00227839
0.00224547
0.00227611
0.00227611
0.00224767
0.00224767
0.00227611
0.00224767
0.00224767
0.00227839
0.00224547
0.00227611
0.00224767
0.00224767
0.00224547
0.00224048
0.00220771
0.00223822
0.00223822
0.00220991
0.00220991
0.00224048
0.00220771
0.00223822
0.00223822
0.00220991
0.00220991
0.00223822
0.00220991
0.00220991
0.00224048
0.00220771
0.00223822
0.00220991
0.00220991
0.00220771
0.00220273
0.0021701
0.00220049
0.00220049
0.0021723
0.0021723
0.00220273
0.0021701
0.00220049
0.00220049
0.0021723
0.0021723
0.00220049
0.0021723
0.0021723
0.00220273
0.0021701
0.00220049
0.0021723
0.0021723
0.0021701
0.00216514
0.00213265
0.00216292
0.00216292
0.00213484
0.00213484
0.00216514
0.00213265
0.00216292
0.00216292
0.00213484
0.00213484
0.00216292
0.00213484
0.00213484
0.00216514
0.00213265
0.00216292
0.00213484
0.00213484
0.00213265
0.0021277
0.00209535
0.0021255
0.0021255
0.00209753
0.00209753
0.0021277
0.00209535
0.0021255
0.0021255
0.00209753
0.00209753
0.0021255
0.00209753
0.00209753
0.0021277
0.00209535
0.0021255
0.00209753
0.00209753
0.00209535
0.00209041
0.00205818
0.00208823
0.00208823
0.00206036
0.00206036
0.00209041
0.00205818
0.00208823
0.00208823
0.00206036
0.00206036
0.00208823
0.00206036
0.00206036
0.00209041
0.00205818
0.00208823
0.00206036
0.00206036
0.00205818
0.00205326
0.00202116
0.00205109
0.00205109
0.00202333
0.00202333
0.00205326
0.00202116
0.00205109
0.00205109
0.00202333
0.00202333
0.00205109
0.00202333
0.00202333
0.00205326
0.00202116
0.00205109
0.00202333
0.00202333
0.00202116
0.00201625
0.00198426
0.00201409
0.00201409
0.00198642
0.00198642
0.00201624
0.00198426
0.00201409
0.00201409
0.00198642
0.00198642
0.00201409
0.00198642
0.00198642
0.00201625
0.00198426
0.00201409
0.00198642
0.00198642
0.00198426
0.00197936
0.00194748
0.00197722
0.00197722
0.00194964
0.00194964
0.00197936
0.00194748
0.00197722
0.00197722
0.00194964
0.00194964
0.00197722
0.00194964
0.00194964
0.00197936
0.00194748
0.00197721
0.00194964
0.00194964
0.00194748
0.00194259
0.00191083
0.00194046
0.00194046
0.00191297
0.00191297
0.00194259
0.00191083
0.00194046
0.00194046
0.00191297
0.00191297
0.00194046
0.00191297
0.00191297
0.00194259
0.00191083
0.00194046
0.00191297
0.00191297
0.00191083
0.00190595
0.00187428
0.00190383
0.00190383
0.00187642
0.00187642
0.00190595
0.00187428
0.00190383
0.00190383
0.00187642
0.00187642
0.00190383
0.00187642
0.00187642
0.00190595
0.00187428
0.00190383
0.00187642
0.00187642
0.00187428
0.00186941
0.00183784
0.0018673
0.0018673
0.00183997
0.00183997
0.00186941
0.00183784
0.0018673
0.0018673
0.00183997
0.00183998
0.0018673
0.00183997
0.00183997
0.00186941
0.00183785
0.0018673
0.00183997
0.00183997
0.00183785
0.00183299
0.0018015
0.00183088
0.00183088
0.00180363
0.00180363
0.00183299
0.0018015
0.00183088
0.00183088
0.00180363
0.00180363
0.00183088
0.00180363
0.00180363
0.00183299
0.0018015
0.00183088
0.00180363
0.00180363
0.0018015
0.00179665
0.00176529
0.00179455
0.00179455
0.0017674
0.0017674
0.00179665
0.00176529
0.00179455
0.00179455
0.0017674
0.0017674
0.00179455
0.0017674
0.0017674
0.00179665
0.00176529
0.00179455
0.0017674
0.0017674
0.00176529
0.00176045
0.00172908
0.00175836
0.00175836
0.0017312
0.0017312
0.00176045
0.00172908
0.00175836
0.00175836
0.0017312
0.0017312
0.00175836
0.0017312
0.0017312
0.00176045
0.00172908
0.00175836
0.0017312
0.0017312
0.00172908
0.00172425
0.00169312
0.00172217
0.00172217
0.00169521
0.00169521
0.00172425
0.00169312
0.00172217
0.00172217
0.00169521
0.00169521
0.00172217
0.00169521
0.00169521
0.00172425
0.00169312
0.00172217
0.00169521
0.00169521
0.00169312
0.00363883
0.0036486
0.00364339
0.0036434
0.00366578
0.00365256
0.00368117
0.0036466
0.00366578
0.00365256
0.00364661
0.00368117
0.00365713
0.00368491
0.00368491
0.00359419
0.00361334
0.00362253
0.00358627
0.00358701
0.00358978
0.00359417
0.00361331
0.00362252
0.00358625
0.00361705
0.00361705
0.00361705
0.00357365
0.00357365
0.00357364
0.00357364
0.00359169
0.00361751
0.00361745
0.00360052
0.00362054
0.00359059
0.0036014
0.00358711
0.00358978
0.0035917
0.00361745
0.00361753
0.00360052
0.00362054
0.0036014
0.00359059
0.00362339
0.00362338
0.00359492
0.00359023
0.00359023
0.00354756
0.00356684
0.0035682
0.0035461
0.00356575
0.00354566
0.00354756
0.00356683
0.0035682
0.00354609
0.00356169
0.00356169
0.00356169
0.0035241
0.00352411
0.0035241
0.0035241
0.00354615
0.00356691
0.00356169
0.00354982
0.0035657
0.00354669
0.00354955
0.00356574
0.00354565
0.00354615
0.00356169
0.00356691
0.00354982
0.0035657
0.00354955
0.00354669
0.00356793
0.00356793
0.00354637
0.00354702
0.00354702
0.0034953
0.0035141
0.00351517
0.00349427
0.00351374
0.00349399
0.0034953
0.0035141
0.00351517
0.00349427
0.00351094
0.00351094
0.00351094
0.00347156
0.00347156
0.00347156
0.00347156
0.0034944
0.0035145
0.00351082
0.00349777
0.00351394
0.00349476
0.00349768
0.00351374
0.00349399
0.0034944
0.00351082
0.0035145
0.00349777
0.00351394
0.00349768
0.00349476
0.00351474
0.00351474
0.00349439
0.00349483
0.00349483
0.00344277
0.00346143
0.00346229
0.003442
0.00346122
0.00344182
0.00344277
0.00346143
0.00346229
0.003442
0.00345856
0.00345856
0.00345856
0.00341993
0.00341993
0.00341993
0.00341993
0.00344226
0.00346183
0.00345852
0.00344562
0.00346155
0.00344245
0.00344558
0.00346122
0.00344182
0.00344226
0.00345852
0.00346183
0.00344562
0.00346155
0.00344558
0.00344245
0.00346187
0.00346187
0.00344231
0.00344239
0.00344239
0.00339158
0.00340993
0.00341056
0.00339102
0.00340979
0.00339089
0.00339158
0.00340993
0.00341056
0.00339102
0.00340721
0.00340721
0.00340721
0.00336959
0.00336959
0.00336959
0.00336959
0.00339131
0.00341028
0.00340719
0.00339458
0.00341011
0.00339141
0.00339456
0.00340979
0.00339089
0.00339131
0.00340719
0.00341028
0.00339458
0.00341011
0.00339456
0.00339141
0.00341027
0.00341027
0.00339139
0.00339132
0.00339132
0.00334193
0.00335988
0.00336034
0.00334154
0.00335977
0.00334141
0.00334193
0.00335988
0.00336034
0.00334154
0.00335723
0.00335723
0.00335723
0.00332071
0.00332071
0.00332071
0.00332071
0.00334182
0.00336018
0.00335722
0.00334498
0.00336007
0.00334189
0.00334496
0.00335976
0.00334142
0.00334182
0.00335722
0.00336018
0.00334499
0.00336007
0.00334496
0.00334189
0.00336017
0.00336017
0.00334191
0.0033418
0.0033418
0.00329376
0.00331131
0.00331163
0.00329348
0.00331121
0.00329338
0.00329376
0.00331131
0.00331163
0.00329348
0.00330871
0.00330871
0.00330871
0.00327318
0.00327318
0.00327318
0.00327318
0.00329374
0.00331157
0.00330869
0.00329681
0.00331148
0.0032938
0.00329677
0.00331121
0.00329338
0.00329374
0.00330869
0.00331157
0.00329681
0.00331148
0.00329677
0.0032938
0.00331156
0.00331156
0.00329383
0.00329372
0.00329372
0.00324687
0.00326405
0.00326429
0.00324666
0.00326397
0.00324658
0.00324687
0.00326405
0.00326429
0.00324666
0.00326148
0.00326148
0.00326148
0.00322679
0.00322679
0.00322679
0.00322679
0.00324691
0.00326429
0.00326146
0.00324988
0.00326421
0.00324697
0.00324984
0.00326397
0.00324658
0.00324691
0.00326147
0.00326429
0.00324988
0.00326421
0.00324984
0.00324696
0.00326429
0.00326429
0.003247
0.00324688
0.00324688
0.00320104
0.0032179
0.00321808
0.00320088
0.00321782
0.00320078
0.00320104
0.0032179
0.00321808
0.00320088
0.00321535
0.00321535
0.00321535
0.00318136
0.00318136
0.00318135
0.00318135
0.00320111
0.00321811
0.00321534
0.003204
0.00321805
0.00320116
0.00320396
0.00321782
0.00320079
0.00320111
0.00321534
0.00321812
0.00320399
0.00321805
0.00320396
0.00320116
0.00321812
0.00321812
0.0032012
0.00320107
0.00320107
0.00315605
0.00317265
0.0031728
0.00315591
0.00317256
0.00315582
0.00315605
0.00317265
0.0031728
0.00315591
0.00317012
0.00317012
0.00317012
0.00313667
0.00313667
0.00313668
0.00313668
0.00315615
0.00317285
0.00317011
0.00315896
0.00317279
0.0031562
0.00315892
0.00317256
0.00315583
0.00315615
0.00317012
0.00317286
0.00315893
0.00317279
0.00315892
0.00315619
0.00317284
0.00317284
0.0031562
0.0031561
0.0031561
0.00311174
0.00312812
0.00312825
0.0031116
0.00312803
0.00311153
0.00311174
0.00312813
0.00312825
0.0031116
0.00312562
0.00312561
0.00312561
0.00309263
0.00309263
0.00309262
0.00309262
0.00311186
0.00312832
0.00312561
0.00311459
0.00312826
0.00311189
0.00311458
0.00312803
0.00311154
0.00311186
0.00312561
0.00312831
0.00311463
0.00312826
0.00311458
0.0031119
0.0031283
0.0031283
0.00311191
0.00311177
0.00311177
0.003068
0.00308418
0.00308431
0.00306788
0.00308411
0.0030678
0.003068
0.00308418
0.00308431
0.00306787
0.0030817
0.00308171
0.0030817
0.00304911
0.00304911
0.00304912
0.00304911
0.00306814
0.00308438
0.0030817
0.00307084
0.00308434
0.00306815
0.00307081
0.00308411
0.00306779
0.00306814
0.00308171
0.00308438
0.00307084
0.00308434
0.00307081
0.00306814
0.00308435
0.00308435
0.00306814
0.00306803
0.00306802
0.00302475
0.00304076
0.00304088
0.00302462
0.00304068
0.00302456
0.00302475
0.00304076
0.00304088
0.00302462
0.00303831
0.00303831
0.00303831
0.00300607
0.00300606
0.00300607
0.00300606
0.00302492
0.00304094
0.00303831
0.00302753
0.00304094
0.0030249
0.00302753
0.00304069
0.00302456
0.00302492
0.00303831
0.00304094
0.00302751
0.00304094
0.00302753
0.0030249
0.00304088
0.00304088
0.0030249
0.00302479
0.00302478
0.00298196
0.00299779
0.00299792
0.00298183
0.00299773
0.00298177
0.00298196
0.00299779
0.00299792
0.00298183
0.00299538
0.00299537
0.00299537
0.00296346
0.00296346
0.00296346
0.00296346
0.00298215
0.00299797
0.00299538
0.00298475
0.00299799
0.00298211
0.00298472
0.00299773
0.00298176
0.00298215
0.00299538
0.00299798
0.00298474
0.00299799
0.00298472
0.0029821
0.00299793
0.00299793
0.00298212
0.00298195
0.00298195
0.00293959
0.00295527
0.0029554
0.00293946
0.00295521
0.00293942
0.00293959
0.00295527
0.0029554
0.00293946
0.00295288
0.00295289
0.00295288
0.00292127
0.00292127
0.00292127
0.00292127
0.0029398
0.00295544
0.00295289
0.0029423
0.00295548
0.00293972
0.00294232
0.00295522
0.00293942
0.0029398
0.00295289
0.00295544
0.0029423
0.00295549
0.00294232
0.00293973
0.00295538
0.00295538
0.00293979
0.00293958
0.00293959
0.00289761
0.00291315
0.00291327
0.00289749
0.00291309
0.00289744
0.00289761
0.00291315
0.00291327
0.00289749
0.00291078
0.00291077
0.00291077
0.00287947
0.00287947
0.00287946
0.00287946
0.00289785
0.00291331
0.00291079
0.00290033
0.00291338
0.00289775
0.00290034
0.0029131
0.00289744
0.00289785
0.00291079
0.0029133
0.00290033
0.00291338
0.00290034
0.00289775
0.00291328
0.00291328
0.00289784
0.00289758
0.00289758
0.00285602
0.00287141
0.00287153
0.0028559
0.00287138
0.00285586
0.00285602
0.00287141
0.00287153
0.0028559
0.00286908
0.00286908
0.00286907
0.00283803
0.00283803
0.00283803
0.00283803
0.00285627
0.00287156
0.0028691
0.00285872
0.00287166
0.00285615
0.00285873
0.00287138
0.00285586
0.00285628
0.0028691
0.00287156
0.00285874
0.00287166
0.00285873
0.00285615
0.00287154
0.00287154
0.00285623
0.00285597
0.00285597
0.00281477
0.00283005
0.00283016
0.00281466
0.00283001
0.00281462
0.00281477
0.00283005
0.00283016
0.00281466
0.00282773
0.00282773
0.00282773
0.00279693
0.00279693
0.00279694
0.00279694
0.00281504
0.00283018
0.00282775
0.00281745
0.00283029
0.0028149
0.00281746
0.00283001
0.00281462
0.00281504
0.00282775
0.00283018
0.00281746
0.00283029
0.00281746
0.00281489
0.00283013
0.00283013
0.00281497
0.00281474
0.00281474
0.00277385
0.00278902
0.00278912
0.00277375
0.00278898
0.00277372
0.00277385
0.00278902
0.00278912
0.00277375
0.00278672
0.00278672
0.00278672
0.00275616
0.00275616
0.00275616
0.00275616
0.00277412
0.00278913
0.00278673
0.0027765
0.00278926
0.00277397
0.00277652
0.00278898
0.00277371
0.00277413
0.00278673
0.00278913
0.0027765
0.00278926
0.00277652
0.00277397
0.00278908
0.00278909
0.00277406
0.00277383
0.00277383
0.00273323
0.0027483
0.00274839
0.00273314
0.00274826
0.00273312
0.00273323
0.0027483
0.00274839
0.00273314
0.00274601
0.00274602
0.00274602
0.00271568
0.00271568
0.00271568
0.00271568
0.00273351
0.0027484
0.00274602
0.00273586
0.00274853
0.00273334
0.00273589
0.00274826
0.00273311
0.00273351
0.00274602
0.0027484
0.00273586
0.00274853
0.00273589
0.00273334
0.00274836
0.00274836
0.00273346
0.00273321
0.00273321
0.0026929
0.00270787
0.00270795
0.00269281
0.00270783
0.00269279
0.0026929
0.00270787
0.00270795
0.00269281
0.0027056
0.00270561
0.00270561
0.00267547
0.00267547
0.00267547
0.00267547
0.00269317
0.00270795
0.0027056
0.00269551
0.00270808
0.002693
0.00269554
0.00270784
0.00269278
0.00269317
0.0027056
0.00270796
0.00269551
0.00270808
0.00269553
0.002693
0.00270792
0.00270792
0.00269315
0.00269287
0.00269287
0.00265283
0.00266771
0.00266779
0.00265275
0.00266768
0.00265272
0.00265283
0.00266771
0.00266779
0.00265275
0.00266546
0.00266546
0.00266546
0.00263552
0.00263552
0.00263552
0.00263552
0.0026531
0.00266778
0.00266544
0.00265542
0.0026679
0.00265292
0.00265545
0.00266768
0.00265272
0.0026531
0.00266545
0.00266778
0.00265543
0.00266791
0.00265545
0.00265292
0.00266776
0.00266776
0.00265309
0.00265279
0.00265279
0.00261301
0.0026278
0.00262787
0.00261293
0.00262777
0.00261291
0.00261301
0.0026278
0.00262787
0.00261293
0.00262557
0.00262557
0.00262557
0.00259581
0.00259581
0.0025958
0.0025958
0.00261325
0.00262786
0.00262554
0.00261558
0.00262797
0.00261309
0.00261561
0.00262778
0.00261291
0.00261325
0.00262554
0.00262786
0.00261559
0.00262797
0.00261561
0.00261309
0.00262785
0.00262785
0.00261328
0.00261297
0.00261297
0.00257342
0.00258813
0.0025882
0.00257334
0.00258811
0.00257333
0.00257342
0.00258813
0.0025882
0.00257334
0.00258591
0.00258591
0.00258591
0.00255632
0.00255632
0.00255632
0.00255632
0.00257365
0.00258818
0.00258588
0.00257598
0.00258828
0.00257349
0.002576
0.00258811
0.00257333
0.00257365
0.00258588
0.00258818
0.00257598
0.00258828
0.002576
0.00257349
0.00258818
0.00258818
0.0025737
0.00257338
0.00257338
0.00253405
0.00254869
0.00254875
0.00253398
0.00254867
0.00253397
0.00253405
0.00254869
0.00254875
0.00253398
0.00254649
0.00254649
0.00254649
0.00251706
0.00251706
0.00251706
0.00251706
0.00253427
0.00254873
0.00254644
0.0025366
0.00254882
0.00253412
0.00253662
0.00254867
0.00253397
0.00253427
0.00254644
0.00254873
0.0025366
0.00254882
0.00253662
0.00253412
0.00254873
0.00254873
0.00253434
0.00253402
0.00253402
0.0024949
0.00250946
0.00250952
0.00249484
0.00250944
0.00249482
0.0024949
0.00250946
0.00250952
0.00249484
0.00250728
0.00250728
0.00250728
0.002478
0.002478
0.002478
0.002478
0.00249511
0.00250949
0.00250723
0.00249745
0.00250958
0.00249497
0.00249746
0.00250944
0.00249482
0.00249511
0.00250723
0.00250949
0.00249745
0.00250958
0.00249746
0.00249496
0.0025095
0.0025095
0.0024952
0.00249487
0.00249487
0.00245596
0.00247044
0.0024705
0.0024559
0.00247043
0.00245588
0.00245596
0.00247044
0.0024705
0.0024559
0.00246827
0.00246827
0.00246827
0.00243915
0.00243915
0.00243915
0.00243915
0.00245615
0.00247047
0.00246822
0.0024585
0.00247055
0.00245602
0.00245851
0.00247043
0.00245588
0.00245615
0.00246822
0.00247047
0.0024585
0.00247055
0.00245851
0.00245602
0.00247048
0.00247048
0.00245626
0.00245593
0.00245593
0.00241722
0.00243163
0.00243168
0.00241715
0.00243161
0.00241714
0.00241722
0.00243163
0.00243168
0.00241715
0.00242947
0.00242947
0.00242947
0.00240049
0.00240049
0.00240049
0.00240049
0.0024174
0.00243165
0.00242942
0.00241975
0.00243172
0.00241727
0.00241976
0.00243161
0.00241714
0.0024174
0.00242942
0.00243165
0.00241975
0.00243172
0.00241976
0.00241727
0.00243166
0.00243166
0.00241752
0.00241718
0.00241718
0.00237866
0.00239301
0.00239306
0.0023786
0.002393
0.00237859
0.00237866
0.00239301
0.00239306
0.0023786
0.00239086
0.00239086
0.00239086
0.00236203
0.00236203
0.00236203
0.00236203
0.00237884
0.00239303
0.00239082
0.0023812
0.00239309
0.00237871
0.0023812
0.002393
0.00237859
0.00237884
0.00239082
0.00239303
0.0023812
0.00239309
0.0023812
0.00237871
0.00239304
0.00239304
0.00237897
0.00237863
0.00237863
0.0023403
0.00235457
0.00235462
0.00234024
0.00235456
0.00234023
0.0023403
0.00235457
0.00235462
0.00234024
0.00235244
0.00235244
0.00235244
0.00232374
0.00232374
0.00232374
0.00232374
0.00234046
0.00235459
0.00235241
0.00234283
0.00235465
0.00234035
0.00234283
0.00235456
0.00234023
0.00234046
0.00235241
0.00235459
0.00234283
0.00235465
0.00234283
0.00234035
0.00235461
0.00235461
0.00234061
0.00234026
0.00234026
0.00230211
0.00231632
0.00231637
0.00230205
0.00231631
0.00230205
0.00230211
0.00231632
0.00231637
0.00230205
0.0023142
0.0023142
0.0023142
0.00228564
0.00228564
0.00228564
0.00228564
0.00230227
0.00231634
0.00231417
0.00230463
0.00231639
0.00230216
0.00230464
0.00231631
0.00230205
0.00230227
0.00231417
0.00231634
0.00230463
0.00231639
0.00230464
0.00230216
0.00231635
0.00231635
0.00230242
0.00230208
0.00230208
0.0022641
0.00227825
0.00227829
0.00226404
0.00227824
0.00226404
0.00226409
0.00227825
0.00227829
0.00226404
0.00227614
0.00227614
0.00227614
0.0022477
0.0022477
0.0022477
0.0022477
0.00226425
0.00227826
0.00227612
0.00226662
0.00227831
0.00226414
0.00226663
0.00227824
0.00226404
0.00226425
0.00227612
0.00227826
0.00226662
0.00227831
0.00226663
0.00226414
0.00227828
0.00227828
0.00226441
0.00226407
0.00226407
0.00222625
0.00224034
0.00224038
0.0022262
0.00224034
0.0022262
0.00222625
0.00224034
0.00224038
0.0022262
0.00223824
0.00223824
0.00223824
0.00220993
0.00220993
0.00220993
0.00220993
0.00222641
0.00224035
0.00223823
0.00222877
0.0022404
0.0022263
0.00222878
0.00224034
0.0022262
0.00222641
0.00223823
0.00224036
0.00222877
0.0022404
0.00222878
0.0022263
0.00224037
0.00224037
0.00222657
0.00222622
0.00222622
0.00218856
0.0022026
0.00220264
0.00218852
0.0022026
0.00218852
0.00218856
0.0022026
0.00220264
0.00218852
0.00220051
0.00220051
0.00220051
0.00217231
0.00217231
0.00217231
0.00217231
0.00218872
0.00220261
0.00220051
0.00219108
0.00220266
0.00218861
0.0021911
0.0022026
0.00218852
0.00218872
0.00220051
0.00220261
0.00219108
0.00220266
0.0021911
0.00218862
0.00220263
0.00220263
0.00218888
0.00218854
0.00218854
0.00215104
0.00216502
0.00216506
0.00215099
0.00216502
0.00215099
0.00215104
0.00216502
0.00216506
0.00215099
0.00216293
0.00216293
0.00216293
0.00213485
0.00213485
0.00213485
0.00213485
0.00215119
0.00216503
0.00216294
0.00215355
0.00216507
0.00215109
0.00215357
0.00216502
0.00215099
0.00215119
0.00216294
0.00216503
0.00215355
0.00216507
0.00215357
0.00215109
0.00216505
0.00216505
0.00215136
0.00215102
0.00215102
0.00211366
0.00212759
0.00212762
0.00211362
0.00212759
0.00211362
0.00211366
0.00212759
0.00212762
0.00211362
0.00212551
0.00212551
0.00212551
0.00209754
0.00209754
0.00209754
0.00209754
0.00211381
0.0021276
0.00212553
0.00211617
0.00212763
0.00211371
0.00211619
0.00212759
0.00211362
0.00211381
0.00212553
0.0021276
0.00211617
0.00212764
0.00211619
0.00211371
0.00212762
0.00212762
0.00211398
0.00211364
0.00211364
0.00207643
0.00209031
0.00209034
0.00207639
0.00209031
0.00207639
0.00207643
0.00209031
0.00209034
0.00207639
0.00208824
0.00208824
0.00208824
0.00206038
0.00206038
0.00206038
0.00206038
0.00207657
0.00209031
0.00208826
0.00207893
0.00209035
0.00207648
0.00207896
0.00209031
0.00207639
0.00207657
0.00208826
0.00209032
0.00207893
0.00209035
0.00207896
0.00207648
0.00209033
0.00209033
0.00207675
0.00207641
0.00207641
0.00203934
0.00205317
0.00205319
0.0020393
0.00205316
0.0020393
0.00203934
0.00205317
0.00205319
0.0020393
0.00205111
0.00205111
0.00205111
0.00202335
0.00202335
0.00202335
0.00202335
0.00203948
0.00205317
0.00205113
0.00204183
0.0020532
0.00203939
0.00204186
0.00205316
0.0020393
0.00203948
0.00205113
0.00205317
0.00204183
0.0020532
0.00204186
0.00203939
0.00205319
0.00205319
0.00203965
0.00203932
0.00203932
0.00200237
0.00201616
0.00201618
0.00200234
0.00201616
0.00200234
0.00200237
0.00201616
0.00201618
0.00200234
0.00201411
0.00201411
0.00201411
0.00198645
0.00198645
0.00198644
0.00198644
0.00200251
0.00201616
0.00201413
0.00200486
0.00201619
0.00200242
0.0020049
0.00201616
0.00200234
0.00200251
0.00201413
0.00201616