/*--------------------------------*- C++ -*----------------------------------*\
| =========                 |                                                 |
| \\      /  F ield         | OpenFOAM: The Open Source CFD Toolbox           |
|  \\    /   O peration     | Version:  v2012                                 |
|   \\  /    A nd           | Website:  www.openfoam.com                      |
|    \\/     M anipulation  |                                                 |
\*---------------------------------------------------------------------------*/
FoamFile
{
    version     2.0;
    format      ascii;
    class       surfaceScalarField;
    location    "250";
    object      phi;
}
// * * * * * * * * * * * * * * * * * * * * * * * * * * * * * * * * * * * * * //

dimensions      [0 3 -1 0 0 0 0];
oriented        oriented;


internalField   nonuniform List<scalar> 
248808
(
-0.00104221
-1.45815e-05
-1.44777e-05
9.34771e-06
9.17762e-06
0.00105274
-0.00026146
-5.64183e-06
1.44583e-05
6.83957e-06
0.00105941
-4.53274e-06
-1.62486e-06
-2.21806e-06
-2.57554e-06
-6.59144e-06
-7.04427e-06
-3.16375e-06
-0.000263303
-0.000259727
-0.000262829
-0.000261437
-5.64682e-06
1.44873e-05
6.92911e-06
0.0010592
-4.53786e-06
-1.63504e-06
-2.22565e-06
-2.57985e-06
-6.58553e-06
-7.04034e-06
-3.16593e-06
-0.000259699
-0.000263274
-0.000262793
-0.000260564
5.61732e-06
5.65742e-06
-4.87815e-06
-4.87221e-06
0.00025904
-1.63187e-06
-1.63376e-06
-0.00106073
8.98537e-07
8.99307e-07
0.0010622
-0.00106267
-1.60665e-06
1.62783e-06
8.28416e-07
0.00106395
-6.53876e-07
7.84505e-07
-1.48151e-07
3.78011e-07
-8.00672e-07
-1.39484e-06
-2.90553e-07
-0.00106235
-1.60155e-06
1.63834e-06
8.23607e-07
0.00106363
-6.53856e-07
7.79012e-07
-1.48207e-07
3.75394e-07
-8.03194e-07
-1.39453e-06
-2.88009e-07
-0.000261533
1.63927e-06
1.6017e-06
-7.13259e-07
-7.16409e-07
0.000259722
-1.36114e-06
-1.36256e-06
-0.0010664
6.82254e-07
6.83064e-07
0.00106775
-0.0010679
-1.55716e-06
1.36731e-06
6.90361e-07
0.00106925
-6.21843e-07
8.38617e-07
-1.06603e-07
4.24402e-07
-7.80396e-07
-1.35996e-06
-2.45162e-07
-0.00106758
-1.55194e-06
1.36213e-06
6.95697e-07
0.00106892
-6.21937e-07
8.33223e-07
-1.06528e-07
4.24355e-07
-7.80319e-07
-1.35441e-06
-2.42599e-07
-0.000262766
1.58733e-06
1.55205e-06
-6.74973e-07
-6.83149e-07
0.000260984
-1.34097e-06
-1.34228e-06
-0.00107186
6.64407e-07
6.65257e-07
0.00107322
-0.00107326
-1.55553e-06
1.34194e-06
6.67251e-07
0.00107457
-6.19867e-07
8.63843e-07
-8.14497e-08
4.38192e-07
-7.79477e-07
-1.36936e-06
-2.20284e-07
-0.00107292
-1.55024e-06
1.34189e-06
6.67378e-07
0.00107424
-6.17266e-07
8.58323e-07
-8.4119e-08
4.38179e-07
-7.81969e-07
-1.36913e-06
-2.17649e-07
-0.000264044
1.5833e-06
1.55048e-06
-6.64715e-07
-6.70369e-07
0.000262245
-1.29594e-06
-1.29711e-06
-0.00107721
6.42257e-07
6.43154e-07
0.00107852
-0.00107844
-1.54748e-06
1.29687e-06
6.34143e-07
0.00107969
-6.0754e-07
8.91545e-07
-5.64723e-08
4.60417e-07
-7.68153e-07
-1.37174e-06
-1.88922e-07
-0.0010781
-1.54203e-06
1.29665e-06
6.34085e-07
0.00107936
-6.0466e-07
8.86346e-07
-5.83663e-08
4.60166e-07
-7.70692e-07
-1.37159e-06
-1.86481e-07
-0.000265263
1.57533e-06
1.54231e-06
-6.47782e-07
-6.53479e-07
0.000263447
-1.24837e-06
-1.24941e-06
-0.00108237
6.20354e-07
6.21274e-07
0.00108362
-0.00108337
-1.53896e-06
1.24918e-06
6.04411e-07
0.00108457
-5.94925e-07
9.17337e-07
-3.37624e-08
4.84337e-07
-7.54017e-07
-1.36918e-06
-1.58477e-07
-0.00108303
-1.53345e-06
1.24902e-06
6.04421e-07
0.00108423
-5.91908e-07
9.11701e-07
-3.65322e-08
4.84192e-07
-7.56529e-07
-1.36909e-06
-1.5582e-07
-0.000266408
1.56684e-06
1.53368e-06
-6.3043e-07
-6.36105e-07
0.000264574
-1.20451e-06
-1.20535e-06
-0.00108732
6.0088e-07
6.01779e-07
0.00108852
-0.00108806
-1.53233e-06
1.20512e-06
5.80708e-07
0.00108919
-5.85213e-07
9.39848e-07
-1.59815e-08
5.08719e-07
-7.40307e-07
-1.3654e-06
-1.30399e-07
-0.00108772
-1.52689e-06
1.20486e-06
5.80693e-07
0.00108885
-5.82382e-07
9.34416e-07
-1.82173e-08
5.08782e-07
-7.42768e-07
-1.36533e-06
-1.27912e-07
-0.000267479
1.56081e-06
1.5275e-06
-6.16672e-07
-6.22351e-07
0.00026563
-1.16572e-06
-1.16701e-06
-0.00109208
5.84433e-07
5.85372e-07
0.00109324
-0.00109251
-1.52787e-06
1.16666e-06
5.62574e-07
0.00109359
-5.78543e-07
9.59798e-07
-1.70039e-09
5.33506e-07
-7.28188e-07
-1.36148e-06
-1.05528e-07
-0.00109217
-1.52252e-06
1.16651e-06
5.62739e-07
0.00109325
-5.76055e-07
9.54387e-07
-3.65249e-09
5.33338e-07
-7.30611e-07
-1.36113e-06
-1.03176e-07
-0.000268482
1.55659e-06
1.5231e-06
-6.04734e-07
-6.10484e-07
0.000266618
-1.13233e-06
-1.13355e-06
-0.00109667
5.70487e-07
5.7118e-07
0.00109779
-0.00109676
-1.52629e-06
1.13275e-06
5.48508e-07
0.00109779
-5.74012e-07
9.76699e-07
1.70452e-08
5.55795e-07
-7.17922e-07
-1.35842e-06
-8.40842e-08
-0.00109641
-1.52064e-06
1.13254e-06
5.48426e-07
0.00109744
-5.71166e-07
9.71641e-07
1.55103e-08
5.55556e-07
-7.2056e-07
-1.35804e-06
-8.18463e-08
-0.000269424
1.55458e-06
1.52091e-06
-5.95191e-07
-6.00923e-07
0.000267544
-1.1028e-06
-1.10399e-06
-0.00110111
5.58458e-07
5.59139e-07
0.0011022
-0.00110081
-1.52654e-06
1.10392e-06
5.37664e-07
0.0011018
-5.72119e-07
9.92086e-07
3.31106e-08
5.76715e-07
-7.08492e-07
-1.35548e-06
-6.53717e-08
-0.00110047
-1.52187e-06
1.10401e-06
5.37853e-07
0.00110145
-5.73511e-07
9.87507e-07
3.00788e-08
5.77485e-07
-7.10096e-07
-1.35419e-06
-6.24633e-08
-0.000270304
1.55568e-06
1.52195e-06
-5.89971e-07
-5.95664e-07
0.000268412
-1.07907e-06
-1.08016e-06
-0.00110542
5.4909e-07
5.49733e-07
0.00110648
-0.0011047
-1.52948e-06
1.07958e-06
5.29407e-07
0.00110565
-5.76466e-07
1.00688e-06
3.91308e-08
5.98825e-07
-6.97617e-07
-1.35086e-06
-4.77215e-08
-0.00110435
-1.52245e-06
1.07936e-06
5.29451e-07
0.0011053
-5.6777e-07
9.99534e-07
3.8336e-08
5.96985e-07
-7.0261e-07
-1.35293e-06
-4.63644e-08
-0.000271134
1.55602e-06
1.5221e-06
-5.83271e-07
-5.89047e-07
0.000269229
-1.05449e-06
-1.0554e-06
-0.00110962
5.38888e-07
5.39569e-07
0.00111065
-0.00110843
-1.52952e-06
1.05663e-06
5.19381e-07
0.00110934
-5.67231e-07
1.0196e-06
5.12888e-08
6.15416e-07
-6.90018e-07
-1.34978e-06
-3.54316e-08
-0.00110808
-1.52628e-06
1.05754e-06
5.2068e-07
0.00110899
-5.78124e-07
1.01424e-06
4.66508e-08
6.18122e-07
-6.89801e-07
-1.34735e-06
-3.07105e-08
-0.000271904
1.56006e-06
1.52608e-06
-5.81862e-07
-5.8763e-07
0.000269987
-1.03258e-06
-1.03361e-06
-0.00111371
5.30351e-07
5.30948e-07
0.00111472
-0.00111201
-1.53043e-06
1.0337e-06
5.09272e-07
0.00111287
-5.67538e-07
1.03439e-06
6.78742e-08
6.32414e-07
-6.77272e-07
-1.34359e-06
-2.34204e-08
-0.00111166
-1.52532e-06
1.03297e-06
5.07989e-07
0.00111252
-5.71185e-07
1.03059e-06
7.08121e-08
6.3313e-07
-6.78138e-07
-1.34169e-06
-2.07526e-08
-0.000272631
1.56057e-06
1.52641e-06
-5.76676e-07
-5.82636e-07
0.000270704
-1.01188e-06
-1.01245e-06
-0.0011177
5.21081e-07
5.22345e-07
0.00111869
-0.00111543
-1.53382e-06
1.01613e-06
5.02955e-07
0.00111627
-5.68296e-07
1.04403e-06
6.44308e-08
6.49366e-07
-6.65718e-07
-1.33889e-06
-1.10857e-08
-0.00111508
-1.52625e-06
1.01313e-06
4.98604e-07
0.00111592
-5.62615e-07
1.04063e-06
7.07216e-08
6.48278e-07
-6.69442e-07
-1.33916e-06
-1.00933e-08
-0.000273297
1.56272e-06
1.5286e-06
-5.71205e-07
-5.76751e-07
0.000271354
-9.94153e-07
-9.95298e-07
-0.00112159
5.14812e-07
5.14894e-07
0.00112255
-0.00111872
-1.53271e-06
9.91261e-07
4.87049e-07
0.00111951
-5.62648e-07
1.06099e-06
8.52025e-08
6.62909e-07
-6.5034e-07
-1.32927e-06
-3.34638e-09
-0.00111836
-1.52933e-06
9.93484e-07
4.90783e-07
0.00111916
-5.67843e-07
1.05425e-06
8.26709e-08
6.63778e-07
-6.51535e-07
-1.3278e-06
-4.78007e-10
-0.000273915
1.5631e-06
1.52875e-06
-5.64127e-07
-5.69889e-07
0.000271958
-9.69879e-07
-9.70415e-07
-0.00112539
5.02974e-07
5.04095e-07
0.00112632
-0.00112184
-1.53224e-06
9.71922e-07
4.78297e-07
0.00112259
-5.53491e-07
1.07092e-06
8.89238e-08
6.73562e-07
-6.36791e-07
-1.32187e-06
6.35464e-09
-0.00112148
-1.5245e-06
9.70009e-07
4.75518e-07
0.00112223
-5.48272e-07
1.06609e-06
9.13489e-08
6.72053e-07
-6.40478e-07
-1.32279e-06
8.54487e-09
-0.000274475
1.55753e-06
1.52326e-06
-5.47642e-07
-5.5326e-07
0.000272495
-9.4975e-07
-9.50616e-07
-0.00112909
4.94367e-07
4.94763e-07
0.00113
-0.0011248
-1.53237e-06
9.52106e-07
4.6786e-07
0.00112552
-5.49891e-07
1.08076e-06
9.02306e-08
6.84826e-07
-6.20638e-07
-1.31188e-06
1.76947e-08
-0.00112444
-1.52781e-06
9.53866e-07
4.70784e-07
0.00112517
-5.51502e-07
1.07261e-06
8.51456e-08
6.85021e-07
-6.2347e-07
-1.3124e-06
2.16476e-08
-0.000274963
1.56042e-06
1.52597e-06
-5.44535e-07
-5.50212e-07
0.000272972
-9.28931e-07
-9.29583e-07
-0.0011327
4.84579e-07
4.85428e-07
0.00113359
-0.0011276
-1.53153e-06
9.30484e-07
4.5762e-07
0.00112828
-5.44234e-07
1.09117e-06
9.66388e-08
6.9495e-07
-6.0294e-07
-1.29937e-06
2.69719e-08
-0.00112724
-1.5268e-06
9.30253e-07
4.56783e-07
0.00112793
-5.46505e-07
1.08509e-06
9.51099e-08
6.95838e-07
-6.04999e-07
-1.29881e-06
3.09058e-08
-0.00027539
1.56202e-06
1.52752e-06
-5.41467e-07
-5.47214e-07
0.000273389
-9.07344e-07
-9.07828e-07
-0.00113622
4.74587e-07
4.75435e-07
0.00113708
-0.00113023
-1.52855e-06
9.08749e-07
4.46983e-07
0.00113087
-5.33535e-07
1.1011e-06
1.04305e-07
7.03277e-07
-5.85717e-07
-1.28567e-06
3.42598e-08
-0.00112988
-1.52441e-06
9.08132e-07
4.46059e-07
0.00113052
-5.36571e-07
1.09537e-06
1.04357e-07
7.04319e-07
-5.87246e-07
-1.28439e-06
3.80779e-08
-0.000275753
1.55905e-06
1.52449e-06
-5.31729e-07
-5.37466e-07
0.000273739
-8.86091e-07
-8.86669e-07
-0.00113964
4.6505e-07
4.65834e-07
0.00114048
-0.00113269
-1.52385e-06
8.87544e-07
4.36157e-07
0.00113328
-5.2063e-07
1.11003e-06
1.11128e-07
7.10541e-07
-5.68874e-07
-1.2712e-06
4.08307e-08
-0.00113233
-1.5198e-06
8.86946e-07
4.3531e-07
0.00113293
-5.23588e-07
1.10421e-06
1.1125e-07
7.11411e-07
-5.70485e-07
-1.26995e-06
4.44264e-08
-0.000276045
1.55479e-06
1.52014e-06
-5.20178e-07
-5.25927e-07
0.000274016
-8.65074e-07
-8.65699e-07
-0.00114296
4.55755e-07
4.56348e-07
0.00114378
-0.00113497
-1.51764e-06
8.66341e-07
4.25612e-07
0.00113551
-5.0986e-07
1.11831e-06
1.20393e-07
7.17301e-07
-5.52165e-07
-1.25561e-06
4.70596e-08
-0.00113461
-1.51427e-06
8.6701e-07
4.26833e-07
0.00113515
-5.10832e-07
1.11132e-06
1.15872e-07
7.1804e-07
-5.53894e-07
-1.25458e-06
5.05483e-08
-0.000276266
1.54904e-06
1.51431e-06
-5.07549e-07
-5.13303e-07
0.000274223
-8.44473e-07
-8.45086e-07
-0.00114621
4.46887e-07
4.47424e-07
0.001147
-0.00113705
-1.51028e-06
8.45146e-07
4.15487e-07
0.00113754
-4.96542e-07
1.12591e-06
1.26469e-07
7.23818e-07
-5.35456e-07
-1.23897e-06
5.31226e-08
-0.00113669
-1.50653e-06
8.46597e-07
4.18068e-07
0.00113719
-4.97047e-07
1.11821e-06
1.20547e-07
7.24284e-07
-5.37454e-07
-1.23846e-06
5.66385e-08
-0.000276415
1.54103e-06
1.50627e-06
-4.93254e-07
-4.98953e-07
0.00027436
-8.23437e-07
-8.24153e-07
-0.00114935
4.37749e-07
4.38336e-07
0.00115013
-0.00113895
-1.50236e-06
8.23839e-07
4.06924e-07
0.00113939
-4.83595e-07
1.13203e-06
1.32108e-07
7.30197e-07
-5.19019e-07
-1.22163e-06
5.922e-08
-0.00113858
-1.49715e-06
8.24749e-07
4.08101e-07
0.00113903
-4.81999e-07
1.12543e-06
1.2696e-07
7.3023e-07
-5.21352e-07
-1.22156e-06
6.24891e-08
-0.000276496
1.53194e-06
1.49714e-06
-4.78672e-07
-4.84384e-07
0.00027443
-8.01932e-07
-8.02561e-07
-0.0011524
4.28296e-07
4.2892e-07
0.00115315
-0.00114065
-1.49351e-06
8.02217e-07
3.99021e-07
0.00114104
-4.70688e-07
1.13735e-06
1.37157e-07
7.36504e-07
-5.02717e-07
-1.2038e-06
6.55062e-08
-0.00114028
-1.48769e-06
8.0231e-07
3.99332e-07
0.00114068
-4.67581e-07
1.13144e-06
1.33599e-07
7.36322e-07
-5.05346e-07
-1.20382e-06
6.84866e-08
-0.000276511
1.5226e-06
1.48785e-06
-4.64773e-07
-4.70432e-07
0.000274436
-7.79826e-07
-7.80292e-07
-0.00115536
4.1842e-07
4.19141e-07
0.00115608
-0.00114215
-1.48377e-06
7.80215e-07
3.91964e-07
0.00114249
-4.58312e-07
1.14205e-06
1.41394e-07
7.42839e-07
-4.86645e-07
-1.18567e-06
7.19126e-08
-0.00114178
-1.47774e-06
7.79852e-07
3.9154e-07
0.00114213
-4.54806e-07
1.13659e-06
1.38787e-07
7.42635e-07
-4.8929e-07
-1.18561e-06
7.47841e-08
-0.000276465
1.51277e-06
1.47804e-06
-4.51312e-07
-4.56911e-07
0.000274383
-7.57524e-07
-7.58018e-07
-0.00115821
4.08731e-07
4.09428e-07
0.00115891
-0.00114345
-1.47296e-06
7.58029e-07
3.84781e-07
0.00114374
-4.46014e-07
1.14646e-06
1.45321e-07
7.49176e-07
-4.7095e-07
-1.16753e-06
7.84269e-08
-0.00114308
-1.46707e-06
7.57547e-07
3.84098e-07
0.00114338
-4.42707e-07
1.14112e-06
1.42964e-07
7.49025e-07
-4.7355e-07
-1.16736e-06
8.12667e-08
-0.000276365
1.50226e-06
1.4675e-06
-4.37818e-07
-4.43413e-07
0.000274276
-7.34837e-07
-7.35282e-07
-0.00116096
3.99143e-07
3.9981e-07
0.00116163
-0.00114455
-1.46096e-06
7.35244e-07
3.76245e-07
0.0011448
-4.33341e-07
1.15119e-06
1.49755e-07
7.55491e-07
-4.55726e-07
-1.14956e-06
8.50023e-08
-0.00114419
-1.45541e-06
7.35066e-07
3.76093e-07
0.00114444
-4.30598e-07
1.14556e-06
1.47003e-07
7.55405e-07
-4.58263e-07
-1.14932e-06
8.78466e-08
-0.000276218
1.49047e-06
1.4557e-06
-4.23765e-07
-4.29339e-07
0.000274125
-7.11884e-07
-7.12274e-07
-0.0011636
3.8982e-07
3.90418e-07
0.00116425
-0.00114547
-1.44836e-06
7.12191e-07
3.66575e-07
0.00114567
-4.20911e-07
1.15607e-06
1.54546e-07
7.61792e-07
-4.40974e-07
-1.13185e-06
9.15429e-08
-0.0011451
-1.4429e-06
7.12371e-07
3.6699e-07
0.0011453
-4.18367e-07
1.1502e-06
1.51373e-07
7.61697e-07
-4.43501e-07
-1.13165e-06
9.44097e-08
-0.000276033
1.47776e-06
1.44297e-06
-4.09526e-07
-4.15093e-07
0.000273937
-6.89321e-07
-6.89594e-07
-0.00116614
3.8105e-07
3.81745e-07
0.00116676
-0.0011462
-1.43566e-06
6.89634e-07
3.56617e-07
0.00114635
-4.09259e-07
1.1606e-06
1.58871e-07
7.68048e-07
-4.26655e-07
-1.11457e-06
9.81178e-08
-0.00114583
-1.42984e-06
6.89343e-07
3.56267e-07
0.00114599
-4.06209e-07
1.15508e-06
1.56127e-07
7.67903e-07
-4.29203e-07
-1.11442e-06
1.00989e-07
-0.000275817
1.46483e-06
1.43007e-06
-3.95827e-07
-4.01349e-07
0.00027372
-6.6635e-07
-6.66714e-07
-0.00116856
3.72513e-07
3.73149e-07
0.00116915
-0.00114675
-1.42244e-06
6.66595e-07
3.44719e-07
0.00114686
-3.97508e-07
1.16539e-06
1.63531e-07
7.74165e-07
-4.12821e-07
-1.09792e-06
1.04718e-07
-0.00114638
-1.4167e-06
6.66215e-07
3.44221e-07
0.0011465
-3.94462e-07
1.15995e-06
1.61028e-07
7.74034e-07
-4.154e-07
-1.09773e-06
1.07523e-07
-0.000275579
1.45178e-06
1.417e-06
-3.82581e-07
-3.881e-07
0.000273481
-6.43575e-07
-6.43783e-07
-0.00117087
3.64464e-07
3.65043e-07
0.00117142
-0.00114714
-1.40936e-06
6.43372e-07
3.31764e-07
0.00114721
-3.86194e-07
1.17008e-06
1.68326e-07
7.8019e-07
-3.99514e-07
-1.08174e-06
1.11183e-07
-0.00114677
-1.4039e-06
6.43483e-07
3.32079e-07
0.00114684
-3.83603e-07
1.16431e-06
1.6533e-07
7.80091e-07
-4.02041e-07
-1.08154e-06
1.1401e-07
-0.000275323
1.43866e-06
1.40388e-06
-3.69831e-07
-3.75329e-07
0.000273226
-6.1988e-07
-6.2012e-07
-0.00117305
3.5584e-07
3.56482e-07
0.00117358
-0.00114737
-1.39671e-06
6.20731e-07
3.19491e-07
0.0011474
-3.75816e-07
1.17414e-06
1.72229e-07
7.86188e-07
-3.86604e-07
-1.06615e-06
1.17659e-07
-0.001147
-1.39093e-06
6.20239e-07
3.18806e-07
0.00114703
-3.72795e-07
1.16869e-06
1.69608e-07
7.86047e-07
-3.89143e-07
-1.066e-06
1.20507e-07
-0.000275059
1.42595e-06
1.39121e-06
-3.57845e-07
-3.63311e-07
0.000272963
-5.95937e-07
-5.96211e-07
-0.00117512
3.47506e-07
3.48012e-07
0.00117561
-0.00114745
-1.38343e-06
5.95803e-07
3.03822e-07
0.00114746
-3.64545e-07
1.17904e-06
1.77362e-07
7.91999e-07
-3.74209e-07
-1.05128e-06
1.24177e-07
-0.00114709
-1.37805e-06
5.96196e-07
3.044e-07
0.00114709
-3.62024e-07
1.1732e-06
1.74328e-07
7.91841e-07
-3.7679e-07
-1.05109e-06
1.26878e-07
-0.000274789
1.41266e-06
1.37792e-06
-3.45714e-07
-3.51195e-07
0.000272695
-5.72633e-07
-5.72762e-07
-0.00117706
3.39674e-07
3.40388e-07
0.00117752
-0.00114741
-1.37127e-06
5.72706e-07
2.88318e-07
0.00114739
-3.54476e-07
1.18322e-06
1.82161e-07
7.97514e-07
-3.62424e-07
-1.03706e-06
1.30249e-07
-0.00114705
-1.36548e-06
5.72274e-07
2.87812e-07
0.00114702
-3.51493e-07
1.17769e-06
1.79342e-07
7.97468e-07
-3.64911e-07
-1.03684e-06
1.33143e-07
-0.000274518
1.40061e-06
1.36588e-06
-3.35016e-07
-3.40454e-07
0.000272427
-5.48336e-07
-5.48689e-07
-0.00117887
3.31812e-07
3.32349e-07
0.0011793
-0.00114726
-1.3594e-06
5.48769e-07
2.71966e-07
0.0011472
-3.44873e-07
1.18703e-06
1.86357e-07
8.02959e-07
-3.50906e-07
-1.02346e-06
1.36457e-07
-0.00114689
-1.35379e-06
5.48474e-07
2.71768e-07
0.00114684
-3.41931e-07
1.18153e-06
1.83829e-07
8.02842e-07
-3.5353e-07
-1.02327e-06
1.39156e-07
-0.000274249
1.3886e-06
1.35388e-06
-3.24608e-07
-3.30042e-07
0.000272161
-5.23636e-07
-5.24001e-07
-0.00118055
3.23591e-07
3.24043e-07
0.00118095
-0.001147
-1.34766e-06
5.23772e-07
2.54217e-07
0.00114693
-3.34977e-07
1.19109e-06
1.91188e-07
8.08178e-07
-3.4007e-07
-1.01059e-06
1.42358e-07
-0.00114663
-1.34212e-06
5.24075e-07
2.5428e-07
0.00114656
-3.32344e-07
1.18535e-06
1.88161e-07
8.07951e-07
-3.42663e-07
-1.01053e-06
1.45078e-07
-0.000273985
1.37692e-06
1.34216e-06
-3.14556e-07
-3.20033e-07
0.000271901
-5.0007e-07
-5.00164e-07
-0.00118211
3.15673e-07
3.1628e-07
0.00118247
-0.00114666
-1.33666e-06
5.00125e-07
2.36831e-07
0.00114657
-3.25896e-07
1.19463e-06
1.95492e-07
8.12718e-07
-3.29896e-07
-9.98746e-07
1.47822e-07
-0.00114629
-1.33099e-06
4.99955e-07
2.36803e-07
0.0011462
-3.23008e-07
1.18911e-06
1.9276e-07
8.12582e-07
-3.32402e-07
-9.98488e-07
1.50578e-07
-0.000273728
1.36582e-06
1.33121e-06
-3.05388e-07
-3.10688e-07
0.000271647
-4.75297e-07
-4.75203e-07
-0.00118353
3.0736e-07
3.08237e-07
0.00118386
-0.00114625
-1.32604e-06
4.75775e-07
2.1949e-07
0.00114613
-3.17187e-07
1.19808e-06
1.99624e-07
8.17403e-07
-3.19971e-07
-9.86983e-07
1.53258e-07
-0.00114588
-1.32037e-06
4.7482e-07
2.18986e-07
0.00114577
-3.14265e-07
1.19256e-06
1.96934e-07
8.17657e-07
-3.22312e-07
-9.86562e-07
1.5628e-07
-0.000273479
1.35518e-06
1.32055e-06
-2.96461e-07
-3.01846e-07
0.000271401
-4.50631e-07
-4.51017e-07
-0.00118482
2.99527e-07
2.997e-07
0.00118512
-0.00114578
-1.3158e-06
4.50287e-07
2.00968e-07
0.00114565
-3.08669e-07
1.20148e-06
2.0381e-07
8.22394e-07
-3.10339e-07
-9.75713e-07
1.58825e-07
-0.00114541
-1.31021e-06
4.51034e-07
2.00793e-07
0.00114528
-3.05833e-07
1.19593e-06
2.01133e-07
8.21931e-07
-3.13193e-07
-9.76025e-07
1.61314e-07
-0.000273238
1.3452e-06
1.31033e-06
-2.88094e-07
-2.93715e-07
0.000271164
-4.2513e-07
-4.25287e-07
-0.00118598
2.89471e-07
2.90184e-07
0.00118625
-0.00114525
-1.30625e-06
4.25503e-07
1.83312e-07
0.00114512
-3.00771e-07
1.20454e-06
2.07782e-07
8.26193e-07
-3.01634e-07
-9.65849e-07
1.63587e-07
-0.00114488
-1.30078e-06
4.25139e-07
1.83792e-07
0.00114475
-2.98181e-07
1.1988e-06
2.04756e-07
8.2589e-07
-3.0411e-07
-9.65681e-07
1.66337e-07
-0.000273006
1.33529e-06
1.30086e-06
-2.80516e-07
-2.85708e-07
0.000270936
-3.9959e-07
-4.11102e-07
-0.00118701
2.79959e-07
2.80448e-07
0.00118726
-0.00114469
-1.29741e-06
3.99692e-07
1.67375e-07
0.00114455
-2.93695e-07
1.20696e-06
2.10762e-07
8.30322e-07
-2.92935e-07
-9.55865e-07
1.68489e-07
-0.00114433
-1.29158e-06
3.99424e-07
1.66601e-07
0.00114418
-2.90617e-07
1.20163e-06
2.08308e-07
8.30237e-07
-2.95532e-07
-9.55654e-07
1.71224e-07
-0.000272785
1.32641e-06
1.29175e-06
-2.73193e-07
-2.78578e-07
0.000270718
-3.73316e-07
-3.73383e-07
-0.00118793
2.68901e-07
2.69444e-07
0.00118814
-0.00114411
-1.28835e-06
3.73307e-07
1.49656e-07
0.00114396
-2.83216e-07
1.21012e-06
2.12097e-07
8.3425e-07
-2.84781e-07
-9.46534e-07
1.73181e-07
-0.00114374
-1.28295e-06
3.73347e-07
1.49999e-07
0.00114359
-2.83409e-07
1.20437e-06
2.11978e-07
8.34062e-07
-2.87387e-07
-9.46405e-07
1.75885e-07
-0.000272573
1.3177e-06
1.28316e-06
-2.66383e-07
-2.71707e-07
0.00027051
-3.48671e-07
-3.48838e-07
-0.00118872
2.58613e-07
2.59171e-07
0.0011889
-0.00114351
-1.28097e-06
3.48825e-07
1.35164e-07
0.00114336
-2.77445e-07
1.21194e-06
2.14772e-07
8.37555e-07
-2.77438e-07
-9.37988e-07
1.76989e-07
-0.00114314
-1.27531e-06
3.48484e-07
1.34996e-07
0.00114299
-2.77395e-07
1.20637e-06
2.14751e-07
8.37438e-07
-2.79995e-07
-9.37802e-07
1.79789e-07
-0.00027237
1.30994e-06
1.27544e-06
-2.60489e-07
-2.65764e-07
0.000270311
-3.22271e-07
-3.22144e-07
-0.00118939
2.46648e-07
2.46969e-07
0.00118954
-0.0011429
-1.27361e-06
3.22029e-07
1.22856e-07
0.00114274
-2.72167e-07
1.21323e-06
2.1591e-07
8.419e-07
-2.69159e-07
-9.28772e-07
1.82059e-07
-0.00114253
-1.268e-06
3.22019e-07
1.2273e-07
0.00114237
-2.72046e-07
1.20769e-06
2.16029e-07
8.41695e-07
-2.71814e-07
-9.28696e-07
1.84747e-07
-0.000272179
1.30273e-06
1.26811e-06
-2.5458e-07
-2.59972e-07
0.000270122
-2.91788e-07
-2.92106e-07
-0.00118996
2.30915e-07
2.3152e-07
0.00119008
-0.00114228
-1.26417e-06
2.92452e-07
1.01666e-07
0.00114213
-2.62606e-07
1.21801e-06
2.22666e-07
8.45038e-07
-2.62985e-07
-9.21605e-07
1.85863e-07
-0.00114191
-1.25856e-06
2.92179e-07
1.01488e-07
0.00114176
-2.62567e-07
1.21248e-06
2.22713e-07
8.44904e-07
-2.65565e-07
-9.21442e-07
1.88603e-07
-0.000271996
1.29331e-06
1.25885e-06
-2.47421e-07
-2.52695e-07
0.000269944
-2.77544e-07
-2.77562e-07
-0.00119041
2.257e-07
2.25862e-07
0.00119051
-0.00114167
-1.262e-06
2.76982e-07
1.00827e-07
0.00114152
-2.63016e-07
1.2152e-06
2.20042e-07
8.4662e-07
-2.56996e-07
-9.14549e-07
1.87649e-07
-0.0011413
-1.25658e-06
2.77162e-07
1.00639e-07
0.00114115
-2.63006e-07
1.2096e-06
2.20141e-07
8.46437e-07
-2.59592e-07
-9.14441e-07
1.90351e-07
-0.000271822
1.29101e-06
1.25646e-06
-2.4617e-07
-2.51497e-07
0.000269772
-2.33812e-07
-2.32735e-07
-0.00119077
1.9899e-07
1.99374e-07
0.00119084
-0.00114107
-1.24957e-06
2.33788e-07
7.28059e-08
0.00114092
-2.51291e-07
1.22215e-06
2.27414e-07
8.52701e-07
-2.48237e-07
-9.05496e-07
1.94908e-07
-0.0011407
-1.244e-06
2.32532e-07
7.34517e-08
0.00114055
-2.51399e-07
1.21629e-06
2.27149e-07
8.5279e-07
-2.507e-07
-9.05161e-07
1.97879e-07
-0.000271663
1.27851e-06
1.2441e-06
-2.36047e-07
-2.41249e-07
0.000269618
5.22146e-06
5.23231e-06
0.000260567
-0.000259171
-5.93189e-06
-5.91777e-06
5.08158e-06
0.000261409
-0.000258686
-5.96204e-06
3.37916e-06
-5.22153e-06
5.07656e-06
0.000261442
-0.000258702
-5.97005e-06
3.37432e-06
5.22214e-06
0.000260579
-0.000259173
-5.90328e-06
-5.94651e-06
5.07467e-06
0.000261473
-0.000258717
-5.96755e-06
3.369e-06
5.0814e-06
-5.22378e-06
0.000261417
-0.000258686
3.38421e-06
-5.97225e-06
1.07111e-05
1.06174e-05
-0.000252649
-0.000256079
-0.000255118
-0.000255118
-6.41734e-06
-4.12515e-06
-6.6623e-06
-6.41771e-06
-4.12609e-06
-6.66784e-06
-5.06963e-06
0.00104223
1.06707e-05
1.06227e-05
-0.000252651
-0.000256076
-0.000255121
-0.000255121
-6.41996e-06
-4.12544e-06
-6.66504e-06
-6.41517e-06
-4.12087e-06
-6.66025e-06
-5.06927e-06
0.00104211
1.0731e-05
1.06833e-05
-0.000252643
-0.000256071
-0.000255118
-0.000255113
-6.41981e-06
-4.13282e-06
-6.66497e-06
-6.42001e-06
-4.12309e-06
-6.66258e-06
-5.08397e-06
-5.07209e-06
0.00104217
1.07263e-05
1.06276e-05
-0.000252646
-0.000256074
-0.000255118
-0.000255118
-6.4147e-06
-4.12777e-06
-6.65997e-06
-6.42014e-06
-4.12593e-06
-6.6653e-06
-0.000258712
-5.95991e-06
3.36394e-06
-5.22138e-06
0.000261404
-0.000258684
3.37919e-06
-5.96198e-06
5.22453e-06
0.000260559
-0.000259158
-5.90559e-06
-5.94373e-06
-0.000258697
3.37148e-06
-5.95704e-06
-5.23228e-06
0.000261471
-0.000258712
3.36649e-06
-5.96502e-06
-0.000259168
-5.93177e-06
-5.9178e-06
5.61757e-06
5.65479e-06
-4.87838e-06
-4.87223e-06
0.000259045
-7.80479e-07
-7.446e-07
0.000261544
-0.000259462
-2.8225e-07
-2.74857e-07
7.09202e-06
0.00105882
-4.53008e-06
-1.57833e-06
-2.21273e-06
-2.57666e-06
-6.60588e-06
-7.05009e-06
-3.17074e-06
-0.000263264
-0.000259684
-0.000262793
-5.62803e-06
1.4555e-05
7.03144e-06
0.00105919
-4.54921e-06
-1.57072e-06
-2.21588e-06
-2.58757e-06
-6.6374e-06
-7.067e-06
-3.18641e-06
-0.000263338
-0.000259715
-0.000262834
0.00106192
2.02401e-06
-0.00106086
9.73754e-07
-1.71809e-06
-1.69115e-07
-6.92243e-07
-1.46543e-06
-3.07553e-07
-8.28051e-07
3.43225e-07
7.8856e-07
0.00106234
2.02437e-06
-0.00106128
9.68689e-07
-1.7285e-06
-1.61621e-07
-6.97737e-07
-1.47114e-06
-3.07702e-07
-8.2842e-07
3.48641e-07
-4.87646e-06
-4.86912e-06
0.000259055
-7.47274e-07
0.000261569
-0.000259482
-2.79605e-07
-2.71991e-07
6.81326e-06
0.00105966
-4.55437e-06
-1.63766e-06
-2.22893e-06
-2.58587e-06
-6.61991e-06
-7.06238e-06
-3.18164e-06
-0.000263359
-0.000259742
-0.000262847
-5.62773e-06
1.45894e-05
7.12547e-06
0.00105896
-4.54903e-06
-1.58079e-06
-2.2209e-06
-2.58953e-06
-6.6367e-06
-7.06587e-06
-3.18603e-06
-0.000259684
-0.000263315
-0.000262806
0.00106294
2.03159e-06
-0.00106187
9.62251e-07
-1.68817e-06
-1.71623e-07
-6.92521e-07
-1.46847e-06
-3.07665e-07
-8.25818e-07
3.45599e-07
7.7794e-07
0.00106203
2.0346e-06
-0.00106099
9.84066e-07
-1.71815e-06
-1.66661e-07
-6.9244e-07
-1.46825e-06
-3.05089e-07
-8.30806e-07
3.43167e-07
1.45864e-05
7.11279e-06
0.00105877
-4.53002e-06
-1.57822e-06
-2.2101e-06
-2.57669e-06
-6.60589e-06
-3.17079e-06
-7.04777e-06
-0.000259679
-0.000263259
-0.000262788
2.03091e-06
-0.00106161
9.67484e-07
-1.68807e-06
-1.68951e-07
-6.89597e-07
-1.46576e-06
-3.10036e-07
3.40409e-07
-8.25543e-07
7.77912e-07
0.00106182
2.03422e-06
-0.00106078
9.841e-07
-1.71806e-06
-1.66554e-07
-6.92193e-07
-1.46811e-06
-3.07527e-07
-8.28004e-07
3.45758e-07
-4.88129e-06
-4.8689e-06
0.000259035
-7.39132e-07
0.000261521
-0.000259444
-2.8265e-07
-2.77215e-07
1.44875e-05
6.83175e-06
0.00105961
-4.55451e-06
-1.63767e-06
-2.22899e-06
-2.58569e-06
-6.61978e-06
-3.18153e-06
-7.05965e-06
-0.000259732
-0.000263356
-0.000262842
2.03595e-06
-0.00106131
9.83009e-07
-1.68559e-06
-1.71495e-07
-6.92272e-07
-1.46262e-06
-3.05021e-07
3.4045e-07
-8.28067e-07
7.39224e-07
0.00106284
2.03659e-06
-0.00106179
9.72567e-07
-1.68313e-06
-1.71657e-07
-6.89936e-07
-1.4657e-06
-3.07505e-07
-8.28232e-07
3.40609e-07
-0.000259459
-2.79787e-07
-2.77436e-07
1.63935e-06
1.60414e-06
-7.10552e-07
-7.19022e-07
0.00025973
-8.66338e-07
-8.27644e-07
0.000262778
-0.000260667
-2.1261e-07
-2.05037e-07
8.29639e-07
0.00106319
-6.56429e-07
8.17754e-07
-1.43309e-07
3.78169e-07
-8.00564e-07
-1.39714e-06
-2.90465e-07
-1.64463e-06
1.63226e-06
8.24414e-07
0.00106362
-6.59285e-07
8.2583e-07
-1.4331e-07
3.83592e-07
-8.03535e-07
-1.40283e-06
-2.88164e-07
0.00106713
1.38301e-06
-0.0010658
7.02155e-07
-1.59182e-06
-1.0348e-07
-6.28662e-07
-1.35465e-06
-2.49029e-07
-7.76787e-07
4.22398e-07
8.71705e-07
0.00106757
1.38327e-06
-0.00106623
6.97074e-07
-1.59714e-06
-1.03593e-07
-6.28881e-07
-1.35764e-06
-2.49146e-07
-7.77139e-07
4.25201e-07
-7.11044e-07
-7.18353e-07
0.000259748
-8.32904e-07
0.000262804
-0.000260679
-2.12644e-07
-2.07532e-07
8.23145e-07
0.00106421
-6.54067e-07
7.81854e-07
-1.45763e-07
3.80615e-07
-8.03606e-07
-1.40028e-06
-2.88108e-07
-1.63935e-06
1.63749e-06
8.29701e-07
0.0010633
-6.59272e-07
8.17856e-07
-1.43354e-07
3.78182e-07
-8.03265e-07
-1.39733e-06
-2.87991e-07
0.00106816
1.38438e-06
-0.00106684
7.01114e-07
-1.5539e-06
-1.08413e-07
-6.2366e-07
-1.35235e-06
-2.46605e-07
-7.77128e-07
4.25051e-07
8.6116e-07
0.00106725
1.38302e-06
-0.00106591
7.02227e-07
-1.58924e-06
-1.05977e-07
-6.28833e-07
-1.35478e-06
-2.49004e-07
-7.76842e-07
4.25164e-07
1.63205e-06
8.29732e-07
0.0010631
-6.59052e-07
8.15183e-07
-1.45747e-07
3.78104e-07
-8.03187e-07
-2.88024e-07
-1.39723e-06
1.38398e-06
-0.00106657
7.06468e-07
-1.56169e-06
-1.10827e-07
-6.23494e-07
-1.35226e-06
-2.46628e-07
4.24916e-07
-7.76935e-07
8.63724e-07
0.00106704
1.37772e-06
-0.0010657
7.02251e-07
-1.58914e-06
-1.05926e-07
-6.28633e-07
-1.35472e-06
-2.49058e-07
-7.76788e-07
4.22412e-07
-7.13814e-07
-7.15796e-07
0.000259709
-8.24875e-07
0.000262753
-0.000260646
-2.12761e-07
-2.07415e-07
1.63355e-06
8.18032e-07
0.00106413
-6.54123e-07
7.76436e-07
-1.50876e-07
3.75478e-07
-8.00818e-07
-2.92945e-07
-1.39476e-06
1.38396e-06
-0.00106625
7.01379e-07
-1.55119e-06
-1.10749e-07
-6.23489e-07
-1.34669e-06
-2.49044e-07
4.1685e-07
-7.76857e-07
8.27517e-07
0.00106807
1.38437e-06
-0.00106674
7.01189e-07
-1.55137e-06
-1.10972e-07
-6.23731e-07
-1.35492e-06
-2.49054e-07
-7.79718e-07
4.22385e-07
-0.000260654
-2.127e-07
-2.07615e-07
1.58995e-06
1.55721e-06
-6.72234e-07
-6.8057e-07
0.000260984
-8.90426e-07
-8.54213e-07
0.00026406
-0.000261937
-1.91745e-07
-1.86681e-07
6.91226e-07
0.00106848
-6.29685e-07
8.72045e-07
-9.93254e-08
4.24548e-07
-7.77647e-07
-1.35445e-06
-2.47561e-07
-1.59533e-06
1.36146e-06
7.01853e-07
0.00106891
-6.29928e-07
8.77474e-07
-9.93445e-08
4.30077e-07
-7.80607e-07
-1.36007e-06
-2.42703e-07
0.00107249
1.34955e-06
-0.00107117
6.75853e-07
-1.58992e-06
-8.5672e-08
-6.24955e-07
-1.36701e-06
-2.29897e-07
-7.78126e-07
4.33869e-07
8.95872e-07
0.00107292
1.34983e-06
-0.00107159
6.76049e-07
-1.59524e-06
-8.32655e-08
-6.27709e-07
-1.37531e-06
-2.25001e-07
-7.83689e-07
4.42111e-07
-6.75305e-07
-6.77516e-07
0.000261005
-8.56881e-07
0.000264088
-0.000261962
-1.89139e-07
-1.83932e-07
6.90237e-07
0.00106952
-6.27343e-07
8.35963e-07
-1.04253e-07
4.27165e-07
-7.80578e-07
-1.36003e-06
-2.42656e-07
-1.58739e-06
1.3613e-06
6.96591e-07
0.00106859
-6.29971e-07
8.69509e-07
-9.92702e-08
4.27309e-07
-7.80289e-07
-1.3572e-06
-2.42523e-07
0.00107352
1.35087e-06
-0.0010722
6.74864e-07
-1.5544e-06
-8.81106e-08
-6.22556e-07
-1.36995e-06
-2.24953e-07
-7.83693e-07
4.36543e-07
8.9063e-07
0.0010726
1.34961e-06
-0.00107127
6.75981e-07
-1.58999e-06
-8.29623e-08
-6.27824e-07
-1.36968e-06
-2.24848e-07
-7.83357e-07
4.36623e-07
1.36626e-06
6.91336e-07
0.00106839
-6.27036e-07
8.66804e-07
-1.0417e-07
4.27186e-07
-7.80245e-07
-2.45099e-07
-1.35716e-06
1.35052e-06
-0.00107193
6.74963e-07
-1.55694e-06
-8.80175e-08
-6.22285e-07
-1.36724e-06
-2.27484e-07
4.33747e-07
-7.8093e-07
8.85128e-07
0.0010724
1.34942e-06
-0.00107107
6.75927e-07
-1.58458e-06
-8.80437e-08
-6.22058e-07
-1.36708e-06
-2.27464e-07
-7.80714e-07
4.33827e-07
-6.75466e-07
-6.80106e-07
0.000260969
-8.51583e-07
0.000264039
-0.000261921
-1.91591e-07
-1.83708e-07
1.36252e-06
6.95531e-07
0.00106942
-6.22129e-07
8.27951e-07
-1.0918e-07
4.24577e-07
-7.77906e-07
-2.45111e-07
-1.35476e-06
1.35041e-06
-0.0010716
6.75031e-07
-1.55171e-06
-9.02085e-08
-6.19763e-07
-1.36694e-06
-2.24948e-07
4.33736e-07
-7.83392e-07
8.51466e-07
0.00107344
1.35085e-06
-0.00107211
6.74872e-07
-1.55181e-06
-9.05562e-08
-6.198e-07
-1.3647e-06
-2.27471e-07
-7.81005e-07
4.31215e-07
-0.000261934
-1.89216e-07
-1.84019e-07
1.58846e-06
1.5529e-06
-6.61762e-07