/*--------------------------------*- C++ -*----------------------------------*\
| =========                 |                                                 |
| \\      /  F ield         | OpenFOAM: The Open Source CFD Toolbox           |
|  \\    /   O peration     | Version:  v2012                                 |
|   \\  /    A nd           | Website:  www.openfoam.com                      |
|    \\/     M anipulation  |                                                 |
\*---------------------------------------------------------------------------*/
FoamFile
{
    version     2.0;
    format      ascii;
    class       volVectorField;
    location    "250";
    object      U;
}
// * * * * * * * * * * * * * * * * * * * * * * * * * * * * * * * * * * * * * //

dimensions      [0 1 -1 0 0 0 0];


internalField   nonuniform List<vector> 
85864
(
(0.000107958 0.000107892 0.100299)
(-0.000190195 0.00011927 0.100385)
(0.000119341 -0.000190187 0.100385)
(-0.000239593 -0.000239612 0.100397)
(9.42792e-05 9.42318e-05 0.10086)
(-0.000158939 9.68065e-05 0.100942)
(9.68113e-05 -0.000158935 0.100942)
(-0.000201044 -0.000201096 0.100968)
(9.54251e-05 9.54131e-05 0.10137)
(-0.000155796 9.34669e-05 0.101449)
(9.34556e-05 -0.000155803 0.101449)
(-0.000201995 -0.000202047 0.101471)
(9.38829e-05 9.38732e-05 0.101892)
(-0.000152046 9.00868e-05 0.101957)
(9.00996e-05 -0.00015205 0.101957)
(-0.000198964 -0.000199008 0.101964)
(9.11255e-05 9.11255e-05 0.102398)
(-0.000146289 8.5573e-05 0.102446)
(8.55818e-05 -0.000146292 0.102446)
(-0.000193588 -0.000193648 0.102432)
(8.81455e-05 8.81534e-05 0.102885)
(-0.000140626 8.16023e-05 0.102912)
(8.16242e-05 -0.000140635 0.102912)
(-0.000188079 -0.000188126 0.10287)
(8.53272e-05 8.53451e-05 0.103353)
(-0.000135499 7.84001e-05 0.103354)
(7.84266e-05 -0.000135502 0.103354)
(-0.000183808 -0.000183855 0.10328)
(8.28495e-05 8.28584e-05 0.103803)
(-0.000131067 7.59586e-05 0.103774)
(7.59843e-05 -0.000131066 0.103774)
(-0.000180282 -0.000180356 0.103663)
(8.06624e-05 8.06298e-05 0.104237)
(-0.000127328 7.42409e-05 0.104174)
(7.4248e-05 -0.00012733 0.104174)
(-0.000177841 -0.00017791 0.104023)
(7.8696e-05 7.86676e-05 0.104658)
(-0.000124139 7.29514e-05 0.104557)
(7.2851e-05 -0.000124068 0.104557)
(-0.000177071 -0.000177109 0.104358)
(7.71412e-05 7.7115e-05 0.105066)
(-0.000121129 7.15809e-05 0.104925)
(7.18231e-05 -0.00012128 0.104924)
(-0.000175855 -0.000175932 0.104674)
(7.54864e-05 7.54768e-05 0.105464)
(-0.000118648 7.05115e-05 0.105277)
(7.029e-05 -0.000118412 0.105277)
(-0.000176721 -0.000176787 0.104965)
(7.40354e-05 7.4016e-05 0.105851)
(-0.000116328 6.94919e-05 0.105615)
(6.92443e-05 -0.000116204 0.105615)
(-0.000175874 -0.000175989 0.105241)
(7.26244e-05 7.26595e-05 0.106229)
(-0.000113923 6.83484e-05 0.105938)
(6.78312e-05 -0.000113649 0.105939)
(-0.000175883 -0.00017589 0.10549)
(7.15128e-05 7.14588e-05 0.106598)
(-0.00011145 6.68621e-05 0.106248)
(6.73126e-05 -0.00011166 0.106248)
(-0.000174739 -0.000174795 0.105721)
(6.9682e-05 6.97139e-05 0.106957)
(-0.000109594 6.63801e-05 0.106542)
(6.62039e-05 -0.000109575 0.106542)
(-0.000170793 -0.000170791 0.105927)
(6.82853e-05 6.82726e-05 0.107307)
(-0.000107498 6.53146e-05 0.106822)
(6.56185e-05 -0.000107604 0.106822)
(-0.000171525 -0.000171556 0.106106)
(6.68409e-05 6.68654e-05 0.107649)
(-0.000105428 6.41875e-05 0.107086)
(6.3891e-05 -0.000105241 0.107086)
(-0.000171932 -0.00017198 0.106262)
(6.53534e-05 6.53811e-05 0.107982)
(-0.00010357 6.31386e-05 0.107334)
(6.28023e-05 -0.000103327 0.107334)
(-0.000169879 -0.000169924 0.106393)
(6.38055e-05 6.38257e-05 0.108306)
(-0.000101666 6.2087e-05 0.107565)
(6.17753e-05 -0.000101428 0.107565)
(-0.000167033 -0.00016709 0.106496)
(6.22635e-05 6.22805e-05 0.108622)
(-9.96337e-05 6.10048e-05 0.107779)
(6.09995e-05 -9.95507e-05 0.107779)
(-0.000163451 -0.000163517 0.106572)
(6.07878e-05 6.08101e-05 0.108928)
(-9.73642e-05 5.98083e-05 0.107975)
(6.0117e-05 -9.7469e-05 0.107974)
(-0.000158922 -0.000158977 0.106621)
(5.93453e-05 5.93582e-05 0.109226)
(-9.49429e-05 5.87758e-05 0.108152)
(5.89399e-05 -9.50597e-05 0.108152)
(-0.000154027 -0.000154092 0.106644)
(5.7878e-05 5.78868e-05 0.109515)
(-9.24871e-05 5.77107e-05 0.108311)
(5.77808e-05 -9.2543e-05 0.108311)
(-0.000149195 -0.000149227 0.106643)
(5.63639e-05 5.63833e-05 0.109794)
(-8.98654e-05 5.66619e-05 0.108451)
(5.66267e-05 -8.98651e-05 0.108451)
(-0.00014422 -0.000144233 0.106619)
(5.49146e-05 5.49313e-05 0.110064)
(-8.70849e-05 5.55413e-05 0.108572)
(5.54417e-05 -8.70481e-05 0.108572)
(-0.000138967 -0.000138987 0.106575)
(5.3516e-05 5.35326e-05 0.110324)
(-8.41053e-05 5.41697e-05 0.108675)
(5.4126e-05 -8.40863e-05 0.108675)
(-0.000133232 -0.000133252 0.106515)
(5.21922e-05 5.22072e-05 0.110574)
(-8.09515e-05 5.25586e-05 0.10876)
(5.26061e-05 -8.09809e-05 0.108759)
(-0.000127234 -0.00012726 0.10644)
(5.09733e-05 5.09964e-05 0.110813)
(-7.77131e-05 5.08589e-05 0.108827)
(5.08163e-05 -7.77076e-05 0.108826)
(-0.000121321 -0.000121337 0.106355)
(4.97882e-05 4.98033e-05 0.111042)
(-7.43208e-05 4.88773e-05 0.108877)
(4.87979e-05 -7.42919e-05 0.108877)
(-0.000115486 -0.000115509 0.106261)
(4.86423e-05 4.86584e-05 0.11126)
(-7.08044e-05 4.67218e-05 0.108912)
(4.67459e-05 -7.08207e-05 0.108911)
(-0.000109786 -0.00010981 0.106162)
(4.74068e-05 4.74236e-05 0.111466)
(-6.72476e-05 4.46275e-05 0.108932)
(4.45374e-05 -6.7219e-05 0.108931)
(-0.000104356 -0.00010437 0.10606)
(4.62427e-05 4.62552e-05 0.111661)
(-6.35236e-05 4.21426e-05 0.108939)
(4.21911e-05 -6.35652e-05 0.108938)
(-9.88286e-05 -9.88546e-05 0.105956)
(4.52064e-05 4.52338e-05 0.111843)
(-5.99835e-05 3.97274e-05 0.108933)
(3.96665e-05 -5.99543e-05 0.108933)
(-9.39349e-05 -9.39677e-05 0.105852)
(4.41603e-05 4.41724e-05 0.112014)
(-5.64567e-05 3.72845e-05 0.108918)
(3.72344e-05 -5.64177e-05 0.108917)
(-8.91469e-05 -8.91775e-05 0.10575)
(4.30528e-05 4.30634e-05 0.112172)
(-5.28974e-05 3.4715e-05 0.108892)
(3.47263e-05 -5.29536e-05 0.108892)
(-8.45475e-05 -8.46022e-05 0.10565)
(4.19715e-05 4.1995e-05 0.112318)
(-4.95704e-05 3.22455e-05 0.108859)
(3.22264e-05 -4.95721e-05 0.108858)
(-8.0323e-05 -8.03174e-05 0.105553)
(4.08e-05 4.08475e-05 0.112452)
(-4.62065e-05 2.98213e-05 0.108819)
(2.97666e-05 -4.60862e-05 0.108818)
(-7.62491e-05 -7.62763e-05 0.105458)
(3.96556e-05 3.96456e-05 0.112573)
(-4.27696e-05 2.73482e-05 0.108773)
(2.73123e-05 -4.28452e-05 0.108772)
(-7.24205e-05 -7.25379e-05 0.105368)
(3.8214e-05 3.82451e-05 0.112682)
(-3.95848e-05 2.49605e-05 0.108723)
(2.50053e-05 -3.95656e-05 0.108722)
(-6.89385e-05 -6.88752e-05 0.105281)
(3.67844e-05 3.68037e-05 0.112779)
(-3.63843e-05 2.28433e-05 0.10867)
(2.27445e-05 -3.63585e-05 0.108669)
(-6.55781e-05 -6.56228e-05 0.105197)
(3.51769e-05 3.52037e-05 0.112864)
(-3.31975e-05 2.04591e-05 0.108614)
(2.04916e-05 -3.32011e-05 0.108613)
(-6.24811e-05 -6.2487e-05 0.105118)
(3.36049e-05 3.36253e-05 0.112937)
(-3.03506e-05 1.85533e-05 0.108557)
(1.85343e-05 -3.03283e-05 0.108556)
(-5.97301e-05 -5.97241e-05 0.105042)
(3.18124e-05 3.18326e-05 0.113)
(-2.73507e-05 1.69891e-05 0.108498)
(1.69647e-05 -2.73521e-05 0.108497)
(-5.701e-05 -5.70561e-05 0.10497)
(2.96139e-05 2.96226e-05 0.113052)
(-2.41531e-05 1.41014e-05 0.10844)
(1.40801e-05 -2.41409e-05 0.108439)
(-5.37534e-05 -5.37494e-05 0.104902)
(2.86187e-05 2.86244e-05 0.113094)
(-2.25252e-05 1.40371e-05 0.108382)
(1.40081e-05 -2.25234e-05 0.108381)
(-5.29965e-05 -5.30251e-05 0.104837)
(2.50104e-05 2.50476e-05 0.113127)
(-1.8278e-05 1.03865e-05 0.108325)
(1.04463e-05 -1.81185e-05 0.108324)
(-4.84996e-05 -4.84742e-05 0.104778)
(0.000134959 0.000134949 0.100282)
(0.000124248 0.000152867 0.100229)
(-0.00012424 0.000152848 0.100229)
(-0.000134955 0.000134916 0.100282)
(0.000152896 0.0001242 0.100229)
(0.000152868 -0.000124217 0.100229)
(9.08046e-05 9.0753e-05 0.100151)
(-9.07948e-05 9.07503e-05 0.100151)
(9.07789e-05 -9.07987e-05 0.100151)
(-9.07765e-05 -9.07968e-05 0.100151)
(-0.000152891 0.000124196 0.100229)
(-0.000152878 -0.000124213 0.100229)
(0.000134948 -0.000134967 0.100282)
(0.000124201 -0.000152897 0.100229)
(-0.000124197 -0.00015288 0.100229)
(-0.000134957 -0.000134941 0.100282)
(0.000239636 0.000239615 0.100397)
(0.000111305 0.000111179 0.100892)
(0.000119392 0.000190088 0.100385)
(-0.000119343 0.000190129 0.100385)
(8.91025e-05 0.000147213 0.100823)
(-8.90639e-05 0.00014721 0.100823)
(-0.000239646 0.000239564 0.100397)
(-0.000111267 0.000111147 0.100892)
(0.000190231 0.000119289 0.100385)
(0.000190169 -0.000119349 0.100385)
(0.000147189 8.90739e-05 0.100823)
(0.000147222 -8.9095e-05 0.100823)
(-0.000190151 -0.000119353 0.100385)
(-0.000147158 8.9075e-05 0.100823)
(-0.00014718 -8.90891e-05 0.100823)
(0.000239568 -0.000239658 0.100397)
(0.000111258 -0.000111271 0.100892)
(-0.000119321 -0.000190216 0.100385)
(8.9076e-05 -0.000147148 0.100823)
(-8.90555e-05 -0.000147174 0.100823)
(-0.000111256 -0.000111275 0.100892)
(0.000201133 0.000200967 0.100968)
(0.000105721 0.00010564 0.101395)
(9.68199e-05 0.000158993 0.100941)
(-9.67928e-05 0.000158989 0.100941)
(9.41997e-05 0.000156671 0.10132)
(-9.41998e-05 0.000156672 0.10132)
(-0.000201095 0.000200933 0.100967)
(-0.000105709 0.000105632 0.101395)
(0.000158972 9.68005e-05 0.100942)
(0.00015899 -9.6813e-05 0.100942)
(0.000156627 9.42039e-05 0.10132)
(0.000156667 -9.42064e-05 0.10132)
(-0.000158967 -9.68079e-05 0.100942)
(-0.000156624 9.42126e-05 0.10132)
(-0.000156645 -9.41973e-05 0.10132)
(0.000201042 -0.000201105 0.100968)
(0.000105663 -0.000105676 0.101395)
(-9.67932e-05 -0.000158961 0.100942)
(9.42001e-05 -0.000156624 0.10132)
(-9.42067e-05 -0.000156644 0.10132)
(-0.000105696 -0.000105702 0.101395)
(0.000202054 0.000201926 0.101471)
(9.66461e-05 9.65869e-05 0.101893)
(9.34493e-05 0.000155854 0.101449)
(-9.34541e-05 0.000155851 0.101449)
(9.1147e-05 0.000153335 0.101832)
(-9.11362e-05 0.000153326 0.101832)
(-0.00020205 0.000201918 0.101471)
(-9.66294e-05 9.65834e-05 0.101893)
(0.000155804 9.3463e-05 0.101449)
(0.000155844 -9.34574e-05 0.101449)
(0.000153277 9.11498e-05 0.101832)
(0.000153309 -9.11326e-05 0.101832)
(-0.000155827 -9.34516e-05 0.101449)
(-0.000153273 9.11426e-05 0.101832)
(-0.000153311 -9.11396e-05 0.101832)
(0.000201994 -0.000202071 0.101471)
(9.6537e-05 -9.65715e-05 0.101893)
(-9.34641e-05 -0.000155826 0.101449)
(9.11477e-05 -0.000153274 0.101832)
(-9.11401e-05 -0.000153285 0.101832)
(-9.66492e-05 -9.66504e-05 0.101893)
(0.000198926 0.000198824 0.101964)
(8.60972e-05 8.60522e-05 0.102366)
(9.00969e-05 0.000152111 0.101957)
(-9.00826e-05 0.000152099 0.101957)
(8.66968e-05 0.000147835 0.102326)
(-8.66779e-05 0.000147824 0.102326)
(-0.000198945 0.000198836 0.101964)
(-8.59869e-05 8.59481e-05 0.102366)
(0.000152054 9.00983e-05 0.101957)
(0.000152083 -9.00806e-05 0.101957)
(0.000147779 8.66958e-05 0.102326)
(0.000147809 -8.66757e-05 0.102326)
(-0.000152085 -9.00832e-05 0.101957)
(-0.000147769 8.66811e-05 0.102326)
(-0.000147814 -8.66805e-05 0.102326)
(0.000198885 -0.000198982 0.101964)
(8.60785e-05 -8.61118e-05 0.102366)
(-9.00825e-05 -0.000152055 0.101957)
(8.67003e-05 -0.000147776 0.102326)
(-8.66761e-05 -0.000147774 0.102326)
(-8.60523e-05 -8.60526e-05 0.102366)
(0.000193632 0.000193538 0.102432)
(7.61684e-05 7.61324e-05 0.102812)
(8.55706e-05 0.000146348 0.102446)
(-8.55688e-05 0.000146348 0.102446)
(8.25321e-05 0.000142064 0.102797)
(-8.25176e-05 0.000142065 0.102797)
(-0.000193605 0.000193508 0.102431)
(-7.6124e-05 7.60915e-05 0.102812)
(0.000146291 8.55719e-05 0.102446)
(0.000146324 -8.55542e-05 0.102446)
(0.000142007 8.25321e-05 0.102798)
(0.00014203 -8.24946e-05 0.102798)
(-0.000146332 -8.55636e-05 0.102446)
(-0.000142 8.25234e-05 0.102798)
(-0.000142044 -8.25103e-05 0.102798)
(0.000193491 -0.000193593 0.102432)
(7.59866e-05 -7.60296e-05 0.102812)
(-8.55619e-05 -0.000146287 0.102446)
(8.25275e-05 -0.000141998 0.102798)
(-8.25059e-05 -0.000141994 0.102798)
(-7.60745e-05 -7.60851e-05 0.102812)
(0.000188162 0.000188075 0.102871)
(6.69896e-05 6.6947e-05 0.103229)
(8.15966e-05 0.000140684 0.102912)
(-8.15969e-05 0.000140694 0.102912)
(7.91325e-05 0.000136775 0.103245)
(-7.90972e-05 0.000136767 0.103245)
(-0.000188136 0.000188052 0.102871)
(-6.69347e-05 6.69206e-05 0.103229)
(0.000140628 8.15993e-05 0.102912)
(0.000140667 -8.1585e-05 0.102912)
(0.000136724 7.91323e-05 0.103245)
(0.000136744 -7.90862e-05 0.103245)
(-0.000140676 -8.15988e-05 0.102912)
(-0.000136706 7.91139e-05 0.103245)
(-0.000136768 -7.91253e-05 0.103245)
(0.000188002 -0.00018811 0.10287)
(6.69285e-05 -6.69608e-05 0.10323)
(-8.15969e-05 -0.000140626 0.102912)
(7.91362e-05 -0.000136714 0.103245)
(-7.91218e-05 -0.000136714 0.103245)
(-6.701e-05 -6.70102e-05 0.103229)
(0.000183724 0.000183636 0.10328)
(5.91551e-05 5.9096e-05 0.10362)
(7.83931e-05 0.000135549 0.103354)
(-7.83886e-05 0.000135555 0.103354)
(7.64967e-05 0.000132181 0.103671)
(-7.64365e-05 0.000132145 0.103671)
(-0.000183587 0.00018351 0.10328)
(-5.8894e-05 5.888e-05 0.103621)
(0.000135497 7.84003e-05 0.103354)
(0.000135529 -7.83717e-05 0.103354)
(0.00013213 7.65356e-05 0.103671)
(0.000132134 -7.644e-05 0.103671)
(-0.000135537 -7.83838e-05 0.103354)
(-0.00013209 7.64655e-05 0.103671)
(-0.00013215 -7.648e-05 0.103671)
(0.000183503 -0.000183621 0.10328)
(5.8947e-05 -5.90133e-05 0.103621)
(-7.83835e-05 -0.000135484 0.103354)
(7.65148e-05 -0.000132108 0.103671)
(-7.64828e-05 -0.000132096 0.103671)
(-5.88773e-05 -5.88895e-05 0.10362)
(0.000180464 0.00018036 0.103664)
(5.23193e-05 5.23079e-05 0.103987)
(7.59403e-05 0.000131101 0.103774)
(-7.59537e-05 0.000131127 0.103774)
(7.46937e-05 0.000128271 0.104076)
(-7.46726e-05 0.00012826 0.104076)
(-0.000180084 0.000179962 0.103664)
(-5.25169e-05 5.25745e-05 0.103988)
(0.000131053 7.59377e-05 0.103774)
(0.000131093 -7.59296e-05 0.103774)
(0.000128214 7.46225e-05 0.104076)
(0.000128227 -7.46528e-05 0.104076)
(-0.000131106 -7.59471e-05 0.103774)
(-0.000128192 7.45931e-05 0.104076)
(-0.00012824 -7.46372e-05 0.104076)
(0.00018004 -0.000180184 0.103664)
(5.26117e-05 -5.25649e-05 0.103988)
(-7.59581e-05 -0.000131053 0.103774)
(7.45749e-05 -0.000128172 0.104076)
(-7.45843e-05 -0.000128174 0.104076)
(-5.28464e-05 -5.28253e-05 0.103988)
(0.000178182 0.000178126 0.104022)
(4.69437e-05 4.69825e-05 0.104333)
(7.43579e-05 0.000127402 0.104174)
(-7.43152e-05 0.0001274 0.104174)
(7.33044e-05 0.000124928 0.104463)
(-7.32883e-05 0.000124934 0.104463)
(-0.000177875 0.000177813 0.104023)
(-4.69313e-05 4.69942e-05 0.104333)
(0.00012735 7.42971e-05 0.104174)
(0.000127382 -7.43181e-05 0.104174)
(0.000124872 7.32493e-05 0.104463)
(0.00012492 -7.33087e-05 0.104463)
(-0.000127374 -7.42611e-05 0.104174)
(-0.000124861 7.3218e-05 0.104463)
(-0.000124952 -7.32819e-05 0.104463)
(0.000177735 -0.00017778 0.104023)
(4.73654e-05 -4.73066e-05 0.104332)
(-7.42149e-05 -0.000127305 0.104174)
(7.3239e-05 -0.00012486 0.104463)
(-7.32352e-05 -0.000124882 0.104463)
(-4.67906e-05 -4.67649e-05 0.104332)
(0.000176652 0.0001766 0.104359)
(4.22369e-05 4.22705e-05 0.104655)
(7.29837e-05 0.00012417 0.104557)
(-7.30266e-05 0.000124215 0.104557)
(7.22276e-05 0.000122069 0.104834)
(-7.2156e-05 0.00012204 0.104834)
(-0.000176629 0.000176564 0.104359)
(-4.21338e-05 4.21967e-05 0.104655)
(0.000124112 7.29289e-05 0.104557)
(0.000124129 -7.29225e-05 0.104557)
(0.000121999 7.21895e-05 0.104834)
(0.000121975 -7.20047e-05 0.104834)
(-0.000124136 -7.29278e-05 0.104557)
(-0.000121957 7.20923e-05 0.104834)
(-0.000121927 -7.20128e-05 0.104834)
(0.000177152 -0.000177217 0.104359)
(4.0755e-05 -4.07241e-05 0.104657)
(-7.28794e-05 -0.000124066 0.104557)
(7.19531e-05 -0.000121907 0.104834)
(-7.19695e-05 -0.000121851 0.104834)
(-4.1903e-05 -4.19103e-05 0.104657)
(0.000177074 0.000177037 0.104673)
(3.56229e-05 3.55859e-05 0.104963)
(7.17756e-05 0.000121283 0.104925)
(-7.16445e-05 0.000121209 0.104925)
(7.07741e-05 0.000119273 0.10519)
(-7.11084e-05 0.000119462 0.10519)
(-0.000177086 0.000177047 0.104673)
(-3.61977e-05 3.62365e-05 0.104962)
(0.000121215 7.1708e-05 0.104925)
(0.000121352 -7.18829e-05 0.104924)
(0.000119209 7.07125e-05 0.10519)
(0.000119524 -7.12806e-05 0.105189)
(-0.000121286 -7.16826e-05 0.104924)
(-0.000119401 7.10086e-05 0.10519)
(-0.000119595 -7.12125e-05 0.10519)
(0.000175973 -0.000176019 0.104672)
(3.72898e-05 -3.73177e-05 0.104959)
(-7.1626e-05 -0.00012121 0.104924)
(7.11831e-05 -0.000119461 0.10519)
(-7.11552e-05 -0.000119515 0.10519)
(-3.62638e-05 -3.62808e-05 0.10496)
(0.000174926 0.000174828 0.104967)
(3.18763e-05 3.1852e-05 0.105247)
(7.05188e-05 0.000118694 0.105276)
(-7.06158e-05 0.000118708 0.105277)
(6.97289e-05 0.000116805 0.105531)
(-6.97529e-05 0.00011686 0.105531)
(-0.000175707 0.000175621 0.104967)
(-3.16677e-05 3.17156e-05 0.105247)
(0.000118636 7.04776e-05 0.105277)
(0.000118469 -7.03763e-05 0.105277)
(0.000116755 6.96589e-05 0.105532)
(0.000116866 -6.99391e-05 0.105531)
(-0.000118683 -7.06619e-05 0.105277)
(-0.000116789 6.96844e-05 0.105532)
(-0.00011694 -6.99526e-05 0.105531)
(0.000177145 -0.000177279 0.104966)
(3.28464e-05 -3.28011e-05 0.105247)
(-7.06204e-05 -0.000118606 0.105277)
(6.98888e-05 -0.000116789 0.105532)
(-6.98824e-05 -0.000116876 0.105531)
(-3.25599e-05 -3.25906e-05 0.105246)
(0.000175232 0.000175097 0.105241)
(2.63925e-05 2.63814e-05 0.105512)
(6.93352e-05 0.00011625 0.105615)
(-6.95485e-05 0.000116401 0.105614)
(6.86496e-05 0.000114591 0.105859)
(-6.8651e-05 0.00011464 0.105858)
(-0.000175065 0.000174974 0.105241)
(-2.59104e-05 2.60255e-05 0.105511)
(0.000116196 6.92913e-05 0.105615)
(0.00011628 -6.93031e-05 0.105615)
(0.000114509 6.85903e-05 0.105859)
(0.000114592 -6.86129e-05 0.105859)
(-0.000116329 -6.94511e-05 0.105615)
(-0.000114558 6.85724e-05 0.105859)
(-0.000114724 -6.87731e-05 0.105858)
(0.000175394 -0.000175533 0.105242)
(2.59981e-05 -2.58805e-05 0.105512)
(-6.94053e-05 -0.000116255 0.105615)
(6.85308e-05 -0.000114495 0.105859)
(-6.87064e-05 -0.000114626 0.105858)
(-2.62399e-05 -2.61633e-05 0.105511)
(0.00017483 0.000174783 0.105491)
(2.22151e-05 2.22434e-05 0.105755)
(6.79596e-05 0.000113791 0.105938)
(-6.84854e-05 0.000113994 0.105938)
(6.78634e-05 0.000112366 0.106171)
(-6.73952e-05 0.000112067 0.106172)
(-0.000175722 0.00017572 0.105489)
(-2.18495e-05 2.19697e-05 0.105755)
(0.000113701 6.79348e-05 0.105939)
(0.000113725 -6.79623e-05 0.105938)
(0.00011231 6.77503e-05 0.106171)
(0.00011228 -6.7851e-05 0.106171)
(-0.000113916 -6.83228e-05 0.105938)
(-0.000112007 6.72893e-05 0.106172)
(-0.000112239 -6.7632e-05 0.106171)
(0.000174843 -0.000174872 0.105491)
(2.31292e-05 -2.30144e-05 0.105755)
(-6.82729e-05 -0.000113805 0.105938)
(6.77214e-05 -0.000112194 0.106172)
(-6.74971e-05 -0.000112152 0.106172)
(-2.2428e-05 -2.23829e-05 0.105755)
(0.000175365 0.000175302 0.10572)
(1.55989e-05 1.56902e-05 0.105978)
(6.75876e-05 0.000111753 0.106248)
(-6.69601e-05 0.00011151 0.106248)
(6.59791e-05 0.000109784 0.10647)
(-6.65159e-05 0.000110076 0.10647)
(-0.000174175 0.000174183 0.105721)
(-1.59108e-05 1.60398e-05 0.105979)
(0.000111717 6.74618e-05 0.106248)
(0.000111746 -6.74289e-05 0.106248)
(0.000109729 6.59432e-05 0.106471)
(0.000109946 -6.61736e-05 0.10647)
(-0.000111889 -6.76316e-05 0.106248)
(-0.000109942 6.64129e-05 0.10647)
(-0.000109743 -6.57849e-05 0.106471)
(0.000175222 -0.000175232 0.105721)
(1.49833e-05 -1.48795e-05 0.105979)
(-6.74821e-05 -0.000111817 0.106248)
(6.60697e-05 -0.000109856 0.106471)
(-6.57154e-05 -0.000109634 0.106471)
(-1.42728e-05 -1.41998e-05 0.105979)
(0.000172213 0.00017222 0.105927)
(1.09561e-05 1.10328e-05 0.106177)
(6.62196e-05 0.000109662 0.106542)
(-6.6512e-05 0.000109734 0.106542)
(6.52771e-05 0.000107966 0.106754)
(-6.55648e-05 0.000108181 0.106753)
(-0.000172713 0.000172709 0.105927)
(-1.09978e-05 1.10803e-05 0.106176)
(0.000109604 6.61806e-05 0.106542)
(0.000109673 -6.63312e-05 0.106542)
(0.000107919 6.52141e-05 0.106754)
(0.000108295 -6.56794e-05 0.106753)
(-0.000109722 -6.63273e-05 0.106541)
(-0.000108063 6.54569e-05 0.106754)
(-0.000108147 -6.54173e-05 0.106753)
(0.000171582 -0.000171596 0.105927)
(1.05534e-05 -1.04537e-05 0.106175)
(-6.62553e-05 -0.000109595 0.106542)
(6.55631e-05 -0.000108189 0.106753)
(-6.53245e-05 -0.000108032 0.106754)
(-9.87465e-06 -9.81154e-06 0.106176)
(0.00017129 0.000171263 0.106108)
(6.97218e-06 7.03748e-06 0.10635)
(6.529e-05 0.000107624 0.106822)
(-6.54444e-05 0.000107615 0.106822)
(6.42774e-05 0.000105967 0.107021)
(-6.46332e-05 0.000106175 0.107021)
(-0.000172071 0.000172031 0.106107)
(-7.41266e-06 7.46779e-06 0.106349)
(0.000107593 6.51935e-05 0.106822)
(0.000107707 -6.5767e-05 0.106821)
(0.000105938 6.4206e-05 0.107022)
(0.000106194 -6.46716e-05 0.107021)
(-0.000107569 -6.54208e-05 0.106821)
(-0.000106064 6.44997e-05 0.107021)
(-0.000106191 -6.47443e-05 0.107021)
(0.000172482 -0.00017252 0.106106)
(7.65198e-06 -7.57397e-06 0.106348)
(-6.52932e-05 -0.000107461 0.106822)
(6.45262e-05 -0.000106093 0.107021)
(-6.46388e-05 -0.00010608 0.107021)
(-7.73368e-06 -7.69174e-06 0.106348)
(0.000170168 0.000170138 0.106264)
(3.24122e-06 3.29389e-06 0.106498)
(6.42731e-05 0.000105608 0.107086)
(-6.43055e-05 0.000105523 0.107086)
(6.32172e-05 0.000104088 0.107273)
(-6.35765e-05 0.000104263 0.107273)
(-0.000171062 0.000171003 0.106263)
(-3.76696e-06 3.84006e-06 0.106498)
(0.000105555 6.4222e-05 0.107086)
(0.000105342 -6.40281e-05 0.107086)
(0.000104024 6.31527e-05 0.107274)
(0.000104303 -6.38404e-05 0.107273)
(-0.00010535 -6.40987e-05 0.107086)
(-0.000104165 6.34541e-05 0.107273)
(-0.000104253 -6.37839e-05 0.107273)
(0.00017166 -0.00017172 0.106262)
(4.86539e-06 -4.794e-06 0.106497)
(-6.40076e-05 -0.000105238 0.107086)
(6.36895e-05 -0.000104199 0.107273)
(-6.36764e-05 -0.000104149 0.107273)
(-4.91856e-06 -4.87828e-06 0.106497)
(0.000168076 0.000168038 0.106393)
(-1.77379e-07 -1.11752e-07 0.106619)
(6.31458e-05 0.000103708 0.107333)
(-6.32256e-05 0.000103672 0.107334)
(6.21607e-05 0.000102118 0.107508)
(-6.24035e-05 0.000102266 0.107508)
(-0.000168891 0.000168856 0.106393)
(-9.0304e-08 1.68825e-07 0.106619)
(0.00010364 6.31026e-05 0.107334)
(0.000103431 -6.29226e-05 0.107334)
(0.000102069 6.20797e-05 0.107509)
(0.000102379 -6.27718e-05 0.107508)
(-0.000103355 -6.27779e-05 0.107334)
(-0.000102172 6.22739e-05 0.107509)
(-0.000102379 -6.28229e-05 0.107508)
(0.000169856 -0.000169914 0.106393)
(1.28949e-06 -1.21361e-06 0.106618)
(-6.26868e-05 -0.000103248 0.107334)
(6.26208e-05 -0.000102275 0.107508)
(-6.27006e-05 -0.000102278 0.107508)
(-1.41071e-06 -1.38322e-06 0.106618)
(0.000165404 0.000165368 0.106496)
(-3.20965e-06 -3.15721e-06 0.106713)
(6.2048e-05 0.000101697 0.107565)
(-6.21998e-05 0.000101746 0.107564)
(6.11112e-05 0.000100085 0.107727)
(-6.11811e-05 0.000100172 0.107726)
(-0.000165939 0.000165901 0.106496)
(3.2839e-06 -3.24425e-06 0.106713)
(0.000101661 6.19912e-05 0.107565)
(0.000101526 -6.19064e-05 0.107565)
(0.000100054 6.10324e-05 0.107727)
(0.000100428 -6.1771e-05 0.107726)
(-0.0001015 -6.18953e-05 0.107565)
(-0.000100073 6.10727e-05 0.107727)
(-0.000100377 -6.16833e-05 0.107726)
(0.000166931 -0.000166987 0.106496)
(-2.14334e-06 2.21535e-06 0.106712)
(-6.1792e-05 -0.000101401 0.107565)
(6.16282e-05 -0.000100322 0.107726)
(-6.15542e-05 -0.00010028 0.107726)
(2.30412e-06 2.32451e-06 0.106712)
(0.000162167 0.000162107 0.106572)
(-5.96479e-06 -5.94567e-06 0.106779)
(6.09409e-05 9.96204e-05 0.107778)
(-6.11176e-05 9.97243e-05 0.107778)
(6.00808e-05 9.79401e-05 0.107927)
(-6.00889e-05 9.79857e-05 0.107927)
(-0.000162343 0.000162266 0.106572)
(6.17493e-06 -6.10655e-06 0.106779)
(9.95989e-05 6.08796e-05 0.107779)
(9.96469e-05 -6.11448e-05 0.107778)
(9.79045e-05 6.00483e-05 0.107927)
(9.81727e-05 -6.04344e-05 0.107926)
(-9.96591e-05 -6.11751e-05 0.107778)
(-9.78731e-05 5.99807e-05 0.107927)
(-9.81284e-05 -6.03556e-05 0.107926)
(0.000163529 -0.000163595 0.106572)
(-5.76535e-06 5.80929e-06 0.106778)
(-6.10607e-05 -9.95607e-05 0.107779)
(6.03277e-05 -9.80721e-05 0.107927)
(-6.02513e-05 -9.80085e-05 0.107927)
(5.87136e-06 5.90596e-06 0.106778)
(0.000158353 0.000158252 0.106621)
(-8.47667e-06 -8.32307e-06 0.106817)
(5.98631e-05 9.73993e-05 0.107974)
(-5.99299e-05 9.74733e-05 0.107974)
(5.91196e-05 9.56144e-05 0.108109)
(-5.90878e-05 9.56451e-05 0.108109)
(-0.000158227 0.000158186 0.106621)
(8.53949e-06 -8.46916e-06 0.106817)
(9.73749e-05 5.98175e-05 0.107974)
(9.75714e-05 -6.02395e-05 0.107974)
(9.55731e-05 5.9052e-05 0.108109)
(9.56876e-05 -5.91119e-05 0.108108)
(-9.75414e-05 -6.01526e-05 0.107974)
(-9.55046e-05 5.89971e-05 0.10811)
(-9.56496e-05 -5.90566e-05 0.108109)
(0.0001591 -0.00015918 0.106621)
(-8.70342e-06 8.82264e-06 0.106816)
(-6.00341e-05 -9.74236e-05 0.107974)
(5.89766e-05 -9.55716e-05 0.108109)
(-5.89508e-05 -9.55218e-05 0.108109)
(8.72303e-06 8.74288e-06 0.106816)
(0.000154018 0.00015404 0.106644)
(-1.06633e-05 -1.05322e-05 0.106829)
(5.88567e-05 9.49994e-05 0.108151)
(-5.88806e-05 9.50622e-05 0.108151)
(5.81286e-05 9.31898e-05 0.108272)
(-5.81281e-05 9.32292e-05 0.108272)
(-0.000153953 0.000153916 0.106644)
(1.06424e-05 -1.05732e-05 0.10683)
(9.49622e-05 5.87699e-05 0.108152)
(9.51596e-05 -5.90945e-05 0.108151)
(9.31401e-05 5.80416e-05 0.108273)
(9.31818e-05 -5.80337e-05 0.108272)
(-9.51212e-05 -5.90198e-05 0.108151)
(-9.31239e-05 5.80192e-05 0.108273)
(-9.31635e-05 -5.80039e-05 0.108272)
(0.000154088 -0.000154111 0.106644)
(-1.08917e-05 1.1004e-05 0.106829)
(-5.89015e-05 -9.5017e-05 0.108152)
(5.79022e-05 -9.30854e-05 0.108273)
(-5.79254e-05 -9.30823e-05 0.108273)
(1.08203e-05 1.08661e-05 0.106829)
(0.000149356 0.000149365 0.106643)
(-1.2736e-05 -1.26232e-05 0.106818)
(5.78496e-05 9.25557e-05 0.10831)
(-5.78234e-05 9.25914e-05 0.10831)
(5.71082e-05 9.06357e-05 0.108417)
(-5.71646e-05 9.06988e-05 0.108417)
(-0.00014932 0.00014929 0.106643)
(1.26382e-05 -1.25766e-05 0.106818)
(9.25117e-05 5.77513e-05 0.108311)
(9.26344e-05 -5.79135e-05 0.10831)
(9.05812e-05 5.70136e-05 0.108418)
(9.06235e-05 -5.70388e-05 0.108417)
(-9.25912e-05 -5.78305e-05 0.10831)
(-9.05948e-05 5.70469e-05 0.108418)
(-9.06239e-05 -5.70433e-05 0.108417)
(0.000149164 -0.000149189 0.106643)
(-1.27984e-05 1.29053e-05 0.106817)
(-5.77474e-05 -9.25195e-05 0.108311)
(5.69103e-05 -9.05315e-05 0.108418)
(-5.69701e-05 -9.05532e-05 0.108418)
(1.26776e-05 1.27348e-05 0.106817)
(0.000144276 0.000144274 0.106619)
(-1.47712e-05 -1.46755e-05 0.106784)
(5.67664e-05 8.99317e-05 0.10845)
(-5.67768e-05 8.99726e-05 0.10845)
(5.59874e-05 8.7875e-05 0.108543)
(-5.60275e-05 8.79386e-05 0.108543)
(-0.000144339 0.000144304 0.106619)
(1.47227e-05 -1.46627e-05 0.106784)
(8.98743e-05 5.66712e-05 0.108451)
(8.99524e-05 -5.67523e-05 0.10845)
(8.78278e-05 5.58821e-05 0.108543)
(8.78848e-05 -5.59596e-05 0.108542)
(-8.99137e-05 -5.66723e-05 0.10845)
(-8.78323e-05 5.59087e-05 0.108544)
(-8.7899e-05 -5.59969e-05 0.108543)
(0.000144111 -0.000144136 0.106619)
(-1.47004e-05 1.48041e-05 0.106783)
(-5.65986e-05 -8.98412e-05 0.108451)
(5.58339e-05 -8.77943e-05 0.108544)
(-5.59186e-05 -8.78373e-05 0.108543)
(1.45995e-05 1.46474e-05 0.106783)
(0.000138886 0.000138868 0.106575)
(-1.691e-05 -1.68105e-05 0.106731)
(5.56228e-05 8.71342e-05 0.108571)
(-5.56602e-05 8.71892e-05 0.108571)
(5.46067e-05 8.49157e-05 0.10865)
(-5.46215e-05 8.49615e-05 0.10865)
(-0.000138946 0.000138909 0.106575)
(1.69142e-05 -1.68506e-05 0.106732)
(8.70851e-05 5.55192e-05 0.108572)
(8.71343e-05 -5.55668e-05 0.108571)
(8.48528e-05 5.45043e-05 0.108651)
(8.49491e-05 -5.46577e-05 0.108649)
(-8.71237e-05 -5.55581e-05 0.108571)
(-8.48507e-05 5.45036e-05 0.108651)
(-8.49446e-05 -5.46271e-05 0.10865)
(0.00013882 -0.000138843 0.106575)
(-1.67549e-05 1.68571e-05 0.106731)
(-5.54826e-05 -8.70584e-05 0.108572)
(5.45311e-05 -8.48588e-05 0.108651)
(-5.45512e-05 -8.48779e-05 0.108651)
(1.67734e-05 1.68194e-05 0.106731)
(0.000133116 0.000133104 0.106514)
(-1.89585e-05 -1.88702e-05 0.106663)
(5.42604e-05 8.41608e-05 0.108674)
(-5.42915e-05 8.4213e-05 0.108674)
(5.30806e-05 8.18145e-05 0.108739)
(-5.30949e-05 8.18578e-05 0.108739)
(-0.000133128 0.000133097 0.106515)
(1.89655e-05 -1.89051e-05 0.106663)
(8.41082e-05 5.41546e-05 0.108675)
(8.41702e-05 -5.42545e-05 0.108673)
(8.17489e-05 5.29765e-05 0.10874)
(8.18467e-05 -5.31078e-05 0.108738)
(-8.41774e-05 -5.42622e-05 0.108674)
(-8.17474e-05 5.29785e-05 0.10874)
(-8.18206e-05 -5.30464e-05 0.108739)
(0.000133169 -0.000133192 0.106514)
(-1.88862e-05 1.89852e-05 0.106662)
(-5.41867e-05 -8.41105e-05 0.108675)
(5.29855e-05 -8.17593e-05 0.10874)
(-5.29704e-05 -8.17603e-05 0.10874)
(1.89391e-05 1.89792e-05 0.106662)
(0.000127214 0.000127198 0.10644)
(-2.09241e-05 -2.08429e-05 0.106582)
(5.2658e-05 8.10155e-05 0.108759)
(-5.26792e-05 8.10613e-05 0.108758)
(5.14143e-05 7.8608e-05 0.10881)
(-5.14276e-05 7.86509e-05 0.10881)
(-0.000127207 0.000127177 0.10644)
(2.09266e-05 -2.08701e-05 0.106583)
(8.0956e-05 5.25512e-05 0.108759)
(8.10638e-05 -5.27325e-05 0.108758)
(7.85452e-05 5.13125e-05 0.108811)
(7.85895e-05 -5.13341e-05 0.10881)
(-8.10382e-05 -5.26726e-05 0.108758)
(-7.8545e-05 5.13124e-05 0.108812)
(-7.85964e-05 -5.13374e-05 0.10881)
(0.000127255 -0.000127278 0.10644)
(-2.09674e-05 2.10638e-05 0.106581)
(-5.25941e-05 -8.09781e-05 0.108759)
(5.12163e-05 -7.85028e-05 0.108811)
(-5.12692e-05 -7.85289e-05 0.108811)
(2.09328e-05 2.09796e-05 0.106581)
(0.000121379 0.000121362 0.106354)
(-2.29564e-05 -2.28852e-05 0.106491)
(5.09396e-05 7.77713e-05 0.108826)
(-5.09759e-05 7.78224e-05 0.108825)
(4.94841e-05 7.52499e-05 0.108865)
(-4.94674e-05 7.52784e-05 0.108864)
(-0.000121374 0.000121344 0.106355)
(2.29715e-05 -2.29153e-05 0.106492)
(7.77036e-05 5.08394e-05 0.108826)
(7.77879e-05 -5.09367e-05 0.108825)
(7.51944e-05 4.93744e-05 0.108866)
(7.52413e-05 -4.94478e-05 0.108864)
(-7.77724e-05 -5.0894e-05 0.108825)
(-7.51686e-05 4.93506e-05 0.108866)
(-7.52409e-05 -4.9439e-05 0.108865)
(0.000121267 -0.00012129 0.106354)
(-2.28932e-05 2.29796e-05 0.10649)
(-5.08243e-05 -7.77059e-05 0.108826)
(4.93297e-05 -7.5158e-05 0.108866)
(-4.93627e-05 -7.5183e-05 0.108865)
(2.29008e-05 2.29367e-05 0.106491)
(0.000115505 0.000115479 0.106261)
(-2.48558e-05 -2.47806e-05 0.106394)
(4.89869e-05 7.43811e-05 0.108876)
(-4.89991e-05 7.44241e-05 0.108876)