/*--------------------------------*- C++ -*----------------------------------*\
| =========                 |                                                 |
| \\      /  F ield         | OpenFOAM: The Open Source CFD Toolbox           |
|  \\    /   O peration     | Version:  v2012                                 |
|   \\  /    A nd           | Website:  www.openfoam.com                      |
|    \\/     M anipulation  |                                                 |
\*---------------------------------------------------------------------------*/
FoamFile
{
    version     2.0;
    format      ascii;
    class       volScalarField;
    location    "0.44";
    object      p;
}
// * * * * * * * * * * * * * * * * * * * * * * * * * * * * * * * * * * * * * //

dimensions      [0 2 -2 0 0 0 0];


internalField   nonuniform List<scalar> 
247104
(
1.83548e-06
1.83534e-06
1.8355e-06
1.83548e-06
1.83541e-06
1.8355e-06
1.83548e-06
1.83527e-06
1.83534e-06
1.83541e-06
1.83547e-06
1.83532e-06
1.83523e-06
1.83534e-06
1.83548e-06
1.83538e-06
1.8355e-06
1.83547e-06
1.83517e-06
1.83481e-06
1.83467e-06
1.83484e-06
1.83521e-06
1.83549e-06
1.8355e-06
1.83548e-06
1.83532e-06
1.83481e-06
1.83433e-06
1.83416e-06
1.83437e-06
1.83488e-06
1.83536e-06
1.83548e-06
1.83547e-06
1.83541e-06
1.83523e-06
1.83467e-06
1.83416e-06
1.83398e-06
1.8342e-06
1.83474e-06
1.83528e-06
1.83539e-06
1.8355e-06
1.83534e-06
1.83484e-06
1.83437e-06
1.8342e-06
1.83442e-06
1.83491e-06
1.83538e-06
1.83551e-06
1.83548e-06
1.83548e-06
1.83521e-06
1.83488e-06
1.83474e-06
1.83491e-06
1.83526e-06
1.83549e-06
1.83548e-06
1.83527e-06
1.83538e-06
1.83549e-06
1.83536e-06
1.83529e-06
1.83538e-06
1.83549e-06
1.83534e-06
1.8355e-06
1.83548e-06
1.83539e-06
1.83551e-06
1.83548e-06
1.80281e-06
1.80083e-06
1.80016e-06
1.79894e-06
1.79895e-06
1.79889e-06
1.79888e-06
1.80022e-06
1.80042e-06
1.80017e-06
1.79811e-06
1.79554e-06
1.79553e-06
1.79553e-06
1.79554e-06
1.79848e-06
1.79876e-06
1.79894e-06
1.79554e-06
1.79548e-06
1.79555e-06
1.79555e-06
1.79548e-06
1.79554e-06
1.79887e-06
1.80024e-06
1.80281e-06
1.79894e-06
1.79553e-06
1.79555e-06
1.79564e-06
1.79564e-06
1.79555e-06
1.79553e-06
1.79889e-06
1.80053e-06
1.80083e-06
1.79889e-06
1.79553e-06
1.79555e-06
1.79564e-06
1.79564e-06
1.79555e-06
1.79553e-06
1.79905e-06
1.79914e-06
1.79889e-06
1.79554e-06
1.79548e-06
1.79555e-06
1.79555e-06
1.79548e-06
1.79554e-06
1.79884e-06
1.80017e-06
1.80022e-06
1.79849e-06
1.79554e-06
1.79553e-06
1.79553e-06
1.79554e-06
1.79874e-06
1.7989e-06
1.80037e-06
1.80041e-06
1.79877e-06
1.79887e-06
1.7989e-06
1.79905e-06
1.79884e-06
1.7989e-06
1.80042e-06
1.80025e-06
1.80054e-06
1.79915e-06
1.80017e-06
1.80037e-06
1.7827e-06
1.78253e-06
1.78236e-06
1.78027e-06
1.78016e-06
1.78011e-06
1.78025e-06
1.7823e-06
1.78257e-06
1.78236e-06
1.77958e-06
1.7766e-06
1.77658e-06
1.77659e-06
1.77663e-06
1.78001e-06
1.78071e-06
1.78028e-06
1.77665e-06
1.77641e-06
1.77645e-06
1.77645e-06
1.7764e-06
1.77659e-06
1.7808e-06
1.78275e-06
1.7827e-06
1.78017e-06
1.7766e-06
1.77646e-06
1.77649e-06
1.77649e-06
1.77645e-06
1.77657e-06
1.78084e-06
1.78251e-06
1.78254e-06
1.78012e-06
1.7766e-06
1.77646e-06
1.77649e-06
1.77649e-06
1.77645e-06
1.77657e-06
1.7808e-06
1.78085e-06
1.78025e-06
1.77666e-06
1.77641e-06
1.77646e-06
1.77646e-06
1.77641e-06
1.7766e-06
1.78083e-06
1.78284e-06
1.7823e-06
1.78001e-06
1.7766e-06
1.77658e-06
1.77659e-06
1.77664e-06
1.78047e-06
1.78079e-06
1.78277e-06
1.78257e-06
1.78071e-06
1.7808e-06
1.78085e-06
1.78081e-06
1.78085e-06
1.7808e-06
1.78263e-06
1.78275e-06
1.78251e-06
1.78085e-06
1.78284e-06
1.78277e-06
1.76386e-06
1.76369e-06
1.76355e-06
1.76142e-06
1.7613e-06
1.76122e-06
1.7614e-06
1.76347e-06
1.76376e-06
1.76355e-06
1.76072e-06
1.75774e-06
1.75772e-06
1.75772e-06
1.75774e-06
1.76112e-06
1.7619e-06
1.76142e-06
1.75774e-06
1.75764e-06
1.75766e-06
1.75765e-06
1.75764e-06
1.75774e-06
1.76197e-06
1.76392e-06
1.76386e-06
1.7613e-06
1.75772e-06
1.75766e-06
1.75767e-06
1.75767e-06
1.75765e-06
1.75772e-06
1.76201e-06
1.76367e-06
1.76369e-06
1.76123e-06
1.75772e-06
1.75766e-06
1.75767e-06
1.75767e-06
1.75765e-06
1.75772e-06
1.76198e-06
1.76203e-06
1.7614e-06
1.75774e-06
1.75764e-06
1.75765e-06
1.75765e-06
1.75764e-06
1.75774e-06
1.762e-06
1.76399e-06
1.76347e-06
1.76111e-06
1.75774e-06
1.75772e-06
1.75772e-06
1.75774e-06
1.76172e-06
1.762e-06
1.76395e-06
1.76375e-06
1.76189e-06
1.76197e-06
1.76201e-06
1.76198e-06
1.76199e-06
1.76199e-06
1.76397e-06
1.76391e-06
1.76367e-06
1.76203e-06
1.76398e-06
1.76395e-06
1.74498e-06
1.74481e-06
1.74465e-06
1.74252e-06
1.7424e-06
1.74232e-06
1.7425e-06
1.74458e-06
1.74486e-06
1.74465e-06
1.74183e-06
1.73884e-06
1.73883e-06
1.73883e-06
1.73883e-06
1.74219e-06
1.743e-06
1.74252e-06
1.73883e-06
1.73881e-06
1.73881e-06
1.73881e-06
1.73881e-06
1.73883e-06
1.74307e-06
1.74503e-06
1.74498e-06
1.7424e-06
1.73883e-06
1.73881e-06
1.73881e-06
1.73881e-06
1.73881e-06
1.73883e-06
1.74314e-06
1.74481e-06
1.74481e-06
1.74232e-06
1.73883e-06
1.73881e-06
1.73881e-06
1.73881e-06
1.73881e-06
1.73883e-06
1.74311e-06
1.74316e-06
1.7425e-06
1.73883e-06
1.73881e-06
1.73881e-06
1.73881e-06
1.7388e-06
1.73883e-06
1.74312e-06
1.74512e-06
1.74458e-06
1.74219e-06
1.73883e-06
1.73883e-06
1.73883e-06
1.73883e-06
1.74286e-06
1.74312e-06
1.74507e-06
1.74486e-06
1.743e-06
1.74307e-06
1.74314e-06
1.74311e-06
1.74312e-06
1.74312e-06
1.74507e-06
1.74503e-06
1.74481e-06
1.74316e-06
1.74512e-06
1.74506e-06
1.72609e-06
1.72592e-06
1.72575e-06
1.72362e-06
1.7235e-06
1.72343e-06
1.7236e-06
1.72569e-06
1.72596e-06
1.72575e-06
1.72294e-06
1.71994e-06
1.71993e-06
1.71993e-06
1.71994e-06
1.72328e-06
1.7241e-06
1.72362e-06
1.71994e-06
1.71993e-06
1.71993e-06
1.71993e-06
1.71993e-06
1.71994e-06
1.72417e-06
1.72613e-06
1.72609e-06
1.7235e-06
1.71993e-06
1.71993e-06
1.71993e-06
1.71993e-06
1.71993e-06
1.71993e-06
1.72425e-06
1.72592e-06
1.72592e-06
1.72343e-06
1.71993e-06
1.71993e-06
1.71993e-06
1.71993e-06
1.71993e-06
1.71993e-06
1.72422e-06
1.72427e-06
1.7236e-06
1.71994e-06
1.71993e-06
1.71993e-06
1.71993e-06
1.71993e-06
1.71994e-06
1.72423e-06
1.72624e-06
1.72569e-06
1.72328e-06
1.71994e-06
1.71993e-06
1.71993e-06
1.71994e-06
1.72397e-06
1.72423e-06
1.72617e-06
1.72596e-06
1.7241e-06
1.72417e-06
1.72425e-06
1.72422e-06
1.72423e-06
1.72423e-06
1.72616e-06
1.72613e-06
1.72592e-06
1.72427e-06
1.72624e-06
1.72617e-06
1.7072e-06
1.70703e-06
1.70686e-06
1.70473e-06
1.70461e-06
1.70453e-06
1.70471e-06
1.70679e-06
1.70706e-06
1.70686e-06
1.70404e-06
1.70104e-06
1.70104e-06
1.70104e-06
1.70104e-06
1.70439e-06
1.70521e-06
1.70473e-06
1.70104e-06
1.70104e-06
1.70104e-06
1.70104e-06
1.70104e-06
1.70104e-06
1.70528e-06
1.70724e-06
1.7072e-06
1.70461e-06
1.70104e-06
1.70104e-06
1.70104e-06
1.70104e-06
1.70104e-06
1.70104e-06
1.70536e-06
1.70703e-06
1.70703e-06
1.70454e-06
1.70104e-06
1.70104e-06
1.70104e-06
1.70104e-06
1.70104e-06
1.70104e-06
1.70533e-06
1.70538e-06
1.70471e-06
1.70104e-06
1.70104e-06
1.70104e-06
1.70104e-06
1.70104e-06
1.70104e-06
1.70534e-06
1.70735e-06
1.70679e-06
1.70439e-06
1.70104e-06
1.70104e-06
1.70104e-06
1.70105e-06
1.70509e-06
1.70535e-06
1.70728e-06
1.70706e-06
1.70521e-06
1.70528e-06
1.70536e-06
1.70533e-06
1.70534e-06
1.70535e-06
1.70727e-06
1.70724e-06
1.70703e-06
1.70538e-06
1.70735e-06
1.70728e-06
1.68831e-06
1.68814e-06
1.68797e-06
1.68584e-06
1.68572e-06
1.68565e-06
1.68582e-06
1.6879e-06
1.68817e-06
1.68797e-06
1.68516e-06
1.68216e-06
1.68215e-06
1.68215e-06
1.68216e-06
1.68549e-06
1.68632e-06
1.68584e-06
1.68216e-06
1.68215e-06
1.68215e-06
1.68215e-06
1.68215e-06
1.68215e-06
1.68639e-06
1.68835e-06
1.68831e-06
1.68572e-06
1.68215e-06
1.68215e-06
1.68216e-06
1.68216e-06
1.68215e-06
1.68215e-06
1.68647e-06
1.68814e-06
1.68814e-06
1.68565e-06
1.68215e-06
1.68215e-06
1.68216e-06
1.68216e-06
1.68215e-06
1.68215e-06
1.68644e-06
1.68649e-06
1.68582e-06
1.68216e-06
1.68215e-06
1.68215e-06
1.68215e-06
1.68215e-06
1.68215e-06
1.68645e-06
1.68846e-06
1.6879e-06
1.68549e-06
1.68216e-06
1.68215e-06
1.68215e-06
1.68215e-06
1.6862e-06
1.68646e-06
1.68839e-06
1.68817e-06
1.68632e-06
1.68639e-06
1.68647e-06
1.68644e-06
1.68645e-06
1.68646e-06
1.68838e-06
1.68835e-06
1.68814e-06
1.68649e-06
1.68846e-06
1.68839e-06
1.66942e-06
1.66925e-06
1.66908e-06
1.66695e-06
1.66683e-06
1.66676e-06
1.66693e-06
1.66902e-06
1.66928e-06
1.66908e-06
1.66627e-06
1.66327e-06
1.66327e-06
1.66327e-06
1.66327e-06
1.66661e-06
1.66743e-06
1.66695e-06
1.66327e-06
1.66327e-06
1.66327e-06
1.66327e-06
1.66327e-06
1.66327e-06
1.6675e-06
1.66946e-06
1.66942e-06
1.66683e-06
1.66327e-06
1.66327e-06
1.66327e-06
1.66327e-06
1.66327e-06
1.66327e-06
1.66758e-06
1.66925e-06
1.66925e-06
1.66676e-06
1.66327e-06
1.66327e-06
1.66327e-06
1.66327e-06
1.66327e-06
1.66327e-06
1.66755e-06
1.6676e-06
1.66693e-06
1.66327e-06
1.66327e-06
1.66327e-06
1.66327e-06
1.66327e-06
1.66327e-06
1.66756e-06
1.66957e-06
1.66902e-06
1.66661e-06
1.66327e-06
1.66327e-06
1.66327e-06
1.66327e-06
1.66731e-06
1.66757e-06
1.6695e-06
1.66928e-06
1.66743e-06
1.6675e-06
1.66758e-06
1.66755e-06
1.66756e-06
1.66757e-06
1.66949e-06
1.66946e-06
1.66925e-06
1.6676e-06
1.66957e-06
1.6695e-06
1.65053e-06
1.65036e-06
1.65019e-06
1.64806e-06
1.64794e-06
1.64787e-06
1.64804e-06
1.65013e-06
1.6504e-06
1.65019e-06
1.64738e-06
1.64438e-06
1.64438e-06
1.64438e-06
1.64438e-06
1.64772e-06
1.64854e-06
1.64806e-06
1.64438e-06
1.64438e-06
1.64438e-06
1.64438e-06
1.64438e-06
1.64438e-06
1.64861e-06
1.65057e-06
1.65053e-06
1.64794e-06
1.64438e-06
1.64438e-06
1.64438e-06
1.64438e-06
1.64438e-06
1.64438e-06
1.64869e-06
1.65036e-06
1.65036e-06
1.64787e-06
1.64438e-06
1.64438e-06
1.64438e-06
1.64438e-06
1.64438e-06
1.64438e-06
1.64867e-06
1.64871e-06
1.64804e-06
1.64438e-06
1.64438e-06
1.64438e-06
1.64438e-06
1.64438e-06
1.64438e-06
1.64867e-06
1.65068e-06
1.65013e-06
1.64772e-06
1.64438e-06
1.64438e-06
1.64438e-06
1.64438e-06
1.64842e-06
1.64868e-06
1.65061e-06
1.6504e-06
1.64854e-06
1.64861e-06
1.64869e-06
1.64867e-06
1.64867e-06
1.64868e-06
1.6506e-06
1.65057e-06
1.65036e-06
1.64871e-06
1.65068e-06
1.65061e-06
1.63164e-06
1.63147e-06
1.6313e-06
1.62917e-06
1.62905e-06
1.62898e-06
1.62915e-06
1.63124e-06
1.63151e-06
1.6313e-06
1.62849e-06
1.62549e-06
1.62549e-06
1.62549e-06
1.62549e-06
1.62883e-06
1.62965e-06
1.62917e-06
1.62549e-06
1.62549e-06
1.62549e-06
1.62549e-06
1.62549e-06
1.62549e-06
1.62972e-06
1.63168e-06
1.63164e-06
1.62905e-06
1.62549e-06
1.62549e-06
1.62549e-06
1.62549e-06
1.62549e-06
1.62549e-06
1.6298e-06
1.63147e-06
1.63147e-06
1.62898e-06
1.62549e-06
1.62549e-06
1.62549e-06
1.62549e-06
1.62549e-06
1.62549e-06
1.62978e-06
1.62983e-06
1.62915e-06
1.62549e-06
1.62549e-06
1.62549e-06
1.62549e-06
1.62549e-06
1.62549e-06
1.62978e-06
1.63179e-06
1.63124e-06
1.62883e-06
1.62549e-06
1.62549e-06
1.62549e-06
1.62549e-06
1.62953e-06
1.62979e-06
1.63172e-06
1.63151e-06
1.62965e-06
1.62972e-06
1.6298e-06
1.62978e-06
1.62978e-06
1.62979e-06
1.63172e-06
1.63168e-06
1.63147e-06
1.62983e-06
1.63179e-06
1.63172e-06
1.61275e-06
1.61258e-06
1.61241e-06
1.61028e-06
1.61017e-06
1.61009e-06
1.61027e-06
1.61235e-06
1.61262e-06
1.61241e-06
1.6096e-06
1.6066e-06
1.6066e-06
1.6066e-06
1.6066e-06
1.60994e-06
1.61076e-06
1.61028e-06
1.6066e-06
1.6066e-06
1.6066e-06
1.6066e-06
1.6066e-06
1.6066e-06
1.61083e-06
1.61279e-06
1.61275e-06
1.61016e-06
1.6066e-06
1.6066e-06
1.6066e-06
1.6066e-06
1.6066e-06
1.6066e-06
1.61091e-06
1.61259e-06
1.61258e-06
1.61009e-06
1.6066e-06
1.6066e-06
1.6066e-06
1.6066e-06
1.6066e-06
1.6066e-06
1.61089e-06
1.61094e-06
1.61027e-06
1.6066e-06
1.6066e-06
1.6066e-06
1.6066e-06
1.6066e-06
1.6066e-06
1.6109e-06
1.6129e-06
1.61235e-06
1.60994e-06
1.6066e-06
1.6066e-06
1.6066e-06
1.6066e-06
1.61064e-06
1.6109e-06
1.61283e-06
1.61262e-06
1.61076e-06
1.61083e-06
1.61091e-06
1.61089e-06
1.6109e-06
1.6109e-06
1.61283e-06
1.61279e-06
1.61259e-06
1.61094e-06
1.6129e-06
1.61283e-06
1.59387e-06
1.5937e-06
1.59352e-06
1.5914e-06
1.59128e-06
1.5912e-06
1.59138e-06
1.59346e-06
1.59373e-06
1.59352e-06
1.59071e-06
1.58771e-06
1.58771e-06
1.58771e-06
1.58771e-06
1.59105e-06
1.59187e-06
1.5914e-06
1.58771e-06
1.58771e-06
1.58771e-06
1.58771e-06
1.58771e-06
1.58771e-06
1.59195e-06
1.59391e-06
1.59386e-06
1.59128e-06
1.58771e-06
1.58771e-06
1.58771e-06
1.58771e-06
1.58771e-06
1.58771e-06
1.59203e-06
1.5937e-06
1.5937e-06
1.5912e-06
1.58771e-06
1.58771e-06
1.58771e-06
1.58771e-06
1.58771e-06
1.58771e-06
1.592e-06
1.59205e-06
1.59138e-06
1.58771e-06
1.58771e-06
1.58771e-06
1.58771e-06
1.58771e-06
1.58771e-06
1.59201e-06
1.59402e-06
1.59346e-06
1.59105e-06
1.58771e-06
1.58771e-06
1.58771e-06
1.58771e-06
1.59176e-06
1.59202e-06
1.59394e-06
1.59373e-06
1.59188e-06
1.59195e-06
1.59203e-06
1.592e-06
1.59201e-06
1.59202e-06
1.59394e-06
1.59391e-06
1.5937e-06
1.59205e-06
1.59402e-06
1.59394e-06
1.57498e-06
1.57481e-06
1.57464e-06
1.57251e-06
1.57239e-06
1.57232e-06
1.57249e-06
1.57458e-06
1.57484e-06
1.57464e-06
1.57183e-06
1.56883e-06
1.56883e-06
1.56883e-06
1.56883e-06
1.57217e-06
1.57299e-06
1.57251e-06
1.56883e-06
1.56883e-06
1.56883e-06
1.56883e-06
1.56883e-06
1.56883e-06
1.57306e-06
1.57502e-06
1.57498e-06
1.57239e-06
1.56883e-06
1.56883e-06
1.56883e-06
1.56883e-06
1.56883e-06
1.56883e-06
1.57314e-06
1.57481e-06
1.57481e-06
1.57232e-06
1.56883e-06
1.56883e-06
1.56883e-06
1.56883e-06
1.56883e-06
1.56883e-06
1.57312e-06
1.57316e-06
1.57249e-06
1.56883e-06
1.56883e-06
1.56883e-06
1.56883e-06
1.56883e-06
1.56883e-06
1.57312e-06
1.57513e-06
1.57458e-06
1.57217e-06
1.56883e-06
1.56883e-06
1.56883e-06
1.56883e-06
1.57287e-06
1.57313e-06
1.57506e-06
1.57484e-06
1.57299e-06
1.57306e-06
1.57314e-06
1.57311e-06
1.57312e-06
1.57313e-06
1.57505e-06
1.57502e-06
1.57481e-06
1.57316e-06
1.57513e-06
1.57506e-06
1.55609e-06
1.55592e-06
1.55575e-06
1.55362e-06
1.5535e-06
1.55343e-06
1.55361e-06
1.55569e-06
1.55596e-06
1.55575e-06
1.55294e-06
1.54994e-06
1.54994e-06
1.54994e-06
1.54994e-06
1.55328e-06
1.5541e-06
1.55362e-06
1.54994e-06
1.54994e-06
1.54994e-06
1.54994e-06
1.54994e-06
1.54994e-06
1.55417e-06
1.55613e-06
1.55609e-06
1.5535e-06
1.54994e-06
1.54994e-06
1.54994e-06
1.54994e-06
1.54994e-06
1.54994e-06
1.55425e-06
1.55592e-06
1.55592e-06
1.55343e-06
1.54994e-06
1.54994e-06
1.54994e-06
1.54994e-06
1.54994e-06
1.54994e-06
1.55423e-06
1.55428e-06
1.5536e-06
1.54994e-06
1.54994e-06
1.54994e-06
1.54994e-06
1.54994e-06
1.54994e-06
1.55424e-06
1.55624e-06
1.55569e-06
1.55328e-06
1.54994e-06
1.54994e-06
1.54994e-06
1.54994e-06
1.55398e-06
1.55424e-06
1.55617e-06
1.55596e-06
1.5541e-06
1.55417e-06
1.55425e-06
1.55423e-06
1.55423e-06
1.55424e-06
1.55617e-06
1.55613e-06
1.55593e-06
1.55428e-06
1.55624e-06
1.55617e-06
1.5372e-06
1.53704e-06
1.53686e-06
1.53474e-06
1.53462e-06
1.53454e-06
1.53472e-06
1.5368e-06
1.53707e-06
1.53686e-06
1.53405e-06
1.53105e-06
1.53105e-06
1.53105e-06
1.53105e-06
1.53439e-06
1.53521e-06
1.53474e-06
1.53105e-06
1.53105e-06
1.53105e-06
1.53105e-06
1.53105e-06
1.53105e-06
1.53529e-06
1.53724e-06
1.5372e-06
1.53462e-06
1.53105e-06
1.53105e-06
1.53105e-06
1.53105e-06
1.53105e-06
1.53105e-06
1.53537e-06
1.53704e-06
1.53704e-06
1.53454e-06
1.53105e-06
1.53105e-06
1.53105e-06
1.53105e-06
1.53105e-06
1.53105e-06
1.53534e-06
1.53539e-06
1.53472e-06
1.53105e-06
1.53105e-06
1.53105e-06
1.53105e-06
1.53105e-06
1.53105e-06
1.53535e-06
1.53736e-06
1.5368e-06
1.53439e-06
1.53105e-06
1.53105e-06
1.53105e-06
1.53105e-06
1.53509e-06
1.53535e-06
1.53728e-06
1.53707e-06
1.53521e-06
1.53529e-06
1.53536e-06
1.53534e-06
1.53535e-06
1.53536e-06
1.53728e-06
1.53725e-06
1.53704e-06
1.53539e-06
1.53736e-06
1.53728e-06
1.51832e-06
1.51815e-06
1.51798e-06
1.51585e-06
1.51573e-06
1.51566e-06
1.51583e-06
1.51792e-06
1.51818e-06
1.51798e-06
1.51517e-06
1.51217e-06
1.51217e-06
1.51217e-06
1.51217e-06
1.51551e-06
1.51633e-06
1.51585e-06
1.51217e-06
1.51217e-06
1.51217e-06
1.51217e-06
1.51217e-06
1.51217e-06
1.5164e-06
1.51836e-06
1.51832e-06
1.51573e-06
1.51217e-06
1.51217e-06
1.51217e-06
1.51217e-06
1.51217e-06
1.51217e-06
1.51648e-06
1.51815e-06
1.51815e-06
1.51566e-06
1.51217e-06
1.51217e-06
1.51217e-06
1.51217e-06
1.51217e-06
1.51217e-06
1.51645e-06
1.5165e-06
1.51583e-06
1.51217e-06
1.51217e-06
1.51217e-06
1.51217e-06
1.51217e-06
1.51217e-06
1.51646e-06
1.51847e-06
1.51792e-06
1.51551e-06
1.51217e-06
1.51217e-06
1.51217e-06
1.51217e-06
1.51621e-06
1.51647e-06
1.5184e-06
1.51818e-06
1.51633e-06
1.5164e-06
1.51648e-06
1.51645e-06
1.51646e-06
1.51647e-06
1.51839e-06
1.51836e-06
1.51815e-06
1.5165e-06
1.51847e-06
1.5184e-06
1.49943e-06
1.49926e-06
1.49909e-06
1.49696e-06
1.49684e-06
1.49677e-06
1.49694e-06
1.49903e-06
1.4993e-06
1.49909e-06
1.49628e-06
1.49328e-06
1.49328e-06
1.49328e-06
1.49328e-06
1.49662e-06
1.49744e-06
1.49696e-06
1.49328e-06
1.49328e-06
1.49328e-06
1.49328e-06
1.49328e-06
1.49328e-06
1.49751e-06
1.49947e-06
1.49943e-06
1.49684e-06
1.49328e-06
1.49328e-06
1.49328e-06
1.49328e-06
1.49328e-06
1.49328e-06
1.49759e-06
1.49926e-06
1.49926e-06
1.49677e-06
1.49328e-06
1.49328e-06
1.49328e-06
1.49328e-06
1.49328e-06
1.49328e-06
1.49757e-06
1.49762e-06
1.49694e-06
1.49328e-06
1.49328e-06
1.49328e-06
1.49328e-06
1.49328e-06
1.49328e-06
1.49757e-06
1.49958e-06
1.49903e-06
1.49662e-06
1.49328e-06
1.49328e-06
1.49328e-06
1.49328e-06
1.49732e-06
1.49758e-06
1.49951e-06
1.4993e-06
1.49744e-06
1.49751e-06
1.49759e-06
1.49757e-06
1.49757e-06
1.49758e-06
1.49951e-06
1.49947e-06
1.49926e-06
1.49762e-06
1.49958e-06
1.49951e-06
1.48054e-06
1.48038e-06
1.4802e-06
1.47808e-06
1.47796e-06
1.47788e-06
1.47806e-06
1.48014e-06
1.48041e-06
1.4802e-06
1.47739e-06
1.47439e-06
1.47439e-06
1.47439e-06
1.47439e-06
1.47773e-06
1.47855e-06
1.47808e-06
1.47439e-06
1.47439e-06
1.47439e-06
1.47439e-06
1.47439e-06
1.47439e-06
1.47863e-06
1.48058e-06
1.48054e-06
1.47796e-06
1.47439e-06
1.47439e-06
1.47439e-06
1.47439e-06
1.47439e-06
1.47439e-06
1.47871e-06
1.48038e-06
1.48038e-06
1.47788e-06
1.47439e-06
1.47439e-06
1.47439e-06
1.47439e-06
1.47439e-06
1.47439e-06
1.47868e-06
1.47873e-06
1.47806e-06
1.47439e-06
1.47439e-06
1.47439e-06
1.47439e-06
1.47439e-06
1.47439e-06
1.47869e-06
1.4807e-06
1.48014e-06
1.47773e-06
1.47439e-06
1.47439e-06
1.47439e-06
1.47439e-06
1.47843e-06
1.47869e-06
1.48062e-06
1.48041e-06
1.47855e-06
1.47863e-06
1.4787e-06
1.47868e-06
1.47869e-06
1.47869e-06
1.48062e-06
1.48059e-06
1.48038e-06
1.47873e-06
1.4807e-06
1.48062e-06
1.46166e-06
1.46149e-06
1.46132e-06
1.45919e-06
1.45907e-06
1.459e-06
1.45917e-06
1.46126e-06
1.46152e-06
1.46132e-06
1.45851e-06
1.45551e-06
1.45551e-06
1.45551e-06
1.45551e-06
1.45885e-06
1.45967e-06
1.45919e-06
1.45551e-06
1.45551e-06
1.45551e-06
1.45551e-06
1.45551e-06
1.45551e-06
1.45974e-06
1.4617e-06
1.46166e-06
1.45907e-06
1.45551e-06
1.45551e-06
1.45551e-06
1.45551e-06
1.45551e-06
1.45551e-06
1.45982e-06
1.46149e-06
1.46149e-06
1.459e-06
1.45551e-06
1.45551e-06
1.45551e-06
1.45551e-06
1.45551e-06
1.45551e-06
1.4598e-06
1.45984e-06
1.45917e-06
1.45551e-06
1.45551e-06
1.45551e-06
1.45551e-06
1.45551e-06
1.45551e-06
1.4598e-06
1.46181e-06
1.46126e-06
1.45885e-06
1.45551e-06
1.45551e-06
1.45551e-06
1.45551e-06
1.45955e-06
1.45981e-06
1.46174e-06
1.46152e-06
1.45967e-06
1.45974e-06
1.45982e-06
1.45979e-06
1.4598e-06
1.45981e-06
1.46173e-06
1.4617e-06
1.46149e-06
1.45984e-06
1.46181e-06
1.46174e-06
1.44277e-06
1.4426e-06
1.44243e-06
1.4403e-06
1.44018e-06
1.44011e-06
1.44029e-06
1.44237e-06
1.44264e-06
1.44243e-06
1.43962e-06
1.43662e-06
1.43662e-06
1.43662e-06
1.43662e-06
1.43996e-06
1.44078e-06
1.4403e-06
1.43662e-06
1.43662e-06
1.43662e-06
1.43662e-06
1.43662e-06
1.43662e-06
1.44085e-06
1.44281e-06
1.44277e-06
1.44018e-06
1.43662e-06
1.43662e-06
1.43662e-06
1.43662e-06
1.43662e-06
1.43662e-06
1.44093e-06
1.4426e-06
1.4426e-06
1.44011e-06
1.43662e-06
1.43662e-06
1.43662e-06
1.43662e-06
1.43662e-06
1.43662e-06
1.44091e-06
1.44096e-06
1.44029e-06
1.43662e-06
1.43662e-06
1.43662e-06
1.43662e-06
1.43662e-06
1.43662e-06
1.44092e-06
1.44292e-06
1.44237e-06
1.43996e-06
1.43662e-06
1.43662e-06
1.43662e-06
1.43662e-06
1.44066e-06
1.44092e-06
1.44285e-06
1.44264e-06
1.44078e-06
1.44085e-06
1.44093e-06
1.44091e-06
1.44092e-06
1.44092e-06
1.44285e-06
1.44281e-06
1.44261e-06
1.44096e-06
1.44292e-06
1.44285e-06
1.42389e-06
1.42372e-06
1.42354e-06
1.42142e-06
1.4213e-06
1.42122e-06
1.4214e-06
1.42348e-06
1.42375e-06
1.42354e-06
1.42073e-06
1.41773e-06
1.41773e-06
1.41773e-06
1.41773e-06
1.42107e-06
1.42189e-06
1.42142e-06
1.41773e-06
1.41773e-06
1.41773e-06
1.41773e-06
1.41773e-06
1.41773e-06
1.42197e-06
1.42393e-06
1.42388e-06
1.4213e-06
1.41773e-06
1.41773e-06
1.41773e-06
1.41773e-06
1.41773e-06
1.41773e-06
1.42205e-06
1.42372e-06
1.42372e-06
1.42122e-06
1.41773e-06
1.41773e-06
1.41773e-06
1.41773e-06
1.41773e-06
1.41773e-06
1.42202e-06
1.42207e-06
1.4214e-06
1.41773e-06
1.41773e-06
1.41773e-06
1.41773e-06
1.41773e-06
1.41773e-06
1.42203e-06
1.42404e-06
1.42348e-06
1.42107e-06
1.41773e-06
1.41773e-06
1.41773e-06
1.41773e-06
1.42178e-06
1.42204e-06
1.42396e-06
1.42375e-06
1.4219e-06
1.42197e-06
1.42205e-06
1.42202e-06
1.42203e-06
1.42204e-06
1.42396e-06
1.42393e-06
1.42372e-06
1.42207e-06
1.42404e-06
1.42396e-06
1.405e-06
1.40483e-06
1.40466e-06
1.40253e-06
1.40241e-06
1.40234e-06
1.40251e-06
1.4046e-06
1.40487e-06
1.40466e-06
1.40185e-06
1.39885e-06
1.39885e-06
1.39885e-06
1.39885e-06
1.40219e-06
1.40301e-06
1.40253e-06
1.39885e-06
1.39885e-06
1.39885e-06
1.39885e-06
1.39885e-06
1.39885e-06
1.40308e-06
1.40504e-06
1.405e-06
1.40241e-06
1.39885e-06
1.39885e-06
1.39885e-06
1.39885e-06
1.39885e-06
1.39885e-06
1.40316e-06
1.40483e-06
1.40483e-06
1.40234e-06
1.39885e-06
1.39885e-06
1.39885e-06
1.39885e-06
1.39885e-06
1.39885e-06
1.40314e-06
1.40318e-06
1.40251e-06
1.39885e-06
1.39885e-06
1.39885e-06
1.39885e-06
1.39885e-06
1.39885e-06
1.40314e-06
1.40515e-06
1.4046e-06
1.40219e-06
1.39885e-06
1.39885e-06
1.39885e-06
1.39885e-06
1.40289e-06
1.40315e-06
1.40508e-06
1.40487e-06
1.40301e-06
1.40308e-06
1.40316e-06
1.40314e-06
1.40314e-06
1.40315e-06
1.40507e-06
1.40504e-06
1.40483e-06
1.40318e-06
1.40515e-06
1.40508e-06
1.38611e-06
1.38595e-06
1.38577e-06
1.38365e-06
1.38353e-06
1.38345e-06
1.38363e-06
1.38571e-06
1.38598e-06
1.38577e-06
1.38296e-06
1.37996e-06
1.37996e-06
1.37996e-06
1.37996e-06
1.3833e-06
1.38412e-06
1.38365e-06
1.37996e-06
1.37996e-06
1.37996e-06
1.37996e-06
1.37996e-06
1.37996e-06
1.3842e-06
1.38615e-06
1.38611e-06
1.38353e-06
1.37996e-06
1.37996e-06
1.37996e-06
1.37996e-06
1.37996e-06
1.37996e-06
1.38428e-06
1.38595e-06
1.38595e-06
1.38345e-06
1.37996e-06
1.37996e-06
1.37996e-06
1.37996e-06
1.37996e-06
1.37996e-06
1.38425e-06
1.3843e-06
1.38363e-06
1.37996e-06
1.37996e-06
1.37996e-06
1.37996e-06
1.37996e-06
1.37996e-06
1.38426e-06
1.38627e-06
1.38571e-06
1.3833e-06
1.37996e-06
1.37996e-06
1.37996e-06
1.37996e-06
1.384e-06
1.38426e-06
1.38619e-06
1.38598e-06
1.38412e-06
1.3842e-06
1.38427e-06
1.38425e-06
1.38426e-06
1.38426e-06
1.38619e-06
1.38616e-06
1.38595e-06
1.3843e-06
1.38627e-06
1.38619e-06
1.36723e-06
1.36706e-06
1.36689e-06
1.36476e-06
1.36464e-06
1.36457e-06
1.36474e-06
1.36683e-06
1.3671e-06
1.36689e-06
1.36408e-06
1.36108e-06
1.36108e-06
1.36108e-06
1.36108e-06
1.36442e-06
1.36524e-06
1.36476e-06
1.36108e-06
1.36108e-06
1.36108e-06
1.36108e-06
1.36108e-06
1.36108e-06
1.36531e-06
1.36727e-06
1.36723e-06
1.36464e-06
1.36108e-06
1.36108e-06
1.36108e-06
1.36108e-06
1.36108e-06
1.36108e-06
1.36539e-06
1.36706e-06
1.36706e-06
1.36457e-06
1.36108e-06
1.36108e-06
1.36108e-06
1.36108e-06
1.36108e-06
1.36108e-06
1.36537e-06
1.36541e-06
1.36474e-06
1.36108e-06
1.36108e-06
1.36108e-06
1.36108e-06
1.36108e-06
1.36108e-06
1.36537e-06
1.36738e-06
1.36683e-06
1.36442e-06
1.36108e-06
1.36108e-06
1.36108e-06
1.36108e-06
1.36512e-06
1.36538e-06
1.36731e-06
1.3671e-06
1.36524e-06
1.36531e-06
1.36539e-06
1.36537e-06
1.36537e-06
1.36538e-06
1.3673e-06
1.36727e-06
1.36706e-06
1.36541e-06
1.36738e-06
1.36731e-06
1.34834e-06
1.34818e-06
1.348e-06
1.34588e-06
1.34576e-06
1.34568e-06
1.34586e-06
1.34794e-06
1.34821e-06
1.348e-06
1.34519e-06
1.34219e-06
1.34219e-06
1.34219e-06
1.34219e-06
1.34553e-06
1.34635e-06
1.34588e-06
1.34219e-06
1.34219e-06
1.34219e-06
1.34219e-06
1.34219e-06
1.34219e-06
1.34643e-06
1.34838e-06
1.34834e-06
1.34576e-06
1.34219e-06
1.34219e-06
1.34219e-06
1.34219e-06
1.34219e-06
1.34219e-06
1.3465e-06
1.34818e-06
1.34818e-06
1.34568e-06
1.34219e-06
1.34219e-06
1.34219e-06
1.34219e-06
1.34219e-06
1.34219e-06
1.34648e-06
1.34653e-06
1.34586e-06
1.34219e-06
1.34219e-06
1.34219e-06
1.34219e-06
1.34219e-06
1.34219e-06
1.34649e-06
1.3485e-06
1.34794e-06
1.34553e-06
1.34219e-06
1.34219e-06
1.34219e-06
1.34219e-06
1.34623e-06
1.34649e-06
1.34842e-06
1.34821e-06
1.34635e-06
1.34643e-06
1.3465e-06
1.34648e-06
1.34649e-06
1.34649e-06
1.34842e-06
1.34839e-06
1.34818e-06
1.34653e-06
1.34849e-06
1.34842e-06
1.32946e-06
1.32929e-06
1.32912e-06
1.32699e-06
1.32687e-06
1.3268e-06
1.32697e-06
1.32906e-06
1.32932e-06
1.32912e-06
1.32631e-06
1.32331e-06
1.32331e-06
1.32331e-06
1.32331e-06
1.32665e-06
1.32747e-06
1.32699e-06
1.32331e-06
1.32331e-06
1.32331e-06
1.32331e-06
1.32331e-06
1.32331e-06
1.32754e-06
1.3295e-06
1.32946e-06
1.32687e-06
1.32331e-06
1.32331e-06
1.32331e-06
1.32331e-06
1.32331e-06
1.32331e-06
1.32762e-06
1.32929e-06
1.32929e-06
1.3268e-06
1.32331e-06
1.32331e-06
1.32331e-06
1.32331e-06
1.32331e-06
1.32331e-06
1.3276e-06
1.32764e-06
1.32697e-06
1.32331e-06
1.32331e-06
1.32331e-06
1.32331e-06
1.32331e-06
1.32331e-06
1.3276e-06
1.32961e-06
1.32906e-06
1.32665e-06
1.32331e-06
1.32331e-06
1.32331e-06
1.32331e-06
1.32735e-06
1.32761e-06
1.32954e-06
1.32933e-06
1.32747e-06
1.32754e-06
1.32762e-06
1.3276e-06
1.3276e-06
1.32761e-06
1.32953e-06
1.3295e-06
1.32929e-06
1.32764e-06
1.32961e-06
1.32954e-06
1.31057e-06
1.31041e-06
1.31023e-06
1.30811e-06
1.30799e-06
1.30791e-06
1.30809e-06
1.31017e-06
1.31044e-06
1.31023e-06
1.30742e-06
1.30442e-06
1.30442e-06
1.30442e-06
1.30442e-06
1.30776e-06
1.30858e-06
1.30811e-06
1.30442e-06
1.30442e-06
1.30442e-06
1.30442e-06
1.30442e-06
1.30442e-06
1.30866e-06
1.31061e-06
1.31057e-06
1.30799e-06
1.30442e-06
1.30442e-06
1.30442e-06
1.30442e-06
1.30442e-06
1.30442e-06
1.30873e-06
1.31041e-06
1.31041e-06
1.30791e-06
1.30442e-06
1.30442e-06
1.30442e-06
1.30442e-06
1.30442e-06
1.30442e-06
1.30871e-06
1.30876e-06
1.30809e-06
1.30442e-06
1.30442e-06
1.30442e-06
1.30442e-06
1.30442e-06
1.30442e-06
1.30872e-06
1.31073e-06
1.31017e-06
1.30776e-06
1.30442e-06
1.30442e-06
1.30442e-06
1.30442e-06
1.30846e-06
1.30872e-06
1.31065e-06
1.31044e-06
1.30858e-06
1.30866e-06
1.30873e-06
1.30871e-06
1.30872e-06
1.30872e-06
1.31065e-06
1.31062e-06
1.31041e-06
1.30876e-06
1.31073e-06
1.31065e-06
1.29169e-06
1.29152e-06
1.29135e-06
1.28922e-06
1.2891e-06
1.28903e-06
1.2892e-06
1.29129e-06
1.29156e-06
1.29135e-06
1.28854e-06
1.28554e-06
1.28554e-06
1.28554e-06
1.28554e-06
1.28888e-06
1.2897e-06
1.28922e-06
1.28554e-06
1.28554e-06
1.28554e-06
1.28554e-06
1.28554e-06
1.28554e-06
1.28977e-06
1.29173e-06
1.29169e-06
1.2891e-06
1.28554e-06
1.28554e-06
1.28554e-06
1.28554e-06
1.28554e-06
1.28554e-06
1.28985e-06
1.29152e-06
1.29152e-06
1.28903e-06
1.28554e-06
1.28554e-06
1.28554e-06
1.28554e-06
1.28554e-06
1.28554e-06
1.28983e-06
1.28987e-06
1.2892e-06
1.28554e-06
1.28554e-06
1.28554e-06
1.28554e-06
1.28554e-06
1.28554e-06
1.28983e-06
1.29184e-06
1.29129e-06
1.28888e-06
1.28554e-06
1.28554e-06
1.28554e-06
1.28554e-06
1.28958e-06
1.28984e-06
1.29177e-06
1.29156e-06
1.2897e-06
1.28977e-06
1.28985e-06
1.28983e-06
1.28983e-06
1.28984e-06
1.29176e-06
1.29173e-06
1.29152e-06
1.28987e-06
1.29184e-06
1.29177e-06
1.2728e-06
1.27264e-06
1.27246e-06
1.27034e-06
1.27022e-06
1.27014e-06
1.27032e-06
1.2724e-06
1.27267e-06
1.27246e-06
1.26965e-06
1.26665e-06
1.26665e-06
1.26665e-06
1.26665e-06
1.26999e-06
1.27081e-06
1.27034e-06
1.26665e-06
1.26665e-06
1.26665e-06
1.26665e-06
1.26665e-06
1.26665e-06
1.27089e-06
1.27284e-06
1.2728e-06
1.27022e-06
1.26665e-06
1.26665e-06
1.26665e-06
1.26665e-06
1.26665e-06
1.26665e-06
1.27097e-06
1.27264e-06
1.27264e-06
1.27014e-06
1.26665e-06
1.26665e-06
1.26665e-06
1.26665e-06
1.26665e-06
1.26665e-06
1.27094e-06
1.27099e-06
1.27032e-06
1.26665e-06
1.26665e-06
1.26665e-06
1.26665e-06
1.26665e-06
1.26665e-06
1.27095e-06
1.27296e-06
1.2724e-06
1.26999e-06
1.26665e-06
1.26665e-06
1.26665e-06
1.26665e-06
1.2707e-06
1.27096e-06
1.27288e-06
1.27267e-06
1.27082e-06
1.27089e-06
1.27097e-06
1.27094e-06
1.27095e-06
1.27096e-06
1.27288e-06
1.27285e-06
1.27264e-06
1.27099e-06
1.27296e-06
1.27288e-06
1.25392e-06
1.25375e-06
1.25358e-06
1.25145e-06
1.25133e-06
1.25126e-06
1.25143e-06
1.25352e-06
1.25379e-06
1.25358e-06
1.25077e-06
1.24777e-06
1.24777e-06
1.24777e-06
1.24777e-06
1.25111e-06
1.25193e-06
1.25145e-06
1.24777e-06
1.24777e-06
1.24777e-06
1.24777e-06
1.24777e-06
1.24777e-06
1.252e-06
1.25396e-06
1.25392e-06
1.25133e-06
1.24777e-06
1.24777e-06
1.24777e-06
1.24777e-06
1.24777e-06
1.24777e-06
1.25208e-06
1.25375e-06
1.25375e-06
1.25126e-06
1.24777e-06
1.24777e-06
1.24777e-06
1.24777e-06
1.24777e-06
1.24777e-06
1.25206e-06
1.25211e-06
1.25143e-06
1.24777e-06
1.24777e-06
1.24777e-06
1.24777e-06
1.24777e-06
1.24777e-06
1.25206e-06
1.25407e-06
1.25352e-06
1.25111e-06
1.24777e-06
1.24777e-06
1.24777e-06
1.24777e-06
1.25181e-06
1.25207e-06
1.254e-06
1.25379e-06
1.25193e-06
1.252e-06
1.25208e-06
1.25206e-06
1.25206e-06
1.25207e-06
1.254e-06
1.25396e-06
1.25375e-06
1.25211e-06
1.25407e-06
1.254e-06
1.23504e-06
1.23487e-06
1.23469e-06
1.23257e-06
1.23245e-06
1.23238e-06
1.23255e-06
1.23463e-06
1.2349e-06
1.2347e-06
1.23189e-06
1.22889e-06
1.22889e-06
1.22889e-06
1.22889e-06
1.23222e-06
1.23305e-06
1.23257e-06
1.22889e-06
1.22889e-06
1.22889e-06
1.22889e-06
1.22889e-06
1.22889e-06
1.23312e-06
1.23508e-06
1.23504e-06
1.23245e-06
1.22889e-06
1.22889e-06
1.22889e-06
1.22889e-06
1.22889e-06
1.22889e-06
1.2332e-06
1.23487e-06
1.23487e-06
1.23238e-06
1.22889e-06
1.22889e-06
1.22889e-06
1.22889e-06
1.22889e-06
1.22889e-06
1.23317e-06
1.23322e-06
1.23255e-06
1.22889e-06
1.22889e-06
1.22889e-06
1.22889e-06
1.22889e-06
1.22889e-06
1.23318e-06
1.23519e-06
1.23463e-06
1.23222e-06
1.22889e-06
1.22889e-06
1.22889e-06
1.22889e-06