/*--------------------------------*- C++ -*----------------------------------*\
| =========                 |                                                 |
| \\      /  F ield         | OpenFOAM: The Open Source CFD Toolbox           |
|  \\    /   O peration     | Version:  v2012                                 |
|   \\  /    A nd           | Website:  www.openfoam.com                      |
|    \\/     M anipulation  |                                                 |
\*---------------------------------------------------------------------------*/
FoamFile
{
    version     2.0;
    format      ascii;
    class       volScalarField;
    location    "150";
    object      p;
}
// * * * * * * * * * * * * * * * * * * * * * * * * * * * * * * * * * * * * * //

dimensions      [0 2 -2 0 0 0 0];


internalField   nonuniform List<scalar> 
85864
(
0.00354792
0.00354775
0.00354776
0.00355056
0.00349434
0.00349448
0.00349448
0.00349669
0.00344308
0.00344311
0.00344311
0.00344542
0.00339117
0.00339113
0.00339113
0.00339341
0.00334009
0.00334004
0.00334004
0.00334227
0.00329038
0.00329033
0.00329033
0.00329253
0.0032421
0.00324207
0.00324207
0.00324423
0.00319512
0.0031951
0.0031951
0.00319722
0.00314922
0.00314922
0.00314922
0.00315131
0.00310422
0.00310422
0.00310423
0.00310629
0.00305995
0.00305995
0.00305995
0.003062
0.00301627
0.00301628
0.00301628
0.0030183
0.0029731
0.00297311
0.00297311
0.0029751
0.0029304
0.00293041
0.00293041
0.00293238
0.00288812
0.00288813
0.00288813
0.00289009
0.00284625
0.00284626
0.00284626
0.00284821
0.00280476
0.00280477
0.00280477
0.0028067
0.00276363
0.00276364
0.00276364
0.00276555
0.00272283
0.00272283
0.00272284
0.00272474
0.00268234
0.00268234
0.00268234
0.00268423
0.00264214
0.00264214
0.00264214
0.00264402
0.0026022
0.0026022
0.0026022
0.00260407
0.0025625
0.0025625
0.0025625
0.00256436
0.002523
0.002523
0.002523
0.00252485
0.00248368
0.00248368
0.00248368
0.00248552
0.0024445
0.0024445
0.0024445
0.00244632
0.00240546
0.00240545
0.00240545
0.00240726
0.00236659
0.00236657
0.00236657
0.00236837
0.00232795
0.00232793
0.00232793
0.0023297
0.00228967
0.00228964
0.00228963
0.00229137
0.00225183
0.0022518
0.00225179
0.0022535
0.00221452
0.00221448
0.00221448
0.00221617
0.00217774
0.0021777
0.00217771
0.00217936
0.00214141
0.00214137
0.00214138
0.002143
0.00210541
0.00210539
0.0021054
0.002107
0.00206966
0.00206965
0.00206964
0.00207125
0.00203412
0.00203411
0.0020341
0.0020357
0.00199876
0.00199873
0.00199873
0.00200031
0.00196353
0.00196352
0.00196351
0.0019651
0.00192839
0.00192836
0.00192836
0.00192994
0.00189329
0.00189326
0.00189326
0.00189484
0.00185823
0.00185819
0.00185819
0.00185977
0.00182316
0.00182314
0.00182313
0.00182471
0.0017881
0.00178808
0.00178809
0.00178965
0.00175304
0.00175301
0.00175301
0.00175459
0.00171797
0.00171794
0.00171794
0.00171952
0.00168289
0.00168286
0.00168286
0.00168444
0.0035613
0.00356148
0.00356148
0.00356129
0.00356148
0.00356148
0.00356221
0.0035622
0.00356221
0.00356221
0.00356148
0.00356148
0.00356129
0.00356148
0.00356148
0.0035613
0.00355056
0.00350438
0.00354776
0.00354775
0.00350687
0.00350687
0.00355056
0.00350437
0.00354775
0.00354775
0.00350687
0.00350687
0.00354775
0.00350687
0.00350687
0.00355056
0.00350437
0.00354776
0.00350687
0.00350687
0.00350437
0.00349669
0.00345345
0.00349448
0.00349448
0.00345611
0.00345611
0.00349669
0.00345345
0.00349448
0.00349448
0.00345611
0.00345611
0.00349448
0.00345611
0.00345611
0.00349669
0.00345345
0.00349448
0.00345611
0.00345611
0.00345345
0.00344542
0.0034014
0.00344311
0.00344311
0.00340408
0.00340408
0.00344542
0.0034014
0.00344311
0.00344311
0.00340408
0.00340408
0.00344311
0.00340408
0.00340408
0.00344542
0.0034014
0.00344311
0.00340408
0.00340408
0.0034014
0.00339341
0.00335007
0.00339113
0.00339113
0.00335269
0.00335269
0.00339341
0.00335007
0.00339113
0.00339113
0.00335269
0.00335269
0.00339113
0.00335269
0.00335269
0.00339341
0.00335007
0.00339113
0.00335269
0.00335269
0.00335007
0.00334227
0.00330011
0.00334004
0.00334004
0.00330262
0.00330262
0.00334227
0.00330011
0.00334004
0.00334004
0.00330262
0.00330262
0.00334004
0.00330262
0.00330262
0.00334227
0.00330011
0.00334004
0.00330262
0.00330262
0.00330011
0.00329253
0.00325159
0.00329033
0.00329033
0.00325401
0.00325401
0.00329253
0.00325159
0.00329033
0.00329033
0.00325401
0.00325401
0.00329033
0.00325401
0.00325401
0.00329253
0.00325159
0.00329033
0.00325401
0.00325401
0.00325159
0.00324423
0.0032044
0.00324207
0.00324207
0.00320673
0.00320673
0.00324423
0.0032044
0.00324207
0.00324207
0.00320673
0.00320673
0.00324207
0.00320673
0.00320673
0.00324423
0.0032044
0.00324207
0.00320673
0.00320673
0.0032044
0.00319722
0.00315834
0.0031951
0.0031951
0.00316059
0.00316059
0.00319722
0.00315834
0.0031951
0.0031951
0.0031606
0.0031606
0.0031951
0.0031606
0.0031606
0.00319722
0.00315834
0.0031951
0.0031606
0.0031606
0.00315834
0.00315131
0.0031132
0.00314921
0.00314921
0.0031154
0.0031154
0.00315131
0.0031132
0.00314922
0.00314922
0.0031154
0.0031154
0.00314922
0.0031154
0.0031154
0.00315131
0.0031132
0.00314922
0.0031154
0.0031154
0.0031132
0.00310629
0.00306881
0.00310422
0.00310422
0.00307096
0.00307096
0.00310629
0.00306881
0.00310422
0.00310422
0.00307096
0.00307096
0.00310422
0.00307096
0.00307096
0.00310629
0.00306881
0.00310423
0.00307096
0.00307096
0.00306881
0.003062
0.00302503
0.00305995
0.00305995
0.00302714
0.00302714
0.003062
0.00302503
0.00305995
0.00305995
0.00302715
0.00302714
0.00305995
0.00302715
0.00302715
0.003062
0.00302503
0.00305995
0.00302715
0.00302715
0.00302502
0.0030183
0.00298176
0.00301628
0.00301628
0.00298386
0.00298386
0.0030183
0.00298176
0.00301628
0.00301628
0.00298386
0.00298386
0.00301628
0.00298386
0.00298386
0.0030183
0.00298176
0.00301628
0.00298386
0.00298386
0.00298176
0.00297511
0.00293897
0.00297311
0.00297311
0.00294104
0.00294104
0.00297511
0.00293897
0.00297311
0.00297311
0.00294104
0.00294104
0.00297311
0.00294104
0.00294104
0.00297511
0.00293897
0.00297311
0.00294104
0.00294104
0.00293897
0.00293238
0.00289664
0.00293041
0.00293041
0.00289866
0.00289866
0.00293238
0.00289664
0.00293041
0.00293041
0.00289866
0.00289866
0.00293041
0.00289866
0.00289866
0.00293238
0.00289663
0.00293041
0.00289866
0.00289866
0.00289663
0.0028901
0.00285471
0.00288813
0.00288813
0.00285669
0.00285669
0.0028901
0.00285471
0.00288813
0.00288813
0.00285669
0.00285669
0.00288813
0.00285669
0.00285669
0.00289009
0.00285471
0.00288813
0.00285669
0.00285669
0.00285471
0.00284821
0.00281316
0.00284626
0.00284626
0.00281511
0.00281511
0.00284821
0.00281316
0.00284626
0.00284626
0.00281511
0.00281511
0.00284626
0.00281511
0.00281511
0.00284821
0.00281316
0.00284626
0.00281511
0.00281511
0.00281316
0.0028067
0.00277197
0.00280477
0.00280477
0.00277389
0.00277389
0.0028067
0.00277197
0.00280477
0.00280477
0.00277389
0.00277389
0.00280477
0.00277389
0.00277389
0.0028067
0.00277197
0.00280477
0.00277389
0.00277389
0.00277197
0.00276555
0.00273112
0.00276363
0.00276364
0.00273301
0.00273301
0.00276555
0.00273112
0.00276364
0.00276364
0.00273301
0.00273301
0.00276364
0.00273301
0.002733
0.00276555
0.00273112
0.00276364
0.002733
0.002733
0.00273112
0.00272474
0.00269058
0.00272283
0.00272283
0.00269244
0.00269244
0.00272474
0.00269058
0.00272283
0.00272283
0.00269244
0.00269244
0.00272283
0.00269244
0.00269244
0.00272474
0.00269058
0.00272283
0.00269244
0.00269244
0.00269058
0.00268423
0.00265034
0.00268234
0.00268234
0.00265217
0.00265217
0.00268423
0.00265034
0.00268234
0.00268234
0.00265217
0.00265217
0.00268234
0.00265217
0.00265217
0.00268423
0.00265034
0.00268234
0.00265217
0.00265217
0.00265034
0.00264402
0.00261036
0.00264214
0.00264214
0.00261216
0.00261216
0.00264402
0.00261036
0.00264214
0.00264214
0.00261216
0.00261216
0.00264214
0.00261216
0.00261216
0.00264402
0.00261036
0.00264214
0.00261216
0.00261216
0.00261036
0.00260407
0.00257062
0.0026022
0.0026022
0.0025724
0.0025724
0.00260407
0.00257062
0.0026022
0.0026022
0.0025724
0.0025724
0.0026022
0.0025724
0.0025724
0.00260407
0.00257062
0.0026022
0.0025724
0.0025724
0.00257062
0.00256435
0.00253109
0.0025625
0.0025625
0.00253286
0.00253286
0.00256435
0.00253109
0.0025625
0.0025625
0.00253286
0.00253286
0.0025625
0.00253286
0.00253286
0.00256435
0.00253109
0.0025625
0.00253286
0.00253286
0.00253109
0.00252485
0.00249174
0.002523
0.002523
0.00249349
0.00249349
0.00252485
0.00249174
0.002523
0.002523
0.00249349
0.0024935
0.002523
0.0024935
0.0024935
0.00252485
0.00249175
0.002523
0.0024935
0.0024935
0.00249175
0.00248551
0.00245254
0.00248368
0.00248368
0.00245428
0.00245428
0.00248552
0.00245254
0.00248368
0.00248368
0.00245428
0.00245428
0.00248368
0.00245428
0.00245428
0.00248552
0.00245254
0.00248368
0.00245428
0.00245428
0.00245254
0.00244632
0.00241346
0.0024445
0.0024445
0.0024152
0.0024152
0.00244632
0.00241347
0.0024445
0.0024445
0.0024152
0.0024152
0.0024445
0.0024152
0.0024152
0.00244632
0.00241347
0.0024445
0.0024152
0.0024152
0.00241347
0.00240726
0.00237454
0.00240545
0.00240545
0.00237628
0.00237628
0.00240726
0.00237454
0.00240545
0.00240545
0.00237628
0.00237627
0.00240545
0.00237627
0.00237627
0.00240726
0.00237454
0.00240545
0.00237628
0.00237628
0.00237454
0.00236837
0.00233584
0.00236658
0.00236657
0.00233757
0.00233757
0.00236837
0.00233584
0.00236657
0.00236657
0.00233757
0.00233756
0.00236657
0.00233757
0.00233756
0.00236836
0.00233584
0.00236657
0.00233756
0.00233756
0.00233584
0.0023297
0.00229746
0.00232793
0.00232793
0.00229918
0.00229918
0.0023297
0.00229746
0.00232793
0.00232793
0.00229918
0.00229917
0.00232793
0.00229918
0.00229917
0.0023297
0.00229746
0.00232793
0.00229917
0.00229917
0.00229746
0.00229138
0.00225952
0.00228964
0.00228964
0.00226121
0.00226121
0.00229137
0.00225952
0.00228964
0.00228963
0.00226121
0.00226121
0.00228963
0.00226121
0.00226121
0.00229137
0.00225951
0.00228963
0.00226121
0.00226121
0.00225952
0.0022535
0.0022221
0.0022518
0.00225179
0.00222377
0.00222376
0.0022535
0.00222209
0.0022518
0.00225179
0.00222376
0.00222376
0.0022518
0.00222376
0.00222376
0.0022535
0.00222209
0.00225179
0.00222376
0.00222376
0.00222209
0.00221617
0.00218521
0.00221449
0.00221449
0.00218685
0.00218685
0.00221616
0.00218521
0.00221449
0.00221448
0.00218685
0.00218685
0.00221449
0.00218685
0.00218685
0.00221616
0.00218521
0.00221448
0.00218685
0.00218685
0.0021852
0.00217936
0.00214879
0.00217771
0.00217769
0.00215042
0.00215042
0.00217935
0.00214878
0.00217771
0.00217771
0.00215042
0.00215043
0.0021777
0.00215041
0.00215041
0.00217936
0.0021488
0.0021777
0.00215042
0.00215042
0.00214879
0.00214301
0.00211275
0.00214137
0.00214137
0.00211436
0.00211435
0.002143
0.00211274
0.00214138
0.00214138
0.00211436
0.00211437
0.00214137
0.00211436
0.00211436
0.00214301
0.00211275
0.00214137
0.00211437
0.00211437
0.00211274
0.002107
0.00207694
0.00210539
0.00210538
0.00207856
0.00207857
0.002107
0.00207696
0.00210539
0.00210539
0.00207856
0.00207856
0.00210538
0.00207857
0.00207856
0.00210701
0.00207695
0.00210539
0.00207856
0.00207857
0.00207695
0.00207123
0.00204136
0.00206964
0.00206965
0.00204297
0.00204297
0.00207125
0.00204137
0.00206964
0.00206964
0.00204297
0.00204297
0.00206965
0.00204298
0.00204298
0.00207124
0.00204137
0.00206965
0.00204297
0.00204297
0.00204138
0.00203568
0.00200597
0.0020341
0.0020341
0.00200756
0.00200756
0.00203569
0.00200596
0.00203409
0.0020341
0.00200756
0.00200755
0.00203411
0.00200755
0.00200756
0.00203568
0.00200596
0.0020341
0.00200756
0.00200756
0.00200596
0.00200033
0.00197072
0.00199874
0.00199873
0.00197231
0.00197231
0.00200031
0.00197073
0.00199874
0.00199873
0.0019723
0.0019723
0.00199873
0.00197231
0.0019723
0.0020003
0.00197072
0.00199874
0.0019723
0.0019723
0.00197073
0.00196509
0.00193556
0.00196351
0.00196351
0.00193714
0.00193714
0.0019651
0.00193557
0.00196351
0.00196351
0.00193714
0.00193714
0.0019635
0.00193715
0.00193714
0.00196509
0.00193557
0.0019635
0.00193714
0.00193714
0.00193556
0.00192994
0.00190046
0.00192836
0.00192836
0.00190203
0.00190203
0.00192994
0.00190046
0.00192836
0.00192836
0.00190204
0.00190203
0.00192836
0.00190203
0.00190204
0.00192994
0.00190045
0.00192835
0.00190203
0.00190203
0.00190046
0.00189483
0.00186538
0.00189326
0.00189326
0.00186696
0.00186696
0.00189483
0.00186538
0.00189327
0.00189326
0.00186696
0.00186695
0.00189327
0.00186696
0.00186696
0.00189484
0.00186538
0.00189327
0.00186696
0.00186697
0.00186539
0.00185976
0.00183032
0.0018582
0.0018582
0.0018319
0.00183191
0.00185977
0.00183032
0.00185819
0.00185819
0.0018319
0.0018319
0.00185819
0.0018319
0.0018319
0.00185977
0.00183032
0.0018582
0.00183189
0.0018319
0.00183033
0.00182471
0.00179526
0.00182314
0.00182314
0.00179684
0.00179684
0.00182471
0.00179526
0.00182313
0.00182314
0.00179684
0.00179685
0.00182313
0.00179684
0.00179684
0.00182471
0.00179527
0.00182313
0.00179685
0.00179684
0.00179527
0.00178965
0.00176021
0.00178808
0.00178807
0.00176178
0.00176178
0.00178965
0.0017602
0.00178808
0.00178808
0.00176178
0.00176178
0.00178808
0.00176178
0.00176178
0.00178965
0.0017602
0.00178808
0.00176178
0.00176178
0.00176021
0.00175459
0.00172513
0.00175302
0.00175301
0.00172671
0.00172671
0.00175458
0.00172513
0.00175301
0.00175301
0.00172671
0.00172671
0.00175301
0.00172671
0.00172671
0.00175459
0.00172513
0.00175301
0.00172671
0.00172671
0.00172514
0.00171952
0.00169005
0.00171794
0.00171794
0.00169163
0.00169163
0.00171951
0.00169006
0.00171794
0.00171794
0.00169163
0.00169163
0.00171794
0.00169163
0.00169163
0.00171952
0.00169005
0.00171794
0.00169163
0.00169163
0.00169006
0.00168443
0.00165497
0.00168286
0.00168286
0.00165654
0.00165654
0.00168444
0.00165498
0.00168286
0.00168286
0.00165654
0.00165654
0.00168286
0.00165654
0.00165654
0.00168443
0.00165498
0.00168286
0.00165654
0.00165655
0.00165498
0.00357043
0.00358039
0.00357501
0.00357501
0.00359747
0.00358438
0.00361286
0.0035783
0.00359747
0.00358438
0.0035783
0.00361287
0.00358886
0.00361694
0.00361686
0.00352939
0.00352947
0.00354787
0.00352768
0.00350731
0.00352663
0.00352938
0.00352947
0.00354782
0.00352767
0.00354792
0.00354792
0.00354792
0.00350676
0.00350676
0.00350676
0.00350675
0.00352808
0.00354492
0.003548
0.00353227
0.00355021
0.00352903
0.0035329
0.00350753
0.00352667
0.00352808
0.003548
0.00354492
0.00353227
0.00355021
0.00353291
0.00352903
0.00354151
0.00354149
0.00352912
0.00352934
0.00352936
0.00347971
0.00349758
0.0034986
0.0034788
0.00349696
0.00347834
0.00347971
0.00349757
0.0034986
0.0034788
0.00349434
0.00349434
0.00349434
0.00345605
0.00345605
0.00345605
0.00345605
0.0034788
0.00349807
0.00349441
0.00348186
0.00349736
0.00347927
0.0034818
0.00349696
0.00347834
0.0034788
0.00349441
0.00349807
0.00348186
0.00349736
0.0034818
0.00347927
0.00349834
0.00349835
0.00347923
0.0034794
0.0034794
0.00342745
0.00344604
0.00344689
0.00342667
0.00344575
0.00342643
0.00342745
0.00344604
0.00344689
0.00342667
0.00344308
0.00344308
0.00344308
0.0034041
0.0034041
0.0034041
0.0034041
0.00342693
0.00344642
0.00344308
0.00343009
0.00344613
0.0034271
0.00343008
0.00344575
0.00342644
0.00342693
0.00344309
0.00344642
0.00343009
0.00344613
0.00343008
0.0034271
0.00344649
0.00344649
0.00342741
0.00342704
0.00342704
0.00337533
0.00339382
0.00339451
0.00337472
0.00339366
0.00337456
0.00337533
0.00339382
0.00339451
0.00337472
0.00339117
0.00339117
0.00339117
0.00335274
0.00335274
0.00335274
0.00335274
0.00337506
0.00339413
0.00339114
0.00337824
0.00339403
0.0033751
0.00337825
0.00339365
0.00337457
0.00337505
0.00339114
0.00339413
0.00337824
0.00339403
0.00337825
0.0033751
0.00339412
0.00339412
0.00337559
0.00337498
0.00337498
0.00332446
0.00334259
0.0033431
0.00332402
0.00334248
0.00332388
0.00332445
0.00334259
0.0033431
0.00332402
0.00334009
0.00334009
0.00334009
0.00330267
0.00330267
0.00330267
0.00330267
0.00332434
0.00334283
0.00334004
0.00332747
0.0033428
0.00332434
0.00332748
0.00334248
0.00332389
0.00332434
0.00334004
0.00334283
0.00332747
0.0033428
0.00332748
0.00332434
0.00334282
0.00334282
0.00332491
0.00332422
0.00332422
0.00327511
0.00329282
0.00329317
0.0032748
0.00329273
0.00327467
0.0032751
0.00329282
0.00329317
0.0032748
0.00329038
0.00329038
0.00329038
0.00325404
0.00325404
0.00325404
0.00325404
0.00327509
0.003293
0.00329033
0.00327813
0.00329299
0.00327509
0.00327813
0.00329272
0.00327468
0.00327509
0.00329033
0.003293
0.00327814
0.00329299
0.00327813
0.00327509
0.00329301
0.00329301
0.00327567
0.00327497
0.00327497
0.00322721
0.0032445
0.00324475
0.003227
0.00324442
0.00322689
0.00322721
0.0032445
0.00324475
0.00322699
0.0032421
0.0032421
0.0032421
0.00320675
0.00320675
0.00320675
0.00320675
0.00322727
0.00324464
0.00324206
0.00323021
0.00324463
0.00322726
0.0032302
0.00324442
0.00322689
0.00322727
0.00324206
0.00324464
0.00323021
0.00324463
0.0032302
0.00322726
0.00324467
0.00324467
0.00322784
0.00322715
0.00322715
0.00318058
0.00319749
0.00319767
0.00318042
0.00319742
0.00318032
0.00318058
0.00319749
0.00319767
0.00318042
0.00319512
0.00319511
0.00319511
0.0031606
0.0031606
0.0031606
0.0031606
0.00318068
0.00319761
0.00319508
0.00318353
0.0031976
0.00318068
0.00318351
0.00319742
0.00318032
0.00318068
0.00319508
0.00319761
0.00318353
0.0031976
0.00318351
0.00318068
0.00319764
0.00319764
0.00318124
0.00318056
0.00318056
0.003135
0.00315158
0.00315172
0.00313486
0.00315151
0.00313477
0.003135
0.00315158
0.00315172
0.00313486
0.00314922
0.00314922
0.00314922
0.0031154
0.0031154
0.0031154
0.0031154
0.00313513
0.00315168
0.00314919
0.00313789
0.00315167
0.00313512
0.00313787
0.00315151
0.00313477
0.00313513
0.00314919
0.00315168
0.00313789
0.00315167
0.00313787
0.00313512
0.00315172
0.00315172
0.00313566
0.003135
0.003135
0.00309025
0.00310657
0.00310668
0.00309014
0.0031065
0.00309004
0.00309025
0.00310657
0.00310668
0.00309014
0.00310422
0.00310422
0.00310422
0.00307096
0.00307096
0.00307096
0.00307096
0.00309041
0.00310665
0.0031042
0.00309309
0.00310664
0.00309039
0.00309307
0.0031065
0.00309004
0.00309041
0.0031042
0.00310665
0.0030931
0.00310664
0.00309307
0.00309039
0.00310669
0.00310669
0.00309092
0.00309026
0.00309026
0.00304619
0.00306227
0.00306237
0.00304607
0.00306221
0.00304598
0.00304619
0.00306227
0.00306237
0.00304607
0.00305995
0.00305995
0.00305995
0.00302714
0.00302714
0.00302714
0.00302714
0.00304636
0.00306235
0.00305993
0.00304898
0.00306234
0.00304633
0.00304896
0.00306221
0.00304598
0.00304636
0.00305993
0.00306235
0.00304898
0.00306234
0.00304896
0.00304633
0.00306238
0.00306239
0.00304685
0.00304619
0.00304619
0.00300269
0.00301857
0.00301867
0.00300257
0.00301851
0.00300249
0.00300269
0.00301857
0.00301867
0.00300257
0.00301627
0.00301627
0.00301627
0.00298385
0.00298385
0.00298384
0.00298385
0.00300288
0.00301863
0.00301626
0.00300544
0.00301865
0.00300283
0.00300542
0.00301851
0.00300249
0.00300288
0.00301626
0.00301863
0.00300544
0.00301865
0.00300542
0.00300283
0.00301867
0.00301867
0.00300333
0.00300268
0.00300268
0.00295968
0.00297539
0.00297548
0.00295956
0.00297533
0.00295948
0.00295968
0.00297539
0.00297548
0.00295956
0.0029731
0.0029731
0.0029731
0.00294103
0.00294103
0.00294103
0.00294103
0.00295989
0.00297544
0.00297309
0.00296239
0.00297547
0.00295982
0.00296238
0.00297533
0.00295948
0.00295989
0.00297309
0.00297544
0.00296239
0.00297547
0.00296238
0.00295981
0.00297548
0.00297548
0.0029603
0.00295966
0.00295965
0.00291712
0.00293266
0.00293276
0.00291699
0.00293261
0.00291692
0.00291712
0.00293266
0.00293276
0.00291699
0.0029304
0.0029304
0.0029304
0.00289865
0.00289865
0.00289865
0.00289865
0.00291735
0.00293271
0.00293039
0.0029198
0.00293275
0.00291725
0.00291979
0.00293261
0.00291692
0.00291735
0.00293039
0.00293271
0.0029198
0.00293275
0.00291979
0.00291725
0.00293274
0.00293274
0.00291775
0.00291708
0.00291708
0.00287498
0.00289037
0.00289047
0.00287485
0.00289032
0.00287479
0.00287498
0.00289036
0.00289047
0.00287485
0.00288812
0.00288812
0.00288812
0.00285668
0.00285668
0.00285668
0.00285668
0.00287523
0.0028904
0.00288812
0.00287763
0.00289046
0.0028751
0.00287762
0.00289032
0.00287478
0.00287523
0.00288812
0.0028904
0.00287763
0.00289046
0.00287762
0.0028751
0.00289043
0.00289043
0.00287562
0.00287493
0.00287493
0.00283323
0.00284848
0.00284858
0.0028331
0.00284843
0.00283304
0.00283323
0.00284848
0.00284858
0.0028331
0.00284625
0.00284625
0.00284625
0.0028151
0.0028151
0.0028151
0.0028151
0.0028335
0.00284851
0.00284626
0.00283585
0.00284858
0.00283335
0.00283585
0.00284843
0.00283304
0.0028335
0.00284626
0.00284851
0.00283585
0.00284858
0.00283585
0.00283335
0.00284854
0.00284854
0.00283389
0.00283317
0.00283317
0.00279186
0.00280697
0.00280707
0.00279173
0.00280693
0.00279168
0.00279186
0.00280697
0.00280707
0.00279173
0.00280476
0.00280476
0.00280476
0.00277388
0.00277388
0.00277388
0.00277388
0.00279214
0.002807
0.00280477
0.00279445
0.00280707
0.00279197
0.00279445
0.00280693
0.00279168
0.00279214
0.00280477
0.002807
0.00279445
0.00280707
0.00279445
0.00279197
0.00280702
0.00280702
0.00279252
0.00279179
0.00279179
0.00275084
0.00276583
0.00276593
0.00275072
0.00276579
0.00275066
0.00275084
0.00276583
0.00276593
0.00275071
0.00276363
0.00276363
0.00276363
0.002733
0.002733
0.002733
0.002733
0.00275113
0.00276585
0.00276364
0.0027534
0.00276593
0.00275094
0.00275341
0.00276579
0.00275066
0.00275113
0.00276364
0.00276585
0.0027534
0.00276593
0.00275341
0.00275095
0.00276587
0.00276587
0.0027515
0.00275077
0.00275077
0.00271014
0.00272503
0.00272512
0.00271002
0.00272499
0.00270998
0.00271014
0.00272502
0.00272512
0.00271002
0.00272283
0.00272283
0.00272283
0.00269243
0.00269243
0.00269243
0.00269243
0.00271044
0.00272503
0.00272284
0.00271268
0.00272511
0.00271024
0.00271269
0.00272499
0.00270998
0.00271044
0.00272284
0.00272503
0.00271268
0.00272512
0.00271269
0.00271025
0.00272506
0.00272506
0.00271081
0.00271007
0.00271007
0.00266975
0.00268453
0.00268462
0.00266963
0.00268449
0.00266961
0.00266975
0.00268453
0.00268462
0.00266963
0.00268234
0.00268234
0.00268234
0.00265216
0.00265216
0.00265216
0.00265216
0.00267005
0.00268453
0.00268235
0.00267227
0.00268461
0.00266985
0.00267227
0.0026845
0.00266959
0.00267005
0.00268235
0.00268453
0.00267227
0.00268461
0.00267227
0.00266985
0.00268456
0.00268456
0.00267043
0.00266967
0.00266967
0.00262963
0.00264432
0.0026444
0.00262952
0.00264428
0.00262948
0.00262963
0.00264432
0.0026444
0.00262952
0.00264214
0.00264214
0.00264214
0.00261216
0.00261216
0.00261216
0.00261216
0.00262993
0.00264431
0.00264214
0.00263213
0.00264439
0.00262972
0.00263213
0.00264429
0.00262948
0.00262993
0.00264214
0.00264431
0.00263213
0.00264439
0.00263213
0.00262972
0.00264435
0.00264435
0.00263032
0.00262956
0.00262956
0.00258977
0.00260437
0.00260445
0.00258966
0.00260435
0.00258963
0.00258977
0.00260437
0.00260445
0.00258966
0.0026022
0.0026022
0.0026022
0.0025724
0.0025724
0.0025724
0.0025724
0.00259006
0.00260436
0.0026022
0.00259225
0.00260443
0.00258986
0.00259226
0.00260435
0.00258963
0.00259006
0.0026022
0.00260436
0.00259225
0.00260443
0.00259226
0.00258986
0.0026044
0.0026044
0.00259046
0.0025897
0.0025897
0.00255014
0.00256467
0.00256474
0.00255004
0.00256465
0.00255
0.00255014
0.00256467
0.00256474
0.00255004
0.0025625
0.0025625
0.0025625
0.00253286
0.00253286
0.00253286
0.00253286
0.00255042
0.00256466
0.0025625
0.00255261
0.00256471
0.00255023
0.00255261
0.00256465
0.00255
0.00255042
0.0025625
0.00256466
0.00255261
0.00256471
0.00255261
0.00255022
0.00256469
0.00256469
0.00255083
0.00255007
0.00255007
0.0025107
0.00252517
0.00252524
0.00251061
0.00252516
0.00251058
0.0025107
0.00252517
0.00252524
0.00251061
0.002523
0.002523
0.002523
0.0024935
0.0024935
0.0024935
0.0024935
0.00251097
0.00252515
0.002523
0.00251316
0.0025252
0.00251078
0.00251315
0.00252516
0.00251058
0.00251097
0.002523
0.00252515
0.00251316
0.0025252
0.00251316
0.00251078
0.00252519
0.0025252
0.0025114
0.00251064
0.00251064
0.00247143
0.00248585
0.00248591
0.00247134
0.00248584
0.00247131
0.00247143
0.00248585
0.00248591
0.00247134
0.00248368
0.00248368
0.00248368
0.00245428
0.00245428
0.00245428
0.00245428
0.00247168
0.00248583
0.00248368
0.00247387
0.00248586
0.00247151
0.00247387
0.00248584
0.00247131
0.00247168
0.00248368
0.00248583
0.00247387
0.00248585
0.00247387
0.00247151
0.00248587
0.00248587
0.00247213
0.00247136
0.00247137
0.00243229
0.00244667
0.00244673
0.0024322
0.00244666
0.00243218
0.00243229
0.00244667
0.00244673
0.0024322
0.0024445
0.0024445
0.0024445
0.00241521
0.00241521
0.00241521
0.00241521
0.00243252
0.00244665
0.0024445
0.00243472
0.00244666
0.00243237
0.00243472
0.00244666
0.00243218
0.00243252
0.0024445
0.00244665
0.00243472
0.00244666
0.00243472
0.00243236
0.00244669
0.0024467
0.00243299
0.00243223
0.00243223
0.00239329
0.00240763
0.00240768
0.00239321
0.00240762
0.00239319
0.00239329
0.00240763
0.00240768
0.00239321
0.00240546
0.00240546
0.00240546
0.00237628
0.00237628
0.00237628
0.00237628
0.00239351
0.0024076
0.00240545
0.00239572
0.0024076
0.00239336
0.00239571
0.00240762
0.00239319
0.00239351
0.00240545
0.0024076
0.00239572
0.00240761
0.00239572
0.00239336
0.00240765
0.00240765
0.00239398
0.00239324
0.00239324
0.00235447
0.00236874
0.00236879
0.0023544
0.00236874
0.00235438
0.00235447
0.00236875
0.00236879
0.0023544
0.00236659
0.00236658
0.00236659
0.00233758
0.00233758
0.00233758
0.00233758
0.00235468
0.00236871
0.00236657
0.00235689
0.00236871
0.00235454
0.00235689
0.00236874
0.00235437
0.00235468
0.00236657
0.00236871
0.00235689
0.00236871
0.00235689
0.00235454
0.00236876
0.00236876
0.00235516
0.00235442
0.00235442
0.00231593
0.0023301
0.00233013
0.00231586
0.00233009
0.00231584
0.00231592
0.0023301
0.00233013
0.00231586
0.00232795
0.00232795
0.00232795
0.0022992
0.0022992
0.0022992
0.0022992
0.00231612
0.00233005
0.00232793
0.00231832
0.00233004
0.00231599
0.00231832
0.00233009
0.00231584
0.00231612
0.00232793
0.00233006
0.00231832
0.00233004
0.00231832
0.00231599
0.00233011
0.00233011
0.0023166
0.00231588
0.00231587
0.00227776
0.00229179
0.00229181
0.00227771
0.00229178
0.00227769
0.00227776
0.00229179
0.00229181
0.00227771
0.00228967
0.00228966
0.00228966
0.00226124
0.00226124
0.00226124
0.00226124
0.00227795
0.00229174
0.00228964
0.00228013
0.00229172
0.00227782
0.00228014
0.00229178
0.00227768
0.00227794
0.00228964
0.00229174
0.00228013
0.00229172
0.00228013
0.00227782
0.0022918
0.0022918
0.00227842
0.00227772
0.00227772
0.00224009
0.00225393
0.00225395
0.00224004
0.00225393
0.00224003
0.00224009
0.00225393
0.00225394
0.00224004
0.00225183
0.00225183
0.00225183
0.0022238
0.0022238
0.0022238
0.0022238
0.00224026
0.00225388
0.00225181
0.00224242
0.00225385
0.00224015
0.00224243
0.00225392
0.00224002
0.00224026
0.0022518
0.00225387
0.00224241
0.00225385
0.00224242
0.00224013
0.00225393
0.00225394
0.00224073
0.00224004
0.00224005
0.00220295
0.0022166
0.00221661
0.00220291
0.0022166
0.00220289
0.00220295
0.0022166
0.00221661
0.00220291
0.00221452
0.00221452
0.00221452
0.00218689
0.00218688
0.00218689
0.00218689
0.00220312
0.00221655
0.00221449
0.00220524
0.00221652
0.00220301
0.00220525
0.0022166
0.00220289
0.00220312
0.0022145
0.00221654
0.00220524
0.00221651
0.00220525
0.002203
0.00221661
0.00221661
0.00220358
0.00220292
0.00220292
0.00216632
0.0021798
0.0021798
0.00216629
0.00217979
0.00216626
0.00216632
0.0021798
0.0021798
0.00216628
0.00217773
0.00217774
0.00217774
0.00215045
0.00215045
0.00215045
0.00215045
0.00216648
0.00217973
0.00217771
0.00216858
0.00217971
0.00216637
0.00216859
0.0021798
0.00216628
0.00216648
0.00217772
0.00217974
0.00216859
0.00217972
0.0021686
0.00216638
0.00217981
0.00217981
0.00216694
0.00216629
0.00216629
0.00213011
0.00214345
0.00214345
0.00213008
0.00214344
0.00213006
0.00213012
0.00214345
0.00214345
0.00213008
0.0021414
0.00214141
0.0021414
0.00211438
0.00211438
0.00211439
0.00211439
0.00213027
0.00214338
0.00214138
0.00213234
0.00214335
0.00213016
0.00213235
0.00214347
0.00213008
0.00213028
0.00214139
0.0021434
0.00213236
0.00214336
0.00213236
0.00213017
0.00214345
0.00214345
0.00213073
0.00213008
0.00213008
0.00209422
0.00210746
0.00210746
0.0020942
0.00210746
0.00209419
0.00209423
0.00210746
0.00210746
0.00209421
0.00210541
0.00210542
0.00210541
0.00207858
0.00207859
0.00207858
0.00207859
0.00209438
0.00210739
0.0021054
0.00209643
0.00210734
0.00209427
0.00209644
0.00210747
0.00209419
0.00209439
0.0021054
0.00210741
0.00209644
0.00210736
0.00209644
0.00209428
0.00210746
0.00210746
0.00209482
0.0020942
0.0020942
0.00205856
0.00207172
0.00207172
0.00205854
0.00207173
0.00205853
0.00205857
0.00207173
0.00207172
0.00205854
0.00206967
0.00206967
0.00206967
0.00204299
0.00204299
0.00204299
0.00204299
0.00205871
0.00207167
0.00206966
0.00206075
0.00207162
0.00205863
0.00206076
0.00207173
0.00205853
0.00205871
0.00206966
0.00207167
0.00206074
0.00207162
0.00206075
0.00205862
0.00207173
0.00207174
0.00205914
0.00205855
0.00205856
0.00202309
0.00203618
0.00203619
0.00202307
0.0020362
0.00202307
0.00202307
0.00203618
0.00203618
0.00202306
0.00203412
0.00203412
0.00203412
0.00200758
0.00200758
0.00200758
0.00200758
0.00202322
0.00203613
0.00203411
0.00202524
0.00203608
0.00202315
0.00202526
0.00203619
0.00202307
0.00202323
0.00203411
0.00203613
0.00202524
0.00203608
0.00202525
0.00202315
0.0020362
0.0020362
0.00202364
0.00202308
0.00202308
0.00198779
0.00200083
0.00200081
0.00198777
0.00200083
0.00198777
0.00198779
0.00200083
0.00200082
0.00198778
0.00199876
0.00199875
0.00199876
0.00197232
0.00197233
0.00197232
0.00197232
0.00198791
0.00200077
0.00199875
0.00198992
0.00200068
0.00198784
0.00198993
0.00200084
0.00198776
0.0019879
0.00199875
0.00200076
0.00198991
0.00200069
0.00198993
0.00198784
0.00200084
0.00200084
0.00198833
0.00198778
0.00198778
0.00195261
0.00196562
0.00196561
0.0019526
0.00196562
0.00195259
0.00195261
0.00196562
0.00196561
0.0019526
0.00196353
0.00196353
0.00196353
0.00193717
0.00193717
0.00193716
0.00193716
0.00195273
0.00196554
0.00196352
0.00195473
0.00196547
0.00195266
0.00195473
0.00196561
0.00195258
0.00195272
0.00196351
0.00196554
0.00195472
0.00196547
0.00195472
0.00195264
0.00196561
0.00196561