/*--------------------------------*- C++ -*----------------------------------*\
| =========                 |                                                 |
| \\      /  F ield         | OpenFOAM: The Open Source CFD Toolbox           |
|  \\    /   O peration     | Version:  v2012                                 |
|   \\  /    A nd           | Website:  www.openfoam.com                      |
|    \\/     M anipulation  |                                                 |
\*---------------------------------------------------------------------------*/
FoamFile
{
    version     2.0;
    format      ascii;
    class       surfaceScalarField;
    location    "150";
    object      phi;
}
// * * * * * * * * * * * * * * * * * * * * * * * * * * * * * * * * * * * * * //

dimensions      [0 3 -1 0 0 0 0];
oriented        oriented;


internalField   nonuniform List<scalar> 
248808
(
-0.00104218
-1.46328e-05
-1.45297e-05
9.38341e-06
9.21396e-06
0.00105274
-0.000261491
-5.68477e-06
1.45101e-05
6.89024e-06
0.00105925
-4.59351e-06
-1.59731e-06
-2.12057e-06
-2.49018e-06
-6.62408e-06
-7.11546e-06
-2.98455e-06
-0.000263333
-0.000259762
-0.000262858
-0.000261468
-5.68974e-06
1.45387e-05
6.98013e-06
0.00105905
-4.59867e-06
-1.60753e-06
-2.1281e-06
-2.49453e-06
-6.61836e-06
-7.11158e-06
-2.98674e-06
-0.000259734
-0.000263305
-0.000262822
-0.000260564
5.66027e-06
5.70048e-06
-4.95423e-06
-4.948e-06
0.000259105
-1.65195e-06
-1.65339e-06
-0.0010608
9.32898e-07
9.34311e-07
0.00106224
-0.00106275
-1.61848e-06
1.64731e-06
8.2989e-07
0.00106394
-6.80087e-07
8.3521e-07
-9.89854e-08
4.23741e-07
-8.50383e-07
-1.43135e-06
-2.54606e-07
-0.00106242
-1.61343e-06
1.65743e-06
8.25247e-07
0.00106362
-6.80043e-07
8.29701e-07
-9.9095e-08
4.21344e-07
-8.52583e-07
-1.43087e-06
-2.51866e-07
-0.000261567
1.65096e-06
1.61386e-06
-6.98413e-07
-7.01476e-07
0.000259702
-1.37543e-06
-1.37686e-06
-0.00106636
6.96704e-07
6.97473e-07
0.00106772
-0.00106788
-1.57242e-06
1.3812e-06
6.90262e-07
0.00106923
-6.5702e-07
8.78712e-07
-7.29898e-08
4.61588e-07
-8.37514e-07
-1.39921e-06
-2.21473e-07
-0.00106756
-1.56731e-06
1.37591e-06
6.95926e-07
0.0010689
-6.5719e-07
8.73224e-07
-7.31427e-08
4.61598e-07
-8.37296e-07
-1.39359e-06
-2.18942e-07
-0.000262803
1.60253e-06
1.56767e-06
-6.63681e-07
-6.7177e-07
0.000260969
-1.34998e-06
-1.35121e-06
-0.00107181
6.75918e-07
6.76603e-07
0.00107316
-0.00107323
-1.57205e-06
1.35058e-06
6.65783e-07
0.00107455
-6.53167e-07
9.0113e-07
-5.28048e-08
4.75709e-07
-8.28274e-07
-1.4046e-06
-1.94675e-07
-0.0010729
-1.56686e-06
1.35069e-06
6.66211e-07
0.00107421
-6.50628e-07
8.95619e-07
-5.50047e-08
4.75524e-07
-8.3082e-07
-1.40448e-06
-1.92336e-07
-0.00026408
1.59981e-06
1.5674e-06
-6.55813e-07
-6.61386e-07
0.00026223
-1.3029e-06
-1.30501e-06
-0.00107714
6.51665e-07
6.51882e-07
0.00107845
-0.0010784
-1.56386e-06
1.30404e-06
6.34922e-07
0.00107966
-6.38395e-07
9.25234e-07
-3.45641e-08
4.95079e-07
-8.09719e-07
-1.40328e-06
-1.64751e-07
-0.00107806
-1.5586e-06
1.30422e-06
6.35478e-07
0.00107932
-6.35807e-07
9.1975e-07
-3.6629e-08
4.9488e-07
-8.12367e-07
-1.40321e-06
-1.6246e-07
-0.000265299
1.59174e-06
1.55907e-06
-6.40189e-07
-6.45963e-07
0.000263434
-1.25179e-06
-1.2546e-06
-0.00108229
6.26677e-07
6.26727e-07
0.00108354
-0.00108333
-1.55487e-06
1.25377e-06
6.05523e-07
0.00108452
-6.24047e-07
9.47225e-07
-1.37184e-08
5.1631e-07
-7.89002e-07
-1.39682e-06
-1.36789e-07
-0.00108299
-1.54976e-06
1.25399e-06
6.06621e-07
0.00108418
-6.21559e-07
9.41528e-07
-1.66535e-08
5.16253e-07
-7.91534e-07
-1.39666e-06
-1.34385e-07
-0.000266443
1.58278e-06
1.54978e-06
-6.2394e-07
-6.29957e-07
0.000264565
-1.2056e-06
-1.20784e-06
-0.00108722
6.04535e-07
6.04997e-07
0.00108843
-0.00108801
-1.54722e-06
1.20729e-06
5.8175e-07
0.00108914
-6.11873e-07
9.66741e-07
3.7681e-09
5.37669e-07
-7.6961e-07
-1.38879e-06
-1.12152e-07
-0.00108766
-1.54218e-06
1.20734e-06
5.82867e-07
0.0010888
-6.09465e-07
9.60974e-07
7.67761e-10
5.37711e-07
-7.7206e-07
-1.38855e-06
-1.09691e-07
-0.000267514
1.57534e-06
1.54219e-06
-6.09816e-07
-6.15855e-07
0.000265623
-1.16666e-06
-1.16686e-06
-0.00109197
5.86047e-07
5.87403e-07
0.00109313
-0.00109245
-1.54171e-06
1.16676e-06
5.63584e-07
0.00109353
-6.02628e-07
9.83745e-07
1.80412e-08
5.58458e-07
-7.5266e-07
-1.38082e-06
-9.09675e-08
-0.00109211
-1.53642e-06
1.16659e-06
5.64047e-07
0.00109319
-5.99998e-07
9.78218e-07
1.52504e-08
5.58559e-07
-7.55067e-07
-1.38053e-06
-8.85019e-08
-0.000268517
1.5698e-06
1.5366e-06
-5.98121e-07
-6.04017e-07
0.000266613
-1.13175e-06
-1.13219e-06
-0.00109655
5.70458e-07
5.72009e-07
0.00109767
-0.00109669
-1.53804e-06
1.13242e-06
5.49489e-07
0.00109772
-5.96006e-07
9.98626e-07
2.97431e-08
5.78503e-07
-7.38099e-07
-1.37344e-06
-7.28285e-08
-0.00109635
-1.53256e-06
1.13239e-06
5.49572e-07
0.00109738
-5.93219e-07
9.93243e-07
2.70642e-08
5.78574e-07
-7.40586e-07
-1.37319e-06
-7.04549e-08
-0.000269456
1.56611e-06
1.53275e-06
-5.8849e-07
-5.94386e-07
0.00026754
-1.10067e-06
-1.10181e-06
-0.00110098
5.56899e-07
5.58132e-07
0.00110207
-0.00110074
-1.53637e-06
1.10224e-06
5.37485e-07
0.00110173
-5.91911e-07
1.01161e-06
4.36424e-08
5.97509e-07
-7.25518e-07
-1.36679e-06
-5.75541e-08
-0.0011004
-1.53083e-06
1.10278e-06
5.37853e-07
0.00110138
-5.89069e-07
1.00627e-06
3.97483e-08
5.97611e-07
-7.28019e-07
-1.36655e-06
-5.52636e-08
-0.000270338
1.56428e-06
1.53074e-06
-5.80878e-07
-5.86762e-07
0.000268411
-1.07398e-06
-1.07502e-06
-0.00110529
5.45207e-07
5.46287e-07
0.00110635
-0.00110462
-1.53558e-06
1.07581e-06
5.28334e-07
0.00110557
-5.86151e-07
1.02386e-06
5.165e-08
6.15531e-07
-7.13809e-07
-1.36045e-06
-4.45799e-08
-0.00110428
-1.53015e-06
1.07609e-06
5.28496e-07
0.00110522
-5.86201e-07
1.01839e-06
5.15329e-08
6.1557e-07
-7.16408e-07
-1.36028e-06
-4.23818e-08
-0.000271165
1.56373e-06
1.53009e-06
-5.74734e-07
-5.80658e-07
0.000269227
-1.0499e-06
-1.05059e-06
-0.00110948
5.34473e-07
5.35594e-07
0.00111051
-0.00110835
-1.53518e-06
1.05149e-06
5.19581e-07
0.00110925
-5.83659e-07
1.0356e-06
6.14831e-08
6.32524e-07
-7.02082e-07
-1.3538e-06
-3.3359e-08
-0.001108
-1.52973e-06
1.05168e-06
5.19738e-07
0.00110891
-5.83677e-07
1.03012e-06
6.14435e-08
6.32551e-07
-7.04719e-07
-1.35364e-06
-3.12287e-08
-0.000271941
1.56348e-06
1.52978e-06
-5.69155e-07
-5.75099e-07
0.000269992
-1.02665e-06
-1.02679e-06
-0.00111356
5.23791e-07
5.24981e-07
0.00111456
-0.00111192
-1.53491e-06
1.02779e-06
5.10351e-07
0.00111279
-5.809e-07
1.04712e-06
7.02292e-08
6.48017e-07
-6.90205e-07
-1.34679e-06
-2.09028e-08
-0.00111157
-1.52943e-06
1.02769e-06
5.10214e-07
0.00111244
-5.80863e-07
1.04155e-06
7.02089e-08
6.48018e-07
-6.92867e-07
-1.34668e-06
-1.80644e-08
-0.000272664
1.56336e-06
1.52953e-06
-5.64061e-07
-5.69961e-07
0.000270705
-1.00432e-06
-1.00443e-06
-0.00111754
5.13728e-07
5.14944e-07
0.00111852
-0.00111535
-1.53489e-06
1.00535e-06
5.00306e-07
0.00111618
-5.77051e-07
1.05775e-06
7.87355e-08
6.62192e-07
-6.77563e-07
-1.33909e-06
-8.8331e-09
-0.001115
-1.52934e-06
1.00492e-06
5.00186e-07
0.00111583
-5.76988e-07
1.05224e-06
7.87135e-08
6.62235e-07
-6.80115e-07
-1.33889e-06
-5.92791e-09
-0.000273333
1.56333e-06
1.52952e-06
-5.58739e-07
-5.64439e-07
0.000271364
-9.82394e-07
-9.82734e-07
-0.00112143
5.03922e-07
5.05067e-07
0.00112238
-0.00111862
-1.53447e-06
9.83433e-07
4.89747e-07
0.00111942
-5.71944e-07
1.06765e-06
8.72205e-08
6.75057e-07
-6.63852e-07
-1.33038e-06
2.29417e-09
-0.00111827
-1.52894e-06
9.82676e-07
4.8961e-07
0.00111907
-5.71896e-07
1.06215e-06
8.71691e-08
6.75219e-07
-6.66307e-07
-1.33005e-06
5.29913e-09
-0.000273948
1.56285e-06
1.52905e-06
-5.52256e-07
-5.57801e-07
0.000271967
-9.60591e-07
-9.61334e-07
-0.00112521
4.94216e-07
4.95169e-07
0.00112615
-0.00112175
-1.5332e-06
9.61616e-07
4.78944e-07
0.0011225
-5.65705e-07
1.07744e-06
9.52634e-08
6.86882e-07
-6.49387e-07
-1.32065e-06
1.25449e-08
-0.0011214
-1.52767e-06
9.606e-07
4.78693e-07
0.00112215
-5.65618e-07
1.07189e-06
9.52601e-08
6.8712e-07
-6.51745e-07
-1.32025e-06
1.56815e-08
-0.000274505
1.56162e-06
1.52772e-06
-5.44921e-07
-5.50484e-07
0.000272511
-9.39071e-07
-9.40231e-07
-0.00112891
4.84715e-07
4.85397e-07
0.00112982
-0.00112471
-1.5313e-06
9.40076e-07
4.67825e-07
0.00112543
-5.58122e-07
1.08677e-06
1.03071e-07
6.9765e-07
-6.34221e-07
-1.30986e-06
2.21189e-08
-0.00112436
-1.52577e-06
9.39057e-07
4.67709e-07
0.00112508
-5.58076e-07
1.08122e-06
1.03116e-07
6.97882e-07
-6.36658e-07
-1.30948e-06
2.52627e-08
-0.000275001
1.55986e-06
1.52583e-06
-5.37118e-07
-5.42753e-07
0.000272995
-9.17704e-07
-9.18854e-07
-0.00113251
4.74918e-07
4.75532e-07
0.0011334
-0.00112751
-1.52881e-06
9.18663e-07
4.56458e-07
0.00112819
-5.49498e-07
1.0954e-06
1.10636e-07
7.07711e-07
-6.18724e-07
-1.29814e-06
3.21844e-08
-0.00112716
-1.52328e-06
9.17712e-07
4.56033e-07
0.00112784
-5.49483e-07
1.08978e-06
1.10707e-07
7.07566e-07
-6.21532e-07
-1.29801e-06
3.66987e-08
-0.000275431
1.55752e-06
1.52332e-06
-5.28716e-07
-5.34496e-07
0.000273413
-8.96825e-07
-8.97999e-07
-0.00113602
4.65654e-07
4.6607e-07
0.00113688
-0.00113015
-1.5257e-06
8.97403e-07
4.45022e-07
0.00113078
-5.40082e-07
1.10327e-06
1.17809e-07
7.16559e-07
-6.03469e-07
-1.28622e-06
4.45162e-08
-0.00112979
-1.52013e-06
8.97238e-07
4.44698e-07
0.00113042
-5.39959e-07
1.09772e-06
1.17991e-07
7.16329e-07
-6.06278e-07
-1.28618e-06
4.82748e-08
-0.000275793
1.55455e-06
1.52015e-06
-5.1977e-07
-5.25668e-07
0.000273763
-8.76676e-07
-8.7763e-07
-0.00113944
4.57039e-07
4.57131e-07
0.00114028
-0.0011326
-1.52164e-06
8.76915e-07
4.3449e-07
0.00113319
-5.29529e-07
1.11067e-06
1.24951e-07
7.2474e-07
-5.88003e-07
-1.27337e-06
5.52169e-08
-0.00113225
-1.51615e-06
8.77233e-07
4.34543e-07
0.00113283
-5.29669e-07
1.10504e-06
1.24997e-07
7.24458e-07
-5.90899e-07
-1.27346e-06
5.86064e-08
-0.000276084
1.5507e-06
1.51613e-06
-5.10077e-07
-5.16103e-07
0.000274044
-8.57174e-07
-8.58285e-07
-0.00114275
4.49062e-07
4.4903e-07
0.00114357
-0.00113488
-1.51667e-06
8.57244e-07
4.24013e-07
0.00113542
-5.21555e-07
1.11752e-06
1.34649e-07
7.32681e-07
-5.72822e-07
-1.25957e-06
6.48518e-08
-0.00113452
-1.51122e-06
8.57947e-07
4.24592e-07
0.00113506
-5.18833e-07
1.11179e-06
1.31662e-07
7.32318e-07
-5.75784e-07
-1.25976e-06
6.81206e-08
-0.000276305
1.54579e-06
1.51114e-06
-4.99687e-07
-5.05737e-07
0.000274254
-8.38221e-07
-8.39608e-07
-0.00114599
4.41648e-07
4.41501e-07
0.00114679
-0.00113696
-1.51063e-06
8.38243e-07
4.14435e-07
0.00113746
-5.10531e-07
1.12399e-06
1.41302e-07
7.40263e-07
-5.57943e-07
-1.24533e-06
7.3631e-08
-0.00113661
-1.50526e-06
8.39017e-07
4.1502e-07
0.0011371
-5.07788e-07
1.11821e-06
1.38111e-07
7.399e-07
-5.60894e-07
-1.24549e-06
7.68948e-08
-0.000276455
1.53981e-06
1.50515e-06
-4.88677e-07
-4.94631e-07
0.000274394
-8.20138e-07
-8.21376e-07
-0.00114914
4.34599e-07
4.34482e-07
0.00114991
-0.00113887
-1.50364e-06
8.20284e-07
4.05581e-07
0.00113931
-4.99939e-07
1.13007e-06
1.47507e-07
7.47523e-07
-5.43757e-07
-1.23096e-06
8.17345e-08
-0.0011385
-1.49823e-06
8.208e-07
4.06278e-07
0.00113895
-4.97225e-07
1.12435e-06
1.44423e-07
7.47118e-07
-5.4664e-07
-1.23103e-06
8.48605e-08
-0.000276537
1.53272e-06
1.49812e-06
-4.77154e-07
-4.83041e-07
0.000274467
-8.02863e-07
-8.0401e-07
-0.00115219
4.27842e-07
4.27876e-07
0.00115295
-0.00114058
-1.49602e-06
8.03135e-07
3.97506e-07
0.00114098
-4.89499e-07
1.1358e-06
1.53532e-07
7.54163e-07
-5.30843e-07
-1.21699e-06
8.89284e-08
-0.00114022
-1.49063e-06
8.03681e-07
3.97847e-07
0.00114062
-4.86747e-07
1.13008e-06
1.50455e-07
7.53886e-07
-5.33612e-07
-1.21707e-06
9.20948e-08
-0.000276559
1.52512e-06
1.49053e-06
-4.65755e-07
-4.71533e-07
0.00027448
-7.86089e-07
-7.87278e-07
-0.00115517
4.2135e-07
4.21423e-07
0.0011559
-0.00114212
-1.48783e-06
7.8694e-07
3.89834e-07
0.00114247
-4.79697e-07
1.14115e-06
1.59278e-07
7.60236e-07
-5.18959e-07
-1.20371e-06
9.52625e-08
-0.00114175
-1.48234e-06
7.87492e-07
3.90363e-07
0.00114211
-4.7691e-07
1.13544e-06
1.5627e-07
7.59869e-07
-5.21892e-07
-1.20379e-06
9.81845e-08
-0.000276528
1.51699e-06
1.48238e-06
-4.54536e-07
-4.60356e-07
0.000274443
-7.68107e-07
-7.6964e-07
-0.00115806
4.14261e-07
4.14199e-07
0.00115877
-0.00114349
-1.47911e-06
7.70054e-07
3.82002e-07
0.0011438
-4.70066e-07
1.1464e-06
1.64737e-07
7.65824e-07
-5.08077e-07
-1.19092e-06
1.00787e-07
-0.00114312
-1.47349e-06
7.70651e-07
3.82534e-07
0.00114344
-4.67278e-07
1.14074e-06
1.61802e-07
7.6539e-07
-5.11013e-07
-1.19108e-06
1.03581e-07
-0.000276456
1.50814e-06
1.4735e-06
-4.43638e-07
-4.49505e-07
0.000274367
-7.45911e-07
-7.47427e-07
-0.00116086
4.04847e-07
4.04812e-07
0.00116154
-0.0011447
-1.46897e-06
7.48548e-07
3.72477e-07
0.00114499
-4.59907e-07
1.15227e-06
1.70829e-07
7.71639e-07
-4.97227e-07
-1.17787e-06
1.06795e-07
-0.00114434
-1.46344e-06
7.49471e-07
3.72961e-07
0.00114462
-4.571e-07
1.14664e-06
1.67883e-07
7.71255e-07
-5.00188e-07
-1.17817e-06
1.0944e-07
-0.000276356
1.49824e-06
1.46349e-06
-4.32411e-07
-4.38331e-07
0.000274265
-7.14536e-07
-7.15981e-07
-0.00116354
3.90786e-07
3.90789e-07
0.00116419
-0.00114578
-1.45681e-06
7.17345e-07
3.58304e-07
0.00114602
-4.48283e-07
1.15946e-06
1.78202e-07
7.79652e-07
-4.84506e-07
-1.16268e-06
1.14972e-07
-0.00114541
-1.45115e-06
7.18194e-07
3.58671e-07
0.00114565
-4.45637e-07
1.15387e-06
1.75256e-07
7.79168e-07
-4.87447e-07
-1.16284e-06
1.17483e-07
-0.000276237
1.48592e-06
1.45113e-06
-4.19622e-07
-4.25704e-07
0.000274146
-6.68914e-07
-6.70198e-07
-0.00116607
3.6915e-07
3.69743e-07
0.00116667
-0.00114669
-1.44165e-06
6.70757e-07
3.37753e-07
0.0011469
-4.34677e-07
1.16905e-06
1.8738e-07
7.91403e-07
-4.67873e-07
-1.14337e-06
1.27373e-07
-0.00114633
-1.43608e-06
6.71383e-07
3.36897e-07
0.00114654
-4.31857e-07
1.16337e-06
1.84606e-07
7.90904e-07
-4.70644e-07
-1.14358e-06
1.29892e-07
-0.000276108
1.47042e-06
1.43583e-06
-4.04474e-07
-4.10297e-07
0.000274017
-6.07486e-07
-6.07359e-07
-0.00116838
3.38723e-07
3.40199e-07
0.00116892
-0.00114745
-1.4233e-06
6.06986e-07
3.08305e-07
0.0011476
-4.1806e-07
1.18127e-06
1.99111e-07
8.07494e-07
-4.46291e-07
-1.11951e-06
1.44723e-07
-0.00114709
-1.41759e-06
6.06136e-07
3.06626e-07
0.00114725
-4.15016e-07
1.17582e-06
1.96747e-07
8.07143e-07
-4.48881e-07
-1.11935e-06
1.47463e-07
-0.000275973
1.45126e-06
1.41706e-06
-3.86099e-07
-3.918e-07
0.000273882
-5.30441e-07
-5.30068e-07
-0.00117041
3.00073e-07
3.02343e-07
0.00117087
-0.00114801
-1.40165e-06
5.28646e-07
2.71692e-07
0.00114812
-3.99091e-07
1.1966e-06
2.13524e-07
8.27389e-07
-4.20789e-07
-1.09187e-06
1.65546e-07
-0.00114766
-1.39605e-06
5.2545e-07
2.70089e-07
0.00114777
-3.95452e-07
1.19066e-06
2.11167e-07
8.27542e-07
-4.22855e-07
-1.09093e-06
1.68912e-07
-0.000275829
1.42912e-06
1.39601e-06
-3.65441e-07
-3.70062e-07
0.000273739
-4.45984e-07
-4.46154e-07
-0.00117212
2.57556e-07
2.59679e-07
0.00117249
-0.00114839
-1.37938e-06
4.42837e-07
2.28661e-07
0.00114845
-3.78299e-07
1.21228e-06
2.29355e-07
8.49331e-07
-3.9506e-07
-1.06254e-06
1.86023e-07
-0.00114803
-1.37338e-06
4.38346e-07
2.28403e-07
0.00114809
-3.75343e-07
1.20685e-06
2.25986e-07
8.5078e-07
-3.95783e-07
-1.06063e-06
1.91127e-07
-0.000275671
1.4064e-06
1.37382e-06
-3.43845e-07
-3.47887e-07
0.000273583
-3.65695e-07
-3.65433e-07
-0.0011735
2.1631e-07
2.16311e-07
0.0011738
-0.00114859
-1.357e-06
3.5942e-07
1.86353e-07
0.00114862
-3.58588e-07
1.22856e-06
2.44116e-07
8.69964e-07
-3.69803e-07
-1.03521e-06
2.0719e-07
-0.00114822
-1.35118e-06
3.57425e-07
1.881e-07
0.00114824
-3.55423e-07
1.22302e-06
2.41013e-07
8.71317e-07
-3.70639e-07
-1.03292e-06
2.11421e-07
-0.000275509
1.38522e-06
1.35199e-06
-3.23725e-07
-3.27706e-07
0.000273423
-2.90856e-07
-2.94044e-07
-0.00117459
1.78236e-07
1.74754e-07
0.00117483
-0.00114864
-1.33839e-06
2.8402e-07
1.51784e-07
0.00114862
-3.41319e-07
1.2416e-06
2.57367e-07
8.88662e-07
-3.46851e-07
-1.01041e-06
2.25703e-07
-0.00114823
-1.33158e-06
2.86532e-07
1.5362e-07
0.00114821
-3.38823e-07
1.23642e-06
2.53596e-07
8.88575e-07
-3.49682e-07
-1.00967e-06
2.28086e-07
-0.000275354
1.36704e-06
1.33208e-06
-3.05522e-07
-3.10706e-07
0.000273271
-2.22136e-07
-2.27233e-07
-0.00117544
1.39321e-07
1.34894e-07
0.00117561
-0.00114855
-1.3216e-06
2.17735e-07
1.18492e-07
0.00114852
-3.2865e-07
1.25402e-06
2.67052e-07
9.04018e-07
-3.28675e-07
-9.89613e-07
2.40018e-07
-0.00114814
-1.31695e-06
2.241e-07
1.21975e-07
0.0011481
-3.26585e-07
1.247e-06
2.6252e-07
9.02547e-07
-3.32616e-07
-9.90659e-07
2.41165e-07
-0.000275206
1.35153e-06
1.31475e-06
-2.9037e-07
-2.97476e-07
0.000273127
-1.59517e-07
-1.5846e-07
-0.00117606
9.725e-08
9.68604e-08
0.00117618
-0.00114841
-1.30786e-06
1.58519e-07
8.61225e-08
0.00114838
-3.17961e-07
1.26469e-06
2.75039e-07
9.14507e-07
-3.14256e-07
-9.74945e-07
2.51872e-07
-0.00114801
-1.30331e-06
1.61528e-07
8.70629e-08
0.00114798
-3.15611e-07
1.25767e-06
2.71577e-07
9.12761e-07
-3.1827e-07
-9.76492e-07
2.5332e-07
-0.000275093
1.33727e-06
1.30208e-06
-2.80473e-07
-2.86776e-07
0.000273021
-1.01455e-07
-9.97768e-08
-0.00117649
6.09583e-08
6.34023e-08
0.00117656
-0.00114828
-1.29546e-06
1.0625e-07
5.44567e-08
0.00114825
-3.07598e-07
1.27467e-06
2.83663e-07
9.22248e-07
-3.03831e-07
-9.64207e-07
2.60079e-07
-0.00114789
-1.29087e-06
1.07462e-07
5.59744e-08
0.00114786
-3.06014e-07
1.26791e-06
2.79413e-07
9.21495e-07
-3.06239e-07
-9.64723e-07
2.63049e-07
-0.000275011
1.32574e-06
1.29122e-06
-2.71894e-07
-2.77287e-07
0.000272944
-5.8066e-08
-5.66366e-08
-0.00117674
3.5756e-08
3.73136e-08
0.00117678
-0.00114817
-1.28706e-06
6.26461e-08
3.14766e-08
0.00114814
-3.01413e-07
1.28101e-06
2.8812e-07
9.31933e-07
-2.94211e-07
-9.5217e-07
2.68293e-07
-0.00114779
-1.28168e-06
6.46846e-08
2.99931e-08
0.00114776
-2.9852e-07
1.27525e-06
2.85406e-07
9.31114e-07
-2.98148e-07
-9.52841e-07
2.70452e-07
-0.000274958
1.31856e-06
1.28313e-06
-2.65784e-07
-2.71589e-07
0.000272894
-3.08583e-08
-2.71338e-08
-0.00117687
1.7916e-08
2.04113e-08
0.00117689
-0.00114804
-1.28282e-06
3.56495e-08
2.54835e-08
0.00114801
-2.97672e-07
1.28346e-06
2.90346e-07
9.37675e-07
-2.88407e-07
-9.44805e-07
2.72831e-07
-0.00114768
-1.27723e-06
3.52654e-08
2.15388e-08
0.00114766
-2.94738e-07
1.27799e-06
2.87662e-07
9.36936e-07
-2.91189e-07
-9.45464e-07
2.75473e-07
-0.000274911
1.31307e-06
1.27865e-06
-2.61498e-07
-2.66286e-07
0.000272847
-1.27596e-08
-1.38132e-08
-0.00117693
9.27206e-09
1.02148e-08
0.00117694
-0.00114794
-1.28096e-06
1.61917e-08
1.6384e-08
0.00114792
-2.95825e-07
1.28438e-06
2.91403e-07
9.39021e-07
-2.85242e-07
-9.42731e-07
2.75539e-07
-0.00114759
-1.27519e-06
1.3559e-08
1.44026e-08
0.00114758
-2.92889e-07
1.27886e-06
2.88561e-07
9.39208e-07
-2.87998e-07
-9.42434e-07
2.78339e-07
-0.000274876
1.30919e-06
1.27611e-06
-2.60297e-07
-2.64575e-07
0.000272815
-3.85795e-09
-1.65703e-08
-0.00117695
4.69998e-09
4.8226e-09
0.00117696
-0.00114788
-1.27973e-06
4.29941e-09
1.05807e-08
0.00114787
-2.9509e-07
1.2854e-06
2.91937e-07
9.40126e-07
-2.83049e-07
-9.41202e-07
2.7742e-07
-0.00114755
-1.27437e-06
1.99497e-09
9.21969e-09
0.00114754
-2.92104e-07
1.27938e-06
2.89175e-07
9.41008e-07
-2.85736e-07
-9.40341e-07
2.80354e-07
-0.00027486
1.30788e-06
1.274e-06
-2.58952e-07
-2.63732e-07
0.000272801
-5.78856e-10
2.10438e-09
-0.00117696
-2.57105e-10
8.59023e-10
0.00117696
-0.00114784
-1.27917e-06
-2.10641e-09
9.9528e-09
0.00114782
-2.91174e-07
1.28598e-06
2.90046e-07
9.41655e-07
-2.82242e-07
-9.39428e-07
2.781e-07
-0.00114752
-1.27334e-06
-2.45252e-09
7.34686e-09
0.00114751
-2.91334e-07
1.28012e-06
2.89798e-07
9.41477e-07
-2.84674e-07
-9.39606e-07
2.81134e-07
-0.000274849
1.30826e-06
1.27292e-06
-2.58252e-07
-2.6429e-07
0.000272791
2.59992e-09
5.51159e-09
-0.00117696
-3.14174e-09
-2.31719e-09
0.00117695
-0.00114779
-1.27835e-06
-4.01671e-09
1.00165e-08
0.00114777
-2.90704e-07
1.28667e-06
2.9049e-07
9.4245e-07
-2.81983e-07
-9.3808e-07
2.77435e-07
-0.00114748
-1.27215e-06
-3.30342e-09
7.57121e-09
0.00114746
-2.90586e-07
1.28128e-06
2.90516e-07
9.41908e-07
-2.84459e-07
-9.38769e-07
2.80768e-07
-0.000274841
1.30801e-06
1.27272e-06
-2.58096e-07
-2.64287e-07
0.000272783
4.16341e-09
5.63962e-09
-0.00117695
-3.01589e-09
-3.28863e-09
0.00117695
-0.00114773
-1.27818e-06
-4.65438e-09
6.95712e-09
0.00114772
-2.91023e-07
1.28703e-06
2.90171e-07
9.41745e-07
-2.81459e-07
-9.38432e-07
2.77918e-07
-0.00114742
-1.2718e-06
-7.57505e-10
8.50015e-09
0.0011474
-2.90268e-07
1.28132e-06
2.90746e-07
9.41728e-07
-2.8522e-07
-9.38653e-07
2.798e-07
-0.000274833
1.30777e-06
1.2725e-06
-2.5779e-07
-2.64034e-07
0.000272775
3.63908e-09
4.15291e-09
-0.00117694
-1.63574e-09
-2.18807e-09
0.00117694
-0.0011477
-1.27875e-06
-4.8187e-09
6.98407e-09
0.00114769
-2.91098e-07
1.28609e-06
2.9002e-07
9.41427e-07
-2.81144e-07
-9.38607e-07
2.7797e-07
-0.00114736
-1.27249e-06
-2.04504e-09
7.10118e-09
0.00114735
-2.90858e-07
1.28078e-06
2.90189e-07
9.41122e-07
-2.84498e-07
-9.38921e-07
2.80236e-07
-0.000274824
1.30793e-06
1.27296e-06
-2.58218e-07
-2.64075e-07
0.000272765
1.75514e-09
2.52722e-09
-0.00117693
5.12919e-11
-4.25223e-10
0.00117693
-0.00114766
-1.27885e-06
-4.8586e-09
8.04895e-09
0.00114766
-2.91245e-07
1.28592e-06
2.89952e-07
9.41172e-07
-2.81247e-07
-9.38563e-07
2.77763e-07
-0.00114733
-1.27287e-06
-4.25196e-09
7.83134e-09
0.00114732
-2.9123e-07
1.28063e-06
2.89815e-07
9.40703e-07
-2.84685e-07
-9.39323e-07
2.8011e-07
-0.000274815
1.30742e-06
1.27329e-06
-2.58636e-07
-2.63733e-07
0.000272756
1.60684e-09
2.2337e-09
-0.00117693
2.19331e-10
1.44037e-12
0.00117692
-0.00114763
-1.27925e-06
-5.29684e-09
8.46357e-09
0.00114762
-2.91397e-07
1.28626e-06
2.89682e-07
9.40936e-07
-2.81275e-07
-9.38526e-07
2.77558e-07
-0.0011473
-1.27325e-06
-6.19696e-09
8.29295e-09
0.0011473
-2.91137e-07
1.28027e-06
2.89932e-07
9.40825e-07
-2.84767e-07
-9.39124e-07
2.79921e-07
-0.000274804
1.30775e-06
1.27351e-06
-2.58749e-07
-2.63987e-07
0.000272746
5.22653e-06
5.2375e-06
0.000260567
-0.000259154
-5.94537e-06
-5.93116e-06
5.0541e-06
0.00026144
-0.000258685
-5.96423e-06
3.38115e-06
-5.22651e-06
5.04887e-06
0.000261473
-0.0002587
-5.97199e-06
3.37617e-06
5.22702e-06
0.000260579
-0.000259156
-5.91652e-06
-5.95982e-06
5.04714e-06
0.000261504
-0.000258715
-5.96979e-06
3.37109e-06
5.05375e-06
-5.22883e-06
0.000261448
-0.000258685
3.38614e-06
-5.97419e-06
1.06917e-05
1.05982e-05
-0.000252646
-0.000256096
-0.000255126
-0.000255126
-6.41773e-06
-4.11086e-06
-6.65347e-06
-6.41801e-06
-4.11168e-06
-6.65888e-06
-5.042e-06
0.0010422
1.06507e-05
1.0603e-05
-0.000252649
-0.000256094
-0.000255129
-0.000255129
-6.42009e-06
-4.111e-06
-6.65599e-06
-6.41535e-06
-4.10645e-06
-6.65126e-06
-5.04162e-06
0.00104207
1.07111e-05
1.06636e-05
-0.000252641
-0.000256089
-0.000255126
-0.000255121
-6.41993e-06
-4.11836e-06
-6.65584e-06
-6.42028e-06
-4.10862e-06
-6.65358e-06
-5.05645e-06
-5.04436e-06
0.00104214
1.07063e-05
1.06079e-05
-0.000252644
-0.000256091
-0.000255126
-0.000255126
-6.4149e-06
-4.11344e-06
-6.65096e-06
-6.42019e-06
-4.11143e-06
-6.65611e-06
-0.00025871
-5.96207e-06
3.36579e-06
-5.22618e-06
0.000261435
-0.000258682
3.38096e-06
-5.96423e-06
5.22946e-06
0.000260559
-0.000259141
-5.91893e-06
-5.95704e-06
-0.000258695
3.37341e-06
-5.95906e-06
-5.23741e-06
0.000261501
-0.00025871
3.36839e-06
-5.96683e-06
-0.000259151
-5.94533e-06
-5.93067e-06
5.66078e-06
5.69811e-06
-4.95475e-06
-4.94853e-06
0.000259111
-8.12546e-07
-7.76709e-07
0.000261577
-0.000259444
-2.7596e-07
-2.68505e-07
7.14203e-06
0.00105866
-4.59126e-06
-1.55049e-06
-2.11546e-06
-2.49131e-06
-6.63814e-06
-7.12104e-06
-2.991e-06
-0.000263295
-0.000259719
-0.000262822
-5.671e-06
1.46057e-05
7.08056e-06
0.00105902
-4.60962e-06
-1.54288e-06
-2.11818e-06
-2.50173e-06
-6.66916e-06
-7.13761e-06
-3.00676e-06
-0.000263369
-0.000259749
-0.000262863
0.00106199
2.11983e-06
-0.00106095
1.0425e-06
-1.75826e-06
-1.31871e-07
-7.46204e-07
-1.54166e-06
-2.91364e-07
-9.11594e-07
3.6394e-07
8.20848e-07
0.00106241
2.11934e-06
-0.00106136
1.03683e-06
-1.76835e-06
-1.24533e-07
-7.51264e-07
-1.54721e-06
-2.91641e-07
-9.11884e-07
3.69651e-07
-4.95247e-06
-4.945e-06
0.000259121
-7.79794e-07
0.000261603
-0.000259464
-2.7282e-07
-2.65356e-07
6.86472e-06
0.0010595
-4.61547e-06
-1.61064e-06
-2.1318e-06
-2.50009e-06
-6.65225e-06
-7.13317e-06
-3.00228e-06
-0.00026339
-0.000259778
-0.000262876
-5.67078e-06
1.46401e-05
7.17477e-06
0.0010588
-4.60983e-06
-1.55291e-06
-2.12331e-06
-2.50371e-06
-6.66868e-06
-7.13646e-06
-3.00649e-06
-0.000259719
-0.000263346
-0.000262834
0.00106301
2.12706e-06
-0.00106195
1.03152e-06
-1.7288e-06
-1.34416e-07
-7.46785e-07
-1.54447e-06
-2.91558e-07
-9.09376e-07
3.6668e-07
8.10257e-07
0.0010621
2.12915e-06
-0.00106108
1.05215e-06
-1.75803e-06
-1.29311e-07
-7.46052e-07
-1.54382e-06
-2.88832e-07
-9.13919e-07
3.64496e-07
1.46375e-05
7.16191e-06
0.00105861
-4.59075e-06
-1.55027e-06
-2.11241e-06
-2.49095e-06
-6.63841e-06
-2.99153e-06
-7.11861e-06
-0.000259714
-0.00026329
-0.000262816
2.12579e-06
-0.0010617
1.03524e-06
-1.72829e-06
-1.31421e-07
-7.43267e-07
-1.54156e-06
-2.94052e-07
3.61546e-07
-9.09252e-07
8.10048e-07
0.00106189
2.12977e-06
-0.00106087
1.0527e-06
-1.75819e-06
-1.29379e-07
-7.45973e-07
-1.54409e-06
-2.91722e-07
-9.11634e-07
3.66594e-07
-4.95741e-06
-4.94488e-06
0.000259101
-7.71699e-07
0.000261554
-0.000259425
-2.75884e-07
-2.70613e-07
1.45389e-05
6.88254e-06
0.00105945
-4.61546e-06
-1.61028e-06
-2.13147e-06
-2.50057e-06
-6.65191e-06
-3.00205e-06
-7.1308e-06
-0.000259767
-0.000263387
-0.00026287
2.13093e-06
-0.0010614
1.05106e-06
-1.72581e-06
-1.33908e-07
-7.45971e-07
-1.53844e-06
-2.89133e-07
3.61673e-07
-9.11741e-07
7.71565e-07
0.00106291
2.13188e-06
-0.00106187
1.04151e-06
-1.72359e-06
-1.34269e-07
-7.44026e-07
-1.54177e-06
-2.91674e-07
-9.12077e-07
3.61581e-07
-0.000259441
-2.73248e-07
-2.71137e-07
1.65114e-06
1.61643e-06
-6.95917e-07
-7.04061e-07
0.00025971
-9.06993e-07
-8.68578e-07
0.000262816
-0.00026065
-1.98779e-07
-1.91459e-07
8.31912e-07
0.00106319
-6.82843e-07
8.67963e-07
-9.48156e-08
4.23499e-07
-8.49993e-07
-1.43408e-06
-2.54022e-07
-1.65607e-06
1.65165e-06
8.25946e-07
0.00106361
-6.85371e-07
8.7617e-07
-9.46001e-08
4.29384e-07
-8.52907e-07
-1.43931e-06
-2.52083e-07
0.00106712
1.39053e-06
-0.00106578
7.00567e-07
-1.60547e-06
-7.02812e-08
-6.63576e-07
-1.39392e-06
-2.25799e-07
-8.34703e-07
4.59264e-07
9.12513e-07
0.00106755
1.3902e-06
-0.00106621
6.94824e-07
-1.61048e-06
-7.01269e-08
-6.63502e-07
-1.39643e-06
-2.26334e-07
-8.35207e-07
4.62363e-07
-6.95945e-07
-7.03152e-07
0.000259727
-8.7412e-07
0.000262842
-0.000260663
-1.9846e-07
-1.93744e-07
8.26184e-07
0.00106421
-6.80787e-07
8.32146e-07
-9.72227e-08
4.26391e-07
-8.52848e-07
-1.43672e-06
-2.51866e-07
-1.65084e-06
1.65624e-06
8.31144e-07
0.00106329
-6.85354e-07
8.68292e-07
-9.4617e-08
4.24035e-07
-8.52347e-07
-1.43361e-06
-2.51784e-07
0.00106815
1.39176e-06
-0.00106682
7.00025e-07
-1.56795e-06
-7.46633e-08
-6.58797e-07
-1.39152e-06
-2.23929e-07
-8.3519e-07
4.61862e-07
9.01953e-07
0.00106723
1.38988e-06
-0.00106589
6.99821e-07
-1.60267e-06
-7.23726e-08
-6.63527e-07
-1.39348e-06
-2.26184e-07
-8.34802e-07
4.62376e-07
1.6521e-06
8.31872e-07
0.00106309
-6.85307e-07
8.65511e-07
-9.69037e-08
4.23636e-07
-8.52859e-07
-2.52074e-07
-1.43402e-06
1.39103e-06
-0.00106655
7.03922e-07
-1.57533e-06
-7.63941e-08
-6.58133e-07
-1.39132e-06
-2.24066e-07
4.61825e-07
-8.35198e-07
9.04485e-07
0.00106703
1.38558e-06
-0.00106568
7.00398e-07
-1.60267e-06
-7.22808e-08
-6.63384e-07
-1.39382e-06
-2.26533e-07
-8.3527e-07
4.59337e-07
-6.98663e-07
-7.00599e-07
0.000259689
-8.66007e-07
0.00026279
-0.000260629
-1.98874e-07
-1.93714e-07
1.65288e-06
8.2078e-07
0.00106413
-6.80733e-07
8.26914e-07
-1.01722e-07
4.21224e-07
-8.50404e-07
-2.56853e-07
-1.4313e-06
1.39084e-06
-0.00106622
6.99101e-07
-1.56497e-06
-7.66026e-08
-6.58289e-07
-1.3856e-06
-2.26258e-07
4.53933e-07
-8.3494e-07
8.68463e-07
0.00106806
1.39131e-06
-0.00106672
6.99772e-07
-1.56535e-06
-7.68256e-08
-6.58797e-07
-1.3939e-06
-2.26344e-07
-8.3788e-07
4.59362e-07
-0.000260638
-1.98854e-07
-1.939e-07
1.60522e-06
1.57278e-06
-6.61006e-07
-6.69322e-07
0.000260969
-9.27994e-07
-8.92094e-07
0.000264096
-0.000261921
-1.79682e-07
-1.7493e-07
6.9205e-07
0.00106847
-6.65181e-07
9.1158e-07
-6.6961e-08
4.6178e-07
-8.3446e-07
-1.39385e-06
-2.23249e-07
-1.61029e-06
1.37522e-06
7.0212e-07
0.00106889
-6.65073e-07
9.17133e-07
-6.67615e-08
4.67544e-07
-8.37459e-07
-1.39904e-06
-2.18915e-07
0.00107247
1.35947e-06
-0.00107115
6.74996e-07
-1.60627e-06
-5.59989e-08
-6.59094e-07
-1.40327e-06
-2.03967e-07
-8.28837e-07
4.71726e-07
9.3364e-07
0.00107289
1.35911e-06
-0.00107157
6.74669e-07
-1.6113e-06
-5.37137e-08
-6.61582e-07
-1.41115e-06
-1.99434e-07
-8.3418e-07
4.80173e-07
-6.63733e-07
-6.66021e-07
0.000260989
-8.95132e-07
0.000264124
-0.000261947
-1.76717e-07
-1.71954e-07
6.91481e-07
0.0010695
-6.62996e-07
8.75786e-07
-7.12757e-08
4.64261e-07
-8.37511e-07
-1.39938e-06
-2.18987e-07
-1.60245e-06
1.37509e-06
6.9682e-07
0.00106857
-6.65119e-07
9.09136e-07
-6.68375e-08
4.6483e-07
-8.37039e-07
-1.39607e-06
-2.18753e-07
0.0010735
1.36074e-06
-0.00107217
6.74358e-07
-1.57105e-06
-5.81127e-08
-6.56832e-07
-1.40606e-06
-1.9954e-07
-8.34299e-07
4.74362e-07
9.28194e-07
0.00107257
1.35897e-06
-0.00107125
6.74666e-07
-1.60612e-06
-5.38066e-08
-6.61651e-07
-1.4054e-06
-1.99228e-07
-8.33687e-07
4.74772e-07
1.38095e-06
6.91948e-07
0.00106838
-6.62388e-07
9.06435e-07
-7.10922e-08
4.64405e-07
-8.37581e-07
-2.21499e-07
-1.39649e-06
1.36008e-06
-0.00107191
6.73188e-07
-1.57327e-06
-5.76137e-08
-6.56122e-07
-1.40341e-06
-2.02004e-07
4.71529e-07
-8.31671e-07
9.22775e-07
0.00107237
1.35967e-06
-0.00107105
6.75015e-07
-1.60098e-06
-5.79555e-08
-6.56289e-07
-1.40344e-06
-2.01881e-07
-8.31673e-07
4.71637e-07
-6.63913e-07
-6.68577e-07
0.000260953
-8.89605e-07
0.000264075
-0.000261905
-1.79456e-07
-1.72184e-07
1.37631e-06
6.96461e-07
0.00106941
-6.5777e-07
8.67788e-07
-7.55795e-08
4.61807e-07
-8.34954e-07
-2.21363e-07
-1.39401e-06
1.3601e-06
-0.00107157
6.73583e-07
-1.5681e-06
-5.98491e-08
-6.53594e-07
-1.4032e-06
-1.9964e-07
4.71426e-07
-8.34202e-07
8.89289e-07
0.00107341
1.36057e-06
-0.00107208
6.74141e-07
-1.56861e-06
-6.01498e-08
-6.54215e-07
-1.4009e-06
-2.01923e-07
-8.31731e-07
4.69062e-07
-0.000261919
-1.77367e-07
-1.72268e-07
1.60509e-06
1.56985e-06
-6.53034e-07