/*--------------------------------*- C++ -*----------------------------------*\
| =========                 |                                                 |
| \\      /  F ield         | OpenFOAM: The Open Source CFD Toolbox           |
|  \\    /   O peration     | Version:  v2012                                 |
|   \\  /    A nd           | Website:  www.openfoam.com                      |
|    \\/     M anipulation  |                                                 |
\*---------------------------------------------------------------------------*/
FoamFile
{
    version     2.0;
    format      ascii;
    class       volVectorField;
    location    "150";
    object      U;
}
// * * * * * * * * * * * * * * * * * * * * * * * * * * * * * * * * * * * * * //

dimensions      [0 1 -1 0 0 0 0];


internalField   nonuniform List<vector> 
85864
(
(0.000106162 0.000106148 0.100295)
(-0.000184944 0.000115339 0.10039)
(0.000115445 -0.000184882 0.10039)
(-0.00024816 -0.000248082 0.100398)
(9.70893e-05 9.71042e-05 0.100854)
(-0.00015139 9.35257e-05 0.100939)
(9.35486e-05 -0.000151334 0.100939)
(-0.000194378 -0.00019436 0.100971)
(9.71146e-05 9.70819e-05 0.101369)
(-0.000152312 9.09226e-05 0.101448)
(9.09727e-05 -0.000152292 0.101448)
(-0.000194872 -0.000194873 0.101475)
(9.48392e-05 9.48197e-05 0.101886)
(-0.000149276 8.71056e-05 0.101954)
(8.717e-05 -0.0001493 0.101954)
(-0.000192246 -0.000192233 0.101968)
(9.14614e-05 9.14014e-05 0.102391)
(-0.000143633 8.24023e-05 0.102442)
(8.2485e-05 -0.000143672 0.102442)
(-0.000186982 -0.000187026 0.102436)
(8.79814e-05 8.79052e-05 0.102877)
(-0.000137739 7.83407e-05 0.102907)
(7.84436e-05 -0.000137737 0.102907)
(-0.00018152 -0.000181629 0.102875)
(8.4805e-05 8.47856e-05 0.103344)
(-0.000132342 7.50457e-05 0.103348)
(7.51602e-05 -0.000132308 0.103349)
(-0.000176875 -0.000176988 0.103285)
(8.20867e-05 8.21677e-05 0.103793)
(-0.000127617 7.2506e-05 0.103768)
(7.25517e-05 -0.000127562 0.103768)
(-0.000173133 -0.000173203 0.103669)
(7.97935e-05 7.98802e-05 0.104226)
(-0.000123528 7.05556e-05 0.104168)
(7.05559e-05 -0.00012348 0.104168)
(-0.000170179 -0.000170262 0.104027)
(7.78337e-05 7.78383e-05 0.104646)
(-0.000120018 6.92305e-05 0.104551)
(6.91639e-05 -0.000119961 0.104551)
(-0.000168027 -0.000168093 0.104364)
(7.60821e-05 7.60652e-05 0.105053)
(-0.000116859 6.81495e-05 0.104917)
(6.81336e-05 -0.0001168 0.104917)
(-0.000166501 -0.000166564 0.104678)
(7.45025e-05 7.44924e-05 0.10545)
(-0.00011388 6.71481e-05 0.105269)
(6.71395e-05 -0.000113813 0.105269)
(-0.0001652 -0.000165258 0.104973)
(7.30274e-05 7.30402e-05 0.105836)
(-0.000111188 6.61582e-05 0.105606)
(6.6158e-05 -0.000111156 0.105607)
(-0.000164077 -0.000164169 0.105246)
(7.15821e-05 7.16113e-05 0.106213)
(-0.000108719 6.51004e-05 0.10593)
(6.50922e-05 -0.000108673 0.10593)
(-0.000163065 -0.000163075 0.105498)
(7.01859e-05 7.02049e-05 0.106581)
(-0.000106305 6.40651e-05 0.106239)
(6.40432e-05 -0.00010624 0.106239)
(-0.000161824 -0.000161762 0.105728)
(6.88121e-05 6.88065e-05 0.10694)
(-0.000103944 6.30703e-05 0.106534)
(6.3044e-05 -0.000103856 0.106534)
(-0.000160312 -0.000160262 0.105935)
(6.74533e-05 6.74206e-05 0.10729)
(-0.000101616 6.2055e-05 0.106813)
(6.20319e-05 -0.000101529 0.106814)
(-0.000158671 -0.000158655 0.106117)
(6.61295e-05 6.60853e-05 0.107631)
(-9.93255e-05 6.10422e-05 0.107077)
(6.10405e-05 -9.93855e-05 0.107078)
(-0.000156828 -0.000156861 0.106275)
(6.48291e-05 6.4788e-05 0.107964)
(-9.73257e-05 6.00836e-05 0.107325)
(6.00794e-05 -9.74464e-05 0.107325)
(-0.000154743 -0.000154831 0.106405)
(6.35584e-05 6.34954e-05 0.108287)
(-9.54514e-05 5.90793e-05 0.107556)
(5.91134e-05 -9.56024e-05 0.107556)
(-0.000152321 -0.000152452 0.106509)
(6.2325e-05 6.22528e-05 0.108602)
(-9.36203e-05 5.80533e-05 0.10777)
(5.8095e-05 -9.37824e-05 0.10777)
(-0.000149509 -0.000149653 0.106585)
(6.1135e-05 6.10568e-05 0.108908)
(-9.17338e-05 5.6903e-05 0.107966)
(5.69686e-05 -9.18978e-05 0.107966)
(-0.000146291 -0.000146422 0.106634)
(5.99575e-05 5.98957e-05 0.109206)
(-8.98018e-05 5.57737e-05 0.108144)
(5.58253e-05 -8.9967e-05 0.108144)
(-0.000142635 -0.000142728 0.106658)
(5.88538e-05 5.88055e-05 0.109495)
(-8.78866e-05 5.46944e-05 0.108305)
(5.47293e-05 -8.80151e-05 0.108305)
(-0.000138791 -0.00013887 0.106659)
(5.7823e-05 5.77851e-05 0.109777)
(-8.60192e-05 5.36158e-05 0.108449)
(5.36192e-05 -8.61481e-05 0.108448)
(-0.000134766 -0.000134839 0.106641)
(5.67664e-05 5.67151e-05 0.11005)
(-8.40603e-05 5.25054e-05 0.108577)
(5.24959e-05 -8.42076e-05 0.108576)
(-0.000130501 -0.000130588 0.106609)
(5.53994e-05 5.53306e-05 0.110315)
(-8.16845e-05 5.10796e-05 0.108691)
(5.10848e-05 -8.18483e-05 0.10869)
(-0.00012588 -0.000126022 0.106566)
(5.33863e-05 5.33136e-05 0.110569)
(-7.83691e-05 4.90666e-05 0.108791)
(4.90258e-05 -7.85468e-05 0.10879)
(-0.000120432 -0.000120598 0.106517)
(5.02696e-05 5.02337e-05 0.110807)
(-7.35191e-05 4.6219e-05 0.108876)
(4.61312e-05 -7.36363e-05 0.108876)
(-0.000113964 -0.000114054 0.106465)
(4.58449e-05 4.58615e-05 0.111023)
(-6.68119e-05 4.22146e-05 0.108945)
(4.2041e-05 -6.67303e-05 0.108946)
(-0.00010626 -0.00010621 0.106411)
(4.02406e-05 4.03457e-05 0.111212)
(-5.82986e-05 3.72033e-05 0.108997)
(3.70435e-05 -5.80201e-05 0.108998)
(-9.77119e-05 -9.72897e-05 0.106354)
(3.40427e-05 3.41435e-05 0.111371)
(-4.90554e-05 3.1575e-05 0.10903)
(3.14732e-05 -4.85558e-05 0.109031)
(-8.88098e-05 -8.81341e-05 0.106293)
(2.80665e-05 2.81029e-05 0.111498)
(-3.96731e-05 2.57895e-05 0.109048)
(2.60303e-05 -3.93728e-05 0.109046)
(-8.04044e-05 -7.98211e-05 0.10623)
(2.28302e-05 2.25265e-05 0.111599)
(-3.11597e-05 2.09995e-05 0.10905)
(2.1131e-05 -3.14276e-05 0.109046)
(-7.28569e-05 -7.28988e-05 0.106171)
(1.76522e-05 1.73e-05 0.111676)
(-2.382e-05 1.6543e-05 0.109041)
(1.67956e-05 -2.44125e-05 0.109036)
(-6.64378e-05 -6.72266e-05 0.106114)
(1.22156e-05 1.21631e-05 0.111733)
(-1.74754e-05 1.22889e-05 0.109028)
(1.23445e-05 -1.78271e-05 0.109024)
(-6.19301e-05 -6.2218e-05 0.106072)
(7.57698e-06 7.76513e-06 0.111771)
(-1.20608e-05 8.08616e-06 0.109015)
(8.26389e-06 -1.22088e-05 0.109013)
(-5.80346e-05 -5.8109e-05 0.106041)
(4.11569e-06 4.22327e-06 0.111794)
(-7.42005e-06 5.01018e-06 0.109005)
(4.9336e-06 -7.66259e-06 0.109003)
(-5.53153e-05 -5.57028e-05 0.106022)
(1.55805e-06 1.88536e-06 0.111805)
(-4.49654e-06 4.03278e-06 0.108993)
(3.64848e-06 -4.48053e-06 0.108993)
(-5.35297e-05 -5.34514e-05 0.106003)
(2.58627e-07 2.05003e-07 0.11181)
(-2.85936e-06 2.92083e-06 0.108983)
(2.82805e-06 -2.59622e-06 0.108985)
(-5.30272e-05 -5.24721e-05 0.105991)
(-3.87411e-07 -6.17734e-07 0.111812)
(-1.77548e-06 2.27067e-06 0.108978)
(2.18447e-06 -1.43962e-06 0.108981)
(-5.24515e-05 -5.21531e-05 0.105985)
(-1.14741e-06 -1.00309e-06 0.111812)
(-1.05969e-06 2.03823e-06 0.108974)
(1.89972e-06 -1.12639e-06 0.108978)
(-5.21023e-05 -5.24819e-05 0.105981)
(-1.55854e-06 -1.38971e-06 0.111811)
(-8.53458e-07 1.88104e-06 0.108969)
(1.75769e-06 -9.96151e-07 0.108974)
(-5.20493e-05 -5.23884e-05 0.105978)
(-1.56677e-06 -1.50081e-06 0.111811)
(-9.84674e-07 1.70642e-06 0.108965)
(1.70306e-06 -1.11196e-06 0.108969)
(-5.19772e-05 -5.22753e-05 0.105976)
(-1.36747e-06 -1.41473e-06 0.11181)
(-9.95407e-07 1.76286e-06 0.108961)
(1.71734e-06 -1.21794e-06 0.108964)
(-5.21361e-05 -5.23426e-05 0.105972)
(-1.219e-06 -1.2475e-06 0.111809)
(-9.45155e-07 1.81047e-06 0.108958)
(1.82098e-06 -1.09773e-06 0.10896)
(-5.22397e-05 -5.21202e-05 0.105969)
(-1.18865e-06 -1.19495e-06 0.111809)
(-9.15628e-07 1.88166e-06 0.108955)
(1.86136e-06 -9.37443e-07 0.108958)
(-5.23085e-05 -5.22532e-05 0.105965)
(0.000138265 0.000138307 0.100282)
(0.000126683 0.000160225 0.10023)
(-0.000126653 0.000160098 0.10023)
(-0.000138221 0.000138156 0.100282)
(0.000160239 0.000126666 0.10023)
(0.000160132 -0.00012664 0.10023)
(9.37474e-05 9.3722e-05 0.100152)
(-9.36976e-05 9.36578e-05 0.100152)
(9.36839e-05 -9.37086e-05 0.100152)
(-9.36917e-05 -9.36807e-05 0.100152)
(-0.000160198 0.000126559 0.10023)
(-0.000160219 -0.000126589 0.10023)
(0.000138173 -0.000138259 0.100282)
(0.000126597 -0.000160164 0.10023)
(-0.000126612 -0.000160111 0.10023)
(-0.000138258 -0.000138062 0.100282)
(0.000248186 0.000248265 0.100398)
(0.000112727 0.000112692 0.100897)
(0.000115519 0.000184841 0.100391)
(-0.000115406 0.000184773 0.10039)
(9.30666e-05 0.000149027 0.100817)
(-9.29528e-05 0.000148911 0.100817)
(-0.000248152 0.000248016 0.100398)
(-0.000112564 0.000112468 0.100897)
(0.000184936 0.000115457 0.100391)
(0.000184775 -0.000115467 0.100391)
(0.000148903 9.31518e-05 0.100817)
(0.000148832 -9.29904e-05 0.100817)
(-0.000184832 -0.000115474 0.100391)
(-0.000148868 9.29785e-05 0.100817)
(-0.000148928 -9.30213e-05 0.100817)
(0.000248069 -0.000248178 0.100398)
(0.000112611 -0.000112607 0.100897)
(-0.000115473 -0.000184835 0.10039)
(9.29939e-05 -0.000148827 0.100817)
(-9.30789e-05 -0.000148874 0.100817)
(-0.000112689 -0.000112698 0.100897)
(0.000194428 0.000194365 0.100971)
(0.000105541 0.000105446 0.101399)
(9.35725e-05 0.000151528 0.100939)
(-9.35e-05 0.00015144 0.100938)
(9.151e-05 0.000152303 0.10132)
(-9.14708e-05 0.000152254 0.101319)
(-0.000194262 0.000194158 0.100971)
(-0.000105452 0.000105315 0.101399)
(0.000151395 9.36666e-05 0.100939)
(0.000151352 -9.34997e-05 0.100938)
(0.000152229 9.16019e-05 0.10132)
(0.000152233 -9.14781e-05 0.101319)
(-0.000151452 -9.3553e-05 0.100939)
(-0.000152212 9.14712e-05 0.101319)
(-0.000152322 -9.15086e-05 0.10132)
(0.000194266 -0.000194278 0.100971)
(0.000105417 -0.000105474 0.101399)
(-9.36333e-05 -0.00015139 0.100939)
(9.15261e-05 -0.000152192 0.101319)
(-9.15912e-05 -0.000152226 0.10132)
(-0.000105501 -0.000105481 0.101399)
(0.000194948 0.000194819 0.101475)
(9.78072e-05 9.77101e-05 0.101897)
(9.09453e-05 0.000152385 0.101448)
(-9.09157e-05 0.000152328 0.101448)
(8.83233e-05 0.00015051 0.101829)
(-8.82343e-05 0.000150432 0.101829)
(-0.000194832 0.000194697 0.101475)
(-9.76904e-05 9.75453e-05 0.101896)
(0.000152326 9.10395e-05 0.101448)
(0.000152324 -9.09254e-05 0.101448)
(0.000150438 8.84021e-05 0.101829)
(0.000150401 -8.82634e-05 0.101829)
(-0.000152421 -9.09883e-05 0.101448)
(-0.000150436 8.82405e-05 0.101829)
(-0.000150541 -8.83747e-05 0.101829)
(0.000194776 -0.000194861 0.101475)
(9.76222e-05 -9.77667e-05 0.101896)
(-9.10668e-05 -0.000152329 0.101448)
(8.83024e-05 -0.000150443 0.101829)
(-8.84167e-05 -0.000150459 0.101829)
(-9.78169e-05 -9.77759e-05 0.101897)
(0.000192281 0.000192163 0.101968)
(8.85013e-05 8.84191e-05 0.102371)
(8.72007e-05 0.000149351 0.101954)
(-8.71042e-05 0.000149274 0.101954)
(8.36615e-05 0.000145174 0.102323)
(-8.35578e-05 0.00014513 0.102322)
(-0.000192146 0.000192013 0.101968)
(-8.84107e-05 8.83086e-05 0.102371)
(0.000149286 8.72674e-05 0.101954)
(0.000149229 -8.713e-05 0.101954)
(0.000145183 8.3699e-05 0.102322)
(0.000145098 -8.35416e-05 0.102322)
(-0.000149379 -8.72458e-05 0.101954)
(-0.000145133 8.35788e-05 0.102322)
(-0.00014521 -8.37048e-05 0.102323)
(0.000192068 -0.000192201 0.101968)
(8.83334e-05 -8.84465e-05 0.10237)
(-8.72912e-05 -0.000149302 0.101954)
(8.36425e-05 -0.000145174 0.102322)
(-8.37486e-05 -0.000145177 0.102322)
(-8.85055e-05 -8.85013e-05 0.102371)
(0.000187042 0.000186905 0.102436)
(7.96827e-05 7.95563e-05 0.102817)
(8.2469e-05 0.000143649 0.102442)
(-8.24036e-05 0.000143627 0.102442)
(7.93006e-05 0.000139131 0.102793)
(-7.93318e-05 0.000139144 0.102793)
(-0.000186928 0.0001868 0.102436)
(-7.96565e-05 7.96189e-05 0.102816)
(0.000143695 8.24908e-05 0.102442)
(0.000143616 -8.23815e-05 0.102442)
(0.00013925 7.93209e-05 0.102793)
(0.000139219 -7.93201e-05 0.102793)
(-0.00014369 -8.25032e-05 0.102442)
(-0.000139183 7.92862e-05 0.102793)
(-0.000139199 -7.93508e-05 0.102793)
(0.000186818 -0.000186962 0.102436)
(7.972e-05 -7.96648e-05 0.102816)
(-8.25528e-05 -0.00014368 0.102442)
(7.93803e-05 -0.000139193 0.102793)
(-7.93651e-05 -0.000139241 0.102793)
(-7.96519e-05 -7.96959e-05 0.102817)
(0.000181608 0.000181412 0.102875)
(7.1879e-05 7.17385e-05 0.103234)
(7.83379e-05 0.000137661 0.102907)
(-7.83994e-05 0.000137691 0.102907)
(7.57987e-05 0.000133562 0.10324)
(-7.58777e-05 0.000133552 0.10324)
(-0.000181544 0.000181455 0.102875)
(-7.18897e-05 7.18159e-05 0.103234)
(0.000137802 7.83639e-05 0.102907)
(0.00013778 -7.83953e-05 0.102907)
(0.000133677 7.58383e-05 0.10324)
(0.000133665 -7.59107e-05 0.10324)
(-0.000137746 -7.84048e-05 0.102907)
(-0.000133635 7.58012e-05 0.10324)
(-0.000133648 -7.58847e-05 0.103241)
(0.000181567 -0.000181583 0.102875)
(7.19814e-05 -7.19055e-05 0.103234)
(-7.84135e-05 -0.000137795 0.102907)
(7.59243e-05 -0.000133609 0.10324)
(-7.58898e-05 -0.000133686 0.10324)
(-7.18832e-05 -7.19412e-05 0.103234)
(0.000176931 0.000176746 0.103285)
(6.50428e-05 6.50772e-05 0.103626)
(7.50543e-05 0.000132293 0.103349)
(-7.51214e-05 0.000132257 0.103348)
(7.31122e-05 0.000128831 0.103665)
(-7.31264e-05 0.000128698 0.103665)
(-0.000176887 0.000176772 0.103285)
(-6.50577e-05 6.50364e-05 0.103626)
(0.000132373 7.5096e-05 0.103348)
(0.000132355 -7.51565e-05 0.103349)
(0.000128723 7.31696e-05 0.103665)
(0.000128712 -7.31556e-05 0.103665)
(-0.000132355 -7.51292e-05 0.103349)
(-0.000128741 7.3086e-05 0.103665)
(-0.000128763 -7.3133e-05 0.103665)
(0.000176927 -0.000176934 0.103285)
(6.51068e-05 -6.50644e-05 0.103626)
(-7.51355e-05 -0.000132383 0.103349)
(7.31488e-05 -0.000128689 0.103665)
(-7.31531e-05 -0.000128755 0.103665)
(-6.50847e-05 -6.51013e-05 0.103626)
(0.000173163 0.000173144 0.103668)
(5.90982e-05 5.92683e-05 0.103993)
(7.25334e-05 0.000127735 0.103768)
(-7.25361e-05 0.000127588 0.103768)
(7.10188e-05 0.000124649 0.10407)
(-7.0996e-05 0.000124521 0.10407)
(-0.000173116 0.000173056 0.103668)
(-5.9111e-05 5.92132e-05 0.103993)
(0.000127584 7.25947e-05 0.103768)
(0.000127575 -7.25623e-05 0.103768)
(0.000124418 7.10714e-05 0.10407)
(0.000124445 -7.10167e-05 0.10407)
(-0.000127636 -7.25374e-05 0.103768)
(-0.000124497 7.09947e-05 0.10407)
(-0.000124499 -7.09674e-05 0.10407)
(0.00017311 -0.00017316 0.103668)
(5.91947e-05 -5.91196e-05 0.103993)
(-7.25611e-05 -0.00012762 0.103768)
(7.10011e-05 -0.000124445 0.10407)
(-7.09924e-05 -0.00012448 0.10407)
(-5.91186e-05 -5.91177e-05 0.103993)
(0.000170258 0.000170257 0.104027)
(5.41332e-05 5.43402e-05 0.104339)
(7.06094e-05 0.000123674 0.104168)
(-7.0587e-05 0.000123561 0.104168)
(6.96532e-05 0.000120947 0.104457)
(-6.96429e-05 0.000120908 0.104456)
(-0.000170195 0.00017016 0.104027)
(-5.41492e-05 5.43534e-05 0.104338)
(0.00012344 7.06283e-05 0.104168)
(0.000123478 -7.06075e-05 0.104168)
(0.000120748 6.95523e-05 0.104457)
(0.000120817 -6.96585e-05 0.104457)
(-0.000123518 -7.05045e-05 0.104168)
(-0.000120855 6.95302e-05 0.104457)
(-0.000120825 -6.94359e-05 0.104457)
(0.000170143 -0.000170276 0.104027)
(5.43271e-05 -5.41005e-05 0.104338)
(-7.0522e-05 -0.000123501 0.104168)
(6.94579e-05 -0.000120801 0.104457)
(-6.93867e-05 -0.000120811 0.104457)
(-5.40945e-05 -5.40449e-05 0.104339)
(0.000168154 0.000168178 0.104363)
(4.96922e-05 4.98483e-05 0.104663)
(6.9363e-05 0.000120091 0.104551)
(-6.93597e-05 0.000120064 0.104551)
(6.85971e-05 0.000117697 0.104827)
(-6.85788e-05 0.000117683 0.104827)
(-0.000168101 0.000168138 0.104363)
(-4.96715e-05 4.98644e-05 0.104663)
(0.000119904 6.925e-05 0.104551)
(0.000119981 -6.93867e-05 0.104551)
(0.000117514 6.84641e-05 0.104827)
(0.000117616 -6.86367e-05 0.104827)
(-0.00011999 -6.91568e-05 0.104551)
(-0.000117631 6.84145e-05 0.104827)
(-0.000117637 -6.83968e-05 0.104827)
(0.000168132 -0.000168155 0.104363)
(4.98621e-05 -4.97071e-05 0.104663)
(-6.90952e-05 -0.000119971 0.104551)
(6.83903e-05 -0.00011758 0.104827)
(-6.83266e-05 -0.000117602 0.104827)
(-4.96765e-05 -4.96531e-05 0.104663)
(0.000166586 0.000166593 0.104678)
(4.54621e-05 4.55904e-05 0.104968)
(6.83299e-05 0.000116913 0.104917)
(-6.83217e-05 0.000116903 0.104917)
(6.75711e-05 0.000114693 0.105183)
(-6.75763e-05 0.000114676 0.105182)
(-0.000166528 0.000166553 0.104678)
(-4.54902e-05 4.56401e-05 0.104968)
(0.00011673 6.8199e-05 0.104917)
(0.000116839 -6.83826e-05 0.104917)
(0.000114479 6.74493e-05 0.105183)
(0.000114599 -6.76312e-05 0.105182)
(-0.000116873 -6.81483e-05 0.104918)
(-0.000114611 6.7397e-05 0.105182)
(-0.000114657 -6.74138e-05 0.105183)
(0.000166585 -0.000166628 0.104678)
(4.56208e-05 -4.55304e-05 0.104968)
(-6.80797e-05 -0.000116832 0.104917)
(6.73899e-05 -0.000114554 0.105183)
(-6.73599e-05 -0.000114599 0.105182)
(-4.55093e-05 -4.55066e-05 0.104968)
(0.000165215 0.000165235 0.104973)
(4.149e-05 4.15993e-05 0.105254)
(6.73133e-05 0.000113964 0.105269)
(-6.73189e-05 0.000113935 0.105269)
(6.65549e-05 0.00011195 0.105524)
(-6.65638e-05 0.00011193 0.105523)
(-0.000165189 0.000165212 0.104972)
(-4.15575e-05 4.16744e-05 0.105254)
(0.000113738 6.7204e-05 0.105269)
(0.000113857 -6.73761e-05 0.105269)
(0.000111731 6.64844e-05 0.105524)
(0.000111849 -6.66014e-05 0.105523)
(-0.000113933 -6.71689e-05 0.105269)
(-0.000111828 6.6414e-05 0.105523)
(-0.000111896 -6.64132e-05 0.105524)
(0.000165239 -0.000165293 0.104972)
(4.16198e-05 -4.15831e-05 0.105254)
(-6.71226e-05 -0.000113873 0.105269)
(6.64149e-05 -0.000111801 0.105524)
(-6.6403e-05 -0.000111828 0.105524)
(-4.15648e-05 -4.15848e-05 0.105254)
(0.000164062 0.000164062 0.105246)
(3.75397e-05 3.77508e-05 0.10552)
(6.62838e-05 0.000111309 0.105607)
(-6.63017e-05 0.000111297 0.105606)
(6.55009e-05 0.000109465 0.105851)
(-6.55419e-05 0.000109444 0.10585)
(-0.000164103 0.000164076 0.105245)
(-3.75637e-05 3.77744e-05 0.105519)
(0.000111097 6.62377e-05 0.105607)
(0.000111214 -6.63305e-05 0.105606)
(0.000109263 6.54377e-05 0.105851)
(0.000109379 -6.55469e-05 0.10585)
(-0.000111257 -6.61531e-05 0.105607)
(-0.000109326 6.53618e-05 0.10585)
(-0.000109405 -6.53796e-05 0.105851)
(0.000164067 -0.000164177 0.105246)
(3.77747e-05 -3.75497e-05 0.105519)
(-6.61508e-05 -0.000111185 0.105607)
(6.53605e-05 -0.000109291 0.105851)
(-6.53504e-05 -0.000109304 0.10585)
(-3.76836e-05 -3.75556e-05 0.105519)
(0.000163015 0.000163048 0.105498)
(3.34279e-05 3.36385e-05 0.105764)
(6.5238e-05 0.000108849 0.10593)
(-6.5287e-05 0.000108835 0.10593)
(6.45042e-05 0.000107035 0.106163)
(-6.45528e-05 0.000107012 0.106163)
(-0.000163042 0.000163051 0.105498)
(-3.33989e-05 3.36507e-05 0.105764)
(0.000108654 6.51751e-05 0.10593)
(0.00010877 -6.52749e-05 0.10593)
(0.000106872 6.44035e-05 0.106164)
(0.000106979 -6.45159e-05 0.106163)
(-0.000108793 -6.51197e-05 0.10593)
(-0.000106901 6.4315e-05 0.106163)
(-0.000106978 -6.43596e-05 0.106163)
(0.000163049 -0.000163063 0.105498)
(3.37145e-05 -3.33541e-05 0.105764)
(-6.50897e-05 -0.000108683 0.10593)
(6.43029e-05 -0.000106844 0.106164)
(-6.42919e-05 -0.000106837 0.106163)
(-3.35519e-05 -3.33442e-05 0.105764)
(0.000161782 0.000161823 0.105728)
(2.94012e-05 2.95096e-05 0.105987)
(6.42626e-05 0.000106422 0.106239)
(-6.43109e-05 0.000106414 0.106239)
(6.35414e-05 0.000104647 0.106462)
(-6.3588e-05 0.000104628 0.106461)
(-0.000161782 0.000161823 0.105728)
(-2.93451e-05 2.95211e-05 0.105987)
(0.00010628 6.41548e-05 0.10624)
(0.000106377 -6.42571e-05 0.106239)
(0.000104546 6.34247e-05 0.106462)
(0.000104608 -6.34922e-05 0.106461)
(-0.000106374 -6.41072e-05 0.106239)
(-0.000104528 6.33298e-05 0.106461)
(-0.000104592 -6.33501e-05 0.106461)
(0.000161858 -0.000161771 0.105728)
(2.95636e-05 -2.92521e-05 0.105987)
(-6.40359e-05 -0.000106226 0.106239)
(6.32971e-05 -0.000104447 0.106462)
(-6.32786e-05 -0.000104422 0.106461)
(-2.94066e-05 -2.92336e-05 0.105987)
(0.000160369 0.000160322 0.105935)
(2.55858e-05 2.56204e-05 0.106187)
(6.32986e-05 0.000104035 0.106534)
(-6.33243e-05 0.000104031 0.106533)
(6.25638e-05 0.000102288 0.106745)
(-6.25624e-05 0.000102263 0.106745)
(-0.000160329 0.000160324 0.105935)
(-2.5512e-05 2.55856e-05 0.106186)
(0.000103965 6.31762e-05 0.106534)
(0.00010402 -6.3233e-05 0.106534)
(0.000102256 6.24249e-05 0.106745)
(0.000102267 -6.24629e-05 0.106745)
(-0.000104004 -6.30963e-05 0.106534)
(-0.000102192 6.231e-05 0.106745)
(-0.000102237 -6.23377e-05 0.106745)
(0.000160352 -0.000160283 0.105935)
(2.56476e-05 -2.53979e-05 0.106186)
(-6.30224e-05 -0.00010383 0.106534)
(6.22922e-05 -0.000102107 0.106745)
(-6.22611e-05 -0.000102059 0.106745)
(-2.55076e-05 -2.53784e-05 0.106186)
(0.000158781 0.000158679 0.106118)
(2.20406e-05 2.20563e-05 0.106361)
(6.2316e-05 0.000101678 0.106813)
(-6.22938e-05 0.000101688 0.106813)
(6.15718e-05 0.000100002 0.107013)
(-6.15158e-05 9.99373e-05 0.107012)
(-0.000158732 0.00015867 0.106117)
(-2.19363e-05 2.19756e-05 0.106361)
(0.000101674 6.21735e-05 0.106814)
(0.000101678 -6.22007e-05 0.106813)
(0.000100004 6.14253e-05 0.107013)
(9.99878e-05 -6.14609e-05 0.107013)
(-0.000101662 -6.20771e-05 0.106813)
(-9.98717e-05 6.12844e-05 0.107013)
(-9.99166e-05 -6.13269e-05 0.107013)
(0.000158696 -0.000158671 0.106118)
(2.20345e-05 -2.18708e-05 0.106361)
(-6.19953e-05 -0.000101487 0.106813)
(6.12827e-05 -9.98758e-05 0.107013)
(-6.12312e-05 -9.97555e-05 0.107013)
(-2.19188e-05 -2.18417e-05 0.106361)
(0.000156986 0.000156871 0.106275)
(1.86978e-05 1.87241e-05 0.10651)
(6.13314e-05 9.94898e-05 0.107077)
(-6.12578e-05 9.94006e-05 0.107077)
(6.06118e-05 9.79991e-05 0.107265)
(-6.0524e-05 9.78734e-05 0.107264)
(-0.000156901 0.000156831 0.106274)
(-1.8616e-05 1.86295e-05 0.10651)
(9.95058e-05 6.11859e-05 0.107078)
(9.94858e-05 -6.12274e-05 0.107077)
(9.80067e-05 6.04714e-05 0.107265)
(9.7973e-05 -6.05294e-05 0.107264)
(-9.93792e-05 -6.10843e-05 0.107077)
(-9.78016e-05 6.03177e-05 0.107265)
(-9.78451e-05 -6.03902e-05 0.107265)
(0.000156849 -0.000156896 0.106275)
(1.86705e-05 -1.85893e-05 0.10651)
(-6.09797e-05 -9.92273e-05 0.107077)
(6.03225e-05 -9.79167e-05 0.107265)
(-6.02523e-05 -9.77372e-05 0.107265)
(-1.85525e-05 -1.85424e-05 0.10651)
(0.000154916 0.000154818 0.106405)
(1.55297e-05 1.55771e-05 0.106632)
(6.03634e-05 9.75488e-05 0.107325)
(-6.02785e-05 9.74066e-05 0.107325)
(5.96316e-05 9.60666e-05 0.1075)
(-5.95319e-05 9.59903e-05 0.1075)
(-0.000154837 0.000154762 0.106405)
(-1.54485e-05 1.54882e-05 0.106632)
(9.75272e-05 6.02357e-05 0.107325)
(9.7499e-05 -6.02957e-05 0.107325)
(9.6077e-05 5.94801e-05 0.1075)
(9.60579e-05 -5.95839e-05 0.1075)
(-9.73705e-05 -6.01491e-05 0.107325)
(-9.59013e-05 5.93257e-05 0.1075)
(-9.59276e-05 -5.94363e-05 0.1075)
(0.000154765 -0.000154879 0.106405)
(1.5503e-05 -1.5481e-05 0.106631)
(-6.00019e-05 -9.72745e-05 0.107325)
(5.93534e-05 -9.60456e-05 0.1075)
(-5.9263e-05 -9.58695e-05 0.1075)
(-1.53788e-05 -1.54224e-05 0.106631)
(0.000152478 0.000152402 0.106508)
(1.25395e-05 1.25716e-05 0.106725)
(5.9375e-05 9.56106e-05 0.107556)
(-5.92885e-05 9.55481e-05 0.107556)
(5.8598e-05 9.41487e-05 0.107718)
(-5.85067e-05 9.4174e-05 0.107718)
(-0.000152375 0.000152334 0.106509)
(-1.24517e-05 1.24527e-05 0.106726)
(9.56368e-05 5.92254e-05 0.107556)
(9.56193e-05 -5.93493e-05 0.107556)
(9.42131e-05 5.84413e-05 0.107718)
(9.42255e-05 -5.85798e-05 0.107718)
(-9.54833e-05 -5.92001e-05 0.107556)
(-9.40625e-05 5.83086e-05 0.107718)
(-9.40761e-05 -5.84362e-05 0.107718)
(0.000152352 -0.000152502 0.106509)
(1.25216e-05 -1.24816e-05 0.106725)
(-5.90196e-05 -9.54414e-05 0.107556)
(5.83491e-05 -9.42142e-05 0.107718)
(-5.82354e-05 -9.40568e-05 0.107718)
(-1.23814e-05 -1.24453e-05 0.106725)
(0.000149655 0.000149593 0.106585)
(9.65501e-06 9.61748e-06 0.106792)
(5.83354e-05 9.37196e-05 0.10777)
(-5.82397e-05 9.37598e-05 0.10777)
(5.7451e-05 9.22454e-05 0.107918)
(-5.73908e-05 9.23389e-05 0.107918)
(-0.000149553 0.000149503 0.106585)
(-9.49511e-06 9.54371e-06 0.106792)
(9.38034e-05 5.818e-05 0.10777)
(9.3816e-05 -5.8323e-05 0.107769)
(9.23649e-05 5.7326e-05 0.107919)
(9.23853e-05 -5.74597e-05 0.107918)
(-9.36612e-05 -5.81719e-05 0.10777)
(-9.2188e-05 5.72004e-05 0.107919)
(-9.22221e-05 -5.73243e-05 0.107918)
(0.000149573 -0.000149681 0.106585)
(9.61528e-06 -9.56103e-06 0.106791)
(-5.79686e-05 -9.36418e-05 0.10777)
(5.72565e-05 -9.23509e-05 0.107919)
(-5.71238e-05 -9.21941e-05 0.107918)
(-9.47384e-06 -9.53923e-06 0.106792)
(0.000146463 0.000146319 0.106634)
(6.78118e-06 6.87006e-06 0.106831)
(5.71573e-05 9.18127e-05 0.107966)
(-5.70926e-05 9.19181e-05 0.107966)
(5.6288e-05 9.03358e-05 0.108101)
(-5.62415e-05 9.04561e-05 0.108101)
(-0.000146297 0.000146284 0.106634)
(-6.70292e-06 6.75654e-06 0.106832)
(9.19394e-05 5.70461e-05 0.107966)
(9.1957e-05 -5.7163e-05 0.107965)
(9.04525e-05 5.61606e-05 0.108101)
(9.04924e-05 -5.62898e-05 0.108101)
(-9.17958e-05 -5.70239e-05 0.107966)
(-9.02782e-05 5.6042e-05 0.108101)
(-9.03324e-05 -5.61535e-05 0.108101)
(0.000146359 -0.000146452 0.106634)
(6.82619e-06 -6.68819e-06 0.106831)
(-5.68242e-05 -9.17611e-05 0.107966)
(5.6103e-05 -9.0436e-05 0.108101)
(-5.59868e-05 -9.02721e-05 0.108101)
(-6.66453e-06 -6.69697e-06 0.106831)
(0.000142748 0.00014268 0.106658)
(4.12689e-06 4.25645e-06 0.106846)
(5.60247e-05 8.98927e-05 0.108144)
(-5.59809e-05 9.00238e-05 0.108144)
(5.51623e-05 8.83479e-05 0.108265)
(-5.51725e-05 8.84963e-05 0.108265)
(-0.000142648 0.000142642 0.106658)
(-4.08031e-06 4.10979e-06 0.106847)
(9.00191e-05 5.58963e-05 0.108144)
(9.00577e-05 -5.60229e-05 0.108143)
(8.84652e-05 5.5065e-05 0.108266)
(8.85129e-05 -5.52079e-05 0.108265)
(-8.98962e-05 -5.58712e-05 0.108144)
(-8.83358e-05 5.49726e-05 0.108266)
(-8.83851e-05 -5.50696e-05 0.108266)
(0.000142721 -0.00014277 0.106658)
(4.15668e-06 -4.0425e-06 0.106846)
(-5.57094e-05 -8.98105e-05 0.108144)
(5.50013e-05 -8.8469e-05 0.108266)
(-5.49066e-05 -8.83099e-05 0.108266)
(-4.01e-06 -4.03374e-06 0.106846)
(0.000138848 0.000138789 0.106659)
(1.59689e-06 1.81221e-06 0.10684)
(5.48921e-05 8.79179e-05 0.108304)
(-5.4913e-05 8.80833e-05 0.108304)
(5.40776e-05 8.64085e-05 0.108413)
(-5.41342e-05 8.65954e-05 0.108413)
(-0.000138823 0.000138794 0.106659)
(-1.62122e-06 1.60914e-06 0.106841)
(8.80475e-05 5.47987e-05 0.108304)
(8.80959e-05 -5.49421e-05 0.108304)
(8.65255e-05 5.39634e-05 0.108414)
(8.66069e-05 -5.4152e-05 0.108413)
(-8.79729e-05 -5.47873e-05 0.108304)
(-8.64647e-05 5.38851e-05 0.108414)
(-8.65026e-05 -5.39997e-05 0.108414)
(0.000138872 -0.000138955 0.106659)
(1.66527e-06 -1.57336e-06 0.10684)
(-5.46275e-05 -8.79046e-05 0.108304)
(5.38872e-05 -8.65876e-05 0.108414)
(-5.38426e-05 -8.64412e-05 0.108414)
(-1.55805e-06 -1.5845e-06 0.10684)
(0.000134724 0.000134726 0.10664)
(-8.12279e-07 -6.34402e-07 0.106816)
(5.3816e-05 8.59996e-05 0.108448)
(-5.3889e-05 8.61932e-05 0.108448)
(5.29691e-05 8.43993e-05 0.108545)
(-5.30845e-05 8.4617e-05 0.108545)
(-0.000134808 0.000134741 0.106641)
(6.6746e-07 -7.35064e-07 0.106818)
(8.61243e-05 5.36857e-05 0.108448)
(8.61913e-05 -5.3902e-05 0.108447)
(8.45296e-05 5.28203e-05 0.108546)
(8.46197e-05 -5.31199e-05 0.108545)
(-8.60934e-05 -5.37199e-05 0.108448)
(-8.45524e-05 5.27943e-05 0.108546)
(-8.45502e-05 -5.29258e-05 0.108545)
(0.000134784 -0.00013491 0.106641)
(-7.24586e-07 7.14958e-07 0.106817)
(-5.35581e-05 -8.6041e-05 0.108448)
(5.28047e-05 -8.46829e-05 0.108546)
(-5.27805e-05 -8.45257e-05 0.108546)
(7.88582e-07 7.52675e-07 0.106817)
(0.000130479 0.000130468 0.106607)
(-3.28486e-06 -3.17285e-06 0.106781)
(5.26714e-05 8.39552e-05 0.108576)
(-5.28051e-05 8.41694e-05 0.108576)
(5.16428e-05 8.21114e-05 0.108662)
(-5.18051e-05 8.23181e-05 0.108662)
(-0.000130669 0.000130556 0.106608)
(3.09742e-06 -3.23758e-06 0.106783)
(8.40788e-05 5.25241e-05 0.108576)
(8.41735e-05 -5.28324e-05 0.108575)
(8.22298e-05 5.14725e-05 0.108663)
(8.23369e-05 -5.18545e-05 0.108662)
(-8.41046e-05 -5.26104e-05 0.108576)
(-8.2333e-05 5.14859e-05 0.108664)
(-8.22747e-05 -5.16308e-05 0.108663)
(0.000130544 -0.000130763 0.106608)
(-3.25877e-06 3.17022e-06 0.106782)
(-5.24497e-05 -8.40913e-05 0.108576)
(5.14745e-05 -8.24806e-05 0.108663)
(-5.14613e-05 -8.22756e-05 0.108663)
(3.29271e-06 3.19468e-06 0.106783)
(0.000125819 0.000125751 0.106564)
(-6.10505e-06 -6.07778e-06 0.106738)
(5.12333e-05 8.15218e-05 0.108689)
(-5.13971e-05 8.17308e-05 0.108689)
(4.9747e-05 7.90202e-05 0.108765)
(-4.99648e-05 7.92656e-05 0.108765)
(-0.00012609 0.000125895 0.106565)
(6.06642e-06 -6.23345e-06 0.106741)
(8.16396e-05 5.10448e-05 0.10869)
(8.1757e-05 -5.14577e-05 0.108689)
(7.91457e-05 4.95635e-05 0.108766)
(7.92942e-05 -5.00353e-05 0.108765)
(-8.17016e-05 -5.11989e-05 0.10869)
(-7.93277e-05 4.96817e-05 0.108767)
(-7.92223e-05 -4.97899e-05 0.108766)
(0.000125918 -0.000126181 0.106565)
(-6.19766e-06 6.09585e-06 0.106739)
(-5.1033e-05 -8.1716e-05 0.10869)
(4.96373e-05 -7.9483e-05 0.108767)
(-4.96368e-05 -7.92838e-05 0.108766)
(6.28182e-06 6.14251e-06 0.10674)
(0.000120436 0.000120327 0.106514)
(-9.9883e-06 -9.97636e-06 0.106689)
(4.91911e-05 7.81583e-05 0.108789)
(-4.93713e-05 7.84142e-05 0.108789)
(4.71374e-05 7.46675e-05 0.108854)
(-4.72789e-05 7.49153e-05 0.108854)
(-0.000120722 0.000120519 0.106516)
(9.89995e-06 -9.98363e-06 0.106693)
(7.82824e-05 4.89857e-05 0.108789)
(7.84275e-05 -4.94248e-05 0.108789)
(7.47597e-05 4.69363e-05 0.108854)
(7.49151e-05 -4.7289e-05 0.108854)
(-7.83337e-05 -4.91414e-05 0.10879)
(-7.49177e-05 4.7035e-05 0.108856)
(-7.4799e-05 -4.70313e-05 0.108855)
(0.0001205 -0.000120783 0.106516)
(-9.9047e-06 9.93943e-06 0.106692)
(-4.90195e-05 -7.84153e-05 0.10879)
(4.69964e-05 -7.50586e-05 0.108856)
(-4.69566e-05 -7.48903e-05 0.108855)
(1.013e-05 1.00614e-05 0.106693)
(0.000113928 0.000113816 0.106461)
(-1.48693e-05 -1.48398e-05 0.106638)
(4.62665e-05 7.33768e-05 0.108873)
(-4.64009e-05 7.36376e-05 0.108874)
(4.33709e-05 6.85797e-05 0.108927)
(-4.34216e-05 6.88297e-05 0.108927)
(-0.000114211 0.000114105 0.106463)
(1.50284e-05 -1.4888e-05 0.106643)
(7.34666e-05 4.61067e-05 0.108874)
(7.36241e-05 -4.63968e-05 0.108874)
(6.85967e-05 4.3274e-05 0.108926)
(6.8789e-05 -4.33163e-05 0.108927)
(-7.34916e-05 -4.6128e-05 0.108875)
(-6.87028e-05 4.33636e-05 0.10893)
(-6.85638e-05 -4.3126e-05 0.108928)
(0.000114118 -0.000114225 0.106464)
(-1.47334e-05 1.50945e-05 0.106642)
(-4.60616e-05 -7.35699e-05 0.108875)
(4.32225e-05 -6.86933e-05 0.10893)
(-4.31856e-05 -6.85211e-05 0.108929)
(1.50134e-05 1.50837e-05 0.106642)
(0.000106344 0.000106268 0.106406)
(-2.09658e-05 -2.09243e-05 0.106584)
(4.2219e-05 6.68157e-05 0.108942)
(-4.22195e-05 6.70467e-05 0.108943)