/*--------------------------------*- C++ -*----------------------------------*\
| =========                 |                                                 |
| \\      /  F ield         | OpenFOAM: The Open Source CFD Toolbox           |
|  \\    /   O peration     | Version:  v2012                                 |
|   \\  /    A nd           | Website:  www.openfoam.com                      |
|    \\/     M anipulation  |                                                 |
\*---------------------------------------------------------------------------*/
FoamFile
{
    version     2.0;
    format      ascii;
    class       volScalarField;
    location    "12.5";
    object      p;
}
// * * * * * * * * * * * * * * * * * * * * * * * * * * * * * * * * * * * * * //

dimensions      [0 2 -2 0 0 0 0];


internalField   nonuniform List<scalar> 
171728
(
0.00533432
0.00533575
0.00533551
0.00533877
0.00527182
0.0052733
0.00527318
0.00527618
0.00520578
0.00520599
0.00520596
0.00520877
0.00514335
0.00514299
0.00514299
0.00514638
0.00508621
0.00508612
0.00508611
0.00508947
0.00502969
0.00502964
0.00502964
0.00503299
0.00497322
0.00497317
0.00497317
0.00497652
0.00491675
0.00491671
0.00491671
0.00492006
0.00486029
0.00486024
0.00486024
0.00486359
0.00480382
0.00480378
0.00480378
0.00480713
0.00474736
0.00474732
0.00474732
0.00475067
0.00469091
0.00469086
0.00469086
0.00469421
0.00463445
0.00463441
0.00463441
0.00463776
0.004578
0.00457796
0.00457796
0.00458131
0.00452156
0.00452151
0.00452151
0.00452486
0.00446512
0.00446507
0.00446507
0.00446842
0.00440867
0.00440863
0.00440863
0.00441198
0.00435224
0.00435219
0.00435219
0.00435554
0.0042958
0.00429575
0.00429575
0.0042991
0.00423936
0.00423931
0.00423931
0.00424266
0.00418292
0.00418287
0.00418287
0.00418622
0.00412648
0.00412643
0.00412643
0.00412979
0.00407004
0.00407
0.00407
0.00407335
0.0040136
0.00401356
0.00401356
0.00401691
0.00395717
0.00395712
0.00395712
0.00396047
0.00390072
0.00390068
0.00390068
0.00390403
0.00384428
0.00384424
0.00384424
0.00384759
0.00378784
0.0037878
0.0037878
0.00379115
0.00373141
0.00373136
0.00373136
0.00373471
0.00367497
0.00367492
0.00367492
0.00367827
0.00361853
0.00361848
0.00361848
0.00362183
0.00356209
0.00356204
0.00356204
0.0035654
0.00350565
0.00350561
0.00350561
0.00350896
0.00344922
0.00344917
0.00344917
0.00345252
0.00339278
0.00339274
0.00339274
0.00339609
0.00333635
0.0033363
0.0033363
0.00333965
0.00327992
0.00327987
0.00327987
0.00328322
0.00322348
0.00322344
0.00322344
0.00322679
0.00316705
0.00316701
0.00316701
0.00317036
0.00311062
0.00311058
0.00311058
0.00311393
0.00305419
0.00305415
0.00305414
0.0030575
0.00299776
0.00299771
0.00299771
0.00300106
0.00294133
0.00294128
0.00294128
0.00294463
0.0028849
0.00288485
0.00288485
0.0028882
0.00282847
0.00282842
0.00282842
0.00283177
0.00277203
0.00277199
0.00277199
0.00277534
0.0027156
0.00271555
0.00271555
0.0027189
0.00265917
0.00265912
0.00265912
0.00266247
0.00260273
0.00260268
0.00260268
0.00260603
0.00254629
0.00254625
0.00254624
0.0025496
0.00248986
0.00248981
0.00248981
0.00249316
0.00243342
0.00243337
0.00243337
0.00243672
0.00237698
0.00237693
0.00237693
0.00238028
0.00232054
0.00232049
0.00232049
0.00232384
0.0022641
0.00226405
0.00226405
0.00226741
0.00220766
0.00220762
0.00220761
0.00221097
0.00215122
0.00215118
0.00215118
0.00215453
0.00209478
0.00209474
0.00209474
0.00209809
0.00203835
0.0020383
0.0020383
0.00204165
0.00198191
0.00198186
0.00198186
0.00198521
0.00192547
0.00192542
0.00192542
0.00192877
0.00186903
0.00186898
0.00186898
0.00187234
0.0018126
0.00181255
0.00181255
0.0018159
0.00175616
0.00175611
0.00175611
0.00175946
0.00169972
0.00169967
0.00169968
0.00170303
0.00164329
0.00164324
0.00164324
0.00164659
0.00158685
0.00158681
0.00158681
0.00159016
0.00153042
0.00153037
0.00153037
0.00153372
0.00147399
0.00147394
0.00147394
0.00147729
0.00141755
0.0014175
0.0014175
0.00142085
0.00136112
0.00136107
0.00136107
0.00136442
0.00130468
0.00130464
0.00130464
0.00130799
0.00124825
0.0012482
0.0012482
0.00125155
0.00119182
0.00119177
0.00119177
0.00119512
0.00113538
0.00113534
0.00113534
0.00113869
0.00107895
0.0010789
0.0010789
0.00108225
0.00102252
0.00102247
0.00102247
0.00102582
0.000966083
0.000966036
0.000966036
0.000969388
0.00090965
0.000909603
0.000909603
0.000912954
0.000853216
0.000853169
0.000853169
0.00085652
0.000796782
0.000796735
0.000796735
0.000800086
0.000740349
0.000740301
0.000740301
0.000743653
0.000683915
0.000683868
0.000683868
0.00068722
0.000627481
0.000627434
0.000627434
0.000630785
0.000571046
0.000570998
0.000570998
0.00057435
0.00051461
0.000514563
0.000514563
0.000517914
0.000458174
0.000458127
0.000458127
0.000461479
0.000401739
0.000401691
0.000401691
0.000405043
0.000345302
0.000345255
0.000345255
0.000348607
0.000288865
0.000288818
0.000288818
0.000292169
0.000232429
0.000232381
0.000232381
0.00023573
0.00017598
0.000175951
0.000175951
0.000179237
0.000119512
0.000119376
0.000119375
0.000122603
6.36432e-05
6.31e-05
6.30957e-05
6.6232e-05
1.47726e-05
1.53732e-05
1.53717e-05
1.52924e-05
0.00534806
0.00534797
0.00534788
0.00534798
0.00534783
0.00534774
0.00534822
0.00534819
0.00534826
0.00534805
0.00534787
0.00534762
0.00534782
0.00534785
0.00534762
0.00534761
0.00533907
0.00528441
0.00533581
0.00533579
0.00528789
0.00528795
0.00533911
0.0052845
0.00533551
0.0053354
0.00528782
0.00528774
0.00533563
0.00528794
0.00528789
0.00533876
0.00528431
0.00533559
0.00528778
0.00528786
0.00528442
0.00527616
0.0052177
0.00527326
0.0052733
0.00522232
0.00522234
0.00527624
0.00521772
0.00527321
0.00527316
0.00522231
0.00522229
0.00527326
0.00522234
0.00522233
0.00527608
0.00521768
0.00527324
0.0052223
0.00522232
0.00521771
0.00520877
0.0051539
0.00520597
0.00520598
0.00515764
0.00515763
0.00520878
0.00515391
0.00520597
0.00520596
0.00515762
0.00515762
0.00520598
0.00515763
0.00515763
0.00520875
0.0051539
0.00520597
0.00515762
0.00515763
0.0051539
0.00514638
0.00509687
0.00514299
0.00514299
0.00510025
0.00510025
0.00514638
0.00509687
0.00514299
0.00514299
0.00510025
0.00510025
0.00514299
0.00510025
0.00510025
0.00514638
0.00509687
0.00514299
0.00510025
0.00510025
0.00509687
0.00508947
0.00504039
0.00508611
0.00508612
0.00504375
0.00504375
0.00508947
0.00504039
0.00508611
0.00508611
0.00504375
0.00504375
0.00508612
0.00504375
0.00504375
0.00508947
0.00504039
0.00508612
0.00504375
0.00504375
0.00504039
0.00503299
0.00498392
0.00502964
0.00502964
0.00498729
0.00498729
0.00503299
0.00498392
0.00502964
0.00502964
0.00498729
0.00498729
0.00502964
0.00498729
0.00498729
0.00503299
0.00498392
0.00502964
0.00498729
0.00498729
0.00498392
0.00497652
0.00492746
0.00497317
0.00497317
0.00493082
0.00493082
0.00497652
0.00492746
0.00497317
0.00497317
0.00493082
0.00493082
0.00497317
0.00493082
0.00493082
0.00497652
0.00492746
0.00497317
0.00493082
0.00493082
0.00492746
0.00492006
0.00487099
0.0049167
0.00491671
0.00487436
0.00487436
0.00492006
0.00487099
0.0049167
0.00491671
0.00487436
0.00487436
0.00491671
0.00487436
0.00487436
0.00492006
0.00487099
0.00491671
0.00487436
0.00487436
0.00487099
0.00486359
0.00481453
0.00486024
0.00486024
0.00481789
0.00481789
0.00486359
0.00481453
0.00486024
0.00486024
0.00481789
0.00481789
0.00486024
0.00481789
0.00481789
0.00486359
0.00481453
0.00486024
0.00481789
0.00481789
0.00481453
0.00480713
0.00475807
0.00480378
0.00480378
0.00476143
0.00476143
0.00480713
0.00475807
0.00480378
0.00480378
0.00476143
0.00476143
0.00480378
0.00476143
0.00476143
0.00480713
0.00475807
0.00480378
0.00476143
0.00476143
0.00475807
0.00475067
0.00470161
0.00474732
0.00474732
0.00470497
0.00470497
0.00475067
0.00470161
0.00474732
0.00474732
0.00470497
0.00470497
0.00474732
0.00470497
0.00470497
0.00475067
0.00470161
0.00474732
0.00470497
0.00470497
0.00470161
0.00469421
0.00464516
0.00469086
0.00469086
0.00464852
0.00464852
0.00469421
0.00464516
0.00469086
0.00469086
0.00464852
0.00464852
0.00469086
0.00464852
0.00464852
0.00469421
0.00464516
0.00469086
0.00464852
0.00464852
0.00464516
0.00463776
0.00458871
0.00463441
0.00463441
0.00459207
0.00459207
0.00463776
0.00458871
0.00463441
0.00463441
0.00459207
0.00459207
0.00463441
0.00459207
0.00459207
0.00463776
0.00458871
0.00463441
0.00459207
0.00459207
0.00458871
0.00458131
0.00453226
0.00457796
0.00457796
0.00453562
0.00453562
0.00458131
0.00453226
0.00457796
0.00457796
0.00453562
0.00453562
0.00457796
0.00453562
0.00453562
0.00458131
0.00453226
0.00457796
0.00453562
0.00453562
0.00453226
0.00452486
0.00447582
0.00452151
0.00452151
0.00447918
0.00447918
0.00452486
0.00447582
0.00452151
0.00452151
0.00447918
0.00447918
0.00452151
0.00447918
0.00447918
0.00452486
0.00447582
0.00452151
0.00447918
0.00447918
0.00447582
0.00446842
0.00441938
0.00446507
0.00446507
0.00442274
0.00442274
0.00446842
0.00441938
0.00446507
0.00446507
0.00442274
0.00442274
0.00446507
0.00442274
0.00442274
0.00446842
0.00441937
0.00446507
0.00442274
0.00442274
0.00441937
0.00441198
0.00436294
0.00440863
0.00440863
0.0043663
0.0043663
0.00441198
0.00436294
0.00440863
0.00440863
0.0043663
0.0043663
0.00440863
0.0043663
0.0043663
0.00441198
0.00436294
0.00440863
0.0043663
0.0043663
0.00436293
0.00435554
0.0043065
0.00435219
0.00435219
0.00430986
0.00430986
0.00435554
0.0043065
0.00435219
0.00435219
0.00430986
0.00430986
0.00435219
0.00430986
0.00430986
0.00435554
0.0043065
0.00435219
0.00430986
0.00430986
0.0043065
0.0042991
0.00425006
0.00429575
0.00429575
0.00425342
0.00425342
0.0042991
0.00425006
0.00429575
0.00429575
0.00425342
0.00425342
0.00429575
0.00425342
0.00425342
0.0042991
0.00425006
0.00429575
0.00425342
0.00425342
0.00425006
0.00424266
0.00419362
0.00423931
0.00423931
0.00419698
0.00419698
0.00424266
0.00419362
0.00423931
0.00423931
0.00419698
0.00419698
0.00423931
0.00419698
0.00419698
0.00424266
0.00419362
0.00423931
0.00419698
0.00419698
0.00419362
0.00418622
0.00413718
0.00418287
0.00418287
0.00414054
0.00414054
0.00418622
0.00413718
0.00418287
0.00418287
0.00414054
0.00414054
0.00418287
0.00414054
0.00414054
0.00418622
0.00413718
0.00418287
0.00414054
0.00414054
0.00413718
0.00412978
0.00408074
0.00412643
0.00412643
0.0040841
0.0040841
0.00412979
0.00408074
0.00412643
0.00412643
0.0040841
0.0040841
0.00412643
0.0040841
0.0040841
0.00412978
0.00408074
0.00412643
0.0040841
0.0040841
0.00408074
0.00407335
0.0040243
0.00407
0.00407
0.00402767
0.00402767
0.00407335
0.0040243
0.00407
0.00407
0.00402767
0.00402767
0.00407
0.00402767
0.00402767
0.00407335
0.0040243
0.00407
0.00402767
0.00402767
0.0040243
0.00401691
0.00396787
0.00401356
0.00401356
0.00397123
0.00397123
0.00401691
0.00396787
0.00401356
0.00401356
0.00397123
0.00397123
0.00401356
0.00397123
0.00397123
0.00401691
0.00396787
0.00401356
0.00397123
0.00397123
0.00396787
0.00396047
0.00391143
0.00395712
0.00395712
0.00391479
0.00391479
0.00396047
0.00391143
0.00395712
0.00395712
0.00391479
0.00391479
0.00395712
0.00391479
0.00391479
0.00396047
0.00391143
0.00395712
0.00391479
0.00391479
0.00391143
0.00390403
0.00385498
0.00390068
0.00390068
0.00385835
0.00385835
0.00390403
0.00385498
0.00390068
0.00390068
0.00385835
0.00385835
0.00390068
0.00385835
0.00385835
0.00390403
0.00385499
0.00390068
0.00385835
0.00385835
0.00385499
0.00384759
0.00379854
0.00384424
0.00384424
0.00380191
0.00380191
0.00384759
0.00379854
0.00384424
0.00384424
0.00380191
0.00380191
0.00384424
0.00380191
0.00380191
0.00384759
0.00379855
0.00384424
0.00380191
0.00380191
0.00379855
0.00379115
0.00374211
0.0037878
0.0037878
0.00374547
0.00374547
0.00379115
0.00374211
0.0037878
0.0037878
0.00374547
0.00374547
0.0037878
0.00374547
0.00374547
0.00379115
0.00374211
0.0037878
0.00374547
0.00374547
0.00374211
0.00373471
0.00368567
0.00373136
0.00373136
0.00368903
0.00368903
0.00373471
0.00368567
0.00373136
0.00373136
0.00368903
0.00368903
0.00373136
0.00368903
0.00368903
0.00373471
0.00368567
0.00373136
0.00368903
0.00368903
0.00368567
0.00367827
0.00362923
0.00367492
0.00367492
0.00363259
0.00363259
0.00367827
0.00362923
0.00367492
0.00367492
0.00363259
0.00363259
0.00367492
0.00363259
0.00363259
0.00367827
0.00362923
0.00367492
0.00363259
0.00363259
0.00362923
0.00362183
0.00357279
0.00361848
0.00361848
0.00357615
0.00357615
0.00362183
0.00357279
0.00361848
0.00361848
0.00357615
0.00357615
0.00361848
0.00357615
0.00357615
0.00362183
0.00357279
0.00361848
0.00357615
0.00357615
0.00357279
0.0035654
0.00351635
0.00356204
0.00356204
0.00351972
0.00351972
0.0035654
0.00351635
0.00356204
0.00356204
0.00351972
0.00351972
0.00356204
0.00351972
0.00351972
0.0035654
0.00351635
0.00356204
0.00351972
0.00351972
0.00351635
0.00350896
0.00345992
0.00350561
0.00350561
0.00346328
0.00346328
0.00350896
0.00345992
0.00350561
0.00350561
0.00346328
0.00346328
0.00350561
0.00346328
0.00346328
0.00350896
0.00345992
0.00350561
0.00346328
0.00346328
0.00345992
0.00345252
0.00340348
0.00344917
0.00344917
0.00340684
0.00340684
0.00345252
0.00340348
0.00344917
0.00344917
0.00340684
0.00340684
0.00344917
0.00340684
0.00340684
0.00345252
0.00340348
0.00344917
0.00340684
0.00340684
0.00340348
0.00339609
0.00334705
0.00339274
0.00339274
0.00335041
0.00335041
0.00339609
0.00334705
0.00339274
0.00339274
0.00335041
0.00335041
0.00339274
0.00335041
0.00335041
0.00339609
0.00334705
0.00339274
0.00335041
0.00335041
0.00334705
0.00333965
0.00329062
0.0033363
0.0033363
0.00329398
0.00329398
0.00333965
0.00329062
0.0033363
0.0033363
0.00329398
0.00329398
0.0033363
0.00329398
0.00329398
0.00333965
0.00329062
0.0033363
0.00329398
0.00329398
0.00329062
0.00328322
0.00323418
0.00327987
0.00327987
0.00323755
0.00323755
0.00328322
0.00323418
0.00327987
0.00327987
0.00323755
0.00323755
0.00327987
0.00323755
0.00323755
0.00328322
0.00323418
0.00327987
0.00323755
0.00323755
0.00323418
0.00322679
0.00317775
0.00322344
0.00322344
0.00318111
0.00318111
0.00322679
0.00317775
0.00322344
0.00322344
0.00318111
0.00318111
0.00322344
0.00318111
0.00318111
0.00322679
0.00317775
0.00322344
0.00318111
0.00318111
0.00317775
0.00317036
0.00312132
0.00316701
0.00316701
0.00312468
0.00312468
0.00317036
0.00312132
0.00316701
0.00316701
0.00312468
0.00312468
0.00316701
0.00312468
0.00312468
0.00317036
0.00312132
0.00316701
0.00312468
0.00312468
0.00312132
0.00311393
0.00306489
0.00311058
0.00311058
0.00306825
0.00306825
0.00311393
0.00306489
0.00311058
0.00311058
0.00306825
0.00306825
0.00311058
0.00306825
0.00306825
0.00311393
0.00306489
0.00311058
0.00306825
0.00306825
0.00306489
0.0030575
0.00300846
0.00305415
0.00305414
0.00301182
0.00301182
0.0030575
0.00300846
0.00305415
0.00305414
0.00301182
0.00301182
0.00305414
0.00301182
0.00301182
0.0030575
0.00300846
0.00305414
0.00301182
0.00301182
0.00300846
0.00300107
0.00295203
0.00299771
0.00299771
0.00295539
0.00295539
0.00300107
0.00295203
0.00299771
0.00299771
0.00295539
0.00295539
0.00299771
0.00295539
0.00295539
0.00300107
0.00295203
0.00299771
0.00295539
0.00295539
0.00295203
0.00294463
0.0028956
0.00294128
0.00294128
0.00289896
0.00289896
0.00294463
0.0028956
0.00294128
0.00294128
0.00289896
0.00289896
0.00294128
0.00289896
0.00289896
0.00294463
0.0028956
0.00294128
0.00289896
0.00289896
0.0028956
0.0028882
0.00283916
0.00288485
0.00288485
0.00284253
0.00284253
0.0028882
0.00283916
0.00288485
0.00288485
0.00284253
0.00284253
0.00288485
0.00284253
0.00284253
0.0028882
0.00283916
0.00288485
0.00284253
0.00284253
0.00283916
0.00283177
0.00278273
0.00282842
0.00282842
0.00278609
0.00278609
0.00283177
0.00278273
0.00282842
0.00282842
0.00278609
0.00278609
0.00282842
0.00278609
0.0027861
0.00283177
0.00278273
0.00282842
0.00278609
0.0027861
0.00278273
0.00277534
0.0027263
0.00277199
0.00277199
0.00272966
0.00272966
0.00277534
0.0027263
0.00277199
0.00277199
0.00272966
0.00272966
0.00277199
0.00272966
0.00272966
0.00277534
0.0027263
0.00277199
0.00272966
0.00272966
0.0027263
0.0027189
0.00266986
0.00271555
0.00271555
0.00267323
0.00267323
0.0027189
0.00266986
0.00271555
0.00271555
0.00267323
0.00267323
0.00271555
0.00267323
0.00267323
0.0027189
0.00266986
0.00271555
0.00267323
0.00267323
0.00266986
0.00266247
0.00261343
0.00265912
0.00265912
0.00261679
0.00261679
0.00266247
0.00261343
0.00265912
0.00265912
0.00261679
0.00261679
0.00265912
0.00261679
0.00261679
0.00266247
0.00261343
0.00265912
0.00261679
0.00261679
0.00261343
0.00260603
0.00255699
0.00260268
0.00260268
0.00256035
0.00256035
0.00260603
0.00255699
0.00260268
0.00260268
0.00256035
0.00256035
0.00260268
0.00256035
0.00256035
0.00260603
0.00255699
0.00260268
0.00256035
0.00256035
0.00255699
0.0025496
0.00250055
0.00254624
0.00254624
0.00250392
0.00250392
0.0025496
0.00250056
0.00254624
0.00254624
0.00250392
0.00250392
0.00254625
0.00250392
0.00250392
0.0025496
0.00250056
0.00254624
0.00250392
0.00250392
0.00250056
0.00249316
0.00244412
0.00248981
0.00248981
0.00244748
0.00244748
0.00249316
0.00244412
0.00248981
0.00248981
0.00244748
0.00244748
0.00248981
0.00244748
0.00244748
0.00249316
0.00244412
0.00248981
0.00244748
0.00244748
0.00244412
0.00243672
0.00238768
0.00243337
0.00243337
0.00239104
0.00239104
0.00243672
0.00238768
0.00243337
0.00243337
0.00239104
0.00239104
0.00243337
0.00239104
0.00239104
0.00243672
0.00238768
0.00243337
0.00239104
0.00239104
0.00238768
0.00238028
0.00233124
0.00237693
0.00237693
0.0023346
0.0023346
0.00238028
0.00233124
0.00237693
0.00237693
0.0023346
0.0023346
0.00237693
0.0023346
0.0023346
0.00238028
0.00233124
0.00237693
0.0023346
0.0023346
0.00233124
0.00232385
0.0022748
0.00232049
0.00232049
0.00227816
0.00227816
0.00232384
0.0022748
0.00232049
0.00232049
0.00227816
0.00227816
0.00232049
0.00227816
0.00227816
0.00232384
0.0022748
0.00232049
0.00227816
0.00227816
0.0022748
0.00226741
0.00221836
0.00226405
0.00226405
0.00222172
0.00222172
0.00226741
0.00221836
0.00226405
0.00226405
0.00222172
0.00222172
0.00226405
0.00222172
0.00222173
0.00226741
0.00221836
0.00226405
0.00222172
0.00222172
0.00221836
0.00221097
0.00216192
0.00220761
0.00220761
0.00216529
0.00216529
0.00221097
0.00216192
0.00220761
0.00220761
0.00216528
0.00216529
0.00220762
0.00216529
0.00216529
0.00221097
0.00216192
0.00220762
0.00216529
0.00216529
0.00216192
0.00215453
0.00210548
0.00215118
0.00215118
0.00210885
0.00210885
0.00215453
0.00210548
0.00215118
0.00215118
0.00210885
0.00210885
0.00215118
0.00210885
0.00210885
0.00215453
0.00210548
0.00215118
0.00210885
0.00210885
0.00210548
0.00209809
0.00204905
0.00209474
0.00209474
0.00205241
0.00205241
0.00209809
0.00204905
0.00209474
0.00209474
0.00205241
0.00205241
0.00209474
0.00205241
0.00205241
0.00209809
0.00204905
0.00209474
0.00205241
0.00205241
0.00204904
0.00204165
0.00199261
0.0020383
0.0020383
0.00199597
0.00199597
0.00204165
0.00199261
0.0020383
0.0020383
0.00199597
0.00199597
0.0020383
0.00199597
0.00199597
0.00204165
0.00199261
0.0020383
0.00199597
0.00199597
0.00199261
0.00198521
0.00193617
0.00198186
0.00198186
0.00193953
0.00193953
0.00198521
0.00193617
0.00198186
0.00198186
0.00193953
0.00193953
0.00198186
0.00193953
0.00193953
0.00198521
0.00193617
0.00198186
0.00193953
0.00193953
0.00193617
0.00192877
0.00187973
0.00192542
0.00192542
0.00188309
0.00188309
0.00192877
0.00187973
0.00192542
0.00192542
0.00188309
0.00188309
0.00192542
0.00188309
0.00188309
0.00192877
0.00187973
0.00192542
0.00188309
0.00188309
0.00187973
0.00187234
0.0018233
0.00186899
0.00186898
0.00182666
0.00182666
0.00187234
0.0018233
0.00186898
0.00186899
0.00182666
0.00182666
0.00186898
0.00182666
0.00182666
0.00187234
0.0018233
0.00186898
0.00182666
0.00182666
0.00182329
0.0018159
0.00176686
0.00181255
0.00181255
0.00177022
0.00177022
0.0018159
0.00176686
0.00181255
0.00181255
0.00177022
0.00177022
0.00181255
0.00177022
0.00177022
0.0018159
0.00176686
0.00181255
0.00177022
0.00177022
0.00176686
0.00175946
0.00171042
0.00175611
0.00175611
0.00171378
0.00171378
0.00175946
0.00171042
0.00175611
0.00175611
0.00171378
0.00171378
0.00175611
0.00171378
0.00171378
0.00175946
0.00171042
0.00175611
0.00171378
0.00171378
0.00171042
0.00170303
0.00165399
0.00169968
0.00169967
0.00165735
0.00165735
0.00170303
0.00165399
0.00169967
0.00169968
0.00165735
0.00165735
0.00169967
0.00165735
0.00165735
0.00170303
0.00165399
0.00169967
0.00165735
0.00165735
0.00165399
0.00164659
0.00159755
0.00164324
0.00164324
0.00160091
0.00160091
0.00164659
0.00159755
0.00164324
0.00164324
0.00160091
0.00160091
0.00164324
0.00160091
0.00160092
0.00164659
0.00159755
0.00164324
0.00160091
0.00160092
0.00159755
0.00159016
0.00154112
0.00158681
0.00158681
0.00154448
0.00154448
0.00159016
0.00154112
0.00158681
0.00158681
0.00154448
0.00154448
0.00158681
0.00154448
0.00154448
0.00159016
0.00154112
0.00158681
0.00154448
0.00154448
0.00154112
0.00153372
0.00148468
0.00153037
0.00153037
0.00148805
0.00148805
0.00153372
0.00148468
0.00153037
0.00153037
0.00148805
0.00148805
0.00153037
0.00148805
0.00148805
0.00153372
0.00148468
0.00153037
0.00148805
0.00148805
0.00148468
0.00147729
0.00142825
0.00147394
0.00147394
0.00143161
0.00143161
0.00147729
0.00142825
0.00147394
0.00147394
0.00143161
0.00143161
0.00147394
0.00143161
0.00143161
0.00147729
0.00142825
0.00147394
0.00143161
0.00143161
0.00142825
0.00142086
0.00137182
0.0014175
0.0014175
0.00137518
0.00137518
0.00142085
0.00137182
0.0014175
0.0014175
0.00137518
0.00137518
0.0014175
0.00137518
0.00137518
0.00142086
0.00137182
0.0014175
0.00137518
0.00137518
0.00137182
0.00136442
0.00131538
0.00136107
0.00136107
0.00131874
0.00131874
0.00136442
0.00131538
0.00136107
0.00136107
0.00131874
0.00131874
0.00136107
0.00131874
0.00131874
0.00136442
0.00131538
0.00136107
0.00131874
0.00131874
0.00131538
0.00130799
0.00125895
0.00130464
0.00130464
0.00126231
0.00126231
0.00130799
0.00125895
0.00130464
0.00130464
0.00126231
0.00126231
0.00130464
0.00126231
0.00126231
0.00130799
0.00125895
0.00130464
0.00126231
0.00126231
0.00125895
0.00125156
0.00120252
0.0012482
0.0012482
0.00120588
0.00120588
0.00125155
0.00120252
0.0012482
0.0012482
0.00120588
0.00120588
0.0012482
0.00120588
0.00120588
0.00125156
0.00120252
0.0012482
0.00120588
0.00120588
0.00120252
0.00119512
0.00114608
0.00119177
0.00119177
0.00114945
0.00114945
0.00119512
0.00114608
0.00119177
0.00119177
0.00114945
0.00114945
0.00119177
0.00114945
0.00114945
0.00119512
0.00114608
0.00119177
0.00114945
0.00114945
0.00114608
0.00113869
0.00108965
0.00113534
0.00113534
0.00109301
0.00109301
0.00113869
0.00108965
0.00113534
0.00113534
0.00109301
0.00109301
0.00113534
0.00109301
0.00109301
0.00113869
0.00108965
0.00113534
0.00109301
0.00109301
0.00108965
0.00108225
0.00103321
0.0010789
0.0010789
0.00103658
0.00103658
0.00108225
0.00103321
0.0010789
0.0010789
0.00103658
0.00103658
0.0010789
0.00103658
0.00103658
0.00108225
0.00103321
0.0010789
0.00103658
0.00103658
0.00103321
0.00102582
0.000976782
0.00102247
0.00102247
0.000980144
0.000980144
0.00102582
0.000976782
0.00102247
0.00102247
0.000980144
0.000980144
0.00102247
0.000980144
0.000980144
0.00102582
0.000976782
0.00102247
0.000980144
0.000980144
0.000976782
0.000969388
0.000920349
0.000966036
0.000966036
0.000923711
0.000923711
0.000969388
0.000920349
0.000966036
0.000966036
0.000923711
0.000923711
0.000966036
0.000923711
0.000923711
0.000969388
0.000920349
0.000966036
0.000923711
0.000923711
0.000920349
0.000912954
0.000863915
0.000909603
0.000909603
0.000867277
0.000867277
0.000912954
0.000863915
0.000909603
0.000909603
0.000867277
0.000867277
0.000909603
0.000867277
0.000867277
0.000912954
0.000863915
0.000909603
0.000867277
0.000867277
0.000863915
0.00085652
0.000807481
0.000853169
0.000853169
0.000810843
0.000810843
0.00085652
0.000807481
0.000853168
0.000853169
0.000810843
0.000810843
0.000853169
0.000810843
0.000810843
0.00085652
0.000807481
0.000853169
0.000810843
0.000810843
0.000807481
0.000800086
0.000751048
0.000796735
0.000796735
0.00075441
0.000754409
0.000800086
0.000751048
0.000796735
0.000796735
0.000754409
0.00075441
0.000796735
0.00075441
0.00075441
0.000800086
0.000751047
0.000796735
0.000754409
0.00075441
0.000751047
0.000743653
0.000694614
0.000740301
0.000740301
0.000697976
0.000697976
0.000743653
0.000694614
0.000740301
0.000740301
0.000697976
0.000697976
0.000740302
0.000697976
0.000697976
0.000743653
0.000694614
0.000740301
0.000697976
0.000697976
0.000694614
0.00068722
0.00063818
0.000683868
0.000683868
0.000641542
0.000641542
0.000687219
0.00063818
0.000683868
0.000683868
0.000641542
0.000641542
0.000683868
0.000641542
0.000641542
0.00068722
0.00063818
0.000683868
0.000641542
0.000641542
0.00063818
0.000630785
0.000581745
0.000627434
0.000627434
0.000585107
0.000585107
0.000630785
0.000581745
0.000627434
0.000627434
0.000585107
0.000585107
0.000627434
0.000585107
0.000585107
0.000630785
0.000581745
0.000627434
0.000585107
0.000585107
0.000581745
0.00057435
0.000525309
0.000570998
0.000570998
0.000528671
0.000528671
0.00057435
0.00052531
0.000570998
0.000570998
0.000528671
0.000528671
0.000570999
0.000528671
0.000528672
0.00057435
0.000525309
0.000570998
0.000528671
0.000528671
0.000525309
0.000517914
0.000468874
0.000514563
0.000514563
0.000472236
0.000472236
0.000517914
0.000468874
0.000514563
0.000514563
0.000472236
0.000472236
0.000514563
0.000472236
0.000472236
0.000517914
0.000468874
0.000514563
0.000472236
0.000472236
0.000468874
0.000461479
0.000412438
0.000458127
0.000458127
0.0004158
0.0004158
0.000461479
0.000412438
0.000458127
0.000458127
0.0004158
0.0004158
0.000458127
0.0004158
0.0004158
0.000461479
0.000412438
0.000458127
0.0004158
0.0004158
0.000412438
0.000405043
0.000356002
0.000401691
0.000401691
0.000359364
0.000359364
0.000405043
0.000356002
0.000401691
0.000401691
0.000359364
0.000359364
0.000401692
0.000359364
0.000359364
0.000405043
0.000356002
0.000401691
0.000359364
0.000359364
0.000356002
0.000348607
0.000299565
0.000345255
0.000345255
0.000302927
0.000302927
0.000348607
0.000299565
0.000345255
0.000345255
0.000302927
0.000302927
0.000345255
0.000302927
0.000302927
0.000348607
0.000299564
0.000345255
0.000302927
0.000302927
0.000299565
0.000292169
0.000243127
0.000288818
0.000288818
0.000246489
0.000246489
0.000292169
0.000243127
0.000288817
0.000288818
0.000246489
0.000246489
0.000288818
0.000246489
0.000246489
0.00029217
0.000243126
0.000288818
0.000246489
0.000246489
0.000243126
0.00023573
0.000186686
0.000232381
0.000232381
0.000190064
0.000190064
0.00023573
0.000186686
0.000232381
0.000232381
0.000190064
0.000190064
0.000232381
0.000190064
0.000190064
0.00023573
0.000186686
0.000232381
0.000190064
0.000190064
0.000186686
0.000179237
0.000130244
0.000175951
0.000175951
0.0001335
0.000133499
0.000179237
0.000130245
0.000175951
0.000175951
0.0001335
0.0001335
0.000175951
0.000133499
0.000133499
0.000179237
0.000130244
0.000175951
0.0001335
0.0001335
0.000130245
0.000122603
7.37798e-05
0.000119376
0.000119377
7.70829e-05
7.70843e-05
0.000122603
7.37822e-05
0.000119375
0.000119375
7.70811e-05
7.70806e-05
0.000119376
7.70828e-05
7.70805e-05
0.000122603
7.37772e-05
0.000119375
7.70796e-05
7.70796e-05
7.3778e-05
6.62351e-05
2.08546e-05
6.31002e-05
6.31018e-05
2.39083e-05
2.39079e-05
6.62364e-05
2.08546e-05
6.30996e-05
6.30975e-05
2.39058e-05
2.39019e-05
6.30964e-05
2.39042e-05
2.39008e-05
6.62313e-05
2.08498e-05
6.30962e-05
2.39018e-05
2.39018e-05
2.08489e-05
1.52962e-05
1.53751e-05
1.53746e-05
1.52968e-05
1.53733e-05
1.5371e-05
1.47723e-05
1.47703e-05
1.47702e-05
1.537e-05
1.52935e-05
1.53707e-05
0.00535501
0.00536423
0.00535924
0.00535919
0.00537927
0.00536776
0.00539239
0.00536191
0.00538013
0.00536882
0.0053624
0.00540531
0.00537202
0.00539625
0.00539628
0.00531791
0.0053347
0.00534612
0.00530771
0.00530472
0.00530915
0.00531724
0.00533225
0.00534462
0.00530717
0.0053344
0.00533422
0.00533428
0.00528717
0.00528724
0.00528709
0.00528718
0.00530896
0.00533727
0.00533529
0.00531896
0.00534012
0.00531279
0.00531941
0.0053027
0.0053086
0.00530875
0.00533517
0.00533719
0.0053187
0.00533989
0.00531925
0.00531241
0.00534308
0.00534339
0.0053131
0.00531263
0.00531256
0.00525534
0.00527639
0.00528333
0.00525101
0.00527474
0.00524965
0.00525525
0.00527626
0.00528315
0.00525095
0.00527187
0.00527177
0.00527183
0.00522273
0.00522275
0.00522272
0.00522274
0.00525171
0.00527959
0.00527165
0.00525628
0.00527662
0.0052538
0.00525551
0.00527454
0.00524954
0.00525165
0.00527156
0.00527943
0.0052562
0.00527652
0.00525544
0.00525371
0.00527933
0.0052793
0.0052509
0.00525311
0.0052531
0.0051825
0.00520623
0.00520965
0.00518092
0.00520446
0.00518025
0.00518248
0.00520622
0.00520963
0.00518092
0.0052058
0.00520578
0.00520579
0.00515805
0.00515805
0.00515805
0.00515805
0.00518311
0.00520962
0.00520576
0.0051892
0.0052082
0.00518371
0.00518911
0.00520443
0.00518023
0.00518309
0.00520574
0.00520958
0.00518919
0.00520817
0.0051891
0.00518369
0.00520799
0.00520798
0.00518429
0.00518254
0.00518253
0.00512495
0.00514565
0.00514597
0.00512483
0.00514585
0.00512492
0.00512495
0.00514566
0.00514597
0.00512483
0.00514335
0.00514335
0.00514335
0.00510038
0.00510038
0.00510038
0.00510038
0.00512512
0.00514606
0.00514313
0.00512863
0.00514611
0.00512499
0.00512874
0.00514585
0.00512492
0.00512512
0.00514313
0.00514605
0.00512862
0.0051461
0.00512873
0.00512499
0.00514614
0.00514614
0.00512521
0.00512495
0.00512495
0.0050685
0.0050896
0.00508961
0.00506849
0.0050896
0.00506849
0.0050685
0.0050896
0.00508961
0.00506849
0.00508621
0.00508621
0.00508621
0.00504381
0.00504381
0.00504381
0.00504381
0.00506861
0.00508955
0.00508615
0.00507199
0.00508953
0.00506855
0.00507201
0.0050896
0.00506849
0.00506861
0.00508615
0.00508955
0.00507199
0.00508953
0.00507201
0.00506855
0.00508962
0.00508962
0.00506862
0.00506849
0.00506849
0.00501204
0.00503316
0.00503315
0.00501203
0.00503317
0.00501203
0.00501204
0.00503316
0.00503315
0.00501203
0.00502969
0.00502969
0.00502969
0.00498733
0.00498733
0.00498734
0.00498734
0.00501214
0.0050331
0.00502965
0.00501552
0.00503306
0.00501209
0.00501553
0.00503316
0.00501204
0.00501214
0.00502965
0.0050331
0.00501552
0.00503306
0.00501553
0.00501209
0.00503317
0.00503317
0.00501216
0.00501203
0.00501203
0.00495558
0.0049767
0.00497669
0.00495557
0.00497669
0.00495557