/*--------------------------------*- C++ -*----------------------------------*\
| =========                 |                                                 |
| \\      /  F ield         | OpenFOAM: The Open Source CFD Toolbox           |
|  \\    /   O peration     | Version:  v2012                                 |
|   \\  /    A nd           | Website:  www.openfoam.com                      |
|    \\/     M anipulation  |                                                 |
\*---------------------------------------------------------------------------*/
FoamFile
{
    version     2.0;
    format      ascii;
    class       volScalarField;
    location    "212.5";
    object      epsilon;
}
// * * * * * * * * * * * * * * * * * * * * * * * * * * * * * * * * * * * * * //

dimensions      [0 2 -3 0 0 0 0];


internalField   nonuniform List<scalar> 
171728
(
9.65589e-09
1.95075e-08
6.83426e-09
4.96467e-09
9.61756e-09
1.37514e-08
7.24925e-09
4.51669e-09
9.68072e-09
6.96605e-09
7.03781e-09
4.1196e-09
9.68789e-09
4.30437e-09
5.79634e-09
3.7796e-09
9.74503e-09
3.36536e-09
4.58294e-09
3.48963e-09
9.85729e-09
2.95315e-09
3.87803e-09
3.24627e-09
9.99975e-09
2.8109e-09
3.43257e-09
3.04311e-09
1.01685e-08
2.76766e-09
3.18412e-09
2.87515e-09
1.03541e-08
2.76622e-09
3.10256e-09
2.74318e-09
1.05452e-08
2.80508e-09
3.07164e-09
2.64478e-09
1.07414e-08
2.88416e-09
3.10128e-09
2.56952e-09
1.09515e-08
3.00214e-09
3.18959e-09
2.52591e-09
1.11708e-08
3.16812e-09
3.33391e-09
2.53298e-09
1.13996e-08
3.39423e-09
3.54507e-09
2.60703e-09
1.16385e-08
3.7033e-09
3.84366e-09
2.77281e-09
1.18848e-08
4.14581e-09
4.26732e-09
3.10706e-09
1.21401e-08
4.75011e-09
4.87923e-09
3.54885e-09
1.24019e-08
5.67652e-09
5.75436e-09
4.457e-09
1.26713e-08
6.96537e-09
7.02376e-09
5.88011e-09
1.29556e-08
8.74385e-09
8.92865e-09
8.56497e-09
1.32608e-08
1.15574e-08
1.15832e-08
1.29196e-08
1.35982e-08
1.54757e-08
1.57128e-08
2.03862e-08
1.39879e-08
2.02753e-08
2.02885e-08
3.06325e-08
1.44202e-08
2.82805e-08
2.85806e-08
5.46814e-08
1.49367e-08
3.73212e-08
3.6761e-08
7.58632e-08
1.55733e-08
4.8914e-08
4.93876e-08
1.17833e-07
1.63516e-08
6.44166e-08
6.45196e-08
1.70243e-07
1.73244e-08
8.25893e-08
8.25406e-08
2.33892e-07
1.85413e-08
1.03655e-07
1.04071e-07
3.09014e-07
2.00769e-08
1.28334e-07
1.28144e-07
3.86254e-07
2.20038e-08
1.56831e-07
1.56172e-07
4.68704e-07
2.44163e-08
1.875e-07
1.87656e-07
5.42556e-07
2.73996e-08
2.22817e-07
2.21644e-07
6.15404e-07
3.11811e-08
2.61053e-07
2.59319e-07
6.79707e-07
3.57041e-08
3.0168e-07
3.00053e-07
7.32798e-07
4.13637e-08
3.45501e-07
3.42969e-07
7.86196e-07
4.7977e-08
3.91163e-07
3.90118e-07
8.3062e-07
5.62108e-08
4.38088e-07
4.37764e-07
8.71124e-07
6.54572e-08
4.84169e-07
4.83041e-07
9.0982e-07
7.61153e-08
5.31886e-07
5.32895e-07
9.43565e-07
8.85531e-08
5.79099e-07
5.8099e-07
9.72179e-07
1.03031e-07
6.25134e-07
6.26899e-07
9.9992e-07
1.19294e-07
6.65944e-07
6.68494e-07
1.02433e-06
1.38425e-07
7.07912e-07
7.09618e-07
1.05083e-06
1.62351e-07
7.50727e-07
7.51162e-07
1.07997e-06
1.82232e-07
7.71249e-07
7.71146e-07
1.08491e-06
1.92622e-07
7.73593e-07
7.73666e-07
1.06954e-06
2.00079e-07
7.72489e-07
7.72784e-07
1.04953e-06
2.17212e-07
7.88934e-07
7.89318e-07
1.04994e-06
2.53442e-07
8.2485e-07
8.25135e-07
1.07521e-06
3.0405e-07
8.69745e-07
8.69926e-07
1.11664e-06
3.58931e-07
9.16698e-07
9.16831e-07
1.16932e-06
4.00109e-07
9.49581e-07
9.49696e-07
1.20982e-06
4.22603e-07
9.67041e-07
9.67146e-07
1.23312e-06
4.32581e-07
9.74766e-07
9.74867e-07
1.24424e-06
4.36442e-07
9.77861e-07
9.77957e-07
1.24895e-06
4.37813e-07
9.79035e-07
9.79131e-07
1.25092e-06
4.38145e-07
9.79303e-07
9.79401e-07
1.25144e-06
4.38149e-07
9.79247e-07
9.79345e-07
1.25128e-06
4.38205e-07
9.79342e-07
9.79439e-07
1.2514e-06
4.38207e-07
9.79334e-07
9.79433e-07
1.25151e-06
4.38182e-07
9.79288e-07
9.79388e-07
1.25129e-06
4.38195e-07
9.79334e-07
9.79433e-07
1.25157e-06
4.38185e-07
9.79294e-07
9.79393e-07
1.25133e-06
4.38189e-07
9.79323e-07
9.79423e-07
1.25151e-06
4.38187e-07
9.79304e-07
9.79403e-07
1.25133e-06
4.38188e-07
9.7931e-07
9.79408e-07
1.2515e-06
4.38188e-07
9.7931e-07
9.79411e-07
1.25138e-06
4.38188e-07
9.79307e-07
9.79404e-07
1.25139e-06
4.38186e-07
9.79308e-07
9.79406e-07
1.25147e-06
4.38184e-07
9.79311e-07
9.79409e-07
1.25144e-06
4.38184e-07
9.79308e-07
9.79405e-07
1.25139e-06
4.38183e-07
9.79303e-07
9.79402e-07
1.25139e-06
4.38182e-07
9.79312e-07
9.7941e-07
1.25148e-06
4.3818e-07
9.79305e-07
9.79401e-07
1.25143e-06
4.3818e-07
9.79306e-07
9.79402e-07
1.25141e-06
4.3818e-07
9.79308e-07
9.79403e-07
1.25136e-06
4.38179e-07
9.7931e-07
9.79405e-07
1.2515e-06
4.38178e-07
9.79305e-07
9.79397e-07
1.25139e-06
4.38176e-07
9.7931e-07
9.794e-07
1.25139e-06
4.38174e-07
9.79311e-07
9.79399e-07
1.2515e-06
4.38174e-07
9.79304e-07
9.79396e-07
1.25143e-06
4.38175e-07
9.79307e-07
9.794e-07
1.25135e-06
4.38175e-07
9.79308e-07
9.79401e-07
1.2514e-06
4.38176e-07
9.79305e-07
9.79402e-07
1.25139e-06
4.38176e-07
9.79305e-07
9.79406e-07
1.25135e-06
4.38176e-07
9.79311e-07
9.79407e-07
1.25134e-06
4.38176e-07
9.79319e-07
9.79415e-07
1.2514e-06
4.38177e-07
9.79326e-07
9.79423e-07
1.25145e-06
4.38178e-07
9.79334e-07
9.79432e-07
1.25147e-06
4.3818e-07
9.79356e-07
9.79451e-07
1.25147e-06
4.38185e-07
9.79386e-07
9.79485e-07
1.25143e-06
4.38182e-07
9.79428e-07
9.79525e-07
1.25136e-06
4.37631e-07
9.79121e-07
9.79209e-07
1.25106e-06
4.18929e-07
9.21302e-07
9.21303e-07
1.20629e-06
5.09893e-09
4.23356e-09
6.51005e-09
4.93883e-09
5.58481e-09
4.4504e-09
9.77046e-09
1.01582e-08
9.70372e-09
9.6819e-09
5.93048e-09
4.17798e-09
4.90671e-09
4.50635e-09
4.24289e-09
4.99284e-09
5.04202e-09
4.75452e-09
4.84454e-09
1.27914e-08
4.55762e-09
1.32442e-08
4.865e-09
4.9075e-09
8.82849e-09
6.30807e-09
8.4558e-09
5.1834e-09
4.77573e-09
1.58412e-08
4.48675e-09
4.84911e-09
4.54517e-09
4.82346e-09
7.18143e-09
4.54017e-09
4.55002e-09
4.69249e-09
4.48521e-09
4.46217e-09
1.33406e-08
4.19835e-09
1.34454e-08
4.84239e-09
4.88316e-09
8.30736e-09
4.90669e-09
7.73541e-09
4.25963e-09
4.39315e-09
8.25078e-09
4.13083e-09
4.48261e-09
4.22722e-09
4.44636e-09
7.2087e-09
4.18347e-09
4.14878e-09
4.42819e-09
4.09298e-09
4.117e-09
1.33812e-08
3.89115e-09
1.17463e-08
4.82171e-09
4.51123e-09
7.42991e-09
4.07968e-09
6.22683e-09
3.62968e-09
4.04873e-09
4.70946e-09
3.82145e-09
4.16294e-09
3.8685e-09
4.10251e-09
6.143e-09
3.87911e-09
3.80491e-09
4.03089e-09
3.71827e-09
3.82253e-09
1.09577e-08
3.63615e-09
8.62636e-09
4.35452e-09
3.81663e-09
5.81287e-09
3.50798e-09
4.76541e-09
3.21201e-09
3.75165e-09
3.53752e-09
3.55952e-09
3.84081e-09
3.57653e-09
3.81133e-09
4.83948e-09
3.62679e-09
3.51118e-09
3.69279e-09
3.43784e-09
3.58119e-09
7.94473e-09
3.43576e-09
6.39635e-09
3.76352e-09
3.42747e-09
4.49687e-09
3.13161e-09
3.91477e-09
2.93877e-09
3.5017e-09
3.02217e-09
3.34319e-09
3.55372e-09
3.29354e-09
3.5715e-09
4.01817e-09
3.42592e-09
3.264e-09
3.41593e-09
3.17586e-09
3.39227e-09
5.988e-09
3.28306e-09
4.92714e-09
3.39369e-09
3.06544e-09
3.77321e-09
2.89056e-09
3.40775e-09
2.78707e-09
3.29495e-09
2.8334e-09
3.16955e-09
3.27367e-09
3.05261e-09
3.38444e-09
3.5301e-09
3.27714e-09
3.05674e-09
3.15703e-09
2.9505e-09
3.25282e-09
4.62895e-09
3.17925e-09
3.93603e-09
3.03756e-09
2.79957e-09
3.30098e-09
2.76363e-09
3.04066e-09
2.71755e-09
3.13284e-09
2.77422e-09
3.0427e-09
3.03882e-09
2.87139e-09
3.24812e-09
3.22732e-09
3.17581e-09
2.88508e-09
2.93806e-09
2.79348e-09
3.15974e-09
3.77131e-09
3.12112e-09
3.43007e-09
2.78387e-09
2.63685e-09
2.97421e-09
2.70906e-09
2.84317e-09
2.70027e-09
3.01691e-09
2.76361e-09
2.95968e-09
2.86288e-09
2.73767e-09
3.15756e-09
3.11596e-09
3.12398e-09
2.74883e-09
2.78775e-09
2.68826e-09
3.11462e-09
3.35116e-09
3.1114e-09
3.17884e-09
2.62992e-09
2.52796e-09
2.81663e-09
2.70231e-09
2.79314e-09
2.72519e-09
2.94384e-09
2.79425e-09
2.91786e-09
2.7328e-09
2.64408e-09
3.11911e-09
3.07164e-09
3.11767e-09
2.64663e-09
2.687e-09
2.62266e-09
3.11451e-09
3.13572e-09
3.14057e-09
3.03901e-09
2.52518e-09
2.45478e-09
2.79416e-09
2.73839e-09
2.827e-09
2.79097e-09
2.91471e-09
2.86379e-09
2.92247e-09
2.64383e-09
2.5832e-09
3.12097e-09
3.08985e-09
3.14408e-09
2.56821e-09
2.62612e-09
2.59621e-09
3.15348e-09
3.02081e-09
3.20952e-09
3.0058e-09
2.45659e-09
2.42162e-09
2.84751e-09
2.81389e-09
2.92831e-09
2.89777e-09
2.93132e-09
2.97328e-09
2.97356e-09
2.58678e-09
2.55886e-09
3.15628e-09
3.16632e-09
3.21182e-09
2.51784e-09
2.60733e-09
2.61221e-09
3.23258e-09
3.00755e-09
3.3261e-09
3.06921e-09
2.43187e-09
2.4315e-09
2.96183e-09
2.93144e-09
3.08144e-09
3.05196e-09
2.99539e-09
3.12455e-09
3.0848e-09
2.57048e-09
2.57832e-09
3.23631e-09
3.29633e-09
3.33218e-09
2.51405e-09
2.63384e-09
2.682e-09
3.36368e-09
3.10876e-09
3.50683e-09
3.25308e-09
2.45352e-09
2.50324e-09
3.12804e-09
3.09948e-09
3.2923e-09
3.26631e-09
3.12283e-09
3.33657e-09
3.26758e-09
2.60073e-09
2.65181e-09
3.37168e-09
3.48828e-09
3.51741e-09
2.57263e-09
2.71847e-09
2.82436e-09
3.56307e-09
3.30734e-09
3.77598e-09
3.50155e-09
2.53805e-09
2.64404e-09
3.35582e-09
3.3306e-09
3.58072e-09
3.56371e-09
3.3274e-09
3.61861e-09
3.54299e-09
2.68741e-09
2.80315e-09
3.57697e-09
3.76337e-09
3.78211e-09
2.71414e-09
2.88565e-09
3.07738e-09
3.85749e-09
3.58243e-09
4.15748e-09
3.88168e-09
2.70584e-09
2.91449e-09
3.66844e-09
3.65244e-09
3.9828e-09
3.9678e-09
3.62799e-09
4.02603e-09
3.93914e-09
2.86473e-09
3.05926e-09
3.86582e-09
4.15034e-09
4.17166e-09
2.98312e-09
3.18081e-09
3.52656e-09
4.27484e-09
4.00705e-09
4.70859e-09
4.44142e-09
3.0193e-09
3.32658e-09
4.10811e-09
4.09424e-09
4.55162e-09
4.54016e-09
4.07077e-09
4.58036e-09
4.4998e-09
3.16558e-09
3.51989e-09
4.29525e-09
4.71116e-09
4.70877e-09
3.41465e-09
3.69578e-09
4.27406e-09
4.87538e-09
4.61042e-09
5.49688e-09
5.28694e-09
3.49215e-09
4.19392e-09
4.72153e-09
4.71505e-09
5.3478e-09
5.34313e-09
4.64657e-09
5.43261e-09
5.27407e-09
3.6949e-09
4.26279e-09
4.85942e-09
5.50328e-09
5.49016e-09
4.13554e-09
4.56222e-09
5.57642e-09
5.74426e-09
5.53561e-09
6.66424e-09
6.39082e-09
4.46999e-09
5.33996e-09
5.59979e-09
5.60219e-09
6.51217e-09
6.53276e-09
5.55416e-09
6.54656e-09
6.43009e-09
4.55776e-09
5.5929e-09
5.75549e-09
6.67819e-09
6.63128e-09
5.3972e-09
6.05625e-09
7.85768e-09
7.036e-09
6.81438e-09
8.38628e-09
8.12806e-09
5.88721e-09
7.64341e-09
6.88183e-09
6.87966e-09
8.22726e-09
8.27332e-09
6.82051e-09
8.26489e-09
8.26844e-09
6.01881e-09
7.98666e-09
7.01249e-09
8.4274e-09
8.43608e-09
8.02325e-09
8.66824e-09
1.14373e-08
8.92502e-09
8.62091e-09
1.07533e-08
1.06048e-08
8.24599e-09
1.16878e-08
8.76861e-09
8.77909e-09
1.05851e-08
1.07165e-08
8.68893e-09
1.07972e-08
1.05585e-08
8.73556e-09
1.19046e-08
8.87055e-09
1.08763e-08
1.07818e-08
1.13064e-08
1.25615e-08
1.98453e-08
1.15256e-08
1.13507e-08
1.45988e-08
1.40491e-08
1.30372e-08
1.75204e-08
1.13559e-08
1.14257e-08
1.4454e-08
1.43197e-08
1.14314e-08
1.41636e-08
1.42409e-08
1.31186e-08
1.84877e-08
1.16333e-08
1.4457e-08
1.43814e-08
1.856e-08
2.141e-08
2.75494e-08
1.54588e-08
1.53884e-08
1.89376e-08
1.89202e-08
2.00502e-08
2.9701e-08
1.53162e-08
1.55975e-08
1.87415e-08
1.87554e-08
1.52172e-08
1.91734e-08
1.86205e-08
2.14408e-08
2.82019e-08
1.54053e-08
1.88919e-08
1.88862e-08
2.74447e-08
3.1842e-08
5.10764e-08
2.08615e-08
1.99711e-08
2.64078e-08
2.56993e-08
3.13895e-08
4.61211e-08
2.06469e-08
2.01325e-08
2.61919e-08
2.63882e-08
2.01833e-08
2.58402e-08
2.60233e-08
3.05094e-08
5.11493e-08
2.04306e-08
2.66109e-08
2.62953e-08
4.92966e-08
5.4372e-08
6.90104e-08
2.80333e-08
2.81566e-08
3.4065e-08
3.47658e-08
5.3368e-08
7.61186e-08
2.78163e-08
2.83916e-08
3.384e-08
3.41407e-08
2.81015e-08
3.51052e-08
3.40451e-08
5.68607e-08
7.0712e-08
2.83846e-08
3.42753e-08
3.4245e-08
7.11685e-08
7.57116e-08
1.09696e-07
3.67337e-08
3.70711e-08
4.59072e-08
4.50748e-08
8.12173e-08
1.05564e-07
3.65111e-08
3.6605e-08
4.56235e-08
4.58572e-08
3.62804e-08
4.54564e-08
4.556e-08
7.59962e-08
1.09136e-07
3.64798e-08
4.5945e-08
4.57603e-08
1.07162e-07
1.18967e-07
1.59613e-07
4.92374e-08
4.83474e-08
6.02477e-08
6.01383e-08
1.14103e-07
1.59232e-07
4.89329e-08
4.93299e-08
5.99413e-08
6.0281e-08
4.91383e-08
6.04507e-08
5.98988e-08
1.1894e-07
1.60577e-07
4.93629e-08
6.04588e-08
6.0221e-08
1.59942e-07
1.70958e-07
2.20792e-07
6.42814e-08
6.42121e-08
7.73672e-08
7.71051e-08
1.71545e-07
2.20321e-07
6.39295e-08
6.42935e-08
7.69254e-08
7.77532e-08
6.38501e-08
7.76159e-08
7.7135e-08
1.71687e-07
2.22443e-07
6.41121e-08
7.79482e-08
7.73716e-08
2.19891e-07
2.34199e-07
2.92682e-07
8.21626e-08
8.20299e-08
9.78632e-08
9.79293e-08
2.33482e-07
2.94012e-07
8.17992e-08
8.24194e-08
9.73622e-08
9.80072e-08
8.18942e-08
9.82693e-08
9.79445e-08
2.35837e-07
2.9352e-07
8.22507e-08
9.8121e-08
9.83259e-08
2.93659e-07
3.07788e-07
3.69647e-07
1.03402e-07
1.03385e-07
1.21251e-07
1.21237e-07
3.09306e-07
3.69819e-07
1.02766e-07
1.03921e-07
1.2071e-07
1.22225e-07
1.03648e-07
1.21649e-07
1.20905e-07
3.09236e-07
3.73931e-07
1.0395e-07
1.22108e-07
1.21254e-07
3.70492e-07
3.85927e-07
4.50208e-07
1.27762e-07
1.27754e-07
1.48578e-07
1.48588e-07
3.86047e-07
4.51469e-07
1.27285e-07
1.2837e-07
1.47829e-07
1.48469e-07
1.27343e-07
1.49534e-07
1.49159e-07
3.8942e-07
4.49632e-07
1.27712e-07
1.48524e-07
1.49521e-07
4.51807e-07
4.66551e-07
5.26352e-07
1.55877e-07
1.55959e-07
1.79433e-07
1.79173e-07
4.67773e-07
5.26207e-07
1.55042e-07
1.56083e-07
1.78323e-07
1.80051e-07
1.56428e-07
1.79573e-07
1.78995e-07
4.66443e-07
5.294e-07
1.56823e-07
1.79757e-07
1.79283e-07
5.26893e-07
5.42299e-07
5.97361e-07
1.87614e-07
1.87085e-07
2.12629e-07
2.12701e-07
5.41975e-07
5.97857e-07
1.86496e-07
1.87929e-07
2.11705e-07
2.13391e-07
1.87377e-07
2.13438e-07
2.13343e-07
5.45057e-07
5.97533e-07
1.87654e-07
2.12724e-07
2.14391e-07
5.9975e-07
6.12598e-07
6.63724e-07
2.21742e-07
2.2207e-07
2.51125e-07
2.50628e-07
6.13467e-07
6.64144e-07
2.20734e-07
2.22596e-07
2.49947e-07
2.5023e-07
2.22286e-07
2.51481e-07
2.51574e-07
6.12543e-07
6.62326e-07
2.23641e-07
2.49631e-07
2.5309e-07
6.65857e-07
6.78087e-07
7.21242e-07
2.60715e-07
2.60139e-07
2.90162e-07
2.90288e-07
6.78183e-07
7.21338e-07
2.59768e-07
2.59899e-07
2.89409e-07
2.912e-07
2.61468e-07
2.9115e-07
2.90374e-07
6.76557e-07
7.21128e-07
2.63048e-07
2.89547e-07
2.93264e-07
7.19875e-07
7.3465e-07
7.7473e-07
3.0103e-07
3.00854e-07
3.34885e-07
3.33177e-07
7.34645e-07
7.7305e-07
3.00038e-07
3.01593e-07
3.33353e-07
3.32397e-07
3.0058e-07
3.34306e-07
3.33804e-07
7.34523e-07
7.7292e-07
3.03952e-07
3.32128e-07
3.36441e-07
7.73673e-07
7.86775e-07
8.19133e-07
3.4587e-07
3.44274e-07
3.79027e-07
3.78498e-07
7.85255e-07
8.19949e-07
3.44336e-07
3.43357e-07
3.77472e-07
3.79293e-07
3.45146e-07
3.79682e-07
3.78737e-07
7.85083e-07
8.20869e-07
3.47254e-07
3.77774e-07
3.8152e-07
8.19678e-07
8.30355e-07
8.62724e-07
3.90596e-07
3.89991e-07
4.26993e-07
4.25053e-07
8.31303e-07
8.61976e-07
3.89042e-07
3.91725e-07
4.25514e-07
4.27792e-07
3.9004e-07
4.26259e-07
4.26114e-07
8.32758e-07
8.63675e-07
3.93261e-07
4.26328e-07
4.28065e-07
8.60598e-07
8.73584e-07
9.01034e-07
4.39336e-07
4.37071e-07
4.74981e-07
4.72814e-07
8.72499e-07
9.0006e-07
4.37945e-07
4.3923e-07
4.73676e-07
4.72542e-07
4.38708e-07
4.72738e-07
4.74987e-07
8.73451e-07
8.98677e-07
4.39783e-07
4.71439e-07
4.74618e-07
9.00011e-07
9.10287e-07
9.34279e-07
4.86502e-07
4.84567e-07
5.21582e-07
5.20633e-07
9.09593e-07
9.34487e-07
4.85143e-07
4.83859e-07
5.20349e-07
5.20271e-07
4.86583e-07
5.19718e-07
5.22156e-07
9.083e-07
9.35146e-07
4.86035e-07
5.20134e-07
5.2098e-07
9.34759e-07
9.43299e-07
9.65882e-07
5.33444e-07
5.32897e-07
5.6832e-07
5.68865e-07
9.43657e-07
9.66541e-07
5.32504e-07
5.32949e-07
5.68406e-07
5.69495e-07
5.34096e-07
5.67577e-07
5.68211e-07
9.44663e-07
9.67721e-07
5.32804e-07
5.69492e-07
5.67275e-07
9.64426e-07
9.73891e-07
9.92983e-07
5.79639e-07
5.8047e-07
6.13664e-07
6.15026e-07
9.74579e-07
9.93718e-07
5.79906e-07
5.80896e-07
6.13787e-07
6.14674e-07
5.79209e-07
6.13655e-07
6.1313e-07
9.75561e-07
9.94194e-07
5.78547e-07
6.15352e-07
6.13158e-07
9.92153e-07
1.0003e-06
1.01716e-06
6.25047e-07
6.26439e-07
6.56672e-07
6.57834e-07
1.00103e-06
1.01742e-06
6.25115e-07
6.26056e-07
6.56919e-07
6.57806e-07
6.24661e-07
6.56528e-07
6.56447e-07
1.00154e-06
1.01802e-06
6.24772e-07
6.58936e-07
6.565e-07
1.0178e-06
1.02369e-06
1.04205e-06
6.66224e-07
6.67286e-07
6.96736e-07
6.97378e-07
1.02381e-06
1.04189e-06
6.66576e-07
6.67338e-07
6.97153e-07
6.97446e-07
6.66004e-07
6.96353e-07
6.96584e-07
1.02426e-06
1.04142e-06
6.66023e-07
6.98463e-07
6.96749e-07
1.04261e-06
1.05028e-06
1.0734e-06
7.08225e-07
7.08705e-07
7.41522e-07
7.41614e-07
1.05012e-06
1.07326e-06
7.08612e-07
7.08736e-07
7.41756e-07
7.41529e-07
7.08134e-07
7.41357e-07
7.41491e-07
1.04945e-06
1.07242e-06
7.08353e-07
7.42029e-07
7.41758e-07
1.07374e-06
1.07969e-06
1.08315e-06
7.50862e-07
7.50899e-07
7.68734e-07
7.68916e-07
1.07957e-06
1.08326e-06
7.51082e-07
7.50792e-07
7.68922e-07
7.68607e-07
7.50843e-07
7.68718e-07
7.68931e-07
1.07878e-06
1.08279e-06
7.51079e-07
7.68653e-07
7.68929e-07
1.0834e-06
1.08466e-06
1.06851e-06
7.71244e-07
7.71512e-07
7.7366e-07
7.74071e-07
1.08478e-06
1.06874e-06
7.71406e-07
7.71117e-07
7.73687e-07
7.73546e-07
7.71501e-07
7.7364e-07
7.73974e-07
1.08431e-06
1.06843e-06
7.71439e-07
7.7369e-07
7.73844e-07
1.06886e-06
1.06918e-06
1.04839e-06
7.73613e-07
7.74033e-07
7.72223e-07
7.7259e-07
1.06942e-06
1.04848e-06
7.73626e-07
7.73503e-07
7.72123e-07
7.72164e-07
7.73931e-07
7.72129e-07
7.72513e-07
1.06912e-06
1.04851e-06
7.73797e-07
7.72365e-07
7.72349e-07
1.04862e-06
1.04931e-06
1.04582e-06
7.72624e-07
7.72926e-07
7.83018e-07
7.83108e-07
1.04938e-06
1.04572e-06
7.72491e-07
7.72594e-07
7.82821e-07
7.83095e-07
7.72867e-07
7.82773e-07
7.83126e-07
1.04944e-06
1.04605e-06
7.72706e-07
7.83158e-07
7.82968e-07
1.04587e-06
1.04991e-06
1.06773e-06
7.89202e-07
7.89244e-07
8.1513e-07
8.15085e-07
1.0498e-06
1.06759e-06
7.89002e-07
7.89306e-07
8.14927e-07
8.15286e-07
7.89287e-07
8.14861e-07
8.15183e-07
1.05014e-06
1.06796e-06
7.89126e-07
8.1518e-07
8.15018e-07
1.06774e-06
1.0752e-06
1.10622e-06
8.25098e-07
8.25066e-07
8.57856e-07
8.5785e-07
1.07507e-06
1.10611e-06
8.24919e-07
8.25256e-07
8.57708e-07
8.57998e-07
8.25162e-07
8.57667e-07
8.57935e-07
1.07541e-06
1.10637e-06
8.25004e-07
8.57867e-07
8.57797e-07
1.10625e-06
1.1166e-06
1.1585e-06
8.69928e-07
8.69926e-07
9.06018e-07
9.06032e-07
1.1165e-06
1.1584e-06
8.69791e-07
8.70059e-07
9.05892e-07
9.06117e-07
8.7001e-07
9.05855e-07
9.06103e-07
1.11674e-06
1.15858e-06
8.69878e-07
9.05996e-07
9.05983e-07
1.15857e-06
1.16926e-06
1.20187e-06
9.16858e-07
9.16875e-07
9.43124e-07
9.43149e-07
1.16917e-06
1.20178e-06
9.16741e-07
9.1695e-07
9.43012e-07
9.43202e-07
9.16943e-07
9.42974e-07
9.43208e-07
1.16933e-06
1.20192e-06
9.16827e-07
9.43092e-07
9.43096e-07
1.20195e-06
1.20975e-06
1.22794e-06
9.49727e-07
9.49752e-07
9.63962e-07
9.63988e-07
1.20966e-06
1.22785e-06
9.4962e-07
9.49802e-07
9.63851e-07
9.64033e-07
9.49811e-07
9.63822e-07
9.64045e-07
1.20979e-06
1.22797e-06
9.497e-07
9.63929e-07
9.63935e-07
1.22801e-06
1.23304e-06
1.24084e-06
9.67176e-07
9.67199e-07
9.7356e-07
9.73582e-07
1.23297e-06
1.24076e-06
9.67067e-07
9.67246e-07
9.73447e-07
9.73631e-07
9.6726e-07
9.73428e-07
9.73645e-07
1.23308e-06
1.24088e-06
9.6715e-07
9.73529e-07
9.73537e-07
1.24093e-06
1.24415e-06
1.24636e-06
9.74892e-07
9.74914e-07
9.77452e-07
9.77477e-07
1.24408e-06
1.24629e-06
9.74783e-07
9.74964e-07
9.77342e-07
9.77525e-07
9.74979e-07
9.77329e-07
9.7754e-07
1.2442e-06
1.24641e-06
9.74872e-07
9.77427e-07
9.77434e-07
1.24645e-06
1.24886e-06
1.24868e-06
9.77979e-07
9.78005e-07
9.7897e-07
9.78998e-07
1.24879e-06
1.24861e-06
9.77872e-07
9.78052e-07
9.78862e-07
9.79042e-07
9.78069e-07
9.7885e-07
9.79059e-07
1.2489e-06
1.24872e-06
9.77964e-07
9.78945e-07
9.78954e-07
1.24877e-06
1.25083e-06
1.24934e-06
9.79153e-07
9.79182e-07
9.7941e-07
9.79438e-07
1.25077e-06
1.24927e-06
9.79047e-07
9.79225e-07
9.79302e-07
9.7948e-07
9.79243e-07
9.79289e-07
9.795e-07
1.25087e-06
1.24938e-06
9.79139e-07
9.79386e-07
9.79395e-07
1.24943e-06
1.25135e-06
1.24924e-06
9.79424e-07
9.79451e-07
9.79381e-07
9.79408e-07
1.25129e-06
1.24916e-06
9.79316e-07
9.79494e-07
9.79272e-07
9.79451e-07
9.79514e-07
9.79259e-07
9.79472e-07
1.25139e-06
1.24928e-06
9.79409e-07
9.79358e-07
9.79366e-07
1.24933e-06
1.25118e-06
1.24926e-06
9.79367e-07
9.79394e-07
9.79422e-07
9.7945e-07
1.25111e-06
1.24919e-06
9.79259e-07
9.79437e-07
9.79313e-07
9.79492e-07
9.79459e-07
9.79301e-07
9.79512e-07
1.25122e-06
1.2493e-06
9.79352e-07
9.79399e-07
9.79406e-07
1.24935e-06
1.25131e-06
1.24944e-06
9.79461e-07
9.79489e-07
9.79478e-07
9.79505e-07
1.25124e-06
1.24937e-06
9.79352e-07
9.7953e-07
9.79369e-07
9.79547e-07
9.79551e-07
9.79356e-07
9.79567e-07
1.25135e-06
1.24948e-06
9.79445e-07
9.79453e-07
9.79461e-07
1.24953e-06
1.25142e-06
1.24919e-06
9.79455e-07
9.79482e-07
9.79409e-07
9.79437e-07
1.25135e-06
1.24912e-06
9.79347e-07
9.79525e-07
9.79299e-07
9.7948e-07
9.79544e-07
9.79287e-07
9.795e-07
1.25146e-06
1.24924e-06
9.79439e-07
9.79387e-07
9.79395e-07
1.24929e-06
1.2512e-06
1.24945e-06
9.79408e-07
9.79436e-07
9.79446e-07
9.79474e-07
1.25113e-06
1.24938e-06
9.79298e-07
9.79479e-07
9.79336e-07
9.79517e-07
9.79499e-07
9.79325e-07
9.79537e-07
1.25124e-06
1.24949e-06
9.79394e-07
9.79425e-07
9.79431e-07
1.24954e-06
1.25148e-06
1.2493e-06
9.79455e-07
9.79482e-07
9.79424e-07
9.7945e-07
1.25141e-06
1.24922e-06
9.79345e-07
9.79525e-07
9.79313e-07
9.79493e-07
9.79545e-07
9.79301e-07
9.79513e-07
1.25152e-06
1.24933e-06
9.79438e-07
9.79399e-07
9.79405e-07
1.24937e-06
1.25125e-06
1.24939e-06
9.79414e-07
9.79442e-07
9.79439e-07
9.79468e-07
1.25118e-06
1.24933e-06
9.79304e-07
9.79484e-07
9.79328e-07
9.79508e-07
9.79505e-07
9.79316e-07
9.79529e-07
1.25128e-06
1.24944e-06
9.79398e-07
9.79418e-07
9.79426e-07
1.24949e-06
1.2514e-06
1.24927e-06
9.79444e-07
9.79471e-07
9.79425e-07
9.79452e-07
1.25135e-06
1.24919e-06
9.79335e-07
9.79513e-07
9.79313e-07
9.79492e-07
9.79534e-07
9.79303e-07
9.79515e-07
1.25146e-06
1.2493e-06
9.7943e-07
9.79402e-07
9.7941e-07
1.24935e-06
1.25124e-06
1.24941e-06
9.79424e-07
9.79451e-07
9.79431e-07
9.7946e-07
1.25116e-06
1.24934e-06
9.79311e-07
9.7949e-07
9.79321e-07
9.795e-07
9.79514e-07
9.79309e-07
9.79522e-07
1.25127e-06
1.24945e-06
9.79409e-07
9.79406e-07
9.79414e-07
1.2495e-06
1.25142e-06
1.24925e-06
9.79431e-07
9.79457e-07
9.79431e-07
9.79458e-07
1.25134e-06
1.2492e-06
9.79321e-07
9.795e-07
9.7932e-07
9.79499e-07
9.79521e-07
9.79307e-07
9.79521e-07
1.25144e-06
1.24931e-06
9.79414e-07
9.79408e-07
9.79416e-07
1.24935e-06
1.25127e-06
1.24935e-06
9.79431e-07
9.79458e-07
9.79428e-07
9.79454e-07
1.25122e-06
1.24926e-06
9.79319e-07
9.79499e-07
9.79319e-07
9.79496e-07
9.79521e-07
9.79304e-07
9.79518e-07
1.25133e-06
1.24937e-06
9.79417e-07
9.79402e-07
9.79411e-07
1.24942e-06
1.25131e-06
1.24938e-06
9.79427e-07
9.79453e-07
9.79431e-07
9.7946e-07
1.25123e-06
1.24931e-06
9.79319e-07
9.79496e-07
9.79317e-07
9.79498e-07
9.79518e-07
9.79307e-07
9.79521e-07
1.25133e-06
1.24943e-06
9.79411e-07
9.79406e-07
9.79416e-07
1.24947e-06
1.25139e-06
1.2493e-06
9.79429e-07
9.79457e-07
9.79427e-07
9.79456e-07
1.25132e-06
1.24924e-06
9.79317e-07
9.79496e-07
9.79317e-07
9.79497e-07
9.79519e-07
9.79307e-07
9.7952e-07
1.25142e-06
1.24936e-06
9.79413e-07
9.79404e-07
9.79413e-07
1.24941e-06
1.25132e-06
1.24929e-06
9.7943e-07
9.79459e-07
9.79423e-07
9.79451e-07
1.25127e-06
1.24922e-06
9.7932e-07
9.79499e-07
9.79313e-07
9.79493e-07
9.79522e-07
9.79302e-07
9.79515e-07
1.25138e-06
1.24933e-06
9.79416e-07
9.79399e-07
9.79408e-07
1.24938e-06
1.25127e-06
1.24936e-06
9.79423e-07
9.79453e-07
9.79429e-07
9.79455e-07
1.25122e-06
1.24926e-06
9.79315e-07
9.79495e-07
9.79317e-07
9.79496e-07
9.79519e-07
9.79304e-07
9.79519e-07
1.25132e-06
1.24937e-06
9.79411e-07
9.79403e-07
9.79413e-07
1.24941e-06
1.25133e-06
1.24936e-06
9.79426e-07
9.79452e-07
9.79426e-07
9.79458e-07
1.25123e-06
1.24932e-06
9.79317e-07
9.79494e-07
9.79314e-07
9.79497e-07
9.79514e-07
9.79307e-07
9.79529e-07
1.25134e-06
1.24944e-06
9.79408e-07
9.79405e-07
9.79421e-07
1.24948e-06
1.25137e-06
1.2493e-06
9.79427e-07
9.79458e-07
9.79424e-07
9.79457e-07
1.2513e-06
1.2493e-06
9.79317e-07
9.79497e-07
9.79313e-07
9.79496e-07
9.79534e-07
9.79299e-07
9.79514e-07
1.25142e-06
1.2494e-06
9.79425e-07
9.79395e-07
9.79407e-07
1.2494e-06
1.25132e-06
1.2493e-06
9.79426e-07
9.7946e-07
9.79424e-07
9.79452e-07
1.25133e-06
1.24919e-06
9.79315e-07
9.79497e-07
9.79313e-07
9.79495e-07
9.79517e-07
9.79301e-07
9.7952e-07
1.25142e-06
1.24933e-06
9.7941e-07
9.79397e-07
9.79413e-07
1.24938e-06
1.2513e-06
1.24932e-06
9.79427e-07
9.79457e-07
9.79422e-07
9.79453e-07
1.25123e-06
1.24926e-06
9.79315e-07
9.79499e-07
9.7931e-07
9.79491e-07
9.79523e-07
9.79303e-07
9.79518e-07
1.25137e-06
1.24933e-06
9.79416e-07
9.79396e-07
9.79411e-07
1.24939e-06
1.25129e-06
1.24941e-06
9.79425e-07
9.79455e-07
9.79426e-07
9.79449e-07
1.25122e-06
1.24929e-06
9.79314e-07
9.79495e-07
9.79313e-07
9.79491e-07
9.79519e-07
9.793e-07
9.79517e-07
1.25133e-06
1.24936e-06
9.79412e-07
9.79396e-07
9.79409e-07
1.2495e-06
1.25138e-06
1.24929e-06
9.79429e-07
9.79454e-07
9.79416e-07
9.79447e-07
1.25128e-06
1.24928e-06
9.79315e-07
9.79495e-07
9.79306e-07
9.79488e-07
9.79523e-07
9.79298e-07
9.79511e-07
1.25136e-06
1.2493e-06
9.79415e-07
9.79389e-07
9.79404e-07
1.24937e-06
1.2513e-06
1.24938e-06
9.79421e-07
9.79449e-07
9.7942e-07
9.79448e-07
1.25125e-06
1.24934e-06
9.79311e-07
9.7949e-07
9.79309e-07
9.79491e-07
9.79517e-07
9.79302e-07
9.79514e-07
1.25128e-06
1.24945e-06
9.79409e-07
9.79394e-07
9.79405e-07
1.24942e-06
1.25137e-06
1.2493e-06
9.79424e-07
9.79453e-07
9.7941e-07
9.79437e-07
1.25135e-06
1.24918e-06
9.79313e-07
9.79496e-07
9.79298e-07
9.7948e-07
9.79516e-07
9.79294e-07
9.79511e-07
1.25142e-06
1.24934e-06
9.79408e-07
9.79384e-07
9.79405e-07
1.2495e-06
1.25136e-06
1.24923e-06
9.79421e-07
9.79448e-07
9.79407e-07
9.79435e-07
1.25123e-06
1.24921e-06
9.7931e-07
9.79491e-07
9.79294e-07
9.79476e-07
9.79521e-07
9.7929e-07
9.795e-07
1.25138e-06
1.24931e-06
9.79413e-07
9.7938e-07
9.79395e-07
1.24938e-06
1.25123e-06
1.24935e-06
9.79419e-07
9.79446e-07
9.79407e-07
9.79432e-07
1.25118e-06
1.24931e-06
9.79306e-07
9.79487e-07
9.79296e-07
9.79478e-07
9.79513e-07
9.79291e-07
9.79499e-07
1.25129e-06
1.24943e-06
9.79409e-07
9.79382e-07
9.79391e-07
1.24934e-06
1.25131e-06
1.24935e-06
9.79421e-07
9.79446e-07
9.79405e-07
9.7943e-07
1.25127e-06
1.24929e-06
9.79311e-07
9.79492e-07
9.79292e-07
9.79471e-07
9.7951e-07
9.79283e-07
9.79495e-07
1.25141e-06
1.24934e-06
9.79404e-07
9.79376e-07
9.79389e-07
1.24941e-06
1.25135e-06
1.24932e-06
9.79423e-07
9.79448e-07
9.794e-07
9.79425e-07
1.2513e-06
1.24923e-06
9.79313e-07
9.79492e-07
9.7929e-07
9.7947e-07
9.79515e-07
9.79274e-07
9.79486e-07
1.25136e-06
1.24933e-06
9.79407e-07
9.79375e-07
9.79383e-07
1.24939e-06
1.25133e-06
1.24931e-06
9.79426e-07
9.7945e-07
9.79396e-07
9.79422e-07
1.25125e-06
1.24923e-06
9.79314e-07
9.79493e-07
9.79286e-07
9.79466e-07
9.79514e-07
9.79271e-07
9.79482e-07
1.25131e-06
1.24938e-06
9.79406e-07
9.79369e-07
9.79372e-07
1.24936e-06
1.2513e-06
1.24934e-06
9.79427e-07
9.79453e-07
9.79392e-07
9.79417e-07
1.25123e-06
1.24926e-06
9.79319e-07
9.79498e-07
9.79279e-07
9.79457e-07
9.79515e-07
9.79266e-07
9.79479e-07
1.25134e-06
1.24942e-06
9.79408e-07
9.79362e-07
9.79365e-07
1.24939e-06
1.25132e-06
1.24937e-06
9.79434e-07
9.79459e-07
9.79383e-07
9.79408e-07
1.25124e-06
1.24929e-06
9.79321e-07
9.79499e-07
9.79275e-07
9.79452e-07
9.7952e-07
9.79259e-07
9.79472e-07
1.25138e-06
1.24942e-06
9.79406e-07
9.79355e-07
9.79362e-07
1.24946e-06
1.25136e-06
1.24933e-06
9.79438e-07
9.79464e-07
9.79376e-07
9.794e-07
1.2513e-06
1.24923e-06
9.79328e-07
9.79506e-07
9.79266e-07
9.79443e-07
9.79527e-07
9.79247e-07
9.79464e-07
1.25144e-06
1.24933e-06
9.79415e-07
9.79343e-07
9.79352e-07
1.24948e-06
1.25137e-06
1.24925e-06
9.79447e-07
9.79472e-07
9.79363e-07
9.79388e-07
1.25128e-06
1.24916e-06
9.7934e-07
9.79516e-07
9.79251e-07
9.7943e-07
9.79535e-07
9.79236e-07
9.79454e-07
1.25139e-06
1.24928e-06
9.79424e-07
9.79332e-07
9.79339e-07
1.24947e-06
1.25128e-06
1.24929e-06
9.79459e-07
9.79484e-07
9.79348e-07
9.79375e-07
1.25119e-06
1.24921e-06
9.79349e-07
9.79526e-07
9.7924e-07
9.79419e-07
9.79547e-07
9.79226e-07
9.79442e-07
1.2513e-06
1.24935e-06
9.79434e-07
9.79322e-07
9.79327e-07
1.24944e-06
1.25129e-06
1.24927e-06
9.79475e-07
9.79501e-07
9.79335e-07
9.79363e-07
1.2512e-06
1.24926e-06
9.79366e-07
9.79545e-07
9.79227e-07
9.79408e-07
9.79568e-07
9.79212e-07
9.79425e-07
1.25133e-06
1.24937e-06
9.79452e-07
9.7931e-07
9.79314e-07
1.24939e-06
1.2513e-06
1.24924e-06
9.79505e-07
9.79532e-07
9.79325e-07
9.79353e-07
1.25125e-06
1.24924e-06
9.79396e-07
9.79578e-07
9.79218e-07
9.794e-07
9.79597e-07
9.79202e-07
9.79414e-07
1.25139e-06
1.24932e-06
9.79483e-07
9.79301e-07
9.79301e-07
1.24937e-06
1.25124e-06
1.2491e-06
9.79547e-07
9.79573e-07
9.78922e-07
9.78948e-07
1.25125e-06
1.24901e-06
9.79437e-07
9.7962e-07
9.7881e-07
9.78987e-07
9.79635e-07
9.78799e-07
9.79009e-07
1.25134e-06
1.24911e-06
9.7952e-07
9.78886e-07
9.78889e-07
1.2492e-06
1.25097e-06
1.22906e-06
9.79245e-07
9.7927e-07
9.56595e-07
9.56615e-07
1.25091e-06
1.22903e-06
9.7913e-07
9.79315e-07
9.56559e-07
9.56579e-07
9.79333e-07
9.56604e-07
9.56655e-07
1.25099e-06
1.22908e-06
9.79208e-07
9.56612e-07
9.56611e-07
1.22912e-06
1.20624e-06
9.21255e-07
9.21272e-07
1.20622e-06
9.21243e-07
9.21234e-07
4.18947e-07
4.18923e-07
4.18963e-07
9.21309e-07
1.20625e-06
9.21296e-07
2.58891e-08
4.6538e-09
1.68233e-08
1.67539e-08
1.75701e-09
9.69081e-09
6.81089e-08
9.32571e-09
1.64816e-09
4.56088e-09
9.45099e-09
5.21258e-09
5.15579e-09
3.7228e-09
8.95341e-09
7.08944e-09
1.80344e-07
5.68348e-09
2.77745e-07
1.59942e-06
3.21762e-06
7.24353e-09
1.71092e-07
5.72512e-09
2.72057e-07
1.02123e-08
9.56983e-09
9.47793e-09
9.60166e-09
1.02166e-08
9.50889e-09
9.36692e-09
1.67013e-09
1.41305e-07
6.69664e-09
1.90725e-08
1.73296e-09
1.19213e-07
6.37796e-09
1.71184e-06
3.33111e-06
1.54983e-09
6.43624e-09
8.58819e-08
6.90301e-09
1.60825e-09
6.3677e-09
6.42632e-08
2.15449e-07
2.19808e-07
4.77303e-09
1.84388e-07
1.89272e-07
1.65056e-08
4.92064e-07
1.11054e-08
6.94197e-07
7.13498e-06
1.02276e-05
1.74726e-08
4.89025e-07
1.10342e-08
7.12039e-07
1.01968e-08
9.53294e-09
9.38894e-09
9.67258e-09