/*--------------------------------*- C++ -*----------------------------------*\
| =========                 |                                                 |
| \\      /  F ield         | OpenFOAM: The Open Source CFD Toolbox           |
|  \\    /   O peration     | Version:  v2012                                 |
|   \\  /    A nd           | Website:  www.openfoam.com                      |
|    \\/     M anipulation  |                                                 |
\*---------------------------------------------------------------------------*/
FoamFile
{
    version     2.0;
    format      ascii;
    class       volScalarField;
    location    "212.5";
    object      k;
}
// * * * * * * * * * * * * * * * * * * * * * * * * * * * * * * * * * * * * * //

dimensions      [0 2 -2 0 0 0 0];


internalField   nonuniform List<scalar> 
171728
(
1.27655e-06
9.63087e-07
3.98898e-07
3.53154e-07
1.26672e-06
1.03191e-06
4.24864e-07
3.37617e-07
1.28808e-06
1.09033e-06
4.62732e-07
3.23535e-07
1.3108e-06
9.32903e-07
5.13107e-07
3.10233e-07
1.33286e-06
5.21975e-07
5.50855e-07
2.9832e-07
1.35507e-06
3.12716e-07
5.36579e-07
2.87887e-07
1.37277e-06
2.64252e-07
4.29853e-07
2.79291e-07
1.39133e-06
2.59166e-07
3.44478e-07
2.72255e-07
1.41687e-06
2.60739e-07
3.11038e-07
2.66969e-07
1.44768e-06
2.64078e-07
3.08541e-07
2.62636e-07
1.47656e-06
2.69917e-07
3.09305e-07
2.58983e-07
1.50468e-06
2.77506e-07
3.13039e-07
2.52873e-07
1.53341e-06
2.87798e-07
3.20269e-07
2.43854e-07
1.56337e-06
3.00466e-07
3.3038e-07
2.37748e-07
1.59413e-06
3.15694e-07
3.45474e-07
2.37204e-07
1.62671e-06
3.36466e-07
3.63722e-07
2.40169e-07
1.65973e-06
3.62324e-07
3.89348e-07
2.58327e-07
1.69321e-06
4.02296e-07
4.19901e-07
2.72141e-07
1.72518e-06
4.40696e-07
4.65936e-07
3.13927e-07
1.75845e-06
5.07827e-07
5.33296e-07
4.46333e-07
1.78784e-06
6.18521e-07
6.34189e-07
5.02845e-07
1.82562e-06
7.20018e-07
7.72688e-07
8.44128e-07
1.85439e-06
9.41517e-07
9.10105e-07
1.09325e-06
1.89452e-06
1.17877e-06
1.2687e-06
2.01087e-06
1.92842e-06
1.58353e-06
1.51812e-06
2.90781e-06
1.97363e-06
1.9235e-06
1.96648e-06
3.92303e-06
2.02695e-06
2.54012e-06
2.52609e-06
6.09984e-06
2.08342e-06
3.18163e-06
3.24357e-06
8.02396e-06
2.15721e-06
4.01653e-06
3.97775e-06
1.05746e-05
2.238e-06
4.89745e-06
4.98451e-06
1.31008e-05
2.34277e-06
6.03274e-06
5.95339e-06
1.56295e-05
2.46949e-06
7.21507e-06
7.23927e-06
1.80471e-05
2.61148e-06
8.48355e-06
8.50462e-06
2.02825e-05
2.81778e-06
1.00266e-05
9.94369e-06
2.25054e-05
3.02428e-06
1.15245e-05
1.14609e-05
2.42192e-05
3.32472e-06
1.31956e-05
1.31024e-05
2.59173e-05
3.6466e-06
1.49774e-05
1.47803e-05
2.75184e-05
4.0586e-06
1.67851e-05
1.68188e-05
2.8897e-05
4.56897e-06
1.85569e-05
1.84369e-05
3.02981e-05
5.08098e-06
2.02869e-05
2.02133e-05
3.1601e-05
5.72471e-06
2.21978e-05
2.22543e-05
3.28086e-05
6.43356e-06
2.40412e-05
2.40542e-05
3.39237e-05
7.37139e-06
2.59696e-05
2.60222e-05
3.51548e-05
8.21039e-06
2.74345e-05
2.75762e-05
3.60523e-05
9.62106e-06
2.99676e-05
3.00693e-05
3.80518e-05
1.1332e-05
3.21371e-05
3.21813e-05
3.94251e-05
1.20647e-05
3.23768e-05
3.24045e-05
3.92942e-05
1.17673e-05
3.13353e-05
3.13574e-05
3.80106e-05
1.11369e-05
3.04866e-05
3.05149e-05
3.69702e-05
1.17132e-05
3.13386e-05
3.13625e-05
3.74767e-05
1.40948e-05
3.34624e-05
3.34762e-05
3.89423e-05
1.80717e-05
3.6809e-05
3.68161e-05
4.16626e-05
2.27043e-05
4.01171e-05
4.01214e-05
4.44307e-05
2.62345e-05
4.2309e-05
4.23119e-05
4.6249e-05
2.82427e-05
4.34319e-05
4.34343e-05
4.71748e-05
2.91632e-05
4.39089e-05
4.39108e-05
4.75601e-05
2.95347e-05
4.40998e-05
4.41014e-05
4.77201e-05
2.96638e-05
4.41644e-05
4.41661e-05
4.77787e-05
2.96828e-05
4.41645e-05
4.41664e-05
4.77883e-05
2.96874e-05
4.41633e-05
4.41651e-05
4.77673e-05
2.96943e-05
4.41738e-05
4.41754e-05
4.77959e-05
2.96907e-05
4.41662e-05
4.4168e-05
4.7777e-05
2.96918e-05
4.41695e-05
4.41715e-05
4.77845e-05
2.96913e-05
4.41679e-05
4.41694e-05
4.77848e-05
2.96913e-05
4.41693e-05
4.41711e-05
4.77824e-05
2.96911e-05
4.41679e-05
4.41698e-05
4.77827e-05
2.96911e-05
4.41688e-05
4.41702e-05
4.77868e-05
2.9691e-05
4.41685e-05
4.41705e-05
4.77753e-05
2.96909e-05
4.41684e-05
4.41699e-05
4.77911e-05
2.9691e-05
4.41688e-05
4.41706e-05
4.77843e-05
2.9691e-05
4.41688e-05
4.41705e-05
4.77751e-05
2.9691e-05
4.41682e-05
4.41698e-05
4.77809e-05
2.9691e-05
4.41685e-05
4.41702e-05
4.77905e-05
2.96911e-05
4.41693e-05
4.41712e-05
4.77863e-05
2.9691e-05
4.41685e-05
4.417e-05
4.77766e-05
2.9691e-05
4.41686e-05
4.41702e-05
4.77754e-05
2.96912e-05
4.41693e-05
4.41703e-05
4.77896e-05
2.96913e-05
4.41691e-05
4.41706e-05
4.7785e-05
2.96911e-05
4.41688e-05
4.41699e-05
4.77756e-05
2.96911e-05
4.41697e-05
4.4171e-05
4.77901e-05
2.96908e-05
4.4169e-05
4.417e-05
4.77872e-05
2.96908e-05
4.41688e-05
4.41697e-05
4.77742e-05
2.96908e-05
4.41692e-05
4.41701e-05
4.7785e-05
2.96909e-05
4.41689e-05
4.41699e-05
4.77897e-05
2.96909e-05
4.41684e-05
4.41702e-05
4.77816e-05
2.9691e-05
4.41685e-05
4.41702e-05
4.77748e-05
2.9691e-05
4.41688e-05
4.41702e-05
4.77791e-05
2.9691e-05
4.41691e-05
4.41705e-05
4.77872e-05
2.9691e-05
4.4169e-05
4.41704e-05
4.77884e-05
2.96911e-05
4.41693e-05
4.41706e-05
4.77856e-05
2.96911e-05
4.41702e-05
4.41716e-05
4.77792e-05
2.96913e-05
4.41712e-05
4.41728e-05
4.77751e-05
2.96912e-05
4.4173e-05
4.41744e-05
4.7781e-05
2.96802e-05
4.41638e-05
4.41651e-05
4.77812e-05
2.91015e-05
4.28597e-05
4.2859e-05
4.72055e-05
3.60091e-07
3.46259e-07
4.19127e-07
3.51973e-07
4.09292e-07
4.08942e-07
1.31005e-06
1.35151e-06
1.30083e-06
1.2869e-06
5.72855e-07
3.43405e-07
3.49751e-07
3.53499e-07
3.40287e-07
3.55503e-07
3.5741e-07
3.46867e-07
3.66588e-07
4.98112e-07
3.55929e-07
5.23207e-07
3.48492e-07
3.58586e-07
4.8914e-07
5.85707e-07
5.02843e-07
5.76485e-07
3.64428e-07
1.01058e-06
3.54154e-07
3.46954e-07
3.41346e-07
3.59583e-07
4.15948e-07
3.50102e-07
3.40177e-07
3.4472e-07
3.40422e-07
3.52812e-07
5.38043e-07
3.43967e-07
5.96393e-07
3.56805e-07
3.92227e-07
5.10101e-07
5.70886e-07
5.34442e-07
5.52595e-07
3.5104e-07
1.08499e-06
3.42412e-07
3.39549e-07
3.40627e-07
3.47251e-07
4.52727e-07
3.39038e-07
3.26024e-07
3.38768e-07
3.38094e-07
3.41285e-07
6.14863e-07
3.34073e-07
6.78732e-07
3.90682e-07
4.10045e-07
5.4288e-07
5.41444e-07
5.74584e-07
4.82866e-07
3.40094e-07
1.03332e-06
3.34028e-07
3.38742e-07
3.37737e-07
3.36367e-07
4.99711e-07
3.29273e-07
3.12598e-07
3.36609e-07
3.38802e-07
3.31619e-07
7.07e-07
3.2459e-07
8.06066e-07
4.03146e-07
3.88947e-07
5.86451e-07
4.59099e-07
6.19471e-07
3.93326e-07
3.32175e-07
6.15118e-07
3.26748e-07
3.35286e-07
3.29784e-07
3.27059e-07
5.45488e-07
3.20392e-07
3.00514e-07
3.37135e-07
3.38681e-07
3.2261e-07
8.35591e-07
3.1773e-07
8.78418e-07
3.85206e-07
3.8012e-07
6.28563e-07
3.7508e-07
6.43597e-07
3.31519e-07
3.25083e-07
3.43364e-07
3.20584e-07
3.263e-07
3.12691e-07
3.18267e-07
5.49789e-07
3.12909e-07
2.89832e-07
3.364e-07
3.30604e-07
3.16561e-07
8.78762e-07
3.13449e-07
7.81844e-07
3.7529e-07
3.44556e-07
6.44136e-07
3.20364e-07
6.17212e-07
2.96691e-07
3.19272e-07
2.69454e-07
3.15319e-07
3.07022e-07
2.85381e-07
3.1143e-07
4.5678e-07
3.07982e-07
2.81011e-07
3.2573e-07
2.92281e-07
3.12533e-07
7.14834e-07
3.09507e-07
5.40964e-07
3.27823e-07
2.81669e-07
5.82044e-07
2.91953e-07
4.68925e-07
2.85607e-07
3.1438e-07
2.59269e-07
3.12158e-07
2.81956e-07
2.69442e-07
3.07059e-07
3.61287e-07
3.05155e-07
2.73725e-07
2.85003e-07
2.67877e-07
3.08931e-07
5.01427e-07
3.07627e-07
4.4555e-07
2.7661e-07
2.60133e-07
4.3239e-07
2.85263e-07
3.49435e-07
2.85505e-07
3.11784e-07
2.60131e-07
3.11104e-07
2.67177e-07
2.62548e-07
3.04607e-07
3.14787e-07
3.04039e-07
2.68085e-07
2.6548e-07
2.59299e-07
3.07618e-07
4.39978e-07
3.08227e-07
4.28194e-07
2.57456e-07
2.51946e-07
3.32051e-07
2.86108e-07
3.04916e-07
2.88527e-07
3.10905e-07
2.6338e-07
3.10951e-07
2.61304e-07
2.55985e-07
3.04122e-07
3.08532e-07
3.05348e-07
2.6357e-07
2.57933e-07
2.5413e-07
3.08668e-07
4.21673e-07
3.11057e-07
3.90611e-07
2.4994e-07
2.43173e-07
3.01715e-07
2.89678e-07
2.99567e-07
2.93891e-07
3.10891e-07
2.686e-07
3.10356e-07
2.54693e-07
2.50992e-07
3.06092e-07
3.09029e-07
3.08998e-07
2.59844e-07
2.53291e-07
2.51499e-07
3.1234e-07
3.77499e-07
3.17066e-07
3.37028e-07
2.41388e-07
2.33894e-07
2.99658e-07
2.95427e-07
3.03682e-07
3.00669e-07
3.10208e-07
2.75711e-07
3.07902e-07
2.50174e-07
2.47513e-07
3.10261e-07
3.11876e-07
3.13984e-07
2.54002e-07
2.51051e-07
2.502e-07
3.1854e-07
3.25679e-07
3.24169e-07
3.0448e-07
2.32561e-07
2.26424e-07
3.05594e-07
3.02565e-07
3.12272e-07
3.0905e-07
3.06714e-07
2.85144e-07
3.05669e-07
2.46796e-07
2.44784e-07
3.1534e-07
3.18365e-07
3.20266e-07
2.4462e-07
2.50132e-07
2.49992e-07
3.26473e-07
3.02167e-07
3.33529e-07
3.02222e-07
2.26016e-07
2.25641e-07
3.15001e-07
3.11732e-07
3.23959e-07
3.19967e-07
3.05849e-07
2.97179e-07
3.07472e-07
2.44516e-07
2.44338e-07
3.22396e-07
3.27701e-07
3.2899e-07
2.37932e-07
2.50279e-07
2.51686e-07
3.36079e-07
3.04229e-07
3.45334e-07
3.1447e-07
2.25939e-07
2.267e-07
3.27431e-07
3.23062e-07
3.37432e-07
3.34332e-07
3.08753e-07
3.11977e-07
3.16314e-07
2.44645e-07
2.46559e-07
3.31607e-07
3.41494e-07
3.40278e-07
2.36273e-07
2.5253e-07
2.56445e-07
3.49206e-07
3.17652e-07
3.6272e-07
3.28302e-07
2.27496e-07
2.32123e-07
3.41205e-07
3.39053e-07
3.546e-07
3.54013e-07
3.20821e-07
3.30958e-07
3.32794e-07
2.47596e-07
2.5173e-07
3.44412e-07
3.58863e-07
3.55911e-07
2.3902e-07
2.58204e-07
2.67202e-07
3.6725e-07
3.33061e-07
3.83801e-07
3.52769e-07
2.3442e-07
2.43436e-07
3.59637e-07
3.59375e-07
3.79599e-07
3.77716e-07
3.37556e-07
3.5686e-07
3.59811e-07
2.53575e-07
2.62941e-07
3.60706e-07
3.82089e-07
3.80752e-07
2.56153e-07
2.71113e-07
2.8639e-07
3.897e-07
3.57911e-07
4.12937e-07
3.84185e-07
2.45933e-07
2.65325e-07
3.86505e-07
3.8534e-07
4.10259e-07
4.07175e-07
3.65825e-07
3.89486e-07
3.83274e-07
2.67142e-07
2.83258e-07
3.86263e-07
4.11914e-07
4.04338e-07
2.63731e-07
2.92989e-07
3.24407e-07
4.22137e-07
3.96434e-07
4.54886e-07
4.1878e-07
2.78707e-07
2.9106e-07
4.1991e-07
4.15775e-07
4.50778e-07
4.51094e-07
3.9611e-07
4.25652e-07
4.29492e-07
2.88747e-07
3.28552e-07
4.16141e-07
4.56599e-07
4.45811e-07
3.08438e-07
3.35553e-07
3.96565e-07
4.68356e-07
4.33993e-07
5.14141e-07
4.89593e-07
2.97472e-07
3.92562e-07
4.64655e-07
4.61479e-07
5.0929e-07
5.11863e-07
4.37466e-07
4.97726e-07
5.07741e-07
3.38692e-07
3.99506e-07
4.5355e-07
5.17518e-07
5.18206e-07
4.2162e-07
4.17696e-07
5.27413e-07
5.35721e-07
5.02784e-07
5.97799e-07
5.77921e-07
4.02847e-07
4.94317e-07
5.30062e-07
5.25986e-07
5.92081e-07
6.01601e-07
5.23313e-07
5.81377e-07
5.63344e-07
4.31231e-07
5.28016e-07
5.31223e-07
6.10116e-07
5.77947e-07
4.57815e-07
5.45078e-07
8.39606e-07
6.10044e-07
6.10909e-07
7.53106e-07
6.65245e-07
5.57506e-07
6.72591e-07
6.04093e-07
6.24904e-07
7.48056e-07
6.92546e-07
5.93394e-07
6.76055e-07
7.12197e-07
5.85632e-07
6.75239e-07
6.11495e-07
7.024e-07
7.15503e-07
7.81921e-07
9.5795e-07
9.65571e-07
7.93317e-07
7.12885e-07
8.41067e-07
9.15241e-07
7.04942e-07
1.29753e-06
7.90185e-07
7.64536e-07
8.39013e-07
8.87348e-07
7.52312e-07
9.18865e-07
8.44356e-07
7.66008e-07
1.18817e-06
7.55645e-07
8.94733e-07
8.61098e-07
1.0369e-06
9.99944e-07
2.10946e-06
8.95647e-07
9.32584e-07
1.18859e-06
1.03884e-06
1.34507e-06
1.43234e-06
8.90187e-07
9.02619e-07
1.18276e-06
1.13846e-06
8.88392e-07
1.06761e-06
1.10554e-06
1.19998e-06
1.77187e-06
9.02096e-07
1.15615e-06
1.11934e-06
1.76631e-06
2.28096e-06
2.48238e-06
1.25387e-06
1.17348e-06
1.41199e-06
1.4696e-06
1.68124e-06
3.0134e-06
1.24837e-06
1.24983e-06
1.40398e-06
1.44103e-06
1.20406e-06
1.50222e-06
1.45179e-06
2.11058e-06
2.76586e-06
1.22232e-06
1.44885e-06
1.46178e-06
2.80708e-06
2.62263e-06
3.84257e-06
1.49617e-06
1.55523e-06
1.83921e-06
1.81122e-06
3.18242e-06
3.77835e-06
1.48899e-06
1.50714e-06
1.83333e-06
1.8218e-06
1.50081e-06
1.81048e-06
1.78572e-06
2.82555e-06
3.74519e-06
1.50961e-06
1.83373e-06
1.7905e-06
3.55853e-06
4.1824e-06
5.61876e-06
1.96543e-06
1.90053e-06
2.37212e-06
2.34956e-06
3.99756e-06
5.43664e-06
1.95425e-06
1.95966e-06
2.36317e-06
2.38357e-06
1.94186e-06
2.38394e-06
2.36035e-06
4.10374e-06
5.67864e-06
1.94389e-06
2.38791e-06
2.37729e-06
5.76634e-06
5.98776e-06
7.70383e-06
2.52687e-06
2.52702e-06
3.00764e-06
2.97527e-06
5.90357e-06
7.73535e-06
2.51984e-06
2.517e-06
2.97816e-06
3.04094e-06
2.49406e-06
2.99711e-06
2.99986e-06
6.0427e-06
7.73155e-06
2.51111e-06
3.06461e-06
2.9914e-06
7.55828e-06
8.12821e-06
1.0073e-05
3.17851e-06
3.14736e-06
3.77826e-06
3.78827e-06
8.10541e-06
1.00792e-05
3.15321e-06
3.22406e-06
3.77514e-06
3.74642e-06
3.16777e-06
3.81525e-06
3.7465e-06
8.18815e-06
1.00493e-05
3.16558e-06
3.74991e-06
3.76988e-06
1.00785e-05
1.05727e-05
1.25351e-05
3.9938e-06
3.99947e-06
4.64806e-06
4.64641e-06
1.0627e-05
1.25609e-05
3.97636e-06
3.96823e-06
4.615e-06
4.74068e-06
3.99601e-06
4.64702e-06
4.65402e-06
1.05137e-05
1.27677e-05
4.01007e-06
4.75701e-06
4.65919e-06
1.26346e-05
1.30206e-05
1.5109e-05
4.88907e-06
4.89337e-06
5.70123e-06
5.68767e-06
1.30152e-05
1.51487e-05
4.86996e-06
4.98696e-06
5.68079e-06
5.67092e-06
4.84851e-06
5.74107e-06
5.70904e-06
1.33103e-05
1.50435e-05
4.85977e-06
5.66851e-06
5.71194e-06
1.50509e-05
1.5635e-05
1.75325e-05
5.97331e-06
5.96596e-06
6.86466e-06
6.89632e-06
1.56984e-05
1.75646e-05
5.9489e-06
5.93269e-06
6.82019e-06
6.93974e-06
6.03036e-06
6.92307e-06
6.83169e-06
1.55086e-05
1.76715e-05
6.0343e-06
6.92715e-06
6.83906e-06
1.76165e-05
1.8026e-05
1.97968e-05
7.20629e-06
7.20404e-06
8.13288e-06
8.09437e-06
1.80399e-05
1.97568e-05
7.14675e-06
7.25493e-06
8.10009e-06
8.14173e-06
7.13581e-06
8.12683e-06
8.16783e-06
1.82124e-05
1.9852e-05
7.12802e-06
8.16834e-06
8.15436e-06
1.97844e-05
2.02494e-05
2.18974e-05
8.42981e-06
8.44437e-06
9.61354e-06
9.62054e-06
2.02299e-05
2.19789e-05
8.4083e-06
8.51381e-06
9.53634e-06
9.60832e-06
8.48179e-06
9.65683e-06
9.59358e-06
2.02902e-05
2.19115e-05
8.49034e-06
9.57602e-06
9.61888e-06
2.20276e-05
2.23742e-05
2.37797e-05
1.00293e-05
9.98538e-06
1.10484e-05
1.10814e-05
2.2432e-05
2.37916e-05
9.95222e-06
9.92974e-06
1.1048e-05
1.11333e-05
1.00345e-05
1.11294e-05
1.11844e-05
2.23476e-05
2.37781e-05
1.00343e-05
1.10674e-05
1.11676e-05
2.38725e-05
2.41623e-05
2.55745e-05
1.14127e-05
1.14868e-05
1.27823e-05
1.27312e-05
2.42039e-05
2.55444e-05
1.14133e-05
1.15844e-05
1.27252e-05
1.27291e-05
1.15227e-05
1.2766e-05
1.27119e-05
2.4201e-05
2.55105e-05
1.15686e-05
1.27073e-05
1.29088e-05
2.54957e-05
2.59967e-05
2.7098e-05
1.32403e-05
1.31452e-05
1.44709e-05
1.44581e-05
2.59206e-05
2.71172e-05
1.31757e-05
1.30771e-05
1.44133e-05
1.43429e-05
1.31576e-05
1.45332e-05
1.44615e-05
2.58796e-05
2.70389e-05
1.33208e-05
1.43044e-05
1.46059e-05
2.71654e-05
2.74212e-05
2.85454e-05
1.48771e-05
1.49054e-05
1.62333e-05
1.62128e-05
2.74877e-05
2.85827e-05
1.48237e-05
1.48499e-05
1.617e-05
1.64012e-05
1.48637e-05
1.63157e-05
1.61275e-05
2.74324e-05
2.87498e-05
1.50902e-05
1.63337e-05
1.64738e-05
2.85706e-05
2.89212e-05
3.00711e-05
1.67438e-05
1.66686e-05
1.82429e-05
1.80668e-05
2.89217e-05
2.99716e-05
1.6673e-05
1.68823e-05
1.81585e-05
1.81367e-05
1.66338e-05
1.81465e-05
1.82004e-05
2.9084e-05
2.99062e-05
1.69206e-05
1.80625e-05
1.82647e-05
2.99684e-05
3.03763e-05
3.1232e-05
1.86868e-05
1.85039e-05
1.99793e-05
1.98161e-05
3.02838e-05
3.11881e-05
1.85921e-05
1.85088e-05
1.98426e-05
1.97501e-05
1.86559e-05
1.98212e-05
1.99929e-05
3.0183e-05
3.11343e-05
1.8678e-05
1.97105e-05
1.99231e-05
3.12845e-05
3.15314e-05
3.25342e-05
2.04289e-05
2.02865e-05
2.181e-05
2.17449e-05
3.14977e-05
3.25327e-05
2.02958e-05
2.02436e-05
2.17654e-05
2.18163e-05
2.04769e-05
2.17364e-05
2.18915e-05
3.14768e-05
3.26034e-05
2.03773e-05
2.17767e-05
2.17545e-05
3.25463e-05
3.28303e-05
3.37173e-05
2.22569e-05
2.22151e-05
2.35537e-05
2.35818e-05
3.28326e-05
3.37389e-05
2.22483e-05
2.22986e-05
2.35755e-05
2.35882e-05
2.2311e-05
2.35361e-05
2.35464e-05
3.29003e-05
3.37328e-05
2.21873e-05
2.35665e-05
2.34972e-05
3.3628e-05
3.39964e-05
3.49036e-05
2.40393e-05
2.40851e-05
2.5534e-05
2.5595e-05
3.4026e-05
3.49385e-05
2.4051e-05
2.40638e-05
2.55333e-05
2.55695e-05
2.40356e-05
2.55599e-05
2.55397e-05
3.40132e-05
3.49684e-05
2.40102e-05
2.55842e-05
2.55477e-05
3.49155e-05
3.51431e-05
3.57809e-05
2.59528e-05
2.60152e-05
2.69895e-05
2.70539e-05
3.51688e-05
3.57827e-05
2.59602e-05
2.60009e-05
2.70158e-05
2.70594e-05
2.59523e-05
2.69719e-05
2.69681e-05
3.52101e-05
3.58254e-05
2.59599e-05
2.71078e-05
2.69797e-05
3.57795e-05
3.60526e-05
3.76235e-05
2.74553e-05
2.7515e-05
2.92976e-05
2.93312e-05
3.60519e-05
3.76212e-05
2.74815e-05
2.7522e-05
2.93066e-05
2.9328e-05
2.74318e-05
2.92813e-05
2.92764e-05
3.60856e-05
3.76184e-05
2.74495e-05
2.93909e-05
2.93057e-05
3.76299e-05
3.80476e-05
3.92623e-05
2.99852e-05
3.00058e-05
3.18032e-05
3.18036e-05
3.80442e-05
3.92564e-05
2.99889e-05
3.00028e-05
3.18106e-05
3.18044e-05
2.99581e-05
3.17924e-05
3.17783e-05
3.80395e-05
3.92561e-05
2.99927e-05
3.18523e-05
3.181e-05
3.92569e-05
3.94292e-05
3.92894e-05
3.21423e-05
3.21463e-05
3.23891e-05
3.24038e-05
3.94254e-05
3.92977e-05
3.21534e-05
3.21428e-05
3.24036e-05
3.23888e-05
3.21263e-05
3.23912e-05
3.23866e-05
3.94231e-05
3.92878e-05
3.21511e-05
3.24197e-05
3.24018e-05
3.92959e-05
3.92866e-05
3.8077e-05
3.23738e-05
3.23901e-05
3.16869e-05
3.17198e-05
3.92962e-05
3.80923e-05
3.23883e-05
3.23733e-05
3.16989e-05
3.1684e-05
3.23727e-05
3.16976e-05
3.17041e-05
3.92853e-05
3.80804e-05
3.23872e-05
3.17168e-05
3.17072e-05
3.80917e-05
3.79968e-05
3.69575e-05
3.13277e-05
3.13571e-05
3.05716e-05
3.05871e-05
3.8011e-05
3.69593e-05
3.13359e-05
3.13248e-05
3.0571e-05
3.05725e-05
3.13425e-05
3.0569e-05
3.05775e-05
3.80008e-05
3.69672e-05
3.13447e-05
3.05967e-05
3.05774e-05
3.69604e-05
3.69675e-05
3.72377e-05
3.04915e-05
3.05033e-05
3.08695e-05
3.08626e-05
3.6969e-05
3.72312e-05
3.04892e-05
3.04937e-05
3.086e-05
3.08784e-05
3.04953e-05
3.08542e-05
3.08645e-05
3.69774e-05
3.72494e-05
3.04945e-05
3.08805e-05
3.08604e-05
3.72346e-05
3.74793e-05
3.85789e-05
3.13524e-05
3.1347e-05
3.28318e-05
3.28294e-05
3.74733e-05
3.85753e-05
3.13446e-05
3.13612e-05
3.2827e-05
3.28403e-05
3.13494e-05
3.28238e-05
3.28321e-05
3.74906e-05
3.85877e-05
3.13452e-05
3.28399e-05
3.28286e-05
3.85783e-05
3.89429e-05
4.11137e-05
3.34697e-05
3.34676e-05
3.59082e-05
3.59071e-05
3.89398e-05
4.11112e-05
3.34656e-05
3.34776e-05
3.5905e-05
3.59135e-05
3.34706e-05
3.59038e-05
3.59104e-05
3.8951e-05
4.1118e-05
3.34673e-05
3.59121e-05
3.59079e-05
4.11149e-05
4.16614e-05
4.39835e-05
3.68131e-05
3.68124e-05
3.93805e-05
3.93804e-05
4.16593e-05
4.39816e-05
3.68104e-05
3.68177e-05
3.93786e-05
3.9383e-05
3.68156e-05
3.93779e-05
3.93834e-05
4.16652e-05
4.3985e-05
3.68134e-05
3.93826e-05
3.93818e-05
4.39853e-05
4.44291e-05
4.59749e-05
4.01196e-05
4.01196e-05
4.18755e-05
4.18756e-05
4.44273e-05
4.59734e-05
4.01181e-05
4.01216e-05
4.18743e-05
4.18764e-05
4.01226e-05
4.18741e-05
4.18785e-05
4.44302e-05
4.59752e-05
4.01211e-05
4.18773e-05
4.18773e-05
4.59768e-05
4.62472e-05
4.70313e-05
4.23102e-05
4.23103e-05
4.32303e-05
4.323e-05
4.62459e-05
4.70301e-05
4.23092e-05
4.23109e-05
4.32291e-05
4.32306e-05
4.23132e-05
4.32296e-05
4.32333e-05
4.62475e-05
4.70317e-05
4.23121e-05
4.3232e-05
4.32323e-05
4.70335e-05
4.71726e-05
4.74829e-05
4.34324e-05
4.34321e-05
4.38268e-05
4.38264e-05
4.71715e-05
4.74821e-05
4.34313e-05
4.34327e-05
4.38258e-05
4.3827e-05
4.34355e-05
4.38269e-05
4.383e-05
4.7173e-05
4.74835e-05
4.34346e-05
4.3829e-05
4.38293e-05
4.74854e-05
4.75575e-05
4.7673e-05
4.39084e-05
4.39081e-05
4.40663e-05
4.40662e-05
4.75568e-05
4.76724e-05
4.39076e-05
4.39087e-05
4.40655e-05
4.40665e-05
4.39118e-05
4.4067e-05
4.40696e-05
4.75581e-05
4.76735e-05
4.39111e-05
4.40687e-05
4.40691e-05
4.76755e-05
4.77175e-05
4.77456e-05
4.40989e-05
4.40989e-05
4.41559e-05
4.4156e-05
4.7717e-05
4.77451e-05
4.40983e-05
4.40992e-05
4.41552e-05
4.4156e-05
4.41022e-05
4.41567e-05
4.41591e-05
4.7718e-05
4.77459e-05
4.41018e-05
4.41583e-05
4.41587e-05
4.7748e-05
4.77761e-05
4.77631e-05
4.41636e-05
4.41637e-05
4.41673e-05
4.41672e-05
4.77758e-05
4.77625e-05
4.4163e-05
4.41637e-05
4.41665e-05
4.41673e-05
4.41669e-05
4.41679e-05
4.41706e-05
4.77764e-05
4.77634e-05
4.41665e-05
4.41697e-05
4.41701e-05
4.77656e-05
4.77857e-05
4.77374e-05
4.41639e-05
4.41637e-05
4.41602e-05
4.41602e-05
4.7785e-05
4.77368e-05
4.41631e-05
4.41639e-05
4.41595e-05
4.41603e-05
4.41673e-05
4.41609e-05
4.41636e-05
4.77861e-05
4.77379e-05
4.41667e-05
4.41627e-05
4.41631e-05
4.77401e-05
4.77646e-05
4.77656e-05
4.41624e-05
4.41625e-05
4.4173e-05
4.4173e-05
4.77642e-05
4.77652e-05
4.41618e-05
4.41625e-05
4.41722e-05
4.4173e-05
4.41658e-05
4.41737e-05
4.41762e-05
4.7765e-05
4.77659e-05
4.41653e-05
4.41753e-05
4.41756e-05
4.7768e-05
4.77934e-05
4.77522e-05
4.41731e-05
4.41731e-05
4.4167e-05
4.41669e-05
4.77931e-05
4.77513e-05
4.41723e-05
4.4173e-05
4.41663e-05
4.4167e-05
4.41763e-05
4.41676e-05
4.41701e-05
4.77937e-05
4.77522e-05
4.41757e-05
4.41693e-05
4.41697e-05
4.77542e-05
4.77749e-05
4.77498e-05
4.41656e-05
4.41655e-05
4.41661e-05
4.41662e-05
4.7774e-05
4.775e-05
4.41648e-05
4.41656e-05
4.41652e-05
4.41662e-05
4.41688e-05
4.41668e-05
4.41696e-05
4.77749e-05
4.77512e-05
4.41684e-05
4.41688e-05
4.41693e-05
4.77535e-05
4.77809e-05
4.77624e-05
4.41687e-05
4.41689e-05
4.41697e-05
4.41695e-05
4.7781e-05
4.77607e-05
4.41679e-05
4.41688e-05
4.41689e-05
4.41696e-05
4.41721e-05
4.41702e-05
4.41728e-05
4.77821e-05
4.77615e-05
4.41718e-05
4.41718e-05
4.4172e-05
4.77632e-05
4.77838e-05
4.77468e-05
4.41672e-05
4.4167e-05
4.41668e-05
4.4167e-05
4.77821e-05
4.77477e-05
4.41664e-05
4.41671e-05
4.41659e-05
4.41668e-05
4.41704e-05
4.41676e-05
4.41702e-05
4.77829e-05
4.77486e-05
4.41696e-05
4.41695e-05
4.41698e-05
4.77507e-05
4.77783e-05
4.77598e-05
4.41685e-05
4.41686e-05
4.41679e-05
4.41677e-05
4.77793e-05
4.77575e-05
4.41677e-05
4.41686e-05
4.41671e-05
4.41678e-05
4.41718e-05
4.41684e-05
4.4171e-05
4.77801e-05
4.77586e-05
4.41714e-05
4.41702e-05
4.41706e-05
4.77609e-05
4.77814e-05
4.77528e-05
4.41672e-05
4.41672e-05
4.41679e-05
4.41682e-05
4.77792e-05
4.77545e-05
4.41663e-05
4.41671e-05
4.4167e-05
4.41679e-05
4.41705e-05
4.41688e-05
4.41713e-05
4.77803e-05
4.77549e-05
4.41701e-05
4.41702e-05
4.41705e-05
4.77566e-05
4.77834e-05
4.77508e-05
4.4168e-05
4.41681e-05
4.41677e-05
4.41676e-05
4.77844e-05
4.77486e-05
4.41672e-05
4.4168e-05
4.41669e-05
4.41676e-05
4.41713e-05
4.41684e-05
4.4171e-05
4.77849e-05
4.77496e-05
4.41705e-05
4.41702e-05
4.41706e-05
4.77522e-05
4.77736e-05
4.77623e-05
4.41677e-05
4.41678e-05
4.41678e-05
4.41678e-05
4.77718e-05
4.77626e-05
4.41668e-05
4.41676e-05
4.41668e-05
4.41677e-05
4.4171e-05
4.41685e-05
4.41711e-05
4.77728e-05
4.77634e-05
4.41707e-05
4.41701e-05
4.41705e-05
4.77654e-05
4.7789e-05
4.77477e-05
4.41676e-05
4.41675e-05
4.41681e-05
4.41682e-05
4.7788e-05
4.77498e-05
4.41668e-05
4.41675e-05
4.41668e-05
4.4168e-05
4.41709e-05
4.41688e-05
4.41714e-05
4.77885e-05
4.77516e-05
4.41703e-05
4.41707e-05
4.4171e-05
4.77528e-05
4.77786e-05
4.775e-05
4.41681e-05
4.41682e-05
4.41674e-05
4.41675e-05
4.77813e-05
4.77481e-05
4.41668e-05
4.41679e-05
4.41667e-05
4.41675e-05
4.41713e-05
4.41683e-05
4.41709e-05
4.77828e-05
4.77483e-05
4.41709e-05
4.41699e-05
4.41702e-05
4.77508e-05
4.77731e-05
4.77613e-05
4.41677e-05
4.41679e-05
4.41675e-05
4.41675e-05
4.77721e-05
4.77578e-05
4.41669e-05
4.41679e-05
4.41666e-05
4.41673e-05
4.41713e-05
4.41681e-05
4.41705e-05
4.77727e-05
4.77572e-05
4.41707e-05
4.41698e-05
4.417e-05
4.77594e-05
4.77835e-05
4.77589e-05
4.41672e-05
4.41674e-05
4.41681e-05
4.41683e-05
4.77793e-05
4.77611e-05
4.41665e-05
4.41673e-05
4.41671e-05
4.4168e-05
4.41706e-05
4.41693e-05
4.41718e-05
4.77787e-05
4.77622e-05
4.417e-05
4.4171e-05
4.41713e-05
4.77649e-05
4.77873e-05
4.7747e-05
4.4168e-05
4.41677e-05
4.41674e-05
4.41681e-05
4.77867e-05
4.77553e-05
4.41671e-05
4.41676e-05
4.41666e-05
4.41678e-05
4.41708e-05
4.41686e-05
4.41712e-05
4.77875e-05
4.7756e-05
4.41704e-05
4.41705e-05
4.41706e-05
4.77549e-05
4.77773e-05
4.77497e-05
4.41677e-05
4.41682e-05
4.41675e-05
4.41679e-05
4.77853e-05
4.7747e-05
4.41668e-05
4.41679e-05
4.41668e-05
4.41677e-05
4.41724e-05
4.41683e-05
4.41709e-05
4.77858e-05
4.77478e-05
4.41717e-05
4.41698e-05
4.41702e-05
4.77513e-05
4.7773e-05
4.77594e-05
4.41675e-05
4.41684e-05
4.41677e-05
4.41675e-05
4.7777e-05
4.77494e-05
4.41667e-05
4.41678e-05
4.41669e-05
4.41677e-05
4.41708e-05
4.41685e-05
4.41712e-05
4.77769e-05
4.77502e-05
4.41702e-05
4.41701e-05
4.41705e-05
4.77523e-05
4.77809e-05
4.77612e-05
4.41677e-05
4.41678e-05
4.41677e-05
4.41683e-05
4.77725e-05
4.7763e-05
4.41669e-05
4.4168e-05
4.41666e-05
4.41676e-05
4.41713e-05
4.41691e-05
4.41718e-05
4.77738e-05
4.77577e-05
4.41707e-05
4.41701e-05
4.41712e-05
4.77667e-05
4.77863e-05
4.77569e-05
4.41677e-05
4.41683e-05
4.41683e-05
4.41677e-05
4.7788e-05
4.77505e-05
4.41667e-05
4.41677e-05
4.41672e-05
4.41677e-05
4.41717e-05
4.41686e-05
4.4171e-05
4.77796e-05
4.77564e-05
4.4171e-05
4.41701e-05
4.41702e-05
4.77534e-05
4.77869e-05
4.77472e-05
4.41686e-05
4.4168e-05
4.41675e-05
4.41684e-05
4.77798e-05
4.77581e-05
4.41673e-05
4.41678e-05
4.41666e-05
4.4168e-05
4.41718e-05
4.41689e-05
4.41709e-05
4.77787e-05
4.77587e-05
4.41711e-05
4.41702e-05
4.41703e-05
4.77524e-05
4.77714e-05
4.77608e-05
4.41674e-05
4.4168e-05
4.41685e-05
4.4168e-05
4.7786e-05
4.77521e-05
4.41667e-05
4.41676e-05
4.41674e-05
4.41683e-05
4.41708e-05
4.41692e-05
4.41721e-05
4.77798e-05
4.77599e-05
4.41703e-05
4.41707e-05
4.41712e-05
4.77658e-05
4.77856e-05
4.77475e-05
4.41686e-05
4.41687e-05
4.4167e-05
4.41673e-05
4.77834e-05
4.77481e-05
4.41676e-05
4.41688e-05
4.41661e-05
4.4167e-05
4.41718e-05
4.41683e-05
4.41711e-05
4.77884e-05
4.77461e-05
4.4171e-05
4.41694e-05
4.41707e-05
4.77562e-05
4.77716e-05
4.77602e-05
4.41675e-05
4.41676e-05
4.41672e-05
4.41674e-05
4.77717e-05
4.77618e-05
4.41666e-05
4.41676e-05
4.41662e-05
4.41672e-05
4.41722e-05
4.41687e-05
4.41707e-05
4.77716e-05
4.77611e-05
4.41715e-05
4.41694e-05
4.417e-05
4.77498e-05
4.77817e-05
4.7758e-05
4.41674e-05
4.41677e-05
4.41672e-05
4.41672e-05
4.7785e-05
4.77562e-05
4.41664e-05
4.41673e-05
4.41663e-05
4.41672e-05
4.4171e-05
4.41687e-05
4.41711e-05
4.77826e-05
4.77568e-05
4.41705e-05
4.41695e-05
4.41703e-05
4.77634e-05
4.77868e-05
4.77464e-05
4.41677e-05
4.41677e-05
4.41671e-05
4.41671e-05
4.77857e-05
4.77458e-05
4.41668e-05
4.41678e-05
4.41661e-05
4.41668e-05
4.41711e-05
4.41679e-05
4.41705e-05
4.77864e-05
4.77467e-05
4.41703e-05
4.41691e-05
4.41701e-05
4.77612e-05
4.77755e-05
4.77502e-05
4.41678e-05
4.41677e-05
4.41669e-05
4.41668e-05
4.77747e-05
4.77504e-05
4.41668e-05
4.41674e-05
4.41662e-05
4.41672e-05
4.41712e-05
4.41676e-05
4.417e-05
4.77718e-05
4.77585e-05
4.41706e-05
4.41695e-05
4.41699e-05
4.77506e-05
4.77733e-05
4.77598e-05
4.41677e-05
4.41676e-05
4.41671e-05
4.4167e-05
4.77733e-05
4.77598e-05
4.41669e-05
4.41678e-05
4.41661e-05
4.41669e-05
4.41709e-05
4.41677e-05
4.41699e-05
4.77801e-05
4.7761e-05
4.41708e-05
4.4169e-05
4.41689e-05
4.77501e-05
4.77815e-05
4.77604e-05
4.41679e-05
4.41679e-05
4.41668e-05
4.41667e-05
4.77821e-05
4.77598e-05
4.41672e-05
4.4168e-05
4.41658e-05
4.41666e-05
4.41708e-05
4.41675e-05
4.41698e-05
4.77862e-05
4.77583e-05
4.41702e-05
4.41689e-05
4.4169e-05
4.7757e-05
4.77867e-05
4.77554e-05
4.41682e-05
4.41681e-05
4.41665e-05
4.41664e-05
4.77865e-05
4.77537e-05
4.4167e-05
4.41678e-05
4.41659e-05
4.41664e-05
4.4171e-05
4.4167e-05
4.41695e-05
4.77868e-05
4.77491e-05
4.417e-05
4.41685e-05
4.41689e-05
4.77629e-05
4.77855e-05
4.77467e-05
4.41682e-05
4.41682e-05
4.41663e-05
4.41662e-05
4.77845e-05
4.77454e-05
4.41675e-05
4.41681e-05
4.41653e-05
4.41658e-05
4.41712e-05
4.41664e-05
4.41693e-05
4.77805e-05
4.77477e-05
4.41705e-05
4.41679e-05
4.41684e-05
4.77602e-05
4.77764e-05
4.77503e-05
4.41686e-05
4.41684e-05
4.41658e-05
4.41658e-05
4.7773e-05
4.77519e-05
4.41679e-05
4.41683e-05
4.41649e-05
4.41656e-05
4.41715e-05
4.41665e-05
4.41692e-05
4.77722e-05
4.77578e-05
4.41708e-05
4.41678e-05
4.41681e-05
4.77543e-05
4.77741e-05
4.77568e-05
4.41689e-05
4.41688e-05
4.41655e-05
4.41655e-05
4.77747e-05
4.77605e-05
4.41679e-05
4.41685e-05
4.41648e-05
4.41655e-05
4.41721e-05
4.41662e-05
4.41687e-05
4.77796e-05
4.77605e-05
4.41711e-05
4.41677e-05
4.41677e-05
4.77494e-05
4.77797e-05
4.77534e-05
4.41694e-05
4.41693e-05
4.41652e-05
4.41653e-05
4.77851e-05
4.77559e-05
4.41686e-05
4.41694e-05
4.41644e-05
4.41651e-05
4.41729e-05
4.41658e-05
4.41682e-05
4.7788e-05
4.77492e-05
4.41717e-05
4.41673e-05
4.41674e-05
4.77502e-05
4.77761e-05
4.776e-05
4.41703e-05
4.41705e-05
4.41655e-05
4.41653e-05
4.77853e-05
4.77487e-05
4.41695e-05
4.41705e-05
4.41647e-05
4.41653e-05
4.41735e-05
4.41659e-05
4.41685e-05
4.77809e-05
4.77488e-05
4.41727e-05
4.41673e-05
4.41676e-05
4.77585e-05
4.77826e-05
4.77536e-05
4.41721e-05
4.41723e-05
4.4158e-05
4.41579e-05
4.77791e-05
4.77443e-05
4.41713e-05
4.41721e-05
4.41572e-05
4.4158e-05
4.41752e-05
4.41585e-05
4.41611e-05
4.77737e-05
4.77506e-05
4.41743e-05
4.41599e-05
4.41601e-05
4.77584e-05
4.77801e-05
4.74752e-05
4.41633e-05
4.41632e-05
4.38969e-05
4.38973e-05
4.77687e-05
4.74759e-05
4.41625e-05
4.41632e-05
4.38979e-05
4.38956e-05
4.41663e-05
4.39002e-05
4.38994e-05
4.77723e-05
4.74775e-05
4.41653e-05
4.38997e-05
4.39003e-05
4.74789e-05
4.72035e-05
4.28559e-05
4.28561e-05
4.72027e-05
4.28573e-05
4.28543e-05
2.91022e-05
2.91012e-05
2.91036e-05
4.28581e-05
4.72025e-05
4.28596e-05
3.54386e-06
5.21263e-07
2.29839e-06
2.29516e-06
9.26536e-08
6.43846e-07
1.23038e-06
1.29646e-06
8.58457e-08
3.54781e-07
1.31671e-06
2.37127e-07
3.61225e-07
2.70073e-07
4.33655e-07
2.95606e-07
5.28352e-06
2.59275e-07
6.94369e-06
1.39147e-05
2.1737e-05
2.95003e-07
5.09968e-06
2.48198e-07
6.84591e-06
1.32805e-06
1.27024e-06
1.25226e-06
1.26218e-06
1.32095e-06
1.25712e-06
1.23775e-06
9.19808e-08
1.46028e-06
7.77087e-07
9.74872e-07
9.20751e-08
1.47363e-06
7.65659e-07
1.45673e-05
2.22382e-05
9.23079e-08
6.7332e-07
6.45896e-07
4.02032e-07
8.8623e-08
6.68987e-07
6.36508e-07
1.89276e-06
1.93187e-06
3.47909e-07
1.87007e-06
1.91167e-06
4.91604e-07
1.01555e-05
3.90749e-07
1.27781e-05
3.69438e-05
4.69582e-05
5.00848e-07
1.01147e-05
3.93194e-07
1.29979e-05
1.32395e-06
1.26125e-06
1.24274e-06
1.28289e-06
1.33715e-06