/*--------------------------------*- C++ -*----------------------------------*\
| =========                 |                                                 |
| \\      /  F ield         | OpenFOAM: The Open Source CFD Toolbox           |
|  \\    /   O peration     | Version:  v2012                                 |
|   \\  /    A nd           | Website:  www.openfoam.com                      |
|    \\/     M anipulation  |                                                 |
\*---------------------------------------------------------------------------*/
FoamFile
{
    version     2.0;
    format      ascii;
    class       volScalarField;
    location    "212.5";
    object      nut;
}
// * * * * * * * * * * * * * * * * * * * * * * * * * * * * * * * * * * * * * //

dimensions      [0 2 -1 0 0 0 0];


internalField   nonuniform List<scalar> 
171728
(
1.51889e-05
4.27929e-06
2.09543e-06
2.26089e-06
1.50155e-05
6.9691e-06
2.24104e-06
2.27128e-06
1.54247e-05
1.53593e-05
2.73819e-06
2.28681e-06
1.59619e-05
1.81972e-05
4.08793e-06
2.29179e-06
1.6407e-05
7.28637e-06
5.959e-06
2.29523e-06
1.67651e-05
2.98028e-06
6.6819e-06
2.29775e-06
1.6961e-05
2.2358e-06
4.84465e-06
2.30695e-06
1.71334e-05
2.18417e-06
3.35409e-06
2.32024e-06
1.74496e-05
2.21191e-06
2.8064e-06
2.33836e-06
1.78868e-05
2.23749e-06
2.78931e-06
2.34726e-06
1.82678e-05
2.27344e-06
2.77635e-06
2.34926e-06
1.86062e-05
2.30865e-06
2.76506e-06
2.27839e-06
1.89442e-05
2.35298e-06
2.76898e-06
2.11286e-06
1.92964e-05
2.39382e-06
2.77106e-06
1.95132e-06
1.96512e-05
2.42207e-06
2.79465e-06
1.82627e-06
2.00387e-05
2.45762e-06
2.79014e-06
1.67081e-06
2.04218e-05
2.48733e-06
2.79619e-06
1.69237e-06
2.08055e-05
2.56598e-06
2.75765e-06
1.49551e-06
2.11391e-05
2.50944e-06
2.7818e-06
1.50839e-06
2.14804e-05
2.65443e-06
2.86677e-06
2.09332e-06
2.16934e-05
2.97913e-06
3.125e-06
1.76141e-06
2.20589e-05
3.01494e-06
3.41977e-06
3.14574e-06
2.21256e-05
3.93489e-06
3.67432e-06
3.51155e-06
2.24011e-05
4.42192e-06
5.06859e-06
6.65533e-06
2.24074e-05
6.04696e-06
5.64243e-06
1.0031e-05
2.25109e-05
6.80759e-06
7.04696e-06
1.17549e-05
2.26136e-05
9.01471e-06
8.90124e-06
1.96703e-05
2.25495e-05
1.10311e-05
1.14716e-05
2.47745e-05
2.25886e-05
1.40073e-05
1.36832e-05
3.25684e-05
2.24527e-05
1.68206e-05
1.74498e-05
3.99912e-05
2.24495e-05
2.08853e-05
2.04252e-05
4.69066e-05
2.24789e-05
2.49875e-05
2.51345e-05
5.4027e-05
2.24013e-05
2.90702e-05
2.93695e-05
6.01626e-05
2.29174e-05
3.46595e-05
3.43165e-05
6.70649e-05
2.30552e-05
3.96224e-05
3.93986e-05
7.20406e-05
2.4051e-05
4.53579e-05
4.50497e-05
7.68939e-05
2.49452e-05
5.16128e-05
5.03978e-05
8.20514e-05
2.63739e-05
5.78802e-05
5.81558e-05
8.62715e-05
2.87026e-05
6.40111e-05
6.33337e-05
9.08065e-05
3.05258e-05
6.96395e-05
6.90044e-05
9.52518e-05
3.33078e-05
7.65791e-05
7.67189e-05
9.96484e-05
3.6156e-05
8.32109e-05
8.30668e-05
0.000103582
4.09942e-05
9.11458e-05
9.11661e-05
0.000108585
4.38283e-05
9.56881e-05
9.64462e-05
0.00011132
5.13138e-05
0.000107662
0.000108332
0.000120664
6.3421e-05
0.00012052
0.000120868
0.000128941
6.80097e-05
0.000121955
0.000122152
0.000129928
6.22863e-05
0.000114398
0.000114516
0.000123895
5.13914e-05
0.000106028
0.000106173
0.00011716
4.87207e-05
0.000107159
0.000107285
0.000117563
5.88048e-05
0.000115868
0.000115939
0.000122229
8.189e-05
0.000133022
0.000133054
0.000133599
0.000115953
0.000152535
0.000152549
0.000146855
0.000146573
0.000166595
0.000166601
0.000156114
0.000165954
0.000174165
0.000174166
0.000160975
0.000175382
0.000177448
0.000177446
0.000162998
0.000179316
0.000178779
0.000178775
0.000163838
0.00018075
0.000179254
0.00017925
0.000164172
0.000180979
0.000179266
0.000179263
0.00016426
0.000181013
0.000179239
0.000179236
0.0001641
0.000181096
0.000179325
0.00017932
0.000164282
0.000181063
0.000179272
0.000179268
0.00016418
0.000181071
0.00017929
0.000179288
0.000164195
0.000181069
0.000179284
0.000179279
0.000164229
0.000181067
0.00017929
0.000179287
0.000164189
0.000181066
0.000179283
0.00017928
0.000164215
0.000181065
0.000179289
0.000179283
0.000164221
0.000181064
0.000179287
0.000179284
0.000164158
0.000181063
0.000179286
0.000179281
0.000164264
0.000181064
0.00017929
0.000179286
0.000164207
0.000181066
0.000179289
0.000179285
0.000164148
0.000181065
0.000179284
0.00017928
0.000164194
0.000181066
0.000179288
0.000179284
0.000164261
0.000181067
0.000179293
0.00017929
0.000164219
0.000181067
0.000179288
0.000179282
0.00016416
0.000181067
0.000179288
0.000179284
0.000164154
0.000181069
0.000179293
0.000179284
0.000164259
0.000181071
0.000179291
0.000179286
0.000164208
0.000181069
0.00017929
0.000179282
0.000164158
0.00018107
0.000179296
0.00017929
0.000164258
0.000181067
0.00017929
0.000179283
0.000164223
0.000181067
0.00017929
0.00017928
0.000164143
0.000181067
0.000179293
0.000179283
0.000164228
0.000181068
0.00017929
0.000179281
0.000164254
0.000181068
0.000179287
0.000179283
0.000164199
0.000181068
0.000179287
0.000179283
0.000164158
0.000181068
0.000179289
0.000179283
0.000164188
0.000181068
0.00017929
0.000179283
0.000164236
0.000181069
0.000179288
0.000179282
0.000164238
0.000181069
0.000179288
0.000179282
0.000164216
0.000181069
0.000179292
0.000179286
0.000164172
0.000181069
0.000179295
0.00017929
0.00016415
0.000181068
0.000179302
0.000179295
0.000164199
0.000181162
0.000179283
0.000179277
0.00016424
0.000181941
0.000179448
0.000179442
0.000166256
2.2887e-06
2.54882e-06
2.42857e-06
2.25755e-06
2.69961e-06
3.38194e-06
1.58091e-05
1.61832e-05
1.56943e-05
1.53946e-05
4.98015e-06
2.54033e-06
2.24372e-06
2.49571e-06
2.45625e-06
2.27814e-06
2.28019e-06
2.27752e-06
2.49659e-06
1.74573e-06
2.50167e-06
1.86023e-06
2.2467e-06
2.35814e-06
2.43906e-06
4.89448e-06
2.69124e-06
5.77037e-06
2.5028e-06
5.80227e-06
2.51591e-06
2.23421e-06
2.30718e-06
2.41258e-06
2.16825e-06
2.42974e-06
2.28896e-06
2.27914e-06
2.32539e-06
2.51064e-06
1.953e-06
2.53629e-06
2.38085e-06
2.36616e-06
2.83542e-06
2.81898e-06
5.97796e-06
3.32323e-06
6.45185e-06
2.52453e-06
1.2841e-05
2.55449e-06
2.31481e-06
2.47027e-06
2.44076e-06
2.55893e-06
2.47287e-06
2.30581e-06
2.3325e-06
2.5135e-06
2.54622e-06
2.54276e-06
2.58136e-06
3.5297e-06
2.84898e-06
3.35437e-06
3.56999e-06
6.46729e-06
4.7718e-06
5.78133e-06
2.57112e-06
2.04051e-05
2.62773e-06
2.48073e-06
2.65373e-06
2.48211e-06
3.65848e-06
2.51549e-06
2.31137e-06
2.52984e-06
2.77839e-06
2.58922e-06
4.10545e-06
2.60779e-06
6.77885e-06
3.35913e-06
3.56734e-06
5.32494e-06
5.40751e-06
7.24743e-06
4.33483e-06
2.64699e-06
9.62631e-06
2.69946e-06
2.63422e-06
2.73677e-06
2.52591e-06
5.53368e-06
2.54733e-06
2.31482e-06
2.7701e-06
3.00289e-06
2.61559e-06
7.90953e-06
2.64445e-06
1.08571e-05
3.54841e-06
3.79412e-06
7.90734e-06
4.04317e-06
9.52278e-06
3.36585e-06
2.71615e-06
3.51102e-06
2.76671e-06
2.69646e-06
2.67185e-06
2.55256e-06
6.77028e-06
2.57218e-06
2.31625e-06
2.98158e-06
3.0974e-06
2.65869e-06
1.16066e-05
2.69337e-06
1.11657e-05
3.73512e-06
3.48554e-06
9.89662e-06
3.19557e-06
1.00611e-05
2.84252e-06
2.78429e-06
2.30624e-06
2.82322e-06
2.59147e-06
2.40117e-06
2.57915e-06
5.31949e-06
2.60495e-06
2.32505e-06
3.02469e-06
2.60585e-06
2.70255e-06
9.93507e-06
2.7118e-06
6.69147e-06
3.18418e-06
2.55052e-06
9.23658e-06
2.77581e-06
6.50851e-06
2.70148e-06
2.83931e-06
2.18073e-06
2.88226e-06
2.35451e-06
2.27552e-06
2.61249e-06
3.64003e-06
2.63895e-06
2.33729e-06
2.48817e-06
2.31188e-06
2.71841e-06
6.00021e-06
2.72887e-06
5.20873e-06
2.4736e-06
2.30966e-06
5.65746e-06
2.70344e-06
3.86521e-06
2.71684e-06
2.89993e-06
2.20368e-06
2.94311e-06
2.24407e-06
2.26609e-06
2.64466e-06
2.86209e-06
2.66313e-06
2.35311e-06
2.27537e-06
2.25098e-06
2.73439e-06
5.19887e-06
2.74807e-06
5.19106e-06
2.26832e-06
2.25989e-06
3.52309e-06
2.72626e-06
2.99579e-06
2.74928e-06
2.95519e-06
2.23431e-06
2.98238e-06
2.24867e-06
2.23047e-06
2.66876e-06
2.78916e-06
2.69155e-06
2.36233e-06
2.22837e-06
2.21622e-06
2.75319e-06
5.10335e-06
2.77277e-06
4.51854e-06
2.2265e-06
2.168e-06
2.93214e-06
2.7579e-06
2.85697e-06
2.78522e-06
2.98445e-06
2.26733e-06
2.96628e-06
2.20822e-06
2.19485e-06
2.70183e-06
2.78166e-06
2.73313e-06
2.36612e-06
2.19871e-06
2.19267e-06
2.78425e-06
4.24572e-06
2.81905e-06
3.40106e-06
2.13472e-06
2.03317e-06
2.83811e-06
2.79148e-06
2.83442e-06
2.80774e-06
2.95451e-06
2.301e-06
2.8694e-06
2.17755e-06
2.15472e-06
2.74487e-06
2.76472e-06
2.76253e-06
2.30616e-06
2.17556e-06
2.15679e-06
2.82501e-06
3.17401e-06
2.84347e-06
2.71853e-06
2.0016e-06
1.89765e-06
2.83775e-06
2.81059e-06
2.8481e-06
2.81658e-06
2.82654e-06
2.34198e-06
2.72596e-06
2.13258e-06
2.09157e-06
2.76534e-06
2.76735e-06
2.77036e-06
2.14216e-06
2.13791e-06
2.09718e-06
2.85182e-06
2.64331e-06
2.85492e-06
2.52696e-06
1.87383e-06
1.83052e-06
2.85493e-06
2.82174e-06
2.86895e-06
2.82094e-06
2.69593e-06
2.3822e-06
2.60392e-06
2.06901e-06
2.02621e-06
2.77444e-06
2.77068e-06
2.7694e-06
1.98047e-06
2.07381e-06
2.01855e-06
2.85299e-06
2.51864e-06
2.84245e-06
2.54179e-06
1.81019e-06
1.74935e-06
2.8753e-06
2.82028e-06
2.86184e-06
2.8229e-06
2.57845e-06
2.42073e-06
2.54161e-06
2.00439e-06
1.9518e-06
2.76678e-06
2.7889e-06
2.75534e-06
1.85113e-06
1.98896e-06
1.92331e-06
2.84512e-06
2.53495e-06
2.84811e-06
2.49901e-06
1.72142e-06
1.66385e-06
2.85622e-06
2.83266e-06
2.84139e-06
2.84271e-06
2.5533e-06
2.44856e-06
2.53041e-06
1.92596e-06
1.86422e-06
2.76159e-06
2.79265e-06
2.73286e-06
1.72362e-06
1.88638e-06
1.82209e-06
2.83952e-06
2.49152e-06
2.81556e-06
2.52175e-06
1.63804e-06
1.6033e-06
2.83353e-06
2.839e-06
2.84923e-06
2.82815e-06
2.51917e-06
2.5023e-06
2.58939e-06
1.8281e-06
1.76779e-06
2.72622e-06
2.78898e-06
2.77089e-06
1.7294e-06
1.78994e-06
1.7271e-06
2.80346e-06
2.50065e-06
2.79186e-06
2.51257e-06
1.55877e-06
1.5107e-06
2.84754e-06
2.8343e-06
2.83258e-06
2.7926e-06
2.59213e-06
2.51315e-06
2.50678e-06
1.7383e-06
1.694e-06
2.76328e-06
2.77482e-06
2.68007e-06
1.51367e-06
1.69344e-06
1.69851e-06
2.792e-06
2.55517e-06
2.79446e-06
2.46978e-06
1.56399e-06
1.42781e-06
2.8339e-06
2.77717e-06
2.8083e-06
2.80336e-06
2.54246e-06
2.4908e-06
2.58188e-06
1.64637e-06
1.73705e-06
2.70795e-06
2.80966e-06
2.69741e-06
1.58639e-06
1.67325e-06
1.80126e-06
2.80588e-06
2.4876e-06
2.83686e-06
2.65415e-06
1.35277e-06
1.81456e-06
2.82358e-06
2.78599e-06
2.83738e-06
2.85017e-06
2.52531e-06
2.69765e-06
2.8061e-06
1.7153e-06
1.79855e-06
2.6401e-06
2.86023e-06
2.86488e-06
1.99405e-06
1.81148e-06
2.18886e-06
2.89408e-06
2.63908e-06
2.99097e-06
2.8345e-06
1.77125e-06
1.88157e-06
2.88381e-06
2.83623e-06
2.98063e-06
3.03953e-06
2.8366e-06
2.8174e-06
2.70513e-06
1.91589e-06
2.10777e-06
2.86316e-06
3.08025e-06
2.78821e-06
1.66839e-06
2.12872e-06
3.19696e-06
2.90603e-06
2.95919e-06
3.49655e-06
2.83503e-06
2.14565e-06
2.32381e-06
2.89219e-06
3.07601e-06
3.48437e-06
3.01443e-06
2.77224e-06
2.90424e-06
3.20557e-06
2.35291e-06
2.2196e-06
2.89285e-06
3.07138e-06
3.2038e-06
2.96477e-06
3.85755e-06
3.04579e-06
3.66404e-06
2.97226e-06
3.36185e-06
3.98463e-06
2.23065e-06
5.10158e-06
3.66901e-06
3.37275e-06
3.38046e-06
3.77837e-06
3.34737e-06
3.96322e-06
3.4459e-06
2.46302e-06
4.50524e-06
3.33587e-06
3.81377e-06
3.53347e-06
3.52581e-06
2.82614e-06
7.84084e-06
3.46075e-06
3.91937e-06
4.81479e-06
3.77935e-06
5.18735e-06
4.00345e-06
3.45422e-06
3.64212e-06
4.80693e-06
4.42047e-06
3.51932e-06
3.96983e-06
4.22698e-06
4.24773e-06
5.52417e-06
3.58481e-06
4.52078e-06
4.28835e-06
5.69587e-06
8.61195e-06
8.03648e-06
5.04747e-06
4.40161e-06
5.26744e-06
5.59099e-06
4.76674e-06
1.07366e-05
5.04227e-06
4.95168e-06
5.24243e-06
5.47417e-06
4.64312e-06
5.78547e-06
5.57179e-06
7.0507e-06
9.73666e-06
4.73728e-06
5.51201e-06
5.61578e-06
9.96473e-06
8.17623e-06
1.21142e-05
5.48455e-06
5.87214e-06
6.6317e-06
6.55017e-06
1.1223e-05
1.21711e-05
5.46513e-06
5.58483e-06
6.63031e-06
6.51383e-06
5.58758e-06
6.48985e-06
6.29921e-06
9.4549e-06
1.1567e-05
5.62241e-06
6.58685e-06
6.30525e-06
1.06351e-05
1.32333e-05
1.78014e-05
7.06091e-06
6.72383e-06
8.40569e-06
8.26158e-06
1.26047e-05
1.6706e-05
7.02426e-06
7.0064e-06
8.38508e-06
8.48237e-06
6.90651e-06
8.46118e-06
8.37103e-06
1.27431e-05
1.80737e-05
6.88945e-06
8.48825e-06
8.44619e-06
1.87103e-05
1.88748e-05
2.4192e-05
8.93967e-06
8.95044e-06
1.0523e-05
1.03327e-05
1.8285e-05
2.44426e-05
8.93897e-06
8.86836e-06
1.03769e-05
1.07038e-05
8.7679e-06
1.04159e-05
1.05001e-05
1.91412e-05
2.41856e-05
8.85182e-06
1.08439e-05
1.0409e-05
2.33819e-05
2.53891e-05
3.12004e-05
1.10666e-05
1.08683e-05
1.31283e-05
1.3189e-05
2.53244e-05
3.10976e-05
1.09395e-05
1.13506e-05
1.3174e-05
1.28889e-05
1.1028e-05
1.33313e-05
1.28977e-05
2.5586e-05
3.09656e-05
1.0965e-05
1.2898e-05
1.30086e-05
3.11306e-05
3.26858e-05
3.82571e-05
1.38832e-05
1.39248e-05
1.60361e-05
1.60267e-05
3.28605e-05
3.83967e-05
1.38473e-05
1.36375e-05
1.58798e-05
1.65486e-05
1.38654e-05
1.59765e-05
1.61234e-05
3.21712e-05
3.92354e-05
1.39226e-05
1.66789e-05
1.61127e-05
3.87781e-05
3.95366e-05
4.56354e-05
1.68382e-05
1.68687e-05
1.9689e-05
1.95942e-05
3.94913e-05
4.57472e-05
1.67694e-05
1.74361e-05
1.96471e-05
1.94945e-05
1.66144e-05
1.98376e-05
1.96661e-05
4.09448e-05
4.52983e-05
1.66433e-05
1.94708e-05
1.96384e-05
4.5125e-05
4.71564e-05
5.25596e-05
2.06011e-05
2.05396e-05
2.36363e-05
2.38894e-05
4.74154e-05
5.2767e-05
2.05432e-05
2.02951e-05
2.34762e-05
2.40732e-05
2.09226e-05
2.40215e-05
2.34671e-05
4.64079e-05
5.30893e-05
2.08971e-05
2.40251e-05
2.348e-05
5.30104e-05
5.39264e-05
5.90465e-05
2.49115e-05
2.49664e-05
2.79968e-05
2.77229e-05
5.4042e-05
5.87595e-05
2.46485e-05
2.52066e-05
2.78928e-05
2.79576e-05
2.44575e-05
2.78492e-05
2.81435e-05
5.47688e-05
5.93592e-05
2.43681e-05
2.82289e-05
2.79136e-05
5.87381e-05
6.02411e-05
6.5019e-05
2.88423e-05
2.88992e-05
3.31222e-05
3.32362e-05
6.00399e-05
6.54622e-05
2.88263e-05
2.93071e-05
3.2746e-05
3.32045e-05
2.91277e-05
3.33739e-05
3.2926e-05
6.04893e-05
6.52401e-05
2.90096e-05
3.30609e-05
3.29015e-05
6.55834e-05
6.64434e-05
7.05623e-05
3.47226e-05
3.44959e-05
3.7862e-05
3.80719e-05
6.67775e-05
7.0624e-05
3.43161e-05
3.4144e-05
3.79577e-05
3.83086e-05
3.46589e-05
3.82887e-05
3.87714e-05
6.64355e-05
7.05643e-05
3.44495e-05
3.8073e-05
3.82742e-05
7.12492e-05
7.15219e-05
7.59812e-05
3.89413e-05
3.94714e-05
4.39105e-05
4.37828e-05
7.17686e-05
7.59675e-05
3.90738e-05
4.00465e-05
4.3719e-05
4.38713e-05
3.97548e-05
4.38743e-05
4.35683e-05
7.17633e-05
7.57787e-05
3.96274e-05
4.37569e-05
4.45766e-05
7.56168e-05
7.73085e-05
8.06791e-05
4.56171e-05
4.51724e-05
4.97238e-05
4.97054e-05
7.70058e-05
8.07134e-05
4.53742e-05
4.48251e-05
4.95317e-05
4.88137e-05
4.51435e-05
5.00661e-05
4.96975e-05
7.67791e-05
8.01578e-05
4.59891e-05
4.87471e-05
5.03251e-05
8.10271e-05
8.14991e-05
8.50049e-05
5.0998e-05
5.12716e-05
5.55437e-05
5.56566e-05
8.18013e-05
8.53007e-05
5.08345e-05
5.06652e-05
5.53027e-05
5.65932e-05
5.09786e-05
5.62057e-05
5.49353e-05
8.133e-05
8.61312e-05
5.21135e-05
5.63209e-05
5.70584e-05
8.53652e-05
8.6173e-05
9.03232e-05
5.74317e-05
5.72126e-05
6.30598e-05
6.21321e-05
8.62827e-05
8.98234e-05
5.71285e-05
5.83999e-05
6.26502e-05
6.26497e-05
5.67609e-05
6.26912e-05
6.2766e-05
8.71587e-05
8.95696e-05
5.85918e-05
6.22831e-05
6.32593e-05
8.98097e-05
9.12292e-05
9.39648e-05
6.45993e-05
6.35937e-05
6.8878e-05
6.78808e-05
9.07436e-05
9.36797e-05
6.41255e-05
6.37207e-05
6.80996e-05
6.74761e-05
6.43751e-05
6.80354e-05
6.88959e-05
9.02691e-05
9.32911e-05
6.46007e-05
6.72234e-05
6.85703e-05
9.42329e-05
9.48595e-05
9.86275e-05
7.04113e-05
6.95044e-05
7.53285e-05
7.48079e-05
9.46208e-05
9.85511e-05
6.96197e-05
6.92043e-05
7.50095e-05
7.52166e-05
7.06565e-05
7.49193e-05
7.59075e-05
9.43947e-05
9.88594e-05
7.01403e-05
7.49443e-05
7.50841e-05
9.88499e-05
9.96052e-05
0.00010304
7.69158e-05
7.65172e-05
8.13639e-05
8.13776e-05
9.95486e-05
0.000103096
7.68205e-05
7.70373e-05
8.14982e-05
8.1468e-05
7.73476e-05
8.12435e-05
8.13843e-05
9.9859e-05
0.000103009
7.65794e-05
8.12285e-05
8.10408e-05
0.00010258
0.000103987
0.000107793
8.32096e-05
8.33411e-05
8.93579e-05
8.96268e-05
0.000104092
0.000107982
8.32815e-05
8.32452e-05
8.93189e-05
8.94522e-05
8.32352e-05
8.95585e-05
8.9428e-05
0.00010396
0.000108103
8.30445e-05
8.9401e-05
8.94771e-05
0.0001078
0.000108581
0.000110575
9.09896e-05
9.12816e-05
9.40943e-05
9.44569e-05
0.000108727
0.000110603
9.09931e-05
9.11748e-05
9.42213e-05
9.44863e-05
9.10159e-05
9.40232e-05
9.39655e-05
0.000108934
0.000110917
9.10664e-05
9.46868e-05
9.40246e-05
0.000110507
0.000111381
0.000118686
9.57908e-05
9.61425e-05
0.000104179
0.000104406
0.000111394
0.000118687
9.59211e-05
9.61877e-05
0.000104211
0.000104394
9.5639e-05
0.000104087
0.000104033
0.000111673
0.000118762
9.57333e-05
0.000104772
0.000104204
0.000118688
0.00012067
0.000128086
0.00010777
0.000107912
0.000118416
0.000118391
0.000120662
0.000128036
0.000107765
0.000107907
0.000118441
0.000118443
0.000107578
0.000118338
0.0001182
0.000120719
0.000128089
0.000107793
0.000118794
0.000118436
0.000128023
0.000128999
0.000130022
0.000120561
0.000120548
0.000122037
0.000122083
0.00012896
0.000130049
0.000120619
0.000120584
0.000122141
0.000122053
0.0001204
0.000122056
0.000121968
0.000129001
0.000130021
0.000120596
0.000122263
0.000122103
0.000130022
0.000129921
0.000124465
0.000121929
0.000121985
0.00011702
0.000117207
0.000129956
0.000124554
0.000122036
0.000121942
0.000117124
0.000117007
0.000121871
0.000117113
0.000117103
0.00012992
0.000124472
0.000122001
0.000117219
0.000117151
0.000124533
0.000123832
0.000117541
0.000114323
0.000114492
0.000107425
0.000107522
0.000123916
0.000117564
0.000114402
0.000114306
0.000107448
0.000107421
0.000114394
0.00010744
0.000107452
0.000123842
0.000117577
0.000114435
0.000107583
0.000107473
0.000117554
0.000117147
0.000116881
0.000106026
0.000106102
0.000105214
0.000105173
0.000117169
0.000116857
0.000106037
0.000106027
0.000105175
0.000105255
0.000106041
0.000105145
0.000105174
0.000117183
0.000116931
0.000106057
0.000105283
0.000105166
0.000116861
0.000117581
0.000121088
0.000107221
0.000107188
0.000113088
0.000113073
0.000117558
0.000121078
0.00010719
0.000107261
0.000113075
0.000113128
0.000107192
0.000113058
0.00011308
0.000117629
0.000121127
0.000107184
0.000113142
0.000113074
0.00012108
0.000122237
0.000131316
0.000115894
0.00011588
0.000128083
0.000128074
0.000122228
0.000131311
0.000115884
0.000115932
0.000128078
0.000128107
0.00011589
0.000128075
0.000128087
0.000122273
0.000131335
0.000115885
0.000128114
0.000128086
0.000131317
0.000133598
0.000144865
0.000133029
0.000133021
0.000147991
0.000147986
0.000133595
0.000144864
0.000133026
0.000133049
0.000147994
0.000147998
0.000133034
0.000147995
0.000148
0.000133614
0.000144869
0.000133036
0.000148012
0.000148006
0.000144868
0.000146852
0.000154921
0.00015253
0.000152526
0.00016372
0.000163717
0.000146851
0.000154921
0.000152536
0.000152534
0.00016373
0.000163715
0.00015254
0.000163733
0.00016373
0.000146855
0.000154918
0.000152547
0.00016374
0.000163739
0.000154923
0.000156112
0.000160435
0.000166582
0.000166578
0.000172765
0.000172759
0.000156113
0.000160437
0.000166593
0.000166575
0.000172776
0.000172755
0.000166591
0.000172783
0.000172774
0.000156109
0.000160432
0.000166601
0.000172785
0.000172785
0.000160439
0.000160971
0.000162807
0.000174146
0.000174139
0.000176858
0.000176851
0.000160973
0.00016281
0.000174157
0.000174135
0.00017687
0.000176848
0.000174155
0.000176882
0.000176869
0.000160968
0.000162805
0.000174167
0.000176881
0.000176882
0.000162812
0.000162992
0.000163809
0.000177422
0.000177415
0.00017852
0.000178514
0.000162996
0.000163814
0.000177435
0.000177412
0.000178533
0.000178509
0.000177433
0.000178548
0.00017853
0.000162991
0.000163806
0.000177447
0.000178544
0.000178545
0.000163814
0.000163832
0.000164221
0.000178751
0.000178745
0.000179166
0.000179161
0.000163837
0.000164227
0.000178765
0.000178739
0.00017918
0.000179154
0.000178761
0.000179194
0.000179176
0.00016383
0.000164218
0.000178777
0.00017919
0.000179192
0.000164226
0.000164167
0.000164355
0.000179226
0.000179222
0.000179264
0.000179258
0.000164172
0.00016436
0.000179241
0.000179214
0.000179278
0.000179251
0.000179236
0.000179291
0.000179274
0.000164163
0.000164352
0.000179252
0.000179287
0.000179289
0.00016436
0.000164255
0.000164176
0.000179238
0.000179233
0.000179199
0.000179193
0.000164259
0.000164181
0.000179252
0.000179226
0.000179213
0.000179187
0.000179249
0.000179226
0.00017921
0.000164252
0.000164174
0.000179264
0.000179223
0.000179225
0.000164182
0.000164094
0.000164345
0.00017921
0.000179205
0.000179292
0.000179288
0.000164099
0.000164352
0.000179224
0.000179198
0.000179306
0.000179279
0.000179221
0.000179321
0.000179302
0.000164091
0.000164342
0.000179236
0.000179316
0.000179317
0.00016435
0.000164276
0.000164286
0.000179297
0.000179292
0.000179256
0.00017925
0.000164283
0.000164288
0.000179311
0.000179284
0.000179271
0.000179243
0.000179307
0.000179283
0.000179265
0.000164274
0.00016428
0.000179321
0.000179279
0.00017928
0.000164287
0.000164179
0.000164236
0.000179245
0.000179239
0.000179242
0.000179238
0.000164181
0.000164246
0.000179259
0.000179232
0.000179255
0.00017923
0.000179255
0.00017927
0.000179254
0.000164173
0.000164239
0.00017927
0.000179268
0.000179271
0.000164249
0.000164183
0.000164342
0.000179262
0.000179258
0.000179275
0.000179269
0.000164193
0.000164341
0.000179275
0.00017925
0.000179289
0.000179262
0.000179273
0.000179302
0.000179284
0.000164186
0.000164331
0.00017929
0.000179297
0.000179297
0.000164338
0.000164233
0.000164223
0.000179257
0.00017925
0.000179249
0.000179246
0.000164231
0.000164236
0.000179271
0.000179244
0.000179262
0.000179237
0.000179266
0.000179278
0.00017926
0.000164222
0.000164228
0.000179279
0.000179275
0.000179276
0.000164236
0.000164175
0.000164327
0.000179262
0.000179258
0.00017926
0.000179254
0.000164189
0.000164323
0.000179276
0.00017925
0.000179274
0.000179247
0.000179272
0.000179287
0.000179269
0.000164181
0.000164315
0.000179289
0.000179284
0.000179285
0.000164325
0.000164218
0.000164261
0.000179256
0.00017925
0.00017926
0.000179256
0.000164212
0.000164282
0.000179268
0.000179242
0.000179273
0.000179247
0.000179265
0.000179289
0.00017927
0.000164205
0.00016427
0.000179281
0.000179282
0.000179283
0.000164275
0.000164208
0.000164268
0.00017926
0.000179256
0.000179258
0.000179252
0.000164226
0.00016426
0.000179274
0.000179247
0.000179272
0.000179245
0.000179271
0.000179286
0.000179268
0.000164215
0.000164253
0.000179284
0.000179282
0.000179284
0.000164265
0.00016416
0.000164334
0.000179258
0.000179254
0.000179259
0.000179255
0.000164154
0.000164348
0.000179271
0.000179245
0.000179271
0.000179246
0.000179268
0.000179287
0.000179269
0.000164147
0.000164339
0.000179285
0.000179283
0.000179284
0.000164346
0.00016426
0.000164231
0.000179258
0.000179252
0.000179261
0.000179257
0.000164264
0.000164253
0.000179271
0.000179245
0.000179272
0.000179248
0.000179268
0.00017929
0.000179271
0.000164254
0.00016425
0.000179282
0.000179286
0.000179287
0.000164253
0.000164179
0.000164257
0.000179261
0.000179257
0.000179256
0.000179251
0.000164206
0.000164251
0.000179272
0.000179247
0.000179271
0.000179244
0.000179271
0.000179286
0.000179268
0.000164203
0.000164237
0.000179288
0.000179281
0.000179282
0.000164247
0.00016415
0.000164336
0.000179258
0.000179255
0.000179258
0.000179253
0.000164149
0.000164321
0.000179272
0.000179247
0.000179271
0.000179243
0.000179271
0.000179285
0.000179266
0.000164139
0.000164303
0.000179285
0.000179281
0.000179281
0.00016431
0.000164227
0.000164309
0.000179255
0.000179251
0.000179262
0.000179258
0.000164205
0.000164339
0.000179269
0.000179243
0.000179274
0.000179249
0.000179265
0.000179294
0.000179275
0.000164188
0.000164331
0.00017928
0.000179289
0.00017929
0.000164344
0.000164246
0.000164228
0.000179261
0.000179254
0.000179256
0.000179256
0.000164256
0.000164291
0.000179274
0.000179245
0.00017927
0.000179247
0.000179268
0.000179288
0.000179268
0.000164247
0.000164279
0.000179284
0.000179285
0.000179283
0.000164266
0.000164172
0.000164254
0.000179259
0.000179257
0.000179257
0.000179255
0.000164236
0.000164237
0.000179271
0.000179247
0.000179272
0.000179246
0.000179277
0.000179287
0.000179268
0.000164225
0.000164229
0.000179292
0.000179282
0.000179282
0.000164252
0.000164149
0.000164321
0.000179257
0.000179258
0.000179259
0.000179253
0.000164175
0.000164267
0.000179271
0.000179247
0.000179273
0.000179246
0.000179267
0.000179289
0.00017927
0.000164162
0.000164253
0.000179282
0.000179284
0.000179284
0.000164262
0.000164207
0.000164331
0.000179259
0.000179254
0.000179259
0.000179259
0.000164158
0.000164351
0.000179273
0.000179248
0.000179271
0.000179246
0.000179271
0.000179293
0.000179275
0.000164149
0.000164306
0.000179285
0.000179284
0.00017929
0.000164359
0.000164245
0.00016429
0.000179259
0.000179258
0.000179264
0.000179254
0.000164265
0.000164262
0.000179271
0.000179246
0.000179275
0.000179247
0.000179274
0.000179289
0.000179269
0.000164194
0.000164293
0.000179289
0.000179284
0.000179282
0.000164254
0.000164237
0.000164238
0.000179266
0.000179256
0.000179259
0.000179261
0.000164201
0.000164315
0.000179276
0.000179247
0.000179272
0.00017925
0.000179274
0.000179292
0.000179269
0.000164183
0.000164317
0.000179289
0.000179286
0.000179284
0.000164264
0.000164141
0.000164319
0.000179258
0.000179257
0.000179266
0.000179257
0.000164248
0.000164266
0.000179272
0.000179246
0.000179278
0.000179251
0.000179268
0.000179293
0.000179278
0.000164201
0.000164305
0.000179283
0.000179289
0.000179291
0.00016435
0.00016423
0.00016424
0.000179267
0.000179262
0.000179256
0.000179253
0.000164217
0.000164258
0.000179278
0.000179255
0.00017927
0.000179244
0.000179276
0.000179288
0.000179271
0.000164241
0.000164225
0.000179289
0.000179281
0.000179287
0.000164273
0.000164135
0.000164336
0.000179258
0.000179254
0.000179258
0.000179255
0.000164152
0.00016435
0.000179271
0.000179246
0.000179271
0.000179245
0.000179278
0.000179291
0.00017927
0.000164132
0.000164332
0.000179292
0.000179281
0.000179283
0.000164245
0.000164221
0.000164305
0.000179258
0.000179255
0.000179258
0.000179254
0.00016425
0.000164298
0.00017927
0.000179244
0.000179271
0.000179245
0.000179269
0.000179292
0.000179273
0.00016422
0.000164287
0.000179285
0.000179281
0.000179286
0.000164343
0.000164246
0.000164224
0.00017926
0.000179255
0.000179258
0.000179253
0.000164243
0.000164229
0.000179273
0.000179247
0.00017927
0.000179243
0.000179271
0.000179286
0.000179269
0.00016423
0.000164229
0.000179284
0.000179279
0.000179285
0.000164319
0.000164163
0.000164255
0.00017926
0.000179255
0.000179257
0.000179252
0.000164163
0.000164269
0.000179272
0.000179244
0.000179271
0.000179247
0.000179271
0.000179286
0.000179266
0.000164136
0.00016431
0.000179286
0.000179282
0.000179285
0.000164249
0.000164151
0.000164323
0.000179259
0.000179254
0.000179259
0.000179254
0.000164161
0.000164332
0.000179273
0.000179247
0.000179271
0.000179245
0.000179269
0.000179287
0.000179266
0.000164199
0.000164322
0.000179287
0.00017928
0.000179279
0.000164249
0.00016421
0.000164323
0.00017926
0.000179255
0.000179257
0.000179252
0.000164223
0.00016433
0.000179274
0.000179248
0.00017927
0.000179244
0.000179268
0.000179286
0.000179266
0.000164237
0.000164298
0.000179283
0.00017928
0.00017928
0.000164293
0.000164244
0.000164285
0.000179261
0.000179256
0.000179257
0.000179252
0.000164252
0.000164283
0.000179273
0.000179246
0.000179272
0.000179243
0.000179269
0.000179284
0.000179265
0.000164237
0.000164234
0.000179281
0.000179278
0.00017928
0.000164325
0.00016423
0.00016423
0.000179261
0.000179256
0.000179257
0.000179251
0.000164231
0.000164234
0.000179275
0.000179247
0.000179269
0.000179241
0.000179269
0.000179281
0.000179265
0.000164186
0.000164236
0.000179284
0.000179276
0.000179278
0.000164302
0.000164166
0.000164265
0.000179262
0.000179256
0.000179255
0.00017925
0.000164155
0.000164288
0.000179276
0.000179247
0.000179268
0.000179241
0.00017927
0.000179284
0.000179266
0.000164135
0.000164313
0.000179284
0.000179277
0.000179278
0.000164264
0.000164162
0.000164305
0.000179262
0.000179257
0.000179255
0.00017925
0.000164178
0.00016434
0.000179275
0.000179247
0.000179269
0.000179242
0.000179272
0.000179283
0.000179264
0.000164198
0.000164322
0.000179285
0.000179278
0.000179277
0.000164234
0.000164199
0.000164284
0.000179264
0.000179258
0.000179255
0.000179251
0.000164248
0.000164302
0.000179277
0.000179251
0.000179268
0.000179241
0.000179275
0.000179283
0.000179263
0.000164251
0.000164242
0.000179287
0.000179276
0.000179277
0.000164246
0.000164174
0.000164333
0.000179266
0.000179262
0.000179259
0.000179253
0.000164243
0.000164256
0.000179279
0.000179254
0.000179272
0.000179244
0.000179275
0.000179285
0.000179268
0.000164194
0.000164245
0.000179289
0.000179279
0.000179281
0.000164306
0.000164225
0.000164308
0.000179273
0.000179269
0.000179273
0.000179267
0.0001642
0.000164256
0.000179286
0.000179259
0.000179286
0.00017926
0.000179282
0.000179299
0.000179282
0.000164152
0.000164286
0.000179295
0.000179294
0.000179296
0.000164327
0.000164244
0.000165046
0.000179256
0.000179251
0.000181293
0.000181293
0.000164174
0.000165055
0.000179271
0.000179243
0.000181309
0.000181286
0.000179265
0.000181319
0.000181303
0.000164188
0.000165059
0.000179279
0.000181313
0.000181318
0.000165063
0.000166249
0.000179425
0.000179424
0.000166245
0.00017944
0.000179416
0.000181944
0.00018194
0.000181953
0.000179433
0.00016624
0.000179448
4.36595e-05
5.25472e-06
2.82605e-05
2.82977e-05
4.39736e-07
3.84987e-06
2.00041e-06
1.62212e-05
4.02421e-07
2.48379e-06
1.65101e-05
9.70853e-07
2.27773e-06
1.76334e-06
1.89035e-06
1.10932e-06
1.39312e-05
1.06451e-06
1.56234e-05
1.0895e-05
1.32162e-05
1.08129e-06
1.36804e-05
9.68402e-07
1.5504e-05
1.55433e-05
1.51743e-05
1.48908e-05
1.49327e-05
1.53714e-05
1.49577e-05
1.47202e-05
4.55918e-07
1.35817e-06
8.11568e-06
4.48465e-06
4.4029e-07
1.63944e-06
8.27239e-06
1.11568e-05
1.33615e-05
4.94808e-07
6.33946e-06
4.37186e-07
2.10729e-06
4.39524e-07
6.3255e-06
5.67397e-07
1.49654e-06
1.5281e-06
2.28233e-06
1.70697e-06
1.73773e-06
1.31778e-06
1.88636e-05
1.23738e-06
2.11685e-05
1.72161e-05
1.94041e-05
1.2921e-06
1.88286e-05
1.261e-06
2.13542e-05
1.54711e-05
1.50182e-05
1.48043e-05
1.53136e-05